0 	5.30761e-08
1.57135 	-4.96866e-06
3.1427 	-3.39422e-05
4.71405 	-0.000112139
6.28539 	-0.000315477
7.85674 	-0.00103575
9.42809 	-0.00367493
10.9994 	-0.00469641
12.5708 	-0.00417803
14.1421 	0.250661
