/*--------------------------------*- C++ -*----------------------------------*\
  =========                 |
  \\      /  F ield         | OpenFOAM: The Open Source CFD Toolbox
   \\    /   O peration     | Website:  https://openfoam.org
    \\  /    A nd           | Version:  8
     \\/     M anipulation  |
\*---------------------------------------------------------------------------*/
FoamFile
{
    version     2.0;
    format      ascii;
    class       surfaceScalarField;
    location    "0.355";
    object      phi;
}
// * * * * * * * * * * * * * * * * * * * * * * * * * * * * * * * * * * * * * //

dimensions      [0 3 -1 0 0 0 0];

internalField   nonuniform List<scalar> 
760
(
1.42318e-08
-1.42668e-08
-2.22106e-08
3.64422e-08
-1.14268e-07
9.20577e-08
-2.45491e-07
1.31222e-07
-3.96092e-07
1.50602e-07
-5.47357e-07
1.51265e-07
-6.83179e-07
1.35822e-07
-7.90649e-07
1.07469e-07
-8.60191e-07
6.95424e-08
-8.85624e-07
2.54332e-08
-8.64303e-07
-2.1321e-08
-7.97373e-07
-6.69298e-08
-6.90071e-07
-1.07301e-07
-5.51963e-07
-1.3811e-07
-3.96937e-07
-1.55026e-07
-2.42746e-07
-1.54191e-07
-1.09732e-07
-1.33013e-07
-1.84165e-08
-9.13154e-08
1.56891e-08
-3.41056e-08
1.56889e-08
-3.42151e-08
1.99484e-08
-1.80373e-07
1.826e-07
-4.33987e-07
3.45671e-07
-7.6443e-07
4.61666e-07
-1.13221e-06
5.18379e-07
-1.49724e-06
5.16296e-07
-1.82333e-06
4.61913e-07
-2.08052e-06
3.64666e-07
-2.24626e-06
2.3528e-07
-2.30603e-06
8.51967e-08
-2.25389e-06
-7.34606e-08
-2.09304e-06
-2.27781e-07
-1.83625e-06
-3.64088e-07
-1.50603e-06
-4.68327e-07
-1.13407e-06
-5.26984e-07
-7.59516e-07
-5.28749e-07
-4.25398e-07
-4.67132e-07
-1.72691e-07
-3.44022e-07
-3.08022e-08
-1.75995e-07
-1.51132e-08
-9.22276e-08
1.12176e-07
-3.56995e-07
4.47368e-07
-7.64554e-07
7.5323e-07
-1.26848e-06
9.6559e-07
-1.81469e-06
1.06459e-06
-2.34903e-06
1.05064e-06
-2.82241e-06
9.35297e-07
-3.19392e-06
7.3617e-07
-3.43258e-06
4.73944e-07
-3.51848e-06
1.71098e-07
-3.44354e-06
-1.484e-07
-3.21223e-06
-4.59095e-07
-2.84208e-06
-7.34236e-07
-2.36378e-06
-9.46626e-07
-1.8203e-06
-1.07047e-06
-1.26448e-06
-1.08457e-06
-7.54516e-07
-9.77093e-07
-3.46968e-07
-7.5157e-07
-8.73356e-08
-4.35627e-07
-1.02448e-07
-1.4521e-07
2.57385e-07
-5.25457e-07
8.27614e-07
-1.08162e-06
1.30939e-06
-1.74749e-06
1.63146e-06
-2.4543e-06
1.7714e-06
-3.13634e-06
1.73267e-06
-3.73525e-06
1.5342e-06
-4.20286e-06
1.20378e-06
-4.50287e-06
7.73952e-07
-4.61187e-06
2.80106e-07
-4.5202e-06
-2.40069e-07
-4.23269e-06
-7.46615e-07
-3.76932e-06
-1.1976e-06
-3.1656e-06
-1.55035e-06
-2.47185e-06
-1.76422e-06
-1.75105e-06
-1.80537e-06
-1.0745e-06
-1.65364e-06
-5.15133e-07
-1.31094e-06
-1.39314e-07
-8.11446e-07
-2.41762e-07
-1.93607e-07
4.50992e-07
-6.84993e-07
1.319e-06
-1.3856e-06
2.01001e-06
-2.20721e-06
2.45307e-06
-3.06543e-06
2.62961e-06
-3.88373e-06
2.55097e-06
-4.59644e-06
2.24692e-06
-5.15051e-06
1.75785e-06
-5.50637e-06
1.12981e-06
-5.63845e-06
4.1218e-07
-5.53568e-06
-3.42836e-07
-5.2023e-06
-1.07999e-06
-4.65882e-06
-1.74108e-06
-3.9429e-06
-2.26626e-06
-3.10966e-06
-2.59746e-06
-2.23047e-06
-2.68456e-06
-1.38962e-06
-2.49449e-06
-6.7849e-07
-2.02207e-06
-1.87765e-07
-1.30217e-06
-4.29527e-07
-2.39938e-07
6.9093e-07
-8.4034e-07
1.9194e-06
-1.68327e-06
2.85294e-06
-2.65703e-06
3.42683e-06
-3.66079e-06
3.63338e-06
-4.60771e-06
3.49789e-06
-5.42629e-06
3.06549e-06
-6.0605e-06
2.39206e-06
-6.46928e-06
1.53859e-06
-6.62597e-06
5.68875e-07
-6.51824e-06
-4.50566e-07
-6.14873e-06
-1.44951e-06
-5.53648e-06
-2.35334e-06
-4.71887e-06
-3.08387e-06
-3.75342e-06
-3.56291e-06
-2.71845e-06
-3.71953e-06
-1.71152e-06
-3.50142e-06
-8.44652e-07
-2.88893e-06
-2.36177e-07
-1.91065e-06
-6.65704e-07
-2.86743e-07
9.77673e-07
-9.97078e-07
2.62974e-06
-1.98207e-06
3.83792e-06
-3.10492e-06
4.54968e-06
-4.24792e-06
4.77638e-06
-5.31477e-06
4.56475e-06
-6.23006e-06
3.98078e-06
-6.93712e-06
3.09911e-06
-7.39543e-06
1.99691e-06
-7.57856e-06
7.5201e-07
-7.4731e-06
-5.56025e-07
-7.07906e-06
-1.84355e-06
-6.41184e-06
-3.02056e-06
-5.50554e-06
-3.99016e-06
-4.41703e-06
-4.65143e-06
-3.22935e-06
-4.90722e-06
-2.05294e-06
-4.67783e-06
-1.02253e-06
-3.91934e-06
-2.88279e-07
-2.6449e-06
-9.53983e-07
-3.3633e-07
1.314e-06
-1.16037e-06
3.45377e-06
-2.28801e-06
4.96557e-06
-3.55498e-06
5.81665e-06
-4.8266e-06
6.048e-06
-5.99904e-06
5.73718e-06
-6.996e-06
4.97775e-06
-7.76348e-06
3.8666e-06
-8.26444e-06
2.49787e-06
-8.47457e-06
9.62138e-07
-8.37992e-06
-6.50675e-07
-7.97686e-06
-2.24661e-06
-7.27454e-06
-3.72287e-06
-6.29993e-06
-4.96478e-06
-5.10465e-06
-5.8467e-06
-3.77252e-06
-6.23935e-06
-2.42488e-06
-6.02547e-06
-1.22074e-06
-5.12348e-06
-3.47706e-07
-3.51793e-06
-1.30169e-06
-3.90957e-07
1.70496e-06
-1.33488e-06
4.3977e-06
-2.60497e-06
6.23565e-06
-4.00594e-06
7.21762e-06
-5.3868e-06
7.42886e-06
-6.63973e-06
6.99012e-06
-7.69241e-06
6.03042e-06
-8.49844e-06
4.67263e-06
-9.02839e-06
3.02781e-06
-9.2629e-06
1.19664e-06
-9.18862e-06
-7.24946e-07
-8.79746e-06
-2.63778e-06
-8.08935e-06
-4.43098e-06
-7.07901e-06
-5.97512e-06
-5.80631e-06
-7.11939e-06
-4.34904e-06
-7.69663e-06
-2.83481e-06
-7.5397e-06
-1.44709e-06
-6.51119e-06
-4.18098e-07
-4.54693e-06
-1.71979e-06
-4.53454e-07
2.15841e-06
-1.52568e-06
5.46993e-06
-2.93488e-06
7.64485e-06
-4.45012e-06
8.73285e-06
-5.90633e-06
8.88507e-06
-7.19782e-06
8.28161e-06
-8.26367e-06
7.09627e-06
-9.07208e-06
5.48103e-06
-9.60689e-06
3.56262e-06
-9.85761e-06
1.44737e-06
-9.81344e-06
-7.69118e-07
-9.46139e-06
-2.98982e-06
-8.78912e-06
-5.10326e-06
-7.79301e-06
-6.97123e-06
-6.49222e-06
-8.42019e-06
-4.94797e-06
-9.24087e-06
-3.28511e-06
-9.20256e-06
-1.70868e-06
-8.08763e-06
-5.03587e-07
-5.75202e-06
-2.22337e-06
-5.28336e-07
2.68675e-06
-1.73966e-06
6.68125e-06
-3.27798e-06
9.18317e-06
-4.87163e-06
1.03265e-05
-6.34702e-06
1.03605e-05
-7.61083e-06
9.54542e-06
-8.62436e-06
8.10981e-06
-9.3797e-06
6.23637e-06
-9.881e-06
4.06393e-06
-1.01315e-05
1.69791e-06
-1.01258e-05
-7.74867e-07
-9.84635e-06
-3.26927e-06
-9.266e-06
-5.6836e-06
-8.35634e-06
-7.88088e-06
-7.1047e-06
-9.67183e-06
-5.5407e-06
-1.08049e-05
-3.77071e-06
-1.09726e-05
-2.01217e-06
-9.84617e-06
-6.09688e-07
-7.1545e-06
-2.83306e-06
-6.23666e-07
3.31042e-06
-1.98738e-06
8.04497e-06
-3.63191e-06
1.08277e-05
-5.24193e-06
1.19365e-05
-6.64758e-06
1.17661e-05
-7.78449e-06
1.06823e-05
-8.65104e-06
8.97635e-06
-9.27433e-06
6.85966e-06
-9.68656e-06
4.47616e-06
-9.90985e-06
1.92119e-06
-9.94726e-06
-7.3745e-07
-9.77861e-06
-3.43792e-06
-9.36091e-06
-6.1013e-06
-8.63564e-06
-8.60616e-06
-7.5464e-06
-1.07611e-05
-6.07159e-06
-1.22797e-05
-4.27427e-06
-1.27699e-05
-2.36365e-06
-1.17568e-05
-7.44777e-07
-8.77337e-06
-3.57784e-06
-7.54077e-07
4.06449e-06
-2.28435e-06
9.57525e-06
-3.98701e-06
1.25304e-05
-5.50911e-06
1.34586e-05
-6.70963e-06
1.29666e-05
-7.57859e-06
1.15513e-05
-8.17009e-06
9.56786e-06
-8.55767e-06
7.24724e-06
-8.80778e-06
4.72627e-06
-8.9651e-06
2.07852e-06
-9.04442e-06
-6.58133e-07
-9.0258e-06
-3.45654e-06
-8.85264e-06
-6.27446e-06
-8.43486e-06
-9.02394e-06
-7.66294e-06
-1.1533e-05
-6.44202e-06
-1.35006e-05
-4.75627e-06
-1.44556e-05
-2.76675e-06
-1.37463e-05
-9.22436e-07
-1.06177e-05
-4.50027e-06
-9.45207e-07
5.0097e-06
-2.64849e-06
1.12785e-05
-4.31099e-06
1.41929e-05
-5.5733e-06
1.47209e-05
-6.3707e-06
1.3764e-05
-6.78329e-06
1.19639e-05
-6.94051e-06
9.72508e-06
-6.96974e-06
7.27648e-06
-6.97279e-06
4.72931e-06
-7.01651e-06
2.12224e-06
-7.12861e-06
-5.46032e-07
-7.29376e-06
-3.29139e-06
-7.44864e-06
-6.11958e-06
-7.47789e-06
-8.99469e-06
-7.21794e-06
-1.17929e-05
-6.48276e-06
-1.42358e-05
-5.13344e-06
-1.58049e-05
-3.21498e-06
-1.56648e-05
-1.16439e-06
-1.26683e-05
-5.66466e-06
-1.23731e-06
6.24701e-06
-3.08329e-06
1.31245e-05
-4.50771e-06
1.56173e-05
-5.23448e-06
1.54477e-05
-5.35522e-06
1.38848e-05
-5.08183e-06
1.16905e-05
-4.63089e-06
9.27414e-06
-4.17926e-06
6.82484e-06
-3.85435e-06
4.40441e-06
-3.73701e-06
2.0049e-06
-3.86512e-06
-4.17926e-07
-4.23263e-06
-2.92387e-06
-4.78207e-06
-5.57014e-06
-5.39106e-06
-8.3857e-06
-5.85849e-06
-1.13255e-05
-5.90657e-06
-1.41877e-05
-5.23282e-06
-1.64787e-05
-3.66627e-06
-1.72313e-05
-1.50008e-06
-1.48345e-05
-7.16474e-06
-1.67381e-06
7.92082e-06
-3.51337e-06
1.49641e-05
-4.3153e-06
1.64192e-05
-4.08887e-06
1.52213e-05
-3.19305e-06
1.29889e-05
-1.99874e-06
1.04962e-05
-7.95141e-07
8.07054e-06
2.19338e-07
5.81036e-06
9.18234e-07
3.70551e-06
1.22561e-06
1.69753e-06
1.10207e-06
-2.94384e-07
5.41064e-07
-2.36287e-06
-4.22927e-07
-4.60615e-06
-1.69257e-06
-7.11607e-06
-3.07241e-06
-9.94567e-06
-4.23082e-06
-1.30293e-05
-4.69565e-06
-1.60139e-05
-3.96718e-06
-1.79598e-05
-1.94492e-06
-1.68567e-05
-9.10966e-06
-2.23069e-06
1.01515e-05
-3.59029e-06
1.63237e-05
-3.07778e-06
1.59067e-05
-1.34388e-06
1.34874e-05
8.97033e-07
1.0748e-05
3.15497e-06
8.23826e-06
5.13811e-06
6.0874e-06
6.68869e-06
4.25978e-06
7.72583e-06
2.66837e-06
8.20655e-06
1.21681e-06
8.10388e-06
-1.91719e-07
7.39903e-06
-1.65802e-06
6.08685e-06
-3.29397e-06
4.19918e-06
-5.22839e-06
1.85415e-06
-7.60063e-06
-6.61718e-07
-1.05134e-05
-2.79218e-06
-1.38834e-05
-3.66209e-06
-1.70899e-05
-2.41154e-06
-1.81073e-05
-1.15212e-05
-2.57381e-06
1.27253e-05
-2.18346e-06
1.59333e-05
7.18068e-07
1.30052e-05
4.46956e-06
9.73588e-06
8.13328e-06
7.08431e-06
1.13016e-05
5.06998e-06
1.38291e-05
3.55988e-06
1.56881e-05
2.40078e-06
1.68917e-05
1.4648e-06
1.74549e-05
6.53601e-07
1.73763e-05
-1.13201e-07
1.66305e-05
-9.12152e-07
1.51672e-05
-1.83066e-06
1.29235e-05
-2.98473e-06
9.86174e-06
-4.53888e-06
6.06196e-06
-6.71363e-06
1.91234e-06
-9.73379e-06
-1.55963e-06
-1.36179e-05
-2.45834e-06
-1.72086e-05
-1.39795e-05
-7.85013e-07
1.35103e-05
4.08079e-06
1.10675e-05
1.02975e-05
6.78843e-06
1.57936e-05
4.23979e-06
2.0158e-05
2.71991e-06
2.34581e-05
1.76994e-06
2.58608e-05
1.15714e-06
2.75215e-05
7.40052e-07
2.8554e-05
4.32292e-07
2.90264e-05
1.8122e-07
2.89622e-05
-4.89821e-08
2.83387e-05
-2.88699e-07
2.70818e-05
-5.73739e-07
2.50551e-05
-9.57954e-07
2.20517e-05
-1.53552e-06
1.78155e-05
-2.47741e-06
1.21724e-05
-4.09068e-06
5.47772e-06
-6.92324e-06
-1.2917e-07
-1.16017e-05
-1.41087e-05
1.35103e-05
2.45779e-05
3.13663e-05
3.56061e-05
3.8326e-05
4.00959e-05
4.12531e-05
4.19931e-05
4.24254e-05
4.26066e-05
4.25576e-05
4.22689e-05
4.16952e-05
4.07372e-05
3.92017e-05
3.67243e-05
3.26336e-05
2.57104e-05
1.41087e-05
)
;

boundaryField
{
    movingWall
    {
        type            calculated;
        value           uniform 0;
    }
    fixedWalls
    {
        type            calculated;
        value           uniform 0;
    }
    frontAndBack
    {
        type            empty;
        value           nonuniform List<scalar> 0();
    }
}


// ************************************************************************* //
