/*--------------------------------*- C++ -*----------------------------------*\
  =========                 |
  \\      /  F ield         | OpenFOAM: The Open Source CFD Toolbox
   \\    /   O peration     | Website:  https://openfoam.org
    \\  /    A nd           | Version:  8
     \\/     M anipulation  |
\*---------------------------------------------------------------------------*/
FoamFile
{
    version     2.0;
    format      ascii;
    class       volVectorField;
    location    "0.355";
    object      U;
}
// * * * * * * * * * * * * * * * * * * * * * * * * * * * * * * * * * * * * * //

dimensions      [0 1 -1 0 0 0 0];

internalField   nonuniform List<vector> 
400
(
(0.000253391 -0.00025043 0)
(0.000141195 0.000111423 0)
(-0.00117697 0.000564587 0)
(-0.00348106 0.000884958 0)
(-0.00637737 0.00104568 0)
(-0.00946931 0.00106171 0)
(-0.0124027 0.000957819 0)
(-0.0148847 0.000760417 0)
(-0.0166892 0.000494634 0)
(-0.017658 0.000184561 0)
(-0.0177019 -0.00014526 0)
(-0.0168049 -0.000468355 0)
(-0.0150299 -0.0007554 0)
(-0.012525 -0.000974248 0)
(-0.00952629 -0.00109117 0)
(-0.00635492 -0.00107399 0)
(-0.00340061 -0.000898106 0)
(-0.00108643 -0.000556381 0)
(0.000196419 -9.03674e-05 0)
(0.000267856 0.000262379 0)
(-7.74669e-05 -0.000169366 0)
(-0.00161155 0.0016448 0)
(-0.00569286 0.00361726 0)
(-0.0117188 0.00503477 0)
(-0.0188922 0.00574317 0)
(-0.0264007 0.00576015 0)
(-0.0334691 0.00517162 0)
(-0.0394267 0.00409248 0)
(-0.0437439 0.00264762 0)
(-0.0460471 0.000966931 0)
(-0.0461295 -0.000813205 0)
(-0.0439614 -0.00254705 0)
(-0.0397012 -0.00407862 0)
(-0.0337027 -0.00524509 0)
(-0.0265134 -0.00588655 0)
(-0.0188546 -0.00586484 0)
(-0.0115667 -0.00509474 0)
(-0.0055133 -0.00358941 0)
(-0.00149309 -0.00155914 0)
(-4.25808e-05 0.000227451 0)
(-0.000528606 0.00109162 0)
(-0.00371139 0.00573626 0)
(-0.0105889 0.0102244 0)
(-0.0199918 0.0134076 0)
(-0.0307649 0.0149462 0)
(-0.0418224 0.0148388 0)
(-0.0521201 0.0132557 0)
(-0.0607445 0.0104562 0)
(-0.0669698 0.00674197 0)
(-0.0702831 0.00243887 0)
(-0.0704011 -0.00210653 0)
(-0.0672848 -0.00652544 0)
(-0.0611528 -0.0104292 0)
(-0.0524888 -0.0134211 0)
(-0.0420373 -0.0151235 0)
(-0.0307741 -0.0152256 0)
(-0.0198292 -0.013556 0)
(-0.0103636 -0.0101789 0)
(-0.00354854 -0.00555107 0)
(-0.000476848 -0.000948834 0)
(-0.000928226 0.00347983 0)
(-0.00569152 0.0122206 0)
(-0.0153019 0.0199216 0)
(-0.027917 0.0251978 0)
(-0.0419857 0.0275969 0)
(-0.0561795 0.0271374 0)
(-0.0692526 0.0241089 0)
(-0.0801264 0.0189538 0)
(-0.087949 0.0121955 0)
(-0.0921196 0.00440506 0)
(-0.0923042 -0.00380797 0)
(-0.0884509 -0.0117966 0)
(-0.0808057 -0.0188821 0)
(-0.0699235 -0.0243763 0)
(-0.0566697 -0.0276276 0)
(-0.0421952 -0.0281017 0)
(-0.0278568 -0.0254977 0)
(-0.0150938 -0.0198917 0)
(-0.00550507 -0.0119277 0)
(-0.000861606 -0.00322486 0)
(-0.00127893 0.00687779 0)
(-0.00753609 0.0209536 0)
(-0.019805 0.0325103 0)
(-0.0355352 0.0401031 0)
(-0.0527439 0.0432901 0)
(-0.0698592 0.0421926 0)
(-0.0854642 0.0372774 0)
(-0.0983616 0.0292129 0)
(-0.107621 0.0187772 0)
(-0.112589 0.00681369 0)
(-0.112898 -0.00578038 0)
(-0.108475 -0.0180547 0)
(-0.0995632 -0.0290113 0)
(-0.08674 -0.0376326 0)
(-0.0709364 -0.0429449 0)
(-0.0534307 -0.0441287 0)
(-0.0357849 -0.0406786 0)
(-0.0197353 -0.0325924 0)
(-0.00737063 -0.0205905 0)
(-0.00120368 -0.00649813 0)
(-0.00160753 0.0112156 0)
(-0.00931807 0.0318744 0)
(-0.0242094 0.0479515 0)
(-0.0430029 0.0580716 0)
(-0.0632573 0.0619367 0)
(-0.0831534 0.0598807 0)
(-0.101125 0.0526278 0)
(-0.115893 0.0411255 0)
(-0.126489 0.0264368 0)
(-0.132238 0.00969279 0)
(-0.13275 -0.00791627 0)
(-0.127923 -0.0251319 0)
(-0.117967 -0.0406246 0)
(-0.103434 -0.0530189 0)
(-0.0852691 -0.0609657 0)
(-0.0648357 -0.0632795 0)
(-0.0438855 -0.0591415 0)
(-0.0244777 -0.0483439 0)
(-0.00925431 -0.0315573 0)
(-0.00153775 -0.0107285 0)
(-0.00194005 0.0164769 0)
(-0.0111212 0.0449737 0)
(-0.0286503 0.0662326 0)
(-0.0504797 0.0790584 0)
(-0.0736848 0.0834452 0)
(-0.0962035 0.0800731 0)
(-0.116351 0.0700234 0)
(-0.132814 0.0545841 0)
(-0.144631 0.0351312 0)
(-0.151141 0.0130845 0)
(-0.151949 -0.0100864 0)
(-0.146915 -0.0328322 0)
(-0.136181 -0.0534989 0)
(-0.120223 -0.0703359 0)
(-0.0999322 -0.0815641 0)
(-0.0767011 -0.0855316 0)
(-0.0524399 -0.0809626 0)
(-0.0295447 -0.0672762 0)
(-0.0112835 -0.044939 0)
(-0.00190006 -0.0159514 0)
(-0.00230002 0.0226946 0)
(-0.013025 0.0603 0)
(-0.0332506 0.0873623 0)
(-0.0580793 0.102995 0)
(-0.084074 0.107663 0)
(-0.108953 0.10256 0)
(-0.130967 0.0892426 0)
(-0.148833 0.0694096 0)
(-0.161665 0.0447709 0)
(-0.168866 0.0170196 0)
(-0.170062 -0.0121333 0)
(-0.16507 -0.0408925 0)
(-0.153929 -0.0673132 0)
(-0.136969 -0.0892717 0)
(-0.114942 -0.10451 0)
(-0.0891751 -0.110795 0)
(-0.0616702 -0.106211 0)
(-0.0351481 -0.0895781 0)
(-0.0135857 -0.0609486 0)
(-0.00232631 -0.0222773 0)
(-0.00271162 0.0299465 0)
(-0.0151079 0.0779552 0)
(-0.0381144 0.111354 0)
(-0.0658478 0.129747 0)
(-0.094326 0.134315 0)
(-0.121098 0.126971 0)
(-0.144442 0.1099 0)
(-0.163212 0.08528 0)
(-0.176685 0.055166 0)
(-0.184405 0.0214866 0)
(-0.186056 -0.0138744 0)
(-0.18142 -0.0489556 0)
(-0.170393 -0.0815917 0)
(-0.153079 -0.109322 0)
(-0.12997 -0.129379 0)
(-0.102185 -0.138826 0)
(-0.0716889 -0.134885 0)
(-0.0414666 -0.115467 0)
(-0.0162879 -0.0798941 0)
(-0.00285467 -0.0298892 0)
(-0.00320764 0.0383589 0)
(-0.0174661 0.0980875 0)
(-0.0433409 0.138186 0)
(-0.0737563 0.159043 0)
(-0.10416 0.162898 0)
(-0.132031 0.15267 0)
(-0.155825 0.131339 0)
(-0.174678 0.101638 0)
(-0.188167 0.0659564 0)
(-0.196067 0.0263892 0)
(-0.198185 -0.0151122 0)
(-0.194283 -0.0565441 0)
(-0.184081 -0.09564 0)
(-0.167366 -0.129686 0)
(-0.144215 -0.155421 0)
(-0.115338 -0.169094 0)
(-0.0824455 -0.1668 0)
(-0.0486359 -0.145122 0)
(-0.0195286 -0.102158 0)
(-0.00353355 -0.0390467 0)
(-0.00384396 0.0481278 0)
(-0.0202462 0.120891 0)
(-0.0490467 0.167749 0)
(-0.0816865 0.190363 0)
(-0.113053 0.192554 0)
(-0.140747 0.178612 0)
(-0.163622 0.152509 0)
(-0.18131 0.117591 0)
(-0.193847 0.0765337 0)
(-0.201361 0.031494 0)
(-0.203857 -0.0156583 0)
(-0.20111 -0.063049 0)
(-0.192649 -0.108489 0)
(-0.177857 -0.149168 0)
(-0.156224 -0.181412 0)
(-0.12778 -0.200603 0)
(-0.0936442 -0.201422 0)
(-0.056733 -0.178571 0)
(-0.0234798 -0.128171 0)
(-0.00443553 -0.0501038 0)
(-0.00472539 0.0595704 0)
(-0.0236948 0.146615 0)
(-0.0553833 0.199753 0)
(-0.0893769 0.222787 0)
(-0.120123 0.221888 0)
(-0.145677 0.203185 0)
(-0.165632 0.171837 0)
(-0.180373 0.131808 0)
(-0.190583 0.0859687 0)
(-0.196865 0.0363761 0)
(-0.199503 -0.01537 0)
(-0.198337 -0.0677416 0)
(-0.192719 -0.118865 0)
(-0.181575 -0.166075 0)
(-0.163646 -0.205485 0)
(-0.137967 -0.231658 0)
(-0.104596 -0.237622 0)
(-0.0657337 -0.215522 0)
(-0.0283778 -0.158366 0)
(-0.00568209 -0.0635515 0)
(-0.00605162 0.0732276 0)
(-0.028226 0.175561 0)
(-0.0625092 0.233568 0)
(-0.0962578 0.254744 0)
(-0.123858 0.248728 0)
(-0.144399 0.224023 0)
(-0.158672 0.187105 0)
(-0.168109 0.14246 0)
(-0.174203 0.0929678 0)
(-0.178121 0.0403788 0)
(-0.180487 -0.0141979 0)
(-0.181268 -0.0698199 0)
(-0.179697 -0.125209 0)
(-0.174272 -0.178178 0)
(-0.162896 -0.22497 0)
(-0.143317 -0.259585 0)
(-0.113938 -0.273326 0)
(-0.0753934 -0.255064 0)
(-0.0345564 -0.193089 0)
(-0.0074863 -0.0801036 0)
(-0.00819211 0.0900457 0)
(-0.0344829 0.208019 0)
(-0.0704127 0.267881 0)
(-0.101024 0.283604 0)
(-0.121575 0.269808 0)
(-0.133109 0.237838 0)
(-0.138165 0.195402 0)
(-0.139464 0.147231 0)
(-0.13937 0.0959082 0)
(-0.139597 0.0426193 0)
(-0.141112 -0.0122325 0)
(-0.144057 -0.068506 0)
(-0.147671 -0.125792 0)
(-0.150171 -0.182767 0)
(-0.148722 -0.236322 0)
(-0.139645 -0.280444 0)
(-0.119095 -0.305023 0)
(-0.0849364 -0.295156 0)
(-0.0424406 -0.232376 0)
(-0.0102161 -0.100836 0)
(-0.0117675 0.111635 0)
(-0.0432599 0.24396 0)
(-0.0782977 0.300032 0)
(-0.100629 0.30509 0)
(-0.108352 0.280458 0)
(-0.105732 0.24038 0)
(-0.0975306 0.193279 0)
(-0.0877722 0.143547 0)
(-0.0795024 0.093035 0)
(-0.0747868 0.0420947 0)
(-0.0748044 -0.00972848 0)
(-0.0798922 -0.0632103 0)
(-0.0894642 -0.118989 0)
(-0.10179 -0.176955 0)
(-0.113687 -0.235283 0)
(-0.120306 -0.28888 0)
(-0.115264 -0.327194 0)
(-0.0922668 -0.331792 0)
(-0.0523158 -0.275402 0)
(-0.0144304 -0.127347 0)
(-0.0175493 0.140659 0)
(-0.0547647 0.282145 0)
(-0.0827865 0.324717 0)
(-0.0880809 0.312472 0)
(-0.0751091 0.274454 0)
(-0.0525918 0.226769 0)
(-0.0274594 0.177287 0)
(-0.00451567 0.129134 0)
(0.0130976 0.0829121 0)
(0.0234387 0.0379467 0)
(0.0253973 -0.0070733 0)
(0.0185063 -0.053758 0)
(0.00297877 -0.103751 0)
(-0.0199978 -0.158319 0)
(-0.0476866 -0.217501 0)
(-0.0749853 -0.278359 0)
(-0.0935471 -0.331789 0)
(-0.0920639 -0.357681 0)
(-0.0632806 -0.319293 0)
(-0.0206336 -0.161973 0)
(-0.0254497 0.181711 0)
(-0.0657746 0.317771 0)
(-0.0733332 0.331362 0)
(-0.0480774 0.2954 0)
(-0.00557876 0.244211 0)
(0.0412179 0.192379 0)
(0.0846522 0.145046 0)
(0.120536 0.102971 0)
(0.146701 0.0651374 0)
(0.162046 0.0298912 0)
(0.16594 -0.00467147 0)
(0.157935 -0.0406281 0)
(0.137731 -0.080246 0)
(0.105439 -0.125917 0)
(0.0622614 -0.179725 0)
(0.0118051 -0.24202 0)
(-0.0378304 -0.307877 0)
(-0.0716797 -0.360142 0)
(-0.0700556 -0.356608 0)
(-0.0279123 -0.208375 0)
(-0.029649 0.239176 0)
(-0.0608413 0.335767 0)
(-0.0219425 0.300503 0)
(0.0505416 0.240127 0)
(0.127572 0.182948 0)
(0.197007 0.135389 0)
(0.254336 0.0973985 0)
(0.29825 0.0668507 0)
(0.328823 0.0413551 0)
(0.346466 0.0187785 0)
(0.351375 -0.00279412 0)
(0.343301 -0.025265 0)
(0.321467 -0.0507874 0)
(0.284641 -0.0820477 0)
(0.231571 -0.122445 0)
(0.16218 -0.175669 0)
(0.0799001 -0.243431 0)
(-0.00319017 -0.319136 0)
(-0.0546697 -0.368612 0)
(-0.0284594 -0.267618 0)
(0.00808311 0.281861 0)
(0.019783 0.294972 0)
(0.139066 0.210972 0)
(0.26446 0.143477 0)
(0.364367 0.0971857 0)
(0.440363 0.0657772 0)
(0.496742 0.0442373 0)
(0.536873 0.0288858 0)
(0.563445 0.0171988 0)
(0.578304 0.00748473 0)
(0.582379 -0.00149411 0)
(0.575694 -0.0108452 0)
(0.557307 -0.0218469 0)
(0.525134 -0.0363348 0)
(0.475776 -0.0572594 0)
(0.404537 -0.0893839 0)
(0.305176 -0.139741 0)
(0.173417 -0.216386 0)
(0.0411719 -0.311655 0)
(0.0184302 -0.299995 0)
(0.299604 0.146091 0)
(0.396272 0.127503 0)
(0.55742 0.0760895 0)
(0.674487 0.0437232 0)
(0.743888 0.025572 0)
(0.787153 0.0152421 0)
(0.815485 0.0092123 0)
(0.833955 0.00550938 0)
(0.845385 0.00302716 0)
(0.851371 0.00114934 0)
(0.852665 -0.000499382 0)
(0.849382 -0.00221505 0)
(0.840999 -0.00433853 0)
(0.82614 -0.00742404 0)
(0.802078 -0.0125322 0)
(0.76362 -0.0217728 0)
(0.699108 -0.0392829 0)
(0.583952 -0.0726601 0)
(0.415827 -0.127868 0)
(0.308819 -0.149468 0)
)
;

boundaryField
{
    movingWall
    {
        type            fixedValue;
        value           uniform (1 0 0);
    }
    fixedWalls
    {
        type            noSlip;
    }
    frontAndBack
    {
        type            empty;
    }
}


// ************************************************************************* //
