0 	-3.20643e-08
1.57135 	-0.000412919
3.1427 	-0.000661354
4.71405 	-0.00295762
6.28539 	-0.00734253
7.85674 	-0.0101636
9.42809 	-0.00903854
10.9994 	-0.00516733
12.5708 	0.0181928
14.1421 	0.0549424
