/*--------------------------------*- C++ -*----------------------------------*\
  =========                 |
  \\      /  F ield         | OpenFOAM: The Open Source CFD Toolbox
   \\    /   O peration     | Website:  https://openfoam.org
    \\  /    A nd           | Version:  8
     \\/     M anipulation  |
\*---------------------------------------------------------------------------*/
FoamFile
{
    version     2.0;
    format      ascii;
    class       volScalarField;
    location    "60";
    object      p;
}
// * * * * * * * * * * * * * * * * * * * * * * * * * * * * * * * * * * * * * //

dimensions      [0 2 -2 0 0 0 0];

internalField   nonuniform List<scalar> 
464
(
2.62687e-08
1.3396e-06
6.18958e-06
1.33586e-05
2.3771e-05
3.72812e-05
5.45915e-05
7.46668e-05
0.000100567
0.000126048
0.000162946
0.000188215
-1.31798e-06
5.771e-08
5.18131e-06
1.27985e-05
2.37761e-05
3.79447e-05
5.59609e-05
7.6958e-05
0.000103821
0.000131218
0.000170029
0.000201065
-7.40529e-06
-6.61933e-06
-2.6759e-06
3.1519e-06
1.20786e-05
2.40841e-05
3.97474e-05
5.87826e-05
8.29171e-05
0.000109043
0.000142842
0.000174457
-1.41355e-05
-1.28204e-05
-7.66933e-06
-1.94692e-07
1.05189e-05
2.44467e-05
4.21107e-05
6.34654e-05
8.99411e-05
0.000119618
0.0001566
0.000194265
-2.94655e-05
-2.96848e-05
-2.70174e-05
-2.33096e-05
-1.6481e-05
-6.79518e-06
6.72191e-06
2.43505e-05
4.69766e-05
7.42497e-05
0.000107819
0.000145685
-3.32179e-05
-3.25863e-05
-2.86429e-05
-2.27963e-05
-1.40255e-05
-2.16691e-06
1.34684e-05
3.35295e-05
5.88183e-05
8.99079e-05
0.000127505
0.000172699
-6.78869e-05
-6.97021e-05
-6.81202e-05
-6.80598e-05
-6.38342e-05
-5.82661e-05
-4.81743e-05
-3.35883e-05
-1.33458e-05
1.42992e-05
4.70998e-05
9.49645e-05
-5.56591e-05
-5.63039e-05
-5.51944e-05
-5.27048e-05
-4.86503e-05
-4.14657e-05
-3.12518e-05
-1.54605e-05
5.16224e-06
3.62674e-05
7.1065e-05
0.000126701
-0.000118773
-0.000124014
-0.000123413
-0.000131249
-0.000130014
-0.000133262
-0.000128942
-0.000120899
-0.000108513
-8.02847e-05
-5.76763e-05
4.70098e-06
-7.83854e-05
-8.07339e-05
-8.4937e-05
-8.71428e-05
-9.26094e-05
-9.27104e-05
-9.50898e-05
-8.60953e-05
-8.13045e-05
-5.03167e-05
-3.35788e-05
3.7228e-05
-0.000174298
-0.000186635
-0.000186859
-0.000210425
-0.000212954
-0.000233554
-0.000238325
-0.000243941
-0.000248115
-0.000224973
-0.000226315
-0.000153667
-9.63451e-05
-0.0001007
-0.000113987
-0.000121122
-0.0001439
-0.000152227
-0.000180223
-0.000179223
-0.000208802
-0.000179951
-0.000207654
-0.000123236
-0.000218447
-0.000246232
-0.000246918
-0.000300372
-0.000307476
-0.000357947
-0.000376097
-0.000406141
-0.000437005
-0.000430284
-0.000477416
-0.000405368
-0.000101986
-0.000110843
-0.000135733
-0.000147911
-0.000195001
-0.000214281
-0.000281003
-0.000292808
-0.000375882
-0.000358215
-0.000459059
-0.000378478
-0.000215229
-0.000282527
-0.00028486
-0.000394843
-0.00040695
-0.000503049
-0.00053762
-0.00060331
-0.000668082
-0.000693665
-0.000802768
-0.000760166
-8.60421e-05
-0.000114821
-0.00014359
-0.000159809
-0.000230889
-0.000267993
-0.000382806
-0.000416291
-0.000564018
-0.000573078
-0.000754747
-0.000712395
-6.20444e-05
-0.000257452
-0.000284593
-0.000498494
-0.000516032
-0.000666638
-0.000717025
-0.000823002
-0.000916087
-0.000994119
-0.001125
-0.00117238
-5.39582e-05
-0.000165982
-0.000154405
-0.000144978
-0.000220244
-0.000290905
-0.000465464
-0.000533561
-0.000745695
-0.000800247
-0.00101241
-0.00105062
0.000449129
-0.000284121
-0.000295069
-0.000673391
-0.000634664
-0.000836986
-0.000901917
-0.00104899
-0.00115164
-0.00133129
-0.00131441
-0.00163821
-0.00108193
0.000281553
0.000169565
-1.13063e-05
-0.000203193
-0.000299107
-0.000635578
-0.000725854
-0.000986007
-0.00109314
-0.001236
-0.00136576
0.00024122
0.000267704
0.000296224
0.00031759
0.000337835
0.000352971
0.00036407
0.000368782
0.000259975
0.000289046
0.000322986
0.000347535
0.000370787
0.000388426
0.000401143
0.000406703
0.000216538
0.00025153
0.000289379
0.000323947
0.000354727
0.000381222
0.00039909
0.000408064
0.000242223
0.000284488
0.000328202
0.00036888
0.000404966
0.000437105
0.000458416
0.00046963
0.000188151
0.000237257
0.000284998
0.000341501
0.000385016
0.000434753
0.000462071
0.000481722
0.000224589
0.000283127
0.000339451
0.000407238
0.000459769
0.00052228
0.000556313
0.000583222
0.00013704
0.000211608
0.000266802
0.000366038
0.000425033
0.000526238
0.000568889
0.000618462
0.000181733
0.00026904
0.000336377
0.000455375
0.00052977
0.000660057
0.000717469
0.000790884
3.88372e-05
0.000148605
0.000203413
0.000378095
0.000454718
0.000668628
0.000742389
0.000884735
7.24279e-05
0.000209586
0.000273915
0.00048329
0.000582473
0.000860687
0.000971273
0.00119811
-0.000147629
3.93243e-06
2.75759e-05
0.000318305
0.000393271
0.000842024
0.000987059
0.00144465
-0.000144958
3.86314e-05
4.6546e-05
0.000395085
0.000482505
0.00105522
0.00129411
0.0020472
-0.000476798
-0.000274972
-0.000378765
4.3816e-05
-3.546e-05
0.000821392
0.00103423
0.00250112
-0.000513978
-0.000305152
-0.000499761
-3.34086e-05
-0.000259758
0.000749915
0.000675318
0.0027951
-0.000972265
-0.00076416
-0.00120541
-0.000658414
-0.00155743
-0.000335229
-0.00246179
0.000877101
-0.000990753
-0.000831511
-0.00139007
-0.000981726
-0.00231662
-0.00113523
-0.00465224
-0.00101879
-0.00147066
-0.00131966
-0.00211814
-0.00162635
-0.00310172
-0.00236482
-0.00456503
-0.0018991
-0.00133341
-0.00132539
-0.00187045
-0.00198263
-0.00304424
-0.00390931
-0.00545956
-0.000899429
-0.00170268
-0.00168963
-0.00273685
-0.00221223
-0.00425768
-0.00552188
-0.00624249
0.00155654
-0.00151652
-0.00150561
-0.00195266
-0.00189353
-0.00198443
-0.000473919
0.00331762
0.0187379
0.000329587
0.000330107
0.000331406
0.000332909
0.000334675
0.000336141
0.000337341
0.000337813
0.000331661
0.000332234
0.000333603
0.000335206
0.000336978
0.00033844
0.000339619
0.00034008
0.000325067
0.000325894
0.000327924
0.000330156
0.000332871
0.00033506
0.000336871
0.000337574
0.000331064
0.000332184
0.000334569
0.000337319
0.000340182
0.000342513
0.000344355
0.000345075
0.000315602
0.000317648
0.000321997
0.000326487
0.000331788
0.000335893
0.00033924
0.000340536
0.000325748
0.000328722
0.00033387
0.000339544
0.000345189
0.000349724
0.000353229
0.000354614
0.000294676
0.000301253
0.000311832
0.000321709
0.000332429
0.000340458
0.000346741
0.000349229
0.000308101
0.000318227
0.00033036
0.000342364
0.000353984
0.000363059
0.000369893
0.000372671
)
;

boundaryField
{
    movingWall
    {
        type            zeroGradient;
    }
    fixedWalls
    {
        type            zeroGradient;
    }
    frontAndBack
    {
        type            empty;
    }
}


// ************************************************************************* //
