/*--------------------------------*- C++ -*----------------------------------*\
  =========                 |
  \\      /  F ield         | OpenFOAM: The Open Source CFD Toolbox
   \\    /   O peration     | Website:  https://openfoam.org
    \\  /    A nd           | Version:  8
     \\/     M anipulation  |
\*---------------------------------------------------------------------------*/
FoamFile
{
    version     2.0;
    format      ascii;
    class       volScalarField;
    location    "0.41";
    object      p;
}
// * * * * * * * * * * * * * * * * * * * * * * * * * * * * * * * * * * * * * //

dimensions      [0 2 -2 0 0 0 0];

internalField   nonuniform List<scalar> 
400
(
4.29771e-06
-0.0058224
-0.0129599
-0.0184119
-0.0204294
-0.0182357
-0.0117713
-0.0014813
0.0118395
0.027151
0.0432459
0.0588243
0.0725796
0.0833093
0.0900536
0.0922679
0.090027
0.0842454
0.0768825
0.0710691
0.00578311
-0.000215797
-0.00580148
-0.00954002
-0.0105964
-0.00843022
-0.00296758
0.00547629
0.0163048
0.0287134
0.0417514
0.0543874
0.0655877
0.0744112
0.0801215
0.0823171
0.0810788
0.0770566
0.0712761
0.06532
0.0133371
0.00503575
-0.000993141
-0.00442089
-0.00527069
-0.00326172
0.00160447
0.00902956
0.0185039
0.0293509
0.040767
0.0518712
0.06177
0.0696379
0.0748085
0.0768797
0.0758433
0.0720878
0.0658076
0.0575379
0.020141
0.00869777
0.00122782
-0.00266651
-0.00372007
-0.00188328
0.00273327
0.00978648
0.0187822
0.0290967
0.0399936
0.0506556
0.0602346
0.0679176
0.0730049
0.0750033
0.0737677
0.0694581
0.0616053
0.0501052
0.0245033
0.00977479
0.000591641
-0.00398497
-0.00530026
-0.00350537
0.00117669
0.00833647
0.0174638
0.0279508
0.0390867
0.0500716
0.0600506
0.0681668
0.0736282
0.0757996
0.074371
0.0692919
0.059528
0.0445399
0.0251791
0.00715169
-0.00380015
-0.00905523
-0.0105101
-0.00849795
-0.00335479
0.00443144
0.0143153
0.0256809
0.0378157
0.0499051
0.0610499
0.070305
0.0767366
0.0795189
0.0781411
0.0723358
0.0605418
0.0418929
0.0210948
-0.000260628
-0.0129325
-0.0187072
-0.0200277
-0.0174117
-0.0113162
-0.00231748
0.00899264
0.0219784
0.0359118
0.0499464
0.0631142
0.0743473
0.0825239
0.0865716
0.085723
0.0794495
0.065623
0.0430747
0.0111444
-0.0136163
-0.0278729
-0.033852
-0.0346012
-0.0308551
-0.0232104
-0.0123427
0.00110733
0.0164864
0.033055
0.049936
0.0660856
0.0802921
0.0912029
0.0974323
0.0978727
0.0916386
0.075899
0.0491195
-0.00596514
-0.0342643
-0.0498677
-0.0555461
-0.0550875
-0.0495119
-0.0395908
-0.0261106
-0.00975434
0.00882579
0.0289038
0.0495962
0.0698001
0.088157
0.10305
0.112704
0.115553
0.110194
0.092837
0.0614143
-0.0318546
-0.0638736
-0.0804143
-0.0850045
-0.0824173
-0.0740754
-0.0609779
-0.0440336
-0.0239485
-0.00133383
0.0231487
0.0486641
0.0740986
0.0979751
0.118399
0.133128
0.139991
0.136821
0.118443
0.0819366
-0.0686642
-0.1046
-0.121342
-0.123587
-0.117512
-0.105123
-0.087715
-0.0663222
-0.0416337
-0.0141523
0.0156089
0.0469565
0.078859
0.109797
0.137627
0.159588
0.17273
0.173781
0.155523
0.113573
-0.119399
-0.159353
-0.174912
-0.172754
-0.161145
-0.142925
-0.119755
-0.0927734
-0.0625738
-0.029444
0.00637672
0.0444771
0.0840586
0.123706
0.161139
0.193089
0.215671
0.22408
0.208053
0.160635
-0.188624
-0.232238
-0.243935
-0.233944
-0.213691
-0.187151
-0.156369
-0.122497
-0.085894
-0.0464682
-0.00401055
0.0415426
0.0898459
0.139833
0.189322
0.234693
0.271078
0.291667
0.281745
0.229778
-0.28397
-0.3293
-0.331828
-0.308276
-0.274705
-0.236436
-0.19576
-0.153606
-0.109836
-0.0637408
-0.0144336
0.0388676
0.0965583
0.15828
0.222378
0.285291
0.3414
0.381578
0.384917
0.331836
-0.419314
-0.459666
-0.442346
-0.395788
-0.342125
-0.287735
-0.234612
-0.182926
-0.131605
-0.0789802
-0.0232093
0.0374799
0.104558
0.178842
0.259865
0.344974
0.42862
0.499703
0.529678
0.485394
-0.620526
-0.636739
-0.578673
-0.494189
-0.411236
-0.335654
-0.267776
-0.205973
-0.147532
-0.089378
-0.028421
0.0383534
0.113812
0.200476
0.299979
0.412029
0.533033
0.651779
0.732775
0.722398
-0.935919
-0.87851
-0.741737
-0.597944
-0.474389
-0.372655
-0.288864
-0.217758
-0.153948
-0.0924588
-0.0287121
0.041701
0.123269
0.220723
0.338931
0.482159
0.652001
0.841346
1.01527
1.09751
-1.47642
-1.20663
-0.920499
-0.691384
-0.517301
-0.38754
-0.290057
-0.213333
-0.148119
-0.0872104
-0.0245724
0.0454628
0.128943
0.233076
0.367108
0.542683
0.771297
1.05932
1.40329
1.73014
-2.53964
-1.63054
-1.04443
-0.710955
-0.495747
-0.352089
-0.254527
-0.183579
-0.126165
-0.0735902
-0.0192639
0.0427922
0.119218
0.218788
0.354817
0.547989
0.826397
1.23659
1.91168
2.9242
-4.36666
-2.04463
-0.973538
-0.563177
-0.357843
-0.240143
-0.170116
-0.123779
-0.0874769
-0.0535055
-0.0166493
0.0276661
0.084613
0.161735
0.272417
0.442104
0.718224
1.22571
2.41104
4.84854
)
;

boundaryField
{
    movingWall
    {
        type            zeroGradient;
    }
    fixedWalls
    {
        type            zeroGradient;
    }
    frontAndBack
    {
        type            empty;
    }
}


// ************************************************************************* //
