/*--------------------------------*- C++ -*----------------------------------*\
  =========                 |
  \\      /  F ield         | OpenFOAM: The Open Source CFD Toolbox
   \\    /   O peration     | Website:  https://openfoam.org
    \\  /    A nd           | Version:  8
     \\/     M anipulation  |
\*---------------------------------------------------------------------------*/
FoamFile
{
    version     2.0;
    format      ascii;
    class       surfaceScalarField;
    location    "0.41";
    object      phi;
}
// * * * * * * * * * * * * * * * * * * * * * * * * * * * * * * * * * * * * * //

dimensions      [0 3 -1 0 0 0 0];

internalField   nonuniform List<scalar> 
760
(
1.4232e-08
-1.42681e-08
-2.22113e-08
3.64432e-08
-1.14272e-07
9.20612e-08
-2.455e-07
1.31227e-07
-3.96108e-07
1.50608e-07
-5.47379e-07
1.51271e-07
-6.83206e-07
1.35827e-07
-7.9068e-07
1.07474e-07
-8.60225e-07
6.95451e-08
-8.85659e-07
2.54338e-08
-8.64336e-07
-2.13224e-08
-7.97403e-07
-6.6933e-08
-6.90097e-07
-1.07306e-07
-5.51982e-07
-1.38115e-07
-3.9695e-07
-1.55032e-07
-2.42754e-07
-1.54197e-07
-1.09735e-07
-1.33018e-07
-1.84165e-08
-9.13185e-08
1.56898e-08
-3.41064e-08
1.56898e-08
-3.42166e-08
1.99485e-08
-1.8038e-07
1.82607e-07
-4.34004e-07
3.45685e-07
-7.6446e-07
4.61684e-07
-1.13225e-06
5.18399e-07
-1.4973e-06
5.16316e-07
-1.8234e-06
4.61932e-07
-2.08061e-06
3.6468e-07
-2.24635e-06
2.35289e-07
-2.30612e-06
8.51992e-08
-2.25397e-06
-7.34649e-08
-2.09312e-06
-2.27791e-07
-1.83632e-06
-3.64104e-07
-1.50609e-06
-4.68346e-07
-1.13411e-06
-5.27005e-07
-7.59543e-07
-5.28769e-07
-4.25412e-07
-4.67149e-07
-1.72697e-07
-3.44034e-07
-3.08029e-08
-1.76e-07
-1.51131e-08
-9.22313e-08
1.1218e-07
-3.57009e-07
4.47384e-07
-7.64584e-07
7.53259e-07
-1.26853e-06
9.65628e-07
-1.81476e-06
1.06463e-06
-2.34912e-06
1.05068e-06
-2.82252e-06
9.35334e-07
-3.19404e-06
7.36199e-07
-3.43271e-06
4.73961e-07
-3.51862e-06
1.71103e-07
-3.44367e-06
-1.48409e-07
-3.21235e-06
-4.59116e-07
-2.84218e-06
-7.34268e-07
-2.36387e-06
-9.46664e-07
-1.82036e-06
-1.07051e-06
-1.26452e-06
-1.08461e-06
-7.54541e-07
-9.77128e-07
-3.46979e-07
-7.51596e-07
-8.73383e-08
-4.35641e-07
-1.02451e-07
-1.45215e-07
2.57395e-07
-5.25476e-07
8.27645e-07
-1.08166e-06
1.30944e-06
-1.74756e-06
1.63152e-06
-2.45439e-06
1.77147e-06
-3.13645e-06
1.73274e-06
-3.73538e-06
1.53426e-06
-4.20301e-06
1.20383e-06
-4.50303e-06
7.73979e-07
-4.61204e-06
2.80113e-07
-4.52036e-06
-2.40083e-07
-4.23283e-06
-7.46648e-07
-3.76945e-06
-1.19765e-06
-3.16571e-06
-1.55041e-06
-2.47193e-06
-1.76429e-06
-1.75111e-06
-1.80544e-06
-1.07453e-06
-1.6537e-06
-5.15149e-07
-1.31098e-06
-1.39318e-07
-8.11472e-07
-2.41769e-07
-1.93614e-07
4.51009e-07
-6.85015e-07
1.31905e-06
-1.38565e-06
2.01008e-06
-2.20729e-06
2.45316e-06
-3.06553e-06
2.62971e-06
-3.88385e-06
2.55107e-06
-4.59659e-06
2.247e-06
-5.15068e-06
1.75791e-06
-5.50655e-06
1.12985e-06
-5.63862e-06
4.12189e-07
-5.53585e-06
-3.42855e-07
-5.20246e-06
-1.08004e-06
-4.65896e-06
-1.74115e-06
-3.94302e-06
-2.26635e-06
-3.10975e-06
-2.59755e-06
-2.23053e-06
-2.68466e-06
-1.38966e-06
-2.49457e-06
-6.78509e-07
-2.02213e-06
-1.87771e-07
-1.30221e-06
-4.2954e-07
-2.39945e-07
6.90954e-07
-8.40363e-07
1.91946e-06
-1.68331e-06
2.85303e-06
-2.6571e-06
3.42694e-06
-3.66089e-06
3.6335e-06
-4.60784e-06
3.49801e-06
-5.42644e-06
3.0656e-06
-6.06066e-06
2.39214e-06
-6.46945e-06
1.53864e-06
-6.62615e-06
5.68887e-07
-6.51842e-06
-4.5059e-07
-6.14889e-06
-1.44957e-06
-5.53662e-06
-2.35342e-06
-4.71899e-06
-3.08398e-06
-3.75351e-06
-3.56303e-06
-2.71851e-06
-3.71965e-06
-1.71156e-06
-3.50153e-06
-8.44673e-07
-2.88902e-06
-2.36183e-07
-1.9107e-06
-6.65722e-07
-2.86749e-07
9.77703e-07
-9.971e-07
2.62981e-06
-1.98211e-06
3.83804e-06
-3.10499e-06
4.54982e-06
-4.24801e-06
4.77652e-06
-5.31489e-06
4.56489e-06
-6.2302e-06
3.98091e-06
-6.93726e-06
3.09921e-06
-7.39558e-06
1.99696e-06
-7.57872e-06
7.52023e-07
-7.47325e-06
-5.56054e-07
-7.0792e-06
-1.84362e-06
-6.41196e-06
-3.02066e-06
-5.50565e-06
-3.99029e-06
-4.41711e-06
-4.65157e-06
-3.22941e-06
-4.90736e-06
-2.05298e-06
-4.67796e-06
-1.02255e-06
-3.91944e-06
-2.88285e-07
-2.64497e-06
-9.54007e-07
-3.36335e-07
1.31404e-06
-1.16038e-06
3.45386e-06
-2.28804e-06
4.9657e-06
-3.55503e-06
5.81681e-06
-4.82667e-06
6.04816e-06
-5.99912e-06
5.73734e-06
-6.9961e-06
4.97788e-06
-7.7636e-06
3.8667e-06
-8.26456e-06
2.49793e-06
-8.47469e-06
9.62153e-07
-8.38004e-06
-6.50707e-07
-7.97697e-06
-2.24669e-06
-7.27464e-06
-3.72299e-06
-6.30001e-06
-4.96492e-06
-5.10472e-06
-5.84686e-06
-3.77256e-06
-6.23951e-06
-2.42491e-06
-6.02561e-06
-1.22076e-06
-5.12359e-06
-3.47711e-07
-3.51801e-06
-1.30172e-06
-3.9096e-07
1.705e-06
-1.3349e-06
4.3978e-06
-2.60499e-06
6.23579e-06
-4.00597e-06
7.21779e-06
-5.38685e-06
7.42904e-06
-6.63979e-06
6.99029e-06
-7.69248e-06
6.03057e-06
-8.49852e-06
4.67274e-06
-9.02847e-06
3.02788e-06
-9.26298e-06
1.19666e-06
-9.1887e-06
-7.24981e-07
-8.79753e-06
-2.63786e-06
-8.08941e-06
-4.43111e-06
-7.07906e-06
-5.97527e-06
-5.80636e-06
-7.11956e-06
-4.34907e-06
-7.6968e-06
-2.83483e-06
-7.53986e-06
-1.4471e-06
-6.51132e-06
-4.18101e-07
-4.54701e-06
-1.71982e-06
-4.53454e-07
2.15845e-06
-1.52569e-06
5.47003e-06
-2.93489e-06
7.645e-06
-4.45013e-06
8.73303e-06
-5.90635e-06
8.88526e-06
-7.19784e-06
8.28178e-06
-8.26369e-06
7.09643e-06
-9.07211e-06
5.48115e-06
-9.60691e-06
3.56269e-06
-9.85764e-06
1.44739e-06
-9.81347e-06
-7.69152e-07
-9.46142e-06
-2.9899e-06
-8.78915e-06
-5.10338e-06
-7.79304e-06
-6.97138e-06
-6.49224e-06
-8.42036e-06
-4.94799e-06
-9.24105e-06
-3.28512e-06
-9.20272e-06
-1.70868e-06
-8.08776e-06
-5.03589e-07
-5.75211e-06
-2.22341e-06
-5.28334e-07
2.68679e-06
-1.73965e-06
6.68135e-06
-3.27797e-06
9.18331e-06
-4.87161e-06
1.03267e-05
-6.347e-06
1.03606e-05
-7.61081e-06
9.54559e-06
-8.62434e-06
8.10996e-06
-9.37967e-06
6.23648e-06
-9.88098e-06
4.064e-06
-1.01315e-05
1.69793e-06
-1.01258e-05
-7.74899e-07
-9.84633e-06
-3.26935e-06
-9.26598e-06
-5.68372e-06
-8.35633e-06
-7.88104e-06
-7.10469e-06
-9.672e-06
-5.5407e-06
-1.0805e-05
-3.7707e-06
-1.09727e-05
-2.01217e-06
-9.8463e-06
-6.09688e-07
-7.15458e-06
-2.8331e-06
-6.23662e-07
3.31045e-06
-1.98737e-06
8.04506e-06
-3.63189e-06
1.08278e-05
-5.2419e-06
1.19367e-05
-6.64753e-06
1.17663e-05
-7.78443e-06
1.06825e-05
-8.65097e-06
8.97649e-06
-9.27426e-06
6.85977e-06
-9.68649e-06
4.47623e-06
-9.90977e-06
1.92121e-06
-9.94719e-06
-7.37479e-07
-9.77855e-06
-3.43799e-06
-9.36085e-06
-6.10142e-06
-8.63559e-06
-8.6063e-06
-7.54636e-06
-1.07612e-05
-6.07157e-06
-1.22798e-05
-4.27426e-06
-1.277e-05
-2.36364e-06
-1.17569e-05
-7.44776e-07
-8.77345e-06
-3.57787e-06
-7.54071e-07
4.06452e-06
-2.28433e-06
9.57532e-06
-3.98698e-06
1.25305e-05
-5.50905e-06
1.34588e-05
-6.70955e-06
1.29668e-05
-7.5785e-06
1.15514e-05
-8.16999e-06
9.56798e-06
-8.55756e-06
7.24734e-06
-8.80766e-06
4.72633e-06
-8.96498e-06
2.07854e-06
-9.0443e-06
-6.58157e-07
-9.02569e-06
-3.4566e-06
-8.85255e-06
-6.27456e-06
-8.43478e-06
-9.02407e-06
-7.66288e-06
-1.15331e-05
-6.44198e-06
-1.35007e-05
-4.75624e-06
-1.44558e-05
-2.76674e-06
-1.37464e-05
-9.22432e-07
-1.06178e-05
-4.5003e-06
-9.45199e-07
5.00972e-06
-2.64847e-06
1.12786e-05
-4.31095e-06
1.4193e-05
-5.57324e-06
1.4721e-05
-6.3706e-06
1.37641e-05
-6.78318e-06
1.1964e-05
-6.94038e-06
9.72518e-06
-6.9696e-06
7.27656e-06
-6.97263e-06
4.72937e-06
-7.01635e-06
2.12226e-06
-7.12846e-06
-5.4605e-07
-7.29362e-06
-3.29144e-06
-7.44852e-06
-6.11966e-06
-7.47779e-06
-8.9948e-06
-7.21786e-06
-1.17931e-05
-6.4827e-06
-1.42359e-05
-5.1334e-06
-1.58051e-05
-3.21497e-06
-1.56649e-05
-1.16438e-06
-1.26683e-05
-5.66468e-06
-1.23731e-06
6.24702e-06
-3.08327e-06
1.31246e-05
-4.50766e-06
1.56173e-05
-5.23441e-06
1.54478e-05
-5.35512e-06
1.38849e-05
-5.08171e-06
1.16906e-05
-4.63075e-06
9.27422e-06
-4.17909e-06
6.82491e-06
-3.85418e-06
4.40445e-06
-3.73684e-06
2.00492e-06
-3.86495e-06
-4.1794e-07
-4.23247e-06
-2.92391e-06
-4.78193e-06
-5.5702e-06
-5.39094e-06
-8.38578e-06
-5.8584e-06
-1.13256e-05
-5.90651e-06
-1.41878e-05
-5.23278e-06
-1.64788e-05
-3.66625e-06
-1.72314e-05
-1.50007e-06
-1.48345e-05
-7.16476e-06
-1.6738e-06
7.92082e-06
-3.51334e-06
1.49641e-05
-4.31526e-06
1.64193e-05
-4.0888e-06
1.52213e-05
-3.19295e-06
1.2989e-05
-1.99861e-06
1.04963e-05
-7.94994e-07
8.07061e-06
2.19504e-07
5.81041e-06
9.18411e-07
3.70554e-06
1.22579e-06
1.69754e-06
1.10224e-06
-2.94394e-07
5.41227e-07
-2.3629e-06
-4.22782e-07
-4.60619e-06
-1.69244e-06
-7.11612e-06
-3.07231e-06
-9.94573e-06
-4.23075e-06
-1.30293e-05
-4.69561e-06
-1.60139e-05
-3.96716e-06
-1.79598e-05
-1.94492e-06
-1.68568e-05
-9.10968e-06
-2.23068e-06
1.01515e-05
-3.59028e-06
1.63237e-05
-3.07774e-06
1.59067e-05
-1.34382e-06
1.34874e-05
8.97119e-07
1.07481e-05
3.15508e-06
8.23831e-06
5.13825e-06
6.08744e-06
6.68884e-06
4.25981e-06
7.72599e-06
2.66839e-06
8.20671e-06
1.21682e-06
8.10405e-06
-1.91725e-07
7.39918e-06
-1.65803e-06
6.08699e-06
-3.294e-06
4.19929e-06
-5.22843e-06
1.85424e-06
-7.60067e-06
-6.61654e-07
-1.05135e-05
-2.79214e-06
-1.38835e-05
-3.66207e-06
-1.70899e-05
-2.41153e-06
-1.81073e-05
-1.15212e-05
-2.57381e-06
1.27253e-05
-2.18345e-06
1.59333e-05
7.18093e-07
1.30052e-05
4.46961e-06
9.7359e-06
8.13335e-06
7.08433e-06
1.13016e-05
5.07001e-06
1.38292e-05
3.5599e-06
1.56882e-05
2.4008e-06
1.68918e-05
1.46481e-06
1.7455e-05
6.53605e-07
1.73765e-05
-1.13205e-07
1.66306e-05
-9.12161e-07
1.51673e-05
-1.83067e-06
1.29236e-05
-2.98475e-06
9.86181e-06
-4.5389e-06
6.06201e-06
-6.71365e-06
1.91237e-06
-9.73381e-06
-1.55961e-06
-1.36179e-05
-2.45833e-06
-1.72086e-05
-1.39795e-05
-7.85013e-07
1.35103e-05
4.0808e-06
1.10675e-05
1.02976e-05
6.78843e-06
1.57937e-05
4.2398e-06
2.01581e-05
2.71991e-06
2.34581e-05
1.76995e-06
2.58609e-05
1.15714e-06
2.75216e-05
7.40057e-07
2.85541e-05
4.32295e-07
2.90265e-05
1.81221e-07
2.89623e-05
-4.8983e-08
2.83388e-05
-2.88702e-07
2.70819e-05
-5.73744e-07
2.50551e-05
-9.5796e-07
2.20518e-05
-1.53553e-06
1.78155e-05
-2.47742e-06
1.21724e-05
-4.09068e-06
5.47773e-06
-6.92324e-06
-1.29168e-07
-1.16017e-05
-1.41087e-05
1.35103e-05
2.45778e-05
3.13663e-05
3.56061e-05
3.8326e-05
4.00959e-05
4.12531e-05
4.19931e-05
4.24254e-05
4.26067e-05
4.25577e-05
4.2269e-05
4.16952e-05
4.07373e-05
3.92017e-05
3.67243e-05
3.26336e-05
2.57104e-05
1.41087e-05
)
;

boundaryField
{
    movingWall
    {
        type            calculated;
        value           uniform 0;
    }
    fixedWalls
    {
        type            calculated;
        value           uniform 0;
    }
    frontAndBack
    {
        type            empty;
        value           nonuniform List<scalar> 0();
    }
}


// ************************************************************************* //
