/*--------------------------------*- C++ -*----------------------------------*\
  =========                 |
  \\      /  F ield         | OpenFOAM: The Open Source CFD Toolbox
   \\    /   O peration     | Website:  https://openfoam.org
    \\  /    A nd           | Version:  8
     \\/     M anipulation  |
\*---------------------------------------------------------------------------*/
FoamFile
{
    version     2.0;
    format      ascii;
    class       volScalarField;
    location    "17";
    object      p;
}
// * * * * * * * * * * * * * * * * * * * * * * * * * * * * * * * * * * * * * //

dimensions      [0 2 -2 0 0 0 0];

internalField   nonuniform List<scalar> 
12504
(
0.256793
0.253721
0.24726
0.237398
0.224401
0.208617
0.190426
0.170258
0.148596
0.125948
0.102812
0.0796515
0.0568645
0.0347755
0.013631
-0.00639347
-0.0251797
-0.0426541
-0.058775
-0.073525
-0.0869028
-0.0989199
-0.109594
-0.118949
-0.127009
-0.133804
-0.139359
-0.143704
-0.146862
-0.148866
-0.149735
-0.149505
-0.148191
-0.145837
-0.142453
-0.1381
-0.132778
-0.126578
-0.119484
-0.111635
-0.102981
-0.0937411
-0.0837914
-0.0734893
-0.0625614
-0.0515994
-0.0400418
-0.0288948
-0.0170462
-0.00626091
0.259004
0.255865
0.24926
0.23918
0.225904
0.209795
0.191248
0.170715
0.148697
0.125723
0.102307
0.0789212
0.0559678
0.0337669
0.0125567
-0.00749764
-0.0262877
-0.0437479
-0.0598429
-0.0745599
-0.0879012
-0.0998806
-0.110517
-0.119837
-0.127864
-0.134628
-0.140154
-0.144474
-0.147609
-0.149593
-0.150443
-0.150196
-0.148865
-0.146495
-0.143095
-0.138725
-0.133383
-0.127163
-0.120043
-0.112168
-0.103479
-0.094205
-0.0842108
-0.0738656
-0.0628817
-0.0518711
-0.0402466
-0.0290517
-0.0171264
-0.00630488
0.263482
0.260203
0.253303
0.242779
0.228935
0.212161
0.192889
0.171608
0.148865
0.125227
0.101244
0.0774073
0.0541235
0.0317041
0.0103687
-0.00973908
-0.0285312
-0.0459585
-0.061998
-0.0766462
-0.0899122
-0.101815
-0.112376
-0.121624
-0.129583
-0.136285
-0.141755
-0.146023
-0.149113
-0.151055
-0.151868
-0.151586
-0.150222
-0.147821
-0.144388
-0.139984
-0.134605
-0.128343
-0.121174
-0.113244
-0.104489
-0.095142
-0.085062
-0.0746249
-0.063535
-0.0524164
-0.0406698
-0.0293592
-0.017304
-0.00637309
0.270324
0.266829
0.259473
0.248264
0.233537
0.215732
0.195332
0.172892
0.149026
0.124367
0.0995183
0.0750012
0.0512295
0.0284968
0.00699084
-0.0131807
-0.0319618
-0.0493282
-0.0652753
-0.0798134
-0.0929613
-0.104745
-0.11519
-0.124328
-0.132185
-0.138792
-0.144176
-0.148368
-0.151388
-0.153268
-0.154025
-0.153692
-0.15228
-0.149833
-0.146352
-0.141898
-0.136463
-0.130139
-0.122897
-0.114884
-0.106031
-0.0965736
-0.0863642
-0.0757875
-0.0645367
-0.0532527
-0.0413204
-0.0298305
-0.0175795
-0.00647437
0.27969
0.275891
0.267903
0.255738
0.239781
0.220533
0.198556
0.174493
0.149061
0.122989
0.0969556
0.0715279
0.0471227
0.0240023
0.00230318
-0.0179214
-0.0366607
-0.0539242
-0.0697312
-0.0841094
-0.0970902
-0.108708
-0.118993
-0.127981
-0.135698
-0.142178
-0.147447
-0.151534
-0.154462
-0.15626
-0.156943
-0.156543
-0.155068
-0.15256
-0.149017
-0.144498
-0.13899
-0.132584
-0.125246
-0.117123
-0.108139
-0.0985344
-0.0881504
-0.0773848
-0.0659152
-0.0544052
-0.0422182
-0.0304814
-0.0179605
-0.00661455
0.291796
0.287599
0.278776
0.26535
0.247763
0.226599
0.20252
0.176299
0.148791
0.120861
0.0933001
0.0667313
0.0415683
0.0180187
-0.00386165
-0.024098
-0.0427404
-0.0598399
-0.0754441
-0.0896017
-0.102358
-0.113758
-0.123836
-0.132629
-0.140168
-0.146485
-0.151607
-0.155564
-0.158375
-0.160071
-0.160662
-0.16018
-0.158628
-0.156047
-0.152428
-0.147831
-0.142234
-0.13573
-0.128272
-0.120014
-0.110865
-0.101075
-0.0904696
-0.0794629
-0.0677123
-0.0559105
-0.0433932
-0.0313346
-0.0184605
-0.00679951
0.306932
0.302224
0.292335
0.277293
0.257609
0.233967
0.207163
0.178141
0.147951
0.117652
0.0881857
0.0602519
0.0342433
0.0102733
-0.0117261
-0.031891
-0.0503488
-0.0671983
-0.0825188
-0.0963817
-0.108848
-0.119969
-0.129787
-0.138339
-0.145656
-0.151774
-0.156717
-0.160515
-0.163186
-0.164758
-0.165241
-0.164662
-0.163021
-0.160355
-0.15665
-0.151963
-0.146263
-0.139644
-0.132047
-0.123627
-0.11428
-0.104266
-0.0933903
-0.0820867
-0.0699877
-0.0578212
-0.0448885
-0.0324226
-0.0190992
-0.00703704
0.325465
0.320116
0.308894
0.291818
0.269479
0.242681
0.212387
0.179772
0.146157
0.112879
0.0810946
0.0515935
0.0247135
0.000408869
-0.021577
-0.0415321
-0.0596764
-0.0761596
-0.0910927
-0.104571
-0.116668
-0.127445
-0.136942
-0.145201
-0.152251
-0.158129
-0.162857
-0.166467
-0.168972
-0.170402
-0.170759
-0.170072
-0.168331
-0.165571
-0.161769
-0.156983
-0.15117
-0.144422
-0.136665
-0.12806
-0.118483
-0.108204
-0.0970059
-0.0853449
-0.0728229
-0.0602096
-0.0467642
-0.0337911
-0.0199051
-0.00733743
0.347853
0.341713
0.328847
0.309239
0.283576
0.252784
0.218039
0.180828
0.142851
0.105847
0.0712889
0.0400691
0.0124006
-0.0120335
-0.0337751
-0.0533121
-0.0709651
-0.0869291
-0.101345
-0.114329
-0.125967
-0.136322
-0.145433
-0.15334
-0.160072
-0.165665
-0.170141
-0.173529
-0.175842
-0.177107
-0.177322
-0.176516
-0.174666
-0.171804
-0.1679
-0.163009
-0.157074
-0.150185
-0.142252
-0.133438
-0.123598
-0.113013
-0.101438
-0.0893532
-0.076326
-0.0631714
-0.0491018
-0.0355014
-0.0209178
-0.00771338
0.374664
0.367555
0.352688
0.329955
0.300153
0.264314
0.223886
0.180775
0.137211
0.0955434
0.0577104
0.0247189
-0.00347252
-0.0276437
-0.0487695
-0.0675902
-0.0845148
-0.0997649
-0.113503
-0.125864
-0.136939
-0.146783
-0.15543
-0.162917
-0.169272
-0.174529
-0.178707
-0.181836
-0.183926
-0.185002
-0.18506
-0.184123
-0.182155
-0.179183
-0.175173
-0.170174
-0.164113
-0.157076
-0.148954
-0.13991
-0.129776
-0.118842
-0.106833
-0.0942525
-0.0806305
-0.0668263
-0.0520051
-0.0376322
-0.0221901
-0.00817903
0.406584
0.398306
0.38103
0.354465
0.319532
0.277287
0.229551
0.178793
0.128013
0.0804934
0.0388538
0.00421215
-0.0239488
-0.0471859
-0.0671272
-0.0848105
-0.100691
-0.114979
-0.127845
-0.139431
-0.149818
-0.159046
-0.167136
-0.17412
-0.180023
-0.184879
-0.188703
-0.191526
-0.193353
-0.194211
-0.194092
-0.193015
-0.190916
-0.187829
-0.183712
-0.178605
-0.172417
-0.165228
-0.156909
-0.147618
-0.137165
-0.12584
-0.113344
-0.100191
-0.0858813
-0.0713062
-0.0555937
-0.0402741
-0.023786
-0.00874734
0.444437
0.434773
0.414635
0.383406
0.342129
0.291688
0.234445
0.17357
0.113318
0.0584709
0.0125829
-0.0232252
-0.0503456
-0.0716018
-0.0895444
-0.105512
-0.119918
-0.132916
-0.144663
-0.155287
-0.164833
-0.173309
-0.180721
-0.187093
-0.192447
-0.196815
-0.20021
-0.202661
-0.204173
-0.204773
-0.204445
-0.20321
-0.200968
-0.197765
-0.193545
-0.188336
-0.182029
-0.174692
-0.166177
-0.156632
-0.145844
-0.134098
-0.12107
-0.107275
-0.0921933
-0.0767221
-0.0599779
-0.0435131
-0.0257732
-0.00942568
0.48919
0.477928
0.454441
0.417601
0.368501
0.307484
0.237692
0.163046
0.0899402
0.0258631
-0.0243196
-0.0599395
-0.0841587
-0.101849
-0.11671
-0.130213
-0.142569
-0.153831
-0.164132
-0.173545
-0.182044
-0.189585
-0.196153
-0.201766
-0.206441
-0.210206
-0.213072
-0.215069
-0.216201
-0.216502
-0.215966
-0.214489
-0.212086
-0.208775
-0.204464
-0.199168
-0.19276
-0.185296
-0.176606
-0.166819
-0.155707
-0.14353
-0.129958
-0.115475
-0.0995674
-0.0830928
-0.0652027
-0.0473913
-0.0281998
-0.0102101
0.541951
0.528932
0.501584
0.458131
0.399371
0.32461
0.238012
0.144146
0.0528947
-0.0232862
-0.077123
-0.109331
-0.127015
-0.138572
-0.148882
-0.158974
-0.168544
-0.177503
-0.185937
-0.193809
-0.200977
-0.207338
-0.212852
-0.217524
-0.221365
-0.224397
-0.22663
-0.22809
-0.228784
-0.228752
-0.227881
-0.226176
-0.22363
-0.220226
-0.21585
-0.210499
-0.204035
-0.196488
-0.187676
-0.177695
-0.16631
-0.15374
-0.139662
-0.124498
-0.107775
-0.0902438
-0.0711621
-0.0518427
-0.0310542
-0.0110792
0.603942
0.589142
0.557457
0.50643
0.435604
0.342842
0.233092
0.111716
-0.00495852
-0.0975192
-0.153658
-0.176187
-0.180547
-0.181619
-0.185098
-0.190435
-0.196306
-0.202356
-0.208498
-0.214483
-0.220025
-0.224963
-0.22923
-0.232816
-0.235717
-0.237944
-0.239497
-0.240397
-0.240642
-0.240196
-0.239012
-0.237137
-0.234491
-0.231032
-0.226642
-0.221298
-0.214851
-0.207299
-0.198454
-0.18837
-0.176816
-0.163947
-0.149474
-0.133711
-0.116273
-0.097727
-0.0775196
-0.0566303
-0.0342171
-0.0119882
0.676454
0.660084
0.623848
0.564488
0.478332
0.361538
0.218125
0.0547238
-0.0944778
-0.205961
-0.260437
-0.26338
-0.244278
-0.228545
-0.221718
-0.220318
-0.221497
-0.22429
-0.228054
-0.232131
-0.236058
-0.239615
-0.242709
-0.245297
-0.247359
-0.248888
-0.249875
-0.250299
-0.250122
-0.249388
-0.248061
-0.246107
-0.243433
-0.239992
-0.235667
-0.230412
-0.224071
-0.216612
-0.207845
-0.197776
-0.186188
-0.17316
-0.158454
-0.142248
-0.124283
-0.104868
-0.0837254
-0.0613488
-0.0374477
-0.0128686
0.760725
0.74336
0.703195
0.63532
0.529877
0.379842
0.184587
-0.0464042
-0.237877
-0.356557
-0.392837
-0.361477
-0.308913
-0.271184
-0.251257
-0.241832
-0.23832
-0.238504
-0.240665
-0.243558
-0.246511
-0.249237
-0.251611
-0.253578
-0.255113
-0.256204
-0.256845
-0.25701
-0.256619
-0.255766
-0.254382
-0.25242
-0.249789
-0.246435
-0.242239
-0.237136
-0.230969
-0.223675
-0.21507
-0.205113
-0.193609
-0.180558
-0.165781
-0.149313
-0.131037
-0.110978
-0.0891718
-0.0655336
-0.040443
-0.0136364
0.857574
0.840389
0.798713
0.723658
0.596172
0.399925
0.118792
-0.206388
-0.392601
-0.501991
-0.501973
-0.432705
-0.349587
-0.295773
-0.268311
-0.25418
-0.248028
-0.246685
-0.24775
-0.249778
-0.252075
-0.254312
-0.256315
-0.257996
-0.259304
-0.260213
-0.260705
-0.260759
-0.260419
-0.259589
-0.258202
-0.256279
-0.253727
-0.250484
-0.246431
-0.241487
-0.235499
-0.22838
-0.219955
-0.210144
-0.198773
-0.18578
-0.171033
-0.154455
-0.136042
-0.115579
-0.0933808
-0.0688029
-0.0429197
-0.014192
0.966678
0.951902
0.913746
0.836081
0.689657
0.434641
0.0992635
-0.295408
-0.586092
-0.669781
-0.629396
-0.490862
-0.374646
-0.309454
-0.269601
-0.254928
-0.249401
-0.24864
-0.250028
-0.252181
-0.254495
-0.256689
-0.258623
-0.260229
-0.261468
-0.26232
-0.262773
-0.262814
-0.262422
-0.26156
-0.260233
-0.258363
-0.255866
-0.252698
-0.248744
-0.243908
-0.238047
-0.231053
-0.222761
-0.213065
-0.201804
-0.18888
-0.174185
-0.157584
-0.139127
-0.118468
-0.0960766
-0.0709177
-0.0446319
-0.0143939
1.08567
1.07705
1.04964
0.980474
0.828044
0.543344
0.110293
-0.343025
-0.676811
-0.384805
-0.311058
-0.274442
-0.255477
-0.25069
-0.249992
-0.25133
-0.253393
-0.25561
-0.257718
-0.259583
-0.261135
-0.262336
-0.263161
-0.263595
-0.263624
-0.263227
-0.26238
-0.26105
-0.25918
-0.256724
-0.253595
-0.249679
-0.244883
-0.239071
-0.232127
-0.223889
-0.214237
-0.20302
-0.190122
-0.175445
-0.158841
-0.140359
-0.119641
-0.0971573
-0.0717554
-0.045329
-0.0140333
1.20957
1.21185
1.20314
1.1641
1.01615
0.704183
0.218572
-0.30507
-0.27201
-0.256248
-0.249639
-0.249448
-0.250929
-0.253048
-0.255301
-0.257446
-0.259349
-0.26094
-0.262176
-0.263034
-0.263495
-0.263546
-0.263167
-0.262333
-0.26101
-0.259146
-0.25668
-0.253531
-0.249609
-0.244804
-0.238967
-0.231993
-0.223727
-0.214039
-0.202786
-0.189848
-0.175126
-0.158487
-0.139947
-0.119225
-0.096661
-0.0712668
-0.0447622
-0.012866
1.33084
1.34712
1.36879
1.37487
1.25663
0.951715
-0.26872
-0.252015
-0.246276
-0.246907
-0.248818
-0.251251
-0.253753
-0.256101
-0.258174
-0.259903
-0.261254
-0.262204
-0.262739
-0.262845
-0.262504
-0.261692
-0.260375
-0.258503
-0.256014
-0.252829
-0.248852
-0.243966
-0.23807
-0.231015
-0.222653
-0.212864
-0.201507
-0.188461
-0.173627
-0.156893
-0.138239
-0.117475
-0.0947796
-0.0695013
-0.0429114
-0.0107421
1.43809
1.47048
1.52712
1.58834
1.52135
1.28681
-0.245014
-0.241294
-0.242952
-0.245589
-0.248566
-0.251484
-0.254157
-0.256485
-0.258418
-0.25993
-0.261007
-0.26164
-0.261819
-0.261528
-0.260744
-0.259433
-0.257547
-0.255024
-0.251787
-0.247741
-0.242773
-0.23676
-0.229583
-0.221104
-0.211178
-0.199676
-0.186479
-0.171484
-0.154595
-0.135762
-0.114862
-0.0919667
-0.0668633
-0.0400185
-0.00806812
1.51913
1.5656
1.65488
1.76978
1.77312
1.65678
-0.240509
-0.236028
-0.238873
-0.242337
-0.245909
-0.249268
-0.252275
-0.25486
-0.256992
-0.25866
-0.259858
-0.260583
-0.260829
-0.260583
-0.259824
-0.258517
-0.256616
-0.254059
-0.25077
-0.246656
-0.241607
-0.2355
-0.228204
-0.2196
-0.209542
-0.197898
-0.184549
-0.169388
-0.152324
-0.133285
-0.11218
-0.0891062
-0.0641408
-0.0367546
-0.00602946
1.56288
1.61762
1.72653
1.87285
1.95016
-0.227333
-0.232742
-0.236328
-0.240313
-0.244267
-0.247907
-0.251125
-0.25387
-0.256125
-0.257888
-0.259158
-0.259939
-0.260224
-0.260004
-0.259257
-0.25795
-0.256038
-0.25346
-0.250138
-0.245981
-0.24088
-0.234719
-0.227361
-0.218663
-0.20852
-0.196791
-0.183348
-0.168081
-0.150898
-0.131716
-0.110457
-0.0872865
-0.0623922
-0.0345724
-0.00459528
1.56288
1.61762
1.72653
1.87285
1.98664
-0.223691
-0.232745
-0.236332
-0.240317
-0.244271
-0.247912
-0.25113
-0.253874
-0.25613
-0.257891
-0.259161
-0.259939
-0.260222
-0.259999
-0.259249
-0.25794
-0.256025
-0.253443
-0.250119
-0.24596
-0.240859
-0.234697
-0.227342
-0.218648
-0.208507
-0.196782
-0.183343
-0.168081
-0.150903
-0.131724
-0.110468
-0.0873
-0.0624058
-0.0345835
-0.00459967
1.51913
1.5656
1.65487
1.76978
1.87627
-0.229315
-0.236037
-0.238882
-0.242348
-0.245921
-0.249281
-0.252288
-0.254873
-0.257005
-0.25867
-0.259864
-0.260585
-0.260824
-0.26057
-0.259802
-0.258485
-0.256575
-0.25401
-0.250714
-0.246594
-0.241543
-0.235438
-0.228147
-0.219548
-0.209502
-0.19787
-0.184535
-0.169389
-0.152337
-0.13331
-0.112215
-0.0891456
-0.0641799
-0.0367862
-0.00604204
1.43808
1.47047
1.52711
1.58834
1.64578
1.57913
-0.240804
-0.241309
-0.242967
-0.245606
-0.248585
-0.251505
-0.254179
-0.256507
-0.258438
-0.259946
-0.261018
-0.261643
-0.261811
-0.261507
-0.260709
-0.259382
-0.257481
-0.254945
-0.251696
-0.247642
-0.242672
-0.236661
-0.229492
-0.221027
-0.211116
-0.199633
-0.186458
-0.171486
-0.154617
-0.135802
-0.114915
-0.0920278
-0.066923
-0.0400666
-0.00808734
1.33083
1.34712
1.36878
1.37487
1.38078
1.22006
-0.248696
-0.246295
-0.246928
-0.248842
-0.251277
-0.253782
-0.256131
-0.258204
-0.259931
-0.261277
-0.262219
-0.262742
-0.262833
-0.262476
-0.261645
-0.260307
-0.258416
-0.255909
-0.25271
-0.248723
-0.243833
-0.237941
-0.230896
-0.222551
-0.212783
-0.201452
-0.188435
-0.17363
-0.156923
-0.138291
-0.117543
-0.0948569
-0.0695755
-0.0429704
-0.0107656
1.20956
1.21184
1.20313
1.16409
1.1252
0.81279
0.475189
-0.266288
-0.255276
-0.249661
-0.249473
-0.250958
-0.25308
-0.255337
-0.257483
-0.259386
-0.260974
-0.262204
-0.263051
-0.263499
-0.263531
-0.263132
-0.262275
-0.260928
-0.259041
-0.256555
-0.253389
-0.249456
-0.244647
-0.238815
-0.231853
-0.223607
-0.213945
-0.202724
-0.189819
-0.17513
-0.158522
-0.140008
-0.119304
-0.0967485
-0.0713494
-0.0448267
-0.0128918
1.08566
1.07704
1.04963
0.980462
0.828031
0.607497
0.120782
-0.274527
-0.3096
-0.275547
-0.255499
-0.250715
-0.25002
-0.251363
-0.253431
-0.255651
-0.257761
-0.259626
-0.261174
-0.262367
-0.26318
-0.263598
-0.263606
-0.263185
-0.262313
-0.260956
-0.25906
-0.256583
-0.253436
-0.249509
-0.24471
-0.238904
-0.231974
-0.223759
-0.214136
-0.202953
-0.190092
-0.175452
-0.158881
-0.140425
-0.119726
-0.0972496
-0.071841
-0.0453944
-0.0140596
0.966668
0.951891
0.913735
0.836069
0.689643
0.434626
0.0969287
-0.38312
-0.620213
-0.509432
-0.379648
-0.315764
-0.269623
-0.254951
-0.249427
-0.248672
-0.250064
-0.252223
-0.25454
-0.256735
-0.258669
-0.26027
-0.2615
-0.262338
-0.262773
-0.262792
-0.262375
-0.261487
-0.260131
-0.258236
-0.255715
-0.252529
-0.248565
-0.243727
-0.237873
-0.230895
-0.222628
-0.212962
-0.201737
-0.188851
-0.174194
-0.157626
-0.139196
-0.118553
-0.0961688
-0.0710017
-0.0446947
-0.014419
0.857563
0.840378
0.798701
0.723645
0.596158
0.39991
0.118774
-0.206408
-0.48873
-0.616336
-0.574429
-0.46354
-0.34961
-0.295795
-0.268334
-0.254204
-0.248056
-0.246718
-0.247788
-0.249821
-0.252122
-0.254359
-0.256361
-0.258036
-0.259334
-0.260229
-0.260701
-0.26073
-0.260366
-0.259507
-0.258094
-0.256145
-0.253571
-0.250312
-0.24625
-0.241306
-0.235326
-0.228225
-0.219825
-0.210046
-0.19871
-0.185755
-0.171043
-0.154498
-0.136109
-0.115662
-0.0934684
-0.0688817
-0.0429773
-0.0142148
0.760714
0.743348
0.703183
0.635307
0.529864
0.379827
0.184571
-0.0464223
-0.237897
-0.356579
-0.39286
-0.3615
-0.308936
-0.271206
-0.25128
-0.241857
-0.238348
-0.238537
-0.240702
-0.243599
-0.246556
-0.249281
-0.251653
-0.253613
-0.255138
-0.256214
-0.256837
-0.25698
-0.256559
-0.25568
-0.254271
-0.252286
-0.249635
-0.246267
-0.242064
-0.236962
-0.230805
-0.223529
-0.214948
-0.205022
-0.193552
-0.180537
-0.165793
-0.149354
-0.1311
-0.111054
-0.0892509
-0.0656038
-0.0404933
-0.0136559
0.676442
0.660072
0.623835
0.564475
0.478318
0.361524
0.218109
0.0547071
-0.0944958
-0.205979
-0.260457
-0.263401
-0.244299
-0.228567
-0.22174
-0.220342
-0.221524
-0.224321
-0.228089
-0.232168
-0.236097
-0.239654
-0.242744
-0.245325
-0.247376
-0.24889
-0.249859
-0.250261
-0.250058
-0.249301
-0.247951
-0.245977
-0.243286
-0.239834
-0.235503
-0.230251
-0.223921
-0.216479
-0.207736
-0.197695
-0.186139
-0.173142
-0.158465
-0.142284
-0.124338
-0.104934
-0.0837927
-0.0614079
-0.0374892
-0.0128844
0.603929
0.589129
0.557445
0.506417
0.435591
0.342828
0.233077
0.1117
-0.00497524
-0.0975368
-0.153677
-0.176206
-0.180567
-0.181639
-0.185119
-0.190458
-0.196331
-0.202383
-0.208528
-0.214514
-0.220057
-0.224993
-0.229256
-0.232835
-0.235725
-0.237938
-0.239475
-0.240355
-0.24058
-0.240112
-0.238909
-0.237016
-0.234356
-0.230889
-0.226496
-0.221156
-0.214718
-0.207182
-0.198359
-0.1883
-0.176773
-0.16393
-0.149482
-0.13374
-0.116318
-0.0977797
-0.077573
-0.0566768
-0.0342491
-0.0120003
0.541938
0.528919
0.501571
0.458118
0.399358
0.324596
0.237998
0.14413
0.0528788
-0.0233027
-0.0771401
-0.109349
-0.127033
-0.138591
-0.148901
-0.158995
-0.168565
-0.177526
-0.185961
-0.193834
-0.201002
-0.207361
-0.21287
-0.217535
-0.221367
-0.224387
-0.226605
-0.228049
-0.228725
-0.228676
-0.227789
-0.22607
-0.223512
-0.220101
-0.215724
-0.210376
-0.203921
-0.196388
-0.187593
-0.177633
-0.166271
-0.153722
-0.139665
-0.124518
-0.107806
-0.0902825
-0.0712012
-0.0518766
-0.0310773
-0.0110878
0.489177
0.477915
0.454428
0.417588
0.368488
0.30747
0.237677
0.163031
0.0899249
0.0258474
-0.0243357
-0.059956
-0.0841755
-0.101866
-0.116728
-0.130231
-0.142588
-0.15385
-0.164152
-0.173565
-0.182062
-0.189601
-0.196165
-0.201772
-0.206438
-0.210192
-0.213047
-0.21503
-0.216148
-0.216435
-0.215885
-0.214397
-0.211985
-0.208669
-0.204357
-0.199064
-0.192664
-0.18521
-0.176535
-0.166765
-0.155671
-0.143512
-0.129955
-0.115486
-0.0995875
-0.0831184
-0.0652289
-0.0474142
-0.028215
-0.0102158
0.444424
0.43476
0.414622
0.383392
0.342115
0.291674
0.23443
0.173556
0.113304
0.0584558
0.0125675
-0.0232408
-0.0503614
-0.0716178
-0.0895606
-0.105528
-0.119935
-0.132933
-0.14468
-0.155303
-0.164848
-0.173321
-0.180728
-0.187095
-0.192442
-0.1968
-0.200185
-0.202625
-0.204125
-0.204714
-0.204375
-0.203131
-0.200882
-0.197675
-0.193454
-0.188248
-0.181946
-0.174619
-0.166115
-0.156584
-0.14581
-0.134077
-0.121062
-0.107278
-0.0922032
-0.0767367
-0.0599935
-0.043527
-0.0257823
-0.00942918
0.406571
0.398293
0.381017
0.354452
0.319519
0.277273
0.229537
0.178778
0.127999
0.0804789
0.0388391
0.00419731
-0.0239637
-0.0472009
-0.0671421
-0.0848254
-0.100706
-0.114994
-0.127859
-0.139444
-0.149829
-0.159053
-0.167139
-0.174118
-0.180016
-0.184863
-0.188679
-0.191492
-0.19331
-0.194159
-0.194031
-0.192947
-0.190842
-0.187753
-0.183634
-0.17853
-0.172347
-0.165165
-0.156854
-0.147574
-0.137132
-0.125818
-0.113331
-0.100187
-0.0858835
-0.0713126
-0.0556014
-0.0402813
-0.0237907
-0.00874922
0.374651
0.367542
0.352675
0.329942
0.30014
0.264301
0.223872
0.180761
0.137197
0.0955292
0.0576962
0.0247047
-0.00348668
-0.0276577
-0.0487834
-0.0676038
-0.0845279
-0.0997774
-0.113514
-0.125874
-0.136947
-0.146788
-0.155432
-0.162914
-0.169263
-0.174513
-0.178684
-0.181805
-0.183887
-0.184956
-0.185007
-0.184064
-0.182091
-0.179117
-0.175106
-0.170109
-0.164051
-0.15702
-0.148905
-0.139869
-0.129744
-0.118819
-0.106818
-0.094244
-0.0806272
-0.0668267
-0.0520072
-0.0376348
-0.0221917
-0.0081798
0.34784
0.3417
0.328834
0.309226
0.283562
0.252771
0.218026
0.180815
0.142837
0.105833
0.0712751
0.0400554
0.0123871
-0.0120468
-0.033788
-0.0533246
-0.0709769
-0.08694
-0.101354
-0.114337
-0.125973
-0.136325
-0.145432
-0.153335
-0.160062
-0.165649
-0.170119
-0.1735
-0.175806
-0.177065
-0.177275
-0.176463
-0.174609
-0.171745
-0.167841
-0.162951
-0.157019
-0.150135
-0.142208
-0.133401
-0.123568
-0.112989
-0.101421
-0.0893417
-0.0763189
-0.0631678
-0.0491001
-0.035501
-0.0209175
-0.00771342
0.325451
0.320103
0.308881
0.291804
0.269465
0.242667
0.212373
0.179758
0.146144
0.112865
0.0810812
0.0515803
0.0247005
0.000396251
-0.0215891
-0.0415436
-0.0596871
-0.0761692
-0.091101
-0.104577
-0.116672
-0.127446
-0.13694
-0.145194
-0.152241
-0.158113
-0.162836
-0.16644
-0.168939
-0.170363
-0.170715
-0.170025
-0.16828
-0.165518
-0.161717
-0.156932
-0.151121
-0.144376
-0.136625
-0.128025
-0.118453
-0.10818
-0.0969875
-0.0853315
-0.0728134
-0.0602033
-0.0467601
-0.0337886
-0.0199035
-0.007337
0.306919
0.302211
0.292322
0.27728
0.257595
0.233953
0.20715
0.178128
0.147937
0.117638
0.0881727
0.0602391
0.0342308
0.0102612
-0.0117376
-0.0319017
-0.0503585
-0.0672069
-0.0825259
-0.0963868
-0.108851
-0.119969
-0.129783
-0.138332
-0.145645
-0.151758
-0.156696
-0.160489
-0.163154
-0.164723
-0.165201
-0.164619
-0.162975
-0.160308
-0.156602
-0.151916
-0.146219
-0.139602
-0.132009
-0.123594
-0.114252
-0.104243
-0.0933715
-0.0820722
-0.0699767
-0.0578133
-0.0448828
-0.0324189
-0.0190968
-0.00703633
0.291783
0.287585
0.278762
0.265337
0.24775
0.226585
0.202507
0.176286
0.148777
0.120849
0.0932873
0.0667188
0.0415562
0.0180071
-0.0038726
-0.0241081
-0.0427494
-0.0598476
-0.0754502
-0.0896059
-0.10236
-0.113757
-0.123832
-0.132621
-0.140156
-0.146469
-0.151587
-0.155539
-0.158346
-0.160037
-0.160625
-0.16014
-0.158585
-0.156003
-0.152384
-0.147788
-0.142193
-0.135691
-0.128237
-0.119982
-0.110837
-0.101052
-0.0904507
-0.0794478
-0.0677005
-0.0559016
-0.0433866
-0.0313301
-0.0184577
-0.00679863
0.279677
0.275878
0.26789
0.255725
0.239768
0.22052
0.198542
0.17448
0.149048
0.122976
0.096943
0.0715156
0.0471108
0.0239911
0.00229268
-0.017931
-0.0366692
-0.0539313
-0.0697366
-0.0841127
-0.0970912
-0.108706
-0.118989
-0.127972
-0.135686
-0.142162
-0.147426
-0.15151
-0.154434
-0.156228
-0.156907
-0.156505
-0.155028
-0.152519
-0.148976
-0.144458
-0.138951
-0.132548
-0.125213
-0.117093
-0.108112
-0.0985119
-0.0881316
-0.0773694
-0.0659029
-0.0543957
-0.0422111
-0.0304765
-0.0179574
-0.00661358
0.270311
0.266816
0.25946
0.248251
0.233524
0.215719
0.195319
0.172879
0.149013
0.124355
0.0995059
0.0749892
0.0512179
0.0284858
0.00698067
-0.0131899
-0.0319698
-0.0493347
-0.0652801
-0.0798161
-0.0929617
-0.104742
-0.115185
-0.124319
-0.132172
-0.138776
-0.144156
-0.148344
-0.15136
-0.153237
-0.153991
-0.153656
-0.152242
-0.149794
-0.146313
-0.14186
-0.136426
-0.130104
-0.122865
-0.114855
-0.106005
-0.0965515
-0.0863454
-0.075772
-0.0645242
-0.053243
-0.041313
-0.0298253
-0.0175763
-0.00647335
0.263468
0.26019
0.25329
0.242766
0.228922
0.212148
0.192876
0.171595
0.148852
0.125215
0.101232
0.0773954
0.0541121
0.0316933
0.0103588
-0.00974798
-0.0285389
-0.0459647
-0.0620024
-0.0766486
-0.0899122
-0.101812
-0.11237
-0.121615
-0.129571
-0.136269
-0.141735
-0.146
-0.149086
-0.151025
-0.151835
-0.151551
-0.150186
-0.147784
-0.144351
-0.139947
-0.13457
-0.128309
-0.121143
-0.113215
-0.104464
-0.0951202
-0.0850434
-0.0746094
-0.0635224
-0.0524065
-0.0406622
-0.0293539
-0.0173008
-0.00637205
0.258991
0.255852
0.249247
0.239167
0.225891
0.209782
0.191235
0.170702
0.148684
0.12571
0.102295
0.0789094
0.0559565
0.0337563
0.0125469
-0.00750636
-0.0262951
-0.0437539
-0.0598471
-0.074562
-0.0879009
-0.0998776
-0.110512
-0.119828
-0.127851
-0.134612
-0.140135
-0.144451
-0.147583
-0.149563
-0.150411
-0.150161
-0.148829
-0.146459
-0.143058
-0.138689
-0.133349
-0.12713
-0.120013
-0.11214
-0.103455
-0.0941835
-0.0841923
-0.0738501
-0.062869
-0.0518611
-0.0402389
-0.0290464
-0.0171231
-0.00630383
0.25678
0.253708
0.247247
0.237385
0.224388
0.208604
0.190413
0.170245
0.148584
0.125935
0.1028
0.0796398
0.0568533
0.034765
0.0136213
-0.00640209
-0.0251871
-0.0426599
-0.0587791
-0.073527
-0.0869024
-0.0989168
-0.109588
-0.11894
-0.126997
-0.133788
-0.139339
-0.14368
-0.146836
-0.148837
-0.149703
-0.149471
-0.148156
-0.145801
-0.142417
-0.138064
-0.132744
-0.126545
-0.119454
-0.111608
-0.102956
-0.0937197
-0.083773
-0.0734738
-0.0625487
-0.0515894
-0.0400341
-0.0288894
-0.017043
-0.00625986
0.256792
0.253724
0.247262
0.237398
0.224401
0.208617
0.190426
0.170258
0.148595
0.125947
0.102811
0.0796504
0.0568636
0.0347748
0.0136305
-0.00639384
-0.02518
-0.0426543
-0.0587752
-0.0735252
-0.0869029
-0.09892
-0.109594
-0.118949
-0.127009
-0.133804
-0.139359
-0.143704
-0.146862
-0.148866
-0.149735
-0.149505
-0.148191
-0.145837
-0.142453
-0.1381
-0.132778
-0.126578
-0.119483
-0.111636
-0.10298
-0.0937427
-0.0837896
-0.073492
-0.0625578
-0.0516044
-0.0400351
-0.028904
-0.0170326
-0.00627861
0.259003
0.255868
0.249262
0.23918
0.225904
0.209795
0.191248
0.170714
0.148696
0.125722
0.102306
0.0789201
0.0559668
0.0337662
0.0125562
-0.00749801
-0.026288
-0.0437481
-0.0598431
-0.0745601
-0.0879013
-0.0998807
-0.110518
-0.119837
-0.127864
-0.134628
-0.140154
-0.144474
-0.147609
-0.149593
-0.150443
-0.150196
-0.148865
-0.146495
-0.143095
-0.138725
-0.133383
-0.127163
-0.120043
-0.112169
-0.103479
-0.0942066
-0.084209
-0.0738683
-0.0628783
-0.0518759
-0.0402401
-0.0290608
-0.017113
-0.00632239
0.263481
0.260206
0.253306
0.24278
0.228935
0.212161
0.192888
0.171607
0.148864
0.125226
0.101243
0.0774061
0.0541225
0.0317034
0.0103682
-0.00973941
-0.0285315
-0.0459587
-0.0619982
-0.0766464
-0.0899124
-0.101815
-0.112376
-0.121624
-0.129583
-0.136285
-0.141755
-0.146023
-0.149113
-0.151055
-0.151868
-0.151586
-0.150222
-0.147822
-0.144388
-0.139985
-0.134605
-0.128344
-0.121174
-0.113245
-0.104488
-0.0951436
-0.0850603
-0.0746276
-0.0635316
-0.0524213
-0.0406633
-0.0293683
-0.0172906
-0.00639069
0.270323
0.266832
0.259476
0.248264
0.233537
0.215732
0.195332
0.172891
0.149024
0.124366
0.0995166
0.0749998
0.0512284
0.0284961
0.00699043
-0.013181
-0.031962
-0.0493284
-0.0652755
-0.0798135
-0.0929614
-0.104745
-0.11519
-0.124328
-0.132185
-0.138792
-0.144176
-0.148368
-0.151388
-0.153268
-0.154025
-0.153692
-0.15228
-0.149833
-0.146352
-0.141899
-0.136463
-0.13014
-0.122897
-0.114885
-0.10603
-0.0965753
-0.0863624
-0.0757903
-0.0645332
-0.0532578
-0.0413137
-0.0298398
-0.0175658
-0.0064922
0.279689
0.275895
0.267905
0.255739
0.239781
0.220533
0.198555
0.174492
0.149059
0.122987
0.0969535
0.0715262
0.0471215
0.0240017
0.00230288
-0.0179216
-0.0366609
-0.0539245
-0.0697314
-0.0841095
-0.0970903
-0.108708
-0.118994
-0.127981
-0.135698
-0.142178
-0.147447
-0.151535
-0.154462
-0.15626
-0.156943
-0.156543
-0.155068
-0.15256
-0.149017
-0.144499
-0.13899
-0.132585
-0.125246
-0.117124
-0.108138
-0.0985362
-0.0881486
-0.0773878
-0.0659116
-0.0544104
-0.0422113
-0.030491
-0.0179464
-0.00663272
0.291795
0.287603
0.278779
0.265351
0.247763
0.226599
0.20252
0.176297
0.148788
0.120858
0.0932973
0.0667292
0.0415671
0.0180182
-0.00386177
-0.0240981
-0.0427406
-0.0598401
-0.0754443
-0.0896019
-0.102359
-0.113758
-0.123836
-0.132629
-0.140168
-0.146486
-0.151607
-0.155564
-0.158376
-0.160071
-0.160662
-0.16018
-0.158628
-0.156047
-0.152428
-0.147832
-0.142234
-0.13573
-0.128272
-0.120015
-0.110864
-0.101077
-0.0904677
-0.079466
-0.0677086
-0.055916
-0.0433861
-0.0313445
-0.0184459
-0.00681813
0.306931
0.302229
0.292339
0.277294
0.257609
0.233967
0.207162
0.178138
0.147947
0.117647
0.0881819
0.0602494
0.0342422
0.0102732
-0.0117259
-0.031891
-0.050349
-0.0671986
-0.0825191
-0.0963819
-0.108848
-0.119969
-0.129787
-0.138339
-0.145657
-0.151774
-0.156717
-0.160515
-0.163186
-0.164759
-0.165241
-0.164663
-0.163021
-0.160356
-0.15665
-0.151963
-0.146263
-0.139645
-0.132046
-0.123628
-0.114279
-0.104268
-0.0933883
-0.0820901
-0.0699838
-0.057827
-0.044881
-0.032433
-0.0190839
-0.00705626
0.325463
0.320122
0.308899
0.291819
0.269479
0.242681
0.212385
0.179768
0.146152
0.112873
0.0810892
0.0515903
0.0247126
0.000409431
-0.0215761
-0.0415319
-0.0596767
-0.07616
-0.091093
-0.104571
-0.116668
-0.127445
-0.136942
-0.145201
-0.152252
-0.158129
-0.162857
-0.166467
-0.168972
-0.170402
-0.170759
-0.170072
-0.168331
-0.165571
-0.161769
-0.156984
-0.15117
-0.144422
-0.136665
-0.128061
-0.118482
-0.108206
-0.0970037
-0.0853484
-0.0728188
-0.0602157
-0.0467564
-0.033802
-0.019889
-0.00735739
0.347852
0.341719
0.328853
0.309241
0.283577
0.252784
0.218036
0.180822
0.142842
0.105838
0.0712819
0.0400658
0.0124006
-0.0120315
-0.0337734
-0.0533118
-0.0709655
-0.0869294
-0.101345
-0.114329
-0.125968
-0.136322
-0.145433
-0.15334
-0.160072
-0.165665
-0.170141
-0.173529
-0.175842
-0.177107
-0.177322
-0.176516
-0.174665
-0.171803
-0.167899
-0.163009
-0.157073
-0.150185
-0.142251
-0.133439
-0.123597
-0.113015
-0.101435
-0.0893568
-0.0763215
-0.0631779
-0.0490935
-0.0355129
-0.0209009
-0.00773422
0.374662
0.367562
0.352694
0.329957
0.300156
0.264314
0.223881
0.180765
0.137197
0.0955294
0.0577015
0.024717
-0.00346876
-0.0276384
-0.048767
-0.0675901
-0.0845153
-0.0997649
-0.113503
-0.125864
-0.136939
-0.146783
-0.15543
-0.162917
-0.169271
-0.174528
-0.178706
-0.181835
-0.183925
-0.185002
-0.18506
-0.184123
-0.182153
-0.179183
-0.175172
-0.170174
-0.164111
-0.157075
-0.148952
-0.139911
-0.129774
-0.118844
-0.10683
-0.094256
-0.0806255
-0.0668329
-0.0519963
-0.0376441
-0.0221721
-0.00820077
0.406581
0.398314
0.381038
0.354468
0.319536
0.277287
0.229545
0.178778
0.12799
0.0804706
0.0388409
0.00421316
-0.0239357
-0.0471741
-0.0671224
-0.0848103
-0.100691
-0.114979
-0.127844
-0.13943
-0.149817
-0.159044
-0.167134
-0.174118
-0.180022
-0.184877
-0.188702
-0.191524
-0.193352
-0.19421
-0.194091
-0.193014
-0.190913
-0.187827
-0.183709
-0.178604
-0.172415
-0.165227
-0.156906
-0.147618
-0.137162
-0.125841
-0.11334
-0.100194
-0.0858756
-0.0713127
-0.0555844
-0.0402863
-0.0237674