/*--------------------------------*- C++ -*----------------------------------*\
  =========                 |
  \\      /  F ield         | OpenFOAM: The Open Source CFD Toolbox
   \\    /   O peration     | Website:  https://openfoam.org
    \\  /    A nd           | Version:  8
     \\/     M anipulation  |
\*---------------------------------------------------------------------------*/
FoamFile
{
    version     2.0;
    format      ascii;
    class       surfaceScalarField;
    location    "17";
    object      phi;
}
// * * * * * * * * * * * * * * * * * * * * * * * * * * * * * * * * * * * * * //

dimensions      [0 3 -1 0 0 0 0];

internalField   nonuniform List<scalar> 
34404
(
0.00534259
-9.26424e-06
5.39898e-09
0.0053703
-2.76923e-05
-8.66374e-09
0.00541568
-4.53742e-05
-1.22798e-08
0.00547737
-6.16861e-05
-6.3172e-09
0.0055535
-7.61265e-05
-2.86753e-09
0.00564179
-8.82831e-05
-2.39113e-09
0.00573965
-9.78585e-05
-1.25526e-09
0.00584434
-0.000104695
3.47785e-10
0.00595313
-0.000108792
2.65714e-09
0.00606344
-0.000110306
4.49452e-09
0.00617296
-0.000109528
5.76918e-09
0.0062798
-0.000106846
6.37206e-09
0.00638249
-0.000102695
6.26916e-09
0.00647998
-9.74944e-05
5.62745e-09
0.00657158
-9.16127e-05
4.67939e-09
0.00665692
-8.53398e-05
3.72475e-09
0.00673581
-7.88898e-05
2.87516e-09
0.00680821
-7.24107e-05
2.24315e-09
0.00687422
-6.60032e-05
1.71361e-09
0.00693394
-5.9729e-05
1.36339e-09
0.00698757
-5.36259e-05
1.01522e-09
0.00703528
-4.77084e-05
8.5865e-10
0.00707726
-4.19825e-05
6.25103e-10
0.0071137
-3.64401e-05
6.32953e-10
0.00714477
-3.10751e-05
4.17767e-10
0.00717064
-2.58692e-05
5.56528e-10
0.00719145
-2.08138e-05
2.79832e-10
0.00720734
-1.58852e-05
5.85133e-10
0.00721842
-1.1078e-05
1.55272e-10
0.00722478
-6.36552e-06
7.17304e-10
0.00722653
-1.74984e-06
-5.16204e-12
0.00722374
2.79519e-06
9.9859e-10
0.00721648
7.25453e-06
-1.85996e-10
0.00720482
1.16631e-05
1.58266e-09
0.00718884
1.59814e-05
-5.6131e-10
0.00716858
2.02533e-05
2.44295e-09
0.00714417
2.44075e-05
-1.3911e-09
0.00711566
2.85076e-05
3.85536e-09
0.00708323
3.24357e-05
-3.00296e-09
0.00704693
3.62919e-05
6.23808e-09
0.00700705
3.989e-05
-6.06574e-09
0.00696364
4.33975e-05
1.03852e-08
0.00691713
4.65252e-05
-1.17321e-08
0.00686755
4.95597e-05
1.77526e-08
0.00681552
5.20544e-05
-2.19333e-08
0.00676099
5.44955e-05
3.05691e-08
0.00670483
5.61969e-05
-3.88512e-08
0.00664682
5.79597e-05
4.95197e-08
0.00658813
5.87503e-05
-5.7918e-08
5.97797e-05
4.48726e-08
0.00534282
-1.87493e-05
5.11337e-09
0.00537113
-5.59927e-05
-9.04163e-09
0.00541751
-9.17469e-05
-1.23819e-08
0.00548057
-0.000124736
-6.45963e-09
0.00555836
-0.000153914
-3.18723e-09
0.00564852
-0.000178439
-2.57723e-09
0.00574837
-0.000197709
-1.28604e-09
0.00585507
-0.000211399
4.37443e-10
0.00596579
-0.000219511
2.90919e-09
0.00607785
-0.000222368
4.84806e-09
0.00618889
-0.000220579
6.16167e-09
0.00629699
-0.000214953
6.7206e-09
0.00640068
-0.00020639
6.50938e-09
0.00649894
-0.000195758
5.74719e-09
0.00659112
-0.000183803
4.71662e-09
0.00667689
-0.000171108
3.73798e-09
0.00675609
-0.000158097
2.91058e-09
0.00682874
-0.000145059
2.31851e-09
0.00689492
-0.000132187
1.82208e-09
0.00695479
-0.000119601
1.49206e-09
0.00700853
-0.000107369
1.15997e-09
0.00705634
-9.55176e-05
1.01777e-09
0.00709841
-8.40553e-05
7.95911e-10
0.00713494
-7.29642e-05
8.08821e-10
0.00716609
-6.22298e-05
5.94212e-10
0.00719204
-5.18157e-05
7.2635e-10
0.00721292
-4.1702e-05
4.45504e-10
0.00722888
-3.18432e-05
7.46172e-10
0.00724003
-2.22249e-05
3.13303e-10
0.00724646
-1.27972e-05
8.55431e-10
0.00724827
-3.55724e-06
1.14709e-10
0.00724552
5.53796e-06
1.10055e-09
0.00723831
1.44704e-05
-4.86818e-11
0.00722667
2.32964e-05
1.69253e-09
0.0072107
3.19554e-05
-4.12488e-10
0.00719044
4.05109e-05
2.54835e-09
0.00716599
4.8853e-05
-1.23033e-09
0.00713743
5.70656e-05
3.92323e-09
0.0071049
6.49698e-05
-2.81847e-09
0.0070685
7.26901e-05
6.25714e-09
0.00702844
7.99536e-05
-5.82469e-09
0.00698486
8.69614e-05
1.03189e-08
0.00693809
9.33113e-05
-1.13831e-08
0.00688829
9.93398e-05
1.75204e-08
0.0068359
0.000104464
-2.13968e-08
0.00678112
0.000109245
3.00719e-08
0.00672452
0.000112843
-3.80097e-08
0.00666626
0.00011617
4.86322e-08
0.00660704
0.000118023
-5.69015e-08
0.000119835
4.42935e-08
0.00534324
-2.86561e-05
5.18535e-09
0.00537283
-8.55705e-05
-9.61203e-09
0.00542129
-0.000140201
-1.29834e-08
0.00548715
-0.000190587
-6.8497e-09
0.00556834
-0.000235101
-3.46331e-09
0.00566234
-0.000272433
-2.70873e-09
0.00576627
-0.000301641
-1.12891e-09
0.00587709
-0.000322217
9.44054e-10
0.00599173
-0.000334163
3.732e-09
0.00610736
-0.000338003
5.94009e-09
0.00622149
-0.000334714
7.34938e-09
0.00633213
-0.000325599
7.78775e-09
0.00643782
-0.000312091
7.28227e-09
0.00653761
-0.000295556
6.1742e-09
0.00663095
-0.000277145
4.86585e-09
0.00671757
-0.000257736
3.74306e-09
0.00679742
-0.000237946
2.88346e-09
0.00687055
-0.000218192
2.31217e-09
0.00693711
-0.000198747
1.83639e-09
0.00699728
-0.000179774
1.52358e-09
0.00705128
-0.000161365
1.20746e-09
0.0070993
-0.000143548
1.09239e-09
0.00714158
-0.000126328
8.86191e-10
0.00717829
-0.000109675
9.12838e-10
0.00720962
-9.35626e-05
6.93341e-10
0.00723574
-7.79335e-05
8.3591e-10
0.00725679
-6.2756e-05
5.44554e-10
0.00727291
-4.79606e-05
8.52749e-10
0.0072842
-3.35233e-05
3.987e-10
0.00729078
-1.93696e-05
9.4929e-10
0.00729271
-5.49128e-06
1.68392e-10
0.00729007
8.1725e-06
1.17873e-09
0.00728294
2.16009e-05
-1.60724e-12
0.00727136
3.48741e-05
1.81739e-09
0.00725541
4.79086e-05
-3.34192e-10
0.00723513
6.07904e-05
2.68948e-09
0.00721061
7.33681e-05
-1.16171e-09
0.00718193
8.57498e-05
4.08768e-09
0.00714921
9.76906e-05
-2.75938e-09
0.00711255
0.000109345
6.45812e-09
0.00707216
0.000120342
-5.78246e-09
0.00702819
0.00013093
1.05581e-08
0.00698094
0.000140572
-1.13807e-08
0.00693058
0.000149677
1.78045e-08
0.00687758
0.000157488
-2.14413e-08
0.0068221
0.00016469
3.03922e-08
0.00676478
0.000170206
-3.81118e-08
0.00670572
0.000175183
4.89025e-08
0.00664575
0.000178048
-5.69631e-08
0.000180726
4.44057e-08
0.0053439
-3.92222e-05
5.43491e-09
0.00537546
-0.000117119
-1.04512e-08
0.00542714
-0.000191874
-1.40709e-08
0.00549734
-0.000260779
-7.53333e-09
0.00558381
-0.000321566
-3.85552e-09
0.00568378
-0.000372396
-2.88303e-09
0.00579407
-0.000411928
-9.45182e-10
0.00591128
-0.000439436
1.76106e-09
0.00603204
-0.00045493
5.13441e-09
0.00615321
-0.000459172
7.81055e-09
0.00627208
-0.000453602
9.37699e-09
0.00638661
-0.000440132
9.58391e-09
0.00649535
-0.000420845
8.54419e-09
0.00659747
-0.000397683
6.82533e-09
0.00669256
-0.000372239
5.04336e-09
0.0067805
-0.000345677
3.69227e-09
0.00686134
-0.000318791
2.79357e-09
0.00693524
-0.000292094
2.26099e-09
0.00700241
-0.000265918
1.81495e-09
0.00706309
-0.000240451
1.52988e-09
0.00711751
-0.000215793
1.23945e-09
0.00716593
-0.000191963
1.16528e-09
0.00720855
-0.000168955
9.75247e-10
0.00724559
-0.000146717
1.02256e-09
0.00727724
-0.00012521
7.94806e-10
0.00730366
-0.000104352
9.53798e-10
0.007325
-8.40982e-05
6.40524e-10
0.00734139
-6.43518e-05
9.6884e-10
0.00735295
-4.50791e-05
4.77842e-10
0.00735975
-2.6178e-05
1.05116e-09
0.0073619
-7.63469e-06
2.09381e-10
0.00735944
1.06315e-05
1.2795e-09
0.00735244
2.8596e-05
5.39563e-11
0.00734095
4.63672e-05
1.98062e-09
0.00732502
6.38357e-05
-2.81327e-10
0.00730469
8.11139e-05
2.88812e-09
0.00728006
9.80054e-05
-1.13424e-09
0.00725115
0.000114648
4.35436e-09
0.00721812
0.000130722
-2.76634e-09
0.00718104
0.00014642
6.81601e-09
0.00714013
0.000161264
-5.86546e-09
0.00709549
0.000175553
1.10428e-08
0.00704747
0.000188602
-1.1591e-08
0.00699622
0.000200909
1.84728e-08
0.00694223
0.000211507
-2.18475e-08
0.00688565
0.000221241
3.12649e-08
0.00682715
0.000228742
-3.87781e-08
0.00676684
0.000235444
4.98737e-08
0.0067056
0.00023934
-5.77682e-08
0.000242892
4.47488e-08
0.00534481
-5.07062e-05
5.7612e-09
0.00537911
-0.000151406
-1.1659e-08
0.00543528
-0.000248028
-1.57171e-08
0.00551154
-0.000337031
-8.64888e-09
0.0056054
-0.000415417
-4.57737e-09
0.00571374
-0.00048073
-3.26761e-09
0.00583295
-0.000531143
-8.06694e-10
0.00595917
-0.000565654
2.94196e-09
0.0060885
-0.000584273
7.29635e-09
0.00621739
-0.000588067
1.07525e-08
0.00634285
-0.000579076
1.25542e-08
0.00646271
-0.000560004
1.23257e-08
0.00657561
-0.000533757
1.03798e-08
0.00668089
-0.000502971
7.69157e-09
0.00677836
-0.000469718
5.22332e-09
0.00686811
-0.000435431
3.6073e-09
0.00695036
-0.000401036
2.72244e-09
0.00702537
-0.000367105
2.27529e-09
0.00709344
-0.000333998
1.87092e-09
0.00715489
-0.000301902
1.61906e-09
0.00721001
-0.000270905
1.36212e-09
0.00725904
-0.000240999
1.34362e-09
0.00730224
-0.000212156
1.17208e-09
0.00733982
-0.000184298
1.24009e-09
0.00737197
-0.000157366
9.90442e-10
0.00739887
-0.000131252
1.16478e-09
0.00742067
-0.000105894
8.1587e-10
0.00743748
-8.11663e-05
1.16643e-09
0.00744942
-5.70245e-05
6.13798e-10
0.00745658
-3.33358e-05
1.21614e-09
0.00745903
-1.00799e-05
2.83535e-10
0.00745681
1.28457e-05
1.43151e-09
0.00744999
3.54128e-05
1.40963e-10
0.0074386
5.77618e-05
2.21136e-09
0.00742268
7.97549e-05
-2.05378e-10
0.00740225
0.000101535
3.16822e-09
0.0073774
0.000122857
-1.09418e-09
0.00734815
0.000143893
4.72976e-09
0.00731463
0.000164244
-2.7786e-09
0.00727691
0.000184142
7.31419e-09
0.00723518
0.000202993
-5.98721e-09
0.00718957
0.000221157
1.1721e-08
0.0071404
0.000237779
-1.18852e-08
0.00708783
0.000253459
1.94039e-08
0.00703236
0.000266996
-2.24115e-08
0.00697417
0.000279407
3.24876e-08
0.00691394
0.000289003
-3.96956e-08
0.00685182
0.000297514
5.12357e-08
0.00678873
0.000302493
-5.89443e-08
0.000306901
4.52088e-08
0.00534602
-6.34004e-05
6.18591e-09
0.00538393
-0.000189294
-1.31715e-08
0.00544601
-0.000310096
-1.79164e-08
0.0055303
-0.000421307
-1.02005e-08
0.00563397
-0.000519084
-5.66829e-09
0.00575348
-0.000600235
-3.91319e-09
0.00588464
-0.000662304
-6.5231e-10
0.0060229
-0.000703917
4.67564e-09
0.00616369
-0.000725072
1.06099e-08
0.00630283
-0.00072722
1.53563e-08
0.00643694
-0.000713207
1.74883e-08
0.00656373
-0.00068681
1.64189e-08
0.00668197
-0.000652015
1.28881e-08
0.0067913
-0.000612307
8.62426e-09
0.00689185
-0.000570272
5.15694e-09
0.00698398
-0.000527563
3.35378e-09
0.00706811
-0.000485168
2.63144e-09
0.00714466
-0.000443661
2.34434e-09
0.00721405
-0.000403388
1.98877e-09
0.00727665
-0.000364503
1.76658e-09
0.00733279
-0.000327053
1.54596e-09
0.00738278
-0.000290984
1.5867e-09
0.00742686
-0.000256237
1.42144e-09
0.00746526
-0.000222698
1.50079e-09
0.00749818
-0.000190287
1.21267e-09
0.00752578
-0.000158861
1.39688e-09
0.00754823
-0.000128343
9.91878e-10
0.00756564
-9.85739e-05
1.36391e-09
0.00757811
-6.94981e-05
7.27228e-10
0.00758572
-4.0949e-05
1.36939e-09
0.00758854
-1.28984e-05
3.15924e-10
0.0075866
1.47802e-05
1.561e-09
0.00757996
4.20556e-05
1.72487e-10
0.00756862
6.91026e-05
2.41351e-09
0.00755262
9.57542e-05
-2.12457e-10
0.00753196
0.000122185
3.43486e-09
0.00750672
0.000148104
-1.13393e-09
0.00747689
0.000173715
5.11634e-09
0.0074426
0.000198539
-2.89409e-09
0.00740389
0.000222848
7.85949e-09
0.00736096
0.000245925
-6.23344e-09
0.00731392
0.000268189
1.2508e-08
0.0072631
0.000288611
-1.23375e-08
0.00720865
0.000307884
2.05317e-08
0.0071511
0.00032457
-2.31853e-08
0.00709064
0.000339838
3.40229e-08
0.00702799
0.00035169
-4.09056e-08
0.00696335
0.000362102
5.29803e-08
0.00689766
0.000368246
-6.0497e-08
0.000373463
4.5827e-08
0.00534757
-7.76424e-05
6.74139e-09
0.00539006
-0.000231771
-1.48914e-08
0.00545972
-0.000379738
-2.07588e-08
0.00555433
-0.000515897
-1.22493e-08
0.00567069
-0.000635439
-7.275e-09
0.00580472
-0.000734263
-4.94929e-09
0.00595147
-0.000809049
-4.56765e-10
0.00610546
-0.000857921
7.16698e-09
0.00626118
-0.000880804
1.5568e-08
0.00641358
-0.000879638
2.24173e-08
0.00655873
-0.00085839
2.50425e-08
0.00669424
-0.000822336
2.25048e-08
0.00681912
-0.000776913
1.62526e-08
0.00693346
-0.000726659
9.18055e-09
0.00703786
-0.00067468
4.10423e-09
0.00713305
-0.000622747
2.49823e-09
0.00721967
-0.000571794
2.42414e-09
0.00729833
-0.000522324
2.38076e-09
0.00736956
-0.000474618
2.0721e-09
0.00743381
-0.000428752
1.87687e-09
0.00749145
-0.0003847
1.6958e-09
0.00754281
-0.000342343
1.79138e-09
0.00758814
-0.000301576
1.60328e-09
0.00762769
-0.000262248
1.66691e-09
0.00766165
-0.000224249
1.31018e-09
0.00769019
-0.000187404
1.48786e-09
0.00771347
-0.000151615
1.00241e-09
0.00773158
-0.000116692
1.39405e-09
0.00774465
-8.25637e-05
6.57885e-10
0.00775273
-4.90288e-05
1.36915e-09
0.00775588
-1.60496e-05
1.82819e-10
0.00775413
1.65277e-05
1.554e-09
0.00774751
4.86717e-05
-4.9881e-12
0.00773602
8.05872e-05
2.40447e-09
0.0077197
0.000112084
-5.08282e-10
0.00769851
0.000143366
3.48731e-09
0.00767252
0.000174102
-1.45969e-09
0.00764171
0.00020452
5.31201e-09
0.00760618
0.000234071
-3.31796e-09
0.00756597
0.00026305
8.26245e-09
0.00752126
0.000290634
-6.79338e-09
0.00747217
0.000317272
1.32405e-08
0.007419
0.000341786
-1.31182e-08
0.00736195
0.000364913
2.17262e-08
0.00730153
0.000385022
-2.4318e-08
0.00723797
0.000403353
3.58071e-08
0.00717203
0.000417679
-4.25151e-08
0.00710399
0.000430086
5.51175e-08
0.00703478
0.000437512
-6.25293e-08
0.000443442
4.66353e-08
0.00534951
-9.38271e-05
7.45992e-09
0.00539772
-0.000279965
-1.66359e-08
0.00547691
-0.000458896
-2.44454e-08
0.00558453
-0.000623503
-1.48706e-08
0.00571704
-0.000767943
-9.71301e-09
0.0058697
-0.000886915
-6.5316e-09
0.00603654
-0.000975889
6.7298e-12
0.00621089
-0.00103228
1.09464e-08
0.00638585
-0.00105579
2.31257e-08
0.00655517
-0.00104899
3.3073e-08
0.00671419
-0.00101745
3.613e-08
0.00686043
-0.000968604
3.10841e-08
0.00699337
-0.000909873
2.04084e-08
0.0071138
-0.000847097
8.42606e-09
0.00722296
-0.000783841
2.90557e-09
0.007322
-0.000721788
1.27747e-09
0.00741186
-0.000661658
1.83178e-09
0.00749332
-0.000603788
2.07931e-09
0.00756703
-0.000548329
1.76835e-09
0.00763351
-0.00049523
1.60585e-09
0.00769316
-0.000444352
1.48721e-09
0.00774631
-0.000395494
1.63242e-09
0.00779323
-0.0003485
1.3653e-09
0.00783416
-0.000303177
1.36368e-09
0.00786929
-0.000259386
8.99681e-10
0.00789881
-0.00021692
1.0504e-09
0.00792285
-0.000175659
4.60125e-10
0.00794154
-0.000135382
8.68421e-10
0.00795498
-9.60041e-05
3.17412e-11
0.00796324
-5.7287e-05
8.86676e-10
0.00796637
-1.91806e-05
-3.69578e-10
0.00796439
1.85027e-05
1.18281e-09
0.00795733
5.57359e-05
-7.00399e-10
0.00794518
9.27362e-05
1.78481e-09
0.00792795
0.000129311
-1.46972e-09
0.00790563
0.000165682
2.93032e-09
0.00787824
0.0002015
-2.47643e-09
0.00784576
0.000236991
4.90705e-09
0.00780827
0.000271565
-4.44244e-09
0.00776581
0.000305504
8.13259e-09
0.00771853
0.000337923
-8.0304e-09
0.00766655
0.000369235
1.35611e-08
0.00761017
0.000398185
-1.45364e-08
0.00754961
0.000425449
2.26994e-08
0.00748534
0.000449314
-2.60402e-08
0.00741773
0.000470927
3.76186e-08
0.00734745
0.000488003
-4.46711e-08
0.007275
0.000502477
5.75318e-08
0.00720123
0.000511349
-6.51133e-08
0.000517819
4.7608e-08
0.00535192
-0.000112419
8.39323e-09
0.00540714
-0.000335165
-1.80279e-08
0.00549814
-0.000549873
-2.93073e-08
0.00562199
-0.000747333
-1.80817e-08
0.00577489
-0.000920824
-1.37162e-08
0.00595128
-0.0010633
-9.03599e-09
0.00614393
-0.00116854
7.21183e-10
0.00634455
-0.00123292
1.70929e-08
0.00654428
-0.00125555
3.57109e-08
0.00673507
-0.00123982
4.99164e-08
0.00691131
-0.00119375
5.19806e-08
0.00707055
-0.00112789
4.15182e-08
0.00721309
-0.00105243
2.18853e-08
0.00734077
-0.000974784
6.76741e-09
0.00745568
-0.000898748
5.14038e-10
0.00755946
-0.000825572
-8.2506e-10
0.00765334
-0.000755541
2.51541e-10
0.00773828
-0.000688724
7.62802e-10
0.00781502
-0.000625069
2.67219e-10
0.00788413
-0.000564337
5.37791e-11
0.00794602
-0.000506241
3.28446e-12
0.00800102
-0.000450494
1.72851e-10
0.0080494
-0.000396886
-1.29742e-10
0.00809142
-0.000345195
-2.36843e-10
0.00812728
-0.000295246
-8.66589e-10
0.00815718
-0.000246815
-7.44184e-10
0.00818127
-0.000199752
-1.42994e-09
0.00819971
-0.000153821
-9.78925e-10
0.00821261
-0.000108905
-1.83534e-09
0.00822007
-6.47474e-05
-7.39045e-10
0.00822217
-2.12696e-05
-1.90197e-09
0.0082189
2.17658e-05
-7.52622e-11
0.00821031
6.43335e-05
-2.67152e-09
0.00819641
0.000106633
-2.13214e-10
0.00817721
0.000148519
-3.82684e-09
0.00815269
0.000190202
1.0378e-09
0.00812284
0.000231353
-4.87986e-09
0.00808767
0.000272153
3.18667e-09
0.00804721
0.000312036
-6.92706e-09
0.00800151
0.000351193
6.79089e-09
0.00795068
0.000388771
-1.05401e-08
0.00789487
0.000425031
1.28383e-08
0.00783429
0.000458776
-1.70948e-08
0.00776928
0.000490438
2.28867e-08
0.00770019
0.000518431
-2.87124e-08
0.00762756
0.000543518
3.89942e-08
0.00755193
0.000563681
-4.75404e-08
0.0074741
0.000580254
5.98999e-08
0.00739472
0.00059079
-6.82321e-08
0.000597533
4.86179e-08
0.00535487
-0.000133961
9.64773e-09
0.00541853
-0.000398808
-1.83753e-08
0.00552409
-0.000655399
-3.57808e-08
0.00566796
-0.000891181
-2.16163e-08
0.00584649
-0.00109933
-2.07191e-08
0.00605308
-0.00126988
-1.36154e-08
0.0062789
-0.00139437
7.93027e-10
0.00651358
-0.00146762
2.59585e-08
0.00674525
-0.00148728
5.72633e-08
0.00696326
-0.0014579
7.87697e-08
0.0071607
-0.00139127
7.63714e-08
0.00733538
-0.00130262
5.25138e-08
0.007489
-0.00120607
1.77765e-08
0.00762498
-0.00111076
-2.54269e-11
0.00774645
-0.00102021
-9.11668e-09
0.00785557
-0.000934677
-5.87114e-09
0.00795378
-0.000853755
-2.58715e-09
0.00804222
-0.000777162
-2.43397e-09
0.00812172
-0.000704564
-3.99729e-09
0.00819286
-0.000635474
-4.30207e-09
0.00825607
-0.00056944
-4.27112e-09
0.00831168
-0.000506103
-4.09779e-09
0.00836002
-0.000445217
-4.65873e-09
0.00840137
-0.000386543
-4.81885e-09
0.00843601
-0.000329877
-5.46179e-09
0.00846419
-0.000274991
-5.25711e-09
0.00848613
-0.000221693
-5.86635e-09
0.00850207
-0.000169756
-5.21331e-09
0.00851217
-0.000118996
-5.78257e-09
0.0085166
-6.91762e-05
-4.29533e-09
0.00851549
-2.01472e-05
-5.06321e-09
0.00850883
2.84231e-05
-3.32155e-09
0.00849672
7.64536e-05
-6.98358e-09
0.00847923
0.000124131
-4.59593e-09
0.00845633
0.000171426
-8.50725e-09
0.00842805
0.000218484
-3.10992e-09
0.00839434
0.000265075
-9.53986e-09
0.00835523
0.000311259
-7.06779e-10
0.00831068
0.000356601
-1.15586e-08
0.00826078
0.000401085
3.3747e-09
0.00820553
0.000444042
-1.50397e-08
0.00814515
0.000485395
1.0228e-08
0.00807971
0.000524235
-2.13941e-08
0.00800967
0.000560462
2.14726e-08
0.00793518
0.000592951
-3.27482e-08
0.00785702
0.000621642
3.91753e-08
0.00777547
0.000645277
-5.12491e-08
0.00769173
0.000663935
6.1587e-08
0.00760617
0.00067642
-7.16766e-08
0.000683102
4.93805e-08
0.00535843
-0.000159064
1.14606e-08
0.0054321
-0.000472461
-1.66171e-08
0.00555545
-0.000778703
-4.42544e-08
0.00572375
-0.00105946
-2.44821e-08
0.00593452
-0.00131006
-3.27223e-08
0.00617953
-0.00151487
-2.10433e-08
0.00644826
-0.00166309
-1.88424e-09
0.00672733
-0.00174672
3.52153e-08
0.00700035
-0.0017604
8.92779e-08
0.00725283
-0.00171051
1.25335e-07
0.00747603
-0.00161459
1.16336e-07
0.00766836
-0.00149501
6.04169e-08
0.00783383
-0.00137155
1.24865e-08
0.00797819
-0.00125509
-2.56749e-08
0.00810574
-0.00114773
-3.11696e-08
0.00821905
-0.00104798
-1.88164e-08
0.00831985
-0.00095454
-1.11882e-08
0.00840943
-0.000866729
-1.25714e-08
0.00848873
-0.000783847
-1.41513e-08
0.00855838
-0.000705115
-1.42122e-08
0.00861889
-0.000629937
-1.3866e-08
0.00867073
-0.000557927
-1.35062e-08
0.00871435
-0.000488822
-1.39561e-08
0.0087502
-0.00042238
-1.37587e-08
0.00877871
-0.000358371
-1.40024e-08
0.0088003
-0.000296565
-1.31495e-08
0.00881534
-0.00023672
-1.31616e-08
0.0088242
-0.000178612
-1.15964e-08
0.00882718
-0.000121961
-1.11741e-08
0.00882458
-6.65679e-05
-8.49765e-09
0.00881661
-1.21659e-05
-8.24605e-09
0.00880324
4.1802e-05
-7.7734e-09
0.0087847
9.50011e-05
-1.29819e-08
0.00876111
0.000147729
-1.07018e-08
0.00873243
0.000200128
-1.4966e-08
0.0086987
0.000252217
-9.22855e-09
0.00865983
0.000303968
-1.61526e-08
0.00861587
0.000355227
-6.70517e-09
0.00856664
0.000405841
-1.81522e-08
0.00851231
0.000455426
-2.16445e-09
0.00845265
0.000503718
-2.14618e-08
0.00838799
0.000550048
5.43534e-09
0.00831814
0.000594111
-2.745e-08
0.0082437
0.00063489
1.7883e-08
0.00816451
0.000672175
-3.81598e-08
0.0080816
0.000704516
3.73256e-08
0.0079949
0.000732039
-5.5612e-08
0.007906
0.000752771
6.1638e-08
0.00781492
0.000767575
-7.48686e-08
0.000773919
4.94022e-08
0.00536261
-0.000188351
1.43961e-08
0.00544795
-0.000557791
-1.13112e-08
0.0055928
-0.000923495
-5.47579e-08
0.00579053
-0.00125717
-2.50541e-08
0.00604194
-0.00156143
-5.21323e-08
0.00633593
-0.00180883
-2.84522e-08
0.00666071
-0.00198787
-7.61962e-09
0.00699805
-0.00208411
4.63988e-08
0.00732456
-0.00208704
1.29642e-07
0.00762034
-0.00200648
1.8201e-07
0.00787367
-0.00186808
1.66631e-07
0.00808398
-0.00170539
7.20847e-08
0.00825916
-0.00154672
-5.35803e-09
0.00840816
-0.00140402
-7.00874e-08
0.00853663
-0.00127614
-7.02998e-08
0.00864765
-0.00115894
-4.7086e-08
0.00874336
-0.00105022
-3.50196e-08
0.00882549
-0.000948827
-3.38416e-08
0.00889525
-0.000853568
-3.35712e-08
0.00895352
-0.000763357
-3.11595e-08
0.00900113
-0.000677518
-2.89116e-08
0.0090389
-0.000595674
-2.71885e-08
0.00906766
-0.000517553
-2.64098e-08
0.00908819
-0.000442887
-2.46776e-08
0.00910125
-0.000371405
-2.34325e-08
0.00910753
-0.00030282
-2.0744e-08
0.00910766
-0.000236837
-1.92021e-08
0.00910222
-0.000173151
-1.53849e-08
0.0090917
-0.000111428
-1.32798e-08
0.00907654
-5.14045e-05
-8.37879e-09
0.00905702
7.36667e-06
-7.50324e-09
0.00903312
6.57058e-05
-9.84604e-09
0.00900522
0.000122923
-1.63612e-08
0.00897339
0.000179572
-1.41636e-08
0.00893755
0.000235984
-1.9004e-08
0.00889777
0.000292008
-1.34039e-08
0.00885382
0.000347942
-2.09238e-08
0.00880574
0.000403321
-1.13217e-08
0.00875316
0.000458438
-2.33644e-08
0.00869623
0.000512372
-7.03854e-09
0.00863446
0.000565506
-2.69795e-08
0.0085682
0.000616307
5.12511e-10
0.00849692
0.000665426
-3.30129e-08
0.00842128
0.000710515
1.32485e-08
0.00834074
0.000752766
-4.32513e-08
0.00825646
0.000788754
3.35126e-08
0.00816796
0.000820603
-5.93064e-08
0.00807712
0.000843551
5.91912e-08
0.00798363
0.000861142
-7.64999e-08
0.000867227
4.80059e-08
0.00536727
-0.000222307
1.97944e-08
0.00546609
-0.000656608
-2.31727e-09
0.00563632
-0.00109366
-6.59763e-08
0.00586893
-0.00148975
-2.35945e-08
0.00617179
-0.00186421
-8.37276e-08
0.00652796
-0.00216497
-2.75262e-08
0.00692689
-0.00238678
-1.31582e-08
0.00734189
-0.00249918
7.94427e-08
0.00773775
-0.00248309
1.91286e-07
0.00808594
-0.0023549
2.27196e-07
0.00836946
-0.00215178
1.74011e-07
0.00859026
-0.00192624
4.60314e-08
0.00876323
-0.00171962
-7.03049e-08
0.0089019
-0.00154256
-1.37474e-07
0.00901383
-0.00138794
-1.19647e-07
0.00910314
-0.00124818
-8.30713e-08
0.00917344
-0.00112045
-6.74445e-08
0.00922732
-0.00100264
-6.3385e-08
0.00926672
-0.000892908
-5.73724e-08
0.00929325
-0.000789834
-4.84494e-08
0.00930846
-0.000692694
-4.13428e-08
0.00931391
-0.000601083
-3.62014e-08
0.00931101
-0.000514623
-3.24989e-08
0.00930108
-0.000432931
-2.81615e-08
0.0092853
-0.00035559
-2.45385e-08
0.00926468
-0.000282183
-1.9787e-08
0.00924012
-0.000212258
-1.61355e-08
0.00921234
-0.000145366
-1.02925e-08
0.00918199
-8.10673e-05
-6.87938e-09
0.00914975
-1.91646e-05
-2.80366e-09
0.00911507
4.20509e-05
-9.66925e-09
0.00907899
0.000101803
-1.09786e-08
0.00904122
0.000160701
-1.49432e-08
0.00900187
0.000218941
-1.16601e-08
0.00896071
0.000277164
-1.66074e-08
0.00891768
0.000335041
-1.12233e-08
0.00887237
0.000393278
-1.90179e-08
0.00882467
0.00045103
-9.76911e-09
0.00877396
0.000509163
-2.21443e-08
0.00872025
0.000566096
-6.52954e-09
0.00866273
0.000623045
-2.66428e-08
0.00860163
0.000677415
-3.20335e-10
0.00853601
0.000731075
-3.34615e-08
0.00846646
0.000780055
1.085e-08
0.00839199
0.00082728
-4.39279e-08
0.00831372
0.000866997
2.95946e-08
0.00823075
0.000903625
-5.89674e-08
0.0081449
0.000929353
5.42985e-08
0.0080558
0.000950316
-7.39662e-08
0.000957063
4.45629e-08
0.00537205
-0.000261055
3.0449e-08
0.00548646
-0.000771019
7.27582e-09
0.00568511
-0.00129224
-7.21428e-08
0.00595891
-0.00176353
-2.78267e-08
0.00632625
-0.00223141
-1.38874e-07
0.00675996
-0.00259864
-3.60711e-08
0.0072571
-0.00288389
-3.22809e-08
0.00777787
-0.0030201
1.43051e-07
0.00826344
-0.00296898
3.1422e-07
0.00866583
-0.00275755
2.63143e-07
0.00896064
-0.00244666
7.39569e-08
0.00916074
-0.00212622
-1.18385e-07
0.00929435
-0.00185296
-2.67914e-07
0.00938247
-0.00163042
-2.51167e-07
0.00943576
-0.00144108
-1.49424e-07
0.00946162
-0.00127396
-7.86361e-08
0.00946609
-0.00112485
-7.38925e-08
0.00945386
-0.000990337
-6.90686e-08
0.00942809
-0.000867081
-5.66609e-08
0.00939167
-0.000753378
-4.1054e-08
0.00934727
-0.000648266
-2.96572e-08
0.00929726
-0.000551049
-2.18759e-08
0.00924363
-0.000460974
-1.62375e-08
0.00918805
-0.000377347
-1.08879e-08
0.00913188
-0.000299405
-6.90483e-09
0.00907617
-0.000226477
-2.28325e-09
0.00902172
-0.000157803
-2.98865e-11
0.00896912
-9.27715e-05
4.31226e-09
0.00891898
-3.09315e-05
4.63974e-09
0.00887078
2.90256e-05
1.2743e-09
0.00882505
8.77969e-05
-6.81253e-09
0.00878175
0.000145103
-4.5749e-09
0.00874048
0.000201978
-5.173e-09
0.00870102
0.000258403
-7.51916e-10
0.00866287
0.000315317
-5.22517e-09
0.00862568
0.000372229
6.35726e-11
0.00858874
0.000430225
-7.40672e-09
0.00855167
0.000488097
9.96575e-10
0.00851358
0.00054727
-1.10528e-08
0.00847415
0.000605523
2.69423e-09
0.0084323
0.000664907
-1.65974e-08
0.00838793
0.000721779
6.33457e-09
0.0083398
0.000779227
-2.45912e-08
0.00828815
0.000831701
1.38616e-08
0.00823167
0.000883792
-3.58021e-08
0.00817103
0.000927605
2.78875e-08
0.00810523
0.000969476
-5.03066e-08
0.00803529
0.000999245
4.77168e-08
0.0079614
0.00102427
-6.35999e-08
0.00103396
3.87479e-08
0.00537651
-0.000304279
5.12619e-08
0.00550851
-0.000903045
1.83451e-08
0.00573602
-0.0015197
-5.60766e-08
0.00605943
-0.00208688
-5.48261e-08
0.00650418
-0.00267593
-2.28523e-07
0.00703384
-0.00312819
-1.16592e-07
0.00766458
-0.00351452
-1.1299e-07
0.00832552
-0.00368118
1.45869e-07
0.00891785
-0.00356177
4.66953e-07
0.0093417
-0.00318179
3.91369e-07
0.00957368
-0.00267868
4.00579e-08
0.00966687
-0.002219
-4.00043e-07
0.00967564
-0.00186117
-5.74334e-07
0.00962955
-0.00158394
-3.87794e-07
0.00954677
-0.00135819
-1.12914e-07
0.00944101
-0.00116818
-2.15609e-08
0.00932207
-0.00100592
7.98904e-09
0.00919594
-0.000864219
1.36079e-08
0.00906735
-0.000738512
2.22314e-08
0.00894
-0.000626061
3.05589e-08
0.00881692
-0.000525219
3.27736e-08
0.00870029
-0.00043445
3.23432e-08
0.00859156
-0.000352281
3.11517e-08
0.00849165
-0.00027746
3.01974e-08
0.00840097
-0.000208756
2.80349e-08
0.00831961
-0.000145147
2.60051e-08
0.00824741
-8.56206e-05
2.2423e-08
0.00818411
-2.94926e-05
1.98525e-08
0.00812884
2.43293e-05
1.14797e-08
0.00808124
7.66207e-05
7.21479e-09
0.00804092
0.000128105
7.41692e-09
0.00800703
0.000178981
1.33257e-08
0.00797881
0.000230183
1.35614e-08
0.00795555
0.000281641
1.76221e-08
0.00793643
0.000334426
1.35194e-08
0.00792071
0.000387931
1.80903e-08
0.00790747
0.000443454
1.11243e-08
0.00789598
0.000499568
1.80364e-08
0.0078852
0.000558046
6.96229e-09
0.00787445
0.00061626
1.78689e-08
0.00786254
0.000676816
8.00109e-10
0.00784891
0.000735381
1.84426e-08
0.00783228
0.000795865
-7.63673e-09
0.00781228
0.000851685
2.10845e-08
0.00778762
0.000908468
-1.86766e-08
0.0077581
0.000957094
2.78216e-08
0.00772298
0.00100463
-3.17035e-08
0.00768182
0.00104036
3.88935e-08
0.00763594
0.00107021
-4.28351e-08
0.00108655
3.02138e-08
0.00538048
-0.000351508
8.87274e-08
0.00552951
-0.00105212
5.16686e-08
0.00578256
-0.00177276
1.08326e-08
0.00616583
-0.00247004
-1.07948e-07
0.00669282
-0.0032026
-3.19216e-07
0.00734523
-0.00378025
-3.55547e-07
0.00817487
-0.00434375
-4.06198e-07
0.00898417
-0.00449051
3.06887e-08
0.00964079
-0.00421877
3.75556e-07
0.00994759
-0.00348916
5.79096e-07
0.00993469
-0.00266607
2.82502e-07
0.00974653
-0.00203068
-1.64638e-07
0.00947962
-0.00159365
-6.07183e-07
0.00917267
-0.00127661
-3.82754e-07
0.00885939
-0.00104489
-1.83699e-08
0.00855859
-0.000867536
1.49148e-07
0.00827974
-0.000727236
1.72502e-07
0.00802649
-0.000611134
1.59455e-07
0.00780045
-0.000512616
1.47709e-07
0.00760218
-0.000427918
1.27639e-07
0.00743087
-0.000354019
1.03442e-07
0.00728489
-0.000288547
8.29477e-08
0.00716211
-0.000229577
6.76532e-08
0.00706029
-0.000175694
5.65217e-08
0.00697715
-0.000125662
4.71581e-08
0.00691059
-7.86212e-05
3.86486e-08
0.00685853
-3.35957e-05
2.93002e-08
0.00681908
9.93736e-06
2.10019e-08
0.0067911
5.22958e-05
1.68263e-08
0.00677314
9.45543e-05
2.14699e-08
0.00676407
0.000137157
2.45409e-08
0.00676275
0.000180263
2.91043e-08
0.00676824
0.000224669
2.77708e-08
0.0067796
0.00027025
3.02367e-08
0.00679599
0.000318011
2.6271e-08
0.00681654
0.000367349
2.97741e-08
0.00684043
0.000419546
2.37677e-08
0.00686676
0.000473208
2.91645e-08
0.00689466
0.000530126
2.02114e-08
0.00692319
0.000587698
2.82528e-08
0.00695141
0.000648581
1.52538e-08
0.00697833
0.000708433
2.69667e-08
0.00700295
0.000771242
8.71447e-09
0.00702421
0.000830399
2.54269e-08
0.00704119
0.000891485
6.76784e-10
0.00705263
0.000945627
2.42588e-08
0.00705829
0.000998983
-7.19256e-09
0.00705599
0.00104263
2.4238e-08
0.00704823
0.00107799
-1.27403e-08
0.00110526
1.75829e-08
0.00538359
-0.000401904
1.44477e-07
0.00554167
-0.00121033
1.25825e-07
0.00581489
-0.00204611
1.26387e-07
0.00625678
-0.0029118
-1.29006e-07
0.00685909
-0.00380463
-2.7184e-07
0.00768476
-0.00460521
-7.0233e-07
0.00879724
-0.00545548
-7.52458e-07
0.00966416
-0.00535735
-8.05673e-08
0.0100959
-0.00124931
-1.13071e-07
-0.001076
-0.00124787
-0.00107719
0.00993547
-0.000914084
2.49549e-07
-0.000750619
-0.000913177
-0.000751134
0.00935192
-0.000569128
9.38568e-07
-0.000472747
-0.000568731
-0.000472851
0.00862107
-0.000335694
3.52538e-07
-0.000314175
-0.000336136
-0.000314166
0.00790632
-0.000878808
-1.04114e-07
0.00726819
-0.000638359
-1.15845e-07
0.00673951
-0.000516357
1.50569e-07
0.00631691
-0.000445097
1.59198e-07
0.00598724
-0.000397636
7.45493e-08
0.00573413
-0.000358078
5.36895e-08
0.00554266
-0.000321209
5.7111e-08
0.00539976
-0.000285067
5.35417e-08
0.00529473
-0.000249031
4.65723e-08
0.00521924
-0.000213102
4.04655e-08
0.00516703
-0.0001774
3.50675e-08
0.0051334