/*--------------------------------*- C++ -*----------------------------------*\
  =========                 |
  \\      /  F ield         | OpenFOAM: The Open Source CFD Toolbox
   \\    /   O peration     | Website:  https://openfoam.org
    \\  /    A nd           | Version:  8
     \\/     M anipulation  |
\*---------------------------------------------------------------------------*/
FoamFile
{
    version     2.0;
    format      ascii;
    class       volScalarField;
    location    "41";
    object      p;
}
// * * * * * * * * * * * * * * * * * * * * * * * * * * * * * * * * * * * * * //

dimensions      [0 2 -2 0 0 0 0];

internalField   nonuniform List<scalar> 
400
(
-2.77496e-12
-2.86278e-12
-3.03477e-12
-3.26199e-12
-3.51281e-12
-3.77187e-12
-4.02731e-12
-4.26792e-12
-4.48228e-12
-4.65685e-12
-4.77806e-12
-4.83224e-12
-4.80444e-12
-4.67819e-12
-4.43632e-12
-4.05789e-12
-3.52576e-12
-2.80162e-12
-1.88782e-12
-5.92206e-13
-2.67222e-12
-2.73368e-12
-2.86347e-12
-3.04334e-12
-3.24719e-12
-3.45999e-12
-3.67024e-12
-3.86661e-12
-4.03811e-12
-4.17233e-12
-4.2566e-12
-4.27818e-12
-4.22401e-12
-4.07889e-12
-3.82917e-12
-3.45601e-12
-2.94758e-12
-2.26464e-12
-1.45141e-12
-2.96345e-13
-2.48722e-12
-2.52304e-12
-2.61181e-12
-2.74465e-12
-2.90008e-12
-3.06448e-12
-3.22698e-12
-3.37636e-12
-3.50298e-12
-3.59566e-12
-3.64345e-12
-3.63562e-12
-3.5603e-12
-3.40505e-12
-3.15976e-12
-2.80991e-12
-2.34909e-12
-1.74169e-12
-1.06635e-12
-9.38622e-14
-2.25982e-12
-2.28495e-12
-2.35057e-12
-2.45224e-12
-2.57323e-12
-2.70234e-12
-2.82901e-12
-2.94351e-12
-3.03715e-12
-3.10078e-12
-3.12489e-12
-3.10092e-12
-3.01782e-12
-2.86569e-12
-2.63716e-12
-2.32169e-12
-1.9173e-12
-1.3901e-12
-8.32395e-13
2.39453e-15
-2.00681e-12
-2.02684e-12
-2.07689e-12
-2.15494e-12
-2.24876e-12
-2.34845e-12
-2.44513e-12
-2.53084e-12
-2.59778e-12
-2.63864e-12
-2.64602e-12
-2.61235e-12
-2.52885e-12
-2.38725e-12
-2.18212e-12
-1.90515e-12
-1.55819e-12
-1.10994e-12
-6.53681e-13
5.80681e-14
-1.73432e-12
-1.74988e-12
-1.78768e-12
-1.84597e-12
-1.91642e-12
-1.99083e-12
-2.0612e-12
-2.12187e-12
-2.16653e-12
-2.1892e-12
-2.18411e-12
-2.14527e-12
-2.06596e-12
-1.94011e-12
-1.7628e-12
-1.52739e-12
-1.23803e-12
-8.67929e-13
-5.03368e-13
8.56118e-14
-1.44714e-12
-1.45867e-12
-1.48615e-12
-1.52835e-12
-1.57891e-12
-1.63162e-12
-1.67998e-12
-1.7196e-12
-1.7456e-12
-1.75433e-12
-1.74137e-12
-1.70153e-12
-1.63022e-12
-1.52359e-12
-1.37778e-12
-1.18659e-12
-9.55055e-13
-6.61843e-13
-3.79984e-13
8.68385e-14
-1.14948e-12
-1.15723e-12
-1.17612e-12
-1.20493e-12
-1.23864e-12
-1.27259e-12
-1.30207e-12
-1.32379e-12
-1.33473e-12
-1.33316e-12
-1.31579e-12
-1.27832e-12
-1.21785e-12
-1.13304e-12
-1.02092e-12
-8.75391e-13
-7.01503e-13
-4.83602e-13
-2.76959e-13
6.83709e-14
-8.44499e-13
-8.48961e-13
-8.60317e-13
-8.77418e-13
-8.96332e-13
-9.1331e-13
-9.26105e-13
-9.32312e-13
-9.31131e-13
-9.21493e-13
-9.01805e-13
-8.69116e-13
-8.21679e-13
-7.60075e-13
-6.82178e-13
-5.83034e-13
-4.66117e-13
-3.22288e-13
-1.85603e-13
3.76609e-14
-5.35272e-13
-5.3697e-13
-5.41651e-13
-5.47741e-13
-5.52758e-13
-5.54309e-13
-5.51729e-13
-5.44392e-13
-5.32507e-13
-5.16262e-13
-4.9573e-13
-4.68769e-13
-4.34979e-13
-3.96887e-13
-3.52977e-13
-2.99891e-13
-2.39163e-13
-1.68342e-13
-9.874e-14
1.10356e-15
-2.24745e-13
-2.24205e-13
-2.22472e-13
-2.17695e-13
-2.08936e-13
-1.95813e-13
-1.78896e-13
-1.58747e-13
-1.36928e-13
-1.14781e-13
-9.34981e-14
-7.23779e-14
-5.21842e-14
-3.6709e-14
-2.60642e-14
-1.79351e-14
-1.26616e-14
-1.41685e-14
-1.11907e-14
-3.59902e-14
8.45371e-14
8.76327e-14
9.61425e-14
1.12156e-13
1.34807e-13
1.62778e-13
1.94137e-13
2.27096e-13
2.5907e-13
2.87407e-13
3.09647e-13
3.25472e-13
3.32841e-13
3.26707e-13
3.05308e-13
2.69462e-13
2.19497e-13
1.45196e-13
8.02601e-14
-7.0212e-14
3.90895e-13
3.96947e-13
4.13234e-13
4.41621e-13
4.7921e-13
5.22984e-13
5.69782e-13
6.16692e-13
6.59712e-13
6.95267e-13
7.19606e-13
7.31036e-13
7.26436e-13
6.99642e-13
6.47522e-13
5.67699e-13
4.62012e-13
3.13351e-13
1.76861e-13
-9.84809e-14
6.92067e-13
7.0177e-13
7.27326e-13
7.69918e-13
8.2453e-13
8.85966e-13
9.50348e-13
1.01313e-12
1.06928e-12
1.11389e-12
1.14217e-12
1.1509e-12
1.13577e-12
1.08933e-12
1.0068e-12
8.83495e-13
7.20751e-13
4.95557e-13
2.81936e-13
-1.1665e-13
9.84702e-13
9.9853e-13
1.03526e-12
1.0949e-12
1.16942e-12
1.25151e-12
1.33636e-12
1.4182e-12
1.49081e-12
1.54764e-12
1.58286e-12
1.5916e-12
1.56827e-12
1.50402e-12
1.39226e-12
1.22565e-12
1.00474e-12
7.01694e-13
4.04074e-13
-1.1678e-13
1.26342e-12
1.28201e-12
1.3322e-12
1.41221e-12
1.5098e-12
1.61637e-12
1.72563e-12
1.8302e-12
1.92306e-12
1.99648e-12
2.04285e-12
2.05556e-12
2.0272e-12
1.94809e-12
1.80944e-12
1.60089e-12
1.32184e-12
9.40882e-13
5.52288e-13
-9.03117e-14
1.52293e-12
1.54727e-12
1.6135e-12
1.71706e-12
1.84177e-12
1.97648e-12
2.11376e-12
2.24523e-12
2.36282e-12
2.45733e-12
2.51927e-12
2.54041e-12
2.51155e-12
2.42129e-12
2.25904e-12
2.01137e-12
1.67599e-12
1.21752e-12
7.28558e-13
-3.55139e-14
1.75632e-12
1.79212e-12
1.88172e-12
2.01582e-12
2.17422e-12
2.34327e-12
2.51466e-12
2.67939e-12
2.82814e-12
2.95037e-12
3.03493e-12
3.07105e-12
3.04817e-12
2.95355e-12
2.77386e-12
2.49229e-12
2.10269e-12
1.56602e-12
9.60046e-13
5.9137e-14
1.94676e-12
2.00834e-12
2.13861e-12
2.31925e-12
2.52493e-12
2.74158e-12
2.96013e-12
3.17076e-12
3.36317e-12
3.52584e-12
3.64599e-12
3.71055e-12
3.70702e-12
3.62093e-12
3.43635e-12
3.13237e-12
2.69625e-12
2.08517e-12
1.34235e-12
2.59664e-13
2.05131e-12
2.14033e-12
2.31263e-12
2.54018e-12
2.79258e-12
3.05512e-12
3.31877e-12
3.57351e-12
3.80824e-12
4.0109e-12
4.16809e-12
4.26481e-12
4.28688e-12
4.21854e-12
4.0419e-12
3.73329e-12
3.27272e-12
2.6192e-12
1.77547e-12
5.53655e-13
)
;

boundaryField
{
    inlet
    {
        type            zeroGradient;
    }
    outlet
    {
        type            fixedValue;
        value           uniform 0;
    }
    up
    {
        type            zeroGradient;
    }
    down
    {
        type            zeroGradient;
    }
    frontAndBack
    {
        type            empty;
    }
}


// ************************************************************************* //
