/*--------------------------------*- C++ -*----------------------------------*\
  =========                 |
  \\      /  F ield         | OpenFOAM: The Open Source CFD Toolbox
   \\    /   O peration     | Website:  https://openfoam.org
    \\  /    A nd           | Version:  8
     \\/     M anipulation  |
\*---------------------------------------------------------------------------*/
FoamFile
{
    version     2.0;
    format      ascii;
    class       surfaceScalarField;
    location    "0.65";
    object      phi;
}
// * * * * * * * * * * * * * * * * * * * * * * * * * * * * * * * * * * * * * //

dimensions      [0 3 -1 0 0 0 0];

internalField   nonuniform List<scalar> 
760
(
1.24382e-06
1.7011e-12
1.24381e-06
6.76887e-12
1.24381e-06
8.4765e-12
1.2438e-06
8.90655e-12
1.24379e-06
8.19909e-12
1.24378e-06
7.05217e-12
1.24378e-06
5.71282e-12
1.24377e-06
4.38637e-12
1.24377e-06
3.17752e-12
1.24377e-06
2.05945e-12
1.24377e-06
9.25294e-13
1.24377e-06
-3.48945e-13
1.24377e-06
-1.85827e-12
1.24377e-06
-3.65083e-12
1.24378e-06
-5.71654e-12
1.24378e-06
-7.96555e-12
1.24379e-06
-1.01655e-11
1.24381e-06
-1.15264e-11
1.24382e-06
-1.07195e-11
-5.41414e-12
3.73157e-06
5.15677e-13
3.73156e-06
1.33067e-11
3.73155e-06
1.9963e-11
3.73154e-06
2.20152e-11
3.73152e-06
2.11685e-11
3.73151e-06
1.8869e-11
3.7315e-06
1.58808e-11
3.73149e-06
1.26747e-11
3.73149e-06
9.47085e-12
3.73148e-06
6.27311e-12
3.73148e-06
2.94614e-12
3.73148e-06
-6.98001e-13
3.73149e-06
-4.82477e-12
3.73149e-06
-9.52194e-12
3.7315e-06
-1.47444e-11
3.73151e-06
-2.02089e-11
3.73153e-06
-2.51962e-11
3.73154e-06
-2.79418e-11
3.73156e-06
-2.5294e-11
-1.46536e-11
6.21974e-06
-2.50219e-12
6.21974e-06
1.57973e-11
6.21973e-06
2.7079e-11
6.21972e-06
3.15736e-11
6.21971e-06
3.16442e-11
6.2197e-06
2.91689e-11
6.21969e-06
2.52881e-11
6.21969e-06
2.0725e-11
6.21968e-06
1.58593e-11
6.21967e-06
1.07943e-11
6.21967e-06
5.44554e-12
6.21967e-06
-3.65461e-13
6.21967e-06
-6.81943e-12
6.21968e-06
-1.40131e-11
6.21969e-06
-2.1854e-11
6.21969e-06
-2.98779e-11
6.21971e-06
-3.69523e-11
6.21972e-06
-4.06637e-11
6.21973e-06
-3.70649e-11
-2.32621e-11
8.70866e-06
-6.79639e-12
8.70866e-06
1.48848e-11
8.70865e-06
2.94e-11
8.70865e-06
3.62688e-11
8.70864e-06
3.77624e-11
8.70864e-06
3.58693e-11
8.70863e-06
3.19024e-11
8.70862e-06
2.67483e-11
8.70862e-06
2.09267e-11
8.70862e-06
1.4656e-11
8.70861e-06
7.93573e-12
8.70861e-06
6.39306e-13
8.70861e-06
-7.38872e-12
8.70862e-06
-1.62248e-11
8.70862e-06
-2.5727e-11
8.70862e-06
-3.5312e-11
8.70863e-06
-4.36226e-11
8.70864e-06
-4.8006e-11
8.70865e-06
-4.43404e-11
-2.95758e-11
1.11986e-05
-1.09185e-11
1.11986e-05
1.15566e-11
1.11986e-05
2.76637e-11
1.11986e-05
3.62669e-11
1.11986e-05
3.92053e-11
1.11986e-05
3.83168e-11
1.11986e-05
3.49004e-11
1.11986e-05
2.9897e-11
1.11986e-05
2.39103e-11
1.11986e-05
1.72492e-11
1.11986e-05
9.99607e-12
1.11986e-05
2.09068e-12
1.11986e-05
-6.57483e-12
1.11986e-05
-1.60442e-11
1.11986e-05
-2.61488e-11
1.11986e-05
-3.62788e-11
1.11986e-05
-4.50527e-11
1.11986e-05
-4.99086e-11
1.11986e-05
-4.69657e-11
-3.31606e-11
1.36898e-05
-1.41418e-11
1.36898e-05
6.83335e-12
1.36898e-05
2.2833e-11
1.36898e-05
3.22251e-11
1.36898e-05
3.6286e-11
1.36898e-05
3.65285e-11
1.36898e-05
3.40894e-11
1.36898e-05
2.98554e-11
1.36898e-05
2.44416e-11
1.36898e-05
1.82034e-11
1.36898e-05
1.12857e-11
1.36898e-05
3.69105e-12
1.36898e-05
-4.63801e-12
1.36898e-05
-1.3718e-11
1.36898e-05
-2.33897e-11
1.36898e-05
-3.31089e-11
1.36898e-05
-4.16452e-11
1.36898e-05
-4.67717e-11
1.36898e-05
-4.5121e-11
-3.37378e-11
1.61825e-05
-1.59805e-11
1.61825e-05
1.60817e-12
1.61825e-05
1.59262e-11
1.61825e-05
2.50587e-11
1.61825e-05
2.97147e-11
1.61825e-05
3.09846e-11
1.61825e-05
2.97402e-11
1.61825e-05
2.67222e-11
1.61825e-05
2.24842e-11
1.61825e-05
1.7378e-11
1.61825e-05
1.15792e-11
1.61825e-05
5.13603e-12
1.61825e-05
-1.96841e-12
1.61825e-05
-9.73801e-12
1.61825e-05
-1.80577e-11
1.61825e-05
-2.65224e-11
1.61825e-05
-3.41817e-11
1.61825e-05
-3.93157e-11
1.61825e-05
-3.92589e-11
-3.13084e-11
1.86768e-05
-1.61679e-11
1.86768e-05
-3.40096e-12
1.86768e-05
7.90237e-12
1.86769e-05
1.57765e-11
1.86769e-05
2.04183e-11
1.86769e-05
2.2461e-11
1.86769e-05
2.24503e-11
1.86769e-05
2.09125e-11
1.86769e-05
1.82781e-11
1.86769e-05
1.4845e-11
1.86769e-05
1.07849e-11
1.86769e-05
6.16873e-12
1.86769e-05
1.00485e-12
1.86769e-05
-4.7133e-12
1.86769e-05
-1.09401e-11
1.86769e-05
-1.7456e-11
1.86769e-05
-2.36708e-11
1.86768e-05
-2.84823e-11
1.86768e-05
-3.00594e-11
-2.61114e-11
2.1173e-05
-1.4662e-11
2.1173e-05
-7.6773e-12
2.1173e-05
-4.04627e-13
2.1173e-05
5.37164e-12
2.1173e-05
9.41406e-12
2.1173e-05
1.19041e-11
2.11731e-05
1.30353e-11
2.11731e-05
1.30758e-11
2.11731e-05
1.22854e-11
2.11731e-05
1.08669e-11
2.11731e-05
8.9554e-12
2.11731e-05
6.62254e-12
2.11731e-05
3.88712e-12
2.11731e-05
7.29649e-13
2.11731e-05
-2.88431e-12
2.1173e-05
-6.93896e-12
2.1173e-05
-1.1239e-11
2.1173e-05
-1.53559e-11
2.1173e-05
-1.83848e-11
-1.86007e-11
2.36711e-05
-1.16361e-11
2.36711e-05
-1.09173e-11
2.36711e-05
-8.31784e-12
2.36711e-05
-5.24067e-12
2.36711e-05
-2.2738e-12
2.36711e-05
3.40524e-13
2.36711e-05
2.44328e-12
2.36711e-05
4.02258e-12
2.36711e-05
5.13809e-12
2.36711e-05
5.8676e-12
2.36711e-05
6.28492e-12
2.36711e-05
6.44475e-12
2.36711e-05
6.36683e-12
2.36711e-05
6.01679e-12
2.36711e-05
5.28541e-12
2.36711e-05
3.99369e-12
2.36711e-05
1.94708e-12
2.36711e-05
-1.1058e-12
2.36711e-05
-5.23689e-12
-9.42312e-12
2.61711e-05
-7.45835e-12
2.61711e-05
-1.30182e-11
2.61711e-05
-1.53252e-11
2.61711e-05
-1.52549e-11
2.61711e-05
-1.36659e-11
2.61711e-05
-1.11873e-11
2.61711e-05
-8.31363e-12
2.61711e-05
-5.33834e-12
2.61711e-05
-2.41418e-12
2.61711e-05
3.96165e-13
2.61712e-05
3.0914e-12
2.61712e-05
5.69939e-12
2.61711e-05
8.23846e-12
2.61711e-05
1.06669e-11
2.61711e-05
1.28208e-11
2.61711e-05
1.4359e-11
2.61711e-05
1.47373e-11
2.61711e-05
1.30635e-11
2.61711e-05
8.28748e-12
6.15341e-13
2.8673e-05
-2.65679e-12
2.8673e-05
-1.40487e-11
2.8673e-05
-2.10676e-11
2.8673e-05
-2.39819e-11
2.86731e-05
-2.3855e-11
2.86731e-05
-2.16656e-11
2.86731e-05
-1.82138e-11
2.86731e-05
-1.40588e-11
2.86731e-05
-9.55983e-12
2.86731e-05
-4.91943e-12
2.86731e-05
-2.16305e-13
2.86731e-05
4.55077e-12
2.86731e-05
9.40353e-12
2.86731e-05
1.4309e-11
2.86731e-05
1.908e-11
2.86731e-05
2.32656e-11
2.86731e-05
2.60426e-11
2.86731e-05
2.59588e-11
2.8673e-05
2.10403e-11
1.05927e-11
3.11769e-05
2.13153e-12
3.11769e-05
-1.42013e-11
3.11769e-05
-2.53064e-11
3.11769e-05
-3.08361e-11
3.11769e-05
-3.20171e-11
3.11769e-05
-3.01417e-11
3.11769e-05
-2.62755e-11
3.11769e-05
-2.12104e-11
3.11769e-05
-1.54871e-11
3.11769e-05
-9.43064e-12
3.11769e-05
-3.1858e-12
3.11769e-05
3.22988e-12
3.11769e-05
9.85343e-12
3.11769e-05
1.66815e-11
3.11769e-05
2.35432e-11
3.11769e-05
2.99424e-11
3.11769e-05
3.4872e-11
3.11769e-05
3.64426e-11
3.11769e-05
3.18698e-11
1.95254e-11
3.36825e-05
6.22806e-12
3.36825e-05
-1.37281e-11
3.36825e-05
-2.78727e-11
3.36825e-05
-3.53083e-11
3.36826e-05
-3.74119e-11
3.36826e-05
-3.57538e-11
3.36826e-05
-3.16107e-11
3.36826e-05
-2.59532e-11
3.36826e-05
-1.94581e-11
3.36826e-05
-1.25389e-11
3.36826e-05
-5.38376e-12
3.36826e-05
1.98686e-12
3.36826e-05
9.63963e-12
3.36826e-05
1.76225e-11
3.36826e-05
2.58203e-11
3.36826e-05
3.37625e-11
3.36826e-05
4.03712e-11
3.36826e-05
4.34814e-11
3.36826e-05
3.96741e-11
2.64328e-11
3.61899e-05
9.00296e-12
3.61899e-05
-1.28612e-11
3.61899e-05
-2.86012e-11
3.61899e-05
-3.69332e-11
3.61899e-05
-3.93911e-11
3.61899e-05
-3.77758e-11
3.61899e-05
-3.34968e-11
3.61899e-05
-2.76236e-11
3.61899e-05
-2.09016e-11
3.61899e-05
-1.37839e-11
3.61899e-05
-6.47057e-12
3.61899e-05
1.03381e-12
3.61899e-05
8.83821e-12
3.61899e-05
1.70577e-11
3.61899e-05
2.56641e-11
3.61899e-05
3.42783e-11
3.61899e-05
4.18734e-11
3.61899e-05
4.62071e-11
3.61899e-05
4.34712e-11
3.04118e-11
3.86987e-05
9.98608e-12
3.86987e-05
-1.17107e-11
3.86987e-05
-2.72603e-11
3.86987e-05
-3.52715e-11
3.86987e-05
-3.7435e-11
3.86987e-05
-3.56986e-11
3.86986e-05
-3.14866e-11
3.86986e-05
-2.58557e-11
3.86986e-05
-1.95319e-11
3.86986e-05
-1.29494e-11
3.86986e-05
-6.28647e-12
3.86986e-05
4.83477e-13
3.86986e-05
7.5174e-12
3.86986e-05
1.49994e-11
3.86987e-05
2.30006e-11
3.86987e-05
3.12805e-11
3.86987e-05
3.8981e-11
3.86987e-05
4.40086e-11
3.86987e-05
4.25014e-11
3.07273e-11
4.12087e-05
8.98343e-12
4.12087e-05
-1.01331e-11
4.12087e-05
-2.34932e-11
4.12087e-05
-2.99374e-11
4.12087e-05
-3.1261e-11
4.12087e-05
-2.93849e-11
4.12087e-05
-2.55783e-11
4.12087e-05
-2.07458e-11
4.12087e-05
-1.54954e-11
4.12087e-05
-1.01835e-11
4.12087e-05
-4.94081e-12
4.12087e-05
2.96313e-13
4.12087e-05
5.72355e-12
4.12087e-05
1.15741e-11
4.12087e-05
1.79976e-11
4.12087e-05
2.49019e-11
4.12087e-05
3.16942e-11
4.12087e-05
3.66705e-11
4.12087e-05
3.63679e-11
2.69435e-11
4.37198e-05
6.26768e-12
4.37198e-05
-7.5834e-12
4.37198e-05
-1.67914e-11
4.37198e-05
-2.07195e-11
4.37198e-05
-2.10351e-11
4.37198e-05
-1.93108e-11
4.37197e-05
-1.64464e-11
4.37197e-05
-1.30541e-11
4.37197e-05
-9.53633e-12
4.37197e-05
-6.1249e-12
4.37197e-05
-2.88815e-12
4.37197e-05
2.6039e-13
4.37197e-05
3.51795e-12
4.37197e-05
7.11121e-12
4.37197e-05
1.12005e-11
4.37197e-05
1.57966e-11
4.37198e-05
2.06192e-11
4.37198e-05
2.45642e-11
4.37198e-05
2.51523e-11
1.89998e-11
4.62316e-05
2.47921e-12
4.62316e-05
-3.65468e-12
4.62316e-05
-7.28547e-12
4.62316e-05
-8.56102e-12
4.62316e-05
-8.32767e-12
4.62315e-05
-7.38366e-12
4.62315e-05
-6.08358e-12
4.62315e-05
-4.66734e-12
4.62315e-05
-3.29105e-12
4.62315e-05
-2.04152e-12
4.62315e-05
-9.30842e-13
4.62315e-05
1.09461e-13
4.62315e-05
1.20551e-12
4.62315e-05
2.48225e-12
4.62315e-05
4.00343e-12
4.62315e-05
5.77779e-12
4.62316e-05
7.78978e-12
4.62316e-05
9.68696e-12
4.62316e-05
1.0503e-11
8.18934e-12
4.87438e-05
4.87438e-05
4.87438e-05
4.87438e-05
4.87438e-05
4.87438e-05
4.87438e-05
4.87438e-05
4.87438e-05
4.87438e-05
4.87438e-05
4.87438e-05
4.87438e-05
4.87438e-05
4.87438e-05
4.87438e-05
4.87438e-05
4.87438e-05
4.87438e-05
)
;

boundaryField
{
    movingWall
    {
        type            calculated;
        value           uniform 0;
    }
    fixedWalls
    {
        type            calculated;
        value           uniform 0;
    }
    left
    {
        type            cyclic;
        value           nonuniform List<scalar> 
20
(
-3.86987e-05
-3.61899e-05
-3.36825e-05
-3.11769e-05
-2.8673e-05
-2.61711e-05
-2.36711e-05
-2.1173e-05
-1.86768e-05
-1.61825e-05
-1.36898e-05
-1.11986e-05
-8.70865e-06
-6.21974e-06
-3.73157e-06
-1.24382e-06
-4.12087e-05
-4.37198e-05
-4.62316e-05
-4.87438e-05
)
;
    }
    right
    {
        type            cyclic;
        value           nonuniform List<scalar> 
20
(
3.86987e-05
3.61899e-05
3.36825e-05
3.11769e-05
2.8673e-05
2.61711e-05
2.36711e-05
2.1173e-05
1.86768e-05
1.61825e-05
1.36898e-05
1.11986e-05
8.70865e-06
6.21974e-06
3.73157e-06
1.24382e-06
4.12087e-05
4.37198e-05
4.62316e-05
4.87438e-05
)
;
    }
    frontAndBack
    {
        type            empty;
        value           nonuniform List<scalar> 0();
    }
}


// ************************************************************************* //
