/*--------------------------------*- C++ -*----------------------------------*\
  =========                 |
  \\      /  F ield         | OpenFOAM: The Open Source CFD Toolbox
   \\    /   O peration     | Website:  https://openfoam.org
    \\  /    A nd           | Version:  8
     \\/     M anipulation  |
\*---------------------------------------------------------------------------*/
FoamFile
{
    version     2.0;
    format      ascii;
    class       volScalarField;
    location    "1.39";
    object      p;
}
// * * * * * * * * * * * * * * * * * * * * * * * * * * * * * * * * * * * * * //

dimensions      [0 2 -2 0 0 0 0];

internalField   nonuniform List<scalar> 
400
(
3.57796e-15
2.01097e-13
4.6958e-13
7.64237e-13
1.03473e-12
1.23541e-12
1.36249e-12
1.41239e-12
1.39925e-12
1.32458e-12
1.19764e-12
1.03417e-12
8.52426e-13
6.71363e-13
4.93579e-13
3.29196e-13
1.75181e-13
3.98524e-14
-5.7383e-14
-7.77679e-14
2.57349e-13
3.78495e-13
5.53522e-13
7.59696e-13
9.50766e-13
1.11257e-12
1.21779e-12
1.28236e-12
1.29734e-12
1.26596e-12
1.18518e-12
1.06862e-12
9.36263e-13
7.92472e-13
6.53562e-13
5.13129e-13
3.91101e-13
2.83707e-13
2.13489e-13
1.97936e-13
4.17949e-13
4.94758e-13
6.12405e-13
7.51398e-13
9.07616e-13
1.03653e-12
1.15008e-12
1.2281e-12
1.2782e-12
1.2769e-12
1.23119e-12
1.1507e-12
1.04449e-12
9.30638e-13
7.99143e-13
6.76633e-13
5.52923e-13
4.60413e-13
3.9529e-13
3.82569e-13
5.27477e-13
5.86763e-13
6.65713e-13
7.81296e-13
9.00798e-13
1.03268e-12
1.14454e-12
1.24935e-12
1.31002e-12
1.3316e-12
1.30323e-12
1.23955e-12
1.15463e-12
1.0417e-12
9.22825e-13
7.85813e-13
6.7073e-13
5.67047e-13
5.11791e-13
4.97931e-13
5.96605e-13
6.49914e-13
7.26448e-13
8.17867e-13
9.40342e-13
1.06047e-12
1.19186e-12
1.28945e-12
1.36284e-12
1.38133e-12
1.36145e-12
1.30603e-12
1.21949e-12
1.11654e-12
9.82244e-13
8.52988e-13
7.1939e-13
6.29853e-13
5.71578e-13
5.68738e-13
6.46048e-13
7.06499e-13
7.84101e-13
8.8833e-13
9.98878e-13
1.13144e-12
1.24125e-12
1.34215e-12
1.39149e-12
1.40811e-12
1.37723e-12
1.31557e-12
1.22777e-12
1.10727e-12
9.80954e-13
8.37189e-13
7.23796e-13
6.32308e-13
6.02376e-13
6.04519e-13
7.01334e-13
7.77308e-13
8.7336e-13
9.76131e-13
1.09633e-12
1.20133e-12
1.30536e-12
1.36713e-12
1.405e-12
1.39038e-12
1.34665e-12
1.26897e-12
1.16431e-12
1.04327e-12
9.02998e-13
7.83668e-13
6.74455e-13
6.23441e-13
6.08847e-13
6.46128e-13
7.80777e-13
8.74166e-13
9.7776e-13
1.08883e-12
1.1868e-12
1.28221e-12
1.34176e-12
1.3858e-12
1.37799e-12
1.34435e-12
1.2692e-12
1.17501e-12
1.05993e-12
9.27703e-13
8.0601e-13
6.93532e-13
6.30215e-13
5.99157e-13
6.33104e-13
6.92851e-13
8.65122e-13
9.79396e-13
1.08678e-12
1.1861e-12
1.27453e-12
1.33182e-12
1.37391e-12
1.36956e-12
1.34061e-12
1.2645e-12
1.17265e-12
1.0572e-12
9.34799e-13
8.1148e-13
6.97386e-13
6.24113e-13
5.82786e-13
6.0232e-13
6.56342e-13
7.58627e-13
9.43996e-13
1.06171e-12
1.16947e-12
1.25904e-12
1.32225e-12
1.36387e-12
1.36659e-12
1.345e-12
1.27416e-12
1.18369e-12
1.06433e-12
9.45509e-13
8.22485e-13
7.09684e-13
6.23105e-13
5.7057e-13
5.72732e-13
6.10447e-13
7.01489e-13
8.11548e-13
9.9038e-13
1.11422e-12
1.21208e-12
1.28847e-12
1.33616e-12
1.35109e-12
1.33971e-12
1.28556e-12
1.20774e-12
1.0934e-12
9.77682e-13
8.5334e-13
7.45359e-13
6.50815e-13
5.87194e-13
5.67803e-13
5.86564e-13
6.54592e-13
7.4403e-13
8.67998e-13
1.03242e-12
1.13459e-12
1.225e-12
1.282e-12
1.31186e-12
1.31191e-12
1.27891e-12
1.22128e-12
1.12914e-12
1.02767e-12
9.10497e-13
8.07991e-13
7.13115e-13
6.46391e-13
6.07185e-13
6.06964e-13
6.47698e-13
7.141e-13
8.11273e-13
9.1394e-13
1.06774e-12
1.15523e-12
1.21497e-12
1.25763e-12
1.26717e-12
1.25193e-12
1.21295e-12
1.14722e-12
1.07114e-12
9.75171e-13
8.86932e-13
7.96939e-13
7.32527e-13
6.8531e-13
6.71326e-13
6.86752e-13
7.31662e-13
8.01957e-13
8.82384e-13
9.79778e-13
1.11736e-12
1.16601e-12
1.20672e-12
1.21943e-12
1.21809e-12
1.1906e-12
1.14656e-12
1.09003e-12
1.02063e-12
9.52922e-13
8.78456e-13
8.22082e-13
7.7231e-13
7.53981e-13
7.52116e-13
7.79999e-13
8.28335e-13
8.90346e-13
9.67701e-13
1.04237e-12
1.15184e-12
1.18302e-12
1.18741e-12
1.1892e-12
1.16996e-12
1.14121e-12
1.09714e-12
1.04565e-12
9.9379e-13
9.36245e-13
8.89897e-13
8.43881e-13
8.22399e-13
8.12843e-13
8.3009e-13
8.61602e-13
9.11932e-13
9.70496e-13
1.03462e-12
1.10351e-12
1.17122e-12
1.17938e-12
1.17657e-12
1.15979e-12
1.1437e-12
1.11106e-12
1.07318e-12
1.0279e-12
9.79521e-13
9.36134e-13
8.9245e-13
8.6552e-13
8.47159e-13
8.56755e-13
8.7616e-13
9.16729e-13
9.64356e-13
1.01924e-12
1.07639e-12
1.12876e-12
1.15462e-12
1.17025e-12
1.16123e-12
1.15471e-12
1.13639e-12
1.11521e-12
1.07798e-12
1.03436e-12
9.85901e-13
9.364e-13
8.98025e-13
8.65639e-13
8.57859e-13
8.63565e-13
8.93664e-13
9.30411e-13
9.8129e-13
1.03136e-12
1.07832e-12
1.12476e-12
1.12806e-12
1.14868e-12
1.16224e-12
1.16355e-12
1.16188e-12
1.14272e-12
1.11008e-12
1.0596e-12
1.00028e-12
9.43231e-13
8.90461e-13
8.5734e-13
8.39045e-13
8.47759e-13
8.70733e-13
9.12196e-13
9.58435e-13
1.00856e-12
1.05211e-12
1.09011e-12
1.1004e-12
1.14511e-12
1.17689e-12
1.20235e-12
1.208e-12
1.19541e-12
1.15557e-12
1.09442e-12
1.01878e-12
9.43171e-13
8.79173e-13
8.29337e-13
8.04947e-13
8.02034e-13
8.25254e-13
8.60697e-13
9.09556e-13
9.60259e-13
1.00744e-12
1.0532e-12
1.0955e-12
1.16127e-12
1.21808e-12
1.25547e-12
1.27112e-12
1.25486e-12
1.20685e-12
1.12936e-12
1.03541e-12
9.42954e-13
8.61643e-13
8.00584e-13
7.61463e-13
7.5201e-13
7.66336e-13
8.03039e-13
8.53568e-13
9.11248e-13
9.69649e-13
1.02993e-12
)
;

boundaryField
{
    movingWall
    {
        type            zeroGradient;
    }
    fixedWalls
    {
        type            zeroGradient;
    }
    left
    {
        type            cyclic;
    }
    right
    {
        type            cyclic;
    }
    frontAndBack
    {
        type            empty;
    }
}


// ************************************************************************* //
