/*--------------------------------*- C++ -*----------------------------------*\
  =========                 |
  \\      /  F ield         | OpenFOAM: The Open Source CFD Toolbox
   \\    /   O peration     | Website:  https://openfoam.org
    \\  /    A nd           | Version:  8
     \\/     M anipulation  |
\*---------------------------------------------------------------------------*/
FoamFile
{
    version     2.0;
    format      ascii;
    class       surfaceScalarField;
    location    "1.39";
    object      phi;
}
// * * * * * * * * * * * * * * * * * * * * * * * * * * * * * * * * * * * * * //

dimensions      [0 3 -1 0 0 0 0];

internalField   nonuniform List<scalar> 
760
(
1.24948e-06
1.3215e-18
1.24948e-06
5.00558e-19
1.24948e-06
-5.01323e-19
1.24948e-06
-1.5326e-18
1.24948e-06
-2.19164e-18
1.24948e-06
-2.58819e-18
1.24948e-06
-2.56912e-18
1.24948e-06
-2.31574e-18
1.24948e-06
-1.83246e-18
1.24948e-06
-1.22806e-18
1.24948e-06
-5.32459e-19
1.24948e-06
1.72786e-19
1.24948e-06
7.81045e-19
1.24948e-06
1.29336e-18
1.24948e-06
1.60838e-18
1.24948e-06
1.83429e-18
1.24948e-06
1.91433e-18
1.24948e-06
1.98028e-18
1.24948e-06
2.0128e-18
1.83617e-18
3.74844e-06
3.77665e-19
3.74844e-06
-2.61307e-18
3.74844e-06
-5.68073e-18
3.74844e-06
-8.1026e-18
3.74844e-06
-9.58648e-18
3.74844e-06
-9.74811e-18
3.74844e-06
-8.88261e-18
3.74844e-06
-7.01079e-18
3.74844e-06
-4.55796e-18
3.74844e-06
-1.67304e-18
3.74844e-06
1.2656e-18
3.74844e-06
3.95943e-18
3.74844e-06
6.18867e-18
3.74844e-06
7.64104e-18
3.74844e-06
8.39257e-18
3.74844e-06
8.26418e-18
3.74844e-06
7.59529e-18
3.74844e-06
6.37432e-18
3.74844e-06
4.86761e-18
2.89264e-18
6.24745e-06
-5.61491e-18
6.24745e-06
-1.17821e-17
6.24745e-06
-1.7131e-17
6.24745e-06
-2.08546e-17
6.24745e-06
-2.21278e-17
6.24745e-06
-2.1062e-17
6.24745e-06
-1.76119e-17
6.24745e-06
-1.25099e-17
6.24745e-06
-6.09623e-18
6.24745e-06
7.67973e-19
6.24745e-06
7.48767e-18
6.24745e-06
1.3342e-17
6.24745e-06
1.76939e-17
6.24745e-06
2.02907e-17
6.24745e-06
2.07416e-17
6.24745e-06
1.93676e-17
6.24745e-06
1.6141e-17
6.24745e-06
1.17865e-17
6.24745e-06
6.47587e-18
6.59482e-19
8.74652e-06
-1.60343e-17
8.74652e-06
-2.58873e-17
8.74652e-06
-3.35593e-17
8.74652e-06
-3.78187e-17
8.74652e-06
-3.82577e-17
8.74652e-06
-3.45287e-17
8.74652e-06
-2.74324e-17
8.74652e-06
-1.74287e-17
8.74652e-06
-5.86345e-18
8.74652e-06
6.32159e-18
8.74652e-06
1.77289e-17
8.74652e-06
2.72688e-17
8.74652e-06
3.4048e-17
8.74652e-06
3.72876e-17
8.74652e-06
3.69993e-17
8.74652e-06
3.30022e-17
8.74652e-06
2.61352e-17
8.74652e-06
1.67965e-17
8.74652e-06
6.22096e-18
-5.03486e-18
1.12457e-05
-2.85494e-17
1.12457e-05
-4.1936e-17
1.12457e-05
-5.1356e-17
1.12457e-05
-5.58536e-17
1.12457e-05
-5.45548e-17
1.12457e-05
-4.79021e-17
1.12457e-05
-3.62541e-17
1.12457e-05
-2.11848e-17
1.12457e-05
-3.86936e-18
1.12457e-05
1.36612e-17
1.12457e-05
2.98484e-17
1.12457e-05
4.29787e-17
1.12457e-05
5.17398e-17
1.12457e-05
5.54524e-17
1.12457e-05
5.35836e-17
1.12457e-05
4.67285e-17
1.12457e-05
3.5257e-17
1.12457e-05
2.07107e-17
1.12457e-05
4.15028e-18
-1.26862e-17
1.37449e-05
-4.00359e-17
1.37449e-05
-5.60057e-17
1.37449e-05
-6.66509e-17
1.37449e-05
-7.06895e-17
1.37449e-05
-6.78453e-17
1.37449e-05
-5.8075e-17
1.37449e-05
-4.27201e-17
1.37449e-05
-2.29376e-17
1.37449e-05
-1.06568e-18
1.37449e-05
2.10319e-17
1.37449e-05
4.0919e-17
1.37449e-05
5.67463e-17
1.37449e-05
6.69439e-17
1.37449e-05
7.0446e-17
1.37449e-05
6.71899e-17
1.37449e-05
5.72549e-17
1.37449e-05
4.20141e-17
1.37449e-05
2.25907e-17
1.37449e-05
1.23572e-18
-2.03803e-17
1.62443e-05
-4.78081e-17
1.62443e-05
-6.48965e-17
1.62443e-05
-7.57292e-17
1.62443e-05
-7.92219e-17
1.62443e-05
-7.4812e-17
1.62443e-05
-6.3165e-17
1.62443e-05
-4.50848e-17
1.62443e-05
-2.27237e-17
1.62443e-05
2.06132e-18
1.62443e-05
2.64825e-17
1.62443e-05
4.83763e-17
1.62443e-05
6.54115e-17
1.62443e-05
7.59745e-17
1.62443e-05
7.91188e-17
1.62443e-05
7.44057e-17
1.62443e-05
6.26143e-17
1.62443e-05
4.45868e-17
1.62443e-05
2.24587e-17
1.62443e-05
-1.99281e-18
-2.60839e-17
1.87438e-05
-5.02174e-17
1.87438e-05
-6.67375e-17
1.87438e-05
-7.67828e-17
1.87438e-05
-7.9304e-17
1.87438e-05
-7.41409e-17
1.87438e-05
-6.15442e-17
1.87438e-05
-4.30195e-17
1.87438e-05
-2.00558e-17
1.87438e-05
4.71306e-18
1.87438e-05
2.91578e-17
1.87438e-05
5.05897e-17
1.87438e-05
6.71048e-17
1.87438e-05
7.69833e-17
1.87438e-05
7.92685e-17
1.87438e-05
7.38829e-17
1.87438e-05
6.1162e-17
1.87438e-05
4.26559e-17
1.87438e-05
1.98511e-17
1.87438e-05
-4.69026e-18
-2.89099e-17
2.12435e-05
-4.73369e-17
2.12435e-05
-6.14867e-17
2.12435e-05
-6.97286e-17
2.12435e-05
-7.11839e-17
2.12435e-05
-6.56159e-17
2.12435e-05
-5.36697e-17
2.12435e-05
-3.62784e-17
2.12435e-05
-1.54448e-17
2.12435e-05
7.06094e-18
2.12435e-05
2.86985e-17
2.12435e-05
4.76157e-17
2.12435e-05
6.17469e-17
2.12435e-05
6.98655e-17
2.12435e-05
7.11399e-17
2.12435e-05
6.54094e-17
2.12435e-05
5.33732e-17
2.12435e-05
3.60125e-17
2.12435e-05
1.53089e-17
2.12435e-05
-7.02546e-18
-2.85017e-17
2.37434e-05
-4.02112e-17
2.37434e-05
-5.08294e-17
2.37434e-05
-5.64501e-17
2.37434e-05
-5.66103e-17
2.37434e-05
-5.12263e-17
2.37434e-05
-4.07225e-17
2.37434e-05
-2.62564e-17
2.37434e-05
-9.06955e-18
2.37434e-05
8.85414e-18
2.37434e-05
2.60112e-17
2.37434e-05
4.04509e-17
2.37434e-05
5.10138e-17
2.37434e-05
5.65098e-17
2.37434e-05
5.65217e-17
2.37434e-05
5.10187e-17
2.37434e-05
4.0471e-17
2.37434e-05
2.60621e-17
2.37434e-05
9.00727e-18
2.37434e-05
-8.76634e-18
-2.58148e-17
2.62434e-05
-3.10069e-17
2.62434e-05
-3.72636e-17
2.62434e-05
-4.00012e-17
2.62434e-05
-3.87904e-17
2.62434e-05
-3.37797e-17
2.62434e-05
-2.54263e-17
2.62434e-05
-1.4476e-17
2.62434e-05
-2.17149e-18
2.62434e-05
1.04351e-17
2.62434e-05
2.18513e-17
2.62434e-05
3.1213e-17
2.62434e-05
3.73861e-17
2.62434e-05
3.99977e-17
2.62434e-05
3.86548e-17
2.62434e-05
3.35735e-17
2.62434e-05
2.5218e-17
2.62434e-05
1.43403e-17
2.62434e-05
2.1702e-18
2.62434e-05
-1.03098e-17
-2.16471e-17
2.87435e-05
-2.14817e-17
2.87435e-05
-2.374e-17
2.87435e-05
-2.3593e-17
2.87435e-05
-2.12364e-17
2.87435e-05
-1.67258e-17
2.87435e-05
-1.05484e-17
2.87435e-05
-3.32104e-18
2.87435e-05
4.30527e-18
2.87435e-05
1.13986e-17
2.87435e-05
1.74518e-17
2.87435e-05
2.16437e-17
2.87435e-05
2.38185e-17
2.87435e-05
2.35674e-17
2.87435e-05
2.11096e-17
2.87435e-05
1.65476e-17
2.87435e-05
1.03884e-17
2.87435e-05
3.23031e-18
2.87435e-05
-4.28561e-18
2.87435e-05
-1.12798e-17
-1.72826e-17
3.12438e-05
-1.33704e-17
3.12438e-05
-1.22515e-17
3.12438e-05
-1.00772e-17
3.12438e-05
-6.80738e-18
3.12438e-05
-2.94567e-18
3.12438e-05
1.27697e-18
3.12438e-05
5.39408e-18
3.12438e-05
8.96034e-18
3.12438e-05
1.171e-17
3.12438e-05
1.3202e-17
3.12438e-05
1.34911e-17
3.12438e-05
1.23247e-17
3.12438e-05
1.007e-17
3.12438e-05
6.7428e-18
3.12438e-05
2.84502e-18
3.12438e-05
-1.38012e-18
3.12438e-05
-5.46065e-18
3.12438e-05
-8.97497e-18
3.12438e-05
-1.16552e-17
-1.31023e-17
3.37443e-05
-7.20494e-18
3.37443e-05
-4.24361e-18
3.37443e-05
-7.80318e-19
3.37443e-05
2.64937e-18
3.37443e-05
5.90813e-18
3.37443e-05
8.52375e-18
3.37443e-05
1.03459e-17
3.37443e-05
1.11705e-17
3.37443e-05
1.08711e-17
3.37443e-05
9.5847e-18
3.37443e-05
7.2578e-18
3.37443e-05
4.3226e-18
3.37443e-05
8.38633e-19
3.37443e-05
-2.61781e-18
3.37443e-05
-5.911e-18
3.37443e-05
-8.56649e-18
3.37443e-05
-1.04154e-17
3.37443e-05
-1.12378e-17
3.37443e-05
-1.09192e-17
-9.58262e-18
3.62449e-05
-3.26483e-18
3.62449e-05
3.99697e-19
3.62449e-05
3.88625e-18
3.62449e-05
7.09454e-18
3.62449e-05
9.49044e-18
3.62449e-05
1.10153e-17
3.62449e-05
1.14075e-17
3.62449e-05
1.07079e-17
3.62449e-05
9.00814e-18
3.62449e-05
6.39812e-18
3.62449e-05
3.25503e-18
3.62449e-05
-3.09177e-19
3.62449e-05
-3.75492e-18
3.62449e-05
-6.95807e-18
3.62449e-05
-9.40073e-18
3.62449e-05
-1.10013e-17
3.62449e-05
-1.14751e-17
3.62449e-05
-1.08403e-17
3.62449e-05
-9.15437e-18
-6.49189e-18
3.87457e-05
-9.603e-19
3.87457e-05
2.09809e-18
3.87457e-05
5.02993e-18
3.87457e-05
7.35323e-18
3.87457e-05
9.02199e-18
3.87457e-05
9.69428e-18
3.87457e-05
9.46227e-18
3.87457e-05
8.28541e-18
3.87457e-05
6.32714e-18
3.87457e-05
3.82072e-18
3.87457e-05
9.03472e-19
3.87457e-05
-2.02166e-18
3.87457e-05
-4.86011e-18
3.87457e-05
-7.15305e-18
3.87457e-05
-8.86756e-18
3.87457e-05
-9.64077e-18
3.87457e-05
-9.52886e-18
3.87457e-05
-8.44548e-18
3.87457e-05
-6.52841e-18
-3.98259e-18
4.12465e-05
2.80557e-20
4.12465e-05
2.09753e-18
4.12465e-05
3.89282e-18
4.12465e-05
5.3544e-18
4.12465e-05
6.1858e-18
4.12465e-05
6.4474e-18
4.12465e-05
6.00575e-18
4.12465e-05
5.01569e-18
4.12465e-05
3.56132e-18
4.12465e-05
1.77151e-18
4.12465e-05
-1.12758e-19
4.12465e-05
-2.05147e-18
4.12465e-05
-3.73089e-18
4.12465e-05
-5.14817e-18
4.12465e-05
-6.01342e-18
4.12465e-05
-6.37382e-18
4.12465e-05
-6.04715e-18
4.12465e-05
-5.16505e-18
4.12465e-05
-3.75493e-18
-1.95623e-18
4.37475e-05
3.18176e-19
4.37475e-05
1.23736e-18
4.37475e-05
2.11069e-18
4.37475e-05
2.68162e-18
4.37475e-05
3.02696e-18
4.37475e-05
3.00465e-18
4.37475e-05
2.70805e-18
4.37475e-05
2.12386e-18
4.37475e-05
1.36534e-18
4.37475e-05
5.1353e-19
4.37475e-05
-4.02347e-19
4.37475e-05
-1.226e-18
4.37475e-05
-1.99373e-18
4.37475e-05
-2.53365e-18
4.37475e-05
-2.90055e-18
4.37475e-05
-2.93441e-18
4.37475e-05
-2.72263e-18
4.37475e-05
-2.21521e-18
4.37475e-05
-1.49802e-18
-6.55161e-19
4.62484e-05
1.62753e-19
4.62484e-05
4.12566e-19
4.62484e-05
6.01708e-19
4.62484e-05
7.52931e-19
4.62484e-05
7.86962e-19
4.62484e-05
7.56273e-19
4.62484e-05
6.23499e-19
4.62484e-05
4.41728e-19
4.62484e-05
2.23358e-19
4.62484e-05
-5.85811e-21
4.62484e-05
-2.16214e-19
4.62484e-05
-4.24207e-19
4.62484e-05
-5.67556e-19
4.62484e-05
-6.88621e-19
4.62484e-05
-7.17677e-19
4.62484e-05
-7.09123e-19
4.62484e-05
-6.1644e-19
4.62484e-05
-4.68444e-19
4.62484e-05
-2.80877e-19
-6.18925e-20
4.87495e-05
4.87495e-05
4.87495e-05
4.87495e-05
4.87495e-05
4.87495e-05
4.87495e-05
4.87495e-05
4.87495e-05
4.87495e-05
4.87495e-05
4.87495e-05
4.87495e-05
4.87495e-05
4.87495e-05
4.87495e-05
4.87495e-05
4.87495e-05
4.87495e-05
)
;

boundaryField
{
    movingWall
    {
        type            calculated;
        value           uniform 0;
    }
    fixedWalls
    {
        type            calculated;
        value           uniform 0;
    }
    left
    {
        type            cyclic;
        value           nonuniform List<scalar> 
20
(
-3.87457e-05
-3.62449e-05
-3.37443e-05
-3.12438e-05
-2.87435e-05
-2.62434e-05
-2.37434e-05
-2.12435e-05
-1.87438e-05
-1.62443e-05
-1.37449e-05
-1.12457e-05
-8.74652e-06
-6.24745e-06
-3.74844e-06
-1.24948e-06
-4.12465e-05
-4.37475e-05
-4.62484e-05
-4.87495e-05
)
;
    }
    right
    {
        type            cyclic;
        value           nonuniform List<scalar> 
20
(
3.87457e-05
3.62449e-05
3.37443e-05
3.12438e-05
2.87435e-05
2.62434e-05
2.37434e-05
2.12435e-05
1.87438e-05
1.62443e-05
1.37449e-05
1.12457e-05
8.74652e-06
6.24745e-06
3.74844e-06
1.24948e-06
4.12465e-05
4.37475e-05
4.62484e-05
4.87495e-05
)
;
    }
    frontAndBack
    {
        type            empty;
        value           nonuniform List<scalar> 0();
    }
}


// ************************************************************************* //
