/*--------------------------------*- C++ -*----------------------------------*\
  =========                 |
  \\      /  F ield         | OpenFOAM: The Open Source CFD Toolbox
   \\    /   O peration     | Website:  https://openfoam.org
    \\  /    A nd           | Version:  8
     \\/     M anipulation  |
\*---------------------------------------------------------------------------*/
FoamFile
{
    version     2.0;
    format      ascii;
    class       surfaceScalarField;
    location    "97";
    object      phi;
}
// * * * * * * * * * * * * * * * * * * * * * * * * * * * * * * * * * * * * * //

dimensions      [0 3 -1 0 0 0 0];

internalField   nonuniform List<scalar> 
7966
(
0.0134398
-0.000109812
3.36791e-06
0.0134843
-6.1003e-05
1.64587e-05
0.0138492
-0.000357233
-7.68372e-06
0.0141011
-0.000234928
-1.68786e-05
0.0143021
-0.000165132
-3.58808e-05
0.0142297
8.84225e-05
-1.61002e-05
0.0140819
0.000131993
1.58974e-05
0.013837
0.000236494
8.3231e-06
0.0133362
0.000489432
1.14003e-05
0.0131351
0.000208366
-7.28763e-06
0.0130432
0.000100641
-8.68091e-06
0.0129244
0.000114549
4.24314e-06
0.0129768
-3.91065e-05
-1.33306e-05
0.0128345
0.000128433
1.38765e-05
0.0127252
0.000120838
-1.15575e-05
0.0124441
0.000256516
2.45886e-05
0.0122516
0.000248733
-5.61728e-05
0.011757
0.000441246
5.32603e-05
0.0115695
0.000173744
1.38063e-05
-0.000448901
-0.000195344
0.013436
-0.000214942
2.49149e-06
0.013417
-7.77605e-05
3.57342e-05
0.013976
-0.00088814
-2.81072e-05
0.0143402
-0.00055383
-4.53069e-05
0.0144676
-0.000228576
-6.38989e-05
0.0143442
0.000233763
-2.19894e-05
0.014331
0.000131288
1.38745e-05
0.0139383
0.000584565
4.47008e-05
0.0132807
0.00110422
4.27395e-05
0.0132039
0.000278639
6.59009e-06
0.0130382
0.000279603
-1.33163e-05
0.0128839
0.000264135
4.77099e-06
0.0130614
-0.000203739
-1.2858e-05
0.0130513
0.000158508
-1.99544e-05
0.0129784
0.000259556
-6.5859e-05
0.0126148
0.000602538
1.75785e-05
0.0123346
0.00055472
-2.5747e-05
0.0117208
0.000909513
0.00014548
0.0115264
0.000519058
-0.00015094
-0.00075055
-0.000371801
0.0134713
-0.000321069
-3.08449e-05
0.0136461
-0.000441885
0.000189292
0.014467
-0.0015754
-0.000133602
0.0148315
-0.000551536
-0.000366798
0.0148043
1.85449e-05
-0.000219863
0.0147394
0.000425106
-0.000126489
0.0146557
0.000123067
9.19307e-05
0.014227
0.000884297
0.000128979
0.0136474
0.00154038
0.000143381
0.0134097
0.000553225
-3.68346e-05
0.0132622
0.000430044
-2.91444e-06
0.0132849
0.000283607
-4.22173e-05
0.0135652
-0.000316879
-0.000167179
0.0132099
0.000262053
0.000251762
0.0128352
0.000364816
0.000269434
0.0126655
0.000914917
-0.000142687
0.012516
0.000739193
-3.4943e-05
0.0118804
0.00157872
-3.35776e-05
0.0113069
0.00138409
-0.000291531
-0.00102723
-7.23273e-05
0.0138344
-0.000752992
-6.70909e-05
0.0138809
-0.000744295
0.000255839
0.0141749
-0.00192028
5.09331e-05
0.0151501
-0.000928337
-0.000598413
0.0160967
-2.02001e-05
-0.000907854
0.0159621
0.000908121
-0.000348396
0.015161
0.000675102
0.000249014
0.014752
0.00097128
0.000322077
0.0139984
0.00221653
7.74508e-05
0.0131388
0.00147203
-5.92454e-05
0.0129914
0.000963369
-0.000385959
0.0135774
0.000467182
-0.000769565
0.0136784
-0.0010182
0.000600309
0.0136582
-0.000248396
0.000530711
0.0147735
0.000127236
-0.000877715
0.0142511
0.00177268
-0.000335448
0.012573
0.00102474
0.00139259
0.0113839
0.00282563
-5.78015e-05
0.0101948
0.00341238
-0.000839169
-0.00102295
0.000254971
0.0137239
-0.00122156
8.31899e-05
0.0141687
-0.000965327
-0.000223753
0.0154583
-0.00362136
0.000411468
0.0162555
-0.0017405
1.49868e-05
0.017355
0.000465343
-0.00158511
0.0173744
0.00195389
-0.00106518
0.0169846
0.000430954
0.000633985
0.0160518
0.000839555
0.00106449
0.0142997
0.00336762
0.000601012
0.0138103
0.00104312
0.000918299
0.0130313
0.000677163
0.00106526
0.0131458
0.000527837
-0.000175204
0.0158116
-0.001679
-0.00200498
0.0168168
0.000198712
-0.00145226
0.0149867
0.000237493
0.00171985
0.012133
0.00276221
0.00186415
0.0120201
0.000933259
0.00020437
0.0121574
0.00382334
-0.001135
0.00949836
0.00649689
-0.0004255
0.00015719
0.000769255
0.0135377
-0.00215279
0.000738098
0.0149343
-0.00117656
-0.00118533
0.0175933
-0.00483972
-0.00144068
0.0188306
-0.000945427
0.00284051
-0.00233499
-0.000836451
-0.00170149
0.0201913
-0.00116629
0.000536601
0.000203472
-0.000626229
0.00015712
0.0196889
0.0033031
-0.000846752
0.0191845
0.00175967
-0.000824338
0.019293
0.00133137
-0.00060038
0.015698
0.00442256
0.00254005
0.0132769
0.000922659
0.00254163
0.0125852
0.00199139
-0.000622572
0.0134861
-0.000887436
0.000514429
0.0161781
-0.00445448
8.34448e-05
0.0167066
0.00110655
-0.00143633
0.016257
0.00139138
-0.000704272
0.0158495
0.00240182
0.000767867
0.0161837
0.000689004
-8.99148e-05
0.0165139
0.0050853
-0.00159214
0.0125893
0.00921246
0.00120897
0.00201316
0.00180838
0.0139439
-0.003772
0.00102805
0.0159054
-0.000984903
-0.00215314
0.00503801
-0.0026192
-0.00112277
-0.00267208
-0.00240042
-0.00137834
0.00573042
0.00503411
0.00545597
0.00620828
-0.00174971
-0.000365982
-0.00650657
0.00583139
-0.00200178
0.00151067
0.0212661
0.000991506
-0.00020865
0.00180591
0.000740638
0.00181488
-0.00544085
-0.00605656
-0.0055571
-0.00605278
0.023213
0.00299217
-0.00317942
0.0201262
0.00440537
1.28313e-05
0.0148676
0.0084148
0.00126637
0.0150975
0.000259794
0.000432913
0.013719
0.00202012
0.00134979
0.0121351
-0.00211877
0.00281521
0.0147415
-0.00804341
0.000982615
0.0176195
-0.00295938
0.00118788
0.0191972
-0.000433613
0.000247307
0.0199449
0.00391288
-0.00225873
0.0196137
0.0033624
-0.0023422
0.0186312
0.00522623
0.000841525
0.0153356
0.010216
0.00229203
0.00450969
0.000461156
0.0150353
-0.00468245
-0.000768426
0.0052539
-0.00145838
0.000439047
0.00365097
0.00602827
0.00403105
-0.00102154
-0.00235058
-0.000522313
0.00502921
-0.00393482
0.00154031
-0.00160323
0.000924312
0.00183194
-0.00119244
3.94144e-05
-0.00188614
0.000432579
0.00186089
-0.000177963
-0.000229361
-0.00143762
0.00541684
-0.000260266
-0.0011539
-0.00148759
-0.00119771
0.000313896
0.000241696
0.000247278
0.000308881
0.0190922
-0.000168214
0.00169068
-0.00544309
-0.00263829
-0.00553629
-0.00284749
-0.000982184
6.45302e-05
-0.000239741
0.0195816
0.00209931
0.00181669
0.0151459
0.011871
0.000979471
0.0123281
0.00107301
0.00200458
0.0113615
-0.000208255
0.00319499
0.00862821
0.000963073
-0.000348557
0.00985571
-0.00509981
-0.0041711
0.0144451
-0.00367705
-0.00387168
0.0191968
-0.00177245
-0.00341291
0.0201182
0.00595712
-0.00296563
0.0178728
0.00343017
0.00217762
0.0164143
0.00320283
0.00348193
0.0165203
0.0114043
-0.00129431
0.00639114
-0.00152017
0.00491274
-0.00432173
-0.0049268
0.00411636
0.00471754
0.00413818
0.00435501
-0.0018861
0.000985449
0.00177906
-0.000961538
0.000998227
-0.00194373
0.000127982
3.42134e-05
-0.000886948
-0.00060878
0.00104623
0.000115966
2.07148e-05
0.000110393
0.0122481
-0.00362706
-0.00505493
0.00015501
-0.000579953
-0.000317901
-0.000723971
0.00886226
0.0138297
0.00142724
0.00207359
0.00442713
0.00343455
0.00108352
0.00111354
-0.000331729
0.00162053
0.00621505
-0.00578899
0.00437621
-0.00523102
-0.00262447
0.00792157
-0.00494836
-0.00227405
0.0145326
-0.00600311
-0.00238038
0.018663
0.000906864
0.00091992
0.0177863
0.00229658
0.00201022
0.0167524
0.00452982
-0.000293064
0.0169005
0.0128995
-0.00164329
0.00716199
-0.000552479
0.00281361
0.00355249
-0.00289387
0.0005938
0.00526871
-0.000370465
0.00171305
-0.00143355
0.00299445
-6.55517e-05
-0.000120353
0.000218744
-0.000493178
0.000921875
0.00053882
-0.0014607
0.000167917
6.0459e-05
-9.77916e-06
-0.000265725
4.71284e-05
0.00890698
-0.00545484
-0.00493394
-0.000595887
-0.00054589
-0.000687909
-0.000315582
0.00340479
0.0156146
0.00371728
-0.000932372
0.00570859
0.00305571
0.00121316
-0.000611013
-0.000420981
0.00473186
0.0025869
0.00010946
0.00617516
-0.00988673
0.00321242
0.00687749
-0.008854
0.0032033
0.0103933
-0.0116208
0.00210193
0.0141664
-0.0058206
0.00295428
0.0151728
0.00306985
-0.0017796
0.0153102
0.00739265
-0.00300023
0.0152556
0.012201
0.000753139
0.00596044
0.00118864
0.00497428
0.00461596
-0.0103185
0.00647839
0.00506995
0.0060184
0.001773
0.00035461
0.00129256
0.000335421
0.000404878
0.000542546
0.000271266
0.000155401
-1.06414e-05
-0.000115914
-2.88455e-05
0.00362985
-0.005776
-0.00111773
-0.00081187
-0.000615873
-0.000229158
-0.000534057
0.00241768
0.0123707
0.00445603
0.00302353
0.00227408
0.00282866
0.0064637
-0.00430946
0.000258284
0.0123971
-0.00564358
0.00229704
0.0150544
-0.0131063
0.000562309
0.0142193
-0.00790034
-0.000118566
0.0114202
-0.00810842
-0.000713247
0.0117134
-0.00732493
0.00121109
0.0140895
0.000695976
-2.20391e-06
0.0143966
0.0069533
0.00013222
0.0132921
0.0111377
0.00216781
0.0054036
0.00111981
0.00520396
0.00235446
-0.000114044
0.00243621
0.004067
0.00398711
-0.00289639
0.00466158
0.00300627
0.000432501
-0.000652707
-0.000385564
0.0014313
-0.000393027
8.78278e-05
-2.35723e-05
0.00013662
0.000244654
-0.000576384
7.19983e-05
8.93915e-05
7.83923e-05
-4.53953e-05
-2.12581e-05
-4.22747e-05
0.00266441
-0.006148
0.0008907
-0.000338624
-0.00187518
0.00028203
-0.00125133
0.00752298
0.00520786
0.00230426
0.0135714
-0.00272243
-0.0010519
0.016235
-0.00713257
0.000159511
0.0161546
-0.00741466
0.00185146
0.0154197
-0.01135
-0.0010214
0.0180589
-0.00762381
-0.00291569
0.0186652
-0.00477386
-0.00394086
0.0163903
-0.00464943
-0.000400611
0.0156101
-0.000982359
0.00245851
0.0151692
0.00453051
0.00286371
0.0134963
0.0110898
0.00172074
0.00694824
-0.000661618
0.0124146
0.00205137
0.00124493
0.00207909
0.00777816
0.00390658
-0.00319597
-0.00417717
-0.00250288
-0.00160772
0.00353478
0.00259603
0.00400371
-0.00228906
0.00555798
-2.74105e-05
-0.00112916
-0.00207561
-0.00132073
0.000946461
0.000751241
0.0008034
0.000861971
3.06436e-05
1.96035e-05
-5.02471e-05
0.0179973
-0.00267747
-0.00263187
-9.19478e-05
0.00113958
2.24477e-05
0.000867237
-0.00197076
-0.00504429
-0.00217132
-0.00543891
0.0197203
-0.00322446
-0.00464654
0.0209064
0.00379998
0.000221801
0.0193901
-0.00414478
0.00293861
0.0216739
-0.0083227
-0.00109361
0.020923
-0.00581759
-0.000846171
0.0134934
-0.0064188
0.00249836
0.0118201
-0.00645343
0.000502888
0.0180368
-0.00770522
-0.00328538
0.0222016
-0.00420486
-0.00460936
0.0207546
0.000739121
-0.000274492
0.0169043
0.00452095
0.00385993
0.014207
0.0118241
0.00196291
0.00700472
-0.0004513
0.0136158
0.000924995
0.000863375
0.0154948
0.00600821
-0.000109089
0.00515384
0.00619788
0.000804707
-0.00384465
-0.00316551
-0.00369857
-0.00213831
0.00538399
0.00523122
0.00557021
-0.00106375
0.00598887
0.00208874
0.000949963
-0.000931037
-0.00100645
-0.000872493
-0.000328375
-0.0067269
0.00655675
0.00048796
0.000860324
-0.000302158
-0.000287109
-0.000260497
0.0233192
0.00103857
-0.00146118
0.000211878
-0.000349725
0.000220332
-0.000235758
-0.0060941
-0.00515151
-0.00624436
-0.00525331
0.0215268
-0.00132678
0.000441662
0.0179784
-0.00109392
0.00141789
0.0223319
0.00305552
-0.00360905
0.0219601
-0.00269469
-0.00107828
0.0172817
-0.00568362
0.00203936
0.0165367
-0.00429
-0.000782653
0.0153317
-0.00378718
-0.00142663
0.0115833
-0.00354378
0.00083874
0.00933373
-0.00783074
0.00237513
0.0105125
-0.0047732
-0.000610396
0.0103597
0.00281268
-0.00192081
0.00821913
0.0054438
0.00121774
0.010144
0.00941371
0.000485584
0.00490963
-0.000854258
0.0137946
0.000555287
-8.03295e-05
0.0159655
0.00398941
-0.000152067
0.0174139
0.0038062
0.000943242
0.0180074
0.00167407
0.00117133
-0.00104875
-0.000643896
-0.00123989
-0.000506317
0.0184267
-0.000410243
-0.00225009
0.00031591
0.000838242
0.000367055
0.000719793
0.0194346
-0.000198876
0.00022954
0.0186024
-0.000115136
-0.00037944
0.0186279
-0.000891713
-0.000227742
0.0193901
0.000817301
0.00147606
0.0176001
-0.00123603
0.000331359
0.0159074
-0.00357994
-0.000411042
0.0153339
-0.00399915
0.000282719
0.0149796
-0.00355656
0.0001236
0.0137687
-0.00261606
0.00028319
0.0107255
-0.00455337
-0.000234108
0.00790487
-0.00192471
-2.78969e-05
0.0077686
0.00317287
-0.000223926
0.00892776
0.00442976
-0.000145121
0.0128996
0.00667918
-0.00123734
0.00321888
-0.00097933
0.0136876
6.4838e-05
0.000141333
0.0152799
0.0020434
0.000353744
0.0167578
0.00274989
-0.000421624
0.0167953
0.00241812
-0.000781491
0.0159572
5.3118e-05
0.000374742
0.016776
-0.00134638
0.000328675
0.0174394
-3.61705e-05
-0.000742324
0.0168972
-0.000257825
-9.17122e-05
0.0168138
1.82581e-05
0.000882412
0.0157342
-0.00100617
0.000849761
0.0146153
-0.00197099
-0.000490091
0.0136333
-0.00233658
-0.000680558
0.0132845
-0.00269844
-0.000509331
0.0135653
-0.00261958
-0.000277189
0.0123197
-0.00348786
0.000179996
0.0104496
0.000416034
-0.000470641
0.00965987
0.0038511
0.000111536
0.0109282
0.00329815
-0.000136711
0.0145908
0.00379866
-0.000782101
0.0017655
-2.70084e-05
0.013362
1.74032e-06
3.64611e-05
0.0140992
0.0013753
-6.90977e-05
0.0152183
0.0017764
-0.000145643
0.0160546
0.00146157
0.000120224
0.0157281
0.000333243
4.64467e-05
0.0155382
-0.000628482
-0.000527992
0.0156507
-9.9114e-05
-4.96352e-05
0.0154284
-0.000656801
0.000621336
0.0158029
-0.000506076
0.000149796
0.0155848
-0.000595888
-0.000192173
0.0148245
-0.00129723
8.65671e-05
0.0138586
-0.00149966
0.000128963
0.0126536
-0.00172712
0.000233639
0.0113915
-0.00149466
0.000137179
0.0101595
-0.00241864
0.000162826
0.0103382
0.000126319
0.000111019
0.0116122
0.0025754
1.68405e-06
0.0128982
0.00207654
-6.44058e-05
0.0144009
0.00208082
0.000215135
0.000955371
0.000210184
0.0134388
-2.04561e-05
-8.23088e-05
0.0138835
0.000875305
5.53398e-05
0.0146493
0.000861003
0.00014957
0.0152922
0.000872237
-5.35412e-05
0.0154454
0.000309744
-0.000129679
0.0151557
-0.000260907
-7.79291e-05
0.0149557
-3.09043e-05
0.000131821
0.0146947
-0.000548267
0.000152494
0.0145252
-0.000406791
7.01636e-05
0.0143849
-0.000516504
6.09814e-05
0.0138505
-0.000699516
-6.3373e-05
0.0133113
-0.000926553
-3.39106e-05
0.0129444
-0.00134947
-1.0754e-05
0.0124695
-0.0010148
-4.9536e-06
0.0112664
-0.00113452
-8.09686e-05
0.011218
0.000193044
-1.83424e-05
0.0123066
0.00131393
0.000172848
0.0129881
0.00122176
0.000173244
0.013576
0.0013282
0.000164802
0.000605044
9.06019e-05
0.013351
2.42713e-05
-6.23523e-05
0.0137655
0.000369397
9.14105e-05
0.0142053
0.000414295
6.8915e-06
0.014694
0.000386817
-3.26819e-06
0.0148735
0.000158949
-2.87628e-05
0.0147422
-9.78157e-05
-3.17394e-05
0.0146794
-2.87261e-05
6.06338e-05
0.0143911
-0.000256685
-3.35323e-06
0.0142345
-0.000230267
-1.99115e-05
0.0139721
-0.000271939
1.78617e-05
0.0136547
-0.000374962
-7.11739e-06
0.0131055
-0.000359944
-1.74666e-05
0.0122898
-0.000551954
1.82218e-05
0.0117231
-0.000455155
6.98639e-06
0.0111733
-0.000584038
-6.73711e-07
0.0112748
3.02826e-05
6.12979e-05
0.0119492
0.000573993
6.55844e-05
0.0126256
0.00051311
3.22052e-05
0.0133547
0.000555955
4.3165e-05
0.000268908
3.15211e-05
0.0133853
-2.76457e-05
0.0137063
4.83908e-05
0.0141279
-7.29591e-06
0.0145177
-3.04353e-06
0.0146771
-4.77954e-07
0.0145842
-4.91092e-06
0.0145425
1.30193e-05
0.0142905
-4.6897e-06
0.0140581
2.10715e-06
0.0137782
7.99187e-06
0.0134068
-3.53434e-06
0.0130396
7.1989e-06
0.0124775
1.01288e-05
0.012028
-5.58635e-06
0.0114491
-5.19255e-06
0.0114493
3.00699e-05
0.0120047
1.8603e-05
0.0125127
5.10581e-06
0.0130537
1.4938e-05
1.25885e-05
0.0134405
-0.000107316
3.49498e-06
0.0134814
-4.12249e-05
1.67525e-05
0.0138456
-0.000363601
-8.19348e-06
0.0141014
-0.00025548
-1.72779e-05
0.014305
-0.000202869
-3.6591e-05
0.0142323
7.449e-05
-1.78669e-05
0.0140812
0.000152092
1.48736e-05
0.0138368
0.000245452
7.27673e-06
0.0133371
0.000500127
1.09456e-05
0.0131348
0.000203218
-8.21321e-06
0.0130425
9.37803e-05
-1.01134e-05
0.012925
0.000117463
4.23312e-06
0.0129781
-4.96232e-05
-1.67903e-05
0.0128353
0.000141638
1.50831e-05
0.0127262
0.000113317
-1.57758e-05
0.0124419
0.000285175
2.3653e-05
0.0122542
0.000196171
-6.45733e-05
0.0117555
0.000493721
5.81657e-05
0.0115502
0.00020593
1.32444e-05
-0.000626639
-0.000216579
0.0134434
-0.000216452
1.52895e-06
0.0134111
-1.31572e-05
3.99467e-05
0.0139581
-0.000906814
-3.18444e-05
0.0143411
-0.000634062
-4.97086e-05
0.0144845
-0.000343036
-6.71238e-05
0.0143514
0.000212309
-2.67361e-05
0.0143164
0.000192257
8.74152e-06
0.0139272
0.00064273
3.66234e-05
0.0132845
0.00114118
4.43688e-05
0.0132027
0.000288476
3.134e-06
0.0130364
0.000263662
-1.69605e-05
0.0128861
0.000265461
7.11706e-06
0.0130669
-0.000228904
-1.43385e-05
0.0130495
0.000158631
-1.96079e-05
0.0129732
0.000204609
-8.08752e-05
0.0126086
0.00065527
1.21284e-05
0.0123761
0.000405382
-2.43651e-06
0.0117623
0.00111785
0.000135115
0.0114537
0.000560749
-0.000197106
-0.00123615
-0.000380236
0.0134898
-0.00036084
-4.22737e-05
0.0136247
-0.0001612
0.000202451
0.0144252
-0.00170216
-0.000138815
0.0148396
-0.00102668
-0.000388525
0.0148435
-0.000332942
-0.000233826
0.0147438
0.000325691
-0.000140237
0.0146054
0.000344052
7.85899e-05
0.0141886
0.00106849
0.000119971
0.0136415
0.00171338
0.000118281
0.0134196
0.000540198
-6.66723e-05
0.0132844
0.000409483
-1.35406e-05
0.013305
0.000283003
-8.03019e-05
0.0135098
-0.000368652
-0.00023229
0.0131945
0.000489336
0.000236444
0.0129686
0.00047377
0.000226132
0.0126412
0.00105976
-0.000219745
0.0123511
0.000742701
-8.22227e-05
0.0116685
0.00188177
-0.000114858
0.0109107
0.00132268
-0.000295685
-0.00159595
1.91354e-05
0.0138069
-0.000796386
-0.000103096
0.0137621
-0.000156797
0.000296166
0.014277
-0.00227645
0.000110344
0.01541
-0.00216998
-0.000588137
0.0161794
-0.00105869
-0.000951464
0.0158747
0.000617497
-0.000335519
0.0149502
0.00138697
0.000130662
0.014566
0.00163869
0.000136028
0.0139958
0.00227907
8.19274e-05
0.0133276
0.00120713
-5.79316e-05
0.0130706
0.000746635
-0.000466128
0.0134484
-9.01996e-05
-0.000774141
0.0138724
-0.000878416
0.000686111
0.0136584
0.000772189
0.000461861
0.0139039
0.000435275
-0.00108477
0.0136569
0.00150637
-0.000535012
0.013228
0.00127807
0.0012861
0.0123029
0.00287314
-0.00012405
0.0104189
0.00330834
-0.000940889
-0.00103848
0.000302598
0.0137062
-0.00113485
5.3886e-05
0.0139148
-0.000275358
-0.00031373
0.0155466
-0.00385252
0.000355686
0.0169211
-0.00368731
0.000157867
0.0177764
-0.00213783
-0.00136125
0.01703
0.00131711
-0.00101844
0.0163907
0.00203978
0.000620468
0.0157076
0.00233996
0.00104636
0.0140423
0.00421501
0.000330296
0.0138798
0.00162039
0.000667579
0.0138507
0.000906834
0.000934115
0.0139902
-7.33542e-05
-0.000331461
0.0152039
-0.00163251
-0.00246466
0.0155369
0.000715335
-0.00172841
0.0151728
0.000548693
0.0019706
0.0133525
0.0028945
0.00229632
0.0123428
0.00262024
-0.000128085
0.0116439
0.00431072
-0.00187372
0.00915377
0.00566074
-0.000287763
0.000330881
0.00111855
0.013657
-0.00153896
0.000829621
0.0147576
-0.00131879
-0.00124245
0.0173214
-0.00587903
-0.00197803
0.0194123
-0.00131807
0.00237256
-0.00152341
-0.00137117
-0.00109755
0.019942
-0.000613571
0.000320562
-0.000359992
-0.000558622
-0.000919307
0.0193773
0.00155507
-0.000520024
0.0189036
0.00239278
-0.000703645
0.0173781
0.00344227
-0.000177172
0.0145553
0.00689936
0.00267844
0.0140131
0.0019233
0.00278097
0.0131756
0.00154273
-0.000420931
0.0143253
-0.000802018
9.33153e-05
0.0173619
-0.00404059
-0.000545054
0.0166737
0.00130821
-0.00134103
0.0151275
0.00208853
-0.000697831
0.0144898
0.00383778
0.000462208
0.0141996
0.00330884
-0.000488295
0.0135033
0.00533122
-0.00191632
0.0100962
0.00915512
0.00112168
0.00320537
0.00169578
0.0140191
-0.00176833
0.000591265
0.0166645
-0.00532172
-0.000795525
0.00512615
-0.00300951
-0.0023198
-0.00169519
-0.00303366
-0.00198759
0.00573153
0.00504221
0.00580851
0.00131911
0.00583173
-0.00149759
-0.00184518
-0.00238815
-0.00601053
0.00568582
-0.000723723
0.00282301
0.0210728
0.000278691
0.000486759
0.00138043
0.000194811
0.0011499
-0.00556638
-0.00602121
-0.00568216
-0.00594726
0.0203865
0.00240258
-0.00250289
0.0183609
0.00664711
-0.00116638
0.015622
0.00988966
0.0010149
0.0159156
0.000947575
0.00111505
0.0144927
0.00282635
0.00148906
0.0141737
0.00128426
0.00104794
0.0169659
-0.00541185
-0.000438347
0.0193758
-0.0012441
0.00133032
0.0197213
0.000739884
0.00125041
0.0178877
0.00518057
-0.00176791
0.0158922
0.00498703
-0.00202488
0.0154689
0.00602311
0.00057296
0.0133307
0.0117849
0.00180045
0.00573548
0.000406238
0.0152193
-0.0039427
-0.000456347
0.00552976
-0.00359491
-0.00202191
0.00367994
0.00515934
0.00354659
0.000325983
-0.00381445
0.0015263
-0.00155306
0.00557667
-0.002
0.000496638
-0.000277507
-0.00159374
0.000432072
0.00177706
-0.000665877
0.000327993
0.000391187
-0.00188892
0.000157667
0.00183884
-0.000128969
-0.000369805
0.000474492
-0.00154352
0.00551321
-0.000780227
-0.00124235
-0.00155514
-0.00127863
0.00016989
0.000166018
0.000192291
0.000162663
0.0203067
0.000160404
-0.000470468
-0.00557939
-0.00299067
-0.00556732
-0.00295823
0.000363946
0.000189289
0.00063899
0.0211916
0.00501702
0.00256189
0.0185309
0.0119067
0.00162312
0.017537
0.00330903
0.000637047
0.0188454
0.00347398
0.00123897
0.0166092
0.00474573
-0.00157381
0.0137807
-0.00494697
-0.00180747
0.0158834
-0.00490946
-0.00230908
0.0192485
-0.00338609
-0.00265204
0.0188031
0.00457941
-0.00191903
0.0168469
0.00578371
0.00333713
0.0167513
0.00477788
0.00482276
0.0166697
0.0106734
-0.000101193
0.00651788
-0.00134796
0.00410826
-0.0043469
-0.00166767
0.00174403
0.00329051
0.00132089
-0.00132005
0.00283053
-0.001961
0.00096387
-0.000390046
0.000833877
-0.00110337
0.00149219
-0.00124819
0.000415539
-0.00188309
-0.000178382
0.000672731
-0.000209277
0.00204021
-2.85567e-05
-0.000207166
-4.60653e-05
0.00912722
-4.53391e-05
-0.00518352
-0.00101537
-0.000677827
-0.0016036
-0.000639462
0.00797237
0.015445
-0.000956232
0.00570159
0.00520416
0.0038102
0.00843641
0.00320876
-0.00280133
0.00525371
0.0044031
-0.00226365
0.00400398
-0.00732928
0.00100756
0.00621712
-0.00771693
-0.00167973
0.011853
-0.00847398
-0.00292841
0.0179111
-0.000511533
-4.72202e-05
0.0197299
0.00428846
0.00168668
0.0192405
0.00408828
0.000885987
0.0185566
0.010715
-0.00100101
0.00729763
-0.000651769
0.00450048
0.00272574
-0.00277445
-0.000358164
0.00330839
-0.00135706
-0.00124876
0.00107233
-0.00121823
-0.000792299
0.00153132
0.00185569
0.00141853
0.0018819
0.00100285
0.000953086
-0.00145769
-0.000498244
-0.000148621
0.000123688
4.88053e-05
2.02136e-05
-0.000210239
0.000166152
0.00168808
-0.00184243
-0.00518213
-0.000149783
0.000321914
-6.74058e-05
0.000252473
0.000142103
0.0177514
0.00295692
-0.00238468
0.00496737
0.00581928
0.00112907
0.000139375
-0.000865346
0.00473413
0.000114999
0.000792506
0.00624733
-0.00894051
0.00331045
0.00675907
-0.00833674
0.00331137
0.00973547
-0.010951
0.00160259
0.0148504
-0.00466004
0.00198786
0.0162398
0.00252294
-0.00140346
0.0154995
0.00474627
-0.00291793
0.0154059
0.0115138
4.79155e-05
0.00705438
0.00113439
0.00403525
0.0019834
-0.00987522
0.00392943
0.00144016
0.00417996
-0.00144631
0.000556975
0.000552293
0.000215888
0.00119346
0.000909911
0.000890544
0.00116249
6.85941e-05
0.000174535
-6.24962e-05
-0.000124553
-5.60799e-05
0.00068182
-0.0020048
-0.0026792
0.000504682
-0.000175586
0.000783823
-7.08865e-05
0.00229849
0.0129846
0.00760609
0.00319927
0.00243169
0.00446355
0.00557271
-0.00329816
0.00132238
0.012356
-0.00534994
0.000978721
0.0150893
-0.011425
0.000313448
0.0136664
-0.00678873
-0.00024368
0.0104282
-0.00734987
-0.00107623
0.0112739
-0.00567361
0.00137893
0.0132735
0.000205449
0.000315762
0.0142886
0.00422981
-0.000366464
0.0150925
0.0111027
0.00177493
0.00692919
0.00121989
0.00290963
0.000393105
-0.000587946
0.00441449
0.0029722
0.0050865
-0.000411969
-0.00147285
0.00329803
0.00146291
3.35053e-05
0.000246012
-0.000732954
-0.000827455
0.00144098
-0.000126584
0.000667674
9.98753e-05
2.43796e-05
-0.000935316
0.000165888
-0.000373889
9.58176e-05
0.000100387
8.93123e-05
1.49971e-05
2.88786e-05
2.1995e-05
-6.3274e-05
-0.00367102
-0.000189634
0.00126023
-0.000200898
0.00141353
0.000336966
0.00720674
0.00610214
0.00191675
0.0135168
-0.00322064
-0.00170963
0.0161907
-0.00601149
0.000198903
0.0171259
-0.0063028
0.00186916
0.0165576
-0.011416
-0.000462004
0.0177359
-0.00766542
-0.00321734
0.0170746
-0.00591099
-0.00471845
0.0148777
-0.00367949
-0.000197828
0.0150089
-0.000736647
0.00326948
0.0161125
0.00242535
0.00356451
0.0155259
0.0110973
0.00231272
0.00761019
-0.000390493
0.013306
0.00151296
0.000176152
0.00276663
0.00635869
0.00274346
-0.00239633
-0.00109384
-0.00276987
-0.000769872
0.00447079
0.00290379
0.00499908
9.31828e-05
-0.00159322
0.00398199
5.22442e-05
-0.00118629
-0.00154036
-0.00111797
0.00103379
0.000989788
0.00102091
0.00103256
0.000210967
0.000235362
-0.000165557
-0.000280771
0.0172317
-0.00312656
-0.00236596
6.60571e-05
0.000608611
-7.69621e-05
0.000375858
-0.00219667
-0.00576596
-0.00169538
-0.0056866
0.0170391
-0.00442932
-0.00369566
0.0203508
0.00337647
-0.00036419
0.0200387
-0.00435753
0.00438754
0.0216474
-0.00829839
-0.000415354
0.0214698
-0.00609203
-0.000879381
0.0162989
-0.00663065
0.00288389
0.0145347
-0.00674266
0.00134433
0.017424
-0.0085509
-0.00353476
0.0190301
-0.00376482
-0.00613011
0.0184781
0.000936608
-0.00139579
0.0171596
0.00360839
0.0039954
0.0152113
0.0125201
0.00248848
0.0076554
-0.000383452
0.0140318
0.00150171
0.000195821
0.0165725
0.00362768
8.12521e-05
0.00542205
0.00616993
0.000422328
-0.00362255
-0.00189775
-0.00344579
-0.00196103
0.00552382
0.00547874
0.00528742
-0.000477581
-0.000724557
0.00615384
0.0015234
0.000123926
-0.000371465
-0.000461863
-0.000343648
6.01843e-05
-0.00109714
-0.00702232
0.0068154
9.61121e-05
0.00082908
0.000110554
7.08941e-05
0.000137235
0.0222824
0.00137168
-0.0016002
0.000203575
-0.000187555
0.000111561
-0.000184795
-0.00625971
-0.0055022
-0.0060032
-0.00569272
0.02108
-0.00144443
-3.81147e-05
0.0199985
-0.00284435
0.000914445
0.0230381
0.00119445
-0.00446663
0.0225578
-0.00314404
-0.00181146
0.0193021
-0.00591239
0.00290908
0.016872
-0.00489319
0.000448584
0.0140033
-0.00322803
-0.00196059
0.011118
-0.00318006
0.000161514
0.010134
-0.00800557
0.00281376
0.0107656
-0.00425464
-0.000752211
0.00942237
0.00326925
-0.0029102
0.00800245
0.0057783
0.000467748
0.0108937
0.00993061
0.000183812
0.00476242
-0.000973102
0.0137579
0.000896425
0.000111505
0.0151501
0.00252439
-0.000440932
0.0179224
0.00381078
0.000530066
0.0190312
0.0032627
0.000963285
-0.00142137
-0.000658896
-0.0014292
-0.000654041
0.0187177
0.000712687
-0.00230338
0.000115789
0.000232539
-0.000571303
-0.000122945
0.0200137
-0.000121065
0.000426357
0.0186795
-0.00044746
-4.22514e-05
0.017417
-0.00127299
-0.000536561
0.0188566
3.24746e-05
0.0011984
0.0176786
-0.00182688
0.000192238
0.0154122
-0.00329832
-0.000758726
0.014747
-0.00384314
-0.000102116
0.0156469
-0.00361534
-0.00038904
0.0154794
-0.00257652
-0.000152875
0.0118607
-0.00482216
0.000201235
0.00833281
-0.00152135
0.00076669
0.00786196
0.00344058
7.56002e-05
0.00912873
0.00447173
-0.000105326
0.013003
0.00601324
-0.00119422
0.00231466
-0.000871325
0.0137366
0.000343929
0.000295682
0.015149
0.00147095
-5.24463e-06
0.0166052
0.00265441
-0.000721379
0.0168648
0.00272429
-0.000502689
0.0164265
0.000496969
0.00102872
0.0168322
-0.000858911
0.000660783
0.016741
-0.000492077
-0.000606492
0.0163409
-0.00095956
-5.03472e-06
0.0166288
-0.000155086
0.000782077
0.0158557
-0.000951585
0.000747607
0.0149318
-0.00211442
-0.000750147
0.0136422
-0.00254041
-0.000693636
0.0127689
-0.00293236
-0.000318988
0.012874
-0.00271874
-0.000240121
0.0118423
-0.00338922
-0.000221213
0.0102117
0.000379238
-0.000740639
0.0100122
0.00361463
0.000136944
0.0114943
0.00298659
-0.000133586
0.0144197
0.0030743
-0.000768561
0.00128548
-4.89399e-07
0.0134146
0.000205582
9.55257e-05
0.0139744
0.00104012
-0.000198101
0.0150546
0.00164573
-0.000217171
0.0160424
0.00160718
0.000249565
0.0159024
0.000554517
0.000128878
0.0155066
-0.000503618
-0.000487435
0.0153488
-0.00033329
-5.06016e-05
0.0152082
-0.000809308
0.000611647
0.0157287
-0.000614483
8.87309e-05
0.0155665
-0.000720529
-0.000261091
0.0147314
-0.00123435
4.15803e-05
0.0137422
-0.00146621
4.40473e-05
0.0126546
-0.00174426
0.00013312
0.0114298
-0.00149707
0.00014029
0.0101963
-0.00233099
0.000338034
0.0103965
3.6642e-05
0.00025345
0.0116997
0.00227195
4.11555e-05
0.0129213
0.00179209
-9.15241e-05
0.0143011
0.00176341
0.000146248
0.000785935
0.00014363
0.0134446
8.06039e-05
-6.79266e-05
0.0138209
0.000698524
2.06078e-05
0.0146144
0.000872841
0.000128971
0.0152992
0.000886892
-1.80707e-05
0.0154661
0.000343405
-8.53965e-05
0.0151468
-0.000214879
-4.7379e-05
0.0149296
-0.000114787
0.000130452
0.0146851
-0.000535669
0.000123385
0.0145165
-0.000401207
2.54848e-05
0.0143944
-0.000561816
2.43391e-05
0.0138635
-0.000681194
-8.56399e-05
0.0133092
-0.000922046
-2.37204e-05
0.0129513
-0.00139467
-2.43716e-06
0.0124828
-0.00100322
-3.02819e-05
0.011276
-0.00110809
-9.7073e-05
0.0112194
8.83883e-05
-1.35406e-05
0.0123044
0.00120996
0.000149803
0.0129598
0.00117898
0.000130959
0.0135229
0.00125506
0.000110068
0.000551372
5.82112e-05
0.0133521
5.50947e-05
-5.55854e-05
0.0137491
0.000311883
8.09851e-05
0.0142034
0.000424166
1.29268e-06
0.0146946
0.000390669
1.80357e-06
0.014872
0.000160354
-2.31641e-05
0.0147413
-8.94303e-05
-2.64675e-05
0.0146774
-4.38292e-05
5.35736e-05
0.0143996
-0.00025284
-8.41841e-06
0.0142365
-0.000234331
-2.3674e-05
0.0139641
-0.000283409
1.18438e-05
0.0136575
-0.000371631
-1.00811e-05
0.0131069
-0.000367352
-2.15682e-05
0.0122794
-0.000563427
1.45423e-05
0.0117233
-0.000449131
9.00208e-06
0.0111819
-0.000576094
8.71837e-06
0.0112687
-1.75086e-06
6.45873e-05
0.0119389
0.000551286
5.4105e-05
0.0126234
0.000506155
2.05158e-05
0.0133523
0.000536317
3.29934e-05
0.000253298
2.60344e-05
0.0133863
-2.55017e-05
0.0137017
4.48035e-05
0.0141269
-8.2406e-06
0.0145169
-2.37651e-06
0.0146755
1.21012e-06
0.0145854
-4.18565e-06
0.0145428
1.17844e-05
0.014291
-5.75675e-06
0.0140589
-1.0674e-07
0.0137776
5.87094e-06
0.0134065
-4.09964e-06
0.0130389
7.50202e-06
0.0124767
8.91727e-06
0.0120279
-5.98837e-06
0.0114514
-4.79612e-06
0.0114486
3.11252e-05
0.0120031
1.54242e-05
0.0125131
1.23095e-06
0.013053
1.13526e-05
1.05183e-05
0.0134421
-0.000105309
0.0134777
-1.87563e-05
0.0138427
-0.000373194
0.0141025
-0.000277117
0.0143087
-0.000242804
0.0142339
5.68958e-05
0.01408
0.000168842
0.0138357
0.000251519
0.0133372