/*--------------------------------*- C++ -*----------------------------------*\
  =========                 |
  \\      /  F ield         | OpenFOAM: The Open Source CFD Toolbox
   \\    /   O peration     | Website:  https://openfoam.org
    \\  /    A nd           | Version:  8
     \\/     M anipulation  |
\*---------------------------------------------------------------------------*/
FoamFile
{
    version     2.0;
    format      ascii;
    class       volScalarField;
    location    "36";
    object      p;
}
// * * * * * * * * * * * * * * * * * * * * * * * * * * * * * * * * * * * * * //

dimensions      [0 2 -2 0 0 0 0];

internalField   nonuniform List<scalar> 
2844
(
-0.0372881
-0.0461487
-0.0651909
-0.0834402
-0.0925406
-0.0832141
-0.0609559
-0.0361025
-0.0094763
0.0133678
0.0255455
0.0329805
0.0377924
0.0410992
0.0441534
0.0453004
0.0437134
0.0398321
0.0313669
0.0109059
-0.029935
-0.0394137
-0.0601423
-0.0851677
-0.0956663
-0.0864057
-0.0627534
-0.0344424
-0.0055687
0.019446
0.0309062
0.0376654
0.0397084
0.0413497
0.0461121
0.049309
0.0484431
0.0454525
0.0350593
0.011225
-0.0180418
-0.0349007
-0.0744943
-0.115935
-0.12945
-0.10737
-0.0742686
-0.0420856
-0.0063724
0.0182319
0.0304483
0.0378617
0.037739
0.0390114
0.0407666
0.0421406
0.0409894
0.037547
0.030394
0.00635772
0.0100496
-0.00827756
-0.0575851
-0.128912
-0.153075
-0.126989
-0.0980518
-0.046756
0.0033039
0.036484
0.0515481
0.0550853
0.0390239
0.033574
0.0414751
0.0484651
0.0496357
0.047569
0.0293455
-0.000777779
0.0419021
0.0181472
-0.0956308
-0.228683
-0.236377
-0.175357
-0.0922069
-0.0643579
0.00881747
0.0111478
0.0165276
0.0391307
0.0168596
0.0105311
0.0244037
0.0298217
-0.000531226
0.00558296
-0.00965385
-0.0198042
0.11593
0.0975821
-0.0686856
-0.289288
-0.366357
-0.268341
-0.223069
-0.123388
-0.00162313
0.0239215
0.0716666
0.0686688
-0.0160985
-0.0166135
0.00188913
0.0222688
0.0152168
-0.00656512
-0.034831
-0.00191446
0.181758
0.210512
-0.247829
-0.518901
-0.537615
-0.352423
-0.118454
-0.25247
-0.0515203
-0.131249
-0.16806
-0.100403
-0.157556
-0.0910931
-0.0494487
-0.0483361
-0.0905386
-0.136672
-0.155215
-0.0290353
0.316627
0.363333
-0.127282
-0.947898
-1.09894
-0.630003
-0.575389
-0.470018
0.00314324
-0.192328
0.0785436
0.0405489
-0.194889
-0.151799
-0.0590001
-0.000457807
-0.0247274
-0.119142
-0.0487888
0.0279296
0.460952
0.556432
0.218727
-0.694263
-0.806785
-0.0512711
-0.140845
0.0782418
-0.146932
-0.157164
-0.165019
-0.113902
-0.0277672
0.0380132
0.03749
0.0489464
0.023196
1.01249
0.913985
1.40964
-0.53674
-0.697254
-0.326314
-0.453425
-0.524061
-0.403337
0.00627879
-0.0954927
0.000817195
-0.00547665
-0.0264962
-0.0654142
-0.0848574
-0.0353245
1.04517
1.05998
-0.565355
-0.321688
-0.514875
-0.59715
-0.63601
-0.273813
0.0486094
0.0501115
-0.0118463
-0.0127336
0.0216045
-0.0123106
-0.030362
-0.0282925
0.456703
0.832674
1.00929
-0.487865
0.0895197
-0.409376
-0.484444
-0.49503
-0.17436
-0.0569428
-0.00757569
-0.038912
-0.0524442
-0.0121742
-0.0568931
-0.0845356
-0.0376408
0.542657
0.525986
0.0646424
-0.642422
-0.200046
0.489298
-0.0799862
-0.409972
-0.289699
-0.0682216
-0.0346882
-0.0625978
-0.0684592
-0.0622082
4.38204e-06
-0.0332149
-0.0491576
-0.0198512
0.196084
0.151142
-0.0839765
-0.680216
-0.833863
-0.346424
-0.127097
0.0162954
0.0336796
-0.119586
-0.0846461
-0.0135562
-0.0649738
-0.141086
-0.162532
-0.151551
-0.103775
-0.0583483
-0.0457738
-0.0147335
0.217358
0.185687
0.0268994
-0.262755
-0.318515
-0.172027
-0.0942226
0.095575
0.00614623
-0.0766833
-0.0633114
-3.23717e-05
-0.0145197
-0.0399337
-0.00679576
-0.0172691
-0.0405792
-0.0241765
-0.0545107
-0.0254089
0.0837496
0.0568519
-0.0375651
-0.158104
-0.183301
-0.126217
-0.0674878
0.030543
0.0301398
0.000577392
0.0251042
0.0373208
0.0014261
-0.0207156
-0.00106498
0.0345129
-0.0100258
-0.0147939
0.0132658
0.0116199
0.0824729
0.072341
0.00646261
-0.061114
-0.110447
-0.0659551
-0.0472003
0.0261138
0.0177093
0.0062065
0.0217681
0.0425685
0.0425571
0.045821
0.0427772
0.031654
0.00999538
0.0091785
0.00425002
0.00131758
0.0369492
0.0193075
-0.0217995
-0.0616187
-0.0803962
-0.0628326
-0.0363716
-0.00228072
0.0145404
0.0155786
0.0307702
0.0474552
0.0507333
0.0560801
0.0629747
0.0635215
0.0447963
0.023166
0.0235822
0.0105689
0.0335462
0.0253123
-0.00254751
-0.0287148
-0.0480843
-0.041043
-0.0270602
0.00209849
0.0172924
0.0236612
0.0366469
0.0528816
0.0594052
0.0678536
0.0712563
0.0621273
0.043824
0.0269843
0.0142782
0.0049771
0.0223987
0.012344
-0.0108173
-0.0316977
-0.0441702
-0.0401372
-0.0256873
-0.00382062
0.0132078
0.0228473
0.036305
0.0495974
0.0567631
0.0640176
0.068227
0.0621095
0.0472844
0.0302011
0.0196724
0.00749115
-0.0372794
-0.0461534
-0.0651998
-0.0834318
-0.0925317
-0.083205
-0.0609512
-0.0360958
-0.00946952
0.0134009
0.0255624
0.0329957
0.0378021
0.0411016
0.0441564
0.0453153
0.0437318
0.0399175
0.0313093
0.0108505
-0.0298932
-0.0394382
-0.0601577
-0.0851671
-0.0956656
-0.0863847
-0.0627529
-0.0343988
-0.00558592
0.0195066
0.030929
0.0376736
0.0397038
0.0413328
0.0461041
0.0494453
0.0482338
0.0453811
0.0351386
0.0111513
-0.0180686
-0.0349992
-0.0745907
-0.115969
-0.129362
-0.107359
-0.0742688
-0.042081
-0.00639136
0.0185493
0.0306196
0.038009
0.0377763
0.0389976
0.0409781
0.0423687
0.0414842
0.0375302
0.0295627
0.00601198
0.0100367
-0.00873653
-0.0580186
-0.129053
-0.153326
-0.126952
-0.0983981
-0.0466792
0.00372279
0.0369908
0.0518574
0.0550515
0.0387045
0.0330243
0.0412532
0.0483442
0.0488674
0.0461219
0.0273426
-0.000673343
0.0420992
0.0168135
-0.0984106
-0.230632
-0.237299
-0.176696
-0.0922657
-0.0658885
0.00935356
0.0106628
0.0181239
0.039067
0.016095
0.0109108
0.0237084
0.0268234
-0.00225227
-0.0013751
-0.0153273
-0.0194833
0.113166
0.0918517
-0.0773256
-0.285602
-0.374857
-0.271169
-0.225448
-0.119479
0.00292381
0.0257531
0.0714974
0.065374
-0.0237597
-0.0192758
0.00519497
0.0231458
0.00840078
-0.0142483
-0.0398262
-0.00212727
0.179833
0.195973
-0.267094
-0.512589
-0.540067
-0.376776
-0.133731
-0.249035
-0.0427428
-0.152949
-0.168938
-0.0916789
-0.165154
-0.0942456
-0.050169
-0.049455
-0.0892214
-0.131772
-0.157445
-0.0307124
0.317743
0.376527
-0.152464
-0.967613
-1.10609
-0.609503
-0.589439
-0.450386
-0.025951
-0.23343
0.0704343
0.024736
-0.205551
-0.155951
-0.0624264
-0.00592869
-0.0257734
-0.114888
-0.050759
0.0271227
0.454285
0.561309
0.140188
-0.708624
-0.799195
-0.0659651
-0.16369
0.041003
-0.182283
-0.154238
-0.153705
-0.107406
-0.0236935
0.0353238
0.0354467
0.0468611
0.0215307
0.979236
0.878686
1.47685
-0.552292
-0.707998
-0.359582
-0.493316
-0.553329
-0.41539
0.00995352
-0.109058
0.00304116
-0.00283708
-0.0274724
-0.064651
-0.0803813
-0.0318547
0.993043
0.965404
-0.575363
-0.298229
-0.499594
-0.591683
-0.621506
-0.268556
0.0388701
0.0198214
-0.0300904
-0.0214905
0.0217618
-0.0129897
-0.0319588
-0.0262228
0.429726
0.818209
1.01035
-0.505676
0.0903626
-0.397652
-0.486216
-0.498872
-0.171945
-0.0650437
-0.00862554
-0.053073
-0.0675049
-0.0128706
-0.0594069
-0.0891095
-0.0395361
0.537214
0.519219
0.0177565
-0.666674
-0.257514
0.438857
-0.0869804
-0.417801
-0.304233
-0.0673347
-0.0428336
-0.0666201
-0.0624039
-0.059152
-0.00410256
-0.0366349
-0.0525489
-0.0199675
0.196932
0.149055
-0.092779
-0.701384
-0.888771
-0.349248
-0.148654
0.00193918
0.0265122
-0.123375
-0.104183
-0.0190425
-0.0646231
-0.149426
-0.162072
-0.148949
-0.11367
-0.0683268
-0.0546836
-0.0161886
0.216934
0.184237
0.0353868
-0.243941
-0.35123
-0.174882
-0.0972463
0.0953547
0.00474908
-0.0785334
-0.0658692
0.00317227
-0.0147966
-0.0365075
-0.00712367
-0.0249632
-0.051244
-0.0311157
-0.0650724
-0.0298031
0.0838951
0.0546082
-0.0374784
-0.159136
-0.182318
-0.123617
-0.0687044
0.023979
0.027909
0.000415313
0.0250645
0.0369493
-0.00127784
-0.0213735
0.00145533
0.0280803
-0.0156323
-0.0197053
0.0131979
0.0120322
0.0825538
0.0719302
0.00633787
-0.060266
-0.111522
-0.0675792
-0.0475577
0.0264232
0.0177822
0.00639275
0.0217671
0.0419437
0.0422066
0.0469395
0.0450465
0.0308288
0.00619381
0.00817188
0.00257584
0.000774249
0.036948
0.019068
-0.0219032
-0.0614608
-0.080208
-0.0629165
-0.0362719
-0.00245318
0.0143545
0.0154394
0.0307801
0.0476925
0.0516629
0.0567827
0.0638391
0.0636403
0.045047
0.0235561
0.0238029
0.0106861
0.033559
0.0252832
-0.00256133
-0.0286799
-0.0480803
-0.0411005
-0.0271064
0.00209945
0.0173009
0.0236269
0.0366577
0.0531557
0.0594202
0.0679676
0.0719952
0.0627195
0.043786
0.0269967
0.0143058
0.00496748
0.0224007
0.0123276
-0.0108145
-0.0316793
-0.0441686
-0.0401471
-0.0256823
-0.00382371
0.0132072
0.0228442
0.0362915
0.0496275
0.0568237
0.064182
0.0685803
0.062333
0.047355
0.0302305
0.019687
0.00749385
-0.0372738
-0.0461608
-0.0651922
-0.0834123
-0.0925123
-0.0831934
-0.0609464
-0.0360901
-0.00946148
0.0134766
0.0255996
0.0330216
0.0378167
0.0411001
0.0441543
0.0453472
0.043772
0.0401183
0.0314708
0.0108388
-0.0298697
-0.0394655
-0.06016
-0.0851511
-0.0956503
-0.0862659
-0.0627387
-0.0342914
-0.00558772
0.019696
0.0310129
0.0376857
0.039715
0.0413187
0.0461892
0.0495807
0.0480671
0.0457111
0.0355801
0.0111902
-0.0180846
-0.0350917
-0.0745345
-0.115884
-0.129158
-0.107206
-0.0742862
-0.0420422
-0.00608046
0.0196207
0.0312819
0.0383636
0.0379748
0.038948
0.0409442
0.0426658
0.0423554
0.0387568
0.0298422
0.00575497
0.0100058
-0.00902618
-0.0580673
-0.129121
-0.152971
-0.126231
-0.0982105
-0.0461523
0.00471814
0.0386531
0.0535036
0.0552934
0.0385361
0.0329072
0.0419699
0.0482898
0.0479694
0.0468324
0.0272214
-0.00075925
0.0421025
0.0171941
-0.0985826
-0.230705
-0.238002
-0.175607
-0.0925748
-0.0641582
0.0172778
0.0189441
0.0237385
0.0401175
0.0163138
0.0123889
0.023553
0.0260108
-0.000869601
-0.00159771
-0.0137496
-0.0180796
0.112394
0.0918243
-0.0777872
-0.283572
-0.385207
-0.269649
-0.224804
-0.11434
0.0086047
0.0250199
0.0740042
0.0627564
-0.0205413
-0.0194353
0.00735289
0.0263365
0.00919062
-0.0151887
-0.0422995
-0.00168724
0.179251
0.197708
-0.261171
-0.507879
-0.530832
-0.36475
-0.127143
-0.24163
-0.0285076
-0.109456
-0.150356
-0.0990877
-0.175254
-0.0996225
-0.0504612
-0.050084
-0.095892
-0.134811
-0.152109
-0.0258025
0.321285
0.399155
-0.155742
-0.941146
-1.11733
-0.564545
-0.552093
-0.430858
0.0404758
-0.210812
0.0584043
0.00254115
-0.204546
-0.155381
-0.0594717
-0.00126802
-0.0221606
-0.109748
-0.0467443
0.0272497
0.459468
0.547616
0.0512367
-0.737079
-0.731417
-0.0317811
-0.165869
-0.0154749
-0.200201
-0.133684
-0.139221
-0.102277
-0.0140698
0.0474843
0.0387593
0.0397313
0.0168197
1.00125
0.94428
1.01088
-0.576167
-0.642803
-0.326086
-0.474013
-0.545468
-0.406433
0.0227474
-0.0897816
0.00551469
-0.00422644
-0.0259042
-0.0647298
-0.0777074
-0.0292557
1.01255
1.0172
-0.580015
-0.232335
-0.459295
-0.569065
-0.600644
-0.259675
0.0511334
0.0211254
-0.0358238
-0.0261887
0.0221455
-0.0123265
-0.0301765
-0.0226217
0.447071
0.770942
1.00894
-0.510519
0.112529
-0.361256
-0.47087
-0.48627
-0.17541
-0.0545394
0.00143154
-0.0393916
-0.0652656
-0.0112025
-0.0519782
-0.0908591
-0.0383804
0.526314
0.525682
0.0200579
-0.624278
-0.32851
0.41859
-0.079302
-0.386397
-0.303315
-0.0838343
-0.0549875
-0.0602821
-0.0447672
-0.0473186
-0.00604078
-0.0317621
-0.0450747
-0.0171471
0.195888
0.156253
-0.097359
-0.693137
-0.916493
-0.338953
-0.169057
0.0110682
0.013382
-0.124946
-0.0945511
-0.00887272
-0.0625164
-0.151548
-0.165547
-0.142089
-0.11007
-0.0702762
-0.057371
-0.0164048
0.216412
0.187162
0.0282879
-0.218818
-0.360983
-0.17455
-0.102948
0.0823363
0.00304422
-0.0848101
-0.0606457
0.0144338
-0.013986
-0.0239804
-0.00770931
-0.0304951
-0.0439357
-0.0274147
-0.0678416
-0.0302125
0.0838185
0.055279
-0.036935
-0.154399
-0.178941
-0.119514
-0.0661057
0.0253686
0.028217
0.000198124
0.0247335
0.036439
0.000419691
-0.0187576
0.00182974
0.0240428
-0.0153674
-0.0147446
0.0188134
0.0149707
0.0825902
0.0720189
0.0061459
-0.0586392
-0.110055
-0.0675178
-0.0475926
0.0268151
0.0178577
0.00593462
0.0225945
0.0425296
0.0397273
0.0453162
0.0454927
0.0317297
0.0092029
0.0104888
0.00359335
0.000513559
0.036942
0.0189366
-0.0219599
-0.0610499
-0.0797625
-0.0630403
-0.036154
-0.00244589
0.0144161
0.0153764
0.030183
0.0479377
0.0528469
0.0588943
0.0655452
0.0654098
0.0466584
0.0249542
0.0243088
0.0109028
0.0335721
0.0252645
-0.00256827
-0.0285988
-0.0480308
-0.0411165
-0.0271314
0.00211116
0.0173193
0.0235589
0.036727
0.0537675
0.0594483
0.0687739
0.0739261
0.064792
0.0444553
0.027237
0.0144694
0.00496418
0.0223986
0.0123136
-0.0108062
-0.0316514
-0.0441494
-0.0401503
-0.0256777
-0.00382531
0.0132099
0.0228477
0.0362525
0.0496921
0.0568933
0.0646306
0.0695704
0.0630552
0.047606
0.030331
0.0197049
0.0074993
-0.501392
-0.224193
-1.24704
-0.149404
-0.51766
-0.226175
-1.26183
-1.1526
-0.962929
-1.17921
-0.768523
-1.11214
-0.768459
-0.587125
-0.627582
-0.557388
-0.618193
-0.592423
-0.599007
-0.567399
0.658366
0.703051
0.937891
0.56102
0.596106
0.682734
0.91034
0.78027
0.169524
0.763287
-0.604147
-0.628892
-0.623482
-0.638637
-0.391611
-0.543896
-0.55485
-0.710808
-0.432569
-0.550162
-0.580765
1.31098
1.31123
1.21702
0.928678
1.22669
1.31847
1.08165
1.49327
-0.565586
-0.568043
-0.707537
-0.589102
-0.577955
-0.542209
-0.72
-0.598788
-0.610376
1.17796
0.827396
1.35201
1.03048
1.13392
0.834595
1.38802
1.43722
1.42803
-0.583947
-0.586047
-0.586072
-0.588727
-0.594369
-0.572592
-0.593754
-0.589647
-0.602161
0.927425
0.596522
0.49327
0.832171
0.958762
0.597857
0.501832
0.277657
1.00172
0.257591
-0.590076
-0.639891
-0.590828
-0.638405
-0.491684
-0.644534
-0.123994
-0.495189
-0.500936
-0.650021
-0.141933
-0.829604
-0.00912221
-0.35078
0.0346483
-0.845584
-0.0197652
-0.358923
-0.907293
-1.04605
-0.904244
-1.05685
-0.954523
-0.631408
-0.99798
-0.643398
-0.580149
-0.560326
-0.46583
-0.662649
-0.58317
-0.578734
-0.481886
-0.515925
-0.218267
-1.27759
-0.159187
-0.488311
-0.199927
-1.28693
-1.18626
-0.955557
-1.19458
-0.768708
-1.10975
-0.788588
-0.592659
-0.58096
-0.57569
-0.586881
-0.571678
-0.535091
-0.584912
0.544858
0.633492
0.917988
0.557096
0.506811
0.649514
0.848377
0.756136
0.0638051
0.728052
-0.627188
-0.639368
-0.643169
-0.646774
-0.501358
-0.544404
-0.629443
-0.728147
-0.530856
-0.553655
-0.629688
1.21605
1.33753
1.05782
0.914174
1.15388
1.36118
0.933378
1.10936
-0.569853
-0.589047
-0.748219
-0.602955
-0.664954
-0.570065
-0.753188
-0.610138
-0.693523
1.11945
0.842912
1.38244
1.01187
1.07141
0.856671
1.24575
1.45719
1.45518
-0.588606
-0.584741
-0.609461
-0.590228
-0.587793
-0.580012
-0.610264
-0.586165
-0.58999
0.992947
0.646933
0.501138
0.787195
1.04101
0.663052
0.48029
0.240219
1.02265
0.148718
-0.5954
-0.64156
-0.593487
-0.643647
-0.511413
-0.673882
-0.171059
-0.517744
-0.486466
-0.691313
-0.173585
-0.861318
-0.0405003
-0.379663
0.012316
-0.95246
-0.0457098
-0.410643
-0.889832
-1.05256
-0.864265
-1.05945
-0.999118
-0.639654
-0.983222
-0.628691
-0.572167
-0.585821
-0.489917
-0.636894
-0.588053
-0.582975
-0.504831
-0.440618
-0.149648
-1.28712
-0.154638
-0.416124
-0.114341
-1.29536
-1.19869
-0.89927
-1.20857
-0.799104
-1.10825
-0.809555
-0.571272
-0.52275
-0.595312
-0.542498
-0.584638
-0.505902
-0.612202
0.4963
0.68358
0.836213
0.561075
0.522515
0.720521
0.816739
0.754846
0.0291628
0.861679
-0.638249
-0.651651
-0.626978
-0.64659
-0.549169
-0.564066
-0.617036
-0.704996
-0.48144
-0.534201
-0.556816
1.09503
1.35562
0.949124
0.991569
1.1557
1.36966
1.05964
1.19763
-0.596924
-0.613999
-0.789879
-0.610413
-0.696893
-0.583978
-0.761295
-0.607431
-0.681113
1.0387
0.916623
1.24696
1.007
1.19309
0.917957
1.29587
1.46638
1.50567
-0.578867
-0.564601
-0.58552
-0.583194
-0.549117
-0.577949
-0.584973
-0.57315
-0.548251
0.968096
0.665646
0.439595
0.80582
0.943688
0.679372
0.463226
0.108858
1.12169
0.0591403
-0.585008
-0.637217
-0.566695
-0.635844
-0.460282
-0.696757
-0.163919
-0.504438
-0.454837
-0.693478
-0.15479
-0.968055
-0.0342777
-0.450942
0.0378137
-0.916058
-0.00757078
-0.436633
-0.862805
-1.06643
-0.833379
-1.04585
-0.966682
-0.625233
-0.911804
-0.621859
-0.593398
-0.583285
-0.512065
-0.595299
-0.588079
-0.58133
-0.516737
-0.605361
-0.688765
-0.875696
-0.518514
-0.60598
-0.687016
-0.883877
-0.470003
-0.920097
-0.688315
-0.541619
-0.472748
-0.926069
-0.701333
-1.48259
-1.10117
-1.09567
-0.948932
-1.10536
-1.10639
-1.46555
-1.44685
-1.00057
-1.77006
-1.11296
-1.01478
-1.77625
-1.44053
-0.285227
-0.086263
0.224804
0.203122
-0.108338
0.2137
-0.289482
-0.575815
-0.57463
1.42066
-0.490805
-0.531653
-0.58477
-0.536978
-0.534721
-0.588578
-0.48382
-0.533746
-0.527249
-0.582275
-0.567004
-0.530337
-0.583487
-0.531643
0.609032
1.01511
0.618899
-1.70223
-1.21586
-1.20858
-1.70997
-0.588202
-0.609388
-0.602507
-0.646845
-0.610987
-0.603896
-0.588281
-0.868608
-0.410797
-0.507303
-0.703647
-0.877706
-0.428257
-0.508099
-0.689499
-0.510128
-0.438798
-0.856069
-0.678132
-0.508935
-0.455216
-0.599685
-0.667921
-0.86823
-0.509651
-0.592029
-0.657267
-0.847457
-0.4777
-0.921802
-0.711451
-0.535766
-0.476098
-0.921188
-0.730603
-1.54027
-1.11709
-1.16291
-0.969739
-1.5347
-1.12321
-1.17856
-1.41964
-1.02107
-1.75941
-1.10522
-1.43079
-1.02564
-1.75204
-0.232647
-0.194531
0.215774
0.108389
-0.2287
-0.230668
0.213023
-0.56903
-0.571179
1.39894
-0.55636
-0.559565
-0.604908
-0.558573
-0.540595
-0.559772
-0.606303
-0.547151
-0.55037
-0.588297
-0.577639
-0.542235
-0.559675
-0.590178
0.599417
1.01803
0.589409
-1.61897
-1.15678
-1.63007
-1.15853
-0.611789
-0.617
-0.616305
-0.662252
-0.605733
-0.617781
-0.617351
-0.875807
-0.43633
-0.513464
-0.695667
-0.878483
-0.443282
-0.516504
-0.652535
-0.509145
-0.458599
-0.911798
-0.61845
-0.480923
-0.449576
-0.593176
-0.645837
-0.829553
-0.499608
-0.591919
-0.630653
-0.818286
-0.478052
-0.918449
-0.754227
-0.527449
-0.47282
-0.914957
-0.758731
-1.43139
-1.12305
-1.13383
-0.929517
-1.45725
-1.12328
-1.11562
-1.35992
-1.033
-1.7063
-1.11798
-1.37638
-1.02882
-1.69086
-0.303396
-0.320685
0.262486
0.0383069
-0.295937
-0.340544
0.287781
-0.581389
-0.586668
1.02395
-0.606681
-0.570114
-0.598123
-0.577534
-0.598815
-0.563438
-0.593527
-0.559143
-0.578806
-0.593437
-0.579337
-0.558633
-0.581032
-0.592949
0.603654
1.02833
0.639612
-1.70571
-1.2353
-1.68229
-1.2494
-0.571018
-0.613137
-0.585806
-0.611901
-0.585603
-0.60633
-0.570588
-0.909706
-0.45661
-0.518788
-0.6665
-0.878842
-0.443541
-0.505855
-0.596362
-0.467928
-0.433754
-0.881551
-0.587357
-0.456205
-0.416043
-0.610937
-0.91626
-0.788552
-1.25073
-0.930638
-0.796152
-0.605544
-0.616855
-1.25538
-0.973982
-0.826687
-0.947797
-0.80778
-0.631833
-1.67398
-1.18184
-1.86297
-1.1647
-1.18885
-1.86652
-1.67346
-1.96399
-1.49236
-1.49002
-1.95484
-1.49682
-0.956928
-1.10963
-1.14064
-1.10594
-1.11602
-1.51784
-1.66892
-1.16944
-1.19715
-1.85362
-1.18586
-1.85906
-1.67097
-1.95375
-1.49267
-1.48395
-1.95721
-1.11492
-0.893257
-0.881054
-0.769015
-0.898215
-0.884129
-1.11663
-1.32502
-1.02512
-1.0245
-1.32952
-1.44257
-1.10494
-1.02125
-1.76395
-1.00848
-1.76819
-1.44321
-1.11199
-0.769062
-0.908427
-0.881529
-0.905505
-0.882367
-1.1068
-1.31225
-1.00474
-1.01356
-1.29489
-0.674098
-0.600401
-0.606587
-0.621967
-0.595092
-0.602002
-0.68172
-0.663624
-0.614165
-0.581947
-0.583954
-0.590344
-0.593187
-0.64912
-0.597312
-0.596329
0.426774
0.758166
0.403897
-0.257098
0.192658
-0.161624
0.213545
-0.133878
0.208332
-0.228949
-0.596392
-0.589203
0.762059
0.389672
0.3927
-0.535842
-0.535327
-0.58788
-0.611791
-0.538162
-0.59225
-0.536907
-0.605798
-0.631187
-0.609374
-0.568486
-0.569977
-0.533947
-0.619953
-0.547473
-0.606545
-0.543475
-0.598203
-0.533608
-0.635232
-0.617279
-0.614038
0.828567
1.21484
1.09893
1.22801
1.10395
0.934821
0.985877
0.802206
0.981101
0.609397
1.17112
0.965313
0.47679
0.886389
0.72911
1.22646
1.14157
0.950989
1.12733
0.862381
0.718678
0.74401
1.11543
0.931581
0.516772
0.946025
0.441253
0.729166
1.45341
-0.56597
-0.566997
-0.501193
-0.56217
-0.515657
-0.591784
-0.565705
-0.521197
-0.494456
-0.505315
-0.541676
-0.549265
-0.599768
-0.54139
-0.594234
-0.522387
-0.514039
-0.595064
-0.575055
-0.539071
-0.57005
-0.528326
-0.529847
0.532379
0.749376
0.893218
1.16691
0.72212
0.861192
0.586638
0.855872
1.19508
1.21759
1.36565
1.17213
1.19962
0.891738
0.464391
1.15033
0.64963
0.88881
0.687052
0.85526
0.405531
0.799676
1.38256
1.02355
1.13267
1.10953
1.17987
0.718578
1.42114
1.42314
-0.584369
-0.58514
-0.512137
-0.542436
-0.510187
-0.589646
-0.5433
-0.512391
-0.510361
-0.5343
-0.56945
-0.542033
-0.586429
-0.534151
-0.584634
-0.538685
-0.515222
-0.589752
-0.545071
-0.520574
-0.544093
-0.515711
-0.519996
-0.127731
0.208551
-0.0262397
0.26486
0.200865
-0.0221618
-0.119598
-0.421644
-0.437128
1.0066
0.609556
0.617915
-0.119945
0.269483
0.212921
-0.0136257
0.210355
-0.00753661
-0.101928
-0.455473
-0.450141
-0.629978
-0.590522
-0.630349
-0.610822
-0.611885
-0.592786
-0.636253
-0.582191
-0.639721
-0.635027
-0.58243
-0.592494
-0.591214
-0.628781
-0.63018
-0.615643
-0.615691
-0.593553
-0.639075
-0.631129
-0.582367
-0.634347
-0.582737
-0.594712
-0.364947
-0.46858
-0.716363
-0.836701
-0.474246
-0.71463
-0.352574
-0.362168
-0.83415
-0.431708
-0.710363
-0.445983
-0.710791
-0.35565
-1.27772
-0.887568
-1.05694
-0.92408
-0.91702
-1.06112
-1.25832
-1.50234
-1.61272
-1.10129
-1.06386
-1.62632
-1.1056
-1.50066
-1.67687
-1.16591
-1.18544
-1.64931
-1.28081
-0.918668
-0.903651
-1.05161
-0.908352
-1.05555
-1.28898
-1.49474
-1.0587
-1.62828
-1.07795
-1.62968
-1.08552
-1.48545
-0.952787
-0.713119
-0.714137
-0.953977
-1.17575
-1.49437
-0.849528
-0.977298
-1.50751
-0.857248
-1.17111
-0.810133
-0.630179
-0.752558
-0.641373
-0.637463
-0.754703
-0.810301
-0.948482
-0.711799
-0.713054
-0.948683
-1.17697
-0.985559
-1.51336
-0.881149
-1.51296
-0.857898
-1.18145
-0.811651
-0.642705
-0.65591
-0.741885
-0.646808
-0.745148
-0.813318
-0.592933
-0.653492
-0.616367
-0.612128
-0.616051
-0.605859
-0.598458
-0.669449
-1.00351
-0.84849
-1.28699
-0.648901
-1.03501
-0.863588
-0.690254
-1.29027
-1.10421
-0.841553
-1.07051
-0.863385
-0.707753
-1.69515
-1.21001
-1.85041
-1.19077
-1.68156
-1.22536
-1.84616
-2.0408
-1.52134
-1.99408
-1.55611
-1.52859
-0.963968
-1.12724
-1.15834
-1.12671
-1.17635
-1.49567
-1.70601
-1.194
-1.25084
-1.82539
-1.23986
-1.83764
-1.71046
-2.07664
-1.6014
-1.58656
-2.08302
-1.09554
-0.907262
-0.879596
-0.773538
-1.10108
-0.907484
-0.881413
-1.26251
-0.99048
-1.28003
-0.977423
-1.40682
-1.10537
-1.03173
-1.72143
-1.02943
-1.73802
-1.39454
-1.08884
-0.779994
-0.906674
-0.885873
-0.907173
-0.883556
-1.08187
-1.24746
-0.94107
-0.959669
-1.22412
-0.630081
-0.571958
-0.576174
-0.563319
-0.638775
-0.560585
-0.570487
-0.626002
-0.548217
-0.539585
-0.56851
-0.550334
-0.56732
-0.625861
-0.618263
-0.638612
0.390136
0.739915
0.392241
-0.260741
0.0819977
-0.292929
0.238958
-0.264394
0.222052
-0.281174
-0.668067
-0.659276
0.717251
0.425991
0.395573
-0.540192
-0.55471
-0.613511
-0.631805
-0.536754
-0.563216
-0.619762
-0.617808
-0.640836
-0.619014
-0.576418
-0.57363
-0.543828
-0.636517
-0.585856
-0.625872
-0.574517
-0.623743
-0.545109
-0.643192
-0.623922
-0.621052
0.837743
1.15553
1.12147
1.20315
0.778642
1.14016
1.08349
0.716909
0.920473
0.596195
1.01888
0.718024
0.88809
0.638543
0.830602
1.17888
1.01281
1.15427
1.06322
1.12677
0.833323
0.728379
0.96481
0.839243
0.738186
0.838686
0.682428
0.75527
1.27548
-0.574722
-0.58168
-0.56132
-0.580445
-0.551269
-0.60625
-0.546617
-0.585348
-0.561923
-0.570444
-0.566953
-0.56369
-0.602423
-0.564056
-0.605199
-0.583465
-0.574538
-0.608743
-0.595904
-0.577275
-0.590785
-0.571244
-0.586087
0.50035
0.674824
0.902361
1.1129
0.430734
0.72742
0.895533
0.611156
0.963101
1.10503
1.33546
0.653385
0.940821
1.07561
0.588008
1.10778
0.806127
0.897422
0.797267
0.896168
0.658602
0.60168
1.28383
0.931975
1.01055
0.936663
1.04507
0.618477
1.4792
1.481
-0.588488
-0.58753
-0.532038
-0.546495
-0.527848
-0.588056
-0.526795
-0.547447
-0.532588
-0.553705
-0.579251
-0.574778
-0.593298
-0.568662
-0.592134
-0.556923
-0.539987
-0.588796
-0.549331
-0.546656
-0.548963
-0.543337
-0.543001
-0.06689
0.206465
-0.0293787
0.223838
-0.0784923
0.212325
-0.053523
-0.434754
-0.416331
1.02397
0.592209
0.586667
-0.0782949
0.190789
0.216347
-0.132558
0.215673
-0.0908542
-0.0951224
-0.402804
-0.407623
-0.631895
-0.59444
-0.630434
-0.615349
-0.61684
-0.596647
-0.632282
-0.581997
-0.642746
-0.595329
-0.632838
-0.585205
-0.59441
-0.62972
-0.629872
-0.622052
-0.619649
-0.598389
-0.643371
-0.636875
-0.597913
-0.632347
-0.592498
-0.600191
-0.377797
-0.435909
-0.71547
-0.88493
-0.366236
-0.448632
-0.719612
-0.389356
-0.922595
-0.476571
-0.722322
-0.464169
-0.72318
-0.398941
-1.31072
-0.912499
-1.04757
-0.882006
-1.2998
-0.926536
-1.04786
-1.47232
-1.62611
-1.07213
-1.05253
-1.47589
-1.62564
-1.07524
-1.62905
-1.20374
-1.17717
-1.64999
-1.32225
-0.873121
-0.957457
-1.05173
-0.944323
-1.04916
-1.32966
-1.47599
-1.05594
-1.63618
-1.10509
-1.63098
-1.08902
-1.48254
-0.936703
-0.711248
-0.943669
-0.708245
-1.18983
-1.51171
-0.871964
-0.998762
-1.18693
-1.51182
-0.876175
-0.811294
-0.66687
-0.734504
-0.637369
-0.81218
-0.673899
-0.72918
-0.926655
-0.700636
-0.704802
-0.917221
-1.1915
-0.993726
-1.5142
-0.866043
-1.5139
-0.873354
-1.18978
-0.809101
-0.632715
-0.68218
-0.705276
-0.679189
-0.717699
-0.807273
-0.607841
-0.651442
-0.619711
-0.599375
-0.618203
-0.611294
-0.600104
-0.722629
-1.13475
-0.798428
-1.29121
-0.711171
-1.16384
-0.757092
-0.727669
-1.29634
-1.19151
-0.707506
-1.18522
-0.726395
-0.724771
-1.71027
-1.26298
-1.81228
-1.20622
-1.71173
-1.27855
-1.8011
-2.05573
-1.60363
-2.06945
-1.59419
-1.42172
-0.915451
-1.11752
-1.07837
-1.1237
-1.10339
-1.40501
-1.70717
-1.21379
-1.29348
-1.78158
-1.29533
-1.79221
-1.69926
-2.04519
-1.55839
-1.57475
-2.0365
-1.067
-0.904697
-0.884171
-0.80694
-1.07552
-0.901374
-0.881082
-1.18346
-0.918291
-1.2064
-0.896387
-1.34472
-1.11847
-1.01502
-1.66582
-1.0249
-1.67938
-1.33248
-1.05953
-0.811418
-0.895337
-0.865682
-0.901343
-0.871194
-1.05287
-1.16758
-0.866836
-0.876362
-1.15676
-0.630107
-0.533794
-0.57369
-0.51279
-0.630594
-0.525617
-0.577692
-0.633136
-0.508047
-0.529015
-0.581444
-0.527709
-0.579709
-0.63374
-0.667143
-0.65259
0.459702
0.799401
0.503674
-0.310449
0.0331343
-0.353884
0.333703
-0.350991
0.315182
-0.3108
-0.63203
-0.637826
0.836735
0.556813
0.537462
-0.536928
-0.596687
-0.615596
-0.638718
-0.543269
-0.605564
-0.607452
-0.626865
-0.659419
-0.632589
-0.591795
-0.589511
-0.529085
-0.62854
-0.61816
-0.57555
-0.612731
-0.58565
-0.529173
-0.651576
-0.612943
-0.621666
0.874566
0.98327
1.16133
1.08998
0.855916
0.992558
1.1664
0.845758
0.927247
0.786642
1.00303
0.806248
1.01613
0.816538
0.894249
1.11801
1.03518
1.17679
1.01314
1.17246
0.907835
0.874542
1.04444
1.08725
0.835525
1.06708
0.835179
0.890762
1.12522
-0.604112
-0.613979
-0.606844
-0.600642
-0.580711
-0.609858
-0.597459
-0.604388
-0.582293
-0.616953
-0.58179
-0.566117
-0.584468
-0.565753
-0.586972
-0.619007
-0.615738
-0.608446
-0.609533
-0.582445
-0.607942
-0.582588
-0.619318
0.73778
0.811852
0.901206
1.08058
0.70436
0.833226
0.903592
0.690196
0.953515
0.979675
1.28399
0.650488
0.994199
0.951742
0.755505
1.15637
0.86766
0.914426
0.851267
0.906578
0.777433
0.736801
1.28247
1.04833
0.982454
1.02593
0.938126
0.798877
1.46176
1.44396
-0.573795
-0.567371
-0.545874
-0.548593
-0.550474
-0.579874
-0.544812
-0.54745
-0.552856
-0.559452
-0.578546
-0.581703
-0.591002
-0.58193
-0.592144
-0.559261
-0.546877
-0.575782
-0.545337
-0.554425
-0.546177
-0.554842
-0.546963
-0.169095
0.233023
-0.167006
0.073739
-0.138159
0.251037
-0.180023
-0.397924
-0.385373
1.05525
0.713912
0.674311
-0.202315
0.0486776
0.315495
-0.166691
0.276355
-0.180528
-0.21642
-0.346565
-0.361626
-0.622024
-0.58128
-0.619111
-0.61972
-0.61497
-0.604375
-0.632497
-0.602646
-0.641313
-0.602767
-0.636601
-0.603651
-0.570087
-0.605631
-0.608881
-0.607331
-0.610284
-0.605856
-0.634939
-0.631486
-0.603377
-0.630508
-0.604114
-0.606744
-0.41777
-0.492587
-0.722536
-0.960347
-0.411438
-0.493351
-0.721684
-0.422192
-0.942392
-0.444503
-0.744277
-0.480607
-0.734855
-0.405556
-1.32352
-0.975913
-1.05492
-0.862331
-1.33241
-0.990393
-1.05466
-1.50621
-1.6424
-1.12799
-1.06302
-1.49521
-1.6416
-1.14003
-1.70275
-1.20514
-1.24086
-1.67576
-1.3035
-0.860821
-0.967815
-1.03508
-1.00043
-1.05324
-1.26484
-1.51128
-1.06173
-1.60254
-1.14408
-1.62792
-1.15119
-1.50435
-0.897048
-0.695466
-0.90849
-0.691191
-1.17915
-1.51374
-0.854024
-0.946422
-1.18548
-1.4984
-0.827754
-0.804839
-0.684062
-0.688764
-0.621951
-0.805534
-0.68693
-0.670077
-0.881347
-0.686496
-0.688302
-0.864544
-1.17174
-0.930693
-1.45272
-0.795511
-1.47466
-0.81146
-1.16772
-0.806644
-0.621234
-0.70239
-0.64585
-0.696605
-0.651847
-0.810281
-0.549571
-0.601262
-0.587258
-0.547522
-0.593294
-0.556199
-0.538808
)
;

boundaryField
{
    inlet
    {
        type            zeroGradient;
    }
    outlet
    {
        type            fixedValue;
        value           uniform 0;
    }
    up
    {
        type            zeroGradient;
    }
    down
    {
        type            zeroGradient;
    }
    frontAndBack
    {
        type            zeroGradient;
    }
    cylinder
    {
        type            zeroGradient;
    }
}


// ************************************************************************* //
