/*--------------------------------*- C++ -*----------------------------------*\
  =========                 |
  \\      /  F ield         | OpenFOAM: The Open Source CFD Toolbox
   \\    /   O peration     | Website:  https://openfoam.org
    \\  /    A nd           | Version:  8
     \\/     M anipulation  |
\*---------------------------------------------------------------------------*/
FoamFile
{
    version     2.0;
    format      ascii;
    class       volVectorField;
    location    "4.5";
    object      U;
}
// * * * * * * * * * * * * * * * * * * * * * * * * * * * * * * * * * * * * * //

dimensions      [0 1 -1 0 0 0 0];

internalField   nonuniform List<vector> 
464
(
(-2.4476e-05 2.42679e-05 0)
(-7.31269e-05 2.3869e-05 0)
(-0.000120164 2.265e-05 0)
(-0.000164109 2.08828e-05 0)
(-0.000203989 1.86375e-05 0)
(-0.000238911 1.59994e-05 0)
(-0.00026816 1.30644e-05 0)
(-0.000291379 9.92414e-06 0)
(-0.000307688 6.66184e-06 0)
(-0.000321498 3.15674e-06 0)
(-0.000316583 4.9207e-07 0)
(-0.000340565 -3.73724e-06 0)
(-2.53154e-05 7.37658e-05 0)
(-7.56243e-05 7.25413e-05 0)
(-0.000124234 6.88166e-05 0)
(-0.000169599 6.34193e-05 0)
(-0.000210709 5.65671e-05 0)
(-0.000246635 4.85257e-05 0)
(-0.00027665 3.96089e-05 0)
(-0.000300405 3.01668e-05 0)
(-0.000317228 2.08118e-05 0)
(-0.000330558 1.17772e-05 0)
(-0.0003271 7.81919e-06 0)
(-0.000346915 -4.08997e-06 0)
(-2.65881e-05 0.000125396 0)
(-7.94054e-05 0.000123277 0)
(-0.000130374 0.00011688 0)
(-0.000177841 0.000107619 0)
(-0.000220725 9.58679e-05 0)
(-0.000258027 8.2073e-05 0)
(-0.000288941 6.67344e-05 0)
(-0.000312807 5.0389e-05 0)
(-0.000328858 3.37933e-05 0)
(-0.000337387 1.73532e-05 0)
(-0.000335327 5.07212e-06 0)
(-0.000329037 -1.31014e-05 0)
(-2.85653e-05 0.000180166 0)
(-8.52757e-05 0.000177043 0)
(-0.000139899 0.000167712 0)
(-0.000190617 0.000154226 0)
(-0.00023626 0.000137143 0)
(-0.000275775 0.0001171 0)
(-0.000308341 9.4771e-05 0)
(-0.000333354 7.08242e-05 0)
(-0.000350272 4.5901e-05 0)
(-0.000359288 2.04788e-05 0)
(-0.000357563 -4.20816e-06 0)
(-0.000349755 -3.01503e-05 0)
(-3.13349e-05 0.000239634 0)
(-9.3488e-05 0.000235332 0)
(-0.000153196 0.000222666 0)
(-0.000208411 0.000204416 0)
(-0.000257851 0.000181378 0)
(-0.000300399 0.000154429 0)
(-0.000335217 0.000124461 0)
(-0.000361677 9.23306e-05 0)
(-0.000379204 5.88737e-05 0)
(-0.000387496 2.48008e-05 0)
(-0.000385956 -8.66425e-06 0)
(-0.000375261 -4.30971e-05 0)
(-3.50268e-05 0.000305462 0)
(-0.00010441 0.000299717 0)
(-0.000170821 0.000283139 0)
(-0.000231904 0.000259365 0)
(-0.000286247 0.000229521 0)
(-0.000332693 0.000194788 0)
(-0.00037044 0.000156316 0)
(-0.000398941 0.00011515 0)
(-0.000417802 7.2206e-05 0)
(-0.000426826 2.81707e-05 0)
(-0.000425461 -1.62326e-05 0)
(-0.000414151 -6.07532e-05 0)
(-3.98333e-05 0.000379637 0)
(-0.000118572 0.00037204 0)
(-0.000193556 0.00035073 0)
(-0.000262029 0.000320364 0)
(-0.000322427 0.000282572 0)
(-0.000373603 0.00023893 0)
(-0.000414855 0.000190925 0)
(-0.000445788 0.000139834 0)
(-0.000466183 8.67143e-05 0)
(-0.000475935 3.24022e-05 0)
(-0.00047488 -2.23362e-05 0)
(-0.000463125 -7.72488e-05 0)
(-4.60458e-05 0.000464577 0)
(-0.000136748 0.000454476 0)
(-0.000222507 0.00042726 0)
(-0.000300062 0.000388795 0)
(-0.000367681 0.000341518 0)
(-0.000424339 0.000287514 0)
(-0.000469536 0.000228704 0)
(-0.000503152 0.000166619 0)
(-0.000525233 0.000102444 0)
(-0.000535876 3.70529e-05 0)
(-0.000535112 -2.88669e-05 0)
(-0.000522983 -9.48183e-05 0)
(-5.41208e-05 0.000563385 0)
(-0.000160088 0.000549675 0)
(-0.00025925 0.000514856 0)
(-0.000347771 0.000466113 0)
(-0.000423708 0.00040728 0)
(-0.000486417 0.000341042 0)
(-0.00053575 0.000269886 0)
(-0.000572048 0.000195606 0)
(-0.000595749 0.000119466 0)
(-0.000607246 4.22972e-05 0)
(-0.000606751 -3.534e-05 0)
(-0.000594294 -0.000113031 0)
(-6.48323e-05 0.000679992 0)
(-0.000190369 0.000660823 0)
(-0.000306083 0.000615985 0)
(-0.000407638 0.00055377 0)
(-0.000492752 0.000480594 0)
(-0.000561732 0.000399718 0)
(-0.000614973 0.000314387 0)
(-0.000653572 0.000226596 0)
(-0.000678542 0.000137601 0)
(-0.000690683 4.80491e-05 0)
(-0.00069044 -4.17962e-05 0)
(-0.000677829 -0.000131823 0)
(-7.94173e-05 0.000821047 0)
(-0.000230239 0.000792365 0)
(-0.00036632 0.000733812 0)
(-0.000483162 0.000653103 0)
(-0.000577759 0.000561818 0)
(-0.000652624 0.000463229 0)
(-0.000708872 0.000361558 0)
(-0.000748834 0.000258906 0)
(-0.000774296 0.000156362 0)
(-0.000786642 5.41179e-05 0)
(-0.000786623 -4.81182e-05 0)
(-0.000774264 -0.000150791 0)
(-0.000100908 0.000988927 0)
(-0.000285019 0.00094679 0)
(-0.000445365 0.000870596 0)
(-0.000579634 0.000764638 0)
(-0.000682626 0.000650521 0)
(-0.000761993 0.000530243 0)
(-0.000819295 0.000409952 0)
(-0.000858768 0.000291356 0)
(-0.00088333 0.000174978 0)
(-0.000895163 6.02219e-05 0)
(-0.000895349 -5.40643e-05 0)
(-0.000883912 -0.00016921 0)
(-0.000130482 0.00122364 0)
(-0.000357526 0.00114244 0)
(-0.000548493 0.00103833 0)
(-0.000703239 0.000889752 0)
(-0.000812153 0.000745225 0)
(-0.000893193 0.000598333 0)
(-0.000947758 0.000457266 0)
(-0.000983808 0.000322081 0)
(-0.00100543 0.000192239 0)
(-0.00101568 6.59402e-05 0)
(-0.00101605 -5.92242e-05 0)
(-0.00100657 -0.000185863 0)
(-0.000193065 0.001439 0)
(-0.00048133 0.00132805 0)
(-0.000698071 0.00120228 0)
(-0.00087274 0.00101153 0)
(-0.00097404 0.000837479 0)
(-0.00104995 0.000661772 0)
(-0.00109555 0.000499068 0)
(-0.0011238 0.000347806 0)
(-0.00113947 0.000206156 0)
(-0.00114663 7.05955e-05 0)
(-0.00114715 -6.29649e-05 0)
(-0.0011411 -0.000198782 0)
(-0.000254518 0.00198706 0)
(-0.000607471 0.00168456 0)
(-0.000865018 0.00150084 0)
(-0.00106808 0.00117587 0)
(-0.00116191 0.000947715 0)
(-0.00123161 0.000722499 0)
(-0.00126173 0.00053253 0)
(-0.00127672 0.00036531 0)
(-0.00128264 0.000214433 0)
(-0.00128481 7.33322e-05 0)
(-0.00128543 -6.45439e-05 0)
(-0.00128461 -0.000205782 0)
(-0.000513147 0.00218241 0)
(-0.000985311 0.00181733 0)
(-0.00120666 0.0016143 0)
(-0.00142589 0.00123279 0)
(-0.00142735 0.000987073 0)
(-0.00146513 0.000738541 0)
(-0.00145273 0.000537811 0)
(-0.00144189 0.00036443 0)
(-0.00143145 0.000212184 0)
(-0.0014256 7.2689e-05 0)
(-0.00142627 -6.25277e-05 0)
(-0.00143362 -0.000201886 0)
(-0.000638532 0.00373588 0)
(-0.00119682 0.00244501 0)
(-0.00144943 0.00213649 0)
(-0.00169568 0.00139857 0)
(-0.00165617 0.00108126 0)
(-0.00168093 0.000751854 0)
(-0.00163585 0.000528405 0)
(-0.00160235 0.000347276 0)
(-0.00157438 0.000199049 0)
(-0.00155952 6.81818e-05 0)
(-0.00156001 -5.70629e-05 0)
(-0.00157595 -0.000187713 0)
(-0.00183599 0.00372232 0)
(-0.00261895 0.00235936 0)
(-0.00225136 0.00203465 0)
(-0.002481 0.00127275 0)
(-0.00207352 0.000966376 0)
(-0.00201776 0.000650434 0)
(-0.00185707 0.000449667 0)
(-0.00177103 0.000291204 0)
(-0.00171032 0.000165813 0)
(-0.00168148 5.75992e-05 0)
(-0.00168192 -4.47771e-05 0)
(-0.00171204 -0.000151986 0)
(-0.00216313 0.00888422 0)
(-0.00293683 0.00284275 0)
(-0.00251317 0.00240912 0)
(-0.00271124 0.00114827 0)
(-0.00221552 0.000794325 0)
(-0.00212803 0.000504942 0)
(-0.00192149 0.000324425 0)
(-0.00181015 0.000204086 0)
(-0.00173018 0.000114107 0)
(-0.00169089 4.00532e-05 0)
(-0.00168908 -2.88449e-05 0)
(-0.00172444 -0.000101911 0)
(0.00953424 0.00804365 0)
(0.00849077 0.00220027 0)
(0.0136847 0.00179479 0)
(0.0136407 0.000714811 0)
(0.0150095 0.00044087 0)
(0.0152672 0.000251971 0)
(0.015601 0.000143099 0)
(0.0157838 8.40561e-05 0)
(0.015895 4.53266e-05 0)
(0.0159487 1.64141e-05 0)
(0.0159531 -9.55155e-06 0)
(0.0159087 -3.78373e-05 0)
(-0.000291946 0.00015563 0)
(-0.000198248 7.72206e-05 0)
(-0.000168125 1.47552e-05 0)
(-0.000131036 -2.48843e-05 0)
(-0.000101981 -5.45162e-05 0)
(-7.23012e-05 -7.50062e-05 0)
(-4.31688e-05 -8.82263e-05 0)
(-1.43245e-05 -9.37832e-05 0)
(-0.000302608 2.31332e-05 0)
(-0.000218249 -1.18705e-05 0)
(-0.000186074 -3.77703e-05 0)
(-0.000148515 -6.65294e-05 0)
(-0.00011714 -8.96781e-05 0)
(-8.47666e-05 -0.000107849 0)
(-5.13831e-05 -0.000120355 0)
(-1.71714e-05 -0.000125573 0)
(-0.000301334 2.24578e-06 0)
(-0.000259157 -3.44362e-05 0)
(-0.000222784 -6.42136e-05 0)
(-0.000182943 -9.61395e-05 0)
(-0.000143301 -0.000122825 0)
(-0.000102981 -0.000143643 0)
(-6.20281e-05 -0.000157653 0)
(-2.06746e-05 -0.000163196 0)
(-0.000323947 -5.04318e-05 0)
(-0.000284706 -8.14897e-05 0)
(-0.000247778 -0.000111322 0)
(-0.000207126 -0.000140626 0)
(-0.000164644 -0.000166613 0)
(-0.0001196 -0.000187692 0)
(-7.24118e-05 -0.000202427 0)
(-2.41851e-05 -0.000208064 0)
(-0.000352673 -7.30608e-05 0)
(-0.000320047 -0.000110862 0)
(-0.000281921 -0.000147605 0)
(-0.000238233 -0.000182537 0)
(-0.000190367 -0.000212887 0)
(-0.000138801 -0.000237063 0)
(-8.42803e-05 -0.000253919 0)
(-2.81867e-05 -0.000260182 0)
(-0.000391712 -0.000104096 0)
(-0.00035925 -0.000148431 0)
(-0.000319453 -0.000191141 0)
(-0.000272407 -0.000230978 0)
(-0.000219169 -0.000265835 0)
(-0.00016064 -0.000293905 0)
(-9.78825e-05 -0.000313593 0)
(-3.2792e-05 -0.000320815 0)
(-0.000440351 -0.000131167 0)
(-0.000407091 -0.000184875 0)
(-0.000364467 -0.000236234 0)
(-0.000312928 -0.000283706 0)
(-0.000253294 -0.000325276 0)
(-0.000186567 -0.000358906 0)
(-0.000114088 -0.000382602 0)
(-3.8298e-05 -0.000391346 0)
(-0.000499339 -0.000160036 0)
(-0.000464317 -0.000224124 0)
(-0.000418283 -0.000285524 0)
(-0.000361449 -0.00034247 0)
(-0.00029437 -0.000392674 0)
(-0.000217977 -0.000433705 0)
(-0.000133857 -0.000462818 0)
(-4.50597e-05 -0.000473851 0)
(-0.000569656 -0.000190186 0)
(-0.00053258 -0.000266128 0)
(-0.000482814 -0.000339407 0)
(-0.000420077 -0.000408046 0)
(-0.000344529 -0.000469296 0)
(-0.000256725 -0.000520203 0)
(-0.000158515 -0.000556645 0)
(-5.35973e-05 -0.000571193 0)
(-0.000652436 -0.000221766 0)
(-0.000613537 -0.000311008 0)
(-0.000560201 -0.000398183 0)
(-0.000491338 -0.000481166 0)
(-0.000406527 -0.000556508 0)
(-0.000305342 -0.000620749 0)
(-0.000190005 -0.00066713 0)
(-6.47492e-05 -0.000687185 0)
(-0.000748842 -0.000254202 0)
(-0.000708996 -0.000358163 0)
(-0.000652971 -0.000461543 0)
(-0.000578402 -0.000562138 0)
(-0.000484111 -0.000655561 0)
(-0.000367367 -0.000738426 0)
(-0.000231155 -0.000798638 0)
(-7.98377e-05 -0.00082846 0)
(-0.000859807 -0.000286375 0)
(-0.000820879 -0.00040618 0)
(-0.000764176 -0.000528114 0)
(-0.000685356 -0.000650454 0)
(-0.000582815 -0.000766872 0)
(-0.000448444 -0.000875455 0)
(-0.000287512 -0.000953642 0)
(-0.000102022 -0.00099768 0)
(-0.000985812 -0.000316413 0)
(-0.000950736 -0.00045273 0)
(-0.000897245 -0.000595418 0)
(-0.000817161 -0.000744549 0)
(-0.00070911 -0.000891751 0)
(-0.000554171 -0.00104393 0)
(-0.000362403 -0.00115061 0)
(-0.000132873 -0.00123473 0)
(-0.00112667 -0.000340997 0)
(-0.00109988 -0.000493218 0)
(-0.001056 -0.000657385 0)
(-0.000981694 -0.000835315 0)
(-0.000882192 -0.00101195 0)
(-0.000707356 -0.00120812 0)
(-0.000489372 -0.00133652 0)
(-0.000197176 -0.00145517 0)
(-0.00128025 -0.000357063 0)
(-0.00126712 -0.000525239 0)
(-0.00123934 -0.000716963 0)
(-0.00117173 -0.000945413 0)
(-0.00108187 -0.00117723 0)
(-0.000878815 -0.00151026 0)
(-0.00062271 -0.00169947 0)
(-0.000264847 -0.00201187 0)
(-0.00144613 -0.000353873 0)
(-0.00145979 -0.000526929 0)
(-0.00147618 -0.00072743 0)
(-0.00144203 -0.000978016 0)
(-0.00144701 -0.00122298 0)
(-0.00122981 -0.00161842 0)
(-0.00100869 -0.00182069 0)
(-0.000527398 -0.00222314 0)
(-0.00160528 -0.000335733 0)
(-0.00164067 -0.000516902 0)
(-0.00169037 -0.000740785 0)
(-0.00166726 -0.0010744 0)
(-0.00172188 -0.00139594 0)
(-0.00147678 -0.00215146 0)
(-0.00124653 -0.00247693 0)
(-0.000688709 -0.00380536 0)
(-0.00177506 -0.000275175 0)
(-0.0018646 -0.000430332 0)
(-0.00203342 -0.000624756 0)
(-0.00209726 -0.000940088 0)
(-0.00252368 -0.00122676 0)
(-0.00231209 -0.00201633 0)
(-0.00269427 -0.00230638 0)
(-0.00188842 -0.00385714 0)
(-0.00179998 -0.000189716 0)
(-0.00190413 -0.000307297 0)
(-0.00211005 -0.000482038 0)
(-0.00217242 -0.000773296 0)
(-0.00269094 -0.00112187 0)
(-0.00241866 -0.00241165 0)
(-0.00294071 -0.00291376 0)
(-0.0019841 -0.00911069 0)
(0.0158071 -7.53447e-05 0)
(0.0156402 -0.000132553 0)
(0.0153068 -0.000237454 0)
(0.0151039 -0.00042471 0)
(0.0136908 -0.000681269 0)
(0.0138555 -0.00176662 0)
(0.00854309 -0.00215366 0)
(0.00968152 -0.00798681 0)
(-2.31208e-06 1.28783e-06 0)
(-6.45348e-06 9.46551e-07 0)
(-9.40452e-06 3.92617e-07 0)
(-1.08139e-05 -3.23799e-07 0)
(-1.05365e-05 -8.41954e-07 0)
(-8.7089e-06 -1.32185e-06 0)
(-5.68704e-06 -1.69131e-06 0)
(-1.96393e-06 -1.88737e-06 0)
(-2.68979e-06 7.84663e-06 0)
(-7.42227e-06 6.45457e-06 0)
(-1.07592e-05 4.17905e-06 0)
(-1.21452e-05 1.55072e-06 0)
(-1.16288e-05 -1.18617e-06 0)
(-9.63617e-06 -3.4493e-06 0)
(-6.3205e-06 -5.04225e-06 0)
(-2.19456e-06 -5.789e-06 0)
(-3.79105e-06 1.05397e-05 0)
(-1.02454e-05 8.23422e-06 0)
(-1.4393e-05 4.59478e-06 0)
(-1.62762e-05 2.31881e-07 0)
(-1.5631e-05 -3.64765e-06 0)
(-1.26432e-05 -7.01945e-06 0)
(-8.13059e-06 -9.43702e-06 0)
(-2.78097e-06 -1.06167e-05 0)
(-5.09673e-06 2.37952e-05 0)
(-1.34691e-05 1.86255e-05 0)
(-1.87621e-05 1.12623e-05 0)
(-2.0388e-05 3.2854e-06 0)
(-1.88804e-05 -4.32336e-06 0)
(-1.54261e-05 -1.03657e-05 0)
(-1.00139e-05 -1.4543e-05 0)
(-3.46996e-06 -1.6485e-05 0)
(-9.16736e-06 2.63747e-05 0)
(-2.29855e-05 1.94944e-05 0)
(-2.97337e-05 9.99833e-06 0)
(-3.18618e-05 -4.4875e-07 0)
(-2.92821e-05 -9.43172e-06 0)
(-2.28633e-05 -1.69475e-05 0)
(-1.43996e-05 -2.21814e-05 0)
(-4.87224e-06 -2.4659e-05 0)
(-1.22252e-05 6.10484e-05 0)
(-3.00946e-05 4.29271e-05 0)
(-3.87062e-05 2.24652e-05 0)
(-3.98182e-05 3.62149e-06 0)
(-3.53793e-05 -1.21623e-05 0)
(-2.81765e-05 -2.39169e-05 0)
(-1.79486e-05 -3.16789e-05 0)
(-6.17008e-06 -3.51851e-05 0)
(-2.78318e-05 6.1891e-05 0)
(-6.21113e-05 4.04e-05 0)
(-6.90405e-05 1.66048e-05 0)
(-6.6489e-05 -4.84497e-06 0)
(-5.68201e-05 -2.28155e-05 0)
(-4.23805e-05 -3.64817e-05 0)
(-2.59869e-05 -4.56905e-05 0)
(-8.69668e-06 -4.98379e-05 0)
(-3.50764e-05 0.000164386 0)
(-7.59605e-05 9.18661e-05 0)
(-8.3955e-05 3.05334e-05 0)
(-7.92395e-05 -7.22177e-06 0)
(-6.70166e-05 -3.40175e-05 0)
(-5.10533e-05 -5.23845e-05 0)
(-3.17564e-05 -6.39369e-05 0)
(-1.07676e-05 -6.89422e-05 0)
)
;

boundaryField
{
    movingWall
    {
        type            fixedValue;
        value           uniform (1 0 0);
    }
    fixedWalls
    {
        type            noSlip;
    }
    frontAndBack
    {
        type            empty;
    }
}


// ************************************************************************* //
