/*--------------------------------*- C++ -*----------------------------------*\
  =========                 |
  \\      /  F ield         | OpenFOAM: The Open Source CFD Toolbox
   \\    /   O peration     | Website:  https://openfoam.org
    \\  /    A nd           | Version:  8
     \\/     M anipulation  |
\*---------------------------------------------------------------------------*/
FoamFile
{
    version     2.0;
    format      ascii;
    class       volScalarField;
    location    "0.22";
    object      p;
}
// * * * * * * * * * * * * * * * * * * * * * * * * * * * * * * * * * * * * * //

dimensions      [0 2 -2 0 0 0 0];

internalField   nonuniform List<scalar> 
400
(
8.3806e-07
-0.00582624
-0.0129615
-0.0184112
-0.0204268
-0.0182322
-0.0117677
-0.00147851
0.0118408
0.0271503
0.043243
0.0588193
0.072573
0.0833017
0.090046
0.0922614
0.0900225
0.0842436
0.0768833
0.0710718
0.00577548
-0.000221667
-0.00580532
-0.00954201
-0.010597
-0.00842984
-0.00296677
0.00547696
0.0163048
0.0287124
0.0417491
0.0543839
0.0655833
0.0744064
0.080117
0.0823136
0.081077
0.0770569
0.0712786
0.0653244
0.0133261
0.00502776
-0.000998932
-0.00442493
-0.00527333
-0.00326329
0.00160358
0.00902897
0.0185032
0.0293498
0.0407653
0.0518688
0.0617671
0.0696349
0.0748061
0.0768783
0.0758436
0.07209
0.065812
0.0575449
0.0201272
0.00868796
0.00122056
-0.00267191
-0.00372394
-0.00188592
0.00273153
0.0097853
0.0187813
0.0290958
0.0399924
0.0506541
0.0602328
0.067916
0.0730038
0.0750033
0.0737693
0.0694618
0.0616114
0.0501148
0.0244877
0.00976382
0.000583534
-0.00399109
-0.0053047
-0.00350842
0.00117472
0.00833528
0.0174631
0.0279504
0.0390863
0.0500711
0.0600501
0.0681665
0.0736284
0.0758008
0.0743737
0.0692967
0.0595356
0.0445516
0.0251633
0.00714065
-0.00380824
-0.00906129
-0.0105144
-0.00850074
-0.00335635
0.00443081
0.0143154
0.0256814
0.0378163
0.0499059
0.0610507
0.0703059
0.0767379
0.0795211
0.0781447
0.0723413
0.0605502
0.0419057
0.0210805
-0.000270475
-0.0129396
-0.0187124
-0.0200311
-0.0174136
-0.0113167
-0.00231698
0.00899391
0.0219801
0.0359138
0.0499486
0.0631164
0.0743496
0.0825265
0.0865748
0.0857272
0.0794554
0.0656315
0.0430874
0.0111333
-0.0136237
-0.027878
-0.0338554
-0.034603
-0.0308554
-0.0232094
-0.0123406
0.00111025
0.0164898
0.0330587
0.0499398
0.0660894
0.0802958
0.0912066
0.0974363
0.0978773
0.0916444
0.0759069
0.0491309
-0.00597148
-0.0342682
-0.04987
-0.0555472
-0.0550873
-0.0495103
-0.039588
-0.0261066
-0.00974955
0.00883109
0.0289093
0.0496017
0.0698054
0.088162
0.103055
0.112708
0.115558
0.1102
0.0928437
0.0614234
-0.0318553
-0.0638735
-0.0804134
-0.0850028
-0.0824147
-0.0740718
-0.0609732
-0.0440278
-0.0239419
-0.0013267
0.0231559
0.0486711
0.0741052
0.0979811
0.118404
0.133133
0.139996
0.136825
0.118448
0.0819426
-0.068659
-0.104596
-0.121337
-0.123583
-0.117508
-0.105118
-0.0877087
-0.0663149
-0.0416256
-0.0141436
0.0156176
0.0469649
0.0788667
0.109803
0.137633
0.159593
0.172734
0.173784
0.155526
0.113576
-0.119388
-0.159346
-0.174905
-0.172747
-0.161138
-0.142919
-0.119748
-0.0927652
-0.0625648
-0.0294345
0.00638635
0.0444863
0.084067
0.123714
0.161145
0.193094
0.215674
0.224082
0.208054
0.160634
-0.188609
-0.232227
-0.243926
-0.233937
-0.213684
-0.187144
-0.156361
-0.122489
-0.0858848
-0.0464585
-0.00400076
0.041552
0.0898542
0.13984
0.189328
0.234696
0.27108
0.291668
0.281744
0.229774
-0.283953
-0.329288
-0.331818
-0.308268
-0.274698
-0.236429
-0.195753
-0.153598
-0.109827
-0.0637317
-0.0144244
0.0388763
0.0965659
0.158287
0.222382
0.285294
0.341401
0.381577
0.384913
0.331829
-0.419297
-0.459655
-0.442338
-0.395781
-0.34212
-0.28773
-0.234606
-0.182919
-0.131598
-0.0789724
-0.0232012
0.0374874
0.104564
0.178847
0.259868
0.344975
0.428619
0.499701
0.529673
0.485384
-0.620512
-0.636729
-0.578666
-0.494184
-0.411233
-0.335652
-0.267773
-0.205969
-0.147526
-0.0893716
-0.0284144
0.0383595
0.113817
0.200479
0.299981
0.412028
0.533031
0.651774
0.732768
0.722387
-0.935908
-0.878503
-0.741733
-0.597943
-0.474389
-0.372655
-0.288864
-0.217756
-0.153945
-0.0924541
-0.0287069
0.0417058
0.123272
0.220725
0.338931
0.482157
0.651997
0.84134
1.01527
1.09749
-1.47641
-1.20662
-0.920498
-0.691385
-0.517304
-0.387543
-0.290059
-0.213333
-0.148117
-0.0872073
-0.0245684
0.0454668
0.128946
0.233078
0.367108
0.54268
0.771293
1.05932
1.40328
1.73013
-2.53964
-1.63054
-1.04444
-0.710959
-0.495753
-0.352095
-0.254531
-0.183581
-0.126165
-0.0735884
-0.0192606
0.0427962
0.119221
0.218791
0.354818
0.547987
0.826394
1.23658
1.91167
2.92419
-4.36666
-2.04463
-0.973542
-0.563184
-0.357852
-0.240153
-0.170124
-0.123785
-0.0874793
-0.0535048
-0.0166461
0.027671
0.0846186
0.16174
0.272421
0.442106
0.718223
1.22571
2.41103
4.84853
)
;

boundaryField
{
    movingWall
    {
        type            zeroGradient;
    }
    fixedWalls
    {
        type            zeroGradient;
    }
    frontAndBack
    {
        type            empty;
    }
}


// ************************************************************************* //
