/*--------------------------------*- C++ -*----------------------------------*\
  =========                 |
  \\      /  F ield         | OpenFOAM: The Open Source CFD Toolbox
   \\    /   O peration     | Website:  https://openfoam.org
    \\  /    A nd           | Version:  8
     \\/     M anipulation  |
\*---------------------------------------------------------------------------*/
FoamFile
{
    version     2.0;
    format      ascii;
    class       surfaceScalarField;
    location    "0.22";
    object      phi;
}
// * * * * * * * * * * * * * * * * * * * * * * * * * * * * * * * * * * * * * //

dimensions      [0 3 -1 0 0 0 0];

internalField   nonuniform List<scalar> 
760
(
1.42395e-08
-1.42466e-08
-2.22034e-08
3.64431e-08
-1.14243e-07
9.20397e-08
-2.45435e-07
1.31192e-07
-3.96001e-07
1.50566e-07
-5.47229e-07
1.51228e-07
-6.83018e-07
1.35789e-07
-7.90462e-07
1.07443e-07
-8.59987e-07
6.95258e-08
-8.85415e-07
2.54275e-08
-8.641e-07
-2.1315e-08
-7.97187e-07
-6.69123e-08
-6.89914e-07
-1.07274e-07
-5.51839e-07
-1.38075e-07
-3.96851e-07
-1.54988e-07
-2.42697e-07
-1.54154e-07
-1.09714e-07
-1.32983e-07
-1.8418e-08
-9.12959e-08
1.56827e-08
-3.41003e-08
1.5683e-08
-3.42007e-08
1.99544e-08
-1.80321e-07
1.82565e-07
-4.3387e-07
3.45589e-07
-7.64229e-07
4.6155e-07
-1.13191e-06
5.18247e-07
-1.49685e-06
5.16164e-07
-1.82286e-06
4.61797e-07
-2.07999e-06
3.64575e-07
-2.24568e-06
2.35223e-07
-2.30544e-06
8.51791e-08
-2.25331e-06
-7.34374e-08
-2.09251e-06
-2.27718e-07
-1.83579e-06
-3.63992e-07
-1.50566e-06
-4.68206e-07
-1.1338e-06
-5.2685e-07
-7.59334e-07
-5.28618e-07
-4.25298e-07
-4.67019e-07
-1.72653e-07
-3.43941e-07
-3.07967e-08
-1.75957e-07
-1.51136e-08
-9.21978e-08
1.12152e-07
-3.56888e-07
4.47255e-07
-7.64335e-07
7.53036e-07
-1.26812e-06
9.65339e-07
-1.81419e-06
1.06431e-06
-2.34839e-06
1.05037e-06
-2.82165e-06
9.35058e-07
-3.19306e-06
7.35985e-07
-3.43167e-06
4.73829e-07
-3.51755e-06
1.71064e-07
-3.44264e-06
-1.48351e-07
-3.21139e-06
-4.58966e-07
-2.84134e-06
-7.34038e-07
-2.36317e-06
-9.46377e-07
-1.81983e-06
-1.07019e-06
-1.26415e-06
-1.0843e-06
-7.54323e-07
-9.76848e-07
-3.46878e-07
-7.51385e-07
-8.73126e-08
-4.35522e-07
-1.02426e-07
-1.45164e-07
2.57316e-07
-5.253e-07
8.27392e-07
-1.08131e-06
1.30905e-06
-1.747e-06
1.63103e-06
-2.45363e-06
1.77094e-06
-3.13549e-06
1.73223e-06
-3.73425e-06
1.53381e-06
-4.20175e-06
1.20348e-06
-4.50168e-06
7.73768e-07
-4.61067e-06
2.80053e-07
-4.51904e-06
-2.39986e-07
-4.2316e-06
-7.46403e-07
-3.76836e-06
-1.19728e-06
-3.1648e-06
-1.54994e-06
-2.47122e-06
-1.76377e-06
-1.75061e-06
-1.80492e-06
-1.07422e-06
-1.65323e-06
-5.14998e-07
-1.31061e-06
-1.39276e-07
-8.11245e-07
-2.41702e-07
-1.9355e-07
4.50866e-07
-6.84802e-07
1.31865e-06
-1.38523e-06
2.00948e-06
-2.20664e-06
2.45244e-06
-3.06465e-06
2.62894e-06
-3.88275e-06
2.55033e-06
-4.5953e-06
2.24636e-06
-5.14925e-06
1.75743e-06
-5.50503e-06
1.12955e-06
-5.63709e-06
4.12108e-07
-5.53436e-06
-3.42715e-07
-5.20107e-06
-1.07969e-06
-4.65773e-06
-1.74062e-06
-3.94198e-06
-2.26568e-06
-3.10894e-06
-2.59681e-06
-2.22995e-06
-2.68391e-06
-1.38929e-06
-2.49389e-06
-6.78324e-07
-2.02158e-06
-1.87717e-07
-1.30185e-06
-4.29419e-07
-2.39877e-07
6.90743e-07
-8.40137e-07
1.91891e-06
-1.68288e-06
2.85222e-06
-2.65643e-06
3.42599e-06
-3.65999e-06
3.6325e-06
-4.60671e-06
3.49706e-06
-5.42512e-06
3.06477e-06
-6.05921e-06
2.39151e-06
-6.46792e-06
1.53826e-06
-6.62459e-06
5.68785e-07
-6.5169e-06
-4.50408e-07
-6.14748e-06
-1.44911e-06
-5.53536e-06
-2.35274e-06
-4.71793e-06
-3.08312e-06
-3.75267e-06
-3.56207e-06
-2.7179e-06
-3.71867e-06
-1.71117e-06
-3.50062e-06
-8.44476e-07
-2.88827e-06
-2.36125e-07
-1.9102e-06
-6.65544e-07
-2.86685e-07
9.77427e-07
-9.96889e-07
2.62911e-06
-1.9817e-06
3.83704e-06
-3.10437e-06
4.54865e-06
-4.24718e-06
4.77531e-06
-5.31385e-06
4.56373e-06
-6.22899e-06
3.97991e-06
-6.93593e-06
3.09845e-06
-7.39418e-06
1.99651e-06
-7.5773e-06
7.51902e-07
-7.47187e-06
-5.55834e-07
-7.07791e-06
-1.84308e-06
-6.41081e-06
-3.01984e-06
-5.50467e-06
-3.98925e-06
-4.41633e-06
-4.65041e-06
-3.22884e-06
-4.90617e-06
-2.05261e-06
-4.67685e-06
-1.02236e-06
-3.91852e-06
-2.88229e-07
-2.64434e-06
-9.53774e-07
-3.36283e-07
1.31371e-06
-1.16021e-06
3.45304e-06
-2.28771e-06
4.96454e-06
-3.55453e-06
5.81547e-06
-4.826e-06
6.04677e-06
-5.99829e-06
5.73603e-06
-6.99513e-06
4.97676e-06
-7.76253e-06
3.86585e-06
-8.26343e-06
2.49741e-06
-8.47355e-06
9.62015e-07
-8.37892e-06
-6.5046e-07
-7.97592e-06
-2.24608e-06
-7.27371e-06
-3.72206e-06
-6.29921e-06
-4.96375e-06
-5.10408e-06
-5.84554e-06
-3.7721e-06
-6.23815e-06
-2.42461e-06
-6.02434e-06
-1.2206e-06
-5.12252e-06
-3.47664e-07
-3.51728e-06
-1.30144e-06
-3.90927e-07
1.70464e-06
-1.33479e-06
4.3969e-06
-2.60478e-06
6.23454e-06
-4.00565e-06
7.21633e-06
-5.38641e-06
7.42754e-06
-6.63925e-06
6.98887e-06
-7.69185e-06
6.02936e-06
-8.49782e-06
4.67182e-06
-9.02773e-06
3.02732e-06
-9.26222e-06
1.19651e-06
-9.18797e-06
-7.24718e-07
-8.79684e-06
-2.6372e-06
-8.08879e-06
-4.43011e-06
-7.07852e-06
-5.97401e-06
-5.80592e-06
-7.11814e-06
-4.34875e-06
-7.69533e-06
-2.83462e-06
-7.53847e-06
-1.44699e-06
-6.51015e-06
-4.18068e-07
-4.5462e-06
-1.71951e-06
-4.53445e-07
2.15808e-06
-1.52565e-06
5.46911e-06
-2.93482e-06
7.64371e-06
-4.45002e-06
8.73153e-06
-5.9062e-06
8.88371e-06
-7.19766e-06
8.28032e-06
-8.26347e-06
7.09517e-06
-9.07186e-06
5.4802e-06
-9.60664e-06
3.56211e-06
-9.85736e-06
1.44722e-06
-9.81319e-06
-7.6889e-07
-9.46115e-06
-2.98924e-06
-8.78889e-06
-5.10237e-06
-7.79281e-06
-6.97009e-06
-6.49205e-06
-8.4189e-06
-4.94784e-06
-9.23953e-06
-3.28503e-06
-9.20128e-06
-1.70863e-06
-8.08655e-06
-5.03573e-07
-5.75126e-06
-2.22308e-06
-5.2835e-07
2.68643e-06
-1.7397e-06
6.68047e-06
-3.27805e-06
9.18206e-06
-4.87174e-06
1.03252e-05
-6.34716e-06
1.03591e-05
-7.611e-06
9.54416e-06
-8.62455e-06
8.10873e-06
-9.37989e-06
6.23554e-06
-9.8812e-06
4.06342e-06
-1.01317e-05
1.69776e-06
-1.0126e-05
-7.74654e-07
-9.84651e-06
-3.26871e-06
-9.26613e-06
-5.68274e-06
-8.35644e-06
-7.87978e-06
-7.10477e-06
-9.67057e-06
-5.54075e-06
-1.08036e-05
-3.77073e-06
-1.09713e-05
-2.01218e-06
-9.8451e-06
-6.0969e-07
-7.15375e-06
-2.83277e-06
-6.23701e-07
3.31013e-06
-1.9875e-06
8.04426e-06
-3.63212e-06
1.08267e-05
-5.24224e-06
1.19353e-05
-6.64799e-06
1.17649e-05
-7.78498e-06
1.06812e-05
-8.65159e-06
8.97534e-06
-9.27493e-06
6.85888e-06
-9.68719e-06
4.47568e-06
-9.91047e-06
1.92104e-06
-9.94786e-06
-7.37263e-07
-9.77916e-06
-3.43741e-06
-9.36139e-06
-6.10051e-06
-8.63603e-06
-8.60514e-06
-7.5467e-06
-1.07599e-05
-6.07181e-06
-1.22785e-05
-4.27441e-06
-1.27687e-05
-2.36371e-06
-1.17558e-05
-7.44795e-07
-8.77266e-06
-3.57756e-06
-7.54129e-07
4.06426e-06
-2.28452e-06
9.57465e-06
-3.98733e-06
1.25295e-05
-5.50957e-06
1.34576e-05
-6.71025e-06
1.29655e-05
-7.57934e-06
1.15503e-05
-8.17096e-06
9.56695e-06
-8.55862e-06
7.24654e-06
-8.80877e-06
4.72583e-06
-8.9661e-06
2.07837e-06
-9.04538e-06
-6.5798e-07
-9.02669e-06
-3.4561e-06
-8.85343e-06
-6.27377e-06
-8.43552e-06
-9.02305e-06
-7.66345e-06
-1.1532e-05
-6.44239e-06
-1.34995e-05
-4.7565e-06
-1.44546e-05
-2.76687e-06
-1.37454e-05
-9.22468e-07
-1.06171e-05
-4.50003e-06
-9.45269e-07
5.00953e-06
-2.64869e-06
1.12781e-05
-4.31138e-06
1.41922e-05
-5.57388e-06
1.47201e-05
-6.37146e-06
1.37631e-05
-6.78423e-06
1.1963e-05
-6.94159e-06
9.72431e-06
-6.97093e-06
7.27588e-06
-6.97403e-06
4.72893e-06
-7.01777e-06
2.1221e-06
-7.12983e-06
-5.45915e-07
-7.2949e-06
-3.29103e-06
-7.44965e-06
-6.11902e-06
-7.47874e-06
-8.99396e-06
-7.21861e-06
-1.17921e-05
-6.48324e-06
-1.42349e-05
-5.13374e-06
-1.58041e-05
-3.21513e-06
-1.5664e-05
-1.16443e-06
-1.26678e-05
-5.66446e-06
-1.23738e-06
6.24691e-06
-3.0835e-06
1.31242e-05
-4.5081e-06
1.56168e-05
-5.23509e-06
1.54471e-05
-5.35603e-06
1.38841e-05
-5.08284e-06
1.16898e-05
-4.63207e-06
9.27354e-06
-4.18055e-06
6.82437e-06
-3.85572e-06
4.4041e-06
-3.73841e-06
2.00479e-06
-3.86648e-06
-4.17844e-07
-4.2339e-06
-2.92361e-06
-4.78321e-06
-5.56971e-06
-5.39202e-06
-8.38515e-06
-5.85925e-06
-1.13249e-05
-5.90713e-06
-1.4187e-05
-5.23317e-06
-1.64781e-05
-3.66645e-06
-1.72308e-05
-1.50013e-06
-1.48341e-05
-7.16459e-06
-1.67386e-06
7.92077e-06
-3.51355e-06
1.49639e-05
-4.31567e-06
1.64189e-05
-4.08944e-06
1.52208e-05
-3.19382e-06
1.29885e-05
-1.9997e-06
1.04957e-05
-7.9628e-07
8.07011e-06
2.18069e-07
5.81002e-06
9.16882e-07
3.70529e-06
1.22423e-06
1.69744e-06
1.10071e-06
-2.9433e-07
5.39792e-07
-2.36268e-06
-4.24067e-07
-4.60585e-06
-1.69353e-06
-7.11568e-06
-3.07318e-06
-9.94522e-06
-4.23138e-06
-1.30288e-05
-4.696e-06
-1.60134e-05
-3.96736e-06
-1.79594e-05
-1.94498e-06
-1.68565e-05
-9.10957e-06
-2.23073e-06
1.01515e-05
-3.59044e-06
1.63236e-05
-3.07807e-06
1.59065e-05
-1.34434e-06
1.34871e-05
8.96387e-07
1.07477e-05
3.15414e-06
8.23797e-06
5.13712e-06
6.08713e-06
6.68757e-06
4.25957e-06
7.72463e-06
2.66823e-06
8.20532e-06
1.21676e-06
8.10268e-06
-1.91686e-07
7.39789e-06
-1.6579e-06
6.08583e-06
-3.29379e-06
4.19831e-06
-5.22816e-06
1.85346e-06
-7.60037e-06
-6.62221e-07
-1.05131e-05
-2.7925e-06
-1.38832e-05
-3.66225e-06
-1.70896e-05
-2.41159e-06
-1.81071e-05
-1.15212e-05
-2.57383e-06
1.27253e-05
-2.18354e-06
1.59333e-05
7.17885e-07
1.30051e-05
4.46925e-06
9.73576e-06
8.13282e-06
7.08416e-06
1.13009e-05
5.06984e-06
1.38283e-05
3.55974e-06
1.56872e-05
2.40068e-06
1.68907e-05
1.46473e-06
1.74539e-05
6.53577e-07
1.73754e-05
-1.13183e-07
1.66296e-05
-9.12095e-07
1.51664e-05
-1.83057e-06
1.29228e-05
-2.98462e-06
9.86121e-06
-4.53875e-06
6.06157e-06
-6.7135e-06
1.91209e-06
-9.73367e-06
-1.55975e-06
-1.36178e-05
-2.45837e-06
-1.72085e-05
-1.39795e-05
-7.85011e-07
1.35103e-05
4.08077e-06
1.10675e-05
1.02975e-05
6.78841e-06
1.57935e-05
4.23976e-06
2.01578e-05
2.71987e-06
2.34577e-05
1.7699e-06
2.58603e-05
1.1571e-06
2.7521e-05
7.40022e-07
2.85534e-05
4.32274e-07
2.90258e-05
1.81215e-07
2.89616e-05
-4.89745e-08
2.83382e-05
-2.88681e-07
2.70813e-05
-5.73713e-07
2.50546e-05
-9.57923e-07
2.20514e-05
-1.53549e-06
1.78153e-05
-2.47738e-06
1.21722e-05
-4.09065e-06
5.47765e-06
-6.92322e-06
-1.29187e-07
-1.16017e-05
-1.41087e-05
1.35103e-05
2.45779e-05
3.13663e-05
3.5606e-05
3.83259e-05
4.00958e-05
4.12529e-05
4.19929e-05
4.24252e-05
4.26064e-05
4.25574e-05
4.22687e-05
4.1695e-05
4.07371e-05
3.92016e-05
3.67242e-05
3.26336e-05
2.57104e-05
1.41087e-05
)
;

boundaryField
{
    movingWall
    {
        type            calculated;
        value           uniform 0;
    }
    fixedWalls
    {
        type            calculated;
        value           uniform 0;
    }
    frontAndBack
    {
        type            empty;
        value           nonuniform List<scalar> 0();
    }
}


// ************************************************************************* //
