/*--------------------------------*- C++ -*----------------------------------*\
  =========                 |
  \\      /  F ield         | OpenFOAM: The Open Source CFD Toolbox
   \\    /   O peration     | Website:  https://openfoam.org
    \\  /    A nd           | Version:  8
     \\/     M anipulation  |
\*---------------------------------------------------------------------------*/
FoamFile
{
    version     2.0;
    format      ascii;
    class       volScalarField;
    location    "9";
    object      p;
}
// * * * * * * * * * * * * * * * * * * * * * * * * * * * * * * * * * * * * * //

dimensions      [0 2 -2 0 0 0 0];

internalField   nonuniform List<scalar> 
400
(
-0.000369908
-0.000373097
-0.000378937
-0.000386451
-0.00039501
-0.000405005
-0.000416288
-0.000428449
-0.0004407
-0.000451894
-0.000460642
-0.000465345
-0.0004641
-0.000454671
-0.000434694
-0.00040144
-0.000352716
-0.000282822
-0.000193794
-5.69355e-05
-0.00036606
-0.000368398
-0.000372782
-0.000378437
-0.000385069
-0.000392787
-0.000401352
-0.000410263
-0.000418625
-0.000425309
-0.000429102
-0.000428653
-0.000422318
-0.000408083
-0.000383921
-0.00034744
-0.00029743
-0.000227597
-0.000146968
-1.74318e-05
-0.000359134
-0.000360552
-0.00036342
-0.000367151
-0.000371511
-0.000376585
-0.000382131
-0.000387476
-0.000391606
-0.000393469
-0.000392095
-0.000386443
-0.000375134
-0.000356376
-0.000328526
-0.000289675
-0.000239696
-0.000172255
-0.000102984
1.76994e-05
-0.000350716
-0.000351603
-0.000353409
-0.000355724
-0.000358346
-0.000361398
-0.000364665
-0.000367341
-0.000368337
-0.000366683
-0.00036162
-0.000352366
-0.000337773
-0.000316234
-0.000286393
-0.000246694
-0.000197931
-0.000133411
-7.40325e-05
4.43561e-05
-0.000341418
-0.000341936
-0.000342936
-0.000344112
-0.000345348
-0.000346775
-0.000348178
-0.000348674
-0.000347133
-0.000342675
-0.00033473
-0.000322744
-0.000305781
-0.000282404
-0.000251469
-0.000211636
-0.00016445
-0.000102561
-5.13617e-05
6.80259e-05
-0.000331547
-0.000331769
-0.000332112
-0.000332327
-0.00033239
-0.000332437
-0.000332247
-0.000330887
-0.000327209
-0.000320439
-0.000310195
-0.000296107
-0.000277407
-0.000252816
-0.000221354
-0.000181806
-0.00013635
-7.68717e-05
-3.25739e-05
8.86881e-05
-0.000321378
-0.000321378
-0.000321191
-0.000320616
-0.000319695
-0.000318593
-0.000317084
-0.000314201
-0.000308796
-0.000300212
-0.000288248
-0.000272669
-0.000252819
-0.000227571
-0.000196083
-0.000157192
-0.000113554
-5.634e-05
-1.77924e-05
0.00010527
-0.000311162
-0.00031101
-0.000310412
-0.000309186
-0.000307447
-0.000305402
-0.000302828
-0.000298739
-0.000292003
-0.000282073
-0.000268909
-0.000252384
-0.000231914
-0.000206483
-0.000175379
-0.000137458
-9.56681e-05
-4.0583e-05
-6.67787e-06
0.000117409
-0.000301123
-0.000300859
-0.000299946
-0.000298174
-0.000295756
-0.000292945
-0.000289521
-0.000284503
-0.000276791
-0.000265933
-0.000252016
-0.000235003
-0.00021436
-0.000189139
-0.000158733
-0.000122025
-8.20703e-05
-2.90214e-05
1.25432e-06
0.000125073
-0.000291431
-0.000291085
-0.000289918
-0.0002877
-0.000284731
-0.000281315
-0.000277233
-0.000271531
-0.000263164
-0.000251755
-0.000237473
-0.000220352
-0.000199903
-0.000175219
-0.000145755
-0.000110421
-7.22494e-05
-2.12048e-05
6.33416e-06
0.00012832
-0.000282193
-0.000281788
-0.000280413
-0.000277848
-0.000274456
-0.000270584
-0.000266024
-0.000259861
-0.000251123
-0.000239504
-0.00022521
-0.000208306
-0.000188354
-0.000164474
-0.000136138
-0.000102277
-6.58146e-05
-1.68066e-05
8.76811e-06
0.000127263
-0.000273452
-0.000272989
-0.000271442
-0.000268614
-0.000264899
-0.0002607
-0.000255827
-0.000249403
-0.000240553
-0.000229041
-0.000215069
-0.000198695
-0.000179518
-0.000156682
-0.00012964
-9.73296e-05
-6.25104e-05
-1.5617e-05
8.68536e-06
0.000122066
-0.000265203
-0.000264663
-0.000262965
-0.000259924
-0.000255957
-0.000251536
-0.000246495
-0.000240004
-0.000231291
-0.000220191
-0.000206877
-0.000191355
-0.00017324
-0.000151696
-0.000126126
-9.54615e-05
-6.22475e-05
-1.75471e-05
6.16289e-06
0.000112954
-0.000257438
-0.000256799
-0.000254948
-0.000251712
-0.000247548
-0.000243002
-0.000237944
-0.000231585
-0.000223258
-0.000212871
-0.000200549
-0.00018621
-0.000169465
-0.000149481
-0.000125587
-9.66997e-05
-6.50836e-05
-2.26107e-05
1.22226e-06
0.000100228
-0.00025017
-0.000249415
-0.000247381
-0.000243947
-0.000239635
-0.000235066
-0.00023015
-0.000224138
-0.000216454
-0.000207071
-0.000196058
-0.000183236
-0.000168187
-0.000150059
-0.000128087
-0.000101149
-7.11496e-05
-3.08808e-05
-6.18647e-06
8.42937e-05
-0.000243416
-0.00024253
-0.000240265
-0.000236624
-0.000232214
-0.000227712
-0.000223086
-0.000217627
-0.000210835
-0.000202732
-0.000193333
-0.000182361
-0.000169348
-0.000153393
-0.000133616
-0.000108831
-8.04682e-05
-4.2311e-05
-1.60636e-05
6.58011e-05
-0.0002372
-0.000236142
-0.000233575
-0.000229714
-0.000225265
-0.000220918
-0.000216695
-0.000211959
-0.000206277
-0.000199718
-0.000192242
-0.000183466
-0.00017284
-0.000159366
-0.000142063
-0.00011969
-9.29991e-05
-5.66884e-05
-2.81842e-05
4.58054e-05
-0.000231598
-0.000230232
-0.000227176
-0.000222964
-0.000218461
-0.000214306
-0.000210555
-0.000206696
-0.000202396
-0.000197749
-0.000192638
-0.00018655
-0.000178849
-0.00016841
-0.000154072
-0.00013459
-0.000109962
-7.53092e-05
-4.3618e-05
2.48802e-05
-0.000226969
-0.000225001
-0.000221065
-0.000216082
-0.000211213
-0.00020707
-0.000203715
-0.000200828
-0.000198263
-0.000196137
-0.000194154
-0.000191583
-0.000187742
-0.000181474
-0.000171288
-0.000155768
-0.000134307
-0.000102061
-6.66893e-05
5.76609e-07
-0.000224299
-0.000221828
-0.000217047
-0.000211134
-0.000205574
-0.000201119
-0.000197892
-0.000195695
-0.000194505
-0.000194522
-0.000195438
-0.000196249
-0.000195982
-0.000193615
-0.000187645
-0.000176227
-0.000157991
-0.000128835
-9.09753e-05
-2.42965e-05
)
;

boundaryField
{
    inlet
    {
        type            zeroGradient;
    }
    outlet
    {
        type            fixedValue;
        value           uniform 0;
    }
    up
    {
        type            zeroGradient;
    }
    down
    {
        type            zeroGradient;
    }
    frontAndBack
    {
        type            empty;
    }
}


// ************************************************************************* //
