/*--------------------------------*- C++ -*----------------------------------*\
  =========                 |
  \\      /  F ield         | OpenFOAM: The Open Source CFD Toolbox
   \\    /   O peration     | Website:  https://openfoam.org
    \\  /    A nd           | Version:  8
     \\/     M anipulation  |
\*---------------------------------------------------------------------------*/
FoamFile
{
    version     2.0;
    format      ascii;
    class       surfaceScalarField;
    location    "18.5";
    object      phi;
}
// * * * * * * * * * * * * * * * * * * * * * * * * * * * * * * * * * * * * * //

dimensions      [0 3 -1 0 0 0 0];

internalField   nonuniform List<scalar> 
208
(
5.18657e-06
-5.18658e-06
1.42381e-05
-9.05156e-06
1.59447e-05
-1.7066e-06
1.55901e-05
3.54588e-07
-3.75218e-05
5.31119e-05
8.83888e-05
-0.000125911
-4.78426e-06
-4.02318e-07
-1.35236e-05
-3.12179e-07
-2.91684e-05
1.39381e-05
-5.87021e-05
2.98882e-05
-9.21646e-05
8.65745e-05
0.000105336
-0.000109112
-6.31323e-06
5.91091e-06
-1.94351e-05
1.28097e-05
-3.50354e-05
2.95384e-05
-5.52661e-05
5.0119e-05
-7.03355e-05
0.000101644
0.000107836
-7.28358e-05
-8.91056e-06
1.48215e-05
-2.07605e-05
2.46596e-05
-3.1337e-05
4.01149e-05
-3.86197e-05
5.74018e-05
-3.73658e-05
0.00010039
9.92895e-05
-2.88192e-05
-4.41104e-06
1.92325e-05
-1.43287e-05
3.45772e-05
-2.06598e-05
4.6446e-05
-2.0479e-05
5.7221e-05
-6.49291e-06
8.64038e-05
7.99949e-05
1.28017e-05
-4.02237e-06
2.32549e-05
-6.09387e-06
3.66487e-05
-6.44044e-06
4.67926e-05
-4.10402e-06
5.48846e-05
1.01631e-05
7.21367e-05
6.29614e-05
2.71966e-05
6.79862e-07
2.2575e-05
-7.32641e-06
4.4655e-05
-7.67853e-06
4.71447e-05
-2.65024e-06
4.98563e-05
1.44876e-05
5.49988e-05
4.79219e-05
2.95272e-05
5.3057e-06
1.72693e-05
1.1583e-05
3.83778e-05
1.65467e-05
4.2181e-05
1.89582e-05
4.74448e-05
2.91639e-05
4.4793e-05
4.34003e-05
3.36855e-05
-4.87894e-05
6.60588e-05
-4.68345e-05
3.64229e-05
-3.94261e-05
3.47725e-05
-2.36208e-05
3.16396e-05
-4.46086e-06
2.5633e-05
2.45061e-05
1.44334e-05
6.60588e-05
0.000102482
0.000137254
0.000168894
0.000194527
0.000219033
-0.00012288
0.000137862
-0.000140892
-7.75776e-05
-3.78674e-05
-7.43541e-06
-3.54006e-05
-8.00121e-05
3.78351e-05
-0.000145893
0.000110492
-9.20666e-05
0.000120817
-7.49406e-05
-5.49934e-05
-4.56822e-05
-0.00010927
-0.000191575
-4.65486e-05
9.45294e-05
-3.9969e-05
-6.1573e-05
-3.11565e-05
-0.000118083
-0.000222731
-8.06625e-06
7.37765e-05
-1.30979e-05
-5.65414e-05
-1.50946e-05
-0.000116086
-0.000237826
2.63485e-05
6.02296e-05
6.59405e-06
-3.67869e-05
-7.38519e-06
-0.000102107
-0.000245211
3.84715e-05
4.89547e-05
1.922e-05
-1.75354e-05
3.10699e-06
-8.5994e-05
-0.000242104
4.21644e-05
3.63175e-05
1.70865e-05
7.54247e-06
-1.39931e-06
-6.75081e-05
-0.000243504
3.83675e-05
3.16355e-05
2.19603e-05
2.39497e-05
1.75817e-05
-6.31295e-05
-0.000225922
3.40718e-05
1.19971e-05
5.52694e-05
2.75207e-06
5.85842e-05
-6.64443e-05
-0.000167338
0.00023103
0.000233782
0.000167338
-2.21181e-05
2.21181e-05
-4.03905e-05
1.82724e-05
-3.65474e-05
-3.84307e-06
-3.65474e-05
-2.74908e-05
4.9609e-05
-3.8002e-05
2.87835e-05
-2.91652e-05
-1.26798e-05
-6.57127e-05
-3.7304e-05
8.6913e-05
-3.19118e-05
2.33913e-05
-2.70671e-05
-1.75246e-05
-9.27797e-05
-5.39787e-05
-3.80228e-05
-1.77123e-05
)
;

boundaryField
{
    movingWall
    {
        type            calculated;
        value           uniform 0;
    }
    fixedWalls
    {
        type            calculated;
        value           uniform 0;
    }
    frontAndBack
    {
        type            empty;
        value           nonuniform List<scalar> 0();
    }
}


// ************************************************************************* //
