/*--------------------------------*- C++ -*----------------------------------*\
  =========                 |
  \\      /  F ield         | OpenFOAM: The Open Source CFD Toolbox
   \\    /   O peration     | Website:  https://openfoam.org
    \\  /    A nd           | Version:  8
     \\/     M anipulation  |
\*---------------------------------------------------------------------------*/
FoamFile
{
    version     2.0;
    format      ascii;
    class       volVectorField;
    location    "18.5";
    object      U;
}
// * * * * * * * * * * * * * * * * * * * * * * * * * * * * * * * * * * * * * //

dimensions      [0 1 -1 0 0 0 0];

internalField   nonuniform List<vector> 
116
(
(0.00950309 -0.00599778 0)
(0.000152038 -0.011102 0)
(0.0301262 -0.00949544 0)
(-0.000943741 -0.0217084 0)
(0.0357496 0.0280004 0)
(-0.117619 0.093642 0)
(0.00301519 -0.00406353 0)
(-0.0132061 -0.0064969 0)
(-0.0122463 0.00637959 0)
(-0.0489883 0.0225576 0)
(-0.0648721 0.0765135 0)
(-0.115185 0.0915436 0)
(0.000415059 0.00320193 0)
(-0.0135132 0.00584467 0)
(-0.0242095 0.0207894 0)
(-0.0471794 0.0381917 0)
(-0.0611733 0.0959947 0)
(-0.0771899 0.111004 0)
(-0.00281345 0.00889763 0)
(-0.0153013 0.0201916 0)
(-0.0255972 0.0390093 0)
(-0.0360949 0.0612792 0)
(-0.0420995 0.108537 0)
(-0.0300623 0.108803 0)
(-7.08256e-05 0.0210333 0)
(-0.00870441 0.0287269 0)
(-0.0202651 0.0407492 0)
(-0.0198149 0.0524579 0)
(-0.0224208 0.0903785 0)
(0.0104259 0.0871317 0)
(-0.00361615 0.0164796 0)
(-0.00411299 0.039945 0)
(-0.00858216 0.0515811 0)
(-0.00352523 0.063347 0)
(-0.00532264 0.0849651 0)
(0.0267968 0.0761806 0)
(0.00317803 0.0315736 0)
(-0.00193033 0.0338889 0)
(-0.0128799 0.0419288 0)
(-0.00189323 0.0443078 0)
(-0.00381507 0.0566591 0)
(0.0339861 0.0468597 0)
(0.00222559 0.0114167 0)
(0.00890639 0.0559717 0)
(0.0135062 0.0530174 0)
(0.0206647 0.0580304 0)
(0.0162401 0.0563504 0)
(0.0429623 0.0520326 0)
(-0.0652714 0.0262623 0)
(-0.0353566 0.0186211 0)
(-0.0555912 0.0295941 0)
(-0.0247801 0.0334788 0)
(-0.0216648 0.0299752 0)
(0.0131639 0.0311587 0)
(0.0523648 0.0986962 0)
(0.0864246 0.0568419 0)
(0.112778 0.0421482 0)
(0.163937 0.0326972 0)
(0.171105 0.0237397 0)
(0.218888 0.0204937 0)
(-0.127174 0.146864 0)
(-0.107492 -0.0261283 0)
(-0.0568463 -0.0589128 0)
(-0.00931016 -0.123777 0)
(-0.112385 0.134779 0)
(-0.0637866 -0.0534281 0)
(-0.0904662 -0.104467 0)
(0.00286327 -0.174095 0)
(-0.0745128 0.104392 0)
(-0.0156597 -0.0587277 0)
(-0.061585 -0.116625 0)
(0.00127726 -0.213278 0)
(-0.0313789 0.0870592 0)
(0.016352 -0.0611166 0)
(-0.0412276 -0.117657 0)
(0.012546 -0.229748 0)
(0.0131054 0.061475 0)
(0.0411972 -0.0533905 0)
(-0.0279677 -0.114796 0)
(0.0145225 -0.243917 0)
(0.0249047 0.0624647 0)
(0.0551536 -0.0165205 0)
(-0.0190611 -0.0843542 0)
(0.0263077 -0.241738 0)
(0.0226971 0.0321957 0)
(0.0647956 -0.0207759 0)
(-0.0335534 -0.0927697 0)
(0.03172 -0.248173 0)
(0.0231845 0.0440207 0)
(0.0552467 0.0374144 0)
(-0.0145897 -0.0367015 0)
(0.053584 -0.23196 0)
(0.0142198 0.0150097 0)
(0.0561224 0.0062963 0)
(0.0477241 -0.0983929 0)
(0.0788297 -0.238927 0)
(0.212683 0.0114615 0)
(0.248082 0.000796322 0)
(0.204201 -0.0234113 0)
(0.15262 -0.0718485 0)
(-0.0109944 -0.000164722 0)
(-0.0337515 -0.00382195 0)
(-0.0487271 0.00252083 0)
(-0.0220504 -0.0210552 0)
(-0.014624 0.0458745 0)
(-0.038747 0.0421003 0)
(-0.0400131 -0.0104089 0)
(-0.0160345 -0.0516524 0)
(-0.040767 0.0534002 0)
(-0.0339826 0.0118986 0)
(-0.0298252 -0.0149929 0)
(-0.0236782 -0.0834286 0)
(-0.0109878 0.124945 0)
(-0.0894891 0.0393043 0)
(0.00710473 -0.0186358 0)
(-0.0394328 -0.0968414 0)
)
;

boundaryField
{
    movingWall
    {
        type            fixedValue;
        value           uniform (1 0 0);
    }
    fixedWalls
    {
        type            noSlip;
    }
    frontAndBack
    {
        type            empty;
    }
}


// ************************************************************************* //
