/*--------------------------------*- C++ -*----------------------------------*\
  =========                 |
  \\      /  F ield         | OpenFOAM: The Open Source CFD Toolbox
   \\    /   O peration     | Website:  https://openfoam.org
    \\  /    A nd           | Version:  8
     \\/     M anipulation  |
\*---------------------------------------------------------------------------*/
FoamFile
{
    version     2.0;
    format      ascii;
    class       volScalarField;
    location    "0.13";
    object      p;
}
// * * * * * * * * * * * * * * * * * * * * * * * * * * * * * * * * * * * * * //

dimensions      [0 2 -2 0 0 0 0];

internalField   nonuniform List<scalar> 
400
(
-8.14076e-08
-0.00579742
-0.0128911
-0.0183024
-0.0202912
-0.018084
-0.0116218
-0.00134849
0.0119443
0.0272204
0.0432774
0.0588201
0.0725469
0.0832592
0.0900004
0.092227
0.090012
0.084265
0.0769371
0.0711477
0.00575524
-0.00021157
-0.00576228
-0.00946999
-0.0105034
-0.00832438
-0.00285948
0.0055768
0.0163898
0.0287777
0.0417927
0.0544071
0.0655906
0.0744047
0.0801154
0.0823218
0.0811035
0.0771073
0.0713543
0.0654224
0.0132808
0.00501893
-0.00097673
-0.00437777
-0.00520693
-0.00318466
0.00168715
0.00911087
0.018578
0.0294138
0.0408166
0.0519079
0.061797
0.0696604
0.074834
0.076916
0.0758978
0.0721655
0.065913
0.0576748
0.0200592
0.00866366
0.00122857
-0.0026401
-0.00367346
-0.00182231
0.00280267
0.00985895
0.0188531
0.0291626
0.0400522
0.0507067
0.06028
0.0679614
0.073053
0.0750625
0.0738448
0.0695587
0.0617365
0.0502768
0.0244065
0.00973129
0.000584145
-0.00396732
-0.00526241
-0.00345197
0.00124107
0.00840762
0.0175379
0.0280245
0.0391576
0.0501386
0.0601145
0.0682306
0.0736966
0.0758788
0.0744674
0.0694117
0.0596808
0.0447393
0.025084
0.00711066
-0.00380594
-0.00903689
-0.0104718
-0.00844309
-0.00328684
0.00450916
0.0143995
0.0257683
0.0379032
0.049991
0.0611339
0.0703888
0.0768242
0.0796158
0.0782535
0.0724704
0.0607094
0.0421091
0.0210206
-0.000285518
-0.0129255
-0.0186781
-0.0199794
-0.0173465
-0.0112363
-0.00222549
0.00909372
0.022085
0.0360204
0.0500544
0.0632201
0.074452
0.0826303
0.0866845
0.0858484
0.079594
0.0657979
0.0432956
0.0111096
-0.0136118
-0.0278427
-0.033803
-0.0345347
-0.0307718
-0.0231116
-0.0122302
0.00123077
0.016617
0.0331886
0.0500688
0.0662154
0.0804186
0.091328
0.09756
0.0980084
0.0917886
0.076074
0.0493336
-0.00594582
-0.0342201
-0.0498062
-0.0554704
-0.0549969
-0.0494056
-0.0394687
-0.0259737
-0.00960529
0.00898303
0.0290643
0.0497554
0.0699546
0.0883056
0.103193
0.112845
0.115697
0.110346
0.0930058
0.0616117
-0.0317723
-0.0637837
-0.0803172
-0.0848986
-0.0822999
-0.0739441
-0.0608312
-0.0438717
-0.0237734
-0.00114991
0.023336
0.0488491
0.074277
0.0981445
0.118559
0.133281
0.14014
0.13697
0.1186
0.0821089
-0.0685178
-0.104465
-0.121209
-0.123452
-0.11737
-0.10497
-0.0875466
-0.0661382
-0.0414359
-0.0139449
0.0158197
0.0471642
0.0790581
0.109984
0.137801
0.15975
0.172881
0.173925
0.155664
0.113714
-0.119195
-0.159178
-0.17475
-0.172596
-0.160984
-0.142756
-0.119572
-0.0925745
-0.0623601
-0.0292199
0.00660449
0.0447009
0.0842721
0.123905
0.161321
0.193254
0.21582
0.224214
0.208174
0.16074
-0.188379
-0.232035
-0.243755
-0.233774
-0.213523
-0.186977
-0.156182
-0.122294
-0.0856747
-0.0462371
-0.00377521
0.0417737
0.090065
0.140035
0.189504
0.234854
0.271219
0.291788
0.281843
0.229847
-0.283705
-0.329087
-0.331645
-0.30811
-0.274545
-0.236273
-0.195584
-0.153412
-0.109623
-0.0635142
-0.0142015
0.0390953
0.0967729
0.158476
0.222551
0.285441
0.341528
0.381682
0.384991
0.33187
-0.419055
-0.459463
-0.442178
-0.395642
-0.34199
-0.287598
-0.23446
-0.182753
-0.13141
-0.0787689
-0.0229906
0.0376951
0.104759
0.179023
0.260021
0.345105
0.428728
0.499787
0.529729
0.485396
-0.6203
-0.636565
-0.578537
-0.49408
-0.411141
-0.335556
-0.26766
-0.205832
-0.147364
-0.08919
-0.0282225
0.0385502
0.113995
0.200638
0.300115
0.412139
0.533119
0.651842
0.732806
0.722378
-0.935744
-0.878381
-0.741647
-0.597883
-0.47434
-0.372602
-0.28879
-0.217654
-0.153813
-0.092298
-0.0285362
0.0418789
0.123436
0.22087
0.33905
0.482251
0.652068
0.841391
1.01529
1.09748
-1.4763
-1.20655
-0.920457
-0.69137
-0.517299
-0.38753
-0.290023
-0.213265
-0.148016
-0.0870759
-0.0244168
0.0456267
0.129101
0.233218
0.367224
0.54277
0.771358
1.05936
1.4033
1.73012
-2.53958
-1.63051
-1.04443
-0.710984
-0.495789
-0.352124
-0.254536
-0.18355
-0.126093
-0.0734788
-0.0191212
0.0429537
0.119384
0.218945
0.354953
0.548097
0.826475
1.23664
1.91171
2.92419
-4.36662
-2.04462
-0.973569
-0.563248
-0.357936
-0.240233
-0.170178
-0.123796
-0.0874401
-0.053414
-0.0165101
0.0278403
0.084806
0.16193
0.272597
0.442259
0.718345
1.2258
2.41109
4.84856
)
;

boundaryField
{
    movingWall
    {
        type            zeroGradient;
    }
    fixedWalls
    {
        type            zeroGradient;
    }
    frontAndBack
    {
        type            empty;
    }
}


// ************************************************************************* //
