/*--------------------------------*- C++ -*----------------------------------*\
  =========                 |
  \\      /  F ield         | OpenFOAM: The Open Source CFD Toolbox
   \\    /   O peration     | Website:  https://openfoam.org
    \\  /    A nd           | Version:  8
     \\/     M anipulation  |
\*---------------------------------------------------------------------------*/
FoamFile
{
    version     2.0;
    format      ascii;
    class       volVectorField;
    location    "0.13";
    object      U;
}
// * * * * * * * * * * * * * * * * * * * * * * * * * * * * * * * * * * * * * //

dimensions      [0 1 -1 0 0 0 0];

internalField   nonuniform List<vector> 
400
(
(0.000252485 -0.000248812 0)
(0.000140321 0.000111608 0)
(-0.00117258 0.000562617 0)
(-0.00346698 0.000881489 0)
(-0.00635061 0.00104141 0)
(-0.00942882 0.00105729 0)
(-0.0123491 0.000953782 0)
(-0.01482 0.000757211 0)
(-0.0166166 0.000492594 0)
(-0.0175815 0.000183898 0)
(-0.0176257 -0.000144466 0)
(-0.0167335 -0.000466166 0)
(-0.0149672 -0.000752036 0)
(-0.012474 -0.000970079 0)
(-0.00948877 -0.0010867 0)
(-0.00633102 -0.00106982 0)
(-0.00338877 -0.000894881 0)
(-0.00108343 -0.00055467 0)
(0.000194972 -9.04484e-05 0)
(0.000266651 0.000261169 0)
(-7.69501e-05 -0.000167992 0)
(-0.00160428 0.00163859 0)
(-0.0056677 0.00360194 0)
(-0.0116667 0.00501274 0)
(-0.0188076 0.0057176 0)
(-0.0262817 0.00573424 0)
(-0.0333176 0.0051483 0)
(-0.0392481 0.00407418 0)
(-0.043546 0.00263619 0)
(-0.0458397 0.000963523 0)
(-0.0459234 -0.000808205 0)
(-0.0437673 -0.00253409 0)
(-0.0395287 -0.00405899 0)
(-0.0335591 -0.00522086 0)
(-0.0264031 -0.00586045 0)
(-0.0187783 -0.00583998 0)
(-0.0115214 -0.00507425 0)
(-0.00549254 -0.00357591 0)
(-0.00148789 -0.00155396 0)
(-4.26305e-05 0.00022602 0)
(-0.000526198 0.0010872 0)
(-0.00369486 0.00571161 0)
(-0.0105421 0.0101794 0)
(-0.0199034 0.0133476 0)
(-0.0306284 0.0148785 0)
(-0.0416362 0.0147711 0)
(-0.0518875 0.0131952 0)
(-0.0604733 0.010409 0)
(-0.0666715 0.0067128 0)
(-0.0699717 0.00243055 0)
(-0.0700919 -0.00209311 0)
(-0.0669928 -0.00649153 0)
(-0.0608914 -0.0103781 0)
(-0.0522686 -0.0133581 0)
(-0.0418646 -0.0150553 0)
(-0.0306505 -0.0151598 0)
(-0.0197513 -0.0135 0)
(-0.0103238 -0.0101389 0)
(-0.00353516 -0.00553038 0)
(-0.000475137 -0.000945832 0)
(-0.000924167 0.00346461 0)
(-0.00566732 0.0121676 0)
(-0.0152378 0.0198344 0)
(-0.0278004 0.0250861 0)
(-0.0418102 0.0274735 0)
(-0.0559442 0.0270153 0)
(-0.0689622 0.0240005 0)
(-0.0797904 0.0188698 0)
(-0.0875813 0.0121439 0)
(-0.0917367 0.00439075 0)
(-0.0919241 -0.00378354 0)
(-0.0880912 -0.0117357 0)
(-0.0804821 -0.0187907 0)
(-0.0696486 -0.0242634 0)
(-0.0564512 -0.0275048 0)
(-0.0420357 -0.0279819 0)
(-0.0277535 -0.0253934 0)
(-0.0150386 -0.0198137 0)
(-0.00548502 -0.0118827 0)
(-0.000858466 -0.0032132 0)
(-0.00127385 0.0068484 0)
(-0.00750722 0.0208655 0)
(-0.0197305 0.0323727 0)
(-0.0354024 0.0399317 0)
(-0.0525469 0.0431035 0)
(-0.0695979 0.0420097 0)
(-0.085144 0.037116 0)
(-0.097993 0.0290883 0)
(-0.107219 0.0187009 0)
(-0.112171 0.00679291 0)
(-0.112483 -0.00574372 0)
(-0.108082 -0.017964 0)
(-0.0992076 -0.0288752 0)
(-0.086436 -0.0374642 0)
(-0.0706927 -0.0427608 0)
(-0.0532507 -0.0439474 0)
(-0.0356664 -0.0405183 0)
(-0.0196706 -0.032469 0)
(-0.00734642 -0.0205151 0)
(-0.00119967 -0.00647478 0)
(-0.00160213 0.0111704 0)
(-0.00928801 0.031748 0)
(-0.0241329 0.0477605 0)
(-0.0428678 0.0578378 0)
(-0.0630586 0.0616847 0)
(-0.0828914 0.0596354 0)
(-0.100805 0.0524124 0)
(-0.115526 0.0409596 0)
(-0.126089 0.0263356 0)
(-0.131823 0.00966538 0)
(-0.132337 -0.00786742 0)
(-0.127531 -0.0250113 0)
(-0.117611 -0.0404434 0)
(-0.103128 -0.052794 0)
(-0.0850224 -0.0607188 0)
(-0.0646519 -0.0630344 0)
(-0.0437633 -0.0589222 0)
(-0.0244102 -0.0481718 0)
(-0.00922872 -0.0314483 0)
(-0.00153343 -0.0106919 0)
(-0.00193502 0.0164162 0)
(-0.0110936 0.0448103 0)
(-0.0285804 0.0659902 0)
(-0.0503568 0.0787654 0)
(-0.0735046 0.0831317 0)
(-0.0959665 0.0797693 0)
(-0.116063 0.0697573 0)
(-0.132483 0.0543795 0)
(-0.14427 0.0350064 0)
(-0.150766 0.0130504 0)
(-0.151575 -0.0100267 0)
(-0.146558 -0.0326842 0)
(-0.135856 -0.053276 0)
(-0.119942 -0.0700585 0)
(-0.0997044 -0.0812581 0)
(-0.0765301 -0.0852258 0)
(-0.0523253 -0.0806864 0)
(-0.0294809 -0.0670562 0)
(-0.0112592 -0.0447968 0)
(-0.00189592 -0.0159016 0)
(-0.00229601 0.0226205 0)
(-0.013003 0.0601048 0)
(-0.0331951 0.0870761 0)
(-0.0579817 0.102651 0)
(-0.0839309 0.107298 0)
(-0.108764 0.102206 0)
(-0.130737 0.0889332 0)
(-0.148569 0.0691718 0)
(-0.161376 0.0446253 0)
(-0.168565 0.0169789 0)
(-0.16976 -0.0120656 0)
(-0.164781 -0.0407224 0)
(-0.153664 -0.0670558 0)
(-0.136738 -0.0889501 0)
(-0.114753 -0.104154 0)
(-0.0890322 -0.110436 0)
(-0.0615735 -0.105885 0)
(-0.0350938 -0.0893157 0)
(-0.0135648 -0.0607765 0)
(-0.00232272 -0.0222155 0)
(-0.00270915 0.0298627 0)
(-0.0150942 0.0777371 0)
(-0.0380798 0.111036 0)
(-0.0657864 0.129367 0)
(-0.0942351 0.13391 0)
(-0.120977 0.126581 0)
(-0.144294 0.109558 0)
(-0.163039 0.0850167 0)
(-0.176495 0.0550039 0)
(-0.184205 0.0214396 0)
(-0.185854 -0.0138023 0)
(-0.181224 -0.0487707 0)
(-0.170212 -0.0813102 0)
(-0.152919 -0.108968 0)
(-0.129837 -0.128985 0)
(-0.102083 -0.138428 0)
(-0.0716186 -0.13452 0)
(-0.0414266 -0.115172 0)
(-0.0162723 -0.0796982 0)
(-0.00285193 -0.0298178 0)
(-0.00320707 0.0382704 0)
(-0.0174627 0.0978582 0)
(-0.0433314 0.137853 0)
(-0.0737383 0.158643 0)
(-0.104131 0.162472 0)
(-0.131991 0.152258 0)
(-0.155773 0.130978 0)
(-0.174614 0.101359 0)
(-0.188094 0.0657829 0)
(-0.195987 0.0263362 0)
(-0.198101 -0.0150401 0)
(-0.194198 -0.0563532 0)
(-0.183999 -0.0953468 0)
(-0.167291 -0.129316 0)
(-0.14415 -0.155006 0)
(-0.115286 -0.168673 0)
(-0.0824078 -0.166411 0)
(-0.0486136 -0.144805 0)
(-0.0195195 -0.101947 0)
(-0.00353187 -0.0389687 0)
(-0.00384542 0.0480404 0)
(-0.0202536 0.120664 0)
(-0.049064 0.167417 0)
(-0.0817147 0.189964 0)
(-0.113091 0.192127 0)
(-0.140792 0.178197 0)
(-0.163672 0.152144 0)
(-0.181362 0.117306 0)
(-0.193899 0.076355 0)
(-0.20141 0.031436 0)
(-0.203901 -0.0155907 0)
(-0.201146 -0.0628618 0)
(-0.192676 -0.108198 0)
(-0.177875 -0.148798 0)
(-0.156234 -0.180996 0)
(-0.127783 -0.200178 0)
(-0.093643 -0.201027 0)
(-0.0567305 -0.178247 0)
(-0.0234781 -0.127953 0)
(-0.00443504 -0.0500229 0)
(-0.00472878 0.0594897 0)
(-0.0237125 0.146403 0)
(-0.055426 0.19944 0)
(-0.0894487 0.222408 0)
(-0.120224 0.22148 0)
(-0.145804 0.202786 0)
(-0.16578 0.171484 0)
(-0.180537 0.131531 0)
(-0.190756 0.0857917 0)
(-0.19704 0.0363147 0)
(-0.199672 -0.0153108 0)
(-0.198493 -0.067567 0)
(-0.192855 -0.118589 0)
(-0.181687 -0.165723 0)
(-0.163732 -0.205086 0)
(-0.138027 -0.231248 0)
(-0.104632 -0.237239 0)
(-0.0657517 -0.215206 0)
(-0.0283836 -0.158152 0)
(-0.00568283 -0.0634716 0)
(-0.00605656 0.0731588 0)
(-0.0282521 0.175376 0)
(-0.0625727 0.23329 0)
(-0.0963657 0.254402 0)
(-0.124011 0.248357 0)
(-0.144595 0.223657 0)
(-0.158905 0.186777 0)
(-0.16837 0.142201 0)
(-0.174482 0.0927996 0)
(-0.178407 0.0403163 0)
(-0.180768 -0.0141498 0)
(-0.181531 -0.0696655 0)
(-0.179932 -0.124961 0)
(-0.17447 -0.177858 0)
(-0.163052 -0.224606 0)
(-0.14343 -0.259209 0)
(-0.11401 -0.272973 0)
(-0.0754311 -0.25477 0)
(-0.0345697 -0.192889 0)
(-0.00748829 -0.0800286 0)
(-0.00819796 0.0899926 0)
(-0.0345141 0.207868 0)
(-0.0704895 0.26765 0)
(-0.101156 0.283314 0)
(-0.121764 0.269488 0)
(-0.133353 0.237518 0)
(-0.138457 0.195113 0)
(-0.139797 0.147 0)
(-0.139728 0.095756 0)
(-0.139968 0.0425589 0)
(-0.141479 -0.0121963 0)
(-0.144405 -0.068377 0)
(-0.147985 -0.125582 0)
(-0.15044 -0.182494 0)
(-0.148937 -0.236008 0)
(-0.139802 -0.280118 0)
(-0.119198 -0.304715 0)
(-0.0849913 -0.294899 0)
(-0.0424605 -0.232199 0)
(-0.0102192 -0.10077 0)
(-0.0117734 0.111599 0)
(-0.0432921 0.243849 0)
(-0.0783782 0.299854 0)
(-0.100768 0.304861 0)
(-0.108556 0.280199 0)
(-0.105998 0.240118 0)
(-0.0978541 0.19304 0)
(-0.088143 0.143354 0)
(-0.0799068 0.0929053 0)
(-0.0752084 0.0420404 0)
(-0.0752253 -0.00970343 0)
(-0.080294 -0.0631091 0)
(-0.0898301 -0.118821 0)
(-0.102105 -0.176736 0)
(-0.113942 -0.23503 0)
(-0.120495 -0.288616 0)
(-0.115389 -0.326943 0)
(-0.0923346 -0.331581 0)
(-0.0523409 -0.275257 0)
(-0.0144345 -0.127292 0)
(-0.0175543 0.140639 0)
(-0.0547934 0.282073 0)
(-0.0828604 0.324593 0)
(-0.0882123 0.312305 0)
(-0.0753045 0.274261 0)
(-0.0528522 0.226569 0)
(-0.0277808 0.177103 0)
(-0.00488869 0.128984 0)
(0.0126866 0.0828104 0)
(0.0230067 0.0379024 0)
(0.0249631 -0.00705717 0)
(0.0180891 -0.0536842 0)
(0.00259657 -0.103627 0)
(-0.0203297 -0.158156 0)
(-0.047957 -0.217313 0)
(-0.0751881 -0.278163 0)
(-0.0936823 -0.331603 0)
(-0.0921383 -0.357524 0)
(-0.0633086 -0.319184 0)
(-0.0206384 -0.161933 0)
(-0.0254529 0.181705 0)
(-0.0657957 0.317732 0)
(-0.0733912 0.331286 0)
(-0.0481853 0.295291 0)
(-0.00574515 0.244081 0)
(0.0409897 0.192243 0)
(0.0843646 0.144919 0)
(0.120196 0.102867 0)
(0.146323 0.0650666 0)
(0.161646 0.0298599 0)
(0.165535 -0.00466152 0)
(0.157544 -0.0405792 0)
(0.137372 -0.0801636 0)
(0.105126 -0.125809 0)
(0.062005 -0.179602 0)
(0.0116115 -0.241891 0)
(-0.0379606 -0.307754 0)
(-0.071752 -0.360039 0)
(-0.0700832 -0.356537 0)
(-0.0279171 -0.208349 0)
(-0.0296498 0.239178 0)
(-0.0608523 0.335753 0)
(-0.0219788 0.300465 0)
(0.0504671 0.240068 0)
(0.127449 0.182876 0)
(0.196832 0.135311 0)
(0.254108 0.0973258 0)
(0.297976 0.0667912 0)
(0.328515 0.0413149 0)
(0.346137 0.018761 0)
(0.351041 -0.00278807 0)
(0.342979 -0.0252371 0)
(0.321171 -0.0507412 0)
(0.284383 -0.081988 0)
(0.23136 -0.122378 0)
(0.16202 -0.175599 0)
(0.0797924 -0.243365 0)
(-0.00325011 -0.319081 0)
(-0.0546924 -0.368575 0)
(-0.0284633 -0.267606 0)
(0.00808438 0.281866 0)
(0.0197818 0.294971 0)
(0.139052 0.210961 0)
(0.264421 0.143455 0)
(0.364296 0.0971575 0)
(0.440254 0.0657467 0)
(0.496595 0.0442087 0)
(0.536692 0.0288628 0)
(0.563239 0.0171836 0)
(0.578083 0.00747882 0)
(0.582155 -0.00149074 0)
(0.575478 -0.0108334 0)
(0.55711 -0.0218284 0)
(0.524963 -0.0363116 0)
(0.475638 -0.0572337 0)
(0.404433 -0.089358 0)
(0.305107 -0.139717 0)
(0.173379 -0.216367 0)
(0.0411587 -0.311643 0)
(0.0184284 -0.299993 0)
(0.299606 0.146093 0)
(0.396276 0.127504 0)
(0.557421 0.0760884 0)
(0.674479 0.0437199 0)
(0.743867 0.0255672 0)
(0.787115 0.0152367 0)
(0.815431 0.00920731 0)
(0.833887 0.00550552 0)
(0.845307 0.00302486 0)
(0.851288 0.00114878 0)
(0.852582 -0.000498266 0)
(0.849302 -0.00221251 0)
(0.840928 -0.00433494 0)
(0.82608 -0.00741982 0)
(0.802031 -0.0125278 0)
(0.763587 -0.0217685 0)
(0.699087 -0.039279 0)
(0.583943 -0.0726571 0)
(0.415825 -0.127867 0)
(0.30882 -0.149468 0)
)
;

boundaryField
{
    movingWall
    {
        type            fixedValue;
        value           uniform (1 0 0);
    }
    fixedWalls
    {
        type            noSlip;
    }
    frontAndBack
    {
        type            empty;
    }
}


// ************************************************************************* //
