/*--------------------------------*- C++ -*----------------------------------*\
  =========                 |
  \\      /  F ield         | OpenFOAM: The Open Source CFD Toolbox
   \\    /   O peration     | Website:  https://openfoam.org
    \\  /    A nd           | Version:  8
     \\/     M anipulation  |
\*---------------------------------------------------------------------------*/
FoamFile
{
    version     2.0;
    format      ascii;
    class       volScalarField;
    location    "25.5";
    object      p;
}
// * * * * * * * * * * * * * * * * * * * * * * * * * * * * * * * * * * * * * //

dimensions      [0 2 -2 0 0 0 0];

internalField   nonuniform List<scalar> 
116
(
-7.27603e-09
-0.00061331
-0.000503766
-0.00236363
0.00104757
-0.00796762
0.000244754
-0.000119749
0.000470052
-0.0019496
-0.000865382
-0.00358394
0.000314369
2.61514e-05
0.000168155
-0.00125583
-0.00400589
-0.00864886
0.00030826
0.00017806
-6.73675e-05
-0.00161661
-0.00574135
-0.0100984
6.1827e-05
-4.19876e-05
-0.000598569
-0.00192747
-0.00702359
-0.0110943
-0.000491988
-0.00043957
-0.00107057
-0.00182283
-0.00568437
-0.00848071
-0.00037848
-0.000683959
-0.00118178
-0.00163723
-0.00407925
-0.0065134
-0.00141956
-0.000901868
-0.000871526
-0.00061206
-0.00143994
-0.00242334
8.85295e-05
-0.00159969
-0.000969752
-0.00115959
-0.000783794
-0.00216434
-0.00696529
0.000190447
0.000925586
0.00180503
0.00179214
0.000354944
0.00093072
0.00832873
0.00732468
0.0125006
-0.00315367
0.000722528
0.00339006
0.00621341
-0.00935041
-0.00588792
-0.00276531
-0.000338859
-0.0116514
-0.00874306
-0.00721799
-0.00427983
-0.0128646
-0.00940074
-0.00923204
-0.00560744
-0.0101102
-0.00679546
-0.00800689
-0.00448259
-0.00840057
-0.00573942
-0.00826228
-0.00151731
-0.0029845
-0.00184091
-0.00284321
0.00609509
-0.00447263
-0.00371252
-0.00416519
0.0113623
-0.000864502
0.00451905
0.0146405
0.0498122
0.0143142
0.0144374
0.0143694
0.0164931
0.0136006
0.0142869
0.0129338
0.0145038
0.0107673
0.0117984
0.00974245
0.0103849
0.00791806
0.0139694
0.00786281
0.0122973
)
;

boundaryField
{
    movingWall
    {
        type            zeroGradient;
    }
    fixedWalls
    {
        type            zeroGradient;
    }
    frontAndBack
    {
        type            empty;
    }
}


// ************************************************************************* //
