/*--------------------------------*- C++ -*----------------------------------*\
  =========                 |
  \\      /  F ield         | OpenFOAM: The Open Source CFD Toolbox
   \\    /   O peration     | Website:  https://openfoam.org
    \\  /    A nd           | Version:  8
     \\/     M anipulation  |
\*---------------------------------------------------------------------------*/
FoamFile
{
    version     2.0;
    format      ascii;
    class       volScalarField;
    location    "8";
    object      T;
}
// * * * * * * * * * * * * * * * * * * * * * * * * * * * * * * * * * * * * * //

dimensions      [0 0 0 1 0 0 0];

internalField   nonuniform List<scalar> 
116
(
1.52282e-07
1.52274e-07
1.52272e-07
1.52269e-07
1.52234e-07
1.51653e-07
1.78258e-06
1.78251e-06
1.78249e-06
1.78248e-06
1.78247e-06
1.78241e-06
2.02137e-05
2.02131e-05
2.02129e-05
2.02129e-05
2.02129e-05
2.02129e-05
0.000204907
0.000204902
0.000204901
0.0002049
0.0002049
0.0002049
0.00183026
0.00183023
0.00183023
0.00183022
0.00183022
0.00183022
0.0141509
0.0141508
0.0141507
0.0141507
0.0141507
0.0141507
0.0925304
0.0925299
0.0925297
0.0925297
0.0925297
0.0925297
0.495943
0.495942
0.495941
0.495941
0.495941
0.495941
2.08578
2.08578
2.08578
2.08578
2.08578
2.08578
6.46474
6.46474
6.46474
6.46474
6.46474
6.46474
1.42538e-07
1.41987e-07
1.41956e-07
1.41954e-07
1.78186e-06
1.7818e-06
1.78179e-06
1.78179e-06
2.02128e-05
2.02128e-05
2.02128e-05
2.02129e-05
0.0002049
0.0002049
0.0002049
0.0002049
0.00183022
0.00183022
0.00183022
0.00183022
0.0141507
0.0141507
0.0141507
0.0141507
0.0925297
0.0925297
0.0925297
0.0925297
0.495941
0.495941
0.495941
0.495941
2.08578
2.08578
2.08578
2.08578
6.46474
6.46474
6.46474
6.46474
2.58994e-12
2.5857e-12
2.58476e-12
2.58467e-12
4.27259e-11
4.26417e-11
4.26259e-11
4.26246e-11
6.91155e-10
6.89493e-10
6.89245e-10
6.89229e-10
1.035e-08
1.03189e-08
1.03156e-08
1.03155e-08
)
;

boundaryField
{
    movingWall
    {
        type            fixedValue;
        value           uniform 10;
    }
    fixedWalls
    {
        type            zeroGradient;
    }
    frontAndBack
    {
        type            empty;
    }
}


// ************************************************************************* //
