/*--------------------------------*- C++ -*----------------------------------*\
  =========                 |
  \\      /  F ield         | OpenFOAM: The Open Source CFD Toolbox
   \\    /   O peration     | Website:  https://openfoam.org
    \\  /    A nd           | Version:  8
     \\/     M anipulation  |
\*---------------------------------------------------------------------------*/
FoamFile
{
    version     2.0;
    format      ascii;
    class       volVectorField;
    location    "31";
    object      U;
}
// * * * * * * * * * * * * * * * * * * * * * * * * * * * * * * * * * * * * * //

dimensions      [0 1 -1 0 0 0 0];

internalField   nonuniform List<vector> 
400
(
(1 -1.01467e-11 0)
(1 -5.98861e-11 0)
(1 -1.50992e-10 0)
(1 -2.87986e-10 0)
(1 -4.78956e-10 0)
(1 -7.35559e-10 0)
(1 -1.07147e-09 0)
(1 -1.50295e-09 0)
(1 -2.04959e-09 0)
(1 -2.73479e-09 0)
(1 -3.58639e-09 0)
(1 -4.63749e-09 0)
(1 -5.92741e-09 0)
(1 -7.50298e-09 0)
(1 -9.41974e-09 0)
(1 -1.17443e-08 0)
(1 -1.45519e-08 0)
(1 -1.79561e-08 0)
(1 -2.19251e-08 0)
(1 -2.76053e-08 0)
(1 -2.04528e-11 0)
(1 -9.01291e-11 0)
(1 -2.01474e-10 0)
(1 -3.57594e-10 0)
(1 -5.66938e-10 0)
(1 -8.41345e-10 0)
(1 -1.19462e-09 0)
(1 -1.64308e-09 0)
(1 -2.20624e-09 0)
(1 -2.9073e-09 0)
(1 -3.7738e-09 0)
(1 -4.83843e-09 0)
(1 -6.14003e-09 0)
(1 -7.72483e-09 0)
(1 -9.64768e-09 0)
(1 -1.19744e-08 0)
(1 -1.47793e-08 0)
(1 -1.81745e-08 0)
(1 -2.21258e-08 0)
(1 -2.77781e-08 0)
(1 -2.88079e-11 0)
(1 -1.17338e-10 0)
(1 -2.48534e-10 0)
(1 -4.23406e-10 0)
(1 -6.50489e-10 0)
(1 -9.41935e-10 0)
(1 -1.31179e-09 0)
(1 -1.77649e-09 0)
(1 -2.35548e-09 0)
(1 -3.07175e-09 0)
(1 -3.95255e-09 0)
(1 -5.03022e-09 0)
(1 -6.34317e-09 0)
(1 -7.93711e-09 0)
(1 -9.86632e-09 0)
(1 -1.2196e-08 0)
(1 -1.50002e-08 0)
(1 -1.83897e-08 0)
(1 -2.23326e-08 0)
(1 -2.79742e-08 0)
(1 -3.39819e-11 0)
(1 -1.35901e-10 0)
(1 -2.82626e-10 0)
(1 -4.72739e-10 0)
(1 -7.14509e-10 0)
(1 -1.02022e-09 0)
(1 -1.40405e-09 0)
(1 -1.88248e-09 0)
(1 -2.47489e-09 0)
(1 -3.20415e-09 0)
(1 -4.09732e-09 0)
(1 -5.18651e-09 0)
(1 -6.50983e-09 0)
(1 -8.11268e-09 0)
(1 -1.00491e-08 0)
(1 -1.23837e-08 0)
(1 -1.51912e-08 0)
(1 -1.85819e-08 0)
(1 -2.25284e-08 0)
(1 -2.81764e-08 0)
(1 -3.72182e-11 0)
(1 -1.48766e-10 0)
(1 -3.07864e-10 0)
(1 -5.10814e-10 0)
(1 -7.65322e-10 0)
(1 -1.08365e-09 0)
(1 -1.47997e-09 0)
(1 -1.97078e-09 0)
(1 -2.57541e-09 0)
(1 -3.31663e-09 0)
(1 -4.22138e-09 0)
(1 -5.32159e-09 0)
(1 -6.65523e-09 0)
(1 -8.26749e-09 0)
(1 -1.02123e-08 0)
(1 -1.25543e-08 0)
(1 -1.53684e-08 0)
(1 -1.87652e-08 0)
(1 -2.27213e-08 0)
(1 -2.83812e-08 0)
(1 -3.94545e-11 0)
(1 -1.58103e-10 0)
(1 -3.2688e-10 0)
(1 -5.40259e-10 0)
(1 -8.05356e-10 0)
(1 -1.13438e-09 0)
(1 -1.54145e-09 0)
(1 -2.04303e-09 0)
(1 -2.65841e-09 0)
(1 -3.41029e-09 0)
(1 -4.32553e-09 0)
(1 -5.43594e-09 0)
(1 -6.77938e-09 0)
(1 -8.40098e-09 0)
(1 -1.03547e-08 0)
(1 -1.27051e-08 0)
(1 -1.55278e-08 0)
(1 -1.89331e-08 0)
(1 -2.29013e-08 0)
(1 -2.85753e-08 0)
(1 -4.10575e-11 0)
(1 -1.64797e-10 0)
(1 -3.40791e-10 0)
(1 -5.6209e-10 0)
(1 -8.35366e-10 0)
(1 -1.17279e-09 0)
(1 -1.58843e-09 0)
(1 -2.09871e-09 0)
(1 -2.72288e-09 0)
(1 -3.48361e-09 0)
(1 -4.40768e-09 0)
(1 -5.52684e-09 0)
(1 -6.8789e-09 0)
(1 -8.50897e-09 0)
(1 -1.04711e-08 0)
(1 -1.28299e-08 0)
(1 -1.56615e-08 0)
(1 -1.90761e-08 0)
(1 -2.30568e-08 0)
(1 -2.87451e-08 0)
(1 -4.2185e-11 0)
(1 -1.69403e-10 0)
(1 -3.50429e-10 0)
(1 -5.77314e-10 0)
(1 -8.56453e-10 0)
(1 -1.19998e-09 0)
(1 -1.62193e-09 0)
(1 -2.1387e-09 0)
(1 -2.76951e-09 0)
(1 -3.537e-09 0)
(1 -4.46792e-09 0)
(1 -5.594e-09 0)
(1 -6.95302e-09 0)
(1 -8.59009e-09 0)
(1 -1.05593e-08 0)
(1 -1.29255e-08 0)
(1 -1.57652e-08 0)
(1 -1.91884e-08 0)
(1 -2.31802e-08 0)
(1 -2.88813e-08 0)
(1 -4.29187e-11 0)
(1 -1.72375e-10 0)
(1 -3.56546e-10 0)
(1 -5.86956e-10 0)
(1 -8.69858e-10 0)
(1 -1.21735e-09 0)
(1 -1.64346e-09 0)
(1 -2.16455e-09 0)
(1 -2.79983e-09 0)
(1 -3.57192e-09 0)
(1 -4.50758e-09 0)
(1 -5.63852e-09 0)
(1 -7.00251e-09 0)
(1 -8.64471e-09 0)
(1 -1.06193e-08 0)
(1 -1.29911e-08 0)
(1 -1.58369e-08 0)
(1 -1.92668e-08 0)
(1 -2.32669e-08 0)
(1 -2.89771e-08 0)
(1 -4.33406e-11 0)
(1 -1.73984e-10 0)
(1 -3.59612e-10 0)
(1 -5.91686e-10 0)
(1 -8.76422e-10 0)
(1 -1.22589e-09 0)
(1 -1.65411e-09 0)
(1 -2.17743e-09 0)
(1 -2.81505e-09 0)
(1 -3.58959e-09 0)
(1 -4.52779e-09 0)
(1 -5.66139e-09 0)
(1 -7.02818e-09 0)
(1 -8.6733e-09 0)
(1 -1.06509e-08 0)
(1 -1.3026e-08 0)
(1 -1.58755e-08 0)
(1 -1.93091e-08 0)
(1 -2.33138e-08 0)
(1 -2.90282e-08 0)
(1 -4.3484e-11 0)
(1 -1.74286e-10 0)
(1 -3.59787e-10 0)
(1 -5.91763e-10 0)
(1 -8.76491e-10 0)
(1 -1.22603e-09 0)
(1 -1.65437e-09 0)
(1 -2.17787e-09 0)
(1 -2.81573e-09 0)
(1 -3.59054e-09 0)
(1 -4.52908e-09 0)
(1 -5.6631e-09 0)
(1 -7.03038e-09 0)
(1 -8.67608e-09 0)
(1 -1.06544e-08 0)
(1 -1.30302e-08 0)
(1 -1.58803e-08 0)
(1 -1.93144e-08 0)
(1 -2.33193e-08 0)
(1 -2.90325e-08 0)
(1 -4.33366e-11 0)
(1 -1.73227e-10 0)
(1 -3.57032e-10 0)
(1 -5.8716e-10 0)
(1 -8.70047e-10 0)
(1 -1.21773e-09 0)
(1 -1.64421e-09 0)
(1 -2.16584e-09 0)
(1 -2.8018e-09 0)
(1 -3.57473e-09 0)
(1 -4.5114e-09 0)
(1 -5.64356e-09 0)
(1 -7.00903e-09 0)
(1 -8.65295e-09 0)
(1 -1.06294e-08 0)
(1 -1.30033e-08 0)
(1 -1.58512e-08 0)
(1 -1.92826e-08 0)
(1 -2.32834e-08 0)
(1 -2.899e-08 0)
(1 -4.28457e-11 0)
(1 -1.70654e-10 0)
(1 -3.51123e-10 0)
(1 -5.7758e-10 0)
(1 -8.56714e-10 0)
(1 -1.20056e-09 0)
(1 -1.62311e-09 0)
(1 -2.14074e-09 0)
(1 -2.77266e-09 0)
(1 -3.54151e-09 0)
(1 -4.47408e-09 0)
(1 -5.60217e-09 0)
(1 -6.9636e-09 0)
(1 -8.6035e-09 0)
(1 -1.05759e-08 0)
(1 -1.29455e-08 0)
(1 -1.57885e-08 0)
(1 -1.92142e-08 0)
(1 -2.32072e-08 0)
(1 -2.89025e-08 0)
(1 -4.19146e-11 0)
(1 -1.66281e-10 0)
(1 -3.41599e-10 0)
(1 -5.62394e-10 0)
(1 -8.35701e-10 0)
(1 -1.17357e-09 0)
(1 -1.59002e-09 0)
(1 -2.10146e-09 0)
(1 -2.72712e-09 0)
(1 -3.48969e-09 0)
(1 -4.41599e-09 0)
(1 -5.53787e-09 0)
(1 -6.89318e-09 0)
(1 -8.52705e-09 0)
(1 -1.04934e-08 0)
(1 -1.28569e-08 0)
(1 -1.5693e-08 0)
(1 -1.9111e-08 0)
(1 -2.30932e-08 0)
(1 -2.87739e-08 0)
(1 -4.04091e-11 0)
(1 -1.59678e-10 0)
(1 -3.27749e-10 0)
(1 -5.40634e-10 0)
(1 -8.05821e-10 0)
(1 -1.13541e-09 0)
(1 -1.54348e-09 0)
(1 -2.04648e-09 0)
(1 -2.66369e-09 0)
(1 -3.41783e-09 0)
(1 -4.33579e-09 0)
(1 -5.44951e-09 0)
(1 -6.7969e-09 0)
(1 -8.42313e-09 0)
(1 -1.0382e-08 0)
(1 -1.27381e-08 0)
(1 -1.55664e-08 0)
(1 -1.89758e-08 0)
(1 -2.29458e-08 0)
(1 -2.86102e-08 0)
(1 -3.81599e-11 0)
(1 -1.50299e-10 0)
(1 -3.08731e-10 0)
(1 -5.11262e-10 0)
(1 -7.65936e-10 0)
(1 -1.08496e-09 0)
(1 -1.48245e-09 0)
(1 -1.97491e-09 0)
(1 -2.58165e-09 0)
(1 -3.32547e-09 0)
(1 -4.23334e-09 0)
(1 -5.33731e-09 0)
(1 -6.67545e-09 0)
(1 -8.29298e-09 0)
(1 -1.02437e-08 0)
(1 -1.25922e-08 0)
(1 -1.54127e-08 0)
(1 -1.88141e-08 0)
(1 -2.27722e-08 0)
(1 -2.84208e-08 0)
(1 -3.48374e-11 0)
(1 -1.37248e-10 0)
(1 -2.83424e-10 0)
(1 -4.73231e-10 0)
(1 -7.15261e-10 0)
(1 -1.02178e-09 0)
(1 -1.40693e-09 0)
(1 -1.88721e-09 0)
(1 -2.48198e-09 0)
(1 -3.21411e-09 0)
(1 -4.11071e-09 0)
(1 -5.20399e-09 0)
(1 -6.53222e-09 0)
(1 -8.14081e-09 0)
(1 -1.00836e-08 0)
(1 -1.24254e-08 0)
(1 -1.52397e-08 0)
(1 -1.86355e-08 0)
(1 -2.25841e-08 0)
(1 -2.82195e-08 0)
(1 -2.95119e-11 0)
(1 -1.18408e-10 0)
(1 -2.49164e-10 0)
(1 -4.23816e-10 0)
(1 -6.5126e-10 0)
(1 -9.43622e-10 0)
(1 -1.31494e-09 0)
(1 -1.78168e-09 0)
(1 -2.36325e-09 0)
(1 -3.08262e-09 0)
(1 -3.96708e-09 0)
(1 -5.04909e-09 0)
(1 -6.36721e-09 0)
(1 -7.96717e-09 0)
(1 -9.90311e-09 0)
(1 -1.22401e-08 0)
(1 -1.50515e-08 0)
(1 -1.84464e-08 0)
(1 -2.23914e-08 0)
(1 -2.80196e-08 0)
(1 -2.08795e-11 0)
(1 -9.08788e-11 0)
(1 -2.01882e-10 0)
(1 -3.57825e-10 0)
(1 -5.67621e-10 0)
(1 -8.43029e-10 0)
(1 -1.19784e-09 0)
(1 -1.64847e-09 0)
(1 -2.21439e-09 0)
(1 -2.91873e-09 0)
(1 -3.78905e-09 0)
(1 -4.85816e-09 0)
(1 -6.16509e-09 0)
(1 -7.75605e-09 0)
(1 -9.68568e-09 0)
(1 -1.20198e-08 0)
(1 -1.48321e-08 0)
(1 -1.82329e-08 0)
(1 -2.21863e-08 0)
(1 -2.78243e-08 0)
(1 -1.03469e-11 0)
(1 -6.0393e-11 0)
(1 -1.51224e-10 0)
(1 -2.88036e-10 0)
(1 -4.79477e-10 0)
(1 -7.37099e-10 0)
(1 -1.07454e-09 0)
(1 -1.50819e-09 0)
(1 -2.05761e-09 0)
(1 -2.74615e-09 0)
(1 -3.60164e-09 0)
(1 -4.65729e-09 0)
(1 -5.95263e-09 0)
(1 -7.53446e-09 0)
(1 -9.45806e-09 0)
(1 -1.179e-08 0)
(1 -1.46053e-08 0)
(1 -1.80152e-08 0)
(1 -2.19861e-08 0)
(1 -2.76515e-08 0)
)
;

boundaryField
{
    inlet
    {
        type            fixedValue;
        value           uniform (1 0 0);
    }
    outlet
    {
        type            zeroGradient;
    }
    up
    {
        type            zeroGradient;
    }
    down
    {
        type            zeroGradient;
    }
    frontAndBack
    {
        type            empty;
    }
}


// ************************************************************************* //
