/*--------------------------------*- C++ -*----------------------------------*\
  =========                 |
  \\      /  F ield         | OpenFOAM: The Open Source CFD Toolbox
   \\    /   O peration     | Website:  https://openfoam.org
    \\  /    A nd           | Version:  8
     \\/     M anipulation  |
\*---------------------------------------------------------------------------*/
FoamFile
{
    version     2.0;
    format      ascii;
    class       surfaceScalarField;
    location    "38";
    object      phi;
}
// * * * * * * * * * * * * * * * * * * * * * * * * * * * * * * * * * * * * * //

dimensions      [0 3 -1 0 0 0 0];

internalField   nonuniform List<scalar> 
760
(
0.0004
-1.87995e-16
0.0004
-9.06236e-16
0.0004
-2.1124e-15
0.0004
-3.84488e-15
0.0004
-6.20131e-15
0.0004
-9.32033e-15
0.0004
-1.33564e-14
0.0004
-1.84986e-14
0.0004
-2.49741e-14
0.0004
-3.30525e-14
0.0004
-4.30541e-14
0.0004
-5.53592e-14
0.0004
-7.04208e-14
0.0004
-8.8777e-14
0.0004
-1.11065e-13
0.0004
-1.38049e-13
0.0004
-1.70594e-13
0.0004
-2.10004e-13
0.0004
-2.55856e-13
-3.21354e-13
0.0004
-2.95955e-16
0.0004
-1.22085e-15
0.0004
-2.63925e-15
0.0004
-4.57221e-15
0.0004
-7.11784e-15
0.0004
-1.04176e-14
0.0004
-1.46307e-14
0.0004
-1.99465e-14
0.0004
-2.65906e-14
0.0004
-3.48303e-14
0.0004
-4.49829e-14
0.0004
-5.74253e-14
0.0004
-7.26046e-14
0.0004
-9.10537e-14
0.0004
-1.13404e-13
0.0004
-1.40412e-13
0.0004
-1.72934e-13
0.0004
-2.12256e-13
0.0004
-2.57975e-13
-3.23297e-13
0.0004
-3.6834e-16
0.0004
-1.46749e-15
0.0004
-3.07859e-15
0.0004
-5.19902e-15
0.0004
-7.92302e-15
0.0004
-1.13945e-14
0.0004
-1.57755e-14
0.0004
-2.12559e-14
0.0004
-2.80604e-14
0.0004
-3.64549e-14
0.0004
-4.67539e-14
0.0004
-5.9331e-14
0.0004
-7.463e-14
0.0004
-9.31788e-14
0.0004
-1.15605e-13
0.0004
-1.42659e-13
0.0004
-1.752e-13
0.0004
-2.14503e-13
0.0004
-2.6022e-13
-3.25577e-13
0.0004
-4.14152e-16
0.0004
-1.64715e-15
0.0004
-3.42117e-15
0.0004
-5.7067e-15
0.0004
-8.59162e-15
0.0004
-1.22203e-14
0.0004
-1.67558e-14
0.0004
-2.23885e-14
0.0004
-2.93426e-14
0.0004
-3.78826e-14
0.0004
-4.8321e-14
0.0004
-6.10293e-14
0.0004
-7.64488e-14
0.0004
-9.51041e-14
0.0004
-1.1762e-13
0.0004
-1.44748e-13
0.0004
-1.77347e-13
0.0004
-2.16695e-13
0.0004
-2.6249e-13
-3.27958e-13
0.0004
-4.45242e-16
0.0004
-1.77646e-15
0.0004
-3.67957e-15
0.0004
-6.10077e-15
0.0004
-9.12225e-15
0.0004
-1.28866e-14
0.0004
-1.7557e-14
0.0004
-2.33241e-14
0.0004
-3.04113e-14
0.0004
-3.90821e-14
0.0004
-4.96478e-14
0.0004
-6.24782e-14
0.0004
-7.80134e-14
0.0004
-9.67759e-14
0.0004
-1.1939e-13
0.0004
-1.46606e-13
0.0004
-1.79293e-13
0.0004
-2.18724e-13
0.0004
-2.64646e-13
-3.30274e-13
0.0004
-4.67015e-16
0.0004
-1.86856e-15
0.0004
-3.86944e-15
0.0004
-6.39609e-15
0.0004
-9.52671e-15
0.0004
-1.34011e-14
0.0004
-1.81826e-14
0.0004
-2.40613e-14
0.0004
-3.12604e-14
0.0004
-4.00427e-14
0.0004
-5.07182e-14
0.0004
-6.3656e-14
0.0004
-7.92953e-14
0.0004
-9.81584e-14
0.0004
-1.20869e-13
0.0004
-1.48179e-13
0.0004
-1.80965e-13
0.0004
-2.20499e-13
0.0004
-2.66566e-13
-3.32377e-13
0.0004
-4.81962e-16
0.0004
-1.93282e-15
0.0004
-4.0041e-15
0.0004
-6.60884e-15
0.0004
-9.82077e-15
0.0004
-1.37788e-14
0.0004
-1.86455e-14
0.0004
-2.4611e-14
0.0004
-3.1898e-14
0.0004
-4.07685e-14
0.0004
-5.15325e-14
0.0004
-6.45581e-14
0.0004
-8.02844e-14
0.0004
-9.92335e-14
0.0004
-1.2203e-13
0.0004
-1.49428e-13
0.0004
-1.82309e-13
0.0004
-2.21946e-13
0.0004
-2.68154e-13
-3.34142e-13
0.0004
-4.91591e-16
0.0004
-1.97506e-15
0.0004
-4.09404e-15
0.0004
-6.75209e-15
0.0004
-1.00196e-14
0.0004
-1.40354e-14
0.0004
-1.89619e-14
0.0004
-2.49887e-14
0.0004
-3.23381e-14
0.0004
-4.12721e-14
0.0004
-5.21003e-14
0.0004
-6.5191e-14
0.0004
-8.09824e-14
0.0004
-9.99976e-14
0.0004
-1.22862e-13
0.0004
-1.5033e-13
0.0004
-1.8329e-13
0.0004
-2.23015e-13
0.0004
-2.69339e-13
-3.35474e-13
0.0004
-4.97426e-16
0.0004
-1.99888e-15
0.0004
-4.14581e-15
0.0004
-6.83485e-15
0.0004
-1.01346e-14
0.0004
-1.41841e-14
0.0004
-1.91455e-14
0.0004
-2.52084e-14
0.0004
-3.25951e-14
0.0004
-4.1567e-14
0.0004
-5.24343e-14
0.0004
-6.55651e-14
0.0004
-8.13972e-14
0.0004
-1.00454e-13
0.0004
-1.23363e-13
0.0004
-1.50877e-13
0.0004
-1.8389e-13
0.0004
-2.23674e-13
0.0004
-2.70077e-13
-3.3631e-13
0.0004
-4.9964e-16
0.0004
-2.00656e-15
0.0004
-4.16337e-15
0.0004
-6.86245e-15
0.0004
-1.01727e-14
0.0004
-1.4233e-14
0.0004
-1.92055e-14
0.0004
-2.52802e-14
0.0004
-3.26791e-14
0.0004
-4.16638e-14
0.0004
-5.25443e-14
0.0004
-6.56892e-14
0.0004
-8.15359e-14
0.0004
-1.00608e-13
0.0004
-1.23533e-13
0.0004
-1.51066e-13
0.0004
-1.84099e-13
0.0004
-2.23908e-13
0.0004
-2.70342e-13
-3.36616e-13
0.0004
-4.98073e-16
0.0004
-1.99895e-15
0.0004
-4.14773e-15
0.0004
-6.83688e-15
0.0004
-1.01361e-14
0.0004
-1.41847e-14
0.0004
-1.91451e-14
0.0004
-2.52073e-14
0.0004
-3.25938e-14
0.0004
-4.15661e-14
0.0004
-5.2434e-14
0.0004
-6.55668e-14
0.0004
-8.14013e-14
0.0004
-1.00461e-13
0.0004
-1.23375e-13
0.0004
-1.50896e-13
0.0004
-1.83916e-13
0.0004
-2.23711e-13
0.0004
-2.70127e-13
-3.3638e-13
0.0004
-4.92774e-16
0.0004
-1.97535e-15
0.0004
-4.09742e-15
0.0004
-6.75608e-15
0.0004
-1.00223e-14
0.0004
-1.40364e-14
0.0004
-1.89609e-14
0.0004
-2.49864e-14
0.0004
-3.23355e-14
0.0004
-4.12699e-14
0.0004
-5.20996e-14
0.0004
-6.51941e-14
0.0004
-8.09903e-14
0.0004
-1.00011e-13
0.0004
-1.22886e-13
0.0004
-1.50367e-13
0.0004
-1.83342e-13
0.0004
-2.23088e-13
0.0004
-2.69439e-13
-3.35612e-13
0.0004
-4.83536e-16
0.0004
-1.93338e-15
0.0004
-4.00851e-15
0.0004
-6.61434e-15
0.0004
-9.82417e-15
0.0004
-1.37796e-14
0.0004
-1.86438e-14
0.0004
-2.46075e-14
0.0004
-3.18939e-14
0.0004
-4.07652e-14
0.0004
-5.15315e-14
0.0004
-6.45625e-14
0.0004
-8.02956e-14
0.0004
-9.92539e-14
0.0004
-1.22065e-13
0.0004
-1.49481e-13
0.0004
-1.82385e-13
0.0004
-2.22053e-13
0.0004
-2.68301e-13
-3.34346e-13
0.0004
-4.69053e-16
0.0004
-1.86915e-15
0.0004
-3.87432e-15
0.0004
-6.40232e-15
0.0004
-9.53033e-15
0.0004
-1.34015e-14
0.0004
-1.81798e-14
0.0004
-2.40563e-14
0.0004
-3.12547e-14
0.0004
-4.0038e-14
0.0004
-5.07169e-14
0.0004
-6.36613e-14
0.0004
-7.93094e-14
0.0004
-9.81848e-14
0.0004
-1.20914e-13
0.0004
-1.48248e-13
0.0004
-1.81064e-13
0.0004
-2.20638e-13
0.0004
-2.66757e-13
-3.32642e-13
0.0004
-4.47133e-16
0.0004
-1.77685e-15
0.0004
-3.68493e-15
0.0004
-6.10689e-15
0.0004
-9.12596e-15
0.0004
-1.28864e-14
0.0004
-1.7553e-14
0.0004
-2.33173e-14
0.0004
-3.04038e-14
0.0004
-3.90762e-14
0.0004
-4.96461e-14
0.0004
-6.2484e-14
0.0004
-7.80297e-14
0.0004
-9.68074e-14
0.0004
-1.19444e-13
0.0004
-1.46688e-13
0.0004
-1.79411e-13
0.0004
-2.18891e-13
0.0004
-2.64875e-13
-3.30593e-13
0.0004
-4.15086e-16
0.0004
-1.64765e-15
0.0004
-3.42679e-15
0.0004
-5.71243e-15
0.0004
-8.59508e-15
0.0004
-1.22193e-14
0.0004
-1.67504e-14
0.0004
-2.23801e-14
0.0004
-2.93334e-14
0.0004
-3.78754e-14
0.0004
-4.83188e-14
0.0004
-6.10352e-14
0.0004
-7.64665e-14
0.0004
-9.51392e-14
0.0004
-1.1768e-13
0.0004
-1.4484e-13
0.0004
-1.77482e-13
0.0004
-2.16883e-13
0.0004
-2.6275e-13
-3.28322e-13
0.0004
-3.67808e-16
0.0004
-1.46856e-15
0.0004
-3.0841e-15
0.0004
-5.20432e-15
0.0004
-7.92608e-15
0.0004
-1.13927e-14
0.0004
-1.57687e-14
0.0004
-2.12459e-14
0.0004
-2.80498e-14
0.0004
-3.64467e-14
0.0004
-4.67512e-14
0.0004
-5.93365e-14
0.0004
-7.46481e-14
0.0004
-9.32159e-14
0.0004
-1.15669e-13
0.0004
-1.42759e-13
0.0004
-1.75346e-13
0.0004
-2.14708e-13
0.0004
-2.60501e-13
-3.25973e-13
0.0004
-2.94483e-16
0.0004
-1.22304e-15
0.0004
-2.64395e-15
0.0004
-4.57681e-15
0.0004
-7.12071e-15
0.0004
-1.04152e-14
0.0004
-1.46229e-14
0.0004
-1.99354e-14
0.0004
-2.65788e-14
0.0004
-3.48214e-14
0.0004
-4.49799e-14
0.0004
-5.74301e-14
0.0004
-7.26219e-14
0.0004
-9.1091e-14
0.0004
-1.13471e-13
0.0004
-1.40517e-13
0.0004
-1.73088e-13
0.0004
-2.12471e-13
0.0004
-2.58271e-13
-3.23714e-13
0.0004
-1.87726e-16
0.0004
-9.11236e-16
0.0004
-2.11743e-15
0.0004
-3.85167e-15
0.0004
-6.20866e-15
0.0004
-9.32252e-15
0.0004
-1.3353e-14
0.0004
-1.84924e-14
0.0004
-2.49684e-14
0.0004
-3.30508e-14
0.0004
-4.30586e-14
0.0004
-5.53711e-14
0.0004
-7.04434e-14
0.0004
-8.88195e-14
0.0004
-1.11139e-13
0.0004
-1.38163e-13
0.0004
-1.70757e-13
0.0004
-2.1023e-13
0.0004
-2.5616e-13
-3.2178e-13
0.0004
0.0004
0.0004
0.0004
0.0004
0.0004
0.0004
0.0004
0.0004
0.0004
0.0004
0.0004
0.0004
0.0004
0.0004
0.0004
0.0004
0.0004
0.0004
)
;

boundaryField
{
    inlet
    {
        type            calculated;
        value           nonuniform List<scalar> 
20
(
-0.0004
-0.0004
-0.0004
-0.0004
-0.0004
-0.0004
-0.0004
-0.0004
-0.0004
-0.0004
-0.0004
-0.0004
-0.0004
-0.0004
-0.0004
-0.0004
-0.0004
-0.0004
-0.0004
-0.0004
)
;
    }
    outlet
    {
        type            calculated;
        value           nonuniform List<scalar> 
20
(
0.0004
0.0004
0.0004
0.0004
0.0004
0.0004
0.0004
0.0004
0.0004
0.0004
0.0004
0.0004
0.0004
0.0004
0.0004
0.0004
0.0004
0.0004
0.0004
0.0004
)
;
    }
    up
    {
        type            calculated;
        value           nonuniform List<scalar> 
20
(
-4.39815e-17
-5.42553e-16
-1.55018e-15
-3.08429e-15
-5.24693e-15
-8.17251e-15
-1.20193e-14
-1.69783e-14
-2.32798e-14
-3.11972e-14
-4.10521e-14
-5.32253e-14
-6.81775e-14
-8.64613e-14
-1.08726e-13
-1.35742e-13
-1.68386e-13
-2.07973e-13
-2.54178e-13
-3.20241e-13
)
;
    }
    down
    {
        type            calculated;
        value           nonuniform List<scalar> 
20
(
4.29806e-17
5.35069e-16
1.54493e-15
3.07642e-15
5.23608e-15
8.1651e-15
1.20169e-14
1.69788e-14
2.32789e-14
3.11895e-14
4.10345e-14
5.31992e-14
6.81418e-14
8.64075e-14
1.08641e-13
1.35613e-13
1.68207e-13
2.07733e-13
2.53857e-13
3.19799e-13
)
;
    }
    frontAndBack
    {
        type            empty;
        value           nonuniform List<scalar> 0();
    }
}


// ************************************************************************* //
