0 	1.36881e-08
1.57135 	-3.97734e-07
3.1427 	-3.59219e-07
4.71405 	5.44039e-06
6.28539 	2.91614e-05
7.85674 	9.28029e-05
9.42809 	0.000221705
10.9994 	0.000399093
12.5708 	4.16364e-05
14.1421 	0.0100586
