/*--------------------------------*- C++ -*----------------------------------*\
  =========                 |
  \\      /  F ield         | OpenFOAM: The Open Source CFD Toolbox
   \\    /   O peration     | Website:  https://openfoam.org
    \\  /    A nd           | Version:  8
     \\/     M anipulation  |
\*---------------------------------------------------------------------------*/
FoamFile
{
    version     2.0;
    format      ascii;
    class       volVectorField;
    location    "0.46";
    object      U;
}
// * * * * * * * * * * * * * * * * * * * * * * * * * * * * * * * * * * * * * //

dimensions      [0 1 -1 0 0 0 0];

internalField   nonuniform List<vector> 
400
(
(0.000253403 -0.000250454 0)
(0.000141204 0.000111423 0)
(-0.00117703 0.000564617 0)
(-0.00348125 0.000885009 0)
(-0.00637774 0.00104574 0)
(-0.00946986 0.00106178 0)
(-0.0124035 0.00095788 0)
(-0.0148856 0.000760464 0)
(-0.0166902 0.000494661 0)
(-0.0176591 0.000184566 0)
(-0.017703 -0.000145276 0)
(-0.0168059 -0.000468388 0)
(-0.0150308 -0.000755447 0)
(-0.0125257 -0.000974305 0)
(-0.00952679 -0.00109124 0)
(-0.00635523 -0.00107405 0)
(-0.00340076 -0.000898156 0)
(-0.00108646 -0.000556409 0)
(0.000196442 -9.03658e-05 0)
(0.000267873 0.000262398 0)
(-7.7474e-05 -0.000169393 0)
(-0.00161164 0.00164489 0)
(-0.0056932 0.00361746 0)
(-0.0117195 0.00503507 0)
(-0.0188933 0.00574352 0)
(-0.0264023 0.0057605 0)
(-0.0334711 0.00517194 0)
(-0.0394291 0.00409273 0)
(-0.0437466 0.00264777 0)
(-0.0460499 0.000966968 0)
(-0.0461322 -0.000813283 0)
(-0.0439639 -0.00254723 0)
(-0.0397035 -0.00407888 0)
(-0.0337046 -0.00524541 0)
(-0.0265149 -0.00588689 0)
(-0.0188556 -0.00586518 0)
(-0.0115673 -0.00509502 0)
(-0.00551356 -0.0035896 0)
(-0.00149315 -0.0015592 0)
(-4.25778e-05 0.000227479 0)
(-0.000528641 0.00109167 0)
(-0.00371162 0.00573659 0)
(-0.0105896 0.010225 0)
(-0.0199929 0.0134084 0)
(-0.0307667 0.0149471 0)
(-0.0418249 0.0148397 0)
(-0.0521232 0.0132565 0)
(-0.0607481 0.0104568 0)
(-0.0669738 0.00674236 0)
(-0.0702872 0.00243897 0)
(-0.0704052 -0.00210672 0)
(-0.0672886 -0.0065259 0)
(-0.0611562 -0.0104299 0)
(-0.0524917 -0.0134219 0)
(-0.0420396 -0.0151244 0)
(-0.0307757 -0.0152265 0)
(-0.0198302 -0.0135567 0)
(-0.0103641 -0.0101794 0)
(-0.0035487 -0.00555134 0)
(-0.000476868 -0.000948865 0)
(-0.000928283 0.00348003 0)
(-0.00569184 0.0122213 0)
(-0.0153027 0.0199228 0)
(-0.0279186 0.0251993 0)
(-0.041988 0.0275986 0)
(-0.0561826 0.027139 0)
(-0.0692564 0.0241103 0)
(-0.0801308 0.0189549 0)
(-0.0879538 0.0121962 0)
(-0.0921246 0.00440524 0)
(-0.0923092 -0.0038083 0)
(-0.0884556 -0.0117974 0)
(-0.0808098 -0.0188833 0)
(-0.0699271 -0.0243778 0)
(-0.0566725 -0.0276292 0)
(-0.0421972 -0.0281033 0)
(-0.0278581 -0.025499 0)
(-0.0150945 -0.0198927 0)
(-0.00550533 -0.0119283 0)
(-0.000861645 -0.00322501 0)
(-0.00127901 0.00687818 0)
(-0.00753648 0.0209548 0)
(-0.0198059 0.0325121 0)
(-0.0355369 0.0401054 0)
(-0.0527465 0.0432926 0)
(-0.0698626 0.042195 0)
(-0.0854684 0.0372795 0)
(-0.0983663 0.0292146 0)
(-0.107626 0.0187781 0)
(-0.112595 0.00681394 0)
(-0.112904 -0.00578088 0)
(-0.10848 -0.0180559 0)
(-0.0995677 -0.0290131 0)
(-0.0867439 -0.0376348 0)
(-0.0709395 -0.0429473 0)
(-0.053433 -0.0441311 0)
(-0.0357864 -0.0406807 0)
(-0.0197361 -0.032594 0)
(-0.00737095 -0.0205915 0)
(-0.00120373 -0.00649843 0)
(-0.0016076 0.0112162 0)
(-0.00931846 0.0318761 0)
(-0.0242104 0.0479541 0)
(-0.0430046 0.0580746 0)
(-0.0632599 0.06194 0)
(-0.0831568 0.0598839 0)
(-0.101129 0.0526306 0)
(-0.115897 0.0411276 0)
(-0.126494 0.0264381 0)
(-0.132243 0.00969311 0)
(-0.132755 -0.00791694 0)
(-0.127928 -0.0251335 0)
(-0.117971 -0.040627 0)
(-0.103438 -0.0530218 0)
(-0.0852722 -0.0609689 0)
(-0.064838 -0.0632827 0)
(-0.0438871 -0.0591443 0)
(-0.0244785 -0.0483462 0)
(-0.00925464 -0.0315587 0)
(-0.00153781 -0.0107289 0)
(-0.00194011 0.0164777 0)
(-0.0111216 0.0449759 0)
(-0.0286512 0.0662358 0)
(-0.0504813 0.0790623 0)
(-0.0736871 0.0834493 0)
(-0.0962066 0.080077 0)
(-0.116355 0.0700268 0)
(-0.132818 0.0545867 0)
(-0.144635 0.0351328 0)
(-0.151146 0.0130849 0)
(-0.151953 -0.0100872 0)
(-0.146919 -0.0328341 0)
(-0.136185 -0.0535018 0)
(-0.120226 -0.0703395 0)
(-0.099935 -0.0815681 0)
(-0.0767032 -0.0855355 0)
(-0.0524413 -0.0809662 0)
(-0.0295455 -0.067279 0)
(-0.0112839 -0.0449408 0)
(-0.00190012 -0.015952 0)
(-0.00230007 0.0226956 0)
(-0.0130252 0.0603026 0)
(-0.0332513 0.087366 0)
(-0.0580805 0.102999 0)
(-0.0840758 0.107668 0)
(-0.108955 0.102564 0)
(-0.130969 0.0892465 0)
(-0.148837 0.0694126 0)
(-0.161669 0.0447727 0)
(-0.16887 0.01702 0)
(-0.170065 -0.0121342 0)
(-0.165073 -0.0408947 0)
(-0.153932 -0.0673165 0)
(-0.136971 -0.0892758 0)
(-0.114944 -0.104515 0)
(-0.0891769 -0.110799 0)
(-0.0616713 -0.106215 0)
(-0.0351487 -0.0895814 0)
(-0.013586 -0.0609508 0)
(-0.00232636 -0.0222781 0)
(-0.00271165 0.0299476 0)
(-0.015108 0.0779581 0)
(-0.0381149 0.111358 0)
(-0.0658486 0.129752 0)
(-0.0943271 0.13432 0)
(-0.121099 0.126976 0)
(-0.144444 0.109904 0)
(-0.163214 0.0852833 0)
(-0.176688 0.055168 0)
(-0.184407 0.0214871 0)
(-0.186058 -0.0138754 0)
(-0.181422 -0.048958 0)
(-0.170395 -0.0815954 0)
(-0.153081 -0.109326 0)
(-0.129971 -0.129384 0)
(-0.102186 -0.138831 0)
(-0.0716897 -0.134889 0)
(-0.0414671 -0.115471 0)
(-0.0162881 -0.0798966 0)
(-0.00285471 -0.0298901 0)
(-0.00320765 0.0383601 0)
(-0.0174662 0.0980906 0)
(-0.043341 0.138191 0)
(-0.0737565 0.159048 0)
(-0.10416 0.162903 0)
(-0.132032 0.152675 0)
(-0.155825 0.131343 0)
(-0.174679 0.101642 0)
(-0.188168 0.0659585 0)
(-0.196068 0.0263897 0)
(-0.198186 -0.0151133 0)
(-0.194284 -0.0565466 0)
(-0.184082 -0.0956438 0)
(-0.167366 -0.129691 0)
(-0.144215 -0.155426 0)
(-0.115339 -0.1691 0)
(-0.0824458 -0.166805 0)
(-0.0486361 -0.145126 0)
(-0.0195287 -0.102161 0)
(-0.00353357 -0.0390476 0)
(-0.00384394 0.048129 0)
(-0.0202461 0.120894 0)
(-0.0490464 0.167753 0)
(-0.0816862 0.190368 0)
(-0.113053 0.192559 0)
(-0.140746 0.178617 0)
(-0.163621 0.152514 0)
(-0.181309 0.117594 0)
(-0.193846 0.0765358 0)
(-0.20136 0.0314945 0)
(-0.203857 -0.0156593 0)
(-0.201109 -0.0630515 0)
(-0.192648 -0.108493 0)
(-0.177857 -0.149173 0)
(-0.156224 -0.181417 0)
(-0.127779 -0.200609 0)
(-0.0936441 -0.201426 0)
(-0.056733 -0.178575 0)
(-0.0234798 -0.128174 0)
(-0.00443553 -0.0501048 0)
(-0.00472535 0.0595715 0)
(-0.0236946 0.146618 0)
(-0.0553827 0.199757 0)
(-0.089376 0.222792 0)
(-0.120122 0.221894 0)
(-0.145675 0.20319 0)
(-0.16563 0.171842 0)
(-0.18037 0.131812 0)
(-0.19058 0.0859708 0)
(-0.196862 0.0363767 0)
(-0.199501 -0.0153709 0)
(-0.198335 -0.0677439 0)
(-0.192717 -0.118868 0)
(-0.181574 -0.16608 0)
(-0.163645 -0.20549 0)
(-0.137966 -0.231663 0)
(-0.104596 -0.237627 0)
(-0.0657334 -0.215526 0)
(-0.0283777 -0.158368 0)
(-0.00568207 -0.0635525 0)
(-0.00605155 0.0732285 0)
(-0.0282257 0.175564 0)
(-0.0625084 0.233572 0)
(-0.0962564 0.254748 0)
(-0.123856 0.248733 0)
(-0.144397 0.224028 0)
(-0.158669 0.187109 0)
(-0.168106 0.142463 0)
(-0.1742 0.0929697 0)
(-0.178117 0.0403794 0)
(-0.180484 -0.0141987 0)
(-0.181265 -0.069822 0)
(-0.179694 -0.125212 0)
(-0.174269 -0.178182 0)
(-0.162894 -0.224975 0)
(-0.143316 -0.25959 0)
(-0.113937 -0.27333 0)
(-0.0753929 -0.255068 0)
(-0.0345562 -0.193091 0)
(-0.00748627 -0.0801045 0)
(-0.00819202 0.0900464 0)
(-0.0344825 0.208021 0)
(-0.0704118 0.267884 0)
(-0.101022 0.283607 0)
(-0.121573 0.269812 0)
(-0.133106 0.237842 0)
(-0.138161 0.195406 0)
(-0.13946 0.147234 0)
(-0.139365 0.09591 0)
(-0.139593 0.0426199 0)
(-0.141107 -0.0122332 0)
(-0.144053 -0.0685078 0)
(-0.147667 -0.125795 0)
(-0.150168 -0.182771 0)
(-0.148719 -0.236326 0)
(-0.139643 -0.280448 0)
(-0.119094 -0.305027 0)
(-0.0849357 -0.29516 0)
(-0.0424403 -0.232378 0)
(-0.010216 -0.100837 0)
(-0.0117674 0.111635 0)
(-0.0432595 0.243962 0)
(-0.0782967 0.300035 0)
(-0.100627 0.305093 0)
(-0.10835 0.280461 0)
(-0.105729 0.240384 0)
(-0.0975264 0.193282 0)
(-0.0877674 0.14355 0)
(-0.0794972 0.0930364 0)
(-0.0747815 0.0420952 0)
(-0.0747991 -0.00972896 0)
(-0.0798872 -0.0632117 0)
(-0.0894596 -0.118991 0)
(-0.101786 -0.176958 0)
(-0.113684 -0.235286 0)
(-0.120303 -0.288883 0)
(-0.115262 -0.327197 0)
(-0.0922659 -0.331795 0)
(-0.0523155 -0.275404 0)
(-0.0144303 -0.127347 0)
(-0.0175493 0.140659 0)
(-0.0547643 0.282146 0)
(-0.0827856 0.324719 0)
(-0.0880792 0.312474 0)
(-0.0751066 0.274457 0)
(-0.0525884 0.226771 0)
(-0.0274553 0.177289 0)
(-0.0045109 0.129136 0)
(0.0131028 0.0829132 0)
(0.0234442 0.0379471 0)
(0.0254027 -0.00707365 0)
(0.0185114 -0.053759 0)
(0.00298347 -0.103753 0)
(-0.0199937 -0.158321 0)
(-0.0476833 -0.217503 0)
(-0.0749828 -0.278362 0)
(-0.0935454 -0.331792 0)
(-0.0920631 -0.357683 0)
(-0.0632803 -0.319294 0)
(-0.0206336 -0.161974 0)
(-0.0254497 0.181711 0)
(-0.0657744 0.317771 0)
(-0.0733325 0.331363 0)
(-0.0480759 0.295401 0)
(-0.00557657 0.244212 0)
(0.0412208 0.192381 0)
(0.0846559 0.145048 0)
(0.12054 0.102972 0)
(0.146706 0.0651382 0)
(0.162051 0.0298915 0)
(0.165945 -0.0046717 0)
(0.157939 -0.0406288 0)
(0.137735 -0.0802471 0)
(0.105443 -0.125918 0)
(0.0622644 -0.179727 0)
(0.0118074 -0.242021 0)
(-0.0378288 -0.307878 0)
(-0.0716788 -0.360143 0)
(-0.0700553 -0.356608 0)
(-0.0279122 -0.208375 0)
(-0.029649 0.239176 0)
(-0.0608412 0.335768 0)
(-0.0219421 0.300503 0)
(0.0505426 0.240128 0)
(0.127573 0.182949 0)
(0.197009 0.13539 0)
(0.254339 0.0973994 0)
(0.298253 0.0668514 0)
(0.328827 0.0413555 0)
(0.34647 0.0187786 0)
(0.351379 -0.00279425 0)
(0.343305 -0.0252654 0)
(0.321471 -0.0507881 0)
(0.284644 -0.0820485 0)
(0.231574 -0.122446 0)
(0.162182 -0.175669 0)
(0.0799013 -0.243432 0)
(-0.00318948 -0.319136 0)
(-0.0546694 -0.368612 0)
(-0.0284594 -0.267618 0)
(0.00808309 0.281861 0)
(0.0197831 0.294972 0)
(0.139066 0.210973 0)
(0.26446 0.143477 0)
(0.364368 0.0971861 0)
(0.440365 0.0657776 0)
(0.496744 0.0442376 0)
(0.536875 0.0288861 0)
(0.563448 0.0171989 0)
(0.578307 0.0074848 0)
(0.582382 -0.00149416 0)
(0.575697 -0.0108453 0)
(0.55731 -0.0218472 0)
(0.525136 -0.0363351 0)
(0.475778 -0.0572597 0)
(0.404538 -0.0893842 0)
(0.305177 -0.139741 0)
(0.173417 -0.216386 0)
(0.0411721 -0.311655 0)
(0.0184302 -0.299995 0)
(0.299604 0.146091 0)
(0.396272 0.127503 0)
(0.55742 0.0760895 0)
(0.674487 0.0437233 0)
(0.743889 0.0255721 0)
(0.787153 0.0152422 0)
(0.815486 0.00921236 0)
(0.833956 0.00550943 0)
(0.845386 0.00302719 0)
(0.851372 0.00114935 0)
(0.852666 -0.000499394 0)
(0.849383 -0.00221508 0)
(0.841 -0.00433858 0)
(0.826141 -0.0074241 0)
(0.802078 -0.0125323 0)
(0.763621 -0.0217729 0)
(0.699108 -0.0392829 0)
(0.583952 -0.0726601 0)
(0.415827 -0.127868 0)
(0.308819 -0.149468 0)
)
;

boundaryField
{
    movingWall
    {
        type            fixedValue;
        value           uniform (1 0 0);
    }
    fixedWalls
    {
        type            noSlip;
    }
    frontAndBack
    {
        type            empty;
    }
}


// ************************************************************************* //
