/*--------------------------------*- C++ -*----------------------------------*\
  =========                 |
  \\      /  F ield         | OpenFOAM: The Open Source CFD Toolbox
   \\    /   O peration     | Website:  https://openfoam.org
    \\  /    A nd           | Version:  8
     \\/     M anipulation  |
\*---------------------------------------------------------------------------*/
FoamFile
{
    version     2.0;
    format      ascii;
    class       volVectorField;
    location    "31";
    object      U;
}
// * * * * * * * * * * * * * * * * * * * * * * * * * * * * * * * * * * * * * //

dimensions      [0 1 -1 0 0 0 0];

internalField   nonuniform List<vector> 
12504
(
(1.00014 -0.000694582 8.55524e-07)
(1.00354 -0.0020702 -1.05576e-06)
(1.01032 -0.00338777 -1.97745e-06)
(1.02039 -0.00460285 -1.31289e-06)
(1.03339 -0.00567803 -7.05964e-07)
(1.0489 -0.00658311 -4.78107e-07)
(1.06645 -0.00729626 -3.33472e-07)
(1.08555 -0.007806 -1.16356e-08)
(1.10568 -0.00811247 3.45717e-07)
(1.12633 -0.00822738 6.65522e-07)
(1.14704 -0.00817237 9.07469e-07)
(1.16741 -0.00797615 1.04487e-06)
(1.18712 -0.00767058 1.06688e-06)
(1.20594 -0.00728674 9.91219e-07)
(1.2237 -0.00685182 8.53174e-07)
(1.24031 -0.00638757 6.97524e-07)
(1.25573 -0.00591025 5.51963e-07)
(1.26993 -0.00543137 4.34555e-07)
(1.28293 -0.00495894 3.39526e-07)
(1.29476 -0.00449821 2.69636e-07)
(1.30545 -0.00405251 2.10591e-07)
(1.31504 -0.00362366 1.7308e-07)
(1.32358 -0.00321263 1.37179e-07)
(1.33111 -0.00281963 1.22782e-07)
(1.33769 -0.00244471 9.72596e-08)
(1.34334 -0.00208739 9.82373e-08)
(1.34813 -0.00174743 7.20765e-08)
(1.35208 -0.00142411 8.6802e-08)
(1.35526 -0.00111718 5.1924e-08)
(1.35767 -0.000825809 8.58947e-08)
(1.35939 -0.000549952 3.01328e-08)
(1.36041 -0.000288733 9.30874e-08)
(1.36085 -4.24182e-05 -4.28265e-09)
(1.36062 0.00018988 1.12149e-07)
(1.35991 0.00040739 -4.36542e-08)
(1.35856 0.000611393 1.65479e-07)
(1.35687 0.000800487 -1.12778e-07)
(1.35453 0.000976314 2.52757e-07)
(1.35203 0.00113673 -2.42091e-07)
(1.34879 0.00128406 4.0813e-07)
(1.34567 0.00141528 -4.70597e-07)
(1.34162 0.00153366 6.90465e-07)
(1.33812 0.00163519 -8.7217e-07)
(1.33327 0.0017243 1.1963e-06)
(1.32971 0.00179611 -1.56056e-06)
(1.32399 0.00185582 2.05124e-06)
(1.32082 0.00189884 -2.60302e-06)
(1.31395 0.00192867 3.16628e-06)
(1.31189 0.00194592 -3.30931e-06)
(1.30325 0.00194251 2.11658e-06)
(1.00015 -0.00210211 8.26047e-07)
(1.00362 -0.00626001 -1.11794e-06)
(1.01055 -0.0102415 -2.00864e-06)
(1.02084 -0.0139134 -1.34004e-06)
(1.03414 -0.0171609 -7.39918e-07)
(1.04998 -0.0198915 -5.11421e-07)
(1.0679 -0.022039 -3.49976e-07)
(1.08738 -0.0235686 1.20113e-09)
(1.10788 -0.0244811 3.84475e-07)
(1.12888 -0.0248125 7.24704e-07)
(1.1499 -0.0246298 9.77446e-07)
(1.17053 -0.0240212 1.11232e-06)
(1.19046 -0.0230849 1.11976e-06)
(1.20944 -0.0219158 1.02418e-06)
(1.22732 -0.0205964 8.69007e-07)
(1.24402 -0.0191922 7.04164e-07)
(1.2595 -0.0177515 5.5749e-07)
(1.27375 -0.0163084 4.43835e-07)
(1.28679 -0.0148865 3.53467e-07)
(1.29864 -0.0135011 2.87435e-07)
(1.30935 -0.0121618 2.31296e-07)
(1.31896 -0.0108737 1.96236e-07)
(1.32751 -0.00963959 1.62258e-07)
(1.33505 -0.00845987 1.49163e-07)
(1.34164 -0.00733454 1.23824e-07)
(1.3473 -0.00626222 1.24279e-07)
(1.35209 -0.005242 9.74055e-08)
(1.35605 -0.00427178 1.11104e-07)
(1.35923 -0.00335067 7.49451e-08)
(1.36164 -0.00247634 1.07698e-07)
(1.36337 -0.00164841 5.06598e-08)
(1.36439 -0.000864532 1.11099e-07)
(1.36482 -0.000125153 1.02165e-08)
(1.36459 0.000571956 1.24645e-07)
(1.36388 0.00122519 -2.85348e-08)
(1.36253 0.00183733 1.78861e-07)
(1.36083 0.00240552 -9.66706e-08)
(1.35848 0.00293288 2.6378e-07)
(1.35597 0.00341537 -2.25501e-07)
(1.35272 0.00385675 4.14835e-07)
(1.34959 0.00425217 -4.52113e-07)
(1.34552 0.00460584 6.90651e-07)
(1.34202 0.00491312 -8.48452e-07)
(1.33714 0.00517752 1.18574e-06)
(1.33358 0.00539713 -1.52695e-06)
(1.32783 0.00557118 2.02363e-06)
(1.32466 0.00570655 -2.5541e-06)
(1.31776 0.00578862 3.11744e-06)
(1.3157 0.00584785 -3.25672e-06)
(1.30702 0.00583164 2.09422e-06)
(1.00015 -0.00355898 8.43081e-07)
(1.00378 -0.0105928 -1.19606e-06)
(1.01102 -0.0173265 -2.11004e-06)
(1.02178 -0.0235353 -1.41586e-06)
(1.03566 -0.0290211 -7.9404e-07)
(1.05219 -0.0336247 -5.46809e-07)
(1.07086 -0.0372325 -3.47165e-07)
(1.09111 -0.0397846 5.9974e-08)
(1.11238 -0.0412829 5.05165e-07)
(1.13409 -0.0417911 8.96478e-07)
(1.15574 -0.0414271 1.17577e-06)
(1.17691 -0.0403465 1.30296e-06)
(1.19726 -0.0387209 1.27087e-06)
(1.21657 -0.0367143 1.12007e-06)
(1.2347 -0.0344675 9.14081e-07)
(1.25158 -0.0320896 7.1657e-07)
(1.26719 -0.0296602 5.56689e-07)
(1.28154 -0.0272345 4.42428e-07)
(1.29465 -0.0248499 3.55165e-07)
(1.30656 -0.0225304 2.92448e-07)
(1.31731 -0.020291 2.39168e-07)
(1.32695 -0.0181391 2.07784e-07)
(1.33553 -0.0160786 1.76624e-07)
(1.3431 -0.0141098 1.6594e-07)
(1.3497 -0.0122322 1.4102e-07)
(1.35538 -0.0104434 1.42077e-07)
(1.36019 -0.00874166 1.14231e-07)
(1.36415 -0.0071234 1.28583e-07)
(1.36734 -0.00558694 9.08728e-08)
(1.36976 -0.00412853 1.23697e-07)
(1.3715 -0.00274726 6.32485e-08)
(1.37252 -0.0014395 1.2388e-07)
(1.37295 -0.000205596 1.77578e-08)
(1.37272 0.000957708 1.34715e-07)
(1.372 0.00204847 -2.05766e-08)
(1.37064 0.00307016 1.92243e-07)
(1.36893 0.00401949 -8.83015e-08)
(1.36656 0.00489962 2.77854e-07)
(1.36404 0.00570648 -2.19469e-07)
(1.36076 0.00644267 4.28909e-07)
(1.35762 0.00710488 -4.48566e-07)
(1.35351 0.00769369 7.04688e-07)
(1.34999 0.00820974 -8.48231e-07)
(1.34507 0.00864784 1.19807e-06)
(1.34149 0.00901907 -1.52951e-06)
(1.33569 0.00930391 2.03207e-06)
(1.33251 0.0095366 -2.55437e-06)
(1.32554 0.00966556 3.11645e-06)
(1.32348 0.00977226 -3.24421e-06)
(1.31473 0.00973929 2.09035e-06)
(1.00016 -0.00509628 8.88085e-07)
(1.00403 -0.0151666 -1.30564e-06)
(1.01175 -0.0248048 -2.28786e-06)
(1.02322 -0.033687 -1.55015e-06)
(1.03801 -0.0415242 -8.80924e-07)
(1.05561 -0.0480834 -6.01218e-07)
(1.07544 -0.0531971 -3.34238e-07)
(1.09691 -0.0567766 1.63544e-07)
(1.11937 -0.0588254 7.1219e-07)
(1.14219 -0.0594408 1.19261e-06)
(1.16482 -0.0588022 1.51767e-06)
(1.1868 -0.0571463 1.6282e-06)
(1.20781 -0.0547307 1.52318e-06)
(1.22761 -0.0517986 1.27411e-06)
(1.24612 -0.0485526 9.80579e-07)
(1.26327 -0.0451461 7.28998e-07)
(1.27909 -0.041687 5.4883e-07)
(1.29359 -0.0382486 4.34494e-07)
(1.30682 -0.0348799 3.51693e-07)
(1.31882 -0.0316113 2.93407e-07)
(1.32965 -0.0284612 2.44242e-07)
(1.33935 -0.0254381 2.18655e-07)
(1.34798 -0.0225457 1.91658e-07)
(1.35559 -0.0197836 1.84551e-07)
(1.36223 -0.0171504 1.59887e-07)
(1.36794 -0.0146422 1.62105e-07)
(1.37278 -0.0122564 1.32544e-07)
(1.37677 -0.00998757 1.47988e-07)
(1.37998 -0.00783338 1.06989e-07)
(1.38242 -0.00578839 1.41073e-07)
(1.38417 -0.00385125 7.56799e-08)
(1.38519 -0.00201681 1.38635e-07)
(1.38563 -0.000285506 2.42306e-08)
(1.38539 0.00134719 1.47006e-07)
(1.38467 0.00287857 -1.50869e-08)
(1.38329 0.00431328 2.0963e-07)
(1.38157 0.00564689 -8.35247e-08)
(1.37917 0.00688342 2.98067e-07)
(1.37663 0.00801759 -2.19776e-07)
(1.37331 0.00905223 4.52439e-07)
(1.37013 0.00998357 -4.56164e-07)
(1.36597 0.010811 7.32818e-07)
(1.36241 0.011537 -8.66239e-07)
(1.35742 0.012152 1.23232e-06)
(1.3538 0.0126746 -1.5592e-06)
(1.34791 0.0130734 2.07068e-06)
(1.34471 0.0134012 -2.59304e-06)
(1.33764 0.0135808 3.15078e-06)
(1.33556 0.0137316 -3.26282e-06)
(1.3267 0.0136854 2.09102e-06)
(1.00018 -0.00675203 9.48734e-07)
(1.00438 -0.0200925 -1.46176e-06)
(1.01277 -0.0328575 -2.55352e-06)
(1.02523 -0.0446131 -1.76099e-06)
(1.04129 -0.0549683 -1.02508e-06)
(1.06038 -0.0636054 -7.02916e-07)
(1.08186 -0.0702925 -3.2712e-07)
(1.10503 -0.0749059 3.15443e-07)
(1.12916 -0.0774513 1.03079e-06)
(1.15353 -0.0780677 1.65928e-06)
(1.17753 -0.077013 2.05744e-06)
(1.20064 -0.0746265 2.13269e-06)
(1.22253 -0.0712729 1.90154e-06)
(1.24301 -0.0672877 1.49375e-06)
(1.26202 -0.0629414 1.06857e-06)
(1.27956 -0.0584297 7.43326e-07)
(1.29566 -0.0538847 5.42579e-07)
(1.31038 -0.0493932 4.34596e-07)
(1.32378 -0.0450115 3.59882e-07)
(1.33592 -0.0407737 3.07242e-07)
(1.34687 -0.0366986 2.63377e-07)
(1.35667 -0.0327938 2.45561e-07)
(1.36539 -0.0290617 2.23521e-07)
(1.37308 -0.0254999 2.20025e-07)
(1.37979 -0.0221058 1.94239e-07)
(1.38556 -0.0188735 1.97021e-07)
(1.39046 -0.0157991 1.63795e-07)
(1.39449 -0.0128755 1.7963e-07)
(1.39775 -0.0100993 1.32966e-07)
(1.40021 -0.00746321 1.68436e-07)
(1.40198 -0.00496561 9.49435e-08)
(1.40302 -0.00259957 1.60953e-07)
(1.40347 -0.000365794 3.33033e-08)
(1.40322 0.00174175 1.65212e-07)
(1.4025 0.00371917 -7.17469e-09)
(1.40109 0.00557278 2.34209e-07)
(1.39935 0.00729618 -7.79827e-08)
(1.3969 0.00889508 3.26705e-07)
(1.39431 0.0103617 -2.21344e-07)
(1.39092 0.0117006 4.86713e-07)
(1.38769 0.0129054 -4.68332e-07)
(1.38343 0.0139766 7.75014e-07)
(1.37982 0.0149156 -8.93388e-07)
(1.37471 0.0157118 1.28467e-06)
(1.37104 0.0163867 -1.60457e-06)
(1.36501 0.016903 2.13285e-06)
(1.36176 0.017325 -2.65166e-06)
(1.35453 0.0175582 3.20833e-06)
(1.35243 0.0177512 -3.29911e-06)
(1.34337 0.0176946 2.09521e-06)
(1.0002 -0.00856777 1.02693e-06)
(1.00484 -0.025493 -1.65481e-06)
(1.01411 -0.0416857 -2.90582e-06)
(1.02788 -0.0565875 -2.04992e-06)
(1.04563 -0.0696902 -1.23505e-06)
(1.0667 -0.0805756 -8.64907e-07)
(1.09037 -0.0889309 -3.26529e-07)
(1.11582 -0.094587 5.37493e-07)
(1.14219 -0.0975515 1.51576e-06)
(1.16864 -0.0980169 2.38789e-06)
(1.19443 -0.0963452 2.9007e-06)
(1.21902 -0.0930109 2.90219e-06)
(1.24206 -0.0885161 2.4491e-06)
(1.26341 -0.083308 1.7826e-06)
(1.28306 -0.0777306 1.15982e-06)
(1.30109 -0.0720172 7.39873e-07)
(1.31757 -0.0663168 5.26661e-07)
(1.33259 -0.0607225 4.38267e-07)
(1.34624 -0.055293 3.76125e-07)
(1.35859 -0.0500613 3.29353e-07)
(1.36972 -0.0450435 2.9141e-07)
(1.37969 -0.0402434 2.82708e-07)
(1.38855 -0.0356606 2.64942e-07)
(1.39637 -0.0312897 2.63393e-07)
(1.4032 -0.0271263 2.3374e-07)
(1.40907 -0.023162 2.35595e-07)
(1.41405 -0.0193913 1.96433e-07)
(1.41816 -0.0158051 2.12054e-07)
(1.42147 -0.0123991 1.57138e-07)
(1.42398 -0.00916401 1.93983e-07)
(1.42578 -0.00609777 1.09351e-07)
(1.42684 -0.0031915 1.79204e-07)
(1.42729 -0.000446421 3.55068e-08)
(1.42703 0.00214519 1.81165e-07)
(1.42628 0.00457783 -4.00947e-09)
(1.42482 0.00685985 2.58489e-07)
(1.42303 0.00898219 -8.06326e-08)
(1.42049 0.0109529 3.55249e-07)
(1.41783 0.0127607 -2.33494e-07)
(1.41432 0.0144126 5.24216e-07)
(1.41101 0.0158982 -4.93852e-07)
(1.40659 0.0172209 8.25457e-07)
(1.40287 0.0183781 -9.38114e-07)
(1.39758 0.0193617 1.35284e-06)
(1.39381 0.0201916 -1.67431e-06)
(1.38756 0.0208298 2.21862e-06)
(1.38423 0.0213461 -2.74086e-06)
(1.37673 0.021636 3.29423e-06)
(1.37459 0.0218695 -3.36301e-06)
(1.36523 0.0218053 2.10923e-06)
(1.00022 -0.0105908 1.12554e-06)
(1.00543 -0.0315066 -1.86804e-06)
(1.01582 -0.0515201 -3.35592e-06)
(1.03127 -0.069927 -2.4256e-06)
(1.05119 -0.0860834 -1.53367e-06)
(1.07484 -0.0994486 -1.11347e-06)
(1.10136 -0.109602 -3.38096e-07)
(1.12979 -0.116314 8.53186e-07)
(1.15909 -0.119589 2.23753e-06)
(1.18823 -0.119691 3.50365e-06)
(1.21634 -0.117123 4.19676e-06)
(1.2428 -0.112547 4.06563e-06)
(1.26728 -0.106643 3.23671e-06)
(1.28969 -0.0999969 2.14964e-06)
(1.31015 -0.0930282 1.21086e-06)
(1.32879 -0.0859989 6.76105e-07)
(1.34577 -0.079062 4.75167e-07)
(1.3612 -0.0723079 4.2758e-07)
(1.3752 -0.0657905 3.8259e-07)
(1.38785 -0.0595361 3.41944e-07)
(1.39925 -0.0535535 3.11478e-07)
(1.40946 -0.0478401 3.12473e-07)
(1.41854 -0.0423906 2.96e-07)
(1.42654 -0.037196 2.9202e-07)
(1.43354 -0.0322492 2.53914e-07)
(1.43955 -0.0275389 2.52175e-07)
(1.44465 -0.0230582 2.04021e-07)
(1.44884 -0.0187956 2.18653e-07)
(1.45223 -0.0147459 1.53438e-07)
(1.45478 -0.0108977 1.93655e-07)
(1.45661 -0.00724851 9.65022e-08)
(1.45765 -0.00378752 1.74619e-07)
(1.45808 -0.00051607 1.18271e-08)
(1.45776 0.00257479 1.74634e-07)
(1.45694 0.00547764 -2.92047e-08)
(1.45537 0.00820276 2.61482e-07)
(1.45347 0.0107383 -1.10826e-07)
(1.45078 0.0130949 3.66722e-07)
(1.44798 0.015257 -2.73882e-07)
(1.44426 0.0172348 5.50281e-07)
(1.44077 0.0190125 -5.48994e-07)
(1.4361 0.0205973 8.73592e-07)
(1.4322 0.0219812 -1.01589e-06)
(1.42661 0.0231601 1.43175e-06)
(1.42267 0.0241497 -1.78165e-06)
(1.41606 0.024915 2.3317e-06)
(1.41259 0.0255265 -2.87747e-06)
(1.40468 0.0258758 3.42083e-06)
(1.40246 0.0261485 -3.47191e-06)
(1.39262 0.0260786 2.14082e-06)
(1.00025 -0.0128759 1.24596e-06)
(1.00617 -0.0382922 -2.06947e-06)
(1.01797 -0.0626296 -3.92992e-06)
(1.03553 -0.0850038 -2.89726e-06)
(1.0582 -0.104618 -1.97008e-06)
(1.08513 -0.120774 -1.49612e-06)
(1.11532 -0.132905 -3.54375e-07)
(1.14759 -0.140693 1.33114e-06)
(1.18067 -0.144132 3.34558e-06)
(1.21328 -0.143573 5.20972e-06)
(1.24435 -0.139725 6.13091e-06)
(1.27314 -0.133509 5.74428e-06)
(1.29936 -0.125852 4.31236e-06)
(1.32306 -0.117505 2.5357e-06)
(1.34449 -0.108959 1.07708e-06)
(1.3639 -0.100485 4.41315e-07)
(1.38151 -0.0922208 3.29698e-07)
(1.39749 -0.0842428 3.50297e-07)
(1.41196 -0.0765915 3.19912e-07)
(1.42503 -0.0692794 2.84257e-07)
(1.4368 -0.0623029 2.65706e-07)
(1.44733 -0.0556494 2.77537e-07)
(1.45669 -0.0493079 2.5772e-07)
(1.46493 -0.0432647 2.44528e-07)
(1.47212 -0.0375096 1.92375e-07)
(1.47828 -0.0320288 1.84182e-07)
(1.48349 -0.0268133 1.24643e-07)
(1.48774 -0.0218498 1.3879e-07)
(1.49116 -0.0171321 6.30622e-08)
(1.49368 -0.0126469 1.13799e-07)
(1.49546 -0.00839102 7.61584e-09)
(1.49641 -0.00435211 1.10338e-07)
(1.49672 -0.000530763 -6.42381e-08)
(1.49623 0.00308252 1.11352e-07)
(1.49523 0.0064784 -1.26782e-07)
(1.49342 0.00966785 1.94267e-07)
(1.49129 0.0126372 -2.13174e-07)
(1.48828 0.0153988 3.21797e-07)
(1.48521 0.0179338 -3.77643e-07)
(1.48112 0.0202538 5.33873e-07)
(1.47733 0.0223389 -6.61557e-07)
(1.47223 0.0241988 8.97693e-07)
(1.46803 0.0258207 -1.14686e-06)
(1.46194 0.0272036 1.50757e-06)
(1.45771 0.0283597 -1.94596e-06)
(1.45055 0.029256 2.46827e-06)
(1.44685 0.0299648 -3.0777e-06)
(1.43831 0.0303736 3.59557e-06)
(1.43595 0.0306844 -3.64448e-06)
(1.42537 0.0306068 2.19673e-06)
(1.00029 -0.0154876 1.38954e-06)
(1.00707 -0.0460319 -2.19499e-06)
(1.02061 -0.0753313 -4.67154e-06)
(1.0408 -0.102259 -3.4571e-06)
(1.06691 -0.125863 -2.65255e-06)
(1.09799 -0.145231 -2.10833e-06)
(1.13287 -0.159585 -3.99989e-07)
(1.1701 -0.168488 2.08512e-06)
(1.20807 -0.171891 5.19183e-06)
(1.24513 -0.170259 7.97449e-06)
(1.27991 -0.164599 9.0389e-06)
(1.31157 -0.15621 8.01254e-06)
(1.33989 -0.146358 5.51377e-06)
(1.3651 -0.135994 2.49553e-06)
(1.38767 -0.125663 4.8186e-07)
(1.40802 -0.115605 -8.99528e-08)
(1.42643 -0.105915 3.19619e-09)
(1.44309 -0.0966399 9.84525e-08)
(1.45815 -0.0877979 5.58241e-08)
(1.47173 -0.0793797 1.16772e-08)
(1.48392 -0.0713636 6.5695e-09)
(1.49479 -0.0637256 2.97542e-08)
(1.50443 -0.0564473 3.02489e-09)
(1.51286 -0.0495112 -2.39701e-08)
(1.52016 -0.0429037 -9.04986e-08)
(1.52636 -0.0366089 -1.02549e-07)
(1.53154 -0.0306164 -1.66907e-07)
(1.5357 -0.024911 -1.48159e-07)
(1.53896 -0.019486 -2.2363e-07)
(1.54126 -0.0143257 -1.53126e-07)
(1.54278 -0.00942818 -2.42266e-07)
(1.54341 -0.00477589 -9.08851e-08)
(1.54337 -0.000374903 -2.38192e-07)
(1.54246 0.00379177 -4.95919e-08)
(1.54104 0.00771044 -3.51506e-07)
(1.53874 0.0113906 -3.70389e-09)
(1.53613 0.0148198 -4.43871e-07)
(1.53257 0.0180084 1.65233e-07)
(1.52899 0.0209382 -5.92706e-07)
(1.52428 0.0236176 4.27771e-07)
(1.51996 0.026028 -8.69716e-07)
(1.51419 0.0281744 8.58243e-07)
(1.50947 0.0300474 -1.35948e-06)
(1.50264 0.0316394 1.5524e-06)
(1.49795 0.0329699 -2.18346e-06)
(1.48997 0.0339957 2.6115e-06)
(1.4859 0.0348047 -3.35258e-06)
(1.47645 0.0352654 3.81336e-06)
(1.47388 0.0356133 -3.8919e-06)
(1.46225 0.0355165 2.27871e-06)
(1.00033 -0.0185012 1.56174e-06)
(1.00818 -0.0549317 -2.13168e-06)
(1.02382 -0.0900017 -5.64009e-06)
(1.04726 -0.122219 -4.03673e-06)
(1.07764 -0.150523 -3.78588e-06)
(1.11397 -0.173669 -3.10667e-06)
(1.15484 -0.190593 -6.923e-07)
(1.19847 -0.200678 3.05781e-06)
(1.24277 -0.203769 8.24279e-06)
(1.28555 -0.200491 1.26959e-05)
(1.32502 -0.192288 1.37193e-05)
(1.36015 -0.181011 1.12551e-05)
(1.39089 -0.168399 6.1868e-06)
(1.41782 -0.155641 1.08156e-06)
(1.44169 -0.143289 -1.22696e-06)
(1.4631 -0.131489 -1.34159e-06)
(1.48239 -0.120256 -8.66449e-07)
(1.49977 -0.10959 -6.51144e-07)
(1.51539 -0.0994752 -7.13716e-07)
(1.52938 -0.0898714 -7.75111e-07)
(1.54186 -0.0807356 -7.67759e-07)
(1.55287 -0.0720325 -7.28864e-07)
(1.56251 -0.0637378 -7.57386e-07)
(1.57081 -0.0558313 -7.81374e-07)
(1.57787 -0.0482967 -8.39073e-07)
(1.5837 -0.0411179 -8.27403e-07)
(1.58843 -0.0342823 -8.65073e-07)
(1.59205 -0.0277756 -8.08202e-07)
(1.5947 -0.0215878 -8.46943e-07)
(1.59632 -0.0157045 -7.2393e-07)
(1.59712 -0.0101188 -7.45362e-07)
(1.59697 -0.00481561 -4.92402e-07)
(1.59613 0.00020861 -5.29843e-07)
(1.59438 0.00495856 -3.84181e-07)
(1.59211 0.00942644 -7.84968e-07)
(1.58891 0.0136188 -4.09114e-07)
(1.58545 0.0175301 -8.68428e-07)
(1.58096 0.0211611 -1.71435e-07)
(1.57652 0.0245031 -9.72093e-07)
(1.57085 0.0275507 1.75778e-07)
(1.56571 0.0302996 -1.20766e-06)
(1.55895 0.0327344 7.11063e-07)
(1.55346 0.0348677 -1.67021e-06)
(1.54561 0.036663 1.52745e-06)
(1.54023 0.0381732 -2.49591e-06)
(1.53117 0.0393143 2.72606e-06)
(1.52656 0.0402253 -3.69056e-06)
(1.51593 0.0407151 4.04626e-06)
(1.51305 0.0411 -4.20251e-06)
(1.50005 0.0409547 2.37741e-06)
(1.0004 -0.0220037 1.78411e-06)
(1.00951 -0.0652193 -1.71669e-06)
(1.02768 -0.107087 -6.89164e-06)
(1.05509 -0.145505 -4.44017e-06)
(1.09072 -0.179478 -5.66709e-06)
(1.13369 -0.207176 -4.57637e-06)
(1.18224 -0.227175 -1.63037e-06)
(1.23416 -0.238553 3.85321e-06)
(1.28672 -0.240918 1.25601e-05)
(1.3369 -0.235164 2.00153e-05)
(1.38222 -0.223409 2.11424e-05)
(1.42149 -0.2083 1.63196e-05)
(1.45488 -0.192218 5.77964e-06)
(1.48352 -0.176612 -2.5703e-06)
(1.50861 -0.161945 -5.21311e-06)
(1.53093 -0.148186 -4.37031e-06)
(1.55085 -0.135234 -3.11471e-06)
(1.56856 -0.123026 -2.55363e-06)
(1.58424 -0.111495 -2.54667e-06)
(1.59804 -0.100562 -2.53696e-06)
(1.61008 -0.0901637 -2.4407e-06)
(1.62043 -0.0802572 -2.33425e-06)
(1.62921 -0.0708155 -2.31475e-06)
(1.63648 -0.0618191 -2.27238e-06)
(1.64235 -0.0532496 -2.24482e-06)
(1.64688 -0.0450927 -2.12699e-06)
(1.65022 -0.0373327 -2.04877e-06)
(1.65237 -0.0299582 -1.85801e-06)
(1.65352 -0.0229528 -1.75342e-06)
(1.65361 -0.0163049 -1.47285e-06)
(1.65288 -0.0099966 -1.35359e-06)
(1.65119 -0.00401718 -8.50397e-07)
(1.64886 0.00165276 -9.88785e-07)
(1.6456 0.00699232 -9.61089e-07)
(1.64191 0.0120143 -1.41435e-06)
(1.63728 0.0167175 -9.79613e-07)
(1.63247 0.0211107 -1.43883e-06)
(1.62662 0.0251755 -6.54988e-07)
(1.62094 0.028926 -1.47183e-06)
(1.61398 0.0323271 -2.03791e-07)
(1.60772 0.0354095 -1.63533e-06)
(1.59971 0.0381123 4.57192e-07)
(1.59323 0.0405013 -2.03731e-06)
(1.58415 0.0424724 1.41246e-06)
(1.57793 0.0441591 -2.83199e-06)
(1.56763 0.0453794 2.76831e-06)
(1.56238 0.0463911 -4.02821e-06)
(1.55042 0.0468644 4.23245e-06)
(1.54717 0.0472866 -4.51921e-06)
(1.53267 0.0470384 2.46483e-06)
(1.00048 -0.0260894 2.12679e-06)
(1.01107 -0.0771379 -7.67259e-07)
(1.03226 -0.127111 -8.42083e-06)
(1.06445 -0.172831 -4.36624e-06)
(1.1065 -0.213837 -8.72152e-06)
(1.1579 -0.247149 -6.26515e-06)
(1.21629 -0.271009 -3.33425e-06)
(1.2791 -0.283893 4.80639e-06)
(1.34249 -0.284868 1.82174e-05)
(1.4022 -0.275351 2.89278e-05)
(1.45475 -0.25855 3.01171e-05)
(1.49859 -0.238313 2.14186e-05)
(1.53438 -0.21788 3.70194e-06)
(1.56407 -0.198868 -9.05391e-06)
(1.5895 -0.181472 -1.22099e-05)
(1.61163 -0.165393 -9.99945e-06)
(1.63085 -0.150403 -7.52103e-06)
(1.64736 -0.13637 -6.43358e-06)
(1.66141 -0.123161 -6.05723e-06)
(1.6732 -0.110655 -5.60513e-06)
(1.68291 -0.0987691 -5.11281e-06)
(1.69067 -0.0874601 -4.71057e-06)
(1.69665 -0.076702 -4.44739e-06)
(1.70098 -0.0664768 -4.15568e-06)
(1.70384 -0.0567646 -3.8689e-06)
(1.70533 -0.047551 -3.49466e-06)
(1.70565 -0.0388157 -3.14539e-06)
(1.70484 -0.0305454 -2.70095e-06)
(1.70312 -0.0227198 -2.26053e-06)
(1.70045 -0.0153191 -1.71911e-06)
(1.69711 -0.00832367 -1.28107e-06)
(1.69295 -0.00167666 -6.56473e-07)
(1.6883 0.00457761 -1.22154e-06)
(1.68285 0.0104415 -1.35537e-06)
(1.67714 0.0159586 -1.80207e-06)
(1.67062 0.0211094 -1.32873e-06)
(1.6641 0.0259267 -1.80599e-06)
(1.65663 0.0303619 -9.92717e-07)
(1.64951 0.0344686 -1.81683e-06)
(1.64116 0.0381625 -4.91832e-07)
(1.6337 0.0415353 -1.93226e-06)
(1.62447 0.0444476 2.33187e-07)
(1.61701 0.0470601 -2.2844e-06)
(1.60683 0.0491487 1.26449e-06)
(1.59984 0.0509917 -3.03623e-06)
(1.5885 0.0522291 2.71281e-06)
(1.58267 0.0533331 -4.21337e-06)
(1.56968 0.0537205 4.27588e-06)
(1.5661 0.0541808 -4.7138e-06)
(1.55047 0.0537516 2.48528e-06)
(1.0006 -0.030846 2.77484e-06)
(1.0128 -0.0909427 8.89567e-07)
(1.03762 -0.150662 -9.94017e-06)
(1.07539 -0.204991 -3.77388e-06)
(1.12526 -0.255 -1.38345e-05)
(1.18738 -0.295341 -8.00743e-06)
(1.25836 -0.324327 -6.07769e-06)
(1.33556 -0.33909 8.38345e-06)
(1.41333 -0.337737 2.82522e-05)
(1.48538 -0.322454 3.87136e-05)
(1.54621 -0.29813 3.48891e-05)
(1.59384 -0.270695 1.76215e-05)
(1.62998 -0.244636 -6.413e-06)
(1.65804 -0.221444 -2.0969e-05)
(1.68073 -0.200684 -2.21455e-05)
(1.69924 -0.181687 -1.72405e-05)
(1.71404 -0.164126 -1.32037e-05)
(1.72547 -0.147807 -1.14538e-05)
(1.73396 -0.132526 -1.02603e-05)
(1.73987 -0.11812 -8.78505e-06)
(1.7435 -0.104492 -7.41806e-06)
(1.74511 -0.091601 -6.36334e-06)
(1.74498 -0.0794159 -5.60017e-06)
(1.74335 -0.0679155 -4.86154e-06)
(1.74049 -0.0570677 -4.22078e-06)
(1.73656 -0.046856 -3.50199e-06)
(1.73179 -0.0372345 -2.91591e-06)
(1.72627 -0.0282023 -2.14823e-06)
(1.72023 -0.0196804 -1.49619e-06)
(1.71364 -0.0117258 -7.27437e-07)
(1.70681 -0.00415576 -6.93104e-08)
(1.69951 0.00293078 -5.83747e-07)
(1.69206 0.00956229 -1.51979e-06)
(1.68418 0.015766 -1.40196e-06)
(1.67639 0.0216047 -1.6319e-06)
(1.66807 0.0270343 -1.10851e-06)
(1.66004 0.0321205 -1.58862e-06)
(1.65129 0.0367787 -8.11169e-07)
(1.64313 0.0411133 -1.6298e-06)
(1.63392 0.0449765 -3.6882e-07)
(1.62578 0.0485402 -1.77442e-06)
(1.61601 0.0515599 2.73355e-07)
(1.60813 0.0543259 -2.13911e-06)
(1.59764 0.0564455 1.21107e-06)
(1.59041 0.058403 -2.86733e-06)
(1.57891 0.0595791 2.56077e-06)
(1.57297 0.0607591 -4.00759e-06)
(1.55993 0.0609827 4.04888e-06)
(1.55631 0.0614834 -4.57935e-06)
(1.54071 0.0607927 2.34223e-06)
(1.00073 -0.0363243 4.13125e-06)
(1.01465 -0.106915 3.28002e-06)
(1.04377 -0.178333 -1.029e-05)
(1.0877 -0.242848 -3.67743e-06)
(1.14726 -0.304751 -2.26521e-05)
(1.22271 -0.353851 -1.19036e-05)
(1.30957 -0.389951 -1.37399e-05)
(1.40603 -0.407033 1.38646e-05)
(1.50326 -0.402272 4.71762e-05)
(1.59075 -0.378251 5.51108e-05)
(1.65853 -0.342076 3.22655e-05)
(1.70491 -0.303706 -7.67737e-06)
(1.7344 -0.269742 -3.84836e-05)
(1.75325 -0.240984 -4.53703e-05)
(1.76545 -0.215814 -3.46525e-05)
(1.77253 -0.193066 -2.15829e-05)
(1.77519 -0.172301 -1.4401e-05)
(1.77418 -0.153228 -1.18681e-05)
(1.77028 -0.135551 -9.83438e-06)
(1.76411 -0.119067 -7.4167e-06)
(1.75619 -0.103672 -5.38677e-06)
(1.74692 -0.089306 -3.93782e-06)
(1.73674 -0.0759144 -2.92458e-06)
(1.72593 -0.0634416 -2.04611e-06)
(1.71483 -0.0518342 -1.38126e-06)
(1.7036 -0.0410304 -7.34439e-07)
(1.69246 -0.0309801 -2.74735e-07)
(1.68145 -0.0216105 3.56973e-07)
(1.67075 -0.0128826 8.54095e-07)
(1.66031 -0.00469039 1.09128e-06)
(1.65035 0.00293706 3.27086e-07)
(1.64052 0.00998643 -6.1068e-07)
(1.63117 0.0166134 -9.82004e-07)
(1.62195 0.0228148 -4.53695e-07)
(1.61325 0.0286547 -5.25417e-07)
(1.60448 0.0340727 -3.58805e-08)
(1.5963 0.0391659 -5.22215e-07)
(1.58777 0.0438179 1.31615e-07)
(1.58002 0.0481787 -6.8326e-07)
(1.57152 0.0520389 3.63178e-07)
(1.56415 0.0556472 -9.6706e-07)
(1.55545 0.0586516 7.30124e-07)
(1.54853 0.0614746 -1.42745e-06)
(1.53937 0.0635417 1.33849e-06)
(1.53313 0.0655608 -2.14868e-06)
(1.52317 0.0666178 2.29523e-06)
(1.51809 0.0678575 -3.18967e-06)
(1.50683 0.0678727 3.38949e-06)
(1.50375 0.0684219 -3.86843e-06)
(1.49027 0.0674355 1.88068e-06)
(1.00076 -0.0425007 6.90851e-06)
(1.01667 -0.125384 6.17077e-06)
(1.0504 -0.210504 -6.48806e-06)
(1.10084 -0.287482 -6.26617e-06)
(1.17259 -0.36532 -3.52738e-05)
(1.26352 -0.425089 -2.58435e-05)
(1.37054 -0.471687 -3.80037e-05)
(1.49335 -0.49159 8.15395e-06)
(1.61613 -0.481142 6.4525e-05)
(1.71859 -0.442868 8.39762e-05)
(1.78317 -0.387479 4.32636e-05)
(1.81283 -0.332062 -3.27466e-05)
(1.81844 -0.286271 -8.07639e-05)
(1.81167 -0.249497 -7.48646e-05)
(1.79842 -0.218427 -4.07068e-05)
(1.78065 -0.191223 -1.18216e-05)
(1.75944 -0.167111 -2.73158e-07)
(1.73612 -0.145476 2.39366e-06)
(1.71187 -0.125842 3.90715e-06)
(1.68754 -0.107938 5.17351e-06)
(1.66371 -0.0916134 5.61674e-06)
(1.6408 -0.0767401 5.49814e-06)
(1.61915 -0.063188 5.1858e-06)
(1.59895 -0.0508276 4.89838e-06)
(1.58033 -0.0395377 4.52726e-06)
(1.56326 -0.0291953 4.16853e-06)
(1.54779 -0.0197008 3.71293e-06)
(1.53376 -0.0109324 3.42865e-06)
(1.52121 -0.00284415 2.62947e-06)
(1.50982 0.00471859 1.75411e-06)
(1.49962 0.0116639 5.97491e-07)
(1.49039 0.0181559 7.41695e-07)
(1.48221 0.0242976 1.0464e-06)
(1.47467 0.0300586 1.59606e-06)
(1.46799 0.0355099 1.40361e-06)
(1.46161 0.0405884 1.68438e-06)
(1.45601 0.045404 1.12982e-06)
(1.45036 0.0498225 1.5482e-06)
(1.4455 0.0540117 7.188e-07)
(1.44019 0.0577259 1.43297e-06)
(1.43583 0.0612517 2.21297e-07)
(1.43051 0.0641682 1.40466e-06)
(1.42654 0.0669769 -3.54235e-07)
(1.42089 0.0689747 1.52187e-06)
(1.41735 0.0710276 -1.00611e-06)
(1.41108 0.0719882 1.81764e-06)
(1.4082 0.0732923 -1.75117e-06)
(1.40095 0.0731453 2.11834e-06)
(1.39921 0.0737655 -2.38813e-06)
(1.39047 0.0725549 8.69244e-07)
(1.00046 -0.049274 1.19318e-05)
(1.0191 -0.146577 1.03176e-05)
(1.05627 -0.246986 6.48908e-06)
(1.11421 -0.340513 -1.16045e-05)
(1.19997 -0.43882 -4.32698e-05)
(1.30704 -0.51229 -6.00087e-05)
(1.44194 -0.576306 -8.47588e-05)
(1.60089 -0.600055 -1.33236e-05)
(1.74892 -0.573266 4.97251e-05)
(1.84746 -0.506276 9.66005e-05)
(1.87702 -0.419566 0.000108344)
(1.8568 -0.34012 2.14746e-05)
(1.80633 -0.278209 -6.70186e-05)
(1.74758 -0.231139 -6.86051e-05)
(1.68876 -0.193581 -1.81981e-05)
(1.63172 -0.162879 1.58443e-05)
(1.5775 -0.137363 2.54347e-05)
(1.52745 -0.115642 2.54996e-05)
(1.48239 -0.0968076 2.41326e-05)
(1.44251 -0.0803504 2.13931e-05)
(1.40769 -0.065919 1.77331e-05)
(1.37764 -0.0532066 1.42627e-05)
(1.352 -0.0419337 1.14956e-05)
(1.33032 -0.0318625 9.42156e-06)
(1.31218 -0.0227826 7.76128e-06)
(1.29709 -0.014527 6.34133e-06)
(1.28469 -0.00693765 4.99991e-06)
(1.27455 7.77681e-05 3.71924e-06)
(1.26641 0.00662942 2.91325e-06)
(1.25987 0.0127085 2.5324e-06)
(1.25482 0.0185181 2.38197e-06)
(1.25093 0.0240565 2.91233e-06)
(1.24815 0.0293616 3.047e-06)
(1.24609 0.0344056 3.17304e-06)
(1.24484 0.0392542 2.74192e-06)
(1.24396 0.0438452 2.77738e-06)
(1.24372 0.048269 2.18748e-06)
(1.24351 0.0523925 2.38495e-06)
(1.24386 0.0563602 1.61442e-06)
(1.24389 0.0599321 2.03605e-06)
(1.24451 0.0633681 1.03263e-06)
(1.24443 0.0662536 1.73705e-06)
(1.2451 0.0690675 4.91965e-07)
(1.24466 0.0710988 1.44993e-06)
(1.24525 0.0732193 9.00875e-08)
(1.24427 0.0742229 1.02123e-06)
(1.24474 0.0756323 -1.0531e-08)
(1.2432 0.0754836 1.55961e-07)
(1.24353 0.0762165 -8.97291e-08)
(1.24156 0.0749697 -1.00759e-06)
(0.999762 -0.0565047 1.89981e-05)
(1.02181 -0.169989 2.07168e-05)
(1.05903 -0.286924 3.27752e-05)
(1.12689 -0.403475 -1.14639e-05)
(1.22306 -0.525436 -2.48937e-05)
(1.34848 -0.622048 -0.000110208)
(1.52428 -0.715631 -0.000123052)
(1.72357 -0.736999 -3.71437e-05)
(1.86603 -0.664033 1.85751e-05)
(1.89312 -0.53389 4.26399e-05)
(1.81762 -0.396847 0.000152242)
(1.69431 -0.29129 0.000116251)
(1.54442 -0.214565 1.00959e-05)
(1.41349 -0.161802 -1.63287e-05)
(1.30599 -0.124026 1.81187e-05)
(1.21891 -0.0977024 2.69861e-05)
(1.14952 -0.0791504 1.79843e-05)
(1.09571 -0.0653571 1.20649e-05)
(1.05475 -0.0544757 1.07113e-05)
(1.02386 -0.0454591 9.70525e-06)
(1.00076 -0.0376421 8.3714e-06)
(0.983686 -0.0306005 7.16112e-06)
(0.971309 -0.0240797 6.11384e-06)
(0.962598 -0.0179367 5.16668e-06)
(0.956795 -0.0120828 4.1938e-06)
(0.953296 -0.00646986 3.216e-06)
(0.95168 -0.00105428 2.14299e-06)
(0.951563 0.00417945 1.4415e-06)
(0.952705 0.00930785 1.10394e-06)
(0.954871 0.0142688 1.49371e-06)
(0.957955 0.019145 1.92179e-06)
(0.961731 0.0238979 2.27125e-06)
(0.96615 0.0285463 2.19416e-06)
(0.970981 0.0330653 2.20502e-06)
(0.976271 0.0374961 1.91144e-06)
(0.98174 0.0417797 2.00634e-06)
(0.987539 0.0459721 1.64688e-06)
(0.993288 0.0499605 1.84905e-06)
(0.999284 0.0538415 1.34072e-06)
(1.005 0.05742 1.66583e-06)
(1.01092 0.0608794 1.00135e-06)
(1.01634 0.0638858 1.43239e-06)
(1.02196 0.0667972 7.20295e-07)
(1.02692 0.0690325 1.02883e-06)
(1.03199 0.0712888 7.47821e-07)
(1.0365 0.0725337 7.50966e-08)
(1.04073 0.0740926 1.60513e-06)
(1.04516 0.0741564 -2.20968e-06)
(1.04791 0.0750392 2.96756e-06)
(1.05327 0.0739733 -4.08854e-06)
(0.999093 -0.0639227 2.61592e-05)
(1.02307 -0.193564 4.16587e-05)
(1.05679 -0.329046 6.50772e-05)
(1.13378 -0.474123 1.25757e-05)
(1.22896 -0.623058 3.40783e-05)
(1.38461 -0.764956 -0.000178908)
(1.60586 -0.894377 -7.15752e-05)
(1.80702 -0.87014 -0.000131137)
(1.85802 -0.779033 5.15229e-05)
(1.74712 -0.533649 -0.000145839)
(1.49748 -0.305208 -0.000106449)
(1.21732 -0.16308 -5.5334e-05)
(0.798146 -0.0531859 -3.60937e-05)
(0.689468 -0.0376392 -3.002e-05)
(0.631061 -0.0345501 2.69153e-05)
(0.600041 -0.0373694 3.52895e-05)
(0.586029 -0.0401316 2.60182e-05)
(0.581935 -0.0408342 1.84597e-05)
(0.582884 -0.039527 1.20156e-05)
(0.586229 -0.036789 6.41312e-06)
(0.590815 -0.0331134 2.7163e-06)
(0.596162 -0.0288589 7.67188e-07)
(0.602065 -0.0242771 -1.61157e-07)
(0.60843 -0.0195355 -4.4245e-07)
(0.615225 -0.0147369 -4.15189e-07)
(0.622414 -0.00994772 -1.59431e-07)
(0.630004 -0.00520282 2.3087e-07)
(0.637977 -0.000509745 3.60007e-07)
(0.646288 0.00413332 -4.13099e-07)
(0.654859 0.00874046 -4.24638e-07)
(0.66378 0.0132944 -2.34164e-07)
(0.672953 0.0177598 6.43285e-08)
(0.682397 0.0221699 2.23677e-07)
(0.692009 0.0265095 4.57664e-07)
(0.701825 0.030803 4.66975e-07)
(0.711705 0.0350079 7.06831e-07)
(0.721728 0.0391541 6.21654e-07)
(0.731688 0.0431614 8.87352e-07)
(0.741731 0.0470807 6.66988e-07)
(0.751569 0.0507762 9.72616e-07)
(0.76143 0.054346 6.3267e-07)
(0.77096 0.0575658 9.3511e-07)