0 	0 	0 	0
1.57135 	-0.00103724 	0.000980035 	0
3.1427 	-0.00229278 	0.00187255 	0
4.71405 	-0.00387807 	0.00245681 	0
6.28539 	-0.0060115 	0.0025963 	0
7.85674 	-0.00907483 	0.00230548 	0
9.42809 	-0.0138352 	0.00263061 	0
10.9994 	-0.0201523 	0.00868254 	0
12.5708 	0.00715766 	-0.0149892 	0
14.1421 	0.5 	0 	0
