0 	-5.10451e-08
1.57135 	-1.27579e-06
3.1427 	-8.10101e-06
4.71405 	-2.72917e-05
6.28539 	-7.08471e-05
7.85674 	-0.000168909
9.42809 	-0.000433036
10.9994 	-0.00143192
12.5708 	-0.00448742
14.1421 	0.0181715
