/*--------------------------------*- C++ -*----------------------------------*\
  =========                 |
  \\      /  F ield         | OpenFOAM: The Open Source CFD Toolbox
   \\    /   O peration     | Website:  https://openfoam.org
    \\  /    A nd           | Version:  8
     \\/     M anipulation  |
\*---------------------------------------------------------------------------*/
FoamFile
{
    version     2.0;
    format      ascii;
    class       volScalarField;
    location    "4";
    object      T;
}
// * * * * * * * * * * * * * * * * * * * * * * * * * * * * * * * * * * * * * //

dimensions      [0 0 0 1 0 0 0];

internalField   nonuniform List<scalar> 
116
(
3.11439e-10
3.11395e-10
3.11387e-10
3.11385e-10
3.11375e-10
3.11029e-10
7.39582e-09
7.39498e-09
7.39483e-09
7.39482e-09
7.39481e-09
7.39479e-09
1.64496e-07
1.64481e-07
1.64479e-07
1.64479e-07
1.64479e-07
1.64479e-07
3.26547e-06
3.26526e-06
3.26522e-06
3.26522e-06
3.26522e-06
3.26522e-06
5.69894e-05
5.69868e-05
5.69863e-05
5.69863e-05
5.69863e-05
5.69863e-05
0.000857503
0.000857477
0.000857473
0.000857472
0.000857472
0.000857472
0.0108371
0.0108369
0.0108369
0.0108369
0.0108369
0.0108369
0.110873
0.110872
0.110872
0.110872
0.110872
0.110872
0.868733
0.868731
0.868731
0.868731
0.868731
0.868731
4.75518
4.75518
4.75518
4.75518
4.75518
4.75518
3.00611e-10
3.00275e-10
3.00264e-10
3.00264e-10
7.39446e-09
7.39444e-09
7.39444e-09
7.39444e-09
1.64479e-07
1.64479e-07
1.64479e-07
1.64479e-07
3.26522e-06
3.26522e-06
3.26522e-06
3.26522e-06
5.69863e-05
5.69863e-05
5.69863e-05
5.69863e-05
0.000857472
0.000857472
0.000857472
0.000857472
0.0108369
0.0108369
0.0108369
0.0108369
0.110872
0.110872
0.110872
0.110872
0.868731
0.868731
0.868731
0.868731
4.75518
4.75518
4.75518
4.75518
3.60117e-16
3.59893e-16
3.5987e-16
3.59877e-16
1.19402e-14
1.1932e-14
1.19312e-14
1.19315e-14
3.78778e-13
3.78484e-13
3.78461e-13
3.78469e-13
1.11249e-11
1.11148e-11
1.11142e-11
1.11145e-11
)
;

boundaryField
{
    movingWall
    {
        type            fixedValue;
        value           uniform 10;
    }
    fixedWalls
    {
        type            zeroGradient;
    }
    frontAndBack
    {
        type            empty;
    }
}


// ************************************************************************* //
