/*--------------------------------*- C++ -*----------------------------------*\
  =========                 |
  \\      /  F ield         | OpenFOAM: The Open Source CFD Toolbox
   \\    /   O peration     | Website:  https://openfoam.org
    \\  /    A nd           | Version:  8
     \\/     M anipulation  |
\*---------------------------------------------------------------------------*/
FoamFile
{
    version     2.0;
    format      ascii;
    class       volVectorField;
    location    "0.435";
    object      U;
}
// * * * * * * * * * * * * * * * * * * * * * * * * * * * * * * * * * * * * * //

dimensions      [0 1 -1 0 0 0 0];

internalField   nonuniform List<vector> 
400
(
(0.000253399 -0.00025045 0)
(0.000141199 0.000111423 0)
(-0.00117702 0.000564613 0)
(-0.00348122 0.000885003 0)
(-0.00637769 0.00104573 0)
(-0.00946978 0.00106177 0)
(-0.0124034 0.000957874 0)
(-0.0148855 0.000760459 0)
(-0.0166901 0.000494657 0)
(-0.0176589 0.000184563 0)
(-0.0177028 -0.000145276 0)
(-0.0168057 -0.000468384 0)
(-0.0150306 -0.000755439 0)
(-0.0125256 -0.000974296 0)
(-0.00952672 -0.00109123 0)
(-0.00635519 -0.00107405 0)
(-0.00340074 -0.000898153 0)
(-0.00108646 -0.000556408 0)
(0.000196437 -9.03681e-05 0)
(0.000267869 0.000262395 0)
(-7.74749e-05 -0.000169388 0)
(-0.00161163 0.00164488 0)
(-0.00569315 0.00361744 0)
(-0.0117194 0.00503502 0)
(-0.0188932 0.00574347 0)
(-0.026402 0.00576045 0)
(-0.0334708 0.0051719 0)
(-0.0394288 0.0040927 0)
(-0.0437462 0.00264775 0)
(-0.0460495 0.000966961 0)
(-0.0461318 -0.000813276 0)
(-0.0439636 -0.00254721 0)
(-0.0397032 -0.00407884 0)
(-0.0337044 -0.00524536 0)
(-0.0265147 -0.00588684 0)
(-0.0188554 -0.00586513 0)
(-0.0115672 -0.00509499 0)
(-0.00551352 -0.00358958 0)
(-0.00149314 -0.0015592 0)
(-4.25783e-05 0.000227472 0)
(-0.000528638 0.00109166 0)
(-0.00371159 0.00573654 0)
(-0.0105895 0.0102249 0)
(-0.0199928 0.0134083 0)
(-0.0307665 0.014947 0)
(-0.0418245 0.0148395 0)
(-0.0521227 0.0132563 0)
(-0.0607476 0.0104567 0)
(-0.0669732 0.00674231 0)
(-0.0702866 0.00243896 0)
(-0.0704046 -0.00210669 0)
(-0.067288 -0.00652584 0)
(-0.0611557 -0.0104298 0)
(-0.0524913 -0.0134218 0)
(-0.0420393 -0.0151242 0)
(-0.0307755 -0.0152264 0)
(-0.0198301 -0.0135566 0)
(-0.010364 -0.0101794 0)
(-0.00354868 -0.0055513 0)
(-0.000476864 -0.000948864 0)
(-0.000928277 0.00348001 0)
(-0.0056918 0.0122212 0)
(-0.0153026 0.0199226 0)
(-0.0279184 0.025199 0)
(-0.0419877 0.0275983 0)
(-0.0561821 0.0271388 0)
(-0.0692559 0.0241101 0)
(-0.0801301 0.0189548 0)
(-0.0879531 0.0121961 0)
(-0.0921239 0.00440522 0)
(-0.0923084 -0.00380825 0)
(-0.0884549 -0.0117972 0)
(-0.0808092 -0.0188832 0)
(-0.0699266 -0.0243775 0)
(-0.0566721 -0.027629 0)
(-0.0421969 -0.0281031 0)
(-0.027858 -0.0254988 0)
(-0.0150944 -0.0198925 0)
(-0.00550529 -0.0119282 0)
(-0.000861639 -0.00322499 0)
(-0.001279 0.00687812 0)
(-0.00753642 0.0209546 0)
(-0.0198058 0.0325119 0)
(-0.0355367 0.040105 0)
(-0.0527461 0.0432922 0)
(-0.0698621 0.0421947 0)
(-0.0854678 0.0372792 0)
(-0.0983656 0.0292143 0)
(-0.107625 0.018778 0)
(-0.112594 0.00681391 0)
(-0.112903 -0.0057808 0)
(-0.10848 -0.0180557 0)
(-0.099567 -0.0290128 0)
(-0.0867433 -0.0376345 0)
(-0.070939 -0.0429469 0)
(-0.0534327 -0.0441307 0)
(-0.0357862 -0.0406804 0)
(-0.019736 -0.0325937 0)
(-0.0073709 -0.0205914 0)
(-0.00120373 -0.00649839 0)
(-0.00160759 0.0112161 0)
(-0.00931841 0.0318758 0)
(-0.0242102 0.0479537 0)
(-0.0430044 0.0580742 0)
(-0.0632596 0.0619395 0)
(-0.0831563 0.0598834 0)
(-0.101128 0.0526302 0)
(-0.115897 0.0411273 0)
(-0.126493 0.0264379 0)
(-0.132243 0.00969307 0)
(-0.132755 -0.00791683 0)
(-0.127928 -0.0251333 0)
(-0.117971 -0.0406267 0)
(-0.103437 -0.0530214 0)
(-0.0852718 -0.0609684 0)
(-0.0648377 -0.0632822 0)
(-0.0438869 -0.0591439 0)
(-0.0244784 -0.0483458 0)
(-0.0092546 -0.0315585 0)
(-0.0015378 -0.0107289 0)
(-0.00194011 0.0164776 0)
(-0.0111215 0.0449756 0)
(-0.0286511 0.0662353 0)
(-0.0504811 0.0790617 0)
(-0.0736868 0.0834487 0)
(-0.0962061 0.0800764 0)
(-0.116355 0.0700263 0)
(-0.132818 0.0545863 0)
(-0.144635 0.0351325 0)
(-0.151145 0.0130848 0)
(-0.151953 -0.0100871 0)
(-0.146919 -0.0328338 0)
(-0.136184 -0.0535014 0)
(-0.120226 -0.0703389 0)
(-0.0999346 -0.0815675 0)
(-0.0767029 -0.0855349 0)
(-0.0524411 -0.0809657 0)
(-0.0295454 -0.0672786 0)
(-0.0112838 -0.0449406 0)
(-0.00190012 -0.0159519 0)
(-0.00230006 0.0226955 0)
(-0.0130252 0.0603022 0)
(-0.0332512 0.0873655 0)
(-0.0580804 0.102999 0)
(-0.0840756 0.107668 0)
(-0.108955 0.102563 0)
(-0.130969 0.089246 0)
(-0.148836 0.0694122 0)
(-0.161668 0.0447724 0)
(-0.16887 0.0170199 0)
(-0.170065 -0.0121341 0)
(-0.165073 -0.0408944 0)
(-0.153931 -0.067316 0)
(-0.136971 -0.0892752 0)
(-0.114944 -0.104514 0)
(-0.0891766 -0.110799 0)
(-0.0616712 -0.106214 0)
(-0.0351486 -0.089581 0)
(-0.013586 -0.0609505 0)
(-0.00232636 -0.0222779 0)
(-0.00271165 0.0299474 0)
(-0.015108 0.0779576 0)
(-0.0381148 0.111357 0)
(-0.0658485 0.129751 0)
(-0.094327 0.134319 0)
(-0.121099 0.126975 0)
(-0.144444 0.109904 0)
(-0.163213 0.0852828 0)
(-0.176687 0.0551677 0)
(-0.184407 0.021487 0)
(-0.186058 -0.0138752 0)
(-0.181422 -0.0489577 0)
(-0.170395 -0.0815949 0)
(-0.153081 -0.109325 0)
(-0.129971 -0.129383 0)
(-0.102186 -0.13883 0)
(-0.0716896 -0.134889 0)
(-0.041467 -0.115471 0)
(-0.0162881 -0.0798962 0)
(-0.0028547 -0.0298899 0)
(-0.00320765 0.0383599 0)
(-0.0174662 0.0980901 0)
(-0.043341 0.13819 0)
(-0.0737565 0.159047 0)
(-0.10416 0.162902 0)
(-0.132032 0.152674 0)
(-0.155825 0.131343 0)
(-0.174679 0.101641 0)
(-0.188168 0.0659582 0)
(-0.196068 0.0263896 0)
(-0.198186 -0.0151131 0)
(-0.194283 -0.0565462 0)
(-0.184081 -0.0956432 0)
(-0.167366 -0.12969 0)
(-0.144215 -0.155425 0)
(-0.115339 -0.169099 0)
(-0.0824458 -0.166804 0)
(-0.0486361 -0.145125 0)
(-0.0195287 -0.10216 0)
(-0.00353356 -0.0390475 0)
(-0.00384395 0.0481288 0)
(-0.0202461 0.120894 0)
(-0.0490465 0.167753 0)
(-0.0816862 0.190367 0)
(-0.113053 0.192558 0)
(-0.140746 0.178616 0)
(-0.163621 0.152513 0)
(-0.181309 0.117594 0)
(-0.193846 0.0765355 0)
(-0.20136 0.0314944 0)
(-0.203857 -0.0156592 0)
(-0.201109 -0.0630512 0)
(-0.192648 -0.108492 0)
(-0.177857 -0.149172 0)
(-0.156224 -0.181417 0)
(-0.127779 -0.200608 0)
(-0.0936441 -0.201426 0)
(-0.056733 -0.178575 0)
(-0.0234798 -0.128173 0)
(-0.00443553 -0.0501046 0)
(-0.00472535 0.0595713 0)
(-0.0236946 0.146618 0)
(-0.0553828 0.199757 0)
(-0.0893761 0.222792 0)
(-0.120122 0.221893 0)
(-0.145675 0.203189 0)
(-0.16563 0.171841 0)
(-0.180371 0.131811 0)
(-0.190581 0.0859705 0)
(-0.196863 0.0363766 0)
(-0.199501 -0.0153708 0)
(-0.198336 -0.0677436 0)
(-0.192717 -0.118868 0)
(-0.181574 -0.166079 0)
(-0.163645 -0.205489 0)
(-0.137966 -0.231662 0)
(-0.104596 -0.237626 0)
(-0.0657335 -0.215526 0)
(-0.0283777 -0.158368 0)
(-0.00568207 -0.0635523 0)
(-0.00605156 0.0732284 0)
(-0.0282257 0.175564 0)
(-0.0625085 0.233571 0)
(-0.0962566 0.254747 0)
(-0.123856 0.248732 0)
(-0.144397 0.224027 0)
(-0.15867 0.187108 0)
(-0.168106 0.142463 0)
(-0.1742 0.0929695 0)
(-0.178118 0.0403793 0)
(-0.180484 -0.0141986 0)
(-0.181265 -0.0698217 0)
(-0.179695 -0.125211 0)
(-0.17427 -0.178181 0)
(-0.162894 -0.224974 0)
(-0.143316 -0.259589 0)
(-0.113937 -0.27333 0)
(-0.075393 -0.255067 0)
(-0.0345562 -0.193091 0)
(-0.00748627 -0.0801043 0)
(-0.00819203 0.0900463 0)
(-0.0344826 0.20802 0)
(-0.0704119 0.267884 0)
(-0.101023 0.283607 0)
(-0.121573 0.269812 0)
(-0.133106 0.237841 0)
(-0.138161 0.195405 0)
(-0.139461 0.147234 0)
(-0.139366 0.0959097 0)
(-0.139593 0.0426198 0)
(-0.141108 -0.0122331 0)
(-0.144054 -0.0685075 0)
(-0.147667 -0.125795 0)
(-0.150168 -0.18277 0)
(-0.148719 -0.236325 0)
(-0.139643 -0.280448 0)
(-0.119094 -0.305026 0)
(-0.0849358 -0.295159 0)
(-0.0424404 -0.232377 0)
(-0.010216 -0.100837 0)
(-0.0117675 0.111635 0)
(-0.0432595 0.243961 0)
(-0.0782968 0.300034 0)
(-0.100627 0.305093 0)
(-0.10835 0.280461 0)
(-0.105729 0.240383 0)
(-0.097527 0.193282 0)
(-0.0877681 0.143549 0)
(-0.079498 0.0930362 0)
(-0.0747822 0.0420951 0)
(-0.0747999 -0.00972889 0)
(-0.0798879 -0.0632115 0)
(-0.0894603 -0.118991 0)
(-0.101786 -0.176958 0)
(-0.113684 -0.235286 0)
(-0.120304 -0.288883 0)
(-0.115262 -0.327196 0)
(-0.092266 -0.331795 0)
(-0.0523155 -0.275404 0)
(-0.0144303 -0.127347 0)
(-0.0175493 0.140659 0)
(-0.0547643 0.282145 0)
(-0.0827857 0.324719 0)
(-0.0880794 0.312474 0)
(-0.075107 0.274457 0)
(-0.0525889 0.226771 0)
(-0.0274559 0.177289 0)
(-0.0045116 0.129136 0)
(0.0131021 0.0829131 0)
(0.0234434 0.037947 0)
(0.0254019 -0.0070736 0)
(0.0185107 -0.0537588 0)
(0.00298278 -0.103752 0)
(-0.0199943 -0.158321 0)
(-0.0476838 -0.217503 0)
(-0.0749832 -0.278361 0)
(-0.0935457 -0.331791 0)
(-0.0920632 -0.357683 0)
(-0.0632803 -0.319294 0)
(-0.0206336 -0.161974 0)
(-0.0254497 0.181711 0)
(-0.0657744 0.317771 0)
(-0.0733326 0.331362 0)
(-0.0480761 0.295401 0)
(-0.00557688 0.244212 0)
(0.0412204 0.192381 0)
(0.0846554 0.145048 0)
(0.120539 0.102972 0)
(0.146705 0.0651381 0)
(0.16205 0.0298915 0)
(0.165945 -0.00467167 0)
(0.157939 -0.0406287 0)
(0.137735 -0.0802469 0)
(0.105442 -0.125918 0)
(0.062264 -0.179727 0)
(0.0118071 -0.242021 0)
(-0.037829 -0.307878 0)
(-0.0716789 -0.360143 0)
(-0.0700553 -0.356608 0)
(-0.0279122 -0.208375 0)
(-0.029649 0.239176 0)
(-0.0608412 0.335768 0)
(-0.0219421 0.300503 0)
(0.0505425 0.240127 0)
(0.127573 0.182949 0)
(0.197009 0.13539 0)
(0.254338 0.0973993 0)
(0.298252 0.0668513 0)
(0.328827 0.0413555 0)
(0.346469 0.0187786 0)
(0.351378 -0.00279423 0)
(0.343305 -0.0252653 0)
(0.321471 -0.050788 0)
(0.284644 -0.0820483 0)
(0.231573 -0.122446 0)
(0.162182 -0.175669 0)
(0.0799012 -0.243431 0)
(-0.00318958 -0.319136 0)
(-0.0546695 -0.368612 0)
(-0.0284594 -0.267618 0)
(0.00808309 0.281861 0)
(0.019783 0.294972 0)
(0.139066 0.210973 0)
(0.26446 0.143477 0)
(0.364368 0.0971861 0)
(0.440365 0.0657776 0)
(0.496744 0.0442376 0)
(0.536875 0.0288861 0)
(0.563448 0.0171989 0)
(0.578307 0.0074848 0)
(0.582381 -0.00149415 0)
(0.575696 -0.0108453 0)
(0.557309 -0.0218472 0)
(0.525136 -0.036335 0)
(0.475777 -0.0572596 0)
(0.404538 -0.0893841 0)
(0.305176 -0.139741 0)
(0.173417 -0.216386 0)
(0.0411721 -0.311655 0)
(0.0184302 -0.299995 0)
(0.299604 0.146091 0)
(0.396272 0.127503 0)
(0.55742 0.0760895 0)
(0.674487 0.0437233 0)
(0.743889 0.0255721 0)
(0.787153 0.0152422 0)
(0.815485 0.00921235 0)
(0.833955 0.00550942 0)
(0.845385 0.00302718 0)
(0.851372 0.00114935 0)
(0.852666 -0.000499389 0)
(0.849382 -0.00221508 0)
(0.841 -0.00433858 0)
(0.826141 -0.00742409 0)
(0.802078 -0.0125323 0)
(0.763621 -0.0217728 0)
(0.699108 -0.0392829 0)
(0.583952 -0.0726601 0)
(0.415827 -0.127868 0)
(0.308819 -0.149468 0)
)
;

boundaryField
{
    movingWall
    {
        type            fixedValue;
        value           uniform (1 0 0);
    }
    fixedWalls
    {
        type            noSlip;
    }
    frontAndBack
    {
        type            empty;
    }
}


// ************************************************************************* //
