/*--------------------------------*- C++ -*----------------------------------*\
  =========                 |
  \\      /  F ield         | OpenFOAM: The Open Source CFD Toolbox
   \\    /   O peration     | Website:  https://openfoam.org
    \\  /    A nd           | Version:  8
     \\/     M anipulation  |
\*---------------------------------------------------------------------------*/
FoamFile
{
    version     2.0;
    format      ascii;
    class       volScalarField;
    location    "20";
    object      p;
}
// * * * * * * * * * * * * * * * * * * * * * * * * * * * * * * * * * * * * * //

dimensions      [0 2 -2 0 0 0 0];

internalField   nonuniform List<scalar> 
464
(
5.07549e-09
4.28669e-06
1.36425e-05
2.74794e-05
4.56514e-05
6.76944e-05
9.32467e-05
0.000121502
0.000152762
0.000183771
0.000219887
0.000248412
-4.29936e-06
5.68292e-08
9.58806e-06
2.36869e-05
4.22061e-05
6.46848e-05
9.0753e-05
0.000119619
0.000151574
0.000183463
0.000220615
0.000250667
-1.38676e-05
-9.3344e-06
5.90237e-07
1.527e-05
3.45388e-05
5.79112e-05
8.49415e-05
0.000114885
0.000147452
0.000180885
0.000216627
0.000249329
-2.85967e-05
-2.37859e-05
-1.32507e-05
2.33683e-06
2.27955e-05
4.76297e-05
7.63575e-05
0.000108259
0.000142957
0.000178887
0.000217162
0.000252689
-4.89142e-05
-4.37189e-05
-3.23433e-05
-1.55058e-05
6.57724e-06
3.33801e-05
6.43373e-05
9.87069e-05
0.000135833
0.000174585
0.000214599
0.000254026
-7.52591e-05
-6.95555e-05
-5.70856e-05
-3.86091e-05
-1.44014e-05
1.49951e-05
4.89395e-05
8.66861e-05
0.000127501
0.000170315
0.000214618
0.00025838
-0.000108166
-0.000101832
-8.80127e-05
-6.74923e-05
-4.06503e-05
-8.03207e-06
2.95934e-05
7.14453e-05
0.000116654
0.000164163
0.000213109
0.000262276
-0.000148723
-0.000141546
-0.000126037
-0.000102906
-7.28088e-05
-3.62026e-05
5.94508e-06
5.28514e-05
0.00010353
0.000156951
0.000212199
0.000267706
-0.000196354
-0.000188386
-0.000171119
-0.000145165
-0.000111377
-7.00656e-05
-2.25745e-05
3.03026e-05
8.73949e-05
0.000147616
0.000209756
0.000273029
-0.000257367
-0.000247608
-0.000227612
-0.000196956
-0.000158151
-0.000110738
-5.67808e-05
3.2662e-06
6.80267e-05
0.000136658
0.000208126
0.000280382
-0.000320457
-0.000310144
-0.000288179
-0.000254287
-0.000210953
-0.000157492
-9.66672e-05
-2.87597e-05
4.43217e-05
0.000121151
0.000200464
0.000282278
-0.000413209
-0.00039857
-0.00037338
-0.000329734
-0.000279649
-0.000215581
-0.000145236
-6.685e-05
1.69521e-05
0.000106344
0.000199875
0.000294924
-0.00049249
-0.000479435
-0.000451342
-0.000405075
-0.000349044
-0.000277538
-0.000198838
-0.000110744
-1.73572e-05
7.98505e-05
0.000180153
0.000284773
-0.000634606
-0.000608257
-0.000578865
-0.000510919
-0.000447256
-0.000356673
-0.000266065
-0.000162139
-5.37097e-05
6.15578e-05
0.00018167
0.000306165
-0.000731388
-0.000719183
-0.000681372
-0.000614459
-0.000539065
-0.000439224
-0.000336733
-0.000220551
-0.000102594
1.97231e-05
0.000145215
0.000275781
-0.000956349
-0.000894428
-0.000867221
-0.000751473
-0.000670803
-0.000539574
-0.000422753
-0.000284209
-0.000146624
-1.67514e-06
0.000147782
0.000305463
-0.0010685
-0.0010848
-0.00102058
-0.00092053
-0.000800657
-0.000656259
-0.000515347
-0.000362441
-0.000213875
-6.21656e-05
8.70026e-05
0.000247928
-0.00147607
-0.00121636
-0.00127048
-0.00103428
-0.000948276
-0.000749224
-0.000600766
-0.000421929
-0.000255015
-8.19973e-05
9.04713e-05
0.000279105
-0.00163274
-0.00181029
-0.00155492
-0.00142859
-0.00117071
-0.000948141
-0.000735056
-0.000528334
-0.000339935
-0.000155617
1.46365e-05
0.000201657
-0.00297987
-0.0016932
-0.001776
-0.0014236
-0.00122855
-0.000982866
-0.000768681
-0.000558167
-0.000358979
-0.000166417
1.69898e-05
0.000211605
0.000290932
0.000310692
0.000332719
0.000347275
0.000360528
0.000369708
0.000376175
0.000379047
0.000295221
0.000316576
0.000340544
0.00035666
0.00037121
0.000381472
0.000388645
0.000391854
0.000285151
0.000312896
0.00033991
0.000361226
0.000379385
0.000392814
0.000401981
0.000406189
0.000291231
0.000321914
0.000351616
0.000375575
0.000395922
0.000411209
0.000421621
0.000426411
0.000293184
0.000328928
0.00036204
0.000390587
0.000414569
0.000432939
0.000445454
0.000451287
0.000301883
0.000342156
0.000379547
0.000412245
0.000439816
0.000461262
0.000475938
0.000482862
0.000310749
0.000356869
0.00039976
0.000437991
0.000470339
0.000495841
0.000513253
0.000521608
0.0003227
0.000375535
0.000424989
0.000469804
0.000507897
0.000538619
0.000559444
0.000569766
0.000335829
0.000396753
0.000453937
0.000506489
0.000550981
0.000587903
0.000612459
0.000625207
0.000352689
0.000423877
0.000491444
0.000555414
0.00060962
0.000656868
0.000687479
0.000704644
0.00036424
0.000445599
0.000522312
0.000597655
0.000658217
0.000717274
0.00075118
0.000774618
0.000391208
0.000489302
0.000581882
0.000678969
0.000755193
0.000836608
0.000881648
0.000916083
0.000389993
0.00050057
0.000597235
0.000714023
0.00078923
0.000897681
0.000940036
0.00099452
0.000431617
0.000569555
0.000691186
0.00084707
0.000952523
0.00110705
0.00117626
0.00125984
0.000400424
0.000554235
0.000660141
0.000851599
0.000925821
0.00114501
0.00118617
0.00134019
0.00045822
0.000650045
0.000798301
0.0010516
0.00119029
0.00150237
0.0016188
0.0018627
0.000380058
0.000591008
0.000673275
0.000985516
0.0010015
0.00145264
0.00144864
0.00193588
0.000445327
0.000693805
0.00084346
0.0012339
0.00137541
0.00200701
0.00219558
0.00301896
0.000325388
0.000590786
0.000589497
0.00105196
0.000831708
0.00168327
0.00133144
0.00279005
0.00036598
0.00064037
0.000722247
0.00122558
0.00126795
0.00238309
0.00287561
0.00584244
0.000347569
0.000348008
0.000348896
0.000349987
0.000351173
0.000352212
0.000353002
0.000353384
0.000348196
0.000348656
0.000349574
0.000350719
0.000351916
0.000352975
0.000353769
0.000354154
0.000345153
0.000345885
0.000347328
0.000349009
0.00035084
0.00035239
0.000353567
0.000354124
0.000346935
0.000347768
0.000349365
0.000351275
0.000353199
0.000354868
0.000356096
0.000356686
0.000339396
0.00034117
0.000344323
0.000347695
0.000351232
0.000354086
0.000356209
0.000357192
0.000342414
0.000344409
0.000347935
0.000351783
0.00035555
0.000358675
0.00036094
0.000362003
0.000325891
0.000331266
0.000339147
0.000346359
0.000353429
0.000358782
0.000362636
0.000364386
0.000330237
0.000336032
0.000344715
0.000352756
0.000360381
0.000366265
0.000370466
0.00037238
)
;

boundaryField
{
    movingWall
    {
        type            zeroGradient;
    }
    fixedWalls
    {
        type            zeroGradient;
    }
    frontAndBack
    {
        type            empty;
    }
}


// ************************************************************************* //
