/*--------------------------------*- C++ -*----------------------------------*\
  =========                 |
  \\      /  F ield         | OpenFOAM: The Open Source CFD Toolbox
   \\    /   O peration     | Website:  https://openfoam.org
    \\  /    A nd           | Version:  8
     \\/     M anipulation  |
\*---------------------------------------------------------------------------*/
FoamFile
{
    version     2.0;
    format      ascii;
    class       volScalarField;
    location    "0.54";
    object      p;
}
// * * * * * * * * * * * * * * * * * * * * * * * * * * * * * * * * * * * * * //

dimensions      [0 2 -2 0 0 0 0];

internalField   nonuniform List<scalar> 
400
(
-2.37924e-12
-2.23259e-06
-4.48708e-06
-6.21282e-06
-7.30143e-06
-7.87503e-06
-8.03753e-06
-7.91913e-06
-7.63472e-06
-7.22818e-06
-6.67401e-06
-5.92111e-06
-4.93837e-06
-3.73961e-06
-2.38747e-06
-9.8509e-07
3.39471e-07
1.41805e-06
1.98016e-06
1.58433e-06
-9.74153e-07
-2.85105e-06
-4.5663e-06
-5.86869e-06
-6.77827e-06
-7.30343e-06
-7.48674e-06
-7.43651e-06
-7.25799e-06
-6.98622e-06
-6.58668e-06
-6.00127e-06
-5.19624e-06
-4.18643e-06
-3.0353e-06
-1.83817e-06
-6.89672e-07
2.78537e-07
7.63685e-07
3.68155e-07
-2.1628e-06
-3.78583e-06
-5.01817e-06
-5.92719e-06
-6.61642e-06
-7.04519e-06
-7.20098e-06
-7.16746e-06
-7.04103e-06
-6.85138e-06
-6.55649e-06
-6.08949e-06
-5.41062e-06
-4.5336e-06
-3.52144e-06
-2.45976e-06
-1.41368e-06
-4.9727e-07
-1.01049e-07
-7.05744e-07
-3.12578e-06
-4.61673e-06
-5.5345e-06
-6.1351e-06
-6.63226e-06
-6.9626e-06
-7.06951e-06
-7.01879e-06
-6.90605e-06
-6.76273e-06
-6.54251e-06
-6.16878e-06
-5.59313e-06
-4.82661e-06
-3.93171e-06
-2.98307e-06
-2.01268e-06
-1.11424e-06
-7.5022e-07
-1.49964e-06
-3.78986e-06
-5.26727e-06
-5.99151e-06
-6.36818e-06
-6.71271e-06
-6.95134e-06
-6.99873e-06
-6.91356e-06
-6.79651e-06
-6.68376e-06
-6.52559e-06
-6.23459e-06
-5.75153e-06
-5.08364e-06
-4.29364e-06
-3.44578e-06
-2.53736e-06
-1.63168e-06
-1.24619e-06
-2.06017e-06
-4.27596e-06
-5.78678e-06
-6.39553e-06
-6.60467e-06
-6.81852e-06
-6.96629e-06
-6.94771e-06
-6.82063e-06
-6.69169e-06
-6.60099e-06
-6.49504e-06
-6.27539e-06
-5.87161e-06
-5.28683e-06
-4.58497e-06
-3.82186e-06
-2.96241e-06
-2.03644e-06
-1.60229e-06
-2.44585e-06
-4.62648e-06
-6.20429e-06
-6.75164e-06
-6.83121e-06
-6.92911e-06
-6.98977e-06
-6.90673e-06
-6.73897e-06
-6.59699e-06
-6.52264e-06
-6.4581e-06
-6.29491e-06
-5.95261e-06
-5.43121e-06
-4.797e-06
-4.09989e-06
-3.27743e-06
-2.3281e-06
-1.83858e-06
-2.69426e-06
-4.87142e-06
-6.52663e-06
-7.04642e-06
-7.0263e-06
-7.02554e-06
-7.01099e-06
-6.8749e-06
-6.67629e-06
-6.52607e-06
-6.46546e-06
-6.4326e-06
-6.31084e-06
-6.01173e-06
-5.53375e-06
-4.94724e-06
-4.29916e-06
-3.50572e-06
-2.53828e-06
-1.99865e-06
-2.85263e-06
-5.0426e-06
-6.76573e-06
-7.27728e-06
-7.18414e-06
-7.1056e-06
-7.03323e-06
-6.8604e-06
-6.64407e-06
-6.49198e-06
-6.44302e-06
-6.43218e-06
-6.33718e-06
-6.06419e-06
-5.61195e-06
-5.0565e-06
-4.44488e-06
-3.67797e-06
-2.70421e-06
-2.12681e-06
-2.96685e-06
-5.16569e-06
-6.93612e-06
-7.4516e-06
-7.31146e-06
-7.1777e-06
-7.06571e-06
-6.87183e-06
-6.6492e-06
-6.4996e-06
-6.45842e-06
-6.45893e-06
-6.3763e-06
-6.1143e-06
-5.67369e-06
-5.13721e-06
-4.55433e-06
-3.81641e-06
-2.8529e-06
-2.25424e-06
-3.06929e-06
-5.25793e-06
-7.05067e-06
-7.58007e-06
-7.41904e-06
-7.25175e-06
-7.11527e-06
-6.91154e-06
-6.68939e-06
-6.54275e-06
-6.50302e-06
-6.5035e-06
-6.42001e-06
-6.15684e-06
-5.71799e-06
-5.19297e-06
-4.63525e-06
-3.93231e-06
-2.99869e-06
-2.39801e-06
-3.17851e-06
-5.33039e-06
-7.12011e-06
-7.67295e-06
-7.51662e-06
-7.33512e-06
-7.18457e-06
-6.97621e-06
-6.75544e-06
-6.60784e-06
-6.56103e-06
-6.55022e-06
-6.45477e-06
-6.18179e-06
-5.73896e-06
-5.22164e-06
-4.6883e-06
-4.02805e-06
-3.14523e-06
-2.56368e-06
-3.30302e-06
-5.3886e-06
-7.15229e-06
-7.73737e-06
-7.61002e-06
-7.43158e-06
-7.27357e-06
-7.06058e-06
-6.83681e-06
-6.68037e-06
-6.61621e-06
-6.58339e-06
-6.46707e-06
-6.17866e-06
-5.72905e-06
-5.21789e-06
-4.70913e-06
-4.09892e-06
-3.28666e-06
-2.7461e-06
-3.44257e-06
-5.43075e-06
-7.15021e-06
-7.77596e-06
-7.70106e-06
-7.54258e-06
-7.38247e-06
-7.16222e-06
-6.92784e-06
-6.75211e-06
-6.6591e-06
-6.59368e-06
-6.44867e-06
-6.14048e-06
-5.68204e-06
-5.17513e-06
-4.68925e-06
-4.13275e-06
-3.40627e-06
-2.92751e-06
-3.58635e-06
-5.44666e-06
-7.11159e-06
-7.78894e-06
-7.79189e-06
-7.67285e-06
-7.51801e-06
-7.28877e-06
-7.036e-06
-6.82977e-06
-6.69548e-06
-6.58581e-06
-6.40293e-06
-6.06874e-06
-5.5965e-06
-5.0873e-06
-4.61597e-06
-4.10836e-06
-3.47427e-06
-3.07554e-06
-3.7106e-06
-5.42135e-06
-7.03281e-06
-7.7775e-06
-7.88779e-06
-7.83239e-06
-7.69484e-06
-7.45867e-06
-7.18232e-06
-6.93566e-06
-6.74745e-06
-6.58005e-06
-6.34665e-06
-5.97507e-06
-5.47721e-06
-4.9506e-06
-4.47512e-06
-4e-06
-3.45473e-06
-3.15049e-06
-3.78261e-06
-5.3486e-06
-6.91947e-06
-7.74671e-06
-7.98965e-06
-8.0208e-06
-7.91455e-06
-7.67711e-06
-7.37602e-06
-7.08284e-06
-6.83078e-06
-6.59275e-06
-6.29421e-06
-5.86969e-06
-5.32887e-06
-4.76385e-06
-4.26035e-06
-3.79713e-06
-3.33314e-06
-3.13391e-06
-3.78491e-06
-5.2535e-06
-6.81613e-06
-7.74123e-06
-8.12555e-06
-8.25058e-06
-8.18091e-06
-7.94455e-06
-7.61702e-06
-7.27189e-06
-6.94664e-06
-6.62403e-06
-6.24205e-06
-5.74355e-06
-5.13775e-06
-4.51282e-06
-3.96225e-06
-3.49781e-06
-3.11021e-06
-3.02441e-06
-3.72151e-06
-5.1355e-06
-6.7873e-06
-7.86182e-06
-8.40004e-06
-8.61306e-06
-8.57042e-06
-8.32397e-06
-7.95594e-06
-7.5414e-06
-7.12133e-06
-6.68705e-06
-6.18899e-06
-5.58078e-06
-4.87531e-06
-4.15943e-06
-3.53412e-06
-3.04354e-06
-2.71174e-06
-2.74354e-06
-3.5455e-06
-4.92775e-06
-6.89819e-06
-8.26954e-06
-8.99248e-06
-9.28191e-06
-9.23578e-06
-8.93834e-06
-8.48329e-06
-7.95142e-06
-7.38979e-06
-6.79846e-06
-6.13911e-06
-5.37485e-06
-4.52044e-06
-3.65704e-06
-2.88693e-06
-2.287e-06
-1.93314e-06
-2.07795e-06
-3.09086e-06
)
;

boundaryField
{
    movingWall
    {
        type            zeroGradient;
    }
    fixedWalls
    {
        type            zeroGradient;
    }
    left
    {
        type            cyclic;
    }
    right
    {
        type            cyclic;
    }
    frontAndBack
    {
        type            empty;
    }
}


// ************************************************************************* //
