/*--------------------------------*- C++ -*----------------------------------*\
  =========                 |
  \\      /  F ield         | OpenFOAM: The Open Source CFD Toolbox
   \\    /   O peration     | Website:  https://openfoam.org
    \\  /    A nd           | Version:  8
     \\/     M anipulation  |
\*---------------------------------------------------------------------------*/
FoamFile
{
    version     2.0;
    format      ascii;
    class       volVectorField;
    location    "0.54";
    object      U;
}
// * * * * * * * * * * * * * * * * * * * * * * * * * * * * * * * * * * * * * //

dimensions      [0 1 -1 0 0 0 0];

internalField   nonuniform List<vector> 
400
(
(0.0246748 -4.90573e-08 0)
(0.0246748 3.25134e-08 0)
(0.0246746 8.88562e-08 0)
(0.0246744 1.00959e-07 0)
(0.0246742 9.93102e-08 0)
(0.024674 9.04595e-08 0)
(0.0246738 7.7303e-08 0)
(0.0246737 6.2759e-08 0)
(0.0246735 4.86464e-08 0)
(0.0246735 3.50235e-08 0)
(0.0246734 2.08272e-08 0)
(0.0246734 4.74826e-09 0)
(0.0246734 -1.42339e-08 0)
(0.0246734 -3.67819e-08 0)
(0.0246735 -6.32308e-08 0)
(0.0246737 -9.32121e-08 0)
(0.0246739 -1.24538e-07 0)
(0.0246742 -1.48272e-07 0)
(0.0246745 -1.45916e-07 0)
(0.0246747 -1.16317e-07 0)
(0.0740312 -6.71063e-08 0)
(0.0740312 1.62698e-07 0)
(0.074031 3.2126e-07 0)
(0.0740307 3.71898e-07 0)
(0.0740304 3.71751e-07 0)
(0.0740301 3.43737e-07 0)
(0.0740298 2.99384e-07 0)
(0.0740295 2.47456e-07 0)
(0.0740293 1.9303e-07 0)
(0.0740292 1.36959e-07 0)
(0.0740291 7.72597e-08 0)
(0.074029 1.0986e-08 0)
(0.074029 -6.43606e-08 0)
(0.0740292 -1.50066e-07 0)
(0.0740293 -2.45473e-07 0)
(0.0740296 -3.4621e-07 0)
(0.07403 -4.40602e-07 0)
(0.0740304 -4.97503e-07 0)
(0.0740308 -4.63046e-07 0)
(0.0740311 -3.1953e-07 0)
(0.123411 -1.31549e-07 0)
(0.123411 2.87569e-07 0)
(0.123411 5.46049e-07 0)
(0.123411 6.58949e-07 0)
(0.12341 6.78949e-07 0)
(0.12341 6.4256e-07 0)
(0.12341 5.71486e-07 0)
(0.12341 4.80666e-07 0)
(0.123409 3.7867e-07 0)
(0.123409 2.68373e-07 0)
(0.123409 1.48709e-07 0)
(0.123409 1.68467e-08 0)
(0.123409 -1.29881e-07 0)
(0.123409 -2.92381e-07 0)
(0.123409 -4.678e-07 0)
(0.12341 -6.45805e-07 0)
(0.12341 -8.02332e-07 0)
(0.12341 -8.86223e-07 0)
(0.12341 -8.15051e-07 0)
(0.123411 -5.37023e-07 0)
(0.172829 -1.98631e-07 0)
(0.172829 3.07751e-07 0)
(0.172829 6.55971e-07 0)
(0.172829 8.311e-07 0)
(0.172829 8.84472e-07 0)
(0.172829 8.58223e-07 0)
(0.172829 7.79533e-07 0)
(0.172829 6.67262e-07 0)
(0.172829 5.33173e-07 0)
(0.172829 3.82879e-07 0)
(0.172828 2.17441e-07 0)
(0.172828 3.54192e-08 0)
(0.172828 -1.64969e-07 0)
(0.172828 -3.8358e-07 0)
(0.172828 -6.15286e-07 0)
(0.172829 -8.45094e-07 0)
(0.172829 -1.04077e-06 0)
(0.172829 -1.14071e-06 0)
(0.172829 -1.05293e-06 0)
(0.172829 -7.14536e-07 0)
(0.222301 -2.95515e-07 0)
(0.222302 2.52161e-07 0)
(0.222302 6.52521e-07 0)
(0.222302 8.76966e-07 0)
(0.222302 9.67719e-07 0)
(0.222302 9.64627e-07 0)
(0.222302 8.95559e-07 0)
(0.222301 7.81268e-07 0)
(0.222301 6.35782e-07 0)
(0.222301 4.6702e-07 0)
(0.222301 2.78176e-07 0)
(0.222301 6.95709e-08 0)
(0.222301 -1.5923e-07 0)
(0.222301 -4.06894e-07 0)
(0.222301 -6.6685e-07 0)
(0.222301 -9.22084e-07 0)
(0.222301 -1.13778e-06 0)
(0.222301 -1.25128e-06 0)
(0.222301 -1.17105e-06 0)
(0.222301 -8.32022e-07 0)
(0.27184 -3.78714e-07 0)
(0.27184 1.49679e-07 0)
(0.27184 5.59205e-07 0)
(0.27184 8.0995e-07 0)
(0.271841 9.31012e-07 0)
(0.271841 9.55456e-07 0)
(0.271841 9.08229e-07 0)
(0.271841 8.09293e-07 0)
(0.271841 6.7316e-07 0)
(0.271841 5.09e-07 0)
(0.271841 3.21579e-07 0)
(0.271841 1.12705e-07 0)
(0.271841 -1.16918e-07 0)
(0.27184 -3.6524e-07 0)
(0.27184 -6.25483e-07 0)
(0.27184 -8.81201e-07 0)
(0.27184 -1.09959e-06 0)
(0.27184 -1.22365e-06 0)
(0.27184 -1.17008e-06 0)
(0.27184 -8.73802e-07 0)
(0.321457 -4.31703e-07 0)
(0.321457 2.83193e-08 0)
(0.321457 4.06121e-07 0)
(0.321457 6.55803e-07 0)
(0.321457 7.93164e-07 0)
(0.321457 8.42324e-07 0)
(0.321458 8.22763e-07 0)
(0.321458 7.51423e-07 0)
(0.321458 6.41541e-07 0)
(0.321458 5.02213e-07 0)
(0.321458 3.38836e-07 0)
(0.321458 1.54092e-07 0)
(0.321458 -5.06247e-08 0)
(0.321458 -2.73198e-07 0)
(0.321457 -5.07965e-07 0)
(0.321457 -7.41409e-07 0)
(0.321457 -9.46299e-07 0)
(0.321457 -1.07589e-06 0)
(0.321457 -1.06078e-06 0)
(0.321457 -8.38475e-07 0)
(0.37116 -4.44177e-07 0)
(0.371161 -9.1825e-08 0)
(0.371161 2.18441e-07 0)
(0.371161 4.39878e-07 0)
(0.371161 5.76674e-07 0)
(0.371161 6.43262e-07 0)
(0.371162 6.52231e-07 0)
(0.371162 6.15865e-07 0)
(0.371162 5.44564e-07 0)
(0.371162 4.46017e-07 0)
(0.371162 3.2523e-07 0)
(0.371162 1.85024e-07 0)
(0.371162 2.6904e-08 0)
(0.371162 -1.47606e-07 0)
(0.371162 -3.34975e-07 0)
(0.371162 -5.26314e-07 0)
(0.371161 -7.02478e-07 0)
(0.371161 -8.3016e-07 0)
(0.371161 -8.57811e-07 0)
(0.371161 -7.29254e-07 0)
(0.420959 -4.11405e-07 0)
(0.420959 -1.94777e-07 0)
(0.420959 1.94848e-08 0)
(0.42096 1.88766e-07 0)
(0.42096 3.08033e-07 0)
(0.42096 3.82324e-07 0)
(0.42096 4.16801e-07 0)
(0.420961 4.18063e-07 0)
(0.420961 3.92498e-07 0)
(0.420961 3.45285e-07 0)
(0.420961 2.80114e-07 0)
(0.420961 1.99231e-07 0)
(0.420961 1.03691e-07 0)
(0.420961 -6.0948e-09 0)
(0.420961 -1.29334e-07 0)
(0.42096 -2.62672e-07 0)
(0.42096 -3.96508e-07 0)
(0.42096 -5.12909e-07 0)
(0.42096 -5.80871e-07 0)
(0.420959 -5.54521e-07 0)
(0.470857 -3.3506e-07 0)
(0.470857 -2.70172e-07 0)
(0.470857 -1.71334e-07 0)
(0.470858 -7.24868e-08 0)
(0.470858 1.4636e-08 0)
(0.470858 8.65285e-08 0)
(0.470859 1.41014e-07 0)
(0.470859 1.78563e-07 0)
(0.470859 2.00853e-07 0)
(0.470859 2.09777e-07 0)
(0.470859 2.07005e-07 0)
(0.470859 1.93638e-07 0)
(0.470859 1.69876e-07 0)
(0.470859 1.34773e-07 0)
(0.470859 8.62215e-08 0)
(0.470859 2.18645e-08 0)
(0.470859 -5.86963e-08 0)
(0.470858 -1.53706e-07 0)
(0.470858 -2.54266e-07 0)
(0.470857 -3.28469e-07 0)
(0.520858 -2.23016e-07 0)
(0.520858 -3.13782e-07 0)
(0.520858 -3.39647e-07 0)
(0.520858 -3.22106e-07 0)
(0.520858 -2.77398e-07 0)
(0.520858 -2.16496e-07 0)
(0.520859 -1.48417e-07 0)
(0.520859 -7.87865e-08 0)
(0.520859 -1.08975e-08 0)
(0.520859 5.34656e-08 0)
(0.52086 1.1354e-07 0)
(0.52086 1.68958e-07 0)
(0.52086 2.189e-07 0)
(0.52086 2.61113e-07 0)
(0.520859 2.90892e-07 0)
(0.520859 3.00648e-07 0)
(0.520859 2.80472e-07 0)
(0.520859 2.16238e-07 0)
(0.520858 9.42913e-08 0)
(0.520858 -7.04472e-08 0)
(0.57096 -8.83556e-08 0)
(0.57096 -3.27087e-07 0)
(0.57096 -4.76144e-07 0)
(0.57096 -5.42255e-07 0)
(0.57096 -5.44472e-07 0)
(0.570961 -5.00167e-07 0)
(0.570961 -4.24458e-07 0)
(0.570961 -3.28674e-07 0)
(0.570961 -2.20943e-07 0)
(0.570962 -1.06742e-07 0)
(0.570962 1.06628e-08 0)
(0.570962 1.29396e-07 0)
(0.570962 2.47725e-07 0)
(0.570962 3.62438e-07 0)
(0.570962 4.66925e-07 0)
(0.570961 5.49435e-07 0)
(0.570961 5.91866e-07 0)
(0.570961 5.65603e-07 0)
(0.570961 4.35189e-07 0)
(0.57096 1.96247e-07 0)
(0.621162 5.20614e-08 0)
(0.621162 -3.16022e-07 0)
(0.621162 -5.75811e-07 0)
(0.621162 -7.1885e-07 0)
(0.621162 -7.65912e-07 0)
(0.621162 -7.39872e-07 0)
(0.621163 -6.61074e-07 0)
(0.621163 -5.45868e-07 0)
(0.621163 -4.06712e-07 0)
(0.621163 -2.52414e-07 0)
(0.621163 -8.84819e-08 0)
(0.621163 8.19532e-08 0)
(0.621163 2.56591e-07 0)
(0.621163 4.31859e-07 0)
(0.621163 6.00242e-07 0)
(0.621163 7.47353e-07 0)
(0.621163 8.48936e-07 0)
(0.621163 8.6433e-07 0)
(0.621162 7.38355e-07 0)
(0.621162 4.4591e-07 0)
(0.671458 1.79375e-07 0)
(0.671458 -2.89239e-07 0)
(0.671458 -6.36781e-07 0)
(0.671458 -8.40993e-07 0)
(0.671458 -9.24042e-07 0)
(0.671459 -9.13683e-07 0)
(0.671459 -8.34493e-07 0)
(0.671459 -7.0685e-07 0)
(0.671459 -5.46661e-07 0)
(0.671459 -3.65347e-07 0)
(0.671459 -1.7009e-07 0)
(0.671459 3.52095e-08 0)
(0.671459 2.48222e-07 0)
(0.671459 4.65761e-07 0)
(0.671459 6.80595e-07 0)
(0.671459 8.77538e-07 0)
(0.671459 1.02878e-06 0)
(0.671459 1.08503e-06 0)
(0.671459 9.74815e-07 0)
(0.671458 6.52292e-07 0)
(0.721842 2.74929e-07 0)
(0.721842 -2.5601e-07 0)
(0.721842 -6.5877e-07 0)
(0.721842 -9.00206e-07 0)
(0.721842 -1.00436e-06 0)
(0.721842 -1.00342e-06 0)
(0.721842 -9.25003e-07 0)
(0.721842 -7.92132e-07 0)
(0.721842 -6.22871e-07 0)
(0.721842 -4.302e-07 0)
(0.721842 -2.22162e-07 0)
(0.721842 -2.76989e-09 0)
(0.721842 2.26244e-07 0)
(0.721842 4.62865e-07 0)
(0.721842 7.01328e-07 0)
(0.721842 9.27559e-07 0)
(0.721842 1.11316e-06 0)
(0.721842 1.20449e-06 0)
(0.721842 1.11851e-06 0)
(0.721842 7.90865e-07 0)
(0.772303 3.2325e-07 0)
(0.772303 -2.23566e-07 0)
(0.772303 -6.40632e-07 0)
(0.772303 -8.88978e-07 0)
(0.772303 -9.95337e-07 0)
(0.772303 -9.9558e-07 0)
(0.772303 -9.18696e-07 0)
(0.772303 -7.88498e-07 0)
(0.772303 -6.23523e-07 0)
(0.772303 -4.36976e-07 0)
(0.772303 -2.36779e-07 0)
(0.772303 -2.63243e-08 0)
(0.772303 1.93857e-07 0)
(0.772303 4.23547e-07 0)
(0.772303 6.59368e-07 0)
(0.772303 8.9005e-07 0)
(0.772303 1.08968e-06 0)
(0.772303 1.20524e-06 0)
(0.772303 1.14839e-06 0)
(0.772303 8.41242e-07 0)
(0.822831 3.14885e-07 0)
(0.822831 -1.93428e-07 0)
(0.822831 -5.76119e-07 0)
(0.822831 -7.96714e-07 0)
(0.822831 -8.8513e-07 0)
(0.822831 -8.78996e-07 0)
(0.82283 -8.0597e-07 0)
(0.82283 -6.88149e-07 0)
(0.82283 -5.42491e-07 0)
(0.82283 -3.80895e-07 0)
(0.82283 -2.10109e-07 0)
(0.82283 -3.22396e-08 0)
(0.82283 1.53767e-07 0)
(0.82283 3.49733e-07 0)
(0.82283 5.55045e-07 0)
(0.82283 7.62369e-07 0)
(0.82283 9.5112e-07 0)
(0.822831 1.07436e-06 0)
(0.822831 1.04754e-06 0)
(0.822831 7.86723e-07 0)
(0.873412 2.44785e-07 0)
(0.873412 -1.63082e-07 0)
(0.873412 -4.59396e-07 0)
(0.873412 -6.18056e-07 0)
(0.873412 -6.71902e-07 0)
(0.873411 -6.55976e-07 0)
(0.873411 -5.92691e-07 0)
(0.873411 -4.99139e-07 0)
(0.873411 -3.88364e-07 0)
(0.87341 -2.69505e-07 0)
(0.87341 -1.47343e-07 0)
(0.87341 -2.23408e-08 0)
(0.87341 1.08102e-07 0)
(0.87341 2.47336e-07 0)
(0.873411 3.9671e-07 0)
(0.873411 5.52665e-07 0)
(0.873411 7.02323e-07 0)
(0.873411 8.11409e-07 0)
(0.873412 8.11042e-07 0)
(0.873412 6.20265e-07 0)
(0.924032 1.34989e-07 0)
(0.924032 -1.08676e-07 0)
(0.924032 -2.73395e-07 0)
(0.924032 -3.51283e-07 0)
(0.924031 -3.68262e-07 0)
(0.924031 -3.49736e-07 0)
(0.924031 -3.08578e-07 0)
(0.92403 -2.54093e-07 0)
(0.92403 -1.9332e-07 0)
(0.92403 -1.31195e-07 0)
(0.92403 -6.99851e-08 0)
(0.92403 -8.97991e-09 0)
(0.92403 5.47318e-08 0)
(0.92403 1.24341e-07 0)
(0.92403 2.0128e-07 0)
(0.92403 2.84497e-07 0)
(0.924031 3.69602e-07 0)
(0.924031 4.3922e-07 0)
(0.924031 4.54797e-07 0)
(0.924032 3.51967e-07 0)
(0.974675 3.14576e-08 0)
(0.974675 -4.34583e-08 0)
(0.974675 -8.6856e-08 0)
(0.974675 -1.02139e-07 0)
(0.974675 -1.00871e-07 0)
(0.974674 -9.16677e-08 0)
(0.974674 -7.79027e-08 0)
(0.974674 -6.17637e-08 0)
(0.974674 -4.49788e-08 0)
(0.974674 -2.88678e-08 0)
(0.974674 -1.39504e-08 0)
(0.974674 3.42928e-10 0)
(0.974674 1.53792e-08 0)
(0.974674 3.24701e-08 0)
(0.974674 5.2087e-08 0)
(0.974674 7.4081e-08 0)
(0.974674 9.82893e-08 0)
(0.974674 1.21052e-07 0)
(0.974675 1.30941e-07 0)
(0.974675 1.04203e-07 0)
)
;

boundaryField
{
    movingWall
    {
        type            fixedValue;
        value           uniform (1 0 0);
    }
    fixedWalls
    {
        type            noSlip;
    }
    left
    {
        type            cyclic;
    }
    right
    {
        type            cyclic;
    }
    frontAndBack
    {
        type            empty;
    }
}


// ************************************************************************* //
