/*--------------------------------*- C++ -*----------------------------------*\
  =========                 |
  \\      /  F ield         | OpenFOAM: The Open Source CFD Toolbox
   \\    /   O peration     | Website:  https://openfoam.org
    \\  /    A nd           | Version:  8
     \\/     M anipulation  |
\*---------------------------------------------------------------------------*/
FoamFile
{
    version     2.0;
    format      ascii;
    class       volScalarField;
    location    "0.73";
    object      p;
}
// * * * * * * * * * * * * * * * * * * * * * * * * * * * * * * * * * * * * * //

dimensions      [0 2 -2 0 0 0 0];

internalField   nonuniform List<scalar> 
400
(
-9.64785e-13
-9.66535e-07
-1.26202e-06
-1.0537e-06
-5.93145e-07
-2.74339e-08
5.61008e-07
1.12556e-06
1.64355e-06
2.09029e-06
2.44194e-06
2.71825e-06
2.96761e-06
3.20063e-06
3.37243e-06
3.43027e-06
3.35461e-06
3.10302e-06
2.47746e-06
1.34115e-06
4.98636e-07
-2.98856e-07
-5.12968e-07
-3.37888e-07
2.79059e-08
4.82745e-07
9.44568e-07
1.37391e-06
1.76968e-06
2.11226e-06
2.37325e-06
2.57087e-06
2.74974e-06
2.91466e-06
3.02507e-06
3.052e-06
3.01741e-06
2.90448e-06
2.52035e-06
1.63888e-06
9.21047e-07
1.33024e-07
-2.89799e-08
1.89113e-07
5.25245e-07
9.0199e-07
1.27049e-06
1.59412e-06
1.88088e-06
2.13036e-06
2.32353e-06
2.47107e-06
2.6061e-06
2.73301e-06
2.82738e-06
2.88547e-06
2.9556e-06
3.03011e-06
2.83361e-06
2.04764e-06
1.35847e-06
5.27495e-07
3.9861e-07
6.46364e-07
9.6617e-07
1.2834e-06
1.55876e-06
1.77363e-06
1.96088e-06
2.1334e-06
2.26885e-06
2.37197e-06
2.47845e-06
2.60088e-06
2.72576e-06
2.86001e-06
3.05811e-06
3.3153e-06
3.29341e-06
2.55611e-06
1.78745e-06
8.88815e-07
7.78517e-07
1.0615e-06
1.36909e-06
1.62299e-06
1.80404e-06
1.91902e-06
2.0185e-06
2.11792e-06
2.1935e-06
2.2549e-06
2.34726e-06
2.48889e-06
2.66514e-06
2.88394e-06
3.2089e-06
3.63333e-06
3.76377e-06
3.06528e-06
2.18909e-06
1.20486e-06
1.09376e-06
1.40479e-06
1.69447e-06
1.88402e-06
1.98212e-06
2.01341e-06
2.03453e-06
2.06562e-06
2.09226e-06
2.13032e-06
2.22256e-06
2.38643e-06
2.61204e-06
2.90784e-06
3.34453e-06
3.92169e-06
4.20255e-06
3.54831e-06
2.56653e-06
1.48277e-06
1.34367e-06
1.6588e-06
1.92285e-06
2.05492e-06
2.08412e-06
2.04605e-06
2.0013e-06
1.97904e-06
1.9794e-06
2.02132e-06
2.13222e-06
2.31688e-06
2.57552e-06
2.93226e-06
3.4656e-06
4.18307e-06
4.6121e-06
4.00957e-06
2.89117e-06
1.69797e-06
1.51454e-06
1.82107e-06
2.05876e-06
2.14477e-06
2.12413e-06
2.03954e-06
1.95197e-06
1.89706e-06
1.88815e-06
1.94678e-06
2.08483e-06
2.29108e-06
2.57039e-06
2.9661e-06
3.57142e-06
4.40466e-06
4.965e-06
4.41216e-06
3.1139e-06
1.8202e-06
1.594e-06
1.89043e-06
2.10691e-06
2.16177e-06
2.11495e-06
2.01352e-06
1.91326e-06
1.84927e-06
1.84219e-06
1.91488e-06
2.06994e-06
2.289e-06
2.58069e-06
2.99908e-06
3.64871e-06
4.56046e-06
5.21853e-06
4.70442e-06
3.21818e-06
1.8484e-06
1.587e-06
1.87246e-06
2.07152e-06
2.10713e-06
2.05345e-06
1.95962e-06
1.87219e-06
1.82021e-06
1.82578e-06
1.90988e-06
2.06983e-06
2.29019e-06
2.58816e-06
3.0204e-06
3.69061e-06
4.63808e-06
5.34973e-06
4.86021e-06
3.23513e-06
1.81735e-06
1.52423e-06
1.79316e-06
1.97519e-06
1.9994e-06
1.95117e-06
1.87883e-06
1.81832e-06
1.79185e-06
1.82049e-06
1.92038e-06
2.08332e-06
2.3009e-06
2.60195e-06
3.04067e-06
3.70886e-06
4.64942e-06
5.37112e-06
4.89783e-06
3.21153e-06
1.77155e-06
1.44269e-06
1.68457e-06
1.84851e-06
1.86801e-06
1.8339e-06
1.78916e-06
1.75896e-06
1.76173e-06
1.82001e-06
1.94373e-06
2.11675e-06
2.33584e-06
2.63994e-06
3.07751e-06
3.72256e-06
4.61884e-06
5.31384e-06
4.85634e-06
3.17611e-06
1.73906e-06
1.36416e-06
1.56331e-06
1.70558e-06
1.72437e-06
1.70909e-06
1.69223e-06
1.68807e-06
1.71626e-06
1.80551e-06
1.96157e-06
2.15743e-06
2.38942e-06
2.70161e-06
3.1341e-06
3.74127e-06
4.56505e-06
5.20325e-06
4.76398e-06
3.13479e-06
1.72982e-06
1.29941e-06
1.43691e-06
1.54884e-06
1.56392e-06
1.56487e-06
1.57128e-06
1.58657e-06
1.63509e-06
1.7563e-06
1.95378e-06
2.18738e-06
2.44676e-06
2.77544e-06
3.20384e-06
3.76687e-06
4.49982e-06
5.05513e-06
4.63215e-06
3.08535e-06
1.74472e-06
1.25899e-06
1.31746e-06
1.38556e-06
1.38739e-06
1.39578e-06
1.41961e-06
1.45323e-06
1.52512e-06
1.68454e-06
1.93271e-06
2.21552e-06
2.51276e-06
2.86455e-06
3.29195e-06
3.81011e-06
4.44018e-06
4.88828e-06
4.47063e-06
3.02424e-06
1.77603e-06
1.25083e-06
1.21971e-06
1.22721e-06
1.20347e-06
1.21085e-06
1.25021e-06
1.30939e-06
1.41652e-06
1.62342e-06
1.92702e-06
2.26244e-06
2.60207e-06
2.98189e-06
3.41236e-06
3.88582e-06
4.40335e-06
4.72564e-06
4.29759e-06
2.95098e-06
1.80238e-06
1.26533e-06
1.14872e-06
1.083e-06
1.02259e-06
1.02611e-06
1.08656e-06
1.18251e-06
1.33444e-06
1.58982e-06
1.9438e-06
2.33017e-06
2.71729e-06
3.1301e-06
3.56284e-06
3.9882e-06
4.39172e-06
4.58354e-06
4.12727e-06
2.8854e-06
1.80537e-06
1.25062e-06
1.05594e-06
9.23472e-07
8.34101e-07
8.44393e-07
9.38016e-07
1.07887e-06
1.27676e-06
1.57701e-06
1.97849e-06
2.41702e-06
2.85568e-06
3.3053e-06
3.73946e-06
4.11178e-06
4.40667e-06
4.47018e-06
3.9645e-06
2.84519e-06
1.78295e-06
1.14668e-06
8.43534e-07
6.58016e-07
5.72917e-07
6.21559e-07
7.68575e-07
9.63564e-07
1.21275e-06
1.5665e-06
2.02737e-06
2.52708e-06
3.0217e-06
3.51758e-06
3.97523e-06
4.31738e-06
4.51483e-06
4.4535e-06
3.88784e-06
2.86798e-06
1.66778e-06
8.48914e-07
4.10649e-07
1.97744e-07
1.60665e-07
2.84924e-07
5.1245e-07
7.86191e-07
1.11191e-06
1.53958e-06
2.07568e-06
2.65971e-06
3.24062e-06
3.80607e-06
4.32339e-06
4.71689e-06
4.90184e-06
4.75074e-06
4.06374e-06
)
;

boundaryField
{
    movingWall
    {
        type            zeroGradient;
    }
    fixedWalls
    {
        type            zeroGradient;
    }
    left
    {
        type            cyclic;
    }
    right
    {
        type            cyclic;
    }
    frontAndBack
    {
        type            empty;
    }
}


// ************************************************************************* //
