/*--------------------------------*- C++ -*----------------------------------*\
  =========                 |
  \\      /  F ield         | OpenFOAM: The Open Source CFD Toolbox
   \\    /   O peration     | Website:  https://openfoam.org
    \\  /    A nd           | Version:  8
     \\/     M anipulation  |
\*---------------------------------------------------------------------------*/
FoamFile
{
    version     2.0;
    format      ascii;
    class       volScalarField;
    location    "21.5";
    object      p;
}
// * * * * * * * * * * * * * * * * * * * * * * * * * * * * * * * * * * * * * //

dimensions      [0 2 -2 0 0 0 0];

internalField   nonuniform List<scalar> 
116
(
1.51861e-07
-0.000716112
-0.000266123
-0.00270694
0.000969538
-0.00775254
0.000143109
-0.00040383
0.000296452
-0.00182775
-0.000704929
-0.00248405
0.000272277
-6.23353e-05
8.10742e-05
-0.000799224
-0.00240766
-0.0068135
0.000379894
0.000209381
8.70683e-05
-0.000558783
-0.00307985
-0.00720515
0.000408524
0.000256389
-9.84659e-05
-0.000529135
-0.00340802
-0.00679392
7.31374e-05
0.000156557
-0.0002493
-0.000258814
-0.0021574
-0.00374845
0.000448289
0.000127097
-0.000210329
-0.000348882
-0.00148602
-0.00265865
-0.000628922
-8.05954e-05
-1.38497e-05
0.000608968
0.000209768
-0.000247878
0.00106905
-0.000624063
4.39644e-06
-0.00025462
-0.000335902
-0.00114252
-0.00604808
0.001096
0.00163901
0.00222136
0.00180218
0.00116687
-0.000327484
0.00988578
0.00834435
0.0136529
-0.00640262
-0.00149849
0.00170529
0.00539413
-0.0115652
-0.00881422
-0.00444618
-0.00149632
-0.0125614
-0.0107288
-0.00806495
-0.00507244
-0.0112245
-0.00975264
-0.00867177
-0.00517125
-0.00642231
-0.00450028
-0.00559772
-0.00253706
-0.00491796
-0.00374013
-0.0058352
8.63239e-05
-0.000899665
-0.000219981
-0.00132393
0.00715513
-0.00305093
-0.00262617
-0.00303956
0.0118587
0.000994869
0.00574938
0.0151629
0.0500377
0.0167172
0.0166924
0.0164067
0.0178289
0.0163758
0.0170416
0.0157086
0.0169801
0.0138832
0.0147333
0.0130824
0.0137111
0.0100991
0.0174513
0.0101435
0.0152389
)
;

boundaryField
{
    movingWall
    {
        type            zeroGradient;
    }
    fixedWalls
    {
        type            zeroGradient;
    }
    frontAndBack
    {
        type            empty;
    }
}


// ************************************************************************* //
