/*--------------------------------*- C++ -*----------------------------------*\
  =========                 |
  \\      /  F ield         | OpenFOAM: The Open Source CFD Toolbox
   \\    /   O peration     | Website:  https://openfoam.org
    \\  /    A nd           | Version:  8
     \\/     M anipulation  |
\*---------------------------------------------------------------------------*/
FoamFile
{
    version     2.0;
    format      ascii;
    class       volVectorField;
    location    "21.5";
    object      U;
}
// * * * * * * * * * * * * * * * * * * * * * * * * * * * * * * * * * * * * * //

dimensions      [0 1 -1 0 0 0 0];

internalField   nonuniform List<vector> 
116
(
(0.012145 -0.00560919 0)
(-0.000221203 -0.0113796 0)
(0.0367406 -0.010306 0)
(-0.00379686 -0.0230857 0)
(0.0301816 0.033656 0)
(-0.138922 0.096401 0)
(0.00636902 -0.00686536 0)
(-0.0115146 -0.0102139 0)
(-0.00584308 0.00939863 0)
(-0.0547337 0.0361951 0)
(-0.075401 0.0876542 0)
(-0.140088 0.0900736 0)
(0.00158188 -0.00113155 0)
(-0.0141281 0.0024235 0)
(-0.0253101 0.0274788 0)
(-0.0528578 0.0548192 0)
(-0.0690665 0.114493 0)
(-0.0942679 0.112325 0)
(-0.00244226 0.00526398 0)
(-0.0157229 0.0185037 0)
(-0.0251985 0.0478865 0)
(-0.0362529 0.0804728 0)
(-0.0434578 0.127743 0)
(-0.0420169 0.106133 0)
(-0.000368052 0.0170397 0)
(-0.00993119 0.0257022 0)
(-0.0199445 0.0472223 0)
(-0.0136543 0.07115 0)
(-0.0122311 0.116577 0)
(0.0122319 0.0898681 0)
(-0.00400463 0.0143641 0)
(-0.00562669 0.0373959 0)
(-0.0101596 0.0534296 0)
(0.000803487 0.072922 0)
(0.00565091 0.10886 0)
(0.0377843 0.083158 0)
(0.00306621 0.0294443 0)
(-0.00255732 0.032072 0)
(-0.0146262 0.042744 0)
(-0.000155442 0.0505089 0)
(0.00266925 0.0754138 0)
(0.0495103 0.0554406 0)
(0.00143701 0.0102248 0)
(0.00782693 0.0547627 0)
(0.0115226 0.0527182 0)
(0.0199527 0.0594659 0)
(0.0184208 0.0665322 0)
(0.0543104 0.0555702 0)
(-0.0655494 0.0257987 0)
(-0.0362515 0.0181172 0)
(-0.0566002 0.0297137 0)
(-0.0248447 0.0353512 0)
(-0.0196658 0.0357297 0)
(0.0236401 0.033249 0)
(0.0515004 0.0987108 0)
(0.0867973 0.0564363 0)
(0.111097 0.0413791 0)
(0.163699 0.0314353 0)
(0.169929 0.0233965 0)
(0.221094 0.0198558 0)
(-0.130433 0.122719 0)
(-0.112227 -0.0454164 0)
(-0.0632561 -0.0235237 0)
(0.00298765 -0.11425 0)
(-0.11582 0.100074 0)
(-0.0860972 -0.0691646 0)
(-0.10136 -0.0901885 0)
(0.00596436 -0.170433 0)
(-0.0755593 0.0762521 0)
(-0.0313543 -0.0677416 0)
(-0.065945 -0.108521 0)
(0.00200611 -0.209565 0)
(-0.0318564 0.0528026 0)
(0.00358749 -0.0750459 0)
(-0.044363 -0.122638 0)
(0.0107088 -0.231916 0)
(0.0156422 0.0327959 0)
(0.0378227 -0.0617078 0)
(-0.0262304 -0.115674 0)
(0.0136446 -0.242302 0)
(0.0281562 0.0371053 0)
(0.0540892 -0.030242 0)
(-0.0190631 -0.088246 0)
(0.025675 -0.242959 0)
(0.0328393 0.0171925 0)
(0.0648872 -0.0285707 0)
(-0.0326171 -0.0955255 0)
(0.0304227 -0.249314 0)
(0.0310139 0.0347941 0)
(0.0559767 0.032082 0)
(-0.0139027 -0.0375835 0)
(0.0535037 -0.230375 0)
(0.0203413 0.0125947 0)
(0.0565353 0.00534149 0)
(0.047882 -0.100711 0)
(0.0789626 -0.242349 0)
(0.215341 0.0126097 0)
(0.250572 0.00121218 0)
(0.205056 -0.0236092 0)
(0.152578 -0.0687456 0)
(-0.0117656 -0.00389505 0)
(-0.030557 -0.00632279 0)
(-0.0406017 0.000503753 0)
(-0.0236015 -0.0197237 0)
(-0.0141705 0.0479575 0)
(-0.0312448 0.0343857 0)
(-0.0313381 -0.00312542 0)
(-0.0340066 -0.0451429 0)
(-0.0371869 0.0406092 0)
(-0.0212165 0.00235965 0)
(-0.0206802 0.00765031 0)
(-0.0373635 -0.0939689 0)
(-0.0104795 0.114274 0)
(-0.0769935 0.0189107 0)
(0.0195934 0.0167621 0)
(-0.0351071 -0.0943492 0)
)
;

boundaryField
{
    movingWall
    {
        type            fixedValue;
        value           uniform (1 0 0);
    }
    fixedWalls
    {
        type            noSlip;
    }
    frontAndBack
    {
        type            empty;
    }
}


// ************************************************************************* //
