/*--------------------------------*- C++ -*----------------------------------*\
  =========                 |
  \\      /  F ield         | OpenFOAM: The Open Source CFD Toolbox
   \\    /   O peration     | Website:  https://openfoam.org
    \\  /    A nd           | Version:  8
     \\/     M anipulation  |
\*---------------------------------------------------------------------------*/
FoamFile
{
    version     2.0;
    format      ascii;
    class       surfaceScalarField;
    location    "0.375";
    object      phi;
}
// * * * * * * * * * * * * * * * * * * * * * * * * * * * * * * * * * * * * * //

dimensions      [0 3 -1 0 0 0 0];

internalField   nonuniform List<scalar> 
760
(
1.42318e-08
-1.42673e-08
-2.22109e-08
3.64427e-08
-1.1427e-07
9.20593e-08
-2.45495e-07
1.31225e-07
-3.96099e-07
1.50605e-07
-5.47367e-07
1.51268e-07
-6.83191e-07
1.35824e-07
-7.90662e-07
1.07471e-07
-8.60206e-07
6.95436e-08
-8.85639e-07
2.54335e-08
-8.64317e-07
-2.13216e-08
-7.97386e-07
-6.69312e-08
-6.90083e-07
-1.07303e-07
-5.51971e-07
-1.38112e-07
-3.96943e-07
-1.55029e-07
-2.42749e-07
-1.54194e-07
-1.09734e-07
-1.33016e-07
-1.84166e-08
-9.13167e-08
1.56894e-08
-3.41059e-08
1.56893e-08
-3.42158e-08
1.99485e-08
-1.80376e-07
1.82603e-07
-4.33994e-07
3.45677e-07
-7.64443e-07
4.61674e-07
-1.13223e-06
5.18388e-07
-1.49726e-06
5.16305e-07
-1.82336e-06
4.61922e-07
-2.08056e-06
3.64672e-07
-2.2463e-06
2.35284e-07
-2.30606e-06
8.51979e-08
-2.25392e-06
-7.34624e-08
-2.09307e-06
-2.27785e-07
-1.83628e-06
-3.64095e-07
-1.50606e-06
-4.68336e-07
-1.13409e-06
-5.26993e-07
-7.59528e-07
-5.28758e-07
-4.25404e-07
-4.6714e-07
-1.72694e-07
-3.44027e-07
-3.08025e-08
-1.75997e-07
-1.51131e-08
-9.22293e-08
1.12178e-07
-3.57001e-07
4.47375e-07
-7.64567e-07
7.53243e-07
-1.2685e-06
9.65607e-07
-1.81472e-06
1.0646e-06
-2.34907e-06
1.05066e-06
-2.82246e-06
9.35313e-07
-3.19397e-06
7.36183e-07
-3.43264e-06
4.73951e-07
-3.51854e-06
1.71101e-07
-3.4436e-06
-1.48404e-07
-3.21228e-06
-4.59104e-07
-2.84213e-06
-7.3425e-07
-2.36382e-06
-9.46642e-07
-1.82033e-06
-1.07049e-06
-1.26449e-06
-1.08459e-06
-7.54527e-07
-9.77108e-07
-3.46973e-07
-7.51581e-07
-8.73368e-08
-4.35633e-07
-1.0245e-07
-1.45212e-07
2.5739e-07
-5.25465e-07
8.27628e-07
-1.08164e-06
1.30942e-06
-1.74752e-06
1.63149e-06
-2.45434e-06
1.77143e-06
-3.13639e-06
1.7327e-06
-3.73531e-06
1.53423e-06
-4.20292e-06
1.2038e-06
-4.50294e-06
7.73964e-07
-4.61194e-06
2.80109e-07
-4.52027e-06
-2.40075e-07
-4.23275e-06
-7.46629e-07
-3.76938e-06
-1.19762e-06
-3.16565e-06
-1.55037e-06
-2.47188e-06
-1.76425e-06
-1.75107e-06
-1.8054e-06
-1.07451e-06
-1.65367e-06
-5.1514e-07
-1.31095e-06
-1.39316e-07
-8.11457e-07
-2.41765e-07
-1.9361e-07
4.51e-07
-6.85003e-07
1.31902e-06
-1.38562e-06
2.01004e-06
-2.20724e-06
2.45311e-06
-3.06547e-06
2.62965e-06
-3.88378e-06
2.55101e-06
-4.59651e-06
2.24696e-06
-5.15058e-06
1.75788e-06
-5.50645e-06
1.12983e-06
-5.63852e-06
4.12184e-07
-5.53575e-06
-3.42844e-07
-5.20237e-06
-1.08001e-06
-4.65888e-06
-1.74111e-06
-3.94295e-06
-2.2663e-06
-3.1097e-06
-2.5975e-06
-2.2305e-06
-2.6846e-06
-1.38964e-06
-2.49453e-06
-6.78498e-07
-2.02209e-06
-1.87768e-07
-1.30219e-06
-4.29533e-07
-2.39941e-07
6.90941e-07
-8.4035e-07
1.91943e-06
-1.68329e-06
2.85298e-06
-2.65706e-06
3.42688e-06
-3.66084e-06
3.63343e-06
-4.60777e-06
3.49794e-06
-5.42635e-06
3.06554e-06
-6.06057e-06
2.3921e-06
-6.46936e-06
1.53861e-06
-6.62605e-06
5.6888e-07
-6.51832e-06
-4.50576e-07
-6.1488e-06
-1.44953e-06
-5.53654e-06
-2.35337e-06
-4.71892e-06
-3.08392e-06
-3.75346e-06
-3.56296e-06
-2.71848e-06
-3.71959e-06
-1.71154e-06
-3.50147e-06
-8.44661e-07
-2.88897e-06
-2.36179e-07
-1.91067e-06
-6.65712e-07
-2.86746e-07
9.77686e-07
-9.97088e-07
2.62977e-06
-1.98209e-06
3.83797e-06
-3.10495e-06
4.54974e-06
-4.24796e-06
4.77644e-06
-5.31482e-06
4.56481e-06
-6.23012e-06
3.98084e-06
-6.93718e-06
3.09915e-06
-7.39549e-06
1.99693e-06
-7.57863e-06
7.52016e-07
-7.47317e-06
-5.56038e-07
-7.07912e-06
-1.84358e-06
-6.41189e-06
-3.0206e-06
-5.50559e-06
-3.99022e-06
-4.41707e-06
-4.65149e-06
-3.22938e-06
-4.90728e-06
-2.05296e-06
-4.67789e-06
-1.02254e-06
-3.91938e-06
-2.88281e-07
-2.64493e-06
-9.53993e-07
-3.36332e-07
1.31402e-06
-1.16037e-06
3.45381e-06
-2.28802e-06
4.96562e-06
-3.555e-06
5.81672e-06
-4.82663e-06
6.04807e-06
-5.99907e-06
5.73725e-06
-6.99604e-06
4.97781e-06
-7.76353e-06
3.86664e-06
-8.26449e-06
2.49789e-06
-8.47462e-06
9.62145e-07
-8.37997e-06
-6.50689e-07
-7.97691e-06
-2.24665e-06
-7.27459e-06
-3.72292e-06
-6.29996e-06
-4.96484e-06
-5.10468e-06
-5.84677e-06
-3.77254e-06
-6.23942e-06
-2.42489e-06
-6.02553e-06
-1.22075e-06
-5.12353e-06
-3.47708e-07
-3.51797e-06
-1.3017e-06
-3.90958e-07
1.70498e-06
-1.33489e-06
4.39774e-06
-2.60498e-06
6.23571e-06
-4.00595e-06
7.21769e-06
-5.38682e-06
7.42894e-06
-6.63976e-06
6.99019e-06
-7.69244e-06
6.03049e-06
-8.49848e-06
4.67267e-06
-9.02842e-06
3.02784e-06
-9.26293e-06
1.19665e-06
-9.18866e-06
-7.24961e-07
-8.79749e-06
-2.63781e-06
-8.08938e-06
-4.43104e-06
-7.07903e-06
-5.97519e-06
-5.80633e-06
-7.11947e-06
-4.34905e-06
-7.6967e-06
-2.83482e-06
-7.53977e-06
-1.4471e-06
-6.51125e-06
-4.18099e-07
-4.54696e-06
-1.7198e-06
-4.53454e-07
2.15843e-06
-1.52569e-06
5.46997e-06
-2.93489e-06
7.64492e-06
-4.45012e-06
8.73293e-06
-5.90634e-06
8.88515e-06
-7.19783e-06
8.28168e-06
-8.26368e-06
7.09634e-06
-9.07209e-06
5.48109e-06
-9.6069e-06
3.56265e-06
-9.85762e-06
1.44738e-06
-9.81345e-06
-7.69132e-07
-9.46141e-06
-2.98986e-06
-8.78913e-06
-5.10331e-06
-7.79302e-06
-6.9713e-06
-6.49223e-06
-8.42026e-06
-4.94798e-06
-9.24095e-06
-3.28512e-06
-9.20263e-06
-1.70868e-06
-8.08769e-06
-5.03588e-07
-5.75206e-06
-2.22339e-06
-5.28335e-07
2.68677e-06
-1.73966e-06
6.6813e-06
-3.27797e-06
9.18323e-06
-4.87162e-06
1.03266e-05
-6.34701e-06
1.03605e-05
-7.61082e-06
9.5455e-06
-8.62435e-06
8.10987e-06
-9.37968e-06
6.23642e-06
-9.88099e-06
4.06396e-06
-1.01315e-05
1.69792e-06
-1.01258e-05
-7.74881e-07
-9.84634e-06
-3.2693e-06
-9.26599e-06
-5.68366e-06
-8.35633e-06
-7.88095e-06
-7.1047e-06
-9.6719e-06
-5.5407e-06
-1.08049e-05
-3.7707e-06
-1.09726e-05
-2.01217e-06
-9.84622e-06
-6.09688e-07
-7.15453e-06
-2.83308e-06
-6.23664e-07
3.31043e-06
-1.98738e-06
8.04501e-06
-3.6319e-06
1.08278e-05
-5.24192e-06
1.19366e-05
-6.64756e-06
1.17662e-05
-7.78447e-06
1.06824e-05
-8.65101e-06
8.97641e-06
-9.2743e-06
6.85971e-06
-9.68653e-06
4.47619e-06
-9.90981e-06
1.9212e-06
-9.94723e-06
-7.37462e-07
-9.77858e-06
-3.43795e-06
-9.36089e-06
-6.10135e-06
-8.63562e-06
-8.60622e-06
-7.54638e-06
-1.07611e-05
-6.07158e-06
-1.22797e-05
-4.27427e-06
-1.27699e-05
-2.36365e-06
-1.17568e-05
-7.44777e-07
-8.7734e-06
-3.57785e-06
-7.54074e-07
4.0645e-06
-2.28434e-06
9.57528e-06
-3.987e-06
1.25304e-05
-5.50908e-06
1.34587e-05
-6.70959e-06
1.29667e-05
-7.57855e-06
1.15514e-05
-8.17005e-06
9.56791e-06
-8.55762e-06
7.24729e-06
-8.80773e-06
4.72629e-06
-8.96505e-06
2.07853e-06
-9.04437e-06
-6.58143e-07
-9.02575e-06
-3.45657e-06
-8.8526e-06
-6.2745e-06
-8.43483e-06
-9.02399e-06
-7.66291e-06
-1.1533e-05
-6.442e-06
-1.35006e-05
-4.75626e-06
-1.44557e-05
-2.76675e-06
-1.37464e-05
-9.22434e-07
-1.06177e-05
-4.50029e-06
-9.45203e-07
5.00971e-06
-2.64848e-06
1.12786e-05
-4.31098e-06
1.41929e-05
-5.57327e-06
1.4721e-05
-6.37066e-06
1.37641e-05
-6.78324e-06
1.19639e-05
-6.94045e-06
9.72512e-06
-6.96968e-06
7.27651e-06
-6.97272e-06
4.72934e-06
-7.01644e-06
2.12225e-06
-7.12854e-06
-5.4604e-07
-7.2937e-06
-3.29141e-06
-7.44859e-06
-6.11962e-06
-7.47784e-06
-8.99474e-06
-7.21791e-06
-1.1793e-05
-6.48273e-06
-1.42358e-05
-5.13342e-06
-1.5805e-05
-3.21497e-06
-1.56648e-05
-1.16438e-06
-1.26683e-05
-5.66467e-06
-1.23731e-06
6.24702e-06
-3.08328e-06
1.31245e-05
-4.50769e-06
1.56173e-05
-5.23445e-06
1.54477e-05
-5.35517e-06
1.38848e-05
-5.08178e-06
1.16905e-05
-4.63083e-06
9.27417e-06
-4.17918e-06
6.82487e-06
-3.85428e-06
4.40443e-06
-3.73694e-06
2.00491e-06
-3.86504e-06
-4.17932e-07
-4.23256e-06
-2.92389e-06
-4.78201e-06
-5.57017e-06
-5.39101e-06
-8.38574e-06
-5.85845e-06
-1.13255e-05
-5.90655e-06
-1.41877e-05
-5.2328e-06
-1.64787e-05
-3.66626e-06
-1.72313e-05
-1.50008e-06
-1.48345e-05
-7.16475e-06
-1.6738e-06
7.92082e-06
-3.51336e-06
1.49641e-05
-4.31528e-06
1.64192e-05
-4.08884e-06
1.52213e-05
-3.193e-06
1.2989e-05
-1.99868e-06
1.04962e-05
-7.95077e-07
8.07057e-06
2.19411e-07
5.81038e-06
9.18311e-07
3.70553e-06
1.22569e-06
1.69753e-06
1.10214e-06
-2.94388e-07
5.41135e-07
-2.36288e-06
-4.22864e-07
-4.60617e-06
-1.69251e-06
-7.11609e-06
-3.07237e-06
-9.94569e-06
-4.23079e-06
-1.30293e-05
-4.69563e-06
-1.60139e-05
-3.96717e-06
-1.79598e-05
-1.94492e-06
-1.68567e-05
-9.10967e-06
-2.23069e-06
1.01515e-05
-3.59029e-06
1.63237e-05
-3.07776e-06
1.59067e-05
-1.34385e-06
1.34874e-05
8.9707e-07
1.0748e-05
3.15501e-06
8.23828e-06
5.13817e-06
6.08741e-06
6.68875e-06
4.2598e-06
7.7259e-06
2.66838e-06
8.20662e-06
1.21681e-06
8.10395e-06
-1.91722e-07
7.3991e-06
-1.65802e-06
6.08691e-06
-3.29399e-06
4.19923e-06
-5.22841e-06
1.85419e-06
-7.60065e-06
-6.6169e-07
-1.05134e-05
-2.79216e-06
-1.38834e-05
-3.66208e-06
-1.70899e-05
-2.41154e-06
-1.81073e-05
-1.15212e-05
-2.57381e-06
1.27253e-05
-2.18345e-06
1.59333e-05
7.18079e-07
1.30052e-05
4.46958e-06
9.73589e-06
8.13331e-06
7.08431e-06
1.13016e-05
5.06999e-06
1.38291e-05
3.55989e-06
1.56881e-05
2.40079e-06
1.68917e-05
1.4648e-06
1.74549e-05
6.53603e-07
1.73764e-05
-1.13203e-07
1.66305e-05
-9.12156e-07
1.51672e-05
-1.83066e-06
1.29235e-05
-2.98474e-06
9.86177e-06
-4.53888e-06
6.06198e-06
-6.71363e-06
1.91235e-06
-9.7338e-06
-1.55962e-06
-1.36179e-05
-2.45834e-06
-1.72086e-05
-1.39795e-05
-7.85013e-07
1.35103e-05
4.08079e-06
1.10675e-05
1.02975e-05
6.78843e-06
1.57936e-05
4.23979e-06
2.0158e-05
2.71991e-06
2.34581e-05
1.76995e-06
2.58608e-05
1.15714e-06
2.75216e-05
7.40054e-07
2.85541e-05
4.32294e-07
2.90265e-05
1.81221e-07
2.89622e-05
-4.89825e-08
2.83388e-05
-2.887e-07
2.70819e-05
-5.73741e-07
2.50551e-05
-9.57957e-07
2.20517e-05
-1.53552e-06
1.78155e-05
-2.47742e-06
1.21724e-05
-4.09068e-06
5.47772e-06
-6.92324e-06
-1.29169e-07
-1.16017e-05
-1.41087e-05
1.35103e-05
2.45779e-05
3.13663e-05
3.56061e-05
3.8326e-05
4.00959e-05
4.12531e-05
4.19931e-05
4.24254e-05
4.26066e-05
4.25577e-05
4.2269e-05
4.16952e-05
4.07373e-05
3.92017e-05
3.67243e-05
3.26336e-05
2.57104e-05
1.41087e-05
)
;

boundaryField
{
    movingWall
    {
        type            calculated;
        value           uniform 0;
    }
    fixedWalls
    {
        type            calculated;
        value           uniform 0;
    }
    frontAndBack
    {
        type            empty;
        value           nonuniform List<scalar> 0();
    }
}


// ************************************************************************* //
