/*--------------------------------*- C++ -*----------------------------------*\
  =========                 |
  \\      /  F ield         | OpenFOAM: The Open Source CFD Toolbox
   \\    /   O peration     | Website:  https://openfoam.org
    \\  /    A nd           | Version:  8
     \\/     M anipulation  |
\*---------------------------------------------------------------------------*/
FoamFile
{
    version     2.0;
    format      ascii;
    class       volVectorField;
    location    "0.375";
    object      U;
}
// * * * * * * * * * * * * * * * * * * * * * * * * * * * * * * * * * * * * * //

dimensions      [0 1 -1 0 0 0 0];

internalField   nonuniform List<vector> 
400
(
(0.000253393 -0.000250437 0)
(0.000141196 0.000111423 0)
(-0.00117699 0.000564596 0)
(-0.00348111 0.000884973 0)
(-0.00637748 0.00104569 0)
(-0.00946947 0.00106173 0)
(-0.0124029 0.000957836 0)
(-0.014885 0.000760431 0)
(-0.0166895 0.000494642 0)
(-0.0176583 0.000184563 0)
(-0.0177022 -0.000145265 0)
(-0.0168052 -0.000468365 0)
(-0.0150302 -0.000755415 0)
(-0.0125252 -0.000974265 0)
(-0.00952644 -0.00109119 0)
(-0.00635501 -0.00107401 0)
(-0.00340066 -0.000898119 0)
(-0.00108644 -0.000556388 0)
(0.000196426 -9.03665e-05 0)
(0.000267861 0.000262384 0)
(-7.74695e-05 -0.000169375 0)
(-0.00161158 0.00164483 0)
(-0.00569296 0.00361732 0)
(-0.011719 0.00503485 0)
(-0.0188925 0.00574327 0)
(-0.0264011 0.00576025 0)
(-0.0334697 0.00517171 0)
(-0.0394274 0.00409255 0)
(-0.0437447 0.00264767 0)
(-0.0460479 0.000966944 0)
(-0.0461302 -0.000813226 0)
(-0.0439621 -0.0025471 0)
(-0.0397019 -0.0040787 0)
(-0.0337033 -0.00524518 0)
(-0.0265138 -0.00588665 0)
(-0.0188549 -0.00586494 0)
(-0.0115669 -0.00509482 0)
(-0.00551338 -0.00358946 0)
(-0.00149311 -0.00155915 0)
(-4.25803e-05 0.00022746 0)
(-0.000528616 0.00109163 0)
(-0.00371146 0.00573635 0)
(-0.0105891 0.0102246 0)
(-0.0199921 0.0134078 0)
(-0.0307655 0.0149465 0)
(-0.0418231 0.014839 0)
(-0.052121 0.0132559 0)
(-0.0607456 0.0104563 0)
(-0.066971 0.00674209 0)
(-0.0702843 0.0024389 0)
(-0.0704023 -0.00210658 0)
(-0.0672859 -0.00652557 0)
(-0.0611538 -0.0104294 0)
(-0.0524897 -0.0134213 0)
(-0.042038 -0.0151237 0)
(-0.0307746 -0.0152259 0)
(-0.0198295 -0.0135562 0)
(-0.0103638 -0.0101791 0)
(-0.00354859 -0.00555115 0)
(-0.000476855 -0.000948842 0)
(-0.000928243 0.00347989 0)
(-0.00569161 0.0122208 0)
(-0.0153021 0.019922 0)
(-0.0279175 0.0251982 0)
(-0.0419864 0.0275974 0)
(-0.0561804 0.0271379 0)
(-0.0692537 0.0241093 0)
(-0.0801276 0.0189541 0)
(-0.0879504 0.0121957 0)
(-0.0921211 0.00440512 0)
(-0.0923057 -0.00380806 0)
(-0.0884523 -0.0117968 0)
(-0.0808069 -0.0188825 0)
(-0.0699246 -0.0243767 0)
(-0.0566705 -0.0276281 0)
(-0.0421958 -0.0281022 0)
(-0.0278572 -0.0254981 0)
(-0.015094 -0.019892 0)
(-0.00550515 -0.0119278 0)
(-0.000861618 -0.0032249 0)
(-0.00127896 0.0068779 0)
(-0.0075362 0.020954 0)
(-0.0198052 0.0325108 0)
(-0.0355357 0.0401037 0)
(-0.0527447 0.0432909 0)
(-0.0698602 0.0421933 0)
(-0.0854654 0.037278 0)
(-0.0983629 0.0292134 0)
(-0.107622 0.0187774 0)
(-0.112591 0.00681376 0)
(-0.1129 -0.00578052 0)
(-0.108477 -0.018055 0)
(-0.0995645 -0.0290118 0)
(-0.0867411 -0.0376332 0)
(-0.0709373 -0.0429456 0)
(-0.0534314 -0.0441294 0)
(-0.0357853 -0.0406792 0)
(-0.0197355 -0.0325928 0)
(-0.00737073 -0.0205908 0)
(-0.0012037 -0.00649821 0)
(-0.00160755 0.0112158 0)
(-0.00931818 0.0318749 0)
(-0.0242097 0.0479523 0)
(-0.0430034 0.0580724 0)
(-0.0632581 0.0619376 0)
(-0.0831543 0.0598816 0)
(-0.101126 0.0526286 0)
(-0.115894 0.0411261 0)
(-0.12649 0.0264372 0)
(-0.13224 0.00969289 0)
(-0.132752 -0.00791646 0)
(-0.127925 -0.0251324 0)
(-0.117968 -0.0406253 0)
(-0.103435 -0.0530197 0)
(-0.08527 -0.0609666 0)
(-0.0648364 -0.0632804 0)
(-0.043886 -0.0591423 0)
(-0.0244779 -0.0483446 0)
(-0.00925441 -0.0315577 0)
(-0.00153777 -0.0107286 0)
(-0.00194007 0.0164772 0)
(-0.0111213 0.0449744 0)
(-0.0286506 0.0662335 0)
(-0.0504802 0.0790595 0)
(-0.0736854 0.0834464 0)
(-0.0962044 0.0800742 0)
(-0.116353 0.0700244 0)
(-0.132815 0.0545848 0)
(-0.144632 0.0351316 0)
(-0.151142 0.0130846 0)
(-0.15195 -0.0100866 0)
(-0.146916 -0.0328327 0)
(-0.136182 -0.0534998 0)
(-0.120224 -0.0703369 0)
(-0.099933 -0.0815653 0)
(-0.0767017 -0.0855327 0)
(-0.0524403 -0.0809637 0)
(-0.0295449 -0.067277 0)
(-0.0112836 -0.0449395 0)
(-0.00190008 -0.0159516 0)
(-0.00230003 0.0226949 0)
(-0.013025 0.0603007 0)
(-0.0332508 0.0873633 0)
(-0.0580796 0.102996 0)
(-0.0840745 0.107665 0)
(-0.108953 0.102561 0)
(-0.130967 0.0892437 0)
(-0.148834 0.0694105 0)
(-0.161666 0.0447714 0)
(-0.168867 0.0170197 0)
(-0.170063 -0.0121336 0)
(-0.165071 -0.0408931 0)
(-0.15393 -0.0673141 0)
(-0.136969 -0.0892729 0)
(-0.114942 -0.104512 0)
(-0.0891757 -0.110796 0)
(-0.0616705 -0.106212 0)
(-0.0351483 -0.0895791 0)
(-0.0135858 -0.0609493 0)
(-0.00232633 -0.0222775 0)
(-0.00271163 0.0299468 0)
(-0.0151079 0.077956 0)
(-0.0381146 0.111355 0)
(-0.065848 0.129749 0)
(-0.0943263 0.134316 0)
(-0.121098 0.126973 0)
(-0.144443 0.109901 0)
(-0.163212 0.085281 0)
(-0.176686 0.0551666 0)
(-0.184405 0.0214867 0)
(-0.186057 -0.0138746 0)
(-0.181421 -0.0489563 0)
(-0.170394 -0.0815928 0)
(-0.15308 -0.109323 0)
(-0.12997 -0.12938 0)
(-0.102185 -0.138827 0)
(-0.0716891 -0.134886 0)
(-0.0414667 -0.115468 0)
(-0.016288 -0.0798948 0)
(-0.00285468 -0.0298894 0)
(-0.00320764 0.0383592 0)
(-0.0174661 0.0980884 0)
(-0.0433409 0.138188 0)
(-0.0737563 0.159044 0)
(-0.10416 0.162899 0)
(-0.132031 0.152671 0)
(-0.155825 0.13134 0)
(-0.174678 0.101639 0)
(-0.188167 0.065957 0)
(-0.196067 0.0263893 0)
(-0.198185 -0.0151125 0)
(-0.194283 -0.0565448 0)
(-0.184081 -0.0956411 0)
(-0.167366 -0.129688 0)
(-0.144215 -0.155422 0)
(-0.115338 -0.169096 0)
(-0.0824456 -0.166801 0)
(-0.048636 -0.145123 0)
(-0.0195287 -0.102159 0)
(-0.00353355 -0.0390469 0)
(-0.00384395 0.0481282 0)
(-0.0202462 0.120892 0)
(-0.0490466 0.16775 0)
(-0.0816864 0.190364 0)
(-0.113053 0.192555 0)
(-0.140746 0.178613 0)
(-0.163622 0.152511 0)
(-0.181309 0.117592 0)
(-0.193847 0.0765343 0)
(-0.201361 0.0314941 0)
(-0.203857 -0.0156586 0)
(-0.20111 -0.0630497 0)
(-0.192649 -0.10849 0)
(-0.177857 -0.149169 0)
(-0.156224 -0.181414 0)
(-0.12778 -0.200605 0)
(-0.0936442 -0.201423 0)
(-0.056733 -0.178572 0)
(-0.0234798 -0.128172 0)
(-0.00443553 -0.0501041 0)
(-0.00472538 0.0595707 0)
(-0.0236947 0.146616 0)
(-0.0553831 0.199755 0)
(-0.0893767 0.222789 0)
(-0.120122 0.22189 0)
(-0.145676 0.203186 0)
(-0.165631 0.171839 0)
(-0.180372 0.131809 0)
(-0.190582 0.0859693 0)
(-0.196864 0.0363763 0)
(-0.199503 -0.0153703 0)
(-0.198337 -0.0677423 0)
(-0.192718 -0.118866 0)
(-0.181575 -0.166077 0)
(-0.163646 -0.205487 0)
(-0.137967 -0.231659 0)
(-0.104596 -0.237623 0)
(-0.0657336 -0.215524 0)
(-0.0283777 -0.158367 0)
(-0.00568208 -0.0635518 0)
(-0.0060516 0.0732279 0)
(-0.0282259 0.175562 0)
(-0.0625089 0.233569 0)
(-0.0962574 0.254745 0)
(-0.123857 0.24873 0)
(-0.144399 0.224025 0)
(-0.158671 0.187106 0)
(-0.168108 0.142461 0)
(-0.174202 0.0929683 0)
(-0.17812 0.040379 0)
(-0.180486 -0.0141982 0)
(-0.181267 -0.0698205 0)
(-0.179697 -0.12521 0)
(-0.174271 -0.178179 0)
(-0.162896 -0.224971 0)
(-0.143317 -0.259586 0)
(-0.113938 -0.273327 0)
(-0.0753933 -0.255065 0)
(-0.0345563 -0.193089 0)
(-0.0074863 -0.0801038 0)
(-0.00819209 0.0900459 0)
(-0.0344828 0.208019 0)
(-0.0704125 0.267882 0)
(-0.101024 0.283605 0)
(-0.121575 0.269809 0)
(-0.133108 0.237839 0)
(-0.138163 0.195403 0)
(-0.139463 0.147232 0)
(-0.139368 0.0959087 0)
(-0.139596 0.0426195 0)
(-0.14111 -0.0122327 0)
(-0.144056 -0.0685065 0)
(-0.14767 -0.125793 0)
(-0.15017 -0.182768 0)
(-0.148721 -0.236323 0)
(-0.139644 -0.280445 0)
(-0.119095 -0.305024 0)
(-0.0849362 -0.295157 0)
(-0.0424405 -0.232376 0)
(-0.010216 -0.100836 0)
(-0.0117675 0.111635 0)
(-0.0432598 0.243961 0)
(-0.0782974 0.300033 0)
(-0.100628 0.305091 0)
(-0.108351 0.280459 0)
(-0.105731 0.240381 0)
(-0.0975294 0.19328 0)
(-0.0877708 0.143548 0)
(-0.0795009 0.0930354 0)
(-0.0747853 0.0420949 0)
(-0.0748029 -0.00972861 0)
(-0.0798907 -0.0632107 0)
(-0.0894629 -0.11899 0)
(-0.101788 -0.176956 0)
(-0.113686 -0.235284 0)
(-0.120305 -0.288881 0)
(-0.115263 -0.327195 0)
(-0.0922665 -0.331793 0)
(-0.0523157 -0.275403 0)
(-0.0144303 -0.127347 0)
(-0.0175493 0.140659 0)
(-0.0547646 0.282145 0)
(-0.0827863 0.324718 0)
(-0.0880804 0.312473 0)
(-0.0751084 0.274455 0)
(-0.0525908 0.22677 0)
(-0.0274582 0.177288 0)
(-0.00451429 0.129135 0)
(0.0130991 0.0829124 0)
(0.0234403 0.0379468 0)
(0.0253988 -0.0070734 0)
(0.0185078 -0.0537582 0)
(0.00298013 -0.103751 0)
(-0.0199966 -0.15832 0)
(-0.0476856 -0.217501 0)
(-0.0749846 -0.27836 0)
(-0.0935466 -0.33179 0)
(-0.0920637 -0.357682 0)
(-0.0632805 -0.319293 0)
(-0.0206336 -0.161973 0)
(-0.0254497 0.181711 0)
(-0.0657746 0.317771 0)
(-0.073333 0.331362 0)
(-0.048077 0.2954 0)
(-0.00557813 0.244211 0)
(0.0412187 0.19238 0)
(0.0846533 0.145047 0)
(0.120537 0.102971 0)
(0.146702 0.0651376 0)
(0.162048 0.0298913 0)
(0.165942 -0.00467153 0)
(0.157936 -0.0406283 0)
(0.137732 -0.0802463 0)
(0.10544 -0.125917 0)
(0.0622622 -0.179726 0)
(0.0118058 -0.24202 0)
(-0.0378299 -0.307877 0)
(-0.0716794 -0.360143 0)
(-0.0700555 -0.356608 0)
(-0.0279123 -0.208375 0)
(-0.029649 0.239176 0)
(-0.0608413 0.335767 0)
(-0.0219424 0.300503 0)
(0.0505419 0.240127 0)
(0.127572 0.182949 0)
(0.197008 0.135389 0)
(0.254337 0.0973988 0)
(0.298251 0.0668509 0)
(0.328825 0.0413552 0)
(0.346467 0.0187785 0)
(0.351376 -0.00279415 0)
(0.343302 -0.0252651 0)
(0.321469 -0.0507876 0)
(0.284642 -0.0820479 0)
(0.231572 -0.122446 0)
(0.162181 -0.175669 0)
(0.0799004 -0.243431 0)
(-0.00318997 -0.319136 0)
(-0.0546696 -0.368612 0)
(-0.0284594 -0.267618 0)
(0.00808311 0.281861 0)
(0.0197831 0.294972 0)
(0.139066 0.210973 0)
(0.26446 0.143477 0)
(0.364367 0.0971859 0)
(0.440364 0.0657773 0)
(0.496743 0.0442374 0)
(0.536873 0.0288859 0)
(0.563446 0.0171988 0)
(0.578305 0.00748475 0)
(0.58238 -0.00149412 0)
(0.575695 -0.0108452 0)
(0.557308 -0.021847 0)
(0.525134 -0.0363348 0)
(0.475776 -0.0572595 0)
(0.404537 -0.089384 0)
(0.305176 -0.139741 0)
(0.173417 -0.216386 0)
(0.041172 -0.311655 0)
(0.0184302 -0.299995 0)
(0.299604 0.146091 0)
(0.396272 0.127503 0)
(0.55742 0.0760895 0)
(0.674487 0.0437232 0)
(0.743888 0.025572 0)
(0.787153 0.0152422 0)
(0.815485 0.00921232 0)
(0.833955 0.0055094 0)
(0.845385 0.00302717 0)
(0.851371 0.00114934 0)
(0.852666 -0.000499386 0)
(0.849382 -0.00221506 0)
(0.840999 -0.00433855 0)
(0.82614 -0.00742406 0)
(0.802078 -0.0125322 0)
(0.763621 -0.0217728 0)
(0.699108 -0.0392829 0)
(0.583952 -0.0726601 0)
(0.415827 -0.127868 0)
(0.308819 -0.149468 0)
)
;

boundaryField
{
    movingWall
    {
        type            fixedValue;
        value           uniform (1 0 0);
    }
    fixedWalls
    {
        type            noSlip;
    }
    frontAndBack
    {
        type            empty;
    }
}


// ************************************************************************* //
