/*--------------------------------*- C++ -*----------------------------------*\
  =========                 |
  \\      /  F ield         | OpenFOAM: The Open Source CFD Toolbox
   \\    /   O peration     | Website:  https://openfoam.org
    \\  /    A nd           | Version:  8
     \\/     M anipulation  |
\*---------------------------------------------------------------------------*/
FoamFile
{
    version     2.0;
    format      ascii;
    class       volScalarField;
    location    "0.874";
    object      T;
}
// * * * * * * * * * * * * * * * * * * * * * * * * * * * * * * * * * * * * * //

dimensions      [0 0 0 1 0 0 0];

internalField   nonuniform List<scalar> 
10000
(
50
4.64901
-4.64898
-1.17571
1.17554
0.44485
-0.444359
-0.212085
0.210968
0.118683
-0.116566
-0.0748037
0.071259
0.0524871
-0.0469329
-0.040191
0.0322171
0.0330719
-0.0220518
-0.0291302
0.0148272
0.025988
-0.00817275
-0.0240959
0.00292086
0.0214757
0.0023695
-0.0187608
-0.00682923
0.0151905
0.0104166
-0.0106379
-0.0130574
0.00568943
0.0138875
-0.000255768
-0.0130555
-0.00474495
0.0103434
0.00862889
-0.00601953
-0.0107566
0.000879608
0.0105229
0.00414004
-0.00792089
-0.00786448
0.00351284
0.00925064
0.00162792
-0.00789652
-0.00595061
0.00413909
0.00800764
0.000867205
-0.00712313
-0.00521959
0.00355457
0.00714371
0.00136762
-0.00594477
-0.00534491
0.00212119
0.00639072
0.00265154
-0.00419517
-0.00573373
-3.19486e-06
0.00519254
0.00408242
-0.00162186
-0.00552352
-0.00246597
0.00304691
0.00467779
0.00150223
-0.00374709
-0.00434025
4.1504e-05
0.00344395
0.0037739
-0.000163987
-0.00416512
-0.00268666
0.000533943
0.00317016
0.00335297
-0.00107357
-0.00333992
-0.00195049
-0.000215175
0.00312471
0.00295979
-0.0010434
-0.00188345
-0.00221677
-0.00122553
0.00291118
0.00230048
-0.00016851
95.3511
49.9999
10.4737
-4.64892
-2.79599
1.17505
1.10132
-0.443436
-0.541583
0.208915
0.310054
-0.113257
-0.198459
0.0659139
0.139563
-0.0391659
-0.105573
0.0215878
0.0841999
-0.00790443
-0.0702451
-0.00255627
0.0583724
0.0128501
-0.0488897
-0.0207188
0.0382782
0.0278707
-0.0275282
-0.0325869
0.0159202
0.0343305
-0.00362774
-0.0330613
-0.00772205
0.0277689
0.0174911
-0.019201
-0.0239728
0.00824142
0.0258831
0.00355554
-0.0227863
-0.0138071
0.0149625
0.0202872
-0.00406401
-0.021261
-0.00721438
0.0162544
0.0157646
-0.00669986
-0.0187418
-0.00450376
0.0150461
0.013521
-0.00611824
-0.016631
-0.00475576
0.0125279
0.0131096
-0.0033221
-0.0147027
-0.00688307
0.00869719
0.013274
0.00117959
-0.0119063
-0.0095427
0.00329202
0.012143
0.00649943
-0.00706803
-0.0108387
-0.00299549
0.00778667
0.0103827
1.00988e-05
-0.00874472
-0.00757298
0.000140729
0.0092621
0.00705688
-0.00276244
-0.00709508
-0.00651913
0.00146579
0.00896593
0.00427391
-0.00164152
-0.00564147
-0.0070352
0.00197876
0.00684438
0.00322723
0.00154283
-0.00490227
-0.00729366
0.00139986
0.00320242
104.649
89.5264
49.9999
12.0941
-4.64871
-3.4523
1.17423
1.43094
-0.441848
-0.732808
0.205866
0.433865
-0.108449
-0.285615
0.0586605
0.205113
-0.0289573
-0.157223
0.00816567
0.125588
0.00928424
-0.103558
-0.0230239
0.0837862
0.0365188
-0.0666954
-0.0463463
0.0480091
0.0540265
-0.0290026
-0.0573908
0.00959856
0.0553416
0.00957616
-0.0481431
-0.0257619
0.0351375
0.0374345
-0.0179432
-0.0424518
-0.000975567
0.0393666
0.0185324
-0.0285275
-0.0309787
0.0119477
0.0352095
0.00657446
-0.0298283
-0.0221958
0.0161859
0.0301425
0.00164605
-0.0274939
-0.0179861
0.0152557
0.0266752
0.00193066
-0.0238119
-0.017531
0.0109537
0.0244719
0.00577016
-0.0187674
-0.0189239
0.00383342
0.0216626
0.011524
-0.0114444
-0.019385
-0.00529802
0.0156731
0.016655
-0.00166896
-0.0156866
-0.01349
0.0048411
0.0172763
0.00826867
-0.00638542
-0.0151144
-0.00832725
0.00975565
0.01337
0.00470157
-0.00628341
-0.0147562
-0.00441933
0.00918888
0.00933173
0.00629905
-0.00560316
-0.01372
-0.00246519
0.00440042
0.00730715
0.00963483
-0.004525
-0.0105405
-0.002422
101.176
104.649
87.9062
49.9997
12.7505
-4.64838
-3.78174
1.17291
1.62238
-0.439556
-0.856543
0.201573
0.521352
-0.102024
-0.351508
0.0492921
0.257209
-0.0161379
-0.199641
-0.00803784
0.159609
0.0295752
-0.130543
-0.0461995
0.102792
0.0624733
-0.0779641
-0.073168
0.0509104
0.0798812
-0.0235912
-0.08013
-0.00301435
0.072265
0.0278427
-0.0573753
-0.0468018
0.0355056
0.0576123
-0.00950221
-0.0581743
-0.0161781
0.0473701
0.0369731
-0.0270936
-0.0481504
0.00180291
0.0463886
0.0224147
-0.031836
-0.038799
0.00874862
0.0417419
0.0158241
-0.0299923
-0.0335255
0.00814227
0.0369376
0.0156101
-0.0244342
-0.0316741
0.00231288
0.0318055
0.0193278
-0.0155618
-0.0305316
-0.00720409
0.0243243
0.0237775
-0.0033676
-0.0260742
-0.017876
0.0123836
0.0246722
0.00993774
-0.0146041
-0.024296
-0.00365018
0.0179305
0.0182691
0.00284038
-0.0189983
-0.0179064
0.00344128
0.0149345
0.0158889
-0.000161709
-0.0192086
-0.0115234
0.0017809
0.0113023
0.0169568
-0.00153944
-0.0148868
-0.00814386
-0.00497693
0.00895381
0.0173484
-0.000932343
-0.00669451
98.8243
102.796
104.649
87.2499
49.9996
13.0802
-4.64785
-3.97296
1.17105
1.74651
-0.436383
-0.944031
0.195929
0.58781
-0.0937739
-0.404308
0.0376773
0.300362
-0.000601959
-0.235359
-0.0270723
0.187718
0.0527738
-0.151853
-0.0718346
0.11582
0.0900805
-0.082844
-0.100423
0.0472728
0.104428
-0.0118126
-0.0996846
-0.0210669
0.084128
0.0498189
-0.0600682
-0.0691185
0.0287687
0.076124
0.00539904
-0.0693377
-0.0358283
0.048681
0.056681
-0.0183175
-0.0628369
-0.0144267
0.0517677
0.041287
-0.0264248
-0.0541312
-0.00538833
0.0479606
0.0336597
-0.0250762
-0.047872
-0.00561799
0.0414096
0.0324998
-0.0175455
-0.0435727
-0.0121405
0.0322265
0.0344381
-0.0049901
-0.0379906
-0.0219193
0.018967
0.0345463
0.010917
-0.0267065
-0.0303236
0.00155898
0.0272372
0.0247348
-0.00710204
-0.0304674
-0.0157118
0.0102989
0.0265741
0.0159194
-0.0162442
-0.0239619
-0.00915295
0.0101823
0.0261588
0.00902216
-0.0156725
-0.0166459
-0.0118034
0.00888461
0.0244657
0.00526381
-0.00736641
-0.0126318
-0.0176439
0.00698126
0.0187838
0.00470057
99.5554
98.8245
103.453
104.648
86.9205
49.9994
13.2718
-4.64714
-4.09682
1.1685
1.83459
-0.432259
-1.01062
0.188756
0.641445
-0.0835423
-0.448627
0.0237246
0.33714
0.0177905
-0.265934
-0.0488124
0.21061
0.0787556
-0.167915
-0.0994762
0.123008
0.118709
-0.0814809
-0.127276
0.0374407
0.126635
0.00572341
-0.115055
-0.0435156
0.0901296
0.0740248
-0.0558406
-0.0909622
0.0152474
0.0911804
0.0256172
-0.0744862
-0.0580633
0.04267
0.0753404
-0.00273093
-0.0727796
-0.0350749
0.0499628
0.0606148
-0.0136537
-0.065372
-0.0247024
0.0469943
0.052317
-0.0127187
-0.0577777
-0.0243461
0.0382626
0.0493972
-0.00361884
-0.0497146
-0.0301483
0.0243914
0.0476029
0.0112317
-0.0380107
-0.0371074
0.00536006
0.0406537
0.0278763
-0.0193564
-0.0385362
-0.0154034
0.0227883
0.0378801
0.00568869
-0.0280516
-0.028441
-0.00437697
0.029608
0.0279581
-0.00543794
-0.0233231
-0.0247087
0.00024017
0.0299897
0.0179754
-0.00285896
-0.0176015
-0.0264349
0.0023986
0.0232731
0.0126686
0.00773842
-0.0139605
-0.0270735
0.00147159
0.0104546
100.444
98.8991
98.8251
103.782
104.647
86.7293
49.9991
13.3961
-4.64618
-4.18456
1.16518
1.90205
-0.427051
-1.06456
0.179935
0.686891
-0.0711686
-0.487187
0.00735319
0.369071
0.0390859
-0.292217
-0.0731621
0.228692
0.107234
-0.178859
-0.128676
0.124471
0.147624
-0.0740134
-0.15286
0.0218308
0.145532
0.0282362
-0.125339
-0.0691912
0.0897123
0.09889
-0.0446575
-0.110607
-0.00435024
0.101221
0.0496355
-0.0725927
-0.0808182
0.0293361
0.0906815
0.0184944
-0.0761484
-0.0580055
0.0404144
0.0776232
0.00557754
-0.0701539
-0.0469609
0.0380878
0.0685592
0.00611214
-0.0605973
-0.0455184
0.0270724
0.0626389
0.0157578
-0.0475159
-0.0487463
0.0088966
0.0550905
0.0302314
-0.0286491
-0.0495397
-0.0142473
0.0394092
0.0429766
-0.00364028
-0.0397516
-0.0347405
0.0115409
0.0440578
0.0215968
-0.0158711
-0.038336
-0.0218539
0.0243616
0.034301
0.0122746
-0.0155128
-0.0375887
-0.01193
0.0232254
0.0238163
0.0163095
-0.0136901
-0.035117
-0.00672087
0.01107
0.0184151
0.0248689
-0.0110112
-0.0269582
-0.00637805
100.212
100.443
98.5696
98.826
103.974
104.646
86.6054
49.9987
13.4846
-4.64499
-4.25159
1.16097
1.95719
-0.420666
-1.11056
0.169348
0.726879
-0.0564834
-0.521672
-0.0114373
0.396979
0.0633583
-0.314735
-0.0999075
0.242086
0.137904
-0.184723
-0.15891
0.120296
0.176036
-0.0606195
-0.176319
0.000985467
0.160208
0.0548102
-0.129794
-0.0968081
0.0825878
0.122803
-0.0268239
-0.126447
-0.0289346
0.104973
0.0756752
-0.0631448
-0.101951
0.00931318
0.100621
0.0436959
-0.0717729
-0.0807279
0.0233951
0.0896105
0.0296913
-0.0669629
-0.069309
0.0215052
0.0791946
0.0296591
-0.05488
-0.065841
0.00868986
0.0687207
0.0382727
-0.036123
-0.0643733
-0.0120217
0.0536003
0.0488311
-0.0102505
-0.0562116
-0.0356181
0.0289322
0.0522505
0.0185711
-0.0330817
-0.0508657
-0.00511011
0.0394912
0.0377216
0.00364963
-0.0415729
-0.0365904
0.00948524
0.0324637
0.0326403
-0.0025697
-0.0415177
-0.0230393
0.00535645
0.0248919
0.0351177
-0.00539039
-0.0320622
-0.0165282
-0.00939829
0.0204865
0.0361275
-0.00365251
-0.0145994
99.7886
100.542
100.441
98.3785
98.8273
104.098
104.645
86.5177
49.9981
13.5527
-4.64355
-4.30618
1.15577
2.00477
-0.412991
-1.15144
0.156902
0.763059
-0.0393309
-0.553124
-0.0326317
0.421313
0.0906147
-0.33374
-0.12882
0.250813
0.170361
-0.185462
-0.189623
0.110606
0.203124
-0.0415639
-0.196806
-0.024452
0.169869
0.0843852
-0.127865
-0.124991
0.0687317
0.144208
-0.00301788
-0.13704
-0.05711
0.101523
0.101821
-0.0462335
-0.119304
-0.0162558
0.103487
0.0708253
-0.0592871
-0.100505
-0.000167331
0.0943825
0.0564748
-0.0553175
-0.0884467
-0.00173286
0.0817609
0.0553789
-0.0405729
-0.0814921
-0.0152234
0.0652487
0.0609766
-0.0166573
-0.0730974
-0.0353588
0.041356
0.0639878
0.0142284
-0.0543526
-0.0539452
0.00890331
0.0534354
0.0427937
-0.0190906
-0.0580045
-0.0250934
0.0237423
0.0503602
0.0252625
-0.0347332
-0.0440616
-0.0134286
0.0228485
0.0488817
0.0122703
-0.0321818
-0.0306496
-0.0193015
0.0206832
0.0454136
0.00618093
-0.015773
-0.0247854
-0.0308007
0.0172926
0.0348748
0.00713431
99.8817
99.7903
100.734
100.439
98.2548
98.8291
104.187
104.643
86.4507
49.9974
13.6088
-4.64186
-4.35308
1.14948
2.04766
-0.403914
-1.189
0.14254
0.796401
-0.0195284
-0.582231
-0.05614
0.442225
0.120856
-0.349348
-0.159613
0.254821
0.204134
-0.180992
-0.220247
0.0955933
0.22804
-0.0172022
-0.213509
-0.0537367
0.173877
0.115759
-0.119182
-0.152345
0.0484156
0.16165
0.0257218
-0.141131
-0.0872994
0.0904452
0.126058
-0.0225083
-0.130849
-0.0458595
0.0982762
0.0974424
-0.0390238
-0.114669
-0.028803
0.0906461
0.0830273
-0.0355681
-0.101167
-0.0299594
0.0750845
0.0798434
-0.0186625
-0.0888761
-0.0424661
0.0517282
0.0801431
0.00837605
-0.0714261
-0.058102
0.0191359
0.0726689
0.0400232
-0.0418196
-0.0654631
-0.0184431
0.0460405
0.0626556
0.000955836
-0.0524698
-0.0455446
0.000208788
0.0550936
0.0430344
-0.0162461
-0.0424175
-0.0391482
0.00796094
0.0537675
0.0260611
-0.00973272
-0.0333835
-0.0424669
0.0112391
0.0411743
0.0193859
0.00949192
-0.0289335
-0.0440261
0.00803217
0.0191667
100.116
99.6906
99.793
100.858
100.435
98.1673
98.8315
104.255
104.641
86.3961
49.9964
13.6577
-4.63994
-4.39515
1.14201
2.08766
-0.393307
-1.22439
0.126238
0.827457
0.00310758
-0.609439
-0.0818365
0.459701
0.154035
-0.361562
-0.191977
0.254048
0.238675
-0.171219
-0.250204
0.0755346
0.249932
0.0120057
-0.22568
-0.08602
0.171761
0.147622
-0.103583
-0.177508
0.0222358
0.173792
0.0580928
-0.137777
-0.117795
0.0718541
0.146307
0.00697972
-0.134958
-0.0775963
0.0846996
0.120827
-0.0118173
-0.121111
-0.0603689
0.0780213
0.105977
-0.00862734
-0.105108
-0.0606384
0.0592617
0.0990362
0.00931379
-0.0856949
-0.0700839
0.0295601
0.0915086
0.0360577
-0.0576223
-0.0773058
-0.00958956
0.0717346
0.0622202
-0.0181806
-0.0682603
-0.0479205
0.0305646
0.0718916
0.0252965
-0.0344124
-0.0623257
-0.0251581
0.0477382
0.0527041
0.0119316
-0.032607
-0.0595954
-0.0091844
0.0426831
0.0368132
0.0201727
-0.0303272
-0.0548883
-0.00303218
0.0216491
0.0317079
0.0348318
-0.0263211
-0.0421936
-0.0066578
100.075
100.113
99.567
99.7966
100.946
100.431
98.1007
98.8343
104.311
104.637
86.3492
49.9951
13.7024
-4.63778
-4.43418
1.13326
2.1259
-0.381019
-1.25841
0.108025
0.856474
0.0287872
-0.635059
-0.109539
0.473606
0.190065
-0.370313
-0.225583
0.248455
0.273358
-0.156057
-0.278914
0.0507894
0.267984
0.0454756
-0.232646
-0.120357
0.163218
0.178635
-0.0811791
-0.199147
-0.00893536
0.179465
0.092621
-0.126481
-0.146716
0.0462882
0.160627
0.0408291
-0.130631
-0.109103
0.0629876
0.13838
0.0209668
-0.118585
-0.0919438
0.0567383
0.122132
0.0239536
-0.0991922
-0.0901955
0.0351587
0.109267
0.0413103
-0.0716301
-0.0940836
0.0012337
0.0912992
0.0635906
-0.0327469
-0.089674
-0.0397557
0.0585485
0.0772786
0.014035
-0.0619072
-0.0723723
0.00778781
0.0668381
0.0510557
-0.00794951
-0.070064
-0.0463118
0.0262842
0.0529416
0.0435027
-0.0170817
-0.0664242
-0.0262827
0.0163753
0.043026
0.0477698
-0.0205105
-0.0503328
-0.0208058
-0.00756408
0.0394736
0.0501193
-0.0150444
-0.024089
99.9282
100.199
100.108
99.4799
99.8016
101.013
100.425
98.0467
98.8377
104.36
104.633
86.3073
49.9933
13.7448
-4.6354
-4.47136
1.12319
2.16311
-0.366869
-1.29165
0.0879792
0.883486
0.0577338
-0.65931
-0.13903
0.48374
0.228792
-0.375455
-0.260111
0.238067
0.307482
-0.135446
-0.305796
0.0217882
0.281464
0.0824602
-0.23379
-0.155761
0.148151
0.207456
-0.0523942
-0.21594
-0.0440621
0.177826
0.127642
-0.107201
-0.172062
0.0145784
0.167501
0.0771817
-0.117448
-0.137712
0.0337589
0.148094
0.0572091
-0.1066
-0.120116
0.0274568
0.12921
0.0596286
-0.083444
-0.114407
0.00401136
0.10827
0.0743402
-0.0481394
-0.109761
-0.0306116
0.0777069
0.0880487
-0.000607572
-0.0914418
-0.0664908
0.0324067
0.0835006
0.0489532
-0.0464526
-0.0850172
-0.021025
0.0480982
0.0734164
0.0205633
-0.0634821
-0.0593861
-0.00697872
0.0448776
0.0689283
0.00186962
-0.0546429
-0.0417096
-0.0182195
0.04278
0.0627987
-0.00330589
-0.0287258
-0.0389106
-0.0362112
0.0383414
0.0483572
0.00464137
99.948
99.933
100.287
100.101
99.4139
99.8077
101.068
100.417
98.0008
98.8416
104.405
104.628
86.2685
49.9911
13.7861
-4.63279
-4.50748
1.11175
2.19969
-0.35063
-1.32457
0.0662484
0.908359
0.09019
-0.682352
-0.170057
0.489878
0.269987
-0.376781
-0.295268
0.223001
0.340261
-0.109355
-0.330289
-0.0109567
0.28974
0.122052
-0.228552
-0.19125
0.126726
0.232739
-0.0179128
-0.226658
-0.0819813
0.168448
0.161278
-0.0802544
-0.191917
-0.0221341
0.16598
0.113684
-0.0954155
-0.160848
-0.00187009
0.148758
0.0939562
-0.085141
-0.141649
-0.00854053
0.126165
0.0946848
-0.0584674
-0.129395
-0.0324371
0.0957923
0.104117
-0.0175305
-0.112915
-0.0635069
0.0519365
0.105747
0.0335761
-0.0792423
-0.0865306
-0.00396221
0.0802773
0.0786229
-0.0218555
-0.0821774
-0.0529717
0.020303
0.0857266
0.0452597
-0.039966
-0.0634914
-0.0445751
0.0303874
0.0786737
0.0228444
-0.0255911
-0.0534246
-0.0499593
0.0335518
0.0588959
0.0202251
0.00310364
-0.0519388
-0.0533911
0.0249574
0.0291047
100.047
99.8612
99.9399
100.353
100.092
99.361
99.8153
101.116
100.408
97.96
98.8461
104.447
104.622
86.2317
49.9883
13.8274
-4.62994
-4.54313
1.09897
2.23585
-0.332028
-1.35758
0.0430422
0.930836
0.126403
-0.704296
-0.202359
0.491807
0.313331
-0.374025
-0.330787
0.203468
0.370858
-0.077809
-0.351848
-0.0468629
0.292298
0.16322
-0.216493
-0.225838
0.0993473
0.253176
0.0213604
-0.230269
-0.121374
0.151296
0.191534
-0.0462631
-0.204668
-0.0622992
0.155631
0.14766
-0.0648879
-0.176441
-0.0420407
0.139823
0.127723
-0.0545329
-0.154193
-0.0488985
0.112919
0.124675
-0.0250824
-0.132789
-0.0713024
0.0732274
0.125444
0.0179887
-0.101523
-0.0945821
0.0179775
0.112118
0.0651406
-0.0519389
-0.0983358
-0.0440428
0.0668557
0.0958086
0.0113234
-0.0648508
-0.0823482
-0.0101422
0.0813734
0.0629132
-0.00218019
-0.0595867
-0.0754561
0.0105051
0.0674643
0.0445208
0.0125674
-0.057951
-0.0678092
0.013372
0.0367901
0.0458607
0.0338106
-0.0533267
-0.0523423
-0.000707378
100.041
100.039
99.7957
99.9486
100.407
100.081
99.3165
99.8242
101.159
100.397
97.9228
98.8509
104.489
104.615
86.1963
49.9849
13.8691
-4.62678
-4.57876
1.08492
2.27161
-0.310726
-1.39107
0.0186337
0.950568
0.166607
-0.725195
-0.235693
0.489372
0.358385
-0.366851
-0.366446
0.179771
0.398423
-0.0409384
-0.369912
-0.0853242
0.288778
0.204817
-0.197321
-0.258513
0.0666032
0.267585
0.0643099
-0.226012
-0.160737
0.126637
0.21648
-0.00617683
-0.209153
-0.103872
0.136348
0.176507
-0.0267066
-0.183135
-0.083985
0.121027
0.155223
-0.0157257
-0.156592
-0.0898973
0.0896807
0.145564
0.0153603
-0.124272
-0.108016
0.0424435
0.133686
0.0564109
-0.0768417
-0.119608
-0.0190928
0.102895
0.0912824
-0.0124389
-0.100814
-0.0792157
0.0419517
0.0969861
0.0501111
-0.0379143
-0.100925
-0.0380963
0.0571067
0.0730614
0.0411599
-0.0483216
-0.0890692
-0.014643
0.03732
0.0639499
0.0476065
-0.0506033
-0.0656969
-0.0169521
0.00442021
0.0659071
0.0523515
-0.0379722
-0.0337364
99.9672
100.107
100.028
99.7439
99.9595
100.452
100.068
99.2777
99.8346
101.199
100.383
97.8882
98.8562
104.53
104.606
86.1617
49.9807
13.9117
-4.62324
-4.61476
1.06973
2.30683
-0.286323
-1.42542
-0.0066468
0.967143
0.211005
-0.745033
-0.269863
0.482514
0.404576
-0.354854
-0.402073
0.152306
0.422115
0.000995007
-0.383885
-0.125745
0.279015
0.24561
-0.170938
-0.288217
0.0291813
0.275033
0.109583
-0.213429
-0.198371
0.0948974
0.234544
0.0385544
-0.2046
-0.144402
0.108177
0.198217
0.0173961
-0.180044
-0.124312
0.0922061
0.174202
0.0290064
-0.148397
-0.126943
0.0565675
0.155052
0.0599831
-0.104923
-0.136814
0.00480313
0.126738
0.0948473
-0.0428638
-0.132897
-0.0552848
0.0765
0.110584
0.0320907
-0.091829
-0.102093
0.00518131
0.0835773
0.0876011
-0.00720156
-0.100568
-0.061392
0.0160561
0.0759883
0.0776115
-0.0287336
-0.0800776
-0.0440381
-0.00253762
0.075351
0.0683129
-0.0276337
-0.0453145
-0.0517478
-0.02647
0.0709369
0.0529122
-0.00550473
99.9673
99.9774
100.159
100.015
99.7011
99.9726
100.492
100.052
99.2431
99.8464
101.238
100.367
97.8554
98.8617
104.573
104.596
86.1276
49.9758
13.9555
-4.61916
-4.65152
1.05362
2.34125
-0.25836
-1.46103
-0.0324341
0.980133
0.259733
-0.7637
-0.304756
0.471302
0.451188
-0.337566
-0.437539
0.121529
0.441167
0.0475462
-0.393099
-0.167599
0.263084
0.284271
-0.137449
-0.313833
-0.0122224
0.274988
0.155479
-0.192243
-0.232555
0.0566644
0.244717
0.0857672
-0.190314
-0.181519
0.0715585
0.211557
0.0645203
-0.166224
-0.159911
0.0538173
0.1836
0.0756879
-0.129005
-0.155996
0.0143121
0.152922
0.103708
-0.0757584
-0.152645
-0.0384398
0.106019
0.128245
-0.00414845
-0.129089
-0.0885826
0.0361137
0.121081
0.072545
-0.0683678
-0.109582
-0.0402795
0.0603296
0.11369
0.0235297
-0.077439
-0.0798708
-0.0318128
0.0703183
0.0958516
0.000715918
-0.0512581
-0.0732063
-0.0393208
0.0711503
0.0693509
0.0102561
-0.015267
-0.0802416
-0.0455703
0.0537122
0.0373256
100.022
99.9162
99.9906
100.202
99.9994
99.6647
99.9879
100.528
100.034
99.2117
99.8597
101.276
100.349
97.8242
98.8675
104.617
104.583
86.0939
49.9701
14.0006
-4.61434
-4.68945
1.03689
2.37449
-0.226324
-1.49828
-0.0583518
0.989125
0.312832
-0.780969
-0.340365
0.455956
0.497355
-0.314465
-0.472752
0.0879553
0.454897
0.0980889
-0.396826
-0.21045
0.241336
0.31936
-0.097074
-0.33433
-0.0568239
0.267298
0.199963
-0.162217
-0.261874
0.0129916
0.246333
0.1328
-0.165607
-0.213463
0.0279172
0.215556
0.111128
-0.140687
-0.188766
0.00789478
0.182702
0.119493
-0.0975667
-0.174906
-0.0343448
0.139871
0.140195
-0.0370281
-0.153366
-0.0844124
0.0753235
0.149697
0.0363451
-0.106201
-0.117599
-0.0105984
0.118857
0.101779
-0.0290708
-0.103445
-0.0861168
0.031852
0.11882
0.0534162
-0.0352726
-0.0925808
-0.0729175
0.052508
0.0908806
0.0389973
-0.0126512
-0.093346
-0.0623096
0.0457835
0.053456
0.0552197
0.0130453
-0.0896751
-0.0485288
0.0140338
100.029
100.008
99.8747
100.006
100.238
99.9805
99.6332
100.006
100.561
100.012
99.1829
99.8743
101.314
100.328
97.7944
98.8733
104.662
104.569
86.0603
49.9637
14.047
-4.6085
-4.72898
1.01991
2.40609
-0.189673
-1.53756
-0.0840515
0.993771
0.37021
-0.796476
-0.3768
0.436835
0.542112
-0.285034
-0.507608
0.0521013
0.462739
0.151852
-0.394366
-0.25384
0.214257
0.349464
-0.0501895
-0.348857
-0.103582
0.251915
0.24105
-0.123407
-0.285234
-0.0344386
0.238662
0.177197
-0.130363
-0.238936
-0.0202169
0.208934
0.154186
-0.103356
-0.209673
-0.0417881
0.170208
0.156502
-0.0542653
-0.183248
-0.0841541
0.115876
0.164281
0.010671
-0.140291
-0.127282
0.0381602
0.153047
0.0774294
-0.0676211
-0.139124
-0.0546905
0.0991041
0.117445
0.022484
-0.0877075
-0.12055
-0.000128838
0.098957
0.0824272
0.0148879
-0.0954484
-0.0959522
0.0192725
0.0664909
0.0796001
0.0231879
-0.0938305
-0.0677266
0.000341583
0.0296026
0.0930602
0.0310758
-0.0711513
-0.0387592
99.9848
100.071
99.9905
99.8406
100.025
100.269
99.9587
99.6058
100.026
100.592
99.9872
99.1565
99.8903
101.352
100.303
97.7659
98.8792
104.709
104.553
86.0267
49.9567
14.0947
-4.60127
-4.77059
1.0031
2.43551
-0.14787
-1.57916
-0.109266
0.993845
0.431597
-0.809682
-0.414308
0.414425
0.584437
-0.248847
-0.541868
0.0143528
0.464369
0.207838
-0.385043
-0.29722
0.182287
0.373471
0.00240276
-0.356532
-0.151322
0.228803
0.277158
-0.0766238
-0.301395
-0.083737
0.221009
0.217135
-0.0857321
-0.256332
-0.070011
0.190399
0.191765
-0.056104
-0.221068
-0.0909351
0.144546
0.184792
-0.00190024
-0.180674
-0.128788
0.079927
0.174079
0.0641763
-0.116327
-0.159124
-0.00413153
0.136274
0.117428
-0.0210235
-0.14703
-0.0901028
0.0596098
0.121487
0.076555
-0.0647515
-0.133049
-0.0365266
0.0585784
0.10775
0.0591902
-0.0817025
-0.0970778
-0.0282242
0.0329497
0.110328
0.0474995
-0.0673175
-0.0597562
-0.0549999
0.00751175
0.107936
0.0374155
-0.0249644
99.974
100.002
100.105
99.9701
99.8123
100.047
100.296
99.9339
99.582
100.048
100.622
99.9592
99.1325
99.9076
101.391
100.275
97.7388
98.885
104.759
104.535
85.9929
49.9492
14.1433
-4.59224
-4.8148
0.986948
2.4622
-0.100409
-1.62331
-0.133842
0.989281
0.496495
-0.819843
-0.453295
0.389367
0.623249
-0.205584
-0.575134
-0.0250899
0.459807
0.264706
-0.36808
-0.340069
0.145889
0.390618
0.0593318
-0.356211
-0.199072
0.198242
0.307001
-0.0235121
-0.308669
-0.133418
0.193365
0.251074
-0.034102
-0.263319
-0.119354
0.159765
0.22244
-0.00269391
-0.220288
-0.136418
0.105502
0.203765
0.0538764
-0.165419
-0.163435
0.0318453
0.170887
0.116543
-0.0831908
-0.173116
-0.0515348
0.103064
0.151358
0.0254336
-0.134331
-0.115661
0.00446775
0.116513
0.119724
-0.0332965
-0.119629
-0.0772381
0.00934635
0.121596
0.0872677
-0.045902
-0.0809655
-0.0809153
0.00108361
0.116935
0.0590074
-0.0152287
-0.0465465
-0.102402
-0.00810906
0.0890201
0.03723
100.008
99.9414
100.023
100.132
99.9468
99.7892
100.071
100.319
99.906
99.5615
100.072
100.649
99.9278
99.1106
99.9261
101.43
100.244
97.713
98.8908
104.811
104.514
85.9586
49.9415
14.1928
-4.58091
-4.86214
0.971928
2.48559
-0.0468618
-1.67011
-0.157753
0.980182
0.564209
-0.826063
-0.494272
0.362406
0.657447
-0.15505
-0.606896
-0.0661325
0.449336
0.320862
-0.342657
-0.381958
0.105689
0.400339
0.11885
-0.346625
-0.246159
0.161112
0.329251
0.0338755
-0.305237
-0.18254
0.156923
0.277087
0.0217417
-0.257451
-0.167108
0.118872
0.244102
0.052621
-0.204399
-0.176956
0.0558406
0.21229
0.10643
-0.134765
-0.186604
-0.0251011
0.156802
0.158633
-0.0402721
-0.167173
-0.102124
0.0609923
0.170569
0.0670815
-0.0979035
-0.133327
-0.0550186
0.101975
0.140648
0.00943327
-0.0855032
-0.116743
-0.0351928
0.113434
0.0966696
0.0100585
-0.0571855
-0.122336
-0.0232523
0.0903024
0.0626061
0.0491287
-0.0343115
-0.122287
-0.0190959
0.0373025
100.024
99.9872
99.9156
100.046
100.153
99.9207
99.7708
100.098
100.339
99.8753
99.5443
100.099
100.676
99.8929
99.0912
99.9457
101.471
100.208
97.6886
98.8965
104.865
104.492
85.9236
49.9339
14.2426
-4.56681
-4.91313
0.958492
2.50522
0.0130568
-1.71945
-0.18116
0.966851
0.63386
-0.827355
-0.537767
0.334269
0.686066
-0.0972812
-0.636492
-0.108777
0.433406
0.374665
-0.308119
-0.422436
0.0624321
0.402168
0.179153
-0.326769
-0.29197
0.118786
0.3424
0.0936638
-0.289929
-0.230178
0.113829
0.292657
0.0796537
-0.237538
-0.212189
0.0711947
0.253492
0.106913
-0.17231
-0.211954
0.0011067
0.207434
0.151153
-0.0876935
-0.199412
-0.0833776
0.131875
0.183288
0.0134091
-0.145102
-0.14927
0.0169915
0.166373
0.103996
-0.0426345
-0.14387
-0.104335
0.0735349
0.136117
0.0626043
-0.0427304
-0.1433
-0.0664208
0.0765914
0.0930023
0.0736332
-0.034127
-0.1352
-0.0413689
0.0337846
0.0647555
0.103652
-0.0236434
-0.103262
-0.0311775
99.997
100.049
99.9635
99.8962
100.072
100.17
99.8922
99.7569
100.127
100.355
99.8418
99.5305
100.128
100.701
99.8545
99.0741
99.9666
101.513
100.169
97.6657
98.9022
104.922
104.468
85.8877
49.9267
14.2926
-4.54944
-4.96825
0.947013
2.52072
0.0794643
-1.77106
-0.204443
0.949807
0.70439
-0.822658
-0.58428
0.305572
0.70838
-0.0326355
-0.663034
-0.153151
0.412555
0.424612
-0.264199
-0.460785
0.0167636
0.395786
0.238623
-0.296317
-0.335422
0.0725279
0.345117
0.154362
-0.262857
-0.274493
0.0660002
0.295487
0.138311
-0.204629
-0.252059
0.0199143
0.247428
0.159063
-0.126447
-0.239143
-0.0530378
0.18551
0.187089
-0.0277305
-0.202363
-0.133856
0.0934808
0.189149
0.0752716
-0.11348
-0.182336
-0.0268434
0.135753
0.138006
0.0190744
-0.143124
-0.133143
0.0267102
0.112712
0.11774
-0.00300569
-0.143488
-0.0849154
0.0146201
0.0848566
0.125078
-0.0132486
-0.110876
-0.0596635
-0.0357064
0.0677651
0.127643
-0.00867114
-0.0498922
99.9783
100.021
100.067
99.9375
99.8827
100.1
100.181
99.8616
99.7475
100.158
100.367
99.8057
99.5199
100.158
100.724
99.8127
99.0595
99.9886
101.556
100.126
97.6443
98.908
104.981
104.442
85.8506
49.9202
14.3423
-4.52832
-5.02788
0.937744
2.53189
0.152287
-1.8244
-0.228193
0.92975
0.774605
-0.810889
-0.634191
0.276726
0.723989
0.0381037
-0.685295
-0.199566
0.387401
0.469414
-0.211206
-0.495702
-0.0311587
0.381359
0.295611
-0.255656
-0.374562
0.0227425
0.337123
0.21413
-0.225075
-0.312374
0.0139643
0.285071
0.195833
-0.161261
-0.282258
-0.0339536
0.225236
0.207806
-0.0719441
-0.253384
-0.103955
0.145357
0.21502
0.036878
-0.192283
-0.170508
0.0394462
0.180393
0.136441
-0.0761037
-0.191418
-0.073
0.0847292
0.166946
0.0731792
-0.122437
-0.140509
-0.0369604
0.0815617
0.159022
0.0296535
-0.109603
-0.097766
-0.0572555
0.0755432
0.145827
0.0119869
-0.0547194
-0.082428
-0.094713
0.0649887
0.111763
0.0193017
99.9978
99.9611
100.047
100.079
99.9098
99.875
100.13
100.187
99.8293
99.7426
100.191
100.376
99.7674
99.5127
100.191
100.746
99.7675
99.0475
100.012
101.6
100.079
97.6242
98.914
105.042
104.414
85.812
49.9146
14.3913
-4.50306
-5.0923
0.930802
2.53865
0.231232
-1.87873
-0.253175
0.907541
0.843171
-0.790975
-0.687751
0.247974
0.732797
0.113695
-0.701679
-0.248608
0.358859
0.507749
-0.149854
-0.525401
-0.0817398
0.359954
0.347814
-0.205248
-0.407125
-0.0308442
0.319697
0.269722
-0.177283
-0.340662
-0.0426208
0.263366
0.24811
-0.109305
-0.298338
-0.0909761
0.190095
0.249015
-0.0135059
-0.24886
-0.15234
0.0912539
0.233361
0.0967245
-0.163258
-0.19325
-0.0268247
0.162059
0.183553
-0.0312199
-0.173538
-0.122801
0.0263788
0.181396
0.11115
-0.0750369
-0.133605
-0.105208
0.0501647
0.169275
0.0595083
-0.046367
-0.109813
-0.116312
0.0590158
0.126995
0.0486305
0.0148352
-0.103566
-0.122378
0.0436418
0.0614734
100.019
99.9721
99.9511
100.074
100.084
99.8811
99.873
100.161
100.187
99.7958
99.7422
100.226
100.38
99.7272
99.509
100.226
100.765
99.7192
99.0381
100.036
101.644
100.028
97.6057
98.9202
105.106
104.384
85.7717
49.9103
14.4396
-4.47341
-5.16162
0.926174
2.54111
0.315823
-1.93317
-0.280217
0.884111
0.908755
-0.761972
-0.745094
0.219514
0.734848
0.19273
-0.7106
-0.300891
0.328105
0.538145
-0.0808385
-0.548366
-0.135252
0.333127
0.392391
-0.145135
-0.431742
-0.0878729
0.294734
0.316931
-0.119195
-0.358044
-0.102855
0.23328
0.28942
-0.0487572
-0.298887
-0.150311
0.147256
0.275799
0.0472739
-0.223632
-0.198892
0.032036
0.236317
0.146381
-0.112129
-0.206215
-0.0942854
0.13495
0.205684
0.0251314
-0.135727
-0.170299
-0.0259717
0.1689
0.133711
-0.00468066
-0.121336
-0.157443
0.0181385
0.140556
0.0925698
0.0271117
-0.117322
-0.142029
0.0256009
0.0759605
0.0941387
0.0718666
-0.107903
-0.109382
-0.00270969
100.007
100.028
99.9457
99.9479
100.102
100.082
99.852
99.8766
100.192
100.182
99.7617
99.7463
100.263
100.38
99.6855
99.5087
100.263
100.782
99.6681
99.0312
100.063
101.689
99.9729
97.5886
98.9269
105.172
104.353
85.7295
49.9074
14.4868
-4.43927
-5.2358
0.923652
2.53961
0.40542
-1.98678
-0.310149
0.860292
0.970299
-0.723323
-0.806019
0.191268
0.730408
0.273867
-0.710901
-0.356556
0.295905
0.559586
-0.00496158
-0.563684
-0.191177
0.3018
0.427249
-0.0755942
-0.448098
-0.146546
0.263036
0.352745
-0.0507512
-0.365184
-0.163379
0.196025
0.315611
0.0207904
-0.28621
-0.207465
0.0999924
0.282452
0.111312
-0.182025
-0.240301
-0.0242995
0.217011
0.186869
-0.0436915
-0.212216
-0.149119
0.0945822
0.201714
0.0925055
-0.091041
-0.202306
-0.0669663
0.123494
0.14872
0.0720864
-0.106998
-0.176047
-0.0212461
0.0820803
0.129446
0.0857128
-0.109413
-0.129165
-0.0288839
0.0158898
0.13512
0.0961742
-0.0821409
-0.0668238
99.9845
100.033
100.029
99.9195
99.9513
100.129
100.075
99.8234
99.8858
100.224
100.172
99.7277
99.7549
100.301
100.375
99.6428
99.5118
100.302
100.796
99.6144
99.0269
100.09
101.734
99.9141
97.5729
98.9342
105.239
104.321
85.6854
49.9059
14.5331
-4.40066
-5.31466
0.922785
2.53469
0.499204
-2.03844
-0.343919
0.83684
1.02701
-0.674854
-0.869798
0.162538
0.720241
0.355569
-0.701588
-0.41522
0.262141
0.572118
0.0761957
-0.570288
-0.24855
0.265778
0.452021
0.00162317
-0.455465
-0.204518
0.223786
0.37688
0.0258447
-0.362348
-0.21974
0.150107
0.326695
0.0970191
-0.263105
-0.255429
0.0470323
0.268715
0.177921
-0.131499
-0.268304
-0.0762372
0.173263
0.222009
0.0300083
-0.207275
-0.183326
0.035427
0.180581
0.16144
-0.0484388
-0.204867
-0.102283
0.0519469
0.162427
0.1339
-0.0834361
-0.157646
-0.0748303
0.0155161
0.160601
0.114291
-0.0731132
-0.0920966
-0.0983888
-0.0291198
0.152411
0.0884955
-0.0213852
99.9895
99.9837
100.058
100.024
99.8945
99.9611
100.155
100.061
99.796
99.9003
100.255
100.156
99.6943
99.7679
100.339
100.365
99.5998
99.5182
100.343
100.806
99.5585
99.0251
100.12
101.779
99.8516
97.5585
98.9421
105.309
104.287
85.6393
49.9059
14.5784
-4.35763
-5.39788
0.923027
2.52693