/*--------------------------------*- C++ -*----------------------------------*\
  =========                 |
  \\      /  F ield         | OpenFOAM: The Open Source CFD Toolbox
   \\    /   O peration     | Website:  https://openfoam.org
    \\  /    A nd           | Version:  8
     \\/     M anipulation  |
\*---------------------------------------------------------------------------*/
FoamFile
{
    version     2.0;
    format      ascii;
    class       volVectorField;
    location    "27.5";
    object      U;
}
// * * * * * * * * * * * * * * * * * * * * * * * * * * * * * * * * * * * * * //

dimensions      [0 1 -1 0 0 0 0];

internalField   nonuniform List<vector> 
116
(
(0.0120661 -0.0066866 0)
(0.00329507 -0.0126229 0)
(0.0343881 -0.0175029 0)
(-0.00166235 -0.0145224 0)
(-0.00205337 0.0564817 0)
(-0.150538 0.0768298 0)
(0.00549427 -0.00880852 0)
(-0.0139266 -0.00720679 0)
(-0.0212543 0.0193915 0)
(-0.0882571 0.0538384 0)
(-0.102433 0.0800073 0)
(-0.155692 0.0537918 0)
(0.000294043 0.00081199 0)
(-0.0211294 0.0151878 0)
(-0.0397645 0.0494446 0)
(-0.0805634 0.079452 0)
(-0.0949417 0.109461 0)
(-0.115691 0.0699179 0)
(-0.00368049 0.0118569 0)
(-0.0200471 0.0362027 0)
(-0.03416 0.0774364 0)
(-0.0589932 0.105511 0)
(-0.0672873 0.117065 0)
(-0.0688401 0.052074 0)
(-0.00112948 0.0245789 0)
(-0.00955578 0.0452839 0)
(-0.0174595 0.0864683 0)
(-0.020174 0.108101 0)
(-0.0247091 0.114055 0)
(-0.0124775 0.0427735 0)
(-0.00341828 0.0219312 0)
(-0.00140674 0.0523853 0)
(0.00303439 0.0888517 0)
(0.0204072 0.112159 0)
(0.0221073 0.118206 0)
(0.0324707 0.055504 0)
(0.00338648 0.032231 0)
(0.00359154 0.0399683 0)
(-0.00119304 0.0669671 0)
(0.0328738 0.0829921 0)
(0.0431223 0.0996864 0)
(0.0728178 0.0558512 0)
(0.00106281 0.0114804 0)
(0.0101425 0.0577309 0)
(0.0176635 0.0626362 0)
(0.0442975 0.0686188 0)
(0.0569535 0.0828032 0)
(0.0911796 0.0654966 0)
(-0.0651978 0.0265091 0)
(-0.03452 0.0185995 0)
(-0.0512957 0.0306524 0)
(-0.0122677 0.0342552 0)
(-0.00222161 0.0458363 0)
(0.0549954 0.0451207 0)
(0.0501001 0.0981695 0)
(0.0881574 0.0548724 0)
(0.108559 0.0411043 0)
(0.164957 0.0283315 0)
(0.16841 0.0193135 0)
(0.22188 0.0170143 0)
(-0.105274 0.0985098 0)
(-0.102875 -0.0238947 0)
(-0.0281797 0.00737914 0)
(-0.00510729 -0.131972 0)
(-0.0999286 0.0622288 0)
(-0.0999405 -0.05903 0)
(-0.0741849 -0.0590678 0)
(0.00326377 -0.163811 0)
(-0.0764317 0.0357592 0)
(-0.0524084 -0.0572191 0)
(-0.0650302 -0.0945916 0)
(0.000274318 -0.204687 0)
(-0.0448771 0.00496513 0)
(-0.0190296 -0.0685685 0)
(-0.0449528 -0.106857 0)
(0.00686236 -0.225292 0)
(-0.0226748 -0.0128886 0)
(0.00616533 -0.0669081 0)
(-0.0361638 -0.116873 0)
(0.0112571 -0.245482 0)
(0.00282573 -0.0091486 0)
(0.0368043 -0.053178 0)
(-0.0245495 -0.101364 0)
(0.0209725 -0.250783 0)
(0.0397367 -0.0156558 0)
(0.061773 -0.0503543 0)
(-0.0266829 -0.108123 0)
(0.028606 -0.256206 0)
(0.0593288 0.0116872 0)
(0.0647547 0.010903 0)
(-0.00612522 -0.0511822 0)
(0.0524747 -0.235301 0)
(0.0508386 0.0121989 0)
(0.0672154 0.00176068 0)
(0.0532766 -0.103739 0)
(0.0784148 -0.243159 0)
(0.223106 0.0105388 0)
(0.255474 0.00132495 0)
(0.205792 -0.0243071 0)
(0.153156 -0.0693696 0)
(-0.0156085 -0.00222646 0)
(-0.0377506 0.000433655 0)
(-0.057923 0.0050391 0)
(-0.0404652 -0.0268081 0)
(-0.0169864 0.057013 0)
(-0.0374331 0.0401728 0)
(-0.0467684 0.00334301 0)
(-0.0381556 -0.0768356 0)
(-0.0345703 0.0507627 0)
(-0.00508118 0.0206072 0)
(-0.0228799 0.0119286 0)
(-0.0267794 -0.119244 0)
(-0.0100049 0.104199 0)
(-0.0418509 0.0317225 0)
(0.0218244 0.0307329 0)
(-0.0315222 -0.116473 0)
)
;

boundaryField
{
    movingWall
    {
        type            fixedValue;
        value           uniform (1 0 0);
    }
    fixedWalls
    {
        type            noSlip;
    }
    frontAndBack
    {
        type            empty;
    }
}


// ************************************************************************* //
