# Probe 0 (0 1 0)
# Probe 1 (0.1 0.9 0)
# Probe 2 (0.2 0.8 0)
# Probe 3 (0.3 0.7 0)
# Probe 4 (0.4 0.6 0)
# Probe 5 (0.5 0.5 0)
# Probe 6 (0.6 0.4 0)
# Probe 7 (0.7 0.3 0)
# Probe 8 (0.8 0.2 0)
# Probe 9 (0.9 0.1 0)
# Probe 10 (1 0 0)
# Time        0             1             2             3             4             5             6             7             8             9             10           
0             0             0             0             0             0             0             0             0             0             0             0            
0.001         1.98          1.98          0.019798      0.000197941   1.97881e-06   1.97801e-08   1.977e-10     1.97546e-12   1.96062e-14   1.63516e-16   1.58253e-18  
0.002         3.94001       3.94001       0.0591902     0.000789725   9.87429e-06   1.18497e-07   1.38231e-09   1.57906e-11   1.7612e-13    1.60349e-15   1.7057e-17   
0.003         5.88003       5.88003       0.117971      0.00196912    2.95606e-05   4.14028e-07   5.52145e-09   7.0972e-11    8.78362e-13   8.64056e-15   1.00168e-16  
0.004         7.80007       7.80007       0.195932      0.00392773    6.88259e-05   1.10209e-06   1.65392e-08   2.36249e-10   3.21136e-12   3.38459e-14   4.24598e-16  
0.005         9.70014       9.70014       0.292865      0.00685499    0.00013735    2.47514e-06   4.12826e-08   6.48732e-10   9.60387e-12   1.07682e-13   1.45313e-15  
0.006         11.5803       11.5803       0.408558      0.0109381     0.00024668    4.94098e-06   9.06743e-08   1.55456e-09   2.48865e-11   2.95074e-13   4.26135e-15  
0.007         13.4404       13.4404       0.542799      0.016362      0.000410208   9.04117e-06   1.81048e-07   3.36285e-09   5.78635e-11   7.21746e-13   1.11048e-14  
0.008         15.2807       15.2807       0.695372      0.0233092     0.000643144   1.54692e-05   3.35663e-07   6.71465e-09   1.23533e-10   1.61365e-12   2.63476e-14  
0.009         17.101        17.101        0.866063      0.0319602     0.000962493   2.50881e-05   5.86403e-07   1.25687e-08   2.46108e-10   3.3532e-12    5.7901e-14   
0.01          18.9014       18.9014       1.05465       0.0424928     0.00138703    3.89485e-05   9.75637e-07   2.23055e-08   4.62989e-10   6.55652e-12   1.19356e-13  
0.011         20.682        20.682        1.26092       0.0550827     0.00193727    5.83054e-05   1.55826e-06   3.78518e-08   8.29873e-10   1.21759e-11   2.33029e-13  
0.012         22.4427       22.4427       1.48465       0.0699028     0.00263545    8.46356e-05   2.40392e-06   6.18261e-08   1.42715e-09   2.16322e-11   4.34165e-13  
0.013         24.1836       24.1836       1.72561       0.0871239     0.00350549    0.000119654   3.59934e-06   9.7708e-08    2.36782e-09   3.6982e-11    7.76599e-13  
0.014         25.9047       25.9047       1.98359       0.106914      0.00457297    0.000165331   5.25091e-06   1.50032e-07   3.80702e-09   6.11232e-11   1.34018e-12  
0.015         27.6061       27.6061       2.25836       0.129439      0.00586512    0.000223907   7.48734e-06   2.24605e-07   5.95348e-09   9.8045e-11    2.2403e-12   
0.016         29.2877       29.2877       2.54969       0.154862      0.00741076    0.000297909   1.04625e-05   3.28757e-07   9.08305e-09   1.53125e-10   3.63991e-12  
0.017         30.9497       30.9497       2.85735       0.183343      0.00924028    0.000390167   1.43586e-05   4.71614e-07   1.35544e-08   2.33477e-10   5.76438e-12  
0.018         32.5919       32.5919       3.18112       0.21504       0.0113856     0.000503827   1.93888e-05   6.64403e-07   1.98271e-08   3.48357e-10   8.91962e-12  
0.019         34.2146       34.2146       3.52076       0.250109      0.0138803     0.00064237    2.58012e-05   9.20788e-07   2.84828e-08   5.09615e-10   1.35138e-11  
0.02          35.8176       35.8176       3.87605       0.288702      0.0167592     0.00080962    3.38817e-05   1.25724e-06   4.02483e-08   7.32223e-10   2.00831e-11  
0.021         37.4012       37.4012       4.24676       0.330969      0.0200588     0.00100976    4.3958e-05    1.69343e-06   5.60227e-08   1.03484e-09   2.93218e-11  
0.022         38.9652       38.9652       4.63264       0.377057      0.0238169     0.00124736    5.64028e-05   2.25267e-06   7.69067e-08   1.44046e-09   4.21171e-11  
0.023         40.5097       40.5097       5.03346       0.427111      0.0280727     0.00152736    7.16381e-05   2.9624e-06    1.04236e-07   1.97709e-09   5.95885e-11  
0.024         42.0349       42.0349       5.449         0.481272      0.0328669     0.00185512    9.01386e-05   3.85462e-06   1.39618e-07   2.67849e-09   8.31329e-11  
0.025         43.5407       43.5407       5.87901       0.53968       0.0382413     0.00223639    0.000112436   4.96653e-06   1.8497e-07    3.58496e-09   1.14475e-10  
0.026         45.0272       45.0272       6.32326       0.60247       0.0442392     0.00267737    0.000139124   6.34103e-06   2.42567e-07   4.74419e-09   1.5572e-10   
0.027         46.4944       46.4944       6.7815        0.669776      0.0509051     0.00318468    0.000170861   8.02735e-06   3.15084e-07   6.2121e-09    2.09418e-10  
0.028         47.9425       47.9425       7.25351       0.741728      0.0582847     0.0037654     0.000208374   1.00817e-05   4.05653e-07   8.05373e-09   2.78625e-10  
0.029         49.3714       49.3714       7.73904       0.818454      0.0664249     0.00442707    0.000252468   1.25679e-05   5.17913e-07   1.03441e-08   3.66977e-10  
0.03          50.7812       50.7812       8.23785       0.900079      0.0753739     0.0051777     0.000304021   1.55583e-05   6.56072e-07   1.31692e-08   4.78757e-10  
0.031         52.172        52.172        8.74971       0.986724      0.0851808     0.00602577    0.000364      1.91343e-05   8.24972e-07   1.66267e-08   6.18977e-10  
0.032         53.5438       53.5438       9.27436       1.07851       0.095896      0.00698028    0.000433457   2.3387e-05    1.03015e-06   2.08269e-08   7.93454e-10  
0.033         54.8967       54.8967       9.81157       1.17555       0.107571      0.00805071    0.000513537   2.84186e-05   1.27792e-06   2.58934e-08   1.00889e-09  
0.034         56.2308       56.2308       10.3611       1.27796       0.120258      0.00924705    0.000605484   3.43427e-05   1.57543e-06   3.19639e-08   1.27295e-09  
0.035         57.5461       57.5461       10.9227       1.38584       0.13401       0.0105798     0.000710643   4.12855e-05   1.93076e-06   3.91905e-08   1.59434e-09  
0.036         58.8427       58.8427       11.4961       1.49932       0.148883      0.01206       0.000830466   4.93866e-05   2.35301e-06   4.77404e-08   1.98288e-09  
0.037         60.1207       60.1207       12.0812       1.61848       0.16493       0.0136993     0.000966519   5.87999e-05   2.85233e-06   5.77963e-08   2.44956e-09  
0.038         61.3801       61.3801       12.6775       1.74343       0.182209      0.0155097     0.00112049    6.96946e-05   3.44009e-06   6.95558e-08   3.0066e-09   
0.039         62.6211       62.6211       13.285        1.87427       0.200776      0.017504      0.00129417    8.22566e-05   4.12893e-06   8.32319e-08   3.66751e-09  
0.04          63.8436       63.8436       13.9033       2.0111        0.22069       0.0196954     0.0014895     9.66891e-05   4.93283e-06   9.90522e-08   4.44708e-09  
0.041         65.0478       65.0478       14.5323       2.154         0.242009      0.0220975     0.00170855    0.000113213   5.86727e-06   1.17258e-07   5.36144e-09  
0.042         66.2337       66.2337       15.1716       2.30307       0.264791      0.0247249     0.00195352    0.000132071   6.94927e-06   1.38105e-07   6.428e-09    
0.043         67.4015       67.4015       15.821        2.45839       0.289098      0.0275924     0.00222675    0.000153524   8.19754e-06   1.61857e-07   7.66541e-09  
0.044         68.5512       68.5512       16.4803       2.62004       0.314991      0.0307156     0.00253073    0.000177856   9.63254e-06   1.8879e-07    9.09351e-09  
0.045         69.6829       69.6829       17.1493       2.78811       0.342529      0.0341105     0.00286811    0.000205375   1.12766e-05   2.19185e-07   1.07332e-08  
0.046         70.7966       70.7966       17.8276       2.96266       0.371777      0.0377938     0.0032417     0.00023641    1.31541e-05   2.5333e-07    1.26063e-08  
0.047         71.8926       71.8926       18.5151       3.14379       0.402795      0.0417827     0.00365445    0.000271319   1.52915e-05   2.9151e-07    1.47353e-08  
0.048         72.9708       72.9708       19.2116       3.33162       0.435668      0.0460988     0.00410998    0.000310535   1.77217e-05   3.34277e-07   1.71618e-08  
0.049         74.0314       74.0314       19.9168       3.52616       0.47044       0.0507573     0.0046112     0.000354429   2.04723e-05   3.81702e-07   1.98953e-08  
0.05          75.0745       75.0745       20.6304       3.72747       0.507176      0.0557772     0.00516158    0.000403441   2.35767e-05   4.34053e-07   2.29594e-08  
0.051         76.1          76.1          21.3522       3.93561       0.545939      0.0611782     0.0057648     0.000458044   2.7071e-05    4.91579e-07   2.63769e-08  
0.052         77.1082       77.1082       22.0819       4.15064       0.586795      0.0669807     0.00642472    0.000518739   3.09937e-05   5.54505e-07   3.01698e-08  
0.053         78.0992       78.0991       22.8193       4.37262       0.629808      0.0732054     0.00714539    0.000586064   3.53861e-05   6.23016e-07   3.43577e-08  
0.054         79.0729       79.0729       23.5641       4.60159       0.675045      0.0798738     0.00793105    0.000660586   4.02924e-05   6.97258e-07   3.89581e-08  
0.055         80.0295       80.0295       24.3162       4.83761       0.72257       0.0870081     0.00878615    0.000742912   4.57596e-05   7.7732e-07    4.39846e-08  
0.056         80.9692       80.9692       25.0752       5.08072       0.772451      0.0946307     0.00971533    0.000833683   5.18377e-05   8.63228e-07   4.94466e-08  
0.057         81.892        81.8919       25.841        5.33097       0.824753      0.102765      0.0107235     0.000933577   5.85797e-05   9.54931e-07   5.5348e-08   
0.058         82.7979       82.7978       26.6131       5.5883        0.879513      0.111429      0.0118146     0.00104319    6.60296e-05   1.05148e-06   6.16195e-08  
0.059         83.6871       83.6871       27.3914       5.85285       0.936824      0.120652      0.012995      0.00116338    7.42567e-05   1.15328e-06   6.83021e-08  
0.06          84.5598       84.5597       28.1758       6.12463       0.996754      0.130459      0.01427       0.00129495    8.33234e-05   1.25995e-06   7.53729e-08  
0.061         85.416        85.4159       28.9659       6.40369       1.05937       0.140877      0.0156454     0.00143873    9.32955e-05   1.37098e-06   8.27976e-08  
0.062         86.2558       86.2557       29.7615       6.69005       1.12473       0.15193       0.0171271     0.0015956     0.000104242   1.48568e-06   9.05285e-08  
0.063         87.0794       87.0793       30.5625       6.98374       1.19292       0.163646      0.0187213     0.0017665     0.000116235   1.60321e-06   9.85022e-08  
0.064         87.8868       87.8867       31.3685       7.28478       1.26398       0.176053      0.0204344     0.00195238    0.000129351   1.72252e-06   1.06637e-07  
0.065         88.6783       88.6782       32.1793       7.59318       1.338         0.189177      0.0222731     0.00215428    0.000143668   1.84235e-06   1.14833e-07  
0.066         89.4538       89.4537       32.9948       7.90897       1.41504       0.203047      0.0242442     0.00237324    0.000159269   1.96119e-06   1.22963e-07  
0.067         90.2135       90.2134       33.8146       8.23215       1.49515       0.217693      0.0263549     0.00261038    0.00017624    2.07727e-06   1.30879e-07  
0.068         90.9576       90.9574       34.6385       8.56274       1.57841       0.233144      0.0286125     0.00286687    0.00019467    2.18852e-06   1.384e-07    
0.069         91.686        91.6859       35.4664       8.90074       1.66489       0.249429      0.0310246     0.0031439     0.000214652   2.29256e-06   1.45313e-07  
0.07          92.3991       92.3989       36.2979       9.24615       1.75465       0.26658       0.0335991     0.00344273    0.000236281   2.38665e-06   1.51371e-07  
0.071         93.0968       93.0966       37.1329       9.59898       1.84774       0.284626      0.036344      0.00376468    0.000259655   2.46768e-06   1.56285e-07  
0.072         93.7793       93.7791       37.9711       9.95923       1.94425       0.303601      0.0392677     0.00411109    0.000284877   2.5321e-06    1.59723e-07  
0.073         94.4467       94.4465       38.8123       10.3269       2.04422       0.323536      0.0423789     0.00448339    0.000312052   2.57596e-06   1.61302e-07  
0.074         95.0991       95.099        39.6562       10.7019       2.14774       0.344463      0.0456862     0.00488302    0.000341285   2.59478e-06   1.60588e-07  
0.075         95.7367       95.7365       40.5026       11.0844       2.25486       0.366421      0.0492003     0.00531176    0.000372726   2.5869e-06    1.57428e-07  
0.076         96.3595       96.3593       41.3514       11.4742       2.36564       0.38944       0.0529293     0.00577097    0.000406455   2.54392e-06   1.50975e-07  
0.077         96.9678       96.9676       42.2023       11.8714       2.48016       0.413552      0.0568829     0.00626225    0.000442588   2.45975e-06   1.40608e-07  
0.078         97.5616       97.5614       43.0551       12.276        2.59846       0.438792      0.0610707     0.00678729    0.000481241   2.32765e-06   1.25627e-07  
0.079         98.1411       98.1409       43.9096       12.6879       2.7206        0.465196      0.065503      0.00734778    0.000522533   2.1402e-06    1.05255e-07  
0.08          98.7064       98.7062       44.7656       13.1071       2.84665       0.492796      0.07019       0.00794551    0.000566585   1.88928e-06   7.86246e-08  
0.081         99.2576       99.2574       45.6228       13.5335       2.97667       0.521631      0.0751422     0.00858229    0.000613517   1.56598e-06   4.47736e-08  
0.082         99.7949       99.7947       46.481        13.9672       3.11072       0.551734      0.0803706     0.00925999    0.000663452   1.16061e-06   2.6389e-09   
0.083         100.318       100.318       47.3401       14.4081       3.24884       0.583143      0.0858861     0.00998055    0.000716513   6.62615e-07   -4.89521e-08 
0.084         100.828       100.828       48.1998       14.8562       3.3911        0.615893      0.0917        0.0107459     0.000772824   6.05263e-08   -1.11289e-07 
0.085         101.324       101.324       49.06         15.3114       3.53756       0.650023      0.0978238     0.0115581     0.000832506   -6.5806e-07   -1.85786e-07 
0.086         101.807       101.807       49.9203       15.7737       3.68827       0.685568      0.104269      0.0124192     0.000895683   -1.50655e-06  -2.73991e-07 
0.087         102.277       102.276       50.7806       16.243        3.84328       0.722567      0.111048      0.0133313     0.000962475   -2.49939e-06  -3.77594e-07 
0.088         102.733       102.733       51.6408       16.7194       4.00265       0.761057      0.118173      0.0142966     0.001033      -3.65212e-06  -4.98434e-07 
0.089         103.176       103.176       52.5005       17.2026       4.16642       0.801076      0.125657      0.0153173     0.00110738    -4.98142e-06  -6.3851e-07  
0.09          103.607       103.606       53.3596       17.6928       4.33466       0.842662      0.133511      0.0163955     0.00118573    -6.50519e-06  -7.99991e-07 
0.091         104.024       104.024       54.218        18.1899       4.50742       0.885855      0.141749      0.0175337     0.00126816    -8.24253e-06  -9.85223e-07 
0.092         104.429       104.429       55.0753       18.6937       4.68473       0.930691      0.150383      0.018734      0.00135478    -1.02139e-05  -1.19674e-06 
0.093         104.822       104.821       55.9315       19.2042       4.86665       0.977211      0.159427      0.0199989     0.00144568    -1.24409e-05  -1.43728e-06 
0.094         105.202       105.202       56.7863       19.7215       5.05323       1.02545       0.168895      0.0213308     0.00154098    -1.49469e-05  -1.70977e-06 
0.095         105.57        105.57        57.6395       20.2453       5.24451       1.07546       0.1788        0.022732      0.00164077    -1.77563e-05  -2.01739e-06 
0.096         105.926       105.925       58.491        20.7756       5.44054       1.12726       0.189155      0.024205      0.00174513    -2.08952e-05  -2.36351e-06 
0.097         106.27        106.269       59.3405       21.3125       5.64136       1.1809        0.199974      0.0257523     0.00185414    -2.43912e-05  -2.75175e-06 
0.098         106.602       106.602       60.1879       21.8557       5.84701       1.23642       0.211273      0.0273764     0.00196787    -2.82734e-05  -3.18601e-06 
0.099         106.922       106.922       61.0331       22.4053       6.05753       1.29386       0.223064      0.0290798     0.00208639    -3.25726e-05  -3.6704e-06  
0.1           107.231       107.231       61.8757       22.9611       6.27297       1.35326       0.235362      0.0308651     0.00220976    -3.73213e-05  -4.20934e-06 
0.101         107.529       107.529       62.7157       23.523        6.49336       1.41465       0.248181      0.0327347     0.00233802    -4.25534e-05  -4.80751e-06 
0.102         107.815       107.815       63.5529       24.0911       6.71873       1.47808       0.261537      0.0346914     0.0024712     -4.83049e-05  -5.46989e-06 
0.103         108.091       108.09        64.3871       24.6652       6.94913       1.54358       0.275444      0.0367375     0.00260933    -5.46134e-05  -6.20175e-06 
0.104         108.355       108.355       65.2182       25.2452       7.18459       1.61119       0.289916      0.0388758     0.00275241    -6.15183e-05  -7.00869e-06 
0.105         108.609       108.608       66.0459       25.8311       7.42514       1.68096       0.304969      0.0411088     0.00290044    -6.90607e-05  -7.8966e-06  
0.106         108.851       108.851       66.8701       26.4227       7.6708        1.75292       0.320617      0.043439      0.00305341    -7.72838e-05  -8.87174e-06 
0.107         109.084       109.083       67.6906       27.0199       7.92162       1.8271        0.336876      0.0458691     0.00321128    -8.62325e-05  -9.94069e-06 
0.108         109.306       109.305       68.5074       27.6228       8.17762       1.90356       0.35376       0.0484016     0.003374      -9.59535e-05  -1.11104e-05 
0.109         109.517       109.517       69.3201       28.2311       8.43882       1.98232       0.371285      0.051039      0.0035415     -0.000106496  -1.23881e-05 
0.11          109.719       109.718       70.1288       28.8448       8.70525       2.06342       0.389466      0.0537838     0.00371371    -0.00011791   -1.37814e-05 
0.111         109.911       109.91        70.9331       29.4638       8.97694       2.1469        0.408317      0.0566386     0.0038905     -0.000130248  -1.52985e-05 
0.112         110.092       110.092       71.733        30.0879       9.2539        2.23281       0.427854      0.0596059     0.00407177    -0.000143565  -1.69476e-05 
0.113         110.264       110.264       72.5283       30.7172       9.53615       2.32116       0.448093      0.0626879     0.00425736    -0.000157917  -1.87376e-05 
0.114         110.427       110.427       73.3189       31.3514       9.82372       2.41201       0.469047      0.0658873     0.00444712    -0.000173363  -2.06777e-05 
0.115         110.58        110.58        74.1047       31.9905       10.1166       2.50538       0.490732      0.0692062     0.00464083    -0.000189962  -2.27775e-05 
0.116         110.724       110.724       74.8854       32.6344       10.4149       2.60132       0.513164      0.072647      0.0048383     -0.000207777  -2.50468e-05 
0.117         110.859       110.859       75.6609       33.2829       10.7184       2.69985       0.536356      0.076212      0.00503928    -0.000226871  -2.74962e-05 
0.118         110.985       110.984       76.4312       33.936        11.0274       2.80101       0.560324      0.0799032     0.00524351    -0.000247311  -3.01363e-05 
0.119         111.102       111.102       77.1961       34.5935       11.3418       2.90484       0.585082      0.0837229     0.00545068    -0.000269164  -3.29785e-05 
0.12          111.21        111.21        77.9554       35.2553       11.6615       3.01137       0.610645      0.0876732     0.00566048    -0.000292498  -3.60342e-05 
0.121         111.31        111.31        78.709        35.9214       11.9866       3.12063       0.637028      0.0917558     0.00587256    -0.000317385  -3.93155e-05 
0.122         111.402       111.401       79.4568       36.5915       12.3171       3.23265       0.664244      0.0959728     0.00608653    -0.000343897  -4.28348e-05 
0.123         111.485       111.484       80.1987       37.2656       12.653        3.34747       0.692307      0.100326      0.00630198    -0.000372108  -4.6605e-05  
0.124         111.56        111.559       80.9346       37.9436       12.9943       3.46511       0.721232      0.104817      0.00651847    -0.000402094  -5.06391e-05 
0.125         111.627       111.627       81.6643       38.6253       13.341        3.58561       0.751032      0.109447      0.00673551    -0.000433931  -5.49509e-05 
0.126         111.686       111.686       82.3877       39.3106       13.6931       3.709         0.78172       0.114219      0.00695259    -0.000467698  -5.95543e-05 
0.127         111.738       111.738       83.1047       39.9995       14.0506       3.8353        0.81331       0.119133      0.00716917    -0.000503474  -6.44636e-05 
0.128         111.782       111.782       83.8152       40.6917       14.4134       3.96453       0.845815      0.12419       0.00738465    -0.000541338  -6.96936e-05 
0.129         111.819       111.818       84.5191       41.3871       14.7817       4.09674       0.879247      0.129392      0.00759841    -0.000581374  -7.52593e-05 
0.13          111.848       111.848       85.2162       42.0857       15.1553       4.23194       0.913618      0.13474       0.0078098     -0.000623661  -8.1176e-05  
0.131         111.87        111.87        85.9066       42.7872       15.5342       4.37016       0.948941      0.140234      0.00801811    -0.000668284  -8.74595e-05 
0.132         111.886       111.885       86.59         43.4916       15.9184       4.51142       0.985227      0.145876      0.0082226     -0.000715326  -9.41259e-05 
0.133         111.894       111.894       87.2665       44.1988       16.308        4.65575       1.02249       0.151666      0.0084225     -0.000764871  -0.000101191 
0.134         111.896       111.895       87.9358       44.9086       16.7029       4.80317       1.06073       0.157604      0.00861699    -0.000817001  -0.000108672 
0.135         111.891       111.89        88.5979       45.6208       17.103        4.95369       1.09998       0.163691      0.0088052     -0.000871803  -0.000116585 
0.136         111.88        111.879       89.2527       46.3354       17.5084       5.10735       1.14022       0.169926      0.00898623    -0.000929358  -0.000124948 
0.137         111.862       111.861       89.9001       47.0522       17.919        5.26415       1.18149       0.17631       0.00915912    -0.000989752  -0.000133777 
0.138         111.838       111.838       90.5401       47.7711       18.3348       5.42412       1.22378       0.182843      0.00932289    -0.00105307   -0.000143089 
0.139         111.808       111.808       91.1725       48.4919       18.7557       5.58727       1.2671        0.189523      0.0094765     -0.00111938   -0.000152903 
0.14          111.773       111.772       91.7973       49.2145       19.1818       5.75362       1.31147       0.196351      0.00961887    -0.00118879   -0.000163235 
0.141         111.731       111.731       92.4145       49.9388       19.613        5.92318       1.35688       0.203325      0.00974888    -0.00126135   -0.000174103 
0.142         111.684       111.684       93.0238       50.6647       20.0493       6.09597       1.40336       0.210445      0.00986534    -0.00133717   -0.000185524 
0.143         111.631       111.631       93.6253       51.3919       20.4906       6.272         1.45089       0.217709      0.00996704    -0.0014163    -0.000197516 
0.144         111.573       111.573       94.2189       52.1204       20.9368       6.45127       1.4995        0.225115      0.0100527     -0.00149882   -0.000210096 
0.145         111.51        111.51        94.8045       52.8501       21.3881       6.6338        1.54919       0.232663      0.0101211     -0.00158482   -0.000223281 
0.146         111.442       111.442       95.3821       53.5807       21.8442       6.81959       1.59995       0.24035       0.0101707     -0.00167435   -0.000237088 
0.147         111.369       111.369       95.9516       54.3122       22.3052       7.00866       1.6518        0.248173      0.0102003     -0.00176749   -0.000251534 
0.148         111.291       111.29        96.513        55.0444       22.771        7.201         1.70474       0.256132      0.0102083     -0.0018643    -0.000266635 
0.149         111.208       111.208       97.0661       55.7771       23.2415       7.39663       1.75877       0.264222      0.0101933     -0.00196484   -0.000282407 
0.15          111.121       111.12        97.611        56.5103       23.7168       7.59554       1.8139        0.272441      0.0101537     -0.00206917   -0.000298865 
0.151         111.029       111.029       98.1476       57.2439       24.1967       7.79773       1.87012       0.280787      0.010088      -0.00217734   -0.000316025 
0.152         110.933       110.932       98.6758       57.9775       24.6812       8.00321       1.92745       0.289255      0.00999439    -0.0022894    -0.0003339   
0.153         110.832       110.832       99.1956       58.7112       25.1702       8.21196       1.98587       0.297842      0.00987133    -0.00240539   -0.000352505 
0.154         110.728       110.728       99.707        59.4448       25.6638       8.424         2.04539       0.306544      0.00971707    -0.00252536   -0.000371853 
0.155         110.619       110.619       100.21        60.1781       26.1617       8.63931       2.106         0.315358      0.00952983    -0.00264933   -0.000391956 
0.156         110.507       110.507       100.704       60.911        26.664        8.85789       2.16772       0.324278      0.0093078     -0.00277734   -0.000412824 
0.157         110.391       110.391       101.19        61.6434       27.1706       9.07973       2.23052       0.333299      0.00904913    -0.00290941   -0.000434469 
0.158         110.272       110.272       101.667       62.3751       27.6814       9.30481       2.29442       0.342418      0.00875192    -0.00304554   -0.0004569   
0.159         110.149       110.149       102.136       63.1059       28.1964       9.53314       2.3594        0.351629      0.00841423    -0.00318576   -0.000480125 
0.16          110.022       110.023       102.596       63.8359       28.7155       9.76469       2.42546       0.360925      0.00803408    -0.00333005   -0.00050415  
0.161         109.893       109.893       103.047       64.5647       29.2385       9.99945       2.49259       0.370302      0.00760946    -0.00347842   -0.000528981 
0.162         109.76        109.761       103.49        65.2923       29.7655       10.2374       2.5608        0.379754      0.00713832    -0.00363084   -0.000554623 
0.163         109.625       109.625       103.924       66.0186       30.2964       10.4785       2.63007       0.389273      0.00661856    -0.0037873    -0.000581077 
0.164         109.486       109.487       104.349       66.7433       30.831        10.7228       2.70039       0.398854      0.00604805    -0.00394776   -0.000608346 
0.165         109.345       109.346       104.766       67.4664       31.3693       10.9703       2.77176       0.408488      0.00542465    -0.00411218   -0.000636427 
0.166         109.201       109.202       105.174       68.1878       31.9113       11.2208       2.84416       0.41817       0.00474615    -0.0042805    -0.000665318 
0.167         109.055       109.055       105.573       68.9072       32.4568       11.4745       2.91758       0.427891      0.00401033    -0.00445267   -0.000695015 
0.168         108.906       108.907       105.963       69.6246       33.0057       11.7312       2.99202       0.437644      0.00321495    -0.00462861   -0.000725511 
0.169         108.755       108.755       106.345       70.3398       33.558        11.9909       3.06745       0.447421      0.00235773    -0.00480824   -0.000756796 
0.17          108.601       108.602       106.718       71.0526       34.1136       12.2537       3.14388       0.457213      0.00143636    -0.00499147   -0.000788861 
0.171         108.446       108.447       107.082       71.7631       34.6723       12.5194       3.22127       0.467011      0.000448533   -0.00517818   -0.00082169  
0.172         108.288       108.289       107.437       72.4709       35.2342       12.7881       3.29963       0.476807      -0.000608109  -0.00536826   -0.000855268 
0.173         108.129       108.13        107.784       73.1761       35.799        13.0597       3.37892       0.486591      -0.00173592   -0.00556157   -0.000889576 
0.174         107.968       107.969       108.122       73.8784       36.3667       13.3342       3.45914       0.496354      -0.00293729   -0.00575797   -0.000924592 
0.175         107.805       107.807       108.451       74.5778       36.9373       13.6115       3.54027       0.506086      -0.0042146    -0.00595731   -0.000960292 