/*--------------------------------*- C++ -*----------------------------------*\
  =========                 |
  \\      /  F ield         | OpenFOAM: The Open Source CFD Toolbox
   \\    /   O peration     | Website:  https://openfoam.org
    \\  /    A nd           | Version:  8
     \\/     M anipulation  |
\*---------------------------------------------------------------------------*/
FoamFile
{
    version     2.0;
    format      ascii;
    class       volScalarField;
    location    "92";
    object      p;
}
// * * * * * * * * * * * * * * * * * * * * * * * * * * * * * * * * * * * * * //

dimensions      [0 2 -2 0 0 0 0];

internalField   nonuniform List<scalar> 
12504
(
-0.113061
-0.115793
-0.121517
-0.130185
-0.141451
-0.154863
-0.169906
-0.185996
-0.202481
-0.218676
-0.233905
-0.247541
-0.259042
-0.267967
-0.273995
-0.276919
-0.276646
-0.273178
-0.266627
-0.257185
-0.245118
-0.230758
-0.214494
-0.196749
-0.177969
-0.158602
-0.139089
-0.119846
-0.101258
-0.0836728
-0.0673749
-0.0525867
-0.0394721
-0.0280922
-0.0184528
-0.0104519
-0.00396269
0.00121965
0.00527139
0.00838973
0.0107271
0.0123548
0.0134033
0.0137252
0.0135802
0.0124642
0.0110968
0.00828138
0.00581645
0.001051
-0.111092
-0.113901
-0.119791
-0.128708
-0.140296
-0.154083
-0.16954
-0.18606
-0.202968
-0.219558
-0.235135
-0.24906
-0.260783
-0.269865
-0.275988
-0.278951
-0.278665
-0.275134
-0.268475
-0.258879
-0.246615
-0.232022
-0.215494
-0.197465
-0.17839
-0.158731
-0.13894
-0.119444
-0.100637
-0.0828714
-0.0664405
-0.0515681
-0.0384177
-0.0270464
-0.0174548
-0.00953187
-0.00314274
0.00192871
0.00586844
0.00888291
0.0111285
0.0126792
0.0136682
0.0139411
0.0137644
0.012612
0.0112295
0.00836641
0.00589601
0.0010401
-0.107092
-0.110061
-0.116288
-0.125714
-0.137955
-0.152511
-0.168812
-0.186209
-0.20398
-0.221373
-0.237656
-0.252162
-0.264332
-0.273726
-0.280036
-0.283073
-0.282758
-0.279099
-0.272218
-0.26231
-0.249647
-0.234579
-0.217513
-0.198904
-0.17923
-0.158977
-0.13862
-0.118609
-0.099359
-0.0812317
-0.064535
-0.0494972
-0.0362808
-0.0249351
-0.0154486
-0.00769298
-0.00151249
0.00332803
0.00703468
0.00983459
0.0118937
0.0132901
0.0141607
0.0143415
0.0141015
0.01289
0.0114684
0.00853858
0.00602568
0.00105103
-0.100947
-0.104164
-0.110912
-0.121123
-0.134376
-0.150122
-0.167732
-0.186489
-0.205596
-0.224228
-0.241592
-0.256983
-0.269822
-0.279679
-0.286261
-0.2894
-0.289033
-0.285172
-0.277951
-0.267563
-0.254285
-0.238482
-0.220586
-0.201081
-0.180482
-0.159311
-0.138083
-0.117283
-0.0973535
-0.0786788
-0.0615853
-0.0463082
-0.0330082
-0.0217226
-0.0124203
-0.00494371
0.000895016
0.00536568
0.00870364
0.0111667
0.0129379
0.0141025
0.0148013
0.0148541
0.014532
0.0132465
0.0117802
0.00876643
0.00619943
0.00106755
-0.092477
-0.0960395
-0.103509
-0.11481
-0.129473
-0.146878
-0.166318
-0.186974
-0.207944
-0.228295
-0.247147
-0.263737
-0.277471
-0.28793
-0.294859
-0.298117
-0.297658
-0.293516
-0.285827
-0.274775
-0.260646
-0.243823
-0.224772
-0.204019
-0.182132
-0.159687
-0.137255
-0.115366
-0.0945067
-0.0750924
-0.0574737
-0.041896
-0.0285164
-0.0173548
-0.0083508
-0.00130363
0.00402188
0.00794786
0.010754
0.0127433
0.0141188
0.0149757
0.0154584
0.015362
0.014957
0.0136021
0.0121057
0.00900878
0.00639579
0.00107822
-0.0814339
-0.0854498
-0.0938679
-0.106605
-0.123129
-0.142734
-0.164602
-0.187783
-0.211221
-0.233836
-0.254623
-0.272744
-0.28759
-0.298776
-0.306102
-0.30948
-0.308875
-0.304373
-0.296069
-0.284146
-0.268898
-0.25073
-0.230153
-0.207752
-0.184163
-0.160038
-0.136023
-0.112714
-0.0906522
-0.0702967
-0.0520299
-0.0361108
-0.0226912
-0.0117645
-0.00322772
0.00317934
0.00776394
0.0109199
0.0129908
0.0143459
0.0152108
0.0156903
0.01593
0.0156883
0.015229
0.0138399
0.0123578
0.0092063
0.00658118
0.00107079
-0.0674902
-0.0720838
-0.0817094
-0.0962813
-0.115193
-0.137633
-0.162643
-0.189093
-0.215718
-0.24123
-0.264451
-0.28445
-0.300611
-0.312619
-0.320366
-0.323842
-0.323057
-0.318078
-0.308986
-0.295954
-0.279277
-0.259387
-0.236848
-0.212322
-0.186543
-0.160262
-0.134225
-0.109119
-0.0855522
-0.064043
-0.0450164
-0.028749
-0.0153836
-0.00487624
0.0029379
0.00840479
0.0119331
0.0140262
0.0151077
0.0156353
0.0158664
0.0159146
0.0159166
0.0155753
0.0151362
0.0137941
0.0124151
0.00927685
0.00670955
0.00102913
-0.05023
-0.0555456
-0.0666774
-0.0835511
-0.105475
-0.131513
-0.160535
-0.191167
-0.221858
-0.251024
-0.277248
-0.299479
-0.317125
-0.329999
-0.338145
-0.341671
-0.340635
-0.335056
-0.324991
-0.310582
-0.292113
-0.270045
-0.245013
-0.217786
-0.189223
-0.160213
-0.13163
-0.104283
-0.0788708
-0.0559846
-0.0361082
-0.01954
-0.00640864
0.00338307
0.0100893
0.0141798
0.0162071
0.0168368
0.0166056
0.0160773
0.0155549
0.0151528
0.0149797
0.0146534
0.0143813
0.0132369
0.0121127
0.00911058
0.00671982
0.000932351
-0.0291351
-0.035341
-0.0483245
-0.0680529
-0.0937363
-0.124312
-0.158432
-0.194398
-0.230264
-0.264016
-0.293891
-0.318695
-0.337925
-0.351621
-0.360081
-0.363571
-0.362185
-0.355887
-0.344652
-0.328556
-0.307857
-0.283051
-0.254865
-0.224213
-0.192127
-0.159678
-0.127913
-0.0977904
-0.0701356
-0.0456418
-0.0248648
-0.00812969
0.00445624
0.0130657
0.0180828
0.0201607
0.0200614
0.0186567
0.0166831
0.0148396
0.0134733
0.0126715
0.0124839
0.0123996
0.0125525
0.0118593
0.0112316
0.00856392
0.00653307
0.000754131
-0.0035692
-0.0108612
-0.0260941
-0.0493362
-0.0796843
-0.115975
-0.15658
-0.19937
-0.241852
-0.281368
-0.315644
-0.343317
-0.364086
-0.378413
-0.387002
-0.390329
-0.388505
-0.381377
-0.368759
-0.35061
-0.327143
-0.29889
-0.266704
-0.231698
-0.195145
-0.158359
-0.122617
-0.0890659
-0.058707
-0.0323688
-0.0107024
0.00593509
0.0174687
0.024182
0.0266476
0.0257839
0.0226576
0.0184398
0.0141783
0.0106999
0.00844008
0.0074053
0.00752269
0.00808231
0.00908675
0.00924908
0.00948482
0.00745292
0.00604954
0.000462272
0.0272387
0.0186374
0.00070242
-0.0268397
-0.0629548
-0.106472
-0.155381
-0.206987
-0.257999
-0.304788
-0.344326
-0.375055
-0.397076
-0.411596
-0.419973
-0.422966
-0.420645
-0.412621
-0.398414
-0.377786
-0.350874
-0.318253
-0.280955
-0.240375
-0.198123
-0.155848
-0.115125
-0.0773448
-0.0437462
-0.0153315
0.00712186
0.0232139
0.0329233
0.0366963
0.0353804
0.0302612
0.02284
0.0147499
0.00746966
0.0019584
-0.00119729
-0.00213528
-0.00116062
0.000702803
0.00322976
0.00486576
0.00650434
0.00554656
0.00514586
1.8548e-05
0.0642108
0.0540564
0.0329136
0.000143601
-0.043083
-0.0958094
-0.155477
-0.218691
-0.280882
-0.336857
-0.382548
-0.416249
-0.438833
-0.452753
-0.460385
-0.462827
-0.460008
-0.451102
-0.435139
-0.411556
-0.380349
-0.342148
-0.298248
-0.250467
-0.200893
-0.151639
-0.104667
-0.0616706
-0.0242094
0.00648046
0.029482
0.0443582
0.0511858
0.0506385
0.0439336
0.0328457
0.0194789
0.00604642
-0.00537517
-0.0134655
-0.01749
-0.0178423
-0.0151904
-0.0110345
-0.00598895
-0.0019757
0.00183112
0.00256279
0.00367341
-0.00062065
0.10843
0.0964806
0.0715771
0.0325181
-0.0194623
-0.0840314
-0.157828
-0.236762
-0.314075
-0.38176
-0.434253
-0.470078
-0.491724
-0.503729
-0.509875
-0.511633
-0.508508
-0.498862
-0.481027
-0.453964
-0.417401
-0.37203
-0.319546
-0.262399
-0.203381
-0.145245
-0.0904726
-0.0411008
0.000960084
0.03409
0.0572499
0.0700634
0.0728057
0.0664414
0.0526306
0.0336919
0.0124262
-0.00819083
-0.0254055
-0.0371262
-0.0423545
-0.0417025
-0.0363933
-0.0286478
-0.0197285
-0.0120954
-0.00508037
-0.00182821
0.00145986
-0.00150221
0.16114
0.147203
0.11795
0.0714578
0.00867632
-0.0712405
-0.163864
-0.264591
-0.363161
-0.446398
-0.505918
-0.541229
-0.558567
-0.566277
-0.569828
-0.570914
-0.568269
-0.558469
-0.538901
-0.507838
-0.464597
-0.409986
-0.346334
-0.277036
-0.205894
-0.136549
-0.0722036
-0.0153413
0.0320126
0.0677288
0.090618
0.100587
0.0983315
0.0851419
0.0630538
0.0348148
0.00387315
-0.0259307
-0.0510554
-0.0682012
-0.076093
-0.0748203
-0.0662155
-0.0535592
-0.0391735
-0.0263693
-0.0148238
-0.00798523
-0.00168313
-0.00267204
0.223723
0.207738
0.173562
0.118515
0.042242
-0.0577438
-0.17619
-0.307876
-0.436135
-0.540682
-0.607264
-0.636474
-0.642569
-0.641338
-0.640474
-0.640606
-0.639744
-0.631363
-0.611247
-0.576282
-0.525124
-0.458872
-0.380916
-0.296108
-0.209712
-0.126568
-0.0507815
0.014483
0.0672691
0.105089
0.127439
0.134169
0.126731
0.106827
0.0766983
0.0391741
-0.00199766
-0.0423514
-0.077251
-0.102485
-0.115787
-0.115818
-0.104545
-0.0863733
-0.0651411
-0.0455312
-0.027943
-0.0162492
-0.00594027
-0.00416745
0.297656
0.279806
0.240372
0.175837
0.0824261
-0.0442742
-0.200061
-0.378833
-0.545298
-0.675411
-0.746625
-0.760404
-0.744392
-0.726761
-0.718551
-0.718476
-0.719468
-0.715029
-0.697222
-0.660049
-0.601019
-0.521528
-0.426454
-0.322839
-0.218149
-0.118921
-0.0302672
0.0438811
0.101064
0.139661
0.161104
0.164554
0.152462
0.127155
0.0909333
0.0462735
-0.00338078
-0.0536461
-0.0992209
-0.135179
-0.156056
-0.160409
-0.148764
-0.125963
-0.0974441
-0.0698095
-0.0447455
-0.0268569
-0.0114572
-0.00600691
0.384387
0.365225
0.321034
0.246658
0.131658
-0.0316843
-0.24434
-0.498791
-0.71627
-0.861667
-0.920591
-0.902727
-0.852848
-0.810603
-0.789908
-0.78685
-0.793053
-0.797249
-0.786707
-0.751867
-0.688242
-0.597077
-0.484885
-0.361452
-0.237174
-0.121166
-0.0199819
0.0619756
0.122404
0.16201
0.179393
0.179213
0.16396
0.13615
0.0977009
0.0501975
-0.00385892
-0.0608385
-0.115301
-0.161155
-0.191918
-0.203485
-0.19456
-0.169412
-0.134508
-0.0985587
-0.0650593
-0.039813
-0.0182834
-0.0081779
0.484975
0.465659
0.419058
0.336024
0.196151
-0.0175579
-0.32331
-0.682398
-0.896434
-1.04012
-1.0675
-1.00876
-0.926785
-0.860329
-0.828068
-0.824522
-0.83938
-0.855779
-0.857629
-0.831969
-0.771274
-0.675472
-0.551964
-0.413201
-0.272827
-0.143162
-0.032574
0.0538898
0.114402
0.15096
0.166349
0.164381
0.149271
0.123309
0.0877062
0.0429519
-0.00982331
-0.0683648
-0.127744
-0.181439
-0.221571
-0.24148
-0.237761
-0.213008
-0.173683
-0.130215
-0.0880973
-0.054782
-0.0263126
-0.0106277
0.599353
0.5821
0.53818
0.450892
0.289166
0.0117165
-0.350124
-0.782754
-1.11717
-1.23659
-1.22565
-1.08849
-0.95683
-0.87869
-0.830356
-0.827119
-0.850689
-0.879092
-0.894751
-0.882539
-0.832232
-0.741527
-0.617286
-0.473291
-0.325341
-0.189962
-0.0768279
0.00892866
0.066146
0.0995953
0.114114
0.113641
0.103005
0.0837642
0.0561693
0.0196756
-0.0259822
-0.0802485
-0.139407
-0.19722
-0.24444
-0.272489
-0.275286
-0.253258
-0.211895
-0.162567
-0.112508
-0.0710588
-0.0352475
-0.0132612
0.725388
0.714003
0.680136
0.599765
0.42955
0.122246
-0.344166
-0.837627
-1.21021
-0.972639
-0.87894
-0.83003
-0.821195
-0.84609
-0.878342
-0.902812
-0.902201
-0.864506
-0.78547
-0.670605
-0.533639
-0.389079
-0.259364
-0.152524
-0.0730378
-0.0229352
0.00814005
0.023563
0.030017
0.0291949
0.0215261
0.00607722
-0.01837
-0.0528356
-0.0980783
-0.152096
-0.20975
-0.261055
-0.295767
-0.305166
-0.287369
-0.246218
-0.193152
-0.136566
-0.0876282
-0.0446061
-0.0159463
0.858277
0.857669
0.84209
0.791074
0.626007
0.286298
-0.233984
-0.873921
-0.826327
-0.807674
-0.826409
-0.856626
-0.883885
-0.890571
-0.864599
-0.800723
-0.703235
-0.586179
-0.453115
-0.342568
-0.252008
-0.186264
-0.142919
-0.113319
-0.0924578
-0.0743456
-0.0602904
-0.0524052
-0.0531815
-0.0641613
-0.0861418
-0.120142
-0.165704
-0.219419
-0.271578
-0.310856
-0.326154
-0.313314
-0.274203
-0.219616
-0.158423
-0.10329
-0.0537653
-0.018522
0.990537
1.00404
1.01914
1.01349
0.877247
0.543577
-0.824522
-0.78579
-0.788574
-0.814097
-0.839419
-0.849654
-0.833684
-0.786382
-0.710741
-0.617386
-0.518068
-0.432359
-0.36535
-0.317156
-0.281731
-0.249925
-0.21999
-0.186142
-0.153398
-0.127123
-0.111691
-0.109052
-0.11918
-0.142163
-0.178167
-0.225496
-0.275739
-0.317395
-0.337447
-0.329715
-0.293999
-0.239965
-0.176352
-0.116811
-0.0620324
-0.0208111
1.11066
1.14072
1.19175
1.24279
1.15739
0.894897
-0.747027
-0.73521
-0.754713
-0.775769
-0.787121
-0.779613
-0.749298
-0.698844
-0.636829
-0.574075
-0.52174
-0.482669
-0.453225
-0.425706
-0.39348
-0.349038
-0.297048
-0.24365
-0.19718
-0.164207
-0.147572
-0.146586
-0.159737
-0.186638
-0.22661
-0.273022
-0.315088
-0.338609
-0.335776
-0.304389
-0.252721
-0.188932
-0.12708
-0.0687288
-0.0226346
1.20613
1.25101
1.33648
1.44435
1.4312
1.29105
-0.705721
-0.671738
-0.686162
-0.703002
-0.714255
-0.714131
-0.700726
-0.676854
-0.648905
-0.623905
-0.606482
-0.595008
-0.582937
-0.561981
-0.525837
-0.470549
-0.401073
-0.327106
-0.260133
-0.209047
-0.177931
-0.166009
-0.170252
-0.188954
-0.221573
-0.263098
-0.303966
-0.329684
-0.33131
-0.304824
-0.257016
-0.195187
-0.133227
-0.0732707
-0.0238293
1.26535
1.31946
1.4269
1.57048
1.63658
-0.627721
-0.608589
-0.619094
-0.631635
-0.642239
-0.648788
-0.651661
-0.653734
-0.658535
-0.668432
-0.682161
-0.694246
-0.696557
-0.681183
-0.641711
-0.576291
-0.490874
-0.398046
-0.312299
-0.244495
-0.19963
-0.177159
-0.173125
-0.184395
-0.210018
-0.246178
-0.284624
-0.311343
-0.316802
-0.295451
-0.252644
-0.194661
-0.134716
-0.075236
-0.0242649
1.28127
1.33644
1.4464
1.59493
1.70494
-0.557533
-0.554017
-0.560693
-0.569045
-0.578979
-0.591617
-0.609244
-0.63455
-0.667326
-0.705606
-0.743555
-0.773118
-0.785803
-0.774035
-0.731676
-0.657533
-0.558682
-0.450217
-0.34931
-0.268263
-0.212236
-0.180629
-0.169145
-0.173634
-0.192622
-0.223182
-0.25828
-0.284904
-0.293415
-0.27711
-0.240061
-0.187448
-0.131393
-0.0744094
-0.0238605
1.2531
1.30092
1.39348
1.51476
1.62414
-0.513652
-0.510544
-0.51322
-0.517894
-0.527479
-0.545492
-0.575227
-0.619661
-0.673299
-0.731491
-0.785683
-0.826224
-0.845023
-0.834843
-0.789849
-0.708842
-0.599924
-0.480196
-0.368867
-0.279157
-0.21578
-0.1775
-0.159864
-0.158292
-0.170951
-0.195715
-0.226706
-0.252218
-0.262899
-0.251258
-0.220328
-0.174158
-0.123488
-0.0708015
-0.022592
1.18682
1.22122
1.28274
1.35313
1.4187
1.36882
-0.482717
-0.476188
-0.474626
-0.476477
-0.486326
-0.508869
-0.546689
-0.606713
-0.672848
-0.742799
-0.805657
-0.851666
-0.872822
-0.862601
-0.815004
-0.728939
-0.613555
-0.487516
-0.371103
-0.277648
-0.211061
-0.169121
-0.147083
-0.14037
-0.147056
-0.165844
-0.192078
-0.215501
-0.227178
-0.219816
-0.194998
-0.155838
-0.111586
-0.0646413
-0.0204948
1.09301
1.11167
1.1389
1.15518
1.17106
1.02972
-0.460258
-0.446412
-0.440905
-0.441147
-0.452108
-0.478866
-0.524251
-0.588672
-0.662866
-0.738259
-0.804141
-0.851402
-0.872018
-0.860087
-0.809498
-0.719641
-0.6011
-0.47379
-0.357867
-0.265567
-0.199632
-0.156959
-0.132474
-0.121755
-0.122996
-0.135732
-0.156689
-0.177222
-0.189098
-0.185078
-0.165938
-0.133844
-0.0965397
-0.0563432
-0.0176597
0.983641
0.988288
0.985162
0.955853
0.9268
0.636589
0.314175
-0.449823
-0.442977
-0.418952
-0.409625
-0.409348
-0.422286
-0.452476
-0.501852
-0.568513
-0.644585
-0.720182
-0.784857
-0.829549
-0.847726
-0.832168
-0.77753
-0.684703
-0.566208
-0.442565
-0.332428
-0.245713
-0.183621
-0.142555
-0.117402
-0.103917
-0.100466
-0.107301
-0.122617
-0.139583
-0.150792
-0.149239
-0.135082
-0.109675
-0.0793765
-0.0464573
-0.0142234
0.870022
0.863574
0.841169
0.78045
0.640708
0.434071
-0.036116
-0.426395
-0.488922
-0.4531
-0.417344
-0.394921
-0.382048
-0.38186
-0.397005
-0.429898
-0.481059
-0.547388
-0.621424
-0.693481
-0.753751
-0.793426
-0.805498
-0.783505
-0.723392
-0.628734
-0.513984
-0.398864
-0.299009
-0.22127
-0.165255
-0.127327
-0.102832
-0.0877759
-0.0805877
-0.0819939
-0.0915416
-0.104394
-0.114156
-0.11423
-0.104206
-0.0847937
-0.0611747
-0.0356118
-0.0103573
0.759784
0.746895
0.712922
0.642128
0.505342
0.262494
-0.0645131
-0.539693
-0.784124
-0.69654
-0.563578
-0.497216
-0.441029
-0.406529
-0.378077
-0.362731
-0.362891
-0.379721
-0.414082
-0.465062
-0.528684
-0.597611
-0.662564
-0.714938
-0.745588
-0.747937
-0.716789
-0.650876
-0.55709
-0.450662
-0.348532
-0.26214
-0.195294
-0.146481
-0.112429
-0.0893675
-0.0737406
-0.0638839
-0.0606664
-0.0646498
-0.073045
-0.0806627
-0.0815318
-0.0747603
-0.0604988
-0.0429601
-0.0244544
-0.00625511
0.658108
0.642486
0.604203
0.534487
0.41426
0.226444
-0.0464782
-0.368138
-0.653839
-0.791773
-0.758791
-0.648667
-0.531673
-0.472838
-0.435165
-0.401808
-0.372068
-0.355544
-0.356019
-0.373503
-0.407358
-0.455515
-0.513372
-0.573644
-0.628013
-0.667166
-0.684594
-0.674374
-0.633646
-0.564739
-0.476793
-0.383561
-0.297576
-0.225957
-0.170295
-0.128745
-0.0986819
-0.0773608
-0.0618771
-0.0503979
-0.0436197
-0.0426107
-0.0464628
-0.0513849
-0.0522657
-0.047879
-0.0378646
-0.0256353
-0.0136044
-0.0021254
0.567583
0.551472
0.514026
0.450272
0.35032
0.206467
0.0173508
-0.209485
-0.400834
-0.522717
-0.563231
-0.534782
-0.48165
-0.438439
-0.408978
-0.384339
-0.362856
-0.351298
-0.354046
-0.371649
-0.402837
-0.444964
-0.493004
-0.540399
-0.579791
-0.603872
-0.60674
-0.585017
-0.538942
-0.473275
-0.39692
-0.320192
-0.251059
-0.193431
-0.147864
-0.112866
-0.0865279
-0.0669761
-0.0520636
-0.039859
-0.0306896
-0.0256061
-0.0251515
-0.0270211
-0.0272382
-0.024427
-0.017775
-0.00998005
-0.00364523
0.00180857
0.488727
0.473363
0.439306
0.383198
0.301299
0.18934
0.0508234
-0.10836
-0.255412
-0.366894
-0.422608
-0.426061
-0.404842
-0.383641
-0.368594
-0.35618
-0.345348
-0.340513
-0.345765
-0.362082
-0.388049
-0.421252
-0.456733
-0.489716
-0.513984
-0.52393
-0.515831
-0.488661
-0.444442
-0.388119
-0.326452
-0.266112
-0.211838
-0.165888
-0.128622
-0.099125
-0.0760916
-0.0582272
-0.0440909
-0.0318257
-0.0213708
-0.0133658
-0.00921066
-0.00790669
-0.00690857
-0.00495429
-0.00087763
0.00337788
0.00489301
0.00531215
0.420895
0.406917
0.377001
0.328621
0.261215
0.172438
0.0668142
-0.0506234
-0.164278
-0.254965
-0.309886
-0.33069
-0.331717
-0.327382
-0.323664
-0.320547
-0.317981
-0.318539
-0.325244
-0.338983
-0.358713
-0.382361
-0.406827
-0.427271
-0.439532
-0.440178
-0.427233
-0.400814
-0.363135
-0.317982
-0.269835
-0.222885
-0.180165
-0.143241
-0.112506
-0.08748
-0.0673008
-0.0510123
-0.0377212
-0.0258039
-0.0149595
-0.00523034
0.00168442
0.00594898
0.00855537
0.0103378
0.0125573
0.0141137
0.0116449
0.00818826
0.362988
0.350657
0.324774
0.283539
0.22763
0.156264
0.0732966
-0.0168854
-0.104739
-0.177976
-0.229068
-0.25814
-0.271717
-0.277884
-0.281629
-0.284531
-0.287169
-0.291083
-0.298189
-0.30918
-0.323687
-0.339961
-0.355356
-0.3666
-0.371213
-0.367165
-0.353421
-0.330362
-0.299654
-0.2639
-0.22611
-0.189105
-0.154972
-0.124878
-0.0992137
-0.077766
-0.0599957
-0.0451547
-0.0327147
-0.0213414
-0.0107167
-0.000297218
0.00825492
0.0148747
0.0191999
0.021472
0.022612
0.0222914
0.0165908
0.0103852
0.313816
0.303143
0.2809
0.245964
0.199323
0.141278
0.0747782
0.00363684
-0.0659195
-0.126492
-0.173103
-0.204784
-0.224389
-0.236598
-0.245181
-0.252
-0.257878
-0.263822
-0.270971
-0.279899
-0.290434
-0.301169
-0.310152
-0.315567
-0.315876
-0.309788
-0.296689
-0.276926
-0.251733
-0.222973
-0.192736
-0.16296
-0.135124
-0.110133
-0.0883632
-0.0697514
-0.0539801
-0.0404476
-0.028841
-0.0180779
-0.00799547
0.00238536
0.0115239
0.0196039
0.0253462
0.0285506
0.0294282
0.0280986
0.0200245
0.0120155
0.272229
0.263081
0.244029
0.21447
0.175377
0.127605
0.0734112
0.0158999
-0.0407578
-0.0918247
-0.133698
-0.165109
-0.187281
-0.202937
-0.21468
-0.224111
-0.232061
-0.239248
-0.246377
-0.25387
-0.261532
-0.268481
-0.273536
-0.275536
-0.273417
-0.266374
-0.254103
-0.236954
-0.215864
-0.192167
-0.167328
-0.142737
-0.119491
-0.0983134
-0.0795421
-0.0631862
-0.0490652
-0.0366961
-0.0258888
-0.0157438
-0.00630215
0.00362277
0.0126245
0.0212543
0.0277731
0.0319105
0.0330637
0.0315079
0.022175
0.0131175
0.237175
0.229358
0.213051
0.187986
0.155037
0.115244
0.0703759
0.0228623
-0.0243313
-0.0679463
-0.105341
-0.135323
-0.158324
-0.175853
-0.189581
-0.200719
-0.209997
-0.217959
-0.225072
-0.231618
-0.237455
-0.242065
-0.244725
-0.244618
-0.241056
-0.233595
-0.222133
-0.206998
-0.188896
-0.168814
-0.147835
-0.127001
-0.107145
-0.0888464
-0.0723971
-0.0578424
-0.0450791
-0.033728
-0.0236645
-0.0141306
-0.00531603
0.00398962
0.01248
0.0210284
0.0276496
0.0323842
0.0338205
0.0324978
0.0229741
0.0134953
0.207725
0.201036
0.187054
0.165694
0.13773
0.104183
0.0664824
0.0265169
-0.0134971
-0.0512179
-0.0846949
-0.112885
-0.135788
-0.154163
-0.169026
-0.181227
-0.19135
-0.199811
-0.206936
-0.212904
-0.217637
-0.220806
-0.221959
-0.220563
-0.216202
-0.20865
-0.197918
-0.184306
-0.168387
-0.150928
-0.132762
-0.114693
-0.0973679
-0.0812611
-0.0666213
-0.0535118
-0.0418675
-0.0313987
-0.0220076
-0.013066
-0.00481462
0.00384367
0.0117112
0.0198566
0.0261402
0.0311333
0.0325295
0.0315905
0.0224309
0.0130804
0.183085
0.177334
0.165291
0.146963
0.123027
0.0944094
0.062282
0.0281302
-0.00634596
-0.0394042
-0.0695631
-0.0959117
-0.118217
-0.136793
-0.152211
-0.165032
-0.175682
-0.18447
-0.191621
-0.197248
-0.201305
-0.203592
-0.203826
-0.201681
-0.196918
-0.189442
-0.179338
-0.1669
-0.152612
-0.137096
-0.121015
-0.105009
-0.0896004
-0.0751814
-0.0619635
-0.0500189
-0.0392987
-0.0295885
-0.020791
-0.0124084
-0.00464865
0.00339528
0.010676
0.0183059
0.0240805
0.0291395
0.0302304
0.0297497
0.0210113
0.0122585
0.162589
0.157607
0.147162
0.131296
0.110602
0.0858873
0.0581238
0.0284942
-0.00167069
-0.0310269
-0.0584066
-0.0830097
-0.104489
-0.122892
-0.138499
-0.151641
-0.162604
-0.171598
-0.178772
-0.184198
-0.187849
-0.189607
-0.1893
-0.186739
-0.181802
-0.174487
-0.164929
-0.153416
-0.140372
-0.126321
-0.111809
-0.0973668
-0.0834243
-0.0703156
-0.0582213
-0.0472174
-0.0372611
-0.0281968
-0.0199172
-0.0120444
-0.00471219
0.00277838
0.00956219
0.0166687
0.0219428
0.0269589
0.0276926
0.0277273
0.0193232
0.0114941
0.145688
0.141329
0.132183
0.1183
0.100197
0.0785692
0.0542268
0.0281273
0.00133623
-0.0250737
-0.0501499
-0.073184
-0.0937776
-0.11182
-0.127393
-0.14066
-0.151785
-0.160897
-0.168088
-0.173396
-0.176809
-0.178258
-0.177643
-0.174867
-0.169893
-0.162778
-0.153691
-0.142915
-0.130833
-0.117899
-0.104583
-0.091336
-0.078524
-0.0664372
-0.055233
-0.0449876
-0.0356613
-0.0271408
-0.0193088
-0.0118838
-0.0049248
0.00208466
0.00845894
0.0150837
0.0199436
0.0248279
0.0253059
0.0258007
0.0177044
0.0109039
0.131933
0.128072
0.119966
0.107661
0.0916086
0.0724047
0.0507322
0.0273815
0.00322658
-0.0208495
-0.0440453
-0.0657261
-0.0854735
-0.10308
-0.118498
-0.131768
-0.142956
-0.152126
-0.159324
-0.164564
-0.167839
-0.169113
-0.168333
-0.165465
-0.160528
-0.153623
-0.144935
-0.134746
-0.12341
-0.111335
-0.0989341
-0.0866028
-0.0746631
-0.0633724
-0.0528709
-0.0432331
-0.0344221
-0.0263521
-0.0189021
-0.0118575
-0.00522367
0.00138163
0.00741694
0.0136228
0.0181637
0.022848
0.0232099
0.0239955
0.0162592
0.010374
0.120966
0.117495
0.110204
0.0991327
0.0846745
0.0673464
0.0477313
0.0264968
0.00437852
-0.0178748
-0.0395692
-0.0601264
-0.0791228
-0.0962934
-0.111504
-0.124708
-0.1359
-0.14509
-0.152286
-0.157488
-0.160687
-0.161866
-0.161006
-0.158116
-0.153251
-0.14654
-0.138183
-0.128457
-0.117697
-0.106277
-0.0945715
-0.0829378
-0.0716658
-0.0609889
-0.0510355
-0.041877
-0.0334801
-0.0257753
-0.0186437
-0.0119121
-0.00555617
0.000720857
0.00647547
0.0123325
0.0166326
0.0210856
0.0214358
0.0223277
0.0150229
0.0098196
0.112506
0.109331
0.10266
0.0925226
0.0792686
0.0633526
0.0452826
0.0256366
0.0050519
-0.0158172
-0.0363522
-0.0560171
-0.0743898
-0.0911711
-0.106171
-0.119283
-0.130447
-0.139634
-0.146825
-0.152004
-0.155162
-0.156294
-0.155404
-0.152525
-0.14774
-0.141196
-0.133102
-0.123732
-0.113406
-0.102475
-0.0912883
-0.0801745
-0.0694022
-0.0591873
-0.0496505
-0.0408594
-0.0327848
-0.0253658
-0.0184896
-0.0120054
-0.00587761
0.00014236
0.00567046
0.0112496
0.01537
0.0195989
0.0199896
0.0208648
0.0140165
0.00925667
0.106338
0.103377
0.0971514
0.0876853
0.0752947
0.0603888
0.0434222
0.0249107
0.00542434
-0.014447
-0.0341363
-0.0531373
-0.0710318
-0.0875008
-0.10232
-0.11534
-0.126467
-0.135642
-0.142825
-0.147991
-0.151128
-0.15224
-0.151342
-0.148487
-0.143775
-0.137362
-0.129464
-0.120352
-0.110338
-0.0997564
-0.0889383
-0.0781945
-0.0677786
-0.0578948
-0.0486584
-0.0401343
-0.0322966
-0.0250887
-0.0184046
-0.0121047
-0.00615151
-0.000321717
0.0050345
0.0104055
0.0143969
0.0184379
0.0188822
0.0196904
0.0132508
0.00875346
0.102309
0.0994844
0.0935481
0.0845163
0.0726828
0.0584277
0.0421717
0.024391
0.00561339
-0.0136112
-0.0327477
-0.051309
-0.0688806
-0.0851327
-0.09982
-0.11277
-0.123864
-0.133026
-0.140203
-0.145362
-0.14849
-0.149593
-0.148698
-0.145865
-0.141206
-0.134883
-0.127116
-0.118173
-0.10836
-0.0980032
-0.0874222
-0.0769162
-0.06673
-0.05706
-0.0480186
-0.0396686
-0.0319867
-0.0249182
-0.0183625
-0.012185
-0.00634992
-0.000646149
0.00459445
0.00982637
0.0137342
0.0176407
0.0181308
0.0188688
0.0127367
0.00836959
0.100322
0.0975621
0.0917675
0.0829495
0.0713889
0.0574522
0.0415439
0.024121
0.00569081
-0.0132159
-0.0320794
-0.050422
-0.0678312
-0.0839727
-0.0985914
-0.111503
-0.122579
-0.131733
-0.138906
-0.144062
-0.147186
-0.148287
-0.147395
-0.144575
-0.139944
-0.133667
-0.125964
-0.117105
-0.107391
-0.0971444
-0.0866795
-0.0762898
-0.066216
-0.0566508
-0.0477054
-0.0394411
-0.0318365
-0.0248371
-0.0183455
-0.0122293
-0.00645304
-0.00081346
0.00437192
0.0095289
0.0134046
0.0172262
0.0177648
0.0184234
0.0125041
0.00811367
-0.113062
-0.11579
-0.121515
-0.130184
-0.141451
-0.154863
-0.169906
-0.185997
-0.202482
-0.218677
-0.233906
-0.247543
-0.259043
-0.267968
-0.273996
-0.27692
-0.276646
-0.273179
-0.266628
-0.257186
-0.245118
-0.230758
-0.214494
-0.196749
-0.177969
-0.158602
-0.139089
-0.119845
-0.101258
-0.083672
-0.0673742
-0.0525861
-0.0394718
-0.0280919
-0.018453
-0.0104519
-0.00396322
0.00121948
0.00527067
0.00838944
0.0107267
0.0123543
0.0134036
0.0137237
0.0135826
0.0124596
0.0111045
0.00826935
0.00583647
0.0010207
-0.111093
-0.113897
-0.119788
-0.128708
-0.140295
-0.154083
-0.16954
-0.186061
-0.202969
-0.219559
-0.235136
-0.249061
-0.260784
-0.269866
-0.275989
-0.278952
-0.278666
-0.275135
-0.268475
-0.258879
-0.246616
-0.232022
-0.215494
-0.197464
-0.17839
-0.158731
-0.13894
-0.119443
-0.100636
-0.0828706
-0.0664399
-0.0515675
-0.0384174
-0.0270461
-0.0174549
-0.00953191
-0.00314328
0.00192859
0.00586777
0.0088826
0.011128
0.0126787
0.0136685
0.0139395
0.0137668
0.0126075
0.011237
0.00835452
0.00591578
0.00100985
-0.107092
-0.110057
-0.116286
-0.125713
-0.137955
-0.152511
-0.168812
-0.18621
-0.203982
-0.221375
-0.237657
-0.252164
-0.264333
-0.273727
-0.280037
-0.283074
-0.282759
-0.279099
-0.272219
-0.262311
-0.249648
-0.234579
-0.217513
-0.198903
-0.17923
-0.158976
-0.138619
-0.118609
-0.0993583
-0.0812308
-0.0645343
-0.0494966
-0.0362806
-0.0249349
-0.0154489
-0.00769307
-0.00151307
0.00332769
0.0070339
0.00983414
0.0118931
0.0132895
0.0141609
0.0143399
0.0141039
0.0128854
0.0114761
0.00852638
0.00604579
0.00102006
-0.100947
-0.10416
-0.110909
-0.121122
-0.134376
-0.150121
-0.167732
-0.18649
-0.205597
-0.22423
-0.241594
-0.256985
-0.269824
-0.27968
-0.286262
-0.289401
-0.289034
-0.285173
-0.277952
-0.267563
-0.254286
-0.238482
-0.220586
-0.20108
-0.180481
-0.15931
-0.138082
-0.117282
-0.0973526
-0.0786778
-0.0615845
-0.0463075
-0.033008
-0.0217225
-0.0124207
-0.00494392
0.000894361
0.00536522
0.00870261
0.011166
0.012937
0.0141016
0.0148014
0.0148523
0.0145345
0.0132417
0.0117883
0.0087537
0.00622044
0.00103535
-0.0924776
-0.0960354
-0.103506
-0.11481
-0.129473
-0.146878
-0.166318
-0.186976
-0.207946
-0.228297
-0.247149
-0.26374
-0.277473
-0.287932
-0.29486
-0.298117
-0.297658
-0.293518
-0.285828
-0.274776
-0.260646
-0.243823
-0.224772
-0.204019
-0.182132
-0.159687
-0.137254
-0.115365
-0.0945056
-0.0750913
-0.0574729
-0.0418953
-0.0285163
-0.0173548
-0.00835149
-0.00130419
0.00402089
0.00794715
0.0107528
0.0127422
0.0141176
0.0149745
0.0154584
0.01536
0.0149597
0.0135971
0.0121142
0.00899538
0.00641803
0.00104443
-0.0814346
-0.0854452
-0.0938646
-0.106604
-0.123129
-0.142734
-0.164603
-0.187785
-0.211224
-0.233839
-0.254626
-0.272746
-0.287591
-0.298777
-0.306103
-0.30948
-0.308876
-0.304375
-0.29607
-0.284148
-0.268898
-0.250731
-0.230153
-0.207752
-0.184162
-0.160037
-0.136021
-0.112713
-0.0906509
-0.0702953
-0.0520289
-0.03611
-0.022691
-0.0117647
-0.00322873
0.00317829
0.00776225
0.0109184
0.0129894
0.0143444
0.0152092
0.0156888
0.0159299
0.0156861
0.0152319
0.0138346
0.0123669
0.00919209
0.00660495
0.00103496
-0.0674911
-0.0720786
-0.0817055
-0.0962802
-0.115193
-0.137632
-0.162644
-0.189095
-0.215722
-0.241235
-0.264456
-0.284453
-0.300613
-0.31262
-0.320367
-0.323842
-0.323059
-0.31808
-0.308988
-0.295956
-0.279279
-0.259388
-0.236848
-0.212322
-0.186542
-0.160261
-0.134223
-0.109117
-0.0855506
-0.0640412
-0.0450153
-0.0287482
-0.0153836
-0.00487671
0.0029365
0.00840331
0.0119312
0.0140244
0.0151059
0.0156331
0.0158644
0.0159127
0.0159164
0.0155728
0.0151393
0.0137884
0.0124249
0.00926165
0.00673518
0.000990793
-0.050231
-0.0555397
-0.0666728
-0.0835497
-0.105474
-0.131513
-0.160537
-0.191171
-0.221864
-0.251031
-0.277254
-0.299483
-0.317127
-0.329999
-0.338145
-0.341672
-0.340637
-0.335058
-0.324993
-0.310585
-0.292115
-0.270046
-0.245013
-0.217785
-0.189221
-0.160211
-0.131628
-0.104281
-0.0788687
-0.0559824
-0.0361068
-0.0195392
-0.00640874
0.00338224
0.0100875
0.014178
0.0162052
0.0168351
0.0166035
0.0160742
0.0155524
0.0151505
0.0149795
0.0146507
0.0143847
0.0132305
0.0121232
0.00909418
0.00674766
0.000891024
-0.0291364
-0.0353344
-0.0483188
-0.0680511
-0.0937349
-0.124312
-0.158435
-0.194404
-0.230273
-0.264025
-0.293899
-0.3187
-0.337926
-0.351621
-0.360081
-0.363572
-0.362187
-0.35589
-0.344656
-0.328559
-0.307859
-0.283052
-0.254865
-0.224212
-0.192125
-0.159676
-0.127911
-0.0977882
-0.0701331
-0.0456392
-0.0248631
-0.00812878
0.00445611
0.0130647
0.0180809
0.0201587
0.0200585
0.0186539
0.0166811
0.0148363
0.0134705
0.0126689
0.0124838
0.0123968
0.0125563
0.0118524
0.0112429
0.00854619
0.00656348
0.000709343
-0.00357093
-0.0108539
-0.0260869
-0.0493338
-0.0796817
-0.115975
-0.156584
-0.19938
-0.241866
-0.281383
-0.315654
-0.343321
-0.364085
-0.37841
-0.386999
-0.39033
-0.388508
-0.381382
-0.368765
-0.350615
-0.327147
-0.298892
-0.266705
-0.231698
-0.195143
-0.158357
-0.122615
-0.0890635
-0.0587041
-0.0323659
-0.0107003
0.00593678
0.0174694
0.0241823
0.0266467
0.0257824
0.0226546
0.0184369
0.0141761
0.010697
0.00843785
0.00740289
0.00752309
0.00807942
0.00909113
0.00924163
0.00949729
0.00743375
0.00608293