0 	-1.7022e-07
1.57135 	-6.85305e-06
3.1427 	-4.20046e-05
4.71405 	-0.000140298
6.28539 	-0.000374071
7.85674 	-0.00102386
9.42809 	-0.00354514
10.9994 	-0.00452867
12.5708 	-0.00404484
14.1421 	0.250884
