/*--------------------------------*- C++ -*----------------------------------*\
  =========                 |
  \\      /  F ield         | OpenFOAM: The Open Source CFD Toolbox
   \\    /   O peration     | Website:  https://openfoam.org
    \\  /    A nd           | Version:  8
     \\/     M anipulation  |
\*---------------------------------------------------------------------------*/
FoamFile
{
    version     2.0;
    format      ascii;
    class       volScalarField;
    location    "0.33";
    object      p;
}
// * * * * * * * * * * * * * * * * * * * * * * * * * * * * * * * * * * * * * //

dimensions      [0 2 -2 0 0 0 0];

internalField   nonuniform List<scalar> 
400
(
4.07077e-06
-0.00582234
-0.0129592
-0.0184108
-0.0204279
-0.0182341
-0.0117698
-0.00148012
0.0118402
0.027151
0.0432452
0.0588229
0.0725778
0.0833072
0.0900514
0.0922658
0.0900252
0.0842441
0.0768817
0.0710688
0.00578228
-0.00021621
-0.00580139
-0.00953951
-0.0105956
-0.00842939
-0.0029668
0.00547692
0.0163052
0.0287134
0.0417508
0.0543864
0.0655864
0.0744096
0.08012
0.0823158
0.0810777
0.0770559
0.0712758
0.0653201
0.0133356
0.00503485
-0.000993537
-0.00442088
-0.00527042
-0.00326135
0.00160482
0.00902984
0.018504
0.0293509
0.0407667
0.0518705
0.0617691
0.0696368
0.0748075
0.0768789
0.0758428
0.0720876
0.0658078
0.0575385
0.020139
0.00869649
0.00122707
-0.00266685
-0.00372011
-0.00188316
0.00273341
0.00978657
0.0187822
0.0290967
0.0399934
0.0506553
0.060234
0.0679169
0.0730042
0.0750028
0.0737675
0.0694584
0.0616059
0.0501064
0.0245011
0.0097733
0.000590688
-0.00398552
-0.00530048
-0.00350538
0.00117677
0.00833655
0.0174639
0.0279509
0.0390867
0.0500716
0.0600504
0.0681665
0.0736278
0.0757994
0.0743711
0.0692925
0.0595291
0.0445417
0.0251769
0.0071502
-0.00380112
-0.00905582
-0.0105104
-0.00849795
-0.00335463
0.00443165
0.0143155
0.0256811
0.0378158
0.0499053
0.0610501
0.0703051
0.0767366
0.079519
0.0781414
0.0723366
0.0605431
0.041895
0.0210928
-0.000261889
-0.0129334
-0.0187077
-0.0200278
-0.0174116
-0.0113158
-0.00231703
0.00899312
0.0219788
0.0359122
0.0499469
0.0631146
0.0743477
0.0825243
0.086572
0.0857235
0.0794504
0.0656244
0.0430768
0.011143
-0.0136171
-0.0278734
-0.0338522
-0.0346011
-0.0308547
-0.0232098
-0.0123419
0.00110819
0.0164872
0.0330558
0.0499367
0.0660864
0.0802929
0.0912037
0.097433
0.0978734
0.0916395
0.0759003
0.0491215
-0.00596578
-0.0342645
-0.0498677
-0.0555459
-0.0550872
-0.0495113
-0.0395899
-0.0261094
-0.00975307
0.00882708
0.028905
0.0495973
0.0698012
0.0881581
0.103051
0.112705
0.115554
0.110195
0.0928382
0.061416
-0.0318543
-0.063873
-0.0804137
-0.0850038
-0.0824165
-0.0740745
-0.0609767
-0.0440321
-0.0239468
-0.0013321
0.0231503
0.0486656
0.0740999
0.0979763
0.1184
0.133129
0.139992
0.136822
0.118444
0.0819378
-0.068663
-0.104599
-0.12134
-0.123586
-0.117511
-0.105122
-0.0877136
-0.0663205
-0.0416317
-0.0141502
0.015611
0.0469584
0.0788607
0.109798
0.137628
0.15959
0.172731
0.173782
0.155524
0.113574
-0.119396
-0.159352
-0.17491
-0.172752
-0.161143
-0.142924
-0.119754
-0.0927717
-0.0625718
-0.0294418
0.00637905
0.0444792
0.0840605
0.123708
0.161141
0.19309
0.215672
0.22408
0.208054
0.160635
-0.188621
-0.232236
-0.243933
-0.233943
-0.213689
-0.187149
-0.156367
-0.122495
-0.085892
-0.046466
-0.00400817
0.041545
0.0898479
0.139835
0.189324
0.234694
0.271078
0.291668
0.281746
0.229778
-0.283967
-0.329298
-0.331826
-0.308275
-0.274703
-0.236434
-0.195759
-0.153604
-0.109834
-0.0637388
-0.0144314
0.0388698
0.0965603
0.158282
0.222379
0.285292
0.341401
0.381578
0.384917
0.331836
-0.41931
-0.459664
-0.442345
-0.395787
-0.342124
-0.287734
-0.23461
-0.182924
-0.131603
-0.0789784
-0.0232074
0.0374819
0.104559
0.178843
0.259866
0.344975
0.42862
0.499703
0.529677
0.485393
-0.620524
-0.636737
-0.578671
-0.494188
-0.411236
-0.335654
-0.267775
-0.205972
-0.14753
-0.0893764
-0.0284193
0.038355
0.113813
0.200477
0.29998
0.41203
0.533033
0.651778
0.732774
0.722397
-0.935917
-0.878509
-0.741736
-0.597944
-0.474389
-0.372655
-0.288864
-0.217757
-0.153947
-0.0924574
-0.0287106
0.0417023
0.12327
0.220724
0.338931
0.482159
0.652001
0.841345
1.01527
1.0975
-1.47642
-1.20663
-0.920499
-0.691384
-0.517302
-0.387541
-0.290057
-0.213333
-0.148118
-0.0872094
-0.0245711
0.0454641
0.128944
0.233077
0.367109
0.542683
0.771297
1.05932
1.40329
1.73014
-2.53964
-1.63054
-1.04443
-0.710956
-0.495748
-0.352091
-0.254528
-0.18358
-0.126165
-0.0735896
-0.0192627
0.0427936
0.119219
0.218789
0.354818
0.547989
0.826397
1.23658
1.91168
2.9242
-4.36666
-2.04463
-0.97354
-0.563179
-0.357845
-0.240146
-0.170118
-0.12378
-0.0874775
-0.0535052
-0.0166482
0.0276677
0.0846149
0.161737
0.272418
0.442105
0.718224
1.22571
2.41104
4.84853
)
;

boundaryField
{
    movingWall
    {
        type            zeroGradient;
    }
    fixedWalls
    {
        type            zeroGradient;
    }
    frontAndBack
    {
        type            empty;
    }
}


// ************************************************************************* //
