/*--------------------------------*- C++ -*----------------------------------*\
  =========                 |
  \\      /  F ield         | OpenFOAM: The Open Source CFD Toolbox
   \\    /   O peration     | Website:  https://openfoam.org
    \\  /    A nd           | Version:  8
     \\/     M anipulation  |
\*---------------------------------------------------------------------------*/
FoamFile
{
    version     2.0;
    format      ascii;
    class       surfaceScalarField;
    location    "0.33";
    object      phi;
}
// * * * * * * * * * * * * * * * * * * * * * * * * * * * * * * * * * * * * * //

dimensions      [0 3 -1 0 0 0 0];

internalField   nonuniform List<scalar> 
760
(
1.42316e-08
-1.42658e-08
-2.22102e-08
3.64418e-08
-1.14265e-07
9.20555e-08
-2.45484e-07
1.31219e-07
-3.96082e-07
1.50597e-07
-5.47343e-07
1.51261e-07
-6.83161e-07
1.35818e-07
-7.90627e-07
1.07467e-07
-8.60168e-07
6.95406e-08
-8.856e-07
2.54323e-08
-8.6428e-07
-2.13206e-08
-7.97352e-07
-6.69278e-08
-6.90054e-07
-1.07298e-07
-5.51949e-07
-1.38105e-07
-3.96927e-07
-1.55022e-07
-2.4274e-07
-1.54187e-07
-1.0973e-07
-1.33011e-07
-1.84166e-08
-9.13138e-08
1.56883e-08
-3.41051e-08
1.56885e-08
-3.4214e-08
1.99482e-08
-1.80369e-07
1.82596e-07
-4.33975e-07
3.45662e-07
-7.64409e-07
4.61653e-07
-1.13217e-06
5.18364e-07
-1.49719e-06
5.16281e-07
-1.82328e-06
4.61901e-07
-2.08047e-06
3.64656e-07
-2.2462e-06
2.35274e-07
-2.30596e-06
8.51949e-08
-2.25382e-06
-7.34583e-08
-2.09298e-06
-2.27774e-07
-1.8362e-06
-3.64077e-07
-1.50599e-06
-4.68314e-07
-1.13405e-06
-5.26969e-07
-7.59498e-07
-5.28735e-07
-4.25388e-07
-4.67121e-07
-1.72687e-07
-3.44014e-07
-3.08016e-08
-1.75991e-07
-1.51131e-08
-9.22248e-08
1.12173e-07
-3.56985e-07
4.47356e-07
-7.64534e-07
7.5321e-07
-1.26844e-06
9.65564e-07
-1.81464e-06
1.06456e-06
-2.34896e-06
1.05061e-06
-2.82234e-06
9.35271e-07
-3.19383e-06
7.36151e-07
-3.43249e-06
4.73932e-07
-3.51839e-06
1.71095e-07
-3.44345e-06
-1.48395e-07
-3.21215e-06
-4.59081e-07
-2.84201e-06
-7.34216e-07
-2.36372e-06
-9.46599e-07
-1.82025e-06
-1.07044e-06
-1.26445e-06
-1.08454e-06
-7.54498e-07
-9.77068e-07
-3.46959e-07
-7.51553e-07
-8.73332e-08
-4.35618e-07
-1.02447e-07
-1.45205e-07
2.57378e-07
-5.25443e-07
8.27593e-07
-1.08159e-06
1.30936e-06
-1.74745e-06
1.63142e-06
-2.45424e-06
1.77135e-06
-3.13626e-06
1.73263e-06
-3.73515e-06
1.53416e-06
-4.20275e-06
1.20375e-06
-4.50275e-06
7.73933e-07
-4.61176e-06
2.80101e-07
-4.52009e-06
-2.40059e-07
-4.23258e-06
-7.46592e-07
-3.76923e-06
-1.19756e-06
-3.16553e-06
-1.55031e-06
-2.47179e-06
-1.76418e-06
-1.75101e-06
-1.80533e-06
-1.07447e-06
-1.6536e-06
-5.15121e-07
-1.3109e-06
-1.3931e-07
-8.11428e-07
-2.41757e-07
-1.93602e-07
4.50981e-07
-6.84977e-07
1.31897e-06
-1.38557e-06
2.00996e-06
-2.20716e-06
2.45301e-06
-3.06536e-06
2.62954e-06
-3.88364e-06
2.55091e-06
-4.59634e-06
2.24686e-06
-5.1504e-06
1.75781e-06
-5.50625e-06
1.12979e-06
-5.63832e-06
4.12173e-07
-5.53556e-06
-3.42823e-07
-5.20219e-06
-1.07996e-06
-4.65872e-06
-1.74104e-06
-3.94282e-06
-2.2662e-06
-3.1096e-06
-2.5974e-06
-2.23042e-06
-2.6845e-06
-1.38959e-06
-2.49444e-06
-6.78476e-07
-2.02202e-06
-1.87761e-07
-1.30214e-06
-4.29519e-07
-2.39933e-07
6.90914e-07
-8.40323e-07
1.91936e-06
-1.68324e-06
2.85287e-06
-2.65698e-06
3.42675e-06
-3.66072e-06
3.63329e-06
-4.60763e-06
3.49781e-06
-5.42619e-06
3.06542e-06
-6.06038e-06
2.39201e-06
-6.46916e-06
1.53856e-06
-6.62585e-06
5.68866e-07
-6.51813e-06
-4.50549e-07
-6.14862e-06
-1.44947e-06
-5.53638e-06
-2.35327e-06
-4.71879e-06
-3.0838e-06
-3.75335e-06
-3.56283e-06
-2.7184e-06
-3.71945e-06
-1.71149e-06
-3.50135e-06
-8.44639e-07
-2.88887e-06
-2.36173e-07
-1.91061e-06
-6.65691e-07
-2.86738e-07
9.77652e-07
-9.97063e-07
2.62968e-06
-1.98204e-06
3.83784e-06
-3.10487e-06
4.54958e-06
-4.24786e-06
4.77627e-06
-5.3147e-06
4.56465e-06
-6.22997e-06
3.9807e-06
-6.93701e-06
3.09905e-06
-7.39532e-06
1.99687e-06
-7.57845e-06
7.51999e-07
-7.47299e-06
-5.56006e-07
-7.07896e-06
-1.8435e-06
-6.41175e-06
-3.02049e-06
-5.50547e-06
-3.99007e-06
-4.41697e-06
-4.65133e-06
-3.22931e-06
-4.90712e-06
-2.05291e-06
-4.67774e-06
-1.02252e-06
-3.91927e-06
-2.88276e-07
-2.64485e-06
-9.53966e-07
-3.36326e-07
1.31398e-06
-1.16035e-06
3.45371e-06
-2.28798e-06
4.96547e-06
-3.55494e-06
5.81654e-06
-4.82655e-06
6.04788e-06
-5.99897e-06
5.73707e-06
-6.99592e-06
4.97765e-06
-7.7634e-06
3.86652e-06
-8.26435e-06
2.49782e-06
-8.47448e-06
9.62126e-07
-8.37983e-06
-6.50653e-07
-7.97678e-06
-2.24656e-06
-7.27447e-06
-3.72279e-06
-6.29987e-06
-4.96468e-06
-5.10461e-06
-5.84659e-06
-3.77248e-06
-6.23924e-06
-2.42486e-06
-6.02537e-06
-1.22073e-06
-5.12339e-06
-3.47703e-07
-3.51788e-06
-1.30167e-06
-3.90955e-07
1.70493e-06
-1.33488e-06
4.39763e-06
-2.60496e-06
6.23555e-06
-4.00591e-06
7.2175e-06
-5.38677e-06
7.42874e-06
-6.63969e-06
6.99e-06
-7.69237e-06
6.03032e-06
-8.49839e-06
4.67255e-06
-9.02833e-06
3.02776e-06
-9.26284e-06
1.19663e-06
-9.18857e-06
-7.24923e-07
-8.79741e-06
-2.63772e-06
-8.0893e-06
-4.4309e-06
-7.07897e-06
-5.97501e-06
-5.80628e-06
-7.11927e-06
-4.34902e-06
-7.69651e-06
-2.83479e-06
-7.53959e-06
-1.44708e-06
-6.5111e-06
-4.18096e-07
-4.54687e-06
-1.71976e-06
-4.53454e-07
2.15839e-06
-1.52568e-06
5.46986e-06
-2.93488e-06
7.64475e-06
-4.45011e-06
8.73273e-06
-5.90632e-06
8.88495e-06
-7.19781e-06
8.28149e-06
-8.26365e-06
7.09617e-06
-9.07206e-06
5.48095e-06
-9.60687e-06
3.56257e-06
-9.85759e-06
1.44735e-06
-9.81342e-06
-7.69095e-07
-9.46137e-06
-2.98976e-06
-8.7891e-06
-5.10317e-06
-7.793e-06
-6.97112e-06
-6.4922e-06
-8.42006e-06
-4.94796e-06
-9.24075e-06
-3.28511e-06
-9.20245e-06
-1.70867e-06
-8.08754e-06
-5.03586e-07
-5.75195e-06
-2.22335e-06
-5.28337e-07
2.68672e-06
-1.73966e-06
6.68119e-06
-3.27798e-06
9.18307e-06
-4.87164e-06
1.03264e-05
-6.34703e-06
1.03603e-05
-7.61085e-06
9.5453e-06
-8.62438e-06
8.1097e-06
-9.37971e-06
6.23629e-06
-9.88102e-06
4.06388e-06
-1.01316e-05
1.6979e-06
-1.01258e-05
-7.74845e-07
-9.84636e-06
-3.26921e-06
-9.26601e-06
-5.68352e-06
-8.35635e-06
-7.88078e-06
-7.10471e-06
-9.67171e-06
-5.54071e-06
-1.08047e-05
-3.77071e-06
-1.09724e-05
-2.01217e-06
-9.84607e-06
-6.09688e-07
-7.15443e-06
-2.83304e-06
-6.23669e-07
3.31039e-06
-1.98739e-06
8.04491e-06
-3.63193e-06
1.08276e-05
-5.24196e-06
1.19364e-05
-6.64762e-06
1.1766e-05
-7.78453e-06
1.06822e-05
-8.65108e-06
8.97625e-06
-9.27438e-06
6.85959e-06
-9.68662e-06
4.47611e-06
-9.9099e-06
1.92118e-06
-9.94731e-06
-7.3743e-07
-9.77866e-06
-3.43787e-06
-9.36095e-06
-6.10123e-06
-8.63567e-06
-8.60606e-06
-7.54642e-06
-1.0761e-05
-6.07161e-06
-1.22796e-05
-4.27428e-06
-1.27698e-05
-2.36365e-06
-1.17567e-05
-7.44778e-07
-8.77331e-06
-3.57782e-06
-7.5408e-07
4.06447e-06
-2.28436e-06
9.57519e-06
-3.98704e-06
1.25303e-05
-5.50915e-06
1.34585e-05
-6.70968e-06
1.29665e-05
-7.57865e-06
1.15512e-05
-8.17017e-06
9.56777e-06
-8.55775e-06
7.24717e-06
-8.80786e-06
4.72622e-06
-8.96519e-06
2.0785e-06
-9.0445e-06
-6.58116e-07
-9.02588e-06
-3.4565e-06
-8.85271e-06
-6.27439e-06
-8.43492e-06
-9.02385e-06
-7.66298e-06
-1.15329e-05
-6.44205e-06
-1.35005e-05
-4.75628e-06
-1.44555e-05
-2.76676e-06
-1.37462e-05
-9.22438e-07
-1.06176e-05
-4.50026e-06
-9.45211e-07
5.00968e-06
-2.64851e-06
1.12785e-05
-4.31103e-06
1.41928e-05
-5.57335e-06
1.47209e-05
-6.37076e-06
1.37639e-05
-6.78337e-06
1.19638e-05
-6.94061e-06
9.725e-06
-6.96985e-06
7.27642e-06
-6.9729e-06
4.72927e-06
-7.01662e-06
2.12223e-06
-7.12871e-06
-5.46018e-07
-7.29386e-06
-3.29135e-06
-7.44873e-06
-6.11952e-06
-7.47796e-06
-8.99462e-06
-7.218e-06
-1.17929e-05
-6.48279e-06
-1.42357e-05
-5.13346e-06
-1.58049e-05
-3.21499e-06
-1.56647e-05
-1.16439e-06
-1.26682e-05
-5.66464e-06
-1.23732e-06
6.247e-06
-3.08331e-06
1.31245e-05
-4.50774e-06
1.56172e-05
-5.23453e-06
1.54476e-05
-5.35529e-06
1.38847e-05
-5.08192e-06
1.16904e-05
-4.631e-06
9.27408e-06
-4.17937e-06
6.82479e-06
-3.85447e-06
4.40438e-06
-3.73714e-06
2.00489e-06
-3.86524e-06
-4.17917e-07
-4.23274e-06
-2.92384e-06
-4.78217e-06
-5.57009e-06
-5.39114e-06
-8.38565e-06
-5.85855e-06
-1.13254e-05
-5.90662e-06
-1.41876e-05
-5.23285e-06
-1.64786e-05
-3.66628e-06
-1.72313e-05
-1.50008e-06
-1.48344e-05
-7.16473e-06
-1.67381e-06
7.92081e-06
-3.51338e-06
1.49641e-05
-4.31533e-06
1.64192e-05
-4.08892e-06
1.52212e-05
-3.19312e-06
1.29889e-05
-1.99882e-06
1.04961e-05
-7.95245e-07
8.0705e-06
2.19223e-07
5.81032e-06
9.18112e-07
3.70549e-06
1.22548e-06
1.69752e-06
1.10194e-06
-2.94378e-07
5.40948e-07
-2.36285e-06
-4.23029e-07
-4.60612e-06
-1.69265e-06
-7.11602e-06
-3.07247e-06
-9.94562e-06
-4.23087e-06
-1.30292e-05
-4.69568e-06
-1.60138e-05
-3.9672e-06
-1.79597e-05
-1.94493e-06
-1.68567e-05
-9.10966e-06
-2.23069e-06
1.01515e-05
-3.59031e-06
1.63237e-05
-3.07781e-06
1.59067e-05
-1.34392e-06
1.34873e-05
8.96974e-07
1.0748e-05
3.15489e-06
8.23823e-06
5.13802e-06
6.08737e-06
6.68858e-06
4.25976e-06
7.72571e-06
2.66836e-06
8.20643e-06
1.2168e-06
8.10377e-06
-1.91716e-07
7.39892e-06
-1.658e-06
6.08676e-06
-3.29395e-06
4.1991e-06
-5.22837e-06
1.85409e-06
-7.60061e-06
-6.61762e-07
-1.05134e-05
-2.79221e-06
-1.38834e-05
-3.6621e-06
-1.70898e-05
-2.41154e-06
-1.81073e-05
-1.15212e-05
-2.57382e-06
1.27253e-05
-2.18347e-06
1.59333e-05
7.18051e-07
1.30052e-05
4.46953e-06
9.73587e-06
8.13324e-06
7.08429e-06
1.13015e-05
5.06997e-06
1.3829e-05
3.55986e-06
1.5688e-05
2.40077e-06
1.68916e-05
1.46479e-06
1.74548e-05
6.53599e-07
1.73763e-05
-1.13199e-07
1.66304e-05
-9.12146e-07
1.51671e-05
-1.83065e-06
1.29234e-05
-2.98471e-06
9.86169e-06
-4.53886e-06
6.06192e-06
-6.71361e-06
1.91231e-06
-9.73378e-06
-1.55964e-06
-1.36179e-05
-2.45834e-06
-1.72086e-05
-1.39795e-05
-7.85013e-07
1.35103e-05
4.08079e-06
1.10675e-05
1.02975e-05
6.78842e-06
1.57936e-05
4.23979e-06
2.0158e-05
2.7199e-06
2.3458e-05
1.76994e-06
2.58608e-05
1.15713e-06
2.75215e-05
7.40048e-07
2.8554e-05
4.3229e-07
2.90264e-05
1.8122e-07
2.89621e-05
-4.89807e-08
2.83387e-05
-2.88697e-07
2.70818e-05
-5.73737e-07
2.5055e-05
-9.57951e-07
2.20517e-05
-1.53552e-06
1.78155e-05
-2.47741e-06
1.21724e-05
-4.09068e-06
5.47771e-06
-6.92324e-06
-1.29172e-07
-1.16017e-05
-1.41087e-05
1.35103e-05
2.45779e-05
3.13663e-05
3.56061e-05
3.8326e-05
4.00959e-05
4.1253e-05
4.19931e-05
4.24254e-05
4.26066e-05
4.25576e-05
4.22689e-05
4.16952e-05
4.07372e-05
3.92017e-05
3.67243e-05
3.26336e-05
2.57104e-05
1.41087e-05
)
;

boundaryField
{
    movingWall
    {
        type            calculated;
        value           uniform 0;
    }
    fixedWalls
    {
        type            calculated;
        value           uniform 0;
    }
    frontAndBack
    {
        type            empty;
        value           nonuniform List<scalar> 0();
    }
}


// ************************************************************************* //
