/*--------------------------------*- C++ -*----------------------------------*\
  =========                 |
  \\      /  F ield         | OpenFOAM: The Open Source CFD Toolbox
   \\    /   O peration     | Website:  https://openfoam.org
    \\  /    A nd           | Version:  8
     \\/     M anipulation  |
\*---------------------------------------------------------------------------*/
FoamFile
{
    version     2.0;
    format      ascii;
    class       volVectorField;
    location    "0.33";
    object      U;
}
// * * * * * * * * * * * * * * * * * * * * * * * * * * * * * * * * * * * * * //

dimensions      [0 1 -1 0 0 0 0];

internalField   nonuniform List<vector> 
400
(
(0.000253386 -0.000250416 0)
(0.000141191 0.000111427 0)
(-0.00117694 0.000564576 0)
(-0.00348097 0.000884933 0)
(-0.0063772 0.00104565 0)
(-0.00946905 0.00106168 0)
(-0.0124024 0.000957794 0)
(-0.0148843 0.000760398 0)
(-0.0166888 0.000494621 0)
(-0.0176576 0.000184553 0)
(-0.0177014 -0.00014526 0)
(-0.0168044 -0.000468342 0)
(-0.0150295 -0.000755374 0)
(-0.0125247 -0.000974214 0)
(-0.00952606 -0.00109114 0)
(-0.00635477 -0.00107396 0)
(-0.00340053 -0.00089809 0)
(-0.00108641 -0.000556374 0)
(0.000196405 -9.03689e-05 0)
(0.000267845 0.000262372 0)
(-7.74633e-05 -0.000169351 0)
(-0.00161151 0.00164477 0)
(-0.00569271 0.00361717 0)
(-0.0117185 0.00503463 0)
(-0.0188917 0.005743 0)
(-0.0263999 0.00575998 0)
(-0.0334682 0.00517148 0)
(-0.0394257 0.00409237 0)
(-0.0437427 0.00264755 0)
(-0.0460458 0.000966906 0)
(-0.0461282 -0.000813185 0)
(-0.0439602 -0.00254698 0)
(-0.0397002 -0.0040785 0)
(-0.0337019 -0.00524493 0)
(-0.0265127 -0.00588638 0)
(-0.0188541 -0.00586469 0)
(-0.0115664 -0.00509463 0)
(-0.00551317 -0.00358934 0)
(-0.00149306 -0.00155911 0)
(-4.2582e-05 0.000227442 0)
(-0.000528588 0.00109159 0)
(-0.00371129 0.00573611 0)
(-0.0105887 0.0102241 0)
(-0.0199912 0.0134072 0)
(-0.0307641 0.0149458 0)
(-0.0418213 0.0148383 0)
(-0.0521187 0.0132553 0)
(-0.0607429 0.0104559 0)
(-0.066968 0.0067418 0)
(-0.0702813 0.00243882 0)
(-0.0703992 -0.00210645 0)
(-0.067283 -0.00652525 0)
(-0.0611512 -0.0104289 0)
(-0.0524875 -0.0134207 0)
(-0.0420363 -0.0151231 0)
(-0.0307734 -0.0152252 0)
(-0.0198287 -0.0135557 0)
(-0.0103634 -0.0101787 0)
(-0.00354845 -0.00555096 0)
(-0.000476834 -0.000948822 0)
(-0.000928196 0.00347974 0)
(-0.00569136 0.0122203 0)
(-0.0153015 0.0199211 0)
(-0.0279163 0.0251971 0)
(-0.0419847 0.0275962 0)
(-0.0561781 0.0271367 0)
(-0.0692509 0.0241082 0)
(-0.0801243 0.0189533 0)
(-0.0879468 0.0121952 0)
(-0.0921173 0.00440499 0)
(-0.092302 -0.00380782 0)
(-0.0884488 -0.0117962 0)
(-0.0808037 -0.0188816 0)
(-0.0699219 -0.0243756 0)
(-0.0566684 -0.0276269 0)
(-0.0421942 -0.028101 0)
(-0.0278562 -0.025497 0)
(-0.0150934 -0.0198912 0)
(-0.00550494 -0.0119274 0)
(-0.000861581 -0.0032248 0)
(-0.0012789 0.0068776 0)
(-0.00753591 0.0209531 0)
(-0.0198045 0.0325094 0)
(-0.0355344 0.040102 0)
(-0.0527427 0.043289 0)
(-0.0698577 0.0421915 0)
(-0.0854623 0.0372764 0)
(-0.0983593 0.0292122 0)
(-0.107619 0.0187767 0)
(-0.112587 0.00681357 0)
(-0.112896 -0.00578015 0)
(-0.108473 -0.0180541 0)
(-0.099561 -0.0290105 0)
(-0.0867382 -0.0376316 0)
(-0.0709349 -0.0429438 0)
(-0.0534297 -0.0441276 0)
(-0.0357842 -0.0406776 0)
(-0.0197349 -0.0325916 0)
(-0.00737048 -0.0205901 0)
(-0.00120365 -0.006498 0)
(-0.00160749 0.0112153 0)
(-0.00931788 0.0318736 0)
(-0.0242089 0.0479504 0)
(-0.043002 0.0580701 0)
(-0.0632561 0.0619351 0)
(-0.0831518 0.0598792 0)
(-0.101123 0.0526265 0)
(-0.115891 0.0411245 0)
(-0.126486 0.0264362 0)
(-0.132236 0.00969264 0)
(-0.132748 -0.00791597 0)
(-0.127921 -0.0251312 0)
(-0.117965 -0.0406235 0)
(-0.103432 -0.0530175 0)
(-0.0852677 -0.0609642 0)
(-0.0648346 -0.063278 0)
(-0.0438848 -0.0591401 0)
(-0.0244773 -0.0483429 0)
(-0.00925416 -0.0315567 0)
(-0.00153772 -0.0107283 0)
(-0.00194001 0.0164765 0)
(-0.011121 0.0449727 0)
(-0.0286499 0.0662311 0)
(-0.050479 0.0790567 0)
(-0.0736837 0.0834433 0)
(-0.0962021 0.0800713 0)
(-0.11635 0.0700218 0)
(-0.132812 0.0545829 0)
(-0.144629 0.0351305 0)
(-0.151139 0.0130843 0)
(-0.151946 -0.010086 0)
(-0.146913 -0.0328313 0)
(-0.136179 -0.0534976 0)
(-0.120221 -0.0703342 0)
(-0.0999309 -0.0815623 0)
(-0.0767001 -0.0855297 0)
(-0.0524392 -0.080961 0)
(-0.0295443 -0.0672748 0)
(-0.0112834 -0.0449382 0)
(-0.00190004 -0.0159511 0)
(-0.00229999 0.0226942 0)
(-0.0130248 0.0602988 0)
(-0.0332502 0.0873605 0)
(-0.0580787 0.102993 0)
(-0.0840731 0.107661 0)
(-0.108952 0.102557 0)
(-0.130965 0.0892407 0)
(-0.148832 0.0694082 0)
(-0.161663 0.04477 0)
(-0.168865 0.0170194 0)
(-0.17006 -0.0121329 0)
(-0.165068 -0.0408915 0)
(-0.153927 -0.0673116 0)
(-0.136967 -0.0892698 0)
(-0.114941 -0.104508 0)
(-0.0891743 -0.110793 0)
(-0.0616696 -0.106209 0)
(-0.0351477 -0.0895765 0)
(-0.0135856 -0.0609476 0)
(-0.00232629 -0.0222769 0)
(-0.00271161 0.029946 0)
(-0.0151078 0.0779538 0)
(-0.0381142 0.111352 0)
(-0.0658474 0.129745 0)
(-0.0943254 0.134312 0)
(-0.121097 0.126969 0)
(-0.144441 0.109898 0)
(-0.163211 0.0852785 0)
(-0.176684 0.0551651 0)
(-0.184404 0.0214863 0)
(-0.186055 -0.0138739 0)
(-0.181419 -0.0489545 0)
(-0.170392 -0.0815901 0)
(-0.153079 -0.109319 0)
(-0.129969 -0.129376 0)
(-0.102184 -0.138823 0)
(-0.0716885 -0.134883 0)
(-0.0414664 -0.115466 0)
(-0.0162878 -0.079893 0)
(-0.00285466 -0.0298887 0)
(-0.00320764 0.0383583 0)
(-0.0174661 0.0980861 0)
(-0.0433408 0.138184 0)
(-0.0737562 0.15904 0)
(-0.104159 0.162895 0)
(-0.132031 0.152667 0)
(-0.155825 0.131337 0)
(-0.174678 0.101637 0)
(-0.188167 0.0659554 0)
(-0.196067 0.0263889 0)
(-0.198185 -0.0151117 0)
(-0.194282 -0.0565429 0)
(-0.18408 -0.0956382 0)
(-0.167365 -0.129684 0)
(-0.144214 -0.155418 0)
(-0.115338 -0.169092 0)
(-0.0824453 -0.166797 0)
(-0.0486358 -0.14512 0)
(-0.0195286 -0.102157 0)
(-0.00353354 -0.0390462 0)
(-0.00384398 0.0481273 0)
(-0.0202463 0.12089 0)
(-0.0490468 0.167747 0)
(-0.0816867 0.19036 0)
(-0.113053 0.192551 0)
(-0.140747 0.178609 0)
(-0.163622 0.152507 0)
(-0.18131 0.117589 0)
(-0.193847 0.0765327 0)
(-0.201361 0.0314937 0)
(-0.203858 -0.0156578 0)
(-0.20111 -0.0630479 0)
(-0.192649 -0.108487 0)
(-0.177857 -0.149166 0)
(-0.156224 -0.18141 0)
(-0.12778 -0.200601 0)
(-0.0936442 -0.201419 0)
(-0.056733 -0.178569 0)
(-0.0234798 -0.12817 0)
(-0.00443553 -0.0501033 0)
(-0.00472542 0.0595699 0)
(-0.0236949 0.146614 0)
(-0.0553835 0.199751 0)
(-0.0893774 0.222785 0)
(-0.120123 0.221886 0)
(-0.145678 0.203182 0)
(-0.165633 0.171835 0)
(-0.180374 0.131807 0)
(-0.190584 0.0859677 0)
(-0.196866 0.0363759 0)
(-0.199504 -0.0153696 0)
(-0.198338 -0.0677405 0)
(-0.19272 -0.118863 0)
(-0.181576 -0.166073 0)
(-0.163647 -0.205483 0)
(-0.137968 -0.231655 0)
(-0.104596 -0.23762 0)
(-0.0657338 -0.215521 0)
(-0.0283778 -0.158365 0)
(-0.00568209 -0.063551 0)
(-0.00605165 0.0732272 0)
(-0.0282262 0.17556 0)
(-0.0625096 0.233566 0)
(-0.0962584 0.254741 0)
(-0.123859 0.248726 0)
(-0.144401 0.224021 0)
(-0.158674 0.187103 0)
(-0.168111 0.142459 0)
(-0.174205 0.0929669 0)
(-0.178123 0.0403786 0)
(-0.180489 -0.0141976 0)
(-0.18127 -0.0698189 0)
(-0.179699 -0.125207 0)
(-0.174273 -0.178176 0)
(-0.162897 -0.224968 0)
(-0.143318 -0.259583 0)
(-0.113939 -0.273324 0)
(-0.0753937 -0.255062 0)
(-0.0345565 -0.193088 0)
(-0.00748631 -0.0801031 0)
(-0.00819214 0.0900453 0)
(-0.0344831 0.208018 0)
(-0.0704132 0.26788 0)
(-0.101025 0.283602 0)
(-0.121577 0.269806 0)
(-0.133111 0.237836 0)
(-0.138166 0.195401 0)
(-0.139466 0.14723 0)
(-0.139372 0.0959074 0)
(-0.1396 0.0426191 0)
(-0.141114 -0.0122322 0)
(-0.144059 -0.0685052 0)
(-0.147673 -0.125791 0)
(-0.150173 -0.182766 0)
(-0.148723 -0.23632 0)
(-0.139645 -0.280442 0)
(-0.119096 -0.305021 0)
(-0.0849367 -0.295155 0)
(-0.0424407 -0.232375 0)
(-0.0102161 -0.100836 0)
(-0.0117676 0.111635 0)
(-0.0432601 0.243959 0)
(-0.0782982 0.300031 0)
(-0.100629 0.305089 0)
(-0.108353 0.280456 0)
(-0.105734 0.240379 0)
(-0.0975325 0.193278 0)
(-0.0877744 0.143546 0)
(-0.0795048 0.0930343 0)
(-0.0747893 0.0420945 0)
(-0.0748069 -0.00972825 0)
(-0.0798945 -0.0632096 0)
(-0.0894663 -0.118988 0)
(-0.101791 -0.176954 0)
(-0.113689 -0.235281 0)
(-0.120307 -0.288878 0)
(-0.115264 -0.327192 0)
(-0.0922672 -0.331791 0)
(-0.0523159 -0.275401 0)
(-0.0144304 -0.127346 0)
(-0.0175494 0.140659 0)
(-0.0547649 0.282144 0)
(-0.082787 0.324716 0)
(-0.0880817 0.312471 0)
(-0.0751103 0.274453 0)
(-0.0525934 0.226768 0)
(-0.0274614 0.177286 0)
(-0.00451788 0.129133 0)
(0.0130952 0.0829115 0)
(0.0234362 0.0379465 0)
(0.0253948 -0.00707315 0)
(0.0185039 -0.0537575 0)
(0.00297657 -0.10375 0)
(-0.0199997 -0.158318 0)
(-0.0476881 -0.2175 0)
(-0.0749864 -0.278358 0)
(-0.0935478 -0.331788 0)
(-0.0920644 -0.35768 0)
(-0.0632808 -0.319293 0)
(-0.0206336 -0.161973 0)
(-0.0254498 0.181711 0)
(-0.0657748 0.317771 0)
(-0.0733336 0.331361 0)
(-0.048078 0.295399 0)
(-0.00557976 0.24421 0)
(0.0412165 0.192378 0)
(0.0846505 0.145045 0)
(0.120534 0.10297 0)
(0.146699 0.065137 0)
(0.162044 0.0298911 0)
(0.165938 -0.00467138 0)
(0.157932 -0.0406278 0)
(0.137729 -0.0802455 0)
(0.105437 -0.125916 0)
(0.0622599 -0.179725 0)
(0.011804 -0.242019 0)
(-0.0378311 -0.307876 0)
(-0.07168 -0.360142 0)
(-0.0700558 -0.356607 0)
(-0.0279123 -0.208375 0)
(-0.029649 0.239176 0)
(-0.0608414 0.335767 0)
(-0.0219428 0.300502 0)
(0.0505411 0.240126 0)
(0.127571 0.182948 0)
(0.197006 0.135388 0)
(0.254334 0.0973981 0)
(0.298248 0.0668504 0)
(0.328822 0.0413549 0)
(0.346464 0.0187784 0)
(0.351373 -0.00279406 0)
(0.343299 -0.0252648 0)
(0.321466 -0.0507872 0)
(0.28464 -0.0820473 0)
(0.23157 -0.122445 0)
(0.162179 -0.175668 0)
(0.0798995 -0.24343 0)
(-0.00319048 -0.319135 0)
(-0.0546698 -0.368612 0)
(-0.0284594 -0.267618 0)
(0.00808312 0.281861 0)
(0.019783 0.294972 0)
(0.139066 0.210972 0)
(0.264459 0.143477 0)
(0.364367 0.0971856 0)
(0.440363 0.065777 0)
(0.496741 0.0442371 0)
(0.536872 0.0288857 0)
(0.563444 0.0171987 0)
(0.578303 0.00748472 0)
(0.582378 -0.00149407 0)
(0.575693 -0.0108451 0)
(0.557306 -0.0218468 0)
(0.525133 -0.0363346 0)
(0.475775 -0.0572592 0)
(0.404536 -0.0893837 0)
(0.305175 -0.139741 0)
(0.173416 -0.216386 0)
(0.0411719 -0.311655 0)
(0.0184302 -0.299995 0)
(0.299604 0.146091 0)
(0.396272 0.127503 0)
(0.55742 0.0760895 0)
(0.674487 0.0437232 0)
(0.743888 0.025572 0)
(0.787153 0.0152421 0)
(0.815485 0.00921226 0)
(0.833954 0.00550935 0)
(0.845384 0.00302715 0)
(0.85137 0.00114934 0)
(0.852665 -0.000499369 0)
(0.849381 -0.00221503 0)
(0.840999 -0.00433851 0)
(0.82614 -0.00742402 0)
(0.802077 -0.0125322 0)
(0.76362 -0.0217728 0)
(0.699108 -0.0392829 0)
(0.583952 -0.0726601 0)
(0.415827 -0.127868 0)
(0.308819 -0.149468 0)
)
;

boundaryField
{
    movingWall
    {
        type            fixedValue;
        value           uniform (1 0 0);
    }
    fixedWalls
    {
        type            noSlip;
    }
    frontAndBack
    {
        type            empty;
    }
}


// ************************************************************************* //
