0 	-8.943e-09
1.57135 	5.0781e-07
3.1427 	7.34776e-06
4.71405 	3.61059e-05
6.28539 	0.000111348
7.85674 	0.000266858
9.42809 	0.000540896
10.9994 	0.000990141
12.5708 	0.00178361
14.1421 	0.00557819
