/*--------------------------------*- C++ -*----------------------------------*\
  =========                 |
  \\      /  F ield         | OpenFOAM: The Open Source CFD Toolbox
   \\    /   O peration     | Website:  https://openfoam.org
    \\  /    A nd           | Version:  8
     \\/     M anipulation  |
\*---------------------------------------------------------------------------*/
FoamFile
{
    version     2.0;
    format      ascii;
    class       volScalarField;
    location    "1.67";
    object      p;
}
// * * * * * * * * * * * * * * * * * * * * * * * * * * * * * * * * * * * * * //

dimensions      [0 2 -2 0 0 0 0];

internalField   nonuniform List<scalar> 
400
(
-1.00019e-15
-1.59316e-15
-1.92716e-15
-2.05631e-15
-2.06848e-15
-2.04212e-15
-1.97244e-15
-1.95637e-15
-2.00487e-15
-2.10491e-15
-2.11832e-15
-2.20237e-15
-2.21914e-15
-2.24064e-15
-2.25912e-15
-2.28184e-15
-2.29113e-15
-2.25021e-15
-2.08138e-15
-1.69562e-15
-1.62315e-15
-1.71686e-15
-1.95866e-15
-2.09728e-15
-2.11752e-15
-2.10109e-15
-2.0331e-15
-2.00082e-15
-2.07501e-15
-2.19634e-15
-2.26448e-15
-2.33086e-15
-2.36525e-15
-2.36181e-15
-2.26459e-15
-2.28884e-15
-2.35388e-15
-2.29461e-15
-2.12595e-15
-1.89311e-15
-1.96713e-15
-1.97519e-15
-2.06469e-15
-2.14636e-15
-2.14108e-15
-2.08454e-15
-2.12235e-15
-2.11648e-15
-2.17863e-15
-2.33611e-15
-2.3529e-15
-2.44717e-15
-2.55292e-15
-2.54228e-15
-2.27156e-15
-2.2977e-15
-2.47363e-15
-2.36012e-15
-2.24954e-15
-2.03689e-15
-2.23331e-15
-2.16213e-15
-2.22904e-15
-2.34909e-15
-2.29099e-15
-2.10143e-15
-2.20158e-15
-2.13835e-15
-2.27108e-15
-2.26906e-15
-2.50065e-15
-2.68603e-15
-2.57596e-15
-2.55413e-15
-2.38665e-15
-2.40129e-15
-2.4446e-15
-2.43156e-15
-2.25727e-15
-2.32577e-15
-2.4782e-15
-2.38179e-15
-2.39587e-15
-2.49455e-15
-2.31349e-15
-2.24357e-15
-2.28135e-15
-2.25157e-15
-2.34767e-15
-2.38258e-15
-2.6449e-15
-2.79275e-15
-2.62133e-15
-2.50785e-15
-2.47045e-15
-2.27768e-15
-2.37141e-15
-2.4777e-15
-2.58962e-15
-2.48761e-15
-2.81008e-15
-2.67681e-15
-2.53191e-15
-2.70083e-15
-2.47399e-15
-2.51192e-15
-2.48852e-15
-2.37987e-15
-2.57242e-15
-2.47968e-15
-2.91688e-15
-2.7409e-15
-2.64687e-15
-2.33587e-15
-2.38557e-15
-2.30924e-15
-2.55208e-15
-2.549e-15
-2.72043e-15
-2.84486e-15
-2.95245e-15
-3.07747e-15
-2.87399e-15
-2.89914e-15
-2.62032e-15
-2.64094e-15
-2.56969e-15
-2.75875e-15
-2.8029e-15
-2.72002e-15
-3.09723e-15
-2.90336e-15
-2.58167e-15
-2.23787e-15
-2.30915e-15
-2.44614e-15
-2.60814e-15
-2.85986e-15
-2.91937e-15
-2.78533e-15
-3.13693e-15
-3.25274e-15
-3.32311e-15
-2.967e-15
-2.75136e-15
-2.53909e-15
-2.99715e-15
-2.94804e-15
-2.85871e-15
-3.07135e-15
-3.25083e-15
-3.06786e-15
-2.40648e-15
-2.42354e-15
-2.48658e-15
-2.4884e-15
-2.8875e-15
-3.07476e-15
-2.95461e-15
-3.00061e-15
-3.3419e-15
-3.63606e-15
-3.65291e-15
-3.35049e-15
-2.9737e-15
-2.92616e-15
-3.14787e-15
-3.1305e-15
-3.08799e-15
-3.04815e-15
-3.14848e-15
-2.89371e-15
-2.8372e-15
-2.87252e-15
-2.62703e-15
-2.90874e-15
-2.88543e-15
-3.28226e-15
-3.52625e-15
-3.1256e-15
-4.045e-15
-4.08502e-15
-4.01827e-15
-3.40907e-15
-3.25043e-15
-3.2808e-15
-3.40295e-15
-3.275e-15
-3.11954e-15
-2.84476e-15
-2.98168e-15
-2.94536e-15
-2.90403e-15
-3.06466e-15
-3.05913e-15
-3.14537e-15
-3.20726e-15
-3.53804e-15
-4.03307e-15
-4.36158e-15
-4.96747e-15
-4.30588e-15
-4.30529e-15
-3.37822e-15
-3.21788e-15
-3.19562e-15
-3.13457e-15
-3.73994e-15
-3.32737e-15
-2.82774e-15
-3.07215e-15
-2.65089e-15
-3.08486e-15
-3.15924e-15
-3.61424e-15
-3.58722e-15
-3.67376e-15
-3.96847e-15
-4.58165e-15
-5.09069e-15
-5.27637e-15
-4.33944e-15
-4.77545e-15
-3.58557e-15
-3.42518e-15
-3.21666e-15
-2.84439e-15
-3.39891e-15
-3.15832e-15
-3.10953e-15
-3.00787e-15
-3.07174e-15
-3.0576e-15
-3.21933e-15
-3.60334e-15
-3.7643e-15
-4.1871e-15
-4.48748e-15
-4.80114e-15
-5.87606e-15
-5.34651e-15
-4.96473e-15
-5.0482e-15
-4.05131e-15
-3.46125e-15
-3.32935e-15
-3.05165e-15
-3.23708e-15
-2.17125e-15
-2.46204e-15
-3.22821e-15
-3.46542e-15
-3.48375e-15
-3.12673e-15
-3.51572e-15
-3.59513e-15
-4.46681e-15
-4.92419e-15
-5.37239e-15
-5.45614e-15
-5.68879e-15
-5.16978e-15
-4.64327e-15
-4.02491e-15
-3.57046e-15
-3.49026e-15
-3.02841e-15
-3.30071e-15
-2.94752e-15
-2.72934e-15
-3.24677e-15
-3.42926e-15
-3.97698e-15
-3.82004e-15
-4.02822e-15
-4.10829e-15
-4.38909e-15
-4.83223e-15
-4.9229e-15
-5.2296e-15
-4.70534e-15
-5.03866e-15
-4.20375e-15
-3.99414e-15
-3.99458e-15
-4.10616e-15
-3.72014e-15
-3.87588e-15
-3.84964e-15
-3.75372e-15
-3.00183e-15
-3.82723e-15
-4.18333e-15
-4.0558e-15
-4.55586e-15
-4.47938e-15
-4.56042e-15
-4.91337e-15
-4.74687e-15
-4.85057e-15
-4.39532e-15
-4.93749e-15
-4.20789e-15
-3.81093e-15
-3.72526e-15
-4.11286e-15
-4.16396e-15
-4.4351e-15
-4.73524e-15
-4.10348e-15
-3.42267e-15
-3.88215e-15
-4.67285e-15
-4.45342e-15
-4.30009e-15
-4.75174e-15
-5.04931e-15
-5.57228e-15
-5.2269e-15
-4.72046e-15
-4.36995e-15
-4.84486e-15
-4.62074e-15
-4.07809e-15
-4.29598e-15
-4.10202e-15
-4.3341e-15
-4.51882e-15
-4.98365e-15
-4.25235e-15
-3.83299e-15
-4.00913e-15
-4.92135e-15
-4.43714e-15
-4.4423e-15
-4.4816e-15
-5.184e-15
-5.39439e-15
-5.89378e-15
-5.56104e-15
-4.9825e-15
-4.99922e-15
-4.57551e-15
-3.87594e-15
-4.81301e-15
-3.93511e-15
-3.9822e-15
-4.55773e-15
-4.72681e-15
-3.82472e-15
-3.87146e-15
-4.29613e-15
-4.51165e-15
-5.09729e-15
-4.88559e-15
-4.53346e-15
-5.23764e-15
-4.85556e-15
-5.17824e-15
-4.95604e-15
-4.45284e-15
-4.70127e-15
-4.89602e-15
-4.27221e-15
-3.9849e-15
-3.81348e-15
-3.24913e-15
-3.83526e-15
-4.88132e-15
-4.47073e-15
-4.00974e-15
-4.9406e-15
-4.62001e-15
-4.9326e-15
-4.15213e-15
-3.99521e-15
-5.15986e-15
-4.87168e-15
-4.9924e-15
-5.25435e-15
-5.25342e-15
-4.49237e-15
-4.92085e-15
-5.37709e-15
-4.22218e-15
-3.33246e-15
-3.32813e-15
-3.41209e-15
-4.44612e-15
-4.99376e-15
-4.70295e-15
-5.18689e-15
-4.52309e-15
-3.75095e-15
-4.50418e-15
-4.22786e-15
-4.21156e-15
-4.55842e-15
-4.55515e-15
-5.48622e-15
)
;

boundaryField
{
    movingWall
    {
        type            zeroGradient;
    }
    fixedWalls
    {
        type            zeroGradient;
    }
    left
    {
        type            cyclic;
    }
    right
    {
        type            cyclic;
    }
    frontAndBack
    {
        type            empty;
    }
}


// ************************************************************************* //
