/*--------------------------------*- C++ -*----------------------------------*\
  =========                 |
  \\      /  F ield         | OpenFOAM: The Open Source CFD Toolbox
   \\    /   O peration     | Website:  https://openfoam.org
    \\  /    A nd           | Version:  8
     \\/     M anipulation  |
\*---------------------------------------------------------------------------*/
FoamFile
{
    version     2.0;
    format      ascii;
    class       surfaceScalarField;
    location    "1.67";
    object      phi;
}
// * * * * * * * * * * * * * * * * * * * * * * * * * * * * * * * * * * * * * //

dimensions      [0 3 -1 0 0 0 0];

internalField   nonuniform List<scalar> 
760
(
1.24962e-06
6.09153e-21
1.24962e-06
3.139e-21
1.24962e-06
2.03429e-21
1.24962e-06
1.19233e-21
1.24962e-06
3.95229e-22
1.24962e-06
-2.17226e-22
1.24962e-06
-6.78819e-22
1.24962e-06
-1.1545e-21
1.24962e-06
-1.30419e-21
1.24962e-06
-1.28157e-21
1.24962e-06
-9.7167e-22
1.24962e-06
-1.16192e-21
1.24962e-06
-1.0813e-21
1.24962e-06
-1.04442e-21
1.24962e-06
-1.29076e-21
1.24962e-06
-5.71282e-22
1.24962e-06
6.62598e-22
1.24962e-06
1.45612e-21
1.24962e-06
2.30355e-21
3.62469e-21
3.74886e-06
8.72909e-21
3.74886e-06
7.41046e-21
3.74886e-06
5.00967e-21
3.74886e-06
2.60852e-21
3.74886e-06
4.76682e-22
3.74886e-06
-1.50043e-21
3.74886e-06
-2.00474e-21
3.74886e-06
-2.93088e-21
3.74886e-06
-3.7157e-21
3.74886e-06
-3.8592e-21
3.74886e-06
-4.29389e-21
3.74886e-06
-4.21014e-21
3.74886e-06
-3.6585e-21
3.74886e-06
-3.03862e-21
3.74886e-06
-2.80297e-21
3.74886e-06
-1.04963e-21
3.74886e-06
1.91216e-21
3.74886e-06
3.84449e-21
3.74886e-06
6.12055e-21
7.33216e-21
6.24814e-06
1.33209e-20
6.24814e-06
1.12049e-20
6.24814e-06
8.29314e-21
6.24814e-06
5.03531e-21
6.24814e-06
1.2871e-21
6.24814e-06
-2.34633e-21
6.24814e-06
-4.30037e-21
6.24814e-06
-6.49596e-21
6.24814e-06
-7.57456e-21
6.24814e-06
-9.36171e-21
6.24814e-06
-8.40601e-21
6.24814e-06
-7.85367e-21
6.24814e-06
-8.37584e-21
6.24814e-06
-6.72586e-21
6.24814e-06
-3.39935e-21
6.24814e-06
1.81023e-23
6.24814e-06
3.25397e-21
6.24814e-06
7.99134e-21
6.24814e-06
1.06448e-20
1.38361e-20
8.74746e-06
1.86603e-20
8.74746e-06
1.55341e-20
8.74746e-06
1.08185e-20
8.74746e-06
5.62852e-21
8.74746e-06
-3.88753e-23
8.74746e-06
-3.29895e-21
8.74746e-06
-7.04322e-21
8.74746e-06
-9.49437e-21
8.74746e-06
-1.2216e-20
8.74746e-06
-1.36271e-20
8.74746e-06
-1.41057e-20
8.74746e-06
-1.37977e-20
8.74746e-06
-1.22419e-20
8.74746e-06
-9.23799e-21
8.74746e-06
-3.78246e-21
8.74746e-06
4.40672e-22
8.74746e-06
6.93705e-21
8.74746e-06
1.32273e-20
8.74746e-06
1.89461e-20
1.93902e-20
1.12468e-05
2.39961e-20
1.12468e-05
1.9277e-20
1.12468e-05
1.23422e-20
1.12468e-05
5.88924e-21
1.12468e-05
-5.21312e-22
1.12468e-05
-4.87966e-21
1.12468e-05
-9.29772e-21
1.12468e-05
-1.36271e-20
1.12468e-05
-1.61301e-20
1.12468e-05
-1.93047e-20
1.12468e-05
-1.88069e-20
1.12468e-05
-1.9517e-20
1.12468e-05
-1.53205e-20
1.12468e-05
-1.08842e-20
1.12468e-05
-3.67536e-21
1.12468e-05
4.36393e-21
1.12468e-05
1.30482e-20
1.12468e-05
1.88729e-20
1.12468e-05
2.35422e-20
2.59607e-20
1.37463e-05
2.59672e-20
1.37463e-05
2.21326e-20
1.37463e-05
1.42009e-20
1.37463e-05
5.23548e-21
1.37463e-05
-2.30744e-21
1.37463e-05
-8.22513e-21
1.37463e-05
-1.35264e-20
1.37463e-05
-1.62637e-20
1.37463e-05
-2.07167e-20
1.37463e-05
-2.28749e-20
1.37463e-05
-2.35923e-20
1.37463e-05
-2.11159e-20
1.37463e-05
-1.72083e-20
1.37463e-05
-9.90955e-21
1.37463e-05
-1.45203e-21
1.37463e-05
8.47252e-21
1.37463e-05
1.60618e-20
1.37463e-05
2.4804e-20
1.37463e-05
2.81509e-20
2.72623e-20
1.62459e-05
2.76143e-20
1.62459e-05
2.12298e-20
1.62459e-05
1.422e-20
1.62459e-05
2.95455e-21
1.62459e-05
-4.28884e-21
1.62459e-05
-1.22531e-20
1.62459e-05
-1.46063e-20
1.62459e-05
-2.06358e-20
1.62459e-05
-2.50021e-20
1.62459e-05
-2.50096e-20
1.62459e-05
-2.6073e-20
1.62459e-05
-2.20093e-20
1.62459e-05
-1.71941e-20
1.62459e-05
-6.40638e-21
1.62459e-05
2.55215e-21
1.62459e-05
1.08225e-20
1.62459e-05
2.01308e-20
1.62459e-05
2.66762e-20
1.62459e-05
2.94138e-20
3.11046e-20
1.87455e-05
2.79123e-20
1.87455e-05
2.16271e-20
1.87455e-05
1.19269e-20
1.87455e-05
2.96095e-21
1.87455e-05
-6.02524e-21
1.87455e-05
-1.13185e-20
1.87455e-05
-1.82191e-20
1.87455e-05
-2.2367e-20
1.87455e-05
-2.51649e-20
1.87455e-05
-2.82314e-20
1.87455e-05
-2.74576e-20
1.87455e-05
-2.33232e-20
1.87455e-05
-1.17977e-20
1.87455e-05
-2.56629e-21
1.87455e-05
4.79185e-21
1.87455e-05
1.48524e-20
1.87455e-05
1.983e-20
1.87455e-05
2.67893e-20
1.87455e-05
3.31112e-20
3.08742e-20
2.12453e-05
2.92999e-20
2.12453e-05
2.08268e-20
2.12453e-05
1.05943e-20
2.12453e-05
-6.94703e-22
2.12453e-05
-7.40526e-21
2.12453e-05
-1.28594e-20
2.12453e-05
-1.80358e-20
2.12453e-05
-2.24958e-20
2.12453e-05
-2.57721e-20
2.12453e-05
-2.8066e-20
2.12453e-05
-2.56183e-20
2.12453e-05
-1.91313e-20
2.12453e-05
-1.1559e-20
2.12453e-05
-2.48333e-21
2.12453e-05
7.88937e-21
2.12453e-05
1.44312e-20
2.12453e-05
2.12333e-20
2.12453e-05
2.58366e-20
2.12453e-05
3.08715e-20
3.60343e-20
2.37452e-05
2.74131e-20
2.37452e-05
1.68215e-20
2.37452e-05
8.72826e-21
2.37452e-05
-2.30577e-21
2.37452e-05
-9.64839e-21
2.37452e-05
-1.53945e-20
2.37452e-05
-2.07453e-20
2.37452e-05
-1.9317e-20
2.37452e-05
-2.28294e-20
2.37452e-05
-2.3947e-20
2.37452e-05
-2.02909e-20
2.37452e-05
-1.66073e-20
2.37452e-05
-7.57117e-21
2.37452e-05
-1.28054e-21
2.37452e-05
8.77823e-21
2.37452e-05
1.50877e-20
2.37452e-05
2.06402e-20
2.37452e-05
2.42554e-20
2.37452e-05
2.76776e-20
2.90913e-20
2.62452e-05
1.84087e-20
2.62452e-05
1.09634e-20
2.62452e-05
7.1383e-21
2.62452e-05
-1.30359e-21
2.62452e-05
-7.77998e-21
2.62452e-05
-1.38254e-20
2.62452e-05
-1.90514e-20
2.62452e-05
-2.17704e-20
2.62452e-05
-2.19823e-20
2.62452e-05
-1.80294e-20
2.62452e-05
-1.58809e-20
2.62452e-05
-6.76287e-21
2.62452e-05
-3.59738e-21
2.62452e-05
1.70554e-21
2.62452e-05
6.10084e-21
2.62452e-05
1.20956e-20
2.62452e-05
1.84602e-20
2.62452e-05
2.09874e-20
2.62452e-05
2.07802e-20
2.3869e-20
2.87453e-05
9.69198e-21
2.87453e-05
9.06197e-21
2.87453e-05
2.16534e-21
2.87453e-05
-1.448e-21
2.87453e-05
-8.66187e-21
2.87453e-05
-1.24655e-20
2.87453e-05
-1.3935e-20
2.87453e-05
-1.76577e-20
2.87453e-05
-2.24514e-20
2.87453e-05
-1.83602e-20
2.87453e-05
-8.12808e-21
2.87453e-05
-4.53652e-22
2.87453e-05
5.58147e-21
2.87453e-05
5.82218e-21
2.87453e-05
8.02408e-21
2.87453e-05
9.66593e-21
2.87453e-05
1.39041e-20
2.87453e-05
1.65274e-20
2.87453e-05
1.71419e-20
9.95031e-21
3.12455e-05
4.46862e-21
3.12455e-05
9.41495e-22
3.12455e-05
-5.59314e-21
3.12455e-05
-6.42971e-21
3.12455e-05
-9.25911e-21
3.12455e-05
-1.2032e-20
3.12455e-05
-1.50576e-20
3.12455e-05
-1.39204e-20
3.12455e-05
-7.01016e-21
3.12455e-05
-6.6051e-21
3.12455e-05
-2.36855e-21
3.12455e-05
3.60321e-21
3.12455e-05
1.1491e-20
3.12455e-05
1.53957e-20
3.12455e-05
1.48582e-20
3.12455e-05
1.46733e-20
3.12455e-05
1.08587e-20
3.12455e-05
9.39911e-21
3.12455e-05
5.50418e-21
4.29294e-21
3.37459e-05
-8.98549e-21
3.37459e-05
-5.52604e-21
3.37459e-05
-8.61792e-21
3.37459e-05
-7.89573e-21
3.37459e-05
-8.33532e-21
3.37459e-05
-1.03611e-20
3.37459e-05
-1.12314e-20
3.37459e-05
-9.49889e-21
3.37459e-05
-3.00416e-21
3.37459e-05
4.02143e-21
3.37459e-05
2.0795e-21
3.37459e-05
1.11914e-20
3.37459e-05
1.38227e-20
3.37459e-05
1.5483e-20
3.37459e-05
1.73209e-20
3.37459e-05
1.53904e-20
3.37459e-05
1.21404e-20
3.37459e-05
8.30867e-21
3.37459e-05
2.86143e-21
-2.11181e-21
3.62463e-05
-8.24432e-21
3.62463e-05
-7.4519e-21
3.62463e-05
-6.26368e-21
3.62463e-05
-8.19286e-21
3.62463e-05
-1.17114e-20
3.62463e-05
-1.37788e-20
3.62463e-05
-1.26704e-20
3.62463e-05
-9.09866e-21
3.62463e-05
-1.05971e-21
3.62463e-05
3.10815e-21
3.62463e-05
9.60972e-21
3.62463e-05
1.18778e-20
3.62463e-05
1.76113e-20
3.62463e-05
1.80239e-20
3.62463e-05
1.32714e-20
3.62463e-05
1.48088e-20
3.62463e-05
1.29609e-20
3.62463e-05
1.03091e-20
3.62463e-05
4.15139e-21
-4.04013e-21
3.87468e-05
-5.78435e-21
3.87468e-05
-6.6667e-21
3.87468e-05
-1.93226e-21
3.87468e-05
-2.90884e-21
3.87468e-05
-4.36818e-21
3.87468e-05
-1.15337e-20
3.87468e-05
-1.22361e-20
3.87468e-05
-1.04336e-20
3.87468e-05
-2.86141e-21
3.87468e-05
2.34598e-21
3.87468e-05
9.32039e-21
3.87468e-05
1.19274e-20
3.87468e-05
1.55976e-20
3.87468e-05
1.55027e-20
3.87468e-05
1.52656e-20
3.87468e-05
9.28472e-21
3.87468e-05
8.32621e-21
3.87468e-05
2.20766e-21
3.87468e-05
3.77102e-21
1.09703e-21
4.12475e-05
1.68113e-24
4.12475e-05
-3.20908e-21
4.12475e-05
-2.47414e-21
4.12475e-05
-2.90225e-21
4.12475e-05
-9.96431e-22
4.12475e-05
-9.34622e-21
4.12475e-05
-1.2273e-20
4.12475e-05
-7.93158e-21
4.12475e-05
-5.05526e-21
4.12475e-05
-9.59122e-22
4.12475e-05
5.68688e-21
4.12475e-05
9.96963e-21
4.12475e-05
9.67614e-21
4.12475e-05
1.73543e-20
4.12475e-05
1.41882e-20
4.12475e-05
8.06286e-21
4.12475e-05
3.68647e-21
4.12475e-05
-2.74646e-21
4.12475e-05
-4.73475e-21
-5.92021e-21
4.37481e-05
-4.20447e-21
4.37481e-05
-3.27754e-21
4.37481e-05
1.35665e-21
4.37481e-05
2.7361e-21
4.37481e-05
-6.61111e-21
4.37481e-05
-6.42288e-21
4.37481e-05
-1.19549e-20
4.37481e-05
-1.09327e-20
4.37481e-05
-1.986e-21
4.37481e-05
5.45558e-21
4.37481e-05
4.77953e-21
4.37481e-05
9.69482e-21
4.37481e-05
8.96532e-21
4.37481e-05
8.57351e-21
4.37481e-05
3.43368e-21
4.37481e-05
8.67731e-22
4.37481e-05
-7.09113e-23
4.37481e-05
-5.39054e-22
4.37481e-05
-1.00381e-21
2.23238e-21
4.62489e-05
4.82974e-21
4.62489e-05
-1.43693e-21
4.62489e-05
-7.58665e-23
4.62489e-05
7.12781e-21
4.62489e-05
1.22337e-21
4.62489e-05
-5.18044e-21
4.62489e-05
-4.30334e-21
4.62489e-05
-6.95535e-21
4.62489e-05
-4.07521e-21
4.62489e-05
4.0966e-21
4.62489e-05
6.17853e-21
4.62489e-05
4.37621e-21
4.62489e-05
3.68906e-21
4.62489e-05
-1.31518e-21
4.62489e-05
5.57005e-21
4.62489e-05
2.61239e-21
4.62489e-05
-5.46392e-21
4.62489e-05
-2.31044e-21
4.62489e-05
-1.92401e-21
2.96761e-21
4.87496e-05
4.87496e-05
4.87496e-05
4.87496e-05
4.87496e-05
4.87496e-05
4.87496e-05
4.87496e-05
4.87496e-05
4.87496e-05
4.87496e-05
4.87496e-05
4.87496e-05
4.87496e-05
4.87496e-05
4.87496e-05
4.87496e-05
4.87496e-05
4.87496e-05
)
;

boundaryField
{
    movingWall
    {
        type            calculated;
        value           uniform 0;
    }
    fixedWalls
    {
        type            calculated;
        value           uniform 0;
    }
    left
    {
        type            cyclic;
        value           nonuniform List<scalar> 
20
(
-3.87468e-05
-3.62463e-05
-3.37459e-05
-3.12455e-05
-2.87453e-05
-2.62452e-05
-2.37452e-05
-2.12453e-05
-1.87455e-05
-1.62459e-05
-1.37463e-05
-1.12468e-05
-8.74746e-06
-6.24814e-06
-3.74886e-06
-1.24962e-06
-4.12475e-05
-4.37481e-05
-4.62489e-05
-4.87496e-05
)
;
    }
    right
    {
        type            cyclic;
        value           nonuniform List<scalar> 
20
(
3.87468e-05
3.62463e-05
3.37459e-05
3.12455e-05
2.87453e-05
2.62452e-05
2.37452e-05
2.12453e-05
1.87455e-05
1.62459e-05
1.37463e-05
1.12468e-05
8.74746e-06
6.24814e-06
3.74886e-06
1.24962e-06
4.12475e-05
4.37481e-05
4.62489e-05
4.87496e-05
)
;
    }
    frontAndBack
    {
        type            empty;
        value           nonuniform List<scalar> 0();
    }
}


// ************************************************************************* //
