/*--------------------------------*- C++ -*----------------------------------*\
  =========                 |
  \\      /  F ield         | OpenFOAM: The Open Source CFD Toolbox
   \\    /   O peration     | Website:  https://openfoam.org
    \\  /    A nd           | Version:  8
     \\/     M anipulation  |
\*---------------------------------------------------------------------------*/
FoamFile
{
    version     2.0;
    format      ascii;
    class       volVectorField;
    location    "1.09";
    object      U;
}
// * * * * * * * * * * * * * * * * * * * * * * * * * * * * * * * * * * * * * //

dimensions      [0 1 -1 0 0 0 0];

internalField   nonuniform List<vector> 
400
(
(0.0249853 -4.58461e-11 0)
(0.0249853 -5.02514e-11 0)
(0.0249853 -5.40384e-11 0)
(0.0249853 -2.23004e-11 0)
(0.0249853 1.57349e-11 0)
(0.0249853 5.21666e-11 0)
(0.0249853 8.35381e-11 0)
(0.0249853 1.03212e-10 0)
(0.0249853 1.10759e-10 0)
(0.0249853 1.0687e-10 0)
(0.0249853 9.27672e-11 0)
(0.0249853 7.10292e-11 0)
(0.0249853 4.2902e-11 0)
(0.0249853 1.31609e-11 0)
(0.0249853 -1.84189e-11 0)
(0.0249853 -4.58091e-11 0)
(0.0249853 -7.2056e-11 0)
(0.0249853 -9.23179e-11 0)
(0.0249853 -1.07752e-10 0)
(0.0249853 -7.65631e-11 0)
(0.0749563 -7.33255e-10 0)
(0.0749563 -4.4568e-10 0)
(0.0749563 -1.57858e-10 0)
(0.0749563 1.89209e-10 0)
(0.0749563 5.10913e-10 0)
(0.0749563 7.80996e-10 0)
(0.0749563 9.68637e-10 0)
(0.0749563 1.05711e-09 0)
(0.0749563 1.04158e-09 0)
(0.0749563 9.28361e-10 0)
(0.0749563 7.30971e-10 0)
(0.0749563 4.67449e-10 0)
(0.0749563 1.6167e-10 0)
(0.0749563 -1.61378e-10 0)
(0.0749563 -4.71258e-10 0)
(0.0749563 -7.43032e-10 0)
(0.0749563 -9.46765e-10 0)
(0.0749563 -1.06512e-09 0)
(0.0749563 -1.07453e-09 0)
(0.0749563 -9.3127e-10 0)
(0.124928 -2.16274e-09 0)
(0.124928 -1.27842e-09 0)
(0.124928 -2.35864e-10 0)
(0.124928 8.21338e-10 0)
(0.124928 1.77951e-09 0)
(0.124928 2.54616e-09 0)
(0.124928 3.04984e-09 0)
(0.124928 3.25084e-09 0)
(0.124928 3.14185e-09 0)
(0.124928 2.74348e-09 0)
(0.124928 2.09773e-09 0)
(0.124928 1.26245e-09 0)
(0.124928 3.07889e-10 0)
(0.124928 -6.85417e-10 0)
(0.124928 -1.63091e-09 0)
(0.124928 -2.43927e-09 0)
(0.124928 -3.02815e-09 0)
(0.124928 -3.32581e-09 0)
(0.124928 -3.28462e-09 0)
(0.124928 -2.89266e-09 0)
(0.174902 -4.04927e-09 0)
(0.174902 -2.2749e-09 0)
(0.174902 -2.73769e-10 0)
(0.174902 1.72145e-09 0)
(0.174902 3.50787e-09 0)
(0.174902 4.9127e-09 0)
(0.174902 5.81241e-09 0)
(0.174902 6.13992e-09 0)
(0.174902 5.88696e-09 0)
(0.174902 5.09532e-09 0)
(0.174902 3.84601e-09 0)
(0.174902 2.25001e-09 0)
(0.174902 4.39773e-10 0)
(0.174902 -1.43304e-09 0)
(0.174902 -3.20622e-09 0)
(0.174902 -4.71115e-09 0)
(0.174902 -5.7918e-09 0)
(0.174902 -6.31247e-09 0)
(0.174902 -6.18627e-09 0)
(0.174902 -5.40562e-09 0)
(0.224878 -5.7982e-09 0)
(0.224878 -3.21705e-09 0)
(0.224878 -3.22848e-10 0)
(0.224878 2.56072e-09 0)
(0.224878 5.1324e-09 0)
(0.224878 7.14669e-09 0)
(0.224878 8.42391e-09 0)
(0.224878 8.87294e-09 0)
(0.224878 8.48381e-09 0)
(0.224878 7.31888e-09 0)
(0.224878 5.49767e-09 0)
(0.224878 3.18127e-09 0)
(0.224878 5.63541e-10 0)
(0.224878 -2.13914e-09 0)
(0.224878 -4.68929e-09 0)
(0.224878 -6.84852e-09 0)
(0.224878 -8.38683e-09 0)
(0.224878 -9.11641e-09 0)
(0.224878 -8.91397e-09 0)
(0.224878 -7.77101e-09 0)
(0.274858 -6.98848e-09 0)
(0.274858 -3.88914e-09 0)
(0.274858 -4.05873e-10 0)
(0.274858 3.06944e-09 0)
(0.274858 6.1767e-09 0)
(0.274858 8.60914e-09 0)
(0.274858 1.0153e-08 0)
(0.274858 1.06954e-08 0)
(0.274858 1.02255e-08 0)
(0.274858 8.81875e-09 0)
(0.274858 6.62009e-09 0)
(0.274858 3.82618e-09 0)
(0.274858 6.70655e-10 0)
(0.274858 -2.58199e-09 0)
(0.274858 -5.65012e-09 0)
(0.274858 -8.24162e-09 0)
(0.274858 -1.00876e-08 0)
(0.274858 -1.09585e-08 0)
(0.274858 -1.07176e-08 0)
(0.274858 -9.35091e-09 0)
(0.32484 -7.31493e-09 0)
(0.32484 -4.09915e-09 0)
(0.32484 -4.75914e-10 0)
(0.32484 3.15571e-09 0)
(0.32484 6.40942e-09 0)
(0.32484 8.96407e-09 0)
(0.32484 1.05896e-08 0)
(0.32484 1.11676e-08 0)
(0.32484 1.06847e-08 0)
(0.32484 9.21992e-09 0)
(0.32484 6.92519e-09 0)
(0.32484 4.00724e-09 0)
(0.32484 7.13715e-10 0)
(0.32484 -2.67957e-09 0)
(0.32484 -5.8752e-09 0)
(0.32484 -8.57419e-09 0)
(0.32484 -1.04927e-08 0)
(0.32484 -1.14021e-08 0)
(0.32484 -1.11607e-08 0)
(0.32484 -9.75536e-09 0)
(0.374827 -6.67335e-09 0)
(0.374827 -3.74767e-09 0)
(0.374827 -4.40874e-10 0)
(0.374827 2.87965e-09 0)
(0.374827 5.86039e-09 0)
(0.374827 8.20001e-09 0)
(0.374827 9.68835e-09 0)
(0.374827 1.02152e-08 0)
(0.374827 9.76883e-09 0)
(0.374827 8.42171e-09 0)
(0.374827 6.31417e-09 0)
(0.374827 3.63826e-09 0)
(0.374827 6.22953e-10 0)
(0.374827 -2.47611e-09 0)
(0.374827 -5.38858e-09 0)
(0.374827 -7.83989e-09 0)
(0.374827 -9.57689e-09 0)
(0.374827 -1.03931e-08 0)
(0.374827 -1.01693e-08 0)
(0.374827 -8.89271e-09 0)
(0.424818 -5.14438e-09 0)
(0.424818 -2.8281e-09 0)
(0.424818 -2.20694e-10 0)
(0.424818 2.39131e-09 0)
(0.424818 4.72367e-09 0)
(0.424818 6.53975e-09 0)
(0.424818 7.67625e-09 0)
(0.424818 8.05085e-09 0)
(0.424818 7.65755e-09 0)
(0.424818 6.55673e-09 0)
(0.424818 4.86259e-09 0)
(0.424818 2.73044e-09 0)
(0.424818 3.44719e-10 0)
(0.424818 -2.09153e-09 0)
(0.424818 -4.36411e-09 0)
(0.424818 -6.25972e-09 0)
(0.424818 -7.5804e-09 0)
(0.424818 -8.17306e-09 0)
(0.424818 -7.95224e-09 0)
(0.424818 -6.91435e-09 0)
(0.474814 -2.94645e-09 0)
(0.474814 -1.44166e-09 0)
(0.474814 2.12925e-10 0)
(0.474814 1.837e-09 0)
(0.474814 3.25133e-09 0)
(0.474814 4.31184e-09 0)
(0.474814 4.92729e-09 0)
(0.474814 5.05702e-09 0)
(0.474814 4.70687e-09 0)
(0.474814 3.92269e-09 0)
(0.474814 2.78339e-09 0)
(0.474814 1.39315e-09 0)
(0.474814 -1.27419e-10 0)
(0.474814 -1.64811e-09 0)
(0.474814 -3.03452e-09 0)
(0.474814 -4.1537e-09 0)
(0.474814 -4.88572e-09 0)
(0.474814 -5.14367e-09 0)
(0.474814 -4.89102e-09 0)
(0.474814 -4.13779e-09 0)
(0.524814 -3.95063e-10 0)
(0.524814 2.22025e-10 0)
(0.524814 8.12605e-10 0)
(0.524814 1.31735e-09 0)
(0.524814 1.67905e-09 0)
(0.524814 1.86385e-09 0)
(0.524814 1.86446e-09 0)
(0.524814 1.69035e-09 0)
(0.524814 1.36321e-09 0)
(0.524814 9.14002e-10 0)
(0.524814 3.82534e-10 0)
(0.524814 -1.84931e-10 0)
(0.524814 -7.39651e-10 0)
(0.524814 -1.23381e-09 0)
(0.524814 -1.62131e-09 0)
(0.524814 -1.85925e-09 0)
(0.524814 -1.91259e-09 0)
(0.524814 -1.76867e-09 0)
(0.524814 -1.4445e-09 0)
(0.524814 -9.7113e-10 0)
(0.574818 2.14344e-09 0)
(0.574818 1.91255e-09 0)
(0.574818 1.47323e-09 0)
(0.574818 8.82203e-10 0)
(0.574818 2.06576e-10 0)
(0.574818 -4.76371e-10 0)
(0.574818 -1.09094e-09 0)
(0.574818 -1.57695e-09 0)
(0.574818 -1.89706e-09 0)
(0.574818 -2.03419e-09 0)
(0.574818 -1.9872e-09 0)
(0.574818 -1.766e-09 0)
(0.574818 -1.39136e-09 0)
(0.574818 -8.94054e-10 0)
(0.574818 -3.12204e-10 0)
(0.574818 3.11651e-10 0)
(0.574818 9.30633e-10 0)
(0.574818 1.48581e-09 0)
(0.574818 1.90776e-09 0)
(0.574818 2.13898e-09 0)
(0.624827 4.29103e-09 0)
(0.624827 3.36055e-09 0)
(0.624827 2.06297e-09 0)
(0.624827 5.52706e-10 0)
(0.624827 -9.9521e-10 0)
(0.624827 -2.40917e-09 0)
(0.624827 -3.54197e-09 0)
(0.624827 -4.29289e-09 0)
(0.624827 -4.61082e-09 0)
(0.624827 -4.49273e-09 0)
(0.624827 -3.97e-09 0)
(0.624827 -3.10017e-09 0)
(0.624827 -1.96059e-09 0)
(0.624827 -6.45505e-10 0)
(0.624827 7.39339e-10 0)
(0.624827 2.08231e-09 0)
(0.624827 3.26846e-09 0)
(0.624827 4.17936e-09 0)
(0.624827 4.70036e-09 0)
(0.624827 4.74856e-09 0)
(0.674841 5.70706e-09 0)
(0.674841 4.31888e-09 0)
(0.674841 2.45682e-09 0)
(0.674841 3.40504e-10 0)
(0.674841 -1.78249e-09 0)
(0.674841 -3.67523e-09 0)
(0.674841 -5.14608e-09 0)
(0.674841 -6.0656e-09 0)
(0.674841 -6.37807e-09 0)
(0.674841 -6.08951e-09 0)
(0.674841 -5.2559e-09 0)
(0.674841 -3.96563e-09 0)
(0.674841 -2.33273e-09 0)
(0.674841 -4.9058e-10 0)
(0.674841 1.41356e-09 0)
(0.674841 3.22436e-09 0)
(0.674841 4.78344e-09 0)
(0.674841 5.93133e-09 0)
(0.674841 6.52549e-09 0)
(0.674841 6.46094e-09 0)
(0.724858 6.15014e-09 0)
(0.724858 4.61169e-09 0)
(0.724858 2.56293e-09 0)
(0.724858 2.47964e-10 0)
(0.724858 -2.0597e-09 0)
(0.724858 -4.10314e-09 0)
(0.724858 -5.67338e-09 0)
(0.724858 -6.63666e-09 0)
(0.724858 -6.93429e-09 0)
(0.724858 -6.58065e-09 0)
(0.724858 -5.63994e-09 0)
(0.724858 -4.21334e-09 0)
(0.724858 -2.42563e-09 0)
(0.724858 -4.21103e-10 0)
(0.724858 1.64222e-09 0)
(0.724858 3.59733e-09 0)
(0.724858 5.27085e-09 0)
(0.724858 6.49139e-09 0)
(0.724858 7.10563e-09 0)
(0.724858 7.00405e-09 0)
(0.774879 5.5682e-09 0)
(0.774879 4.18743e-09 0)
(0.774879 2.34337e-09 0)
(0.774879 2.54901e-10 0)
(0.774879 -1.8316e-09 0)
(0.774879 -3.68004e-09 0)
(0.774879 -5.10344e-09 0)
(0.774879 -5.97673e-09 0)
(0.774879 -6.24997e-09 0)
(0.774879 -5.93437e-09 0)
(0.774879 -5.09153e-09 0)
(0.774879 -3.81242e-09 0)
(0.774879 -2.20971e-09 0)
(0.774879 -4.10581e-10 0)
(0.774879 1.44568e-09 0)
(0.774879 3.20994e-09 0)
(0.774879 4.72593e-09 0)
(0.774879 5.83635e-09 0)
(0.774879 6.40411e-09 0)
(0.774879 6.32439e-09 0)
(0.824903 4.16052e-09 0)
(0.824903 3.17266e-09 0)
(0.824903 1.83021e-09 0)
(0.824903 2.98161e-10 0)
(0.824903 -1.2453e-09 0)
(0.824903 -2.62479e-09 0)
(0.824903 -3.69833e-09 0)
(0.824903 -4.37164e-09 0)
(0.824903 -4.60218e-09 0)
(0.824903 -4.39777e-09 0)
(0.824903 -3.80158e-09 0)
(0.824903 -2.88152e-09 0)
(0.824903 -1.71874e-09 0)
(0.824903 -4.04407e-10 0)
(0.824903 9.61935e-10 0)
(0.824903 2.27199e-09 0)
(0.824903 3.40819e-09 0)
(0.824903 4.2544e-09 0)
(0.824903 4.70318e-09 0)
(0.824903 4.68046e-09 0)
(0.874929 2.37593e-09 0)
(0.874929 1.8685e-09 0)
(0.874929 1.13783e-09 0)
(0.874929 2.89401e-10 0)
(0.874929 -5.78875e-10 0)
(0.874929 -1.3687e-09 0)
(0.874929 -1.99693e-09 0)
(0.874929 -2.407e-09 0)
(0.874929 -2.57043e-09 0)
(0.874929 -2.48809e-09 0)
(0.874929 -2.1826e-09 0)
(0.874929 -1.69119e-09 0)
(0.874929 -1.05833e-09 0)
(0.874929 -3.32855e-10 0)
(0.874929 4.31897e-10 0)
(0.874929 1.17573e-09 0)
(0.874929 1.83051e-09 0)
(0.874929 2.32911e-09 0)
(0.874929 2.61069e-09 0)
(0.874929 2.64287e-09 0)
(0.924956 8.61616e-10 0)
(0.924956 6.98009e-10 0)
(0.924956 4.66123e-10 0)
(0.924956 1.79449e-10 0)
(0.924956 -1.2397e-10 0)
(0.924956 -4.07936e-10 0)
(0.924956 -6.43952e-10 0)
(0.924956 -8.07143e-10 0)
(0.924956 -8.86582e-10 0)
(0.924956 -8.78322e-10 0)
(0.924956 -7.90458e-10 0)
(0.924956 -6.34774e-10 0)
(0.924956 -4.26663e-10 0)
(0.924956 -1.8123e-10 0)
(0.924956 8.46014e-11 0)
(0.924956 3.49124e-10 0)
(0.924956 5.8711e-10 0)
(0.924956 7.73866e-10 0)
(0.924956 8.92582e-10 0)
(0.924956 9.19601e-10 0)
(0.974985 1.11812e-10 0)
(0.974985 9.92491e-11 0)
(0.974985 8.41923e-11 0)
(0.974985 5.42576e-11 0)
(0.974985 1.84713e-11 0)
(0.974985 -1.98491e-11 0)
(0.974985 -5.47234e-11 0)
(0.974985 -8.44122e-11 0)
(0.974985 -1.03348e-10 0)
(0.974985 -1.12175e-10 0)
(0.974985 -1.09519e-10 0)
(0.974985 -9.78957e-11 0)
(0.974985 -7.81724e-11 0)
(0.974985 -5.16516e-11 0)
(0.974985 -1.9606e-11 0)
(0.974985 1.51105e-11 0)
(0.974985 4.66846e-11 0)
(0.974985 7.36109e-11 0)
(0.974985 9.71911e-11 0)
(0.974985 1.0855e-10 0)
)
;

boundaryField
{
    movingWall
    {
        type            fixedValue;
        value           uniform (1 0 0);
    }
    fixedWalls
    {
        type            noSlip;
    }
    left
    {
        type            cyclic;
    }
    right
    {
        type            cyclic;
    }
    frontAndBack
    {
        type            empty;
    }
}


// ************************************************************************* //
