/*--------------------------------*- C++ -*----------------------------------*\
  =========                 |
  \\      /  F ield         | OpenFOAM: The Open Source CFD Toolbox
   \\    /   O peration     | Website:  https://openfoam.org
    \\  /    A nd           | Version:  8
     \\/     M anipulation  |
\*---------------------------------------------------------------------------*/
FoamFile
{
    version     2.0;
    format      ascii;
    class       surfaceScalarField;
    location    "30.5";
    object      phi;
}
// * * * * * * * * * * * * * * * * * * * * * * * * * * * * * * * * * * * * * //

dimensions      [0 3 -1 0 0 0 0];

internalField   nonuniform List<scalar> 
22960
(
-1.97502e-07
1.97723e-07
-6.66516e-07
4.69014e-07
-1.24234e-06
5.75828e-07
-1.85289e-06
6.10544e-07
-2.47037e-06
6.17483e-07
-3.08792e-06
6.17548e-07
-3.70488e-06
6.16961e-07
-4.32157e-06
6.16687e-07
-4.93825e-06
6.16684e-07
-5.55508e-06
6.16828e-07
-6.17212e-06
6.1704e-07
-6.7894e-06
6.17276e-07
-7.40691e-06
6.17514e-07
-8.02465e-06
6.17737e-07
-8.64258e-06
6.17936e-07
-9.26068e-06
6.18098e-07
-9.8789e-06
6.18216e-07
-1.04972e-05
6.18279e-07
-1.11155e-05
6.18276e-07
-1.17336e-05
6.18198e-07
-1.23517e-05
6.18033e-07
-1.29695e-05
6.17771e-07
-1.35869e-05
6.17399e-07
-1.42038e-05
6.16907e-07
-1.482e-05
6.16282e-07
-1.54356e-05
6.15514e-07
-1.60501e-05
6.1459e-07
-1.66636e-05
6.135e-07
-1.72759e-05
6.12235e-07
-1.78867e-05
6.10785e-07
-1.84958e-05
6.09143e-07
-1.91031e-05
6.07305e-07
-1.97084e-05
6.0527e-07
-2.03114e-05
6.03041e-07
-2.0912e-05
6.00624e-07
-2.15101e-05
5.98036e-07
-2.21054e-05
5.953e-07
-2.26978e-05
5.92452e-07
-2.32874e-05
5.8954e-07
-2.3874e-05
5.86633e-07
-2.44578e-05
5.83824e-07
-2.50391e-05
5.81239e-07
-2.56181e-05
5.79042e-07
-2.61956e-05
5.77456e-07
-2.67723e-05
5.76774e-07
-2.73497e-05
5.7739e-07
-2.79296e-05
5.79829e-07
-2.85144e-05
5.848e-07
-2.91076e-05
5.93262e-07
-2.97141e-05
6.06515e-07
-3.03405e-05
6.26323e-07
-3.09956e-05
6.55101e-07
-3.16918e-05
6.96257e-07
-3.2447e-05
7.55131e-07
-3.32913e-05
8.44293e-07
-3.43001e-05
1.00889e-06
-3.56865e-05
1.38635e-06
-3.7934e-05
2.24746e-06
-4.40762e-05
6.14229e-06
1.39936e-05
-5.80699e-05
-4.74481e-07
6.72203e-07
-1.37647e-06
1.371e-06
-2.4531e-06
1.65246e-06
-3.59136e-06
1.7488e-06
-4.74758e-06
1.77371e-06
-5.90799e-06
1.77795e-06
-7.06876e-06
1.77773e-06
-8.22887e-06
1.7768e-06
-9.38801e-06
1.77582e-06
-1.0546e-05
1.77479e-06
-1.17026e-05
1.77365e-06
-1.28576e-05
1.77234e-06
-1.4011e-05
1.77084e-06
-1.51624e-05
1.76912e-06
-1.63116e-05
1.76714e-06
-1.74584e-05
1.76489e-06
-1.86025e-05
1.76235e-06
-1.97437e-05
1.75948e-06
-2.08817e-05
1.75627e-06
-2.20162e-05
1.7527e-06
-2.31469e-05
1.74873e-06
-2.42735e-05
1.74435e-06
-2.53956e-05
1.73953e-06
-2.65129e-05
1.73423e-06
-2.76251e-05
1.72845e-06
-2.87317e-05
1.72214e-06
-2.98324e-05
1.71529e-06
-3.09268e-05
1.70788e-06
-3.20144e-05
1.69989e-06
-3.3095e-05
1.6913e-06
-3.41679e-05
1.68211e-06
-3.52329e-05
1.67231e-06
-3.62896e-05
1.66192e-06
-3.73375e-05
1.65095e-06
-3.83763e-05
1.63945e-06
-3.94057e-05
1.62746e-06
-4.04255e-05
1.61508e-06
-4.14355e-05
1.60243e-06
-4.24356e-05
1.58966e-06
-4.3426e-05
1.57698e-06
-4.44068e-05
1.56469e-06
-4.53788e-05
1.55318e-06
-4.63427e-05
1.54294e-06
-4.72999e-05
1.53465e-06
-4.82523e-05
1.5292e-06
-4.92027e-05
1.5278e-06
-5.01549e-05
1.53206e-06
-5.11144e-05
1.54424e-06
-5.20885e-05
1.56743e-06
-5.30881e-05
1.60608e-06
-5.41284e-05
1.66666e-06
-5.52322e-05
1.7589e-06
-5.64341e-05
1.89812e-06
-5.7789e-05
2.11007e-06
-5.93892e-05
2.4445e-06
-6.13917e-05
3.01136e-06
-6.40422e-05
4.0368e-06
-6.7778e-05
5.98328e-06
-7.25256e-05
1.08899e-05
1.79147e-05
-7.64467e-05
-5.87867e-07
1.26007e-06
-1.67299e-06
2.45613e-06
-2.95743e-06
2.9369e-06
-4.30957e-06
3.10093e-06
-5.68118e-06
3.14532e-06
-7.05713e-06
3.15391e-06
-8.43308e-06
3.15367e-06
-9.80774e-06
3.15147e-06
-1.11806e-05
3.14868e-06
-1.25513e-05
3.14548e-06
-1.39195e-05
3.14185e-06
-1.52849e-05
3.13774e-06
-1.66472e-05
3.1331e-06
-1.80059e-05
3.1279e-06
-1.93609e-05
3.12209e-06
-2.07116e-05
3.11564e-06
-2.20578e-05
3.10852e-06
-2.3399e-05
3.1007e-06
-2.47349e-05
3.09213e-06
-2.6065e-05
3.08279e-06
-2.73889e-05
3.07262e-06
-2.87061e-05
3.0616e-06
-3.00163e-05
3.04969e-06
-3.13189e-05
3.03684e-06
-3.26134e-05
3.02301e-06
-3.38995e-05
3.00819e-06
-3.51765e-05
2.99232e-06
-3.6444e-05
2.97538e-06
-3.77015e-05
2.95734e-06
-3.89484e-05
2.9382e-06
-4.01842e-05
2.91795e-06
-4.14085e-05
2.89659e-06
-4.26207e-05
2.87415e-06
-4.38204e-05
2.85067e-06
-4.50072e-05
2.82624e-06
-4.61807e-05
2.80096e-06
-4.73406e-05
2.77499e-06
-4.84868e-05
2.74855e-06
-4.9619e-05
2.72193e-06
-5.07376e-05
2.69551e-06
-5.18427e-05
2.66981e-06
-5.2935e-05
2.64549e-06
-5.40155e-05
2.62344e-06
-5.50857e-05
2.60484e-06
-5.61477e-05
2.59122e-06
-5.72046e-05
2.58465e-06
-5.82604e-05
2.5879e-06
-5.93209e-05
2.60477e-06
-6.0394e-05
2.64046e-06
-6.14902e-05
2.70236e-06
-6.26246e-05
2.80104e-06
-6.38179e-05
2.95218e-06
-6.50995e-05
3.17975e-06
-6.65119e-05
3.52239e-06
-6.81151e-05
4.0477e-06
-6.99832e-05
4.87946e-06
-7.21801e-05
6.23372e-06
-7.47332e-05
8.53645e-06
-7.66678e-05
1.28245e-05
1.83587e-05
-7.71118e-05
-6.2669e-07
1.88676e-06
-1.77948e-06
3.60892e-06
-3.13813e-06
4.29555e-06
-4.56454e-06
4.52735e-06
-6.00987e-06
4.59065e-06
-7.45922e-06
4.60326e-06
-8.90838e-06
4.60284e-06
-1.0356e-05
4.59914e-06
-1.18016e-05
4.59424e-06
-1.32446e-05
4.5885e-06
-1.46847e-05
4.58192e-06
-1.61214e-05
4.57447e-06
-1.75544e-05
4.56609e-06
-1.89833e-05
4.55675e-06
-2.04076e-05
4.5464e-06
-2.1827e-05
4.535e-06
-2.32409e-05
4.5225e-06
-2.46491e-05
4.50885e-06
-2.6051e-05
4.49401e-06
-2.74461e-05
4.47793e-06
-2.88341e-05
4.46056e-06
-3.02143e-05
4.44185e-06
-3.15864e-05
4.42174e-06
-3.29497e-05
4.40018e-06
-3.43038e-05
4.37713e-06
-3.56482e-05
4.35254e-06
-3.69822e-05
4.32637e-06
-3.83054e-05
4.29858e-06
-3.96172e-05
4.26914e-06
-4.0917e-05
4.23803e-06
-4.22044e-05
4.20526e-06
-4.34786e-05
4.17084e-06
-4.47393e-05
4.1348e-06
-4.59858e-05
4.09724e-06
-4.72178e-05
4.05824e-06
-4.84348e-05
4.01799e-06
-4.96365e-05
3.97669e-06
-5.08227e-05
3.93467e-06
-5.19931e-05
3.89234e-06
-5.31478e-05
3.85022e-06
-5.4287e-05
3.80906e-06
-5.54113e-05
3.76976e-06
-5.65214e-05
3.73358e-06
-5.76187e-05
3.7021e-06
-5.87049e-05
3.67744e-06
-5.97827e-05
3.6624e-06
-6.08555e-05
3.66071e-06
-6.19281e-05
3.67741e-06
-6.3007e-05
3.71935e-06
-6.41007e-05
3.79604e-06
-6.52205e-05
3.92085e-06
-6.63813e-05
4.11296e-06
-6.7602e-05
4.40045e-06
-6.89053e-05
4.82569e-06
-7.03124e-05
5.45487e-06
-7.1825e-05
6.39206e-06
-7.33884e-05
7.79705e-06
-7.47909e-05
9.93898e-06
-7.518e-05
1.32135e-05
1.71418e-05
-7.39631e-05
-6.35359e-07
2.52212e-06
-1.80956e-06
4.78311e-06
-3.19181e-06
5.6778e-06
-4.64146e-06
5.97699e-06
-6.10941e-06
6.0586e-06
-7.58097e-06
6.07482e-06
-9.05214e-06
6.07401e-06
-1.05217e-05
6.06869e-06
-1.1989e-05
6.06159e-06
-1.34537e-05
6.05319e-06
-1.49153e-05
6.04353e-06
-1.63734e-05
6.03258e-06
-1.78276e-05
6.02029e-06
-1.92775e-05
6.00663e-06
-2.07226e-05
5.99153e-06
-2.21626e-05
5.97494e-06
-2.35969e-05
5.95681e-06
-2.50251e-05
5.93709e-06
-2.64468e-05
5.91571e-06
-2.78615e-05
5.89261e-06
-2.92687e-05
5.86773e-06
-3.06678e-05
5.841e-06
-3.20585e-05
5.81237e-06
-3.344e-05
5.78176e-06
-3.4812e-05
5.74912e-06
-3.61739e-05
5.71439e-06
-3.7525e-05
5.67751e-06
-3.88649e-05
5.63845e-06
-4.01929e-05
5.59716e-06
-4.15085e-05
5.55363e-06
-4.28111e-05
5.50785e-06
-4.41001e-05
5.45984e-06
-4.5375e-05
5.40966e-06
-4.66351e-05
5.3574e-06
-4.78801e-05
5.30319e-06
-4.91093e-05
5.24724e-06
-5.03224e-05
5.18982e-06
-5.15191e-05
5.13133e-06
-5.2699e-05
5.07225e-06
-5.38621e-05
5.01327e-06
-5.50083e-05
4.95526e-06
-5.61379e-05
4.89935e-06
-5.72513e-05
4.84702e-06
-5.83494e-05
4.80019e-06
-5.94333e-05
4.76138e-06
-6.05048e-05
4.73388e-06
-6.15661e-05
4.72201e-06
-6.26202e-05
4.73152e-06
-6.3671e-05
4.77008e-06
-6.4723e-05
4.84806e-06
-6.57817e-05
4.9796e-06
-6.68529e-05
5.18417e-06
-6.79414e-05
5.48888e-06
-6.90476e-05
5.9319e-06
-7.016e-05
6.56729e-06
-7.12376e-05
7.46969e-06
-7.21799e-05
8.73931e-06
-7.27534e-05
1.05125e-05
-7.24229e-05
1.2883e-05
1.56053e-05
-7.08864e-05
-6.3579e-07
3.15791e-06
-1.81619e-06
5.96351e-06
-3.20573e-06
7.06734e-06
-4.66268e-06
7.43394e-06
-6.13762e-06
7.53353e-06
-7.61591e-06
7.55311e-06
-9.09366e-06
7.55176e-06
-1.05697e-05
7.54477e-06
-1.20436e-05
7.53543e-06
-1.35147e-05
7.52435e-06
-1.49828e-05
7.5116e-06
-1.64474e-05
7.49714e-06
-1.7908e-05
7.48093e-06
-1.93643e-05
7.46293e-06
-2.08158e-05
7.44306e-06
-2.22622e-05
7.42127e-06
-2.37028e-05
7.39749e-06
-2.51374e-05
7.37166e-06
-2.65654e-05
7.34371e-06
-2.79864e-05
7.31356e-06
-2.93998e-05
7.28113e-06
-3.08051e-05
7.24636e-06
-3.22019e-05
7.20915e-06
-3.35896e-05
7.16944e-06
-3.49676e-05
7.12716e-06
-3.63355e-05
7.08222e-06
-3.76925e-05
7.03457e-06
-3.90382e-05
6.98414e-06
-4.03719e-05
6.9309e-06
-4.16931e-05
6.87481e-06
-4.30012e-05
6.81587e-06
-4.42954e-05
6.7541e-06
-4.55753e-05
6.68954e-06
-4.68402e-05
6.62231e-06
-4.80896e-05
6.55254e-06
-4.93228e-05
6.48048e-06
-5.05394e-05
6.40642e-06
-5.17389e-05
6.3308e-06
-5.29208e-05
6.25419e-06
-5.40849e-05
6.17733e-06
-5.52308e-05
6.10119e-06
-5.63585e-05
6.02704e-06
-5.7468e-05
5.95649e-06
-5.85594e-05
5.89166e-06
-5.96333e-05
5.83526e-06
-6.06902e-05
5.79078e-06
-6.1731e-05
5.76278e-06
-6.27566e-05
5.75717e-06
-6.37682e-05
5.78168e-06
-6.47666e-05
5.84644e-06
-6.57518e-05
5.96478e-06
-6.67219e-05
6.15428e-06
-6.76711e-05
6.43805e-06
-6.85855e-05
6.84631e-06
-6.9436e-05
7.4178e-06
-7.01659e-05
8.19965e-06
-7.06717e-05
9.24511e-06
-7.07629e-05
1.06037e-05
-7.01452e-05
1.22653e-05
1.40762e-05
-6.86161e-05
-6.35013e-07
3.79292e-06
-1.81738e-06
7.14588e-06
-3.2097e-06
8.45966e-06
-4.66972e-06
8.89397e-06
-6.14766e-06
9.01148e-06
-7.62885e-06
9.03429e-06
-9.10943e-06
9.03234e-06
-1.05883e-05
9.02364e-06
-1.20649e-05
9.01206e-06
-1.35389e-05
8.99832e-06
-1.50098e-05
8.98251e-06
-1.64773e-05
8.96458e-06
-1.79408e-05
8.94449e-06
-1.94001e-05
8.92218e-06
-2.08546e-05
8.89759e-06
-2.2304e-05
8.87064e-06
-2.37477e-05
8.84126e-06
-2.51855e-05
8.80938e-06
-2.66167e-05
8.7749e-06
-2.80408e-05
8.73775e-06
-2.94576e-05
8.69783e-06
-3.08663e-05
8.65506e-06
-3.22664e-05
8.60934e-06
-3.36576e-05
8.56058e-06
-3.50391e-05
8.50869e-06
-3.64105e-05
8.45358e-06
-3.77711e-05
8.39517e-06
-3.91203e-05
8.3334e-06
-4.04576e-05
8.2682e-06
-4.17824e-05
8.19954e-06
-4.30939e-05
8.12738e-06
-4.43915e-05
8.05175e-06
-4.56747e-05
7.97269e-06
-4.69427e-05
7.89029e-06
-4.81948e-05
7.80471e-06
-4.94305e-05
7.71617e-06
-5.06491e-05
7.62501e-06
-5.185e-05
7.53166e-06
-5.30325e-05
7.43671e-06
-5.41961e-05
7.34094e-06
-5.53403e-05
7.24536e-06
-5.64645e-05
7.15127e-06
-5.75683e-05
7.06033e-06
-5.86514e-05
6.97469e-06
-5.97132e-05
6.89706e-06
-6.07533e-05
6.83092e-06
-6.17712e-05
6.78069e-06
-6.27661e-05
6.752e-06
-6.37364e-05
6.75203e-06
-6.46799e-05
6.78989e-06
-6.55922e-05
6.8771e-06
-6.64661e-05
7.02815e-06
-6.72889e-05
7.26093e-06
-6.80397e-05
7.59706e-06
-6.86832e-05
8.06134e-06
-6.91631e-05
8.67956e-06
-6.93915e-05
9.47345e-06
-6.92366e-05
1.04488e-05
-6.85351e-05
1.15638e-05
1.27022e-05
-6.71612e-05
-6.34372e-07
4.42729e-06
-1.81779e-06
8.3293e-06
-3.21194e-06
9.85381e-06
-4.6742e-06
1.03562e-05
-6.15443e-06
1.04917e-05
-7.63789e-06
1.05177e-05
-9.12072e-06
1.05152e-05
-1.06018e-05
1.05048e-05
-1.20807e-05
1.0491e-05
-1.3557e-05
1.04746e-05
-1.50302e-05
1.04557e-05
-1.65001e-05
1.04344e-05
-1.79661e-05
1.04105e-05
-1.94278e-05
1.03839e-05
-2.08849e-05
1.03547e-05
-2.23369e-05
1.03226e-05
-2.37834e-05
1.02877e-05
-2.52239e-05
1.02499e-05
-2.6658e-05
1.0209e-05
-2.80851e-05
1.01649e-05
-2.95049e-05
1.01176e-05
-3.09167e-05
1.00669e-05
-3.23201e-05
1.00127e-05
-3.37145e-05
9.955e-06
-3.50994e-05
9.89359e-06
-3.64742e-05
9.82838e-06
-3.78383e-05
9.75929e-06
-3.91912e-05
9.68622e-06
-4.0532e-05
9.6091e-06
-4.18604e-05
9.52787e-06
-4.31755e-05
9.44248e-06
-4.44767e-05
9.35293e-06
-4.57632e-05
9.25925e-06
-4.70345e-05
9.16152e-06
-4.82896e-05
9.05988e-06
-4.9528e-05
8.95454e-06
-5.07488e-05
8.8458e-06
-5.19512e-05
8.73411e-06
-5.31346e-05
8.62003e-06
-5.42979e-05
8.50431e-06
-5.54405e-05
8.38795e-06
-5.65614e-05
8.27221e-06
-5.76598e-05
8.15869e-06
-5.87345e-05
8.04944e-06
-5.97845e-05
7.94702e-06
-6.08083e-05
7.85468e-06
-6.1804e-05
7.77645e-06
-6.27694e-05
7.71735e-06
-6.3701e-05
7.68361e-06
-6.4594e-05
7.68288e-06
-6.54412e-05
7.72439e-06
-6.62323e-05
7.81918e-06
-6.69513e-05
7.97996e-06
-6.75749e-05
8.22067e-06
-6.80688e-05
8.5552e-06
-6.83838e-05
8.99455e-06
-6.84523e-05
9.54199e-06
-6.81874e-05
1.01838e-05
-6.74967e-05
1.08732e-05
1.15209e-05
-6.63154e-05
-6.33944e-07
5.06124e-06
-1.81835e-06
9.51371e-06
-3.21435e-06
1.12498e-05
-4.67887e-06
1.18207e-05
-6.16148e-06
1.19743e-05
-7.64735e-06
1.20036e-05
-9.13259e-06
1.20004e-05
-1.06161e-05
1.19883e-05
-1.20975e-05
1.19723e-05
-1.35763e-05
1.19534e-05
-1.5052e-05
1.19315e-05
-1.65245e-05
1.19068e-05
-1.79931e-05
1.18791e-05
-1.94576e-05
1.18484e-05
-2.09176e-05
1.18146e-05
-2.23725e-05
1.17776e-05
-2.38219e-05
1.17372e-05
-2.52655e-05
1.16935e-05
-2.67028e-05
1.16462e-05
-2.81332e-05
1.15953e-05
-2.95564e-05
1.15407e-05
-3.09717e-05
1.14822e-05
-3.23787e-05
1.14197e-05
-3.37768e-05
1.13531e-05
-3.51655e-05
1.12823e-05
-3.65443e-05
1.12071e-05
-3.79124e-05
1.11274e-05
-3.92693e-05
1.10431e-05
-4.06143e-05
1.09541e-05
-4.19468e-05
1.08604e-05
-4.3266e-05
1.07617e-05
-4.45713e-05
1.06582e-05
-4.58619e-05
1.05499e-05
-4.71371e-05
1.04367e-05
-4.83959e-05
1.03187e-05
-4.96376e-05
1.01963e-05
-5.08613e-05
1.00695e-05
-5.20661e-05
9.93888e-06
-5.3251e-05
9.80488e-06
-5.44149e-05
9.66822e-06
-5.55567e-05
9.52979e-06
-5.66753e-05
9.39074e-06
-5.77691e-05
9.25256e-06
-5.88368e-05
9.11707e-06
-5.98763e-05
8.98658e-06
-6.08856e-05
8.86393e-06
-6.18617e-05
8.75258e-06
-6.28011e-05
8.65678e-06
-6.36991e-05
8.58157e-06
-6.45492e-05
8.53297e-06
-6.53427e-05
8.51788e-06
-6.60675e-05
8.54404e-06
-6.67072e-05
8.61963e-06
-6.7239e-05
8.7525e-06
-6.76325e-05
8.94869e-06
-6.78479e-05
9.20993e-06
-6.78357e-05
9.52975e-06
-6.75394e-05
9.88753e-06
-6.69068e-05
1.02407e-05
1.05226e-05
-6.59086e-05
-6.33646e-07
5.69489e-06
-1.81919e-06
1.06992e-05
-3.21725e-06
1.26479e-05
-4.68428e-06
1.32878e-05
-6.16955e-06
1.34596e-05
-7.65811e-06
1.34922e-05
-9.14609e-06
1.34884e-05
-1.06324e-05
1.34746e-05
-1.21165e-05
1.34565e-05
-1.35982e-05
1.3435e-05
-1.50769e-05
1.34102e-05
-1.65523e-05
1.33822e-05
-1.8024e-05
1.33509e-05
-1.94916e-05
1.33161e-05
-2.09547e-05
1.32777e-05
-2.24129e-05
1.32358e-05
-2.38658e-05
1.31901e-05
-2.53129e-05
1.31406e-05
-2.67538e-05
1.30871e-05
-2.8188e-05
1.30295e-05
-2.9615e-05
1.29677e-05
-3.10343e-05
1.29015e-05
-3.24455e-05
1.28309e-05
-3.38478e-05
1.27555e-05
-3.52409e-05
1.26754e-05
-3.66241e-05
1.25903e-05
-3.79968e-05
1.25001e-05
-3.93584e-05
1.24047e-05
-4.07082e-05
1.23039e-05
-4.20455e-05
1.21977e-05
-4.33696e-05
1.20859e-05
-4.46798e-05
1.19684e-05
-4.59752e-05
1.18453e-05
-4.72551e-05
1.17165e-05
-4.85184e-05
1.15821e-05
-4.97643e-05
1.14422e-05
-5.09919e-05
1.1297e-05
-5.21999e-05
1.11469e-05
-5.33874e-05
1.09923e-05
-5.45529e-05
1.08338e-05
-5.56953e-05
1.06721e-05
-5.68128e-05
1.05083e-05
-5.79038e-05
1.03435e-05
-5.89662e-05
1.01795e-05
-5.99977e-05
1.0018e-05
-6.09953e-05
9.86156e-06
-6.19556e-05
9.71285e-06
-6.2874e-05
9.57524e-06
-6.37451e-05
9.45261e-06
-6.45614e-05
9.34931e-06
-6.53136e-05
9.2701e-06
-6.59894e-05
9.21987e-06
-6.65729e-05
9.20314e-06
-6.70437e-05
9.22328e-06
-6.73761e-05
9.28112e-06
-6.75392e-05
9.373e-06
-6.74975e-05
9.48804e-06
-6.72146e-05
9.60468e-06
-6.66616e-05
9.68759e-06
9.68713e-06
-6.58261e-05
-6.33409e-07
6.32829e-06
-1.82026e-06
1.18861e-05
-3.22067e-06
1.40483e-05
-4.6905e-06
1.47576e-05
-6.17873e-06
1.49478e-05
-7.67032e-06
1.49838e-05
-9.16137e-06
1.49794e-05
-1.06508e-05
1.4964e-05
-1.21381e-05
1.49438e-05
-1.36229e-05
1.49198e-05
-1.51049e-05
1.48922e-05
-1.65837e-05
1.4861e-05
-1.80588e-05
1.4826e-05
-1.953e-05
1.47872e-05
-2.09967e-05
1.47445e-05
-2.24587e-05
1.46977e-05
-2.39154e-05
1.46468e-05
-2.53665e-05
1.45917e-05
-2.68115e-05
1.45321e-05
-2.82499e-05
1.44679e-05
-2.96812e-05
1.43991e-05
-3.11051e-05
1.43254e-05
-3.25208e-05
1.42466e-05
-3.3928e-05
1.41627e-05
-3.53261e-05
1.40734e-05
-3.67143e-05
1.39786e-05
-3.80923e-05
1.3878e-05
-3.94592e-05
1.37716e-05
-4.08145e-05
1.36592e-05
-4.21573e-05
1.35406e-05
-4.34871e-05
1.34156e-05
-4.48029e-05
1.32842e-05
-4.6104e-05
1.31463e-05
-4.73894e-05
1.30019e-05
-4.86582e-05
1.28509e-05
-4.99093e-05
1.26934e-05
-5.11418e-05
1.25295e-05
-5.23543e-05
1.23594e-05
-5.35455e-05
1.21836e-05
-5.47142e-05
1.20024e-05
-5.58585e-05
1.18165e-05
-5.69768e-05
1.16266e-05
-5.8067e-05
1.14337e-05
-5.91266e-05
1.12391e-05
-6.01529e-05
1.10444e-05
-6.11426e-05
1.08512e-05
-6.20916e-05
1.06618e-05
-6.29949e-05
1.04786e-05
-6.38465e-05
1.03042e-05
-6.46388e-05
1.01416e-05
-6.53623e-05
9.99361e-06
-6.60053e-05
9.86285e-06
-6.65532e-05
9.75106e-06
-6.69884e-05
9.65848e-06
-6.729e-05
9.5827e-06
-6.74342e-05
9.51725e-06
-6.73961e-05
9.44992e-06
-6.71523e-05
9.3609e-06
-6.66863e-05
9.22156e-06
8.99507e-06
-6.59942e-05
-6.33194e-07
6.96149e-06
-1.82152e-06
1.30744e-05
-3.22456e-06
1.54513e-05
-4.6975e-06
1.62305e-05
-6.18903e-06
1.64394e-05
-7.68398e-06
1.64787e-05
-9.17843e-06
1.64739e-05
-1.06713e-05
1.64569e-05
-1.21621e-05
1.64346e-05
-1.36505e-05
1.64082e-05
-1.51362e-05
1.63778e-05
-1.66187e-05
1.63435e-05
-1.80976e-05
1.6305e-05
-1.95727e-05
1.62623e-05
-2.10435e-05
1.62153e-05
-2.25096e-05
1.61639e-05
-2.39706e-05
1.61079e-05
-2.54261e-05
1.60472e-05
-2.68756e-05
1.59816e-05
-2.83188e-05
1.59111e-05
-2.9755e-05
1.58353e-05
-3.11839e-05
1.57542e-05
-3.26048e-05
1.56676e-05
-3.40174e-05
1.55752e-05
-3.54209e-05
1.5477e-05
-3.68149e-05
1.53726e-05
-3.81987e-05
1.52618e-05
-3.95717e-05
1.51446e-05
-4.09331e-05
1.50206e-05
-4.22823e-05
1.48897e-05
-4.36185e-05
1.47518e-05
-4.49408e-05
1.46065e-05
-4.62484e-05
1.44539e-05
-4.75403e-05
1.42938e-05
-4.88156e-05
1.41261e-05
-5.0073e-05
1.39508e-05
-5.13116e-05
1.3768e-05
-5.25298e-05
1.35777e-05
-5.37264e-05
1.33802e-05
-5.48997e-05
1.31757e-05
-5.60479e-05
1.29647e-05
-5.71691e-05
1.27477e-05
-5.82608e-05
1.25255e-05
-5.93206e-05
1.22989e-05
-6.03451e-05
1.2069e-05
-6.1331e-05
1.1837e-05
-6.22737e-05
1.16045e-05
-6.31681e-05
1.1373e-05
-6.4008e-05
1.11441e-05
-6.47858e-05
1.09194e-05
-6.54926e-05
1.07003e-05
-6.61173e-05
1.04876e-05
-6.66472e-05
1.0281e-05
-6.70674e-05
1.00787e-05
-6.7361e-05
9.87634e-06
-6.75102e-05
9.66643e-06
-6.74972e-05
9.43688e-06
-6.73067e-05
9.17039e-06
-6.69292e-05
8.84411e-06
8.43059e-06
-6.63648e-05
-6.32979e-07
7.59447e-06
-1.82295e-06
1.42644e-05
-3.22888e-06
1.68573e-05
-4.70525e-06
1.77069e-05
-6.20039e-06
1.79345e-05
-7.69903e-06
1.79774e-05
-9.19723e-06
1.79721e-05
-1.06939e-05
1.79536e-05
-1.21886e-05
1.79293e-05
-1.36809e-05
1.79005e-05
-1.51706e-05
1.78675e-05
-1.66572e-05
1.783e-05
-1.81403e-05
1.77881e-05
-1.96197e-05
1.77417e-05
-2.1095e-05
1.76905e-05
-2.25656e-05
1.76345e-05
-2.40314e-05
1.75736e-05
-2.54917e-05
1.75075e-05
-2.69462e-05
1.74362e-05
-2.83945e-05
1.73594e-05
-2.98361e-05
1.72769e-05
-3.12705e-05
1.71886e-05
-3.26972e-05
1.70943e-05
-3.41157e-05
1.69937e-05
-3.55254e-05
1.68866e-05
-3.69257e-05
1.67729e-05
-3.8316e-05
1.66522e-05
-3.96957e-05
1.65243e-05
-4.1064e-05
1.6389e-05
-4.24203e-05
1.6246e-05
-4.37637e-05
1.60952e-05
-4.50934e-05
1.59362e-05
-4.64085e-05
1.5769e-05
-4.77079e-05
1.55933e-05
-4.89908e-05
1.54089e-05
-5.02558e-05
1.52159e-05
-5.15017e-05
1.50139e-05
-5.27272e-05
1.48032e-05
-5.39306e-05
1.45837e-05
-5.51104e-05
1.43555e-05
-5.62645e-05
1.41188e-05
-5.73909e-05
1.3874e-05
-5.84869e-05
1.36215e-05
-5.95499e-05
1.33618e-05
-6.05764e-05
1.30955e-05
-6.15628e-05
1.28234e-05
-6.25045e-05
1.25462e-05
-6.33963e-05
1.22648e-05
-6.42321e-05
1.19799e-05
-6.50047e-05
1.1692e-05
-6.57055e-05
1.14012e-05
-6.63249e-05
1.1107e-05
-6.68516e-05
1.08077e-05
-6.72732e-05
1.05002e-05
-6.75763e-05
1.01794e-05
-6.77472e-05
9.83734e-06
-6.77732e-05
9.46287e-06
-6.76441e-05
9.04127e-06
-6.73543e-05
8.55435e-06
7.98142e-06
-6.69051e-05
-6.32751e-07
8.22722e-06
-1.82452e-06
1.54562e-05
-3.23361e-06
1.82664e-05
-4.71372e-06
1.9187e-05
-6.21278e-06
1.94336e-05
-7.71543e-06
1.948e-05
-9.2177e-06
1.94744e-05
-1.07185e-05
1.94544e-05
-1.22174e-05
1.94282e-05
-1.3714e-05
1.93972e-05
-1.5208e-05
1.93615e-05
-1.66991e-05
1.93211e-05
-1.81868e-05
1.92759e-05
-1.96709e-05
1.92258e-05
-2.1151e-05
1.91706e-05
-2.26266e-05
1.91102e-05
-2.40975e-05
1.90444e-05
-2.55631e-05
1.89731e-05
-2.70231e-05
1.88962e-05
-2.8477e-05
1.88133e-05
-2.99245e-05
1.87243e-05
-3.13649e-05
1.86291e-05
-3.27979e-05
1.85272e-05
-3.42228e-05
1.84187e-05
-3.56392e-05
1.8303e-05
-3.70464e-05
1.81801e-05
-3.84439e-05
1.80497e-05
-3.9831e-05
1.79114e-05
-4.1207e-05
1.7765e-05
-4.25712e-05
1.76101e-05
-4.39226e-05
1.74467e-05
-4.52606e-05
1.72742e-05
-4.65842e-05
1.70925e-05
-4.78923e-05
1.69014e-05
-4.91838e-05
1.67005e-05
-5.04576e-05
1.64897e-05
-5.17123e-05
1.62687e-05
-5.29466e-05
1.60374e-05
-5.41587e-05
1.57958e-05
-5.53468e-05
1.55436e-05
-5.65091e-05
1.5281e-05
-5.76431e-05
1.5008e-05
-5.87463e-05
1.47247e-05
-5.98157e-05
1.44313e-05
-6.08481e-05
1.41279e-05
-6.18395e-05
1.38148e-05
-6.27855e-05
1.34922e-05
-6.3681e-05
1.31603e-05
-6.452e-05
1.28189e-05
-6.52958e-05
1.24677e-05
-6.60005e-05
1.2106e-05
-6.66256e-05
1.1732e-05
-6.71614e-05
1.13434e-05
-6.75975e-05
1.09363e-05
-6.79231e-05
1.05051e-05
-6.81278e-05
1.00421e-05
-6.82023e-05
9.5373e-06
-6.81393e-05
8.97832e-06
-6.79356e-05
8.35061e-06
7.63833e-06
-6.75925e-05
-6.32501e-07
8.85972e-06
-1.82621e-06
1.66499e-05
-3.23872e-06
1.96789e-05
-4.72285e-06
2.06711e-05
-6.22616e-06
2.09369e-05
-7.73314e-06
2.0987e-05
-9.2398e-06
2.0981e-05
-1.07451e-05
2.09597e-05
-1.22485e-05
2.09316e-05
-1.37497e-05
2.08984e-05
-1.52485e-05
2.08602e-05
-1.67443e-05
2.0817e-05
-1.8237e-05
2.07686e-05
-1.97262e-05
2.07149e-05
-2.12114e-05
2.06558e-05
-2.26924e-05
2.05912e-05
-2.41688e-05
2.05208e-05
-2.56401e-05
2.04445e-05
-2.7106e-05
2.03621e-05
-2.85661e-05
2.02733e-05
-3.00198e-05
2.01781e-05
-3.14668e-05
2.0076e-05
-3.29065e-05
1.9967e-05
-3.43385e-05
1.98506e-05
-3.57622e-05
1.97267e-05
-3.7177e-05
1.95949e-05
-3.85823e-05
1.9455e-05
-3.99775e-05
1.93066e-05
-4.13619e-05
1.91493e-05
-4.27347e-05
1.8983e-05
-4.40951e-05
1.88071e-05
-4.54423e-05
1.86214e-05
-4.67753e-05
1.84256e-05
-4.80932e-05
1.82192e-05
-4.93946e-05
1.8002e-05
-5.06786e-05
1.77736e-05
-5.19436e-05
1.75337e-05
-5.31882e-05
1.7282e-05
-5.44107e-05
1.70183e-05
-5.56093e-05
1.67422e-05
-5.67819e-05
1.64536e-05
-5.79262e-05
1.61523e-05
-5.90395e-05
1.5838e-05
-6.01189e-05
1.55107e-05
-6.1161e-05
1.517e-05
-6.2162e-05
1.48158e-05
-6.31174e-05
1.44477e-05
-6.40225e-05
1.40653e-05
-6.48715e-05
1.36679e-05
-6.56582e-05
1.32544e-05
-6.63755e-05
1.28233e-05
-6.70158e-05
1.23724e-05
-6.75709e-05
1.18985e-05
-6.80319e-05
1.13974e-05
-6.83903e-05
1.08635e-05
-6.86378e-05
1.02895e-05
-6.87672e-05
9.6667e-06
-6.87734e-05
8.98453e-06
-6.8654e-05
8.23127e-06
7.39459e-06
-6.84103e-05
-6.32219e-07
9.49194e-06
-1.828e-06
1.78457e-05
-3.24417e-06
2.1095e-05
-4.73262e-06
2.21596e-05
-6.24047e-06
2.24447e-05
-7.75208e-06
2.24986e-05
-9.26345e-06
2.24924e-05
-1.07735e-05
2.24697e-05
-1.22818e-05
2.24399e-05
-1.3788e-05
2.24046e-05
-1.52917e-05
2.2364e-05
-1.67928e-05
2.2318e-05
-1.82907e-05
2.22666e-05
-1.97853e-05
2.22095e-05
-2.12761e-05
2.21467e-05
-2.27629e-05
2.20779e-05
-2.42452e-05
2.20031e-05
-2.57226e-05
2.19219e-05
-2.71948e-05
2.18343e-05
-2.86614e-05
2.17399e-05
-3.01219e-05
2.16386e-05
-3.15759e-05
2.153e-05
-3.30229e-05
2.1414e-05
-3.44625e-05
2.12902e-05
-3.5894e-05
2.11582e-05
-3.7317e-05
2.10179e-05
-3.87308e-05
2.08688e-05
-4.01348e-05
2.07106e-05
-4.15283e-05
2.05429e-05
-4.29106e-05
2.03652e-05
-4.42809e-05
2.01774e-05
-4.56383e-05
1.99788e-05
-4.69818e-05
1.97691e-05
-4.83104e-05
1.95478e-05
-4.96231e-05
1.93146e-05
-5.09185e-05
1.9069e-05
-5.21953e-05
1.88105e-05
-5.34519e-05
1.85387e-05
-5.46867e-05
1.82531e-05
-5.58979e-05
1.79534e-05
-5.70832e-05
1.7639e-05
-5.82404e-05
1.73095e-05
-5.93669e-05
1.69645e-05
-6.04596e-05
1.66034e-05
-6.15153e-05
1.62257e-05
-6.25301e-05
1.58307e-05
-6.35e-05
1.54176e-05
-6.44202e-05
1.49855e-05
-6.52855e-05
1.45332e-05
-6.60901e-05
1.4059e-05
-6.68277e-05
1.35609e-05
-6.74915e-05
1.30361e-05
-6.80743e-05
1.24813e-05
-6.85688e-05
1.18919e-05
-6.89679e-05
1.12625e-05
-6.92649e-05
1.05865e-05
-6.94541e-05
9.85593e-06
-6.95316e-05
9.06201e-06
-6.94954e-05
8.19512e-06
7.24546e-06
-6.93463e-05
-6.31898e-07
1.01238e-05
-1.82987e-06
1.90436e-05
-3.24993e-06
2.25151e-05
-4.74297e-06
2.36526e-05
-6.25566e-06
2.39574e-05
-7.77222e-06
2.40152e-05
-9.28859e-06
2.40088e-05
-1.08037e-05
2.39848e-05
-1.23172e-05
2.39533e-05
-1.38286e-05
2.3916e-05
-1.53377e-05
2.38731e-05
-1.68442e-05
2.38245e-05
-1.83478e-05
2.37702e-05
-1.98482e-05
2.37098e-05
-2.13449e-05
2.36434e-05
-2.28378e-05
2.35708e-05
-2.43264e-05
2.34916e-05
-2.58103e-05
2.34059e-05
-2.72893e-05
2.33132e-05
-2.87628e-05
2.32135e-05
-3.02305e-05
2.31063e-05
-3.1692e-05
2.29915e-05
-3.31469e-05
2.28688e-05
-3.45945e-05
2.27378e-05
-3.60345e-05
2.25982e-05
-3.74662e-05
2.24496e-05
-3.88891e-05
2.22917e-05
-4.03026e-05
2.21241e-05
-4.1706e-05
2.19463e-05
-4.30986e-05
2.17578e-05
-4.44796e-05
2.15583e-05
-4.5848e-05
2.13473e-05
-4.72031e-05
2.11242e-05
-4.85437e-05
2.08885e-05
-4.98688e-05
2.06397e-05
-5.11771e-05
2.03772e-05
-5.24672e-05
2.01006e-05
-5.37375e-05
1.98091e-05
-5.49866e-05
1.95021e-05
-5.62123e-05
1.91791e-05
-5.74128e-05
1.88394e-05
-5.85855e-05
1.84823e-05
-5.97281e-05
1.8107e-05
-6.08375e-05
1.77128e-05
-6.19105e-05
1.72987e-05
-6.29435e-05
1.68637e-05
-6.39325e-05
1.64066e-05
-6.48731e-05
1.59262e-05
-6.57605e-05
1.54206e-05
-6.65893e-05
1.48878e-05
-6.73538e-05
1.43254e-05
-6.80481e-05
1.37304e-05
-6.86659e-05
1.30991e-05
-6.92009e-05
1.24269e-05
-6.96471e-05
1.17087e-05
-6.9999e-05
1.09383e-05
-7.02519e-05
1.01088e-05
-7.04024e-05
9.21253e-06
-7.04488e-05
8.24151e-06
7.18779e-06
-7.03911e-05
-6.31529e-07
1.07554e-05
-1.8318e-06
2.02439e-05
-3.25597e-06
2.39393e-05
-4.75388e-06
2.51505e-05
-6.27169e-06
2.54752e-05
-7.79347e-06
2.55369e-05
-9.31514e-06
2.55304e-05
-1.08356e-05
2.55053e-05
-1.23545e-05
2.54722e-05
-1.38715e-05
2.5433e-05
-1.53864e-05
2.53879e-05
-1.68987e-05
2.53369e-05
-1.84082e-05
2.52797e-05
-1.99146e-05
2.52163e-05
-2.14177e-05
2.51465e-05
-2.2917e-05
2.50701e-05
-2.44122e-05
2.49869e-05
-2.5903e-05
2.48967e-05
-2.73891e-05
2.47993e-05
-2.887e-05
2.46944e-05
-3.03454e-05
2.45817e-05
-3.18149e-05
2.4461e-05
-3.32779e-05
2.43319e-05
-3.47342e-05
2.41941e-05
-3.61831e-05
2.40471e-05
-3.76242e-05
2.38907e-05
-3.90569e-05
2.37244e-05
-4.04806e-05
2.35478e-05
-4.18946e-05
2.33603e-05
-4.32982e-05
2.31615e-05
-4.46908e-05
2.29508e-05
-4.60713e-05
2.27278e-05
-4.74389e-05
2.24918e-05
-4.87927e-05
2.22422e-05
-5.01314e-05
2.19784e-05
-5.14539e-05
2.16997e-05
-5.27588e-05
2.14055e-05
-5.40446e-05
2.10949e-05
-5.53097e-05
2.07672e-05
-5.65522e-05
2.04216e-05
-5.77701e-05
2.00573e-05
-5.8961e-05
1.96733e-05
-6.01226e-05
1.92686e-05
-6.12519e-05
1.88421e-05
-6.23458e-05
1.83926e-05
-6.3401e-05
1.79188e-05
-6.44136e-05
1.74192e-05
-6.53795e-05
1.6892e-05
-6.62941e-05
1.63352e-05
-6.71528e-05
1.57465e-05
-6.79503e-05
1.51229e-05
-6.86812e-05
1.44614e-05
-6.93401e-05
1.3758e-05
-6.99216e-05
1.30084e-05
-7.04203e-05
1.22075e-05
-7.08316e-05
1.13496e-05
-7.11514e-05
1.04286e-05
-7.13766e-05
9.43777e-06
-7.15055e-05
8.37037e-06
7.21977e-06
-7.15374e-05
-6.31103e-07
1.13865e-05
-1.83378e-06
2.14466e-05
-3.26227e-06
2.53677e-05
-4.7653e-06
2.66536e-05
-6.2885e-06
2.69984e-05
-7.81578e-06
2.70642e-05
-9.34303e-06
2.70577e-05
-1.08692e-05
2.70315e-05
-1.23938e-05
2.69969e-05
-1.39167e-05
2.69559e-05
-1.54375e-05
2.69087e-05
-1.69559e-05
2.68553e-05
-1.84717e-05
2.67955e-05
-1.99845e-05
2.67291e-05
-2.14941e-05
2.66561e-05
-2.30002e-05
2.65761e-05
-2.45025e-05
2.64891e-05
-2.60005e-05
2.63948e-05
-2.74941e-05
2.62928e-05
-2.89828e-05
2.61831e-05
-3.04662e-05
2.60652e-05
-3.19441e-05
2.59388e-05
-3.34159e-05
2.58037e-05
-3.48812e-05
2.56594e-05
-3.63397e-05
2.55056e-05
-3.77907e-05
2.53417e-05
-3.92337e-05
2.51675e-05
-4.06682e-05
2.49823e-05
-4.20935e-05
2.47856e-05
-4.3509e-05
2.4577e-05
-4.49139e-05
2.43557e-05
-4.63075e-05
2.41213e-05
-4.76887e-05
2.3873e-05
-4.90567e-05
2.36102e-05
-5.04103e-05
2.3332e-05
-5.17484e-05
2.30378e-05
-5.30696e-05
2.27267e-05
-5.43725e-05
2.23978e-05
-5.56555e-05
2.20502e-05
-5.69168e-05
2.16829e-05
-5.81544e-05
2.12949e-05
-5.9366e-05
2.08849e-05
-6.05494e-05
2.04519e-05
-6.17017e-05
1.99944e-05
-6.28201e-05
1.95109e-05
-6.39011e-05
1.89999e-05
-6.49414e-05
1.84595e-05
-6.59371e-05
1.78877e-05
-6.68839e-05
1.72821e-05
-6.77775e-05
1.66401e-05
-6.86133e-05
1.59586e-05
-6.93863e-05
1.52344e-05
-7.00917e-05
1.44634e-05
-7.07247e-05
1.36413e-05
-7.12806e-05
1.27634e-05
-7.17552e-05
1.18242e-05
-7.21449e-05
1.08183e-05
-7.24466e-05
9.73954e-06
-7.26585e-05
8.58223e-06
7.34065e-06
-7.27794e-05
-6.30614e-07
1.20171e-05
-1.83578e-06
2.26517e-05
-3.26879e-06
2.68008e-05
-4.77719e-06
2.8162e-05
-6.30604e-06
2.85273e-05
-7.83909e-06
2.85973e-05
-9.37218e-06
2.85908e-05
-1.09043e-05
2.85636e-05
-1.24349e-05
2.85276e-05
-1.39639e-05
2.84849e-05
-1.54909e-05
2.84357e-05
-1.70157e-05
2.83801e-05
-1.85381e-05
2.83178e-05
-2.00576e-05
2.82487e-05
-2.15741e-05
2.81726e-05
-2.30873e-05
2.80893e-05
-2.45969e-05
2.79987e-05
-2.61025e-05
2.79004e-05
-2.76039e-05
2.77942e-05
-2.91008e-05
2.76799e-05
-3.05927e-05
2.75571e-05
-3.20793e-05
2.74255e-05
-3.35603e-05
2.72847e-05
-3.50352e-05
2.71343e-05
-3.65036e-05
2.6974e-05
-3.79651e-05
2.68032e-05
-3.9419e-05
2.66214e-05
-4.0865e-05
2.64282e-05
-4.23023e-05
2.6223e-05
-4.37304e-05
2.60051e-05
-4.51486e-05
2.57739e-05
-4.65559e-05
2.55287e-05
-4.79517e-05
2.52688e-05
-4.9335e-05
2.49935e-05
-5.07047e-05
2.47017e-05
-5.20597e-05
2.43928e-05
-5.33987e-05
2.40657e-05
-5.47204e-05
2.37194e-05
-5.60231e-05
2.33529e-05
-5.73052e-05
2.2965e-05
-5.85647e-05
2.25544e-05
-5.97995e-05
2.21198e-05
-6.10074e-05