/*--------------------------------*- C++ -*----------------------------------*\
  =========                 |
  \\      /  F ield         | OpenFOAM: The Open Source CFD Toolbox
   \\    /   O peration     | Website:  https://openfoam.org
    \\  /    A nd           | Version:  8
     \\/     M anipulation  |
\*---------------------------------------------------------------------------*/
FoamFile
{
    version     2.0;
    format      ascii;
    class       volVectorField;
    location    "30.5";
    object      U;
}
// * * * * * * * * * * * * * * * * * * * * * * * * * * * * * * * * * * * * * //

dimensions      [0 1 -1 0 0 0 0];

internalField   nonuniform List<vector> 
11600
(
(-3.43259e-06 3.35359e-06 0)
(-3.70791e-05 1.33553e-05 0)
(-9.51804e-05 1.71051e-05 0)
(-0.000154109 1.81583e-05 0)
(-0.000216107 1.82044e-05 0)
(-0.000277934 1.80863e-05 0)
(-0.000339654 1.80228e-05 0)
(-0.000401336 1.80125e-05 0)
(-0.000463006 1.80325e-05 0)
(-0.000524682 1.80689e-05 0)
(-0.000586378 1.81147e-05 0)
(-0.000648095 1.81668e-05 0)
(-0.000709837 1.82235e-05 0)
(-0.000771602 1.82841e-05 0)
(-0.000833388 1.83481e-05 0)
(-0.000895193 1.8415e-05 0)
(-0.000957011 1.84845e-05 0)
(-0.00101884 1.8556e-05 0)
(-0.00108067 1.86292e-05 0)
(-0.0011425 1.87036e-05 0)
(-0.00120431 1.87789e-05 0)
(-0.00126611 1.88545e-05 0)
(-0.00132787 1.89299e-05 0)
(-0.00138959 1.90046e-05 0)
(-0.00145125 1.90781e-05 0)
(-0.00151284 1.91499e-05 0)
(-0.00157435 1.92195e-05 0)
(-0.00163576 1.92862e-05 0)
(-0.00169705 1.93495e-05 0)
(-0.00175821 1.94091e-05 0)
(-0.00181921 1.94643e-05 0)
(-0.00188003 1.95148e-05 0)
(-0.00194067 1.95602e-05 0)
(-0.00200109 1.96003e-05 0)
(-0.00206127 1.96349e-05 0)
(-0.00212121 1.96642e-05 0)
(-0.00218088 1.96884e-05 0)
(-0.00224027 1.97081e-05 0)
(-0.00229937 1.97242e-05 0)
(-0.00235817 1.97383e-05 0)
(-0.00241669 1.97524e-05 0)
(-0.00247494 1.97694e-05 0)
(-0.00253294 1.97932e-05 0)
(-0.00259075 1.98289e-05 0)
(-0.00264844 1.98835e-05 0)
(-0.00270612 1.99654e-05 0)
(-0.00276394 2.00855e-05 0)
(-0.00282211 2.02564e-05 0)
(-0.00288094 2.04914e-05 0)
(-0.00294081 2.08002e-05 0)
(-0.0030023 2.11784e-05 0)
(-0.00306613 2.15841e-05 0)
(-0.00313331 2.18931e-05 0)
(-0.00320532 2.18206e-05 0)
(-0.00328514 2.10009e-05 0)
(-0.00337559 2.05094e-05 0)
(-0.0034663 2.79575e-05 0)
(-0.00371662 6.17585e-05 0)
(-0.00378294 0.000366971 0)
(-0.00519532 0.00126772 0)
(-1.37002e-05 3.71933e-05 0)
(-8.27961e-05 8.20443e-05 0)
(-0.000190785 9.99409e-05 0)
(-0.000301073 0.000105942 0)
(-0.000416772 0.000107324 0)
(-0.000532799 0.000107469 0)
(-0.000648868 0.000107419 0)
(-0.000764922 0.000107376 0)
(-0.000880894 0.000107356 0)
(-0.000996755 0.000107349 0)
(-0.00111249 0.000107346 0)
(-0.00122808 0.000107341 0)
(-0.00134351 0.000107332 0)
(-0.00145875 0.000107317 0)
(-0.00157379 0.000107293 0)
(-0.0016886 0.000107258 0)
(-0.00180315 0.000107212 0)
(-0.00191743 0.000107152 0)
(-0.0020314 0.000107078 0)
(-0.00214503 0.000106987 0)
(-0.0022583 0.000106877 0)
(-0.00237117 0.000106748 0)
(-0.00248362 0.000106596 0)
(-0.0025956 0.00010642 0)
(-0.00270708 0.000106218 0)
(-0.00281803 0.000105989 0)
(-0.00292841 0.000105731 0)
(-0.00303817 0.000105442 0)
(-0.00314728 0.00010512 0)
(-0.0032557 0.000104764 0)
(-0.00336338 0.000104374 0)
(-0.00347029 0.000103949 0)
(-0.00357638 0.000103489 0)
(-0.00368162 0.000102994 0)
(-0.00378596 0.000102467 0)
(-0.00388938 0.00010191 0)
(-0.00399184 0.000101329 0)
(-0.00409333 0.000100729 0)
(-0.00419384 0.00010012 0)
(-0.00429335 9.95134e-05 0)
(-0.00439191 9.89274e-05 0)
(-0.00448953 9.83838e-05 0)
(-0.0045863 9.79128e-05 0)
(-0.00468232 9.7554e-05 0)
(-0.00477775 9.73607e-05 0)
(-0.00487282 9.74043e-05 0)
(-0.00496786 9.77813e-05 0)
(-0.00506332 9.86238e-05 0)
(-0.00515981 0.000100115 0)
(-0.00525824 0.000102511 0)
(-0.00535986 0.000106181 0)
(-0.0054665 0.000111667 0)
(-0.00558089 0.000119806 0)
(-0.00570744 0.00013201 0)
(-0.00585331 0.000151279 0)
(-0.00602726 0.000185812 0)
(-0.00624647 0.000255755 0)
(-0.00659891 0.000399969 0)
(-0.00689215 0.000881524 0)
(-0.00773845 0.00159324 0)
(-1.77248e-05 9.62232e-05 0)
(-0.00010174 0.000190477 0)
(-0.000230816 0.00022856 0)
(-0.000362071 0.000241682 0)
(-0.000499337 0.000245223 0)
(-0.000636941 0.000245905 0)
(-0.000774553 0.000245901 0)
(-0.000912099 0.000245757 0)
(-0.00104949 0.00024558 0)
(-0.00118668 0.000245382 0)
(-0.00132363 0.000245157 0)
(-0.00146032 0.000244902 0)
(-0.00159672 0.000244613 0)
(-0.00173278 0.000244285 0)
(-0.00186848 0.000243916 0)
(-0.00200377 0.000243503 0)
(-0.00213863 0.000243043 0)
(-0.00227301 0.000242532 0)
(-0.00240688 0.000241969 0)
(-0.00254019 0.000241349 0)
(-0.0026729 0.00024067 0)
(-0.00280497 0.000239929 0)
(-0.00293635 0.000239121 0)
(-0.003067 0.000238244 0)
(-0.00319687 0.000237295 0)
(-0.00332591 0.000236271 0)
(-0.00345408 0.000235167 0)
(-0.00358132 0.000233983 0)
(-0.00370758 0.000232716 0)
(-0.00383281 0.000231364 0)
(-0.00395696 0.000229927 0)
(-0.00407997 0.000228405 0)
(-0.00420181 0.0002268 0)
(-0.00432242 0.000225114 0)
(-0.00444175 0.000223355 0)
(-0.00455977 0.000221529 0)
(-0.00467645 0.000219651 0)
(-0.00479175 0.000217735 0)
(-0.00490567 0.000215805 0)
(-0.0050182 0.000213892 0)
(-0.00512938 0.000212036 0)
(-0.00523923 0.00021029 0)
(-0.00534784 0.000208725 0)
(-0.00545534 0.000207435 0)
(-0.00556189 0.000206544 0)
(-0.00566776 0.000206219 0)
(-0.00577329 0.000206686 0)
(-0.00587896 0.000208257 0)
(-0.00598545 0.000211364 0)
(-0.00609364 0.000216629 0)
(-0.00620481 0.000224957 0)
(-0.00632066 0.000237725 0)
(-0.00644365 0.000257102 0)
(-0.00657736 0.000286727 0)
(-0.00672679 0.000333364 0)
(-0.00689764 0.000410434 0)
(-0.00710045 0.000542729 0)
(-0.00735835 0.00078141 0)
(-0.00754327 0.00127208 0)
(-0.00787474 0.00193618 0)
(-1.89331e-05 0.000156635 0)
(-0.000108414 0.000302008 0)
(-0.000245283 0.000360237 0)
(-0.000383825 0.000379998 0)
(-0.00052853 0.000385374 0)
(-0.000673489 0.000386429 0)
(-0.000818429 0.000386395 0)
(-0.000963288 0.000386101 0)
(-0.00110797 0.00038572 0)
(-0.00125241 0.000385279 0)
(-0.00139657 0.000384776 0)
(-0.00154043 0.000384207 0)
(-0.00168392 0.000383566 0)
(-0.00182703 0.000382849 0)
(-0.0019697 0.000382053 0)
(-0.0021119 0.000381173 0)
(-0.00225357 0.000380206 0)
(-0.00239469 0.000379147 0)
(-0.00253521 0.000377992 0)
(-0.00267507 0.000376737 0)
(-0.00281424 0.000375377 0)
(-0.00295266 0.000373908 0)
(-0.00309029 0.000372325 0)
(-0.00322707 0.000370625 0)
(-0.00336296 0.000368802 0)
(-0.0034979 0.000366852 0)
(-0.00363183 0.000364772 0)
(-0.00376471 0.000362559 0)
(-0.00389647 0.000360209 0)
(-0.00402707 0.000357722 0)
(-0.00415644 0.000355097 0)
(-0.00428453 0.000352335 0)
(-0.00441128 0.000349439 0)
(-0.00453665 0.000346416 0)
(-0.00466059 0.000343276 0)
(-0.00478305 0.000340031 0)
(-0.00490399 0.000336702 0)
(-0.00502339 0.000333315 0)
(-0.00514121 0.000329905 0)
(-0.00525747 0.00032652 0)
(-0.00537216 0.000323221 0)
(-0.00548532 0.00032009 0)
(-0.00559701 0.000317234 0)
(-0.00570735 0.000314793 0)
(-0.00581647 0.000312953 0)
(-0.00592461 0.000311962 0)
(-0.00603205 0.000312151 0)
(-0.0061392 0.000313969 0)
(-0.00624662 0.000318035 0)
(-0.00635505 0.000325213 0)
(-0.00646546 0.000336734 0)
(-0.00657916 0.00035439 0)
(-0.00669783 0.000380869 0)
(-0.00682365 0.000420351 0)
(-0.00695891 0.000479723 0)
(-0.00710517 0.000570545 0)
(-0.00726309 0.000711614 0)
(-0.0074231 0.000937111 0)
(-0.00751374 0.00130972 0)
(-0.00756444 0.00176229 0)
(-1.90228e-05 0.000220358 0)
(-0.000110102 0.00041935 0)
(-0.000249545 0.000498366 0)
(-0.000390343 0.000524916 0)
(-0.000537364 0.00053217 0)
(-0.00068456 0.000533619 0)
(-0.000831708 0.000533562 0)
(-0.000978761 0.000533114 0)
(-0.00112562 0.000532515 0)
(-0.00127224 0.000531809 0)
(-0.00141856 0.000530998 0)
(-0.00156456 0.000530079 0)
(-0.00171019 0.000529048 0)
(-0.00185541 0.000527899 0)
(-0.00200017 0.000526628 0)
(-0.00214444 0.00052523 0)
(-0.00228816 0.000523701 0)
(-0.0024313 0.000522034 0)
(-0.00257381 0.000520226 0)
(-0.00271564 0.000518269 0)
(-0.00285675 0.000516159 0)
(-0.00299708 0.00051389 0)
(-0.00313658 0.000511455 0)
(-0.00327521 0.000508851 0)
(-0.0034129 0.000506069 0)
(-0.0035496 0.000503107 0)
(-0.00368527 0.000499959 0)
(-0.00381983 0.00049662 0)
(-0.00395324 0.000493088 0)
(-0.00408544 0.000489362 0)
(-0.00421636 0.00048544 0)
(-0.00434595 0.000481325 0)
(-0.00447416 0.000477022 0)
(-0.00460092 0.000472539 0)
(-0.00472619 0.000467889 0)
(-0.0048499 0.00046309 0)
(-0.00497203 0.000458169 0)
(-0.00509253 0.000453159 0)
(-0.00521136 0.000448109 0)
(-0.00532851 0.000443078 0)
(-0.00544397 0.000438148 0)
(-0.00555775 0.000433424 0)
(-0.00566988 0.000429044 0)
(-0.00578044 0.000425188 0)
(-0.00588951 0.00042209 0)
(-0.00599723 0.000420062 0)
(-0.00610382 0.000419516 0)
(-0.00620952 0.000421006 0)
(-0.00631467 0.000425278 0)
(-0.0064197 0.000433358 0)
(-0.00652513 0.000446673 0)
(-0.00663153 0.000467233 0)
(-0.00673948 0.000497919 0)
(-0.00684935 0.00054294 0)
(-0.00696081 0.000608539 0)
(-0.00707179 0.000703841 0)
(-0.00717695 0.000841788 0)
(-0.00726005 0.00104127 0)
(-0.00728052 0.0013209 0)
(-0.00722358 0.00164593 0)
(-1.88831e-05 0.000284001 0)
(-0.000110342 0.000537288 0)
(-0.000250605 0.00063719 0)
(-0.000392089 0.000670478 0)
(-0.000539844 0.000679541 0)
(-0.000687722 0.000681335 0)
(-0.000835532 0.000681229 0)
(-0.00098324 0.000680614 0)
(-0.00113075 0.000679792 0)
(-0.00127801 0.000678818 0)
(-0.00142499 0.000677697 0)
(-0.00157163 0.000676426 0)
(-0.00171791 0.000675002 0)
(-0.00186377 0.000673418 0)
(-0.00200917 0.000671669 0)
(-0.00215408 0.00066975 0)
(-0.00229844 0.000667654 0)
(-0.00244222 0.000665376 0)
(-0.00258536 0.000662909 0)
(-0.00272782 0.000660246 0)
(-0.00286955 0.00065738 0)
(-0.0030105 0.000654305 0)
(-0.00315062 0.000651013 0)
(-0.00328986 0.000647497 0)
(-0.00342816 0.000643751 0)
(-0.00356547 0.000639768 0)
(-0.00370173 0.000635542 0)
(-0.00383688 0.000631068 0)
(-0.00397086 0.000626343 0)
(-0.00410362 0.000621363 0)
(-0.0042351 0.000616129 0)
(-0.00436523 0.000610643 0)
(-0.00449395 0.000604911 0)
(-0.0046212 0.000598941 0)
(-0.00474692 0.000592749 0)
(-0.00487107 0.000586356 0)
(-0.00499357 0.000579794 0)
(-0.00511438 0.000573102 0)
(-0.00523346 0.000566335 0)
(-0.00535076 0.000559565 0)
(-0.00546626 0.000552885 0)
(-0.00557995 0.000546418 0)
(-0.0056918 0.00054032 0)
(-0.00580184 0.000534797 0)
(-0.00591009 0.000530114 0)
(-0.00601661 0.000526616 0)
(-0.00612148 0.000524757 0)
(-0.00622477 0.00052513 0)
(-0.00632662 0.000528522 0)
(-0.00642711 0.000535979 0)
(-0.00652631 0.000548903 0)
(-0.00662417 0.000569182 0)
(-0.00672035 0.000599366 0)
(-0.006814 0.000642903 0)
(-0.00690313 0.000704414 0)
(-0.00698387 0.000789851 0)
(-0.00704889 0.000906472 0)
(-0.00708354 0.00106225 0)
(-0.00706369 0.00125932 0)
(-0.00696931 0.00147815 0)
(-1.8768e-05 0.000347536 0)
(-0.000110305 0.000655429 0)
(-0.000250871 0.000776288 0)
(-0.000392629 0.000816326 0)
(-0.000540702 0.00082718 0)
(-0.000688873 0.000829301 0)
(-0.000836969 0.000829137 0)
(-0.000984957 0.000828352 0)
(-0.00113275 0.000827306 0)
(-0.00128029 0.000826065 0)
(-0.00142755 0.000824636 0)
(-0.00157448 0.000823016 0)
(-0.00172104 0.000821201 0)
(-0.00186719 0.000819184 0)
(-0.0020129 0.000816961 0)
(-0.0021581 0.000814523 0)
(-0.00230277 0.000811865 0)
(-0.00244686 0.000808978 0)
(-0.00259032 0.000805856 0)
(-0.0027331 0.00080249 0)
(-0.00287516 0.000798872 0)
(-0.00301645 0.000794994 0)
(-0.00315691 0.000790847 0)
(-0.00329649 0.000786423 0)
(-0.00343513 0.000781714 0)
(-0.00357279 0.000776711 0)
(-0.0037094 0.000771409 0)
(-0.00384491 0.000765799 0)
(-0.00397926 0.000759878 0)
(-0.00411237 0.000753642 0)
(-0.0042442 0.000747089 0)
(-0.00437467 0.000740222 0)
(-0.00450373 0.000733045 0)
(-0.0046313 0.000725568 0)
(-0.00475732 0.000717808 0)
(-0.00488173 0.000709787 0)
(-0.00500445 0.000701537 0)
(-0.00512544 0.000693104 0)
(-0.00524462 0.000684544 0)
(-0.00536193 0.000675937 0)
(-0.00547733 0.000667381 0)
(-0.00559076 0.000659006 0)
(-0.00570217 0.00065098 0)
(-0.00581152 0.000643518 0)
(-0.00591877 0.000636894 0)
(-0.00602388 0.000631464 0)
(-0.00612679 0.000627683 0)
(-0.00622745 0.000626136 0)
(-0.00632575 0.00062758 0)
(-0.00642151 0.000632992 0)
(-0.00651442 0.00064363 0)
(-0.00660394 0.000661112 0)
(-0.00668914 0.000687498 0)
(-0.00676842 0.000725365 0)
(-0.00683909 0.000777824 0)
(-0.0068968 0.000848342 0)
(-0.00693458 0.000940289 0)
(-0.0069413 0.00105568 0)
(-0.00690194 0.0011911 0)
(-0.00680237 0.00133324 0)
(-1.86916e-05 0.000411002 0)
(-0.000110254 0.000773716 0)
(-0.000250999 0.000915608 0)
(-0.000392956 0.000962436 0)
(-0.000541265 0.000975084 0)
(-0.000689664 0.000977526 0)
(-0.000837985 0.000977299 0)
(-0.000986198 0.000976343 0)
(-0.00113421 0.000975074 0)
(-0.00128198 0.000973569 0)
(-0.00142947 0.000971835 0)
(-0.00157664 0.000969871 0)
(-0.00172344 0.00096767 0)
(-0.00186984 0.000965226 0)
(-0.0020158 0.000962533 0)
(-0.00216127 0.000959583 0)
(-0.0023062 0.000956368 0)
(-0.00245057 0.000952879 0)
(-0.00259431 0.000949109 0)
(-0.00273738 0.000945047 0)
(-0.00287974 0.000940683 0)
(-0.00302133 0.000936009 0)
(-0.00316211 0.000931015 0)
(-0.00330201 0.000925689 0)
(-0.00344099 0.000920023 0)
(-0.00357899 0.000914007 0)
(-0.00371596 0.000907632 0)
(-0.00385182 0.00090089 0)
(-0.00398652 0.000893775 0)
(-0.00412 0.000886281 0)
(-0.00425218 0.000878406 0)
(-0.00438301 0.000870149 0)
(-0.00451241 0.000861516 0)
(-0.00464032 0.000852515 0)
(-0.00476666 0.000843161 0)
(-0.00489135 0.000833476 0)
(-0.00501432 0.000823493 0)
(-0.0051355 0.000813255 0)
(-0.00525481 0.000802823 0)
(-0.00537216 0.000792273 0)
(-0.00548747 0.000781706 0)
(-0.00560066 0.000771251 0)
(-0.00571165 0.000761076 0)
(-0.00582032 0.000751391 0)
(-0.00592658 0.000742463 0)
(-0.0060303 0.000734633 0)
(-0.00613132 0.000728328 0)
(-0.00622943 0.000724086 0)
(-0.00632436 0.000722585 0)
(-0.00641572 0.000724667 0)
(-0.00650291 0.000731378 0)
(-0.00658511 0.000743991 0)
(-0.00666102 0.000764026 0)
(-0.00672876 0.000793224 0)
(-0.0067855 0.000833442 0)
(-0.00682717 0.000886371 0)
(-0.00684799 0.00095301 0)
(-0.00684005 0.0010326 0)
(-0.00679405 0.00112045 0)
(-0.0067016 0.00120634 0)
(-1.86353e-05 0.000474415 0)
(-0.000110225 0.000892103 0)
(-0.000251139 0.00105511 0)
(-0.000393302 0.00110877 0)
(-0.00054185 0.00112322 0)
(-0.00069049 0.00112598 0)
(-0.000839052 0.0011257 0)
(-0.000987507 0.00112457 0)
(-0.00113577 0.00112308 0)
(-0.00128379 0.00112131 0)
(-0.00143153 0.00111928 0)
(-0.00157895 0.00111697 0)
(-0.00172602 0.00111439 0)
(-0.00187269 0.00111153 0)
(-0.00201892 0.00110837 0)
(-0.00216467 0.00110492 0)
(-0.00230991 0.00110116 0)
(-0.00245457 0.00109707 0)
(-0.00259863 0.00109266 0)
(-0.00274203 0.00108792 0)
(-0.00288472 0.00108282 0)
(-0.00302666 0.00107736 0)
(-0.00316779 0.00107152 0)
(-0.00330806 0.00106531 0)
(-0.00344742 0.00105869 0)
(-0.0035858 0.00105167 0)
(-0.00372316 0.00104423 0)
(-0.00385942 0.00103636 0)
(-0.00399454 0.00102806 0)
(-0.00412843 0.00101931 0)
(-0.00426103 0.00101011 0)
(-0.00439228 0.00100046 0)
(-0.00452209 0.000990361 0)
(-0.00465039 0.000979819 0)
(-0.00477711 0.000968847 0)
(-0.00490216 0.000957465 0)
(-0.00502545 0.000945703 0)
(-0.00514689 0.000933601 0)
(-0.00526639 0.000921215 0)
(-0.00538385 0.000908619 0)
(-0.00549916 0.000895908 0)
(-0.00561221 0.000883204 0)
(-0.00572286 0.000870663 0)
(-0.00583096 0.000858481 0)
(-0.00593636 0.000846903 0)
(-0.00603885 0.000836235 0)
(-0.00613819 0.000826856 0)
(-0.00623405 0.000819233 0)
(-0.00632603 0.000813931 0)
(-0.00641359 0.000811633 0)
(-0.00649598 0.000813146 0)
(-0.0065722 0.000819399 0)
(-0.00664083 0.000831416 0)
(-0.00669996 0.000850247 0)
(-0.00674695 0.00087682 0)
(-0.00677833 0.000911666 0)
(-0.00678959 0.000954474 0)
(-0.00677528 0.00100337 0)
(-0.0067297 0.00105384 0)
(-0.00664831 0.00109815 0)
(-1.85863e-05 0.000537791 0)
(-0.000110214 0.00101059 0)
(-0.000251315 0.00119481 0)
(-0.000393709 0.00125534 0)
(-0.000542523 0.0012716 0)
(-0.000691431 0.0012747 0)
(-0.000840264 0.00127435 0)
(-0.000988994 0.00127305 0)
(-0.00113753 0.00127134 0)
(-0.00128583 0.00126932 0)
(-0.00143386 0.00126699 0)
(-0.00158158 0.00126435 0)
(-0.00172894 0.0012614 0)
(-0.00187592 0.00125812 0)
(-0.00202247 0.00125452 0)
(-0.00216855 0.00125056 0)
(-0.00231412 0.00124626 0)
(-0.00245914 0.0012416 0)
(-0.00260355 0.00123656 0)
(-0.00274732 0.00123113 0)
(-0.00289039 0.00122531 0)
(-0.00303272 0.00121908 0)
(-0.00317426 0.00121242 0)
(-0.00331495 0.00120532 0)
(-0.00345473 0.00119777 0)
(-0.00359356 0.00118975 0)
(-0.00373137 0.00118126 0)
(-0.0038681 0.00117227 0)
(-0.00400369 0.00116278 0)
(-0.00413806 0.00115278 0)
(-0.00427115 0.00114226 0)
(-0.00440288 0.00113122 0)
(-0.00453318 0.00111965 0)
(-0.00466196 0.00110755 0)
(-0.00478914 0.00109494 0)
(-0.00491463 0.00108183 0)
(-0.00503832 0.00106824 0)
(-0.00516012 0.00105422 0)
(-0.00527992 0.00103981 0)
(-0.0053976 0.00102507 0)
(-0.00551302 0.00101009 0)
(-0.00562605 0.000994977 0)
(-0.00573651 0.000979871 0)
(-0.00584422 0.000964941 0)
(-0.00594897 0.000950402 0)
(-0.00605049 0.000936513 0)
(-0.00614846 0.000923591 0)
(-0.0062425 0.000912014 0)
(-0.00633211 0.000902229 0)
(-0.00641665 0.000894752 0)
(-0.0064953 0.000890159 0)
(-0.00656699 0.00088907 0)
(-0.00663033 0.0008921 0)
(-0.00668352 0.000899773 0)
(-0.00672426 0.000912384 0)
(-0.00674971 0.000929766 0)
(-0.00675651 0.000950975 0)
(-0.00674093 0.00097384 0)
(-0.00669953 0.00099446 0)
(-0.00662995 0.00100708 0)
(-1.85382e-05 0.000601141 0)
(-0.000110214 0.00112921 0)
(-0.000251526 0.00133472 0)
(-0.000394183 0.00140217 0)
(-0.000543292 0.00142027 0)
(-0.0006925 0.00142369 0)
(-0.000841639 0.00142329 0)
(-0.000990677 0.00142183 0)
(-0.00113953 0.00141991 0)
(-0.00128815 0.00141763 0)
(-0.0014365 0.00141501 0)
(-0.00158455 0.00141205 0)
(-0.00173226 0.00140873 0)
(-0.00187958 0.00140505 0)
(-0.00202649 0.001401 0)
(-0.00217294 0.00139656 0)
(-0.00231889 0.00139173 0)
(-0.00246429 0.00138649 0)
(-0.00260911 0.00138084 0)
(-0.00275329 0.00137475 0)
(-0.00289679 0.00136822 0)
(-0.00303957 0.00136122 0)
(-0.00318156 0.00135375 0)
(-0.00332272 0.00134578 0)
(-0.003463 0.00133731 0)
(-0.00360233 0.00132831 0)
(-0.00374066 0.00131877 0)
(-0.00387792 0.00130868 0)
(-0.00401404 0.00129802 0)
(-0.00414897 0.00128678 0)
(-0.00428262 0.00127494 0)
(-0.00441491 0.0012625 0)
(-0.00454578 0.00124945 0)
(-0.00467512 0.00123579 0)
(-0.00480285 0.00122153 0)
(-0.00492887 0.00120666 0)
(-0.00505308 0.00119122 0)
(-0.00517535 0.00117523 0)
(-0.00529557 0.00115872 0)
(-0.00541359 0.00114175 0)
(-0.00552928 0.00112439 0)
(-0.00564245 0.00110673 0)
(-0.00575291 0.00108888 0)
(-0.00586045 0.00107099 0)
(-0.00596481 0.00105323 0)
(-0.00606569 0.0010358 0)
(-0.00616271 0.00101896 0)
(-0.00625543 0.00100298 0)
(-0.00634332 0.000988205 0)
(-0.00642568 0.000974983 0)
(-0.00650169 0.000963691 0)
(-0.00657028 0.00095469 0)
(-0.00663015 0.000948276 0)
(-0.0066797 0.000944602 0)
(-0.00671699 0.000943555 0)
(-0.00673977 0.000944588 0)
(-0.00674555 0.000946506 0)
(-0.00673184 0.000947216 0)
(-0.0066965 0.000943518 0)
(-0.00663839 0.000931173 0)
(-1.84878e-05 0.000664469 0)
(-0.000110221 0.00124796 0)
(-0.000251771 0.00147488 0)
(-0.000394718 0.0015493 0)
(-0.000544155 0.00156925 0)
(-0.000693697 0.00157301 0)
(-0.000843174 0.00157255 0)
(-0.000992555 0.00157093 0)
(-0.00114176 0.0015688 0)
(-0.00129073 0.00156628 0)
(-0.00143944 0.00156338 0)
(-0.00158786 0.0015601 0)
(-0.00173594 0.00155643 0)
(-0.00188366 0.00155235 0)
(-0.00203097 0.00154786 0)
(-0.00217782 0.00154295 0)
(-0.00232419 0.00153761 0)
(-0.00247003 0.00153181 0)
(-0.0026153 0.00152555 0)
(-0.00275994 0.00151881 0)
(-0.00290392 0.00151158 0)
(-0.00304719 0.00150384 0)
(-0.0031897 0.00149557 0)
(-0.00333139 0.00148675 0)
(-0.00347221 0.00147737 0)
(-0.0036121 0.00146741 0)
(-0.00375101 0.00145685 0)
(-0.00388886 0.00144566 0)
(-0.0040256 0.00143384 0)
(-0.00416115 0.00142136 0)
(-0.00429543 0.00140822 0)
(-0.00442838 0.00139439 0)
(-0.00455989 0.00137986 0)
(-0.00468989 0.00136464 0)
(-0.00481827 0.00134871 0)
(-0.00494493 0.00133207 0)
(-0.00506976 0.00131474 0)
(-0.00519263 0.00129674 0)
(-0.0053134 0.00127808 0)
(-0.00543193 0.00125881 0)
(-0.00554805 0.00123898 0)
(-0.00566156 0.00121866 0)
(-0.00577225 0.00119793 0)
(-0.00587988 0.0011769 0)
(-0.00598417 0.0011557 0)
(-0.00608477 0.00113449 0)
(-0.00618129 0.00111344 0)
(-0.00627326 0.00109275 0)
(-0.00636011 0.00107263 0)
(-0.00644117 0.0010533 0)
(-0.00651559 0.00103498 0)
(-0.00658241 0.0010178 0)
(-0.00664042 0.00100185 0)
(-0.00668824 0.000987013 0)
(-0.00672428 0.000972937 0)
(-0.00674677 0.000958894 0)
(-0.00675389 0.000943648 0)
(-0.00674393 0.000925335 0)
(-0.00671558 0.000901401 0)
(-0.00666828 0.0008687 0)
(-1.84336e-05 0.000727776 0)
(-0.000110232 0.00136687 0)
(-0.000252044 0.00161532 0)
(-0.000395313 0.00169675 0)
(-0.000545109 0.00171857 0)
(-0.000695017 0.00172268 0)
(-0.000844865 0.00172217 0)
(-0.000994624 0.0017204 0)
(-0.00114421 0.00171807 0)
(-0.00129357 0.00171531 0)
(-0.00144268 0.00171213 0)
(-0.0015915 0.00170854 0)
(-0.00174001 0.00170452 0)
(-0.00188815 0.00170006 0)
(-0.00203589 0.00169515 0)
(-0.0021832 0.00168978 0)
(-0.00233003 0.00168393 0)
(-0.00247635 0.00167759 0)
(-0.0026221 0.00167074 0)
(-0.00276726 0.00166337 0)
(-0.00291177 0.00165546 0)
(-0.00305558 0.00164699 0)
(-0.00319865 0.00163794 0)
(-0.00334092 0.00162829 0)
(-0.00348234 0.00161802 0)
(-0.00362286 0.00160711 0)
(-0.00376241 0.00159554 0)
(-0.00390092 0.00158328 0)
(-0.00403834 0.00157031 0)
(-0.00417459 0.00155662 0)
(-0.00430959 0.00154218 0)
(-0.00444327 0.00152697 0)
(-0.00457553 0.00151098 0)
(-0.00470628 0.00149419 0)
(-0.00483542 0.00147659 0)
(-0.00496284 0.00145817 0)
(-0.00508841 0.00143894 0)
(-0.00521201 0.00141889 0)
(-0.00533349 0.00139805 0)
(-0.00545269 0.00137642 0)
(-0.00556943 0.00135406 0)
(-0.0056835 0.00133098 0)
(-0.00579467 0.00130726 0)
(-0.00590268 0.00128297 0)
(-0.00600723 0.00125819 0)
(-0.00610795 0.00123301 0)
(-0.00620445 0.00120756 0)
(-0.00629625 0.00118193 0)
(-0.00638276 0.00115627 0)
(-0.00646334 0.00113065 0)
(-0.00653719 0.00110515 0)
(-0.00660341 0.00107978 0)
(-0.00666094 0.00105442 0)
(-0.00670861 0.00102882 0)
(-0.00674511 0.00100249 0)
(-0.00676906 0.000974636 0)
(-0.00677911 0.000944093 0)
(-0.00677408 0.00090926 0)
(-0.00675314 0.000868108 0)
(-0.00671603 0.00081828 0)
(-1.83749e-05 0.00079106 0)
(-0.000110245 0.00148595 0)
(-0.000252343 0.00175606 0)
(-0.000395962 0.00184456 0)
(-0.000546149 0.00186827 0)
(-0.000696456 0.00187273 0)
(-0.000846708 0.00187218 0)
(-0.000996877 0.00187026 0)
(-0.00114688 0.00186773 0)
(-0.00129666 0.00186474 0)
(-0.00144621 0.00186131 0)
(-0.00159547 0.00185741 0)
(-0.00174443 0.00185306 0)
(-0.00189303 0.00184822 0)
(-0.00204125 0.00184291 0)
(-0.00218905 0.00183708 0)
(-0.00233638 0.00183075 0)
(-0.00248322 0.00182388 0)
(-0.00262951 0.00181646 0)
(-0.00277522 0.00180847 0)
(-0.00292031 0.0017999 0)
(-0.00306471 0.00179072 0)
(-0.0032084 0.00178091 0)
(-0.00335131 0.00177045 0)
(-0.00349339 0.00175931 0)
(-0.00363459 0.00174747 0)
(-0.00377484 0.00173491 0)
(-0.00391409 0.0017216 0)
(-0.00405226 0.00170751 0)
(-0.00418928 0.00169262 0)
(-0.00432508 0.0016769 0)
(-0.00445958 0.00166033 0)
(-0.00459268 0.00164289 0)
(-0.00472428 0.00162454 0)
(-0.00485429 0.00160528 0)
(-0.00498258 0.00158508 0)
(-0.00510904 0.00156394 0)
(-0.00523352 0.00154185 0)
(-0.00535587 0.00151879 0)
(-0.00547592 0.00149478 0)
(-0.00559349 0.00146983 0)
(-0.00570835 0.00144395 0)
(-0.00582026 0.00141717 0)
(-0.00592896 0.00138953 0)
(-0.00603413 0.00136106 0)
(-0.0061354 0.00133181 0)
(-0.00623236 0.00130184 0)
(-0.00632455 0.00127118 0)
(-0.0064114 0.00123987 0)
(-0.00649228 0.00120791 0)
(-0.00656647 0.00117525 0)
(-0.00663314 0.0011418 0)
(-0.00669138 0.00110733 0)
(-0.00674017 0.00107148 0)
(-0.00677846 0.00103371 0)
(-0.00680516 0.000993225 0)
(-0.00681926 0.000948974 0)
(-0.00681991 0.000899604 0)
(-0.00680656 0.000843496 0)
(-0.00677909 0.00077886 0)
(-1.83112e-05 0.000854321 0)
(-0.000110258 0.00160521 0)
(-0.000252666 0.00189714 0)
(-0.000396664 0.00199277 0)
(-0.000547273 0.00201837 0)
(-0.000698009 0.0020232 0)
(-0.000848697 0.00202262 0)
(-0.000999309 0.00202055 0)
(-0.00114976 0.00201784 0)
(-0.0013 0.00201463 0)
(-0.00145001 0.00201093 0)
(-0.00159975 0.00200675 0)
(-0.00174919 0.00200207 0)
(-0.0018983 0.00199688 0)
(-0.00204703 0.00199116 0)
(-0.00219536 0.0019849 0)
(-0.00234324 0.00197809 0)
(-0.00249063 0.00197071 0)
(-0.00263751 0.00196274 0)
(-0.00278382 0.00195416 0)
(-0.00292952 0.00194494 0)
(-0.00307457 0.00193508 0)
(-0.00321892 0.00192453 0)
(-0.00336252 0.00191328 0)
(-0.00350532 0.0019013 0)
(-0.00364726 0.00188856 0)
(-0.00378828 0.00187504 0)
(-0.00392832 0.0018607 0)
(-0.00406732 0.00184551 0)
(-0.0042052 0.00182945 0)
(-0.00434188 0.00181248 0)
(-0.00447729 0.00179457 0)
(-0.00461132 0.00177569 0)
(-0.00474388 0.00175581 0)
(-0.00487488 0.00173491 0)
(-0.00500417 0.00171294 0)
(-0.00513165 0.0016899 0)
(-0.00525716 0.00166575 0)
(-0.00538056 0.00164048 0)
(-0.00550166 0.00161408 0)
(-0.00562026 0.00158652 0)
(-0.00573616 0.00155781 0)
(-0.00584909 0.00152794 0)
(-0.00595879 0.0014969 0)
(-0.00606494 0.0014647 0)
(-0.00616717 0.00143134 0)
(-0.00626509 0.00139681 0)
(-0.00635822 0.00136109 0)
(-0.00644604 0.00132414 0)
(-0.00652795 0.00128588 0)
(-0.0066033 0.0012462 0)
(-0.00667133 0.0012049 0)
(-0.00673127 0.00116169 0)
(-0.00678223 0.00111615 0)
(-0.00682336 0.00106774 0)
(-0.00685379 0.00101569 0)
(-0.00687274 0.000959067 0)
(-0.00687956 0.000896735 0)
(-0.00687389 0.000827393 0)
(-0.00685563 0.000749658 0)
(-1.82421e-05 0.000917555 0)
(-0.00011027 0.00172468 0)
(-0.00025301 0.00203856 0)
(-0.000397413 0.00214138 0)
(-0.000548474 0.00216892 0)
(-0.000699671 0.00217412 0)
(-0.000850826 0.00217351 0)
(-0.00100191 0.00217131 0)
(-0.00115284 0.00216841 0)
(-0.00130358 0.00216499 0)
(-0.00145409 0.00216105 0)
(-0.00160434 0.00215658 0)
(-0.0017543 0.00215159 0)
(-0.00190394 0.00214605 0)
(-0.00205322 0.00213995 0)
(-0.00220211 0.00213328 0)
(-0.00235057 0.00212601 0)
(-0.00249857 0.00211814 0)
(-0.00264607 0.00210963 0)
(-0.00279302 0.00210048 0)
(-0.00293939 0.00209064 0)
(-0.00308513 0.00208011 0)
(-0.00323019 0.00206885 0)
(-0.00337454 0.00205684 0)
(-0.00351811 0.00204404 0)
(-0.00366085 0.00203043 0)
(-0.0038027 0.00201598 0)
(-0.00394361 0.00200064 0)
(-0.00408351 0.00198439 0)
(-0.00422232 0.00196719 0)
(-0.00435996 0.00194899 0)
(-0.00449637 0.00192978 0)
(-0.00463143 0.0019095 0)
(-0.00476507 0.00188811 0)
(-0.00489716 0.00186559 0)
(-0.00502759 0.00184188 0)
(-0.00515623 0.00181696 0)
(-0.00528294 0.00179078 0)
(-0.00540755 0.00176331 0)
(-0.00552989 0.00173452 0)
(-0.00564976 0.00170437 0)
(-0.00576693 0.00167283 0)
(-0.00588117 0.00163987 0)
(-0.0059922 0.00160544 0)
(-0.00609969 0.00156952 0)
(-0.00620329 0.00153205 0)
(-0.00630262 0.00149298 0)
(-0.00639722 0.00145224 0)
(-0.0064866 0.00140973 0)
(-0.00657022 0.00136531 0)
(-0.00664745 0.0013188 0)
(-0.00671765 0.00126995 0)
(-0.00678012 0.00121842 0)
(-0.00683412 0.00116378 0)
(-0.00687893 0.00110547 0)
(-0.00691383 0.0010428 0)
(-0.00693822 0.000974926 0)
(-0.00695159 0.000900897 0)
(-0.00695364 0.000819655 0)
(-0.0069443 0.000730113 0)
(-1.81673e-05 0.00098076 0)
(-0.00011028 0.00184436 0)
(-0.000253372 0.00218036 0)
(-0.000398206 0.00229045 0)
(-0.000549749 0.00231994 0)
(-0.000701436 0.00232552 0)
(-0.000853088 0.00232489 0)
(-0.00100468 0.00232255 0)
(-0.00115612 0.00231949 0)
(-0.00130738 0.00231586 0)
(-0.00145842 0.00231168 0)
(-0.00160921 0.00230695 0)
(-0.00175973 0.00230166 0)
(-0.00190993 0.00229579 0)
(-0.0020598 0.00228932 0)
(-0.00220929 0.00228225 0)
(-0.00235838 0.00227455 0)
(-0.00250702 0.0022662 0)
(-0.00265517 0.00225718 0)
(-0.00280281 0.00224747 0)
(-0.00294989 0.00223704 0)
(-0.00309636 0.00222587 0)
(-0.00324219 0.00221393 0)
(-0.00338733 0.00220118 0)
(-0.00353172 0.0021876 0)
(-0.00367532 0.00217315 0)
(-0.00381807 0.0021578 0)
(-0.00395991 0.0021415 0)
(-0.00410078 0.00212422 0)
(-0.00424059 0.00210591 0)
(-0.00437929 0.00208653 0)
(-0.00451678 0.00206605 0)
(-0.00465299 0.0020444 0)
(-0.0047878 0.00202155 0)
(-0.00492111 0.00199744 0)
(-0.0050528 0.00197203 0)
(-0.00518275 0.00194527 0)
(-0.00531081 0.0019171 0)
(-0.00543682 0.00188747 0)
(-0.0055606 0.00185633 0)
(-0.00568195 0.00182361 0)
(-0.00580066 0.00178928 0)
(-0.00591649 0.00175326 0)
(-0.00602914 0.00171548 0)
(-0.00613833 0.00167588 0)
(-0.00624371 0.00163436 0)
(-0.00634489 0.00159084 0)
(-0.00644147 0.00154519 0)
(-0.00653297 0.00149726 0)
(-0.00661888 0.00144687 0)
(-0.00669866 0.00139379 0)
(-0.00677172 0.00133773 0)
(-0.00683743 0.00127833 0)
(-0.00689519 0.00121514 0)
(-0.00694435 0.00114763 0)
(-0.00698434 0.00107515 0)
(-0.00701464 0.000996972 0)
(-0.00703483 0.000912275 0)
(-0.00704467 0.000820189 0)
(-0.00704406 0.000719838 0)
(-1.80865e-05 0.00104393 0)
(-0.000110286 0.00196427 0)
(-0.00025375 0.00232257 0)
(-0.000399041 0.00243999 0)
(-0.000551094 0.00247145 0)
(-0.0007033 0.00247743 0)
(-0.000855478 0.00247678 0)
(-0.0010076 0.00247433 0)
(-0.00115958 0.00247109 0)
(-0.00131139 0.00246727 0)
(-0.00146299 0.00246287 0)
(-0.00161436 0.00245788 0)
(-0.00176546 0.0024523 0)
(-0.00191627 0.00244611 0)
(-0.00206676 0.0024393 0)
(-0.00221689 0.00243184 0)
(-0.00236662 0.00242373 0)
(-0.00251594 0.00241492 0)
(-0.0026648 0.00240542 0)
(-0.00281316 0.00239518 0)
(-0.00296099 0.00238419 0)
(-0.00310824 0.00237241 0)
(-0.00325488 0.00235981 0)
(-0.00340086 0.00234637 0)
(-0.00354614 0.00233203 0)
(-0.00369065 0.00231678 0)
(-0.00383436 0.00230056 0)
(-0.00397719 0.00228334 0)
(-0.0041191 0.00226507 0)
(-0.00426 0.0022457 0)
(-0.00439983 0.00222519 0)
(-0.0045385 0.00220348 0)
(-0.00467593 0.00218051 0)
(-0.00481203 0.00215624 0)
(-0.00494668 0.00213061 0)
(-0.00507977 0.00210354 0)
(-0.00521117 0.00207499 0)
(-0.00534074 0.00204487 0)
(-0.00546832 0.00201313 0)
(-0.00559374 0.0019797 0)
(-0.0057168 0.00194448 0)
(-0.00583729 0.00190741 0)
(-0.00595497 0.0018684 0)
(-0.00606957 0.00182735 0)
(-0.0061808 0.00178415 0)
(-0.00628833 0.00173869 0)
(-0.0063918 0.00169084 0)