0 	-1.55379e-07
1.57135 	-6.93963e-06
3.1427 	-4.63744e-05
4.71405 	-0.000160882
6.28539 	-0.000427239
7.85674 	-0.00104919
9.42809 	-0.00344638
10.9994 	-0.00441364
12.5708 	-0.00394775
14.1421 	0.250954
