0 	0 	0 	0
1.57135 	-0.00278936 	0.00278179 	0
3.1427 	-0.00583406 	0.00603478 	0
4.71405 	-0.00896747 	0.0098569 	0
6.28539 	-0.0123413 	0.0160062 	0
7.85674 	-0.0120679 	0.0308153 	0
9.42809 	0.0201444 	0.0427819 	0
10.9994 	0.0321016 	0.00662801 	0
12.5708 	0.013411 	-0.000102379 	0
14.1421 	0.5 	0 	0
