0 	0 	0 	0
1.57135 	-0.00100298 	0.000942782 	0
3.1427 	-0.00222295 	0.00178206 	0
4.71405 	-0.00377044 	0.00228553 	0
6.28539 	-0.00584052 	0.00228617 	0
7.85674 	-0.0087571 	0.00170888 	0
9.42809 	-0.0132892 	0.00125347 	0
10.9994 	-0.0205936 	0.00548409 	0
12.5708 	0.00138487 	-0.0161005 	0
14.1421 	0.5 	0 	0
