0 	0 	0 	0
1.57135 	-0.00202516 	0.00201726 	0
3.1427 	-0.00426279 	0.00425075 	0
4.71405 	-0.0066472 	0.00665119 	0
6.28539 	-0.00931237 	0.0099864 	0
7.85674 	-0.0111128 	0.0168563 	0
9.42809 	-0.00205676 	0.0294454 	0
10.9994 	0.0220898 	0.0180125 	0
12.5708 	0.012321 	0.00192719 	0
14.1421 	0.5 	0 	0
