/*--------------------------------*- C++ -*----------------------------------*\
  =========                 |
  \\      /  F ield         | OpenFOAM: The Open Source CFD Toolbox
   \\    /   O peration     | Website:  https://openfoam.org
    \\  /    A nd           | Version:  8
     \\/     M anipulation  |
\*---------------------------------------------------------------------------*/
FoamFile
{
    version     2.0;
    format      ascii;
    class       volVectorField;
    location    "8.5";
    object      U;
}
// * * * * * * * * * * * * * * * * * * * * * * * * * * * * * * * * * * * * * //

dimensions      [0 1 -1 0 0 0 0];

internalField   nonuniform List<vector> 
116
(
(-0.0016141 0.00100159 0)
(-0.00625368 0.0013948 0)
(-0.012079 0.00152878 0)
(-0.0186222 0.00168489 0)
(-0.024501 0.002989 0)
(-0.038062 0.0071824 0)
(-0.0025018 0.00700234 0)
(-0.00911852 0.00963917 0)
(-0.0171535 0.0107287 0)
(-0.0256065 0.0123077 0)
(-0.0346991 0.0143297 0)
(-0.0466019 0.0154259 0)
(-0.00184732 0.0117584 0)
(-0.00791186 0.0152983 0)
(-0.0155178 0.0167246 0)
(-0.0234445 0.01835 0)
(-0.03279 0.0213203 0)
(-0.0437964 0.0238798 0)
(-0.00251814 0.0176119 0)
(-0.00860764 0.0249819 0)
(-0.0157761 0.0272406 0)
(-0.0229069 0.031411 0)
(-0.0314986 0.0363272 0)
(-0.0397524 0.040538 0)
(0.00059708 0.0216215 0)
(-0.00341231 0.0268536 0)
(-0.0095718 0.0296441 0)
(-0.0143429 0.0309701 0)
(-0.0239481 0.0375805 0)
(-0.0277171 0.0416656 0)
(-0.00381276 0.0208716 0)
(-0.00751542 0.0373604 0)
(-0.0111477 0.0400996 0)
(-0.013991 0.0474627 0)
(-0.0192585 0.05538 0)
(-0.0196063 0.0635263 0)
(0.00474329 0.0345904 0)
(0.00160986 0.0321096 0)
(-0.00739288 0.0355042 0)
(-0.00420385 0.034418 0)
(-0.0111949 0.0419486 0)
(0.0011221 0.0483839 0)
(0.00517041 0.0107175 0)
(0.00825721 0.0515975 0)
(0.0154476 0.0475568 0)
(0.0138671 0.0542062 0)
(0.0125357 0.05605 0)
(0.0201523 0.0644377 0)
(-0.063094 0.0270048 0)
(-0.0407654 0.017714 0)
(-0.0597744 0.0286733 0)
(-0.0360279 0.0309405 0)
(-0.0286097 0.031495 0)
(0.000352428 0.0336718 0)
(0.0505811 0.100725 0)
(0.0911149 0.0592569 0)
(0.112463 0.0425652 0)
(0.167821 0.0318321 0)
(0.168403 0.0237507 0)
(0.22098 0.0200736 0)
(-0.0422476 0.0282217 0)
(-0.0375744 0.00791046 0)
(-0.0399918 -0.00828411 0)
(-0.0271726 -0.0407243 0)
(-0.0510789 0.0222752 0)
(-0.0516654 0.00757151 0)
(-0.0651066 -0.00712149 0)
(-0.0482402 -0.0843315 0)
(-0.0569611 0.0297471 0)
(-0.0638015 0.0159575 0)
(-0.0875975 -0.00683556 0)
(-0.0386081 -0.162913 0)
(-0.0560316 0.0490856 0)
(-0.0542373 0.0296004 0)
(-0.0818947 -0.0190534 0)
(0.00870902 -0.223266 0)
(-0.0484148 0.0494851 0)
(-0.0396276 0.0276948 0)
(-0.0688863 -0.0523588 0)
(0.0218281 -0.238415 0)
(-0.033496 0.0722231 0)
(-0.0193437 0.0427995 0)
(-0.0493965 -0.0697878 0)
(0.0123713 -0.270538 0)
(-0.00923624 0.0482571 0)
(0.00703817 0.0325834 0)
(-0.02791 -0.0855942 0)
(0.0260027 -0.289309 0)
(0.0211163 0.0747045 0)
(0.0400016 0.0630929 0)
(0.0156525 -0.0723773 0)
(0.0511257 -0.263989 0)
(0.0222842 0.0215002 0)
(0.0752809 0.026783 0)
(0.0795123 -0.0992033 0)
(0.0764682 -0.244977 0)
(0.215233 0.00494248 0)
(0.250513 0.00249579 0)
(0.222492 -0.0309435 0)
(0.152779 -0.0821098 0)
(-0.0013233 -7.24958e-05 0)
(-0.00311653 -0.000750927 0)
(-0.00327905 -0.00118428 0)
(-0.00148987 -0.00155762 0)
(-0.00222036 0.0048619 0)
(-0.00480754 0.0028307 0)
(-0.00492227 -0.000234738 0)
(-0.0023699 -0.00324638 0)
(-0.00439301 0.00646598 0)
(-0.00976233 0.0011811 0)
(-0.0104913 -0.00365008 0)
(-0.0053686 -0.00964914 0)
(-0.00738557 0.020965 0)
(-0.016724 0.00946684 0)
(-0.0177544 -0.00307526 0)
(-0.0110053 -0.0185622 0)
)
;

boundaryField
{
    movingWall
    {
        type            fixedValue;
        value           uniform (1 0 0);
    }
    fixedWalls
    {
        type            noSlip;
    }
    frontAndBack
    {
        type            empty;
    }
}


// ************************************************************************* //
