/*--------------------------------*- C++ -*----------------------------------*\
  =========                 |
  \\      /  F ield         | OpenFOAM: The Open Source CFD Toolbox
   \\    /   O peration     | Website:  https://openfoam.org
    \\  /    A nd           | Version:  8
     \\/     M anipulation  |
\*---------------------------------------------------------------------------*/
FoamFile
{
    version     2.0;
    format      ascii;
    class       volScalarField;
    location    "0.451";
    object      T;
}
// * * * * * * * * * * * * * * * * * * * * * * * * * * * * * * * * * * * * * //

dimensions      [0 0 0 1 0 0 0];

internalField   nonuniform List<scalar> 
100
(
49.9672
5.04654
-4.75231
-2.0098
0.892406
1.34477
0.605629
-0.0288428
-0.330796
-0.226273
94.9932
49.9627
11.8008
-4.23544
-4.76077
-0.779553
1.89598
2.34577
1.88334
0.840536
104.976
88.0817
49.6148
14.9635
-2.45491
-5.76419
-3.31782
-0.783117
0.590359
0.562198
102.042
104.33
84.8867
49.865
17.7926
-0.763602
-6.8932
-6.30029
-4.17735
-1.65409
98.731
105.055
103.716
82.2421
48.8762
19.42
1.92871
-4.32253
-5.23969
-2.7121
98.1735
100.983
107.439
101.197
77.9319
48.1533
23.4799
8.71126
1.69864
-0.27976
99.296
97.9464
103.731
107.427
97.7925
75.4178
49.4621
27.7371
14.1551
4.8902
100.675
97.059
98.6508
106.443
108.305
95.6861
72.3566
46.3812
27.5885
10.837
101.613
97.1912
95.0861
103.887
112.805
107.477
87.1312
59.0894
37.1613
15.1934
102.228
97.9788
92.5919
100.612
114.182
115.08
98.2457
69.3886
45.4158
19.0969
)
;

boundaryField
{
    left
    {
        type            fixedValue;
        value           uniform 100;
    }
    right
    {
        type            zeroGradient;
    }
    up
    {
        type            zeroGradient;
    }
    down
    {
        type            fixedValue;
        value           uniform 0;
    }
    frontAndBack
    {
        type            empty;
    }
}


// ************************************************************************* //
