/*--------------------------------*- C++ -*----------------------------------*\
  =========                 |
  \\      /  F ield         | OpenFOAM: The Open Source CFD Toolbox
   \\    /   O peration     | Website:  https://openfoam.org
    \\  /    A nd           | Version:  8
     \\/     M anipulation  |
\*---------------------------------------------------------------------------*/
FoamFile
{
    version     2.0;
    format      ascii;
    class       volScalarField;
    location    "99";
    object      p;
}
// * * * * * * * * * * * * * * * * * * * * * * * * * * * * * * * * * * * * * //

dimensions      [0 2 -2 0 0 0 0];

internalField   nonuniform List<scalar> 
12504
(
-0.0242193
-0.0269425
-0.032649
-0.0412946
-0.0525441
-0.0659567
-0.0810359
-0.0972163
-0.11387
-0.130339
-0.145979
-0.160198
-0.17249
-0.182458
-0.189826
-0.194441
-0.19626
-0.195343
-0.191842
-0.185987
-0.178072
-0.168444
-0.157482
-0.145572
-0.133092
-0.120392
-0.107782
-0.0955117
-0.0837738
-0.0726903
-0.0623247
-0.0526746
-0.0437199
-0.0353946
-0.0276722
-0.02049
-0.0138854
-0.00782935
-0.00244953
0.00227658
0.00614872
0.00924151
0.0113198
0.0125427
0.0127117
0.0120019
0.0104514
0.00791878
0.00524904
0.00105872
-0.0222571
-0.0250551
-0.030924
-0.0398149
-0.0513788
-0.0651602
-0.0806447
-0.0972457
-0.114312
-0.131164
-0.147137
-0.161625
-0.174115
-0.18421
-0.191638
-0.196249
-0.198009
-0.196984
-0.193331
-0.187288
-0.179154
-0.16929
-0.158087
-0.14594
-0.133239
-0.120346
-0.107577
-0.0951866
-0.0833694
-0.0722485
-0.0618788
-0.0522516
-0.0433383
-0.0350636
-0.0273942
-0.0202601
-0.0136961
-0.00766944
-0.00231042
0.00240533
0.00627075
0.00936357
0.0114388
0.0126627
0.0128245
0.0121086
0.0105437
0.00798827
0.00530381
0.00105288
-0.018271
-0.0212261
-0.0274257
-0.0368147
-0.0490198
-0.0635541
-0.079866
-0.0973254
-0.115234
-0.132864
-0.149512
-0.164544
-0.177431
-0.187777
-0.195318
-0.199918
-0.201555
-0.200307
-0.196344
-0.189917
-0.181336
-0.170991
-0.159293
-0.146664
-0.133515
-0.120228
-0.107139
-0.0945111
-0.0825446
-0.0713489
-0.060978
-0.051405
-0.0425828
-0.0344176
-0.0268603
-0.0198278
-0.0133472
-0.00738134
-0.00206132
0.00263421
0.00649205
0.00958509
0.011662
0.0128866
0.0130422
0.0123121
0.010724
0.00812635
0.00540363
0.00106212
-0.0121503
-0.0153488
-0.0220582
-0.0322161
-0.0454131
-0.0611137
-0.0787086
-0.0974991
-0.116711
-0.135543
-0.153227
-0.169084
-0.182569
-0.193284
-0.200983
-0.205552
-0.206988
-0.20539
-0.200945
-0.193928
-0.184645
-0.173554
-0.161094
-0.147721
-0.133884
-0.119991
-0.106416
-0.0934324
-0.0812449
-0.0699578
-0.0596068
-0.0501387
-0.0414755
-0.0334949
-0.0261226
-0.0192549
-0.0129056
-0.00703215
-0.00176719
0.00290424
0.00675999
0.00986288
0.011953
0.0131871
0.0133429
0.0125981
0.0109817
0.00832588
0.00554884
0.00107854
-0.00371923
-0.00725522
-0.0146712
-0.0258967
-0.0404741
-0.0578015
-0.0771887
-0.0978393
-0.11887
-0.13937
-0.15848
-0.175459
-0.189737
-0.200928
-0.208814
-0.213314
-0.214455
-0.212357
-0.207232
-0.199413
-0.189128
-0.176998
-0.163477
-0.149071
-0.134282
-0.119567
-0.105326
-0.0918689
-0.0794044
-0.0680273
-0.0577447
-0.0484637
-0.0400573
-0.0323634
-0.025271
-0.0186456
-0.0124825
-0.00673325
-0.0015336
0.00311955
0.00699132
0.0101267
0.0122554
0.0135195
0.0136932
0.0129418
0.0113004
0.00857734
0.00573377
0.00109919
0.00726613
0.00328695
-0.00505667
-0.017687
-0.0340868
-0.0535687
-0.075336
-0.0984585
-0.1219
-0.144599
-0.165565
-0.183977
-0.19924
-0.210993
-0.219069
-0.223438
-0.224163
-0.221385
-0.215326
-0.20627
-0.194828
-0.181343
-0.166418
-0.150649
-0.13461
-0.118825
-0.10374
-0.0897
-0.0769248
-0.0654923
-0.055371
-0.0464091
-0.0384021
-0.0311375
-0.0244517
-0.0181666
-0.0122529
-0.00665677
-0.00152094
0.00313671
0.00706297
0.0102736
0.0124868
0.0138184
0.0140451
0.0133072
0.0116568
0.00886613
0.0059504
0.00112247
0.0211254
0.0165823
0.00705923
-0.00736399
-0.0260995
-0.0483564
-0.0732015
-0.0995249
-0.126082
-0.151597
-0.174903
-0.195073
-0.211495
-0.223863
-0.232096
-0.236238
-0.236394
-0.23273
-0.225493
-0.215021
-0.201889
-0.186622
-0.16988
-0.152356
-0.134724
-0.117591
-0.101472
-0.0867538
-0.0736684
-0.0622693
-0.052469
-0.0440422
-0.0366379
-0.0300048
-0.0238986
-0.0180789
-0.0124851
-0.00706203
-0.00196685
0.00274714
0.00679875
0.010159
0.012533
0.0139947
0.0143335
0.0136457
0.01202
0.0091721
0.00618819
0.00114639
0.0382644
0.0330181
0.0220262
0.00535723
-0.0163202
-0.0420972
-0.0708699
-0.101288
-0.13182
-0.160893
-0.187089
-0.20935
-0.227071
-0.240054
-0.248356
-0.252126
-0.251516
-0.24671
-0.237978
-0.225652
-0.210402
-0.192861
-0.173799
-0.154047
-0.134413
-0.115616
-0.0982602
-0.0827904
-0.0694498
-0.0582545
-0.0490448
-0.0415101
-0.0349792
-0.02927
-0.0239823
-0.0187869
-0.0135873
-0.0083359
-0.00321931
0.00165169
0.00595079
0.00958402
0.0122389
0.0139307
0.0144724
0.0138945
0.0123507
0.00946926
0.00643361
0.00116768
0.0591882
0.0530769
0.040283
0.0208349
-0.00450904
-0.0347187
-0.0684777
-0.104116
-0.139709
-0.17325
-0.202967
-0.227642
-0.246731
-0.260239
-0.268447
-0.271644
-0.270021
-0.263738
-0.253017
-0.238432
-0.220513
-0.200077
-0.178066
-0.1555
-0.13337
-0.112536
-0.0937314
-0.0774776
-0.0640238
-0.0533231
-0.0451159
-0.0391149
-0.0337816
-0.029426
-0.0252859
-0.0209128
-0.0161756
-0.0110513
-0.0057835
-0.000574845
0.00417422
0.00827838
0.0113982
0.0134728
0.0143513
0.0139751
0.0125999
0.00972388
0.00666989
0.00118095
0.0845149
0.0773521
0.062375
0.0395158
0.00963202
-0.0261501
-0.0662444
-0.108558
-0.150621
-0.189782
-0.223749
-0.251116
-0.271505
-0.285299
-0.293138
-0.295498
-0.292573
-0.284435
-0.271317
-0.253752
-0.232415
-0.20828
-0.182516
-0.156386
-0.131125
-0.107814
-0.0873523
-0.0703557
-0.0570707
-0.0473386
-0.0406418
-0.0360063
-0.0335251
-0.0312537
-0.028714
-0.0254042
-0.0211711
-0.0160492
-0.010387
-0.00453167
0.000994459
0.00587932
0.00973958
0.0124246
0.0138292
0.0137904
0.0127061
0.00989369
0.00687704
0.00117826
0.114992
0.106567
0.0889761
0.0619575
0.0264757
-0.0163356
-0.0645283
-0.115455
-0.165856
-0.212111
-0.25117
-0.281405
-0.302794
-0.316397
-0.32343
-0.324597
-0.320028
-0.309585
-0.293439
-0.272088
-0.24636
-0.217469
-0.186889
-0.156213
-0.127017
-0.100693
-0.07837
-0.0607826
-0.0481679
-0.0402251
-0.0361942
-0.0349468
-0.0354258
-0.0359752
-0.0356194
-0.0336621
-0.0299225
-0.0245447
-0.0180628
-0.0110528
-0.00423405
0.00190544
0.0069123
0.0105374
0.0127305
0.0132231
0.0125925
0.00992737
0.00703198
0.00114978
0.151509
0.141594
0.120915
0.0888633
0.0465007
-0.00524163
-0.0639032
-0.12615
-0.187465
-0.242682
-0.287706
-0.320733
-0.342443
-0.355043
-0.360629
-0.360144
-0.353518
-0.340275
-0.320334
-0.294107
-0.262688
-0.227633
-0.190824
-0.154314
-0.120133
-0.0901373
-0.0657649
-0.0478826
-0.0367097
-0.0317308
-0.0318239
-0.0353798
-0.040514
-0.0451462
-0.0477996
-0.0475832
-0.0442858
-0.0382212
-0.0302346
-0.0212714
-0.0123707
-0.00426971
0.0024712
0.00750298
0.010842
0.012134
0.0121651
0.00976531
0.00710861
0.00108583
0.195106
0.18348
0.159207
0.121133
0.0703358
0.00715253
-0.0652204
-0.142758
-0.218803
-0.285432
-0.337075
-0.372101
-0.392706
-0.403026
-0.406345
-0.403715
-0.394627
-0.377986
-0.353202
-0.320711
-0.281911
-0.238819
-0.193915
-0.149906
-0.109385
-0.0748366
-0.0482129
-0.030498
-0.021807
-0.0213157
-0.0273812
-0.0377295
-0.0496792
-0.0602444
-0.0672154
-0.0693631
-0.0664992
-0.0591853
-0.0487288
-0.0366531
-0.0245183
-0.0134356
-0.00413133
0.00295048
0.00791336
0.0103614
0.0113129
0.00934176
0.00707757
0.000978843
0.246971
0.233466
0.205076
0.159935
0.0987892
0.0208439
-0.0697416
-0.168416
-0.265095
-0.346835
-0.405338
-0.439893
-0.456263
-0.46211
-0.46214
-0.45706
-0.445245
-0.424548
-0.393692
-0.353207
-0.30488
-0.251376
-0.196017
-0.142463
-0.0941048
-0.0538848
-0.0245015
-0.00730613
-0.00215131
-0.00773955
-0.0217882
-0.0411546
-0.0621974
-0.081046
-0.0945428
-0.100464
-0.0985099
-0.0895521
-0.0755426
-0.0588841
-0.0419775
-0.0265278
-0.0135372
-0.00354769
0.00366317
0.0077248
0.00991222
0.00858781
0.00690582
0.00082353
0.308409
0.292993
0.260015
0.20681
0.132844
0.0356889
-0.0797764
-0.208365
-0.333784
-0.436167
-0.501564
-0.530411
-0.536161
-0.533418
-0.528554
-0.520932
-0.506774
-0.481605
-0.443647
-0.393429
-0.333177
-0.266535
-0.198043
-0.13263
-0.0748593
-0.028059
0.0046537
0.02167
0.023064
0.010731
-0.0124542
-0.0425199
-0.0747533
-0.104535
-0.126959
-0.139219
-0.140041
-0.130154
-0.112095
-0.0894725
-0.0660395
-0.0445194
-0.0264251
-0.0124432
-0.00220268
0.00403408
0.00783377
0.00743392
0.00655581
0.000615074
0.380792
0.363684
0.325918
0.263894
0.17382
0.0512308
-0.100018
-0.27388
-0.436233
-0.563474
-0.633547
-0.647923
-0.633131
-0.615368
-0.6031
-0.593003
-0.5772
-0.54818
-0.503248
-0.442662
-0.369036
-0.287215
-0.203472
-0.124277
-0.0555262
-0.00139799
0.0349224
0.0526758
0.0513587
0.033343
0.0019696
-0.0384101
-0.0823925
-0.124117
-0.157965
-0.179732
-0.186676
-0.178478
-0.157602
-0.128743
-0.0974602
-0.0681657
-0.0433832
-0.0241439
-0.0099535
-0.000889048
0.00495596
0.00581398
0.00598572
0.000346994
0.46542
0.447231
0.405323
0.334392
0.224299
0.0670577
-0.138355
-0.384694
-0.596196
-0.738829
-0.797912
-0.782702
-0.736763
-0.697414
-0.675608
-0.663036
-0.646337
-0.616207
-0.567309
-0.498644
-0.413178
-0.317199
-0.218815
-0.126265
-0.0466492
0.0150809
0.056641
0.0757693
0.0740154
0.0535245
0.0173929
-0.0302011
-0.0837178
-0.13659
-0.182418
-0.215355
-0.231505
-0.22869
-0.208118
-0.174664
-0.135562
-0.0974739
-0.0646371
-0.0388808
-0.0197679
-0.00717635
0.00118392
0.00367193
0.00515189
1.03751e-05
0.563151
0.545127
0.501532
0.423251
0.290519
0.0861264
-0.207447
-0.553995
-0.763038
-0.904825
-0.935163
-0.882469
-0.808646
-0.749067
-0.719647
-0.707736
-0.695989
-0.670199
-0.62312
-0.552647
-0.461633
-0.357374
-0.249619
-0.148138
-0.0610066
0.00678883
0.0531679
0.0768349
0.0788145
0.0608567
0.0253145
-0.0242788
-0.0827741
-0.143496
-0.199158
-0.243035
-0.269618
-0.274943
-0.258183
-0.223166
-0.177898
-0.131248
-0.0897099
-0.0565065
-0.0316267
-0.0148564
-0.00352121
0.000974169
0.00401471
-0.000404703
0.673702
0.658117
0.617989
0.537159
0.385315
0.122488
-0.224774
-0.641767
-0.968249
-1.08933
-1.08505
-0.958715
-0.838874
-0.768961
-0.730225
-0.719788
-0.714459
-0.696222
-0.656602
-0.592231
-0.505238
-0.402977
-0.29575
-0.193636
-0.104864
-0.0340312
0.0168013
0.0465943
0.0557171
0.0452272
0.0164201
-0.028467
-0.0855148
-0.148697
-0.210412
-0.262904
-0.299195
-0.313594
-0.303084
-0.269637
-0.220868
-0.167155
-0.117283
-0.0763444
-0.0452059
-0.0237887
-0.00910564
-0.00227221
0.00254884
-0.000905828
0.794725
0.785331
0.756112
0.683997
0.526826
0.236451
-0.208435
-0.68481
-1.05267
-0.855824
-0.769782
-0.726964
-0.713428
-0.710769
-0.698249
-0.667791
-0.614687
-0.539973
-0.449968
-0.35393
-0.260319
-0.177465
-0.108926
-0.056276
-0.0214226
-0.00321145
-0.00171536
-0.0172258
-0.049604
-0.0971909
-0.15571
-0.218094
-0.275669
-0.319737
-0.342702
-0.339507
-0.310014
-0.260595
-0.202163
-0.14532
-0.0971686
-0.0598196
-0.0336107
-0.0153875
-0.00599731
0.000757434
-0.00149372
0.921198
0.922767
0.91256
0.871141
0.719629
0.403465
-0.0915503
-0.764084
-0.715838
-0.694841
-0.688527
-0.681046
-0.660692
-0.622359
-0.566133
-0.496583
-0.420755
-0.345655
-0.277111
-0.217803
-0.168158
-0.129087
-0.100143
-0.0826351
-0.0789993
-0.0916452
-0.121719
-0.167644
-0.224035
-0.281981
-0.330932
-0.361068
-0.365215
-0.341137
-0.293559
-0.233083
-0.171371
-0.117322
-0.0744412
-0.0437217
-0.0220359
-0.0100486
-0.00131238
-0.00215714
1.0455
1.0612
1.08171
1.08606
0.965088
0.658429
-0.701496
-0.666295
-0.654908
-0.65315
-0.643703
-0.622163
-0.588136
-0.544563
-0.496116
-0.447206
-0.400405
-0.355673
-0.312123
-0.268436
-0.226374
-0.189448
-0.162801
-0.151332
-0.158517
-0.185471
-0.229359
-0.282285
-0.332516
-0.367832
-0.37863
-0.36067
-0.316896
-0.256995
-0.192929
-0.134931
-0.087801
-0.0533155
-0.0285739
-0.0141796
-0.00355667
-0.00286821
1.15617
1.1881
1.24396
1.30394
1.23547
1.00093
-0.628259
-0.619893
-0.623843
-0.625209
-0.620859
-0.610528
-0.595915
-0.579075
-0.560591
-0.53852
-0.509046
-0.470801
-0.420623
-0.362844
-0.304126
-0.253129
-0.21703
-0.200444
-0.205962
-0.233163
-0.276349
-0.324039
-0.362119
-0.378549
-0.366968
-0.328493
-0.271542
-0.207764
-0.148162
-0.0985415
-0.0614589
-0.0344106
-0.0180547
-0.00580952
-0.00357957
1.24089
1.28708
1.37586
1.4901
1.49266
1.37628
-0.593504
-0.591297
-0.599836
-0.610872
-0.622802
-0.635847
-0.650463
-0.665518
-0.676841
-0.677614
-0.659812
-0.624484
-0.565379
-0.490102
-0.408022
-0.333377
-0.274451
-0.236665
-0.222443
-0.232374
-0.26317
-0.305115
-0.343539
-0.364368
-0.35912
-0.327073
-0.275124
-0.21418
-0.155463
-0.105398
-0.0672064
-0.0389019
-0.0212722
-0.00784967
-0.0042247
1.28851
1.34311
1.45179
1.59793
1.67456
-0.564606
-0.572183
-0.583998
-0.603043
-0.629385
-0.663657
-0.704706
-0.747896
-0.78444
-0.804108
-0.799267
-0.759676
-0.689831
-0.596335
-0.49259
-0.394745
-0.314801
-0.258934
-0.228554
-0.223442
-0.241666
-0.275924
-0.312575
-0.336417
-0.337261
-0.312367
-0.267066
-0.211222
-0.155775
-0.107374
-0.0697275
-0.0414283
-0.0234056
-0.00941849
-0.00472128
1.29249
1.34722
1.45613
1.60259
1.71529
-0.558512
-0.561514
-0.575
-0.600318
-0.638518
-0.690245
-0.752411
-0.817239
-0.872333
-0.905062
-0.905548
-0.865905
-0.787464
-0.678293
-0.554704
-0.435877
-0.336868
-0.265272
-0.221878
-0.204724
-0.211787
-0.237734
-0.270971
-0.296524
-0.302779
-0.285254
-0.24773
-0.198803
-0.148676
-0.103889
-0.0684267
-0.0414772
-0.0240544
-0.0102479
-0.0049777
1.25273
1.29929
1.38872
1.50406
1.60915
-0.555187
-0.5519
-0.567367
-0.597942
-0.645356
-0.710019
-0.786991
-0.86618
-0.933067
-0.974132
-0.978273
-0.938206
-0.85323
-0.731836
-0.592406
-0.456892
-0.342583
-0.258135
-0.204286
-0.17764
-0.175286
-0.193128
-0.221773
-0.247504
-0.258136
-0.247718
-0.218541
-0.177741
-0.134451
-0.0948692
-0.0630367
-0.0387212
-0.0229032
-0.0100968
-0.0049034
1.17566
1.20824
1.26508
1.32687
1.38282
1.31401
-0.545348
-0.53896
-0.555929
-0.590795
-0.644969
-0.718112
-0.803951
-0.890512
-0.963326
-1.00853
-1.0146
-0.973542
-0.883521
-0.753428
-0.603438
-0.457537
-0.333999
-0.24134
-0.180015
-0.146027
-0.135684
-0.145775
-0.168977
-0.193326
-0.206818
-0.202803
-0.181858
-0.14966
-0.114052
-0.0807638
-0.0536668
-0.0330742
-0.0197748
-0.00878936
-0.00442142
1.07235
1.08884
1.11075
1.11732
1.12198
0.957399
-0.530331
-0.519655
-0.537921
-0.576271
-0.635108
-0.712747
-0.802102
-0.890948
-0.965024
-1.0106
-1.01619
-0.972979
-0.878782
-0.74343
-0.588722
-0.439573
-0.313857
-0.218792
-0.153766
-0.114589
-0.0974116
-0.0998988
-0.116878
-0.138346
-0.153129
-0.154208
-0.140667
-0.116782
-0.0889805
-0.0624964
-0.0407987
-0.0247145
-0.0146648
-0.00624655
-0.00348028
0.954959
0.957446
0.949006
0.91028
0.870445
0.553491
0.211455
-0.526668
-0.514338
-0.496406
-0.514995
-0.555857
-0.617481
-0.696575
-0.785486
-0.872472
-0.94385
-0.9863
-0.988214
-0.940804
-0.842707
-0.705551
-0.552269
-0.407083
-0.285909
-0.193987
-0.12929
-0.0872947
-0.0644926
-0.0594804
-0.0694202
-0.0865564
-0.100992
-0.105468
-0.09802
-0.0815495
-0.061056
-0.0413356
-0.0252345
-0.0140788
-0.00775638
-0.0025095
-0.00206472
0.834862
0.826421
0.79939
0.730499
0.577906
0.352898
-0.14316
-0.54692
-0.566723
-0.526006
-0.485529
-0.475371
-0.493171
-0.535297
-0.597744
-0.67565
-0.761042
-0.842488
-0.907008
-0.94201
-0.936134
-0.88183
-0.78015
-0.645106
-0.499613
-0.365171
-0.254196
-0.169634
-0.108576
-0.0662112
-0.0393427
-0.0273626
-0.0296311
-0.0410784
-0.0534141
-0.0595521
-0.0566009
-0.0462437
-0.0321337
-0.0187078
-0.0079918
-0.00181234
0.000593904
0.00225583
-0.000201502
0.719552
0.704979
0.66721
0.589969
0.443385
0.186061
-0.160173
-0.654999
-0.903709
-0.793346
-0.649156
-0.575836
-0.511283
-0.477183
-0.463618
-0.480237
-0.521992
-0.582716
-0.656211
-0.73421
-0.805618
-0.858401
-0.880691
-0.862748
-0.799829
-0.696676
-0.568991
-0.437556
-0.319282
-0.222371
-0.147629
-0.0921008
-0.0513562
-0.0222862
-0.00462287
0.000735458
-0.00398471
-0.0126359
-0.0187165
-0.0185953
-0.0128926
-0.00400494
0.0039179
0.00979665
0.0113023
0.00990705
0.00777972
0.00204581
0.614
0.597064
0.555749
0.481247
0.353882
0.156773
-0.128301
-0.462551
-0.760763
-0.901271
-0.863022
-0.74403
-0.617796
-0.552283
-0.510287
-0.479214
-0.465524
-0.479863
-0.51852
-0.573972
-0.63874
-0.703781
-0.759119
-0.79467
-0.800149
-0.768451
-0.699029
-0.599841
-0.485975
-0.37373
-0.274573
-0.193118
-0.128896
-0.0794691
-0.0414757
-0.0119981
0.00944358
0.0213667
0.0237204
0.0200204
0.0155686
0.0143932
0.0168209
0.0216899
0.0251329
0.0269904
0.0244366
0.0196578
0.0137325
0.00459793
0.520583
0.503476
0.463707
0.396453
0.29154
0.141541
-0.0548651
-0.289906
-0.487404
-0.612357
-0.653078
-0.622271
-0.565227
-0.518474
-0.488201
-0.468786
-0.462725
-0.476927
-0.51026
-0.556414
-0.60761
-0.655712
-0.692389
-0.70898
-0.698302
-0.657275
-0.588641
-0.500972
-0.406178
-0.315211
-0.234962
-0.167937
-0.113492
-0.0699218
-0.0350497
-0.00648103
0.0167187
0.0333031
0.0420518
0.0439858
0.0425483
0.0415154
0.0418986
0.0438353
0.0438948
0.0426724
0.0368852
0.0293847
0.0198015
0.00739796
0.439604
0.423479
0.387708
0.329025
0.243711
0.12756
-0.0155776
-0.17978
-0.331086
-0.445626
-0.502647
-0.505552
-0.482812
-0.460805
-0.447565
-0.441526
-0.443475
-0.457527
-0.483812
-0.517935
-0.553948
-0.585092
-0.60446
-0.606127
-0.58632
-0.544619
-0.484613
-0.413116
-0.338116
-0.266403
-0.202173
-0.147121
-0.100985
-0.0626992
-0.0309241
-0.00396458
0.0193883
0.0385035
0.0520434
0.0593737
0.0619264
0.0624829
0.0621116
0.0621802
0.0598712
0.0564455
0.0482966
0.0387981
0.0258036
0.0104371
0.370222
0.355655
0.324497
0.274212
0.204417
0.112722
0.00402549
-0.116606
-0.233187
-0.326104
-0.382206
-0.403209
-0.404101
-0.40035
-0.399086
-0.401289
-0.407663
-0.420267
-0.439967
-0.4638
-0.487322
-0.505025
-0.512545
-0.506396
-0.484723
-0.448034
-0.399249
-0.342962
-0.284262
-0.22755
-0.175709
-0.130106
-0.0907977
-0.0571599
-0.0283243
-0.00321815
0.0193144
0.0392042
0.0555057
0.0670356
0.0737209
0.0770561
0.0773928
0.0769346
0.0732356
0.0684206
0.0587033
0.0477514
0.0317033
0.0136919
0.311184
0.298403
0.271618
0.228977
0.171359
0.0979446
0.0128587
-0.0794414
-0.169223
-0.243936
-0.295927
-0.325467
-0.339465
-0.346567
-0.352381
-0.359021
-0.367385
-0.378575
-0.393589
-0.40939
-0.423549
-0.432356
-0.433183
-0.42396
-0.403715
-0.372967
-0.333726
-0.289084
-0.242478
-0.196925
-0.15449
-0.11627
-0.0824841
-0.052819
-0.0266845
-0.00343327
0.0178554
0.0374117
0.0546994
0.068712
0.0786568
0.0851099
0.0873127
0.0878391
0.0838045
0.0785702
0.0679863
0.0558918
0.0373296
0.0168984
0.261194
0.250182
0.227278
0.191312
0.14343
0.0839405
0.0159591
-0.0566099
-0.127428
-0.18898
-0.236256
-0.268394
-0.288457
-0.30144
-0.31145
-0.320649
-0.329918
-0.339823
-0.350344
-0.36141
-0.369622
-0.373252
-0.370649
-0.360483
-0.3422
-0.316269
-0.284164
-0.248047
-0.21027
-0.172932
-0.137551
-0.105027
-0.0756474
-0.0493035
-0.025585
-0.00408948
0.0158535
0.0345103
0.051696
0.0666705
0.0785035
0.0873799
0.0916719
0.0940879
0.0906515
0.0860312
0.0751742
0.0622439
0.041892
0.0193766
0.219023
0.209624
0.190084
0.159775
0.119776
0.0709836
0.0157521
-0.0427277
-0.100219
-0.151929
-0.194248
-0.225964
-0.248429
-0.264548
-0.27711
-0.287853
-0.297543
-0.306538
-0.314821
-0.322061
-0.326659
-0.327287
-0.322802
-0.312404
-0.295854
-0.273603
-0.246734
-0.21677
-0.185365
-0.154042
-0.123954
-0.095838
-0.0699833
-0.0463941
-0.0247872
-0.00490566
0.0137355
0.03132
0.0478734
0.0628805
0.0754622
0.0856741
0.0914966
0.0955922
0.093192
0.0896813
0.0789672
0.0656747
0.0442678
0.020447
0.183559
0.175559
0.158893
0.133284
0.0996778
0.0591625
0.0135735
-0.0345937
-0.0823269
-0.126334
-0.163966
-0.194068
-0.217148
-0.234818
-0.248838
-0.260453
-0.270292
-0.278626
-0.285447
-0.290438
-0.292789
-0.291575
-0.286051
-0.27578
-0.260708
-0.241236
-0.218182
-0.192667
-0.165913
-0.13906
-0.112991
-0.0883078
-0.0652761
-0.0439589
-0.0241635
-0.00572794
0.0117102
0.0282494
0.0439966
0.0585638
0.0712384
0.0819385
0.0886951
0.0936839
0.0923254
0.0896191
0.0792926
0.066118
0.0442516
0.0202244
0.153829
0.147007
0.132762
0.111012
0.0825764
0.0485244
0.0103317
-0.0300604
-0.0703979
-0.108313
-0.141848
-0.169979
-0.192747
-0.210963
-0.225669
-0.237702
-0.247543
-0.255403
-0.26127
-0.264906
-0.265861
-0.263556
-0.257535
-0.247575
-0.233727
-0.216357
-0.196123
-0.17389
-0.150591
-0.127101
-0.104112
-0.0821179
-0.0613542
-0.041909
-0.0236524
-0.00648525
0.00987312
0.0254513
0.0403835
0.0543256
0.0667873
0.0774738
0.0848195
0.0900814
0.0897114
0.0872855
0.0775463
0.0647692
0.0429196
0.0195237
0.129003
0.123157
0.110925
0.0923202
0.0680533
0.0390904
0.00664171
-0.0277667
-0.0624015
-0.0954971
-0.125562
-0.151689
-0.173662
-0.19181
-0.206702
-0.21886
-0.228618
-0.236122
-0.241358
-0.244166
-0.244284
-0.24137
-0.235165
-0.22558
-0.212739
-0.196991
-0.178887
-0.15912
-0.138427
-0.117501
-0.0968972
-0.0770243
-0.0580891
-0.0401866
-0.0232286
-0.00715777
0.00824759
0.0229666
0.0371378
0.0504191
0.0625257
0.0729413
0.0806383
0.085877
0.086403
0.0840239
0.0750473
0.0627706
0.0413596
0.0188943
0.10839
0.103342
0.0927636
0.076706
0.0557874
0.0308483
0.00289241
-0.0268638
-0.0570593
-0.086327
-0.113484
-0.137723
-0.158695
-0.176442
-0.191223
-0.203323
-0.212944
-0.220169
-0.224983
-0.22728
-0.226907
-0.223674
-0.217456
-0.208261
-0.196258
-0.181783
-0.165313
-0.147426
-0.128725
-0.109774
-0.0910321
-0.0728412
-0.0553824
-0.0387492
-0.0228814
-0.00774825
0.00682529
0.0207909
0.034274
0.0469269
0.0586053
0.0686414
0.076451
0.0815585
0.0827364
0.0804009
0.0721906
0.0604231
0.0397771
0.0182541
0.0914195
0.0870155
0.0777795
0.0637698
0.0455239
0.0237635
-0.000672895
-0.0267983
-0.0535193
-0.0797389
-0.104484
-0.127032
-0.146968
-0.164165
-0.178674
-0.190608
-0.200059
-0.207057
-0.21158
-0.213557
-0.212903
-0.209525
-0.203389
-0.194568
-0.183261
-0.169792
-0.154589
-0.13815
-0.120983
-0.103565
-0.086281
-0.0694251
-0.0531567
-0.0375635
-0.0226045
-0.00826539
0.00559117
0.0189044
0.031775
0.0438609
0.0550814
0.0647131
0.0724214
0.0773574
0.078861
0.0765963
0.0689748
0.0576754
0.0379655
0.0173866
0.0776285
0.0737386
0.0655754
0.0531931
0.037059
0.0177928
-0.00389808
-0.0271966
-0.0512017
-0.0750049
-0.0977808
-0.118873
-0.137839
-0.154447
-0.168613
-0.180327
-0.189596
-0.196405
-0.200721
-0.202497
-0.201689
-0.198266
-0.192255
-0.183773
-0.173038
-0.160364
-0.146146
-0.130823
-0.11484
-0.0986099
-0.0824666
-0.0666659
-0.0513504
-0.0366017
-0.0223919
-0.00871611
0.00453275
0.0172894
0.029625
0.0412145
0.0519848
0.0612289
0.0686961
0.0734412
0.0750002
0.0727946
0.0655445
0.0546535
0.0359101
0.0163006
0.0666469
0.0631592
0.0558363
0.0447237
0.0302305
0.0128933
-0.00668244
-0.0278044
-0.0497106
-0.0716254
-0.0928279
-0.112713
-0.130829
-0.146879
-0.160692
-0.172173
-0.181265
-0.187917
-0.192086
-0.193736
-0.192848
-0.189432
-0.183556
-0.175367
-0.165092
-0.153041
-0.13958
-0.125112
-0.110036
-0.0947176
-0.0794559
-0.0644784
-0.0499144
-0.0358397
-0.0222355
-0.00910232
0.00364362
0.0159362
0.0278175
0.0389848
0.0493433
0.0582375
0.0654069
0.069955
0.0714148
0.0692356
0.0621994
0.0516549
0.0338149
0.0151572
0.0581843
0.0550018
0.0483168
0.0381655
0.024911
0.00902545
-0.0089621
-0.02845
-0.0487749
-0.0692548
-0.089242
-0.10817
-0.125585
-0.141153
-0.154645
-0.16591
-0.174844
-0.18137
-0.185433
-0.187003
-0.186078
-0.182693
-0.176943
-0.168992
-0.159076
-0.147498
-0.134608
-0.12078
-0.106381
-0.0917476
-0.0771505
-0.062798
-0.0488098
-0.0352566
-0.022126
-0.00942152
0.00292339
0.0148433
0.026355
0.0371772
0.0471852
0.0557808
0.0626602
0.0670215
0.0683271
0.0661448
0.0592346
0.0489748
0.0319162
0.0141173
0.0520201
0.049057
0.0428308
0.03337
0.0210031
0.00615569
-0.0106976
-0.0290181
-0.0482101
-0.0676554
-0.0867558
-0.104973
-0.121853
-0.137041
-0.150273
-0.16136
-0.170166
-0.176595
-0.180585
-0.182106
-0.181167
-0.177818
-0.17217
-0.1644
-0.154748
-0.143513
-0.131031
-0.117659
-0.103744
-0.0895992
-0.0754786
-0.0615768
-0.0480067
-0.0348354
-0.0220542
-0.0096686
0.00237586
0.0140147
0.0252454
0.0358037
0.0455378
0.0538979
0.0605356
0.0647382
0.0658963
0.0636953
0.0568654
0.0468254
0.0303864
0.0132842
0.0479955
0.0451736
0.0392443
0.03023
0.0184357
0.00425723
-0.0118655
-0.0294339
-0.0478946
-0.0666688
-0.0851896
-0.102936
-0.119456
-0.134383
-0.147433
-0.158394
-0.167111
-0.173474
-0.177416
-0.178909
-0.177966
-0.174648
-0.169073
-0.161425
-0.151946
-0.140932
-0.128714
-0.115637
-0.102033
-0.0882028
-0.0743901
-0.0607807
-0.0474833
-0.0345623
-0.0220118
-0.00983757
0.00200653
0.013457
0.0244984
0.0348779
0.0444246
0.0526219
0.0590891
0.0631768
0.0642255
0.0620042
0.0552256
0.045335
0.0293273
0.0127047
0.0460113
0.0432562
0.0374726
0.0286779
0.0171641
0.003313
-0.0124522
-0.0296523
-0.0477544
-0.0661987
-0.0844333
-0.101945
-0.118285
-0.13308
-0.146036
-0.156932
-0.165603
-0.171933
-0.175852
-0.177332
-0.176389
-0.173087
-0.16755
-0.159962
-0.15057
-0.139665
-0.127577
-0.114643
-0.101192
-0.0875157
-0.073854
-0.0603883
-0.0472254
-0.0344282
-0.0219922
-0.00992305
0.00182066
0.0131771
0.0241227
0.0344126
0.0438634
0.0519785
0.0583571
0.0623851
0.0633772
0.0611404
0.0543941
0.0445654
0.0288017
0.012381
-0.02422
-0.0269394
-0.0326467
-0.0412941
-0.0525439
-0.0659564
-0.0810359
-0.0972168
-0.113871
-0.13034
-0.145981
-0.1602
-0.172491
-0.182459
-0.189828
-0.194442
-0.19626
-0.195343
-0.191842
-0.185987
-0.178071
-0.168444
-0.157482
-0.145572
-0.133091
-0.120391
-0.107782
-0.0955113
-0.0837735
-0.0726902
-0.0623249
-0.0526749
-0.0437205
-0.0353949
-0.0276728
-0.02049
-0.0138859
-0.00782863
-0.0024502
0.00227766
0.0061474
0.00924335
0.0113178
0.0125453
0.0127093
0.0120044
0.0104503
0.00791767
0.0052552
0.00104104
-0.0222576
-0.0250519
-0.0309217
-0.0398144
-0.0513786
-0.0651599
-0.0806447
-0.0972463
-0.114313
-0.131165
-0.147138
-0.161627
-0.174116
-0.184211
-0.191639
-0.19625
-0.19801
-0.196985
-0.193332
-0.187288
-0.179154
-0.16929
-0.158086
-0.145939
-0.133239
-0.120345
-0.107576
-0.0951861
-0.0833693
-0.0722485
-0.0618791
-0.0522519
-0.0433389
-0.035064
-0.0273948
-0.02026
-0.0136966
-0.00766888
-0.0023111
0.00240648
0.00626956
0.00936533
0.0114368
0.0126651
0.012822
0.0121108
0.0105426
0.00798688
0.00531009
0.00103539
-0.0182716
-0.0212228
-0.0274233
-0.0368141
-0.0490195
-0.0635538
-0.079866
-0.0973261
-0.115235
-0.132866
-0.149514
-0.164545
-0.177433
-0.187778
-0.195319
-0.199919
-0.201556
-0.200307
-0.196345
-0.189918
-0.181336
-0.17099
-0.159293
-0.146664
-0.133515
-0.120228
-0.107138
-0.0945107
-0.0825443
-0.0713488
-0.0609783
-0.0514054
-0.0425834
-0.034418
-0.0268609
-0.0198279
-0.0133479
-0.007381
-0.00206216
0.00263522
0.00649078
0.00958678
0.01166
0.012889
0.0130397
0.0123143
0.0107229
0.00812492
0.00541023
0.00104428
-0.012151
-0.0153452
-0.0220556
-0.0322155
-0.0454129
-0.0611135
-0.0787087
-0.0975
-0.116712
-0.135545
-0.153229
-0.169086
-0.18257
-0.193285
-0.200984
-0.205553
-0.206989
-0.20539
-0.200946
-0.193928
-0.184645
-0.173554
-0.161094
-0.147721
-0.133883
-0.119991
-0.106415
-0.0934319
-0.0812447
-0.0699578
-0.0596071
-0.0501392
-0.0414762
-0.0334954
-0.0261236
-0.0192552
-0.0129065
-0.00703208
-0.00176836
0.00290497
0.00675856
0.00986449
0.0119511
0.0131896
0.0133405
0.0126004
0.0109808
0.0083245
0.00555581
0.00105995
-0.00371992
-0.00725124
-0.0146684
-0.025896
-0.0404739
-0.0578013
-0.077189
-0.0978406
-0.118872
-0.139372
-0.158482
-0.175461
-0.189739
-0.200929
-0.208815
-0.213315
-0.214456
-0.212357
-0.207232
-0.199411
-0.189128
-0.176998
-0.163476
-0.14907
-0.134281
-0.119567
-0.105326
-0.0918683
-0.0794041
-0.0680273
-0.0577452
-0.0484643
-0.0400583
-0.0323643
-0.0252722
-0.0186462
-0.0124837
-0.00673337
-0.00153495
0.0031201
0.00698983
0.0101283
0.0122535
0.0135219
0.0136909
0.0129442
0.0112997
0.00857574
0.00574119
0.00107962
0.00726536
0.00329143
-0.00505341
-0.0176861
-0.0340864
-0.0535684
-0.0753365
-0.0984603
-0.121903
-0.144602
-0.165568
-0.18398
-0.199242
-0.210994
-0.21907
-0.223439
-0.224164
-0.221386
-0.215326
-0.206271
-0.194828
-0.181343
-0.166417
-0.150648
-0.134609
-0.118824
-0.103739
-0.0896993
-0.0769245
-0.0654923
-0.0553714
-0.04641
-0.0384035
-0.0311388
-0.0244533
-0.0181675
-0.0122543
-0.00665703
-0.00152229
0.00313721
0.00706154
0.0102751
0.012485
0.0138206
0.014043
0.0133093
0.0116563
0.00886403
0.00595843
0.00110171
0.0211245
0.0165874
0.00706306
-0.00736288
-0.0260989
-0.0483561
-0.0732024
-0.0995275
-0.126086
-0.151602
-0.174908
-0.195076
-0.211497
-0.223864
-0.232097
-0.236239
-0.236395
-0.23273
-0.225493
-0.215021
-0.201889
-0.186622
-0.169879
-0.152355
-0.134723
-0.11759
-0.101471
-0.0867529
-0.0736681
-0.0622694
-0.0524696
-0.0440432
-0.0366399
-0.0300067
-0.0239008
-0.0180804
-0.0124869
-0.00706259
-0.00196822
0.00274766
0.0067975
0.0101605
0.0125314
0.0139967
0.0143317
0.0136473
0.01202
0.00916967
0.00619715
0.00112422
0.0382634
0.0330239
0.0220308
0.00535867
-0.0163193
-0.0420969
-0.0708715
-0.101292
-0.131826
-0.160899
-0.187095
-0.209354
-0.227073
-0.240055
-0.248357
-0.252127
-0.251518
-0.246711
-0.237977
-0.225653
-0.210402
-0.19286
-0.173797
-0.154045
-0.134412
-0.115614
-0.0982584
-0.0827893
-0.0694495
-0.0582546
-0.049046
-0.0415095
-0.0349815
-0.0292726
-0.0239853
-0.0187891
-0.0135898
-0.00833695
-0.00322082
0.00165209
0.00594967
0.0095853
0.0122376
0.0139323
0.0144711
0.0138954
0.0123515
0.0094658
0.00644399
0.00114384
0.0591869
0.0530834
0.0402886
0.0208368
-0.00450758
-0.0347183
-0.0684803
-0.104122
-0.139718
-0.17326
-0.202975
-0.227646
-0.246732
-0.260239
-0.268447
-0.271645
-0.270023
-0.26374
-0.25302
-0.238434
-0.220513
-0.200076
-0.178065
-0.155499
-0.133368
-0.112533
-0.093729
-0.077476
-0.0640231
-0.0533232
-0.0451163
-0.0391044
-0.0337838
-0.0294295
-0.0252898
-0.0209158
-0.0161787
-0.0110528
-0.00578525
-0.000574736
0.00417318
0.0082794
0.0113971
0.013474
0.0143506
0.013975
0.0126021
0.00971887
0.0066824
0.00115504
0.0845131
0.0773593
0.0623821
0.0395183
0.00963468
-0.0261494
-0.0662483
-0.108568
-0.150634
-0.189796
-0.223759
-0.25112
-0.271504
-0.285296
-0.293138
-0.295499
-0.292575
-0.284437
-0.27132
-0.253754
-0.232415
-0.208279
-0.182514
-0.156384
-0.131122
-0.107811
-0.087349
-0.0703533