/*--------------------------------*- C++ -*----------------------------------*\
  =========                 |
  \\      /  F ield         | OpenFOAM: The Open Source CFD Toolbox
   \\    /   O peration     | Website:  https://openfoam.org
    \\  /    A nd           | Version:  8
     \\/     M anipulation  |
\*---------------------------------------------------------------------------*/
FoamFile
{
    version     2.0;
    format      ascii;
    class       volVectorField;
    location    "0.26";
    object      U;
}
// * * * * * * * * * * * * * * * * * * * * * * * * * * * * * * * * * * * * * //

dimensions      [0 1 -1 0 0 0 0];

internalField   nonuniform List<vector> 
400
(
(0.0206513 -1.67523e-07 0)
(0.0206514 -4.07191e-08 0)
(0.0206512 7.82882e-08 0)
(0.020651 1.10434e-07 0)
(0.0206507 1.22527e-07 0)
(0.0206505 1.22029e-07 0)
(0.0206502 1.12899e-07 0)
(0.02065 9.89568e-08 0)
(0.0206498 8.26137e-08 0)
(0.0206496 6.43211e-08 0)
(0.0206495 4.34521e-08 0)
(0.0206495 1.91642e-08 0)
(0.0206494 -8.99591e-09 0)
(0.0206495 -4.13565e-08 0)
(0.0206496 -7.82043e-08 0)
(0.0206498 -1.19107e-07 0)
(0.0206501 -1.61594e-07 0)
(0.0206505 -1.96343e-07 0)
(0.0206509 -2.03317e-07 0)
(0.0206511 -2.15684e-07 0)
(0.0620589 -2.00374e-07 0)
(0.0620588 7.92251e-08 0)
(0.0620586 3.40057e-07 0)
(0.0620583 4.32981e-07 0)
(0.0620579 4.63715e-07 0)
(0.0620575 4.55723e-07 0)
(0.0620572 4.20963e-07 0)
(0.0620568 3.68945e-07 0)
(0.0620565 3.05595e-07 0)
(0.0620563 2.32568e-07 0)
(0.0620561 1.48905e-07 0)
(0.062056 5.31076e-08 0)
(0.062056 -5.54567e-08 0)
(0.0620562 -1.76273e-07 0)
(0.0620564 -3.07001e-07 0)
(0.0620567 -4.41044e-07 0)
(0.0620572 -5.63222e-07 0)
(0.0620577 -6.37509e-07 0)
(0.0620583 -6.02856e-07 0)
(0.0620587 -4.90691e-07 0)
(0.103782 -3.00104e-07 0)
(0.103782 2.44001e-07 0)
(0.103782 5.88262e-07 0)
(0.103782 7.62648e-07 0)
(0.103782 8.2908e-07 0)
(0.103781 8.24754e-07 0)
(0.103781 7.7059e-07 0)
(0.103781 6.81225e-07 0)
(0.10378 5.65382e-07 0)
(0.10378 4.26552e-07 0)
(0.10378 2.65026e-07 0)
(0.10378 8.04375e-08 0)
(0.10378 -1.26531e-07 0)
(0.10378 -3.53063e-07 0)
(0.10378 -5.92083e-07 0)
(0.103781 -8.2768e-07 0)
(0.103781 -1.02786e-06 0)
(0.103781 -1.13133e-06 0)
(0.103782 -1.0477e-06 0)
(0.103782 -7.32954e-07 0)
(0.146025 -3.37009e-07 0)
(0.146025 2.70523e-07 0)
(0.146025 7.08499e-07 0)
(0.146025 9.5367e-07 0)
(0.146025 1.06188e-06 0)
(0.146024 1.07539e-06 0)
(0.146024 1.01971e-06 0)
(0.146024 9.12234e-07 0)
(0.146024 7.64028e-07 0)
(0.146024 5.80799e-07 0)
(0.146024 3.64804e-07 0)
(0.146024 1.17328e-07 0)
(0.146024 -1.59272e-07 0)
(0.146024 -4.59609e-07 0)
(0.146024 -7.72174e-07 0)
(0.146024 -1.07401e-06 0)
(0.146024 -1.32253e-06 0)
(0.146024 -1.44312e-06 0)
(0.146024 -1.33419e-06 0)
(0.146025 -9.36193e-07 0)
(0.188977 -4.47031e-07 0)
(0.188977 1.99228e-07 0)
(0.188977 6.88673e-07 0)
(0.188977 9.86394e-07 0)
(0.188977 1.13704e-06 0)
(0.188977 1.1797e-06 0)
(0.188977 1.14009e-06 0)
(0.188977 1.03691e-06 0)
(0.188977 8.82621e-07 0)
(0.188977 6.84457e-07 0)
(0.188977 4.46313e-07 0)
(0.188977 1.70988e-07 0)
(0.188977 -1.37725e-07 0)
(0.188977 -4.7269e-07 0)
(0.188977 -8.19882e-07 0)
(0.188977 -1.15311e-06 0)
(0.188977 -1.42661e-06 0)
(0.188977 -1.56491e-06 0)
(0.188977 -1.46625e-06 0)
(0.188977 -1.06868e-06 0)
(0.232812 -5.37052e-07 0)
(0.232812 7.19793e-08 0)
(0.232812 5.58625e-07 0)
(0.232812 8.77794e-07 0)
(0.232813 1.05863e-06 0)
(0.232813 1.13226e-06 0)
(0.232813 1.12103e-06 0)
(0.232813 1.04213e-06 0)
(0.232813 9.07648e-07 0)
(0.232813 7.25202e-07 0)
(0.232813 4.99449e-07 0)
(0.232813 2.33871e-07 0)
(0.232813 -6.73195e-08 0)
(0.232813 -3.96792e-07 0)
(0.232813 -7.40614e-07 0)
(0.232812 -1.07325e-06 0)
(0.232812 -1.35128e-06 0)
(0.232812 -1.50595e-06 0)
(0.232812 -1.44427e-06 0)
(0.232812 -1.10288e-06 0)
(0.277682 -5.89279e-07 0)
(0.277682 -7.55526e-08 0)
(0.277682 3.58008e-07 0)
(0.277682 6.63255e-07 0)
(0.277682 8.54087e-07 0)
(0.277683 9.52002e-07 0)
(0.277683 9.73338e-07 0)
(0.277683 9.31633e-07 0)
(0.277683 8.36919e-07 0)
(0.277683 6.95855e-07 0)
(0.277683 5.12678e-07 0)
(0.277683 2.90517e-07 0)
(0.277683 3.29219e-08 0)
(0.277683 -2.54118e-07 0)
(0.277683 -5.59295e-07 0)
(0.277683 -8.61503e-07 0)
(0.277682 -1.12431e-06 0)
(0.277682 -1.29103e-06 0)
(0.277682 -1.2839e-06 0)
(0.277682 -1.03954e-06 0)
(0.323713 -5.90277e-07 0)
(0.323713 -2.18052e-07 0)
(0.323713 1.19822e-07 0)
(0.323713 3.77111e-07 0)
(0.323714 5.55204e-07 0)
(0.323714 6.65646e-07 0)
(0.323714 7.17565e-07 0)
(0.323714 7.19413e-07 0)
(0.323715 6.77766e-07 0)
(0.323715 5.97002e-07 0)
(0.323715 4.79794e-07 0)
(0.323715 3.27912e-07 0)
(0.323715 1.43199e-07 0)
(0.323715 -7.10082e-08 0)
(0.323715 -3.07816e-07 0)
(0.323714 -5.53228e-07 0)
(0.323714 -7.81275e-07 0)
(0.323713 -9.51219e-07 0)
(0.323713 -1.00527e-06 0)
(0.323713 -8.8378e-07 0)
(0.371004 -5.32734e-07 0)
(0.371004 -3.34092e-07 0)
(0.371004 -1.24373e-07 0)
(0.371004 5.5842e-08 0)
(0.371005 1.99082e-07 0)
(0.371005 3.07724e-07 0)
(0.371005 3.83512e-07 0)
(0.371006 4.29073e-07 0)
(0.371006 4.46544e-07 0)
(0.371006 4.37014e-07 0)
(0.371006 4.00676e-07 0)
(0.371006 3.37147e-07 0)
(0.371006 2.45816e-07 0)
(0.371006 1.26473e-07 0)
(0.371006 -1.95109e-08 0)
(0.371006 -1.86734e-07 0)
(0.371005 -3.6188e-07 0)
(0.371005 -5.22639e-07 0)
(0.371004 -6.34299e-07 0)
(0.371004 -6.46075e-07 0)
(0.419622 -4.18267e-07 0)
(0.419622 -4.09631e-07 0)
(0.419623 -3.48738e-07 0)
(0.419623 -2.66891e-07 0)
(0.419623 -1.76846e-07 0)
(0.419624 -8.4151e-08 0)
(0.419624 6.04482e-09 0)
(0.419624 9.04254e-08 0)
(0.419625 1.66249e-07 0)
(0.419625 2.30744e-07 0)
(0.419625 2.81062e-07 0)
(0.419625 3.14195e-07 0)
(0.419625 3.26715e-07 0)
(0.419625 3.14576e-07 0)
(0.419625 2.73287e-07 0)
(0.419625 1.99188e-07 0)
(0.419624 9.20443e-08 0)
(0.419624 -4.55026e-08 0)
(0.419623 -2.03463e-07 0)
(0.419623 -3.44788e-07 0)
(0.469604 -2.57465e-07 0)
(0.469604 -4.39323e-07 0)
(0.469604 -5.35193e-07 0)
(0.469605 -5.62918e-07 0)
(0.469605 -5.38073e-07 0)
(0.469605 -4.72753e-07 0)
(0.469606 -3.78152e-07 0)
(0.469606 -2.6317e-07 0)
(0.469606 -1.35376e-07 0)
(0.469607 -1.50311e-09 0)
(0.469607 1.32426e-07 0)
(0.469607 2.60695e-07 0)
(0.469607 3.77124e-07 0)
(0.469607 4.74088e-07 0)
(0.469607 5.41673e-07 0)
(0.469606 5.67687e-07 0)
(0.469606 5.38725e-07 0)
(0.469606 4.37843e-07 0)
(0.469605 2.49837e-07 0)
(0.469605 -5.50301e-09 0)
(0.520951 -6.83547e-08 0)
(0.520951 -4.26348e-07 0)
(0.520951 -6.73406e-07 0)
(0.520951 -8.10595e-07 0)
(0.520951 -8.54923e-07 0)
(0.520952 -8.23735e-07 0)
(0.520952 -7.33296e-07 0)
(0.520952 -5.97426e-07 0)
(0.520953 -4.28082e-07 0)
(0.520953 -2.35645e-07 0)
(0.520953 -2.9033e-08 0)
(0.520953 1.83667e-07 0)
(0.520953 3.94001e-07 0)
(0.520953 5.91518e-07 0)
(0.520953 7.61999e-07 0)
(0.520953 8.86153e-07 0)
(0.520952 9.38995e-07 0)
(0.520952 8.85506e-07 0)
(0.520952 6.86007e-07 0)
(0.520951 3.40718e-07 0)
(0.57363 1.25839e-07 0)
(0.57363 -3.80751e-07 0)
(0.57363 -7.59658e-07 0)
(0.57363 -9.94588e-07 0)
(0.573631 -1.10315e-06 0)
(0.573631 -1.10695e-06 0)
(0.573631 -1.02635e-06 0)
(0.573631 -8.79228e-07 0)
(0.573632 -6.81203e-07 0)
(0.573632 -4.45637e-07 0)
(0.573632 -1.83716e-07 0)
(0.573632 9.47907e-08 0)
(0.573632 3.79993e-07 0)
(0.573632 6.59766e-07 0)
(0.573632 9.17211e-07 0)
(0.573632 1.12812e-06 0)
(0.573632 1.25857e-06 0)
(0.573631 1.25844e-06 0)
(0.573631 1.06584e-06 0)
(0.573631 6.59794e-07 0)
(0.627578 2.99274e-07 0)
(0.627578 -3.16886e-07 0)
(0.627578 -7.95405e-07 0)
(0.627578 -1.10518e-06 0)
(0.627578 -1.26409e-06 0)
(0.627578 -1.2974e-06 0)
(0.627578 -1.22866e-06 0)
(0.627578 -1.07879e-06 0)
(0.627579 -8.66063e-07 0)
(0.627579 -6.05885e-07 0)
(0.627579 -3.10813e-07 0)
(0.627579 8.62302e-09 0)
(0.627579 3.42193e-07 0)
(0.627579 6.77515e-07 0)
(0.627579 9.96975e-07 0)
(0.627579 1.27414e-06 0)
(0.627579 1.46961e-06 0)
(0.627579 1.52249e-06 0)
(0.627578 1.3527e-06 0)
(0.627578 9.17472e-07 0)
(0.682697 4.26361e-07 0)
(0.682697 -2.50449e-07 0)
(0.682697 -7.85504e-07 0)
(0.682697 -1.13742e-06 0)
(0.682697 -1.32484e-06 0)
(0.682697 -1.37656e-06 0)
(0.682697 -1.31828e-06 0)
(0.682697 -1.17273e-06 0)
(0.682697 -9.5953e-07 0)
(0.682697 -6.94993e-07 0)
(0.682697 -3.9198e-07 0)
(0.682697 -6.07137e-08 0)
(0.682697 2.89443e-07 0)
(0.682697 6.47357e-07 0)
(0.682697 9.9673e-07 0)
(0.682697 1.3118e-06 0)
(0.682697 1.55171e-06 0)
(0.682697 1.65024e-06 0)
(0.682697 1.51476e-06 0)
(0.682697 1.08244e-06 0)
(0.738862 4.85646e-07 0)
(0.738862 -1.94778e-07 0)
(0.738862 -7.34865e-07 0)
(0.738862 -1.08886e-06 0)
(0.738862 -1.27754e-06 0)
(0.738862 -1.33295e-06 0)
(0.738861 -1.28159e-06 0)
(0.738861 -1.14641e-06 0)
(0.738861 -9.4687e-07 0)
(0.738861 -6.98848e-07 0)
(0.738861 -4.14379e-07 0)
(0.738861 -1.02268e-07 0)
(0.738861 2.3015e-07 0)
(0.738861 5.74336e-07 0)
(0.738861 9.17086e-07 0)
(0.738861 1.23601e-06 0)
(0.738862 1.49307e-06 0)
(0.738862 1.62285e-06 0)
(0.738862 1.52757e-06 0)
(0.738862 1.12958e-06 0)
(0.795921 4.63709e-07 0)
(0.795921 -1.56054e-07 0)
(0.795921 -6.42292e-07 0)
(0.795921 -9.53496e-07 0)
(0.79592 -1.11399e-06 0)
(0.79592 -1.15779e-06 0)
(0.79592 -1.11001e-06 0)
(0.79592 -9.91634e-07 0)
(0.79592 -8.20197e-07 0)
(0.795919 -6.09719e-07 0)
(0.795919 -3.70245e-07 0)
(0.795919 -1.0819e-07 0)
(0.795919 1.72035e-07 0)
(0.795919 4.65374e-07 0)
(0.79592 7.62918e-07 0)
(0.79592 1.04777e-06 0)
(0.79592 1.28878e-06 0)
(0.79592 1.42807e-06 0)
(0.795921 1.37298e-06 0)
(0.795921 1.03939e-06 0)
(0.8537 3.54262e-07 0)
(0.8537 -1.34292e-07 0)
(0.8537 -5.0509e-07 0)
(0.853699 -7.29535e-07 0)
(0.853699 -8.36209e-07 0)
(0.853699 -8.57325e-07 0)
(0.853698 -8.13128e-07 0)
(0.853698 -7.19732e-07 0)
(0.853698 -5.90673e-07 0)
(0.853698 -4.36815e-07 0)
(0.853697 -2.65366e-07 0)
(0.853697 -7.96998e-08 0)
(0.853697 1.19096e-07 0)
(0.853697 3.2946e-07 0)
(0.853698 5.46523e-07 0)
(0.853698 7.59536e-07 0)
(0.853698 9.47861e-07 0)
(0.853699 1.06923e-06 0)
(0.853699 1.04918e-06 0)
(0.853699 8.06118e-07 0)
(0.912006 1.90851e-07 0)
(0.912006 -9.69921e-08 0)
(0.912006 -3.00208e-07 0)
(0.912005 -4.12009e-07 0)
(0.912005 -4.56259e-07 0)
(0.912005 -4.56755e-07 0)
(0.912004 -4.25089e-07 0)
(0.912004 -3.6998e-07 0)
(0.912003 -2.98843e-07 0)
(0.912003 -2.17734e-07 0)
(0.912003 -1.30283e-07 0)
(0.912003 -3.71608e-08 0)
(0.912003 6.28413e-08 0)
(0.912003 1.70381e-07 0)
(0.912003 2.83275e-07 0)
(0.912004 3.96405e-07 0)
(0.912004 5.01414e-07 0)
(0.912005 5.76777e-07 0)
(0.912005 5.81746e-07 0)
(0.912005 4.49369e-07 0)
(0.970633 4.38334e-08 0)
(0.970633 -4.35897e-08 0)
(0.970633 -9.68148e-08 0)
(0.970633 -1.20623e-07 0)
(0.970632 -1.26197e-07 0)
(0.970632 -1.2166e-07 0)
(0.970632 -1.0992e-07 0)
(0.970632 -9.29347e-08 0)
(0.970632 -7.26158e-08 0)
(0.970631 -5.07549e-08 0)
(0.970631 -2.83323e-08 0)
(0.970631 -5.1069e-09 0)
(0.970631 1.99166e-08 0)
(0.970631 4.73834e-08 0)
(0.970631 7.66114e-08 0)
(0.970632 1.06238e-07 0)
(0.970632 1.35153e-07 0)
(0.970632 1.58722e-07 0)
(0.970633 1.65145e-07 0)
(0.970633 1.30018e-07 0)
)
;

boundaryField
{
    movingWall
    {
        type            fixedValue;
        value           uniform (1 0 0);
    }
    fixedWalls
    {
        type            noSlip;
    }
    left
    {
        type            cyclic;
    }
    right
    {
        type            cyclic;
    }
    frontAndBack
    {
        type            empty;
    }
}


// ************************************************************************* //
