/*--------------------------------*- C++ -*----------------------------------*\
  =========                 |
  \\      /  F ield         | OpenFOAM: The Open Source CFD Toolbox
   \\    /   O peration     | Website:  https://openfoam.org
    \\  /    A nd           | Version:  8
     \\/     M anipulation  |
\*---------------------------------------------------------------------------*/
FoamFile
{
    version     2.0;
    format      ascii;
    class       volVectorField;
    location    "0.11";
    object      U;
}
// * * * * * * * * * * * * * * * * * * * * * * * * * * * * * * * * * * * * * //

dimensions      [0 1 -1 0 0 0 0];

internalField   nonuniform List<vector> 
400
(
(0.0084738 1.08224e-07 0)
(0.00847359 1.72625e-07 0)
(0.00847326 1.88702e-07 0)
(0.00847293 1.68846e-07 0)
(0.00847262 1.41374e-07 0)
(0.00847235 1.13679e-07 0)
(0.00847213 8.76644e-08 0)
(0.00847195 6.39508e-08 0)
(0.00847183 3.96389e-08 0)
(0.00847176 1.09976e-08 0)
(0.00847176 -2.04314e-08 0)
(0.00847182 -5.02049e-08 0)
(0.00847194 -7.6954e-08 0)
(0.00847213 -1.02503e-07 0)
(0.00847238 -1.27431e-07 0)
(0.00847269 -1.47831e-07 0)
(0.00847303 -1.5635e-07 0)
(0.00847338 -1.43009e-07 0)
(0.00847368 -8.97329e-08 0)
(0.00847383 2.81676e-09 0)
(0.0257392 2.11092e-07 0)
(0.025739 4.60593e-07 0)
(0.0257386 5.69644e-07 0)
(0.0257381 5.68288e-07 0)
(0.0257376 5.19037e-07 0)
(0.0257371 4.49379e-07 0)
(0.0257367 3.69198e-07 0)
(0.0257364 2.80478e-07 0)
(0.0257361 1.82143e-07 0)
(0.025736 7.3226e-08 0)
(0.0257359 -4.28275e-08 0)
(0.025736 -1.6043e-07 0)
(0.0257361 -2.7673e-07 0)
(0.0257364 -3.90276e-07 0)
(0.0257368 -4.9527e-07 0)
(0.0257373 -5.78066e-07 0)
(0.0257378 -6.19435e-07 0)
(0.0257384 -5.82632e-07 0)
(0.0257388 -4.19847e-07 0)
(0.0257391 -1.28496e-07 0)
(0.0439614 2.37876e-07 0)
(0.0439614 7.13153e-07 0)
(0.0439612 9.61735e-07 0)
(0.0439608 1.03248e-06 0)
(0.0439604 9.97462e-07 0)
(0.04396 9.01245e-07 0)
(0.0439596 7.66128e-07 0)
(0.0439592 6.03623e-07 0)
(0.043959 4.17502e-07 0)
(0.0439588 2.10318e-07 0)
(0.0439587 -1.19604e-08 0)
(0.0439587 -2.42123e-07 0)
(0.0439588 -4.74308e-07 0)
(0.043959 -7.0113e-07 0)
(0.0439593 -9.07881e-07 0)
(0.0439597 -1.06955e-06 0)
(0.0439601 -1.15131e-06 0)
(0.0439606 -1.09631e-06 0)
(0.043961 -8.30849e-07 0)
(0.0439613 -3.38694e-07 0)
(0.0637784 1.59238e-07 0)
(0.0637785 7.84815e-07 0)
(0.0637784 1.17424e-06 0)
(0.0637782 1.33622e-06 0)
(0.063778 1.34695e-06 0)
(0.0637777 1.25973e-06 0)
(0.0637774 1.10332e-06 0)
(0.0637772 8.94803e-07 0)
(0.0637769 6.46508e-07 0)
(0.0637768 3.67347e-07 0)
(0.0637766 6.46784e-08 0)
(0.0637766 -2.54003e-07 0)
(0.0637766 -5.79617e-07 0)
(0.0637767 -8.98321e-07 0)
(0.0637769 -1.1875e-06 0)
(0.0637771 -1.41558e-06 0)
(0.0637774 -1.53581e-06 0)
(0.0637777 -1.48198e-06 0)
(0.063778 -1.16584e-06 0)
(0.0637782 -5.71521e-07 0)
(0.0858231 1.89402e-08 0)
(0.0858233 7.31298e-07 0)
(0.0858234 1.21051e-06 0)
(0.0858234 1.45402e-06 0)
(0.0858233 1.52287e-06 0)
(0.0858232 1.46587e-06 0)
(0.0858231 1.31557e-06 0)
(0.0858229 1.09563e-06 0)
(0.0858228 8.22288e-07 0)
(0.0858226 5.06223e-07 0)
(0.0858225 1.569e-07 0)
(0.0858225 -2.15249e-07 0)
(0.0858224 -5.98004e-07 0)
(0.0858224 -9.7415e-07 0)
(0.0858224 -1.31689e-06 0)
(0.0858225 -1.59056e-06 0)
(0.0858226 -1.74467e-06 0)
(0.0858228 -1.7064e-06 0)
(0.0858229 -1.38816e-06 0)
(0.085823 -7.67245e-07 0)
(0.110719 -1.29903e-07 0)
(0.11072 5.88974e-07 0)
(0.11072 1.10763e-06 0)
(0.11072 1.40346e-06 0)
(0.11072 1.52192e-06 0)
(0.11072 1.50588e-06 0)
(0.11072 1.38571e-06 0)
(0.11072 1.18494e-06 0)
(0.11072 9.20721e-07 0)
(0.11072 6.05356e-07 0)
(0.11072 2.50093e-07 0)
(0.11072 -1.33299e-07 0)
(0.11072 -5.31553e-07 0)
(0.11072 -9.26417e-07 0)
(0.110719 -1.29058e-06 0)
(0.110719 -1.58609e-06 0)
(0.110719 -1.76348e-06 0)
(0.110719 -1.75294e-06 0)
(0.110719 -1.4718e-06 0)
(0.110719 -8.91653e-07 0)
(0.139072 -2.68386e-07 0)
(0.139073 3.89376e-07 0)
(0.139073 8.91871e-07 0)
(0.139073 1.20567e-06 0)
(0.139073 1.35974e-06 0)
(0.139074 1.38665e-06 0)
(0.139074 1.31078e-06 0)
(0.139074 1.15258e-06 0)
(0.139074 9.27942e-07 0)
(0.139074 6.48967e-07 0)
(0.139074 3.26901e-07 0)
(0.139074 -2.68626e-08 0)
(0.139074 -3.99617e-07 0)
(0.139074 -7.73794e-07 0)
(0.139073 -1.12478e-06 0)
(0.139073 -1.41822e-06 0)
(0.139073 -1.60804e-06 0)
(0.139073 -1.63289e-06 0)
(0.139073 -1.41995e-06 0)
(0.139072 -9.35806e-07 0)
(0.171458 -3.80938e-07 0)
(0.171458 1.58213e-07 0)
(0.171459 5.95037e-07 0)
(0.171459 8.93299e-07 0)
(0.171459 1.06487e-06 0)
(0.17146 1.13036e-06 0)
(0.17146 1.10618e-06 0)
(0.17146 1.00743e-06 0)
(0.17146 8.46565e-07 0)
(0.17146 6.33539e-07 0)
(0.17146 3.77958e-07 0)
(0.17146 8.94004e-08 0)
(0.17146 -2.21596e-07 0)
(0.17146 -5.40241e-07 0)
(0.17146 -8.46363e-07 0)
(0.171459 -1.11282e-06 0)
(0.171459 -1.30218e-06 0)
(0.171459 -1.36537e-06 0)
(0.171458 -1.24336e-06 0)
(0.171458 -8.97228e-07 0)
(0.208404 -4.55971e-07 0)
(0.208405 -8.04393e-08 0)
(0.208405 2.51232e-07 0)
(0.208405 5.03564e-07 0)
(0.208406 6.73147e-07 0)
(0.208406 7.68632e-07 0)
(0.208407 7.97451e-07 0)
(0.208407 7.67777e-07 0)
(0.208407 6.86856e-07 0)
(0.208407 5.60904e-07 0)
(0.208407 3.96508e-07 0)
(0.208407 2.00388e-07 0)
(0.208407 -2.00211e-08 0)
(0.208407 -2.54421e-07 0)
(0.208407 -4.8928e-07 0)
(0.208406 -7.06646e-07 0)
(0.208406 -8.80961e-07 0)
(0.208405 -9.78786e-07 0)
(0.208405 -9.59154e-07 0)
(0.208404 -7.79302e-07 0)
(0.250374 -4.83802e-07 0)
(0.250374 -3.0272e-07 0)
(0.250374 -1.056e-07 0)
(0.250374 7.44403e-08 0)
(0.250375 2.22493e-07 0)
(0.250375 3.3589e-07 0)
(0.250376 4.12859e-07 0)
(0.250376 4.53909e-07 0)
(0.250376 4.60149e-07 0)
(0.250377 4.33064e-07 0)
(0.250377 3.75186e-07 0)
(0.250377 2.89445e-07 0)
(0.250377 1.7952e-07 0)
(0.250376 5.05717e-08 0)
(0.250376 -9.17812e-08 0)
(0.250376 -2.40431e-07 0)
(0.250375 -3.83915e-07 0)
(0.250375 -5.07035e-07 0)
(0.250374 -5.89448e-07 0)
(0.250374 -5.89251e-07 0)
(0.297737 -4.57123e-07 0)
(0.297737 -4.85932e-07 0)
(0.297738 -4.41956e-07 0)
(0.297738 -3.53987e-07 0)
(0.297738 -2.44467e-07 0)
(0.297739 -1.26539e-07 0)
(0.297739 -1.08514e-08 0)
(0.29774 9.54242e-08 0)
(0.29774 1.87079e-07 0)
(0.29774 2.60579e-07 0)
(0.29774 3.13975e-07 0)
(0.29774 3.45908e-07 0)
(0.29774 3.5583e-07 0)
(0.29774 3.43571e-07 0)
(0.29774 3.06744e-07 0)
(0.297739 2.41214e-07 0)
(0.297739 1.43587e-07 0)
(0.297738 9.4854e-09 0)
(0.297738 -1.62666e-07 0)
(0.297737 -3.38019e-07 0)
(0.350752 -3.76187e-07 0)
(0.350753 -6.13452e-07 0)
(0.350753 -7.28106e-07 0)
(0.350753 -7.42195e-07 0)
(0.350753 -6.82829e-07 0)
(0.350754 -5.72565e-07 0)
(0.350754 -4.30152e-07 0)
(0.350755 -2.69942e-07 0)
(0.350755 -1.03028e-07 0)
(0.350755 6.23339e-08 0)
(0.350755 2.19933e-07 0)
(0.350755 3.643e-07 0)
(0.350755 4.90839e-07 0)
(0.350755 5.94525e-07 0)
(0.350755 6.65956e-07 0)
(0.350755 6.90862e-07 0)
(0.350754 6.51795e-07 0)
(0.350754 5.24696e-07 0)
(0.350753 2.85391e-07 0)
(0.350753 -4.45301e-08 0)
(0.409537 -2.5175e-07 0)
(0.409537 -6.78522e-07 0)
(0.409537 -9.42414e-07 0)
(0.409537 -1.0569e-06 0)
(0.409537 -1.05233e-06 0)
(0.409538 -9.59149e-07 0)
(0.409538 -8.02927e-07 0)
(0.409538 -6.04182e-07 0)
(0.409539 -3.78954e-07 0)
(0.409539 -1.39417e-07 0)
(0.409539 1.04645e-07 0)
(0.409539 3.44401e-07 0)
(0.409539 5.72061e-07 0)
(0.409539 7.78956e-07 0)
(0.409539 9.50546e-07 0)
(0.409539 1.06474e-06 0)
(0.409538 1.09223e-06 0)
(0.409538 9.90446e-07 0)
(0.409537 7.12791e-07 0)
(0.409537 2.62285e-07 0)
(0.474045 -1.03708e-07 0)
(0.474045 -6.83408e-07 0)
(0.474045 -1.07196e-06 0)
(0.474046 -1.27292e-06 0)
(0.474046 -1.31992e-06 0)
(0.474046 -1.24919e-06 0)
(0.474046 -1.09129e-06 0)
(0.474046 -8.7137e-07 0)
(0.474047 -6.092e-07 0)
(0.474047 -3.19741e-07 0)
(0.474047 -1.53197e-08 0)
(0.474047 2.93002e-07 0)
(0.474047 5.95566e-07 0)
(0.474047 8.81828e-07 0)
(0.474047 1.13458e-06 0)
(0.474047 1.32703e-06 0)
(0.474047 1.42129e-06 0)
(0.474046 1.35932e-06 0)
(0.474046 1.07382e-06 0)
(0.474046 5.46134e-07 0)
(0.544055 4.1667e-08 0)
(0.544055 -6.36881e-07 0)
(0.544055 -1.11101e-06 0)
(0.544055 -1.37184e-06 0)
(0.544055 -1.4583e-06 0)
(0.544055 -1.41044e-06 0)
(0.544055 -1.26145e-06 0)
(0.544055 -1.03873e-06 0)
(0.544055 -7.64053e-07 0)
(0.544055 -4.53878e-07 0)
(0.544055 -1.2175e-07 0)
(0.544055 2.20492e-07 0)
(0.544055 5.63004e-07 0)
(0.544055 8.95357e-07 0)
(0.544055 1.20021e-06 0)
(0.544055 1.44937e-06 0)
(0.544055 1.60067e-06 0)
(0.544055 1.58632e-06 0)
(0.544055 1.32215e-06 0)
(0.544055 7.67182e-07 0)
(0.619151 1.57354e-07 0)
(0.619151 -5.4946e-07 0)
(0.619151 -1.05761e-06 0)
(0.619151 -1.3417e-06 0)
(0.619151 -1.44759e-06 0)
(0.619151 -1.41769e-06 0)
(0.619151 -1.2858e-06 0)
(0.61915 -1.0789e-06 0)
(0.61915 -8.18221e-07 0)
(0.61915 -5.19761e-07 0)
(0.619151 -1.96568e-07 0)
(0.619151 1.40369e-07 0)
(0.619151 4.82533e-07 0)
(0.619151 8.21127e-07 0)
(0.619151 1.1406e-06 0)
(0.619151 1.41457e-06 0)
(0.619151 1.60216e-06 0)
(0.619151 1.63514e-06 0)
(0.619151 1.41714e-06 0)
(0.619151 8.88285e-07 0)
(0.698732 2.18038e-07 0)
(0.698732 -4.32065e-07 0)
(0.698732 -9.09234e-07 0)
(0.698731 -1.17377e-06 0)
(0.698731 -1.27504e-06 0)
(0.698731 -1.25597e-06 0)
(0.698731 -1.14773e-06 0)
(0.698731 -9.74643e-07 0)
(0.69873 -7.54594e-07 0)
(0.69873 -5.00458e-07 0)
(0.69873 -2.22547e-07 0)
(0.69873 7.0178e-08 0)
(0.69873 3.70466e-07 0)
(0.698731 6.71133e-07 0)
(0.698731 9.6068e-07 0)
(0.698731 1.21976e-06 0)
(0.698731 1.41498e-06 0)
(0.698732 1.48468e-06 0)
(0.698732 1.32653e-06 0)
(0.698732 8.82345e-07 0)
(0.782016 2.08796e-07 0)
(0.782016 -3.03327e-07 0)
(0.782016 -6.7515e-07 0)
(0.782016 -8.75364e-07 0)
(0.782015 -9.48769e-07 0)
(0.782015 -9.3448e-07 0)
(0.782014 -8.57327e-07 0)
(0.782014 -7.3506e-07 0)
(0.782014 -5.78476e-07 0)
(0.782014 -3.94674e-07 0)
(0.782014 -1.91492e-07 0)
(0.782014 2.22174e-08 0)
(0.782014 2.41099e-07 0)
(0.782014 4.63526e-07 0)
(0.782014 6.83261e-07 0)
(0.782014 8.85374e-07 0)
(0.782015 1.04963e-06 0)
(0.782015 1.13501e-06 0)
(0.782016 1.04903e-06 0)
(0.782016 7.28787e-07 0)
(0.868068 1.41849e-07 0)
(0.868068 -1.64311e-07 0)
(0.868067 -3.6687e-07 0)
(0.868067 -4.71249e-07 0)
(0.868067 -5.03837e-07 0)
(0.868066 -4.92694e-07 0)
(0.868066 -4.52456e-07 0)
(0.868065 -3.91994e-07 0)
(0.868065 -3.14113e-07 0)
(0.868065 -2.19531e-07 0)
(0.868065 -1.12551e-07 0)
(0.868065 -6.90061e-10 0)
(0.868065 1.1224e-07 0)
(0.868065 2.27512e-07 0)
(0.868065 3.43865e-07 0)
(0.868066 4.55777e-07 0)
(0.868066 5.55914e-07 0)
(0.868067 6.19816e-07 0)
(0.868067 6.00659e-07 0)
(0.868068 4.25217e-07 0)
(0.95583 3.57996e-08 0)
(0.95583 -5.42042e-08 0)
(0.95583 -1.06274e-07 0)
(0.95583 -1.29333e-07 0)
(0.955829 -1.3285e-07 0)
(0.955829 -1.26876e-07 0)
(0.955829 -1.16146e-07 0)
(0.955829 -1.02203e-07 0)
(0.955828 -8.32538e-08 0)
(0.955828 -5.76451e-08 0)
(0.955828 -2.80218e-08 0)
(0.955828 3.53935e-10 0)
(0.955828 2.6677e-08 0)
(0.955828 5.52968e-08 0)
(0.955828 8.68384e-08 0)
(0.955829 1.17319e-07 0)
(0.955829 1.46988e-07 0)
(0.955829 1.71904e-07 0)
(0.95583 1.75395e-07 0)
(0.95583 1.28053e-07 0)
)
;

boundaryField
{
    movingWall
    {
        type            fixedValue;
        value           uniform (1 0 0);
    }
    fixedWalls
    {
        type            noSlip;
    }
    left
    {
        type            cyclic;
    }
    right
    {
        type            cyclic;
    }
    frontAndBack
    {
        type            empty;
    }
}


// ************************************************************************* //
