/*--------------------------------*- C++ -*----------------------------------*\
  =========                 |
  \\      /  F ield         | OpenFOAM: The Open Source CFD Toolbox
   \\    /   O peration     | Website:  https://openfoam.org
    \\  /    A nd           | Version:  8
     \\/     M anipulation  |
\*---------------------------------------------------------------------------*/
FoamFile
{
    version     2.0;
    format      ascii;
    class       volVectorField;
    location    "1.54";
    object      U;
}
// * * * * * * * * * * * * * * * * * * * * * * * * * * * * * * * * * * * * * //

dimensions      [0 1 -1 0 0 0 0];

internalField   nonuniform List<vector> 
400
(
(0.0249911 3.96461e-17 0)
(0.0249911 3.12302e-17 0)
(0.0249911 1.28853e-16 0)
(0.0249911 1.04466e-16 0)
(0.0249911 8.444e-17 0)
(0.0249911 3.55106e-17 0)
(0.0249911 9.10518e-18 0)
(0.0249911 -5.18162e-17 0)
(0.0249911 -7.95146e-17 0)
(0.0249911 -1.20263e-16 0)
(0.0249911 -1.30984e-16 0)
(0.0249911 -1.39495e-16 0)
(0.0249911 -1.31013e-16 0)
(0.0249911 -1.04053e-16 0)
(0.0249911 -8.3912e-17 0)
(0.0249911 -2.99708e-17 0)
(0.0249911 -1.12038e-18 0)
(0.0249911 5.43405e-17 0)
(0.0249911 7.85702e-17 0)
(0.0249911 2.37023e-17 0)
(0.0749737 8.51961e-16 0)
(0.0749737 5.49219e-16 0)
(0.0749737 4.40647e-16 0)
(0.0749737 1.76729e-16 0)
(0.0749737 -1.14868e-16 0)
(0.0749737 -3.53506e-16 0)
(0.0749737 -5.82491e-16 0)
(0.0749737 -7.2409e-16 0)
(0.0749737 -8.30655e-16 0)
(0.0749737 -8.19905e-16 0)
(0.0749737 -7.52084e-16 0)
(0.0749737 -5.88298e-16 0)
(0.0749737 -3.67302e-16 0)
(0.0749737 -1.10683e-16 0)
(0.0749737 1.6702e-16 0)
(0.0749737 4.10818e-16 0)
(0.0749737 6.55157e-16 0)
(0.0749737 7.97946e-16 0)
(0.0749737 9.20093e-16 0)
(0.0749737 8.06095e-16 0)
(0.124957 1.82371e-15 0)
(0.124957 1.22545e-15 0)
(0.124957 4.18945e-16 0)
(0.124957 -4.4202e-16 0)
(0.124957 -1.238e-15 0)
(0.124957 -1.92284e-15 0)
(0.124957 -2.39053e-15 0)
(0.124957 -2.65305e-15 0)
(0.124957 -2.62684e-15 0)
(0.124957 -2.36934e-15 0)
(0.124957 -1.84832e-15 0)
(0.124957 -1.16885e-15 0)
(0.124957 -3.66542e-16 0)
(0.124957 4.94309e-16 0)
(0.124957 1.30326e-15 0)
(0.124957 1.98965e-15 0)
(0.124957 2.47675e-15 0)
(0.124957 2.74923e-15 0)
(0.124957 2.72382e-15 0)
(0.124957 2.45589e-15 0)
(0.174941 3.17861e-15 0)
(0.174941 1.54588e-15 0)
(0.174941 -2.23987e-16 0)
(0.174941 -1.96843e-15 0)
(0.174941 -3.52727e-15 0)
(0.174941 -4.70813e-15 0)
(0.174941 -5.44992e-15 0)
(0.174941 -5.62165e-15 0)
(0.174941 -5.28981e-15 0)
(0.174941 -4.41524e-15 0)
(0.174941 -3.12329e-15 0)
(0.174941 -1.50208e-15 0)
(0.174941 2.58786e-16 0)
(0.174941 2.0143e-15 0)
(0.174941 3.58359e-15 0)
(0.174941 4.7963e-15 0)
(0.174941 5.56743e-15 0)
(0.174941 5.77907e-15 0)
(0.174941 5.42773e-15 0)
(0.174941 4.50327e-15 0)
(0.224927 4.2812e-15 0)
(0.224927 1.48086e-15 0)
(0.224927 -1.46012e-15 0)
(0.224927 -4.27063e-15 0)
(0.224927 -6.64396e-15 0)
(0.224927 -8.34879e-15 0)
(0.224927 -9.21887e-15 0)
(0.224927 -9.22447e-15 0)
(0.224927 -8.31165e-15 0)
(0.224927 -6.63141e-15 0)
(0.224927 -4.25628e-15 0)
(0.224927 -1.4961e-15 0)
(0.224927 1.47925e-15 0)
(0.224927 4.29041e-15 0)
(0.224927 6.69734e-15 0)
(0.224927 8.46957e-15 0)
(0.224927 9.39485e-15 0)
(0.224927 9.42389e-15 0)
(0.224927 8.48254e-15 0)
(0.224927 6.71726e-15 0)
(0.274914 5.14013e-15 0)
(0.274914 1.10668e-15 0)
(0.274914 -2.98358e-15 0)
(0.274914 -6.8161e-15 0)
(0.274914 -9.94142e-15 0)
(0.274914 -1.20864e-14 0)
(0.274914 -1.30469e-14 0)
(0.274914 -1.27358e-14 0)
(0.274914 -1.12051e-14 0)
(0.274914 -8.60064e-15 0)
(0.274914 -5.11885e-15 0)
(0.274914 -1.13945e-15 0)
(0.274914 2.95718e-15 0)
(0.274914 6.83053e-15 0)
(0.274914 1.00335e-14 0)
(0.274914 1.22409e-14 0)
(0.274914 1.32604e-14 0)
(0.274914 1.29511e-14 0)
(0.274914 1.13777e-14 0)
(0.274914 8.66636e-15 0)
(0.324904 5.58632e-15 0)
(0.324904 6.31724e-16 0)
(0.324904 -4.40843e-15 0)
(0.324904 -8.97524e-15 0)
(0.324904 -1.26671e-14 0)
(0.324904 -1.51146e-14 0)
(0.324904 -1.60791e-14 0)
(0.324904 -1.54402e-14 0)
(0.324904 -1.33512e-14 0)
(0.324904 -9.98827e-15 0)
(0.324904 -5.60724e-15 0)
(0.324904 -6.53116e-16 0)
(0.324904 4.35954e-15 0)
(0.324904 9.01661e-15 0)
(0.324904 1.27908e-14 0)
(0.324904 1.52648e-14 0)
(0.324904 1.62955e-14 0)
(0.324904 1.56837e-14 0)
(0.324904 1.35193e-14 0)
(0.324904 1.00408e-14 0)
(0.374896 5.6437e-15 0)
(0.374896 1.81817e-16 0)
(0.374896 -5.30853e-15 0)
(0.374896 -1.02704e-14 0)
(0.374896 -1.41845e-14 0)
(0.374896 -1.67377e-14 0)
(0.374896 -1.75893e-14 0)
(0.374896 -1.67686e-14 0)
(0.374896 -1.43496e-14 0)
(0.374896 -1.05127e-14 0)
(0.374896 -5.67435e-15 0)
(0.374896 -2.13535e-16 0)
(0.374896 5.27451e-15 0)
(0.374896 1.02971e-14 0)
(0.374896 1.42731e-14 0)
(0.374896 1.6879e-14 0)
(0.374896 1.77884e-14 0)
(0.374896 1.69926e-14 0)
(0.374896 1.45001e-14 0)
(0.374896 1.05888e-14 0)
(0.424891 5.32018e-15 0)
(0.424891 -9.27813e-17 0)
(0.424891 -5.51555e-15 0)
(0.424891 -1.03402e-14 0)
(0.424891 -1.41793e-14 0)
(0.424891 -1.65279e-14 0)
(0.424891 -1.73087e-14 0)
(0.424891 -1.64176e-14 0)
(0.424891 -1.3952e-14 0)
(0.424891 -1.00771e-14 0)
(0.424891 -5.28229e-15 0)
(0.424891 8.07033e-17 0)
(0.424891 5.47846e-15 0)
(0.424891 1.03251e-14 0)
(0.424891 1.41937e-14 0)
(0.424891 1.66524e-14 0)
(0.424891 1.74603e-14 0)
(0.424891 1.6552e-14 0)
(0.424891 1.40804e-14 0)
(0.424891 1.02173e-14 0)
(0.474888 4.56448e-15 0)
(0.474888 -2.14407e-16 0)
(0.474888 -4.95935e-15 0)
(0.474888 -9.25948e-15 0)
(0.474888 -1.25981e-14 0)
(0.474888 -1.46456e-14 0)
(0.474888 -1.52873e-14 0)
(0.474888 -1.44391e-14 0)
(0.474888 -1.21917e-14 0)
(0.474888 -8.75527e-15 0)
(0.474888 -4.46167e-15 0)
(0.474888 2.48668e-16 0)
(0.474888 4.95863e-15 0)
(0.474888 9.21561e-15 0)
(0.474888 1.25852e-14 0)
(0.474888 1.47117e-14 0)
(0.474888 1.53695e-14 0)
(0.474888 1.45015e-14 0)
(0.474888 1.22786e-14 0)
(0.474888 8.89288e-15 0)
(0.524888 3.45902e-15 0)
(0.524888 -2.63023e-16 0)
(0.524888 -3.9592e-15 0)
(0.524888 -7.29892e-15 0)
(0.524888 -9.89736e-15 0)
(0.524888 -1.14687e-14 0)
(0.524888 -1.19426e-14 0)
(0.524888 -1.1223e-14 0)
(0.524888 -9.45611e-15 0)
(0.524888 -6.74264e-15 0)
(0.524888 -3.36314e-15 0)
(0.524888 3.21057e-16 0)
(0.524888 3.98659e-15 0)
(0.524888 7.26863e-15 0)
(0.524888 9.89748e-15 0)
(0.524888 1.14942e-14 0)
(0.524888 1.19929e-14 0)
(0.524888 1.12718e-14 0)
(0.524888 9.51149e-15 0)
(0.524888 6.82224e-15 0)
(0.574891 2.21756e-15 0)
(0.574891 -3.26119e-16 0)
(0.574891 -2.80942e-15 0)
(0.574891 -5.00432e-15 0)
(0.574891 -6.66174e-15 0)
(0.574891 -7.70951e-15 0)
(0.574891 -7.95556e-15 0)
(0.574891 -7.46998e-15 0)
(0.574891 -6.24175e-15 0)
(0.574891 -4.43476e-15 0)
(0.574891 -2.12185e-15 0)
(0.574891 3.87325e-16 0)
(0.574891 2.85925e-15 0)
(0.574891 5.023e-15 0)
(0.574891 6.69425e-15 0)
(0.574891 7.69572e-15 0)
(0.574891 7.97544e-15 0)
(0.574891 7.52941e-15 0)
(0.574891 6.30886e-15 0)
(0.574891 4.49386e-15 0)
(0.624896 1.00548e-15 0)
(0.624896 -3.22544e-16 0)
(0.624896 -1.68597e-15 0)
(0.624896 -2.78623e-15 0)
(0.624896 -3.62044e-15 0)
(0.624896 -4.10419e-15 0)
(0.624896 -4.19129e-15 0)
(0.624896 -3.82871e-15 0)
(0.624896 -3.16331e-15 0)
(0.624896 -2.13188e-15 0)
(0.624896 -8.7946e-16 0)
(0.624896 5.09959e-16 0)
(0.624896 1.81098e-15 0)
(0.624896 2.91298e-15 0)
(0.624896 3.68975e-15 0)
(0.624896 4.10412e-15 0)
(0.624896 4.15281e-15 0)
(0.624896 3.85901e-15 0)
(0.624896 3.22649e-15 0)
(0.624896 2.19474e-15 0)
(0.674904 -4.90977e-17 0)
(0.674904 -3.86234e-16 0)
(0.674904 -7.7567e-16 0)
(0.674904 -1.02812e-15 0)
(0.674904 -1.16889e-15 0)
(0.674904 -1.25815e-15 0)
(0.674904 -1.19256e-15 0)
(0.674904 -1.02548e-15 0)
(0.674904 -6.91415e-16 0)
(0.674904 -2.6594e-16 0)
(0.674904 1.83285e-16 0)
(0.674904 6.26506e-16 0)
(0.674904 9.84746e-16 0)
(0.674904 1.24958e-15 0)
(0.674904 1.32294e-15 0)
(0.674904 1.32626e-15 0)
(0.674904 1.14682e-15 0)
(0.674904 9.91034e-16 0)
(0.674904 7.1991e-16 0)
(0.674904 3.1521e-16 0)
(0.724914 -7.26307e-16 0)
(0.724914 -5.21615e-16 0)
(0.724914 -2.03693e-16 0)
(0.724914 9.67423e-17 0)
(0.724914 3.57562e-16 0)
(0.724914 5.23196e-16 0)
(0.724914 5.8544e-16 0)
(0.724914 7.2024e-16 0)
(0.724914 8.34979e-16 0)
(0.724914 8.8158e-16 0)
(0.724914 8.31692e-16 0)
(0.724914 7.06356e-16 0)
(0.724914 4.6818e-16 0)
(0.724914 1.18633e-16 0)
(0.724914 -1.86234e-16 0)
(0.724914 -4.5677e-16 0)
(0.724914 -6.53003e-16 0)
(0.724914 -7.89213e-16 0)
(0.724914 -8.20264e-16 0)
(0.724914 -8.61876e-16 0)
(0.774927 -9.5359e-16 0)
(0.774927 -4.37395e-16 0)
(0.774927 1.18509e-16 0)
(0.774927 6.51418e-16 0)
(0.774927 9.71979e-16 0)
(0.774927 1.16252e-15 0)
(0.774927 1.28661e-15 0)
(0.774927 1.36158e-15 0)
(0.774927 1.47128e-15 0)
(0.774927 1.32563e-15 0)
(0.774927 9.94874e-16 0)
(0.774927 6.59406e-16 0)
(0.774927 1.95303e-16 0)
(0.774927 -3.60231e-16 0)
(0.774927 -8.18083e-16 0)
(0.774927 -1.17699e-15 0)
(0.774927 -1.41496e-15 0)
(0.774927 -1.52145e-15 0)
(0.774927 -1.48384e-15 0)
(0.774927 -1.24587e-15 0)
(0.824941 -7.30825e-16 0)
(0.824941 -2.49127e-16 0)
(0.824941 2.61964e-16 0)
(0.824941 6.89961e-16 0)
(0.824941 1.00593e-15 0)
(0.824941 1.12778e-15 0)
(0.824941 1.20539e-15 0)
(0.824941 1.24077e-15 0)
(0.824941 1.29248e-15 0)
(0.824941 1.12778e-15 0)
(0.824941 8.59582e-16 0)
(0.824941 4.62406e-16 0)
(0.824941 4.16101e-17 0)
(0.824941 -4.01785e-16 0)
(0.824941 -8.46898e-16 0)
(0.824941 -1.13483e-15 0)
(0.824941 -1.3259e-15 0)
(0.824941 -1.45389e-15 0)
(0.824941 -1.41363e-15 0)
(0.824941 -1.10892e-15 0)
(0.874957 -3.80956e-16 0)
(0.874957 -1.00623e-16 0)
(0.874957 2.10482e-16 0)
(0.874957 5.04914e-16 0)
(0.874957 6.61529e-16 0)
(0.874957 6.82374e-16 0)
(0.874957 6.67489e-16 0)
(0.874957 6.60793e-16 0)
(0.874957 7.40255e-16 0)
(0.874957 6.8728e-16 0)
(0.874957 6.10335e-16 0)
(0.874957 3.17538e-16 0)
(0.874957 1.68409e-17 0)
(0.874957 -3.05238e-16 0)
(0.874957 -5.79095e-16 0)
(0.874957 -7.66406e-16 0)
(0.874957 -8.39917e-16 0)
(0.874957 -8.80672e-16 0)
(0.874957 -8.42599e-16 0)
(0.874957 -6.70237e-16 0)
(0.924974 -1.60746e-16 0)
(0.924974 -1.13968e-16 0)
(0.924974 1.14233e-16 0)
(0.924974 3.23003e-16 0)
(0.924974 2.74961e-16 0)
(0.924974 1.91361e-16 0)
(0.924974 1.07085e-16 0)
(0.924974 9.2656e-17 0)
(0.924974 2.35865e-16 0)
(0.924974 3.94053e-16 0)
(0.924974 3.13e-16 0)
(0.924974 2.01034e-16 0)
(0.924974 5.34059e-17 0)
(0.924974 -9.64219e-17 0)
(0.924974 -2.27684e-16 0)
(0.924974 -3.02641e-16 0)
(0.924974 -3.60412e-16 0)
(0.924974 -2.68507e-16 0)
(0.924974 -2.59788e-16 0)
(0.924974 -2.31185e-16 0)
(0.974991 -4.67018e-17 0)
(0.974991 -6.76912e-17 0)
(0.974991 2.782e-17 0)
(0.974991 1.15984e-16 0)
(0.974991 4.86986e-17 0)
(0.974991 1.91715e-17 0)
(0.974991 -7.36738e-17 0)
(0.974991 -4.77717e-17 0)
(0.974991 9.3451e-19 0)
(0.974991 1.23285e-16 0)
(0.974991 9.72876e-17 0)
(0.974991 3.41942e-17 0)
(0.974991 4.25711e-17 0)
(0.974991 -9.69697e-18 0)
(0.974991 -1.59222e-17 0)
(0.974991 -3.36791e-17 0)
(0.974991 -4.11285e-17 0)
(0.974991 -1.99361e-17 0)
(0.974991 -2.69959e-17 0)
(0.974991 -3.2229e-17 0)
)
;

boundaryField
{
    movingWall
    {
        type            fixedValue;
        value           uniform (1 0 0);
    }
    fixedWalls
    {
        type            noSlip;
    }
    left
    {
        type            cyclic;
    }
    right
    {
        type            cyclic;
    }
    frontAndBack
    {
        type            empty;
    }
}


// ************************************************************************* //
