0 	-6.80323e-10
1.57135 	5.53269e-08
3.1427 	3.94475e-06
4.71405 	2.29845e-05
6.28539 	7.73371e-05
7.85674 	0.000198512
9.42809 	0.000424604
10.9994 	0.000801783
12.5708 	0.00134076
14.1421 	0.00718036
