/*--------------------------------*- C++ -*----------------------------------*\
  =========                 |
  \\      /  F ield         | OpenFOAM: The Open Source CFD Toolbox
   \\    /   O peration     | Website:  https://openfoam.org
    \\  /    A nd           | Version:  8
     \\/     M anipulation  |
\*---------------------------------------------------------------------------*/
FoamFile
{
    version     2.0;
    format      ascii;
    class       volVectorField;
    location    "52.5";
    object      U;
}
// * * * * * * * * * * * * * * * * * * * * * * * * * * * * * * * * * * * * * //

dimensions      [0 1 -1 0 0 0 0];

internalField   nonuniform List<vector> 
464
(
(-0.00016745 0.000165992 0)
(-0.000549962 0.000183645 0)
(-0.00095016 0.000177987 0)
(-0.00131985 0.000168321 0)
(-0.00167189 0.000154457 0)
(-0.00199602 0.000135385 0)
(-0.00227297 0.000110843 0)
(-0.00253952 7.82338e-05 0)
(-0.00269062 4.02549e-05 0)
(-0.00292207 -1.34275e-05 0)
(-0.00286354 -5.74244e-05 0)
(-0.0031605 3.17967e-07 0)
(-0.000191471 0.000551513 0)
(-0.00062605 0.000607493 0)
(-0.00107957 0.000589661 0)
(-0.00149956 0.00056049 0)
(-0.00190048 0.000522256 0)
(-0.00227045 0.000476064 0)
(-0.00259051 0.000425973 0)
(-0.00289608 0.000363963 0)
(-0.00308411 0.00031983 0)
(-0.00335053 0.000231175 0)
(-0.00334189 0.000247295 0)
(-0.00367502 9.45523e-05 0)
(-0.000198119 0.000974743 0)
(-0.000648126 0.00107132 0)
(-0.00111738 0.00103902 0)
(-0.00154995 0.000985488 0)
(-0.00195996 0.000912385 0)
(-0.00233227 0.000819138 0)
(-0.00265553 0.000709628 0)
(-0.00294215 0.000575068 0)
(-0.0031356 0.00044866 0)
(-0.00332594 0.000268787 0)
(-0.00333804 0.000195448 0)
(-0.00339772 -3.70692e-05 0)
(-0.000207484 0.0014001 0)
(-0.000679699 0.00153897 0)
(-0.0011738 0.00149281 0)
(-0.00163306 0.0014175 0)
(-0.00207529 0.00131807 0)
(-0.002483 0.00119567 0)
(-0.00284556 0.00105306 0)
(-0.00316868 0.000885814 0)
(-0.00340256 0.000711721 0)
(-0.0036161 0.000488915 0)
(-0.00365882 0.000308592 0)
(-0.00369911 1.79337e-06 0)
(-0.000219636 0.00185639 0)
(-0.000720545 0.00204087 0)
(-0.00124382 0.00197955 0)
(-0.00172494 0.00187738 0)
(-0.00218196 0.00173779 0)
(-0.00259737 0.00156149 0)
(-0.00296544 0.00135137 0)
(-0.00328335 0.00110453 0)
(-0.00353248 0.000835821 0)
(-0.00372895 0.000514075 0)
(-0.00382515 0.000215525 0)
(-0.00387191 -0.000189931 0)
(-0.000235665 0.00233467 0)
(-0.000775291 0.00257081 0)
(-0.0013436 0.00249769 0)
(-0.00187499 0.00238177 0)
(-0.00239138 0.00222324 0)
(-0.00286979 0.00202552 0)
(-0.00330315 0.00178931 0)
(-0.00368492 0.00151343 0)
(-0.00399399 0.00120325 0)
(-0.00423695 0.000846863 0)
(-0.00436338 0.000469459 0)
(-0.00438892 1.24456e-05 0)
(-0.00025208 0.00286218 0)
(-0.000833584 0.00314711 0)
(-0.0014405 0.00305069 0)
(-0.00199929 0.00288917 0)
(-0.00253785 0.0026776 0)
(-0.00303069 0.00241106 0)
(-0.00347664 0.00209548 0)
(-0.00386821 0.00172616 0)
(-0.00419782 0.00130799 0)
(-0.00446145 0.000830328 0)
(-0.00465888 0.000313876 0)
(-0.00477489 -0.000294881 0)
(-0.000282005 0.00344447 0)
(-0.000927112 0.00381159 0)
(-0.00161108 0.00369961 0)
(-0.0022486 0.00355744 0)
(-0.00287014 0.00332699 0)
(-0.00345299 0.00305524 0)
(-0.00398958 0.00272055 0)
(-0.00447437 0.00233163 0)
(-0.00489203 0.00189157 0)
(-0.00523285 0.00138637 0)
(-0.0054896 0.00085627 0)
(-0.00558678 0.000184061 0)
(-0.00028175 0.00399184 0)
(-0.000985514 0.00439312 0)
(-0.00170482 0.0042744 0)
(-0.00237119 0.00404093 0)
(-0.00303893 0.0037705 0)
(-0.00363548 0.003408 0)
(-0.00419794 0.00299731 0)
(-0.00469433 0.00250576 0)
(-0.00513982 0.00195497 0)
(-0.00549388 0.00130572 0)
(-0.00585812 0.000626448 0)
(-0.0060369 -0.000253815 0)
(-0.00035843 0.00482902 0)
(-0.00113434 0.00539925 0)
(-0.0019771 0.0051922 0)
(-0.00275418 0.00507948 0)
(-0.00350491 0.00471208 0)
(-0.00422907 0.00439209 0)
(-0.00489535 0.00392886 0)
(-0.00552146 0.00342243 0)
(-0.006097 0.00286688 0)
(-0.00656669 0.00218328 0)
(-0.00705127 0.0015863 0)
(-0.00726655 0.000611699 0)
(-0.000265528 0.00530275 0)
(-0.00118968 0.00580571 0)
(-0.00203519 0.00571902 0)
(-0.00284865 0.00533837 0)
(-0.0037234 0.00506786 0)
(-0.00441481 0.00456983 0)
(-0.00516262 0.00411298 0)
(-0.00575044 0.00348569 0)
(-0.00637163 0.00286826 0)
(-0.00676869 0.00202407 0)
(-0.00742038 0.00128615 0)
(-0.00759035 7.58408e-05 0)
(-0.000523168 0.00650549 0)
(-0.00139896 0.00747657 0)
(-0.00246615 0.00703656 0)
(-0.00341012 0.00711408 0)
(-0.00427737 0.00645408 0)
(-0.0051905 0.00615884 0)
(-0.00598591 0.00546805 0)
(-0.00677625 0.00485243 0)
(-0.00756797 0.00418647 0)
(-0.0081621 0.00331022 0)
(-0.00900496 0.00274878 0)
(-0.00934937 0.00147184 0)
(-3.70695e-05 0.00693621 0)
(-0.00142065 0.00738436 0)
(-0.0024006 0.0074645 0)
(-0.00342343 0.00674906 0)
(-0.00467303 0.00659854 0)
(-0.00539308 0.00588491 0)
(-0.00646059 0.0054791 0)
(-0.00702185 0.00467885 0)
(-0.00790006 0.00411295 0)
(-0.00819632 0.00305428 0)
(-0.00923822 0.00245398 0)
(-0.00925518 0.000875622 0)
(-0.00102767 0.00829409 0)
(-0.00181935 0.0103265 0)
(-0.00314171 0.00930383 0)
(-0.00428715 0.00994766 0)
(-0.00514619 0.00866118 0)
(-0.00632313 0.00847493 0)
(-0.00720028 0.00736006 0)
(-0.00816092 0.0066327 0)
(-0.00920628 0.00580449 0)
(-0.00984794 0.00475304 0)
(-0.0111972 0.00432781 0)
(-0.0115266 0.00286213 0)
(0.00107529 0.009387 0)
(-0.00135914 0.00895189 0)
(-0.00275335 0.00956858 0)
(-0.00404716 0.00813408 0)
(-0.00614492 0.0082943 0)
(-0.00668013 0.00732631 0)
(-0.00829326 0.00704681 0)
(-0.00856049 0.00607862 0)
(-0.00975954 0.00565568 0)
(-0.00965797 0.00440995 0)
(-0.0111015 0.00414883 0)
(-0.0105662 0.00233114 0)
(-0.00286753 0.00900204 0)
(-0.00292383 0.0148348 0)
(-0.00395116 0.0123257 0)
(-0.00556761 0.0141917 0)
(-0.00594626 0.0116004 0)
(-0.00759896 0.0114196 0)
(-0.00845674 0.0095736 0)
(-0.00958232 0.00859955 0)
(-0.010889 0.00750201 0)
(-0.0113966 0.00624472 0)
(-0.0132996 0.00595811 0)
(-0.0132645 0.00449903 0)
(0.00374569 0.0147534 0)
(-3.15763e-05 0.00931247 0)
(-0.00422101 0.0117458 0)
(-0.00505738 0.00923203 0)
(-0.00910292 0.0098442 0)
(-0.00871232 0.00895649 0)
(-0.0111149 0.00868483 0)
(-0.0105921 0.00765187 0)
(-0.0120857 0.00732132 0)
(-0.0111802 0.00593596 0)
(-0.0128421 0.00606601 0)
(-0.011074 0.00425901 0)
(0.00368617 0.00536071 0)
(-0.000184404 0.0237609 0)
(0.00305693 0.0177241 0)
(-0.00411248 0.0203488 0)
(-0.00427591 0.0156506 0)
(-0.00777895 0.0145759 0)
(-0.00929024 0.0118782 0)
(-0.0108021 0.0102482 0)
(-0.0125686 0.00885421 0)
(-0.0127227 0.00721063 0)
(-0.0150275 0.00673196 0)
(-0.0141565 0.00542235 0)
(-0.0359149 0.011679 0)
(-0.0197572 0.00907891 0)
(-0.0390253 0.0149115 0)
(-0.0262035 0.0153216 0)
(-0.0318545 0.0127309 0)
(-0.0237203 0.0128019 0)
(-0.0243317 0.011248 0)
(-0.0191621 0.00980879 0)
(-0.0185421 0.00909827 0)
(-0.0141051 0.00728946 0)
(-0.0143108 0.00758801 0)
(-0.00911242 0.00582361 0)
(0.0274266 0.0589055 0)
(0.0451681 0.0292331 0)
(0.0634313 0.0238185 0)
(0.0837492 0.0154674 0)
(0.0945295 0.0131713 0)
(0.109058 0.00861793 0)
(0.114748 0.00763722 0)
(0.129064 0.00510745 0)
(0.127761 0.00462829 0)
(0.144394 0.00314904 0)
(0.136084 0.00244834 0)
(0.156218 0.00220289 0)
(-0.00288735 0.00166794 0)
(-0.00204741 0.000911171 0)
(-0.00180908 0.000178043 0)
(-0.00142195 -0.000237759 0)
(-0.00115361 -0.000590823 0)
(-0.000816591 -0.000823418 0)
(-0.000486467 -0.000978485 0)
(-0.000146757 -0.00094994 0)
(-0.00324245 0.000467491 0)
(-0.0023187 4.48294e-05 0)
(-0.00204899 -0.000269114 0)
(-0.00160591 -0.000640636 0)
(-0.00130268 -0.000925573 0)
(-0.000926817 -0.00117045 0)
(-0.000551596 -0.00132388 0)
(-0.000167707 -0.00126876 0)
(-0.0031939 0.0001908 0)
(-0.00278282 -0.000269176 0)
(-0.00249394 -0.000590094 0)
(-0.00207776 -0.00100958 0)
(-0.00168296 -0.00133466 0)
(-0.00121969 -0.00162114 0)
(-0.000723363 -0.00180041 0)
(-0.000225032 -0.00172027 0)
(-0.00348376 -0.000163734 0)
(-0.00309707 -0.000593117 0)
(-0.00279008 -0.000942617 0)
(-0.00235035 -0.00137613 0)
(-0.00191554 -0.00172154 0)
(-0.00140057 -0.0020544 0)
(-0.000833432 -0.00225261 0)
(-0.000262624 -0.00214551 0)
(-0.00378808 -0.00047381 0)
(-0.0035611 -0.000989349 0)
(-0.00327705 -0.00142788 0)
(-0.00285591 -0.00195342 0)
(-0.00236087 -0.00237738 0)
(-0.00175988 -0.00279429 0)
(-0.0010491 -0.0030387 0)
(-0.000343078 -0.0029035 0)
(-0.00428335 -0.000434283 0)
(-0.00405113 -0.00102955 0)
(-0.00375486 -0.00153856 0)
(-0.00330108 -0.00221358 0)
(-0.0027578 -0.00267565 0)
(-0.00207638 -0.00327017 0)
(-0.00124595 -0.00353736 0)
(-0.00041741 -0.00342659 0)
(-0.00482915 -0.000882733 0)
(-0.00466452 -0.0016227 0)
(-0.00445858 -0.00227587 0)
(-0.0039923 -0.00311707 0)
(-0.00341499 -0.00371551 0)
(-0.00263752 -0.00448548 0)
(-0.00157804 -0.00483755 0)
(-0.000588277 -0.00472182 0)
(-0.00561179 -0.000406637 0)
(-0.00544803 -0.00135191 0)
(-0.00524936 -0.00197931 0)
(-0.00474729 -0.00317524 0)
(-0.00412707 -0.0037619 0)
(-0.00322761 -0.00498423 0)
(-0.00196571 -0.00534312 0)
(-0.000762165 -0.00542118 0)
(-0.0063596 -0.00104826 0)
(-0.00623712 -0.00220859 0)
(-0.00627079 -0.00306562 0)
(-0.00577637 -0.00454206 0)
(-0.00521118 -0.00537307 0)
(-0.00424892 -0.00696901 0)
(-0.00259223 -0.0075019 0)
(-0.00121454 -0.00771395 0)
(-0.0075662 3.1695e-05 0)
(-0.00747845 -0.00143077 0)
(-0.00757828 -0.00205011 0)
(-0.00707839 -0.00416291 0)
(-0.00654611 -0.00482254 0)
(-0.00542948 -0.00745319 0)
(-0.00348084 -0.00794852 0)
(-0.00171183 -0.00896804 0)
(-0.008384 -0.000781853 0)
(-0.0083217 -0.00256303 0)
(-0.00896411 -0.00351286 0)
(-0.00856239 -0.00608685 0)
(-0.00844124 -0.0071585 0)
(-0.00745617 -0.0105995 0)
(-0.00500673 -0.0114784 0)
(-0.00311161 -0.0133605 0)
(-0.0102037 0.0010792 0)
(-0.0102425 -0.000922007 0)
(-0.0110844 -0.00122157 0)
(-0.0107949 -0.00466855 0)
(-0.0109987 -0.0051549 0)
(-0.00999372 -0.0107445 0)
(-0.00747892 -0.0115191 0)
(-0.0049826 -0.0167114 0)
(-0.0107323 0.000312523 0)
(-0.0106237 -0.00224636 0)
(-0.0125961 -0.00284569 0)
(-0.0125387 -0.00700478 0)
(-0.014263 -0.00798506 0)
(-0.014147 -0.0151155 0)
(-0.0121796 -0.0167114 0)
(-0.0103781 -0.0266441 0)
(-0.0133392 0.00299729 0)
(-0.013465 0.000694896 0)
(-0.015831 0.00144481 0)
(-0.016081 -0.00316127 0)
(-0.0188991 -0.00234591 0)
(-0.0195786 -0.0128515 0)
(-0.0198223 -0.0137634 0)
(-0.0192992 -0.0386728 0)
(-0.0128262 0.0024827 0)
(-0.0121186 -0.000470569 0)
(-0.0161907 0.000273739 0)
(-0.016275 -0.00520383 0)
(-0.023158 -0.00402395 0)
(-0.0261446 -0.0159666 0)
(-0.032585 -0.0165071 0)
(-0.0326429 -0.0672582 0)
(-0.0162145 0.00541653 0)
(-0.0157881 0.0035765 0)
(-0.0207507 0.00672365 0)
(-0.0203861 0.00310042 0)
(-0.0293656 0.00926554 0)
(-0.0291662 -0.00442967 0)
(-0.0416885 -0.00481771 0)
(-0.0228615 -0.104028 0)
(-0.0137836 0.00526854 0)
(-0.0105762 0.00285886 0)
(-0.0164412 0.00543741 0)
(-0.0121731 0.00164875 0)
(-0.0264688 0.00607205 0)
(-0.0219351 -0.00695189 0)
(-0.0440516 -0.02045 0)
(0.00963484 -0.136383 0)
(-0.0177774 0.00601603 0)
(-0.0158369 0.0059026 0)
(-0.0225256 0.0100874 0)
(-0.0185602 0.0121394 0)
(-0.0316004 0.0222918 0)
(-0.0164384 0.0105168 0)
(-0.0391269 -0.0315143 0)
(0.0316338 -0.135302 0)
(-0.0108269 0.00720653 0)
(-0.00195979 0.0061453 0)
(-0.00718408 0.00845418 0)
(0.0137958 0.00856243 0)
(0.00382134 0.00410862 0)
(0.0443507 -0.00242351 0)
(0.0266549 -0.0698409 0)
(0.0420074 -0.151355 0)
(0.142003 -0.000506345 0)
(0.164696 0.00244935 0)
(0.148369 -0.00458292 0)
(0.170356 0.00100495 0)
(0.155083 -0.00593937 0)
(0.168672 -0.0132757 0)
(0.136677 -0.0203732 0)
(0.0835777 -0.0585514 0)
(-1.93296e-05 -2.3821e-05 0)
(-6.04145e-05 -2.67721e-05 0)
(-9.12021e-05 -2.95273e-05 0)
(-0.000105189 -3.30143e-05 0)
(-0.000102781 -3.4967e-05 0)
(-8.45789e-05 -3.66525e-05 0)
(-5.35852e-05 -3.7501e-05 0)
(-1.67151e-05 -3.49125e-05 0)
(-2.31796e-05 0.00010497 0)
(-7.12373e-05 0.000101121 0)
(-0.000106935 7.48014e-05 0)
(-0.000121575 4.59954e-05 0)
(-0.000117099 1.43972e-05 0)
(-9.60069e-05 -1.08939e-05 0)
(-6.05853e-05 -2.99183e-05 0)
(-1.89724e-05 -3.39366e-05 0)
(-3.53538e-05 6.50394e-05 0)
(-0.00010745 5.29583e-05 0)
(-0.000156455 1.66209e-05 0)
(-0.000176862 -2.42125e-05 0)
(-0.000170648 -6.36642e-05 0)
(-0.000138102 -9.59294e-05 0)
(-8.70265e-05 -0.000119076 0)
(-2.70624e-05 -0.000117863 0)
(-4.35147e-05 0.000256903 0)
(-0.000128372 0.000232705 0)
(-0.000184819 0.000149264 0)
(-0.000202327 6.50816e-05 0)
(-0.000189294 -2.15111e-05 0)
(-0.000152219 -8.72959e-05 0)
(-9.48761e-05 -0.00013549 0)
(-2.95367e-05 -0.000141019 0)
(-8.51548e-05 0.000221492 0)
(-0.000241526 0.000181905 0)
(-0.000324924 7.99001e-05 0)
(-0.000347559 -2.36401e-05 0)
(-0.000322912 -0.00012183 0)
(-0.000252527 -0.000198484 0)
(-0.000156836 -0.000253066 0)
(-4.81622e-05 -0.000251692 0)
(-0.00010774 0.000605642 0)
(-0.000295488 0.000495882 0)
(-0.000391517 0.000265701 0)
(-0.000404301 7.22161e-05 0)
(-0.00036447 -0.000109847 0)
(-0.000284632 -0.000237717 0)
(-0.000174874 -0.000327946 0)
(-5.39075e-05 -0.000331381 0)
(-0.000257474 0.000592023 0)
(-0.000645025 0.000438375 0)
(-0.000750298 0.000168151 0)
(-0.000722434 -5.45758e-05 0)
(-0.000632289 -0.000258549 0)
(-0.000471444 -0.000403882 0)
(-0.000286979 -0.000505284 0)
(-8.69528e-05 -0.000498259 0)
(-0.000359909 0.00156139 0)
(-0.000787328 0.00103258 0)
(-0.000889408 0.0003579 0)
(-0.000831998 -3.03935e-05 0)
(-0.000714847 -0.000347432 0)
(-0.000533978 -0.000553726 0)
(-0.000322902 -0.000691058 0)
(-9.83287e-05 -0.000679269 0)
)
;

boundaryField
{
    movingWall
    {
        type            fixedValue;
        value           uniform (1 0 0);
    }
    fixedWalls
    {
        type            noSlip;
    }
    frontAndBack
    {
        type            empty;
    }
}


// ************************************************************************* //
