/*--------------------------------*- C++ -*----------------------------------*\
  =========                 |
  \\      /  F ield         | OpenFOAM: The Open Source CFD Toolbox
   \\    /   O peration     | Website:  https://openfoam.org
    \\  /    A nd           | Version:  8
     \\/     M anipulation  |
\*---------------------------------------------------------------------------*/
FoamFile
{
    version     2.0;
    format      ascii;
    class       volScalarField;
    location    "45.5";
    object      p;
}
// * * * * * * * * * * * * * * * * * * * * * * * * * * * * * * * * * * * * * //

dimensions      [0 2 -2 0 0 0 0];

internalField   nonuniform List<scalar> 
464
(
-2.55809e-08
1.50724e-06
6.48103e-06
1.39343e-05
2.4292e-05
3.73936e-05
5.34353e-05
7.14879e-05
9.36008e-05
0.000114717
0.000143839
0.000163393
-1.82975e-06
-3.19525e-07
4.62791e-06
1.20549e-05
2.24407e-05
3.57115e-05
5.21165e-05
7.08643e-05
9.38931e-05
0.000116546
0.000147174
0.000170495
-7.36892e-06
-5.9217e-06
-1.02912e-06
6.30369e-06
1.65391e-05
2.94968e-05
4.52083e-05
6.32928e-05
8.46078e-05
0.000106724
0.000133774
0.000157703
-1.56225e-05
-1.42616e-05
-9.4103e-06
-2.08542e-06
8.33957e-06
2.2031e-05
3.92031e-05
5.96343e-05
8.39059e-05
0.000109855
0.000140793
0.00016984
-2.7021e-05
-2.58195e-05
-2.11026e-05
-1.39944e-05
-3.91279e-06
8.88507e-06
2.44382e-05
4.28812e-05
6.45027e-05
8.88587e-05
0.000116742
0.000145983
-4.15316e-05
-4.05562e-05
-3.60086e-05
-2.9066e-05
-1.87386e-05
-4.37729e-06
1.41783e-05
3.68692e-05
6.37961e-05
9.43929e-05
0.000129152
0.000166019
-5.87821e-05
-5.82593e-05
-5.40947e-05
-4.7879e-05
-3.87455e-05
-2.723e-05
-1.24416e-05
6.12822e-06
2.88244e-05
5.57995e-05
8.7038e-05
0.000122692
-7.96622e-05
-7.97431e-05
-7.58622e-05
-6.9976e-05
-5.94508e-05
-4.42736e-05
-2.44698e-05
4.27693e-07
3.07314e-05
6.66107e-05
0.000107986
0.000155739
-0.000102445
-0.000104389
-0.000101094
-9.97475e-05
-9.3787e-05
-8.54621e-05
-7.23344e-05
-5.42041e-05
-3.05018e-05
-3.52437e-07
3.42338e-05
8.03517e-05
-0.000125727
-0.000125287
-0.000123429
-0.000117755
-0.000110007
-9.67123e-05
-7.86901e-05
-5.36219e-05
-2.15317e-05
1.95453e-05
6.62554e-05
0.000131302
-0.000170595
-0.000180195
-0.000173242
-0.000185224
-0.000176765
-0.000176529
-0.000164628
-0.000148071
-0.000125209
-8.92372e-05
-5.85104e-05
8.81797e-06
-0.000161425
-0.000162027
-0.000169528
-0.000167016
-0.000170919
-0.000162876
-0.000153677
-0.000131458
-0.000104737
-5.66273e-05
-1.55638e-05
7.21133e-05
-0.000255694
-0.000282867
-0.000266461
-0.000308884
-0.00029
-0.00031268
-0.000296566
-0.000286617
-0.000269575
-0.000223346
-0.000211171
-0.000112136
-0.000187305
-0.000189525
-0.000214999
-0.000218993
-0.000246131
-0.000247695
-0.000259227
-0.000240881
-0.000233998
-0.000173962
-0.000158497
-3.48498e-05
-0.000331783
-0.000407759
-0.000370384
-0.000480927
-0.000440294
-0.000507211
-0.000479344
-0.000484456
-0.000473877
-0.000416878
-0.000436045
-0.000307776
-0.00019544
-0.000201664
-0.000257162
-0.000276062
-0.00033928
-0.000361408
-0.000406944
-0.000394014
-0.000423677
-0.000343089
-0.000381276
-0.000209116
-0.000319919
-0.000544019
-0.000474434
-0.000728765
-0.000650068
-0.000784025
-0.000733693
-0.000752944
-0.000745181
-0.000668661
-0.000728623
-0.000566829
-0.000180019
-0.000202026
-0.000296724
-0.000351664
-0.000452859
-0.000525805
-0.000614723
-0.00060895
-0.000685633
-0.000568604
-0.00067493
-0.00044274
8.23386e-05
-0.000739057
-0.000605545
-0.00113357
-0.000982717
-0.00118235
-0.00109729
-0.00110154
-0.00108856
-0.000960203
-0.00104627
-0.000836115
-0.00113206
-4.98203e-05
-0.000224492
-0.000582703
-0.000694593
-0.000843465
-0.000982236
-0.000942461
-0.00105133
-0.000849208
-0.00100605
-0.00068294
0.000202282
0.000219985
0.000240422
0.000253969
0.000267349
0.000276405
0.000283301
0.000285865
0.000212073
0.000230784
0.00025364
0.000268391
0.000282815
0.000292646
0.000300033
0.000302802
0.000189284
0.00021371
0.000239912
0.000261294
0.000280722
0.000295432
0.000305909
0.000310278
0.000204764
0.000232333
0.000261325
0.000285282
0.00030683
0.000323497
0.000335203
0.000340244
0.00017936
0.000212505
0.000245571
0.000277385
0.000304638
0.000328508
0.000343995
0.000351775
0.000205087
0.000243688
0.000281634
0.000318624
0.000350225
0.000378578
0.000396878
0.000406405
0.00016243
0.000208809
0.000250522
0.000302053
0.000338044
0.000382121
0.000403572
0.000420473
0.000204732
0.000260175
0.000310779
0.000371781
0.0004164
0.000470177
0.000497547
0.000519579
0.000123016
0.000195126
0.000241042
0.000332915
0.000376012
0.000466203
0.000494707
0.000537365
0.000188261
0.000274341
0.000336891
0.000444305
0.000505059
0.000615099
0.000657258
0.000715387
4.03556e-05
0.000154909
0.000192311
0.000356606
0.000400929
0.00059093
0.000630732
0.000751097
0.000129806
0.000266524
0.000331027
0.00052229
0.000597428
0.000830342
0.000901524
0.00107598
-0.000112393
5.55136e-05
5.43244e-05
0.00032917
0.000351319
0.00074266
0.000806907
0.00118257
-1.86832e-05
0.000198922
0.000223811
0.000548308
0.000600402
0.00108457
0.00121307
0.00178442
-0.000367024
-0.000147654
-0.00024526
0.000145946
3.62661e-05
0.000765856
0.000815963
0.00199601
-0.000282592
7.14024e-06
-0.000124898
0.000367788
0.000160459
0.00107069
0.000886957
0.00263463
-0.000721148
-0.00047061
-0.000795695
-0.000354464
-0.00101335
2.72871e-05
-0.00132445
0.0015229
-0.000630746
-0.000290389
-0.000664586
-0.000173193
-0.00109787
-5.35369e-06
-0.0017821
0.0022659
-0.00103123
-0.000820241
-0.00127746
-0.00105419
-0.00234502
-0.00199969
-0.00305822
0.00154721
-0.000925182
-0.000583447
-0.000959784
-0.000712045
-0.00106337
0.000192192
0.00328825
0.0128254
0.000258684
0.000259001
0.00025983
0.000260792
0.000261907
0.000262833
0.000263583
0.000263864
0.000259696
0.000260021
0.000260862
0.000261838
0.000262928
0.000263827
0.000264553
0.000264817
0.000256162
0.000256692
0.000258023
0.000259489
0.000261221
0.000262619
0.000263752
0.000264174
0.000259032
0.000259651
0.000261113
0.000262747
0.000264488
0.000265895
0.00026701
0.000267409
0.000250464
0.000251809
0.000254745
0.000257684
0.00026113
0.000263727
0.000265842
0.00026661
0.00025544
0.000257092
0.000260323
0.000263683
0.000267129
0.000269806
0.000271908
0.000272659
0.00023725
0.000241599
0.000248974
0.000255353
0.000262425
0.000267408
0.000271387
0.00027282
0.000244306
0.000249995
0.000257902
0.000265015
0.000272189
0.000277405
0.000281468
0.000282923
)
;

boundaryField
{
    movingWall
    {
        type            zeroGradient;
    }
    fixedWalls
    {
        type            zeroGradient;
    }
    frontAndBack
    {
        type            empty;
    }
}


// ************************************************************************* //
