/*--------------------------------*- C++ -*----------------------------------*\
  =========                 |
  \\      /  F ield         | OpenFOAM: The Open Source CFD Toolbox
   \\    /   O peration     | Website:  https://openfoam.org
    \\  /    A nd           | Version:  8
     \\/     M anipulation  |
\*---------------------------------------------------------------------------*/
FoamFile
{
    version     2.0;
    format      ascii;
    class       volScalarField;
    location    "1.02";
    object      p;
}
// * * * * * * * * * * * * * * * * * * * * * * * * * * * * * * * * * * * * * //

dimensions      [0 2 -2 0 0 0 0];

internalField   nonuniform List<scalar> 
400
(
-2.70262e-13
-1.83834e-07
-2.46543e-07
-2.50129e-07
-2.34611e-07
-2.08715e-07
-1.82028e-07
-1.62233e-07
-1.48675e-07
-1.38279e-07
-1.2677e-07
-1.05052e-07
-6.53841e-08
-8.17214e-09
6.28628e-08
1.4962e-07
2.60005e-07
3.77167e-07
4.0539e-07
2.55187e-07
-4.45328e-08
-1.89732e-07
-2.10548e-07
-1.92507e-07
-1.74904e-07
-1.54873e-07
-1.399e-07
-1.33273e-07
-1.30098e-07
-1.28213e-07
-1.25089e-07
-1.12143e-07
-8.26544e-08
-3.88074e-08
1.42183e-08
7.79095e-08
1.67748e-07
2.79692e-07
3.23637e-07
1.89347e-07
-9.24618e-08
-2.33457e-07
-2.13194e-07
-1.63098e-07
-1.37803e-07
-1.23019e-07
-1.16942e-07
-1.20284e-07
-1.26277e-07
-1.31393e-07
-1.33733e-07
-1.26462e-07
-1.03816e-07
-6.77856e-08
-2.34862e-08
3.03921e-08
1.15984e-07
2.43527e-07
3.07005e-07
1.65033e-07
-1.26061e-07
-2.76885e-07
-2.30379e-07
-1.52905e-07
-1.20367e-07
-1.11399e-07
-1.14574e-07
-1.26885e-07
-1.39711e-07
-1.49507e-07
-1.55477e-07
-1.51227e-07
-1.30512e-07
-9.53278e-08
-5.20658e-08
-3.8502e-10
8.81369e-08
2.35651e-07
3.24445e-07
1.72527e-07
-1.34764e-07
-3.09719e-07
-2.47242e-07
-1.48477e-07
-1.12899e-07
-1.11292e-07
-1.23658e-07
-1.44533e-07
-1.64071e-07
-1.78256e-07
-1.86129e-07
-1.81295e-07
-1.58164e-07
-1.2016e-07
-7.50462e-08
-2.23071e-08
7.29774e-08
2.44545e-07
3.63029e-07
2.0671e-07
-1.27772e-07
-3.35877e-07
-2.64595e-07
-1.47814e-07
-1.10299e-07
-1.16335e-07
-1.378e-07
-1.67235e-07
-1.93301e-07
-2.10329e-07
-2.16901e-07
-2.08109e-07
-1.808e-07
-1.40012e-07
-9.32994e-08
-3.82645e-08
6.58304e-08
2.62923e-07
4.13795e-07
2.56224e-07
-1.20604e-07
-3.63938e-07
-2.87831e-07
-1.53824e-07
-1.13116e-07
-1.25945e-07
-1.55781e-07
-1.92094e-07
-2.21798e-07
-2.38159e-07
-2.40455e-07
-2.26497e-07
-1.95909e-07
-1.54199e-07
-1.07122e-07
-5.00148e-08
6.17185e-08
2.80132e-07
4.60277e-07
3.03628e-07
-1.20072e-07
-3.96236e-07
-3.17933e-07
-1.67624e-07
-1.22532e-07
-1.40296e-07
-1.75568e-07
-2.14656e-07
-2.43772e-07
-2.56313e-07
-2.5287e-07
-2.34105e-07
-2.02085e-07
-1.61803e-07
-1.16097e-07
-5.82465e-08
5.77135e-08
2.89643e-07
4.91918e-07
3.3808e-07
-1.25851e-07
-4.30718e-07
-3.53407e-07
-1.89334e-07
-1.38866e-07
-1.58324e-07
-1.94412e-07
-2.31388e-07
-2.56293e-07
-2.6344e-07
-2.54339e-07
-2.31699e-07
-1.99595e-07
-1.62338e-07
-1.19637e-07
-6.29554e-08
5.30589e-08
2.89895e-07
5.06021e-07
3.56948e-07
-1.35705e-07
-4.64241e-07
-3.91387e-07
-2.17135e-07
-1.60457e-07
-1.77949e-07
-2.10285e-07
-2.41146e-07
-2.5969e-07
-2.61462e-07
-2.47991e-07
-2.22814e-07
-1.91473e-07
-1.57861e-07
-1.19055e-07
-6.51254e-08
4.73026e-08
2.81394e-07
5.03623e-07
3.61341e-07
-1.47732e-07
-4.93996e-07
-4.28671e-07
-2.48171e-07
-1.85e-07
-1.97744e-07
-2.23149e-07
-2.45444e-07
-2.56746e-07
-2.54002e-07
-2.37981e-07
-2.11845e-07
-1.81878e-07
-1.51727e-07
-1.16561e-07
-6.58126e-08
4.06015e-08
2.656e-07
4.86815e-07
3.52997e-07
-1.59415e-07
-5.16641e-07
-4.61743e-07
-2.79604e-07
-2.10912e-07
-2.1783e-07
-2.34995e-07
-2.47779e-07
-2.51669e-07
-2.4522e-07
-2.28075e-07
-2.02101e-07
-1.73521e-07
-1.45713e-07
-1.12709e-07
-6.43503e-08
3.46317e-08
2.44969e-07
4.58267e-07
3.34172e-07
-1.66925e-07
-5.27829e-07
-4.87019e-07
-3.09355e-07
-2.37729e-07
-2.39436e-07
-2.48751e-07
-2.52403e-07
-2.49246e-07
-2.39523e-07
-2.2169e-07
-1.95815e-07
-1.67461e-07
-1.3979e-07
-1.06539e-07
-5.90612e-08
3.17389e-08
2.22597e-07
4.21424e-07
3.08156e-07
-1.6658e-07
-5.23538e-07
-5.01546e-07
-3.36078e-07
-2.65205e-07
-2.63213e-07
-2.662e-07
-2.62278e-07
-2.53141e-07
-2.40414e-07
-2.21352e-07
-1.94161e-07
-1.63663e-07
-1.33181e-07
-9.70358e-08
-4.88025e-08
3.38042e-08
2.01795e-07
3.80378e-07
2.78751e-07
-1.57594e-07
-5.02496e-07
-5.03834e-07
-3.58969e-07
-2.92831e-07
-2.88562e-07
-2.87e-07
-2.77692e-07
-2.64064e-07
-2.4838e-07
-2.26761e-07
-1.96003e-07
-1.60664e-07
-1.24799e-07
-8.3807e-08
-3.34034e-08
4.20558e-08
1.85779e-07
3.39303e-07
2.49074e-07
-1.43504e-07
-4.68934e-07
-4.9533e-07
-3.78075e-07
-3.20525e-07
-3.15162e-07
-3.10338e-07
-2.97286e-07
-2.7991e-07
-2.604e-07
-2.34283e-07
-1.97911e-07
-1.56092e-07
-1.13635e-07
-6.6767e-08
-1.27233e-08
5.77586e-08
1.7759e-07
3.02289e-07
2.20821e-07
-1.29437e-07
-4.31567e-07
-4.8112e-07
-3.94574e-07
-3.48269e-07
-3.43028e-07
-3.35711e-07
-3.19059e-07
-2.96934e-07
-2.71696e-07
-2.39486e-07
-1.96994e-07
-1.48715e-07
-9.91742e-08
-4.53288e-08
1.36555e-08
8.08701e-08
1.78322e-07
2.72147e-07
1.93087e-07
-1.18597e-07
-3.97453e-07
-4.68955e-07
-4.13795e-07
-3.78837e-07
-3.72858e-07
-3.61895e-07
-3.39657e-07
-3.10529e-07
-2.78061e-07
-2.39412e-07
-1.91014e-07
-1.36127e-07
-7.86181e-08
-1.6398e-08
4.87514e-08
1.13341e-07
1.89709e-07
2.50925e-07
1.65508e-07
-1.14944e-07
-3.79557e-07
-4.74502e-07
-4.51907e-07
-4.249e-07
-4.12457e-07
-3.92254e-07
-3.59971e-07
-3.21247e-07
-2.80799e-07
-2.35493e-07
-1.80155e-07
-1.16806e-07
-4.96102e-08
2.26317e-08
9.69444e-08
1.63666e-07
2.23095e-07
2.50516e-07
1.50323e-07
-1.17407e-07
-4.08864e-07
-5.38601e-07
-5.35136e-07
-5.03099e-07
-4.72303e-07
-4.34355e-07
-3.87108e-07
-3.36216e-07
-2.86018e-07
-2.3272e-07
-1.69612e-07
-9.61496e-08
-1.56129e-08
7.04113e-08
1.58031e-07
2.38253e-07
3.01147e-07
3.0857e-07
1.74965e-07
)
;

boundaryField
{
    movingWall
    {
        type            zeroGradient;
    }
    fixedWalls
    {
        type            zeroGradient;
    }
    left
    {
        type            cyclic;
    }
    right
    {
        type            cyclic;
    }
    frontAndBack
    {
        type            empty;
    }
}


// ************************************************************************* //
