/*--------------------------------*- C++ -*----------------------------------*\
  =========                 |
  \\      /  F ield         | OpenFOAM: The Open Source CFD Toolbox
   \\    /   O peration     | Website:  https://openfoam.org
    \\  /    A nd           | Version:  8
     \\/     M anipulation  |
\*---------------------------------------------------------------------------*/
FoamFile
{
    version     2.0;
    format      ascii;
    class       volVectorField;
    location    "1.02";
    object      U;
}
// * * * * * * * * * * * * * * * * * * * * * * * * * * * * * * * * * * * * * //

dimensions      [0 1 -1 0 0 0 0];

internalField   nonuniform List<vector> 
400
(
(0.0249842 2.00789e-09 0)
(0.0249842 1.06942e-08 0)
(0.0249841 1.12744e-08 0)
(0.0249841 8.73516e-09 0)
(0.0249841 6.61914e-09 0)
(0.0249841 4.92036e-09 0)
(0.0249841 3.72421e-09 0)
(0.0249841 2.90922e-09 0)
(0.0249841 2.09873e-09 0)
(0.0249841 1.44267e-09 0)
(0.024984 1.119e-09 0)
(0.024984 8.0517e-10 0)
(0.024984 8.06968e-11 0)
(0.024984 -1.18464e-09 0)
(0.024984 -3.07458e-09 0)
(0.0249841 -6.05077e-09 0)
(0.0249841 -1.1098e-08 0)
(0.0249841 -1.74527e-08 0)
(0.0249841 -1.98099e-08 0)
(0.0249842 -1.17689e-08 0)
(0.0749529 6.89085e-09 0)
(0.0749528 3.76005e-08 0)
(0.0749528 4.49549e-08 0)
(0.0749528 3.89388e-08 0)
(0.0749527 3.1515e-08 0)
(0.0749527 2.5219e-08 0)
(0.0749527 2.00548e-08 0)
(0.0749527 1.59449e-08 0)
(0.0749526 1.24366e-08 0)
(0.0749526 9.33268e-09 0)
(0.0749526 6.48389e-09 0)
(0.0749526 3.3263e-09 0)
(0.0749526 -8.36856e-10 0)
(0.0749526 -6.56435e-09 0)
(0.0749526 -1.45564e-08 0)
(0.0749527 -2.59946e-08 0)
(0.0749527 -4.23706e-08 0)
(0.0749527 -5.97805e-08 0)
(0.0749528 -6.28706e-08 0)
(0.0749528 -3.72559e-08 0)
(0.124923 3.61402e-09 0)
(0.124923 6.09289e-08 0)
(0.124923 7.97375e-08 0)
(0.124923 7.52306e-08 0)
(0.124922 6.42979e-08 0)
(0.124922 5.32827e-08 0)
(0.124922 4.35963e-08 0)
(0.124922 3.51329e-08 0)
(0.124922 2.74574e-08 0)
(0.124922 2.03194e-08 0)
(0.124922 1.32391e-08 0)
(0.124922 5.33737e-09 0)
(0.124922 -4.37023e-09 0)
(0.124922 -1.68773e-08 0)
(0.124922 -3.33555e-08 0)
(0.124922 -5.50885e-08 0)
(0.124922 -8.254e-08 0)
(0.124922 -1.09195e-07 0)
(0.124923 -1.1199e-07 0)
(0.124923 -6.90987e-08 0)
(0.174894 -6.28928e-09 0)
(0.174894 6.96858e-08 0)
(0.174894 1.01444e-07 0)
(0.174894 1.01864e-07 0)
(0.174894 9.11012e-08 0)
(0.174894 7.82105e-08 0)
(0.174894 6.53905e-08 0)
(0.174894 5.34075e-08 0)
(0.174894 4.22205e-08 0)
(0.174894 3.13316e-08 0)
(0.174894 2.003e-08 0)
(0.174894 7.43133e-09 0)
(0.174894 -7.53319e-09 0)
(0.174894 -2.61052e-08 0)
(0.174894 -4.95537e-08 0)
(0.174894 -7.87076e-08 0)
(0.174894 -1.12717e-07 0)
(0.174894 -1.43175e-07 0)
(0.174894 -1.45931e-07 0)
(0.174894 -9.48562e-08 0)
(0.224868 -1.83404e-08 0)
(0.224868 6.6651e-08 0)
(0.224868 1.08691e-07 0)
(0.224868 1.15351e-07 0)
(0.224868 1.07218e-07 0)
(0.224868 9.47372e-08 0)
(0.224868 8.10791e-08 0)
(0.224868 6.73918e-08 0)
(0.224868 5.38749e-08 0)
(0.224868 4.02879e-08 0)
(0.224868 2.60416e-08 0)
(0.224868 1.01792e-08 0)
(0.224868 -8.49011e-09 0)
(0.224868 -3.11719e-08 0)
(0.224868 -5.88203e-08 0)
(0.224868 -9.16514e-08 0)
(0.224868 -1.27993e-07 0)
(0.224868 -1.59223e-07 0)
(0.224868 -1.62294e-07 0)
(0.224868 -1.11588e-07 0)
(0.274846 -3.10848e-08 0)
(0.274846 5.4682e-08 0)
(0.274846 1.02415e-07 0)
(0.274846 1.14749e-07 0)
(0.274846 1.10655e-07 0)
(0.274846 1.00464e-07 0)
(0.274846 8.77705e-08 0)
(0.274846 7.41758e-08 0)
(0.274846 6.01902e-08 0)
(0.274846 4.57353e-08 0)
(0.274846 3.02916e-08 0)
(0.274846 1.29621e-08 0)
(0.274846 -7.31734e-09 0)
(0.274846 -3.15035e-08 0)
(0.274846 -6.01866e-08 0)
(0.274846 -9.31918e-08 0)
(0.274846 -1.28562e-07 0)
(0.274846 -1.58705e-07 0)
(0.274846 -1.63445e-07 0)
(0.274846 -1.18981e-07 0)
(0.324827 -4.1805e-08 0)
(0.324827 3.75702e-08 0)
(0.324827 8.62615e-08 0)
(0.324827 1.02671e-07 0)
(0.324827 1.02614e-07 0)
(0.324827 9.56425e-08 0)
(0.324827 8.53784e-08 0)
(0.324827 7.35669e-08 0)
(0.324827 6.08262e-08 0)
(0.324827 4.71921e-08 0)
(0.324827 3.22981e-08 0)
(0.324827 1.54358e-08 0)
(0.324827 -4.22445e-09 0)
(0.324827 -2.73365e-08 0)
(0.324827 -5.41476e-08 0)
(0.324827 -8.43231e-08 0)
(0.324827 -1.16103e-07 0)
(0.324827 -1.4366e-07 0)
(0.324827 -1.51014e-07 0)
(0.324827 -1.1687e-07 0)
(0.374813 -4.88998e-08 0)
(0.374813 1.79811e-08 0)
(0.374813 6.31432e-08 0)
(0.374813 8.14726e-08 0)
(0.374813 8.49072e-08 0)
(0.374813 8.15994e-08 0)
(0.374813 7.476e-08 0)
(0.374813 6.5993e-08 0)
(0.374813 5.58807e-08 0)
(0.374813 4.4549e-08 0)
(0.374813 3.18317e-08 0)
(0.374813 1.72707e-08 0)
(0.374813 2.9539e-10 0)
(0.374813 -1.94755e-08 0)
(0.374813 -4.20237e-08 0)
(0.374813 -6.69754e-08 0)
(0.374813 -9.30953e-08 0)
(0.374813 -1.16736e-07 0)
(0.374813 -1.26958e-07 0)
(0.374813 -1.05851e-07 0)
(0.424803 -5.17667e-08 0)
(0.424803 -2.122e-09 0)
(0.424803 3.5759e-08 0)
(0.424803 5.38773e-08 0)
(0.424803 6.00188e-08 0)
(0.424803 6.04072e-08 0)
(0.424803 5.75172e-08 0)
(0.424803 5.26093e-08 0)
(0.424803 4.61282e-08 0)
(0.424803 3.82479e-08 0)
(0.424803 2.89984e-08 0)
(0.424803 1.8189e-08 0)
(0.424803 5.51873e-09 0)
(0.424803 -9.15208e-09 0)
(0.424803 -2.56372e-08 0)
(0.424803 -4.36319e-08 0)
(0.424803 -6.25666e-08 0)
(0.424803 -8.11457e-08 0)
(0.424803 -9.3871e-08 0)
(0.424803 -8.71368e-08 0)
(0.474798 -5.0491e-08 0)
(0.474798 -2.13654e-08 0)
(0.474798 6.32734e-09 0)
(0.474798 2.24525e-08 0)
(0.474798 3.0487e-08 0)
(0.474798 3.43619e-08 0)
(0.474798 3.56062e-08 0)
(0.474798 3.50024e-08 0)
(0.474798 3.27809e-08 0)
(0.474798 2.91097e-08 0)
(0.474798 2.41772e-08 0)
(0.474798 1.80495e-08 0)
(0.474798 1.06997e-08 0)
(0.474798 2.22311e-09 0)
(0.474798 -7.07169e-09 0)
(0.474798 -1.70124e-08 0)
(0.474798 -2.77304e-08 0)
(0.474798 -4.0268e-08 0)
(0.474798 -5.46534e-08 0)
(0.474798 -6.24125e-08 0)
(0.524798 -4.55424e-08 0)
(0.524798 -3.87865e-08 0)
(0.524798 -2.327e-08 0)
(0.524798 -1.04144e-08 0)
(0.524798 -1.1674e-09 0)
(0.524798 5.89716e-09 0)
(0.524798 1.1239e-08 0)
(0.524798 1.50796e-08 0)
(0.524798 1.73859e-08 0)
(0.524798 1.82731e-08 0)
(0.524798 1.80419e-08 0)
(0.524798 1.69928e-08 0)
(0.524798 1.53744e-08 0)
(0.524798 1.35197e-08 0)
(0.524798 1.18519e-08 0)
(0.524798 1.04077e-08 0)
(0.524798 8.40338e-09 0)
(0.524798 2.62332e-09 0)
(0.524798 -1.22944e-08 0)
(0.524798 -3.36387e-08 0)
(0.574803 -3.7689e-08 0)
(0.574803 -5.37071e-08 0)
(0.574803 -5.13726e-08 0)
(0.574803 -4.2476e-08 0)
(0.574803 -3.24496e-08 0)
(0.574803 -2.24811e-08 0)
(0.574803 -1.32367e-08 0)
(0.574803 -5.09045e-09 0)
(0.574803 1.64626e-09 0)
(0.574803 7.01637e-09 0)
(0.574803 1.13964e-08 0)
(0.574803 1.52931e-08 0)
(0.574803 1.92239e-08 0)
(0.574803 2.37625e-08 0)
(0.574803 2.94601e-08 0)
(0.574803 3.62724e-08 0)
(0.574803 4.29031e-08 0)
(0.574803 4.42807e-08 0)
(0.574803 3.01165e-08 0)
(0.574803 -3.01086e-09 0)
(0.624813 -2.80204e-08 0)
(0.624813 -6.57085e-08 0)
(0.624813 -7.64838e-08 0)
(0.624813 -7.15634e-08 0)
(0.624813 -6.08551e-08 0)
(0.624813 -4.82067e-08 0)
(0.624813 -3.54018e-08 0)
(0.624813 -2.33845e-08 0)
(0.624813 -1.27113e-08 0)
(0.624813 -3.39275e-09 0)
(0.624813 5.01418e-09 0)
(0.624813 1.31975e-08 0)
(0.624813 2.19237e-08 0)
(0.624813 3.20004e-08 0)
(0.624813 4.41278e-08 0)
(0.624813 5.82784e-08 0)
(0.624813 7.28715e-08 0)
(0.624813 8.14599e-08 0)
(0.624813 6.93859e-08 0)
(0.624813 2.70492e-08 0)
(0.674828 -1.78762e-08 0)
(0.674828 -7.44937e-08 0)
(0.674828 -9.7054e-08 0)
(0.674828 -9.53873e-08 0)
(0.674828 -8.37335e-08 0)
(0.674828 -6.85863e-08 0)
(0.674828 -5.27542e-08 0)
(0.674828 -3.76414e-08 0)
(0.674828 -2.39482e-08 0)
(0.674828 -1.16822e-08 0)
(0.674828 -3.16452e-10 0)
(0.674828 1.09949e-08 0)
(0.674828 2.32279e-08 0)
(0.674828 3.73963e-08 0)
(0.674828 5.43694e-08 0)
(0.674828 7.42643e-08 0)
(0.674828 9.55201e-08 0)
(0.674828 1.10935e-07 0)
(0.674828 1.02209e-07 0)
(0.674828 5.39298e-08 0)
(0.724846 -8.67241e-09 0)
(0.724846 -7.97367e-08 0)
(0.724846 -1.11304e-07 0)
(0.724846 -1.115e-07 0)
(0.724846 -9.84246e-08 0)
(0.724846 -8.10478e-08 0)
(0.724846 -6.2989e-08 0)
(0.724846 -4.59304e-08 0)
(0.724846 -3.05379e-08 0)
(0.724846 -1.67283e-08 0)
(0.724846 -3.87083e-09 0)
(0.724846 8.99691e-09 0)
(0.724846 2.29885e-08 0)
(0.724846 3.92734e-08 0)
(0.724846 5.8913e-08 0)
(0.724846 8.23158e-08 0)
(0.724846 1.08276e-07 0)
(0.724846 1.29524e-07 0)
(0.724846 1.25225e-07 0)
(0.724846 7.4889e-08 0)
(0.774869 -1.55156e-09 0)
(0.774869 -8.10081e-08 0)
(0.774869 -1.17174e-07 0)
(0.774869 -1.17239e-07 0)
(0.774869 -1.02372e-07 0)
(0.774869 -8.34773e-08 0)
(0.774869 -6.44672e-08 0)
(0.774869 -4.7023e-08 0)
(0.774869 -3.15907e-08 0)
(0.774869 -1.79136e-08 0)
(0.774869 -5.27287e-09 0)
(0.774869 7.331e-09 0)
(0.774869 2.10473e-08 0)
(0.774869 3.7139e-08 0)
(0.774869 5.68778e-08 0)
(0.774869 8.10706e-08 0)
(0.774869 1.09121e-07 0)
(0.774869 1.34361e-07 0)
(0.774869 1.35259e-07 0)
(0.774869 8.71119e-08 0)
(0.824895 3.03593e-09 0)
(0.824895 -7.68518e-08 0)
(0.824895 -1.12024e-07 0)
(0.824895 -1.09788e-07 0)
(0.824895 -9.32488e-08 0)
(0.824895 -7.43441e-08 0)
(0.824895 -5.64076e-08 0)
(0.824895 -4.06267e-08 0)
(0.824895 -2.7087e-08 0)
(0.824895 -1.53744e-08 0)
(0.824895 -4.77415e-09 0)
(0.824895 5.66689e-09 0)
(0.824895 1.70842e-08 0)
(0.824895 3.07503e-08 0)
(0.824895 4.79512e-08 0)
(0.824895 6.97183e-08 0)
(0.824895 9.63109e-08 0)
(0.824895 1.22739e-07 0)
(0.824895 1.29122e-07 0)
(0.824895 8.74938e-08 0)
(0.874923 4.78973e-09 0)
(0.874923 -6.38512e-08 0)
(0.874923 -9.25706e-08 0)
(0.874923 -8.6952e-08 0)
(0.874923 -7.03712e-08 0)
(0.874923 -5.39529e-08 0)
(0.874923 -3.96408e-08 0)
(0.874923 -2.7737e-08 0)
(0.874923 -1.80237e-08 0)
(0.874923 -1.00062e-08 0)
(0.874923 -2.91569e-09 0)
(0.874923 4.13576e-09 0)
(0.874923 1.19031e-08 0)
(0.874923 2.12041e-08 0)
(0.874923 3.33295e-08 0)
(0.874923 4.96608e-08 0)
(0.874923 7.08494e-08 0)
(0.874923 9.40809e-08 0)
(0.874923 1.04003e-07 0)
(0.874923 7.40514e-08 0)
(0.924953 3.47169e-09 0)
(0.924953 -3.87684e-08 0)
(0.924953 -5.56597e-08 0)
(0.924953 -4.94912e-08 0)
(0.924953 -3.71657e-08 0)
(0.924953 -2.68928e-08 0)
(0.924953 -1.88154e-08 0)
(0.924953 -1.25326e-08 0)
(0.924953 -7.75533e-09 0)
(0.924953 -4.14515e-09 0)
(0.924953 -1.08654e-09 0)
(0.924953 2.07501e-09 0)
(0.924953 5.66868e-09 0)
(0.924953 1.00141e-08 0)
(0.924953 1.59107e-08 0)
(0.924953 2.43064e-08 0)
(0.924953 3.62421e-08 0)
(0.924953 5.12431e-08 0)
(0.924953 6.011e-08 0)
(0.924953 4.57263e-08 0)
(0.974984 1.5004e-10 0)
(0.974984 -1.34608e-08 0)
(0.974984 -1.75871e-08 0)
(0.974984 -1.41483e-08 0)
(0.974984 -9.56954e-09 0)
(0.974984 -6.37816e-09 0)
(0.974984 -4.11053e-09 0)
(0.974984 -2.47181e-09 0)
(0.974984 -1.42921e-09 0)
(0.974984 -8.77824e-10 0)
(0.974984 -4.2527e-10 0)
(0.974984 2.8474e-10 0)
(0.974984 1.15961e-09 0)
(0.974984 2.02078e-09 0)
(0.974984 3.24921e-09 0)
(0.974984 5.37287e-09 0)
(0.974984 8.69843e-09 0)
(0.974984 1.34982e-08 0)
(0.974984 1.74139e-08 0)
(0.974984 1.3818e-08 0)
)
;

boundaryField
{
    movingWall
    {
        type            fixedValue;
        value           uniform (1 0 0);
    }
    fixedWalls
    {
        type            noSlip;
    }
    left
    {
        type            cyclic;
    }
    right
    {
        type            cyclic;
    }
    frontAndBack
    {
        type            empty;
    }
}


// ************************************************************************* //
