/*--------------------------------*- C++ -*----------------------------------*\
  =========                 |
  \\      /  F ield         | OpenFOAM: The Open Source CFD Toolbox
   \\    /   O peration     | Website:  https://openfoam.org
    \\  /    A nd           | Version:  8
     \\/     M anipulation  |
\*---------------------------------------------------------------------------*/
FoamFile
{
    version     2.0;
    format      ascii;
    class       volScalarField;
    location    "46.5";
    object      p;
}
// * * * * * * * * * * * * * * * * * * * * * * * * * * * * * * * * * * * * * //

dimensions      [0 2 -2 0 0 0 0];

internalField   nonuniform List<scalar> 
116
(
-1.16647e-07
-0.00100413
-0.00151961
-0.00325544
0.00110457
-0.00859134
7.72679e-05
-0.000641597
-0.000297369
-0.00382786
-0.00158212
-0.00300393
0.000896301
2.59057e-05
-0.000318778
-0.00294872
-0.00559964
-0.00812871
0.00153956
0.00100405
-0.000169826
-0.00330897
-0.00739016
-0.008984
0.00168385
0.00113556
-0.000602528
-0.00435579
-0.00925345
-0.0109172
0.00100108
0.000746569
-0.00100824
-0.00435043
-0.00914215
-0.0108546
0.00118374
0.000757757
-0.000629688
-0.00379183
-0.00833999
-0.0109686
0.000207229
0.000951722
0.000403087
-0.0015968
-0.00482058
-0.00703538
0.00160015
0.000867779
0.00216965
0.000476434
-0.00243822
-0.00531799
-0.00374132
0.00416452
0.00420619
0.00295363
-0.000458683
-0.00266813
0.00195934
0.0107742
0.00927774
0.0146038
-0.00196978
0.00200249
0.00488736
0.00829705
-0.00866236
-0.006112
-0.00255195
0.000774729
-0.0100093
-0.00882636
-0.00708001
-0.00389192
-0.0113042
-0.0102799
-0.00957763
-0.00652049
-0.0114791
-0.00991782
-0.00990814
-0.00642079
-0.0115507
-0.00953837
-0.0104606
-0.00313602
-0.00702348
-0.00497147
-0.00410707
0.00655015
-0.00716488
-0.00495819
-0.00308813
0.0142751
-0.00263819
0.004384
0.0181162
0.0551816
0.0185369
0.0176874
0.0174214
0.0209541
0.016388
0.0165283
0.0144513
0.0169005
0.0126096
0.0133371
0.0114152
0.0125045
0.0089544
0.0166338
0.0101134
0.0144445
)
;

boundaryField
{
    movingWall
    {
        type            zeroGradient;
    }
    fixedWalls
    {
        type            zeroGradient;
    }
    frontAndBack
    {
        type            empty;
    }
}


// ************************************************************************* //
