/*--------------------------------*- C++ -*----------------------------------*\
  =========                 |
  \\      /  F ield         | OpenFOAM: The Open Source CFD Toolbox
   \\    /   O peration     | Website:  https://openfoam.org
    \\  /    A nd           | Version:  8
     \\/     M anipulation  |
\*---------------------------------------------------------------------------*/
FoamFile
{
    version     2.0;
    format      ascii;
    class       volScalarField;
    location    "15.5";
    object      p;
}
// * * * * * * * * * * * * * * * * * * * * * * * * * * * * * * * * * * * * * //

dimensions      [0 2 -2 0 0 0 0];

internalField   nonuniform List<scalar> 
464
(
4.95961e-09
4.66802e-06
1.45259e-05
2.90986e-05
4.81395e-05
7.11701e-05
9.77492e-05
0.00012706
0.000159227
0.000191379
0.000228071
0.000257724
-4.62641e-06
1.28807e-07
1.01917e-05
2.5068e-05
4.4504e-05
6.80168e-05
9.51608e-05
0.000125133
0.000158026
0.000191072
0.000228794
0.000259832
-1.46852e-05
-9.71856e-06
7.93175e-07
1.6329e-05
3.66124e-05
6.11304e-05
8.93448e-05
0.000120495
0.000154128
0.00018875
0.000225216
0.000258863
-3.01471e-05
-2.48497e-05
-1.36413e-05
2.92124e-06
2.45326e-05
5.06518e-05
8.07051e-05
0.000113931
0.000149814
0.000186975
0.000226012
0.000262481
-5.14642e-05
-4.57052e-05
-3.35305e-05
-1.5544e-05
7.89777e-06
3.62044e-05
6.87131e-05
0.000104626
0.000143165
0.000183229
0.000224285
0.000264553
-7.9126e-05
-7.27551e-05
-5.93133e-05
-3.94514e-05
-1.3607e-05
1.75802e-05
5.33594e-05
9.28909e-05
0.00013533
0.000179595
0.000225001
0.000269672
-0.000113791
-0.00010664
-9.16014e-05
-6.93585e-05
-4.04902e-05
-5.68433e-06
3.41685e-05
7.81601e-05
0.000125316
0.000174519
0.000224812
0.00027493
-0.000156453
-0.000148278
-0.000131241
-0.000105981
-7.33604e-05
-3.40658e-05
1.07982e-05
6.02702e-05
0.000113254
0.000168618
0.000225277
0.000281888
-0.000207612
-0.000198283
-0.00017892
-0.000150012
-0.000112874
-6.81378e-05
-1.72642e-05
3.87552e-05
9.86584e-05
0.00016126
0.000225372
0.00028974
-0.000271018
-0.000259652
-0.00023703
-0.000202985
-0.000160233
-0.00010871
-5.06138e-05
1.31914e-05
8.12389e-05
0.000152324
0.000225203
0.000298546
-0.000340055
-0.000327476
-0.000301996
-0.000263258
-0.000214703
-0.000155788
-8.96038e-05
-1.68397e-05
6.05877e-05
0.000141355
0.000224085
0.000307765
-0.000438962
-0.000421016
-0.000390793
-0.000340857
-0.00028354
-0.00021285
-0.000135964
-5.21032e-05
3.63073e-05
0.000128486
0.000223424
0.000319344
-0.000525173
-0.000507369
-0.000473434
-0.000418302
-0.000353964
-0.00027379
-0.000186918
-9.18428e-05
7.99324e-06
0.000111499
0.000217058
0.000324637
-0.000684723
-0.000649592
-0.000610855
-0.000529458
-0.000453897
-0.000351838
-0.000250702
-0.000139064
-2.43826e-05
9.46788e-05
0.00021718
0.000341463
-0.000786474
-0.000760701
-0.000713558
-0.000629256
-0.000541991
-0.000428005
-0.000314254
-0.000188862
-6.14145e-05
6.85787e-05
0.000200385
0.000335201
-0.0010599
-0.000968856
-0.000925188
-0.000778239
-0.000679463
-0.000526355
-0.000395309
-0.000246325
-0.000101253
4.88543e-05
0.000202123
0.000358255
-0.00117196
-0.0011342
-0.00106021
-0.000918049
-0.000790997
-0.000622179
-0.000471321
-0.000305505
-0.000147158
1.23245e-05
0.000171025
0.000334151
-0.00171152
-0.00139348
-0.00136901
-0.0010869
-0.000954509
-0.000727229
-0.000556153
-0.000364224
-0.000186825
-7.40887e-06
0.000171666
0.000356547
-0.00186591
-0.00178979
-0.00159814
-0.00135085
-0.00110556
-0.000858193
-0.000645085
-0.000432048
-0.000239001
-5.03543e-05
0.00013112
0.00031694
-0.0033867
-0.00191424
-0.00191017
-0.00141721
-0.0011985
-0.000911605
-0.000685184
-0.0004644
-0.000258625
-6.17824e-05
0.00012953
0.000324009
0.000300445
0.00032062
0.000342754
0.000357613
0.000370907
0.000380255
0.000386734
0.000389723
0.000304534
0.000326447
0.000350454
0.000366887
0.000381433
0.000391858
0.000399027
0.000402368
0.000295008
0.000323296
0.000350408
0.000371977
0.000390121
0.000403645
0.000412795
0.000417102
0.000301328
0.000332548
0.000362272
0.000386442
0.000406722
0.000422019
0.000432376
0.000437287
0.000304208
0.000340362
0.000373539
0.000402095
0.000425927
0.000444142
0.000456515
0.000462406
0.000313681
0.000354267
0.000391638
0.00042419
0.000451479
0.000472656
0.000487081
0.000494011
0.000323947
0.000370263
0.000412985
0.000450795
0.000482642
0.000507564
0.000524571
0.00053283
0.00033743
0.000390342
0.000439488
0.000483488
0.000520747
0.000550331
0.000570508
0.000580503
0.000353101
0.00041401
0.000470914
0.000522471
0.000566244
0.000601596
0.00062553
0.000637648
0.000371122
0.000441548
0.000507889
0.000569208
0.000621527
0.000665487
0.000694865
0.000710667
0.000390744
0.000471692
0.000548033
0.00061977
0.000680282
0.000733404
0.000767209
0.000787321
0.000415434
0.000510921
0.000602204
0.000692244
0.000766492
0.000838876
0.000881908
0.000911667
0.000432255
0.000540091
0.00064096
0.000746211
0.000826089
0.00091657
0.000961752
0.00100366
0.000467497
0.000598672
0.000720571
0.000861036
0.000964439
0.00109776
0.00116237
0.0012312
0.000469822
0.000614528
0.000737116
0.000901316
0.000995515
0.00116865
0.00122173
0.00133166
0.000515227
0.000694559
0.000848735
0.00107342
0.00121294
0.00147876
0.00158271
0.00177783
0.000489263
0.000681275
0.00080932
0.00106943
0.00114827
0.00149945
0.00153565
0.00187577
0.000537298
0.000766748
0.000941597
0.00128583
0.0014528
0.00199308
0.00217032
0.0028294
0.000480368
0.00071596
0.000813745
0.00119733
0.0011597
0.00184253
0.00169509
0.00276183
0.000508334
0.000755241
0.000908902
0.00134917
0.00147378
0.00244545
0.00278743
0.00529641
0.00035752
0.000357979
0.00035888
0.000359998
0.000361201
0.000362265
0.000363069
0.000363467
0.000358059
0.000358546
0.000359483
0.000360665
0.000361883
0.000362972
0.000363782
0.000364185
0.000355126
0.000355895
0.000357356
0.000359079
0.000360938
0.000362528
0.000363725
0.000364313
0.00035668
0.000357565
0.000359192
0.00036117
0.000363121
0.000364835
0.000366085
0.000366703
0.000349328
0.000351184
0.000354365
0.000357816
0.0003614
0.00036432
0.000366471
0.000367509
0.000351998
0.000354105
0.000357685
0.000361671
0.000365462
0.000368665
0.000370956
0.000372076
0.00033567
0.000341238
0.000349155
0.000356538
0.000363673
0.000369139
0.000373028
0.000374861
0.000339632
0.000345634
0.000354435
0.000362664
0.000370359
0.000376365
0.000380597
0.000382606
)
;

boundaryField
{
    movingWall
    {
        type            zeroGradient;
    }
    fixedWalls
    {
        type            zeroGradient;
    }
    frontAndBack
    {
        type            empty;
    }
}


// ************************************************************************* //
