/*--------------------------------*- C++ -*----------------------------------*\
  =========                 |
  \\      /  F ield         | OpenFOAM: The Open Source CFD Toolbox
   \\    /   O peration     | Website:  https://openfoam.org
    \\  /    A nd           | Version:  8
     \\/     M anipulation  |
\*---------------------------------------------------------------------------*/
FoamFile
{
    version     2.0;
    format      ascii;
    class       surfaceScalarField;
    location    "15.5";
    object      phi;
}
// * * * * * * * * * * * * * * * * * * * * * * * * * * * * * * * * * * * * * //

dimensions      [0 3 -1 0 0 0 0];

internalField   nonuniform List<scalar> 
880
(
-7.8356e-06
7.83559e-06
-1.5723e-05
7.88737e-06
-2.32209e-05
7.49798e-06
-3.01487e-05
6.92774e-06
-3.63483e-05
6.19957e-06
-4.16866e-05
5.33833e-06
-4.60652e-05
4.37865e-06
-4.94003e-05
3.33512e-06
-5.17344e-05
2.33402e-06
-5.28793e-05
1.14495e-06
-5.35521e-05
6.72792e-07
-7.63352e-07
-5.27888e-05
-8.27313e-06
1.61087e-05
-1.6595e-05
1.62093e-05
-2.45012e-05
1.54042e-05
-3.17998e-05
1.42263e-05
-3.83258e-05
1.27255e-05
-4.39465e-05
1.09591e-05
-4.85655e-05
8.99758e-06
-5.2108e-05
6.87764e-06
-5.46191e-05
4.84509e-06
-5.59632e-05
2.4891e-06
-5.68422e-05
1.55178e-06
-1.52058e-06
-5.6085e-05
-8.6761e-06
2.47848e-05
-1.7397e-05
2.49302e-05
-2.567e-05
2.36772e-05
-3.32882e-05
2.18445e-05
-4.00716e-05
1.95089e-05
-4.58627e-05
1.67502e-05
-5.05291e-05
1.3664e-05
-5.39732e-05
1.03218e-05
-5.60511e-05
6.92298e-06
-5.68394e-05
3.27742e-06
-5.58012e-05
5.13514e-07
-3.73962e-06
-5.35821e-05
-9.29824e-06
3.40831e-05
-1.86346e-05
3.42665e-05
-2.74748e-05
3.25174e-05
-3.55933e-05
2.9963e-05
-4.2802e-05
2.67176e-05
-4.8945e-05
2.28932e-05
-5.39025e-05
1.86215e-05
-5.75935e-05
1.40128e-05
-5.98865e-05
9.21592e-06
-6.07965e-05
4.18745e-06
-5.97724e-05
-5.10589e-07
-5.91794e-06
-5.75941e-05
-1.01678e-05
4.42509e-05
-2.03609e-05
4.44596e-05
-2.99869e-05
4.21435e-05
-3.87902e-05
3.87663e-05
-4.65696e-05
3.4497e-05
-5.31559e-05
2.94795e-05
-5.84147e-05
2.38803e-05
-6.22361e-05
1.78342e-05
-6.45282e-05
1.15081e-05
-6.5286e-05
4.94525e-06
-6.43107e-05
-1.48586e-06
-8.40351e-06
-6.18251e-05
-1.13221e-05
5.5573e-05
-2.26458e-05
5.57833e-05
-3.33046e-05
5.28023e-05
-4.30001e-05
4.84618e-05
-5.1526e-05
4.30229e-05
-5.87083e-05
3.66618e-05
-6.44308e-05
2.96027e-05
-6.86098e-05
2.20132e-05
-7.11745e-05
1.40728e-05
-7.2075e-05
5.84567e-06
-7.11086e-05
-2.4522e-06
-1.09449e-05
-6.85673e-05
-1.28123e-05
6.83853e-05
-2.55827e-05
6.85536e-05
-3.75536e-05
6.47732e-05
-4.83589e-05
5.92671e-05
-5.77997e-05
5.24638e-05
-6.56934e-05
4.45555e-05
-7.19461e-05
3.58554e-05
-7.64887e-05
2.65557e-05
-7.92657e-05
1.68499e-05
-8.02744e-05
6.85429e-06
-7.94599e-05
-3.26668e-06
-1.35697e-05
-7.6835e-05
-1.47253e-05
8.31107e-05
-2.93167e-05
8.31449e-05
-4.29252e-05
7.83817e-05
-5.50686e-05
7.14106e-05
-6.55955e-05
6.29907e-05
-7.43128e-05
5.32728e-05
-8.11782e-05
4.27209e-05
-8.61572e-05
3.15347e-05
-8.92409e-05
1.99336e-05
-9.04261e-05
8.03944e-06
-8.96657e-05
-4.02712e-06
-1.62371e-05
-8.69982e-05
-1.71365e-05
0.000100247
-3.39966e-05
0.000100005
-4.96322e-05
9.40173e-05
-6.33607e-05
8.5139e-05
-7.51439e-05
7.47739e-05
-8.47664e-05
6.28952e-05
-9.2282e-05
5.02365e-05
-9.77062e-05
3.69588e-05
-0.00010109
2.33171e-05
-0.000102466
9.41622e-06
-0.000101827
-4.6669e-06
-1.89246e-05
-9.91392e-05
-2.04242e-05
0.000120671
-4.00657e-05
0.000119647
-5.82006e-05
0.000112152
-7.36737e-05
0.000100612
-8.68252e-05
8.79254e-05
-9.73432e-05
7.34132e-05
-0.000105478
5.83711e-05
-0.000111309
4.27896e-05
-0.000114971
2.69791e-05
-0.000116543
1.09889e-05
-0.000116038
-5.17183e-06
-2.15496e-05
-0.000113413
-2.41259e-05
0.000144797
-4.71541e-05
0.000142675
-6.83317e-05
0.00013333
-8.5928e-05
0.000118208
-0.000100725
0.000102722
-0.000112208
8.48966e-05
-0.000120936
6.70988e-05
-0.000127093
4.89462e-05
-0.000130961
3.08473e-05
-0.000132706
1.27337e-05
-0.000132408
-5.46938e-06
-2.4023e-05
-0.000129935
-3.09239e-05
0.000175721
-5.82867e-05
0.000170037
-8.34786e-05
0.000158522
-0.000102559
0.000137289
-0.000118587
0.00011875
-0.000130289
9.65986e-05
-0.000139101
7.59115e-05
-0.000145232
5.50774e-05
-0.000149165
3.47799e-05
-0.00015113
1.46984e-05
-0.000151076
-5.52286e-06
-2.60004e-05
-0.000149099
-3.61852e-05
0.000211906
-6.85907e-05
0.000202443
-9.80306e-05
0.000187962
-0.000119795
0.000159054
-0.00013774
0.000136694
-0.000150168
0.000109027
-0.000159324
8.50672e-05
-0.000165409
6.11627e-05
-0.000169196
3.8567e-05
-0.000171039
1.6541e-05
-0.000171366
-5.19518e-06
-2.7604e-05
-0.000169763
-5.37673e-05
0.000265674
-9.24614e-05
0.000241137
-0.000127924
0.000223424
-0.000149153
0.000180283
-0.000166432
0.000153973
-0.00017665
0.000119245
-0.000184113
9.25302e-05
-0.000188763
6.58124e-05
-0.000191943
4.1747e-05
-0.000194035
1.86331e-05
-0.000194872
-4.35792e-06
-2.76223e-05
-0.000194854
-5.95929e-05
0.000325267
-0.000106756
0.0002883
-0.000148094
0.000264761
-0.000172586
0.000204776
-0.000191479
0.000172865
-0.00020158
0.000129346
-0.000208452
9.94023e-05
-0.000212115
6.94759e-05
-0.000214271
4.39028e-05
-0.000215525
1.9887e-05
-0.000216803
-3.08011e-06
-2.71965e-05
-0.000217229
-0.000116848
0.000442114
-0.000166077
0.00033753
-0.000211398
0.000310082
-0.000226994
0.000220372
-0.000237443
0.000183315
-0.000240056
0.000131959
-0.000240634
9.99798e-05
-0.000240235
6.90777e-05
-0.000240561
4.42279e-05
-0.00024191
2.12365e-05
-0.000244181
-8.09273e-07
-2.30519e-05
-0.000248325
-0.000112955
0.000555069
-0.000184197
0.000408772
-0.000239828
0.000365714
-0.000259011
0.000239554
-0.000269371
0.000193675
-0.000269319
0.000131907
-0.000267124
9.77845e-05
-0.000263804
6.57585e-05
-0.00026139
4.18136e-05
-0.000260795
2.06419e-05
-0.000263028
1.42338e-06
-1.90242e-05
-0.000267056
-0.000330656
0.000885726
-0.000350219
0.000428334
-0.000368195
0.00038369
-0.00035595
0.000227309
-0.000334049
0.000171774
-0.00031855
0.000116408
-0.000302095
8.13288e-05
-0.000292115
5.57792e-05
-0.000286071
3.5769e-05
-0.000285018
1.95889e-05
-0.000288851
5.25675e-06
-8.91796e-06
-0.000298957
-0.000465065
0.00135079
-0.000456848
0.000420117
-0.000456485
0.000383326
-0.000405427
0.000176251
-0.000360505
0.000126852
-0.000323642
7.95451e-05
-0.000293589
5.12766e-05
-0.000273332
3.55213e-05
-0.000259579
2.2016e-05
-0.000252549
1.25592e-05
-0.000251591
4.29837e-06
-3.66736e-06
-0.000256841
0.00135079
0.00177091
0.00215423
0.00233049
0.00245734
0.00253688
0.00258816
0.00262368
0.0026457
0.00265826
0.00266255
0.00265889
-4.06858e-05
1.493e-05
-2.70329e-05
-3.12471e-05
5.75204e-06
-1.51908e-05
-2.53527e-05
-1.86572e-06
-4.02864e-06
-1.9972e-05
-7.77017e-06
2.38947e-06
-1.49636e-05
-1.22855e-05
7.27708e-06
-9.94772e-06
-1.559e-05
1.05741e-05
-4.91327e-06
-1.77393e-05
1.27048e-05
-1.82201e-05
1.33069e-05
-4.39174e-05
2.76239e-06
-3.44355e-05
-3.72987e-06
-2.81501e-05
-8.15112e-06
-2.23589e-05
-1.35613e-05
-1.68975e-05
-1.77469e-05
-1.13284e-05
-2.11591e-05
-5.62471e-06
-2.3443e-05
-2.38448e-05
-4.72268e-05
-3.59289e-06
-4.10893e-05
-9.8674e-06
-3.4536e-05
-1.47044e-05
-2.79494e-05
-2.01479e-05
-2.11209e-05
-2.45754e-05
-1.41275e-05
-2.81525e-05
-6.987e-06
-3.05835e-05
-3.08318e-05
-5.14615e-05
-9.72548e-06
-4.53341e-05
-1.59948e-05
-3.85457e-05
-2.14928e-05
-3.15244e-05
-2.71693e-05
-2.40626e-05
-3.20371e-05
-1.62245e-05
-3.59907e-05
-8.07832e-06
-3.87297e-05
-3.89101e-05
-5.71164e-05
-1.44342e-05
-5.14085e-05
-2.17027e-05
-4.44813e-05
-2.84199e-05
-3.67142e-05
-3.49364e-05
-2.81789e-05
-4.05725e-05
-1.90513e-05
-4.51182e-05
-9.49436e-06
-4.82866e-05
-4.84045e-05
-6.38588e-05
-1.91427e-05
-5.79008e-05
-2.76608e-05
-5.05566e-05
-3.57641e-05
-4.20784e-05
-4.34145e-05
-3.25521e-05
-5.00988e-05
-2.2117e-05
-5.55534e-05
-1.10597e-05
-5.93439e-05
-5.94642e-05
-7.22699e-05
-2.37078e-05
-6.60254e-05
-3.39053e-05
-5.81236e-05
-4.36659e-05
-4.86919e-05
-5.28463e-05
-3.78833e-05
-6.09074e-05
-2.58474e-05
-6.75892e-05
-1.2971e-05
-7.22204e-05
-7.24352e-05
-8.23039e-05
-2.84022e-05
-7.56862e-05
-4.0523e-05
-6.71139e-05
-5.22382e-05
-5.66085e-05
-6.33517e-05
-4.43521e-05
-7.31638e-05
-3.04041e-05
-8.15372e-05
-1.53407e-05
-8.72837e-05
-8.77759e-05
-9.43118e-05
-3.32296e-05
-8.72901e-05
-4.75447e-05
-7.79922e-05
-6.15361e-05
-6.62616e-05
-7.50822e-05
-5.23343e-05
-8.70911e-05
-3.60506e-05
-9.78209e-05
-1.83259e-05
-0.000105008
-0.000106102
-0.00010853
-3.81131e-05
-0.000101197
-5.48773e-05
-9.12687e-05
-7.14645e-05
-7.82573e-05
-8.80936e-05
-6.25872e-05
-0.000102761
-4.33943e-05
-0.000117014
-2.23913e-05
-0.000126011
-0.000128493
-0.000125085
-4.29632e-05
-0.000117484
-6.24778e-05
-0.000106933
-8.20162e-05
-9.23619e-05
-0.000102664
-7.48086e-05
-0.000120314
-5.20881e-05
-0.000139734
-2.73169e-05
-0.000150783
-0.00015581
-0.000144891
-4.71712e-05
-0.000137785
-6.95837e-05
-0.000127709
-9.20916e-05
-0.000112222
-0.000118151
-9.33406e-05
-0.000139196
-6.59952e-05
-0.00016708
-3.58497e-05
-0.000180928
-0.00019166
-0.000165964
-5.09697e-05
-0.000158873
-7.66748e-05
-0.000148983
-0.000101982
-0.000132037
-0.000135097
-0.000111884
-0.000159349
-7.96743e-05
-0.00019929
-4.48313e-05
-0.000215771
-0.000236491
-0.000193704
-5.21193e-05
-0.000189626
-8.07527e-05
-0.000183452
-0.000108156
-0.000168355
-0.000150195
-0.000149424
-0.00017828
-0.000110592
-0.000238122
-6.68423e-05
-0.000259521
-0.000303333
-0.000217026
-5.23223e-05
-0.000213658
-8.41206e-05
-0.000209183
-0.000112631
-0.000193948
-0.000165429
-0.000176961
-0.000195267
-0.000133173
-0.00028191
-8.69246e-05
-0.000305769
-0.000390258
-0.000254361
-4.62864e-05
-0.000260191
-7.82912e-05
-0.000267042
-0.000105779
-0.00026424
-0.000168232
-0.00025913
-0.000200377
-0.000212743
-0.000328297
-0.000156499
-0.000362012
-0.000546757
-0.000273403
-3.99395e-05
-0.000280134
-7.15601e-05
-0.000289579
-9.63342e-05
-0.000289677
-0.000168134
-0.000294874
-0.000195179
-0.000252669
-0.000370503
-0.000214849
-0.000399832
-0.000761606
-0.000315776
-2.31204e-05
-0.000342355
-4.49819e-05
-0.000377447
-6.12419e-05
-0.000421336
-0.000124245
-0.000473007
-0.000143508
-0.000480253
-0.000363256
-0.000457091
-0.000422995
-0.0012187
-0.000265603
-1.43586e-05
-0.000284695
-2.58896e-05
-0.000301563
-4.43744e-05
-0.000332627
-9.31802e-05
-0.000351013
-0.000125123
-0.00035288
-0.000361389
-0.000317168
-0.000458707
-0.00153587
0.00264453
0.00261864
0.00257426
0.00248108
0.00235596
0.00199457
0.00153587
-7.19097e-07
7.19097e-07
-1.31807e-06
5.98971e-07
-1.68362e-06
3.65557e-07
-1.77968e-06
9.60586e-08
-1.60363e-06
-1.76051e-07
-1.19834e-06
-4.05287e-07
-6.30321e-07
-5.68024e-07
-6.30321e-07
-8.11112e-07
1.53021e-06
-1.4776e-06
1.26546e-06
-1.87078e-06
7.58738e-07
-1.94284e-06
1.68116e-07
-1.73534e-06
-3.8355e-07
-1.29259e-06
-8.48035e-07
-6.79118e-07
-1.1815e-06
-1.30944e-06
-1.20345e-06
2.73366e-06
-2.14225e-06
2.20426e-06
-2.66438e-06
1.28087e-06
-2.77497e-06
2.78701e-07
-2.45994e-06
-6.98573e-07
-1.81381e-06
-1.49417e-06
-9.46474e-07
-2.04883e-06
-2.25591e-06
-1.4667e-06
4.20036e-06
-2.58387e-06
3.32143e-06
-3.15623e-06
1.85322e-06
-3.16814e-06
2.90616e-07
-2.76405e-06
-1.10266e-06
-2.02837e-06
-2.22985e-06
-1.05633e-06
-3.02087e-06
-3.31224e-06
-2.75419e-06
6.95456e-06
-4.58882e-06
5.15605e-06
-5.35069e-06
2.61509e-06
-5.31797e-06
2.57897e-07
-4.53765e-06
-1.88299e-06
-3.25828e-06
-3.50922e-06
-1.67489e-06
-4.60425e-06
-4.98714e-06
-3.36481e-06
1.03194e-05
-5.57144e-06
7.36267e-06
-6.3861e-06
3.42975e-06
-6.12301e-06
-5.18857e-09
-5.16915e-06
-2.83685e-06
-3.71187e-06
-4.9665e-06
-1.90761e-06
-6.40852e-06
-6.89475e-06
-7.60314e-06
1.79225e-05
-1.13005e-05
1.106e-05
-1.16385e-05
3.76775e-06
-1.06452e-05
-9.98479e-07
-8.57164e-06
-4.91038e-06
-5.93574e-06
-7.60241e-06
-2.99113e-06
-9.35312e-06
-9.88587e-06
-9.11042e-06
-1.32412e-05
-1.35021e-05
-1.21111e-05
-9.74439e-06
-6.7727e-06
-3.42098e-06
)
;

boundaryField
{
    movingWall
    {
        type            calculated;
        value           uniform 0;
    }
    fixedWalls
    {
        type            calculated;
        value           uniform 0;
    }
    frontAndBack
    {
        type            empty;
        value           nonuniform List<scalar> 0();
    }
}


// ************************************************************************* //
