/*--------------------------------*- C++ -*----------------------------------*\
  =========                 |
  \\      /  F ield         | OpenFOAM: The Open Source CFD Toolbox
   \\    /   O peration     | Website:  https://openfoam.org
    \\  /    A nd           | Version:  8
     \\/     M anipulation  |
\*---------------------------------------------------------------------------*/
FoamFile
{
    version     2.0;
    format      ascii;
    class       volScalarField;
    location    "42";
    object      p;
}
// * * * * * * * * * * * * * * * * * * * * * * * * * * * * * * * * * * * * * //

dimensions      [0 2 -2 0 0 0 0];

internalField   nonuniform List<scalar> 
464
(
6.11019e-09
1.92271e-06
7.4808e-06
1.57861e-05
2.71555e-05
4.13932e-05
5.86384e-05
7.79498e-05
0.000101132
0.000123332
0.000153094
0.000173506
-2.06582e-06
-1.88107e-07
5.35759e-06
1.36633e-05
2.50753e-05
3.94517e-05
5.69726e-05
7.68386e-05
0.000100788
0.000124304
0.000155379
0.000178984
-8.08773e-06
-6.24608e-06
-6.89369e-07
7.64109e-06
1.90904e-05
3.3482e-05
5.07938e-05
7.05456e-05
9.33491e-05
0.000116868
0.000144871
0.000169751
-1.71689e-05
-1.53668e-05
-9.76876e-06
-1.33211e-06
1.03673e-05
2.53269e-05
4.37556e-05
6.5437e-05
9.08123e-05
0.000117719
0.000149253
0.000178466
-2.97272e-05
-2.80026e-05
-2.23963e-05
-1.39252e-05
-2.137e-06
1.28271e-05
3.08249e-05
5.16597e-05
7.54918e-05
0.000101798
0.000131153
0.000161573
-4.58138e-05
-4.4214e-05
-3.86175e-05
-3.00804e-05
-1.79822e-05
-2.10459e-06
1.81326e-05
4.26294e-05
7.13177e-05
0.000103398
0.000139243
0.000176356
-6.51281e-05
-6.37826e-05
-5.83445e-05
-5.00584e-05
-3.81714e-05
-2.2824e-05
-4.32685e-06
1.77547e-05
4.36947e-05
7.3508e-05
0.0001071
0.000144369
-8.89594e-05
-8.78765e-05
-8.25738e-05
-7.43453e-05
-6.22068e-05
-4.49126e-05
-2.21321e-05
6.05573e-06
3.96181e-05
7.83308e-05
0.000122106
0.000170296
-0.000115011
-0.000114708
-0.000109833
-0.000102875
-9.22621e-05
-7.87432e-05
-6.08378e-05
-3.78617e-05
-9.46785e-06
2.46647e-05
6.37041e-05
0.000110783
-0.000146322
-0.000146104
-0.000142084
-0.000134285
-0.000122219
-0.000103654
-7.95009e-05
-4.82257e-05
-9.90714e-06
3.63029e-05
8.94635e-05
0.000154558
-0.000180989
-0.000188575
-0.000181152
-0.000186293
-0.000176241
-0.000167113
-0.000149542
-0.000125739
-9.49763e-05
-5.44663e-05
-1.42737e-05
5.12785e-05
-0.000201614
-0.000200004
-0.000204309
-0.000196864
-0.000193385
-0.000177442
-0.000157884
-0.000126137
-8.66644e-05
-3.16853e-05
2.46539e-05
0.000117979
-0.000278785
-0.000303949
-0.000284773
-0.000318513
-0.000295375
-0.000304186
-0.000280964
-0.000257758
-0.000227418
-0.000174563
-0.000145137
-4.87924e-05
-0.000246913
-0.000245249
-0.000268603
-0.000264686
-0.000282491
-0.000272612
-0.00026758
-0.000236918
-0.000207238
-0.000139534
-9.62901e-05
2.66323e-05
-0.000382738
-0.000457049
-0.000411916
-0.000511253
-0.000459692
-0.000507034
-0.000465312
-0.000449849
-0.000418913
-0.000346814
-0.000340741
-0.000198674
-0.000278399
-0.000275803
-0.000335991
-0.000343273
-0.000397318
-0.000402584
-0.000422947
-0.000394166
-0.00038629
-0.000296531
-0.000290437
-0.00011347
-0.00042308
-0.00064886
-0.000557793
-0.000799188
-0.000695468
-0.000802761
-0.000725326
-0.000716517
-0.000676842
-0.00057773
-0.000604373
-0.000412651
-0.000293324
-0.000285888
-0.000411403
-0.000453021
-0.000549422
-0.000595865
-0.000645717
-0.000618128
-0.000638153
-0.000509414
-0.000558919
-0.000310516
-0.000107286
-0.000935278
-0.00076185
-0.00127477
-0.00107741
-0.00123479
-0.00109906
-0.00106653
-0.00100336
-0.000849196
-0.000900844
-0.000635208
-0.0012614
-0.00023888
-0.000440845
-0.000774157
-0.000846618
-0.000959305
-0.00101867
-0.00095294
-0.000980739
-0.000771126
-0.000866932
-0.000517123
0.000212394
0.000229903
0.000250223
0.000263451
0.000276443
0.000285133
0.000291724
0.000294178
0.000220135
0.000238552
0.000261014
0.0002754
0.000289424
0.000298914
0.000306032
0.000308708
0.000201431
0.000225718
0.000251481
0.000272113
0.000290778
0.000304646
0.000314555
0.000318624
0.000213227
0.000240416
0.000268781
0.000291822
0.000312459
0.000328154
0.000339191
0.000343878
0.000195257
0.000227921
0.000260326
0.000290332
0.000316265
0.000337975
0.000352444
0.000359345
0.000215421
0.000253231
0.000290219
0.000325075
0.000354953
0.000380736
0.000397621
0.000406096
0.000184972
0.000229473
0.000271388
0.000317685
0.000352623
0.000390425
0.000410727
0.000424501
0.000219999
0.000273319
0.000323511
0.000378956
0.000421665
0.000468142
0.000493543
0.000511464
0.000157972
0.000225105
0.000273189
0.00035405
0.000395998
0.000471586
0.000497544
0.000531072
0.000215564
0.000296031
0.000360187
0.000455591
0.000514357
0.000606727
0.000644981
0.00068977
9.48771e-05
0.000202896
0.000246245
0.000392057
0.000434689
0.000592915
0.000625455
0.000716757
0.000180977
0.000306875
0.000378431
0.000547385
0.000622625
0.000815945
0.000877308
0.00100629
-2.95799e-05
0.000139126
0.000151667
0.000402389
0.000426243
0.000753577
0.000797862
0.00107397
7.44846e-05
0.000275124
0.000323098
0.000617272
0.00068594
0.00109189
0.00119902
0.00161347
-0.000231926
-3.97035e-06
-7.91964e-05
0.000301793
0.000230991
0.000858769
0.000901548
0.00177514
-0.000139168
0.000163425
8.70339e-05
0.000560833
0.000467938
0.00125934
0.00127758
0.00260467
-0.00053942
-0.000249036
-0.000516029
-5.44601e-05
-0.000534236
0.000453025
-0.000288862
0.00198634
-0.000451368
-6.90959e-05
-0.000386023
0.000197787
-0.000568713
0.000614625
-0.000796692
0.00280795
-0.000853903
-0.000508248
-0.00102401
-0.000601797
-0.00184543
-0.00115651
-0.00232873
0.00175865
-0.000750536
-0.000316181
-0.000727063
-0.000307852
-0.000681764
0.000620312
0.00330668
0.011466
0.000266872
0.000267192
0.000268005
0.000268953
0.000270043
0.000270951
0.000271682
0.000271961
0.00026778
0.000268106
0.000268929
0.000269891
0.000270963
0.000271854
0.000272569
0.000272836
0.000264473
0.000265011
0.000266319
0.000267775
0.000269457
0.000270824
0.000271918
0.000272333
0.000267016
0.00026763
0.000269059
0.000270664
0.000272383
0.00027378
0.000274884
0.000275291
0.000258988
0.000260359
0.000263248
0.000266161
0.000269499
0.000272031
0.00027406
0.000274815
0.000263332
0.000264942
0.000268104
0.000271392
0.000274788
0.000277449
0.000279519
0.000280279
0.000246231
0.00025059
0.000257891
0.000264181
0.000271035
0.00027586
0.000279673
0.000281066
0.00025226
0.000257681
0.000265465
0.000272408
0.000279454
0.000284577
0.000288551
0.00029
)
;

boundaryField
{
    movingWall
    {
        type            zeroGradient;
    }
    fixedWalls
    {
        type            zeroGradient;
    }
    frontAndBack
    {
        type            empty;
    }
}


// ************************************************************************* //
