/*--------------------------------*- C++ -*----------------------------------*\
  =========                 |
  \\      /  F ield         | OpenFOAM: The Open Source CFD Toolbox
   \\    /   O peration     | Website:  https://openfoam.org
    \\  /    A nd           | Version:  8
     \\/     M anipulation  |
\*---------------------------------------------------------------------------*/
FoamFile
{
    version     2.0;
    format      ascii;
    class       volScalarField;
    location    "0.724";
    object      T;
}
// * * * * * * * * * * * * * * * * * * * * * * * * * * * * * * * * * * * * * //

dimensions      [0 0 0 1 0 0 0];

internalField   nonuniform List<scalar> 
2500
(
50
4.65407
-4.65356
-1.18632
1.18394
0.461481
-0.454548
-0.235986
0.220642
0.150039
-0.121695
-0.113541
0.0678153
0.0959474
-0.0302432
-0.0836171
-0.000718666
0.068922
0.0266299
-0.0478611
-0.0444932
0.0202028
0.0496052
0.00942725
-0.0387665
-0.0320646
0.0138761
0.0387107
0.0141847
-0.0240952
-0.0317436
-0.00311656
0.0268957
0.0243208
-0.00103724
-0.0258561
-0.0206676
0.00254677
0.0203992
0.0220549
-0.00153363
-0.0155578
-0.019382
-0.00864698
0.0144582
0.014412
0.0132305
0.000805066
-0.0181058
-0.00940844
95.346
49.9998
10.4937
-4.6519
-2.83122
1.17816
1.15144
-0.440855
-0.606285
0.194455
0.385411
-0.0785046
-0.278322
0.00467856
0.211987
0.0521101
-0.155175
-0.0956551
0.0941499
0.120501
-0.0271614
-0.117971
-0.0373593
0.0840213
0.0819378
-0.0246977
-0.0894627
-0.0384959
0.0546437
0.0734514
0.00863395
-0.0625651
-0.0568224
0.00753906
0.057632
0.0490486
-0.0137649
-0.0493119
-0.0440969
0.00423843
0.0479396
0.035804
0.0123591
-0.0345405
-0.0441497
-0.011902
0.00322214
0.0413803
0.0325829
-0.00266885
104.654
89.5064
49.9995
12.1384
-4.64846
-3.52115
1.1678
1.52229
-0.418853
-0.843379
0.155887
0.553677
-0.0196256
-0.399958
-0.0750195
0.291027
0.147437
-0.188548
-0.194101
0.0799311
0.202709
0.0283757
-0.162828
-0.114891
0.078421
0.149778
0.0273521
-0.117841
-0.106298
0.0277904
0.117445
0.0698112
-0.054113
-0.102803
-0.0488605
0.0570482
0.0941113
0.0351402
-0.0399319
-0.0908795
-0.0378392
0.028502
0.0650214
0.0657571
-0.0165929
-0.045887
-0.0550537
-0.0410738
0.041586
0.0395329
101.186
104.653
87.8616
49.999
12.8284
-4.64265
-3.8928
1.15176
1.76171
-0.387157
-1.01639
0.103752
0.683177
0.0551339
-0.489946
-0.169416
0.337166
0.250908
-0.18579
-0.288154
0.0304686
0.26377
0.109684
-0.172499
-0.197032
0.0329469
0.197275
0.104464
-0.10673
-0.169083
-0.0370679
0.129687
0.135502
-0.00149303
-0.121549
-0.118353
0.0166867
0.104963
0.104482
0.00422122
-0.101485
-0.0841784
-0.0373204
0.0672377
0.101108
0.0333588
0.00104447
-0.0862237
-0.0789653
8.87103e-05
98.8156
102.831
104.65
87.1715
49.9983
13.2007
-4.63388
-4.13433
1.12899
1.93957
-0.344551
-1.15463
0.0372456
0.786311
0.145291
-0.552803
-0.275674
0.351703
0.356818
-0.148901
-0.369481
-0.0487814
0.295996
0.205262
-0.143652
-0.268638
-0.0463424
0.21235
0.188523
-0.0520664
-0.209945
-0.122447
0.098298
0.18285
0.0849275
-0.103042
-0.166855
-0.060691
0.0724242
0.161113
0.0655331
-0.051876
-0.115672
-0.11537
0.0309494
0.0817752
0.0973768
0.0713072
-0.0748302
-0.0699288
99.5388
98.8204
103.521
104.646
86.7991
49.9976
13.4435
-4.6216
-4.31614
1.09851
2.086
-0.29001
-1.27144
-0.0440515
0.86832
0.24967
-0.589786
-0.39015
0.335107
0.458748
-0.0806075
-0.430128
-0.150647
0.294142
0.301746
-0.0762866
-0.317283
-0.146386
0.185669
0.262207
0.0393552
-0.215178
-0.204124
0.019006
0.198474
0.176083
-0.0413097
-0.169949
-0.156761
0.00812721
0.164604
0.12678
0.0475925
-0.115504
-0.154945
-0.0445113
0.00735591
0.140994
0.116187
-0.00659157
100.455
98.8485
98.8295
103.893
104.639
86.5561
49.9966
13.6277
-4.60527
-4.46897
1.05943
2.21523
-0.222694
-1.37296
-0.140154
0.930955
0.366421
-0.600674
-0.508563
0.288098
0.549707
0.0155092
-0.463685
-0.265448
0.254716
0.386564
0.0240766
-0.332502
-0.250434
0.11301
0.312178
0.148189
-0.171855
-0.263299
-0.0952096
0.174355
0.23606
0.0638452
-0.127106
-0.231781
-0.0714386
0.0929835
0.17378
0.150045
-0.0666372
-0.12428
-0.139339
-0.0826591
0.124354
0.0997827
100.236
100.443
98.477
98.8441
104.135
104.628
86.3717
49.9956
13.7841
-4.58436
-4.60769
1.01089
2.33426
-0.141952
-1.4617
-0.25063
0.974141
0.493168
-0.584881
-0.625892
0.211859
0.622941
0.134297
-0.465295
-0.381798
0.176451
0.449641
0.145052
-0.304043
-0.344515
0.00183373
0.324896
0.251276
-0.0740012
-0.291022
-0.210814
0.0996142
0.245302
0.192083
-0.0532979
-0.238642
-0.156866
-0.0334436
0.185379
0.199786
0.0382644
-0.0355211
-0.207706
-0.135985
0.0272036
99.7784
100.607
100.422
98.2367
98.8652
104.318
104.614
86.2148
49.9944
13.9282
-4.55836
-4.74005
0.952146
2.44652
-0.0473431
-1.53831
-0.374624
0.996897
0.627055
-0.542063
-0.736411
0.108008
0.67297
0.267953
-0.430407
-0.489639
0.0636953
0.480711
0.272137
-0.226214
-0.417904
-0.12785
0.283603
0.334725
0.0633641
-0.277081
-0.291409
-0.0313207
0.209957
0.294591
0.0425844
-0.156822
-0.236437
-0.157268
0.131102
0.171955
0.175601
0.0634144
-0.193046
-0.125195
99.8501
99.8033
100.845
100.392
98.0576
98.8938
104.472
104.595
86.0703
49.993
14.068
-4.52678
-4.87022
0.882464
2.55349
0.0613158
-1.60224
-0.511009
0.998068
0.764461
-0.471939
-0.834607
-0.020329
0.6949
0.407284
-0.355938
-0.580893
-0.0724667
0.467245
0.395474
-0.106619
-0.454923
-0.25604
0.179566
0.39257
0.203046
-0.201116
-0.324111
-0.194535
0.142181
0.316969
0.162215
-0.0165015
-0.276742
-0.22288
-0.00601866
0.0895413
0.281302
0.125311
-0.0660875
100.123
99.6134
99.8405
101.02
100.351
97.9095
98.9309
104.612
104.572
85.93
49.9915
14.2081
-4.48913
-5.00048
0.801214
2.65556
0.184003
-1.65234
-0.658336
0.976605
0.901016
-0.374231
-0.916037
-0.167264
0.682704
0.545197
-0.244945
-0.644554
-0.221157
0.401826
0.506286
0.0355449
-0.433158
-0.37552
0.030209
0.407865
0.311787
-0.0515073
-0.319654
-0.330511
0.0355099
0.242708
0.292181
0.119004
-0.226865
-0.217103
-0.194545
0.000127176
0.276617
0.137792
100.114
100.081
99.4432
99.8915
101.16
100.298
97.7782
98.9774
104.746
104.543
85.7891
49.9899
14.3514
-4.44491
-5.13204
0.707879
2.75232
0.320655
-1.68739
-0.814377
0.931041
1.03274
-0.250255
-0.975673
-0.326333
0.631663
0.675455
-0.106395
-0.665449
-0.377685
0.29221
0.584795
0.186772
-0.341908
-0.48138
-0.125978
0.347408
0.386724
0.141545
-0.279175
-0.380944
-0.124907
0.111669
0.378295
0.203902
-0.0602051
-0.171007
-0.345905
-0.0677628
0.124183
99.9308
100.281
100.023
99.3114
99.9571
101.279
100.232
97.6567
99.0341
104.878
104.508
85.645
49.9881
14.4995
-4.39364
-5.2654
0.601988
2.84294
0.470925
-1.70603
-0.976272
0.859692
1.15642
-0.104024
-1.00617
-0.493982
0.544011
0.785656
0.054268
-0.635633
-0.534175
0.15458
0.602849
0.348381
-0.201994
-0.54525
-0.26516
0.195785
0.439662
0.308554
-0.173036
-0.33903
-0.317366
-0.0156703
0.345005
0.24342
0.177543
-0.118006
-0.358186
-0.124702
99.9033
99.9934
100.405
99.9484
99.2054
100.038
101.384
100.152
97.5415
99.1016
105.011
104.467
85.496
49.9861
14.6535
-4.33503
-5.40052
0.482983
2.92674
0.633655
-1.70619
-1.14198
0.762855
1.26712
0.0611902
-1.0023
-0.665772
0.426106
0.858855
0.238429
-0.563921
-0.665595
-0.00795221
0.551135
0.513924
-0.0491572
-0.520962
-0.398347
-0.00677909
0.451779
0.395942
0.0251382
-0.253438
-0.459929
-0.11711
0.162505
0.271432
0.369949
-0.0517705
-0.194558
100.031
99.7847
100.073
100.498
99.8579
99.1201
100.134
101.476
100.058
97.4311
99.1808
105.145
104.419
85.341
49.9841
14.8142
-4.26863
-5.53732
0.350422
3.00287
0.807592
-1.68553
-1.31017
0.642852
1.35726
0.245995
-0.966326
-0.82854
0.276306
0.889252
0.438535
-0.460608
-0.741362
-0.206633
0.454602
0.641472
0.111236
-0.395812
-0.533848
-0.187511
0.366056
0.416514
0.277955
-0.167624
-0.457915
-0.224962
-0.101872
0.290273
0.404399
0.0692912
100.085
99.9486
99.7028
100.169
100.564
99.7524
99.0539
100.245
101.557
99.9502
97.3252
99.2723
105.282
104.364
85.179
49.9818
14.9821
-4.19363
-5.67575
0.204337
3.06913
0.992846
-1.64366
-1.47635
0.498842
1.4226
0.447378
-0.899992
-0.966383
0.0870796
0.885984
0.625138
-0.313365
-0.758521
-0.42979
0.336744
0.676628
0.307103
-0.22047
-0.622651
-0.314684
0.149528
0.420927
0.475559
-0.0584578
-0.289749
-0.365799
-0.314092
0.235848
0.260702
100
100.159
99.8517
99.6538
100.277
100.604
99.6336
99.0069
100.37
101.625
99.8274
97.224
99.3762
105.421
104.301
85.01
49.979
15.1573
-4.10978
-5.81478
0.0446976
3.12342
1.18872
-1.58116
-1.63303
0.32684
1.46585
0.650237
-0.792804
-1.07852
-0.130395
0.848293
0.769616
-0.103585
-0.744247
-0.618627
0.175385
0.617917
0.531165
-0.059249
-0.578976
-0.425712
-0.133714
0.411767
0.513726
0.133206
-0.047304
-0.481263
-0.368079
0.0356437
99.9291
100.097
100.195
99.7456
99.6367
100.395
100.618
99.504
98.9803
100.509
101.68
99.6903
97.1287
99.4932
105.562
104.229
84.8341
49.9758
15.3405
-4.01813
-5.95265
-0.129728
3.16721
1.39037
-1.49485
-1.77951
0.131032
1.48575
0.842038
-0.635171
-1.17634
-0.342146
0.749874
0.882542
0.144139
-0.704801
-0.722062
-0.0670889
0.53021
0.699775
0.0908792
-0.385072
-0.562005
-0.348811
0.315965
0.403483
0.402135
0.125572
-0.450408
-0.282112
99.9732
99.9018
100.198
100.194
99.636
99.6515
100.517
100.604
99.3662
98.9758
100.659
101.719
99.5386
97.0403
99.6243
105.705
104.148
84.6504
49.9727
15.5328
-3.91817
-6.08969
-0.320305
3.20148
1.59461
-1.37903
-1.92167
-0.0766476
1.46711
1.03289
-0.4412
-1.24919
-0.53576
0.571636
0.993539
0.367903
-0.588269
-0.769447
-0.363555
0.449086
0.726278
0.302731
-0.137123
-0.675385
-0.430403
0.055533
0.270338
0.633748
0.185575
-0.194885
100.05
99.8761
99.9152
100.297
100.158
99.5291
99.6979
100.64
100.563
99.2234
98.9943
100.82
101.743
99.3727
96.9591
99.7693
105.85
104.058
84.4578
49.9683
15.7337
-3.80615
-6.22662
-0.525157
3.21762
1.8062
-1.23665
-2.04898
-0.297414
1.39947
1.22916
-0.234806
-1.25329
-0.740969
0.347605
1.06935
0.545717
-0.348794
-0.8188
-0.604604
0.299069
0.619403
0.58813
0.0548195
-0.616996
-0.444976
-0.330103
0.190988
0.641531
0.232258
100.046
100.03
99.7896
99.9652
100.383
100.088
99.4323
99.7743
100.757
100.494
99.0802
99.0367
100.987
101.749
99.195
96.8869
99.926
105.998
103.959
84.2598
49.9602
15.9421
-3.68422
-6.35826
-0.740824
3.20966
2.02503
-1.08113
-2.13536
-0.545472
1.30646
1.39283
-0.0122224
-1.17754
-0.964719
0.144771
1.02249
0.725971
-0.0607544
-0.841818
-0.701401
0.00351525
0.493304
0.794595
0.170651
-0.315372
-0.488519
-0.612525
0.123557
0.341846
99.9782
100.123
99.9728
99.7243
100.047
100.448
99.9903
99.3535
99.8795
100.861
100.397
98.9422
99.1056
101.157
101.734
99.0063
96.8285
100.095
106.144
103.847
84.0599
49.9506
16.162
-3.56246
-6.48062
-0.972237
3.19382
2.23904
-0.911724
-2.18799
-0.819533
1.21838
1.48789
0.261813
-1.09118
-1.14991
-0.0421601
0.856102
0.957938
0.141687
-0.74382
-0.733792
-0.368719
0.451858
0.778588
0.32043
0.05838
-0.602198
-0.613823
-0.0376775
99.9481
100.038
100.171
99.8881
99.6889
100.153
100.485
99.8668
99.299
100.012
100.948
100.271
98.8119
99.204
101.33
101.696
98.8034
96.7848
100.283
106.292
103.717
83.8501
49.9424
16.3994
-3.43346
-6.60186
-1.22953
3.17404
2.4475
-0.700407
-2.23917
-1.09707
1.09349
1.54833
0.595762
-1.01814
-1.24202
-0.322478
0.671976
1.1755
0.294108
-0.461564
-0.85261
-0.675448
0.366277
0.579251
0.64645
0.32434
-0.61706
-0.448467
99.9905
99.9108
100.12
100.183
99.7862
99.6887
100.275
100.49
99.7248
99.2719
100.167
101.015
100.119
98.6901
99.3279
101.505
101.639
98.5864
96.7504
100.483
106.448
103.577
83.6268
49.9248
16.6455
-3.2751
-6.72206
-1.49677
3.10503
2.6628
-0.453556
-2.25411
-1.35352
0.865724
1.60914
0.893015
-0.83818
-1.25254
-0.686761
0.50194
1.17977
0.53912
-0.077185
-0.944998
-0.774205
0.00519452
0.305854
0.936581
0.426624
-0.220308
100.042
99.9135
99.9149
100.208
100.156
99.6821
99.726
100.4
100.459
99.5769
99.277
100.334
101.055
99.9508
98.5863
99.4719
101.67
101.567
98.3671
96.7319
100.68
106.608
103.43
83.4154
49.8905
16.8893
-3.11064
-6.82586
-1.7396
2.97721
2.88869
-0.253885
-2.16905
-1.60403
0.621807
1.63898
1.05263
-0.509225
-1.28868
-0.900416
0.30835
0.965314
0.850996
0.113426
-0.800329
-0.674608
-0.458878
0.20864
0.825095
0.333923
100.034
100.028
99.8409
99.9611
100.285
100.087
99.5917
99.805
100.514
100.385
99.4337
99.3257
100.506
101.054
99.7656
98.5149
99.6457
101.814
101.463
98.1473
96.75
100.885
106.753
103.249
83.2223
49.8643
17.1583
-2.9785
-6.92799
-1.99035
2.86383
3.13516
-0.10152
-2.03291
-1.92934
0.477893
1.60571
1.22611
-0.166096
-1.43954
-0.935886
-0.00808782
0.869583
1.16232
0.0956341
-0.477181
-0.790011
-0.788303
0.351554
0.508923
99.9848
100.095
99.9725
99.7898
100.046
100.337
99.9787
99.5241
99.9268
100.612
100.265
99.2947
99.4207
100.691
101.011
99.5528
98.4681
99.8613
101.953
101.321
97.9015
96.7961
101.127
106.906
103.03
82.9906
49.8497
17.4701
-2.80783
-7.05084
-2.31012
2.73812
3.38421
0.165911
-1.89928
-2.28928
0.263821
1.46128
1.57467
0.16525
-1.43561
-1.05102
-0.564074
0.864496
1.30874
0.382646
0.0439782
-1.10193
-0.996359
0.0251745
99.9581
100.042
100.128
99.8874
99.7704
100.157
100.359
99.8446
99.4835
100.076
100.69
100.115
99.1651
99.5433
100.879
100.947
99.3293
98.4268
100.095
102.094
101.18
97.6303
96.8372
101.368
107.102
102.825
82.7259
49.7955
17.7456
-2.52978
-7.16097
-2.5854
2.4642
3.57009
0.50424
-1.70864
-2.42062
-0.159313
1.24572
1.75412
0.474923
-1.00346
-1.19732
-0.944767
0.557998
0.964835
0.857785
0.477554
-0.845936
-0.672975
99.985
99.9387
100.116
100.12
99.7955
99.7924
100.27
100.337
99.7092
99.4865
100.231
100.725
99.9532
99.0765
99.6852
101.032
100.854
99.1343
98.4183
100.316
102.19
101.051
97.391
96.9064
101.549
107.287
102.624
82.542
49.7256
17.9573
-2.28486
-7.27775
-2.68582
2.12146
3.78755
0.620997
-1.49555
-2.39347
-0.547816
1.26845
1.55051
0.721406
-0.683031
-1.33788
-0.714253
0.155898
0.721162
1.03546
0.143175
-0.35164
100.027
99.921
99.9662
100.182
100.063
99.7185
99.8688
100.367
100.255
99.5831
99.5572
100.39
100.689
99.7653
99.0533
99.878
101.138
100.687
98.9554
98.4917
100.566
102.214
100.853
97.181
97.0688
101.757
107.399
102.329
82.3857
49.7382
18.267
-2.1298
-7.4793
-2.86432
1.8667
4.18562
0.693652
-1.26891
-2.68295
-0.881833
1.40491
1.47774
1.2859
-0.75913
-1.58619
-0.735568
-0.381001
1.19733
1.3194
0.0907176
100.034
99.9906
99.873
100.04
100.227
99.9575
99.6635
99.998
100.449
100.115
99.4577
99.6874
100.569
100.601
99.534
99.0637
100.132
101.246
100.453
98.7373
98.6025
100.896
102.243
100.583
96.8962
97.2576
102.085
107.55
101.994
82.0464
49.7637
18.656
-1.78443
-7.64852
-3.28989
1.5275
4.42524
1.14475
-0.854476
-2.98058
-1.33543
0.912618
1.55654
2.0036
-0.396506
-1.23283
-1.34604
-1.25516
1.02348
1.09665
100.004
100.07
99.9205
99.8548
100.139
100.241
99.8313
99.6371
100.146
100.507
99.9561
99.3497
99.8332
100.738
100.503
99.3091
99.0753
100.376
101.361
100.24
98.5167
98.6685
101.219
102.31
100.386
96.5591
97.3738
102.354
107.813
101.787
81.6637
49.6836
18.803
-1.2351
-7.70251
-3.46274
1.0381
4.23704
1.59981
-0.560718
-2.56336
-1.61656
0.235405
1.37709
1.74085
0.275651
-0.443064
-1.33479
-1.06665
0.0523359
99.9687
100.064
100.065
99.8478
99.8819
100.228
100.204
99.722
99.6694
100.278
100.497
99.8065
99.319
99.9862
100.825
100.373
99.1645
99.1482
100.561
101.379
100.056
98.4052
98.7711
101.425
102.286
100.249
96.3654
97.5339
102.449
107.98
101.577
81.5532
49.661
18.8399
-0.920587
-7.93879
-3.2647
0.675985
4.33096
1.68418
-0.750308
-2.1027
-1.94834
0.477212
1.41643
1.18421
0.627306
-0.942799
-1.19001
-0.220306
99.9739
99.9892
100.113
100.007
99.7996
99.9705
100.287
100.093
99.639
99.7905
100.399
100.386
99.6385
99.3939
100.198
100.82
100.138
99.0707
99.3576
100.764
101.257
99.7744
98.3763
99.0485
101.637
102.113
99.9378
96.2849
97.8703
102.689
107.947
101.127
81.4166
49.8034
19.2959
-0.757937
-8.31747
-3.54202
0.30522
4.94146
1.97313
-0.508635
-2.3263
-2.87626
0.602933
1.36397
1.95637
1.50836
-1.57428
-1.36184
100.001
99.9365
100.056
100.134
99.9024
99.782
100.111
100.32
99.9229
99.5676
99.9758
100.531
100.212
99.431
99.5148
100.476
100.806
99.8233
98.9369
99.6295
101.059
101.131
99.3752
98.272
99.3883
102.018
101.97
99.4886
96.0145
98.2101
103.205
108.044
100.699
80.8191
49.84
19.833
-0.177886
-8.25288
-4.28784
-0.293745
4.81043
2.54659
0.577337
-2.24133
-3.19696
-0.456292
0.277415
2.50248
2.14229
-0.154854
100.031
99.9413
99.9337
100.141
100.12
99.7903
99.7972
100.251
100.323
99.7574
99.5249
100.153
100.634
100.051
99.2542
99.6211
100.712
100.809
99.5613
98.8054
99.8182
101.335
101.077
99.0753
98.0973
99.5926
102.371
101.973
99.2336
95.6103
98.3785
103.495
108.416
100.565
80.2894
49.6916
19.7104
0.583304
-8.01139
-4.32533
-0.618409
3.84763
2.79093
0.771073
-1.52964
-2.22254
-1.16624
-0.0684261
1.46351
0.957667
100.024
100.019
99.8888
99.9734
100.197
100.059
99.7237
99.8686
100.337
100.253
99.6469
99.5774
100.289
100.618
99.9009
99.2158
99.7642
100.81
100.711
99.4067
98.8403
99.9679
101.418
100.929
98.9741
98.0896
99.7836
102.398
101.908
99.1181
95.5558
98.5803
103.4
108.592
100.289
80.4377
49.6956
19.5904
0.827013
-8.49685
-3.84876
-0.691233
3.89458
3.11505
-0.197992
-1.25012
-2.39745
-1.08997
1.42801
0.980504
99.9961
100.056
99.9641
99.8801
100.062
100.193
99.9381
99.7237
100.022
100.361
100.073
99.5764
99.7656
100.427
100.452
99.6851
99.3137
100.045
100.829
100.416
99.2305
99.0706
100.281
101.369
100.541
98.8034
98.3447
100.214
102.348
101.53
98.723
95.8035
99.0636
103.65
108.319
99.5625
80.452
49.8851
20.4849
0.931298
-9.0757
-4.34857
-1.51133
4.83214
3.84447
0.334778
-0.928978
-4.27444
-1.74388
1.08325
99.977
100.052
100.043
99.8776
99.9219
100.184
100.139
99.7733
99.7674
100.233
100.358
99.8246
99.5035
100.026
100.606
100.23
99.3898
99.4222
100.429
100.902
100.045
98.9194
99.3089
100.743
101.453
100.06
98.3973
98.5432
100.799
102.657
101.062
98.1107
95.6205
99.6626
104.415
108.282
98.9968
79.4764
49.8611
21.3278
1.72523
-8.41113
-5.43721
-2.61925
4.2204
3.76052
2.41903
0.123517
-3.96544
-2.08475
99.9723
99.9958
100.113
99.9924
99.8004
99.9936
100.287
100.061
99.6353
99.8309
100.409
100.336
99.6173
99.4533
100.238
100.75
100.064
99.1503
99.4799
100.718
101.008
99.8033
98.6367
99.4083
101.062
101.667
99.757
98.0913
98.4185
101.223
103.006
100.989
97.7704
95.0299
100.002
104.678
108.947
98.9213
78.6974
49.6243
20.7106
2.70988
-7.63697
-5.28591
-2.28474
2.39007
3.09086
2.39951
0.0191507
-1.1305
100.003
99.939
100.043
100.13
99.9258
99.7911
100.077
100.3
99.9629
99.6074
99.9364
100.464
100.235
99.5302
99.532
100.358
100.712
99.9307
99.1251
99.6116
100.791
100.937
99.6688
98.6676
99.5104
101.126
101.59
99.6466
98.1639
98.4068
101.384
102.774
101.123
97.6863
95.147
100.081
104.252
109.3
98.5545
79.3419
49.6468
20.2057
2.92627
-8.74829
-4.44685
-1.62256
2.39008
4.34265
0.450454
-1.12437
100.019
99.9595
99.9633
100.096
100.066
99.8567
99.8838
100.175
100.191
99.8238
99.7116
100.127
100.394
99.9924
99.5273
99.8053
100.47
100.455
99.6879
99.2908
99.9648
100.799
100.56
99.422
98.9467
99.9226
101.169
101.077
99.3481
98.3381
99.0368
101.577
102.304
100.592
97.4086
96.0186
100.492
104.495
108.484
97.544
79.7305
49.9041
21.8449
2.98107
-9.9311
-5.0755
-3.55394
3.70403
6.34711
1.17197
100.024
99.9831
99.9231
100.049
100.137
99.9359
99.7938
100.05
100.282
100.007
99.6492
99.8819
100.385
100.286
99.6563
99.5153
100.178
100.659
100.13
99.3122
99.4375
100.472
100.942
100.095
98.9631
99.1097
100.595
101.419
100.645
98.5979
98.2894
99.7582
102.231
102.336
99.5043
96.8416
96.0558
101.579
105.615
107.959
96.8416
78.0185
49.8618
23.4101
3.96906
-8.07556
-6.49324
-6.04907
2.71159
4.17839
100.012
100.044
99.9136
99.9151
100.151
100.146
99.8027
99.7646
100.208
100.352
99.8398
99.5178
100.029
100.588
100.202
99.3937
99.4871
100.452
100.838
99.9214
99.0081
99.4527
100.852
101.126
99.8941
98.5075
99.1016
100.957
101.831
100.579
97.9857
98.0732
99.7405
103.118
102.527
99.3353
96.1917
95.162
102.358
105.907
109.212
96.8423
76.5041
49.5528
21.7957
5.21151
-5.83828
-6.21955
-3.93595
0.0380455
99.9803
100.058
100.025
99.8681
99.954
100.201
100.095
99.7426
99.8199
100.283
100.304
99.7473
99.5465
100.134
100.592
100.095
99.3534
99.5722
100.533
100.782
99.8349
99.0018
99.5458
100.883
101.07
99.8606
98.4884
99.2178
100.83
101.939
100.425
98.2315
97.9809
99.6143
103.154
102.195
100.117
95.8463
95.4965
101.832
105.106
110.177
96.4324
78.123
49.5679
20.0128
5.46945
-8.48539
-4.97439
-0.169012
99.9821
100.013
100.059
99.9626
99.8954
100.049
100.157
99.9623
99.7851
99.9946
100.267
100.09
99.7079
99.7849
100.26
100.365
99.8613
99.5079
99.9054
100.523
100.403
99.6483
99.2986
99.96
100.763
100.617
99.5627
98.9348
99.6877
100.896
101.315
99.8825
98.6048
98.5033
100.395
102.336
101.563
99.5811
96.2263
97.242
101.566
105.259
108.232
95.1476
79.8037
49.8835
23.2988
5.46211
-12.5318
-5.5363
99.9828
99.9972
100.07
99.9957
99.8761
99.9953
100.178
100.039
99.7755
99.8941
100.25
100.208
99.7691
99.6652
100.139
100.453
100.047
99.4943
99.6845
100.411
100.6
99.8966
99.23
99.6287
100.588
100.918
99.9306
98.9903
99.1295
100.55
101.438
100.649
99.0684
97.9741
99.5648
101.404
102.674
100.859
97.5508
96.4469
97.6406
103.722
106.723
106.212
94.2399
76.4605
49.8501
27.8949
6.57772
-7.19084
99.9985
99.9445
100.057
100.115
99.9017
99.8118
100.115
100.277
99.9102
99.6243
100.006
100.462
100.15
99.5055
99.6231
100.42
100.629
99.8257
99.1731
99.7635
100.792
100.784
99.5462
98.8548
99.6668
101.12
101.211
99.6123
98.4496
98.8273
101.253
101.855
101.005
98.1555
97.2704
99.6623
101.798
104.398
100.248
97.2128
94.9227
96.3729
105.947
107.11
108.94
94.2679
71.8801
49.4728
23.0867
8.0981
100.025
99.9553
99.9425
100.108
100.103
99.8413
99.8288
100.185
100.265
99.8308
99.623
100.09
100.485
100.074
99.4556
99.6815
100.486
100.609
99.75
99.1652
99.8071
100.833
100.768
99.5134
98.8636
99.6077
101.196
101.127
99.85
98.2602
98.9048
100.963
101.907
101.423
97.9861
97.8131
98.4689
102.07
104.226
100.664
98.9474
93.3308
96.7998
103.777
105.918
112.841
93.8607
76.6517
49.4484
8.49677
100.013
100.004
99.9452
99.9987
100.097
100.011
99.8624
99.9599
100.172
100.094
99.8129
99.8269
100.166
100.268
99.9107
99.6473
99.9432
100.379
100.265
99.7013
99.5366
100.043
100.587
100.296
99.5924
99.2977
100.014
100.752
100.614
99.7089
98.8642
99.6456
100.495
101.488
100.309
98.945
98.5942
99.0031
102.013
101.627
101.25
98.6341
95.6618
99.4279
100.344
105.82
107.499
92.3397
91.1574
49.8086
)
;

boundaryField
{
    left
    {
        type            fixedValue;
        value           uniform 100;
    }
    right
    {
        type            zeroGradient;
    }
    up
    {
        type            zeroGradient;
    }
    down
    {
        type            fixedValue;
        value           uniform 0;
    }
    frontAndBack
    {
        type            empty;
    }
}


// ************************************************************************* //
