/*--------------------------------*- C++ -*----------------------------------*\
  =========                 |
  \\      /  F ield         | OpenFOAM: The Open Source CFD Toolbox
   \\    /   O peration     | Website:  https://openfoam.org
    \\  /    A nd           | Version:  8
     \\/     M anipulation  |
\*---------------------------------------------------------------------------*/
FoamFile
{
    version     2.0;
    format      ascii;
    class       volScalarField;
    location    "2";
    object      p;
}
// * * * * * * * * * * * * * * * * * * * * * * * * * * * * * * * * * * * * * //

dimensions      [0 2 -2 0 0 0 0];

internalField   nonuniform List<scalar> 
11600
(
-1.54277e-10
6.70871e-07
2.32047e-06
4.87812e-06
8.34497e-06
1.2718e-05
1.79926e-05
2.41637e-05
3.12251e-05
3.917e-05
4.79906e-05
5.76782e-05
6.82233e-05
7.96156e-05
9.1844e-05
0.000104897
0.000118761
0.000133423
0.000148869
0.000165085
0.000182054
0.000199761
0.000218188
0.000237318
0.000257134
0.000277616
0.000298746
0.000320505
0.000342871
0.000365825
0.000389346
0.000413413
0.000438004
0.000463098
0.000488674
0.000514709
0.000541182
0.000568071
0.000595355
0.000623011
0.00065102
0.000679361
0.000708014
0.000736961
0.000766186
0.000795671
0.000825406
0.000855378
0.000885583
0.000916018
0.00094669
0.000977614
0.00100882
0.00104035
0.0010723
0.00110477
0.00113799
0.001172
0.00120957
0.00124222
-6.71282e-07
1.77282e-10
1.65191e-06
4.21161e-06
7.68085e-06
1.20569e-05
1.73353e-05
2.35109e-05
3.05774e-05
3.8528e-05
4.73548e-05
5.70493e-05
6.76019e-05
7.90023e-05
9.12394e-05
0.000104301
0.000118175
0.000132848
0.000148305
0.000164532
0.000181513
0.000199232
0.000217672
0.000236815
0.000256645
0.000277141
0.000298285
0.000320058
0.000342439
0.000365408
0.000388945
0.000413027
0.000437634
0.000462745
0.000488336
0.000514387
0.000540876
0.000567781
0.00059508
0.000622752
0.000650775
0.00067913
0.000707797
0.000736757
0.000765992
0.000795488
0.000825229
0.000855206
0.000885411
0.000915841
0.0009465
0.0009774
0.00100856
0.00104003
0.00107187
0.00110417
0.00113708
0.00117073
0.00120659
0.00123966
-2.32238e-06
-1.65071e-06
3.95073e-09
2.56838e-06
6.0439e-06
1.04276e-05
1.57154e-05
2.19019e-05
2.8981e-05
3.69457e-05
4.57882e-05
5.54998e-05
6.6071e-05
7.74914e-05
8.975e-05
0.000102835
0.000116733
0.000131431
0.000146915
0.00016317
0.00018018
0.000197929
0.000216401
0.000235577
0.00025544
0.00027597
0.00029715
0.000318959
0.000341377
0.000364383
0.000387958
0.000412079
0.000436725
0.000461874
0.000487506
0.000513596
0.000540124
0.000567068
0.000594405
0.000622115
0.000650175
0.000678565
0.000707265
0.000736256
0.000765519
0.000795038
0.000824799
0.000854787
0.000884995
0.000915415
0.000946047
0.000976896
0.00100797
0.0010393
0.00107091
0.00110285
0.00113517
0.00116791
0.00120137
0.00123365
-4.88762e-06
-4.21436e-06
-2.5553e-06
1.62085e-08
3.50144e-06
7.89736e-06
1.31997e-05
1.94032e-05
2.65018e-05
3.44884e-05
4.33552e-05
5.30934e-05
6.36935e-05
7.51451e-05
8.7437e-05
0.000100557
0.000114493
0.000129231
0.000144757
0.000161055
0.000178111
0.000195907
0.000214427
0.000233654
0.000253569
0.000274153
0.000295388
0.000317253
0.000339728
0.000362793
0.000386426
0.000410607
0.000435314
0.000460525
0.000486217
0.000512369
0.000538958
0.000565963
0.00059336
0.000621128
0.000649246
0.000677692
0.000706444
0.000735484
0.000764792
0.00079435
0.000824141
0.000854151
0.000884366
0.000914778
0.000945378
0.000976164
0.00100713
0.00103829
0.00106965
0.00110121
0.00113296
0.00116487
0.0011969
0.00122836
-8.3723e-06
-7.69645e-06
-6.03129e-06
-3.45026e-06
4.80193e-08
4.46045e-06
9.78264e-06
1.60093e-05
2.31344e-05
3.11508e-05
4.00506e-05
4.9825e-05
6.04644e-05
7.19584e-05
8.42957e-05
9.74643e-05
0.000111451
0.000126243
0.000141825
0.000158183
0.0001753
0.000193161
0.000211748
0.000231043
0.000251029
0.000271686
0.000292995
0.000314936
0.000337489
0.000360634
0.000384348
0.00040861
0.000433399
0.000458693
0.000484469
0.000510704
0.000537377
0.000564465
0.000591944
0.000619793
0.000647989
0.000676511
0.000705336
0.000734444
0.000763814
0.000793427
0.000823264
0.000853307
0.000883541
0.000913951
0.000944523
0.000975245
0.0010061
0.00103709
0.00106819
0.00109936
0.00113058
0.00116176
0.00119275
0.00122319
-1.27803e-05
-1.21012e-05
-1.04281e-05
-7.83492e-06
-4.32016e-06
1.13112e-07
5.46044e-06
1.17165e-05
1.88751e-05
2.69292e-05
3.58708e-05
4.5691e-05
5.63802e-05
6.79279e-05
8.03226e-05
9.35523e-05
0.000107604
0.000122464
0.000138118
0.000154551
0.000171746
0.000189688
0.000208359
0.000227742
0.000247817
0.000268566
0.00028997
0.000312008
0.00033466
0.000357904
0.00038172
0.000406086
0.00043098
0.000456379
0.000482261
0.000508603
0.000535381
0.000562574
0.000590158
0.00061811
0.000646407
0.000675026
0.000703945
0.000733141
0.000762593
0.00079228
0.00082218
0.000852273
0.00088254
0.000912961
0.000943517
0.000974188
0.00100495
0.00103578
0.00106665
0.0010975
0.00112828
0.00115888
0.00118916
0.00121887
-1.81158e-05
-1.74328e-05
-1.57501e-05
-1.31422e-05
-9.60741e-06
-5.14891e-06
2.28868e-07
6.52053e-06
1.37198e-05
2.18196e-05
3.08118e-05
4.06875e-05
5.1437e-05
6.30497e-05
7.5514e-05
8.88178e-05
0.000102948
0.000117891
0.000133632
0.000150155
0.000167446
0.000185486
0.000204259
0.000223747
0.000243931
0.000264792
0.00028631
0.000308465
0.000331237
0.000354603
0.000378543
0.000403034
0.000428055
0.000453582
0.000479593
0.000506063
0.000532971
0.000560293
0.000588004
0.000616082
0.000644502
0.000673241
0.000702276
0.000731582
0.000761138
0.000790919
0.000820902
0.000851065
0.000881385
0.000911838
0.000942398
0.000973041
0.00100373
0.00103445
0.00106513
0.00109573
0.00112617
0.00115636
0.00118614
0.00121535
-2.43841e-05
-2.36967e-05
-2.20027e-05
-1.93773e-05
-1.5819e-05
-1.13308e-05
-5.91722e-06
4.16293e-07
7.66341e-06
1.58169e-05
2.48687e-05
3.48097e-05
4.56301e-05
5.73192e-05
6.98655e-05
8.32564e-05
9.7479e-05
0.000112519
0.000128362
0.000144993
0.000162395
0.000180551
0.000199444
0.000219056
0.000239368
0.00026036
0.000282013
0.000304306
0.000327218
0.000350728
0.000374814
0.000399453
0.000424623
0.000450301
0.000476464
0.000503087
0.000530148
0.000557621
0.000585484
0.000613711
0.000642278
0.000671161
0.000700335
0.000729775
0.000759456
0.000789355
0.000819445
0.000849701
0.000880098
0.000910606
0.000941199
0.000971843
0.0010025
0.00103314
0.0010637
0.00109413
0.00112434
0.00115425
0.00118372
0.00121262
-3.15914e-05
-3.08988e-05
-2.9192e-05
-2.65466e-05
-2.29611e-05
-1.84387e-05
-1.29839e-05
-6.60218e-06
7.00012e-07
8.91538e-06
1.80357e-05
2.80519e-05
3.8954e-05
5.07312e-05
6.33716e-05
7.6863e-05
9.11918e-05
0.000106344
0.000122305
0.000139058
0.000156589
0.000174878
0.00019391
0.000213664
0.000234123
0.000255267
0.000277075
0.000299527
0.000322602
0.000346277
0.000370531
0.000395341
0.000420683
0.000446536
0.000472874
0.000499674
0.000526911
0.000554561
0.000582599
0.000611
0.000639738
0.000668789
0.000698127
0.000727726
0.000757559
0.0007876
0.000817822
0.000848198
0.000878698
0.000909292
0.000939949
0.000970631
0.0010013
0.00103191
0.00106241
0.00109274
0.00112282
0.00115257
0.00118187
0.00121062
-3.9745e-05
-3.90465e-05
-3.73251e-05
-3.4657e-05
-3.10407e-05
-2.64795e-05
-2.0978e-05
-1.45418e-05
-7.1772e-06
1.10827e-06
1.03063e-05
2.04077e-05
3.14023e-05
4.32791e-05
5.60264e-05
6.96314e-05
8.40807e-05
9.93599e-05
0.000115454
0.000132347
0.000150023
0.000168463
0.000187651
0.000207568
0.000228194
0.000249509
0.000271493
0.000294126
0.000317384
0.000341247
0.000365692
0.000390695
0.000416234
0.000442284
0.000468822
0.000495822
0.000523261
0.000551112
0.000579351
0.000607951
0.000636886
0.000666131
0.000695659
0.000725442
0.000755453
0.000785664
0.000816046
0.00084657
0.000877205
0.000907918
0.000938674
0.000969435
0.00100016
0.0010308
0.0010613
0.00109161
0.00112165
0.00115134
0.00118059
0.00120931
-4.88531e-05
-4.81479e-05
-4.64101e-05
-4.37166e-05
-4.0066e-05
-3.54614e-05
-2.99077e-05
-2.34103e-05
-1.59759e-05
-7.61204e-06
1.67291e-06
1.18696e-05
2.29677e-05
3.49561e-05
4.78229e-05
6.15551e-05
7.61391e-05
9.15604e-05
0.000107804
0.000124853
0.000142691
0.000161301
0.000180664
0.000200762
0.000221575
0.000243082
0.000265264
0.000288098
0.000311562
0.000335635
0.000360294
0.000385514
0.000411273
0.000437545
0.000464307
0.000491533
0.000519198
0.000547276
0.000575741
0.000604566
0.000633725
0.000663191
0.000692935
0.00072293
0.000753147
0.000783557
0.000814129
0.000844833
0.000875635
0.000906501
0.000937395
0.000968276
0.000999102
0.00102983
0.00106039
0.00109075
0.00112082
0.00115054
0.00117984
0.00120862
-5.89246e-05
-5.82121e-05
-5.64561e-05
-5.37345e-05
-5.00458e-05
-4.53932e-05
-3.97815e-05
-3.32165e-05
-2.57048e-05
-1.7254e-05
-7.87281e-06
2.42942e-06
1.36422e-05
2.57543e-05
3.87534e-05
5.26265e-05
6.73597e-05
8.29384e-05
9.93469e-05
0.000116569
0.000134588
0.000153385
0.000172942
0.000193241
0.00021426
0.000235981
0.000258381
0.000281438
0.000305132
0.000329438
0.000354333
0.000379795
0.000405797
0.000432317
0.000459328
0.000486805
0.000514722
0.000543053
0.00057177
0.000600848
0.000630257
0.000659971
0.00068996
0.000720196
0.000750649
0.000781288
0.000812081
0.000842997
0.000874001
0.000905058
0.000936129
0.000967174
0.00099815
0.00102901
0.0010597
0.00109017
0.00112035
0.00115018
0.0011796
0.00120852
-6.99698e-05
-6.92492e-05
-6.74733e-05
-6.47207e-05
-6.09901e-05
-5.62847e-05
-5.06095e-05
-4.39701e-05
-3.63734e-05
-2.78272e-05
-1.83402e-05
-7.92194e-06
3.41684e-06
1.56647e-05
2.88092e-05
4.28372e-05
5.77344e-05
7.3486e-05
9.0076e-05
0.000107488
0.000125705
0.000144708
0.000164479
0.000184998
0.000206245
0.000228199
0.000250839
0.000274143
0.000298088
0.00032265
0.000347807
0.000373533
0.000399805
0.000426597
0.000453882
0.000481636
0.000509832
0.000538443
0.00056744
0.000596797
0.000626486
0.000656476
0.000686739
0.000717246
0.000747965
0.000778864
0.000809912
0.000841074
0.000872316
0.000903601
0.00093489
0.000966143
0.000997316
0.00102836
0.00105923
0.00108987
0.00112023
0.00115024
0.00117984
0.00120898
-8.19996e-05
-8.12702e-05
-7.94725e-05
-7.66862e-05
-7.29099e-05
-6.81469e-05
-6.24022e-05
-5.56816e-05
-4.79922e-05
-3.93418e-05
-2.97393e-05
-1.91945e-05
-7.71824e-06
4.67784e-06
1.79811e-05
3.2178e-05
4.72542e-05
6.31945e-05
7.99827e-05
9.76021e-05
0.000116035
0.000135263
0.000155267
0.000176027
0.000197522
0.000219732
0.000242634
0.000266207
0.000290426
0.000315269
0.00034071
0.000366727
0.000393292
0.000420382
0.000447969
0.000476026
0.000504527
0.000533445
0.00056275
0.000592416
0.000622411
0.000652708
0.000683276
0.000714083
0.0007451
0.000776292
0.000807627
0.000839071
0.000870588
0.00090214
0.000933689
0.000965193
0.000996609
0.00102789
0.001059
0.00108987
0.00112045
0.0011507
0.00118055
0.00120996
-9.50261e-05
-9.42872e-05
-9.24659e-05
-8.9643e-05
-8.5817e-05
-8.09915e-05
-7.51714e-05
-6.83628e-05
-6.05727e-05
-5.18093e-05
-4.20814e-05
-3.13993e-05
-1.97738e-05
-7.21682e-06
6.25867e-06
2.06389e-05
3.59094e-05
5.20544e-05
6.90577e-05
8.69021e-05
0.00010557
0.000125041
0.000145298
0.000166319
0.000188084
0.000210572
0.000233759
0.000257623
0.00028214
0.000307287
0.000333039
0.000359371
0.000386256
0.000413669
0.000441584
0.000469972
0.000498806
0.000528059
0.000557701
0.000587703
0.000618036
0.000648669
0.000679572
0.000710712
0.000742058
0.000773577
0.000805235
0.000836996
0.000868825
0.000900683
0.000932532
0.000964331
0.000996036
0.0010276
0.00105899
0.00109014
0.00112101
0.00115155
0.00118171
0.00121143
-0.000109063
-0.000108313
-0.000106466
-0.000103604
-9.97245e-05
-9.48314e-05
-8.89299e-05
-8.20262e-05
-7.41274e-05
-6.52418e-05
-5.53786e-05
-4.4548e-05
-3.27614e-05
-2.00307e-05
-6.36919e-06
8.20912e-06
2.36893e-05
4.00555e-05
5.7291e-05
7.53784e-05
9.42993e-05
0.000114035
0.000134564
0.000155868
0.000177924
0.000200711
0.000224206
0.000248385
0.000273225
0.000298701
0.000324788
0.00035146
0.000378692
0.000406455
0.000434725
0.000463471
0.000492667
0.000522283
0.000552291
0.00058266
0.00061336
0.000644361
0.00067563
0.000707135
0.000738845
0.000770724
0.000802739
0.000834854
0.000867032
0.000899236
0.000931426
0.000963562
0.000995601
0.0010275
0.00105922
0.0010907
0.00112191
0.00115279
0.0011833
0.00121339
-0.000124123
-0.000123363
-0.000121488
-0.000118583
-0.000114646
-0.00010968
-0.000103691
-9.66853e-05
-8.86696e-05
-7.96526e-05
-6.96438e-05
-5.86537e-05
-4.66936e-05
-3.37761e-05
-1.99145e-05
-5.12321e-06
1.05826e-05
2.71866e-05
4.4672e-05
6.30207e-05
8.22141e-05
0.000102233
0.000123056
0.000144663
0.000167033
0.000190142
0.000213968
0.000238486
0.000263673
0.000289503
0.000315951
0.00034299
0.000370594
0.000398736
0.000427388
0.000456521
0.000486107
0.000516116
0.000546519
0.000577286
0.000608384
0.000639783
0.000671451
0.000703355
0.000735461
0.000767736
0.000800144
0.000832649
0.000865214
0.000897803
0.000930374
0.000962889
0.000995306
0.00102758
0.00105967
0.00109154
0.00112313
0.0011544
0.00118531
0.00121581
-0.000140223
-0.000139451
-0.000137547
-0.000134596
-0.000130597
-0.000125554
-0.000119471
-0.000112355
-0.000104214
-9.5056e-05
-8.48912e-05
-7.37299e-05
-6.15841e-05
-4.84663e-05
-3.43903e-05
-1.93707e-05
-3.42314e-06
1.34358e-05
3.11889e-05
4.98177e-05
6.93031e-05
8.96253e-05
0.000110764
0.000132696
0.000155401
0.000178856
0.000203036
0.000227918
0.000253477
0.000279687
0.000306522
0.000333955
0.000361959
0.000390507
0.000419569
0.000449118
0.000479123
0.000509556
0.000540384
0.000571579
0.000603107
0.000634937
0.000667036
0.000699372
0.000731909
0.000764614
0.000797451
0.000830383
0.000863374
0.000896386
0.000929379
0.000962315
0.000995151
0.00102785
0.00106036
0.00109265
0.00112466
0.00115637
0.00118772
0.00121867
-0.000157379
-0.000156594
-0.000154658
-0.000151659
-0.000147594
-0.000142467
-0.000136284
-0.000129051
-0.000120776
-0.000111467
-0.000101136
-8.97916e-05
-7.74472e-05
-6.41154e-05
-4.98103e-05
-3.45468e-05
-1.8341e-05
-1.20964e-06
1.68294e-05
3.57574e-05
5.55548e-05
7.62014e-05
9.76758e-05
0.000119956
0.00014302
0.000166844
0.000191403
0.000216674
0.00024263
0.000269245
0.000296494
0.000324348
0.00035278
0.000381762
0.000411264
0.000441258
0.000471713
0.000502598
0.000533884
0.000565538
0.000597528
0.000629822
0.000662386
0.000695187
0.00072819
0.00076136
0.000794662
0.000828059
0.000861513
0.000894988
0.000928443
0.000961839
0.000995137
0.00102829
0.00106127
0.00109402
0.00112651
0.0011587
0.00119053
0.00122198
-0.000175607
-0.000174809
-0.00017284
-0.000169789
-0.000165653
-0.000160437
-0.000154147
-0.000146789
-0.000138371
-0.000128903
-0.000118393
-0.000106854
-9.42985e-05
-8.07386e-05
-6.61894e-05
-5.0666e-05
-3.4185e-05
-1.67635e-05
1.58018e-06
2.08269e-05
4.09568e-05
6.19489e-05
8.37815e-05
0.000106432
0.000129878
0.000154095
0.000179058
0.000204743
0.000231122
0.000258171
0.00028586
0.000314163
0.000343052
0.000372496
0.000402468
0.000432936
0.000463871
0.000495241
0.000527015
0.00055916
0.000591645
0.000624435
0.000657498
0.000690799
0.000724303
0.000757975
0.000791779
0.000825677
0.000859633
0.000893608
0.000927565
0.000961463
0.000995263
0.00102892
0.00106241
0.00109567
0.00112867
0.00116137
0.00119373
0.0012257
-0.000194928
-0.000194115
-0.00019211
-0.000189004
-0.000184793
-0.000179483
-0.000173079
-0.000165589
-0.000157019
-0.00014738
-0.000136681
-0.000124935
-0.000112154
-9.83521e-05
-8.35433e-05
-6.77438e-05
-5.09702e-05
-3.32403e-05
-1.45728e-05
5.01275e-06
2.54958e-05
4.68551e-05
6.90685e-05
9.21129e-05
0.000115965
0.000140599
0.000165992
0.000192116
0.000218946
0.000246454
0.000274612
0.000303393
0.000332766
0.000362703
0.000393174
0.000424148
0.000455593
0.000487479
0.000519774
0.000552443
0.000585456
0.000618777
0.000652373
0.000686208
0.000720249
0.000754458
0.0007888
0.000823237
0.000857733
0.000892248
0.000926745
0.000961184
0.000995526
0.00102973
0.00106376
0.00109757
0.00113112
0.00116438
0.0011973
0.00122985
-0.00021536
-0.000214532
-0.00021249
-0.000209324
-0.000205034
-0.000199624
-0.0001931
-0.000185468
-0.000176737
-0.000166917
-0.000156018
-0.000144052
-0.000131032
-0.000116973
-0.000101889
-8.57963e-05
-6.87124e-05
-5.06554e-05
-3.16445e-05
-1.16997e-05
9.15793e-06
3.09066e-05
5.35236e-05
7.69854e-05
0.000101268
0.000126346
0.000152193
0.000178784
0.000206091
0.000234086
0.000262742
0.000292029
0.000321917
0.000352376
0.000383377
0.000414887
0.000446875
0.000479309
0.000512156
0.000545384
0.000578957
0.000612843
0.000647007
0.000681412
0.000716025
0.000750808
0.000785725
0.000820739
0.000855812
0.000890906
0.000925983
0.000961003
0.000995927
0.00103072
0.00106533
0.00109973
0.00113388
0.00116773
0.00120125
0.0012344
-0.000236925
-0.000236081
-0.000233998
-0.000230771
-0.000226397
-0.00022088
-0.000214228
-0.000206447
-0.000197545
-0.000187533
-0.000176422
-0.000164223
-0.000150951
-0.000136619
-0.000121244
-0.000104841
-8.74286e-05
-6.90253e-05
-4.96509e-05
-2.93258e-05
-8.07171e-06
1.40891e-05
3.71332e-05
6.10367e-05
8.57745e-05
0.000111321
0.00013765
0.000164735
0.000192547
0.000221058
0.00025024
0.000280062
0.000310495
0.000341508
0.00037307
0.000405148
0.000437711
0.000470726
0.000504159
0.000537977
0.000572147
0.000606632
0.000641398
0.000676409
0.00071163
0.000747024
0.000782554
0.000818182
0.00085387
0.000889582
0.000925277
0.000960917
0.000996463
0.00103188
0.00106712
0.00110214
0.00113692
0.00117141
0.00120557
0.00123936
-0.000259645
-0.000258783
-0.000256658
-0.000253365
-0.000248902
-0.000243274
-0.000236486
-0.000228547
-0.000219465
-0.00020925
-0.000197914
-0.00018547
-0.00017193
-0.000157311
-0.000141627
-0.000124896
-0.000107137
-8.83673e-05
-6.86087e-05
-4.78818e-05
-2.62088e-05
-3.61263e-06
1.98828e-05
4.42528e-05
6.94719e-05
9.55137e-05
0.000122351
0.000149957
0.000178303
0.000207359
0.000237097
0.000267485
0.000298493
0.000330091
0.000362245
0.000394924
0.000428094
0.000461723
0.000495776
0.00053022
0.000565019
0.000600139
0.000635544
0.000671197
0.000707063
0.000743104
0.000779283
0.000815563
0.000851906
0.000888273
0.000924625
0.000960925
0.000997131
0.00103321
0.00106911
0.00110481
0.00114025
0.00117541
0.00121025
0.00124472
-0.000283543
-0.000282664
-0.000280494
-0.000277131
-0.000272574
-0.000266827
-0.000259897
-0.00025179
-0.000242518
-0.000232089
-0.000220516
-0.000207812
-0.00019399
-0.000179067
-0.000163058
-0.000145981
-0.000127855
-0.0001087
-8.85356e-05
-6.73848e-05
-4.52698e-05
-2.22144e-05
1.75701e-06
2.66191e-05
5.23456e-05
7.89098e-05
0.000106284
0.000134439
0.000163347
0.000192978
0.000223302
0.000254287
0.000285902
0.000318116
0.000350895
0.000384207
0.000418018
0.000452295
0.000487003
0.000522107
0.000557571
0.000593361
0.00062944
0.000665772
0.000702319
0.000739045
0.000775912
0.000812882
0.000849917
0.000886978
0.000924027
0.000961024
0.000997931
0.00103471
0.00107132
0.00110772
0.00114387
0.00117974
0.00121529
0.00125048
-0.000308645
-0.000307746
-0.00030553
-0.000302094
-0.000297437
-0.000291565
-0.000284484
-0.000276202
-0.000266728
-0.000256074
-0.000244251
-0.000231273
-0.000217154
-0.00020191
-0.000185558
-0.000168116
-0.000149604
-0.000130041
-0.00010945
-8.78528e-05
-6.52723e-05
-4.1733e-05
-1.72603e-05
8.12005e-06
3.4381e-05
6.14951e-05
8.94338e-05
0.000118168
0.000147668
0.000177904
0.000208845
0.000240458
0.000272712
0.000305574
0.000339012
0.000372991
0.000407477
0.000442436
0.000477833
0.000513632
0.000549797
0.000586293
0.000623083
0.00066013
0.000697396
0.000734845
0.000772437
0.000810135
0.000847901
0.000885695
0.000923479
0.000961214
0.00099886
0.00103638
0.00107373
0.00111088
0.00114778
0.0011844
0.00122069
0.00125663
-0.000334977
-0.000334058
-0.000331791
-0.000328278
-0.000323517
-0.000317513
-0.000310273
-0.000301806
-0.00029212
-0.000281228
-0.000269142
-0.000255875
-0.000241443
-0.000225861
-0.000209148
-0.000191323
-0.000172404
-0.000152413
-0.000131372
-0.000109305
-8.62344e-05
-6.21861e-05
-3.71859e-05
-1.12605e-05
1.55625e-05
4.32549e-05
7.17874e-05
0.00010113
0.000131253
0.000162125
0.000193714
0.000225987
0.000258913
0.000292458
0.000326587
0.000361267
0.000396462
0.000432138
0.000468259
0.00050479
0.000541693
0.000578932
0.000616469
0.000654268
0.000692291
0.0007305
0.000768856
0.000807321
0.000845856
0.000884422
0.00092298
0.000961491
0.000999915
0.00103821
0.00107635
0.00111428
0.00115196
0.00118937
0.00122645
0.00126318
-0.000362566
-0.000361626
-0.000359307
-0.000355712
-0.000350841
-0.000344699
-0.000337292
-0.000328629
-0.000318721
-0.000307578
-0.000295215
-0.000281644
-0.000266882
-0.000250946
-0.000233853
-0.000215623
-0.000196277
-0.000175836
-0.000154322
-0.000131761
-0.000108175
-8.35922e-05
-5.80378e-05
-3.15397e-05
-4.12621e-06
2.41735e-05
5.33297e-05
8.33117e-05
0.000114088
0.000145628
0.000177897
0.000210864
0.000244495
0.000278755
0.00031361
0.000349026
0.000384966
0.000421395
0.000458277
0.000495574
0.000533251
0.00057127
0.000609593
0.000648182
0.000687
0.000726007
0.000765166
0.000804436
0.000843779
0.000883156
0.000922528
0.000961854
0.0010011
0.00104021
0.00107917
0.00111792
0.00115643
0.00119466
0.00123257
0.00127012
-0.000391442
-0.000390479
-0.000388105
-0.000384425
-0.000379438
-0.00037315
-0.000365567
-0.000356699
-0.000346556
-0.00033515
-0.000322495
-0.000308606
-0.000293497
-0.000277188
-0.000259696
-0.000241041
-0.000221246
-0.000200331
-0.000178322
-0.000155241
-0.000131115
-0.00010597
-7.98344e-05
-5.27353e-05
-2.47022e-05
4.23487e-06
3.40452e-05
6.46975e-05
9.61598e-05
0.000128399
0.000161383
0.000195076
0.000229446
0.000264457
0.000300073
0.00033626
0.00037298
0.000410198
0.000447877
0.000485979
0.000524468
0.000563304
0.00060245
0.000641868
0.000681518
0.000721363
0.000761362
0.000801477
0.000841668
0.000881896
0.00092212
0.000962301
0.0010024
0.00104238
0.00108219
0.0011218
0.00116117
0.00120027
0.00123904
0.00127746
-0.000421635
-0.000420649
-0.000418216
-0.000414447
-0.000409338
-0.000402896
-0.000395129
-0.000386045
-0.000375656
-0.000363974
-0.000351012
-0.000336787
-0.000321315
-0.000304613
-0.000286702
-0.000267602
-0.000247335
-0.000225924
-0.000203393
-0.000179768
-0.000155075
-0.000129341
-0.000102595
-7.48658e-05
-4.61832e-05
-1.65781e-05
1.39178e-05
4.52725e-05
7.7453e-05
0.000110426
0.000144157
0.000178612
0.000213755
0.000249551
0.000285965
0.000322959
0.000360496
0.00039854
0.000437053
0.000475998
0.000515335
0.000555027
0.000595035
0.000635319
0.000675842
0.000716563
0.000757443
0.000798442
0.00083952
0.000880638
0.000921754
0.000962831
0.00100383
0.0010447
0.00108541
0.00112593
0.0011662
0.00120619
0.00124587
0.00128518
-0.000453178
-0.000452167
-0.000449673
-0.000445809
-0.000440573
-0.00043397
-0.000426008
-0.000416698
-0.00040605
-0.000394077
-0.000380794
-0.000366217
-0.000350362
-0.00033325
-0.000314899
-0.000295331
-0.000274569
-0.000252637
-0.00022956
-0.000205364
-0.000180077
-0.000153726
-0.00012634
-9.79507e-05
-6.85878e-05
-3.82832e-05
-7.06937e-06
2.50206e-05
5.79529e-05
9.16932e-05
0.000126207
0.000161458
0.00019741
0.000234028
0.000271275
0.000309113
0.000347505
0.000386412
0.000425798
0.000465622
0.000505847
0.000546433
0.000587342
0.000628532
0.000669966
0.000711603
0.000753403
0.000795326
0.000837332
0.000879379
0.000921429
0.00096344
0.00100537
0.00104718
0.00108884
0.00113029
0.0011715
0.00121244
0.00125305
0.0012933
-0.000486104
-0.000485067
-0.00048251
-0.000478546
-0.000473175
-0.000466403
-0.000458238
-0.00044869
-0.00043777
-0.000425493
-0.000411872
-0.000396925
-0.00038067
-0.000363126
-0.000344314
-0.000324255
-0.000302975
-0.000280497
-0.000256848
-0.000232054
-0.000206143
-0.000179146
-0.000151091
-0.00012201
-9.19352e-05
-6.08986e-05
-2.89338e-05
3.92515e-06
3.76436e-05
7.21864e-05
0.000107518
0.000143601
0.000180399
0.000217876
0.000255993
0.000294713
0.000333996
0.000373806
0.000414102
0.000454845
0.000495997
0.000537517
0.000579365
0.000621502
0.000663887
0.00070648
0.00074924
0.000792127
0.0008351
0.000878118
0.000921141
0.000964127
0.00100704
0.00104983
0.00109246
0.00113489
0.00117708
0.001219
0.00126059
0.00130182
-0.000520449
-0.000519385
-0.00051676
-0.000512693
-0.000507181
-0.000500231
-0.000491852
-0.000482054
-0.00047085
-0.000458252
-0.000444278
-0.000428944
-0.000412268
-0.000394271
-0.000374976
-0.000354404
-0.00033258
-0.00030953
-0.000285281
-0.00025986
-0.000233298
-0.000205624
-0.000176869
-0.000147065
-0.000116246
-8.44436e-05
-5.16937e-05
-1.8031e-05
1.6509e-05
5.18899e-05
8.80752e-05
0.000125027
0.000162709
0.000201082
0.000240107
0.000279747
0.000319962
0.000360712
0.000401958
0.000443659
0.000485777
0.000528271
0.000571099
0.000614222
0.000657599
0.000701188
0.000744949
0.000788841
0.000832822
0.000876852
0.000920889
0.000964891
0.00100882
0.00105263
0.00109628
0.00113973
0.00118295
0.00122588
0.00126849
0.00131074
-0.00055625
-0.000555158
-0.000552463
-0.000548286
-0.000542627
-0.00053549
-0.000526887
-0.000516827
-0.000505324
-0.000492391
-0.000478045
-0.000462305
-0.000445189
-0.000426718
-0.000406916
-0.000385805
-0.000363412
-0.000339763
-0.000314887
-0.000288811
-0.000261566
-0.000233184
-0.000203697
-0.000173137
-0.000141539
-0.000108938
-7.53679e-05
-4.08657e-05
-5.46799e-06
3.0788e-05
6.78646e-05
0.000105724
0.000144326
0.000183634
0.000223607
0.000264205
0.00030539
0.000347121
0.000389356
0.000432057
0.000475181
0.000518688
0.000562537
0.000606687
0.000651096
0.000695723
0.000740527
0.000785465
0.000830495
0.000875578
0.000920669
0.000965729
0.00101071
0.00105558
0.0011003
0.00114481
0.00118909
0.00123308
0.00127675
0.00132005
-0.000593548
-0.000592425
-0.000589656
-0.000585365
-0.00057955
-0.000572219
-0.00056338
-0.000553045
-0.000541228
-0.000527944
-0.000513209
-0.000497043
-0.000479465
-0.000460498
-0.000440165
-0.000418491
-0.000395502
-0.000371227
-0.000345693
-0.000318932
-0.000290974
-0.000261852
-0.000231599
-0.00020025
-0.000167839
-0.000134402
-9.99756e-05
-6.45973e-05
-2.83046e-05
8.86413e-06
4.68703e-05
8.56746e-05
0.000125237
0.000165519
0.000206479
0.000248077
0.000290272
0.000333023
0.000376289
0.000420029
0.000464201
0.000508763
0.000553674
0.000598892
0.000644375
0.000690081
0.000735968
0.000781994
0.000828116
0.000874293
0.000920482
0.00096664
0.00101273
0.0010587
0.00110451
0.00115013
0.00119551
0.0012406
0.00128537
0.00132977
-0.000632382
-0.000631228
-0.000628381
-0.00062397
-0.000617992
-0.000610456
-0.00060137
-0.000590748
-0.000578602
-0.00056495
-0.000549807
-0.000533195
-0.000515133
-0.000495646
-0.000474757
-0.000452493
-0.000428881
-0.000403949
-0.000377729
-0.000350251
-0.000321547
-0.000291652
-0.000260599
-0.000228425
-0.000195165
-0.000160857
-0.000125537
-8.92448e-05
-5.20189e-05
-1.38986e-05
2.50764e-05
6.48656e-05
0.000105429
0.000146724
0.000188712
0.00023135
0.000274596
0.000318409
0.000362747
0.000407567
0.000452828
0.000498488
0.000544503
0.000590831
0.00063743
0.000684257
0.00073127
0.000778426
0.000825681
0.000872994
0.000920322
0.000967622
0.00101485
0.00106197
0.00110893
0.00115569
0.00120221
0.00124845
0.00129436
0.0013399
-0.000672796
-0.000671609
-0.000668681
-0.000664144
-0.000657995
-0.000650244
-0.0006409
-0.000629976
-0.000617486
-0.000603446
-0.000587877
-0.000570797
-0.000552229
-0.000532197
-0.000510727
-0.000487845
-0.00046358
-0.000437963
-0.000411024
-0.000382797
-0.000353314
-0.000322611
-0.000290723
-0.000257688
-0.000223542
-0.000188324
-0.000152073
-0.000114828
-7.66291e-05
-3.75174e-05
2.46656e-06
4.32814e-05
8.48854e-05
0.000127237
0.000170293
0.000214012
0.000258352
0.000303269
0.000348721
0.000394664
0.000441057
0.000487855
0.000535017
0.000582498
0.000630255
0.000678246
0.000726428
0.000774756
0.000823188
0.00087168
0.00092019
0.000968674
0.00101709
0.00106539
0.00111354
0.00116149
0.00120919
0.00125661
0.00130371
0.00135043
-0.000714835
-0.000713614
-0.000710601
-0.000705931
-0.000699604
-0.000691627
-0.000682012
-0.000670771
-0.00065792
-0.000643476
-0.000627459
-0.000609889
-0.000590791
-0.000570189
-0.00054811
-0.000524582
-0.000499635
-0.0004733
-0.00044561
-0.0004166
-0.000386303
-0.000354756
-0.000321997
-0.000288063
-0.000252993
-0.000216826
-0.000179604
-0.000141366
-0.000102154
-6.20101e-05
-2.09758e-05
2.09063e-05
6.35933e-05
0.000107042
0.00015121
0.000196053
0.000241529
0.000287592
0.000334201
0.000381311
0.000428878
0.000476859
0.00052521
0.000573887
0.000622846
0.000672044
0.000721437
0.000770981
0.000820632
0.000870347
0.000920082
0.000969793
0.00101944
0.00106897
0.00111835
0.00116752
0.00121646
0.00126511
0.00131343
0.00136138
-0.000758547
-0.00075729
-0.000754187
-0.000749379
-0.000742864
-0.000734651
-0.000724751
-0.000713179
-0.000699949
-0.000685081
-0.000668595
-0.000650513
-0.000630859
-0.00060966
-0.000586944
-0.00056274
-0.000537079
-0.000509994
-0.00048152
-0.000451691
-0.000420544
-0.000388116
-0.000354447
-0.000319576
-0.000283542
-0.000246387
-0.000208152
-0.00016888
-0.000128613
-8.73948e-05
-4.52676e-05
-2.27555e-06
4.15374e-05
8.61273e-05
0.00013145
0.000177461
0.000224115
0.000271369
0.000319179
0.000367498
0.000416284
0.000465491
0.000515075
0.000564991
0.000615196
0.000665645
0.000716293
0.000767097
0.000818011
0.000868993
0.000919996
0.000970978
0.00102189
0.0010727
0.00112335
0.0011738
0.00122401
0.00127393
0.00132352
0.00137274
-0.000803982
-0.000802687
-0.00079949
-0.000794536
-0.000787825
-0.000779364
-0.000769166
-0.000757245
-0.000743619
-0.000728307
-0.000711329
-0.00069271
-0.000672475
-0.000650651
-0.000627268
-0.000602356
-0.000575949
-0.00054808
-0.000518786
-0.000488102
-0.000456067
-0.000422721
-0.000388102
-0.000352253
-0.000315214
-0.000277029
-0.00023774
-0.000197391
-0.000156027
-0.00011369
-7.04261e-05
-2.62802e-05
1.87028e-05
6.44778e-05
0.000110999
0.000158222
0.000206101
0.00025459
0.000303644
0.000353218
0.000403266
0.000453744
0.000504606
0.000555806
0.000607301
0.000659045
0.000710993
0.000763101
0.000815322
0.000867614
0.000919931
0.000972227
0.00102446
0.00107658
0.00112855
0.00118032
0.00123185
0.00128309
0.00133399
0.00138452
-0.000851191
-0.000849857
-0.000846561
-0.000841455
-0.000834537
-0.000825816
-0.000815305
-0.00080302
-0.000788979
-0.0007732
-0.000755708
-0.000736526
-0.000715682
-0.000693204
-0.000669123
-0.000643471
-0.000616283
-0.000587595
-0.000557443
-0.000525867
-0.000492905
-0.000458599
-0.00042299
-0.000386121
-0.000348035
-0.000308777
-0.00026839
-0.000226921