/*--------------------------------*- C++ -*----------------------------------*\
  =========                 |
  \\      /  F ield         | OpenFOAM: The Open Source CFD Toolbox
   \\    /   O peration     | Website:  https://openfoam.org
    \\  /    A nd           | Version:  8
     \\/     M anipulation  |
\*---------------------------------------------------------------------------*/
FoamFile
{
    version     2.0;
    format      ascii;
    class       surfaceScalarField;
    location    "0.01";
    object      phi;
}
// * * * * * * * * * * * * * * * * * * * * * * * * * * * * * * * * * * * * * //

dimensions      [0 3 -1 0 0 0 0];

internalField   nonuniform List<scalar> 
760
(
1.1789e-08
-1.17886e-08
2.49235e-08
-1.31345e-08
3.83537e-08
-1.34309e-08
1.63811e-08
2.19726e-08
-3.88646e-08
5.52456e-08
-1.10254e-07
7.13893e-08
-1.83601e-07
7.33475e-08
-2.48777e-07
6.51759e-08
-2.99634e-07
5.08568e-08
-3.33117e-07
3.3483e-08
-3.47258e-07
1.41415e-08
-3.41248e-07
-6.01045e-09
-3.15772e-07
-2.54756e-08
-2.7248e-07
-4.32913e-08
-2.13616e-07
-5.88643e-08
-1.43717e-07
-6.98983e-08
-7.14828e-08
-7.22341e-08
-1.18068e-08
-5.96759e-08
1.3506e-08
-2.53123e-08
1.3506e-08
-6.9409e-08
5.76206e-08
-1.77867e-07
9.53226e-08
-2.8821e-07
9.69119e-08
-4.16424e-07
1.50187e-07
-5.59883e-07
1.98703e-07
-7.06393e-07
2.179e-07
-8.41242e-07
2.08197e-07
-9.52115e-07
1.76048e-07
-1.03005e-06
1.28794e-07
-1.06926e-06
7.26875e-08
-1.06706e-06
1.19415e-08
-1.02254e-06
-5.05303e-08
-9.36455e-07
-1.11556e-07
-8.12116e-07
-1.67629e-07
-6.56053e-07
-2.14927e-07
-4.78423e-07
-2.47528e-07
-2.95229e-07
-2.55428e-07
-1.32011e-07
-2.22894e-07
-2.73596e-08
-1.29965e-07
-1.3853e-08
-1.49686e-07
2.07306e-07
-3.87685e-07
3.33321e-07
-6.36727e-07
3.45954e-07
-8.78086e-07
3.91547e-07
-1.10414e-06
4.24756e-07
-1.30667e-06
4.20431e-07
-1.47629e-06
3.77812e-07
-1.60448e-06
3.04237e-07
-1.68437e-06
2.08694e-07
-1.71099e-06
9.93024e-08
-1.6814e-06
-1.76437e-08
-1.59524e-06
-1.36693e-07
-1.45461e-06
-2.5219e-07
-1.26402e-06
-3.58218e-07
-1.0314e-06
-4.47544e-07
-7.69745e-07
-5.09184e-07
-4.99253e-07
-5.25921e-07
-2.51249e-07
-4.70899e-07
-7.15243e-08
-3.0969e-07
-8.53775e-08
-1.53656e-07
3.60963e-07
-4.48584e-07
6.28249e-07
-7.87312e-07
6.84681e-07
-1.11751e-06
7.21744e-07
-1.41679e-06
7.2404e-07
-1.67357e-06
6.77213e-07
-1.87996e-06
5.84203e-07
-2.02982e-06
4.54089e-07
-2.11801e-06
2.96888e-07
-2.14098e-06
1.22274e-07
-2.09718e-06
-6.14498e-08
-1.98671e-06
-2.47162e-07
-1.81168e-06
-4.27212e-07
-1.57741e-06
-5.92487e-07
-1.29336e-06
-7.31595e-07
-9.74268e-07
-8.2828e-07
-6.42262e-07
-8.57927e-07
-3.32625e-07
-7.80535e-07
-9.81184e-08
-5.44196e-07
-1.83496e-07
-1.39464e-07
5.00427e-07
-4.58391e-07
9.47176e-07
-8.55377e-07
1.08167e-06
-1.25428e-06
1.12065e-06
-1.61738e-06
1.08714e-06
-1.92647e-06
9.86303e-07
-2.17173e-06
8.29466e-07
-2.34747e-06
6.29828e-07
-2.45002e-06
3.99431e-07
-2.47698e-06
1.49234e-07
-2.42739e-06
-1.11038e-07
-2.30197e-06
-3.72581e-07
-2.10331e-06
-6.25873e-07
-1.83678e-06
-8.59017e-07
-1.51198e-06
-1.05639e-06
-1.14465e-06
-1.19561e-06
-7.59612e-07
-1.24297e-06
-3.97092e-07
-1.14305e-06
-1.18251e-07
-8.23038e-07
-3.01747e-07
-1.34422e-07
6.34849e-07
-4.75183e-07
1.28794e-06
-9.22121e-07
1.5286e-06
-1.38244e-06
1.58096e-06
-1.8052e-06
1.50991e-06
-2.16528e-06
1.34638e-06
-2.45022e-06
1.1144e-06
-2.65399e-06
8.33597e-07
-2.77368e-06
5.19122e-07
-2.80798e-06
1.83536e-07
-2.75654e-06
-1.62481e-07
-2.62011e-06
-5.09009e-07
-2.40104e-06
-8.44939e-07
-2.10433e-06
-1.15573e-06
-1.73938e-06
-1.42134e-06
-1.32269e-06
-1.61231e-06
-8.81993e-07
-1.68366e-06
-4.63168e-07
-1.56188e-06
-1.38634e-07
-1.14757e-06
-4.40381e-07
-1.42738e-07
7.77587e-07
-5.18902e-07
1.6641e-06
-1.0229e-06
2.0326e-06
-1.5476e-06
2.10566e-06
-2.0313e-06
1.99361e-06
-2.44301e-06
1.7581e-06
-2.7681e-06
1.43949e-06
-3.00051e-06
1.066e-06
-3.1383e-06
6.56915e-07
-3.18121e-06
2.26441e-07
-3.12938e-06
-2.14311e-07
-2.98326e-06
-6.55125e-07
-2.74429e-06
-1.08391e-06
-2.41616e-06
-1.48387e-06
-2.00721e-06
-1.83028e-06
-1.53413e-06
-2.08539e-06
-1.02782e-06
-2.18996e-06
-5.41475e-07
-2.04823e-06
-1.62343e-07
-1.5267e-06
-6.02724e-07
-1.65431e-07
9.43018e-07
-5.97639e-07
2.09631e-06
-1.17476e-06
2.60973e-06
-1.77402e-06
2.70492e-06
-2.32385e-06
2.54343e-06
-2.78897e-06
2.22321e-06
-3.15415e-06
1.80468e-06
-3.41449e-06
1.32634e-06
-3.56991e-06
8.1234e-07
-3.62155e-06
2.78076e-07
-3.57006e-06
-2.65806e-07
-3.41515e-06
-8.10027e-07
-3.15649e-06
-1.34257e-06
-2.79525e-06
-1.84511e-06
-2.33731e-06
-2.28821e-06
-1.79848e-06
-2.62423e-06
-1.21241e-06
-2.77604e-06
-6.41693e-07
-2.61894e-06
-1.92428e-07
-1.97597e-06
-7.95151e-07
-2.03502e-07
1.14652e-06
-7.17344e-07
2.61015e-06
-1.3898e-06
3.28219e-06
-2.07803e-06
3.39315e-06
-2.70077e-06
3.16617e-06
-3.22047e-06
2.74291e-06
-3.62386e-06
2.20808e-06
-3.90934e-06
1.61181e-06
-4.08018e-06
9.83177e-07
-4.13974e-06
3.37639e-07
-4.08937e-06
-3.16182e-07
-3.92767e-06
-9.71719e-07
-3.65144e-06
-1.6188e-06
-3.25764e-06
-2.23891e-06
-2.74761e-06
-2.79825e-06
-2.13407e-06
-3.23776e-06
-1.45206e-06
-3.45805e-06
-7.75302e-07
-3.2957e-06
-2.33992e-07
-2.51728e-06
-1.02914e-06
-2.59768e-07
1.40629e-06
-8.86735e-07
3.23712e-06
-1.68141e-06
4.07686e-06
-2.47432e-06
4.18605e-06
-3.17498e-06
3.86684e-06
-3.74676e-06
3.31469e-06
-4.18204e-06
2.64336e-06
-4.48589e-06
1.91566e-06
-4.66705e-06
1.16434e-06
-4.73252e-06
4.03107e-07
-4.6847e-06
-3.63998e-07
-4.52078e-06
-1.13565e-06
-4.23333e-06
-1.90625e-06
-3.81281e-06
-2.65943e-06
-3.25274e-06
-3.35833e-06
-2.55908e-06
-3.93141e-06
-1.76529e-06
-4.25184e-06
-9.56082e-07
-4.10491e-06
-2.93112e-07
-3.18025e-06
-1.32225e-06
-3.40716e-07
1.747e-06
-1.12009e-06
4.01649e-06
-2.06679e-06
5.02356e-06
-2.97703e-06
5.09629e-06
-3.75342e-06
4.64322e-06
-4.36603e-06
3.92731e-06
-4.81848e-06
3.09581e-06
-5.12724e-06
2.22442e-06
-5.30942e-06
1.34652e-06
-5.37724e-06
4.7092e-07
-5.33479e-06
-4.06446e-07
-5.17744e-06
-1.293e-06
-4.8921e-06
-2.19158e-06
-4.45979e-06
-3.09174e-06
-3.86165e-06
-3.95647e-06
-3.09082e-06
-4.70224e-06
-2.17333e-06
-5.16934e-06
-1.20173e-06
-5.07651e-06
-3.7721e-07
-4.00476e-06
-1.69946e-06
-4.57787e-07
2.20479e-06
-1.43849e-06
4.99719e-06
-2.56568e-06
6.15075e-06
-3.59494e-06
6.12554e-06
-4.42919e-06
5.47748e-06
-5.05556e-06
4.55368e-06
-5.49733e-06
3.53758e-06
-5.78795e-06
2.51504e-06
-5.95622e-06
1.5148e-06
-6.02097e-06
5.35673e-07
-5.98849e-06
-4.38929e-07
-5.85203e-06
-1.42946e-06
-5.59167e-06
-2.45194e-06
-5.17612e-06
-3.50729e-06
-4.56863e-06
-4.56396e-06
-3.74063e-06
-5.53024e-06
-2.69947e-06
-6.21049e-06
-1.53702e-06
-6.23896e-06
-4.99345e-07
-5.04244e-06
-2.19881e-06
-6.29249e-07
2.83404e-06
-1.86958e-06
6.23752e-06
-3.19399e-06
7.47517e-06
-4.3187e-06
7.25025e-06
-5.16455e-06
6.32333e-06
-5.75248e-06
5.14161e-06
-6.13688e-06
3.92198e-06
-6.37322e-06
2.75137e-06
-6.50465e-06
1.64623e-06
-6.55757e-06
5.8859e-07
-6.54101e-06
-4.55487e-07
-6.44627e-06
-1.5242e-06
-6.2462e-06
-2.65202e-06
-5.89532e-06
-3.85817e-06
-5.33351e-06
-5.12577e-06
-4.49915e-06
-6.3646e-06
-3.36233e-06
-7.34731e-06
-1.99417e-06
-7.60712e-06
-6.8138e-07
-6.35523e-06
-2.88019e-06
-8.83874e-07
3.71792e-06
-2.44367e-06
7.79732e-06
-3.94616e-06
8.97766e-06
-5.09174e-06
8.39584e-06
-5.85502e-06
7.0866e-06
-6.31493e-06
5.60152e-06
-6.56932e-06
4.17637e-06
-6.69964e-06
2.88169e-06
-6.76301e-06
1.70961e-06
-6.79206e-06
6.17633e-07
-6.79809e-06
-4.49453e-07
-6.77164e-06
-1.55065e-06
-6.68042e-06
-2.74323e-06
-6.46605e-06
-4.07254e-06
-6.04229e-06
-5.54953e-06
-5.30257e-06
-7.10432e-06
-4.15346e-06
-8.49642e-06
-2.60561e-06
-9.15497e-06
-9.55651e-07
-8.00519e-06
-3.83584e-06
-1.2645e-06
4.98242e-06
-3.17442e-06
9.70723e-06
-4.74739e-06
1.05506e-05
-5.74449e-06
9.39294e-06
-6.25698e-06
7.59909e-06
-6.45222e-06
5.79677e-06
-6.47739e-06
4.20153e-06
-6.43611e-06
2.84041e-06
-6.39306e-06
1.66656e-06
-6.38305e-06
6.07624e-07
-6.4181e-06
-4.14406e-07
-6.48969e-06
-1.47906e-06
-6.56579e-06
-2.66713e-06
-6.58268e-06
-4.05564e-06
-6.43365e-06
-5.69857e-06
-5.96219e-06
-7.57578e-06
-4.98271e-06
-9.47591e-06
-3.37829e-06
-1.07594e-05
-1.36677e-06
-1.00167e-05
-5.20261e-06
-1.81507e-06
6.79748e-06
-3.9873e-06
1.18795e-05
-5.33464e-06
1.1898e-05
-5.86068e-06
9.91898e-06
-5.8614e-06
7.59981e-06
-5.60959e-06
5.54495e-06
-5.2897e-06
3.88164e-06
-5.00926e-06
2.55998e-06
-4.82399e-06
1.48129e-06
-4.7602e-06
5.43841e-07
-4.82713e-06
-3.47475e-07
-5.0206e-06
-1.2856e-06
-5.31903e-06
-2.3687e-06
-5.67067e-06
-3.704e-06
-5.97015e-06
-5.39908e-06
-6.02777e-06
-7.51816e-06
-5.55286e-06
-9.95082e-06
-4.2112e-06
-1.2101e-05
-1.95106e-06
-1.22768e-05
-7.15368e-06
-2.5028e-06
9.30029e-06
-4.50498e-06
1.38816e-05
-4.98717e-06
1.23802e-05
-4.52022e-06
9.45203e-06
-3.67399e-06
6.75358e-06
-2.78984e-06
4.6608e-06
-2.03471e-06
3.12651e-06
-1.47539e-06
2.00066e-06
-1.13163e-06
1.13753e-06
-1.00671e-06
4.18922e-07
-1.10172e-06
-2.52465e-07
-1.42011e-06
-9.67214e-07
-1.96448e-06
-1.82433e-06
-2.72259e-06
-2.94589e-06
-3.63522e-06
-4.48645e-06
-4.53906e-06
-6.61432e-06
-5.08521e-06
-9.40467e-06
-4.66733e-06
-1.25189e-05
-2.64176e-06
-1.43024e-05
-9.79543e-06
-2.94125e-06
1.22415e-05
-3.47607e-06
1.44165e-05
-1.95162e-06
1.08557e-05
1.4796e-07
7.35246e-06
2.10335e-06
4.79819e-06
3.67935e-06
3.08479e-06
4.84364e-06
1.96221e-06
5.63433e-06
1.20997e-06
6.09916e-06
6.72704e-07
6.27147e-06
2.46611e-07
6.1624e-06
-1.43397e-07
5.75878e-06
-5.63591e-07
5.02381e-06
-1.08936e-06
3.90317e-06
-1.82525e-06
2.34718e-06
-2.93046e-06
3.72547e-07
-4.63969e-06
-1.79322e-06
-7.2389e-06
-3.42173e-06
-1.08904e-05
-2.97749e-06
-1.47467e-05
-1.27729e-05
-1.1259e-06
1.33674e-05
2.77256e-06
1.0518e-05
7.58212e-06
6.04615e-06
1.14793e-05
3.45531e-06
1.42802e-05
1.99723e-06
1.61972e-05
1.16779e-06
1.74679e-05
6.91591e-07
1.8272e-05
4.05815e-07
1.87261e-05
2.18581e-07
1.8894e-05
7.87764e-08
1.87966e-05
-4.5974e-08
1.84155e-05
-1.82497e-07
1.7688e-05
-3.61889e-07
1.64959e-05
-6.33168e-07
1.46525e-05
-1.08703e-06
1.19038e-05
-1.89099e-06
8.01731e-06
-3.35245e-06
3.16039e-06
-6.0335e-06
-8.89491e-07
-1.06968e-05
-1.36624e-05
1.33674e-05
2.38854e-05
2.99316e-05
3.33869e-05
3.53841e-05
3.65519e-05
3.72435e-05
3.76493e-05
3.78679e-05
3.79467e-05
3.79007e-05
3.77182e-05
3.73563e-05
3.67232e-05
3.56361e-05
3.37451e-05
3.03927e-05
2.43592e-05
1.36624e-05
)
;

boundaryField
{
    movingWall
    {
        type            calculated;
        value           uniform 0;
    }
    fixedWalls
    {
        type            calculated;
        value           uniform 0;
    }
    frontAndBack
    {
        type            empty;
        value           nonuniform List<scalar> 0();
    }
}


// ************************************************************************* //
