/*--------------------------------*- C++ -*----------------------------------*\
  =========                 |
  \\      /  F ield         | OpenFOAM: The Open Source CFD Toolbox
   \\    /   O peration     | Website:  https://openfoam.org
    \\  /    A nd           | Version:  8
     \\/     M anipulation  |
\*---------------------------------------------------------------------------*/
FoamFile
{
    version     2.0;
    format      ascii;
    class       volVectorField;
    location    "0.01";
    object      U;
}
// * * * * * * * * * * * * * * * * * * * * * * * * * * * * * * * * * * * * * //

dimensions      [0 1 -1 0 0 0 0];

internalField   nonuniform List<vector> 
400
(
(0.0002133 -0.000317516 0)
(0.000339996 -0.000755085 0)
(0.000737254 -0.00081808 0)
(0.000617227 -0.000299907 0)
(-0.000139738 0.000193284 0)
(-0.00144447 0.000471003 0)
(-0.00293908 0.000578847 0)
(-0.00435974 0.000566968 0)
(-0.00554167 0.000478857 0)
(-0.00639967 0.000355241 0)
(-0.00688132 0.000214082 0)
(-0.00695442 6.06983e-05 0)
(-0.00663435 -8.82668e-05 0)
(-0.00594835 -0.000228801 0)
(-0.00492015 -0.000362214 0)
(-0.00361306 -0.000460581 0)
(-0.00214882 -0.00047316 0)
(-0.000728262 -0.000345921 0)
(0.00014916 -3.82138e-05 0)
(0.000278923 0.000274507 0)
(-0.000907583 9.91854e-05 0)
(-0.00236184 0.00023741 0)
(-0.0045803 0.00016919 0)
(-0.00706422 0.00114836 0)
(-0.00971956 0.00210984 0)
(-0.0126742 0.00258587 0)
(-0.0155492 0.0026052 0)
(-0.0180515 0.00228916 0)
(-0.0199828 0.00175862 0)
(-0.0211801 0.00110498 0)
(-0.021544 0.000390562 0)
(-0.0210665 -0.000348804 0)
(-0.0197617 -0.00107312 0)
(-0.0176469 -0.00174184 0)
(-0.0148124 -0.0023133 0)
(-0.0114285 -0.00270973 0)
(-0.00772391 -0.00279529 0)
(-0.00408131 -0.0023635 0)
(-0.00125582 -0.00118729 0)
(-6.7926e-05 0.00016554 0)
(-0.00168007 0.00249958 0)
(-0.00513819 0.00386506 0)
(-0.0102301 0.00384408 0)
(-0.0152619 0.00490126 0)
(-0.0199087 0.00582895 0)
(-0.0242283 0.00608874 0)
(-0.0279952 0.00566878 0)
(-0.0310126 0.00469493 0)
(-0.0331242 0.00334063 0)
(-0.0342148 0.00175956 0)
(-0.0341823 4.91921e-05 0)
(-0.033005 -0.00170474 0)
(-0.0307296 -0.00340761 0)
(-0.0274072 -0.00497178 0)
(-0.0231378 -0.0062933 0)
(-0.0181204 -0.00720205 0)
(-0.0126711 -0.00742767 0)
(-0.00725751 -0.00656138 0)
(-0.00279581 -0.00406829 0)
(-0.000478429 -0.000845962 0)
(-0.00151944 0.00564263 0)
(-0.00561554 0.00937562 0)
(-0.0122456 0.00994193 0)
(-0.0191918 0.010749 0)
(-0.0255203 0.0111533 0)
(-0.0311103 0.0107195 0)
(-0.03578 0.00943985 0)
(-0.0393796 0.00747171 0)
(-0.0417815 0.00500234 0)
(-0.0429028 0.00221422 0)
(-0.0426885 -0.000742195 0)
(-0.0411319 -0.00374649 0)
(-0.0382672 -0.00666604 0)
(-0.0341537 -0.00934169 0)
(-0.0289222 -0.0115844 0)
(-0.0228021 -0.013131 0)
(-0.0161571 -0.0135761 0)
(-0.00947891 -0.0122609 0)
(-0.00380084 -0.00832561 0)
(-0.000695477 -0.00258687 0)
(-0.00119585 0.00864159 0)
(-0.00537772 0.0156755 0)
(-0.0129093 0.0174474 0)
(-0.0212253 0.018148 0)
(-0.0289341 0.0178489 0)
(-0.0357114 0.0164151 0)
(-0.041297 0.0139669 0)
(-0.0455362 0.0107218 0)
(-0.0483331 0.00689736 0)
(-0.0496317 0.00269367 0)
(-0.0493965 -0.00170794 0)
(-0.047633 -0.00614215 0)
(-0.04438 -0.0104334 0)
(-0.0397024 -0.0143724 0)
(-0.033735 -0.0176928 0)
(-0.0267188 -0.0200144 0)
(-0.01905 -0.0207636 0)
(-0.0112739 -0.018994 0)
(-0.00457481 -0.013478 0)
(-0.000854042 -0.0047686 0)
(-0.00101274 0.0113573 0)
(-0.00534264 0.0222474 0)
(-0.0136424 0.0258864 0)
(-0.0231451 0.0267545 0)
(-0.0321247 0.0257111 0)
(-0.0400342 0.0230975 0)
(-0.0465285 0.019256 0)
(-0.0514407 0.0145021 0)
(-0.0546866 0.0090996 0)
(-0.0562255 0.00328374 0)
(-0.0560417 -0.00273727 0)
(-0.0541508 -0.00877302 0)
(-0.0505847 -0.0146166 0)
(-0.0453993 -0.0200033 0)
(-0.0387256 -0.0245787 0)
(-0.0308116 -0.0278323 0)
(-0.0220751 -0.0289895 0)
(-0.0131337 -0.0267742 0)
(-0.00535651 -0.019494 0)
(-0.00101716 -0.00733189 0)
(-0.000991435 0.0140709 0)
(-0.00573692 0.0293328 0)
(-0.0150072 0.0353326 0)
(-0.0257934 0.0365566 0)
(-0.0360748 0.0347407 0)
(-0.0451285 0.0307927 0)
(-0.0525398 0.0253413 0)
(-0.058136 0.0188541 0)
(-0.0618484 0.0116675 0)
(-0.0636498 0.00405041 0)
(-0.0635436 -0.00377307 0)
(-0.0615545 -0.0115964 0)
(-0.0576994 -0.0191881 0)
(-0.0520063 -0.0262362 0)
(-0.0445806 -0.0322934 0)
(-0.0356601 -0.036692 0)
(-0.0256771 -0.0384016 0)
(-0.0153439 -0.035753 0)
(-0.00627573 -0.0264623 0)
(-0.0012049 -0.0103144 0)
(-0.00112939 0.017086 0)
(-0.0066308 0.0373043 0)
(-0.0172614 0.046039 0)
(-0.0295949 0.0477193 0)
(-0.0413175 0.0450339 0)
(-0.0515787 0.0395476 0)
(-0.059921 0.0322464 0)
(-0.0661876 0.0237904 0)
(-0.0703494 0.0146108 0)
(-0.0724094 0.00500629 0)
(-0.0723928 -0.00480081 0)
(-0.0703251 -0.0146079 0)
(-0.0661972 -0.0241685 0)
(-0.0599893 -0.033129 0)
(-0.0517519 -0.0409471 0)
(-0.0416809 -0.0467723 0)
(-0.0302149 -0.0492576 0)
(-0.0181569 -0.0462388 0)
(-0.00745816 -0.0346625 0)
(-0.00143963 -0.0138288 0)
(-0.00142714 0.0207019 0)
(-0.00808172 0.0466321 0)
(-0.0205851 0.0584176 0)
(-0.0348422 0.0605239 0)
(-0.0482073 0.0567371 0)
(-0.0597458 0.0494072 0)
(-0.0690053 0.0399588 0)
(-0.0758859 0.0292746 0)
(-0.0804366 0.0178912 0)
(-0.082722 0.00612424 0)
(-0.0828004 -0.00582717 0)
(-0.0806888 -0.0177965 0)
(-0.0763333 -0.0295492 0)
(-0.0696437 -0.0407066 0)
(-0.0605786 -0.0506325 0)
(-0.0492435 -0.0582673 0)
(-0.036049 -0.0618717 0)
(-0.0218665 -0.0586203 0)
(-0.00907084 -0.0444774 0)
(-0.00177417 -0.0180456 0)
(-0.00190271 0.0252525 0)
(-0.010201 0.057897 0)
(-0.0252036 0.0729782 0)
(-0.0418327 0.0752879 0)
(-0.0570386 0.0699761 0)
(-0.0698584 0.060358 0)
(-0.079931 0.0483931 0)
(-0.0872827 0.0352089 0)
(-0.0920926 0.0214369 0)
(-0.0945278 0.0073797 0)
(-0.094698 -0.00682372 0)
(-0.0926097 -0.0210845 0)
(-0.0881424 -0.0352294 0)
(-0.0811016 -0.0488917 0)
(-0.0713025 -0.0613546 0)
(-0.0586899 -0.0713193 0)
(-0.0435633 -0.0765557 0)
(-0.0268197 -0.0733493 0)
(-0.0113173 -0.0563754 0)
(-0.00227391 -0.0232343 0)
(-0.00262122 0.0311575 0)
(-0.0132087 0.0717988 0)
(-0.0314552 0.0902838 0)
(-0.0509051 0.0922968 0)
(-0.0680391 0.0847896 0)
(-0.0819701 0.0722794 0)
(-0.0925682 0.0573607 0)
(-0.100094 0.041418 0)
(-0.104926 0.0251322 0)
(-0.10738 0.00874328 0)
(-0.107634 -0.00773252 0)
(-0.105688 -0.0243381 0)
(-0.101339 -0.0410245 0)
(-0.0942459 -0.0575008 0)
(-0.0840071 -0.0730098 0)
(-0.0702999 -0.0859983 0)
(-0.053169 -0.0936276 0)
(-0.0334304 -0.091015 0)
(-0.0144691 -0.0710458 0)
(-0.00301763 -0.0298187 0)
(-0.0037203 0.0390006 0)
(-0.0174732 0.089197 0)
(-0.0397984 0.110923 0)
(-0.0623744 0.111727 0)
(-0.0812322 0.101028 0)
(-0.095777 0.0848435 0)
(-0.106313 0.0664769 0)
(-0.113488 0.0475587 0)
(-0.117957 0.0287343 0)
(-0.120223 0.0101099 0)
(-0.120552 -0.00850077 0)
(-0.118935 -0.0273537 0)
(-0.115083 -0.0466113 0)
(-0.108474 -0.0661491 0)
(-0.0984053 -0.085252 0)
(-0.084137 -0.102143 0)
(-0.0652459 -0.113272 0)
(-0.0422268 -0.112261 0)
(-0.018954 -0.0894437 0)
(-0.00415725 -0.0384198 0)
(-0.00543333 0.0496589 0)
(-0.0235453 0.111175 0)
(-0.0507484 0.135422 0)
(-0.0763344 0.13346 0)
(-0.0961318 0.118135 0)
(-0.110248 0.0973091 0)
(-0.119696 0.0750121 0)
(-0.125674 0.0530339 0)
(-0.129189 0.0318579 0)
(-0.130949 0.0113279 0)
(-0.131319 -0.00903263 0)
(-0.130293 -0.0297857 0)
(-0.127503 -0.0514129 0)
(-0.122231 -0.0740855 0)
(-0.113402 -0.0972731 0)
(-0.0996915 -0.119094 0)
(-0.0799176 -0.135278 0)
(-0.053809 -0.137581 0)
(-0.0254098 -0.11272 0)
(-0.00596557 -0.0499952 0)
(-0.00813855 0.064502 0)
(-0.0321894 0.139012 0)
(-0.0646626 0.163931 0)
(-0.0921787 0.156671 0)
(-0.111084 0.134798 0)
(-0.122864 0.108302 0)
(-0.129575 0.0817961 0)
(-0.133101 0.0569622 0)
(-0.134841 0.0339558 0)
(-0.13567 0.0122016 0)
(-0.136021 -0.00917542 0)
(-0.135907 -0.0311346 0)
(-0.134925 -0.05458 0)
(-0.132198 -0.0801276 0)
(-0.126275 -0.107651 0)
(-0.11513 -0.135439 0)
(-0.0964719 -0.158692 0)
(-0.0685295 -0.16703 0)
(-0.0346846 -0.142191 0)
(-0.00886785 -0.0660664 0)
(-0.0124408 0.0856349 0)
(-0.0442954 0.173849 0)
(-0.0810553 0.1955 0)
(-0.107411 0.179155 0)
(-0.121839 0.148518 0)
(-0.12816 0.115575 0)
(-0.129793 0.0850851 0)
(-0.129254 0.0581581 0)
(-0.128195 0.0343244 0)
(-0.127569 0.0124547 0)
(-0.127815 -0.00879243 0)
(-0.128963 -0.0308204 0)
(-0.130644 -0.05502 0)
(-0.131955 -0.0825962 0)
(-0.131231 -0.114124 0)
(-0.125819 -0.148549 0)
(-0.112043 -0.181116 0)
(-0.0856571 -0.199474 0)
(-0.0476458 -0.179025 0)
(-0.0135021 -0.0889264 0)
(-0.0190806 0.116222 0)
(-0.0600752 0.215664 0)
(-0.0965816 0.226632 0)
(-0.114974 0.196253 0)
(-0.118889 0.155015 0)
(-0.115342 0.115872 0)
(-0.108987 0.0826247 0)
(-0.102641 0.0551981 0)
(-0.0978146 0.0321655 0)
(-0.0952564 0.0117617 0)
(-0.0952781 -0.00778948 0)
(-0.0979304 -0.0282662 0)
(-0.103003 -0.051506 0)
(-0.109839 -0.0793779 0)
(-0.11698 -0.113474 0)
(-0.121617 -0.154092 0)
(-0.118864 -0.197631 0)
(-0.101205 -0.231037 0)
(-0.0641207 -0.222972 0)
(-0.0205105 -0.121966 0)
(-0.027856 0.161352 0)
(-0.0759616 0.260975 0)
(-0.0998685 0.248603 0)
(-0.097819 0.19943 0)
(-0.0826471 0.147963 0)
(-0.0642869 0.105127 0)
(-0.0474397 0.0720673 0)
(-0.0341377 0.0468144 0)
(-0.0250749 0.0268441 0)
(-0.0203901 0.00986224 0)
(-0.0200815 -0.00614219 0)
(-0.0241969 -0.0230891 0)
(-0.0328387 -0.0430477 0)
(-0.0459938 -0.068421 0)
(-0.0631315 -0.101923 0)
(-0.0823491 -0.145872 0)
(-0.0988769 -0.19957 0)
(-0.102526 -0.252554 0)
(-0.0794575 -0.269907 0)
(-0.0291744 -0.170331 0)
(-0.0325396 0.225576 0)
(-0.0750009 0.295237 0)
(-0.059518 0.242613 0)
(-0.0185046 0.174969 0)
(0.0239886 0.119578 0)
(0.059696 0.0796207 0)
(0.0870043 0.051967 0)
(0.106339 0.0326163 0)
(0.118704 0.0183308 0)
(0.124974 0.00674657 0)
(0.125613 -0.00395813 0)
(0.120591 -0.0154379 0)
(0.109392 -0.0295363 0)
(0.0910719 -0.0486712 0)
(0.0644417 -0.0762356 0)
(0.0287947 -0.116599 0)
(-0.0144748 -0.173575 0)
(-0.0571881 -0.245006 0)
(-0.074797 -0.30405 0)
(-0.0318596 -0.237212 0)
(0.00563387 0.275595 0)
(0.00596103 0.27454 0)
(0.100822 0.183001 0)
(0.194568 0.113665 0)
(0.261901 0.0694717 0)
(0.307975 0.0423901 0)
(0.338976 0.0258976 0)
(0.359124 0.0155212 0)
(0.371339 0.00848644 0)
(0.377388 0.0031154 0)
(0.378086 -0.00171891 0)
(0.373451 -0.00697398 0)
(0.362709 -0.013758 0)
(0.344101 -0.0237248 0)
(0.314608 -0.0396655 0)
(0.269819 -0.0662596 0)
(0.20328 -0.110841 0)
(0.109234 -0.182635 0)
(0.0134214 -0.279057 0)
(0.0123867 -0.283476 0)
(0.297983 0.144964 0)
(0.389214 0.122816 0)
(0.537077 0.0704541 0)
(0.638023 0.0384333 0)
(0.691827 0.0210567 0)
(0.721748 0.0116953 0)
(0.739386 0.00661682 0)
(0.749861 0.00374743 0)
(0.755837 0.0019839 0)
(0.758694 0.000745243 0)
(0.759014 -0.000318913 0)
(0.756821 -0.00148799 0)
(0.751596 -0.00307952 0)
(0.742072 -0.0056116 0)
(0.725712 -0.0101032 0)
(0.697481 -0.0185602 0)
(0.646157 -0.0349104 0)
(0.547595 -0.0665403 0)
(0.39866 -0.120648 0)
(0.304072 -0.145745 0)
)
;

boundaryField
{
    movingWall
    {
        type            fixedValue;
        value           uniform (1 0 0);
    }
    fixedWalls
    {
        type            noSlip;
    }
    frontAndBack
    {
        type            empty;
    }
}


// ************************************************************************* //
