/*--------------------------------*- C++ -*----------------------------------*\
  =========                 |
  \\      /  F ield         | OpenFOAM: The Open Source CFD Toolbox
   \\    /   O peration     | Website:  https://openfoam.org
    \\  /    A nd           | Version:  8
     \\/     M anipulation  |
\*---------------------------------------------------------------------------*/
FoamFile
{
    version     2.0;
    format      ascii;
    class       volScalarField;
    location    "0.03";
    object      p;
}
// * * * * * * * * * * * * * * * * * * * * * * * * * * * * * * * * * * * * * //

dimensions      [0 2 -2 0 0 0 0];

internalField   nonuniform List<scalar> 
400
(
4.68515e-08
-0.00451477
-0.00950473
-0.0126131
-0.0126001
-0.00899983
-0.00189595
0.00825843
0.0207742
0.0348139
0.049446
0.0636865
0.0765485
0.0871042
0.0945673
0.0984092
0.0985178
0.0953937
0.0903634
0.0859223
0.00444728
-0.000267823
-0.00414362
-0.00606823
-0.00546768
-0.00199791
0.00430341
0.0131017
0.0238546
0.0358804
0.048406
0.0606063
0.0716582
0.0808051
0.0874268
0.091127
0.0918484
0.0899584
0.0861089
0.0815353
0.00973202
0.00319514
-0.00107873
-0.00282917
-0.0021152
0.00123728
0.00714748
0.015296
0.0252019
0.0362633
0.0477909
0.0590428
0.0692769
0.0778101
0.0840738
0.0876789
0.0885174
0.0867857
0.0825202
0.076123
0.0138514
0.00490521
-0.000496506
-0.00260781
-0.00200744
0.00131155
0.00719115
0.0152737
0.0250772
0.0360213
0.0474442
0.0586306
0.0688564
0.0774383
0.083776
0.087409
0.0881284
0.0859718
0.0804901
0.0716111
0.0156743
0.00419079
-0.00254931
-0.00516168
-0.00466307
-0.00119508
0.00499044
0.0134722
0.0237389
0.035199
0.0471838
0.0589699
0.0698142
0.0789877
0.0858075
0.0896982
0.090329
0.0875909
0.0806245
0.0690573
0.0144088
0.000246711
-0.00793368
-0.0110337
-0.0104887
-0.00658779
0.000313698
0.00971018
0.0210352
0.0336623
0.0468948
0.0599772
0.0721154
0.0824953
0.0903093
0.0948295
0.0955757
0.0922779
0.0836764
0.0691758
0.00932294
-0.00777976
-0.0174712
-0.0209414
-0.020082
-0.0153522
-0.00723247
0.0036654
0.0167008
0.0311979
0.0464204
0.0615641
0.07576
0.0880783
0.09755
0.10325
0.104497
0.100805
0.090449
0.0726066
-0.000444252
-0.0208891
-0.0321331
-0.0357353
-0.0341552
-0.0280727
-0.0181274
-0.00506054
0.0103998
0.0275241
0.0455351
0.063578
0.0807003
0.0958384
0.107828
0.115487
0.117844
0.114102
0.101912
0.0801389
-0.0160517
-0.0403666
-0.0531418
-0.0564705
-0.0535792
-0.0454559
-0.0329469
-0.0169475
0.0017217
0.0222836
0.0439367
0.0657943
0.0868347
0.10586
0.121479
0.132173
0.136569
0.133394
0.119396
0.092944
-0.039133
-0.0679362
-0.0820686
-0.0844491
-0.0793861
-0.0683056
-0.0523248
-0.0325158
-0.00978462
0.0150706
0.041262
0.0679184
0.0939936
0.118182
0.138849
0.15406
0.161886
0.160344
0.144819
0.112832
-0.0720376
-0.105964
-0.120953
-0.121252
-0.112736
-0.0974514
-0.0768597
-0.0522262
-0.0245141
0.00551056
0.0371434
0.0696113
0.101932
0.132763
0.160254
0.181989
0.195316
0.197199
0.180946
0.14257
-0.118229
-0.157761
-0.172437
-0.168728
-0.15481
-0.133588
-0.106933
-0.0762955
-0.0426359
-0.00659621
0.0313141
0.07055
0.110338
0.149447
0.185908
0.216837
0.238697
0.246948
0.231748
0.186426
-0.183006
-0.228029
-0.239883
-0.228877
-0.206561
-0.17697
-0.142399
-0.104409
-0.0638382
-0.0210586
0.0237804
0.0705484
0.118898
0.167949
0.215857
0.259419
0.294154
0.31351
0.302982
0.251143
-0.274966
-0.323558
-0.327376
-0.303487
-0.268214
-0.226897
-0.182113
-0.135317
-0.0869912
-0.0370111
0.0150566
0.0697364
0.127393
0.187861
0.249853
0.31027
0.363911
0.401865
0.403096
0.347837
-0.409044
-0.454231
-0.439336
-0.393238
-0.338315
-0.280887
-0.223288
-0.16636
-0.109802
-0.052663
0.00635083
0.0686881
0.135756
0.20857
0.287081
0.369157
0.449725
0.51786
0.544425
0.495633
-0.611984
-0.634015
-0.579397
-0.496212
-0.41242
-0.333733
-0.26092
-0.193182
-0.128728
-0.0653227
-0.000514848
0.0683167
0.143931
0.229045
0.32575
0.434366
0.551889
0.667304
0.744058
0.72731
-0.932355
-0.880935
-0.748357
-0.606563
-0.482412
-0.377353
-0.288077
-0.210292
-0.139645
-0.072077
-0.00372813
0.0693441
0.151455
0.247488
0.362767
0.502234
0.668246
0.854079
1.02354
1.09856
-1.48016
-1.21575
-0.934113
-0.707395
-0.532742
-0.39937
-0.29589
-0.211804
-0.138932
-0.0710286
-0.00283622
0.0707663
0.155557
0.258791
0.390081
0.561715
0.786069
1.07025
1.40989
1.72992
-2.55065
-1.64607
-1.06474
-0.734194
-0.518737
-0.371472
-0.267559
-0.18852
-0.122368
-0.0614409
-3.02741e-05
0.0671768
0.146416
0.24635
0.380486
0.570002
0.843787
1.24932
1.91974
2.92641
-4.38209
-2.06461
-0.999672
-0.593947
-0.389626
-0.268819
-0.192086
-0.136501
-0.0896606
-0.0450916
0.00133286
0.0533223
0.115459
0.194994
0.305317
0.472169
0.743555
1.24523
2.42438
4.85604
)
;

boundaryField
{
    movingWall
    {
        type            zeroGradient;
    }
    fixedWalls
    {
        type            zeroGradient;
    }
    frontAndBack
    {
        type            empty;
    }
}


// ************************************************************************* //
