/*--------------------------------*- C++ -*----------------------------------*\
  =========                 |
  \\      /  F ield         | OpenFOAM: The Open Source CFD Toolbox
   \\    /   O peration     | Website:  https://openfoam.org
    \\  /    A nd           | Version:  8
     \\/     M anipulation  |
\*---------------------------------------------------------------------------*/
FoamFile
{
    version     2.0;
    format      ascii;
    class       volVectorField;
    location    "0.03";
    object      U;
}
// * * * * * * * * * * * * * * * * * * * * * * * * * * * * * * * * * * * * * //

dimensions      [0 1 -1 0 0 0 0];

internalField   nonuniform List<vector> 
400
(
(0.000174792 -0.000173128 0)
(6.67912e-06 0.000135172 0)
(-0.0011166 0.000486484 0)
(-0.0029663 0.000716342 0)
(-0.00520433 0.000816844 0)
(-0.00752743 0.000807647 0)
(-0.00968194 0.00071316 0)
(-0.0114725 0.000556736 0)
(-0.0127574 0.000357539 0)
(-0.0134424 0.000131923 0)
(-0.013476 -0.000105158 0)
(-0.0128486 -0.000338413 0)
(-0.0115948 -0.000550726 0)
(-0.00979996 -0.000721892 0)
(-0.00760836 -0.000827717 0)
(-0.00522942 -0.000841041 0)
(-0.00293813 -0.00073553 0)
(-0.00106103 -0.0004922 0)
(5.02995e-05 -0.000123978 0)
(0.00018979 0.000185695 0)
(-0.000118244 -2.74662e-05 0)
(-0.00144602 0.00145731 0)
(-0.00474439 0.00294789 0)
(-0.00943431 0.00393552 0)
(-0.0148472 0.00435516 0)
(-0.0203739 0.0042639 0)
(-0.02547 0.00375419 0)
(-0.0296952 0.00292643 0)
(-0.0327217 0.00187448 0)
(-0.0343272 0.000683629 0)
(-0.034392 -0.000565355 0)
(-0.0328972 -0.00178969 0)
(-0.0299301 -0.00289854 0)
(-0.0256948 -0.00378913 0)
(-0.0205248 -0.00434684 0)
(-0.0148882 -0.00445349 0)
(-0.00937212 -0.00400795 0)
(-0.00463183 -0.00296112 0)
(-0.00135694 -0.00140582 0)
(-8.66317e-05 7.66077e-05 0)
(-0.000476573 0.00106906 0)
(-0.00307367 0.00477806 0)
(-0.00848318 0.00811355 0)
(-0.0156673 0.0102892 0)
(-0.0236825 0.0111636 0)
(-0.0317232 0.0108359 0)
(-0.0390668 0.0095028 0)
(-0.0451203 0.00739032 0)
(-0.0494393 0.00472168 0)
(-0.0517234 0.00170757 0)
(-0.0518102 -0.00144853 0)
(-0.0496749 -0.00453779 0)
(-0.0454364 -0.00733408 0)
(-0.0393724 -0.00958715 0)
(-0.0319333 -0.0110267 0)
(-0.0237477 -0.0113859 0)
(-0.0155959 -0.0104513 0)
(-0.00834252 -0.00814268 0)
(-0.00295916 -0.00466669 0)
(-0.000435827 -0.000955042 0)
(-0.000770577 0.00301876 0)
(-0.00453658 0.0098901 0)
(-0.0119642 0.0155597 0)
(-0.0214992 0.0191227 0)
(-0.0318946 0.0204298 0)
(-0.0421655 0.0196643 0)
(-0.0514504 0.0171611 0)
(-0.0590528 0.0133059 0)
(-0.0644561 0.00848304 0)
(-0.0673124 0.00305847 0)
(-0.0674331 -0.00261229 0)
(-0.0647866 -0.00816487 0)
(-0.0595062 -0.0132058 0)
(-0.0519083 -0.0173021 0)
(-0.0425142 -0.0199894 0)
(-0.0320624 -0.0208122 0)
(-0.0214841 -0.0194058 0)
(-0.0118393 -0.0156193 0)
(-0.00441606 -0.00971624 0)
(-0.000725155 -0.00282883 0)
(-0.00102393 0.00570042 0)
(-0.00589445 0.0166542 0)
(-0.0153128 0.0251299 0)
(-0.0271814 0.0302313 0)
(-0.0399151 0.031895 0)
(-0.0523389 0.0304588 0)
(-0.0634642 0.0264465 0)
(-0.0725143 0.0204405 0)
(-0.0789267 0.0130116 0)
(-0.0823285 0.00469875 0)
(-0.0825155 -0.00397793 0)
(-0.0794454 -0.0124866 0)
(-0.0732476 -0.0202513 0)
(-0.0642498 -0.0266336 0)
(-0.0530116 -0.0309421 0)
(-0.0403547 -0.0324873 0)
(-0.0273526 -0.0306942 0)
(-0.0152818 -0.0252691 0)
(-0.00579796 -0.0164409 0)
(-0.000978011 -0.00543251 0)
(-0.00127332 0.00907789 0)
(-0.00727703 0.0250768 0)
(-0.0187711 0.0368792 0)
(-0.0330767 0.0436809 0)
(-0.0482313 0.0456058 0)
(-0.0628503 0.0432352 0)
(-0.0758218 0.0373521 0)
(-0.0863078 0.028782 0)
(-0.0937231 0.0183088 0)
(-0.0976879 0.00665539 0)
(-0.0979903 -0.00549166 0)
(-0.0945719 -0.0174333 0)
(-0.0875402 -0.0284065 0)
(-0.0772046 -0.0375499 0)
(-0.0641318 -0.0439077 0)
(-0.049204 -0.0464952 0)
(-0.0336374 -0.0444427 0)
(-0.0189572 -0.0372128 0)
(-0.00725144 -0.0248983 0)
(-0.00123439 -0.008749 0)
(-0.0015524 0.0131939 0)
(-0.00881545 0.0352808 0)
(-0.022599 0.050972 0)
(-0.0395556 0.0596284 0)
(-0.0572924 0.0616799 0)
(-0.0742004 0.0580649 0)
(-0.0890552 0.0499132 0)
(-0.100983 0.0383503 0)
(-0.109407 0.0244003 0)
(-0.113962 0.00897362 0)
(-0.114441 -0.00708745 0)
(-0.110763 -0.0229316 0)
(-0.102992 -0.0376163 0)
(-0.0913821 -0.0500461 0)
(-0.076465 -0.0589599 0)
(-0.0591498 -0.0629998 0)
(-0.0407861 -0.0608877 0)
(-0.0231783 -0.0517064 0)
(-0.00893333 -0.0352862 0)
(-0.00153301 -0.0128506 0)
(-0.00189265 0.0181655 0)
(-0.0106373 0.0475102 0)
(-0.0270412 0.0676787 0)
(-0.0469422 0.0782983 0)
(-0.0674454 0.080262 0)
(-0.0867127 0.075014 0)
(-0.103437 0.0641429 0)
(-0.116756 0.0491408 0)
(-0.126145 0.0312959 0)
(-0.131293 0.0116982 0)
(-0.132015 -0.00868155 0)
(-0.128204 -0.0288738 0)
(-0.119851 -0.0477822 0)
(-0.107107 -0.0640787 0)
(-0.0904067 -0.0761573 0)
(-0.0706246 -0.0821934 0)
(-0.0492077 -0.08035 0)
(-0.0282553 -0.0691403 0)
(-0.011004 -0.0479528 0)
(-0.00191346 -0.0178984 0)
(-0.00232644 0.0241787 0)
(-0.012867 0.0621225 0)
(-0.0323158 0.0873549 0)
(-0.0554773 0.0999379 0)
(-0.0788692 0.101458 0)
(-0.100443 0.0940692 0)
(-0.118872 0.0799592 0)
(-0.133383 0.0610607 0)
(-0.143579 0.0389434 0)
(-0.149257 0.0148517 0)
(-0.150281 -0.0101667 0)
(-0.14652 -0.0350838 0)
(-0.137862 -0.0587025 0)
(-0.124289 -0.0794864 0)
(-0.106047 -0.0954566 0)
(-0.0838728 -0.104217 0)
(-0.0592258 -0.103178 0)
(-0.0344811 -0.0900133 0)
(-0.0136309 -0.0633916 0)
(-0.00241988 -0.024143 0)
(-0.00289426 0.0314919 0)
(-0.0156381 0.0795726 0)
(-0.0386094 0.110389 0)
(-0.0652788 0.12473 0)
(-0.0914923 0.125227 0)
(-0.115056 0.115022 0)
(-0.134742 0.0970769 0)
(-0.149991 0.073842 0)
(-0.160636 0.0471682 0)
(-0.166659 0.0184034 0)
(-0.168017 -0.011409 0)
(-0.164566 -0.0412782 0)
(-0.156055 -0.0699962 0)
(-0.142222 -0.0958805 0)
(-0.123 -0.11658 0)
(-0.0988291 -0.129026 0)
(-0.0710148 -0.129638 0)
(-0.0421165 -0.114873 0)
(-0.016999 -0.0822299 0)
(-0.00310735 -0.0319348 0)
(-0.00365643 0.0404502 0)
(-0.0191145 0.100394 0)
(-0.0460723 0.13712 0)
(-0.0762807 0.152659 0)
(-0.104868 0.151218 0)
(-0.129648 0.137308 0)
(-0.149693 0.114871 0)
(-0.164833 0.086933 0)
(-0.175273 0.0555974 0)
(-0.181274 0.0222282 0)
(-0.182944 -0.0122542 0)
(-0.18014 -0.047031 0)
(-0.172455 -0.0810212 0)
(-0.159304 -0.112514 0)
(-0.140154 -0.138843 0)
(-0.114922 -0.156201 0)
(-0.0844867 -0.159747 0)
(-0.0513612 -0.144209 0)
(-0.0213296 -0.10521 0)
(-0.00405683 -0.0417441 0)
(-0.00471556 0.0515227 0)
(-0.0235228 0.125172 0)
(-0.0547972 0.167702 0)
(-0.0881165 0.183298 0)
(-0.117964 0.178544 0)
(-0.142475 0.159808 0)
(-0.161329 0.132211 0)
(-0.174985 0.0993775 0)
(-0.184178 0.0635764 0)
(-0.189546 0.0260547 0)
(-0.191409 -0.0125465 0)
(-0.189657 -0.0517537 0)
(-0.183727 -0.0908005 0)
(-0.172656 -0.128138 0)
(-0.155298 -0.160935 0)
(-0.130763 -0.184666 0)
(-0.099086 -0.19299 0)
(-0.0622823 -0.178257 0)
(-0.0269018 -0.133135 0)
(-0.00540016 -0.0542036 0)
(-0.00625722 0.0653799 0)
(-0.0291987 0.154483 0)
(-0.0647476 0.201867 0)
(-0.0998879 0.215486 0)
(-0.128816 0.205467 0)
(-0.150549 0.180588 0)
(-0.165817 0.147288 0)
(-0.17598 0.109704 0)
(-0.182444 0.0700998 0)
(-0.18629 0.0294186 0)
(-0.188091 -0.0121611 0)
(-0.187817 -0.0547039 0)
(-0.184788 -0.0979829 0)
(-0.177674 -0.140878 0)
(-0.164623 -0.180677 0)
(-0.14366 -0.212332 0)
(-0.113423 -0.227903 0)
(-0.0746475 -0.216657 0)
(-0.0340666 -0.16675 0)
(-0.00735748 -0.0701902 0)
(-0.00861961 0.0830377 0)
(-0.0366302 0.188758 0)
(-0.075547 0.238491 0)
(-0.109689 0.246829 0)
(-0.133913 0.228993 0)
(-0.149036 0.196653 0)
(-0.157379 0.157494 0)
(-0.161427 0.115887 0)
(-0.1633 0.0737999 0)
(-0.164499 0.0316431 0)
(-0.165837 -0.0110493 0)
(-0.167402 -0.055051 0)
(-0.1685 -0.100893 0)
(-0.167564 -0.148205 0)
(-0.162105 -0.194833 0)
(-0.148907 -0.235688 0)
(-0.124623 -0.261477 0)
(-0.0875482 -0.257859 0)
(-0.0432158 -0.206465 0)
(-0.0102958 -0.0909443 0)
(-0.0123725 0.106069 0)
(-0.0463756 0.227883 0)
(-0.085865 0.274832 0)
(-0.113613 0.273004 0)
(-0.127157 0.244456 0)
(-0.130397 0.203815 0)
(-0.127708 0.15948 0)
(-0.122703 0.115481 0)
(-0.11803 0.0730743 0)
(-0.115411 0.0318936 0)
(-0.11578 -0.00928773 0)
(-0.119359 -0.0520291 0)
(-0.125607 -0.0977522 0)
(-0.133021 -0.147134 0)
(-0.138831 -0.199142 0)
(-0.138778 -0.24949 0)
(-0.127197 -0.288413 0)
(-0.0985384 -0.298142 0)
(-0.0545199 -0.251722 0)
(-0.0147607 -0.118196 0)
(-0.018222 0.136944 0)
(-0.0583561 0.270237 0)
(-0.0916985 0.305147 0)
(-0.103676 0.286872 0)
(-0.0981163 0.245297 0)
(-0.0832454 0.19693 0)
(-0.0654376 0.149607 0)
(-0.0489169 0.106095 0)
(-0.0362871 0.0664493 0)
(-0.029045 0.0293678 0)
(-0.0279894 -0.00710091 0)
(-0.0334367 -0.0451893 0)
(-0.0452033 -0.0871403 0)
(-0.0623247 -0.134806 0)
(-0.0824938 -0.188812 0)
(-0.101254 -0.246836 0)
(-0.111092 -0.300426 0)
(-0.101666 -0.330127 0)
(-0.0668464 -0.299666 0)
(-0.0212211 -0.154334 0)
(-0.0260229 0.179899 0)
(-0.0691041 0.310337 0)
(-0.0819789 0.318091 0)
(-0.0637377 0.277338 0)
(-0.0293363 0.22325 0)
(0.00889531 0.170766 0)
(0.0440073 0.124966 0)
(0.0725251 0.086275 0)
(0.0929114 0.053218 0)
(0.104556 0.023646 0)
(0.107155 -0.00482253 0)
(0.100407 -0.0347075 0)
(0.0839793 -0.0686847 0)
(0.0577627 -0.10953 0)
(0.0225472 -0.1597 0)
(-0.0186773 -0.219933 0)
(-0.0586298 -0.285748 0)
(-0.0833623 -0.340512 0)
(-0.0745421 -0.342507 0)
(-0.0286914 -0.202923 0)
(-0.0299449 0.238859 0)
(-0.0631214 0.332275 0)
(-0.0285859 0.29324 0)
(0.0376482 0.229671 0)
(0.107079 0.170551 0)
(0.168271 0.122532 0)
(0.217515 0.0854783 0)
(0.25426 0.0570031 0)
(0.27921 0.0343925 0)
(0.293234 0.0151907 0)
(0.296806 -0.00281175 0)
(0.289782 -0.0217767 0)
(0.271321 -0.0440871 0)
(0.239975 -0.0726373 0)
(0.194121 -0.111021 0)
(0.133156 -0.163116 0)
(0.0598255 -0.230858 0)
(-0.0146523 -0.307959 0)
(-0.0591441 -0.360621 0)
(-0.0292433 -0.264692 0)
(0.00814851 0.282277 0)
(0.0190203 0.294146 0)
(0.135612 0.208397 0)
(0.256575 0.1394 0)
(0.35074 0.0922146 0)
(0.420371 0.0606064 0)
(0.470493 0.0394871 0)
(0.505118 0.0250303 0)
(0.527429 0.0145523 0)
(0.539599 0.00621625 0)
(0.542732 -0.0013389 0)
(0.536887 -0.00932292 0)
(0.521039 -0.0191012 0)
(0.492907 -0.032585 0)
(0.448803 -0.0527932 0)
(0.383645 -0.08455 0)
(0.290719 -0.134959 0)
(0.165184 -0.212191 0)
(0.0380538 -0.30879 0)
(0.0179484 -0.299215 0)
(0.299867 0.146372 0)
(0.396655 0.127585 0)
(0.556992 0.0757808 0)
(0.672296 0.04307 0)
(0.73923 0.0247201 0)
(0.779731 0.0143502 0)
(0.805387 0.008411 0)
(0.821567 0.00488855 0)
(0.831296 0.00263853 0)
(0.836287 0.00101366 0)
(0.837336 -0.000385104 0)
(0.83454 -0.00187078 0)
(0.827318 -0.0037972 0)
(0.81419 -0.00672962 0)
(0.792291 -0.0117374 0)
(0.756258 -0.0209366 0)
(0.694241 -0.038472 0)
(0.581436 -0.0719697 0)
(0.415165 -0.127462 0)
(0.30886 -0.149496 0)
)
;

boundaryField
{
    movingWall
    {
        type            fixedValue;
        value           uniform (1 0 0);
    }
    fixedWalls
    {
        type            noSlip;
    }
    frontAndBack
    {
        type            empty;
    }
}


// ************************************************************************* //
