/*--------------------------------*- C++ -*----------------------------------*\
  =========                 |
  \\      /  F ield         | OpenFOAM: The Open Source CFD Toolbox
   \\    /   O peration     | Website:  https://openfoam.org
    \\  /    A nd           | Version:  8
     \\/     M anipulation  |
\*---------------------------------------------------------------------------*/
FoamFile
{
    version     2.0;
    format      ascii;
    class       volScalarField;
    location    "7";
    object      T;
}
// * * * * * * * * * * * * * * * * * * * * * * * * * * * * * * * * * * * * * //

dimensions      [0 0 0 1 0 0 0];

internalField   nonuniform List<scalar> 
116
(
4.77839e-08
4.77809e-08
4.778e-08
4.77795e-08
4.77718e-08
4.76272e-08
6.41984e-07
6.41952e-07
6.41944e-07
6.41942e-07
6.4194e-07
6.41926e-07
8.28572e-06
8.2854e-06
8.28531e-06
8.2853e-06
8.28529e-06
8.28529e-06
9.55362e-05
9.55336e-05
9.55328e-05
9.55327e-05
9.55326e-05
9.55326e-05
0.000969852
0.000969833
0.000969827
0.000969826
0.000969826
0.000969826
0.0085115
0.00851139
0.00851136
0.00851136
0.00851135
0.00851135
0.0630435
0.063043
0.0630429
0.0630428
0.0630428
0.0630428
0.381402
0.3814
0.3814
0.3814
0.3814
0.3814
1.79869
1.79869
1.79869
1.79869
1.79869
1.79869
6.16695
6.16695
6.16695
6.16695
6.16695
6.16695
4.50581e-08
4.49203e-08
4.49134e-08
4.49131e-08
6.41788e-07
6.41774e-07
6.41773e-07
6.41774e-07
8.28529e-06
8.28528e-06
8.28528e-06
8.28529e-06
9.55326e-05
9.55326e-05
9.55326e-05
9.55327e-05
0.000969826
0.000969826
0.000969826
0.000969827
0.00851135
0.00851135
0.00851136
0.00851136
0.0630428
0.0630428
0.0630428
0.0630429
0.3814
0.3814
0.3814
0.3814
1.79869
1.79869
1.79869
1.79869
6.16695
6.16695
6.16695
6.16695
4.83962e-13
4.83307e-13
4.8318e-13
4.83171e-13
9.14851e-12
9.13378e-12
9.13135e-12
9.13122e-12
1.68535e-10
1.68207e-10
1.68164e-10
1.68162e-10
2.87373e-09
2.86683e-09
2.86618e-09
2.86617e-09
)
;

boundaryField
{
    movingWall
    {
        type            fixedValue;
        value           uniform 10;
    }
    fixedWalls
    {
        type            zeroGradient;
    }
    frontAndBack
    {
        type            empty;
    }
}


// ************************************************************************* //
