/*--------------------------------*- C++ -*----------------------------------*\
  =========                 |
  \\      /  F ield         | OpenFOAM: The Open Source CFD Toolbox
   \\    /   O peration     | Website:  https://openfoam.org
    \\  /    A nd           | Version:  8
     \\/     M anipulation  |
\*---------------------------------------------------------------------------*/
FoamFile
{
    version     2.0;
    format      ascii;
    class       volScalarField;
    location    "0.967";
    object      T;
}
// * * * * * * * * * * * * * * * * * * * * * * * * * * * * * * * * * * * * * //

dimensions      [0 0 0 1 0 0 0];

internalField   nonuniform List<scalar> 
2500
(
49.9485
4.71021
-4.69952
-1.13438
1.15605
0.459294
-0.42573
-0.271755
0.295663
0.035516
-0.0140337
-0.193998
0.156803
0.0220372
-0.0310131
-0.0412863
-0.0239339
0.114397
-0.0558641
-0.0221545
-0.00841997
0.0140042
0.0609213
-0.0606657
-0.0156325
0.0177522
0.00949761
0.0338209
-0.044509
-0.0218436
0.0316183
0.00570729
0.0152465
-0.0207645
-0.0330307
0.0274787
0.0178453
-0.00132561
-0.00338036
-0.0300462
0.000815222
0.0330657
0.00228423
-0.00745377
-0.0111915
-0.0212475
0.0153316
0.0290861
-0.00549539
-0.0112441
95.4272
49.906
10.5638
-4.73224
-2.76142
1.14968
1.10706
-0.386617
-0.679915
0.349145
0.179964
0.0651844
-0.389422
0.150564
0.135811
-0.0180104
-0.0832778
-0.1182
0.20306
-0.00522139
-0.064925
-0.0468024
-0.0144324
0.146631
-0.0439335
-0.0758794
-0.000846118
0.00753156
0.0980136
-0.0300147
-0.0873285
0.0181742
0.0172968
0.0571544
0.00754408
-0.0906528
-0.00384408
0.0379481
0.0258938
0.0346013
-0.054872
-0.0582386
0.0374377
0.0310731
0.0249996
0.00941412
-0.0700922
-0.0323695
0.0466467
0.0259485
104.565
89.6241
49.9043
12.2157
-4.72055
-3.43677
1.17269
1.43095
-0.332883
-0.935939
0.372567
0.300599
0.109599
-0.496606
0.0893977
0.251997
-0.000926009
-0.110743
-0.19737
0.231655
0.0810286
-0.0944032
-0.0843116
-0.0542404
0.192447
0.0175834
-0.11717
-0.0387933
-0.0101193
0.137113
0.0240267
-0.121052
-0.0258946
0.00472468
0.0852706
0.0622444
-0.101143
-0.0535284
0.0130383
0.0380006
0.0887141
-0.0296491
-0.0956251
-0.0065363
0.0117832
0.0578949
0.0704376
-0.0615586
-0.0727906
-0.00270803
101.291
104.51
88.0137
49.8601
12.8938
-4.72596
-3.81485
1.20215
1.57706
-0.240618
-1.16987
0.421448
0.353837
0.17317
-0.573396
0.00339551
0.365164
0.00233197
-0.103067
-0.276292
0.223069
0.178422
-0.116128
-0.101385
-0.102219
0.198394
0.0988956
-0.138408
-0.071727
-0.0330336
0.135323
0.0896493
-0.117006
-0.0712514
-0.0132991
0.0791577
0.101196
-0.0624417
-0.0835632
-0.0251129
0.0275979
0.100192
0.0146727
-0.0710856
-0.0426886
-0.0290491
0.0474953
0.0847493
-0.0124572
-0.0352085
98.6984
102.974
104.497
87.385
49.8548
13.2576
-4.70149
-4.05349
1.247
1.66245
-0.147766
-1.34881
0.447207
0.413494
0.210013
-0.605241
-0.102173
0.468806
0.0150447
-0.104112
-0.323636
0.177999
0.283109
-0.128651
-0.12613
-0.125687
0.170075
0.187226
-0.146261
-0.11773
-0.0299005
0.108988
0.145591
-0.0917991
-0.131741
-0.00731232
0.0726753
0.10508
-0.00898477
-0.116196
-0.0536799
0.0521457
0.0776674
0.03005
-0.0378291
-0.0796972
-0.0242794
0.0675856
0.042226
-0.00551112
99.6856
98.6338
103.669
104.436
87.0522
49.83
13.4573
-4.67311
-4.26739
1.31673
1.68047
-0.0309051
-1.53096
0.471921
0.474795
0.229982
-0.605743
-0.239877
0.582935
0.0349604
-0.110954
-0.3582
0.100107
0.410405
-0.130335
-0.164597
-0.145668
0.119127
0.301173
-0.139547
-0.189174
-0.0276344
0.0731833
0.223448
-0.0453488
-0.225964
-0.01289
0.07105
0.127146
0.0749415
-0.179432
-0.120246
0.0868077
0.07926
0.0853523
-0.00697847
-0.185023
-0.04757
0.119781
0.0541069
100.308
99.0774
98.6215
104.079
104.411
86.8707
49.8326
13.6047
-4.62545
-4.45206
1.38718
1.69468
0.0858025
-1.68936
0.462543
0.553468
0.25216
-0.592023
-0.392627
0.667501
0.0939472
-0.1127
-0.395254
-0.00642212
0.52324
-0.0790132
-0.198815
-0.192011
0.0419889
0.410827
-0.0739334
-0.24734
-0.0755908
0.00832394
0.306971
0.0572275
-0.282716
-0.0760704
0.0100053
0.158417
0.21495
-0.179172
-0.208828
0.0203632
0.0419632
0.199124
0.113734
-0.241002
-0.143182
0.0356265
100.366
100.233
98.7462
98.5619
104.324
104.364
86.7217
49.8323
13.6912
-4.55198
-4.64813
1.46003
1.68865
0.211155
-1.81576
0.403514
0.648001
0.265404
-0.542274
-0.548047
0.691002
0.190147
-0.108323
-0.402583
-0.135256
0.567956
0.0291958
-0.207885
-0.231257
-0.0583334
0.440428
0.0499274
-0.240859
-0.140121
-0.0802956
0.305978
0.177732
-0.219374
-0.136172
-0.0999121
0.115194
0.299697
-0.0591934
-0.185722
-0.0932509
-0.0851001
0.205067
0.229671
-0.109925
-0.118542
99.6499
100.779
100.211
98.5942
98.5358
104.529
104.338
86.6193
49.8409
13.7534
-4.46075
-4.83136
1.53111
1.66854
0.331166
-1.90031
0.313838
0.747778
0.253945
-0.462292
-0.675599
0.662019
0.298715
-0.123649
-0.362691
-0.243975
0.538849
0.153157
-0.220789
-0.225187
-0.124097
0.3723
0.170978
-0.206873
-0.172608
-0.103971
0.210559
0.225804
-0.101371
-0.157835
-0.128543
0.0515912
0.224384
0.0462836
-0.0816125
-0.121471
-0.11868
0.10433
0.14559
0.0165468
99.9816
99.605
101.003
100.142
98.4793
98.4918
104.68
104.298
86.5293
49.8566
13.7896
-4.36876
-5.01144
1.61283
1.64222
0.432081
-1.96298
0.214122
0.867694
0.214002
-0.382172
-0.780912
0.622352
0.425781
-0.180703
-0.311577
-0.322566
0.496678
0.29004
-0.282637
-0.211481
-0.136272
0.2895
0.293843
-0.222068
-0.224928
-0.0434523
0.126649
0.253161
-0.0259618
-0.249002
-0.0827576
0.0835658
0.131978
0.104412
-0.0843954
-0.188705
0.000196298
0.117914
0.0411733
100.035
99.8074
99.6217
101.192
100.093
98.4144
98.469
104.825
104.249
86.4519
49.8793
13.8347
-4.29178
-5.19315
1.69213
1.63902
0.523928
-2.03587
0.103096
1.0047
0.195168
-0.322801
-0.903269
0.580179
0.584809
-0.223188
-0.29419
-0.425785
0.468888
0.468953
-0.335394
-0.24309
-0.186239
0.234444
0.47724
-0.228111
-0.331955
-0.0441961
0.0602298
0.375019
0.0886965
-0.40229
-0.131018
0.079259
0.139786
0.29511
-0.0998772
-0.387237
-0.0122689
0.123132
100.147
99.9921
99.6522
99.6223
101.33
100.027
98.3522
98.4499
104.968
104.196
86.3636
49.9008
13.8968
-4.21153
-5.38065
1.7357
1.67216
0.623512
-2.10031
-0.0481632
1.12134
0.24132
-0.265419
-1.03397
0.482309
0.740321
-0.172154
-0.289228
-0.567211
0.389226
0.644768
-0.265346
-0.273196
-0.32203
0.13166
0.648637
-0.102928
-0.365388
-0.169951
-0.101066
0.480753
0.302168
-0.378386
-0.226075
-0.128826
0.0601717
0.53188
0.0882838
-0.396219
-0.15966
99.9065
100.302
99.9783
99.5424
99.6411
101.458
99.9595
98.2999
98.4193
105.119
104.148
86.2716
49.9067
13.9559
-4.1021
-5.56314
1.73888
1.7089
0.726829
-2.10522
-0.240005
1.18713
0.317321
-0.190543
-1.09786
0.304625
0.83089
-0.0521605
-0.255737
-0.647775
0.219009
0.709306
-0.0892088
-0.239699
-0.417058
-0.0327315
0.634402
0.0962912
-0.238122
-0.259187
-0.282404
0.374131
0.409959
-0.129179
-0.156632
-0.320436
-0.151125
0.459566
0.249953
-0.0787526
99.9145
99.945
100.395
99.96
99.4447
99.6651
101.572
99.8944
98.2687
98.372
105.273
104.099
86.2033
49.9008
13.9885
-3.9714
-5.73041
1.74636
1.71528
0.803205
-2.04489
-0.433626
1.23823
0.351149
-0.130082
-1.05717
0.104452
0.876937
0.0310235
-0.23565
-0.587339
0.035461
0.672741
0.0599863
-0.229074
-0.3574
-0.126917
0.455355
0.223633
-0.130343
-0.238743
-0.249581
0.167025
0.296854
0.0585117
-0.0580838
-0.254917
-0.151602
0.169763
0.121004
100.079
99.7832
100.001
100.453
99.9399
99.3553
99.6985
101.658
99.8201
98.2583
98.3227
105.422
104.018
86.1692
49.9002
14.01
-3.86082
-5.89937
1.80048
1.70721
0.84914
-1.99079
-0.610392
1.34239
0.34373
-0.115657
-0.997526
-0.0678083
0.980007
0.0556912
-0.291801
-0.48097
-0.102833
0.695235
0.160832
-0.353475
-0.25783
-0.126215
0.341006
0.349895
-0.207279
-0.292632
-0.0685353
0.0859397
0.252671
0.123082
-0.234926
-0.193439
0.0822601
0.083539
100.02
100.065
99.6863
100.081
100.493
99.9177
99.2816
99.763
101.727
99.7322
98.251
98.3033
105.574
103.902
86.1359
49.9148
14.0693
-3.78861
-6.09425
1.86737
1.73536
0.915834
-2.00292
-0.802185
1.48233
0.380431
-0.0970716
-1.02818
-0.251153
1.15198
0.126474
-0.352258
-0.485994
-0.27757
0.828173
0.330989
-0.486599
-0.276436
-0.23602
0.341668
0.633756
-0.270845
-0.455001
-0.0862926
-0.0160921
0.459481
0.363214
-0.46102
-0.35666
0.0382478
100.019
100.077
100.022
99.5954
100.167
100.514
99.8724
99.2042
99.8489
101.798
99.6258
98.2205
98.3103
105.743
103.786
86.0559
49.9305
14.1777
-3.71063
-6.30593
1.86184
1.81209
1.0428
-2.03051
-1.03269
1.53925
0.506952
0.00499012
-1.11141
-0.490562
1.2348
0.299862
-0.266808
-0.57534
-0.548225
0.873284
0.563255
-0.379823
-0.321463
-0.536974
0.233917
0.902741
-0.0742817
-0.408733
-0.308218
-0.377346
0.551337
0.7128
-0.267954
-0.331819
99.9125
100.088
100.135
99.9792
99.5219
100.272
100.535
99.8253
99.1153
99.9428
101.886
99.5179
98.1716
98.3019
105.936
103.706
85.9356
49.9267
14.2753
-3.5683
-6.49288
1.76431
1.88695
1.17828
-1.962
-1.25928
1.44614
0.655232
0.152594
-1.09241
-0.716167
1.09782
0.47975
-0.0626895
-0.572885
-0.756443
0.662998
0.665319
-0.0706812
-0.227994
-0.733274
-0.0338024
0.804319
0.200679
-0.0521501
-0.350313
-0.69122
0.259084
0.644971
0.126282
100.015
99.8519
100.142
100.175
99.9244
99.4527
100.378
100.543
99.7987
99.0131
100.036
101.965
99.433
98.1356
98.2501
106.134
103.646
85.8438
49.9067
14.2984
-3.37271
-6.64086
1.67311
1.91629
1.22376
-1.77991
-1.43029
1.31221
0.746041
0.193603
-0.920749
-0.826383
0.855961
0.586001
0.0210492
-0.447642
-0.713624
0.343295
0.60496
0.11945
-0.134937
-0.569982
-0.179425
0.428023
0.266931
0.16357
-0.192719
-0.494619
-0.0100686
0.179741
100.06
99.9462
99.829
100.191
100.208
99.8648
99.4093
100.473
100.524
99.7932
98.9169
100.142
101.987
99.3755
98.1275
98.1939
106.305
103.544
85.8287
49.8983
14.2788
-3.20707
-6.79994
1.69152
1.92894
1.17963
-1.60517
-1.58657
1.30617
0.814002
0.0787782
-0.737586
-0.886901
0.743425
0.718426
-0.128047
-0.368963
-0.554144
0.151616
0.666496
0.0895881
-0.299772
-0.29259
-0.125761
0.259464
0.337901
-0.051679
-0.278481
-0.0775601
0.0469796
99.9881
100.106
99.8712
99.8394
100.236
100.224
99.7953
99.4131
100.561
100.479
99.7748
98.854
100.285
101.948
99.3142
98.1209
98.2096
106.448
103.373
85.8377
49.9184
14.3286
-3.12458
-7.02584
1.77461
1.98595
1.18816
-1.54574
-1.82683
1.41534
0.945463
-0.00480248
-0.67451
-1.09245
0.777005
0.986281
-0.268405
-0.389996
-0.626757
0.0232365
1.00953
0.128734
-0.551083
-0.280647
-0.274106
0.37803
0.766317
-0.24147
-0.576301
-0.10238
99.9863
100.036
100.117
99.7868
99.874
100.282
100.211
99.7029
99.4512
100.664
100.42
99.7081
98.8198
100.465
101.907
99.2066
98.0774
98.3093
106.601
103.189
85.7613
49.947
14.4995
-3.06612
-7.28827
1.75312
2.08649
1.3658
-1.54409
-2.14269
1.42066
1.11396
0.157317
-0.658537
-1.4575
0.714994
1.23873
-0.105864
-0.303298
-0.965477
-0.272057
1.28347
0.393287
-0.401295
-0.397776
-0.823546
0.29948
1.20801
0.038045
-0.397339
99.9554
99.9971
100.097
100.112
99.6988
99.9339
100.343
100.188
99.5898
99.4947
100.797
100.364
99.6107
98.7691
100.664
101.924
99.0581
97.9954
98.4018
106.807
103.073
85.5734
49.9478
14.6878
-2.91826
-7.48387
1.54268
2.16298
1.61576
-1.44369
-2.36816
1.17
1.19441
0.485265
-0.537118
-1.69089
0.411776
1.20189
0.267225
-0.00204401
-1.15588
-0.639401
1.05123
0.57758
0.161703
-0.243078
-1.22372
-0.121729
0.967611
0.366029
100.033
99.8907
100.015
100.154
100.09
99.6036
100.003
100.396
100.182
99.4617
99.5324
100.929
100.323
99.538
98.6658
100.86
101.967
98.9395
97.9136
98.3917
107.06
103.02
85.3936
49.9153
14.7373
-2.65705
-7.57051
1.28246
2.18488
1.70048
-1.19968
-2.38303
0.801894
1.17854
0.644449
-0.341532
-1.5451
0.0411823
0.928484
0.484331
0.211147
-0.911165
-0.707183
0.484102
0.455046
0.5035
0.0366517
-0.911647
-0.328798
0.215657
100.042
100.003
99.8487
100.037
100.211
100.056
99.5299
100.072
100.417
100.199
99.3367
99.5932
100.996
100.302
99.5113
98.5503
101.039
101.942
98.9148
97.8652
98.3151
107.287
102.93
85.3627
49.8876
14.6457
-2.39692
-7.65572
1.19422
2.21824
1.54384
-0.943989
-2.33065
0.591261
1.25422
0.472801
-0.250689
-1.21803
-0.180187
0.854794
0.449542
0.00114543
-0.519841
-0.487747
0.176874
0.420344
0.268628
-0.114118
-0.287498
-0.0923277
99.9731
100.099
99.9567
99.8358
100.062
100.253
99.9985
99.5101
100.137
100.408
100.196
99.2453
99.7112
100.98
100.278
99.4842
98.5226
101.196
101.805
98.9422
97.8435
98.3269
107.419
102.721
85.4533
49.9021
14.6109
-2.26331
-7.88852
1.29919
2.33153
1.38656
-0.80416
-2.50036
0.590881
1.54637
0.239899
-0.265576
-1.17894
-0.352144
1.22044
0.470563
-0.384731
-0.411491
-0.557303
0.250056
0.931283
-0.0198275
-0.581702
-0.17249
99.9833
100.003
100.123
99.8939
99.8478
100.103
100.263
99.9064
99.5379
100.22
100.388
100.122
99.1976
99.882
100.949
100.205
99.3993
98.6229
101.354
101.631
98.8883
97.8169
98.5195
107.492
102.447
85.4611
49.9468
14.8124
-2.2305
-8.25211
1.34961
2.46829
1.53585
-0.725136
-2.9383
0.552241
1.84506
0.333999
-0.120542
-1.54518
-0.722203
1.61848
0.723541
-0.29146
-0.471046
-1.22743
0.170623
1.57011
0.205748
-0.45356
99.9819
99.972
100.057
100.123
99.8174
99.8844
100.173
100.248
99.7853
99.5756
100.347
100.37
99.9883
99.1506
100.077
100.989
100.066
99.259
98.7531
101.561
101.535
98.6813
97.7618
98.7819
107.635
102.246
85.2321
49.969
15.1628
-2.13104
-8.53013
1.10405
2.49335
1.9616
-0.554846
-3.28887
0.255228
1.78702
0.747184
0.321402
-1.85413
-1.19308
1.43535
0.896447
0.421644
-0.244951
-1.87116
-0.313166
1.3943
0.565029
100.025
99.9308
99.9769
100.12
100.105
99.7233
99.936
100.251
100.243
99.6409
99.6024
100.495
100.364
99.8668
99.0431
100.278
101.083
99.9299
99.1123
98.773
101.841
101.526
98.4361
97.6734
98.901
107.929
102.179
84.8815
49.9374
15.3561
-1.84829
-8.54888
0.641794
2.39425
2.25833
-0.280756
-3.17292
-0.193655
1.37007
1.06396
0.723565
-1.63081
-1.33184
0.699639
0.688018
1.02652
0.198632
-1.6331
-0.635809
0.363773
100.035
100.006
99.887
99.9868
100.19
100.073
99.6405
99.9857
100.306
100.266
99.4888
99.6458
100.587
100.386
99.7952
98.8965
100.47
101.117
99.9063
98.9884
98.6848
102.124
101.491
98.3603
97.5614
98.821
108.283
102.137
84.7105
49.884
15.2195
-1.47014
-8.43513
0.31441
2.36081
2.10029
-0.0631025
-2.71082
-0.517159
1.10395
1.00866
0.612633
-1.03445
-1.04066
0.12953
0.460384
0.836531
0.208086
-0.698939
-0.354704
99.9727
100.09
99.9738
99.8653
99.9986
100.252
100.017
99.6151
100.019
100.335
100.275
99.3778
99.7393
100.57
100.43
99.7324
98.8377
100.615
101.019
99.9944
98.8844
98.6666
102.279
101.335
98.4997
97.459
98.749
108.49
101.952
84.8602
49.8715
14.9734
-1.20611
-8.53486
0.343418
2.5666
1.68175
0.0187802
-2.49223
-0.669298
1.43998
0.81185
0.100474
-0.662779
-0.928129
0.191065
0.872673
0.19925
-0.358962
-0.176868
99.9796
99.9989
100.109
99.9329
99.866
100.028
100.27
99.9352
99.6546
100.055
100.345
100.201
99.3536
99.8761
100.508
100.423
99.6274
98.9605
100.702
100.854
100.027
98.8103
98.8706
102.272
101.092
98.6269
97.4216
98.9392
108.46
101.603
85.089
49.919
15.0411
-1.14373
-9.00706
0.524476
2.88291
1.56444
0.145872
-2.89966
-0.896945
2.09842
0.862631
-0.0359229
-0.730426
-1.6082
0.448904
1.77276
0.0567497
-0.533525
99.9967
99.9628
100.045
100.095
99.8814
99.8958
100.094
100.235
99.8322
99.7197
100.146
100.33
100.04
99.3792
100.043
100.513
100.288
99.4882
99.183
100.816
100.736
99.8415
98.7821
99.2214
102.269
100.871
98.4666
97.4721
99.3783
108.383
101.26
84.9881
49.9745
15.5517
-1.12742
-9.55155
0.422303
2.93979
2.02884
0.537974
-3.55482
-1.33343
2.23478
1.12141
0.732181
-0.781876
-2.68341
0.206361
2.01475
0.572938
100.012
99.9578
99.9751
100.104
100.056
99.8073
99.9564
100.182
100.185
99.6969
99.7826
100.297
100.3
99.8624
99.3494
100.26
100.593
100.083
99.3351
99.3236
101.071
100.679
99.5152
98.747
99.4864
102.493
100.719
98.0453
97.5314
99.7554
108.565
101.1
84.4614
49.971
16.1037
-0.92013
-9.67151
-0.125381
2.57428
2.67673
1.06528
-3.64754
-1.71177
1.43395
1.17425
1.83071
-0.411471
-2.92925
-0.423166
0.872444
100.033
99.9883
99.917
99.9986
100.176
99.9958
99.7309
100.02
100.266
100.161
99.5293
99.8566
100.422
100.314
99.7061
99.2417
100.503
100.65
99.9891
99.1381
99.3335
101.419
100.619
99.3274
98.5904
99.5545
102.928
100.592
97.7312
97.4536
99.8017
109.075
101.09
83.9231
49.9057
16.1463
-0.479222
-9.27044
-0.777729
2.15357
2.82152
1.27641
-2.886
-1.71182
0.368248
0.928717
2.04663
0.0338026
-1.79697
-0.661457
99.9868
100.076
99.9543
99.8874
100.024
100.246
99.9212
99.7023
100.043
100.347
100.137
99.4026
99.9397
100.44
100.407
99.5508
99.1913
100.653
100.626
100.08
98.8953
99.3649
101.617
100.538
99.433
98.3009
99.5734
103.242
100.447
97.8409
97.1978
99.6283
109.572
101.004
83.9019
49.8486
15.6381
-0.0259152
-8.8957
-1.04351
2.26531
2.28813
0.974416
-1.95511
-1.55571
0.161867
0.921948
1.00284
-0.0660133
-0.402232
99.9698
100.023
100.087
99.9292
99.871
100.06
100.263
99.8584
99.7356
100.037
100.403
100.052
99.4156
99.9942
100.394
100.469
99.4156
99.3284
100.618
100.571
100.177
98.742
99.5629
101.491
100.478
99.6343
98.0931
99.759
103.12
100.3
98.2266
96.9567
99.6448
109.621
100.674
84.4095
49.8657
15.224
0.192068
-9.21904
-0.850467
2.98234
1.69052
0.669675
-1.82335
-1.9327
1.04193
1.58267
-0.144817
-0.444947
100.001
99.957
100.059
100.061
99.91
99.8906
100.112
100.196
99.8218
99.8047
100.077
100.37
99.9152
99.5477
100.047
100.371
100.342
99.3758
99.5945
100.525
100.503
100.045
98.8331
99.8764
101.218
100.397
99.5888
98.2235
100.129
102.695
100.143
98.3694
97.0175
100.103
109.212
100.193
84.797
49.9414
15.6048
0.188805
-10.2104
-0.671452
3.56007
1.7878
1.16484
-2.59641
-3.07571
1.89382
2.29875
0.111653
100.006
99.971
99.9864
100.088
100.004
99.8792
99.9725
100.16
100.081
99.7667
99.9112
100.192
100.237
99.7712
99.6622
100.215
100.357
100.052
99.3981
99.8385
100.625
100.334
99.7097
99.0711
100.172
101.186
100.146
99.231
98.6222
100.514
102.501
99.8778
97.9549
97.4104
100.774
108.904
99.8328
84.3892
49.9905
16.6828
0.245003
-10.9632
-1.01873
3.1233
2.59584
2.51023
-3.27416
-4.07355
1.43318
1.77649
100.023
99.9734
99.9499
100.039
100.121
99.9096
99.8486
100.084
100.211
99.9662
99.6534
100.071
100.309
100.127
99.5878
99.7087
100.507
100.302
99.8166
99.2934
100.048
100.939
100.065
99.4285
99.1105
100.456
101.515
99.7146
98.8645
98.8331
100.806
102.89
99.4464
97.2961
97.7415
101.163
109.297
99.7403
83.3077
49.9525
17.4708
0.6035
-10.5674
-1.84955
1.77912
3.29252
3.55107
-2.81816
-3.58921
-0.243164
100.011
100.039
99.9267
99.9336
100.105
100.154
99.7975
99.8444
100.155
100.3
99.8361
99.5578
100.208
100.38
100.135
99.3285
99.7873
100.709
100.292
99.7425
98.9932
100.308
101.16
99.9278
99.3352
98.7862
100.819
101.84
99.4048
98.7803
98.498
101.084
103.532
99.0263
97.0535
97.5317
101.065
110.291
99.7549
82.5354
49.8627
17.0561
1.18744
-9.24989
-2.57103
0.86789
3.1019
2.93467
-1.38219
-1.59966
99.9691
100.061
100.032
99.8969
99.9135
100.178
100.143
99.7405
99.8474
100.183
100.384
99.6997
99.5894
100.202
100.46
100.151
99.1393
99.9336
100.64
100.437
99.6866
98.7737
100.548
101.034
100.12
99.2848
98.4402
101.16
101.727
99.5492
98.9014
97.8953
101.408
103.673
98.9412
97.4911
96.8221
100.835
110.989
99.5704
82.9597
49.8175
15.7362
1.66717
-8.47473
-2.68145
1.74171
2.19871
0.84296
-0.247195
99.9858
99.9764
100.085
100.015
99.8842
99.9224
100.218
100.075
99.773
99.8459
100.221
100.335
99.6552
99.7139
100.113
100.524
100.025
99.235
100.027
100.441
100.576
99.5406
98.9649
100.569
100.717
100.404
99.1557
98.5909
101.211
101.222
99.9837
98.9398
97.7852
101.637
102.989
99.237
98.1056
96.3455
101.03
110.555
99.0761
84.2673
49.868
15.033
1.81995
-9.58424
-2.3496
4.05661
1.57761
-0.423419
100.009
99.9634
100.01
100.07
99.9858
99.8918
99.9972
100.174
99.9898
99.8281
99.9213
100.241
100.135
99.7233
99.8383
100.144
100.399
99.8282
99.5426
100.066
100.372
100.376
99.4476
99.4632
100.442
100.528
100.261
99.1044
99.2578
100.982
100.798
100.03
98.8337
98.5518
101.628
102.067
99.4074
98.126
96.861
101.777
109.263
98.4974
84.9462
49.9598
16.2727
1.78847
-12.1224
-2.26315
5.39645
1.96722
100.009
99.9772
99.9829
100.052
100.034
99.9128
99.9526
100.101
100.091
99.8788
99.8628
100.126
100.179
99.9286
99.7299
100.029
100.312
100.072
99.7002
99.7324
100.301
100.399
99.8503
99.5031
99.8213
100.6
100.464
99.582
99.2733
99.8604
100.988
100.724
99.2554
98.8025
99.6003
101.619
101.848
98.7995
97.3919
98.1812
102.593
108.55
98.1608
83.6917
49.9891
18.9396
1.93962
-13.6024
-2.8784
2.98254
100.023
99.9864
99.942
100.02
100.114
99.9716
99.8186
100.05
100.187
100.049
99.6881
99.9445
100.322
100.132
99.7639
99.5832
100.363
100.404
99.8539
99.5253
99.7145
100.812
100.301
99.478
99.43
99.8797
101.239
100.264
98.9653
99.3659
99.9378
101.69
100.739
98.1877
98.8979
99.8759
102.128
102.546
97.4758
96.6097
99.0095
102.888
109.694
98.1298
81.0267
49.9167
20.519
2.46377
-11.2879
-3.89339
99.9977
100.056
99.9445
99.9144
100.056
100.192
99.8744
99.7804
100.091
100.295
100.008
99.5101
100.061
100.372
100.247
99.5291
99.5013
100.614
100.388
99.9468
99.1396
99.7772
101.178
100.166
99.5679
98.9521
99.9684
101.836
99.9785
99.025
98.9202
99.7503
102.694
100.514
97.9311
98.7579
99.0899
103.242
103.281
96.539
96.6195
98.0982
102.63
112.216
98.1179
79.4526
49.8153
18.3045
3.15407
-4.55153
99.9679
100.042
100.059
99.9259
99.8812
100.11
100.209
99.8176
99.7941
100.068
100.409
99.8931
99.5351
100.049
100.381
100.37
99.3082
99.6595
100.494
100.483
100.066
98.8217
100.038
100.971
100.324
99.7824
98.4367
100.292
101.673
100.039
99.551
98.1339
99.8781
102.918
100.231
98.8713
98.1307
98.229
104.102
102.986
97.1999
97.4375
95.8295
102.418
113.668
97.792
81.6611
49.7926
11.7094
3.62085
99.9943
99.9658
100.062
100.043
99.9243
99.8829
100.152
100.125
99.8619
99.8039
100.095
100.358
99.8199
99.7196
99.9378
100.435
100.222
99.4051
99.8514
100.2
100.626
99.8975
99.0576
100.175
100.459
100.636
99.6753
98.6326
100.501
100.857
100.484
99.7582
97.9918
100.341
101.863
100.306
99.9813
97.5857
98.5694
103.548
101.636
99.22
98.1687
94.5564
102.845
111.36
97.1431
88.2402
49.8727
3.71846
100.009
99.9742
100
100.041
100.014
99.9241
99.979
100.107
100.021
99.9105
99.8944
100.156
100.101
99.8813
99.8554
100.019
100.31
99.917
99.7714
99.9179
100.181
100.366
99.6706
99.7156
100.071
100.275
100.413
99.4498
99.5801
100.317
100.306
100.508
99.398
99.1061
100.589
100.523
100.495
99.8072
98.2139
100.171
101.632
100.397
100.383
97.9622
96.9836
103.825
104.658
96.5106
96.2184
49.9666
)
;

boundaryField
{
    left
    {
        type            fixedValue;
        value           uniform 100;
    }
    right
    {
        type            zeroGradient;
    }
    up
    {
        type            zeroGradient;
    }
    down
    {
        type            fixedValue;
        value           uniform 0;
    }
    frontAndBack
    {
        type            empty;
    }
}


// ************************************************************************* //
