/*--------------------------------*- C++ -*----------------------------------*\
  =========                 |
  \\      /  F ield         | OpenFOAM: The Open Source CFD Toolbox
   \\    /   O peration     | Website:  https://openfoam.org
    \\  /    A nd           | Version:  8
     \\/     M anipulation  |
\*---------------------------------------------------------------------------*/
FoamFile
{
    version     2.0;
    format      ascii;
    class       volScalarField;
    location    "55";
    object      p;
}
// * * * * * * * * * * * * * * * * * * * * * * * * * * * * * * * * * * * * * //

dimensions      [0 2 -2 0 0 0 0];

internalField   nonuniform List<scalar> 
46400
(
3.32731e-09
-1.87366e-07
-2.68513e-07
-2.27835e-07
-4.18537e-08
3.02393e-07
8.08999e-07
1.47775e-06
2.30709e-06
3.29521e-06
4.44024e-06
5.74053e-06
7.19504e-06
8.80336e-06
1.05655e-05
1.24815e-05
1.45517e-05
1.67767e-05
1.91571e-05
2.16939e-05
2.43879e-05
2.72403e-05
3.02519e-05
3.34238e-05
3.67573e-05
4.02535e-05
4.39138e-05
4.77393e-05
5.17314e-05
5.58913e-05
6.02207e-05
6.4721e-05
6.93938e-05
7.42407e-05
7.92633e-05
8.44631e-05
8.9842e-05
9.54016e-05
0.000101144
0.000107071
0.000113184
0.000119485
0.000125976
0.000132659
0.000139536
0.000146609
0.00015388
0.000161351
0.000169024
0.000176902
0.000184986
0.000193278
0.00020178
0.000210496
0.000219426
0.000228574
0.00023794
0.000247527
0.000257338
0.000267374
0.000277637
0.00028813
0.000298854
0.000309812
0.000321006
0.000332437
0.000344107
0.000356018
0.000368173
0.000380573
0.00039322
0.000406115
0.000419261
0.000432658
0.000446309
0.000460215
0.000474377
0.000488797
0.000503475
0.000518415
0.000533615
0.000549078
0.000564804
0.000580794
0.000597049
0.000613569
0.000630356
0.00064741
0.000664732
0.000682322
0.00070018
0.000718306
0.000736701
0.000755364
0.000774296
0.000793498
0.000812968
0.000832707
0.000852713
0.000872988
0.00089353
0.000914339
0.000935413
0.000956751
0.000978351
0.00100021
0.00102232
0.00104468
0.00106727
0.00109009
0.00111311
0.0011363
0.00115962
0.00118299
0.00120629
0.00122938
0.00125214
0.0012746
0.00129616
0.0013197
3.7212e-09
-1.3515e-07
-1.51594e-07
-5.13883e-08
1.812e-07
5.59609e-07
1.08993e-06
1.7743e-06
2.61318e-06
3.60657e-06
4.75429e-06
6.05593e-06
7.51102e-06
9.11937e-06
1.08812e-05
1.27968e-05
1.48667e-05
1.70914e-05
1.94716e-05
2.2008e-05
2.47017e-05
2.75536e-05
3.05648e-05
3.37365e-05
3.70697e-05
4.05656e-05
4.42254e-05
4.80504e-05
5.2042e-05
5.62015e-05
6.05304e-05
6.50302e-05
6.97025e-05
7.45488e-05
7.95708e-05
8.47701e-05
9.01484e-05
9.57074e-05
0.000101449
0.000107375
0.000113487
0.000119788
0.000126278
0.000132961
0.000139837
0.000146909
0.00015418
0.00016165
0.000169323
0.000177199
0.000185282
0.000193573
0.000202075
0.00021079
0.00021972
0.000228866
0.000238231
0.000247818
0.000257628
0.000267663
0.000277925
0.000288417
0.000299141
0.000310098
0.00032129
0.00033272
0.000344389
0.0003563
0.000368454
0.000380853
0.000393499
0.000406393
0.000419538
0.000432934
0.000446584
0.000460489
0.000474651
0.00048907
0.000503748
0.000518686
0.000533885
0.000549347
0.000565073
0.000581062
0.000597317
0.000613836
0.000630623
0.000647677
0.000664998
0.000682587
0.000700445
0.000718571
0.000736966
0.00075563
0.000774563
0.000793765
0.000813236
0.000832975
0.000852983
0.00087326
0.000893804
0.000914614
0.000935691
0.000957033
0.000978637
0.0010005
0.00102262
0.00104499
0.00106761
0.00109046
0.00111355
0.00113685
0.00116037
0.00118412
0.00120812
0.00123249
0.00125754
0.00128384
0.00131234
0.00134874
-4.75499e-08
-2.07909e-07
-2.07886e-07
-8.52256e-08
1.67876e-07
5.63167e-07
1.10638e-06
1.8002e-06
2.64574e-06
3.64344e-06
4.79359e-06
6.09643e-06
7.55201e-06
9.16039e-06
1.09218e-05
1.28366e-05
1.49055e-05
1.71291e-05
1.95082e-05
2.20434e-05
2.47358e-05
2.75862e-05
3.05959e-05
3.37659e-05
3.70973e-05
4.05915e-05
4.42494e-05
4.80724e-05
5.20619e-05
5.62193e-05
6.05461e-05
6.50437e-05
6.97137e-05
7.45576e-05
7.95771e-05
8.47739e-05
9.01495e-05
9.57059e-05
0.000101445
0.000107368
0.000113478
0.000119775
0.000126263
0.000132942
0.000139816
0.000146885
0.000154153
0.00016162
0.000169289
0.000177163
0.000185243
0.000193531
0.00020203
0.000210741
0.000219668
0.000228811
0.000238173
0.000247756
0.000257563
0.000267595
0.000277854
0.000288343
0.000299063
0.000310017
0.000321206
0.000332633
0.000344299
0.000356207
0.000368358
0.000380754
0.000393397
0.000406289
0.000419431
0.000432825
0.000446472
0.000460374
0.000474533
0.000488951
0.000503627
0.000518563
0.00053376
0.00054922
0.000564944
0.000580932
0.000597185
0.000613704
0.000630489
0.000647542
0.000664862
0.000682451
0.000700308
0.000718434
0.000736829
0.000755493
0.000774426
0.000793629
0.0008131
0.000832841
0.000852851
0.000873129
0.000893675
0.000914489
0.00093557
0.000956915
0.000978526
0.0010004
0.00102253
0.00104492
0.00106757
0.00109046
0.00111361
0.00113702
0.00116071
0.00118471
0.00120912
0.00123412
0.00126008
0.00128758
0.00131784
0.00135468
-1.81434e-07
-3.84972e-07
-3.87812e-07
-2.57493e-07
6.23221e-09
4.12338e-07
9.64798e-07
1.66583e-06
2.51677e-06
3.51825e-06
4.6707e-06
5.97457e-06
7.43031e-06
9.03826e-06
1.07988e-05
1.27125e-05
1.47798e-05
1.70016e-05
1.93786e-05
2.19117e-05
2.46018e-05
2.74499e-05
3.04569e-05
3.36241e-05
3.69526e-05
4.04437e-05
4.40984e-05
4.79181e-05
5.19042e-05
5.6058e-05
6.03811e-05
6.48749e-05
6.9541e-05
7.43809e-05
7.93963e-05
8.45887e-05
8.996e-05
9.5512e-05
0.000101246
0.000107165
0.00011327
0.000119563
0.000126046
0.00013272
0.000139589
0.000146653
0.000153916
0.000161378
0.000169042
0.000176911
0.000184985
0.000193268
0.000201762
0.000210468
0.000219389
0.000228527
0.000237883
0.000247461
0.000257263
0.000267289
0.000277543
0.000288027
0.000298742
0.000309691
0.000320875
0.000332297
0.000343958
0.000355861
0.000368007
0.000380399
0.000393037
0.000405924
0.000419062
0.000432452
0.000446095
0.000459994
0.000474149
0.000488562
0.000503235
0.000518168
0.000533363
0.00054882
0.000564541
0.000580527
0.000596777
0.000613294
0.000630078
0.00064713
0.000664449
0.000682037
0.000699893
0.000718019
0.000736413
0.000755078
0.000774012
0.000793215
0.000812688
0.00083243
0.000852441
0.000872722
0.000893271
0.000914089
0.000935175
0.000956527
0.000978146
0.00100003
0.00102218
0.00104459
0.00106727
0.00109022
0.00111345
0.00113697
0.00116082
0.00118506
0.00120981
0.00123527
0.00126176
0.00128978
0.0013202
0.00135485
-4.42453e-07
-6.86983e-07
-6.98515e-07
-5.67617e-07
-2.99342e-07
1.1316e-07
6.71921e-07
1.37813e-06
2.23296e-06
3.23719e-06
4.39131e-06
5.69581e-06
7.15126e-06
8.75823e-06
1.05173e-05
1.24291e-05
1.44943e-05
1.67136e-05
1.90878e-05
2.16179e-05
2.43047e-05
2.71493e-05
3.01527e-05
3.3316e-05
3.66404e-05
4.01271e-05
4.37774e-05
4.75925e-05
5.15737e-05
5.57226e-05
6.00405e-05
6.4529e-05
6.91896e-05
7.40239e-05
7.90334e-05
8.42199e-05
8.95851e-05
9.51309e-05
0.000100859
0.000106771
0.00011287
0.000119156
0.000125632
0.0001323
0.000139162
0.000146219
0.000153474
0.00016093
0.000168587
0.000176448
0.000184515
0.000192791
0.000201277
0.000209976
0.000218889
0.00022802
0.000237369
0.00024694
0.000256733
0.000266753
0.000276999
0.000287476
0.000298184
0.000309125
0.000320302
0.000331717
0.000343372
0.000355268
0.000367408
0.000379793
0.000392425
0.000405306
0.000418438
0.000431822
0.00044546
0.000459354
0.000473504
0.000487913
0.000502581
0.000517509
0.0005327
0.000548154
0.000563871
0.000579854
0.000596102
0.000612617
0.000629398
0.000646448
0.000663766
0.000681352
0.000699208
0.000717333
0.000735728
0.000754392
0.000773327
0.000792531
0.000812005
0.000831749
0.000851763
0.000872046
0.000892599
0.000913422
0.000934513
0.000955874
0.000977504
0.000999402
0.00102157
0.00104401
0.00106673
0.00108973
0.00111303
0.00113666
0.00116066
0.00118509
0.00121009
0.00123583
0.00126258
0.0012907
0.00132067
0.0013532
-8.55167e-07
-1.13326e-06
-1.15472e-06
-1.02677e-06
-7.57986e-07
-3.42766e-07
2.19485e-07
9.28836e-07
1.78599e-06
2.79168e-06
3.94648e-06
5.25087e-06
6.70544e-06
8.31084e-06
1.00678e-05
1.1977e-05
1.40392e-05
1.62553e-05
1.86259e-05
2.1152e-05
2.38346e-05
2.66747e-05
2.96734e-05
3.28317e-05
3.61509e-05
3.9632e-05
4.32765e-05
4.70856e-05
5.10607e-05
5.52032e-05
5.95145e-05
6.39962e-05
6.86497e-05
7.34767e-05
7.84788e-05
8.36577e-05
8.90152e-05
9.4553e-05
0.000100273
0.000106177
0.000112267
0.000118545
0.000125012
0.000131671
0.000138524
0.000145573
0.000152819
0.000160265
0.000167913
0.000175765
0.000183823
0.000192089
0.000200566
0.000209255
0.000218159
0.00022728
0.00023662
0.000246181
0.000255966
0.000265976
0.000276213
0.00028668
0.000297379
0.000308311
0.000319479
0.000330886
0.000342531
0.000354419
0.00036655
0.000378927
0.000391552
0.000404426
0.00041755
0.000430927
0.000444558
0.000458445
0.000472589
0.000486992
0.000501654
0.000516578
0.000531764
0.000547213
0.000562926
0.000578905
0.00059515
0.000611661
0.000628441
0.000645488
0.000662804
0.000680389
0.000698244
0.000716368
0.000734763
0.000753428
0.000772363
0.000791568
0.000811044
0.000830791
0.000850807
0.000871094
0.000891651
0.000912479
0.000933577
0.000954946
0.000976587
0.000998501
0.00102069
0.00104316
0.00106591
0.00108896
0.00111233
0.00113605
0.00116015
0.00118472
0.00120986
0.00123571
0.00126247
0.00129035
0.0013196
0.00135038
-1.43156e-06
-1.73488e-06
-1.7655e-06
-1.64165e-06
-1.37441e-06
-9.58927e-07
-3.9544e-07
3.1529e-07
1.17339e-06
2.17937e-06
3.33377e-06
4.63714e-06
6.09005e-06
7.6932e-06
9.44731e-06
1.13532e-05
1.34117e-05
1.56236e-05
1.79897e-05
2.05111e-05
2.31885e-05
2.60231e-05
2.90159e-05
3.21681e-05
3.54808e-05
3.89553e-05
4.25927e-05
4.63945e-05
5.03621e-05
5.44967e-05
5.88e-05
6.32733e-05
6.79183e-05
7.27364e-05
7.77295e-05
8.28991e-05
8.82471e-05
9.37753e-05
9.94854e-05
0.000105379
0.000111459
0.000117727
0.000124183
0.000130832
0.000137674
0.000144712
0.000151947
0.000159382
0.000167019
0.000174859
0.000182906
0.000191161
0.000199626
0.000208304
0.000217197
0.000226306
0.000235634
0.000245184
0.000254957
0.000264955
0.000275181
0.000285637
0.000296325
0.000307246
0.000318404
0.000329799
0.000341434
0.000353312
0.000365433
0.0003778
0.000390415
0.00040328
0.000416395
0.000429764
0.000443386
0.000457265
0.000471402
0.000485798
0.000500454
0.000515371
0.00053055
0.000545994
0.000561703
0.000577677
0.000593918
0.000610426
0.000627203
0.000644247
0.000661561
0.000679145
0.000696999
0.000715123
0.000733517
0.000752182
0.000771119
0.000790325
0.000809803
0.000829552
0.000849571
0.000869862
0.000890424
0.000911257
0.000932362
0.00095374
0.000975392
0.00099732
0.00101953
0.00104202
0.0010648
0.0010879
0.00111131
0.00113509
0.00115926
0.00118389
0.00120907
0.00123489
0.00126148
0.00128896
0.00131739
0.00134675
-2.17741e-06
-2.49835e-06
-2.53665e-06
-2.41695e-06
-2.15201e-06
-1.73761e-06
-1.17449e-06
-4.63861e-07
3.93957e-07
1.39917e-06
2.55222e-06
3.85365e-06
5.30406e-06
6.90415e-06
8.6547e-06
1.05565e-05
1.26104e-05
1.48174e-05
1.71781e-05
1.96937e-05
2.2365e-05
2.51931e-05
2.8179e-05
3.13239e-05
3.4629e-05
3.80955e-05
4.17247e-05
4.55179e-05
4.94765e-05
5.36019e-05
5.78956e-05
6.2359e-05
6.69939e-05
7.18017e-05
7.67841e-05
8.19428e-05
8.72796e-05
9.27964e-05
9.84949e-05
0.000104377
0.000110445
0.0001167
0.000123144
0.00012978
0.00013661
0.000143634
0.000150857
0.000158278
0.000165902
0.000173729
0.000181763
0.000190004
0.000198456
0.00020712
0.000215999
0.000225095
0.00023441
0.000243946
0.000253706
0.000263691
0.000273903
0.000284346
0.00029502
0.000305929
0.000317074
0.000328457
0.00034008
0.000351945
0.000364055
0.00037641
0.000389014
0.000401868
0.000414973
0.000428331
0.000441944
0.000455814
0.000469942
0.000484329
0.000498977
0.000513887
0.00052906
0.000544498
0.000560201
0.00057617
0.000592406
0.00060891
0.000625683
0.000642725
0.000660037
0.000677619
0.000695472
0.000713595
0.00073199
0.000750655
0.000769593
0.000788801
0.000808281
0.000828032
0.000848055
0.00086835
0.000888916
0.000909755
0.000930867
0.000952253
0.000973914
0.000995853
0.00101808
0.00104058
0.00106339
0.00108651
0.00110996
0.00113376
0.00115795
0.00118258
0.00120771
0.00123341
0.00125973
0.00128673
0.0013144
0.00134262
-3.09521e-06
-3.42751e-06
-3.47186e-06
-3.35606e-06
-3.09364e-06
-2.68098e-06
-2.11924e-06
-1.40988e-06
-5.53438e-07
4.50045e-07
1.60086e-06
2.89951e-06
4.34659e-06
5.94283e-06
7.689e-06
9.58595e-06
1.16345e-05
1.38356e-05
1.61901e-05
1.8699e-05
2.13631e-05
2.41836e-05
2.71615e-05
3.0298e-05
3.35943e-05
3.70516e-05
4.06712e-05
4.44545e-05
4.84028e-05
5.25175e-05
5.68002e-05
6.12524e-05
6.58756e-05
7.06714e-05
7.56415e-05
8.07877e-05
8.61117e-05
9.16154e-05
9.73005e-05
0.000103169
0.000109223
0.000115464
0.000121894
0.000128515
0.00013533
0.00014234
0.000149547
0.000156954
0.000164562
0.000172375
0.000180393
0.000188619
0.000197055
0.000205703
0.000214567
0.000223647
0.000232946
0.000242467
0.000252211
0.00026218
0.000272378
0.000282805
0.000293465
0.000304359
0.000315489
0.000326857
0.000338466
0.000350318
0.000362414
0.000374757
0.000387347
0.000400188
0.000413281
0.000426628
0.000440231
0.00045409
0.000468208
0.000482586
0.000497225
0.000512127
0.000527292
0.000542722
0.000558419
0.000574382
0.000590614
0.000607113
0.000623882
0.000640921
0.00065823
0.000675811
0.000693662
0.000711785
0.00073018
0.000748846
0.000767784
0.000786995
0.000806477
0.000826231
0.000846258
0.000866556
0.000887127
0.000907971
0.000929088
0.00095048
0.000972149
0.000994097
0.00101633
0.00103885
0.00106167
0.00108479
0.00110825
0.00113204
0.00115622
0.0011808
0.00120582
0.00123133
0.00125734
0.00128386
0.00131084
0.00133815
-4.1855e-06
-4.52458e-06
-4.57335e-06
-4.46104e-06
-4.20124e-06
-3.79068e-06
-3.23095e-06
-2.52369e-06
-1.66955e-06
-6.68681e-07
4.79076e-07
1.77415e-06
3.21714e-06
4.80874e-06
6.54975e-06
8.44102e-06
1.04834e-05
1.26778e-05
1.50251e-05
1.75263e-05
2.01822e-05
2.29941e-05
2.59628e-05
2.90898e-05
3.2376e-05
3.58229e-05
3.94317e-05
4.32038e-05
4.71404e-05
5.12431e-05
5.55133e-05
5.99527e-05
6.45626e-05
6.93449e-05
7.43012e-05
7.94332e-05
8.47427e-05
9.02315e-05
9.59015e-05
0.000101755
0.000107793
0.000114018
0.000120432
0.000127037
0.000133835
0.000140828
0.000148018
0.000155408
0.000162999
0.000170794
0.000178795
0.000187003
0.000195422
0.000204053
0.000212898
0.000221961
0.000231243
0.000240745
0.000250472
0.000260424
0.000270604
0.000281014
0.000291657
0.000302534
0.000313648
0.000325
0.000336593
0.000348429
0.00036051
0.000372838
0.000385414
0.000398242
0.000411321
0.000424655
0.000438245
0.000452093
0.000466199
0.000480567
0.000495196
0.000510088
0.000525245
0.000540667
0.000556356
0.000572313
0.000588539
0.000605034
0.000621799
0.000638834
0.000656141
0.000673719
0.000691569
0.000709692
0.000728086
0.000746753
0.000765693
0.000784905
0.00080439
0.000824147
0.000844177
0.00086448
0.000885055
0.000905903
0.000927025
0.000948422
0.000970095
0.000992047
0.00101428
0.0010368
0.00105962
0.00108274
0.00110618
0.00112995
0.00115407
0.00117856
0.00120345
0.00122873
0.00125443
0.0012805
0.00130689
0.00133348
-5.44766e-06
-5.79061e-06
-5.84235e-06
-5.733e-06
-5.47588e-06
-5.06773e-06
-4.51045e-06
-3.80589e-06
-2.95476e-06
-1.95727e-06
-8.13344e-07
4.77411e-07
1.91556e-06
3.50178e-06
5.23686e-06
7.12165e-06
9.15701e-06
1.13438e-05
1.3683e-05
1.61755e-05
1.88222e-05
2.16243e-05
2.45828e-05
2.7699e-05
3.09741e-05
3.44093e-05
3.8006e-05
4.17654e-05
4.56891e-05
4.97783e-05
5.40346e-05
5.84596e-05
6.30549e-05
6.7822e-05
7.27628e-05
7.78789e-05
8.31722e-05
8.86445e-05
9.42976e-05
0.000100134
0.000106154
0.000112361
0.000118757
0.000125344
0.000132124
0.000139098
0.000146269
0.00015364
0.000161212
0.000168987
0.000176968
0.000185157
0.000193556
0.000202168
0.000210993
0.000220036
0.000229298
0.000238781
0.000248488
0.000258421
0.000268582
0.000278973
0.000289597
0.000300455
0.00031155
0.000322885
0.00033446
0.000346279
0.000358343
0.000370654
0.000383214
0.000396026
0.000409091
0.00042241
0.000435986
0.000449821
0.000463915
0.000478271
0.000492889
0.00050777
0.000522918
0.000538332
0.000554013
0.000569963
0.000586182
0.000602671
0.000619431
0.000636463
0.000653767
0.000671343
0.000689192
0.000707314
0.000725709
0.000744377
0.000763318
0.000782532
0.00080202
0.00082178
0.000841814
0.00086212
0.000882699
0.000903551
0.000924677
0.000946076
0.000967752
0.000989704
0.00101194
0.00103445
0.00105726
0.00108036
0.00110377
0.00112749
0.00115154
0.00117592
0.00120065
0.00122571
0.0012511
0.00127677
0.00130267
0.00132868
-6.88048e-06
-7.22573e-06
-7.27946e-06
-7.1725e-06
-6.91801e-06
-6.51254e-06
-5.9581e-06
-5.25671e-06
-4.40918e-06
-3.41574e-06
-2.27632e-06
-9.90592e-07
4.41982e-07
2.02208e-06
3.75047e-06
5.62797e-06
7.65545e-06
9.83378e-06
1.21639e-05
1.46466e-05
1.72831e-05
2.00743e-05
2.30215e-05
2.61258e-05
2.93884e-05
3.28108e-05
3.63941e-05
4.01396e-05
4.40488e-05
4.81232e-05
5.23642e-05
5.67733e-05
6.13523e-05
6.61028e-05
7.10264e-05
7.6125e-05
8.14003e-05
8.68544e-05
9.24889e-05
9.83059e-05
0.000104307
0.000110495
0.000116871
0.000123437
0.000130196
0.00013715
0.000144301
0.00015165
0.000159201
0.000166955
0.000174914
0.000183081
0.000191458
0.000200048
0.000208852
0.000217873
0.000227113
0.000236574
0.00024626
0.000256171
0.00026631
0.00027668
0.000287283
0.000298121
0.000309196
0.00032051
0.000332066
0.000343866
0.000355911
0.000368204
0.000380747
0.000393542
0.00040659
0.000419894
0.000433455
0.000447274
0.000461355
0.000475697
0.000490303
0.000505174
0.00052031
0.000535714
0.000551387
0.000567329
0.000583541
0.000600025
0.00061678
0.000633808
0.000651109
0.000668683
0.000686531
0.000704652
0.000723047
0.000741716
0.000760659
0.000779876
0.000799367
0.00081913
0.000839168
0.000859478
0.00088006
0.000900916
0.000922044
0.000943445
0.00096512
0.00098707
0.0010093
0.0010318
0.00105459
0.00107767
0.00110104
0.0011247
0.00114866
0.00117292
0.00119748
0.00122233
0.00124744
0.00127277
0.00129825
0.00132381
-8.48271e-06
-8.82945e-06
-8.88469e-06
-8.77972e-06
-8.52774e-06
-8.12515e-06
-7.57391e-06
-6.87613e-06
-6.0327e-06
-5.04387e-06
-3.90959e-06
-2.62955e-06
-1.20326e-06
3.69972e-07
2.09089e-06
3.9603e-06
5.97904e-06
8.14796e-06
1.0468e-05
1.294e-05
1.55651e-05
1.83444e-05
2.12791e-05
2.43704e-05
2.76195e-05
3.10276e-05
3.45962e-05
3.83265e-05
4.22199e-05
4.6278e-05
5.05021e-05
5.4894e-05
5.94551e-05
6.41872e-05
6.90921e-05
7.41715e-05
7.94273e-05
8.48613e-05
9.04755e-05
9.62716e-05
0.000102252
0.000108418
0.000114772
0.000121316
0.000128053
0.000134984
0.000142112
0.000149438
0.000156965
0.000164695
0.000172631
0.000180775
0.000189128
0.000197694
0.000206474
0.000215471
0.000224687
0.000234124
0.000243786
0.000253673
0.00026379
0.000274137
0.000284717
0.000295532
0.000306585
0.000317877
0.000329412
0.00034119
0.000353215
0.000365488
0.000378012
0.000390787
0.000403818
0.000417104
0.000430648
0.000444452
0.000458518
0.000472846
0.000487438
0.000502296
0.000517422
0.000532815
0.000548478
0.000564412
0.000580617
0.000597094
0.000613844
0.000630868
0.000648165
0.000665737
0.000683584
0.000701705
0.0007201
0.000738771
0.000757716
0.000776936
0.00079643
0.000816197
0.000836238
0.000856552
0.000877139
0.000897997
0.000919127
0.000940529
0.000962203
0.000984149
0.00100637
0.00102886
0.00105163
0.00107467
0.00109799
0.00112159
0.00114546
0.0011696
0.00119401
0.00121866
0.00124352
0.00126856
0.00129371
0.00131891
-1.02533e-05
-1.0601e-05
-1.06576e-05
-1.05545e-05
-1.03049e-05
-9.90535e-06
-9.35763e-06
-8.66385e-06
-7.82498e-06
-6.8413e-06
-5.71276e-06
-4.43906e-06
-3.01972e-06
-1.4541e-06
2.5857e-07
2.11906e-06
4.12818e-06
6.28678e-06
8.59575e-06
1.10561e-05
1.36688e-05
1.64352e-05
1.93562e-05
2.24333e-05
2.56676e-05
2.90603e-05
3.26128e-05
3.63265e-05
4.02028e-05
4.42431e-05
4.84489e-05
5.28218e-05
5.73636e-05
6.20758e-05
6.69603e-05
7.20188e-05
7.72533e-05
8.26656e-05
8.82576e-05
9.40311e-05
9.99883e-05
0.000106131
0.000112462
0.000118982
0.000125694
0.0001326
0.000139703
0.000147004
0.000154505
0.00016221
0.00017012
0.000178238
0.000186565
0.000195105
0.000203859
0.000212829
0.000222019
0.000231431
0.000241067
0.000250929
0.00026102
0.000271341
0.000281896
0.000292687
0.000303715
0.000314984
0.000326495
0.000338251
0.000350254
0.000362505
0.000375007
0.000387763
0.000400773
0.000414041
0.000427567
0.000441354
0.000455402
0.000469715
0.000484293
0.000499138
0.000514251
0.000529633
0.000545286
0.000561211
0.000577408
0.000593878
0.000610623
0.000627642
0.000644936
0.000662505
0.00068035
0.000698471
0.000716868
0.00073554
0.000754488
0.000773711
0.000793209
0.000812981
0.000833026
0.000853345
0.000873935
0.000894797
0.00091593
0.000937333
0.000959005
0.000980946
0.00100316
0.00102563
0.00104838
0.00107138
0.00109466
0.00111819
0.00114198
0.00116601
0.00119028
0.00121475
0.00123941
0.00126421
0.00128909
0.001314
-1.21914e-05
-1.25395e-05
-1.25975e-05
-1.24963e-05
-1.22492e-05
-1.18528e-05
-1.13088e-05
-1.06194e-05
-9.78556e-06
-8.80754e-06
-7.68532e-06
-6.4186e-06
-5.0069e-06
-3.44959e-06
-1.74595e-06
1.04778e-07
2.1034e-06
4.25075e-06
6.54773e-06
8.99536e-06
1.15947e-05
1.4347e-05
1.72533e-05
2.0315e-05
2.35333e-05
2.69093e-05
3.04445e-05
3.41402e-05
3.79978e-05
4.20189e-05
4.62049e-05
5.05574e-05
5.50782e-05
5.97689e-05
6.46313e-05
6.96674e-05
7.48788e-05
8.02676e-05
8.58355e-05
9.15846e-05
9.75169e-05
0.000103634
0.000109939
0.000116433
0.000123119
0.000129999
0.000137074
0.000144348
0.000151822
0.000159499
0.000167381
0.00017547
0.00018377
0.000192281
0.000201007
0.000209949
0.000219111
0.000228495
0.000238102
0.000247936
0.000258
0.000268294
0.000278822
0.000289586
0.000300588
0.000311831
0.000323317
0.000335048
0.000347026
0.000359254
0.000371734
0.000384467
0.000397456
0.000410703
0.000424209
0.000437977
0.000452009
0.000466305
0.000480867
0.000495698
0.000510797
0.000526167
0.000541809
0.000557724
0.000573912
0.000590375
0.000607114
0.000624128
0.000641419
0.000658986
0.00067683
0.000694951
0.000713349
0.000732024
0.000750975
0.000770202
0.000789704
0.000809481
0.000829532
0.000849856
0.000870452
0.000891318
0.000912455
0.000933859
0.000955531
0.000977467
0.000999667
0.00102213
0.00104485
0.00106783
0.00109105
0.00111453
0.00113824
0.00116217
0.00118632
0.00121065
0.00123513
0.00125973
0.00128441
0.00130909
-1.42961e-05
-1.46445e-05
-1.47037e-05
-1.46045e-05
-1.436e-05
-1.39669e-05
-1.3427e-05
-1.27423e-05
-1.19139e-05
-1.0942e-05
-9.82667e-06
-8.56755e-06
-7.16417e-06
-5.6159e-06
-3.92207e-06
-2.08192e-06
-9.4687e-08
2.04049e-06
4.32453e-06
6.75847e-06
9.34343e-06
1.20806e-05
1.49711e-05
1.80162e-05
2.12172e-05
2.45752e-05
2.80916e-05
3.1768e-05
3.56056e-05
3.96059e-05
4.37706e-05
4.81013e-05
5.25995e-05
5.72671e-05
6.21058e-05
6.71176e-05
7.23043e-05
7.76677e-05
8.32098e-05
8.89325e-05
9.48379e-05
0.000100928
0.000107205
0.000113671
0.000120329
0.000127179
0.000134226
0.00014147
0.000148914
0.000156561
0.000164413
0.000172473
0.000180742
0.000189222
0.000197918
0.00020683
0.000215961
0.000225315
0.000234892
0.000244696
0.000254729
0.000264994
0.000275493
0.000286228
0.000297202
0.000308417
0.000319876
0.00033158
0.000343532
0.000355735
0.00036819
0.000380899
0.000393865
0.00040709
0.000420575
0.000434323
0.000448335
0.000462613
0.000477159
0.000491974
0.000507059
0.000522416
0.000538046
0.00055395
0.00057013
0.000586585
0.000603317
0.000620326
0.000637613
0.000655178
0.000673022
0.000691143
0.000709543
0.00072822
0.000747175
0.000766407
0.000785915
0.000805699
0.000825756
0.000846087
0.000866689
0.000887562
0.000908703
0.000930111
0.000951783
0.000973718
0.000995911
0.00101836
0.00104106
0.00106401
0.0010872
0.00111062
0.00113427
0.00115812
0.00118216
0.00120637
0.00123072
0.00125517
0.00127968
0.00130421
-1.65666e-05
-1.6915e-05
-1.69755e-05
-1.68783e-05
-1.66366e-05
-1.6247e-05
-1.57114e-05
-1.50319e-05
-1.42093e-05
-1.32441e-05
-1.21361e-05
-1.08852e-05
-9.49084e-06
-7.95234e-06
-6.26908e-06
-4.44035e-06
-2.46538e-06
-3.43292e-07
1.92686e-06
4.34614e-06
6.91568e-06
9.63663e-06
1.25102e-05
1.55375e-05
1.87199e-05
2.20586e-05
2.5555e-05
2.92106e-05
3.30267e-05
3.70049e-05
4.11468e-05
4.54539e-05
4.9928e-05
5.45708e-05
5.93843e-05
6.43701e-05
6.95302e-05
7.48664e-05
8.03807e-05
8.60752e-05
9.19518e-05
9.80128e-05
0.00010426
0.000110696
0.000117323
0.000124143
0.000131158
0.00013837
0.000145783
0.000153398
0.000161218
0.000169245
0.000177481
0.000185929
0.000194592
0.000203471
0.00021257
0.000221891
0.000231436
0.000241207
0.000251209
0.000261442
0.000271909
0.000282613
0.000293557
0.000304742
0.000316171
0.000327847
0.000339771
0.000351946
0.000364374
0.000377058
0.000389999
0.0004032
0.000416663
0.000430389
0.000444381
0.00045864
0.000473167
0.000487965
0.000503035
0.000518378
0.000533996
0.000549889
0.000566058
0.000582506
0.000599231
0.000616235
0.000633518
0.000651081
0.000668924
0.000687046
0.000705448
0.00072413
0.000743089
0.000762327
0.000781842
0.000801633
0.000821699
0.000842038
0.000862649
0.00088353
0.000904678
0.000926092
0.000947768
0.000969703
0.000991894
0.00101434
0.00103702
0.00105995
0.00108311
0.00110649
0.00113008
0.00115387
0.00117784
0.00120195
0.0012262
0.00125053
0.00127493
0.00129933
-1.90018e-05
-1.93505e-05
-1.94121e-05
-1.93171e-05
-1.90784e-05
-1.86925e-05
-1.81614e-05
-1.74873e-05
-1.66711e-05
-1.5713e-05
-1.4613e-05
-1.33709e-05
-1.19861e-05
-1.04581e-05
-8.78623e-06
-6.96975e-06
-5.0079e-06
-2.89981e-06
-6.44494e-07
1.75914e-06
4.31221e-06
7.01588e-06
9.8713e-06
1.28797e-05
1.60422e-05
1.93603e-05
2.28353e-05
2.64686e-05
3.02618e-05
3.42164e-05
3.83339e-05
4.2616e-05
4.70644e-05
5.16808e-05
5.64672e-05
6.14253e-05
6.6557e-05
7.18642e-05
7.73488e-05
8.30131e-05
8.8859e-05
9.48888e-05
0.000101105
0.000107508
0.000114102
0.000120889
0.00012787
0.000135049
0.000142428
0.000150009
0.000157794
0.000165786
0.000173988
0.000182401
0.000191028
0.000199873
0.000208937
0.000218223
0.000227733
0.00023747
0.000247437
0.000257636
0.00026807
0.000278741
0.000289652
0.000300805
0.000312202
0.000323847
0.000335741
0.000347887
0.000360287
0.000372943
0.000385858
0.000399033
0.000412472
0.000426175
0.000440144
0.000454383
0.000468891
0.000483671
0.000498724
0.000514052
0.000529657
0.000545538
0.000561697
0.000578135
0.000594854
0.000611853
0.000629132
0.000646693
0.000664536
0.00068266
0.000701065
0.00071975
0.000738716
0.000757961
0.000777484
0.000797285
0.00081736
0.00083771
0.000858332
0.000879224
0.000900382
0.000921805
0.000943488
0.000965428
0.000987621
0.00101006
0.00103274
0.00105566
0.00107879
0.00110215
0.0011257
0.00114944
0.00117335
0.0011974
0.00122157
0.00124583
0.00127014
0.00129447
-2.16007e-05
-2.19498e-05
-2.20127e-05
-2.19199e-05
-2.16843e-05
-2.13024e-05
-2.07763e-05
-2.0108e-05
-1.92984e-05
-1.83479e-05
-1.72565e-05
-1.60237e-05
-1.46493e-05
-1.31325e-05
-1.14727e-05
-9.66928e-06
-7.72144e-06
-5.62825e-06
-3.38872e-06
-1.00173e-06
1.53382e-06
4.21908e-06
7.05519e-06
1.00433e-05
1.31848e-05
1.64809e-05
1.99331e-05
2.35429e-05
2.73117e-05
3.12412e-05
3.53328e-05
3.95882e-05
4.40092e-05
4.85976e-05
5.33551e-05
5.82837e-05
6.33852e-05
6.86614e-05
7.41146e-05
7.97467e-05
8.55599e-05
9.15564e-05
9.77383e-05
0.000104108
0.000110667
0.000117418
0.000124364
0.000131507
0.00013885
0.000146394
0.000154142
0.000162098
0.000170262
0.000178638
0.000187228
0.000196035
0.000205062
0.00021431
0.000223783
0.000233484
0.000243414
0.000253577
0.000263975
0.00027461
0.000285486
0.000296605
0.000307969
0.000319581
0.000331443
0.000343557
0.000355927
0.000368553
0.00038144
0.000394588
0.000408
0.000421678
0.000435624
0.000449841
0.000464328
0.000479089
0.000494125
0.000509437
0.000525027
0.000540895
0.000557044
0.000573473
0.000590184
0.000607178
0.000624454
0.000642013
0.000659856
0.000677982
0.00069639
0.000715082
0.000734054
0.000753308
0.000772841
0.000792652
0.000812741
0.000833104
0.000853739
0.000874644
0.000895816
0.000917252
0.000938947
0.000960898
0.000983098
0.00100554
0.00102822
0.00105113
0.00107426
0.0010976
0.00112113
0.00114485
0.00116872
0.00119273
0.00121685
0.00124106
0.00126533
0.00128961
-2.43625e-05
-2.47121e-05
-2.47764e-05
-2.46859e-05
-2.44536e-05
-2.4076e-05
-2.35551e-05
-2.28929e-05
-2.20905e-05
-2.11481e-05
-2.00656e-05
-1.88429e-05
-1.74793e-05
-1.59744e-05
-1.43276e-05
-1.25381e-05
-1.06051e-05
-8.52775e-06
-6.30495e-06
-3.93562e-06
-1.41866e-06
1.24705e-06
4.06268e-06
7.0294e-06
1.01485e-05
1.34214e-05
1.68494e-05
2.04342e-05
2.41772e-05
2.80799e-05
3.21441e-05
3.63712e-05
4.07632e-05
4.53218e-05
5.00487e-05
5.4946e-05
6.00153e-05
6.52588e-05
7.06785e-05
7.62765e-05
8.2055e-05
8.80161e-05
9.41621e-05
0.000100495
0.000107017
0.000113732
0.00012064
0.000127745
0.000135048
0.000142554
0.000150263
0.000158179
0.000166303
0.00017464
0.00018319
0.000191958
0.000200944
0.000210153
0.000219587
0.000229248
0.000239139
0.000249264
0.000259623
0.000270221
0.00028106
0.000292142
0.00030347
0.000315047
0.000326874
0.000338955
0.000351292
0.000363887
0.000376743
0.000389862
0.000403247
0.000416898
0.000430819
0.000445012
0.000459478
0.000474218
0.000489235
0.00050453
0.000520105
0.00053596
0.000552097
0.000568517
0.00058522
0.000602208
0.000619481
0.000637039
0.000654882
0.000673011
0.000691424
0.000710121
0.000729102
0.000748366
0.000767911
0.000787736
0.000807839
0.000828218
0.00084887
0.000869792
0.000890982
0.000912435
0.000934147
0.000956113
0.000978328
0.00100079
0.00102348
0.00104639
0.00106953
0.00109286
0.00111639
0.00114009
0.00116394
0.00118794
0.00121204
0.00123623
0.00126048
0.00128476
-2.72861e-05
-2.76363e-05
-2.77021e-05
-2.76141e-05
-2.73853e-05
-2.70122e-05
-2.64968e-05
-2.58412e-05
-2.50463e-05
-2.41124e-05
-2.30396e-05
-2.18274e-05
-2.04754e-05
-1.89832e-05
-1.735e-05
-1.55753e-05
-1.3658e-05
-1.15974e-05
-9.39229e-06
-7.04166e-06
-4.54438e-06
-1.89934e-06
8.94606e-07
3.83867e-06
6.93415e-06
1.01824e-05
1.3585e-05
1.71433e-05
2.0859e-05
2.47335e-05
2.87686e-05
3.29659e-05
3.73271e-05
4.18541e-05
4.65486e-05
5.14127e-05
5.64481e-05
6.16569e-05
6.70412e-05
7.2603e-05
7.83447e-05
8.42683e-05
9.03762e-05
9.66706e-05
0.000103154
0.000109828
0.000116697
0.000123761
0.000131024
0.000138488
0.000146156
0.00015403
0.000162112
0.000170407
0.000178915
0.00018764
0.000196585
0.000205752
0.000215143
0.000224763
0.000234613
0.000244696
0.000255015
0.000265572
0.000276371
0.000287415
0.000298704
0.000310244
0.000322034