/*--------------------------------*- C++ -*----------------------------------*\
  =========                 |
  \\      /  F ield         | OpenFOAM: The Open Source CFD Toolbox
   \\    /   O peration     | Website:  https://openfoam.org
    \\  /    A nd           | Version:  8
     \\/     M anipulation  |
\*---------------------------------------------------------------------------*/
FoamFile
{
    version     2.0;
    format      ascii;
    class       volScalarField;
    location    "0.11";
    object      p;
}
// * * * * * * * * * * * * * * * * * * * * * * * * * * * * * * * * * * * * * //

dimensions      [0 2 -2 0 0 0 0];

internalField   nonuniform List<scalar> 
400
(
-1.17464e-07
-0.0057354
-0.0127726
-0.0181534
-0.0201376
-0.0179515
-0.0115356
-0.00133127
0.0118738
0.0270497
0.0430031
0.0584494
0.0720977
0.0827593
0.0894853
0.0917363
0.0895815
0.0839166
0.0766756
0.0709552
0.00567561
-0.000246305
-0.00576631
-0.00945903
-0.0104917
-0.00832562
-0.0028882
0.00550651
0.016266
0.0285927
0.0415444
0.0541001
0.0652364
0.0740214
0.0797268
0.0819552
0.0807837
0.0768488
0.0711601
0.0652949
0.0130965
0.00489447
-0.00107099
-0.00445749
-0.00528124
-0.00326232
0.00159613
0.00899634
0.0184311
0.0292284
0.0405901
0.0516424
0.0614998
0.0693448
0.0745187
0.0766233
0.0756481
0.0719715
0.0657822
0.0576288
0.0197622
0.00845323
0.00105818
-0.00278809
-0.00380727
-0.00194856
0.00267626
0.00972411
0.0187022
0.0289893
0.0398524
0.0504798
0.0600307
0.0677003
0.0727961
0.0748294
0.0736533
0.0694213
0.0616663
0.0503124
0.0240183
0.00945488
0.000356994
-0.00416343
-0.00543407
-0.00360527
0.00109954
0.00827118
0.0173996
0.027877
0.0389944
0.0499569
0.0599167
0.0680247
0.0734961
0.0757008
0.0743284
0.0693244
0.0596629
0.0448455
0.0246486
0.00680201
-0.00406047
-0.00925389
-0.010656
-0.00859951
-0.00342079
0.00439192
0.0142916
0.025661
0.0377882
0.0498633
0.0609932
0.0702402
0.076678
0.0794869
0.0781583
0.0724227
0.0607298
0.0422654
0.0205903
-0.000586944
-0.013175
-0.0188874
-0.0201503
-0.0174822
-0.0113408
-0.00230424
0.00903287
0.0220321
0.0359654
0.0499897
0.0631424
0.0743624
0.0825361
0.0865987
0.0857879
0.0795743
0.0658399
0.0434774
0.0107355
-0.0138677
-0.0280563
-0.0339781
-0.0346691
-0.0308667
-0.0231692
-0.0122551
0.00123057
0.0166305
0.0332037
0.050075
0.0662052
0.0803895
0.0912842
0.0975131
0.097976
0.0917868
0.0761213
0.0495162
-0.00622001
-0.0343986
-0.0499591
-0.0555907
-0.0550781
-0.0494457
-0.0394679
-0.025935
-0.00953608
0.00907085
0.0291563
0.0498372
0.0700147
0.0883376
0.103199
0.112834
0.115687
0.110353
0.0930423
0.0617713
-0.0319171
-0.0638638
-0.0803948
-0.0849531
-0.0823201
-0.0739247
-0.0607689
-0.0437669
-0.023633
-0.000986541
0.0235053
0.0490061
0.0744058
0.0982353
0.118611
0.133303
0.140148
0.136978
0.11861
0.0822236
-0.0685238
-0.10444
-0.12121
-0.123442
-0.117333
-0.104897
-0.08743
-0.0659752
-0.0412319
-0.0137137
0.0160583
0.0473881
0.0792475
0.110126
0.137892
0.159797
0.1729
0.173923
0.155633
0.113767
-0.119078
-0.159061
-0.174687
-0.172537
-0.160908
-0.142649
-0.119422
-0.092373
-0.0621118
-0.0289394
0.00689455
0.0449747
0.084506
0.124084
0.161439
0.193316
0.21584
0.224195
0.208091
0.160718
-0.188178
-0.231856
-0.243658
-0.233697
-0.21344
-0.186869
-0.15603
-0.122086
-0.0854121
-0.0459361
-0.00346109
0.042071
0.0903183
0.140226
0.189627
0.234911
0.271224
0.29174
0.281701
0.229746
-0.283482
-0.328894
-0.331555
-0.308054
-0.274496
-0.236205
-0.195471
-0.153236
-0.109384
-0.0632283
-0.0138974
0.0393834
0.0970139
0.158649
0.222648
0.285466
0.341495
0.381591
0.384785
0.331693
-0.418881
-0.459318
-0.442148
-0.395655
-0.34202
-0.287615
-0.234428
-0.182649
-0.131233
-0.0785344
-0.0227311
0.0379406
0.104955
0.179146
0.260062
0.345068
0.428632
0.499642
0.529468
0.485152
-0.620233
-0.636527
-0.57861
-0.494201
-0.41129
-0.335694
-0.267744
-0.205833
-0.147279
-0.0890362
-0.0280349
0.0387288
0.114126
0.200692
0.300079
0.412018
0.532935
0.651617
0.732492
0.722076
-0.935786
-0.878476
-0.741817
-0.598119
-0.47463
-0.372882
-0.289006
-0.217776
-0.153837
-0.0922404
-0.0284326
0.0419834
0.123498
0.220856
0.338944
0.482047
0.651765
0.84102
1.0149
1.0971
-1.47599
-1.20718
-0.920712
-0.691638
-0.517687
-0.387924
-0.29035
-0.213494
-0.14814
-0.0871099
-0.0243928
0.0456645
0.129107
0.233154
0.367067
0.542493
0.7709
1.05888
1.4033
1.72913
-2.53616
-1.6337
-1.04502
-0.711132
-0.496155
-0.35255
-0.254916
-0.183848
-0.126291
-0.0735818
-0.0191567
0.0429478
0.119357
0.218851
0.354758
0.547745
0.825877
1.23649
1.91433
2.91962
-4.36021
-2.0474
-0.97443
-0.563731
-0.358658
-0.240993
-0.170846
-0.124325
-0.0878076
-0.0536194
-0.0165721
0.0278796
0.084902
0.162039
0.272684
0.442254
0.718136
1.22597
2.41313
4.84118
)
;

boundaryField
{
    movingWall
    {
        type            zeroGradient;
    }
    fixedWalls
    {
        type            zeroGradient;
    }
    frontAndBack
    {
        type            empty;
    }
}


// ************************************************************************* //
