/*--------------------------------*- C++ -*----------------------------------*\
  =========                 |
  \\      /  F ield         | OpenFOAM: The Open Source CFD Toolbox
   \\    /   O peration     | Website:  https://openfoam.org
    \\  /    A nd           | Version:  8
     \\/     M anipulation  |
\*---------------------------------------------------------------------------*/
FoamFile
{
    version     2.0;
    format      ascii;
    class       surfaceScalarField;
    location    "0.11";
    object      phi;
}
// * * * * * * * * * * * * * * * * * * * * * * * * * * * * * * * * * * * * * //

dimensions      [0 3 -1 0 0 0 0];

internalField   nonuniform List<scalar> 
760
(
1.41346e-08
-1.41345e-08
-2.15237e-08
3.56589e-08
-1.11952e-07
9.0428e-08
-2.41012e-07
1.2906e-07
-3.89226e-07
1.48214e-07
-5.38141e-07
1.48914e-07
-6.71878e-07
1.33738e-07
-7.77722e-07
1.05844e-07
-8.46254e-07
6.85314e-08
-8.71394e-07
2.51406e-08
-8.5054e-07
-2.08533e-08
-7.84808e-07
-6.57318e-08
-6.79326e-07
-1.05481e-07
-5.43476e-07
-1.35851e-07
-3.90898e-07
-1.52577e-07
-2.39051e-07
-1.51847e-07
-1.07977e-07
-1.31074e-07
-1.79584e-08
-9.00192e-08
1.55652e-08
-3.35237e-08
1.55652e-08
-3.36726e-08
1.95386e-08
-1.77455e-07
1.79441e-07
-4.2689e-07
3.39863e-07
-7.51918e-07
4.54087e-07
-1.11368e-06
5.09975e-07
-1.47274e-06
5.07972e-07
-1.79349e-06
4.54496e-07
-2.04651e-06
3.58863e-07
-2.20963e-06
2.31648e-07
-2.26859e-06
8.41031e-08
-2.21756e-06
-7.18807e-08
-2.05965e-06
-2.23648e-07
-1.80734e-06
-3.57791e-07
-1.48268e-06
-4.60507e-07
-1.11677e-06
-5.18483e-07
-7.48091e-07
-5.20531e-07
-4.19024e-07
-4.60142e-07
-1.70039e-07
-3.39005e-07
-3.02509e-08
-1.73312e-07
-1.46849e-08
-9.10063e-08
1.10544e-07
-3.51839e-07
4.40274e-07
-7.53081e-07
7.41104e-07
-1.24902e-06
9.50026e-07
-1.78644e-06
1.04739e-06
-2.31208e-06
1.03362e-06
-2.7777e-06
9.20117e-07
-3.14312e-06
7.24281e-07
-3.37796e-06
4.66482e-07
-3.46265e-06
1.68802e-07
-3.38927e-06
-1.45267e-07
-3.16213e-06
-4.50788e-07
-2.79838e-06
-7.21542e-07
-2.32806e-06
-9.3082e-07
-1.79334e-06
-1.05321e-06
-1.24614e-06
-1.06773e-06
-7.4379e-07
-9.6249e-07
-3.4211e-07
-7.40684e-07
-8.61323e-08
-4.2929e-07
-1.00817e-07
-1.43246e-07
2.53791e-07
-5.18147e-07
8.15174e-07
-1.06625e-06
1.2892e-06
-1.72222e-06
1.606e-06
-2.41831e-06
1.74348e-06
-3.08982e-06
1.70513e-06
-3.67939e-06
1.50968e-06
-4.13969e-06
1.18458e-06
-4.43509e-06
7.61886e-07
-4.54263e-06
2.76342e-07
-4.45278e-06
-2.35115e-07
-4.17022e-06
-7.3335e-07
-3.7145e-06
-1.17726e-06
-3.12037e-06
-1.52494e-06
-2.43725e-06
-1.73633e-06
-1.72707e-06
-1.7779e-06
-1.06011e-06
-1.62946e-06
-5.08374e-07
-1.29242e-06
-1.37518e-07
-8.00145e-07
-2.38335e-07
-1.91102e-07
4.44892e-07
-6.7616e-07
1.30023e-06
-1.36759e-06
1.98064e-06
-2.17819e-06
2.4166e-06
-3.02465e-06
2.58994e-06
-3.8315e-06
2.51198e-06
-4.53409e-06
2.21227e-06
-5.08025e-06
1.73074e-06
-5.4311e-06
1.11274e-06
-5.56154e-06
4.06775e-07
-5.46066e-06
-3.35992e-07
-5.13256e-06
-1.06145e-06
-4.59727e-06
-1.71255e-06
-3.89175e-06
-2.23046e-06
-3.07015e-06
-2.55794e-06
-2.20275e-06
-2.6453e-06
-1.37273e-06
-2.45948e-06
-6.70414e-07
-1.99474e-06
-1.85565e-07
-1.28499e-06
-4.239e-07
-2.37208e-07
6.82102e-07
-8.30946e-07
1.89397e-06
-1.66442e-06
2.81411e-06
-2.62701e-06
3.37919e-06
-3.61895e-06
3.58187e-06
-4.55441e-06
3.44744e-06
-5.36286e-06
3.02072e-06
-5.98912e-06
2.357e-06
-6.39282e-06
1.51644e-06
-6.54775e-06
5.61704e-07
-6.44175e-06
-4.41995e-07
-6.07734e-06
-1.42586e-06
-5.47316e-06
-2.31673e-06
-4.6659e-06
-3.03772e-06
-3.71218e-06
-3.51166e-06
-2.68926e-06
-3.66822e-06
-1.69357e-06
-3.45517e-06
-8.35989e-07
-2.85232e-06
-2.33797e-07
-1.88719e-06
-6.57697e-07
-2.84135e-07
9.66237e-07
-9.88207e-07
2.59804e-06
-1.96441e-06
3.79032e-06
-3.07695e-06
4.49174e-06
-4.20906e-06
4.71398e-06
-5.26535e-06
4.50373e-06
-6.17126e-06
3.92663e-06
-6.87089e-06
3.05663e-06
-7.32434e-06
1.9699e-06
-7.50562e-06
7.42977e-07
-7.40148e-06
-5.46129e-07
-7.01189e-06
-1.81546e-06
-6.3519e-06
-2.97671e-06
-5.45507e-06
-3.93455e-06
-4.37745e-06
-4.58928e-06
-3.20112e-06
-4.84455e-06
-2.03545e-06
-4.62084e-06
-1.01404e-06
-3.87373e-06
-2.85938e-07
-2.61529e-06
-9.43635e-07
-3.34173e-07
1.30041e-06
-1.15307e-06
3.41694e-06
-2.27353e-06
4.91077e-06
-3.53205e-06
5.75026e-06
-4.79469e-06
5.97662e-06
-5.95834e-06
5.66738e-06
-6.94739e-06
4.91568e-06
-7.70848e-06
3.81772e-06
-8.2051e-06
2.46651e-06
-8.41331e-06
9.51189e-07
-8.31937e-06
-6.40069e-07
-7.91964e-06
-2.21519e-06
-7.22307e-06
-3.67328e-06
-6.2562e-06
-4.90143e-06
-5.07004e-06
-5.77544e-06
-3.74761e-06
-6.16699e-06
-2.40931e-06
-5.95913e-06
-1.21313e-06
-5.06991e-06
-3.45601e-07
-3.48282e-06
-1.28924e-06
-3.8954e-07
1.68995e-06
-1.33009e-06
4.35749e-06
-2.59542e-06
6.1761e-06
-3.99067e-06
7.14552e-06
-5.36533e-06
7.35128e-06
-6.61201e-06
6.91406e-06
-7.65889e-06
5.96257e-06
-8.46005e-06
4.61887e-06
-8.98644e-06
2.99291e-06
-9.21905e-06
1.1838e-06
-9.14472e-06
-7.14396e-07
-8.75541e-06
-2.6045e-06
-8.05098e-06
-4.37771e-06
-7.04592e-06
-5.90648e-06
-5.77974e-06
-7.04162e-06
-4.32963e-06
-7.61709e-06
-2.82253e-06
-7.46624e-06
-1.44102e-06
-6.45141e-06
-4.16404e-07
-4.50744e-06
-1.70564e-06
-4.5299e-07
2.14294e-06
-1.52408e-06
5.42858e-06
-2.93154e-06
7.58356e-06
-4.44447e-06
8.65844e-06
-5.89788e-06
8.80469e-06
-7.18626e-06
8.20244e-06
-8.24893e-06
7.02524e-06
-9.05438e-06
5.42432e-06
-9.58672e-06
3.52525e-06
-9.83569e-06
1.43276e-06
-9.79065e-06
-7.59432e-07
-9.43875e-06
-2.9564e-06
-8.7677e-06
-5.04877e-06
-7.77386e-06
-6.90032e-06
-6.47628e-06
-8.3392e-06
-4.93595e-06
-9.15741e-06
-3.27728e-06
-9.12491e-06
-1.70471e-06
-8.02398e-06
-5.02461e-07
-5.70969e-06
-2.2081e-06
-5.2894e-07
2.67188e-06
-1.74159e-06
6.64123e-06
-3.28151e-06
9.12348e-06
-4.87657e-06
1.02535e-05
-6.35291e-06
1.0281e-05
-7.6171e-06
9.46663e-06
-8.63042e-06
8.03856e-06
-9.38502e-06
6.17893e-06
-9.88519e-06
4.02542e-06
-1.01343e-05
1.68188e-06
-1.0127e-05
-7.66762e-07
-9.84595e-06
-3.23744e-06
-9.26418e-06
-5.63053e-06
-8.35348e-06
-7.81103e-06
-7.10134e-06
-9.59134e-06
-5.53749e-06
-1.07213e-05
-3.76823e-06
-1.08942e-05
-2.01075e-06
-9.78145e-06
-6.09253e-07
-7.11119e-06
-2.81736e-06
-6.25319e-07
3.2972e-06
-1.99279e-06
8.0087e-06
-3.64217e-06
1.07729e-05
-5.25727e-06
1.18686e-05
-6.6676e-06
1.16914e-05
-7.8084e-06
1.06074e-05
-8.67781e-06
8.90797e-06
-9.30279e-06
6.80391e-06
-9.71545e-06
4.43808e-06
-9.93789e-06
1.90432e-06
-9.97325e-06
-7.31405e-07
-9.80147e-06
-3.40922e-06
-9.37984e-06
-6.05217e-06
-8.6502e-06
-8.54066e-06
-7.55665e-06
-1.06849e-05
-6.07802e-06
-1.21999e-05
-4.27771e-06
-1.26945e-05
-2.36508e-06
-1.16941e-05
-7.45112e-07
-8.73116e-06
-3.56247e-06
-7.56595e-07
4.05379e-06
-2.29267e-06
9.54477e-06
-4.00297e-06
1.24832e-05
-5.53331e-06
1.33989e-05
-6.74184e-06
1.28999e-05
-7.61795e-06
1.14835e-05
-8.21526e-06
9.50528e-06
-8.60696e-06
7.19561e-06
-8.85922e-06
4.69034e-06
-9.01654e-06
2.06165e-06
-9.09367e-06
-6.54279e-07
-9.07078e-06
-3.43211e-06
-8.89157e-06
-6.23137e-06
-8.46649e-06
-8.96574e-06
-7.68671e-06
-1.14647e-05
-6.45816e-06
-1.34284e-05
-4.76575e-06
-1.43869e-05
-2.77111e-06
-1.36887e-05
-9.23553e-07
-1.05787e-05
-4.48602e-06
-9.48203e-07
5.002e-06
-2.65868e-06
1.12553e-05
-4.33075e-06
1.41552e-05
-5.60362e-06
1.46718e-05
-6.41159e-06
1.37079e-05
-6.834e-06
1.19059e-05
-6.99961e-06
9.67089e-06
-7.03522e-06
7.23122e-06
-7.04216e-06
4.69728e-06
-7.08694e-06
2.10643e-06
-7.19711e-06
-5.44113e-07
-7.35738e-06
-3.27184e-06
-7.50475e-06
-6.084e-06
-7.52445e-06
-8.94604e-06
-7.25377e-06
-1.17354e-05
-6.50772e-06
-1.41745e-05
-5.1485e-06
-1.57461e-05
-3.22206e-06
-1.56152e-05
-1.16617e-06
-1.26346e-05
-5.65219e-06
-1.24012e-06
6.24211e-06
-3.09383e-06
1.3109e-05
-4.52869e-06
1.55901e-05
-5.2672e-06
1.54103e-05
-5.40006e-06
1.38407e-05
-5.13834e-06
1.16442e-05
-4.69775e-06
9.2303e-06
-4.25436e-06
6.78783e-06
-3.93493e-06
4.37785e-06
-3.81979e-06
1.99129e-06
-3.94653e-06
-4.17371e-07
-4.30912e-06
-2.90925e-06
-4.85036e-06
-5.54275e-06
-5.4485e-06
-8.3479e-06
-5.90335e-06
-1.12805e-05
-5.93832e-06
-1.41395e-05
-5.25225e-06
-1.64322e-05
-3.67538e-06
-1.7192e-05
-1.50212e-06
-1.48079e-05
-7.15431e-06
-1.67533e-06
7.91744e-06
-3.52233e-06
1.4956e-05
-4.33456e-06
1.64023e-05
-4.11985e-06
1.51956e-05
-3.23659e-06
1.29575e-05
-2.0548e-06
1.04624e-05
-8.62686e-07
8.03818e-06
1.42323e-07
5.78282e-06
8.34595e-07
3.68558e-06
1.13881e-06
1.68708e-06
1.01593e-06
-2.94492e-07
4.5945e-07
-2.35277e-06
-4.9644e-07
-4.58686e-06
-1.75499e-06
-7.08935e-06
-3.12166e-06
-9.91385e-06
-4.26602e-06
-1.29952e-05
-4.71726e-06
-1.59809e-05
-3.97691e-06
-1.79324e-05
-1.94634e-06
-1.68384e-05
-9.10065e-06
-2.22859e-06
1.0146e-05
-3.59547e-06
1.63229e-05
-3.09262e-06
1.58995e-05
-1.36936e-06
1.34724e-05
8.59684e-07
1.07284e-05
3.10535e-06
8.21677e-06
5.07694e-06
6.06658e-06
6.61776e-06
4.242e-06
7.64785e-06
2.65548e-06
8.12491e-06
1.21002e-06
8.02233e-06
-1.91911e-07
7.32133e-06
-1.65177e-06
6.0165e-06
-3.28203e-06
4.13909e-06
-5.21195e-06
1.80645e-06
-7.58121e-06
-6.95942e-07
-1.04928e-05
-2.81297e-06
-1.38639e-05
-3.67004e-06
-1.70753e-05
-2.40977e-06
-1.80987e-05
-1.15104e-05
-2.56061e-06
1.27066e-05
-2.18458e-06
1.59468e-05
7.08668e-07
1.30062e-05
4.45193e-06
9.7291e-06
8.10576e-06
7.07458e-06
1.12634e-05
5.05917e-06
1.37806e-05
3.54936e-06
1.56308e-05
2.39182e-06
1.68279e-05
1.45836e-06
1.73876e-05
6.50282e-07
1.73089e-05
-1.1321e-07
1.65661e-05
-9.08985e-07
1.51089e-05
-1.82476e-06
1.28737e-05
-2.97675e-06
9.82208e-06
-4.52963e-06
6.03336e-06
-6.70405e-06
1.89489e-06
-9.72541e-06
-1.56487e-06
-1.36156e-05
-2.44549e-06
-1.72181e-05
-1.39559e-05
-8.09683e-07
1.35163e-05
4.07496e-06
1.10622e-05
1.0293e-05
6.78819e-06
1.57844e-05
4.23766e-06
2.01422e-05
2.71685e-06
2.34346e-05
1.7667e-06
2.58299e-05
1.15409e-06
2.74842e-05
7.37524e-07
2.8512e-05
4.30536e-07
2.89819e-05
1.80372e-07
2.89176e-05
-4.88502e-08
2.82963e-05
-2.8772e-07
2.70436e-05
-5.72037e-07
2.50226e-05
-9.55724e-07
2.20259e-05
-1.53296e-06
1.77966e-05
-2.47479e-06
1.21599e-05
-4.08866e-06
5.46646e-06
-6.92214e-06
-1.58049e-07
-1.15936e-05
-1.4114e-05
1.35163e-05
2.45785e-05
3.13667e-05
3.56044e-05
3.83212e-05
4.00879e-05
4.1242e-05
4.19795e-05
4.241e-05
4.25904e-05
4.25416e-05
4.22539e-05
4.16818e-05
4.07261e-05
3.91931e-05
3.67183e-05
3.26297e-05
2.57075e-05
1.4114e-05
)
;

boundaryField
{
    movingWall
    {
        type            calculated;
        value           uniform 0;
    }
    fixedWalls
    {
        type            calculated;
        value           uniform 0;
    }
    frontAndBack
    {
        type            empty;
        value           nonuniform List<scalar> 0();
    }
}


// ************************************************************************* //
