/*--------------------------------*- C++ -*----------------------------------*\
  =========                 |
  \\      /  F ield         | OpenFOAM: The Open Source CFD Toolbox
   \\    /   O peration     | Website:  https://openfoam.org
    \\  /    A nd           | Version:  8
     \\/     M anipulation  |
\*---------------------------------------------------------------------------*/
FoamFile
{
    version     2.0;
    format      ascii;
    class       volVectorField;
    location    "0.11";
    object      U;
}
// * * * * * * * * * * * * * * * * * * * * * * * * * * * * * * * * * * * * * //

dimensions      [0 1 -1 0 0 0 0];

internalField   nonuniform List<vector> 
400
(
(0.000250252 -0.000247881 0)
(0.000142534 0.000107105 0)
(-0.00115005 0.000554192 0)
(-0.00341484 0.000871485 0)
(-0.00626428 0.00103125 0)
(-0.00930772 0.00104793 0)
(-0.0121959 0.000945886 0)
(-0.0146399 0.000751225 0)
(-0.0164175 0.000488988 0)
(-0.017373 0.00018305 0)
(-0.0174186 -0.000142349 0)
(-0.0165385 -0.000461151 0)
(-0.0147944 -0.000744533 0)
(-0.0123312 -0.000960804 0)
(-0.00938081 -0.00107668 0)
(-0.00625858 -0.00106034 0)
(-0.00334823 -0.00088731 0)
(-0.00106743 -0.000550073 0)
(0.0001959 -8.88499e-05 0)
(0.000265081 0.000259937 0)
(-7.84303e-05 -0.000168761 0)
(-0.00158684 0.00161371 0)
(-0.00560026 0.00355521 0)
(-0.0115273 0.00495285 0)
(-0.0185831 0.00565248 0)
(-0.0259686 0.00567059 0)
(-0.0329212 0.00509204 0)
(-0.0387815 0.00403032 0)
(-0.0430291 0.00260884 0)
(-0.0452972 0.000955512 0)
(-0.0453826 -0.00079573 0)
(-0.0432559 -0.00250191 0)
(-0.0390717 -0.00400998 0)
(-0.0331762 -0.00515996 0)
(-0.0261061 -0.0057943 0)
(-0.0185696 -0.00577633 0)
(-0.0113938 -0.0050208 0)
(-0.00543025 -0.00353848 0)
(-0.00146979 -0.00153469 0)
(-4.19297e-05 0.000227153 0)
(-0.000525279 0.00107438 0)
(-0.00366151 0.00564103 0)
(-0.0104334 0.0100553 0)
(-0.0196888 0.0131881 0)
(-0.0302896 0.0147029 0)
(-0.0411679 0.0145975 0)
(-0.0512969 0.0130404 0)
(-0.0597796 0.0102876 0)
(-0.0659033 0.00663627 0)
(-0.069165 0.00240659 0)
(-0.0692865 -0.00206153 0)
(-0.0662289 -0.00640677 0)
(-0.0602052 -0.0102481 0)
(-0.0516887 -0.013196 0)
(-0.0414089 -0.0148785 0)
(-0.0303239 -0.014988 0)
(-0.0195453 -0.0133523 0)
(-0.0102181 -0.0100302 0)
(-0.00350063 -0.00546798 0)
(-0.00047209 -0.000931143 0)
(-0.000919345 0.00343008 0)
(-0.00561576 0.0120309 0)
(-0.0150873 0.0196055 0)
(-0.0275174 0.024795 0)
(-0.0413746 0.0271532 0)
(-0.0553508 0.0266985 0)
(-0.0682206 0.0237176 0)
(-0.078924 0.0186473 0)
(-0.0866246 0.012003 0)
(-0.0907331 0.00434538 0)
(-0.0909213 -0.00372812 0)
(-0.0871374 -0.0115838 0)
(-0.0796211 -0.0185566 0)
(-0.0689155 -0.0239704 0)
(-0.0558688 -0.0271835 0)
(-0.0416119 -0.0276667 0)
(-0.0274806 -0.0251179 0)
(-0.0148945 -0.0196051 0)
(-0.00543567 -0.0117567 0)
(-0.000853115 -0.0031764 0)
(-0.00126586 0.00678235 0)
(-0.00744159 0.0206446 0)
(-0.0195493 0.032018 0)
(-0.0350714 0.039487 0)
(-0.052047 0.042617 0)
(-0.068925 0.0415296 0)
(-0.0843095 0.0366876 0)
(-0.0970224 0.0287513 0)
(-0.10615 0.0184869 0)
(-0.11105 0.00672268 0)
(-0.111362 -0.00566223 0)
(-0.107012 -0.0177371 0)
(-0.0982374 -0.0285238 0)
(-0.0856045 -0.0370225 0)
(-0.0700263 -0.0422736 0)
(-0.0527604 -0.043465 0)
(-0.0353463 -0.0400907 0)
(-0.0194989 -0.032138 0)
(-0.00728652 -0.0203089 0)
(-0.0011929 -0.00640882 0)
(-0.00159284 0.0110665 0)
(-0.00921631 0.0314321 0)
(-0.0239394 0.0472687 0)
(-0.0425203 0.0572289 0)
(-0.0625395 0.0610228 0)
(-0.0821976 0.0589841 0)
(-0.0999483 0.0518318 0)
(-0.114532 0.0405026 0)
(-0.124995 0.0260443 0)
(-0.130674 0.00956761 0)
(-0.131186 -0.00776068 0)
(-0.126429 -0.024708 0)
(-0.116606 -0.0399708 0)
(-0.102262 -0.052197 0)
(-0.0843229 -0.060056 0)
(-0.0641327 -0.0623728 0)
(-0.0434211 -0.0583287 0)
(-0.0242249 -0.047705 0)
(-0.00916385 -0.0311516 0)
(-0.00152632 -0.0105924 0)
(-0.0019263 0.016273 0)
(-0.0110251 0.0443987 0)
(-0.0283962 0.0653627 0)
(-0.0500287 0.077996 0)
(-0.073017 0.0822992 0)
(-0.0953168 0.0789519 0)
(-0.115261 0.0690287 0)
(-0.131552 0.0538049 0)
(-0.143243 0.0346379 0)
(-0.149685 0.012923 0)
(-0.150487 -0.00989897 0)
(-0.145512 -0.0323103 0)
(-0.134897 -0.0526885 0)
(-0.119109 -0.0693116 0)
(-0.0990269 -0.0804235 0)
(-0.0760232 -0.0843859 0)
(-0.0519884 -0.0799256 0)
(-0.0292971 -0.0664506 0)
(-0.0111952 -0.0444063 0)
(-0.00188948 -0.0157672 0)
(-0.00228966 0.0224417 0)
(-0.0129468 0.0596076 0)
(-0.0330419 0.0863284 0)
(-0.0577096 0.10174 0)
(-0.0835264 0.106314 0)
(-0.108224 0.101241 0)
(-0.130067 0.0880717 0)
(-0.147788 0.0684899 0)
(-0.16051 0.0441843 0)
(-0.167647 0.0168202 0)
(-0.16883 -0.0119245 0)
(-0.16388 -0.0402906 0)
(-0.152831 -0.0663696 0)
(-0.136008 -0.0880714 0)
(-0.114154 -0.103165 0)
(-0.0885793 -0.109434 0)
(-0.0612695 -0.104968 0)
(-0.0349266 -0.0885793 0)
(-0.0135074 -0.0602969 0)
(-0.00231786 -0.0220477 0)
(-0.00270685 0.0296568 0)
(-0.0150586 0.077175 0)
(-0.0379771 0.110197 0)
(-0.065603 0.128347 0)
(-0.0939598 0.13281 0)
(-0.120605 0.125499 0)
(-0.143826 0.108589 0)
(-0.162486 0.0842455 0)
(-0.175874 0.0544992 0)
(-0.183538 0.0212486 0)
(-0.185169 -0.0136584 0)
(-0.180551 -0.0483002 0)
(-0.169581 -0.0805513 0)
(-0.152358 -0.107988 0)
(-0.129369 -0.127873 0)
(-0.101724 -0.137292 0)
(-0.071374 -0.133474 0)
(-0.0412903 -0.114324 0)
(-0.0162267 -0.0791414 0)
(-0.00284955 -0.0296208 0)
(-0.00321014 0.0380496 0)
(-0.0174539 0.0972606 0)
(-0.0432942 0.136962 0)
(-0.0736688 0.15756 0)
(-0.104021 0.1613 0)
(-0.131832 0.151101 0)
(-0.155561 0.129936 0)
(-0.174351 0.100524 0)
(-0.187785 0.0652281 0)
(-0.195642 0.026114 0)
(-0.197733 -0.0149054 0)
(-0.193823 -0.0558679 0)
(-0.183635 -0.094549 0)
(-0.166955 -0.128274 0)
(-0.14386 -0.153815 0)
(-0.115056 -0.167446 0)
(-0.0822464 -0.165272 0)
(-0.0485212 -0.143875 0)
(-0.019491 -0.101332 0)
(-0.003533 -0.0387495 0)
(-0.00385483 0.0478198 0)
(-0.0202754 0.120066 0)
(-0.0491004 0.166523 0)
(-0.0817727 0.18887 0)
(-0.113164 0.190937 0)
(-0.140871 0.177015 0)
(-0.163748 0.151072 0)
(-0.181425 0.116438 0)
(-0.193943 0.0757681 0)
(-0.201432 0.0311859 0)
(-0.203897 -0.0154768 0)
(-0.201118 -0.0623876 0)
(-0.192626 -0.1074 0)
(-0.177808 -0.147743 0)
(-0.156159 -0.179778 0)
(-0.127711 -0.198913 0)
(-0.0935841 -0.199843 0)
(-0.0566929 -0.177273 0)
(-0.0234709 -0.127305 0)
(-0.00444069 -0.0497905 0)
(-0.00474483 0.0592853 0)
(-0.023765 0.145841 0)
(-0.0555353 0.198593 0)
(-0.089633 0.221361 0)
(-0.12048 0.220329 0)
(-0.146121 0.201631 0)
(-0.166144 0.170426 0)
(-0.18093 0.130665 0)
(-0.191162 0.0851949 0)
(-0.19744 0.0360439 0)
(-0.200049 -0.0152265 0)
(-0.198831 -0.0671289 0)
(-0.19314 -0.11783 0)
(-0.181912 -0.164705 0)
(-0.163893 -0.203899 0)
(-0.138131 -0.230004 0)
(-0.104689 -0.236065 0)
(-0.0657764 -0.214232 0)
(-0.0284013 -0.1575 0)
(-0.00569386 -0.063237 0)
(-0.00607855 0.0729854 0)
(-0.0283309 0.174886 0)
(-0.0627441 0.232536 0)
(-0.0966582 0.253454 0)
(-0.124425 0.247298 0)
(-0.14512 0.222582 0)
(-0.159525 0.185781 0)
(-0.169062 0.141374 0)
(-0.17522 0.092219 0)
(-0.17916 0.0400367 0)
(-0.181505 -0.0140992 0)
(-0.18222 -0.0692839 0)
(-0.180545 -0.124277 0)
(-0.174983 -0.176927 0)
(-0.163451 -0.223509 0)
(-0.143713 -0.258047 0)
(-0.114187 -0.271867 0)
(-0.0755213 -0.253846 0)
(-0.0346136 -0.192267 0)
(-0.00750514 -0.0798038 0)
(-0.00822341 0.0898607 0)
(-0.0346094 0.207477 0)
(-0.0707017 0.267026 0)
(-0.101522 0.282507 0)
(-0.12229 0.268569 0)
(-0.134031 0.236569 0)
(-0.139271 0.194223 0)
(-0.140721 0.146252 0)
(-0.140731 0.0952198 0)
(-0.14101 0.0422867 0)
(-0.142516 -0.0121772 0)
(-0.145393 -0.0680648 0)
(-0.148881 -0.125 0)
(-0.151207 -0.18169 0)
(-0.14955 -0.235051 0)
(-0.140251 -0.279096 0)
(-0.119487 -0.303732 0)
(-0.0851433 -0.294071 0)
(-0.0425283 -0.23164 0)
(-0.0102408 -0.100566 0)
(-0.0117963 0.111512 0)
(-0.0433865 0.243571 0)
(-0.0786007 0.299382 0)
(-0.101161 0.304222 0)
(-0.109128 0.27945 0)
(-0.10675 0.239331 0)
(-0.0987721 0.19229 0)
(-0.0892033 0.142716 0)
(-0.0810738 0.0924414 0)
(-0.0764373 0.0417945 0)
(-0.0764644 -0.00970773 0)
(-0.081489 -0.0628703 0)
(-0.0909277 -0.118359 0)
(-0.103059 -0.176088 0)
(-0.114717 -0.234252 0)
(-0.121072 -0.287778 0)
(-0.115767 -0.32613 0)
(-0.092535 -0.330893 0)
(-0.052422 -0.274791 0)
(-0.0144556 -0.127118 0)
(-0.0175608 0.140584 0)
(-0.0548585 0.28191 0)
(-0.0830562 0.324276 0)
(-0.0885778 0.311843 0)
(-0.0758527 0.273699 0)
(-0.0535901 0.225966 0)
(-0.0287024 0.176521 0)
(-0.0059726 0.128484 0)
(0.0114758 0.0824421 0)
(0.0217163 0.0377013 0)
(0.0236484 -0.00707309 0)
(0.0168094 -0.0535145 0)
(0.00141011 -0.103287 0)
(-0.0213709 -0.157676 0)
(-0.0488119 -0.216734 0)
(-0.0758315 -0.277536 0)
(-0.0941085 -0.330991 0)
(-0.0923603 -0.357007 0)
(-0.0633775 -0.318839 0)
(-0.0206449 -0.161785 0)
(-0.0254072 0.181631 0)
(-0.0657813 0.317704 0)
(-0.0735272 0.331125 0)
(-0.0484762 0.294996 0)
(-0.00620265 0.243703 0)
(0.0403484 0.191828 0)
(0.083539 0.144515 0)
(0.119204 0.102517 0)
(0.145197 0.0648081 0)
(0.160432 0.0297169 0)
(0.164289 -0.00467737 0)
(0.156323 -0.0404689 0)
(0.136233 -0.0799393 0)
(0.104121 -0.125492 0)
(0.0611748 -0.179221 0)
(0.0109834 -0.241479 0)
(-0.0383793 -0.307357 0)
(-0.07196 -0.359728 0)
(-0.0700829 -0.356362 0)
(-0.0278679 -0.208181 0)
(-0.0294371 0.23895 0)
(-0.0606478 0.335902 0)
(-0.0220609 0.300463 0)
(0.050266 0.239923 0)
(0.127128 0.182666 0)
(0.196353 0.135076 0)
(0.253465 0.097095 0)
(0.297182 0.0665915 0)
(0.3276 0.0411676 0)
(0.34514 0.01868 0)
(0.350011 -0.00279689 0)
(0.341968 -0.0251756 0)
(0.320227 -0.0506175 0)
(0.283549 -0.0818153 0)
(0.23067 -0.122173 0)
(0.161497 -0.175383 0)
(0.0794262 -0.243172 0)
(-0.00343547 -0.318994 0)
(-0.0544911 -0.368626 0)
(-0.0282268 -0.267284 0)
(0.00868467 0.281496 0)
(0.0203607 0.295061 0)
(0.138955 0.211025 0)
(0.264283 0.143442 0)
(0.364123 0.0971085 0)
(0.439976 0.0656811 0)
(0.496197 0.0441386 0)
(0.536184 0.0287997 0)
(0.562643 0.0171368 0)
(0.577428 0.00745395 0)
(0.581476 -0.00149182 0)
(0.574813 -0.010812 0)
(0.556491 -0.0217889 0)
(0.52442 -0.0362609 0)
(0.475192 -0.05718 0)
(0.40409 -0.0893102 0)
(0.304817 -0.139691 0)
(0.173165 -0.216396 0)
(0.0417341 -0.311674 0)
(0.0190759 -0.299577 0)
(0.300189 0.145897 0)
(0.396887 0.127466 0)
(0.557417 0.0761123 0)
(0.674439 0.0437438 0)
(0.743826 0.0255839 0)
(0.787028 0.0152467 0)
(0.815293 0.00921181 0)
(0.833705 0.0055069 0)
(0.845091 0.0030253 0)
(0.851051 0.00114961 0)
(0.852338 -0.000496862 0)
(0.849066 -0.00221077 0)
(0.840711 -0.00433435 0)
(0.825892 -0.00742249 0)
(0.80188 -0.0125359 0)
(0.763476 -0.0217838 0)
(0.698977 -0.0393019 0)
(0.583861 -0.0726764 0)
(0.4164 -0.127814 0)
(0.309417 -0.149277 0)
)
;

boundaryField
{
    movingWall
    {
        type            fixedValue;
        value           uniform (1 0 0);
    }
    fixedWalls
    {
        type            noSlip;
    }
    frontAndBack
    {
        type            empty;
    }
}


// ************************************************************************* //
