/*--------------------------------*- C++ -*----------------------------------*\
  =========                 |
  \\      /  F ield         | OpenFOAM: The Open Source CFD Toolbox
   \\    /   O peration     | Website:  https://openfoam.org
    \\  /    A nd           | Version:  8
     \\/     M anipulation  |
\*---------------------------------------------------------------------------*/
FoamFile
{
    version     2.0;
    format      ascii;
    class       surfaceScalarField;
    location    "39.5";
    object      phi;
}
// * * * * * * * * * * * * * * * * * * * * * * * * * * * * * * * * * * * * * //

dimensions      [0 3 -1 0 0 0 0];

internalField   nonuniform List<scalar> 
208
(
1.70323e-05
-1.70323e-05
3.08602e-05
-1.3828e-05
3.07885e-05
7.1721e-08
8.53373e-06
2.22548e-05
-6.75643e-05
7.60981e-05
7.25362e-05
-0.0001401
1.04526e-06
-1.80775e-05
-1.24379e-05
-3.44801e-07
-5.14818e-05
3.91156e-05
-0.000101542
7.23148e-05
-0.000130839
0.000105395
7.42588e-05
-0.000132562
-1.70595e-05
-1.01801e-06
-4.50717e-05
2.76674e-05
-7.55741e-05
6.9618e-05
-0.000102627
9.93682e-05
-0.000110245
0.000113013
6.09176e-05
-9.69034e-05
-2.14901e-05
2.04721e-05
-4.51464e-05
5.13238e-05
-6.64797e-05
9.09512e-05
-7.69145e-05
0.000109803
-6.98129e-05
0.000105911
4.33986e-05
-5.22939e-05
-1.44438e-05
3.49159e-05
-3.2338e-05
6.92179e-05
-4.20075e-05
0.000100621
-4.03407e-05
0.000108136
-2.89397e-05
9.451e-05
3.80329e-05
-2.3574e-05
-6.79657e-06
4.17124e-05
-9.80528e-06
7.22267e-05
-8.19958e-06
9.90151e-05
-5.20106e-06
0.000105138
4.80584e-08
8.92609e-05
4.33867e-05
-5.30578e-06
1.72578e-06
3.99867e-05
5.00235e-07
7.34522e-05
7.45579e-06
9.20595e-05
2.0561e-05
9.20324e-05
3.50875e-05
7.47344e-05
4.36529e-05
3.48213e-05
1.10001e-05
2.89865e-05
2.51654e-05
5.9287e-05
4.71667e-05
7.00583e-05
6.40349e-05
7.51641e-05
7.99475e-05
5.88219e-05
4.33087e-05
8.02916e-05
-3.63619e-05
6.53485e-05
-1.58285e-05
3.87535e-05
1.15482e-05
4.26815e-05
4.3438e-05
4.32743e-05
6.89446e-05
3.33153e-05
2.70464e-05
8.5207e-05
6.53485e-05
0.000104102
0.000146784
0.000190058
0.000223373
0.00025042
-0.000115191
9.61852e-05
-0.000121095
-6.91697e-05
-5.04326e-05
4.41168e-06
-2.25085e-05
-3.66327e-05
-1.00284e-05
-0.00014922
0.000126712
-0.000107394
7.10169e-05
-9.35572e-05
-6.42689e-05
-4.16802e-05
-8.85097e-05
-0.000190901
-6.63955e-05
4.0509e-05
-6.32207e-05
-6.74437e-05
-3.68705e-05
-0.00011486
-0.000227771
-3.10713e-05
1.92864e-05
-3.13435e-05
-6.71715e-05
-2.10873e-05
-0.000125116
-0.000248858
-1.23676e-05
8.08e-06
-1.63981e-05
-6.31411e-05
-1.50347e-05
-0.000126479
-0.000263893
7.41581e-06
-4.64159e-06
2.15763e-06
-5.78829e-05
-4.20832e-06
-0.000120113
-0.000268102
3.6525e-05
-6.34536e-06
1.56813e-05
-3.70392e-05
1.282e-06
-0.000105714
-0.00026682
6.90489e-05
4.89738e-06
4.10209e-05
-9.01119e-06
2.64592e-05
-9.11524e-05
-0.00024036
8.35318e-05
6.57251e-06
8.1531e-05
-7.01036e-06
6.78166e-05
-7.7438e-05
-0.000172544
0.000256992
0.000249982
0.000172544
-3.46321e-05
3.46321e-05
-5.61215e-05
2.14894e-05
-5.36027e-05
-2.5188e-06
-5.36027e-05
-3.16268e-05
6.62589e-05
-3.94625e-05
2.93251e-05
-4.25183e-05
5.37053e-07
-9.6121e-05
-2.32333e-05
8.94922e-05
-1.12823e-05
1.73741e-05
-2.50988e-05
1.43535e-05
-0.00012122
-3.16029e-05
-9.8171e-06
-5.49205e-06
)
;

boundaryField
{
    movingWall
    {
        type            calculated;
        value           uniform 0;
    }
    fixedWalls
    {
        type            calculated;
        value           uniform 0;
    }
    frontAndBack
    {
        type            empty;
        value           nonuniform List<scalar> 0();
    }
}


// ************************************************************************* //
