/*--------------------------------*- C++ -*----------------------------------*\
  =========                 |
  \\      /  F ield         | OpenFOAM: The Open Source CFD Toolbox
   \\    /   O peration     | Website:  https://openfoam.org
    \\  /    A nd           | Version:  8
     \\/     M anipulation  |
\*---------------------------------------------------------------------------*/
FoamFile
{
    version     2.0;
    format      ascii;
    class       volVectorField;
    location    "39.5";
    object      U;
}
// * * * * * * * * * * * * * * * * * * * * * * * * * * * * * * * * * * * * * //

dimensions      [0 1 -1 0 0 0 0];

internalField   nonuniform List<vector> 
116
(
(0.0168559 -0.0108089 0)
(0.0160645 -0.0129762 0)
(0.0473093 -0.0206337 0)
(0.0109452 -0.0179072 0)
(0.00902464 0.0598052 0)
(-0.154684 0.0873597 0)
(0.00766902 -0.0240177 0)
(-0.00587825 -0.0149026 0)
(-0.0173553 0.0208568 0)
(-0.0903453 0.0608983 0)
(-0.106039 0.0899242 0)
(-0.161576 0.0652247 0)
(-0.00334752 -0.0111727 0)
(-0.0318434 0.0142715 0)
(-0.0560477 0.056055 0)
(-0.0976618 0.0869211 0)
(-0.106179 0.11712 0)
(-0.118012 0.0760724 0)
(-0.00890322 0.00924703 0)
(-0.0338801 0.042261 0)
(-0.0548997 0.0846414 0)
(-0.0796908 0.109912 0)
(-0.0770343 0.112067 0)
(-0.0610917 0.0494255 0)
(-0.00449323 0.0321972 0)
(-0.0238189 0.0595793 0)
(-0.0398109 0.0959012 0)
(-0.0453644 0.107025 0)
(-0.0378556 0.0967652 0)
(-0.0186991 0.0350979 0)
(-0.00276329 0.0359285 0)
(-0.0102875 0.0769585 0)
(-0.00908106 0.103446 0)
(-0.00740079 0.111049 0)
(-0.00392897 0.0950385 0)
(0.00407261 0.0431556 0)
(0.00253661 0.049576 0)
(0.00107564 0.0686753 0)
(6.13877e-05 0.0950218 0)
(0.014501 0.0965911 0)
(0.0251418 0.0802281 0)
(0.0441779 0.0404773 0)
(0.00860116 0.027761 0)
(0.0144021 0.0791645 0)
(0.036244 0.0884141 0)
(0.0574208 0.0902804 0)
(0.0685365 0.0728887 0)
(0.0889351 0.0503754 0)
(-0.0562869 0.0338036 0)
(-0.0185702 0.0362995 0)
(-0.0111568 0.0528997 0)
(0.0331878 0.0582593 0)
(0.052429 0.0429775 0)
(0.0841113 0.0337012 0)
(0.0527323 0.0907042 0)
(0.0850331 0.0446766 0)
(0.117397 0.0345874 0)
(0.178165 0.0308384 0)
(0.196868 0.0254201 0)
(0.248035 0.0226316 0)
(-0.113582 0.115721 0)
(-0.109723 -0.0359918 0)
(-0.0363053 -0.00230972 0)
(-0.00495763 -0.132708 0)
(-0.106419 0.0819122 0)
(-0.103528 -0.0678329 0)
(-0.0864799 -0.072118 0)
(0.00597705 -0.172031 0)
(-0.077874 0.0553989 0)
(-0.0520889 -0.0637879 0)
(-0.0727626 -0.10929 0)
(0.00128449 -0.214813 0)
(-0.0457076 0.0284096 0)
(-0.0144736 -0.0679606 0)
(-0.0495906 -0.119795 0)
(0.00957744 -0.238911 0)
(-0.0296858 0.009176 0)
(0.00627269 -0.0678272 0)
(-0.0406117 -0.131215 0)
(0.0125468 -0.261178 0)
(-0.0154567 0.00786341 0)
(0.0316073 -0.0557104 0)
(-0.0280529 -0.117797 0)
(0.0208484 -0.268874 0)
(0.0236412 -0.0182744 0)
(0.052832 -0.0637833 0)
(-0.024446 -0.129071 0)
(0.028009 -0.273803 0)
(0.0705035 0.00734812 0)
(0.0710238 -0.0062314 0)
(0.0063282 -0.0742813 0)
(0.0517399 -0.24945 0)
(0.0823127 0.000919392 0)
(0.0891619 -0.0142782 0)
(0.0659271 -0.118746 0)
(0.0801576 -0.251541 0)
(0.244664 0.0139659 0)
(0.271724 0.00279468 0)
(0.214173 -0.0235771 0)
(0.153448 -0.068538 0)
(-0.0195552 0.00278455 0)
(-0.0510291 0.00145993 0)
(-0.0637574 -0.000738433 0)
(-0.0396457 -0.0313962 0)
(-0.0191719 0.0669268 0)
(-0.0421787 0.0427786 0)
(-0.0400523 -0.00471776 0)
(-0.0415995 -0.078092 0)
(-0.0360975 0.0633917 0)
(-0.00836531 0.0124535 0)
(-0.0159626 0.00556356 0)
(-0.0320604 -0.119735 0)
(-0.00895154 0.119669 0)
(-0.0484453 0.0259186 0)
(0.0252717 0.0237401 0)
(-0.0341523 -0.11588 0)
)
;

boundaryField
{
    movingWall
    {
        type            fixedValue;
        value           uniform (1 0 0);
    }
    fixedWalls
    {
        type            noSlip;
    }
    frontAndBack
    {
        type            empty;
    }
}


// ************************************************************************* //
