/*--------------------------------*- C++ -*----------------------------------*\
  =========                 |
  \\      /  F ield         | OpenFOAM: The Open Source CFD Toolbox
   \\    /   O peration     | Website:  https://openfoam.org
    \\  /    A nd           | Version:  8
     \\/     M anipulation  |
\*---------------------------------------------------------------------------*/
FoamFile
{
    version     2.0;
    format      ascii;
    class       volVectorField;
    location    "46";
    object      U;
}
// * * * * * * * * * * * * * * * * * * * * * * * * * * * * * * * * * * * * * //

dimensions      [0 1 -1 0 0 0 0];

internalField   nonuniform List<vector> 
116
(
(0.0183081 -0.0110561 0)
(0.0163082 -0.0113767 0)
(0.0476681 -0.0203543 0)
(0.0111277 -0.0183468 0)
(0.00664906 0.063681 0)
(-0.158328 0.08691 0)
(0.00915598 -0.0254286 0)
(-0.00550244 -0.0150728 0)
(-0.0181271 0.0207471 0)
(-0.096845 0.0639251 0)
(-0.112537 0.0899837 0)
(-0.167231 0.0618535 0)
(-0.0024428 -0.0134805 0)
(-0.0301711 0.017845 0)
(-0.056561 0.0623513 0)
(-0.102546 0.0927048 0)
(-0.110424 0.118643 0)
(-0.119758 0.072886 0)
(-0.00961538 0.00549736 0)
(-0.0330492 0.0438824 0)
(-0.0545187 0.0911251 0)
(-0.0830822 0.115214 0)
(-0.0805274 0.112513 0)
(-0.0622662 0.0425513 0)
(-0.00525604 0.0297064 0)
(-0.0249381 0.0620028 0)
(-0.041198 0.105708 0)
(-0.0492325 0.115303 0)
(-0.0421274 0.0973073 0)
(-0.0228454 0.0261613 0)
(-0.00351024 0.034226 0)
(-0.0100945 0.0794113 0)
(-0.00893701 0.1127 0)
(-0.00612259 0.119067 0)
(-0.00385536 0.0967016 0)
(0.0069579 0.0342367 0)
(0.00117961 0.0475601 0)
(0.00207913 0.0695356 0)
(0.00382717 0.103938 0)
(0.0210781 0.105381 0)
(0.0302086 0.0802313 0)
(0.0504607 0.0316006 0)
(0.00791788 0.0266375 0)
(0.0131602 0.0773381 0)
(0.0360993 0.0917859 0)
(0.0633687 0.096335 0)
(0.0739095 0.0755681 0)
(0.0936923 0.0442689 0)
(-0.0563494 0.0336018 0)
(-0.0199821 0.0362584 0)
(-0.0117242 0.0543377 0)
(0.0356945 0.0610908 0)
(0.0573746 0.045147 0)
(0.0883732 0.0313701 0)
(0.0533253 0.0909984 0)
(0.0845654 0.0436907 0)
(0.116919 0.0340588 0)
(0.178939 0.030599 0)
(0.198264 0.0259669 0)
(0.250844 0.0227349 0)
(-0.111461 0.116552 0)
(-0.112176 -0.0286569 0)
(-0.0278971 -0.00149165 0)
(-0.00669329 -0.137689 0)
(-0.108321 0.0802576 0)
(-0.111533 -0.067252 0)
(-0.0825222 -0.0744143 0)
(0.00433866 -0.173938 0)
(-0.0790254 0.0563818 0)
(-0.0546819 -0.062606 0)
(-0.0744928 -0.116371 0)
(0.000658052 -0.218512 0)
(-0.0444606 0.0284069 0)
(-0.0104605 -0.0650699 0)
(-0.0464364 -0.122105 0)
(0.00842375 -0.241524 0)
(-0.0319893 0.00394014 0)
(0.00782927 -0.0681159 0)
(-0.0399873 -0.134836 0)
(0.0126343 -0.263818 0)
(-0.0145105 0.000509233 0)
(0.0327724 -0.0558544 0)
(-0.0261522 -0.118912 0)
(0.0201282 -0.270405 0)
(0.0256201 -0.0220092 0)
(0.0534553 -0.0645161 0)
(-0.0232666 -0.130397 0)
(0.02821 -0.275102 0)
(0.0711365 0.00528904 0)
(0.0710135 -0.00574228 0)
(0.00731914 -0.0749909 0)
(0.0512694 -0.250148 0)
(0.0817614 -3.98292e-05 0)
(0.0900026 -0.0152049 0)
(0.0662203 -0.119463 0)
(0.0804603 -0.252254 0)
(0.245786 0.0143348 0)
(0.272378 0.00280638 0)
(0.215121 -0.0236402 0)
(0.153426 -0.0686083 0)
(-0.0214631 0.00437566 0)
(-0.056541 0.0056991 0)
(-0.0741771 0.000796184 0)
(-0.0439308 -0.037043 0)
(-0.0199275 0.0711971 0)
(-0.0464468 0.0464899 0)
(-0.0456485 -0.00621888 0)
(-0.0403099 -0.088968 0)
(-0.0357615 0.0711761 0)
(-0.00532991 0.0207323 0)
(-0.0172936 0.00257632 0)
(-0.0288733 -0.129493 0)
(-0.00913732 0.120513 0)
(-0.0407708 0.0325912 0)
(0.0269727 0.0224785 0)
(-0.031957 -0.124391 0)
)
;

boundaryField
{
    movingWall
    {
        type            fixedValue;
        value           uniform (1 0 0);
    }
    fixedWalls
    {
        type            noSlip;
    }
    frontAndBack
    {
        type            empty;
    }
}


// ************************************************************************* //
