# Probe 0 (0.05 0.1 0.005)
# Probe 1 (0.05 0.09 0.005)
# Probe 2 (0.05 0.08 0.005)
# Probe 3 (0.05 0.07 0.005)
# Probe 4 (0.05 0.06 0.005)
# Probe 5 (0.05 0.05 0.005)
# Probe 6 (0.05 0.04 0.005)
# Probe 7 (0.05 0.03 0.005)
# Probe 8 (0.05 0.02 0.005)
# Probe 9 (0.05 0.01 0.005)
# Probe 10 (0.05 0 0.005)
# Time        0             1             2             3             4             5             6             7             8             9             10           
0             (0 0 0)       (0 0 0)       (0 0 0)       (0 0 0)       (0 0 0)       (0 0 0)       (0 0 0)       (0 0 0)       (0 0 0)       (0 0 0)       (0 0 0)      
0.01          (0.757464 -5.49841e-09 0) (0.281491 -3.00648e-08 0) (0.104607 -3.95244e-08 0) (0.0388714 -2.99046e-08 0) (0.0144424 -9.13698e-09 0) (0.00536412 1.40177e-08 0) (0.00199028 3.19714e-08 0) (0.000735355 3.99155e-08 0) (0.000264927 3.53996e-08 0) (7.80982e-05 1.58221e-08 0) (2.38749e-05 4.8743e-09 0)
0.02          (0.871596 -2.1937e-08 0) (0.460445 -9.89549e-08 0) (0.221848 -8.98161e-08 0) (0.101292 -2.90503e-08 0) (0.0446395 4.1969e-08 0) (0.0191817 1.021e-07 0) (0.00808144 1.37676e-07 0) (0.00333822 1.41623e-07 0) (0.00132181 1.10263e-07 0) (0.000416685 4.48475e-08 0) (0.000129758 1.21926e-08 0)
0.03          (0.905164 -3.06031e-08 0) (0.562751 -1.55586e-07 0) (0.31786 -1.35874e-07 0) (0.167664 -1.77709e-08 0) (0.0841025 1.10243e-07 0) (0.0405968 2.03052e-07 0) (0.0189942 2.41079e-07 0) (0.00861663 2.20277e-07 0) (0.00369325 1.43431e-07 0) (0.00122933 3.92845e-08 0) (0.00038792 7.72065e-09 0)
0.04          (0.921355 -4.05283e-08 0) (0.625933 -2.05933e-07 0) (0.391257 -1.82262e-07 0) (0.228576 -3.8342e-10 0) (0.126482 2.01096e-07 0) (0.0669656 3.46366e-07 0) (0.0341426 4.07901e-07 0) (0.0167457 3.82287e-07 0) (0.0076663 2.81238e-07 0) (0.00266705 1.17079e-07 0) (0.000850093 2.79843e-08 0)
0.05          (0.93132 -3.70078e-08 0) (0.668671 -2.38116e-07 0) (0.447491 -2.46601e-07 0) (0.281484 -6.20077e-08 0) (0.167897 1.69144e-07 0) (0.095679 3.1296e-07 0) (0.0523347 3.27342e-07 0) (0.0273847 2.0131e-07 0) (0.0132398 -1.16144e-09 0) (0.00477505 -1.09151e-07 0) (0.00153417 -4.3044e-08 0)
0.06          (0.93825 -3.54924e-08 0) (0.69973 -2.39003e-07 0) (0.491547 -2.48719e-07 0) (0.326672 -2.73081e-08 0) (0.206517 2.61539e-07 0) (0.124823 4.81128e-07 0) (0.0723174 5.65589e-07 0) (0.0399201 5.16231e-07 0) (0.020188 3.70669e-07 0) (0.007498 1.62482e-07 0) (0.00242466 4.87746e-08 0)
0.07          (0.94343 -4.84981e-08 0) (0.723518 -3.05069e-07 0) (0.526948 -3.41196e-07 0) (0.365248 -1.21489e-07 0) (0.241725 1.92542e-07 0) (0.153211 4.2337e-07 0) (0.0930513 4.92941e-07 0) (0.0536857 3.79058e-07 0) (0.0281728 1.49071e-07 0) (0.0107168 -3.83812e-08 0) (0.00348355 -2.42325e-08 0)
0.08          (0.947489 -3.71026e-08 0) (0.742451 -2.86694e-07 0) (0.556051 -3.4904e-07 0) (0.398372 -1.191e-07 0) (0.273491 2.37168e-07 0) (0.180179 5.41369e-07 0) (0.113764 6.84742e-07 0) (0.0680752 6.46224e-07 0) (0.0368273 4.61514e-07 0) (0.0142843 1.84899e-07 0) (0.00466264 5.24695e-08 0)
0.09          (0.950778 -5.26316e-08 0) (0.757961 -3.56928e-07 0) (0.580446 -4.41381e-07 0) (0.427043 -2.19642e-07 0) (0.302046 1.46047e-07 0) (0.205418 4.65799e-07 0) (0.133935 6.051e-07 0) (0.0826033 5.30834e-07 0) (0.0458194 2.81087e-07 0) (0.0180569 2.47392e-08 0) (0.00591417 -4.12566e-09 0)
0.1           (0.953513 -3.37798e-08 0) (0.770949 -3.02312e-07 0) (0.601224 -4.21574e-07 0) (0.45206 -2.33239e-07 0) (0.327696 1.2778e-07 0) (0.228816 4.74592e-07 0) (0.153232 6.69204e-07 0) (0.0969043 6.5996e-07 0) (0.0548736 4.7066e-07 0) (0.0219082 1.74926e-07 0) (0.00719552 4.71385e-08 0)
0.11          (0.955828 -5.76451e-08 0) (0.782014 -3.94674e-07 0) (0.61915 -5.19761e-07 0) (0.474047 -3.19741e-07 0) (0.350755 6.23339e-08 0) (0.250377 4.33064e-07 0) (0.17146 6.33539e-07 0) (0.11072 6.05356e-07 0) (0.0637768 3.67347e-07 0) (0.025736 7.3226e-08 0) (0.00847176 1.09976e-08 0)
0.12          (0.957819 -3.62377e-08 0) (0.791568 -3.3723e-07 0) (0.634783 -4.98882e-07 0) (0.493498 -3.31179e-07 0) (0.371518 4.46067e-08 0) (0.270172 4.35603e-07 0) (0.188525 6.81529e-07 0) (0.123885 7.0564e-07 0) (0.0723795 5.15965e-07 0) (0.029466 1.89721e-07 0) (0.00971775 4.97268e-08 0)
0.13          (0.959551 -6.11529e-08 0) (0.799906 -4.2916e-07 0) (0.648531 -6.00461e-07 0) (0.510797 -4.16243e-07 0) (0.390241 -1.75102e-08 0) (0.288298 3.95346e-07 0) (0.204393 6.52363e-07 0) (0.136297 6.56182e-07 0) (0.080579 4.20763e-07 0) (0.0330443 8.58224e-08 0) (0.0109145 1.13972e-08 0)
0.14          (0.961071 -5.49711e-08 0) (0.807246 -4.21929e-07 0) (0.660706 -6.10808e-07 0) (0.526253 -4.41069e-07 0) (0.407154 -1.83294e-08 0) (0.304871 4.60406e-07 0) (0.219078 8.25555e-07 0) (0.14791 9.78232e-07 0) (0.0883158 8.74916e-07 0) (0.0364385 4.27713e-07 0) (0.0120512 1.27369e-07 0)
0.15          (0.962416 -5.70689e-08 0) (0.813752 -4.32412e-07 0) (0.671549 -6.3798e-07 0) (0.540115 -4.89333e-07 0) (0.422454 -9.77965e-08 0) (0.320006 3.43309e-07 0) (0.232617 6.49199e-07 0) (0.158708 7.01636e-07 0) (0.0955585 4.70915e-07 0) (0.039628 9.41417e-08 0) (0.0131197 4.92122e-09 0)
0.16          (0.963612 -6.10238e-08 0) (0.81955 -4.46175e-07 0) (0.681247 -6.57509e-07 0) (0.552581 -5.01952e-07 0) (0.436308 -8.28534e-08 0) (0.333814 4.05737e-07 0) (0.245062 7.75519e-07 0) (0.168701 9.15645e-07 0) (0.102296 7.7675e-07 0) (0.0426044 3.43386e-07 0) (0.0141179 9.57572e-08 0)
0.17          (0.964681 -5.05888e-08 0) (0.824739 -4.2168e-07 0) (0.689953 -6.50674e-07 0) (0.563822 -5.21711e-07 0) (0.448868 -1.29514e-07 0) (0.346407 3.34203e-07 0) (0.256479 6.76082e-07 0) (0.177917 7.67152e-07 0) (0.108534 5.65938e-07 0) (0.0453671 1.68326e-07 0) (0.0150446 3.46736e-08 0)
0.18          (0.96564 -6.59406e-08 0) (0.829399 -4.70326e-07 0) (0.69779 -6.96151e-07 0) (0.573976 -5.50971e-07 0) (0.460262 -1.29816e-07 0) (0.357885 3.71117e-07 0) (0.266933 7.56526e-07 0) (0.186391 8.93319e-07 0) (0.114289 7.29327e-07 0) (0.0479203 2.95166e-07 0) (0.0159016 7.62123e-08 0)
0.19          (0.966504 -4.97172e-08 0) (0.833596 -4.33775e-07 0) (0.704863 -6.84509e-07 0) (0.583165 -5.6533e-07 0) (0.470607 -1.67371e-07 0) (0.368345 3.14448e-07 0) (0.276496 6.77799e-07 0) (0.194167 7.83822e-07 0) (0.119583 5.87282e-07 0) (0.0502728 1.84928e-07 0) (0.0166913 4.02183e-08 0)
0.2           (0.967283 -5.30212e-08 0) (0.837385 -4.19335e-07 0) (0.711257 -6.5826e-07 0) (0.59149 -5.52255e-07 0) (0.480007 -1.72757e-07 0) (0.377877 2.96624e-07 0) (0.285234 6.60884e-07 0) (0.201291 7.83879e-07 0) (0.124443 6.17065e-07 0) (0.0524349 2.28511e-07 0) (0.0174174 5.43892e-08 0)
0.21          (0.967986 -5.63945e-08 0) (0.840811 -4.4951e-07 0) (0.717045 -6.98479e-07 0) (0.599039 -5.84148e-07 0) (0.488547 -1.94049e-07 0) (0.386557 2.84096e-07 0) (0.29321 6.51429e-07 0) (0.207807 7.68155e-07 0) (0.128895 5.8854e-07 0) (0.0544171 1.97876e-07 0) (0.0180831 4.67381e-08 0)
0.22          (0.968624 -5.2346e-08 0) (0.843913 -4.24058e-07 0) (0.722291 -6.71032e-07 0) (0.605891 -5.71279e-07 0) (0.496312 -1.96296e-07 0) (0.394464 2.71742e-07 0) (0.300489 6.34323e-07 0) (0.213763 7.53379e-07 0) (0.132968 5.80113e-07 0) (0.0562324 2.02033e-07 0) (0.0186929 4.53978e-08 0)
0.23          (0.969201 -5.77608e-08 0) (0.846725 -4.61446e-07 0) (0.727049 -7.20378e-07 0) (0.612112 -6.08094e-07 0) (0.503371 -2.12559e-07 0) (0.401662 2.761e-07 0) (0.307125 6.5502e-07 0) (0.219199 7.79985e-07 0) (0.136691 6.03646e-07 0) (0.0578919 2.0903e-07 0) (0.0192504 5.0865e-08 0)
0.24          (0.969724 -5.27582e-08 0) (0.849276 -4.36234e-07 0) (0.73137 -6.98315e-07 0) (0.617766 -5.97659e-07 0) (0.509794 -2.15269e-07 0) (0.408219 2.63805e-07 0) (0.313176 6.37235e-07 0) (0.224161 7.55348e-07 0) (0.140091 5.76563e-07 0) (0.0594085 1.99665e-07 0) (0.0197599 4.31601e-08 0)
0.25          (0.9702 -5.62492e-08 0) (0.851593 -4.53468e-07 0) (0.735295 -7.1587e-07 0) (0.622906 -6.33436e-07 0) (0.515638 -2.83343e-07 0) (0.41419 1.55577e-07 0) (0.318691 4.72408e-07 0) (0.228688 5.32643e-07 0) (0.143194 3.1544e-07 0) (0.0607933 2.57532e-08 0) (0.0202252 -4.23055e-09 0)
0.26          (0.970631 -5.07549e-08 0) (0.853698 -4.36815e-07 0) (0.738861 -6.98848e-07 0) (0.627579 -6.05885e-07 0) (0.520953 -2.35645e-07 0) (0.419625 2.30744e-07 0) (0.323715 5.97002e-07 0) (0.232813 7.25202e-07 0) (0.146024 5.80799e-07 0) (0.0620563 2.32568e-07 0) (0.0206496 6.43211e-08 0)
0.27          (0.971024 -5.06133e-08 0) (0.85561 -4.31241e-07 0) (0.742104 -6.91417e-07 0) (0.631829 -6.12026e-07 0) (0.525791 -2.65612e-07 0) (0.424575 1.69364e-07 0) (0.328292 4.87577e-07 0) (0.236574 5.55502e-07 0) (0.148604 3.46766e-07 0) (0.0632083 4.77985e-08 0) (0.0210367 -4.29312e-10 0)
0.28          (0.97138 -5.40288e-08 0) (0.857349 -4.50729e-07 0) (0.745051 -7.15232e-07 0) (0.635694 -6.18458e-07 0) (0.530191 -2.41346e-07 0) (0.429079 2.32229e-07 0) (0.33246 6.03338e-07 0) (0.239999 7.31995e-07 0) (0.150955 5.81331e-07 0) (0.064258 2.25588e-07 0) (0.0213895 6.1101e-08 0)
0.29          (0.971705 -5.20596e-08 0) (0.85893 -4.3961e-07 0) (0.747733 -7.03297e-07 0) (0.639211 -6.18998e-07 0) (0.534198 -2.60719e-07 0) (0.433181 1.89663e-07 0) (0.336257 5.23309e-07 0) (0.24312 6.03597e-07 0) (0.153098 3.97493e-07 0) (0.0652149 7.81033e-08 0) (0.021711 8.54935e-09 0)
0.3           (0.972 -4.22543e-08 0) (0.860369 -3.96935e-07 0) (0.750174 -6.58929e-07 0) (0.642413 -5.85522e-07 0) (0.537845 -2.39823e-07 0) (0.436917 2.04999e-07 0) (0.339715 5.56244e-07 0) (0.245964 6.76664e-07 0) (0.155051 5.30211e-07 0) (0.0660873 1.9796e-07 0) (0.0220043 5.18337e-08 0)
0.31          (0.972268 -5.74881e-08 0) (0.861677 -4.47086e-07 0) (0.752393 -6.96716e-07 0) (0.645324 -6.06677e-07 0) (0.541163 -2.51175e-07 0) (0.440316 1.94871e-07 0) (0.342863 5.29279e-07 0) (0.248553 6.18966e-07 0) (0.156829 4.26552e-07 0) (0.0668813 1.03063e-07 0) (0.022271 1.81435e-08 0)
0.32          (0.972512 -4.05701e-08 0) (0.862868 -3.9176e-07 0) (0.754413 -6.50246e-07 0) (0.647975 -5.73845e-07 0) (0.544185 -2.27459e-07 0) (0.443412 2.16878e-07 0) (0.34573 5.6799e-07 0) (0.250912 6.89055e-07 0) (0.158449 5.41576e-07 0) (0.067605 2.02192e-07 0) (0.0225144 5.24158e-08 0)
0.33          (0.972734 -5.87437e-08 0) (0.863951 -4.51399e-07 0) (0.75625 -6.99767e-07 0) (0.650386 -6.04296e-07 0) (0.546933 -2.41698e-07 0) (0.446228 2.10948e-07 0) (0.348339 5.50633e-07 0) (0.253058 6.43008e-07 0) (0.159923 4.47887e-07 0) (0.0682633 1.12998e-07 0) (0.0227355 2.05866e-08 0)
0.34          (0.972936 -4.14232e-08 0) (0.864937 -3.98248e-07 0) (0.757923 -6.58465e-07 0) (0.652582 -5.77135e-07 0) (0.549436 -2.22078e-07 0) (0.448793 2.31112e-07 0) (0.350715 5.8803e-07 0) (0.255013 7.0958e-07 0) (0.161266 5.56224e-07 0) (0.0688635 2.06362e-07 0) (0.0229373 5.31829e-08 0)
0.35          (0.97312 -4.75282e-08 0) (0.865834 -3.97653e-07 0) (0.759447 -6.42393e-07 0) (0.654582 -5.67222e-07 0) (0.551716 -2.3512e-07 0) (0.451129 1.85372e-07 0) (0.352879 5.04945e-07 0) (0.256794 5.87217e-07 0) (0.16249 3.98452e-07 0) (0.0694101 8.59486e-08 0) (0.0231209 1.03698e-08 0)
0.36          (0.973288 -5.71217e-08 0) (0.866651 -4.26845e-07 0) (0.760832 -6.61849e-07 0) (0.6564 -5.64973e-07 0) (0.553789 -2.0136e-07 0) (0.453254 2.59815e-07 0) (0.354848 6.37202e-07 0) (0.258414 7.97251e-07 0) (0.163603 6.8388e-07 0) (0.0699074 3.01101e-07 0) (0.0232882 8.21366e-08 0)
0.37          (0.97344 -4.6722e-08 0) (0.867394 -4.01176e-07 0) (0.762094 -6.44993e-07 0) (0.658056 -5.61041e-07 0) (0.555677 -2.17376e-07 0) (0.45519 2.18862e-07 0) (0.356642 5.60879e-07 0) (0.25989 6.70599e-07 0) (0.164617 4.98157e-07 0) (0.0703604 1.42948e-07 0) (0.0234404 2.71721e-08 0)
0.38          (0.973579 -5.7233e-08 0) (0.86807 -4.26718e-07 0) (0.763241 -6.58472e-07 0) (0.659562 -5.56736e-07 0) (0.557395 -1.89046e-07 0) (0.45695 2.73984e-07 0) (0.358273 6.4691e-07 0) (0.261232 7.91971e-07 0) (0.165539 6.50936e-07 0) (0.0707724 2.61455e-07 0) (0.0235788 6.67011e-08 0)
0.39          (0.973705 -4.32517e-08 0) (0.868686 -3.89403e-07 0) (0.764286 -6.33426e-07 0) (0.660934 -5.47318e-07 0) (0.558959 -1.98651e-07 0) (0.458554 2.42947e-07 0) (0.359759 5.88781e-07 0) (0.262455 6.99931e-07 0) (0.16638 5.2733e-07 0) (0.0711478 1.64337e-07 0) (0.023705 3.51641e-08 0)
0.4           (0.97382 -4.67147e-08 0) (0.869247 -3.74976e-07 0) (0.765238 -5.99986e-07 0) (0.662184 -5.18591e-07 0) (0.560384 -1.84472e-07 0) (0.460015 2.42374e-07 0) (0.361113 5.82078e-07 0) (0.26357 7.02307e-07 0) (0.167145 5.53268e-07 0) (0.07149 2.03006e-07 0) (0.0238201 4.76043e-08 0)
0.41          (0.973925 -4.63789e-08 0) (0.869757 -3.85404e-07 0) (0.766104 -6.12601e-07 0) (0.66332 -5.2257e-07 0) (0.56168 -1.83257e-07 0) (0.461344 2.42426e-07 0) (0.362344 5.74217e-07 0) (0.264583 6.80128e-07 0) (0.167841 5.16612e-07 0) (0.0718009 1.68931e-07 0) (0.0239245 3.87871e-08 0)
0.42          (0.97402 -4.45112e-08 0) (0.870222 -3.64162e-07 0) (0.766892 -5.81762e-07 0) (0.664356 -4.98902e-07 0) (0.562861 -1.71991e-07 0) (0.462554 2.41188e-07 0) (0.363466 5.63331e-07 0) (0.265506 6.67746e-07 0) (0.168476 5.10279e-07 0) (0.0720843 1.75623e-07 0) (0.0240198 3.87804e-08 0)
0.43          (0.974107 -4.5361e-08 0) (0.870644 -3.78808e-07 0) (0.767609 -6.0099e-07 0) (0.665296 -5.07896e-07 0) (0.563933 -1.69475e-07 0) (0.463654 2.51094e-07 0) (0.364485 5.75736e-07 0) (0.266345 6.76067e-07 0) (0.169052 5.12905e-07 0) (0.0723417 1.70809e-07 0) (0.0241063 4.01739e-08 0)
0.44          (0.974186 -4.28676e-08 0) (0.871029 -3.59041e-07 0) (0.768262 -5.77174e-07 0) (0.666154 -4.89409e-07 0) (0.564911 -1.6199e-07 0) (0.464656 2.47317e-07 0) (0.365414 5.63466e-07 0) (0.267109 6.56649e-07 0) (0.169577 4.94439e-07 0) (0.0725765 1.69942e-07 0) (0.0241852 3.60064e-08 0)
0.45          (0.974258 -4.46632e-08 0) (0.87138 -3.68794e-07 0) (0.768857 -5.84613e-07 0) (0.666936 -5.11731e-07 0) (0.565803 -2.14627e-07 0) (0.46557 1.52897e-07 0) (0.366261 4.08743e-07 0) (0.267807 4.37774e-07 0) (0.170056 2.30585e-07 0) (0.0727905 -8.98522e-09 0) (0.0242571 -1.39601e-08 0)
0.46          (0.974323 -3.73753e-08 0) (0.871699 -3.4088e-07 0) (0.769398 -5.51091e-07 0) (0.667645 -4.69778e-07 0) (0.566612 -1.60288e-07 0) (0.4664 2.24158e-07 0) (0.36703 5.17933e-07 0) (0.26844 6.07579e-07 0) (0.170491 4.73169e-07 0) (0.0729849 1.86763e-07 0) (0.0243225 5.16297e-08 0)
0.47          (0.974382 -3.9694e-08 0) (0.871989 -3.42355e-07 0) (0.769891 -5.4639e-07 0) (0.668293 -4.73316e-07 0) (0.567351 -1.84251e-07 0) (0.467157 1.69492e-07 0) (0.367731 4.16812e-07 0) (0.269017 4.49639e-07 0) (0.170888 2.5736e-07 0) (0.0731621 1.67567e-08 0) (0.024382 -7.74399e-09 0)
0.48          (0.974437 -3.08458e-08 0) (0.872254 -3.01622e-07 0) (0.770341 -5.0123e-07 0) (0.668883 -4.35077e-07 0) (0.568024 -1.55643e-07 0) (0.467847 1.95167e-07 0) (0.368371 4.62136e-07 0) (0.269543 5.39944e-07 0) (0.17125 4.11538e-07 0) (0.0733239 1.53804e-07 0) (0.0244364 4.08567e-08 0)
0.49          (0.974486 -4.18871e-08 0) (0.872495 -3.35256e-07 0) (0.770749 -5.20729e-07 0) (0.669419 -4.43036e-07 0) (0.568635 -1.63112e-07 0) (0.468474 1.77344e-07 0) (0.368951 4.1822e-07 0) (0.270021 4.59782e-07 0) (0.171578 2.87048e-07 0) (0.0734704 4.68724e-08 0) (0.0244856 3.7624e-09 0)
0.5           (0.974531 -2.68451e-08 0) (0.872714 -2.81377e-07 0) (0.771121 -4.71347e-07 0) (0.669908 -4.04699e-07 0) (0.569192 -1.33243e-07 0) (0.469045 2.05309e-07 0) (0.369481 4.61712e-07 0) (0.270457 5.34997e-07 0) (0.171878 4.07141e-07 0) (0.0736044 1.50074e-07 0) (0.0245307 3.9055e-08 0)
0.51          (0.974572 -4.11129e-08 0) (0.872913 -3.24167e-07 0) (0.771459 -5.00481e-07 0) (0.670351 -4.19858e-07 0) (0.569698 -1.42686e-07 0) (0.469563 1.91941e-07 0) (0.369961 4.28876e-07 0) (0.270852 4.71531e-07 0) (0.172149 3.02815e-07 0) (0.0737256 5.88833e-08 0) (0.0245713 7.32786e-09 0)
0.52          (0.974609 -2.58826e-08 0) (0.873095 -2.73409e-07 0) (0.771767 -4.56953e-07 0) (0.670755 -3.87833e-07 0) (0.570159 -1.1818e-07 0) (0.470036 2.15437e-07 0) (0.370399 4.6613e-07 0) (0.271213 5.35058e-07 0) (0.172397 4.04636e-07 0) (0.0738364 1.46855e-07 0) (0.0246087 3.76764e-08 0)
0.53          (0.974643 -3.38733e-08 0) (0.87326 -2.83954e-07 0) (0.772048 -4.52926e-07 0) (0.671125 -3.8638e-07 0) (0.57058 -1.33151e-07 0) (0.470468 1.7685e-07 0) (0.3708 3.97165e-07 0) (0.271542 4.35757e-07 0) (0.172624 2.77341e-07 0) (0.0739376 5.2039e-08 0) (0.0246427 4.89948e-09 0)
0.54          (0.974674 -2.88678e-08 0) (0.87341 -2.69505e-07 0) (0.772303 -4.36976e-07 0) (0.671459 -3.65347e-07 0) (0.570962 -1.06742e-07 0) (0.470859 2.09777e-07 0) (0.371162 4.46017e-07 0) (0.271841 5.09e-07 0) (0.172829 3.82879e-07 0) (0.0740292 1.36959e-07 0) (0.0246735 3.50235e-08 0)
0.55          (0.974702 -3.16148e-08 0) (0.873548 -2.65239e-07 0) (0.772536 -4.25791e-07 0) (0.671765 -3.58161e-07 0) (0.57131 -1.13616e-07 0) (0.471216 1.81305e-07 0) (0.371493 3.92191e-07 0) (0.272113 4.24781e-07 0) (0.173016 2.72362e-07 0) (0.0741128 4.95837e-08 0) (0.0247016 3.51373e-09 0)
0.56          (0.974727 -3.81532e-08 0) (0.873672 -2.85117e-07 0) (0.772746 -4.40295e-07 0) (0.672041 -3.56192e-07 0) (0.571625 -8.92666e-08 0) (0.471539 2.36552e-07 0) (0.371793 4.88996e-07 0) (0.27236 5.85567e-07 0) (0.173185 4.95531e-07 0) (0.0741885 2.1915e-07 0) (0.024727 6.01548e-08 0)
0.57          (0.974751 -2.10522e-08 0) (0.873785 -2.31779e-07 0) (0.772939 -3.91477e-07 0) (0.672294 -3.27618e-07 0) (0.571913 -8.29406e-08 0) (0.471835 2.20197e-07 0) (0.372066 4.47684e-07 0) (0.272585 5.05734e-07 0) (0.17334 3.66884e-07 0) (0.0742576 1.04836e-07 0) (0.0247502 2.03265e-08 0)
0.58          (0.974772 -3.28438e-08 0) (0.873889 -2.4738e-07 0) (0.773115 -3.87896e-07 0) (0.672525 -3.17887e-07 0) (0.572177 -7.55018e-08 0) (0.472105 2.24198e-07 0) (0.372317 4.56951e-07 0) (0.272791 5.35126e-07 0) (0.173482 4.27781e-07 0) (0.0743211 1.68898e-07 0) (0.0247716 4.11674e-08 0)
0.59          (0.974791 -2.43608e-08 0) (0.873982 -2.29346e-07 0) (0.773273 -3.72442e-07 0) (0.672733 -3.05e-07 0) (0.572415 -7.16978e-08 0) (0.472349 2.1275e-07 0) (0.372543 4.23604e-07 0) (0.272977 4.73563e-07 0) (0.173609 3.39699e-07 0) (0.0743781 9.68025e-08 0) (0.0247907 1.90062e-08 0)
0.6           (0.974809 -2.78621e-08 0) (0.874068 -2.24556e-07 0) (0.773419 -3.55852e-07 0) (0.672924 -2.89592e-07 0) (0.572632 -6.24665e-08 0) (0.472572 2.15806e-07 0) (0.37275 4.26593e-07 0) (0.273147 4.88085e-07 0) (0.173726 3.75614e-07 0) (0.0744305 1.39042e-07 0) (0.0248084 3.21516e-08 0)
0.61          (0.974825 -1.92053e-08 0) (0.874147 -1.97227e-07 0) (0.773552 -3.31038e-07 0) (0.673099 -2.74943e-07 0) (0.572832 -6.55843e-08 0) (0.472777 1.91609e-07 0) (0.372939 3.81303e-07 0) (0.273303 4.23944e-07 0) (0.173834 3.016e-07 0) (0.0744783 8.61314e-08 0) (0.0248244 1.70803e-08 0)
0.62          (0.974839 -2.73756e-08 0) (0.874217 -2.11597e-07 0) (0.773672 -3.29891e-07 0) (0.673256 -2.66398e-07 0) (0.573011 -5.63451e-08 0) (0.47296 1.99042e-07 0) (0.37311 3.89923e-07 0) (0.273444 4.42229e-07 0) (0.17393 3.35293e-07 0) (0.0745214 1.20507e-07 0) (0.0248389 2.75647e-08 0)
0.63          (0.974853 -1.60796e-08 0) (0.874282 -1.77935e-07 0) (0.773782 -3.02002e-07 0) (0.673401 -2.49221e-07 0) (0.573176 -5.38789e-08 0) (0.473129 1.85068e-07 0) (0.373266 3.60098e-07 0) (0.273572 3.98227e-07 0) (0.174018 2.84464e-07 0) (0.0745609 8.44043e-08 0) (0.0248522 1.75259e-08 0)
0.64          (0.974865 -2.30095e-08 0) (0.874341 -1.85529e-07 0) (0.773883 -2.95799e-07 0) (0.673533 -2.42562e-07 0) (0.573327 -5.4901e-08 0) (0.473284 1.74756e-07 0) (0.373409 3.45015e-07 0) (0.27369 3.88297e-07 0) (0.1741 2.87784e-07 0) (0.0745973 9.81738e-08 0) (0.0248645 2.12267e-08 0)
0.65          (0.974876 -1.61444e-08 0) (0.874395 -1.66474e-07 0) (0.773973 -2.77839e-07 0) (0.673652 -2.27378e-07 0) (0.573462 -4.73894e-08 0) (0.473423 1.71336e-07 0) (0.373538 3.30576e-07 0) (0.273796 3.64065e-07 0) (0.174172 2.5967e-07 0) (0.0746297 7.75169e-08 0) (0.0248753 1.63987e-08 0)
0.66          (0.974886 -2.01494e-08 0) (0.874444 -1.67722e-07 0) (0.774056 -2.68998e-07 0) (0.673761 -2.19561e-07 0) (0.573586 -4.64484e-08 0) (0.47355 1.64267e-07 0) (0.373656 3.18328e-07 0) (0.273893 3.5407e-07 0) (0.174239 2.57677e-07 0) (0.0746596 8.48739e-08 0) (0.0248854 1.75813e-08 0)
0.67          (0.974895 -1.27654e-08 0) (0.874489 -1.43892e-07 0) (0.774132 -2.47088e-07 0) (0.673861 -2.05019e-07 0) (0.573701 -4.41087e-08 0) (0.473667 1.5296e-07 0) (0.373765 2.95982e-07 0) (0.273983 3.24627e-07 0) (0.174301 2.29244e-07 0) (0.0746871 6.72712e-08 0) (0.0248947 1.40186e-08 0)
0.68          (0.974903 -1.79658e-08 0) (0.874529 -1.52168e-07 0) (0.7742 -2.4474e-07 0) (0.67395 -1.97674e-07 0) (0.573803 -3.93553e-08 0) (0.473772 1.52642e-07 0) (0.373862 2.93455e-07 0) (0.274063 3.24802e-07 0) (0.174355 2.38753e-07 0) (0.0747116 8.41642e-08 0) (0.0249029 1.75479e-08 0)
0.69          (0.974911 -1.66028e-08 0) (0.874566 -1.53928e-07 0) (0.774263 -2.49423e-07 0) (0.674033 -2.13472e-07 0) (0.573896 -7.5063e-08 0) (0.473868 8.7954e-08 0) (0.373951 1.87034e-07 0) (0.274136 1.70271e-07 0) (0.174406 4.6653e-08 0) (0.0747341 -5.07842e-08 0) (0.0249104 -2.17679e-08 0)
0.7           (0.974917 -1.02182e-08 0) (0.874598 -1.25335e-07 0) (0.774319 -2.15989e-07 0) (0.674106 -1.79834e-07 0) (0.57398 -4.07436e-08 0) (0.473954 1.28082e-07 0) (0.37403 2.47839e-07 0) (0.274201 2.69906e-07 0) (0.174451 1.97071e-07 0) (0.0747542 7.69169e-08 0) (0.0249172 2.1526e-08 0)
0.71          (0.974924 -1.61294e-08 0) (0.874629 -1.4012e-07 0) (0.77437 -2.26646e-07 0) (0.674173 -1.94259e-07 0) (0.574057 -6.48955e-08 0) (0.474033 8.39365e-08 0) (0.374103 1.7912e-07 0) (0.274261 1.70362e-07 0) (0.174492 7.12143e-08 0) (0.0747726 -2.25669e-08 0) (0.0249234 -1.38677e-08 0)
0.72          (0.974929 -8.54745e-09 0) (0.874657 -1.10627e-07 0) (0.774418 -1.95214e-07 0) (0.674235 -1.64843e-07 0) (0.574128 -3.90915e-08 0) (0.474105 1.15187e-07 0) (0.374171 2.24831e-07 0) (0.274317 2.45603e-07 0) (0.17453 1.78957e-07 0) (0.0747898 6.7651e-08 0) (0.0249292 1.83029e-08 0)
0.73          (0.974934 -1.5731e-08 0) (0.874681 -1.27601e-07 0) (0.774459 -2.0537e-07 0) (0.67429 -1.75581e-07 0) (0.57419 -5.6962e-08 0) (0.474169 8.11362e-08 0) (0.37423 1.71991e-07 0) (0.274366 1.7142e-07 0) (0.174564 8.73357e-08 0) (0.0748047 -4.84908e-09 0) (0.0249342 -7.49264e-09 0)
0.74          (0.974939 -4.23261e-09 0) (0.874704 -8.66259e-08 0) (0.774498 -1.63584e-07 0) (0.674341 -1.38135e-07 0) (0.574248 -2.47447e-08 0) (0.474229 1.15614e-07 0) (0.374285 2.15623e-07 0) (0.274411 2.34039e-07 0) (0.174595 1.70681e-07 0) (0.0748187 6.3431e-08 0) (0.0249389 1.68934e-08 0)
0.75          (0.974943 -1.35945e-08 0) (0.874725 -1.13996e-07 0) (0.774534 -1.81711e-07 0) (0.674388 -1.53569e-07 0) (0.574302 -4.67119e-08 0) (0.474284 8.11462e-08 0) (0.374336 1.65055e-07 0) (0.274453 1.68033e-07 0) (0.174624 9.12751e-08 0) (0.0748316 3.86033e-09 0) (0.0249433 -2.94624e-09 0)
0.76          (0.974948 -4.46529e-09 0) (0.874745 -8.10944e-08 0) (0.774567 -1.50273e-07 0) (0.674432 -1.27252e-07 0) (0.574352 -2.54765e-08 0) (0.474335 1.00108e-07 0) (0.374383 1.89265e-07 0) (0.274492 2.04575e-07 0) (0.174651 1.46206e-07 0) (0.0748437 5.09681e-08 0) (0.0249473 1.2956e-08 0)
0.77          (0.974951 -1.02417e-08 0) (0.874762 -9.40064e-08 0) (0.774596 -1.55245e-07 0) (0.67447 -1.32894e-07 0) (0.574395 -3.96966e-08 0) (0.474379 7.33065e-08 0) (0.374424 1.48678e-07 0) (0.274526 1.53276e-07 0) (0.174674 8.74213e-08 0) (0.074854 8.51596e-09 0) (0.0249508 -1.14746e-09 0)
0.78          (0.974954 -4.13352e-09 0) (0.874778 -7.14153e-08 0) (0.774623 -1.32465e-07 0) (0.674505 -1.12308e-07 0) (0.574435 -2.19269e-08 0) (0.474421 8.97522e-08 0) (0.374463 1.68719e-07 0) (0.274557 1.81326e-07 0) (0.174696 1.27711e-07 0) (0.0748637 4.25734e-08 0) (0.0249541 1.04237e-08 0)
0.79          (0.974957 -8.48502e-09 0) (0.874792 -8.17664e-08 0) (0.774648 -1.37297e-07 0) (0.674538 -1.16819e-07 0) (0.574473 -3.33046e-08 0) (0.474459 6.80274e-08 0) (0.374498 1.3698e-07 0) (0.274587 1.41236e-07 0) (0.174716 8.30367e-08 0) (0.0748728 8.48347e-09 0) (0.0249571 -1.36489e-09 0)
0.8           (0.97496 -5.65074e-09 0) (0.874805 -6.4881e-08 0) (0.774669 -1.12628e-07 0) (0.674566 -8.67068e-08 0) (0.574504 4.41901e-09 0) (0.474492 1.17814e-07 0) (0.374529 2.04376e-07 0) (0.274612 2.347e-07 0) (0.174733 1.99946e-07 0) (0.0748805 9.38085e-08 0) (0.0249598 2.66886e-08 0)
0.81          (0.974962 -3.53516e-09 0) (0.874817 -5.65078e-08 0) (0.774689 -1.04903e-07 0) (0.674592 -8.70777e-08 0) (0.574534 -9.68075e-09 0) (0.474522 8.71132e-08 0) (0.374557 1.56508e-07 0) (0.274635 1.65587e-07 0) (0.174749 1.06746e-07 0) (0.0748876 1.768e-08 0) (0.0249621 -6.33696e-11 0)
0.82          (0.974965 -8.12542e-09 0) (0.874828 -6.38355e-08 0) (0.774708 -1.02633e-07 0) (0.674616 -7.81541e-08 0) (0.574562 3.94032e-09 0) (0.474551 1.05391e-07 0) (0.374584 1.83042e-07 0) (0.274657 2.06504e-07 0) (0.174764 1.66427e-07 0) (0.0748944 7.12118e-08 0) (0.0249644 1.86606e-08 0)
0.83          (0.974967 -2.99556e-09 0) (0.874838 -5.06411e-08 0) (0.774725 -9.36849e-08 0) (0.674639 -7.5524e-08 0) (0.574589 -3.35295e-09 0) (0.474578 8.53645e-08 0) (0.374609 1.47736e-07 0) (0.274678 1.54649e-07 0) (0.174778 1.01048e-07 0) (0.0749007 2.05001e-08 0) (0.0249665 1.89249e-09 0)
0.84          (0.974968 -5.45428e-09 0) (0.874847 -5.0083e-08 0) (0.77474 -8.56995e-08 0) (0.674658 -6.50474e-08 0) (0.57461 6.6772e-09 0) (0.4746 9.47537e-08 0) (0.374629 1.5974e-07 0) (0.274694 1.74654e-07 0) (0.17479 1.3353e-07 0) (0.0749059 5.17195e-08 0) (0.0249683 1.21337e-08 0)
0.85          (0.97497 -9.4751e-10 0) (0.874855 -3.59199e-08 0) (0.774753 -7.20745e-08 0) (0.674676 -5.69506e-08 0) (0.57463 5.82273e-09 0) (0.474621 8.4278e-08 0) (0.374648 1.40288e-07 0) (0.27471 1.4694e-07 0) (0.174801 9.90746e-08 0) (0.0749108 2.41958e-08 0) (0.0249699 4.14551e-09 0)
0.86          (0.974972 -5.44263e-09 0) (0.874862 -4.39116e-08 0) (0.774766 -7.31543e-08 0) (0.674693 -5.39317e-08 0) (0.57465 9.23954e-09 0) (0.47464 8.56843e-08 0) (0.374667 1.40825e-07 0) (0.274725 1.51045e-07 0) (0.174811 1.12351e-07 0) (0.0749154 4.11763e-08 0) (0.0249715 9.07888e-09 0)
0.87          (0.974973 -5.33615e-10 0) (0.874869 -3.00627e-08 0) (0.774778 -6.05549e-08 0) (0.674709 -4.56734e-08 0) (0.574668 1.11433e-08 0) (0.474659 8.1322e-08 0) (0.374684 1.30818e-07 0) (0.27474 1.35888e-07 0) (0.174821 9.26143e-08 0) (0.0749198 2.46489e-08 0) (0.024973 4.80692e-09 0)
0.88          (0.974975 -4.87249e-09 0) (0.874876 -3.8532e-08 0) (0.77479 -6.38285e-08 0) (0.674724 -4.62211e-08 0) (0.574685 9.97398e-09 0) (0.474677 7.70464e-08 0) (0.3747 1.24383e-07 0) (0.274753 1.31194e-07 0) (0.17483 9.50569e-08 0) (0.074924 3.29167e-08 0) (0.0249744 6.82423e-09 0)
0.89          (0.974976 -2.89903e-10 0) (0.874881 -2.52782e-08 0) (0.774799 -5.11707e-08 0) (0.674736 -3.73851e-08 0) (0.574698 1.31532e-08 0) (0.47469 7.55842e-08 0) (0.374713 1.19567e-07 0) (0.274763 1.23478e-07 0) (0.174837 8.40296e-08 0) (0.0749272 2.28795e-08 0) (0.0249754 4.62603e-09 0)
0.9           (0.974977 -3.30773e-09 0) (0.874886 -2.90776e-08 0) (0.774807 -5.03989e-08 0) (0.674747 -3.55816e-08 0) (0.574711 1.21962e-08 0) (0.474703 6.89186e-08 0) (0.374725 1.08061e-07 0) (0.274773 1.11457e-07 0) (0.174844 7.75673e-08 0) (0.0749302 2.4502e-08 0) (0.0249765 4.42902e-09 0)
0.91          (0.974978 -5.33101e-10 0) (0.874891 -2.15804e-08 0) (0.774815 -4.27618e-08 0) (0.674757 -3.06001e-08 0) (0.574723 1.27956e-08 0) (0.474716 6.62384e-08 0) (0.374736 1.03661e-07 0) (0.274783 1.064e-07 0) (0.174851 7.1843e-08 0) (0.0749331 1.94315e-08 0) (0.0249775 3.96025e-09 0)
0.92          (0.974979 -2.86583e-09 0) (0.874896 -2.50418e-08 0) (0.774823 -4.30569e-08 0) (0.674767 -2.99461e-08 0) (0.574734 1.1321e-08 0) (0.474727 5.99299e-08 0) (0.374747 9.30739e-08 0) (0.274792 9.51637e-08 0) (0.174857 6.5403e-08 0) (0.0749359 2.01532e-08 0) (0.0249784 3.48654e-09 0)
0.93          (0.974979 -4.82497e-10 0) (0.8749 -1.90399e-08 0) (0.77483 -3.74957e-08 0) (0.674777 -2.65678e-08 0) (0.574745 1.16282e-08 0) (0.474739 5.8459e-08 0) (0.374758 9.11281e-08 0) (0.2748 9.33658e-08 0) (0.174863 6.30323e-08 0) (0.0749386 1.71832e-08 0) (0.0249793 3.54655e-09 0)
0.94          (0.97498 -1.52381e-09 0) (0.874903 -1.85776e-08 0) (0.774835 -3.46806e-08 0) (0.674783 -2.4039e-08 0) (0.574753 1.07452e-08 0) (0.474746 5.15409e-08 0) (0.374765 7.88826e-08 0) (0.274806 7.97072e-08 0) (0.174867 5.3373e-08 0) (0.0749404 1.53177e-08 0) (0.0249799 2.24262e-09 0)
0.95          (0.974981 -1.18132e-09 0) (0.874906 -1.76238e-08 0) (0.77484 -3.35576e-08 0) (0.674789 -2.57768e-08 0) (0.57476 4.75072e-09 0) (0.474753 4.33326e-08 0) (0.374771 7.1253e-08 0) (0.274812 7.40684e-08 0) (0.17487 4.935e-08 0) (0.074942 1.23191e-08 0) (0.0249805 2.27181e-09 0)
0.96          (0.974981 -1.58281e-09 0) (0.874908 -1.76662e-08 0) (0.774844 -3.25085e-08 0) (0.674795 -2.3935e-08 0) (0.574766 6.58313e-09 0) (0.47476 4.38561e-08 0) (0.374778 7.01579e-08 0) (0.274817 7.29518e-08 0) (0.174874 5.05626e-08 0) (0.0749437 1.57026e-08 0) (0.024981 2.94317e-09 0)
0.97          (0.974982 -6.82582e-10 0) (0.874911 -1.45262e-08 0) (0.774849 -2.80337e-08 0) (0.674801 -2.16374e-08 0) (0.574773 4.08676e-09 0) (0.474767 3.68853e-08 0) (0.374784 6.08144e-08 0) (0.274822 6.35144e-08 0) (0.174878 4.24815e-08 0) (0.0749453 1.06323e-08 0) (0.0249816 1.9571e-09 0)
0.98          (0.974982 -1.0935e-09 0) (0.874913 -1.29171e-08 0) (0.774853 -2.38882e-08 0) (0.674807 -1.66132e-08 0) (0.574779 7.47476e-09 0) (0.474774 3.6438e-08 0) (0.37479 5.66437e-08 0) (0.274827 5.8118e-08 0) (0.174881 3.94981e-08 0) (0.0749469 1.16395e-08 0) (0.0249821 1.82864e-09 0)
0.99          (0.974983 -6.82019e-10 0) (0.874916 -1.22776e-08 0) (0.774857 -2.31695e-08 0) (0.674812 -1.74963e-08 0) (0.574786 4.1849e-09 0) (0.47478 3.18573e-08 0) (0.374796 5.2266e-08 0) (0.274832 5.47826e-08 0) (0.174885 3.69789e-08 0) (0.0749484 9.57167e-09 0) (0.0249826 1.91811e-09 0)