# Probe 0 (0.5 1 0)
# Probe 1 (0.5 0.9 0)
# Probe 2 (0.5 0.8 0)
# Probe 3 (0.5 0.7 0)
# Probe 4 (0.5 0.6 0)
# Probe 5 (0.5 0.5 0)
# Probe 6 (0.5 0.4 0)
# Probe 7 (0.5 0.3 0)
# Probe 8 (0.5 0.2 0)
# Probe 9 (0.5 0.1 0)
# Probe 10 (0.5 0 0)
# Time        0             1             2             3             4             5             6             7             8             9             10           
0             (-1.79769e+307 -1.79769e+307 -1.79769e+307) (-1.79769e+307 -1.79769e+307 -1.79769e+307) (-1.79769e+307 -1.79769e+307 -1.79769e+307) (-1.79769e+307 -1.79769e+307 -1.79769e+307) (-1.79769e+307 -1.79769e+307 -1.79769e+307) (-1.79769e+307 -1.79769e+307 -1.79769e+307) (-1.79769e+307 -1.79769e+307 -1.79769e+307) (-1.79769e+307 -1.79769e+307 -1.79769e+307) (-1.79769e+307 -1.79769e+307 -1.79769e+307) (-1.79769e+307 -1.79769e+307 -1.79769e+307) (-1.79769e+307 -1.79769e+307 -1.79769e+307)
0.01          (-1.79769e+307 -1.79769e+307 -1.79769e+307) (-1.79769e+307 -1.79769e+307 -1.79769e+307) (-1.79769e+307 -1.79769e+307 -1.79769e+307) (-1.79769e+307 -1.79769e+307 -1.79769e+307) (-1.79769e+307 -1.79769e+307 -1.79769e+307) (-1.79769e+307 -1.79769e+307 -1.79769e+307) (-1.79769e+307 -1.79769e+307 -1.79769e+307) (-1.79769e+307 -1.79769e+307 -1.79769e+307) (-1.79769e+307 -1.79769e+307 -1.79769e+307) (-1.79769e+307 -1.79769e+307 -1.79769e+307) (-1.79769e+307 -1.79769e+307 -1.79769e+307)
0.02          (-1.79769e+307 -1.79769e+307 -1.79769e+307) (-1.79769e+307 -1.79769e+307 -1.79769e+307) (-1.79769e+307 -1.79769e+307 -1.79769e+307) (-1.79769e+307 -1.79769e+307 -1.79769e+307) (-1.79769e+307 -1.79769e+307 -1.79769e+307) (-1.79769e+307 -1.79769e+307 -1.79769e+307) (-1.79769e+307 -1.79769e+307 -1.79769e+307) (-1.79769e+307 -1.79769e+307 -1.79769e+307) (-1.79769e+307 -1.79769e+307 -1.79769e+307) (-1.79769e+307 -1.79769e+307 -1.79769e+307) (-1.79769e+307 -1.79769e+307 -1.79769e+307)
0.03          (-1.79769e+307 -1.79769e+307 -1.79769e+307) (-1.79769e+307 -1.79769e+307 -1.79769e+307) (-1.79769e+307 -1.79769e+307 -1.79769e+307) (-1.79769e+307 -1.79769e+307 -1.79769e+307) (-1.79769e+307 -1.79769e+307 -1.79769e+307) (-1.79769e+307 -1.79769e+307 -1.79769e+307) (-1.79769e+307 -1.79769e+307 -1.79769e+307) (-1.79769e+307 -1.79769e+307 -1.79769e+307) (-1.79769e+307 -1.79769e+307 -1.79769e+307) (-1.79769e+307 -1.79769e+307 -1.79769e+307) (-1.79769e+307 -1.79769e+307 -1.79769e+307)
0.04          (-1.79769e+307 -1.79769e+307 -1.79769e+307) (-1.79769e+307 -1.79769e+307 -1.79769e+307) (-1.79769e+307 -1.79769e+307 -1.79769e+307) (-1.79769e+307 -1.79769e+307 -1.79769e+307) (-1.79769e+307 -1.79769e+307 -1.79769e+307) (-1.79769e+307 -1.79769e+307 -1.79769e+307) (-1.79769e+307 -1.79769e+307 -1.79769e+307) (-1.79769e+307 -1.79769e+307 -1.79769e+307) (-1.79769e+307 -1.79769e+307 -1.79769e+307) (-1.79769e+307 -1.79769e+307 -1.79769e+307) (-1.79769e+307 -1.79769e+307 -1.79769e+307)
0.05          (-1.79769e+307 -1.79769e+307 -1.79769e+307) (-1.79769e+307 -1.79769e+307 -1.79769e+307) (-1.79769e+307 -1.79769e+307 -1.79769e+307) (-1.79769e+307 -1.79769e+307 -1.79769e+307) (-1.79769e+307 -1.79769e+307 -1.79769e+307) (-1.79769e+307 -1.79769e+307 -1.79769e+307) (-1.79769e+307 -1.79769e+307 -1.79769e+307) (-1.79769e+307 -1.79769e+307 -1.79769e+307) (-1.79769e+307 -1.79769e+307 -1.79769e+307) (-1.79769e+307 -1.79769e+307 -1.79769e+307) (-1.79769e+307 -1.79769e+307 -1.79769e+307)
0.06          (-1.79769e+307 -1.79769e+307 -1.79769e+307) (-1.79769e+307 -1.79769e+307 -1.79769e+307) (-1.79769e+307 -1.79769e+307 -1.79769e+307) (-1.79769e+307 -1.79769e+307 -1.79769e+307) (-1.79769e+307 -1.79769e+307 -1.79769e+307) (-1.79769e+307 -1.79769e+307 -1.79769e+307) (-1.79769e+307 -1.79769e+307 -1.79769e+307) (-1.79769e+307 -1.79769e+307 -1.79769e+307) (-1.79769e+307 -1.79769e+307 -1.79769e+307) (-1.79769e+307 -1.79769e+307 -1.79769e+307) (-1.79769e+307 -1.79769e+307 -1.79769e+307)
0.07          (-1.79769e+307 -1.79769e+307 -1.79769e+307) (-1.79769e+307 -1.79769e+307 -1.79769e+307) (-1.79769e+307 -1.79769e+307 -1.79769e+307) (-1.79769e+307 -1.79769e+307 -1.79769e+307) (-1.79769e+307 -1.79769e+307 -1.79769e+307) (-1.79769e+307 -1.79769e+307 -1.79769e+307) (-1.79769e+307 -1.79769e+307 -1.79769e+307) (-1.79769e+307 -1.79769e+307 -1.79769e+307) (-1.79769e+307 -1.79769e+307 -1.79769e+307) (-1.79769e+307 -1.79769e+307 -1.79769e+307) (-1.79769e+307 -1.79769e+307 -1.79769e+307)
0.08          (-1.79769e+307 -1.79769e+307 -1.79769e+307) (-1.79769e+307 -1.79769e+307 -1.79769e+307) (-1.79769e+307 -1.79769e+307 -1.79769e+307) (-1.79769e+307 -1.79769e+307 -1.79769e+307) (-1.79769e+307 -1.79769e+307 -1.79769e+307) (-1.79769e+307 -1.79769e+307 -1.79769e+307) (-1.79769e+307 -1.79769e+307 -1.79769e+307) (-1.79769e+307 -1.79769e+307 -1.79769e+307) (-1.79769e+307 -1.79769e+307 -1.79769e+307) (-1.79769e+307 -1.79769e+307 -1.79769e+307) (-1.79769e+307 -1.79769e+307 -1.79769e+307)
0.09          (-1.79769e+307 -1.79769e+307 -1.79769e+307) (-1.79769e+307 -1.79769e+307 -1.79769e+307) (-1.79769e+307 -1.79769e+307 -1.79769e+307) (-1.79769e+307 -1.79769e+307 -1.79769e+307) (-1.79769e+307 -1.79769e+307 -1.79769e+307) (-1.79769e+307 -1.79769e+307 -1.79769e+307) (-1.79769e+307 -1.79769e+307 -1.79769e+307) (-1.79769e+307 -1.79769e+307 -1.79769e+307) (-1.79769e+307 -1.79769e+307 -1.79769e+307) (-1.79769e+307 -1.79769e+307 -1.79769e+307) (-1.79769e+307 -1.79769e+307 -1.79769e+307)
0.1           (-1.79769e+307 -1.79769e+307 -1.79769e+307) (-1.79769e+307 -1.79769e+307 -1.79769e+307) (-1.79769e+307 -1.79769e+307 -1.79769e+307) (-1.79769e+307 -1.79769e+307 -1.79769e+307) (-1.79769e+307 -1.79769e+307 -1.79769e+307) (-1.79769e+307 -1.79769e+307 -1.79769e+307) (-1.79769e+307 -1.79769e+307 -1.79769e+307) (-1.79769e+307 -1.79769e+307 -1.79769e+307) (-1.79769e+307 -1.79769e+307 -1.79769e+307) (-1.79769e+307 -1.79769e+307 -1.79769e+307) (-1.79769e+307 -1.79769e+307 -1.79769e+307)
0.11          (-1.79769e+307 -1.79769e+307 -1.79769e+307) (-1.79769e+307 -1.79769e+307 -1.79769e+307) (-1.79769e+307 -1.79769e+307 -1.79769e+307) (-1.79769e+307 -1.79769e+307 -1.79769e+307) (-1.79769e+307 -1.79769e+307 -1.79769e+307) (-1.79769e+307 -1.79769e+307 -1.79769e+307) (-1.79769e+307 -1.79769e+307 -1.79769e+307) (-1.79769e+307 -1.79769e+307 -1.79769e+307) (-1.79769e+307 -1.79769e+307 -1.79769e+307) (-1.79769e+307 -1.79769e+307 -1.79769e+307) (-1.79769e+307 -1.79769e+307 -1.79769e+307)
0.12          (-1.79769e+307 -1.79769e+307 -1.79769e+307) (-1.79769e+307 -1.79769e+307 -1.79769e+307) (-1.79769e+307 -1.79769e+307 -1.79769e+307) (-1.79769e+307 -1.79769e+307 -1.79769e+307) (-1.79769e+307 -1.79769e+307 -1.79769e+307) (-1.79769e+307 -1.79769e+307 -1.79769e+307) (-1.79769e+307 -1.79769e+307 -1.79769e+307) (-1.79769e+307 -1.79769e+307 -1.79769e+307) (-1.79769e+307 -1.79769e+307 -1.79769e+307) (-1.79769e+307 -1.79769e+307 -1.79769e+307) (-1.79769e+307 -1.79769e+307 -1.79769e+307)
0.13          (-1.79769e+307 -1.79769e+307 -1.79769e+307) (-1.79769e+307 -1.79769e+307 -1.79769e+307) (-1.79769e+307 -1.79769e+307 -1.79769e+307) (-1.79769e+307 -1.79769e+307 -1.79769e+307) (-1.79769e+307 -1.79769e+307 -1.79769e+307) (-1.79769e+307 -1.79769e+307 -1.79769e+307) (-1.79769e+307 -1.79769e+307 -1.79769e+307) (-1.79769e+307 -1.79769e+307 -1.79769e+307) (-1.79769e+307 -1.79769e+307 -1.79769e+307) (-1.79769e+307 -1.79769e+307 -1.79769e+307) (-1.79769e+307 -1.79769e+307 -1.79769e+307)
0.14          (-1.79769e+307 -1.79769e+307 -1.79769e+307) (-1.79769e+307 -1.79769e+307 -1.79769e+307) (-1.79769e+307 -1.79769e+307 -1.79769e+307) (-1.79769e+307 -1.79769e+307 -1.79769e+307) (-1.79769e+307 -1.79769e+307 -1.79769e+307) (-1.79769e+307 -1.79769e+307 -1.79769e+307) (-1.79769e+307 -1.79769e+307 -1.79769e+307) (-1.79769e+307 -1.79769e+307 -1.79769e+307) (-1.79769e+307 -1.79769e+307 -1.79769e+307) (-1.79769e+307 -1.79769e+307 -1.79769e+307) (-1.79769e+307 -1.79769e+307 -1.79769e+307)
0.15          (-1.79769e+307 -1.79769e+307 -1.79769e+307) (-1.79769e+307 -1.79769e+307 -1.79769e+307) (-1.79769e+307 -1.79769e+307 -1.79769e+307) (-1.79769e+307 -1.79769e+307 -1.79769e+307) (-1.79769e+307 -1.79769e+307 -1.79769e+307) (-1.79769e+307 -1.79769e+307 -1.79769e+307) (-1.79769e+307 -1.79769e+307 -1.79769e+307) (-1.79769e+307 -1.79769e+307 -1.79769e+307) (-1.79769e+307 -1.79769e+307 -1.79769e+307) (-1.79769e+307 -1.79769e+307 -1.79769e+307) (-1.79769e+307 -1.79769e+307 -1.79769e+307)
0.16          (-1.79769e+307 -1.79769e+307 -1.79769e+307) (-1.79769e+307 -1.79769e+307 -1.79769e+307) (-1.79769e+307 -1.79769e+307 -1.79769e+307) (-1.79769e+307 -1.79769e+307 -1.79769e+307) (-1.79769e+307 -1.79769e+307 -1.79769e+307) (-1.79769e+307 -1.79769e+307 -1.79769e+307) (-1.79769e+307 -1.79769e+307 -1.79769e+307) (-1.79769e+307 -1.79769e+307 -1.79769e+307) (-1.79769e+307 -1.79769e+307 -1.79769e+307) (-1.79769e+307 -1.79769e+307 -1.79769e+307) (-1.79769e+307 -1.79769e+307 -1.79769e+307)
0.17          (-1.79769e+307 -1.79769e+307 -1.79769e+307) (-1.79769e+307 -1.79769e+307 -1.79769e+307) (-1.79769e+307 -1.79769e+307 -1.79769e+307) (-1.79769e+307 -1.79769e+307 -1.79769e+307) (-1.79769e+307 -1.79769e+307 -1.79769e+307) (-1.79769e+307 -1.79769e+307 -1.79769e+307) (-1.79769e+307 -1.79769e+307 -1.79769e+307) (-1.79769e+307 -1.79769e+307 -1.79769e+307) (-1.79769e+307 -1.79769e+307 -1.79769e+307) (-1.79769e+307 -1.79769e+307 -1.79769e+307) (-1.79769e+307 -1.79769e+307 -1.79769e+307)
0.18          (-1.79769e+307 -1.79769e+307 -1.79769e+307) (-1.79769e+307 -1.79769e+307 -1.79769e+307) (-1.79769e+307 -1.79769e+307 -1.79769e+307) (-1.79769e+307 -1.79769e+307 -1.79769e+307) (-1.79769e+307 -1.79769e+307 -1.79769e+307) (-1.79769e+307 -1.79769e+307 -1.79769e+307) (-1.79769e+307 -1.79769e+307 -1.79769e+307) (-1.79769e+307 -1.79769e+307 -1.79769e+307) (-1.79769e+307 -1.79769e+307 -1.79769e+307) (-1.79769e+307 -1.79769e+307 -1.79769e+307) (-1.79769e+307 -1.79769e+307 -1.79769e+307)
0.19          (-1.79769e+307 -1.79769e+307 -1.79769e+307) (-1.79769e+307 -1.79769e+307 -1.79769e+307) (-1.79769e+307 -1.79769e+307 -1.79769e+307) (-1.79769e+307 -1.79769e+307 -1.79769e+307) (-1.79769e+307 -1.79769e+307 -1.79769e+307) (-1.79769e+307 -1.79769e+307 -1.79769e+307) (-1.79769e+307 -1.79769e+307 -1.79769e+307) (-1.79769e+307 -1.79769e+307 -1.79769e+307) (-1.79769e+307 -1.79769e+307 -1.79769e+307) (-1.79769e+307 -1.79769e+307 -1.79769e+307) (-1.79769e+307 -1.79769e+307 -1.79769e+307)
0.2           (-1.79769e+307 -1.79769e+307 -1.79769e+307) (-1.79769e+307 -1.79769e+307 -1.79769e+307) (-1.79769e+307 -1.79769e+307 -1.79769e+307) (-1.79769e+307 -1.79769e+307 -1.79769e+307) (-1.79769e+307 -1.79769e+307 -1.79769e+307) (-1.79769e+307 -1.79769e+307 -1.79769e+307) (-1.79769e+307 -1.79769e+307 -1.79769e+307) (-1.79769e+307 -1.79769e+307 -1.79769e+307) (-1.79769e+307 -1.79769e+307 -1.79769e+307) (-1.79769e+307 -1.79769e+307 -1.79769e+307) (-1.79769e+307 -1.79769e+307 -1.79769e+307)
0.21          (-1.79769e+307 -1.79769e+307 -1.79769e+307) (-1.79769e+307 -1.79769e+307 -1.79769e+307) (-1.79769e+307 -1.79769e+307 -1.79769e+307) (-1.79769e+307 -1.79769e+307 -1.79769e+307) (-1.79769e+307 -1.79769e+307 -1.79769e+307) (-1.79769e+307 -1.79769e+307 -1.79769e+307) (-1.79769e+307 -1.79769e+307 -1.79769e+307) (-1.79769e+307 -1.79769e+307 -1.79769e+307) (-1.79769e+307 -1.79769e+307 -1.79769e+307) (-1.79769e+307 -1.79769e+307 -1.79769e+307) (-1.79769e+307 -1.79769e+307 -1.79769e+307)
0.22          (-1.79769e+307 -1.79769e+307 -1.79769e+307) (-1.79769e+307 -1.79769e+307 -1.79769e+307) (-1.79769e+307 -1.79769e+307 -1.79769e+307) (-1.79769e+307 -1.79769e+307 -1.79769e+307) (-1.79769e+307 -1.79769e+307 -1.79769e+307) (-1.79769e+307 -1.79769e+307 -1.79769e+307) (-1.79769e+307 -1.79769e+307 -1.79769e+307) (-1.79769e+307 -1.79769e+307 -1.79769e+307) (-1.79769e+307 -1.79769e+307 -1.79769e+307) (-1.79769e+307 -1.79769e+307 -1.79769e+307) (-1.79769e+307 -1.79769e+307 -1.79769e+307)
0.23          (-1.79769e+307 -1.79769e+307 -1.79769e+307) (-1.79769e+307 -1.79769e+307 -1.79769e+307) (-1.79769e+307 -1.79769e+307 -1.79769e+307) (-1.79769e+307 -1.79769e+307 -1.79769e+307) (-1.79769e+307 -1.79769e+307 -1.79769e+307) (-1.79769e+307 -1.79769e+307 -1.79769e+307) (-1.79769e+307 -1.79769e+307 -1.79769e+307) (-1.79769e+307 -1.79769e+307 -1.79769e+307) (-1.79769e+307 -1.79769e+307 -1.79769e+307) (-1.79769e+307 -1.79769e+307 -1.79769e+307) (-1.79769e+307 -1.79769e+307 -1.79769e+307)
0.24          (-1.79769e+307 -1.79769e+307 -1.79769e+307) (-1.79769e+307 -1.79769e+307 -1.79769e+307) (-1.79769e+307 -1.79769e+307 -1.79769e+307) (-1.79769e+307 -1.79769e+307 -1.79769e+307) (-1.79769e+307 -1.79769e+307 -1.79769e+307) (-1.79769e+307 -1.79769e+307 -1.79769e+307) (-1.79769e+307 -1.79769e+307 -1.79769e+307) (-1.79769e+307 -1.79769e+307 -1.79769e+307) (-1.79769e+307 -1.79769e+307 -1.79769e+307) (-1.79769e+307 -1.79769e+307 -1.79769e+307) (-1.79769e+307 -1.79769e+307 -1.79769e+307)
0.25          (-1.79769e+307 -1.79769e+307 -1.79769e+307) (-1.79769e+307 -1.79769e+307 -1.79769e+307) (-1.79769e+307 -1.79769e+307 -1.79769e+307) (-1.79769e+307 -1.79769e+307 -1.79769e+307) (-1.79769e+307 -1.79769e+307 -1.79769e+307) (-1.79769e+307 -1.79769e+307 -1.79769e+307) (-1.79769e+307 -1.79769e+307 -1.79769e+307) (-1.79769e+307 -1.79769e+307 -1.79769e+307) (-1.79769e+307 -1.79769e+307 -1.79769e+307) (-1.79769e+307 -1.79769e+307 -1.79769e+307) (-1.79769e+307 -1.79769e+307 -1.79769e+307)
0.26          (-1.79769e+307 -1.79769e+307 -1.79769e+307) (-1.79769e+307 -1.79769e+307 -1.79769e+307) (-1.79769e+307 -1.79769e+307 -1.79769e+307) (-1.79769e+307 -1.79769e+307 -1.79769e+307) (-1.79769e+307 -1.79769e+307 -1.79769e+307) (-1.79769e+307 -1.79769e+307 -1.79769e+307) (-1.79769e+307 -1.79769e+307 -1.79769e+307) (-1.79769e+307 -1.79769e+307 -1.79769e+307) (-1.79769e+307 -1.79769e+307 -1.79769e+307) (-1.79769e+307 -1.79769e+307 -1.79769e+307) (-1.79769e+307 -1.79769e+307 -1.79769e+307)
0.27          (-1.79769e+307 -1.79769e+307 -1.79769e+307) (-1.79769e+307 -1.79769e+307 -1.79769e+307) (-1.79769e+307 -1.79769e+307 -1.79769e+307) (-1.79769e+307 -1.79769e+307 -1.79769e+307) (-1.79769e+307 -1.79769e+307 -1.79769e+307) (-1.79769e+307 -1.79769e+307 -1.79769e+307) (-1.79769e+307 -1.79769e+307 -1.79769e+307) (-1.79769e+307 -1.79769e+307 -1.79769e+307) (-1.79769e+307 -1.79769e+307 -1.79769e+307) (-1.79769e+307 -1.79769e+307 -1.79769e+307) (-1.79769e+307 -1.79769e+307 -1.79769e+307)
0.28          (-1.79769e+307 -1.79769e+307 -1.79769e+307) (-1.79769e+307 -1.79769e+307 -1.79769e+307) (-1.79769e+307 -1.79769e+307 -1.79769e+307) (-1.79769e+307 -1.79769e+307 -1.79769e+307) (-1.79769e+307 -1.79769e+307 -1.79769e+307) (-1.79769e+307 -1.79769e+307 -1.79769e+307) (-1.79769e+307 -1.79769e+307 -1.79769e+307) (-1.79769e+307 -1.79769e+307 -1.79769e+307) (-1.79769e+307 -1.79769e+307 -1.79769e+307) (-1.79769e+307 -1.79769e+307 -1.79769e+307) (-1.79769e+307 -1.79769e+307 -1.79769e+307)
0.29          (-1.79769e+307 -1.79769e+307 -1.79769e+307) (-1.79769e+307 -1.79769e+307 -1.79769e+307) (-1.79769e+307 -1.79769e+307 -1.79769e+307) (-1.79769e+307 -1.79769e+307 -1.79769e+307) (-1.79769e+307 -1.79769e+307 -1.79769e+307) (-1.79769e+307 -1.79769e+307 -1.79769e+307) (-1.79769e+307 -1.79769e+307 -1.79769e+307) (-1.79769e+307 -1.79769e+307 -1.79769e+307) (-1.79769e+307 -1.79769e+307 -1.79769e+307) (-1.79769e+307 -1.79769e+307 -1.79769e+307) (-1.79769e+307 -1.79769e+307 -1.79769e+307)
0.3           (-1.79769e+307 -1.79769e+307 -1.79769e+307) (-1.79769e+307 -1.79769e+307 -1.79769e+307) (-1.79769e+307 -1.79769e+307 -1.79769e+307) (-1.79769e+307 -1.79769e+307 -1.79769e+307) (-1.79769e+307 -1.79769e+307 -1.79769e+307) (-1.79769e+307 -1.79769e+307 -1.79769e+307) (-1.79769e+307 -1.79769e+307 -1.79769e+307) (-1.79769e+307 -1.79769e+307 -1.79769e+307) (-1.79769e+307 -1.79769e+307 -1.79769e+307) (-1.79769e+307 -1.79769e+307 -1.79769e+307) (-1.79769e+307 -1.79769e+307 -1.79769e+307)
0.31          (-1.79769e+307 -1.79769e+307 -1.79769e+307) (-1.79769e+307 -1.79769e+307 -1.79769e+307) (-1.79769e+307 -1.79769e+307 -1.79769e+307) (-1.79769e+307 -1.79769e+307 -1.79769e+307) (-1.79769e+307 -1.79769e+307 -1.79769e+307) (-1.79769e+307 -1.79769e+307 -1.79769e+307) (-1.79769e+307 -1.79769e+307 -1.79769e+307) (-1.79769e+307 -1.79769e+307 -1.79769e+307) (-1.79769e+307 -1.79769e+307 -1.79769e+307) (-1.79769e+307 -1.79769e+307 -1.79769e+307) (-1.79769e+307 -1.79769e+307 -1.79769e+307)
0.32          (-1.79769e+307 -1.79769e+307 -1.79769e+307) (-1.79769e+307 -1.79769e+307 -1.79769e+307) (-1.79769e+307 -1.79769e+307 -1.79769e+307) (-1.79769e+307 -1.79769e+307 -1.79769e+307) (-1.79769e+307 -1.79769e+307 -1.79769e+307) (-1.79769e+307 -1.79769e+307 -1.79769e+307) (-1.79769e+307 -1.79769e+307 -1.79769e+307) (-1.79769e+307 -1.79769e+307 -1.79769e+307) (-1.79769e+307 -1.79769e+307 -1.79769e+307) (-1.79769e+307 -1.79769e+307 -1.79769e+307) (-1.79769e+307 -1.79769e+307 -1.79769e+307)
0.33          (-1.79769e+307 -1.79769e+307 -1.79769e+307) (-1.79769e+307 -1.79769e+307 -1.79769e+307) (-1.79769e+307 -1.79769e+307 -1.79769e+307) (-1.79769e+307 -1.79769e+307 -1.79769e+307) (-1.79769e+307 -1.79769e+307 -1.79769e+307) (-1.79769e+307 -1.79769e+307 -1.79769e+307) (-1.79769e+307 -1.79769e+307 -1.79769e+307) (-1.79769e+307 -1.79769e+307 -1.79769e+307) (-1.79769e+307 -1.79769e+307 -1.79769e+307) (-1.79769e+307 -1.79769e+307 -1.79769e+307) (-1.79769e+307 -1.79769e+307 -1.79769e+307)
0.34          (-1.79769e+307 -1.79769e+307 -1.79769e+307) (-1.79769e+307 -1.79769e+307 -1.79769e+307) (-1.79769e+307 -1.79769e+307 -1.79769e+307) (-1.79769e+307 -1.79769e+307 -1.79769e+307) (-1.79769e+307 -1.79769e+307 -1.79769e+307) (-1.79769e+307 -1.79769e+307 -1.79769e+307) (-1.79769e+307 -1.79769e+307 -1.79769e+307) (-1.79769e+307 -1.79769e+307 -1.79769e+307) (-1.79769e+307 -1.79769e+307 -1.79769e+307) (-1.79769e+307 -1.79769e+307 -1.79769e+307) (-1.79769e+307 -1.79769e+307 -1.79769e+307)
0.35          (-1.79769e+307 -1.79769e+307 -1.79769e+307) (-1.79769e+307 -1.79769e+307 -1.79769e+307) (-1.79769e+307 -1.79769e+307 -1.79769e+307) (-1.79769e+307 -1.79769e+307 -1.79769e+307) (-1.79769e+307 -1.79769e+307 -1.79769e+307) (-1.79769e+307 -1.79769e+307 -1.79769e+307) (-1.79769e+307 -1.79769e+307 -1.79769e+307) (-1.79769e+307 -1.79769e+307 -1.79769e+307) (-1.79769e+307 -1.79769e+307 -1.79769e+307) (-1.79769e+307 -1.79769e+307 -1.79769e+307) (-1.79769e+307 -1.79769e+307 -1.79769e+307)
0.36          (-1.79769e+307 -1.79769e+307 -1.79769e+307) (-1.79769e+307 -1.79769e+307 -1.79769e+307) (-1.79769e+307 -1.79769e+307 -1.79769e+307) (-1.79769e+307 -1.79769e+307 -1.79769e+307) (-1.79769e+307 -1.79769e+307 -1.79769e+307) (-1.79769e+307 -1.79769e+307 -1.79769e+307) (-1.79769e+307 -1.79769e+307 -1.79769e+307) (-1.79769e+307 -1.79769e+307 -1.79769e+307) (-1.79769e+307 -1.79769e+307 -1.79769e+307) (-1.79769e+307 -1.79769e+307 -1.79769e+307) (-1.79769e+307 -1.79769e+307 -1.79769e+307)
0.37          (-1.79769e+307 -1.79769e+307 -1.79769e+307) (-1.79769e+307 -1.79769e+307 -1.79769e+307) (-1.79769e+307 -1.79769e+307 -1.79769e+307) (-1.79769e+307 -1.79769e+307 -1.79769e+307) (-1.79769e+307 -1.79769e+307 -1.79769e+307) (-1.79769e+307 -1.79769e+307 -1.79769e+307) (-1.79769e+307 -1.79769e+307 -1.79769e+307) (-1.79769e+307 -1.79769e+307 -1.79769e+307) (-1.79769e+307 -1.79769e+307 -1.79769e+307) (-1.79769e+307 -1.79769e+307 -1.79769e+307) (-1.79769e+307 -1.79769e+307 -1.79769e+307)
0.38          (-1.79769e+307 -1.79769e+307 -1.79769e+307) (-1.79769e+307 -1.79769e+307 -1.79769e+307) (-1.79769e+307 -1.79769e+307 -1.79769e+307) (-1.79769e+307 -1.79769e+307 -1.79769e+307) (-1.79769e+307 -1.79769e+307 -1.79769e+307) (-1.79769e+307 -1.79769e+307 -1.79769e+307) (-1.79769e+307 -1.79769e+307 -1.79769e+307) (-1.79769e+307 -1.79769e+307 -1.79769e+307) (-1.79769e+307 -1.79769e+307 -1.79769e+307) (-1.79769e+307 -1.79769e+307 -1.79769e+307) (-1.79769e+307 -1.79769e+307 -1.79769e+307)
0.39          (-1.79769e+307 -1.79769e+307 -1.79769e+307) (-1.79769e+307 -1.79769e+307 -1.79769e+307) (-1.79769e+307 -1.79769e+307 -1.79769e+307) (-1.79769e+307 -1.79769e+307 -1.79769e+307) (-1.79769e+307 -1.79769e+307 -1.79769e+307) (-1.79769e+307 -1.79769e+307 -1.79769e+307) (-1.79769e+307 -1.79769e+307 -1.79769e+307) (-1.79769e+307 -1.79769e+307 -1.79769e+307) (-1.79769e+307 -1.79769e+307 -1.79769e+307) (-1.79769e+307 -1.79769e+307 -1.79769e+307) (-1.79769e+307 -1.79769e+307 -1.79769e+307)
0.4           (-1.79769e+307 -1.79769e+307 -1.79769e+307) (-1.79769e+307 -1.79769e+307 -1.79769e+307) (-1.79769e+307 -1.79769e+307 -1.79769e+307) (-1.79769e+307 -1.79769e+307 -1.79769e+307) (-1.79769e+307 -1.79769e+307 -1.79769e+307) (-1.79769e+307 -1.79769e+307 -1.79769e+307) (-1.79769e+307 -1.79769e+307 -1.79769e+307) (-1.79769e+307 -1.79769e+307 -1.79769e+307) (-1.79769e+307 -1.79769e+307 -1.79769e+307) (-1.79769e+307 -1.79769e+307 -1.79769e+307) (-1.79769e+307 -1.79769e+307 -1.79769e+307)
0.41          (-1.79769e+307 -1.79769e+307 -1.79769e+307) (-1.79769e+307 -1.79769e+307 -1.79769e+307) (-1.79769e+307 -1.79769e+307 -1.79769e+307) (-1.79769e+307 -1.79769e+307 -1.79769e+307) (-1.79769e+307 -1.79769e+307 -1.79769e+307) (-1.79769e+307 -1.79769e+307 -1.79769e+307) (-1.79769e+307 -1.79769e+307 -1.79769e+307) (-1.79769e+307 -1.79769e+307 -1.79769e+307) (-1.79769e+307 -1.79769e+307 -1.79769e+307) (-1.79769e+307 -1.79769e+307 -1.79769e+307) (-1.79769e+307 -1.79769e+307 -1.79769e+307)
0.42          (-1.79769e+307 -1.79769e+307 -1.79769e+307) (-1.79769e+307 -1.79769e+307 -1.79769e+307) (-1.79769e+307 -1.79769e+307 -1.79769e+307) (-1.79769e+307 -1.79769e+307 -1.79769e+307) (-1.79769e+307 -1.79769e+307 -1.79769e+307) (-1.79769e+307 -1.79769e+307 -1.79769e+307) (-1.79769e+307 -1.79769e+307 -1.79769e+307) (-1.79769e+307 -1.79769e+307 -1.79769e+307) (-1.79769e+307 -1.79769e+307 -1.79769e+307) (-1.79769e+307 -1.79769e+307 -1.79769e+307) (-1.79769e+307 -1.79769e+307 -1.79769e+307)
0.43          (-1.79769e+307 -1.79769e+307 -1.79769e+307) (-1.79769e+307 -1.79769e+307 -1.79769e+307) (-1.79769e+307 -1.79769e+307 -1.79769e+307) (-1.79769e+307 -1.79769e+307 -1.79769e+307) (-1.79769e+307 -1.79769e+307 -1.79769e+307) (-1.79769e+307 -1.79769e+307 -1.79769e+307) (-1.79769e+307 -1.79769e+307 -1.79769e+307) (-1.79769e+307 -1.79769e+307 -1.79769e+307) (-1.79769e+307 -1.79769e+307 -1.79769e+307) (-1.79769e+307 -1.79769e+307 -1.79769e+307) (-1.79769e+307 -1.79769e+307 -1.79769e+307)
0.44          (-1.79769e+307 -1.79769e+307 -1.79769e+307) (-1.79769e+307 -1.79769e+307 -1.79769e+307) (-1.79769e+307 -1.79769e+307 -1.79769e+307) (-1.79769e+307 -1.79769e+307 -1.79769e+307) (-1.79769e+307 -1.79769e+307 -1.79769e+307) (-1.79769e+307 -1.79769e+307 -1.79769e+307) (-1.79769e+307 -1.79769e+307 -1.79769e+307) (-1.79769e+307 -1.79769e+307 -1.79769e+307) (-1.79769e+307 -1.79769e+307 -1.79769e+307) (-1.79769e+307 -1.79769e+307 -1.79769e+307) (-1.79769e+307 -1.79769e+307 -1.79769e+307)
0.45          (-1.79769e+307 -1.79769e+307 -1.79769e+307) (-1.79769e+307 -1.79769e+307 -1.79769e+307) (-1.79769e+307 -1.79769e+307 -1.79769e+307) (-1.79769e+307 -1.79769e+307 -1.79769e+307) (-1.79769e+307 -1.79769e+307 -1.79769e+307) (-1.79769e+307 -1.79769e+307 -1.79769e+307) (-1.79769e+307 -1.79769e+307 -1.79769e+307) (-1.79769e+307 -1.79769e+307 -1.79769e+307) (-1.79769e+307 -1.79769e+307 -1.79769e+307) (-1.79769e+307 -1.79769e+307 -1.79769e+307) (-1.79769e+307 -1.79769e+307 -1.79769e+307)
0.46          (-1.79769e+307 -1.79769e+307 -1.79769e+307) (-1.79769e+307 -1.79769e+307 -1.79769e+307) (-1.79769e+307 -1.79769e+307 -1.79769e+307) (-1.79769e+307 -1.79769e+307 -1.79769e+307) (-1.79769e+307 -1.79769e+307 -1.79769e+307) (-1.79769e+307 -1.79769e+307 -1.79769e+307) (-1.79769e+307 -1.79769e+307 -1.79769e+307) (-1.79769e+307 -1.79769e+307 -1.79769e+307) (-1.79769e+307 -1.79769e+307 -1.79769e+307) (-1.79769e+307 -1.79769e+307 -1.79769e+307) (-1.79769e+307 -1.79769e+307 -1.79769e+307)
0.47          (-1.79769e+307 -1.79769e+307 -1.79769e+307) (-1.79769e+307 -1.79769e+307 -1.79769e+307) (-1.79769e+307 -1.79769e+307 -1.79769e+307) (-1.79769e+307 -1.79769e+307 -1.79769e+307) (-1.79769e+307 -1.79769e+307 -1.79769e+307) (-1.79769e+307 -1.79769e+307 -1.79769e+307) (-1.79769e+307 -1.79769e+307 -1.79769e+307) (-1.79769e+307 -1.79769e+307 -1.79769e+307) (-1.79769e+307 -1.79769e+307 -1.79769e+307) (-1.79769e+307 -1.79769e+307 -1.79769e+307) (-1.79769e+307 -1.79769e+307 -1.79769e+307)
0.48          (-1.79769e+307 -1.79769e+307 -1.79769e+307) (-1.79769e+307 -1.79769e+307 -1.79769e+307) (-1.79769e+307 -1.79769e+307 -1.79769e+307) (-1.79769e+307 -1.79769e+307 -1.79769e+307) (-1.79769e+307 -1.79769e+307 -1.79769e+307) (-1.79769e+307 -1.79769e+307 -1.79769e+307) (-1.79769e+307 -1.79769e+307 -1.79769e+307) (-1.79769e+307 -1.79769e+307 -1.79769e+307) (-1.79769e+307 -1.79769e+307 -1.79769e+307) (-1.79769e+307 -1.79769e+307 -1.79769e+307) (-1.79769e+307 -1.79769e+307 -1.79769e+307)
0.49          (-1.79769e+307 -1.79769e+307 -1.79769e+307) (-1.79769e+307 -1.79769e+307 -1.79769e+307) (-1.79769e+307 -1.79769e+307 -1.79769e+307) (-1.79769e+307 -1.79769e+307 -1.79769e+307) (-1.79769e+307 -1.79769e+307 -1.79769e+307) (-1.79769e+307 -1.79769e+307 -1.79769e+307) (-1.79769e+307 -1.79769e+307 -1.79769e+307) (-1.79769e+307 -1.79769e+307 -1.79769e+307) (-1.79769e+307 -1.79769e+307 -1.79769e+307) (-1.79769e+307 -1.79769e+307 -1.79769e+307) (-1.79769e+307 -1.79769e+307 -1.79769e+307)
0.5           (-1.79769e+307 -1.79769e+307 -1.79769e+307) (-1.79769e+307 -1.79769e+307 -1.79769e+307) (-1.79769e+307 -1.79769e+307 -1.79769e+307) (-1.79769e+307 -1.79769e+307 -1.79769e+307) (-1.79769e+307 -1.79769e+307 -1.79769e+307) (-1.79769e+307 -1.79769e+307 -1.79769e+307) (-1.79769e+307 -1.79769e+307 -1.79769e+307) (-1.79769e+307 -1.79769e+307 -1.79769e+307) (-1.79769e+307 -1.79769e+307 -1.79769e+307) (-1.79769e+307 -1.79769e+307 -1.79769e+307) (-1.79769e+307 -1.79769e+307 -1.79769e+307)
0.51          (-1.79769e+307 -1.79769e+307 -1.79769e+307) (-1.79769e+307 -1.79769e+307 -1.79769e+307) (-1.79769e+307 -1.79769e+307 -1.79769e+307) (-1.79769e+307 -1.79769e+307 -1.79769e+307) (-1.79769e+307 -1.79769e+307 -1.79769e+307) (-1.79769e+307 -1.79769e+307 -1.79769e+307) (-1.79769e+307 -1.79769e+307 -1.79769e+307) (-1.79769e+307 -1.79769e+307 -1.79769e+307) (-1.79769e+307 -1.79769e+307 -1.79769e+307) (-1.79769e+307 -1.79769e+307 -1.79769e+307) (-1.79769e+307 -1.79769e+307 -1.79769e+307)
0.52          (-1.79769e+307 -1.79769e+307 -1.79769e+307) (-1.79769e+307 -1.79769e+307 -1.79769e+307) (-1.79769e+307 -1.79769e+307 -1.79769e+307) (-1.79769e+307 -1.79769e+307 -1.79769e+307) (-1.79769e+307 -1.79769e+307 -1.79769e+307) (-1.79769e+307 -1.79769e+307 -1.79769e+307) (-1.79769e+307 -1.79769e+307 -1.79769e+307) (-1.79769e+307 -1.79769e+307 -1.79769e+307) (-1.79769e+307 -1.79769e+307 -1.79769e+307) (-1.79769e+307 -1.79769e+307 -1.79769e+307) (-1.79769e+307 -1.79769e+307 -1.79769e+307)
0.53          (-1.79769e+307 -1.79769e+307 -1.79769e+307) (-1.79769e+307 -1.79769e+307 -1.79769e+307) (-1.79769e+307 -1.79769e+307 -1.79769e+307) (-1.79769e+307 -1.79769e+307 -1.79769e+307) (-1.79769e+307 -1.79769e+307 -1.79769e+307) (-1.79769e+307 -1.79769e+307 -1.79769e+307) (-1.79769e+307 -1.79769e+307 -1.79769e+307) (-1.79769e+307 -1.79769e+307 -1.79769e+307) (-1.79769e+307 -1.79769e+307 -1.79769e+307) (-1.79769e+307 -1.79769e+307 -1.79769e+307) (-1.79769e+307 -1.79769e+307 -1.79769e+307)
0.54          (-1.79769e+307 -1.79769e+307 -1.79769e+307) (-1.79769e+307 -1.79769e+307 -1.79769e+307) (-1.79769e+307 -1.79769e+307 -1.79769e+307) (-1.79769e+307 -1.79769e+307 -1.79769e+307) (-1.79769e+307 -1.79769e+307 -1.79769e+307) (-1.79769e+307 -1.79769e+307 -1.79769e+307) (-1.79769e+307 -1.79769e+307 -1.79769e+307) (-1.79769e+307 -1.79769e+307 -1.79769e+307) (-1.79769e+307 -1.79769e+307 -1.79769e+307) (-1.79769e+307 -1.79769e+307 -1.79769e+307) (-1.79769e+307 -1.79769e+307 -1.79769e+307)
0.55          (-1.79769e+307 -1.79769e+307 -1.79769e+307) (-1.79769e+307 -1.79769e+307 -1.79769e+307) (-1.79769e+307 -1.79769e+307 -1.79769e+307) (-1.79769e+307 -1.79769e+307 -1.79769e+307) (-1.79769e+307 -1.79769e+307 -1.79769e+307) (-1.79769e+307 -1.79769e+307 -1.79769e+307) (-1.79769e+307 -1.79769e+307 -1.79769e+307) (-1.79769e+307 -1.79769e+307 -1.79769e+307) (-1.79769e+307 -1.79769e+307 -1.79769e+307) (-1.79769e+307 -1.79769e+307 -1.79769e+307) (-1.79769e+307 -1.79769e+307 -1.79769e+307)
0.56          (-1.79769e+307 -1.79769e+307 -1.79769e+307) (-1.79769e+307 -1.79769e+307 -1.79769e+307) (-1.79769e+307 -1.79769e+307 -1.79769e+307) (-1.79769e+307 -1.79769e+307 -1.79769e+307) (-1.79769e+307 -1.79769e+307 -1.79769e+307) (-1.79769e+307 -1.79769e+307 -1.79769e+307) (-1.79769e+307 -1.79769e+307 -1.79769e+307) (-1.79769e+307 -1.79769e+307 -1.79769e+307) (-1.79769e+307 -1.79769e+307 -1.79769e+307) (-1.79769e+307 -1.79769e+307 -1.79769e+307) (-1.79769e+307 -1.79769e+307 -1.79769e+307)
0.57          (-1.79769e+307 -1.79769e+307 -1.79769e+307) (-1.79769e+307 -1.79769e+307 -1.79769e+307) (-1.79769e+307 -1.79769e+307 -1.79769e+307) (-1.79769e+307 -1.79769e+307 -1.79769e+307) (-1.79769e+307 -1.79769e+307 -1.79769e+307) (-1.79769e+307 -1.79769e+307 -1.79769e+307) (-1.79769e+307 -1.79769e+307 -1.79769e+307) (-1.79769e+307 -1.79769e+307 -1.79769e+307) (-1.79769e+307 -1.79769e+307 -1.79769e+307) (-1.79769e+307 -1.79769e+307 -1.79769e+307) (-1.79769e+307 -1.79769e+307 -1.79769e+307)
0.58          (-1.79769e+307 -1.79769e+307 -1.79769e+307) (-1.79769e+307 -1.79769e+307 -1.79769e+307) (-1.79769e+307 -1.79769e+307 -1.79769e+307) (-1.79769e+307 -1.79769e+307 -1.79769e+307) (-1.79769e+307 -1.79769e+307 -1.79769e+307) (-1.79769e+307 -1.79769e+307 -1.79769e+307) (-1.79769e+307 -1.79769e+307 -1.79769e+307) (-1.79769e+307 -1.79769e+307 -1.79769e+307) (-1.79769e+307 -1.79769e+307 -1.79769e+307) (-1.79769e+307 -1.79769e+307 -1.79769e+307) (-1.79769e+307 -1.79769e+307 -1.79769e+307)