/*--------------------------------*- C++ -*----------------------------------*\
  =========                 |
  \\      /  F ield         | OpenFOAM: The Open Source CFD Toolbox
   \\    /   O peration     | Website:  https://openfoam.org
    \\  /    A nd           | Version:  8
     \\/     M anipulation  |
\*---------------------------------------------------------------------------*/
FoamFile
{
    version     2.0;
    format      ascii;
    class       surfaceScalarField;
    location    "27.5";
    object      phi;
}
// * * * * * * * * * * * * * * * * * * * * * * * * * * * * * * * * * * * * * //

dimensions      [0 3 -1 0 0 0 0];

internalField   nonuniform List<scalar> 
880
(
-1.25955e-05
1.25955e-05
-2.56198e-05
1.30242e-05
-3.80548e-05
1.24351e-05
-4.96089e-05
1.15541e-05
-6.00266e-05
1.04177e-05
-6.90821e-05
9.05548e-06
-7.6609e-05
7.52696e-06
-8.24336e-05
5.82453e-06
-8.66675e-05
4.23396e-06
-8.87885e-05
2.121e-06
-9.01962e-05
1.40771e-06
-7.83569e-07
-8.94127e-05
-1.36046e-05
2.62001e-05
-2.76523e-05
2.7072e-05
-4.10602e-05
2.58429e-05
-5.3513e-05
2.4007e-05
-6.47407e-05
2.16453e-05
-7.45098e-05
1.88246e-05
-8.26555e-05
1.56727e-05
-8.90252e-05
1.21943e-05
-9.37591e-05
8.96783e-06
-9.64343e-05
4.79624e-06
-9.85143e-05
3.48771e-06
-2.03856e-06
-9.72593e-05
-1.4228e-05
4.04281e-05
-2.89129e-05
4.17569e-05
-4.29132e-05
3.98432e-05
-5.58872e-05
3.6981e-05
-6.75372e-05
3.32953e-05
-7.7597e-05
2.88844e-05
-8.58316e-05
2.39072e-05
-9.20509e-05
1.84136e-05
-9.59679e-05
1.28848e-05
-9.77247e-05
6.55303e-06
-9.63585e-05
2.12155e-06
-5.50961e-06
-9.28875e-05
-1.51751e-05
5.56031e-05
-3.08289e-05
5.74107e-05
-4.57403e-05
5.47547e-05
-5.95418e-05
5.07824e-05
-7.19293e-05
4.56829e-05
-8.26354e-05
3.95904e-05
-9.14516e-05
3.27235e-05
-9.81951e-05
2.51571e-05
-0.000102578
1.72679e-05
-0.000104688
8.66293e-06
-0.000103435
8.68374e-07
-8.87994e-06
-0.000100065
-1.64896e-05
7.20927e-05
-3.34834e-05
7.44045e-05
-4.96479e-05
7.09192e-05
-6.45659e-05
6.57004e-05
-7.79136e-05
5.90306e-05
-8.93893e-05
5.10661e-05
-9.87329e-05
4.2067e-05
-0.000105752
3.21765e-05
-0.00011021
2.17251e-05
-0.000112141
1.0594e-05
-0.000111065
-2.07279e-07
-1.25003e-05
-0.000107445
-1.82241e-05
9.03168e-05
-3.69766e-05
9.31571e-05
-5.4787e-05
8.87295e-05
-7.1167e-05
8.20805e-05
-8.57972e-05
7.36608e-05
-9.83588e-05
6.36277e-05
-0.000108634
5.23427e-05
-0.000116451
3.99933e-05
-0.000121622
2.6896e-05
-0.000124018
1.29901e-05
-0.000122978
-1.24785e-06
-1.60745e-05
-0.000119404
-2.04206e-05
0.000110737
-4.13951e-05
0.000114132
-6.12793e-05
0.000108614
-7.94717e-05
0.000100273
-9.56721e-05
8.98611e-05
-0.000109517
7.74731e-05
-0.000120814
6.36395e-05
-0.000129364
4.85432e-05
-0.000134996
3.25274e-05
-0.000137729
1.57231e-05
-0.000137541
-1.43521e-06
-1.95446e-05
-0.000134071
-2.32462e-05
0.000133984
-4.69981e-05
0.000137883
-6.946e-05
0.000131076
-8.98281e-05
0.000120641
-0.000107911
0.000107944
-0.00012328
9.28415e-05
-0.000135849
7.62085e-05
-0.000145489
5.81832e-05
-0.000152167
3.9206e-05
-0.000155634
1.91897e-05
-0.000155407
-1.66229e-06
-2.28501e-05
-0.000152101
-2.65129e-05
0.000160497
-5.35913e-05
0.000164962
-7.91534e-05
0.000156638
-0.000102184
0.000143671
-0.000122553
0.000128314
-0.000139706
0.000109994
-0.000153632
9.01343e-05
-0.000164176
6.87275e-05
-0.000171322
4.63516e-05
-0.000175278
2.31458e-05
-0.000176346
-5.94617e-07
-2.56919e-05
-0.000173504
-3.14011e-05
0.000191898
-6.27449e-05
0.000196306
-9.23725e-05
0.000186265
-0.000118096
0.000169395
-0.000140883
0.000151101
-0.000159678
0.00012879
-0.000175107
0.000105563
-0.000187131
8.07513e-05
-0.000195879
5.51004e-05
-0.000201039
2.83049e-05
-0.000201938
3.04395e-07
-2.7979e-05
-0.00019965
-3.57401e-05
0.000227638
-7.18689e-05
0.000232434
-0.000105805
0.000220202
-0.000135247
0.000198836
-0.000161136
0.000176989
-0.000182123
0.000149777
-0.000199071
0.000122511
-0.000211562
9.32423e-05
-0.000220255
6.37937e-05
-0.000225678
3.37279e-05
-0.000228553
3.17937e-06
-2.94304e-05
-0.000227102
-4.55498e-05
0.000273187
-8.8199e-05
0.000275084
-0.00012862
0.000260622
-0.000160795
0.000231012
-0.00018921
0.000205404
-0.000211082
0.000171649
-0.000229202
0.000140631
-0.000243421
0.000107461
-0.00025424
7.46133e-05
-0.000261499
4.0987e-05
-0.000264691
6.37144e-06
-2.94428e-05
-0.000264679
-4.9736e-05
0.000322923
-0.000100034
0.000325382
-0.000146273
0.000306861
-0.000183828
0.000268567
-0.000216119
0.000237696
-0.00024019
0.00019572
-0.000259324
0.000159764
-0.00027262
0.000120757
-0.000282203
8.41966e-05
-0.000288859
4.76433e-05
-0.000293976
1.14886e-05
-2.83225e-05
-0.000295097
-7.42862e-05
0.00039721
-0.000132918
0.000384013
-0.000188733
0.000362676
-0.000226839
0.000306673
-0.000259681
0.000270537
-0.000282488
0.000218527
-0.000301291
0.000178568
-0.000315389
0.000134855
-0.000327072
9.58793e-05
-0.000336262
5.68334e-05
-0.000343401
1.8628e-05
-2.34553e-05
-0.000348268
-6.97587e-05
0.000466968
-0.00014654
0.000460794
-0.000210728
0.000426865
-0.0002594
0.000355344
-0.000295925
0.000307062
-0.000319815
0.000242417
-0.000336933
0.000195686
-0.000347861
0.000145782
-0.000355865
0.000103883
-0.000361965
6.29339e-05
-0.000368834
2.54968e-05
-1.81675e-05
-0.000374122
-0.000154013
0.000620981
-0.0002211
0.000527882
-0.000295158
0.000500922
-0.000331241
0.000391428
-0.000361327
0.000337148
-0.000378621
0.000259712
-0.000390976
0.000208041
-0.000400275
0.000155082
-0.000409072
0.00011268
-0.000418522
7.23847e-05
-0.000430636
3.76102e-05
-4.63411e-06
-0.000444169
-8.72533e-05
0.000708235
-0.000232968
0.000673597
-0.000327445
0.000595399
-0.000389472
0.000453455
-0.000418598
0.000366273
-0.00043303
0.000274144
-0.000437123
0.000212133
-0.000437242
0.000155201
-0.000436904
0.000112342
-0.000437938
7.34188e-05
-0.000442479
4.21505e-05
4.81367e-06
-0.000451926
-0.000351317
0.00105955
-0.000395883
0.000718163
-0.000461995
0.000661511
-0.000495974
0.000487435
-0.000493961
0.00036426
-0.000498507
0.00027869
-0.000489568
0.000203193
-0.000486736
0.00015237
-0.000485016
0.000110622
-0.000489816
7.82185e-05
-0.000502795
5.51292e-05
2.8189e-05
-0.00052617
-0.000858198
0.00191775
-0.000841937
0.000701903
-0.000850356
0.000669929
-0.00074511
0.00038219
-0.000658378
0.000277528
-0.000574046
0.000194358
-0.000506149
0.000135296
-0.000454843
0.000101064
-0.000415826
7.16051e-05
-0.00038983
5.22223e-05
-0.000369348
3.46469e-05
2.3826e-05
-0.000364985
0.00191775
0.00261965
0.00328958
0.00367177
0.0039493
0.00414366
0.00427895
0.00438002
0.00445162
0.00450384
0.00453849
0.00456232
-6.99561e-05
2.65419e-05
-4.59985e-05
-5.40034e-05
1.07138e-05
-2.66665e-05
-4.40564e-05
-2.86691e-06
-7.08013e-06
-3.4772e-05
-1.32266e-05
3.9422e-06
-2.61399e-05
-2.12845e-05
1.26524e-05
-1.73474e-05
-2.71702e-05
1.83777e-05
-8.49637e-06
-3.09981e-05
2.2147e-05
-3.11221e-05
2.26258e-05
-7.64948e-05
5.77734e-06
-5.99641e-05
-5.81682e-06
-4.91878e-05
-1.36432e-05
-3.9036e-05
-2.33784e-05
-2.95194e-05
-3.08011e-05
-1.96998e-05
-3.69898e-05
-9.67338e-06
-4.10246e-05
-4.07955e-05
-8.21606e-05
-4.94947e-06
-7.16489e-05
-1.63286e-05
-6.04789e-05
-2.48132e-05
-4.90876e-05
-3.47697e-05
-3.71759e-05
-4.27128e-05
-2.48583e-05
-4.93074e-05
-1.21906e-05
-5.36922e-05
-5.29861e-05
-8.97733e-05
-1.52407e-05
-7.93374e-05
-2.67645e-05
-6.76871e-05
-3.64635e-05
-5.54727e-05
-4.6984e-05
-4.23712e-05
-5.58143e-05
-2.85103e-05
-6.31684e-05
-1.40399e-05
-6.81626e-05
-6.7026e-05
-9.97639e-05
-2.29214e-05
-9.03174e-05
-3.6211e-05
-7.85269e-05
-4.8254e-05
-6.5121e-05
-6.039e-05
-5.01349e-05
-7.08004e-05
-3.38491e-05
-7.94541e-05
-1.67157e-05
-8.5296e-05
-8.37417e-05
-0.000111811
-3.05138e-05
-0.000102047
-4.59749e-05
-8.95844e-05
-6.07167e-05
-7.49035e-05
-7.50709e-05
-5.81724e-05
-8.75316e-05
-3.95174e-05
-9.81091e-05
-1.96223e-05
-0.000105191
-0.000103364
-0.000127088
-3.74964e-05
-0.000116985
-5.60788e-05
-0.000103747
-7.39548e-05
-8.73812e-05
-9.14363e-05
-6.83823e-05
-0.00010653
-4.66202e-05
-0.000119871
-2.32737e-05
-0.000128538
-0.000126638
-0.00014519
-4.44074e-05
-0.00013472
-6.6549e-05
-0.000120636
-8.80385e-05
-0.000102466
-0.000109607
-8.10426e-05
-0.000127954
-5.55557e-05
-0.000145358
-2.80063e-05
-0.000156087
-0.000154644
-0.00016678
-5.11308e-05
-0.000155736
-7.75933e-05
-0.000140805
-0.000102969
-0.00012025
-0.000130162
-9.63651e-05
-0.000151839
-6.61657e-05
-0.000175557
-3.39265e-05
-0.000188326
-0.00018857
-0.00019358
-5.72015e-05
-0.000182621
-8.85524e-05
-0.000167489
-0.000118101
-0.000144849
-0.000152802
-0.000118051
-0.000178637
-8.1862e-05
-0.000211746
-4.27089e-05
-0.000227479
-0.000231279
-0.000221913
-6.23899e-05
-0.000210429
-0.000100037
-0.000195704
-0.000132825
-0.000170339
-0.000178167
-0.000142036
-0.00020694
-9.88787e-05
-0.000254903
-5.35833e-05
-0.000272775
-0.000284863
-0.000261916
-6.51528e-05
-0.000252629
-0.000109324
-0.000239827
-0.000145628
-0.000213699
-0.000204295
-0.000182731
-0.000237909
-0.000130203
-0.000307432
-7.27179e-05
-0.00033026
-0.000357581
-0.000294521
-6.57282e-05
-0.000285412
-0.000118433
-0.000276176
-0.000154863
-0.000248646
-0.000231825
-0.000221315
-0.000265239
-0.000159963
-0.000368784
-9.74333e-05
-0.000392789
-0.000455014
-0.000353789
-6.02072e-05
-0.000352747
-0.000119476
-0.000351557
-0.000156053
-0.000329938
-0.000253444
-0.000304439
-0.000290739
-0.000231181
-0.000442042
-0.000147986
-0.000475983
-0.000603
-0.000381754
-5.25754e-05
-0.000381459
-0.00011977
-0.00038883
-0.000148682
-0.000371575
-0.000270699
-0.000366331
-0.000295983
-0.000291826
-0.000516548
-0.000221751
-0.000546058
-0.000824751
-0.000465296
-3.14486e-05
-0.000486228
-9.88382e-05
-0.000517139
-0.000117771
-0.000528454
-0.000259384
-0.000546097
-0.000278339
-0.000475392
-0.000587252
-0.000385756
-0.000635694
-0.00121051
-0.00046758
-1.57946e-05
-0.000484632
-8.17863e-05
-0.000521447
-8.09567e-05
-0.000545827
-0.000235004
-0.00062061
-0.000203556
-0.000605331
-0.000602531
-0.000618674
-0.000622352
-0.00182918
-0.000566084
2.41199e-05
-0.000625355
-2.25158e-05
-0.000715456
9.14434e-06
-0.000826455
-0.000124005
-0.000963634
-6.63773e-05
-0.00101953
-0.000546637
-0.000895073
-0.000746807
-0.00272425
-0.000350893
1.00284e-05
-0.000364803
-8.60585e-06
-0.000339998
-1.56609e-05
-0.000361644
-0.000102359
-0.000291042
-0.000136979
-0.00028844
-0.000549239
-0.000108096
-0.000927151
-0.00283235
0.00457234
0.00456374
0.00454808
0.00444572
0.00430874
0.0037595
0.00283235
-1.19151e-06
1.19151e-06
-2.21643e-06
1.02493e-06
-2.83836e-06
6.21924e-07
-3.00386e-06
1.65499e-07
-2.70239e-06
-3.01467e-07
-2.01285e-06
-6.89539e-07
-1.04496e-06
-9.67889e-07
-1.04496e-06
-1.35671e-06
2.54822e-06
-2.50943e-06
2.17765e-06
-3.18843e-06
1.30092e-06
-3.32447e-06
3.01539e-07
-2.96735e-06
-6.58581e-07
-2.20297e-06
-1.45392e-06
-1.14198e-06
-2.02888e-06
-2.18694e-06
-2.0464e-06
4.59462e-06
-3.69921e-06
3.83046e-06
-4.61025e-06
2.21195e-06
-4.80077e-06
4.92064e-07
-4.24898e-06
-1.21037e-06
-3.12476e-06
-2.57815e-06
-1.61111e-06
-3.54253e-06
-3.79805e-06
-2.45006e-06
7.04468e-06
-4.38463e-06
5.76503e-06
-5.37495e-06
3.20226e-06
-5.42536e-06
5.42475e-07
-4.73013e-06
-1.9056e-06
-3.45865e-06
-3.84963e-06
-1.77626e-06
-5.22491e-06
-5.57431e-06
-4.68648e-06
1.17312e-05
-7.93447e-06
9.01302e-06
-9.2692e-06
4.53699e-06
-9.21581e-06
4.89081e-07
-7.8555e-06
-3.2659e-06
-5.63099e-06
-6.07414e-06
-2.86244e-06
-7.99346e-06
-8.43675e-06
-5.66064e-06
1.73918e-05
-9.51613e-06
1.28685e-05
-1.09402e-05
5.96105e-06
-1.05498e-05
9.87365e-08
-8.89634e-06
-4.9194e-06
-6.36205e-06
-8.60844e-06
-3.22514e-06
-1.11304e-05
-1.16619e-05
-1.2931e-05
3.03228e-05
-1.95272e-05
1.94648e-05
-2.01777e-05
6.61156e-06
-1.84815e-05
-1.59755e-06
-1.48823e-05
-8.51852e-06
-1.02978e-05
-1.31929e-05
-5.13662e-06
-1.62916e-05
-1.67985e-05
-1.56757e-05
-2.28775e-05
-2.3346e-05
-2.10014e-05
-1.68675e-05
-1.16827e-05
-5.82725e-06
)
;

boundaryField
{
    movingWall
    {
        type            calculated;
        value           uniform 0;
    }
    fixedWalls
    {
        type            calculated;
        value           uniform 0;
    }
    frontAndBack
    {
        type            empty;
        value           nonuniform List<scalar> 0();
    }
}


// ************************************************************************* //
