/*--------------------------------*- C++ -*----------------------------------*\
  =========                 |
  \\      /  F ield         | OpenFOAM: The Open Source CFD Toolbox
   \\    /   O peration     | Website:  https://openfoam.org
    \\  /    A nd           | Version:  8
     \\/     M anipulation  |
\*---------------------------------------------------------------------------*/
FoamFile
{
    version     2.0;
    format      ascii;
    class       volVectorField;
    location    "42.5";
    object      U;
}
// * * * * * * * * * * * * * * * * * * * * * * * * * * * * * * * * * * * * * //

dimensions      [0 1 -1 0 0 0 0];

internalField   nonuniform List<vector> 
11600
(
(-2.66245e-06 2.51465e-06 0)
(-4.33798e-05 1.56068e-05 0)
(-0.00011728 2.08885e-05 0)
(-0.000193799 2.25741e-05 0)
(-0.000275285 2.27455e-05 0)
(-0.000356874 2.25749e-05 0)
(-0.000438428 2.24544e-05 0)
(-0.000519988 2.24215e-05 0)
(-0.000601614 2.2448e-05 0)
(-0.000683365 2.2509e-05 0)
(-0.000765287 2.25905e-05 0)
(-0.00084741 2.26857e-05 0)
(-0.000929755 2.27914e-05 0)
(-0.00101234 2.29061e-05 0)
(-0.00109519 2.30286e-05 0)
(-0.0011783 2.31583e-05 0)
(-0.00126171 2.32946e-05 0)
(-0.0013454 2.34367e-05 0)
(-0.0014294 2.35841e-05 0)
(-0.00151371 2.37361e-05 0)
(-0.00159833 2.38919e-05 0)
(-0.00168327 2.40507e-05 0)
(-0.00176853 2.42118e-05 0)
(-0.0018541 2.43742e-05 0)
(-0.00193998 2.4537e-05 0)
(-0.00202616 2.46992e-05 0)
(-0.00211263 2.48597e-05 0)
(-0.00219937 2.50175e-05 0)
(-0.00228638 2.51714e-05 0)
(-0.00237363 2.53201e-05 0)
(-0.0024611 2.54625e-05 0)
(-0.00254877 2.55972e-05 0)
(-0.0026366 2.57229e-05 0)
(-0.00272457 2.58384e-05 0)
(-0.00281264 2.59422e-05 0)
(-0.00290078 2.60331e-05 0)
(-0.00298896 2.61098e-05 0)
(-0.00307712 2.6171e-05 0)
(-0.00316525 2.62155e-05 0)
(-0.0032533 2.62424e-05 0)
(-0.00334124 2.62504e-05 0)
(-0.00342905 2.62387e-05 0)
(-0.00351671 2.62062e-05 0)
(-0.00360421 2.61513e-05 0)
(-0.00369156 2.60718e-05 0)
(-0.00377878 2.59627e-05 0)
(-0.00386594 2.58144e-05 0)
(-0.00395312 2.56055e-05 0)
(-0.00404042 2.52906e-05 0)
(-0.00412796 2.47696e-05 0)
(-0.00421585 2.38255e-05 0)
(-0.00430403 2.2002e-05 0)
(-0.004392 1.83877e-05 0)
(-0.00447874 1.12168e-05 0)
(-0.00456559 -2.24043e-06 0)
(-0.00465601 -2.03482e-05 0)
(-0.00470049 -2.19481e-05 0)
(-0.00505495 1.91478e-05 0)
(-0.0050279 0.000642173 0)
(-0.00755658 0.00230336 0)
(-1.62884e-05 4.3581e-05 0)
(-0.000105108 0.000103556 0)
(-0.000248179 0.000129582 0)
(-0.000397345 0.000139635 0)
(-0.000555675 0.000142606 0)
(-0.000715398 0.000143243 0)
(-0.000875624 0.000143369 0)
(-0.00103612 0.000143478 0)
(-0.0011968 0.00014366 0)
(-0.00135766 0.000143907 0)
(-0.00151871 0.000144205 0)
(-0.00167998 0.000144542 0)
(-0.0018415 0.000144909 0)
(-0.00200327 0.000145303 0)
(-0.00216531 0.00014572 0)
(-0.00232763 0.000146156 0)
(-0.00249023 0.000146609 0)
(-0.00265312 0.000147075 0)
(-0.00281629 0.000147551 0)
(-0.00297976 0.000148033 0)
(-0.0031435 0.000148519 0)
(-0.00330751 0.000149004 0)
(-0.00347177 0.000149484 0)
(-0.00363628 0.000149955 0)
(-0.003801 0.000150413 0)
(-0.00396591 0.000150853 0)
(-0.00413099 0.000151271 0)
(-0.00429619 0.000151662 0)
(-0.00446149 0.00015202 0)
(-0.00462683 0.000152342 0)
(-0.00479218 0.000152622 0)
(-0.00495747 0.000152856 0)
(-0.00512267 0.000153039 0)
(-0.00528771 0.000153169 0)
(-0.00545253 0.000153241 0)
(-0.00561708 0.000153254 0)
(-0.00578131 0.000153207 0)
(-0.00594515 0.000153101 0)
(-0.00610857 0.000152939 0)
(-0.00627153 0.000152728 0)
(-0.006434 0.000152477 0)
(-0.00659599 0.000152201 0)
(-0.00675753 0.000151922 0)
(-0.00691868 0.000151669 0)
(-0.00707958 0.000151481 0)
(-0.00724043 0.00015141 0)
(-0.00740153 0.000151524 0)
(-0.00756334 0.000151906 0)
(-0.0077265 0.000152658 0)
(-0.00789198 0.000153888 0)
(-0.00806116 0.000155691 0)
(-0.00823615 0.000158135 0)
(-0.00842039 0.000161321 0)
(-0.00862034 0.000165833 0)
(-0.00884779 0.000175169 0)
(-0.00911888 0.000206423 0)
(-0.0094664 0.000308972 0)
(-0.0100761 0.000553141 0)
(-0.0105944 0.00148795 0)
(-0.0120419 0.00281216 0)
(-2.22171e-05 0.000119409 0)
(-0.000133557 0.000247585 0)
(-0.00030926 0.000304188 0)
(-0.000491662 0.000326833 0)
(-0.000684593 0.000334508 0)
(-0.000879206 0.000336779 0)
(-0.00107443 0.000337471 0)
(-0.00126996 0.000337832 0)
(-0.00146566 0.000338196 0)
(-0.00166149 0.000338623 0)
(-0.00185746 0.000339114 0)
(-0.00205357 0.000339658 0)
(-0.00224984 0.000340245 0)
(-0.00244627 0.000340867 0)
(-0.00264285 0.000341519 0)
(-0.0028396 0.000342192 0)
(-0.00303649 0.000342882 0)
(-0.00323354 0.000343581 0)
(-0.00343071 0.000344282 0)
(-0.00362801 0.000344979 0)
(-0.00382541 0.000345663 0)
(-0.0040229 0.000346328 0)
(-0.00422044 0.000346964 0)
(-0.004418 0.000347564 0)
(-0.00461556 0.000348117 0)
(-0.00481307 0.000348616 0)
(-0.00501049 0.000349051 0)
(-0.00520777 0.000349411 0)
(-0.00540487 0.000349689 0)
(-0.00560171 0.000349874 0)
(-0.00579826 0.000349958 0)
(-0.00599443 0.000349934 0)
(-0.00619017 0.000349793 0)
(-0.00638541 0.000349531 0)
(-0.00658007 0.000349146 0)
(-0.0067741 0.000348636 0)
(-0.00696742 0.000348005 0)
(-0.00715998 0.000347261 0)
(-0.00735174 0.000346421 0)
(-0.00754265 0.000345508 0)
(-0.00773271 0.000344556 0)
(-0.00792194 0.000343616 0)
(-0.00811039 0.000342756 0)
(-0.00829817 0.000342069 0)
(-0.00848548 0.000341683 0)
(-0.0086726 0.000341771 0)
(-0.00885995 0.000342567 0)
(-0.00904817 0.00034439 0)
(-0.00923812 0.000347682 0)
(-0.00943107 0.000353073 0)
(-0.00962885 0.000361497 0)
(-0.00983415 0.00037447 0)
(-0.0100512 0.000394724 0)
(-0.0102869 0.000427931 0)
(-0.0105519 0.000487174 0)
(-0.0108598 0.000601995 0)
(-0.0112352 0.000829486 0)
(-0.0117282 0.00127712 0)
(-0.0120934 0.00222573 0)
(-0.0127098 0.00349342 0)
(-2.43507e-05 0.000199284 0)
(-0.000145374 0.000399676 0)
(-0.000335278 0.000487621 0)
(-0.000531432 0.00052248 0)
(-0.00073851 0.0005345 0)
(-0.000947213 0.000538205 0)
(-0.00115652 0.000539372 0)
(-0.00136614 0.000539929 0)
(-0.00157592 0.000540415 0)
(-0.00178581 0.000540949 0)
(-0.00199579 0.000541544 0)
(-0.00220586 0.000542192 0)
(-0.00241603 0.000542883 0)
(-0.00262628 0.000543607 0)
(-0.00283662 0.000544354 0)
(-0.00304702 0.000545116 0)
(-0.00325748 0.000545883 0)
(-0.00346799 0.000546645 0)
(-0.00367853 0.000547392 0)
(-0.00388907 0.000548115 0)
(-0.00409959 0.000548801 0)
(-0.00431007 0.000549438 0)
(-0.00452047 0.000550015 0)
(-0.00473075 0.000550519 0)
(-0.00494088 0.000550937 0)
(-0.0051508 0.000551254 0)
(-0.00536047 0.000551458 0)
(-0.00556984 0.000551534 0)
(-0.00577883 0.000551469 0)
(-0.0059874 0.00055125 0)
(-0.00619548 0.000550865 0)
(-0.00640298 0.000550302 0)
(-0.00660985 0.000549554 0)
(-0.00681601 0.000548614 0)
(-0.00702137 0.000547479 0)
(-0.00722588 0.000546152 0)
(-0.00742945 0.000544642 0)
(-0.00763203 0.000542966 0)
(-0.00783355 0.000541152 0)
(-0.00803399 0.000539243 0)
(-0.00823333 0.0005373 0)
(-0.00843157 0.00053541 0)
(-0.00862878 0.000533691 0)
(-0.00882507 0.000532304 0)
(-0.00902061 0.000531466 0)
(-0.00921571 0.000531475 0)
(-0.0094108 0.000532732 0)
(-0.00960648 0.000535789 0)
(-0.00980366 0.000541416 0)
(-0.0100036 0.000550706 0)
(-0.0102082 0.000565272 0)
(-0.0104199 0.000587612 0)
(-0.0106427 0.000621859 0)
(-0.0108818 0.000675435 0)
(-0.0111434 0.000762494 0)
(-0.0114331 0.000909174 0)
(-0.0117536 0.00115903 0)
(-0.012082 0.00158535 0)
(-0.0122788 0.00230706 0)
(-0.0123779 0.00316835 0)
(-2.47223e-05 0.000284864 0)
(-0.000149221 0.000561952 0)
(-0.000344707 0.000682628 0)
(-0.000546048 0.000730072 0)
(-0.000758445 0.000746551 0)
(-0.000972335 0.000751744 0)
(-0.00118678 0.00075342 0)
(-0.00140151 0.000754188 0)
(-0.00161639 0.000754797 0)
(-0.00183136 0.000755425 0)
(-0.0020464 0.000756101 0)
(-0.00226152 0.000756824 0)
(-0.00247671 0.000757582 0)
(-0.00269195 0.000758364 0)
(-0.00290723 0.000759161 0)
(-0.00312255 0.00075996 0)
(-0.00333789 0.000760748 0)
(-0.00355323 0.000761514 0)
(-0.00376855 0.000762244 0)
(-0.00398384 0.000762924 0)
(-0.00419905 0.000763538 0)
(-0.00441416 0.000764072 0)
(-0.00462914 0.000764508 0)
(-0.00484394 0.00076483 0)
(-0.00505853 0.00076502 0)
(-0.00527284 0.00076506 0)
(-0.00548684 0.000764932 0)
(-0.00570046 0.000764617 0)
(-0.00591364 0.000764098 0)
(-0.00612632 0.000763358 0)
(-0.00633841 0.00076238 0)
(-0.00654986 0.000761152 0)
(-0.00676058 0.000759661 0)
(-0.00697049 0.0007579 0)
(-0.00717951 0.000755867 0)
(-0.00738757 0.000753566 0)
(-0.00759457 0.000751012 0)
(-0.00780045 0.000748229 0)
(-0.00800514 0.000745257 0)
(-0.0082086 0.000742158 0)
(-0.00841077 0.000739016 0)
(-0.00861165 0.000735953 0)
(-0.00881127 0.000733132 0)
(-0.00900969 0.000730778 0)
(-0.00920704 0.000729193 0)
(-0.00940352 0.000728788 0)
(-0.00959946 0.000730119 0)
(-0.0097953 0.000733954 0)
(-0.00999169 0.000741358 0)
(-0.0101895 0.000753839 0)
(-0.0103899 0.000773589 0)
(-0.0105945 0.00080388 0)
(-0.0108052 0.000849773 0)
(-0.0110239 0.000919375 0)
(-0.0112515 0.00102584 0)
(-0.0114858 0.00118966 0)
(-0.0117164 0.00144049 0)
(-0.0119067 0.00181851 0)
(-0.0119758 0.00235386 0)
(-0.011887 0.00296431 0)
(-2.45793e-05 0.000370834 0)
(-0.000150065 0.000726112 0)
(-0.000347483 0.000879882 0)
(-0.000550569 0.00093988 0)
(-0.000764783 0.000960694 0)
(-0.00098039 0.000967277 0)
(-0.0011965 0.000969406 0)
(-0.00141289 0.000970358 0)
(-0.0016294 0.000971075 0)
(-0.001846 0.000971787 0)
(-0.00206268 0.000972535 0)
(-0.00227943 0.00097332 0)
(-0.00249624 0.000974132 0)
(-0.0027131 0.00097496 0)
(-0.00293 0.00097579 0)
(-0.00314693 0.000976608 0)
(-0.00336387 0.000977399 0)
(-0.00358081 0.000978149 0)
(-0.00379772 0.00097884 0)
(-0.00401458 0.000979454 0)
(-0.00423137 0.000979974 0)
(-0.00444804 0.000980379 0)
(-0.00466457 0.000980649 0)
(-0.00488092 0.000980762 0)
(-0.00509704 0.000980696 0)
(-0.00531288 0.00098043 0)
(-0.00552839 0.000979939 0)
(-0.00574351 0.000979201 0)
(-0.00595817 0.000978194 0)
(-0.00617231 0.000976895 0)
(-0.00638586 0.000975285 0)
(-0.00659873 0.000973347 0)
(-0.00681084 0.000971065 0)
(-0.00702212 0.000968429 0)
(-0.00723247 0.000965437 0)
(-0.0074418 0.000962094 0)
(-0.00765002 0.000958414 0)
(-0.00785705 0.000954429 0)
(-0.00806279 0.000950185 0)
(-0.00826718 0.000945757 0)
(-0.00847015 0.000941248 0)
(-0.00867164 0.000936801 0)
(-0.00887162 0.000932614 0)
(-0.0090701 0.000928954 0)
(-0.00926711 0.00092618 0)
(-0.00946272 0.000924775 0)
(-0.00965708 0.00092539 0)
(-0.0098504 0.000928907 0)
(-0.010043 0.000936527 0)
(-0.0102351 0.00094991 0)
(-0.0104273 0.000971369 0)
(-0.0106199 0.00100418 0)
(-0.010813 0.00105306 0)
(-0.011006 0.00112485 0)
(-0.0111961 0.00122937 0)
(-0.0113766 0.00138004 0)
(-0.0115325 0.00159372 0)
(-0.0116316 0.00188769 0)
(-0.0116257 0.00226176 0)
(-0.0114724 0.00267069 0)
(-2.43918e-05 0.00045673 0)
(-0.000150012 0.000890802 0)
(-0.000347949 0.00107783 0)
(-0.000551521 0.0011504 0)
(-0.000766282 0.00117551 0)
(-0.000982385 0.00118344 0)
(-0.00119897 0.00118599 0)
(-0.00141581 0.00118712 0)
(-0.00163278 0.00118794 0)
(-0.00184983 0.00118874 0)
(-0.00206697 0.00118956 0)
(-0.00228418 0.00119041 0)
(-0.00250146 0.00119128 0)
(-0.0027188 0.00119216 0)
(-0.00293618 0.00119302 0)
(-0.00315361 0.00119386 0)
(-0.00337106 0.00119466 0)
(-0.00358851 0.0011954 0)
(-0.00380595 0.00119606 0)
(-0.00402335 0.00119661 0)
(-0.00424069 0.00119704 0)
(-0.00445793 0.00119733 0)
(-0.00467504 0.00119744 0)
(-0.00489198 0.00119735 0)
(-0.0051087 0.00119703 0)
(-0.00532516 0.00119646 0)
(-0.00554131 0.00119562 0)
(-0.00575707 0.00119446 0)
(-0.0059724 0.00119297 0)
(-0.00618721 0.00119111 0)
(-0.00640144 0.00118887 0)
(-0.006615 0.00118621 0)
(-0.00682781 0.00118313 0)
(-0.00703977 0.0011796 0)
(-0.00725079 0.00117563 0)
(-0.00746077 0.00117121 0)
(-0.0076696 0.00116635 0)
(-0.00787719 0.00116109 0)
(-0.00808342 0.00115549 0)
(-0.00828819 0.00114961 0)
(-0.0084914 0.00114357 0)
(-0.00869294 0.00113752 0)
(-0.00889273 0.00113168 0)
(-0.00909067 0.00112634 0)
(-0.0092867 0.00112188 0)
(-0.00948074 0.00111881 0)
(-0.00967275 0.00111781 0)
(-0.00986265 0.00111979 0)
(-0.0100504 0.00112596 0)
(-0.0102358 0.00113794 0)
(-0.0104185 0.00115791 0)
(-0.010598 0.00118879 0)
(-0.0107731 0.00123451 0)
(-0.0109413 0.0013003 0)
(-0.0110981 0.00139287 0)
(-0.0112354 0.00152017 0)
(-0.0113388 0.00169027 0)
(-0.0113848 0.00190752 0)
(-0.0113433 0.00216279 0)
(-0.0111858 0.00242707 0)
(-2.42438e-05 0.000542438 0)
(-0.000149739 0.00105558 0)
(-0.000347703 0.00127598 0)
(-0.000551342 0.00136118 0)
(-0.000766221 0.00139058 0)
(-0.000982427 0.00139983 0)
(-0.0011991 0.0014028 0)
(-0.00141604 0.00140409 0)
(-0.00163309 0.00140502 0)
(-0.00185024 0.0014059 0)
(-0.00206748 0.00140681 0)
(-0.0022848 0.00140774 0)
(-0.0025022 0.00140868 0)
(-0.00271967 0.00140961 0)
(-0.00293721 0.00141053 0)
(-0.0031548 0.00141141 0)
(-0.00337243 0.00141223 0)
(-0.00359009 0.00141297 0)
(-0.00380775 0.00141361 0)
(-0.00402539 0.00141413 0)
(-0.004243 0.00141449 0)
(-0.00446052 0.00141466 0)
(-0.00467795 0.00141463 0)
(-0.00489523 0.00141436 0)
(-0.00511232 0.00141382 0)
(-0.00532917 0.00141298 0)
(-0.00554573 0.00141179 0)
(-0.00576195 0.00141024 0)
(-0.00597775 0.00140828 0)
(-0.00619306 0.00140589 0)
(-0.00640781 0.00140303 0)
(-0.00662191 0.00139967 0)
(-0.00683527 0.00139579 0)
(-0.0070478 0.00139137 0)
(-0.00725938 0.0013864 0)
(-0.00746992 0.00138088 0)
(-0.00767928 0.00137481 0)
(-0.00788736 0.00136822 0)
(-0.00809401 0.00136117 0)
(-0.0082991 0.00135371 0)
(-0.00850249 0.00134598 0)
(-0.00870402 0.00133811 0)
(-0.00890354 0.00133032 0)
(-0.00910088 0.00132289 0)
(-0.00929584 0.00131621 0)
(-0.00948823 0.00131078 0)
(-0.0096778 0.00130723 0)
(-0.00986423 0.00130644 0)
(-0.0100471 0.00130951 0)
(-0.0102259 0.00131789 0)
(-0.0103997 0.00133342 0)
(-0.0105673 0.00135848 0)
(-0.0107265 0.00139603 0)
(-0.0108742 0.00144967 0)
(-0.0110053 0.00152349 0)
(-0.011112 0.0016215 0)
(-0.0111825 0.00174644 0)
(-0.0112005 0.00189692 0)
(-0.0111477 0.00206265 0)
(-0.0110072 0.00222265 0)
(-2.41261e-05 0.000627927 0)
(-0.000149421 0.00122023 0)
(-0.000347249 0.00147406 0)
(-0.000550821 0.00157196 0)
(-0.000765678 0.00160566 0)
(-0.000981863 0.00161625 0)
(-0.00119852 0.00161963 0)
(-0.00141544 0.00162109 0)
(-0.00163248 0.00162212 0)
(-0.00184962 0.0016231 0)
(-0.00206686 0.0016241 0)
(-0.0022842 0.00162511 0)
(-0.00250163 0.00162614 0)
(-0.00271915 0.00162715 0)
(-0.00293675 0.00162813 0)
(-0.00315443 0.00162907 0)
(-0.00337217 0.00162993 0)
(-0.00358995 0.0016307 0)
(-0.00380777 0.00163135 0)
(-0.00402559 0.00163185 0)
(-0.00424341 0.00163216 0)
(-0.00446117 0.00163227 0)
(-0.00467887 0.00163213 0)
(-0.00489645 0.00163171 0)
(-0.00511387 0.00163097 0)
(-0.0053311 0.00162988 0)
(-0.00554807 0.00162839 0)
(-0.00576473 0.00162647 0)
(-0.005981 0.00162408 0)
(-0.00619682 0.00162118 0)
(-0.00641212 0.00161772 0)
(-0.00662679 0.00161368 0)
(-0.00684075 0.00160903 0)
(-0.00705389 0.00160373 0)
(-0.0072661 0.00159776 0)
(-0.00747725 0.00159112 0)
(-0.00768723 0.00158381 0)
(-0.00789587 0.00157584 0)
(-0.00810303 0.00156725 0)
(-0.00830855 0.00155811 0)
(-0.00851223 0.00154851 0)
(-0.00871388 0.0015386 0)
(-0.00891327 0.00152857 0)
(-0.00911016 0.00151867 0)
(-0.00930425 0.00150926 0)
(-0.00949521 0.00150078 0)
(-0.00968263 0.00149382 0)
(-0.00986599 0.00148912 0)
(-0.0100446 0.00148763 0)
(-0.0102177 0.00149051 0)
(-0.0103839 0.00149924 0)
(-0.0105416 0.00151557 0)
(-0.0106883 0.00154152 0)
(-0.0108207 0.00157933 0)
(-0.0109339 0.00163112 0)
(-0.011021 0.00169839 0)
(-0.0110731 0.00178097 0)
(-0.0110792 0.00187528 0)
(-0.011028 0.00197212 0)
(-0.0109106 0.00205611 0)
(-2.40213e-05 0.000713197 0)
(-0.000149087 0.00138467 0)
(-0.00034672 0.00167202 0)
(-0.00055018 0.00178265 0)
(-0.000764962 0.00182069 0)
(-0.000981086 0.00183261 0)
(-0.00119769 0.00183641 0)
(-0.00141456 0.00183804 0)
(-0.00163156 0.00183919 0)
(-0.00184867 0.00184028 0)
(-0.00206589 0.00184138 0)
(-0.00228322 0.0018425 0)
(-0.00250066 0.00184362 0)
(-0.00271821 0.00184473 0)
(-0.00293586 0.0018458 0)
(-0.00315361 0.00184681 0)
(-0.00337145 0.00184774 0)
(-0.00358936 0.00184857 0)
(-0.00380733 0.00184925 0)
(-0.00402533 0.00184976 0)
(-0.00424336 0.00185006 0)
(-0.00446138 0.00185012 0)
(-0.00467936 0.00184991 0)
(-0.00489727 0.00184937 0)
(-0.00511506 0.00184848 0)
(-0.00533269 0.00184718 0)
(-0.00555011 0.00184542 0)
(-0.00576725 0.00184318 0)
(-0.00598406 0.00184039 0)
(-0.00620046 0.00183701 0)
(-0.00641637 0.001833 0)
(-0.00663169 0.00182832 0)
(-0.00684634 0.00182291 0)
(-0.00706019 0.00181674 0)
(-0.00727314 0.00180979 0)
(-0.00748504 0.00180204 0)
(-0.00769575 0.00179346 0)
(-0.00790511 0.00178406 0)
(-0.00811295 0.00177388 0)
(-0.00831906 0.00176295 0)
(-0.00852323 0.00175135 0)
(-0.00872521 0.00173919 0)
(-0.00892472 0.00172664 0)
(-0.00912145 0.00171392 0)
(-0.00931501 0.00170132 0)
(-0.00950496 0.00168921 0)
(-0.00969076 0.00167807 0)
(-0.00987175 0.0016685 0)
(-0.0100471 0.00166125 0)
(-0.0102156 0.00165721 0)
(-0.0103761 0.00165742 0)
(-0.0105264 0.00166306 0)
(-0.0106642 0.00167538 0)
(-0.0107862 0.00169554 0)
(-0.010888 0.00172434 0)
(-0.0109642 0.00176176 0)
(-0.0110079 0.00180624 0)
(-0.0110119 0.00185367 0)
(-0.0109692 0.00189642 0)
(-0.0108753 0.00192331 0)
(-2.39171e-05 0.000798248 0)
(-0.000148734 0.00154888 0)
(-0.000346141 0.0018698 0)
(-0.000549466 0.00199324 0)
(-0.00076415 0.00203564 0)
(-0.000980193 0.00204891 0)
(-0.00119673 0.00205313 0)
(-0.00141353 0.00205494 0)
(-0.00163048 0.00205621 0)
(-0.00184755 0.00205742 0)
(-0.00206474 0.00205864 0)
(-0.00228206 0.00205987 0)
(-0.00249951 0.00206111 0)
(-0.00271709 0.00206234 0)
(-0.0029348 0.00206352 0)
(-0.00315262 0.00206464 0)
(-0.00337056 0.00206567 0)
(-0.0035886 0.00206657 0)
(-0.00380674 0.00206732 0)
(-0.00402495 0.00206787 0)
(-0.00424321 0.0020682 0)
(-0.00446151 0.00206826 0)
(-0.00467981 0.00206801 0)
(-0.00489808 0.0020674 0)
(-0.00511628 0.00206639 0)
(-0.00533436 0.00206492 0)
(-0.00555228 0.00206296 0)
(-0.00576998 0.00206043 0)
(-0.00598739 0.00205729 0)
(-0.00620444 0.00205349 0)
(-0.00642105 0.00204896 0)
(-0.00663713 0.00204367 0)
(-0.00685256 0.00203754 0)
(-0.00706725 0.00203054 0)
(-0.00728106 0.00202263 0)
(-0.00749385 0.00201376 0)
(-0.00770546 0.00200391 0)
(-0.00791571 0.00199307 0)
(-0.00812442 0.00198123 0)
(-0.00833135 0.00196843 0)
(-0.00853625 0.00195471 0)
(-0.00873885 0.00194014 0)
(-0.00893881 0.00192486 0)
(-0.00913576 0.00190901 0)
(-0.00932924 0.00189283 0)
(-0.00951874 0.0018766 0)
(-0.00970362 0.00186068 0)
(-0.00988309 0.00184551 0)
(-0.0100562 0.00183163 0)
(-0.0102218 0.00181962 0)
(-0.0103783 0.00181018 0)
(-0.0105239 0.00180399 0)
(-0.0106562 0.00180166 0)
(-0.0107721 0.0018036 0)
(-0.010868 0.00180975 0)
(-0.0109395 0.00181926 0)
(-0.0109817 0.00183001 0)
(-0.0109895 0.00183808 0)
(-0.0109588 0.00183735 0)
(-0.0108873 0.00181968 0)
(-2.38071e-05 0.000883066 0)
(-0.000148352 0.00171284 0)
(-0.000345511 0.0020674 0)
(-0.000548684 0.0022037 0)
(-0.000763253 0.00225048 0)
(-0.000979201 0.00226512 0)
(-0.00119565 0.00226978 0)
(-0.00141238 0.00227177 0)
(-0.00162927 0.00227319 0)
(-0.00184629 0.00227452 0)
(-0.00206346 0.00227588 0)
(-0.00228076 0.00227725 0)
(-0.00249822 0.00227863 0)
(-0.00271583 0.00227999 0)
(-0.00293359 0.00228131 0)
(-0.0031515 0.00228256 0)
(-0.00336955 0.00228371 0)
(-0.00358774 0.00228473 0)
(-0.00380606 0.00228558 0)
(-0.00402449 0.00228622 0)
(-0.00424301 0.00228661 0)
(-0.00446161 0.00228671 0)
(-0.00468026 0.00228647 0)
(-0.00489893 0.00228583 0)
(-0.00511758 0.00228476 0)
(-0.00533617 0.00228318 0)
(-0.00555465 0.00228104 0)
(-0.00577296 0.00227829 0)
(-0.00599105 0.00227486 0)
(-0.00620884 0.00227068 0)
(-0.00642624 0.0022657 0)
(-0.00664317 0.00225984 0)
(-0.00685951 0.00225305 0)
(-0.00707516 0.00224526 0)
(-0.00728997 0.00223641 0)
(-0.00750381 0.00222646 0)
(-0.00771649 0.00221535 0)
(-0.00792784 0.00220306 0)
(-0.00813764 0.00218955 0)
(-0.00834564 0.00217482 0)
(-0.00855157 0.0021589 0)
(-0.00875512 0.0021418 0)
(-0.00895591 0.00212361 0)
(-0.00915353 0.00210442 0)
(-0.00934748 0.00208437 0)
(-0.00953717 0.00206366 0)
(-0.00972191 0.00204252 0)
(-0.00990086 0.00202122 0)
(-0.010073 0.0020001 0)
(-0.0102371 0.0019795 0)
(-0.0103917 0.00195977 0)
(-0.010535 0.0019412 0)
(-0.0106647 0.00192395 0)
(-0.0107782 0.00190788 0)
(-0.0108725 0.00189242 0)
(-0.010944 0.00187632 0)
(-0.0109892 0.00185733 0)
(-0.0110047 0.00183197 0)
(-0.0109877 0.00179541 0)
(-0.0109371 0.0017417 0)
(-2.3688e-05 0.000967631 0)
(-0.000147936 0.00187652 0)
(-0.000344822 0.0022648 0)
(-0.000547829 0.00241402 0)
(-0.000762267 0.00246522 0)
(-0.000978107 0.00248124 0)
(-0.00119446 0.00248634 0)
(-0.00141111 0.00248854 0)
(-0.00162793 0.0024901 0)
(-0.0018449 0.00249159 0)
(-0.00206202 0.00249309 0)
(-0.00227931 0.00249462 0)
(-0.00249678 0.00249616 0)
(-0.00271441 0.00249769 0)
(-0.00293223 0.00249918 0)
(-0.00315023 0.00250059 0)
(-0.0033684 0.0025019 0)
(-0.00358675 0.00250306 0)
(-0.00380526 0.00250405 0)
(-0.00402392 0.00250482 0)
(-0.00424273 0.00250532 0)
(-0.00446166 0.0025055 0)
(-0.00468069 0.00250532 0)
(-0.0048998 0.00250471 0)
(-0.00511894 0.00250362 0)
(-0.00533808 0.00250199 0)
(-0.00555718 0.00249975 0)
(-0.00577618 0.00249683 0)
(-0.00599501 0.00249317 0)
(-0.00621361 0.00248868 0)
(-0.0064319 0.0024833 0)
(-0.00664979 0.00247695 0)
(-0.00686716 0.00246954 0)
(-0.0070839 0.00246102 0)
(-0.00729987 0.0024513 0)
(-0.00751492 0.0024403 0)
(-0.00772887 0.00242797 0)
(-0.00794152 0.00241425 0)
(-0.00815266 0.00239907 0)
(-0.00836201 0.00238241 0)
(-0.00856929 0.00236424 0)
(-0.00877415 0.00234454 0)
(-0.00897621 0.00232333 0)
(-0.009175 0.00230065 0)
(-0.00937001 0.00227656 0)
(-0.00956061 0.00225113 0)
(-0.00974607 0.00222449 0)
(-0.00992552 0.00219675 0)
(-0.010098 0.00216807 0)
(-0.0102621 0.00213855 0)
(-0.0104167 0.00210829 0)
(-0.0105598 0.00207726 0)
(-0.0106895 0.00204527 0)
(-0.0108037 0.00201187 0)
(-0.0108996 0.00197618 0)
(-0.0109746 0.00193677 0)
(-0.0110261 0.0018915 0)
(-0.0110515 0.00183739 0)
(-0.0110491 0.00177062 0)
(-0.0110183 0.00168679 0)
(-2.35584e-05 0.00105192 0)
(-0.000147483 0.00203989 0)
(-0.00034407 0.00246197 0)
(-0.000546892 0.00262418 0)
(-0.000761184 0.00267983 0)
(-0.000976901 0.00269725 0)
(-0.00119315 0.00270281 0)
(-0.0014097 0.00270522 0)
(-0.00162644 0.00270695 0)
(-0.00184335 0.0027086 0)
(-0.00206043 0.00271028 0)
(-0.00227769 0.00271199 0)
(-0.00249516 0.00271371 0)
(-0.00271282 0.00271543 0)
(-0.00293069 0.00271711 0)
(-0.00314878 0.00271872 0)
(-0.00336708 0.00272022 0)
(-0.00358559 0.00272158 0)
(-0.0038043 0.00272275 0)
(-0.00402322 0.00272368 0)
(-0.00424233 0.00272434 0)
(-0.00446161 0.00272466 0)
(-0.00468105 0.00272459 0)
(-0.00490063 0.00272407 0)
(-0.0051203 0.00272303 0)
(-0.00534004 0.00272141 0)
(-0.00555981 0.00271913 0)
(-0.00577955 0.00271612 0)
(-0.00599921 0.0027123 0)
(-0.00621871 0.00270758 0)
(-0.00643798 0.00270187 0)
(-0.00665692 0.0026951 0)
(-0.00687544 0.00268717 0)
(-0.00709341 0.00267798 0)
(-0.00731069 0.00266745 0)
(-0.00752713 0.00265548 0)
(-0.00774255 0.00264199 0)
(-0.00795674 0.00262688 0)
(-0.00816947 0.00261007 0)
(-0.00838048 0.0025915 0)
(-0.00858944 0.00257109 0)
(-0.00879602 0.00254878 0)
(-0.0089998 0.00252453 0)
(-0.00920031 0.0024983 0)
(-0.009397 0.00247007 0)
(-0.00958924 0.00243982 0)
(-0.00977629 0.00240755 0)
(-0.00995729 0.00237325 0)
(-0.0101312 0.00233689 0)
(-0.0102969 0.00229841 0)
(-0.010453 0.00225766 0)
(-0.010598 0.0022144 0)
(-0.0107301 0.0021682 0)
(-0.0108473 0.00211839 0)
(-0.0109476 0.00206394 0)
(-0.0110287 0.0020034 0)
(-0.0110886 0.0019348 0)
(-0.0111256 0.00185561 0)
(-0.0111383 0.00176281 0)
(-0.0111264 0.00165307 0)
(-2.34172e-05 0.00113591 0)
(-0.000146988 0.00220292 0)
(-0.000343248 0.0026589 0)
(-0.000545865 0.00283416 0)
(-0.000759994 0.0028943 0)
(-0.000975573 0.00291314 0)
(-0.0011917 0.00291917 0)
(-0.00140814 0.00292181 0)
(-0.00162479 0.00292372 0)
(-0.00184162 0.00292555 0)
(-0.00205864 0.00292742 0)
(-0.00227588 0.00292933 0)
(-0.00249333 0.00293127 0)
(-0.00271102 0.00293321 0)
(-0.00292894 0.00293512 0)
(-0.00314712 0.00293696 0)
(-0.00336554 0.00293869 0)
(-0.00358422 0.00294028 0)
(-0.00380315 0.00294167 0)
(-0.00402233 0.00294283 0)
(-0.00424176 0.0029437 0)
(-0.00446141 0.00294421 0)
(-0.00468129 0.00294432 0)
(-0.00490136 0.00294395 0)
(-0.0051216 0.00294303 0)
(-0.00534198 0.00294149 0)
(-0.00556247 0.00293925 0)
(-0.00578301 0.00293622 0)
(-0.00600356 0.00293232 0)
(-0.00622404 0.00292745 0)
(-0.00644438 0.00292152 0)
(-0.00666449 0.00291442 0)
(-0.00688428 0.00290604 0)
(-0.00710362 0.00289628 0)
(-0.00732237 0.00288504 0)
(-0.00754038 0.00287218 0)
(-0.00775747 0.00285761 0)
(-0.00797344 0.0028412 0)
(-0.00818804 0.00282284 0)
(-0.008401 0.00280242 0)
(-0.00861201 0.00277983 0)
(-0.00882071 0.00275496 0)
(-0.00902669 0.00272769 0)
(-0.00922947 0.00269794 0)
(-0.00942849 0.00266559 0)
(-0.00962312 0.00263053 0)
(-0.00981263 0.00259266 0)
(-0.00999618 0.00255183 0)
(-0.0101728 0.00250788 0)
(-0.0103414 0.00246058 0)
(-0.0105007 0.00240962 0)
(-0.0106492 0.00235459 0)
(-0.0107856 0.0022949 0)
(-0.0109079 0.00222973 0)
(-0.0110146 0.002158 0)
(-0.0111038 0.00207831 0)
(-0.0111739 0.00198886 0)
(-0.0112235 0.00188752 0)
(-0.0112516 0.00177185 0)
(-0.011258 0.0016393 0)
(-2.32639e-05 0.00121958 0)
(-0.00014645 0.00236559 0)
(-0.000342352 0.00285556 0)
(-0.000544743 0.00304394 0)
(-0.00075869 0.00310861 0)
(-0.000974113 0.00312889 0)
(-0.0011901 0.00313541 0)
(-0.00140642 0.00313829 0)
(-0.00162296 0.0031404 0)
(-0.00183969 0.00314243 0)
(-0.00205665 0.00314452 0)
(-0.00227384 0.00314666 0)
(-0.00249128 0.00314884 0)
(-0.00270898 0.00315103 0)
(-0.00292695 0.00315319 0)
(-0.00314521 0.0031553 0)
(-0.00336375 0.0031573 0)
(-0.0035826 0.00315917 0)
(-0.00380175 0.00316084 0)
(-0.0040212 0.00316227 0)
(-0.00424095 0.00316341 0)
(-0.00446099 0.00316418 0)
(-0.00468132 0.00316453 0)
(-0.00490192 0.00316438 0)
(-0.00512276 0.00316365 0)
(-0.00534383 0.00316228 0)
(-0.00556508 0.00316016 0)
(-0.00578648 0.0031572 0)
(-0.00600798 0.00315332 0)
(-0.00622951 0.0031484 0)
(-0.00645102 0.00314233 0)
(-0.0066724 0.003135 0)
(-0.00689357 0.0031263 0)
(-0.00711441 0.00311608 0)
(-0.00733479 0.00310423 0)
(-0.00755456 0.0030906 0)
(-0.00777353 0.00307507 0)
(-0.00799151 0.00305747 0)
(-0.00820825 0.00303767 0)
(-0.00842349 0.00301552 0)
(-0.00863691 0.00299085 0)
(-0.00884816 0.00296352 0)
(-0.00905682 0.00293335 0)
(-0.00926241 0.00290018 0)
(-0.00946441 0.00286382 0)
(-0.00966217 0.00282408 0)
(-0.00985499 0.00278074 0)
(-0.0100421 0.00273357 0)
(-0.0102225 0.00268226 0)
(-0.0103952 0.00262646 0)
(-0.010559 0.00256575 0)
(-0.0107128 0.00249955 0)
(-0.010855 0.00242719 0)
(-0.0109842 0.00234776 0)
(-0.011099 0.00226018 0)
(-0.0111978 0.00216309 0)
(-0.0112794 0.0020549 0)
(-0.0113426 0.00193377 0)
(-0.0113865 0.0017977 0)
(-0.0114108 0.00164467 0)
(-2.3098e-05 0.00130289 0)
(-0.000145866 0.00252786 0)
(-0.000341376 0.00305191 0)
(-0.000543518 0.0032535 0)
(-0.00075726 0.00332274 0)
(-0.000972507 0.00334448 0)
(-0.00118833 0.00335151 0)
(-0.00140451 0.00335465 0)
(-0.00162092 0.00335698 0)
(-0.00183755 0.00335923 0)
(-0.00205443 0.00336155 0)
(-0.00227156 0.00336394 0)
(-0.00248896 0.00336639 0)
(-0.00270666 0.00336886 0)
(-0.00292467 0.00337133 0)
(-0.003143 0.00337374 0)
(-0.00336167 0.00337607 0)
(-0.00358068 0.00337825 0)
(-0.00380005 0.00338026 0)
(-0.00401977 0.00338202 0)
(-0.00423985 0.00338348 0)
(-0.00446029 0.00338457 0)
(-0.00468109 0.00338523 0)
(-0.00490223 0.00338538 0)
(-0.0051237 0.00338493 0)
(-0.00534548 0.0033838 0)
(-0.00556754 0.0033819 0)
(-0.00578985 0.00337912 0)
(-0.00601237 0.00337535 0)
(-0.00623503 0.00337049 0)
(-0.00645777 0.00336441 0)
(-0.00668053 0.00335697 0)
(-0.0069032 0.00334806 0)
(-0.00712568 0.00333752 0)
(-0.00734785 0.0033252 0)
(-0.00756954 0.00331094 0)
(-0.00779061 0.00329458 0)
(-0.00801083 0.00327595 0)
(-0.00822999 0.00325486 0)
(-0.00844782 0.00323113 0)
(-0.00866401 0.00320455 0)
(-0.00887822 0.00317492 0)
(-0.00909004 0.00314202 0)
(-0.009299 0.00310561 0)
(-0.00950459 0.00306544 0)
(-0.0097062 0.00302123 0)
(-0.00990315 0.00297269 0)
(-0.0100947 0.00291946 0)
(-0.0102799 0.00286116 0)
(-0.0104579 0.00279733 0)
(-0.0106276 0.00272741 0)
(-0.0107878 0.00265077 0)
(-0.0109373 0.00256663 0)
(-0.0110749 0.00247406 0)
(-0.0111993 0.00237197 0)
(-0.0113091 0.00225908 0)
(-0.0114032 0.00213393 0)
(-0.0114807 0.00199494 0)
(-0.0115407 0.00184043 0)
(-0.011583 0.00166874 0)
(-2.29188e-05 0.00138581 0)
(-0.000145234 0.0026897 0)
(-0.000340316 0.00324795 0)
(-0.000542182 0.00346282 0)
(-0.000755696 0.00353667 0)
(-0.000970746 0.00355989 0)
(-0.00118639 0.00356744 0)
(-0.00140241 0.00357086 0)
(-0.00161867 0.00357342 0)
(-0.00183518 0.00357592 0)
(-0.00205194 0.0035785 0)
(-0.002269 0.00358118 0)
(-0.00248636 0.00358392 0)
(-0.00270404 0.00358672 0)
(-0.00292207 0.00358951 0)
(-0.00314047 0.00359228 0)
(-0.00335924 0.00359496 0)
(-0.00357841 0.00359753 0)
(-0.00379799 0.00359991 0)
(-0.00401798 0.00360206 0)
(-0.0042384 0.00360392 0)
(-0.00445924 0.0036054 0)
(-0.00468052 0.00360645 0)
(-0.00490222 0.00360697 0)
(-0.00512434 0.00360689 0)
(-0.00534686 0.00360611 0)
(-0.00556977 0.00360452 0)
(-0.00579303 0.00360202 0)
(-0.00601661 0.00359848 0)
(-0.00624046 0.0035938 0)
(-0.00646453 0.00358783 0)
(-0.00668875 0.00358043 0)
(-0.00691303 0.00357145 0)
(-0.00713728 0.00356073 0)
(-0.00736137 0.0035481 0)
(-0.00758518 0.00353338 0)
(-0.00780853 0.00351637 0)
(-0.00803123 0.00349689 0)
(-0.00825308 0.0034747 0)
(-0.00847381 0.00344958 0)
(-0.00869312 0.0034213 0)
(-0.0089107 0.0033896 0)
(-0.00912613 0.0033542 0)
(-0.009339 0.00331481 0)
(-0.00954878 0.0032711 0)
(-0.00975492 0.00322274 0)
(-0.00995676 0.00316934 0)
(-0.0101536 0.00311047 0)
(-0.0103446 0.00304564 0)
(-0.0105289 0.00297432 0)
(-0.0107056 0.00289587 0)
(-0.0108735 0.00280956 0)
(-0.0110317 0.00271458 0)
(-0.0111789 0.00260996 0)
(-0.011314 0.00249463 0)
(-0.0114359 0.00236736 0)
(-0.0115435 0.00222683 0)
(-0.0116361 0.00207161 0)
(-0.0117127 0.00190027 0)
(-0.0117729 0.0017114 0)
(-2.27259e-05 0.00146833 0)
(-0.00014455 0.00285106 0)
(-0.000339167 0.00344362 0)
(-0.000540728 0.00367187 0)
(-0.000753989 0.00375037 0)