0 	4.63973e-08
1.57135 	-1.59519e-07
3.1427 	1.3923e-06
4.71405 	1.23702e-05
6.28539 	4.85861e-05
7.85674 	0.000136632
9.42809 	0.000308536
10.9994 	0.000582292
12.5708 	0.000671526
14.1421 	0.0088173
