/*--------------------------------*- C++ -*----------------------------------*\
  =========                 |
  \\      /  F ield         | OpenFOAM: The Open Source CFD Toolbox
   \\    /   O peration     | Website:  https://openfoam.org
    \\  /    A nd           | Version:  8
     \\/     M anipulation  |
\*---------------------------------------------------------------------------*/
FoamFile
{
    version     2.0;
    format      ascii;
    class       surfaceScalarField;
    location    "7.5";
    object      phi;
}
// * * * * * * * * * * * * * * * * * * * * * * * * * * * * * * * * * * * * * //

dimensions      [0 3 -1 0 0 0 0];

internalField   nonuniform List<scalar> 
880
(
-3.99862e-06
3.99862e-06
-7.95579e-06
3.95717e-06
-1.17113e-05
3.75551e-06
-1.5174e-05
3.4627e-06
-1.82644e-05
3.09041e-06
-2.0917e-05
2.6526e-06
-2.30828e-05
2.16582e-06
-2.47276e-05
1.64481e-06
-2.58539e-05
1.12626e-06
-2.64359e-05
5.81969e-07
-2.67588e-05
3.22969e-07
-3.88884e-07
-2.637e-05
-4.15904e-06
8.15765e-06
-8.27297e-06
8.0711e-06
-1.21742e-05
7.65676e-06
-1.57672e-05
7.05568e-06
-1.89691e-05
6.29235e-06
-2.17129e-05
5.39641e-06
-2.39524e-05
4.40526e-06
-2.56585e-05
3.35092e-06
-2.68286e-05
2.2964e-06
-2.74603e-05
1.21362e-06
-2.7768e-05
6.30689e-07
-7.4594e-07
-2.7411e-05
-4.36642e-06
1.25241e-05
-8.68193e-06
1.23866e-05
-1.27676e-05
1.17424e-05
-1.65207e-05
1.08088e-05
-1.98525e-05
9.62417e-06
-2.26884e-05
8.23221e-06
-2.49636e-05
6.68049e-06
-2.6627e-05
5.01438e-06
-2.76289e-05
3.29826e-06
-2.79617e-05
1.5464e-06
-2.74197e-05
8.87619e-08
-1.8727e-06
-2.6293e-05
-4.68829e-06
1.72124e-05
-9.31615e-06
1.70145e-05
-1.36873e-05
1.61136e-05
-1.76896e-05
1.48111e-05
-2.12284e-05
1.3163e-05
-2.42272e-05
1.1231e-05
-2.66267e-05
9.07997e-06
-2.83861e-05
6.77383e-06
-2.94692e-05
4.38135e-06
-2.98385e-05
1.91575e-06
-2.92851e-05
-4.64729e-07
-2.99892e-06
-2.81588e-05
-5.13888e-06
2.23512e-05
-1.02023e-05
2.20779e-05
-1.49697e-05
2.08809e-05
-1.9315e-05
1.91564e-05
-2.31364e-05
1.69844e-05
-2.63534e-05
1.4448e-05
-2.8904e-05
1.16306e-05
-3.07387e-05
8.60848e-06
-3.18118e-05
5.45445e-06
-3.21159e-05
2.21988e-06
-3.15914e-05
-9.89273e-07
-4.30592e-06
-3.02844e-05
-5.73868e-06
2.80899e-05
-1.13782e-05
2.77175e-05
-1.66658e-05
2.61685e-05
-2.14566e-05
2.39472e-05
-2.56431e-05
2.1171e-05
-2.91444e-05
1.79493e-05
-3.19047e-05
1.43909e-05
-3.38862e-05
1.059e-05
-3.5061e-05
6.62925e-06
-3.54112e-05
2.57004e-06
-3.48757e-05
-1.52472e-06
-5.64947e-06
-3.35322e-05
-6.51755e-06
3.46075e-05
-1.28972e-05
3.40971e-05
-1.88459e-05
3.21171e-05
-2.4192e-05
2.92933e-05
-2.88258e-05
2.58049e-05
-3.26691e-05
2.17925e-05
-3.56769e-05
1.73987e-05
-3.78236e-05
1.27367e-05
-3.90932e-05
7.89883e-06
-3.94771e-05
2.95391e-06
-3.89645e-05
-2.03731e-06
-7.04835e-06
-3.75656e-05
-7.5201e-06
4.21276e-05
-1.48355e-05
4.14125e-05
-2.16085e-05
3.88901e-05
-2.76262e-05
3.5311e-05
-3.27876e-05
3.09663e-05
-3.70224e-05
2.60273e-05
-4.03077e-05
2.0684e-05
-4.26394e-05
1.50683e-05
-4.4022e-05
9.28144e-06
-4.44609e-05
3.39285e-06
-4.39518e-05
-2.54638e-06
-8.49807e-06
-4.25021e-05
-8.8115e-06
5.09391e-05
-1.73012e-05
4.99023e-05
-2.50914e-05
4.66803e-05
-3.18998e-05
4.21194e-05
-3.766e-05
3.67265e-05
-4.23177e-05
3.0685e-05
-4.58893e-05
2.42556e-05
-4.84041e-05
1.75832e-05
-4.98956e-05
1.0773e-05
-5.03882e-05
3.8854e-06
-4.98882e-05
-3.04637e-06
-9.99664e-06
-4.83896e-05
-1.05067e-05
6.14458e-05
-2.04618e-05
5.98574e-05
-2.94987e-05
5.57171e-05
-3.72058e-05
4.98265e-05
-4.3614e-05
4.31347e-05
-4.86929e-05
3.57638e-05
-5.25269e-05
2.80896e-05
-5.51961e-05
2.02524e-05
-5.67753e-05
1.23521e-05
-5.73141e-05
4.42421e-06
-5.68307e-05
-3.52975e-06
-1.15217e-05
-5.53056e-05
-1.27238e-05
7.41697e-05
-2.45137e-05
7.16472e-05
-3.50896e-05
6.62931e-05
-4.37896e-05
5.85264e-05
-5.08632e-05
5.02083e-05
-5.63087e-05
4.12093e-05
-6.03328e-05
3.21137e-05
-6.30885e-05
2.30082e-05
-6.47074e-05
1.39709e-05
-6.52753e-05
4.99206e-06
-6.48247e-05
-3.98034e-06
-1.30216e-05
-6.33248e-05
-1.5989e-05
9.01586e-05
-2.9951e-05
8.56092e-05
-4.24282e-05
7.87704e-05
-5.2059e-05
6.81573e-05
-5.97118e-05
5.78611e-05
-6.53628e-05
4.68602e-05
-6.94234e-05
3.61744e-05
-7.21327e-05
2.57175e-05
-7.37052e-05
1.55435e-05
-7.42742e-05
5.561e-06
-7.38849e-05
-4.36959e-06
-1.44116e-05
-7.2495e-05
-1.97688e-05
0.000109927
-3.64848e-05
0.000102325
-5.13135e-05
9.35991e-05
-6.20104e-05
7.88541e-05
-7.03149e-05
6.61657e-05
-7.60056e-05
5.25509e-05
-7.98698e-05
4.00386e-05
-8.23354e-05
2.81831e-05
-8.37354e-05
1.69435e-05
-8.42603e-05
6.08581e-06
-8.39753e-05
-4.65451e-06
-1.55634e-05
-8.28235e-05
-2.83353e-05
0.000138263
-4.81853e-05
0.000122175
-6.56757e-05
0.00011109
-7.60697e-05
8.92482e-05
-8.40056e-05
7.41016e-05
-8.87543e-05
5.72996e-05
-9.18197e-05
4.3104e-05
-9.36696e-05
3.0033e-05
-9.46932e-05
1.7967e-05
-9.51053e-05
6.49796e-06
-9.49895e-05
-4.77027e-06
-1.62626e-05
-9.42904e-05
-3.45851e-05
0.000172848
-5.82964e-05
0.000145886
-7.89258e-05
0.000131719
-9.01132e-05
0.000100436
-9.83222e-05
8.23105e-05
-0.000102418
6.13955e-05
-0.000104731
4.54168e-05
-0.000105803
3.11054e-05
-0.000106268
1.84316e-05
-0.000106486
6.71623e-06
-0.000106583
-4.6731e-06
-1.63923e-05
-0.000106454
-6.3185e-05
0.000236033
-8.86679e-05
0.000171369
-0.0001106
0.000153651
-0.000116881
0.000106717
-0.000120643
8.6072e-05
-0.000120626
6.13786e-05
-0.000119946
4.47371e-05
-0.000118958
3.0117e-05
-0.000118294
1.77679e-05
-0.000118186
6.60831e-06
-0.000118683
-4.17647e-06
-1.52716e-05
-0.000119803
-7.27597e-05
0.000308792
-0.000103614
0.000202223
-0.000128801
0.000178838
-0.00013481
0.000112726
-0.000137533
8.87957e-05
-0.000135778
5.9623e-05
-0.000133469
4.24285e-05
-0.000131112
2.77595e-05
-0.000129539
1.61955e-05
-0.000129011
6.08029e-06
-0.000129728
-3.46022e-06
-1.34488e-05
-0.00013155
-0.000186902
0.000495694
-0.000194156
0.000209478
-0.000198298
0.00018298
-0.000185195
9.96226e-05
-0.000170802
7.44026e-05
-0.00015977
4.85913e-05
-0.000150431
3.30889e-05
-0.000144129
2.1458e-05
-0.000140479
1.25456e-05
-0.000139387
4.98826e-06
-0.000140771
-2.07589e-06
-9.34661e-06
-0.000144874
-0.000216855
0.000712549
-0.000219061
0.000211684
-0.000218923
0.000182842
-0.000198488
7.91877e-05
-0.00017878
5.4694e-05
-0.000163469
3.32805e-05
-0.000150975
2.05951e-05
-0.000142515
1.29974e-05
-0.00013737
7.40111e-06
-0.000135391
3.00934e-06
-0.000136481
-9.86316e-07
-5.21645e-06
-0.000140611
0.000712549
0.000924233
0.00110708
0.00118626
0.00124096
0.00127424
0.00129483
0.00130783
0.00131523
0.00131824
0.00131725
0.00131204
-2.00305e-05
7.21004e-06
-1.35495e-05
-1.53398e-05
2.66212e-06
-7.35284e-06
-1.23788e-05
-9.82379e-07
-1.97856e-06
-9.74574e-06
-3.86136e-06
1.22825e-06
-7.27359e-06
-6.04638e-06
3.57422e-06
-4.83268e-06
-7.63627e-06
5.19535e-06
-2.39519e-06
-8.67513e-06
6.23764e-06
-9.04061e-06
6.64542e-06
-2.14017e-05
1.20082e-06
-1.6873e-05
-1.86665e-06
-1.3776e-05
-4.07937e-06
-1.09893e-05
-6.64799e-06
-8.32335e-06
-8.71237e-06
-5.60623e-06
-1.03534e-05
-2.81214e-06
-1.14692e-05
-1.18528e-05
-2.31228e-05
-1.96935e-06
-2.00896e-05
-4.89981e-06
-1.68443e-05
-7.32471e-06
-1.36007e-05
-9.89158e-06
-1.02656e-05
-1.20475e-05
-6.86675e-06
-1.37523e-05
-3.42347e-06
-1.49125e-05
-1.52762e-05
-2.51507e-05
-4.97752e-06
-2.21514e-05
-7.89909e-06
-1.88461e-05
-1.063e-05
-1.54143e-05
-1.33233e-05
-1.17839e-05
-1.56779e-05
-7.96493e-06
-1.75712e-05
-3.99025e-06
-1.88872e-05
-1.92665e-05
-2.79367e-05
-7.32516e-06
-2.50638e-05
-1.0772e-05
-2.16481e-05
-1.40457e-05
-1.78396e-05
-1.71318e-05
-1.36966e-05
-1.98209e-05
-9.27673e-06
-2.19911e-05
-4.6561e-06
-2.35078e-05
-2.39226e-05
-3.11981e-05
-9.65919e-06
-2.82245e-05
-1.37457e-05
-2.46169e-05
-1.76533e-05
-2.0458e-05
-2.12907e-05
-1.58076e-05
-2.44714e-05
-1.0755e-05
-2.70437e-05
-5.41412e-06
-2.88487e-05
-2.93367e-05
-3.52404e-05
-1.19844e-05
-3.211e-05
-1.68761e-05
-2.82033e-05
-2.15601e-05
-2.35855e-05
-2.59085e-05
-1.83265e-05
-2.97303e-05
-1.25211e-05
-3.28491e-05
-6.32291e-06
-3.50469e-05
-3.56596e-05
-4.00858e-05
-1.44007e-05
-3.67432e-05
-2.02187e-05
-3.2484e-05
-2.58192e-05
-2.73383e-05
-3.10542e-05
-2.13701e-05
-3.56984e-05
-1.4668e-05
-3.95512e-05
-7.43709e-06
-4.22778e-05
-4.30967e-05
-4.58622e-05
-1.69281e-05
-4.2289e-05
-2.37919e-05
-3.76412e-05
-3.0467e-05
-3.19001e-05
-3.67954e-05
-2.51129e-05
-4.24856e-05
-1.733e-05
-4.73342e-05
-8.83688e-06
-5.07709e-05
-5.19336e-05
-5.26874e-05
-1.95463e-05
-4.89047e-05
-2.75745e-05
-4.38726e-05
-3.54992e-05
-3.74941e-05
-4.31738e-05
-2.97899e-05
-5.01899e-05
-2.06992e-05
-5.64248e-05
-1.06539e-05
-6.08162e-05
-6.25875e-05
-6.06847e-05
-2.21864e-05
-5.67688e-05
-3.14905e-05
-5.1417e-05
-4.0851e-05
-4.43964e-05
-5.01944e-05
-3.56953e-05
-5.8891e-05
-2.50007e-05
-6.71194e-05
-1.30322e-05
-7.27847e-05
-7.56197e-05
-6.99703e-05
-2.4711e-05
-6.60912e-05
-3.53697e-05
-6.06025e-05
-4.63396e-05
-5.30438e-05
-5.77531e-05
-4.34429e-05
-6.84919e-05
-3.07698e-05
-7.97925e-05
-1.65239e-05
-8.70306e-05
-9.21436e-05
-8.06155e-05
-2.6919e-05
-7.70121e-05
-3.8973e-05
-7.15711e-05
-5.17806e-05
-6.34165e-05
-6.59078e-05
-5.28641e-05
-7.90442e-05
-3.7771e-05
-9.48856e-05
-2.0742e-05
-0.00010406
-0.000112886
-9.28085e-05
-2.84009e-05
-9.01429e-05
-4.16386e-05
-8.58327e-05
-5.60908e-05
-7.81906e-05
-7.35499e-05
-6.80675e-05
-8.91673e-05
-5.02379e-05
-0.000112715
-2.98326e-05
-0.000124465
-0.000142718
-0.000105763
-2.90918e-05
-0.000103894
-4.35071e-05
-0.00010042
-5.95649e-05
-9.2694e-05
-8.1276e-05
-8.23103e-05
-9.9551e-05
-6.14419e-05
-0.000133584
-3.77712e-05
-0.000148136
-0.000180489
-0.00012139
-2.75055e-05
-0.000122826
-4.20709e-05
-0.000123906
-5.84852e-05
-0.000121071
-8.41104e-05
-0.000116025
-0.000104597
-9.40101e-05
-0.000155598
-6.77168e-05
-0.000174429
-0.000248206
-0.000134291
-2.47646e-05
-0.000137169
-3.91933e-05
-0.000140019
-5.56349e-05
-0.000138521
-8.56086e-05
-0.000135375
-0.000107743
-0.000111651
-0.000179322
-8.49031e-05
-0.000201177
-0.000333109
-0.000151925
-1.77132e-05
-0.000162457
-2.86615e-05
-0.000175785
-4.23065e-05
-0.000192759
-6.86344e-05
-0.000210676
-8.98263e-05
-0.00020959
-0.000180408
-0.000202106
-0.000208661
-0.000535215
-0.000147861
-1.04631e-05
-0.000158967
-1.75562e-05
-0.000172155
-2.9118e-05
-0.000190051
-5.07382e-05
-0.000206783
-7.30947e-05
-0.000206759
-0.000180433
-0.000198953
-0.000216466
-0.000734168
0.00130157
0.00128402
0.0012549
0.00120416
0.00113107
0.000950635
0.000734168
-3.63089e-07
3.63089e-07
-6.58961e-07
2.95872e-07
-8.40457e-07
1.81496e-07
-8.87884e-07
4.74262e-08
-8.00612e-07
-8.72717e-08
-5.99307e-07
-2.01305e-07
-3.17675e-07
-2.81632e-07
-3.17675e-07
-4.13056e-07
7.76145e-07
-7.44339e-07
6.27155e-07
-9.39998e-07
3.77155e-07
-9.73433e-07
8.08613e-08
-8.70299e-07
-1.90407e-07
-6.50574e-07
-4.2103e-07
-3.45193e-07
-5.87013e-07
-6.62868e-07
-5.92109e-07
1.36825e-06
-1.04249e-06
1.07754e-06
-1.29583e-06
6.30498e-07
-1.35042e-06
1.35445e-07
-1.1974e-06
-3.43424e-07
-8.82887e-07
-7.35542e-07
-4.6335e-07
-1.00655e-06
-1.12622e-06
-7.53086e-07
2.12134e-06
-1.30968e-06
1.63413e-06
-1.59602e-06
9.16836e-07
-1.59513e-06
1.34553e-07
-1.39392e-06
-5.44638e-07
-1.02762e-06
-1.10184e-06
-5.41048e-07
-1.49312e-06
-1.66727e-06
-1.35765e-06
3.47899e-06
-2.23168e-06
2.50816e-06
-2.60103e-06
1.28618e-06
-2.58598e-06
1.19504e-07
-2.20542e-06
-9.25191e-07
-1.58226e-06
-1.72501e-06
-8.17514e-07
-2.25786e-06
-2.48478e-06
-1.72136e-06
5.20036e-06
-2.80587e-06
3.59267e-06
-3.21037e-06
1.69068e-06
-3.06437e-06
-2.6492e-08
-2.59287e-06
-1.39669e-06
-1.87099e-06
-2.44689e-06
-9.7236e-07
-3.15649e-06
-3.45714e-06
-3.7775e-06
8.97786e-06
-5.52339e-06
5.33855e-06
-5.68537e-06
1.85266e-06
-5.18753e-06
-5.24337e-07
-4.17201e-06
-2.41221e-06
-2.8847e-06
-3.73421e-06
-1.45974e-06
-4.58145e-06
-4.91688e-06
-4.57163e-06
-6.58592e-06
-6.71181e-06
-6.00789e-06
-4.84588e-06
-3.38473e-06
-1.72854e-06
)
;

boundaryField
{
    movingWall
    {
        type            calculated;
        value           uniform 0;
    }
    fixedWalls
    {
        type            calculated;
        value           uniform 0;
    }
    frontAndBack
    {
        type            empty;
        value           nonuniform List<scalar> 0();
    }
}


// ************************************************************************* //
