/*--------------------------------*- C++ -*----------------------------------*\
  =========                 |
  \\      /  F ield         | OpenFOAM: The Open Source CFD Toolbox
   \\    /   O peration     | Website:  https://openfoam.org
    \\  /    A nd           | Version:  8
     \\/     M anipulation  |
\*---------------------------------------------------------------------------*/
FoamFile
{
    version     2.0;
    format      ascii;
    class       volScalarField;
    location    "31";
    object      p;
}
// * * * * * * * * * * * * * * * * * * * * * * * * * * * * * * * * * * * * * //

dimensions      [0 2 -2 0 0 0 0];

internalField   nonuniform List<scalar> 
116
(
-9.94356e-08
-0.00070937
-0.00133182
-0.002879
0.00038754
-0.0078385
0.000407876
4.4795e-05
-0.000251644
-0.00313824
-0.00145583
-0.00267442
0.000851815
0.000427736
3.07593e-05
-0.00236642
-0.00470625
-0.0070013
0.00102469
0.000721452
-0.000195178
-0.00278835
-0.00635809
-0.00814907
0.000729745
0.000506826
-0.000825392
-0.00395531
-0.00871339
-0.0107605
-6.79313e-05
-0.000162
-0.00147182
-0.00403364
-0.00891497
-0.0111899
-0.000152536
-0.000501656
-0.00139765
-0.00347915
-0.00748549
-0.0106376
-0.00120246
-0.000677799
-0.000730493
-0.00130386
-0.00346026
-0.0052499
8.93083e-05
-0.00123906
-6.29641e-05
-0.00058764
-0.0018467
-0.0038551
-0.00621554
0.00121755
0.00189396
0.00148004
9.19019e-05
-0.00128028
0.000602077
0.00871992
0.00733
0.011486
-0.00127726
0.00201911
0.00374462
0.00654549
-0.00642765
-0.00425975
-0.0020232
0.000696478
-0.008411
-0.00681909
-0.00604208
-0.00328173
-0.0109175
-0.00895062
-0.0086723
-0.00567492
-0.0116819
-0.00869726
-0.00902747
-0.00556761
-0.0113415
-0.00809976
-0.00968984
-0.00250049
-0.00511461
-0.00272894
-0.00288401
0.0065883
-0.00563315
-0.00395262
-0.00341065
0.0123408
-0.00170364
0.00439637
0.015662
0.0509385
0.0151481
0.0146729
0.0144212
0.0177359
0.0134575
0.0135767
0.0118653
0.0141967
0.00995653
0.0105795
0.00901271
0.0100997
0.00636096
0.0131315
0.00810518
0.0114177
)
;

boundaryField
{
    movingWall
    {
        type            zeroGradient;
    }
    fixedWalls
    {
        type            zeroGradient;
    }
    frontAndBack
    {
        type            empty;
    }
}


// ************************************************************************* //
