/*--------------------------------*- C++ -*----------------------------------*\
  =========                 |
  \\      /  F ield         | OpenFOAM: The Open Source CFD Toolbox
   \\    /   O peration     | Website:  https://openfoam.org
    \\  /    A nd           | Version:  8
     \\/     M anipulation  |
\*---------------------------------------------------------------------------*/
FoamFile
{
    version     2.0;
    format      ascii;
    class       volVectorField;
    location    "0.085";
    object      U;
}
// * * * * * * * * * * * * * * * * * * * * * * * * * * * * * * * * * * * * * //

dimensions      [0 1 -1 0 0 0 0];

internalField   nonuniform List<vector> 
400
(
(0.000242102 -0.000244532 0)
(0.000134143 0.000106945 0)
(-0.00114739 0.000549502 0)
(-0.00338199 0.000860103 0)
(-0.00619049 0.00101524 0)
(-0.00918587 0.00102992 0)
(-0.0120259 0.000928599 0)
(-0.0144279 0.000737032 0)
(-0.0161744 0.000479534 0)
(-0.0171133 0.000179374 0)
(-0.0171588 -0.000139831 0)
(-0.016295 -0.000452682 0)
(-0.0145821 -0.000731046 0)
(-0.0121613 -0.000943955 0)
(-0.00925957 -0.00105872 0)
(-0.00618615 -0.00104385 0)
(-0.00331811 -0.00087497 0)
(-0.00106653 -0.000544312 0)
(0.000185493 -9.11179e-05 0)
(0.000259238 0.000253815 0)
(-8.00871e-05 -0.000160028 0)
(-0.00156998 0.00159599 0)
(-0.00552599 0.00351049 0)
(-0.0113642 0.00488151 0)
(-0.0183099 0.00556374 0)
(-0.0255755 0.00557641 0)
(-0.0324119 0.00500431 0)
(-0.0381726 0.0039595 0)
(-0.0423479 0.00256286 0)
(-0.0445791 0.000939461 0)
(-0.0446669 -0.000779918 0)
(-0.0425819 -0.00245576 0)
(-0.0384743 -0.00393851 0)
(-0.0326823 -0.00507135 0)
(-0.0257314 -0.00569922 0)
(-0.0183163 -0.00568685 0)
(-0.0112498 -0.00494896 0)
(-0.00537049 -0.00349465 0)
(-0.00145895 -0.00152409 0)
(-4.37798e-05 0.000216335 0)
(-0.000514318 0.00106309 0)
(-0.00360117 0.00556476 0)
(-0.0102695 0.00991247 0)
(-0.0193814 0.0129893 0)
(-0.0298156 0.01447 0)
(-0.0405196 0.0143578 0)
(-0.050484 0.0128212 0)
(-0.058828 0.010113 0)
(-0.064853 0.00652504 0)
(-0.0680659 0.00237076 0)
(-0.0681934 -0.00201771 0)
(-0.0651962 -0.00628745 0)
(-0.0592818 -0.0100657 0)
(-0.0509126 -0.0129702 0)
(-0.0408032 -0.0146348 0)
(-0.0298941 -0.0147546 0)
(-0.0192787 -0.0131571 0)
(-0.0100851 -0.00989667 0)
(-0.00345704 -0.00540835 0)
(-0.000466043 -0.000930581 0)
(-0.000901363 0.00338046 0)
(-0.00552469 0.0118544 0)
(-0.0148547 0.019315 0)
(-0.0270978 0.0244159 0)
(-0.0407457 0.0267246 0)
(-0.0545087 0.0262663 0)
(-0.0671805 0.0233275 0)
(-0.0777193 0.0183398 0)
(-0.0853042 0.0118097 0)
(-0.0893563 0.0042864 0)
(-0.0895531 -0.00364607 0)
(-0.085842 -0.0113683 0)
(-0.0784561 -0.0182292 0)
(-0.0679264 -0.0235651 0)
(-0.0550844 -0.0267433 0)
(-0.0410414 -0.0272395 0)
(-0.0271128 -0.0247508 0)
(-0.0146995 -0.019338 0)
(-0.00536406 -0.0116133 0)
(-0.000840503 -0.00314703 0)
(-0.00124395 0.00667926 0)
(-0.00733208 0.0203395 0)
(-0.0192745 0.0315456 0)
(-0.0345829 0.0388928 0)
(-0.0513239 0.0419606 0)
(-0.0679666 0.0408773 0)
(-0.0831351 0.0361046 0)
(-0.0956702 0.0282954 0)
(-0.104673 0.0182029 0)
(-0.109514 0.00663891 0)
(-0.109835 -0.00553673 0)
(-0.105563 -0.0174138 0)
(-0.0969291 -0.028034 0)
(-0.0844859 -0.0364149 0)
(-0.0691299 -0.0416098 0)
(-0.0520988 -0.0428138 0)
(-0.0349111 -0.0395199 0)
(-0.0192617 -0.0317066 0)
(-0.00719557 -0.0200557 0)
(-0.00117568 -0.0063375 0)
(-0.0015692 0.0109038 0)
(-0.00910022 0.0309846 0)
(-0.0236507 0.0465974 0)
(-0.0420104 0.0564033 0)
(-0.0617893 0.0601246 0)
(-0.0812086 0.0581007 0)
(-0.098742 0.051048 0)
(-0.113147 0.0398929 0)
(-0.123486 0.0256667 0)
(-0.129105 0.00945828 0)
(-0.129626 -0.00759063 0)
(-0.124946 -0.0242739 0)
(-0.115262 -0.0393134 0)
(-0.101106 -0.0513795 0)
(-0.0833898 -0.0591584 0)
(-0.0634372 -0.061484 0)
(-0.042958 -0.0575381 0)
(-0.0239686 -0.0470919 0)
(-0.00906324 -0.0307734 0)
(-0.00150644 -0.0104715 0)
(-0.00190323 0.0160508 0)
(-0.0109141 0.043809 0)
(-0.0281227 0.0644943 0)
(-0.0495468 0.0769425 0)
(-0.0723098 0.0811645 0)
(-0.0943867 0.0778438 0)
(-0.114129 0.0680505 0)
(-0.130254 0.0530468 0)
(-0.14183 0.0341697 0)
(-0.148215 0.0127881 0)
(-0.149024 -0.0096875 0)
(-0.144117 -0.0317712 0)
(-0.133628 -0.0518713 0)
(-0.118013 -0.0682926 0)
(-0.098136 -0.0792993 0)
(-0.0753538 -0.0832646 0)
(-0.0515386 -0.0789168 0)
(-0.0290456 -0.0656541 0)
(-0.0110945 -0.0438998 0)
(-0.00186875 -0.0155943 0)
(-0.00226929 0.022166 0)
(-0.0128525 0.0588905 0)
(-0.0328118 0.0852833 0)
(-0.0573036 0.100483 0)
(-0.0829301 0.104969 0)
(-0.107439 0.0999326 0)
(-0.129112 0.0869204 0)
(-0.146692 0.0675994 0)
(-0.159316 0.0436346 0)
(-0.166403 0.0166608 0)
(-0.167589 -0.0116788 0)
(-0.162692 -0.0396615 0)
(-0.151746 -0.0654136 0)
(-0.135065 -0.0868756 0)
(-0.113382 -0.10184 0)
(-0.0879944 -0.108104 0)
(-0.0608729 -0.103761 0)
(-0.0347027 -0.0876136 0)
(-0.0134156 -0.0596702 0)
(-0.00229784 -0.0218256 0)
(-0.00269099 0.0293395 0)
(-0.0149911 0.0763584 0)
(-0.0378156 0.109013 0)
(-0.0653158 0.126929 0)
(-0.0935353 0.131297 0)
(-0.120044 0.124032 0)
(-0.14314 0.1073 0)
(-0.161696 0.0832487 0)
(-0.17501 0.0538826 0)
(-0.182633 0.0210666 0)
(-0.184262 -0.0133896 0)
(-0.179679 -0.0476042 0)
(-0.168777 -0.0794897 0)
(-0.151654 -0.106655 0)
(-0.128786 -0.12639 0)
(-0.101276 -0.135795 0)
(-0.0710666 -0.132105 0)
(-0.0411142 -0.113218 0)
(-0.0161514 -0.0784135 0)
(-0.00283141 -0.0293566 0)
(-0.0032002 0.0377078 0)
(-0.0174212 0.0963838 0)
(-0.0432209 0.135693 0)
(-0.0735336 0.156041 0)
(-0.103815 0.159681 0)
(-0.131554 0.149532 0)
(-0.155215 0.128556 0)
(-0.173948 0.099455 0)
(-0.187337 0.0645641 0)
(-0.195167 0.0259123 0)
(-0.197251 -0.0146276 0)
(-0.193352 -0.0551349 0)
(-0.183193 -0.0934249 0)
(-0.166558 -0.126858 0)
(-0.143523 -0.152232 0)
(-0.11479 -0.165841 0)
(-0.0820574 -0.163795 0)
(-0.0484092 -0.142671 0)
(-0.019438 -0.100531 0)
(-0.00351739 -0.0384539 0)
(-0.0038515 0.0474739 0)
(-0.020282 0.119176 0)
(-0.0491267 0.165232 0)
(-0.0818089 0.187322 0)
(-0.113205 0.189283 0)
(-0.140913 0.175408 0)
(-0.163786 0.149657 0)
(-0.181457 0.115339 0)
(-0.193966 0.0750805 0)
(-0.201444 0.0309689 0)
(-0.203896 -0.0152052 0)
(-0.201103 -0.0616517 0)
(-0.192596 -0.106263 0)
(-0.177766 -0.146305 0)
(-0.156107 -0.178164 0)
(-0.127655 -0.197268 0)
(-0.0935342 -0.198321 0)
(-0.0566565 -0.176024 0)
(-0.0234441 -0.126467 0)
(-0.00442793 -0.0494769 0)
(-0.0047479 0.0589573 0)
(-0.0238109 0.14499 0)
(-0.055662 0.197347 0)
(-0.0898422 0.219858 0)
(-0.12077 0.218716 0)
(-0.146487 0.200059 0)
(-0.166573 0.169036 0)
(-0.181408 0.12958 0)
(-0.191668 0.0845107 0)
(-0.197953 0.0358181 0)
(-0.200547 -0.0149759 0)
(-0.19929 -0.0664249 0)
(-0.193542 -0.116734 0)
(-0.182241 -0.163312 0)
(-0.164142 -0.20233 0)
(-0.138299 -0.228397 0)
(-0.104788 -0.234569 0)
(-0.0658216 -0.212997 0)
(-0.0284027 -0.156664 0)
(-0.00568408 -0.0629206 0)
(-0.00608693 0.0726964 0)
(-0.0284112 0.174119 0)
(-0.0629598 0.231399 0)
(-0.0970219 0.252069 0)
(-0.124941 0.245802 0)
(-0.145781 0.221114 0)
(-0.160313 0.184477 0)
(-0.169951 0.140351 0)
(-0.176175 0.0915666 0)
(-0.180141 0.0398106 0)
(-0.182471 -0.0138816 0)
(-0.183128 -0.0686439 0)
(-0.181357 -0.123271 0)
(-0.175669 -0.175642 0)
(-0.163992 -0.222056 0)
(-0.144101 -0.256554 0)
(-0.114432 -0.270469 0)
(-0.0756477 -0.252684 0)
(-0.0346436 -0.191474 0)
(-0.00749848 -0.0795008 0)
(-0.00823571 0.0896283 0)
(-0.0347149 0.206834 0)
(-0.0709829 0.266052 0)
(-0.102002 0.281304 0)
(-0.122978 0.267254 0)
(-0.134922 0.235269 0)
(-0.140344 0.19306 0)
(-0.141941 0.145333 0)
(-0.142052 0.0946278 0)
(-0.142377 0.0420713 0)
(-0.143872 -0.0120003 0)
(-0.146679 -0.0675144 0)
(-0.150042 -0.124127 0)
(-0.1522 -0.180569 0)
(-0.150343 -0.23378 0)
(-0.140832 -0.277784 0)
(-0.119864 -0.302499 0)
(-0.0853444 -0.293039 0)
(-0.0425867 -0.230929 0)
(-0.0102383 -0.100293 0)
(-0.0118128 0.111348 0)
(-0.043507 0.243076 0)
(-0.0789145 0.298606 0)
(-0.101701 0.303244 0)
(-0.109914 0.278367 0)
(-0.107779 0.238248 0)
(-0.100023 0.191314 0)
(-0.0906371 0.14194 0)
(-0.082637 0.0919357 0)
(-0.0780659 0.0416024 0)
(-0.0780881 -0.00957331 0)
(-0.0830373 -0.0624257 0)
(-0.0923355 -0.117646 0)
(-0.104272 -0.175172 0)
(-0.115695 -0.233211 0)
(-0.121798 -0.286701 0)
(-0.116246 -0.325115 0)
(-0.092798 -0.330036 0)
(-0.0525109 -0.274195 0)
(-0.0144617 -0.126893 0)
(-0.0175884 0.140501 0)
(-0.0549901 0.281563 0)
(-0.0833664 0.323709 0)
(-0.0891139 0.311112 0)
(-0.0766463 0.272874 0)
(-0.0546457 0.225131 0)
(-0.0300012 0.175762 0)
(-0.00747523 0.127877 0)
(0.00982502 0.0820435 0)
(0.0199856 0.0375451 0)
(0.0219145 -0.0069775 0)
(0.0151486 -0.0531811 0)
(-0.000107083 -0.10275 0)
(-0.0226852 -0.156985 0)
(-0.0498806 -0.21595 0)
(-0.0766331 -0.276725 0)
(-0.094646 -0.330224 0)
(-0.0926672 -0.356352 0)
(-0.0635066 -0.318377 0)
(-0.0206713 -0.161631 0)
(-0.0254751 0.181658 0)
(-0.0659437 0.317453 0)
(-0.0737983 0.330739 0)
(-0.0489442 0.294508 0)
(-0.00691615 0.243141 0)
(0.03938 0.191252 0)
(0.0823289 0.143988 0)
(0.117787 0.102094 0)
(0.143628 0.0645295 0)
(0.158778 0.0296068 0)
(0.162624 -0.00461345 0)
(0.154724 -0.0402422 0)
(0.134768 -0.0795752 0)
(0.102848 -0.125026 0)
(0.0601339 -0.178693 0)
(0.0101953 -0.240936 0)
(-0.0389145 -0.306839 0)
(-0.0722816 -0.359261 0)
(-0.0702846 -0.356002 0)
(-0.0279515 -0.208154 0)
(-0.029656 0.239188 0)
(-0.0609318 0.335644 0)
(-0.0222402 0.300192 0)
(0.0499315 0.239642 0)
(0.12657 0.182346 0)
(0.19557 0.134743 0)
(0.252468 0.0967894 0)
(0.295999 0.0663469 0)
(0.326277 0.0410081 0)
(0.343739 0.018619 0)
(0.348599 -0.00275727 0)
(0.34061 -0.0250432 0)
(0.318984 -0.0504084 0)
(0.28247 -0.0815507 0)
(0.229787 -0.121877 0)
(0.160828 -0.175078 0)
(0.0789859 -0.24287 0)
(-0.00369971 -0.318664 0)
(-0.0548631 -0.368295 0)
(-0.028492 -0.267513 0)
(0.00809286 0.281893 0)
(0.0197706 0.294957 0)
(0.138944 0.210874 0)
(0.264139 0.143297 0)
(0.363773 0.0969514 0)
(0.439454 0.0655225 0)
(0.495515 0.0439972 0)
(0.535364 0.0286899 0)
(0.56172 0.0170678 0)
(0.576449 0.00742984 0)
(0.580491 -0.00147116 0)
(0.57387 -0.0107509 0)
(0.555634 -0.0216941 0)
(0.523681 -0.0361404 0)
(0.474592 -0.0570422 0)
(0.403647 -0.0891631 0)
(0.304582 -0.139536 0)
(0.173092 -0.216218 0)
(0.0410564 -0.31155 0)
(0.0184146 -0.299974 0)
(0.299619 0.146106 0)
(0.396301 0.127512 0)
(0.557424 0.0760802 0)
(0.674419 0.0436954 0)
(0.743707 0.0255317 0)
(0.786838 0.0151973 0)
(0.815035 0.00917062 0)
(0.833387 0.00547676 0)
(0.84473 0.00300733 0)
(0.850669 0.00114386 0)
(0.851958 -0.000490875 0)
(0.848707 -0.00219445 0)
(0.840392 -0.00430871 0)
(0.825626 -0.00738841 0)
(0.801672 -0.0124943 0)
(0.763329 -0.0217357 0)
(0.698926 -0.0392496 0)
(0.583867 -0.0726342 0)
(0.415811 -0.127856 0)
(0.308824 -0.149472 0)
)
;

boundaryField
{
    movingWall
    {
        type            fixedValue;
        value           uniform (1 0 0);
    }
    fixedWalls
    {
        type            noSlip;
    }
    frontAndBack
    {
        type            empty;
    }
}


// ************************************************************************* //
