/*--------------------------------*- C++ -*----------------------------------*\
  =========                 |
  \\      /  F ield         | OpenFOAM: The Open Source CFD Toolbox
   \\    /   O peration     | Website:  https://openfoam.org
    \\  /    A nd           | Version:  8
     \\/     M anipulation  |
\*---------------------------------------------------------------------------*/
FoamFile
{
    version     2.0;
    format      ascii;
    class       volVectorField;
    location    "46.5";
    object      U;
}
// * * * * * * * * * * * * * * * * * * * * * * * * * * * * * * * * * * * * * //

dimensions      [0 1 -1 0 0 0 0];

internalField   nonuniform List<vector> 
11600
(
(-1.72124e-06 1.54699e-06 0)
(-4.30836e-05 1.54648e-05 0)
(-0.00012035 2.12704e-05 0)
(-0.000201009 2.31723e-05 0)
(-0.000287282 2.33804e-05 0)
(-0.000373741 2.3179e-05 0)
(-0.000460168 2.30211e-05 0)
(-0.000546581 2.29597e-05 0)
(-0.000633042 2.29659e-05 0)
(-0.000719618 2.30113e-05 0)
(-0.000806362 2.3079e-05 0)
(-0.000893308 2.31604e-05 0)
(-0.000980479 2.32515e-05 0)
(-0.00106789 2.33504e-05 0)
(-0.00115557 2.34558e-05 0)
(-0.00124352 2.35667e-05 0)
(-0.00133176 2.36823e-05 0)
(-0.00142029 2.38019e-05 0)
(-0.00150912 2.39246e-05 0)
(-0.00159826 2.40496e-05 0)
(-0.0016877 2.41758e-05 0)
(-0.00177744 2.43023e-05 0)
(-0.00186749 2.4428e-05 0)
(-0.00195782 2.45519e-05 0)
(-0.00204843 2.46726e-05 0)
(-0.0021393 2.4789e-05 0)
(-0.00223042 2.48995e-05 0)
(-0.00232176 2.50029e-05 0)
(-0.0024133 2.50975e-05 0)
(-0.002505 2.51817e-05 0)
(-0.00259683 2.52539e-05 0)
(-0.00268875 2.53121e-05 0)
(-0.00278072 2.53546e-05 0)
(-0.00287268 2.53794e-05 0)
(-0.00296459 2.53844e-05 0)
(-0.0030564 2.53675e-05 0)
(-0.00314803 2.53264e-05 0)
(-0.00323943 2.52586e-05 0)
(-0.00333053 2.51616e-05 0)
(-0.00342126 2.50327e-05 0)
(-0.00351155 2.48685e-05 0)
(-0.00360134 2.46653e-05 0)
(-0.00369055 2.44184e-05 0)
(-0.00377912 2.41215e-05 0)
(-0.00386699 2.37654e-05 0)
(-0.0039541 2.33357e-05 0)
(-0.00404039 2.28076e-05 0)
(-0.00412579 2.21367e-05 0)
(-0.00421021 2.12373e-05 0)
(-0.00429347 1.99373e-05 0)
(-0.00437521 1.78841e-05 0)
(-0.00445463 1.43721e-05 0)
(-0.00453004 8.06419e-06 0)
(-0.00459837 -3.51768e-06 0)
(-0.00465929 -2.42678e-05 0)
(-0.00471763 -5.18896e-05 0)
(-0.00470566 -5.7383e-05 0)
(-0.00505306 -1.27957e-05 0)
(-0.00498598 0.000720267 0)
(-0.0078223 0.00259414 0)
(-1.62838e-05 4.33132e-05 0)
(-0.000109749 0.000107843 0)
(-0.000262577 0.000136733 0)
(-0.000423028 0.00014823 0)
(-0.000593995 0.000151767 0)
(-0.000766748 0.000152559 0)
(-0.000940164 0.000152701 0)
(-0.00111392 0.000152798 0)
(-0.0012879 0.000152974 0)
(-0.00146209 0.000153227 0)
(-0.00163654 0.000153537 0)
(-0.00181127 0.000153892 0)
(-0.0019863 0.00015428 0)
(-0.00216165 0.000154697 0)
(-0.00233735 0.000155137 0)
(-0.0025134 0.000155596 0)
(-0.00268982 0.000156071 0)
(-0.0028666 0.000156556 0)
(-0.00304376 0.000157048 0)
(-0.00322129 0.000157543 0)
(-0.00339917 0.000158036 0)
(-0.00357741 0.000158521 0)
(-0.00375598 0.000158995 0)
(-0.00393486 0.00015945 0)
(-0.00411401 0.000159881 0)
(-0.00429342 0.000160283 0)
(-0.00447304 0.000160649 0)
(-0.00465282 0.000160972 0)
(-0.00483271 0.000161246 0)
(-0.00501265 0.000161463 0)
(-0.00519259 0.000161616 0)
(-0.00537244 0.000161699 0)
(-0.00555214 0.000161705 0)
(-0.00573161 0.000161626 0)
(-0.00591075 0.000161457 0)
(-0.00608948 0.000161192 0)
(-0.00626771 0.000160826 0)
(-0.00644535 0.000160354 0)
(-0.00662231 0.000159776 0)
(-0.00679852 0.000159091 0)
(-0.00697388 0.000158301 0)
(-0.00714836 0.000157412 0)
(-0.00732192 0.000156432 0)
(-0.00749455 0.000155374 0)
(-0.00766631 0.000154256 0)
(-0.00783728 0.000153099 0)
(-0.00800768 0.000151925 0)
(-0.00817778 0.000150749 0)
(-0.00834807 0.000149562 0)
(-0.00851926 0.000148289 0)
(-0.00869242 0.000146725 0)
(-0.00886926 0.000144461 0)
(-0.00905286 0.000140956 0)
(-0.00924974 0.000136155 0)
(-0.00947306 0.000133683 0)
(-0.00974254 0.000155605 0)
(-0.0100959 0.00026746 0)
(-0.0107575 0.000552717 0)
(-0.0113325 0.00165811 0)
(-0.0129321 0.00320388 0)
(-2.2917e-05 0.000122952 0)
(-0.000141754 0.000261873 0)
(-0.000331559 0.000325084 0)
(-0.00052988 0.000351183 0)
(-0.000740403 0.000360381 0)
(-0.000953133 0.00036322 0)
(-0.00116671 0.000364101 0)
(-0.00138071 0.00036454 0)
(-0.00159494 0.000364967 0)
(-0.00180939 0.000365471 0)
(-0.00202404 0.000366054 0)
(-0.00223894 0.000366705 0)
(-0.00245407 0.000367409 0)
(-0.00266947 0.000368159 0)
(-0.00288513 0.000368943 0)
(-0.00310106 0.000369755 0)
(-0.00331726 0.000370586 0)
(-0.00353373 0.000371426 0)
(-0.00375045 0.000372268 0)
(-0.00396742 0.000373101 0)
(-0.00418462 0.000373917 0)
(-0.00440201 0.000374703 0)
(-0.00461958 0.00037545 0)
(-0.00483729 0.000376146 0)
(-0.00505509 0.000376778 0)
(-0.00527295 0.000377334 0)
(-0.0054908 0.0003778 0)
(-0.00570859 0.000378164 0)
(-0.00592625 0.000378412 0)
(-0.00614371 0.00037853 0)
(-0.00636089 0.000378504 0)
(-0.0065777 0.000378322 0)
(-0.00679405 0.00037797 0)
(-0.00700986 0.000377438 0)
(-0.00722501 0.000376717 0)
(-0.00743941 0.000375798 0)
(-0.00765296 0.000374678 0)
(-0.00786556 0.000373357 0)
(-0.00807713 0.000371841 0)
(-0.00828758 0.000370143 0)
(-0.00849685 0.000368285 0)
(-0.00870492 0.000366303 0)
(-0.00891178 0.000364246 0)
(-0.00911749 0.000362185 0)
(-0.00932218 0.000360216 0)
(-0.00952607 0.00035847 0)
(-0.00972953 0.000357121 0)
(-0.00993311 0.000356401 0)
(-0.0101376 0.000356624 0)
(-0.0103443 0.000358228 0)
(-0.0105551 0.00036189 0)
(-0.0107727 0.000368838 0)
(-0.0110019 0.000381702 0)
(-0.0112511 0.000406875 0)
(-0.0115336 0.000460566 0)
(-0.0118669 0.000580604 0)
(-0.0122816 0.000840179 0)
(-0.0128368 0.00136827 0)
(-0.0132504 0.00248736 0)
(-0.0139267 0.00396557 0)
(-2.54259e-05 0.000207877 0)
(-0.000155638 0.000426137 0)
(-0.000362213 0.000524774 0)
(-0.000576899 0.000565171 0)
(-0.000804304 0.000579691 0)
(-0.00103389 0.000584392 0)
(-0.00126433 0.000585935 0)
(-0.00149522 0.000586672 0)
(-0.00172636 0.000587301 0)
(-0.00195768 0.000587991 0)
(-0.00218919 0.000588764 0)
(-0.00242089 0.000589611 0)
(-0.00265278 0.00059052 0)
(-0.00288486 0.000591476 0)
(-0.00311713 0.000592469 0)
(-0.0033496 0.000593485 0)
(-0.00358224 0.000594513 0)
(-0.00381506 0.00059554 0)
(-0.00404803 0.000596552 0)
(-0.00428113 0.000597535 0)
(-0.00451435 0.000598475 0)
(-0.00474764 0.000599354 0)
(-0.00498098 0.000600158 0)
(-0.00521432 0.000600867 0)
(-0.00544761 0.000601464 0)
(-0.0056808 0.000601931 0)
(-0.00591383 0.000602247 0)
(-0.00614662 0.000602392 0)
(-0.00637911 0.000602348 0)
(-0.00661121 0.000602093 0)
(-0.00684284 0.000601608 0)
(-0.00707391 0.000600875 0)
(-0.00730431 0.000599876 0)
(-0.00753394 0.000598598 0)
(-0.00776271 0.000597028 0)
(-0.00799049 0.000595159 0)
(-0.00821719 0.00059299 0)
(-0.0084427 0.000590526 0)
(-0.00866694 0.000587786 0)
(-0.00888981 0.000584798 0)
(-0.00911126 0.00058161 0)
(-0.00933126 0.000578293 0)
(-0.00954983 0.000574946 0)
(-0.00976703 0.000571708 0)
(-0.00998302 0.000568772 0)
(-0.0101981 0.000566397 0)
(-0.0104126 0.000564942 0)
(-0.0106272 0.000564896 0)
(-0.0108429 0.000566948 0)
(-0.0110611 0.000572091 0)
(-0.0112839 0.000581851 0)
(-0.0115146 0.000598747 0)
(-0.011758 0.000627325 0)
(-0.0120208 0.000676477 0)
(-0.0123115 0.000764134 0)
(-0.0126375 0.000923962 0)
(-0.0130017 0.00121134 0)
(-0.0133743 0.00171439 0)
(-0.013591 0.00256676 0)
(-0.013676 0.00357231 0)
(-2.59395e-05 0.000299469 0)
(-0.000160468 0.00060236 0)
(-0.000373956 0.000738133 0)
(-0.000595147 0.000793308 0)
(-0.000829234 0.000813304 0)
(-0.00106536 0.00081994 0)
(-0.00130228 0.000822196 0)
(-0.00153963 0.000823258 0)
(-0.00177721 0.000824101 0)
(-0.00201497 0.000824972 0)
(-0.0022529 0.000825919 0)
(-0.00249099 0.000826938 0)
(-0.00272925 0.000828019 0)
(-0.00296767 0.000829146 0)
(-0.00320625 0.000830305 0)
(-0.00344498 0.00083148 0)
(-0.00368385 0.000832654 0)
(-0.00392285 0.000833812 0)
(-0.00416196 0.000834936 0)
(-0.00440115 0.000836005 0)
(-0.00464039 0.000837 0)
(-0.00487966 0.000837899 0)
(-0.00511891 0.000838681 0)
(-0.0053581 0.000839322 0)
(-0.00559718 0.000839797 0)
(-0.00583608 0.00084008 0)
(-0.00607475 0.000840146 0)
(-0.00631312 0.000839969 0)
(-0.0065511 0.000839521 0)
(-0.00678861 0.000838777 0)
(-0.00702556 0.00083771 0)
(-0.00726185 0.000836296 0)
(-0.00749739 0.000834514 0)
(-0.00773205 0.000832345 0)
(-0.00796574 0.000829775 0)
(-0.00819834 0.000826797 0)
(-0.00842973 0.000823411 0)
(-0.0086598 0.000819631 0)
(-0.00888845 0.000815483 0)
(-0.00911558 0.000811015 0)
(-0.00934112 0.000806298 0)
(-0.00956503 0.000801439 0)
(-0.00978727 0.000796587 0)
(-0.0100079 0.000791952 0)
(-0.010227 0.00078782 0)
(-0.0104448 0.000784587 0)
(-0.0106617 0.000782797 0)
(-0.010878 0.000783208 0)
(-0.0110947 0.00078689 0)
(-0.0113127 0.000795397 0)
(-0.0115337 0.000811055 0)
(-0.0117596 0.000837494 0)
(-0.0119933 0.00088061 0)
(-0.0122376 0.00095031 0)
(-0.0124945 0.0010632 0)
(-0.0127615 0.00124541 0)
(-0.0130257 0.00153412 0)
(-0.0132409 0.00197675 0)
(-0.0133099 0.00260341 0)
(-0.0131844 0.0033079 0)
(-2.58261e-05 0.000391722 0)
(-0.000161688 0.000781113 0)
(-0.0003777 0.000954516 0)
(-0.000601212 0.00102446 0)
(-0.000837711 0.00104979 0)
(-0.00107612 0.00105825 0)
(-0.00131528 0.00106115 0)
(-0.00155484 0.00106251 0)
(-0.00179462 0.00106355 0)
(-0.00203458 0.00106459 0)
(-0.0022747 0.0010657 0)
(-0.00251498 0.00106688 0)
(-0.00275543 0.00106812 0)
(-0.00299603 0.0010694 0)
(-0.00323679 0.00107071 0)
(-0.00347769 0.00107202 0)
(-0.00371873 0.00107332 0)
(-0.00395988 0.00107458 0)
(-0.00420114 0.00107579 0)
(-0.00444247 0.00107692 0)
(-0.00468385 0.00107795 0)
(-0.00492525 0.00107884 0)
(-0.00516662 0.00107957 0)
(-0.00540792 0.00108011 0)
(-0.0056491 0.00108043 0)
(-0.00589009 0.00108049 0)
(-0.00613084 0.00108027 0)
(-0.00637127 0.00107973 0)
(-0.0066113 0.00107884 0)
(-0.00685084 0.00107757 0)
(-0.00708981 0.00107587 0)
(-0.0073281 0.00107373 0)
(-0.00756561 0.00107111 0)
(-0.00780221 0.00106799 0)
(-0.0080378 0.00106435 0)
(-0.00827226 0.00106019 0)
(-0.00850544 0.0010555 0)
(-0.00873725 0.00105031 0)
(-0.00896754 0.00104463 0)
(-0.0091962 0.00103855 0)
(-0.00942313 0.00103213 0)
(-0.00964825 0.00102552 0)
(-0.00987148 0.00101891 0)
(-0.0100928 0.00101255 0)
(-0.0103122 0.0010068 0)
(-0.0105298 0.00100215 0)
(-0.0107457 0.000999272 0)
(-0.0109602 0.000999075 0)
(-0.0111737 0.00100284 0)
(-0.0113868 0.00101236 0)
(-0.0116 0.00103021 0)
(-0.0118141 0.00106016 0)
(-0.0120298 0.0011078 0)
(-0.0122466 0.00118154 0)
(-0.0124618 0.00129381 0)
(-0.0126675 0.00146166 0)
(-0.0128447 0.00170619 0)
(-0.0129537 0.00204757 0)
(-0.0129363 0.00248182 0)
(-0.0127416 0.00294999 0)
(-2.56339e-05 0.000483991 0)
(-0.000161737 0.000960647 0)
(-0.000378472 0.0011719 0)
(-0.000602671 0.00125664 0)
(-0.000839925 0.00128726 0)
(-0.00107903 0.00129749 0)
(-0.00131885 0.001301 0)
(-0.00155906 0.00130263 0)
(-0.00179947 0.00130387 0)
(-0.00204007 0.00130508 0)
(-0.00228083 0.00130635 0)
(-0.00252177 0.0013077 0)
(-0.00276287 0.0013091 0)
(-0.00300415 0.00131054 0)
(-0.00324559 0.001312 0)
(-0.00348719 0.00131346 0)
(-0.00372894 0.00131489 0)
(-0.00397082 0.00131627 0)
(-0.00421281 0.00131757 0)
(-0.0044549 0.00131877 0)
(-0.00469705 0.00131983 0)
(-0.00493923 0.00132072 0)
(-0.00518141 0.0013214 0)
(-0.00542354 0.00132185 0)
(-0.00566556 0.00132203 0)
(-0.00590743 0.00132188 0)
(-0.00614906 0.00132139 0)
(-0.0063904 0.0013205 0)
(-0.00663137 0.00131917 0)
(-0.00687187 0.00131737 0)
(-0.00711181 0.00131505 0)
(-0.00735108 0.00131218 0)
(-0.00758958 0.00130871 0)
(-0.00782719 0.00130464 0)
(-0.00806378 0.00129991 0)
(-0.00829922 0.00129454 0)
(-0.00853337 0.00128851 0)
(-0.00876609 0.00128183 0)
(-0.00899723 0.00127455 0)
(-0.00922665 0.00126673 0)
(-0.00945421 0.00125846 0)
(-0.00967977 0.00124989 0)
(-0.00990319 0.00124124 0)
(-0.0101244 0.00123278 0)
(-0.0103432 0.00122491 0)
(-0.0105596 0.00121816 0)
(-0.0107735 0.00121326 0)
(-0.0109849 0.00121119 0)
(-0.0111937 0.00121326 0)
(-0.0113999 0.00122128 0)
(-0.0116034 0.00123776 0)
(-0.0118035 0.00126611 0)
(-0.0119993 0.00131109 0)
(-0.0121882 0.00137916 0)
(-0.0123649 0.00147879 0)
(-0.0125199 0.00162006 0)
(-0.0126353 0.00181302 0)
(-0.0126822 0.00206238 0)
(-0.012625 0.00235521 0)
(-0.0124299 0.00265441 0)
(-2.5477e-05 0.000576083 0)
(-0.000161463 0.00114033 0)
(-0.000378252 0.00138956 0)
(-0.000602547 0.00148916 0)
(-0.000839955 0.00152507 0)
(-0.00107919 0.00153703 0)
(-0.00131914 0.00154114 0)
(-0.00155946 0.00154305 0)
(-0.00179999 0.00154447 0)
(-0.0020407 0.00154587 0)
(-0.0022816 0.00154732 0)
(-0.00252268 0.00154884 0)
(-0.00276395 0.00155042 0)
(-0.0030054 0.00155204 0)
(-0.00324704 0.00155367 0)
(-0.00348885 0.00155528 0)
(-0.00373084 0.00155687 0)
(-0.00397299 0.00155838 0)
(-0.00421527 0.0015598 0)
(-0.00445768 0.00156109 0)
(-0.00470019 0.00156221 0)
(-0.00494275 0.00156313 0)
(-0.00518535 0.0015638 0)
(-0.00542792 0.00156419 0)
(-0.00567044 0.00156425 0)
(-0.00591283 0.00156393 0)
(-0.00615503 0.00156319 0)
(-0.00639698 0.00156198 0)
(-0.00663858 0.00156025 0)
(-0.00687977 0.00155795 0)
(-0.00712042 0.00155504 0)
(-0.00736045 0.00155146 0)
(-0.00759974 0.00154718 0)
(-0.00783816 0.00154215 0)
(-0.00807557 0.00153635 0)
(-0.00831184 0.00152975 0)
(-0.00854681 0.00152234 0)
(-0.00878032 0.00151414 0)
(-0.0090122 0.00150518 0)
(-0.00924227 0.00149551 0)
(-0.00947035 0.00148522 0)
(-0.00969624 0.00147448 0)
(-0.00991974 0.00146348 0)
(-0.0101406 0.00145251 0)
(-0.0103587 0.00144197 0)
(-0.0105737 0.00143239 0)
(-0.0107854 0.00142447 0)
(-0.0109935 0.00141916 0)
(-0.0111974 0.00141769 0)
(-0.0113967 0.00142172 0)
(-0.0115906 0.0014334 0)
(-0.0117775 0.00145556 0)
(-0.0119555 0.0014918 0)
(-0.0121207 0.00154661 0)
(-0.0122674 0.00162515 0)
(-0.0123861 0.00173256 0)
(-0.0124626 0.00187231 0)
(-0.0124771 0.0020424 0)
(-0.0124077 0.00222961 0)
(-0.0122356 0.00240798 0)
(-2.53544e-05 0.000667939 0)
(-0.00016111 0.00131987 0)
(-0.000377717 0.00160714 0)
(-0.000601902 0.00172166 0)
(-0.000839248 0.00176288 0)
(-0.00107843 0.00177659 0)
(-0.00131831 0.00178129 0)
(-0.00155858 0.00178347 0)
(-0.00179906 0.00178509 0)
(-0.00203974 0.00178667 0)
(-0.00228061 0.00178831 0)
(-0.00252168 0.00179003 0)
(-0.00276295 0.0017918 0)
(-0.00300444 0.00179362 0)
(-0.00324613 0.00179544 0)
(-0.00348803 0.00179725 0)
(-0.00373012 0.00179901 0)
(-0.00397241 0.00180069 0)
(-0.00421487 0.00180225 0)
(-0.00445749 0.00180367 0)
(-0.00470024 0.00180489 0)
(-0.0049431 0.00180587 0)
(-0.00518602 0.00180657 0)
(-0.00542898 0.00180694 0)
(-0.00567191 0.00180693 0)
(-0.00591477 0.00180648 0)
(-0.0061575 0.00180554 0)
(-0.00640002 0.00180406 0)
(-0.00664225 0.00180197 0)
(-0.00688411 0.00179922 0)
(-0.0071255 0.00179575 0)
(-0.0073663 0.00179151 0)
(-0.0076064 0.00178644 0)
(-0.00784567 0.00178049 0)
(-0.00808397 0.00177362 0)
(-0.00832114 0.00176581 0)
(-0.00855702 0.00175702 0)
(-0.00879142 0.00174726 0)
(-0.00902414 0.00173654 0)
(-0.00925498 0.00172491 0)
(-0.00948371 0.00171246 0)
(-0.00971008 0.00169932 0)
(-0.00993382 0.00168568 0)
(-0.0101546 0.00167179 0)
(-0.0103722 0.00165803 0)
(-0.010586 0.00164488 0)
(-0.0107958 0.00163298 0)
(-0.0110008 0.00162315 0)
(-0.0112005 0.00161648 0)
(-0.0113938 0.00161432 0)
(-0.0115793 0.0016184 0)
(-0.0117553 0.00163083 0)
(-0.0119191 0.00165412 0)
(-0.0120666 0.00169106 0)
(-0.0121921 0.00174441 0)
(-0.0122876 0.00181615 0)
(-0.0123423 0.00190623 0)
(-0.012343 0.00201022 0)
(-0.0122763 0.00211679 0)
(-0.0121324 0.00220736 0)
(-2.52486e-05 0.000759554 0)
(-0.000160732 0.00149915 0)
(-0.000377063 0.00182453 0)
(-0.00060106 0.00195403 0)
(-0.000838259 0.00200057 0)
(-0.00107731 0.00201603 0)
(-0.00131707 0.00202133 0)
(-0.00155722 0.00202379 0)
(-0.0017976 0.00202562 0)
(-0.00203818 0.0020274 0)
(-0.00227897 0.00202925 0)
(-0.00251999 0.00203118 0)
(-0.00276123 0.00203317 0)
(-0.0030027 0.00203521 0)
(-0.00324441 0.00203725 0)
(-0.00348636 0.00203927 0)
(-0.00372853 0.00204125 0)
(-0.00397094 0.00204313 0)
(-0.00421355 0.00204488 0)
(-0.00445637 0.00204646 0)
(-0.00469936 0.00204782 0)
(-0.00494251 0.00204891 0)
(-0.00518577 0.00204969 0)
(-0.00542912 0.00205009 0)
(-0.0056725 0.00205005 0)
(-0.00591586 0.00204953 0)
(-0.00615915 0.00204845 0)
(-0.0064023 0.00204675 0)
(-0.00664522 0.00204436 0)
(-0.00688782 0.00204122 0)
(-0.00713002 0.00203725 0)
(-0.00737169 0.00203239 0)
(-0.00761272 0.00202658 0)
(-0.00785296 0.00201975 0)
(-0.00809228 0.00201185 0)
(-0.0083305 0.00200283 0)
(-0.00856744 0.00199266 0)
(-0.00880291 0.00198131 0)
(-0.00903668 0.00196879 0)
(-0.0092685 0.00195513 0)
(-0.00949812 0.00194037 0)
(-0.00972523 0.00192464 0)
(-0.00994949 0.00190807 0)
(-0.0101705 0.0018909 0)
(-0.0103879 0.00187342 0)
(-0.0106011 0.00185605 0)
(-0.0108095 0.00183931 0)
(-0.0110123 0.00182388 0)
(-0.0112086 0.00181062 0)
(-0.0113973 0.00180056 0)
(-0.0115766 0.00179497 0)
(-0.0117444 0.00179529 0)
(-0.011898 0.00180307 0)
(-0.0120335 0.00181983 0)
(-0.0121457 0.00184667 0)
(-0.0122282 0.00188375 0)
(-0.0122729 0.0019293 0)
(-0.0122711 0.00197843 0)
(-0.0122147 0.002022 0)
(-0.0120988 0.00204673 0)
(-2.51457e-05 0.000850925 0)
(-0.000160328 0.00167813 0)
(-0.000376336 0.00204165 0)
(-0.000600105 0.0021862 0)
(-0.000837112 0.0022381 0)
(-0.00107599 0.00225533 0)
(-0.0013156 0.00226124 0)
(-0.00155561 0.00226398 0)
(-0.00179585 0.00226603 0)
(-0.00203632 0.00226803 0)
(-0.00227701 0.0022701 0)
(-0.00251795 0.00227227 0)
(-0.00275914 0.00227451 0)
(-0.00300059 0.00227679 0)
(-0.0032423 0.00227908 0)
(-0.00348429 0.00228136 0)
(-0.00372655 0.00228358 0)
(-0.00396907 0.0022857 0)
(-0.00421185 0.00228768 0)
(-0.00445487 0.00228947 0)
(-0.00469812 0.00229102 0)
(-0.00494158 0.00229228 0)
(-0.00518521 0.00229318 0)
(-0.00542899 0.00229367 0)
(-0.00567286 0.00229368 0)
(-0.00591678 0.00229314 0)
(-0.0061607 0.00229198 0)
(-0.00640453 0.00229013 0)
(-0.00664822 0.00228751 0)
(-0.00689167 0.00228404 0)
(-0.00713478 0.00227964 0)
(-0.00737743 0.00227423 0)
(-0.00761952 0.00226774 0)
(-0.00786088 0.00226008 0)
(-0.00810138 0.00225119 0)
(-0.00834083 0.002241 0)
(-0.00857904 0.00222946 0)
(-0.00881579 0.00221653 0)
(-0.00905084 0.00220218 0)
(-0.00928392 0.00218641 0)
(-0.00951472 0.00216924 0)
(-0.00974291 0.00215075 0)
(-0.00996809 0.00213103 0)
(-0.0101898 0.00211025 0)
(-0.0104075 0.00208865 0)
(-0.0106207 0.00206652 0)
(-0.0108285 0.00204426 0)
(-0.0110301 0.00202238 0)
(-0.0112244 0.00200149 0)
(-0.01141 0.00198231 0)
(-0.0115852 0.00196566 0)
(-0.0117479 0.00195241 0)
(-0.0118952 0.00194337 0)
(-0.0120237 0.00193913 0)
(-0.012129 0.00193975 0)
(-0.012206 0.00194436 0)
(-0.0122487 0.00195055 0)
(-0.0122513 0.00195375 0)
(-0.0122089 0.00194678 0)
(-0.0121191 0.00192011 0)
(-2.5038e-05 0.000942039 0)
(-0.000159891 0.00185677 0)
(-0.000375537 0.0022585 0)
(-0.000599047 0.00241814 0)
(-0.00083583 0.00247543 0)
(-0.00107451 0.00249445 0)
(-0.00131394 0.00250098 0)
(-0.00155378 0.00250403 0)
(-0.00179387 0.00250631 0)
(-0.0020342 0.00250854 0)
(-0.00227478 0.00251087 0)
(-0.00251563 0.00251329 0)
(-0.00275676 0.0025158 0)
(-0.00299818 0.00251836 0)
(-0.00323989 0.00252094 0)
(-0.00348192 0.00252351 0)
(-0.00372426 0.00252601 0)
(-0.0039669 0.00252842 0)
(-0.00420985 0.00253067 0)
(-0.0044531 0.00253273 0)
(-0.00469663 0.00253452 0)
(-0.00494043 0.002536 0)
(-0.00518446 0.00253709 0)
(-0.0054287 0.00253773 0)
(-0.00567312 0.00253785 0)
(-0.00591765 0.00253737 0)
(-0.00616226 0.00253621 0)
(-0.00640687 0.00253428 0)
(-0.00665141 0.0025315 0)
(-0.00689579 0.00252778 0)
(-0.00713993 0.00252303 0)
(-0.00738369 0.00251715 0)
(-0.00762697 0.00251005 0)
(-0.00786962 0.00250164 0)
(-0.00811147 0.00249182 0)
(-0.00835234 0.00248052 0)
(-0.00859203 0.00246765 0)
(-0.00883031 0.00245315 0)
(-0.00906691 0.00243697 0)
(-0.00930155 0.00241906 0)
(-0.00953389 0.00239942 0)
(-0.00976356 0.00237806 0)
(-0.0099901 0.00235502 0)
(-0.010213 0.00233041 0)
(-0.0104318 0.00230436 0)
(-0.0106456 0.00227707 0)
(-0.0108537 0.00224879 0)
(-0.0110552 0.00221985 0)
(-0.0112488 0.00219062 0)
(-0.0114332 0.00216153 0)
(-0.0116066 0.00213303 0)
(-0.0117669 0.0021055 0)
(-0.0119114 0.0020792 0)
(-0.0120373 0.00205409 0)
(-0.0121407 0.0020296 0)
(-0.0122176 0.00200436 0)
(-0.0122638 0.00197585 0)
(-0.0122751 0.00194005 0)
(-0.0122485 0.00189138 0)
(-0.0121829 0.001823 0)
(-2.49214e-05 0.00103287 0)
(-0.000159412 0.00203503 0)
(-0.00037466 0.00247502 0)
(-0.000597881 0.00264982 0)
(-0.000834411 0.00271254 0)
(-0.00107287 0.00273337 0)
(-0.00131209 0.00274054 0)
(-0.00155174 0.0027439 0)
(-0.00179166 0.00274644 0)
(-0.00203184 0.00274893 0)
(-0.00227229 0.00275152 0)
(-0.00251303 0.00275423 0)
(-0.00275408 0.00275704 0)
(-0.00299546 0.00275991 0)
(-0.00323717 0.00276282 0)
(-0.00347923 0.00276571 0)
(-0.00372165 0.00276855 0)
(-0.00396442 0.00277129 0)
(-0.00420756 0.00277387 0)
(-0.00445104 0.00277624 0)
(-0.00469487 0.00277834 0)
(-0.00493903 0.0027801 0)
(-0.00518349 0.00278145 0)
(-0.00542824 0.00278232 0)
(-0.00567324 0.00278263 0)
(-0.00591844 0.00278228 0)
(-0.0061638 0.0027812 0)
(-0.00640926 0.00277929 0)
(-0.00665474 0.00277644 0)
(-0.00690016 0.00277257 0)
(-0.00714543 0.00276755 0)
(-0.00739044 0.00276129 0)
(-0.00763505 0.00275368 0)
(-0.00787914 0.0027446 0)
(-0.00812252 0.00273394 0)
(-0.00836502 0.0027216 0)
(-0.00860643 0.00270747 0)
(-0.0088465 0.00269146 0)
(-0.00908496 0.00267347 0)
(-0.00932149 0.00265344 0)
(-0.00955575 0.0026313 0)
(-0.00978733 0.00260701 0)
(-0.0100158 0.00258057 0)
(-0.0102405 0.00255198 0)
(-0.0104609 0.00252129 0)
(-0.0106763 0.00248858 0)
(-0.0108857 0.00245397 0)
(-0.0110883 0.0024176 0)
(-0.0112827 0.00237963 0)
(-0.0114676 0.00234023 0)
(-0.0116413 0.00229952 0)
(-0.0118017 0.00225753 0)
(-0.0119466 0.00221412 0)
(-0.0120733 0.00216883 0)
(-0.0121788 0.00212073 0)
(-0.0122598 0.00206826 0)
(-0.0123131 0.00200901 0)
(-0.0123358 0.00193958 0)
(-0.012326 0.00185563 0)
(-0.012283 0.00175217 0)
(-2.4794e-05 0.0011234 0)
(-0.000158888 0.00221289 0)
(-0.000373697 0.00269119 0)
(-0.000596597 0.0028812 0)
(-0.000832845 0.0029494 0)
(-0.00107105 0.00297206 0)
(-0.00131003 0.00297988 0)
(-0.00154947 0.00298358 0)
(-0.00178919 0.00298639 0)
(-0.00202919 0.00298916 0)
(-0.00226949 0.00299204 0)
(-0.00251012 0.00299507 0)
(-0.00275108 0.00299821 0)
(-0.0029924 0.00300144 0)
(-0.0032341 0.0030047 0)
(-0.00347619 0.00300797 0)
(-0.00371868 0.00301119 0)
(-0.00396159 0.00301431 0)
(-0.0042049 0.00301728 0)
(-0.00444863 0.00302003 0)
(-0.00469278 0.0030225 0)
(-0.00493732 0.00302462 0)
(-0.00518225 0.0030263 0)
(-0.00542754 0.00302748 0)
(-0.00567316 0.00302805 0)
(-0.00591908 0.00302793 0)
(-0.00616526 0.00302703 0)
(-0.00641163 0.00302522 0)
(-0.00665813 0.00302241 0)
(-0.00690469 0.00301849 0)
(-0.0071512 0.00301332 0)
(-0.00739757 0.00300679 0)
(-0.00764367 0.00299877 0)
(-0.00788936 0.00298913 0)
(-0.00813447 0.00297774 0)
(-0.00837881 0.00296446 0)
(-0.00862218 0.00294917 0)
(-0.00886431 0.00293172 0)
(-0.00910494 0.00291201 0)
(-0.00934373 0.00288991 0)
(-0.00958032 0.00286531 0)
(-0.00981429 0.00283812 0)
(-0.0100451 0.00280825 0)
(-0.0102723 0.00277564 0)
(-0.0104952 0.00274023 0)
(-0.0107129 0.002702 0)
(-0.0109247 0.00266091 0)
(-0.0111296 0.00261695 0)
(-0.0113262 0.0025701 0)
(-0.0115133 0.00252029 0)
(-0.0116893 0.00246739 0)
(-0.0118523 0.00241116 0)
(-0.0120002 0.00235115 0)
(-0.0121307 0.00228667 0)
(-0.0122412 0.00221659 0)
(-0.0123293 0.00213932 0)
(-0.0123925 0.00205266 0)
(-0.0124285 0.00195377 0)
(-0.0124359 0.00183925 0)
(-0.0124144 0.00170539 0)
(-2.46544e-05 0.00121359 0)
(-0.000158313 0.0023903 0)
(-0.00037264 0.00290697 0)
(-0.000595187 0.00311227 0)
(-0.000831119 0.00318597 0)
(-0.00106904 0.00321049 0)
(-0.00130776 0.00321898 0)
(-0.00154695 0.00322304 0)
(-0.00178645 0.00322615 0)
(-0.00202626 0.00322921 0)
(-0.00226638 0.00323242 0)
(-0.00250686 0.0032358 0)
(-0.00274772 0.00323931 0)
(-0.00298897 0.00324292 0)
(-0.00323064 0.00324659 0)
(-0.00347275 0.00325028 0)
(-0.00371531 0.00325393 0)
(-0.00395834 0.00325749 0)
(-0.00420184 0.00326091 0)
(-0.00444582 0.0032641 0)
(-0.00469029 0.00326701 0)
(-0.00493523 0.00326956 0)
(-0.00518064 0.00327166 0)
(-0.0054265 0.00327323 0)
(-0.00567278 0.00327417 0)
(-0.00591947 0.00327438 0)
(-0.00616652 0.00327375 0)
(-0.00641387 0.00327216 0)
(-0.00666148 0.00326951 0)
(-0.00690926 0.00326565 0)
(-0.00715713 0.00326045 0)
(-0.00740499 0.00325378 0)
(-0.00765271 0.00324548 0)
(-0.00790017 0.00323542 0)
(-0.00814719 0.00322342 0)
(-0.0083936 0.00320934 0)
(-0.00863917 0.00319301 0)
(-0.00888365 0.00317426 0)
(-0.00912677 0.00315294 0)
(-0.00936819 0.00312888 0)
(-0.00960755 0.00310192 0)
(-0.00984439 0.0030719 0)
(-0.0100782 0.00303867 0)
(-0.0103085 0.00300209 0)
(-0.0105345 0.002962 0)
(-0.0107556 0.00291827 0)
(-0.0109708 0.00287073 0)
(-0.0111791 0.00281923 0)
(-0.0113794 0.00276357 0)
(-0.0115703 0.0027035 0)
(-0.0117504 0.00263869 0)
(-0.011918 0.00256869 0)
(-0.0120711 0.00249285 0)
(-0.0122079 0.00241032 0)
(-0.0123261 0.00231989 0)
(-0.0124237 0.00222002 0)
(-0.0124986 0.00210873 0)
(-0.0125492 0.00198365 0)
(-0.0125744 0.00184207 0)
(-0.0125736 0.00168119 0)
(-2.45019e-05 0.00130342 0)
(-0.000157685 0.00256722 0)
(-0.000371484 0.00312232 0)
(-0.000593641 0.00334298 0)
(-0.000829223 0.00342223 0)
(-0.00106683 0.00344863 0)
(-0.00130526 0.00345782 0)
(-0.00154417 0.00346225 0)
(-0.00178342 0.00346568 0)
(-0.002023 0.00346907 0)
(-0.00226292 0.00347263 0)
(-0.00250323 0.00347638 0)
(-0.00274396 0.0034803 0)
(-0.00298512 0.00348434 0)
(-0.00322674 0.00348847 0)
(-0.00346885 0.00349263 0)
(-0.00371147 0.00349677 0)
(-0.00395461 0.00350083 0)
(-0.0041983 0.00350475 0)
(-0.00444253 0.00350847 0)
(-0.00468732 0.00351189 0)
(-0.00493267 0.00351496 0)
(-0.00517858 0.00351756 0)
(-0.00542503 0.00351962 0)
(-0.00567201 0.00352102 0)
(-0.00591951 0.00352166 0)
(-0.00616747 0.00352142 0)
(-0.00641587 0.00352018 0)
(-0.00666465 0.0035178 0)
(-0.00691374 0.00351414 0)
(-0.00716307 0.00350906 0)
(-0.00741254 0.00350239 0)
(-0.00766204 0.00349397 0)
(-0.00791142 0.00348363 0)
(-0.00816055 0.00347119 0)
(-0.00840923 0.00345646 0)
(-0.00865726 0.00343926 0)
(-0.00890438 0.00341937 0)
(-0.00915032 0.0033966 0)
(-0.00939475 0.00337074 0)
(-0.0096373 0.00334157 0)
(-0.00987753 0.00330888 0)
(-0.010115 0.00327245 0)
(-0.010349 0.00323204 0)
(-0.010579 0.00318742 0)
(-0.0108042 0.00313834 0)
(-0.0110238 0.00308454 0)
(-0.0112367 0.0030257 0)
(-0.0114419 0.0029615 0)
(-0.0116382 0.00289152 0)
(-0.0118241 0.00281528 0)
(-0.0119981 0.00273216 0)
(-0.0121585 0.0026414 0)
(-0.0123036 0.00254202 0)
(-0.0124315 0.00243281 0)
(-0.0125405 0.00231229 0)
(-0.0126288 0.0021787 0)
(-0.0126951 0.00203002 0)
(-0.0127384 0.00186407 0)
(-0.0127581 0.00167867 0)
(-2.43358e-05 0.00139284 0)
(-0.000157001 0.0027436 0)
(-0.000370222 0.0033372 0)
(-0.000591948 0.00357329 0)
(-0.000827143 0.00365814 0)
(-0.0010644 0.00368645 0)
(-0.0013025 0.00369636 0)
(-0.0015411 0.00370118 0)
(-0.00178007 0.00370495 0)
(-0.00201938 0.00370869 0)
(-0.00225908 0.00371264 0)
(-0.0024992 0.00371681 0)
(-0.00273976 0.00372117 0)
(-0.0029808 0.00372569 0)
(-0.00322236 0.00373031 0)
(-0.00346445 0.00373499 0)
(-0.00370711 0.00373968 0)
(-0.00395035 0.00374431 0)
(-0.0041942 0.00374881 0)
(-0.00443868 0.00375311 0)
(-0.0046838 0.00375714 0)
(-0.00492956 0.00376081 0)
(-0.00517597 0.00376401 0)
(-0.00542304 0.00376666 0)
(-0.00567074 0.00376864 0)
(-0.00591907 0.00376983 0)
(-0.006168 0.00377011 0)
(-0.0064175 0.00376934 0)
(-0.00666752 0.00376738 0)
(-0.006918 0.00376407 0)
(-0.00716889 0.00375925 0)
(-0.00742008 0.00375275 0)
(-0.00767147 0.00374438 0)
(-0.00792295 0.00373395 0)
(-0.00817436 0.00372125 0)
(-0.00842553 0.00370607 0)
(-0.00867626 0.00368819 0)
(-0.00892631 0.00366736 0)
(-0.0091754 0.00364336 0)
(-0.00942322 0.00361591 0)
(-0.0096694 0.00358476 0)
(-0.00991352 0.00354962 0)
(-0.0101551 0.00351021 0)
(-0.0103935 0.00346621 0)
(-0.0106282 0.00341732 0)
(-0.0108585 0.00336317 0)
(-0.0110834 0.00330339 0)
(-0.0113021 0.00323757 0)
(-0.0115136 0.00316524 0)
(-0.0117165 0.00308587 0)
(-0.0119098 0.00299883 0)
(-0.0120918 0.00290339 0)
(-0.0122613 0.00279868 0)
(-0.0124165 0.00268367 0)
(-0.0125558 0.00255716 0)
(-0.0126778 0.00241773 0)
(-0.0127809 0.0022638 0)
(-0.0128639 0.00209363 0)
(-0.0129257 0.00190542 0)
(-0.0129659 0.0016974 0)
(-2.41554e-05 0.00148183 0)
(-0.000156257 0.0029194 0)
(-0.000368847 0.00355157 0)
(-0.000590101 0.00380317 0)
(-0.000824868 0.00389366 0)
(-0.00106173 0.00392391 0)
(-0.00129947 0.00393456 0)
(-0.00153773 0.0039398 0)
(-0.00177637 0.00394393 0)
(-0.00201539 0.00394806 0)
(-0.00225482 0.00395242 0)
(-0.00249471 0.00395704 0)
(-0.00273508 0.00396189 0)
(-0.00297598 0.00396692 0)
(-0.00321743 0.0039721 0)
(-0.00345948 0.00397736 0)
(-0.00370216 0.00398265 0)
(-0.00394548 0.00398791 0)
(-0.00418949 0.00399307 0)
(-0.0044342 0.00399804 0)
(-0.00467963 0.00400276 0)
(-0.0049258 0.00400712 0)
(-0.00517272 0.00401103 0)
(-0.00542041 0.00401437 0)
(-0.00566885 0.00401704 0)
(-0.00591804 0.00401891 0)
(-0.00616796 0.00401985 0)
(-0.0064186 0.00401969 0)
(-0.00666992 0.00401831 0)
(-0.00692187 0.00401551 0)
(-0.0071744 0.00401114 0)
(-0.00742742 0.00400498 0)
(-0.00768084 0.00399686 0)
(-0.00793456 0.00398653 0)
(-0.00818843 0.00397379 0)
(-0.00844229 0.00395839 0)
(-0.00869596 0.00394006 0)
(-0.00894921 0.00391855 0)
(-0.00920178 0.00389356 0)
(-0.00945336 0.00386479 0)
(-0.00970359 0.00383193 0)
(-0.00995208 0.00379463 0)
(-0.0101984 0.00375255 0)
(-0.0104419 0.0037053 0)
(-0.010682 0.00365248 0)
(-0.0109181 0.00359364 0)
(-0.0111494 0.00352832 0)
(-0.0113749 0.00345599 0)
(-0.0115937 0.00337608 0)
(-0.0118046 0.00328794 0)
(-0.0120066 0.00319084 0)
(-0.0121983 0.00308395 0)
(-0.0123782 0.00296634 0)
(-0.0125451 0.00283692 0)
(-0.0126975 0.0026945 0)
(-0.0128339 0.00253773 0)
(-0.0129529 0.00236516 0)
(-0.0130535 0.00217524 0)
(-0.0131346 0.00196646 0)
(-0.0131955 0.00173733 0)
(-2.39599e-05 0.00157034 0)
(-0.000155449 0.00309455 0)
(-0.000367353 0.00376537 0)
(-0.000588088 0.00403256 0)
(-0.000822383 0.00412876 0)
(-0.00105882 0.00416097 0)
(-0.00129614 0.00417238 0)
(-0.00153402 0.00417806 0)
(-0.0017723 0.00418259 0)