/*--------------------------------*- C++ -*----------------------------------*\
  =========                 |
  \\      /  F ield         | OpenFOAM: The Open Source CFD Toolbox
   \\    /   O peration     | Website:  https://openfoam.org
    \\  /    A nd           | Version:  8
     \\/     M anipulation  |
\*---------------------------------------------------------------------------*/
FoamFile
{
    version     2.0;
    format      ascii;
    class       volVectorField;
    location    "0.12";
    object      U;
}
// * * * * * * * * * * * * * * * * * * * * * * * * * * * * * * * * * * * * * //

dimensions      [0 1 -1 0 0 0 0];

internalField   nonuniform List<vector> 
400
(
(0.000252242 -0.0002478 0)
(0.000139732 0.000112058 0)
(-0.00117041 0.00056177 0)
(-0.00345993 0.000879735 0)
(-0.00633674 0.00103911 0)
(-0.00940743 0.00105485 0)
(-0.0123205 0.000951536 0)
(-0.0147851 0.000755406 0)
(-0.0165773 0.000491421 0)
(-0.0175398 0.000183488 0)
(-0.0175842 -0.000144057 0)
(-0.0166945 -0.000464968 0)
(-0.014933 -0.000750173 0)
(-0.0124463 -0.000967764 0)
(-0.00946846 -0.00108423 0)
(-0.00631821 -0.00106753 0)
(-0.00338256 -0.000893125 0)
(-0.001082 -0.000553768 0)
(0.000194067 -9.05397e-05 0)
(0.000265959 0.000260479 0)
(-7.62057e-05 -0.00016765 0)
(-0.00159974 0.00163555 0)
(-0.00565371 0.00359403 0)
(-0.0116384 0.00500109 0)
(-0.0187619 0.00570378 0)
(-0.0262173 0.00572005 0)
(-0.0332355 0.00513539 0)
(-0.0391509 0.00406394 0)
(-0.0434381 0.00262969 0)
(-0.0457265 0.000961457 0)
(-0.0458107 -0.00080559 0)
(-0.0436612 -0.00252703 0)
(-0.0394344 -0.0040482 0)
(-0.0334808 -0.00520751 0)
(-0.0263431 -0.00584608 0)
(-0.018737 -0.00582633 0)
(-0.0114971 -0.00506308 0)
(-0.00548163 -0.00356867 0)
(-0.00148531 -0.00155133 0)
(-4.27342e-05 0.000225092 0)
(-0.000524638 0.00108419 0)
(-0.00368536 0.00569823 0)
(-0.0105161 0.0101555 0)
(-0.0198548 0.0133155 0)
(-0.0305538 0.0148419 0)
(-0.0415345 0.0147341 0)
(-0.0517604 0.0131619 0)
(-0.0603251 0.0103829 0)
(-0.0665083 0.00669643 0)
(-0.0698012 0.00242566 0)
(-0.0699224 -0.00208596 0)
(-0.0668327 -0.006473 0)
(-0.0607482 -0.01035 0)
(-0.052148 -0.0133234 0)
(-0.0417702 -0.0150178 0)
(-0.0305832 -0.0151237 0)
(-0.0197092 -0.0134694 0)
(-0.0103025 -0.0101172 0)
(-0.00352816 -0.00551946 0)
(-0.000474303 -0.000944507 0)
(-0.000921811 0.00345534 0)
(-0.00565377 0.0121385 0)
(-0.0152022 0.0197874 0)
(-0.0277362 0.025026 0)
(-0.0417138 0.0274065 0)
(-0.0558151 0.0269487 0)
(-0.0688027 0.023941 0)
(-0.0796058 0.0188233 0)
(-0.087379 0.012115 0)
(-0.091526 0.00438242 0)
(-0.0917147 -0.00377044 0)
(-0.087893 -0.0117023 0)
(-0.0803039 -0.0187403 0)
(-0.0694972 -0.0242011 0)
(-0.0563312 -0.0274371 0)
(-0.0419484 -0.0279159 0)
(-0.0276972 -0.0253363 0)
(-0.0150087 -0.0197714 0)
(-0.00547434 -0.0118587 0)
(-0.000856864 -0.00320732 0)
(-0.00127102 0.00683128 0)
(-0.00749125 0.0208168 0)
(-0.0196893 0.032298 0)
(-0.035329 0.0398388 0)
(-0.0524382 0.0430018 0)
(-0.0694536 0.0419095 0)
(-0.0849671 0.0370271 0)
(-0.0977893 0.0290193 0)
(-0.106996 0.0186583 0)
(-0.11194 0.00678084 0)
(-0.112253 -0.00572399 0)
(-0.107863 -0.0179142 0)
(-0.0990105 -0.0288001 0)
(-0.0862676 -0.0373711 0)
(-0.0705578 -0.042659 0)
(-0.0531514 -0.0438473 0)
(-0.0356012 -0.0404302 0)
(-0.0196353 -0.0324017 0)
(-0.00733339 -0.0204745 0)
(-0.00119759 -0.00646268 0)
(-0.0015992 0.0111446 0)
(-0.00927149 0.0316782 0)
(-0.0240906 0.0476561 0)
(-0.042793 0.0577102 0)
(-0.0629483 0.0615469 0)
(-0.0827458 0.0595006 0)
(-0.100627 0.0522934 0)
(-0.115322 0.0408675 0)
(-0.125866 0.0262789 0)
(-0.131591 0.0096494 0)
(-0.132107 -0.00784108 0)
(-0.127312 -0.0249449 0)
(-0.117412 -0.0403432 0)
(-0.102958 -0.0526695 0)
(-0.0848846 -0.0605819 0)
(-0.0645494 -0.0628987 0)
(-0.0436954 -0.0588011 0)
(-0.024373 -0.0480773 0)
(-0.00921477 -0.0313893 0)
(-0.00153115 -0.0106727 0)
(-0.00193233 0.0163818 0)
(-0.0110783 0.0447199 0)
(-0.0285415 0.0658572 0)
(-0.0502882 0.0786046 0)
(-0.0734037 0.0829593 0)
(-0.0958336 0.0796016 0)
(-0.115901 0.0696098 0)
(-0.132297 0.0542656 0)
(-0.144067 0.0349362 0)
(-0.150554 0.0130305 0)
(-0.151364 -0.00999453 0)
(-0.146357 -0.0326026 0)
(-0.135673 -0.0531524 0)
(-0.119784 -0.0699043 0)
(-0.0995756 -0.0810878 0)
(-0.0764336 -0.0850557 0)
(-0.0522608 -0.0805332 0)
(-0.0294453 -0.0669349 0)
(-0.0112457 -0.0447193 0)
(-0.00189369 -0.0158752 0)
(-0.00229387 0.0225788 0)
(-0.0129908 0.0599966 0)
(-0.0331639 0.0869184 0)
(-0.0579266 0.102462 0)
(-0.0838497 0.107095 0)
(-0.108657 0.10201 0)
(-0.130606 0.0887609 0)
(-0.148418 0.0690386 0)
(-0.161211 0.0445431 0)
(-0.168392 0.016955 0)
(-0.169587 -0.012029 0)
(-0.164615 -0.0406283 0)
(-0.153511 -0.0669126 0)
(-0.136606 -0.0887707 0)
(-0.114644 -0.103955 0)
(-0.0889501 -0.110236 0)
(-0.0615181 -0.105703 0)
(-0.0350629 -0.0891702 0)
(-0.0135531 -0.0606822 0)
(-0.00232076 -0.0221825 0)
(-0.00270782 0.0298157 0)
(-0.0150866 0.0776159 0)
(-0.0380599 0.11086 0)
(-0.0657509 0.129156 0)
(-0.0941822 0.133686 0)
(-0.120907 0.126363 0)
(-0.144206 0.109367 0)
(-0.162938 0.0848685 0)
(-0.176383 0.0549118 0)
(-0.184086 0.0214117 0)
(-0.185734 -0.0137633 0)
(-0.181108 -0.0486682 0)
(-0.170104 -0.081153 0)
(-0.152825 -0.10877 0)
(-0.129758 -0.128764 0)
(-0.102022 -0.138205 0)
(-0.0715772 -0.134316 0)
(-0.0414031 -0.115007 0)
(-0.0162632 -0.0795901 0)
(-0.0028504 -0.0297792 0)
(-0.00320675 0.0382208 0)
(-0.0174605 0.0977304 0)
(-0.0433253 0.137667 0)
(-0.0737265 0.158421 0)
(-0.104112 0.162235 0)
(-0.131965 0.152028 0)
(-0.155738 0.130775 0)
(-0.174573 0.101201 0)
(-0.188047 0.0656839 0)
(-0.195935 0.0263047 0)
(-0.198047 -0.0150013 0)
(-0.194144 -0.0562471 0)
(-0.183947 -0.0951825 0)
(-0.167243 -0.129108 0)
(-0.144108 -0.154773 0)
(-0.115253 -0.168436 0)
(-0.0823842 -0.166193 0)
(-0.0485997 -0.144627 0)
(-0.019514 -0.101829 0)
(-0.00353088 -0.0389263 0)
(-0.00384621 0.0479912 0)
(-0.0202575 0.120537 0)
(-0.0490728 0.167231 0)
(-0.0817285 0.189741 0)
(-0.113109 0.191888 0)
(-0.140813 0.177964 0)
(-0.163695 0.151938 0)
(-0.181385 0.117145 0)
(-0.193921 0.0762525 0)
(-0.20143 0.0314013 0)
(-0.203918 -0.0155544 0)
(-0.201159 -0.0627573 0)
(-0.192685 -0.108034 0)
(-0.17788 -0.148589 0)
(-0.156234 -0.18076 0)
(-0.12778 -0.199937 0)
(-0.0936396 -0.200803 0)
(-0.0567275 -0.178064 0)
(-0.0234765 -0.127831 0)
(-0.00443466 -0.0499785 0)
(-0.00473063 0.0594442 0)
(-0.0237221 0.146284 0)
(-0.055449 0.199265 0)
(-0.0894872 0.222195 0)
(-0.120277 0.221251 0)
(-0.145871 0.20256 0)
(-0.165859 0.171283 0)
(-0.180623 0.131372 0)
(-0.190847 0.0856895 0)
(-0.197131 0.0362778 0)
(-0.199761 -0.0152791 0)
(-0.198574 -0.0674693 0)
(-0.192926 -0.118434 0)
(-0.181745 -0.165523 0)
(-0.163775 -0.204859 0)
(-0.138057 -0.231014 0)
(-0.10465 -0.237021 0)
(-0.0657603 -0.215026 0)
(-0.0283863 -0.158031 0)
(-0.00568311 -0.0634274 0)
(-0.00605929 0.0731198 0)
(-0.0282664 0.175271 0)
(-0.0626075 0.233133 0)
(-0.0964247 0.25421 0)
(-0.124095 0.248147 0)
(-0.144702 0.223449 0)
(-0.159031 0.18659 0)
(-0.168512 0.142052 0)
(-0.174635 0.092702 0)
(-0.178563 0.0402787 0)
(-0.180921 -0.0141242 0)
(-0.181675 -0.0695788 0)
(-0.18006 -0.124821 0)
(-0.174578 -0.177676 0)
(-0.163137 -0.224399 0)
(-0.143491 -0.258993 0)
(-0.114049 -0.272771 0)
(-0.075451 -0.254602 0)
(-0.0345765 -0.192776 0)
(-0.00748923 -0.0799868 0)
(-0.00820121 0.0899622 0)
(-0.0345315 0.207783 0)
(-0.0705322 0.267519 0)
(-0.101229 0.28315 0)
(-0.121869 0.269306 0)
(-0.133489 0.237336 0)
(-0.13862 0.194948 0)
(-0.139981 0.146867 0)
(-0.139928 0.0956673 0)
(-0.140175 0.0425227 0)
(-0.141684 -0.0121772 0)
(-0.144599 -0.0683045 0)
(-0.14816 -0.125462 0)
(-0.15059 -0.182337 0)
(-0.149056 -0.235829 0)
(-0.13989 -0.279931 0)
(-0.119255 -0.304538 0)
(-0.0850213 -0.294751 0)
(-0.0424712 -0.232099 0)
(-0.0102208 -0.100732 0)
(-0.0117767 0.111578 0)
(-0.0433102 0.243786 0)
(-0.0784233 0.299753 0)
(-0.100847 0.30473 0)
(-0.10867 0.280051 0)
(-0.106148 0.239968 0)
(-0.0980356 0.192902 0)
(-0.0883513 0.143242 0)
(-0.0801342 0.0928296 0)
(-0.0754459 0.0420078 0)
(-0.0754625 -0.00969037 0)
(-0.0805208 -0.063052 0)
(-0.0900367 -0.118725 0)
(-0.102283 -0.17661 0)
(-0.114086 -0.234885 0)
(-0.120602 -0.288464 0)
(-0.115459 -0.326798 0)
(-0.0923725 -0.33146 0)
(-0.0523547 -0.275174 0)
(-0.0144367 -0.127261 0)
(-0.0175571 0.140628 0)
(-0.0548095 0.282032 0)
(-0.082902 0.324522 0)
(-0.0882865 0.312209 0)
(-0.0754147 0.27415 0)
(-0.0529994 0.226454 0)
(-0.0279627 0.176996 0)
(-0.00510016 0.128897 0)
(0.0124532 0.0827508 0)
(0.0227609 0.0378758 0)
(0.0247158 -0.00704889 0)
(0.0178512 -0.0536424 0)
(0.0023784 -0.103556 0)
(-0.0205193 -0.158063 0)
(-0.0481115 -0.217205 0)
(-0.0753039 -0.27805 0)
(-0.0937593 -0.331495 0)
(-0.0921805 -0.357432 0)
(-0.0633243 -0.319122 0)
(-0.020641 -0.16191 0)
(-0.0254547 0.181701 0)
(-0.0658077 0.31771 0)
(-0.0734241 0.331242 0)
(-0.0482467 0.295229 0)
(-0.00583983 0.244006 0)
(0.0408597 0.192164 0)
(0.0842005 0.144846 0)
(0.120003 0.102806 0)
(0.146107 0.065025 0)
(0.161416 0.0298411 0)
(0.165303 -0.00465644 0)
(0.157319 -0.0405513 0)
(0.137165 -0.0801162 0)
(0.104946 -0.125747 0)
(0.0618572 -0.17953 0)
(0.0115 -0.241816 0)
(-0.0380355 -0.307683 0)
(-0.0717934 -0.359978 0)
(-0.0700989 -0.356496 0)
(-0.0279197 -0.208334 0)
(-0.0296503 0.239179 0)
(-0.0608586 0.335744 0)
(-0.0219997 0.300444 0)
(0.0504243 0.240035 0)
(0.127379 0.182834 0)
(0.196731 0.135266 0)
(0.253978 0.0972835 0)
(0.297819 0.0667564 0)
(0.328338 0.0412912 0)
(0.345947 0.0187505 0)
(0.350848 -0.00278493 0)
(0.342792 -0.0252211 0)
(0.320999 -0.0507145 0)
(0.284233 -0.0819533 0)
(0.231237 -0.122338 0)
(0.161928 -0.175558 0)
(0.0797299 -0.243327 0)
(-0.00328476 -0.319049 0)
(-0.0547055 -0.368554 0)
(-0.0284654 -0.267599 0)
(0.00808504 0.281868 0)
(0.0197809 0.294969 0)
(0.139043 0.210954 0)
(0.264399 0.143443 0)
(0.364254 0.0971413 0)
(0.440191 0.065729 0)
(0.496509 0.044192 0)
(0.536587 0.0288492 0)
(0.563119 0.0171747 0)
(0.577955 0.00747523 0)
(0.582024 -0.00148891 0)
(0.575352 -0.0108267 0)
(0.556995 -0.0218177 0)
(0.524864 -0.036298 0)
(0.475557 -0.0572187 0)
(0.404373 -0.0893428 0)
(0.305067 -0.139703 0)
(0.173357 -0.216355 0)
(0.041151 -0.311636 0)
(0.0184274 -0.299991 0)
(0.299607 0.146094 0)
(0.396278 0.127505 0)
(0.557421 0.0760878 0)
(0.674475 0.0437179 0)
(0.743854 0.0255643 0)
(0.787093 0.0152336 0)
(0.8154 0.0092044 0)
(0.833848 0.00550326 0)
(0.845261 0.00302352 0)
(0.851239 0.00114845 0)
(0.852533 -0.000497622 0)
(0.849256 -0.00221104 0)
(0.840886 -0.00433285 0)
(0.826045 -0.00741734 0)
(0.802003 -0.0125251 0)
(0.763567 -0.0217659 0)
(0.699075 -0.0392767 0)
(0.583937 -0.0726554 0)
(0.415824 -0.127866 0)
(0.30882 -0.149468 0)
)
;

boundaryField
{
    movingWall
    {
        type            fixedValue;
        value           uniform (1 0 0);
    }
    fixedWalls
    {
        type            noSlip;
    }
    frontAndBack
    {
        type            empty;
    }
}


// ************************************************************************* //
