/*--------------------------------*- C++ -*----------------------------------*\
  =========                 |
  \\      /  F ield         | OpenFOAM: The Open Source CFD Toolbox
   \\    /   O peration     | Website:  https://openfoam.org
    \\  /    A nd           | Version:  8
     \\/     M anipulation  |
\*---------------------------------------------------------------------------*/
FoamFile
{
    version     2.0;
    format      ascii;
    class       volScalarField;
    location    "0.89";
    object      T;
}
// * * * * * * * * * * * * * * * * * * * * * * * * * * * * * * * * * * * * * //

dimensions      [0 0 0 1 0 0 0];

internalField   nonuniform List<scalar> 
100
(
49.9593
4.87316
-4.96262
-1.25794
1.32605
0.870475
-0.310464
-1.31458
0.201672
0.55214
95.3024
49.8079
11.2967
-4.89268
-3.61605
0.689665
2.01275
1.41792
-1.62279
-1.07778
104.64
89.3984
49.336
13.3289
-3.93407
-4.61009
0.0428817
1.0841
1.68068
0.32763
101.636
104.107
88.2747
48.9313
13.6194
-3.6817
-5.64854
2.51078
0.952405
-0.535253
98.4898
103.985
103.16
87.4792
49.7025
15.2901
-4.00794
-9.46831
2.84094
3.17759
99.3461
98.8469
105.51
102.568
85.2562
49.6928
18.1676
-2.23564
-10.9099
-1.65564
100.05
98.5045
98.789
107.379
103.077
82.668
49.2245
17.6688
1.06763
-5.47554
101.049
99.1998
97.8487
98.5169
109.072
102.925
81.7936
49.3924
13.3657
3.56093
100.153
100.904
99.8812
96.8276
98.3302
109.806
100.852
87.4714
48.7972
4.17461
99.6275
100.679
100.424
99.6772
97.21
101.152
106.069
97.1215
95.0121
49.7759
)
;

boundaryField
{
    left
    {
        type            fixedValue;
        value           uniform 100;
    }
    right
    {
        type            zeroGradient;
    }
    up
    {
        type            zeroGradient;
    }
    down
    {
        type            fixedValue;
        value           uniform 0;
    }
    frontAndBack
    {
        type            empty;
    }
}


// ************************************************************************* //
