/*--------------------------------*- C++ -*----------------------------------*\
  =========                 |
  \\      /  F ield         | OpenFOAM: The Open Source CFD Toolbox
   \\    /   O peration     | Website:  https://openfoam.org
    \\  /    A nd           | Version:  8
     \\/     M anipulation  |
\*---------------------------------------------------------------------------*/
FoamFile
{
    version     2.0;
    format      ascii;
    class       volScalarField;
    location    "1.96";
    object      p;
}
// * * * * * * * * * * * * * * * * * * * * * * * * * * * * * * * * * * * * * //

dimensions      [0 2 -2 0 0 0 0];

internalField   nonuniform List<scalar> 
400
(
4.29008e-16
1.06073e-15
1.76897e-15
2.37072e-15
2.92576e-15
3.37968e-15
3.71875e-15
3.89832e-15
3.94362e-15
3.94726e-15
3.90433e-15
3.78669e-15
3.65054e-15
3.46839e-15
3.24375e-15
2.97805e-15
2.64523e-15
2.19325e-15
1.62433e-15
9.71313e-16
1.54422e-15
1.78328e-15
2.2594e-15
2.63554e-15
3.02192e-15
3.40607e-15
3.68832e-15
3.8316e-15
3.85371e-15
3.85662e-15
3.84084e-15
3.75511e-15
3.62906e-15
3.47129e-15
3.23301e-15
3.07451e-15
2.79382e-15
2.48586e-15
2.09796e-15
1.70781e-15
2.29459e-15
2.34047e-15
2.6801e-15
2.89009e-15
3.16172e-15
3.52886e-15
3.68529e-15
3.74124e-15
3.75504e-15
3.80013e-15
3.85798e-15
3.82415e-15
3.67069e-15
3.49877e-15
3.32433e-15
3.20859e-15
2.98689e-15
2.76887e-15
2.60793e-15
2.43558e-15
2.71408e-15
2.83933e-15
3.12172e-15
3.1273e-15
3.2476e-15
3.56821e-15
3.76405e-15
3.80657e-15
3.83527e-15
3.82371e-15
3.71218e-15
3.79154e-15
3.85695e-15
3.62359e-15
3.38851e-15
3.37287e-15
3.18747e-15
3.08956e-15
3.08764e-15
2.84401e-15
3.16641e-15
3.31634e-15
3.45781e-15
3.38054e-15
3.58439e-15
3.58394e-15
3.77213e-15
3.79733e-15
3.80843e-15
3.7921e-15
3.7791e-15
3.90286e-15
3.98503e-15
3.91436e-15
3.77871e-15
3.64872e-15
3.33671e-15
3.22249e-15
3.26999e-15
3.13872e-15
3.49649e-15
3.6806e-15
3.68022e-15
3.78586e-15
3.95028e-15
3.71653e-15
3.87338e-15
3.86253e-15
3.80442e-15
3.95022e-15
3.83826e-15
4.14287e-15
4.23385e-15
4.08337e-15
4.00532e-15
3.76525e-15
3.41504e-15
3.45095e-15
3.34408e-15
3.27447e-15
3.86448e-15
3.67458e-15
3.707e-15
3.95583e-15
4.22815e-15
4.00501e-15
4.02066e-15
3.98268e-15
3.79019e-15
4.086e-15
3.91386e-15
4.46969e-15
4.61696e-15
4.41226e-15
4.25095e-15
4.05984e-15
3.60787e-15
3.49044e-15
3.52382e-15
3.69458e-15
4.01629e-15
3.7855e-15
3.77356e-15
4.07567e-15
4.15188e-15
4.35777e-15
4.17083e-15
3.96175e-15
3.95647e-15
3.96018e-15
4.09748e-15
5.00817e-15
5.00428e-15
4.58177e-15
4.70384e-15
4.46128e-15
3.96087e-15
3.84127e-15
3.80511e-15
4.11552e-15
4.29964e-15
3.8716e-15
4.06524e-15
4.15579e-15
4.11435e-15
4.22076e-15
4.32946e-15
3.98611e-15
4.04082e-15
4.56097e-15
4.85722e-15
5.15953e-15
5.06388e-15
4.85532e-15
4.83831e-15
4.54965e-15
4.51559e-15
4.11402e-15
4.11648e-15
4.37015e-15
4.36455e-15
4.08528e-15
4.2748e-15
4.40956e-15
4.42412e-15
4.19958e-15
4.25105e-15
4.35943e-15
4.61229e-15
5.02408e-15
5.34173e-15
5.22021e-15
5.22877e-15
5.114e-15
5.05662e-15
4.90517e-15
4.83708e-15
4.60248e-15
4.20329e-15
4.37297e-15
4.70033e-15
4.06583e-15
4.299e-15
4.68544e-15
4.64718e-15
4.40385e-15
4.35678e-15
4.56841e-15
4.6878e-15
5.19172e-15
5.58098e-15
5.52384e-15
5.83648e-15
5.49301e-15
4.99796e-15
4.93826e-15
5.22704e-15
4.74658e-15
4.4415e-15
4.55388e-15
4.66508e-15
4.44492e-15
4.33758e-15
5.14248e-15
4.72671e-15
4.23368e-15
4.33296e-15
4.65592e-15
5.03038e-15
5.55661e-15
5.67623e-15
5.56017e-15
6.0827e-15
5.83907e-15
5.25545e-15
5.38326e-15
5.12107e-15
4.77614e-15
4.21658e-15
4.70073e-15
4.81435e-15
4.34953e-15
4.36962e-15
5.1368e-15
5.07154e-15
4.35742e-15
4.08149e-15
4.35463e-15
5.26692e-15
6.35113e-15
6.07724e-15
5.36762e-15
5.89736e-15
5.76406e-15
5.34319e-15
5.44572e-15
4.99913e-15
4.94862e-15
4.84691e-15
4.79138e-15
4.29944e-15
4.41851e-15
4.66174e-15
5.1215e-15
4.91862e-15
4.83564e-15
4.71893e-15
4.61664e-15
5.37191e-15
5.40896e-15
5.53064e-15
5.81698e-15
5.59597e-15
5.746e-15
4.96835e-15
5.32633e-15
6.30496e-15
5.98455e-15
5.12938e-15
4.80353e-15
4.31332e-15
4.44219e-15
5.40973e-15
4.92796e-15
4.54425e-15
4.838e-15
5.39478e-15
5.04211e-15
5.19725e-15
5.17577e-15
5.138e-15
5.59077e-15
5.78356e-15
5.72482e-15
5.24058e-15
5.46733e-15
6.36894e-15
6.05754e-15
5.39499e-15
4.99394e-15
4.66966e-15
4.72845e-15
5.0113e-15
5.20077e-15
4.772e-15
5.15779e-15
5.78787e-15
5.93214e-15
5.53594e-15
4.96501e-15
5.12882e-15
4.97912e-15
5.18569e-15
5.61022e-15
5.68978e-15
5.9768e-15
6.27946e-15
5.95195e-15
5.62183e-15
5.46394e-15
5.3249e-15
4.88798e-15
4.94417e-15
4.9531e-15
4.75623e-15
6.04012e-15
6.8003e-15
6.39101e-15
5.61292e-15
5.46235e-15
5.41104e-15
4.78799e-15
4.63634e-15
5.43761e-15
5.61209e-15
6.12085e-15
6.3587e-15
6.074e-15
5.51366e-15
5.41835e-15
5.17166e-15
4.87998e-15
5.54869e-15
5.56668e-15
5.40527e-15
6.4022e-15
7.38325e-15
6.63184e-15
6.23517e-15
6.44158e-15
5.19834e-15
4.7272e-15
4.35654e-15
5.10196e-15
5.67103e-15
5.64065e-15
5.9166e-15
6.37406e-15
5.58909e-15
5.3709e-15
5.11087e-15
4.30537e-15
5.31517e-15
6.08716e-15
6.3587e-15
7.35936e-15
7.47968e-15
7.60284e-15
6.57063e-15
6.36828e-15
5.4702e-15
3.81558e-15
3.77103e-15
4.76656e-15
6.14582e-15
5.69615e-15
5.96099e-15
6.22378e-15
5.60076e-15
5.30448e-15
4.44677e-15
4.45672e-15
4.63582e-15
5.47865e-15
7.0644e-15
8.01585e-15
8.27802e-15
8.00943e-15
6.77226e-15
5.76043e-15
5.49226e-15
3.82571e-15
3.59351e-15
4.58592e-15
5.37645e-15
5.30709e-15
6.22592e-15
6.01783e-15
5.57956e-15
5.1176e-15
)
;

boundaryField
{
    movingWall
    {
        type            zeroGradient;
    }
    fixedWalls
    {
        type            zeroGradient;
    }
    left
    {
        type            cyclic;
    }
    right
    {
        type            cyclic;
    }
    frontAndBack
    {
        type            empty;
    }
}


// ************************************************************************* //
