/*--------------------------------*- C++ -*----------------------------------*\
  =========                 |
  \\      /  F ield         | OpenFOAM: The Open Source CFD Toolbox
   \\    /   O peration     | Website:  https://openfoam.org
    \\  /    A nd           | Version:  8
     \\/     M anipulation  |
\*---------------------------------------------------------------------------*/
FoamFile
{
    version     2.0;
    format      ascii;
    class       volVectorField;
    location    "1.96";
    object      U;
}
// * * * * * * * * * * * * * * * * * * * * * * * * * * * * * * * * * * * * * //

dimensions      [0 1 -1 0 0 0 0];

internalField   nonuniform List<vector> 
400
(
(0.0249945 4.80318e-17 0)
(0.0249945 5.22438e-17 0)
(0.0249945 2.96105e-17 0)
(0.0249945 8.53906e-18 0)
(0.0249945 -3.91769e-18 0)
(0.0249945 -1.08404e-17 0)
(0.0249945 -1.33143e-17 0)
(0.0249945 -1.46157e-17 0)
(0.0249945 -1.45428e-17 0)
(0.0249945 -1.27605e-17 0)
(0.0249945 -1.12342e-17 0)
(0.0249945 -1.11215e-17 0)
(0.0249945 -9.59353e-18 0)
(0.0249945 -9.21182e-18 0)
(0.0249945 -7.42953e-18 0)
(0.0249945 -9.41683e-18 0)
(0.0249945 -2.22509e-18 0)
(0.0249945 9.26045e-18 0)
(0.0249945 2.88908e-17 0)
(0.0249945 4.8617e-17 0)
(0.0749836 1.17004e-16 0)
(0.0749836 1.14092e-16 0)
(0.0749836 6.16708e-17 0)
(0.0749836 1.25523e-17 0)
(0.0749836 -2.2351e-17 0)
(0.0749836 -4.94981e-17 0)
(0.0749836 -5.38378e-17 0)
(0.0749836 -5.49153e-17 0)
(0.0749836 -5.65373e-17 0)
(0.0749836 -5.31898e-17 0)
(0.0749836 -5.33009e-17 0)
(0.0749836 -5.0887e-17 0)
(0.0749836 -4.65501e-17 0)
(0.0749836 -4.23851e-17 0)
(0.0749836 -4.07392e-17 0)
(0.0749836 -3.49065e-17 0)
(0.0749836 -1.59361e-17 0)
(0.0749836 1.64374e-17 0)
(0.0749836 5.90687e-17 0)
(0.0749836 1.01245e-16 0)
(0.124973 2.19325e-16 0)
(0.124973 1.87168e-16 0)
(0.124973 1.09227e-16 0)
(0.124973 3.53545e-17 0)
(0.124973 -2.61133e-17 0)
(0.124973 -7.06366e-17 0)
(0.124973 -9.47461e-17 0)
(0.124973 -1.064e-16 0)
(0.124973 -1.09617e-16 0)
(0.124973 -1.0501e-16 0)
(0.124973 -8.72078e-17 0)
(0.124973 -9.20834e-17 0)
(0.124973 -9.67188e-17 0)
(0.124973 -8.3814e-17 0)
(0.124973 -6.62862e-17 0)
(0.124973 -4.8067e-17 0)
(0.124973 -3.11851e-18 0)
(0.124973 5.27046e-17 0)
(0.124973 1.14541e-16 0)
(0.124973 1.86788e-16 0)
(0.174963 2.76572e-16 0)
(0.174963 2.23358e-16 0)
(0.174963 1.41725e-16 0)
(0.174963 5.24271e-17 0)
(0.174963 -3.6834e-17 0)
(0.174963 -7.9778e-17 0)
(0.174963 -1.22826e-16 0)
(0.174963 -1.38862e-16 0)
(0.174963 -1.46642e-16 0)
(0.174963 -1.40243e-16 0)
(0.174963 -1.31606e-16 0)
(0.174963 -1.36938e-16 0)
(0.174963 -1.42635e-16 0)
(0.174963 -1.30981e-16 0)
(0.174963 -9.88239e-17 0)
(0.174963 -4.63404e-17 0)
(0.174963 2.99531e-17 0)
(0.174963 1.10388e-16 0)
(0.174963 1.84788e-16 0)
(0.174963 2.58491e-16 0)
(0.224954 2.9078e-16 0)
(0.224954 2.44212e-16 0)
(0.224954 1.64214e-16 0)
(0.224954 4.61118e-17 0)
(0.224954 -5.90467e-17 0)
(0.224954 -1.02633e-16 0)
(0.224954 -1.44092e-16 0)
(0.224954 -1.60266e-16 0)
(0.224954 -1.62278e-16 0)
(0.224954 -1.7551e-16 0)
(0.224954 -1.80987e-16 0)
(0.224954 -1.96592e-16 0)
(0.224954 -1.85913e-16 0)
(0.224954 -1.51975e-16 0)
(0.224954 -1.0522e-16 0)
(0.224954 -1.68398e-17 0)
(0.224954 8.00721e-17 0)
(0.224954 1.58361e-16 0)
(0.224954 2.4437e-16 0)
(0.224954 2.9919e-16 0)
(0.274947 2.88297e-16 0)
(0.274947 2.66705e-16 0)
(0.274947 1.84361e-16 0)
(0.274947 5.15517e-17 0)
(0.274947 -6.01423e-17 0)
(0.274947 -1.30793e-16 0)
(0.274947 -1.65031e-16 0)
(0.274947 -1.78072e-16 0)
(0.274947 -1.73238e-16 0)
(0.274947 -2.10182e-16 0)
(0.274947 -2.12511e-16 0)
(0.274947 -2.43733e-16 0)
(0.274947 -2.18901e-16 0)
(0.274947 -1.51599e-16 0)
(0.274947 -6.34981e-17 0)
(0.274947 2.49806e-17 0)
(0.274947 1.23202e-16 0)
(0.274947 2.03732e-16 0)
(0.274947 2.67701e-16 0)
(0.274947 2.83678e-16 0)
(0.32494 2.74247e-16 0)
(0.32494 2.51371e-16 0)
(0.32494 1.79354e-16 0)
(0.32494 5.857e-17 0)
(0.32494 -3.75802e-17 0)
(0.32494 -1.40623e-16 0)
(0.32494 -1.65404e-16 0)
(0.32494 -1.75022e-16 0)
(0.32494 -1.95756e-16 0)
(0.32494 -2.11775e-16 0)
(0.32494 -2.49305e-16 0)
(0.32494 -2.75834e-16 0)
(0.32494 -2.29253e-16 0)
(0.32494 -1.23428e-16 0)
(0.32494 -4.10069e-17 0)
(0.32494 6.11691e-17 0)
(0.32494 1.50215e-16 0)
(0.32494 2.22719e-16 0)
(0.32494 2.66014e-16 0)
(0.32494 2.57023e-16 0)
(0.374935 2.57508e-16 0)
(0.374935 2.18688e-16 0)
(0.374935 1.26002e-16 0)
(0.374935 4.27377e-17 0)
(0.374935 -3.13137e-17 0)
(0.374935 -1.09265e-16 0)
(0.374935 -1.54193e-16 0)
(0.374935 -1.7313e-16 0)
(0.374935 -2.14823e-16 0)
(0.374935 -2.60609e-16 0)
(0.374935 -3.03948e-16 0)
(0.374935 -2.69559e-16 0)
(0.374935 -1.92216e-16 0)
(0.374935 -9.51453e-17 0)
(0.374935 1.05904e-17 0)
(0.374935 1.03831e-16 0)
(0.374935 1.50411e-16 0)
(0.374935 2.31061e-16 0)
(0.374935 2.69434e-16 0)
(0.374935 2.81705e-16 0)
(0.424932 2.79896e-16 0)
(0.424932 2.03988e-16 0)
(0.424932 8.64322e-17 0)
(0.424932 -2.99143e-18 0)
(0.424932 -7.41343e-17 0)
(0.424932 -1.02293e-16 0)
(0.424932 -1.4178e-16 0)
(0.424932 -1.97169e-16 0)
(0.424932 -2.60257e-16 0)
(0.424932 -3.04677e-16 0)
(0.424932 -3.18883e-16 0)
(0.424932 -2.23731e-16 0)
(0.424932 -1.61463e-16 0)
(0.424932 -8.09841e-17 0)
(0.424932 3.94347e-17 0)
(0.424932 1.12182e-16 0)
(0.424932 1.52872e-16 0)
(0.424932 2.31028e-16 0)
(0.424932 3.05028e-16 0)
(0.424932 3.31132e-16 0)
(0.47493 3.06889e-16 0)
(0.47493 2.15334e-16 0)
(0.47493 9.75132e-17 0)
(0.47493 -3.70659e-17 0)
(0.47493 -1.29491e-16 0)
(0.47493 -1.43804e-16 0)
(0.47493 -1.65451e-16 0)
(0.47493 -2.27986e-16 0)
(0.47493 -2.69472e-16 0)
(0.47493 -2.85451e-16 0)
(0.47493 -2.65781e-16 0)
(0.47493 -1.9788e-16 0)
(0.47493 -1.68494e-16 0)
(0.47493 -8.27622e-17 0)
(0.47493 2.37582e-17 0)
(0.47493 9.78745e-17 0)
(0.47493 1.55242e-16 0)
(0.47493 2.39678e-16 0)
(0.47493 3.35669e-16 0)
(0.47493 3.56427e-16 0)
(0.52493 3.12921e-16 0)
(0.52493 2.12482e-16 0)
(0.52493 1.00194e-16 0)
(0.52493 -6.00777e-17 0)
(0.52493 -1.28394e-16 0)
(0.52493 -1.55845e-16 0)
(0.52493 -1.89088e-16 0)
(0.52493 -2.34725e-16 0)
(0.52493 -2.81926e-16 0)
(0.52493 -2.82501e-16 0)
(0.52493 -2.2979e-16 0)
(0.52493 -1.61376e-16 0)
(0.52493 -1.23874e-16 0)
(0.52493 -9.10474e-17 0)
(0.52493 1.68577e-18 0)
(0.52493 6.48977e-17 0)
(0.52493 1.7158e-16 0)
(0.52493 2.72359e-16 0)
(0.52493 3.53453e-16 0)
(0.52493 3.51044e-16 0)
(0.574932 2.79729e-16 0)
(0.574932 1.84239e-16 0)
(0.574932 6.58328e-17 0)
(0.574932 -6.69648e-17 0)
(0.574932 -1.33693e-16 0)
(0.574932 -1.59458e-16 0)
(0.574932 -1.75376e-16 0)
(0.574932 -2.2565e-16 0)
(0.574932 -2.9858e-16 0)
(0.574932 -3.42595e-16 0)
(0.574932 -2.31326e-16 0)
(0.574932 -9.69058e-17 0)
(0.574932 -3.21969e-17 0)
(0.574932 -8.19006e-18 0)
(0.574932 9.8982e-18 0)
(0.574932 5.59119e-17 0)
(0.574932 2.00942e-16 0)
(0.574932 2.63089e-16 0)
(0.574932 2.91876e-16 0)
(0.574932 3.15899e-16 0)
(0.624935 2.29393e-16 0)
(0.624935 1.21619e-16 0)
(0.624935 -1.08515e-17 0)
(0.624935 -8.42004e-17 0)
(0.624935 -1.30517e-16 0)
(0.624935 -2.04154e-16 0)
(0.624935 -2.40882e-16 0)
(0.624935 -2.4929e-16 0)
(0.624935 -2.87888e-16 0)
(0.624935 -2.50017e-16 0)
(0.624935 -1.77723e-16 0)
(0.624935 -8.41717e-17 0)
(0.624935 4.51073e-17 0)
(0.624935 8.76767e-17 0)
(0.624935 1.15658e-16 0)
(0.624935 1.48206e-16 0)
(0.624935 1.28316e-16 0)
(0.624935 1.71619e-16 0)
(0.624935 2.08816e-16 0)
(0.624935 2.35832e-16 0)
(0.67494 1.37551e-16 0)
(0.67494 2.54301e-17 0)
(0.67494 -1.05778e-16 0)
(0.67494 -9.82691e-17 0)
(0.67494 -1.17942e-16 0)
(0.67494 -2.14175e-16 0)
(0.67494 -3.30884e-16 0)
(0.67494 -3.14864e-16 0)
(0.67494 -2.60345e-16 0)
(0.67494 -1.28583e-16 0)
(0.67494 -8.33286e-17 0)
(0.67494 -4.42551e-17 0)
(0.67494 7.77908e-17 0)
(0.67494 1.37511e-16 0)
(0.67494 1.89636e-16 0)
(0.67494 2.18379e-16 0)
(0.67494 1.5269e-16 0)
(0.67494 1.61656e-16 0)
(0.67494 1.81302e-16 0)
(0.67494 1.62379e-16 0)
(0.724947 2.30363e-17 0)
(0.724947 -2.68018e-17 0)
(0.724947 -8.3873e-17 0)
(0.724947 -9.43438e-17 0)
(0.724947 -1.38657e-16 0)
(0.724947 -2.25471e-16 0)
(0.724947 -3.39684e-16 0)
(0.724947 -3.80466e-16 0)
(0.724947 -2.49955e-16 0)
(0.724947 -1.3101e-16 0)
(0.724947 -3.20485e-17 0)
(0.724947 7.48798e-17 0)
(0.724947 1.56579e-16 0)
(0.724947 1.9599e-16 0)
(0.724947 1.94532e-16 0)
(0.724947 2.21026e-16 0)
(0.724947 2.51981e-16 0)
(0.724947 2.34734e-16 0)
(0.724947 1.48229e-16 0)
(0.724947 8.49709e-17 0)
(0.774954 -3.58871e-17 0)
(0.774954 -3.12759e-17 0)
(0.774954 2.24734e-17 0)
(0.774954 -4.55639e-17 0)
(0.774954 -1.03378e-16 0)
(0.774954 -2.72108e-16 0)
(0.774954 -3.59256e-16 0)
(0.774954 -3.53682e-16 0)
(0.774954 -2.45906e-16 0)
(0.774954 -1.31907e-16 0)
(0.774954 -2.82302e-17 0)
(0.774954 1.41193e-16 0)
(0.774954 2.32262e-16 0)
(0.774954 2.49948e-16 0)
(0.774954 2.23864e-16 0)
(0.774954 2.19784e-16 0)
(0.774954 2.42413e-16 0)
(0.774954 1.80806e-16 0)
(0.774954 1.3726e-16 0)
(0.774954 4.43871e-17 0)
(0.824963 -1.07545e-17 0)
(0.824963 1.99411e-17 0)
(0.824963 2.42932e-17 0)
(0.824963 2.39798e-17 0)
(0.824963 -8.58243e-17 0)
(0.824963 -2.20327e-16 0)
(0.824963 -3.23496e-16 0)
(0.824963 -2.70098e-16 0)
(0.824963 -1.95563e-16 0)
(0.824963 -1.76026e-16 0)
(0.824963 3.34666e-18 0)
(0.824963 1.0322e-16 0)
(0.824963 2.1522e-16 0)
(0.824963 2.42051e-16 0)
(0.824963 2.21354e-16 0)
(0.824963 2.21363e-16 0)
(0.824963 2.11916e-16 0)
(0.824963 1.20235e-16 0)
(0.824963 9.07863e-17 0)
(0.824963 5.01963e-17 0)
(0.874973 4.06076e-17 0)
(0.874973 8.15237e-17 0)
(0.874973 7.39939e-17 0)
(0.874973 3.89679e-17 0)
(0.874973 -8.17286e-17 0)
(0.874973 -1.76369e-16 0)
(0.874973 -1.90504e-16 0)
(0.874973 -2.53966e-16 0)
(0.874973 -1.69135e-16 0)
(0.874973 -9.31653e-17 0)
(0.874973 7.61863e-18 0)
(0.874973 1.09137e-16 0)
(0.874973 1.77336e-16 0)
(0.874973 1.81544e-16 0)
(0.874973 1.24955e-16 0)
(0.874973 1.55604e-16 0)
(0.874973 1.32177e-16 0)
(0.874973 9.33381e-17 0)
(0.874973 6.01741e-17 0)
(0.874973 5.65578e-17 0)
(0.924984 6.94531e-17 0)
(0.924984 6.81049e-17 0)
(0.924984 1.45579e-16 0)
(0.924984 1.10809e-16 0)
(0.924984 -3.71417e-17 0)
(0.924984 -1.28506e-16 0)
(0.924984 -1.50622e-16 0)
(0.924984 -1.82274e-16 0)
(0.924984 -1.15219e-16 0)
(0.924984 3.04691e-17 0)
(0.924984 -2.03729e-18 0)
(0.924984 9.53555e-17 0)
(0.924984 1.03082e-16 0)
(0.924984 1.23172e-16 0)
(0.924984 9.33098e-17 0)
(0.924984 8.25522e-17 0)
(0.924984 2.73071e-17 0)
(0.924984 6.29813e-17 0)
(0.924984 5.24645e-17 0)
(0.924984 5.20598e-17 0)
(0.974994 4.26232e-17 0)
(0.974994 4.59076e-18 0)
(0.974994 6.60664e-17 0)
(0.974994 9.01141e-17 0)
(0.974994 2.81095e-18 0)
(0.974994 -2.42923e-17 0)
(0.974994 -6.5117e-17 0)
(0.974994 -6.08411e-17 0)
(0.974994 -3.69527e-17 0)
(0.974994 3.2523e-17 0)
(0.974994 1.70786e-17 0)
(0.974994 1.17552e-17 0)
(0.974994 2.78726e-17 0)
(0.974994 4.31814e-17 0)
(0.974994 6.65465e-17 0)
(0.974994 3.21966e-17 0)
(0.974994 -1.17004e-17 0)
(0.974994 2.03956e-17 0)
(0.974994 1.90548e-17 0)
(0.974994 2.61673e-17 0)
)
;

boundaryField
{
    movingWall
    {
        type            fixedValue;
        value           uniform (1 0 0);
    }
    fixedWalls
    {
        type            noSlip;
    }
    left
    {
        type            cyclic;
    }
    right
    {
        type            cyclic;
    }
    frontAndBack
    {
        type            empty;
    }
}


// ************************************************************************* //
