0 	2.19336e-07
1.57135 	-3.84641e-07
3.1427 	-6.72031e-06
4.71405 	-2.57851e-05
6.28539 	-7.20091e-05
7.85674 	-0.000186455
9.42809 	-0.00054484
10.9994 	-0.00226494
12.5708 	-0.00853632
14.1421 	0.240992
