/*--------------------------------*- C++ -*----------------------------------*\
  =========                 |
  \\      /  F ield         | OpenFOAM: The Open Source CFD Toolbox
   \\    /   O peration     | Website:  https://openfoam.org
    \\  /    A nd           | Version:  8
     \\/     M anipulation  |
\*---------------------------------------------------------------------------*/
FoamFile
{
    version     2.0;
    format      ascii;
    class       volVectorField;
    location    "5";
    object      U;
}
// * * * * * * * * * * * * * * * * * * * * * * * * * * * * * * * * * * * * * //

dimensions      [0 1 -1 0 0 0 0];

internalField   nonuniform List<vector> 
400
(
(1.00007 -7.21732e-06 0)
(1.00005 0.000265039 0)
(0.999771 0.000986349 0)
(0.999538 0.00218169 0)
(0.999405 0.00355936 0)
(0.999331 0.0047714 0)
(0.999304 0.00575717 0)
(0.999356 0.0065235 0)
(0.999481 0.00700963 0)
(0.999665 0.00716841 0)
(0.999918 0.00702447 0)
(1.00021 0.0066291 0)
(1.00051 0.00601577 0)
(1.00076 0.00525919 0)
(1.00093 0.00447924 0)
(1.00105 0.00375384 0)
(1.00113 0.00309656 0)
(1.00122 0.00250021 0)
(1.00116 0.00202236 0)
(1.00121 0.0016621 0)
(1.00006 -1.44886e-05 0)
(0.99999 0.000337196 0)
(0.999827 0.00118229 0)
(0.999857 0.00239602 0)
(0.999898 0.00366882 0)
(0.999929 0.00477869 0)
(1.00013 0.00571282 0)
(1.00048 0.0064328 0)
(1.00086 0.00685586 0)
(1.00126 0.00696948 0)
(1.00171 0.00680993 0)
(1.00219 0.00641025 0)
(1.00262 0.00581239 0)
(1.003 0.00510076 0)
(1.00333 0.0043697 0)
(1.00362 0.00367349 0)
(1.00386 0.00303661 0)
(1.00411 0.00246536 0)
(1.00421 0.00199812 0)
(1.00465 0.00161923 0)
(1.00005 -2.42746e-05 0)
(1.00001 0.000356476 0)
(1.00001 0.00121381 0)
(1.00024 0.00234842 0)
(1.00046 0.00351117 0)
(1.00075 0.00453348 0)
(1.0013 0.00538501 0)
(1.00198 0.00602765 0)
(1.00267 0.00639076 0)
(1.00339 0.00646818 0)
(1.00415 0.00629795 0)
(1.00489 0.005912 0)
(1.00558 0.00535534 0)
(1.00622 0.00470079 0)
(1.00678 0.00401997 0)
(1.00728 0.00335976 0)
(1.00771 0.00275255 0)
(1.00815 0.0022134 0)
(1.00843 0.00175468 0)
(1.009 0.00138729 0)
(1.00005 -4.33503e-05 0)
(1.00001 0.000311158 0)
(1.0001 0.00110494 0)
(1.00051 0.0021087 0)
(1.00091 0.00313038 0)
(1.00144 0.00404156 0)
(1.00226 0.00479863 0)
(1.00325 0.00536371 0)
(1.00422 0.00568226 0)
(1.00521 0.00574236 0)
(1.00623 0.00557654 0)
(1.00722 0.00522621 0)
(1.00812 0.00473297 0)
(1.00893 0.00414638 0)
(1.00965 0.00352246 0)
(1.01029 0.00291115 0)
(1.01084 0.00234638 0)
(1.01138 0.00184729 0)
(1.01175 0.00141571 0)
(1.01243 0.00105875 0)
(1.00004 -5.55771e-05 0)
(0.999989 0.000234077 0)
(1.00014 0.000908136 0)
(1.00064 0.00174806 0)
(1.00118 0.00260653 0)
(1.00188 0.00338713 0)
(1.00291 0.00403517 0)
(1.0041 0.00450898 0)
(1.00527 0.0047716 0)
(1.00646 0.00482269 0)
(1.00767 0.00468739 0)
(1.00884 0.00439063 0)
(1.0099 0.00396516 0)
(1.01086 0.00345761 0)
(1.0117 0.00291577 0)
(1.01245 0.0023774 0)
(1.01309 0.00186949 0)
(1.0137 0.00141579 0)
(1.01413 0.00101602 0)
(1.01488 0.000668746 0)
(1.00003 -5.84345e-05 0)
(0.999972 0.000152417 0)
(1.00014 0.000669982 0)
(1.00071 0.00132088 0)
(1.00134 0.00199933 0)
(1.00214 0.00262225 0)
(1.0033 0.00313734 0)
(1.00463 0.003517 0)
(1.00593 0.00373502 0)
(1.00725 0.00378462 0)
(1.00858 0.00368115 0)
(1.00985 0.00344383 0)
(1.01101 0.00309991 0)
(1.01206 0.00268637 0)
(1.01298 0.00223923 0)
(1.01378 0.00178684 0)
(1.01448 0.00134925 0)
(1.01512 0.000950519 0)
(1.01558 0.0005882 0)
(1.01635 0.000252838 0)
(1.00003 -5.53609e-05 0)
(0.999964 7.51917e-05 0)
(1.00014 0.00041555 0)
(1.00074 0.000851654 0)
(1.00142 0.00132379 0)
(1.00229 0.00177309 0)
(1.00354 0.0021553 0)
(1.00495 0.00244676 0)
(1.00633 0.00262434 0)
(1.00772 0.00267613 0)
(1.00912 0.00261079 0)
(1.01045 0.00244242 0)
(1.01166 0.00218967 0)
(1.01274 0.00187798 0)
(1.0137 0.00153307 0)
(1.01453 0.00117456 0)
(1.01523 0.000815212 0)
(1.01587 0.000477384 0)
(1.01634 0.000158464 0)
(1.01708 -0.000160544 0)
(1.00003 -4.87937e-05 0)
(0.999963 -6.26849e-07 0)
(1.00014 0.000148828 0)
(1.00075 0.000357202 0)
(1.00145 0.000611288 0)
(1.00237 0.000879027 0)
(1.00366 0.00112524 0)
(1.00512 0.00132796 0)
(1.00655 0.00146739 0)
(1.00798 0.00152769 0)
(1.00941 0.00150918 0)
(1.01076 0.00141808 0)
(1.01199 0.00126274 0)
(1.01308 0.00105732 0)
(1.01404 0.000818857 0)
(1.01487 0.000560205 0)
(1.01557 0.000286459 0)
(1.01619 1.65403e-05 0)
(1.01664 -0.000252357 0)
(1.01734 -0.000548206 0)
(1.00003 -4.18267e-05 0)
(0.999965 -7.79291e-05 0)
(1.00014 -0.000120961 0)
(1.00075 -0.000144111 0)
(1.00146 -0.000115592 0)
(1.00239 -3.81851e-05 0)
(1.0037 6.82208e-05 0)
(1.00519 0.000182891 0)
(1.00663 0.000287267 0)
(1.00807 0.000361943 0)
(1.00951 0.000396942 0)
(1.01086 0.000388444 0)
(1.01209 0.00033454 0)
(1.01318 0.000238931 0)
(1.01413 0.000110252 0)
(1.01494 -4.46292e-05 0)
(1.01562 -0.000227327 0)
(1.01622 -0.000423276 0)
(1.01665 -0.000635977 0)
(1.01729 -0.000900497 0)
(1.00003 -3.64133e-05 0)
(0.999971 -0.000158268 0)
(1.00015 -0.000390354 0)
(1.00075 -0.000643507 0)
(1.00146 -0.000842452 0)
(1.00237 -0.000959776 0)
(1.00368 -0.000994092 0)
(1.00515 -0.000965177 0)
(1.00659 -0.000893743 0)
(1.00802 -0.000802688 0)
(1.00944 -0.000711774 0)
(1.01078 -0.000635227 0)
(1.01199 -0.000585596 0)
(1.01307 -0.000569593 0)
(1.01401 -0.000587181 0)
(1.0148 -0.000637196 0)
(1.01546 -0.000726069 0)
(1.01604 -0.000843979 0)
(1.01645 -0.000995575 0)
(1.01704 -0.00122155 0)
(1.00003 -3.3622e-05 0)
(0.999978 -0.000241874 0)
(1.00016 -0.000656464 0)
(1.00074 -0.00113397 0)
(1.00142 -0.00155467 0)
(1.00231 -0.00186427 0)
(1.00358 -0.00203962 0)
(1.00502 -0.00209566 0)
(1.00643 -0.00205619 0)
(1.00782 -0.00194895 0)
(1.00921 -0.00180428 0)
(1.01052 -0.00164465 0)
(1.01171 -0.00149212 0)
(1.01277 -0.00136462 0)
(1.01369 -0.00127171 0)
(1.01447 -0.00121789 0)
(1.01512 -0.00121274 0)
(1.01569 -0.00125134 0)
(1.01609 -0.00133937 0)
(1.01665 -0.00152216 0)
(1.00004 -3.40913e-05 0)
(0.999986 -0.000327823 0)
(1.00016 -0.000914089 0)
(1.00073 -0.00160764 0)
(1.00137 -0.00223954 0)
(1.00221 -0.00273124 0)
(1.00342 -0.00304562 0)
(1.0048 -0.00318835 0)
(1.00614 -0.00318208 0)
(1.00747 -0.00306065 0)
(1.00882 -0.00286615 0)
(1.01009 -0.00263014 0)
(1.01124 -0.00238028 0)
(1.01227 -0.00214484 0)
(1.01318 -0.00194409 0)
(1.01395 -0.00178911 0)
(1.0146 -0.00169165 0)
(1.01517 -0.00165237 0)
(1.01557 -0.00167645 0)
(1.01613 -0.00181271 0)
(1.00004 -3.76589e-05 0)
(0.999992 -0.000413768 0)
(1.00015 -0.0011561 0)
(1.00069 -0.00205304 0)
(1.00128 -0.00288522 0)
(1.00204 -0.00354461 0)
(1.00317 -0.00398954 0)
(1.00446 -0.00422002 0)
(1.00572 -0.00425255 0)
(1.00697 -0.00412143 0)
(1.00824 -0.00388331 0)
(1.00946 -0.00357998 0)
(1.01057 -0.00324381 0)
(1.01158 -0.00290942 0)
(1.01247 -0.0026074 0)
(1.01323 -0.00235612 0)
(1.01389 -0.00217009 0)
(1.01446 -0.00205579 0)
(1.01486 -0.00201626 0)
(1.01544 -0.00210239 0)
(1.00004 -4.33754e-05 0)
(0.999997 -0.000496233 0)
(1.00014 -0.00137544 0)
(1.00063 -0.00245345 0)
(1.00115 -0.00347277 0)
(1.00182 -0.00428967 0)
(1.00283 -0.00485468 0)
(1.00399 -0.00516849 0)
(1.00514 -0.00524553 0)
(1.00629 -0.00511598 0)
(1.00747 -0.00484303 0)
(1.00861 -0.00448298 0)
(1.00967 -0.00407403 0)
(1.01064 -0.00365462 0)
(1.01151 -0.00326262 0)
(1.01226 -0.00292358 0)
(1.01291 -0.00265509 0)
(1.0135 -0.0024699 0)
(1.0139 -0.00236753 0)
(1.0145 -0.00239994 0)
(1.00004 -5.04054e-05 0)
(1 -0.000570054 0)
(1.00011 -0.0015655 0)
(1.00053 -0.00279318 0)
(1.00096 -0.00397543 0)
(1.0015 -0.00494038 0)
(1.00236 -0.00562281 0)
(1.00338 -0.00601613 0)
(1.00438 -0.00613886 0)
(1.0054 -0.00602355 0)
(1.00646 -0.00573116 0)
(1.0075 -0.0053272 0)
(1.00848 -0.00485914 0)
(1.00939 -0.00436998 0)
(1.01021 -0.00390219 0)
(1.01094 -0.003487 0)
(1.01158 -0.00314462 0)
(1.01217 -0.00289345 0)
(1.01257 -0.00272996 0)
(1.01317 -0.00270517 0)
(1.00004 -5.93927e-05 0)
(0.999999 -0.000629181 0)
(1.00006 -0.00171585 0)
(1.00038 -0.0030615 0)
(1.00068 -0.00437095 0)
(1.00107 -0.00546079 0)
(1.00175 -0.00625815 0)
(1.00257 -0.00673757 0)
(1.00339 -0.00691044 0)
(1.00423 -0.00681823 0)
(1.00513 -0.00652404 0)
(1.00602 -0.00609347 0)
(1.00689 -0.00558187 0)
(1.0077 -0.00503784 0)
(1.00845 -0.00450813 0)
(1.00912 -0.00402831 0)
(1.00971 -0.0036214 0)
(1.01028 -0.0033081 0)
(1.01064 -0.00308477 0)
(1.01122 -0.00299703 0)
(1.00005 -6.82284e-05 0)
(0.999991 -0.000660911 0)
(0.999973 -0.0018046 0)
(1.00017 -0.00324624 0)
(1.00031 -0.00465244 0)
(1.00049 -0.00583178 0)
(1.00093 -0.00672258 0)
(1.00151 -0.00728639 0)
(1.00208 -0.00751658 0)
(1.0027 -0.00745824 0)
(1.00337 -0.00717774 0)
(1.00406 -0.00674099 0)
(1.00475 -0.00620621 0)
(1.00542 -0.00562664 0)
(1.00604 -0.00505147 0)
(1.0066 -0.00451989 0)
(1.00711 -0.00405865 0)
(1.00761 -0.00369076 0)
(1.0079 -0.00341103 0)
(1.0084 -0.00324852 0)
(1.00005 -7.10357e-05 0)
(0.999965 -0.000641272 0)
(0.999827 -0.00178183 0)
(0.999855 -0.00328516 0)
(0.999801 -0.00477201 0)
(0.99973 -0.00602006 0)
(0.999877 -0.00698116 0)
(1.00016 -0.00761434 0)
(1.00043 -0.00790139 0)
(1.00075 -0.0078874 0)
(1.00114 -0.00764042 0)
(1.00158 -0.00722158 0)
(1.00204 -0.00668722 0)
(1.00251 -0.00609274 0)
(1.00296 -0.00549094 0)
(1.00337 -0.00492686 0)
(1.00374 -0.00442306 0)
(1.00412 -0.00400388 0)
(1.0043 -0.00367687 0)
(1.00468 -0.00344897 0)
(1.00005 -5.41569e-05 0)
(0.999929 -0.000537511 0)
(0.99964 -0.00160225 0)
(0.999486 -0.00311986 0)
(0.999284 -0.00465584 0)
(0.998984 -0.00594572 0)
(0.998812 -0.00695495 0)
(0.998767 -0.0076488 0)
(0.998733 -0.00799674 0)
(0.998722 -0.00803795 0)
(0.998775 -0.00783964 0)
(0.998889 -0.00745852 0)
(0.999045 -0.00694595 0)
(0.999221 -0.00635586 0)
(0.999389 -0.00574301 0)
(0.999537 -0.00516231 0)
(0.999673 -0.00463836 0)
(0.999841 -0.00418155 0)
(0.999827 -0.00382337 0)
(1.00006 -0.00355303 0)
(1.00005 -2.78818e-05 0)
(0.999961 -0.0003928 0)
(0.999546 -0.00129837 0)
(0.999152 -0.00274775 0)
(0.998819 -0.00433694 0)
(0.998458 -0.00569356 0)
(0.998126 -0.00672288 0)
(0.997849 -0.00742924 0)
(0.997592 -0.00780696 0)
(0.997375 -0.00788248 0)
(0.99722 -0.00771311 0)
(0.997113 -0.00735496 0)
(0.997036 -0.00685704 0)
(0.996986 -0.00627104 0)
(0.996933 -0.00565703 0)
(0.99685 -0.00507812 0)
(0.99675 -0.00456253 0)
(0.996707 -0.00410504 0)
(0.996566 -0.00374662 0)
(0.996451 -0.00349604 0)
)
;

boundaryField
{
    inlet
    {
        type            fixedValue;
        value           uniform (1 0 0);
    }
    outlet
    {
        type            zeroGradient;
    }
    up
    {
        type            zeroGradient;
    }
    down
    {
        type            zeroGradient;
    }
    frontAndBack
    {
        type            empty;
    }
}


// ************************************************************************* //
