/*--------------------------------*- C++ -*----------------------------------*\
  =========                 |
  \\      /  F ield         | OpenFOAM: The Open Source CFD Toolbox
   \\    /   O peration     | Website:  https://openfoam.org
    \\  /    A nd           | Version:  8
     \\/     M anipulation  |
\*---------------------------------------------------------------------------*/
FoamFile
{
    version     2.0;
    format      ascii;
    class       surfaceScalarField;
    location    "51.5";
    object      phi;
}
// * * * * * * * * * * * * * * * * * * * * * * * * * * * * * * * * * * * * * //

dimensions      [0 3 -1 0 0 0 0];

internalField   nonuniform List<scalar> 
208
(
1.92e-05
-1.92e-05
3.35501e-05
-1.43502e-05
3.39126e-05
-3.62458e-07
1.05695e-05
2.33431e-05
-6.90094e-05
7.95789e-05
7.39545e-05
-0.000142964
2.36315e-06
-2.15631e-05
-1.20149e-05
2.79235e-08
-5.45568e-05
4.21794e-05
-0.000108821
7.76074e-05
-0.000137864
0.000108622
7.35654e-05
-0.000137475
-1.70959e-05
-4.46719e-06
-4.70752e-05
3.00072e-05
-8.04096e-05
7.55138e-05
-0.000107664
0.000104862
-0.000113919
0.000114876
5.69141e-05
-9.72675e-05
-2.20664e-05
1.75992e-05
-4.60213e-05
5.39621e-05
-6.93705e-05
9.8863e-05
-8.08e-05
0.000116292
-7.17881e-05
0.000105864
3.63385e-05
-5.12125e-05
-1.56889e-05
3.32881e-05
-3.46797e-05
7.29529e-05
-4.6007e-05
0.00011019
-4.51591e-05
0.000115444
-3.3719e-05
9.44241e-05
3.05034e-05
-2.78839e-05
-6.96181e-06
4.02499e-05
-1.01214e-05
7.61125e-05
-8.97199e-06
0.000109041
-6.46447e-06
0.000112936
-1.57071e-06
8.95303e-05
3.53752e-05
-6.44248e-06
2.24387e-06
3.8006e-05
3.13718e-06
7.52192e-05
1.12404e-05
0.000100938
2.39345e-05
0.000100242
3.67104e-05
7.67544e-05
3.7429e-05
3.46566e-05
1.03921e-05
2.76139e-05
2.62844e-05
5.93269e-05
5.20793e-05
7.51428e-05
7.14563e-05
8.08651e-05
8.61156e-05
6.20951e-05
4.02304e-05
8.33142e-05
-3.72082e-05
6.48221e-05
-1.55526e-05
3.76713e-05
1.56327e-05
4.39576e-05
5.11437e-05
4.53542e-05
7.78152e-05
3.54236e-05
2.65337e-05
9.15118e-05
6.48221e-05
0.000102493
0.000146451
0.000191805
0.000227229
0.000253762
-0.000117176
9.83617e-05
-0.000124149
-6.85481e-05
-5.07191e-05
2.091e-06
-2.04693e-05
-3.85113e-05
-9.56755e-06
-0.000152095
0.000131626
-0.000112413
7.33e-05
-9.76748e-05
-6.54573e-05
-4.20463e-05
-9.41398e-05
-0.000194141
-6.6139e-05
4.21715e-05
-6.46705e-05
-6.69259e-05
-3.84291e-05
-0.000120381
-0.000232571
-2.75416e-05
1.85006e-05
-2.77646e-05
-6.67029e-05
-1.98775e-05
-0.000128268
-0.000252448
-1.35277e-05
4.14439e-06
-1.66233e-05
-6.36072e-05
-1.52527e-05
-0.000129639
-0.000267701
6.93776e-06
-9.23586e-06
2.71261e-06
-5.93821e-05
-3.76572e-06
-0.000123161
-0.000271466
3.54417e-05
-1.0021e-05
1.5311e-05
-3.92513e-05
1.79041e-06
-0.00010964
-0.000269676
7.09926e-05
2.3006e-06
4.29048e-05
-1.11635e-05
2.74935e-05
-9.42288e-05
-0.000242183
8.78102e-05
6.00223e-06
8.48707e-05
-8.22401e-06
6.93221e-05
-7.86801e-05
-0.00017286
0.000259765
0.000251541
0.00017286
-3.9602e-05
3.9602e-05
-6.44159e-05
2.48139e-05
-6.01638e-05
-4.25215e-06
-6.01638e-05
-3.40424e-05
7.36445e-05
-4.28161e-05
3.35876e-05
-4.43432e-05
-2.72499e-06
-0.000104507
-2.18993e-05
9.55438e-05
-9.27377e-06
2.0962e-05
-2.38869e-05
1.18881e-05
-0.000128394
-2.86056e-05
-5.55257e-06
-3.23198e-06
)
;

boundaryField
{
    movingWall
    {
        type            calculated;
        value           uniform 0;
    }
    fixedWalls
    {
        type            calculated;
        value           uniform 0;
    }
    frontAndBack
    {
        type            empty;
        value           nonuniform List<scalar> 0();
    }
}


// ************************************************************************* //
