/*--------------------------------*- C++ -*----------------------------------*\
  =========                 |
  \\      /  F ield         | OpenFOAM: The Open Source CFD Toolbox
   \\    /   O peration     | Website:  https://openfoam.org
    \\  /    A nd           | Version:  8
     \\/     M anipulation  |
\*---------------------------------------------------------------------------*/
FoamFile
{
    version     2.0;
    format      ascii;
    class       volVectorField;
    location    "51.5";
    object      U;
}
// * * * * * * * * * * * * * * * * * * * * * * * * * * * * * * * * * * * * * //

dimensions      [0 1 -1 0 0 0 0];

internalField   nonuniform List<vector> 
116
(
(0.0195286 -0.011684 0)
(0.0176433 -0.0115646 0)
(0.0511358 -0.0208994 0)
(0.0131132 -0.0210706 0)
(0.0113514 0.0636273 0)
(-0.160339 0.0904279 0)
(0.00966004 -0.0276494 0)
(-0.00542618 -0.0175818 0)
(-0.0168211 0.0203835 0)
(-0.0975467 0.066061 0)
(-0.112818 0.0928614 0)
(-0.169194 0.0651792 0)
(-0.00292379 -0.0143366 0)
(-0.0323927 0.01766 0)
(-0.0592449 0.0622904 0)
(-0.104523 0.0926397 0)
(-0.111117 0.120269 0)
(-0.119747 0.074583 0)
(-0.00979175 0.00562217 0)
(-0.0340153 0.043666 0)
(-0.0563339 0.0905039 0)
(-0.0844297 0.115247 0)
(-0.0805917 0.113062 0)
(-0.0605595 0.0431333 0)
(-0.00528467 0.0300945 0)
(-0.0254192 0.0632793 0)
(-0.0427432 0.105549 0)
(-0.0509031 0.114309 0)
(-0.0422713 0.0956059 0)
(-0.0235819 0.027226 0)
(-0.00319139 0.0348321 0)
(-0.0100974 0.0807918 0)
(-0.00987463 0.112791 0)
(-0.00852358 0.118093 0)
(-0.00552624 0.0956045 0)
(0.00274633 0.035612 0)
(0.00150366 0.0476345 0)
(0.00323255 0.0724498 0)
(0.00340709 0.106018 0)
(0.0184823 0.105356 0)
(0.027515 0.0803589 0)
(0.0452516 0.0323873 0)
(0.00721286 0.02584 0)
(0.0145666 0.0789841 0)
(0.0386988 0.094894 0)
(0.064358 0.0978024 0)
(0.0759106 0.0767345 0)
(0.0939209 0.0456799 0)
(-0.0570557 0.03288 0)
(-0.0195999 0.0364771 0)
(-0.00946852 0.0569911 0)
(0.0394415 0.0632313 0)
(0.0612049 0.0468607 0)
(0.0924499 0.032702 0)
(0.0526824 0.0906325 0)
(0.0840257 0.0423932 0)
(0.115449 0.0331074 0)
(0.179122 0.0299497 0)
(0.199165 0.0255429 0)
(0.252046 0.0224294 0)
(-0.112969 0.118616 0)
(-0.114491 -0.0339563 0)
(-0.0303166 -0.0019971 0)
(-0.00700907 -0.136141 0)
(-0.108378 0.0830142 0)
(-0.111633 -0.0706495 0)
(-0.0864353 -0.0763088 0)
(0.00525076 -0.174506 0)
(-0.0774093 0.0583553 0)
(-0.0522126 -0.0639782 0)
(-0.0750417 -0.117044 0)
(0.000547524 -0.219663 0)
(-0.0438646 0.029413 0)
(-0.00975838 -0.0660702 0)
(-0.0467862 -0.121395 0)
(0.00913915 -0.242328 0)
(-0.0324264 0.00654461 0)
(0.00639905 -0.0688135 0)
(-0.0410653 -0.136161 0)
(0.0125475 -0.265524 0)
(-0.0162161 0.00221088 0)
(0.0311975 -0.056122 0)
(-0.026578 -0.119376 0)
(0.0201827 -0.272011 0)
(0.0230147 -0.0221466 0)
(0.0509797 -0.0660962 0)
(-0.0232527 -0.133464 0)
(0.0280115 -0.277372 0)
(0.0735004 0.00418746 0)
(0.0718186 -0.00844091 0)
(0.0092016 -0.077874 0)
(0.0510855 -0.251708 0)
(0.0868686 -0.000564123 0)
(0.093106 -0.016555 0)
(0.0685726 -0.121269 0)
(0.0806689 -0.252815 0)
(0.24782 0.0141838 0)
(0.273621 0.00283429 0)
(0.215509 -0.023461 0)
(0.152782 -0.0678914 0)
(-0.0222846 0.00502682 0)
(-0.0587484 0.00435782 0)
(-0.0729654 -0.00137937 0)
(-0.0429127 -0.0365574 0)
(-0.0196379 0.073091 0)
(-0.0465558 0.0463223 0)
(-0.0427143 -0.0078703 0)
(-0.0422197 -0.086936 0)
(-0.0361605 0.0718282 0)
(-0.00574447 0.0170892 0)
(-0.0144107 0.00193331 0)
(-0.0311924 -0.127902 0)
(-0.00817256 0.123406 0)
(-0.043405 0.0289382 0)
(0.0296044 0.0225575 0)
(-0.0344492 -0.121704 0)
)
;

boundaryField
{
    movingWall
    {
        type            fixedValue;
        value           uniform (1 0 0);
    }
    fixedWalls
    {
        type            noSlip;
    }
    frontAndBack
    {
        type            empty;
    }
}


// ************************************************************************* //
