0 	4.29868e-09
1.57135 	-4.16415e-06
3.1427 	-2.6773e-05
4.71405 	-0.000103137
6.28539 	-0.000317197
7.85674 	-0.00092906
9.42809 	-0.00272942
10.9994 	-0.00480249
12.5708 	-0.00394083
14.1421 	0.250619
