0 	0 	0 	0
1.57135 	-0.00179912 	0.00178407 	0
3.1427 	-0.00381481 	0.00371012 	0
4.71405 	-0.00603062 	0.00568082 	0
6.28539 	-0.00864532 	0.00824186 	0
7.85674 	-0.0111531 	0.0134556 	0
9.42809 	-0.00683243 	0.0251518 	0
10.9994 	0.0179774 	0.0220301 	0
12.5708 	0.0126331 	0.00225954 	0
14.1421 	0.5 	0 	0
