/*--------------------------------*- C++ -*----------------------------------*\
  =========                 |
  \\      /  F ield         | OpenFOAM: The Open Source CFD Toolbox
   \\    /   O peration     | Website:  https://openfoam.org
    \\  /    A nd           | Version:  8
     \\/     M anipulation  |
\*---------------------------------------------------------------------------*/
FoamFile
{
    version     2.0;
    format      ascii;
    class       volScalarField;
    location    "0.05";
    object      p;
}
// * * * * * * * * * * * * * * * * * * * * * * * * * * * * * * * * * * * * * //

dimensions      [0 2 -2 0 0 0 0];

internalField   nonuniform List<scalar> 
400
(
-3.58338e-08
-0.00518729
-0.0112037
-0.0148896
-0.0148828
-0.0108123
-0.00292539
0.00819478
0.0217627
0.0368341
0.0523679
0.0672718
0.0804571
0.0909249
0.097858
0.100722
0.0994434
0.0947
0.0881966
0.0829273
0.00515146
0.000347027
-0.00391034
-0.00598418
-0.00524922
-0.00145745
0.00527375
0.0145458
0.025769
0.0382011
0.0510086
0.0633185
0.0742661
0.083067
0.0890861
0.0919081
0.0914752
0.0882618
0.083174
0.07775
0.0119787
0.00549106
0.001121
-0.000591215
0.000269312
0.00377215
0.00979557
0.018004
0.0279096
0.0388793
0.0501955
0.0611241
0.0709327
0.0789259
0.0845044
0.0872362
0.0869848
0.0840036
0.0784681
0.0709354
0.018424
0.00929762
0.0037607
0.00162932
0.00220829
0.00541902
0.0110904
0.018872
0.0282986
0.0387771
0.0496414
0.0602172
0.069811
0.0777207
0.0832957
0.0860123
0.0856123
0.0821514
0.0752162
0.0647898
0.022851
0.0107245
0.00359575
0.000753461
0.000972765
0.00404436
0.00971566
0.0175849
0.0271748
0.037895
0.049088
0.0600833
0.070168
0.0785838
0.0845845
0.0875154
0.0869734
0.0828313
0.0741718
0.0606024
0.0239671
0.00859297
-0.000321454
-0.00393574
-0.00394432
-0.000714617
0.00539708
0.0139251
0.0243535
0.0360637
0.0483705
0.0605647
0.0718735
0.0814499
0.0884194
0.0919595
0.0914904
0.0866881
0.076156
0.0592198
0.0206772
0.00184363
-0.00891165
-0.0131567
-0.013098
-0.00929067
-0.00219796
0.00762817
0.0196021
0.0330613
0.0472805
0.0614898
0.0748303
0.0863395
0.0949817
0.0997211
0.0997491
0.0944964
0.0820338
0.0614059
0.0118911
-0.0106265
-0.0231662
-0.0277307
-0.0271547
-0.0222098
-0.0134907
-0.00166891
0.0125836
0.028564
0.0455187
0.0626189
0.0789089
0.0932887
0.104522
0.1113
0.112509
0.107241
0.0928842
0.0681188
-0.00365341
-0.0301327
-0.0442873
-0.0486848
-0.0469547
-0.0401488
-0.0290461
-0.0144637
0.00284553
0.022158
0.042719
0.0636657
0.0839589
0.102352
0.11737
0.127354
0.130777
0.126238
0.11017
0.0807115
-0.0276142
-0.0583801
-0.0738131
-0.0772895
-0.0734934
-0.0638841
-0.0494909
-0.031286
-0.0100774
0.0134256
0.038508
0.0643237
0.0897966
0.113558
0.133871
0.14865
0.155807
0.153212
0.135897
0.101134
-0.0622943
-0.0976705
-0.113712
-0.115042
-0.107836
-0.0941529
-0.0753382
-0.0525146
-0.026499
0.00207227
0.0325895
0.0643059
0.0962025
0.126865
0.154325
0.176012
0.189107
0.190403
0.172846
0.132242
-0.110978
-0.151136
-0.166437
-0.163579
-0.150943
-0.131429
-0.106747
-0.0781451
-0.0463751
-0.0119047
0.0248693
0.0634292
0.102966
0.142175
0.178972
0.210311
0.232485
0.240757
0.224964
0.178331
-0.178566
-0.223116
-0.234986
-0.224531
-0.203405
-0.175607
-0.143214
-0.107508
-0.0690524
-0.027998
0.0156372
0.0617547
0.109981
0.159377
0.207987
0.252446
0.288091
0.308172
0.297963
0.246087
-0.273033
-0.31989
-0.322981
-0.299241
-0.265009
-0.225554
-0.183164
-0.13893
-0.0929932
-0.0449614
0.00575439
0.059729
0.117325
0.178337
0.24137
0.303148
0.35827
0.397645
0.400194
0.346431
-0.408595
-0.450847
-0.434438
-0.38801
-0.333924
-0.278409
-0.223432
-0.169386
-0.115561
-0.0606852
-0.00327407
0.0582093
0.125208
0.198719
0.278564
0.362397
0.444918
0.515042
0.543837
0.498112
-0.611367
-0.629593
-0.572744
-0.48873
-0.40555
-0.328823
-0.258885
-0.194402
-0.133101
-0.0723714
-0.00951693
0.0582255
0.133694
0.219596
0.317866
0.428551
0.548361
0.666116
0.745736
0.733316
-0.929585
-0.874072
-0.738735
-0.595724
-0.472046
-0.369037
-0.282913
-0.208787
-0.141757
-0.0773356
-0.0113603
0.0603085
0.142106
0.238922
0.355913
0.497705
0.66624
0.854544
1.0271
1.10699
-1.47315
-1.20585
-0.920857
-0.692655
-0.518515
-0.387334
-0.287269
-0.207223
-0.138438
-0.0741964
-0.00888755
0.0628581
0.146988
0.250811
0.383807
0.557924
0.784994
1.07183
1.41489
1.73844
-2.5363
-1.63513
-1.04813
-0.715399
-0.500392
-0.355378
-0.255115
-0.180562
-0.119133
-0.0626359
-0.0049369
0.0595987
0.137435
0.237363
0.372834
0.564722
0.841383
1.25042
1.92654
2.92967
-4.36198
-2.05067
-0.980018
-0.571231
-0.366715
-0.247928
-0.17508
-0.124651
-0.0835347
-0.0446103
-0.00320245
0.0448293
0.104409
0.183001
0.294027
0.462997
0.73744
1.24318
2.42774
4.85324
)
;

boundaryField
{
    movingWall
    {
        type            zeroGradient;
    }
    fixedWalls
    {
        type            zeroGradient;
    }
    frontAndBack
    {
        type            empty;
    }
}


// ************************************************************************* //
