/*--------------------------------*- C++ -*----------------------------------*\
  =========                 |
  \\      /  F ield         | OpenFOAM: The Open Source CFD Toolbox
   \\    /   O peration     | Website:  https://openfoam.org
    \\  /    A nd           | Version:  8
     \\/     M anipulation  |
\*---------------------------------------------------------------------------*/
FoamFile
{
    version     2.0;
    format      ascii;
    class       surfaceScalarField;
    location    "0.05";
    object      phi;
}
// * * * * * * * * * * * * * * * * * * * * * * * * * * * * * * * * * * * * * //

dimensions      [0 3 -1 0 0 0 0];

internalField   nonuniform List<scalar> 
760
(
1.30008e-08
-1.30005e-08
-2.23245e-08
3.53245e-08
-1.09992e-07
8.76673e-08
-2.31072e-07
1.21081e-07
-3.66024e-07
1.34952e-07
-4.9807e-07
1.32047e-07
-6.13892e-07
1.15822e-07
-7.03389e-07
8.94967e-08
-7.59578e-07
5.61885e-08
-7.78185e-07
1.86069e-08
-7.5748e-07
-2.07042e-08
-6.9852e-07
-5.896e-08
-6.055e-07
-9.30198e-08
-4.8602e-07
-1.1948e-07
-3.51278e-07
-1.34743e-07
-2.16068e-07
-1.3521e-07
-9.81003e-08
-1.17967e-07
-1.61587e-08
-8.19415e-08
1.44811e-08
-3.06399e-08
1.44809e-08
-2.78901e-08
1.48896e-08
-1.57226e-07
1.64661e-07
-3.84327e-07
3.14767e-07
-6.77748e-07
4.14502e-07
-1.00039e-06
4.57589e-07
-1.31669e-06
4.48347e-07
-1.59596e-06
3.95091e-07
-1.81379e-06
3.0733e-07
-1.95241e-06
1.94807e-07
-2.00078e-06
6.69782e-08
-1.9547e-06
-6.67828e-08
-1.817e-06
-1.96658e-07
-1.59791e-06
-3.12112e-07
-1.31547e-06
-4.01924e-07
-9.95547e-07
-4.54663e-07
-6.70884e-07
-4.59873e-07
-3.78517e-07
-4.10335e-07
-1.5505e-07
-3.05409e-07
-2.82481e-08
-1.57442e-07
-1.37673e-08
-7.70917e-08
9.19815e-08
-3.06247e-07
3.93816e-07
-6.62044e-07
6.70564e-07
-1.10102e-06
8.53474e-07
-1.57427e-06
9.30847e-07
-2.03461e-06
9.0868e-07
-2.44001e-06
8.005e-07
-2.75648e-06
6.23792e-07
-2.95897e-06
3.97296e-07
-3.0318e-06
1.39816e-07
-2.96888e-06
-1.2971e-07
-2.77396e-06
-3.91574e-07
-2.46114e-06
-6.24937e-07
-2.05508e-06
-8.07983e-07
-1.5908e-06
-9.18934e-07
-1.11227e-06
-9.38404e-07
-6.69109e-07
-8.53499e-07
-3.11037e-07
-6.63481e-07
-7.97669e-08
-3.88712e-07
-9.35341e-08
-1.23815e-07
2.15796e-07
-4.52134e-07
7.22136e-07
-9.33622e-07
1.15205e-06
-1.50904e-06
1.42889e-06
-2.11779e-06
1.5396e-06
-2.70287e-06
1.49376e-06
-3.21455e-06
1.31219e-06
-3.61276e-06
1.022e-06
-3.86792e-06
6.52455e-07
-3.96142e-06
2.33315e-07
-3.88579e-06
-2.05337e-07
-3.64499e-06
-6.32378e-07
-3.25489e-06
-1.01503e-06
-2.74389e-06
-1.31899e-06
-2.15288e-06
-1.50995e-06
-1.53411e-06
-1.55717e-06
-9.48174e-07
-1.43943e-06
-4.58777e-07
-1.15288e-06
-1.2578e-07
-7.21709e-07
-2.19314e-07
-1.67995e-07
3.83791e-07
-5.94549e-07
1.14869e-06
-1.20163e-06
1.75913e-06
-1.91147e-06
2.13873e-06
-2.6505e-06
2.27863e-06
-3.3525e-06
2.19575e-06
-3.96165e-06
1.92134e-06
-4.43381e-06
1.49415e-06
-4.73678e-06
9.55425e-07
-4.8502e-06
3.46734e-07
-4.76542e-06
-2.90116e-07
-4.48578e-06
-9.1202e-07
-4.02739e-06
-1.47342e-06
-3.42026e-06
-1.92612e-06
-2.70912e-06
-2.22108e-06
-1.95326e-06
-2.31304e-06
-1.22442e-06
-2.16827e-06
-6.02374e-07
-1.77493e-06
-1.68417e-07
-1.15567e-06
-3.87731e-07
-2.11876e-07
5.95667e-07
-7.39033e-07
1.67585e-06
-1.47551e-06
2.49561e-06
-2.32291e-06
2.98613e-06
-3.19286e-06
3.14858e-06
-4.0099e-06
3.01279e-06
-4.71313e-06
2.62457e-06
-5.25596e-06
2.03698e-06
-5.60509e-06
1.30455e-06
-5.73937e-06
4.81023e-07
-5.64916e-06
-3.80332e-07
-5.3364e-06
-1.22478e-06
-4.81591e-06
-1.99391e-06
-4.11737e-06
-2.62466e-06
-3.28758e-06
-3.05087e-06
-2.39195e-06
-3.20866e-06
-1.51406e-06
-3.04616e-06
-7.52062e-07
-2.53692e-06
-2.1205e-07
-1.69568e-06
-5.9978e-07
-2.58157e-07
8.53824e-07
-8.92456e-07
2.31014e-06
-1.76623e-06
3.36938e-06
-2.75722e-06
3.97713e-06
-3.76064e-06
4.152e-06
-4.69193e-06
3.94409e-06
-5.48641e-06
3.41905e-06
-6.09693e-06
2.6475e-06
-6.49088e-06
1.6985e-06
-6.64751e-06
6.37651e-07
-6.55638e-06
-4.71457e-07
-6.21731e-06
-1.56385e-06
-5.64206e-06
-2.56916e-06
-4.85763e-06
-3.40909e-06
-3.9105e-06
-3.998e-06
-2.87067e-06
-4.2485e-06
-1.83368e-06
-4.08315e-06
-9.18645e-07
-3.45196e-06
-2.6091e-07
-2.35341e-06
-8.6069e-07
-3.09594e-07
1.16342e-06
-1.06149e-06
3.06204e-06
-2.0829e-06
4.39079e-06
-3.22337e-06
5.1176e-06
-4.36045e-06
5.28907e-06
-5.40138e-06
4.98502e-06
-6.28003e-06
4.2977e-06
-6.9515e-06
3.31897e-06
-7.38641e-06
2.1334e-06
-7.56611e-06
8.1735e-07
-7.47994e-06
-5.57628e-07
-7.12473e-06
-1.91905e-06
-6.50705e-06
-3.18684e-06
-5.64794e-06
-4.2682e-06
-4.58984e-06
-5.0561e-06
-3.40423e-06
-5.43412e-06
-2.19753e-06
-5.28984e-06
-1.11214e-06
-4.53734e-06
-3.18901e-07
-3.14666e-06
-1.17959e-06
-3.68863e-07
1.53228e-06
-1.25206e-06
3.94524e-06
-2.43151e-06
5.57024e-06
-3.72328e-06
6.40937e-06
-4.98663e-06
6.55242e-06
-6.12309e-06
6.12149e-06
-7.06921e-06
5.24382e-06
-7.78669e-06
4.03644e-06
-8.25302e-06
2.59973e-06
-8.4542e-06
1.01854e-06
-8.38035e-06
-6.31485e-07
-8.02456e-06
-2.27483e-06
-7.38556e-06
-3.82585e-06
-6.474e-06
-5.17976e-06
-5.3226e-06
-6.2075e-06
-3.99863e-06
-6.75808e-06
-2.61596e-06
-6.67252e-06
-1.34154e-06
-5.81176e-06
-3.8987e-07
-4.09833e-06
-1.56946e-06
-4.39094e-07
1.97138e-06
-1.4697e-06
4.97584e-06
-2.81445e-06
6.91499e-06
-4.24981e-06
7.84473e-06
-5.61767e-06
7.92028e-06
-6.81915e-06
7.32298e-06
-7.80017e-06
6.22484e-06
-8.53536e-06
4.77163e-06
-9.01425e-06
3.07861e-06
-9.23093e-06
1.23523e-06
-9.17791e-06
-6.84514e-07
-8.84407e-06
-2.60866e-06
-8.21738e-06
-4.45254e-06
-7.29255e-06
-6.10459e-06
-6.08451e-06
-7.41554e-06
-4.64705e-06
-8.19554e-06
-3.09385e-06
-8.22572e-06
-1.61503e-06
-7.29059e-06
-4.78182e-07
-5.23517e-06
-2.04764e-06
-5.24669e-07
2.49604e-06
-1.72035e-06
6.17152e-06
-3.22983e-06
8.42448e-06
-4.78363e-06
9.39852e-06
-6.2109e-06
9.34755e-06
-7.42195e-06
8.53402e-06
-8.38222e-06
7.18511e-06
-9.088e-06
5.47742e-06
-9.54728e-06
3.5379e-06
-9.76658e-06
1.45452e-06
-9.74304e-06
-7.08055e-07
-9.4615e-06
-2.89021e-06
-8.89653e-06
-5.01751e-06
-8.02073e-06
-6.98039e-06
-6.82088e-06
-8.61539e-06
-5.32348e-06
-9.69293e-06
-3.62794e-06
-9.92126e-06
-1.94018e-06
-8.97835e-06
-5.89593e-07
-6.58576e-06
-2.63724e-06
-6.32808e-07
3.12885e-06
-2.0117e-06
7.55041e-06
-3.66966e-06
1.00824e-05
-5.2876e-06
1.10165e-05
-6.69383e-06
1.07538e-05
-7.82398e-06
9.66417e-06
-8.67747e-06
8.0386e-06
-9.28286e-06
6.0828e-06
-9.67366e-06
3.9287e-06
-9.87327e-06
1.65414e-06
-9.88627e-06
-6.95058e-07
-9.69453e-06
-3.08195e-06
-9.25798e-06
-5.45405e-06
-8.52173e-06
-7.71665e-06
-7.43295e-06
-9.70417e-06
-5.97218e-06
-1.11537e-05
-4.20135e-06
-1.16921e-05
-2.3235e-06
-1.08562e-05
-7.32629e-07
-8.17663e-06
-3.36986e-06
-7.76603e-07
3.90545e-06
-2.35418e-06
9.12799e-06
-4.11461e-06
1.18429e-05
-5.69539e-06
1.25972e-05
-6.94933e-06
1.20077e-05
-7.86277e-06
1.05776e-05
-8.48752e-06
8.66334e-06
-8.89527e-06
6.49055e-06
-9.15084e-06
4.18427e-06
-9.29766e-06
1.80096e-06
-9.3502e-06
-6.42517e-07
-9.28987e-06
-3.14228e-06
-9.06356e-06
-5.68036e-06
-8.58696e-06
-8.19325e-06
-7.75807e-06
-1.05331e-05
-6.48991e-06
-1.24219e-05
-4.77246e-06
-1.34095e-05
-2.76801e-06
-1.28606e-05
-9.2081e-07
-1.00238e-05
-4.29068e-06
-9.79434e-07
4.88489e-06
-2.75852e-06
1.09071e-05
-4.51898e-06
1.36033e-05
-5.88741e-06
1.39657e-05
-6.78938e-06
1.29097e-05
-7.29793e-06
1.10862e-05
-7.53669e-06
8.90211e-06
-7.62766e-06
6.58152e-06
-7.66762e-06
4.22423e-06
-7.71925e-06
1.85259e-06
-7.80779e-06
-5.53974e-07
-7.91804e-06
-3.03203e-06
-7.99008e-06
-5.60831e-06
-7.91572e-06
-8.26761e-06
-7.54205e-06
-1.09067e-05
-6.6961e-06
-1.32678e-05
-5.2521e-06
-1.48535e-05
-3.26493e-06
-1.48478e-05
-1.17543e-06
-1.21133e-05
-5.4661e-06
-1.27859e-06
6.16348e-06
-3.2195e-06
1.2848e-05
-4.771e-06
1.51548e-05
-5.64096e-06
1.48356e-05
-5.9091e-06
1.31778e-05
-5.77731e-06
1.09544e-05
-5.45281e-06
8.5776e-06
-5.1033e-06
6.23202e-06
-4.84771e-06
3.96863e-06
-4.7598e-06
1.76468e-06
-4.87289e-06
-4.40892e-07
-5.17972e-06
-2.7252e-06
-5.62576e-06
-5.16227e-06
-6.09623e-06
-7.79714e-06
-6.40246e-06
-1.06005e-05
-6.28341e-06
-1.33869e-05
-5.45586e-06
-1.56811e-05
-3.7673e-06
-1.65364e-05
-1.52478e-06
-1.43558e-05
-6.99088e-06
-1.71426e-06
7.87774e-06
-3.65341e-06
1.47871e-05
-4.59462e-06
1.6096e-05
-4.5319e-06
1.47729e-05
-3.81163e-06
1.24575e-05
-2.79218e-06
9.93494e-06
-1.74987e-06
7.53529e-06
-8.70331e-07
5.35248e-06
-2.68435e-07
3.36673e-06
-1.07685e-08
1.50702e-06
-1.30662e-07
-3.20998e-07
-6.32618e-07
-2.22324e-06
-1.48465e-06
-4.31024e-06
-2.59681e-06
-6.68498e-06
-3.78628e-06
-9.41102e-06
-4.73939e-06
-1.24337e-05
-5.00662e-06
-1.54139e-05
-4.11298e-06
-1.743e-05
-1.98179e-06
-1.6487e-05
-8.97267e-06
-2.25955e-06
1.01373e-05
-3.70761e-06
1.62352e-05
-3.32719e-06
1.57156e-05
-1.75711e-06
1.32028e-05
3.00027e-07
1.04004e-05
2.36883e-06
7.86613e-06
4.17344e-06
5.73067e-06
5.57163e-06
3.9543e-06
6.49609e-06
2.44227e-06
6.91417e-06
1.08893e-06
6.80527e-06
-2.12094e-07
6.15254e-06
-1.57051e-06
4.94838e-06
-3.10608e-06
3.21766e-06
-4.95426e-06
1.06698e-06
-7.26034e-06
-1.23375e-06
-1.0133e-05
-3.15032e-06
-1.34973e-05
-3.83381e-06
-1.67465e-05
-2.45429e-06
-1.78666e-05
-1.1427e-05
-2.57683e-06
1.27141e-05
-2.25769e-06
1.59161e-05
5.37029e-07
1.29209e-05
4.1463e-06
9.59358e-06
7.64208e-06
6.90463e-06
1.06325e-05
4.87568e-06
1.29897e-05
3.37351e-06
1.47021e-05
2.2419e-06
1.57963e-05
1.34809e-06
1.62968e-05
5.88358e-07
1.62078e-05
-1.22997e-07
1.55044e-05
-8.67193e-07
1.41339e-05
-1.73554e-06
1.20267e-05
-2.84712e-06
9.13544e-06
-4.36902e-06
5.52665e-06
-6.52424e-06
1.57092e-06
-9.54157e-06
-1.7261e-06
-1.34495e-05
-2.49103e-06
-1.71016e-05
-1.3918e-05
-8.10099e-07
1.35242e-05
4.04706e-06
1.10589e-05
1.0202e-05
6.76591e-06
1.55978e-05
4.19785e-06
1.9837e-05
2.66544e-06
2.30016e-05
1.71108e-06
2.52738e-05
1.1013e-06
2.68224e-05
6.93252e-07
2.77718e-05
3.98754e-07
2.81967e-05
1.63369e-07
2.81241e-05
-5.03421e-08
2.75312e-05
-2.74277e-07
2.63408e-05
-5.45199e-07
2.44114e-05
-9.17704e-07
2.1529e-05
-1.48656e-06
1.7428e-05
-2.42331e-06
1.19227e-05
-4.03626e-06
5.34823e-06
-6.87502e-06
-1.9093e-07
-1.15625e-05
-1.41089e-05
1.35242e-05
2.45831e-05
3.1349e-05
3.55469e-05
3.82123e-05
3.99234e-05
4.10247e-05
4.17179e-05
4.21167e-05
4.22801e-05
4.22297e-05
4.19554e-05
4.14103e-05
4.04925e-05
3.9006e-05
3.65827e-05
3.25464e-05
2.56714e-05
1.41089e-05
)
;

boundaryField
{
    movingWall
    {
        type            calculated;
        value           uniform 0;
    }
    fixedWalls
    {
        type            calculated;
        value           uniform 0;
    }
    frontAndBack
    {
        type            empty;
        value           nonuniform List<scalar> 0();
    }
}


// ************************************************************************* //
