/*--------------------------------*- C++ -*----------------------------------*\
  =========                 |
  \\      /  F ield         | OpenFOAM: The Open Source CFD Toolbox
   \\    /   O peration     | Website:  https://openfoam.org
    \\  /    A nd           | Version:  8
     \\/     M anipulation  |
\*---------------------------------------------------------------------------*/
FoamFile
{
    version     2.0;
    format      ascii;
    class       volVectorField;
    location    "0.05";
    object      U;
}
// * * * * * * * * * * * * * * * * * * * * * * * * * * * * * * * * * * * * * //

dimensions      [0 1 -1 0 0 0 0];

internalField   nonuniform List<vector> 
400
(
(0.000240084 -0.000217431 0)
(0.000108637 0.00016531 0)
(-0.00115412 0.000612187 0)
(-0.00331493 0.000889419 0)
(-0.00594908 0.000995208 0)
(-0.0086814 0.000966922 0)
(-0.0112132 0.000839774 0)
(-0.0133035 0.000641543 0)
(-0.0147846 0.000397855 0)
(-0.0155459 0.000127239 0)
(-0.0155263 -0.000154775 0)
(-0.014718 -0.00042958 0)
(-0.0131726 -0.000674263 0)
(-0.0110065 -0.000863678 0)
(-0.00840772 -0.000970513 0)
(-0.0056401 -0.000964899 0)
(-0.00303669 -0.000819117 0)
(-0.000972178 -0.00051819 0)
(0.000179242 -8.93328e-05 0)
(0.000244092 0.000241571 0)
(-2.17192e-05 -0.000171653 0)
(-0.00136978 0.00154025 0)
(-0.00501733 0.00338663 0)
(-0.0103963 0.0046026 0)
(-0.0167319 0.00512638 0)
(-0.0232781 0.00502758 0)
(-0.0293651 0.00442333 0)
(-0.0344361 0.00343071 0)
(-0.0380687 0.00216381 0)
(-0.039975 0.000728511 0)
(-0.0400009 -0.000772927 0)
(-0.0381323 -0.00223171 0)
(-0.0344983 -0.00352829 0)
(-0.0293785 -0.00453319 0)
(-0.0232147 -0.00511165 0)
(-0.0166042 -0.00513517 0)
(-0.0102611 -0.00450828 0)
(-0.00493568 -0.00321195 0)
(-0.00136155 -0.00140291 0)
(-5.61105e-05 0.000205322 0)
(-0.000401074 0.000871048 0)
(-0.00314405 0.00510796 0)
(-0.009136 0.0092145 0)
(-0.0173424 0.0119568 0)
(-0.0267046 0.013143 0)
(-0.0362597 0.012871 0)
(-0.0451038 0.0113502 0)
(-0.0524659 0.00884138 0)
(-0.0577531 0.00561935 0)
(-0.0605601 0.00195483 0)
(-0.0606653 -0.0018814 0)
(-0.058043 -0.00560553 0)
(-0.0528714 -0.00891563 0)
(-0.0455368 -0.0114944 0)
(-0.0366399 -0.0130232 0)
(-0.0269844 -0.0132159 0)
(-0.0175227 -0.0118821 0)
(-0.00925227 -0.00901806 0)
(-0.0032233 -0.00496536 0)
(-0.000463818 -0.000869237 0)
(-0.000758917 0.00288768 0)
(-0.00487792 0.0107071 0)
(-0.0131945 0.0176308 0)
(-0.0241082 0.0221753 0)
(-0.0362502 0.0240639 0)
(-0.0484512 0.0234399 0)
(-0.0596415 0.0206342 0)
(-0.0689112 0.0160825 0)
(-0.0755616 0.010257 0)
(-0.0791129 0.00363724 0)
(-0.0793006 -0.00329115 0)
(-0.0760865 -0.0100254 0)
(-0.0696685 -0.0160362 0)
(-0.0604869 -0.0207709 0)
(-0.0492368 -0.0236798 0)
(-0.0368629 -0.0242755 0)
(-0.0245053 -0.0222341 0)
(-0.0133957 -0.0175294 0)
(-0.0049536 -0.0106304 0)
(-0.000810084 -0.00293659 0)
(-0.00109154 0.00580597 0)
(-0.00654692 0.0182492 0)
(-0.0171905 0.0285088 0)
(-0.0307994 0.0350239 0)
(-0.0456474 0.0375512 0)
(-0.0603571 0.036333 0)
(-0.0737177 0.0318704 0)
(-0.0847182 0.0248107 0)
(-0.0925967 0.0158525 0)
(-0.0968326 0.00570567 0)
(-0.0971323 -0.0049124 0)
(-0.0934389 -0.0152605 0)
(-0.0859445 -0.0245577 0)
(-0.0751049 -0.0319856 0)
(-0.0616654 -0.0367224 0)
(-0.0466752 -0.0380261 0)
(-0.0314477 -0.0353709 0)
(-0.0174718 -0.0286272 0)
(-0.00659787 -0.0182901 0)
(-0.00111456 -0.00587847 0)
(-0.00141829 0.00959879 0)
(-0.00822444 0.0277635 0)
(-0.0212653 0.0419141 0)
(-0.0376505 0.050571 0)
(-0.0552437 0.0536299 0)
(-0.0724484 0.0515251 0)
(-0.0879184 0.0450047 0)
(-0.100574 0.0349725 0)
(-0.109625 0.0223794 0)
(-0.114535 0.00817766 0)
(-0.114995 -0.0066795 0)
(-0.110923 -0.0212103 0)
(-0.10248 -0.0343739 0)
(-0.0901018 -0.0450615 0)
(-0.0745423 -0.0521334 0)
(-0.0569255 -0.0545201 0)
(-0.038733 -0.0513974 0)
(-0.0217419 -0.042419 0)
(-0.00829774 -0.027991 0)
(-0.00141912 -0.00966896 0)
(-0.00176065 0.0142819 0)
(-0.0100025 0.0393395 0)
(-0.0255994 0.0579731 0)
(-0.0449131 0.0689266 0)
(-0.065342 0.0723558 0)
(-0.0850547 0.06902 0)
(-0.102588 0.0600049 0)
(-0.116832 0.0465297 0)
(-0.127004 0.0298238 0)
(-0.132585 0.0110832 0)
(-0.133266 -0.00851565 0)
(-0.128935 -0.0277665 0)
(-0.119697 -0.045375 0)
(-0.105921 -0.0599274 0)
(-0.0883204 -0.0699173 0)
(-0.0680499 -0.0738577 0)
(-0.0467416 -0.0704963 0)
(-0.0264849 -0.0591189 0)
(-0.0102009 -0.0399029 0)
(-0.00176237 -0.0143697 0)
(-0.00214239 0.0199342 0)
(-0.0119767 0.053149 0)
(-0.0303599 0.0768782 0)
(-0.0527803 0.0902233 0)
(-0.0761073 0.0937768 0)
(-0.0982734 0.0887859 0)
(-0.117739 0.0767925 0)
(-0.133419 0.0594012 0)
(-0.144597 0.0381441 0)
(-0.150812 0.0144483 0)
(-0.15178 -0.0103201 0)
(-0.147357 -0.0347698 0)
(-0.137563 -0.057382 0)
(-0.122642 -0.0764392 0)
(-0.103194 -0.0900227 0)
(-0.0803304 -0.0961223 0)
(-0.0557822 -0.0928913 0)
(-0.031956 -0.0790403 0)
(-0.0124474 -0.0543238 0)
(-0.00217977 -0.0201248 0)
(-0.00258989 0.0266856 0)
(-0.014241 0.0694394 0)
(-0.0356836 0.0988499 0)
(-0.0613516 0.11456 0)
(-0.0875149 0.117848 0)
(-0.111901 0.110664 0)
(-0.132971 0.0951548 0)
(-0.14975 0.0733907 0)
(-0.161672 0.0472209 0)
(-0.168401 0.0182718 0)
(-0.169713 -0.0119616 0)
(-0.165436 -0.0419728 0)
(-0.155469 -0.07008 0)
(-0.139862 -0.0942901 0)
(-0.118995 -0.112242 0)
(-0.0938138 -0.12129 0)
(-0.0660443 -0.11878 0)
(-0.0383716 -0.102561 0)
(-0.0151743 -0.0716672 0)
(-0.00270928 -0.0271559 0)
(-0.00313958 0.034721 0)
(-0.0168999 0.0885141 0)
(-0.0416797 0.124083 0)
(-0.0706073 0.141908 0)
(-0.0992945 0.144315 0)
(-0.125347 0.134243 0)
(-0.147357 0.114631 0)
(-0.164598 0.0880911 0)
(-0.176771 0.0567882 0)
(-0.183754 0.0224886 0)
(-0.185431 -0.0132789 0)
(-0.181618 -0.0490022 0)
(-0.172059 -0.0829403 0)
(-0.156528 -0.112898 0)
(-0.135044 -0.136076 0)
(-0.108206 -0.149085 0)
(-0.0775433 -0.148215 0)
(-0.0459011 -0.13005 0)
(-0.0185305 -0.09244 0)
(-0.00340021 -0.0357653 0)
(-0.00384838 0.0442986 0)
(-0.0200919 0.110716 0)
(-0.0484357 0.152671 0)
(-0.0803728 0.171984 0)
(-0.110844 0.172557 0)
(-0.137508 0.158707 0)
(-0.1593 0.134374 0)
(-0.175938 0.102775 0)
(-0.187542 0.0663544 0)
(-0.194311 0.0269216 0)
(-0.196306 -0.0140951 0)
(-0.193352 -0.0553324 0)
(-0.185019 -0.095148 0)
(-0.170719 -0.13128 0)
(-0.149949 -0.16056 0)
(-0.12271 -0.178791 0)
(-0.0900293 -0.180927 0)
(-0.0546487 -0.161758 0)
(-0.0226977 -0.117214 0)
(-0.00432665 -0.0463551 0)
(-0.00481546 0.055789 0)
(-0.0240316 0.136417 0)
(-0.0560198 0.184497 0)
(-0.0902437 0.20406 0)
(-0.121079 0.201383 0)
(-0.146566 0.182648 0)
(-0.166314 0.153 0)
(-0.180737 0.116281 0)
(-0.190548 0.0751219 0)
(-0.196374 0.0312288 0)
(-0.198525 -0.0142442 0)
(-0.196876 -0.0602789 0)
(-0.190824 -0.105545 0)
(-0.179365 -0.147929 0)
(-0.161314 -0.184066 0)
(-0.135772 -0.208982 0)
(-0.10282 -0.216058 0)
(-0.0646001 -0.19762 0)
(-0.0279177 -0.146573 0)
(-0.00561109 -0.0594685 0)
(-0.00622913 0.0697649 0)
(-0.0290745 0.165993 0)
(-0.0644472 0.219029 0)
(-0.0994097 0.236684 0)
(-0.128156 0.228756 0)
(-0.149687 0.203849 0)
(-0.164743 0.168447 0)
(-0.174721 0.126928 0)
(-0.18108 0.0819313 0)
(-0.184953 0.03486 0)
(-0.186948 -0.013611 0)
(-0.187037 -0.0630262 0)
(-0.184499 -0.112621 0)
(-0.177921 -0.160728 0)
(-0.165347 -0.2041 0)
(-0.144685 -0.237211 0)
(-0.11449 -0.251772 0)
(-0.075489 -0.236941 0)
(-0.0345216 -0.181014 0)
(-0.00746719 -0.0758724 0)
(-0.00844221 0.0871651 0)
(-0.0357787 0.199714 0)
(-0.0735053 0.254938 0)
(-0.106233 0.267226 0)
(-0.128934 0.251439 0)
(-0.142497 0.219078 0)
(-0.14935 0.17789 0)
(-0.152107 0.132506 0)
(-0.153023 0.0852755 0)
(-0.153719 0.037047 0)
(-0.155088 -0.0121832 0)
(-0.157247 -0.0627179 0)
(-0.159461 -0.114606 0)
(-0.160054 -0.16698 0)
(-0.15637 -0.217186 0)
(-0.144975 -0.259662 0)
(-0.122301 -0.284728 0)
(-0.0864664 -0.277852 0)
(-0.0429144 -0.220701 0)
(-0.0102627 -0.0966926 0)
(-0.0120524 0.109537 0)
(-0.0448321 0.23742 0)
(-0.0821601 0.289407 0)
(-0.107283 0.291269 0)
(-0.117966 0.264661 0)
(-0.118273 0.224034 0)
(-0.112793 0.177873 0)
(-0.105363 0.130475 0)
(-0.0988484 0.0834651 0)
(-0.0951531 0.0368816 0)
(-0.0953357 -0.0100962 0)
(-0.09967 -0.0586272 0)
(-0.107581 -0.10973 0)
(-0.117439 -0.163666 0)
(-0.126264 -0.218976 0)
(-0.129503 -0.270947 0)
(-0.121141 -0.309434 0)
(-0.0952864 -0.31642 0)
(-0.0533325 -0.264886 0)
(-0.0145512 -0.123561 0)
(-0.0178031 0.139413 0)
(-0.0563333 0.27762 0)
(-0.0868136 0.316837 0)
(-0.0952228 0.3018 0)
(-0.0857014 0.261961 0)
(-0.0667406 0.213654 0)
(-0.045028 0.164816 0)
(-0.0251073 0.11848 0)
(-0.00986869 0.0750378 0)
(-0.00103742 0.0335372 0)
(0.000433729 -0.00764065 0)
(-0.00583737 -0.050414 0)
(-0.0196359 -0.0967183 0)
(-0.0398707 -0.148092 0)
(-0.0640047 -0.204834 0)
(-0.0872417 -0.264283 0)
(-0.101637 -0.317662 0)
(-0.0963743 -0.345265 0)
(-0.0647787 -0.310674 0)
(-0.0208182 -0.158821 0)
(-0.0255719 0.181187 0)
(-0.0669864 0.315212 0)
(-0.076818 0.32628 0)
(-0.0545835 0.288094 0)
(-0.0156165 0.235408 0)
(0.0273838 0.183009 0)
(0.0670661 0.136077 0)
(0.0995666 0.0952849 0)
(0.123019 0.0594366 0)
(0.136565 0.0266555 0)
(0.139743 -0.00519556 0)
(0.13219 -0.0384172 0)
(0.113606 -0.0754769 0)
(0.0840068 -0.118941 0)
(0.0444103 -0.171052 0)
(-0.00185353 -0.232323 0)
(-0.0470625 -0.298047 0)
(-0.0767321 -0.351406 0)
(-0.0718188 -0.350493 0)
(-0.0281045 -0.206047 0)
(-0.0294748 0.238989 0)
(-0.0613417 0.334833 0)
(-0.024327 0.297909 0)
(0.0456369 0.236014 0)
(0.119522 0.177824 0)
(0.185423 0.129866 0)
(0.239186 0.0920973 0)
(0.279855 0.0623151 0)
(0.307809 0.0380029 0)
(0.323691 0.0168806 0)
(0.327847 -0.0031129 0)
(0.320091 -0.0240137 0)
(0.299629 -0.0480879 0)
(0.265134 -0.0781142 0)
(0.215189 -0.117571 0)
(0.149488 -0.170223 0)
(0.0711502 -0.237899 0)
(-0.00809189 -0.314238 0)
(-0.0562333 -0.365263 0)
(-0.0284781 -0.266107 0)
(0.00876559 0.281707 0)
(0.0202243 0.294858 0)
(0.137918 0.210151 0)
(0.26164 0.14194 0)
(0.359289 0.0951802 0)
(0.432614 0.0635862 0)
(0.48626 0.0421349 0)
(0.523905 0.0271024 0)
(0.54848 0.0159021 0)
(0.562007 0.00677584 0)
(0.565511 -0.00157737 0)
(0.559049 -0.0103192 0)
(0.541649 -0.0207707 0)
(0.511144 -0.0347994 0)
(0.464008 -0.0553822 0)
(0.395376 -0.0873068 0)
(0.298767 -0.137649 0)
(0.169731 -0.214557 0)
(0.0404607 -0.310416 0)
(0.0189066 -0.299235 0)
(0.300299 0.146001 0)
(0.397073 0.127506 0)
(0.557352 0.0760046 0)
(0.673749 0.0434942 0)
(0.7422 0.0252397 0)
(0.784304 0.0148677 0)
(0.811457 0.00885384 0)
(0.828876 0.00521257 0)
(0.839486 0.00282237 0)
(0.844949 0.00105234 0)
(0.846047 -0.000485747 0)
(0.842896 -0.00209751 0)
(0.834949 -0.00412998 0)
(0.82079 -0.00714067 0)
(0.797636 -0.0121938 0)
(0.760226 -0.0214018 0)
(0.69679 -0.0389087 0)
(0.582708 -0.0723214 0)
(0.416083 -0.127592 0)
(0.309429 -0.149269 0)
)
;

boundaryField
{
    movingWall
    {
        type            fixedValue;
        value           uniform (1 0 0);
    }
    fixedWalls
    {
        type            noSlip;
    }
    frontAndBack
    {
        type            empty;
    }
}


// ************************************************************************* //
