/*--------------------------------*- C++ -*----------------------------------*\
  =========                 |
  \\      /  F ield         | OpenFOAM: The Open Source CFD Toolbox
   \\    /   O peration     | Website:  https://openfoam.org
    \\  /    A nd           | Version:  8
     \\/     M anipulation  |
\*---------------------------------------------------------------------------*/
FoamFile
{
    version     2.0;
    format      ascii;
    class       surfaceScalarField;
    location    "51";
    object      phi;
}
// * * * * * * * * * * * * * * * * * * * * * * * * * * * * * * * * * * * * * //

dimensions      [0 3 -1 0 0 0 0];

internalField   nonuniform List<scalar> 
880
(
-1.76917e-05
1.76918e-05
-3.7122e-05
1.94302e-05
-5.5949e-05
1.88271e-05
-7.37859e-05
1.78368e-05
-9.02932e-05
1.65073e-05
-0.000105138
1.48443e-05
-0.000118085
1.29473e-05
-0.000128665
1.05801e-05
-0.000137182
8.51711e-06
-0.000142225
5.04264e-06
-0.000146544
4.31922e-06
1.9365e-06
-0.00014848
-2.0094e-05
3.77857e-05
-4.20599e-05
4.13962e-05
-6.33497e-05
4.01169e-05
-8.35458e-05
3.80329e-05
-0.000102298
3.52594e-05
-0.000119254
3.18004e-05
-0.000134141
2.78347e-05
-0.000146524
2.29628e-05
-0.000156721
1.87142e-05
-0.000163751
1.20726e-05
-0.00017006
1.0628e-05
1.04406e-06
-0.000169168
-2.0821e-05
5.86067e-05
-4.35851e-05
6.41603e-05
-6.56079e-05
6.21397e-05
-8.64037e-05
5.88287e-05
-0.000105526
5.43814e-05
-0.000122584
4.88593e-05
-0.000137209
4.24588e-05
-0.00014914
3.48941e-05
-0.000157803
2.73769e-05
-0.000163216
1.74861e-05
-0.000163808
1.12197e-05
-1.76186e-06
-0.000161002
-2.18527e-05
8.04594e-05
-4.57932e-05
8.81008e-05
-6.90364e-05
8.5383e-05
-9.11933e-05
8.09855e-05
-0.000111915
7.5103e-05
-0.000130754
6.76989e-05
-0.00014722
5.89244e-05
-0.000160954
4.86283e-05
-0.000171178
3.76005e-05
-0.000177789
2.40978e-05
-0.000178737
1.21673e-05
-5.32165e-06
-0.000175177
-2.32121e-05
0.000103671
-4.8668e-05
0.000113557
-7.32952e-05
0.00011001
-9.65415e-05
0.000104232
-0.000117914
9.64752e-05
-0.000137086
8.6871e-05
-0.000153706
7.55443e-05
-0.000167489
6.24113e-05
-0.000177863
4.79747e-05
-0.000185037
3.12716e-05
-0.000187611
1.47411e-05
-6.16449e-06
-0.000186768
-2.49983e-05
0.00012867
-5.25099e-05
0.000141068
-7.93348e-05
0.000136835
-0.000105141
0.000130038
-0.000129472
0.000120806
-0.000151769
0.000109168
-0.000171545
9.53203e-05
-0.000188287
7.91534e-05
-0.000201244
6.09318e-05
-0.00021011
4.01368e-05
-0.00021316
1.7791e-05
-8.34198e-06
-0.000210982
-2.70014e-05
0.000155671
-5.67837e-05
0.000170851
-8.54353e-05
0.000165487
-0.000112741
0.000157344
-0.00013796
0.000146026
-0.00016095
0.000132158
-0.000181279
0.00011565
-0.000198664
9.6538e-05
-0.0002128
7.50681e-05
-0.000223467
5.08032e-05
-0.00023068
2.50043e-05
-5.68706e-06
-0.000233335
-2.99754e-05
0.000185647
-6.31018e-05
0.000203977
-9.55849e-05
0.00019797
-0.000126676
0.000188435
-0.000156296
0.000175646
-0.000183643
0.000159505
-0.000208537
0.000140543
-0.00023027
0.000118271
-0.000248397
9.31949e-05
-0.000261926
6.43317e-05
-0.000270572
3.36511e-05
-4.77245e-06
-0.000271487
-3.17e-05
0.000217347
-6.77439e-05
0.000240021
-0.000101609
0.000231835
-0.000135423
0.000222249
-0.000165935
0.000206158
-0.000194708
0.000188278
-0.000220295
0.000166131
-0.000242834
0.00014081
-0.000262461
0.000112822
-0.000278052
7.99225e-05
-0.000292188
4.77868e-05
3.66221e-06
-0.000300622
-3.73677e-05
0.000254714
-7.77217e-05
0.000280375
-0.000118344
0.000272457
-0.000155818
0.000259723
-0.00019268
0.00024302
-0.000226304
0.000221902
-0.000258211
0.000198037
-0.00028655
0.000169149
-0.000312493
0.000138764
-0.000333123
0.000100552
-0.000351163
6.58271e-05
1.16621e-05
-0.000359163
-3.67038e-05
0.000291418
-8.20984e-05
0.000325769
-0.000122356
0.000312714
-0.000165999
0.000303366
-0.000203079
0.000280101
-0.00023992
0.000258743
-0.000271544
0.000229662
-0.000300232
0.000197837
-0.000326352
0.000164885
-0.000348003
0.000122203
-0.000370711
8.85357e-05
2.84113e-05
-0.000387461
-4.88012e-05
0.000340219
-9.72128e-05
0.000374181
-0.000148623
0.000364124
-0.000192699
0.000347443
-0.000238266
0.000325668
-0.000278802
0.000299279
-0.000319249
0.000270109
-0.000355169
0.000233757
-0.000391136
0.000200852
-0.00042112
0.000152187
-0.000453163
0.000120579
4.93386e-05
-0.000474091
-3.76392e-05
0.000377859
-9.89716e-05
0.000435513
-0.000147203
0.000412355
-0.000206795
0.000407035
-0.000252486
0.000371358
-0.000299404
0.000346197
-0.000337008
0.000307713
-0.00037147
0.000268219
-0.000402556
0.000231938
-0.000429518
0.000179149
-0.000459945
0.000151005
7.61799e-05
-0.000486786
-7.26909e-05
0.000450549
-0.000125669
0.000488491
-0.000189931
0.000476617
-0.000238491
0.000455595
-0.000291987
0.000424854
-0.000339788
0.000393998
-0.000388253
0.000356177
-0.00043233
0.000312296
-0.000478135
0.000277744
-0.000518528
0.000219541
-0.000566169
0.000198647
0.000115521
-0.000605511
-1.15587e-05
0.000462108
-0.000110568
0.0005875
-0.000174734
0.000540783
-0.000263866
0.000544727
-0.000323577
0.000484566
-0.000381317
0.000451738
-0.000423323
0.000398184
-0.00045889
0.000347863
-0.00048933
0.000308183
-0.000514952
0.000245163
-0.000544793
0.000228489
0.000145596
-0.000574868
-0.000147348
0.000609456
-0.000175432
0.000615584
-0.000246126
0.000611477
-0.000294522
0.000593123
-0.000349695
0.000539739
-0.000407358
0.0005094
-0.000461103
0.000451929
-0.000513045
0.000399805
-0.000564617
0.000359755
-0.00061229
0.000292835
-0.000669067
0.000285266
0.000201098
-0.00072457
8.59331e-05
0.000523523
-0.000119379
0.000820896
-0.000238869
0.000730967
-0.000368631
0.000722886
-0.000449987
0.000621095
-0.000507267
0.000566679
-0.000546952
0.000491615
-0.00057067
0.000423523
-0.000589782
0.000378868
-0.000600212
0.000303265
-0.0006088
0.000293855
0.000212363
-0.000620066
6.04992e-05
0.000463024
3.56837e-05
0.000845712
-6.54263e-05
0.000832077
-0.000242301
0.00089976
-0.000333111
0.000711906
-0.000447753
0.000681321
-0.000524476
0.000568337
-0.000591919
0.000490966
-0.000646485
0.000433434
-0.000691541
0.000348321
-0.000740319
0.000342633
0.000263228
-0.000791184
-0.00135435
0.00181737
-0.00145332
0.000944682
-0.00157676
0.000955517
-0.00142471
0.000747713
-0.00133827
0.000625465
-0.00116851
0.000511562
-0.00104582
0.000445641
-0.000905217
0.000350367
-0.000790288
0.000318505
-0.000682096
0.00024013
-0.00057105
0.000231587
0.000176861
-0.000484683
0.00181737
0.00276206
0.00371757
0.00446529
0.00509075
0.00560231
0.00604795
0.00639832
0.00671682
0.00695695
0.00718854
0.0073654
-0.000119603
5.06582e-05
-7.95357e-05
-9.4079e-05
2.23801e-05
-4.79041e-05
-7.8165e-05
-2.62535e-06
-1.32886e-05
-6.25722e-05
-2.19215e-05
6.32865e-06
-4.75641e-05
-3.73947e-05
2.23866e-05
-3.16019e-05
-4.88956e-05
3.29333e-05
-1.52589e-05
-5.6323e-05
3.998e-05
-5.43588e-05
3.90999e-05
-0.000134421
1.59119e-05
-0.000106393
-5.64794e-06
-8.83013e-05
-2.07172e-05
-7.06174e-05
-3.96054e-05
-5.38196e-05
-5.41925e-05
-3.58483e-05
-6.68668e-05
-1.73367e-05
-7.48345e-05
-7.16955e-05
-0.000144867
-2.2251e-07
-0.000128313
-2.22024e-05
-0.000110491
-3.85388e-05
-9.10244e-05
-5.90723e-05
-6.99841e-05
-7.52328e-05
-4.69217e-05
-8.99293e-05
-2.2783e-05
-9.89732e-05
-9.44785e-05
-0.000159351
-1.60485e-05
-0.000142999
-3.85546e-05
-0.000124172
-5.73663e-05
-0.000103172
-8.00722e-05
-7.99797e-05
-9.84247e-05
-5.39013e-05
-0.000116008
-2.63178e-05
-0.000126557
-0.000120796
-0.000178393
-2.44231e-05
-0.000165559
-5.1389e-05
-0.000148331
-7.45945e-05
-0.000125325
-0.000103078
-9.92216e-05
-0.000124528
-6.71784e-05
-0.000148051
-3.33792e-05
-0.000160356
-0.000154175
-0.000202163
-3.32426e-05
-0.000188745
-6.4807e-05
-0.000170537
-9.28019e-05
-0.000145368
-0.000128247
-0.000116295
-0.000153601
-7.92807e-05
-0.000185065
-3.98361e-05
-0.000199801
-0.000194012
-0.000230938
-3.56391e-05
-0.000219442
-7.6303e-05
-0.000204185
-0.00010806
-0.000176413
-0.000156018
-0.000145155
-0.000184859
-9.95395e-05
-0.000230681
-5.15985e-05
-0.000247742
-0.00024561
-0.000268757
-3.83694e-05
-0.000257149
-8.79107e-05
-0.00024126
-0.000123949
-0.000211146
-0.000186133
-0.000176035
-0.000219971
-0.000122295
-0.000284421
-6.46812e-05
-0.000305355
-0.000310291
-0.000307094
-3.18974e-05
-0.000299484
-9.55214e-05
-0.000290642
-0.00013279
-0.000259311
-0.000217464
-0.000225384
-0.000253898
-0.000159015
-0.00035079
-8.93288e-05
-0.000375041
-0.00039962
-0.000366127
-2.49329e-05
-0.000360501
-0.000101148
-0.000353223
-0.000140068
-0.000321394
-0.000249293
-0.000284606
-0.000290686
-0.000206266
-0.00042913
-0.000120798
-0.000460509
-0.000520418
-0.000408859
-3.53457e-06
-0.000412792
-9.7215e-05
-0.000422528
-0.000130332
-0.000397791
-0.00027403
-0.000375636
-0.00031284
-0.000283943
-0.000520823
-0.00018605
-0.000558402
-0.000706468
-0.000499732
2.21069e-05
-0.000509776
-8.71715e-05
-0.000527745
-0.000112363
-0.000510513
-0.000291262
-0.000495156
-0.000328197
-0.000395837
-0.000620142
-0.000281442
-0.000672797
-0.000987911
-0.000526319
6.16402e-05
-0.000555485
-5.80059e-05
-0.000607773
-6.0075e-05
-0.000623855
-0.00027518
-0.000666826
-0.000285226
-0.000587236
-0.000699732
-0.00050146
-0.000758572
-0.00148937
-0.000661671
0.0001178
-0.000703442
-1.62347e-05
-0.000776107
1.25899e-05
-0.000819524
-0.000231763
-0.00090675
-0.000197999
-0.000877881
-0.000728602
-0.000862335
-0.000774118
-0.00235171
-0.00062378
0.000166712
-0.000684593
4.45788e-05
-0.000798418
0.000126414
-0.000925146
-0.000105034
-0.00117098
4.78353e-05
-0.00131854
-0.000581045
-0.0015039
-0.000588759
-0.0038556
-0.000803509
0.000245651
-0.00089021
0.000131279
-0.00102963
0.000265839
-0.00119569
6.10271e-05
-0.00145966
0.000311805
-0.00167722
-0.000363486
-0.00166801
-0.000597969
-0.00552362
-0.000628822
0.000254408
-0.000674949
0.000177406
-0.000750247
0.000341138
-0.000957965
0.000268744
-0.00126489
0.000618729
-0.00162078
-7.59888e-06
-0.00103778
-0.00118096
-0.0065614
-0.000855101
0.000318325
-0.000953716
0.000276021
-0.00105892
0.000446344
-0.00126144
0.000471258
-0.00127418
0.000631474
-0.0014018
0.000120019
-0.0002485
-0.00233426
-0.0068099
-0.000325035
0.000158677
-0.000232865
0.000183851
0.000121911
9.1568e-05
0.000378181
0.000214988
0.0010803
-7.06448e-05
0.00161857
-0.000418253
0.00156035
-0.00227604
-0.00524955
0.00752408
0.00770793
0.0077995
0.00801449
0.00794384
0.00752559
0.00524955
-1.93658e-06
1.93658e-06
-3.70368e-06
1.76711e-06
-4.77394e-06
1.07026e-06
-5.07233e-06
2.98388e-07
-4.5537e-06
-5.18633e-07
-3.37199e-06
-1.18171e-06
-1.70549e-06
-1.6665e-06
-1.70549e-06
-2.28749e-06
4.22407e-06
-4.34054e-06
3.82015e-06
-5.54979e-06
2.27951e-06
-5.80838e-06
5.5698e-07
-5.17163e-06
-1.15538e-06
-3.81559e-06
-2.53775e-06
-1.92794e-06
-3.55416e-06
-3.63343e-06
-3.46322e-06
7.68728e-06
-6.436e-06
6.79294e-06
-8.07792e-06
3.92143e-06
-8.45765e-06
9.3671e-07
-7.47813e-06
-2.13491e-06
-5.4788e-06
-4.53708e-06
-2.75952e-06
-6.27344e-06
-6.39295e-06
-4.16383e-06
1.18511e-05
-7.62493e-06
1.0254e-05
-9.40133e-06
5.69783e-06
-9.52543e-06
1.06081e-06
-8.28263e-06
-3.37771e-06
-6.01886e-06
-6.80085e-06
-3.01403e-06
-9.27826e-06
-9.40698e-06
-7.93266e-06
1.97838e-05
-1.38189e-05
1.61403e-05
-1.62893e-05
8.16829e-06
-1.63164e-05
1.08788e-06
-1.39213e-05
-5.77279e-06
-9.95669e-06
-1.07655e-05
-4.9535e-06
-1.42814e-05
-1.43605e-05
-9.79565e-06
2.95794e-05
-1.6716e-05
2.30606e-05
-1.93101e-05
1.07624e-05
-1.86876e-05
4.65366e-07
-1.57242e-05
-8.73619e-06
-1.11834e-05
-1.53063e-05
-5.53662e-06
-1.99282e-05
-1.98971e-05
-2.20213e-05
5.16007e-05
-3.40404e-05
3.50796e-05
-3.56565e-05
1.23785e-05
-3.29515e-05
-2.23959e-06
-2.66749e-05
-1.50127e-05
-1.84283e-05
-2.35529e-05
-9.02536e-06
-2.93312e-05
-2.89225e-05
-2.79349e-05
-4.07594e-05
-4.16695e-05
-3.75805e-05
-3.02066e-05
-2.08262e-05
-1.01774e-05
)
;

boundaryField
{
    movingWall
    {
        type            calculated;
        value           uniform 0;
    }
    fixedWalls
    {
        type            calculated;
        value           uniform 0;
    }
    frontAndBack
    {
        type            empty;
        value           nonuniform List<scalar> 0();
    }
}


// ************************************************************************* //
