/*--------------------------------*- C++ -*----------------------------------*\
  =========                 |
  \\      /  F ield         | OpenFOAM: The Open Source CFD Toolbox
   \\    /   O peration     | Website:  https://openfoam.org
    \\  /    A nd           | Version:  8
     \\/     M anipulation  |
\*---------------------------------------------------------------------------*/
FoamFile
{
    version     2.0;
    format      ascii;
    class       surfaceScalarField;
    location    "85";
    object      phi;
}
// * * * * * * * * * * * * * * * * * * * * * * * * * * * * * * * * * * * * * //

dimensions      [0 3 -1 0 0 0 0];

internalField   nonuniform List<scalar> 
760
(
0.0004
9.67237e-20
0.0004
4.67126e-20
0.0004
8.00025e-21
0.0004
2.55101e-20
0.0004
2.55423e-21
0.0004
3.81478e-20
0.0004
7.6272e-21
0.0004
-1.57162e-20
0.0004
-1.80852e-20
0.0004
9.12555e-21
0.0004
-4.84233e-20
0.0004
-7.32185e-20
0.0004
-6.2154e-20
0.0004
-7.01806e-20
0.0004
-4.02267e-20
0.0004
-3.81891e-20
0.0004
-4.21339e-22
0.0004
-4.86677e-20
0.0004
-7.62147e-20
-6.53252e-20
0.0004
4.03359e-20
0.0004
8.36731e-20
0.0004
3.66723e-20
0.0004
1.80306e-20
0.0004
1.29231e-20
0.0004
2.71041e-20
0.0004
9.28087e-21
0.0004
-1.93774e-20
0.0004
-1.5607e-20
0.0004
5.24152e-21
0.0004
-1.88026e-20
0.0004
-1.31697e-19
0.0004
-1.00686e-19
0.0004
-3.75715e-20
0.0004
-2.32339e-20
0.0004
-4.37029e-20
0.0004
-5.93849e-20
0.0004
-5.57221e-20
0.0004
-5.29199e-20
-1.82785e-20
0.0004
-1.24462e-20
0.0004
3.7218e-20
0.0004
8.84952e-20
0.0004
4.58413e-20
0.0004
-6.45554e-21
0.0004
-5.64568e-20
0.0004
-1.61665e-20
0.0004
1.23292e-22
0.0004
4.87238e-23
0.0004
1.62431e-20
0.0004
-2.05403e-20
0.0004
-4.25431e-20
0.0004
-9.20633e-20
0.0004
-8.02261e-20
0.0004
-1.40159e-20
0.0004
-1.69685e-20
0.0004
-2.61361e-20
0.0004
-5.87437e-20
0.0004
-5.82752e-20
-5.17053e-20
0.0004
-6.99698e-20
0.0004
6.72633e-20
0.0004
7.61637e-20
0.0004
4.1622e-20
0.0004
1.14242e-23
0.0004
-5.46911e-20
0.0004
-9.20845e-20
0.0004
-1.71762e-20
0.0004
-2.33247e-21
0.0004
5.27349e-21
0.0004
-3.48384e-20
0.0004
-1.86706e-20
0.0004
-4.75131e-20
0.0004
7.00151e-21
0.0004
4.95605e-20
0.0004
4.588e-20
0.0004
-1.83215e-20
0.0004
-1.14731e-19
0.0004
-1.35682e-19
-7.62065e-20
0.0004
1.48498e-20
0.0004
5.47899e-20
0.0004
7.64238e-20
0.0004
2.79419e-20
0.0004
-3.89985e-20
0.0004
-7.2274e-20
0.0004
-8.27905e-20
0.0004
-3.7671e-20
0.0004
-9.48937e-23
0.0004
-3.82042e-20
0.0004
-8.10415e-20
0.0004
-3.30649e-20
0.0004
3.32746e-20
0.0004
-7.83763e-21
0.0004
3.34937e-20
0.0004
-4.14551e-21
0.0004
-5.56889e-20
0.0004
-7.97008e-20
0.0004
-7.75988e-20
2.14431e-21
0.0004
9.6386e-20
0.0004
8.62004e-20
0.0004
9.32716e-20
0.0004
-1.07983e-20
0.0004
-3.90854e-20
0.0004
-6.62477e-20
0.0004
-8.18556e-20
0.0004
-8.21883e-20
0.0004
-5.94678e-20
0.0004
-7.49978e-20
0.0004
-6.75416e-20
0.0004
-6.76314e-20
0.0004
-3.0085e-20
0.0004
-2.59402e-20
0.0004
-3.3643e-20
0.0004
3.95574e-20
0.0004
-4.62028e-21
0.0004
-4.50491e-20
0.0004
-2.42779e-20
-3.78607e-20
0.0004
5.42205e-20
0.0004
8.32886e-20
0.0004
6.73872e-20
0.0004
7.3535e-20
0.0004
1.32966e-20
0.0004
-5.93965e-20
0.0004
-6.69589e-20
0.0004
-7.86991e-20
0.0004
-1.14545e-19
0.0004
-1.44354e-19
0.0004
-4.73895e-20
0.0004
-3.77891e-20
0.0004
-5.71705e-20
0.0004
-8.68736e-20
0.0004
-1.65483e-20
0.0004
-7.51139e-21
0.0004
-1.76127e-20
0.0004
-4.347e-21
0.0004
2.48332e-20
-3.59344e-20
0.0004
1.06639e-19
0.0004
5.57851e-20
0.0004
3.98638e-20
0.0004
4.76958e-20
0.0004
1.9039e-20
0.0004
1.08247e-20
0.0004
-3.78436e-20
0.0004
-5.06921e-20
0.0004
-1.15001e-19
0.0004
-1.73935e-19
0.0004
-8.17812e-20
0.0004
-4.65759e-20
0.0004
-9.57073e-20
0.0004
-2.80805e-20
0.0004
-1.15836e-19
0.0004
-4.89707e-20
0.0004
-2.04129e-20
0.0004
1.60274e-21
0.0004
-1.19725e-21
1.78507e-20
0.0004
4.78233e-20
0.0004
8.29452e-20
0.0004
-2.27499e-20
0.0004
-9.6082e-21
0.0004
-2.36671e-21
0.0004
-1.01986e-20
0.0004
1.88348e-20
0.0004
-5.13438e-20
0.0004
-1.41344e-19
0.0004
-1.03124e-19
0.0004
-2.65362e-20
0.0004
-7.80793e-20
0.0004
-7.60582e-20
0.0004
-8.90394e-20
0.0004
-5.61257e-20
0.0004
-8.47672e-20
0.0004
-4.81637e-20
0.0004
-2.63218e-20
0.0004
1.06486e-20
-3.17144e-21
0.0004
-2.69933e-20
0.0004
-1.13684e-20
0.0004
-2.05138e-20
0.0004
9.61667e-21
0.0004
4.41571e-20
0.0004
3.61126e-20
0.0004
-5.04937e-20
0.0004
-9.94616e-20
0.0004
-1.4607e-19
0.0004
-7.46607e-20
0.0004
-6.81121e-20
0.0004
-1.63598e-20
0.0004
-6.04027e-20
0.0004
-9.04856e-20
0.0004
-8.09342e-20
0.0004
-8.39149e-20
0.0004
-4.43738e-20
0.0004
-5.53276e-20
0.0004
-9.02746e-20
-8.09032e-20
0.0004
-2.1053e-20
0.0004
-1.00959e-19
0.0004
-5.39472e-20
0.0004
-2.66986e-21
0.0004
5.24227e-20
0.0004
2.48132e-20
0.0004
-4.55639e-20
0.0004
-7.99254e-20
0.0004
-6.99292e-20
0.0004
-1.02953e-19
0.0004
-5.84419e-20
0.0004
-2.3719e-20
0.0004
-9.3668e-20
0.0004
-1.01771e-19
0.0004
-8.42867e-20
0.0004
-5.02139e-20
0.0004
-6.23343e-20
0.0004
-1.3618e-19
0.0004
-8.51519e-20
-6.02969e-20
0.0004
-9.38099e-20
0.0004
-6.66247e-20
0.0004
-5.24384e-20
0.0004
-1.64373e-20
0.0004
9.67149e-21
0.0004
-3.79474e-20
0.0004
-7.17105e-20
0.0004
-7.48807e-20
0.0004
6.34188e-21
0.0004
-5.79469e-20
0.0004
-1.00491e-19
0.0004
-8.81712e-20
0.0004
-9.51502e-21
0.0004
-1.10933e-19
0.0004
-1.0201e-19
0.0004
-1.05425e-19
0.0004
-1.4884e-19
0.0004
-1.02135e-19
0.0004
-8.83742e-20
-1.40941e-19
0.0004
-5.83211e-20
0.0004
-8.21394e-20
0.0004
-5.43759e-20
0.0004
-2.47652e-20
0.0004
-8.70543e-20
0.0004
-8.68041e-20
0.0004
-5.54319e-20
0.0004
-6.81012e-20
0.0004
-1.28197e-20
0.0004
1.08052e-21
0.0004
-5.10956e-20
0.0004
-7.54623e-20
0.0004
-3.88735e-20
0.0004
-3.51104e-21
0.0004
-7.28943e-20
0.0004
-1.44332e-19
0.0004
-1.65463e-19
0.0004
-1.3412e-19
0.0004
-1.46638e-19
-1.53916e-19
0.0004
-2.51401e-20
0.0004
-8.65143e-20
0.0004
-1.03419e-19
0.0004
-8.29071e-20
0.0004
-1.15686e-19
0.0004
-6.4551e-20
0.0004
-5.25139e-20
0.0004
3.5994e-21
0.0004
1.91556e-20
0.0004
8.42308e-21
0.0004
-2.99288e-20
0.0004
-2.90716e-20
0.0004
-3.19672e-20
0.0004
-1.5726e-20
0.0004
-6.56601e-20
0.0004
-1.2632e-19
0.0004
-1.25069e-19
0.0004
-1.22062e-19
0.0004
-1.45015e-19
-1.20002e-19
0.0004
-3.35133e-20
0.0004
-8.21136e-20
0.0004
-5.44358e-20
0.0004
-1.3476e-19
0.0004
-1.2947e-19
0.0004
-5.84498e-20
0.0004
2.96493e-20
0.0004
3.11305e-20
0.0004
2.76448e-20
0.0004
6.37159e-20
0.0004
-5.75208e-20
0.0004
-2.69892e-20
0.0004
-5.30317e-20
0.0004
-5.71731e-20
0.0004
-6.43053e-20
0.0004
-4.75114e-20
0.0004
-1.22452e-19
0.0004
-1.01237e-19
0.0004
-1.20397e-19
-1.40966e-19
0.0004
-5.37198e-20
0.0004
-1.27759e-19
0.0004
-1.36523e-19
0.0004
-9.79513e-20
0.0004
-7.23471e-20
0.0004
-5.41487e-20
0.0004
-5.11868e-20
0.0004
3.20449e-20
0.0004
4.16527e-20
0.0004
6.4332e-20
0.0004
1.49347e-20
0.0004
-4.87138e-20
0.0004
-5.0722e-20
0.0004
-5.478e-20
0.0004
-3.05641e-21
0.0004
-3.4859e-20
0.0004
-6.93568e-20
0.0004
-5.27074e-20
0.0004
-9.70485e-20
-1.35513e-19
0.0004
-1.84466e-20
0.0004
-1.16146e-19
0.0004
-1.9226e-19
0.0004
-1.53258e-19
0.0004
-5.88672e-20
0.0004
-4.62145e-20
0.0004
-1.53098e-20
0.0004
3.7654e-21
0.0004
1.38166e-20
0.0004
-4.01349e-21
0.0004
2.61809e-20
0.0004
-1.5538e-20
0.0004
-2.66086e-21
0.0004
3.30691e-20
0.0004
1.93613e-20
0.0004
8.40954e-21
0.0004
-1.42754e-20
0.0004
-1.23197e-19
0.0004
-8.64293e-20
-7.38889e-20
0.0004
-7.7501e-20
0.0004
-1.34875e-19
0.0004
-1.16707e-19
0.0004
-7.84859e-20
0.0004
-5.98539e-20
0.0004
-5.12267e-20
0.0004
-4.45108e-20
0.0004
-5.36836e-20
0.0004
-3.52035e-21
0.0004
-2.02568e-21
0.0004
-6.7028e-21
0.0004
-5.46833e-21
0.0004
1.08162e-19
0.0004
1.3191e-19
0.0004
-1.31784e-20
0.0004
-5.51678e-20
0.0004
-3.41207e-20
0.0004
-8.87608e-20
0.0004
-1.08428e-19
-1.08297e-19
0.0004
-4.75223e-20
0.0004
-1.06163e-19
0.0004
-1.09631e-19
0.0004
-1.08651e-19
0.0004
-6.87832e-20
0.0004
-5.81202e-20
0.0004
-6.22377e-20
0.0004
-7.31112e-20
0.0004
-1.51884e-20
0.0004
1.33868e-20
0.0004
2.52374e-20
0.0004
1.91792e-20
0.0004
7.99821e-20
0.0004
8.26465e-20
0.0004
6.62011e-20
0.0004
-3.0226e-21
0.0004
-7.21715e-20
0.0004
-3.93191e-20
0.0004
-1.02546e-19
-1.18909e-19
0.0004
0.0004
0.0004
0.0004
0.0004
0.0004
0.0004
0.0004
0.0004
0.0004
0.0004
0.0004
0.0004
0.0004
0.0004
0.0004
0.0004
0.0004
0.0004
)
;

boundaryField
{
    inlet
    {
        type            calculated;
        value           nonuniform List<scalar> 
20
(
-0.0004
-0.0004
-0.0004
-0.0004
-0.0004
-0.0004
-0.0004
-0.0004
-0.0004
-0.0004
-0.0004
-0.0004
-0.0004
-0.0004
-0.0004
-0.0004
-0.0004
-0.0004
-0.0004
-0.0004
)
;
    }
    outlet
    {
        type            calculated;
        value           nonuniform List<scalar> 
20
(
0.0004
0.0004
0.0004
0.0004
0.0004
0.0004
0.0004
0.0004
0.0004
0.0004
0.0004
0.0004
0.0004
0.0004
0.0004
0.0004
0.0004
0.0004
0.0004
0.0004
)
;
    }
    up
    {
        type            calculated;
        value           nonuniform List<scalar> 
20
(
-1.49296e-20
-5.74098e-20
-6.92151e-20
-6.52314e-20
-6.463e-20
-5.65162e-20
-6.18106e-20
-5.94195e-20
-4.60045e-20
-4.19896e-20
-2.96894e-20
-7.50747e-21
4.30717e-20
7.82541e-20
6.32094e-20
2.72329e-20
-1.69404e-20
-4.9326e-20
-6.82039e-20
-8.49782e-20
)
;
    }
    down
    {
        type            calculated;
        value           nonuniform List<scalar> 
20
(
-1.30661e-20
-5.0812e-20
-5.04561e-20
-3.1195e-20
-3.10225e-20
-2.18797e-20
-2.23634e-20
3.10996e-21
1.64426e-20
1.72755e-20
2.01278e-20
4.3204e-20
5.69608e-20
4.3239e-20
1.59297e-20
2.51291e-20
6.67192e-21
3.48104e-20
4.87459e-20
3.6471e-20
)
;
    }
    frontAndBack
    {
        type            empty;
        value           nonuniform List<scalar> 0();
    }
}


// ************************************************************************* //
