/*--------------------------------*- C++ -*----------------------------------*\
  =========                 |
  \\      /  F ield         | OpenFOAM: The Open Source CFD Toolbox
   \\    /   O peration     | Website:  https://openfoam.org
    \\  /    A nd           | Version:  8
     \\/     M anipulation  |
\*---------------------------------------------------------------------------*/
FoamFile
{
    version     2.0;
    format      ascii;
    class       surfaceScalarField;
    location    "0.105";
    object      phi;
}
// * * * * * * * * * * * * * * * * * * * * * * * * * * * * * * * * * * * * * //

dimensions      [0 3 -1 0 0 0 0];

internalField   nonuniform List<scalar> 
760
(
1.40322e-08
-1.40324e-08
-2.19786e-08
3.6011e-08
-1.12901e-07
9.09231e-08
-2.42447e-07
1.29545e-07
-3.9108e-07
1.48633e-07
-5.40338e-07
1.49257e-07
-6.74341e-07
1.34003e-07
-7.80373e-07
1.06031e-07
-8.49008e-07
6.86345e-08
-8.7416e-07
2.51522e-08
-8.5322e-07
-2.09399e-08
-7.87302e-07
-6.59188e-08
-6.81541e-07
-1.05761e-07
-5.45335e-07
-1.36206e-07
-3.92357e-07
-1.52978e-07
-2.40106e-07
-1.52251e-07
-1.08669e-07
-1.31437e-07
-1.83491e-08
-9.03205e-08
1.54553e-08
-3.38049e-08
1.5455e-08
-3.38082e-08
1.97752e-08
-1.78079e-07
1.80282e-07
-4.28356e-07
3.412e-07
-7.5439e-07
4.55579e-07
-1.11719e-06
5.11432e-07
-1.47722e-06
5.09292e-07
-1.79883e-06
4.55611e-07
-2.05251e-06
3.59714e-07
-2.21606e-06
2.3218e-07
-2.27518e-06
8.42686e-08
-2.22401e-06
-7.21098e-08
-2.06566e-06
-2.24271e-07
-1.81265e-06
-3.58769e-07
-1.4871e-06
-4.61757e-07
-1.12019e-06
-5.19882e-07
-7.50514e-07
-5.2193e-07
-4.20548e-07
-4.61401e-07
-1.70824e-07
-3.40044e-07
-3.05105e-08
-1.74117e-07
-1.50559e-08
-9.10161e-08
1.10791e-07
-3.52353e-07
4.41619e-07
-7.54594e-07
7.4344e-07
-1.25187e-06
9.52859e-07
-1.7908e-06
1.05036e-06
-2.31796e-06
1.03645e-06
-2.78496e-06
9.22613e-07
-3.1515e-06
7.26257e-07
-3.3871e-06
4.67779e-07
-3.47213e-06
1.69297e-07
-3.3986e-06
-1.45641e-07
-3.17085e-06
-4.52024e-07
-2.80607e-06
-7.23546e-07
-2.33442e-06
-9.33404e-07
-1.7982e-06
-1.05611e-06
-1.2495e-06
-1.07063e-06
-7.45809e-07
-9.65095e-07
-3.43063e-07
-7.4279e-07
-8.63762e-08
-4.30803e-07
-1.01432e-07
-1.43363e-07
2.54154e-07
-5.18905e-07
8.17162e-07
-1.0682e-06
1.29273e-06
-1.72579e-06
1.61045e-06
-2.42372e-06
1.74829e-06
-3.09713e-06
1.70986e-06
-3.68844e-06
1.51393e-06
-4.1502e-06
1.18801e-06
-4.44661e-06
7.64191e-07
-4.55461e-06
2.77302e-07
-4.46463e-06
-2.35624e-07
-4.18133e-06
-7.35323e-07
-3.72434e-06
-1.18054e-06
-3.12853e-06
-1.52921e-06
-2.4435e-06
-1.74114e-06
-1.73139e-06
-1.78274e-06
-1.06267e-06
-1.63382e-06
-5.09544e-07
-1.29592e-06
-1.37806e-07
-8.02541e-07
-2.39238e-07
-1.91365e-07
4.45519e-07
-6.77265e-07
1.30306e-06
-1.3701e-06
1.98556e-06
-2.18253e-06
2.42288e-06
-3.03105e-06
2.59682e-06
-3.84004e-06
2.51884e-06
-4.54461e-06
2.21851e-06
-5.09243e-06
1.73583e-06
-5.44446e-06
1.11622e-06
-5.57546e-06
4.08303e-07
-5.47447e-06
-3.36614e-07
-5.14557e-06
-1.06423e-06
-4.60887e-06
-1.71725e-06
-3.90143e-06
-2.23664e-06
-3.07761e-06
-2.56496e-06
-2.20793e-06
-2.65242e-06
-1.37581e-06
-2.46593e-06
-6.71813e-07
-1.99991e-06
-1.85905e-07
-1.28845e-06
-4.25143e-07
-2.37576e-07
6.83095e-07
-8.32304e-07
1.89779e-06
-1.66731e-06
2.82057e-06
-2.63182e-06
3.3874e-06
-3.62593e-06
3.59093e-06
-4.56362e-06
3.45652e-06
-5.37416e-06
3.02905e-06
-6.0022e-06
2.36387e-06
-6.40719e-06
1.52121e-06
-6.56278e-06
5.6389e-07
-6.45672e-06
-4.42669e-07
-6.09153e-06
-1.42942e-06
-5.48588e-06
-2.3229e-06
-4.6766e-06
-3.04592e-06
-3.7205e-06
-3.52106e-06
-2.69508e-06
-3.67784e-06
-1.69705e-06
-3.46397e-06
-8.37571e-07
-2.85939e-06
-2.34179e-07
-1.89184e-06
-6.59322e-07
-2.84541e-07
9.67637e-07
-9.89632e-07
2.60288e-06
-1.96734e-06
3.79828e-06
-3.08176e-06
4.50182e-06
-4.21598e-06
4.72515e-06
-5.27444e-06
4.51499e-06
-6.18243e-06
3.93703e-06
-6.88384e-06
3.06528e-06
-7.33863e-06
1.976e-06
-7.52065e-06
7.45908e-07
-7.41657e-06
-5.46751e-07
-7.02629e-06
-1.8197e-06
-6.36493e-06
-2.98426e-06
-5.46612e-06
-3.94472e-06
-4.38611e-06
-4.60108e-06
-3.20723e-06
-4.85672e-06
-2.03913e-06
-4.63207e-06
-1.01572e-06
-3.88279e-06
-2.86345e-07
-2.62122e-06
-9.45667e-07
-3.34548e-07
1.30219e-06
-1.15435e-06
3.42268e-06
-2.27612e-06
4.92005e-06
-3.53627e-06
5.76197e-06
-4.80076e-06
5.98964e-06
-5.96636e-06
5.68059e-06
-6.95731e-06
4.92798e-06
-7.7201e-06
3.82806e-06
-8.21804e-06
2.47394e-06
-8.42706e-06
9.54933e-07
-8.33332e-06
-6.40495e-07
-7.93311e-06
-2.21991e-06
-7.23539e-06
-3.68198e-06
-6.26677e-06
-4.91335e-06
-5.07843e-06
-5.78942e-06
-3.75359e-06
-6.18156e-06
-2.41296e-06
-5.9727e-06
-1.21482e-06
-5.08093e-06
-3.46012e-07
-3.49002e-06
-1.29168e-06
-3.89814e-07
1.692e-06
-1.33101e-06
4.36388e-06
-2.59726e-06
6.1863e-06
-3.99371e-06
7.15841e-06
-5.36976e-06
7.36569e-06
-6.61799e-06
6.92881e-06
-7.66644e-06
5.97644e-06
-8.46906e-06
4.63068e-06
-8.99668e-06
3.00156e-06
-9.23014e-06
1.18839e-06
-9.15617e-06
-7.1446e-07
-8.76666e-06
-2.60942e-06
-8.06145e-06
-4.38719e-06
-7.05507e-06
-5.91973e-06
-5.78711e-06
-7.05738e-06
-4.33498e-06
-7.63369e-06
-2.82583e-06
-7.48184e-06
-1.44257e-06
-6.46419e-06
-4.1679e-07
-4.5158e-06
-1.70847e-06
-4.53106e-07
2.1451e-06
-1.52445e-06
5.43523e-06
-2.9323e-06
7.59415e-06
-4.44578e-06
8.6719e-06
-5.89997e-06
8.81988e-06
-7.18932e-06
8.21816e-06
-8.25308e-06
7.0402e-06
-9.05965e-06
5.43725e-06
-9.59301e-06
3.53492e-06
-9.84279e-06
1.43818e-06
-9.79828e-06
-7.58979e-07
-9.44651e-06
-2.96118e-06
-8.77515e-06
-5.05855e-06
-7.78057e-06
-6.91431e-06
-6.48184e-06
-8.3561e-06
-4.94008e-06
-9.17545e-06
-3.27989e-06
-9.14204e-06
-1.70596e-06
-8.03812e-06
-5.02775e-07
-5.71899e-06
-2.21124e-06
-5.28857e-07
2.67396e-06
-1.74129e-06
6.64767e-06
-3.28093e-06
9.13378e-06
-4.87583e-06
1.02668e-05
-6.3522e-06
1.02962e-05
-7.61664e-06
9.48261e-06
-8.63044e-06
8.054e-06
-9.38567e-06
6.19248e-06
-9.88655e-06
4.0358e-06
-1.01364e-05
1.68799e-06
-1.01297e-05
-7.65693e-07
-9.84908e-06
-3.24176e-06
-9.26755e-06
-5.64007e-06
-8.3568e-06
-7.82506e-06
-7.10431e-06
-9.60859e-06
-5.53984e-06
-1.07399e-05
-3.76978e-06
-1.09121e-05
-2.01152e-06
-9.79638e-06
-6.09445e-07
-7.12106e-06
-2.82069e-06
-6.25026e-07
3.29899e-06
-1.99178e-06
8.01442e-06
-3.64021e-06
1.07822e-05
-5.25437e-06
1.1881e-05
-6.66395e-06
1.17058e-05
-7.80426e-06
1.06229e-05
-8.67344e-06
8.92318e-06
-9.29845e-06
6.81749e-06
-9.71137e-06
4.44872e-06
-9.93427e-06
1.91089e-06
-9.97025e-06
-7.2972e-07
-9.79919e-06
-3.41281e-06
-9.37832e-06
-6.06095e-06
-8.64939e-06
-8.55399e-06
-7.55639e-06
-1.07016e-05
-6.07809e-06
-1.22182e-05
-4.27788e-06
-1.27123e-05
-2.36519e-06
-1.17091e-05
-7.45138e-07
-8.74112e-06
-3.56583e-06
-7.56134e-07
4.05512e-06
-2.29105e-06
9.54933e-06
-3.99979e-06
1.2491e-05
-5.52853e-06
1.34097e-05
-6.73559e-06
1.29129e-05
-7.61044e-06
1.14978e-05
-8.2068e-06
9.51953e-06
-8.59785e-06
7.20855e-06
-8.84982e-06
4.70069e-06
-9.00725e-06
2.06832e-06
-9.08486e-06
-6.52104e-07
-9.06284e-06
-3.43484e-06
-8.88483e-06
-6.23896e-06
-8.46116e-06
-8.97766e-06
-7.68283e-06
-1.14799e-05
-6.45562e-06
-1.34454e-05
-4.7643e-06
-1.44036e-05
-2.77046e-06
-1.37029e-05
-9.23398e-07
-1.05882e-05
-4.48923e-06
-9.47708e-07
5.00283e-06
-2.65669e-06
1.12583e-05
-4.32679e-06
1.41611e-05
-5.59757e-06
1.46805e-05
-6.40349e-06
1.37188e-05
-6.824e-06
1.19183e-05
-6.98795e-06
9.68347e-06
-7.02223e-06
7.24283e-06
-7.02828e-06
4.70674e-06
-7.0727e-06
2.11274e-06
-7.1831e-06
-5.41701e-07
-7.34425e-06
-3.27369e-06
-7.49309e-06
-6.09012e-06
-7.51474e-06
-8.95601e-06
-7.24631e-06
-1.17484e-05
-6.50254e-06
-1.41892e-05
-5.14539e-06
-1.57608e-05
-3.22064e-06
-1.56277e-05
-1.1659e-06
-1.26429e-05
-5.65513e-06
-1.23992e-06
6.24275e-06
-3.09193e-06
1.31103e-05
-4.52458e-06
1.55937e-05
-5.26077e-06
1.54167e-05
-5.39124e-06
1.38493e-05
-5.12713e-06
1.16542e-05
-4.68429e-06
9.24063e-06
-4.23895e-06
6.7975e-06
-3.91805e-06
4.38583e-06
-3.80206e-06
1.99675e-06
-3.92871e-06
-4.1505e-07
-4.29203e-06
-2.91037e-06
-4.83484e-06
-5.54731e-06
-5.43527e-06
-8.35558e-06
-5.89293e-06
-1.12907e-05
-5.93092e-06
-1.41512e-05
-5.24775e-06
-1.64439e-05
-3.67346e-06
-1.7202e-05
-1.50205e-06
-1.48143e-05
-7.15718e-06
-1.67612e-06
7.91887e-06
-3.52128e-06
1.49555e-05
-4.33114e-06
1.64036e-05
-4.11411e-06
1.51996e-05
-3.22833e-06
1.29635e-05
-2.04386e-06
1.04697e-05
-8.49094e-07
8.04587e-06
1.58317e-07
5.79008e-06
8.5252e-07
3.69163e-06
1.15799e-06
1.69128e-06
1.03551e-06
-2.92578e-07
4.78501e-07
-2.35336e-06
-4.78875e-07
-4.58993e-06
-1.73979e-06
-7.09466e-06
-3.10953e-06
-9.92095e-06
-4.25735e-06
-1.30034e-05
-4.71213e-06
-1.59892e-05
-3.97523e-06
-1.79389e-05
-1.94718e-06
-1.68424e-05
-9.10436e-06
-2.23235e-06
1.01512e-05
-3.59641e-06
1.63196e-05
-3.09067e-06
1.58978e-05
-1.36524e-06
1.34742e-05
8.66228e-07
1.0732e-05
3.11461e-06
8.22131e-06
5.08899e-06
6.07149e-06
6.63239e-06
4.24668e-06
7.66462e-06
2.6594e-06
8.14313e-06
1.21277e-06
8.04116e-06
-1.90601e-07
7.33982e-06
-1.65202e-06
6.0337e-06
-3.28381e-06
4.15411e-06
-5.21507e-06
1.81851e-06
-7.58536e-06
-6.87387e-07
-1.04975e-05
-2.80828e-06
-1.38683e-05
-3.67005e-06
-1.70771e-05
-2.41381e-06
-1.80986e-05
-1.15182e-05
-2.5746e-06
1.27258e-05
-2.18712e-06
1.59321e-05
7.09416e-07
1.30013e-05
4.45411e-06
9.72953e-06
8.10986e-06
7.07627e-06
1.12698e-05
5.06135e-06
1.37896e-05
3.55175e-06
1.56421e-05
2.39412e-06
1.68412e-05
1.4603e-06
1.74023e-05
6.51648e-07
1.73243e-05
-1.12529e-07
1.65813e-05
-9.09047e-07
1.5123e-05
-1.82553e-06
1.28861e-05
-2.97812e-06
9.83212e-06
-4.53142e-06
6.04059e-06
-6.70596e-06
1.89889e-06
-9.72658e-06
-1.5663e-06
-1.36119e-05
-2.46025e-06
-1.72046e-05
-1.39784e-05
-7.84965e-07
1.35108e-05
4.07962e-06
1.10675e-05
1.02934e-05
6.78749e-06
1.5785e-05
4.23799e-06
2.01437e-05
2.71752e-06
2.34377e-05
1.76736e-06
2.58347e-05
1.15473e-06
2.74907e-05
7.38117e-07
2.852e-05
4.31036e-07
2.89909e-05
1.80743e-07
2.8927e-05
-4.86812e-08
2.83057e-05
-2.87702e-07
2.70524e-05
-5.72192e-07
2.50303e-05
-9.56034e-07
2.20323e-05
-1.53342e-06
1.78016e-05
-2.47531e-06
1.21638e-05
-4.08875e-06
5.4736e-06
-6.92169e-06
-1.30263e-07
-1.16008e-05
-1.41087e-05
1.35108e-05
2.45783e-05
3.13658e-05
3.56038e-05
3.83213e-05
4.00886e-05
4.12434e-05
4.19815e-05
4.24125e-05
4.25933e-05
4.25446e-05
4.22569e-05
4.16847e-05
4.07287e-05
3.91952e-05
3.67199e-05
3.26312e-05
2.57095e-05
1.41087e-05
)
;

boundaryField
{
    movingWall
    {
        type            calculated;
        value           uniform 0;
    }
    fixedWalls
    {
        type            calculated;
        value           uniform 0;
    }
    frontAndBack
    {
        type            empty;
        value           nonuniform List<scalar> 0();
    }
}


// ************************************************************************* //
