/*--------------------------------*- C++ -*----------------------------------*\
  =========                 |
  \\      /  F ield         | OpenFOAM: The Open Source CFD Toolbox
   \\    /   O peration     | Website:  https://openfoam.org
    \\  /    A nd           | Version:  8
     \\/     M anipulation  |
\*---------------------------------------------------------------------------*/
FoamFile
{
    version     2.0;
    format      ascii;
    class       volVectorField;
    location    "1.4";
    object      U;
}
// * * * * * * * * * * * * * * * * * * * * * * * * * * * * * * * * * * * * * //

dimensions      [0 1 -1 0 0 0 0];

internalField   nonuniform List<vector> 
400
(
(0.0249896 -1.22007e-15 0)
(0.0249896 -2.02666e-15 0)
(0.0249896 -1.46177e-15 0)
(0.0249896 -3.90259e-15 0)
(0.0249896 -5.78533e-15 0)
(0.0249896 -8.02459e-15 0)
(0.0249896 -9.00603e-15 0)
(0.0249896 -9.92126e-15 0)
(0.0249896 -9.46456e-15 0)
(0.0249896 -8.39309e-15 0)
(0.0249896 -6.32683e-15 0)
(0.0249896 -3.60364e-15 0)
(0.0249896 -8.12371e-16 0)
(0.0249896 2.47669e-15 0)
(0.0249896 4.95083e-15 0)
(0.0249896 7.54096e-15 0)
(0.0249896 8.61719e-15 0)
(0.0249896 8.90988e-15 0)
(0.0249896 7.30575e-15 0)
(0.0249896 3.04917e-15 0)
(0.0749692 -1.23224e-16 0)
(0.0749692 -2.11366e-14 0)
(0.0749692 -3.75585e-14 0)
(0.0749692 -5.27469e-14 0)
(0.0749692 -6.3689e-14 0)
(0.0749692 -6.74559e-14 0)
(0.0749692 -6.53463e-14 0)
(0.0749692 -5.62065e-14 0)
(0.0749692 -4.21259e-14 0)
(0.0749692 -2.33883e-14 0)
(0.0749692 -2.61753e-15 0)
(0.0749692 1.82432e-14 0)
(0.0749692 3.74194e-14 0)
(0.0749692 5.24521e-14 0)
(0.0749692 6.31326e-14 0)
(0.0749692 6.70933e-14 0)
(0.0749692 6.55619e-14 0)
(0.0749692 5.67553e-14 0)
(0.0749692 4.31552e-14 0)
(0.0749692 2.14219e-14 0)
(0.12495 -4.70497e-14 0)
(0.12495 -1.07644e-13 0)
(0.12495 -1.59435e-13 0)
(0.12495 -1.96725e-13 0)
(0.12495 -2.14004e-13 0)
(0.12495 -2.10279e-13 0)
(0.12495 -1.85164e-13 0)
(0.12495 -1.425e-13 0)
(0.12495 -8.5212e-14 0)
(0.12495 -2.00935e-14 0)
(0.12495 4.69681e-14 0)
(0.12495 1.08822e-13 0)
(0.12495 1.5947e-13 0)
(0.12495 1.94721e-13 0)
(0.12495 2.10583e-13 0)
(0.12495 2.0686e-13 0)
(0.12495 1.82685e-13 0)
(0.12495 1.41894e-13 0)
(0.12495 8.66558e-14 0)
(0.12495 2.24263e-14 0)
(0.174931 -1.56322e-13 0)
(0.174931 -2.75812e-13 0)
(0.174931 -3.68807e-13 0)
(0.174931 -4.26166e-13 0)
(0.174931 -4.41403e-13 0)
(0.174931 -4.12255e-13 0)
(0.174931 -3.42886e-13 0)
(0.174931 -2.39258e-13 0)
(0.174931 -1.12638e-13 0)
(0.174931 2.53297e-14 0)
(0.174931 1.59968e-13 0)
(0.174931 2.78454e-13 0)
(0.174931 3.69202e-13 0)
(0.174931 4.23606e-13 0)
(0.174931 4.37118e-13 0)
(0.174931 4.07809e-13 0)
(0.174931 3.39488e-13 0)
(0.174931 2.37972e-13 0)
(0.174931 1.14254e-13 0)
(0.174931 -2.15946e-14 0)
(0.224914 -3.16608e-13 0)
(0.224914 -4.96879e-13 0)
(0.224914 -6.29219e-13 0)
(0.224914 -7.0046e-13 0)
(0.224914 -7.02399e-13 0)
(0.224914 -6.3503e-13 0)
(0.224914 -5.04938e-13 0)
(0.224914 -3.25633e-13 0)
(0.224914 -1.13932e-13 0)
(0.224914 1.08323e-13 0)
(0.224914 3.19782e-13 0)
(0.224914 4.99081e-13 0)
(0.224914 6.29426e-13 0)
(0.224914 6.98207e-13 0)
(0.224914 6.98944e-13 0)
(0.224914 6.31769e-13 0)
(0.224914 5.02653e-13 0)
(0.224914 3.24891e-13 0)
(0.224914 1.15339e-13 0)
(0.224914 -1.05382e-13 0)
(0.2749 -4.86651e-13 0)
(0.2749 -7.20388e-13 0)
(0.2749 -8.83731e-13 0)
(0.2749 -9.61167e-13 0)
(0.2749 -9.4384e-13 0)
(0.2749 -8.33757e-13 0)
(0.2749 -6.41932e-13 0)
(0.2749 -3.86985e-13 0)
(0.2749 -9.42851e-14 0)
(0.2749 2.07733e-13 0)
(0.2749 4.8869e-13 0)
(0.2749 7.21753e-13 0)
(0.2749 8.83802e-13 0)
(0.2749 9.59786e-13 0)
(0.2749 9.41926e-13 0)
(0.2749 8.32134e-13 0)
(0.2749 6.40877e-13 0)
(0.2749 3.86777e-13 0)
(0.2749 9.53191e-14 0)
(0.2749 -2.05878e-13 0)
(0.324888 -6.24152e-13 0)
(0.324888 -8.91643e-13 0)
(0.324888 -1.07284e-12 0)
(0.324888 -1.1487e-12 0)
(0.324888 -1.11228e-12 0)
(0.324888 -9.66543e-13 0)
(0.324888 -7.26205e-13 0)
(0.324888 -4.14559e-13 0)
(0.324888 -6.21833e-14 0)
(0.324888 2.96002e-13 0)
(0.324888 6.25284e-13 0)
(0.324888 8.92831e-13 0)
(0.324888 1.07342e-12 0)
(0.324888 1.14871e-12 0)
(0.324888 1.11201e-12 0)
(0.324888 9.66161e-13 0)
(0.324888 7.25776e-13 0)
(0.324888 4.14295e-13 0)
(0.324888 6.23864e-14 0)
(0.324888 -2.95196e-13 0)
(0.374878 -6.96792e-13 0)
(0.374878 -9.72357e-13 0)
(0.374878 -1.15279e-12 0)
(0.374878 -1.22095e-12 0)
(0.374878 -1.16914e-12 0)
(0.374878 -1.00334e-12 0)
(0.374878 -7.38783e-13 0)
(0.374878 -4.01911e-13 0)
(0.374878 -2.54607e-14 0)
(0.374878 3.53514e-13 0)
(0.374878 6.97592e-13 0)
(0.374878 9.73722e-13 0)
(0.374878 1.15412e-12 0)
(0.374878 1.22206e-12 0)
(0.374878 1.16975e-12 0)
(0.374878 1.00318e-12 0)
(0.374878 7.37913e-13 0)
(0.374878 4.00845e-13 0)
(0.374878 2.47019e-14 0)
(0.374878 -3.53535e-13 0)
(0.424872 -6.93334e-13 0)
(0.424872 -9.46919e-13 0)
(0.424872 -1.10889e-12 0)
(0.424872 -1.16185e-12 0)
(0.424872 -1.10187e-12 0)
(0.424872 -9.33346e-13 0)
(0.424872 -6.73782e-13 0)
(0.424872 -3.4752e-13 0)
(0.424872 1.26462e-14 0)
(0.424872 3.71707e-13 0)
(0.424872 6.94412e-13 0)
(0.424872 9.48883e-13 0)
(0.424872 1.11086e-12 0)
(0.424872 1.16339e-12 0)
(0.424872 1.1024e-12 0)
(0.424872 9.32507e-13 0)
(0.424872 6.71901e-13 0)
(0.424872 3.45492e-13 0)
(0.424872 -1.40176e-14 0)
(0.424872 -3.71844e-13 0)
(0.474869 -6.21564e-13 0)
(0.474869 -8.28397e-13 0)
(0.474869 -9.54392e-13 0)
(0.474869 -9.87765e-13 0)
(0.474869 -9.23912e-13 0)
(0.474869 -7.70104e-13 0)
(0.474869 -5.39892e-13 0)
(0.474869 -2.56985e-13 0)
(0.474869 5.15715e-14 0)
(0.474869 3.54915e-13 0)
(0.474869 6.2339e-13 0)
(0.474869 8.31003e-13 0)
(0.474869 9.56746e-13 0)
(0.474869 9.89148e-13 0)
(0.474869 9.23733e-13 0)
(0.474869 7.68222e-13 0)
(0.474869 5.37031e-13 0)
(0.474869 2.54361e-13 0)
(0.474869 -5.30699e-14 0)
(0.474869 -3.54736e-13 0)
(0.524869 -5.05639e-13 0)
(0.524869 -6.48273e-13 0)
(0.524869 -7.28504e-13 0)
(0.524869 -7.3726e-13 0)
(0.524869 -6.74545e-13 0)
(0.524869 -5.44886e-13 0)
(0.524869 -3.61968e-13 0)
(0.524869 -1.4263e-13 0)
(0.524869 9.02872e-14 0)
(0.524869 3.14543e-13 0)
(0.524869 5.07815e-13 0)
(0.524869 6.51159e-13 0)
(0.524869 7.30883e-13 0)
(0.524869 7.38274e-13 0)
(0.524869 6.73661e-13 0)
(0.524869 5.42216e-13 0)
(0.524869 3.58596e-13 0)
(0.524869 1.39861e-13 0)
(0.524869 -9.15567e-14 0)
(0.524869 -3.14052e-13 0)
(0.574872 -3.73674e-13 0)
(0.574872 -4.48138e-13 0)
(0.574872 -4.79173e-13 0)
(0.574872 -4.64154e-13 0)
(0.574872 -4.03314e-13 0)
(0.574872 -3.0332e-13 0)
(0.574872 -1.72429e-13 0)
(0.574872 -2.481e-14 0)
(0.574872 1.25776e-13 0)
(0.574872 2.63565e-13 0)
(0.574872 3.75617e-13 0)
(0.574872 4.50827e-13 0)
(0.574872 4.81482e-13 0)
(0.574872 4.65016e-13 0)
(0.574872 4.02143e-13 0)
(0.574872 3.00481e-13 0)
(0.574872 1.69003e-13 0)
(0.574872 2.21197e-14 0)
(0.574872 -1.26995e-13 0)
(0.574872 -2.63135e-13 0)
(0.624878 -2.50185e-13 0)
(0.624878 -2.64355e-13 0)
(0.624878 -2.53317e-13 0)
(0.624878 -2.17717e-13 0)
(0.624878 -1.61541e-13 0)
(0.624878 -8.88493e-14 0)
(0.624878 -7.51479e-15 0)
(0.624878 7.55674e-14 0)
(0.624878 1.50913e-13 0)
(0.624878 2.11813e-13 0)
(0.624878 2.51669e-13 0)
(0.624878 2.66809e-13 0)
(0.624878 2.55739e-13 0)
(0.624878 2.18963e-13 0)
(0.624878 1.60798e-13 0)
(0.624878 8.63357e-14 0)
(0.624878 4.20488e-15 0)
(0.624878 -7.84094e-14 0)
(0.624878 -1.52552e-13 0)
(0.624878 -2.11894e-13 0)
(0.674888 -1.50318e-13 0)
(0.674888 -1.21835e-13 0)
(0.674888 -8.19864e-14 0)
(0.674888 -3.48323e-14 0)
(0.674888 1.54801e-14 0)
(0.674888 6.39909e-14 0)
(0.674888 1.07001e-13 0)
(0.674888 1.39548e-13 0)
(0.674888 1.59248e-13 0)
(0.674888 1.6312e-13 0)
(0.674888 1.51303e-13 0)
(0.674888 1.24383e-13 0)
(0.674888 8.49642e-14 0)
(0.674888 3.69137e-14 0)
(0.674888 -1.53495e-14 0)
(0.674888 -6.59272e-14 0)
(0.674888 -1.10234e-13 0)
(0.674888 -1.42909e-13 0)
(0.674888 -1.61632e-13 0)
(0.674888 -1.63902e-13 0)
(0.7249 -7.83535e-14 0)
(0.7249 -2.94411e-14 0)
(0.7249 2.21483e-14 0)
(0.7249 7.07309e-14 0)
(0.7249 1.11786e-13 0)
(0.7249 1.41912e-13 0)
(0.7249 1.58199e-13 0)
(0.7249 1.59785e-13 0)
(0.7249 1.46013e-13 0)
(0.7249 1.18605e-13 0)
(0.7249 7.94244e-14 0)
(0.7249 3.25662e-14 0)
(0.7249 -1.81392e-14 0)
(0.7249 -6.76323e-14 0)
(0.7249 -1.10893e-13 0)
(0.7249 -1.43518e-13 0)
(0.7249 -1.61685e-13 0)
(0.7249 -1.63942e-13 0)
(0.7249 -1.49202e-13 0)
(0.7249 -1.19791e-13 0)
(0.774914 -3.23322e-14 0)
(0.774914 1.74213e-14 0)
(0.774914 6.49675e-14 0)
(0.774914 1.05431e-13 0)
(0.774914 1.3496e-13 0)
(0.774914 1.51029e-13 0)
(0.774914 1.52724e-13 0)
(0.774914 1.3991e-13 0)
(0.774914 1.14397e-13 0)
(0.774914 7.7821e-14 0)
(0.774914 3.40802e-14 0)
(0.774914 -1.34893e-14 0)
(0.774914 -6.00153e-14 0)
(0.774914 -1.01639e-13 0)
(0.774914 -1.33685e-13 0)
(0.774914 -1.52732e-13 0)
(0.774914 -1.56751e-13 0)
(0.774914 -1.44758e-13 0)
(0.774914 -1.17982e-13 0)
(0.774914 -7.87966e-14 0)
(0.824931 -6.44779e-15 0)
(0.824931 3.04195e-14 0)
(0.824931 6.43342e-14 0)
(0.824931 9.07794e-14 0)
(0.824931 1.08203e-13 0)
(0.824931 1.14656e-13 0)
(0.824931 1.10314e-13 0)
(0.824931 9.59088e-14 0)
(0.824931 7.26598e-14 0)
(0.824931 4.29709e-14 0)
(0.824931 8.88596e-15 0)
(0.824931 -2.60347e-14 0)
(0.824931 -5.92389e-14 0)
(0.824931 -8.70147e-14 0)
(0.824931 -1.07029e-13 0)
(0.824931 -1.1657e-13 0)
(0.824931 -1.14475e-13 0)
(0.824931 -1.00695e-13 0)
(0.824931 -7.59321e-14 0)
(0.824931 -4.33805e-14 0)
(0.87495 4.30007e-15 0)
(0.87495 2.4442e-14 0)
(0.87495 4.15923e-14 0)
(0.87495 5.44178e-14 0)
(0.87495 6.12898e-14 0)
(0.87495 6.23632e-14 0)
(0.87495 5.74728e-14 0)
(0.87495 4.75999e-14 0)
(0.87495 3.37027e-14 0)
(0.87495 1.6658e-14 0)
(0.87495 -1.74172e-15 0)
(0.87495 -2.05872e-14 0)
(0.87495 -3.75206e-14 0)
(0.87495 -5.1583e-14 0)
(0.87495 -6.06711e-14 0)
(0.87495 -6.42114e-14 0)
(0.87495 -6.10258e-14 0)
(0.87495 -5.14106e-14 0)
(0.87495 -3.59941e-14 0)
(0.87495 -1.64982e-14 0)
(0.924969 5.11661e-15 0)
(0.924969 1.14853e-14 0)
(0.924969 1.68151e-14 0)
(0.924969 1.98592e-14 0)
(0.924969 2.11067e-14 0)
(0.924969 2.00398e-14 0)
(0.924969 1.74137e-14 0)
(0.924969 1.32529e-14 0)
(0.924969 8.28571e-15 0)
(0.924969 2.76298e-15 0)
(0.924969 -3.40592e-15 0)
(0.924969 -9.09373e-15 0)
(0.924969 -1.45284e-14 0)
(0.924969 -1.83587e-14 0)
(0.924969 -2.09528e-14 0)
(0.924969 -2.11561e-14 0)
(0.924969 -1.95645e-14 0)
(0.924969 -1.53935e-14 0)
(0.924969 -9.35065e-15 0)
(0.924969 -2.16966e-15 0)
(0.97499 1.85149e-15 0)
(0.97499 2.55413e-15 0)
(0.97499 2.53549e-15 0)
(0.97499 2.66695e-15 0)
(0.97499 2.06431e-15 0)
(0.97499 1.67409e-15 0)
(0.97499 8.96178e-16 0)
(0.97499 3.2973e-16 0)
(0.97499 -1.72313e-16 0)
(0.97499 -6.67625e-16 0)
(0.97499 -1.0431e-15 0)
(0.97499 -1.66387e-15 0)
(0.97499 -1.83537e-15 0)
(0.97499 -2.22504e-15 0)
(0.97499 -2.06166e-15 0)
(0.97499 -2.00961e-15 0)
(0.97499 -1.50502e-15 0)
(0.97499 -8.45758e-16 0)
(0.97499 8.83565e-17 0)
(0.97499 1.2997e-15 0)
)
;

boundaryField
{
    movingWall
    {
        type            fixedValue;
        value           uniform (1 0 0);
    }
    fixedWalls
    {
        type            noSlip;
    }
    left
    {
        type            cyclic;
    }
    right
    {
        type            cyclic;
    }
    frontAndBack
    {
        type            empty;
    }
}


// ************************************************************************* //
