/*--------------------------------*- C++ -*----------------------------------*\
  =========                 |
  \\      /  F ield         | OpenFOAM: The Open Source CFD Toolbox
   \\    /   O peration     | Website:  https://openfoam.org
    \\  /    A nd           | Version:  8
     \\/     M anipulation  |
\*---------------------------------------------------------------------------*/
FoamFile
{
    version     2.0;
    format      ascii;
    class       volScalarField;
    location    "0.14";
    object      p;
}
// * * * * * * * * * * * * * * * * * * * * * * * * * * * * * * * * * * * * * //

dimensions      [0 2 -2 0 0 0 0];

internalField   nonuniform List<scalar> 
400
(
1.87611e-08
-0.00577119
-0.0128338
-0.0182177
-0.0201831
-0.0179557
-0.0114763
-0.00118863
0.0121153
0.0273989
0.0434601
0.0590046
0.072732
0.0834447
0.0901866
0.0924143
0.0902007
0.084454
0.07713
0.0713466
0.00577356
-0.000167963
-0.00569833
-0.00938512
-0.0103989
-0.00820175
-0.00272015
0.00573131
0.0165572
0.0289551
0.0419774
0.054597
0.065784
0.0746009
0.0803137
0.0825215
0.0813038
0.0773066
0.0715515
0.0656256
0.0133287
0.00509096
-0.000891577
-0.00427565
-0.00508741
-0.00304903
0.00183754
0.00927421
0.0187519
0.0295954
0.0410034
0.0520979
0.0619892
0.0698544
0.0750296
0.0771131
0.0760964
0.0723646
0.06611
0.057883
0.0201364
0.00876265
0.00133394
-0.0025222
-0.00354115
-0.00167613
0.00296175
0.0100294
0.0190327
0.0293488
0.0402428
0.0508999
0.0604749
0.0681578
0.0732508
0.0752621
0.0740462
0.0697607
0.061935
0.0504893
0.0245061
0.0098538
0.000707809
-0.00383485
-0.00511822
-0.00329602
0.00140821
0.00858477
0.0177232
0.0282158
0.0393528
0.0503362
0.0603138
0.0684314
0.0738988
0.0760828
0.0746737
0.0696184
0.0598819
0.0449584
0.0252018
0.00725363
-0.00366613
-0.00889104
-0.0103162
-0.00827748
-0.00311148
0.00469332
0.0145908
0.0259649
0.0381034
0.0501935
0.0613382
0.0705947
0.0770314
0.0798248
0.078465
0.0726822
0.0609136
0.0423359
0.0211531
-0.000125022
-0.012772
-0.0185205
-0.0198132
-0.0171715
-0.0110526
-0.00203405
0.00929149
0.0222876
0.0362264
0.0502628
0.0634304
0.0746637
0.0828431
0.0868989
0.0860654
0.079811
0.0660047
0.0435302
0.0112538
-0.0134361
-0.0276773
-0.0336347
-0.0343586
-0.0305877
-0.0229196
-0.012031
0.00143579
0.0168265
0.0334014
0.0502842
0.0664326
0.0806369
0.0915469
0.09778
0.098231
0.0920106
0.0762823
0.0495759
-0.00579194
-0.0340302
-0.0496301
-0.0552923
-0.0548113
-0.0492125
-0.0392682
-0.0257665
-0.00939255
0.00920014
0.0292848
0.0499785
0.0701793
0.0885309
0.103419
0.113071
0.115925
0.110573
0.0932143
0.0618616
-0.0316106
-0.0635802
-0.0801312
-0.0847114
-0.0821056
-0.0737428
-0.0606229
-0.043657
-0.0235534
-0.000925498
0.0235639
0.0490796
0.074509
0.0983767
0.11879
0.133513
0.140374
0.137202
0.118809
0.0823678
-0.0683513
-0.104248
-0.121015
-0.123257
-0.117168
-0.104761
-0.0873319
-0.0659175
-0.0412099
-0.0137145
0.0160538
0.0474009
0.0792962
0.110222
0.138038
0.159987
0.173121
0.174162
0.155872
0.113986
-0.119029
-0.158951
-0.17455
-0.172396
-0.160777
-0.142543
-0.119354
-0.09235
-0.0621303
-0.0289855
0.00684272
0.0449419
0.0845145
0.124148
0.161563
0.193496
0.216067
0.224459
0.208383
0.16103
-0.188222
-0.231802
-0.243554
-0.233573
-0.213313
-0.186762
-0.155962
-0.122068
-0.0854434
-0.046001
-0.00353502
0.0420167
0.0903094
0.140279
0.189748
0.235099
0.271472
0.292042
0.282056
0.230161
-0.283566
-0.328854
-0.331446
-0.307908
-0.274335
-0.236058
-0.195365
-0.153186
-0.109392
-0.0632781
-0.0139611
0.0393385
0.0970171
0.15872
0.222794
0.285687
0.341785
0.381945
0.385213
0.332218
-0.41894
-0.459243
-0.441988
-0.395442
-0.34178
-0.287384
-0.234242
-0.182529
-0.131181
-0.0785339
-0.0227512
0.0379366
0.105001
0.179262
0.26026
0.345346
0.428983
0.50006
0.529973
0.485783
-0.620201
-0.636366
-0.578355
-0.493877
-0.410929
-0.335342
-0.267444
-0.205611
-0.147137
-0.0889573
-0.0279856
0.0387885
0.114232
0.200872
0.300346
0.412369
0.53336
0.652108
0.733071
0.722796
-0.935611
-0.87819
-0.741433
-0.597657
-0.474128
-0.372393
-0.288578
-0.217437
-0.153591
-0.0920694
-0.028303
0.0421133
0.123668
0.221097
0.339274
0.482468
0.652264
0.841582
1.01554
1.09788
-1.47565
-1.20675
-0.920195
-0.69104
-0.517051
-0.387306
-0.2898
-0.213042
-0.147791
-0.0868489
-0.0241885
0.0458529
0.129321
0.233428
0.367426
0.542947
0.771441
1.05948
1.40398
1.72992
-2.5357
-1.63317
-1.0444
-0.71042
-0.4954
-0.35181
-0.254246
-0.183282
-0.125842
-0.0732408
-0.0188981
0.0431621
0.11957
0.219101
0.355079
0.548156
0.826382
1.23708
1.915
2.92037
-4.35969
-2.04682
-0.973733
-0.562918
-0.357775
-0.24011
-0.170029
-0.123624
-0.087249
-0.0532053
-0.0162829
0.0280802
0.0850593
0.1622
0.27289
0.44254
0.71852
1.22646
2.41371
4.84185
)
;

boundaryField
{
    movingWall
    {
        type            zeroGradient;
    }
    fixedWalls
    {
        type            zeroGradient;
    }
    frontAndBack
    {
        type            empty;
    }
}


// ************************************************************************* //
