/*--------------------------------*- C++ -*----------------------------------*\
  =========                 |
  \\      /  F ield         | OpenFOAM: The Open Source CFD Toolbox
   \\    /   O peration     | Website:  https://openfoam.org
    \\  /    A nd           | Version:  8
     \\/     M anipulation  |
\*---------------------------------------------------------------------------*/
FoamFile
{
    version     2.0;
    format      ascii;
    class       surfaceScalarField;
    location    "0.14";
    object      phi;
}
// * * * * * * * * * * * * * * * * * * * * * * * * * * * * * * * * * * * * * //

dimensions      [0 3 -1 0 0 0 0];

internalField   nonuniform List<scalar> 
760
(
1.41874e-08
-1.41872e-08
-2.21172e-08
3.6304e-08
-1.13788e-07
9.16702e-08
-2.4443e-07
1.30642e-07
-3.9434e-07
1.49911e-07
-5.44895e-07
1.50555e-07
-6.80069e-07
1.35174e-07
-7.8702e-07
1.06951e-07
-8.56225e-07
6.92054e-08
-8.81538e-07
2.5313e-08
-8.60329e-07
-2.12093e-08
-7.93734e-07
-6.65946e-08
-6.8696e-07
-1.06775e-07
-5.49512e-07
-1.37448e-07
-3.95205e-07
-1.54306e-07
-2.41703e-07
-1.53502e-07
-1.09254e-07
-1.32448e-07
-1.83065e-08
-9.0948e-08
1.56274e-08
-3.3934e-08
1.56271e-08
-3.39832e-08
1.97961e-08
-1.79444e-07
1.81765e-07
-4.31857e-07
3.44084e-07
-7.6072e-07
4.59504e-07
-1.12671e-06
5.15904e-07
-1.48995e-06
5.13794e-07
-1.81443e-06
4.59653e-07
-2.07036e-06
3.62876e-07
-2.23529e-06
2.3414e-07
-2.2948e-06
8.48227e-08
-2.24299e-06
-7.30253e-08
-2.08301e-06
-2.26571e-07
-1.82756e-06
-3.62223e-07
-1.49901e-06
-4.65999e-07
-1.12887e-06
-5.24448e-07
-7.56076e-07
-5.26294e-07
-4.23481e-07
-4.65043e-07
-1.71903e-07
-3.42525e-07
-3.06325e-08
-1.75204e-07
-1.50057e-08
-9.17809e-08
1.11578e-07
-3.5526e-07
4.45243e-07
-7.60869e-07
7.49694e-07
-1.26237e-06
9.61003e-07
-1.80592e-06
1.05946e-06
-2.33764e-06
1.04552e-06
-2.80869e-06
9.30705e-07
-3.17838e-06
7.3256e-07
-3.4159e-06
4.71668e-07
-3.50147e-06
1.70384e-07
-3.42702e-06
-1.47475e-07
-3.19698e-06
-4.56608e-07
-2.82878e-06
-7.30426e-07
-2.3529e-06
-9.41877e-07
-1.81207e-06
-1.06528e-06
-1.25887e-06
-1.0795e-06
-7.51224e-07
-9.72685e-07
-3.45475e-07
-7.48274e-07
-8.69719e-08
-4.33707e-07
-1.01978e-07
-1.44542e-07
2.5612e-07
-5.23068e-07
8.23769e-07
-1.07672e-06
1.30335e-06
-1.73957e-06
1.62385e-06
-2.44313e-06
1.76302e-06
-3.12201e-06
1.72439e-06
-3.71812e-06
1.52682e-06
-4.18357e-06
1.198e-06
-4.48223e-06
7.70332e-07
-4.59084e-06
2.78992e-07
-4.49976e-06
-2.38556e-07
-4.21376e-06
-7.42605e-07
-3.75272e-06
-1.19147e-06
-3.1519e-06
-1.5427e-06
-2.46135e-06
-1.75582e-06
-1.74376e-06
-1.79709e-06
-1.0701e-06
-1.64634e-06
-5.13058e-07
-1.30532e-06
-1.38761e-07
-8.08004e-07
-2.40738e-07
-1.92808e-07
4.48929e-07
-6.82212e-07
1.31317e-06
-1.38e-06
2.00114e-06
-2.19827e-06
2.44212e-06
-3.05296e-06
2.6177e-06
-3.86784e-06
2.53927e-06
-4.57756e-06
2.23654e-06
-5.12931e-06
1.74976e-06
-5.48373e-06
1.12475e-06
-5.61537e-06
4.10629e-07
-5.51321e-06
-3.40713e-07
-5.18144e-06
-1.07437e-06
-4.64043e-06
-1.73249e-06
-3.92762e-06
-2.25551e-06
-3.09785e-06
-2.5856e-06
-2.22216e-06
-2.67278e-06
-1.38454e-06
-2.48396e-06
-6.76044e-07
-2.01381e-06
-1.87092e-07
-1.29695e-06
-4.2783e-07
-2.39108e-07
6.88037e-07
-8.37481e-07
1.91154e-06
-1.67756e-06
2.84122e-06
-2.64799e-06
3.41254e-06
-3.64825e-06
3.61797e-06
-4.59181e-06
3.48283e-06
-5.40743e-06
3.05217e-06
-6.03935e-06
2.38168e-06
-6.44669e-06
1.53209e-06
-6.60293e-06
5.66862e-07
-6.49575e-06
-4.47885e-07
-6.12778e-06
-1.44235e-06
-5.51792e-06
-2.34235e-06
-4.70336e-06
-3.07007e-06
-3.74134e-06
-3.54762e-06
-2.70988e-06
-3.70423e-06
-1.70623e-06
-3.48761e-06
-8.42085e-07
-2.87796e-06
-2.35464e-07
-1.90358e-06
-6.63294e-07
-2.85982e-07
9.74019e-07
-9.94469e-07
2.62003e-06
-1.97688e-06
3.82363e-06
-3.09673e-06
4.53239e-06
-4.23657e-06
4.75782e-06
-5.30039e-06
4.54665e-06
-6.21301e-06
3.96478e-06
-6.91797e-06
3.08663e-06
-7.37493e-06
1.98906e-06
-7.55759e-06
7.49516e-07
-7.45256e-06
-5.52913e-07
-7.05983e-06
-1.83508e-06
-6.39471e-06
-3.00747e-06
-5.49115e-06
-3.97364e-06
-4.40574e-06
-4.63302e-06
-3.2213e-06
-4.88868e-06
-2.04794e-06
-4.66097e-06
-1.02009e-06
-3.90581e-06
-2.87601e-07
-2.63607e-06
-9.50895e-07
-3.35731e-07
1.30975e-06
-1.15831e-06
3.44261e-06
-2.28392e-06
4.94924e-06
-3.54852e-06
5.79699e-06
-4.81762e-06
6.02692e-06
-5.98761e-06
5.71664e-06
-6.98239e-06
4.95956e-06
-7.74812e-06
3.85236e-06
-8.24791e-06
2.48885e-06
-8.45755e-06
9.59156e-07
-8.36315e-06
-6.4732e-07
-7.96105e-06
-2.23717e-06
-7.26036e-06
-3.70816e-06
-6.2879e-06
-4.94609e-06
-5.09516e-06
-5.82576e-06
-3.76569e-06
-6.21814e-06
-2.42061e-06
-6.00605e-06
-1.21865e-06
-5.10777e-06
-3.47128e-07
-3.50759e-06
-1.29802e-06
-3.90601e-07
1.70035e-06
-1.33365e-06
4.38566e-06
-2.60248e-06
6.21807e-06
-4.00194e-06
7.19645e-06
-5.38117e-06
7.40615e-06
-6.63245e-06
6.96793e-06
-7.68361e-06
6.01071e-06
-8.48836e-06
4.65712e-06
-9.01739e-06
3.01788e-06
-9.25142e-06
1.19318e-06
-9.17716e-06
-7.21581e-07
-8.78651e-06
-2.62783e-06
-8.07938e-06
-4.41528e-06
-7.07044e-06
-5.95503e-06
-5.79946e-06
-7.09675e-06
-4.34405e-06
-7.67355e-06
-2.83167e-06
-7.51844e-06
-1.44554e-06
-6.49389e-06
-4.17674e-07
-4.53546e-06
-1.7157e-06
-4.53399e-07
2.15375e-06
-1.52544e-06
5.4577e-06
-2.93432e-06
7.62695e-06
-4.44909e-06
8.71122e-06
-5.9047e-06
8.86176e-06
-7.19549e-06
8.25872e-06
-8.2606e-06
7.07583e-06
-9.06831e-06
5.46483e-06
-9.60252e-06
3.55209e-06
-9.85281e-06
1.44347e-06
-9.80841e-06
-7.65982e-07
-9.45637e-06
-2.97987e-06
-8.78435e-06
-5.0873e-06
-7.78875e-06
-6.95064e-06
-6.48868e-06
-8.39682e-06
-4.94532e-06
-9.2169e-06
-3.2834e-06
-9.18035e-06
-1.70783e-06
-8.06947e-06
-5.03361e-07
-5.73993e-06
-2.21906e-06
-5.28609e-07
2.68236e-06
-1.74049e-06
6.66958e-06
-3.27948e-06
9.16594e-06
-4.87376e-06
1.03055e-05
-6.34964e-06
1.03376e-05
-7.61377e-06
9.52284e-06
-8.62742e-06
8.08948e-06
-9.38269e-06
6.2201e-06
-9.88378e-06
4.05318e-06
-1.0134e-05
1.69367e-06
-1.01278e-05
-7.72174e-07
-9.84784e-06
-3.25981e-06
-9.26699e-06
-5.66815e-06
-8.35688e-06
-7.86075e-06
-7.1049e-06
-9.6488e-06
-5.5407e-06
-1.07811e-05
-3.77064e-06
-1.09504e-05
-2.01213e-06
-9.82798e-06
-6.0969e-07
-7.14237e-06
-2.82875e-06
-6.24252e-07
3.30661e-06
-1.98924e-06
8.03457e-06
-3.63538e-06
1.08121e-05
-5.24707e-06
1.19172e-05
-6.65426e-06
1.17448e-05
-7.79247e-06
1.0661e-05
-8.65998e-06
8.957e-06
-9.28389e-06
6.844e-06
-9.69633e-06
4.46562e-06
-9.91942e-06
1.91676e-06
-9.95625e-06
-7.35342e-07
-9.78667e-06
-3.4294e-06
-9.36776e-06
-6.08705e-06
-8.64111e-06
-8.58739e-06
-7.55048e-06
-1.07394e-05
-6.07437e-06
-1.22572e-05
-4.27595e-06
-1.27488e-05
-2.36447e-06
-1.17395e-05
-7.45018e-07
-8.76181e-06
-3.57377e-06
-7.54899e-07
4.06151e-06
-2.28703e-06
9.5667e-06
-3.99209e-06
1.25171e-05
-5.51671e-06
1.34418e-05
-6.71966e-06
1.29478e-05
-7.59079e-06
1.15322e-05
-8.18406e-06
9.55027e-06
-8.5729e-06
7.23284e-06
-8.82368e-06
4.7164e-06
-8.98102e-06
2.07411e-06
-9.05971e-06
-6.56656e-07
-9.03984e-06
-3.44927e-06
-8.8649e-06
-6.26199e-06
-8.44496e-06
-9.00733e-06
-7.67069e-06
-1.15137e-05
-6.44747e-06
-1.34804e-05
-4.75963e-06
-1.44367e-05
-2.7684e-06
-1.37307e-05
-9.2289e-07
-1.06073e-05
-4.49666e-06
-9.46093e-07
5.0076e-06
-2.65165e-06
1.12723e-05
-4.31707e-06
1.41826e-05
-5.58249e-06
1.47072e-05
-6.38297e-06
1.37483e-05
-6.79842e-06
1.19476e-05
-6.95807e-06
9.70992e-06
-6.98915e-06
7.26392e-06
-6.99331e-06
4.72056e-06
-7.03733e-06
2.11812e-06
-7.14886e-06
-5.45126e-07
-7.31259e-06
-3.28553e-06
-7.4653e-06
-6.10928e-06
-7.49181e-06
-8.98083e-06
-7.22878e-06
-1.17767e-05
-6.49046e-06
-1.42187e-05
-5.13824e-06
-1.57889e-05
-3.21731e-06
-1.56516e-05
-1.16493e-06
-1.26597e-05
-5.66159e-06
-1.2379e-06
6.2455e-06
-3.08636e-06
1.31207e-05
-4.51396e-06
1.56102e-05
-5.24412e-06
1.54374e-05
-5.3683e-06
1.38724e-05
-5.09822e-06
1.16775e-05
-4.6502e-06
9.2619e-06
-4.20088e-06
6.8146e-06
-3.87749e-06
4.39718e-06
-3.76074e-06
2.00137e-06
-3.88842e-06
-4.17447e-07
-4.2545e-06
-2.91945e-06
-4.8016e-06
-5.56218e-06
-5.40752e-06
-8.37491e-06
-5.8714e-06
-1.13129e-05
-5.9158e-06
-1.41744e-05
-5.23854e-06
-1.64661e-05
-3.66888e-06
-1.72213e-05
-1.50038e-06
-1.48282e-05
-7.16197e-06
-1.67336e-06
7.91887e-06
-3.51551e-06
1.49629e-05
-4.32077e-06
1.64154e-05
-4.0977e-06
1.52143e-05
-3.20539e-06
1.29801e-05
-2.01458e-06
1.04867e-05
-8.14179e-07
8.0615e-06
1.97684e-07
5.80273e-06
8.94768e-07
3.70009e-06
1.20131e-06
1.69482e-06
1.07802e-06
-2.94154e-07
5.1834e-07
-2.35977e-06
-4.43337e-07
-4.6005e-06
-1.70984e-06
-7.10841e-06
-3.08598e-06
-9.93671e-06
-4.24045e-06
-1.30199e-05
-4.70142e-06
-1.60052e-05
-3.96923e-06
-1.79535e-05
-1.94423e-06
-1.68532e-05
-9.1062e-06
-2.22721e-06
1.01461e-05
-3.5903e-06
1.6326e-05
-3.08156e-06
1.59067e-05
-1.35078e-06
1.34836e-05
8.86806e-07
1.07425e-05
3.14131e-06
8.23223e-06
5.12125e-06
6.08156e-06
6.66914e-06
4.25484e-06
7.70437e-06
2.66486e-06
8.18414e-06
1.21506e-06
8.08157e-06
-1.9159e-07
7.37787e-06
-1.65606e-06
6.06781e-06
-3.29044e-06
4.18306e-06
-5.22366e-06
1.84154e-06
-7.5952e-06
-6.70478e-07
-1.05079e-05
-2.79693e-06
-1.38787e-05
-3.66213e-06
-1.70883e-05
-2.40753e-06
-1.81078e-05
-1.15137e-05
-2.56002e-06
1.27061e-05
-2.18164e-06
1.59476e-05
7.1584e-07
1.30092e-05
4.46505e-06
9.73434e-06
8.12606e-06
7.08154e-06
1.12914e-05
5.06692e-06
1.3816e-05
3.55691e-06
1.56726e-05
2.39828e-06
1.68744e-05
1.46304e-06
1.74367e-05
6.52754e-07
1.73582e-05
-1.13099e-07
1.66133e-05
-9.11145e-07
1.51517e-05
-1.82889e-06
1.29105e-05
-2.98242e-06
9.85164e-06
-4.53633e-06
6.05498e-06
-6.7112e-06
1.90865e-06
-9.7324e-06
-1.55799e-06
-1.36217e-05
-2.44351e-06
-1.72223e-05
-1.39572e-05
-8.09819e-07
1.35159e-05
4.07569e-06
1.10621e-05
1.02961e-05
6.78883e-06
1.57913e-05
4.23908e-06
2.0154e-05
2.71884e-06
2.3452e-05
1.76895e-06
2.58526e-05
1.15626e-06
2.75116e-05
7.39354e-07
2.85428e-05
4.31824e-07
2.90145e-05
1.81005e-07
2.89503e-05
-4.88971e-08
2.83276e-05
-2.88398e-07
2.70719e-05
-5.73243e-07
2.50468e-05
-9.57317e-07
2.20453e-05
-1.53478e-06
1.78108e-05
-2.47668e-06
1.21689e-05
-4.09048e-06
5.47089e-06
-6.92369e-06
-1.56829e-07
-1.15946e-05
-1.41141e-05
1.35159e-05
2.4578e-05
3.13668e-05
3.56059e-05
3.83247e-05
4.00937e-05
4.12499e-05
4.19893e-05
4.24211e-05
4.26021e-05
4.25532e-05
4.22648e-05
4.16916e-05
4.07343e-05
3.91995e-05
3.67228e-05
3.26323e-05
2.57086e-05
1.41141e-05
)
;

boundaryField
{
    movingWall
    {
        type            calculated;
        value           uniform 0;
    }
    fixedWalls
    {
        type            calculated;
        value           uniform 0;
    }
    frontAndBack
    {
        type            empty;
        value           nonuniform List<scalar> 0();
    }
}


// ************************************************************************* //
