/*--------------------------------*- C++ -*----------------------------------*\
  =========                 |
  \\      /  F ield         | OpenFOAM: The Open Source CFD Toolbox
   \\    /   O peration     | Website:  https://openfoam.org
    \\  /    A nd           | Version:  8
     \\/     M anipulation  |
\*---------------------------------------------------------------------------*/
FoamFile
{
    version     2.0;
    format      ascii;
    class       volVectorField;
    location    "0.14";
    object      U;
}
// * * * * * * * * * * * * * * * * * * * * * * * * * * * * * * * * * * * * * //

dimensions      [0 1 -1 0 0 0 0];

internalField   nonuniform List<vector> 
400
(
(0.00025279 -0.000248127 0)
(0.000140062 0.000112804 0)
(-0.00117204 0.000563968 0)
(-0.00346638 0.000883024 0)
(-0.00634952 0.00104296 0)
(-0.00942706 0.00105876 0)
(-0.0123466 0.000955036 0)
(-0.0148166 0.00075812 0)
(-0.0166124 0.000493075 0)
(-0.0175765 0.000183925 0)
(-0.0176203 -0.000144877 0)
(-0.0167278 -0.000466963 0)
(-0.0149617 -0.000753135 0)
(-0.0124689 -0.00097137 0)
(-0.00948438 -0.00108806 0)
(-0.00632745 -0.00107112 0)
(-0.00338605 -0.000895994 0)
(-0.0010818 -0.000555432 0)
(0.000195288 -9.04888e-05 0)
(0.000266551 0.000261253 0)
(-7.66222e-05 -0.000168423 0)
(-0.00160286 0.00163901 0)
(-0.00566438 0.00360247 0)
(-0.0116617 0.00501325 0)
(-0.0188007 0.00571786 0)
(-0.0262725 0.00573425 0)
(-0.033306 0.00514805 0)
(-0.0392341 0.00407368 0)
(-0.04353 0.0026355 0)
(-0.0458224 0.000962759 0)
(-0.0459055 -0.000808918 0)
(-0.0437496 -0.00253464 0)
(-0.0395121 -0.0040593 0)
(-0.0335444 -0.00522092 0)
(-0.0263909 -0.00586027 0)
(-0.0187688 -0.00583964 0)
(-0.0115146 -0.0050738 0)
(-0.00548845 -0.00357519 0)
(-0.00148677 -0.00155255 0)
(-4.29117e-05 0.000226577 0)
(-0.000526883 0.00108571 0)
(-0.00369417 0.00570922 0)
(-0.0105377 0.0101767 0)
(-0.0198955 0.013344 0)
(-0.0306166 0.0148741 0)
(-0.04162 0.0147662 0)
(-0.051867 0.0131903 0)
(-0.0604489 0.0104045 0)
(-0.0666439 0.00670925 0)
(-0.0699421 0.00242833 0)
(-0.0700616 -0.00209366 0)
(-0.0669634 -0.00649026 0)
(-0.0608644 -0.0103751 0)
(-0.0522452 -0.0133536 0)
(-0.0418457 -0.01505 0)
(-0.0306365 -0.0151542 0)
(-0.0197421 -0.0134947 0)
(-0.0103188 -0.0101341 0)
(-0.00353453 -0.00552616 0)
(-0.000476067 -0.000944168 0)
(-0.000925406 0.0034618 0)
(-0.00566701 0.0121625 0)
(-0.0152325 0.019828 0)
(-0.0277906 0.025078 0)
(-0.0417951 0.027464 0)
(-0.0559233 0.0270052 0)
(-0.0689355 0.0239907 0)
(-0.0797585 0.0188611 0)
(-0.0875452 0.0121373 0)
(-0.091698 0.00438698 0)
(-0.0918846 -0.00378391 0)
(-0.0880529 -0.0117324 0)
(-0.0804469 -0.018784 0)
(-0.0696182 -0.024254 0)
(-0.0564269 -0.0274937 0)
(-0.042018 -0.0279704 0)
(-0.0277421 -0.0253828 0)
(-0.0150327 -0.0198046 0)
(-0.00548467 -0.0118756 0)
(-0.000859892 -0.00321055 0)
(-0.00127564 0.00684477 0)
(-0.00750734 0.0208576 0)
(-0.0197247 0.032362 0)
(-0.0353914 0.0399182 0)
(-0.05253 0.0430879 0)
(-0.0695743 0.0419933 0)
(-0.0851138 0.0371002 0)
(-0.0979568 0.0290745 0)
(-0.107178 0.0186905 0)
(-0.112127 0.00678718 0)
(-0.112438 -0.00574397 0)
(-0.108037 -0.0179584 0)
(-0.0991669 -0.0288642 0)
(-0.0864008 -0.0374489 0)
(-0.0706644 -0.0427429 0)
(-0.0532301 -0.0439289 0)
(-0.0356531 -0.0405012 0)
(-0.0196638 -0.0324547 0)
(-0.00734635 -0.0205047 0)
(-0.00120161 -0.00647123 0)
(-0.00160452 0.0111659 0)
(-0.00928876 0.0317372 0)
(-0.0241272 0.0477451 0)
(-0.0428568 0.0578184 0)
(-0.0630416 0.0616625 0)
(-0.0828675 0.0596121 0)
(-0.100774 0.05239 0)
(-0.115489 0.0409401 0)
(-0.126047 0.0263209 0)
(-0.131777 0.00965726 0)
(-0.13229 -0.00786778 0)
(-0.127484 -0.0250034 0)
(-0.117568 -0.0404279 0)
(-0.103091 -0.0527723 0)
(-0.084992 -0.0606932 0)
(-0.0646296 -0.0630079 0)
(-0.0437489 -0.0588976 0)
(-0.0244029 -0.0481516 0)
(-0.00922911 -0.0314344 0)
(-0.00153596 -0.0106874 0)
(-0.00193805 0.0164109 0)
(-0.0110951 0.0447967 0)
(-0.0285753 0.0659704 0)
(-0.0503471 0.0787404 0)
(-0.0734894 0.0831031 0)
(-0.095945 0.0797392 0)
(-0.116035 0.0697282 0)
(-0.132449 0.0543541 0)
(-0.14423 0.0349871 0)
(-0.150722 0.0130396 0)
(-0.151529 -0.0100276 0)
(-0.146513 -0.0326744 0)
(-0.135814 -0.0532561 0)
(-0.119905 -0.0700303 0)
(-0.0996741 -0.0812247 0)
(-0.0765078 -0.0851909 0)
(-0.0523108 -0.0806541 0)
(-0.0294736 -0.0670299 0)
(-0.0112603 -0.0447791 0)
(-0.00189916 -0.0158961 0)
(-0.00229972 0.0226147 0)
(-0.0130057 0.0600889 0)
(-0.0331915 0.0870527 0)
(-0.0579747 0.102622 0)
(-0.0839197 0.107263 0)
(-0.108748 0.10217 0)
(-0.130714 0.0888979 0)
(-0.148541 0.0691405 0)
(-0.161343 0.0446013 0)
(-0.168527 0.0169649 0)
(-0.16972 -0.0120674 0)
(-0.164741 -0.0407112 0)
(-0.153626 -0.0670322 0)
(-0.136704 -0.0889162 0)
(-0.114725 -0.104113 0)
(-0.0890118 -0.110394 0)
(-0.0615602 -0.105845 0)
(-0.0350871 -0.0892834 0)
(-0.0135671 -0.0607553 0)
(-0.00232686 -0.0222091 0)
(-0.00271369 0.0298567 0)
(-0.0150986 0.0777201 0)
(-0.0380785 0.111011 0)
(-0.0657836 0.129334 0)
(-0.09423 0.133872 0)
(-0.120968 0.12654 0)
(-0.14428 0.109517 0)
(-0.163021 0.0849801 0)
(-0.176473 0.0549752 0)
(-0.184178 0.0214222 0)
(-0.185824 -0.0138058 0)
(-0.181194 -0.0487591 0)
(-0.170182 -0.081284 0)
(-0.152892 -0.108929 0)
(-0.129815 -0.128938 0)
(-0.102066 -0.138378 0)
(-0.0716079 -0.134474 0)
(-0.0414213 -0.115134 0)
(-0.0162762 -0.0796738 0)
(-0.00285722 -0.0298108 0)
(-0.00321267 0.0382648 0)
(-0.0174691 0.0978413 0)
(-0.0433332 0.137827 0)
(-0.0737407 0.158609 0)
(-0.104134 0.162432 0)
(-0.131992 0.152214 0)
(-0.155771 0.130933 0)
(-0.174609 0.101318 0)
(-0.188085 0.0657501 0)
(-0.195974 0.0263155 0)
(-0.198086 -0.0150459 0)
(-0.194181 -0.0563423 0)
(-0.183982 -0.0953194 0)
(-0.167274 -0.129275 0)
(-0.144136 -0.154955 0)
(-0.115276 -0.168619 0)
(-0.0824013 -0.16636 0)
(-0.0486107 -0.144763 0)
(-0.0195259 -0.10192 0)
(-0.00353865 -0.0389616 0)
(-0.0038524 0.0480359 0)
(-0.0202626 0.120649 0)
(-0.0490693 0.167393 0)
(-0.081723 0.189931 0)
(-0.113102 0.192087 0)
(-0.140803 0.178152 0)
(-0.163683 0.152097 0)
(-0.181371 0.117263 0)
(-0.193905 0.076319 0)
(-0.201414 0.0314121 0)
(-0.203902 -0.0155989 0)
(-0.201145 -0.0628523 0)
(-0.192674 -0.108171 0)
(-0.177872 -0.148756 0)
(-0.156231 -0.180943 0)
(-0.127781 -0.20012 0)
(-0.0936423 -0.200973 0)
(-0.056731 -0.178203 0)
(-0.0234876 -0.127926 0)
(-0.00444376 -0.0500164 0)
(-0.00473743 0.0594872 0)
(-0.0237244 0.146391 0)
(-0.0554347 0.199421 0)
(-0.0894627 0.222379 0)
(-0.120242 0.221443 0)
(-0.145825 0.202741 0)
(-0.165803 0.171436 0)
(-0.180559 0.131486 0)
(-0.190778 0.0857537 0)
(-0.19706 0.0362885 0)
(-0.199691 -0.0153214 0)
(-0.198509 -0.0675598 0)
(-0.192869 -0.118564 0)
(-0.181699 -0.165682 0)
(-0.163742 -0.205033 0)
(-0.138035 -0.23119 0)
(-0.104639 -0.237185 0)
(-0.0657563 -0.215163 0)
(-0.028397 -0.158126 0)
(-0.00569393 -0.0634666 0)
(-0.00606696 0.073159 0)
(-0.0282666 0.17537 0)
(-0.062584 0.233276 0)
(-0.0963838 0.254378 0)
(-0.124035 0.248323 0)
(-0.144623 0.223615 0)
(-0.158936 0.186732 0)
(-0.168404 0.142156 0)
(-0.174518 0.0927614 0)
(-0.178442 0.0402891 0)
(-0.180803 -0.0141622 0)
(-0.181564 -0.0696607 0)
(-0.179963 -0.124939 0)
(-0.174497 -0.17782 0)
(-0.163075 -0.224557 0)
(-0.143449 -0.259154 0)
(-0.114024 -0.272921 0)
(-0.0754399 -0.25473 0)
(-0.0345869 -0.192867 0)
(-0.00750184 -0.0800258 0)
(-0.00820918 0.0899951 0)
(-0.0345296 0.207869 0)
(-0.0705015 0.267644 0)
(-0.101176 0.283297 0)
(-0.121791 0.26946 0)
(-0.133385 0.237481 0)
(-0.138494 0.195072 0)
(-0.139837 0.146959 0)
(-0.139773 0.0957197 0)
(-0.140015 0.0425325 0)
(-0.141527 -0.0122093 0)
(-0.144452 -0.0683744 0)
(-0.148029 -0.125563 0)
(-0.15048 -0.18246 0)
(-0.148971 -0.235964 0)
(-0.13983 -0.280069 0)
(-0.119218 -0.304669 0)
(-0.0850029 -0.294866 0)
(-0.0424794 -0.232184 0)
(-0.0102339 -0.100769 0)
(-0.0117816 0.111601 0)
(-0.0433025 0.243858 0)
(-0.078387 0.299857 0)
(-0.100786 0.30485 0)
(-0.10858 0.280176 0)
(-0.106028 0.240086 0)
(-0.0978898 0.193003 0)
(-0.0881848 0.143317 0)
(-0.0799542 0.0928732 0)
(-0.0752603 0.0420167 0)
(-0.0752798 -0.00971567 0)
(-0.0803489 -0.063108 0)
(-0.0898825 -0.118806 0)
(-0.102153 -0.176708 0)
(-0.113983 -0.234993 0)
(-0.120527 -0.288574 0)
(-0.11541 -0.326905 0)
(-0.0923445 -0.331557 0)
(-0.0523536 -0.27525 0)
(-0.0144453 -0.127291 0)
(-0.0175485 0.140631 0)
(-0.0547833 0.282093 0)
(-0.0828592 0.324605 0)
(-0.0882229 0.312299 0)
(-0.0753207 0.274243 0)
(-0.0528744 0.226544 0)
(-0.0278103 0.177073 0)
(-0.00492593 0.128954 0)
(0.012642 0.0827843 0)
(0.022956 0.0378831 0)
(0.0249084 -0.0070673 0)
(0.0180332 -0.0536837 0)
(0.00254261 -0.103616 0)
(-0.0203785 -0.158135 0)
(-0.0479975 -0.217285 0)
(-0.0752181 -0.278132 0)
(-0.0936996 -0.331575 0)
(-0.0921374 -0.357513 0)
(-0.0632954 -0.319192 0)
(-0.0206319 -0.161918 0)
(-0.0253998 0.181643 0)
(-0.065727 0.317798 0)
(-0.0733738 0.331322 0)
(-0.0481858 0.29529 0)
(-0.00574893 0.244067 0)
(0.0409792 0.192223 0)
(0.0843455 0.144897 0)
(0.120168 0.102845 0)
(0.146287 0.0650475 0)
(0.161602 0.029846 0)
(0.165488 -0.00466855 0)
(0.157495 -0.0405785 0)
(0.137324 -0.0801552 0)
(0.105084 -0.125794 0)
(0.0619718 -0.179582 0)
(0.011591 -0.24187 0)
(-0.0379681 -0.307742 0)
(-0.0717317 -0.360064 0)
(-0.069997 -0.356598 0)
(-0.0278539 -0.208269 0)
(-0.0294359 0.238942 0)
(-0.0606214 0.335934 0)
(-0.0219682 0.300556 0)
(0.050462 0.240078 0)
(0.127457 0.182867 0)
(0.196835 0.135299 0)
(0.254102 0.097312 0)
(0.297961 0.0667777 0)
(0.328492 0.0413035 0)
(0.346107 0.0187529 0)
(0.351007 -0.0027919 0)
(0.342944 -0.0252365 0)
(0.321137 -0.0507363 0)
(0.284354 -0.0819798 0)
(0.23134 -0.122368 0)
(0.162011 -0.175592 0)
(0.0797776 -0.243378 0)
(-0.00323795 -0.319173 0)
(-0.054416 -0.368752 0)
(-0.0282145 -0.267328 0)
(0.00868046 0.281484 0)
(0.0203607 0.295061 0)
(0.138987 0.211051 0)
(0.264377 0.143496 0)
(0.364306 0.0971839 0)
(0.440267 0.0657664 0)
(0.496599 0.0442218 0)
(0.536689 0.0288704 0)
(0.56323 0.0171874 0)
(0.57807 0.00747973 0)
(0.582138 -0.00149218 0)
(0.575461 -0.010837 0)
(0.557094 -0.0218351 0)
(0.524951 -0.0363229 0)
(0.475631 -0.057252 0)
(0.404427 -0.089386 0)
(0.305047 -0.139764 0)
(0.173294 -0.216459 0)
(0.0417813 -0.311715 0)
(0.0190824 -0.299587 0)
(0.300184 0.145892 0)
(0.396875 0.127461 0)
(0.55741 0.0761129 0)
(0.674453 0.0437506 0)
(0.743874 0.0255954 0)
(0.78712 0.0152602 0)
(0.815431 0.00922494 0)
(0.833884 0.00551765 0)
(0.845302 0.00303241 0)
(0.851282 0.00115245 0)
(0.852575 -0.000498337 0)
(0.849295 -0.00221607 0)
(0.840921 -0.00434269 0)
(0.826073 -0.00743294 0)
(0.802027 -0.0125475 0)
(0.763584 -0.0217955 0)
(0.699048 -0.039313 0)
(0.583896 -0.0726856 0)
(0.416409 -0.127819 0)
(0.309416 -0.149276 0)
)
;

boundaryField
{
    movingWall
    {
        type            fixedValue;
        value           uniform (1 0 0);
    }
    fixedWalls
    {
        type            noSlip;
    }
    frontAndBack
    {
        type            empty;
    }
}


// ************************************************************************* //
