/*--------------------------------*- C++ -*----------------------------------*\
  =========                 |
  \\      /  F ield         | OpenFOAM: The Open Source CFD Toolbox
   \\    /   O peration     | Website:  https://openfoam.org
    \\  /    A nd           | Version:  8
     \\/     M anipulation  |
\*---------------------------------------------------------------------------*/
FoamFile
{
    version     2.0;
    format      ascii;
    class       surfaceScalarField;
    location    "30";
    object      phi;
}
// * * * * * * * * * * * * * * * * * * * * * * * * * * * * * * * * * * * * * //

dimensions      [0 3 -1 0 0 0 0];

internalField   nonuniform List<scalar> 
760
(
0.0004
-1.42388e-14
0.0004
-6.74261e-14
0.0004
-1.56063e-13
0.0004
-2.83309e-13
0.0004
-4.56539e-13
0.0004
-6.85973e-13
0.0004
-9.83015e-13
0.0004
-1.36173e-12
0.0004
-1.83887e-12
0.0004
-2.43426e-12
0.0004
-3.1715e-12
0.0004
-4.0787e-12
0.0004
-5.18927e-12
0.0004
-6.54304e-12
0.0004
-8.18725e-12
0.0004
-1.01787e-11
0.0004
-1.25817e-11
0.0004
-1.54935e-11
0.0004
-1.8884e-11
-2.37372e-11
0.0004
-2.20388e-14
0.0004
-9.05634e-14
0.0004
-1.94866e-13
0.0004
-3.36877e-13
0.0004
-5.24006e-13
0.0004
-7.6672e-13
0.0004
-1.07679e-12
0.0004
-1.46828e-12
0.0004
-1.95782e-12
0.0004
-2.56511e-12
0.0004
-3.31352e-12
0.0004
-4.23086e-12
0.0004
-5.35018e-12
0.0004
-6.71084e-12
0.0004
-8.35964e-12
0.0004
-1.03527e-11
0.0004
-1.27541e-11
0.0004
-1.56593e-11
0.0004
-1.90403e-11
-2.38798e-11
0.0004
-2.74092e-14
0.0004
-1.08914e-13
0.0004
-2.2751e-13
0.0004
-3.83344e-13
0.0004
-5.83637e-13
0.0004
-8.38992e-13
0.0004
-1.16144e-12
0.0004
-1.56506e-12
0.0004
-2.06643e-12
0.0004
-2.68512e-12
0.0004
-3.44434e-12
0.0004
-4.37166e-12
0.0004
-5.49986e-12
0.0004
-6.86795e-12
0.0004
-8.52238e-12
0.0004
-1.0519e-11
0.0004
-1.29216e-11
0.0004
-1.58255e-11
0.0004
-1.92059e-11
-2.40468e-11
0.0004
-3.09193e-14
0.0004
-1.22388e-13
0.0004
-2.53012e-13
0.0004
-4.20983e-13
0.0004
-6.33141e-13
0.0004
-9.00086e-13
0.0004
-1.23394e-12
0.0004
-1.64881e-12
0.0004
-2.16123e-12
0.0004
-2.79068e-12
0.0004
-3.56025e-12
0.0004
-4.49734e-12
0.0004
-5.63454e-12
0.0004
-7.0106e-12
0.0004
-8.67183e-12
0.0004
-1.06739e-11
0.0004
-1.30809e-11
0.0004
-1.59878e-11
0.0004
-1.93736e-11
-2.42208e-11
0.0004
-3.33698e-14
0.0004
-1.3218e-13
0.0004
-2.72278e-13
0.0004
-4.50242e-13
0.0004
-6.72436e-13
0.0004
-9.49402e-13
0.0004
-1.29325e-12
0.0004
-1.71806e-12
0.0004
-2.24034e-12
0.0004
-2.87953e-12
0.0004
-3.6586e-12
0.0004
-4.60485e-12
0.0004
-5.75074e-12
0.0004
-7.1349e-12
0.0004
-8.80356e-12
0.0004
-1.08123e-11
0.0004
-1.32257e-11
0.0004
-1.61386e-11
0.0004
-1.9533e-11
-2.43896e-11
0.0004
-3.51394e-14
0.0004
-1.39217e-13
0.0004
-2.86465e-13
0.0004
-4.72193e-13
0.0004
-7.024e-13
0.0004
-9.87519e-13
0.0004
-1.33961e-12
0.0004
-1.77274e-12
0.0004
-2.30336e-12
0.0004
-2.95088e-12
0.0004
-3.73822e-12
0.0004
-4.69259e-12
0.0004
-5.84639e-12
0.0004
-7.2382e-12
0.0004
-8.91425e-12
0.0004
-1.09301e-11
0.0004
-1.33509e-11
0.0004
-1.6271e-11
0.0004
-1.96752e-11
-2.45426e-11
0.0004
-3.63919e-14
0.0004
-1.4415e-13
0.0004
-2.96558e-13
0.0004
-4.87994e-13
0.0004
-7.24218e-13
0.0004
-1.01555e-12
0.0004
-1.37402e-12
0.0004
-1.81364e-12
0.0004
-2.35087e-12
0.0004
-3.00506e-12
0.0004
-3.79913e-12
0.0004
-4.76024e-12
0.0004
-5.92071e-12
0.0004
-7.31919e-12
0.0004
-9.0019e-12
0.0004
-1.10244e-11
0.0004
-1.34522e-11
0.0004
-1.63796e-11
0.0004
-1.97932e-11
-2.46705e-11
0.0004
-3.72068e-14
0.0004
-1.47425e-13
0.0004
-3.03287e-13
0.0004
-4.98621e-13
0.0004
-7.38992e-13
0.0004
-1.03467e-12
0.0004
-1.39764e-12
0.0004
-1.84191e-12
0.0004
-2.38391e-12
0.0004
-3.04298e-12
0.0004
-3.84204e-12
0.0004
-4.80823e-12
0.0004
-5.97382e-12
0.0004
-7.37751e-12
0.0004
-9.06558e-12
0.0004
-1.10936e-11
0.0004
-1.35272e-11
0.0004
-1.64607e-11
0.0004
-1.98819e-11
-2.47668e-11
0.0004
-3.765e-14
0.0004
-1.49302e-13
0.0004
-3.07143e-13
0.0004
-5.04754e-13
0.0004
-7.47562e-13
0.0004
-1.04582e-12
0.0004
-1.4115e-12
0.0004
-1.85861e-12
0.0004
-2.40354e-12
0.0004
-3.06565e-12
0.0004
-3.86786e-12
0.0004
-4.8373e-12
0.0004
-6.00624e-12
0.0004
-7.41338e-12
0.0004
-9.10506e-12
0.0004
-1.11368e-11
0.0004
-1.35744e-11
0.0004
-1.65118e-11
0.0004
-1.99377e-11
-2.48267e-11
0.0004
-3.77733e-14
0.0004
-1.49907e-13
0.0004
-3.08405e-13
0.0004
-5.0679e-13
0.0004
-7.50444e-13
0.0004
-1.04963e-12
0.0004
-1.4163e-12
0.0004
-1.86445e-12
0.0004
-2.41049e-12
0.0004
-3.07379e-12
0.0004
-3.87725e-12
0.0004
-4.84805e-12
0.0004
-6.01843e-12
0.0004
-7.42707e-12
0.0004
-9.12033e-12
0.0004
-1.11537e-11
0.0004
-1.35928e-11
0.0004
-1.65316e-11
0.0004
-1.99587e-11
-2.48475e-11
0.0004
-3.7579e-14
0.0004
-1.49286e-13
0.0004
-3.0717e-13
0.0004
-5.0486e-13
0.0004
-7.4781e-13
0.0004
-1.04628e-12
0.0004
-1.41224e-12
0.0004
-1.85967e-12
0.0004
-2.40502e-12
0.0004
-3.06764e-12
0.0004
-3.87046e-12
0.0004
-4.84067e-12
0.0004
-6.0105e-12
0.0004
-7.41863e-12
0.0004
-9.11136e-12
0.0004
-1.11441e-11
0.0004
-1.35823e-11
0.0004
-1.65196e-11
0.0004
-1.99443e-11
-2.4828e-11
0.0004
-3.70397e-14
0.0004
-1.47408e-13
0.0004
-3.03354e-13
0.0004
-4.98841e-13
0.0004
-7.3949e-13
0.0004
-1.03558e-12
0.0004
-1.39907e-12
0.0004
-1.844e-12
0.0004
-2.38681e-12
0.0004
-3.04688e-12
0.0004
-3.84715e-12
0.0004
-4.81482e-12
0.0004
-5.98216e-12
0.0004
-7.3878e-12
0.0004
-9.07794e-12
0.0004
-1.11079e-11
0.0004
-1.35428e-11
0.0004
-1.64761e-11
0.0004
-1.98947e-11
-2.4769e-11
0.0004
-3.61354e-14
0.0004
-1.44139e-13
0.0004
-2.96678e-13
0.0004
-4.88335e-13
0.0004
-7.24966e-13
0.0004
-1.01689e-12
0.0004
-1.37611e-12
0.0004
-1.81668e-12
0.0004
-2.35507e-12
0.0004
-3.01071e-12
0.0004
-3.80653e-12
0.0004
-4.76978e-12
0.0004
-5.93277e-12
0.0004
-7.33409e-12
0.0004
-9.01983e-12
0.0004
-1.10452e-11
0.0004
-1.34748e-11
0.0004
-1.64019e-11
0.0004
-1.98117e-11
-2.46732e-11
0.0004
-3.48446e-14
0.0004
-1.39215e-13
0.0004
-2.86647e-13
0.0004
-4.7265e-13
0.0004
-7.03389e-13
0.0004
-9.89254e-13
0.0004
-1.34229e-12
0.0004
-1.7766e-12
0.0004
-2.3087e-12
0.0004
-2.95804e-12
0.0004
-3.74761e-12
0.0004
-4.7047e-12
0.0004
-5.86168e-12
0.0004
-7.25713e-12
0.0004
-8.93704e-12
0.0004
-1.09565e-11
0.0004
-1.33796e-11
0.0004
-1.62992e-11
0.0004
-1.96985e-11
-2.45452e-11
0.0004
-3.30983e-14
0.0004
-1.32211e-13
0.0004
-2.72524e-13
0.0004
-4.5082e-13
0.0004
-6.73651e-13
0.0004
-9.51486e-13
0.0004
-1.29643e-12
0.0004
-1.72262e-12
0.0004
-2.24662e-12
0.0004
-2.88794e-12
0.0004
-3.66962e-12
0.0004
-4.61904e-12
0.0004
-5.76867e-12
0.0004
-7.15712e-12
0.0004
-8.83032e-12
0.0004
-1.08433e-11
0.0004
-1.32595e-11
0.0004
-1.61716e-11
0.0004
-1.95601e-11
-2.43919e-11
0.0004
-3.07257e-14
0.0004
-1.22486e-13
0.0004
-2.53326e-13
0.0004
-4.21689e-13
0.0004
-6.34565e-13
0.0004
-9.02469e-13
0.0004
-1.23753e-12
0.0004
-1.65391e-12
0.0004
-2.16822e-12
0.0004
-2.80003e-12
0.0004
-3.5725e-12
0.0004
-4.51309e-12
0.0004
-5.65446e-12
0.0004
-7.0353e-12
0.0004
-8.70158e-12
0.0004
-1.07084e-11
0.0004
-1.31184e-11
0.0004
-1.60244e-11
0.0004
-1.94035e-11
-2.42223e-11
0.0004
-2.73238e-14
0.0004
-1.09104e-13
0.0004
-2.2791e-13
0.0004
-3.84174e-13
0.0004
-5.85261e-13
0.0004
-8.41621e-13
0.0004
-1.16534e-12
0.0004
-1.57055e-12
0.0004
-2.07393e-12
0.0004
-2.69513e-12
0.0004
-3.45742e-12
0.0004
-4.38846e-12
0.0004
-5.52113e-12
0.0004
-6.89433e-12
0.0004
-8.55412e-12
0.0004
-1.05558e-11
0.0004
-1.29617e-11
0.0004
-1.58645e-11
0.0004
-1.92375e-11
-2.40472e-11
0.0004
-2.20348e-14
0.0004
-9.08766e-14
0.0004
-1.95349e-13
0.0004
-3.37848e-13
0.0004
-5.25849e-13
0.0004
-7.69563e-13
0.0004
-1.08093e-12
0.0004
-1.47407e-12
0.0004
-1.96569e-12
0.0004
-2.57556e-12
0.0004
-3.32713e-12
0.0004
-4.24829e-12
0.0004
-5.37224e-12
0.0004
-6.7382e-12
0.0004
-8.39252e-12
0.0004
-1.03908e-11
0.0004
-1.27955e-11
0.0004
-1.56997e-11
0.0004
-1.90726e-11
-2.3879e-11
0.0004
-1.42614e-14
0.0004
-6.77452e-14
0.0004
-1.56335e-13
0.0004
-2.84107e-13
0.0004
-4.58221e-13
0.0004
-6.8856e-13
0.0004
-9.86882e-13
0.0004
-1.36729e-12
0.0004
-1.84656e-12
0.0004
-2.44456e-12
0.0004
-3.185e-12
0.0004
-4.09611e-12
0.0004
-5.21145e-12
0.0004
-6.57062e-12
0.0004
-8.22032e-12
0.0004
-1.02169e-11
0.0004
-1.26233e-11
0.0004
-1.5534e-11
0.0004
-1.89164e-11
-2.37351e-11
0.0004
0.0004
0.0004
0.0004
0.0004
0.0004
0.0004
0.0004
0.0004
0.0004
0.0004
0.0004
0.0004
0.0004
0.0004
0.0004
0.0004
0.0004
0.0004
)
;

boundaryField
{
    inlet
    {
        type            calculated;
        value           nonuniform List<scalar> 
20
(
-0.0004
-0.0004
-0.0004
-0.0004
-0.0004
-0.0004
-0.0004
-0.0004
-0.0004
-0.0004
-0.0004
-0.0004
-0.0004
-0.0004
-0.0004
-0.0004
-0.0004
-0.0004
-0.0004
-0.0004
)
;
    }
    outlet
    {
        type            calculated;
        value           nonuniform List<scalar> 
20
(
0.0004
0.0004
0.0004
0.0004
0.0004
0.0004
0.0004
0.0004
0.0004
0.0004
0.0004
0.0004
0.0004
0.0004
0.0004
0.0004
0.0004
0.0004
0.0004
0.0004
)
;
    }
    up
    {
        type            calculated;
        value           nonuniform List<scalar> 
20
(
-3.93064e-15
-4.0409e-14
-1.14288e-13
-2.27252e-13
-3.86952e-13
-6.03307e-13
-8.88002e-13
-1.25513e-12
-1.72155e-12
-2.30728e-12
-3.0362e-12
-3.9369e-12
-5.0435e-12
-6.39606e-12
-8.04172e-12
-1.00373e-11
-1.24473e-11
-1.53666e-11
-1.87689e-11
-2.362e-11
)
;
    }
    down
    {
        type            calculated;
        value           nonuniform List<scalar> 
20
(
3.81021e-15
4.0001e-14
1.14243e-13
2.26822e-13
3.85642e-13
6.01114e-13
8.84586e-13
1.25002e-12
1.71427e-12
2.29738e-12
3.02315e-12
3.91999e-12
5.02178e-12
6.36885e-12
8.00903e-12
9.99961e-12
1.24062e-11
1.53266e-11
1.87375e-11
2.36236e-11
)
;
    }
    frontAndBack
    {
        type            empty;
        value           nonuniform List<scalar> 0();
    }
}


// ************************************************************************* //
