/*--------------------------------*- C++ -*----------------------------------*\
  =========                 |
  \\      /  F ield         | OpenFOAM: The Open Source CFD Toolbox
   \\    /   O peration     | Website:  https://openfoam.org
    \\  /    A nd           | Version:  8
     \\/     M anipulation  |
\*---------------------------------------------------------------------------*/
FoamFile
{
    version     2.0;
    format      ascii;
    class       volVectorField;
    location    "30";
    object      U;
}
// * * * * * * * * * * * * * * * * * * * * * * * * * * * * * * * * * * * * * //

dimensions      [0 1 -1 0 0 0 0];

internalField   nonuniform List<vector> 
400
(
(1 -1.73174e-11 0)
(1 -1.02431e-10 0)
(1 -2.59028e-10 0)
(1 -4.9294e-10 0)
(1 -8.19482e-10 0)
(1 -1.25915e-09 0)
(1 -1.83454e-09 0)
(1 -2.57365e-09 0)
(1 -3.5101e-09 0)
(1 -4.6838e-09 0)
(1 -6.14224e-09 0)
(1 -7.94202e-09 0)
(1 -1.01506e-08 0)
(1 -1.28481e-08 0)
(1 -1.61299e-08 0)
(1 -2.01102e-08 0)
(1 -2.49191e-08 0)
(1 -3.07521e-08 0)
(1 -3.75551e-08 0)
(1 -4.72974e-08 0)
(1 -3.51566e-11 0)
(1 -1.54377e-10 0)
(1 -3.45212e-10 0)
(1 -6.12132e-10 0)
(1 -9.70206e-10 0)
(1 -1.44022e-09 0)
(1 -2.04528e-09 0)
(1 -2.8135e-09 0)
(1 -3.77826e-09 0)
(1 -4.97909e-09 0)
(1 -6.46298e-09 0)
(1 -8.28588e-09 0)
(1 -1.05143e-08 0)
(1 -1.32276e-08 0)
(1 -1.65198e-08 0)
(1 -2.05038e-08 0)
(1 -2.53079e-08 0)
(1 -3.11253e-08 0)
(1 -3.78979e-08 0)
(1 -4.7592e-08 0)
(1 -4.96578e-11 0)
(1 -2.01355e-10 0)
(1 -4.25764e-10 0)
(1 -7.2495e-10 0)
(1 -1.11348e-09 0)
(1 -1.61247e-09 0)
(1 -2.24584e-09 0)
(1 -3.04178e-09 0)
(1 -4.0335e-09 0)
(1 -5.26021e-09 0)
(1 -6.76848e-09 0)
(1 -8.61364e-09 0)
(1 -1.08615e-08 0)
(1 -1.35903e-08 0)
(1 -1.68934e-08 0)
(1 -2.08826e-08 0)
(1 -2.56855e-08 0)
(1 -3.14928e-08 0)
(1 -3.82507e-08 0)
(1 -4.79257e-08 0)
(1 -5.87449e-11 0)
(1 -2.33453e-10 0)
(1 -4.84524e-10 0)
(1 -8.09746e-10 0)
(1 -1.22339e-09 0)
(1 -1.74668e-09 0)
(1 -2.40388e-09 0)
(1 -3.22319e-09 0)
(1 -4.23774e-09 0)
(1 -5.48657e-09 0)
(1 -7.01593e-09 0)
(1 -8.88079e-09 0)
(1 -1.11464e-08 0)
(1 -1.38906e-08 0)
(1 -1.72059e-08 0)
(1 -2.12038e-08 0)
(1 -2.60123e-08 0)
(1 -3.18212e-08 0)
(1 -3.85847e-08 0)
(1 -4.8269e-08 0)
(1 -6.45245e-11 0)
(1 -2.55945e-10 0)
(1 -5.27965e-10 0)
(1 -8.75082e-10 0)
(1 -1.31046e-09 0)
(1 -1.85527e-09 0)
(1 -2.5338e-09 0)
(1 -3.37423e-09 0)
(1 -4.40962e-09 0)
(1 -5.67886e-09 0)
(1 -7.22802e-09 0)
(1 -9.11179e-09 0)
(1 -1.13952e-08 0)
(1 -1.41555e-08 0)
(1 -1.74853e-08 0)
(1 -2.14957e-08 0)
(1 -2.63154e-08 0)
(1 -3.21342e-08 0)
(1 -3.89132e-08 0)
(1 -4.86158e-08 0)
(1 -6.85926e-11 0)
(1 -2.72303e-10 0)
(1 -5.60703e-10 0)
(1 -9.25513e-10 0)
(1 -1.37896e-09 0)
(1 -1.94206e-09 0)
(1 -2.63895e-09 0)
(1 -3.4978e-09 0)
(1 -4.55156e-09 0)
(1 -5.83906e-09 0)
(1 -7.40619e-09 0)
(1 -9.30746e-09 0)
(1 -1.16077e-08 0)
(1 -1.43842e-08 0)
(1 -1.77291e-08 0)
(1 -2.17539e-08 0)
(1 -2.6588e-08 0)
(1 -3.24207e-08 0)
(1 -3.92191e-08 0)
(1 -4.8943e-08 0)
(1 -7.15712e-11 0)
(1 -2.84009e-10 0)
(1 -5.84641e-10 0)
(1 -9.62816e-10 0)
(1 -1.43027e-09 0)
(1 -2.00776e-09 0)
(1 -2.71933e-09 0)
(1 -3.59307e-09 0)
(1 -4.6619e-09 0)
(1 -5.96455e-09 0)
(1 -7.54685e-09 0)
(1 -9.46316e-09 0)
(1 -1.17782e-08 0)
(1 -1.45692e-08 0)
(1 -1.79286e-08 0)
(1 -2.19675e-08 0)
(1 -2.68165e-08 0)
(1 -3.26643e-08 0)
(1 -3.94827e-08 0)
(1 -4.9228e-08 0)
(1 -7.36417e-11 0)
(1 -2.92077e-10 0)
(1 -6.01193e-10 0)
(1 -9.88851e-10 0)
(1 -1.46639e-09 0)
(1 -2.05437e-09 0)
(1 -2.77678e-09 0)
(1 -3.66166e-09 0)
(1 -4.74186e-09 0)
(1 -6.05612e-09 0)
(1 -7.65023e-09 0)
(1 -9.57846e-09 0)
(1 -1.19054e-08 0)
(1 -1.47085e-08 0)
(1 -1.80801e-08 0)
(1 -2.21314e-08 0)
(1 -2.69937e-08 0)
(1 -3.28553e-08 0)
(1 -3.96911e-08 0)
(1 -4.94549e-08 0)
(1 -7.48781e-11 0)
(1 -2.97193e-10 0)
(1 -6.11609e-10 0)
(1 -1.00537e-09 0)
(1 -1.48943e-09 0)
(1 -2.08426e-09 0)
(1 -2.81385e-09 0)
(1 -3.70617e-09 0)
(1 -4.79406e-09 0)
(1 -6.11624e-09 0)
(1 -7.71852e-09 0)
(1 -9.65516e-09 0)
(1 -1.19907e-08 0)
(1 -1.48025e-08 0)
(1 -1.81832e-08 0)
(1 -2.22439e-08 0)
(1 -2.71162e-08 0)
(1 -3.29882e-08 0)
(1 -3.98367e-08 0)
(1 -4.96128e-08 0)
(1 -7.54528e-11 0)
(1 -2.99665e-10 0)
(1 -6.16648e-10 0)
(1 -1.01343e-09 0)
(1 -1.50072e-09 0)
(1 -2.09903e-09 0)
(1 -2.83229e-09 0)
(1 -3.72848e-09 0)
(1 -4.82041e-09 0)
(1 -6.1468e-09 0)
(1 -7.75351e-09 0)
(1 -9.6948e-09 0)
(1 -1.20351e-08 0)
(1 -1.48519e-08 0)
(1 -1.82379e-08 0)
(1 -2.2304e-08 0)
(1 -2.7182e-08 0)
(1 -3.30595e-08 0)
(1 -3.99143e-08 0)
(1 -4.96946e-08 0)
(1 -7.53874e-11 0)
(1 -2.99601e-10 0)
(1 -6.16631e-10 0)
(1 -1.01348e-09 0)
(1 -1.5009e-09 0)
(1 -2.09942e-09 0)
(1 -2.83295e-09 0)
(1 -3.72948e-09 0)
(1 -4.82185e-09 0)
(1 -6.14876e-09 0)
(1 -7.75608e-09 0)
(1 -9.69814e-09 0)
(1 -1.20394e-08 0)
(1 -1.48572e-08 0)
(1 -1.82443e-08 0)
(1 -2.23114e-08 0)
(1 -2.71901e-08 0)
(1 -3.30676e-08 0)
(1 -3.99212e-08 0)
(1 -4.96961e-08 0)
(1 -7.46493e-11 0)
(1 -2.97113e-10 0)
(1 -6.11657e-10 0)
(1 -1.00564e-09 0)
(1 -1.49009e-09 0)
(1 -2.08555e-09 0)
(1 -2.81593e-09 0)
(1 -3.70927e-09 0)
(1 -4.79843e-09 0)
(1 -6.12213e-09 0)
(1 -7.72623e-09 0)
(1 -9.66514e-09 0)
(1 -1.20033e-08 0)
(1 -1.48181e-08 0)
(1 -1.8202e-08 0)
(1 -2.22657e-08 0)
(1 -2.714e-08 0)
(1 -3.30119e-08 0)
(1 -3.98568e-08 0)
(1 -4.96168e-08 0)
(1 -7.32179e-11 0)
(1 -2.92102e-10 0)
(1 -6.01418e-10 0)
(1 -9.89459e-10 0)
(1 -1.46767e-09 0)
(1 -2.05666e-09 0)
(1 -2.78037e-09 0)
(1 -3.66687e-09 0)
(1 -4.74908e-09 0)
(1 -6.06578e-09 0)
(1 -7.66285e-09 0)
(1 -9.59473e-09 0)
(1 -1.1926e-08 0)
(1 -1.47338e-08 0)
(1 -1.81106e-08 0)
(1 -2.21668e-08 0)
(1 -2.70323e-08 0)
(1 -3.28934e-08 0)
(1 -3.9723e-08 0)
(1 -4.94601e-08 0)
(1 -7.10551e-11 0)
(1 -2.84107e-10 0)
(1 -5.85053e-10 0)
(1 -9.63742e-10 0)
(1 -1.43216e-09 0)
(1 -2.01099e-09 0)
(1 -2.72427e-09 0)
(1 -3.60016e-09 0)
(1 -4.67164e-09 0)
(1 -5.97756e-09 0)
(1 -7.56386e-09 0)
(1 -9.48506e-09 0)
(1 -1.18058e-08 0)
(1 -1.46033e-08 0)
(1 -1.79696e-08 0)
(1 -2.20151e-08 0)
(1 -2.68683e-08 0)
(1 -3.27152e-08 0)
(1 -3.95248e-08 0)
(1 -4.92335e-08 0)
(1 -6.80659e-11 0)
(1 -2.724e-10 0)
(1 -5.61257e-10 0)
(1 -9.26674e-10 0)
(1 -1.38132e-09 0)
(1 -1.94604e-09 0)
(1 -2.645e-09 0)
(1 -3.50641e-09 0)
(1 -4.56338e-09 0)
(1 -5.85485e-09 0)
(1 -7.42687e-09 0)
(1 -9.33406e-09 0)
(1 -1.16413e-08 0)
(1 -1.44257e-08 0)
(1 -1.77791e-08 0)
(1 -2.18118e-08 0)
(1 -2.6651e-08 0)
(1 -3.24824e-08 0)
(1 -3.92699e-08 0)
(1 -4.8948e-08 0)
(1 -6.40472e-11 0)
(1 -2.56104e-10 0)
(1 -5.28588e-10 0)
(1 -8.76431e-10 0)
(1 -1.31317e-09 0)
(1 -1.85982e-09 0)
(1 -2.54066e-09 0)
(1 -3.384e-09 0)
(1 -4.42301e-09 0)
(1 -5.6968e-09 0)
(1 -7.25153e-09 0)
(1 -9.14204e-09 0)
(1 -1.14334e-08 0)
(1 -1.42029e-08 0)
(1 -1.75424e-08 0)
(1 -2.15619e-08 0)
(1 -2.63873e-08 0)
(1 -3.22044e-08 0)
(1 -3.89706e-08 0)
(1 -4.86195e-08 0)
(1 -5.84378e-11 0)
(1 -2.33756e-10 0)
(1 -4.85216e-10 0)
(1 -8.1129e-10 0)
(1 -1.22642e-09 0)
(1 -1.75167e-09 0)
(1 -2.41133e-09 0)
(1 -3.23376e-09 0)
(1 -4.25224e-09 0)
(1 -5.50601e-09 0)
(1 -7.04143e-09 0)
(1 -8.9136e-09 0)
(1 -1.1188e-08 0)
(1 -1.39422e-08 0)
(1 -1.72681e-08 0)
(1 -2.12759e-08 0)
(1 -2.60906e-08 0)
(1 -3.18975e-08 0)
(1 -3.86469e-08 0)
(1 -4.82713e-08 0)
(1 -4.95834e-11 0)
(1 -2.01751e-10 0)
(1 -4.26676e-10 0)
(1 -7.26739e-10 0)
(1 -1.1169e-09 0)
(1 -1.61791e-09 0)
(1 -2.25385e-09 0)
(1 -3.05304e-09 0)
(1 -4.04885e-09 0)
(1 -5.28071e-09 0)
(1 -6.7953e-09 0)
(1 -8.64813e-09 0)
(1 -1.09052e-08 0)
(1 -1.36446e-08 0)
(1 -1.69586e-08 0)
(1 -2.09581e-08 0)
(1 -2.57678e-08 0)
(1 -3.15729e-08 0)
(1 -3.83152e-08 0)
(1 -4.79256e-08 0)
(1 -3.51728e-11 0)
(1 -1.55027e-10 0)
(1 -3.45911e-10 0)
(1 -6.13771e-10 0)
(1 -9.73647e-10 0)
(1 -1.44559e-09 0)
(1 -2.05325e-09 0)
(1 -2.82483e-09 0)
(1 -3.79382e-09 0)
(1 -4.99987e-09 0)
(1 -6.49015e-09 0)
(1 -8.3208e-09 0)
(1 -1.05587e-08 0)
(1 -1.32827e-08 0)
(1 -1.65859e-08 0)
(1 -2.05802e-08 0)
(1 -2.53913e-08 0)
(1 -3.12066e-08 0)
(1 -3.79627e-08 0)
(1 -4.75887e-08 0)
(1 -1.74532e-11 0)
(1 -1.03144e-10 0)
(1 -2.5926e-10 0)
(1 -4.94174e-10 0)
(1 -8.22519e-10 0)
(1 -1.26397e-09 0)
(1 -1.84189e-09 0)
(1 -2.58442e-09 0)
(1 -3.52517e-09 0)
(1 -4.70409e-09 0)
(1 -6.16884e-09 0)
(1 -7.97634e-09 0)
(1 -1.01944e-08 0)
(1 -1.29029e-08 0)
(1 -1.61956e-08 0)
(1 -2.0186e-08 0)
(1 -2.50018e-08 0)
(1 -3.08327e-08 0)
(1 -3.76187e-08 0)
(1 -4.72911e-08 0)
)
;

boundaryField
{
    inlet
    {
        type            fixedValue;
        value           uniform (1 0 0);
    }
    outlet
    {
        type            zeroGradient;
    }
    up
    {
        type            zeroGradient;
    }
    down
    {
        type            zeroGradient;
    }
    frontAndBack
    {
        type            empty;
    }
}


// ************************************************************************* //
