/*--------------------------------*- C++ -*----------------------------------*\
  =========                 |
  \\      /  F ield         | OpenFOAM: The Open Source CFD Toolbox
   \\    /   O peration     | Website:  https://openfoam.org
    \\  /    A nd           | Version:  8
     \\/     M anipulation  |
\*---------------------------------------------------------------------------*/
FoamFile
{
    version     2.0;
    format      ascii;
    class       surfaceScalarField;
    location    "1.72";
    object      phi;
}
// * * * * * * * * * * * * * * * * * * * * * * * * * * * * * * * * * * * * * //

dimensions      [0 3 -1 0 0 0 0];

internalField   nonuniform List<scalar> 
760
(
1.24964e-06
2.04287e-20
1.24964e-06
9.01676e-21
1.24964e-06
4.90171e-21
1.24964e-06
2.62412e-21
1.24964e-06
9.02625e-22
1.24964e-06
-5.75371e-23
1.24964e-06
-5.4044e-22
1.24964e-06
-6.21435e-22
1.24964e-06
-5.71757e-22
1.24964e-06
-8.71085e-22
1.24964e-06
-9.69351e-22
1.24964e-06
-1.00576e-21
1.24964e-06
-1.0063e-21
1.24964e-06
-1.34448e-21
1.24964e-06
-1.15295e-21
1.24964e-06
-7.68156e-22
1.24964e-06
1.49614e-22
1.24964e-06
1.63646e-21
1.24964e-06
4.31276e-21
8.96488e-21
3.74893e-06
1.67303e-20
3.74893e-06
1.29059e-20
3.74893e-06
8.57129e-21
3.74893e-06
4.71421e-21
3.74893e-06
1.30393e-21
3.74893e-06
-3.35462e-22
3.74893e-06
-6.76739e-22
3.74893e-06
-1.2468e-21
3.74893e-06
-2.1889e-21
3.74893e-06
-2.15382e-21
3.74893e-06
-2.39181e-21
3.74893e-06
-3.48062e-21
3.74893e-06
-3.46194e-21
3.74893e-06
-2.91461e-21
3.74893e-06
-3.39473e-21
3.74893e-06
-2.27396e-21
3.74893e-06
4.12606e-22
3.74893e-06
3.21315e-21
3.74893e-06
7.79328e-21
1.23107e-20
6.24824e-06
1.70609e-20
6.24824e-06
1.50276e-20
6.24824e-06
1.12393e-20
6.24824e-06
7.06344e-21
6.24824e-06
3.41252e-21
6.24824e-06
6.96119e-22
6.24824e-06
-1.43011e-21
6.24824e-06
-2.92783e-21
6.24824e-06
-3.85088e-21
6.24824e-06
-4.40259e-21
6.24824e-06
-4.25779e-21
6.24824e-06
-5.53342e-21
6.24824e-06
-6.45261e-21
6.24824e-06
-5.76325e-21
6.24824e-06
-4.30756e-21
6.24824e-06
-2.56674e-21
6.24824e-06
8.64208e-22
6.24824e-06
5.49372e-21
6.24824e-06
9.92213e-21
1.45391e-20
8.7476e-06
1.71599e-20
8.7476e-06
1.64024e-20
8.7476e-06
1.38163e-20
8.7476e-06
9.18062e-21
8.7476e-06
3.83715e-21
8.7476e-06
5.92057e-22
8.7476e-06
-2.29276e-21
8.7476e-06
-2.69923e-21
8.7476e-06
-4.53874e-21
8.7476e-06
-5.59972e-21
8.7476e-06
-7.327e-21
8.7476e-06
-8.44347e-21
8.7476e-06
-8.98784e-21
8.7476e-06
-8.38035e-21
8.7476e-06
-6.05938e-21
8.7476e-06
-2.58857e-21
8.7476e-06
2.23127e-21
8.7476e-06
8.77375e-21
8.7476e-06
1.36343e-20
1.75457e-20
1.1247e-05
1.94429e-20
1.1247e-05
1.70379e-20
1.1247e-05
1.29744e-20
1.1247e-05
8.87192e-21
1.1247e-05
4.63202e-21
1.1247e-05
1.23481e-21
1.1247e-05
-1.17438e-21
1.1247e-05
-3.40041e-21
1.1247e-05
-4.37847e-21
1.1247e-05
-7.78836e-21
1.1247e-05
-9.88731e-21
1.1247e-05
-1.14923e-20
1.1247e-05
-1.01443e-20
1.1247e-05
-9.35619e-21
1.1247e-05
-6.11962e-21
1.1247e-05
-1.12437e-21
1.1247e-05
4.81685e-21
1.1247e-05
9.39516e-21
1.1247e-05
1.56959e-20
1.87237e-20
1.37465e-05
1.8477e-20
1.37465e-05
1.79322e-20
1.37465e-05
1.3381e-20
1.37465e-05
8.6313e-21
1.37465e-05
5.60026e-21
1.37465e-05
1.84e-21
1.37465e-05
-1.45408e-21
1.37465e-05
-3.12029e-21
1.37465e-05
-4.7992e-21
1.37465e-05
-8.35261e-21
1.37465e-05
-1.21563e-20
1.37465e-05
-1.2922e-20
1.37465e-05
-1.35566e-20
1.37465e-05
-9.99383e-21
1.37465e-05
-5.20381e-21
1.37465e-05
1.39247e-21
1.37465e-05
5.45553e-21
1.37465e-05
1.25875e-20
1.37465e-05
1.55828e-20
1.59891e-20
1.62461e-05
1.75935e-20
1.62461e-05
1.7028e-20
1.62461e-05
1.34946e-20
1.62461e-05
7.63595e-21
1.62461e-05
4.86179e-21
1.62461e-05
1.17814e-21
1.62461e-05
-3.12914e-22
1.62461e-05
-3.38848e-21
1.62461e-05
-6.21645e-21
1.62461e-05
-7.24639e-21
1.62461e-05
-1.19956e-20
1.62461e-05
-1.41317e-20
1.62461e-05
-1.29641e-20
1.62461e-05
-8.03545e-21
1.62461e-05
-3.07304e-21
1.62461e-05
2.01924e-21
1.62461e-05
9.59118e-21
1.62461e-05
1.23028e-20
1.62461e-05
1.38279e-20
1.73506e-20
1.87458e-05
1.91852e-20
1.87458e-05
1.75404e-20
1.87458e-05
1.19211e-20
1.87458e-05
7.67605e-21
1.87458e-05
3.10869e-21
1.87458e-05
2.35149e-21
1.87458e-05
-1.6714e-21
1.87458e-05
-1.33077e-21
1.87458e-05
-6.18747e-21
1.87458e-05
-1.1525e-20
1.87458e-05
-1.43803e-20
1.87458e-05
-1.49752e-20
1.87458e-05
-1.00702e-20
1.87458e-05
-5.56259e-21
1.87458e-05
-1.50222e-21
1.87458e-05
4.63544e-21
1.87458e-05
7.27972e-21
1.87458e-05
1.09521e-20
1.87458e-05
1.5247e-20
1.75327e-20
2.12455e-05
1.835e-20
2.12455e-05
1.59659e-20
2.12455e-05
1.22038e-20
2.12455e-05
6.09012e-21
2.12455e-05
1.63043e-22
2.12455e-05
6.05348e-22
2.12455e-05
-3.41596e-22
2.12455e-05
-5.28737e-21
2.12455e-05
-6.56508e-21
2.12455e-05
-1.01192e-20
2.12455e-05
-1.33992e-20
2.12455e-05
-1.21047e-20
2.12455e-05
-1.18721e-20
2.12455e-05
-8.79172e-21
2.12455e-05
1.80322e-22
2.12455e-05
2.30206e-21
2.12455e-05
6.06868e-21
2.12455e-05
1.21889e-20
2.12455e-05
1.74444e-20
2.00405e-20
2.37454e-05
2.00811e-20
2.37454e-05
1.59723e-20
2.37454e-05
1.10932e-20
2.37454e-05
3.0868e-21
2.37454e-05
3.65619e-22
2.37454e-05
-1.84813e-21
2.37454e-05
-2.47024e-21
2.37454e-05
-3.14724e-21
2.37454e-05
-8.05328e-21
2.37454e-05
-8.95312e-21
2.37454e-05
-8.82365e-21
2.37454e-05
-1.12807e-20
2.37454e-05
-1.19479e-20
2.37454e-05
-6.95413e-21
2.37454e-05
6.38879e-22
2.37454e-05
4.02858e-21
2.37454e-05
6.04809e-21
2.37454e-05
8.71453e-21
2.37454e-05
1.28251e-20
1.58634e-20
2.62454e-05
1.18443e-20
2.62454e-05
1.51562e-20
2.62454e-05
1.2154e-20
2.62454e-05
6.36236e-21
2.62454e-05
4.46793e-21
2.62454e-05
9.09883e-22
2.62454e-05
-4.15488e-21
2.62454e-05
-7.34987e-21
2.62454e-05
-1.01271e-20
2.62454e-05
-1.15304e-20
2.62454e-05
-8.50215e-21
2.62454e-05
-6.30006e-21
2.62454e-05
-4.76143e-21
2.62454e-05
-1.99272e-21
2.62454e-05
-1.02937e-21
2.62454e-05
2.63369e-21
2.62454e-05
6.60861e-21
2.62454e-05
8.61553e-21
2.62454e-05
1.07176e-20
1.36908e-20
2.87455e-05
8.79492e-21
2.87455e-05
9.79467e-21
2.87455e-05
6.74416e-21
2.87455e-05
5.22703e-21
2.87455e-05
2.30849e-21
2.87455e-05
-1.54791e-21
2.87455e-05
4.99464e-23
2.87455e-05
-4.5436e-21
2.87455e-05
-6.81072e-21
2.87455e-05
-1.10143e-20
2.87455e-05
-1.09075e-20
2.87455e-05
-5.43271e-21
2.87455e-05
7.98398e-22
2.87455e-05
2.44705e-21
2.87455e-05
2.98749e-21
2.87455e-05
2.88787e-21
2.87455e-05
5.85809e-21
2.87455e-05
1.0648e-20
2.87455e-05
1.09227e-20
8.11405e-21
3.12458e-05
8.28741e-21
3.12458e-05
6.01313e-21
3.12458e-05
2.87892e-21
3.12458e-05
2.85422e-21
3.12458e-05
-1.80792e-22
3.12458e-05
-3.61957e-21
3.12458e-05
-4.90826e-21
3.12458e-05
-3.70697e-21
3.12458e-05
-4.68583e-21
3.12458e-05
-4.62672e-21
3.12458e-05
-1.55658e-21
3.12458e-05
1.94282e-21
3.12458e-05
8.98267e-21
3.12458e-05
9.13957e-21
3.12458e-05
7.63868e-21
3.12458e-05
7.17079e-21
3.12458e-05
3.31891e-21
3.12458e-05
4.77329e-21
3.12458e-05
4.21056e-21
8.87423e-21
3.37461e-05
4.19137e-21
3.37461e-05
-1.37951e-22
3.37461e-05
9.17637e-22
3.37461e-05
-5.03448e-22
3.37461e-05
-5.74451e-22
3.37461e-05
2.82974e-22
3.37461e-05
-3.01079e-21
3.37461e-05
-5.2442e-21
3.37461e-05
-4.3034e-21
3.37461e-05
-2.32488e-21
3.37461e-05
-1.57343e-22
3.37461e-05
8.40823e-21
3.37461e-05
1.05855e-20
3.37461e-05
9.83512e-21
3.37461e-05
7.19488e-21
3.37461e-05
6.34027e-21
3.37461e-05
5.49542e-21
3.37461e-05
2.07675e-21
3.37461e-05
8.46116e-21
6.14656e-21
3.62465e-05
-4.37134e-21
3.62465e-05
-7.74517e-22
3.62465e-05
3.34683e-23
3.62465e-05
-2.59126e-21
3.62465e-05
4.83477e-22
3.62465e-05
-5.19225e-21
3.62465e-05
-5.76258e-21
3.62465e-05
-8.38891e-21
3.62465e-05
-5.31337e-21
3.62465e-05
-4.47378e-22
3.62465e-05
5.52467e-21
3.62465e-05
9.55514e-21
3.62465e-05
1.49226e-20
3.62465e-05
1.35257e-20
3.62465e-05
6.97593e-21
3.62465e-05
5.04717e-21
3.62465e-05
3.0183e-21
3.62465e-05
4.57324e-21
3.62465e-05
1.81037e-21
1.02989e-21
3.8747e-05
-3.53737e-22
3.8747e-05
-1.13871e-21
3.8747e-05
-2.4879e-21
3.8747e-05
3.748e-21
3.8747e-05
1.94559e-21
3.8747e-05
-7.38894e-21
3.8747e-05
-1.08122e-20
3.8747e-05
-8.48565e-21
3.8747e-05
3.74969e-22
3.8747e-05
-2.22015e-22
3.8747e-05
2.71049e-21
3.8747e-05
1.1961e-20
3.8747e-05
1.24709e-20
3.8747e-05
1.12729e-20
3.8747e-05
7.30278e-21
3.8747e-05
3.36153e-21
3.8747e-05
3.07465e-21
3.8747e-05
-9.5607e-22
3.8747e-05
2.40957e-22
1.90127e-22
4.12476e-05
-1.70962e-21
4.12476e-05
-5.36262e-21
4.12476e-05
-2.58338e-22
4.12476e-05
8.48832e-22
4.12476e-05
8.02426e-22
4.12476e-05
-8.50094e-22
4.12476e-05
-6.79777e-21
4.12476e-05
-5.34279e-21
4.12476e-05
-3.13937e-21
4.12476e-05
2.08028e-21
4.12476e-05
4.96881e-21
4.12476e-05
5.52499e-21
4.12476e-05
8.34005e-21
4.12476e-05
9.46252e-21
4.12476e-05
9.04614e-21
4.12476e-05
4.42965e-21
4.12476e-05
4.90652e-22
4.12476e-05
-4.09078e-21
4.12476e-05
-6.0295e-21
-4.82007e-21
4.37482e-05
-8.33464e-21
4.37482e-05
-3.66059e-21
4.37482e-05
1.85817e-21
4.37482e-05
7.41744e-21
4.37482e-05
-2.55653e-21
4.37482e-05
-5.25483e-21
4.37482e-05
-7.2518e-21
4.37482e-05
-6.44225e-21
4.37482e-05
-2.25645e-21
4.37482e-05
5.01178e-21
4.37482e-05
6.4016e-21
4.37482e-05
7.28818e-21
4.37482e-05
5.09705e-21
4.37482e-05
2.3262e-21
4.37482e-05
3.31321e-21
4.37482e-05
5.85772e-22
4.37482e-05
-1.03784e-21
4.37482e-05
-1.51519e-21
4.37482e-05
5.43036e-22
-3.15614e-21
4.62489e-05
-1.74619e-21
4.62489e-05
-4.10783e-21
4.62489e-05
1.74203e-21
4.62489e-05
9.63587e-21
4.62489e-05
2.90107e-21
4.62489e-05
-4.10024e-21
4.62489e-05
-7.91486e-21
4.62489e-05
-7.90226e-21
4.62489e-05
-3.20645e-21
4.62489e-05
4.01126e-21
4.62489e-05
5.20957e-21
4.62489e-05
3.37651e-21
4.62489e-05
2.06588e-21
4.62489e-05
1.31214e-21
4.62489e-05
-3.37229e-21
4.62489e-05
-1.30166e-21
4.62489e-05
-7.63717e-22
4.62489e-05
8.87599e-22
4.62489e-05
-1.27806e-21
5.05245e-22
4.87496e-05
4.87496e-05
4.87496e-05
4.87496e-05
4.87496e-05
4.87496e-05
4.87496e-05
4.87496e-05
4.87496e-05
4.87496e-05
4.87496e-05
4.87496e-05
4.87496e-05
4.87496e-05
4.87496e-05
4.87496e-05
4.87496e-05
4.87496e-05
4.87496e-05
)
;

boundaryField
{
    movingWall
    {
        type            calculated;
        value           uniform 0;
    }
    fixedWalls
    {
        type            calculated;
        value           uniform 0;
    }
    left
    {
        type            cyclic;
        value           nonuniform List<scalar> 
20
(
-3.8747e-05
-3.62465e-05
-3.37461e-05
-3.12458e-05
-2.87455e-05
-2.62454e-05
-2.37454e-05
-2.12455e-05
-1.87458e-05
-1.62461e-05
-1.37465e-05
-1.1247e-05
-8.7476e-06
-6.24824e-06
-3.74893e-06
-1.24964e-06
-4.12476e-05
-4.37482e-05
-4.62489e-05
-4.87496e-05
)
;
    }
    right
    {
        type            cyclic;
        value           nonuniform List<scalar> 
20
(
3.8747e-05
3.62465e-05
3.37461e-05
3.12458e-05
2.87455e-05
2.62454e-05
2.37454e-05
2.12455e-05
1.87458e-05
1.62461e-05
1.37465e-05
1.1247e-05
8.7476e-06
6.24824e-06
3.74893e-06
1.24964e-06
4.12476e-05
4.37482e-05
4.62489e-05
4.87496e-05
)
;
    }
    frontAndBack
    {
        type            empty;
        value           nonuniform List<scalar> 0();
    }
}


// ************************************************************************* //
