0 	0 	0 	0
1.57135 	-0.00143964 	0.00139242 	0
3.1427 	-0.00318838 	0.00277539 	0
4.71405 	-0.00537095 	0.00388724 	0
6.28539 	-0.00848653 	0.00483777 	0
7.85674 	-0.0138382 	0.00670625 	0
9.42809 	-0.0260717 	0.0169323 	0
10.9994 	0.00174238 	0.105943 	0
12.5708 	0.143306 	-0.0572175 	0
14.1421 	0.5 	0 	0
