0 	0 	0 	0
1.57135 	-0.00174542 	0.00168562 	0
3.1427 	-0.00389281 	0.00341102 	0
4.71405 	-0.0066265 	0.00488282 	0
6.28539 	-0.0108175 	0.00638093 	0
7.85674 	-0.019032 	0.00983747 	0
9.42809 	-0.0310849 	0.0253641 	0
10.9994 	0.0212755 	0.0844848 	0
12.5708 	0.0201269 	-0.049991 	0
14.1421 	0.5 	0 	0
