/*--------------------------------*- C++ -*----------------------------------*\
  =========                 |
  \\      /  F ield         | OpenFOAM: The Open Source CFD Toolbox
   \\    /   O peration     | Website:  https://openfoam.org
    \\  /    A nd           | Version:  8
     \\/     M anipulation  |
\*---------------------------------------------------------------------------*/
FoamFile
{
    version     2.0;
    format      ascii;
    class       surfaceScalarField;
    location    "42";
    object      phi;
}
// * * * * * * * * * * * * * * * * * * * * * * * * * * * * * * * * * * * * * //

dimensions      [0 3 -1 0 0 0 0];

internalField   nonuniform List<scalar> 
34404
(
0.0053426
-9.26699e-06
5.39833e-09
0.00537031
-2.77012e-05
-8.65776e-09
0.00541571
-4.53901e-05
-1.22726e-08
0.00547743
-6.17096e-05
-6.31039e-09
0.00555359
-7.61582e-05
-2.86279e-09
0.00564191
-8.83238e-05
-2.39017e-09
0.00573982
-9.79088e-05
-1.2533e-09
0.00584458
-0.000104756
3.4928e-10
0.00595344
-0.000108864
2.66452e-09
0.00606382
-0.000110389
4.50332e-09
0.00617344
-0.000109623
5.77928e-09
0.00628039
-0.000106954
6.37644e-09
0.0063832
-0.000102815
6.2743e-09
0.00648082
-9.76283e-05
5.63194e-09
0.00657258
-9.17611e-05
4.69591e-09
0.00665808
-8.55041e-05
3.74416e-09
0.00673715
-7.9072e-05
2.91284e-09
0.00680976
-7.26146e-05
2.27873e-09
0.00687599
-6.62341e-05
1.7721e-09
0.00693598
-5.9996e-05
1.41418e-09
0.00698993
-5.39418e-05
1.10999e-09
0.00703802
-4.80929e-05
9.4479e-10
0.00708048
-4.24623e-05
7.72704e-10
0.00711753
-3.70533e-05
7.39426e-10
0.0071494
-3.18703e-05
6.08612e-10
0.00717631
-2.69121e-05
6.5482e-10
0.0071985
-2.21836e-05
4.98647e-10
0.00721618
-1.76833e-05
6.23213e-10
0.0072296
-1.34205e-05
3.86488e-10
0.00723899
-9.39327e-06
6.16951e-10
0.00724461
-5.6163e-06
2.21979e-10
0.00724669
-2.08415e-06
6.21211e-10
0.00724551
1.18324e-06
-2.11937e-11
0.00724131
4.19785e-06
7.1274e-10
0.00723437
6.93728e-06
-3.38637e-10
0.00722494
9.42988e-06
9.47544e-10
0.0072133
1.16434e-05
-8.44835e-10
0.00719967
1.3629e-05
1.38126e-09
0.00718433
1.53408e-05
-1.6625e-09
0.00716747
1.68613e-05
2.23369e-09
0.00714935
1.81189e-05
-2.96796e-09
0.00713011
1.92384e-05
3.81732e-09
0.00711001
2.01048e-05
-5.16125e-09
0.0070891
2.08985e-05
6.63142e-09
0.00706767
2.14404e-05
-8.85748e-09
0.00704568
2.198e-05
1.13964e-08
0.00702344
2.22584e-05
-1.46328e-08
0.00700082
2.25929e-05
1.81765e-08
0.00697818
2.26658e-05
-2.03912e-08
2.27822e-05
1.60348e-08
0.00534282
-1.87548e-05
5.11802e-09
0.00537114
-5.60105e-05
-9.0345e-09
0.00541754
-9.17784e-05
-1.23779e-08
0.00548062
-0.000124783
-6.45801e-09
0.00555844
-0.000153977
-3.18757e-09
0.00564864
-0.000178521
-2.57943e-09
0.00574854
-0.000197809
-1.28538e-09
0.0058553
-0.00021152
4.40212e-10
0.00596609
-0.000219654
2.91643e-09
0.00607823
-0.000222534
4.85459e-09
0.00618937
-0.000220768
6.16757e-09
0.00629758
-0.000215168
6.72171e-09
0.00640139
-0.000206631
6.51398e-09
0.00649978
-0.000196025
5.75238e-09
0.00659211
-0.000184099
4.73238e-09
0.00667804
-0.000171436
3.75388e-09
0.00675742
-0.00015846
2.94101e-09
0.00683027
-0.000145464
2.34276e-09
0.00689668
-0.000132644
1.86813e-09
0.00695681
-0.000120127
1.53369e-09
0.00701085
-0.000107989
1.24749e-09
0.00705903
-9.62703e-05
1.09645e-09
0.00710156
-8.49925e-05
9.33663e-10
0.00713867
-7.41608e-05
9.04173e-10
0.00717058
-6.37823e-05
7.7345e-10
0.00719752
-5.38538e-05
8.17401e-10
0.00721972
-4.43845e-05
6.5828e-10
0.00723741
-3.53717e-05
7.77643e-10
0.00725082
-2.6833e-05
5.35338e-10
0.00726019
-1.87666e-05
7.55066e-10
0.00726577
-1.11998e-05
3.5004e-10
0.00726781
-4.12504e-06
7.25492e-10
0.00726658
2.42123e-06
5.80362e-11
0.00726232
8.45611e-06
8.00057e-10
0.00725531
1.39432e-05
-2.41688e-10
0.00724581
1.89285e-05
1.02167e-09
0.0072341
2.33603e-05
-7.5417e-10
0.0072204
2.73242e-05
1.4298e-09
0.00720499
3.0751e-05
-1.57041e-09
0.00718807
3.37766e-05
2.25183e-09
0.0071699
3.62971e-05
-2.85877e-09
0.00715062
3.85113e-05
3.78871e-09
0.00713047
4.02575e-05
-5.00876e-09
0.00710956
4.18087e-05
6.52655e-09
0.00708808
4.29226e-05
-8.62613e-09
0.0070661
4.39487e-05
1.11595e-08
0.00704381
4.45627e-05
-1.42762e-08
0.00702123
4.51539e-05
1.77625e-08
0.00699853
4.539e-05
-1.99473e-08
4.55444e-05
1.57506e-08
0.00534324
-2.86641e-05
5.19212e-09
0.00537284
-8.55968e-05
-9.60612e-09
0.00542132
-0.000140248
-1.29819e-08
0.0054872
-0.000190656
-6.84985e-09
0.00556842
-0.000235195
-3.46369e-09
0.00566246
-0.000272554
-2.7098e-09
0.00576644
-0.000301791
-1.12779e-09
0.00587731
-0.000322397
9.46815e-10
0.00599203
-0.000334376
3.73715e-09
0.00610774
-0.00033825
5.94277e-09
0.00622197
-0.000334997
7.35318e-09
0.00633271
-0.000325919
7.78947e-09
0.00643852
-0.000312451
7.2888e-09
0.00653845
-0.000295956
6.1791e-09
0.00663193
-0.000277588
4.87994e-09
0.00671872
-0.000258224
3.75556e-09
0.00679874
-0.000238486
2.90903e-09
0.00687206
-0.000218791
2.33106e-09
0.00693884
-0.00019942
1.88081e-09
0.00699925
-0.000180544
1.56743e-09
0.00705353
-0.000162267
1.30002e-09
0.00710189
-0.000144636
1.17253e-09
0.00714458
-0.000127679
1.02558e-09
0.00718181
-0.000111396
1.01018e-09
0.00721383
-9.57963e-05
8.81403e-10
0.00724084
-8.0872e-05
9.32301e-10
0.0072631
-6.6636e-05
7.67609e-10
0.00728081
-5.30838e-05
8.91838e-10
0.00729422
-4.02424e-05
6.35155e-10
0.00730356
-2.81092e-05
8.56398e-10
0.00730908
-1.67266e-05
4.24541e-10
0.00731104
-6.0841e-06
7.98626e-10
0.0073097
3.7621e-06
1.03633e-10
0.00730532
1.28353e-05
8.69963e-10
0.00729818
2.10822e-05
-2.00699e-10
0.00728854
2.85693e-05
1.09014e-09
0.00727668
3.52206e-05
-7.33904e-10
0.00726284
4.11622e-05
1.48954e-09
0.0072473
4.62942e-05
-1.57012e-09
0.00723026
5.08168e-05
2.30895e-09
0.00721197
5.45822e-05
-2.8738e-09
0.0071926
5.78807e-05
3.84417e-09
0.00717238
6.04843e-05
-5.02919e-09
0.0071514
6.27864e-05
6.57464e-09
0.00712988
6.44483e-05
-8.63544e-09
0.00710785
6.5966e-05
1.11751e-08
0.00708554
6.68894e-05
-1.42372e-08
0.00706291
6.77641e-05
1.76996e-08
0.00704019
6.81282e-05
-1.97855e-08
6.83707e-05
1.56453e-08
0.0053439
-3.92327e-05
5.44142e-09
0.00537547
-0.000117154
-1.04471e-08
0.00542717
-0.000191935
-1.40704e-08
0.00549739
-0.000260871
-7.53329e-09
0.00558389
-0.00032169
-3.8547e-09
0.00568389
-0.000372555
-2.88281e-09
0.00579423
-0.000412126
-9.43479e-10
0.00591151
-0.000439676
1.76328e-09
0.00603234
-0.000455212
5.13788e-09
0.00615358
-0.0004595
7.81187e-09
0.00627255
-0.000453979
9.3821e-09
0.00638718
-0.000440559
9.58712e-09
0.00649605
-0.000421324
8.55198e-09
0.0065983
-0.000398216
6.82885e-09
0.00669353
-0.000372828
5.05603e-09
0.00678163
-0.000346325
3.702e-09
0.00686264
-0.000319502
2.81639e-09
0.00693673
-0.000292879
2.27651e-09
0.0070041
-0.000266792
1.86056e-09
0.007065
-0.000241443
1.57563e-09
0.00711967
-0.000216944
1.33618e-09
0.00716838
-0.000193341
1.24669e-09
0.00721135
-0.000170654
1.1237e-09
0.00724883
-0.000148876
1.13018e-09
0.00728105
-0.000128013
1.00231e-09
0.00730822
-0.00010805
1.06496e-09
0.00733059
-8.9004e-05
8.89644e-10
0.00734837
-7.08669e-05
1.02398e-09
0.00736181
-5.36765e-05
7.42849e-10
0.00737113
-3.74299e-05
9.73322e-10
0.00737659
-2.21866e-05
4.9948e-10
0.00737843
-7.9329e-06
8.86173e-10
0.00737694
5.25015e-06
1.45077e-10
0.00737239
1.7394e-05
9.61459e-10
0.00736504
2.84238e-05
-1.73209e-10
0.00735518
3.84306e-05
1.18297e-09
0.0073431
4.73068e-05
-7.4674e-10
0.00732903
5.5228e-05
1.57882e-09
0.00731327
6.20537e-05
-1.62633e-09
0.00729602
6.80632e-05
2.41174e-09
0.00727756
7.30492e-05
-2.9721e-09
0.00725802
7.74172e-05
3.97542e-09
0.00723766
8.08474e-05
-5.1656e-09
0.00721655
8.38905e-05
6.74396e-09
0.00719494
8.607e-05
-8.79747e-09
0.00717281
8.80824e-05
1.13649e-08
0.00715042
8.92895e-05
-1.43799e-08
0.0071277
9.0469e-05
1.78363e-08
0.0071049
9.09435e-05
-1.97934e-08
9.1313e-05
1.55566e-08
0.00534482
-5.07188e-05
5.76608e-09
0.00537912
-0.000151448
-1.16565e-08
0.00543531
-0.000248103
-1.5717e-08
0.00551159
-0.000337144
-8.64889e-09
0.00560547
-0.00041557
-4.57597e-09
0.00571385
-0.000480927
-3.26596e-09
0.00583311
-0.000531389
-8.03126e-10
0.00595938
-0.000565951
2.94605e-09
0.00608879
-0.000584624
7.30096e-09
0.00621775
-0.000588477
1.07544e-08
0.00634331
-0.000579546
1.25604e-08
0.00646327
-0.000560537
1.23283e-08
0.0065763
-0.000534355
1.03855e-08
0.00668171
-0.000503636
7.69035e-09
0.00677933
-0.000470451
5.23248e-09
0.00686923
-0.000436235
3.61304e-09
0.00695164
-0.000401914
2.7428e-09
0.00702683
-0.000368068
2.28745e-09
0.00709509
-0.000335059
1.91877e-09
0.00715674
-0.000303091
1.66661e-09
0.00721206
-0.000272266
1.46447e-09
0.00726132
-0.000242607
1.42668e-09
0.00730479
-0.00021412
1.33173e-09
0.00734269
-0.000186783
1.36059e-09
0.00737527
-0.000160591
1.22573e-09
0.00740274
-0.000135524
1.29736e-09
0.00742534
-0.000111598
1.10044e-09
0.00744327
-8.8803e-05
1.24264e-09
0.00745678
-6.71896e-05
9.22472e-10
0.00746611
-4.67543e-05
1.16182e-09
0.0074715
-2.75778e-05
6.24944e-10
0.00747321
-9.64258e-06
1.02485e-09
0.00747152
6.93854e-06
2.17198e-10
0.0074667
2.2207e-05
1.10306e-09
0.00745907
3.60607e-05
-1.27347e-10
0.00744888
4.86195e-05
1.32173e-09
0.00743645
5.97357e-05
-7.60237e-10
0.00742203
6.96456e-05
1.71422e-09
0.00740593
7.81552e-05
-1.70534e-09
0.00738835
8.56427e-05
2.56638e-09
0.00736958
9.18208e-05
-3.11547e-09
0.00734975
9.72419e-05
4.17577e-09
0.00732914
0.000101461
-5.36909e-09
0.00730779
0.000105235
7.00814e-09
0.00728597
0.000107895
-9.04565e-09
0.00726364
0.000110409
1.16773e-08
0.00724107
0.000111871
-1.4616e-08
0.00721814
0.000113384
1.80886e-08
0.00719515
0.000113953
-1.98884e-08
0.000114501
1.54776e-08
0.00534603
-6.34149e-05
6.18926e-09
0.00538393
-0.000189343
-1.317e-08
0.00544603
-0.000310185
-1.79173e-08
0.00553034
-0.00042144
-1.02017e-08
0.00563404
-0.000519265
-5.66663e-09
0.00575359
-0.00060047
-3.90929e-09
0.00588479
-0.000662596
-6.47577e-10
0.00602311
-0.000704271
4.68399e-09
0.00616397
-0.000725492
1.0617e-08
0.00630318
-0.00072771
1.5358e-08
0.00643739
-0.00071377
1.74933e-08
0.00656429
-0.00068745
1.6419e-08
0.00668265
-0.000652733
1.28918e-08
0.00679211
-0.000613105
8.62044e-09
0.0068928
-0.00057115
5.16433e-09
0.00698509
-0.000528523
3.35388e-09
0.00706938
-0.00048621
2.64809e-09
0.0071461
-0.000444792
2.35054e-09
0.00721566
-0.000404619
2.03589e-09
0.00727843
-0.000365861
1.81064e-09
0.00733474
-0.000328578
1.6505e-09
0.00738489
-0.000292756
1.67266e-09
0.00742914
-0.00025837
1.60073e-09
0.00746773
-0.000225374
1.64344e-09
0.00750089
-0.000193755
1.4876e-09
0.00752884
-0.000163477
1.56194e-09
0.0075518
-0.000134561
1.33072e-09
0.00756999
-0.000106994
1.47826e-09
0.00758364
-8.08393e-05
1.10543e-09
0.00759298
-5.60968e-05
1.35581e-09
0.00759827
-3.28717e-05
7.38385e-10
0.00759977
-1.1144e-05
1.15694e-09
0.00759778
8.93352e-06
2.69671e-10
0.00759257
2.74139e-05
1.24702e-09
0.00758447
4.41609e-05
-1.21509e-10
0.00757376
5.93262e-05
1.4455e-09
0.00756078
7.27154e-05
-8.33661e-10
0.00754579
8.46348e-05
1.8471e-09
0.00752912
9.48263e-05
-1.85622e-09
0.00751098
0.000103786
2.73591e-09
0.00749167
0.000111128
-3.34863e-09
0.00747133
0.000117585
4.42164e-09
0.00745024
0.000122553
-5.6827e-09
0.00742842
0.000127044
7.36385e-09
0.00740618
0.000130147
-9.42589e-09
0.00738341
0.000133171
1.21373e-08
0.00736043
0.000134858
-1.50096e-08
0.00733705
0.000136745
1.85145e-08
0.00731364
0.000137391
-2.01435e-08
0.000138188
1.54755e-08
0.00534757
-7.76586e-05
6.74363e-09
0.00539007
-0.000231826
-1.48913e-08
0.00545974
-0.000379838
-2.07623e-08
0.00555437
-0.000516048
-1.22523e-08
0.00567076
-0.000635648
-7.27262e-09
0.00580482
-0.000734533
-4.94228e-09
0.00595162
-0.000809387
-4.45449e-10
0.00610567
-0.000858331
7.17728e-09
0.00626145
-0.000881291
1.55752e-08
0.00641393
-0.000880208
2.24184e-08
0.00655918
-0.000859047
2.50483e-08
0.00669479
-0.000823083
2.25053e-08
0.00681979
-0.000777752
1.62565e-08
0.00693427
-0.000727592
9.16854e-09
0.00703882
-0.000675706
4.10391e-09
0.00713416
-0.000623864
2.48289e-09
0.00722095
-0.000572998
2.43067e-09
0.00729977
-0.000523619
2.37665e-09
0.00737115
-0.000476005
2.11469e-09
0.00743554
-0.000430251
1.91325e-09
0.00749331
-0.000386344
1.80405e-09
0.00754475
-0.000344204
1.88508e-09
0.00759015
-0.000303767
1.81268e-09
0.00762973
-0.00026496
1.84341e-09
0.00766373
-0.000227751
1.64275e-09
0.00769234
-0.000192093
1.71006e-09
0.00771579
-0.000158009
1.43283e-09
0.00773428
-0.000125485
1.58532e-09
0.00774804
-9.46028e-05
1.1541e-09
0.00775731
-6.53687e-05
1.42772e-09
0.00776235
-3.79152e-05
7.35368e-10
0.00776343
-1.22249e-05
1.19333e-09
0.00776087
1.15013e-05
2.28498e-10
0.00775495
3.3328e-05
1.30125e-09
0.00774603
5.30782e-05
-2.53401e-10
0.00773442
7.0935e-05
1.46232e-09
0.00772048
8.66553e-05
-1.05524e-09
0.0077045
0.00010062
1.89927e-09
0.00768682
0.000112503
-2.15393e-09
0.00766767
0.000122932
2.86285e-09
0.00764739
0.000131412
-3.73631e-09
0.00762609
0.000138882
4.6786e-09
0.00760409
0.000144557
-6.16753e-09
0.00758138
0.000149749
7.80922e-09
0.00755828
0.000153253
-1.00088e-08
0.00753465
0.000156794
1.27849e-08
0.00751084
0.00015868
-1.56612e-08
0.00748659
0.000160981
1.92163e-08
0.00746231
0.000161692
-2.0689e-08
0.000162812
1.56473e-08
0.00534951
-9.38447e-05
7.46113e-09
0.00539773
-0.000280026
-1.66377e-08
0.00547693
-0.000459008
-2.44521e-08
0.00558457
-0.000623673
-1.48749e-08
0.00571711
-0.000768178
-9.70945e-09
0.0058698
-0.000887221
-6.52108e-09
0.00603669
-0.000976272
1.99933e-11
0.00621109
-0.00103275
1.09565e-08
0.00638612
-0.00105635
2.31329e-08
0.00655552
-0.00104964
3.30766e-08
0.00671464
-0.0010182
3.61382e-08
0.00686098
-0.000969461
3.10835e-08
0.00699405
-0.000910838
2.04112e-08
0.00711462
-0.000848171
8.4116e-09
0.00722393
-0.000785018
2.89961e-09
0.00732313
-0.000723067
1.25489e-09
0.00741316
-0.000663028
1.82621e-09
0.00749478
-0.000605245
2.06081e-09
0.00756864
-0.000549863
1.80475e-09
0.00763524
-0.000496848
1.63277e-09
0.00769496
-0.00044607
1.60401e-09
0.00774813
-0.00039737
1.74007e-09
0.00779499
-0.000350633
1.62692e-09
0.00783578
-0.000305755
1.60218e-09
0.00787072
-0.000262685
1.32159e-09
0.00789999
-0.000221369
1.37269e-09
0.00792381
-0.000181829
1.051e-09
0.00794238
-0.000144061
1.22131e-09
0.00795595
-0.000108165
7.5619e-10
0.00796474
-7.41629e-05
1.09541e-09
0.00796904
-4.22158e-05
3.86585e-10
0.00796913
-1.23177e-05
9.59007e-10
0.00796536
1.52769e-05
-6.14993e-11
0.00795804
4.06392e-05
1.05977e-09
0.00794757
6.35473e-05
-7.27446e-10
0.0079343
8.42094e-05
1.18958e-09
0.00791861
0.000102344
-1.57507e-09
0.00790083
0.000118399
1.72859e-09
0.00788135
0.000131991
-2.71483e-09
0.0078604
0.000143876
2.83889e-09
0.00783835
0.000153467
-4.36854e-09
0.00781532
0.000161907
4.86862e-09
0.00779164
0.000168242
-6.90005e-09
0.00776729
0.000174092
8.30107e-09
0.0077426
0.000177955
-1.08767e-08
0.00771738
0.000181998
1.36266e-08
0.00769202
0.000184058
-1.66785e-08
0.00766619
0.000186795
2.02827e-08
0.00764034
0.000187562
-2.1676e-08
0.000189062
1.60987e-08
0.00535192
-0.000112438
8.39324e-09
0.00540714
-0.000335231
-1.8031e-08
0.00549816
-0.000549996
-2.93171e-08
0.00562203
-0.000747522
-1.80864e-08
0.00577495
-0.000921085
-1.37113e-08
0.00595138
-0.00106365
-9.02222e-09
0.00614407
-0.00116897
7.35788e-10
0.00634475
-0.00123344
1.71047e-08
0.00654455
-0.00125618
3.57202e-08
0.00673542
-0.00124056
4.99223e-08
0.00691176
-0.0011946
5.19923e-08
0.00707112
-0.00112886
4.15189e-08
0.00721379
-0.00105353
2.18757e-08
0.00734162
-0.000976005
6.75135e-09
0.00745669
-0.000900087
5.00021e-10
0.00756064
-0.000827023
-8.69265e-10
0.0076547
-0.000757086
2.34771e-10
0.00773981
-0.000690349
7.1667e-10
0.00781669
-0.00062675
2.8707e-10
0.0078859
-0.00056606
5.6096e-11
0.00794783
-0.000507997
1.02173e-10
0.00800277
-0.000452313
3.08153e-10
0.00805098
-0.000398843
1.17833e-10
0.00809268
-0.000347455
3.23362e-11
0.00812808
-0.000298081
-2.4286e-10
0.00815737
-0.000250666
-1.93998e-10
0.00818078
-0.000205235
-5.50098e-10
0.00819853
-0.000161805
-2.4897e-10
0.00821085
-0.000120493
-7.05633e-10
0.00821804
-8.1349e-05
-1.37623e-10
0.00822039
-4.45604e-05
-7.59727e-10
0.00821821
-1.0145e-05
4.73406e-11
0.0082119
2.15931e-05
-1.01175e-09
0.00820183
5.0711e-05
8.18835e-11
0.00818842
7.69536e-05
-1.89728e-09
0.00817209
0.000100537
3.02589e-10
0.00815327
0.000121169
-2.64822e-09
0.00813234
0.000139332
1.08518e-09
0.0081097
0.000154634
-3.70956e-09
0.00808565
0.00016792
2.48627e-09
0.00806056
0.000178568
-5.35158e-09
0.00803458
0.000187881
4.85436e-09
0.00800802
0.000194804
-7.95312e-09
0.00798089
0.000201211
8.72917e-09
0.00795349
0.000205377
-1.20971e-08
0.00792562
0.000209844
1.45933e-08
0.00789765
0.000212052
-1.81416e-08
0.00786924
0.000215186
2.17315e-08
0.00784081
0.000216006
-2.3229e-08
0.00021787
1.69167e-08
0.00535487
-0.000133981
9.64672e-09
0.00541854
-0.000398878
-1.83788e-08
0.00552411
-0.000655533
-3.57942e-08
0.005668
-0.000891388
-2.16194e-08
0.00584655
-0.00109962
-2.0713e-08
0.00605318
-0.00127026
-1.3599e-08
0.00627905
-0.00139484
8.1061e-10
0.00651378
-0.0014682
2.59765e-08
0.00674553
-0.00148798
5.72812e-08
0.00696363
-0.00145873
7.87848e-08
0.00716117
-0.00139223
7.63886e-08
0.00733598
-0.00130372
5.25098e-08
0.00748974
-0.0012073
1.77751e-08
0.00762588
-0.00111215
-5.82886e-11
0.00774753
-0.00102173
-9.15303e-09
0.00785683
-0.000936316
-5.94581e-09
0.00795524
-0.000855492
-2.62268e-09
0.00804386
-0.000778971
-2.52152e-09
0.00812352
-0.000706401
-4.01414e-09
0.00819476
-0.000637298
-4.34095e-09
0.00825797
-0.000571207
-4.16159e-09
0.00831347
-0.000507805
-3.97765e-09
0.00836151
-0.000446882
-4.27807e-09
0.00840236
-0.000388297
-4.40595e-09
0.00843625
-0.000331965
-4.70926e-09
0.00846343
-0.000277842
-4.48893e-09
0.00848416
-0.000225958
-4.65015e-09
0.00849871
-0.000176357
-4.07169e-09
0.00850739
-0.00012917
-4.16121e-09
0.00851053
-8.44883e-05
-3.04443e-09
0.00850848
-4.25059e-05
-3.21568e-09
0.00850163
-3.28578e-06
-1.97078e-09
0.00849038
3.28464e-05
-3.4676e-09
0.00847522
6.58717e-05
-2.3121e-09
0.00845661
9.55636e-05
-4.23588e-09
0.00843505
0.000122101
-1.57385e-09
0.00841098
0.000145238
-4.53256e-09
0.00838489
0.000165429
-2.1648e-10
0.00835716
0.000182363
-5.26394e-09
0.0083282
0.000196884
1.63072e-09
0.00829831
0.000208461
-6.71225e-09
0.00826776
0.000218434
4.49411e-09
0.00823675
0.000225814
-9.30324e-09
0.0082054
0.000232556
8.93733e-09
0.00817386
0.000236931
-1.3629e-08
0.00814207
0.000241623
1.55154e-08
0.0081102
0.00024394
-2.00063e-08
0.00807806
0.000247303
2.34344e-08
0.00804591
0.000248179
-2.53355e-08
0.00025025
1.8115e-08
0.00535843
-0.000159085
1.14583e-08
0.0054321
-0.000472537
-1.66209e-08
0.00555546
-0.00077885
-4.42734e-08
0.00572379
-0.00105969
-2.44817e-08
0.00593459
-0.00131038
-3.27152e-08
0.00617964
-0.00151529
-2.10227e-08
0.00644842
-0.00166362
-1.85909e-09
0.00672755
-0.00174737
3.52435e-08
0.00700066
-0.00176118
8.93107e-08
0.00725323
-0.00171143
1.25369e-07
0.00747655
-0.00161566
1.16364e-07
0.00766901
-0.00149624
6.03997e-08
0.00783464
-0.00137295
1.24713e-08
0.00797917
-0.00125665
-2.57464e-08
0.00810691
-0.00114944
-3.12363e-08
0.00822043
-0.00104982
-1.89493e-08
0.00832144
-0.000956488
-1.12968e-08
0.00841123
-0.000868743
-1.27528e-08
0.0084907
-0.000785859
-1.42718e-08
0.00856047
-0.000707052
-1.43919e-08
0.00862098
-0.000631709
-1.38988e-08
0.00867266
-0.000559468
-1.35539e-08
0.00871589
-0.000490097
-1.36905e-08
0.00875106
-0.000423451
-1.34633e-08
0.00877853
-0.000359427
-1.32353e-08
0.0087987
-0.000297996
-1.23668e-08
0.00881192
-0.000239173
-1.18029e-08
0.00881861
-0.000183036
-1.03726e-08
0.00881915
-0.000129699
-9.44677e-09
0.00881399
-7.93158e-05
-7.18758e-09
0.00880353
-3.20374e-05
-6.14666e-09
0.0087882
1.20488e-05
-5.01179e-09
0.00876849
5.25639e-05
-7.42252e-09
0.00874498
8.93817e-05
-6.06895e-09
0.00871816
0.000122396
-7.55311e-09
0.00868858
0.000151679
-4.30514e-09
0.00865672
0.000177107
-7.00136e-09
0.00862313
0.000199027
-2.18275e-09
0.00858817
0.000217325
-7.09596e-09
0.00855234
0.000232716
3.42629e-10
0.00851586
0.000244943
-8.1534e-09
0.00847912
0.000255175
3.82632e-09
0.00844218
0.000262765
-1.06333e-08
0.00840529
0.000269441
8.83932e-09
0.00836838
0.000273852
-1.51347e-08
0.0083316
0.00027839
1.61639e-08
0.00829481
0.000280743
-2.19127e-08
0.00825811
0.00028398
2.50602e-08
0.0082214
0.000284916
-2.76565e-08
0.000286833
1.9551e-08
0.00536261
-0.000188373
1.43915e-08
0.00544796
-0.000557872
-1.13163e-08
0.00559282
-0.000923657
-5.47849e-08
0.00579057
-0.00125742
-2.50484e-08
0.00604202
-0.00156178
-5.2126e-08
0.00633605
-0.00180929
-2.84175e-08
0.0066609
-0.00198845
-7.61631e-09
0.00699831
-0.00208483
4.64425e-08
0.00732491
-0.00208791
1.29692e-07
0.0076208
-0.0020075
1.82063e-07
0.00787426
-0.00186928
1.66669e-07
0.00808472
-0.00170677
7.20736e-08
0.00826007
-0.00154829
-5.38725e-09
0.00840925
-0.00140577
-7.01848e-08
0.00853793
-0.00127805
-7.04091e-08
0.00864916
-0.001161
-4.72858e-08
0.00874511
-0.00105239
-3.52575e-08
0.00882746
-0.000951066
-3.41781e-08
0.00889742
-0.000855781
-3.39e-08
0.00895583
-0.000765434
-3.1631e-08
0.00900346
-0.000679312
-2.93017e-08
0.00904108
-0.000597051
-2.76978e-08
0.00906939
-0.000518387
-2.66168e-08
0.00908912
-0.000443153
-2.49596e-08
0.0091009
-0.000371186
-2.31391e-08
0.00910537
-0.000302442
-2.05905e-08
0.00910309
-0.000236875
-1.82692e-08
0.00909463
-0.000174559
-1.496e-08
0.0090805
-0.000115557
-1.2143e-08
0.0090612
-6.00128e-05
-8.03206e-09
0.00903728
-8.11146e-06
-6.06547e-09
0.00900901
4.03319e-05
-7.43988e-09
0.00897707
8.45085e-05
-1.04314e-08
0.008942
0.000124463
-8.81417e-09
0.00890424
0.000160163
-9.94282e-09
0.0088644
0.000191526
-6.43144e-09
0.00882288
0.000218633
-8.7775e-09
0.00878028
0.000241632
-3.68812e-09
0.00873689
0.000260729
-8.2446e-09
0.00869325
0.000276354
-4.61549e-10
0.00864947
0.000288728
-8.89041e-09
0.00860604
0.000298601
3.22792e-09
0.00856283
0.000305994
-1.11959e-08
0.00852025
0.000312011
8.54032e-09
0.00847793
0.000316182
-1.58192e-08
0.0084363
0.000320006
1.63275e-08
0.0083948
0.000322268
-2.29745e-08
0.00835391
0.000324841
2.60588e-08
0.00831302
0.000325833
-2.93005e-08
0.000327046
2.08256e-08
0.00536727
-0.000222331
1.97878e-08
0.0054661
-0.000656697
-2.32471e-09
0.00563635
-0.00109384
-6.60128e-08
0.00586899
-0.00149003
-2.35818e-08
0.0061719
-0.00186461
-8.37231e-08
0.00652812
-0.00216549
-2.74758e-08
0.00692713
-0.00238744
-1.3099e-08
0.00734221
-0.00249999
7.9512e-08
0.00773818
-0.00248407
1.91366e-07
0.0080865
-0.00235605
2.27262e-07
0.00837016
-0.00215312
1.74023e-07
0.00859112
-0.00192778
4.60142e-08
0.00876426
-0.00172136
-7.03567e-08
0.00890311
-0.00154448
-1.3756e-07
0.00901523
-0.00139005
-1.19745e-07
0.00910475
-0.00125044
-8.32961e-08
0.00917526
-0.00112285
-6.77559e-08
0.00922937
-0.00100511
-6.38539e-08
0.00926899
-0.000895344
-5.79238e-08
0.0092957
-0.000792092
-4.92397e-08
0.00931101
-0.000694573
-4.21933e-08
0.00931636
-0.000602364
-3.72713e-08
0.00931307
-0.000515072
-3.33943e-08
0.00930235
-0.000432396
-2.92048e-08
0.0092852
-0.00035401
-2.5049e-08
0.00926253
-0.000279754
-2.04457e-08
0.00923508
-0.000209405
-1.59123e-08
0.00920351
-0.000142988
-1.0602e-08
0.00916838
-8.04174e-05
-5.98114e-09
0.00913023
-2.18573e-05
-2.24194e-09
0.00908898
3.31456e-05
-7.61456e-09
0.00904546
8.38574e-05
-9.60072e-09
0.00899991
0.000130072
-1.08319e-08
0.00895273
0.000171653
-8.40025e-09
0.00890423
0.00020867
-9.21611e-09
0.00885488
0.000240877
-5.88508e-09
0.00880495
0.000268571
-7.93917e-09
0.00875494
0.000291644
-3.16055e-09
0.00870501
0.000310671
-7.25521e-09
0.00865567
0.000325691
-1.826e-10
0.00860688
0.000337524
-7.78454e-09
0.00855917
0.000346309
3.33672e-09
0.00851219
0.000352981
-1.0015e-08
0.00846651
0.000357683
8.26888e-09
0.00842145
0.000361263
-1.46e-08
0.00837767
0.000363768
1.57716e-08
0.00833418
0.000365779
-2.18462e-08
0.00829188
0.000367114
2.56103e-08
0.00824958
0.00036816
-2.87657e-08
0.000368107
2.11671e-08
0.00537206
-0.000261081
3.04425e-08
0.00548647
-0.000771119
7.26504e-09
0.00568515
-0.00129245
-7.21858e-08
0.00595899
-0.00176384
-2.78127e-08
0.00632639
-0.00223187
-1.38875e-07
0.00676018
-0.00259924
-3.60103e-08
0.00725741
-0.00288464
-3.22278e-08
0.00777829
-0.00302102
1.43167e-07
0.008264
-0.00297008
3.14342e-07
0.00866652
-0.00275884
2.63189e-07
0.00896147
-0.00244814
7.39364e-08
0.00916171
-0.00212789
-1.18493e-07
0.00929545
-0.00185483
-2.67989e-07
0.0093837
-0.00163248
-2.51163e-07
0.0094371
-0.0014433
-1.49341e-07
0.00946308
-0.00127635
-7.87219e-08
0.00946771
-0.0011274
-7.40766e-08
0.00945566
-0.000992993
-6.94116e-08
0.00943012
-0.000869747
-5.716e-08
0.00939395
-0.00075588
-4.18655e-08
0.00934977
-0.000650363
-3.06931e-08
0.00929985
-0.000552426
-2.32103e-08
0.00924609
-0.000461286
-1.76414e-08
0.00918997
-0.000376263
-1.24904e-08
0.00913265
-0.000296685
-8.18948e-09
0.00907498
-0.000222078
-3.52632e-09
0.00901751
-0.000151942
-2.86161e-10
0.00896063
-8.6109e-05
3.84524e-09
0.00890473
-2.45269e-05
5.84703e-09
0.00884918
3.36971e-05
7.4044e-10
0.00879434
8.79874e-05
-6.37632e-09
0.0087403
0.000137904
-5.91477e-09
0.00868682
0.000183557
-4.95024e-09
0.00863393
0.000224547
-2.32981e-09
0.0085816
0.000261008
-3.3281e-09
0.00852994
0.000292531
-8.68372e-10
0.00847898
0.000319533
-3.03695e-09
0.00842897
0.000341654
5.28216e-10
0.00837991
0.000359741
-3.26548e-09
0.00833214
0.000373458
2.1622e-09
0.00828552
0.000384147
-4.36952e-09
0.00824048
0.000391342
4.39628e-09
0.0081966
0.000396868
-6.68043e-09
0.00815442
0.000399862
7.9804e-09
0.00811311
0.000402581
-1.08258e-08
0.00807343
0.000403436
1.40354e-08
0.00803414
0.000405088
-1.73359e-08
0.00799633
0.000404897
2.25515e-08
0.00795848
0.000406035
-2.43143e-08
0.000404501
1.93126e-08
0.00537651
-0.000304307
5.12598e-08
0.00550854
-0.000903165
1.83125e-08
0.00573608
-0.00151994
-5.61155e-08
0.00605954
-0.00208725
-5.48412e-08
0.00650438
-0.00267648
-2.28541e-07
0.00703413
-0.00312888
-1.16462e-07
0.00766501
-0.0035154
-1.12896e-07
0.0083261
-0.00368226
1.46052e-07
0.00891858
-0.00356302
4.67115e-07
0.00934254
-0.00318319
3.91366e-07
0.0095746
-0.00268024
3.99423e-08
0.00966783
-0.00222072
-4.00228e-07
0.00967661
-0.00186304
-5.74417e-07
0.00963048
-0.00158596
-3.87605e-07
0.00954764
-0.00136034
-1.12646e-07
0.00944183
-0.00117052
-2.1255e-08
0.00932289
-0.00100847
8.26301e-09
0.00919685
-0.000866966
1.37918e-08
0.00906847
-0.000741392
2.22018e-08
0.00894147
-0.000628909
3.01711e-08
0.00881885
-0.000527771
3.20563e-08
0.0087027
-0.000436306
3.12428e-08
0.00859436
-0.000352972
2.97388e-08
0.0084945
-0.000276432
2.84013e-08
0.00840331
-0.000205524
2.6197e-08
0.00832052
-0.000139311
2.42427e-08
0.00824563
-7.70795e-05
2.18219e-08
0.00817817
-1.86607e-05
1.92385e-08
0.00811648
3.7154e-05
9.24518e-09
0.00806029
8.98765e-05
3.60886e-09
0.00800872
0.000139552
4.1878e-09
0.00796084
0.00018578
7.26773e-09
0.00791591
0.000228482
7.85298e-09
0.00787332
0.000267123
8.92327e-09
0.00783261
0.000301716
6.88023e-09
0.00779344
0.000331685
7.55735e-09
0.0077556
0.000357371
4.65312e-09
0.00771902
0.000378234
6.23431e-09
0.0076836
0.000395158
2.39303e-09
0.00764946
0.00040759
5.46416e-09
0.00761651
0.000417097
1.50856e-10
0.00758497
0.000422876
5.6289e-09
0.00755457
0.000427272
-2.15908e-09
0.00752562
0.000428802
7.06582e-09
0.00749752
0.000430689
-5.13642e-09
0.00747076
0.000430179
1.042e-08
0.00744432
0.000431543
-9.36357e-09
0.00741905
0.000430152
1.55707e-08
0.00739358
0.000431514
-1.47493e-08
0.000428964
1.35249e-08
0.00538048
-0.000351541
8.87347e-08
0.00552954
-0.00105228
5.15913e-08
0.00578264
-0.00177305
1.08221e-08
0.006166
-0.0024705
-1.08038e-07
0.0066931
-0.00320326
-3.19247e-07
0.00734565
-0.00378108
-3.55541e-07
0.00817549
-0.00434483
-4.06085e-07
0.00898497
-0.00449177
3.08428e-08
0.0096417
-0.00422013
3.75734e-07
0.00994848
-0.00349055
5.79107e-07
0.00993547
-0.00266751
2.8241e-07
0.00974712
-0.00203221
-1.64758e-07
0.00947998
-0.00159529
-6.0723e-07
0.00917271
-0.00127831
-3.82358e-07
0.00885909
-0.0010467
-1.78848e-08
0.008558
-0.000869576
1.49791e-07
0.00827896
-0.000729597
1.73256e-07
0.00802571
-0.000613878
1.60167e-07
0.00779992
-0.000515748
1.48139e-07
0.0076022
-0.000431318
1.27725e-07
0.00743174
-0.000357412
1.03316e-07
0.0072868
-0.00029145
8.26557e-08
0.00716512
-0.000231359
6.71196e-08
0.00706416
-0.000175532
5.57252e-08
0.00698133
-0.000122738
4.59083e-08
0.00691404
-7.20564e-05
3.71912e-08
0.00685984
-2.29076e-05
2.81347e-08
0.00681626
2.48947e-05
2.0202e-08
0.00678163
7.17716e-05
1.77705e-08
0.00675402
0.000117463
1.89901e-08
0.00673187
0.000161679
1.99096e-08
0.00671378
0.000203855
2.07187e-08
0.00669861
0.000243628
1.89021e-08
0.00668545
0.000280264
1.7718e-08
0.00667365
0.000313508
1.44466e-08
0.00666269
0.000342635
1.33915e-08
0.0066523
0.000367751
9.8674e-09
0.00664228
0.000388237
9.68636e-09
0.00663265
0.000404784
6.01012e-09
0.00662338
0.000416849
6.98507e-09
0.00661461
0.000425865
3.10358e-09
0.00660637
0.000431116
5.39274e-09
0.00659874
0.000434903
1.16924e-09
0.0065917
0.00043583
4.68207e-09
0.00658516
0.00043723
2.62903e-10
0.0065791
0.000436238
4.56054e-09
0.00657309
0.000437549
3.4497e-10
0.00656734
0.000435897
4.03056e-09
0.00656115
0.000437705
-4.62337e-11
0.000435217
1.79909e-09
0.0053836
-0.000401945
1.44497e-07
0.00554172
-0.00121052
1.25741e-07
0.00581501
-0.00204646
1.26374e-07
0.00625704
-0.0029124
-1.29183e-07
0.00685948
-0.00380543
-2.71835e-07
0.00768537
-0.00460626
-7.02533e-07
0.00879812
-0.00545682
-7.52518e-07
0.00966516
-0.00535874
-8.05759e-08
0.0100968
-0.00124963
-1.12952e-07
-0.00107631
-0.00124819
-0.0010775
0.00993606
-0.00091435
2.4968e-07
-0.00075089
-0.000913443
-0.000751404
0.00935204
-0.000569361
9.38704e-07
-0.000473002
-0.000568965
-0.000473105
0.00862064
-0.00033593
3.52662e-07
-0.000314434
-0.000336372
-0.000314425
0.00790537
-0.000879919
-1.04033e-07
0.00726667
-0.000639493
-1.15328e-07
0.00673745
-0.000517642
1.50804e-07
0.00631444
-0.000446723
1.58864e-07
0.00598458
-0.000399806
7.41741e-08
0.00573158
-0.000360935
5.35682e-08
0.0055406
-0.000324823
5.67757e-08
0.00539857
-0.00028934
5.32115e-08
0.00529475
-0.000253643
4.65666e-08
0.00522071
-0.000217454
4.0945e-08
0.00516996
-0.000180645
3.5996e-08
0.00513751
-0.000143106
3.1175e-08
0.00511947
-0.000104725