0 	-1.08477e-08
1.57135 	7.47557e-07
3.1427 	9.17609e-06
4.71405 	4.30376e-05
6.28539 	0.000128995
7.85674 	0.000300613
9.42809 	0.00059449
10.9994 	0.00106576
12.5708 	0.00189803
14.1421 	0.00491496
