/*--------------------------------*- C++ -*----------------------------------*\
  =========                 |
  \\      /  F ield         | OpenFOAM: The Open Source CFD Toolbox
   \\    /   O peration     | Website:  https://openfoam.org
    \\  /    A nd           | Version:  8
     \\/     M anipulation  |
\*---------------------------------------------------------------------------*/
FoamFile
{
    version     2.0;
    format      ascii;
    class       volVectorField;
    location    "0.01";
    object      U;
}
// * * * * * * * * * * * * * * * * * * * * * * * * * * * * * * * * * * * * * //

dimensions      [0 1 -1 0 0 0 0];

internalField   nonuniform List<vector> 
400
(
(2.44134e-05 2.46298e-08 0)
(2.43647e-05 4.03341e-08 0)
(2.42926e-05 4.39161e-08 0)
(2.42027e-05 4.53871e-08 0)
(2.41188e-05 4.2882e-08 0)
(2.40425e-05 3.77441e-08 0)
(2.39779e-05 3.0655e-08 0)
(2.39273e-05 2.24354e-08 0)
(2.38927e-05 1.37359e-08 0)
(2.38749e-05 4.8743e-09 0)
(2.38745e-05 -4.04888e-09 0)
(2.38914e-05 -1.29726e-08 0)
(2.39254e-05 -2.17611e-08 0)
(2.39761e-05 -3.01519e-08 0)
(2.40421e-05 -3.77113e-08 0)
(2.41211e-05 -4.37349e-08 0)
(2.42095e-05 -4.70283e-08 0)
(2.43007e-05 -4.49836e-08 0)
(2.43731e-05 -3.35526e-08 0)
(2.44193e-05 -5.67095e-09 0)
(7.88425e-05 5.00063e-08 0)
(7.87939e-05 1.13025e-07 0)
(7.8691e-05 1.38795e-07 0)
(7.85701e-05 1.47274e-07 0)
(7.8451e-05 1.40458e-07 0)
(7.83427e-05 1.24019e-07 0)
(7.82497e-05 1.01172e-07 0)
(7.81757e-05 7.44458e-08 0)
(7.81243e-05 4.56442e-08 0)
(7.80982e-05 1.58221e-08 0)
(7.80982e-05 -1.44245e-08 0)
(7.81244e-05 -4.45942e-08 0)
(7.81756e-05 -7.40042e-08 0)
(7.82501e-05 -1.01599e-07 0)
(7.83451e-05 -1.2575e-07 0)
(7.84559e-05 -1.43928e-07 0)
(7.85767e-05 -1.52141e-07 0)
(7.86962e-05 -1.42783e-07 0)
(7.87916e-05 -1.05361e-07 0)
(7.88373e-05 -3.00339e-08 0)
(0.000152853 7.96514e-08 0)
(0.000152819 1.80599e-07 0)
(0.000152746 2.38046e-07 0)
(0.000152653 2.55909e-07 0)
(0.00015256 2.46212e-07 0)
(0.000152475 2.18612e-07 0)
(0.000152402 1.79353e-07 0)
(0.000152343 1.32676e-07 0)
(0.000152302 8.14886e-08 0)
(0.000152282 2.78145e-08 0)
(0.000152283 -2.68199e-08 0)
(0.000152305 -8.10148e-08 0)
(0.000152347 -1.33161e-07 0)
(0.000152408 -1.8112e-07 0)
(0.000152483 -2.21847e-07 0)
(0.00015257 -2.50803e-07 0)
(0.000152663 -2.61094e-07 0)
(0.000152753 -2.41125e-07 0)
(0.000152821 -1.75216e-07 0)
(0.000152853 -5.94993e-08 0)
(0.000265313 9.28518e-08 0)
(0.000265295 2.28445e-07 0)
(0.000265247 3.05904e-07 0)
(0.000265182 3.3136e-07 0)
(0.000265117 3.20467e-07 0)
(0.000265059 2.85616e-07 0)
(0.000265009 2.3497e-07 0)
(0.000264968 1.73991e-07 0)
(0.00026494 1.06511e-07 0)
(0.000264927 3.53996e-08 0)
(0.000264928 -3.70181e-08 0)
(0.000264945 -1.08581e-07 0)
(0.000264976 -1.76904e-07 0)
(0.000265019 -2.38975e-07 0)
(0.000265072 -2.90658e-07 0)
(0.000265131 -3.25946e-07 0)
(0.000265195 -3.35938e-07 0)
(0.000265257 -3.06621e-07 0)
(0.000265298 -2.20576e-07 0)
(0.000265313 -7.54054e-08 0)
(0.000444519 1.06136e-07 0)
(0.000444514 2.60712e-07 0)
(0.000444487 3.50234e-07 0)
(0.000444444 3.80574e-07 0)
(0.000444405 3.69048e-07 0)
(0.000444371 3.29486e-07 0)
(0.000444342 2.71191e-07 0)
(0.000444318 2.00535e-07 0)
(0.000444302 1.22084e-07 0)
(0.000444294 3.93243e-08 0)
(0.000444297 -4.48667e-08 0)
(0.000444308 -1.27801e-07 0)
(0.000444328 -2.0655e-07 0)
(0.000444355 -2.77498e-07 0)
(0.000444387 -3.35798e-07 0)
(0.000444422 -3.74551e-07 0)
(0.00044446 -3.83652e-07 0)
(0.000444499 -3.47638e-07 0)
(0.000444519 -2.4813e-07 0)
(0.000444519 -8.37671e-08 0)
(0.000735428 1.13889e-07 0)
(0.000735436 2.78119e-07 0)
(0.000735426 3.73572e-07 0)
(0.000735406 4.06075e-07 0)
(0.000735389 3.938e-07 0)
(0.000735379 3.51406e-07 0)
(0.00073537 2.8882e-07 0)
(0.000735362 2.12931e-07 0)
(0.000735356 1.28696e-07 0)
(0.000735355 3.99155e-08 0)
(0.000735357 -5.02523e-08 0)
(0.000735364 -1.38841e-07 0)
(0.000735373 -2.22632e-07 0)
(0.000735384 -2.97692e-07 0)
(0.000735396 -3.58831e-07 0)
(0.000735408 -3.98754e-07 0)
(0.000735423 -4.06845e-07 0)
(0.00073544 -3.67029e-07 0)
(0.00073544 -2.60556e-07 0)
(0.000735427 -8.65875e-08 0)
(0.00121093 1.16848e-07 0)
(0.00121095 2.81634e-07 0)
(0.00121096 3.77055e-07 0)
(0.00121096 4.08968e-07 0)
(0.00121096 3.95771e-07 0)
(0.00121097 3.52331e-07 0)
(0.00121099 2.88684e-07 0)
(0.00121099 2.11831e-07 0)
(0.001211 1.26792e-07 0)
(0.001211 3.73918e-08 0)
(0.00121101 -5.31922e-08 0)
(0.00121101 -1.41963e-07 0)
(0.00121101 -2.25667e-07 0)
(0.001211 -3.00352e-07 0)
(0.00121099 -3.60846e-07 0)
(0.00121098 -3.99909e-07 0)
(0.00121097 -4.06993e-07 0)
(0.00121097 -3.66113e-07 0)
(0.00121095 -2.58759e-07 0)
(0.00121092 -8.41533e-08 0)
(0.00199005 1.14476e-07 0)
(0.00199009 2.70701e-07 0)
(0.00199012 3.60239e-07 0)
(0.00199014 3.88996e-07 0)
(0.00199017 3.74921e-07 0)
(0.0019902 3.32401e-07 0)
(0.00199023 2.71037e-07 0)
(0.00199025 1.97535e-07 0)
(0.00199027 1.16653e-07 0)
(0.00199028 3.19714e-08 0)
(0.00199028 -5.35543e-08 0)
(0.00199028 -1.37126e-07 0)
(0.00199027 -2.15696e-07 0)
(0.00199025 -2.85572e-07 0)
(0.00199022 -3.41943e-07 0)
(0.00199019 -3.78074e-07 0)
(0.00199015 -3.84045e-07 0)
(0.00199013 -3.44704e-07 0)
(0.00199009 -2.42526e-07 0)
(0.00199005 -7.65501e-08 0)
(0.00326775 1.06156e-07 0)
(0.0032678 2.44547e-07 0)
(0.00326785 3.22523e-07 0)
(0.00326789 3.45904e-07 0)
(0.00326794 3.31345e-07 0)
(0.003268 2.91977e-07 0)
(0.00326805 2.36392e-07 0)
(0.00326809 1.70591e-07 0)
(0.00326811 9.87687e-08 0)
(0.00326812 2.4013e-08 0)
(0.00326813 -5.11473e-08 0)
(0.00326812 -1.2431e-07 0)
(0.0032681 -1.92843e-07 0)
(0.00326806 -2.5356e-07 0)
(0.00326802 -3.02332e-07 0)
(0.00326796 -3.3335e-07 0)
(0.00326791 -3.37906e-07 0)
(0.00326786 -3.02512e-07 0)
(0.0032678 -2.11564e-07 0)
(0.00326775 -6.38565e-08 0)
(0.00536361 9.14559e-08 0)
(0.00536367 2.02834e-07 0)
(0.00536374 2.63945e-07 0)
(0.0053638 2.80211e-07 0)
(0.00536387 2.65965e-07 0)
(0.00536395 2.32215e-07 0)
(0.00536401 1.85961e-07 0)
(0.00536406 1.32098e-07 0)
(0.0053641 7.3984e-08 0)
(0.00536412 1.40177e-08 0)
(0.00536412 -4.58605e-08 0)
(0.0053641 -1.03792e-07 0)
(0.00536407 -1.57722e-07 0)
(0.00536402 -2.05176e-07 0)
(0.00536396 -2.42982e-07 0)
(0.00536389 -2.66652e-07 0)
(0.00536381 -2.69279e-07 0)
(0.00536374 -2.39956e-07 0)
(0.00536367 -1.66091e-07 0)
(0.0053636 -4.63408e-08 0)
(0.00880172 7.02834e-08 0)
(0.00880179 1.46149e-07 0)
(0.00880188 1.85829e-07 0)
(0.00880196 1.93869e-07 0)
(0.00880205 1.81124e-07 0)
(0.00880214 1.55568e-07 0)
(0.00880222 1.22042e-07 0)
(0.00880228 8.39743e-08 0)
(0.00880232 4.36598e-08 0)
(0.00880234 2.67099e-09 0)
(0.00880235 -3.77373e-08 0)
(0.00880233 -7.63366e-08 0)
(0.00880229 -1.11751e-07 0)
(0.00880223 -1.42362e-07 0)
(0.00880215 -1.66169e-07 0)
(0.00880206 -1.80354e-07 0)
(0.00880197 -1.80365e-07 0)
(0.00880188 -1.5883e-07 0)
(0.00880179 -1.07341e-07 0)
(0.00880171 -2.46579e-08 0)
(0.0144417 4.30463e-08 0)
(0.0144418 7.64155e-08 0)
(0.0144419 9.13122e-08 0)
(0.014442 9.07991e-08 0)
(0.0144421 8.10686e-08 0)
(0.0144422 6.61814e-08 0)
(0.0144423 4.83209e-08 0)
(0.0144424 2.91571e-08 0)
(0.0144424 9.77704e-09 0)
(0.0144424 -9.13698e-09 0)
(0.0144424 -2.7038e-08 0)
(0.0144424 -4.33423e-08 0)
(0.0144424 -5.73841e-08 0)
(0.0144423 -6.84648e-08 0)
(0.0144422 -7.58944e-08 0)
(0.0144421 -7.8778e-08 0)
(0.014442 -7.53983e-08 0)
(0.0144419 -6.28002e-08 0)
(0.0144418 -3.79141e-08 0)
(0.0144417 3.15318e-11 0)
(0.0236937 1.08421e-08 0)
(0.0236938 -2.75815e-09 0)
(0.0236939 -1.42331e-08 0)
(0.023694 -2.2716e-08 0)
(0.0236941 -2.77278e-08 0)
(0.0236942 -2.98772e-08 0)
(0.0236943 -2.99919e-08 0)
(0.0236944 -2.83307e-08 0)
(0.0236944 -2.50605e-08 0)
(0.0236945 -2.03615e-08 0)
(0.0236945 -1.43354e-08 0)
(0.0236944 -6.98035e-09 0)
(0.0236944 1.70819e-09 0)
(0.0236943 1.15297e-08 0)
(0.0236942 2.18402e-08 0)
(0.0236941 3.14829e-08 0)
(0.023694 3.90184e-08 0)
(0.0236939 4.22782e-08 0)
(0.0236938 3.80084e-08 0)
(0.0236937 2.60449e-08 0)
(0.0388707 -2.43041e-08 0)
(0.0388708 -8.5777e-08 0)
(0.0388709 -1.2288e-07 0)
(0.038871 -1.37764e-07 0)
(0.0388711 -1.36393e-07 0)
(0.0388712 -1.24534e-07 0)
(0.0388713 -1.06153e-07 0)
(0.0388714 -8.34339e-08 0)
(0.0388714 -5.77131e-08 0)
(0.0388714 -2.99046e-08 0)
(0.0388714 -6.17528e-10 0)
(0.0388714 2.97055e-08 0)
(0.0388714 6.05367e-08 0)
(0.0388713 9.08963e-08 0)
(0.0388712 1.18911e-07 0)
(0.0388711 1.41427e-07 0)
(0.038871 1.53761e-07 0)
(0.0388709 1.48233e-07 0)
(0.0388708 1.14615e-07 0)
(0.0388707 5.12677e-08 0)
(0.0637669 -5.91551e-08 0)
(0.063767 -1.64775e-07 0)
(0.0637671 -2.23893e-07 0)
(0.0637672 -2.42636e-07 0)
(0.0637673 -2.33595e-07 0)
(0.0637674 -2.07734e-07 0)
(0.0637674 -1.71959e-07 0)
(0.0637675 -1.30153e-07 0)
(0.0637675 -8.45852e-08 0)
(0.0637675 -3.66718e-08 0)
(0.0637675 1.2688e-08 0)
(0.0637675 6.28104e-08 0)
(0.0637675 1.12836e-07 0)
(0.0637674 1.61224e-07 0)
(0.0637673 2.05124e-07 0)
(0.0637673 2.39667e-07 0)
(0.0637672 2.57177e-07 0)
(0.0637671 2.44536e-07 0)
(0.063767 1.84484e-07 0)
(0.0637669 7.32875e-08 0)
(0.104606 -8.90795e-08 0)
(0.104606 -2.29403e-07 0)
(0.104606 -3.03534e-07 0)
(0.104607 -3.22695e-07 0)
(0.104607 -3.05544e-07 0)
(0.104607 -2.67525e-07 0)
(0.104607 -2.17847e-07 0)
(0.104607 -1.61614e-07 0)
(0.104607 -1.01642e-07 0)
(0.104607 -3.95244e-08 0)
(0.104607 2.38237e-08 0)
(0.104607 8.77298e-08 0)
(0.104607 1.51264e-07 0)
(0.104607 2.12626e-07 0)
(0.104607 2.6839e-07 0)
(0.104607 3.12516e-07 0)
(0.104606 3.35029e-07 0)
(0.104606 3.18129e-07 0)
(0.104606 2.38424e-07 0)
(0.104606 8.93245e-08 0)
(0.171599 -1.07946e-07 0)
(0.171599 -2.66119e-07 0)
(0.171599 -3.44223e-07 0)
(0.171599 -3.59513e-07 0)
(0.171599 -3.35347e-07 0)
(0.171599 -2.89737e-07 0)
(0.171599 -2.32834e-07 0)
(0.171599 -1.70148e-07 0)
(0.171599 -1.04532e-07 0)
(0.171599 -3.74026e-08 0)
(0.171599 3.05904e-08 0)
(0.171599 9.9046e-08 0)
(0.171599 1.6725e-07 0)
(0.171599 2.33509e-07 0)
(0.171599 2.94339e-07 0)
(0.171599 3.43348e-07 0)
(0.171599 3.69533e-07 0)
(0.171599 3.52186e-07 0)
(0.171599 2.64229e-07 0)
(0.171599 9.53428e-08 0)
(0.281492 -1.08507e-07 0)
(0.281492 -2.58609e-07 0)
(0.281492 -3.26546e-07 0)
(0.281491 -3.33726e-07 0)
(0.281491 -3.05876e-07 0)
(0.281491 -2.60551e-07 0)
(0.281491 -2.06731e-07 0)
(0.281491 -1.49109e-07 0)
(0.281491 -8.99245e-08 0)
(0.281491 -3.00648e-08 0)
(0.281491 3.03083e-08 0)
(0.281491 9.12503e-08 0)
(0.281491 1.52453e-07 0)
(0.281491 2.12559e-07 0)
(0.281491 2.68426e-07 0)
(0.281491 3.14309e-07 0)
(0.281491 3.40442e-07 0)
(0.281492 3.27044e-07 0)
(0.281492 2.47468e-07 0)
(0.281492 8.65532e-08 0)
(0.461758 -7.7583e-08 0)
(0.461758 -1.78614e-07 0)
(0.461758 -2.1976e-07 0)
(0.461758 -2.19289e-07 0)
(0.461758 -1.96856e-07 0)
(0.461758 -1.64901e-07 0)
(0.461757 -1.28947e-07 0)
(0.461757 -9.1751e-08 0)
(0.461757 -5.44732e-08 0)
(0.461757 -1.73289e-08 0)
(0.461757 2.00219e-08 0)
(0.461757 5.80889e-08 0)
(0.461757 9.70169e-08 0)
(0.461757 1.35944e-07 0)
(0.461758 1.72557e-07 0)
(0.461758 2.03097e-07 0)
(0.461758 2.21997e-07 0)
(0.461758 2.15688e-07 0)
(0.461758 1.65791e-07 0)
(0.461758 5.65447e-08 0)
(0.757464 -3.00241e-08 0)
(0.757464 -6.47521e-08 0)
(0.757464 -7.67054e-08 0)
(0.757464 -7.41493e-08 0)
(0.757464 -6.50603e-08 0)
(0.757464 -5.3661e-08 0)
(0.757464 -4.15359e-08 0)
(0.757464 -2.93758e-08 0)
(0.757464 -1.73878e-08 0)
(0.757464 -5.49841e-09 0)
(0.757464 6.53348e-09 0)
(0.757464 1.89825e-08 0)
(0.757464 3.19309e-08 0)
(0.757464 4.49944e-08 0)
(0.757464 5.72197e-08 0)
(0.757464 6.73646e-08 0)
(0.757464 7.4085e-08 0)
(0.757464 7.3272e-08 0)
(0.757464 5.75623e-08 0)
(0.757464 2.08926e-08 0)
)
;

boundaryField
{
    movingWall
    {
        type            fixedValue;
        value           uniform (1 0 0);
    }
    fixedWalls
    {
        type            noSlip;
    }
    left
    {
        type            cyclic;
    }
    right
    {
        type            cyclic;
    }
    frontAndBack
    {
        type            empty;
    }
}


// ************************************************************************* //
