0 	-5.73432e-08
1.57135 	-2.20405e-06
3.1427 	-2.89489e-06
4.71405 	2.75653e-05
6.28539 	0.000184384
7.85674 	0.000983213
9.42809 	0.000962446
10.9994 	-0.0332275
12.5708 	-0.00932271
14.1421 	0.38584
