/*--------------------------------*- C++ -*----------------------------------*\
  =========                 |
  \\      /  F ield         | OpenFOAM: The Open Source CFD Toolbox
   \\    /   O peration     | Website:  https://openfoam.org
    \\  /    A nd           | Version:  8
     \\/     M anipulation  |
\*---------------------------------------------------------------------------*/
FoamFile
{
    version     2.0;
    format      ascii;
    class       volScalarField;
    location    "34";
    object      p;
}
// * * * * * * * * * * * * * * * * * * * * * * * * * * * * * * * * * * * * * //

dimensions      [0 2 -2 0 0 0 0];

internalField   nonuniform List<scalar> 
11600
(
1.81338e-07
5.60994e-08
6.78784e-07
1.6763e-06
3.238e-06
5.33478e-06
7.96785e-06
1.11393e-05
1.48514e-05
1.91069e-05
2.39094e-05
2.92625e-05
3.51702e-05
4.16365e-05
4.86659e-05
5.6263e-05
6.44325e-05
7.31796e-05
8.25098e-05
9.24287e-05
0.000102942
0.000114057
0.000125778
0.000138112
0.000151066
0.000164646
0.000178859
0.000193712
0.000209212
0.000225367
0.000242183
0.000259668
0.000277829
0.000296671
0.000316203
0.000336431
0.000357361
0.000378999
0.000401352
0.000424426
0.000448226
0.000472758
0.000498028
0.000524043
0.000550806
0.000578324
0.000606603
0.000635648
0.000665465
0.000696061
0.000727442
0.00075961
0.000792567
0.000826294
0.000860738
0.000895885
0.000931971
0.000964519
0.00101233
0.00101708
7.37577e-07
4.82023e-07
1.14733e-06
2.16777e-06
3.74367e-06
5.84601e-06
8.47958e-06
1.16497e-05
1.53598e-05
1.96132e-05
2.44133e-05
2.97638e-05
3.56688e-05
4.21322e-05
4.91585e-05
5.67521e-05
6.4918e-05
7.36613e-05
8.29874e-05
9.29021e-05
0.000103411
0.000114521
0.000126237
0.000138566
0.000151514
0.000165087
0.000179294
0.00019414
0.000209634
0.000225781
0.000242591
0.000260068
0.000278221
0.000297055
0.000316579
0.000336798
0.00035772
0.00037935
0.000401694
0.00042476
0.000448552
0.000473077
0.000498341
0.00052435
0.00055111
0.000578627
0.000606907
0.000635958
0.000665788
0.000696408
0.000727829
0.000760067
0.000793144
0.000827089
0.000861963
0.000897927
0.000935092
0.000972841
0.00101899
0.00105449
3.59562e-07
-2.78253e-08
6.07455e-07
1.60029e-06
3.16263e-06
5.25591e-06
7.8823e-06
1.10461e-05
1.475e-05
1.8997e-05
2.37905e-05
2.91341e-05
3.50317e-05
4.14872e-05
4.85051e-05
5.60899e-05
6.42465e-05
7.29801e-05
8.22961e-05
9.22003e-05
0.000102698
0.000113797
0.000125501
0.000137817
0.000150752
0.000164313
0.000178507
0.000193341
0.000208821
0.000224955
0.000241751
0.000259215
0.000277354
0.000296175
0.000315685
0.000335891
0.000356799
0.000378416
0.000400748
0.000423801
0.000447581
0.000472095
0.000497348
0.000523346
0.000550096
0.000577604
0.000605875
0.000634918
0.00066474
0.000695352
0.000726766
0.000758996
0.000792061
0.000825988
0.000860825
0.000896666
0.000933576
0.000971618
0.00101431
0.0010519
-5.09402e-07
-9.56123e-07
-3.30401e-07
6.46465e-07
2.19947e-06
4.28448e-06
6.90267e-06
1.0058e-05
1.37531e-05
1.79909e-05
2.27744e-05
2.81074e-05
3.39935e-05
4.04369e-05
4.74419e-05
5.50132e-05
6.31556e-05
7.18744e-05
8.11749e-05
9.10629e-05
0.000101544
0.000112624
0.00012431
0.000136608
0.000149524
0.000163066
0.00017724
0.000192053
0.000207514
0.000223628
0.000240403
0.000257846
0.000275964
0.000294764
0.000314253
0.000334439
0.000355327
0.000376924
0.000399237
0.000422272
0.000446034
0.000470531
0.000495767
0.00052175
0.000548484
0.000575977
0.000604235
0.000633266
0.000663078
0.000693682
0.000725093
0.00075733
0.000790422
0.000824409
0.000859361
0.00089538
0.00093259
0.000971304
0.00101245
0.00105326
-2.03083e-06
-2.50977e-06
-1.89459e-06
-9.34428e-07
6.06016e-07
2.67931e-06
5.28615e-06
8.43009e-06
1.21134e-05
1.63385e-05
2.11087e-05
2.64273e-05
3.22981e-05
3.87252e-05
4.57129e-05
5.3266e-05
6.13895e-05
7.00883e-05
7.9368e-05
8.92341e-05
9.96925e-05
0.000110749
0.000122411
0.000134684
0.000147575
0.000161091
0.000175239
0.000190026
0.00020546
0.000221548
0.000238295
0.000255711
0.000273802
0.000292576
0.000312039
0.000332198
0.000353061
0.000374633
0.000396922
0.000419933
0.000443672
0.000468147
0.000493361
0.000519322
0.000546036
0.000573507
0.000601743
0.000630751
0.000660539
0.000691116
0.000722495
0.000754692
0.000787728
0.000821635
0.000856457
0.000892255
0.000929106
0.00096718
0.00100665
0.00104664
-4.16103e-06
-4.65618e-06
-4.04956e-06
-3.10314e-06
-1.57503e-06
4.85615e-07
3.07941e-06
6.20969e-06
9.87843e-06
1.4088e-05
1.88414e-05
2.4142e-05
2.99935e-05
3.64e-05
4.33661e-05
5.08964e-05
5.89958e-05
6.76696e-05
7.69229e-05
8.67615e-05
9.71911e-05
0.000108218
0.000119849
0.000132091
0.000144951
0.000158435
0.000172551
0.000187305
0.000202706
0.00021876
0.000235474
0.000252856
0.000270914
0.000289654
0.000309084
0.000329212
0.000350043
0.000371584
0.000393843
0.000416825
0.000440536
0.000464983
0.000490171
0.000516106
0.000542793
0.000570237
0.000598445
0.000627423
0.000657177
0.000687715
0.000719047
0.000751184
0.000784141
0.000817939
0.000852604
0.000888167
0.000924662
0.000962134
0.00100052
0.0010395
-6.89095e-06
-7.39397e-06
-6.79468e-06
-5.85983e-06
-4.34384e-06
-2.29658e-06
2.8271e-07
3.39726e-06
7.04893e-06
1.124e-05
1.59733e-05
2.12522e-05
2.70805e-05
3.34623e-05
4.04023e-05
4.79051e-05
5.59756e-05
6.46189e-05
7.38404e-05
8.36456e-05
9.40408e-05
0.000105032
0.000116627
0.000128831
0.000141653
0.000155098
0.000169175
0.00018389
0.000199251
0.000215264
0.000231938
0.000249281
0.000267298
0.000285999
0.00030539
0.000325479
0.000346273
0.000367778
0.000390001
0.000412949
0.000436627
0.000461042
0.000486198
0.000512101
0.000538757
0.00056617
0.000594344
0.000623286
0.000652999
0.00068349
0.000714762
0.000746822
0.000779677
0.000813335
0.000847802
0.000883081
0.000919165
0.000956029
0.000993561
0.00103153
-1.02146e-05
-1.07221e-05
-1.01296e-05
-9.20519e-06
-7.70138e-06
-5.66825e-06
-3.10488e-06
-8.03427e-09
3.62407e-06
7.79366e-06
1.25036e-05
1.77572e-05
2.35584e-05
2.99115e-05
3.68209e-05
4.42915e-05
5.23279e-05
6.09355e-05
7.01195e-05
7.98857e-05
9.02404e-05
0.00010119
0.000112742
0.000124903
0.00013768
0.00015108
0.000165111
0.00017978
0.000195093
0.00021106
0.000227687
0.000244982
0.000262953
0.000281608
0.000300954
0.000320999
0.000341749
0.000363212
0.000385394
0.000408302
0.000431942
0.00045632
0.00048144
0.000507308
0.000533928
0.000561306
0.000589444
0.000618346
0.000648015
0.000678453
0.000709661
0.000741639
0.000774386
0.000807899
0.000842168
0.000877176
0.000912889
0.000949246
0.000986123
0.00102333
-1.41267e-05
-1.46375e-05
-1.40515e-05
-1.31371e-05
-1.16458e-05
-9.62763e-06
-7.08163e-06
-4.00451e-06
-3.94459e-07
3.75076e-06
8.43404e-06
1.36589e-05
1.94291e-05
2.57492e-05
3.26236e-05
4.00569e-05
4.80542e-05
5.66206e-05
6.57614e-05
7.54828e-05
8.57911e-05
9.66932e-05
0.000108196
0.000120307
0.000133033
0.000146381
0.000160359
0.000174974
0.000190234
0.000206146
0.000222719
0.000239961
0.000257879
0.000276481
0.000295775
0.000315769
0.000336469
0.000357884
0.00038002
0.000402883
0.00042648
0.000450816
0.000475896
0.000501726
0.000528309
0.000555649
0.000583749
0.000612611
0.000642235
0.000672621
0.000703766
0.000735665
0.000768312
0.000801693
0.000835788
0.000870566
0.000905979
0.00094195
0.00097836
0.00101504
-1.8623e-05
-1.91366e-05
-1.85571e-05
-1.76527e-05
-1.61744e-05
-1.41723e-05
-1.16452e-05
-8.5899e-06
-5.00444e-06
-8.86517e-07
3.76687e-06
8.95927e-06
1.46947e-05
2.09775e-05
2.78122e-05
3.52035e-05
4.31563e-05
5.16759e-05
6.07679e-05
7.04386e-05
8.06945e-05
9.15427e-05
0.00010299
0.000115044
0.000127712
0.000141001
0.000154919
0.000169473
0.000184671
0.000200523
0.000217035
0.000234215
0.000252073
0.000270616
0.000289851
0.000309787
0.000330432
0.000351793
0.000373877
0.000396691
0.00042024
0.00044453
0.000469567
0.000495355
0.000521899
0.000549201
0.000577263
0.000606086
0.000635668
0.000666007
0.000697097
0.000728929
0.000761491
0.000794765
0.000828723
0.000863327
0.00089852
0.000934225
0.00097033
0.00100669
-2.36995e-05
-2.42157e-05
-2.3643e-05
-2.27489e-05
-2.12843e-05
-1.92995e-05
-1.67931e-05
-1.37617e-05
-1.02034e-05
-6.11571e-06
-1.49551e-06
3.66088e-06
9.35751e-06
1.55987e-05
2.2389e-05
2.97331e-05
3.76361e-05
4.61033e-05
5.51408e-05
6.47548e-05
7.49522e-05
8.574e-05
9.71253e-05
0.000109116
0.000121718
0.00013494
0.000148791
0.000163277
0.000178407
0.00019419
0.000210633
0.000227745
0.000245535
0.000264011
0.000283181
0.000303053
0.000323636
0.000344937
0.000366963
0.000389721
0.000413218
0.000437459
0.00046245
0.000488195
0.000514698
0.000541962
0.000569987
0.000598774
0.00062832
0.00065862
0.000689667
0.000721449
0.000753951
0.00078715
0.000821015
0.000855504
0.00089056
0.000926107
0.000962046
0.000998253
-2.93523e-05
-2.98711e-05
-2.93055e-05
-2.84222e-05
-2.69724e-05
-2.50062e-05
-2.25223e-05
-1.95171e-05
-1.59885e-05
-1.1934e-05
-7.35029e-06
-2.23358e-06
3.42018e-06
9.61532e-06
1.63564e-05
2.36481e-05
3.14958e-05
3.99051e-05
4.8882e-05
5.84333e-05
6.85658e-05
7.92866e-05
9.06029e-05
0.000102522
0.000115052
0.0001282
0.000141976
0.000156386
0.00017144
0.000187146
0.000203513
0.000220549
0.000238264
0.000256665
0.000275763
0.000295564
0.000316078
0.000337312
0.000359275
0.000381972
0.000405412
0.0004296
0.000454542
0.000480242
0.000506704
0.00053393
0.000561922
0.000590678
0.000620195
0.000650467
0.000681485
0.000713238
0.000745706
0.000778865
0.000812684
0.00084712
0.000882117
0.000917604
0.000953495
0.000989684
-3.55773e-05
-3.60989e-05
-3.55406e-05
-3.4669e-05
-3.32351e-05
-3.1289e-05
-2.88294e-05
-2.58527e-05
-2.23566e-05
-1.83382e-05
-1.37943e-05
-8.72105e-06
-3.11432e-06
3.03017e-06
9.71702e-06
1.69512e-05
2.4738e-05
3.30836e-05
4.19941e-05
5.14764e-05
6.15374e-05
7.21842e-05
8.34243e-05
9.52652e-05
0.000107715
0.000120782
0.000134474
0.0001488
0.00016377
0.000179392
0.000195674
0.000212626
0.000230258
0.000248577
0.000267594
0.000287317
0.000307755
0.000328916
0.000350809
0.00037344
0.000396818
0.000420949
0.000445839
0.000471492
0.000497913
0.000525103
0.000553064
0.000581795
0.000611291
0.000641547
0.000672554
0.000704298
0.000736761
0.000769918
0.000803738
0.000838178
0.000873188
0.000908702
0.000944645
0.000980926
-4.23702e-05
-4.28947e-05
-4.23444e-05
-4.14852e-05
-4.00684e-05
-3.81441e-05
-3.57109e-05
-3.27649e-05
-2.93039e-05
-2.53248e-05
-2.08241e-05
-1.57981e-05
-1.02427e-05
-4.15359e-06
2.474e-06
9.64519e-06
1.73657e-05
2.56416e-05
3.44795e-05
4.38863e-05
5.38689e-05
6.44346e-05
7.5591e-05
8.73458e-05
9.97075e-05
0.000112685
0.000126286
0.00014052
0.000155397
0.000170926
0.000187115
0.000203975
0.000221515
0.000239744
0.000258672
0.000278309
0.000298663
0.000319744
0.000341561
0.00036412
0.000387432
0.000411501
0.000436335
0.00046194
0.000488319
0.000515474
0.000543408
0.000572119
0.000601604
0.000631857
0.00066287
0.000694628
0.000727114
0.000760304
0.000794168
0.000828668
0.000863755
0.000899372
0.000935452
0.000971917
-4.97265e-05
-5.0254e-05
-4.97123e-05
-4.88665e-05
-4.74681e-05
-4.55673e-05
-4.31625e-05
-4.02497e-05
-3.68265e-05
-3.28897e-05
-2.84359e-05
-2.34612e-05
-1.79615e-05
-1.19325e-05
-5.36928e-06
1.73354e-06
9.38191e-06
1.75822e-05
2.63411e-05
3.56656e-05
4.55627e-05
5.60398e-05
6.71047e-05
7.87657e-05
9.10312e-05
0.00010391
0.000117412
0.000131546
0.000146321
0.000161748
0.000177835
0.000194594
0.000212033
0.000230163
0.000248994
0.000268537
0.000288799
0.000309792
0.000331525
0.000354007
0.000377245
0.000401249
0.000426024
0.000451577
0.000477913
0.000505035
0.000532944
0.000561642
0.000591124
0.000621387
0.000652421
0.000684215
0.000716752
0.000750009
0.000783959
0.000818566
0.000853788
0.000889574
0.000925865
0.000962593
-5.76411e-05
-5.81719e-05
-5.76394e-05
-5.68081e-05
-5.54296e-05
-5.3554e-05
-5.11797e-05
-4.83026e-05
-4.492e-05
-4.10288e-05
-3.66254e-05
-3.1706e-05
-2.62667e-05
-2.03027e-05
-1.38091e-05
-6.78013e-06
7.90274e-07
8.9087e-06
1.75819e-05
2.6817e-05
3.66211e-05
4.70019e-05
5.79675e-05
6.95263e-05
8.16873e-05
9.44598e-05
0.000107853
0.000121877
0.000136542
0.000151857
0.000167833
0.000184481
0.00020181
0.000219832
0.000238557
0.000257996
0.000278158
0.000299055
0.000320697
0.000343093
0.000366253
0.000390185
0.000414896
0.000440395
0.000466686
0.000493775
0.000521663
0.000550351
0.000579839
0.000610122
0.000641194
0.000673043
0.000705654
0.000739009
0.000773082
0.000807841
0.00084325
0.000879262
0.000915826
0.000952885
-6.6109e-05
-6.66433e-05
-6.61207e-05
-6.5305e-05
-6.39477e-05
-6.20992e-05
-5.97576e-05
-5.69186e-05
-5.35795e-05
-4.97372e-05
-4.53881e-05
-4.05284e-05
-3.51539e-05
-2.92599e-05
-2.28412e-05
-1.58918e-05
-8.40545e-06
-3.75407e-07
8.20521e-06
1.73435e-05
2.7047e-05
3.73235e-05
4.81815e-05
5.96297e-05
7.16774e-05
8.43342e-05
9.761e-05
0.000111515
0.000126059
0.000141253
0.000157108
0.000173635
0.000190845
0.000208748
0.000227357
0.000246682
0.000266735
0.000287527
0.000309069
0.000331371
0.000354445
0.000378299
0.000402942
0.000428382
0.000454626
0.00048168
0.000509548
0.000538231
0.00056773
0.000598044
0.000629165
0.000661087
0.000693796
0.000727276
0.000761505
0.000796455
0.000832094
0.000868382
0.000905275
0.000942722
-7.51246e-05
-7.56625e-05
-7.51505e-05
-7.43515e-05
-7.30171e-05
-7.11975e-05
-6.88907e-05
-6.60925e-05
-6.28e-05
-5.901e-05
-5.47191e-05
-4.99234e-05
-4.46185e-05
-3.87996e-05
-3.24612e-05
-2.55973e-05
-1.82012e-05
-1.02663e-05
-1.78553e-06
7.24845e-06
1.68434e-05
2.70074e-05
3.77492e-05
4.90781e-05
6.10034e-05
7.35351e-05
8.66834e-05
0.000100459
0.000114873
0.000129936
0.000145659
0.000162055
0.000179134
0.000196908
0.00021539
0.000234591
0.000254524
0.000275201
0.000296634
0.000318834
0.000341813
0.000365581
0.000390149
0.000415525
0.000441718
0.000468735
0.000496582
0.000525262
0.000554777
0.000585128
0.000616311
0.00064832
0.000681146
0.000714774
0.000749187
0.000784361
0.000820269
0.000856877
0.000894146
0.000932032
-8.46818e-05
-8.52236e-05
-8.4723e-05
-8.39418e-05
-8.26317e-05
-8.0843e-05
-7.85734e-05
-7.58186e-05
-7.25757e-05
-6.88418e-05
-6.46131e-05
-5.98858e-05
-5.46554e-05
-4.89168e-05
-4.26643e-05
-3.58918e-05
-2.85926e-05
-2.07599e-05
-1.23864e-05
-3.46454e-06
6.01365e-06
1.60567e-05
2.66737e-05
3.78739e-05
4.96673e-05
6.2064e-05
7.50748e-05
8.87108e-05
0.000102983
0.000117904
0.000133485
0.000149737
0.000166674
0.000184308
0.000202651
0.000221717
0.000241519
0.00026207
0.000283384
0.000305472
0.000328346
0.00035202
0.000376504
0.00040181
0.000427946
0.000454922
0.000482745
0.000511422
0.000540956
0.000571349
0.000602601
0.000634709
0.000667667
0.000701463
0.000736084
0.00077151
0.00080772
0.000844684
0.000882369
0.000920738
-9.47744e-05
-9.53203e-05
-9.48319e-05
-9.40697e-05
-9.27854e-05
-9.10294e-05
-8.87993e-05
-8.60907e-05
-8.29009e-05
-7.92266e-05
-7.50643e-05
-7.041e-05
-6.5259e-05
-5.9606e-05
-5.34453e-05
-4.67705e-05
-3.9575e-05
-3.18516e-05
-2.3593e-05
-1.47913e-05
-5.43821e-06
4.47515e-06
1.4958e-05
2.60201e-05
3.76715e-05
4.99229e-05
6.27855e-05
7.6271e-05
9.03911e-05
0.000105158
0.000120584
0.000136681
0.000153464
0.000170944
0.000189137
0.000208056
0.000227715
0.000248128
0.00026931
0.000291274
0.000314033
0.000337602
0.000361993
0.000387219
0.000413291
0.00044022
0.000468016
0.000496686
0.000526238
0.000556676
0.000588003
0.000620218
0.000653318
0.000687297
0.000722144
0.000757846
0.000794384
0.000831735
0.000869872
0.000908761
-0.000105396
-0.000105946
-0.00010547
-0.000104728
-0.000103471
-0.00010175
-9.95619e-05
-9.69025e-05
-9.3769e-05
-9.01583e-05
-8.60667e-05
-8.149e-05
-7.64234e-05
-7.08616e-05
-6.47986e-05
-5.8228e-05
-5.1143e-05
-4.35365e-05
-3.54006e-05
-2.67273e-05
-1.75079e-05
-7.73334e-06
2.60586e-06
1.35197e-05
2.50187e-05
3.71141e-05
4.98174e-05
6.31407e-05
7.70964e-05
9.16971e-05
0.000106956
0.000122885
0.0001395
0.000156814
0.000174843
0.000193601
0.000213104
0.000233366
0.000254403
0.00027623
0.000298861
0.000322313
0.0003466
0.000371736
0.000397734
0.000424607
0.000452368
0.000481027
0.000510594
0.000541076
0.000572478
0.000604804
0.000638055
0.000672227
0.000707315
0.000743309
0.000780197
0.000817959
0.000856575
0.000896017
-0.000116539
-0.000117093
-0.000116632
-0.000115911
-0.000114683
-0.000112998
-0.000110854
-0.000108247
-0.000105173
-0.00010163
-9.76135e-05
-9.31192e-05
-8.81422e-05
-8.26772e-05
-7.67181e-05
-7.02584e-05
-6.32912e-05
-5.58091e-05
-4.78039e-05
-3.92674e-05
-3.01907e-05
-2.05644e-05
-1.03788e-05
3.76372e-07
1.17122e-05
2.36402e-05
3.61725e-05
4.93215e-05
6.31002e-05
7.75214e-05
9.2599e-05
0.000108347
0.000124781
0.000141915
0.000159765
0.000178348
0.00019768
0.000217776
0.000238653
0.000260328
0.000282818
0.000306139
0.000330307
0.00035534
0.000381252
0.00040806
0.000435776
0.000464416
0.000493991
0.000524512
0.000555988
0.000588425
0.000621828
0.000656199
0.000691536
0.000727835
0.000765087
0.000803281
0.000842399
0.000882419
-0.000128196
-0.000128755
-0.000128308
-0.000127609
-0.000126412
-0.000124766
-0.000122669
-0.000120117
-0.000117106
-0.000113635
-0.000109698
-0.000105291
-0.000100409
-9.50462e-05
-8.91974e-05
-8.28555e-05
-7.60133e-05
-6.86633e-05
-6.07971e-05
-5.24061e-05
-4.34813e-05
-3.40132e-05
-2.39917e-05
-1.3406e-05
-2.24472e-06
9.50413e-06
2.18531e-05
3.48151e-05
4.84033e-05
6.26315e-05
7.75141e-05
9.30661e-05
0.000109303
0.000126242
0.000143899
0.000162291
0.000181435
0.000201348
0.00022205
0.000243557
0.000265888
0.000289063
0.000313098
0.000338013
0.000363825
0.000390552
0.000418213
0.000446822
0.000476395
0.000506947
0.000538489
0.000571033
0.000604586
0.000639156
0.000674746
0.000711356
0.000748983
0.00078762
0.000827257
0.000867876
-0.000140359
-0.000140923
-0.000140491
-0.000139815
-0.00013865
-0.000137045
-0.000134998
-0.000132504
-0.000129561
-0.000126165
-0.000122311
-0.000117997
-0.000113215
-0.000107961
-0.000102229
-9.60122e-05
-8.93026e-05
-8.20926e-05
-7.43738e-05
-6.61375e-05
-5.73743e-05
-4.80746e-05
-3.82278e-05
-2.78229e-05
-1.6848e-05
-5.29055e-06
6.86222e-06
1.96236e-05
3.30075e-05
4.70281e-05
6.17008e-05
7.70415e-05
9.30667e-05
0.000109794
0.00012724
0.000145423
0.000164362
0.000184076
0.000204583
0.000225905
0.00024806
0.000271069
0.000294953
0.000319732
0.000345428
0.000372059
0.000399647
0.000428211
0.000457769
0.000488338
0.000519936
0.000552577
0.000586274
0.000621038
0.000656878
0.0006938
0.000731806
0.000770894
0.00081106
0.000852294
-0.00015302
-0.000153589
-0.000153172
-0.000152522
-0.00015139
-0.000149828
-0.000147833
-0.0001454
-0.000142528
-0.000139211
-0.000135447
-0.000131229
-0.000126554
-0.000121415
-0.000115806
-0.000109721
-0.000103152
-9.60899e-05
-8.85274e-05
-8.0455e-05
-7.18636e-05
-6.27428e-05
-5.3082e-05
-4.28695e-05
-3.20931e-05
-2.074e-05
-8.79689e-06
3.74984e-06
1.69146e-05
3.07125e-05
4.51596e-05
6.02726e-05
7.6069e-05
9.25666e-05
0.000109784
0.00012774
0.000146456
0.00016595
0.000186244
0.00020736
0.000229318
0.000252142
0.000275855
0.000300478
0.000326036
0.000352552
0.000380048
0.000408548
0.000438072
0.000468643
0.00050028
0.000533004
0.000566833
0.000601781
0.000637864
0.000675093
0.000713475
0.000753015
0.000793715
0.000835571
-0.000166169
-0.000166744
-0.000166343
-0.000165718
-0.000164622
-0.000163105
-0.000161165
-0.000158797
-0.000155999
-0.000152766
-0.000149095
-0.00014498
-0.000140417
-0.000135399
-0.00012992
-0.000123974
-0.000117553
-0.000110648
-0.00010325
-9.5352e-05
-8.69425e-05
-7.80117e-05
-6.85483e-05
-5.85403e-05
-4.79751e-05
-3.68396e-05
-2.51204e-05
-1.2803e-05
1.2733e-07
1.36866e-05
2.78915e-05
4.27596e-05
5.8309e-05
7.45586e-05
9.15281e-05
0.000109238
0.000127709
0.000146963
0.000167022
0.00018791
0.000209649
0.000232266
0.000255783
0.000280228
0.000305626
0.000332003
0.000359385
0.000387797
0.000417265
0.000447816
0.000479473
0.000512261
0.000546203
0.00058132
0.000617632
0.000655155
0.000693905
0.000733892
0.000775123
0.000817602
-0.000179797
-0.000180377
-0.000179994
-0.000179396
-0.000178336
-0.000176867
-0.000174985
-0.000172685
-0.000169965
-0.00016682
-0.000163247
-0.00015924
-0.000154794
-0.000149904
-0.000144563
-0.000138763
-0.000132498
-0.000125758
-0.000118535
-0.000110821
-0.000102604
-9.38742e-05
-8.462e-05
-7.4829e-05
-6.44883e-05
-5.35845e-05
-4.21037e-05
-3.00311e-05
-1.73512e-05
-4.04724e-06
9.89805e-06
2.45029e-05
3.97864e-05
5.57682e-05
7.24691e-05
8.99108e-05
0.000108116
0.000127107
0.000146908
0.000167544
0.00018904
0.000211423
0.000234721
0.000258961
0.000284172
0.000310383
0.000337623
0.000365921
0.000395308
0.000425812
0.000457463
0.000490291
0.000524323
0.000559586
0.000596106
0.000633907
0.000673008
0.000713427
0.00075518
0.000798277
-0.000193894
-0.00019448
-0.000194114
-0.000193544
-0.000192524
-0.000191104
-0.000189282
-0.000187054
-0.000184415
-0.000181363
-0.000177892
-0.000173999
-0.000169677
-0.000164921
-0.000159724
-0.000154079
-0.000147977
-0.000141412
-0.000134374
-0.000126853
-0.00011884
-0.000110323
-0.00010129
-9.17288e-05
-8.16263e-05
-7.09687e-05
-5.97416e-05
-4.79298e-05
-3.55169e-05
-2.24859e-05
-8.81859e-06
5.50383e-06
2.05012e-05
3.61944e-05
5.26053e-05
6.97565e-05
8.76718e-05
0.000106376
0.000125893
0.000146251
0.000167476
0.000189599
0.000212648
0.000236654
0.000261649
0.000287663
0.000314731
0.000342884
0.000372157
0.000402584
0.000434198
0.000467035
0.000501128
0.000536509
0.000573211
0.000611262
0.000650691
0.000691523
0.00073378
0.000777481
-0.000208449
-0.00020904
-0.000208694
-0.000208153
-0.000207174
-0.000205806
-0.000204047
-0.000201893
-0.00019934
-0.000196385
-0.000193022
-0.000189247
-0.000185055
-0.00018044
-0.000175394
-0.000169911
-0.000163983
-0.000157601
-0.000150757
-0.000143441
-0.000135642
-0.000127349
-0.00011855
-0.000109232
-9.93822e-05
-8.89857e-05
-7.80282e-05
-6.64936e-05
-5.43652e-05
-4.16253e-05
-2.82553e-05
-1.42354e-05
4.54883e-07
1.58375e-05
3.19353e-05
4.87721e-05
6.63727e-05
8.47627e-05
0.000103969
0.000124021
0.000144946
0.000166778
0.000189547
0.000213286
0.000238031
0.000263815
0.000290675
0.000318648
0.000347772
0.000378085
0.000409626
0.000442436
0.000476553
0.000512017
0.000548865
0.000587133
0.000626859
0.000668074
0.000710809
0.000755091
-0.000223452
-0.000224049
-0.000223722
-0.000223212
-0.000222275
-0.000220961
-0.000219269
-0.000217192
-0.000214729
-0.000211874
-0.000208624
-0.000204974
-0.000200918
-0.000196449
-0.000191563
-0.00018625
-0.000180503
-0.000174314
-0.000167675
-0.000160574
-0.000153001
-0.000144944
-0.000136392
-0.000127331
-0.000117748
-0.000107628
-9.69563e-05
-8.57161e-05
-7.38903e-05
-6.14606e-05
-4.84078e-05
-3.47116e-05
-2.03503e-05
-5.30136e-06
1.04591e-05
2.69559e-05
4.42148e-05
6.22631e-05
8.11293e-05
0.000100844
0.000121438
0.000142945
0.0001654
0.000188837
0.000213295
0.000238811
0.000265424
0.000293177
0.00032211
0.000352268
0.000383694
0.000416434
0.000450533
0.000486035
0.000522987
0.000561432
0.000601414
0.000642974
0.000686152
0.000730983
-0.00023889
-0.000239493
-0.000239187
-0.000238709
-0.000237816
-0.000236559
-0.000234935
-0.00023294
-0.000230569
-0.00022782
-0.000224688
-0.000221167
-0.000217254
-0.00021294
-0.000208219
-0.000203085
-0.000197528
-0.000191542
-0.000185116
-0.000178241
-0.000170906
-0.000163098
-0.000154806
-0.000146016
-0.000136715
-0.000126887
-0.000116518
-0.00010559
-9.40853e-05
-8.19856e-05
-6.92708e-05
-5.59201e-05
-4.19109e-05
-2.72199e-05
-1.18225e-05
4.30705e-06
2.11958e-05
3.88724e-05
5.7367e-05
7.67119e-05
9.69405e-05
0.000118088
0.000140191
0.000163288
0.000187418
0.000212624
0.000238948
0.000266435
0.000295132
0.000325087
0.000356349
0.00038897
0.000423
0.000458491
0.000495495
0.000534066
0.000574255
0.000616112
0.000659687
0.000705025
-0.000254752
-0.000255361
-0.000255076
-0.000254632
-0.000253785
-0.000252587
-0.000251034
-0.000249123
-0.00024685
-0.00024421
-0.000241201
-0.000237817
-0.000234051
-0.000229898
-0.000225352
-0.000220404
-0.000215047
-0.000209272
-0.000203071
-0.000196433
-0.000189347
-0.0001818
-0.000173782
-0.000165277
-0.000156273
-0.000146754
-0.000136704
-0.000126106
-0.000114942
-0.000103193
-9.08377e-05
-7.78552e-05
-6.42222e-05
-4.99148e-05
-3.49075e-05
-1.91738e-05
-2.68531e-06
1.4588e-05
3.26781e-05
5.16188e-05
7.14452e-05
9.21947e-05
0.000113906
0.00013662
0.000160379
0.000185228
0.000211215
0.000238387
0.000266797
0.000296496
0.00032754
0.000359984
0.000393887
0.000429308
0.000466307
0.000504944
0.00054528
0.000587376
0.00063129
0.000677079
-0.000271025
-0.00027164
-0.000271378
-0.000270968
-0.000270169
-0.000269032
-0.000267554
-0.00026573
-0.000263558
-0.000261033
-0.000258152
-0.000254909
-0.000251298
-0.000247313
-0.000242948
-0.000238195
-0.000233046
-0.000227493
-0.000221527
-0.000215137
-0.000208311
-0.000201039
-0.000193308
-0.000185103
-0.000176412
-0.000167218
-0.000157505
-0.000147256
-0.000136452
-0.000125074
-0.000113101
-0.00010051
-8.72783e-05
-7.33812e-05
-5.87924e-05
-4.34845e-05
-2.74277e-05
-1.05907e-05
7.05997e-06
2.55595e-05
4.4945e-05
6.52553e-05
8.65316e-05
0.000108817
0.000132158
0.000156601
0.000182198
0.000209001
0.000237066
0.00026645
0.000297214
0.000329419
0.00036313
0.000398414
0.000435338
0.000473972
0.000514386
0.00055665
0.000600834
0.000647006
-0.000287696
-0.000288318
-0.000288078
-0.000287704
-0.000286955
-0.000285881
-0.00028448
-0.000282748
-0.00028068
-0.000278275
-0.000275527
-0.00027243
-0.000268981
-0.000265171
-0.000260995
-0.000256445
-0.000251514
-0.000246192
-0.000240471
-0.00023434
-0.000227788
-0.000220803
-0.000213372
-0.000205482
-0.000197119
-0.000188266
-0.000178908
-0.000169027
-0.000158604
-0.000147619
-0.00013605
-0.000123876
-0.000111072
-9.76128e-05
-8.3472e-05
-6.86208e-05
-5.30285e-05
-3.66625e-05
-1.9488e-05
-1.46853e-06
1.74346e-05
3.72623e-05
5.80577e-05
7.98666e-05
0.000102737
0.000126721
0.000151872
0.000178246
0.000205904
0.000234908
0.000265323
0.000297218
0.000330664
0.000365735
0.000402506
0.000441057
0.000481467
0.000523817
0.000568187
0.000614661
-0.000304752
-0.00030538
-0.000305164
-0.000304827
-0.000304129
-0.000303121
-0.0003018
-0.000300162
-0.000298204
-0.000295922
-0.000293312
-0.000290368
-0.000287086
-0.000283458
-0.000279479
-0.00027514
-0.000270435
-0.000265355
-0.00025989
-0.000254029
-0.000247762
-0.000241077
-0.000233961
-0.000226401
-0.000218382
-0.000209888
-0.000200902
-0.000191408
-0.000181386
-0.000170816
-0.000159676
-0.000147944
-0.000135594
-0.000122602
-0.000108939
-9.45766e-05
-7.94829e-05
-6.3624e-05
-4.69642e-05
-2.94657e-05
-1.10883e-05
8.2106e-06
2.84762e-05
4.97566e-05
7.21029e-05
9.5569e-05
0.000120212
0.000146094
0.000173277
0.00020183
0.000231822
0.000263329
0.000296427
0.0003312
0.00036773
0.000406106
0.000446418
0.000488758
0.000533218
0.000579895
-0.000322178
-0.000322813
-0.000322622
-0.000322323
-0.000321678
-0.000320738
-0.0003195
-0.00031796
-0.000316115
-0.000313961
-0.000311494
-0.000308708
-0.000305599
-0.00030216
-0.000298385
-0.000294267
-0.000289797
-0.000284968
-0.000279768
-0.00027419
-0.00026822
-0.000261848
-0.000255061
-0.000247845
-0.000240186
-0.000232067
-0.000223474
-0.000214387
-0.000204787
-0.000194655
-0.000183967
-0.000172702
-0.000160834
-0.000148337
-0.000135184
-0.000121344
-0.000106784
-9.14695e-05
-7.53646e-05
-5.84299e-05
-4.06238e-05
-2.19021e-05
-2.21768e-06
1.84796e-05
4.02432e-05
6.31303e-05
8.72014e-05
0.000112521
0.000139156
0.00016718
0.000196667
0.000227699
0.000260361
0.00029474
0.000330931
0.000369029
0.000409137
0.000451356
0.000495795
0.000542562
-0.000339961
-0.000340602
-0.000340436
-0.000340177
-0.000339586
-0.000338716
-0.000337564
-0.000336125
-0.000334397
-0.000332376
-0.000330057
-0.000327435
-0.000324506
-0.000321263
-0.0003177
-0.000313809
-0.000309584
-0.000305014
-0.000300092
-0.000294806
-0.000289146
-0.0002831
-0.000276656
-0.000269799
-0.000262516
-0.000254791
-0.000246607
-0.000237947
-0.000228791
-0.000219119
-0.000208909
-0.000198137
-0.000186779
-0.000174808
-0.000162196
-0.000148911
-0.000134921
-0.000120191
-0.000104683
-8.8356e-05
-7.11686e-05
-5.30747e-05
-3.40254e-05
-1.39688e-05
7.1511e-06
2.93938e-05
5.2823e-05
7.75061e-05
0.000103515
0.000130926
0.00015982
0.000190284
0.000222409
0.000256291
0.000292032
0.000329739
0.000369521
0.000411497
0.000455785
0.00050251
-0.000358084
-0.000358732
-0.000358592
-0.000358373
-0.000357839
-0.000357042
-0.000355978
-0.000354644
-0.000353036
-0.000351151
-0.000348985
-0.000346533
-0.00034379
-0.000340749
-0.000337405
-0.000333751
-0.000329779
-0.000325479
-0.000320843
-0.000315862
-0.000310523
-0.000304816
-0.000298729
-0.000292246
-0.000285356
-0.000278041
-0.000270287
-0.000262074
-0.000253383
-0.000244195
-0.000234486
-0.000224234
-0.000213414
-0.000202
-0.000189961
-0.000177267
-0.000163884
-0.000149778
-0.000134908
-0.000119236
-0.000102716
-8.53026e-05
-6.69447e-05
-4.75887e-05
-2.71769e-05
-5.64726e-06
1.70663e-05
4.10344e-05
6.63325e-05
9.30413e-05
0.000121247
0.000151042
0.000182523
0.000215794
0.000250965
0.000288151
0.000327477
0.000369068
0.000413061
0.000459594
-0.000376532
-0.000377187
-0.000377074
-0.000376897
-0.000376422
-0.000375699
-0.000374726
-0.0003735
-0.000372016
-0.000370272
-0.000368264
-0.000365986
-0.000363435
-0.000360604
-0.000357486
-0.000354076
-0.000350365
-0.000346344
-0.000342006
-0.000337339
-0.000332334
-0.000326979
-0.000321262
-0.00031517
-0.000308688
-0.000301802
-0.000294495
-0.000286749
-0.000278545
-0.000269863
-0.000260681
-0.000250976
-0.000240723
-0.000229895
-0.000218463
-0.000206395
-0.000193658
-0.000180215
-0.000166029
-0.000151058
-0.000135257
-0.000118577
-0.000100969
-8.23762e-05
-6.27395e-05
-4.19952e-05
-2.00748e-05
3.09517e-06
2.75936e-05
5.35051e-05
8.09205e-05
0.000109937
0.000140658
0.000173194
0.000207663
0.000244191
0.000282911
0.000323964
0.000367498
0.000413669
-0.00039529
-0.000395952
-0.000395866
-0.000395732
-0.000395317
-0.000394671
-0.000393792
-0.000392676
-0.000391321
-0.000389722
-0.000387876
-0.000385778
-0.000383424
-0.000380809
-0.000377925
-0.000374766
-0.000371325
-0.000367593
-0.000363561
-0.000359221
-0.000354561
-0.00034957
-0.000344238
-0.00033855
-0.000332493
-0.000326053
-0.000319212
-0.000311953
-0.000304257
-0.000296105
-0.000287475
-0.000278344
-0.000268687
-0.000258476
-0.000247683
-0.000236277
-0.000224224
-0.000211488
-0.000198029
-0.000183807
-0.000168776
-0.000152886
-0.000136088
-0.000118323
-9.95309e-05
-7.9647e-05
-5.86007e-05
-3.63158e-05
-1.27106e-05
1.23032e-05
3.88203e-05
6.69426e-05