/*--------------------------------*- C++ -*----------------------------------*\
  =========                 |
  \\      /  F ield         | OpenFOAM: The Open Source CFD Toolbox
   \\    /   O peration     | Website:  https://openfoam.org
    \\  /    A nd           | Version:  8
     \\/     M anipulation  |
\*---------------------------------------------------------------------------*/
FoamFile
{
    version     2.0;
    format      ascii;
    class       surfaceScalarField;
    location    "34";
    object      phi;
}
// * * * * * * * * * * * * * * * * * * * * * * * * * * * * * * * * * * * * * //

dimensions      [0 3 -1 0 0 0 0];

internalField   nonuniform List<scalar> 
22960
(
-2.11058e-07
2.10877e-07
-7.19293e-07
5.08235e-07
-1.34752e-06
6.2823e-07
-2.01694e-06
6.69418e-07
-2.69563e-06
6.78686e-07
-3.37498e-06
6.79355e-07
-4.05399e-06
6.79004e-07
-4.73301e-06
6.79023e-07
-5.41245e-06
6.79439e-07
-6.09256e-06
6.80112e-07
-6.7735e-06
6.80942e-07
-7.45538e-06
6.81876e-07
-8.13826e-06
6.82882e-07
-8.8222e-06
6.83941e-07
-9.50724e-06
6.85041e-07
-1.01934e-05
6.86169e-07
-1.08807e-05
6.87313e-07
-1.15692e-05
6.88461e-07
-1.22588e-05
6.89601e-07
-1.29495e-05
6.90721e-07
-1.36413e-05
6.91808e-07
-1.43342e-05
6.92848e-07
-1.5028e-05
6.93827e-07
-1.57227e-05
6.9473e-07
-1.64183e-05
6.95543e-07
-1.71145e-05
6.96252e-07
-1.78114e-05
6.9684e-07
-1.85087e-05
6.97294e-07
-1.92063e-05
6.97601e-07
-1.9904e-05
6.97746e-07
-2.06017e-05
6.97719e-07
-2.12992e-05
6.97512e-07
-2.19963e-05
6.97117e-07
-2.26929e-05
6.96534e-07
-2.33886e-05
6.95765e-07
-2.40835e-05
6.94822e-07
-2.47772e-05
6.93723e-07
-2.54697e-05
6.92501e-07
-2.61609e-05
6.91203e-07
-2.68508e-05
6.89894e-07
-2.75395e-05
6.88666e-07
-2.82271e-05
6.87646e-07
-2.89141e-05
6.87002e-07
-2.96011e-05
6.86959e-07
-3.02889e-05
6.87819e-07
-3.09789e-05
6.89983e-07
-3.16728e-05
6.93986e-07
-3.23734e-05
7.00539e-07
-3.3084e-05
7.10581e-07
-3.38093e-05
7.2534e-07
-3.45557e-05
7.46384e-07
-3.53314e-05
7.75673e-07
-3.61471e-05
8.15693e-07
-3.70173e-05
8.70246e-07
-3.79686e-05
9.51283e-07
-3.90823e-05
1.11375e-06
-4.06207e-05
1.5384e-06
-4.31643e-05
2.54354e-06
-5.05555e-05
7.3912e-06
1.69939e-05
-6.75493e-05
-5.15212e-07
7.26089e-07
-1.5017e-06
1.49472e-06
-2.68654e-06
1.81307e-06
-3.94553e-06
1.9284e-06
-5.22799e-06
1.96115e-06
-6.51683e-06
1.9682e-06
-7.8071e-06
1.96927e-06
-9.09753e-06
1.96946e-06
-1.03879e-05
1.96976e-06
-1.1678e-05
1.97023e-06
-1.29678e-05
1.97081e-06
-1.42574e-05
1.97141e-06
-1.55465e-05
1.972e-06
-1.68351e-05
1.97255e-06
-1.81231e-05
1.97301e-06
-1.94103e-05
1.97337e-06
-2.06965e-05
1.97358e-06
-2.19817e-05
1.97363e-06
-2.32656e-05
1.97349e-06
-2.4548e-05
1.97311e-06
-2.58287e-05
1.97248e-06
-2.71074e-05
1.97155e-06
-2.83838e-05
1.9703e-06
-2.96578e-05
1.96869e-06
-3.09289e-05
1.96668e-06
-3.21969e-05
1.96425e-06
-3.34614e-05
1.96135e-06
-3.47221e-05
1.95795e-06
-3.59785e-05
1.95403e-06
-3.72303e-05
1.94956e-06
-3.84771e-05
1.94452e-06
-3.97185e-05
1.9389e-06
-4.09541e-05
1.93269e-06
-4.21835e-05
1.9259e-06
-4.34063e-05
1.91857e-06
-4.46222e-05
1.91074e-06
-4.5831e-05
1.90249e-06
-4.70324e-05
1.89393e-06
-4.82264e-05
1.88523e-06
-4.94131e-05
1.87659e-06
-5.05928e-05
1.86833e-06
-5.1766e-05
1.86084e-06
-5.29336e-05
1.85467e-06
-5.40972e-05
1.85053e-06
-5.52588e-05
1.84939e-06
-5.64213e-05
1.85253e-06
-5.75891e-05
1.86172e-06
-5.87679e-05
1.87937e-06
-5.99662e-05
1.90884e-06
-6.11957e-05
1.95486e-06
-6.24737e-05
2.02437e-06
-6.38258e-05
2.12776e-06
-6.52916e-05
2.28158e-06
-6.69359e-05
2.51454e-06
-6.88704e-05
2.88573e-06
-7.12899e-05
3.53329e-06
-7.4501e-05
4.74952e-06
-7.90672e-05
7.10971e-06
-8.48506e-05
1.31746e-05
2.17916e-05
-8.96483e-05
-6.436e-07
1.36969e-06
-1.83935e-06
2.69047e-06
-3.26371e-06
3.23744e-06
-4.77068e-06
3.43536e-06
-6.30368e-06
3.49415e-06
-7.84371e-06
3.50823e-06
-9.38503e-06
3.51059e-06
-1.0926e-05
3.51045e-06
-1.24662e-05
3.5099e-06
-1.40052e-05
3.50925e-06
-1.55429e-05
3.50849e-06
-1.7079e-05
3.50755e-06
-1.86134e-05
3.50639e-06
-2.01458e-05
3.50494e-06
-2.16759e-05
3.50316e-06
-2.32036e-05
3.50102e-06
-2.47285e-05
3.49845e-06
-2.62502e-05
3.49542e-06
-2.77686e-05
3.49188e-06
-2.92833e-05
3.48778e-06
-3.07939e-05
3.48306e-06
-3.23e-05
3.47769e-06
-3.38013e-05
3.4716e-06
-3.52973e-05
3.46473e-06
-3.67877e-05
3.45705e-06
-3.82719e-05
3.44848e-06
-3.97496e-05
3.43899e-06
-4.12202e-05
3.42852e-06
-4.26832e-05
3.41703e-06
-4.41381e-05
3.40449e-06
-4.55844e-05
3.39086e-06
-4.70217e-05
3.37615e-06
-4.84494e-05
3.36036e-06
-4.9867e-05
3.34352e-06
-5.12741e-05
3.32568e-06
-5.26703e-05
3.30695e-06
-5.40553e-05
3.28748e-06
-5.54288e-05
3.26748e-06
-5.67909e-05
3.24725e-06
-5.81415e-05
3.2272e-06
-5.9481e-05
3.20786e-06
-6.08101e-05
3.18996e-06
-6.21299e-05
3.17447e-06
-6.3442e-05
3.16267e-06
-6.47489e-05
3.15625e-06
-6.60539e-05
3.1575e-06
-6.73617e-05
3.16951e-06
-6.86788e-05
3.1965e-06
-7.00142e-05
3.24428e-06
-7.13805e-05
3.3211e-06
-7.27949e-05
3.43883e-06
-7.42824e-05
3.6152e-06
-7.58785e-05
3.87772e-06
-7.76361e-05
4.2721e-06
-7.96319e-05
4.88156e-06
-8.19623e-05
5.86364e-06
-8.47103e-05
7.49755e-06
-8.79257e-05
1.03251e-05
-9.0385e-05
1.5634e-05
2.24549e-05
-9.10483e-05
-6.90247e-07
2.05994e-06
-1.96791e-06
3.96813e-06
-3.48315e-06
4.75268e-06
-5.08166e-06
5.03387e-06
-6.70576e-06
5.11825e-06
-8.33659e-06
5.13906e-06
-9.96855e-06
5.14255e-06
-1.16e-05
5.14189e-06
-1.32303e-05
5.14018e-06
-1.4859e-05
5.138e-06
-1.64859e-05
5.13541e-06
-1.81107e-05
5.13235e-06
-1.97331e-05
5.12877e-06
-2.13528e-05
5.12461e-06
-2.29694e-05
5.11981e-06
-2.45827e-05
5.11431e-06
-2.61923e-05
5.10805e-06
-2.77979e-05
5.10098e-06
-2.9399e-05
5.09302e-06
-3.09954e-05
5.08411e-06
-3.25865e-05
5.07419e-06
-3.4172e-05
5.06318e-06
-3.57514e-05
5.051e-06
-3.73242e-05
5.03759e-06
-3.88901e-05
5.02288e-06
-4.04484e-05
5.00678e-06
-4.19986e-05
4.98924e-06
-4.35403e-05
4.97019e-06
-4.50729e-05
4.94958e-06
-4.65957e-05
4.92736e-06
-4.81084e-05
4.9035e-06
-4.96102e-05
4.87799e-06
-5.11007e-05
4.85085e-06
-5.25793e-05
4.82213e-06
-5.40455e-05
4.79192e-06
-5.5499e-05
4.76037e-06
-5.69392e-05
4.7277e-06
-5.83659e-05
4.69422e-06
-5.9779e-05
4.66035e-06
-6.11785e-05
4.62667e-06
-6.25646e-05
4.59396e-06
-6.39378e-05
4.56323e-06
-6.52992e-05
4.53583e-06
-6.66501e-05
4.51356e-06
-6.79926e-05
4.49879e-06
-6.93298e-05
4.49466e-06
-7.06657e-05
4.50541e-06
-7.2006e-05
4.53677e-06
-7.33583e-05
4.59659e-06
-7.4733e-05
4.69581e-06
-7.61441e-05
4.84993e-06
-7.76103e-05
5.08139e-06
-7.91561e-05
5.42354e-06
-8.08117e-05
5.92774e-06
-8.26066e-05
6.67647e-06
-8.45455e-05
7.80252e-06
-8.65609e-05
9.51293e-06
-8.83879e-05
1.21521e-05
-8.89604e-05
1.62064e-05
2.10508e-05
-8.75563e-05
-7.01783e-07
2.76172e-06
-2.00697e-06
5.27332e-06
-3.55298e-06
6.29869e-06
-5.18197e-06
6.66287e-06
-6.83583e-06
6.77211e-06
-8.49591e-06
6.79914e-06
-1.01569e-05
6.80351e-06
-1.18172e-05
6.80217e-06
-1.34762e-05
6.79918e-06
-1.51335e-05
6.79534e-06
-1.67888e-05
6.79075e-06
-1.84419e-05
6.78538e-06
-2.00923e-05
6.77917e-06
-2.17397e-05
6.77205e-06
-2.33839e-05
6.76396e-06
-2.50244e-05
6.75483e-06
-2.66609e-05
6.74459e-06
-2.82931e-05
6.73315e-06
-2.99205e-05
6.72044e-06
-3.15428e-05
6.70637e-06
-3.31594e-05
6.69085e-06
-3.47701e-05
6.67381e-06
-3.63742e-05
6.65514e-06
-3.79713e-05
6.63475e-06
-3.9561e-05
6.61255e-06
-4.11427e-05
6.58846e-06
-4.27158e-05
6.56237e-06
-4.42799e-05
6.53423e-06
-4.58342e-05
6.50395e-06
-4.73783e-05
6.47147e-06
-4.89116e-05
6.43677e-06
-5.04335e-05
6.39983e-06
-5.19433e-05
6.36067e-06
-5.34405e-05
6.31935e-06
-5.49246e-05
6.27598e-06
-5.63949e-05
6.23075e-06
-5.78512e-05
6.18393e-06
-5.92929e-05
6.13591e-06
-6.07197e-05
6.08722e-06
-6.21316e-05
6.03855e-06
-6.35285e-05
5.99088e-06
-6.49107e-05
5.94543e-06
-6.62788e-05
5.90387e-06
-6.76336e-05
5.86834e-06
-6.89765e-05
5.84171e-06
-7.03095e-05
5.82772e-06
-7.16355e-05
5.83133e-06
-7.29579e-05
5.85919e-06
-7.42815e-05
5.92023e-06
-7.56123e-05
6.02658e-06
-7.69573e-05
6.19495e-06
-7.83245e-05
6.44856e-06
-7.97211e-05
6.82017e-06
-8.11501e-05
7.35671e-06
-8.25996e-05
8.12594e-06
-8.40203e-05
9.22322e-06
-8.52866e-05
1.07793e-05
-8.61041e-05
1.29696e-05
-8.58016e-05
1.59039e-05
1.92632e-05
-8.4014e-05
-7.02682e-07
3.4644e-06
-2.01592e-06
6.58656e-06
-3.57148e-06
7.85425e-06
-5.21007e-06
8.30145e-06
-6.8731e-06
8.43514e-06
-8.54202e-06
8.46805e-06
-1.02116e-05
8.47311e-06
-1.18804e-05
8.471e-06
-1.3548e-05
8.46669e-06
-1.52138e-05
8.46116e-06
-1.68776e-05
8.45456e-06
-1.85391e-05
8.44686e-06
-2.01979e-05
8.43799e-06
-2.18537e-05
8.4279e-06
-2.35063e-05
8.41649e-06
-2.51551e-05
8.4037e-06
-2.68e-05
8.38942e-06
-2.84404e-05
8.37358e-06
-3.0076e-05
8.35607e-06
-3.17065e-05
8.33679e-06
-3.33312e-05
8.31564e-06
-3.49499e-05
8.2925e-06
-3.65621e-05
8.26728e-06
-3.81672e-05
8.23984e-06
-3.97647e-05
8.21009e-06
-4.13542e-05
8.17791e-06
-4.2935e-05
8.14319e-06
-4.45066e-05
8.10584e-06
-4.60684e-05
8.06577e-06
-4.76198e-05
8.0229e-06
-4.91602e-05
7.97718e-06
-5.0689e-05
7.9286e-06
-5.22055e-05
7.87715e-06
-5.37091e-05
7.82292e-06
-5.51991e-05
7.76601e-06
-5.6675e-05
7.70663e-06
-5.81361e-05
7.64509e-06
-5.9582e-05
7.5818e-06
-6.10122e-05
7.51737e-06
-6.24262e-05
7.45258e-06
-6.38238e-05
7.38849e-06
-6.52049e-05
7.32649e-06
-6.65694e-05
7.26841e-06
-6.79177e-05
7.2166e-06
-6.92501e-05
7.17417e-06
-7.05676e-05
7.14514e-06
-7.1871e-05
7.13477e-06
-7.31618e-05
7.14996e-06
-7.44413e-05
7.19979e-06
-7.5711e-05
7.29626e-06
-7.69713e-05
7.45529e-06
-7.82209e-05
7.69809e-06
-7.94536e-05
8.05288e-06
-8.0654e-05
8.55713e-06
-8.17877e-05
9.25963e-06
-8.27854e-05
1.02209e-05
-8.35168e-05
1.15107e-05
-8.37402e-05
1.3193e-05
-8.30881e-05
1.52518e-05
1.7491e-05
-8.13159e-05
-7.01577e-07
4.16598e-06
-2.01684e-06
7.90183e-06
-3.57537e-06
9.41278e-06
-5.21727e-06
9.94335e-06
-6.88353e-06
1.01014e-05
-8.55551e-06
1.014e-05
-1.02281e-05
1.01457e-05
-1.18998e-05
1.01428e-05
-1.35703e-05
1.01371e-05
-1.5239e-05
1.01299e-05
-1.69058e-05
1.01213e-05
-1.85703e-05
1.01113e-05
-2.02322e-05
1.00999e-05
-2.18911e-05
1.00869e-05
-2.35468e-05
1.00722e-05
-2.51989e-05
1.00558e-05
-2.6847e-05
1.00375e-05
-2.84908e-05
1.00174e-05
-3.01299e-05
9.99511e-06
-3.17638e-05
9.97069e-06
-3.33921e-05
9.94397e-06
-3.50144e-05
9.91482e-06
-3.66303e-05
9.88311e-06
-3.82391e-05
9.8487e-06
-3.98405e-05
9.81146e-06
-4.14338e-05
9.77126e-06
-4.30186e-05
9.72796e-06
-4.45942e-05
9.68144e-06
-4.616e-05
9.6316e-06
-4.77155e-05
9.57833e-06
-4.92598e-05
9.52157e-06
-5.07925e-05
9.46127e-06
-5.23128e-05
9.39743e-06
-5.382e-05
9.3301e-06
-5.53133e-05
9.25939e-06
-5.67922e-05
9.1855e-06
-5.82559e-05
9.10874e-06
-5.97036e-05
9.02953e-06
-6.11347e-05
8.9485e-06
-6.25486e-05
8.86645e-06
-6.39446e-05
8.78449e-06
-6.53221e-05
8.70403e-06
-6.66807e-05
8.62695e-06
-6.80197e-05
8.55566e-06
-6.93388e-05
8.49326e-06
-7.06374e-05
8.44375e-06
-7.19149e-05
8.41228e-06
-7.31704e-05
8.40545e-06
-7.44024e-05
8.43173e-06
-7.56081e-05
8.50199e-06
-7.67829e-05
8.63008e-06
-7.79184e-05
8.83358e-06
-7.9e-05
9.13452e-06
-8.00027e-05
9.55982e-06
-8.08839e-05
1.01409e-05
-8.15741e-05
1.0911e-05
-8.19627e-05
1.18993e-05
-8.18835e-05
1.31139e-05
-8.11332e-05
1.45014e-05
1.59161e-05
-7.95583e-05
-7.00407e-07
4.86639e-06
-2.01611e-06
9.21753e-06
-3.57591e-06
1.09726e-05
-5.21952e-06
1.1587e-05
-6.88756e-06
1.17694e-05
-8.56129e-06
1.18138e-05
-1.02356e-05
1.182e-05
-1.1909e-05
1.18162e-05
-1.35812e-05
1.18093e-05
-1.52517e-05
1.18004e-05
-1.69203e-05
1.17899e-05
-1.85867e-05
1.17777e-05
-2.02505e-05
1.17637e-05
-2.19115e-05
1.17478e-05
-2.35693e-05
1.173e-05
-2.52236e-05
1.17101e-05
-2.68741e-05
1.1688e-05
-2.85203e-05
1.16636e-05
-3.01619e-05
1.16367e-05
-3.17984e-05
1.16072e-05
-3.34295e-05
1.15751e-05
-3.50547e-05
1.154e-05
-3.66736e-05
1.1502e-05
-3.82856e-05
1.14607e-05
-3.98902e-05
1.14161e-05
-4.14869e-05
1.1368e-05
-4.30752e-05
1.13162e-05
-4.46543e-05
1.12606e-05
-4.62238e-05
1.12011e-05
-4.7783e-05
1.11375e-05
-4.93311e-05
1.10697e-05
-5.08675e-05
1.09977e-05
-5.23915e-05
1.09214e-05
-5.39022e-05
1.08408e-05
-5.53989e-05
1.07561e-05
-5.68807e-05
1.06674e-05
-5.83469e-05
1.05749e-05
-5.97965e-05
1.04791e-05
-6.12287e-05
1.03807e-05
-6.26425e-05
1.02802e-05
-6.40369e-05
1.01789e-05
-6.54109e-05
1.00781e-05
-6.67635e-05
9.97951e-06
-6.80934e-05
9.88553e-06
-6.93991e-05
9.79905e-06
-7.06792e-05
9.72379e-06
-7.19313e-05
9.66445e-06
-7.31528e-05
9.62692e-06
-7.43397e-05
9.61858e-06
-7.54862e-05
9.64854e-06
-7.65841e-05
9.72798e-06
-7.76209e-05
9.87033e-06
-7.85776e-05
1.00913e-05
-7.9426e-05
1.04082e-05
-8.01241e-05
1.0839e-05
-8.0611e-05
1.1398e-05
-8.08021e-05
1.20904e-05
-8.05881e-05
1.28998e-05
-7.98542e-05
1.37676e-05
1.45825e-05
-7.85206e-05
-6.99396e-07
5.56578e-06
-2.01522e-06
1.05334e-05
-3.57598e-06
1.25333e-05
-5.22102e-06
1.3232e-05
-6.89064e-06
1.34391e-05
-8.56598e-06
1.34891e-05
-1.02419e-05
1.34959e-05
-1.1917e-05
1.34913e-05
-1.35908e-05
1.34831e-05
-1.52631e-05
1.34727e-05
-1.69335e-05
1.34603e-05
-1.86017e-05
1.3446e-05
-2.02675e-05
1.34295e-05
-2.19305e-05
1.34109e-05
-2.35905e-05
1.339e-05
-2.52471e-05
1.33667e-05
-2.68999e-05
1.33408e-05
-2.85486e-05
1.33123e-05
-3.01928e-05
1.32809e-05
-3.18322e-05
1.32466e-05
-3.34662e-05
1.32091e-05
-3.50945e-05
1.31683e-05
-3.67166e-05
1.31241e-05
-3.8332e-05
1.30761e-05
-3.99402e-05
1.30243e-05
-4.15406e-05
1.29684e-05
-4.31327e-05
1.29083e-05
-4.47159e-05
1.28438e-05
-4.62895e-05
1.27747e-05
-4.78529e-05
1.27008e-05
-4.94053e-05
1.26221e-05
-5.0946e-05
1.25384e-05
-5.24742e-05
1.24496e-05
-5.3989e-05
1.23557e-05
-5.54897e-05
1.22568e-05
-5.69753e-05
1.21529e-05
-5.84447e-05
1.20443e-05
-5.9897e-05
1.19314e-05
-6.1331e-05
1.18147e-05
-6.27455e-05
1.16948e-05
-6.41393e-05
1.15727e-05
-6.55109e-05
1.14496e-05
-6.68586e-05
1.13272e-05
-6.81807e-05
1.12076e-05
-6.94748e-05
1.10932e-05
-7.07385e-05
1.09874e-05
-7.19682e-05
1.08942e-05
-7.31598e-05
1.08185e-05
-7.43075e-05
1.07663e-05
-7.54038e-05
1.07448e-05
-7.64381e-05
1.07623e-05
-7.7396e-05
1.08282e-05
-7.82574e-05
1.09527e-05
-7.89947e-05
1.11455e-05
-7.95703e-05
1.14146e-05
-7.99349e-05
1.17626e-05
-8.00267e-05
1.21821e-05
-7.97749e-05
1.2648e-05
-7.91145e-05
1.31073e-05
1.34771e-05
-7.80091e-05
-6.98474e-07
6.26426e-06
-2.01442e-06
1.18493e-05
-3.57618e-06
1.40951e-05
-5.22273e-06
1.48786e-05
-6.89404e-06
1.51104e-05
-8.57112e-06
1.51662e-05
-1.02488e-05
1.51735e-05
-1.19257e-05
1.51682e-05
-1.36014e-05
1.51588e-05
-1.52756e-05
1.51469e-05
-1.6948e-05
1.51327e-05
-1.86184e-05
1.51163e-05
-2.02863e-05
1.50975e-05
-2.19517e-05
1.50762e-05
-2.36141e-05
1.50524e-05
-2.52732e-05
1.50258e-05
-2.69287e-05
1.49963e-05
-2.85803e-05
1.49638e-05
-3.02275e-05
1.49281e-05
-3.187e-05
1.48891e-05
-3.35074e-05
1.48465e-05
-3.51392e-05
1.48001e-05
-3.67649e-05
1.47498e-05
-3.83842e-05
1.46954e-05
-3.99964e-05
1.46365e-05
-4.16011e-05
1.45731e-05
-4.31976e-05
1.45048e-05
-4.47854e-05
1.44316e-05
-4.63638e-05
1.4353e-05
-4.7932e-05
1.42691e-05
-4.94894e-05
1.41795e-05
-5.10351e-05
1.40841e-05
-5.25684e-05
1.39828e-05
-5.40883e-05
1.38756e-05
-5.55938e-05
1.37623e-05
-5.7084e-05
1.36431e-05
-5.85578e-05
1.35181e-05
-6.00138e-05
1.33875e-05
-6.14508e-05
1.32517e-05
-6.28675e-05
1.31114e-05
-6.4262e-05
1.29672e-05
-6.56327e-05
1.28203e-05
-6.69775e-05
1.2672e-05
-6.8294e-05
1.2524e-05
-6.95793e-05
1.23785e-05
-7.08299e-05
1.22381e-05
-7.20418e-05
1.2106e-05
-7.32094e-05
1.19861e-05
-7.4326e-05
1.1883e-05
-7.5383e-05
1.18018e-05
-7.63688e-05
1.17481e-05
-7.72686e-05
1.1728e-05
-7.8063e-05
1.1747e-05
-7.87269e-05
1.18094e-05
-7.92287e-05
1.19163e-05
-7.95298e-05
1.20637e-05
-7.95861e-05
1.22384e-05
-7.9352e-05
1.24139e-05
-7.8791e-05
1.25464e-05
1.25743e-05
-7.78883e-05
-6.9756e-07
6.96182e-06
-2.01367e-06
1.31654e-05
-3.57659e-06
1.5658e-05
-5.2248e-06
1.65268e-05
-6.89797e-06
1.67835e-05
-8.577e-06
1.68452e-05
-1.02567e-05
1.68532e-05
-1.19357e-05
1.68472e-05
-1.36135e-05
1.68366e-05
-1.52898e-05
1.68233e-05
-1.69645e-05
1.68074e-05
-1.86372e-05
1.6789e-05
-2.03077e-05
1.6768e-05
-2.19756e-05
1.67442e-05
-2.36408e-05
1.67175e-05
-2.53028e-05
1.66878e-05
-2.69613e-05
1.66549e-05
-2.8616e-05
1.66186e-05
-3.02666e-05
1.65787e-05
-3.19127e-05
1.65351e-05
-3.35538e-05
1.64876e-05
-3.51896e-05
1.64359e-05
-3.68195e-05
1.63798e-05
-3.84432e-05
1.6319e-05
-4.006e-05
1.62534e-05
-4.16695e-05
1.61826e-05
-4.3271e-05
1.61064e-05
-4.4864e-05
1.60246e-05
-4.64478e-05
1.59368e-05
-4.80217e-05
1.58429e-05
-4.95848e-05
1.57426e-05
-5.11364e-05
1.56357e-05
-5.26757e-05
1.55221e-05
-5.42015e-05
1.54015e-05
-5.5713e-05
1.52738e-05
-5.7209e-05
1.51391e-05
-5.86882e-05
1.49973e-05
-6.01493e-05
1.48486e-05
-6.15908e-05
1.46933e-05
-6.30111e-05
1.45317e-05
-6.44083e-05
1.43644e-05
-6.57803e-05
1.41923e-05
-6.71246e-05
1.40163e-05
-6.84384e-05
1.38378e-05
-6.97183e-05
1.36584e-05
-7.09604e-05
1.34802e-05
-7.21598e-05
1.33054e-05
-7.33104e-05
1.31368e-05
-7.44051e-05
1.29776e-05
-7.54344e-05
1.28311e-05
-7.63871e-05
1.27008e-05
-7.72486e-05
1.25895e-05
-7.80012e-05
1.24996e-05
-7.86231e-05
1.24313e-05
-7.90885e-05
1.23817e-05
-7.93679e-05
1.23431e-05
-7.94299e-05
1.23004e-05
-7.92453e-05
1.22293e-05
-7.87933e-05
1.20944e-05
1.185e-05
-7.8069e-05
-6.96604e-07
7.65842e-06
-2.01294e-06
1.44817e-05
-3.57716e-06
1.72222e-05
-5.22722e-06
1.81768e-05
-6.90243e-06
1.84587e-05
-8.58362e-06
1.85264e-05
-1.02655e-05
1.85351e-05
-1.19468e-05
1.85285e-05
-1.36269e-05
1.85168e-05
-1.53057e-05
1.85021e-05
-1.69829e-05
1.84846e-05
-1.86583e-05
1.84643e-05
-2.03315e-05
1.84412e-05
-2.20024e-05
1.8415e-05
-2.36705e-05
1.83857e-05
-2.53357e-05
1.8353e-05
-2.69976e-05
1.83168e-05
-2.8656e-05
1.82769e-05
-3.03103e-05
1.82331e-05
-3.19603e-05
1.81852e-05
-3.36056e-05
1.81329e-05
-3.52458e-05
1.80761e-05
-3.68804e-05
1.80144e-05
-3.85089e-05
1.79475e-05
-4.01309e-05
1.78753e-05
-4.17457e-05
1.77975e-05
-4.33529e-05
1.77136e-05
-4.49518e-05
1.76235e-05
-4.65418e-05
1.75267e-05
-4.8122e-05
1.74231e-05
-4.96917e-05
1.73124e-05
-5.12501e-05
1.71941e-05
-5.27963e-05
1.70682e-05
-5.43291e-05
1.69343e-05
-5.58477e-05
1.67923e-05
-5.73506e-05
1.6642e-05
-5.88367e-05
1.64833e-05
-6.03044e-05
1.63163e-05
-6.17521e-05
1.6141e-05
-6.3178e-05
1.59576e-05
-6.45799e-05
1.57664e-05
-6.59556e-05
1.5568e-05
-6.73023e-05
1.5363e-05
-6.86169e-05
1.51524e-05
-6.98956e-05
1.49371e-05
-7.1134e-05
1.47186e-05
-7.2327e-05
1.44984e-05
-7.34683e-05
1.42781e-05
-7.45502e-05
1.40596e-05
-7.55637e-05
1.38447e-05
-7.64977e-05
1.36347e-05
-7.73389e-05
1.34307e-05
-7.80714e-05
1.32321e-05
-7.86768e-05
1.30367e-05
-7.91343e-05
1.28392e-05
-7.94215e-05
1.26303e-05
-7.95162e-05
1.23951e-05
-7.93991e-05
1.21122e-05
-7.90582e-05
1.17534e-05
1.12847e-05
-7.84929e-05
-6.95581e-07
8.354e-06
-2.01218e-06
1.57983e-05
-3.57785e-06
1.87879e-05
-5.22993e-06
1.98289e-05
-6.9074e-06
2.01362e-05
-8.59094e-06
2.02099e-05
-1.02753e-05
2.02194e-05
-1.1959e-05
2.02122e-05
-1.36418e-05
2.01995e-05
-1.53233e-05
2.01835e-05
-1.70032e-05
2.01646e-05
-1.86815e-05
2.01426e-05
-2.03578e-05
2.01175e-05
-2.20318e-05
2.0089e-05
-2.37033e-05
2.00572e-05
-2.5372e-05
2.00217e-05
-2.70376e-05
1.99824e-05
-2.86998e-05
1.99391e-05
-3.03583e-05
1.98915e-05
-3.20127e-05
1.98395e-05
-3.36625e-05
1.97828e-05
-3.53076e-05
1.97211e-05
-3.69473e-05
1.96541e-05
-3.85812e-05
1.95815e-05
-4.02088e-05
1.9503e-05
-4.18297e-05
1.94183e-05
-4.34432e-05
1.93271e-05
-4.50486e-05
1.92289e-05
-4.66454e-05
1.91235e-05
-4.82328e-05
1.90105e-05
-4.981e-05
1.88895e-05
-5.13761e-05
1.87602e-05
-5.29302e-05
1.86223e-05
-5.44711e-05
1.84753e-05
-5.59979e-05
1.83191e-05
-5.75092e-05
1.81533e-05
-5.90036e-05
1.79777e-05
-6.04795e-05
1.77922e-05
-6.19353e-05
1.75967e-05
-6.33688e-05
1.73911e-05
-6.4778e-05
1.71755e-05
-6.61601e-05
1.69502e-05
-6.75124e-05
1.67153e-05
-6.88315e-05
1.64714e-05
-7.01134e-05
1.6219e-05
-7.13535e-05
1.59587e-05
-7.25465e-05
1.56914e-05
-7.3686e-05
1.54176e-05
-7.47646e-05
1.51382e-05
-7.57735e-05
1.48535e-05
-7.67022e-05
1.45635e-05
-7.75388e-05
1.42673e-05
-7.82694e-05
1.39628e-05
-7.88787e-05
1.3646e-05
-7.935e-05
1.33105e-05
-7.96661e-05
1.29464e-05
-7.9811e-05
1.254e-05
-7.97718e-05
1.2073e-05
-7.95412e-05
1.15228e-05
1.08638e-05
-7.91202e-05
-6.94472e-07
9.04847e-06
-2.01136e-06
1.71152e-05
-3.57861e-06
2.03552e-05
-5.23289e-06
2.14832e-05
-6.91281e-06
2.18161e-05
-8.5989e-06
2.1896e-05
-1.02859e-05
2.19064e-05
-1.19723e-05
2.18987e-05
-1.36579e-05
2.18851e-05
-1.53423e-05
2.18679e-05
-1.70253e-05
2.18476e-05
-1.87067e-05
2.1824e-05
-2.03862e-05
2.1797e-05
-2.20637e-05
2.17665e-05
-2.37388e-05
2.17323e-05
-2.54114e-05
2.16942e-05
-2.7081e-05
2.1652e-05
-2.87474e-05
2.16055e-05
-3.04104e-05
2.15545e-05
-3.20695e-05
2.14986e-05
-3.37244e-05
2.14377e-05
-3.53747e-05
2.13714e-05
-3.70199e-05
2.12993e-05
-3.86598e-05
2.12213e-05
-4.02936e-05
2.11369e-05
-4.1921e-05
2.10457e-05
-4.35414e-05
2.09474e-05
-4.51541e-05
2.08416e-05
-4.67585e-05
2.07279e-05
-4.83539e-05
2.06059e-05
-4.99394e-05
2.0475e-05
-5.15141e-05
2.0335e-05
-5.30772e-05
2.01853e-05
-5.46274e-05
2.00256e-05
-5.61637e-05
1.98554e-05
-5.76848e-05
1.96743e-05
-5.91891e-05
1.9482e-05
-6.0675e-05
1.92782e-05
-6.21407e-05
1.90624e-05
-6.35842e-05
1.88346e-05
-6.50031e-05
1.85944e-05
-6.63947e-05
1.83418e-05
-6.7756e-05
1.80766e-05
-6.90835e-05
1.77989e-05
-7.03732e-05
1.75087e-05
-7.16205e-05
1.7206e-05
-7.28199e-05
1.68908e-05
-7.39653e-05
1.6563e-05
-7.50494e-05
1.62223e-05
-7.60639e-05
1.5868e-05
-7.69994e-05
1.5499e-05
-7.78451e-05
1.5113e-05
-7.85891e-05
1.47068e-05
-7.92186e-05
1.42755e-05
-7.97201e-05
1.3812e-05
-8.00803e-05
1.33067e-05
-8.02875e-05
1.27472e-05
-8.03324e-05
1.21179e-05
-8.02105e-05
1.14009e-05
1.05763e-05
-7.99231e-05
-6.93267e-07
9.74174e-06
-2.01047e-06
1.84324e-05
-3.57941e-06
2.19241e-05
-5.23605e-06
2.31398e-05
-6.9186e-06
2.34987e-05
-8.60744e-06
2.35849e-05
-1.02972e-05
2.35962e-05
-1.19866e-05
2.35881e-05
-1.36752e-05
2.35736e-05
-1.53627e-05
2.35554e-05
-1.70489e-05
2.35338e-05
-1.87337e-05
2.35088e-05
-2.04168e-05
2.34801e-05
-2.2098e-05
2.34477e-05
-2.3777e-05
2.34113e-05
-2.54536e-05
2.33708e-05
-2.71276e-05
2.3326e-05
-2.87986e-05
2.32765e-05
-3.04663e-05
2.32222e-05
-3.21305e-05
2.31628e-05
-3.37908e-05
2.30979e-05
-3.54468e-05
2.30273e-05
-3.70981e-05
2.29506e-05
-3.87443e-05
2.28675e-05
-4.03849e-05
2.27775e-05
-4.20194e-05
2.26803e-05
-4.36473e-05
2.25753e-05
-4.5268e-05
2.24623e-05
-4.68807e-05
2.23407e-05
-4.84848e-05
2.221e-05
-5.00795e-05
2.20697e-05
-5.16639e-05
2.19194e-05
-5.3237e-05
2.17584e-05
-5.47977e-05
2.15863e-05
-5.63448e-05
2.14025e-05
-5.78771e-05
2.12066e-05
-5.93929e-05
2.09979e-05
-6.08907e-05
2.0776e-05
-6.23686e-05
2.05403e-05
-6.38243e-05
2.02904e-05
-6.52556e-05
2.00257e-05
-6.66597e-05
1.97459e-05
-6.80336e-05
1.94505e-05
-6.93736e-05
1.9139e-05
-7.06758e-05
1.88109e-05
-7.19356e-05
1.84658e-05
-7.31477e-05
1.81029e-05
-7.43062e-05
1.77214e-05
-7.54041e-05
1.73202e-05
-7.64339e-05
1.68978e-05
-7.73868e-05
1.64519e-05
-7.82535e-05
1.59796e-05
-7.90235e-05
1.54769e-05
-7.96863e-05
1.49382e-05
-8.02306e-05
1.43564e-05
-8.06463e-05
1.37224e-05
-8.09242e-05
1.3025e-05
-8.10574e-05
1.22512e-05
-8.10428e-05
1.13862e-05
1.04146e-05
-8.08811e-05
-6.91954e-07
1.04337e-05
-2.00946e-06
1.97499e-05
-3.5802e-06
2.34948e-05
-5.23937e-06
2.4799e-05
-6.92472e-06
2.5184e-05
-8.61647e-06
2.52766e-05
-1.03093e-05
2.5289e-05
-1.20018e-05
2.52806e-05
-1.36935e-05
2.52654e-05
-1.53843e-05
2.52463e-05
-1.7074e-05
2.52235e-05
-1.87624e-05
2.51971e-05
-2.04493e-05
2.5167e-05
-2.21344e-05
2.51328e-05
-2.38176e-05
2.50945e-05
-2.54986e-05
2.50518e-05
-2.71771e-05
2.50045e-05
-2.8853e-05
2.49524e-05
-3.05259e-05
2.48951e-05
-3.21955e-05
2.48324e-05
-3.38615e-05
2.4764e-05
-3.55236e-05
2.46894e-05
-3.71814e-05
2.46084e-05
-3.88344e-05
2.45205e-05
-4.04823e-05
2.44254e-05
-4.21245e-05
2.43225e-05
-4.37605e-05
2.42114e-05
-4.53898e-05
2.40915e-05
-4.70116e-05
2.39625e-05
-4.86253e-05
2.38237e-05
-5.023e-05
2.36745e-05
-5.1825e-05
2.35143e-05
-5.34092e-05
2.33426e-05
-5.49816e-05
2.31587e-05
-5.65409e-05
2.29619e-05
-5.80859e-05
2.27515e-05
-5.9615e-05
2.2527e-05
-6.11265e-05
2.22875e-05
-6.26186e-05
2.20323e-05
-6.4089e-05
2.17608e-05
-6.55355e-05
2.14722e-05
-6.69552e-05
2.11656e-05
-6.83452e-05
2.08404e-05
-6.97018e-05
2.04956e-05
-7.10211e-05
2.01303e-05
-7.22988e-05
1.97434e-05
-7.35296e-05
1.93337e-05
-7.47079e-05
1.88997e-05
-7.58274e-05
1.84397e-05
-7.6881e-05
1.79513e-05
-7.78608e-05
1.74318e-05
-7.87585e-05
1.68774e-05
-7.95653e-05
1.62836e-05
-8.02719e-05
1.56448e-05
-8.08693e-05
1.49538e-05
-8.13491e-05
1.42021e-05
-8.1704e-05
1.33799e-05
-8.19286e-05
1.24759e-05
-8.20202e-05
1.14778e-05
1.03735e-05
-8.19791e-05
-6.90525e-07
1.11242e-05
-2.00833e-06
2.10677e-05
-3.58096e-06
2.50675e-05
-5.24279e-06
2.64608e-05
-6.93109e-06
2.68723e-05
-8.62594e-06
2.69715e-05
-1.03219e-05
2.6985e-05
-1.20177e-05
2.69763e-05
-1.37128e-05
2.69606e-05
-1.54071e-05
2.69406e-05
-1.71005e-05
2.69169e-05
-1.87927e-05
2.68893e-05
-2.04835e-05
2.68578e-05
-2.21728e-05
2.68221e-05
-2.38603e-05
2.6782e-05
-2.55459e-05
2.67374e-05
-2.72293e-05
2.6688e-05
-2.89103e-05
2.66334e-05
-3.05887e-05
2.65735e-05
-3.22641e-05
2.65078e-05
-3.39362e-05
2.64361e-05
-3.56047e-05
2.6358e-05
-3.72694e-05
2.62731e-05
-3.89297e-05
2.61809e-05
-4.05853e-05
2.6081e-05
-4.22358e-05
2.59729e-05
-4.38805e-05
2.58561e-05
-4.5519e-05
2.573e-05
-4.71506e-05
2.55941e-05
-4.87746e-05
2.54477e-05
-5.03904e-05
2.52902e-05
-5.19969e-05
2.51209e-05
-5.35933e-05
2.4939e-05
-5.51786e-05
2.47439e-05
-5.67515e-05
2.45348e-05
-5.83107e-05
2.43107e-05
-5.98547e-05
2.4071e-05
-6.13818e-05
2.38147e-05
-6.28903e-05
2.35408e-05
-6.43779e-05
2.32484e-05
-6.58422e-05
2.29366e-05
-6.72807e-05
2.26041e-05
-6.86902e-05
2.22499e-05
-7.00674e-05
2.18728e-05
-7.14084e-05
2.14713e-05
-7.2709e-05
2.10439e-05
-7.39642e-05
2.0589e-05
-7.51688e-05
2.01044e-05
-7.63169e-05
1.95878e-05
-7.7402e-05
1.90364e-05
-7.8417e-05
1.84468e-05
-7.93546e-05
1.7815e-05
-8.0207e-05
1.7136e-05
-8.09664e-05
1.64041e-05
-8.1625e-05
1.56124e-05
-8.21759e-05
1.4753e-05
-8.26129e-05
1.38169e-05
-8.29316e-05
1.27945e-05
-8.31292e-05
1.16754e-05
1.04496e-05
-8.32053e-05
-6.88969e-07
1.18132e-05
-2.00704e-06
2.23858e-05
-3.58164e-06
2.66421e-05
-5.24626e-06
2.81255e-05
-6.93766e-06
2.85637e-05
-8.63574e-06
2.86696e-05
-1.03351e-05
2.86843e-05
-1.20342e-05
2.86755e-05
-1.37329e-05
2.86592e-05
-1.54309e-05
2.86386e-05
-1.71281e-05
2.8614e-05
-1.88243e-05
2.85855e-05
-2.05192e-05
2.85528e-05
-2.22129e-05
2.85158e-05
-2.3905e-05
2.84742e-05
-2.55955e-05
2.84278e-05
-2.7284e-05
2.83765e-05
-2.89704e-05
2.83198e-05
-3.06544e-05
2.82575e-05
-3.23359e-05
2.81892e-05
-3.40144e-05
2.81147e-05
-3.56898e-05
2.80334e-05
-3.73617e-05
2.7945e-05
-3.90298e-05
2.78489e-05
-4.06936e-05
2.77448e-05
-4.23527e-05
2.7632e-05
-4.40068e-05
2.75101e-05
-4.56551e-05
2.73784e-05
-4.72972e-05
2.72362e-05
-4.89324e-05
2.70829e-05
-5.05599e-05
2.69177e-05
-5.2179e-05
2.674e-05
-5.37887e-05
2.65487e-05
-5.5388e-05
2.63432e-05
-5.69758e-05
2.61225e-05
-5.85507e-05
2.58857e-05
-6.01113e-05
2.56316e-05
-6.1656e-05
2.53594e-05
-6.31829e-05
2.50677e-05
-6.46901e-05
2.47555e-05
-6.6175e-05
2.44215e-05
-6.76353e-05
2.40643e-05
-6.90678e-05
2.36825e-05
-7.04694e-05
2.32744e-05
-7.18364e-05
2.28383e-05
-7.31646e-05
2.23722e-05
-7.44496e-05
2.1874e-05
-7.56864e-05
2.13412e-05
-7.68696e-05
2.07709e-05
-7.79931e-05
2.01599e-05
-7.90508e-05
1.95045e-05
-8.00359e-05
1.88001e-05
-8.09417e-05
1.80418e-05
-8.17613e-05
1.72237e-05
-8.24881e-05
1.63392e-05
-8.31159e-05
1.53808e-05
-8.36395e-05
1.43405e-05
-8.40547e-05
1.32097e-05
-8.43588e-05
1.19795e-05
1.06414e-05
-8.45506e-05
-6.87278e-07
1.25005e-05
-2.00558e-06
2.37041e-05
-3.58221e-06
2.82187e-05
-5.24973e-06
2.9793e-05
-6.94436e-06
3.02584e-05
-8.64582e-06
3.0371e-05
-1.03486e-05
3.03871e-05
-1.20514e-05
3.03783e-05
-1.37538e-05
3.03616e-05
-1.54556e-05
3.03404e-05
-1.71567e-05
3.03152e-05
-1.8857e-05
3.02858e-05
-2.05563e-05
3.02521e-05
-2.22546e-05
3.0214e-05
-2.39515e-05
3.01711e-05
-2.56469e-05
3.01233e-05
-2.73408e-05
3.00703e-05
-2.90328e-05
3.00118e-05
-3.07228e-05
2.99475e-05
-3.24106e-05
2.9877e-05
-3.40959e-05
2.98e-05
-3.57784e-05
2.97159e-05
-3.74579e-05
2.96245e-05
-3.91341e-05
2.95251e-05
-4.08065e-05
2.94172e-05
-4.24749e-05
2.93004e-05
-4.41387e-05
2.91739e-05
-4.57975e-05
2.90372e-05
-4.74507e-05
2.88894e-05
-4.90978e-05
2.87299e-05
-5.07379e-05
2.85579e-05
-5.23705e-05
2.83725e-05
-5.39945e-05
2.81728e-05
-5.5609e-05
2.79578e-05
-5.72129e-05
2.77265e-05
-5.8805e-05
2.74778e-05
-6.03839e-05
2.72105e-05
-6.1948e-05
2.69234e-05
-6.34955e-05
2.66152e-05
-6.50245e-05
2.62845e-05
-6.65327e-05
2.59297e-05
-6.80176e-05
2.55493e-05
-6.94765e-05
2.51413e-05
-7.09062e-05
2.4704e-05
-7.23032e-05
2.42353e-05
-7.36637e-05
2.37327e-05
-7.49835e-05
2.31938e-05
-7.62579e-05
2.26156e-05
-7.7482e-05
2.1995e-05
-7.86503e-05
2.13282e-05
-7.97571e-05
2.06113e-05
-8.07965e-05
1.98396e-05
-8.17624e-05
1.90077e-05
-8.26488e-05
1.81101e-05
-8.34497e-05
1.71401e-05
-8.41596e-05
1.60908e-05
-8.47738e-05
1.49547e-05
-8.52883e-05
1.37242e-05
-8.57001e-05
1.23913e-05
1.09486e-05
-8.60073e-05
-6.85441e-07
1.31859e-05
-2.00392e-06
2.50226e-05
-3.58263e-06
2.97974e-05
-5.25314e-06
3.14635e-05
-6.95112e-06
3.19563e-05
-8.65607e-06
3.2076e-05
-1.03625e-05
3.20934e-05
-1.20689e-05
3.20848e-05
-1.37751e-05
3.20678e-05
-1.54809e-05
3.20462e-05
-1.71862e-05
3.20204e-05
-1.88908e-05
3.19904e-05
-2.05946e-05
3.19559e-05
-2.22975e-05
3.19169e-05
-2.39994e-05
3.1873e-05
-2.57e-05
3.1824e-05
-2.73994e-05
3.17697e-05
-2.90973e-05
3.17097e-05
-3.07935e-05
3.16437e-05
-3.24878e-05
3.15714e-05
-3.41801e-05
3.14922e-05
-3.587e-05
3.14059e-05
-3.75575e-05
3.13119e-05
-3.92421e-05
3.12097e-05
-4.09236e-05
3.10987e-05
-4.26016e-05
3.09784e-05
-4.42757e-05
3.0848e-05
-4.59455e-05
3.0707e-05
-4.76105e-05
3.05544e-05
-4.92701e-05
3.03895e-05
-5.09237e-05
3.02115e-05
-5.25705e-05
3.00193e-05
-5.42098e-05
2.98121e-05
-5.58407e-05
2.95886e-05
-5.7462e-05
2.93478e-05
-5.90727e-05
2.90885e-05
-6.06714e-05
2.88092e-05
-6.22567e-05
2.85087e-05
-6.38267e-05
2.81853e-05
-6.53798e-05
2.78376e-05
-6.69138e-05
2.74637e-05
-6.84262e-05
2.70617e-05
-6.99145e-05
2.66296e-05
-7.13757e-05
2.61653e-05