/*--------------------------------*- C++ -*----------------------------------*\
  =========                 |
  \\      /  F ield         | OpenFOAM: The Open Source CFD Toolbox
   \\    /   O peration     | Website:  https://openfoam.org
    \\  /    A nd           | Version:  8
     \\/     M anipulation  |
\*---------------------------------------------------------------------------*/
FoamFile
{
    version     2.0;
    format      ascii;
    class       volScalarField;
    location    "0.37";
    object      p;
}
// * * * * * * * * * * * * * * * * * * * * * * * * * * * * * * * * * * * * * //

dimensions      [0 2 -2 0 0 0 0];

internalField   nonuniform List<scalar> 
400
(
4.21271e-06
-0.00582236
-0.0129596
-0.0184115
-0.0204288
-0.018235
-0.0117706
-0.00148073
0.0118398
0.027151
0.0432457
0.0588238
0.072579
0.0833086
0.0900529
0.0922672
0.0900264
0.0842449
0.0768823
0.0710691
0.00578278
-0.000215944
-0.00580142
-0.00953981
-0.0105961
-0.00842989
-0.00296724
0.00547661
0.0163051
0.0287135
0.0417512
0.054387
0.0655873
0.0744107
0.0801211
0.0823167
0.0810785
0.0770564
0.0712761
0.0653202
0.0133365
0.00503541
-0.000993273
-0.00442086
-0.00527057
-0.00326158
0.0016046
0.0090297
0.018504
0.029351
0.040767
0.051871
0.0617697
0.0696375
0.0748082
0.0768795
0.0758433
0.0720879
0.0658078
0.0575383
0.0201402
0.00869727
0.00122754
-0.00266661
-0.00372006
-0.00188322
0.00273332
0.00978651
0.0187822
0.0290968
0.0399936
0.0506556
0.0602344
0.0679174
0.0730047
0.0750032
0.0737678
0.0694584
0.0616057
0.0501058
0.0245024
0.00977419
0.000591264
-0.00398517
-0.00530031
-0.00350533
0.00117673
0.00833649
0.0174638
0.0279509
0.0390868
0.0500717
0.0600506
0.0681668
0.0736281
0.0757996
0.0743711
0.0692923
0.0595286
0.0445408
0.0251782
0.00715108
-0.00380055
-0.00905547
-0.0105102
-0.0084979
-0.00335468
0.00443153
0.0143154
0.025681
0.0378158
0.0499053
0.0610501
0.0703051
0.0767367
0.079519
0.0781413
0.0723362
0.0605425
0.0418939
0.021094
-0.000261138
-0.0129329
-0.0187075
-0.0200277
-0.0174117
-0.011316
-0.00231727
0.00899283
0.0219785
0.035912
0.0499467
0.0631145
0.0743476
0.0825242
0.0865719
0.0857232
0.0794499
0.0656237
0.0430757
0.0111438
-0.0136166
-0.0278731
-0.0338521
-0.0346012
-0.0308549
-0.0232101
-0.0123424
0.0011077
0.0164867
0.0330553
0.0499363
0.066086
0.0802925
0.0912034
0.0974327
0.097873
0.091639
0.0758996
0.0491204
-0.00596542
-0.0342643
-0.0498677
-0.0555461
-0.0550875
-0.0495117
-0.0395904
-0.0261101
-0.00975377
0.00882631
0.0289042
0.0495966
0.0698006
0.0881575
0.10305
0.112704
0.115554
0.110195
0.0928375
0.0614151
-0.0318545
-0.0638734
-0.080414
-0.0850042
-0.082417
-0.0740751
-0.0609775
-0.044033
-0.0239477
-0.00133307
0.0231493
0.0486646
0.0740991
0.0979756
0.118399
0.133129
0.139992
0.136821
0.118444
0.0819371
-0.0686638
-0.1046
-0.121341
-0.123587
-0.117512
-0.105123
-0.0877145
-0.0663216
-0.0416329
-0.0141514
0.0156098
0.0469573
0.0788596
0.109797
0.137627
0.159589
0.17273
0.173781
0.155524
0.113574
-0.119398
-0.159353
-0.174911
-0.172753
-0.161144
-0.142925
-0.119755
-0.0927728
-0.062573
-0.0294431
0.00637774
0.044478
0.0840594
0.123707
0.16114
0.19309
0.215671
0.22408
0.208053
0.160635
-0.188623
-0.232237
-0.243934
-0.233944
-0.21369
-0.18715
-0.156368
-0.122497
-0.0858933
-0.0464673
-0.00400955
0.0415437
0.0898468
0.139834
0.189323
0.234693
0.271078
0.291667
0.281745
0.229778
-0.283968
-0.329299
-0.331827
-0.308276
-0.274704
-0.236435
-0.19576
-0.153605
-0.109835
-0.0637401
-0.0144327
0.0388685
0.0965592
0.158281
0.222378
0.285292
0.341401
0.381578
0.384917
0.331836
-0.419312
-0.459666
-0.442346
-0.395788
-0.342125
-0.287735
-0.234611
-0.182925
-0.131604
-0.0789796
-0.0232086
0.0374807
0.104558
0.178843
0.259866
0.344974
0.42862
0.499703
0.529678
0.485394
-0.620525
-0.636738
-0.578672
-0.494189
-0.411236
-0.335654
-0.267776
-0.205972
-0.147531
-0.0893773
-0.0284204
0.0383539
0.113812
0.200477
0.29998
0.412029
0.533033
0.651779
0.732775
0.722398
-0.935918
-0.87851
-0.741737
-0.597944
-0.474389
-0.372655
-0.288864
-0.217758
-0.153948
-0.0924582
-0.0287115
0.0417015
0.123269
0.220723
0.338931
0.482159
0.652001
0.841345
1.01527
1.09751
-1.47642
-1.20663
-0.920499
-0.691384
-0.517301
-0.38754
-0.290057
-0.213333
-0.148119
-0.08721
-0.0245718
0.0454634
0.128943
0.233076
0.367108
0.542683
0.771297
1.05932
1.40329
1.73014
-2.53964
-1.63054
-1.04443
-0.710955
-0.495747
-0.35209
-0.254527
-0.183579
-0.126165
-0.0735899
-0.0192634
0.0427928
0.119218
0.218788
0.354818
0.547989
0.826397
1.23658
1.91168
2.9242
-4.36666
-2.04463
-0.973539
-0.563178
-0.357844
-0.240144
-0.170117
-0.12378
-0.0874772
-0.0535054
-0.0166489
0.0276668
0.0846139
0.161736
0.272417
0.442105
0.718224
1.22571
2.41104
4.84853
)
;

boundaryField
{
    movingWall
    {
        type            zeroGradient;
    }
    fixedWalls
    {
        type            zeroGradient;
    }
    frontAndBack
    {
        type            empty;
    }
}


// ************************************************************************* //
