/*--------------------------------*- C++ -*----------------------------------*\
  =========                 |
  \\      /  F ield         | OpenFOAM: The Open Source CFD Toolbox
   \\    /   O peration     | Website:  https://openfoam.org
    \\  /    A nd           | Version:  8
     \\/     M anipulation  |
\*---------------------------------------------------------------------------*/
FoamFile
{
    version     2.0;
    format      ascii;
    class       volVectorField;
    location    "0.37";
    object      U;
}
// * * * * * * * * * * * * * * * * * * * * * * * * * * * * * * * * * * * * * //

dimensions      [0 1 -1 0 0 0 0];

internalField   nonuniform List<vector> 
400
(
(0.000253392 -0.000250435 0)
(0.000141195 0.000111424 0)
(-0.00117699 0.000564594 0)
(-0.0034811 0.000884969 0)
(-0.00637745 0.00104569 0)
(-0.00946943 0.00106173 0)
(-0.0124029 0.000957835 0)
(-0.0148849 0.00076043 0)
(-0.0166895 0.00049464 0)
(-0.0176583 0.000184559 0)
(-0.0177022 -0.000145268 0)
(-0.0168051 -0.000468363 0)
(-0.0150301 -0.000755408 0)
(-0.0125251 -0.000974257 0)
(-0.0095264 -0.00109118 0)
(-0.00635499 -0.00107401 0)
(-0.00340064 -0.000898122 0)
(-0.00108643 -0.000556391 0)
(0.000196422 -9.0368e-05 0)
(0.000267858 0.000262384 0)
(-7.74694e-05 -0.000169373 0)
(-0.00161157 0.00164482 0)
(-0.00569294 0.0036173 0)
(-0.0117189 0.00503483 0)
(-0.0188924 0.00574324 0)
(-0.026401 0.00576023 0)
(-0.0334695 0.0051717 0)
(-0.0394273 0.00409254 0)
(-0.0437445 0.00264766 0)
(-0.0460477 0.000966936 0)
(-0.0461301 -0.000813229 0)
(-0.0439619 -0.0025471 0)
(-0.0397017 -0.00407868 0)
(-0.0337032 -0.00524515 0)
(-0.0265137 -0.00588662 0)
(-0.0188548 -0.00586492 0)
(-0.0115668 -0.00509481 0)
(-0.00551336 -0.00358946 0)
(-0.0014931 -0.00155915 0)
(-4.25796e-05 0.000227459 0)
(-0.000528614 0.00109163 0)
(-0.00371144 0.00573633 0)
(-0.0105891 0.0102246 0)
(-0.019992 0.0134078 0)
(-0.0307653 0.0149464 0)
(-0.0418229 0.014839 0)
(-0.0521208 0.0132558 0)
(-0.0607453 0.0104563 0)
(-0.0669707 0.00674207 0)
(-0.0702841 0.00243889 0)
(-0.070402 -0.00210657 0)
(-0.0672856 -0.00652555 0)
(-0.0611535 -0.0104293 0)
(-0.0524895 -0.0134212 0)
(-0.0420378 -0.0151237 0)
(-0.0307745 -0.0152258 0)
(-0.0198294 -0.0135562 0)
(-0.0103637 -0.010179 0)
(-0.00354857 -0.00555114 0)
(-0.00047685 -0.000948842 0)
(-0.000928238 0.00347988 0)
(-0.00569159 0.0122208 0)
(-0.0153021 0.0199219 0)
(-0.0279174 0.0251981 0)
(-0.0419862 0.0275973 0)
(-0.0561802 0.0271378 0)
(-0.0692535 0.0241092 0)
(-0.0801273 0.0189541 0)
(-0.08795 0.0121957 0)
(-0.0921207 0.00440511 0)
(-0.0923053 -0.00380804 0)
(-0.088452 -0.0117967 0)
(-0.0808066 -0.0188824 0)
(-0.0699243 -0.0243766 0)
(-0.0566703 -0.027628 0)
(-0.0421956 -0.0281021 0)
(-0.0278571 -0.025498 0)
(-0.0150939 -0.0198919 0)
(-0.00550512 -0.0119278 0)
(-0.000861611 -0.0032249 0)
(-0.00127895 0.00687787 0)
(-0.00753617 0.0209539 0)
(-0.0198052 0.0325107 0)
(-0.0355356 0.0401036 0)
(-0.0527445 0.0432907 0)
(-0.06986 0.0421932 0)
(-0.0854652 0.0372779 0)
(-0.0983626 0.0292133 0)
(-0.107622 0.0187774 0)
(-0.112591 0.00681375 0)
(-0.1129 -0.00578048 0)
(-0.108476 -0.0180549 0)
(-0.0995642 -0.0290117 0)
(-0.0867409 -0.0376331 0)
(-0.0709371 -0.0429454 0)
(-0.0534313 -0.0441292 0)
(-0.0357852 -0.0406791 0)
(-0.0197355 -0.0325927 0)
(-0.0073707 -0.0205907 0)
(-0.00120369 -0.0064982 0)
(-0.00160754 0.0112157 0)
(-0.00931815 0.0318748 0)
(-0.0242096 0.0479521 0)
(-0.0430033 0.0580722 0)
(-0.0632579 0.0619374 0)
(-0.0831541 0.0598814 0)
(-0.101126 0.0526284 0)
(-0.115894 0.0411259 0)
(-0.12649 0.0264371 0)
(-0.132239 0.00969287 0)
(-0.132751 -0.00791641 0)
(-0.127925 -0.0251322 0)
(-0.117968 -0.0406251 0)
(-0.103435 -0.0530195 0)
(-0.0852698 -0.0609664 0)
(-0.0648362 -0.0632802 0)
(-0.0438859 -0.0591421 0)
(-0.0244779 -0.0483444 0)
(-0.00925439 -0.0315576 0)
(-0.00153776 -0.0107286 0)
(-0.00194006 0.0164771 0)
(-0.0111213 0.0449742 0)
(-0.0286505 0.0662333 0)
(-0.0504801 0.0790593 0)
(-0.0736853 0.0834461 0)
(-0.0962042 0.0800739 0)
(-0.116352 0.0700242 0)
(-0.132815 0.0545846 0)
(-0.144632 0.0351315 0)
(-0.151142 0.0130846 0)
(-0.15195 -0.0100865 0)
(-0.146916 -0.0328326 0)
(-0.136182 -0.0534996 0)
(-0.120223 -0.0703367 0)
(-0.0999328 -0.081565 0)
(-0.0767015 -0.0855324 0)
(-0.0524402 -0.0809634 0)
(-0.0295449 -0.0672768 0)
(-0.0112836 -0.0449394 0)
(-0.00190008 -0.0159515 0)
(-0.00230003 0.0226949 0)
(-0.013025 0.0603006 0)
(-0.0332507 0.0873631 0)
(-0.0580796 0.102996 0)
(-0.0840744 0.107664 0)
(-0.108953 0.102561 0)
(-0.130967 0.0892435 0)
(-0.148834 0.0694103 0)
(-0.161666 0.0447713 0)
(-0.168867 0.0170197 0)
(-0.170062 -0.0121335 0)
(-0.165071 -0.040893 0)
(-0.153929 -0.0673139 0)
(-0.136969 -0.0892726 0)
(-0.114942 -0.104511 0)
(-0.0891755 -0.110796 0)
(-0.0616704 -0.106212 0)
(-0.0351482 -0.0895789 0)
(-0.0135858 -0.0609491 0)
(-0.00232633 -0.0222774 0)
(-0.00271163 0.0299467 0)
(-0.0151079 0.0779558 0)
(-0.0381145 0.111355 0)
(-0.065848 0.129748 0)
(-0.0943262 0.134316 0)
(-0.121098 0.126972 0)
(-0.144443 0.109901 0)
(-0.163212 0.0852808 0)
(-0.176686 0.0551665 0)
(-0.184405 0.0214867 0)
(-0.186056 -0.0138746 0)
(-0.181421 -0.0489561 0)
(-0.170394 -0.0815926 0)
(-0.15308 -0.109322 0)
(-0.12997 -0.12938 0)
(-0.102185 -0.138827 0)
(-0.0716891 -0.134886 0)
(-0.0414667 -0.115468 0)
(-0.016288 -0.0798947 0)
(-0.00285468 -0.0298894 0)
(-0.00320765 0.0383591 0)
(-0.0174661 0.0980882 0)
(-0.0433409 0.138187 0)
(-0.0737563 0.159044 0)
(-0.10416 0.162899 0)
(-0.132031 0.152671 0)
(-0.155825 0.13134 0)
(-0.174678 0.101639 0)
(-0.188167 0.0659568 0)
(-0.196067 0.0263893 0)
(-0.198185 -0.0151124 0)
(-0.194283 -0.0565446 0)
(-0.184081 -0.0956408 0)
(-0.167366 -0.129687 0)
(-0.144215 -0.155422 0)
(-0.115338 -0.169096 0)
(-0.0824455 -0.166801 0)
(-0.0486359 -0.145123 0)
(-0.0195287 -0.102159 0)
(-0.00353355 -0.0390469 0)
(-0.00384396 0.0481281 0)
(-0.0202462 0.120892 0)
(-0.0490466 0.16775 0)
(-0.0816864 0.190364 0)
(-0.113053 0.192555 0)
(-0.140746 0.178613 0)
(-0.163622 0.15251 0)
(-0.181309 0.117591 0)
(-0.193847 0.0765341 0)
(-0.201361 0.0314941 0)
(-0.203857 -0.0156585 0)
(-0.20111 -0.0630496 0)
(-0.192649 -0.10849 0)
(-0.177857 -0.149169 0)
(-0.156224 -0.181413 0)
(-0.12778 -0.200604 0)
(-0.0936442 -0.201423 0)
(-0.056733 -0.178572 0)
(-0.0234798 -0.128172 0)
(-0.00443553 -0.050104 0)
(-0.00472538 0.0595706 0)
(-0.0236947 0.146616 0)
(-0.0553831 0.199754 0)
(-0.0893767 0.222789 0)
(-0.120123 0.22189 0)
(-0.145676 0.203186 0)
(-0.165631 0.171838 0)
(-0.180372 0.131809 0)
(-0.190582 0.0859692 0)
(-0.196864 0.0363763 0)
(-0.199503 -0.0153702 0)
(-0.198337 -0.0677421 0)
(-0.192718 -0.118865 0)
(-0.181575 -0.166076 0)
(-0.163646 -0.205486 0)
(-0.137967 -0.231659 0)
(-0.104596 -0.237623 0)
(-0.0657336 -0.215523 0)
(-0.0283777 -0.158366 0)
(-0.00568208 -0.0635517 0)
(-0.0060516 0.0732278 0)
(-0.0282259 0.175562 0)
(-0.062509 0.233569 0)
(-0.0962575 0.254745 0)
(-0.123858 0.248729 0)
(-0.144399 0.224024 0)
(-0.158671 0.187106 0)
(-0.168108 0.142461 0)
(-0.174203 0.0929682 0)
(-0.17812 0.040379 0)
(-0.180486 -0.0141981 0)
(-0.181267 -0.0698203 0)
(-0.179697 -0.125209 0)
(-0.174271 -0.178178 0)
(-0.162896 -0.224971 0)
(-0.143317 -0.259586 0)
(-0.113938 -0.273327 0)
(-0.0753933 -0.255065 0)
(-0.0345563 -0.193089 0)
(-0.00748629 -0.0801038 0)
(-0.00819208 0.0900458 0)
(-0.0344828 0.208019 0)
(-0.0704125 0.267882 0)
(-0.101024 0.283604 0)
(-0.121575 0.269809 0)
(-0.133108 0.237839 0)
(-0.138164 0.195403 0)
(-0.139464 0.147232 0)
(-0.139369 0.0959086 0)
(-0.139596 0.0426194 0)
(-0.141111 -0.0122326 0)
(-0.144056 -0.0685064 0)
(-0.14767 -0.125793 0)
(-0.150171 -0.182768 0)
(-0.148721 -0.236323 0)
(-0.139644 -0.280445 0)
(-0.119095 -0.305024 0)
(-0.0849362 -0.295157 0)
(-0.0424406 -0.232376 0)
(-0.010216 -0.100836 0)
(-0.0117675 0.111635 0)
(-0.0432598 0.24396 0)
(-0.0782975 0.300033 0)
(-0.100628 0.305091 0)
(-0.108352 0.280459 0)
(-0.105731 0.240381 0)
(-0.0975296 0.19328 0)
(-0.0877711 0.143548 0)
(-0.0795012 0.0930353 0)
(-0.0747856 0.0420948 0)
(-0.0748033 -0.00972858 0)
(-0.0798911 -0.0632106 0)
(-0.0894632 -0.118989 0)
(-0.101789 -0.176956 0)
(-0.113686 -0.235284 0)
(-0.120305 -0.288881 0)
(-0.115263 -0.327194 0)
(-0.0922666 -0.331793 0)
(-0.0523157 -0.275402 0)
(-0.0144303 -0.127347 0)
(-0.0175493 0.140659 0)
(-0.0547646 0.282145 0)
(-0.0827863 0.324718 0)
(-0.0880805 0.312473 0)
(-0.0751086 0.274455 0)
(-0.0525911 0.226769 0)
(-0.0274585 0.177287 0)
(-0.00451461 0.129135 0)
(0.0130988 0.0829123 0)
(0.0234399 0.0379467 0)
(0.0253985 -0.00707338 0)
(0.0185074 -0.0537582 0)
(0.00297981 -0.103751 0)
(-0.0199969 -0.158319 0)
(-0.0476858 -0.217501 0)
(-0.0749847 -0.27836 0)
(-0.0935467 -0.33179 0)
(-0.0920638 -0.357682 0)
(-0.0632805 -0.319293 0)
(-0.0206336 -0.161973 0)
(-0.0254497 0.181711 0)
(-0.0657746 0.317771 0)
(-0.0733331 0.331362 0)
(-0.048077 0.2954 0)
(-0.00557826 0.244211 0)
(0.0412185 0.19238 0)
(0.0846531 0.145047 0)
(0.120537 0.102971 0)
(0.146702 0.0651376 0)
(0.162047 0.0298913 0)
(0.165941 -0.00467153 0)
(0.157936 -0.0406283 0)
(0.137732 -0.0802462 0)
(0.10544 -0.125917 0)
(0.062262 -0.179726 0)
(0.0118056 -0.24202 0)
(-0.03783 -0.307877 0)
(-0.0716795 -0.360142 0)
(-0.0700556 -0.356608 0)
(-0.0279123 -0.208375 0)
(-0.029649 0.239176 0)
(-0.0608413 0.335767 0)
(-0.0219424 0.300503 0)
(0.0505418 0.240127 0)
(0.127572 0.182949 0)
(0.197007 0.135389 0)
(0.254336 0.0973987 0)
(0.29825 0.0668509 0)
(0.328824 0.0413552 0)
(0.346467 0.0187785 0)
(0.351376 -0.00279415 0)
(0.343302 -0.0252651 0)
(0.321468 -0.0507876 0)
(0.284642 -0.0820479 0)
(0.231572 -0.122446 0)
(0.162181 -0.175669 0)
(0.0799004 -0.243431 0)
(-0.00319002 -0.319136 0)
(-0.0546696 -0.368612 0)
(-0.0284594 -0.267618 0)
(0.0080831 0.281861 0)
(0.019783 0.294972 0)
(0.139066 0.210973 0)
(0.26446 0.143477 0)
(0.364367 0.0971858 0)
(0.440364 0.0657773 0)
(0.496742 0.0442373 0)
(0.536873 0.0288859 0)
(0.563446 0.0171988 0)
(0.578305 0.00748476 0)
(0.58238 -0.00149411 0)
(0.575695 -0.0108452 0)
(0.557308 -0.021847 0)
(0.525134 -0.0363348 0)
(0.475776 -0.0572594 0)
(0.404537 -0.0893839 0)
(0.305176 -0.139741 0)
(0.173417 -0.216386 0)
(0.041172 -0.311655 0)
(0.0184302 -0.299995 0)
(0.299604 0.146091 0)
(0.396272 0.127503 0)
(0.55742 0.0760895 0)
(0.674487 0.0437232 0)
(0.743888 0.025572 0)
(0.787153 0.0152422 0)
(0.815485 0.00921231 0)
(0.833955 0.00550939 0)
(0.845385 0.00302716 0)
(0.851371 0.00114934 0)
(0.852666 -0.00049938 0)
(0.849382 -0.00221506 0)
(0.840999 -0.00433855 0)
(0.82614 -0.00742406 0)
(0.802078 -0.0125322 0)
(0.763621 -0.0217728 0)
(0.699108 -0.0392829 0)
(0.583952 -0.0726601 0)
(0.415827 -0.127868 0)
(0.308819 -0.149468 0)
)
;

boundaryField
{
    movingWall
    {
        type            fixedValue;
        value           uniform (1 0 0);
    }
    fixedWalls
    {
        type            noSlip;
    }
    frontAndBack
    {
        type            empty;
    }
}


// ************************************************************************* //
