/*--------------------------------*- C++ -*----------------------------------*\
  =========                 |
  \\      /  F ield         | OpenFOAM: The Open Source CFD Toolbox
   \\    /   O peration     | Website:  https://openfoam.org
    \\  /    A nd           | Version:  8
     \\/     M anipulation  |
\*---------------------------------------------------------------------------*/
FoamFile
{
    version     2.0;
    format      ascii;
    class       volVectorField;
    location    "1.31";
    object      U;
}
// * * * * * * * * * * * * * * * * * * * * * * * * * * * * * * * * * * * * * //

dimensions      [0 1 -1 0 0 0 0];

internalField   nonuniform List<vector> 
400
(
(0.0249885 1.88734e-13 0)
(0.0249885 5.27809e-14 0)
(0.0249885 -1.01122e-13 0)
(0.0249885 -1.37451e-13 0)
(0.0249885 -1.52296e-13 0)
(0.0249885 -1.56146e-13 0)
(0.0249885 -1.3847e-13 0)
(0.0249885 -1.14451e-13 0)
(0.0249885 -8.03002e-14 0)
(0.0249885 -4.03888e-14 0)
(0.0249885 5.34223e-15 0)
(0.0249885 5.39523e-14 0)
(0.0249885 9.4198e-14 0)
(0.0249885 1.29134e-13 0)
(0.0249885 1.44822e-13 0)
(0.0249885 1.51838e-13 0)
(0.0249885 1.37117e-13 0)
(0.0249885 1.15052e-13 0)
(0.0249885 8.74039e-14 0)
(0.0249885 1.55962e-13 0)
(0.0749659 -6.20244e-13 0)
(0.0749659 -8.59697e-13 0)
(0.0749659 -1.13381e-12 0)
(0.0749659 -1.14251e-12 0)
(0.0749659 -1.04362e-12 0)
(0.0749659 -8.46253e-13 0)
(0.0749659 -5.81196e-13 0)
(0.0749659 -2.65253e-13 0)
(0.0749659 6.64478e-14 0)
(0.0749659 3.97859e-13 0)
(0.0749659 6.9903e-13 0)
(0.0749659 9.38013e-13 0)
(0.0749659 1.0921e-12 0)
(0.0749659 1.13413e-12 0)
(0.0749659 1.06958e-12 0)
(0.0749659 8.89145e-13 0)
(0.0749659 6.20578e-13 0)
(0.0749659 2.77263e-13 0)
(0.0749659 -8.94851e-14 0)
(0.0749659 -3.11619e-13 0)
(0.124944 -2.73204e-12 0)
(0.124944 -3.3892e-12 0)
(0.124944 -3.60503e-12 0)
(0.124944 -3.42103e-12 0)
(0.124944 -2.90629e-12 0)
(0.124944 -2.13336e-12 0)
(0.124944 -1.16734e-12 0)
(0.124944 -1.11926e-13 0)
(0.124944 9.52825e-13 0)
(0.124944 1.93137e-12 0)
(0.124944 2.73938e-12 0)
(0.124944 3.29493e-12 0)
(0.124944 3.53476e-12 0)
(0.124944 3.43661e-12 0)
(0.124944 2.99701e-12 0)
(0.124944 2.26283e-12 0)
(0.124944 1.28427e-12 0)
(0.124944 1.65742e-13 0)
(0.124944 -9.88134e-13 0)
(0.124944 -2.00413e-12 0)
(0.174924 -6.16764e-12 0)
(0.174924 -7.03838e-12 0)
(0.174924 -7.18335e-12 0)
(0.174924 -6.5948e-12 0)
(0.174924 -5.37851e-12 0)
(0.174924 -3.66042e-12 0)
(0.174924 -1.61853e-12 0)
(0.174924 5.63584e-13 0)
(0.174924 2.68215e-12 0)
(0.174924 4.55344e-12 0)
(0.174924 5.99714e-12 0)
(0.174924 6.87245e-12 0)
(0.174924 7.0891e-12 0)
(0.174924 6.61853e-12 0)
(0.174924 5.50504e-12 0)
(0.174924 3.84001e-12 0)
(0.174924 1.77883e-12 0)
(0.174924 -4.89302e-13 0)
(0.174924 -2.72823e-12 0)
(0.174924 -4.69459e-12 0)
(0.224905 -1.00211e-11 0)
(0.224905 -1.11327e-11 0)
(0.224905 -1.11195e-11 0)
(0.224905 -1.0002e-11 0)
(0.224905 -7.91922e-12 0)
(0.224905 -5.09056e-12 0)
(0.224905 -1.79029e-12 0)
(0.224905 1.66258e-12 0)
(0.224905 4.95215e-12 0)
(0.224905 7.76563e-12 0)
(0.224905 9.83837e-12 0)
(0.224905 1.09642e-11 0)
(0.224905 1.10334e-11 0)
(0.224905 1.00347e-11 0)
(0.224905 8.05683e-12 0)
(0.224905 5.28008e-12 0)
(0.224905 1.95938e-12 0)
(0.224905 -1.5816e-12 0)
(0.224905 -4.99225e-12 0)
(0.224905 -7.9048e-12 0)
(0.274889 -1.3566e-11 0)
(0.274889 -1.48163e-11 0)
(0.274889 -1.45832e-11 0)
(0.274889 -1.29182e-11 0)
(0.274889 -9.99955e-12 0)
(0.274889 -6.12632e-12 0)
(0.274889 -1.67863e-12 0)
(0.274889 2.91895e-12 0)
(0.274889 7.22766e-12 0)
(0.274889 1.0839e-11 0)
(0.274889 1.34004e-11 0)
(0.274889 1.46672e-11 0)
(0.274889 1.45124e-11 0)
(0.274889 1.29526e-11 0)
(0.274889 1.01271e-11 0)
(0.274889 6.29829e-12 0)
(0.274889 1.82731e-12 0)
(0.274889 -2.84987e-12 0)
(0.274889 -7.2634e-12 0)
(0.274889 -1.09657e-11 0)
(0.324876 -1.59889e-11 0)
(0.324876 -1.72375e-11 0)
(0.324876 -1.67796e-11 0)
(0.324876 -1.46743e-11 0)
(0.324876 -1.11457e-11 0)
(0.324876 -6.54277e-12 0)
(0.324876 -1.3206e-12 0)
(0.324876 4.02187e-12 0)
(0.324876 8.97126e-12 0)
(0.324876 1.30473e-11 0)
(0.324876 1.58568e-11 0)
(0.324876 1.71232e-11 0)
(0.324876 1.67309e-11 0)
(0.324876 1.47103e-11 0)
(0.324876 1.1255e-11 0)
(0.324876 6.68159e-12 0)
(0.324876 1.43424e-12 0)
(0.324876 -3.97593e-12 0)
(0.324876 -9.00574e-12 0)
(0.324876 -1.3151e-11 0)
(0.374865 -1.67396e-11 0)
(0.374865 -1.78389e-11 0)
(0.374865 -1.71764e-11 0)
(0.374865 -1.48378e-11 0)
(0.374865 -1.1051e-11 0)
(0.374865 -6.20036e-12 0)
(0.374865 -7.53592e-13 0)
(0.374865 4.76091e-12 0)
(0.374865 9.813e-12 0)
(0.374865 1.39093e-11 0)
(0.374865 1.66476e-11 0)
(0.374865 1.77676e-11 0)
(0.374865 1.71564e-11 0)
(0.374865 1.48792e-11 0)
(0.374865 1.11403e-11 0)
(0.374865 6.30141e-12 0)
(0.374865 8.24961e-13 0)
(0.374865 -4.74359e-12 0)
(0.374865 -9.85145e-12 0)
(0.374865 -1.39884e-11 0)
(0.424858 -1.56924e-11 0)
(0.424858 -1.64807e-11 0)
(0.424858 -1.56582e-11 0)
(0.424858 -1.3301e-11 0)
(0.424858 -9.65361e-12 0)
(0.424858 -5.0662e-12 0)
(0.424858 5.30582e-15 0)
(0.424858 5.08003e-12 0)
(0.424858 9.66039e-12 0)
(0.424858 1.32981e-11 0)
(0.424858 1.56384e-11 0)
(0.424858 1.64514e-11 0)
(0.424858 1.56661e-11 0)
(0.424858 1.33473e-11 0)
(0.424858 9.72227e-12 0)
(0.424858 5.12826e-12 0)
(0.424858 2.42285e-14 0)
(0.424858 -5.09164e-12 0)
(0.424858 -9.70477e-12 0)
(0.424858 -1.33565e-11 0)
(0.474855 -1.31394e-11 0)
(0.474855 -1.34912e-11 0)
(0.474855 -1.25244e-11 0)
(0.474855 -1.03414e-11 0)
(0.474855 -7.14686e-12 0)
(0.474855 -3.26316e-12 0)
(0.474855 9.4216e-13 0)
(0.474855 5.05643e-12 0)
(0.474855 8.68268e-12 0)
(0.474855 1.14601e-11 0)
(0.474855 1.31162e-11 0)
(0.474855 1.34959e-11 0)
(0.474855 1.2556e-11 0)
(0.474855 1.03913e-11 0)
(0.474855 7.19616e-12 0)
(0.474855 3.29057e-12 0)
(0.474855 -9.48494e-13 0)
(0.474855 -5.09156e-12 0)
(0.474855 -8.73124e-12 0)
(0.474855 -1.15018e-11 0)
(0.524855 -9.69981e-12 0)
(0.524855 -9.53165e-12 0)
(0.524855 -8.44307e-12 0)
(0.524855 -6.53141e-12 0)
(0.524855 -3.99022e-12 0)
(0.524855 -1.05567e-12 0)
(0.524855 1.98046e-12 0)
(0.524855 4.83294e-12 0)
(0.524855 7.21452e-12 0)
(0.524855 8.89122e-12 0)
(0.524855 9.69962e-12 0)
(0.524855 9.56059e-12 0)
(0.524855 8.49208e-12 0)
(0.524855 6.58337e-12 0)
(0.524855 4.02388e-12 0)
(0.524855 1.05619e-12 0)
(0.524855 -2.01289e-12 0)
(0.524855 -4.88428e-12 0)
(0.524855 -7.26423e-12 0)
(0.524855 -8.92069e-12 0)
(0.574858 -6.10724e-12 0)
(0.574858 -5.43297e-12 0)
(0.574858 -4.2341e-12 0)
(0.574858 -2.63465e-12 0)
(0.574858 -7.77137e-13 0)
(0.574858 1.15208e-12 0)
(0.574858 2.9788e-12 0)
(0.574858 4.51801e-12 0)
(0.574858 5.6206e-12 0)
(0.574858 6.17217e-12 0)
(0.574858 6.12079e-12 0)
(0.574858 5.47609e-12 0)
(0.574858 4.29347e-12 0)
(0.574858 2.68684e-12 0)
(0.574858 7.99873e-13 0)
(0.574858 -1.16894e-12 0)
(0.574858 -3.02683e-12 0)
(0.574858 -4.57755e-12 0)
(0.574858 -5.66911e-12 0)
(0.574858 -6.19302e-12 0)
(0.624865 -3.01444e-12 0)
(0.624865 -1.93695e-12 0)
(0.624865 -6.82505e-13 0)
(0.624865 6.31456e-13 0)
(0.624865 1.87592e-12 0)
(0.624865 2.94174e-12 0)
(0.624865 3.7237e-12 0)
(0.624865 4.15131e-12 0)
(0.624865 4.17304e-12 0)
(0.624865 3.78784e-12 0)
(0.624865 3.03412e-12 0)
(0.624865 1.98599e-12 0)
(0.624865 7.4548e-13 0)
(0.624865 -5.80208e-13 0)
(0.624865 -1.85888e-12 0)
(0.624865 -2.96623e-12 0)
(0.624865 -3.7772e-12 0)
(0.624865 -4.21218e-12 0)
(0.624865 -4.21884e-12 0)
(0.624865 -3.80375e-12 0)
(0.674876 -8.20776e-13 0)
(0.674876 4.65248e-13 0)
(0.674876 1.69641e-12 0)
(0.674876 2.74991e-12 0)
(0.674876 3.53247e-12 0)
(0.674876 3.96742e-12 0)
(0.674876 4.02387e-12 0)
(0.674876 3.69021e-12 0)
(0.674876 3.0005e-12 0)
(0.674876 2.01738e-12 0)
(0.674876 8.39916e-13 0)
(0.674876 -4.16344e-13 0)
(0.674876 -1.6347e-12 0)
(0.674876 -2.70042e-12 0)
(0.674876 -3.51702e-12 0)
(0.674876 -3.99232e-12 0)
(0.674876 -4.07647e-12 0)
(0.674876 -3.74923e-12 0)
(0.674876 -3.04512e-12 0)
(0.674876 -2.0325e-12 0)
(0.724889 3.7855e-13 0)
(0.724889 1.64604e-12 0)
(0.724889 2.74139e-12 0)
(0.724889 3.56076e-12 0)
(0.724889 4.02456e-12 0)
(0.724889 4.09598e-12 0)
(0.724889 3.76934e-12 0)
(0.724889 3.08164e-12 0)
(0.724889 2.09504e-12 0)
(0.724889 9.08444e-13 0)
(0.724889 -3.65232e-13 0)
(0.724889 -1.60156e-12 0)
(0.724889 -2.68429e-12 0)
(0.724889 -3.51426e-12 0)
(0.724889 -4.0098e-12 0)
(0.724889 -4.11951e-12 0)
(0.724889 -3.82064e-12 0)
(0.724889 -3.14108e-12 0)
(0.724889 -2.14273e-12 0)
(0.724889 -9.27786e-13 0)
(0.774905 7.57147e-13 0)
(0.774905 1.8016e-12 0)
(0.774905 2.66042e-12 0)
(0.774905 3.25111e-12 0)
(0.774905 3.51612e-12 0)
(0.774905 3.43422e-12 0)
(0.774905 3.02017e-12 0)
(0.774905 2.31485e-12 0)
(0.774905 1.39155e-12 0)
(0.774905 3.3586e-13 0)
(0.774905 -7.48392e-13 0)
(0.774905 -1.7618e-12 0)
(0.774905 -2.60702e-12 0)
(0.774905 -3.20602e-12 0)
(0.774905 -3.49962e-12 0)
(0.774905 -3.4536e-12 0)
(0.774905 -3.06759e-12 0)
(0.774905 -2.37271e-12 0)
(0.774905 -1.43949e-12 0)
(0.774905 -3.58288e-13 0)
(0.824924 6.40133e-13 0)
(0.824924 1.33653e-12 0)
(0.824924 1.90386e-12 0)
(0.824924 2.2748e-12 0)
(0.824924 2.41639e-12 0)
(0.824924 2.31703e-12 0)
(0.824924 1.99223e-12 0)
(0.824924 1.47956e-12 0)
(0.824924 8.29182e-13 0)
(0.824924 1.0628e-13 0)
(0.824924 -6.27363e-13 0)
(0.824924 -1.30028e-12 0)
(0.824924 -1.85436e-12 0)
(0.824924 -2.23156e-12 0)
(0.824924 -2.39646e-12 0)
(0.824924 -2.3278e-12 0)
(0.824924 -2.02856e-12 0)
(0.824924 -1.52636e-12 0)
(0.824924 -8.66798e-13 0)
(0.824924 -1.23022e-13 0)
(0.874944 3.41592e-13 0)
(0.874944 6.96901e-13 0)
(0.874944 9.80694e-13 0)
(0.874944 1.16496e-12 0)
(0.874944 1.22664e-12 0)
(0.874944 1.16564e-12 0)
(0.874944 9.90043e-13 0)
(0.874944 7.22457e-13 0)
(0.874944 3.92894e-13 0)
(0.874944 2.83427e-14 0)
(0.874944 -3.35509e-13 0)
(0.874944 -6.73626e-13 0)
(0.874944 -9.48434e-13 0)
(0.874944 -1.13799e-12 0)
(0.874944 -1.21583e-12 0)
(0.874944 -1.17684e-12 0)
(0.874944 -1.01979e-12 0)
(0.874944 -7.59216e-13 0)
(0.874944 -4.21825e-13 0)
(0.874944 -3.96872e-14 0)
(0.924966 1.02829e-13 0)
(0.924966 2.07748e-13 0)
(0.924966 2.98632e-13 0)
(0.924966 3.52426e-13 0)
(0.924966 3.71303e-13 0)
(0.924966 3.48951e-13 0)
(0.924966 2.93684e-13 0)
(0.924966 2.12204e-13 0)
(0.924966 1.13088e-13 0)
(0.924966 7.86267e-15 0)
(0.924966 -1.0103e-13 0)
(0.924966 -1.99364e-13 0)
(0.924966 -2.85529e-13 0)
(0.924966 -3.42703e-13 0)
(0.924966 -3.70365e-13 0)
(0.924966 -3.59305e-13 0)
(0.924966 -3.13327e-13 0)
(0.924966 -2.3437e-13 0)
(0.924966 -1.28774e-13 0)
(0.924966 -1.42695e-14 0)
(0.974989 4.03338e-15 0)
(0.974989 1.22356e-14 0)
(0.974989 1.99911e-14 0)
(0.974989 2.76817e-14 0)
(0.974989 2.92146e-14 0)
(0.974989 2.95502e-14 0)
(0.974989 2.57507e-14 0)
(0.974989 2.0959e-14 0)
(0.974989 1.59921e-14 0)
(0.974989 9.20884e-15 0)
(0.974989 4.21783e-15 0)
(0.974989 -4.27629e-15 0)
(0.974989 -9.83356e-15 0)
(0.974989 -1.77199e-14 0)
(0.974989 -2.12778e-14 0)
(0.974989 -2.49316e-14 0)
(0.974989 -2.3939e-14 0)
(0.974989 -1.91121e-14 0)
(0.974989 -1.09302e-14 0)
(0.974989 -1.57259e-15 0)
)
;

boundaryField
{
    movingWall
    {
        type            fixedValue;
        value           uniform (1 0 0);
    }
    fixedWalls
    {
        type            noSlip;
    }
    left
    {
        type            cyclic;
    }
    right
    {
        type            cyclic;
    }
    frontAndBack
    {
        type            empty;
    }
}


// ************************************************************************* //
