/*--------------------------------*- C++ -*----------------------------------*\
  =========                 |
  \\      /  F ield         | OpenFOAM: The Open Source CFD Toolbox
   \\    /   O peration     | Website:  https://openfoam.org
    \\  /    A nd           | Version:  8
     \\/     M anipulation  |
\*---------------------------------------------------------------------------*/
FoamFile
{
    version     2.0;
    format      ascii;
    class       volVectorField;
    location    "0.23";
    object      U;
}
// * * * * * * * * * * * * * * * * * * * * * * * * * * * * * * * * * * * * * //

dimensions      [0 1 -1 0 0 0 0];

internalField   nonuniform List<vector> 
400
(
(0.000253411 -0.000250251 0)
(0.000141256 0.00011149 0)
(-0.00117672 0.000564508 0)
(-0.00348034 0.000884783 0)
(-0.00637601 0.00104546 0)
(-0.00946725 0.00106148 0)
(-0.0124 0.000957609 0)
(-0.0148814 0.00076025 0)
(-0.0166856 0.000494525 0)
(-0.0176542 0.00018452 0)
(-0.0176981 -0.000145227 0)
(-0.0168012 -0.000468247 0)
(-0.0150267 -0.000755227 0)
(-0.0125223 -0.000974028 0)
(-0.00952433 -0.00109093 0)
(-0.00635366 -0.00107376 0)
(-0.00339999 -0.000897927 0)
(-0.00108629 -0.000556286 0)
(0.000196319 -9.03788e-05 0)
(0.00026778 0.000262301 0)
(-7.74016e-05 -0.000169124 0)
(-0.00161109 0.0016446 0)
(-0.00569148 0.00361652 0)
(-0.011716 0.00503365 0)
(-0.0188878 0.00574187 0)
(-0.0263945 0.00575884 0)
(-0.0334613 0.00517045 0)
(-0.0394176 0.00409156 0)
(-0.0437338 0.00264704 0)
(-0.0460365 0.000966743 0)
(-0.0461189 -0.00081298 0)
(-0.0439514 -0.00254643 0)
(-0.0396923 -0.00407765 0)
(-0.0336952 -0.00524386 0)
(-0.0265076 -0.0058852 0)
(-0.0188505 -0.00586353 0)
(-0.0115642 -0.00509364 0)
(-0.00551217 -0.00358868 0)
(-0.00149281 -0.00155887 0)
(-4.25878e-05 0.000227345 0)
(-0.000528446 0.00109149 0)
(-0.00371042 0.00573505 0)
(-0.0105863 0.0102221 0)
(-0.0199869 0.0134045 0)
(-0.0307575 0.0149428 0)
(-0.0418124 0.0148353 0)
(-0.0521077 0.0132526 0)
(-0.0607302 0.0104538 0)
(-0.0669541 0.00674051 0)
(-0.0702668 0.00243843 0)
(-0.0703848 -0.0021059 0)
(-0.0672693 -0.0065238 0)
(-0.0611388 -0.0104267 0)
(-0.052477 -0.0134179 0)
(-0.0420279 -0.01512 0)
(-0.0307673 -0.0152222 0)
(-0.0198248 -0.013553 0)
(-0.0103613 -0.0101767 0)
(-0.00354775 -0.00554993 0)
(-0.00047674 -0.000948697 0)
(-0.000927962 0.00347905 0)
(-0.00569006 0.0122178 0)
(-0.0152981 0.019917 0)
(-0.0279103 0.0251919 0)
(-0.0419758 0.0275905 0)
(-0.0561664 0.0271311 0)
(-0.0692366 0.0241034 0)
(-0.080108 0.0189496 0)
(-0.0879289 0.0121929 0)
(-0.0920988 0.00440431 0)
(-0.0922836 -0.00380679 0)
(-0.0884313 -0.0117935 0)
(-0.0807879 -0.0188775 0)
(-0.0699082 -0.0243705 0)
(-0.0566574 -0.0276212 0)
(-0.042186 -0.0280954 0)
(-0.0278508 -0.025492 0)
(-0.0150905 -0.0198873 0)
(-0.00550384 -0.0119251 0)
(-0.000861397 -0.00322421 0)
(-0.00127859 0.00687613 0)
(-0.00753428 0.0209487 0)
(-0.0198004 0.0325027 0)
(-0.0355273 0.0400938 0)
(-0.0527324 0.0432802 0)
(-0.0698441 0.0421831 0)
(-0.085446 0.0372691 0)
(-0.0983407 0.0292066 0)
(-0.107598 0.0187733 0)
(-0.112566 0.00681261 0)
(-0.112875 -0.00577857 0)
(-0.108453 -0.0180501 0)
(-0.0995431 -0.0290044 0)
(-0.0867227 -0.0376239 0)
(-0.0709223 -0.0429352 0)
(-0.0534201 -0.044119 0)
(-0.0357778 -0.0406697 0)
(-0.0197313 -0.0325854 0)
(-0.0073691 -0.0205861 0)
(-0.00120341 -0.00649675 0)
(-0.00160715 0.0112129 0)
(-0.00931613 0.0318671 0)
(-0.0242046 0.0479408 0)
(-0.0429946 0.0580587 0)
(-0.0632454 0.0619231 0)
(-0.0831378 0.0598677 0)
(-0.101106 0.0526166 0)
(-0.115872 0.0411169 0)
(-0.126466 0.0264316 0)
(-0.132214 0.00969138 0)
(-0.132727 -0.00791379 0)
(-0.127901 -0.0251257 0)
(-0.117946 -0.0406153 0)
(-0.103416 -0.0530071 0)
(-0.0852546 -0.0609525 0)
(-0.0648247 -0.0632661 0)
(-0.0438781 -0.0591292 0)
(-0.0244735 -0.048334 0)
(-0.00925266 -0.0315508 0)
(-0.00153745 -0.0107262 0)
(-0.00193969 0.0164733 0)
(-0.0111194 0.0449641 0)
(-0.0286459 0.0662187 0)
(-0.050472 0.079042 0)
(-0.0736737 0.0834281 0)
(-0.0961892 0.0800568 0)
(-0.116334 0.0700094 0)
(-0.132795 0.0545734 0)
(-0.14461 0.0351248 0)
(-0.151119 0.0130828 0)
(-0.151927 -0.0100833 0)
(-0.146894 -0.0328245 0)
(-0.136162 -0.0534873 0)
(-0.120206 -0.0703212 0)
(-0.0999188 -0.0815477 0)
(-0.0766908 -0.0855147 0)
(-0.0524329 -0.080947 0)
(-0.0295407 -0.0672634 0)
(-0.011282 -0.0449305 0)
(-0.00189977 -0.0159483 0)
(-0.00229973 0.0226901 0)
(-0.0130235 0.0602884 0)
(-0.033247 0.0873457 0)
(-0.0580731 0.102975 0)
(-0.0840651 0.107643 0)
(-0.108941 0.10254 0)
(-0.130953 0.0892262 0)
(-0.148818 0.0693972 0)
(-0.161648 0.0447634 0)
(-0.168849 0.0170176 0)
(-0.170044 -0.0121297 0)
(-0.165053 -0.0408835 0)
(-0.153913 -0.0672996 0)
(-0.136955 -0.0892545 0)
(-0.114931 -0.104491 0)
(-0.0891667 -0.110775 0)
(-0.0616644 -0.106192 0)
(-0.0351447 -0.0895628 0)
(-0.0135844 -0.0609383 0)
(-0.00232607 -0.0222734 0)
(-0.00271144 0.0299413 0)
(-0.0151069 0.0779421 0)
(-0.0381121 0.111335 0)
(-0.0658438 0.129726 0)
(-0.0943202 0.134292 0)
(-0.12109 0.12695 0)
(-0.144433 0.109882 0)
(-0.163201 0.0852663 0)
(-0.176674 0.0551578 0)
(-0.184393 0.0214844 0)
(-0.186044 -0.0138704 0)
(-0.181409 -0.0489457 0)
(-0.170383 -0.0815768 0)
(-0.153071 -0.109303 0)
(-0.129962 -0.129357 0)
(-0.102179 -0.138804 0)
(-0.0716849 -0.134864 0)
(-0.0414643 -0.11545 0)
(-0.016287 -0.0798823 0)
(-0.00285449 -0.0298847 0)
(-0.00320759 0.0383534 0)
(-0.0174658 0.0980737 0)
(-0.0433401 0.138167 0)
(-0.073755 0.15902 0)
(-0.104158 0.162874 0)
(-0.132029 0.152647 0)
(-0.155822 0.13132 0)
(-0.174674 0.101624 0)
(-0.188163 0.0659476 0)
(-0.196063 0.0263867 0)
(-0.198181 -0.0151081 0)
(-0.194278 -0.0565338 0)
(-0.184077 -0.0956244 0)
(-0.167362 -0.129667 0)
(-0.144212 -0.155398 0)
(-0.115336 -0.169071 0)
(-0.0824436 -0.166778 0)
(-0.0486348 -0.145103 0)
(-0.0195282 -0.102146 0)
(-0.00353346 -0.0390418 0)
(-0.00384405 0.0481224 0)
(-0.0202466 0.120878 0)
(-0.0490477 0.167729 0)
(-0.0816882 0.19034 0)
(-0.113055 0.19253 0)
(-0.140749 0.178589 0)
(-0.163625 0.15249 0)
(-0.181313 0.117576 0)
(-0.19385 0.0765248 0)
(-0.201365 0.0314914 0)
(-0.203861 -0.0156543 0)
(-0.201113 -0.0630389 0)
(-0.192651 -0.108473 0)
(-0.177859 -0.149148 0)
(-0.156225 -0.18139 0)
(-0.127781 -0.20058 0)
(-0.0936448 -0.201399 0)
(-0.0567333 -0.178552 0)
(-0.0234799 -0.128158 0)
(-0.00443553 -0.0500988 0)
(-0.00472562 0.0595653 0)
(-0.0236959 0.146602 0)
(-0.0553859 0.199735 0)
(-0.0893813 0.222766 0)
(-0.120129 0.221866 0)
(-0.145684 0.203163 0)
(-0.165641 0.171819 0)
(-0.180383 0.131794 0)
(-0.190593 0.08596 0)
(-0.196876 0.0363735 0)
(-0.199514 -0.0153664 0)
(-0.198347 -0.0677321 0)
(-0.192728 -0.11885 0)
(-0.181583 -0.166057 0)
(-0.163652 -0.205464 0)
(-0.137972 -0.231636 0)
(-0.104599 -0.237601 0)
(-0.0657352 -0.215504 0)
(-0.0283783 -0.158353 0)
(-0.00568218 -0.0635467 0)
(-0.00605195 0.0732233 0)
(-0.0282277 0.17555 0)
(-0.0625131 0.233552 0)
(-0.0962644 0.254724 0)
(-0.123867 0.248708 0)
(-0.144411 0.224004 0)
(-0.158686 0.187088 0)
(-0.168125 0.142447 0)
(-0.17422 0.0929597 0)
(-0.178138 0.0403762 0)
(-0.180504 -0.0141949 0)
(-0.181284 -0.0698115 0)
(-0.179712 -0.125196 0)
(-0.174284 -0.178161 0)
(-0.162906 -0.224951 0)
(-0.143325 -0.259565 0)
(-0.113943 -0.273307 0)
(-0.0753961 -0.255048 0)
(-0.0345574 -0.193077 0)
(-0.00748648 -0.0800992 0)
(-0.0081925 0.0900424 0)
(-0.0344849 0.20801 0)
(-0.0704175 0.267868 0)
(-0.101032 0.283587 0)
(-0.121587 0.269791 0)
(-0.133124 0.237821 0)
(-0.138182 0.195387 0)
(-0.139484 0.14722 0)
(-0.139391 0.095901 0)
(-0.139619 0.0426168 0)
(-0.141133 -0.0122301 0)
(-0.144078 -0.068499 0)
(-0.147689 -0.125781 0)
(-0.150187 -0.182753 0)
(-0.148735 -0.236305 0)
(-0.139654 -0.280427 0)
(-0.119102 -0.305006 0)
(-0.08494 -0.295142 0)
(-0.042442 -0.232366 0)
(-0.0102163 -0.100832 0)
(-0.0117679 0.111633 0)
(-0.0432619 0.243953 0)
(-0.0783027 0.300022 0)
(-0.100637 0.305077 0)
(-0.108364 0.280444 0)
(-0.105748 0.240367 0)
(-0.0975494 0.193267 0)
(-0.0877935 0.143538 0)
(-0.0795254 0.093029 0)
(-0.0748107 0.0420925 0)
(-0.0748282 -0.00972672 0)
(-0.0799149 -0.0632048 0)
(-0.089485 -0.11898 0)
(-0.101808 -0.176944 0)
(-0.113702 -0.23527 0)
(-0.120317 -0.288866 0)
(-0.115271 -0.327181 0)
(-0.092271 -0.331781 0)
(-0.0523174 -0.275394 0)
(-0.0144306 -0.127344 0)
(-0.0175497 0.140657 0)
(-0.0547665 0.28214 0)
(-0.082791 0.32471 0)
(-0.0880887 0.312463 0)
(-0.0751206 0.274444 0)
(-0.0526068 0.226759 0)
(-0.0274777 0.177278 0)
(-0.00453653 0.129127 0)
(0.0130749 0.0829074 0)
(0.023415 0.0379449 0)
(0.0253736 -0.00707211 0)
(0.0184835 -0.053754 0)
(0.00295791 -0.103745 0)
(-0.020016 -0.158311 0)
(-0.0477015 -0.217491 0)
(-0.0749966 -0.278349 0)
(-0.0935547 -0.33178 0)
(-0.0920682 -0.357673 0)
(-0.0632823 -0.319288 0)
(-0.0206339 -0.161971 0)
(-0.02545 0.18171 0)
(-0.065776 0.317769 0)
(-0.0733367 0.331357 0)
(-0.0480837 0.295394 0)
(-0.00558828 0.244204 0)
(0.0412051 0.192372 0)
(0.0846364 0.14504 0)
(0.120517 0.102966 0)
(0.146681 0.0651342 0)
(0.162025 0.02989 0)
(0.165919 -0.00467072 0)
(0.157914 -0.0406255 0)
(0.137712 -0.0802418 0)
(0.105423 -0.125912 0)
(0.0622479 -0.179719 0)
(0.0117949 -0.242013 0)
(-0.0378373 -0.307871 0)
(-0.0716836 -0.360137 0)
(-0.0700571 -0.356604 0)
(-0.0279126 -0.208374 0)
(-0.0296491 0.239176 0)
(-0.060842 0.335766 0)
(-0.0219447 0.3005 0)
(0.0505373 0.240124 0)
(0.127565 0.182945 0)
(0.196997 0.135385 0)
(0.254324 0.097395 0)
(0.298235 0.0668479 0)
(0.328808 0.0413533 0)
(0.346449 0.0187778 0)
(0.351358 -0.00279368 0)
(0.343285 -0.0252635 0)
(0.321453 -0.0507851 0)
(0.284628 -0.0820447 0)
(0.23156 -0.122442 0)
(0.162172 -0.175665 0)
(0.0798947 -0.243428 0)
(-0.00319319 -0.319133 0)
(-0.0546708 -0.36861 0)
(-0.0284596 -0.267617 0)
(0.00808317 0.281862 0)
(0.019783 0.294972 0)
(0.139065 0.210972 0)
(0.264458 0.143476 0)
(0.364363 0.0971843 0)
(0.440358 0.0657757 0)
(0.496734 0.0442359 0)
(0.536864 0.0288848 0)
(0.563435 0.0171981 0)
(0.578293 0.00748452 0)
(0.582368 -0.00149389 0)
(0.575684 -0.0108446 0)
(0.557298 -0.021846 0)
(0.525126 -0.0363336 0)
(0.475769 -0.0572581 0)
(0.404532 -0.0893826 0)
(0.305172 -0.13974 0)
(0.173415 -0.216385 0)
(0.0411713 -0.311654 0)
(0.0184301 -0.299995 0)
(0.299604 0.146091 0)
(0.396272 0.127503 0)
(0.55742 0.0760894 0)
(0.674487 0.043723 0)
(0.743887 0.0255718 0)
(0.787151 0.0152419 0)
(0.815482 0.00921205 0)
(0.833951 0.00550919 0)
(0.845381 0.00302705 0)
(0.851367 0.00114932 0)
(0.852661 -0.000499316 0)
(0.849378 -0.00221492 0)
(0.840996 -0.00433835 0)
(0.826137 -0.00742383 0)
(0.802075 -0.012532 0)
(0.763619 -0.0217726 0)
(0.699107 -0.0392827 0)
(0.583952 -0.07266 0)
(0.415827 -0.127868 0)
(0.308819 -0.149468 0)
)
;

boundaryField
{
    movingWall
    {
        type            fixedValue;
        value           uniform (1 0 0);
    }
    fixedWalls
    {
        type            noSlip;
    }
    frontAndBack
    {
        type            empty;
    }
}


// ************************************************************************* //
