/*--------------------------------*- C++ -*----------------------------------*\
  =========                 |
  \\      /  F ield         | OpenFOAM: The Open Source CFD Toolbox
   \\    /   O peration     | Website:  https://openfoam.org
    \\  /    A nd           | Version:  8
     \\/     M anipulation  |
\*---------------------------------------------------------------------------*/
FoamFile
{
    version     2.0;
    format      ascii;
    class       surfaceScalarField;
    location    "1.79";
    object      phi;
}
// * * * * * * * * * * * * * * * * * * * * * * * * * * * * * * * * * * * * * //

dimensions      [0 3 -1 0 0 0 0];

internalField   nonuniform List<scalar> 
760
(
1.24967e-06
-8.66777e-21
1.24967e-06
-3.32663e-21
1.24967e-06
-2.34977e-21
1.24967e-06
-9.81423e-22
1.24967e-06
-6.86897e-22
1.24967e-06
-4.6259e-22
1.24967e-06
-2.4405e-23
1.24967e-06
-2.16606e-22
1.24967e-06
3.56517e-23
1.24967e-06
8.5734e-23
1.24967e-06
4.79169e-24
1.24967e-06
2.20372e-22
1.24967e-06
2.08954e-22
1.24967e-06
1.44014e-22
1.24967e-06
-2.88844e-22
1.24967e-06
-4.05971e-22
1.24967e-06
-4.54717e-22
1.24967e-06
-8.83668e-22
1.24967e-06
-1.9424e-21
-3.26245e-21
3.74901e-06
-4.28749e-21
3.74901e-06
-3.38883e-21
3.74901e-06
-2.31634e-21
3.74901e-06
-1.78808e-21
3.74901e-06
-1.46857e-21
3.74901e-06
-1.35321e-21
3.74901e-06
-7.58059e-22
3.74901e-06
-2.29924e-22
3.74901e-06
-4.65043e-23
3.74901e-06
-2.17147e-22
3.74901e-06
1.09627e-22
3.74901e-06
-2.41091e-22
3.74901e-06
-2.47942e-23
3.74901e-06
3.60418e-22
3.74901e-06
-1.07039e-22
3.74901e-06
-3.01638e-22
3.74901e-06
-2.49534e-22
3.74901e-06
-1.55265e-21
3.74901e-06
-2.19801e-21
-2.93463e-21
6.24837e-06
-1.92037e-21
6.24837e-06
-2.7778e-21
6.24837e-06
-1.49495e-21
6.24837e-06
-1.18308e-21
6.24837e-06
-1.58985e-21
6.24837e-06
-2.35698e-21
6.24837e-06
-1.76389e-21
6.24837e-06
-1.70262e-21
6.24837e-06
-1.86285e-21
6.24837e-06
-1.08224e-21
6.24837e-06
2.01781e-22
6.24837e-06
6.02692e-23
6.24837e-06
-7.55403e-22
6.24837e-06
-9.71849e-22
6.24837e-06
-4.57599e-22
6.24837e-06
-2.2348e-22
6.24837e-06
1.27816e-22
6.24837e-06
-1.94795e-23
6.24837e-06
-9.05213e-22
-1.11478e-21
8.74778e-06
-7.61831e-22
8.74778e-06
-4.43075e-22
8.74778e-06
-1.04025e-21
8.74778e-06
-1.47467e-21
8.74778e-06
-3.58744e-21
8.74778e-06
-3.82051e-21
8.74778e-06
-3.9923e-21
8.74778e-06
-2.47724e-21
8.74778e-06
-1.82043e-21
8.74778e-06
-2.26701e-21
8.74778e-06
-2.3167e-21
8.74778e-06
-2.52462e-21
8.74778e-06
-2.26636e-21
8.74778e-06
-1.70325e-21
8.74778e-06
-7.81237e-22
8.74778e-06
-3.41479e-22
8.74778e-06
1.06676e-21
8.74778e-06
2.78818e-21
8.74778e-06
2.09754e-21
1.45366e-21
1.12472e-05
1.5819e-21
1.12472e-05
-4.95612e-22
1.12472e-05
-1.22257e-21
1.12472e-05
-3.11215e-21
1.12472e-05
-4.81818e-21
1.12472e-05
-4.22739e-21
1.12472e-05
-3.75654e-21
1.12472e-05
-4.27796e-21
1.12472e-05
-3.32735e-21
1.12472e-05
-3.2917e-21
1.12472e-05
-3.42524e-21
1.12472e-05
-3.90787e-21
1.12472e-05
-2.32608e-21
1.12472e-05
-1.20063e-21
1.12472e-05
-8.52177e-22
1.12472e-05
1.26193e-21
1.12472e-05
3.42875e-21
1.12472e-05
3.64585e-21
1.12472e-05
3.8222e-21
3.07991e-21
1.37468e-05
1.29622e-21
1.37468e-05
-1.50591e-21
1.37468e-05
-4.5438e-21
1.37468e-05
-5.07013e-21
1.37468e-05
-3.96928e-21
1.37468e-05
-3.84951e-21
1.37468e-05
-5.14781e-21
1.37468e-05
-5.10915e-21
1.37468e-05
-3.84149e-21
1.37468e-05
-4.62989e-21
1.37468e-05
-4.841e-21
1.37468e-05
-3.51521e-21
1.37468e-05
-2.41409e-21
1.37468e-05
-4.2364e-22
1.37468e-05
2.537e-21
1.37468e-05
4.18929e-21
1.37468e-05
5.12123e-21
1.37468e-05
5.20487e-21
1.37468e-05
5.82059e-21
3.54791e-21
1.62464e-05
2.26886e-23
1.62464e-05
-1.70887e-21
1.62464e-05
-4.80452e-21
1.62464e-05
-6.89316e-21
1.62464e-05
-4.44278e-21
1.62464e-05
-4.76068e-21
1.62464e-05
-3.67711e-21
1.62464e-05
-2.5012e-21
1.62464e-05
-3.35938e-21
1.62464e-05
-2.62457e-21
1.62464e-05
-3.29708e-21
1.62464e-05
-2.52607e-21
1.62464e-05
-1.58204e-21
1.62464e-05
3.67654e-21
1.62464e-05
5.19074e-21
1.62464e-05
6.53143e-21
1.62464e-05
6.77444e-21
1.62464e-05
5.94754e-21
1.62464e-05
2.12867e-21
-1.47177e-22
1.87461e-05
-2.80626e-21
1.87461e-05
-5.64526e-21
1.87461e-05
-7.0618e-21
1.87461e-05
-7.36786e-21
1.87461e-05
-7.57877e-21
1.87461e-05
-6.39948e-21
1.87461e-05
-5.16659e-21
1.87461e-05
-3.79029e-21
1.87461e-05
-3.34933e-21
1.87461e-05
-2.83555e-21
1.87461e-05
-2.78455e-21
1.87461e-05
-2.66235e-21
1.87461e-05
7.27085e-22
1.87461e-05
5.22068e-21
1.87461e-05
8.33519e-21
1.87461e-05
9.0719e-21
1.87461e-05
6.86106e-21
1.87461e-05
4.92837e-21
1.87461e-05
3.16137e-21
-3.46544e-22
2.12459e-05
-1.23502e-21
2.12459e-05
-6.27249e-21
2.12459e-05
-7.64044e-21
2.12459e-05
-9.05615e-21
2.12459e-05
-9.69862e-21
2.12459e-05
-7.46361e-21
2.12459e-05
-3.82527e-21
2.12459e-05
-4.67541e-21
2.12459e-05
-3.38335e-21
2.12459e-05
-2.0992e-21
2.12459e-05
-2.88432e-22
2.12459e-05
1.22891e-22
2.12459e-05
4.03388e-22
2.12459e-05
2.24687e-21
2.12459e-05
7.42094e-21
2.12459e-05
7.48305e-21
2.12459e-05
5.19372e-21
2.12459e-05
3.15563e-21
2.12459e-05
2.52294e-21
4.38461e-21
2.37458e-05
-3.61066e-21
2.37458e-05
-3.30892e-21
2.37458e-05
-4.46247e-21
2.37458e-05
-6.19381e-21
2.37458e-05
-8.77129e-21
2.37458e-05
-9.47286e-21
2.37458e-05
-8.77688e-21
2.37458e-05
-2.22233e-21
2.37458e-05
-2.76677e-22
2.37458e-05
4.68354e-22
2.37458e-05
-1.02568e-21
2.37458e-05
-6.82067e-22
2.37458e-05
1.04937e-21
2.37458e-05
3.18131e-21
2.37458e-05
6.38387e-21
2.37458e-05
6.41341e-21
2.37458e-05
5.42082e-21
2.37458e-05
3.56224e-21
2.37458e-05
4.10838e-22
-2.39054e-21
2.62458e-05
-4.67538e-21
2.62458e-05
-5.58184e-21
2.62458e-05
-3.04577e-21
2.62458e-05
-6.19088e-21
2.62458e-05
-4.86538e-21
2.62458e-05
-5.34388e-21
2.62458e-05
-5.99522e-21
2.62458e-05
-6.25964e-21
2.62458e-05
-3.23602e-21
2.62458e-05
1.39123e-22
2.62458e-05
-4.10336e-22
2.62458e-05
2.93814e-21
2.62458e-05
4.34155e-21
2.62458e-05
3.78175e-21
2.62458e-05
5.30522e-21
2.62458e-05
5.10359e-21
2.62458e-05
5.8464e-21
2.62458e-05
2.81243e-21
2.62458e-05
-5.84125e-22
-3.80885e-21
2.87459e-05
-9.01024e-21
2.87459e-05
-4.41471e-21
2.87459e-05
-4.94185e-21
2.87459e-05
-2.48467e-21
2.87459e-05
-4.71637e-21
2.87459e-05
-6.08052e-21
2.87459e-05
-6.57867e-21
2.87459e-05
-6.10573e-21
2.87459e-05
-4.47581e-21
2.87459e-05
-2.53576e-21
2.87459e-05
2.78748e-21
2.87459e-05
6.7131e-21
2.87459e-05
1.11179e-20
2.87459e-05
7.43094e-21
2.87459e-05
5.83416e-21
2.87459e-05
3.61284e-21
2.87459e-05
3.05016e-21
2.87459e-05
3.79758e-21
2.87459e-05
-2.15151e-21
-9.54138e-21
3.12461e-05
-5.67447e-21
3.12461e-05
-3.73238e-21
3.12461e-05
-4.99874e-21
3.12461e-05
-3.6398e-21
3.12461e-05
-4.44221e-21
3.12461e-05
-3.7084e-21
3.12461e-05
-6.6431e-21
3.12461e-05
-5.79156e-21
3.12461e-05
-2.84679e-21
3.12461e-05
-5.00728e-22
3.12461e-05
3.67074e-21
3.12461e-05
1.11437e-20
3.12461e-05
1.68469e-20
3.12461e-05
1.73384e-20
3.12461e-05
7.98339e-21
3.12461e-05
5.31968e-21
3.12461e-05
-2.63969e-21
3.12461e-05
-6.39099e-21
3.12461e-05
-7.73732e-21
-6.33957e-21
3.37464e-05
-8.06136e-21
3.37464e-05
-6.16481e-21
3.37464e-05
-7.4876e-21
3.37464e-05
-5.91167e-21
3.37464e-05
3.1507e-22
3.37464e-05
2.58221e-23
3.37464e-05
-4.5455e-22
3.37464e-05
-4.72369e-21
3.37464e-05
-6.11649e-21
3.37464e-05
1.95536e-22
3.37464e-05
8.3317e-21
3.37464e-05
1.29859e-20
3.37464e-05
1.50625e-20
3.37464e-05
1.52695e-20
3.37464e-05
1.3147e-20
3.37464e-05
5.31627e-21
3.37464e-05
-1.37543e-21
3.37464e-05
-7.42282e-21
3.37464e-05
-9.41534e-21
-1.33123e-20
3.62468e-05
-9.86906e-21
3.62468e-05
-5.795e-21
3.62468e-05
1.50426e-21
3.62468e-05
-4.36585e-22
3.62468e-05
1.23425e-21
3.62468e-05
-3.52257e-21
3.62468e-05
-8.25034e-21
3.62468e-05
-9.43161e-21
3.62468e-05
-5.94459e-21
3.62468e-05
-5.72131e-22
3.62468e-05
8.88797e-21
3.62468e-05
1.34923e-20
3.62468e-05
1.54553e-20
3.62468e-05
1.61758e-20
3.62468e-05
1.21897e-20
3.62468e-05
4.39298e-21
3.62468e-05
-2.73524e-21
3.62468e-05
-7.17113e-21
3.62468e-05
-1.12816e-20
-1.0484e-20
3.87472e-05
-6.14566e-21
3.87472e-05
-2.07961e-21
3.87472e-05
2.92752e-21
3.87472e-05
6.92596e-21
3.87472e-05
-2.35769e-21
3.87472e-05
-6.61644e-21
3.87472e-05
-9.4116e-21
3.87472e-05
-7.24183e-21
3.87472e-05
-3.26931e-21
3.87472e-05
-3.06952e-21
3.87472e-05
3.18717e-23
3.87472e-05
8.31029e-21
3.87472e-05
1.2779e-20
3.87472e-05
1.20935e-20
3.87472e-05
1.17715e-20
3.87472e-05
3.49235e-21
3.87472e-05
-2.30794e-21
3.87472e-05
-1.0199e-20
3.87472e-05
-6.99569e-21
-4.38688e-21
4.12478e-05
-1.80356e-21
4.12478e-05
3.84413e-21
4.12478e-05
2.25442e-21
4.12478e-05
1.10076e-21
4.12478e-05
1.90571e-21
4.12478e-05
-5.03851e-21
4.12478e-05
-5.97677e-21
4.12478e-05
-7.21649e-21
4.12478e-05
-7.57778e-21
4.12478e-05
-5.45925e-21
4.12478e-05
9.19016e-22
4.12478e-05
6.57049e-21
4.12478e-05
8.05469e-21
4.12478e-05
1.22192e-20
4.12478e-05
7.95694e-21
4.12478e-05
1.6413e-21
4.12478e-05
-4.58738e-21
4.12478e-05
-7.14085e-21
4.12478e-05
-8.47267e-21
-6.30988e-21
4.37484e-05
5.28307e-22
4.37484e-05
1.62236e-21
4.37484e-05
2.77187e-21
4.37484e-05
2.79422e-21
4.37484e-05
1.96384e-21
4.37484e-05
-2.10041e-21
4.37484e-05
-5.92192e-21
4.37484e-05
-9.98044e-21
4.37484e-05
-4.58723e-21
4.37484e-05
-2.48784e-21
4.37484e-05
-3.1144e-21
4.37484e-05
5.26596e-21
4.37484e-05
7.80217e-21
4.37484e-05
7.06189e-21
4.37484e-05
8.45173e-22
4.37484e-05
1.93203e-21
4.37484e-05
-2.20034e-21
4.37484e-05
-3.52349e-21
4.37484e-05
-1.53263e-21
-3.03536e-21
4.6249e-05
-1.56306e-21
4.6249e-05
-6.71069e-21
4.6249e-05
2.01831e-21
4.6249e-05
7.21125e-21
4.6249e-05
8.80292e-22
4.6249e-05
1.00093e-21
4.6249e-05
-2.48299e-21
4.6249e-05
-5.87119e-21
4.6249e-05
-3.08369e-21
4.6249e-05
2.77273e-21
4.6249e-05
5.22188e-22
4.6249e-05
-1.02125e-21
4.6249e-05
4.80316e-21
4.6249e-05
2.70955e-21
4.6249e-05
8.02239e-21
4.6249e-05
2.17239e-21
4.6249e-05
-9.96139e-22
4.6249e-05
-3.16455e-21
4.6249e-05
-1.47609e-21
2.53961e-21
4.87497e-05
4.87497e-05
4.87497e-05
4.87497e-05
4.87497e-05
4.87497e-05
4.87497e-05
4.87497e-05
4.87497e-05
4.87497e-05
4.87497e-05
4.87497e-05
4.87497e-05
4.87497e-05
4.87497e-05
4.87497e-05
4.87497e-05
4.87497e-05
4.87497e-05
)
;

boundaryField
{
    movingWall
    {
        type            calculated;
        value           uniform 0;
    }
    fixedWalls
    {
        type            calculated;
        value           uniform 0;
    }
    left
    {
        type            cyclic;
        value           nonuniform List<scalar> 
20
(
-3.87472e-05
-3.62468e-05
-3.37464e-05
-3.12461e-05
-2.87459e-05
-2.62458e-05
-2.37458e-05
-2.12459e-05
-1.87461e-05
-1.62464e-05
-1.37468e-05
-1.12472e-05
-8.74778e-06
-6.24837e-06
-3.74901e-06
-1.24967e-06
-4.12478e-05
-4.37484e-05
-4.6249e-05
-4.87497e-05
)
;
    }
    right
    {
        type            cyclic;
        value           nonuniform List<scalar> 
20
(
3.87472e-05
3.62468e-05
3.37464e-05
3.12461e-05
2.87459e-05
2.62458e-05
2.37458e-05
2.12459e-05
1.87461e-05
1.62464e-05
1.37468e-05
1.12472e-05
8.74778e-06
6.24837e-06
3.74901e-06
1.24967e-06
4.12478e-05
4.37484e-05
4.6249e-05
4.87497e-05
)
;
    }
    frontAndBack
    {
        type            empty;
        value           nonuniform List<scalar> 0();
    }
}


// ************************************************************************* //
