/*--------------------------------*- C++ -*----------------------------------*\
  =========                 |
  \\      /  F ield         | OpenFOAM: The Open Source CFD Toolbox
   \\    /   O peration     | Website:  https://openfoam.org
    \\  /    A nd           | Version:  8
     \\/     M anipulation  |
\*---------------------------------------------------------------------------*/
FoamFile
{
    version     2.0;
    format      ascii;
    class       volVectorField;
    location    "1.79";
    object      U;
}
// * * * * * * * * * * * * * * * * * * * * * * * * * * * * * * * * * * * * * //

dimensions      [0 1 -1 0 0 0 0];

internalField   nonuniform List<vector> 
400
(
(0.0249933 -6.38458e-17 0)
(0.0249933 -2.50309e-17 0)
(0.0249933 -2.52461e-17 0)
(0.0249933 -1.32919e-17 0)
(0.0249933 -7.6872e-18 0)
(0.0249933 -4.37291e-18 0)
(0.0249933 5.95223e-19 0)
(0.0249933 -5.46575e-20 0)
(0.0249933 3.30265e-18 0)
(0.0249933 3.07774e-18 0)
(0.0249933 2.16866e-18 0)
(0.0249933 3.8053e-18 0)
(0.0249933 4.44776e-18 0)
(0.0249933 2.49712e-18 0)
(0.0249933 -2.87591e-18 0)
(0.0249933 -5.06078e-18 0)
(0.0249933 -7.31779e-18 0)
(0.0249933 -1.2596e-17 0)
(0.0249933 -2.25605e-17 0)
(0.0249933 -2.64505e-17 0)
(0.0749802 -1.3885e-16 0)
(0.0749802 -6.02871e-17 0)
(0.0749802 -4.7316e-17 0)
(0.0749802 -2.813e-17 0)
(0.0749802 -2.11195e-17 0)
(0.0749802 -1.67518e-17 0)
(0.0749802 -4.72357e-18 0)
(0.0749802 -1.23521e-18 0)
(0.0749802 2.31263e-18 0)
(0.0749802 2.07839e-18 0)
(0.0749802 3.93259e-18 0)
(0.0749802 3.9466e-18 0)
(0.0749802 4.65421e-18 0)
(0.0749802 8.05841e-18 0)
(0.0749802 -3.09195e-18 0)
(0.0749802 -6.88374e-18 0)
(0.0749802 -8.01338e-18 0)
(0.0749802 -2.83778e-17 0)
(0.0749802 -4.46808e-17 0)
(0.0749802 -5.65288e-17 0)
(0.124967 -5.28694e-17 0)
(0.124967 -6.39963e-17 0)
(0.124967 -3.55172e-17 0)
(0.124967 -2.66199e-17 0)
(0.124967 -2.88158e-17 0)
(0.124967 -3.48559e-17 0)
(0.124967 -2.42834e-17 0)
(0.124967 -1.88622e-17 0)
(0.124967 -1.55025e-17 0)
(0.124967 -1.00761e-17 0)
(0.124967 8.90737e-18 0)
(0.124967 2.3178e-18 0)
(0.124967 -3.54984e-18 0)
(0.124967 -4.4392e-18 0)
(0.124967 -5.30845e-18 0)
(0.124967 -6.56679e-18 0)
(0.124967 -3.62298e-18 0)
(0.124967 -1.75109e-17 0)
(0.124967 -3.40843e-17 0)
(0.124967 -4.55179e-17 0)
(0.174956 -3.44103e-17 0)
(0.174956 -3.19627e-17 0)
(0.174956 -2.32387e-17 0)
(0.174956 -2.17303e-17 0)
(0.174956 -4.96108e-17 0)
(0.174956 -6.27048e-17 0)
(0.174956 -5.79301e-17 0)
(0.174956 -4.20098e-17 0)
(0.174956 -3.70552e-17 0)
(0.174956 -3.06533e-17 0)
(0.174956 -2.01376e-17 0)
(0.174956 -2.2619e-17 0)
(0.174956 -2.9912e-17 0)
(0.174956 -2.95384e-17 0)
(0.174956 -1.53637e-17 0)
(0.174956 -1.03813e-17 0)
(0.174956 8.75832e-18 0)
(0.174956 2.61184e-17 0)
(0.174956 1.21626e-17 0)
(0.174956 1.29568e-19 0)
(0.224945 1.11098e-17 0)
(0.224945 -8.00276e-18 0)
(0.224945 -1.72974e-17 0)
(0.224945 -4.51002e-17 0)
(0.224945 -8.30283e-17 0)
(0.224945 -7.94203e-17 0)
(0.224945 -7.63322e-17 0)
(0.224945 -6.3627e-17 0)
(0.224945 -5.20562e-17 0)
(0.224945 -5.67784e-17 0)
(0.224945 -5.99115e-17 0)
(0.224945 -6.80309e-17 0)
(0.224945 -5.17543e-17 0)
(0.224945 -3.19953e-17 0)
(0.224945 -2.22269e-17 0)
(0.224945 6.48444e-18 0)
(0.224945 4.31341e-17 0)
(0.224945 6.64215e-17 0)
(0.224945 6.30387e-17 0)
(0.224945 5.11498e-17 0)
(0.274935 3.46194e-17 0)
(0.274935 -1.50209e-17 0)
(0.274935 -5.67193e-17 0)
(0.274935 -8.05383e-17 0)
(0.274935 -8.70078e-17 0)
(0.274935 -8.02791e-17 0)
(0.274935 -8.81703e-17 0)
(0.274935 -9.48001e-17 0)
(0.274935 -6.90378e-17 0)
(0.274935 -8.31528e-17 0)
(0.274935 -8.61902e-17 0)
(0.274935 -8.34507e-17 0)
(0.274935 -5.37631e-17 0)
(0.274935 -2.27143e-17 0)
(0.274935 1.33506e-17 0)
(0.274935 5.16876e-17 0)
(0.274935 8.70972e-17 0)
(0.274935 9.19484e-17 0)
(0.274935 1.01033e-16 0)
(0.274935 7.07732e-17 0)
(0.324928 1.55826e-17 0)
(0.324928 -3.02389e-17 0)
(0.324928 -9.22457e-17 0)
(0.324928 -1.18073e-16 0)
(0.324928 -8.22139e-17 0)
(0.324928 -8.55405e-17 0)
(0.324928 -9.07557e-17 0)
(0.324928 -7.95579e-17 0)
(0.324928 -7.69121e-17 0)
(0.324928 -7.46919e-17 0)
(0.324928 -8.72645e-17 0)
(0.324928 -6.17798e-17 0)
(0.324928 -4.38622e-17 0)
(0.324928 2.8881e-17 0)
(0.324928 7.89076e-17 0)
(0.324928 1.08433e-16 0)
(0.324928 1.2226e-16 0)
(0.324928 1.13995e-16 0)
(0.324928 8.19295e-17 0)
(0.324928 3.55753e-17 0)
(0.374922 -3.12013e-17 0)
(0.374922 -7.77645e-17 0)
(0.374922 -1.21794e-16 0)
(0.374922 -1.43997e-16 0)
(0.374922 -1.20348e-16 0)
(0.374922 -1.11429e-16 0)
(0.374922 -9.05492e-17 0)
(0.374922 -6.86665e-17 0)
(0.374922 -7.19875e-17 0)
(0.374922 -5.72106e-17 0)
(0.374922 -6.35654e-17 0)
(0.374922 -5.08513e-17 0)
(0.374922 -4.34832e-18 0)
(0.374922 9.73975e-17 0)
(0.374922 1.40485e-16 0)
(0.374922 1.65455e-16 0)
(0.374922 1.40139e-16 0)
(0.374922 1.11555e-16 0)
(0.374922 5.4989e-17 0)
(0.374922 -5.0394e-18 0)
(0.424917 -4.04587e-17 0)
(0.424917 -1.22355e-16 0)
(0.424917 -1.56576e-16 0)
(0.424917 -1.72277e-16 0)
(0.424917 -1.77121e-16 0)
(0.424917 -1.41338e-16 0)
(0.424917 -8.98177e-17 0)
(0.424917 -8.39286e-17 0)
(0.424917 -6.78397e-17 0)
(0.424917 -5.34597e-17 0)
(0.424917 -2.66472e-17 0)
(0.424917 -2.44509e-17 0)
(0.424917 1.67149e-17 0)
(0.424917 8.31293e-17 0)
(0.424917 1.67321e-16 0)
(0.424917 1.71583e-16 0)
(0.424917 1.26215e-16 0)
(0.424917 8.52606e-17 0)
(0.424917 5.82491e-17 0)
(0.424917 4.17288e-17 0)
(0.474915 -4.63947e-17 0)
(0.474915 -9.74256e-17 0)
(0.474915 -1.23075e-16 0)
(0.474915 -1.60278e-16 0)
(0.474915 -1.94219e-16 0)
(0.474915 -1.72188e-16 0)
(0.474915 -1.25172e-16 0)
(0.474915 -6.45619e-17 0)
(0.474915 -3.66485e-17 0)
(0.474915 -1.15379e-17 0)
(0.474915 -1.18909e-17 0)
(0.474915 -4.53636e-18 0)
(0.474915 1.34305e-17 0)
(0.474915 5.11292e-17 0)
(0.474915 1.40128e-16 0)
(0.474915 1.41115e-16 0)
(0.474915 1.09727e-16 0)
(0.474915 6.89085e-17 0)
(0.474915 3.51623e-17 0)
(0.474915 2.90444e-17 0)
(0.524915 -7.63734e-17 0)
(0.524915 -8.53452e-17 0)
(0.524915 -7.30516e-17 0)
(0.524915 -1.23877e-16 0)
(0.524915 -1.4076e-16 0)
(0.524915 -1.49256e-16 0)
(0.524915 -1.48087e-16 0)
(0.524915 -8.36287e-17 0)
(0.524915 -2.97471e-17 0)
(0.524915 9.51266e-18 0)
(0.524915 -1.61556e-17 0)
(0.524915 1.97335e-17 0)
(0.524915 4.47124e-17 0)
(0.524915 5.84744e-17 0)
(0.524915 1.09078e-16 0)
(0.524915 1.18153e-16 0)
(0.524915 1.15559e-16 0)
(0.524915 7.17589e-17 0)
(0.524915 2.66854e-18 0)
(0.524915 -5.99007e-17 0)
(0.574917 -1.37355e-16 0)
(0.574917 -9.35845e-17 0)
(0.574917 -7.46606e-17 0)
(0.574917 -8.27606e-17 0)
(0.574917 -8.90958e-17 0)
(0.574917 -1.18804e-16 0)
(0.574917 -1.22983e-16 0)
(0.574917 -1.21896e-16 0)
(0.574917 -7.52323e-17 0)
(0.574917 -2.45534e-17 0)
(0.574917 2.32267e-17 0)
(0.574917 8.9098e-17 0)
(0.574917 1.46286e-16 0)
(0.574917 1.04057e-16 0)
(0.574917 1.03286e-16 0)
(0.574917 8.25988e-17 0)
(0.574917 9.55376e-17 0)
(0.574917 6.92359e-17 0)
(0.574917 -2.04229e-17 0)
(0.574917 -1.34768e-16 0)
(0.624922 -1.45736e-16 0)
(0.624922 -8.69953e-17 0)
(0.624922 -9.20146e-17 0)
(0.624922 -5.63895e-17 0)
(0.624922 -8.84136e-17 0)
(0.624922 -9.57182e-17 0)
(0.624922 -1.32748e-16 0)
(0.624922 -1.157e-16 0)
(0.624922 -6.92321e-17 0)
(0.624922 -3.24571e-17 0)
(0.624922 6.22751e-17 0)
(0.624922 1.77515e-16 0)
(0.624922 2.82671e-16 0)
(0.624922 2.48552e-16 0)
(0.624922 1.37072e-16 0)
(0.624922 8.53091e-17 0)
(0.624922 1.55999e-18 0)
(0.624922 -2.32206e-17 0)
(0.624922 -1.04391e-16 0)
(0.624922 -1.57004e-16 0)
(0.674928 -1.48872e-16 0)
(0.674928 -9.83963e-17 0)
(0.674928 -1.35649e-16 0)
(0.674928 -9.13166e-17 0)
(0.674928 -4.59881e-17 0)
(0.674928 -2.67557e-17 0)
(0.674928 -6.9643e-17 0)
(0.674928 -1.0478e-16 0)
(0.674928 -8.64792e-17 0)
(0.674928 1.63843e-18 0)
(0.674928 1.20593e-16 0)
(0.674928 2.51861e-16 0)
(0.674928 3.2757e-16 0)
(0.674928 3.41742e-16 0)
(0.674928 2.17783e-16 0)
(0.674928 1.08866e-16 0)
(0.674928 -4.30712e-17 0)
(0.674928 -1.45632e-16 0)
(0.674928 -1.77001e-16 0)
(0.674928 -2.09569e-16 0)
(0.724935 -1.93669e-16 0)
(0.724935 -1.32177e-16 0)
(0.724935 -6.59369e-17 0)
(0.724935 -7.65226e-17 0)
(0.724935 2.38117e-17 0)
(0.724935 -3.93892e-17 0)
(0.724935 -8.35481e-17 0)
(0.724935 -1.39204e-16 0)
(0.724935 -1.23917e-16 0)
(0.724935 1.72884e-18 0)
(0.724935 1.84308e-16 0)
(0.724935 2.73042e-16 0)
(0.724935 3.22569e-16 0)
(0.724935 3.25229e-16 0)
(0.724935 2.6958e-16 0)
(0.724935 1.02916e-16 0)
(0.724935 -4.73233e-17 0)
(0.724935 -1.56427e-16 0)
(0.724935 -2.18987e-16 0)
(0.724935 -2.48792e-16 0)
(0.774945 -1.57356e-16 0)
(0.774945 -8.74194e-17 0)
(0.774945 4.03592e-17 0)
(0.774945 6.27739e-17 0)
(0.774945 -1.6316e-17 0)
(0.774945 -1.01085e-16 0)
(0.774945 -1.80811e-16 0)
(0.774945 -1.68314e-16 0)
(0.774945 -9.25891e-17 0)
(0.774945 -3.69296e-17 0)
(0.774945 9.58666e-17 0)
(0.774945 2.30786e-16 0)
(0.774945 2.90636e-16 0)
(0.774945 2.8995e-16 0)
(0.774945 2.4732e-16 0)
(0.774945 8.08247e-17 0)
(0.774945 -5.45092e-17 0)
(0.774945 -1.7949e-16 0)
(0.774945 -1.9546e-16 0)
(0.774945 -1.53471e-16 0)
(0.824956 -7.75699e-17 0)
(0.824956 3.35875e-17 0)
(0.824956 5.20128e-17 0)
(0.824956 8.48265e-17 0)
(0.824956 -1.30708e-17 0)
(0.824956 -1.16863e-16 0)
(0.824956 -1.5363e-16 0)
(0.824956 -1.52734e-16 0)
(0.824956 -1.11431e-16 0)
(0.824956 -8.50013e-17 0)
(0.824956 1.00607e-17 0)
(0.824956 1.52421e-16 0)
(0.824956 2.09651e-16 0)
(0.824956 2.49826e-16 0)
(0.824956 1.90238e-16 0)
(0.824956 4.94291e-17 0)
(0.824956 -6.82249e-17 0)
(0.824956 -1.79969e-16 0)
(0.824956 -1.53817e-16 0)
(0.824956 -1.06949e-16 0)
(0.874968 -3.8014e-18 0)
(0.874968 5.57817e-17 0)
(0.874968 7.12033e-17 0)
(0.874968 3.98974e-17 0)
(0.874968 5.13153e-17 0)
(0.874968 -7.93347e-17 0)
(0.874968 -1.276e-16 0)
(0.874968 -1.78567e-16 0)
(0.874968 -1.26103e-16 0)
(0.874968 -9.06493e-17 0)
(0.874968 -2.30921e-17 0)
(0.874968 1.1336e-16 0)
(0.874968 1.63189e-16 0)
(0.874968 1.8926e-16 0)
(0.874968 8.86814e-17 0)
(0.874968 3.19198e-17 0)
(0.874968 -7.38447e-17 0)
(0.874968 -1.06495e-16 0)
(0.874968 -9.87881e-17 0)
(0.874968 -8.98994e-17 0)
(0.92498 -1.13815e-17 0)
(0.92498 -5.11644e-17 0)
(0.92498 4.99671e-17 0)
(0.92498 1.26963e-16 0)
(0.92498 3.4468e-17 0)
(0.92498 -4.87515e-18 0)
(0.92498 -9.31184e-17 0)
(0.92498 -1.71701e-16 0)
(0.92498 -9.23117e-17 0)
(0.92498 5.40599e-18 0)
(0.92498 -3.5651e-17 0)
(0.92498 3.76149e-17 0)
(0.92498 1.21638e-16 0)
(0.92498 9.53082e-17 0)
(0.92498 9.39785e-17 0)
(0.92498 4.0585e-17 0)
(0.92498 -3.054e-17 0)
(0.92498 -6.77114e-17 0)
(0.92498 -2.42086e-17 0)
(0.92498 3.79455e-18 0)
(0.974993 -1.81797e-17 0)
(0.974993 -6.0805e-17 0)
(0.974993 3.21352e-17 0)
(0.974993 8.78357e-17 0)
(0.974993 2.75954e-17 0)
(0.974993 1.34323e-17 0)
(0.974993 -3.18807e-17 0)
(0.974993 -6.93449e-17 0)
(0.974993 -3.54929e-17 0)
(0.974993 2.06722e-17 0)
(0.974993 -4.17472e-19 0)
(0.974993 -1.92293e-17 0)
(0.974993 3.9941e-17 0)
(0.974993 2.72966e-17 0)
(0.974993 7.40197e-17 0)
(0.974993 2.25886e-17 0)
(0.974993 -1.11427e-17 0)
(0.974993 -2.24193e-17 0)
(0.974993 -6.54277e-18 0)
(0.974993 2.8695e-17 0)
)
;

boundaryField
{
    movingWall
    {
        type            fixedValue;
        value           uniform (1 0 0);
    }
    fixedWalls
    {
        type            noSlip;
    }
    left
    {
        type            cyclic;
    }
    right
    {
        type            cyclic;
    }
    frontAndBack
    {
        type            empty;
    }
}


// ************************************************************************* //
