0 	1.46516e-08
1.57135 	6.91096e-07
3.1427 	8.51264e-06
4.71405 	4.041e-05
6.28539 	0.000122241
7.85674 	0.000287698
9.42809 	0.000574177
10.9994 	0.00103787
12.5708 	0.00186078
14.1421 	0.00515242
