/*--------------------------------*- C++ -*----------------------------------*\
  =========                 |
  \\      /  F ield         | OpenFOAM: The Open Source CFD Toolbox
   \\    /   O peration     | Website:  https://openfoam.org
    \\  /    A nd           | Version:  8
     \\/     M anipulation  |
\*---------------------------------------------------------------------------*/
FoamFile
{
    version     2.0;
    format      ascii;
    class       volScalarField;
    location    "57";
    object      p;
}
// * * * * * * * * * * * * * * * * * * * * * * * * * * * * * * * * * * * * * //

dimensions      [0 2 -2 0 0 0 0];

internalField   nonuniform List<scalar> 
2844
(
-0.0722832
-0.0926988
-0.113751
-0.139047
-0.152787
-0.155114
-0.146924
-0.131136
-0.111621
-0.0854395
-0.0542093
-0.0256161
-0.000591326
0.0221114
0.0318935
0.0315146
0.0271685
0.0217905
0.0171413
0.00679793
-0.0553248
-0.0743844
-0.10033
-0.134382
-0.152073
-0.155373
-0.146802
-0.13097
-0.112837
-0.08479
-0.054192
-0.0236349
0.00257165
0.0259375
0.0363331
0.0359228
0.0307941
0.0235288
0.0199539
0.00817965
-0.054105
-0.0964691
-0.12414
-0.170526
-0.189435
-0.179026
-0.1658
-0.150276
-0.128513
-0.0985935
-0.0576291
-0.0223575
0.00383194
0.0336954
0.0452102
0.03642
0.0252442
0.0224821
0.0230235
0.00779658
0.00937856
-0.0264619
-0.0837907
-0.164626
-0.202871
-0.189225
-0.169963
-0.146149
-0.133964
-0.0940168
-0.0599086
-0.0197783
0.0224337
0.0478062
0.059249
0.0468858
0.037352
0.027413
0.0254707
0.00909873
0.0104663
-0.0789041
-0.132082
-0.265542
-0.285371
-0.222602
-0.213274
-0.203556
-0.174015
-0.135456
-0.0756714
-0.020385
-0.00434772
0.0329797
0.0522002
0.0121398
-0.00628669
0.0125726
0.030171
0.008712
0.170635
0.0943703
-0.0731341
-0.318204
-0.386852
-0.278153
-0.2287
-0.16621
-0.214744
-0.137508
-0.0789114
-0.0449202
0.0303444
0.0732303
0.0702046
-0.0282589
-0.0311567
-0.0035855
0.000802914
0.000172101
0.154234
0.0196465
-0.248803
-0.532532
-0.498102
-0.321565
-0.353531
-0.360422
-0.337582
-0.218494
-0.185035
-0.0909438
-0.197635
-0.129759
-0.0965869
-0.150635
-0.163009
-0.0611649
-0.0309089
-0.0122209
0.573729
0.463027
-0.279705
-0.846168
-0.874718
-0.407732
-0.277896
-0.31035
-0.695614
-0.305054
-0.115804
0.0102092
0.0735091
0.0961282
-0.00562667
-0.161783
-0.220322
-0.0800289
-0.0468063
-0.0164618
0.471056
0.496585
0.0771189
-0.464371
-0.687912
-0.736977
-0.374346
-0.216294
-0.0497638
0.131248
-0.0137004
-0.1216
-0.179732
-0.119693
-0.07159
-0.0892824
-0.0269512
1.33598
0.888159
0.845413
-0.434061
-0.654827
-0.656691
-0.453993
-0.283049
-0.258144
-0.150248
-0.0862234
-0.152089
-0.15095
-0.0214023
-0.0844223
-0.114885
-0.0242638
0.894891
0.766119
-0.461239
-0.472957
-0.197949
-0.26021
-0.260402
-0.270093
-0.234238
-0.074957
-0.105327
-0.155888
-0.059495
-0.119791
-0.131658
-0.0202769
0.66898
0.520835
0.881009
-0.592915
-0.299778
0.425618
-0.285326
-0.256069
-0.359639
-0.329805
-0.0987832
-0.0563728
-0.0581075
-0.0980381
-0.100824
-0.0713038
-0.0104978
0.3536
0.318712
-0.0164443
-0.584982
-0.540389
-0.251955
0.458777
-0.0683477
-0.225947
-0.243415
-0.227722
-0.117705
-0.0300643
0.00493216
-0.0810701
-0.0941839
-0.020421
0.0105131
0.195109
0.0343488
-0.291269
-0.627278
-0.960471
-0.508639
-0.332311
-0.184829
-0.0676702
-0.144857
-0.187021
-0.156178
-0.127811
-0.0885394
-0.041379
-0.05507
-0.0725661
-0.0597009
-0.0695865
-0.0207624
0.0753718
0.0111085
-0.139755
-0.325769
-0.318949
-0.330528
-0.252436
-0.168112
0.0288014
-0.0344841
-0.0170336
7.10536e-05
-0.0309076
-0.043374
-0.0119621
0.0188957
0.0050975
0.00978238
0.0102655
-0.00430267
-0.00290375
-0.0680399
-0.154311
-0.2787
-0.278301
-0.270814
-0.203013
-0.142168
-0.0796451
-0.0701539
-0.0725204
-0.0570049
-0.0290338
-0.0163055
0.00345539
0.0024034
-0.0006411
-0.00317423
0.0119019
0.00283088
-0.0466044
-0.068706
-0.121802
-0.177078
-0.18966
-0.189358
-0.168144
-0.127399
-0.0558715
-0.0503102
-0.0302689
-0.00611516
-0.011947
-0.010477
0.00787483
0.0100185
0.0104094
0.00898541
0.00998691
0.00357236
-0.0739488
-0.0960376
-0.130773
-0.165853
-0.180895
-0.180224
-0.15437
-0.126599
-0.089552
-0.0675148
-0.058927
-0.0398131
-0.0199282
-0.00925298
0.00324895
0.00658109
0.0109815
0.00421237
0.00623096
0.00353463
-0.087652
-0.0972237
-0.12158
-0.14098
-0.154148
-0.152748
-0.138902
-0.114729
-0.0810867
-0.0589967
-0.0422898
-0.024324
-0.0149426
-0.00725554
0.0044848
0.00621157
0.00738321
0.00522696
0.00349383
0.00212169
-0.0938928
-0.102996
-0.12277
-0.138361
-0.151582
-0.150822
-0.136492
-0.115865
-0.0889937
-0.0663559
-0.0519984
-0.0333915
-0.0191157
-0.00863838
0.00129859
0.00449522
0.00720246
0.00476862
0.00333757
0.0019512
-0.0722754
-0.0926959
-0.11378
-0.139048
-0.152746
-0.154911
-0.146897
-0.131119
-0.111613
-0.0854415
-0.0542094
-0.0256202
-0.000563951
0.0220345
0.0318144
0.0314591
0.0271144
0.0217773
0.0171687
0.00678466
-0.0553193
-0.0743793
-0.100365
-0.134425
-0.152059
-0.155468
-0.146743
-0.130958
-0.112799
-0.0847841
-0.0542112
-0.0236936
0.00273391
0.0258174
0.036078
0.0358348
0.0306788
0.0234567
0.0201007
0.00811877
-0.0540746
-0.0963479
-0.124316
-0.170731
-0.189423
-0.178939
-0.165535
-0.150174
-0.128519
-0.0986475
-0.0575737
-0.0224517
0.0042828
0.0333233
0.0443551
0.0352779
0.024222
0.022235
0.0231724
0.00748869
0.0095116
-0.0264539
-0.084059
-0.164756
-0.203072
-0.188986
-0.169197
-0.147085
-0.13429
-0.0942922
-0.0602223
-0.0201183
0.0216475
0.0475915
0.0583221
0.0445585
0.0342336
0.0275723
0.0256623
0.00826539
0.0104892
-0.0786645
-0.133905
-0.264291
-0.28722
-0.221255
-0.213076
-0.203118
-0.173273
-0.135687
-0.0754759
-0.0238822
-0.00856397
0.0313148
0.0537076
0.0102614
-0.00739192
0.00788835
0.0273774
0.00714763
0.170697
0.0922881
-0.0743592
-0.329288
-0.406651
-0.291043
-0.228991
-0.166438
-0.218065
-0.140514
-0.0840604
-0.0461973
0.0380605
0.0703515
0.0689806
-0.0305571
-0.0328306
-0.00293467
0.00271993
-0.000668461
0.152687
0.0146627
-0.26998
-0.536976
-0.528511
-0.304658
-0.357036
-0.354341
-0.324913
-0.226627
-0.188181
-0.0898639
-0.2116
-0.149945
-0.10399
-0.150843
-0.165878
-0.059515
-0.0306943
-0.0127676
0.577436
0.467756
-0.31167
-0.912068
-0.930458
-0.43855
-0.262542
-0.297296
-0.692859
-0.342253
-0.160707
-0.0105592
0.0430644
0.0966255
-0.00960545
-0.162115
-0.230004
-0.0814253
-0.0491515
-0.0166763
0.454616
0.466229
0.0795072
-0.466076
-0.71284
-0.758616
-0.379862
-0.216124
-0.0551135
0.143435
0.014983
-0.110841
-0.185906
-0.131248
-0.0705228
-0.0882757
-0.030175
1.30453
0.793773
0.777195
-0.434301
-0.638933
-0.646568
-0.450858
-0.287503
-0.265405
-0.142023
-0.0829987
-0.153659
-0.162945
-0.0292912
-0.0848165
-0.11212
-0.0244351
0.854674
0.732038
-0.451775
-0.539191
-0.213112
-0.273597
-0.280269
-0.276142
-0.23299
-0.0810487
-0.115416
-0.17921
-0.0676385
-0.122586
-0.132661
-0.0211007
0.630553
0.533707
0.779558
-0.623548
-0.320133
0.443781
-0.284216
-0.264626
-0.358645
-0.326511
-0.100241
-0.0619675
-0.0611058
-0.0987224
-0.110735
-0.0862698
-0.0114021
0.359068
0.328736
-0.0779366
-0.595951
-0.513534
-0.247066
0.45268
-0.0657384
-0.241248
-0.251774
-0.231243
-0.1191
-0.0379468
-0.00190713
-0.0784747
-0.101784
-0.0337052
0.00565355
0.191515
0.0334407
-0.314585
-0.691907
-0.964928
-0.503691
-0.335787
-0.206741
-0.0959184
-0.142628
-0.189108
-0.159863
-0.121115
-0.0859816
-0.041528
-0.0537152
-0.0776771
-0.057601
-0.0629251
-0.0223123
0.0741034
0.00901049
-0.142167
-0.336068
-0.29676
-0.331185
-0.252766
-0.165339
0.0333116
-0.0351917
-0.0204577
-0.00333337
-0.0322014
-0.0433333
-0.0123216
0.0186562
0.00626081
0.0117714
0.0121342
-0.00652957
-0.00224724
-0.0709371
-0.152949
-0.277366
-0.274799
-0.269065
-0.201902
-0.140029
-0.0802341
-0.0713036
-0.0720944
-0.0563915
-0.0300426
-0.0162276
0.00450684
0.00214273
-0.000941749
-0.00248669
0.0129568
0.00229804
-0.0464013
-0.0692606
-0.121471
-0.176958
-0.18929
-0.18895
-0.167886
-0.127574
-0.0560938
-0.0500467
-0.0306728
-0.00689166
-0.0117209
-0.010575
0.0075265
0.00999598
0.0107728
0.00911108
0.00978238
0.00321796
-0.0739392
-0.0962344
-0.130681
-0.165609
-0.180655
-0.180105
-0.154333
-0.12658
-0.0895066
-0.0675583
-0.0591356
-0.0398187
-0.0200653
-0.00905432
0.00333054
0.00633851
0.0108329
0.0042457
0.00594559
0.00335977
-0.0876407
-0.0972416
-0.121576
-0.140916
-0.154131
-0.152738
-0.138875
-0.114727
-0.0810976
-0.0590045
-0.0422959
-0.0243301
-0.0149569
-0.00722599
0.00438274
0.00617879
0.00739968
0.00517322
0.00348103
0.00211434
-0.0938914
-0.103007
-0.122764
-0.138335
-0.151573
-0.150813
-0.13649
-0.115862
-0.0889856
-0.0663501
-0.0520051
-0.033389
-0.0191132
-0.00864149
0.00132031
0.00448774
0.00719115
0.00476177
0.00332502
0.00194607
-0.0722712
-0.0926858
-0.113817
-0.139073
-0.152689
-0.154862
-0.14688
-0.131099
-0.111607
-0.0854418
-0.0542107
-0.0256206
-0.000510176
0.0220246
0.0318543
0.0314403
0.0270969
0.0217542
0.0172151
0.00678584
-0.0553146
-0.0743698
-0.100399
-0.134506
-0.152016
-0.155597
-0.146668
-0.130894
-0.112743
-0.0847792
-0.0542232
-0.0236797
0.00300101
0.0258996
0.0361259
0.0359742
0.0306827
0.0235431
0.0203333
0.00810552
-0.0540509
-0.0960714
-0.124573
-0.171375
-0.189373
-0.178187
-0.165199
-0.14996
-0.128462
-0.0986619
-0.0576045
-0.0224571
0.00415774
0.0336735
0.044348
0.0348609
0.023783
0.022129
0.0235381
0.00725316
0.00959712
-0.0264597
-0.0841842
-0.166103
-0.203541
-0.188052
-0.167338
-0.145675
-0.134221
-0.0943237
-0.0600568
-0.0197107
0.0221666
0.050285
0.0590155
0.0453345
0.0346835
0.0291209
0.025709
0.00789286
0.0108271
-0.0766488
-0.136249
-0.270872
-0.292883
-0.223911
-0.210251
-0.199761
-0.168764
-0.135416
-0.0739453
-0.0263297
-0.00991105
0.033433
0.0523574
0.00852209
-0.00777388
0.00755552
0.0265372
0.00868077
0.170895
0.0962855
-0.0805647
-0.341896
-0.409122
-0.295899
-0.228281
-0.163497
-0.218694
-0.137269
-0.0795426
-0.0460739
0.0331006
0.0707062
0.0658817
-0.0294601
-0.0311027
-0.00228018
0.00558664
0.00207587
0.151786
0.0162141
-0.238072
-0.549182
-0.547239
-0.297681
-0.351023
-0.341015
-0.31926
-0.225105
-0.173238
-0.0912909
-0.202377
-0.133447
-0.0969698
-0.14449
-0.155096
-0.0562821
-0.0296474
-0.0117966
0.584453
0.501092
-0.294789
-1.00986
-0.921233
-0.467945
-0.262777
-0.264369
-0.680192
-0.324267
-0.143313
0.0282393
0.0930524
0.0940071
-0.0137625
-0.16135
-0.226169
-0.080427
-0.0487088
-0.0155905
0.434499
0.483172
0.100805
-0.461346
-0.703954
-0.758437
-0.373041
-0.205609
-0.0368157
0.137627
0.0083751
-0.105031
-0.191406
-0.149676
-0.0665539
-0.0844757
-0.0245215
1.31695
0.644073
1.13398
-0.42378
-0.59878
-0.615697
-0.44675
-0.28176
-0.274415
-0.164589
-0.0760455
-0.143778
-0.163783
-0.0339927
-0.0815958
-0.107936
-0.0233157
0.907731
0.727531
-0.435442
-0.494063
-0.214245
-0.263911
-0.271286
-0.265321
-0.222244
-0.0844824
-0.109698
-0.16724
-0.0607352
-0.121661
-0.125936
-0.020016
0.658113
0.595572
0.797528
-0.632628
-0.321595
0.433665
-0.284845
-0.272501
-0.358615
-0.320024
-0.100765
-0.0548294
-0.0473299
-0.077145
-0.109331
-0.0907609
-0.00973964
0.363111
0.343975
-0.261192
-0.625331
-0.515474
-0.234702
0.463385
-0.0559714
-0.235547
-0.258339
-0.226834
-0.108181
-0.0310489
0.00413141
-0.0610851
-0.0930866
-0.0321488
0.00496274
0.192935
0.0482166
-0.314172
-0.75608
-0.953018
-0.502163
-0.332154
-0.207537
-0.0937939
-0.146938
-0.194711
-0.169304
-0.118836
-0.0803768
-0.0393226
-0.0534613
-0.0758003
-0.0565082
-0.0593972
-0.0225097
0.0735246
0.0115247
-0.146698
-0.352327
-0.29867
-0.330647
-0.250313
-0.160185
0.0354823
-0.0352368
-0.0250079
-0.00776188
-0.0329615
-0.0437897
-0.0118477
0.0210326
0.00856136
0.013817
0.012809
-0.0081167
-0.00219465
-0.0706189
-0.157371
-0.278556
-0.273795
-0.267905
-0.201461
-0.139129
-0.0810012
-0.0696035
-0.0694931
-0.0551779
-0.0294313
-0.0152873
0.00504151
0.0021247
0.000156093
-0.0011004
0.0134802
0.0012577
-0.0463112
-0.0692222
-0.122871
-0.177069
-0.189015
-0.188795
-0.167706
-0.127981
-0.0562155
-0.0495788
-0.0307555
-0.00685846
-0.0117022
-0.0106482
0.00765072
0.0104847
0.011317
0.00939908
0.0104335
0.00317687
-0.0739488
-0.0962769
-0.130896
-0.165403
-0.180423
-0.180004
-0.154315
-0.126579
-0.0894397
-0.067484
-0.059191
-0.0397393
-0.0200904
-0.00887715
0.00344774
0.00636288
0.0109774
0.00435606
0.00590928
0.00330789
-0.0876354
-0.0972427
-0.12166
-0.140868
-0.154115
-0.152735
-0.138865
-0.114754
-0.0811035
-0.0589942
-0.0422955
-0.0243189
-0.0149637
-0.00720824
0.00437016
0.00621676
0.00747132
0.00514571
0.00347548
0.0021139
-0.0938927
-0.103012
-0.122765
-0.13831
-0.151555
-0.150807
-0.13649
-0.115862
-0.0889756
-0.0663393
-0.0520073
-0.0333826
-0.0191066
-0.0086484
0.0013505
0.00449156
0.00719439
0.00478025
0.00331795
0.00194435
-0.454712
0.00730359
-1.10265
-0.302091
-0.464395
-0.0516551
-1.08422
-1.01825
-0.898485
-1.0552
-0.544413
-0.920317
-0.564826
-0.41321
-0.433504
-0.496633
-0.420854
-0.416596
-0.455678
-0.501069
0.298391
0.381034
0.718407
0.469674
0.310524
0.361194
0.723134
0.897678
0.0544229
0.877054
-0.414238
-0.437381
-0.414492
-0.438611
-0.29937
-0.429332
-0.306657
-0.467223
-0.308894
-0.42881
-0.311035
0.827009
0.996136
0.750597
0.881409
0.773085
0.970615
0.706364
0.79367
-0.440793
-0.439001
-0.416197
-0.445289
-0.45945
-0.434376
-0.417988
-0.442462
-0.46057
0.944528
0.861555
1.13175
0.754735
0.919194
0.832359
1.07311
1.12967
1.11013
-0.56132
-0.558927
-0.535602
-0.558577
-0.597971
-0.45695
-0.538871
-0.559992
-0.605181
0.930082
0.445418
0.369476
0.552663
0.916239
0.466085
0.376138
0.233209
0.839239
0.145546
-0.59084
-0.552999
-0.588902
-0.550985
-0.657757
-0.659434
-0.747266
-0.608714
-0.669202
-0.6806
-0.760418
-1.14942
-0.15493
-0.54172
-0.0199352
-1.20342
-0.161476
-0.55988
-0.849937
-1.15858
-0.895166
-1.17357
-1.08146
-0.713164
-1.12398
-0.739377
-0.506555
-0.611581
-0.543965
-0.591398
-0.499211
-0.64497
-0.547857
-0.415287
-0.0933533
-1.04411
-0.299089
-0.372557
-0.124314
-0.955831
-1.06461
-0.988005
-1.06778
-0.571704
-0.93167
-0.595207
-0.410147
-0.465256
-0.496076
-0.449066
-0.401318
-0.467458
-0.484726
0.338612
0.357471
0.768008
0.468757
0.36981
0.381329
0.809176
0.876707
0.0943418
0.84611
-0.417275
-0.437188
-0.42279
-0.442408
-0.316659
-0.427851
-0.317774
-0.461084
-0.31003
-0.423789
-0.315955
0.759155
0.975778
0.690183
0.692217
0.765571
0.980564
0.676774
0.984897
-0.437937
-0.432491
-0.413864
-0.439778
-0.462805
-0.428041
-0.402932
-0.431761
-0.46174
0.920921
0.859748
1.06827
0.738037
0.906131
0.813232
1.11559
1.13063
1.24932
-0.557743
-0.555908
-0.545017
-0.560858
-0.620403
-0.436587
-0.539796
-0.562815
-0.613851
0.87303
0.397702
0.406725
0.545767
0.846774
0.435074
0.31854
0.090929
0.741681
0.045363
-0.590289
-0.550424
-0.586517
-0.554422
-0.689402
-0.698965
-0.768743
-0.631754
-0.696172
-0.702325
-0.747561
-1.22788
-0.175136
-0.543839
-0.215649
-1.17419
-0.207082
-0.563992
-0.911773
-1.17601
-0.959098
-1.18812
-1.13623
-0.746477
-1.16603
-0.791266
-0.488219
-0.66986
-0.556195
-0.623718
-0.486057
-0.682676
-0.570526
-0.336941
-0.144411
-0.938777
-0.276587
-0.295195
-0.121565
-0.902346
-1.05904
-1.03473
-1.03795
-0.595391
-0.888985
-0.588383
-0.396064
-0.459276
-0.47584
-0.452969
-0.396709
-0.44736
-0.476115
0.411551
0.448398
0.865295
0.490537
0.443462
0.533223
0.927447
0.852608
0.132429
0.908899
-0.425446
-0.445452
-0.42001
-0.447459
-0.294447
-0.416983
-0.302653
-0.454131
-0.271639
-0.405546
-0.295101
0.845612
0.916685
0.685789
0.675957
1.27042
0.884921
0.781431
1.27357
-0.430541
-0.428337
-0.390595
-0.430192
-0.458705
-0.416231
-0.387875
-0.42867
-0.451966
0.910917
0.777531
1.14651
0.745283
0.991892
0.792503
1.31603
1.30265
1.45328
-0.555589
-0.555277
-0.541354
-0.562429
-0.624265
-0.436417
-0.532675
-0.56051
-0.622467
0.911157
0.452256
0.411448
0.64154
0.966077
0.457946
0.482701
0.0960468
0.866558
0.2023
-0.587276
-0.56046
-0.581099
-0.560562
-0.697731
-0.69561
-0.728657
-0.626775
-0.693879
-0.685062
-0.710713
-1.1381
-0.220058
-0.5432
-0.25329
-1.07756
-0.209087
-0.498552
-0.974345
-1.19042
-0.998512
-1.18144
-1.1694
-0.799267
-1.15433
-0.791556
-0.480399
-0.687996
-0.578167
-0.593088
-0.479106
-0.670096
-0.586898
-0.628826
-0.660116
-0.85253
-0.526448
-0.634871
-0.676046
-0.855511
-0.401711
-0.844078
-0.633386
-0.509813
-0.407964
-0.85345
-0.641189
-1.42354
-1.00429
-1.04711
-0.861882
-1.02594
-1.04995
-1.41733
-1.02449
-0.719379
-1.46597
-0.889896
-0.728916
-1.48217
-1.0203
-0.0864965
-0.149596
0.302529
0.0420371
-0.177195
0.274317
-0.0943953
-0.445446
-0.445359
0.843495
-0.454363
-0.458243
-0.438919
-0.433701
-0.458083
-0.439098
-0.453306
-0.520859
-0.475569
-0.502659
-0.461329
-0.476751
-0.503011
-0.519307
0.569134
0.882053
0.555083
-1.88828
-1.42112
-1.44383
-1.86937
-0.575088
-0.564889
-0.590632
-0.585311
-0.564928
-0.592112
-0.573072
-0.820328
-0.568658
-0.660208
-0.655319
-0.824547
-0.577417
-0.671537
-0.709327
-0.601631
-0.55943
-0.960877
-0.705331
-0.607603
-0.567705
-0.643978
-0.691699
-0.861718
-0.549114
-0.668679
-0.71822
-0.899583
-0.419383
-0.851948
-0.649615
-0.545586
-0.428873
-0.874766
-0.666583
-1.38789
-1.1044
-1.02395
-0.929127
-1.40781
-1.12664
-1.00802
-1.05011
-0.761392
-1.52254
-0.938057
-1.04302
-0.778175
-1.53117
-0.00754543
-0.188644
0.236874
0.0913493
-0.00646365
-0.177631
0.235221
-0.441916
-0.438445
0.785213
-0.450361
-0.453164
-0.437107
-0.432844
-0.452655
-0.45003
-0.435567
-0.530993
-0.475541
-0.501856
-0.445779
-0.527367
-0.475311
-0.500613
0.540689
0.735692
0.564463
-1.91642
-1.47959
-1.91721
-1.49115
-0.633508
-0.605325
-0.603136
-0.606758
-0.616711
-0.626466
-0.603833
-0.830176
-0.581038
-0.673556
-0.721639
-0.838669
-0.5805
-0.66937
-0.707385
-0.622191
-0.547094
-0.972655
-0.716872
-0.617073
-0.548278
-0.674095
-0.72213
-0.907036
-0.542985
-0.660707
-0.726242
-0.901628
-0.427603
-0.887567
-0.662923
-0.531836
-0.426963
-0.879585
-0.672804
-1.33
-1.17073
-0.955792
-1.02894
-1.3261
-1.17986
-0.944644
-1.06563
-0.803439
-1.53405
-0.911504
-1.06397
-0.806142
-1.53329
-0.0741964
-0.152588
0.222015
0.110228
-0.0594771
-0.126231
0.231592
-0.429337
-0.428269
1.20724
-0.43726
-0.437627
-0.432002
-0.421752
-0.439941
-0.43457
-0.431415
-0.531622
-0.467926
-0.500123
-0.435535
-0.53191
-0.46658
-0.500675
0.569037
0.836231
0.563715
-1.82286
-1.44704
-1.84228
-1.42274
-0.678868
-0.671061
-0.594081
-0.618335
-0.67403
-0.668437
-0.590718
-0.84572
-0.591858
-0.668789
-0.792194
-0.849061
-0.60074
-0.671448
-0.7113
-0.61419
-0.54603
-0.942479
-0.720436
-0.613169
-0.537443
-0.443926
-0.848752
-0.532648
-1.11411
-0.85103
-0.539336
-0.432695
-0.449502
-1.10773
-0.843304
-0.575005
-0.843576
-0.548203
-0.456988
-1.57254
-1.09328
-1.61141
-1.03355
-1.10814
-1.62689
-1.5659
-1.82674
-1.29424
-1.32486
-1.80888
-1.42126
-0.87751
-1.07802
-1.03762
-1.04828
-1.04348
-1.41809
-1.57981
-1.04184
-1.13759
-1.66056
-1.11719
-1.64338
-1.59257
-1.85647
-1.39946
-1.36233
-1.89427
-0.657051
-0.629994
-0.50475
-0.552037
-0.63472
-0.505276
-0.65455
-0.731831
-0.478765
-0.486035
-0.718305
-1.02919
-0.90543
-0.748204
-1.51094
-0.736844
-1.49578
-1.03503
-0.664475
-0.557341
-0.640584
-0.516297
-0.634468
-0.509078
-0.675801
-0.751666
-0.514573
-0.498818
-0.776184
-0.470737
-0.413743
-0.453215
-0.437493
-0.416877
-0.45388
-0.468291
-0.478584
-0.444965
-0.431198
-0.466868
-0.422907
-0.463185
-0.482185
-0.421414
-0.426661
0.537139
0.888286
0.532574
-0.05638
0.0392318
-0.200005
0.240876
-0.195498
0.253668
-0.0303439
-0.437222
-0.435588
0.883084
0.498047
0.523646
-0.446359
-0.437519
-0.425477
-0.413879
-0.4368
-0.425687
-0.446921
-0.428808
-0.438936
-0.429217
-0.444421
-0.446165
-0.445754
-0.414246
-0.432667
-0.429021
-0.434767
-0.428844
-0.444019
-0.436374
-0.428209
-0.427471
0.706416
0.619452
0.849385
0.823803
0.611448
0.856536
0.714755
0.672912
0.796885
0.505457
0.742515
0.792613
0.475112
0.682716
0.701755
0.805611
0.567585
0.835812
0.601968
0.850037
0.664971
0.651863
0.72533
0.782694
0.383773
0.786888
0.42793
0.613515
0.831505
-0.440475
-0.440063
-0.450109
-0.437213
-0.462304
-0.445083
-0.437204
-0.463233
-0.448889
-0.454029
-0.434786
-0.455557
-0.438403
-0.456904
-0.438989
-0.454246
-0.451016
-0.444255
-0.436728
-0.461554
-0.43713
-0.462542
-0.452385
0.608937
0.737261
0.984135
0.936741
0.725037
0.975924
0.615467
0.763303
1.05518
0.876133
1.09897
1.0552
0.862964
0.763907
0.613066
0.926893
0.707266
0.979648
0.718309
0.97154
0.600551
0.784928
1.08273
1.08746
0.871171
1.07345
0.86735
0.801452
1.11752
1.11408
-0.560759
-0.559979
-0.553571
-0.538245
-0.58823
-0.558585
-0.538851
-0.589664
-0.552362
-0.5225
-0.460131
-0.476779
-0.50288
-0.476978
-0.503209
-0.525545
-0.555556
-0.559256
-0.541906
-0.596
-0.540357
-0.592199
-0.558884
-0.244274
0.132215
-0.116083
0.2365
0.16068
-0.131804
-0.230774
-0.579078
-0.553126
0.854094
0.527128
0.512139
-0.241662
0.211896
0.202873
-0.180248
0.172
-0.147633
-0.280354
-0.493292
-0.519381
-0.564406
-0.59033
-0.563613
-0.568193
-0.571561
-0.567818
-0.557759
-0.571439
-0.552306
-0.55521
-0.571805
-0.566838
-0.590573
-0.559471
-0.562157
-0.588234
-0.578259
-0.56958
-0.552954
-0.551461
-0.572192
-0.55616
-0.57138
-0.570957
-0.66871
-0.712098
-1.04155
-1.16381
-0.73516
-1.02902
-0.661008
-0.662081
-1.17719
-0.739432
-0.975961
-0.737548
-0.999708
-0.663381
-1.35768
-1.06529
-1.07804
-0.873997
-1.09955
-1.08798
-1.33245
-1.56331
-1.63948
-1.23012
-1.17362
-1.65027
-1.23452
-1.56067
-1.90206
-1.46684
-1.45593
-1.91515
-1.35974
-0.896801
-1.06997
-1.07143
-1.09238
-1.08603
-1.34818
-1.55876
-1.17242
-1.65194
-1.18849
-1.65191
-1.20741
-1.55389
-1.11317
-0.818532
-0.831061
-1.1017
-1.3132
-1.55308
-1.03856
-1.09484
-1.56881
-1.04175
-1.30508
-1.04282
-0.792877
-0.912106
-0.725618
-0.795611
-0.914829
-1.03833
-1.12121
-0.880049
-0.855041
-1.13662
-1.32076
-1.1109
-1.57883
-1.03029
-1.57256
-1.03458
-1.31958
-1.04842
-0.72761
-0.812146
-0.879523
-0.803529
-0.887622
-1.05341
-0.585271
-0.586819
-0.582474
-0.600309
-0.574167
-0.593156
-0.597304
-0.463054
-0.85327
-0.594008
-1.00475
-0.459606
-0.873175
-0.606153
-0.460525
-0.972169
-0.880404
-0.562733
-0.882481
-0.595955
-0.450263
-1.62154
-1.15586
-1.67663
-1.06995
-1.60676
-1.17007
-1.68823
-1.94866
-1.42525
-1.93034
-1.4369
-1.36047
-0.95436
-1.16409
-0.978212
-1.14601
-0.992546
-1.33977
-1.63259
-1.0701
-1.18322
-1.69821
-1.1781
-1.69506
-1.63792
-1.94782
-1.41489
-1.43183
-1.92832
-0.700257
-0.647394
-0.530278
-0.579547
-0.688368
-0.657613
-0.543415
-0.814518
-0.530943
-0.797487
-0.547098
-1.05667
-0.934588
-0.801006
-1.53469
-0.789365
-1.53465
-1.0619
-0.708986
-0.586396
-0.676166
-0.565043
-0.666875
-0.555159
-0.713861
-0.822688
-0.579228
-0.563582
-0.82277
-0.474268
-0.439929
-0.468359
-0.471194
-0.481963
-0.449886
-0.462836
-0.463749
-0.471979
-0.474024
-0.442128
-0.461881
-0.45399
-0.451458
-0.441461
-0.447432
0.481101
0.865568
0.470604
-0.00710249
0.0950408
-0.17528
0.21946
-0.173813
0.232459
-0.045273
-0.492764
-0.45714
0.861014
0.513154
0.489005
-0.439628
-0.429629
-0.434092
-0.418121
-0.442065
-0.426081
-0.434609
-0.427509
-0.439148
-0.428924
-0.431785
-0.434973
-0.437146
-0.421485
-0.419603
-0.442031
-0.422112
-0.440749
-0.435321
-0.440928
-0.432725
-0.430954
0.584503
0.547348
0.830776
0.748299
0.636556
0.518931
0.810925
0.513557
0.778137
0.354306
0.681653
0.567847
0.76411
0.331357
0.505269
0.735851
0.470516
0.717897
0.48528
0.774615
0.387536
0.457312
0.678811
0.747793
0.207411
0.753171
0.278818
0.403549
0.844551
-0.436247
-0.434299
-0.452725
-0.435931
-0.459676
-0.436749
-0.452999
-0.434778
-0.457614
-0.447182
-0.430522
-0.442516
-0.432865
-0.446142
-0.434049
-0.443793
-0.451348
-0.433895
-0.432186
-0.452926
-0.433469
-0.454954
-0.44962
0.584284
0.716332
1.00302
0.920612
0.596293
0.717085
1.02172
0.78327
1.09633
0.87024
1.10071
0.801525
1.1062
0.887362
0.570672
0.912663
0.710834
1.0365
0.70943
1.02602
0.564116
0.753203
1.11588
1.11207
0.908438
1.10452
0.897978
0.73088
1.16889
1.20805
-0.556854
-0.556283
-0.566248
-0.543631
-0.599635
-0.561793
-0.561351
-0.545164
-0.604786
-0.531028
-0.439883
-0.469575
-0.499344
-0.472131
-0.499336
-0.531224
-0.568305
-0.56232
-0.547854
-0.608064
-0.546503
-0.60686
-0.570151
-0.295261
0.251172
-0.213074
0.0507991
-0.312078
0.26481
-0.215881
-0.486026
-0.474728
0.724994
0.559904
0.572362
-0.257236
0.0328636
0.317029
-0.154301
0.281094
-0.190734
-0.217894
-0.44084
-0.459523
-0.559687
-0.587787
-0.554555
-0.601558
-0.613799
-0.5727
-0.552544
-0.571306
-0.54985
-0.571547
-0.54907
-0.572296
-0.589319
-0.554114
-0.559377
-0.630981
-0.625068
-0.573375
-0.552459
-0.549117
-0.575493
-0.550365
-0.573027
-0.577684
-0.660028
-0.740389
-0.953562
-1.22462
-0.661639
-0.750077
-0.937732
-0.658978
-1.20552
-0.799718
-0.952071
-0.776682
-0.938095
-0.651079
-1.34677
-1.07667
-1.07149
-0.915322
-1.34594
-1.06921
-1.06599
-1.56102
-1.66005
-1.17624
-1.1776
-1.55721
-1.66966
-1.16581
-1.898
-1.47234
-1.48968
-1.86656
-1.35779
-0.931861
-1.09602
-1.08355
-1.08421
-1.07124
-1.37632
-1.55828
-1.18297
-1.66834
-1.15906
-1.67477
-1.1612
-1.54804
-1.16365
-0.907762
-1.15111
-0.927936
-1.3261
-1.58869
-1.0295
-1.14803
-1.32307
-1.59761
-1.02765
-1.05861
-0.824284
-0.875565
-0.763795
-1.05694
-0.838873
-0.876012
-1.17281
-0.944976
-0.940273
-1.17008
-1.3259
-1.16222
-1.59037
-1.01233
-1.59954
-1.02688
-1.32136
-1.05857
-0.780612
-0.860949
-0.871825
-0.852519
-0.876556
-1.05486
-0.651713
-0.616378
-0.664278
-0.596329
-0.649264
-0.601917
-0.66337
-0.421776
-0.866425
-0.526881
-0.922935
-0.428717
-0.854053
-0.50463
-0.396563
-0.90853
-0.819718
-0.447809
-0.829804
-0.4736
-0.37746
-1.62837
-1.17992
-1.69815
-1.05341
-1.6348
-1.18105
-1.69984
-1.8998
-1.38758
-1.91556
-1.35863
-1.32396
-1.04137
-1.18411
-0.894312
-1.18605
-0.91765
-1.31202
-1.61637
-1.0482
-1.17822
-1.69329
-1.18311
-1.69839
-1.60796
-1.8799
-1.31202
-1.32345
-1.86966
-0.711568
-0.677982
-0.570833
-0.593745
-0.715024
-0.682764
-0.573163
-0.812989
-0.587078
-0.819578
-0.584575
-1.06576
-0.899458
-0.804714
-1.52236
-0.806993
-1.53185
-1.06273
-0.706745
-0.591637
-0.690085
-0.572702
-0.689367
-0.573452
-0.704878
-0.805802
-0.564694
-0.57444
-0.79952
-0.437295
-0.48167
-0.429734
-0.451519
-0.441626
-0.482891
-0.426226
-0.433825
-0.447725
-0.477714
-0.42317
-0.479878
-0.420344
-0.435629
-0.515794
-0.526411
0.542898
0.867026
0.560428
-0.0810464
0.124554
-0.10851
0.257623
-0.110055
0.244849
-0.085941
-0.547621
-0.539606
0.901668
0.600354
0.588655
-0.434027
-0.418313
-0.448751
-0.425058
-0.434424
-0.417749
-0.449762
-0.436052
-0.445584
-0.436844
-0.425152
-0.426435
-0.433613
-0.425032
-0.415257
-0.455352
-0.416898
-0.455776
-0.433742
-0.44821
-0.438792
-0.439591
0.241064
0.530939
0.696046
0.991765
0.255312
0.68812
0.78893
0.295148
0.728861
0.112104
0.712853
0.342751
0.700747
0.116579
0.350654
1.16644
1.03282
1.16724
0.891822
1.02241
0.44026
0.297825
0.755023
0.729176
0.346428
0.709973
0.26255
0.286344
1.29792
-0.429566
-0.428541
-0.444084
-0.430819
-0.449554
-0.429444
-0.445752
-0.429898
-0.448331
-0.435038
-0.416838
-0.428226
-0.430364
-0.429663
-0.430767
-0.433967
-0.441022
-0.42873
-0.428483
-0.445998
-0.428664
-0.446605
-0.44015
0.5297
0.712323
1.07576
0.934162
0.557622
0.712735
1.16421
0.732001
1.13486
0.938167
1.20258
0.718282
1.18196
0.982326
0.567882
0.979538
0.828623
1.3554
0.787275
1.30569
0.589978
0.760412
1.27227
1.3314
1.1041
1.27317
1.05581
0.787241
1.37503
1.44178
-0.555239
-0.555586
-0.574901
-0.549244
-0.609928
-0.562192
-0.573703
-0.549696
-0.61038
-0.530845
-0.435719
-0.4653
-0.501302
-0.465739
-0.500732
-0.530366
-0.575728
-0.560144
-0.550032
-0.608895
-0.54972
-0.608434
-0.576787
-0.187428
0.364674
-0.106558
0.150846
-0.189174
0.407232
-0.0685876
-0.418384
-0.405132
0.85883
0.550263
0.556179
-0.156164
0.187411
0.456746
-0.030669
0.441677
-0.0412613
-0.148612
-0.373201
-0.385805
-0.555735
-0.583534
-0.550339
-0.631781
-0.625644
-0.595268
-0.550091
-0.578783
-0.562039
-0.585144
-0.546544
-0.581092
-0.583664
-0.545756
-0.549992
-0.598634
-0.612515
-0.601232
-0.56707
-0.522376
-0.577071
-0.539951
-0.58065
-0.602885
-0.63009
-0.79291
-0.965671
-1.12425
-0.633218
-0.774128
-0.976862
-0.610462
-1.09471
-0.729543
-0.966314
-0.748034
-0.969505
-0.597103
-1.40388
-1.08708
-1.09659
-1.00548
-1.38982
-1.09405
-1.11863
-1.5191
-1.65295
-1.15588
-1.19181
-1.52491
-1.63729
-1.15804
-1.80634
-1.38549
-1.39628
-1.79416
-1.41087
-1.00985
-1.05641
-1.12778
-1.07758
-1.12698
-1.40605
-1.51619
-1.18731
-1.62139
-1.15457
-1.62718
-1.1574
-1.51248
-1.15309
-0.940694
-1.16711
-0.935373
-1.30186
-1.57314
-1.00317
-1.16663
-1.3114
-1.55345
-0.993014
-1.03914
-0.858164
-0.866258
-0.796939
-1.04824
-0.846326
-0.859188
-1.13967
-0.924053
-0.928453
-1.12415
-1.29418
-1.15969
-1.53144
-0.976453
-1.54127
-0.986038
-1.29012
-1.02929
-0.795643
-0.815842
-0.853576
-0.826878
-0.859637
-1.02093
-0.676994
-0.604799
-0.641702
-0.592029
-0.652737
-0.591394
-0.678062
)
;

boundaryField
{
    inlet
    {
        type            zeroGradient;
    }
    outlet
    {
        type            fixedValue;
        value           uniform 0;
    }
    up
    {
        type            zeroGradient;
    }
    down
    {
        type            zeroGradient;
    }
    frontAndBack
    {
        type            zeroGradient;
    }
    cylinder
    {
        type            zeroGradient;
    }
}


// ************************************************************************* //
