/*--------------------------------*- C++ -*----------------------------------*\
  =========                 |
  \\      /  F ield         | OpenFOAM: The Open Source CFD Toolbox
   \\    /   O peration     | Website:  https://openfoam.org
    \\  /    A nd           | Version:  8
     \\/     M anipulation  |
\*---------------------------------------------------------------------------*/
FoamFile
{
    version     2.0;
    format      ascii;
    class       surfaceScalarField;
    location    "57";
    object      phi;
}
// * * * * * * * * * * * * * * * * * * * * * * * * * * * * * * * * * * * * * //

dimensions      [0 3 -1 0 0 0 0];

internalField   nonuniform List<scalar> 
7966
(
0.0135462
-0.000206158
-6.71998e-06
0.0136367
-6.59531e-05
-2.45402e-05
0.0138267
-0.000230019
4.00107e-05
0.0140406
-0.000212162
-1.7042e-06
0.0143452
-0.000262912
-4.17442e-05
0.0143557
6.99254e-06
-1.74328e-05
0.01404
0.000316131
-4.12613e-07
0.0137364
0.000277341
2.61994e-05
0.0133664
0.000350733
1.92449e-05
0.0130555
0.000319161
-8.17698e-06
0.0127847
0.000276454
-5.72401e-06
0.0123094
0.000483375
-8.06651e-06
0.0123228
-9.37548e-06
-4.03561e-06
0.012701
-0.000407496
2.92912e-05
0.0132098
-0.000523691
1.49284e-05
0.0133638
-0.000186573
3.26174e-05
0.0134531
-8.6274e-05
-3.06123e-06
0.0134301
2.5877e-05
-2.84627e-06
0.0129829
0.000416409
3.07121e-05
0.000148938
-2.74851e-05
0.0135926
-0.000439879
-2.55459e-05
0.0136338
-9.05294e-05
-1.66625e-05
0.01389
-0.000580028
9.38762e-05
0.0142144
-0.000546713
1.01642e-05
0.0145781
-0.000524752
-0.000101886
0.014583
0.000107158
-0.000105116
0.0141865
0.000728127
-1.5489e-05
0.0138457
0.000549723
6.84275e-05
0.013465
0.00069229
3.9173e-05
0.0130914
0.000652558
4.02212e-05
0.0127962
0.000525924
4.57325e-05
0.0122477
0.00107416
-4.22635e-05
0.0122129
5.41806e-05
-2.88249e-05
0.0127724
-0.00108514
0.000118129
0.0134564
-0.00124594
3.83155e-05
0.0137066
-0.000525047
8.8223e-05
0.0137998
-0.000150388
-2.91036e-05
0.0136312
0.000194888
-4.06231e-07
0.0130544
0.000894063
9.91407e-05
0.00041886
-0.000124571
0.013706
-0.000796076
-1.54437e-05
0.0137779
-0.000138047
-2.44246e-05
0.0143872
-0.00135551
0.000166248
0.0146897
-0.00100838
0.00015915
0.0149006
-0.000490866
-0.000244831
0.0149214
0.000463533
-0.000377148
0.0146365
0.00120231
-0.000189303
0.0143957
0.000636489
0.00015409
0.0137834
0.001034
0.000270538
0.0133724
0.00097742
8.61864e-05
0.0130537
0.000926911
-8.23681e-05
0.0122125
0.00203671
-0.000121289
0.0123705
-4.33664e-05
-6.04914e-05
0.0133351
-0.00232079
0.000271042
0.0142021
-0.00256992
0.000457024
0.0140848
-0.00124433
0.000836512
0.0140204
-0.000200318
0.000114345
0.0138447
0.000435058
-6.44478e-05
0.013027
0.00147881
0.00023296
0.000927723
-0.000212695
0.0136312
-0.00105192
-4.00411e-05
0.0142036
-0.000685336
-2.5122e-05
0.0148955
-0.00204938
1.98744e-06
0.0152898
-0.00196542
0.000562786
0.0155545
-0.000805879
5.02776e-05
0.0155527
0.00149791
-0.00103257
0.0154774
0.0019412
-0.000663612
0.0154093
0.000608826
9.58244e-05
0.0146025
0.00158678
0.000253966
0.0140396
0.00123697
0.000303385
0.0128606
0.00186022
0.000245644
0.0115987
0.00336274
-6.40838e-05
0.0126254
-0.000528121
-0.000541996
0.0145704
-0.00402873
-0.000237053
0.0157861
-0.00456548
0.000779845
0.0157901
-0.00218479
0.000936509
0.0156288
3.0499e-05
-6.95537e-05
0.0149259
0.000662787
0.000475228
0.0134627
0.00207127
0.000870707
0.00180883
-0.000144061
0.0142884
-0.00164577
-0.000356038
0.0144182
-0.000956823
0.000141658
0.015575
-0.00440099
0.00119488
0.0164422
-0.00290068
6.80344e-05
0.0163531
-0.00132067
0.000603834
0.0164362
0.00151361
-9.87319e-05
0.017155
0.00279887
-0.00157645
0.0173592
0.00250865
-0.00210408
0.0155175
0.00321041
0.000218065
0.0138041
0.00243155
0.000518805
0.0132128
0.00316501
-0.000713431
0.0115156
0.00439838
0.000661544
0.0120786
-0.00120201
0.000110892
0.0146436
-0.00428294
-0.00231075
0.0175033
-0.00534391
-0.00208127
0.0187386
-0.003664
0.000243888
0.0172861
0.000125539
0.00135747
0.0149816
0.000244054
0.00272316
0.0132394
0.00296786
0.000845682
0.00336579
-0.000731128
0.0137787
-0.00159905
-0.000480823
0.0156781
-0.00253227
-0.000323958
0.0181787
-0.00840888
0.00150729
0.0193088
-0.00131266
0.00269005
-0.00168735
-0.00212312
-0.0015977
0.0189505
-0.000298638
-0.000825411
0.000291252
-0.000483508
0.000353958
0.0183644
0.0013937
0.000705991
0.0177267
0.00263009
0.000806459
0.0186824
0.00280548
-0.0012525
0.0184528
0.00525758
-0.00181758
0.0163129
0.00306652
0.00150491
0.0112926
0.00551277
0.00267257
0.00774029
0.00745684
0.000493852
0.00920901
-0.00224796
-0.00042278
0.0122439
-0.0057934
-0.00152446
0.0169759
-0.00834801
-0.00172791
0.0205766
-0.0060527
-0.00121198
0.0200904
-0.000178908
0.000790716
0.0197401
0.000171352
0.000422943
0.018728
0.00471071
-0.000730736
0.00470635
0.000720781
0.0143676
-0.00314902
0.00053513
0.0167656
-0.00546604
0.000535787
0.0045566
-0.00366847
0.0010993
-0.00312639
-0.00385518
-0.00283884
0.00558041
0.00500408
0.0056052
0.00527105
-0.00221544
0.000188335
-0.00564884
0.00525726
-0.000999949
0.00109289
0.0206621
-2.84441e-05
0.00224041
0.000540133
0.000109274
0.000906188
-0.0052748
-0.00647415
-0.00508944
-0.00619755
0.0213889
0.00110186
0.000801394
0.0249667
0.00175158
-0.00252385
0.0180481
0.00868742
0.00348876
0.011131
0.00701194
0.0029717
0.0118317
0.00802164
-0.00320961
0.013114
0.00581719
0.00035733
0.0115013
-0.00442408
0.00378886
0.0102825
-0.00826981
0.00369523
0.0136942
-0.0134851
0.0017253
0.0191859
-0.00878507
-0.00275932
0.0176527
0.00153675
-0.000182503
0.0168367
0.00169292
-0.000705524
0.0169848
0.00545155
-0.000888898
0.005361
0.00105893
0.0136852
-0.00329389
-0.000183897
0.00406796
-0.00306043
0.00366365
0.00215866
0.0045243
0.0029255
-0.0015808
-0.00281515
-0.00166452
0.00384462
-0.00395248
0.000507354
-0.00125226
0.000923819
0.00160321
-0.00102921
-0.000245552
-0.00179822
0.000370985
0.00174902
-0.00016191
-0.000159874
-0.00154873
0.00538176
0.000240878
-0.00117653
-0.00155898
-0.00123514
-6.42879e-05
-3.65877e-06
8.9798e-06
-7.27404e-05
0.0148415
-0.000689825
0.00187284
-0.00529015
-0.00178891
-0.00585684
-0.00248497
0.000410169
-0.000512187
0.000600211
0.0163508
-0.000136059
0.000378357
0.0211084
0.00988665
-0.00595687
0.0234858
0.0121224
-0.00748789
0.0170138
0.00882001
0.00567372
0.0102965
0.00595552
0.00657891
0.0116198
-0.00170369
-0.00404365
0.0119882
-0.005313
-0.00332522
0.0107527
-0.0134942
0.0012446
0.0137314
-0.0114712
-0.000292536
0.0163895
0.000812961
-0.00193433
0.0178218
0.000851748
-0.000591063
0.0165609
0.00620999
0.000502446
0.00711058
5.38618e-05
0.00221707
-0.00405249
0.00152594
0.00257468
0.00368627
0.00407338
0.000587077
-0.00334716
0.00191672
0.00149998
-0.000558675
0.00095937
-0.00147099
-0.000429689
0.000182845
0.000170639
-0.00125533
-0.00035501
0.000194328
0.00017953
0.000193177
0.0125424
-0.00443903
-0.00254019
-0.00186039
-0.000977722
-0.00187332
-0.000987812
0.0155072
0.00595227
0.000969539
0.013724
0.0101347
0.00377097
0.00915429
0.0115901
0.00179958
0.00559248
0.0143251
-0.00480774
0.00803251
0.000804309
-0.00494803
0.00933145
-0.00448017
-0.00213177
0.00941188
-0.0121549
-0.00141978
0.0115719
-0.0144464
0.000815097
0.0160122
-0.00368855
6.12653e-05
0.0171986
-0.00213047
0.00179583
0.0143293
0.00714576
0.00193349
0.00856199
-4.01709e-05
0.00121677
0.000968219
0.0020727
0.000857674
0.0029592
0.00115895
0.00273723
-0.00168101
0.00149442
-0.000278692
-0.000455835
-0.000401086
-0.000198253
5.95288e-05
-0.0001257
6.61714e-05
0.000281451
0.000104277
-6.53334e-05
-0.000302229
-1.81664e-05
-0.00108237
-0.00949039
0.00623975
-0.000190956
-0.00012424
7.98574e-05
0.000129319
-0.00111035
0.00707083
-0.00109058
0.000622189
0.00967729
-0.00127512
0.00242762
0.0141929
-0.00440826
0.00584019
0.0125135
-0.00160097
0.0123788
-0.00579572
6.14493e-05
0.0171486
-0.00741918
-0.00183077
0.0172231
-0.00909137
-0.00313802
0.0144417
-0.0132176
0.00155258
0.0140435
-0.00540404
0.00211365
0.0139363
-0.00323779
0.00121455
0.014031
0.00664582
0.000405277
0.00815879
-0.000451457
0.000902014
0.00355478
0.000598017
0.00312487
0.00239333
0.00368122
0.000712485
0.000909217
-0.000464494
0.000113569
-0.000173247
-0.000128806
-6.67102e-05
4.4855e-05
1.7909e-05
5.99449e-05
-0.000122709
-0.00613666
-0.0142326
0.00781143
0.000952458
0.000460726
0.00110479
0.000549414
-0.00422646
0.00529567
-0.000135041
-0.0015364
0.0105648
-0.00357756
0.000759922
0.0089295
0.00296712
0.00971323
0.00328499
0.000275174
0.0138532
-0.00851261
-0.00142308
0.0156843
-0.00844765
-0.000802657
0.0193179
-0.00877888
-0.00394601
0.0170023
-0.0111692
0.000267196
0.0126841
-0.0052842
0.00419834
0.0127791
-0.00521076
0.00187802
0.0139831
0.00614682
-0.000704991
0.00805136
-4.81217e-05
0.00302395
0.00439171
-0.000793134
0.00367003
0.00212086
0.00446009
-0.0012232
0.00327784
0.00181266
-0.000843344
-0.000341944
-0.000612047
0.000981479
-2.74882e-05
-0.000179919
-3.42835e-06
-0.000265251
0.00149723
-0.000664042
-0.000112351
-0.000189529
-0.000121942
2.49184e-05
-5.2608e-06
1.95767e-05
0.000704148
-0.0091723
-0.00647074
0.000514636
8.56991e-05
0.000450822
-0.000344822
0.00349925
0.0018853
0.000615267
0.00740899
0.00590497
0.000750076
0.0112954
0.00156937
0.00347368
0.0181433
-0.00392634
0.000363506
0.0191563
-0.00848099
-0.00104466
0.015372
-0.00709957
0.00243622
0.0162016
-0.00795332
-0.00165519
0.0169864
-0.00779118
-0.0041628
0.0136554
-0.00351892
0.00156573
0.0102587
-0.00465481
0.00284077
0.00995567
0.0047462
0.00170364
0.00583762
0.00111213
0.0146242
0.00358616
-0.00046221
0.00295436
0.00788032
0.000647632
-0.00287368
-0.00153786
-0.00306421
-0.00110779
0.00412686
0.00288997
0.0047086
-0.00137229
0.00335634
-0.000351342
-0.00103955
-0.00131327
-0.00104404
0.00127664
0.00106246
0.00114689
0.00123252
0.000201143
-0.000172794
-2.83492e-05
0.0163741
-0.00373334
0.00160944
-0.00056212
8.6561e-05
-0.000245791
0.000292355
-0.000952538
-0.00498134
-0.00207653
-0.00581078
0.0114915
-0.00555816
0.00126846
0.0136603
0.00598707
-0.0062706
0.0192268
0.00437831
-0.00403984
0.0193153
0.000669624
0.000811276
0.0196789
-0.00447885
0.000188907
0.0236974
-0.0101906
-0.00230888
0.0210262
-0.00540472
0.000976318
0.0144931
-0.00603778
0.00461756
0.0150019
-0.00636447
-0.00193556
0.0184606
-0.00201078
-0.00496685
0.0155289
-0.00116189
-0.000561211
0.011308
0.00481289
0.00415421
0.00447003
0.00130465
0.0143447
0.000570302
0.00202397
0.0159403
0.00663237
-0.00034771
0.00529546
0.00508758
0.000317202
-0.00243017
-0.00319245
-0.00262666
-0.0021207
0.00496915
0.00548142
0.00515951
-0.000910623
0.00639212
0.00118828
0.000881984
-0.000722201
-0.000859015
-0.000675086
-1.55968e-05
-0.00689215
0.0064826
-0.00045217
0.000670573
4.03597e-05
3.52329e-05
0.000131147
0.0215854
-0.00232024
0.00143705
0.000765792
-0.000228
0.00153409
0.000618209
-0.00631034
-0.00588357
-0.00571912
-0.0054793
0.0211392
-0.00180505
-0.00148204
0.0189375
-0.00605576
0.00269924
0.0192309
0.00414041
0.00155326
0.0214118
0.00283881
-0.000641317
0.022548
-0.000123476
-0.00034312
0.0203275
-0.00391601
0.00165766
0.0158825
-0.00702321
0.0012776
0.0134629
-0.00237052
-0.000614582
0.0124938
-0.00655165
0.00148299
0.0120261
-0.00681315
0.000916374
0.0127044
-0.000800028
-0.00188905
0.0123744
0.000355839
-0.00118767
0.0120884
0.00498861
0.000110216
0.00399763
-0.000228654
0.0140353
0.00020102
-0.00032147
0.0162965
0.00355837
0.000812794
0.0167576
0.0037066
0.000919937
0.0176742
0.00193812
-0.00155358
-0.000967191
0.000271364
-0.00113115
0.000525822
0.0185925
-0.00115584
-0.00202794
0.000469426
0.00043386
0.000103893
0.00125826
0.0184066
-0.00235577
0.000221471
0.0171045
-0.00121238
0.000709435
0.0151256
-0.00324162
-0.000835326
0.0169918
0.00190636
0.000367869
0.0181698
0.000864563
0.000796284
0.0182515
-0.000331413
0.000126173
0.0161007
-0.00256411
0.00079892
0.0137391
-0.00441439
-0.000247187
0.0143966
-0.00172379
-0.00130428
0.0136398
-0.00481303
-0.000981798
0.0111044
-0.00309734
-0.00118036
0.0105162
0.00129527
-0.00150709
0.0111905
0.000841889
-0.00116038
0.0135971
0.00376028
-0.00117826
0.00257588
-4.44596e-05
0.0138798
0.000140605
-0.00048086
0.0146471
0.00164706
0.00114399
0.0160788
0.00191979
0.000355153
0.0170711
0.00228249
-0.00133666
0.0170034
0.000289809
-0.00137798
0.0165935
-0.00129923
-0.00064668
0.0162012
-0.00118433
0.000364248
0.014313
-0.00165402
0.000300596
0.0149416
0.000911595
0.00036621
0.0162335
-0.000315047
-0.000112264
0.0160232
0.000365779
-0.000486895
0.0150099
-0.000973375
-0.000577444
0.0142196
-0.00319143
-0.000432624
0.0140136
-0.00100367
-0.000514197
0.0125939
-0.00301287
-0.000380454
0.0115167
-0.00130013
-0.000720037
0.0115533
0.00134067
-8.19439e-05
0.0120858
0.000707893
-0.000398523
0.0143362
0.00232336
-0.000813436
0.00164339
7.19401e-05
0.0132848
0.000181691
9.47061e-06
0.0140311
0.000782916
0.000117832
0.0149525
0.00110483
-0.00010641
0.0154588
0.00185512
-7.90025e-05
0.0156442
0.000339633
-0.000235184
0.0155721
-0.000880025
-0.000347066
0.0149665
-0.000780986
0.000202217
0.0141657
-0.00131278
0.000459605
0.0145811
0.000617465
-0.000121281
0.01453
0.000124746
-0.000388728
0.0151596
-0.000577975
0.000314163
0.0152652
-0.00108513
6.16616e-06
0.0136882
-0.00152576
-8.86698e-05
0.0128104
-0.000618397
0.000492539
0.0118333
-0.00234452
0.000308761
0.0113503
-0.000954318
0.000137173
0.0121275
0.000602543
-3.91407e-05
0.0123456
0.000373138
0.000116727
0.0130367
0.00123076
0.000401497
0.000790102
0.000256285
0.0134842
5.53998e-05
-2.35997e-05
0.0136767
0.000560871
2.96214e-05
0.0142821
0.000436955
6.24545e-05
0.0151121
0.00111732
-9.22687e-05
0.0152454
0.000378643
-0.000172248
0.0150329
-0.000639233
-2.83185e-05
0.0145913
-0.000408888
6.94986e-05
0.0138228
-0.000589829
4.55583e-05
0.0142771
0.000116553
4.65742e-05
0.0143872
0.000142169
-0.000127465
0.0140855
-0.000236787
-3.9509e-05
0.0136015
-0.000692746
9.16535e-05
0.0131969
-0.00102161
-9.9545e-05
0.0131934
-0.000680586
6.56338e-05
0.0121752
-0.0011271
-0.000199163
0.0115594
-0.000340489
1.94157e-06
0.0120478
1.22604e-05
0.000101894
0.012391
3.91065e-05
-9.20241e-06
0.012685
0.000779507
0.000157272
0.000534181
0.000143247
0.0133597
3.26321e-05
-3.55165e-06
0.0136531
0.00023639
3.10897e-05
0.0138468
0.000256224
-1.30473e-05
0.0145114
0.000511397
-5.86116e-05
0.0147418
0.000163863
-1.56776e-05
0.014336
-0.000263983
3.05457e-05
0.0141422
-0.000222075
7.01501e-06
0.0138355
-0.000288426
5.29184e-06
0.0139055
9.59014e-05
-4.93867e-05
0.0140106
-1.0481e-05
4.76117e-05
0.0139836
-0.000162672
-4.7097e-05
0.0136333
-0.000325824
-1.66737e-05
0.01303
-0.000442307
2.40213e-05
0.0126113
-0.000233752
-2.81214e-05
0.0119936
-0.000584257
7.48182e-05
0.0119039
-0.000232436
-1.82867e-05
0.0119043
1.24326e-05
-5.84149e-07
0.0118685
3.78356e-05
3.70424e-05
0.012334
0.000297086
1.69392e-05
0.000196281
-1.57335e-07
0.0133643
1.68984e-06
0.0135967
3.95238e-06
0.0138626
-9.64076e-06
0.0143858
-1.18097e-05
0.0145486
1.06862e-06
0.0142735
1.10953e-05
0.014057
-5.58715e-06
0.0137683
2.62435e-07
0.0138756
-1.13469e-05
0.0138592
5.90996e-06
0.0137068
-1.02399e-05
0.0133798
1.15671e-06
0.0129326
4.91701e-06
0.0127226
-2.37749e-05
0.0121087
2.96318e-05
0.0119039
-2.76925e-05
0.0119298
-1.34332e-05
0.0119471
2.05806e-05
0.0122379
6.25752e-06
-5.02406e-06
0.0135432
-0.000209703
-6.92625e-06
0.0136381
-9.48522e-05
-2.45222e-05
0.0138249
-0.000188373
4.15125e-05
0.0140403
-0.0002158
-1.23654e-06
0.0143527
-0.00031006
-4.40732e-05
0.0143594
-2.82413e-06
-2.13431e-05
0.0140401
0.000320644
-1.76878e-06
0.0137367
0.000305672
2.39769e-05
0.0133645
0.000374491
1.68913e-05
0.0130559
0.000309483
-9.04032e-06
0.0127867
0.000271398
-7.9748e-06
0.0123091
0.00047597
-6.36416e-06
0.0123231
-1.15001e-05
-6.55749e-06
0.0127016
-0.000371718
2.25453e-05
0.0132091
-0.000489759
-2.82205e-06
0.0133622
-0.00015059
3.00758e-05
0.013453
-8.28211e-05
-1.10036e-05
0.0134312
3.06262e-05
-1.16884e-05
0.0129816
0.000438774
4.15229e-05
0.000130955
-3.57457e-05
0.0135928
-0.000468247
-2.64438e-05
0.0136205
-0.000120768
-1.8436e-05
0.0138697
-0.000443082
9.93055e-05
0.0142219
-0.000571569
1.37874e-05
0.0146137
-0.000694549
-0.000109172
0.0146013
1.51948e-05
-0.000110752
0.0141695
0.000760373
-2.34037e-05
0.0138268
0.000659114
5.76254e-05
0.0134638
0.00074485
3.18779e-05
0.0130962
0.000681628
3.56001e-05
0.0127999
0.000578941
3.44654e-05
0.0122446
0.00102943
-4.04225e-05
0.0121994
4.13148e-05
-3.63727e-05
0.0127497
-0.000891516
8.75882e-05
0.0134403
-0.00111616
-2.58872e-05
0.0137014
-0.000397916
7.44766e-05
0.0137896
-0.000137492
-6.26206e-05
0.0136368
0.00021039
-2.73627e-05
0.0130589
0.00100271
0.000113038
0.000328574
-0.000158697
0.0137213
-0.000854644
-1.63947e-05
0.0137702
-0.000146809
-4.72603e-05
0.0143139
-0.00101452
0.000193991
0.0147074
-0.00102286
0.000216952
0.0150278
-0.000993348
-0.000266477
0.0149643
0.0001273
-0.000425736
0.0145491
0.00118937
-0.000203022
0.0142938
0.000941319
0.00012711
0.01374
0.00132685
0.000242365
0.0133753
0.00105925
7.3226e-05
0.0130963
0.00086571
-9.01419e-05
0.0122186
0.00186385
-7.79804e-05
0.0122607
2.14868e-05
-8.27787e-05
0.0131063
-0.00160912
0.000143092
0.0139768
-0.00179171
0.000262015
0.0139697
-0.000260858
0.000706645
0.0139565
5.23127e-06
-1.5257e-05
0.0138383
0.000354766
-9.05711e-05
0.0129853
0.0018276
0.000261056
0.000736087
-0.000226118
0.0136354
-0.00117139
-2.33836e-05
0.0142463
-0.000680257
-0.000102578
0.0147903
-0.00162622
6.97442e-05
0.0153209
-0.00172517
0.000734468
0.0159166
-0.00168122
0.000142398
0.015712
0.000428724
-0.00112934
0.0152564
0.00183066
-0.000849371
0.0150469
0.00121232
3.43293e-05
0.0143287
0.00204943
0.000249638
0.0139651
0.00152519
0.000201034
0.0129865
0.00201732
7.26399e-05
0.0116652
0.00320207
-8.10519e-05
0.0123764
-0.00059025
-0.00064141
0.0138545
-0.00300517
-0.000319129
0.0151158
-0.00295171
0.000678605
0.0154621
-2.81537e-05
0.000357491
0.0151039
0.000704985
-0.000411168
0.0148614
0.000718066
0.000354487
0.0138584
0.00305365
0.00064759
0.00168825
-0.000151452
0.0143502
-0.00221955
-0.000319591
0.0143953
-0.000282151
-0.000301566
0.0156438
-0.00318415
0.00150425
0.0166682
-0.00400396
0.00132244
0.0167657
-0.00206519
0.000890379
0.017071
9.42751e-05
-6.96453e-05
0.0172141
0.00183543
-0.00172428
0.0166902
0.00201019
-0.00237806
0.0151668
0.00357262
0.000218263
0.0138495
0.00274955
0.000611718
0.0128563
0.00278191
-0.000484777
0.0115528
0.00480292
0.000364167
0.0126552
-0.000887671
-0.000694082
0.0147067
-0.00507057
-0.00229687
0.0163444
-0.00569933
-0.000971293
0.0166566
-0.000807961
0.000711444
0.0156529
0.00173081
0.00133538
0.0150508
0.00167972
0.00236355
0.0138903
0.0045519
0.000507936
0.00295927
-0.000598715
0.0138272
-0.00271944
-0.000463691
0.01479
-0.000698625
-0.000870241
0.0184856
-0.00658387
0.00121135
0.0206418
-0.00225161
0.00432545
-0.00191993
-0.0017873
-0.00183667
0.0195575
-0.000598585
0.00119477
-0.000334555
-0.00103609
-0.00103192
0.0191478
0.000900932
0.000309091
0.0190001
0.00296654
-0.000177003
0.0182693
0.00351172
-0.0020232
0.0165396
0.00626519
-0.0027805
0.0157051
0.00449755
0.000591475
0.0130743
0.00564826
0.00243702
0.0104977
0.00743854
0.000434804
0.0112107
-0.0012042
-0.000819232
0.0130617
-0.00690856
-0.0015375
0.017201
-0.0102366
-0.00132992
0.0192556
-0.00379044
-0.000284061
0.0182164
0.00187994
0.00168074
0.0176994
0.00191842
0.000701236
0.0156234
0.00652812
-0.00063094
0.00517237
0.000844209
0.0148711
-0.00345464
-0.000247768
0.0169895
-0.00298651
0.000705229
0.00514263
-0.00328082
0.000907162
-0.00259165
-0.00296422
-0.00249154
0.00574248
0.0051274
0.00591352
-0.000130388
0.00563217
-0.00227983
-0.000330932
-0.00222471
-0.00573451
0.00545496
-0.00097869
0.00288436
0.02067
0.00033567
0.00303043
0.00108905
0.000255824
0.00102531
-0.005318
-0.0060954
-0.00568342
-0.0061681
0.0201386
0.00371856
0.000580785
0.021438
0.00354742
-0.00385902
0.0172027
0.0115075
0.00248182
0.0133327
0.00844873
0.00289051
0.0117404
0.00680831
-0.00277741
0.0126735
0.0079147
-0.00105188
0.0125979
0.00190016
0.000760103
0.0112021
-0.00479832
0.0029808
0.0142929
-0.0132264
0.00162423
0.0190805
-0.00870703
-0.00263027
0.0176491
0.00262762
0.000501218
0.0164528
0.00258083
-0.000171688
0.0159989
0.00701227
-0.000919139
0.00668696
0.000938683
0.0135595
-0.00315061
-0.000690357
0.00532804
-0.00298503
0.00402803
0.00373151
0.00536538
0.00394538
-0.00102692
-0.00321691
-0.000932887
-0.000369115
0.00528028
-0.00302897
0.000165031
0.000857151
-0.00158026
0.000782933
0.0018221
-0.00102743
-0.000854491
0.000469978
-0.00189972
0.000171089
0.00185947
-9.00226e-05
-0.000510792
-0.000311123
-0.00161679
0.00618647
0.000246749
-0.00146787
-0.00163713
-0.00148691
9.90396e-05
0.00011667
6.73414e-05
0.000139236
0.0197674
-1.97057e-05
0.00258703
-0.00616409
-0.00285106
-0.0061937
-0.00301218
0.000752526
0.000391942
0.000333255
0.0233093
-0.000534242
0.000918087
0.0223855
0.0105352
-0.00406079
0.0179154
0.0118205
-0.00638953
0.016567
0.00820603
0.00562442
0.018546
0.00911125
0.00340331
0.0188067
0.00339045
-0.00579457
0.0148922
-0.00316529
-0.00104374
0.0119173
-0.0119633
0.00295637
0.0144176
-0.0121405
0.00064059
0.0152313
0.001387
-0.00150737
0.0160007
0.00213971
-0.000919349
0.0163105
0.00693715
0.000267756
0.00743039
5.96937e-05
0.00241433
-0.00204725
0.00206125
0.00348416
0.00251269
0.00326876
-0.00281549
0.0021289
-0.00264532
0.00276122
0.000773908
0.00106471
-0.00121741
0.00149511
-0.00130164
-0.000814681
0.000524912
1.71039e-05
0.000844933
-0.00115935
-0.000362581
5.1959e-05
7.39844e-06
5.59147e-05
0.0111243
-0.00570921
-0.00353743
-0.0017412
-0.000976404
-0.00138414
-0.000850359
0.0164303
0.00615979
3.8955e-05
0.0173338
0.0112918
0.00339622
0.014767
0.0116717
0.000900696
0.00940616
0.0145222
-0.00485786
0.0086322
0.00124753
-0.00203115
0.0092442
-0.0051084
-0.00080066
0.00795858
-0.0107943
-0.00130311
0.0102285
-0.0139557
0.000360416
0.0144322
-0.00267433
-8.1104e-05
0.0162127
0.000240618
0.00191439
0.0155275
0.00735437
0.0022015
0.00787052
1.58466e-06
0.00347281
0.00252041
0.00216292
0.00178515
0.00314777
0.000222117
-0.00409735
0.00213979
-0.000776965
0.00624801
-4.54527e-06
1.07134e-05
-7.08786e-05
2.40411e-05
0.000664987
0.000122927
4.57225e-06
-0.000792485
4.25727e-05
0.000278847
9.25178e-05
-7.53908e-05
-0.000287089
-5.14579e-05
0.00256478
-0.006858
0.00414137
0.00010413
0.000128038
0.00018827
0.000261951
0.0047144
0.00431766
-0.00139807
0.0041427
0.0102723
0.000316021
0.00422245
0.0104582
-0.00327449
0.00606942
0.0112212
-0.00014694
0.0115248
-0.00496213
0.000815683
0.0154597
-0.00765393
-0.00322008
0.0138237
-0.00908149
-0.00321491
0.0120774
-0.01219
0.00153315
0.0131522
-0.00396896
0.00233351
0.0136406
-0.000948603
0.00191539
0.0144993
0.00644089
0.000459985
0.00693462
-0.000656723
0.00375847
0.00320448
-0.00042033
0.00411508
0.00295132
0.00279512
0.000559361
-0.000376163
0.00186115
-0.000191656
0.000598165
0.000343219
0.000651779
0.000312611
0.000288212
8.23382e-05
-0.00015901
5.23162e-05
-0.000263857
-0.00158163
-0.0107184
0.0087183
0.0012268
0.000813672
0.00144061
0.00105402
0.000284471
0.00358691
-0.00127039
-0.00108751
0.0113178
-0.00325101
0.00212486
0.00759678
0.00261614
0.00954036
0.00318638
0.000894489
0.0126492
-0.00866302
-0.000831081
0.0139376
-0.00871818
-0.00102679
0.0147656
-0.00985453
-0.00400092
0.0122998
-0.00997639
0.000519416
0.0112485
-0.00288411
0.00416473
0.0130815
-0.00233913
0.00143554
0.0143166
0.00572555
-0.00122468
0.00692079
-0.000202757
0.00331836
0.00284376
-0.00210932
0.00342041
0.0044058
0.00385096
0.00137143
-0.0028696
0.00237932
0.00270249
-0.00026528
0.000432015
-0.000383907
-0.000364037
0.00106346
-0.000747527
0.000952726
-0.000209999
-4.72533e-05
2.53964e-05
0.000748281
-0.000883343
-0.000121527
-0.000209804
-0.000116732
-4.31623e-05
-4.75749e-05
-4.70064e-05
0.00226582
-0.0122041
-0.00399262
8.45449e-05
-0.00125977
-0.000146759
-0.00193617
0.00218236
0.00189204
0.00239361
0.00541046
0.00752381
0.00131594
0.0102439
0.00336875
0.00286831
0.0167819
-0.00235223
-0.000635949
0.0171645
-0.00928087
-0.00080943
0.0150834
-0.00700371
0.00280285
0.0148019
-0.0088365
-0.00239169
0.011875
-0.0079984
-0.00321384
0.0089105
-0.00136286
0.00300893
0.00883953
-0.00152352
0.00209612
0.0100532
0.00582394
0.000391615
0.00638014
0.00062119
0.0140786
0.00201182
-0.000351813
0.00313517
0.00455555
0.00281615
-0.0031293
-0.00116866
-0.00293853
-0.00147737
0.00472119
0.00351296
0.00469902
0.000243698
-0.00150012
0.00322688
-0.000116149
-0.0010487
-0.0014058
-0.00103691
0.00122688
0.00116699
0.00124359
0.00113481
0.000191156
0.000557961
-0.000503817
-0.000245301
0.0205531
-0.00511145
0.00364352
0.000139522
0.000400576
0.000591255
0.000553311
-0.00311504
-0.00606199
-0.00377699
-0.00620641
0.0188511
-0.00997393
0.00074028
0.0161564
0.00228613
-0.00397005
0.017444
0.0047735
-0.00257706
0.0185286
0.0015666
0.00152879
0.0197395
-0.00469035
0.00131611
0.0205508
-0.0101961
-0.00220497
0.0171182
-0.00463807
0.00204329
0.0146976
-0.00645086
0.00465253
0.0143089
-0.00715343
-0.00239179
0.0121864
-0.000717165
-0.00349005
0.00894942
0.000722788
0.000429434
0.00871788
0.00684082
0.00336887
0.00522347
0.000644364
0.0142601
0.00117231
0.00195633
0.0154446
0.00292791
9.54499e-05
0.00556701
0.00815721
-6.54662e-05
-0.00345904
-0.00301061
-0.00370108
-0.00332819
0.00513171
0.00543351
0.00503676
-0.000803221
-0.000682116
0.00625828
0.00286447
8.09575e-05
-0.00057371
-0.000904054
-0.000673591
0.000201622
-0.000509185
-0.00646821
0.00583928
0.000158483
-1.19737e-05
0.000352845
0.000132952
0.000304179
0.0190707
-0.00428591
0.00047839
0.00213769
0.00177428
0.00189593
0.00193335
-0.00543884
-0.00530795
-0.00556637
-0.00525425
0.0187785
-0.00411339
-0.00218787
0.0167203
-0.00678347
0.001567
0.017165
0.00268076
0.000713898
0.0196142
0.00255431
-0.000871313
0.0216097
0.000205497
-0.000977553
0.0203546
-0.0042081
0.00243053
0.0161136
-0.00602438
0.00134693
0.0131989
-0.00134883
-0.000989173
0.01244
-0.0060911
0.00188222
0.011667
-0.00579887
0.000334732
0.0109588
0.000154117
-0.0020521
0.00938507
0.00135513
-0.000246281
0.0097401
0.00602567
0.000570329
0.00343588
-0.000165778
0.0138005
0.000622909
-0.00022808
0.0153418
0.00188924
0.000310134
0.018046
0.00462535
0.00174757
0.019351
0.00399384
0.000196339
-0.00224721
-0.000807088
-0.0023595
-0.00163496
0.0181878
0.000264558
-0.00159305
-0.000576099
0.000882188
-0.000775026
0.000932693
0.0174408
-0.00247905
-0.000838402
0.0164447
-0.00222308
-0.000184729
0.0136818
-0.0034559
-0.0014
0.0156398
0.0014684
-0.000377775
0.0178844
0.000654322
0.000451654
0.0185076
-0.00038912
9.75756e-05
0.0170479
-0.00217381
0.000224331
0.0153323
-0.00412888
-0.000427055
0.0156786
-0.00207397
-0.000925494
0.0140111
-0.00480338
-0.000601961
0.0109774
-0.00245825
-0.0014873
0.0103028
0.00119785
-0.00187626
0.0108969
0.000605457
-0.00100475
0.0130362
0.00337168
-0.00066363
0.00184777
0.000212781
0.0137652
0.000179867
-0.000464585
0.0146111
0.00128657
0.000900751
0.0162623
0.00220484
0.00112452
0.0172877
0.00272981
-0.00109805
0.0172018
0.000617973
-0.0016455
0.0162755
-0.00128243
-0.000917053
0.0157824
-0.00163712
0.000271396
0.0143892
-0.00208178
0.000319655
0.0151728
0.00101683
3.41979e-05
0.0162791
9.18857e-05
-0.000656122
0.0160243
5.43084e-05
-0.000675542
0.0151166
-0.00134761
-0.000495898
0.0140119
-0.00305296
-0.000403841
0.0133463
-0.00132128
-0.000601256
0.0118171
-0.00320641
-0.000448262
0.0110049
-0.00151868
-0.000847448
0.011586
0.000999761
-0.00046491
0.0122305
0.000194903
-0.000632456
0.0141229
0.00140854
-0.000742735
0.00111321
8.13751e-05
0.0133216
0.000200326
2.75326e-06
0.0139563
0.000669371
0.000100323
0.0148646
0.00115179
3.83445e-05
0.0155945
0.00204828
-0.000127358
0.0158001
0.000484307
-0.000307107
0.0154566
-0.000919205
-0.000366849
0.0147894
-0.000885346
0.000117708
0.0141553
-0.00137593
0.000387794
0.0146193
0.000627098
-0.000195576
0.0145716
0.000166702
-0.000415851
0.0151937
-0.000504721
0.00025115
0.0151112
-0.0011595
-9.94627e-05
0.013551
-0.00146232
-0.000119073
0.0129219
-0.000649268
0.00044956
0.0119987
-0.00225186
0.000277458
0.0114262
-0.000894411
8.53452e-05
0.01216
0.000475333
-0.000248423
0.012322
0.000210397
-6.07795e-05
0.0129252
0.000925882
0.000280939
0.00060501
0.000178487
0.0134724
5.29047e-05
-1.45814e-05
0.0136365
0.000521711
1.3162e-05
0.0142893
0.000481524
7.99645e-05
0.0151557
0.00118546
-9.5906e-05
0.0152628
0.000377475
-0.000172449
0.0150191
-0.000675261
-2.85823e-05
0.0145643
-0.000402855
4.17989e-05
0.0138143
-0.000605237
2.48883e-05
0.0143033
0.000166994
1.76626e-05
0.0143973
9.09427e-05
-0.000145746
0.0140898
-0.000170707
-6.60204e-05
0.0136283
-0.000690955
8.46294e-05
0.013209
-0.00106164
-8.09676e-05
0.0131822
-0.000620706
6.39294e-05
0.0121528
-0.00124173
-0.000179937
0.0115669
-0.0003086
2.03997e-06
0.0120778
1.00904e-05
5.6278e-05
0.0123791
-4.28157e-05
-5.72755e-05
0.0126388
0.000740321
8.30771e-05
0.000535673
9.58273e-05
0.0133543
3.06446e-05
-2.28558e-06
0.0136476
0.000231809
2.76563e-05
0.0138592
0.000267863
-1.09779e-05
0.0145186
0.000522782
-5.52948e-05
0.0147325
0.00016196
-1.40816e-05
0.0143327
-0.000273491
2.86184e-05
0.0141495
-0.000217359
4.6907e-06
0.0138366
-0.000290812
3.75295e-06
0.0139024
0.000105139
-5.32997e-05
0.0140101
-1.56249e-05
4.6485e-05
0.013994
-0.000152952
-4.87758e-05
0.0136322
-0.000328721
-1.70934e-05
0.0130202
-0.000445778
2.02009e-05
0.0126207
-0.000211607
-3.77179e-05
0.0119923
-0.000612118
7.3543e-05
0.0118995
-0.000206417
-2.76525e-05
0.0119091
2.19383e-05
-2.20053e-05
0.0118638
1.21945e-05
2.73331e-05
0.0123217
0.000287633
1.1727e-05
0.00019985
-3.78162e-06
0.0133634
2.26094e-06
0.0135962
2.99431e-06
0.0138636
-9.22648e-06
0.0143856
-1.09848e-05
0.0145479
6.73026e-07
0.0142742
1.13261e-05
0.0140587
-7.42224e-06
0.0137684
-2.54588e-07
0.0138748
-1.25873e-05
0.013859
6.05294e-06
0.0137082
-1.24227e-05
0.0133791
1.53708e-06
0.0129322
6.09084e-06
0.0127233
-2.64696e-05
0.0121079
3.28685e-05
0.0119045
-3.0742e-05
0.0119316
-1.85654e-05
0.0119462
1.82066e-05
0.0122359
4.12262e-06
-7.0696e-06
0.0135414
-0.000214979
0.0136393
-0.000122403
0.0138238
-0.00014302
0.0140406
-0.000218077
0.0143609
-0.00036432
0.0143623
-2.27753e-05
0.0140395
0.000321058
0.0137363