/*--------------------------------*- C++ -*----------------------------------*\
  =========                 |
  \\      /  F ield         | OpenFOAM: The Open Source CFD Toolbox
   \\    /   O peration     | Website:  https://openfoam.org
    \\  /    A nd           | Version:  8
     \\/     M anipulation  |
\*---------------------------------------------------------------------------*/
FoamFile
{
    version     2.0;
    format      ascii;
    class       volVectorField;
    location    "70";
    object      U;
}
// * * * * * * * * * * * * * * * * * * * * * * * * * * * * * * * * * * * * * //

dimensions      [0 1 -1 0 0 0 0];

internalField   nonuniform List<vector> 
2844
(
(0.995546 -0.00152273 2.54339e-05)
(1.00556 -0.00539959 2.54871e-05)
(1.03316 -0.00477224 -0.000150051)
(1.05802 -0.0113996 -4.99587e-05)
(1.09393 -0.0112809 6.80604e-05)
(1.07431 -0.00356903 0.000173623)
(1.0654 -0.0119182 -2.01056e-05)
(1.04569 -0.0172506 -5.28123e-05)
(1.02414 -0.00679876 -0.000118046)
(1.03672 -0.0221988 5.43607e-05)
(1.02499 -0.0257798 -3.95343e-05)
(1.03642 -0.00480209 -4.66203e-05)
(1.0166 0.000966844 1.08581e-05)
(0.990725 -0.0120295 1.29079e-05)
(0.938541 -0.00329322 2.44712e-05)
(0.921712 0.00578585 -0.000292585)
(0.873622 -0.020699 0.000421112)
(0.885287 -0.031886 0.000115648)
(0.889411 -0.0234665 -0.000341959)
(0.918665 -0.0196086 -0.000127532)
(0.991634 -0.0024932 -1.95524e-05)
(1.01319 -0.0230096 0.000213633)
(1.0331 -0.0427689 -0.00010678)
(1.06145 -0.0319613 -0.000820943)
(1.11119 -0.000932978 0.000542375)
(1.07536 0.0320892 0.000572988)
(1.06682 0.034532 -0.000440571)
(1.06234 0.0522492 0.000331908)
(1.02012 0.0151695 -0.00042674)
(1.02511 0.0137499 -0.000166001)
(1.04934 0.0339031 8.79298e-06)
(1.06976 0.0102983 0.000139029)
(1.01163 0.0358572 -0.000310381)
(0.993496 0.0748417 0.000111994)
(0.958623 0.0580585 9.13074e-05)
(0.913574 0.0535946 -0.000212632)
(0.851309 0.0441838 0.00133044)
(0.884507 0.0185188 -4.8477e-05)
(0.900461 0.00210811 -0.00101187)
(0.929131 -0.00291424 -0.000460113)
(0.99501 -0.00618197 -0.000278946)
(1.0095 -0.040913 0.000236452)
(1.06655 -0.0459274 1.93308e-05)
(1.10477 -0.0650993 0.000623245)
(1.13831 -0.02495 -0.000970743)
(1.13637 0.0316848 -0.000316602)
(1.13502 -0.000497035 0.00187818)
(1.06062 0.0164999 0.00104549)
(0.99443 0.0179818 -0.00209561)
(1.07091 -0.0478371 -4.51872e-05)
(1.07076 -0.0604359 0.00151134)
(1.06225 0.0244361 -0.0013133)
(1.07979 0.0652909 -0.000651301)
(1.0344 0.0245228 0.00234939)
(0.929749 0.0569576 -0.00156296)
(0.919371 0.0964289 -0.000162475)
(0.889799 -0.0148732 0.0017309)
(0.877267 -0.0705467 -0.00202835)
(0.879113 -0.0493226 -0.00107279)
(0.932883 -0.040228 0.000430377)
(0.987032 -0.00904948 -0.00218723)
(1.017 -0.068669 0.000128548)
(1.09115 -0.142694 0.00200211)
(1.12927 -0.076904 0.000536341)
(1.19528 -0.016468 -0.00422074)
(1.17569 0.0545822 -0.00442609)
(1.1547 0.0711852 0.00632725)
(1.07767 0.171225 -0.00182138)
(0.963259 0.0248491 -0.0010723)
(1.09855 -0.0457234 -0.000643234)
(1.14345 0.0418095 -0.00185194)
(1.18482 0.0152884 0.00656223)
(1.10745 0.0612592 0.00302619)
(1.05325 0.182553 -0.00368667)
(0.997629 0.164174 -0.0113686)
(0.885918 0.0965189 0.0114182)
(0.846108 0.0568605 0.0132695)
(0.832634 0.0658862 -0.0151784)
(0.926536 -0.0190504 -0.0120877)
(1.00594 -0.0437634 0.000365062)
(0.994884 0.00379837 -0.00353534)
(1.03178 -0.122186 0.00618429)
(1.11939 -0.165498 -0.0074841)
(1.33507 -0.151058 -0.0143574)
(1.37643 -0.00517536 -0.00748406)
(1.20421 0.114503 -0.00378921)
(1.23042 0.00426817 0.0117439)
(1.11647 0.202906 0.00705905)
(0.959458 -0.0146963 -0.00489336)
(1.23484 -0.172049 0.00416437)
(1.21837 -0.123312 0.00949375)
(1.27077 0.0111229 -0.0168896)
(1.23279 0.137985 0.00363707)
(0.981228 0.140172 0.0124386)
(1.0054 0.289193 0.00315436)
(0.857361 0.110915 0.0123108)
(0.668821 -0.074629 -0.0189875)
(0.815142 0.0180658 -0.0397197)
(1.02886 -0.081432 -0.027686)
(1.07468 -0.104477 -0.00618589)
(0.932293 -0.0173915 0.00904428)
(1.12554 -0.168796 -0.00202936)
(1.30066 -0.380189 -0.0200769)
(1.40286 -0.0999555 -0.0401934)
(1.42028 0.130961 -0.0183276)
(1.28205 0.252071 -0.000758624)
(1.30439 0.0776499 -0.00375815)
(1.28197 0.373361 0.0276023)
(1.07846 -0.0122609 0.0143622)
(1.36767 -0.197412 -0.0218383)
(1.64923 -0.0166255 -0.00683705)
(1.48387 0.130084 0.0418775)
(1.22645 0.215847 0.0277947)
(1.05957 0.303817 -0.0327463)
(1.47297 0.21493 -0.00964414)
(1.15761 0.250316 0.0216771)
(0.746784 0.276795 0.00275301)
(0.834862 0.125744 -0.0118009)
(0.899728 -0.010506 -0.013174)
(1.10471 -0.0292629 -0.00936114)
(0.882162 -0.159265 0.0503507)
(1.09028 -0.337743 -0.0474039)
(1.4536 -0.322064 -0.0193235)
(1.50701 0.0214851 0.0459686)
(1.76519 -0.0330815 0.0015234)
(1.60044 0.262096 0.000847063)
(1.53599 0.0709549 0.00438174)
(1.4545 0.302735 -0.0105564)
(1.31464 -0.229017 -0.0209946)
(1.60363 -0.345896 -0.0183285)
(1.46967 -0.24502 0.00528575)
(1.75011 0.0338008 -0.0255701)
(1.59196 0.301546 0.00470502)
(0.963155 0.229403 0.0417096)
(0.900155 0.243378 -0.000696907)
(0.617132 0.439508 0.00380934)
(0.815651 0.175884 0.00833448)
(0.967352 -0.030702 0.0202122)
(0.85818 -0.20984 0.0229912)
(0.983042 -0.169905 -0.00427495)
(0.996113 -0.405427 0.034839)
(1.01517 -0.11624 0.0297158)
(1.29713 -1.07823 0.060515)
(1.90312 -1.17703 -0.00320454)
(1.79934 -0.194893 -0.0245145)
(1.61931 0.275259 -0.00366581)
(1.26776 0.312373 -0.056948)
(1.22832 0.64727 0.0725921)
(0.799286 -0.10273 -0.178003)
(1.25933 -0.0954864 -0.199786)
(1.17249 -0.141977 -0.083769)
(1.51505 0.310582 -0.0446409)
(1.84658 0.682953 -0.0112685)
(1.63234 0.446118 0.00249569)
(1.32908 0.543703 -0.00668123)
(1.07286 0.415737 0.0233358)
(1.13951 -0.000477793 0.00391409)
(1.41837 -0.091638 -0.0152557)
(1.23484 -0.240734 -0.05049)
(1.0913 -0.117408 -0.0397469)
(1.14157 -0.389979 0.0228951)
(-0.822128 -1.22319 -0.0287732)
(0.950334 -2.09961 -0.0415806)
(0.287593 -0.0191978 -0.00937444)
(0.252298 0.414304 -0.157786)
(0.199142 0.602577 -0.191793)
(1.09572 0.4207 -0.0564253)
(0.667239 -0.123744 -0.0267705)
(1.02417 -0.331171 0.0130552)
(1.61218 0.212304 0.0241095)
(1.3228 0.595741 0.00120914)
(1.33211 0.693517 0.0153724)
(1.20815 0.433982 0.000417017)
(1.106 -0.0294617 -0.0360132)
(1.38002 0.0555396 -0.0759352)
(1.06053 0.174486 -0.0171831)
(0.953569 0.0536211 0.0100118)
(1.23253 -0.0131103 -0.0747128)
(0.518608 -0.191803 0.0761416)
(-0.265638 -0.0828704 -0.264691)
(-0.0153272 -0.0108356 0.00352529)
(-0.18613 1.1231 -0.080475)
(-0.318453 -0.332196 0.106419)
(0.477268 -0.291065 0.0680621)
(0.330261 -0.0789781 0.0630216)
(0.318709 -0.583187 0.0147645)
(1.10564 0.286065 -0.00504226)
(0.952493 0.46408 0.00886844)
(1.40968 0.565823 0.00334807)
(1.13995 0.601697 0.0207769)
(0.828545 0.107936 0.00715639)
(0.834422 0.443767 -0.0170217)
(0.88813 -0.0315066 0.0462705)
(1.06389 -0.302285 0.0414607)
(0.563933 0.264789 -0.161866)
(1.95945 0.0189175 -0.0930843)
(-0.097513 0.0603478 0.00342061)
(0.0102697 0.541749 0.0437404)
(0.668918 -0.512706 -0.0561098)
(0.296848 -0.556527 -0.0122292)
(0.652483 -0.646737 -0.0195198)
(0.547184 -1.10798 0.0359459)
(0.792453 -0.267151 0.0012081)
(0.713573 0.228144 -0.0188997)
(0.837423 0.637533 -0.0155132)
(0.739173 0.749993 -0.00799714)
(0.828752 0.116273 0.000666767)
(0.632579 0.102269 0.0180651)
(1.11888 -0.348739 -0.0188379)
(1.32322 -0.424727 -0.01516)
(0.914132 0.0928962 -0.0313484)
(0.8711 0.54112 0.0465522)
(0.233034 1.02268 -0.0931869)
(0.0862063 0.241476 0.0149395)
(0.532147 -0.0645538 -0.0475837)
(1.4386 -0.247644 -0.0546094)
(1.183 -0.266867 0.0427516)
(1.29875 -0.368579 -0.0299346)
(1.01196 -0.918168 -0.00594586)
(0.211575 0.0316669 0.0172465)
(0.325172 0.581602 -0.0343177)
(0.305388 0.657855 -0.00278497)
(0.687683 0.684318 -0.0048055)
(0.994155 0.153281 -0.00643522)
(1.18344 -0.0510753 0.0222808)
(1.2176 -0.395666 0.0111678)
(1.07353 -0.321346 -0.0125607)
(0.864479 0.328641 0.00503288)
(1.2592 0.264459 0.0237882)
(0.814767 1.31155 0.00888768)
(0.279076 -0.156026 0.00804264)
(1.53193 -0.120811 -0.060176)
(1.36009 -0.0962848 0.020193)
(1.46193 -0.485825 -0.0473708)
(1.77011 -0.752092 -0.0767841)
(1.51885 -0.346427 0.0417548)
(1.22248 -0.364567 -0.0159993)
(0.979879 0.105301 -0.0429365)
(1.03825 0.459601 0.0208422)
(0.64038 0.346586 0.0105521)
(0.945748 0.242591 0.00136231)
(1.01878 -0.250801 -0.00549115)
(1.38191 -0.338408 -0.052207)
(1.47284 -0.436824 0.000325935)
(0.985907 -0.327957 0.0164965)
(0.982624 0.090831 0.0227328)
(1.00815 0.20951 -0.0240266)
(1.57921 0.300072 0.0364581)
(1.70862 0.103162 0.0574987)
(1.90444 -0.00514205 0.0114401)
(1.63559 0.0041557 0.0410442)
(1.29478 -0.194423 0.031817)
(1.66879 -0.212274 -0.00404785)
(1.83022 -0.258332 0.00286204)
(1.35783 0.0186787 -0.0100464)
(1.08441 -0.182637 0.0213136)
(0.91564 -0.253687 0.0485629)
(0.830139 0.52587 0.0213981)
(0.904514 0.648669 0.00641235)
(1.01414 0.532528 -0.0107134)
(1.39579 0.256742 -0.00543652)
(1.50497 -0.177203 0.00748995)
(1.35882 -0.0386692 0.00213752)
(1.20816 0.0425004 0.00812985)
(0.934512 -0.0116191 0.00644727)
(1.02936 0.0705244 0.0028602)
(0.982785 0.0971656 0.00920686)
(1.23285 0.2792 -0.0229719)
(1.36097 0.19741 -0.0402774)
(1.52625 0.0183152 0.0025949)
(1.31166 -0.259377 0.0534781)
(1.28669 -0.260332 0.00727138)
(1.32373 -0.195961 -0.037499)
(1.31701 -0.203615 -0.00988011)
(1.34912 -0.12301 0.0176746)
(1.15268 -0.235208 0.0250866)
(0.956253 -0.56159 0.00552995)
(0.700731 0.10523 0.00812227)
(0.963161 0.411456 -0.00415691)
(1.21395 0.0918614 -0.0209855)
(1.34461 -0.146449 -0.0285876)
(1.44535 -0.371668 -0.000864341)
(1.14072 -0.155731 0.0159874)
(1.25721 -0.120317 0.00783069)
(1.3165 -0.139459 0.00794197)
(1.05728 0.0527805 -0.00052015)
(0.971908 0.0289609 0.00536418)
(1.10265 0.182766 -0.0175798)
(1.30333 0.190771 0.0021065)
(1.24248 0.0834486 0.0186556)
(1.23659 -0.160399 -0.022597)
(1.16715 -0.246929 -0.0272463)
(1.27255 0.00691759 -0.0165378)
(1.24253 -0.142961 -0.00764302)
(1.11211 -0.0687548 0.00238451)
(1.11363 -0.0904661 0.0229174)
(0.835455 -0.059493 0.00251089)
(0.752503 0.223352 -0.0274745)
(1.0279 0.135587 -0.0184921)
(1.22996 0.256024 -0.0140084)
(1.26868 0.240234 -0.0125158)
(1.11164 -0.0238479 -0.0138703)
(1.06273 -0.122842 0.00226928)
(0.877878 -0.209466 0.00596081)
(0.816021 -0.0899854 0.000585106)
(1.00666 0.0423408 -7.35194e-05)
(1.03019 0.00126341 -0.00295306)
(1.06033 0.148877 0.00210546)
(1.16505 0.120221 0.00761121)
(1.13371 -0.0352366 -0.000191851)
(1.23583 -0.0588904 -0.0112622)
(1.13624 -0.106102 -0.0117009)
(1.12561 -0.124911 0.0060691)
(1.11817 -0.0307967 0.00608495)
(1.00585 -0.0398313 0.00230931)
(1.01005 -0.170275 0.00323935)
(0.862657 -0.207646 0.00755127)
(0.845527 0.123339 -0.00970806)
(1.05812 0.117163 -0.0178796)
(1.06845 -0.0183421 8.16328e-05)
(1.18079 0.0282304 0.00597347)
(1.22863 -0.0593131 0.000676015)
(1.17606 0.010321 0.00112257)
(1.11956 0.00940485 0.00332405)
(1.00418 -0.079113 0.00502547)
(1.00198 0.0292718 -0.000575222)
(1.02784 -0.0065988 -0.00170053)
(1.0215 0.0634092 0.00506495)
(1.12036 0.0714062 0.000715161)
(1.12101 0.0628164 -0.00374136)
(1.14511 -0.0466448 -0.00257153)
(1.09894 -0.0466473 -0.00170404)
(1.05508 -0.028796 0.00133415)
(1.02244 -0.0850493 0.00221613)
(1.04085 -0.00827954 0.00356384)
(1.00598 -0.0150826 0.0015237)
(0.895742 -0.00764565 0.00104491)
(0.862015 0.0842971 -0.000873242)
(1.03553 0.117261 -0.00378829)
(1.04299 0.154251 0.000698991)
(1.04983 0.0499344 0.00391243)
(1.04474 -0.0294581 0.00254224)
(0.99672 -0.0236288 0.00284107)
(1.03652 -0.0827327 -0.000177661)
(1.0024 -0.0427663 -0.000274459)
(1.00866 0.0185996 -0.000258011)
(1.02242 0.00160548 6.06901e-06)
(1.00398 0.030115 0.000693071)
(1.0742 0.0408341 0.000337098)
(1.08194 -0.00591752 -0.000449789)
(1.12887 -0.0163584 -0.000158503)
(1.04289 -0.0423867 -0.000100521)
(1.07131 -0.0522536 3.39485e-05)
(0.992597 -0.0382965 0.000441692)
(0.977404 -0.0471492 0.000100216)
(0.955889 -0.0699537 0.000148394)
(0.913744 -0.0731745 -3.55029e-05)
(0.917173 0.0110212 -0.000214896)
(0.956377 0.0155713 0.000307626)
(1.01336 -0.0123641 8.71706e-05)
(1.08007 -0.00149087 -3.06091e-05)
(1.04347 -0.0335884 -4.93251e-05)
(1.03173 -0.00263299 0.00014851)
(1.01045 -0.00982507 0.000550992)
(0.944606 -0.0467748 0.000361044)
(1.00127 0.00383433 -5.3875e-05)
(1.02259 -0.00135643 -6.25679e-05)
(1.00564 0.0121892 0.000187545)
(1.07215 0.00791457 6.59746e-05)
(1.06401 0.0240339 -9.4157e-05)
(1.10107 -0.00231652 -0.00012103)
(1.04809 0.00207115 -0.000139756)
(1.04756 0.00825888 7.12087e-05)
(0.993193 -0.00866991 9.38456e-05)
(0.989765 0.0151806 8.68517e-05)
(0.95591 0.0241165 3.86338e-05)
(0.92156 0.0306736 -1.55773e-05)
(0.92006 0.0343716 3.52611e-06)
(0.966592 0.0409891 3.34047e-05)
(0.990895 0.0543124 0.000132908)
(1.02752 0.0257088 0.000148987)
(1.0172 0.0120071 0.000132834)
(0.999056 -0.00184778 0.000135883)
(1.01207 -0.0154767 -5.85013e-05)
(0.964756 0.00870259 -1.21174e-05)
(0.995525 -0.00148334 6.14594e-05)
(1.00551 -0.00544465 3.44598e-05)
(1.03332 -0.00480991 -0.000261514)
(1.05808 -0.0116133 -0.000112453)
(1.09382 -0.0110166 0.000102401)
(1.07423 -0.00358588 0.00028656)
(1.06547 -0.0121082 -0.000120771)
(1.04575 -0.0169523 -8.97059e-05)
(1.02406 -0.00698537 -0.000292676)
(1.03668 -0.0223608 0.000109462)
(1.02504 -0.0255697 -0.000121136)
(1.03655 -0.00481423 -0.000101724)
(1.01651 0.000710994 -3.81307e-05)
(0.99074 -0.0119318 1.71155e-05)
(0.938477 -0.00314655 4.14563e-05)
(0.921647 0.00563841 -0.000612789)
(0.874007 -0.0204413 0.000987004)
(0.885098 -0.0318232 2.49386e-05)
(0.88921 -0.023838 -0.000971647)
(0.918714 -0.0198521 -0.000416959)
(0.991672 -0.00221739 -3.47223e-05)
(1.01247 -0.0228357 0.000409856)
(1.0339 -0.0441999 -0.000102846)
(1.06223 -0.032007 -0.00160036)
(1.11033 -0.000457758 0.00092107)
(1.07511 0.0334604 0.00104124)
(1.06708 0.0344137 -0.00101935)
(1.06267 0.0516102 0.000500539)
(1.01961 0.0143469 -0.000908939)
(1.02586 0.014426 -0.000464474)
(1.04944 0.0331379 -0.000231266)
(1.06925 0.0100553 0.000208842)
(1.01211 0.0362559 -0.000586433)
(0.994637 0.0748916 0.000453174)
(0.958667 0.058173 -0.000134733)
(0.912667 0.0507074 -0.000958069)
(0.854769 0.048046 0.00266428)
(0.883941 0.020001 -0.00065315)
(0.89811 -0.000597294 -0.0026789)
(0.928797 -0.00391677 -0.00133371)
(0.995812 -0.00581198 -0.000541897)
(1.00779 -0.0394675 0.000214536)
(1.0645 -0.0481677 0.000631074)
(1.10704 -0.0716136 0.0012764)
(1.14248 -0.0185428 -0.00262211)
(1.13138 0.035864 -0.00220877)
(1.13136 -0.00520184 0.00271502)
(1.06513 0.0204527 0.00252764)
(0.995034 0.014071 -0.00530968)
(1.07016 -0.0499034 -0.000774644)
(1.0693 -0.0593115 0.00328151)
(1.06965 0.0256162 -0.00325338)
(1.07336 0.0609708 -0.00217956)
(1.03222 0.025739 0.00406236)
(0.931859 0.059735 -0.00341342)
(0.910586 0.0918097 0.00184075)
(0.901904 -0.00298698 0.00347869)
(0.879922 -0.0660065 -0.00815667)
(0.86925 -0.0587438 -0.00649158)
(0.929379 -0.0460552 -0.00157564)
(0.994489 -0.0106496 -0.00404596)
(1.01116 -0.0638246 -0.000450926)
(1.08242 -0.147329 0.00482678)
(1.13244 -0.0763798 0.00198572)
(1.19495 -0.019247 -0.0117932)
(1.17452 0.0596078 -0.0104844)
(1.15726 0.0807694 0.0128188)
(1.07727 0.177542 -0.00703002)
(0.961026 0.00852596 -0.00407479)
(1.11637 -0.0439283 -0.00223887)
(1.13387 0.0490993 -0.00686458)
(1.16948 0.00652574 0.0106617)
(1.12475 0.0627863 0.00766958)
(1.06414 0.197633 -0.00690332)
(0.978705 0.157744 -0.0250757)
(0.847339 0.0827018 0.0223041)
(0.887555 0.069347 0.0165932)
(0.878471 0.0710171 -0.0346267)
(0.887792 -0.0253281 -0.0260881)
(0.978723 -0.0465165 -0.00298176)
(0.99585 -0.0180741 -0.00434991)
(1.03497 -0.105873 0.00973461)
(1.10636 -0.157232 -0.0107589)
(1.29801 -0.163462 -0.0260472)
(1.41168 -0.02441 -0.0166725)
(1.23466 0.075363 -0.016428)
(1.17696 0.0516739 0.00202463)
(1.14516 0.196766 0.0102223)
(0.980045 -0.0441091 -0.0194892)
(1.18676 -0.172577 -0.0135443)
(1.25145 -0.11458 0.00295115)
(1.26739 0.054959 -0.0228344)
(1.13165 0.141116 0.0148169)
(1.00498 0.136781 0.0151711)
(1.06381 0.228018 0.00813429)
(0.921809 0.157981 0.0348362)
(0.815418 0.00801997 -0.045387)
(0.81872 -0.0427506 -0.0740914)
(0.934758 -0.143641 -0.0444731)
(1.02798 -0.11834 -0.0117832)
(1.00687 -0.0497801 0.0202764)
(1.04078 -0.103373 -0.0232976)
(1.1875 -0.401981 -0.0124217)
(1.53107 -0.257217 -0.0347206)
(1.48198 0.00908283 -0.0268869)
(1.27846 0.282944 -0.0139377)
(1.25865 0.198567 -0.0376696)
(1.14266 0.379042 0.0186634)
(0.963186 -0.00623348 0.0047342)
(1.32273 -0.15489 -0.0636811)
(1.45435 0.045739 -0.00440093)
(1.36603 0.074731 0.067617)
(1.35623 0.229829 0.029857)
(1.11234 0.321857 -0.065081)
(1.24063 0.210805 -0.00388145)
(0.962563 0.296201 0.055757)
(0.845944 0.183062 -0.00812384)
(0.866727 -0.0412418 -0.0150787)
(0.782322 -0.214341 -0.0229195)
(0.989268 -0.120834 -0.028336)
(1.07767 -0.0791865 0.0849667)
(0.886979 -0.226965 -0.0934207)
(1.42719 -0.617041 0.0389553)
(1.68023 -0.44467 0.121638)
(1.67478 -0.0596887 0.0326038)
(1.41127 0.303783 0.000820631)
(1.54461 0.218462 -0.0397605)
(1.44448 0.589812 -0.0129368)
(1.01184 -0.174774 -0.00592184)
(1.17838 -0.445943 -0.0210823)
(1.39867 -0.233085 -0.00938244)
(1.67344 0.241343 -0.0594296)
(1.29674 0.437531 0.0333895)
(1.00338 0.229811 0.0874022)
(1.01113 0.27745 -0.0202972)
(0.645257 0.440687 -0.0242779)
(0.968553 0.109701 -0.00948939)
(0.986861 -0.0429082 0.0344412)
(0.739597 -0.302501 0.0632678)
(0.847793 -0.27204 -0.00812343)
(1.17929 0.0399309 0.0247865)
(1.05517 -0.348037 0.0671126)
(1.64918 -1.01536 0.1656)
(1.8557 -0.741875 0.0200335)
(1.87074 0.199141 0.00842481)
(1.45145 0.174927 0.028833)
(1.19426 0.242595 -0.00278784)
(1.8047 0.830726 0.073335)
(1.17547 0.18276 -0.132549)
(1.06669 -0.298424 -0.143369)
(0.848641 -0.259576 -0.057471)
(1.35343 0.227657 -0.00202138)
(1.55178 0.672317 0.0213769)
(1.51069 0.524107 0.0109309)
(1.14721 0.544804 -0.00293706)
(1.03178 0.476457 0.0309386)
(1.31318 -0.0138721 -0.0126665)
(1.53884 0.161643 -0.0372582)
(1.16076 -0.170487 0.00576806)
(0.931152 -0.282846 0.00112074)
(1.36897 -0.212949 0.0895373)
(1.02555 -0.905573 -0.0908441)
(1.94656 -1.11726 -0.325191)
(-0.140961 -0.174119 -0.0328612)
(0.766462 0.852639 -0.11716)
(-0.301115 -0.262344 -0.00110387)
(0.643255 -0.574605 0.0468798)
(0.187465 -0.645967 0.00200439)
(0.779972 -0.484803 0.0429586)
(1.43576 0.31106 0.0526209)
(1.16005 0.561058 0.0373272)
(1.22193 0.601425 0.0241371)
(1.30641 0.375049 -0.0270263)
(1.0991 -0.122616 -0.0507028)
(0.994661 0.116567 -0.0827468)
(0.759321 -0.10229 0.0425162)
(0.887773 -0.296148 0.0842046)
(0.727777 0.183031 -0.0258316)
(1.46679 -0.725298 0.429274)
(0.325263 -0.24064 -0.131225)
(-0.0214778 -0.0198219 0.0249723)
(-0.109347 0.850172 0.0541042)
(-0.0305362 -0.223173 0.0838085)
(0.263465 -0.542825 0.0734633)
(0.117825 -0.299779 0.116952)
(0.256553 -0.6338 0.0174199)
(1.01321 0.470552 0.000208214)
(0.914472 0.531826 0.0146217)
(1.27573 0.550066 -0.0154936)
(1.03844 0.571136 0.021752)
(0.75576 0.119372 0.0270785)
(0.616806 0.274638 0.0106673)
(0.877919 -0.102091 0.0554979)
(1.14855 -0.331903 0.0580696)
(0.413576 0.12829 -0.103523)
(0.712075 -0.270114 -0.109792)
(-0.102171 0.0354474 0.061869)
(0.127684 0.604864 0.0563115)
(0.825114 -0.138165 -0.0596719)
(0.412603 -0.574221 0.0162842)
(0.451556 -0.595384 0.0609958)
(0.387049 -1.17476 0.0953799)
(0.749216 -0.25313 0.027423)
(0.739188 0.360198 -0.0193151)
(0.774954 0.61022 -0.0131444)
(0.715332 0.775188 -0.0283436)
(0.80027 0.170756 0.0110423)
(0.767941 -0.027064 0.0588445)
(1.07645 -0.412148 -0.029602)
(1.15228 -0.39497 -0.0388809)
(1.05394 0.00576642 -0.14362)
(1.468 0.0457316 0.193692)
(0.763193 1.14438 -0.254464)
(0.123008 0.185844 0.0871114)
(0.502677 0.124131 -0.118736)
(1.07061 -0.607792 -0.100561)
(0.906813 -0.341479 0.0163494)
(1.04163 -0.323989 -0.0276522)
(0.743093 -0.699849 0.038802)
(0.28697 0.132684 0.0230076)
(0.408087 0.584747 -0.0430085)
(0.295323 0.571296 0.00521275)
(0.612342 0.554435 -0.0134523)
(0.85248 0.0974235 0.00922423)
(1.15118 0.0331337 0.0508489)
(1.28949 -0.402684 0.048149)
(1.04414 -0.401551 0.011494)
(0.94537 0.0537131 -0.00818129)
(1.19741 0.384181 0.0077072)
(1.15269 0.673638 0.1718)
(0.258066 -0.14248 -0.00540842)
(1.39005 -0.175861 -0.051742)
(1.62793 -0.26683 0.0160355)
(1.82737 -0.572113 -0.0197038)
(1.27906 -0.57456 -0.066904)
(1.46576 -0.477275 0.0642623)
(1.55484 -0.669185 -0.0775586)
(0.95721 -0.049223 -0.12479)
(1.01818 0.343133 0.0366417)
(0.720721 0.396345 0.0381571)
(0.918244 0.286239 0.0373668)
(1.05698 -0.256541 0.0080384)
(1.18054 -0.290619 -0.0851048)
(1.24171 -0.286171 -0.0359908)
(0.972044 -0.270934 0.014792)
(1.10897 0.0629181 0.0630639)
(0.887884 0.100286 -0.116096)
(1.55067 0.511853 0.0151316)
(1.75678 0.352697 0.140917)
(1.89914 0.00888783 0.0418579)
(1.46509 -0.283858 0.072504)
(1.362 -0.279098 0.0115379)
(1.55084 -0.17439 -0.0930521)
(1.5703 -0.341868 -0.0150977)
(1.0884 -0.195662 -0.00806569)
(0.93608 -0.360316 0.0655682)
(0.983389 -0.213708 0.0990175)
(0.839985 0.544442 0.00824722)
(0.817266 0.772601 -0.0148894)
(0.845077 0.561134 -0.0272534)
(1.22474 0.206459 0.0143531)
(1.36394 -0.154787 0.0435237)
(1.16261 -0.154818 0.0118656)
(1.12199 -0.110634 -0.00630222)
(1.01058 -0.11068 0.00242741)
(1.0746 0.107057 0.0160051)
(0.935683 0.0424316 -0.0159668)
(1.2132 0.304247 -0.0395068)
(1.4456 0.215296 -0.0453593)
(1.49581 -0.0171884 -0.00709177)
(1.36418 -0.0874411 0.0573096)
(1.46747 -0.0958051 0.0100645)
(1.3739 -0.158572 -0.0504825)
(1.24586 -0.218883 -0.025539)
(1.24536 -0.151446 0.0388239)
(1.08795 -0.351525 0.0489677)
(0.933656 -0.5342 0.040962)
(0.694509 0.292646 0.0608542)
(0.930007 0.575912 0.0324152)
(1.25489 0.228286 0.000770975)
(1.2219 -0.0627942 -0.0367337)
(1.24105 -0.282319 0.00666137)
(1.09815 -0.188076 0.0579457)
(1.1496 -0.182031 0.0266801)
(1.21404 -0.170188 0.0109506)
(1.0564 0.0701737 -0.000973042)
(1.00285 0.0414157 0.0112681)
(1.08409 0.112878 -0.0272239)
(1.24723 0.145669 -0.00281068)
(1.27726 0.126925 0.019924)
(1.31873 -0.0727278 -0.0339471)
(1.18774 -0.187117 -0.0466939)
(1.25966 -0.0622722 -0.0178066)
(1.18718 -0.182549 -0.0052258)
(1.02553 -0.0976812 0.00486267)
(1.08859 -0.110858 0.0293764)
(0.892216 -0.0921733 -0.0109076)
(0.778142 0.313923 -0.0223004)
(1.0087 0.256751 -0.00758188)
(1.24329 0.250934 -0.00628086)
(1.32536 0.202509 -0.0166504)
(1.16458 -0.039366 -0.0303935)
(1.09847 -0.139508 0.00325989)
(0.935266 -0.235578 0.0111058)
(0.835929 -0.130261 -0.00214625)
(1.00347 0.0496785 -0.0011555)
(1.05163 0.0137549 -0.00211947)
(1.03921 0.0970332 0.00323989)
(1.13773 0.114782 0.00828173)
(1.15105 -0.000790475 -0.0050131)
(1.26432 -0.0314882 -0.0268108)
(1.13791 -0.0908606 -0.0229716)
(1.09335 -0.150492 0.0105215)
(1.10615 -0.0466228 0.00630184)
(0.999644 -0.066738 0.000622836)
(0.98702 -0.187371 0.00866927)
(0.864248 -0.211708 0.0178716)
(0.866573 0.135231 -0.00949837)
(1.0568 0.147055 -0.0305758)
(1.03967 -0.0357418 -0.000404121)
(1.18253 -0.0140872 0.0111921)
(1.23025 -0.0807882 0.000683556)
(1.16656 -0.0107893 -0.00500338)
(1.11243 0.0163299 0.00159685)
(1.00796 -0.0751384 0.00887061)
(1.00302 0.0318013 -0.00158977)
(1.02903 -0.0066862 -0.00199202)
(1.01723 0.0559344 0.00937486)
(1.11815 0.0679841 -0.000858412)
(1.11973 0.0670985 -0.00999427)
(1.14455 -0.0451153 -0.00564589)
(1.10532 -0.0453469 -0.00368208)
(1.05358 -0.028848 0.000239994)
(1.01233 -0.0904119 0.00344825)
(1.04409 -0.00913202 0.00624868)
(1.00459 -0.0153338 0.00157219)
(0.895003 -0.00605655 0.00172813)
(0.866815 0.0846564 -0.00195131)
(1.03845 0.113468 -0.0078355)
(1.04292 0.155537 -0.00160895)
(1.04057 0.0494593 0.00406512)
(1.03815 -0.0296278 0.00416542)
(0.992636 -0.0246324 0.00622812)
(1.03524 -0.0885956 0.00151888)
(1.00246 -0.0464813 -0.000145845)
(1.00881 0.0190761 -0.00057887)
(1.02258 0.0023324 0.000300924)
(1.00397 0.0281103 0.00109783)
(1.07355 0.0402745 1.92082e-05)
(1.0817 -0.00502054 -0.00116412)
(1.1291 -0.0150994 -0.000764179)
(1.04274 -0.041095 -0.000265675)
(1.0721 -0.053226 -5.04821e-05)
(0.992318 -0.0387906 0.000335458)
(0.977025 -0.0480594 8.10888e-06)
(0.955418 -0.0703186 0.000510304)
(0.914467 -0.0727917 0.000204456)
(0.918446 0.0109492 -0.000696751)
(0.955266 0.0152549 0.00025635)
(1.01339 -0.0137441 7.41043e-05)
(1.08114 -0.00297775 -0.000427991)
(1.04294 -0.0349667 -0.000300757)
(1.03183 -0.00390991 0.000160436)
(1.01045 -0.00875247 0.000645788)
(0.944201 -0.0464909 0.000540069)
(1.00126 0.00385743 -0.000111618)
(1.02268 -0.00138171 -8.3919e-05)
(1.00569 0.0121791 0.000324509)
(1.072 0.0077093 3.01346e-05)
(1.06391 0.0241277 -0.000247984)
(1.10113 -0.00229064 -0.000268907)
(1.04825 0.00198341 -0.000326622)
(1.04755 0.00837257 7.14988e-05)
(0.993118 -0.00891137 0.000139111)
(0.9898 0.0152911 0.000170025)
(0.955882 0.0240385 5.54086e-05)
(0.921557 0.0306206 -3.04411e-05)
(0.920172 0.0343904 -6.62783e-05)
(0.966642 0.0408873 -3.37576e-05)
(0.990845 0.0544631 0.000146809)
(1.02744 0.0257462 0.000210525)
(1.01717 0.0121204 0.000228367)
(0.998944 -0.00181578 0.000276115)
(1.01204 -0.0158033 -6.07298e-05)
(0.96482 0.00859264 -7.86697e-06)
(0.995493 -0.00144166 3.6108e-05)
(1.00546 -0.0054948 9.10334e-06)
(1.03347 -0.00483321 -0.000111765)
(1.0581 -0.011792 -6.26015e-05)
(1.0937 -0.0108101 3.48487e-05)
(1.07415 -0.00361293 0.000113416)
(1.06557 -0.0123123 -0.000101449)
(1.04583 -0.016721 -3.58055e-05)
(1.02395 -0.00718327 -0.000175923)
(1.03665 -0.0225754 5.64895e-05)
(1.02506 -0.0254103 -8.27417e-05)
(1.03672 -0.00485574 -5.43283e-05)
(1.01637 0.00044121 -5.00774e-05)
(0.990804 -0.0117466 7.00343e-06)
(0.938433 -0.00300851 1.3056e-05)
(0.921521 0.00516861 -0.00032337)
(0.874453 -0.0201886 0.000577435)
(0.884829 -0.0317304 -0.000101625)
(0.888923 -0.0243727 -0.000638711)
(0.918796 -0.0202221 -0.000290234)
(0.991682 -0.00188862 -1.56663e-05)
(1.0118 -0.0228705 0.000198956)
(1.03474 -0.045255 -2.08315e-06)
(1.06275 -0.0321831 -0.000775159)
(1.10941 -0.000305751 0.00038741)
(1.07496 0.0344082 0.000457062)
(1.06742 0.033556 -0.000567941)
(1.06313 0.051198 0.00018108)
(1.01879 0.012965 -0.000503216)
(1.02672 0.0148771 -0.000283014)
(1.04946 0.03213 -0.000219044)
(1.06902 0.00960289 4.63423e-05)
(1.01246 0.0362136 -0.000290274)
(0.99606 0.07459 0.000376579)
(0.958378 0.0583812 -0.000274187)
(0.910704 0.047961 -0.000682729)
(0.859967 0.0530173 0.00139334)
(0.882989 0.0194695 -0.000750969)
(0.894371 -0.0062617 -0.00168991)
(0.928287 -0.00655832 -0.000845667)
(0.996428 -0.00540715 -0.0002677)
(1.00669 -0.0384745 -1.87524e-05)
(1.06269 -0.049104 0.000586519)
(1.10754 -0.0775212 0.000695762)
(1.14646 -0.0143571 -0.00172317)
(1.12816 0.0389896 -0.00192088)
(1.12777 -0.0109585 0.000956635)
(1.07031 0.0230356 0.00124715)
(0.993535 0.00906099 -0.00302087)
(1.07109 -0.0535537 -0.000588802)
(1.06768 -0.0602636 0.00153679)
(1.07596 0.0257424 -0.00178928)
(1.06742 0.0568776 -0.00128982)
(1.03129 0.0295801 0.00163413)
(0.932557 0.0602515 -0.00250478)
(0.897693 0.0805543 0.00252566)
(0.918269 0.00822821 0.001594)
(0.877256 -0.0646503 -0.00708473)
(0.857213 -0.0756573 -0.00498178)
(0.929237 -0.0569929 -0.00154969)
(0.999324 -0.012435 -0.00187791)
(1.01047 -0.0621229 -0.000362318)
(1.07187 -0.144421 0.00263595)
(1.13139 -0.0750955 0.00139229)
(1.20363 -0.0320253 -0.00804674)
(1.17352 0.0490721 -0.00594238)
(1.16376 0.0804167 0.00722681)
(1.08218 0.187193 -0.00519603)
(0.957028 -0.0186853 -0.00287938)
(1.13342 -0.0494633 -0.00177655)
(1.12544 0.0576028 -0.00432728)
(1.16135 -0.00793311 0.00397267)
(1.13034 0.0554921 0.00489128)
(1.08009 0.206145 -0.00327841)
(0.96474 0.147998 -0.0117882)
(0.829351 0.0876656 0.0144758)
(0.939207 0.0803752 -0.00139898)
(0.864235 0.0313774 -0.0214152)
(0.845939 -0.0810647 -0.0117051)
(0.976457 -0.074116 -0.00200466)
(0.98856 -0.0382579 -0.00146443)
(1.04955 -0.0965347 0.00647544)
(1.10368 -0.133247 -0.00684011)
(1.26895 -0.17449 -0.0131668)
(1.44087 -0.090106 -0.0109384)
(1.27209 0.0262615 -0.0130225)
(1.15748 0.105852 -0.00938792)
(1.16363 0.157574 0.00722131)
(0.983964 -0.0889683 -0.0126803)
(1.1563 -0.189458 -0.0206692)
(1.25985 -0.134253 -0.00690361)
(1.23805 0.0780554 -0.00601955)
(1.08436 0.159953 0.0121894)
(1.04292 0.127691 -0.00234574)
(1.07021 0.138096 0.0042438)
(0.983445 0.204988 0.0191184)
(0.939545 0.0141642 -0.0263765)
(0.73788 -0.161279 -0.0248895)
(0.801087 -0.293588 -0.0139294)
(1.00303 -0.183926 -0.00526671)
(1.02126 -0.0665146 0.00730632)
(1.03502 -0.0608516 -0.00275436)
(1.12288 -0.417695 -0.0251308)
(1.53514 -0.392978 -0.00599978)
(1.56435 -0.15671 -0.00992286)
(1.31888 0.193072 -0.00847432)
(1.37889 0.128334 -0.039312)
(1.08569 0.417083 -0.0127669)
(0.845224 -0.11368 -0.0217346)
(1.20455 -0.349688 -0.0505025)
(1.26598 -0.00803233 0.00239216)
(1.42276 0.0498407 0.0173146)
(1.44769 0.263961 -0.00206502)
(1.08708 0.284286 -0.0300196)
(0.949057 0.22136 0.0114378)
(0.836787 0.386354 0.0268781)
(0.93311 0.0486707 -0.00778568)
(0.753943 -0.145631 0.00217569)
(0.630869 -0.459773 0.00352293)
(0.89014 -0.286011 -0.016329)
(1.07425 -0.0260689 0.0274092)
(1.01122 -0.248254 -0.0214922)
(1.3387 -0.690925 -0.0339301)
(1.57993 -0.771032 0.0394402)
(1.56833 -0.000303662 0.0846806)
(1.65847 0.117419 0.0302879)
(1.60728 0.00492016 -0.00828785)
(1.44693 0.625411 -0.00342676)
(0.883809 -0.336308 -0.0214902)
(0.909473 -0.868538 -0.0392918)
(1.21829 -0.371325 -0.0359506)
(1.40398 0.202826 -0.0402891)
(0.996423 0.52497 0.0212942)
(1.21681 0.221344 0.0542896)
(1.31565 0.339242 -0.0122185)
(0.845024 0.446107 -0.0312652)
(1.09194 0.0251809 -0.0167533)
(0.832395 0.0222974 0.00970305)
(0.741678 -0.494959 0.0678065)
(0.857017 -0.551456 0.0154322)
(1.17775 0.203114 0.0283266)
(1.15622 -0.569564 -0.0321814)
(1.68349 -1.16774 0.085487)
(1.83183 -0.921547 0.0702358)
(1.71574 0.00384041 0.0252465)
(1.53172 0.231805 0.0357063)
(1.23757 0.156411 0.015903)
(1.99023 0.983302 0.0423121)
(1.27015 0.208741 -0.0104647)
(0.848294 -0.660745 -0.0540731)
(0.363397 -0.54819 -0.0351988)
(1.13233 -0.0302546 0.0301284)
(1.5097 0.526999 0.00455206)
(1.38596 0.449896 -0.000199718)
(1.06975 0.410382 0.00663592)
(1.20334 0.433924 0.00668393)
(1.47032 -0.0197836 -0.0313313)
(1.4476 0.241025 -0.0275435)
(1.31871 -0.0119089 0.0290707)