0 	-3.0525e-09
1.57135 	8.10564e-07
3.1427 	9.50892e-06
4.71405 	4.42179e-05
6.28539 	0.000131937
7.85674 	0.000306253
9.42809 	0.000603125
10.9994 	0.00107749
12.5708 	0.00191225
14.1421 	0.00482029
