/*--------------------------------*- C++ -*----------------------------------*\
  =========                 |
  \\      /  F ield         | OpenFOAM: The Open Source CFD Toolbox
   \\    /   O peration     | Website:  https://openfoam.org
    \\  /    A nd           | Version:  8
     \\/     M anipulation  |
\*---------------------------------------------------------------------------*/
FoamFile
{
    version     2.0;
    format      ascii;
    class       surfaceScalarField;
    location    "0.335";
    object      phi;
}
// * * * * * * * * * * * * * * * * * * * * * * * * * * * * * * * * * * * * * //

dimensions      [0 3 -1 0 0 0 0];

internalField   nonuniform List<scalar> 
760
(
1.42316e-08
-1.42661e-08
-2.22102e-08
3.64418e-08
-1.14266e-07
9.20559e-08
-2.45485e-07
1.31219e-07
-3.96084e-07
1.50598e-07
-5.47346e-07
1.51262e-07
-6.83165e-07
1.35819e-07
-7.90632e-07
1.07467e-07
-8.60173e-07
6.95409e-08
-8.85605e-07
2.54324e-08
-8.64285e-07
-2.13208e-08
-7.97357e-07
-6.69283e-08
-6.90058e-07
-1.07299e-07
-5.51952e-07
-1.38106e-07
-3.96929e-07
-1.55023e-07
-2.42741e-07
-1.54188e-07
-1.0973e-07
-1.33011e-07
-1.84165e-08
-9.13141e-08
1.56885e-08
-3.41051e-08
1.56886e-08
-3.42142e-08
1.9948e-08
-1.80369e-07
1.82597e-07
-4.33977e-07
3.45664e-07
-7.64413e-07
4.61656e-07
-1.13218e-06
5.18367e-07
-1.4972e-06
5.16284e-07
-1.82329e-06
4.61903e-07
-2.08048e-06
3.64658e-07
-2.24621e-06
2.35275e-07
-2.30598e-06
8.51953e-08
-2.25384e-06
-7.34588e-08
-2.09299e-06
-2.27775e-07
-1.83621e-06
-3.6408e-07
-1.506e-06
-4.68317e-07
-1.13405e-06
-5.26972e-07
-7.59502e-07
-5.28738e-07
-4.2539e-07
-4.67123e-07
-1.72688e-07
-3.44016e-07
-3.08017e-08
-1.75992e-07
-1.5113e-08
-9.22254e-08
1.12173e-07
-3.56987e-07
4.47358e-07
-7.64538e-07
7.53214e-07
-1.26845e-06
9.6557e-07
-1.81465e-06
1.06456e-06
-2.34898e-06
1.05062e-06
-2.82235e-06
9.35277e-07
-3.19385e-06
7.36155e-07
-3.43251e-06
4.73935e-07
-3.51841e-06
1.71096e-07
-3.44347e-06
-1.48396e-07
-3.21216e-06
-4.59084e-07
-2.84202e-06
-7.3422e-07
-2.36374e-06
-9.46605e-07
-1.82026e-06
-1.07045e-06
-1.26445e-06
-1.08455e-06
-7.54502e-07
-9.77074e-07
-3.46961e-07
-7.51556e-07
-8.73337e-08
-4.3562e-07
-1.02447e-07
-1.45206e-07
2.5738e-07
-5.25446e-07
8.27597e-07
-1.0816e-06
1.30937e-06
-1.74746e-06
1.63143e-06
-2.45426e-06
1.77136e-06
-3.13628e-06
1.73264e-06
-3.73517e-06
1.53417e-06
-4.20278e-06
1.20376e-06
-4.50278e-06
7.73937e-07
-4.61178e-06
2.80102e-07
-4.52012e-06
-2.40062e-07
-4.23261e-06
-7.46597e-07
-3.76925e-06
-1.19757e-06
-3.16554e-06
-1.55032e-06
-2.4718e-06
-1.76419e-06
-1.75102e-06
-1.80534e-06
-1.07448e-06
-1.65361e-06
-5.15124e-07
-1.31091e-06
-1.39311e-07
-8.11432e-07
-2.41758e-07
-1.93604e-07
4.50984e-07
-6.8498e-07
1.31897e-06
-1.38558e-06
2.00997e-06
-2.20717e-06
2.45302e-06
-3.06537e-06
2.62956e-06
-3.88366e-06
2.55092e-06
-4.59636e-06
2.24688e-06
-5.15042e-06
1.75782e-06
-5.50628e-06
1.12979e-06
-5.63835e-06
4.12175e-07
-5.53558e-06
-3.42826e-07
-5.20221e-06
-1.07997e-06
-4.65874e-06
-1.74105e-06
-3.94284e-06
-2.26622e-06
-3.10961e-06
-2.59741e-06
-2.23043e-06
-2.68451e-06
-1.3896e-06
-2.49445e-06
-6.78479e-07
-2.02203e-06
-1.87762e-07
-1.30215e-06
-4.2952e-07
-2.39934e-07
6.90918e-07
-8.40327e-07
1.91937e-06
-1.68324e-06
2.85288e-06
-2.65699e-06
3.42676e-06
-3.66074e-06
3.63331e-06
-4.60765e-06
3.49783e-06
-5.42621e-06
3.06544e-06
-6.06041e-06
2.39202e-06
-6.46919e-06
1.53857e-06
-6.62588e-06
5.68868e-07
-6.51815e-06
-4.50553e-07
-6.14864e-06
-1.44948e-06
-5.5364e-06
-2.35329e-06
-4.71881e-06
-3.08381e-06
-3.75337e-06
-3.56285e-06
-2.71841e-06
-3.71947e-06
-1.7115e-06
-3.50136e-06
-8.44642e-07
-2.88889e-06
-2.36174e-07
-1.91062e-06
-6.65694e-07
-2.86739e-07
9.77657e-07
-9.97066e-07
2.62969e-06
-1.98204e-06
3.83786e-06
-3.10489e-06
4.54961e-06
-4.24787e-06
4.7763e-06
-5.31471e-06
4.56467e-06
-6.22999e-06
3.98072e-06
-6.93704e-06
3.09906e-06
-7.39534e-06
1.99687e-06
-7.57848e-06
7.52002e-07
-7.47302e-06
-5.5601e-07
-7.07898e-06
-1.84351e-06
-6.41177e-06
-3.0205e-06
-5.50549e-06
-3.99009e-06
-4.41698e-06
-4.65135e-06
-3.22932e-06
-4.90714e-06
-2.05292e-06
-4.67776e-06
-1.02252e-06
-3.91928e-06
-2.88276e-07
-2.64486e-06
-9.5397e-07
-3.36327e-07
1.31398e-06
-1.16036e-06
3.45372e-06
-2.28799e-06
4.96549e-06
-3.55495e-06
5.81657e-06
-4.82656e-06
6.04791e-06
-5.99899e-06
5.7371e-06
-6.99594e-06
4.97767e-06
-7.76342e-06
3.86654e-06
-8.26437e-06
2.49783e-06
-8.4745e-06
9.62129e-07
-8.37985e-06
-6.50658e-07
-7.97679e-06
-2.24657e-06
-7.27449e-06
-3.72281e-06
-6.29988e-06
-4.9647e-06
-5.10462e-06
-5.84661e-06
-3.77249e-06
-6.23927e-06
-2.42486e-06
-6.02539e-06
-1.22073e-06
-5.12341e-06
-3.47704e-07
-3.51789e-06
-1.30167e-06
-3.90955e-07
1.70494e-06
-1.33488e-06
4.39765e-06
-2.60496e-06
6.23558e-06
-4.00592e-06
7.21753e-06
-5.38678e-06
7.42876e-06
-6.6397e-06
6.99002e-06
-7.69238e-06
6.03034e-06
-8.4984e-06
4.67256e-06
-9.02835e-06
3.02778e-06
-9.26285e-06
1.19663e-06
-9.18858e-06
-7.24928e-07
-8.79742e-06
-2.63773e-06
-8.08931e-06
-4.43092e-06
-7.07897e-06
-5.97504e-06
-5.80629e-06
-7.1193e-06
-4.34902e-06
-7.69653e-06
-2.8348e-06
-7.53961e-06
-1.44708e-06
-6.51112e-06
-4.18096e-07
-4.54688e-06
-1.71977e-06
-4.53453e-07
2.15839e-06
-1.52568e-06
5.46988e-06
-2.93488e-06
7.64477e-06
-4.45011e-06
8.73276e-06
-5.90632e-06
8.88498e-06
-7.19781e-06
8.28151e-06
-8.26366e-06
7.09619e-06
-9.07207e-06
5.48097e-06
-9.60687e-06
3.56258e-06
-9.85759e-06
1.44736e-06
-9.81342e-06
-7.691e-07
-9.46138e-06
-2.98978e-06
-8.78911e-06
-5.10319e-06
-7.793e-06
-6.97114e-06
-6.49221e-06
-8.42009e-06
-4.94797e-06
-9.24077e-06
-3.28511e-06
-9.20247e-06
-1.70868e-06
-8.08756e-06
-5.03586e-07
-5.75197e-06
-2.22336e-06
-5.28337e-07
2.68673e-06
-1.73966e-06
6.6812e-06
-3.27798e-06
9.18309e-06
-4.87164e-06
1.03264e-05
-6.34703e-06
1.03604e-05
-7.61084e-06
9.54533e-06
-8.62438e-06
8.10973e-06
-9.37971e-06
6.2363e-06
-9.88102e-06
4.06389e-06
-1.01316e-05
1.6979e-06
-1.01258e-05
-7.7485e-07
-9.84636e-06
-3.26923e-06
-9.26601e-06
-5.68354e-06
-8.35635e-06
-7.8808e-06
-7.1047e-06
-9.67173e-06
-5.5407e-06
-1.08048e-05
-3.77071e-06
-1.09725e-05
-2.01217e-06
-9.8461e-06
-6.09688e-07
-7.15445e-06
-2.83304e-06
-6.23668e-07
3.3104e-06
-1.98739e-06
8.04493e-06
-3.63193e-06
1.08276e-05
-5.24195e-06
1.19364e-05
-6.64761e-06
1.1766e-05
-7.78453e-06
1.06822e-05
-8.65107e-06
8.97628e-06
-9.27437e-06
6.8596e-06
-9.68661e-06
4.47612e-06
-9.90989e-06
1.92118e-06
-9.9473e-06
-7.37435e-07
-9.77865e-06
-3.43788e-06
-9.36094e-06
-6.10124e-06
-8.63566e-06
-8.60608e-06
-7.54642e-06
-1.0761e-05
-6.0716e-06
-1.22796e-05
-4.27428e-06
-1.27698e-05
-2.36365e-06
-1.17567e-05
-7.44778e-07
-8.77332e-06
-3.57782e-06
-7.54079e-07
4.06448e-06
-2.28436e-06
9.57521e-06
-3.98704e-06
1.25303e-05
-5.50914e-06
1.34585e-05
-6.70967e-06
1.29666e-05
-7.57864e-06
1.15512e-05
-8.17015e-06
9.56779e-06
-8.55774e-06
7.24719e-06
-8.80785e-06
4.72623e-06
-8.96517e-06
2.07851e-06
-9.04448e-06
-6.5812e-07
-9.02586e-06
-3.45651e-06
-8.85269e-06
-6.27441e-06
-8.4349e-06
-9.02387e-06
-7.66297e-06
-1.15329e-05
-6.44205e-06
-1.35005e-05
-4.75628e-06
-1.44556e-05
-2.76676e-06
-1.37462e-05
-9.22437e-07
-1.06176e-05
-4.50026e-06
-9.4521e-07
5.00969e-06
-2.6485e-06
1.12785e-05
-4.31102e-06
1.41928e-05
-5.57334e-06
1.47209e-05
-6.37075e-06
1.3764e-05
-6.78335e-06
1.19638e-05
-6.94058e-06
9.72502e-06
-6.96982e-06
7.27643e-06
-6.97287e-06
4.72928e-06
-7.01659e-06
2.12223e-06
-7.12869e-06
-5.46021e-07
-7.29384e-06
-3.29136e-06
-7.44871e-06
-6.11954e-06
-7.47794e-06
-8.99464e-06
-7.21798e-06
-1.17929e-05
-6.48279e-06
-1.42357e-05
-5.13346e-06
-1.58049e-05
-3.21499e-06
-1.56647e-05
-1.16439e-06
-1.26682e-05
-5.66465e-06
-1.23732e-06
6.24701e-06
-3.0833e-06
1.31245e-05
-4.50773e-06
1.56172e-05
-5.23452e-06
1.54477e-05
-5.35527e-06
1.38847e-05
-5.0819e-06
1.16905e-05
-4.63097e-06
9.27409e-06
-4.17935e-06
6.8248e-06
-3.85445e-06
4.40438e-06
-3.73711e-06
2.00489e-06
-3.86521e-06
-4.17919e-07
-4.23272e-06
-2.92385e-06
-4.78215e-06
-5.5701e-06
-5.39113e-06
-8.38566e-06
-5.85854e-06
-1.13255e-05
-5.90661e-06
-1.41876e-05
-5.23284e-06
-1.64787e-05
-3.66628e-06
-1.72313e-05
-1.50008e-06
-1.48344e-05
-7.16473e-06
-1.67381e-06
7.92082e-06
-3.51338e-06
1.49641e-05
-4.31532e-06
1.64192e-05
-4.08891e-06
1.52212e-05
-3.1931e-06
1.29889e-05
-1.9988e-06
1.04962e-05
-7.95222e-07
8.07051e-06
2.19249e-07
5.81033e-06
9.18139e-07
3.70549e-06
1.22551e-06
1.69752e-06
1.10197e-06
-2.9438e-07
5.40974e-07
-2.36285e-06
-4.23006e-07
-4.60612e-06
-1.69263e-06
-7.11603e-06
-3.07246e-06
-9.94563e-06
-4.23086e-06
-1.30292e-05
-4.69567e-06
-1.60138e-05
-3.96719e-06
-1.79597e-05
-1.94493e-06
-1.68567e-05
-9.10966e-06
-2.23069e-06
1.01515e-05
-3.5903e-06
1.63237e-05
-3.0778e-06
1.59067e-05
-1.34391e-06
1.34874e-05
8.96987e-07
1.0748e-05
3.1549e-06
8.23824e-06
5.13804e-06
6.08737e-06
6.68861e-06
4.25977e-06
7.72574e-06
2.66836e-06
8.20646e-06
1.2168e-06
8.10379e-06
-1.91717e-07
7.39895e-06
-1.65801e-06
6.08678e-06
-3.29396e-06
4.19912e-06
-5.22837e-06
1.8541e-06
-7.60061e-06
-6.61752e-07
-1.05134e-05
-2.7922e-06
-1.38834e-05
-3.6621e-06
-1.70898e-05
-2.41154e-06
-1.81073e-05
-1.15212e-05
-2.57382e-06
1.27253e-05
-2.18347e-06
1.59333e-05
7.18054e-07
1.30052e-05
4.46954e-06
9.73587e-06
8.13325e-06
7.08429e-06
1.13015e-05
5.06997e-06
1.3829e-05
3.55987e-06
1.5688e-05
2.40077e-06
1.68916e-05
1.46479e-06
1.74548e-05
6.536e-07
1.73763e-05
-1.132e-07
1.66304e-05
-9.12147e-07
1.51671e-05
-1.83065e-06
1.29234e-05
-2.98472e-06
9.8617e-06
-4.53886e-06
6.06193e-06
-6.71362e-06
1.91232e-06
-9.73378e-06
-1.55964e-06
-1.36179e-05
-2.45834e-06
-1.72086e-05
-1.39795e-05
-7.85013e-07
1.35103e-05
4.08079e-06
1.10675e-05
1.02975e-05
6.78842e-06
1.57936e-05
4.23979e-06
2.0158e-05
2.7199e-06
2.3458e-05
1.76994e-06
2.58608e-05
1.15713e-06
2.75215e-05
7.40049e-07
2.8554e-05
4.32291e-07
2.90264e-05
1.8122e-07
2.89622e-05
-4.8981e-08
2.83387e-05
-2.88697e-07
2.70818e-05
-5.73737e-07
2.5055e-05
-9.57952e-07
2.20517e-05
-1.53552e-06
1.78155e-05
-2.47741e-06
1.21724e-05
-4.09068e-06
5.47771e-06
-6.92324e-06
-1.29172e-07
-1.16017e-05
-1.41087e-05
1.35103e-05
2.45779e-05
3.13663e-05
3.56061e-05
3.8326e-05
4.00959e-05
4.1253e-05
4.19931e-05
4.24254e-05
4.26066e-05
4.25576e-05
4.22689e-05
4.16952e-05
4.07372e-05
3.92017e-05
3.67243e-05
3.26336e-05
2.57104e-05
1.41087e-05
)
;

boundaryField
{
    movingWall
    {
        type            calculated;
        value           uniform 0;
    }
    fixedWalls
    {
        type            calculated;
        value           uniform 0;
    }
    frontAndBack
    {
        type            empty;
        value           nonuniform List<scalar> 0();
    }
}


// ************************************************************************* //
