/*--------------------------------*- C++ -*----------------------------------*\
  =========                 |
  \\      /  F ield         | OpenFOAM: The Open Source CFD Toolbox
   \\    /   O peration     | Website:  https://openfoam.org
    \\  /    A nd           | Version:  8
     \\/     M anipulation  |
\*---------------------------------------------------------------------------*/
FoamFile
{
    version     2.0;
    format      ascii;
    class       surfaceScalarField;
    location    "40.5";
    object      phi;
}
// * * * * * * * * * * * * * * * * * * * * * * * * * * * * * * * * * * * * * //

dimensions      [0 3 -1 0 0 0 0];

internalField   nonuniform List<scalar> 
22960
(
-2.23917e-07
2.24172e-07
-7.948e-07
5.70883e-07
-1.51182e-06
7.17016e-07
-2.28259e-06
7.70775e-07
-3.06725e-06
7.8466e-07
-3.85377e-06
7.86514e-07
-4.64024e-06
7.86473e-07
-5.42707e-06
7.8683e-07
-6.21486e-06
7.87795e-07
-7.00408e-06
7.89215e-07
-7.79503e-06
7.90949e-07
-8.58794e-06
7.92914e-07
-9.38301e-06
7.95066e-07
-1.01804e-05
7.97375e-07
-1.09802e-05
7.99822e-07
-1.17826e-05
8.0239e-07
-1.25877e-05
8.05062e-07
-1.33955e-05
8.07822e-07
-1.42061e-05
8.10652e-07
-1.50197e-05
8.13537e-07
-1.58361e-05
8.16456e-07
-1.66555e-05
8.19391e-07
-1.74778e-05
8.22321e-07
-1.83031e-05
8.25223e-07
-1.91311e-05
8.28077e-07
-1.9962e-05
8.30859e-07
-2.07955e-05
8.33545e-07
-2.16317e-05
8.3611e-07
-2.24702e-05
8.38531e-07
-2.3311e-05
8.40783e-07
-2.41538e-05
8.42842e-07
-2.49985e-05
8.44687e-07
-2.58448e-05
8.46297e-07
-2.66924e-05
8.47655e-07
-2.75412e-05
8.48749e-07
-2.83908e-05
8.4957e-07
-2.92409e-05
8.5012e-07
-3.00913e-05
8.5041e-07
-3.09418e-05
8.50463e-07
-3.17921e-05
8.50322e-07
-3.26421e-05
8.50048e-07
-3.34919e-05
8.49734e-07
-3.43414e-05
8.49509e-07
-3.51909e-05
8.49548e-07
-3.6041e-05
8.50082e-07
-3.68924e-05
8.51417e-07
-3.77464e-05
8.53939e-07
-3.86045e-05
8.58121e-07
-3.9469e-05
8.64489e-07
-4.03425e-05
8.73521e-07
-4.12279e-05
8.85378e-07
-4.21273e-05
8.99432e-07
-4.3041e-05
9.13711e-07
-4.39662e-05
9.25175e-07
-4.4906e-05
9.39767e-07
-4.59441e-05
1.03818e-06
-4.74647e-05
1.52057e-06
-5.02683e-05
2.80356e-06
-6.0068e-05
9.79971e-06
2.31403e-05
-8.32082e-05
-5.80877e-07
8.05049e-07
-1.71933e-06
1.70934e-06
-3.1035e-06
2.10118e-06
-4.58655e-06
2.25383e-06
-6.10434e-06
2.30245e-06
-7.63318e-06
2.31535e-06
-9.16558e-06
2.31888e-06
-1.06997e-05
2.3209e-06
-1.22351e-05
2.32326e-06
-1.37721e-05
2.32619e-06
-1.53107e-05
2.32959e-06
-1.68512e-05
2.33337e-06
-1.83936e-05
2.33746e-06
-1.9938e-05
2.3418e-06
-2.14845e-05
2.34634e-06
-2.30332e-05
2.35105e-06
-2.4584e-05
2.35588e-06
-2.6137e-05
2.36079e-06
-2.7692e-05
2.36573e-06
-2.92492e-05
2.37067e-06
-3.08083e-05
2.37554e-06
-3.23692e-05
2.3803e-06
-3.39317e-05
2.3849e-06
-3.54958e-05
2.38927e-06
-3.70611e-05
2.39338e-06
-3.86274e-05
2.39715e-06
-4.01944e-05
2.40052e-06
-4.17617e-05
2.40345e-06
-4.3329e-05
2.40586e-06
-4.4896e-05
2.40771e-06
-4.64621e-05
2.40894e-06
-4.80269e-05
2.4095e-06
-4.95899e-05
2.40937e-06
-5.11508e-05
2.4085e-06
-5.27089e-05
2.40689e-06
-5.42639e-05
2.40456e-06
-5.58153e-05
2.40153e-06
-5.73628e-05
2.39789e-06
-5.89061e-05
2.39375e-06
-6.04451e-05
2.38929e-06
-6.19798e-05
2.38479e-06
-6.35107e-05
2.3806e-06
-6.50384e-05
2.37723e-06
-6.65642e-05
2.37537e-06
-6.80901e-05
2.37593e-06
-6.96188e-05
2.38015e-06
-7.11546e-05
2.38973e-06
-7.27034e-05
2.40694e-06
-7.42738e-05
2.43488e-06
-7.58782e-05
2.47789e-06
-7.75349e-05
2.54213e-06
-7.92725e-05
2.63697e-06
-8.1137e-05
2.77828e-06
-8.32098e-05
2.99793e-06
-8.56441e-05
3.37408e-06
-8.87213e-05
4.11538e-06
-9.28869e-05
5.68618e-06
-9.90017e-05
8.91831e-06
-0.000106754
1.75522e-05
2.96776e-05
-0.000113291
-7.40347e-07
1.5454e-06
-2.14157e-06
3.11057e-06
-3.82998e-06
3.78959e-06
-5.63087e-06
4.05472e-06
-7.47158e-06
4.14315e-06
-9.32523e-06
4.169e-06
-1.1183e-05
4.17664e-06
-1.30423e-05
4.18026e-06
-1.49027e-05
4.18359e-06
-1.67639e-05
4.18738e-06
-1.86259e-05
4.19165e-06
-2.04889e-05
4.19631e-06
-2.23527e-05
4.20127e-06
-2.42174e-05
4.20647e-06
-2.60829e-05
4.21183e-06
-2.79491e-05
4.21728e-06
-2.98159e-05
4.22275e-06
-3.16833e-05
4.22817e-06
-3.35511e-05
4.23347e-06
-3.5419e-05
4.23858e-06
-3.72868e-05
4.24341e-06
-3.91544e-05
4.24787e-06
-4.10214e-05
4.25189e-06
-4.28875e-05
4.25537e-06
-4.47523e-05
4.25821e-06
-4.66155e-05
4.26033e-06
-4.84766e-05
4.26163e-06
-5.03352e-05
4.26201e-06
-5.21907e-05
4.26138e-06
-5.40427e-05
4.25965e-06
-5.58905e-05
4.25675e-06
-5.77336e-05
4.25261e-06
-5.95714e-05
4.24718e-06
-6.14033e-05
4.24044e-06
-6.32288e-05
4.23238e-06
-6.50473e-05
4.22304e-06
-6.68583e-05
4.21254e-06
-6.86614e-05
4.20102e-06
-7.04564e-05
4.18875e-06
-7.22432e-05
4.1761e-06
-7.4022e-05
4.16359e-06
-7.57934e-05
4.15193e-06
-7.75583e-05
4.14212e-06
-7.93184e-05
4.13548e-06
-8.10762e-05
4.1338e-06
-8.28356e-05
4.13949e-06
-8.46017e-05
4.15583e-06
-8.6382e-05
4.1873e-06
-8.81873e-05
4.24012e-06
-9.00325e-05
4.3231e-06
-9.19395e-05
4.4491e-06
-9.39405e-05
4.63798e-06
-9.60847e-05
4.92252e-06
-9.84494e-05
5.36265e-06
-0.000101155
6.07918e-06
-0.000104354
7.31536e-06
-0.000108178
9.5092e-06
-0.00011273
1.34711e-05
-0.000116211
2.10331e-05
3.06679e-05
-0.000117201
-8.03463e-07
2.34886e-06
-2.31633e-06
4.62343e-06
-4.13058e-06
5.60384e-06
-6.05952e-06
5.98366e-06
-8.02829e-06
6.11192e-06
-1.00099e-05
6.15063e-06
-1.19956e-05
6.16238e-06
-1.39829e-05
6.16751e-06
-1.59709e-05
6.17159e-06
-1.79594e-05
6.17587e-06
-1.99482e-05
6.1805e-06
-2.19374e-05
6.18544e-06
-2.39267e-05
6.1906e-06
-2.59161e-05
6.19588e-06
-2.79055e-05
6.20121e-06
-2.98947e-05
6.20648e-06
-3.18835e-05
6.21161e-06
-3.38719e-05
6.2165e-06
-3.58595e-05
6.22105e-06
-3.7846e-05
6.22515e-06
-3.98313e-05
6.22868e-06
-4.1815e-05
6.23154e-06
-4.37967e-05
6.2336e-06
-4.5776e-05
6.23473e-06
-4.77526e-05
6.23481e-06
-4.9726e-05
6.2337e-06
-5.16956e-05
6.23127e-06
-5.3661e-05
6.22739e-06
-5.56216e-05
6.22195e-06
-5.75767e-05
6.21481e-06
-5.95259e-05
6.20588e-06
-6.14683e-05
6.19506e-06
-6.34034e-05
6.18231e-06
-6.53306e-05
6.16758e-06
-6.72491e-05
6.1509e-06
-6.91584e-05
6.13235e-06
-7.1058e-05
6.11208e-06
-7.29473e-05
6.09035e-06
-7.48261e-05
6.06754e-06
-7.66942e-05
6.04421e-06
-7.85517e-05
6.02115e-06
-8.03992e-05
5.99942e-06
-8.22376e-05
5.98048e-06
-8.40684e-05
5.96628e-06
-8.58941e-05
5.95946e-06
-8.77181e-05
5.96355e-06
-8.95457e-05
5.98339e-06
-9.13839e-05
6.02555e-06
-9.3243e-05
6.09918e-06
-9.51371e-05
6.21717e-06
-9.70862e-05
6.39823e-06
-9.91185e-05
6.67029e-06
-0.000101273
7.07687e-06
-0.0001036
7.68939e-06
-0.000106151
8.63025e-06
-0.000108941
1.01053e-05
-0.000111871
1.24391e-05
-0.000114549
1.61494e-05
-0.000115423
2.19071e-05
2.87232e-05
-0.000113478
-8.2168e-07
3.17054e-06
-2.37589e-06
6.17765e-06
-4.23714e-06
7.46509e-06
-6.2132e-06
7.95972e-06
-8.22823e-06
8.12695e-06
-1.02555e-05
8.17785e-06
-1.22864e-05
8.19337e-06
-1.43188e-05
8.19983e-06
-1.63517e-05
8.20452e-06
-1.83849e-05
8.20912e-06
-2.04184e-05
8.21392e-06
-2.24518e-05
8.2189e-06
-2.44852e-05
8.22398e-06
-2.65184e-05
8.22905e-06
-2.85512e-05
8.234e-06
-3.05834e-05
8.23873e-06
-3.26149e-05
8.24313e-06
-3.46455e-05
8.24706e-06
-3.66748e-05
8.2504e-06
-3.87027e-05
8.25302e-06
-4.07288e-05
8.25477e-06
-4.27527e-05
8.25549e-06
-4.47742e-05
8.25504e-06
-4.67927e-05
8.25326e-06
-4.88079e-05
8.24996e-06
-5.08192e-05
8.245e-06
-5.28261e-05
8.2382e-06
-5.48281e-05
8.22938e-06
-5.68245e-05
8.2184e-06
-5.88148e-05
8.2051e-06
-6.07983e-05
8.18935e-06
-6.27743e-05
8.17103e-06
-6.4742e-05
8.15007e-06
-6.67009e-05
8.12644e-06
-6.86502e-05
8.10015e-06
-7.05891e-05
8.0713e-06
-7.25171e-05
8.0401e-06
-7.44336e-05
8.00686e-06
-7.63382e-05
7.97208e-06
-7.82304e-05
7.93647e-06
-8.01103e-05
7.90101e-06
-8.19779e-05
7.86706e-06
-8.38339e-05
7.83643e-06
-8.56792e-05
7.81158e-06
-8.75155e-05
7.79578e-06
-8.93454e-05
7.79342e-06
-9.11724e-05
7.81042e-06
-9.30016e-05
7.85477e-06
-9.48398e-05
7.93742e-06
-9.66962e-05
8.07351e-06
-9.85823e-05
8.28433e-06
-0.000100512
8.60043e-06
-0.000102502
9.06649e-06
-0.000104562
9.74958e-06
-0.000106683
1.07512e-05
-0.000108798
1.22198e-05
-0.00011072
1.43616e-05
-0.000112012
1.74408e-05
-0.000111692
2.15873e-05
2.62874e-05
-0.000109256
-8.24258e-07
3.9948e-06
-2.39146e-06
7.74485e-06
-4.26825e-06
9.34188e-06
-6.26001e-06
9.95147e-06
-8.29015e-06
1.01571e-05
-1.03319e-05
1.02196e-05
-1.23772e-05
1.02386e-05
-1.44237e-05
1.02463e-05
-1.64706e-05
1.02515e-05
-1.85179e-05
1.02564e-05
-2.05653e-05
1.02613e-05
-2.26128e-05
1.02663e-05
-2.46601e-05
1.02713e-05
-2.67071e-05
1.02761e-05
-2.87537e-05
1.02806e-05
-3.07998e-05
1.02848e-05
-3.2845e-05
1.02883e-05
-3.48892e-05
1.02913e-05
-3.69321e-05
1.02933e-05
-3.89735e-05
1.02944e-05
-4.10129e-05
1.02943e-05
-4.30502e-05
1.02928e-05
-4.50849e-05
1.02897e-05
-4.71166e-05
1.02849e-05
-4.91447e-05
1.02782e-05
-5.1169e-05
1.02692e-05
-5.31887e-05
1.02579e-05
-5.52033e-05
1.0244e-05
-5.72123e-05
1.02273e-05
-5.92149e-05
1.02077e-05
-6.12104e-05
1.01849e-05
-6.31983e-05
1.01589e-05
-6.51776e-05
1.01294e-05
-6.71476e-05
1.00965e-05
-6.91076e-05
1.00602e-05
-7.10568e-05
1.00205e-05
-7.29944e-05
9.97767e-06
-7.49196e-05
9.9321e-06
-7.68319e-05
9.88432e-06
-7.87305e-05
9.83512e-06
-8.06151e-05
9.78562e-06
-8.24854e-05
9.73733e-06
-8.43413e-05
9.69231e-06
-8.6183e-05
9.65329e-06
-8.80111e-05
9.62392e-06
-8.98268e-05
9.60904e-06
-9.16314e-05
9.61507e-06
-9.34272e-05
9.6506e-06
-9.52169e-05
9.72712e-06
-9.70035e-05
9.8601e-06
-9.87898e-05
1.00706e-05
-0.000100577
1.03873e-05
-0.00010236
1.08498e-05
-0.000104123
1.15126e-05
-0.000105821
1.24492e-05
-0.000107355
1.37541e-05
-0.000108531
1.55379e-05
-0.000108988
1.78972e-05
-0.000108192
2.07916e-05
2.39133e-05
-0.000105818
-8.22931e-07
4.81773e-06
-2.39298e-06
9.3149e-06
-4.27394e-06
1.12228e-05
-6.2703e-06
1.19478e-05
-8.30487e-06
1.21917e-05
-1.03508e-05
1.22656e-05
-1.24001e-05
1.22879e-05
-1.44505e-05
1.22966e-05
-1.65014e-05
1.23024e-05
-1.85526e-05
1.23076e-05
-2.0604e-05
1.23127e-05
-2.26554e-05
1.23178e-05
-2.47068e-05
1.23227e-05
-2.6758e-05
1.23273e-05
-2.88089e-05
1.23315e-05
-3.08592e-05
1.23351e-05
-3.29089e-05
1.2338e-05
-3.49576e-05
1.234e-05
-3.70051e-05
1.23408e-05
-3.90512e-05
1.23404e-05
-4.10955e-05
1.23386e-05
-4.31377e-05
1.2335e-05
-4.51774e-05
1.23294e-05
-4.72142e-05
1.23217e-05
-4.92477e-05
1.23116e-05
-5.12773e-05
1.22988e-05
-5.33025e-05
1.22831e-05
-5.53228e-05
1.22643e-05
-5.73374e-05
1.2242e-05
-5.93458e-05
1.22161e-05
-6.13472e-05
1.21863e-05
-6.33408e-05
1.21525e-05
-6.53259e-05
1.21145e-05
-6.73016e-05
1.20722e-05
-6.9267e-05
1.20256e-05
-7.12213e-05
1.19747e-05
-7.31634e-05
1.19199e-05
-7.50926e-05
1.18613e-05
-7.70079e-05
1.17996e-05
-7.89083e-05
1.17356e-05
-8.0793e-05
1.16704e-05
-8.26613e-05
1.16055e-05
-8.45122e-05
1.15432e-05
-8.63452e-05
1.14863e-05
-8.81595e-05
1.14383e-05
-8.99547e-05
1.14042e-05
-9.17301e-05
1.13905e-05
-9.34849e-05
1.14054e-05
-9.52178e-05
1.14599e-05
-9.6926e-05
1.15684e-05
-9.86049e-05
1.17495e-05
-0.000100245
1.20275e-05
-0.000101829
1.24337e-05
-0.000103324
1.30079e-05
-0.000104673
1.37976e-05
-0.000105774
1.48556e-05
-0.000106466
1.62292e-05
-0.0001065
1.79313e-05
-0.000105585
1.9877e-05
2.18474e-05
-0.000103519
-8.20969e-07
5.6387e-06
-2.39062e-06
1.08846e-05
-4.27206e-06
1.31043e-05
-6.26945e-06
1.39452e-05
-8.30512e-06
1.42273e-05
-1.03521e-05
1.43126e-05
-1.24024e-05
1.43381e-05
-1.44537e-05
1.4348e-05
-1.65055e-05
1.43542e-05
-1.85578e-05
1.43598e-05
-2.06102e-05
1.43652e-05
-2.26629e-05
1.43704e-05
-2.47156e-05
1.43754e-05
-2.67682e-05
1.43799e-05
-2.88207e-05
1.43839e-05
-3.08727e-05
1.43871e-05
-3.29242e-05
1.43895e-05
-3.49749e-05
1.43907e-05
-3.70246e-05
1.43906e-05
-3.90731e-05
1.43889e-05
-4.112e-05
1.43854e-05
-4.3165e-05
1.438e-05
-4.52077e-05
1.43722e-05
-4.72477e-05
1.43618e-05
-4.92846e-05
1.43485e-05
-5.13179e-05
1.43321e-05
-5.3347e-05
1.43123e-05
-5.53714e-05
1.42886e-05
-5.73903e-05
1.4261e-05
-5.94032e-05
1.42289e-05
-6.14092e-05
1.41923e-05
-6.34076e-05
1.41509e-05
-6.53974e-05
1.41043e-05
-6.73779e-05
1.40526e-05
-6.9348e-05
1.39957e-05
-7.13067e-05
1.39334e-05
-7.32529e-05
1.38661e-05
-7.51855e-05
1.37939e-05
-7.71033e-05
1.37174e-05
-7.90051e-05
1.36373e-05
-8.08896e-05
1.35548e-05
-8.27553e-05
1.34713e-05
-8.46008e-05
1.33888e-05
-8.64245e-05
1.331e-05
-8.82246e-05
1.32384e-05
-8.99989e-05
1.31786e-05
-9.17449e-05
1.31364e-05
-9.3459e-05
1.31195e-05
-9.51365e-05
1.31374e-05
-9.67704e-05
1.32024e-05
-9.83505e-05
1.33296e-05
-9.98609e-05
1.35378e-05
-0.000101277
1.38498e-05
-0.00010256
1.42914e-05
-0.000103653
1.48899e-05
-0.000104466
1.56693e-05
-0.000104877
1.66401e-05
-0.000104725
1.77793e-05
-0.000103848
1.89996e-05
2.01378e-05
-0.000102138
-8.19009e-07
6.45771e-06
-2.38728e-06
1.24528e-05
-4.26809e-06
1.49851e-05
-6.2654e-06
1.59425e-05
-8.30119e-06
1.62631e-05
-1.03483e-05
1.63598e-05
-1.23987e-05
1.63885e-05
-1.44502e-05
1.63995e-05
-1.65023e-05
1.64063e-05
-1.85549e-05
1.64124e-05
-2.06077e-05
1.64181e-05
-2.26609e-05
1.64236e-05
-2.47143e-05
1.64288e-05
-2.67677e-05
1.64334e-05
-2.88211e-05
1.64373e-05
-3.08743e-05
1.64403e-05
-3.29271e-05
1.64423e-05
-3.49794e-05
1.64429e-05
-3.70309e-05
1.6442e-05
-3.90813e-05
1.64393e-05
-4.11304e-05
1.64346e-05
-4.31779e-05
1.64274e-05
-4.52234e-05
1.64176e-05
-4.72665e-05
1.64049e-05
-4.93067e-05
1.63888e-05
-5.13437e-05
1.6369e-05
-5.33767e-05
1.63453e-05
-5.54052e-05
1.63172e-05
-5.74287e-05
1.62844e-05
-5.94462e-05
1.62465e-05
-6.14572e-05
1.62033e-05
-6.34607e-05
1.61544e-05
-6.54559e-05
1.60995e-05
-6.74417e-05
1.60384e-05
-6.94171e-05
1.59711e-05
-7.13809e-05
1.58973e-05
-7.3332e-05
1.58171e-05
-7.52689e-05
1.57308e-05
-7.71902e-05
1.56387e-05
-7.90943e-05
1.55415e-05
-8.09796e-05
1.54401e-05
-8.2844e-05
1.53357e-05
-8.46855e-05
1.52303e-05
-8.65016e-05
1.5126e-05
-8.82894e-05
1.50262e-05
-9.00454e-05
1.49346e-05
-9.17653e-05
1.48563e-05
-9.34435e-05
1.47978e-05
-9.50729e-05
1.47667e-05
-9.66433e-05
1.47728e-05
-9.81413e-05
1.48275e-05
-9.95476e-05
1.49441e-05
-0.000100835
1.51374e-05
-0.000101966
1.54221e-05
-0.000102887
1.58111e-05
-0.000103528
1.63102e-05
-0.000103799
1.69107e-05
-0.000103597
1.75771e-05
-0.00010283
1.82331e-05
1.87577e-05
-0.00010145
-8.17062e-07
7.27477e-06
-2.38361e-06
1.40194e-05
-4.26343e-06
1.68649e-05
-6.26031e-06
1.79394e-05
-8.2959e-06
1.82987e-05
-1.0343e-05
1.84068e-05
-1.23933e-05
1.84389e-05
-1.44448e-05
1.8451e-05
-1.6497e-05
1.84585e-05
-1.85497e-05
1.84651e-05
-2.06029e-05
1.84713e-05
-2.26565e-05
1.84772e-05
-2.47104e-05
1.84827e-05
-2.67646e-05
1.84875e-05
-2.88189e-05
1.84916e-05
-3.08732e-05
1.84947e-05
-3.29274e-05
1.84965e-05
-3.49813e-05
1.84968e-05
-3.70346e-05
1.84954e-05
-3.90872e-05
1.84919e-05
-4.11387e-05
1.84861e-05
-4.31889e-05
1.84776e-05
-4.52374e-05
1.84662e-05
-4.72839e-05
1.84513e-05
-4.93278e-05
1.84327e-05
-5.13688e-05
1.841e-05
-5.34062e-05
1.83827e-05
-5.54394e-05
1.83505e-05
-5.74679e-05
1.83129e-05
-5.94909e-05
1.82695e-05
-6.15076e-05
1.822e-05
-6.35171e-05
1.81639e-05
-6.55184e-05
1.81008e-05
-6.75105e-05
1.80306e-05
-6.94923e-05
1.79528e-05
-7.14624e-05
1.78674e-05
-7.34195e-05
1.77742e-05
-7.53621e-05
1.76734e-05
-7.72884e-05
1.7565e-05
-7.91966e-05
1.74497e-05
-8.10846e-05
1.7328e-05
-8.29499e-05
1.7201e-05
-8.47898e-05
1.70702e-05
-8.66012e-05
1.69374e-05
-8.83802e-05
1.68052e-05
-9.01223e-05
1.66767e-05
-9.18219e-05
1.65559e-05
-9.3472e-05
1.64478e-05
-9.50635e-05
1.63583e-05
-9.65849e-05
1.62942e-05
-9.80208e-05
1.62634e-05
-9.9351e-05
1.62744e-05
-0.000100549
1.63354e-05
-0.00010158
1.6453e-05
-0.000102399
1.66303e-05
-0.000102951
1.68624e-05
-0.000103173
1.71321e-05
-0.000102998
1.74022e-05
-0.000102374
1.76098e-05
1.76671e-05
-0.000101284
-8.15039e-07
8.08981e-06
-2.37968e-06
1.5584e-05
-4.25836e-06
1.87436e-05
-6.25466e-06
1.99357e-05
-8.28994e-06
2.0334e-05
-1.03368e-05
2.04537e-05
-1.23871e-05
2.04891e-05
-1.44385e-05
2.05024e-05
-1.64908e-05
2.05107e-05
-1.85437e-05
2.05179e-05
-2.05971e-05
2.05248e-05
-2.26512e-05
2.05313e-05
-2.47058e-05
2.05372e-05
-2.67608e-05
2.05425e-05
-2.88161e-05
2.0547e-05
-3.08717e-05
2.05502e-05
-3.29274e-05
2.05522e-05
-3.4983e-05
2.05524e-05
-3.70384e-05
2.05508e-05
-3.90933e-05
2.05468e-05
-4.11475e-05
2.05403e-05
-4.32008e-05
2.05309e-05
-4.52526e-05
2.05181e-05
-4.73028e-05
2.05015e-05
-4.93509e-05
2.04808e-05
-5.13964e-05
2.04555e-05
-5.34388e-05
2.04251e-05
-5.54774e-05
2.03891e-05
-5.75117e-05
2.03471e-05
-5.95408e-05
2.02987e-05
-6.15641e-05
2.02432e-05
-6.35804e-05
2.01802e-05
-6.5589e-05
2.01094e-05
-6.75886e-05
2.00302e-05
-6.95779e-05
1.99422e-05
-7.15558e-05
1.98452e-05
-7.35205e-05
1.97389e-05
-7.54704e-05
1.96233e-05
-7.74036e-05
1.94983e-05
-7.9318e-05
1.9364e-05
-8.12111e-05
1.92211e-05
-8.308e-05
1.907e-05
-8.49217e-05
1.89118e-05
-8.67322e-05
1.87479e-05
-8.85071e-05
1.85801e-05
-9.02411e-05
1.84107e-05
-9.19277e-05
1.82425e-05
-9.35589e-05
1.8079e-05
-9.51247e-05
1.79241e-05
-9.66127e-05
1.77822e-05
-9.80073e-05
1.7658e-05
-9.92887e-05
1.75559e-05
-0.000100432
1.7479e-05
-0.000101408
1.74283e-05
-0.000102178
1.74006e-05
-0.000102701
1.73857e-05
-0.000102932
1.7363e-05
-0.000102829
1.72985e-05
-0.000102361
1.71421e-05
1.68292e-05
-0.000101523
-8.12872e-07
8.90268e-06
-2.37542e-06
1.71466e-05
-4.25285e-06
2.0621e-05
-6.24848e-06
2.19314e-05
-8.28338e-06
2.23689e-05
-1.033e-05
2.25003e-05
-1.23801e-05
2.25392e-05
-1.44315e-05
2.25539e-05
-1.64838e-05
2.2563e-05
-1.85369e-05
2.2571e-05
-2.05907e-05
2.25786e-05
-2.26453e-05
2.25858e-05
-2.47006e-05
2.25925e-05
-2.67565e-05
2.25984e-05
-2.88129e-05
2.26034e-05
-3.08699e-05
2.26072e-05
-3.29272e-05
2.26095e-05
-3.49848e-05
2.261e-05
-3.70425e-05
2.26084e-05
-3.91e-05
2.26044e-05
-4.11572e-05
2.25975e-05
-4.32137e-05
2.25874e-05
-4.52694e-05
2.25737e-05
-4.73238e-05
2.25559e-05
-4.93765e-05
2.25335e-05
-5.1427e-05
2.2506e-05
-5.34749e-05
2.2473e-05
-5.55196e-05
2.24338e-05
-5.75604e-05
2.23879e-05
-5.95965e-05
2.23348e-05
-6.16272e-05
2.22739e-05
-6.36515e-05
2.22045e-05
-6.56683e-05
2.21262e-05
-6.76766e-05
2.20384e-05
-6.9675e-05
2.19406e-05
-7.1662e-05
2.18322e-05
-7.36361e-05
2.1713e-05
-7.55953e-05
2.15825e-05
-7.75376e-05
2.14406e-05
-7.94606e-05
2.12871e-05
-8.13616e-05
2.11221e-05
-8.32375e-05
2.09459e-05
-8.50847e-05
2.0759e-05
-8.68989e-05
2.05622e-05
-8.86753e-05
2.03565e-05
-9.04078e-05
2.01432e-05
-9.20895e-05
1.99242e-05
-9.3712e-05
1.97014e-05
-9.52648e-05
1.94769e-05
-9.67354e-05
1.92529e-05
-9.81087e-05
1.90313e-05
-9.93662e-05
1.88134e-05
-0.000100486
1.85986e-05
-0.000101442
1.83841e-05
-0.000102204
1.81629e-05
-0.00010274
1.79223e-05
-0.000103019
1.76419e-05
-0.000103013
1.72918e-05
-0.000102703
1.68324e-05
1.62159e-05
-0.00010209
-8.1052e-07
9.7132e-06
-2.3708e-06
1.87068e-05
-4.24685e-06
2.2497e-05
-6.24173e-06
2.39262e-05
-8.27618e-06
2.44033e-05
-1.03225e-05
2.45467e-05
-1.23724e-05
2.45891e-05
-1.44238e-05
2.46053e-05
-1.64762e-05
2.46154e-05
-1.85294e-05
2.46243e-05
-2.05836e-05
2.46328e-05
-2.26387e-05
2.46409e-05
-2.46947e-05
2.46485e-05
-2.67516e-05
2.46553e-05
-2.88093e-05
2.46611e-05
-3.08677e-05
2.46657e-05
-3.29268e-05
2.46686e-05
-3.49865e-05
2.46697e-05
-3.70466e-05
2.46685e-05
-3.9107e-05
2.46647e-05
-4.11674e-05
2.46579e-05
-4.32276e-05
2.46477e-05
-4.52874e-05
2.46335e-05
-4.73463e-05
2.46148e-05
-4.94041e-05
2.45913e-05
-5.14603e-05
2.45622e-05
-5.35143e-05
2.4527e-05
-5.55657e-05
2.44851e-05
-5.76137e-05
2.44359e-05
-5.96576e-05
2.43788e-05
-6.16967e-05
2.43129e-05
-6.37299e-05
2.42378e-05
-6.57563e-05
2.41526e-05
-6.77746e-05
2.40567e-05
-6.97834e-05
2.39494e-05
-7.17813e-05
2.38302e-05
-7.37666e-05
2.36982e-05
-7.57372e-05
2.35531e-05
-7.76909e-05
2.33943e-05
-7.96253e-05
2.32215e-05
-8.15375e-05
2.30342e-05
-8.34239e-05
2.28324e-05
-8.52809e-05
2.2616e-05
-8.71039e-05
2.23852e-05
-8.88876e-05
2.21402e-05
-9.06259e-05
2.18815e-05
-9.23114e-05
2.16098e-05
-9.39356e-05
2.13255e-05
-9.54881e-05
2.10294e-05
-9.69568e-05
2.07216e-05
-9.83274e-05
2.04019e-05
-9.9583e-05
2.0069e-05
-0.000100704
1.97198e-05
-0.000101669
1.93491e-05
-0.000102454
1.89479e-05
-0.000103035
1.85026e-05
-0.000103387
1.79942e-05
-0.000103492
1.7397e-05
-0.000103339
1.66797e-05
1.58066e-05
-0.00010293
-8.0796e-07
1.05212e-05
-2.36575e-06
2.02646e-05
-4.2403e-06
2.43716e-05
-6.23434e-06
2.59203e-05
-8.26828e-06
2.64373e-05
-1.03143e-05
2.65927e-05
-1.2364e-05
2.66388e-05
-1.44152e-05
2.66565e-05
-1.64676e-05
2.66678e-05
-1.8521e-05
2.66777e-05
-2.05756e-05
2.66873e-05
-2.26312e-05
2.66966e-05
-2.4688e-05
2.67053e-05
-2.67459e-05
2.67132e-05
-2.88048e-05
2.67201e-05
-3.08649e-05
2.67257e-05
-3.29259e-05
2.67296e-05
-3.49878e-05
2.67316e-05
-3.70506e-05
2.67313e-05
-3.9114e-05
2.67281e-05
-4.11779e-05
2.67218e-05
-4.3242e-05
2.67118e-05
-4.53062e-05
2.66976e-05
-4.73701e-05
2.66787e-05
-4.94334e-05
2.66545e-05
-5.14957e-05
2.66244e-05
-5.35564e-05
2.65877e-05
-5.56151e-05
2.65438e-05
-5.76711e-05
2.64919e-05
-5.97237e-05
2.64314e-05
-6.17721e-05
2.63613e-05
-6.38153e-05
2.6281e-05
-6.58524e-05
2.61896e-05
-6.7882e-05
2.60863e-05
-6.99029e-05
2.59703e-05
-7.19134e-05
2.58407e-05
-7.39118e-05
2.56966e-05
-7.5896e-05
2.55374e-05
-7.78638e-05
2.53621e-05
-7.98125e-05
2.51702e-05
-8.17391e-05
2.49608e-05
-8.36401e-05
2.47334e-05
-8.55115e-05
2.44873e-05
-8.73486e-05
2.42222e-05
-8.91459e-05
2.39376e-05
-9.08973e-05
2.36329e-05
-9.25954e-05
2.33078e-05
-9.42316e-05
2.29618e-05
-9.57961e-05
2.25938e-05
-9.72773e-05
2.22028e-05
-9.86619e-05
2.17865e-05
-9.99349e-05
2.1342e-05
-0.000101079
2.08644e-05
-0.000102077
2.03467e-05
-0.000102908
1.97793e-05
-0.000103554
1.91486e-05
-0.000103998
1.84373e-05
-0.000104224
1.76237e-05
-0.000104227
1.66826e-05
1.55866e-05
-0.000104007
-8.05174e-07
1.13263e-05
-2.36025e-06
2.18197e-05
-4.23315e-06
2.62445e-05
-6.22624e-06
2.79134e-05
-8.25957e-06
2.84706e-05
-1.03051e-05
2.86382e-05
-1.23545e-05
2.86882e-05
-1.44056e-05
2.87076e-05
-1.6458e-05
2.87201e-05
-1.85116e-05
2.87313e-05
-2.05664e-05
2.87422e-05
-2.26226e-05
2.87527e-05
-2.46802e-05
2.87628e-05
-2.67391e-05
2.87721e-05
-2.87994e-05
2.87804e-05
-3.0861e-05
2.87874e-05
-3.29241e-05
2.87927e-05
-3.49884e-05
2.87959e-05
-3.70539e-05
2.87968e-05
-3.91205e-05
2.87948e-05
-4.11881e-05
2.87894e-05
-4.32564e-05
2.87802e-05
-4.53253e-05
2.87666e-05
-4.73945e-05
2.8748e-05
-4.94638e-05
2.87237e-05
-5.15326e-05
2.86932e-05
-5.36006e-05
2.86557e-05
-5.56672e-05
2.86105e-05
-5.77319e-05
2.85566e-05
-5.9794e-05
2.84934e-05
-6.18527e-05
2.842e-05
-6.3907e-05
2.83353e-05
-6.59559e-05
2.82386e-05
-6.79983e-05
2.81287e-05
-7.00327e-05
2.80047e-05
-7.20576e-05
2.78656e-05
-7.40712e-05
2.77102e-05
-7.60714e-05
2.75376e-05
-7.80559e-05
2.73467e-05
-8.0022e-05
2.71363e-05
-8.19667e-05
2.69054e-05
-8.38862e-05
2.66529e-05
-8.57767e-05
2.63778e-05
-8.76333e-05
2.60788e-05
-8.94506e-05
2.57549e-05
-9.12225e-05
2.54048e-05
-9.29418e-05
2.50271e-05
-9.46001e-05
2.46201e-05
-9.61881e-05
2.41818e-05
-9.7695e-05
2.37097e-05
-9.91087e-05
2.32002e-05
-0.000100416
2.26491e-05
-0.000101602
2.20502e-05
-0.000102651
2.13958e-05
-0.000103547
2.06756e-05
-0.000104275
1.98769e-05
-0.000104822
1.8984e-05
-0.000105177
1.79785e-05
-0.000105334
1.68397e-05
1.55462e-05
-0.000105294
-8.02148e-07
1.21285e-05
-2.35427e-06
2.33718e-05
-4.22533e-06
2.81155e-05
-6.21735e-06
2.99054e-05
-8.24998e-06
3.05032e-05
-1.0295e-05
3.06833e-05
-1.2344e-05
3.07372e-05
-1.43949e-05
3.07584e-05
-1.64472e-05
3.07724e-05
-1.85008e-05
3.0785e-05
-2.0556e-05
3.07973e-05
-2.26127e-05
3.08094e-05
-2.46709e-05
3.08211e-05
-2.67309e-05
3.0832e-05
-2.87925e-05
3.0842e-05
-3.08559e-05
3.08507e-05
-3.29209e-05
3.08577e-05
-3.49877e-05
3.08627e-05
-3.70561e-05
3.08652e-05
-3.9126e-05
3.08647e-05
-4.11975e-05
3.08608e-05
-4.32702e-05
3.08529e-05
-4.53442e-05
3.08405e-05
-4.7419e-05
3.08228e-05
-4.94945e-05
3.07992e-05
-5.15703e-05
3.07691e-05
-5.36461e-05
3.07315e-05
-5.57213e-05
3.06857e-05
-5.77954e-05
3.06308e-05
-5.98678e-05
3.05658e-05
-6.19376e-05
3.04898e-05
-6.40041e-05
3.04018e-05
-6.60661e-05
3.03006e-05
-6.81226e-05
3.01852e-05
-7.01722e-05
3.00543e-05
-7.22133e-05
2.99067e-05
-7.42442e-05
2.97411e-05
-7.62627e-05
2.95562e-05
-7.82666e-05
2.93506e-05
-8.02532e-05
2.91229e-05
-8.22194e-05
2.88716e-05
-8.41617e-05
2.85952e-05
-8.60759e-05
2.8292e-05
-8.79576e-05
2.79604e-05
-8.98012e-05
2.75986e-05
-9.16009e-05
2.72045e-05
-9.33496e-05
2.67758e-05
-9.50395e-05
2.631e-05
-9.66617e-05
2.58041e-05
-9.82064e-05
2.52544e-05
-9.96626e-05
2.46564e-05
-0.000101018
2.40048e-05
-0.000102261
2.32926e-05
-0.000103377
2.25116e-05
-0.000104353
2.16517e-05
-0.000105176
2.07006e-05
-0.000105836
1.96442e-05
-0.000106325
1.84666e-05
-0.000106636
1.71508e-05
1.56794e-05
-0.000106769
-7.98869e-07
1.29274e-05
-2.34776e-06
2.49207e-05
-4.2168e-06
2.99846e-05
-6.20761e-06
3.18962e-05
-8.23942e-06
3.25351e-05
-1.02838e-05
3.27277e-05
-1.23324e-05
3.27858e-05
-1.43829e-05
3.28089e-05
-1.6435e-05
3.28245e-05
-1.84886e-05
3.28387e-05
-2.0544e-05
3.28527e-05
-2.26011e-05
3.28666e-05
-2.46601e-05
3.28801e-05
-2.6721e-05
3.2893e-05
-2.8784e-05
3.2905e-05
-3.0849e-05
3.29157e-05
-3.29161e-05
3.29248e-05
-3.49854e-05
3.29319e-05
-3.70567e-05
3.29365e-05
-3.91301e-05
3.29381e-05
-4.12056e-05
3.29363e-05
-4.32829e-05
3.29303e-05
-4.53621e-05
3.29196e-05
-4.74428e-05
3.29036e-05
-4.9525e-05
3.28814e-05
-5.16082e-05
3.28523e-05
-5.36922e-05
3.28155e-05
-5.57766e-05
3.277e-05
-5.78607e-05
3.27149e-05
-5.99441e-05
3.26492e-05
-6.2026e-05
3.25717e-05
-6.41056e-05
3.24814e-05
-6.6182e-05
3.2377e-05
-6.8254e-05
3.22572e-05
-7.03202e-05
3.21206e-05
-7.23793e-05
3.19658e-05
-7.44295e-05
3.17912e-05
-7.64688e-05
3.15954e-05
-7.84948e-05
3.13766e-05
-8.0505e-05
3.11331e-05
-8.24964e-05
3.08629e-05
-8.44654e-05
3.05642e-05
-8.64081e-05
3.02348e-05
-8.83201e-05
2.98724e-05
-9.01962e-05
2.94747e-05
-9.20305e-05
2.90388e-05
-9.38165e-05
2.85618e-05
-9.55469e-05
2.80404e-05
-9.72133e-05
2.74705e-05
-9.88067e-05
2.68478e-05
-0.000100317
2.61669e-05
-0.000101734
2.54216e-05
-0.000103046
2.46047e-05
-0.000104242
2.37073e-05
-0.00010531
2.27197e-05
-0.000106239
2.16302e-05
-0.000107021
2.04259e-05
-0.000107648
1.9093e-05
-0.000108114
1.76169e-05
1.59832e-05
-0.000108417
-7.95324e-07
1.37227e-05
-2.3407e-06
2.64661e-05
-4.2075e-06
3.18514e-05
-6.19693e-06
3.38857e-05
-8.22778e-06
3.45659e-05
-1.02714e-05
3.47714e-05
-1.23194e-05
3.48337e-05
-1.43694e-05
3.4859e-05
-1.64212e-05
3.48763e-05
-1.84747e-05
3.48922e-05
-2.05302e-05
3.49081e-05
-2.25877e-05
3.4924e-05
-2.46473e-05
3.49397e-05
-2.67092e-05
3.49549e-05
-2.87734e-05
3.49692e-05
-3.08401e-05
3.49824e-05
-3.29092e-05
3.4994e-05
-3.4981e-05
3.50037e-05
-3.70553e-05
3.50109e-05
-3.91322e-05
3.50151e-05
-4.12118e-05
3.50158e-05
-4.32939e-05
3.50124e-05
-4.53784e-05
3.50042e-05
-4.74653e-05
3.49905e-05
-4.95544e-05
3.49705e-05
-5.16454e-05
3.49433e-05
-5.37381e-05
3.49081e-05
-5.5832e-05
3.4864e-05
-5.79268e-05
3.48097e-05
-6.0022e-05
3.47443e-05
-6.21168e-05
3.46666e-05
-6.42105e-05
3.45752e-05
-6.63023e-05
3.44688e-05
-6.83911e-05
3.43459e-05
-7.04756e-05
3.42051e-05
-7.25544e-05
3.40446e-05
-7.46259e-05
3.38628e-05
-7.66882e-05
3.36577e-05
-7.8739e-05
3.34275e-05
-8.07759e-05
3.31699e-05
-8.27958e-05
3.28829e-05
-8.47956e-05
3.2564e-05
-8.67714e-05
3.22106e-05
-8.87189e-05
3.18199e-05
-9.06332e-05
3.1389e-05
-9.25088e-05
3.09144e-05
-9.43395e-05
3.03926e-05
-9.61185e-05
2.98194e-05
-9.78382e-05
2.91902e-05
-9.94902e-05
2.84998e-05
-0.000101066
2.77423e-05
-0.000102555
2.69108e-05
-0.000103948
2.59976e-05
-0.000105234
2.4994e-05
-0.000106405
2.38901e-05
-0.00010745
2.26749e-05
-0.00010836
2.13365e-05
-0.00010913
1.98625e-05
-0.000109753
1.824e-05
1.64568e-05
-0.000110226
-7.91501e-07
1.45142e-05
-2.33305e-06
2.80076e-05
-4.19737e-06
3.37157e-05
-6.18525e-06
3.58735e-05
-8.21497e-06
3.65956e-05
-1.02577e-05
3.68141e-05
-1.23049e-05
3.68809e-05
-1.43543e-05
3.69084e-05
-1.64057e-05
3.69276e-05
-1.8459e-05
3.69455e-05
-2.05144e-05
3.69636e-05
-2.25721e-05
3.69817e-05
-2.46323e-05
3.69998e-05
-2.6695e-05
3.70176e-05
-2.87604e-05
3.70346e-05
-3.08286e-05
3.70506e-05
-3.28998e-05
3.70652e-05
-3.4974e-05
3.70779e-05
-3.70513e-05
3.70882e-05
-3.91317e-05
3.70956e-05
-4.12154e-05
3.70995e-05
-4.33023e-05
3.70993e-05
-4.53924e-05
3.70943e-05
-4.74856e-05
3.70837e-05
-4.95819e-05
3.70667e-05
-5.16809e-05
3.70424e-05
-5.37826e-05
3.70098e-05
-5.58867e-05
3.6968e-05
-5.79927e-05
3.69157e-05
-6.01002e-05
3.68519e-05
-6.22087e-05
3.67751e-05
-6.43175e-05
3.66839e-05
-6.64257e-05
3.6577e-05
-6.85325e-05
3.64527e-05
-7.06367e-05
3.63092e-05
-7.27369e-05
3.61448e-05
-7.48317e-05
3.59575e-05
-7.69192e-05
3.57452e-05
-7.89973e-05
3.55056e-05
-8.10637e-05
3.52364e-05
-8.31157e-05
3.49349e-05
-8.515e-05
3.45983e-05
-8.71632e-05
3.42237e-05
-8.91511e-05
3.38078e-05
-9.11091e-05
3.3347e-05
-9.30322e-05
3.28375e-05
-9.49145e-05
3.22749e-05
-9.67498e-05
3.16546e-05
-9.8531e-05
3.09714e-05
-0.000100251
3.02193e-05
-0.0001019
2.9392e-05
-0.000103472
2.84821e-05
-0.000104956
2.74816e-05
-0.000106343
2.63815e-05
-0.000107625
2.51722e-05
-0.000108793
2.3843e-05
-0.00010984
2.23829e-05
-0.000110757
2.07802e-05
-0.000111541
1.90235e-05
1.71017e-05
-0.000112186
-7.87387e-07
1.53016e-05
-2.32478e-06
2.9545e-05
-4.18637e-06
3.55773e-05
-6.17248e-06
3.78596e-05
-8.20089e-06
3.8624e-05
-1.02426e-05
3.88558e-05
-1.22888e-05
3.89271e-05
-1.43374e-05
3.89571e-05
-1.63882e-05
3.89783e-05
-1.84411e-05
3.89985e-05
-2.04964e-05
3.90188e-05
-2.25542e-05
3.90395e-05
-2.46147e-05
3.90603e-05
-2.66781e-05
3.90809e-05
-2.87445e-05
3.91011e-05
-3.08142e-05
3.91203e-05
-3.28873e-05
3.91382e-05
-3.49638e-05
3.91544e-05
-3.70441e-05
3.91684e-05
-3.91281e-05
3.91796e-05
-4.12159e-05
3.91873e-05
-4.33077e-05
3.9191e-05
-4.54033e-05
3.919e-05
-4.7503e-05
3.91833e-05
-4.96065e-05
3.91702e-05
-5.17139e-05
3.91497e-05
-5.38249e-05
3.91209e-05
-5.59394e-05
3.90825e-05
-5.8057e-05
3.90334e-05
-6.01775e-05
3.89723e-05
-6.23003e-05
3.88979e-05
-6.4425e-05
3.88086e-05
-6.65507e-05
3.87027e-05
-6.86766e-05
3.85786e-05
-7.08018e-05
3.84344e-05
-7.2925e-05
3.8268e-05
-7.50448e-05
3.80774e-05
-7.71596e-05
3.786e-05
-7.92675e-05
3.76135e-05
-8.13663e-05
3.73351e-05
-8.34533e-05
3.70219e-05
-8.55258e-05
3.66708e-05
-8.75804e-05
3.62783e-05