/*--------------------------------*- C++ -*----------------------------------*\
  =========                 |
  \\      /  F ield         | OpenFOAM: The Open Source CFD Toolbox
   \\    /   O peration     | Website:  https://openfoam.org
    \\  /    A nd           | Version:  8
     \\/     M anipulation  |
\*---------------------------------------------------------------------------*/
FoamFile
{
    version     2.0;
    format      ascii;
    class       surfaceScalarField;
    location    "2";
    object      phi;
}
// * * * * * * * * * * * * * * * * * * * * * * * * * * * * * * * * * * * * * //

dimensions      [0 3 -1 0 0 0 0];

internalField   nonuniform List<scalar> 
880
(
-1.10041e-06
1.10041e-06
-2.17711e-06
1.0767e-06
-3.19859e-06
1.02148e-06
-4.14011e-06
9.41517e-07
-4.98013e-06
8.40021e-07
-5.70108e-06
7.20954e-07
-6.29007e-06
5.88984e-07
-6.73974e-06
4.49667e-07
-7.04889e-06
3.0915e-07
-7.22273e-06
1.73843e-07
-7.31378e-06
9.10536e-08
-5.40655e-08
-7.25972e-06
-1.13262e-06
2.23302e-06
-2.24035e-06
2.18444e-06
-3.2904e-06
2.07152e-06
-4.25698e-06
1.9081e-06
-5.1177e-06
1.70074e-06
-5.85418e-06
1.45744e-06
-6.45263e-06
1.18744e-06
-6.90522e-06
9.02253e-07
-7.21021e-06
6.14143e-07
-7.37204e-06
3.35674e-07
-7.40292e-06
1.21927e-07
-1.45912e-07
-7.31107e-06
-1.18955e-06
3.42257e-06
-2.35199e-06
3.34688e-06
-3.45207e-06
3.17161e-06
-4.46221e-06
2.91824e-06
-5.35853e-06
2.59707e-06
-6.12122e-06
2.22013e-06
-6.73424e-06
1.80045e-06
-7.1837e-06
1.35171e-06
-7.45691e-06
8.87359e-07
-7.5427e-06
4.21462e-07
-7.41333e-06
-7.44676e-09
-4.66422e-07
-7.09282e-06
-1.27794e-06
4.70051e-06
-2.52518e-06
4.59412e-06
-3.70266e-06
4.34909e-06
-4.78017e-06
3.99575e-06
-5.73204e-06
3.54894e-06
-6.53739e-06
3.02548e-06
-7.17973e-06
2.44279e-06
-7.64617e-06
1.81816e-06
-7.92726e-06
1.16845e-06
-8.01486e-06
5.09062e-07
-7.87568e-06
-1.46635e-07
-8.01471e-07
-7.54063e-06
-1.40162e-06
6.10213e-06
-2.76711e-06
5.95961e-06
-4.05199e-06
5.63397e-06
-5.22251e-06
5.16627e-06
-6.25099e-06
4.57742e-06
-7.11575e-06
3.89023e-06
-7.8003e-06
3.12734e-06
-8.29213e-06
2.30999e-06
-8.58095e-06
1.45728e-06
-8.65753e-06
5.85633e-07
-8.51411e-06
-2.90053e-07
-1.1675e-06
-8.14808e-06
-1.56621e-06
7.66834e-06
-3.0882e-06
7.48159e-06
-4.51399e-06
7.05976e-06
-5.80529e-06
6.45757e-06
-6.93236e-06
5.70449e-06
-7.87341e-06
4.83128e-06
-8.61322e-06
3.86715e-06
-9.14133e-06
2.8381e-06
-9.45028e-06
1.76623e-06
-9.5344e-06
6.69746e-07
-9.38793e-06
-4.36524e-07
-1.54241e-06
-9.01301e-06
-1.77994e-06
9.44828e-06
-3.50331e-06
9.20496e-06
-5.10803e-06
8.66449e-06
-6.55008e-06
7.89961e-06
-7.79801e-06
6.95242e-06
-8.83118e-06
5.86444e-06
-9.63726e-06
4.67324e-06
-1.02095e-05
3.41032e-06
-1.05441e-05
2.10089e-06
-1.06389e-05
7.64553e-07
-1.0492e-05
-5.83477e-07
-1.9302e-06
-1.01042e-05
-2.05491e-06
1.15032e-05
-4.03369e-06
1.11837e-05
-5.86109e-06
1.04919e-05
-7.48589e-06
9.52441e-06
-8.87619e-06
8.34272e-06
-1.00147e-05
7.00295e-06
-1.08946e-05
5.55313e-06
-1.15151e-05
4.03083e-06
-1.1878e-05
2.46375e-06
-1.1985e-05
8.7158e-07
-1.18368e-05
-7.31645e-07
-2.33355e-06
-1.14335e-05
-2.40947e-06
1.39127e-05
-4.71021e-06
1.34845e-05
-6.81106e-06
1.25927e-05
-8.65185e-06
1.13652e-05
-1.02033e-05
9.89417e-06
-1.14554e-05
8.25505e-06
-1.24109e-05
6.50867e-06
-1.30787e-05
4.69856e-06
-1.34682e-05
2.85329e-06
-1.35867e-05
9.90091e-07
-1.34371e-05
-8.81261e-07
-2.75289e-06
-1.30178e-05
-2.87249e-06
1.67852e-05
-5.57861e-06
1.61906e-05
-8.01212e-06
1.50262e-05
-1.01012e-05
1.34543e-05
-1.18263e-05
1.16192e-05
-1.31913e-05
9.62012e-06
-1.42153e-05
7.53262e-06
-1.49215e-05
5.40474e-06
-1.53309e-05
3.26272e-06
-1.5458e-05
1.11718e-06
-1.53084e-05
-1.03087e-06
-3.18352e-06
-1.48777e-05
-3.49101e-06
2.02762e-05
-6.70817e-06
1.94078e-05
-9.54289e-06
1.7861e-05
-1.19067e-05
1.58181e-05
-1.38054e-05
1.35179e-05
-1.52678e-05
1.10826e-05
-1.63388e-05
8.6036e-06
-1.70631e-05
6.12905e-06
-1.7478e-05
3.67756e-06
-1.76081e-05
1.24728e-06
-1.74625e-05
-1.17648e-06
-3.61254e-06
-1.70334e-05
-4.34734e-06
2.46235e-05
-8.207e-06
2.32674e-05
-1.15197e-05
2.11736e-05
-1.41686e-05
1.84671e-05
-1.62178e-05
1.55671e-05
-1.7738e-05
1.26028e-05
-1.8812e-05
9.67757e-06
-1.95167e-05
6.83377e-06
-1.99126e-05
4.07347e-06
-2.0037e-05
1.37166e-06
-1.99027e-05
-1.31073e-06
-4.01716e-06
-1.94981e-05
-5.57399e-06
3.01975e-05
-1.02388e-05
2.79322e-05
-1.41141e-05
2.5049e-05
-1.7024e-05
2.13769e-05
-1.91609e-05
1.7704e-05
-2.06558e-05
1.40977e-05
-2.16563e-05
1.0678e-05
-2.22834e-05
7.46089e-06
-2.2624e-05
4.41409e-06
-2.27299e-05
1.4776e-06
-2.26187e-05
-1.42199e-06
-4.36207e-06
-2.22738e-05
-7.51112e-06
3.77086e-05
-1.30924e-05
3.35135e-05
-1.76016e-05
2.95581e-05
-2.06626e-05
2.44379e-05
-2.27419e-05
1.97833e-05
-2.40703e-05
1.54262e-05
-2.48807e-05
1.14884e-05
-2.53444e-05
7.92459e-06
-2.55776e-05
4.64722e-06
-2.56473e-05
1.54732e-06
-2.55758e-05
-1.49349e-06
-4.59592e-06
-2.53419e-05
-1.01888e-05
4.78974e-05
-1.69252e-05
4.02499e-05
-2.22549e-05
3.48879e-05
-2.52893e-05
2.74723e-05
-2.70702e-05
2.15641e-05
-2.80142e-05
1.63702e-05
-2.84643e-05
1.19385e-05
-2.86457e-05
8.10596e-06
-2.87017e-05
4.70323e-06
-2.8712e-05
1.55762e-06
-2.87024e-05
-1.5031e-06
-4.64997e-06
-2.86483e-05
-1.66373e-05
6.45347e-05
-2.38202e-05
4.74328e-05
-2.92997e-05
4.03674e-05
-3.13667e-05
2.95392e-05
-3.23036e-05
2.25011e-05
-3.24935e-05
1.65601e-05
-3.23388e-05
1.17839e-05
-3.20834e-05
7.85051e-06
-3.18813e-05
4.50113e-06
-3.18071e-05
1.48344e-06
-3.18834e-05
-1.42686e-06
-4.44431e-06
-3.2089e-05
-2.2111e-05
8.66458e-05
-3.04524e-05
5.57742e-05
-3.66501e-05
4.65651e-05
-3.79955e-05
3.08846e-05
-3.80829e-05
2.25885e-05
-3.72817e-05
1.57588e-05
-3.63066e-05
1.08088e-05
-3.54853e-05
7.02922e-06
-3.49554e-05
3.97127e-06
-3.47741e-05
1.30212e-06
-3.49573e-05
-1.24366e-06
-3.91081e-06
-3.54908e-05
-5.04756e-05
0.000137121
-5.27157e-05
5.80143e-05
-5.32405e-05
4.70899e-05
-4.95669e-05
2.7211e-05
-4.58623e-05
1.88839e-05
-4.27058e-05
1.26023e-05
-4.03217e-05
8.42464e-06
-3.86836e-05
5.39112e-06
-3.77233e-05
3.01096e-06
-3.74068e-05
9.85707e-07
-3.77235e-05
-9.26973e-07
-2.9478e-06
-3.86865e-05
-5.98861e-05
0.000197007
-6.12976e-05
5.94259e-05
-6.0843e-05
4.66353e-05
-5.55148e-05
2.18829e-05
-5.02844e-05
1.36535e-05
-4.5937e-05
8.25484e-06
-4.26271e-05
5.11473e-06
-4.03482e-05
3.11224e-06
-3.90289e-05
1.69166e-06
-3.85932e-05
5.50031e-07
-3.90124e-05
-5.07744e-07
-1.64596e-06
-4.03143e-05
0.000197007
0.000256433
0.000303069
0.000324951
0.000338605
0.00034686
0.000351974
0.000355087
0.000356778
0.000357328
0.000356821
0.000355175
-5.37403e-06
1.88656e-06
-3.77225e-06
-4.10115e-06
6.62914e-07
-1.93579e-06
-3.2768e-06
-2.89682e-07
-5.34671e-07
-2.57382e-06
-1.0556e-06
3.52623e-07
-1.91183e-06
-1.63523e-06
9.7324e-07
-1.27186e-06
-2.04992e-06
1.40996e-06
-6.36273e-07
-2.32462e-06
1.68903e-06
-2.45414e-06
1.81787e-06
-5.69672e-06
2.72208e-07
-4.55823e-06
-4.75569e-07
-3.7249e-06
-1.12302e-06
-2.99288e-06
-1.78762e-06
-2.27682e-06
-2.35129e-06
-1.53586e-06
-2.79088e-06
-7.71723e-07
-3.08875e-06
-3.22586e-06
-6.21962e-06
-6.00988e-07
-5.37717e-06
-1.31802e-06
-4.49794e-06
-2.00225e-06
-3.61926e-06
-2.6663e-06
-2.73698e-06
-3.23357e-06
-1.8389e-06
-3.68896e-06
-9.22988e-07
-4.00466e-06
-4.14885e-06
-6.76555e-06
-1.37606e-06
-5.96167e-06
-2.1219e-06
-5.09058e-06
-2.87333e-06
-4.16616e-06
-3.59073e-06
-3.18135e-06
-4.21838e-06
-2.14896e-06
-4.72136e-06
-1.08163e-06
-5.07199e-06
-5.23049e-06
-7.51156e-06
-2.01258e-06
-6.72156e-06
-2.9119e-06
-5.80571e-06
-3.78918e-06
-4.78645e-06
-4.60999e-06
-3.67724e-06
-5.32759e-06
-2.49448e-06
-5.90412e-06
-1.25869e-06
-6.30777e-06
-6.48918e-06
-8.39451e-06
-2.63109e-06
-7.58833e-06
-3.71808e-06
-6.61391e-06
-4.7636e-06
-5.49309e-06
-5.7308e-06
-4.24461e-06
-6.57607e-06
-2.89144e-06
-7.25729e-06
-1.46278e-06
-7.73643e-06
-7.95196e-06
-9.47406e-06
-3.26123e-06
-8.62431e-06
-4.56782e-06
-7.56965e-06
-5.81827e-06
-6.32666e-06
-6.97379e-06
-4.91505e-06
-7.98768e-06
-3.36208e-06
-8.81026e-06
-1.7056e-06
-9.39292e-06
-9.65756e-06
-1.07739e-05
-3.92076e-06
-9.86507e-06
-5.47669e-06
-8.71281e-06
-6.97054e-06
-7.32672e-06
-8.35987e-06
-5.72379e-06
-9.59062e-06
-3.93324e-06
-1.06008e-05
-2.00203e-06
-1.13241e-05
-1.16596e-05
-1.23233e-05
-4.6152e-06
-1.13485e-05
-6.4515e-06
-1.00878e-05
-8.23126e-06
-8.54001e-06
-9.90764e-06
-6.71497e-06
-1.14157e-05
-4.64009e-06
-1.26757e-05
-2.37265e-06
-1.35916e-05
-1.40322e-05
-1.41535e-05
-5.33946e-06
-1.3117e-05
-7.48797e-06
-1.17469e-05
-9.60138e-06
-1.00251e-05
-1.16294e-05
-7.94734e-06
-1.34934e-05
-5.53172e-06
-1.50913e-05
-2.84809e-06
-1.62752e-05
-1.68803e-05
-1.62975e-05
-6.0754e-06
-1.52189e-05
-8.56655e-06
-1.37542e-05
-1.10661e-05
-1.18587e-05
-1.35249e-05
-9.50304e-06
-1.58491e-05
-6.68008e-06
-1.79143e-05
-3.47691e-06
-1.94784e-05
-2.03572e-05
-1.87869e-05
-6.78662e-06
-1.77096e-05
-9.64387e-06
-1.61895e-05
-1.25863e-05
-1.41439e-05
-1.55704e-05
-1.15012e-05
-1.84918e-05
-8.19559e-06
-2.12199e-05
-4.34291e-06
-2.3331e-05
-2.47002e-05
-2.16443e-05
-7.41608e-06
-2.06442e-05
-1.0644e-05
-1.91522e-05
-1.40782e-05
-1.70202e-05
-1.77024e-05
-1.41161e-05
-2.13959e-05
-1.02443e-05
-2.50917e-05
-5.58063e-06
-2.79947e-05
-3.02808e-05
-2.48795e-05
-7.87853e-06
-2.40729e-05
-1.14506e-05
-2.27507e-05
-1.54004e-05
-2.06793e-05
-1.97738e-05
-1.76257e-05
-2.44495e-05
-1.31177e-05
-2.95997e-05
-7.53283e-06
-3.35796e-05
-3.78136e-05
-2.84712e-05
-8.05559e-06
-2.80286e-05
-1.18933e-05
-2.70953e-05
-1.63337e-05
-2.53272e-05
-2.15419e-05
-2.23064e-05
-2.74704e-05
-1.69785e-05
-3.49275e-05
-1.02415e-05
-4.03166e-05
-4.80551e-05
-3.23511e-05
-7.79347e-06
-3.2517e-05
-1.17275e-05
-3.23445e-05
-1.65061e-05
-3.14286e-05
-2.24578e-05
-2.93871e-05
-2.95119e-05
-2.3912e-05
-4.04026e-05
-1.67208e-05
-4.75078e-05
-6.47759e-05
-3.63194e-05
-6.96487e-06
-3.73072e-05
-1.07397e-05
-3.81278e-05
-1.56855e-05
-3.80679e-05
-2.25177e-05
-3.67747e-05
-3.08051e-05
-3.06102e-05
-4.65671e-05
-2.23416e-05
-5.57764e-05
-8.71174e-05
-4.03343e-05
-5.31707e-06
-4.27414e-05
-8.33272e-06
-4.59356e-05
-1.24913e-05
-4.96922e-05
-1.87611e-05
-5.3462e-05
-2.70353e-05
-5.29966e-05
-4.70325e-05
-5.07651e-05
-5.80079e-05
-0.000137883
-4.25718e-05
-3.05958e-06
-4.58519e-05
-5.05262e-06
-5.01667e-05
-8.1765e-06
-5.53529e-05
-1.35748e-05
-6.06259e-05
-2.17623e-05
-6.10591e-05
-4.65993e-05
-5.95226e-05
-5.95443e-05
-0.000197405
0.000352115
0.000347063
0.000338886
0.000325311
0.000303549
0.00025695
0.000197405
-9.88817e-08
9.88817e-08
-1.78363e-07
7.94812e-08
-2.26948e-07
4.85852e-08
-2.39157e-07
1.22093e-08
-2.15202e-07
-2.39557e-08
-1.6137e-07
-5.38314e-08
-8.6091e-08
-7.52793e-08
-8.6091e-08
-1.16151e-07
2.15033e-07
-2.07862e-07
1.71192e-07
-2.6228e-07
1.03003e-07
-2.72408e-07
2.23379e-08
-2.44218e-07
-5.21463e-08
-1.82578e-07
-1.15471e-07
-9.72072e-08
-1.6065e-07
-1.83298e-07
-1.55396e-07
3.70429e-07
-2.71478e-07
2.87273e-07
-3.36813e-07
1.68338e-07
-3.49519e-07
3.50444e-08
-3.08252e-07
-9.34132e-08
-2.2734e-07
-1.96384e-07
-1.20269e-07
-2.67721e-07
-3.03567e-07
-2.18051e-07
5.8848e-07
-3.7489e-07
4.44112e-07
-4.55964e-07
2.49412e-07
-4.55937e-07
3.50176e-08
-4.00213e-07
-1.49138e-07
-2.9543e-07
-3.01167e-07
-1.5592e-07
-4.07231e-07
-4.59487e-07
-3.56144e-07
9.44624e-07
-5.77659e-07
6.65628e-07
-6.73838e-07
3.45591e-07
-6.68983e-07
3.01629e-08
-5.67481e-07
-2.5064e-07
-4.05708e-07
-4.6294e-07
-2.11082e-07
-6.01857e-07
-6.70569e-07
-5.02019e-07
1.44664e-06
-8.02843e-07
9.66452e-07
-9.15903e-07
4.5865e-07
-8.70224e-07
-1.55162e-08
-7.39323e-07
-3.81541e-07
-5.35479e-07
-6.66784e-07
-2.79126e-07
-8.5821e-07
-9.49695e-07
-1.01482e-06
2.46147e-06
-1.44698e-06
1.39861e-06
-1.49193e-06
5.03604e-07
-1.3577e-06
-1.49755e-07
-1.08593e-06
-6.53303e-07
-7.48151e-07
-1.00457e-06
-3.81198e-07
-1.22516e-06
-1.33089e-06
-1.31078e-06
-1.84797e-06
-1.87903e-06
-1.67616e-06
-1.35623e-06
-9.50837e-07
-4.86975e-07
)
;

boundaryField
{
    movingWall
    {
        type            calculated;
        value           uniform 0;
    }
    fixedWalls
    {
        type            calculated;
        value           uniform 0;
    }
    frontAndBack
    {
        type            empty;
        value           nonuniform List<scalar> 0();
    }
}


// ************************************************************************* //
