/*--------------------------------*- C++ -*----------------------------------*\
  =========                 |
  \\      /  F ield         | OpenFOAM: The Open Source CFD Toolbox
   \\    /   O peration     | Website:  https://openfoam.org
    \\  /    A nd           | Version:  8
     \\/     M anipulation  |
\*---------------------------------------------------------------------------*/
FoamFile
{
    version     2.0;
    format      ascii;
    class       volScalarField;
    location    "99";
    object      p;
}
// * * * * * * * * * * * * * * * * * * * * * * * * * * * * * * * * * * * * * //

dimensions      [0 2 -2 0 0 0 0];

internalField   nonuniform List<scalar> 
2844
(
-0.0694619
-0.0828538
-0.106979
-0.130078
-0.144718
-0.14424
-0.122825
-0.0951707
-0.064887
-0.0391547
-0.0311178
-0.023159
-0.014305
-0.00862955
-0.000444543
0.0017197
0.00233832
0.00164001
0.0006896
0.000540557
-0.0652472
-0.0781952
-0.10662
-0.130643
-0.148487
-0.148833
-0.126333
-0.0959288
-0.058367
-0.0330346
-0.0282899
-0.0233396
-0.014249
-0.00799149
0.000730088
0.00526491
0.00848697
0.00760239
0.00509687
0.00225429
-0.037808
-0.0681718
-0.109993
-0.161115
-0.179545
-0.180801
-0.139109
-0.0983586
-0.0610762
-0.0215935
-0.0237014
-0.0215839
-0.0148875
-0.0139925
-0.000286137
0.000449764
-0.00373304
-0.00665857
-0.00492456
-0.00177379
-0.0238176
-0.048043
-0.109668
-0.165234
-0.198121
-0.206974
-0.159143
-0.0979865
-0.0301699
0.00713001
-0.0179394
-0.0316345
-0.0210661
-0.0160407
-0.00202357
0.00949745
0.0143496
0.0152693
0.0123091
0.00378579
0.0566367
-0.0114152
-0.126704
-0.273155
-0.280965
-0.286397
-0.188257
-0.107251
-0.0609463
0.0274609
-0.0113278
-0.0406628
-0.0249117
-0.0346629
-0.00843955
0.000868286
-0.0190759
-0.0239568
-0.0325804
-0.0120578
0.0860451
0.0398283
-0.137296
-0.343754
-0.346119
-0.383037
-0.292431
-0.172578
0.0336401
-0.0513982
-0.0771483
-0.108623
-0.0993288
-0.0664585
-0.0224199
-0.0080275
-0.0142287
-0.00136621
-0.0226296
-0.00505018
0.289293
0.156614
-0.294488
-0.548162
-0.592104
-0.448593
-0.342178
-0.317755
-0.212791
-0.24351
-0.194388
-0.220406
-0.180495
-0.108904
-0.0373563
-0.0691848
-0.09278
-0.109088
-0.167857
-0.0288818
0.370266
0.31613
-0.244517
-0.941227
-1.24119
-0.753576
-0.571579
-0.553487
0.204406
0.0368143
-0.178924
-0.272327
-0.306383
-0.189585
-0.0795337
-0.175064
-0.191043
-0.15841
-0.174399
-0.0389127
0.598961
0.430567
0.0544039
-0.628975
-0.595579
0.694558
0.00895469
-0.130751
-0.391982
-0.432386
-0.146551
-0.132013
-0.0758208
0.04895
-0.0738393
-0.116592
-0.0365779
1.06528
0.856352
0.999084
-0.639265
-0.721277
0.00903335
-0.252277
-0.0839938
-0.330108
-0.35115
-0.182179
-0.16462
-0.0886048
-0.0644814
-0.130711
-0.0708745
-0.0167003
0.886751
0.864138
-0.526999
-0.511947
-0.377215
-0.258369
-0.159462
-0.449339
-0.234388
-0.126772
-0.146715
-0.111145
0.0401521
-0.00950398
-0.0657247
-0.0307218
0.660494
0.700238
0.676874
-0.382722
-0.252354
-0.60103
-0.0823369
0.00700611
0.056348
0.194928
-0.0289564
-0.0354153
-0.105046
-0.0116974
0.071403
-0.0166417
-0.0107029
0.437127
0.711838
-0.134312
-0.368677
-0.230347
-0.0539741
-0.506743
-0.193942
-0.086725
-0.0277286
0.170354
0.14372
0.0665042
-0.0645648
-0.117865
-0.00679318
0.00605903
0.00404272
0.268714
0.163807
-0.119853
-0.594854
-0.785136
-0.260835
-0.224423
-0.140541
-0.176364
-0.111636
-0.0661329
-0.0697028
-0.181112
-0.0354645
0.007176
-0.00998512
-0.0251948
0.0279451
0.0253478
0.00511917
0.174355
0.176123
-0.01557
-0.280269
-0.282052
-0.1994
-0.128359
-0.0613972
-0.132187
-0.06962
-0.0312003
0.0256899
-0.0127995
-0.0122009
0.0105952
0.040179
0.0162552
0.00255426
0.0215162
0.00890557
0.0940058
0.041409
-0.0479188
-0.197391
-0.201292
-0.13113
-0.0919612
-0.0908217
-0.0872202
-0.0615468
-0.0358199
0.0102492
0.012673
-0.00377622
-0.000614506
0.00351344
0.00421814
0.0134326
0.0159078
0.00499783
0.0570332
0.0374812
-0.0335991
-0.0999035
-0.127295
-0.10663
-0.0850282
-0.0628222
-0.0624704
-0.0417535
-0.014204
0.0179802
0.0408251
0.0294452
0.0274047
0.0192485
0.0211721
0.0183274
0.0208711
0.0109866
0.0249991
-0.00423184
-0.0424855
-0.0888008
-0.104412
-0.0921327
-0.0674438
-0.0618662
-0.0530268
-0.0388356
-0.0217783
-0.0021876
0.0119157
0.014277
0.00738222
0.00977902
0.0112912
0.0106789
0.0154512
0.00527713
0.00944528
-0.00738244
-0.034797
-0.0624203
-0.077401
-0.0774131
-0.0683599
-0.0555178
-0.045834
-0.0314956
-0.0128909
0.00301009
0.0148733
0.0203295
0.0204912
0.0188751
0.0185953
0.0162826
0.0130724
0.00572159
0.00105156
-0.0160593
-0.0379746
-0.0611927
-0.0735795
-0.0749851
-0.065597
-0.054885
-0.0444495
-0.0317467
-0.0164787
-0.00240816
0.00726893
0.0141834
0.0139193
0.0137486
0.0137555
0.0124592
0.0114622
0.00467333
-0.0694603
-0.0828655
-0.106984
-0.130076
-0.144718
-0.144242
-0.122829
-0.0951585
-0.0648965
-0.0392155
-0.0311352
-0.023155
-0.0142982
-0.00863898
-0.000402258
0.00172889
0.00228967
0.00177825
0.000704071
0.00054542
-0.0652301
-0.0782375
-0.106646
-0.130645
-0.148513
-0.148816
-0.126336
-0.0959303
-0.0586496
-0.0333508
-0.0284029
-0.0233808
-0.0142872
-0.00800777
0.000738708
0.00521154
0.0084766
0.00747656
0.00510966
0.00225356
-0.0378228
-0.0684514
-0.110113
-0.161089
-0.17937
-0.180618
-0.139197
-0.0982953
-0.0611483
-0.0231316
-0.0242178
-0.0216536
-0.0149074
-0.0138896
-0.00016201
0.000541607
-0.00359914
-0.00643516
-0.0047179
-0.0017444
-0.0235046
-0.0489344
-0.110406
-0.164955
-0.199737
-0.206821
-0.160081
-0.0990842
-0.0308854
-0.0019176
-0.0201974
-0.0319299
-0.0208316
-0.0162491
-0.00271949
0.00905044
0.0145117
0.0160566
0.0125565
0.00350025
0.0566301
-0.012815
-0.127803
-0.275483
-0.281075
-0.283457
-0.192486
-0.109133
-0.0621652
0.0132982
-0.0168037
-0.0423127
-0.0263917
-0.0359437
-0.00907359
-0.000466942
-0.0190658
-0.0225942
-0.0347259
-0.0140005
0.0859245
0.0374026
-0.141813
-0.326913
-0.393944
-0.389993
-0.291064
-0.180074
0.0164636
-0.0669658
-0.0744893
-0.100237
-0.091844
-0.065372
-0.0257115
-0.0104393
-0.0186297
-0.00357686
-0.0240793
-0.00642278
0.286743
0.148481
-0.306978
-0.564028
-0.630974
-0.479365
-0.331091
-0.317298
-0.208736
-0.221608
-0.189737
-0.212795
-0.180944
-0.110017
-0.0444064
-0.0645339
-0.0804884
-0.103273
-0.171389
-0.0326572
0.361489
0.290675
-0.237099
-0.960282
-1.22439
-0.745142
-0.56501
-0.614867
0.17856
0.0306341
-0.196033
-0.260408
-0.316651
-0.198849
-0.0898624
-0.18157
-0.190239
-0.16899
-0.184827
-0.0425038
0.634444
0.447955
0.0519894
-0.652985
-0.63692
0.644207
-0.0295871
-0.12953
-0.388056
-0.449818
-0.151709
-0.135817
-0.112354
0.0193032
-0.0859019
-0.123476
-0.0383276
1.00931
0.640772
1.04915
-0.640004
-0.727943
0.00658583
-0.269238
-0.085844
-0.359599
-0.371935
-0.174892
-0.162507
-0.1063
-0.0894449
-0.1432
-0.0734898
-0.0165904
0.975237
0.778384
-0.527578
-0.534451
-0.386103
-0.268145
-0.160125
-0.465271
-0.234645
-0.125942
-0.149752
-0.11864
0.0277914
-0.0193031
-0.0680186
-0.0298996
0.688821
0.587867
0.754202
-0.405342
-0.227614
-0.593048
-0.0831442
-0.0199095
0.024743
0.192605
-0.0295774
-0.0465924
-0.11174
-0.00782293
0.0648697
-0.0230874
-0.0125451
0.456306
0.648917
-0.105102
-0.373437
-0.186302
-0.0552963
-0.520853
-0.190748
-0.089993
-0.0623382
0.137412
0.147248
0.0674344
-0.0599686
-0.111735
-0.00835923
0.00183034
0.0031001
0.269271
0.156315
-0.137665
-0.606452
-0.792328
-0.246825
-0.225394
-0.141283
-0.17917
-0.112389
-0.0684443
-0.0882253
-0.200087
-0.0375647
0.00464616
-0.00988207
-0.0226177
0.0262736
0.023419
0.00497962
0.174677
0.171538
-0.0176911
-0.278636
-0.286102
-0.205778
-0.13048
-0.0628213
-0.133458
-0.0712385
-0.0333296
0.0238458
-0.0223465
-0.0176085
0.00826279
0.0376318
0.0145745
0.00211297
0.0200687
0.00887615
0.0944198
0.0417535
-0.0468501
-0.197972
-0.202869
-0.132164
-0.0918589
-0.0903136
-0.0868838
-0.0617112
-0.0356235
0.0134032
0.00903924
-0.00761911
-0.00237567
0.00262895
0.00351142
0.0129299
0.0155862
0.00516593
0.056997
0.0373167
-0.0333717
-0.100142
-0.127328
-0.106849
-0.0852987
-0.0627859
-0.0621873
-0.0414868
-0.0138139
0.0184877
0.0414639
0.0295596
0.0269339
0.0191269
0.0213926
0.0187046
0.0215479
0.0109883
0.0249789
-0.00418575
-0.0424839
-0.0888409
-0.104555
-0.0921775
-0.0673538
-0.0618362
-0.0529154
-0.038763
-0.0217293
-0.00195028
0.012372
0.014257
0.00745709
0.00980759
0.0113554
0.0106335
0.0152592
0.00528936
0.00944046
-0.00739049
-0.0348003
-0.0624383
-0.0774209
-0.0773957
-0.0683488
-0.0555019
-0.0458087
-0.031463
-0.0128624
0.00300602
0.0149221
0.0203366
0.020531
0.0189166
0.0186368
0.0162942
0.013083
0.00572895
0.00104838
-0.0160577
-0.0379726
-0.0612002
-0.0735786
-0.0749804
-0.0655903
-0.0548804
-0.0444412
-0.0317354
-0.01648
-0.00239642
0.0072883
0.0141816
0.0139157
0.0137598
0.013763
0.0124591
0.0114564
0.00467039
-0.0694634
-0.0828731
-0.106984
-0.130062
-0.144709
-0.144243
-0.122829
-0.0951427
-0.0648978
-0.0392354
-0.0311174
-0.0231445
-0.0142868
-0.00864477
-0.000351759
0.00174671
0.00230931
0.00185636
0.000765529
0.00057031
-0.0652288
-0.0782623
-0.106662
-0.130632
-0.148501
-0.148801
-0.126335
-0.0958413
-0.0587115
-0.0334493
-0.0284725
-0.0233791
-0.0142933
-0.008026
0.00075959
0.00519264
0.00846672
0.00749018
0.00520342
0.00226622
-0.0378627
-0.0685908
-0.110002
-0.160844
-0.179287
-0.180378
-0.139062
-0.0981558
-0.0606125
-0.0234926
-0.0242042
-0.0214441
-0.0148297
-0.0136726
5.2645e-05
0.000813252
-0.00314919
-0.00577541
-0.00370301
-0.00144597
-0.0235184
-0.049516
-0.110615
-0.164129
-0.199766
-0.206473
-0.159095
-0.0987775
-0.0321019
-0.00418649
-0.0206237
-0.0312676
-0.0202515
-0.0160435
-0.00215126
0.0087615
0.0147627
0.0170375
0.0138567
0.00319461
0.0564558
-0.0131347
-0.128816
-0.272708
-0.279838
-0.279027
-0.193498
-0.105625
-0.0528868
0.0120896
-0.0193663
-0.0419207
-0.0247082
-0.0356923
-0.00769908
0.00206252
-0.0169889
-0.0194635
-0.0325007
-0.0154345
0.0868312
0.0383548
-0.152885
-0.295862
-0.405667
-0.382405
-0.28175
-0.18468
0.00207168
-0.0575837
-0.0662711
-0.0924342
-0.0898331
-0.0645081
-0.0215979
-0.0100231
-0.0187589
0.00303838
-0.0240643
-0.00794074
0.285108
0.154226
-0.33561
-0.592361
-0.60994
-0.451295
-0.319605
-0.308511
-0.187398
-0.205265
-0.181859
-0.204582
-0.18041
-0.110894
-0.0428925
-0.0564412
-0.0678534
-0.101861
-0.176158
-0.0373627
0.381627
0.325433
-0.250351
-0.94538
-1.14556
-0.719339
-0.585874
-0.579966
0.162386
0.0114168
-0.172512
-0.234169
-0.309894
-0.195589
-0.0827585
-0.164552
-0.164902
-0.164744
-0.191216
-0.0460702
0.708942
0.504491
-0.0306467
-0.647653
-0.569374
0.613937
-0.0456654
-0.102142
-0.362505
-0.453932
-0.153251
-0.118167
-0.100393
0.0321967
-0.0733278
-0.119262
-0.0371735
0.959615
0.78769
0.959258
-0.644626
-0.724385
-0.0192975
-0.257346
-0.0531186
-0.34399
-0.397612
-0.180992
-0.148314
-0.104544
-0.0954189
-0.11601
-0.0614646
-0.0127825
0.950725
0.833653
-0.51705
-0.573552
-0.390331
-0.258281
-0.141026
-0.451782
-0.243147
-0.123013
-0.14581
-0.110196
0.0350106
0.00111112
-0.0502014
-0.0239516
0.754611
0.484468
0.834203
-0.419588
-0.18481
-0.580073
-0.0688684
-0.0104547
0.0421114
0.191641
-0.0321079
-0.0533253
-0.098921
0.0120415
0.0757498
-0.0201816
-0.0124943
0.474764
0.654741
-0.0855198
-0.377943
-0.187672
-0.0476712
-0.501838
-0.180539
-0.0872257
-0.0623414
0.125275
0.142564
0.0618638
-0.0508403
-0.0914446
0.00164645
0.00366441
0.00313564
0.274187
0.154668
-0.105291
-0.587203
-0.793138
-0.253738
-0.207747
-0.148722
-0.182759
-0.107447
-0.0640415
-0.0774937
-0.175695
-0.0347008
0.000780589
-0.0103151
-0.0233808
0.0256856
0.0230346
0.00512302
0.175126
0.17202
-0.0227602
-0.279421
-0.289981
-0.208486
-0.129253
-0.0629713
-0.134045
-0.0704705
-0.0300663
0.0386419
-0.00505859
-0.0162283
0.00567301
0.0343895
0.0130674
0.00495192
0.022727
0.00941666
0.0947467
0.0432621
-0.048986
-0.198927
-0.202356
-0.132112
-0.0918872
-0.090887
-0.087478
-0.0620399
-0.0369802
0.0209975
0.0222447
-0.0098946
-0.0056542
0.00226399
0.00386301
0.0134961
0.0155333
0.00505297
0.0570947
0.0374729
-0.034385
-0.100024
-0.127345
-0.106482
-0.0851537
-0.0627351
-0.0621372
-0.0415107
-0.0139829
0.0195635
0.0463514
0.0306593
0.0268338
0.019245
0.0219961
0.0188484
0.0214862
0.0109922
0.0249789
-0.00424023
-0.0425719
-0.0883295
-0.104255
-0.0920661
-0.0673006
-0.0618363
-0.0528523
-0.0387022
-0.0216881
-0.00152901
0.0144094
0.0146199
0.00734799
0.00987901
0.0115831
0.0106373
0.0151312
0.00539241
0.00945455
-0.00740104
-0.0348194
-0.0623946
-0.0773782
-0.0773641
-0.068322
-0.0554923
-0.0458098
-0.0314549
-0.0128475
0.00301221
0.0151302
0.020423
0.0206444
0.018914
0.0186681
0.0163204
0.0130762
0.00572052
0.00104856
-0.0160601
-0.0379739
-0.061171
-0.0735545
-0.0749677
-0.0655872
-0.054878
-0.0444384
-0.0317275
-0.0164778
-0.00237607
0.0073602
0.0142032
0.0139158
0.013761
0.0137752
0.0124589
0.0114558
0.00468394
-0.37905
-0.245775
-1.07741
-0.240605
-0.399041
-0.238315
-1.09776
-1.25529
-0.960979
-1.25414
-0.937299
-1.24423
-0.909417
-0.710906
-0.661111
-0.777216
-0.750611
-0.69555
-0.672002
-0.778628
0.515189
0.784734
0.622555
0.438201
0.487137
0.753976
0.614299
0.692309
0.0560696
0.646554
-0.598636
-0.697899
-0.623919
-0.696126
-0.749489
-0.664659
-0.912566
-0.649385
-0.774323
-0.662836
-0.906801
1.37793
1.05243
1.70632
0.728271
1.26438
1.00981
1.73431
1.0571
-0.64277
-0.643038
-0.727976
-0.593114
-0.645648
-0.640043
-0.731908
-0.595096
-0.653936
1.40045
0.955049
1.17007
0.859093
1.27571
0.895388
1.14104
1.12256
1.17684
-0.403966
-0.404102
-0.46633
-0.414017
-0.352949
-0.528296
-0.476722
-0.414229
-0.361428
0.999114
0.668757
0.402931
0.523916
1.01113
0.639341
0.3306
-0.0600114
0.694724
0.00857184
-0.387844
-0.406193
-0.392855
-0.407317
-0.356133
-0.317255
-0.270078
-0.394899
-0.371438
-0.333752
-0.286828
-0.989035
-0.0693314
-0.301471
-0.128731
-0.974585
-0.0741619
-0.322753
-0.869081
-0.986118
-0.869869
-0.986947
-0.876852
-0.519252
-0.881333
-0.513023
-0.460923
-0.381568
-0.391487
-0.372326
-0.456679
-0.396062
-0.386156
-0.408501
-0.22054
-1.10098
-0.254544
-0.416146
-0.21439
-1.08789
-1.2415
-0.953163
-1.20825
-0.893469
-1.16366
-0.833208
-0.693603
-0.683118
-0.793189
-0.732743
-0.698373
-0.696563
-0.7885
0.477576
0.59923
0.579815
0.491516
0.506963
0.605787
0.586916
0.596896
-0.0151206
0.465864
-0.635965
-0.695151
-0.63585
-0.694502
-0.769662
-0.649453
-0.882769
-0.643031
-0.782767
-0.650914
-0.861177
1.20062
1.03567
1.746
0.748584
1.04881
1.07373
1.72435
0.921894
-0.644286
-0.65313
-0.733353
-0.595816
-0.666605
-0.642363
-0.72463
-0.595527
-0.665544
1.20813
0.991423
1.12997
0.850739
1.1958
0.993201
1.10132
1.19376
1.05424
-0.404005
-0.402061
-0.488558
-0.413748
-0.362318
-0.519687
-0.49239
-0.411908
-0.351492
1.02194
0.565282
0.244687
0.541155
0.992136
0.536143
0.149255
0.0529441
0.841767
0.113597
-0.393877
-0.403935
-0.395083
-0.398076
-0.380423
-0.336154
-0.292409
-0.413885
-0.384057
-0.331693
-0.286838
-0.966147
-0.0992428
-0.367108
-0.0908658
-0.983253
-0.12225
-0.409407
-0.869991
-0.983424
-0.85405
-0.968439
-0.876489
-0.509364
-0.88539
-0.492646
-0.453039
-0.402806
-0.377402
-0.376346
-0.448687
-0.407289
-0.36599
-0.408095
-0.187433
-1.07001
-0.244265
-0.404027
-0.166745
-1.07802
-1.19988
-0.921543
-1.16956
-0.812642
-1.10341
-0.783301
-0.690359
-0.697004
-0.779472
-0.699271
-0.687059
-0.693349
-0.775066
0.475094
0.528583
0.614148
0.52953
0.502812
0.576034
0.652166
0.420346
-0.0419207
0.353631
-0.636174
-0.693245
-0.640748
-0.692336
-0.776351
-0.650727
-0.834169
-0.650056
-0.770289
-0.647734
-0.831877
1.04222
1.14357
1.65945
0.805477
1.02907
1.16791
1.5394
0.996459
-0.657409
-0.664798
-0.708678
-0.595053
-0.661233
-0.647895
-0.704721
-0.593925
-0.661328
1.22476
1.00387
1.08812
0.873942
1.28219
1.01721
1.07279
1.02995
1.10781
-0.401496
-0.401036
-0.488033
-0.411597
-0.336728
-0.513336
-0.48608
-0.411332
-0.334502
0.946436
0.577833
0.0470538
0.504972
0.930631
0.610738
0.051714
0.0969006
0.947032
0.115552
-0.395023
-0.396602
-0.39493
-0.395867
-0.379472
-0.321415
-0.27176
-0.421414
-0.370544
-0.316756
-0.255667
-0.999547
-0.117127
-0.452612
-0.00544232
-0.997424
-0.084046
-0.46399
-0.852029
-0.968186
-0.8311
-0.964473
-0.89435
-0.488898
-0.884473
-0.484674
-0.437851
-0.41338
-0.348638
-0.380014
-0.43578
-0.3977
-0.339673
-0.695312
-0.731292
-0.874537
-0.549846
-0.692686
-0.732772
-0.885563
-0.526739
-0.963811
-0.774375
-0.61162
-0.538042
-0.979997
-0.787278
-1.44533
-1.11551
-1.1105
-0.954234
-1.12938
-1.11824
-1.43895
-1.33738
-1.02036
-1.66535
-1.24977
-1.03678
-1.68328
-1.32569
-0.174804
-0.160117
0.16389
0.045172
-0.178194
0.154651
-0.177294
-0.816153
-0.817784
1.06328
-0.63652
-0.676765
-0.64955
-0.639053
-0.676711
-0.649355
-0.636715
-0.504431
-0.544332
-0.487376
-0.527388
-0.546496
-0.487701
-0.500616
0.567018
0.657973
0.507439
-1.83036
-1.33548
-1.33661
-1.82673
-0.378827
-0.362695
-0.386192
-0.369444
-0.363209
-0.385959
-0.378674
-0.773421
-0.413874
-0.573136
-0.603391
-0.788292
-0.41558
-0.578354
-0.551816
-0.454832
-0.340998
-0.786746
-0.552974
-0.455158
-0.342494
-0.68955
-0.730837
-0.891513
-0.566413
-0.685602
-0.730885
-0.883419
-0.559788
-0.996891
-0.798781
-0.630663
-0.563218
-1.00655
-0.771022
-1.42376
-1.11968
-1.08743
-0.957248
-1.42623
-1.11897
-1.08264
-1.41062
-1.07064
-1.71759
-1.20775
-1.39743
-1.0789
-1.71494
-0.236643
-0.260682
0.187238
0.0199569
-0.208387
-0.280641
0.220436
-0.789105
-0.772697
0.981408
-0.63538
-0.676544
-0.647515
-0.639824
-0.636146
-0.674707
-0.646532
-0.509498
-0.553487
-0.487027
-0.525602
-0.511181
-0.553345
-0.484393
0.438888
0.78846
0.451797
-1.76495
-1.30859
-1.78122
-1.30018
-0.381684
-0.367794
-0.38549
-0.374074
-0.381514
-0.368239
-0.383941
-0.790573
-0.412548
-0.570823
-0.60366
-0.785141
-0.417074
-0.56875
-0.555883
-0.443958
-0.340221
-0.77584
-0.558934
-0.4395
-0.346045
-0.686145
-0.732102
-0.885945
-0.570645
-0.671348
-0.719726
-0.879555
-0.564761
-1.00484
-0.731975
-0.59142
-0.560395
-1.00019
-0.71817
-1.4417
-1.13424
-1.07705
-0.944132
-1.43384
-1.14233
-1.07956
-1.40838
-1.07045
-1.69026
-1.12584
-1.4148
-1.06469
-1.68035
-0.22295
-0.340226
0.318749
-0.0369265
-0.244801
-0.342042
0.340417
-0.716889
-0.707391
0.972398
-0.6346
-0.675209
-0.641135
-0.646145
-0.634937
-0.675763
-0.639546
-0.494133
-0.548386
-0.472813
-0.514995
-0.498282
-0.546175
-0.470056
0.494899
0.859306
0.545433
-1.75769
-1.29488
-1.75631
-1.2874
-0.375856
-0.365613
-0.380589
-0.378783
-0.376519
-0.365326
-0.382045
-0.784498
-0.410549
-0.55878
-0.57556
-0.790655
-0.415445
-0.559789
-0.546956
-0.433557
-0.350125
-0.793798
-0.554453
-0.431647
-0.352108
-0.550539
-0.913459
-0.780228
-1.08002
-0.92196
-0.779935
-0.539791
-0.55221
-1.09032
-0.892763
-0.745971
-0.913773
-0.767004
-0.549712
-1.64177
-1.22568
-1.76975
-1.26587
-1.23415
-1.78193
-1.63255
-1.88672
-1.43819
-1.45115
-1.87507
-1.4347
-0.956258
-1.126
-1.0973
-1.11803
-1.10618
-1.43147
-1.64723
-1.25212
-1.22689
-1.78473
-1.22484
-1.78461
-1.64941
-1.90917
-1.48161
-1.46825
-1.92701
-1.11275
-0.894155
-0.946496
-0.930944
-0.904026
-0.947263
-1.10631
-1.22664
-0.992491
-1.00178
-1.21529
-1.35607
-1.24611
-1.06316
-1.71387
-1.04213
-1.70103
-1.37719
-1.12132
-0.921514
-0.931012
-0.955855
-0.914419
-0.952617
-1.13135
-1.23579
-1.0142
-1.01064
-1.24187
-0.787156
-0.688697
-0.763915
-0.659775
-0.691616
-0.768173
-0.77536
-0.801914
-0.664636
-0.70023
-0.771768
-0.695625
-0.770261
-0.821899
-0.452627
-0.452081
0.241071
0.691656
0.238505
-0.180961
0.045702
-0.237655
0.159681
-0.210423
0.147325
-0.187139
-0.458877
-0.466442
0.680125
0.223939
0.233795
-0.665987
-0.69751
-0.667308
-0.602566
-0.704303
-0.672831
-0.656406
-0.657951
-0.698391
-0.658921
-0.805181
-0.810262
-0.680928
-0.612532
-0.727502
-0.67853
-0.717088
-0.676447
-0.688989
-0.697098
-0.660517
-0.659199
1.11873
0.987151
1.57571
1.36752
1.01491
1.56597
1.09759
0.965143
1.56895
1.10206
1.70641
1.56155
1.1247
0.970753
1.09305
1.31909
0.888643
1.49215
0.979468
1.52748
1.05104
0.98435
1.72944
1.55603
1.14246
1.55266
1.15427
0.989463
1.00236
-0.642529
-0.642581
-0.616161
-0.614257
-0.582424
-0.593574
-0.61414
-0.583949
-0.615313
-0.637008
-0.640348
-0.677087
-0.648364
-0.678736
-0.648994
-0.6364
-0.617707
-0.594347
-0.614267
-0.590616
-0.614296
-0.586942
-0.619098
0.997806
1.18721
1.23093
1.37491
1.14909
1.23745
1.00154
1.02132
1.23071
1.31556
1.15506
1.20773
1.2522
1.06588
0.999904
1.33499
0.88269
1.21714
1.05054
1.23287
0.959568
1.02672
1.16091
1.12805
1.14764
1.17398
1.21989
1.00709
1.13658
1.15766
-0.404182
-0.40403
-0.468773
-0.436041
-0.410333
-0.414047
-0.435694
-0.412737
-0.465804
-0.505744
-0.527996
-0.551843
-0.48818
-0.548952
-0.488177
-0.51092
-0.47111
-0.414656
-0.435494
-0.416883
-0.435745
-0.414898
-0.473949
-0.0990348
0.249021
-0.293179
-0.0587015
0.219481
-0.307724
-0.0818996
-0.646267
-0.632797
0.67035
0.434446
0.463959
-0.0779519
-0.0331016
0.227341
-0.240994
0.216485
-0.277362
-0.0235675
-0.534705
-0.592934
-0.382266
-0.389215
-0.382983
-0.376093
-0.376558
-0.380525
-0.390594
-0.388511
-0.407166
-0.391715
-0.388296
-0.380475
-0.391304
-0.384718
-0.384057
-0.377705
-0.377435
-0.380297
-0.408237
-0.394468
-0.387971
-0.393859
-0.388019
-0.379279
-0.47602
-0.478881
-0.848773
-0.987567
-0.534097
-0.851392
-0.458587
-0.473212
-0.980109
-0.591571
-0.833019
-0.56751
-0.843122
-0.468149
-1.3006
-0.960744
-1.02795
-0.872315
-0.976318
-1.02996
-1.2819
-1.54223
-1.57925
-1.05725
-0.99103
-1.58442
-1.06075
-1.54168
-1.81747
-1.31919
-1.3287
-1.80143
-1.30956
-0.874741
-0.983756
-1.02542
-0.982008
-1.0299
-1.31876
-1.53482
-0.990425
-1.58186
-1.05116
-1.58284
-1.05803
-1.52543
-0.745836
-0.517131
-0.51619
-0.744875
-0.932583
-1.43446
-0.688619
-0.884001
-1.44218
-0.694062
-0.92813
-0.623515
-0.508523
-0.552652
-0.517903
-0.506536
-0.555223
-0.623131
-0.744832
-0.511181
-0.513841
-0.746838
-0.938336
-0.881024
-1.44515
-0.70349
-1.44294
-0.696384
-0.947722
-0.625217
-0.515917
-0.501862
-0.560634
-0.504134
-0.557241
-0.628837
-0.380602
-0.370725
-0.366573
-0.386366
-0.365334
-0.386495
-0.380835
-0.54004
-0.86469
-0.726592
-1.10011
-0.543544
-0.848072
-0.712706
-0.536867
-1.09305
-0.857775
-0.660381
-0.846176
-0.689059
-0.538129
-1.64503
-1.22186
-1.77878
-1.2306
-1.64763
-1.22158
-1.77047
-1.94559
-1.48864
-1.94045
-1.48959
-1.42539
-0.954482
-1.12864
-1.08131
-1.12199
-1.08171
-1.42882
-1.64363
-1.22158
-1.2356
-1.75424
-1.23073
-1.76222
-1.64355
-1.9438
-1.47122
-1.48329
-1.93976
-1.13925
-0.942255
-0.960412
-0.880064
-1.13708
-0.951587
-0.95932
-1.23938
-1.0136
-1.24108
-1.00747
-1.41828
-1.18425
-1.07541
-1.69944
-1.07751
-1.70753
-1.41753
-1.13668
-0.857518
-0.943127
-0.935496
-0.948125
-0.95097
-1.13184
-1.22704
-0.975581
-0.995184
-1.21826
-0.811531
-0.700795
-0.762036
-0.686412
-0.820673
-0.700458
-0.748367
-0.793383
-0.694531
-0.702581
-0.715307
-0.701391
-0.728597
-0.780249
-0.443594
-0.428018
0.213396
0.55276
0.226767
-0.258108
-0.00183137
-0.325849
0.300096
-0.302844
0.266571
-0.257506
-0.434723
-0.421503
0.499229
0.267389
0.235934
-0.69562
-0.734729
-0.682195
-0.636842
-0.693835
-0.733317
-0.682784
-0.662379
-0.694631
-0.664113
-0.731953
-0.750063
-0.695456
-0.636345
-0.714239
-0.681301
-0.72599
-0.68108
-0.694439
-0.693805
-0.66721
-0.665199
0.981259
0.801213
1.38945
1.14212
1.00607
0.788624
1.2925
1.04368
1.58672
1.1323
1.74271
1.03011
1.59608
1.11585
0.990599
1.08731
0.787342
1.14224
0.786605
1.20753
0.980482
1.04387
1.7367
1.62409
1.05187
1.59417
1.0678
1.06
0.946485
-0.646257
-0.649389
-0.621468
-0.61451
-0.59508
-0.596048
-0.620941
-0.614643
-0.597956
-0.636261
-0.640852
-0.674486
-0.642939
-0.674657
-0.644633
-0.635852
-0.622445
-0.595916
-0.6149
-0.601165
-0.614784
-0.600801
-0.621799
0.881118
0.686454
1.17941
1.18271
0.90219
0.719664
1.12629
0.967485
1.06984
1.10439
1.09471
0.994269
1.02322
1.06225
0.863807
1.17861
0.798606
1.08747
0.751166
1.08887
0.893885
0.929337
1.08717
1.04689
1.01461
1.01587
1.02022
0.958842
1.14613
1.0963
-0.403597
-0.402744
-0.472691
-0.434498
-0.417285
-0.412999
-0.474168
-0.432962
-0.416823
-0.506991
-0.522812
-0.550065
-0.476432
-0.552215
-0.480645
-0.501951
-0.467845
-0.412402
-0.429478
-0.410737
-0.431047
-0.413551
-0.462425
0.128535
0.241539
-0.183845
0.0915699
0.0598176
0.271658
-0.108971
-0.465405
-0.392574
0.82151
0.488159
0.472414
0.125104
0.111134
0.255084
-0.0629186
0.262795
-0.0715854
0.143032
-0.38541
-0.389594
-0.38495
-0.394609
-0.38529
-0.37747
-0.376635
-0.374902
-0.393112
-0.387861
-0.403173
-0.377449
-0.393341
-0.387338
-0.394696
-0.385803
-0.385416
-0.372615
-0.374993
-0.371681
-0.398954
-0.390657
-0.385165
-0.391022
-0.38637
-0.368663
-0.463996
-0.604853
-0.822619
-0.962174
-0.46579
-0.613439
-0.81235
-0.465317
-0.974435
-0.599124
-0.791898
-0.605339
-0.802342
-0.469509
-1.3326
-0.989619
-1.02114
-0.866543
-1.32885
-0.993642
-1.01069
-1.50317
-1.57965
-1.04322
-0.976475
-1.5146
-1.57646
-1.0293
-1.75718
-1.29575
-1.29805
-1.75375
-1.33042
-0.86295
-0.992298
-0.982494
-0.99596
-0.998673
-1.32089
-1.49262
-0.969945
-1.56558
-0.998348
-1.57503
-1.0132
-1.47745
-0.751364
-0.508093
-0.748511
-0.505183
-0.973066
-1.44755
-0.709006
-0.881358
-0.960682
-1.45067
-0.720516
-0.638499
-0.501511
-0.5634
-0.503002
-0.632313
-0.497802
-0.567382
-0.749635
-0.50182
-0.503204
-0.745521
-0.983264
-0.879015
-1.44629
-0.72964
-1.45035
-0.727326
-0.987172
-0.641866
-0.496843
-0.497875
-0.563177
-0.498707
-0.566765
-0.642252
-0.379133
-0.375004
-0.368117
-0.380465
-0.367937
-0.381561
-0.379602
-0.541448
-0.869673
-0.623763
-1.07063
-0.53542
-0.886034
-0.596777
-0.547666
-1.07334
-0.908856
-0.54511
-0.901211
-0.574989
-0.543571
-1.63936
-1.25851
-1.74824
-1.18632
-1.64284
-1.26868
-1.74162
-1.92944
-1.45132
-1.93478
-1.43333
-1.44913
-0.93685
-1.14048
-1.06077
-1.1452
-1.08731
-1.43866
-1.63643
-1.18172
-1.28561
-1.72353
-1.28483
-1.73448
-1.62907
-1.91992
-1.39642
-1.41414
-1.90941
-1.11621
-0.935298
-0.920081
-0.796748
-1.12428
-0.929363
-0.908411
-1.17816
-0.950472
-1.19689
-0.925301
-1.40126
-1.11997
-1.05663
-1.65777
-1.06762
-1.67178
-1.39713
-1.11002
-0.790082
-0.935635
-0.89954
-0.938928
-0.900528
-1.10592
-1.16389
-0.889015
-0.901076
-1.14899
-0.750514
-0.702546
-0.699851
-0.692811
-0.761144
-0.699729
-0.698663
-0.745701
-0.694132
-0.701913
-0.697578
-0.701973
-0.69562
-0.744582
-0.464662
-0.487351
0.29229
0.381569
0.327993
-0.191172
-0.0416948
-0.332295
0.364395
-0.337862
0.354904
-0.155346
-0.509557
-0.501146
0.33902
0.39967
0.362517
-0.69349
-0.704828
-0.681165
-0.637312
-0.693859
-0.697129
-0.683366
-0.667786
-0.694044
-0.669476
-0.694077
-0.698863
-0.692945
-0.639742
-0.689778
-0.684763
-0.692663
-0.684375
-0.692357
-0.692369
-0.669728
-0.669312
0.926757
0.795325
1.09087
1.04243
0.966223
0.774172
1.04455
1.07647
1.68993
1.06475
1.55403
1.09068
1.70995
1.08487
0.899472
1.03781
0.741399
1.03789
0.743591
1.01595
0.910253
1.0657
1.52973
1.68943
1.16842
1.69344
1.13728
1.04927
1.02059
-0.660776
-0.663555
-0.620888
-0.614972
-0.601447
-0.594585
-0.621739
-0.615006
-0.600379
-0.633905
-0.647429
-0.676551
-0.637696
-0.676099
-0.638314
-0.633728
-0.620594
-0.594033
-0.615149
-0.598912
-0.615006
-0.599673
-0.620136
1.00157
0.858419
1.1165
1.2472
0.955347
0.876527
1.15129
1.04155
1.08214
0.984729
1.07335
0.995961
1.1022
0.99654
1.03737
1.26793
0.90524
1.1851
0.898831
1.17519
1.05679
1.04548
1.04341
1.12931
0.948672
1.1093
0.942133
1.0647
1.03152
1.06308
-0.401135
-0.401043
-0.454764
-0.428451
-0.41142
-0.411312
-0.458997
-0.427763
-0.409444
-0.491629
-0.513742
-0.5437
-0.46763
-0.544829
-0.468368
-0.490015
-0.455498
-0.411095
-0.427563
-0.412998
-0.427462
-0.413921
-0.453319
0.0800721
0.241525
-0.0697129
0.0973735
0.0981013
0.24867
-0.0675738
-0.402984
-0.410362
0.880583
0.690843
0.603231
0.0655925
0.0977071
0.323213
-0.0201968
0.277318
-0.0540076
0.056349
-0.386282
-0.398516
-0.385949
-0.395069
-0.386083
-0.369499
-0.367261
-0.363528
-0.388752
-0.384259
-0.396074
-0.36559
-0.387803
-0.383192
-0.394894
-0.386099
-0.385924
-0.36525
-0.365879
-0.362215
-0.396048
-0.387017
-0.383499
-0.387346
-0.382638
-0.361787
-0.480863
-0.594183
-0.781823
-1.00678
-0.479757
-0.564689
-0.766088
-0.483021
-1.00705
-0.496132
-0.763209
-0.534232
-0.763773
-0.471207
-1.29978
-0.994563
-0.968955
-0.852769
-1.31039
-0.998497
-0.958752
-1.45616
-1.55741
-0.984748
-0.968881
-1.46583
-1.54757
-0.9783
-1.75824
-1.26303
-1.27767
-1.75024
-1.29215
-0.847519
-0.992001
-0.933636
-1.00267
-0.949543
-1.27859
-1.45187
-0.972852
-1.52647
-0.972893
-1.53951
-0.981001
-1.44513
-0.729523
-0.502406
-0.737564
-0.5042
-0.98602
-1.43876
-0.727354
-0.894608
-0.988639
-1.42754
-0.719126
-0.632414
-0.501772
-0.553019
-0.488584
-0.639563
-0.506254
-0.547895
-0.722609
-0.50453
-0.505657
-0.712673
-0.984182
-0.89706
-1.40285
-0.698277
-1.41657
-0.712348
-0.983359
-0.629339
-0.489234
-0.510755
-0.544258
-0.50883
-0.549179
-0.629634
-0.375609
-0.379498
-0.36452
-0.386576
-0.364171
-0.38482
-0.376119
)
;

boundaryField
{
    inlet
    {
        type            zeroGradient;
    }
    outlet
    {
        type            fixedValue;
        value           uniform 0;
    }
    up
    {
        type            zeroGradient;
    }
    down
    {
        type            zeroGradient;
    }
    frontAndBack
    {
        type            zeroGradient;
    }
    cylinder
    {
        type            zeroGradient;
    }
}


// ************************************************************************* //
