/*--------------------------------*- C++ -*----------------------------------*\
  =========                 |
  \\      /  F ield         | OpenFOAM: The Open Source CFD Toolbox
   \\    /   O peration     | Website:  https://openfoam.org
    \\  /    A nd           | Version:  8
     \\/     M anipulation  |
\*---------------------------------------------------------------------------*/
FoamFile
{
    version     2.0;
    format      ascii;
    class       volScalarField;
    location    "0.822";
    object      T;
}
// * * * * * * * * * * * * * * * * * * * * * * * * * * * * * * * * * * * * * //

dimensions      [0 0 0 1 0 0 0];

internalField   nonuniform List<scalar> 
10000
(
50
4.6491
-4.64906
-1.17606
1.17585
0.445197
-0.444601
-0.21279
0.211453
0.119379
-0.11685
-0.0758998
0.0716369
0.0536675
-0.04707
-0.0415985
0.0320605
0.0347461
-0.0217264
-0.0306202
0.0137533
0.027753
-0.00695713
-0.0252622
0.000892271
0.0224317
0.00462993
-0.0189329
-0.0093174
0.0144256
0.0129414
-0.00908794
-0.0149144
0.0031096
0.01496
0.00279479
-0.0128091
-0.00783127
0.00862894
0.0111343
-0.00312843
-0.0118427
-0.00277315
0.00985725
0.00750732
-0.00536409
-0.00997537
-0.000302685
0.00924491
0.00554123
-0.00553619
-0.00854356
9.31882e-05
0.00813901
0.00506308
-0.00448968
-0.00773054
-0.000903737
0.00671794
0.00553218
-0.00252799
-0.00701124
-0.00275009
0.00463349
0.00613327
0.000202833
-0.00554278
-0.00466779
0.0015563
0.0057631
0.00309232
-0.00264417
-0.00533994
-0.00208049
0.00344288
0.0046447
0.00125393
-0.00338686
-0.0044903
-0.000480735
0.00321128
0.00380351
0.000857202
-0.00341678
-0.00336514
-0.000580946
0.00225436
0.00379991
0.000747377
-0.0023164
-0.00254281
-0.00191289
0.00155875
0.00325769
0.000975598
-0.000108181
-0.00218393
-0.00285359
0.000729888
0.00140375
95.3509
50
10.4742
-4.64892
-2.79705
1.17535
1.10252
-0.443395
-0.543541
0.209097
0.312051
-0.112805
-0.201142
0.0653032
0.14231
-0.037838
-0.108437
0.0193787
0.0872014
-0.00520547
-0.0723362
-0.00671251
0.0602844
0.0171512
-0.049011
-0.0260092
0.0372332
0.0328846
-0.0245802
-0.0368776
0.0110719
0.037338
0.00235151
-0.0335624
-0.0144856
0.0256299
0.0235852
-0.0142534
-0.0280277
0.00106483
0.026797
0.011362
-0.0197041
-0.020419
0.00835871
0.0235135
0.004601
-0.019761
-0.015292
0.0100116
0.0202879
0.00254689
-0.0176951
-0.0133395
0.00836632
0.0180539
0.00385201
-0.014521
-0.0135765
0.00443078
0.0160151
0.00719762
-0.00983712
-0.0142765
-0.00127077
0.0125445
0.0108243
-0.003092
-0.0130841
-0.00742701
0.00624749
0.0119601
0.00478332
-0.0078057
-0.0109958
-0.00212842
0.00773513
0.0100062
0.0011675
-0.00838309
-0.00803952
-0.00122059
0.00753792
0.00841277
-3.95481e-05
-0.00588856
-0.00747482
-0.00213665
0.00664373
0.00618101
0.00210559
-0.00291088
-0.00796931
-0.00256011
0.00315698
0.00392027
0.00569385
-0.000686791
-0.00611707
-0.00228761
104.649
89.5258
50
12.0952
-4.64861
-3.45434
1.17443
1.43324
-0.44142
-0.736216
0.205519
0.43736
-0.107017
-0.289947
0.0566701
0.209445
-0.0257769
-0.161355
0.00344637
0.129568
0.014776
-0.105711
-0.030516
0.0850282
0.0440292
-0.0649046
-0.0545786
0.0439337
0.0611577
-0.0221013
-0.0623528
0.000146386
0.0573259
0.0199629
-0.0456558
-0.0358868
0.028271
0.044998
-0.00739859
-0.0452789
-0.0134903
0.0362948
0.0299178
-0.0194254
-0.0380218
-0.00124563
0.0351808
0.0202783
-0.0220323
-0.0316872
0.0024888
0.0314739
0.0167026
-0.0195181
-0.0281694
0.000461362
0.02699
0.0175898
-0.013634
-0.0262357
-0.00536544
0.0209051
0.0204091
-0.00468245
-0.0231299
-0.0128634
0.01158
0.0215315
0.00638431
-0.0157392
-0.0182705
-0.0010189
0.0166257
0.0157459
-0.00310885
-0.0163758
-0.0124259
0.00385404
0.0166991
0.00993865
-0.00501456
-0.013938
-0.0106233
0.00550435
0.0133757
0.00795365
-0.00179085
-0.0130351
-0.00930997
0.00327547
0.00807217
0.0103668
0.00142403
-0.0104778
-0.00687425
-0.00329929
0.00322857
0.011968
0.00292061
-0.00340078
101.176
104.649
87.9048
49.9999
12.7524
-4.6481
-3.78506
1.173
1.62596
-0.438523
-0.861657
0.200529
0.526439
-0.0992756
-0.357548
0.0455367
0.263078
-0.0107387
-0.204715
-0.0157789
0.164223
0.0380877
-0.131992
-0.0572902
0.102606
0.0730219
-0.0732936
-0.083856
0.0428966
0.0882341
-0.0121222
-0.0843993
-0.0172765
0.0716613
0.0421257
-0.0503494
-0.0589858
0.0227664
0.0646794
0.00688923
-0.0574236
-0.0331218
0.0382182
0.0498104
-0.0108732
-0.0526318
-0.0175212
0.0401695
0.0388734
-0.0159538
-0.046066
-0.0121433
0.036234
0.033963
-0.0130106
-0.0405806
-0.0141542
0.0289277
0.0332669
-0.00459706
-0.0347856
-0.0204029
0.0178534
0.0329902
0.00752987
-0.0254631
-0.0266144
0.00251709
0.0280558
0.0198011
-0.010261
-0.0265798
-0.0141194
0.0143342
0.0252259
0.0080893
-0.0147934
-0.0232254
-0.0059476
0.0167574
0.0190003
0.00556402
-0.0147793
-0.0199277
-0.00257535
0.0115726
0.0171157
0.00737014
-0.01304
-0.0144687
-0.00631838
0.00447017
0.0175748
0.00777593
-0.005731
-0.00812072
-0.0133805
-0.000779445
0.013145
0.00576848
98.8241
102.797
104.649
87.2476
49.9999
13.0832
-4.64732
-3.97783
1.17095
1.75155
-0.434554
-0.951047
0.193944
0.594593
-0.0893882
-0.412034
0.0317328
0.307661
0.00737818
-0.240983
-0.0382713
0.192484
0.0645127
-0.151829
-0.0865662
0.113329
0.103374
-0.0744168
-0.112812
0.0345263
0.112892
0.00458707
-0.101779
-0.0399249
0.0793469
0.067053
-0.0472015
-0.0816304
0.00952
0.0804544
0.0272039
-0.0627704
-0.0555029
0.0318935
0.0682313
0.00518613
-0.0616676
-0.0382504
0.0370101
0.0572226
-0.00189334
-0.0552726
-0.0316356
0.0327792
0.0507752
0.00136002
-0.0471244
-0.0328035
0.0223788
0.046843
0.0113601
-0.03595
-0.0371955
0.00653038
0.0406513
0.0241347
-0.019067
-0.0383491
-0.0128137
0.0268862
0.0328901
0.00325733
-0.0287556
-0.0286773
0.0042292
0.0285582
0.0228299
-0.00563086
-0.0293217
-0.0184329
0.00788121
0.0244262
0.0196021
-0.00878937
-0.0235496
-0.0146742
0.00230213
0.0227716
0.0171216
-0.00511403
-0.0139784
-0.0186082
-0.00335358
0.0182309
0.0124274
0.00622426
-0.0051067
-0.021205
-0.00574425
0.00578863
99.5548
98.8245
103.454
104.648
86.9168
49.9998
13.276
-4.64623
-4.10355
1.16817
1.84124
-0.429367
-1.01975
0.185592
0.649981
-0.0771814
-0.457942
0.0151189
0.345751
0.0286263
-0.271554
-0.0639368
0.215047
0.0937483
-0.165526
-0.117781
0.11735
0.13425
-0.0685041
-0.140373
0.0193267
0.133951
0.0270842
-0.11341
-0.0663459
0.0796861
0.0928472
-0.0362052
-0.101721
-0.0105619
0.0904546
0.0516751
-0.0601953
-0.0780776
0.0174427
0.0825102
0.0271697
-0.0631495
-0.0606782
0.025284
0.072097
0.0186907
-0.0568603
-0.0529321
0.0206333
0.0634633
0.0218239
-0.0453809
-0.0518656
0.00748259
0.05441
0.0316198
-0.0280868
-0.0515034
-0.0114657
0.0399059
0.0413975
-0.0041554
-0.0439127
-0.0306865
0.0162444
0.041473
0.0218575
-0.0226128
-0.0393078
-0.0123861
0.0232218
0.036221
0.00902006
-0.0263001
-0.0295391
-0.00850179
0.0232405
0.0310144
0.00377
-0.0181596
-0.0266821
-0.0112899
0.0205447
0.0224954
0.00970257
-0.00714991
-0.0274863
-0.0119098
0.00910711
0.0127184
0.0208371
0.000936824
-0.0206075
-0.00891825
100.445
98.8975
98.8253
103.785
104.648
86.724
49.9997
13.4018
-4.64476
-4.19346
1.16456
1.91043
-0.422824
-1.07597
0.175311
0.69722
-0.0625016
-0.497914
-0.00441058
0.378827
0.0530074
-0.297189
-0.0926123
0.232237
0.125409
-0.173197
-0.150286
0.11477
0.164748
-0.0558395
-0.16546
-0.00206075
0.150311
0.0542512
-0.118418
-0.0949379
0.0723269
0.117567
-0.0177937
-0.117324
-0.0361001
0.0932161
0.0780978
-0.0492302
-0.0982443
-0.00421655
0.0903168
0.0528562
-0.0559381
-0.0817336
0.00562386
0.08059
0.0434247
-0.0494545
-0.0724663
0.000593528
0.0688647
0.0454876
-0.0343642
-0.0672464
-0.0141636
0.0530926
0.0524617
-0.0114965
-0.0590469
-0.0331241
0.029146
0.0550565
0.0166653
-0.0399908
-0.0466697
-0.00298551
0.0422854
0.040364
-0.00773484
-0.0416067
-0.0318818
0.00958937
0.0425949
0.0254139
-0.0125892
-0.0354776
-0.0272531
0.0139664
0.0340587
0.0203113
-0.00441922
-0.0332544
-0.0237775
0.00836133
0.0205044
0.0264713
0.00365802
-0.0267915
-0.0174649
-0.00840052
0.00825229
0.0305847
0.00735059
-0.00873849
100.213
100.444
98.5668
98.8266
103.978
104.647
86.5982
49.9996
13.4918
-4.64287
-4.263
1.16002
1.96738
-0.414792
-1.12441
0.16295
0.739032
-0.045217
-0.533513
-0.0269261
0.407728
0.0804715
-0.318263
-0.124066
0.244163
0.159033
-0.174863
-0.183362
0.105698
0.19393
-0.0368051
-0.187017
-0.0288391
0.160997
0.0848096
-0.116184
-0.12399
0.057281
0.13932
0.00715732
-0.126764
-0.0653191
0.087772
0.104084
-0.0301256
-0.113517
-0.0314804
0.0899087
0.0795459
-0.039842
-0.0983194
-0.0203939
0.0805395
0.0691858
-0.0328589
-0.0866621
-0.0253726
0.0649001
0.0685752
-0.0145444
-0.07516
-0.0396995
0.0417045
0.0694747
0.0118252
-0.0565606
-0.0545237
0.00923694
0.0609
0.0392347
-0.0251853
-0.0566718
-0.027012
0.0333975
0.0530555
0.0141271
-0.0336897
-0.0486657
-0.00953749
0.0374986
0.03937
0.0092358
-0.0333735
-0.0413424
-0.00287868
0.0260606
0.0359801
0.0132305
-0.0295429
-0.0300804
-0.0118179
0.0114295
0.0376671
0.0144592
-0.0135702
-0.0178431
-0.0278236
0.000726755
0.028546
0.011567
99.7885
100.544
100.442
98.374
98.8285
104.104
104.646
86.5082
49.9995
13.5616
-4.64051
-4.32046
1.15446
2.01683
-0.405142
-1.16784
0.14837
0.777065
-0.0252189
-0.565658
-0.0524612
0.432894
0.110916
-0.334914
-0.157998
0.250807
0.194087
-0.170521
-0.21623
0.0902994
0.220843
-0.0119079
-0.204048
-0.0600571
0.165207
0.117339
-0.106373
-0.151752
0.0349427
0.156348
0.0373596
-0.128706
-0.0961627
0.0737495
0.127187
-0.00381333
-0.121739
-0.0621771
0.0803161
0.104251
-0.0155856
-0.107705
-0.0503388
0.0707725
0.0924189
-0.00802269
-0.0925334
-0.0542268
0.0508265
0.0869533
0.0122772
-0.0729508
-0.0652126
0.0208883
0.0783302
0.0386427
-0.0427861
-0.0712591
-0.0167065
0.0556351
0.0589747
-0.000915013
-0.0575485
-0.0499997
0.0145741
0.0556441
0.0387917
-0.0166034
-0.0564917
-0.0300968
0.0198366
0.0470995
0.0328166
-0.0217076
-0.0448114
-0.0242903
0.00879167
0.0445392
0.0286318
-0.0135051
-0.0277726
-0.0336001
-0.001647
0.0362425
0.021678
0.00945796
-0.0130964
-0.0399009
-0.00722108
0.0123869
99.8807
99.7907
100.736
100.439
98.2484
98.8311
104.194
104.644
86.4384
49.9994
13.6193
-4.63763
-4.37061
1.14778
2.06163
-0.393756
-1.20799
0.131446
0.812323
-0.00242307
-0.59487
-0.0810115
0.454517
0.144186
-0.347135
-0.194046
0.252091
0.229979
-0.160183
-0.248071
0.0688264
0.244544
0.0182125
-0.215655
-0.0946143
0.162341
0.15032
-0.0889583
-0.176502
0.00609238
0.167094
0.0711884
-0.122259
-0.126394
0.0513954
0.145065
0.0281713
-0.121294
-0.0936861
0.0613969
0.123997
0.015237
-0.107854
-0.0810935
0.0511805
0.109624
0.0230012
-0.0881253
-0.0821296
0.0272535
0.0968645
0.0431153
-0.0596234
-0.086159
-0.00714807
0.0757903
0.0649162
-0.0189523
-0.0789708
-0.0442222
0.0379656
0.0718144
0.0284224
-0.0473788
-0.0658717
-0.0122551
0.0466571
0.0599802
0.0064311
-0.0506268
-0.0478891
-0.00690122
0.045557
0.0502429
-0.000901148
-0.0355072
-0.0446406
-0.0123015
0.0403307
0.0367625
0.0121226
-0.0178436
-0.0478699
-0.0146775
0.0193946
0.0235401
0.0339052
-0.00492117
-0.0368745
-0.013405
100.117
99.6879
99.7941
100.862
100.435
98.1586
98.8345
104.263
104.642
86.3806
49.9992
13.6699
-4.63418
-4.41634
1.13989
2.10357
-0.380522
-1.24593
0.112064
0.845411
0.0232306
-0.62141
-0.112535
0.472627
0.180079
-0.354836
-0.231787
0.24792
0.266067
-0.143914
-0.278046
0.0416319
0.26413
0.0527806
-0.221071
-0.131281
0.152025
0.182189
-0.0642413
-0.196608
-0.0281395
0.170292
0.10676
-0.107038
-0.153711
0.021547
0.155669
0.0637652
-0.111232
-0.123137
0.0338427
0.136136
0.0502476
-0.0976202
-0.109161
0.0227261
0.117842
0.0571833
-0.0727557
-0.104902
-0.00398302
0.0956623
0.074004
-0.0359643
-0.0980448
-0.0391185
0.0606757
0.0861311
0.0115108
-0.0741276
-0.068678
0.0095549
0.0745882
0.0564126
-0.0257384
-0.0703682
-0.0425382
0.0275402
0.0706808
0.0313542
-0.0301885
-0.0590527
-0.0352851
0.0327147
0.0553632
0.0258565
-0.0160836
-0.0565067
-0.0307145
0.0210217
0.0357537
0.0394378
-0.00354554
-0.0465259
-0.0245317
-0.0089258
0.0201419
0.0487349
0.00461828
-0.0168733
100.076
100.113
99.5625
99.7989
100.951
100.43
98.0893
98.8388
104.321
104.639
86.3301
49.9991
13.7162
-4.63012
-4.45947
1.1307
2.14378
-0.365334
-1.28234
0.0901236
0.876678
0.0517781
-0.645373
-0.146952
0.487151
0.218346
-0.357885
-0.270745
0.238205
0.301673
-0.121847
-0.305307
0.0091799
0.278766
0.0908906
-0.219683
-0.168728
0.134139
0.211381
-0.0328477
-0.210593
-0.0663201
0.165039
0.142007
-0.0831833
-0.175887
-0.0144038
0.157388
0.100505
-0.091347
-0.147639
-0.000863481
0.138617
0.0864491
-0.076862
-0.13103
-0.0126529
0.115103
0.0907016
-0.0470033
-0.118665
-0.0400054
0.0823811
0.100246
-0.00416899
-0.0974274
-0.0710466
0.0343874
0.0975948
0.0440467
-0.0552093
-0.08606
-0.0247364
0.0650091
0.0766666
0.00561694
-0.0622797
-0.0692266
0.00149581
0.0656223
0.0541554
0.000594485
-0.0599489
-0.0566803
0.00841331
0.0464952
0.0520405
0.0074706
-0.0529941
-0.0418152
-0.00997628
0.0268546
0.0575895
0.0116428
-0.0267668
-0.0297246
-0.0384417
0.0124261
0.0453164
0.0140114
99.9282
100.201
100.107
99.4734
99.8053
101.02
100.424
98.0323
98.8441
104.371
104.636
86.2838
49.9989
13.76
-4.6254
-4.50117
1.1201
2.18302
-0.348096
-1.31764
0.0655374
0.906299
0.0832323
-0.666743
-0.184146
0.497947
0.258697
-0.356138
-0.310394
0.222889
0.336093
-0.0941959
-0.329026
-0.0279498
0.287699
0.131522
-0.211059
-0.205565
0.108828
0.236384
0.00429379
-0.217208
-0.106762
0.150839
0.174794
-0.0513722
-0.1909
-0.0545966
0.149189
0.135668
-0.0621895
-0.164521
-0.0405571
0.130233
0.120386
-0.046358
-0.14367
-0.0520978
0.10066
0.119249
-0.0124584
-0.120677
-0.0768839
0.0577489
0.117007
0.0327286
-0.0830584
-0.098254
0.000429394
0.0952176
0.0741954
-0.0239522
-0.0929203
-0.0580432
0.0419919
0.0849918
0.0418267
-0.0430474
-0.0843268
-0.0278898
0.0439816
0.0706894
0.0334342
-0.0474114
-0.0649142
-0.0241039
0.0268212
0.0686277
0.0289176
-0.0312342
-0.0441636
-0.0431815
0.0126951
0.0572743
0.0253573
0.00629916
-0.0297111
-0.0563663
0.00116627
0.0222116
99.9464
99.9344
100.29
100.1
99.4051
99.8134
101.076
100.416
97.9827
98.8504
104.417
104.632
86.24
49.9987
13.8026
-4.61999
-4.54224
1.10803
2.2218
-0.328719
-1.35207
0.0382304
0.934331
0.117584
-0.685428
-0.223961
0.504831
0.300802
-0.349456
-0.350163
0.201959
0.368613
-0.0612699
-0.348407
-0.0690618
0.290285
0.173559
-0.194969
-0.240362
0.0764995
0.255795
0.0459667
-0.215469
-0.147603
0.127657
0.202988
-0.0127692
-0.197071
-0.0967929
0.130717
0.166395
-0.0249624
-0.171676
-0.0823979
0.110641
0.148493
-0.00772391
-0.145045
-0.0917839
0.0747844
0.138791
0.028292
-0.109882
-0.109662
0.023589
0.12056
0.0709151
-0.0563206
-0.115452
-0.03691
0.0770855
0.0979444
0.0144673
-0.0861212
-0.0838774
0.00690435
0.0802199
0.0749356
-0.0152465
-0.0819279
-0.0569013
0.0105477
0.0761307
0.0593164
-0.0203157
-0.0586899
-0.0571414
0.00216661
0.0671616
0.0443113
0.0047107
-0.0385951
-0.0659078
-0.00453407
0.0356323
0.0360665
0.0405761
-0.0237229
-0.0532593
-0.0129465
100.047
99.8576
99.9429
100.358
100.09
99.3495
99.8235
101.125
100.407
97.9378
98.858
104.46
104.628
86.1974
49.9984
13.8449
-4.61385
-4.58321
1.09437
2.26044
-0.307123
-1.38575
0.00814129
0.960749
0.154801
-0.701287
-0.266199
0.507595
0.344298
-0.337729
-0.389444
0.175458
0.398514
-0.0234734
-0.362705
-0.11335
0.286006
0.215805
-0.171392
-0.271709
0.0378422
0.268343
0.0907306
-0.204742
-0.186859
0.095927
0.224557
0.0310594
-0.193254
-0.138384
0.102209
0.190014
0.0184555
-0.167743
-0.122957
0.0801993
0.167719
0.0363776
-0.134134
-0.127288
0.0385658
0.146495
0.0713206
-0.0866244
-0.133145
-0.0175583
0.109509
0.105394
-0.0204016
-0.117846
-0.0735166
0.0448947
0.111198
0.0530385
-0.0635943
-0.0981486
-0.0350592
0.063236
0.0959299
0.0184156
-0.0611909
-0.0807465
-0.0259223
0.0656425
0.0722824
0.0179966
-0.0411743
-0.079769
-0.0221431
0.0441404
0.0523529
0.043741
-0.0262268
-0.0676536
-0.0234161
-0.00110945
0.0417113
0.061692
-0.0106024
-0.0281771
100.042
100.038
99.7903
99.9538
100.413
100.078
99.3021
99.8356
101.169
100.395
97.8957
98.8668
104.502
104.622
86.1553
49.9981
13.8873
-4.60694
-4.62443
1.07904
2.29917
-0.283235
-1.41874
-0.0247746
0.985462
0.194833
-0.714155
-0.310621
0.506014
0.388793
-0.320887
-0.427593
0.143495
0.425084
0.018694
-0.371252
-0.159891
0.274474
0.25703
-0.140552
-0.298228
-0.0062063
0.272961
0.136967
-0.184805
-0.222447
0.0564623
0.237789
0.0781
-0.178835
-0.176573
0.0644689
0.204365
0.0653845
-0.151979
-0.158711
0.0401201
0.175871
0.082159
-0.110646
-0.154518
-0.00575036
0.141009
0.111447
-0.0520539
-0.143353
-0.0620367
0.0849121
0.130199
0.021004
-0.103069
-0.105238
0.00384038
0.109646
0.085431
-0.026224
-0.0994144
-0.0750684
0.0354348
0.098305
0.0545051
-0.0271781
-0.0929213
-0.0565018
0.0369473
0.0712468
0.0584691
-0.0172765
-0.081846
-0.0430717
0.00428077
0.0527425
0.0714048
-0.00730768
-0.0455868
-0.0419176
-0.0392125
0.0388924
0.0596652
0.00975111
99.9678
100.109
100.026
99.7364
99.9675
100.459
100.064
99.26
99.8499
101.209
100.382
97.8554
98.877
104.543
104.616
86.113
49.9977
13.9303
-4.59925
-4.66616
1.06194
2.33811
-0.256992
-1.45101
-0.0605431
1.00833
0.237608
-0.723853
-0.35694
0.499862
0.433872
-0.298912
-0.463937
0.106249
0.447641
0.0646277
-0.373467
-0.207674
0.255463
0.295985
-0.102917
-0.318609
-0.0545067
0.268871
0.182866
-0.155791
-0.252357
0.0104941
0.241379
0.125921
-0.153657
-0.20873
0.0190526
0.207815
0.11256
-0.124254
-0.186585
-0.00720782
0.171471
0.125253
-0.0750953
-0.170467
-0.0543412
0.122034
0.143249
-0.00811603
-0.138572
-0.104561
0.0492919
0.139844
0.0642174
-0.0725591
-0.127139
-0.0392843
0.0900665
0.107658
0.0205641
-0.0875266
-0.103229
-0.00167169
0.0811219
0.0873244
0.0113872
-0.0865897
-0.0757053
-0.00650105
0.0588208
0.0881692
0.00923305
-0.0592501
-0.0592205
-0.0397683
0.0442186
0.0762516
0.0178422
-0.0070319
-0.0556263
-0.0631465
0.0239735
0.0342866
99.9652
99.9803
100.162
100.011
99.6916
99.9839
100.499
100.046
99.2217
99.8666
101.248
100.367
97.8161
98.8885
104.585
104.61
86.0703
49.9973
13.9743
-4.59074
-4.70854
1.04298
2.37737
-0.228339
-1.4825
-0.0991669
1.02919
0.283043
-0.730207
-0.404822
0.488916
0.479097
-0.271845
-0.497796
0.0639869
0.465532
0.113638
-0.368878
-0.255617
0.228936
0.331407
-0.0591582
-0.33171
-0.105688
0.255586
0.226513
-0.118192
-0.274807
-0.0402633
0.234383
0.171924
-0.118148
-0.232563
-0.0316886
0.199175
0.15661
-0.0853392
-0.20411
-0.0582603
0.15361
0.161562
-0.0292706
-0.17332
-0.10201
0.0899039
0.16248
0.0418223
-0.119283
-0.138572
0.00550048
0.13141
0.104973
-0.0312113
-0.133569
-0.078583
0.0526987
0.117813
0.0672335
-0.0622106
-0.112573
-0.0450275
0.04941
0.108375
0.0462295
-0.0581582
-0.082596
-0.0542436
0.0382353
0.0953127
0.0366057
-0.0173919
-0.0684612
-0.0721216
0.0243884
0.0557598
0.0462803
0.0330077
-0.0576211
-0.0630016
-0.00390855
100.022
99.9125
99.9961
100.205
99.9933
99.6532
100.003
100.535
100.027
99.1862
99.8857
101.284
100.35
97.7772
98.9015
104.627
104.602
86.0268
49.9967
14.0195
-4.58141
-4.75167
1.02206
2.41697
-0.197225
-1.51312
-0.14062
1.04781
0.331047
-0.733064
-0.45388
0.472958
0.524026
-0.23979
-0.528489
0.017066
0.478134
0.164974
-0.357168
-0.302554
0.195019
0.362087
-0.0101533
-0.336597
-0.158164
0.232883
0.266038
-0.0729254
-0.288271
-0.0937047
0.216256
0.213573
-0.0734544
-0.246126
-0.0848199
0.177807
0.194449
-0.0371664
-0.209334
-0.108859
0.122098
0.18791
0.0233224
-0.16204
-0.143195
0.0457337
0.167062
0.0923364
-0.087089
-0.157884
-0.043502
0.105938
0.137441
0.0147699
-0.119941
-0.110383
0.00306114
0.114317
0.103253
-0.0233417
-0.102107
-0.0879004
0.0112835
0.108545
0.072821
-0.0111761
-0.0787449
-0.091385
0.0108341
0.0753819
0.0631687
0.0297541
-0.0661963
-0.0809824
-0.00773114
0.0183183
0.0703787
0.0586939
-0.0412334
-0.0397307
100.031
100.005
99.8699
100.015
100.242
99.9721
99.6198
100.026
100.568
100.004
99.1528
99.9073
101.32
100.331
97.7386
98.9161
104.669
104.593
85.9823
49.996
14.066
-4.57126
-4.79559
0.999079
2.45691
-0.163601
-1.54278
-0.184846
1.06396
0.381529
-0.732301
-0.503678
0.451783
0.568212
-0.202925
-0.555345
-0.0340709
0.484881
0.217829
-0.338173
-0.34727
0.154002
0.386914
0.0430076
-0.332556
-0.210209
0.200843
0.299685
-0.0213358
-0.291514
-0.147472
0.186922
0.248552
-0.0214962
-0.247811
-0.137171
0.14383
0.223482
0.0170982
-0.200636
-0.154999
0.0780072
0.20212
0.0775573
-0.135889
-0.173502
-0.00766121
0.15684
0.136304
-0.043572
-0.159067
-0.0935086
0.0677833
0.154428
0.0604425
-0.085752
-0.132255
-0.04882
0.0946203
0.121574
0.026567
-0.0765508
-0.119524
-0.0264811
0.0828662
0.0904691
0.0424705
-0.0646955
-0.104895
-0.0234048
0.0345847
0.0841599
0.0656164
-0.0466473
-0.0646807
-0.0477918
-0.020538
0.0788067
0.0612373
-0.00499613
99.9861
100.073
99.9855
99.8349
100.038
100.273
99.9477
99.5905
100.051
100.597
99.9782
99.1213
99.9315
101.355
100.309
97.7
98.9322
104.712
104.583
85.9369
49.9951
14.1141
-4.5603
-4.84032
0.973957
2.49718
-0.127412
-1.57139
-0.231747
1.07736
0.434406
-0.727831
-0.553733
0.425203
0.611204
-0.161481
-0.577728
-0.0888834
0.485255
0.271355
-0.31189
-0.388534
0.106355
0.404886
0.0990648
-0.319126
-0.260009
0.159854
0.325902
0.0348098
-0.283583
-0.199157
0.146912
0.27482
0.035112
-0.236309
-0.185822
0.0985675
0.241375
0.0735429
-0.176877
-0.193566
0.0244081
0.2023
0.127914
-0.0948399
-0.190646
-0.0647957
0.13212
0.167011
0.00939307
-0.142768
-0.137685
0.0219438
0.149946
0.102798
-0.0365399
-0.140662
-0.0923522
0.0565376
0.121362
0.0795752
-0.0425462
-0.12844
-0.0610575
0.035155
0.098985
0.0863585
-0.0383567
-0.0904216
-0.0622188
-0.0123332
0.0906444
0.0791694
-0.00750035
-0.0324956
-0.0840602
-0.046113
0.0615557
0.0433037
99.9721
100.007
100.106
99.9622
99.8063
100.063
100.299
99.9202
99.565
100.08
100.624
99.9496
99.0915
99.9583
101.39
100.285
97.6614
98.9499
104.757
104.572
85.8903
49.9938
14.1639
-4.54853
-4.88585
0.946606
2.53771
-0.0885874
-1.59886
-0.281177
1.08768
0.489613
-0.719616
-0.603515
0.393053
0.652545
-0.11574
-0.595057
-0.146727
0.478793
0.324687
-0.278484
-0.42512
0.052712
0.415157
0.156584
-0.296066
-0.305796
0.110706
0.343307
0.093441
-0.263852
-0.246536
0.0976102
0.290355
0.0935859
-0.211046
-0.228161
0.0446982
0.245673
0.128585
-0.138397
-0.221997
-0.033872
0.186373
0.170239
-0.0411358
-0.193592
-0.118228
0.0927315
0.180848
0.067628
-0.112318
-0.1673
-0.0282986
0.122923
0.138635
0.0176909
-0.130208
-0.121124
0.00207694
0.106547
0.122545
-0.00417684
-0.108658
-0.0919029
-0.0215024
0.0950349
0.107144
0.00237802
-0.0549757
-0.0972985
-0.0494884
0.0729538
0.0702795
0.0448519
0.000836116
-0.100193
-0.0522112
0.0169875
100.007
99.9392
100.03
100.133
99.9357
99.7833
100.092
100.321
99.8896
99.543
100.111
100.649
99.9179
99.0632
99.9878
101.424
100.258
97.6227
98.9692
104.803
104.56
85.8426
49.9922
14.2155
-4.53596
-4.93216
0.91696
2.5784
-0.047032
-1.62514
-0.332933
1.09455
0.547102
-0.707665
-0.652456
0.355207
0.691762
-0.0660182
-0.606823
-0.206855
0.465097
0.376929
-0.238247
-0.455901
-0.00604029
0.416956
0.214087
-0.263436
-0.345907
0.0546713
0.350534
0.152561
-0.23242
-0.287326
0.0410086
0.293246
0.151434
-0.172858
-0.261265
-0.0145937
0.234382
0.179369
-0.0878253
-0.237241
-0.0919211
0.153194
0.20213
0.0197615
-0.180831
-0.161279
0.0393545
0.178008
0.123244
-0.0706795
-0.175312
-0.080797
0.0787658
0.161928
0.0672291
-0.0965095
-0.134644
-0.0594474
0.0811186
0.142091
0.0380511
-0.0644472
-0.116153
-0.0701113
0.0722704
0.10137
0.0541156
-0.0130067
-0.114597
-0.0680919
0.0277421
0.0485192
0.0938517
0.023769
-0.0829607
-0.0435557
100.025
99.9829
99.9142
100.057
100.153
99.9063
99.7658
100.124
100.338
99.8561
99.5245
100.145
100.671
99.8832
99.0368
100.02
101.457
100.229
97.584
98.9901
104.85
104.546
85.7939
49.9902
14.2691
-4.52262
-4.97922
0.884978
2.61912
-0.00261265
-1.65023
-0.386741
1.09756
0.606849
-0.692033
-0.699963
0.311602
0.728338
-0.0126241
-0.612652
-0.268355
0.443778
0.427238
-0.191662
-0.479836
-0.0687753
0.409549
0.27022
-0.221818
-0.378563
-0.00680012
0.346529
0.210227
-0.19026
-0.318934
-0.0209196
0.282437
0.206063
-0.123794
-0.281801
-0.0765617
0.207245
0.22289
-0.0293421
-0.235827
-0.146216
0.104449
0.221457
0.0805545
-0.150205
-0.1905
-0.0238706
0.160272
0.166318
-0.0189426
-0.160304
-0.131363
0.0267133
0.164211
0.107061
-0.0412491
-0.135397
-0.112869
0.0454247
0.131811
0.0834472
-0.00953509
-0.125632
-0.0982903
0.0265802
0.0766215
0.104218
0.0220435
-0.100599
-0.0700648
-0.0357989
0.0260292
0.118066
0.0341365
-0.0313826
99.999
100.05
99.9559
99.8962
100.087
100.167
99.8743
99.7535
100.158
100.351
99.8199
99.5097
100.182
100.691
99.8455
99.0121
100.055
101.491
100.197
97.5454
99.0125
104.898
104.531
85.7441
49.9876
14.3248
-4.50849
-5.02702
0.850658
2.65966
0.0448515
-1.67416
-0.442248
1.09622
0.668855
-0.672833
-0.745412
0.26222
0.761747
0.0441024
-0.612269
-0.330206
0.414493
0.474838
-0.139447
-0.495883
-0.134311
0.392479
0.323582
-0.172165
-0.40197
-0.0722512
0.330898
0.264191
-0.138743
-0.338907
-0.0862429
0.25814
0.254237
-0.066176
-0.287006
-0.138731
0.166172
0.255159
0.0330513
-0.215529
-0.194302
0.0451644
0.224861
0.135078
-0.101149
-0.205501
-0.0883777
0.12805
0.189263
0.0417207
-0.127224
-0.171366
-0.0254331
0.139141
0.137126
0.0250328
-0.123698
-0.143796
-0.00270735
0.0965901
0.125732
0.0399062
-0.109468
-0.104348
-0.0368765
0.0457086
0.133435
0.0452193
-0.0517541
-0.0644666
-0.0960417
0.00910973
0.102057
0.0387962
99.9773
100.026
100.066
99.9266
99.8852
100.118
100.175
99.8403
99.7465
100.194
100.359
99.7811
99.4986
100.222
100.708
99.8047
98.9895
100.092
101.523
100.161
97.507
99.0365
104.949
104.514
85.6934
49.9844
14.3826
-4.49356
-5.07558
0.814049
2.69974
0.0955956
-1.69705
-0.499039
1.09006
0.733106
-0.650173
-0.78822
0.207167
0.791398
0.103824
-0.605495
-0.391349
0.377071
0.518877
-0.0823741
-0.503189
-0.201327
0.365579
0.372635
-0.115537
-0.41469
-0.139962
0.303783
0.311921
-0.0792775
-0.345597
-0.152556
0.221426
0.292277
-0.00199637
-0.275855
-0.197876
0.114255
0.271681
0.0965981
-0.177279
-0.232979
-0.018157
0.208294
0.180332
-0.0375897
-0.206094
-0.143765
0.0798773
0.190637
0.106067
-0.0835999
-0.189517
-0.0749266
0.088323
0.157846
0.0860098
-0.0952584
-0.146431
-0.0621476
0.0499127
0.151376
0.0742749
-0.0619726
-0.0961836
-0.100876
0.0174508
0.125279
0.061173
0.0193824
-0.0588394
-0.127574
-0.0057214
0.0468238
99.9954
99.9622
100.055
100.074
99.8959
99.8809
100.151
100.177
99.8048
99.7449
100.232
100.362
99.7402
99.4915
100.264
100.722
99.7609
98.9692
100.132
101.556
100.123
97.4691
99.0618
105.001
104.495
85.6419
49.9805
14.4427
-4.47776
-5.12497
0.775275
2.73902
0.149935
-1.71906
-0.556605
1.07852
0.799574
-0.624161
-0.827871
0.146718
0.816578
0.16629
-0.592345
-0.45061
0.33146
0.558456
-0.0212172
-0.501219
-0.268251
0.328849
0.415834
-0.05308
-0.415846
-0.207724
0.265543
0.350977
-0.013351
-0.338495
-0.216483
0.173389
0.31706
0.0667322
-0.249408
-0.249182
0.0540235
0.269449
0.158953
-0.125416
-0.256898
-0.0806804
0.170064
0.215401
0.0315551
-0.189459
-0.182801
0.015841
0.174705
0.162818
-0.0339768
-0.178029
-0.122357
0.023278
0.16475
0.127739
-0.0448964
-0.126478
-0.122568
0.00511206
0.145085
0.0947558
0.00940663
-0.083091
-0.141611
-0.00906093
0.0770078
0.0773233
0.0868625
-0.0515605
-0.114507
-0.027562
100.019
99.9669
99.9552
100.085
100.076
99.8646
99.8832
100.185
100.173
99.7683
99.7488
100.272
100.361
99.6973
99.4887
100.308
100.733
99.7141
98.9514
100.175
101.588
100.081
97.4319
99.0884
105.055
104.473
85.5896
49.9757
14.505
-4.46099
-5.17529
0.734539
2.77703
0.208248
-1.74046
-0.614379
1.06106
0.868205
-0.59489
-0.863923
0.0813014
0.836494
0.231298
-0.573002
-0.506748
0.277759
0.592644
0.0432649
-0.489805
-0.33322
0.282371
0.451805
0.0139086
-0.405188
-0.272721
0.216377
0.379676
0.0569212
-0.317886
-0.273829
0.114554
0.327355
0.136627
-0.209557
-0.287074
-0.0133149
0.249041
0.215828
-0.0651795
-0.259993
-0.140651
0.114047
0.237776
0.0961141
-0.151111
-0.204683
-0.0576127
0.146347
0.198281
0.0221462
-0.138914
-0.165405
-0.0396491
0.148175
0.146283
0.0252746
-0.0959295
-0.164882
-0.0330157
0.100434
0.108789
0.0829196
-0.0667114
-0.141034
-0.0413058
0.0047718
0.0938415
0.123089
-0.0321712
-0.0608247
100.009
100.025
99.9382
99.9561
100.114
100.07
99.8335
99.8922
100.218
100.163
99.7315
99.7584
100.312
100.355
99.6528
99.4903
100.355
100.741
99.6643
98.9364
100.219
101.619
100.035
97.3956
99.1162
105.112
104.45
85.5367
49.9701
14.5696
-4.44307
-5.22675
0.692137
2.81324
0.270979
-1.76154
-0.671766
1.0372
0.938856
-0.562372
-0.896086
0.0115487
0.850245
0.298728
-0.547827
-0.55847
0.21619
0.620537
0.110306
-0.469146
-0.394097
0.226162
0.47968
0.0836001
-0.38265
-0.33203
0.15647
0.397474
0.128114
-0.283719
-0.321054
0.045791
0.323805
0.202199
-0.15706
-0.307956
-0.0860168
0.214082
0.260053
0.0006007
-0.239685
-0.196835
0.0490376
0.241207
0.150252
-0.0902221
-0.212756
-0.127
0.105745
0.204355
0.0859025
-0.0842148
-0.194166
-0.0888975
0.100499
0.148217
0.100438
-0.0630991
-0.170653
-0.0691514
0.0280665
0.120049
0.131813
-0.039148
-0.098992
-0.0830883
-0.0623199
0.0993393
0.114231
0.0090353
99.9853
100.037
100.023
99.9106
99.9644
100.142
100.057
99.8037
99.9075
100.251
100.147
99.6951
99.7736
100.352
100.344
99.6072
99.4966
100.402
100.746
99.6117
98.9247
100.266
101.65
99.9861
97.3605
99.145
105.17
104.424
85.4832
49.9636
14.6362
-4.42375
-5.27964
0.648456
2.84705
0.338634
-1.78263
-0.728173
1.00651
1.01129
-0.526539
-0.92419
-0.0617666
0.856907
0.368447
-0.517258
-0.604513
0.147086
0.6414
0.178896
-0.439405
-0.448989
0.160604
0.498866
0.153636
-0.347862
-0.383626
0.0871176
0.403907
0.19627
-0.235418
-0.356595
-0.0298354
0.30679
0.25774
-0.0917195
-0.311954
-0.159022
0.167634
0.284555
0.0715633
-0.199646
-0.244207
-0.0166398
0.218812
0.194266
-0.0143998
-0.20802
-0.178018
0.04875
0.18417
0.151583
-0.0280991
-0.194154
-0.124082
0.0257501
0.142395
0.157351
-0.0259247
-0.134864
-0.10937
-0.0469176
0.121154
0.139893
0.00934063
-0.0355376
-0.125488
-0.0982739
0.0768231
0.06974
99.9869
99.9885
100.063
100.013
99.8854
99.9797
100.168
100.038
99.7761
99.9291
100.281
100.125
99.6599
99.7946
100.392
100.328
99.5609
99.5079
100.451
100.747
99.5563
98.9164
100.314
101.68
99.9328
97.3269
99.1747
105.231
104.395
85.4291
49.9563
14.7049
-4.40268
-5.33433
0.603959
2.87777
0.411724
-1.80403
-0.783092
0.968711
1.08507