/*--------------------------------*- C++ -*----------------------------------*\
  =========                 |
  \\      /  F ield         | OpenFOAM: The Open Source CFD Toolbox
   \\    /   O peration     | Website:  https://openfoam.org
    \\  /    A nd           | Version:  8
     \\/     M anipulation  |
\*---------------------------------------------------------------------------*/
FoamFile
{
    version     2.0;
    format      ascii;
    class       volScalarField;
    location    "0.295";
    object      p;
}
// * * * * * * * * * * * * * * * * * * * * * * * * * * * * * * * * * * * * * //

dimensions      [0 2 -2 0 0 0 0];

internalField   nonuniform List<scalar> 
400
(
3.70333e-06
-0.00582275
-0.0129593
-0.0184104
-0.0204272
-0.0182332
-0.011769
-0.0014795
0.0118405
0.0271509
0.0432448
0.058822
0.0725766
0.0833058
0.09005
0.0922646
0.0900243
0.0842436
0.0768816
0.071069
0.00578146
-0.000216875
-0.00580178
-0.00953958
-0.0105955
-0.00842905
-0.00296645
0.00547717
0.0163052
0.0287132
0.0417505
0.0543858
0.0655856
0.0744087
0.0801191
0.082315
0.0810772
0.0770556
0.0712759
0.0653205
0.0133344
0.00503392
-0.000994189
-0.00442127
-0.00527056
-0.00326133
0.0016049
0.00902989
0.018504
0.0293507
0.0407664
0.0518701
0.0617686
0.0696362
0.074807
0.0768784
0.0758426
0.0720877
0.0658082
0.0575393
0.0201374
0.00869532
0.00122622
-0.00266744
-0.00372047
-0.00188333
0.00273334
0.00978654
0.0187821
0.0290965
0.0399932
0.050655
0.0602337
0.0679166
0.0730039
0.0750026
0.0737676
0.0694588
0.0616067
0.0501076
0.0244991
0.00977195
0.000589722
-0.00398622
-0.00530095
-0.00350564
0.00117665
0.00833651
0.0174639
0.0279508
0.0390866
0.0500714
0.0600503
0.0681664
0.0736278
0.0757995
0.0743714
0.0692931
0.05953
0.0445432
0.0251748
0.00714882
-0.0038021
-0.00905654
-0.0105109
-0.00849823
-0.00335473
0.00443169
0.0143156
0.0256812
0.0378159
0.0499054
0.0610502
0.0703052
0.0767368
0.0795192
0.0781418
0.0723373
0.0605442
0.0418967
0.021091
-0.000263109
-0.0129342
-0.0187083
-0.0200282
-0.0174118
-0.0113158
-0.00231685
0.00899341
0.0219792
0.0359125
0.0499472
0.0631149
0.074348
0.0825247
0.0865725
0.0857241
0.0794511
0.0656255
0.0430785
0.0111416
-0.013618
-0.027874
-0.0338526
-0.0346013
-0.0308548
-0.0232096
-0.0123416
0.00110869
0.0164878
0.0330564
0.0499373
0.0660869
0.0802934
0.0912042
0.0974336
0.0978741
0.0916403
0.0759014
0.0491229
-0.0059665
-0.0342649
-0.0498679
-0.055546
-0.0550871
-0.0495111
-0.0395895
-0.0261089
-0.00975233
0.00882791
0.0289059
0.0495982
0.0698019
0.0881588
0.103052
0.112705
0.115555
0.110196
0.0928392
0.0614172
-0.0318543
-0.0638729
-0.0804135
-0.0850035
-0.0824161
-0.074074
-0.0609761
-0.0440313
-0.0239458
-0.00133101
0.0231515
0.0486666
0.0741009
0.0979772
0.118401
0.13313
0.139993
0.136822
0.118445
0.0819386
-0.0686622
-0.104599
-0.12134
-0.123585
-0.117511
-0.105121
-0.0877127
-0.0663195
-0.0416305
-0.0141489
0.0156123
0.0469597
0.0788619
0.109799
0.137629
0.15959
0.172731
0.173782
0.155525
0.113575
-0.119395
-0.159351
-0.174909
-0.172751
-0.161142
-0.142923
-0.119753
-0.0927704
-0.0625704
-0.0294403
0.00638052
0.0444807
0.0840618
0.123709
0.161142
0.193091
0.215673
0.224081
0.208054
0.160635
-0.188619
-0.232234
-0.243932
-0.233942
-0.213688
-0.187148
-0.156366
-0.122494
-0.0858906
-0.0464645
-0.00400664
0.0415464
0.0898493
0.139836
0.189325
0.234694
0.271079
0.291668
0.281746
0.229777
-0.283964
-0.329296
-0.331825
-0.308274
-0.274702
-0.236433
-0.195758
-0.153603
-0.109833
-0.0637373
-0.0144299
0.0388713
0.0965616
0.158283
0.22238
0.285293
0.341401
0.381578
0.384916
0.331835
-0.419308
-0.459663
-0.442343
-0.395786
-0.342123
-0.287734
-0.23461
-0.182923
-0.131602
-0.0789772
-0.023206
0.0374832
0.104561
0.178844
0.259867
0.344975
0.42862
0.499703
0.529677
0.485392
-0.620522
-0.636736
-0.578671
-0.494188
-0.411236
-0.335653
-0.267775
-0.205971
-0.147529
-0.0893754
-0.0284182
0.0383561
0.113814
0.200478
0.299981
0.41203
0.533033
0.651778
0.732773
0.722396
-0.935916
-0.878508
-0.741736
-0.597944
-0.474389
-0.372655
-0.288864
-0.217757
-0.153947
-0.0924567
-0.0287097
0.0417032
0.123271
0.220725
0.338931
0.482159
0.652
0.841344
1.01527
1.0975
-1.47642
-1.20663
-0.920499
-0.691385
-0.517302
-0.387541
-0.290058
-0.213333
-0.148118
-0.0872089
-0.0245704
0.0454648
0.128945
0.233078
0.367109
0.542683
0.771297
1.05932
1.40329
1.73014
-2.53964
-1.63054
-1.04444
-0.710957
-0.49575
-0.352092
-0.254529
-0.18358
-0.126165
-0.0735892
-0.0192622
0.0427943
0.11922
0.21879
0.354819
0.547989
0.826397
1.23658
1.91168
2.92419
-4.36666
-2.04463
-0.973541
-0.563181
-0.357847
-0.240147
-0.170119
-0.123781
-0.0874778
-0.053505
-0.0166476
0.0276686
0.084616
0.161738
0.272419
0.442106
0.718225
1.22571
2.41104
4.84853
)
;

boundaryField
{
    movingWall
    {
        type            zeroGradient;
    }
    fixedWalls
    {
        type            zeroGradient;
    }
    frontAndBack
    {
        type            empty;
    }
}


// ************************************************************************* //
