/*--------------------------------*- C++ -*----------------------------------*\
  =========                 |
  \\      /  F ield         | OpenFOAM: The Open Source CFD Toolbox
   \\    /   O peration     | Website:  https://openfoam.org
    \\  /    A nd           | Version:  8
     \\/     M anipulation  |
\*---------------------------------------------------------------------------*/
FoamFile
{
    version     2.0;
    format      ascii;
    class       surfaceScalarField;
    location    "0.295";
    object      phi;
}
// * * * * * * * * * * * * * * * * * * * * * * * * * * * * * * * * * * * * * //

dimensions      [0 3 -1 0 0 0 0];

internalField   nonuniform List<scalar> 
760
(
1.42326e-08
-1.42637e-08
-2.22087e-08
3.64406e-08
-1.1426e-07
9.20509e-08
-2.45472e-07
1.31212e-07
-3.96062e-07
1.5059e-07
-5.47315e-07
1.51253e-07
-6.83126e-07
1.35811e-07
-7.90587e-07
1.07461e-07
-8.60124e-07
6.9537e-08
-8.85555e-07
2.54313e-08
-8.64236e-07
-2.1319e-08
-7.97312e-07
-6.69238e-08
-6.90021e-07
-1.07292e-07
-5.51923e-07
-1.38097e-07
-3.96909e-07
-1.55013e-07
-2.4273e-07
-1.54179e-07
-1.09726e-07
-1.33004e-07
-1.84163e-08
-9.13093e-08
1.56874e-08
-3.41036e-08
1.56876e-08
-3.4211e-08
1.9948e-08
-1.80358e-07
1.82587e-07
-4.33952e-07
3.45644e-07
-7.64369e-07
4.61629e-07
-1.13212e-06
5.18336e-07
-1.49712e-06
5.16253e-07
-1.82318e-06
4.61876e-07
-2.08036e-06
3.64637e-07
-2.24608e-06
2.35262e-07
-2.30584e-06
8.51913e-08
-2.25371e-06
-7.3453e-08
-2.09287e-06
-2.2776e-07
-1.83611e-06
-3.64057e-07
-1.50592e-06
-4.68289e-07
-1.13399e-06
-5.26942e-07
-7.59462e-07
-5.28708e-07
-4.25368e-07
-4.67098e-07
-1.7268e-07
-3.43998e-07
-3.08004e-08
-1.75984e-07
-1.5113e-08
-9.22191e-08
1.12168e-07
-3.56966e-07
4.47333e-07
-7.64493e-07
7.53171e-07
-1.26838e-06
9.65514e-07
-1.81454e-06
1.0645e-06
-2.34884e-06
1.05055e-06
-2.82219e-06
9.35223e-07
-3.19367e-06
7.36113e-07
-3.43231e-06
4.73909e-07
-3.51821e-06
1.71088e-07
-3.44328e-06
-1.48384e-07
-3.21199e-06
-4.59054e-07
-2.84187e-06
-7.34175e-07
-2.36361e-06
-9.46549e-07
-1.82017e-06
-1.07038e-06
-1.26439e-06
-1.08449e-06
-7.54463e-07
-9.77021e-07
-3.46944e-07
-7.51518e-07
-8.73292e-08
-4.35598e-07
-1.02443e-07
-1.45197e-07
2.57366e-07
-5.25416e-07
8.27551e-07
-1.08154e-06
1.30929e-06
-1.74736e-06
1.63133e-06
-2.45412e-06
1.77126e-06
-3.13611e-06
1.73254e-06
-3.73497e-06
1.53409e-06
-4.20255e-06
1.20369e-06
-4.50254e-06
7.73897e-07
-4.61154e-06
2.80091e-07
-4.51988e-06
-2.40043e-07
-4.23238e-06
-7.4655e-07
-3.76906e-06
-1.1975e-06
-3.16538e-06
-1.55023e-06
-2.47168e-06
-1.76409e-06
-1.75093e-06
-1.80524e-06
-1.07443e-06
-1.65353e-06
-5.15099e-07
-1.31084e-06
-1.39304e-07
-8.11393e-07
-2.41747e-07
-1.93593e-07
4.50959e-07
-6.84945e-07
1.3189e-06
-1.38551e-06
2.00986e-06
-2.20707e-06
2.45289e-06
-3.06522e-06
2.62942e-06
-3.88347e-06
2.55078e-06
-4.59614e-06
2.24676e-06
-5.15017e-06
1.75773e-06
-5.50601e-06
1.12973e-06
-5.63808e-06
4.12159e-07
-5.53532e-06
-3.42799e-07
-5.20197e-06
-1.0799e-06
-4.65853e-06
-1.74095e-06
-3.94266e-06
-2.26609e-06
-3.10947e-06
-2.59727e-06
-2.23034e-06
-2.68438e-06
-1.38954e-06
-2.49432e-06
-6.78449e-07
-2.02193e-06
-1.87753e-07
-1.30209e-06
-4.29501e-07
-2.39923e-07
6.90882e-07
-8.4029e-07
1.91927e-06
-1.68317e-06
2.85274e-06
-2.65687e-06
3.42659e-06
-3.66059e-06
3.63313e-06
-4.60745e-06
3.49765e-06
-5.42598e-06
3.06529e-06
-6.06016e-06
2.3919e-06
-6.46892e-06
1.5385e-06
-6.62561e-06
5.68849e-07
-6.51789e-06
-4.50518e-07
-6.1484e-06
-1.44939e-06
-5.53619e-06
-2.35316e-06
-4.71863e-06
-3.08365e-06
-3.75323e-06
-3.56267e-06
-2.71831e-06
-3.71929e-06
-1.71143e-06
-3.5012e-06
-8.44611e-07
-2.88876e-06
-2.36164e-07
-1.91053e-06
-6.65665e-07
-2.86729e-07
9.77611e-07
-9.97033e-07
2.62957e-06
-1.98198e-06
3.83769e-06
-3.10478e-06
4.5494e-06
-4.24773e-06
4.77608e-06
-5.31454e-06
4.56446e-06
-6.22979e-06
3.98053e-06
-6.93681e-06
3.09892e-06
-7.3951e-06
1.99679e-06
-7.57823e-06
7.51979e-07
-7.47278e-06
-5.55968e-07
-7.07876e-06
-1.84341e-06
-6.41157e-06
-3.02035e-06
-5.50532e-06
-3.9899e-06
-4.41686e-06
-4.65114e-06
-3.22922e-06
-4.90692e-06
-2.05286e-06
-4.67756e-06
-1.02249e-06
-3.91912e-06
-2.88268e-07
-2.64476e-06
-9.53932e-07
-3.36319e-07
1.31393e-06
-1.16033e-06
3.45358e-06
-2.28794e-06
4.96529e-06
-3.55487e-06
5.81633e-06
-4.82645e-06
6.04766e-06
-5.99885e-06
5.73686e-06
-6.99578e-06
4.97746e-06
-7.76324e-06
3.86638e-06
-8.26418e-06
2.49774e-06
-8.47431e-06
9.62104e-07
-8.37966e-06
-6.50611e-07
-7.97662e-06
-2.24646e-06
-7.27433e-06
-3.72264e-06
-6.29975e-06
-4.96448e-06
-5.10451e-06
-5.84637e-06
-3.77241e-06
-6.23902e-06
-2.42481e-06
-6.02516e-06
-1.22071e-06
-5.12323e-06
-3.47696e-07
-3.51777e-06
-1.30163e-06
-3.9095e-07
1.70488e-06
-1.33486e-06
4.3975e-06
-2.60493e-06
6.23536e-06
-4.00587e-06
7.21727e-06
-5.38671e-06
7.42849e-06
-6.63961e-06
6.98977e-06
-7.69227e-06
6.03012e-06
-8.49829e-06
4.6724e-06
-9.02822e-06
3.02767e-06
-9.26272e-06
1.19661e-06
-9.18846e-06
-7.24879e-07
-8.7973e-06
-2.63761e-06
-8.08921e-06
-4.43073e-06
-7.07889e-06
-5.9748e-06
-5.80622e-06
-7.11904e-06
-4.34897e-06
-7.69627e-06
-2.83476e-06
-7.53937e-06
-1.44707e-06
-6.51092e-06
-4.18091e-07
-4.54675e-06
-1.71972e-06
-4.53452e-07
2.15833e-06
-1.52568e-06
5.46972e-06
-2.93487e-06
7.64455e-06
-4.4501e-06
8.73249e-06
-5.9063e-06
8.8847e-06
-7.19778e-06
8.28125e-06
-8.26362e-06
7.09596e-06
-9.07202e-06
5.4808e-06
-9.60683e-06
3.56248e-06
-9.85755e-06
1.44733e-06
-9.81338e-06
-7.6905e-07
-9.46133e-06
-2.98965e-06
-8.78907e-06
-5.103e-06
-7.79296e-06
-6.97091e-06
-6.49218e-06
-8.41983e-06
-4.94794e-06
-9.2405e-06
-3.28509e-06
-9.20222e-06
-1.70867e-06
-8.08735e-06
-5.03583e-07
-5.75183e-06
-2.2233e-06
-5.2834e-07
2.68667e-06
-1.73967e-06
6.68105e-06
-3.278e-06
9.18288e-06
-4.87166e-06
1.03262e-05
-6.34705e-06
1.03601e-05
-7.61088e-06
9.54507e-06
-8.62442e-06
8.1095e-06
-9.37975e-06
6.23613e-06
-9.88106e-06
4.06378e-06
-1.01316e-05
1.69787e-06
-1.01258e-05
-7.74803e-07
-9.84639e-06
-3.26911e-06
-9.26603e-06
-5.68335e-06
-8.35637e-06
-7.88057e-06
-7.10472e-06
-9.67148e-06
-5.54071e-06
-1.08045e-05
-3.77071e-06
-1.09722e-05
-2.01217e-06
-9.84589e-06
-6.09688e-07
-7.15431e-06
-2.83299e-06
-6.23675e-07
3.31035e-06
-1.98741e-06
8.04479e-06
-3.63196e-06
1.08274e-05
-5.24201e-06
1.19362e-05
-6.64769e-06
1.17658e-05
-7.78462e-06
1.0682e-05
-8.65118e-06
8.97606e-06
-9.27449e-06
6.85944e-06
-9.68673e-06
4.47602e-06
-9.91001e-06
1.92115e-06
-9.94742e-06
-7.37393e-07
-9.77875e-06
-3.43777e-06
-9.36103e-06
-6.10107e-06
-8.63574e-06
-8.60587e-06
-7.54647e-06
-1.07607e-05
-6.07164e-06
-1.22793e-05
-4.2743e-06
-1.27696e-05
-2.36366e-06
-1.17565e-05
-7.44781e-07
-8.77319e-06
-3.57777e-06
-7.54089e-07
4.06443e-06
-2.28439e-06
9.57509e-06
-3.98709e-06
1.25301e-05
-5.50922e-06
1.34583e-05
-6.70978e-06
1.29663e-05
-7.57878e-06
1.1551e-05
-8.17031e-06
9.5676e-06
-8.55792e-06
7.24704e-06
-8.80804e-06
4.72614e-06
-8.96536e-06
2.07848e-06
-9.04467e-06
-6.58085e-07
-9.02603e-06
-3.45641e-06
-8.85284e-06
-6.27426e-06
-8.43503e-06
-9.02369e-06
-7.66307e-06
-1.15327e-05
-6.44211e-06
-1.35003e-05
-4.75632e-06
-1.44554e-05
-2.76678e-06
-1.37461e-05
-9.22442e-07
-1.06175e-05
-4.50022e-06
-9.45222e-07
5.00966e-06
-2.64854e-06
1.12784e-05
-4.31109e-06
1.41927e-05
-5.57345e-06
1.47207e-05
-6.37089e-06
1.37638e-05
-6.78353e-06
1.19636e-05
-6.94079e-06
9.72486e-06
-6.97005e-06
7.2763e-06
-6.97311e-06
4.7292e-06
-7.01684e-06
2.1222e-06
-7.12893e-06
-5.45994e-07
-7.29406e-06
-3.29128e-06
-7.4489e-06
-6.11942e-06
-7.4781e-06
-8.99448e-06
-7.21811e-06
-1.17927e-05
-6.48287e-06
-1.42355e-05
-5.13351e-06
-1.58047e-05
-3.21502e-06
-1.56646e-05
-1.1644e-06
-1.26681e-05
-5.66461e-06
-1.23733e-06
6.24699e-06
-3.08334e-06
1.31244e-05
-4.50781e-06
1.56171e-05
-5.23464e-06
1.54475e-05
-5.35543e-06
1.38846e-05
-5.0821e-06
1.16903e-05
-4.6312e-06
9.27396e-06
-4.1796e-06
6.8247e-06
-3.85471e-06
4.40432e-06
-3.73738e-06
2.00487e-06
-3.86548e-06
-4.17899e-07
-4.23296e-06
-2.92379e-06
-4.78237e-06
-5.57001e-06
-5.39131e-06
-8.38554e-06
-5.85868e-06
-1.13253e-05
-5.90671e-06
-1.41875e-05
-5.2329e-06
-1.64785e-05
-3.66631e-06
-1.72312e-05
-1.50009e-06
-1.48344e-05
-7.1647e-06
-1.67382e-06
7.92081e-06
-3.51341e-06
1.4964e-05
-4.31539e-06
1.64191e-05
-4.08902e-06
1.52212e-05
-3.19325e-06
1.29888e-05
-1.999e-06
1.04961e-05
-7.95448e-07
8.07041e-06
2.18996e-07
5.81026e-06
9.1787e-07
3.70545e-06
1.22523e-06
1.6975e-06
1.1017e-06
-2.94366e-07
5.40723e-07
-2.36281e-06
-4.23229e-07
-4.60606e-06
-1.69282e-06
-7.11595e-06
-3.07261e-06
-9.94553e-06
-4.23096e-06
-1.30291e-05
-4.69574e-06
-1.60137e-05
-3.96723e-06
-1.79597e-05
-1.94494e-06
-1.68567e-05
-9.10964e-06
-2.2307e-06
1.01515e-05
-3.59033e-06
1.63237e-05
-3.07786e-06
1.59067e-05
-1.344e-06
1.34873e-05
8.96856e-07
1.07479e-05
3.15474e-06
8.23817e-06
5.13784e-06
6.08731e-06
6.68838e-06
4.25972e-06
7.72549e-06
2.66833e-06
8.20621e-06
1.21679e-06
8.10355e-06
-1.91708e-07
7.39872e-06
-1.65798e-06
6.08657e-06
-3.29392e-06
4.19895e-06
-5.22832e-06
1.85396e-06
-7.60055e-06
-6.6185e-07
-1.05133e-05
-2.79226e-06
-1.38833e-05
-3.66213e-06
-1.70898e-05
-2.41155e-06
-1.81072e-05
-1.15212e-05
-2.57382e-06
1.27253e-05
-2.18348e-06
1.59333e-05
7.18016e-07
1.30052e-05
4.46947e-06
9.73584e-06
8.13315e-06
7.08426e-06
1.13014e-05
5.06994e-06
1.38289e-05
3.55984e-06
1.56878e-05
2.40075e-06
1.68914e-05
1.46478e-06
1.74546e-05
6.53594e-07
1.73761e-05
-1.13195e-07
1.66302e-05
-9.12133e-07
1.51669e-05
-1.83063e-06
1.29233e-05
-2.98469e-06
9.86159e-06
-4.53884e-06
6.06185e-06
-6.71359e-06
1.91227e-06
-9.73375e-06
-1.55966e-06
-1.36179e-05
-2.45835e-06
-1.72086e-05
-1.39795e-05
-7.85012e-07
1.35103e-05
4.08078e-06
1.10675e-05
1.02975e-05
6.78842e-06
1.57936e-05
4.23978e-06
2.01579e-05
2.71989e-06
2.3458e-05
1.76993e-06
2.58607e-05
1.15712e-06
2.75214e-05
7.40042e-07
2.85539e-05
4.32286e-07
2.90262e-05
1.81219e-07
2.8962e-05
-4.89794e-08
2.83386e-05
-2.88693e-07
2.70817e-05
-5.73731e-07
2.50549e-05
-9.57944e-07
2.20516e-05
-1.53551e-06
1.78154e-05
-2.4774e-06
1.21723e-05
-4.09067e-06
5.4777e-06
-6.92323e-06
-1.29176e-07
-1.16017e-05
-1.41087e-05
1.35103e-05
2.45779e-05
3.13663e-05
3.56061e-05
3.83259e-05
4.00959e-05
4.1253e-05
4.1993e-05
4.24253e-05
4.26066e-05
4.25576e-05
4.22689e-05
4.16951e-05
4.07372e-05
3.92017e-05
3.67243e-05
3.26336e-05
2.57104e-05
1.41087e-05
)
;

boundaryField
{
    movingWall
    {
        type            calculated;
        value           uniform 0;
    }
    fixedWalls
    {
        type            calculated;
        value           uniform 0;
    }
    frontAndBack
    {
        type            empty;
        value           nonuniform List<scalar> 0();
    }
}


// ************************************************************************* //
