/*--------------------------------*- C++ -*----------------------------------*\
  =========                 |
  \\      /  F ield         | OpenFOAM: The Open Source CFD Toolbox
   \\    /   O peration     | Website:  https://openfoam.org
    \\  /    A nd           | Version:  8
     \\/     M anipulation  |
\*---------------------------------------------------------------------------*/
FoamFile
{
    version     2.0;
    format      ascii;
    class       surfaceScalarField;
    location    "16.5";
    object      phi;
}
// * * * * * * * * * * * * * * * * * * * * * * * * * * * * * * * * * * * * * //

dimensions      [0 3 -1 0 0 0 0];

internalField   nonuniform List<scalar> 
208
(
3.15316e-06
-3.15316e-06
8.89583e-06
-5.74267e-06
9.23853e-06
-3.42699e-07
9.8753e-06
-6.36768e-07
-3.61654e-05
4.60407e-05
7.87858e-05
-0.000114951
-6.77064e-06
3.61749e-06
-1.75918e-05
5.0785e-06
-3.26545e-05
1.472e-05
-5.73593e-05
2.40681e-05
-8.38703e-05
7.25517e-05
9.45877e-05
-9.96723e-05
-6.49642e-06
1.01139e-05
-1.89694e-05
1.75515e-05
-3.37402e-05
2.94908e-05
-5.23397e-05
4.26675e-05
-6.39412e-05
8.41532e-05
9.80356e-05
-6.7389e-05
-8.51663e-06
1.86305e-05
-1.96487e-05
2.86836e-05
-3.03301e-05
4.01722e-05
-3.88375e-05
5.11749e-05
-3.79397e-05
8.32554e-05
8.84836e-05
-2.83878e-05
-2.90448e-06
2.1535e-05
-1.13333e-05
3.71124e-05
-1.79058e-05
4.67447e-05
-2.0272e-05
5.3541e-05
-1.12317e-05
7.42151e-05
7.10845e-05
6.16742e-06
-3.20313e-06
2.47382e-05
-4.01638e-06
3.79257e-05
-3.70881e-06
4.64371e-05
-2.6167e-06
5.24489e-05
6.84575e-06
6.47527e-05
5.81627e-05
1.97675e-05
1.0372e-06
2.3701e-05
-6.47611e-06
4.5439e-05
-6.77331e-06
4.67343e-05
-2.52558e-06
4.82012e-05
1.19159e-05
5.03111e-05
4.61572e-05
2.39214e-05
6.07381e-06
1.76271e-05
1.27881e-05
3.87247e-05
1.77432e-05
4.17792e-05
1.93476e-05
4.65967e-05
2.73157e-05
4.23431e-05
4.34573e-05
3.00156e-05
-4.85116e-05
6.61387e-05
-4.64083e-05
3.66214e-05
-3.91996e-05
3.45706e-05
-2.42085e-05
3.16056e-05
-6.47961e-06
2.46143e-05
2.43953e-05
1.25824e-05
6.61387e-05
0.00010276
0.000137331
0.000168936
0.000193551
0.000217946
-0.00011709
0.000144837
-0.000142697
-7.05526e-05
-1.202e-05
-3.45178e-05
-3.5287e-05
-9.04225e-05
5.51569e-05
-0.000157345
0.000122058
-8.46054e-05
0.00012977
-5.95522e-05
-3.70732e-05
-3.63752e-05
-0.0001136
-0.00019372
-4.33153e-05
0.000105696
-3.33585e-05
-4.703e-05
-2.84916e-05
-0.000118466
-0.000222212
-6.47263e-06
8.37808e-05
-7.9473e-06
-4.55553e-05
-1.32e-05
-0.000113214
-0.000235412
2.31109e-05
6.68373e-05
6.46095e-06
-2.89054e-05
-6.79857e-06
-9.99542e-05
-0.000242211
3.26726e-05
5.39322e-05
1.59817e-05
-1.22145e-05
1.04832e-06
-8.50208e-05
-0.000241162
3.8724e-05
3.91296e-05
1.65083e-05
1.00013e-05
-8.98975e-07
-6.76135e-05
-0.000242061
3.56761e-05
3.34691e-05
1.98413e-05
2.58361e-05
1.55598e-05
-6.3332e-05
-0.000226501
3.34968e-05
1.25547e-05
5.57794e-05
3.55347e-06
5.94958e-05
-6.70484e-05
-0.000167006
0.000230501
0.000234054
0.000167006
-2.05398e-05
2.05398e-05
-3.99346e-05
1.93948e-05
-4.05597e-05
6.25097e-07
-4.05597e-05
-3.00169e-05
5.05567e-05
-4.51536e-05
3.45315e-05
-3.52072e-05
-9.32136e-06
-7.57669e-05
-4.09482e-05
9.15049e-05
-4.53345e-05
3.89179e-05
-2.59928e-05
-2.86631e-05
-0.00010176
-5.11923e-05
-4.67923e-05
-2.02984e-05
)
;

boundaryField
{
    movingWall
    {
        type            calculated;
        value           uniform 0;
    }
    fixedWalls
    {
        type            calculated;
        value           uniform 0;
    }
    frontAndBack
    {
        type            empty;
        value           nonuniform List<scalar> 0();
    }
}


// ************************************************************************* //
