/*--------------------------------*- C++ -*----------------------------------*\
  =========                 |
  \\      /  F ield         | OpenFOAM: The Open Source CFD Toolbox
   \\    /   O peration     | Website:  https://openfoam.org
    \\  /    A nd           | Version:  8
     \\/     M anipulation  |
\*---------------------------------------------------------------------------*/
FoamFile
{
    version     2.0;
    format      ascii;
    class       volVectorField;
    location    "23.5";
    object      U;
}
// * * * * * * * * * * * * * * * * * * * * * * * * * * * * * * * * * * * * * //

dimensions      [0 1 -1 0 0 0 0];

internalField   nonuniform List<vector> 
464
(
(-0.000109929 0.000108571 0)
(-0.000337776 0.000111292 0)
(-0.000564116 0.000106091 0)
(-0.000774418 9.83643e-05 0)
(-0.000967171 8.83883e-05 0)
(-0.0011378 7.6366e-05 0)
(-0.00128055 6.25963e-05 0)
(-0.00140228 4.69106e-05 0)
(-0.00147229 3.00359e-05 0)
(-0.00156173 9.6674e-06 0)
(-0.00151977 -1.02708e-05 0)
(-0.00163941 -1.28671e-05 0)
(-0.000117877 0.000339204 0)
(-0.000361957 0.000347464 0)
(-0.00060422 0.000331186 0)
(-0.000829226 0.00030706 0)
(-0.00103538 0.000276118 0)
(-0.00121781 0.000239352 0)
(-0.0013709 0.000198598 0)
(-0.00150123 0.000154126 0)
(-0.00157935 0.000114605 0)
(-0.00167615 6.19577e-05 0)
(-0.00164287 5.63359e-05 0)
(-0.00177493 -2.06554e-05 0)
(-0.000123428 0.000584974 0)
(-0.000378929 0.000598899 0)
(-0.000632318 0.000570621 0)
(-0.00086722 0.000528697 0)
(-0.00108187 0.000474921 0)
(-0.00127043 0.000410946 0)
(-0.00142767 0.000339409 0)
(-0.00155372 0.000261079 0)
(-0.00163537 0.000185433 0)
(-0.00169463 9.46298e-05 0)
(-0.00167626 5.14647e-05 0)
(-0.00166139 -6.02912e-05 0)
(-0.000131923 0.000842056 0)
(-0.000404866 0.000861795 0)
(-0.000675295 0.000820677 0)
(-0.00092557 0.000759714 0)
(-0.00115393 0.000681575 0)
(-0.00135424 0.000588518 0)
(-0.00152179 0.000483629 0)
(-0.0016563 0.00036861 0)
(-0.00174696 0.000249531 0)
(-0.00181131 0.000120801 0)
(-0.00179883 6.99781e-06 0)
(-0.00178091 -0.000141067 0)
(-0.000143774 0.00112038 0)
(-0.000440956 0.0011461 0)
(-0.000734977 0.00109066 0)
(-0.00100633 0.0010085 0)
(-0.00125307 0.000903616 0)
(-0.00146839 0.00077901 0)
(-0.00164758 0.000638855 0)
(-0.00178782 0.000485883 0)
(-0.00188319 0.000326458 0)
(-0.00193717 0.000157021 0)
(-0.00193815 -7.00455e-07 0)
(-0.00189856 -0.000187533 0)
(-0.000159505 0.0014254 0)
(-0.000488623 0.00145733 0)
(-0.00081365 0.00138571 0)
(-0.00111262 0.00127949 0)
(-0.00138341 0.00114466 0)
(-0.001619 0.000984725 0)
(-0.00181493 0.000805047 0)
(-0.0019687 0.000609008 0)
(-0.00207584 0.000401305 0)
(-0.00213847 0.000182991 0)
(-0.0021434 -3.76449e-05 0)
(-0.00210252 -0.000268967 0)
(-0.00017968 0.00176812 0)
(-0.000549402 0.0018059 0)
(-0.000913762 0.00171512 0)
(-0.00124739 0.00158013 0)
(-0.00154783 0.00141103 0)
(-0.00180801 0.00121119 0)
(-0.0020233 0.000988337 0)
(-0.00219155 0.000746502 0)
(-0.0023092 0.000491293 0)
(-0.00237611 0.00022462 0)
(-0.00239012 -4.65226e-05 0)
(-0.0023516 -0.000327944 0)
(-0.000205887 0.00214646 0)
(-0.000626899 0.00219153 0)
(-0.00104056 0.00207997 0)
(-0.00141673 0.00191294 0)
(-0.00175236 0.00170565 0)
(-0.00204169 0.00146069 0)
(-0.00227961 0.00118971 0)
(-0.00246575 0.000896983 0)
(-0.00259774 0.000588995 0)
(-0.00267628 0.000268561 0)
(-0.00269598 -5.93205e-05 0)
(-0.00265864 -0.000396381 0)
(-0.000237107 0.00261305 0)
(-0.000719709 0.00265766 0)
(-0.0011937 0.00251514 0)
(-0.00162173 0.00229813 0)
(-0.00200007 0.00204138 0)
(-0.00232395 0.0017401 0)
(-0.00258701 0.00141397 0)
(-0.00279227 0.00106453 0)
(-0.00293762 0.000699414 0)
(-0.00302441 0.000319584 0)
(-0.00305505 -7.13062e-05 0)
(-0.00302628 -0.000469709 0)
(-0.000285589 0.0030693 0)
(-0.000850659 0.00312479 0)
(-0.00140167 0.002957 0)
(-0.00189053 0.00269965 0)
(-0.00231034 0.00239682 0)
(-0.00266912 0.00203957 0)
(-0.00295516 0.00165692 0)
(-0.00318032 0.00124839 0)
(-0.00334271 0.000825741 0)
(-0.00344702 0.000393027 0)
(-0.00348529 -4.83038e-05 0)
(-0.00346014 -0.000503666 0)
(-0.000329038 0.00379568 0)
(-0.000981183 0.0038179 0)
(-0.00162051 0.00360307 0)
(-0.00218204 0.00322912 0)
(-0.0026601 0.00285212 0)
(-0.00306396 0.00239486 0)
(-0.00337819 0.00193443 0)
(-0.00362347 0.00145047 0)
(-0.00379295 0.000958077 0)
(-0.0038984 0.000451143 0)
(-0.0039517 -7.03084e-05 0)
(-0.00394399 -0.000602564 0)
(-0.000444542 0.00430661 0)
(-0.00122632 0.00435701 0)
(-0.00199243 0.00410633 0)
(-0.00264171 0.00368713 0)
(-0.00314417 0.00325384 0)
(-0.00358684 0.00272865 0)
(-0.00389936 0.00220684 0)
(-0.00415668 0.00166005 0)
(-0.0043421 0.00111513 0)
(-0.00447551 0.000567317 0)
(-0.0045391 1.38861e-05 0)
(-0.00454129 -0.000559381 0)
(-0.000485732 0.00556582 0)
(-0.00139106 0.00543116 0)
(-0.00229149 0.00512425 0)
(-0.00303563 0.00440536 0)
(-0.00361827 0.00387753 0)
(-0.00411171 0.00315705 0)
(-0.00444681 0.00254139 0)
(-0.00471533 0.00188724 0)
(-0.00488555 0.0012579 0)
(-0.00499948 0.00062514 0)
(-0.00507819 -1.78625e-05 0)
(-0.00510179 -0.000686346 0)
(-0.000849834 0.00605191 0)
(-0.00193963 0.00606735 0)
(-0.00302004 0.00566772 0)
(-0.00388971 0.00492588 0)
(-0.00439011 0.00429843 0)
(-0.00492326 0.00349624 0)
(-0.00516809 0.0028096 0)
(-0.00544024 0.00209403 0)
(-0.00560431 0.00143244 0)
(-0.00575159 0.000784634 0)
(-0.00585088 0.000145026 0)
(-0.00590165 -0.000523603 0)
(-0.00075462 0.00853529 0)
(-0.00207007 0.00766055 0)
(-0.00342857 0.00726007 0)
(-0.00441181 0.00576246 0)
(-0.00504685 0.0050503 0)
(-0.00560388 0.00390496 0)
(-0.00584899 0.00312738 0)
(-0.00609314 0.00227355 0)
(-0.0061946 0.0015423 0)
(-0.00628658 0.000824828 0)
(-0.00638584 0.000118734 0)
(-0.00641129 -0.000639587 0)
(-0.00217132 0.008647 0)
(-0.00364245 0.0087627 0)
(-0.00491127 0.00789326 0)
(-0.00610397 0.00653169 0)
(-0.00623625 0.00548796 0)
(-0.00684721 0.00426113 0)
(-0.00679582 0.00334772 0)
(-0.00702569 0.00245057 0)
(-0.00705294 0.0017043 0)
(-0.00717587 0.00100215 0)
(-0.00731587 0.000359147 0)
(-0.00741288 -0.000339457 0)
(-0.00102759 0.0146843 0)
(-0.00330725 0.0100482 0)
(-0.00563808 0.0100041 0)
(-0.00685224 0.00674587 0)
(-0.00731681 0.00591306 0)
(-0.00775258 0.00423861 0)
(-0.00765957 0.00334179 0)
(-0.00773786 0.00238753 0)
(-0.00764234 0.00166002 0)
(-0.00763119 0.000984039 0)
(-0.00772597 0.000372466 0)
(-0.00766459 -0.000313485 0)
(-0.00601222 0.0125196 0)
(-0.00867166 0.0140685 0)
(-0.00787858 0.0112415 0)
(-0.0101989 0.00869443 0)
(-0.00869931 0.00651245 0)
(-0.00942582 0.00474272 0)
(-0.00863891 0.00350048 0)
(-0.00870082 0.0024836 0)
(-0.00844144 0.00173299 0)
(-0.00844319 0.00109108 0)
(-0.00858653 0.000573634 0)
(-0.00868319 9.35095e-06 0)
(-0.017159 0.0302986 0)
(-0.0124423 0.0106949 0)
(-0.0157438 0.0117095 0)
(-0.013125 0.00671629 0)
(-0.0117994 0.00513891 0)
(-0.010432 0.00373432 0)
(-0.00901665 0.00259963 0)
(-0.00827227 0.0019618 0)
(-0.00751417 0.00137138 0)
(-0.00706076 0.000968838 0)
(-0.00689382 0.000662129 0)
(-0.0064454 0.000380705 0)
(0.0344014 0.0403073 0)
(0.0380467 0.0142731 0)
(0.0571584 0.0113936 0)
(0.0625787 0.00576627 0)
(0.0686719 0.00373023 0)
(0.071795 0.00232677 0)
(0.0743533 0.00148312 0)
(0.0760064 0.00102666 0)
(0.0771834 0.00067436 0)
(0.078075 0.00043665 0)
(0.0784289 0.000187244 0)
(0.0792816 8.04905e-05 0)
(-0.00144272 0.000789001 0)
(-0.000993325 0.000424904 0)
(-0.000860812 8.43016e-05 0)
(-0.000663723 -0.000111979 0)
(-0.000528962 -0.00026931 0)
(-0.000372393 -0.00037376 0)
(-0.000222713 -0.000442108 0)
(-7.15463e-05 -0.000452661 0)
(-0.00155402 0.000133762 0)
(-0.00109838 -5.56221e-05 0)
(-0.000954913 -0.000183873 0)
(-0.000742969 -0.000340007 0)
(-0.000594001 -0.000457292 0)
(-0.000422376 -0.00055427 0)
(-0.000253193 -0.000617258 0)
(-8.18113e-05 -0.000619658 0)
(-0.00152758 4.73673e-05 0)
(-0.0013115 -0.000158833 0)
(-0.00114515 -0.000299868 0)
(-0.000937062 -0.000475756 0)
(-0.000743188 -0.000611597 0)
(-0.000532798 -0.00072384 0)
(-0.000317569 -0.000798002 0)
(-0.000102943 -0.00079755 0)
(-0.00165332 -0.000230027 0)
(-0.0014453 -0.000408474 0)
(-0.00127191 -0.000556479 0)
(-0.00105466 -0.000717736 0)
(-0.000842165 -0.000852399 0)
(-0.000609449 -0.00096334 0)
(-0.000365084 -0.00103915 0)
(-0.000118885 -0.00102925 0)
(-0.00179495 -0.000322291 0)
(-0.00163789 -0.000534652 0)
(-0.00145447 -0.000718896 0)
(-0.00123294 -0.000911337 0)
(-0.000988798 -0.00107512 0)
(-0.000720368 -0.00120999 0)
(-0.000432492 -0.00130232 0)
(-0.000141228 -0.00128882 0)
(-0.00200045 -0.000490724 0)
(-0.00184182 -0.000727915 0)
(-0.00164863 -0.000952453 0)
(-0.00141086 -0.00116817 0)
(-0.00114085 -0.00135592 0)
(-0.000837715 -0.00151129 0)
(-0.000505334 -0.00161779 0)
(-0.000165743 -0.00159829 0)
(-0.00225392 -0.000602632 0)
(-0.00209958 -0.000890012 0)
(-0.00189473 -0.00116499 0)
(-0.00163639 -0.00142917 0)
(-0.00133192 -0.0016595 0)
(-0.00098357 -0.00185322 0)
(-0.000595568 -0.00198444 0)
(-0.00019647 -0.00196343 0)
(-0.00256255 -0.000734034 0)
(-0.00240418 -0.00107462 0)
(-0.0021878 -0.00140316 0)
(-0.00190539 -0.00171925 0)
(-0.00156492 -0.00199406 0)
(-0.00116434 -0.00223367 0)
(-0.000708779 -0.00239213 0)
(-0.000236291 -0.0023712 0)
(-0.00293213 -0.000872768 0)
(-0.00276867 -0.00128292 0)
(-0.0025393 -0.00168346 0)
(-0.0022273 -0.00208086 0)
(-0.00184631 -0.00242598 0)
(-0.00138374 -0.00274646 0)
(-0.000846344 -0.00295128 0)
(-0.000286702 -0.00294472 0)
(-0.00337581 -0.000966109 0)
(-0.00321499 -0.00143998 0)
(-0.00298578 -0.00189942 0)
(-0.00264812 -0.00237792 0)
(-0.00223053 -0.0027694 0)
(-0.00169244 -0.00318491 0)
(-0.00104532 -0.00341548 0)
(-0.000365387 -0.00343917 0)
(-0.00386825 -0.00115123 0)
(-0.00370187 -0.00173098 0)
(-0.00347678 -0.00229749 0)
(-0.00309736 -0.00293546 0)
(-0.00265268 -0.00344405 0)
(-0.00203335 -0.0040534 0)
(-0.00126574 -0.00437226 0)
(-0.000472306 -0.00446975 0)
(-0.00450449 -0.00114421 0)
(-0.00436198 -0.00179114 0)
(-0.00419027 -0.00237113 0)
(-0.00379607 -0.00314638 0)
(-0.00334796 -0.00364626 0)
(-0.00262618 -0.0044773 0)
(-0.00166855 -0.00478149 0)
(-0.000665876 -0.00503011 0)
(-0.00509907 -0.00137728 0)
(-0.00492856 -0.00218648 0)
(-0.00482938 -0.00292556 0)
(-0.00437331 -0.00399882 0)
(-0.00397904 -0.00472349 0)
(-0.00317628 -0.00600234 0)
(-0.00205951 -0.00651837 0)
(-0.000958002 -0.00705466 0)
(-0.00600531 -0.00116506 0)
(-0.00591353 -0.00203466 0)
(-0.00600243 -0.00264232 0)
(-0.00560054 -0.00393535 0)
(-0.00534774 -0.00445108 0)
(-0.00443649 -0.00624531 0)
(-0.00304036 -0.00658341 0)
(-0.0015233 -0.00776223 0)
(-0.00660708 -0.00138979 0)
(-0.00640505 -0.00244846 0)
(-0.00671974 -0.0033009 0)
(-0.0061848 -0.00506497 0)
(-0.00626211 -0.00604244 0)
(-0.00533463 -0.00883913 0)
(-0.00392469 -0.00975421 0)
(-0.00251406 -0.0121274 0)
(-0.0078162 -0.000896015 0)
(-0.00783547 -0.00195873 0)
(-0.00862144 -0.00236232 0)
(-0.00837001 -0.00437549 0)
(-0.00910822 -0.00457353 0)
(-0.00821098 -0.00838724 0)
(-0.00681632 -0.00855746 0)
(-0.00452759 -0.0136715 0)
(-0.00821993 -0.000928263 0)
(-0.00786457 -0.00204674 0)
(-0.0091081 -0.00276156 0)
(-0.00838522 -0.00526343 0)
(-0.0101357 -0.00632803 0)
(-0.00938074 -0.0121263 0)
(-0.00934683 -0.013898 0)
(-0.00813652 -0.024556 0)
(-0.00951217 -0.000297725 0)
(-0.0096382 -0.00125748 0)
(-0.0117935 -0.00109642 0)
(-0.0119174 -0.00351009 0)
(-0.0158237 -0.00237858 0)
(-0.0153837 -0.00906571 0)
(-0.018108 -0.00808795 0)
(-0.0115468 -0.0300852 0)
(-0.00717968 0.000226457 0)
(-0.00603635 -0.000288546 0)
(-0.00839313 -0.00021761 0)
(-0.00534359 -0.00223299 0)
(-0.0103691 -0.00262264 0)
(-0.00357215 -0.0116653 0)
(-0.011456 -0.0181349 0)
(0.00195091 -0.0571248 0)
(0.0782055 -0.000322875 0)
(0.0801816 -0.000428633 0)
(0.076082 -0.00103262 0)
(0.0805716 -0.00200136 0)
(0.0696418 -0.00279424 0)
(0.0772316 -0.0080289 0)
(0.0469174 -0.0109286 0)
(0.0504358 -0.0366202 0)
(-1.06915e-05 -6.09161e-06 0)
(-3.10341e-05 -7.20484e-06 0)
(-4.58301e-05 -8.71348e-06 0)
(-5.2697e-05 -1.08577e-05 0)
(-5.13994e-05 -1.2023e-05 0)
(-4.24222e-05 -1.31994e-05 0)
(-2.74398e-05 -1.38581e-05 0)
(-9.20751e-06 -1.36833e-05 0)
(-1.22317e-05 4.87342e-05 0)
(-3.50341e-05 4.35571e-05 0)
(-5.16343e-05 3.09148e-05 0)
(-5.84794e-05 1.68776e-05 0)
(-5.61524e-05 1.96539e-06 0)
(-4.6258e-05 -1.01972e-05 0)
(-2.97811e-05 -1.9131e-05 0)
(-1.00275e-05 -2.23184e-05 0)
(-1.85112e-05 3.82456e-05 0)
(-5.24914e-05 2.98874e-05 0)
(-7.47216e-05 1.27662e-05 0)
(-8.41532e-05 -7.18177e-06 0)
(-8.09172e-05 -2.55144e-05 0)
(-6.55562e-05 -4.11604e-05 0)
(-4.20551e-05 -5.21526e-05 0)
(-1.40045e-05 -5.51405e-05 0)
(-2.26174e-05 0.000125147 0)
(-6.25907e-05 0.000105025 0)
(-8.87758e-05 6.56605e-05 0)
(-9.68054e-05 2.49544e-05 0)
(-9.01769e-05 -1.49053e-05 0)
(-7.29737e-05 -4.61046e-05 0)
(-4.63481e-05 -6.82007e-05 0)
(-1.55465e-05 -7.52213e-05 0)
(-4.43455e-05 0.000115199 0)
(-0.000117776 8.9228e-05 0)
(-0.000154875 4.17665e-05 0)
(-0.000164711 -7.80319e-06 0)
(-0.000151963 -5.27236e-05 0)
(-0.000118897 -8.91612e-05 0)
(-7.48553e-05 -0.000114525 0)
(-2.46561e-05 -0.000121279 0)
(-5.42495e-05 0.000300613 0)
(-0.00014179 0.000227068 0)
(-0.000185923 0.000118612 0)
(-0.000191321 2.53389e-05 0)
(-0.000171564 -5.70591e-05 0)
(-0.000134889 -0.000116993 0)
(-8.42449e-05 -0.000157443 0)
(-2.79789e-05 -0.00016858 0)
(-0.000132092 0.000292889 0)
(-0.00031399 0.000206548 0)
(-0.000356772 8.12555e-05 0)
(-0.000340314 -2.35894e-05 0)
(-0.000294235 -0.000116123 0)
(-0.000219359 -0.000183922 0)
(-0.000134526 -0.000230089 0)
(-4.37673e-05 -0.000240628 0)
(-0.000169787 0.000778565 0)
(-0.000368289 0.000474126 0)
(-0.000416585 0.000151486 0)
(-0.000388812 -3.0306e-05 0)
(-0.000332 -0.000172541 0)
(-0.000249106 -0.00026525 0)
(-0.000152517 -0.000325436 0)
(-4.98744e-05 -0.000337386 0)
)
;

boundaryField
{
    movingWall
    {
        type            fixedValue;
        value           uniform (1 0 0);
    }
    fixedWalls
    {
        type            noSlip;
    }
    frontAndBack
    {
        type            empty;
    }
}


// ************************************************************************* //
