/*--------------------------------*- C++ -*----------------------------------*\
  =========                 |
  \\      /  F ield         | OpenFOAM: The Open Source CFD Toolbox
   \\    /   O peration     | Website:  https://openfoam.org
    \\  /    A nd           | Version:  8
     \\/     M anipulation  |
\*---------------------------------------------------------------------------*/
FoamFile
{
    version     2.0;
    format      ascii;
    class       volScalarField;
    location    "12.5";
    object      p;
}
// * * * * * * * * * * * * * * * * * * * * * * * * * * * * * * * * * * * * * //

dimensions      [0 2 -2 0 0 0 0];

internalField   nonuniform List<scalar> 
464
(
-1.21842e-08
4.88098e-06
1.50348e-05
3.00411e-05
4.95945e-05
7.32071e-05
0.000100384
0.000130337
0.00016301
0.000195883
0.00023287
0.000263271
-4.86411e-06
1.39697e-07
1.05195e-05
2.58565e-05
4.58361e-05
6.99618e-05
9.7729e-05
0.000128372
0.000161782
0.000195565
0.000233552
0.00026527
-1.52232e-05
-9.9839e-06
8.79748e-07
1.69232e-05
3.78058e-05
6.29976e-05
9.1913e-05
0.000123779
0.00015805
0.00019337
0.00023026
0.000264525
-3.11362e-05
-2.5531e-05
-1.39167e-05
3.2258e-06
2.55199e-05
5.23968e-05
8.32288e-05
0.000117237
0.000153825
0.000191681
0.000231158
0.000268245
-5.306e-05
-4.69431e-05
-3.42839e-05
-1.56129e-05
8.6338e-06
3.78258e-05
7.12471e-05
0.000108067
0.00014744
0.000188275
0.000229941
0.000270739
-8.15224e-05
-7.4725e-05
-6.06883e-05
-3.99996e-05
-1.31855e-05
1.90537e-05
5.59077e-05
9.64832e-05
0.000139871
0.00018498
0.00023103
0.000276258
-0.000117243
-0.000109566
-9.37739e-05
-7.05049e-05
-4.04394e-05
-4.35464e-06
3.67977e-05
8.20338e-05
0.000130317
0.000180508
0.000231579
0.000282276
-0.000161209
-0.00015239
-0.000134384
-0.00010784
-7.37256e-05
-3.2867e-05
1.35797e-05
6.45406e-05
0.000118857
0.000175349
0.000232876
0.000290104
-0.000214349
-0.000204127
-0.000183409
-0.000152793
-0.000113743
-6.7052e-05
-1.42134e-05
4.36153e-05
0.000105122
0.000169057
0.000234186
0.000299216
-0.000279088
-0.000266824
-0.000242666
-0.000206646
-0.000161474
-0.00010759
-4.70871e-05
1.88991e-05
8.88663e-05
0.000161514
0.000235546
0.000309654
-0.000352385
-0.000338357
-0.000310681
-0.000269003
-0.000217154
-0.000154943
-8.55182e-05
-9.98732e-06
6.97837e-05
0.000152455
0.000236699
0.000321264
-0.000453624
-0.000433744
-0.000400337
-0.000346942
-0.000285106
-0.000210894
-0.000130316
-4.34396e-05
4.7594e-05
0.000141656
0.000237575
0.000334049
-0.000546129
-0.000524981
-0.00048734
-0.000426734
-0.000356942
-0.000271797
-0.000180164
-8.1154e-05
2.21972e-05
0.000128741
0.000236887
0.000346015
-0.000713205
-0.000673262
-0.000628321
-0.000539576
-0.000456227
-0.000348487
-0.000240854
-0.000125259
-6.93808e-06
0.000114184
0.000237703
0.00036245
-0.000821919
-0.000786937
-0.000733726
-0.000638007
-0.000542974
-0.000421383
-0.00030075
-0.000170593
-3.86019e-05
9.57394e-05
0.000231193
0.00036829
-0.00111816
-0.00101334
-0.000956187
-0.000792234
-0.000680869
-0.00051789
-0.00037787
-0.000223846
-7.37713e-05
7.85486e-05
0.000232767
0.000389201
-0.00123514
-0.00116922
-0.00108386
-0.000919084
-0.000782469
-0.000602917
-0.000444675
-0.000274094
-0.00010997
5.39093e-05
0.000217058
0.000382528
-0.00183873
-0.00147938
-0.00141755
-0.0010972
-0.000945957
-0.000704571
-0.000524861
-0.000326935
-0.000145046
3.69931e-05
0.000218216
0.000403127
-0.00198094
-0.00178467
-0.00159695
-0.00129431
-0.00106663
-0.000802668
-0.000592165
-0.000376934
-0.000181898
9.09368e-06
0.000195027
0.000382308
-0.00361306
-0.00200451
-0.00196123
-0.0013903
-0.00116895
-0.000858663
-0.000629885
-0.000406636
-0.000199379
-9.36917e-07
0.000193219
0.000389445
0.000306099
0.00032661
0.000348785
0.000363874
0.000377187
0.000386657
0.000393143
0.000396218
0.000309961
0.000332307
0.000356299
0.000372991
0.000387536
0.000398099
0.000405285
0.000408715
0.000300846
0.000329529
0.000356694
0.000378472
0.000396627
0.000410217
0.00041937
0.000423726
0.000307224
0.000338843
0.00036857
0.000392943
0.000413219
0.000428571
0.000438947
0.000443981
0.000310704
0.000347134
0.000380389
0.000409009
0.000432785
0.000450976
0.000463304
0.000469271
0.000320562
0.000361378
0.000398775
0.00043132
0.00045854
0.000479628
0.000493977
0.000500966
0.000331626
0.00037808
0.000420761
0.000458418
0.000490064
0.000514761
0.000531616
0.000539888
0.00034596
0.000398953
0.000447952
0.000491606
0.000528519
0.000557653
0.00057757
0.000587463
0.000362868
0.000423715
0.000480318
0.000531278
0.000574603
0.000609308
0.000632987
0.000644941
0.000382501
0.00045264
0.00051837
0.000578397
0.000629685
0.000671909
0.000700423
0.000715547
0.000404752
0.000485699
0.000561884
0.000632311
0.000692203
0.000742927
0.000776443
0.000795215
0.000430009
0.000524325
0.000614363
0.000700808
0.000774055
0.000841621
0.000883668
0.000911126
0.000454592
0.000561719
0.000663573
0.000764113
0.000845512
0.00092796
0.000974194
0.00101058
0.000488207
0.000615961
0.000737873
0.000869703
0.000972112
0.00109399
0.00115643
0.00121821
0.000505933
0.000647428
0.000776506
0.000928287
0.00103122
0.00118247
0.00124149
0.00133111
0.000547717
0.000720051
0.000876771
0.00108516
0.00122464
0.00146545
0.00156278
0.00173557
0.000546353
0.000730733
0.00087882
0.00111365
0.00122245
0.00152283
0.00158102
0.00185011
0.000588741
0.000808013
0.000993644
0.00131149
0.00148724
0.00197714
0.00213934
0.00272465
0.000561983
0.000785845
0.000929701
0.00127338
0.00132559
0.00191423
0.00186983
0.00273296
0.000586162
0.000820871
0.00100823
0.00141301
0.00157894
0.00246474
0.00274089
0.00502552
0.000363472
0.000363947
0.000364856
0.000365994
0.000367208
0.000368289
0.000369104
0.000369513
0.000363932
0.000364439
0.000365389
0.000366597
0.000367832
0.000368941
0.000369763
0.000370178
0.000361115
0.000361909
0.000363381
0.000365133
0.000367011
0.000368627
0.00036984
0.000370444
0.000362451
0.000363374
0.000365022
0.000367047
0.000369023
0.000370771
0.000372038
0.000372675
0.000355306
0.00035722
0.000360419
0.000363923
0.000367536
0.000370499
0.000372672
0.000373743
0.000357635
0.000359828
0.000363443
0.000367516
0.000371347
0.000374609
0.000376927
0.000378078
0.000341552
0.000347258
0.00035521
0.0003627
0.000369877
0.000375408
0.000379324
0.000381216
0.000345102
0.000351296
0.000360159
0.000368548
0.00037629
0.000382391
0.000386653
0.000388728
)
;

boundaryField
{
    movingWall
    {
        type            zeroGradient;
    }
    fixedWalls
    {
        type            zeroGradient;
    }
    frontAndBack
    {
        type            empty;
    }
}


// ************************************************************************* //
