/*--------------------------------*- C++ -*----------------------------------*\
  =========                 |
  \\      /  F ield         | OpenFOAM: The Open Source CFD Toolbox
   \\    /   O peration     | Website:  https://openfoam.org
    \\  /    A nd           | Version:  8
     \\/     M anipulation  |
\*---------------------------------------------------------------------------*/
FoamFile
{
    version     2.0;
    format      ascii;
    class       volVectorField;
    location    "12.5";
    object      U;
}
// * * * * * * * * * * * * * * * * * * * * * * * * * * * * * * * * * * * * * //

dimensions      [0 1 -1 0 0 0 0];

internalField   nonuniform List<vector> 
464
(
(-6.44389e-05 6.35794e-05 0)
(-0.000194262 6.35979e-05 0)
(-0.00032107 6.04229e-05 0)
(-0.000439384 5.57867e-05 0)
(-0.000547008 4.98663e-05 0)
(-0.000641518 4.28535e-05 0)
(-0.000720442 3.49733e-05 0)
(-0.0007849 2.61998e-05 0)
(-0.000825565 1.7006e-05 0)
(-0.000869548 6.17383e-06 0)
(-0.000848073 -3.60199e-06 0)
(-0.00091288 -1.15609e-05 0)
(-6.76653e-05 0.000195404 0)
(-0.000203943 0.000195407 0)
(-0.000336967 0.000185609 0)
(-0.000460976 0.000171319 0)
(-0.000573666 0.00015312 0)
(-0.000672491 0.000131692 0)
(-0.000755146 0.000107951 0)
(-0.000822498 8.25986e-05 0)
(-0.000866281 5.87145e-05 0)
(-0.000911915 3.16131e-05 0)
(-0.000894059 2.56612e-05 0)
(-0.000960215 -1.36282e-05 0)
(-7.10065e-05 0.00033415 0)
(-0.000213961 0.000334038 0)
(-0.00035334 0.000317127 0)
(-0.000483004 0.000292477 0)
(-0.000600478 0.000261098 0)
(-0.000702905 0.000224137 0)
(-0.000787739 0.000182989 0)
(-0.000853932 0.000138835 0)
(-0.000897413 9.49157e-05 0)
(-0.000924469 4.73679e-05 0)
(-0.000914881 2.01139e-05 0)
(-0.000901689 -3.80464e-05 0)
(-7.61803e-05 0.000480568 0)
(-0.000229464 0.000480207 0)
(-0.000378666 0.000455547 0)
(-0.000517102 0.000419644 0)
(-0.000642125 0.000374011 0)
(-0.000750741 0.000320266 0)
(-0.000840604 0.0002602 0)
(-0.00091074 0.000195256 0)
(-0.000957927 0.000127894 0)
(-0.000986901 5.77159e-05 0)
(-0.000979637 -7.212e-06 0)
(-0.000964026 -8.34722e-05 0)
(-8.34248e-05 0.000639477 0)
(-0.000251135 0.000638625 0)
(-0.000413999 0.000605201 0)
(-0.000564541 0.000556643 0)
(-0.000699856 0.000495163 0)
(-0.000816716 0.000422962 0)
(-0.00091275 0.000342448 0)
(-0.000986239 0.000255735 0)
(-0.00103495 0.000165669 0)
(-0.00105957 7.2641e-05 0)
(-0.00105607 -1.60803e-05 0)
(-0.00102929 -0.000113953 0)
(-9.30696e-05 0.000814957 0)
(-0.000279902 0.000813226 0)
(-0.000460774 0.000769617 0)
(-0.00062714 0.000706429 0)
(-0.000775807 0.000626919 0)
(-0.000903456 0.000533918 0)
(-0.00100783 0.000430535 0)
(-0.00108752 0.000319361 0)
(-0.00114102 0.00020286 0)
(-0.00116865 8.2354e-05 0)
(-0.00116623 -3.88337e-05 0)
(-0.00113795 -0.000162602 0)
(-0.000105593 0.00101235 0)
(-0.000317069 0.00100904 0)
(-0.000520956 0.000953224 0)
(-0.00070724 0.000872586 0)
(-0.000872367 0.000772177 0)
(-0.0010131 0.000655484 0)
(-0.00112731 0.000526691 0)
(-0.00121391 0.000388977 0)
(-0.00127196 0.000245308 0)
(-0.00130127 9.76249e-05 0)
(-0.00130103 -5.10538e-05 0)
(-0.00127192 -0.000202404 0)
(-0.000121776 0.00123723 0)
(-0.000364613 0.00123128 0)
(-0.000597419 0.00116064 0)
(-0.000808188 0.00105866 0)
(-0.000992909 0.000933612 0)
(-0.00114894 0.000789407 0)
(-0.00127434 0.000631864 0)
(-0.0013689 0.000464631 0)
(-0.00143238 0.000290966 0)
(-0.00146501 0.000112988 0)
(-0.00146626 -6.72453e-05 0)
(-0.0014366 -0.000248659 0)
(-0.00014259 0.00150026 0)
(-0.000424938 0.00148864 0)
(-0.000693807 0.001399 0)
(-0.000934265 0.00126909 0)
(-0.00114162 0.00111417 0)
(-0.00131485 0.000937327 0)
(-0.00145208 0.000747064 0)
(-0.00155481 0.00054718 0)
(-0.0016236 0.000341309 0)
(-0.00165948 0.000131512 0)
(-0.00166268 -8.056e-05 0)
(-0.00163315 -0.000294288 0)
(-0.000171028 0.0017964 0)
(-0.000503779 0.00177858 0)
(-0.000817239 0.0016676 0)
(-0.00109302 0.0015045 0)
(-0.00132467 0.00131493 0)
(-0.00151605 0.00109964 0)
(-0.00166449 0.000872236 0)
(-0.00177466 0.000636251 0)
(-0.00184804 0.000395774 0)
(-0.00188688 0.000152354 0)
(-0.00189207 -9.31525e-05 0)
(-0.00186346 -0.000340673 0)
(-0.000205654 0.00219792 0)
(-0.000599303 0.00215186 0)
(-0.000968191 0.00200564 0)
(-0.00128695 0.00178189 0)
(-0.00154647 0.0015438 0)
(-0.00175755 0.00127757 0)
(-0.00191547 0.00100654 0)
(-0.00203127 0.000730473 0)
(-0.0021075 0.000453468 0)
(-0.0021484 0.000175543 0)
(-0.0021557 -0.000103997 0)
(-0.00212937 -0.000386355 0)
(-0.000272 0.00255568 0)
(-0.000751336 0.00249851 0)
(-0.00118755 0.00232618 0)
(-0.00155489 0.00205372 0)
(-0.00182895 0.00177383 0)
(-0.00205332 0.00145766 0)
(-0.00221157 0.00114322 0)
(-0.00232773 0.000826071 0)
(-0.00240297 0.000512302 0)
(-0.00244435 0.000200513 0)
(-0.00245396 -0.000111416 0)
(-0.0024321 -0.000427385 0)
(-0.000327575 0.00330373 0)
(-0.000894103 0.0031192 0)
(-0.00141328 0.002888 0)
(-0.00183948 0.00244533 0)
(-0.00214251 0.00208904 0)
(-0.00238823 0.00167077 0)
(-0.00254707 0.00129305 0)
(-0.0026622 0.000924108 0)
(-0.00273306 0.000570755 0)
(-0.00277212 0.000225698 0)
(-0.0027836 -0.00011892 0)
(-0.00276768 -0.000469552 0)
(-0.000538975 0.00366706 0)
(-0.00125002 0.00347532 0)
(-0.00186159 0.00320586 0)
(-0.00235403 0.00269821 0)
(-0.00260314 0.00229679 0)
(-0.0028493 0.00182029 0)
(-0.00295812 0.00140426 0)
(-0.00305001 0.000999534 0)
(-0.00310137 0.000619028 0)
(-0.00313402 0.000251794 0)
(-0.00314922 -0.00011006 0)
(-0.00314788 -0.000478856 0)
(-0.000611394 0.00528125 0)
(-0.00145008 0.0045303 0)
(-0.0021899 0.0041734 0)
(-0.00275002 0.00320805 0)
(-0.00302031 0.00270348 0)
(-0.00328127 0.00202862 0)
(-0.00336789 0.00154461 0)
(-0.00344754 0.00107465 0)
(-0.00348082 0.000660128 0)
(-0.00350121 0.00026977 0)
(-0.00351422 -0.000113649 0)
(-0.00352139 -0.000507689 0)
(-0.00142368 0.00549825 0)
(-0.00249242 0.00485028 0)
(-0.00318171 0.00439075 0)
(-0.0038247 0.00337115 0)
(-0.00378041 0.00279647 0)
(-0.00400811 0.00207307 0)
(-0.00391151 0.00156548 0)
(-0.0039344 0.00108149 0)
(-0.00390618 0.000668424 0)
(-0.00390781 0.000288072 0)
(-0.00392673 -7.68882e-05 0)
(-0.0039652 -0.000452066 0)
(-0.00137918 0.00961428 0)
(-0.00271849 0.00637275 0)
(-0.00366436 0.00586338 0)
(-0.00435293 0.00377627 0)
(-0.00431858 0.00310381 0)
(-0.00451408 0.00212114 0)
(-0.00435969 0.0015716 0)
(-0.00434489 0.00105174 0)
(-0.00427428 0.000646197 0)
(-0.00424649 0.000279915 0)
(-0.00425426 -6.71209e-05 0)
(-0.00429427 -0.000428136 0)
(-0.00481121 0.00910802 0)
(-0.00648164 0.00684103 0)
(-0.00574088 0.00586751 0)
(-0.00658556 0.00380955 0)
(-0.00542521 0.00295558 0)
(-0.00553835 0.00197715 0)
(-0.00497694 0.00142146 0)
(-0.00485642 0.000938614 0)
(-0.00467398 0.000581788 0)
(-0.00461663 0.000273476 0)
(-0.00462975 -8.201e-06 0)
(-0.00471529 -0.000297613 0)
(-0.00715407 0.0219435 0)
(-0.00744877 0.00702333 0)
(-0.00727113 0.00660313 0)
(-0.00722094 0.00315748 0)
(-0.0059286 0.00235569 0)
(-0.00567986 0.00151979 0)
(-0.00494351 0.00100216 0)
(-0.00467835 0.00068206 0)
(-0.00439359 0.000417159 0)
(-0.00426 0.000213936 0)
(-0.00422121 3.32231e-05 0)
(-0.00425447 -0.000150554 0)
(0.0234184 0.0224577 0)
(0.0226624 0.0066367 0)
(0.0355576 0.00553114 0)
(0.036314 0.0022991 0)
(0.0400723 0.00150586 0)
(0.0408805 0.000870553 0)
(0.042048 0.000510924 0)
(0.0426023 0.000332519 0)
(0.0429962 0.000194748 0)
(0.0432228 0.000101322 0)
(0.0433071 1.65288e-05 0)
(0.0432812 -6.63018e-05 0)
(-0.000792391 0.000427301 0)
(-0.000541402 0.000223446 0)
(-0.000465827 4.35083e-05 0)
(-0.000359869 -6.37145e-05 0)
(-0.0002844 -0.000146837 0)
(-0.000200913 -0.000203336 0)
(-0.000120202 -0.000239836 0)
(-3.95271e-05 -0.000251125 0)
(-0.000838984 6.56708e-05 0)
(-0.000595053 -3.46182e-05 0)
(-0.000513745 -0.000102738 0)
(-0.00040249 -0.000184726 0)
(-0.000319875 -0.000247276 0)
(-0.000229169 -0.000297807 0)
(-0.000138046 -0.000331424 0)
(-4.56786e-05 -0.000339714 0)
(-0.00082675 1.65953e-05 0)
(-0.000709922 -9.15108e-05 0)
(-0.00061593 -0.00016841 0)
(-0.000504392 -0.000260333 0)
(-0.000397474 -0.000333144 0)
(-0.000285128 -0.000391549 0)
(-0.000170661 -0.000431163 0)
(-5.62977e-05 -0.000439963 0)
(-0.000892552 -0.000134796 0)
(-0.000780007 -0.00022593 0)
(-0.000682581 -0.000305863 0)
(-0.000567219 -0.00038846 0)
(-0.000451102 -0.000459285 0)
(-0.000327288 -0.000516814 0)
(-0.000197569 -0.000556998 0)
(-6.54895e-05 -0.000563397 0)
(-0.000969203 -0.000190005 0)
(-0.000880977 -0.000299022 0)
(-0.000778466 -0.000398232 0)
(-0.000657808 -0.000496796 0)
(-0.000525828 -0.000582279 0)
(-0.000382963 -0.000650977 0)
(-0.000231434 -0.000698388 0)
(-7.67642e-05 -0.000704753 0)
(-0.00107763 -0.000281473 0)
(-0.000988224 -0.000405196 0)
(-0.000880359 -0.000522802 0)
(-0.000751266 -0.000633619 0)
(-0.000605286 -0.000730643 0)
(-0.000443553 -0.000809322 0)
(-0.000269099 -0.000864246 0)
(-8.94517e-05 -0.000870622 0)
(-0.0012118 -0.000349698 0)
(-0.0011223 -0.000499814 0)
(-0.00100689 -0.000643001 0)
(-0.000865648 -0.000776797 0)
(-0.000701532 -0.000893695 0)
(-0.000516761 -0.000989058 0)
(-0.000314652 -0.00105565 0)
(-0.000104863 -0.00106363 0)
(-0.00137504 -0.000428477 0)
(-0.00128153 -0.000606781 0)
(-0.00115734 -0.000778036 0)
(-0.00100196 -0.000938363 0)
(-0.000817549 -0.0010796 0)
(-0.00060575 -0.00119677 0)
(-0.000370439 -0.00127852 0)
(-0.000123957 -0.00128982 0)
(-0.00156992 -0.00050742 0)
(-0.00147186 -0.000718881 0)
(-0.00133847 -0.000923816 0)
(-0.00116721 -0.00111819 0)
(-0.000959938 -0.00129094 0)
(-0.000715986 -0.00143887 0)
(-0.000440161 -0.00154132 0)
(-0.00014832 -0.00156038 0)
(-0.00179963 -0.000589366 0)
(-0.00169792 -0.000838024 0)
(-0.00155665 -0.00108165 0)
(-0.00136908 -0.001317 0)
(-0.00113823 -0.00152682 0)
(-0.0008565 -0.00171316 0)
(-0.000531143 -0.00183959 0)
(-0.000181855 -0.00186937 0)
(-0.00206727 -0.000672638 0)
(-0.00196414 -0.000963428 0)
(-0.00181743 -0.00125429 0)
(-0.00161238 -0.00154723 0)
(-0.00135609 -0.00181166 0)
(-0.00102922 -0.0020698 0)
(-0.000643544 -0.0022367 0)
(-0.000224831 -0.00230166 0)
(-0.00237671 -0.000749742 0)
(-0.00227959 -0.00108075 0)
(-0.00214044 -0.00141408 0)
(-0.00192651 -0.00176134 0)
(-0.00166077 -0.00206623 0)
(-0.00128217 -0.00239239 0)
(-0.00082035 -0.00258444 0)
(-0.000303612 -0.00268462 0)
(-0.00272061 -0.000834668 0)
(-0.00262846 -0.00122378 0)
(-0.00249791 -0.00162756 0)
(-0.00226457 -0.00209426 0)
(-0.00198686 -0.00248941 0)
(-0.00154831 -0.00301299 0)
(-0.0010039 -0.00328381 0)
(-0.000392619 -0.00352895 0)
(-0.00313098 -0.000863826 0)
(-0.00307265 -0.00128135 0)
(-0.00301094 -0.00170515 0)
(-0.00278888 -0.00223881 0)
(-0.00257925 -0.00264707 0)
(-0.00207807 -0.00330018 0)
(-0.00142304 -0.0035758 0)
(-0.000634954 -0.00394831 0)
(-0.00352295 -0.000930827 0)
(-0.00346968 -0.00142516 0)
(-0.00345462 -0.00193169 0)
(-0.00320665 -0.00269379 0)
(-0.00304599 -0.0032535 0)
(-0.00247958 -0.00441153 0)
(-0.0017508 -0.00486591 0)
(-0.000866034 -0.00583195 0)
(-0.00404864 -0.000849952 0)
(-0.00407437 -0.00133677 0)
(-0.0042798 -0.00179489 0)
(-0.00411359 -0.00261231 0)
(-0.00429592 -0.00308359 0)
(-0.00369654 -0.00447036 0)
(-0.0029827 -0.00482414 0)
(-0.00174629 -0.00628335 0)
(-0.0044071 -0.000822665 0)
(-0.00441409 -0.00135366 0)
(-0.00472744 -0.00188731 0)
(-0.00449477 -0.00299549 0)
(-0.00489089 -0.00371428 0)
(-0.00422902 -0.00622072 0)
(-0.00368551 -0.00703571 0)
(-0.00250614 -0.0111203 0)
(-0.00496806 -0.000602037 0)
(-0.00513375 -0.00104987 0)
(-0.00591411 -0.00141556 0)
(-0.00594106 -0.00247016 0)
(-0.00750558 -0.00281801 0)
(-0.00702133 -0.00553543 0)
(-0.00804473 -0.00577957 0)
(-0.00590807 -0.0118682 0)
(-0.00448877 -0.000364374 0)
(-0.00450756 -0.000635322 0)
(-0.00534971 -0.000992066 0)
(-0.0049312 -0.00189898 0)
(-0.00681049 -0.00254554 0)
(-0.00528863 -0.00661829 0)
(-0.00741743 -0.00831116 0)
(-0.00381362 -0.0265327 0)
(0.0430204 -0.000194574 0)
(0.0429467 -0.000318405 0)
(0.0415863 -0.00061714 0)
(0.0420216 -0.00121905 0)
(0.0373794 -0.00171149 0)
(0.0389436 -0.00498375 0)
(0.0239168 -0.00588674 0)
(0.0262898 -0.0216016 0)
(-6.13234e-06 -8.18678e-07 0)
(-1.73783e-05 -1.48849e-06 0)
(-2.54793e-05 -2.50153e-06 0)
(-2.92942e-05 -3.92494e-06 0)
(-2.85621e-05 -4.73978e-06 0)
(-2.36253e-05 -5.53773e-06 0)
(-1.53783e-05 -6.03257e-06 0)
(-5.25429e-06 -6.17786e-06 0)
(-6.98926e-06 2.50596e-05 0)
(-1.95285e-05 2.15511e-05 0)
(-2.8551e-05 1.48391e-05 0)
(-3.22622e-05 7.25154e-06 0)
(-3.08862e-05 -7.45603e-07 0)
(-2.55076e-05 -7.34292e-06 0)
(-1.65425e-05 -1.21334e-05 0)
(-5.67058e-06 -1.41569e-05 0)
(-1.03743e-05 2.37742e-05 0)
(-2.86186e-05 1.84066e-05 0)
(-4.04229e-05 8.99344e-06 0)
(-4.56142e-05 -2.22834e-06 0)
(-4.38731e-05 -1.22522e-05 0)
(-3.5609e-05 -2.09433e-05 0)
(-2.29562e-05 -2.70368e-05 0)
(-7.78472e-06 -2.94565e-05 0)
(-1.30134e-05 6.79242e-05 0)
(-3.49742e-05 5.50305e-05 0)
(-4.91975e-05 3.40258e-05 0)
(-5.35147e-05 1.18491e-05 0)
(-4.96081e-05 -9.56417e-06 0)
(-4.0304e-05 -2.64937e-05 0)
(-2.57904e-05 -3.83637e-05 0)
(-8.81651e-06 -4.31631e-05 0)
(-2.49135e-05 6.61244e-05 0)
(-6.41759e-05 4.97593e-05 0)
(-8.36169e-05 2.41656e-05 0)
(-8.92031e-05 -3.34853e-06 0)
(-8.22139e-05 -2.75052e-05 0)
(-6.4416e-05 -4.75173e-05 0)
(-4.07304e-05 -6.13557e-05 0)
(-1.36805e-05 -6.66944e-05 0)
(-3.11047e-05 0.000166629 0)
(-7.86777e-05 0.000121438 0)
(-0.000102324 6.34893e-05 0)
(-0.000105189 1.23367e-05 0)
(-9.3781e-05 -3.17794e-05 0)
(-7.41719e-05 -6.42749e-05 0)
(-4.66483e-05 -8.59428e-05 0)
(-1.58206e-05 -9.41608e-05 0)
(-7.42689e-05 0.000162989 0)
(-0.000171475 0.000110674 0)
(-0.000192744 4.41222e-05 0)
(-0.000184462 -1.32461e-05 0)
(-0.000158816 -6.27297e-05 0)
(-0.000118592 -9.96692e-05 0)
(-7.29974e-05 -0.000124618 0)
(-2.42621e-05 -0.000133529 0)
(-9.2901e-05 0.000435806 0)
(-0.000201865 0.000255103 0)
(-0.000226326 8.22391e-05 0)
(-0.00021206 -1.80398e-05 0)
(-0.000180219 -9.32633e-05 0)
(-0.000136099 -0.000143658 0)
(-8.38917e-05 -0.000175562 0)
(-2.80829e-05 -0.000186177 0)
)
;

boundaryField
{
    movingWall
    {
        type            fixedValue;
        value           uniform (1 0 0);
    }
    fixedWalls
    {
        type            noSlip;
    }
    frontAndBack
    {
        type            empty;
    }
}


// ************************************************************************* //
