/*--------------------------------*- C++ -*----------------------------------*\
  =========                 |
  \\      /  F ield         | OpenFOAM: The Open Source CFD Toolbox
   \\    /   O peration     | Website:  https://openfoam.org
    \\  /    A nd           | Version:  8
     \\/     M anipulation  |
\*---------------------------------------------------------------------------*/
FoamFile
{
    version     2.0;
    format      ascii;
    class       surfaceScalarField;
    location    "1.89";
    object      phi;
}
// * * * * * * * * * * * * * * * * * * * * * * * * * * * * * * * * * * * * * //

dimensions      [0 3 -1 0 0 0 0];

internalField   nonuniform List<scalar> 
760
(
1.2497e-06
-5.17182e-22
1.2497e-06
-6.34288e-22
1.2497e-06
-7.65518e-22
1.2497e-06
-3.52697e-22
1.2497e-06
-3.64877e-22
1.2497e-06
-2.19286e-22
1.2497e-06
2.05662e-22
1.2497e-06
7.59681e-23
1.2497e-06
1.2713e-22
1.2497e-06
1.83258e-22
1.2497e-06
2.22421e-22
1.2497e-06
1.12032e-22
1.2497e-06
1.38886e-22
1.2497e-06
2.5926e-22
1.2497e-06
1.60046e-23
1.2497e-06
-3.38827e-25
1.2497e-06
3.98264e-22
1.2497e-06
2.42637e-22
1.2497e-06
-4.55186e-22
-1.20155e-22
3.74911e-06
-8.95015e-22
3.74911e-06
-1.01819e-21
3.74911e-06
-1.47604e-21
3.74911e-06
-7.91653e-22
3.74911e-06
-1.07061e-21
3.74911e-06
-1.25945e-21
3.74911e-06
-1.25047e-22
3.74911e-06
3.44534e-22
3.74911e-06
5.58311e-22
3.74911e-06
7.30262e-22
3.74911e-06
4.97108e-22
3.74911e-06
-2.56095e-22
3.74911e-06
-4.50815e-22
3.74911e-06
3.22577e-22
3.74911e-06
3.96442e-22
3.74911e-06
-2.44148e-23
3.74911e-06
8.767e-22
3.74911e-06
1.09842e-21
3.74911e-06
8.40606e-22
-2.66746e-22
6.24855e-06
1.02102e-22
6.24855e-06
-1.52234e-21
6.24855e-06
-1.29926e-21
6.24855e-06
-1.12602e-21
6.24855e-06
-1.10323e-21
6.24855e-06
-1.13944e-21
6.24855e-06
-1.18414e-21
6.24855e-06
-7.04415e-22
6.24855e-06
-2.11229e-22
6.24855e-06
1.93772e-24
6.24855e-06
1.36272e-22
6.24855e-06
-7.03475e-22
6.24855e-06
-7.1939e-22
6.24855e-06
-2.55649e-22
6.24855e-06
3.89524e-22
6.24855e-06
1.1707e-21
6.24855e-06
1.90419e-21
6.24855e-06
2.66547e-21
6.24855e-06
2.82335e-21
1.64202e-21
8.74802e-06
1.39952e-21
8.74802e-06
2.10572e-22
8.74802e-06
8.86213e-23
8.74802e-06
-6.84014e-22
8.74802e-06
-2.16382e-21
8.74802e-06
-1.05846e-21
8.74802e-06
-1.434e-21
8.74802e-06
-1.50652e-21
8.74802e-06
-9.59356e-22
8.74802e-06
-1.99139e-21
8.74802e-06
-2.87904e-21
8.74802e-06
-1.94533e-21
8.74802e-06
-1.85237e-21
8.74802e-06
-1.47531e-21
8.74802e-06
-5.71019e-22
8.74802e-06
1.0902e-21
8.74802e-06
3.70983e-21
8.74802e-06
6.06334e-21
8.74802e-06
4.46207e-21
2.34027e-21
1.12475e-05
3.33079e-21
1.12475e-05
9.02058e-22
1.12475e-05
1.52676e-22
1.12475e-05
-1.10871e-21
1.12475e-05
-1.7567e-21
1.12475e-05
-2.43471e-21
1.12475e-05
-1.6267e-21
1.12475e-05
-2.28331e-21
1.12475e-05
-2.72773e-21
1.12475e-05
-4.45793e-21
1.12475e-05
-4.27583e-21
1.12475e-05
-4.40329e-21
1.12475e-05
-2.18007e-21
1.12475e-05
-7.90596e-22
1.12475e-05
1.20362e-21
1.12475e-05
3.78155e-21
1.12475e-05
5.44688e-21
1.12475e-05
4.88189e-21
1.12475e-05
6.50734e-21
6.28568e-21
1.37471e-05
2.95194e-21
1.37471e-05
2.71338e-21
1.37471e-05
1.64581e-21
1.37471e-05
-3.99267e-24
1.37471e-05
-2.51312e-21
1.37471e-05
-2.90839e-21
1.37471e-05
-3.41878e-21
1.37471e-05
-3.57751e-21
1.37471e-05
-3.84525e-21
1.37471e-05
-5.02543e-21
1.37471e-05
-5.4244e-21
1.37471e-05
-4.18744e-21
1.37471e-05
-3.60372e-21
1.37471e-05
-7.57684e-23
1.37471e-05
3.26399e-21
1.37471e-05
5.48465e-21
1.37471e-05
6.42643e-21
1.37471e-05
7.596e-21
1.37471e-05
7.0373e-21
4.11256e-21
1.62468e-05
4.22466e-21
1.62468e-05
4.64833e-21
1.62468e-05
1.22341e-21
1.62468e-05
-1.38241e-21
1.62468e-05
-1.3971e-21
1.62468e-05
-3.81684e-21
1.62468e-05
-5.45458e-21
1.62468e-05
-5.07792e-21
1.62468e-05
-6.81118e-21
1.62468e-05
-6.01411e-21
1.62468e-05
-6.19711e-21
1.62468e-05
-5.13871e-21
1.62468e-05
-3.19859e-21
1.62468e-05
9.5505e-22
1.62468e-05
2.78095e-21
1.62468e-05
7.62685e-21
1.62468e-05
8.15582e-21
1.62468e-05
7.64903e-21
1.62468e-05
7.17206e-21
5.06877e-21
1.87465e-05
5.01087e-21
1.87465e-05
3.32266e-21
1.87465e-05
2.38011e-21
1.87465e-05
1.17962e-21
1.87465e-05
-9.97459e-22
1.87465e-05
-4.22078e-21
1.87465e-05
-6.65539e-21
1.87465e-05
-8.81757e-21
1.87465e-05
-8.98459e-21
1.87465e-05
-9.7497e-21
1.87465e-05
-9.00345e-21
1.87465e-05
-5.88686e-21
1.87465e-05
-9.38389e-22
1.87465e-05
3.14813e-21
1.87465e-05
7.42501e-21
1.87465e-05
7.78344e-21
1.87465e-05
9.01761e-21
1.87465e-05
9.3051e-21
1.87465e-05
8.25199e-21
8.20239e-21
2.12463e-05
1.16616e-20
2.12463e-05
6.10685e-21
2.12463e-05
3.29282e-21
2.12463e-05
3.82884e-22
2.12463e-05
-2.15429e-21
2.12463e-05
-3.67653e-21
2.12463e-05
-9.03782e-21
2.12463e-05
-1.07758e-20
2.12463e-05
-1.16113e-20
2.12463e-05
-1.06103e-20
2.12463e-05
-8.11402e-21
2.12463e-05
-3.86684e-21
2.12463e-05
-1.31943e-21
2.12463e-05
6.1442e-22
2.12463e-05
5.80476e-21
2.12463e-05
7.92721e-21
2.12463e-05
6.49536e-21
2.12463e-05
8.89331e-21
2.12463e-05
1.00919e-20
1.13812e-20
2.37462e-05
8.07827e-21
2.37462e-05
9.64135e-21
2.37462e-05
6.2832e-21
2.37462e-05
2.22907e-21
2.37462e-05
-3.58074e-21
2.37462e-05
-7.67067e-21
2.37462e-05
-9.22335e-21
2.37462e-05
-1.08016e-20
2.37462e-05
-1.28123e-20
2.37462e-05
-1.06345e-20
2.37462e-05
-6.71931e-21
2.37462e-05
-2.73127e-21
2.37462e-05
-9.79847e-22
2.37462e-05
4.24782e-21
2.37462e-05
8.00889e-21
2.37462e-05
7.06693e-21
2.37462e-05
7.21383e-21
2.37462e-05
7.28328e-21
2.37462e-05
9.31841e-21
9.78287e-21
2.62462e-05
9.51965e-21
2.62462e-05
8.36535e-21
2.62462e-05
6.87607e-21
2.62462e-05
1.26595e-21
2.62462e-05
-2.19865e-21
2.62462e-05
-6.73516e-21
2.62462e-05
-1.01759e-20
2.62462e-05
-1.17617e-20
2.62462e-05
-1.15626e-20
2.62462e-05
-1.1038e-20
2.62462e-05
-4.4121e-21
2.62462e-05
-1.82957e-22
2.62462e-05
2.38793e-21
2.62462e-05
4.45419e-21
2.62462e-05
4.33091e-21
2.62462e-05
4.88745e-21
2.62462e-05
8.48528e-21
2.62462e-05
5.40444e-21
2.62462e-05
5.47635e-21
8.67836e-21
2.87463e-05
6.24922e-21
2.87463e-05
6.40291e-21
2.87463e-05
4.97042e-21
2.87463e-05
7.30532e-22
2.87463e-05
-4.0119e-21
2.87463e-05
-6.72662e-21
2.87463e-05
-1.10952e-20
2.87463e-05
-1.18288e-20
2.87463e-05
-1.13533e-20
2.87463e-05
-1.17437e-20
2.87463e-05
-7.38104e-21
2.87463e-05
2.0691e-21
2.87463e-05
9.14713e-21
2.87463e-05
4.97123e-21
2.87463e-05
7.00422e-21
2.87463e-05
7.33135e-21
2.87463e-05
3.64619e-21
2.87463e-05
8.00711e-21
2.87463e-05
6.71534e-21
3.80862e-21
3.12465e-05
5.61655e-21
3.12465e-05
5.21487e-21
3.12465e-05
1.09632e-21
3.12465e-05
-3.13455e-21
3.12465e-05
-5.70782e-21
3.12465e-05
-9.95675e-21
3.12465e-05
-1.10892e-20
3.12465e-05
-1.08661e-20
3.12465e-05
-8.76346e-21
3.12465e-05
-2.82756e-21
3.12465e-05
4.29283e-22
3.12465e-05
6.06348e-21
3.12465e-05
8.25891e-21
3.12465e-05
1.31651e-20
3.12465e-05
1.07787e-20
3.12465e-05
7.5279e-21
3.12465e-05
6.25111e-21
3.12465e-05
2.50068e-21
3.12465e-05
4.41745e-21
4.58461e-21
3.37468e-05
6.25843e-22
3.37468e-05
2.01445e-21
3.37468e-05
-3.00576e-21
3.37468e-05
-1.98453e-21
3.37468e-05
-4.24577e-21
3.37468e-05
-8.69143e-21
3.37468e-05
-1.0559e-20
3.37468e-05
-1.0398e-20
3.37468e-05
-4.7309e-21
3.37468e-05
2.11724e-24
3.37468e-05
3.81222e-21
3.37468e-05
3.33967e-21
3.37468e-05
8.86243e-21
3.37468e-05
1.0565e-20
3.37468e-05
1.31409e-20
3.37468e-05
1.22668e-20
3.37468e-05
1.05097e-20
3.37468e-05
6.66809e-21
3.37468e-05
7.59879e-24
-1.99847e-21
3.62471e-05
-3.33185e-21
3.62471e-05
-1.64806e-22
3.62471e-05
2.15964e-21
3.62471e-05
-3.85436e-21
3.62471e-05
-6.02747e-21
3.62471e-05
-8.6225e-21
3.62471e-05
-1.05162e-20
3.62471e-05
-8.93969e-21
3.62471e-05
-1.1069e-21
3.62471e-05
1.33181e-22
3.62471e-05
2.08383e-21
3.62471e-05
6.6199e-21
3.62471e-05
1.12532e-20
3.62471e-05
1.28735e-20
3.62471e-05
9.28807e-21
3.62471e-05
9.26458e-21
3.62471e-05
8.99274e-21
3.62471e-05
7.97778e-21
3.62471e-05
-1.06148e-22
-3.30235e-21
3.87475e-05
-9.56727e-22
3.87475e-05
-1.12738e-21
3.87475e-05
2.51582e-21
3.87475e-05
4.72132e-21
3.87475e-05
-1.54862e-21
3.87475e-05
-7.76645e-21
3.87475e-05
-1.1369e-20
3.87475e-05
-4.76461e-21
3.87475e-05
-5.9993e-21
3.87475e-05
-2.22544e-21
3.87475e-05
2.80968e-21
3.87475e-05
8.77388e-21
3.87475e-05
1.31988e-20
3.87475e-05
1.20295e-20
3.87475e-05
7.97482e-21
3.87475e-05
6.4118e-21
3.87475e-05
2.27743e-21
3.87475e-05
-2.93508e-21
3.87475e-05
-2.83148e-21
2.53555e-22
4.1248e-05
-6.31685e-22
4.1248e-05
1.52492e-21
4.1248e-05
3.04345e-21
4.1248e-05
5.01311e-21
4.1248e-05
1.16385e-21
4.1248e-05
-2.62967e-21
4.1248e-05
-4.57999e-21
4.1248e-05
-9.57371e-21
4.1248e-05
-3.10385e-21
4.1248e-05
3.38412e-22
4.1248e-05
2.21035e-21
4.1248e-05
4.45902e-21
4.1248e-05
1.13366e-20
4.1248e-05
1.09912e-20
4.1248e-05
5.93189e-21
4.1248e-05
1.99742e-21
4.1248e-05
-1.14695e-21
4.1248e-05
-8.32245e-21
4.1248e-05
5.93079e-22
1.61648e-21
4.37485e-05
2.28827e-21
4.37485e-05
4.21312e-21
4.37485e-05
5.70032e-21
4.37485e-05
4.26056e-21
4.37485e-05
1.78827e-21
4.37485e-05
-4.26755e-21
4.37485e-05
-1.07876e-20
4.37485e-05
-9.95936e-21
4.37485e-05
-3.54336e-21
4.37485e-05
2.56696e-21
4.37485e-05
3.06252e-21
4.37485e-05
9.2061e-21
4.37485e-05
6.74505e-21
4.37485e-05
6.07372e-21
4.37485e-05
4.8961e-21
4.37485e-05
-3.95715e-23
4.37485e-05
-3.36286e-21
4.37485e-05
1.0637e-21
4.37485e-05
6.40479e-23
2.41529e-22
4.62491e-05
5.12506e-21
4.62491e-05
-1.10677e-21
4.62491e-05
8.07818e-21
4.62491e-05
1.31734e-20
4.62491e-05
3.39592e-21
4.62491e-05
-2.19819e-21
4.62491e-05
-8.78557e-21
4.62491e-05
-7.57518e-21
4.62491e-05
-5.04025e-21
4.62491e-05
1.34064e-21
4.62491e-05
6.81564e-21
4.62491e-05
3.37764e-21
4.62491e-05
6.06676e-21
4.62491e-05
8.75048e-21
4.62491e-05
2.5537e-21
4.62491e-05
-2.1238e-21
4.62491e-05
-4.03555e-21
4.62491e-05
-2.84092e-21
4.62491e-05
2.77722e-22
3.47749e-21
4.87497e-05
4.87497e-05
4.87497e-05
4.87497e-05
4.87497e-05
4.87497e-05
4.87497e-05
4.87497e-05
4.87497e-05
4.87497e-05
4.87497e-05
4.87497e-05
4.87497e-05
4.87497e-05
4.87497e-05
4.87497e-05
4.87497e-05
4.87497e-05
4.87497e-05
)
;

boundaryField
{
    movingWall
    {
        type            calculated;
        value           uniform 0;
    }
    fixedWalls
    {
        type            calculated;
        value           uniform 0;
    }
    left
    {
        type            cyclic;
        value           nonuniform List<scalar> 
20
(
-3.87475e-05
-3.62471e-05
-3.37468e-05
-3.12465e-05
-2.87463e-05
-2.62462e-05
-2.37462e-05
-2.12463e-05
-1.87465e-05
-1.62468e-05
-1.37471e-05
-1.12475e-05
-8.74802e-06
-6.24855e-06
-3.74911e-06
-1.2497e-06
-4.1248e-05
-4.37485e-05
-4.62491e-05
-4.87497e-05
)
;
    }
    right
    {
        type            cyclic;
        value           nonuniform List<scalar> 
20
(
3.87475e-05
3.62471e-05
3.37468e-05
3.12465e-05
2.87463e-05
2.62462e-05
2.37462e-05
2.12463e-05
1.87465e-05
1.62468e-05
1.37471e-05
1.12475e-05
8.74802e-06
6.24855e-06
3.74911e-06
1.2497e-06
4.1248e-05
4.37485e-05
4.62491e-05
4.87497e-05
)
;
    }
    frontAndBack
    {
        type            empty;
        value           nonuniform List<scalar> 0();
    }
}


// ************************************************************************* //
