/*--------------------------------*- C++ -*----------------------------------*\
  =========                 |
  \\      /  F ield         | OpenFOAM: The Open Source CFD Toolbox
   \\    /   O peration     | Website:  https://openfoam.org
    \\  /    A nd           | Version:  8
     \\/     M anipulation  |
\*---------------------------------------------------------------------------*/
FoamFile
{
    version     2.0;
    format      ascii;
    class       volVectorField;
    location    "1.89";
    object      U;
}
// * * * * * * * * * * * * * * * * * * * * * * * * * * * * * * * * * * * * * //

dimensions      [0 1 -1 0 0 0 0];

internalField   nonuniform List<vector> 
400
(
(0.024994 2.51749e-18 0)
(0.024994 -4.68158e-18 0)
(0.024994 -1.02175e-17 0)
(0.024994 -5.22637e-18 0)
(0.024994 -5.19257e-18 0)
(0.024994 -2.7714e-18 0)
(0.024994 3.33472e-18 0)
(0.024994 2.15794e-18 0)
(0.024994 3.59408e-18 0)
(0.024994 4.09485e-18 0)
(0.024994 4.2633e-18 0)
(0.024994 1.83466e-18 0)
(0.024994 2.40816e-18 0)
(0.024994 3.01182e-18 0)
(0.024994 -2.84278e-19 0)
(0.024994 -3.83198e-19 0)
(0.024994 1.47848e-18 0)
(0.024994 -1.25983e-18 0)
(0.024994 -8.64066e-18 0)
(0.024994 -6.589e-19 0)
(0.0749823 -1.61965e-17 0)
(0.0749823 -1.04907e-17 0)
(0.0749823 -2.17405e-17 0)
(0.0749823 -1.0759e-17 0)
(0.0749823 -1.34413e-17 0)
(0.0749823 -1.33428e-17 0)
(0.0749823 2.43956e-18 0)
(0.0749823 7.28782e-18 0)
(0.0749823 9.88027e-18 0)
(0.0749823 1.26468e-17 0)
(0.0749823 1.02458e-17 0)
(0.0749823 1.87751e-18 0)
(0.0749823 -1.7587e-18 0)
(0.0749823 8.01436e-18 0)
(0.0749823 4.95273e-18 0)
(0.0749823 -8.8598e-19 0)
(0.0749823 1.10917e-17 0)
(0.0749823 1.00214e-17 0)
(0.0749823 5.25754e-19 0)
(0.0749823 -1.5944e-19 0)
(0.124971 -3.46119e-18 0)
(0.124971 -2.90593e-17 0)
(0.124971 -2.7493e-17 0)
(0.124971 -1.97258e-17 0)
(0.124971 -2.13624e-17 0)
(0.124971 -2.45532e-17 0)
(0.124971 -1.262e-17 0)
(0.124971 -1.88246e-18 0)
(0.124971 7.41317e-18 0)
(0.124971 1.10698e-17 0)
(0.124971 1.12597e-17 0)
(0.124971 -6.41574e-18 0)
(0.124971 -8.34279e-18 0)
(0.124971 1.67295e-18 0)
(0.124971 8.53383e-18 0)
(0.124971 1.04074e-17 0)
(0.124971 2.62164e-17 0)
(0.124971 3.57115e-17 0)
(0.124971 3.51619e-17 0)
(0.124971 8.78245e-18 0)
(0.17496 8.87873e-18 0)
(0.17496 -1.59031e-17 0)
(0.17496 -1.52171e-17 0)
(0.17496 -1.68788e-17 0)
(0.17496 -3.38496e-17 0)
(0.17496 -2.2582e-17 0)
(0.17496 -2.61214e-17 0)
(0.17496 -2.086e-17 0)
(0.17496 -1.1176e-17 0)
(0.17496 -1.64633e-17 0)
(0.17496 -2.63283e-17 0)
(0.17496 -2.51192e-17 0)
(0.17496 -2.4561e-17 0)
(0.17496 -1.74536e-17 0)
(0.17496 -4.07721e-18 0)
(0.17496 1.909e-17 0)
(0.17496 5.52716e-17 0)
(0.17496 8.94266e-17 0)
(0.17496 7.29436e-17 0)
(0.17496 4.13165e-17 0)
(0.224951 5.15251e-17 0)
(0.224951 1.04918e-17 0)
(0.224951 3.49578e-18 0)
(0.224951 -1.99923e-17 0)
(0.224951 -3.82711e-17 0)
(0.224951 -3.22665e-17 0)
(0.224951 -2.77731e-17 0)
(0.224951 -3.59288e-17 0)
(0.224951 -3.51435e-17 0)
(0.224951 -6.53906e-17 0)
(0.224951 -7.14264e-17 0)
(0.224951 -6.35312e-17 0)
(0.224951 -4.22447e-17 0)
(0.224951 -2.50438e-17 0)
(0.224951 3.00443e-18 0)
(0.224951 4.99644e-17 0)
(0.224951 9.13569e-17 0)
(0.224951 1.11766e-16 0)
(0.224951 1.164e-16 0)
(0.224951 8.94419e-17 0)
(0.274942 6.27538e-17 0)
(0.274942 4.03651e-17 0)
(0.274942 1.81902e-17 0)
(0.274942 -1.10439e-17 0)
(0.274942 -4.24626e-17 0)
(0.274942 -5.17573e-17 0)
(0.274942 -4.58366e-17 0)
(0.274942 -5.61084e-17 0)
(0.274942 -6.0724e-17 0)
(0.274942 -9.3104e-17 0)
(0.274942 -9.64885e-17 0)
(0.274942 -8.82927e-17 0)
(0.274942 -6.0598e-17 0)
(0.274942 -1.141e-17 0)
(0.274942 4.44766e-17 0)
(0.274942 9.02501e-17 0)
(0.274942 1.22785e-16 0)
(0.274942 1.27225e-16 0)
(0.274942 1.38798e-16 0)
(0.274942 1.04897e-16 0)
(0.324935 6.89874e-17 0)
(0.324935 7.06247e-17 0)
(0.324935 2.92069e-17 0)
(0.324935 -1.38567e-17 0)
(0.324935 -3.75286e-17 0)
(0.324935 -6.62335e-17 0)
(0.324935 -8.8646e-17 0)
(0.324935 -8.13419e-17 0)
(0.324935 -1.07117e-16 0)
(0.324935 -1.06734e-16 0)
(0.324935 -1.15719e-16 0)
(0.324935 -9.3364e-17 0)
(0.324935 -6.98538e-17 0)
(0.324935 5.96154e-18 0)
(0.324935 5.92781e-17 0)
(0.324935 1.34163e-16 0)
(0.324935 1.48004e-16 0)
(0.324935 1.55456e-16 0)
(0.324935 1.38387e-16 0)
(0.324935 9.0516e-17 0)
(0.37493 8.79638e-17 0)
(0.37493 7.34859e-17 0)
(0.37493 3.38751e-17 0)
(0.37493 -6.58911e-19 0)
(0.37493 -2.49904e-17 0)
(0.37493 -7.88112e-17 0)
(0.37493 -1.21724e-16 0)
(0.37493 -1.42446e-16 0)
(0.37493 -1.59647e-16 0)
(0.37493 -1.60878e-16 0)
(0.37493 -1.53438e-16 0)
(0.37493 -1.10943e-16 0)
(0.37493 -4.14043e-17 0)
(0.37493 4.47287e-17 0)
(0.37493 1.03606e-16 0)
(0.37493 1.59321e-16 0)
(0.37493 1.74114e-16 0)
(0.37493 1.72735e-16 0)
(0.37493 1.57047e-16 0)
(0.37493 1.31018e-16 0)
(0.424926 1.69667e-16 0)
(0.424926 9.52665e-17 0)
(0.424926 5.31399e-17 0)
(0.424926 1.25391e-17 0)
(0.424926 -3.07208e-17 0)
(0.424926 -8.2551e-17 0)
(0.424926 -1.5921e-16 0)
(0.424926 -2.01249e-16 0)
(0.424926 -2.07022e-16 0)
(0.424926 -2.10683e-16 0)
(0.424926 -1.75936e-16 0)
(0.424926 -1.01054e-16 0)
(0.424926 -2.03786e-17 0)
(0.424926 4.03097e-17 0)
(0.424926 1.41596e-16 0)
(0.424926 1.59921e-16 0)
(0.424926 1.6122e-16 0)
(0.424926 1.84918e-16 0)
(0.424926 1.90222e-16 0)
(0.424926 1.97987e-16 0)
(0.474924 2.04472e-16 0)
(0.474924 1.63878e-16 0)
(0.474924 9.60975e-17 0)
(0.474924 2.49839e-17 0)
(0.474924 -6.14688e-17 0)
(0.474924 -1.19018e-16 0)
(0.474924 -1.8644e-16 0)
(0.474924 -2.15157e-16 0)
(0.474924 -2.50247e-16 0)
(0.474924 -2.12647e-16 0)
(0.474924 -1.5394e-16 0)
(0.474924 -7.06142e-17 0)
(0.474924 -2.86039e-17 0)
(0.474924 4.7372e-17 0)
(0.474924 1.41017e-16 0)
(0.474924 1.56411e-16 0)
(0.474924 1.37327e-16 0)
(0.474924 1.6254e-16 0)
(0.474924 1.92943e-16 0)
(0.474924 2.20846e-16 0)
(0.524924 1.81631e-16 0)
(0.524924 1.87768e-16 0)
(0.524924 1.39395e-16 0)
(0.524924 3.62235e-17 0)
(0.524924 -6.12361e-17 0)
(0.524924 -1.41377e-16 0)
(0.524924 -1.96514e-16 0)
(0.524924 -2.29576e-16 0)
(0.524924 -2.44945e-16 0)
(0.524924 -2.21254e-16 0)
(0.524924 -1.15509e-16 0)
(0.524924 -3.47547e-17 0)
(0.524924 4.20688e-18 0)
(0.524924 8.40823e-17 0)
(0.524924 1.18397e-16 0)
(0.524924 1.16892e-16 0)
(0.524924 1.58341e-16 0)
(0.524924 1.25475e-16 0)
(0.524924 1.48546e-16 0)
(0.524924 1.87421e-16 0)
(0.574926 1.66218e-16 0)
(0.574926 1.50487e-16 0)
(0.574926 1.25219e-16 0)
(0.574926 2.66691e-17 0)
(0.574926 -5.48614e-17 0)
(0.574926 -1.34348e-16 0)
(0.574926 -2.12648e-16 0)
(0.574926 -2.40607e-16 0)
(0.574926 -2.40439e-16 0)
(0.574926 -2.36657e-16 0)
(0.574926 -1.21198e-16 0)
(0.574926 1.57215e-17 0)
(0.574926 1.21908e-16 0)
(0.574926 8.71907e-17 0)
(0.574926 1.07825e-16 0)
(0.574926 1.17356e-16 0)
(0.574926 1.17244e-16 0)
(0.574926 1.3469e-16 0)
(0.574926 1.27295e-16 0)
(0.574926 1.24397e-16 0)
(0.62493 1.1385e-16 0)
(0.62493 1.23117e-16 0)
(0.62493 6.42645e-17 0)
(0.62493 -1.87861e-17 0)
(0.62493 -8.98356e-17 0)
(0.62493 -1.66747e-16 0)
(0.62493 -2.24256e-16 0)
(0.62493 -2.34675e-16 0)
(0.62493 -2.06944e-16 0)
(0.62493 -1.52925e-16 0)
(0.62493 -7.18946e-17 0)
(0.62493 8.84702e-17 0)
(0.62493 1.78157e-16 0)
(0.62493 1.87395e-16 0)
(0.62493 1.75007e-16 0)
(0.62493 1.42236e-16 0)
(0.62493 9.25937e-17 0)
(0.62493 1.06942e-16 0)
(0.62493 1.08478e-16 0)
(0.62493 8.90035e-17 0)
(0.674935 6.16269e-17 0)
(0.674935 6.72774e-17 0)
(0.674935 -1.57767e-17 0)
(0.674935 -5.15233e-17 0)
(0.674935 -1.05573e-16 0)
(0.674935 -1.84101e-16 0)
(0.674935 -2.17087e-16 0)
(0.674935 -2.10342e-16 0)
(0.674935 -1.2921e-16 0)
(0.674935 -2.38619e-17 0)
(0.674935 4.51348e-17 0)
(0.674935 9.68239e-17 0)
(0.674935 1.69719e-16 0)
(0.674935 2.44707e-16 0)
(0.674935 2.42166e-16 0)
(0.674935 1.97885e-16 0)
(0.674935 1.73142e-16 0)
(0.674935 8.74791e-17 0)
(0.674935 4.31203e-17 0)
(0.674935 1.80478e-17 0)
(0.724942 -3.29441e-17 0)
(0.724942 1.23479e-17 0)
(0.724942 -2.12332e-17 0)
(0.724942 -6.56209e-17 0)
(0.724942 -1.10336e-16 0)
(0.724942 -1.79281e-16 0)
(0.724942 -2.06225e-16 0)
(0.724942 -1.82824e-16 0)
(0.724942 -5.40338e-17 0)
(0.724942 1.43881e-17 0)
(0.724942 6.52195e-17 0)
(0.724942 9.81368e-17 0)
(0.724942 2.05039e-16 0)
(0.724942 2.28648e-16 0)
(0.724942 2.3515e-16 0)
(0.724942 2.30789e-16 0)
(0.724942 2.00785e-16 0)
(0.724942 1.51374e-16 0)
(0.724942 -1.31018e-18 0)
(0.724942 -5.56066e-17 0)
(0.774951 -4.94125e-17 0)
(0.774951 -1.85772e-17 0)
(0.774951 3.57086e-17 0)
(0.774951 -7.48627e-18 0)
(0.774951 -7.69141e-17 0)
(0.774951 -1.65339e-16 0)
(0.774951 -2.18025e-16 0)
(0.774951 -1.38111e-16 0)
(0.774951 -6.27214e-17 0)
(0.774951 -2.18007e-17 0)
(0.774951 5.62151e-17 0)
(0.774951 1.59276e-16 0)
(0.774951 2.45167e-16 0)
(0.774951 2.54951e-16 0)
(0.774951 1.77538e-16 0)
(0.774951 1.62864e-16 0)
(0.774951 1.20152e-16 0)
(0.774951 5.65254e-17 0)
(0.774951 -3.12607e-17 0)
(0.774951 -3.11345e-17 0)
(0.82496 -1.55912e-17 0)
(0.82496 -4.54879e-18 0)
(0.82496 5.39912e-17 0)
(0.82496 1.00517e-16 0)
(0.82496 -7.47732e-18 0)
(0.82496 -9.78651e-17 0)
(0.82496 -1.64475e-16 0)
(0.82496 -1.46325e-16 0)
(0.82496 -9.64694e-17 0)
(0.82496 -1.89361e-17 0)
(0.82496 5.10375e-17 0)
(0.82496 1.38913e-16 0)
(0.82496 2.52039e-16 0)
(0.82496 2.38742e-16 0)
(0.82496 1.35583e-16 0)
(0.82496 7.72016e-17 0)
(0.82496 8.03713e-18 0)
(0.82496 -1.18304e-16 0)
(0.82496 -2.15045e-17 0)
(0.82496 1.42733e-17 0)
(0.874971 1.50061e-17 0)
(0.874971 6.40453e-17 0)
(0.874971 9.4671e-17 0)
(0.874971 1.02796e-16 0)
(0.874971 3.37303e-17 0)
(0.874971 -7.64642e-17 0)
(0.874971 -1.59817e-16 0)
(0.874971 -2.03347e-16 0)
(0.874971 -7.21052e-17 0)
(0.874971 3.03268e-17 0)
(0.874971 4.95161e-17 0)
(0.874971 1.38181e-16 0)
(0.874971 1.90752e-16 0)
(0.874971 1.70831e-16 0)
(0.874971 1.0861e-16 0)
(0.874971 1.39047e-17 0)
(0.874971 -5.72186e-17 0)
(0.874971 -8.16795e-17 0)
(0.874971 2.16589e-18 0)
(0.874971 1.84955e-17 0)
(0.924982 8.57268e-17 0)
(0.924982 3.83762e-17 0)
(0.924982 1.57099e-16 0)
(0.924982 1.94401e-16 0)
(0.924982 6.18385e-17 0)
(0.924982 -7.35035e-17 0)
(0.924982 -2.12918e-16 0)
(0.924982 -1.89187e-16 0)
(0.924982 -9.06082e-17 0)
(0.924982 3.91137e-17 0)
(0.924982 1.07789e-16 0)
(0.924982 1.29952e-16 0)
(0.924982 1.32037e-16 0)
(0.924982 1.59356e-16 0)
(0.924982 7.48243e-17 0)
(0.924982 -2.70778e-17 0)
(0.924982 -8.20345e-17 0)
(0.924982 -2.31244e-17 0)
(0.924982 -2.11569e-18 0)
(0.924982 4.10566e-17 0)
(0.974994 5.34136e-17 0)
(0.974994 7.66484e-19 0)
(0.974994 8.72792e-17 0)
(0.974994 1.32483e-16 0)
(0.974994 2.53086e-17 0)
(0.974994 -3.15705e-17 0)
(0.974994 -9.25828e-17 0)
(0.974994 -7.5181e-17 0)
(0.974994 -4.63967e-17 0)
(0.974994 1.58327e-17 0)
(0.974994 6.60954e-17 0)
(0.974994 3.13652e-17 0)
(0.974994 5.59212e-17 0)
(0.974994 8.12251e-17 0)
(0.974994 2.8209e-17 0)
(0.974994 -1.43657e-17 0)
(0.974994 -3.70782e-17 0)
(0.974994 -3.42897e-17 0)
(0.974994 -8.52346e-19 0)
(0.974994 3.51501e-17 0)
)
;

boundaryField
{
    movingWall
    {
        type            fixedValue;
        value           uniform (1 0 0);
    }
    fixedWalls
    {
        type            noSlip;
    }
    left
    {
        type            cyclic;
    }
    right
    {
        type            cyclic;
    }
    frontAndBack
    {
        type            empty;
    }
}


// ************************************************************************* //
