/*--------------------------------*- C++ -*----------------------------------*\
  =========                 |
  \\      /  F ield         | OpenFOAM: The Open Source CFD Toolbox
   \\    /   O peration     | Website:  https://openfoam.org
    \\  /    A nd           | Version:  8
     \\/     M anipulation  |
\*---------------------------------------------------------------------------*/
FoamFile
{
    version     2.0;
    format      ascii;
    class       volScalarField;
    location    "0.26";
    object      p;
}
// * * * * * * * * * * * * * * * * * * * * * * * * * * * * * * * * * * * * * //

dimensions      [0 2 -2 0 0 0 0];

internalField   nonuniform List<scalar> 
400
(
3.2036e-06
-0.00582316
-0.0129592
-0.0184098
-0.0204262
-0.0182321
-0.0117678
-0.00147864
0.0118408
0.0271506
0.0432438
0.0588205
0.0725746
0.0833035
0.0900476
0.0922623
0.0900224
0.0842423
0.076881
0.0710687
0.00578012
-0.000217755
-0.00580223
-0.00953957
-0.0105951
-0.00842855
-0.00296593
0.00547755
0.0163053
0.0287129
0.0417497
0.0543846
0.0655841
0.0744071
0.0801175
0.0823135
0.081076
0.0770549
0.0712756
0.0653206
0.0133323
0.00503256
-0.000995085
-0.00442172
-0.00527069
-0.00326128
0.00160503
0.00902999
0.0185039
0.0293504
0.0407657
0.0518691
0.0617674
0.069635
0.0748058
0.0768775
0.075842
0.0720874
0.0658085
0.0575401
0.0201346
0.0086935
0.00122496
-0.00266824
-0.00372092
-0.00188356
0.00273325
0.00978652
0.0187821
0.0290964
0.0399928
0.0506543
0.0602329
0.0679157
0.0730032
0.0750021
0.0737674
0.0694589
0.0616074
0.0501089
0.024496
0.00976986
0.00058823
-0.00398724
-0.00530159
-0.00350603
0.00117643
0.00833644
0.0174639
0.0279509
0.0390865
0.0500711
0.0600498
0.0681659
0.0736274
0.0757994
0.0743716
0.0692936
0.0595311
0.044545
0.0251717
0.00714673
-0.00380358
-0.00905757
-0.0105115
-0.00849858
-0.00335489
0.00443168
0.0143158
0.0256815
0.0378162
0.0499055
0.0610501
0.070305
0.0767367
0.0795195
0.0781424
0.0723382
0.0605456
0.0418989
0.0210882
-0.000264928
-0.0129354
-0.0187091
-0.0200287
-0.0174119
-0.0113158
-0.00231663
0.0089938
0.0219797
0.0359131
0.0499477
0.0631153
0.0743483
0.0825249
0.0865729
0.0857248
0.0794523
0.0656271
0.0430808
0.0111396
-0.0136193
-0.0278748
-0.033853
-0.0346014
-0.0308545
-0.0232092
-0.012341
0.00110946
0.0164887
0.0330574
0.0499383
0.0660877
0.080294
0.0912047
0.0974342
0.0978749
0.0916415
0.075903
0.0491252
-0.00596753
-0.0342655
-0.0498681
-0.055546
-0.0550868
-0.0495104
-0.0395886
-0.0261078
-0.00975111
0.00882925
0.0289073
0.0495996
0.0698032
0.0881598
0.103052
0.112706
0.115556
0.110197
0.0928406
0.0614192
-0.0318541
-0.0638727
-0.080413
-0.0850029
-0.0824153
-0.0740729
-0.0609747
-0.0440297
-0.0239441
-0.00132925
0.0231533
0.0486684
0.0741026
0.0979787
0.118402
0.133131
0.139994
0.136823
0.118446
0.0819401
-0.0686606
-0.104597
-0.121339
-0.123584
-0.117509
-0.10512
-0.087711
-0.0663175
-0.0416285
-0.0141468
0.0156144
0.0469618
0.0788638
0.109801
0.13763
0.159591
0.172732
0.173783
0.155525
0.113575
-0.119392
-0.159349
-0.174907
-0.17275
-0.161141
-0.142921
-0.119751
-0.0927682
-0.062568
-0.0294379
0.00638286
0.0444829
0.0840639
0.123711
0.161143
0.193092
0.215673
0.224081
0.208054
0.160635
-0.188616
-0.232232
-0.24393
-0.23394
-0.213686
-0.187146
-0.156364
-0.122492
-0.0858881
-0.046462
-0.00400424
0.0415487
0.0898513
0.139838
0.189326
0.234695
0.271079
0.291668
0.281745
0.229777
-0.28396
-0.329294
-0.331822
-0.308272
-0.274701
-0.236432
-0.195756
-0.153601
-0.10983
-0.0637349
-0.0144275
0.0388734
0.0965634
0.158285
0.222381
0.285294
0.341402
0.381578
0.384916
0.331833
-0.419304
-0.45966
-0.442341
-0.395784
-0.342122
-0.287732
-0.234608
-0.182921
-0.1316
-0.078975
-0.0232038
0.0374851
0.104562
0.178846
0.259868
0.344975
0.42862
0.499703
0.529676
0.48539
-0.620519
-0.636734
-0.578669
-0.494187
-0.411235
-0.335653
-0.267774
-0.20597
-0.147528
-0.0893736
-0.0284163
0.0383578
0.113815
0.200479
0.299981
0.41203
0.533033
0.651777
0.732772
0.722393
-0.935913
-0.878507
-0.741735
-0.597944
-0.474389
-0.372655
-0.288864
-0.217757
-0.153946
-0.0924555
-0.0287082
0.0417047
0.123272
0.220725
0.338932
0.482159
0.652
0.841343
1.01527
1.0975
-1.47642
-1.20662
-0.920499
-0.691386
-0.517303
-0.387542
-0.290058
-0.213333
-0.148118
-0.0872082
-0.0245693
0.0454661
0.128946
0.233078
0.367109
0.542683
0.771296
1.05932
1.40329
1.73014
-2.53964
-1.63054
-1.04444
-0.710959
-0.495751
-0.352094
-0.25453
-0.183581
-0.126165
-0.0735889
-0.0192613
0.0427955
0.119221
0.218791
0.354819
0.547989
0.826397
1.23658
1.91168
2.92419
-4.36666
-2.04463
-0.973542
-0.563183
-0.357849
-0.24015
-0.170121
-0.123783
-0.0874785
-0.0535049
-0.0166468
0.0276699
0.0846175
0.16174
0.27242
0.442107
0.718225
1.22571
2.41104
4.84853
)
;

boundaryField
{
    movingWall
    {
        type            zeroGradient;
    }
    fixedWalls
    {
        type            zeroGradient;
    }
    frontAndBack
    {
        type            empty;
    }
}


// ************************************************************************* //
