/*--------------------------------*- C++ -*----------------------------------*\
  =========                 |
  \\      /  F ield         | OpenFOAM: The Open Source CFD Toolbox
   \\    /   O peration     | Website:  https://openfoam.org
    \\  /    A nd           | Version:  8
     \\/     M anipulation  |
\*---------------------------------------------------------------------------*/
FoamFile
{
    version     2.0;
    format      ascii;
    class       volVectorField;
    location    "0.26";
    object      U;
}
// * * * * * * * * * * * * * * * * * * * * * * * * * * * * * * * * * * * * * //

dimensions      [0 1 -1 0 0 0 0];

internalField   nonuniform List<vector> 
400
(
(0.000253392 -0.000250338 0)
(0.000141221 0.000111444 0)
(-0.0011768 0.000564519 0)
(-0.00348056 0.000884827 0)
(-0.00637644 0.00104551 0)
(-0.00946791 0.00106155 0)
(-0.0124009 0.000957672 0)
(-0.0148825 0.000760301 0)
(-0.0166868 0.000494559 0)
(-0.0176554 0.000184533 0)
(-0.0176993 -0.000145236 0)
(-0.0168024 -0.000468278 0)
(-0.0150277 -0.000755276 0)
(-0.0125232 -0.000974091 0)
(-0.00952498 -0.001091 0)
(-0.00635408 -0.00107383 0)
(-0.0034002 -0.000897983 0)
(-0.00108633 -0.000556314 0)
(0.000196354 -9.03682e-05 0)
(0.000267806 0.000262334 0)
(-7.74307e-05 -0.000169252 0)
(-0.00161126 0.00164463 0)
(-0.00569197 0.00361674 0)
(-0.011717 0.005034 0)
(-0.0188893 0.00574228 0)
(-0.0263966 0.00575925 0)
(-0.0334639 0.00517082 0)
(-0.0394207 0.00409186 0)
(-0.0437372 0.00264723 0)
(-0.0460401 0.000966805 0)
(-0.0461225 -0.000813051 0)
(-0.0439548 -0.00254662 0)
(-0.0396953 -0.00407796 0)
(-0.0336978 -0.00524425 0)
(-0.0265096 -0.00588564 0)
(-0.0188519 -0.00586396 0)
(-0.0115651 -0.00509402 0)
(-0.00551258 -0.00358893 0)
(-0.00149292 -0.00155896 0)
(-4.25861e-05 0.000227396 0)
(-0.000528506 0.00109151 0)
(-0.00371078 0.00573544 0)
(-0.0105873 0.0102229 0)
(-0.0199887 0.0134056 0)
(-0.0307602 0.0149439 0)
(-0.041816 0.0148365 0)
(-0.0521121 0.0132536 0)
(-0.0607353 0.0104546 0)
(-0.0669597 0.00674099 0)
(-0.0702726 0.00243857 0)
(-0.0703906 -0.00210611 0)
(-0.0672748 -0.00652434 0)
(-0.0611438 -0.0104275 0)
(-0.0524812 -0.0134189 0)
(-0.0420313 -0.0151212 0)
(-0.0307698 -0.0152233 0)
(-0.0198264 -0.013554 0)
(-0.0103622 -0.0101775 0)
(-0.00354805 -0.00555035 0)
(-0.00047678 -0.000948741 0)
(-0.000928065 0.00347932 0)
(-0.00569062 0.0122188 0)
(-0.0152996 0.0199186 0)
(-0.0279129 0.0251939 0)
(-0.0419796 0.0275927 0)
(-0.0561713 0.0271333 0)
(-0.0692426 0.0241052 0)
(-0.0801148 0.018951 0)
(-0.0879363 0.0121938 0)
(-0.0921065 0.00440457 0)
(-0.0922912 -0.00380719 0)
(-0.0884386 -0.0117946 0)
(-0.0807945 -0.0188791 0)
(-0.069914 -0.0243725 0)
(-0.056662 -0.0276234 0)
(-0.0421895 -0.0280976 0)
(-0.0278531 -0.025494 0)
(-0.0150918 -0.0198889 0)
(-0.00550433 -0.0119261 0)
(-0.000861478 -0.00322446 0)
(-0.00127873 0.00687675 0)
(-0.00753501 0.0209505 0)
(-0.0198022 0.0325055 0)
(-0.0355304 0.0400972 0)
(-0.0527369 0.0432837 0)
(-0.06985 0.0421864 0)
(-0.085453 0.037272 0)
(-0.0983487 0.0292088 0)
(-0.107607 0.0187746 0)
(-0.112575 0.00681298 0)
(-0.112884 -0.00577919 0)
(-0.108462 -0.0180517 0)
(-0.0995507 -0.0290068 0)
(-0.0867293 -0.037627 0)
(-0.0709277 -0.0429386 0)
(-0.0534243 -0.0441225 0)
(-0.0357806 -0.040673 0)
(-0.0197329 -0.032588 0)
(-0.00736972 -0.0205878 0)
(-0.00120351 -0.0064973 0)
(-0.00160731 0.0112139 0)
(-0.00931693 0.0318699 0)
(-0.0242065 0.0479448 0)
(-0.0429979 0.0580634 0)
(-0.0632501 0.061928 0)
(-0.0831439 0.0598723 0)
(-0.101113 0.0526206 0)
(-0.11588 0.0411199 0)
(-0.126475 0.0264334 0)
(-0.132223 0.00969188 0)
(-0.132736 -0.00791466 0)
(-0.12791 -0.0251279 0)
(-0.117954 -0.0406186 0)
(-0.103423 -0.0530113 0)
(-0.0852604 -0.0609573 0)
(-0.0648291 -0.063271 0)
(-0.0438811 -0.0591337 0)
(-0.0244752 -0.0483378 0)
(-0.00925334 -0.0315534 0)
(-0.00153757 -0.0107271 0)
(-0.00193984 0.0164747 0)
(-0.0111202 0.0449679 0)
(-0.0286477 0.066224 0)
(-0.0504751 0.0790481 0)
(-0.0736781 0.0834344 0)
(-0.0961949 0.0800627 0)
(-0.116341 0.0700144 0)
(-0.132802 0.0545772 0)
(-0.144618 0.0351271 0)
(-0.151128 0.0130834 0)
(-0.151936 -0.0100844 0)
(-0.146902 -0.0328272 0)
(-0.136169 -0.0534914 0)
(-0.120213 -0.0703265 0)
(-0.0999241 -0.0815537 0)
(-0.076695 -0.0855209 0)
(-0.0524358 -0.0809529 0)
(-0.0295424 -0.0672683 0)
(-0.0112826 -0.0449339 0)
(-0.00189989 -0.0159496 0)
(-0.00229985 0.0226919 0)
(-0.0130241 0.0602929 0)
(-0.0332485 0.087352 0)
(-0.0580756 0.102983 0)
(-0.0840687 0.107651 0)
(-0.108946 0.102547 0)
(-0.130958 0.0892321 0)
(-0.148824 0.0694017 0)
(-0.161655 0.0447661 0)
(-0.168856 0.0170183 0)
(-0.170051 -0.012131 0)
(-0.16506 -0.0408867 0)
(-0.153919 -0.0673045 0)
(-0.136961 -0.0892608 0)
(-0.114935 -0.104498 0)
(-0.0891701 -0.110782 0)
(-0.0616668 -0.106199 0)
(-0.0351461 -0.0895687 0)
(-0.013585 -0.0609424 0)
(-0.00232617 -0.022275 0)
(-0.00271152 0.0299434 0)
(-0.0151073 0.0779472 0)
(-0.0381131 0.111342 0)
(-0.0658454 0.129734 0)
(-0.0943226 0.1343 0)
(-0.121093 0.126958 0)
(-0.144437 0.109888 0)
(-0.163205 0.0852713 0)
(-0.176679 0.0551608 0)
(-0.184398 0.0214852 0)
(-0.186049 -0.0138718 0)
(-0.181414 -0.0489493 0)
(-0.170387 -0.0815822 0)
(-0.153074 -0.109309 0)
(-0.129965 -0.129365 0)
(-0.102182 -0.138812 0)
(-0.0716865 -0.134872 0)
(-0.0414652 -0.115457 0)
(-0.0162874 -0.0798871 0)
(-0.00285457 -0.0298865 0)
(-0.00320762 0.0383556 0)
(-0.017466 0.0980791 0)
(-0.0433405 0.138174 0)
(-0.0737555 0.159028 0)
(-0.104158 0.162883 0)
(-0.13203 0.152656 0)
(-0.155823 0.131327 0)
(-0.174676 0.101629 0)
(-0.188165 0.0659508 0)
(-0.196064 0.0263876 0)
(-0.198183 -0.0151096 0)
(-0.19428 -0.0565375 0)
(-0.184078 -0.09563 0)
(-0.167364 -0.129674 0)
(-0.144213 -0.155407 0)
(-0.115337 -0.16908 0)
(-0.0824444 -0.166786 0)
(-0.0486352 -0.145111 0)
(-0.0195284 -0.102151 0)
(-0.00353349 -0.0390438 0)
(-0.00384402 0.0481246 0)
(-0.0202465 0.120883 0)
(-0.0490473 0.167737 0)
(-0.0816875 0.190349 0)
(-0.113055 0.192539 0)
(-0.140748 0.178597 0)
(-0.163624 0.152497 0)
(-0.181312 0.117581 0)
(-0.193849 0.076528 0)
(-0.201363 0.0314924 0)
(-0.203859 -0.0156557 0)
(-0.201112 -0.0630425 0)
(-0.19265 -0.108479 0)
(-0.177858 -0.149155 0)
(-0.156225 -0.181398 0)
(-0.12778 -0.200589 0)
(-0.0936445 -0.201408 0)
(-0.0567331 -0.17856 0)
(-0.0234799 -0.128163 0)
(-0.00443553 -0.0501009 0)
(-0.00472553 0.0595673 0)
(-0.0236955 0.146607 0)
(-0.0553848 0.199742 0)
(-0.0893796 0.222774 0)
(-0.120127 0.221874 0)
(-0.145681 0.203171 0)
(-0.165637 0.171826 0)
(-0.180379 0.1318 0)
(-0.190589 0.0859632 0)
(-0.196871 0.0363745 0)
(-0.19951 -0.0153677 0)
(-0.198343 -0.0677355 0)
(-0.192724 -0.118855 0)
(-0.18158 -0.166064 0)
(-0.16365 -0.205472 0)
(-0.13797 -0.231644 0)
(-0.104598 -0.237609 0)
(-0.0657346 -0.215511 0)
(-0.0283781 -0.158358 0)
(-0.00568214 -0.0635487 0)
(-0.00605181 0.073225 0)
(-0.028227 0.175555 0)
(-0.0625115 0.233558 0)
(-0.0962617 0.254731 0)
(-0.123864 0.248715 0)
(-0.144406 0.224011 0)
(-0.158681 0.187094 0)
(-0.168119 0.142452 0)
(-0.174213 0.0929627 0)
(-0.178131 0.0403772 0)
(-0.180497 -0.0141959 0)
(-0.181278 -0.0698144 0)
(-0.179706 -0.1252 0)
(-0.174279 -0.178167 0)
(-0.162902 -0.224958 0)
(-0.143322 -0.259572 0)
(-0.113941 -0.273314 0)
(-0.075395 -0.255054 0)
(-0.034557 -0.193082 0)
(-0.0074864 -0.080101 0)
(-0.00819234 0.0900437 0)
(-0.0344841 0.208013 0)
(-0.0704156 0.267873 0)
(-0.101029 0.283593 0)
(-0.121582 0.269797 0)
(-0.133118 0.237827 0)
(-0.138175 0.195393 0)
(-0.139476 0.147224 0)
(-0.139382 0.0959037 0)
(-0.139611 0.0426178 0)
(-0.141125 -0.0122309 0)
(-0.14407 -0.0685014 0)
(-0.147682 -0.125785 0)
(-0.150181 -0.182758 0)
(-0.14873 -0.236311 0)
(-0.13965 -0.280433 0)
(-0.119099 -0.305013 0)
(-0.0849385 -0.295148 0)
(-0.0424414 -0.23237 0)
(-0.0102162 -0.100834 0)
(-0.0117678 0.111634 0)
(-0.0432611 0.243956 0)
(-0.0783007 0.300026 0)
(-0.100634 0.305082 0)
(-0.10836 0.280449 0)
(-0.105742 0.240372 0)
(-0.097542 0.193272 0)
(-0.0877852 0.143541 0)
(-0.0795165 0.0930311 0)
(-0.0748015 0.0420934 0)
(-0.074819 -0.00972728 0)
(-0.0799061 -0.0632067 0)
(-0.0894768 -0.118983 0)
(-0.1018 -0.176948 0)
(-0.113696 -0.235275 0)
(-0.120312 -0.288871 0)
(-0.115268 -0.327185 0)
(-0.0922692 -0.331786 0)
(-0.0523167 -0.275397 0)
(-0.0144305 -0.127345 0)
(-0.0175495 0.140658 0)
(-0.0547658 0.282142 0)
(-0.0827892 0.324713 0)
(-0.0880856 0.312466 0)
(-0.0751161 0.274448 0)
(-0.052601 0.226762 0)
(-0.0274707 0.177281 0)
(-0.00452857 0.12913 0)
(0.0130835 0.0829091 0)
(0.023424 0.0379456 0)
(0.0253826 -0.00707247 0)
(0.0184922 -0.0537553 0)
(0.00296595 -0.103747 0)
(-0.0200089 -0.158314 0)
(-0.0476957 -0.217495 0)
(-0.0749921 -0.278353 0)
(-0.0935516 -0.331783 0)
(-0.0920665 -0.357676 0)
(-0.0632816 -0.31929 0)
(-0.0206338 -0.161972 0)
(-0.0254499 0.181711 0)
(-0.0657754 0.317769 0)
(-0.0733354 0.331359 0)
(-0.0480812 0.295396 0)
(-0.00558466 0.244206 0)
(0.0412099 0.192375 0)
(0.0846423 0.145042 0)
(0.120524 0.102968 0)
(0.146688 0.0651354 0)
(0.162033 0.0298905 0)
(0.165927 -0.00467093 0)
(0.157922 -0.0406264 0)
(0.137719 -0.0802432 0)
(0.105429 -0.125914 0)
(0.062253 -0.179721 0)
(0.0117988 -0.242015 0)
(-0.0378346 -0.307873 0)
(-0.071682 -0.360139 0)
(-0.0700565 -0.356605 0)
(-0.0279124 -0.208374 0)
(-0.029649 0.239176 0)
(-0.0608418 0.335767 0)
(-0.0219439 0.300501 0)
(0.0505389 0.240125 0)
(0.127568 0.182946 0)
(0.197001 0.135386 0)
(0.254328 0.0973962 0)
(0.29824 0.0668489 0)
(0.328813 0.0413539 0)
(0.346455 0.018778 0)
(0.351364 -0.0027938 0)
(0.343291 -0.025264 0)
(0.321458 -0.0507859 0)
(0.284633 -0.0820457 0)
(0.231564 -0.122443 0)
(0.162175 -0.175666 0)
(0.0798967 -0.243429 0)
(-0.00319204 -0.319134 0)
(-0.0546704 -0.368611 0)
(-0.0284595 -0.267617 0)
(0.00808316 0.281862 0)
(0.019783 0.294972 0)
(0.139065 0.210972 0)
(0.264458 0.143476 0)
(0.364365 0.0971848 0)
(0.44036 0.0657762 0)
(0.496737 0.0442363 0)
(0.536867 0.0288851 0)
(0.563439 0.0171983 0)
(0.578297 0.0074846 0)
(0.582372 -0.00149395 0)
(0.575687 -0.0108447 0)
(0.557301 -0.0218463 0)
(0.525128 -0.036334 0)
(0.475772 -0.0572585 0)
(0.404533 -0.089383 0)
(0.305174 -0.13974 0)
(0.173415 -0.216385 0)
(0.0411715 -0.311654 0)
(0.0184301 -0.299995 0)
(0.299604 0.146091 0)
(0.396272 0.127503 0)
(0.55742 0.0760894 0)
(0.674487 0.0437231 0)
(0.743887 0.0255718 0)
(0.787152 0.015242 0)
(0.815483 0.00921212 0)
(0.833952 0.00550925 0)
(0.845382 0.00302708 0)
(0.851368 0.00114933 0)
(0.852663 -0.000499334 0)
(0.849379 -0.00221496 0)
(0.840997 -0.00433841 0)
(0.826138 -0.00742389 0)
(0.802076 -0.0125321 0)
(0.763619 -0.0217726 0)
(0.699107 -0.0392827 0)
(0.583952 -0.07266 0)
(0.415827 -0.127868 0)
(0.308819 -0.149468 0)
)
;

boundaryField
{
    movingWall
    {
        type            fixedValue;
        value           uniform (1 0 0);
    }
    fixedWalls
    {
        type            noSlip;
    }
    frontAndBack
    {
        type            empty;
    }
}


// ************************************************************************* //
