/*--------------------------------*- C++ -*----------------------------------*\
  =========                 |
  \\      /  F ield         | OpenFOAM: The Open Source CFD Toolbox
   \\    /   O peration     | Website:  https://openfoam.org
    \\  /    A nd           | Version:  8
     \\/     M anipulation  |
\*---------------------------------------------------------------------------*/
FoamFile
{
    version     2.0;
    format      ascii;
    class       volScalarField;
    location    "0.195";
    object      p;
}
// * * * * * * * * * * * * * * * * * * * * * * * * * * * * * * * * * * * * * //

dimensions      [0 2 -2 0 0 0 0];

internalField   nonuniform List<scalar> 
400
(
2.4969e-07
-0.00582627
-0.0129599
-0.018408
-0.0204225
-0.0182274
-0.011763
-0.00147456
0.0118436
0.0271517
0.043243
0.0588179
0.0725705
0.0832985
0.0900426
0.0922582
0.0900202
0.0842425
0.0768836
0.071073
0.00577352
-0.000222579
-0.00580485
-0.00954026
-0.0105943
-0.00842668
-0.00296356
0.00547974
0.0163069
0.0287136
0.0417494
0.0543834
0.0655821
0.0744047
0.0801153
0.0823122
0.0810762
0.0770571
0.0712799
0.0653267
0.0133224
0.00502585
-0.000999437
-0.00442423
-0.00527179
-0.00326129
0.00160573
0.00903095
0.0185048
0.029351
0.0407659
0.0518689
0.0617669
0.0696345
0.0748056
0.0768782
0.075844
0.0720913
0.0658146
0.0575489
0.0201222
0.00868523
0.00121941
-0.00267197
-0.00372311
-0.00188451
0.00273318
0.00978696
0.0187828
0.029097
0.0399934
0.0506548
0.0602334
0.0679164
0.0730044
0.0750042
0.0737708
0.0694642
0.0616153
0.0501207
0.024482
0.00976072
0.000582185
-0.00399142
-0.00530416
-0.00350722
0.00117626
0.00833699
0.0174649
0.0279521
0.0390879
0.0500726
0.0600514
0.0681677
0.0736298
0.0758026
0.0743761
0.0693001
0.0595405
0.0445588
0.0251579
0.00713791
-0.00380933
-0.00906136
-0.0105137
-0.00849933
-0.00335451
0.00443296
0.0143177
0.0256838
0.0378187
0.0499081
0.0610527
0.0703079
0.07674
0.0795235
0.0781476
0.0723453
0.0605557
0.0419136
0.0210764
-0.000272205
-0.0129399
-0.0187117
-0.0200297
-0.0174116
-0.0113142
-0.00231401
0.0089971
0.0219835
0.0359171
0.0499517
0.0631192
0.0743521
0.082529
0.0865775
0.0857304
0.0794594
0.065637
0.0430951
0.0111315
-0.0136237
-0.0278769
-0.0338535
-0.0346005
-0.0308524
-0.0232058
-0.0123366
0.00111452
0.0164942
0.0330629
0.0499437
0.0660929
0.0802989
0.0912095
0.0974391
0.0978804
0.0916481
0.0759119
0.0491377
-0.00597031
-0.034266
-0.0498671
-0.0555438
-0.0550835
-0.0495061
-0.0395832
-0.0261014
-0.00974407
0.00883664
0.0289146
0.0496066
0.0698097
0.0881658
0.103058
0.112711
0.115561
0.110203
0.0928478
0.0614288
-0.0318506
-0.0638685
-0.0804084
-0.0849977
-0.0824094
-0.0740661
-0.060967
-0.0440213
-0.0239351
-0.00131994
0.0231624
0.048677
0.0741104
0.0979855
0.118408
0.133136
0.139998
0.136828
0.118451
0.0819461
-0.0686506
-0.104588
-0.12133
-0.123576
-0.117501
-0.105111
-0.0877012
-0.0663072
-0.0416177
-0.0141358
0.0156251
0.0469717
0.0788726
0.109808
0.137636
0.159596
0.172736
0.173786
0.155528
0.113577
-0.119376
-0.159335
-0.174895
-0.172739
-0.16113
-0.14291
-0.119739
-0.0927565
-0.062556
-0.0294258
0.00639455
0.0444937
0.0840733
0.123719
0.161149
0.193096
0.215676
0.224083
0.208054
0.160633
-0.188595
-0.232215
-0.243915
-0.233926
-0.213674
-0.187134
-0.156352
-0.12248
-0.0858755
-0.0464494
-0.00399218
0.0415596
0.0898607
0.139845
0.189331
0.234699
0.271081
0.291668
0.281742
0.229771
-0.283937
-0.329275
-0.331806
-0.308258
-0.274688
-0.23642
-0.195744
-0.153589
-0.109818
-0.0637226
-0.0144159
0.0388838
0.0965721
0.158291
0.222385
0.285296
0.341401
0.381576
0.38491
0.331824
-0.41928
-0.459641
-0.442326
-0.395771
-0.34211
-0.287721
-0.234597
-0.18291
-0.131589
-0.0789637
-0.0231933
0.0374944
0.10457
0.178851
0.25987
0.344976
0.428618
0.499698
0.529669
0.485378
-0.620496
-0.636716
-0.578655
-0.494175
-0.411225
-0.335644
-0.267765
-0.205961
-0.147518
-0.0893638
-0.0284072
0.0383656
0.113821
0.200483
0.299982
0.412028
0.533029
0.651771
0.732763
0.72238
-0.935894
-0.878492
-0.741724
-0.597935
-0.474382
-0.372649
-0.288857
-0.217749
-0.153938
-0.0924473
-0.0287005
0.0417113
0.123276
0.220728
0.338931
0.482156
0.651994
0.841336
1.01526
1.09749
-1.4764
-1.20661
-0.920491
-0.69138
-0.517299
-0.387538
-0.290054
-0.213328
-0.148112
-0.0872014
-0.0245627
0.0454719
0.12895
0.23308
0.367108
0.542679
0.77129
1.05931
1.40328
1.73013
-2.53963
-1.63054
-1.04443
-0.710955
-0.495749
-0.352092
-0.254528
-0.183577
-0.12616
-0.0735833
-0.0192553
0.0428012
0.119226
0.218794
0.35482
0.547987
0.826392
1.23658
1.91167
2.92418
-4.36665
-2.04462
-0.973538
-0.563182
-0.357851
-0.240151
-0.170122
-0.123782
-0.0874759
-0.0535005
-0.016641
0.0276764
0.0846237
0.161745
0.272424
0.442107
0.718223
1.22571
2.41103
4.84852
)
;

boundaryField
{
    movingWall
    {
        type            zeroGradient;
    }
    fixedWalls
    {
        type            zeroGradient;
    }
    frontAndBack
    {
        type            empty;
    }
}


// ************************************************************************* //
