/*--------------------------------*- C++ -*----------------------------------*\
  =========                 |
  \\      /  F ield         | OpenFOAM: The Open Source CFD Toolbox
   \\    /   O peration     | Website:  https://openfoam.org
    \\  /    A nd           | Version:  8
     \\/     M anipulation  |
\*---------------------------------------------------------------------------*/
FoamFile
{
    version     2.0;
    format      ascii;
    class       surfaceScalarField;
    location    "0.195";
    object      phi;
}
// * * * * * * * * * * * * * * * * * * * * * * * * * * * * * * * * * * * * * //

dimensions      [0 3 -1 0 0 0 0];

internalField   nonuniform List<scalar> 
760
(
1.4238e-08
-1.424e-08
-2.2204e-08
3.64406e-08
-1.1423e-07
9.20274e-08
-2.45403e-07
1.31172e-07
-3.95945e-07
1.50543e-07
-5.4715e-07
1.51205e-07
-6.82918e-07
1.35768e-07
-7.90345e-07
1.07427e-07
-8.59859e-07
6.95156e-08
-8.85284e-07
2.54243e-08
-8.63974e-07
-2.13107e-08
-7.97073e-07
-6.69007e-08
-6.89817e-07
-1.07256e-07
-5.51764e-07
-1.38053e-07
-3.968e-07
-1.54965e-07
-2.42668e-07
-1.54132e-07
-1.09704e-07
-1.32964e-07
-1.84195e-08
-9.12844e-08
1.56784e-08
-3.40977e-08
1.56786e-08
-3.41936e-08
1.99551e-08
-1.8029e-07
1.82537e-07
-4.33796e-07
3.45533e-07
-7.64097e-07
4.61474e-07
-1.13172e-06
5.18161e-07
-1.49659e-06
5.16078e-07
-1.82254e-06
4.6172e-07
-2.07963e-06
3.64515e-07
-2.2453e-06
2.35186e-07
-2.30504e-06
8.51686e-08
-2.25293e-06
-7.34201e-08
-2.09216e-06
-2.27675e-07
-1.83549e-06
-3.63927e-07
-1.50542e-06
-4.68126e-07
-1.13362e-06
-5.26763e-07
-7.59215e-07
-5.28533e-07
-4.25233e-07
-4.66947e-07
-1.72628e-07
-3.4389e-07
-3.07926e-08
-1.75932e-07
-1.51139e-08
-9.21784e-08
1.12133e-07
-3.56818e-07
4.47177e-07
-7.64191e-07
7.52905e-07
-1.26789e-06
9.65173e-07
-1.81385e-06
1.06412e-06
-2.34796e-06
1.05018e-06
-2.82113e-06
9.34897e-07
-3.19248e-06
7.3586e-07
-3.43105e-06
4.73753e-07
-3.51692e-06
1.71043e-07
-3.44203e-06
-1.48314e-07
-3.21083e-06
-4.58875e-07
-2.84085e-06
-7.33903e-07
-2.36277e-06
-9.46209e-07
-1.81952e-06
-1.07001e-06
-1.26394e-06
-1.08412e-06
-7.54195e-07
-9.76692e-07
-3.46819e-07
-7.51267e-07
-8.72966e-08
-4.35454e-07
-1.0241e-07
-1.45133e-07
2.57266e-07
-5.25198e-07
8.27243e-07
-1.08111e-06
1.30882e-06
-1.74669e-06
1.63075e-06
-2.45319e-06
1.77063e-06
-3.13494e-06
1.73193e-06
-3.73359e-06
1.53355e-06
-4.20101e-06
1.20328e-06
-4.5009e-06
7.73645e-07
-4.60988e-06
2.8002e-07
-4.51827e-06
-2.39926e-07
-4.23089e-06
-7.46255e-07
-3.76774e-06
-1.19705e-06
-3.16428e-06
-1.54967e-06
-2.47082e-06
-1.76347e-06
-1.75032e-06
-1.80462e-06
-1.07405e-06
-1.65297e-06
-5.14911e-07
-1.3104e-06
-1.3925e-07
-8.11114e-07
-2.41661e-07
-1.93513e-07
4.50778e-07
-6.84682e-07
1.31841e-06
-1.385e-06
2.00914e-06
-2.20628e-06
2.45203e-06
-3.06415e-06
2.6285e-06
-3.88213e-06
2.54991e-06
-4.59457e-06
2.24599e-06
-5.14844e-06
1.75714e-06
-5.50417e-06
1.12938e-06
-5.63622e-06
4.12063e-07
-5.53351e-06
-3.42629e-07
-5.20029e-06
-1.07948e-06
-4.65703e-06
-1.74031e-06
-3.94141e-06
-2.2653e-06
-3.10849e-06
-2.59639e-06
-2.22962e-06
-2.68348e-06
-1.38909e-06
-2.4935e-06
-6.78221e-07
-2.02127e-06
-1.87685e-07
-1.30165e-06
-4.29346e-07
-2.39838e-07
6.90616e-07
-8.40014e-07
1.91859e-06
-1.68264e-06
2.85177e-06
-2.65607e-06
3.42545e-06
-3.65949e-06
3.63193e-06
-4.60609e-06
3.49651e-06
-5.4244e-06
3.0643e-06
-6.05841e-06
2.39115e-06
-6.46707e-06
1.53804e-06
-6.62373e-06
5.68727e-07
-6.51606e-06
-4.50297e-07
-6.1467e-06
-1.44885e-06
-5.53467e-06
-2.35234e-06
-4.71735e-06
-3.08262e-06
-3.75221e-06
-3.56152e-06
-2.71757e-06
-3.71812e-06
-1.71096e-06
-3.50012e-06
-8.44368e-07
-2.88786e-06
-2.36092e-07
-1.90993e-06
-6.65437e-07
-2.86649e-07
9.77265e-07
-9.96776e-07
2.62872e-06
-1.98149e-06
3.83648e-06
-3.10404e-06
4.548e-06
-4.24673e-06
4.77462e-06
-5.3133e-06
4.56308e-06
-6.22835e-06
3.97934e-06
-6.93521e-06
3.09802e-06
-7.39342e-06
1.99624e-06
-7.57652e-06
7.51834e-07
-7.47112e-06
-5.55703e-07
-7.07721e-06
-1.84276e-06
-6.41018e-06
-3.01936e-06
-5.50414e-06
-3.98866e-06
-4.41592e-06
-4.64975e-06
-3.22854e-06
-4.9055e-06
-2.05242e-06
-4.67624e-06
-1.02226e-06
-3.91802e-06
-2.88199e-07
-2.64399e-06
-9.53636e-07
-3.36254e-07
1.31352e-06
-1.16012e-06
3.45259e-06
-2.28755e-06
4.96391e-06
-3.55427e-06
5.81473e-06
-4.82565e-06
6.046e-06
-5.99786e-06
5.73529e-06
-6.99462e-06
4.97611e-06
-7.76196e-06
3.86536e-06
-8.26283e-06
2.49712e-06
-8.47293e-06
9.61936e-07
-8.37832e-06
-6.50314e-07
-7.97536e-06
-2.24572e-06
-7.2732e-06
-3.72152e-06
-6.29878e-06
-4.96308e-06
-5.10374e-06
-5.84479e-06
-3.77184e-06
-6.2374e-06
-2.42444e-06
-6.02364e-06
-1.22052e-06
-5.12194e-06
-3.47638e-07
-3.51687e-06
-1.30127e-06
-3.90909e-07
1.70443e-06
-1.33473e-06
4.39641e-06
-2.60468e-06
6.23386e-06
-4.00549e-06
7.21554e-06
-5.3862e-06
7.4267e-06
-6.63898e-06
6.98807e-06
-7.69153e-06
6.02866e-06
-8.49746e-06
4.67129e-06
-9.02734e-06
3.027e-06
-9.26182e-06
1.19642e-06
-9.18757e-06
-7.24568e-07
-8.79647e-06
-2.63683e-06
-8.08845e-06
-4.42954e-06
-7.07823e-06
-5.97329e-06
-5.80569e-06
-7.11733e-06
-4.34857e-06
-7.69451e-06
-2.8345e-06
-7.53771e-06
-1.44693e-06
-6.50951e-06
-4.18049e-07
-4.54575e-06
-1.71932e-06
-4.5344e-07
2.15787e-06
-1.52564e-06
5.46861e-06
-2.9348e-06
7.64301e-06
-4.44998e-06
8.73072e-06
-5.90613e-06
8.88286e-06
-7.19757e-06
8.27951e-06
-8.26336e-06
7.09446e-06
-9.07173e-06
5.47965e-06
-9.6065e-06
3.56177e-06
-9.85721e-06
1.44712e-06
-9.81303e-06
-7.68744e-07
-9.461e-06
-2.98886e-06
-8.78875e-06
-5.10179e-06
-7.79268e-06
-6.96936e-06
-6.49194e-06
-8.41808e-06
-4.94776e-06
-9.23869e-06
-3.28497e-06
-9.2005e-06
-1.7086e-06
-8.08588e-06
-5.03562e-07
-5.75079e-06
-2.22289e-06
-5.28359e-07
2.68623e-06
-1.73973e-06
6.67998e-06
-3.2781e-06
9.18138e-06
-4.87182e-06
1.03244e-05
-6.34726e-06
1.03583e-05
-7.61111e-06
9.54336e-06
-8.62467e-06
8.10802e-06
-9.38002e-06
6.235e-06
-9.88132e-06
4.06308e-06
-1.01319e-05
1.69765e-06
-1.01261e-05
-7.74521e-07
-9.84659e-06
-3.26835e-06
-9.26619e-06
-5.68218e-06
-8.35649e-06
-7.87907e-06
-7.1048e-06
-9.66977e-06
-5.54076e-06
-1.08027e-05
-3.77073e-06
-1.09705e-05
-2.01218e-06
-9.84444e-06
-6.09689e-07
-7.15328e-06
-2.83258e-06
-6.23724e-07
3.30995e-06
-1.98756e-06
8.04382e-06
-3.63225e-06
1.08261e-05
-5.24243e-06
1.19346e-05
-6.64823e-06
1.17641e-05
-7.78528e-06
1.06804e-05
-8.65193e-06
8.97467e-06
-9.2753e-06
6.85836e-06
-9.68757e-06
4.47535e-06
-9.91084e-06
1.92093e-06
-9.94821e-06
-7.37149e-07
-9.77948e-06
-3.43708e-06
-9.36166e-06
-6.09999e-06
-8.63625e-06
-8.60448e-06
-7.54687e-06
-1.07592e-05
-6.07192e-06
-1.22777e-05
-4.27447e-06
-1.2768e-05
-2.36375e-06
-1.17552e-05
-7.44804e-07
-8.77222e-06
-3.57738e-06
-7.54162e-07
4.06411e-06
-2.28462e-06
9.57428e-06
-3.98752e-06
1.2529e-05
-5.50986e-06
1.3457e-05
-6.71062e-06
1.29649e-05
-7.5798e-06
1.15496e-05
-8.17148e-06
9.56635e-06
-8.55919e-06
7.24607e-06
-8.80936e-06
4.72552e-06
-8.96669e-06
2.07826e-06
-9.04595e-06
-6.5789e-07
-9.02721e-06
-3.45582e-06
-8.85389e-06
-6.27332e-06
-8.4359e-06
-9.02247e-06
-7.66374e-06
-1.15313e-05
-6.4426e-06
-1.34988e-05
-4.75662e-06
-1.44539e-05
-2.76693e-06
-1.37449e-05
-9.22486e-07
-1.06167e-05
-4.49987e-06
-9.45309e-07
5.00942e-06
-2.64882e-06
1.12778e-05
-4.31161e-06
1.41918e-05
-5.57422e-06
1.47196e-05
-6.37192e-06
1.37626e-05
-6.78479e-06
1.19625e-05
-6.94225e-06
9.7238e-06
-6.97165e-06
7.27547e-06
-6.97479e-06
4.72867e-06
-7.01853e-06
2.122e-06
-7.13057e-06
-5.45849e-07
-7.29559e-06
-3.2908e-06
-7.45026e-06
-6.11865e-06
-7.47925e-06
-8.99348e-06
-7.21901e-06
-1.17915e-05
-6.48352e-06
-1.42343e-05
-5.13392e-06
-1.58035e-05
-3.21522e-06
-1.56636e-05
-1.16446e-06
-1.26674e-05
-5.66432e-06
-1.23742e-06
6.24684e-06
-3.08363e-06
1.3124e-05
-4.50835e-06
1.56165e-05
-5.23546e-06
1.54467e-05
-5.35653e-06
1.38836e-05
-5.08346e-06
1.16894e-05
-4.63279e-06
9.27313e-06
-4.18136e-06
6.82404e-06
-3.85658e-06
4.40389e-06
-3.73928e-06
2.0047e-06
-3.86733e-06
-4.17799e-07
-4.23469e-06
-2.92343e-06
-4.78391e-06
-5.56943e-06
-5.39262e-06
-8.38478e-06
-5.85972e-06
-1.13244e-05
-5.90746e-06
-1.41866e-05
-5.23338e-06
-1.64776e-05
-3.66655e-06
-1.72304e-05
-1.50016e-06
-1.48338e-05
-7.16448e-06
-1.6739e-06
7.92074e-06
-3.51367e-06
1.49638e-05
-4.31589e-06
1.64187e-05
-4.08979e-06
1.52206e-05
-3.1943e-06
1.29881e-05
-2.00031e-06
1.04954e-05
-7.97002e-07
8.06982e-06
2.17259e-07
5.80978e-06
9.16015e-07
3.70513e-06
1.22334e-06
1.69738e-06
1.09984e-06
-2.94302e-07
5.38974e-07
-2.36257e-06
-4.24799e-07
-4.60565e-06
-1.69415e-06
-7.11542e-06
-3.07367e-06
-9.94493e-06
-4.23174e-06
-1.30285e-05
-4.69623e-06
-1.60131e-05
-3.96748e-06
-1.79591e-05
-1.94501e-06
-1.68563e-05
-9.1095e-06
-2.23076e-06
1.01515e-05
-3.59053e-06
1.63235e-05
-3.07825e-06
1.59064e-05
-1.34463e-06
1.3487e-05
8.95972e-07
1.07475e-05
3.1536e-06
8.23777e-06
5.13648e-06
6.08694e-06
6.68684e-06
4.25942e-06
7.72384e-06
2.66813e-06
8.20451e-06
1.21671e-06
8.10187e-06
-1.9167e-07
7.39714e-06
-1.65783e-06
6.08515e-06
-3.29367e-06
4.19774e-06
-5.228e-06
1.853e-06
-7.60019e-06
-6.62556e-07
-1.05129e-05
-2.79271e-06
-1.3883e-05
-3.66236e-06
-1.70895e-05
-2.41162e-06
-1.8107e-05
-1.15211e-05
-2.57385e-06
1.27253e-05
-2.18359e-06
1.59333e-05
7.17765e-07
1.30051e-05
4.46904e-06
9.73569e-06
8.13251e-06
7.08407e-06
1.13005e-05
5.06974e-06
1.38278e-05
3.55965e-06
1.56866e-05
2.4006e-06
1.68901e-05
1.46468e-06
1.74533e-05
6.53557e-07
1.73748e-05
-1.13174e-07
1.6629e-05
-9.12059e-07
1.51658e-05
-1.83051e-06
1.29224e-05
-2.98454e-06
9.86084e-06
-4.53867e-06
6.06131e-06
-6.71341e-06
1.91192e-06
-9.73359e-06
-1.55984e-06
-1.36177e-05
-2.4584e-06
-1.72085e-05
-1.39795e-05
-7.85011e-07
1.35104e-05
4.08076e-06
1.10675e-05
1.02974e-05
6.7884e-06
1.57934e-05
4.23974e-06
2.01576e-05
2.71984e-06
2.34575e-05
1.76987e-06
2.586e-05
1.15707e-06
2.75206e-05
7.40002e-07
2.85531e-05
4.32261e-07
2.90254e-05
1.81211e-07
2.89612e-05
-4.89707e-08
2.83378e-05
-2.8867e-07
2.7081e-05
-5.73697e-07
2.50544e-05
-9.57903e-07
2.20512e-05
-1.53546e-06
1.78151e-05
-2.47736e-06
1.21721e-05
-4.09063e-06
5.47761e-06
-6.9232e-06
-1.29198e-07
-1.16017e-05
-1.41087e-05
1.35104e-05
2.45779e-05
3.13663e-05
3.5606e-05
3.83258e-05
4.00957e-05
4.12528e-05
4.19928e-05
4.24251e-05
4.26063e-05
4.25573e-05
4.22686e-05
4.16949e-05
4.0737e-05
3.92016e-05
3.67242e-05
3.26336e-05
2.57104e-05
1.41087e-05
)
;

boundaryField
{
    movingWall
    {
        type            calculated;
        value           uniform 0;
    }
    fixedWalls
    {
        type            calculated;
        value           uniform 0;
    }
    frontAndBack
    {
        type            empty;
        value           nonuniform List<scalar> 0();
    }
}


// ************************************************************************* //
