/*--------------------------------*- C++ -*----------------------------------*\
  =========                 |
  \\      /  F ield         | OpenFOAM: The Open Source CFD Toolbox
   \\    /   O peration     | Website:  https://openfoam.org
    \\  /    A nd           | Version:  8
     \\/     M anipulation  |
\*---------------------------------------------------------------------------*/
FoamFile
{
    version     2.0;
    format      ascii;
    class       volScalarField;
    location    "0.31";
    object      p;
}
// * * * * * * * * * * * * * * * * * * * * * * * * * * * * * * * * * * * * * //

dimensions      [0 2 -2 0 0 0 0];

internalField   nonuniform List<scalar> 
400
(
3.94244e-06
-0.00582244
-0.0129591
-0.0184105
-0.0204274
-0.0182336
-0.0117693
-0.00147974
0.0118404
0.027151
0.043245
0.0588225
0.0725772
0.0833065
0.0900507
0.0922652
0.0900248
0.0842439
0.0768817
0.0710689
0.00578195
-0.000216446
-0.00580147
-0.00953943
-0.0105954
-0.00842911
-0.00296653
0.00547712
0.0163053
0.0287134
0.0417507
0.0543861
0.065586
0.0744092
0.0801196
0.0823154
0.0810775
0.0770558
0.0712758
0.0653203
0.0133351
0.00503446
-0.000993766
-0.00442098
-0.0052704
-0.00326126
0.00160494
0.00902993
0.0185041
0.0293509
0.0407666
0.0518703
0.0617688
0.0696365
0.0748072
0.0768786
0.0758427
0.0720877
0.065808
0.0575389
0.0201383
0.00869596
0.00122672
-0.00266706
-0.00372022
-0.00188319
0.00273342
0.0097866
0.0187822
0.0290966
0.0399933
0.0506551
0.0602338
0.0679167
0.073004
0.0750027
0.0737676
0.0694586
0.0616063
0.050107
0.0245002
0.00977267
0.000590264
-0.00398581
-0.00530067
-0.00350548
0.00117672
0.00833654
0.0174639
0.0279508
0.0390866
0.0500715
0.0600503
0.0681664
0.0736278
0.0757994
0.0743712
0.0692928
0.0595295
0.0445424
0.0251759
0.00714955
-0.00380157
-0.00905614
-0.0105106
-0.00849807
-0.00335468
0.00443165
0.0143156
0.0256812
0.0378159
0.0499053
0.0610501
0.0703051
0.0767366
0.0795191
0.0781415
0.0723369
0.0605436
0.0418958
0.021092
-0.000262472
-0.0129337
-0.018708
-0.020028
-0.0174117
-0.0113159
-0.00231698
0.00899321
0.0219789
0.0359123
0.049947
0.0631147
0.0743478
0.0825244
0.0865722
0.0857237
0.0794507
0.0656249
0.0430776
0.0111423
-0.0136175
-0.0278737
-0.0338524
-0.0346012
-0.0308548
-0.0232098
-0.0123418
0.00110837
0.0164874
0.033056
0.049937
0.0660866
0.080293
0.0912038
0.0974332
0.0978736
0.0916398
0.0759008
0.0491221
-0.00596612
-0.0342647
-0.0498678
-0.055546
-0.0550871
-0.0495112
-0.0395897
-0.0261092
-0.00975277
0.00882741
0.0289053
0.0495977
0.0698015
0.0881583
0.103051
0.112705
0.115554
0.110196
0.0928386
0.0614165
-0.0318543
-0.063873
-0.0804136
-0.0850037
-0.0824163
-0.0740742
-0.0609764
-0.0440318
-0.0239464
-0.00133165
0.0231508
0.048666
0.0741003
0.0979767
0.1184
0.13313
0.139992
0.136822
0.118445
0.0819381
-0.0686626
-0.104599
-0.12134
-0.123586
-0.117511
-0.105122
-0.0877132
-0.06632
-0.0416312
-0.0141496
0.0156115
0.046959
0.0788612
0.109799
0.137628
0.15959
0.172731
0.173782
0.155524
0.113574
-0.119396
-0.159351
-0.174909
-0.172752
-0.161143
-0.142924
-0.119753
-0.0927711
-0.0625711
-0.0294411
0.0063797
0.0444799
0.0840611
0.123709
0.161141
0.193091
0.215672
0.224081
0.208054
0.160635
-0.18862
-0.232235
-0.243933
-0.233942
-0.213689
-0.187149
-0.156366
-0.122495
-0.0858913
-0.0464653
-0.00400748
0.0415456
0.0898485
0.139835
0.189324
0.234694
0.271079
0.291668
0.281745
0.229778
-0.283965
-0.329297
-0.331825
-0.308274
-0.274703
-0.236434
-0.195758
-0.153604
-0.109833
-0.0637381
-0.0144307
0.0388705
0.0965609
0.158283
0.222379
0.285293
0.341401
0.381578
0.384916
0.331835
-0.419309
-0.459663
-0.442344
-0.395786
-0.342124
-0.287734
-0.23461
-0.182923
-0.131602
-0.0789778
-0.0232067
0.0374825
0.10456
0.178844
0.259867
0.344975
0.42862
0.499703
0.529677
0.485392
-0.620523
-0.636736
-0.578671
-0.494188
-0.411236
-0.335653
-0.267775
-0.205971
-0.14753
-0.0893759
-0.0284187
0.0383555
0.113814
0.200478
0.29998
0.41203
0.533033
0.651778
0.732774
0.722396
-0.935916
-0.878508
-0.741736
-0.597944
-0.474389
-0.372655
-0.288864
-0.217757
-0.153947
-0.092457
-0.0287101
0.0417028
0.12327
0.220724
0.338931
0.482159
0.652
0.841345
1.01527
1.0975
-1.47642
-1.20663
-0.920499
-0.691385
-0.517302
-0.387541
-0.290058
-0.213333
-0.148118
-0.0872091
-0.0245707
0.0454645
0.128944
0.233077
0.367109
0.542683
0.771297
1.05932
1.40329
1.73014
-2.53964
-1.63054
-1.04444
-0.710957
-0.495749
-0.352091
-0.254528
-0.18358
-0.126165
-0.0735894
-0.0192624
0.042794
0.119219
0.218789
0.354818
0.547989
0.826397
1.23658
1.91168
2.9242
-4.36666
-2.04463
-0.97354
-0.56318
-0.357846
-0.240146
-0.170118
-0.123781
-0.0874776
-0.0535051
-0.0166479
0.0276682
0.0846155
0.161738
0.272419
0.442106
0.718225
1.22571
2.41104
4.84853
)
;

boundaryField
{
    movingWall
    {
        type            zeroGradient;
    }
    fixedWalls
    {
        type            zeroGradient;
    }
    frontAndBack
    {
        type            empty;
    }
}


// ************************************************************************* //
