/*--------------------------------*- C++ -*----------------------------------*\
  =========                 |
  \\      /  F ield         | OpenFOAM: The Open Source CFD Toolbox
   \\    /   O peration     | Website:  https://openfoam.org
    \\  /    A nd           | Version:  8
     \\/     M anipulation  |
\*---------------------------------------------------------------------------*/
FoamFile
{
    version     2.0;
    format      ascii;
    class       surfaceScalarField;
    location    "0.31";
    object      phi;
}
// * * * * * * * * * * * * * * * * * * * * * * * * * * * * * * * * * * * * * //

dimensions      [0 3 -1 0 0 0 0];

internalField   nonuniform List<scalar> 
760
(
1.42318e-08
-1.42648e-08
-2.22096e-08
3.64411e-08
-1.14263e-07
9.2053e-08
-2.45478e-07
1.31215e-07
-3.96071e-07
1.50593e-07
-5.47328e-07
1.51256e-07
-6.83143e-07
1.35814e-07
-7.90606e-07
1.07464e-07
-8.60145e-07
6.95387e-08
-8.85576e-07
2.54318e-08
-8.64257e-07
-2.13196e-08
-7.97331e-07
-6.69256e-08
-6.90037e-07
-1.07295e-07
-5.51935e-07
-1.38101e-07
-3.96918e-07
-1.55017e-07
-2.42735e-07
-1.54183e-07
-1.09728e-07
-1.33007e-07
-1.84165e-08
-9.13113e-08
1.56878e-08
-3.41043e-08
1.56881e-08
-3.42127e-08
1.9948e-08
-1.80364e-07
1.82591e-07
-4.33963e-07
3.45653e-07
-7.64388e-07
4.6164e-07
-1.13214e-06
5.1835e-07
-1.49715e-06
5.16267e-07
-1.82323e-06
4.61888e-07
-2.08041e-06
3.64646e-07
-2.24614e-06
2.35267e-07
-2.3059e-06
8.51932e-08
-2.25376e-06
-7.34552e-08
-2.09292e-06
-2.27767e-07
-1.83615e-06
-3.64066e-07
-1.50595e-06
-4.683e-07
-1.13402e-06
-5.26955e-07
-7.59479e-07
-5.28721e-07
-4.25378e-07
-4.67109e-07
-1.72684e-07
-3.44006e-07
-3.0801e-08
-1.75987e-07
-1.51129e-08
-9.2222e-08
1.1217e-07
-3.56975e-07
4.47344e-07
-7.64512e-07
7.5319e-07
-1.26841e-06
9.65538e-07
-1.81459e-06
1.06453e-06
-2.3489e-06
1.05058e-06
-2.82226e-06
9.35246e-07
-3.19374e-06
7.36131e-07
-3.4324e-06
4.7392e-07
-3.51829e-06
1.71092e-07
-3.44336e-06
-1.48389e-07
-3.21206e-06
-4.59067e-07
-2.84193e-06
-7.34193e-07
-2.36366e-06
-9.46572e-07
-1.82021e-06
-1.07041e-06
-1.26441e-06
-1.08451e-06
-7.5448e-07
-9.77043e-07
-3.46951e-07
-7.51534e-07
-8.73312e-08
-4.35607e-07
-1.02444e-07
-1.45201e-07
2.57372e-07
-5.25429e-07
8.27571e-07
-1.08157e-06
1.30933e-06
-1.7474e-06
1.63137e-06
-2.45418e-06
1.7713e-06
-3.13618e-06
1.73258e-06
-3.73506e-06
1.53412e-06
-4.20264e-06
1.20372e-06
-4.50264e-06
7.73914e-07
-4.61164e-06
2.80096e-07
-4.51998e-06
-2.4005e-07
-4.23248e-06
-7.46569e-07
-3.76914e-06
-1.19753e-06
-3.16545e-06
-1.55026e-06
-2.47173e-06
-1.76413e-06
-1.75097e-06
-1.80528e-06
-1.07445e-06
-1.65356e-06
-5.1511e-07
-1.31087e-06
-1.39307e-07
-8.11409e-07
-2.41752e-07
-1.93598e-07
4.50969e-07
-6.8496e-07
1.31893e-06
-1.38554e-06
2.00991e-06
-2.20711e-06
2.45295e-06
-3.06529e-06
2.62948e-06
-3.88355e-06
2.55084e-06
-4.59623e-06
2.24681e-06
-5.15028e-06
1.75777e-06
-5.50612e-06
1.12976e-06
-5.63819e-06
4.12166e-07
-5.53544e-06
-3.4281e-07
-5.20208e-06
-1.07993e-06
-4.65862e-06
-1.74099e-06
-3.94274e-06
-2.26614e-06
-3.10953e-06
-2.59733e-06
-2.23038e-06
-2.68443e-06
-1.38956e-06
-2.49438e-06
-6.78463e-07
-2.02197e-06
-1.87757e-07
-1.30211e-06
-4.29509e-07
-2.39928e-07
6.90897e-07
-8.40306e-07
1.91931e-06
-1.6832e-06
2.8528e-06
-2.65692e-06
3.42667e-06
-3.66065e-06
3.63321e-06
-4.60754e-06
3.49773e-06
-5.42608e-06
3.06535e-06
-6.06027e-06
2.39195e-06
-6.46903e-06
1.53853e-06
-6.62573e-06
5.68858e-07
-6.518e-06
-4.50532e-07
-6.14851e-06
-1.44943e-06
-5.53628e-06
-2.35321e-06
-4.71871e-06
-3.08372e-06
-3.75329e-06
-3.56275e-06
-2.71836e-06
-3.71937e-06
-1.71146e-06
-3.50127e-06
-8.44624e-07
-2.88881e-06
-2.36168e-07
-1.91057e-06
-6.65677e-07
-2.86733e-07
9.7763e-07
-9.97047e-07
2.62962e-06
-1.98201e-06
3.83776e-06
-3.10483e-06
4.54949e-06
-4.24779e-06
4.77617e-06
-5.31461e-06
4.56455e-06
-6.22988e-06
3.98061e-06
-6.93691e-06
3.09898e-06
-7.39521e-06
1.99683e-06
-7.57834e-06
7.51989e-07
-7.47288e-06
-5.55985e-07
-7.07886e-06
-1.84345e-06
-6.41166e-06
-3.02041e-06
-5.50539e-06
-3.98998e-06
-4.41691e-06
-4.65123e-06
-3.22926e-06
-4.90701e-06
-2.05289e-06
-4.67765e-06
-1.02251e-06
-3.91919e-06
-2.88271e-07
-2.6448e-06
-9.53948e-07
-3.36322e-07
1.31395e-06
-1.16034e-06
3.45364e-06
-2.28796e-06
4.96538e-06
-3.5549e-06
5.81643e-06
-4.8265e-06
6.04776e-06
-5.99891e-06
5.73696e-06
-6.99585e-06
4.97755e-06
-7.76331e-06
3.86645e-06
-8.26426e-06
2.49778e-06
-8.47439e-06
9.62115e-07
-8.37974e-06
-6.5063e-07
-7.97669e-06
-2.2465e-06
-7.2744e-06
-3.72271e-06
-6.2998e-06
-4.96458e-06
-5.10456e-06
-5.84647e-06
-3.77245e-06
-6.23913e-06
-2.42483e-06
-6.02526e-06
-1.22072e-06
-5.12331e-06
-3.477e-07
-3.51782e-06
-1.30165e-06
-3.90952e-07
1.7049e-06
-1.33487e-06
4.39756e-06
-2.60494e-06
6.23545e-06
-4.00589e-06
7.21738e-06
-5.38674e-06
7.42861e-06
-6.63965e-06
6.98988e-06
-7.69232e-06
6.03022e-06
-8.49834e-06
4.67247e-06
-9.02828e-06
3.02772e-06
-9.26278e-06
1.19662e-06
-9.18851e-06
-7.24899e-07
-8.79735e-06
-2.63766e-06
-8.08925e-06
-4.43081e-06
-7.07892e-06
-5.9749e-06
-5.80625e-06
-7.11915e-06
-4.34899e-06
-7.69638e-06
-2.83478e-06
-7.53947e-06
-1.44707e-06
-6.51101e-06
-4.18093e-07
-4.5468e-06
-1.71974e-06
-4.53453e-07
2.15836e-06
-1.52568e-06
5.46979e-06
-2.93487e-06
7.64465e-06
-4.4501e-06
8.73261e-06
-5.90631e-06
8.88482e-06
-7.19779e-06
8.28136e-06
-8.26364e-06
7.09606e-06
-9.07204e-06
5.48087e-06
-9.60685e-06
3.56252e-06
-9.85757e-06
1.44734e-06
-9.8134e-06
-7.69071e-07
-9.46135e-06
-2.9897e-06
-8.78908e-06
-5.10308e-06
-7.79298e-06
-6.97101e-06
-6.49219e-06
-8.41994e-06
-4.94795e-06
-9.24062e-06
-3.2851e-06
-9.20233e-06
-1.70867e-06
-8.08744e-06
-5.03585e-07
-5.75189e-06
-2.22333e-06
-5.28339e-07
2.6867e-06
-1.73967e-06
6.68112e-06
-3.27799e-06
9.18297e-06
-4.87165e-06
1.03263e-05
-6.34704e-06
1.03602e-05
-7.61086e-06
9.54518e-06
-8.6244e-06
8.1096e-06
-9.37973e-06
6.23621e-06
-9.88104e-06
4.06383e-06
-1.01316e-05
1.69788e-06
-1.01258e-05
-7.74823e-07
-9.84637e-06
-3.26916e-06
-9.26602e-06
-5.68343e-06
-8.35636e-06
-7.88067e-06
-7.10471e-06
-9.67159e-06
-5.54071e-06
-1.08046e-05
-3.77071e-06
-1.09723e-05
-2.01217e-06
-9.84598e-06
-6.09688e-07
-7.15437e-06
-2.83301e-06
-6.23672e-07
3.31037e-06
-1.9874e-06
8.04485e-06
-3.63195e-06
1.08275e-05
-5.24199e-06
1.19363e-05
-6.64765e-06
1.17659e-05
-7.78458e-06
1.06821e-05
-8.65113e-06
8.97615e-06
-9.27444e-06
6.85951e-06
-9.68668e-06
4.47607e-06
-9.90996e-06
1.92116e-06
-9.94737e-06
-7.37411e-07
-9.77871e-06
-3.43782e-06
-9.361e-06
-6.10115e-06
-8.6357e-06
-8.60596e-06
-7.54645e-06
-1.07608e-05
-6.07163e-06
-1.22794e-05
-4.27429e-06
-1.27697e-05
-2.36366e-06
-1.17566e-05
-7.44779e-07
-8.77325e-06
-3.57779e-06
-7.54085e-07
4.06445e-06
-2.28438e-06
9.57514e-06
-3.98707e-06
1.25302e-05
-5.50919e-06
1.34584e-05
-6.70973e-06
1.29664e-05
-7.57872e-06
1.15511e-05
-8.17024e-06
9.56768e-06
-8.55784e-06
7.24711e-06
-8.80795e-06
4.72618e-06
-8.96528e-06
2.07849e-06
-9.04459e-06
-6.581e-07
-9.02596e-06
-3.45645e-06
-8.85278e-06
-6.27432e-06
-8.43497e-06
-9.02377e-06
-7.66302e-06
-1.15328e-05
-6.44208e-06
-1.35004e-05
-4.7563e-06
-1.44554e-05
-2.76677e-06
-1.37461e-05
-9.2244e-07
-1.06176e-05
-4.50023e-06
-9.45217e-07
5.00967e-06
-2.64853e-06
1.12785e-05
-4.31106e-06
1.41927e-05
-5.5734e-06
1.47208e-05
-6.37083e-06
1.37639e-05
-6.78346e-06
1.19637e-05
-6.9407e-06
9.72492e-06
-6.96995e-06
7.27636e-06
-6.97301e-06
4.72924e-06
-7.01673e-06
2.12221e-06
-7.12882e-06
-5.46006e-07
-7.29396e-06
-3.29131e-06
-7.44882e-06
-6.11947e-06
-7.47804e-06
-8.99455e-06
-7.21805e-06
-1.17928e-05
-6.48284e-06
-1.42356e-05
-5.13349e-06
-1.58048e-05
-3.21501e-06
-1.56646e-05
-1.16439e-06
-1.26682e-05
-5.66463e-06
-1.23732e-06
6.24699e-06
-3.08333e-06
1.31245e-05
-4.50777e-06
1.56172e-05
-5.23459e-06
1.54476e-05
-5.35536e-06
1.38846e-05
-5.08201e-06
1.16904e-05
-4.6311e-06
9.27402e-06
-4.17949e-06
6.82474e-06
-3.8546e-06
4.40435e-06
-3.73726e-06
2.00488e-06
-3.86536e-06
-4.17907e-07
-4.23286e-06
-2.92382e-06
-4.78227e-06
-5.57005e-06
-5.39123e-06
-8.38559e-06
-5.85862e-06
-1.13254e-05
-5.90667e-06
-1.41876e-05
-5.23288e-06
-1.64786e-05
-3.6663e-06
-1.72312e-05
-1.50009e-06
-1.48344e-05
-7.16471e-06
-1.67382e-06
7.92081e-06
-3.5134e-06
1.4964e-05
-4.31536e-06
1.64192e-05
-4.08897e-06
1.52212e-05
-3.19319e-06
1.29888e-05
-1.99891e-06
1.04961e-05
-7.95351e-07
8.07045e-06
2.19104e-07
5.81029e-06
9.17985e-07
3.70547e-06
1.22535e-06
1.69751e-06
1.10182e-06
-2.94372e-07
5.40831e-07
-2.36283e-06
-4.23134e-07
-4.60609e-06
-1.69274e-06
-7.11598e-06
-3.07254e-06
-9.94558e-06
-4.23092e-06
-1.30292e-05
-4.69571e-06
-1.60138e-05
-3.96721e-06
-1.79597e-05
-1.94493e-06
-1.68567e-05
-9.10965e-06
-2.2307e-06
1.01515e-05
-3.59032e-06
1.63237e-05
-3.07783e-06
1.59067e-05
-1.34396e-06
1.34873e-05
8.96912e-07
1.0748e-05
3.15481e-06
8.2382e-06
5.13792e-06
6.08734e-06
6.68847e-06
4.25974e-06
7.7256e-06
2.66834e-06
8.20631e-06
1.2168e-06
8.10365e-06
-1.91712e-07
7.39881e-06
-1.65799e-06
6.08666e-06
-3.29393e-06
4.19902e-06
-5.22834e-06
1.85402e-06
-7.60058e-06
-6.61808e-07
-1.05134e-05
-2.79223e-06
-1.38834e-05
-3.66212e-06
-1.70898e-05
-2.41155e-06
-1.81073e-05
-1.15212e-05
-2.57382e-06
1.27253e-05
-2.18347e-06
1.59333e-05
7.18033e-07
1.30052e-05
4.4695e-06
9.73585e-06
8.13319e-06
7.08427e-06
1.13014e-05
5.06995e-06
1.38289e-05
3.55985e-06
1.56879e-05
2.40076e-06
1.68915e-05
1.46478e-06
1.74547e-05
6.53597e-07
1.73762e-05
-1.13197e-07
1.66303e-05
-9.12139e-07
1.5167e-05
-1.83064e-06
1.29234e-05
-2.9847e-06
9.86164e-06
-4.53885e-06
6.06189e-06
-6.7136e-06
1.91229e-06
-9.73377e-06
-1.55965e-06
-1.36179e-05
-2.45834e-06
-1.72086e-05
-1.39795e-05
-7.85013e-07
1.35103e-05
4.08079e-06
1.10675e-05
1.02975e-05
6.78842e-06
1.57936e-05
4.23979e-06
2.0158e-05
2.7199e-06
2.3458e-05
1.76993e-06
2.58607e-05
1.15713e-06
2.75214e-05
7.40045e-07
2.85539e-05
4.32288e-07
2.90263e-05
1.81219e-07
2.89621e-05
-4.89801e-08
2.83386e-05
-2.88695e-07
2.70817e-05
-5.73734e-07
2.5055e-05
-9.57947e-07
2.20516e-05
-1.53551e-06
1.78154e-05
-2.47741e-06
1.21724e-05
-4.09067e-06
5.47771e-06
-6.92323e-06
-1.29174e-07
-1.16017e-05
-1.41087e-05
1.35103e-05
2.45779e-05
3.13663e-05
3.56061e-05
3.8326e-05
4.00959e-05
4.1253e-05
4.19931e-05
4.24254e-05
4.26066e-05
4.25576e-05
4.22689e-05
4.16952e-05
4.07372e-05
3.92017e-05
3.67243e-05
3.26336e-05
2.57104e-05
1.41087e-05
)
;

boundaryField
{
    movingWall
    {
        type            calculated;
        value           uniform 0;
    }
    fixedWalls
    {
        type            calculated;
        value           uniform 0;
    }
    frontAndBack
    {
        type            empty;
        value           nonuniform List<scalar> 0();
    }
}


// ************************************************************************* //
