/*--------------------------------*- C++ -*----------------------------------*\
  =========                 |
  \\      /  F ield         | OpenFOAM: The Open Source CFD Toolbox
   \\    /   O peration     | Website:  https://openfoam.org
    \\  /    A nd           | Version:  8
     \\/     M anipulation  |
\*---------------------------------------------------------------------------*/
FoamFile
{
    version     2.0;
    format      ascii;
    class       volVectorField;
    location    "0.31";
    object      U;
}
// * * * * * * * * * * * * * * * * * * * * * * * * * * * * * * * * * * * * * //

dimensions      [0 1 -1 0 0 0 0];

internalField   nonuniform List<vector> 
400
(
(0.000253385 -0.000250402 0)
(0.000141194 0.000111429 0)
(-0.00117692 0.000564562 0)
(-0.00348088 0.00088491 0)
(-0.00637704 0.00104562 0)
(-0.0094688 0.00106165 0)
(-0.0124021 0.000957767 0)
(-0.0148839 0.000760376 0)
(-0.0166883 0.000494607 0)
(-0.0176571 0.00018455 0)
(-0.017701 -0.000145253 0)
(-0.016804 -0.000468326 0)
(-0.0150291 -0.000755353 0)
(-0.0125244 -0.000974189 0)
(-0.00952583 -0.00109111 0)
(-0.00635462 -0.00107393 0)
(-0.00340046 -0.000898065 0)
(-0.00108639 -0.000556359 0)
(0.000196395 -9.03681e-05 0)
(0.000267838 0.000262364 0)
(-7.74575e-05 -0.000169335 0)
(-0.00161145 0.00164474 0)
(-0.00569255 0.00361707 0)
(-0.0117181 0.00503449 0)
(-0.0188912 0.00574284 0)
(-0.0263992 0.00575982 0)
(-0.0334672 0.00517134 0)
(-0.0394246 0.00409226 0)
(-0.0437415 0.00264748 0)
(-0.0460446 0.000966887 0)
(-0.0461269 -0.000813149 0)
(-0.043959 -0.00254689 0)
(-0.0396991 -0.00407837 0)
(-0.033701 -0.00524478 0)
(-0.0265121 -0.00588621 0)
(-0.0188537 -0.00586453 0)
(-0.0115661 -0.00509449 0)
(-0.00551305 -0.00358925 0)
(-0.00149303 -0.00155907 0)
(-4.25829e-05 0.000227435 0)
(-0.000528572 0.00109157 0)
(-0.00371118 0.00573596 0)
(-0.0105884 0.0102239 0)
(-0.0199907 0.0134069 0)
(-0.0307633 0.0149454 0)
(-0.0418201 0.0148379 0)
(-0.0521173 0.0132549 0)
(-0.0607412 0.0104556 0)
(-0.0669662 0.00674163 0)
(-0.0702794 0.00243877 0)
(-0.0703974 -0.00210637 0)
(-0.0672813 -0.00652504 0)
(-0.0611496 -0.0104286 0)
(-0.0524861 -0.0134203 0)
(-0.0420352 -0.0151226 0)
(-0.0307726 -0.0152248 0)
(-0.0198282 -0.0135553 0)
(-0.0103631 -0.0101784 0)
(-0.00354837 -0.00555082 0)
(-0.000476824 -0.0009488 0)
(-0.00092817 0.00347965 0)
(-0.00569121 0.01222 0)
(-0.0153011 0.0199206 0)
(-0.0279156 0.0251964 0)
(-0.0419836 0.0275954 0)
(-0.0561766 0.0271359 0)
(-0.0692491 0.0241076 0)
(-0.0801223 0.0189528 0)
(-0.0879445 0.0121949 0)
(-0.092115 0.0044049 0)
(-0.0922996 -0.00380767 0)
(-0.0884466 -0.0117958 0)
(-0.0808018 -0.018881 0)
(-0.0699202 -0.0243749 0)
(-0.056667 -0.0276261 0)
(-0.0421932 -0.0281003 0)
(-0.0278555 -0.0254964 0)
(-0.0150931 -0.0198907 0)
(-0.00550482 -0.0119271 0)
(-0.000861562 -0.00322472 0)
(-0.00127887 0.00687742 0)
(-0.00753572 0.0209525 0)
(-0.019804 0.0325086 0)
(-0.0355335 0.040101 0)
(-0.0527415 0.0432879 0)
(-0.069856 0.0421904 0)
(-0.0854603 0.0372755 0)
(-0.0983571 0.0292114 0)
(-0.107616 0.0187762 0)
(-0.112584 0.00681345 0)
(-0.112893 -0.00577993 0)
(-0.108471 -0.0180536 0)
(-0.0995589 -0.0290097 0)
(-0.0867363 -0.0376306 0)
(-0.0709334 -0.0429426 0)
(-0.0534286 -0.0441265 0)
(-0.0357834 -0.0406766 0)
(-0.0197345 -0.0325909 0)
(-0.00737033 -0.0205896 0)
(-0.00120363 -0.00649785 0)
(-0.00160746 0.011215 0)
(-0.00931768 0.0318728 0)
(-0.0242084 0.0479492 0)
(-0.0430012 0.0580687 0)
(-0.0632549 0.0619336 0)
(-0.0831501 0.0598777 0)
(-0.101121 0.0526252 0)
(-0.115888 0.0411235 0)
(-0.126484 0.0264356 0)
(-0.132233 0.00969248 0)
(-0.132745 -0.00791567 0)
(-0.127919 -0.0251304 0)
(-0.117962 -0.0406225 0)
(-0.10343 -0.0530162 0)
(-0.0852662 -0.0609627 0)
(-0.0648335 -0.0632765 0)
(-0.0438841 -0.0591388 0)
(-0.0244769 -0.0483418 0)
(-0.00925399 -0.031556 0)
(-0.00153769 -0.010728 0)
(-0.00193998 0.0164762 0)
(-0.0111209 0.0449717 0)
(-0.0286494 0.0662296 0)
(-0.0504782 0.0790548 0)
(-0.0736825 0.0834414 0)
(-0.0962006 0.0800694 0)
(-0.116348 0.0700202 0)
(-0.13281 0.0545816 0)
(-0.144626 0.0351297 0)
(-0.151136 0.0130841 0)
(-0.151944 -0.0100856 0)
(-0.146911 -0.0328304 0)
(-0.136177 -0.0534962 0)
(-0.120219 -0.0703325 0)
(-0.0999295 -0.0815605 0)
(-0.076699 -0.0855279 0)
(-0.0524385 -0.0809593 0)
(-0.0295439 -0.0672735 0)
(-0.0112832 -0.0449373 0)
(-0.00190001 -0.0159508 0)
(-0.00229996 0.0226937 0)
(-0.0130247 0.0602976 0)
(-0.0332499 0.0873587 0)
(-0.0580781 0.102991 0)
(-0.0840722 0.107659 0)
(-0.10895 0.102555 0)
(-0.130964 0.0892389 0)
(-0.14883 0.0694068 0)
(-0.161662 0.0447692 0)
(-0.168863 0.0170191 0)
(-0.170058 -0.0121324 0)
(-0.165067 -0.0408904 0)
(-0.153925 -0.0673101 0)
(-0.136966 -0.0892678 0)
(-0.11494 -0.104506 0)
(-0.0891735 -0.11079 0)
(-0.0616691 -0.106207 0)
(-0.0351474 -0.0895749 0)
(-0.0135855 -0.0609465 0)
(-0.00232627 -0.0222765 0)
(-0.00271159 0.0299454 0)
(-0.0151077 0.0779525 0)
(-0.038114 0.11135 0)
(-0.065847 0.129743 0)
(-0.0943248 0.13431 0)
(-0.121096 0.126966 0)
(-0.144441 0.109896 0)
(-0.16321 0.0852769 0)
(-0.176683 0.0551642 0)
(-0.184402 0.0214861 0)
(-0.186054 -0.0138734 0)
(-0.181418 -0.0489533 0)
(-0.170391 -0.0815884 0)
(-0.153078 -0.109317 0)
(-0.129968 -0.129374 0)
(-0.102184 -0.138821 0)
(-0.0716881 -0.13488 0)
(-0.0414662 -0.115464 0)
(-0.0162877 -0.0798917 0)
(-0.00285464 -0.0298883 0)
(-0.00320764 0.0383578 0)
(-0.0174661 0.0980847 0)
(-0.0433407 0.138182 0)
(-0.073756 0.159038 0)
(-0.104159 0.162892 0)
(-0.132031 0.152665 0)
(-0.155824 0.131334 0)
(-0.174677 0.101635 0)
(-0.188166 0.0659544 0)
(-0.196066 0.0263886 0)
(-0.198184 -0.0151112 0)
(-0.194282 -0.0565417 0)
(-0.18408 -0.0956364 0)
(-0.167365 -0.129682 0)
(-0.144214 -0.155416 0)
(-0.115338 -0.169089 0)
(-0.0824451 -0.166795 0)
(-0.0486357 -0.145118 0)
(-0.0195285 -0.102156 0)
(-0.00353353 -0.0390457 0)
(-0.00384398 0.0481267 0)
(-0.0202463 0.120889 0)
(-0.0490469 0.167745 0)
(-0.0816869 0.190358 0)
(-0.113054 0.192549 0)
(-0.140747 0.178607 0)
(-0.163623 0.152505 0)
(-0.18131 0.117587 0)
(-0.193848 0.0765317 0)
(-0.201362 0.0314934 0)
(-0.203858 -0.0156573 0)
(-0.201111 -0.0630467 0)
(-0.192649 -0.108485 0)
(-0.177858 -0.149164 0)
(-0.156224 -0.181407 0)
(-0.12778 -0.200598 0)
(-0.0936443 -0.201417 0)
(-0.0567331 -0.178567 0)
(-0.0234798 -0.128168 0)
(-0.00443553 -0.0501028 0)
(-0.00472544 0.0595693 0)
(-0.023695 0.146613 0)
(-0.0553838 0.199749 0)
(-0.0893778 0.222783 0)
(-0.120124 0.221883 0)
(-0.145678 0.20318 0)
(-0.165634 0.171833 0)
(-0.180375 0.131805 0)
(-0.190585 0.0859668 0)
(-0.196867 0.0363756 0)
(-0.199505 -0.0153691 0)
(-0.198339 -0.0677394 0)
(-0.192721 -0.118861 0)
(-0.181577 -0.166071 0)
(-0.163647 -0.20548 0)
(-0.137968 -0.231653 0)
(-0.104597 -0.237618 0)
(-0.065734 -0.215519 0)
(-0.0283779 -0.158363 0)
(-0.0056821 -0.0635505 0)
(-0.00605168 0.0732267 0)
(-0.0282263 0.175559 0)
(-0.06251 0.233565 0)
(-0.0962591 0.254739 0)
(-0.12386 0.248724 0)
(-0.144402 0.224019 0)
(-0.158675 0.187101 0)
(-0.168112 0.142457 0)
(-0.174207 0.092966 0)
(-0.178124 0.0403783 0)
(-0.180491 -0.0141972 0)
(-0.181271 -0.0698179 0)
(-0.1797 -0.125206 0)
(-0.174274 -0.178174 0)
(-0.162898 -0.224966 0)
(-0.143319 -0.25958 0)
(-0.113939 -0.273322 0)
(-0.0753939 -0.255061 0)
(-0.0345566 -0.193086 0)
(-0.00748633 -0.0801027 0)
(-0.00819218 0.090045 0)
(-0.0344833 0.208017 0)
(-0.0704137 0.267878 0)
(-0.101026 0.2836 0)
(-0.121578 0.269804 0)
(-0.133112 0.237834 0)
(-0.138168 0.195399 0)
(-0.139469 0.147229 0)
(-0.139374 0.0959066 0)
(-0.139602 0.0426188 0)
(-0.141116 -0.0122319 0)
(-0.144062 -0.0685044 0)
(-0.147675 -0.12579 0)
(-0.150175 -0.182764 0)
(-0.148724 -0.236318 0)
(-0.139646 -0.28044 0)
(-0.119097 -0.305019 0)
(-0.0849371 -0.295154 0)
(-0.0424409 -0.232374 0)
(-0.0102161 -0.100835 0)
(-0.0117676 0.111635 0)
(-0.0432603 0.243959 0)
(-0.0782987 0.30003 0)
(-0.10063 0.305087 0)
(-0.108355 0.280455 0)
(-0.105735 0.240377 0)
(-0.0975345 0.193277 0)
(-0.0877767 0.143545 0)
(-0.0795072 0.0930336 0)
(-0.0747919 0.0420942 0)
(-0.0748094 -0.00972803 0)
(-0.0798969 -0.063209 0)
(-0.0894685 -0.118987 0)
(-0.101793 -0.176953 0)
(-0.11369 -0.23528 0)
(-0.120308 -0.288877 0)
(-0.115265 -0.327191 0)
(-0.0922676 -0.33179 0)
(-0.0523161 -0.2754 0)
(-0.0144304 -0.127346 0)
(-0.0175494 0.140658 0)
(-0.054765 0.282144 0)
(-0.0827875 0.324716 0)
(-0.0880825 0.31247 0)
(-0.0751115 0.274452 0)
(-0.052595 0.226766 0)
(-0.0274633 0.177285 0)
(-0.00452015 0.129132 0)
(0.0130927 0.082911 0)
(0.0234336 0.0379463 0)
(0.0253922 -0.007073 0)
(0.0185014 -0.053757 0)
(0.00297433 -0.103749 0)
(-0.0200016 -0.158317 0)
(-0.0476897 -0.217498 0)
(-0.0749876 -0.278357 0)
(-0.0935486 -0.331787 0)
(-0.0920648 -0.35768 0)
(-0.0632809 -0.319292 0)
(-0.0206337 -0.161973 0)
(-0.0254498 0.181711 0)
(-0.0657749 0.31777 0)
(-0.073334 0.331361 0)
(-0.0480787 0.295398 0)
(-0.0055808 0.244209 0)
(0.0412151 0.192378 0)
(0.0846488 0.145045 0)
(0.120531 0.10297 0)
(0.146696 0.0651367 0)
(0.162041 0.0298909 0)
(0.165936 -0.00467128 0)
(0.15793 -0.0406275 0)
(0.137727 -0.080245 0)
(0.105436 -0.125916 0)
(0.0622585 -0.179724 0)
(0.0118029 -0.242018 0)
(-0.0378318 -0.307875 0)
(-0.0716805 -0.360141 0)
(-0.0700559 -0.356607 0)
(-0.0279123 -0.208375 0)
(-0.029649 0.239176 0)
(-0.0608415 0.335767 0)
(-0.021943 0.300502 0)
(0.0505407 0.240126 0)
(0.12757 0.182947 0)
(0.197005 0.135388 0)
(0.254333 0.0973977 0)
(0.298246 0.06685 0)
(0.32882 0.0413547 0)
(0.346462 0.0187783 0)
(0.351371 -0.002794 0)
(0.343298 -0.0252646 0)
(0.321464 -0.0507869 0)
(0.284638 -0.082047 0)
(0.231569 -0.122445 0)
(0.162178 -0.175668 0)
(0.0798989 -0.24343 0)
(-0.00319082 -0.319135 0)
(-0.0546699 -0.368612 0)
(-0.0284594 -0.267618 0)
(0.00808313 0.281861 0)
(0.019783 0.294972 0)
(0.139066 0.210972 0)
(0.264459 0.143476 0)
(0.364366 0.0971854 0)
(0.440362 0.0657769 0)
(0.49674 0.0442369 0)
(0.536871 0.0288856 0)
(0.563443 0.0171986 0)
(0.578302 0.00748469 0)
(0.582376 -0.00149405 0)
(0.575692 -0.010845 0)
(0.557305 -0.0218467 0)
(0.525132 -0.0363345 0)
(0.475774 -0.0572591 0)
(0.404535 -0.0893836 0)
(0.305175 -0.139741 0)
(0.173416 -0.216386 0)
(0.0411718 -0.311655 0)
(0.0184302 -0.299995 0)
(0.299604 0.146091 0)
(0.396272 0.127503 0)
(0.55742 0.0760895 0)
(0.674487 0.0437232 0)
(0.743888 0.025572 0)
(0.787152 0.0152421 0)
(0.815484 0.00921223 0)
(0.833954 0.00550933 0)
(0.845384 0.00302713 0)
(0.85137 0.00114934 0)
(0.852664 -0.000499363 0)
(0.849381 -0.00221502 0)
(0.840998 -0.00433849 0)
(0.826139 -0.00742399 0)
(0.802077 -0.0125322 0)
(0.76362 -0.0217727 0)
(0.699108 -0.0392828 0)
(0.583952 -0.0726601 0)
(0.415827 -0.127868 0)
(0.308819 -0.149468 0)
)
;

boundaryField
{
    movingWall
    {
        type            fixedValue;
        value           uniform (1 0 0);
    }
    fixedWalls
    {
        type            noSlip;
    }
    frontAndBack
    {
        type            empty;
    }
}


// ************************************************************************* //
