/*--------------------------------*- C++ -*----------------------------------*\
  =========                 |
  \\      /  F ield         | OpenFOAM: The Open Source CFD Toolbox
   \\    /   O peration     | Website:  https://openfoam.org
    \\  /    A nd           | Version:  8
     \\/     M anipulation  |
\*---------------------------------------------------------------------------*/
FoamFile
{
    version     2.0;
    format      ascii;
    class       volScalarField;
    location    "0.095";
    object      p;
}
// * * * * * * * * * * * * * * * * * * * * * * * * * * * * * * * * * * * * * //

dimensions      [0 2 -2 0 0 0 0];

internalField   nonuniform List<scalar> 
400
(
-6.85011e-08
-0.00576511
-0.0128188
-0.01819
-0.0201543
-0.0179579
-0.0115488
-0.00136994
0.0117924
0.0269129
0.0428056
0.0581946
0.0717978
0.0824324
0.0891519
0.0914151
0.0892881
0.0836618
0.0764557
0.0707492
0.00560419
-0.000325467
-0.0058451
-0.00952724
-0.0105468
-0.00837506
-0.00294342
0.00543284
0.0161613
0.0284467
0.0413529
0.0538659
0.0649691
0.0737351
0.0794369
0.0816748
0.080523
0.0766158
0.0709585
0.0651094
0.0129174
0.00474122
-0.00120011
-0.00456907
-0.00537961
-0.00335473
0.00150144
0.00889032
0.0183044
0.0290734
0.0404036
0.0514268
0.0612627
0.0690969
0.0742706
0.0763842
0.0754255
0.0717733
0.065618
0.0574901
0.0195
0.00824135
0.000888418
-0.00293356
-0.00393656
-0.00206974
0.00255564
0.00959682
0.0185609
0.0288281
0.0396689
0.0502762
0.0598126
0.0674757
0.0725734
0.0746167
0.0734588
0.0692547
0.0615428
0.0502272
0.0237113
0.009205
0.000158507
-0.00433456
-0.00558813
-0.00374934
0.000959045
0.00812795
0.0172475
0.0277116
0.0388142
0.049763
0.059713
0.0678172
0.0732922
0.0755086
0.0741574
0.0691861
0.0595762
0.044804
0.0243249
0.00653215
-0.00427678
-0.00944323
-0.0108286
-0.00876089
-0.0035761
0.00423731
0.0141329
0.0254948
0.037613
0.0496791
0.0608024
0.0700478
0.0764908
0.0793134
0.078008
0.0723078
0.0606715
0.0422515
0.0202748
-0.000860515
-0.0133978
-0.0190859
-0.0203336
-0.0176538
-0.0115042
-0.00246344
0.00887406
0.0218708
0.0357994
0.0498181
0.0629663
0.0741863
0.0823663
0.0864432
0.0856551
0.0794759
0.0657979
0.0434711
0.0104505
-0.0141302
-0.0282745
-0.0341766
-0.0348549
-0.0310405
-0.0233325
-0.0124108
0.00107921
0.0164804
0.0330522
0.0499202
0.0660478
0.0802327
0.091133
0.097374
0.0978553
0.0916951
0.0760813
0.0494956
-0.00645607
-0.034637
-0.0501626
-0.0557805
-0.0552583
-0.049614
-0.0396236
-0.0260803
-0.00967411
0.00893679
0.0290231
0.0497027
0.0698787
0.0882017
0.103066
0.112708
0.115572
0.110258
0.0929907
0.0617161
-0.0320911
-0.064069
-0.0805756
-0.0851274
-0.0824887
-0.0740822
-0.060913
-0.0438989
-0.0237556
-0.00110307
0.0233915
0.0488926
0.0742914
0.0981197
0.118494
0.133186
0.140032
0.13687
0.118537
0.0821187
-0.0686295
-0.104609
-0.121364
-0.123598
-0.117488
-0.105043
-0.0875627
-0.0660952
-0.0413412
-0.0138151
0.0159615
0.0472929
0.0791515
0.110026
0.137787
0.159684
0.172776
0.173797
0.155533
0.113602
-0.119116
-0.159196
-0.174817
-0.172676
-0.161052
-0.142787
-0.119548
-0.0924868
-0.0622137
-0.0290317
0.00680864
0.0448915
0.0844217
0.123993
0.161338
0.1932
0.215704
0.224046
0.207961
0.160488
-0.188158
-0.231967
-0.243772
-0.233829
-0.213583
-0.187009
-0.156159
-0.122202
-0.0855152
-0.0460273
-0.00354409
0.0419916
0.0902373
0.140137
0.189523
0.234787
0.271072
0.291567
0.28154
0.229446
-0.28342
-0.328995
-0.331667
-0.308193
-0.274652
-0.23636
-0.195616
-0.153365
-0.109497
-0.0633261
-0.0139844
0.0393014
0.0969299
0.158555
0.222537
0.285332
0.341328
0.381394
0.384593
0.331324
-0.418802
-0.45942
-0.442271
-0.395819
-0.342206
-0.2878
-0.2346
-0.182801
-0.131363
-0.0786444
-0.0228262
0.0378531
0.104867
0.179046
0.259944
0.344926
0.428453
0.49942
0.529236
0.48472
-0.620176
-0.636645
-0.578766
-0.49441
-0.41152
-0.335919
-0.267952
-0.206015
-0.147433
-0.0891623
-0.0281402
0.0386352
0.114033
0.200589
0.299959
0.411874
0.532757
0.651389
0.732228
0.721601
-0.935825
-0.87864
-0.742057
-0.598404
-0.474913
-0.373152
-0.289254
-0.217992
-0.154016
-0.0923844
-0.0285492
0.0418843
0.123404
0.220755
0.338826
0.481912
0.651627
0.840863
1.01465
1.09665
-1.47662
-1.207
-0.921057
-0.692084
-0.518061
-0.388262
-0.290657
-0.213757
-0.148353
-0.0872745
-0.0245166
0.0455703
0.129029
0.233078
0.366981
0.542409
0.770886
1.0588
1.40264
1.7293
-2.54009
-1.63112
-1.0452
-0.71187
-0.496731
-0.353037
-0.255345
-0.184202
-0.126564
-0.0737757
-0.0192783
0.0428827
0.119336
0.218861
0.354787
0.547817
0.826074
1.23612
1.91108
2.92345
-4.36723
-2.04533
-0.97446
-0.564305
-0.359084
-0.24137
-0.171207
-0.124641
-0.088057
-0.0537968
-0.0166866
0.027816
0.0848647
0.161999
0.272614
0.442173
0.718126
1.22543
2.41058
4.84793
)
;

boundaryField
{
    movingWall
    {
        type            zeroGradient;
    }
    fixedWalls
    {
        type            zeroGradient;
    }
    frontAndBack
    {
        type            empty;
    }
}


// ************************************************************************* //
