/*--------------------------------*- C++ -*----------------------------------*\
  =========                 |
  \\      /  F ield         | OpenFOAM: The Open Source CFD Toolbox
   \\    /   O peration     | Website:  https://openfoam.org
    \\  /    A nd           | Version:  8
     \\/     M anipulation  |
\*---------------------------------------------------------------------------*/
FoamFile
{
    version     2.0;
    format      ascii;
    class       volVectorField;
    location    "0.095";
    object      U;
}
// * * * * * * * * * * * * * * * * * * * * * * * * * * * * * * * * * * * * * //

dimensions      [0 1 -1 0 0 0 0];

internalField   nonuniform List<vector> 
400
(
(0.000246521 -0.000245975 0)
(0.000136765 0.000109106 0)
(-0.00115728 0.000554826 0)
(-0.00341612 0.000868789 0)
(-0.00625493 0.00102589 0)
(-0.00928398 0.00104118 0)
(-0.0121568 0.000939003 0)
(-0.014587 0.000745345 0)
(-0.0163542 0.000484904 0)
(-0.0173039 0.000181259 0)
(-0.0173491 -0.000141679 0)
(-0.0164739 -0.000458166 0)
(-0.0147392 -0.000739642 0)
(-0.0122889 -0.000954691 0)
(-0.009353 -0.00107023 0)
(-0.00624508 -0.00105453 0)
(-0.00334673 -0.000883146 0)
(-0.00107326 -0.00054855 0)
(0.000189447 -9.08324e-05 0)
(0.00026226 0.00025681 0)
(-7.84376e-05 -0.000163481 0)
(-0.00158306 0.00161324 0)
(-0.00558211 0.00354712 0)
(-0.0114852 0.00493447 0)
(-0.0185101 0.00562617 0)
(-0.0258604 0.00564076 0)
(-0.0327782 0.00506326 0)
(-0.0386086 0.00400659 0)
(-0.0428346 0.00259315 0)
(-0.045092 0.000949687 0)
(-0.0451787 -0.000791086 0)
(-0.0430651 -0.00248747 0)
(-0.0389042 -0.00398758 0)
(-0.0330398 -0.00513241 0)
(-0.0260051 -0.00576512 0)
(-0.0185043 -0.00574941 0)
(-0.0113601 -0.00500006 0)
(-0.00541988 -0.00352766 0)
(-0.00147051 -0.00153608 0)
(-4.32326e-05 0.000220349 0)
(-0.000518946 0.00107228 0)
(-0.0036383 0.00562337 0)
(-0.0103786 0.0100197 0)
(-0.0195914 0.013134 0)
(-0.0301439 0.0146359 0)
(-0.0409718 0.0145264 0)
(-0.0510538 0.0129744 0)
(-0.0594975 0.0102348 0)
(-0.0655943 0.00660288 0)
(-0.068844 0.00239642 0)
(-0.0689694 -0.00204741 0)
(-0.0659312 -0.00637003 0)
(-0.0599407 -0.0101929 0)
(-0.0514677 -0.0131286 0)
(-0.0412376 -0.0148067 0)
(-0.0302034 -0.0149202 0)
(-0.0194717 -0.013297 0)
(-0.0101823 -0.0099952 0)
(-0.00348867 -0.00545768 0)
(-0.000469621 -0.000936546 0)
(-0.000910534 0.00341351 0)
(-0.00558212 0.0119799 0)
(-0.0150095 0.0195244 0)
(-0.0273829 0.0246875 0)
(-0.041179 0.0270295 0)
(-0.0550945 0.0265726 0)
(-0.0679091 0.0236038 0)
(-0.0785679 0.0185585 0)
(-0.0862388 0.0119488 0)
(-0.0903349 0.00433149 0)
(-0.090529 -0.00370027 0)
(-0.0867688 -0.0115172 0)
(-0.0792915 -0.0184583 0)
(-0.0686368 -0.0238508 0)
(-0.0556483 -0.0270553 0)
(-0.0414515 -0.0275436 0)
(-0.0273768 -0.0250139 0)
(-0.014839 -0.0195323 0)
(-0.00541361 -0.0117228 0)
(-0.000847749 -0.00317365 0)
(-0.00125612 0.00674668 0)
(-0.00740357 0.0205515 0)
(-0.0194611 0.0318807 0)
(-0.0349192 0.0393157 0)
(-0.0518269 0.0424277 0)
(-0.0686388 0.041342 0)
(-0.0839646 0.0365214 0)
(-0.0966311 0.0286238 0)
(-0.105728 0.018411 0)
(-0.110617 0.00670589 0)
(-0.110935 -0.00561848 0)
(-0.106611 -0.0176374 0)
(-0.0978779 -0.0283783 0)
(-0.0852984 -0.0368457 0)
(-0.0697813 -0.0420831 0)
(-0.052579 -0.0432802 0)
(-0.0352257 -0.0399305 0)
(-0.0194318 -0.0320197 0)
(-0.00725812 -0.0202438 0)
(-0.0011855 -0.00639335 0)
(-0.00158284 0.0110112 0)
(-0.00917803 0.0312943 0)
(-0.0238508 0.0470713 0)
(-0.0423669 0.0569901 0)
(-0.062318 0.0607653 0)
(-0.0819107 0.0587334 0)
(-0.0996042 0.0516128 0)
(-0.114143 0.0403368 0)
(-0.124578 0.0259476 0)
(-0.130246 0.009549 0)
(-0.130766 -0.00770013 0)
(-0.126034 -0.0245747 0)
(-0.116252 -0.0397778 0)
(-0.101959 -0.0519628 0)
(-0.0840789 -0.0598031 0)
(-0.06395 -0.0621252 0)
(-0.0432978 -0.0581105 0)
(-0.0241547 -0.0475381 0)
(-0.00913279 -0.0310517 0)
(-0.00151765 -0.010562 0)
(-0.00191664 0.0161994 0)
(-0.0109898 0.0442182 0)
(-0.0283158 0.0651077 0)
(-0.0498891 0.0776925 0)
(-0.0728153 0.0819768 0)
(-0.0950561 0.0786418 0)
(-0.11495 0.0687608 0)
(-0.131202 0.0536044 0)
(-0.142869 0.0345232 0)
(-0.149302 0.0129038 0)
(-0.150113 -0.00982193 0)
(-0.145161 -0.0321452 0)
(-0.134581 -0.0524513 0)
(-0.118839 -0.0690245 0)
(-0.098808 -0.080113 0)
(-0.0758579 -0.0840803 0)
(-0.0518756 -0.0796532 0)
(-0.0292319 -0.0662374 0)
(-0.0111648 -0.0442724 0)
(-0.00188022 -0.0157215 0)
(-0.0022808 0.0223526 0)
(-0.0129174 0.0593904 0)
(-0.0329771 0.0860234 0)
(-0.0575964 0.101381 0)
(-0.0833626 0.105936 0)
(-0.108012 0.10088 0)
(-0.129816 0.0877628 0)
(-0.147506 0.0682611 0)
(-0.16021 0.0440556 0)
(-0.167343 0.0168019 0)
(-0.168534 -0.0118325 0)
(-0.163602 -0.0400981 0)
(-0.152582 -0.0660953 0)
(-0.135795 -0.0877403 0)
(-0.11398 -0.102807 0)
(-0.0884476 -0.10908 0)
(-0.0611787 -0.104651 0)
(-0.0348732 -0.0883267 0)
(-0.0134805 -0.0601333 0)
(-0.00230856 -0.0219884 0)
(-0.0026991 0.0295562 0)
(-0.0150373 0.0769304 0)
(-0.0379338 0.109854 0)
(-0.0655264 0.127945 0)
(-0.0938484 0.13239 0)
(-0.120461 0.125101 0)
(-0.143656 0.108251 0)
(-0.162297 0.083997 0)
(-0.175675 0.0543618 0)
(-0.183337 0.0212327 0)
(-0.184976 -0.0135539 0)
(-0.180372 -0.0480868 0)
(-0.169421 -0.0802497 0)
(-0.152222 -0.107625 0)
(-0.129257 -0.127481 0)
(-0.101638 -0.136904 0)
(-0.0713138 -0.133123 0)
(-0.0412539 -0.114042 0)
(-0.0162054 -0.0789554 0)
(-0.00284049 -0.0295507 0)
(-0.00320369 0.0379428 0)
(-0.0174422 0.0970002 0)
(-0.0432764 0.136597 0)
(-0.0736355 0.157133 0)
(-0.103971 0.160855 0)
(-0.131768 0.150682 0)
(-0.155487 0.129582 0)
(-0.174271 0.100266 0)
(-0.187703 0.065088 0)
(-0.195562 0.0261015 0)
(-0.197659 -0.0147921 0)
(-0.193757 -0.0556417 0)
(-0.183577 -0.0942319 0)
(-0.166906 -0.127895 0)
(-0.14382 -0.153406 0)
(-0.115023 -0.167042 0)
(-0.0822218 -0.164906 0)
(-0.0485047 -0.143578 0)
(-0.019476 -0.101133 0)
(-0.00352408 -0.0386724 0)
(-0.00384956 0.0477125 0)
(-0.0202737 0.119803 0)
(-0.0491096 0.166153 0)
(-0.0817854 0.188438 0)
(-0.113181 0.190487 0)
(-0.140893 0.176592 0)
(-0.163776 0.150717 0)
(-0.18146 0.116181 0)
(-0.193985 0.0756312 0)
(-0.201478 0.0311778 0)
(-0.203948 -0.0153589 0)
(-0.201169 -0.0621577 0)
(-0.192674 -0.10708 0)
(-0.17785 -0.147363 0)
(-0.156192 -0.17937 0)
(-0.127733 -0.19851 0)
(-0.0935965 -0.199477 0)
(-0.056697 -0.176975 0)
(-0.0234621 -0.127103 0)
(-0.00443158 -0.0497105 0)
(-0.00474034 0.0591834 0)
(-0.0237725 0.145589 0)
(-0.0555705 0.198236 0)
(-0.0896903 0.220942 0)
(-0.12056 0.219894 0)
(-0.146225 0.201223 0)
(-0.166271 0.170085 0)
(-0.181077 0.13042 0)
(-0.191323 0.0850669 0)
(-0.197609 0.0360403 0)
(-0.200219 -0.0151093 0)
(-0.198993 -0.0669051 0)
(-0.193288 -0.117522 0)
(-0.182039 -0.164341 0)
(-0.163995 -0.20351 0)
(-0.138204 -0.22962 0)
(-0.104736 -0.235717 0)
(-0.0657998 -0.213948 0)
(-0.0283978 -0.157305 0)
(-0.00568413 -0.0631581 0)
(-0.00607437 0.0728944 0)
(-0.0283461 0.174656 0)
(-0.0628018 0.232207 0)
(-0.0967545 0.253067 0)
(-0.124563 0.246897 0)
(-0.145299 0.222206 0)
(-0.15974 0.185468 0)
(-0.169308 0.141151 0)
(-0.175487 0.0921042 0)
(-0.179436 0.0400369 0)
(-0.181778 -0.0139881 0)
(-0.182479 -0.0690757 0)
(-0.180778 -0.123993 0)
(-0.175182 -0.176594 0)
(-0.163611 -0.223154 0)
(-0.14383 -0.2577 0)
(-0.114262 -0.271552 0)
(-0.0755611 -0.253587 0)
(-0.0346144 -0.192087 0)
(-0.00749452 -0.0797298 0)
(-0.00821973 0.0897855 0)
(-0.0346307 0.207279 0)
(-0.0707766 0.266739 0)
(-0.101648 0.282169 0)
(-0.122471 0.268216 0)
(-0.134267 0.23624 0)
(-0.139556 0.193949 0)
(-0.141045 0.146058 0)
(-0.14108 0.0951214 0)
(-0.141369 0.0422895 0)
(-0.142869 -0.0120774 0)
(-0.145725 -0.0678808 0)
(-0.149178 -0.124751 0)
(-0.15146 -0.1814 0)
(-0.149752 -0.234745 0)
(-0.140399 -0.278797 0)
(-0.119584 -0.303463 0)
(-0.0851963 -0.293849 0)
(-0.0425339 -0.231483 0)
(-0.0102303 -0.100501 0)
(-0.0117959 0.111457 0)
(-0.0434154 0.243411 0)
(-0.0786865 0.299146 0)
(-0.101305 0.303944 0)
(-0.109337 0.27916 0)
(-0.107023 0.239059 0)
(-0.0991019 0.192064 0)
(-0.0895769 0.142556 0)
(-0.0814752 0.0923613 0)
(-0.0768484 0.0417985 0)
(-0.0768669 -0.00962367 0)
(-0.0818657 -0.0627171 0)
(-0.0912642 -0.118153 0)
(-0.103344 -0.17585 0)
(-0.114944 -0.234002 0)
(-0.121239 -0.287536 0)
(-0.115878 -0.325914 0)
(-0.0925992 -0.330712 0)
(-0.052438 -0.274661 0)
(-0.01445 -0.127068 0)
(-0.0175735 0.140562 0)
(-0.0549051 0.281785 0)
(-0.0831486 0.324094 0)
(-0.0887264 0.311631 0)
(-0.0760699 0.273477 0)
(-0.0538751 0.225757 0)
(-0.0290467 0.176347 0)
(-0.00636263 0.128361 0)
(0.0110572 0.082381 0)
(0.0212883 0.0377051 0)
(0.0232305 -0.00700771 0)
(0.0164195 -0.0533964 0)
(0.00106284 -0.10313 0)
(-0.0216648 -0.157495 0)
(-0.0490464 -0.216545 0)
(-0.0760058 -0.277355 0)
(-0.0942273 -0.330829 0)
(-0.0924372 -0.356867 0)
(-0.0634205 -0.318733 0)
(-0.020657 -0.161764 0)
(-0.0254653 0.181679 0)
(-0.0658791 0.317576 0)
(-0.0736213 0.330978 0)
(-0.0486149 0.29485 0)
(-0.00640841 0.243551 0)
(0.0400778 0.191685 0)
(0.0832118 0.144395 0)
(0.118833 0.102433 0)
(0.144798 0.0647663 0)
(0.160025 0.0297201 0)
(0.163892 -0.00463159 0)
(0.155953 -0.040387 0)
(0.135904 -0.0798307 0)
(0.103843 -0.125368 0)
(0.0609524 -0.179091 0)
(0.0108155 -0.241355 0)
(-0.0384962 -0.307242 0)
(-0.0720492 -0.359604 0)
(-0.0701961 -0.356238 0)
(-0.0279364 -0.208241 0)
(-0.0296531 0.239184 0)
(-0.0608966 0.335692 0)
(-0.0221256 0.300312 0)
(0.0501657 0.239829 0)
(0.126954 0.182577 0)
(0.196121 0.134992 0)
(0.253184 0.0970242 0)
(0.296862 0.0665418 0)
(0.327255 0.0411434 0)
(0.344788 0.0186826 0)
(0.349668 -0.00276918 0)
(0.341648 -0.0251267 0)
(0.319944 -0.0505532 0)
(0.28331 -0.081742 0)
(0.230479 -0.122097 0)
(0.161353 -0.175307 0)
(0.0793417 -0.243088 0)
(-0.00350103 -0.318848 0)
(-0.0547876 -0.368419 0)
(-0.0284793 -0.267555 0)
(0.00808924 0.281881 0)
(0.0197758 0.294963 0)
(0.138992 0.210912 0)
(0.264263 0.143367 0)
(0.364002 0.0970416 0)
(0.439805 0.0656206 0)
(0.495988 0.0440898 0)
(0.535946 0.0287657 0)
(0.562386 0.0171189 0)
(0.577166 0.00745186 0)
(0.581222 -0.00147907 0)
(0.574577 -0.0107864 0)
(0.556284 -0.0217526 0)
(0.524246 -0.0362153 0)
(0.475054 -0.0571264 0)
(0.403995 -0.0892489 0)
(0.304814 -0.139616 0)
(0.173219 -0.216284 0)
(0.0411019 -0.311592 0)
(0.0184207 -0.299983 0)
(0.299613 0.1461 0)
(0.39629 0.127509 0)
(0.557423 0.0760838 0)
(0.674446 0.0437061 0)
(0.743777 0.0255472 0)
(0.78696 0.0152145 0)
(0.815209 0.00918659 0)
(0.833606 0.00548929 0)
(0.844983 0.00301501 0)
(0.85094 0.00114608 0)
(0.852232 -0.00049399 0)
(0.848969 -0.00220224 0)
(0.840628 -0.00432016 0)
(0.825826 -0.00740222 0)
(0.801831 -0.012509 0)
(0.763443 -0.0217501 0)
(0.698997 -0.0392625 0)
(0.5839 -0.0726443 0)
(0.415817 -0.12786 0)
(0.308822 -0.14947 0)
)
;

boundaryField
{
    movingWall
    {
        type            fixedValue;
        value           uniform (1 0 0);
    }
    fixedWalls
    {
        type            noSlip;
    }
    frontAndBack
    {
        type            empty;
    }
}


// ************************************************************************* //
