/*--------------------------------*- C++ -*----------------------------------*\
  =========                 |
  \\      /  F ield         | OpenFOAM: The Open Source CFD Toolbox
   \\    /   O peration     | Website:  https://openfoam.org
    \\  /    A nd           | Version:  8
     \\/     M anipulation  |
\*---------------------------------------------------------------------------*/
FoamFile
{
    version     2.0;
    format      ascii;
    class       volVectorField;
    location    "1.71";
    object      U;
}
// * * * * * * * * * * * * * * * * * * * * * * * * * * * * * * * * * * * * * //

dimensions      [0 1 -1 0 0 0 0];

internalField   nonuniform List<vector> 
400
(
(0.0249927 1.00644e-17 0)
(0.0249927 -2.82064e-17 0)
(0.0249927 -1.3704e-17 0)
(0.0249927 -2.36687e-18 0)
(0.0249927 5.0803e-18 0)
(0.0249927 6.02557e-18 0)
(0.0249927 9.0779e-18 0)
(0.0249927 8.57592e-18 0)
(0.0249927 9.53071e-18 0)
(0.0249927 9.85154e-18 0)
(0.0249927 1.13775e-17 0)
(0.0249927 1.07045e-17 0)
(0.0249927 6.98261e-18 0)
(0.0249927 6.34922e-18 0)
(0.0249927 4.53199e-18 0)
(0.0249927 4.82571e-18 0)
(0.0249927 5.53863e-18 0)
(0.0249927 5.69986e-19 0)
(0.0249927 -9.78083e-18 0)
(0.0249927 -2.42608e-17 0)
(0.0749783 7.25165e-17 0)
(0.0749783 -6.69685e-19 0)
(0.0749783 1.07084e-17 0)
(0.0749783 1.943e-17 0)
(0.0749783 1.85478e-17 0)
(0.0749783 2.41956e-17 0)
(0.0749783 3.09007e-17 0)
(0.0749783 2.93569e-17 0)
(0.0749783 2.79683e-17 0)
(0.0749783 2.61013e-17 0)
(0.0749783 2.56188e-17 0)
(0.0749783 2.17808e-17 0)
(0.0749783 1.38777e-17 0)
(0.0749783 1.99533e-17 0)
(0.0749783 1.99001e-17 0)
(0.0749783 2.36951e-17 0)
(0.0749783 3.45461e-17 0)
(0.0749783 2.69173e-17 0)
(0.0749783 1.45618e-17 0)
(0.0749783 2.0892e-18 0)
(0.124964 8.66437e-18 0)
(0.124964 1.21931e-17 0)
(0.124964 2.19784e-17 0)
(0.124964 3.17372e-17 0)
(0.124964 3.11721e-17 0)
(0.124964 2.56424e-17 0)
(0.124964 3.10179e-17 0)
(0.124964 2.58909e-17 0)
(0.124964 2.35787e-17 0)
(0.124964 1.9548e-17 0)
(0.124964 2.13121e-17 0)
(0.124964 1.12747e-17 0)
(0.124964 3.68398e-18 0)
(0.124964 5.93889e-18 0)
(0.124964 2.89363e-17 0)
(0.124964 3.64705e-17 0)
(0.124964 5.20789e-17 0)
(0.124964 4.79964e-17 0)
(0.124964 3.09786e-17 0)
(0.124964 1.87646e-17 0)
(0.174951 4.4649e-17 0)
(0.174951 4.86008e-17 0)
(0.174951 4.89058e-17 0)
(0.174951 5.59914e-17 0)
(0.174951 3.84544e-17 0)
(0.174951 2.09895e-17 0)
(0.174951 5.73891e-18 0)
(0.174951 4.16479e-18 0)
(0.174951 3.43668e-18 0)
(0.174951 1.48888e-18 0)
(0.174951 -1.4322e-17 0)
(0.174951 -2.74092e-17 0)
(0.174951 -3.31228e-17 0)
(0.174951 -2.8769e-17 0)
(0.174951 3.78593e-18 0)
(0.174951 3.88424e-17 0)
(0.174951 7.56439e-17 0)
(0.174951 1.0782e-16 0)
(0.174951 9.98978e-17 0)
(0.174951 7.21385e-17 0)
(0.22494 1.06306e-16 0)
(0.22494 8.754e-17 0)
(0.22494 8.01878e-17 0)
(0.22494 7.28148e-17 0)
(0.22494 2.42892e-17 0)
(0.22494 8.23115e-18 0)
(0.22494 -8.74342e-18 0)
(0.22494 -2.11876e-17 0)
(0.22494 -2.15685e-17 0)
(0.22494 -4.66789e-17 0)
(0.22494 -5.76377e-17 0)
(0.22494 -9.01195e-17 0)
(0.22494 -8.23578e-17 0)
(0.22494 -5.7214e-17 0)
(0.22494 -1.6354e-17 0)
(0.22494 4.90127e-17 0)
(0.22494 1.19031e-16 0)
(0.22494 1.68168e-16 0)
(0.22494 1.91745e-16 0)
(0.22494 1.53663e-16 0)
(0.274929 1.53069e-16 0)
(0.274929 1.37058e-16 0)
(0.274929 1.05963e-16 0)
(0.274929 5.63556e-17 0)
(0.274929 6.87565e-18 0)
(0.274929 -1.26354e-17 0)
(0.274929 -1.85946e-17 0)
(0.274929 -3.7869e-17 0)
(0.274929 -7.81905e-17 0)
(0.274929 -1.00116e-16 0)
(0.274929 -1.02602e-16 0)
(0.274929 -1.31002e-16 0)
(0.274929 -1.13374e-16 0)
(0.274929 -7.02502e-17 0)
(0.274929 -6.059e-18 0)
(0.274929 7.81717e-17 0)
(0.274929 1.65603e-16 0)
(0.274929 2.17174e-16 0)
(0.274929 2.44313e-16 0)
(0.274929 2.16576e-16 0)
(0.324921 2.11633e-16 0)
(0.324921 1.74269e-16 0)
(0.324921 1.14435e-16 0)
(0.324921 2.48671e-17 0)
(0.324921 -5.31479e-18 0)
(0.324921 -2.80652e-17 0)
(0.324921 -3.48669e-17 0)
(0.324921 -7.03758e-17 0)
(0.324921 -1.21998e-16 0)
(0.324921 -1.41823e-16 0)
(0.324921 -1.78021e-16 0)
(0.324921 -1.74498e-16 0)
(0.324921 -1.38316e-16 0)
(0.324921 -4.94065e-17 0)
(0.324921 5.66955e-18 0)
(0.324921 1.12321e-16 0)
(0.324921 1.85063e-16 0)
(0.324921 2.58962e-16 0)
(0.324921 2.66017e-16 0)
(0.324921 2.40327e-16 0)
(0.374914 2.74105e-16 0)
(0.374914 1.99921e-16 0)
(0.374914 1.10386e-16 0)
(0.374914 2.82964e-17 0)
(0.374914 -2.45178e-17 0)
(0.374914 -4.82872e-17 0)
(0.374914 -8.71041e-17 0)
(0.374914 -1.02896e-16 0)
(0.374914 -1.36232e-16 0)
(0.374914 -2.066e-16 0)
(0.374914 -2.44468e-16 0)
(0.374914 -2.17208e-16 0)
(0.374914 -1.46138e-16 0)
(0.374914 -4.19009e-17 0)
(0.374914 3.55814e-17 0)
(0.374914 1.30804e-16 0)
(0.374914 2.08278e-16 0)
(0.374914 2.7722e-16 0)
(0.374914 2.99363e-16 0)
(0.374914 2.90647e-16 0)
(0.42491 3.41596e-16 0)
(0.42491 2.52168e-16 0)
(0.42491 1.12831e-16 0)
(0.42491 -4.77115e-19 0)
(0.42491 -8.37162e-17 0)
(0.42491 -9.65285e-17 0)
(0.42491 -1.14442e-16 0)
(0.42491 -1.42195e-16 0)
(0.42491 -1.73733e-16 0)
(0.42491 -2.14548e-16 0)
(0.42491 -2.64311e-16 0)
(0.42491 -2.24719e-16 0)
(0.42491 -1.70298e-16 0)
(0.42491 -8.26786e-17 0)
(0.42491 6.25033e-17 0)
(0.42491 1.21903e-16 0)
(0.42491 2.09078e-16 0)
(0.42491 2.87258e-16 0)
(0.42491 3.36231e-16 0)
(0.42491 3.79874e-16 0)
(0.474907 3.96862e-16 0)
(0.474907 2.89136e-16 0)
(0.474907 1.57352e-16 0)
(0.474907 -4.31051e-17 0)
(0.474907 -1.27877e-16 0)
(0.474907 -1.23404e-16 0)
(0.474907 -1.41309e-16 0)
(0.474907 -1.74565e-16 0)
(0.474907 -1.96875e-16 0)
(0.474907 -2.00395e-16 0)
(0.474907 -2.21384e-16 0)
(0.474907 -2.19047e-16 0)
(0.474907 -2.1409e-16 0)
(0.474907 -1.03069e-16 0)
(0.474907 1.76229e-17 0)
(0.474907 1.23611e-16 0)
(0.474907 1.88162e-16 0)
(0.474907 2.52141e-16 0)
(0.474907 3.32465e-16 0)
(0.474907 4.27562e-16 0)
(0.524907 3.61471e-16 0)
(0.524907 2.58045e-16 0)
(0.524907 1.78861e-16 0)
(0.524907 1.3652e-17 0)
(0.524907 -7.49383e-17 0)
(0.524907 -1.20412e-16 0)
(0.524907 -1.79084e-16 0)
(0.524907 -1.96897e-16 0)
(0.524907 -2.01139e-16 0)
(0.524907 -2.04393e-16 0)
(0.524907 -1.70162e-16 0)
(0.524907 -1.95663e-16 0)
(0.524907 -1.6918e-16 0)
(0.524907 -1.16494e-16 0)
(0.524907 -3.76322e-17 0)
(0.524907 8.5571e-17 0)
(0.524907 1.90835e-16 0)
(0.524907 2.24187e-16 0)
(0.524907 3.3246e-16 0)
(0.524907 3.91501e-16 0)
(0.57491 2.61975e-16 0)
(0.57491 1.94778e-16 0)
(0.57491 1.34127e-16 0)
(0.57491 9.11612e-17 0)
(0.57491 1.12436e-17 0)
(0.57491 -1.48179e-16 0)
(0.57491 -1.68865e-16 0)
(0.57491 -1.65481e-16 0)
(0.57491 -2.04897e-16 0)
(0.57491 -2.05387e-16 0)
(0.57491 -2.01593e-16 0)
(0.57491 -1.35442e-16 0)
(0.57491 -6.17593e-17 0)
(0.57491 -7.50836e-17 0)
(0.57491 -1.67437e-17 0)
(0.57491 1.91413e-17 0)
(0.57491 1.23471e-16 0)
(0.57491 2.46244e-16 0)
(0.57491 3.35436e-16 0)
(0.57491 2.81988e-16 0)
(0.624914 1.4984e-16 0)
(0.624914 1.66606e-16 0)
(0.624914 8.9563e-17 0)
(0.624914 8.50031e-17 0)
(0.624914 1.09698e-17 0)
(0.624914 -1.29815e-16 0)
(0.624914 -1.65119e-16 0)
(0.624914 -1.7691e-16 0)
(0.624914 -1.8918e-16 0)
(0.624914 -2.00703e-16 0)
(0.624914 -1.98612e-16 0)
(0.624914 -8.56569e-17 0)
(0.624914 3.8913e-17 0)
(0.624914 6.54623e-17 0)
(0.624914 5.92119e-17 0)
(0.624914 5.54043e-17 0)
(0.624914 6.05959e-17 0)
(0.624914 1.88611e-16 0)
(0.624914 2.09465e-16 0)
(0.624914 1.56831e-16 0)
(0.674921 9.38491e-17 0)
(0.674921 9.65313e-17 0)
(0.674921 9.5412e-18 0)
(0.674921 7.14079e-19 0)
(0.674921 -3.94885e-17 0)
(0.674921 -6.71353e-17 0)
(0.674921 -1.73424e-16 0)
(0.674921 -2.29264e-16 0)
(0.674921 -1.6816e-16 0)
(0.674921 -1.91812e-16 0)
(0.674921 -1.2922e-16 0)
(0.674921 -2.14516e-17 0)
(0.674921 6.95902e-17 0)
(0.674921 1.40009e-16 0)
(0.674921 1.65044e-16 0)
(0.674921 1.55715e-16 0)
(0.674921 1.14796e-16 0)
(0.674921 1.21563e-16 0)
(0.674921 1.23736e-16 0)
(0.674921 9.85143e-17 0)
(0.724929 2.6561e-17 0)
(0.724929 -2.90559e-17 0)
(0.724929 -3.1484e-17 0)
(0.724929 -7.56816e-17 0)
(0.724929 -6.32368e-17 0)
(0.724929 -1.0352e-16 0)
(0.724929 -2.08682e-16 0)
(0.724929 -2.16993e-16 0)
(0.724929 -1.8363e-16 0)
(0.724929 -1.38655e-16 0)
(0.724929 -4.99711e-17 0)
(0.724929 6.05628e-17 0)
(0.724929 1.39063e-16 0)
(0.724929 1.89984e-16 0)
(0.724929 2.26886e-16 0)
(0.724929 1.95752e-16 0)
(0.724929 1.52585e-16 0)
(0.724929 1.20192e-16 0)
(0.724929 6.00758e-17 0)
(0.724929 6.47395e-17 0)
(0.77494 -6.10957e-17 0)
(0.77494 -5.80063e-17 0)
(0.77494 -3.42855e-18 0)
(0.77494 -3.24784e-17 0)
(0.77494 -7.03985e-17 0)
(0.77494 -1.94351e-16 0)
(0.77494 -2.0045e-16 0)
(0.77494 -2.07853e-16 0)
(0.77494 -1.78991e-16 0)
(0.77494 -9.48191e-17 0)
(0.77494 7.61556e-19 0)
(0.77494 1.19322e-16 0)
(0.77494 2.14212e-16 0)
(0.77494 2.28394e-16 0)
(0.77494 1.9978e-16 0)
(0.77494 2.07711e-16 0)
(0.77494 1.48309e-16 0)
(0.77494 4.37417e-17 0)
(0.77494 1.63998e-17 0)
(0.77494 -1.9673e-17 0)
(0.824951 -5.40705e-17 0)
(0.824951 -4.32765e-17 0)
(0.824951 2.27925e-17 0)
(0.824951 2.14879e-17 0)
(0.824951 -5.50784e-17 0)
(0.824951 -1.37548e-16 0)
(0.824951 -1.77556e-16 0)
(0.824951 -1.62833e-16 0)
(0.824951 -1.31434e-16 0)
(0.824951 -9.16581e-17 0)
(0.824951 3.61006e-17 0)
(0.824951 1.25406e-16 0)
(0.824951 1.77288e-16 0)
(0.824951 2.14609e-16 0)
(0.824951 1.58726e-16 0)
(0.824951 1.39641e-16 0)
(0.824951 1.44399e-16 0)
(0.824951 2.3397e-17 0)
(0.824951 -5.50261e-17 0)
(0.824951 -7.08529e-17 0)
(0.874964 -4.11132e-17 0)
(0.874964 -1.94516e-17 0)
(0.874964 3.85319e-17 0)
(0.874964 4.55448e-17 0)
(0.874964 -3.8697e-17 0)
(0.874964 -8.1741e-17 0)
(0.874964 -2.12253e-16 0)
(0.874964 -1.93762e-16 0)
(0.874964 -7.19202e-17 0)
(0.874964 3.66322e-17 0)
(0.874964 5.8313e-17 0)
(0.874964 1.15547e-16 0)
(0.874964 1.61267e-16 0)
(0.874964 1.71424e-16 0)
(0.874964 1.02067e-16 0)
(0.874964 2.81498e-17 0)
(0.874964 1.30148e-17 0)
(0.874964 -1.67951e-17 0)
(0.874964 -4.74392e-17 0)
(0.874964 -3.79208e-17 0)
(0.924978 1.10425e-17 0)
(0.924978 -6.72006e-18 0)
(0.924978 1.51943e-17 0)
(0.924978 8.86191e-17 0)
(0.924978 -2.88458e-17 0)
(0.924978 -8.1582e-17 0)
(0.924978 -1.48819e-16 0)
(0.924978 -1.61571e-16 0)
(0.924978 -6.82881e-17 0)
(0.924978 1.2353e-16 0)
(0.924978 1.21775e-16 0)
(0.924978 8.66515e-17 0)
(0.924978 1.13302e-16 0)
(0.924978 6.83302e-17 0)
(0.924978 3.2642e-17 0)
(0.924978 -4.21465e-17 0)
(0.924978 -7.993e-17 0)
(0.924978 -4.38691e-17 0)
(0.924978 1.74608e-17 0)
(0.924978 5.38535e-18 0)
(0.974993 2.71071e-17 0)
(0.974993 -1.89461e-17 0)
(0.974993 -6.23168e-18 0)
(0.974993 4.44966e-17 0)
(0.974993 -1.45708e-17 0)
(0.974993 -2.42788e-17 0)
(0.974993 -3.88384e-17 0)
(0.974993 -4.50006e-17 0)
(0.974993 -3.2927e-17 0)
(0.974993 5.72511e-17 0)
(0.974993 8.22224e-17 0)
(0.974993 1.19208e-17 0)
(0.974993 1.79433e-17 0)
(0.974993 1.03072e-17 0)
(0.974993 2.4016e-18 0)
(0.974993 -3.8025e-17 0)
(0.974993 -2.53654e-17 0)
(0.974993 -2.74811e-18 0)
(0.974993 -1.02114e-17 0)
(0.974993 1.06512e-17 0)
)
;

boundaryField
{
    movingWall
    {
        type            fixedValue;
        value           uniform (1 0 0);
    }
    fixedWalls
    {
        type            noSlip;
    }
    left
    {
        type            cyclic;
    }
    right
    {
        type            cyclic;
    }
    frontAndBack
    {
        type            empty;
    }
}


// ************************************************************************* //
