0 	-1.0685e-07
1.57135 	-0.000254867
3.1427 	-0.000436384
4.71405 	-0.00256123
6.28539 	-0.00655931
7.85674 	-0.00987718
9.42809 	-0.0088456
10.9994 	-0.00473331
12.5708 	0.0173818
14.1421 	0.0534106
