0 	0 	0 	0
1.57135 	0.00206878 	-0.0105132 	0
3.1427 	-0.0393755 	0.0328431 	0
4.71405 	-0.0665504 	0.0853752 	0
6.28539 	-0.0429989 	0.0837103 	0
7.85674 	-0.00319502 	0.0372075 	0
9.42809 	0.0423678 	-0.0113231 	0
10.9994 	0.0549039 	-0.0444897 	0
12.5708 	0.118229 	-0.106903 	0
14.1421 	0.5 	0 	0
