/*--------------------------------*- C++ -*----------------------------------*\
  =========                 |
  \\      /  F ield         | OpenFOAM: The Open Source CFD Toolbox
   \\    /   O peration     | Website:  https://openfoam.org
    \\  /    A nd           | Version:  8
     \\/     M anipulation  |
\*---------------------------------------------------------------------------*/
FoamFile
{
    version     2.0;
    format      ascii;
    class       surfaceScalarField;
    location    "0.08";
    object      phi;
}
// * * * * * * * * * * * * * * * * * * * * * * * * * * * * * * * * * * * * * //

dimensions      [0 3 -1 0 0 0 0];

internalField   nonuniform List<scalar> 
760
(
2.33243e-07
-2.07728e-12
2.33235e-07
7.92037e-12
2.33219e-07
1.55545e-11
2.33202e-07
1.69299e-11
2.33185e-07
1.68995e-11
2.33169e-07
1.58013e-11
2.33156e-07
1.38912e-11
2.33144e-07
1.14168e-11
2.33136e-07
8.54579e-12
2.3313e-07
5.35601e-12
2.33128e-07
1.89634e-12
2.3313e-07
-1.78693e-12
2.33136e-07
-5.62242e-12
2.33145e-07
-9.5117e-12
2.33159e-07
-1.32944e-11
2.33175e-07
-1.6667e-11
2.33194e-07
-1.90973e-11
2.33214e-07
-1.94765e-11
2.3323e-07
-1.58409e-11
-1.08374e-11
7.14387e-07
9.93538e-13
7.14373e-07
2.282e-11
7.14351e-07
3.71616e-11
7.14325e-07
4.26539e-11
7.14299e-07
4.32459e-11
7.14274e-07
4.07325e-11
7.14252e-07
3.59718e-11
7.14234e-07
2.95365e-11
7.1422e-07
2.18191e-11
7.14213e-07
1.30939e-11
7.14211e-07
3.59075e-12
7.14216e-07
-6.44664e-12
7.14227e-07
-1.67328e-11
7.14244e-07
-2.69045e-11
7.14267e-07
-3.6432e-11
7.14295e-07
-4.4442e-11
7.14326e-07
-4.94864e-11
7.14355e-07
-4.90605e-11
7.14379e-07
-3.98474e-11
-2.22676e-11
1.24012e-06
2.16829e-12
1.24011e-06
3.44572e-11
1.2401e-06
5.4957e-11
1.24007e-06
6.43533e-11
1.24005e-06
6.61939e-11
1.24003e-06
6.28644e-11
1.24001e-06
5.57711e-11
1.23999e-06
4.58523e-11
1.23998e-06
3.376e-11
1.23997e-06
1.99834e-11
1.23997e-06
4.9506e-12
1.23998e-06
-1.08934e-11
1.23999e-06
-2.70228e-11
1.24e-06
-4.27547e-11
1.24002e-06
-5.7121e-11
1.24005e-06
-6.86596e-11
1.24007e-06
-7.51761e-11
1.2401e-06
-7.32712e-11
1.24012e-06
-5.89305e-11
-3.1483e-11
1.84146e-06
1.91497e-12
1.84146e-06
3.98187e-11
1.84145e-06
6.53735e-11
1.84143e-06
7.8325e-11
1.84142e-06
8.19084e-11
1.8414e-06
7.87012e-11
1.84139e-06
7.04209e-11
1.84138e-06
5.82878e-11
1.84137e-06
4.31875e-11
1.84136e-06
2.58084e-11
1.84136e-06
6.75737e-12
1.84136e-06
-1.33415e-11
1.84137e-06
-3.37497e-11
1.84138e-06
-5.35062e-11
1.84139e-06
-7.1286e-11
1.84141e-06
-8.52026e-11
1.84143e-06
-9.25925e-11
1.84144e-06
-8.96445e-11
1.84146e-06
-7.20729e-11
-3.91083e-11
2.55109e-06
-9.49345e-13
2.55109e-06
3.95647e-11
2.55108e-06
6.80683e-11
2.55108e-06
8.37178e-11
2.55107e-06
8.91978e-11
2.55106e-06
8.69465e-11
2.55105e-06
7.87334e-11
2.55105e-06
6.5911e-11
2.55104e-06
4.95121e-11
2.55104e-06
3.0366e-11
2.55103e-06
9.21114e-12
2.55103e-06
-1.31907e-11
2.55104e-06
-3.59526e-11
2.55104e-06
-5.79359e-11
2.55105e-06
-7.76097e-11
2.55105e-06
-9.28792e-11
2.55106e-06
-1.00901e-10
2.55107e-06
-9.78122e-11
2.55108e-06
-7.93397e-11
-4.46585e-11
3.40376e-06
-5.64373e-12
3.40376e-06
3.43123e-11
3.40377e-06
6.35494e-11
3.40377e-06
8.07474e-11
3.40377e-06
8.79485e-11
3.40377e-06
8.72343e-11
3.40377e-06
8.02128e-11
3.40377e-06
6.82058e-11
3.40376e-06
5.22776e-11
3.40376e-06
3.33122e-11
3.40376e-06
1.2104e-11
3.40375e-06
-1.05104e-11
3.40375e-06
-3.35912e-11
3.40375e-06
-5.59379e-11
3.40375e-06
-7.59841e-11
3.40375e-06
-9.16426e-11
3.40375e-06
-1.00148e-10
3.40375e-06
-9.7853e-11
3.40375e-06
-8.07426e-11
-4.78511e-11
4.43645e-06
-1.11986e-11
4.43646e-06
2.51314e-11
4.43647e-06
5.28863e-11
4.43648e-06
7.03185e-11
4.43649e-06
7.88062e-11
4.4365e-06
7.99285e-11
4.4365e-06
7.49729e-11
4.4365e-06
6.50863e-11
4.43651e-06
5.1246e-11
4.4365e-06
3.42934e-11
4.4365e-06
1.50054e-11
4.4365e-06
-5.81203e-12
4.43649e-06
-2.72401e-11
4.43648e-06
-4.8149e-11
4.43647e-06
-6.70942e-11
4.43646e-06
-8.21894e-11
4.43646e-06
-9.09693e-11
4.43645e-06
-9.02334e-11
4.43644e-06
-7.6421e-11
-4.8368e-11
5.6881e-06
-1.6685e-11
5.68811e-06
1.33086e-11
5.68813e-06
3.74928e-11
5.68814e-06
5.38091e-11
5.68816e-06
6.297e-11
5.68817e-06
6.59621e-11
5.68819e-06
6.36447e-11
5.68819e-06
5.68765e-11
5.6882e-06
4.64434e-11
5.6882e-06
3.30543e-11
5.6882e-06
1.73841e-11
5.68819e-06
1.39064e-13
5.68818e-06
-1.78801e-11
5.68817e-06
-3.57175e-11
5.68815e-06
-5.21869e-11
5.68814e-06
-6.57666e-11
5.68812e-06
-7.44748e-11
5.68811e-06
-7.57614e-11
5.6881e-06
-6.67014e-11
-4.59111e-11
7.19886e-06
-2.12382e-11
7.19887e-06
2.14945e-13
7.19889e-06
1.90003e-11
7.19891e-06
3.29309e-11
7.19893e-06
4.20517e-11
7.19895e-06
4.67174e-11
7.19897e-06
4.72961e-11
7.19898e-06
4.42776e-11
7.19899e-06
3.8176e-11
7.19899e-06
2.94944e-11
7.19899e-06
1.87399e-11
7.19898e-06
6.45812e-12
7.19897e-06
-6.73782e-12
7.19896e-06
-2.0145e-11
7.19894e-06
-3.29328e-11
7.19892e-06
-4.40666e-11
7.19889e-06
-5.21934e-11
7.19887e-06
-5.55877e-11
7.19886e-06
-5.21504e-11
-4.03054e-11
9.00881e-06
-2.41072e-11
9.00882e-06
-1.27775e-11
9.00884e-06
-8.27726e-13
9.00887e-06
9.62721e-12
9.00889e-06
1.79766e-11
9.00891e-06
2.39419e-11
9.00893e-06
2.7373e-11
9.00895e-06
2.83439e-11
9.00896e-06
2.70452e-11
9.00897e-06
2.37263e-11
9.00897e-06
1.86834e-11
9.00896e-06
1.22627e-11
9.00895e-06
4.85085e-12
9.00893e-06
-3.14501e-12
9.00891e-06
-1.13022e-11
9.00888e-06
-1.91431e-11
9.00886e-06
-2.6043e-11
9.00883e-06
-3.12382e-11
9.00882e-06
-3.36449e-11
-3.1602e-11
1.11561e-05
-2.47452e-11
1.11561e-05
-2.43839e-11
1.11561e-05
-2.0187e-11
1.11561e-05
-1.40188e-11
1.11562e-05
-7.10269e-12
1.11562e-05
-3.25859e-13
1.11562e-05
5.64695e-12
1.11562e-05
1.04603e-11
1.11562e-05
1.39613e-11
1.11563e-05
1.61252e-11
1.11563e-05
1.70214e-11
1.11563e-05
1.67857e-11
1.11562e-05
1.55729e-11
1.11562e-05
1.34924e-11
1.11562e-05
1.05572e-11
1.11562e-05
6.67637e-12
1.11562e-05
1.70695e-12
1.11561e-05
-4.63427e-12
1.11561e-05
-1.24375e-11
-2.01715e-11
1.36744e-05
-2.29225e-11
1.36744e-05
-3.35129e-11
1.36744e-05
-3.73452e-11
1.36745e-05
-3.58899e-11
1.36745e-05
-3.09059e-11
1.36745e-05
-2.38448e-11
1.36745e-05
-1.58534e-11
1.36745e-05
-7.69788e-12
1.36746e-05
1.36971e-13
1.36746e-05
7.36062e-12
1.36746e-05
1.38279e-11
1.36746e-05
1.94816e-11
1.36746e-05
2.42712e-11
1.36745e-05
2.80478e-11
1.36745e-05
3.04645e-11
1.36745e-05
3.09131e-11
1.36745e-05
2.85159e-11
1.36744e-05
2.1934e-11
1.36744e-05
9.80004e-12
-6.78073e-12
1.659e-05
-1.88242e-11
1.659e-05
-3.93812e-11
1.65901e-05
-5.07725e-11
1.65901e-05
-5.3963e-11
1.65901e-05
-5.11505e-11
1.65901e-05
-4.4289e-11
1.65901e-05
-3.49452e-11
1.65902e-05
-2.4244e-11
1.65902e-05
-1.29598e-11
1.65902e-05
-1.60883e-12
1.65902e-05
9.4842e-12
1.65902e-05
2.01115e-11
1.65902e-05
3.00717e-11
1.65902e-05
3.90313e-11
1.65901e-05
4.638e-11
1.65901e-05
5.11069e-11
1.65901e-05
5.1713e-11
1.65901e-05
4.58934e-11
1.65901e-05
3.09879e-11
7.35908e-12
1.99185e-05
-1.30904e-11
1.99185e-05
-4.16142e-11
1.99185e-05
-5.92626e-11
1.99185e-05
-6.645e-11
1.99185e-05
-6.5706e-11
1.99186e-05
-5.94069e-11
1.99186e-05
-4.94444e-11
1.99186e-05
-3.72154e-11
1.99186e-05
-2.37078e-11
1.99186e-05
-9.59901e-12
1.99186e-05
4.66527e-12
1.99186e-05
1.87863e-11
1.99186e-05
3.24837e-11
1.99186e-05
4.53361e-11
1.99186e-05
5.66007e-11
1.99186e-05
6.50318e-11
1.99186e-05
6.87041e-11
1.99185e-05
6.45515e-11
1.99185e-05
4.87351e-11
2.06027e-11
2.36612e-05
-6.76959e-12
2.36612e-05
-4.02779e-11
2.36612e-05
-6.20177e-11
2.36612e-05
-7.19344e-11
2.36612e-05
-7.27748e-11
2.36612e-05
-6.72321e-11
2.36612e-05
-5.73881e-11
2.36612e-05
-4.47871e-11
2.36613e-05
-3.05223e-11
2.36613e-05
-1.5345e-11
2.36613e-05
2.51088e-13
2.36613e-05
1.59437e-11
2.36613e-05
3.14507e-11
2.36613e-05
4.63653e-11
2.36613e-05
5.99572e-11
2.36613e-05
7.09483e-11
2.36612e-05
7.72498e-11
2.36612e-05
7.53577e-11
2.36612e-05
6.05436e-11
3.09818e-11
2.78025e-05
-1.1642e-12
2.78025e-05
-3.57882e-11
2.78025e-05
-5.86677e-11
2.78025e-05
-6.94901e-11
2.78025e-05
-7.11021e-11
2.78025e-05
-6.6355e-11
2.78025e-05
-5.73382e-11
2.78025e-05
-4.55787e-11
2.78025e-05
-3.21408e-11
2.78025e-05
-1.77459e-11
2.78025e-05
-2.85757e-12
2.78025e-05
1.22406e-11
2.78026e-05
2.73322e-11
2.78026e-05
4.21128e-11
2.78026e-05
5.59973e-11
2.78026e-05
6.78782e-11
2.78026e-05
7.58059e-11
2.78026e-05
7.62681e-11
2.78026e-05
6.41361e-11
3.64574e-11
3.23078e-05
2.45023e-12
3.23078e-05
-2.86852e-11
3.23078e-05
-4.91993e-11
3.23078e-05
-5.87786e-11
3.23078e-05
-6.0224e-11
3.23078e-05
-5.62727e-11
3.23078e-05
-4.87802e-11
3.23078e-05
-3.90632e-11
3.23078e-05
-2.80101e-11
3.23078e-05
-1.6207e-11
3.23078e-05
-4.01932e-12
3.23078e-05
8.35592e-12
3.23078e-05
2.081e-11
3.23078e-05
3.31939e-11
3.23078e-05
4.51505e-11
3.23078e-05
5.58989e-11
3.23078e-05
6.39234e-11
3.23078e-05
6.62076e-11
3.23078e-05
5.79214e-11
3.53274e-11
3.71227e-05
3.37097e-12
3.71227e-05
-1.92713e-11
3.71226e-05
-3.38066e-11
3.71226e-05
-4.01633e-11
3.71226e-05
-4.07714e-11
3.71226e-05
-3.78075e-11
3.71226e-05
-3.25952e-11
3.71226e-05
-2.60443e-11
3.71226e-05
-1.87417e-11
3.71225e-05
-1.1056e-11
3.71225e-05
-3.20217e-12
3.71225e-05
4.73549e-12
3.71226e-05
1.27579e-11
3.71226e-05
2.08591e-11
3.71226e-05
2.88992e-11
3.71226e-05
3.64718e-11
3.71226e-05
4.27109e-11
3.71226e-05
4.55804e-11
3.71227e-05
4.14681e-11
2.66054e-11
4.21742e-05
1.62329e-12
4.21742e-05
-8.23704e-12
4.21742e-05
-1.4022e-11
4.21742e-05
-1.62729e-11
4.21742e-05
-1.61398e-11
4.21741e-05
-1.46889e-11
4.21741e-05
-1.24603e-11
4.21741e-05
-9.82787e-12
4.21741e-05
-7.01796e-12
4.21741e-05
-4.15433e-12
4.21741e-05
-1.28939e-12
4.21741e-05
1.59144e-12
4.21741e-05
4.54157e-12
4.21741e-05
7.60324e-12
4.21741e-05
1.07308e-11
4.21742e-05
1.3782e-11
4.21742e-05
1.65433e-11
4.21742e-05
1.83011e-11
4.21742e-05
1.75688e-11
1.18247e-11
4.73745e-05
4.73745e-05
4.73745e-05
4.73745e-05
4.73745e-05
4.73745e-05
4.73744e-05
4.73744e-05
4.73744e-05
4.73744e-05
4.73744e-05
4.73744e-05
4.73744e-05
4.73744e-05
4.73744e-05
4.73745e-05
4.73745e-05
4.73745e-05
4.73745e-05
)
;

boundaryField
{
    movingWall
    {
        type            calculated;
        value           uniform 0;
    }
    fixedWalls
    {
        type            calculated;
        value           uniform 0;
    }
    left
    {
        type            cyclic;
        value           nonuniform List<scalar> 
20
(
-2.78026e-05
-2.36612e-05
-1.99185e-05
-1.659e-05
-1.36744e-05
-1.11561e-05
-9.00881e-06
-7.19885e-06
-5.68809e-06
-4.43644e-06
-3.40375e-06
-2.55108e-06
-1.84146e-06
-1.24013e-06
-7.14391e-07
-2.3324e-07
-3.23078e-05
-3.71227e-05
-4.21742e-05
-4.73745e-05
)
;
    }
    right
    {
        type            cyclic;
        value           nonuniform List<scalar> 
20
(
2.78026e-05
2.36612e-05
1.99185e-05
1.659e-05
1.36744e-05
1.11561e-05
9.00881e-06
7.19885e-06
5.68809e-06
4.43644e-06
3.40375e-06
2.55108e-06
1.84146e-06
1.24013e-06
7.14391e-07
2.3324e-07
3.23078e-05
3.71227e-05
4.21742e-05
4.73745e-05
)
;
    }
    frontAndBack
    {
        type            empty;
        value           nonuniform List<scalar> 0();
    }
}


// ************************************************************************* //
