0 	6.82221e-09
1.57135 	-1.4234e-06
3.1427 	-5.5788e-06
4.71405 	-1.4485e-05
6.28539 	-2.73025e-05
7.85674 	-3.52896e-05
9.42809 	-2.50671e-05
10.9994 	-0.0002273
12.5708 	-0.00540985
14.1421 	0.207759
