/*--------------------------------*- C++ -*----------------------------------*\
  =========                 |
  \\      /  F ield         | OpenFOAM: The Open Source CFD Toolbox
   \\    /   O peration     | Website:  https://openfoam.org
    \\  /    A nd           | Version:  8
     \\/     M anipulation  |
\*---------------------------------------------------------------------------*/
FoamFile
{
    version     2.0;
    format      ascii;
    class       volVectorField;
    location    "43.5";
    object      U;
}
// * * * * * * * * * * * * * * * * * * * * * * * * * * * * * * * * * * * * * //

dimensions      [0 1 -1 0 0 0 0];

internalField   nonuniform List<vector> 
11600
(
(-2.47287e-06 2.30268e-06 0)
(-4.34696e-05 1.56233e-05 0)
(-0.000118345 2.10389e-05 0)
(-0.000196024 2.27792e-05 0)
(-0.000278834 2.29604e-05 0)
(-0.000361769 2.27829e-05 0)
(-0.00044467 2.2654e-05 0)
(-0.000527575 2.26151e-05 0)
(-0.000610544 2.26376e-05 0)
(-0.00069364 2.26959e-05 0)
(-0.000776908 2.27752e-05 0)
(-0.00086038 2.28684e-05 0)
(-0.000944079 2.2972e-05 0)
(-0.00102802 2.30843e-05 0)
(-0.00111223 2.32043e-05 0)
(-0.00119672 2.33313e-05 0)
(-0.0012815 2.34644e-05 0)
(-0.00136657 2.36031e-05 0)
(-0.00145196 2.37467e-05 0)
(-0.00153766 2.38943e-05 0)
(-0.00162367 2.40453e-05 0)
(-0.00171001 2.41988e-05 0)
(-0.00179667 2.43539e-05 0)
(-0.00188364 2.45097e-05 0)
(-0.00197092 2.46651e-05 0)
(-0.0020585 2.48191e-05 0)
(-0.00214637 2.49705e-05 0)
(-0.00223451 2.51181e-05 0)
(-0.00232291 2.52608e-05 0)
(-0.00241154 2.53971e-05 0)
(-0.00250038 2.55258e-05 0)
(-0.0025894 2.56453e-05 0)
(-0.00267856 2.57542e-05 0)
(-0.00276784 2.58511e-05 0)
(-0.0028572 2.59343e-05 0)
(-0.00294659 2.60025e-05 0)
(-0.00303598 2.60539e-05 0)
(-0.00312532 2.60871e-05 0)
(-0.00321456 2.61005e-05 0)
(-0.00330368 2.60927e-05 0)
(-0.00339261 2.6062e-05 0)
(-0.00348134 2.60067e-05 0)
(-0.00356982 2.59249e-05 0)
(-0.00365805 2.58139e-05 0)
(-0.003746 2.56697e-05 0)
(-0.00383369 2.54852e-05 0)
(-0.00392115 2.52469e-05 0)
(-0.00400843 2.49283e-05 0)
(-0.00409558 2.44741e-05 0)
(-0.00418267 2.37676e-05 0)
(-0.00426968 2.25599e-05 0)
(-0.0043564 2.03357e-05 0)
(-0.00444206 1.60805e-05 0)
(-0.00452516 7.84745e-06 0)
(-0.00460667 -7.39424e-06 0)
(-0.00469027 -2.78762e-05 0)
(-0.00472178 -3.06299e-05 0)
(-0.00507595 1.09919e-05 0)
(-0.00503726 0.000662637 0)
(-0.00764774 0.00238222 0)
(-1.63449e-05 4.36537e-05 0)
(-0.000106479 0.00010483 0)
(-0.000252162 0.000131575 0)
(-0.000404304 0.000141987 0)
(-0.000565947 0.0001451 0)
(-0.000729081 0.000145776 0)
(-0.000892758 0.000145909 0)
(-0.00105673 0.00014602 0)
(-0.00122089 0.000146204 0)
(-0.00138524 0.000146458 0)
(-0.00154981 0.000146764 0)
(-0.00171462 0.000147111 0)
(-0.00187969 0.00014749 0)
(-0.00204504 0.000147897 0)
(-0.00221069 0.000148327 0)
(-0.00237663 0.000148777 0)
(-0.00254289 0.000149244 0)
(-0.00270946 0.000149724 0)
(-0.00287635 0.000150214 0)
(-0.00304356 0.00015071 0)
(-0.00321107 0.000151208 0)
(-0.00337888 0.000151705 0)
(-0.00354698 0.000152196 0)
(-0.00371535 0.000152676 0)
(-0.00388396 0.000153142 0)
(-0.00405279 0.000153587 0)
(-0.00422181 0.000154007 0)
(-0.00439098 0.000154397 0)
(-0.00456026 0.000154751 0)
(-0.0047296 0.000155064 0)
(-0.00489896 0.00015533 0)
(-0.00506828 0.000155546 0)
(-0.0052375 0.000155704 0)
(-0.00540657 0.000155802 0)
(-0.00557542 0.000155835 0)
(-0.00574398 0.000155801 0)
(-0.00591219 0.000155697 0)
(-0.00607999 0.000155523 0)
(-0.00624733 0.000155282 0)
(-0.00641415 0.000154978 0)
(-0.00658043 0.00015462 0)
(-0.00674616 0.000154219 0)
(-0.00691135 0.000153795 0)
(-0.00707605 0.000153373 0)
(-0.00724038 0.000152987 0)
(-0.00740451 0.000152684 0)
(-0.00756874 0.00015252 0)
(-0.00773347 0.000152566 0)
(-0.00789934 0.000152897 0)
(-0.00806723 0.000153584 0)
(-0.0082385 0.000154656 0)
(-0.00841516 0.000156076 0)
(-0.00860062 0.000157799 0)
(-0.00880136 0.000160245 0)
(-0.00902954 0.000166905 0)
(-0.0093021 0.00019598 0)
(-0.00965308 0.000300557 0)
(-0.0102779 0.000554099 0)
(-0.0108111 0.00153144 0)
(-0.0122992 0.00291211 0)
(-2.2447e-05 0.000120574 0)
(-0.000135804 0.00025153 0)
(-0.000315189 0.000309781 0)
(-0.000501706 0.000333279 0)
(-0.000699167 0.000341331 0)
(-0.000898438 0.000343744 0)
(-0.00109838 0.000344488 0)
(-0.00129866 0.000344876 0)
(-0.00149912 0.000345263 0)
(-0.00169974 0.000345719 0)
(-0.00190052 0.000346243 0)
(-0.00210147 0.000346824 0)
(-0.00230261 0.000347452 0)
(-0.00250393 0.00034812 0)
(-0.00270545 0.000348819 0)
(-0.00290715 0.000349542 0)
(-0.00310905 0.000350283 0)
(-0.00331113 0.000351035 0)
(-0.00351338 0.00035179 0)
(-0.00371579 0.000352541 0)
(-0.00391834 0.00035328 0)
(-0.00412102 0.000353998 0)
(-0.00432379 0.000354686 0)
(-0.00452663 0.000355335 0)
(-0.00472949 0.000355935 0)
(-0.00493235 0.000356477 0)
(-0.00513515 0.00035695 0)
(-0.00533784 0.000357343 0)
(-0.00554038 0.000357646 0)
(-0.0057427 0.000357849 0)
(-0.00594473 0.000357943 0)
(-0.00614641 0.000357917 0)
(-0.00634767 0.000357764 0)
(-0.00654844 0.000357477 0)
(-0.00674863 0.000357051 0)
(-0.00694818 0.000356485 0)
(-0.00714701 0.00035578 0)
(-0.00734506 0.000354943 0)
(-0.00754227 0.000353987 0)
(-0.00773859 0.000352933 0)
(-0.00793401 0.000351814 0)
(-0.00812853 0.000350676 0)
(-0.0083222 0.000349584 0)
(-0.00851512 0.000348626 0)
(-0.00870746 0.000347925 0)
(-0.00889951 0.000347643 0)
(-0.00909167 0.000348003 0)
(-0.00928455 0.000349309 0)
(-0.00947903 0.000351976 0)
(-0.00967637 0.000356597 0)
(-0.00987842 0.000364057 0)
(-0.0100879 0.000375813 0)
(-0.0103092 0.000394582 0)
(-0.0105496 0.000426195 0)
(-0.0108203 0.00048444 0)
(-0.0111357 0.000600748 0)
(-0.0115223 0.000835977 0)
(-0.0120322 0.00130304 0)
(-0.0124104 0.00229411 0)
(-0.0130442 0.0036157 0)
(-2.46707e-05 0.000201828 0)
(-0.00014812 0.000406804 0)
(-0.000342327 0.000497407 0)
(-0.000543228 0.000533631 0)
(-0.000755495 0.000546266 0)
(-0.000969522 0.000550218 0)
(-0.00118421 0.000551484 0)
(-0.00139926 0.000552094 0)
(-0.00161448 0.000552627 0)
(-0.00182983 0.000553212 0)
(-0.00204531 0.000553865 0)
(-0.00226091 0.000554578 0)
(-0.00247663 0.00055534 0)
(-0.00269246 0.00055614 0)
(-0.00290841 0.000556968 0)
(-0.00312446 0.000557815 0)
(-0.00334061 0.00055867 0)
(-0.00355684 0.000559523 0)
(-0.00377315 0.000560363 0)
(-0.00398949 0.000561178 0)
(-0.00420586 0.000561958 0)
(-0.00442222 0.000562688 0)
(-0.00463855 0.000563356 0)
(-0.0048548 0.000563947 0)
(-0.00507092 0.000564447 0)
(-0.00528689 0.000564842 0)
(-0.00550263 0.000565117 0)
(-0.0057181 0.000565255 0)
(-0.00593324 0.000565243 0)
(-0.00614797 0.000565065 0)
(-0.00636222 0.000564708 0)
(-0.00657593 0.000564158 0)
(-0.00678901 0.000563405 0)
(-0.00700138 0.000562442 0)
(-0.00721297 0.000561262 0)
(-0.00742368 0.000559867 0)
(-0.00763344 0.000558262 0)
(-0.00784219 0.000556463 0)
(-0.00804985 0.000554496 0)
(-0.00825638 0.0005524 0)
(-0.00846176 0.000550233 0)
(-0.00866598 0.000548079 0)
(-0.0088691 0.000546052 0)
(-0.00907122 0.000544309 0)
(-0.00927252 0.000543063 0)
(-0.00947328 0.000542604 0)
(-0.00967394 0.000543327 0)
(-0.00987512 0.000545773 0)
(-0.0100777 0.000550699 0)
(-0.0102831 0.000559183 0)
(-0.0104931 0.000572825 0)
(-0.0107105 0.000594139 0)
(-0.0109394 0.000627355 0)
(-0.0111854 0.000680227 0)
(-0.0114552 0.000767761 0)
(-0.0117548 0.000917823 0)
(-0.0120871 0.00117676 0)
(-0.0124276 0.00162166 0)
(-0.0126305 0.00237574 0)
(-0.0127279 0.00327357 0)
(-2.50751e-05 0.00028902 0)
(-0.000152198 0.000572694 0)
(-0.000352303 0.000697115 0)
(-0.000558703 0.00074646 0)
(-0.000776611 0.000763801 0)
(-0.000996144 0.000769351 0)
(-0.00121629 0.000771176 0)
(-0.00143676 0.000772028 0)
(-0.0016574 0.000772708 0)
(-0.00187816 0.000773412 0)
(-0.00209902 0.000774174 0)
(-0.00231997 0.000774989 0)
(-0.00254103 0.000775849 0)
(-0.00276216 0.000776741 0)
(-0.00298338 0.000777653 0)
(-0.00320467 0.000778572 0)
(-0.00342601 0.000779487 0)
(-0.00364739 0.000780382 0)
(-0.0038688 0.000781244 0)
(-0.0040902 0.000782057 0)
(-0.00431157 0.000782805 0)
(-0.00453288 0.000783471 0)
(-0.00475409 0.000784037 0)
(-0.00497517 0.000784486 0)
(-0.00519607 0.000784796 0)
(-0.00541673 0.000784949 0)
(-0.00563711 0.000784925 0)
(-0.00585714 0.000784703 0)
(-0.00607676 0.000784264 0)
(-0.0062959 0.000783588 0)
(-0.00651448 0.000782657 0)
(-0.00673242 0.000781455 0)
(-0.00694965 0.000779967 0)
(-0.00716607 0.000778185 0)
(-0.0073816 0.000776102 0)
(-0.00759615 0.000773721 0)
(-0.00780964 0.000771052 0)
(-0.00802197 0.000768118 0)
(-0.00823309 0.000764956 0)
(-0.00844292 0.000761623 0)
(-0.00865142 0.000758204 0)
(-0.00885857 0.000754814 0)
(-0.00906439 0.000751616 0)
(-0.00926894 0.000748831 0)
(-0.00947233 0.00074676 0)
(-0.00967479 0.000745812 0)
(-0.00987662 0.000746544 0)
(-0.0100783 0.000749724 0)
(-0.0102805 0.000756426 0)
(-0.0104841 0.000768175 0)
(-0.0106905 0.000787202 0)
(-0.0109012 0.00081687 0)
(-0.0111184 0.000862438 0)
(-0.0113443 0.000932427 0)
(-0.0115799 0.00104079 0)
(-0.011823 0.00120931 0)
(-0.0120627 0.00146948 0)
(-0.0122601 0.00186339 0)
(-0.0123303 0.00242153 0)
(-0.0122339 0.00305609 0)
(-2.49378e-05 0.000376663 0)
(-0.000153127 0.000740616 0)
(-0.000355299 0.000899249 0)
(-0.000563576 0.000961689 0)
(-0.000783438 0.00098361 0)
(-0.00100482 0.000990654 0)
(-0.00122676 0.00099298 0)
(-0.00144901 0.000994045 0)
(-0.00167142 0.000994858 0)
(-0.00189393 0.00099567 0)
(-0.00211655 0.00099653 0)
(-0.00233927 0.000997437 0)
(-0.00256207 0.000998381 0)
(-0.00278496 0.000999349 0)
(-0.00300792 0.00100033 0)
(-0.00323094 0.0010013 0)
(-0.00345401 0.00100226 0)
(-0.00367712 0.00100317 0)
(-0.00390024 0.00100403 0)
(-0.00412335 0.00100482 0)
(-0.00434642 0.00100551 0)
(-0.00456942 0.00100609 0)
(-0.00479231 0.00100653 0)
(-0.00501506 0.0010068 0)
(-0.00523762 0.0010069 0)
(-0.00545993 0.00100678 0)
(-0.00568195 0.00100642 0)
(-0.0059036 0.00100581 0)
(-0.00612483 0.0010049 0)
(-0.00634557 0.00100369 0)
(-0.00656572 0.00100214 0)
(-0.00678522 0.00100024 0)
(-0.00700397 0.000997972 0)
(-0.00722189 0.000995316 0)
(-0.00743887 0.000992267 0)
(-0.00765483 0.00098883 0)
(-0.00786966 0.000985014 0)
(-0.00808328 0.000980848 0)
(-0.00829558 0.000976376 0)
(-0.00850648 0.000971669 0)
(-0.0087159 0.000966826 0)
(-0.0089238 0.00096199 0)
(-0.00913012 0.000957356 0)
(-0.00933486 0.000953191 0)
(-0.00953805 0.000949856 0)
(-0.00973977 0.000947835 0)
(-0.00994017 0.000947787 0)
(-0.0101395 0.000950605 0)
(-0.010338 0.000957514 0)
(-0.010536 0.00097021 0)
(-0.0107342 0.000991073 0)
(-0.0109329 0.0010235 0)
(-0.0111323 0.00107241 0)
(-0.0113319 0.00114501 0)
(-0.011529 0.00125172 0)
(-0.0117164 0.00140682 0)
(-0.0118783 0.00162819 0)
(-0.0119808 0.00193393 0)
(-0.011973 0.00232311 0)
(-0.0118105 0.00274735 0)
(-2.4748e-05 0.00046425 0)
(-0.000153092 0.000909124 0)
(-0.000355827 0.00110215 0)
(-0.000564632 0.0011777 0)
(-0.000785085 0.00120416 0)
(-0.001007 0.00121265 0)
(-0.00122946 0.00121545 0)
(-0.0014522 0.00121671 0)
(-0.0016751 0.00121766 0)
(-0.00189811 0.00121858 0)
(-0.00212122 0.00121954 0)
(-0.00234444 0.00122054 0)
(-0.00256775 0.00122157 0)
(-0.00279116 0.00122262 0)
(-0.00301465 0.00122367 0)
(-0.00323821 0.0012247 0)
(-0.00346183 0.0012257 0)
(-0.0036855 0.00122665 0)
(-0.00390918 0.00122751 0)
(-0.00413288 0.00122828 0)
(-0.00435654 0.00122892 0)
(-0.00458016 0.00122941 0)
(-0.00480368 0.00122973 0)
(-0.00502707 0.00122984 0)
(-0.00525028 0.00122972 0)
(-0.00547327 0.00122934 0)
(-0.00569598 0.00122866 0)
(-0.00591834 0.00122765 0)
(-0.00614029 0.00122629 0)
(-0.00636175 0.00122454 0)
(-0.00658265 0.00122238 0)
(-0.0068029 0.00121978 0)
(-0.00702241 0.00121672 0)
(-0.00724108 0.00121317 0)
(-0.00745881 0.00120913 0)
(-0.0076755 0.0012046 0)
(-0.00789102 0.00119959 0)
(-0.00810527 0.00119413 0)
(-0.00831814 0.00118825 0)
(-0.0085295 0.00118205 0)
(-0.00873926 0.00117562 0)
(-0.00894729 0.00116913 0)
(-0.00915349 0.00116277 0)
(-0.00935778 0.00115685 0)
(-0.00956007 0.00115175 0)
(-0.0097603 0.00114798 0)
(-0.0099584 0.00114624 0)
(-0.0101543 0.00114747 0)
(-0.010348 0.00115288 0)
(-0.0105393 0.00116416 0)
(-0.0107279 0.00118356 0)
(-0.0109133 0.00121413 0)
(-0.0110942 0.00125998 0)
(-0.0112682 0.00132664 0)
(-0.0114306 0.00142121 0)
(-0.011573 0.00155217 0)
(-0.0116801 0.00172806 0)
(-0.0117271 0.00195339 0)
(-0.0116826 0.00221821 0)
(-0.0115167 0.00249165 0)
(-2.45968e-05 0.000551648 0)
(-0.000152814 0.00107773 0)
(-0.000355577 0.00130525 0)
(-0.000564451 0.00139398 0)
(-0.000785026 0.00142497 0)
(-0.00100705 0.00143489 0)
(-0.0012296 0.00143815 0)
(-0.00145244 0.00143961 0)
(-0.00167542 0.00144068 0)
(-0.00189852 0.00144172 0)
(-0.00212174 0.00144279 0)
(-0.00234507 0.00144389 0)
(-0.00256851 0.00144503 0)
(-0.00279206 0.00144617 0)
(-0.00301571 0.0014473 0)
(-0.00323944 0.00144841 0)
(-0.00346325 0.00144947 0)
(-0.00368713 0.00145046 0)
(-0.00391105 0.00145135 0)
(-0.004135 0.00145211 0)
(-0.00435895 0.00145273 0)
(-0.00458287 0.00145316 0)
(-0.00480672 0.00145338 0)
(-0.00503047 0.00145335 0)
(-0.00525408 0.00145304 0)
(-0.00547749 0.00145241 0)
(-0.00570064 0.00145143 0)
(-0.00592348 0.00145006 0)
(-0.00614594 0.00144827 0)
(-0.00636794 0.00144601 0)
(-0.00658941 0.00144325 0)
(-0.00681024 0.00143996 0)
(-0.00703036 0.00143611 0)
(-0.00724964 0.00143168 0)
(-0.00746799 0.00142665 0)
(-0.00768529 0.00142101 0)
(-0.00790141 0.00141476 0)
(-0.00811622 0.00140794 0)
(-0.00832957 0.00140059 0)
(-0.00854133 0.00139277 0)
(-0.00875133 0.00138459 0)
(-0.00895943 0.0013762 0)
(-0.00916545 0.00136783 0)
(-0.0093692 0.00135975 0)
(-0.0095705 0.00135234 0)
(-0.00976913 0.00134611 0)
(-0.00996484 0.00134174 0)
(-0.0101573 0.00134009 0)
(-0.0103461 0.00134232 0)
(-0.0105307 0.00134991 0)
(-0.0107102 0.00136479 0)
(-0.0108833 0.00138943 0)
(-0.0110478 0.00142696 0)
(-0.0112006 0.00148119 0)
(-0.0113363 0.00155643 0)
(-0.0114466 0.00165698 0)
(-0.0115194 0.00178577 0)
(-0.0115373 0.00194129 0)
(-0.0114811 0.00211258 0)
(-0.0113336 0.00227749 0)
(-2.4477e-05 0.00063882 0)
(-0.000152483 0.0012462 0)
(-0.000355094 0.00150829 0)
(-0.000563887 0.00161026 0)
(-0.000784425 0.0016458 0)
(-0.00100641 0.00165715 0)
(-0.00122893 0.00166086 0)
(-0.00145174 0.00166252 0)
(-0.0016747 0.00166372 0)
(-0.00189778 0.00166488 0)
(-0.00212099 0.00166607 0)
(-0.00234433 0.00166729 0)
(-0.00256779 0.00166854 0)
(-0.00279138 0.00166979 0)
(-0.00301508 0.00167103 0)
(-0.00323889 0.00167224 0)
(-0.00346281 0.00167338 0)
(-0.00368681 0.00167443 0)
(-0.00391089 0.00167537 0)
(-0.00413502 0.00167616 0)
(-0.00435918 0.00167678 0)
(-0.00458335 0.00167718 0)
(-0.00480748 0.00167733 0)
(-0.00503155 0.00167719 0)
(-0.0052555 0.00167673 0)
(-0.0054793 0.0016759 0)
(-0.00570289 0.00167465 0)
(-0.00592619 0.00167295 0)
(-0.00614916 0.00167075 0)
(-0.00637171 0.00166802 0)
(-0.00659375 0.00166469 0)
(-0.0068152 0.00166074 0)
(-0.00703596 0.00165613 0)
(-0.00725591 0.00165082 0)
(-0.00747494 0.0016448 0)
(-0.00769292 0.00163804 0)
(-0.00790971 0.00163054 0)
(-0.00812516 0.00162231 0)
(-0.0083391 0.0016134 0)
(-0.00855136 0.00160384 0)
(-0.00876174 0.00159376 0)
(-0.00897003 0.00158327 0)
(-0.009176 0.00157257 0)
(-0.00937938 0.00156194 0)
(-0.00957988 0.0015517 0)
(-0.00977714 0.00154233 0)
(-0.00997073 0.00153442 0)
(-0.0101601 0.00152874 0)
(-0.0103447 0.00152625 0)
(-0.0105234 0.00152819 0)
(-0.0106952 0.00153608 0)
(-0.0108581 0.00155175 0)
(-0.0110098 0.00157735 0)
(-0.0111466 0.00161522 0)
(-0.0112636 0.00166766 0)
(-0.0113535 0.00173627 0)
(-0.011407 0.0018209 0)
(-0.0114125 0.0019178 0)
(-0.0113582 0.00201727 0)
(-0.011235 0.00210316 0)
(-2.43709e-05 0.000725766 0)
(-0.000152134 0.00141444 0)
(-0.000354526 0.00171118 0)
(-0.000563184 0.00182644 0)
(-0.000783626 0.00186655 0)
(-0.00100553 0.00187934 0)
(-0.00122798 0.00188351 0)
(-0.00145072 0.00188536 0)
(-0.00167361 0.00188671 0)
(-0.00189665 0.001888 0)
(-0.00211982 0.00188932 0)
(-0.00234313 0.00189068 0)
(-0.00256659 0.00189206 0)
(-0.00279019 0.00189345 0)
(-0.00301393 0.00189481 0)
(-0.0032378 0.00189613 0)
(-0.00346181 0.00189738 0)
(-0.00368593 0.00189853 0)
(-0.00391016 0.00189955 0)
(-0.00413447 0.0019004 0)
(-0.00435885 0.00190105 0)
(-0.00458327 0.00190145 0)
(-0.0048077 0.00190158 0)
(-0.0050321 0.00190137 0)
(-0.00525643 0.00190079 0)
(-0.00548065 0.0018998 0)
(-0.00570471 0.00189833 0)
(-0.00592853 0.00189635 0)
(-0.00615206 0.00189379 0)
(-0.00637522 0.00189061 0)
(-0.00659792 0.00188676 0)
(-0.00682007 0.00188219 0)
(-0.00704156 0.00187684 0)
(-0.00726228 0.00187069 0)
(-0.00748211 0.00186368 0)
(-0.0077009 0.0018558 0)
(-0.0079185 0.00184703 0)
(-0.00813475 0.00183737 0)
(-0.00834944 0.00182682 0)
(-0.00856238 0.00181544 0)
(-0.00877334 0.0018033 0)
(-0.00898206 0.00179051 0)
(-0.00918824 0.00177723 0)
(-0.00939155 0.00176367 0)
(-0.00959159 0.00175014 0)
(-0.00978791 0.00173702 0)
(-0.00997994 0.00172479 0)
(-0.010167 0.00171408 0)
(-0.0103482 0.00170565 0)
(-0.0105224 0.00170044 0)
(-0.0106882 0.00169953 0)
(-0.0108437 0.00170417 0)
(-0.0109861 0.00171567 0)
(-0.0111122 0.00173528 0)
(-0.0112173 0.00176386 0)
(-0.0112958 0.00180143 0)
(-0.0113406 0.00184639 0)
(-0.0113439 0.00189443 0)
(-0.0112985 0.00193758 0)
(-0.0111999 0.00196411 0)
(-2.42659e-05 0.000812484 0)
(-0.000151763 0.00158243 0)
(-0.000353902 0.00191387 0)
(-0.000562398 0.00204248 0)
(-0.000782714 0.00208719 0)
(-0.00100452 0.00210143 0)
(-0.00122686 0.00210608 0)
(-0.00144952 0.00210814 0)
(-0.00167234 0.00210963 0)
(-0.00189531 0.00211107 0)
(-0.00211843 0.00211254 0)
(-0.00234171 0.00211405 0)
(-0.00256516 0.00211558 0)
(-0.00278877 0.00211712 0)
(-0.00301254 0.00211864 0)
(-0.00323648 0.0021201 0)
(-0.00346058 0.00212149 0)
(-0.00368483 0.00212277 0)
(-0.00390921 0.0021239 0)
(-0.00413373 0.00212485 0)
(-0.00435834 0.00212557 0)
(-0.00458304 0.00212602 0)
(-0.00480779 0.00212615 0)
(-0.00503256 0.00212592 0)
(-0.00525732 0.00212528 0)
(-0.00548201 0.00212417 0)
(-0.00570659 0.00212253 0)
(-0.005931 0.00212031 0)
(-0.00615516 0.00211745 0)
(-0.00637901 0.00211388 0)
(-0.00660246 0.00210955 0)
(-0.0068254 0.0021044 0)
(-0.00704775 0.00209836 0)
(-0.00726937 0.0020914 0)
(-0.00749013 0.00208344 0)
(-0.00770988 0.00207446 0)
(-0.00792846 0.00206441 0)
(-0.00814568 0.00205328 0)
(-0.00836134 0.00204107 0)
(-0.0085752 0.00202779 0)
(-0.00878699 0.00201347 0)
(-0.00899643 0.00199821 0)
(-0.00920316 0.00198211 0)
(-0.00940679 0.00196535 0)
(-0.00960686 0.00194813 0)
(-0.00980282 0.00193075 0)
(-0.009994 0.00191358 0)
(-0.0101796 0.00189708 0)
(-0.0103587 0.00188179 0)
(-0.0105299 0.00186835 0)
(-0.0106918 0.00185746 0)
(-0.0108423 0.00184985 0)
(-0.0109791 0.00184617 0)
(-0.0110989 0.00184688 0)
(-0.0111979 0.00185194 0)
(-0.0112715 0.00186048 0)
(-0.0113146 0.00187032 0)
(-0.011322 0.00187738 0)
(-0.0112891 0.00187526 0)
(-0.0112138 0.00185548 0)
(-2.41552e-05 0.000898959 0)
(-0.000151363 0.00175015 0)
(-0.00035322 0.00211635 0)
(-0.000561534 0.00225836 0)
(-0.000781705 0.00230771 0)
(-0.00100338 0.00232342 0)
(-0.00122562 0.00232854 0)
(-0.00144817 0.00233082 0)
(-0.0016709 0.00233248 0)
(-0.0018938 0.00233408 0)
(-0.00211687 0.00233571 0)
(-0.00234011 0.00233739 0)
(-0.00256354 0.0023391 0)
(-0.00278716 0.00234082 0)
(-0.00301098 0.00234251 0)
(-0.00323498 0.00234416 0)
(-0.00345918 0.00234572 0)
(-0.00368356 0.00234716 0)
(-0.00390812 0.00234844 0)
(-0.00413285 0.00234952 0)
(-0.00435772 0.00235035 0)
(-0.00458273 0.0023509 0)
(-0.00480784 0.0023511 0)
(-0.00503302 0.0023509 0)
(-0.00525824 0.00235024 0)
(-0.00548346 0.00234907 0)
(-0.00570862 0.00234732 0)
(-0.00593367 0.00234492 0)
(-0.00615855 0.00234181 0)
(-0.00638317 0.00233791 0)
(-0.00660746 0.00233316 0)
(-0.00683131 0.00232749 0)
(-0.00705462 0.00232082 0)
(-0.00727727 0.00231309 0)
(-0.00749911 0.00230422 0)
(-0.00772 0.00229416 0)
(-0.00793974 0.00228286 0)
(-0.00815815 0.00227028 0)
(-0.00837501 0.00225637 0)
(-0.00859005 0.00224114 0)
(-0.00880298 0.00222458 0)
(-0.00901348 0.00220673 0)
(-0.00922117 0.00218765 0)
(-0.0094256 0.00216744 0)
(-0.00962625 0.00214624 0)
(-0.00982252 0.00212424 0)
(-0.0100137 0.00210168 0)
(-0.0101989 0.00207884 0)
(-0.010377 0.00205607 0)
(-0.0105468 0.00203373 0)
(-0.0107068 0.00201218 0)
(-0.010855 0.00199174 0)
(-0.0109892 0.00197258 0)
(-0.0111065 0.00195458 0)
(-0.0112038 0.00193718 0)
(-0.0112775 0.00191908 0)
(-0.0113238 0.00189795 0)
(-0.0113391 0.00187019 0)
(-0.0113205 0.00183078 0)
(-0.0112671 0.00177352 0)
(-2.40355e-05 0.000985172 0)
(-0.000150926 0.00191755 0)
(-0.000352474 0.00231859 0)
(-0.000560587 0.00247407 0)
(-0.000780592 0.00252808 0)
(-0.00100213 0.00254528 0)
(-0.00122424 0.0025509 0)
(-0.00144667 0.00255341 0)
(-0.00166931 0.00255524 0)
(-0.00189212 0.00255702 0)
(-0.00211512 0.00255883 0)
(-0.00233833 0.00256071 0)
(-0.00256174 0.00256262 0)
(-0.00278536 0.00256454 0)
(-0.00300921 0.00256644 0)
(-0.00323329 0.00256829 0)
(-0.00345759 0.00257006 0)
(-0.00368212 0.0025717 0)
(-0.00390686 0.00257317 0)
(-0.00413182 0.00257444 0)
(-0.00435697 0.00257544 0)
(-0.00458231 0.00257612 0)
(-0.0048078 0.00257644 0)
(-0.00503343 0.00257632 0)
(-0.00525916 0.00257572 0)
(-0.00548495 0.00257455 0)
(-0.00571075 0.00257275 0)
(-0.00593652 0.00257024 0)
(-0.00616218 0.00256695 0)
(-0.00638767 0.0025628 0)
(-0.00661289 0.0025577 0)
(-0.00683776 0.00255158 0)
(-0.00706217 0.00254434 0)
(-0.00728598 0.0025359 0)
(-0.00750906 0.00252619 0)
(-0.00773125 0.00251511 0)
(-0.00795236 0.0025026 0)
(-0.00817219 0.00248858 0)
(-0.00839049 0.002473 0)
(-0.00860701 0.00245581 0)
(-0.00882142 0.00243696 0)
(-0.00903337 0.00241646 0)
(-0.00924247 0.00239429 0)
(-0.00944822 0.0023705 0)
(-0.00965007 0.00234513 0)
(-0.00984739 0.00231827 0)
(-0.0100394 0.00229003 0)
(-0.0102252 0.00226054 0)
(-0.0104038 0.00222994 0)
(-0.0105738 0.00219836 0)
(-0.0107338 0.00216589 0)
(-0.010882 0.00213251 0)
(-0.0110163 0.00209805 0)
(-0.0111343 0.00206204 0)
(-0.0112334 0.00202358 0)
(-0.0113108 0.00198122 0)
(-0.0113635 0.00193272 0)
(-0.0113892 0.001875 0)
(-0.0113858 0.00180411 0)
(-0.0113529 0.00171549 0)
(-2.39049e-05 0.0010711 0)
(-0.000150449 0.00208462 0)
(-0.000351658 0.00252057 0)
(-0.000559548 0.00268958 0)
(-0.000779369 0.00274829 0)
(-0.00100074 0.002767 0)
(-0.00122271 0.00277312 0)
(-0.00144502 0.00277588 0)
(-0.00166754 0.00277791 0)
(-0.00189026 0.00277987 0)
(-0.00211318 0.0027819 0)
(-0.00233633 0.00278399 0)
(-0.00255971 0.00278613 0)
(-0.00278334 0.00278828 0)
(-0.00300723 0.00279042 0)
(-0.00323137 0.00279252 0)
(-0.00345578 0.00279453 0)
(-0.00368045 0.00279641 0)
(-0.00390539 0.00279812 0)
(-0.00413059 0.00279962 0)
(-0.00435604 0.00280083 0)
(-0.00458173 0.00280172 0)
(-0.00480764 0.00280221 0)
(-0.00503374 0.00280225 0)
(-0.00526002 0.00280175 0)
(-0.00548643 0.00280066 0)
(-0.00571293 0.00279888 0)
(-0.00593947 0.00279634 0)
(-0.00616599 0.00279296 0)
(-0.00639242 0.00278863 0)
(-0.00661868 0.00278327 0)
(-0.00684468 0.00277677 0)
(-0.0070703 0.00276905 0)
(-0.00729543 0.00276 0)
(-0.00751991 0.00274951 0)
(-0.00774359 0.00273749 0)
(-0.00796627 0.00272383 0)
(-0.00818775 0.00270844 0)
(-0.00840778 0.00269123 0)
(-0.00862608 0.00267211 0)
(-0.00884233 0.002651 0)
(-0.00905616 0.00262784 0)
(-0.00926713 0.00260256 0)
(-0.00947477 0.00257513 0)
(-0.00967848 0.00254551 0)
(-0.00987763 0.00251368 0)
(-0.0100714 0.00247964 0)
(-0.010259 0.00244336 0)
(-0.0104392 0.00240481 0)
(-0.0106109 0.00236393 0)
(-0.0107727 0.00232059 0)
(-0.0109229 0.00227451 0)
(-0.0110597 0.00222528 0)
(-0.011181 0.00217219 0)
(-0.0112847 0.00211421 0)
(-0.0113684 0.00204982 0)
(-0.01143 0.001977 0)
(-0.0114677 0.00189313 0)
(-0.01148 0.00179509 0)
(-0.0114667 0.00167944 0)
(-2.37626e-05 0.00115671 0)
(-0.000149929 0.00225132 0)
(-0.000350767 0.00272226 0)
(-0.00055841 0.00290487 0)
(-0.000778026 0.00296832 0)
(-0.000999222 0.00298855 0)
(-0.00122103 0.0029952 0)
(-0.00144319 0.00299822 0)
(-0.00166558 0.00300046 0)
(-0.00188818 0.00300264 0)
(-0.00211102 0.00300489 0)
(-0.0023341 0.00300722 0)
(-0.00255745 0.00300961 0)
(-0.00278107 0.00301203 0)
(-0.00300498 0.00301445 0)
(-0.00322918 0.00301683 0)
(-0.0034537 0.00301913 0)
(-0.00367852 0.0030213 0)
(-0.00390366 0.0030233 0)
(-0.00412911 0.00302507 0)
(-0.00435487 0.00302656 0)
(-0.00458093 0.00302771 0)
(-0.00480727 0.00302844 0)
(-0.00503389 0.0030287 0)
(-0.00526075 0.00302839 0)
(-0.00548782 0.00302745 0)
(-0.00571507 0.00302578 0)
(-0.00594245 0.0030233 0)
(-0.0061699 0.0030199 0)
(-0.00639736 0.00301549 0)
(-0.00662475 0.00300996 0)
(-0.00685198 0.0030032 0)
(-0.00707894 0.0029951 0)
(-0.00730552 0.00298552 0)
(-0.00753157 0.00297437 0)
(-0.00775693 0.0029615 0)
(-0.0079814 0.00294679 0)
(-0.00820479 0.00293013 0)
(-0.00842683 0.00291137 0)
(-0.00864724 0.0028904 0)
(-0.00886569 0.00286709 0)
(-0.00908182 0.00284132 0)
(-0.00929518 0.00281298 0)
(-0.00950527 0.00278194 0)
(-0.00971152 0.00274809 0)
(-0.00991327 0.00271132 0)
(-0.0101097 0.00267149 0)
(-0.0103001 0.00262846 0)
(-0.0104832 0.00258206 0)
(-0.010658 0.00253204 0)
(-0.0108232 0.0024781 0)
(-0.0109773 0.00241979 0)
(-0.0111186 0.00235652 0)
(-0.0112454 0.00228744 0)
(-0.0113558 0.00221145 0)
(-0.011448 0.00212708 0)
(-0.0115202 0.00203251 0)
(-0.0115711 0.00192551 0)
(-0.0115995 0.00180358 0)
(-0.0116052 0.00166409 0)
(-2.36079e-05 0.00124199 0)
(-0.000149362 0.00241762 0)
(-0.000349794 0.00292364 0)
(-0.000557166 0.00311993 0)
(-0.000776552 0.00318815 0)
(-0.000997548 0.00320993 0)
(-0.00121917 0.00321712 0)
(-0.00144116 0.00322041 0)
(-0.0016634 0.00322288 0)
(-0.00188588 0.0032253 0)
(-0.00210861 0.0032278 0)
(-0.00233161 0.0032304 0)
(-0.0025549 0.00323307 0)
(-0.00277851 0.00323579 0)
(-0.00300243 0.00323852 0)
(-0.0032267 0.00324122 0)
(-0.00345131 0.00324385 0)
(-0.00367628 0.00324636 0)
(-0.00390162 0.0032487 0)
(-0.00412733 0.00325081 0)
(-0.0043534 0.00325264 0)
(-0.00457985 0.00325411 0)
(-0.00480665 0.00325516 0)
(-0.00503379 0.00325571 0)
(-0.00526127 0.00325567 0)
(-0.00548904 0.00325497 0)
(-0.00571708 0.0032535 0)
(-0.00594535 0.00325117 0)
(-0.0061738 0.00324787 0)
(-0.00640236 0.00324348 0)
(-0.00663098 0.00323789 0)
(-0.00685955 0.00323098 0)
(-0.00708798 0.0032226 0)
(-0.00731616 0.00321264 0)
(-0.00754394 0.00320093 0)
(-0.00777116 0.00318735 0)
(-0.00799765 0.00317172 0)
(-0.00822318 0.0031539 0)
(-0.00844751 0.00313372 0)
(-0.00867037 0.00311103 0)
(-0.00889141 0.00308564 0)
(-0.00911027 0.00305738 0)
(-0.00932652 0.00302608 0)
(-0.00953965 0.00299156 0)
(-0.00974911 0.0029536 0)
(-0.00995423 0.00291201 0)
(-0.0101543 0.00286656 0)
(-0.0103484 0.00281698 0)
(-0.0105356 0.00276296 0)
(-0.0107149 0.00270414 0)
(-0.0108849 0.00264006 0)
(-0.0110445 0.00257015 0)
(-0.011192 0.00249368 0)
(-0.0113261 0.00240975 0)
(-0.011445 0.00231722 0)
(-0.0115474 0.00221469 0)
(-0.0116316 0.00210052 0)
(-0.0116966 0.00197283 0)
(-0.0117415 0.00182954 0)
(-0.0117658 0.00166859 0)
(-2.34402e-05 0.00132689 0)
(-0.000148746 0.00258348 0)
(-0.000348734 0.00312467 0)
(-0.000555806 0.00333471 0)
(-0.000774938 0.00340775 0)
(-0.000995709 0.0034311 0)
(-0.00121712 0.00343884 0)
(-0.00143893 0.00344243 0)
(-0.001661 0.00344515 0)
(-0.00188332 0.00344783 0)
(-0.00210593 0.0034506 0)
(-0.00232883 0.0034535 0)
(-0.00255205 0.00345649 0)
(-0.00277562 0.00345954 0)
(-0.00299955 0.00346262 0)
(-0.00322386 0.00346569 0)
(-0.00344856 0.00346869 0)
(-0.00367368 0.00347159 0)
(-0.00389921 0.00347433 0)
(-0.00412517 0.00347684 0)
(-0.00435157 0.00347907 0)
(-0.00457841 0.00348094 0)
(-0.00480568 0.00348238 0)
(-0.00503337 0.0034833 0)
(-0.00526149 0.00348363 0)
(-0.00548999 0.00348326 0)
(-0.00571887 0.00348209 0)
(-0.00594808 0.00348001 0)
(-0.00617759 0.00347691 0)
(-0.00640733 0.00347267 0)
(-0.00663725 0.00346715 0)
(-0.00686727 0.00346021 0)
(-0.00709729 0.00345171 0)
(-0.00732719 0.00344149 0)
(-0.00755686 0.00342939 0)
(-0.00778614 0.00341523 0)
(-0.00801485 0.00339884 0)
(-0.00824278 0.00338003 0)
(-0.0084697 0.0033586 0)
(-0.00869533 0.00333434 0)
(-0.00891934 0.00330705 0)
(-0.00914137 0.00327649 0)
(-0.009361 0.00324243 0)
(-0.00957775 0.00320461 0)
(-0.00979106 0.00316276 0)
(-0.0100003 0.00311659 0)
(-0.0102048 0.00306578 0)
(-0.0104037 0.00300996 0)
(-0.010596 0.00294871 0)
(-0.0107809 0.00288155 0)
(-0.0109572 0.00280792 0)
(-0.0111236 0.00272715 0)
(-0.011279 0.00263842 0)
(-0.0114218 0.00254077 0)
(-0.0115508 0.00243309 0)
(-0.0116647 0.00231404 0)
(-0.0117621 0.00218212 0)
(-0.0118421 0.00203572 0)
(-0.0119037 0.00187309 0)
(-0.0119467 0.00169254 0)
(-2.32589e-05 0.0014114 0)
(-0.000148078 0.00274886 0)
(-0.000347582 0.00332533 0)
(-0.000554324 0.00354919 0)
(-0.000773173 0.0036271 0)
(-0.000993693 0.00365204 0)
(-0.00121487 0.00366036 0)
(-0.00143647 0.00366426 0)
(-0.00165834 0.00366725 0)
(-0.00188049 0.0036702 0)
(-0.00210294 0.00367328 0)
(-0.00232573 0.00367651 0)
(-0.00254886 0.00367985 0)
(-0.00277237 0.00368327 0)
(-0.00299629 0.00368674 0)
(-0.00322063 0.00369022 0)
(-0.00344541 0.00369365 0)
(-0.00367065 0.00369699 0)
(-0.00389637 0.00370018 0)
(-0.00412259 0.00370316 0)
(-0.00434931 0.00370585 0)
(-0.00457654 0.0037082 0)
(-0.00480428 0.00371011 0)
(-0.00503254 0.0037115 0)
(-0.00526131 0.00371228 0)
(-0.00549058 0.00371234 0)
(-0.00572033 0.00371158 0)
(-0.00595053 0.00370988 0)
(-0.00618114 0.00370711 0)
(-0.00641213 0.00370314 0)
(-0.00664344 0.00369783 0)
(-0.00687499 0.00369101 0)
(-0.00710671 0.00368254 0)
(-0.00733848 0.00367223 0)
(-0.0075702 0.00365989 0)
(-0.00780171 0.00364535 0)
(-0.00803285 0.00362838 0)
(-0.00826342 0.00360878 0)
(-0.0084932 0.0035863 0)
(-0.00872192 0.0035607 0)
(-0.00894927 0.00353173 0)
(-0.0091749 0.00349911 0)
(-0.0093984 0.00346254 0)
(-0.00961932 0.0034217 0)
(-0.00983712 0.00337626 0)
(-0.0100512 0.00332584 0)
(-0.0102609 0.00327004 0)
(-0.0104655 0.00320839 0)
(-0.010664 0.0031404 0)
(-0.0108557 0.00306549 0)
(-0.0110393 0.002983 0)
(-0.011214 0.00289217 0)
(-0.0113784 0.00279214 0)
(-0.0115314 0.00268192 0)
(-0.0116718 0.00256039 0)
(-0.0117983 0.00242629 0)
(-0.0119099 0.00227824 0)
(-0.0120056 0.0021148 0)
(-0.0120846 0.00193447 0)
(-0.0121463 0.00173583 0)
(-2.30635e-05 0.00149546 0)
(-0.000147357 0.00291372 0)
(-0.000346333 0.00352557 0)
(-0.000552712 0.00376335 0)
(-0.000771247 0.00384617 0)
(-0.000991487 0.00387273 0)