/*--------------------------------*- C++ -*----------------------------------*\
  =========                 |
  \\      /  F ield         | OpenFOAM: The Open Source CFD Toolbox
   \\    /   O peration     | Website:  https://openfoam.org
    \\  /    A nd           | Version:  8
     \\/     M anipulation  |
\*---------------------------------------------------------------------------*/
FoamFile
{
    version     2.0;
    format      ascii;
    class       volVectorField;
    location    "9";
    object      U;
}
// * * * * * * * * * * * * * * * * * * * * * * * * * * * * * * * * * * * * * //

dimensions      [0 1 -1 0 0 0 0];

internalField   nonuniform List<vector> 
2844
(
(0.996451 -0.0055269 -2.20947e-06)
(1.02318 -0.00489514 -2.00196e-05)
(1.04607 -0.0146881 1.72824e-05)
(1.07689 -0.0154264 4.21631e-05)
(1.09936 -0.0185572 -1.57994e-05)
(1.1143 -0.0163635 -3.25205e-05)
(1.12193 -0.0141067 -1.63527e-05)
(1.11218 -0.0136672 9.65299e-06)
(1.11355 -0.0100922 1.34139e-05)
(1.09442 -0.00766953 4.53447e-06)
(1.08793 -0.0102131 -7.25051e-06)
(1.05576 -0.00417738 -1.10795e-05)
(1.04182 -0.00298883 -8.31885e-06)
(1.00986 -0.0030636 -5.23624e-07)
(0.999952 -0.00809763 2.71419e-06)
(0.961481 -0.0131139 4.84273e-06)
(0.95089 -0.0233398 -1.56522e-06)
(0.907007 -0.0259792 1.01781e-07)
(0.900064 -0.0168197 -1.04787e-06)
(0.868633 -0.0219561 -5.0736e-09)
(0.996655 -0.0151839 3.80441e-05)
(1.02574 -0.0294263 -0.000143715)
(1.04785 -0.034431 2.75697e-05)
(1.08407 -0.0244052 0.00021875)
(1.10946 -0.00912936 3.84132e-06)
(1.12664 0.0044352 -0.000139565)
(1.13405 0.0160645 -0.000130254)
(1.12639 0.0194231 9.62784e-06)
(1.12822 0.0245288 0.000101065)
(1.10159 0.0294672 4.52628e-05)
(1.10089 0.0417936 -2.43737e-05)
(1.06572 0.0420584 -6.55894e-07)
(1.04751 0.0407172 4.33382e-05)
(1.01874 0.0379076 1.26933e-05)
(1.01711 0.0468648 -3.76016e-05)
(0.968105 0.0530051 -2.55833e-05)
(0.956157 0.0658833 2.75717e-07)
(0.925825 0.0677115 6.61547e-07)
(0.917021 0.0481327 -6.59433e-06)
(0.886296 0.0470315 3.89646e-06)
(0.994985 -0.0255344 0.000342379)
(1.03283 -0.0390146 -0.000721584)
(1.08112 -0.0699349 -0.000451237)
(1.11831 -0.0674285 0.00101485)
(1.14938 -0.0556595 0.00103237)
(1.16836 -0.0305196 -0.000149311)
(1.16653 -0.0161113 -0.000639215)
(1.14549 -0.0113831 -0.000239354)
(1.14534 0.0102964 7.35374e-05)
(1.14326 0.0101821 0.000132429)
(1.12412 0.0148292 7.01538e-05)
(1.08837 0.0369327 -0.000143671)
(1.07462 0.0312908 -0.000289619)
(1.04225 0.0191235 -0.000142911)
(1.01455 0.0285455 9.38393e-05)
(0.983904 0.0354717 0.000167986)
(0.980131 0.00759176 9.11983e-05)
(0.917088 0.00305682 4.22888e-05)
(0.906242 0.0141228 2.93533e-05)
(0.871417 0.00229987 7.15358e-06)
(0.997994 -0.0511325 0.00122431)
(1.03005 -0.086571 -0.0010075)
(1.08901 -0.106668 -0.00325298)
(1.15931 -0.0717591 0.000443157)
(1.20317 -0.0452596 0.00377573)
(1.21753 -0.00465188 0.00272717)
(1.19515 0.0304667 -0.00238505)
(1.18858 0.0470338 -0.0033182)
(1.22179 0.0306236 0.000128889)
(1.18161 0.0495145 0.00141029)
(1.15834 0.0900908 -0.000233108)
(1.12374 0.0881806 -0.000559729)
(1.10911 0.0852405 0.000701184)
(1.06344 0.091846 0.00104068)
(1.071 0.0973958 0.000115865)
(1.03219 0.0818135 -0.000131897)
(0.998178 0.117985 -2.61083e-05)
(0.965639 0.13041 -6.55225e-05)
(0.972892 0.086296 -0.000120616)
(0.943126 0.0742211 -0.000161097)
(1.01119 -0.0514744 -0.000375017)
(1.0301 -0.102955 0.00592312)
(1.16698 -0.138512 -0.00190253)
(1.28797 -0.16842 -0.0152593)
(1.36845 -0.124171 0.00231159)
(1.28135 -0.0523022 0.0156657)
(1.24363 0.0079333 0.0110712)
(1.27793 0.00179023 -0.00435984)
(1.28737 0.0156182 -0.0117727)
(1.23386 0.0445713 -0.00588193)
(1.23426 0.0604869 0.00123615)
(1.21176 0.0766421 0.000176118)
(1.15912 0.0684152 -0.00416351)
(1.10324 0.0382288 -0.00415393)
(1.10079 0.0423026 -0.000711937)
(1.03119 0.0947564 0.00084656)
(1.01926 0.0603252 0.000484429)
(0.994355 0.0192213 -0.000765009)
(0.95591 0.0332515 -0.000768384)
(0.926591 0.029312 0.000227296)
(0.993549 -0.108297 -0.0118649)
(1.01937 -0.268781 0.030609)
(1.18685 -0.283036 0.0196189)
(1.34775 -0.0120093 -0.00170255)
(1.57983 -0.040845 -0.0508159)
(1.53497 -0.0715936 0.00215436)
(1.43537 -0.0863374 0.0285876)
(1.45146 0.0899679 0.0138916)
(1.35639 0.165776 -0.00744888)
(1.38345 0.150766 -0.0137247)
(1.38822 0.123238 -0.00349671)
(1.33033 0.160833 0.0127763)
(1.22336 0.212461 0.0166958)
(1.16478 0.180355 0.00911358)
(1.0948 0.171515 0.00053907)
(1.07456 0.146459 0.000392002)
(1.12575 0.13624 0.00289973)
(1.07662 0.191296 0.0055058)
(1.01717 0.15161 0.00727887)
(0.912661 0.0939717 0.00259919)
(0.947994 0.0398601 -0.00230869)
(1.09858 -0.447298 0.0311888)
(1.43941 -0.502901 0.0293817)
(1.63267 -0.287346 -0.0248072)
(1.73408 0.0572113 0.00812762)
(1.79494 -0.0100839 -0.0338686)
(1.69042 -0.270695 0.0149161)
(1.64594 -0.0770898 0.0157904)
(1.53912 0.102218 0.016578)
(1.55725 0.157009 0.0107631)
(1.59283 0.158682 0.00330975)
(1.58263 0.128183 0.00210723)
(1.59295 0.090558 0.00788451)
(1.52232 0.0896483 0.00977463)
(1.45422 0.118353 0.00406979)
(1.37436 0.0917577 -0.00157452)
(1.3848 0.050335 -0.00209391)
(1.26773 0.0564849 0.00286989)
(1.35649 0.0925135 0.00229915)
(1.27159 0.0874293 2.64143e-05)
(1.02371 -0.147989 0.0164972)
(1.04126 -0.999689 -0.0757526)
(1.79262 -0.713349 0.00685588)
(1.9406 -0.982451 0.0302977)
(1.74644 0.0581749 0.00620808)
(1.70991 0.0972835 0.01491)
(1.00034 -0.133107 -0.0183595)
(1.11507 0.0704622 0.0342269)
(0.893573 0.0573892 0.0293368)
(0.866375 0.0984422 0.0097532)
(0.948754 0.14398 -0.00264505)
(1.00344 0.132004 -0.00962785)
(1.12571 0.182452 -0.0137924)
(1.19399 0.184883 -0.0183809)
(1.35901 0.2292 -0.0177223)
(1.42383 0.206373 -0.0110152)
(1.52244 0.208452 -0.00225784)
(1.44508 0.184001 0.0013995)
(1.48639 0.157561 0.00171956)
(1.45416 0.169341 0.00194639)
(1.31073 0.064323 0.0722201)
(0.600345 -1.38293 0.0368141)
(1.19418 -1.3299 0.0670098)
(-0.544247 -0.459051 -0.0303979)
(-0.53177 -0.108435 0.00574667)
(-0.269761 -0.0924004 -0.0412657)
(0.168114 -0.114796 -0.00253894)
(0.248029 -0.0757698 -0.00413677)
(0.264874 -0.0234299 -0.0082597)
(0.499908 0.0238893 -0.0127502)
(0.607011 0.0514185 -0.0094375)
(0.745856 0.110236 -0.00416502)
(0.816512 0.0868972 0.00218215)
(0.830189 0.106186 0.0025303)
(0.940934 0.0908979 -4.66603e-05)
(0.928516 0.0875758 -0.0011153)
(1.07562 0.104863 -0.00138078)
(0.321205 -0.113364 -0.0459144)
(0.898594 -1.21856 -0.124087)
(-0.0286249 -0.249366 -0.3682)
(-0.327478 0.000708023 0.00225575)
(0.144244 0.359992 -0.0986378)
(0.0748606 -0.168361 0.0112756)
(-0.435807 -0.15881 -0.00150268)
(-0.280234 0.123629 -0.012878)
(-0.215661 0.0039619 -0.00309571)
(-0.148455 0.0466123 -0.00446358)
(-0.058377 0.111293 -0.00165383)
(0.00858046 0.116415 6.63207e-05)
(0.142131 0.105884 0.00052857)
(0.163287 0.0913272 -0.000597403)
(0.390744 0.0715585 -0.00067334)
(0.379313 0.0517462 -0.000327243)
(0.648909 0.0503369 -0.000612894)
(1.50108 0.101832 0.15834)
(0.214005 0.197045 0.16467)
(-0.169185 0.299452 0.00653576)
(0.114381 0.173888 0.0645617)
(-0.209154 0.304283 0.0412163)
(-0.183194 0.181553 0.00893086)
(-0.197805 -0.109019 0.019343)
(-0.0756516 -0.0875594 0.0107255)
(-0.0986827 -0.0328791 0.0137104)
(-0.0267729 -0.0392239 0.00543454)
(0.0504419 -0.0439434 0.00128555)
(0.194891 -0.0464399 -0.000538824)
(0.257601 -0.0820573 -0.000786023)
(0.473147 -0.0890279 0.00065827)
(0.490651 -0.113985 0.000790529)
(0.728657 -0.111851 0.00127991)
(1.40834 0.0957087 0.0286373)
(-0.251664 0.637515 0.0398521)
(0.516938 1.08897 -0.0778557)
(-0.0616686 0.250711 0.0571166)
(0.164093 -0.303638 -0.0766786)
(0.27999 -0.165361 -0.0200274)
(0.43036 -0.197112 0.00611681)
(0.602634 -0.186844 -0.0102876)
(0.59798 -0.165273 -0.0145867)
(0.720155 -0.108933 -0.00200447)
(0.732537 -0.0478581 0.0025407)
(0.829282 -0.0705978 0.00106355)
(0.905348 -0.0555929 -0.000325282)
(1.005 -0.115002 0.000672697)
(1.11701 -0.130103 0.00153013)
(1.1715 -0.150751 0.00298407)
(1.26339 -0.159746 0.00227669)
(0.928275 0.238569 -0.00307252)
(1.21097 0.169677 -0.0031681)
(1.052 0.997458 0.0329035)
(0.0629315 -0.0495279 0.00358389)
(1.05288 -0.0110178 -0.0173438)
(1.12915 -0.0397836 -0.00698403)
(1.16998 -0.0650621 -0.0330672)
(1.33369 -0.10192 -0.0224312)
(1.32523 -0.17463 -0.020899)
(1.316 -0.149728 -0.0261313)
(1.36454 -0.172921 -0.0274419)
(1.37011 -0.162738 -0.0279547)
(1.48084 -0.199121 -0.0247403)
(1.50224 -0.201559 -0.0148154)
(1.58648 -0.244443 -0.00482604)
(1.501 -0.261629 0.00385563)
(1.55203 -0.26754 0.00638445)
(1.48924 -0.233541 0.00107786)
(1.00459 0.0601564 0.0101676)
(1.10188 0.320183 -0.0104658)
(1.39677 0.461183 -0.0171839)
(1.75302 0.344029 0.0197532)
(1.92062 -0.0646604 -0.000387329)
(1.63783 0.0930334 0.0267901)
(1.60868 -0.0646938 0.023387)
(1.63628 -0.258137 0.0170532)
(1.61305 -0.200405 0.0161749)
(1.59606 -0.13518 0.0155724)
(1.54013 -0.0838583 0.00644532)
(1.48623 -0.0702989 -0.00393964)
(1.51304 -0.0391546 -0.00574042)
(1.52784 -0.0119138 -0.00391624)
(1.51435 -0.0299782 0.0026966)
(1.42846 -0.0380887 0.00869292)
(1.34028 -0.0458353 0.00258101)
(1.22747 -0.112286 -0.0017081)
(1.25074 -0.164926 0.00126143)
(1.11585 -0.109847 0.000303266)
(1.0254 0.081493 -0.0102025)
(1.01271 0.0526764 0.0189848)
(1.1688 0.312507 -0.0172394)
(1.44149 0.282108 -0.0194702)
(1.56931 0.143366 0.0138303)
(1.44637 -0.000987951 0.0159124)
(1.38155 -0.105744 0.0011639)
(1.41049 -0.119029 -0.0102861)
(1.30659 -0.13841 -0.00824268)
(1.30429 -0.142815 -0.00379817)
(1.29895 -0.127749 -0.00450466)
(1.30162 -0.121713 -0.00404554)
(1.32317 -0.140292 0.00330583)
(1.34069 -0.10921 0.012385)
(1.28117 -0.128991 0.0166806)
(1.17647 -0.136499 0.0170748)
(1.17332 -0.141876 0.0115132)
(1.07565 -0.196477 0.000355896)
(1.04126 -0.175074 -0.00672569)
(0.978813 -0.119816 -0.00299201)
(1.02756 0.076538 -0.0013648)
(1.01483 0.069408 -0.00440979)
(1.13439 0.19182 -0.000383215)
(1.27767 0.207874 0.00891048)
(1.32537 0.13983 0.00779181)
(1.28591 0.063039 -0.006618)
(1.28931 -0.0377699 -0.00833305)
(1.2912 -0.0668761 -0.00267597)
(1.26992 -0.0687615 -0.00504215)
(1.20676 -0.0710497 -0.00816111)
(1.22498 -0.0450437 -0.0066318)
(1.23791 -0.0416775 -0.00166653)
(1.19916 -0.0510695 0.00210885)
(1.13913 -0.0408422 0.00417399)
(1.12271 -0.0404923 0.00272424)
(1.06127 -0.0862876 -0.00113083)
(1.05149 -0.056481 -0.00142198)
(1.02269 -0.0151688 0.000727636)
(0.965831 -0.0317441 0.000633212)
(0.920706 -0.0317203 -0.000412714)
(1.00239 0.0476409 0.000441083)
(1.0367 0.0454006 -0.00361638)
(1.08474 0.094118 0.00289954)
(1.14567 0.0890055 0.00386606)
(1.19726 0.0809313 0.000780307)
(1.24726 0.0579938 0.00153543)
(1.228 -0.0152122 0.00244798)
(1.17686 -0.0520856 -0.00017556)
(1.18231 -0.0361641 -0.00263662)
(1.14934 -0.0437043 -0.00274808)
(1.14377 -0.0776066 -0.00138519)
(1.12474 -0.0719357 -2.45461e-05)
(1.12409 -0.0678181 0.000484448)
(1.08296 -0.0766774 -0.000278822)
(1.09386 -0.0875325 -0.000458375)
(1.05879 -0.0727858 0.000506103)
(1.02829 -0.113176 0.000764311)
(0.991975 -0.136431 0.000486263)
(1.0012 -0.101331 0.00047236)
(0.965486 -0.0858879 0.000329743)
(0.999521 0.0327165 0.000365024)
(1.03182 0.0309389 -0.000833412)
(1.06101 0.0614688 6.06858e-05)
(1.09652 0.0630678 0.000595228)
(1.13964 0.0595876 0.00113904)
(1.17757 0.0308291 0.00123763)
(1.18267 -0.00453398 0.000374744)
(1.14979 -0.0195467 -0.000509903)
(1.14012 -0.0325413 -0.000940746)
(1.13821 -0.0192872 -0.000689758)
(1.12305 -0.0120071 -0.000230436)
(1.09067 -0.0277854 4.50189e-05)
(1.08183 -0.0217188 0.000197196)
(1.05426 -0.00976491 0.000409255)
(1.02881 -0.0207054 0.000381581)
(0.999326 -0.0313039 2.89208e-05)
(0.999576 -0.00443084 -0.000159689)
(0.93603 0.000784141 -0.000141556)
(0.922481 -0.0130625 -0.000125947)
(0.881372 -0.0031601 -6.35049e-05)
(0.997675 0.0137855 0.000111915)
(1.02644 0.0198561 -0.000154803)
(1.04116 0.0320431 -0.000156417)
(1.0772 0.0345593 0.000145551)
(1.10835 0.0277581 0.000374502)
(1.13256 0.0171275 0.000355829)
(1.14079 -0.00260816 0.00013865)
(1.12372 -0.0110054 -5.36128e-05)
(1.11749 -0.0159448 -0.000120911)
(1.08983 -0.0194801 -0.000104119)
(1.09355 -0.0326846 -6.02781e-05)
(1.06452 -0.0352856 -6.58222e-06)
(1.05237 -0.0362435 -4.03206e-06)
(1.02828 -0.034197 -6.29187e-05)
(1.0327 -0.0437295 -5.20493e-05)
(0.98606 -0.0498426 4.51775e-05)
(0.975698 -0.065563 9.5203e-05)
(0.945101 -0.0710119 8.09366e-05)
(0.937186 -0.0546974 4.12545e-05)
(0.902179 -0.0525933 1.70465e-05)
(0.997542 0.00685905 2.17075e-05)
(1.02144 0.00346472 -2.74412e-05)
(1.037 0.0112342 -4.75841e-05)
(1.06696 0.00900809 4.10473e-05)
(1.09429 0.00939827 9.50142e-05)
(1.11588 0.00455526 8.28705e-05)
(1.12643 -0.000882884 1.8196e-05)
(1.11217 -0.00227942 -2.25954e-05)
(1.1089 -0.00294052 -3.63434e-05)
(1.08895 -0.0010952 -2.60983e-05)
(1.08508 0.00601104 -1.01637e-05)
(1.05619 0.00402251 4.3031e-06)
(1.04632 0.00522581 1.06701e-05)
(1.01791 0.00566643 1.35082e-05)
(1.01212 0.0102925 8.39885e-06)
(0.976058 0.0147128 1.406e-06)
(0.968777 0.0258156 -3.31652e-06)
(0.924565 0.0293125 1.09903e-06)
(0.917707 0.0202108 -1.6015e-06)
(0.88219 0.0241326 -5.64949e-07)
(0.996447 -0.00552389 1.3849e-05)
(1.02319 -0.00492338 -5.19055e-05)
(1.04607 -0.014658 -3.78015e-07)
(1.07687 -0.0153933 6.5322e-05)
(1.09936 -0.0185876 -5.09666e-07)
(1.11432 -0.0163971 -4.6085e-05)
(1.12194 -0.0141239 -3.35219e-05)
(1.11217 -0.0136583 -1.05132e-05)
(1.11354 -0.0100683 7.55689e-07)
(1.09442 -0.00765917 -4.13625e-06)
(1.08794 -0.010214 -1.2869e-05)
(1.05577 -0.00416986 -1.68414e-05)
(1.04182 -0.00297345 -1.58539e-05)
(1.00986 -0.00306407 -1.08061e-05)
(0.999953 -0.0081147 -2.70146e-06)
(0.961483 -0.0131268 4.84364e-06)
(0.950893 -0.0233383 2.84777e-06)
(0.90701 -0.025974 -9.11303e-08)
(0.900066 -0.0168173 2.05639e-07)
(0.868635 -0.0219535 4.11073e-07)
(0.996632 -0.0151602 0.000112959)
(1.02584 -0.0296693 -0.000267706)
(1.04779 -0.0341774 -0.00011695)
(1.08386 -0.0240314 0.000303982)
(1.10953 -0.00925666 3.90362e-05)
(1.12688 0.00409058 -0.000194992)
(1.13413 0.0159303 -0.000186528)
(1.1263 0.019533 -6.38865e-05)
(1.12811 0.0246376 2.21331e-05)
(1.10159 0.0294775 1.38389e-05)
(1.10096 0.0417276 -3.23724e-05)
(1.06578 0.0419504 -2.96329e-05)
(1.04753 0.0406288 3.22062e-05)
(1.01874 0.0378991 6.91172e-05)
(1.0171 0.0469193 1.46658e-05)
(0.968092 0.053073 -6.28022e-05)
(0.956142 0.0659111 -7.68794e-05)
(0.925809 0.0676979 -6.17678e-05)
(0.91701 0.048117 -2.98661e-05)
(0.886292 0.0470264 -4.90297e-07)
(0.994682 -0.0252002 0.000798823)
(1.03344 -0.0404019 -0.00129187)
(1.08134 -0.0692429 -0.0019248)
(1.11689 -0.0652956 0.00149287)
(1.14907 -0.0560218 0.00205383)
(1.16964 -0.0319422 0.000192763)
(1.16726 -0.0170338 -0.000983926)
(1.14494 -0.0111657 -0.000803258)
(1.14446 0.0111192 -0.00024556)
(1.14295 0.0105013 -9.36964e-05)
(1.12448 0.0145627 -0.000138655)
(1.08883 0.0369569 -0.000249687)
(1.07471 0.0317603 -0.000416954)
(1.04216 0.0192716 -0.0004836)
(1.0145 0.0282023 -0.00023305)
(0.983894 0.0352195 0.000156513)
(0.980156 0.00766399 0.000241305)
(0.917188 0.00308138 0.00017388)
(0.90637 0.0140539 0.000109796)
(0.871469 0.00233158 2.98965e-05)
(0.995756 -0.0482145 0.00324515)
(1.03282 -0.0932859 -0.00144087)
(1.09257 -0.107872 -0.0107358)
(1.15299 -0.0616359 -0.00224095)
(1.19635 -0.037501 0.00690506)
(1.22016 -0.00689102 0.00564651)
(1.20109 0.0263721 -0.00363974)
(1.18919 0.0464567 -0.00634829)
(1.21815 0.031333 -0.00233192)
(1.17986 0.0496903 0.000213145)
(1.15855 0.0900882 -0.000759018)
(1.1243 0.0869908 -0.00116423)
(1.11006 0.082867 0.000231628)
(1.06383 0.0905684 0.0015225)
(1.07002 0.0982245 0.000881238)
(1.03049 0.0834105 -0.00022478)
(0.996999 0.1188 -0.000475028)
(0.964694 0.130684 -0.000440972)
(0.972075 0.0865995 -0.000375323)
(0.942963 0.0743486 -0.000263114)
(1.00621 -0.0416528 0.00219465)
(1.03843 -0.115363 0.0096128)
(1.17436 -0.155435 -0.0160467)
(1.28815 -0.151097 -0.0384426)
(1.33912 -0.0963022 0.000206987)
(1.2666 -0.0378175 0.0356932)
(1.26539 -0.0102491 0.0223981)
(1.30729 -0.0174052 -0.0112477)
(1.29256 0.0209844 -0.0219796)
(1.22486 0.0552628 -0.0114631)
(1.2419 0.0566548 -0.00140584)
(1.235 0.0711189 -0.00188016)
(1.17191 0.0758377 -0.00630174)
(1.10137 0.0498346 -0.00760165)
(1.09954 0.0446999 -0.0037227)
(1.03792 0.0933118 0.000308965)
(1.0273 0.0595983 0.000508125)
(1.00282 0.0184244 -0.00182621)
(0.958224 0.0315567 -0.00186382)
(0.924821 0.0273383 0.000128928)
(1.00976 -0.108261 -0.00875979)
(1.02527 -0.22484 0.0298048)
(1.18507 -0.285954 0.0109122)
(1.37179 -0.105078 -0.0292889)
(1.53214 0.00585807 -0.105015)
(1.45211 0.0392782 0.0126441)
(1.4133 -0.0240761 0.0740022)
(1.51406 0.062802 0.0398949)
(1.44205 0.0956237 -0.0171252)
(1.42029 0.0987719 -0.0360743)
(1.34356 0.108063 -0.0162079)
(1.25914 0.156851 0.0108069)
(1.19083 0.192991 0.0160556)
(1.16622 0.152487 0.00531314)
(1.09292 0.159404 -0.00475293)
(1.04536 0.148415 -0.00423506)
(1.09977 0.140052 0.000302177)
(1.05268 0.189515 0.00966912)
(1.02141 0.153565 0.0174311)
(0.935258 0.100098 0.00720375)
(1.01407 -0.0529953 0.00456926)
(1.11294 -0.170191 0.0284967)
(1.45035 -0.317153 -0.0669578)
(1.72553 -0.383609 -0.0883416)
(1.64866 -0.0323994 0.0325215)
(1.62621 0.0149402 -0.0597679)
(1.57132 -0.105573 0.0413967)
(1.65637 -0.0380537 0.0511433)
(1.60415 0.0656446 0.0328835)
(1.6041 0.146829 0.000929455)
(1.57835 0.206872 -0.00999731)
(1.52985 0.228254 0.00389003)
(1.53336 0.190755 0.0205469)
(1.49896 0.158387 0.0259482)
(1.43357 0.152184 0.0162748)
(1.35716 0.116966 0.000801095)
(1.33501 0.0741544 -0.000352837)
(1.22469 0.0825592 0.00507043)
(1.31458 0.118337 -0.00298931)
(1.22525 0.0922763 -0.00399149)
(0.955002 -0.194698 -0.0186151)
(1.38358 -0.527402 -0.142995)
(2.05355 -0.756176 -0.177755)
(1.76033 -0.419047 0.138653)
(1.80042 0.0079177 0.111608)
(1.499 0.0495465 0.0247285)
(1.16656 -0.0385343 -0.0347581)
(1.27385 0.0799504 0.0173779)
(1.18928 0.108346 0.0854497)
(1.22139 0.17711 0.0696616)
(1.27892 0.231702 0.0410226)
(1.30265 0.204979 0.0131309)
(1.37714 0.232154 -0.0135364)
(1.37799 0.220855 -0.0317621)
(1.44576 0.245261 -0.0377297)
(1.43502 0.212328 -0.0317085)
(1.51258 0.209891 -0.0149476)
(1.44379 0.198275 -0.00374772)
(1.50976 0.181602 0.000638527)
(1.48836 0.180727 0.00398031)
(1.21717 -0.0527165 0.0678321)
(1.81629 -1.00233 -0.235125)
(1.78014 -0.692965 0.243121)
(-0.292409 -0.421581 -0.168876)
(-0.00441141 0.0953611 0.0282263)
(-0.067316 -0.000152093 -0.0820656)
(0.309497 0.00444193 -0.0419715)
(0.450266 0.0136127 -0.0129835)
(0.450431 0.0274045 -0.0199664)
(0.622988 0.0537353 -0.0361315)
(0.692918 0.061748 -0.0303593)
(0.803894 0.113561 -0.01592)
(0.867244 0.0891175 -0.000242973)
(0.908089 0.116518 0.00554734)
(1.00809 0.104517 0.003536)
(1.00946 0.101235 0.00141467)
(1.13812 0.116635 -0.000491538)
(0.507282 -0.0430104 0.00469791)
(1.44115 -0.742068 -0.302381)
(0.570764 -0.686253 -0.0516287)
(-0.185583 -0.0105482 0.012972)
(-0.106717 -0.0335464 -0.134374)
(-0.065739 -0.323721 0.00729348)
(-0.384581 -0.168131 -0.00388143)
(-0.215344 0.0968484 -0.0348235)
(-0.17281 0.0370078 -0.0123214)
(-0.113618 0.0527129 -0.0183467)
(-0.0294176 0.115746 -0.00712417)
(0.0363782 0.123918 -0.00105752)
(0.169016 0.113283 0.00205761)
(0.193002 0.102098 0.00119542)
(0.410504 0.0807161 -6.64128e-05)
(0.404132 0.0635981 0.00074546)
(0.664461 0.0599748 -0.000856992)
(1.16499 0.0214649 0.0700205)
(-0.0946267 -0.308113 0.140835)
(0.189504 0.105981 -0.243712)
(0.0512723 0.145293 0.183809)
(-0.223876 0.35417 0.0220686)
(-0.327526 0.138009 0.00775402)
(-0.287478 -0.135057 0.0456481)
(-0.176985 -0.0392501 0.0185419)
(-0.158423 -0.0245444 0.0201128)
(-0.0633327 -0.0367946 0.00721544)
(0.0117048 -0.0368562 0.000700782)
(0.163409 -0.0406804 -0.00174707)
(0.214017 -0.071907 -0.000360721)
(0.437195 -0.0787225 0.0018024)
(0.449936 -0.0999973 0.00283587)
(0.697149 -0.0984299 0.00342911)
(1.43392 0.0557732 0.0537185)
(0.763696 0.0764202 0.174297)
(0.633252 1.00713 -0.137641)
(-0.130299 0.114393 0.148334)
(-0.0502994 -0.216741 -0.026374)
(-0.0406278 0.0631305 0.0740789)
(0.304397 -0.0606224 0.0117414)
(0.43186 -0.0525461 -0.00160401)
(0.386061 -0.0518579 -0.00111778)
(0.542419 -0.0237801 0.0160387)
(0.597722 -0.00661783 0.0143004)
(0.720919 -0.0550561 0.0054531)
(0.812273 -0.0479034 -0.00176355)
(0.908967 -0.108029 4.21381e-05)
(1.03034 -0.117035 0.00374407)
(1.08077 -0.136574 0.00915186)
(1.19677 -0.146502 0.008144)
(1.03694 -0.0121506 -0.00761619)
(0.952254 0.426788 -0.0691662)
(1.20681 0.701716 0.209719)
(0.255292 -0.129849 0.00187392)
(1.2024 -0.100385 0.0157296)
(1.34402 -0.113727 -0.032813)
(1.28484 -0.110644 -0.0353262)
(1.37984 -0.133763 -0.0234342)
(1.38057 -0.214531 -0.0250993)
(1.34101 -0.203549 -0.0211308)
(1.34721 -0.222811 -0.0153266)
(1.32171 -0.186676 -0.0145769)
(1.39401 -0.213156 -0.0191673)
(1.40276 -0.20886 -0.0190618)
(1.497 -0.239149 -0.011114)
(1.42992 -0.245629 -0.000423014)
(1.51214 -0.244935 0.00686435)
(1.47398 -0.219059 0.00275171)
(1.07361 0.116589 0.0205943)
(0.960881 0.25283 -0.0515802)
(1.40069 0.553134 -0.0430251)
(1.80652 0.432474 0.06259)
(1.86945 -0.0605281 -0.00725779)
(1.6338 -0.0309155 0.0302053)
(1.61002 -0.089559 0.0171927)
(1.63002 -0.190855 0.014307)
(1.6132 -0.129127 0.0180021)
(1.63111 -0.130028 0.0243496)
(1.59887 -0.12521 0.0167539)
(1.50947 -0.128694 -0.00135475)
(1.49768 -0.114211 -0.0123893)
(1.49854 -0.120799 -0.0124508)
(1.48986 -0.150629 0.000394463)
(1.44468 -0.131562 0.0140283)
(1.42034 -0.0971574 0.00858956)
(1.28857 -0.113832 -0.00142132)
(1.34117 -0.15482 -0.00254208)
(1.21389 -0.11606 -0.00356005)
(1.02133 0.0885016 -0.00342072)
(1.01857 0.113284 0.00595766)
(1.20759 0.293237 -0.0174845)
(1.43491 0.188077 -0.0202716)
(1.54073 0.0628538 0.035353)
(1.47164 0.0386094 0.0279526)
(1.44542 -0.0155295 -0.00268175)
(1.48748 -0.0553952 -0.0261324)
(1.38255 -0.0795889 -0.022678)
(1.38032 -0.0870382 -0.0108095)
(1.32982 -0.0918124 -0.0108263)
(1.27195 -0.124972 -0.0182902)
(1.24205 -0.166488 -0.0124856)
(1.25454 -0.136177 0.00787694)
(1.19509 -0.144563 0.0278355)
(1.12611 -0.136909 0.0311541)
(1.16934 -0.136338 0.0204297)
(1.10242 -0.195053 0.00340484)
(1.04755 -0.167343 -0.00893996)
(0.952383 -0.110148 -0.00431233)
(1.01621 0.0695732 0.000432621)
(1.03241 0.111211 -0.0122905)
(1.14352 0.164437 0.00200807)
(1.26242 0.163362 0.0249935)
(1.31782 0.118343 0.0195412)
(1.27773 0.0454546 -0.0104891)
(1.28034 -0.0502666 -0.0223008)
(1.31008 -0.0554683 -0.0109679)
(1.30763 -0.0448821 -0.00595729)
(1.23298 -0.0539757 -0.0110521)
(1.23458 -0.0401403 -0.0142674)
(1.23432 -0.0428992 -0.00696906)
(1.18922 -0.0533133 0.00265573)
(1.1296 -0.0383514 0.00744031)
(1.13011 -0.0367597 0.00430298)
(1.0659 -0.0895848 -0.00150552)
(1.04582 -0.0636797 -0.00232316)
(1.01629 -0.0213712 0.00106023)
(0.968364 -0.0379031 0.00230605)
(0.928715 -0.0355516 0.000328768)
(0.999127 0.0433591 0.00116042)
(1.03869 0.0551883 -0.00657128)
(1.08875 0.0945407 0.0049753)
(1.1455 0.0804687 0.00844544)
(1.19166 0.0674024 0.000887738)
(1.23773 0.0471218 -0.00209851)
(1.22525 -0.0163458 0.00120641)
(1.18396 -0.0455663 0.000442785)
(1.19274 -0.0272898 -0.00460874)
(1.15657 -0.0377608 -0.00633971)
(1.14454 -0.0760574 -0.00345074)
(1.1223 -0.0730694 -0.00113439)
(1.12256 -0.0702538 -0.00146579)
(1.08247 -0.0804214 -0.00251555)
(1.09174 -0.0906806 -0.00172311)
(1.05775 -0.0727697 0.000121698)
(1.02862 -0.11166 0.000823816)
(0.992249 -0.135142 0.000573265)
(1.0005 -0.100234 0.000472056)
(0.964217 -0.085309 0.000372312)
(0.998926 0.0314618 0.000573143)
(1.03155 0.0328628 -0.00128339)
(1.06284 0.0629928 0.000278701)
(1.09728 0.0612192 0.000931382)
(1.13775 0.0555031 0.000850279)
(1.17527 0.0275604 0.00154483)
(1.18193 -0.00568672 0.00105816)
(1.15053 -0.0189869 -0.000553513)
(1.14117 -0.0314378 -0.00183724)
(1.13882 -0.01843 -0.00194727)
(1.12337 -0.0115305 -0.00122614)
(1.09064 -0.0277338 -0.000305484)
(1.08132 -0.0216286 0.000361645)
(1.05363 -0.00911149 0.000668605)
(1.02858 -0.0202337 0.000518874)
(0.999372 -0.0317838 2.73045e-05)
(0.999749 -0.00543352 -0.000216136)
(0.93624 2.37077e-05 -0.000218407)
(0.922676 -0.0134354 -0.000182399)
(0.881502 -0.00332082 -7.9649e-05)
(0.997602 0.0135425 0.000179701)
(1.02636 0.0202047 -0.000176092)
(1.04147 0.0323603 -0.000244803)
(1.07735 0.034183 6.50954e-05)
(1.1081 0.0269135 0.000451399)
(1.13228 0.0165392 0.000564348)
(1.14069 -0.00269798 0.000339523)
(1.12377 -0.010787 -8.28744e-05)
(1.11759 -0.0156253 -0.000366006)
(1.08991 -0.0192494 -0.00032384)
(1.09357 -0.032621 -0.000162895)
(1.06449 -0.0353463 -8.81584e-05)
(1.05233 -0.0363644 -0.000117522)
(1.02827 -0.0343453 -0.000152191)
(1.03271 -0.0438324 -8.35342e-05)
(0.986044 -0.0498453 4.25609e-05)
(0.975655 -0.0655463 0.000107863)
(0.945063 -0.0709885 0.000104066)
(0.937162 -0.0546662 6.71064e-05)
(0.90217 -0.0525797 2.09475e-05)
(0.997536 0.00682445 4.32595e-05)
(1.02143 0.00351266 -3.54595e-05)
(1.03703 0.0112825 -8.11297e-05)
(1.067 0.00895558 2.11761e-05)
(1.09428 0.00928949 0.000137778)
(1.11585 0.00446452 0.00014579)
(1.12641 -0.000921282 5.57934e-05)
(1.11217 -0.00227095 -4.3448e-05)
(1.1089 -0.00291564 -9.09926e-05)
(1.08897 -0.00107377 -8.11263e-05)
(1.08509 0.00602782 -4.21692e-05)
(1.0562 0.00403317 -5.51225e-06)
(1.04632 0.00524116 1.17356e-05)
(1.01791 0.00569729 1.41305e-05)
(1.01212 0.0103116 8.77874e-06)
(0.976059 0.0146979 -6.718e-07)
(0.968783 0.0257836 -1.61251e-08)
(0.924568 0.0292854 1.21345e-06)
(0.917708 0.0201963 -3.60151e-07)
(0.882191 0.0241272 -4.41951e-07)
(0.996444 -0.00550859 1.60769e-05)
(1.02318 -0.00494939 -3.1963e-05)
(1.04608 -0.0146895 -1.76324e-05)
(1.07688 -0.0153858 2.32717e-05)
(1.09935 -0.018594 1.53092e-05)
(1.11432 -0.0164123 -1.36176e-05)
(1.12194 -0.0141337 -1.71822e-05)
(1.11218 -0.0136724 -2.01064e-05)
(1.11354 -0.0100875 -1.25862e-05)
(1.09442 -0.00766614 -8.62064e-06)
(1.08794 -0.0102139 -5.59035e-06)
(1.05577 -0.00417332 -5.74569e-06)
(1.04182 -0.0029688 -7.51968e-06)
(1.00987 -0.00304069 -1.02683e-05)
(0.999955 -0.0080983 -5.40945e-06)
(0.96148 -0.0131391 1.88515e-09)
(0.950887 -0.0233643 4.41264e-06)
(0.907006 -0.0259948 -1.93169e-07)
(0.900065 -0.0168252 1.25356e-06)
(0.868634 -0.0219547 4.16527e-07)
(0.996628 -0.015071 7.57248e-05)
(1.0258 -0.0298579 -0.000125914)
(1.0478 -0.0344398 -0.000145514)
(1.08385 -0.0238438 8.70655e-05)
(1.10955 -0.00912353 3.6187e-05)
(1.12693 0.00407557 -5.60762e-05)
(1.13415 0.0157882 -5.71851e-05)
(1.1263 0.0193395 -7.32837e-05)
(1.12812 0.0245341 -7.80978e-05)
(1.1016 0.029415 -3.07586e-05)
(1.10097 0.0416682 -7.63164e-06)
(1.06582 0.0418994 -2.8901e-05)
(1.04757 0.0405539 -1.11788e-05)
(1.01874 0.0377888 5.64509e-05)
(1.01708 0.0468447 5.23612e-05)
(0.968108 0.0530791 -3.69897e-05)
(0.95618 0.065933 -7.69212e-05)
(0.925841 0.0677233 -6.22892e-05)
(0.917028 0.0481387 -2.32019e-05)
(0.886297 0.0470341 -4.37307e-06)
(0.994618 -0.0245059 0.000467643)
(1.03328 -0.0415384 -0.000598931)
(1.08176 -0.0709053 -0.0015013)
(1.1164 -0.0646039 0.000485257)
(1.14889 -0.0558532 0.00102922)
(1.16995 -0.0323959 0.000338837)
(1.16731 -0.0176928 -0.000362371)
(1.1449 -0.0118002 -0.000580055)
(1.14465 0.0104219 -0.000320946)
(1.14316 0.0101839 -0.000221564)
(1.12447 0.0144753 -0.000203271)
(1.08885 0.0366922 -0.000100599)
(1.07508 0.0316993 -0.000121172)
(1.04265 0.019854 -0.000335361)
(1.01468 0.0286741 -0.000327008)
(0.983856 0.034849 -1.28302e-05)
(0.98004 0.00686554 0.000149534)
(0.917058 0.00250266 0.000131199)
(0.906292 0.0138654 7.9852e-05)
(0.871441 0.0023024 2.21783e-05)
(0.994157 -0.043726 0.00205236)
(1.0316 -0.0993505 -0.000657754)
(1.10072 -0.122144 -0.00768037)
(1.14909 -0.0573148 -0.00265386)
(1.18903 -0.0298877 0.00306599)
(1.21901 -0.00408074 0.00290004)
(1.20402 0.0230186 -0.00137494)
(1.19322 0.0406023 -0.00332784)
(1.21928 0.0279794 -0.00270201)
(1.17969 0.0476802 -0.00129527)
(1.16078 0.0882021 -0.000608167)
(1.12725 0.0856973 -0.000701441)
(1.11099 0.0813331 -0.000568292)
(1.06351 0.0875835 0.000439943)
(1.07102 0.0955638 0.000786685)
(1.03053 0.0834753 -6.59441e-05)
(0.996076 0.120173 -0.000430024)
(0.964006 0.131854 -0.000360505)
(0.972212 0.0872166 -0.000234565)
(0.943691 0.0745019 -8.50354e-05)
(1.00097 -0.0207712 0.0018165)
(1.02918 -0.129987 0.00373964)
(1.20008 -0.229963 -0.0149276)
(1.29543 -0.162337 -0.0219514)
(1.29646 -0.0727701 -0.00205968)
(1.23361 -0.0222124 0.018976)
(1.27729 -0.0281212 0.0119272)
(1.34641 -0.0456126 -0.00625696)
(1.32205 -0.000154112 -0.0113759)
(1.24565 0.0425283 -0.00650855)
(1.25155 0.0487307 -0.00263226)
(1.2421 0.0660669 -0.00180176)
(1.18196 0.0735837 -0.00215923)
(1.11246 0.0541039 -0.00362353)
(1.09891 0.0518027 -0.00325623)
(1.04158 0.0938612 -0.000600475)
(1.03883 0.0552539 3.70168e-05)
(1.01498 0.0136369 -0.00112458)
(0.962362 0.0282476 -0.00129505)
(0.920897 0.0261025 -0.000280591)
(1.00041 -0.0724115 -0.00399525)
(1.03135 -0.226032 0.00559066)
(1.18021 -0.455795 -0.011247)
(1.3711 -0.255509 -0.0332911)
(1.47742 0.0188533 -0.048181)
(1.33597 0.166704 0.0118606)
(1.34859 0.0184319 0.0392973)
(1.57774 -0.0187358 0.0241476)
(1.56279 -0.00126382 -0.00732095)
(1.48999 0.0535263 -0.0209414)
(1.37702 0.0937756 -0.0124527)
(1.29632 0.138011 -0.00107458)
(1.24833 0.168198 0.00108704)
(1.21707 0.12611 -0.00241917)
(1.13877 0.134098 -0.00480994)
(1.05784 0.133839 -0.00518511)
(1.07264 0.135473 -0.00284845)
(0.994557 0.185997 0.00463295)
(0.98585 0.15474 0.0111444)
(0.94854 0.104478 0.00542139)
(1.02037 -0.0490081 -0.00923986)
(1.19417 -0.174381 -0.0101153)
(1.18594 -0.48409 -0.0738783)
(1.55617 -0.588521 -0.0766703)
(1.61153 -0.38178 -0.0137016)
(1.43788 0.122653 -0.0247003)
(1.47177 0.0843307 0.0177762)
(1.66189 0.000270999 0.0238454)
(1.69306 -0.0336476 0.0207761)
(1.71081 0.0106013 0.00108184)
(1.60043 0.112094 -0.0117342)
(1.46142 0.187859 -0.00616692)
(1.41575 0.177259 0.00435973)
(1.39515 0.14353 0.0124554)
(1.37278 0.140965 0.0114708)
(1.32476 0.127916 0.00355148)
(1.29166 0.0998551 0.00318)
(1.22318 0.123729 0.00307802)
(1.29779 0.15682 -0.00506486)
(1.16399 0.0991809 -0.00443394)
(1.15062 -0.267804 -0.0365398)
(1.10088 -0.392618 -0.118715)
(1.28313 -0.998182 -0.202645)
(1.46333 -0.658704 0.0980899)
(1.66763 0.0662408 0.114883)
(1.18625 -0.0717793 0.0237376)