/*--------------------------------*- C++ -*----------------------------------*\
  =========                 |
  \\      /  F ield         | OpenFOAM: The Open Source CFD Toolbox
   \\    /   O peration     | Website:  https://openfoam.org
    \\  /    A nd           | Version:  8
     \\/     M anipulation  |
\*---------------------------------------------------------------------------*/
FoamFile
{
    version     2.0;
    format      ascii;
    class       volVectorField;
    location    "0.91";
    object      U;
}
// * * * * * * * * * * * * * * * * * * * * * * * * * * * * * * * * * * * * * //

dimensions      [0 1 -1 0 0 0 0];

internalField   nonuniform List<vector> 
400
(
(0.0249778 2.4313e-08 0)
(0.0249777 3.78919e-08 0)
(0.0249777 3.26814e-08 0)
(0.0249776 2.55796e-08 0)
(0.0249776 1.90943e-08 0)
(0.0249775 1.45811e-08 0)
(0.0249775 1.11652e-08 0)
(0.0249775 8.42548e-09 0)
(0.0249775 6.11344e-09 0)
(0.0249775 3.96025e-09 0)
(0.0249774 1.70607e-09 0)
(0.0249774 -8.70204e-10 0)
(0.0249775 -3.97114e-09 0)
(0.0249775 -7.88022e-09 0)
(0.0249775 -1.29998e-08 0)
(0.0249775 -1.98259e-08 0)
(0.0249776 -2.86705e-08 0)
(0.0249776 -3.66513e-08 0)
(0.0249777 -3.50732e-08 0)
(0.0249778 -9.36536e-09 0)
(0.0749336 3.18413e-08 0)
(0.0749336 9.66323e-08 0)
(0.0749335 1.05562e-07 0)
(0.0749334 9.3941e-08 0)
(0.0749334 7.66693e-08 0)
(0.0749333 6.17649e-08 0)
(0.0749332 4.93242e-08 0)
(0.0749332 3.86666e-08 0)
(0.0749331 2.89839e-08 0)
(0.0749331 1.94315e-08 0)
(0.0749331 9.23914e-09 0)
(0.0749331 -2.27972e-09 0)
(0.0749331 -1.58161e-08 0)
(0.0749331 -3.22394e-08 0)
(0.0749332 -5.25928e-08 0)
(0.0749332 -7.77154e-08 0)
(0.0749333 -1.06985e-07 0)
(0.0749334 -1.30538e-07 0)
(0.0749335 -1.23683e-07 0)
(0.0749336 -5.70246e-08 0)
(0.124891 2.79745e-08 0)
(0.124891 1.38914e-07 0)
(0.124891 1.81885e-07 0)
(0.124891 1.76274e-07 0)
(0.124891 1.53695e-07 0)
(0.124891 1.29321e-07 0)
(0.124891 1.06669e-07 0)
(0.124891 8.58855e-08 0)
(0.124891 6.59577e-08 0)
(0.12489 4.56323e-08 0)
(0.12489 2.37401e-08 0)
(0.12489 -7.78771e-10 0)
(0.12489 -2.90224e-08 0)
(0.12489 -6.22988e-08 0)
(0.124891 -1.01932e-07 0)
(0.124891 -1.48271e-07 0)
(0.124891 -1.98163e-07 0)
(0.124891 -2.35709e-07 0)
(0.124891 -2.22656e-07 0)
(0.124891 -1.25564e-07 0)
(0.174851 -1.14391e-09 0)
(0.174851 1.52511e-07 0)
(0.174851 2.25387e-07 0)
(0.174851 2.33966e-07 0)
(0.174851 2.145e-07 0)
(0.174851 1.87175e-07 0)
(0.174851 1.58565e-07 0)
(0.174851 1.30225e-07 0)
(0.174851 1.01692e-07 0)
(0.174851 7.1843e-08 0)
(0.174851 3.94425e-08 0)
(0.174851 3.27773e-09 0)
(0.174851 -3.79073e-08 0)
(0.174851 -8.54549e-08 0)
(0.174851 -1.40402e-07 0)
(0.174851 -2.02084e-07 0)
(0.174851 -2.65005e-07 0)
(0.174851 -3.09824e-07 0)
(0.174851 -2.94603e-07 0)
(0.174851 -1.81178e-07 0)
(0.224814 -2.97721e-08 0)
(0.224814 1.43007e-07 0)
(0.224815 2.37087e-07 0)
(0.224814 2.61109e-07 0)
(0.224814 2.4993e-07 0)
(0.224814 2.25249e-07 0)
(0.224814 1.95407e-07 0)
(0.224814 1.6333e-07 0)
(0.224814 1.29446e-07 0)
(0.224814 9.31205e-08 0)
(0.224814 5.33603e-08 0)
(0.224814 9.08671e-09 0)
(0.224814 -4.08152e-08 0)
(0.224814 -9.7433e-08 0)
(0.224814 -1.61325e-07 0)
(0.224814 -2.30988e-07 0)
(0.224814 -2.99628e-07 0)
(0.224814 -3.47403e-07 0)
(0.224814 -3.33358e-07 0)
(0.224814 -2.18959e-07 0)
(0.274783 -5.79573e-08 0)
(0.274783 1.16267e-07 0)
(0.274783 2.21593e-07 0)
(0.274783 2.58495e-07 0)
(0.274783 2.5731e-07 0)
(0.274783 2.38819e-07 0)
(0.274783 2.11868e-07 0)
(0.274783 1.80229e-07 0)
(0.274783 1.45094e-07 0)
(0.274783 1.064e-07 0)
(0.274783 6.35736e-08 0)
(0.274783 1.58916e-08 0)
(0.274783 -3.73866e-08 0)
(0.274783 -9.69227e-08 0)
(0.274783 -1.62821e-07 0)
(0.274783 -2.33186e-07 0)
(0.274783 -3.01184e-07 0)
(0.274783 -3.48845e-07 0)
(0.274783 -3.39644e-07 0)
(0.274783 -2.36922e-07 0)
(0.324756 -8.04825e-08 0)
(0.324756 7.97704e-08 0)
(0.324756 1.85622e-07 0)
(0.324756 2.30583e-07 0)
(0.324756 2.38684e-07 0)
(0.324756 2.28049e-07 0)
(0.324756 2.06932e-07 0)
(0.324756 1.79313e-07 0)
(0.324756 1.46852e-07 0)
(0.324756 1.09989e-07 0)
(0.324756 6.86196e-08 0)
(0.324756 2.24758e-08 0)
(0.324756 -2.87263e-08 0)
(0.324756 -8.52127e-08 0)
(0.324756 -1.46775e-07 0)
(0.324756 -2.11568e-07 0)
(0.324756 -2.73674e-07 0)
(0.324756 -3.18615e-07 0)
(0.324756 -3.16606e-07 0)
(0.324756 -2.34546e-07 0)
(0.374736 -9.45971e-08 0)
(0.374736 3.90463e-08 0)
(0.374736 1.35371e-07 0)
(0.374736 1.82755e-07 0)
(0.374736 1.98035e-07 0)
(0.374736 1.95543e-07 0)
(0.374736 1.8208e-07 0)
(0.374736 1.61251e-07 0)
(0.374736 1.34851e-07 0)
(0.374736 1.03661e-07 0)
(0.374736 6.79884e-08 0)
(0.374736 2.79924e-08 0)
(0.374736 -1.6189e-08 0)
(0.374736 -6.4416e-08 0)
(0.374736 -1.16316e-07 0)
(0.374736 -1.70419e-07 0)
(0.374736 -2.22371e-07 0)
(0.374736 -2.62168e-07 0)
(0.374736 -2.68339e-07 0)
(0.374736 -2.12834e-07 0)
(0.424722 -9.90492e-08 0)
(0.424722 -1.68219e-09 0)
(0.424722 7.66253e-08 0)
(0.424722 1.2097e-07 0)
(0.424722 1.40728e-07 0)
(0.424722 1.45744e-07 0)
(0.424722 1.4078e-07 0)
(0.424722 1.28612e-07 0)
(0.424722 1.10848e-07 0)
(0.424722 8.84092e-08 0)
(0.424723 6.18753e-08 0)
(0.424723 3.17343e-08 0)
(0.424723 -1.53559e-09 0)
(0.424722 -3.75073e-08 0)
(0.424722 -7.57471e-08 0)
(0.424722 -1.15333e-07 0)
(0.424722 -1.53804e-07 0)
(0.424722 -1.86114e-07 0)
(0.424722 -2.00072e-07 0)
(0.424722 -1.7419e-07 0)
(0.474715 -9.38953e-08 0)
(0.474715 -3.9376e-08 0)
(0.474715 1.44669e-08 0)
(0.474715 5.11656e-08 0)
(0.474715 7.27529e-08 0)
(0.474715 8.41998e-08 0)
(0.474715 8.78678e-08 0)
(0.474716 8.53766e-08 0)
(0.474716 7.7885e-08 0)
(0.474716 6.62384e-08 0)
(0.474716 5.11375e-08 0)
(0.474716 3.32863e-08 0)
(0.474716 1.34281e-08 0)
(0.474716 -7.77079e-09 0)
(0.474716 -2.98433e-08 0)
(0.474715 -5.24442e-08 0)
(0.474715 -7.50589e-08 0)
(0.474715 -9.76904e-08 0)
(0.474715 -1.17862e-07 0)
(0.474715 -1.22096e-07 0)
(0.524715 -8.03901e-08 0)
(0.524715 -7.21095e-08 0)
(0.524715 -4.68572e-08 0)
(0.524715 -2.10598e-08 0)
(0.524715 2.7209e-10 0)
(0.524716 1.70463e-08 0)
(0.524716 2.90357e-08 0)
(0.524716 3.64924e-08 0)
(0.524716 3.99244e-08 0)
(0.524716 3.99391e-08 0)
(0.524716 3.72331e-08 0)
(0.524716 3.26461e-08 0)
(0.524716 2.71427e-08 0)
(0.524716 2.16287e-08 0)
(0.524716 1.66525e-08 0)
(0.524716 1.20858e-08 0)
(0.524716 6.65774e-09 0)
(0.524715 -4.43574e-09 0)
(0.524715 -2.84119e-08 0)
(0.524715 -6.0998e-08 0)
(0.574722 -6.08229e-08 0)
(0.574722 -9.89348e-08 0)
(0.574722 -1.03864e-07 0)
(0.574722 -9.05306e-08 0)
(0.574723 -7.06256e-08 0)
(0.574723 -4.93572e-08 0)
(0.574723 -2.96057e-08 0)
(0.574723 -1.25852e-08 0)
(0.574723 1.45507e-09 0)
(0.574723 1.27956e-08 0)
(0.574723 2.20676e-08 0)
(0.574723 3.02131e-08 0)
(0.574723 3.84183e-08 0)
(0.574723 4.78701e-08 0)
(0.574723 5.9308e-08 0)
(0.574723 7.23399e-08 0)
(0.574723 8.42537e-08 0)
(0.574723 8.5995e-08 0)
(0.574723 6.1099e-08 0)
(0.574722 3.84396e-09 0)
(0.624736 -3.82388e-08 0)
(0.624736 -1.19625e-07 0)
(0.624736 -1.53607e-07 0)
(0.624736 -1.52415e-07 0)
(0.624737 -1.34023e-07 0)
(0.624737 -1.08701e-07 0)
(0.624737 -8.19232e-08 0)
(0.624737 -5.63377e-08 0)
(0.624737 -3.29397e-08 0)
(0.624737 -1.17691e-08 0)
(0.624737 7.74889e-09 0)
(0.624737 2.66773e-08 0)
(0.624737 4.64528e-08 0)
(0.624737 6.86065e-08 0)
(0.624737 9.42088e-08 0)
(0.624737 1.22886e-07 0)
(0.624737 1.50989e-07 0)
(0.624737 1.66056e-07 0)
(0.624737 1.43262e-07 0)
(0.624736 6.65967e-08 0)
(0.674757 -1.60474e-08 0)
(0.674757 -1.34272e-07 0)
(0.674757 -1.9329e-07 0)
(0.674757 -2.02009e-07 0)
(0.674757 -1.84178e-07 0)
(0.674757 -1.54936e-07 0)
(0.674757 -1.22126e-07 0)
(0.674757 -8.96319e-08 0)
(0.674757 -5.904e-08 0)
(0.674757 -3.06001e-08 0)
(0.674757 -3.71795e-09 0)
(0.674757 2.28358e-08 0)
(0.674757 5.07765e-08 0)
(0.674757 8.20228e-08 0)
(0.674757 1.18104e-07 0)
(0.674757 1.58981e-07 0)
(0.674757 2.00704e-07 0)
(0.674757 2.2853e-07 0)
(0.674757 2.10697e-07 0)
(0.674757 1.21173e-07 0)
(0.724783 2.48237e-09 0)
(0.724783 -1.42795e-07 0)
(0.724783 -2.19856e-07 0)
(0.724783 -2.34535e-07 0)
(0.724783 -2.15603e-07 0)
(0.724783 -1.82606e-07 0)
(0.724783 -1.45263e-07 0)
(0.724783 -1.08289e-07 0)
(0.724783 -7.35505e-08 0)
(0.724783 -4.13021e-08 0)
(0.724783 -1.08174e-08 0)
(0.724783 1.9331e-08 0)
(0.724783 5.11179e-08 0)
(0.724783 8.68292e-08 0)
(0.724783 1.28521e-07 0)
(0.724783 1.76789e-07 0)
(0.724783 2.28092e-07 0)
(0.724783 2.66814e-07 0)
(0.724783 2.56361e-07 0)
(0.724783 1.61584e-07 0)
(0.774815 1.47951e-08 0)
(0.774815 -1.44332e-07 0)
(0.774815 -2.29637e-07 0)
(0.774815 -2.45063e-07 0)
(0.774815 -2.23337e-07 0)
(0.774815 -1.87391e-07 0)
(0.774815 -1.47915e-07 0)
(0.774815 -1.09793e-07 0)
(0.774815 -7.47384e-08 0)
(0.774815 -4.27618e-08 0)
(0.774815 -1.29158e-08 0)
(0.774815 1.63938e-08 0)
(0.774815 4.72963e-08 0)
(0.774815 8.23239e-08 0)
(0.774815 1.24009e-07 0)
(0.774815 1.73769e-07 0)
(0.774815 2.29173e-07 0)
(0.774815 2.754e-07 0)
(0.774815 2.73946e-07 0)
(0.774815 1.82382e-07 0)
(0.824851 1.96395e-08 0)
(0.824851 -1.36103e-07 0)
(0.824851 -2.17427e-07 0)
(0.824851 -2.28057e-07 0)
(0.824851 -2.02918e-07 0)
(0.824851 -1.66358e-07 0)
(0.824851 -1.28535e-07 0)
(0.824851 -9.36052e-08 0)
(0.824851 -6.26626e-08 0)
(0.824851 -3.52925e-08 0)
(0.824851 -1.0335e-08 0)
(0.824851 1.38387e-08 0)
(0.824851 3.92992e-08 0)
(0.824851 6.8563e-08 0)
(0.824851 1.04396e-07 0)
(0.824851 1.48979e-07 0)
(0.824851 2.0153e-07 0)
(0.824851 2.4988e-07 0)
(0.824851 2.57589e-07 0)
(0.824851 1.78559e-07 0)
(0.874891 1.62495e-08 0)
(0.874891 -1.14388e-07 0)
(0.874891 -1.78617e-07 0)
(0.874891 -1.80388e-07 0)
(0.874891 -1.53808e-07 0)
(0.874891 -1.21144e-07 0)
(0.874891 -9.01056e-08 0)
(0.874891 -6.32153e-08 0)
(0.874891 -4.06535e-08 0)
(0.874891 -2.15804e-08 0)
(0.874891 -4.78185e-09 0)
(0.874891 1.11591e-08 0)
(0.874891 2.79368e-08 0)
(0.874891 4.76196e-08 0)
(0.874891 7.26312e-08 0)
(0.874891 1.05384e-07 0)
(0.874891 1.46867e-07 0)
(0.874891 1.89539e-07 0)
(0.874891 2.04173e-07 0)
(0.874891 1.46794e-07 0)
(0.924934 9.05012e-09 0)
(0.924934 -7.20692e-08 0)
(0.924934 -1.07976e-07 0)
(0.924934 -1.03517e-07 0)
(0.924934 -8.27389e-08 0)
(0.924934 -6.13209e-08 0)
(0.924934 -4.29126e-08 0)
(0.924934 -2.82166e-08 0)
(0.924933 -1.68171e-08 0)
(0.924933 -7.86816e-09 0)
(0.924933 -4.34181e-10 0)
(0.924933 6.42468e-09 0)
(0.924933 1.37261e-08 0)
(0.924933 2.26418e-08 0)
(0.924934 3.4542e-08 0)
(0.924934 5.10916e-08 0)
(0.924934 7.42415e-08 0)
(0.924934 1.01467e-07 0)
(0.924934 1.16593e-07 0)
(0.924934 8.66939e-08 0)
(0.974978 2.39881e-10 0)
(0.974978 -2.5508e-08 0)
(0.974978 -3.41022e-08 0)
(0.974978 -2.95955e-08 0)
(0.974978 -2.12627e-08 0)
(0.974978 -1.41441e-08 0)
(0.974978 -8.77895e-09 0)
(0.974978 -4.97107e-09 0)
(0.974978 -2.35473e-09 0)
(0.974978 -5.33101e-10 0)
(0.974978 8.42716e-10 0)
(0.974978 2.0711e-09 0)
(0.974978 3.44367e-09 0)
(0.974978 5.25838e-09 0)
(0.974978 7.85365e-09 0)
(0.974978 1.17812e-08 0)
(0.974978 1.81425e-08 0)
(0.974978 2.71498e-08 0)
(0.974978 3.42996e-08 0)
(0.974978 2.71552e-08 0)
)
;

boundaryField
{
    movingWall
    {
        type            fixedValue;
        value           uniform (1 0 0);
    }
    fixedWalls
    {
        type            noSlip;
    }
    left
    {
        type            cyclic;
    }
    right
    {
        type            cyclic;
    }
    frontAndBack
    {
        type            empty;
    }
}


// ************************************************************************* //
