/*--------------------------------*- C++ -*----------------------------------*\
  =========                 |
  \\      /  F ield         | OpenFOAM: The Open Source CFD Toolbox
   \\    /   O peration     | Website:  https://openfoam.org
    \\  /    A nd           | Version:  8
     \\/     M anipulation  |
\*---------------------------------------------------------------------------*/
FoamFile
{
    version     2.0;
    format      ascii;
    class       volScalarField;
    location    "0.526";
    object      T;
}
// * * * * * * * * * * * * * * * * * * * * * * * * * * * * * * * * * * * * * //

dimensions      [0 0 0 1 0 0 0];

internalField   nonuniform List<scalar> 
100
(
49.9956
4.93249
-4.81006
-1.80377
1.15903
1.34219
0.219633
-0.579861
-0.932076
-0.563276
95.0745
49.911
11.5358
-4.2424
-4.34834
-0.329237
1.81618
1.82744
0.901012
0.125544
104.839
88.5171
49.9367
14.2194
-3.59735
-5.94755
-1.88236
1.4393
3.19832
2.097
101.8
104.658
85.6114
49.506
16.3423
-1.81251
-6.00029
-4.07873
-0.77339
0.641164
98.793
104.54
103.686
83.2715
49.802
18.9744
0.0816326
-6.57182
-7.30634
-3.71964
98.611
99.9013
106.302
102.905
81.1871
49.2522
20.0299
2.77634
-5.85009
-4.94074
99.8056
97.2508
102.202
108.193
100.866
77.6403
47.5418
22.9866
6.85486
-0.0471218
100.646
97.7997
98.4853
104.87
107.217
96.7117
75.1355
49.452
30.0737
11.9001
101.053
99.27
96.2953
100.183
107.722
107.199
94.2172
69.5145
48.9765
22.0144
100.616
101.929
96.8117
94.3647
102.141
110.873
111.058
91.5749
74.0221
36.9498
)
;

boundaryField
{
    left
    {
        type            fixedValue;
        value           uniform 100;
    }
    right
    {
        type            zeroGradient;
    }
    up
    {
        type            zeroGradient;
    }
    down
    {
        type            fixedValue;
        value           uniform 0;
    }
    frontAndBack
    {
        type            empty;
    }
}


// ************************************************************************* //
