/*--------------------------------*- C++ -*----------------------------------*\
  =========                 |
  \\      /  F ield         | OpenFOAM: The Open Source CFD Toolbox
   \\    /   O peration     | Website:  https://openfoam.org
    \\  /    A nd           | Version:  8
     \\/     M anipulation  |
\*---------------------------------------------------------------------------*/
FoamFile
{
    version     2.0;
    format      ascii;
    class       surfaceScalarField;
    location    "91";
    object      phi;
}
// * * * * * * * * * * * * * * * * * * * * * * * * * * * * * * * * * * * * * //

dimensions      [0 3 -1 0 0 0 0];

internalField   nonuniform List<scalar> 
7966
(
0.0134831
-0.000131927
-1.7856e-05
0.0137505
-0.000288472
2.10484e-05
0.0139455
-0.000211936
1.70008e-05
0.0142025
-0.000248975
-8.04965e-06
0.0143898
-0.000156905
-3.03634e-05
0.0143158
9.80571e-05
-2.40611e-05
0.0138781
0.000423755
1.38882e-05
0.0134206
0.0004368
2.0726e-05
0.013112
0.000299782
8.85383e-06
0.0128177
0.000290819
3.41482e-06
0.0124816
0.00035596
-1.98088e-05
0.0124683
1.90657e-05
-5.79832e-06
0.0124443
2.48499e-05
-8.01539e-07
0.0121326
0.000291375
2.03313e-05
0.0122209
-4.4738e-05
-4.36365e-05
0.0121784
-1.08527e-05
5.3362e-05
0.0121641
0.000106762
-9.24675e-05
0.0119419
0.000145969
7.62361e-05
0.0118498
-1.14913e-05
0.000103579
-0.000276094
-0.000288628
0.0134235
-0.000198684
-2.33663e-05
0.0137815
-0.000665807
1.92718e-05
0.0141009
-0.000573249
4.19316e-05
0.014245
-0.000433847
4.08266e-05
0.0145945
-0.00043743
-6.90681e-05
0.0145202
0.000294034
-0.000121664
0.0140745
0.000893874
-2.43689e-05
0.0135566
0.000859684
9.50307e-05
0.0132016
0.000606075
4.86835e-05
0.0128519
0.000607993
3.24783e-05
0.0125131
0.00070663
-1.18564e-05
0.0125072
8.63089e-06
1.63179e-05
0.0123145
0.000273812
-5.62302e-05
0.0123507
0.000249776
5.39542e-06
0.0126312
-0.00027176
-5.35088e-05
0.012174
0.000340951
0.000105471
0.011867
0.000595747
-0.000182025
0.0114261
0.000470595
0.000116266
0.0113863
-6.28697e-05
9.11918e-05
-0.000488502
-0.000571706
0.0134878
-0.00036413
1.19918e-05
0.0138306
-0.000958206
-5.03913e-05
0.0145895
-0.00134783
1.57112e-05
0.014761
-0.000854304
0.000248954
0.0150973
-0.000717279
-5.64875e-05
0.0150041
0.000826117
-0.000438877
0.0142631
0.00175087
-0.000116023
0.0139049
0.000952359
0.000265503
0.013551
0.000511719
0.00044832
0.0132931
0.000603617
0.000262258
0.0128114
0.0011209
6.74018e-05
0.0125777
0.000278201
-3.58702e-05
0.0131985
-0.000184901
-0.00016204
0.0124349
0.000853002
0.000160333
0.0117724
0.000251351
0.000139357
0.0123992
-0.000375536
8.97663e-05
0.0128439
0.00053526
-0.000384223
0.0123909
0.000166518
0.00075708
0.0120828
0.000320494
-7.52803e-05
0.00055736
-0.00131936
0.0135164
-0.000680147
0.000135
0.0137435
-0.00115069
-3.46181e-05
0.0149414
-0.00247404
-7.17185e-05
0.0158976
-0.00174007
-7.04131e-05
0.0159792
-0.00125098
0.000452099
0.0148353
0.00184155
0.000128413
0.0148573
0.00254301
-0.000814079
0.015452
0.00050077
-0.000143102
0.0145823
8.75682e-05
0.00129379
0.013712
0.000824201
0.000649715
0.0130092
0.00197314
-0.000149461
0.0129245
0.000239171
0.000123743
0.013755
-0.000743076
-0.000272268
0.0131576
0.00155377
-0.000103386
0.0132812
-0.000448327
0.000576071
0.0139409
-0.00113252
9.72765e-05
0.0130393
0.00122753
0.000209359
0.0118897
0.000317595
0.000998462
0.0118224
0.0013819
-0.000994024
0.00173116
-0.00125887
0.0136678
-0.00132142
0.000311925
0.0143305
-0.000994027
-0.000819301
0.0162548
-0.0042155
-0.000182816
0.0171465
-0.00364919
0.00101738
0.0168852
-0.00216661
0.00117695
0.0158109
0.00193579
0.000980048
0.0163296
0.00274237
-0.000718069
0.0170289
0.000789799
-0.000988295
0.015576
0.0010276
0.0005128
0.0137871
0.00151936
0.00109379
0.012579
0.00188367
0.00129759
0.0126973
0.00102523
-0.000904396
0.0141995
0.000431388
-0.00267666
0.0149296
0.00150343
-0.000679736
0.0157377
-0.00173013
0.000473714
0.0152449
-0.000109829
-0.000529893
0.0130488
0.00262934
0.000794218
0.0102565
0.000611305
0.0024986
0.00890254
0.00255758
0.000178318
0.00241652
-0.00031434
0.0135808
-0.0018038
0.000246205
0.015883
-0.00108167
-0.00221463
0.0185435
-0.0060055
-0.000870465
0.0200888
-0.00207393
0.00199998
-0.00165536
-0.00179218
-0.00167298
0.0191205
-0.000567112
0.00136766
-0.00082864
-0.000472133
-0.000698141
0.0190764
-0.00015038
0.00213029
0.0191497
0.00199116
0.000677913
0.0187126
0.00246954
-0.00124264
0.017255
0.00379582
-0.00131064
0.0136594
0.0030165
0.00209851
0.0102626
0.00338703
0.00189337
0.00949472
0.00234193
-0.000548772
0.012998
0.000317932
-0.00338984
0.0169425
0.00196921
-0.00441024
0.0187299
-0.00098733
-0.00253022
0.0171973
0.000964092
0.000458647
0.0151049
0.00199743
0.00272428
0.0159154
0.00127304
-0.00147218
0.0149318
0.00617277
-0.00263164
0.00376183
0.000882242
0.0134362
-0.00129643
-0.000590777
0.0166382
-0.00215297
-0.00213068
0.00579715
-0.0025538
-0.000495068
-0.00279389
-0.00287483
-0.00293621
0.00545239
0.00566649
0.00537043
0.00624311
-0.00232248
-0.000197415
-0.00590473
0.00564
-0.00117768
0.000875286
0.0222125
-5.62419e-05
6.18829e-05
0.000763618
1.08134e-05
0.000634994
-0.00556502
-0.00618023
-0.00571781
-0.00631488
0.0208698
0.000956222
0.0023776
0.0215443
0.00509782
-0.00330278
0.0226706
0.00819436
-0.0055248
0.0202034
0.00368961
0.00179409
0.0153294
0.00365774
0.0046033
0.0130048
0.00316038
0.00150609
0.0139961
1.18632e-06
-0.000674483
0.0162221
0.00168983
-0.00194663
0.0186915
0.000378052
-0.00383476
0.0186435
0.00092861
8.34511e-05
0.016499
0.0011436
0.00299829
0.0187257
0.000587211
-0.00154087
0.0193898
0.00688832
-0.00137965
0.00484024
0.00134934
0.0130153
-0.000756951
-0.000198351
0.00565908
-0.00261539
0.000447012
0.00400555
0.00543641
0.003784
-0.00107963
-0.00299369
-0.001781
0.00575373
-0.00274537
9.6923e-05
-0.00160533
0.000968069
0.001777
-0.0011967
5.69549e-05
-0.00162962
0.000312048
0.0015606
-0.000107884
-0.000135138
-0.00146746
0.00612298
-0.000733286
-0.00142346
-0.00150629
-0.00148526
0.000121552
9.2269e-05
0.000101493
0.000121226
0.0226432
-7.91348e-05
-0.0010877
-0.00645834
-0.00325541
-0.00659064
-0.00306963
-0.000470169
-0.000230305
-0.000445615
0.0229866
0.00422034
0.000534014
0.0180545
0.00735947
0.00576706
0.0148689
0.00582338
0.00105183
0.0158
0.00591615
-0.00318956
0.0190531
0.00642143
-0.00651414
0.0197169
0.00310723
-0.00376983
0.0176679
0.00305368
0.00068518
0.017397
0.00129912
-0.000650259
0.0196203
-1.39779e-05
-0.00128069
0.0211338
0.00172821
-0.00209813
0.0234884
0.00109062
-0.00285797
0.0214952
0.0062894
0.00259211
0.00565721
0.00274279
0.00281342
-0.00104286
0.000394081
0.00427874
0.00276502
0.00335338
0.00265904
-0.00276538
0.000304371
0.00131586
-0.00133039
0.00149988
-0.00155736
7.20054e-05
-0.00016827
0.000849398
-0.000574654
0.000245297
-0.000129132
-0.000173829
-0.000127944
0.0112568
-0.00135451
-0.00188123
-0.000855683
-0.00121812
-0.000769419
-0.000957511
0.0109718
0.00905671
-0.00141221
0.0117959
0.0101284
-0.00512918
0.013787
0.00776533
-0.00384024
0.0154293
0.0091909
-0.00441178
0.0131448
0.00495999
0.000431744
0.00923876
0.00482638
0.00213335
0.00897742
-0.000568754
0.00212922
0.0130717
-0.000721194
-0.00338705
0.0183639
0.00248815
-0.0060522
0.0212489
0.00241725
-0.00421162
0.0191017
0.0090814
-0.000644813
0.00735677
0.000321707
0.00553764
0.00419101
-0.00913362
0.00397789
0.004107
0.00356323
0.00349098
-0.00131694
-0.0021757
0.00169272
0.00109387
0.00120607
0.00154663
0.00045559
-6.77175e-05
-0.000387872
0.00030286
0.000167079
4.73426e-05
-0.000396623
-0.000120659
0.00244928
-0.00376945
0.00198602
-0.00098863
-0.000488052
-0.000483984
-5.96983e-05
0.00132249
0.0116724
-0.00148894
0.00479527
0.00670501
-4.93715e-05
0.00699804
0.0084824
-0.00291985
0.00733805
0.00598865
0.00286225
0.00772438
-0.001087
0.00566065
0.00686827
0.0022157
0.00346679
0.0069285
-0.00535642
0.00472744
0.0114087
-0.00409822
-0.00110317
0.0168923
0.00302272
-0.0060182
0.0207456
0.00116254
-0.00259859
0.0208874
0.00698883
0.00195077
0.00733254
0.00166618
0.00239342
0.00366762
0.000148386
0.00205975
0.00410177
0.00510607
0.000453654
1.70867e-05
0.000576021
0.000361299
0.000378074
0.00054015
6.7139e-05
0.000157123
4.63368e-05
-8.05131e-05
-0.000122947
-0.000213608
-0.00308424
-0.00138931
0.000710415
-0.000313364
0.000705013
-0.00018435
-0.00226322
0.00887211
0.00484994
-0.00186343
0.00190635
0.00439886
0.00215944
0.00403984
0.000419685
0.00773899
-0.00243148
0.00284058
0.00951385
-0.00769729
0.00483544
0.0110813
-0.00340917
0.00405743
0.0112664
-0.0101838
0.00464226
0.0115561
-0.00761354
0.00322564
0.0130495
0.00279178
-0.00126247
0.0142637
0.00153055
-0.00158221
0.0159665
0.00475777
0.00052832
0.00622192
4.46548e-05
0.001302
0.00392841
0.00233745
0.00312994
0.00305928
0.00322929
-0.0032018
-0.000987353
0.00311731
0.00237384
-0.00024634
1.45725e-06
0.000574824
-0.000329941
7.49986e-05
1.86972e-05
-0.00035813
0.000180222
-0.00010658
5.90838e-05
5.47738e-05
5.43958e-05
2.59738e-06
1.78451e-05
2.09642e-06
0.000336017
-0.00304579
-0.00137892
0.000751598
-0.000283012
0.000840875
-0.000305007
0.00682437
0.00230197
8.17791e-05
0.0112273
-0.0022163
-0.000280265
0.0125489
-0.00239568
0.00511393
0.0159564
-0.00755387
0.00171489
0.017803
-0.0095346
-9.27537e-06
0.0211132
-0.00496618
-0.00175321
0.0202862
-0.00794199
-0.00141488
0.0144825
-0.00692353
0.00511371
0.0116372
0.00115591
0.00448118
0.0120966
-0.000967112
0.00203825
0.0148962
0.00505216
-0.00309396
0.00796205
-0.00353562
0.0132221
0.00469502
-0.00063224
0.00405601
0.00091703
-0.00223419
-0.00221405
-0.00102698
-0.00272147
-0.00104093
0.00611847
0.00457348
0.0067947
-0.000988459
0.00163527
0.00189713
-0.000972525
-0.000918319
-0.000925903
0.00118243
0.000955094
0.00111966
0.00107163
-7.96593e-05
0.00014131
-6.16511e-05
0.016095
-0.00203502
-0.0009769
0.00013231
0.000576111
0.000120077
0.000595839
-0.00210325
-0.00457904
-0.00219055
-0.00563456
0.0179361
-0.00160439
-0.00328249
0.0202696
-0.000579519
0.000547943
0.020062
-0.00385263
0.00184395
0.0220187
-0.00394976
-0.000402593
0.0186146
-0.00829563
0.00414586
0.0146729
-0.00789116
0.00229825
0.0156353
-0.00390059
-0.00202801
0.0186501
-0.00632355
-0.00463325
0.0184992
-0.00592685
-0.000845731
0.015494
0.00033698
0.00382408
0.0130175
-0.00338795
0.0048973
0.0137388
0.00391001
0.000420902
0.00812785
-0.00129245
0.0145393
0.00230088
0.00120761
0.0171107
0.00258657
-0.00424092
0.0053214
0.00240837
-0.00146515
-0.00071984
-0.00224311
-0.000719154
-0.00105389
0.00520625
0.00524413
0.00513169
-0.000943144
0.00639585
0.00178635
0.000587211
-0.000830211
-0.000894679
-0.000779971
-0.000416298
-0.00685206
0.00626098
0.00201068
-7.70546e-05
-0.000257201
-0.000409853
-0.000259186
0.0227298
0.00530541
-0.00218486
-0.00026165
-0.00124088
-0.000107709
-0.000525958
-0.00585788
-0.00597823
-0.00632456
-0.00555346
0.018475
-0.000619375
0.00283916
0.0180936
-0.00162846
0.000405417
0.0221145
0.00131392
-0.00591436
0.021215
-0.00279612
-0.000156976
0.018967
-0.00290371
0.00120193
0.0168606
-0.00597834
-0.00021083
0.013261
-0.00428911
-2.43771e-06
0.00983568
-0.00118996
0.000714663
0.00967659
-0.0064682
0.000303742
0.0111058
-0.00601461
-0.00134148
0.0105174
-0.00073522
0.00166058
0.0102244
-0.00315214
5.72683e-05
0.0132161
0.00262404
-0.00170578
0.00735277
-0.00113398
0.0143174
0.00159753
-0.000269483
0.0153349
0.00230723
-0.000738124
0.0166452
0.00221861
-0.00112052
0.0192885
0.00270606
0.000711366
-0.000931506
-0.0024681
-0.000996135
-0.001665
0.0202727
0.000959287
0.00137765
-0.000979689
-0.00158674
-0.000890405
0.000135638
0.0207833
0.00178784
0.00300701
0.0189729
0.000105755
0.00108526
0.0181316
-0.000745457
-4.17364e-05
0.0198547
0.00142154
-0.00183068
0.0197785
-0.00200304
-0.000716909
0.0166522
-0.00216416
0.00238681
0.0138426
-0.00403952
0.000870742
0.013028
-0.00378903
0.000314554
0.0134022
0.000337938
-0.00190217
0.0132937
-0.00506096
-0.00129871
0.0133615
-0.00517577
-0.00090665
0.0140233
-0.000108197
-0.00128879
0.0137227
-0.000594581
-0.00225697
0.0146335
0.00611416
-0.00440091
0.0100281
-0.00305938
0.0144048
0.000620535
-8.9313e-05
0.0140659
0.00218826
0.000457914
0.0153098
0.00160019
-0.000625465
0.0170782
0.00153212
-0.000594554
0.0170496
0.000520542
0.000467425
0.0170906
-0.00036695
0.00211374
0.0170505
0.000300183
-0.000154309
0.0175667
0.000194641
-0.00145628
0.0174143
0.000539743
0.00103419
0.0152471
-0.00135004
0.00151416
0.0145392
-0.00200471
0.000548436
0.0144728
-0.00343959
-0.00053346
0.0137461
-0.00297911
-8.32438e-05
0.0137372
0.000292833
5.39891e-05
0.0133101
-0.00435565
-0.000278169
0.012847
-0.00304712
-0.00166558
0.0121454
0.00118312
-0.000589684
0.011447
0.0017166
-0.00161279
0.0116965
0.0108918
-0.00502723
0.0109147
-0.00141791
0.0134818
0.000331732
0.000142372
0.0143481
0.00131418
7.79779e-06
0.0148991
0.00155336
-0.000504222
0.0155782
0.000497666
0.000355318
0.0157507
0.000170631
0.000177413
0.0156927
0.000407808
-0.00071673
0.0159091
0.000162247
-7.84261e-05
0.0156135
-0.000246692
0.000736949
0.015602
-2.45639e-05
0.000575753
0.0158081
-0.00116515
-0.000390999
0.0148808
-0.00124112
0.000163726
0.013453
-0.00222662
0.000214866
0.0128437
-0.00184289
-0.000526949
0.0129573
1.88456e-06
0.000177349
0.0115348
-0.00289655
-3.65667e-05
0.0106662
-0.00159311
-0.000585393
0.0103755
0.000259134
0.00121465
0.00938317
0.0012244
0.00148453
0.00981484
0.00951507
0.000945091
0.00720011
0.00236137
0.0134651
0.000214403
-1.3419e-05
0.0140905
0.000759621
-7.08902e-05
0.0147399
0.000740495
0.000163471
0.0147582
0.000459498
1.98775e-05
0.0150129
0.000127522
-0.0002116
0.0153223
0.000290157
-0.000191694
0.0151295
0.000130439
0.000224559
0.0151165
-0.000315219
8.15053e-05
0.0150278
-1.63377e-05
8.04787e-05
0.014466
-0.000727211
0.00012393
0.0139997
-0.000812513
3.77093e-05
0.0130852
-0.0012521
-6.0115e-05
0.0123541
-0.00122677
0.000115008
0.0125961
-0.00060665
0.000366515
0.0117226
-0.00178256
-0.000240418
0.0106723
-0.000609379
6.65045e-05
0.0102313
-0.000238531
0.000938672
0.00939393
0.000269409
0.00179238
0.0106815
0.00441114
0.00381632
0.00291932
0.00265068
0.0134626
0.000100332
-1.51922e-05
0.013832
0.000346871
4.33349e-05
0.0142207
0.00034149
1.02955e-05
0.0145133
0.000239186
-7.22313e-05
0.0145237
0.000126481
-9.43315e-06
0.0147411
6.29897e-05
9.77093e-06
0.0147907
7.54888e-05
5.36253e-06
0.0145513
-9.41333e-05
1.83378e-05
0.0145878
-0.000120626
6.77942e-05
0.0143212
-0.000377522
-8.30752e-05
0.013831
-0.000394149
7.17813e-05
0.0131741
-0.000610605
1.54896e-05
0.012613
-0.000556723
-0.000108941
0.0121689
-0.000281306
0.000118697
0.0112729
-0.000757648
-0.000128861
0.0108119
-0.000332659
0.000184246
0.0106331
-0.000225513
0.000165804
0.0103881
3.79262e-05
0.000476485
0.0113736
0.00131826
0.00210732
0.000941404
0.00110931
0.0134333
3.87986e-07
0.0137748
5.37191e-06
0.0141204
-4.15895e-06
0.0143743
-1.46849e-05
0.0144985
2.33322e-06
0.0145616
-1.2483e-07
0.0146172
1.9822e-05
0.0145335
-1.03835e-05
0.0143954
1.74368e-05
0.0140166
1.31256e-06
0.0136039
1.85009e-05
0.0130153
-2.19265e-05
0.0124521
6.43151e-06
0.0121194
5.14422e-05
0.011446
-8.43391e-05
0.0109949
0.000118529
0.0107344
3.49518e-05
0.0106943
7.80252e-05
0.0115159
0.000496644
0.000264701
0.0134859
-0.000153758
-1.66445e-05
0.01375
-0.000263304
2.01782e-05
0.0139408
-0.000189635
1.58684e-05
0.0142052
-0.000263727
-8.75826e-06
0.0143919
-0.000184065
-3.29179e-05
0.0143179
7.26155e-05
-2.27051e-05
0.0138787
0.00044004
1.30043e-05
0.0134169
0.000464565
1.80366e-05
0.0131127
0.000307589
5.43498e-06
0.0128181
0.000300542
-2.52967e-06
0.0124805
0.000338288
-2.04684e-05
0.0124712
9.9295e-06
-6.49776e-06
0.0124437
3.26791e-05
-5.97669e-06
0.0121303
0.000308288
2.54537e-05
0.0122232
-7.76406e-05
-5.88898e-05
0.0121773
2.7811e-05
7.14985e-05
0.0121663
4.01149e-05
-0.000121642
0.0119435
0.000208847
9.02383e-05
0.0118328
7.67782e-05
0.000137428
-0.00047019
-0.00038516
0.0134373
-0.000259093
-2.19794e-05
0.0137856
-0.000610485
1.81387e-05
0.014076
-0.000475162
3.7087e-05
0.0142594
-0.000446952
4.06202e-05
0.0146239
-0.000542179
-7.54631e-05
0.014539
0.000159579
-0.000123758
0.0140674
0.000898311
-1.10088e-05
0.0135338
0.0010201
7.30433e-05
0.0132115
0.00065384
2.47997e-05
0.0128625
0.000662818
1.92044e-05
0.0125153
0.00068714
-1.35575e-05
0.0125198
2.63166e-05
-4.55255e-06
0.0123222
0.000257465
-8.34426e-05
0.0123492
0.00025442
3.23037e-05
0.0126504
-0.000346101
-8.62456e-05
0.0121838
0.000474756
0.000125084
0.0118618
0.000438241
-0.000258101
0.0114682
0.000571132
0.000147519
0.0113574
0.000140225
0.000138602
-0.000982558
-0.000739529
0.0135577
-0.000492958
2.21378e-05
0.0138572
-0.000894726
-6.56712e-05
0.0144543
-0.0010345
-2.20139e-05
0.0147726
-0.000784631
0.000268301
0.015241
-0.00100869
-5.83167e-05
0.0151306
0.000216623
-0.000385545
0.0141816
0.00184484
-0.000113581
0.0137013
0.00155197
0.000213953
0.0134616
0.000929613
0.000412238
0.0132443
0.000948449
0.000193921
0.0128171
0.00116076
2.09464e-05
0.0125812
0.000242001
-1.55785e-05
0.0131284
-0.000244105
-0.000207678
0.0123372
0.00113762
6.83367e-05
0.0118455
0.000132783
0.000152153
0.0123154
4.09867e-05
5.35872e-05
0.0126872
3.29021e-05
-0.000350622
0.0126867
0.000482951
0.000845734
0.0120109
0.00110964
-0.000368908
-0.00052963
-0.0014699
0.0135894
-0.000771308
0.000159297
0.0137785
-0.00111425
-4.26045e-06
0.0148037
-0.00182699
-0.000304398
0.0158067
-0.0017571
-0.000100921
0.0162159
-0.00154706
0.000581212
0.0152609
0.00120626
9.3866e-05
0.0147007
0.00239145
-0.000800522
0.0147336
0.00141279
-3.68418e-05
0.0141801
0.00160209
0.00117479
0.0136283
0.00164008
0.000509943
0.012934
0.00189955
-0.000194012
0.0128432
0.000499762
-4.31556e-05
0.0135868
-0.000832656
-0.000427341
0.0129091
0.00187917
-0.000167222
0.0130647
0.000129942
0.000423345
0.0134185
-7.15017e-05
-0.000144033
0.0131519
0.000347517
0.00016134
0.0129097
0.00115322
0.000570358
0.0114328
0.00269673
-0.00110418
0.000139285
-0.000744654
0.0136728
-0.00115622
0.00036249
0.014234
-0.00183808
-0.000656706
0.0161602
-0.00341113
-0.000524806
0.0171598
-0.00245749
0.000718163
0.0170307
-0.00133275
0.00109168
0.0163514
0.00170883
0.0011568
0.0161287
0.00255488
-0.000658787
0.0157145
0.00185177
-0.00101304
0.0142278
0.00293484
0.000666699
0.0132599
0.00238243
0.00131941
0.0131892
0.00192701
0.00134078
0.0131049
0.000441714
-0.000762035
0.0137292
-0.00129386
-0.00283979
0.0139551
0.00146677
-0.000493248
0.0146108
-0.000430176
0.000378126
0.0138757
0.00120012
-0.0010664
0.0121322
0.00225079
0.000634436
0.0108268
0.00289882
0.00205846
0.00922768
0.0043117
0.000162427
0.00112709
1.65145e-06
0.0138752
-0.00168749
0.000246746
0.015367
-0.00348489
-0.00205969
0.0175682
-0.00606441
-0.000418292
0.0197137
-0.0012125
0.00188858
-0.00122217
-0.00105801
-0.00099892
0.0190855
8.52603e-06
0.000251198
6.0075e-05
-0.000195237
0.00053854
0.0190081
0.00192909
0.00198736
0.0190563
0.00172791
0.00145664
0.0175934
0.00293768
-0.000865592
0.0155633
0.00549169
-0.00183741
0.0142763
0.00432197
0.00144597
0.0128888
0.00348923
0.00171867
0.0122443
0.000887497
-0.000350026
0.0147177
-0.00308048
-0.00407669
0.0157765
0.00017386
-0.00417614
0.0154595
-0.00100466
-0.00163871
0.0150856
0.00110558
0.000927129
0.0145748
0.00303474
0.00245109
0.0143605
0.00341586
-0.00177484
0.0126478
0.00642233
-0.00302961
0.00334825
0.000562046
0.0134236
-0.00121346
-0.00113538
0.0155155
-0.00654328
-0.00116424
0.00532674
-0.00372943
0.00100174
-0.00316331
-0.00370564
-0.00277176
0.00527968
0.00527372
0.0054443
0.000577666
0.00587767
-0.00162546
-0.000715635
-0.00122417
-0.00568346
0.00540631
6.95702e-05
0.00144028
0.0220034
0.000396052
-0.000528859
0.000988738
0.000548756
0.00112159
-0.00541697
-0.00617779
-0.0051437
-0.00580022
0.0230432
0.000641009
0.00242467
0.0208512
0.00494702
-0.00312012
0.0161592
0.00896364
-0.0043047
0.0136128
0.00670031
0.00196213
0.0119122
0.00592115
0.003872
0.0116339
0.00432546
-0.00165362
0.0134316
-0.00268748
-0.00286521
0.0156337
-0.00155393
-0.00242088
0.0173971
-0.00312713
-0.00347572
0.0178696
-0.000133057
0.000849616
0.0168071
0.00327215
0.0038233
0.0175134
0.0029876
-0.00181886
0.0168773
0.00802023
-0.0023415
0.00540675
0.00123607
0.0140901
-0.000957548
-0.00118736
0.00500359
-0.00320181
0.00117469
0.00363841
0.00479835
0.00319002
-0.00183926
-0.00307176
-0.00169839
-0.000728319
0.00476895
-0.0039392
0.00117273
-0.000271757
-0.0013629
0.000807745
0.00160426
-0.00105979
0.000282438
0.000386973
-0.00170012
2.31674e-05
0.00171343
-2.3321e-05
-0.00040013
0.00136217
-0.0015879
0.00627454
-0.00142522
-0.00150415
-0.00158355
-0.00149706
6.87831e-05
0.00010217
8.43085e-05
0.000101953
0.0221743
-0.000474077
-0.00217574
-0.00648905
-0.00284158
-0.00648265
-0.00269304
-0.000443279
-0.000778436
-0.000243192
0.022845
0.00468818
0.000122208
0.0215052
0.0103105
0.00576
0.0216909
0.00721903
0.00034742
0.0211901
0.00843203
-0.00519967
0.0176511
0.00817176
-0.00682145
0.012413
-0.00180844
0.000589247
0.0101294
-0.00104911
0.00246399
0.0124398
-0.00621717
0.000129374
0.0165751
-0.00363574
-0.00191331
0.017594
0.00188286
-0.00172773
0.0180143
0.00195821
-0.00224898
0.0162901
0.00958811
0.00274851
0.00740402
0.00272625
0.00364273
-0.000212605
-0.00101352
0.00322559
0.00399443
0.00311853
-0.000615415
0.00333285
-0.00233799
6.14794e-05
1.02434e-05
0.00151595
-0.00139809
0.00160027
-0.00166181
-6.65654e-05
-0.000692471
-0.000114113
0.000499674
-0.00108376
0.00109165
-3.70697e-05
-0.000107613
-3.037e-05
0.00933565
-6.68598e-06
-0.00354864
-0.000736563
-0.000569183
-0.00115424
-0.000513388
0.00926274
0.0113798
-0.00240862
0.0111654
0.00537088
-0.00518367
0.0125152
0.00779166
-0.00454968
0.00823296
0.00705443
0.000987786
0.00560959
-0.00377911
0.00502579
0.00585823
-0.00191375
0.00274935
0.00773697
-0.00911694
0.00315025
0.011972
-0.00827376
-0.00298407
0.0156702
-0.00157374
-0.00629381
0.0169971
0.000467363
-0.00404768
0.016257
0.0101075
-0.000424028
0.00812021
0.000103063
0.00413687
0.00396565
-0.00780124
0.000702174
0.0042376
-0.00130157
0.00247551
0.00244
-0.00196473
-0.00134117
0.00043747
0.000694821
0.000517905
0.000877072
0.000687302
0.00053097
-0.000700173
-0.0005181
0.000369368
0.000344934
0.000134676
-6.72478e-05
-0.000403196
-0.000378535
0.0024485
-0.00157508
0.000185682
8.05385e-05
0.00014944
0.000477586
0.000212669
-0.00119703
0.0110526
0.00248377
0.00122809
0.00141339
0.001483
0.00355163
0.00504894
-0.00250066
0.00587502
0.00330766
0.00428563
0.00972719
-0.00577794
0.00380731
0.01185
-0.0032429
0.00267313
0.0118905
-0.00903869
0.00460869
0.0125482
-0.0103283
0.000293584
0.0144661
-0.00339791
-0.00611185
0.0166432
-0.00175621
-0.00255213
0.0180867
0.00909016
0.00152459
0.0087952
0.000920812
0.000292348
0.00166805
0.00441041
0.00539355
1.71509e-05
0.00561826
0.00229707
0.00181708
-0.000835879
-0.00429598
-0.000118784
0.000866358
1.79977e-06
0.000560678
0.000187911
0.000144086
-0.000166008
-5.81631e-05
-0.000107825
-0.000863929
-0.00150855
-0.00211585
0.000720284
0.000164267
0.000327443
0.000311951
-0.00114758
0.00882866
0.00735757
-0.000775788
-9.97691e-06
0.00545043
0.00292249
0.000453052
0.0013173
0.0089099
-0.00278344
0.00294427
0.0117553
-0.0079192
0.00413127
0.0157691
-0.00480778
0.00160852
0.0173388
-0.00828095
0.00231483
0.0138131
-0.00816176
0.00458481
0.0114334
-0.00290529
0.000624625
0.012856
-0.00493028
0.000169258
0.0156295
0.0054608
0.00138424
0.00758316
-0.00041939
0.00358414
0.000297926
0.00331614
0.00345612
0.0033595
0.0033103
-0.00373825
-0.002021
0.00302506
0.00334172
0.00297662
0.000626124
-0.000205751
-0.000678841
0.000834288
-0.00057582
2.41068e-05
-8.67244e-06
4.5513e-05
-0.000752539
0.000243433
0.000209014
5.92042e-05
-1.20815e-05
7.1651e-05
3.71906e-05
4.5595e-05
3.75856e-05
0.00145902
-0.00318879
-0.0022999
0.000955886
-0.000376872
0.00101956
-0.000456379
0.00615573
0.00449969
-0.000285956
0.00943051
-0.00265741
-0.000907606
0.0137662
-0.00331915
0.00455049
0.0176598
-0.00662115
0.00165901
0.0179379
-0.0101307
0.00192402
0.0182416
-0.00524682
-0.00161784
0.018074
-0.00690647
-0.00262177
0.0170356
-0.00537654
0.00336692
0.0149472
-0.00203158
0.0056958
0.0142558
-0.00508946
0.00288881
0.0156968
0.00366814
-0.00274227
0.0063902
-0.00328948
0.0132435
0.00169105
-0.00191184
0.00382926
0.00512905
-0.00177149
-0.00364778
-0.00232456
-0.003628
-0.00253055
0.00605938
0.0040506
0.0058434
-0.00325449
-0.000796195
0.00230285
0.00297637
-0.00078231
-0.000787099
-0.000780012
0.00122679
0.00124156
0.00122624
0.00125556
0.000222025
0.000393987
-0.000352144
-0.000263868
0.0168395
-0.00579954
0.00152677
0.000334883
0.000853248
0.000326779
0.000907406
-0.00230685
-0.00585243
-0.00206644
-0.00574025
0.0153518
-0.00351666
-0.00146685
0.018886
0.00133349
0.000179896
0.0200568
-0.00353132
0.00154705
0.0211794
-0.00530054
0.000456169
0.0205863
-0.00630661
0.0044245
0.0190736
-0.00791287
0.0015931
0.0169802
-0.00344377
-0.00173771
0.0158019
-0.00658722
-0.00377416
0.0162882
-0.00429198
-0.00241653
0.0143236
0.000338442
0.0034186
0.0133562
-0.00319113
0.00396638
0.0149402
0.00436958
-0.00186455
0.00659601
-0.00174316
0.0145938
0.00181407
-0.000156229
0.017058
0.00163921
-0.00321526
0.00541428
0.00703387
-0.00345198
-0.00266968
-0.00186298
-0.0029537
-0.00205387
0.00544954
0.00541306
0.00527429
-0.000584435
-6.79707e-05
0.00656686
0.00216311
-0.000991916
-0.000520307
-0.000618759
-0.000532313
-0.000113166
0.000248774
-0.00718547
0.0066871
0.00097871
-0.000653279
3.41984e-05
-7.77947e-05
8.09362e-05
0.0211988
-0.000950684
-0.00166496
0.000777248
0.000254917
0.000976446
0.000329916
-0.00611204
-0.00544657
-0.00572339
-0.00582452
0.0197654
-0.00417774
0.00265074
0.0197953
-0.00315618
1.50692e-05
0.0207705
-0.000517321
-0.00503876
0.0209158
-0.00332715
-0.000506495
0.0201746
-0.00430491
0.000947567
0.0165798
-0.00460174
0.00167911
0.0126273
-0.00434427
0.000381463
0.0117964
-0.00145996
-0.000438335
0.0118143
-0.00533468
-0.000966637
0.0112581
-0.00375904
-0.0013182
0.0113182
0.000263913
0.00167494
0.011301
-0.00337858
0.000261958
0.0130368
0.00269882
-0.00177081
0.00495866
-0.000687102
0.0137691
0.00148181
-0.000361857
0.0145801
0.00165015
-0.00156012
0.0179656
0.00378988
-0.00126198
0.020007
0.00380759
0.00198298
-0.00203485
-0.00180586
-0.00185272
-0.00142716
0.0195295
0.000491542
0.0020789
-0.000633768
0.000444949
-0.00074849
0.000221996
0.0193919
-0.000655376
0.00284929
0.0176332
-0.00122465
-0.000109102
0.0177963
-0.00114515
-0.00221591
0.0184088
-0.000453862
-0.00250656
0.0172512
-0.00258817
-0.000298291
0.0165633
-0.00323183
0.00200157
0.016333
-0.00378873
0.000288072
0.0157893
-0.00355694
7.09408e-05
0.014957
-0.00151682
-0.00101307
0.0135803
-0.00390236
-0.00135427
0.0138479
-0.00360064
-0.00133269
0.0155967
-0.00103979
-0.00173387
0.013204
-0.0016267
-0.00161613
0.0113691
0.00178977
-0.00165698
0.00306663
-0.00131861
0.0142343
0.00059619
-9.95383e-05
0.0142249
0.00201354
0.000103902
0.015796
0.00193035
-0.000336979
0.017324
0.00168535
-3.99595e-07
0.0166918
0.000854308
0.000736901
0.0167797
6.69131e-06
0.0013638
0.0167901
-0.000477501
-0.000911887
0.0165659
-0.000545685
-0.00183157
0.0168309
-0.000209044
0.000524448
0.0158197
-0.00130218
0.00123931
0.0146994
-0.00250958
0.000946454
0.0138179
-0.00337531
-6.53093e-05
0.0134006
-0.00255107
-0.000671813
0.0133883
-0.00118735
-0.00026324
0.0126457
-0.00317008
-0.000267877
0.0119793
-0.00289999
-0.00169983
0.0120657
-0.00126965
-0.000446199
0.0106603
-0.000934751
-0.000899298
0.00926266
0.000850209
-0.00269007
0.00159875
-0.000382592
0.013529
0.000375418
0.00016944
0.0143782
0.00124329
-7.10968e-05
0.0147861
0.0014688
-0.000450577
0.0155989
0.000683811
0.00054409
0.0160122
0.000301967
0.000316398
0.0156521
0.000493689
-0.000843612
0.0156057
-0.000178844
-0.000330684
0.0156312
-0.000390729
0.000556442
0.015672
-0.000249952
0.00057592
0.015491
-0.00121171
-0.000300446
0.014703
-0.00143171
-0.00012615
0.0137583
-0.00213758
-7.81937e-05
0.0129299
-0.00177499
-0.000474591
0.0127124
-0.000759292
-3.32896e-05
0.0116446
-0.00202717
-0.000111598
0.0105964
-0.0019971
-0.000440086
0.0107125
-0.00127142
0.0011003
0.0105469
-0.000932195
0.00164755
0.0103168
0.00069854
0.00132685
0.00119674
0.00191961
0.0134737
0.00022441
-2.1227e-06
0.0140679
0.000702757
-0.000124597
0.014743
0.000761505
0.000195692
0.0148066
0.000552127
8.7955e-05
0.0150106
0.000105413
-0.000219012
0.0153229
0.000266388
-0.000276701
0.0151269
0.00010336
0.000138387
0.0150753
-0.000341672
8.40482e-05
0.0150008
-0.000131646
3.66685e-05
0.014518
-0.000634284
2.9299e-05
0.0139819
-0.000919064
6.1115e-05
0.0130389
-0.00122243
-3.22172e-05
0.012377
-0.00112668
0.000128589
0.0125268
-0.000867916
0.000325276
0.0118952
-0.0014767
-0.000159244
0.0108254
-0.000996592
0.000135837
0.0104038
-0.0004949
0.000583753
0.0102575
-0.000306632
0.0013131
0.0113706
0.000628396
0.00277332
0.000866976
0.00177597
0.0134574
9.91037e-05
-1.39457e-05
0.0138304
0.000340031
3.30364e-05
0.0142323
0.000349768
2.01456e-05
0.0145178
0.000254245
-5.99013e-05
0.0145139
0.000121438
-2.15622e-05
0.0147339
5.94315e-05
-3.23691e-06
0.0147987
5.25354e-05
-8.64627e-06
0.0145542
-8.32043e-05
4.44046e-06
0.0145785
-0.00014326
5.50873e-05
0.0143106
-0.000380118
-6.93874e-05
0.0138268
-0.000415606
5.21534e-05
0.0131895
-0.000583204
1.35609e-05
0.0126201
-0.000566909
-9.92499e-05
0.0121471
-0.000343437
6.719e-05
0.011293
-0.000643236
-0.000108214
0.0108448
-0.000482381
0.000118249
0.0107007
-0.00026748
8.24148e-05
0.0106068
-3.85484e-05
0.000302353
0.0114414
0.000600795
0.00130033
0.000562942
0.00067636
0.0134324
4.44104e-07
0.0137744
3.40679e-06
0.014121
-1.07371e-06
0.014374
-1.34374e-05
0.0144974
4.23098e-07
0.0145622
-5.5094e-06
0.0146184
1.61199e-05
0.0145343
-9.43253e-06
0.0143952
1.32675e-05
0.0140149
1.52269e-06
0.0136027
1.50707e-05
0.0130171
-1.95466e-05
0.0124516
5.04874e-06
0.0121166
4.2993e-05
0.0114527
-6.37204e-05
0.010995
9.39254e-05
0.0107423
2.01455e-05
0.0107261
5.56714e-05
0.011512
0.000311582
0.000167544
0.0134888
-0.000172154
0.0137499
-0.00024087
0.0139374
-0.000171659
0.0142089
-0.000280261
0.0143949
-0.000218895
0.0143185
5.3695e-05
0.0138777
0.000453843
0.0134126
0.000483139
0.0131131
0.000304931
0.0128189
0.000291614
0.0124793
0.000319183
0.0124732