/*--------------------------------*- C++ -*----------------------------------*\
  =========                 |
  \\      /  F ield         | OpenFOAM: The Open Source CFD Toolbox
   \\    /   O peration     | Website:  https://openfoam.org
    \\  /    A nd           | Version:  8
     \\/     M anipulation  |
\*---------------------------------------------------------------------------*/
FoamFile
{
    version     2.0;
    format      ascii;
    class       surfaceScalarField;
    location    "43";
    object      phi;
}
// * * * * * * * * * * * * * * * * * * * * * * * * * * * * * * * * * * * * * //

dimensions      [0 3 -1 0 0 0 0];

internalField   nonuniform List<scalar> 
7966
(
0.0134861
-0.000160887
8.12409e-06
0.0134933
-2.21248e-05
1.49484e-05
0.0138908
-0.00034971
-4.77952e-05
0.0142512
-0.000381932
2.15332e-05
0.0144659
-0.00019164
-2.30437e-05
0.0143111
0.000152061
2.71115e-06
0.0142717
1.42529e-05
2.51337e-05
0.0141338
0.000153997
-1.61283e-05
0.0137883
0.000318783
2.67192e-05
0.0134743
0.000331212
-1.71323e-05
0.0131519
0.000314338
8.01858e-06
0.0128814
0.000300548
-3.00565e-05
0.0126758
0.000173624
3.19803e-05
0.0129612
-0.000318486
3.30546e-05
0.013076
-7.70785e-05
-3.77272e-05
0.0127331
0.00030215
4.08023e-05
0.0127594
-2.6731e-05
3.92008e-07
0.0127007
0.000113103
-5.43911e-05
0.0126236
5.04263e-05
2.6665e-05
-0.000181917
-3.06967e-07
0.013405
-0.000256082
2.35099e-05
0.0134905
-0.000116249
8.61124e-06
0.0140241
-0.000805801
-7.74892e-05
0.0143141
-0.00068181
9.8525e-06
0.0147248
-0.000606084
3.77161e-06
0.0145532
0.00027404
4.96193e-05
0.0143093
0.000266539
-8.38063e-06
0.0144106
-1.43893e-05
6.71368e-05
0.0139047
0.000815894
8.75313e-06
0.013633
0.000606941
-4.02838e-06
0.0131126
0.0007559
7.88572e-05
0.0126598
0.000889747
-0.000136402
0.012873
-0.000177942
0.000138312
0.0132033
-0.000730564
8.17868e-05
0.0131346
9.63873e-05
-0.00010475
0.0128707
0.000355288
0.000210812
0.0130069
-0.000101475
-6.14801e-05
0.0128813
0.000384439
-0.000145729
0.0126227
0.000135667
0.000173328
-0.000340358
4.19799e-05
0.0137973
-0.000789974
7.09154e-05
0.0136089
2.64198e-05
4.57326e-05
0.0139615
-0.000759654
-0.000398768
0.0149505
-0.00165021
-2.05539e-05
0.0149877
-0.000682768
3.94452e-05
0.0146955
0.000598794
-3.25508e-05
0.0149492
-0.000223161
0.000235982
0.0145976
0.000285035
5.22686e-05
0.0141128
0.00120568
9.49292e-05
0.0136971
0.000883757
0.000138898
0.0134558
0.00123688
-0.000239698
0.0128898
0.00150519
-4.94348e-05
0.0125785
-0.000227097
0.000360481
0.0135308
-0.00202085
0.000338024
0.0136512
-6.81489e-05
4.40885e-05
0.0129696
0.0004644
0.000572468
0.0129407
0.00019007
-0.000262607
0.0125153
0.00122846
-0.000418644
0.0123487
-0.000192669
0.000494958
-0.000632705
-6.31897e-05
0.0135415
-0.00104002
4.38886e-05
0.0136298
-0.0003864
0.000324556
0.0147092
-0.00135164
-0.000487489
0.0157449
-0.00224368
-0.000442218
0.0154562
0.000247886
-0.000641897
0.0157252
8.49288e-05
0.000244811
0.0156344
-0.00134974
0.00121741
0.0152347
0.00031631
0.000368372
0.0151202
0.000721813
0.000598418
0.0145105
0.00163853
-0.000145098
0.0129634
0.00285637
-7.23922e-05
0.0121769
0.00214901
0.000142676
0.0127991
-0.00100985
0.000160558
0.0138549
-0.00469176
0.00161509
0.0132869
-0.00134396
0.00184385
0.0126582
0.000156548
0.000936526
0.013993
0.000336182
-0.00148089
0.0139028
0.000891692
0.000426949
0.0124486
-0.000198849
0.00146034
2.27944e-05
-0.000404077
0.01379
-0.00152826
3.67333e-05
0.0141272
-0.00132402
0.000600392
0.0154958
-0.00336959
0.000649423
0.0161723
-0.00153245
-0.00138774
0.0161717
0.00271301
-0.00246457
0.0172946
-0.00103926
1.27597e-06
0.0177614
-0.00308201
0.00126551
0.017345
-0.00138318
0.00211589
0.0168054
0.000401865
0.000859516
0.0148194
0.00244292
0.00118165
0.0135202
0.00290538
0.00125013
0.0124628
0.00497053
-0.00176413
0.00907124
-0.000660179
0.00304193
0.00837819
-0.00784044
0.00384173
0.00946536
-0.00336434
0.000933209
0.0105412
-0.00222056
0.00130132
0.0114458
-0.00262545
0.00205695
0.0132096
-0.00296217
0.00209005
0.014781
-0.00163749
-0.000132676
0.000913554
-0.000600697
0.0128432
-0.00172081
0.000693973
0.0150629
-0.00274479
-0.000799022
0.0173761
-0.00523771
-0.000445032
0.0190544
-0.00156805
0.00305642
-0.00154938
-0.00169548
-0.00145422
0.0187296
0.000402221
0.000629917
0.00098994
0.000278859
0.000736845
0.01942
0.00142831
-0.00315798
0.0203148
-0.0017817
-0.00219516
0.0214149
-0.00336403
0.000880773
0.0182675
0.000396299
0.003153
0.0125787
0.00241218
0.00571956
0.0153781
0.00291291
-0.00280695
0.0152229
0.0072114
-0.00208572
0.00673288
0.00154934
0.00628053
0.00344672
-0.00816242
0.00360814
0.00408047
-0.00534388
0.0013458
0.00591815
-0.00461532
0.000557079
0.00855977
-0.00736806
0.00210098
0.0108635
-0.0072246
0.00195873
0.0130308
-0.00457143
0.00076658
-0.000328416
0.00058647
0.0129348
-0.00190852
0.000605639
0.0146134
-0.00233217
-0.00209114
0.00487855
-0.00230008
-0.00146436
-0.00295659
-0.00226467
-0.00273446
0.0054603
0.00513436
0.0056226
0.00520307
-0.00296209
0.00106952
-0.00506419
0.00486367
-0.000675424
0.00127817
0.0222105
0.000754653
-0.00350526
0.0011864
0.000690038
0.00122479
-0.00472517
-0.00572783
-0.00494721
-0.00573263
0.0182782
0.00308511
-0.000934452
0.0199516
-0.00521688
0.00017944
0.0210824
0.00156748
-0.00230202
0.0213906
0.00617582
-0.00407177
0.0186381
0.00514594
0.000519407
0.011709
0.0062491
0.00789142
0.00730812
0.00234959
0.00360063
0.00492807
-0.00417995
-0.00160243
0.00407823
-0.00372993
-0.000764106
0.00504101
-0.00425261
-0.0013255
0.00768713
-0.00755475
-0.00245943
0.0108064
-0.00908151
-0.00126234
0.0136342
-0.00786268
0.00046344
-0.0022007
0.000422904
0.0139561
-0.00225295
-0.000255234
0.00535491
-0.00306735
0.000508682
0.00384437
0.0053898
0.00410158
-0.000374165
-0.00317515
-0.000958737
0.00513279
-0.00286483
0.000786874
-0.00143161
0.00120453
0.00165076
-0.00131196
-0.000111718
-0.0015399
0.000383841
0.00145083
-0.000174634
-0.000120135
-0.00125639
0.00526928
0.000123827
-0.00124604
-0.00127875
-0.00127601
-6.28152e-06
0.000210644
0.000230903
-1.65319e-05
0.0139665
0.000476903
0.00626355
-0.00594847
-0.00278274
-0.00597445
-0.00290937
-0.000463614
0.000576835
-0.000120085
0.0203864
-0.00337286
-0.00826384
0.0266045
0.000452778
-0.00510343
0.0204465
0.0103202
0.00201366
0.0110557
0.00958073
0.004956
0.00822781
0.00935871
-0.000281747
0.0101593
0.00577429
-0.00535614
0.0102119
-0.000714851
-0.00351776
0.00804199
-0.000189262
-0.00137075
0.00898702
-0.0023765
-0.00282114
0.0102231
-0.00492685
-0.00386404
0.0112721
-0.00704718
-0.00308332
0.0137732
-0.00892397
-0.00143977
-0.00296711
-0.000411604
0.00241578
-0.00278213
0.00306341
0.00267617
0.00299629
0.00269627
0.00286665
-0.0012321
-0.00228612
0.00143358
-0.00102392
0.00106268
-0.00158167
0.000109339
0.000177544
-0.00121532
-0.000477552
0.00112171
0.000352538
0.000169776
0.000348207
0.00728694
-0.00567959
-0.00430783
0.000181857
-0.000524343
-0.000128218
-0.000201687
0.0103709
-0.00713125
0.00450003
0.0120914
0.00773835
0.000861419
0.0183437
0.0103365
-0.00700808
0.0195192
0.0118399
-0.00365669
0.0136736
0.00827719
0.00334265
0.00987686
-0.00202795
0.00510988
0.00885912
-0.00116731
0.00199578
0.0100546
-0.00403856
0.000466602
0.0124248
-0.00783108
0.000534
0.0132879
-0.00628743
-0.00162289
0.0142587
-0.00764597
-0.00224873
-0.0028917
-0.000668989
0.0069588
-5.49817e-05
-0.00613019
0.00227594
0.00607983
0.00137449
0.000882298
-0.0027076
0.00436962
0.00161174
0.000662547
0.000863823
0.00127638
0.000583385
-8.12429e-05
-0.000502142
0.000110731
4.49353e-06
-0.0001115
-4.44729e-05
4.07483e-05
-0.0019962
-0.00940152
0.0023198
0.000534092
0.00132518
0.000366054
0.00117301
0.00395279
-0.0117962
-0.00128399
0.0111783
0.00279982
-0.00228697
0.0147447
0.00435315
0.00241691
0.0129726
0.00500929
0.00860274
0.00953715
0.0057297
0.00598294
0.00923579
-0.00272026
0.000993674
0.0119416
-0.00167057
-0.00220251
0.0142467
-0.00534011
-0.00100358
0.0157983
-0.0119131
0.00253039
0.016521
-0.0103662
0.00335612
0.0165846
-0.00907452
0.00136499
-0.00313637
0.000203109
0.00212627
3.07907e-05
-0.00620349
0.00725856
0.0027142
0.0073047
0.00342161
0.00127591
-0.0006585
-0.00040633
-0.000520194
-0.000519204
-0.000467024
-0.000197268
-9.39407e-05
0.000208137
8.30718e-05
0.000571624
-0.00871463
-0.00204529
0.000239096
0.000176344
0.000190722
0.000180622
-0.00110969
-0.0135067
0.00339176
0.00577555
-0.00331994
-0.000765475
0.00629332
-0.000321289
0.00415666
0.00564862
-0.00270735
0.00836133
0.00683595
-0.000168769
0.00471113
0.0107739
-0.00405776
-0.00260041
0.0160646
-0.0030869
-0.00387444
0.0178148
-0.00433925
-0.00275107
0.0171211
-0.00944304
-0.00177631
0.0176682
-0.00980026
-0.0011131
0.0165037
-0.00795294
4.29721e-05
-0.00218007
0.000632239
0.00545052
-0.00050333
-0.00689896
0.00463491
0.00551635
0.00515004
-0.00445467
0.00449545
0.0034773
0.00193244
-0.000403225
-0.000570878
0.00117737
-0.000203265
-0.000234919
6.38169e-05
-0.000221124
0.00017666
0.000780566
-0.000192607
-0.000238117
-0.00019792
1.54098e-06
6.24719e-05
-3.68197e-07
0.0124877
-0.0101657
-0.0035035
-0.000921462
-0.0030005
-0.000892257
-0.00271898
0.00719297
-0.00995778
0.00174583
0.00830251
-0.00399235
-0.000437127
0.0107994
5.37379e-05
-0.00287193
0.010736
-0.00221078
-0.000433182
0.0108531
-0.000206729
-7.9154e-05
0.013928
-0.00390856
-0.00322402
0.0178133
-0.0058189
-0.00115334
0.0180587
-0.00426024
-0.000324434
0.0153418
-0.00399689
-0.00272923
0.0142667
-0.00524706
-0.0034781
0.014787
-0.00583319
-0.00264006
-0.0014845
-0.000787526
0.015559
0.000307565
-0.00301349
0.00346443
0.00500446
0.00223999
-0.00289956
-0.00196803
-0.00319664
-0.00200033
0.00525104
0.00403644
0.00562724
-0.00165129
0.00410402
0.000551825
-0.00119027
-0.00158527
-0.00123418
0.00122211
0.0010037
0.0010972
0.00114659
0.000194485
-0.000242672
4.81867e-05
0.0233388
-0.00598094
-0.000890338
0.000961956
0.000669875
0.000665995
0.000619944
-0.00317744
-0.00615985
-0.00371446
-0.00633351
0.0212754
-0.00902394
0.000921691
0.0177239
-0.00654095
0.000134598
0.0171024
-0.00209384
-0.00127693
0.017144
0.00181326
-0.00180115
0.0166114
0.00287679
-0.00455495
0.0186104
0.00354582
-0.0057516
0.0209792
-0.00133003
-0.00494726
0.0207476
-0.00384885
-0.00173851
0.0179187
-0.00379528
0.00236393
0.0157945
-0.00191141
3.87859e-05
0.0144002
-0.00394241
8.95777e-05
0.0139362
-0.00737725
0.00200807
-0.00236922
0.000617825
0.0136719
0.000166474
-0.000178043
0.0165071
0.00372217
-0.00155293
0.00530403
0.00872049
0.000867525
-0.00351719
-0.00347459
-0.0034591
-0.00315763
0.00467726
0.00570198
0.00484435
-0.000879405
0.00618762
0.00194519
0.000267988
-0.000648786
-0.000898516
-0.000670067
5.97234e-05
-0.00662202
0.0060505
-2.90036e-05
4.02705e-05
0.000194618
7.71133e-05
0.000228799
0.0188684
-0.00746494
-0.000287495
0.00218269
0.00256982
0.00198173
0.00267315
-0.00524623
-0.00478757
-0.00541874
-0.00507079
0.0207976
-0.0042751
-0.00363513
0.0197144
-0.00409541
-0.00384525
0.0152575
-0.00503391
0.00294981
0.0132746
-0.00241861
0.0023077
0.0154072
0.000740788
-0.00106012
0.0177255
0.00262363
-0.00206517
0.0186381
0.0029365
-0.000303296
0.0161578
-0.000322513
0.00147281
0.0134073
-0.0013398
0.000241475
0.0136016
-0.00414641
0.000156846
0.0154608
-0.00325896
-0.000511703
0.0157531
-0.00268535
-0.00154935
0.0136375
-0.00600787
0.000746232
-0.00269086
0.00139008
0.0132275
-5.57572e-05
0.000339341
0.0156203
0.00206184
-0.000732529
0.0184559
0.00593999
-5.50699e-05
0.017687
0.00337279
0.0026795
-0.0016654
-0.000862803
-0.0017951
-0.000960103
0.0176701
-0.00252636
6.48752e-06
0.000592488
0.000994205
0.000471412
0.000478649
0.0193775
-0.00438362
-0.00478866
0.0180606
-0.00120174
-0.0017565
0.0156279
-0.00227263
0.000609913
0.014884
-0.00271531
-0.00157465
0.013315
-0.0011747
0.000325057
0.0140672
-0.000795402
0.00078401
0.0165302
0.000937334
-0.000776724
0.017928
0.00215746
-0.00061876
0.0170453
0.000201951
0.000358251
0.0155041
-0.00057789
0.000779267
0.0138434
-0.00275677
0.000271114
0.0150846
-0.00325492
-0.00124523
0.0183418
-0.00376863
-0.00217394
0.0174909
-0.00343686
-0.00172012
-0.000211698
-0.000472996
0.0133265
-0.00028542
0.00024163
0.0149051
0.00128911
-0.00080585
0.0166128
0.00347646
0.000755856
0.0163785
0.00233425
0.00127287
0.0155789
-0.000185872
-0.00154089
0.0162071
-0.00290854
-0.0021033
0.0163128
-0.000610122
-0.000697366
0.0138169
-0.00134392
0.00156727
0.0132121
-0.00231737
0.000206856
0.01428
-0.000721799
-0.00152079
0.0141891
-0.00125611
0.000551593
0.013592
6.13878e-05
0.00147304
0.0134055
0.000831906
0.00151203
0.0145548
-0.000671427
-0.000275906
0.0160325
0.000218765
-0.00227434
0.0139887
-0.000444216
-0.000268744
0.0110839
-0.000845838
0.000495708
0.00959109
-0.00342884
0.001153
0.00933009
-0.00350828
0.000332417
0.000907578
-0.00133618
0.0133375
-1.30516e-05
-0.000274496
0.013905
0.00052597
0.000195629
0.0148275
0.00174864
0.000805265
0.0160739
0.00171105
-0.000623134
0.0163539
0.000208156
-0.000674076
0.0147646
-0.00186824
0.000548981
0.0146551
-0.000939606
0.000439012
0.0146695
-0.000951028
-0.000407296
0.0140101
-0.0011144
-0.000543614
0.0135015
-0.000569373
0.000356183
0.013042
-0.00126225
0.000465644
0.0128809
8.85725e-05
0.000133942
0.0134652
-0.000144379
0.000392012
0.0138573
-0.000708532
-0.00035499
0.0141291
0.000356631
-0.000409697
0.013558
-0.000646867
0.00077373
0.0135385
-0.000392478
-0.000433849
0.012928
-0.00146919
-0.0013491
0.0111975
-0.00250847
0.000730665
0.000457931
0.000682398
0.0133964
-8.42894e-06
-6.66799e-05
0.0133014
0.000449521
0.000171474
0.0142639
0.000763823
2.22526e-05
0.0151914
0.000956196
-0.000172631
0.0149815
0.00021354
0.000204487
0.0141489
-0.00126478
0.000229163
0.0137276
-0.000370699
-0.00014762
0.0137201
-0.00063153
-0.000312005
0.0133294
-0.000448498
-0.000275129
0.0130733
-0.000511121
0.000197792
0.0128343
-0.00104721
2.39465e-05
0.0125739
0.000489031
-0.00014003
0.0126636
-0.000240284
6.16024e-06
0.0125048
-5.17514e-05
-0.000497934
0.0126389
0.000479045
-0.000256473
0.01261
-0.000674384
5.6415e-05
0.0130561
-0.00064424
-0.000194356
0.0129852
-0.000964719
-0.000433551
0.0116289
-0.00103738
-0.000114789
0.000556527
0.000277003
0.0133122
8.23339e-06
4.50836e-06
0.0136356
0.000155504
-2.93696e-05
0.0140355
0.000411185
-4.72828e-05
0.0145449
0.000390864
5.5913e-05
0.0145639
-3.31135e-05
0.000227648
0.0138772
-0.000440633
-0.000137411
0.0137086
-0.00023879
3.66252e-05
0.0134975
-0.000256213
-0.00016423
0.0132444
-0.000210786
1.54764e-05
0.0129119
-0.000197098
1.83919e-05
0.0123914
-0.000415234
-0.000111485
0.0126143
0.00013085
0.000135367
0.0127084
-0.00013354
-0.000200927
0.0126759
-6.8222e-05
4.89657e-05
0.0128711
0.000249731
3.41886e-05
0.0124992
-0.000156223
-0.000146277
0.0120345
-0.000182496
2.98754e-06
0.0112957
-0.000374953
0.000149
0.0107895
-0.000569764
3.85589e-05
0.000132281
0.000128732
0.0133438
-2.22322e-06
0.0135308
-3.1477e-05
0.0139159
2.60642e-05
0.0143057
1.01543e-06
0.0141975
7.51138e-05
0.0138071
-5.02025e-05
0.0135453
2.30133e-05
0.0133426
-5.35764e-05
0.0131221
9.76527e-06
0.01287
5.4977e-05
0.0125556
-0.000100777
0.0125424
0.000144009
0.0125253
-0.000116392
0.0124073
4.97829e-05
0.012638
1.90067e-05
0.0125382
-5.64266e-05
0.0122735
8.22146e-05
0.0118842
1.43523e-05
0.0113881
-7.36525e-05
4.80646e-05
0.0134866
-0.000153406
8.27892e-06
0.0134909
-2.75905e-06
1.33412e-05
0.013891
-0.000398052
-4.97783e-05
0.0142503
-0.000363888
2.60598e-05
0.0144669
-0.000214274
-2.53838e-05
0.0143138
0.000155122
6.91916e-07
0.0142681
4.76172e-05
2.32385e-05
0.0141356
0.000138508
-2.21371e-05
0.0137872
0.000347025
2.81505e-05
0.0134744
0.000315885
-2.02069e-05
0.013154
0.000321228
7.15924e-06
0.0128796
0.000274042
-2.96713e-05
0.0126782
0.000203577
2.97583e-05
0.0129577
-0.000269408
2.29937e-05
0.0130716
-0.000100238
-5.1365e-05
0.0127369
0.000330107
4.53505e-05
0.0127598
-1.41702e-05
-8.34813e-06
0.0126977
7.83854e-05
-7.06839e-05
0.0126225
6.9511e-05
3.23615e-05
-0.00017416
-8.0176e-06
0.0134129
-0.000232497
2.29746e-05
0.0134821
-7.00933e-05
6.76775e-06
0.0140161
-0.000930839
-7.86448e-05
0.0143158
-0.000668569
1.47508e-05
0.0147216
-0.000623262
7.00736e-06
0.0145572
0.000332572
3.65761e-05
0.0142936
0.000318664
-1.57886e-05
0.0144056
4.12013e-05
5.23959e-05
0.0138942
0.000866802
3.7273e-07
0.0136201
0.000586039
-3.78683e-08
0.0131182
0.000843488
5.84193e-05
0.0126446
0.000736595
-0.000125335
0.0128814
-4.17618e-05
0.000146866
0.0131957
-0.000525907
2.39488e-05
0.0131148
1.60239e-05
-0.000140114
0.0128864
0.000548813
0.000220508
0.0129989
-9.55366e-05
-9.25658e-05
0.0128583
0.000274352
-0.000201059
0.012623
0.000272868
0.000205259
-0.000272909
2.74017e-05
0.0138208
-0.000711694
6.33071e-05
0.013576
0.000183807
3.66521e-05
0.0139673
-0.00131259
-0.000408298
0.0149423
-0.00169691
3.27515e-05
0.014973
-0.000655438
4.09185e-05
0.0147746
0.000587804
-8.94183e-05
0.0148603
0.000316854
0.000152097
0.0145235
0.000462815
-3.24818e-05
0.0141146
0.00128662
8.39699e-05
0.0137173
0.000995308
0.000126983
0.0134507
0.00118062
-0.00031026
0.0127919
0.00136343
-1.7516e-05
0.0126927
0.000142784
0.000275195
0.0134078
-0.000969713
6.67299e-05
0.0134217
0.000135077
-8.88835e-05
0.0130843
0.000854171
0.000604534
0.0127956
0.000377827
-0.000447307
0.0124252
0.000769839
-0.000543761
0.0125788
3.40342e-05
0.0005802
-0.000494583
-0.000121316
0.0135486
-0.000912456
3.13667e-05
0.0136421
8.58182e-05
0.000329061
0.0147161
-0.0023295
-0.000544628
0.0158217
-0.00284741
-0.000397308
0.0155868
-0.000506978
-0.000555392
0.0155206
0.000901934
-3.12223e-06
0.0152971
0.000908383
0.000849293
0.0151865
0.000753338
0.000188525
0.0150364
0.00157244
0.000462633
0.0144279
0.00170101
-0.000242262
0.0131148
0.00251601
-9.46335e-05
0.0123411
0.00184483
0.000434905
0.013334
-0.000534006
-0.000155473
0.0143051
-0.00127587
0.000950117
0.0141158
0.000554006
0.00161419
0.0135695
0.0016298
0.000707202
0.0130229
0.000931724
-0.00148815
0.0134154
0.000438376
0.000365936
0.0133493
0.000282844
0.00127758
8.76829e-05
-0.000403479
0.0138281
-0.00138345
1.80643e-05
0.0140087
3.53041e-05
0.000470289
0.0157476
-0.00386735
0.00044839
0.0167264
-0.00369812
-0.00151577
0.0162234
-0.000306728
-0.0021619
0.0165591
0.000137
0.000430524
0.0162572
0.00132892
0.00114693
0.016263
0.00183014
0.00103326
0.015886
0.00229385
0.000515105
0.0141275
0.0035288
0.00111232
0.0126558
0.00429272
0.00094511
0.0114572
0.0032092
-0.00192991
0.0120731
-0.000179517
0.00207156
0.0132917
-0.00106261
0.00240995
0.0129629
0.00144086
0.000375094
0.0128136
0.00211956
0.000960845
0.0126475
0.00150768
0.00164715
0.0140802
-0.000434256
0.00152995
0.0146076
6.58867e-05
-0.000443149
0.00116897
-0.000478823
0.0130359
-0.00109423
0.000713351
0.0152953
-0.0020918
-0.000931356
0.0170649
-0.00521828
-0.000863735
0.019757
-0.00159232
0.00231337
-0.00135612
-0.00150145
-0.00119722
0.0199133
-0.000308151
0.00109559
0.000137274
-0.00059551
-0.000162372
0.0184315
0.000563247
-0.00210244
0.0190778
0.000358391
-0.00187085
0.0180977
0.00245787
0.00123308
0.016693
0.00423222
0.00261933
0.0165314
0.00532948
0.0040805
0.0164741
0.0043599
-0.00281679
0.0155963
0.00482079
-0.0028195
0.0123325
0.00417867
0.00518611
0.0105386
-0.000414444
0.00475385
0.00999054
0.00144965
0.00188507
0.0103023
0.00201298
0.000351917
0.0116533
0.000718019
0.00153961
0.012656
-0.000883441
0.00140528
0.0138395
-0.00120985
0.000858721
0.000393685
0.000881758
0.0130774
-0.000704838
0.000491851
0.0157458
-0.00388194
-0.00296939
0.00509428
-0.00262947
-0.00198059
-0.00280483
-0.0026173
-0.00219879
0.00571448
0.00490804
0.00557732
-0.00184464
0.00532739
-0.00196526
0.00198446
-0.00221416
-0.00514283
0.00528588
-0.000538648
0.0023016
0.0201145
0.000418196
-0.00226174
0.000646715
0.000343033
0.000388111
-0.00525963
-0.00584952
-0.00555623
-0.0059255
0.0170933
0.00329586
-0.000850706
0.0201109
-0.000956165
0.000575874
0.0192276
0.00498717
-0.00217368
0.0147704
0.00825555
-0.00254062
0.0132885
0.00640833
-4.70667e-05
0.0139089
0.00696153
0.00513029
0.0109805
0.00723088
0.00347678
0.00760558
0.00116532
0.000192733
0.00689665
0.00132613
6.83415e-05
0.00735098
0.000654806
-0.00042165
0.00960852
-0.00221962
-0.00177932
0.0118303
-0.00376546
-0.000602079
0.0137002
-0.00317082
0.000554508
-0.000338456
0.000208826
0.0137893
5.70053e-05
-0.00144939
0.00526457
-0.00328125
0.00114682
0.00421446
0.00543789
0.00371209
-0.00160698
-0.00306032
-0.0014112
-0.00136315
0.00521892
-0.00303919
0.00181851
0.000192136
-0.00145342
0.00084367
0.00163815
-0.00110108
-0.000119457
0.00034615
-0.00165602
0.000148068
0.00166358
-0.000121885
-0.000379899
-0.000196514
-0.00144334
0.00563082
0.000166748
-0.00136811
-0.00147107
-0.00137731
3.25927e-05
0.000220686
2.21148e-05
0.000201572
0.0152755
0.000883652
0.0063913
-0.00587169
-0.00269202
-0.00577199
-0.00250303
0.000896662
0.0010395
0.00191147
0.0183092
-0.00470087
-0.00755283
0.0222724
-0.0005326
-0.0035468
0.0189159
0.0111713
0.00245437
0.0172583
0.0099961
0.00302584
0.0167774
0.00890285
-0.00174218
0.0134921
0.00875036
-0.00359032
0.0102032
0.00368741
-0.00275096
0.00790008
0.00369009
-0.00143156
0.00807025
-3.85657e-05
-0.00229793
0.0096209
-0.00492175
-0.00271256
0.0122931
-0.00739157
-0.00212943
0.0152306
-0.006013
-0.00153505
-0.00082404
-0.000684023
0.00283227
0.00159716
0.00214995
0.00327987
0.00255232
0.00402746
0.00296251
0.00300633
-0.00379365
-0.00262418
-0.000293363
0.00143003
-0.00140336
0.0016173
-0.00164624
0.00029564
-0.00213234
4.64375e-05
-0.000146673
-4.84901e-05
0.00270053
0.000218006
4.16272e-05
0.000204556
0.00437186
-0.00778461
-0.00448861
-0.000317951
0.000344411
-0.00109649
-3.7299e-05
0.0128249
-0.00791125
0.00342559
0.0149049
0.00902294
0.000929827
0.0161154
0.00566617
-0.00388868
0.0152688
0.00688171
-0.000788912
0.013583
0.0108152
0.00296354
0.0125655
0.00667142
0.00314335
0.0109345
0.00569157
0.00162531
0.011157
-0.000172515
0.000378119
0.0117957
-0.00553403
0.000507582
0.0126907
-0.00851366
-0.00139586
0.0148073
-0.00855796
-0.00182033
-0.00177774
-0.000470961
0.00531518
0.00253123
-0.00206099
-0.00109252
0.00605496
-0.00199517
-0.0053325
0.00440313
-0.00155783
0.00280504
0.00144399
0.000896607
0.00141083
0.00124591
8.42901e-06
0.00064453
-0.000699047
4.60881e-05
-9.52368e-05
5.97925e-05
-1.68459e-05
-2.3543e-05
-1.61051e-05
9.19384e-05
-0.00271156
-0.00753205
0.0021234
0.000420569
0.00104157
0.000416493
0.000776772
0.00366105
-0.0119796
-0.00358827
0.00805705
0.00272792
-0.000387956
0.0110104
0.000709544
0.00442021
0.016249
0.00448878
0.00575702
0.0174673
0.0128357
0.00274429
0.0142546
0.00879668
0.00208112
0.0122829
0.00578999
-0.000329248
0.0136637
-0.00193102
-0.000625887
0.0150312
-0.00645198
0.0020808
0.0150805
-0.00811414
0.00290734
0.0159968
-0.00952895
0.00141971
-0.00245644
0.000255479
0.00115161
0.00205885
-0.00382384
0.00462682
0.000461838
0.00513819
-0.00104578
-0.000648556
0.00167643
0.00321805
-0.000461806
-0.000548953
-0.000533764
-0.000504019
-0.000304573
-0.000197819
-6.82173e-05
0.000217033
0.000353576
-0.00231019
-0.0076719
-0.0015183
0.000564369
0.000692559
0.000211647
0.000454484
-0.000767172
-0.0138162
0.00368531
0.00511661
-0.00241237
-0.00150896
0.00752334
0.000217338
0.00224213
0.0121883
0.00297014
0.00521502
0.0139477
0.0114675
0.00431983
0.0134316
0.00677336
-6.09331e-05
0.014989
0.00378682
-0.00342871
0.0159909
-0.00351548
-0.00216851
0.0159688
-0.00753371
-0.000672424
0.0161781
-0.00825183
-0.00118473
0.0158128
-0.00895771
-0.000163004
-0.00215601
0.00072929
0.0037658
-0.000124939
-0.00533557
0.00453382
0.00283127
0.00280812
-0.00142127
-0.00229383
0.00377147
0.00281293
0.000896505
-0.000165633
-0.000684659
-0.000676757
0.0012805
0.000246546
-0.0014382
-0.000275947
5.06478e-05
-0.000113437
0.000789117
0.00179577
-0.0002676
-0.000280995
-0.000281874
-9.11696e-06
4.26642e-05
-1.10317e-05
0.00971752
-0.0103206
-0.00412624
-0.000851004
-0.00240828
-0.00101197
-0.00217486
0.00589327
-0.0115586
0.00331251
0.00656093
-0.00394701
0.00042985
0.00662028
0.000275785
-0.00298973
0.00696232
0.000842178
0.00135275
0.00829153
0.00654293
0.00351624
0.012306
0.00139883
-0.00186392
0.0182375
-0.00124405
-0.00205407
0.0191172
-0.00386459
-0.000854953
0.0157083
-0.00421914
-0.00263489
0.0135118
-0.00603352
-0.00349997
0.0130541
-0.00856288
-0.00257718
-0.00226498
-0.000666274
0.0138324
-0.000261895
-0.00335195
0.00369675
0.00663146
0.00242892
-0.00347399
-0.00209701
-0.00323159
-0.00236963
0.00521103
0.00389821
0.00537827
-0.00111733
-0.00138968
0.00339785
0.000979647
-0.00106541
-0.00135825
-0.00102281
0.00145664
0.00119341
0.00138116
0.00124152
-0.000112845
0.000374928
-0.000351313
8.92293e-05
0.0230769
-0.00454123
0.000445364
0.000408596
0.000646803
0.000131577
0.000595393
-0.00409105
-0.00669334
-0.00401705
-0.00685235
0.0216056
-0.00877337
0.000845864
0.020193
-0.00850099
-0.00151044
0.0190696
-0.0043847
0.000284199
0.0174542
0.000863921
-0.000773913
0.0140073
0.00311158
-0.00337741
0.0139835
0.00501123
-0.00419611
0.01647
-0.000714931
-0.00532003
0.0183972
-0.00257432
-0.00233543
0.0191661
-0.00330361
0.00103401
0.0171606
-0.000892044
-0.00128276
0.0144014
-0.00323592
5.1186e-05
0.0140524
-0.00837066
0.00216485
-0.00259464
0.00061525
0.0132741
0.00060478
-0.000965861
0.0157041
0.00304912
-0.000400536
0.00616069
0.00703754
0.000156776
-0.00359299
-0.00311465
-0.00357571
-0.00284494
0.00500586
0.0062032
0.00513583
-0.00105809
-0.00063652
0.00717297
0.00267954
0.000750257
-0.000871525
-0.00102053
-0.000855406
-0.000174231
4.36748e-05
-0.00723118
0.00681382
0.00038362
0.00027696
0.000140053
-0.000269885
1.71672e-05
0.0222786
-0.00227099
-3.22478e-05
0.00126951
0.00167806
0.000848334
0.00123485
-0.00629231
-0.00577125
-0.00710551
-0.00612451
0.0203717
-0.00197651
-0.00429295
0.0162642
-0.0046072
-0.0039039
0.0137315
-0.00516048
0.00214193
0.0138768
-0.00350641
0.00128411
0.01456
-0.000704553
-0.000174788
0.0151548
0.00265811
-0.00220651
0.0180392
0.0041262
-0.0023027
0.0182721
0.000200331
0.000324668
0.0159886
-0.000499089
0.000449785
0.0162515
-0.00380709
0.000397345
0.0175592
-0.001822
-0.000889375
0.0167332
-0.00230029
-0.00165903
0.014519
-0.00620923
0.000798976
-0.00162317
0.00125207
0.0134059
0.000393411
0.000489255
0.0155044
0.00140404
-0.00118593
0.0181161
0.00436394
6.85967e-06
0.0194024
0.00440509
0.00326864
-0.00183528
-0.00123141
-0.00177143
-0.00144248
0.020054
-0.000189493
0.00159691
-0.000464523
-0.000366083
-0.000600131
-0.000621747
0.0194995
-0.0025505
-0.00395472
0.0186116
-0.000943453
-0.0019016
0.0163279
-0.00225079
0.000537219
0.0135916
-0.00262287
-0.00137597
0.011942
-0.00173112
0.000199348
0.0129598
-0.00173716
0.000798859
0.015508
-1.28858e-05
-0.000654004
0.0174245
0.00225252
-0.000661597
0.0167319
0.000514541
0.000736676
0.0157486
0.000252823
0.00101066
0.01484
-0.00304793
0.000420515
0.0160132
-0.00318488
-0.00105552
0.0173619
-0.00352662
-0.0022963
0.0153383
-0.00392611
-0.00197969
0.000267882
-0.000688601
0.0135234
8.09681e-05
0.000369097
0.0145498
0.000876946
-0.00130514
0.0161002
0.00279019
0.000779165
0.0168396
0.0029349
0.00200368
0.0161872
-0.000120676
-0.000957271
0.0162175
-0.00295096
-0.00173313
0.0158152
-0.000849316
-0.000389262
0.0143031
-0.000749501
0.00157806
0.0138059
-0.00208853
0.000169795
0.0135186
-0.00144592
-0.00151877
0.0133167
-0.00137388
0.0003903
0.0136995
-0.000441737
0.001519
0.0147954
0.000917933
0.00175074
0.0153006
-0.000350061
8.35217e-05
0.0145626
0.000774956
-0.00205845
0.0122974
-0.000526002
-0.00052549
0.0108711
-0.00153891
0.000276044
0.0102233
-0.00276411
0.00103832
0.00968307
-0.00328947
0.000235966
0.000419432
-0.00130374
0.0132579
9.70581e-05
-0.000213144
0.0137804
0.000430426
0.000119668
0.0149595
0.00166655
0.000749808
0.0159915
0.00169972
-0.000420018
0.0160441
-0.000250812
-0.000596487
0.0147453
-0.00162722
0.000523977
0.0148086
-0.000916494
0.000442909
0.0147589
-0.000573431
-0.000533648
0.0137514
-0.00097405
-0.000650615
0.0132994
-0.000862206
0.000224514
0.0129739
-0.000979871
0.000397139
0.0126425
-0.000191547
0.000215163
0.0135061
0.000156291
0.000289995
0.0139486
-0.000583958
-0.000563547
0.014536
0.00038912
-0.000611245
0.0144451
-0.000232624
0.000571241
0.0134145
-0.00054943
-0.000392716
0.0120143
-0.00144413
-0.0012689
0.0106341
-0.00211162
0.000933016
0.000155343
0.000965618
0.013398
9.8425e-06
-4.34661e-05
0.0133476
0.000516676
0.000135577
0.0143162
0.000726435
-6.20759e-06
0.0150936
0.000898274
-0.000148551
0.0148807
-8.34551e-05
0.000249977
0.0142288
-0.0010015
0.0002554
0.0138564
-0.000492544
-0.00019918
0.0137788
-0.000458944
-0.000348932
0.0132775
-0.000453832
-0.000294018
0.0130867
-0.000687046
0.000213469
0.0128742
-0.00074284
-6.60406e-07
0.0126279
0.000112119
-0.000197359
0.0128483
8.18462e-05
-0.000139801
0.0125158
-0.000126458
-0.000622975
0.0126083
0.000275389
-0.000235182
0.0128129
-0.000383251
2.38077e-06
0.0131066
-0.000756728
-0.000280717
0.0129567
-0.00120059
-0.000527142
0.0117423
-0.000941315
-7.07133e-05
0.000365589
0.000435458
0.0133231
1.43034e-05
1.02826e-05
0.0136612
0.000186319
-3.71454e-05
0.0140208
0.000374669
-5.51268e-05
0.0145245
0.00039284
5.76977e-05
0.0145405
-0.000109281
0.000237427
0.0139109
-0.00038197
-0.00012731
0.0137253
-0.000276413
6.12575e-06
0.0134909
-0.000209224
-0.000179621
0.0132758
-0.000217469
-5.73862e-06
0.0128827
-0.000273613
-1.92663e-06
0.0124288
-0.00028692
-0.000113514
0.0126144
-5.15988e-05
0.000113422
0.0127114
-1.89189e-05
-0.000197138
0.0127204
-0.000111768
2.52437e-05
0.0128225
0.000196243
1.13318e-05
0.0125144
-8.34228e-05
-0.000138012
0.0120457
-0.000280091
-4.97411e-06
0.0112305
-0.000413941
0.000177578
0.0107769
-0.000480449
3.1228e-05
7.17014e-05
8.50728e-05
0.0133451
3.46653e-07
0.0135355
-3.55625e-05
0.0139122
2.39487e-05
0.0143049
1.20872e-06
0.0141942
7.65061e-05
0.0138106
-4.86016e-05
0.0135465
1.0757e-05
0.01334
-5.62677e-05
0.0131294
2.88515e-06
0.0128595
5.12537e-05
0.0125653
-9.35673e-05
0.0125406
0.000117113
0.01252
-0.000114663
0.012422
3.60221e-05
0.0126283
8.95013e-06
0.0125423
-5.38354e-05
0.0122825
6.19239e-05
0.011879
3.9207e-06
0.0113923
-6.7485e-05
3.25114e-05
0.0134879
-0.000146277
0.0134879
1.33445e-05
0.0138925
-0.00045434
0.0142497
-0.00033117
0.0144671
-0.000242843
0.0143161