/*--------------------------------*- C++ -*----------------------------------*\
  =========                 |
  \\      /  F ield         | OpenFOAM: The Open Source CFD Toolbox
   \\    /   O peration     | Website:  https://openfoam.org
    \\  /    A nd           | Version:  8
     \\/     M anipulation  |
\*---------------------------------------------------------------------------*/
FoamFile
{
    version     2.0;
    format      ascii;
    class       volVectorField;
    location    "43";
    object      U;
}
// * * * * * * * * * * * * * * * * * * * * * * * * * * * * * * * * * * * * * //

dimensions      [0 1 -1 0 0 0 0];

internalField   nonuniform List<vector> 
2844
(
(1.00808 0.00176188 0.000106138)
(1.00836 -0.00706546 0.000201102)
(1.01989 -0.0300087 -0.00060398)
(1.05922 -0.00899821 0.000231249)
(1.072 -0.0289543 -0.000282252)
(1.09768 -0.013681 5.84825e-05)
(1.05593 -0.000702887 0.000356906)
(1.08428 -0.0249352 -0.000147555)
(1.03887 0.00577394 0.00033472)
(1.03027 -0.0124837 -0.000191851)
(0.994162 0.00373787 0.000118941)
(0.97763 -0.00057779 -0.000420535)
(0.955942 -0.0343984 0.000438568)
(0.943277 -0.00876994 0.000547538)
(0.994652 -0.00490325 -0.000353515)
(0.971278 -0.00806152 0.00049014)
(0.941329 -0.00358786 0.000109157)
(0.972511 0.000844592 -0.000561275)
(0.934197 0.0155367 0.000278157)
(0.95905 -7.25086e-05 9.24472e-05)
(1.01393 -0.0199717 0.000318774)
(0.992474 0.00494674 0.000152993)
(1.03235 -0.0102659 -0.00103089)
(1.06858 -0.0351509 6.40915e-05)
(1.06941 0.00670554 1.21634e-05)
(1.14099 0.0323098 0.000839085)
(1.04969 0.00230775 -2.98667e-05)
(1.09569 0.0438827 0.00107598)
(1.06647 0.0329843 0.00023112)
(1.02402 0.0533645 -0.000101179)
(1.01817 0.035041 0.00130491)
(0.952346 0.0379133 -0.00203116)
(0.950113 0.0563783 0.00174104)
(0.975307 -0.0285119 0.00178467)
(0.997452 -0.00415608 -0.00103031)
(0.978991 0.0436326 0.00280839)
(0.955154 0.000119127 -0.0004776)
(0.994013 0.0124552 -0.00150742)
(0.939877 -0.00962199 0.00203792)
(0.953988 -0.0220684 0.00073371)
(1.00968 -0.0129602 0.00103444)
(1.05001 -0.020749 0.000755558)
(0.997584 -0.0902206 -0.00516908)
(1.09033 -0.0497235 -0.00104057)
(1.14258 -0.0809843 0.000561219)
(1.1087 0.0010101 0.000261551)
(1.1076 0.0303959 0.00433067)
(1.12665 -0.045838 0.00177235)
(1.06652 0.0645495 0.00127521)
(1.04843 0.0174734 0.00205221)
(1.01136 0.0535175 -0.00250843)
(1.00366 0.0657343 -0.00103889)
(0.935083 -0.0797147 0.00549038)
(0.949475 -0.0607513 0.00800167)
(1.06766 0.0162659 0.0029661)
(0.990046 0.000162312 0.00725727)
(0.956586 -0.0116099 -0.00180161)
(0.980558 0.0340719 -0.00364825)
(0.900226 0.0260544 0.00608501)
(0.950913 -0.0181386 1.68145e-05)
(1.02124 -0.0764334 0.000756998)
(1.00859 0.025218 0.00450165)
(1.02814 0.00455454 -0.00619726)
(1.18108 -0.141102 -0.00684285)
(1.16371 0.00141797 -0.00948795)
(1.15984 0.0696597 0.00717704)
(1.21267 -0.0573128 0.0213484)
(1.12871 0.0815157 0.00707522)
(1.14619 0.0777647 0.0107419)
(1.13507 0.0912614 -0.00175997)
(1.03153 0.0982557 -0.000841305)
(0.918986 0.119969 -0.00290344)
(0.922649 0.0555847 0.00664937)
(0.982873 -0.17725 0.0310494)
(1.07998 -0.0241646 0.0318853)
(0.929301 0.0542444 0.0164811)
(0.967764 0.0330553 -0.0227102)
(1.12735 0.112023 0.00726952)
(0.956504 -0.0496653 0.019612)
(0.913259 -0.0589392 -0.00713992)
(1.02958 -0.057214 0.00101324)
(1.03408 -0.0773191 0.00894946)
(1.07286 -0.175461 0.00924122)
(1.24145 -0.136834 -0.0192453)
(1.1692 0.029858 -0.0358693)
(1.26365 -0.0591603 -0.0101214)
(1.33907 -0.107235 0.0119899)
(1.32015 -0.0460069 0.0401282)
(1.27723 0.0139002 0.0133971)
(1.24618 0.105176 0.0201373)
(0.975802 0.24126 0.026075)
(1.05743 0.132657 -0.0243586)
(0.824331 -0.184296 0.0527164)
(0.53016 -0.38435 0.0546862)
(0.706081 -0.141041 0.0138153)
(0.733282 -0.034413 0.0175463)
(0.850646 0.0100552 0.0332864)
(0.854789 -0.00246101 0.0376857)
(1.13137 0.0260504 0.000335569)
(1.08443 0.0618904 -0.0097536)
(0.980326 -0.111438 0.00896068)
(0.967671 -0.0673473 -0.0103193)
(1.25498 -0.207488 0.000663502)
(1.36293 -0.0338011 0.0407781)
(1.45174 0.280462 0.00501749)
(1.37432 -0.07256 -0.0632175)
(1.56164 -0.257179 -0.0438007)
(1.49169 -0.115182 -0.00248873)
(1.67293 0.0288632 0.0487816)
(1.09904 0.186387 0.0920318)
(0.775243 0.105155 -0.0781917)
(1.5332 0.469408 -0.0229741)
(0.784226 0.113167 0.0806395)
(0.202717 -0.556164 -0.0187861)
(0.31566 -0.265596 -0.0140084)
(0.308147 -0.230418 -0.00487104)
(0.575178 -0.330758 0.0192029)
(0.710647 -0.357482 0.0267784)
(0.92052 -0.221827 0.00749711)
(1.02643 0.0463124 0.00310189)
(1.05974 -0.115239 0.00884555)
(0.911107 -0.285899 -0.0171632)
(1.22771 -0.445445 -0.00575586)
(1.5972 -0.535308 0.0418914)
(1.62114 0.0221452 0.0465655)
(1.8225 0.239365 -0.0746204)
(1.47787 0.0328242 0.00655223)
(1.28637 -0.305168 -0.00461782)
(1.66382 0.0235955 -0.0697983)
(1.5221 0.114373 -0.123195)
(1.69531 0.243918 0.0263098)
(1.11854 0.406926 0.162054)
(0.624142 0.0626882 -0.00175243)
(0.453532 -0.450088 -0.0879871)
(0.301766 -0.381943 -0.0413285)
(0.298833 -0.334786 -0.0468498)
(0.464116 -0.566551 -0.0618892)
(0.701345 -0.503894 -0.0422266)
(0.911357 -0.322177 -0.0125357)
(1.12723 -0.0849209 0.00175762)
(0.922514 -0.0821504 0.0148281)
(1.20985 0.0350976 0.000387983)
(1.72146 -0.619137 0.0357895)
(1.82533 -1.28394 -0.0192108)
(1.55435 -0.301817 -0.0317925)
(0.980381 0.152301 0.00669978)
(1.10741 0.355902 0.0700676)
(1.01022 -0.298426 -0.178981)
(1.95498 0.147741 -0.0698201)
(2.08886 0.601666 0.0768174)
(1.03267 0.379326 0.0937992)
(0.590772 0.325941 0.00818775)
(0.644176 0.215222 -0.09386)
(0.905363 -0.0299927 -0.0655996)
(0.609859 -0.0497407 -0.029365)
(0.577632 -0.161482 -0.0580652)
(0.791123 -0.320097 -0.0873501)
(0.734854 -0.582417 -0.0759378)
(0.949025 -0.628877 -0.0346227)
(1.11783 -0.181792 -0.00593078)
(1.04952 -0.217295 0.0546346)
(0.542868 -1.12601 -0.154614)
(1.12908 -1.75895 0.0103117)
(-0.481774 -0.0210695 0.046916)
(0.29112 -0.117935 -0.056197)
(0.74384 -0.104882 0.0674953)
(0.847904 0.611351 -0.0521326)
(1.0161 0.748054 -0.188861)
(1.68149 0.802545 -0.0402095)
(1.27414 0.498034 0.0822851)
(0.7727 -0.054044 0.0382065)
(0.684823 0.02372 0.000379625)
(0.642677 -0.131447 -0.00301752)
(0.884463 -0.283573 -0.00830302)
(0.972311 -0.273836 -0.0476233)
(1.02463 -0.435898 -0.0598495)
(1.10785 -0.171638 -0.0220857)
(1.12913 -0.0587209 -0.18524)
(2.41433 -0.887912 0.0321694)
(-0.0876381 -0.318048 -0.318736)
(-0.0356713 -0.0665851 0.00660441)
(-0.168696 -0.554633 0.0255524)
(-0.149057 -0.717274 0.00458039)
(0.73182 0.312258 -0.0438814)
(0.994087 0.510356 0.0269561)
(1.18024 0.644052 0.109229)
(0.759056 0.485348 -0.0414347)
(0.649536 -0.204178 -0.125444)
(0.752817 -0.172219 -0.079717)
(1.0185 -0.367536 -0.0181923)
(1.13968 -0.664165 0.0394317)
(1.23348 -0.475521 0.0519211)
(1.23807 -0.473682 0.0118597)
(1.24261 -0.171315 -0.00735323)
(0.98322 0.0543019 -0.190509)
(0.405071 -1.05123 -0.107758)
(-0.0792172 0.24863 0.015692)
(0.618273 -0.585396 -0.0503972)
(-0.53744 -0.726047 0.0325058)
(0.381703 0.0378733 -0.0106887)
(0.491312 0.0174955 0.0475026)
(0.439245 -0.052985 0.0273417)
(0.388055 0.184291 -0.0699395)
(0.651473 -0.111436 -0.092224)
(0.985141 -0.0169875 -0.0539548)
(1.3926 -0.257603 -0.0589086)
(1.29391 -0.779723 -0.0545808)
(1.29638 -0.782324 -0.0178961)
(1.33731 -0.631261 -0.0108412)
(1.12682 -0.212906 -0.00458641)
(0.688996 -0.0619177 -0.139674)
(2.01001 0.605625 0.107478)
(0.644006 0.931058 -0.0445788)
(0.0666444 0.233019 0.0347604)
(1.28288 -0.470748 -0.036878)
(0.6557 -0.832609 0.0232789)
(0.431751 -0.412445 -0.0232977)
(0.772077 -0.0574597 -0.0543982)
(0.854169 -0.282953 -0.0706772)
(0.73139 -0.205802 -0.068907)
(0.920752 -0.367345 -0.0397346)
(1.17822 -0.348798 0.00908933)
(1.46101 -0.253717 -0.0101067)
(1.27013 -0.328262 -0.0595601)
(1.02922 -0.373359 -0.0460893)
(1.09663 -0.309554 -0.0471982)
(1.123 -0.0441321 -0.0270497)
(0.994893 0.01315 0.00257902)
(1.37768 0.13387 -0.0246019)
(0.849287 1.08099 -0.00286488)
(0.0683944 -0.141905 0.0129234)
(1.61483 -0.37453 -0.0251822)
(1.78584 -0.709574 0.00598223)
(1.47502 -0.390371 0.0158066)
(1.15538 -0.0909845 -0.043662)
(1.37381 0.06541 -0.0454122)
(1.21672 0.0326057 -0.0587634)
(1.24819 0.185206 -0.0849184)
(1.53866 -0.11061 -0.0687808)
(1.63413 -0.363916 -0.0269712)
(1.46445 -0.26343 0.0433466)
(1.22873 -0.161244 0.0102299)
(1.13228 -0.2691 0.00713849)
(1.02468 -0.397846 0.035744)
(1.06761 -0.133246 0.00961083)
(1.02814 0.0119104 0.016099)
(1.04211 0.425188 -0.0505878)
(1.39898 0.704725 0.0108722)
(1.65432 0.358395 0.00975914)
(1.90254 0.0761841 0.00769162)
(1.38487 -0.575441 -0.00233051)
(1.42392 -0.32073 -0.0308951)
(1.65322 -0.328962 -0.0452333)
(1.33371 -0.399804 0.0443988)
(0.937602 -0.168847 0.0378161)
(1.05024 0.140487 -0.0343989)
(1.24735 0.294217 -0.0323735)
(1.42969 0.228546 0.0198485)
(1.36319 -0.0411945 0.0302999)
(1.05073 -0.0862288 -0.00485298)
(0.952693 -0.197824 -0.00291616)
(1.08539 -0.0746873 -0.00897423)
(1.24868 -0.196342 -0.0184876)
(1.10343 -0.473719 0.0150793)
(0.942445 -0.145659 0.0179983)
(0.988951 0.0134021 0.00271095)
(1.00728 0.0504683 -0.00633039)
(1.31634 0.373586 -0.00189937)
(1.41577 0.17641 0.0268547)
(1.20931 -0.317285 -0.0237968)
(1.45832 -0.316881 -0.0819768)
(1.47352 -0.197504 -0.0225484)
(1.19662 -0.179268 0.00865584)
(1.17963 -0.187267 -0.0271966)
(1.03302 -0.106362 0.00356592)
(0.96566 -0.0436502 0.00879151)
(1.14406 0.036053 -0.0137699)
(1.33722 0.129535 -0.0135256)
(1.33605 -0.00120092 -0.00399407)
(1.23223 -0.0809074 0.00597962)
(1.08847 -0.293739 0.00880533)
(0.988473 -0.306198 -0.0167882)
(1.27514 -0.129453 -0.030515)
(1.45806 -0.262566 -0.0213045)
(1.16992 -0.185048 -0.00810919)
(0.972991 -0.0232037 0.00171132)
(1.02565 0.178912 -0.00460616)
(1.20449 0.308263 0.00864299)
(1.26062 0.205253 0.00745084)
(1.19406 0.0109895 -0.0269196)
(1.15712 -0.210417 -0.0311448)
(1.2767 0.047966 -0.013774)
(1.16654 -0.0893446 0.0195608)
(0.920412 -0.148374 0.00352662)
(1.04812 -0.042235 -0.0213714)
(1.10099 -0.0579117 0.00865535)
(1.01627 0.0688672 0.0169084)
(1.03648 0.122781 0.0158316)
(0.965017 0.0266088 -0.00596276)
(1.21977 0.0143366 -0.0352618)
(1.18496 -0.0389227 -0.00493693)
(0.900238 -0.092683 0.00767582)
(0.775471 -0.31845 0.0160486)
(0.656589 -0.140141 0.00791431)
(0.726632 0.159728 -0.0198726)
(0.995064 -0.00581805 -0.00433153)
(1.00953 -0.0129726 0.00323106)
(1.06987 0.126599 0.0109264)
(1.13682 0.0875214 -0.0110679)
(1.27702 -0.0303278 -0.01056)
(1.1591 -0.135734 0.00729851)
(1.07256 -0.117458 0.00521079)
(1.11399 -0.0741569 -0.00322401)
(1.09901 -0.123087 -0.00588262)
(1.00109 -0.0391207 0.00461298)
(1.01948 -0.0864626 0.007667)
(0.937357 -0.0599292 0.00160363)
(0.998638 -0.0206663 0.00843208)
(1.01683 -0.108951 -0.00122227)
(1.05733 0.0108696 -0.00292662)
(1.06913 -0.0160861 0.0134005)
(0.956761 -0.00622532 -0.00566432)
(1.07684 -0.098295 -0.0204188)
(0.862916 -0.282353 0.00699797)
(0.819308 -0.0460652 0.00604441)
(1.01003 0.00330022 -0.00105947)
(0.995394 0.0701594 0.00260035)
(1.00224 0.0722743 0.000676667)
(1.12669 0.107745 -0.00242206)
(1.14482 0.0523379 0.00174979)
(1.10846 -0.0927204 0.00291863)
(1.01845 0.00108079 -0.00138479)
(1.04769 -0.041545 -0.00372641)
(1.01372 -0.0137202 -0.00348007)
(0.985285 -0.0328375 0.00246398)
(0.978083 -0.0700181 0.0010757)
(0.938911 0.0690564 -0.00142621)
(0.957974 0.00244367 0.00240971)
(0.933624 0.0225047 -0.00570777)
(0.943716 0.0310682 -0.00414833)
(0.956657 -0.0623248 0.00184616)
(0.928336 -0.0417648 -0.00205425)
(1.03634 -0.0747242 -0.00490588)
(0.903988 -0.0220376 -0.0020995)
(0.843414 0.0982023 0.00166972)
(0.978328 -0.00376491 -4.74622e-05)
(1.0213 -0.0118904 -0.000297907)
(1.01891 0.0249973 -0.000556594)
(1.07866 0.0125029 0.000724447)
(1.09988 -0.024221 0.00299227)
(1.07756 -0.055597 -0.00205473)
(1.01238 -0.0435109 0.00087636)
(1.04408 -0.0332998 -0.00209964)
(0.986814 -0.0384317 0.000504767)
(1.00258 -0.0258351 0.000462627)
(0.933403 -0.0521923 -0.0013967)
(0.925181 -0.00763692 0.00201135)
(0.970498 -0.0303054 -0.0026297)
(0.932953 -0.0283265 0.000851026)
(0.967269 0.0274587 0.000581984)
(0.96536 -0.0191788 -0.00198921)
(0.90607 -0.0363296 8.31978e-05)
(0.901615 -0.0434503 0.00134496)
(0.789658 -0.10162 0.000642292)
(0.830375 -0.030226 0.00220875)
(0.983674 0.0043927 -5.99503e-05)
(1.01836 0.0287916 -0.00036876)
(1.00825 0.0214639 0.00036555)
(1.072 0.0317576 7.71127e-06)
(1.06912 0.0194474 0.000996427)
(1.05879 0.000897995 -0.000726591)
(1.01658 0.0136324 0.000475351)
(1.02089 0.00189082 -0.000714867)
(0.983145 0.0123594 0.000238554)
(0.9889 0.00109539 0.000791305)
(0.941268 0.000927724 -0.0014833)
(0.939729 0.0223983 0.00224277)
(0.946806 0.0137388 -0.0016425)
(0.92823 0.0197697 0.000845002)
(0.933131 0.00194177 0.000368309)
(0.964262 0.000284061 -0.000820482)
(0.913949 0.0143303 0.00138476)
(0.926862 -0.000675439 0.000317773)
(0.852412 0.0329161 -0.00109569)
(0.858742 0.0461474 0.000821977)
(1.00818 0.00176687 0.000218419)
(1.00838 -0.00690706 0.000378502)
(1.01952 -0.0299678 -0.00128068)
(1.05965 -0.00957288 0.000633291)
(1.07154 -0.0285132 -0.000643345)
(1.0983 -0.0134983 4.37947e-05)
(1.05565 -0.00115908 0.00064335)
(1.08399 -0.0238403 -0.000510968)
(1.03939 0.00537659 0.00073478)
(1.02945 -0.0123418 -0.00050044)
(0.994974 0.00444503 0.000198697)
(0.977196 -0.00137957 -0.000800156)
(0.955972 -0.0334094 0.000809221)
(0.943676 -0.00873216 0.00073589)
(0.993823 -0.00535207 -0.00117069)
(0.971361 -0.00651479 0.00113374)
(0.941725 -0.00404977 -9.50079e-05)
(0.972142 0.000196568 -0.00164275)
(0.934111 0.0162248 0.000774635)
(0.958975 0.00023633 -0.000107423)
(1.01392 -0.0191059 0.000617472)
(0.993772 0.00677197 0.000210266)
(1.02983 -0.0160246 -0.00206288)
(1.06982 -0.0324617 0.000315441)
(1.06864 0.00359254 0.000148671)
(1.14112 0.0324915 0.00113694)
(1.05007 0.00666172 -0.000328133)
(1.09292 0.0409275 0.00158645)
(1.06847 0.0367878 0.000110162)
(1.02036 0.0513592 -5.75977e-05)
(1.01994 0.0351853 0.00183592)
(0.951363 0.0354816 -0.00349089)
(0.948887 0.0590873 0.00375977)
(0.977546 -0.0226994 0.0013574)
(0.994512 -0.00644567 -0.00313806)
(0.978793 0.0454081 0.0056181)
(0.957541 0.00215926 -0.00202859)
(0.990394 0.00898626 -0.00442777)
(0.940052 -0.00808322 0.00482937)
(0.95385 -0.0214441 0.000918018)
(1.0107 -0.0109267 0.0018061)
(1.05246 -0.0165803 0.00109733)
(0.990386 -0.0996788 -0.0105806)
(1.09826 -0.0508006 0.000207427)
(1.13357 -0.0799114 0.00104925)
(1.1154 0.00791115 -0.00155905)
(1.11276 0.0324394 0.00499061)
(1.10814 -0.0364552 0.000208571)
(1.07423 0.0669202 0.00246229)
(1.04066 0.0170079 0.00343474)
(1.02208 0.0637186 -0.00728413)
(0.992562 0.050122 -0.00101633)
(0.931181 -0.0650517 0.00855017)
(0.969967 -0.0418332 0.00497384)
(1.02955 0.0085534 -0.0012802)
(0.993454 0.0218749 0.0154281)
(0.969785 -0.0129286 -0.009055)
(0.945395 0.0244683 -0.0134994)
(0.922353 0.0413276 0.013661)
(0.962724 -0.0106619 -0.00263882)
(1.01966 -0.069305 0.000983176)
(1.01097 0.0417993 0.00844881)
(1.02846 -0.0508088 -0.0133734)
(1.18059 -0.145369 -0.0113494)
(1.17606 0.00358901 -0.0158242)
(1.16669 0.0615059 0.00263361)
(1.17502 0.00539104 0.0264084)
(1.11637 0.0940606 0.00728029)
(1.1511 0.0849634 0.0127952)
(1.1176 0.105304 -0.00426266)
(1.03722 0.0814086 -0.00216254)
(0.934985 0.118359 0.00827761)
(0.93144 0.084377 -0.00087479)
(1.05344 -0.0710837 0.0317372)
(1.08083 0.00848283 0.0435184)
(1.0519 0.0790719 0.0213776)
(0.98221 0.0564189 -0.0382069)
(0.967514 0.0663691 0.00870749)
(1.04562 -0.0373912 0.0374682)
(0.956882 -0.0499332 -0.00967827)
(1.03041 -0.0484669 0.000312865)
(1.03878 -0.0341425 0.0140547)
(1.05022 -0.240425 0.0160878)
(1.29972 -0.206525 -0.0390025)
(1.19682 -0.0623454 -0.0623787)
(1.24214 0.0499062 0.00996041)
(1.24956 0.10063 0.0366334)
(1.18298 -0.0074387 0.0416225)
(1.25701 0.111399 0.020635)
(1.12525 0.10001 0.0262838)
(0.993048 0.217512 0.0226508)
(0.909609 0.098561 -0.048691)
(0.821147 -0.153595 0.0645028)
(0.978954 -0.0827827 0.0931807)
(0.995224 0.0555033 0.0243523)
(0.969261 0.119367 0.0331951)
(0.955026 0.0597192 0.0467508)
(0.931592 -0.0117237 0.0442617)
(1.18544 0.0721193 -0.00582838)
(1.00331 0.0609755 -0.0143342)
(0.982847 -0.103546 0.0183785)
(0.993168 0.0412879 -0.0232605)
(1.2663 -0.200401 -0.0178871)
(1.29792 -0.216808 0.0761122)
(1.62475 0.0192208 0.0185173)
(1.37366 -0.036694 -0.0648147)
(1.41382 0.0629953 -0.0435629)
(1.44893 0.233487 0.0349717)
(1.22231 0.151479 0.0727157)
(1.31162 0.318594 0.12905)
(1.15452 0.293746 -0.0396811)
(1.31827 0.288654 -0.0650283)
(1.05385 0.135861 0.159376)
(0.764386 -0.0458334 0.154693)
(0.825147 0.113717 0.0650838)
(0.690945 0.134826 0.0259604)
(0.846875 0.116647 0.061297)
(0.904621 -0.0427008 0.0484328)
(0.99529 -0.0645807 0.0218262)
(1.07346 0.0774768 0.0198074)
(1.04827 -0.0435454 0.0144925)
(0.941739 -0.312389 -0.0714103)
(1.36918 -0.449468 -0.0504567)
(1.60088 -0.452314 0.160098)
(1.58851 -0.106273 0.191928)
(1.72846 0.100979 -0.0663188)
(1.25595 -0.0252251 -0.0459063)
(1.32917 0.0454462 0.010608)
(1.64507 0.376255 -0.0227068)
(1.25887 0.338967 -0.0447285)
(0.965251 0.226403 -0.00899746)
(1.04363 0.299561 0.143352)
(1.02617 0.348481 0.139677)
(0.601966 -0.0095028 0.0237052)
(0.557648 0.0586588 0.00984698)
(0.463882 0.0999822 -0.00659354)
(0.644646 -0.0341764 -0.0382516)
(0.81002 -0.0610128 -0.00982699)
(0.955555 -0.0784899 0.029931)
(1.09422 -0.0288691 0.0147702)
(0.922612 -0.0210103 -0.0256684)
(1.17486 -0.118452 0.0149823)
(1.69755 -0.743579 0.128321)
(1.82122 -0.947221 -0.0459666)
(1.82037 -0.0772651 -0.118278)
(1.35504 0.09373 0.0170368)
(1.3412 0.43765 0.164681)
(0.981277 -0.153671 -0.160924)
(1.67558 0.193951 -0.141198)
(1.71395 0.621567 -0.00154625)
(1.17761 0.55067 0.0994267)
(1.36484 0.518389 -0.0219165)
(1.16156 0.527431 -0.116382)
(0.889069 0.160827 -0.0707071)
(0.624189 0.110037 -0.0269315)
(0.542532 -0.0163507 -0.0573598)
(0.687979 -0.221187 -0.0673726)
(0.747936 -0.383883 -0.0456587)
(1.08828 -0.30502 -0.0214374)
(1.1964 -0.0125899 -0.0101651)
(1.15679 0.0295767 0.0654126)
(0.682267 -1.13358 -0.240573)
(1.83432 -1.70924 0.0859016)
(-0.307999 0.0738718 0.197972)
(-0.136169 -0.414596 -0.111041)
(0.745519 -0.266201 0.105142)
(1.22109 0.698281 0.0877418)
(1.06972 0.62871 -0.0964635)
(1.29767 0.558412 -0.111355)
(1.01455 0.544318 0.0436651)
(1.01625 0.271391 0.154032)
(0.847012 0.31816 0.075489)
(0.78497 0.0102894 0.0214275)
(0.907079 -0.382765 0.0287189)
(0.85728 -0.515775 -0.0199455)
(1.05057 -0.413591 -0.0290039)
(1.16199 -0.085261 -0.0050237)
(0.667747 0.199423 -0.0720584)
(1.91473 -1.45405 0.318231)
(0.368562 -0.464727 0.0345773)
(-0.00291366 -0.0447105 0.0274304)
(-0.266786 -0.516695 0.0651781)
(-0.16392 -0.651596 -0.0611985)
(0.709703 0.366617 -0.0524328)
(0.540684 0.0608514 0.0634746)
(1.07529 0.283683 0.217559)
(1.35943 0.733861 0.264229)
(1.25539 0.506581 0.162146)
(0.899079 0.350306 -0.00485449)
(0.922084 -0.0345379 -0.0218222)
(1.14774 -0.28644 0.0582709)
(1.11246 -0.499172 0.078652)
(1.14632 -0.60482 0.0433446)
(1.24359 -0.124899 0.0153464)
(0.731247 0.114869 -0.057565)
(0.122893 -0.301927 0.166353)
(-0.0640412 0.257177 0.123889)
(0.13112 -0.394692 -0.028485)
(-0.488947 -0.807027 0.0975386)
(0.382525 -0.0248705 -0.020664)
(0.393623 0.0284089 0.113208)
(0.710653 0.240818 0.285185)
(1.10633 0.801583 0.251352)
(1.00934 0.570525 -0.00310784)
(1.0149 0.361634 -0.105525)
(1.20594 -0.187559 -0.0552318)
(1.20414 -0.498747 -0.0198257)
(1.21542 -0.48635 -0.0268354)
(1.19412 -0.555737 0.0122505)
(1.16517 -0.176995 0.0290257)
(0.997836 0.0813691 -0.147198)
(1.10793 0.184358 0.0729174)
(0.657547 1.35428 0.130564)
(0.0483344 0.299654 0.141052)
(1.0422 -0.541335 -0.109699)
(0.471577 -0.792449 0.0418498)
(0.430063 -0.243916 0.00804478)
(0.516087 -0.00349822 -0.0618454)
(0.483788 0.11394 0.0513729)
(0.542636 0.576933 0.0667402)
(0.720797 0.249627 -0.0837501)
(1.13196 0.10127 -0.053871)
(1.57028 -0.224794 -0.003935)
(1.31975 -0.382519 -0.0527081)
(1.03811 -0.485321 -0.0957938)
(0.973674 -0.504287 -0.0609688)
(0.98509 -0.0769206 -0.00521154)
(1.05191 -0.0953322 -0.115591)
(1.05482 0.367689 0.108903)
(1.11357 0.666556 0.0819114)
(0.368501 -0.220544 0.0524392)
(1.69113 -0.411759 -0.00967262)
(1.66703 -0.653637 0.027849)
(1.64452 -0.619852 -0.0108236)
(1.3524 -0.25384 -0.00475264)
(1.47059 0.0397851 -0.0233307)
(1.16695 -0.00389765 -0.120687)
(0.908526 0.227542 -0.151467)
(1.1859 -0.0862535 -0.136607)
(1.30871 -0.258338 -0.0455694)
(1.43729 -0.245336 0.0484666)
(1.43799 -0.134215 -0.00885582)
(1.12812 -0.253022 -0.00407924)
(1.032 -0.529326 0.0427796)
(1.07964 -0.192952 0.0155348)
(1.06433 0.0516539 -0.0236799)
(0.946911 0.381032 -0.0083104)
(1.37647 0.609196 0.0208345)
(2.03217 0.675561 0.0683851)
(2.03644 0.0281805 -0.00300893)
(1.70361 -0.182742 -0.0112348)
(1.6154 -0.113291 -0.116921)
(1.39994 -0.354624 -0.108548)
(1.0651 -0.412012 0.0681261)
(0.977342 -0.286967 0.0499406)
(1.10647 0.0550658 -0.0105089)
(1.06304 0.357067 -0.052626)
(1.22755 0.361438 -0.0328725)
(1.4724 0.0065616 0.0258642)
(1.26063 -0.0402816 0.0141124)
(1.12901 -0.15588 0.00934995)
(1.30364 0.0229177 -0.0122244)
(1.34928 -0.127271 -0.0426133)
(1.14794 -0.461096 0.0142667)
(1.02776 -0.113693 0.0366044)
(0.981641 0.0318123 0.0110657)
(1.04072 0.0100339 -0.0238359)
(1.26784 0.263895 -0.000501284)
(1.40935 0.230491 0.0782409)
(1.48409 -0.069532 0.0243418)
(1.53483 -0.0842871 -0.113906)
(1.41649 -0.12617 -0.0473882)
(1.33579 -0.216707 0.0153897)
(1.14571 -0.188701 -0.0358452)
(0.874367 -0.114351 0.0097731)
(0.918596 -0.132066 0.0220189)
(1.02605 -0.0217638 -0.0168064)
(1.30182 0.141215 -0.0110036)
(1.29528 0.0153644 0.0181437)
(1.22714 -0.02375 0.0248515)
(1.12882 -0.295765 0.00185824)
(1.09466 -0.23426 -0.0344219)
(1.31522 -0.152399 -0.0567776)
(1.27046 -0.299102 -0.0481085)
(1.03347 -0.0868041 -0.011166)
(0.974123 0.00787553 0.00823283)
(1.05478 0.14373 -0.0284599)
(1.11981 0.23301 0.0208222)
(1.26969 0.272016 0.044543)
(1.25041 0.0474092 -0.033117)
(1.19214 -0.221705 -0.0518134)
(1.2433 0.00829926 -0.0137082)
(1.12524 -0.0497322 0.0421676)
(1.0351 -0.136171 0.00461509)
(1.02271 -0.103191 -0.0403759)
(1.01095 -0.0856957 0.0124639)
(0.976452 0.0195271 0.0406283)
(1.09229 0.121864 0.0432421)
(1.11699 0.0482097 -0.00583798)
(1.18131 0.0554543 -0.0573178)
(1.00135 -0.0720123 -0.00618872)
(0.831161 -0.155753 0.0120153)
(0.812944 -0.266923 0.0296765)
(0.712734 -0.16208 0.00491316)
(0.723268 0.118136 -0.0351972)
(0.998046 0.00447214 -0.00668652)
(0.994625 -0.0293467 0.00441931)
(1.06593 0.117804 0.0208737)
(1.16086 0.0941187 -0.0139503)
(1.23992 -0.0592065 -0.0165341)
(1.15032 -0.129953 0.0143393)
(1.07824 -0.106106 0.0119925)
(1.13113 -0.0416825 -0.0136425)
(1.09571 -0.108006 -0.0160169)
(0.96468 -0.0628858 0.00917263)
(1.0261 -0.0724553 0.0106954)
(0.920154 -0.0686464 0.00357373)
(0.980267 -0.00910395 0.00700069)
(1.04239 -0.0911226 -0.0128328)
(1.04422 0.0357037 -0.0136969)
(1.14323 0.00703463 0.0170913)
(1.0167 -0.0256276 -0.0113494)
(0.998345 -0.0693095 -0.0341616)
(0.802195 -0.233427 0.0213048)
(0.794662 -0.0645103 0.0204563)
(1.00821 0.00480205 -0.00144975)
(0.997125 0.0756361 0.00412112)
(1.00746 0.071485 0.00016625)
(1.12979 0.0999052 -0.00431553)
(1.12671 0.0255547 0.00616063)
(1.11134 -0.0693432 0.00610107)
(1.02769 -0.00730358 -0.00465447)
(1.05764 -0.0283206 -0.00888514)
(1.01283 -0.0117963 -0.00742149)
(0.978058 -0.0449825 0.00544164)
(0.987208 -0.049598 -0.000168182)
(0.935931 0.0436042 -0.00418531)
(0.96895 0.0270662 -0.00216956)
(0.950374 0.0195217 -0.0145144)
(0.928424 0.0101972 -0.00618335)
(0.967944 -0.0351589 0.000447039)
(0.947485 -0.0414964 -0.00585961)
(1.02395 -0.100899 -0.0127757)
(0.912445 -0.0228169 -0.00254515)
(0.852213 0.0815442 0.00962546)
(0.97668 -0.00302837 0.000202184)
(1.02457 -0.009033 -0.00089876)
(1.01958 0.0211576 -0.00135752)
(1.07583 0.0132158 0.0014748)
(1.09983 -0.0338881 0.00619749)
(1.07413 -0.0477376 -0.00354505)
(1.02086 -0.0494289 0.000572957)
(1.03794 -0.0259125 -0.00452574)
(0.991952 -0.0409829 0.000104165)
(1.00183 -0.0344436 0.000250709)
(0.929882 -0.0366105 -0.00305209)
(0.934269 -0.0288345 0.00346066)
(0.961492 -0.0167518 -0.00537633)
(0.942313 -0.0340253 0.00106567)
(0.964755 0.0236215 0.000767586)
(0.960847 -0.0114492 -0.00387213)
(0.912942 -0.0501557 1.86603e-05)
(0.896079 -0.0456722 0.00451004)
(0.785519 -0.0895955 0.000825742)
(0.832627 -0.0369437 0.00282762)
(0.983263 0.00427173 -2.26778e-05)
(1.01893 0.0294697 -0.000888279)
(1.00842 0.0210483 0.000659389)
(1.07137 0.0312916 3.26604e-05)
(1.06973 0.0193309 0.00201301)
(1.05763 0.000207887 -0.00132594)
(1.01828 0.0149361 0.000432378)
(1.01924 0.000195427 -0.00145676)
(0.984468 0.0140979 0.000160839)
(0.988569 0.000350669 0.00142666)
(0.940107 0.000971349 -0.00260313)
(0.942307 0.0220709 0.00346224)
(0.943901 0.0142743 -0.00306252)
(0.930486 0.0201248 0.00113645)
(0.9328 -0.000581263 0.000379682)
(0.963174 0.00134354 -0.00147595)
(0.915866 0.0165003 0.00192917)
(0.926173 -0.00312721 0.000257083)
(0.852284 0.0317562 -0.00189609)
(0.859392 0.0456629 0.00105966)
(1.00826 0.00176055 0.000112804)
(1.00843 -0.00673477 0.000178047)
(1.0191 -0.0299502 -0.000680617)
(1.06018 -0.0102139 0.000408493)
(1.07086 -0.0279242 -0.000365993)
(1.09903 -0.0134476 -1.16412e-05)
(1.05532 -0.00176835 0.000288403)
(1.08364 -0.0227513 -0.000367527)
(1.04017 0.00478086 0.000405684)
(1.02827 -0.0121647 -0.000313575)
(0.996098 0.00500453 8.71213e-05)
(0.976531 -0.00229981 -0.000391882)
(0.955813 -0.0319753 0.000386514)
(0.944382 -0.00940278 0.000197332)
(0.992648 -0.00629078 -0.000864582)
(0.971688 -0.0047813 0.000699831)
(0.942065 -0.00496483 -0.00022496)
(0.971547 -0.000961635 -0.00116173)
(0.934198 0.017104 0.000549458)
(0.958763 0.000262764 -0.000202463)
(1.01382 -0.01827 0.000303091)
(0.995463 0.00874642 5.0851e-05)
(1.02681 -0.0227056 -0.0010352)
(1.07137 -0.0279817 0.00026733)
(1.06742 -0.000373389 0.000121522)
(1.14104 0.0319907 0.000314478)
(1.05075 0.0106479 -0.000277282)
(1.08982 0.0355407 0.000490428)
(1.07127 0.0414974 -9.49393e-05)
(1.01522 0.0481668 5.52662e-05)
(1.02302 0.0348569 0.000485382)
(0.94966 0.0339327 -0.00147228)
(0.946125 0.0598578 0.00207611)
(0.981399 -0.0196981 -0.000373784)
(0.988529 -0.0128892 -0.00237417)
(0.979968 0.0483032 0.00325993)
(0.960238 0.00178018 -0.00174959)
(0.980633 6.96345e-05 -0.00355436)
(0.940928 -0.00486878 0.00327494)
(0.95246 -0.0232271 0.000154818)
(1.01179 -0.00944162 0.000761929)
(1.05534 -0.0129865 0.000381306)
(0.983064 -0.109728 -0.00545185)
(1.10482 -0.0502097 0.00118852)
(1.12218 -0.0767705 0.000584188)
(1.12262 0.00942672 -0.00191553)
(1.11989 0.0313949 0.00121835)
(1.09093 -0.0321991 -0.00144721)
(1.08297 0.0667871 0.000968634)
(1.0347 0.0176235 0.00163608)
(1.03224 0.0660511 -0.00507266)
(0.979287 0.040264 0.000334377)
(0.929692 -0.0497926 0.00280866)
(0.989853 -0.0439073 -0.00218747)
(0.977514 -0.0110853 -0.00213924)
(1.0177 0.0445256 0.00914584)
(0.980863 -0.0195135 -0.00852765)
(0.873781 -0.0065739 -0.00777668)
(0.959213 0.064363 0.00988029)
(0.974799 -0.00717051 -0.00213785)
(1.01449 -0.0653716 0.000268238)
(1.02257 0.0545223 0.00440414)
(1.02639 -0.109672 -0.00800484)
(1.17541 -0.127523 -0.00394208)
(1.17428 0.00431711 -0.00670258)
(1.17953 0.0282041 -0.00274174)
(1.16194 0.0363929 0.00816841)
(1.10062 0.0731618 0.000417682)
(1.16921 0.0889342 0.00587678)
(1.10206 0.115282 -0.00516174)
(1.00433 0.0407944 -0.00147609)
(0.968791 0.12775 0.00926968)
(0.936506 0.0818486 -0.00492658)
(1.02716 -0.0521121 0.00724248)
(1.04859 -0.0282201 0.0219146)
(1.15165 0.106542 0.00680854)
(0.974417 0.0582043 -0.0197566)
(0.854665 -0.0429073 0.00686139)
(1.15153 -0.0226629 0.0148282)
(0.996769 -0.0526723 -0.00588434)
(1.01985 -0.0501291 0.000522605)
(1.04671 0.00352401 0.00571676)
(1.05739 -0.314138 0.00235639)
(1.31958 -0.248911 -0.01908)
(1.19971 -0.12788 -0.0226534)
(1.18017 0.0296965 0.00876538)
(1.28436 0.180947 0.0112069)
(1.14684 -0.0261312 0.00102431)
(1.20349 0.151119 -7.24245e-05)
(1.11077 0.0990019 0.0181029)
(1.04845 0.164972 0.0155112)
(0.877128 0.14636 -0.0264319)
(0.840787 -0.147756 0.0218775)
(1.18685 -0.0189846 0.00749867)
(0.958836 0.0989371 -0.00827645)
(0.933715 0.182495 0.00611735)
(1.01087 0.0418497 0.0200233)
(1.0087 -0.0985322 0.0176503)
(1.18859 0.106558 -0.0116635)
(0.978162 0.0682655 -0.00483068)
(0.972436 -0.0972002 0.0106177)
(1.01269 0.0907366 -0.012211)
(1.27975 -0.232421 -0.015358)
(1.3226 -0.389392 0.0204336)
(1.62112 -0.142401 0.0276594)
(1.47923 0.0014434 -0.0173324)
(1.31047 0.20172 -0.0297724)
(1.29921 0.279787 0.0176175)
(1.08148 0.155798 0.0360961)
(1.34047 0.37121 0.0401686)
(1.34541 0.354286 -0.0669563)
(1.03849 0.0735533 -0.0440741)
(0.813838 0.074563 0.0568921)
(0.958628 0.14116 0.0451048)
(1.27537 0.247041 0.0138413)
(1.04073 0.166195 -0.0108931)
(1.03593 0.177953 0.00348279)
(0.967913 0.00538785 0.0103391)
(0.955257 -0.059634 0.0134193)
(1.13365 0.0546642 0.0158477)
(1.00188 0.0428721 0.00602443)
(0.87806 -0.431147 -0.0403821)
(1.50593 -0.691451 -0.0279763)
(1.38248 -0.434354 0.120262)
(1.67318 -0.183432 0.125636)
(1.791 0.0375048 -0.0213659)
(1.18109 0.0706409 0.0126557)
(1.47521 0.234147 0.0142368)
(1.58597 0.524432 -0.0630588)
(1.33036 0.367444 -0.0522303)
(0.923933 0.0558051 0.0077256)
(0.764874 0.275934 0.0685738)
(0.913255 0.463564 0.00502512)
(0.912577 0.193059 -0.0155314)
(0.956155 0.270469 -0.0068497)
(0.784427 0.384302 -0.00923121)
(0.830214 0.283109 -0.030184)
(0.913383 0.137963 -0.0128865)
(1.06004 0.0757429 -0.00674337)
(1.07398 0.038418 -0.00641036)
(1.07144 0.117139 -0.0339415)
(0.868495 -0.665299 0.0358945)
(1.53556 -1.04861 0.150872)
(1.70295 -0.593989 -0.00323815)
(1.85317 0.16019 -0.0985732)
(1.74517 0.12886 0.0123138)
(1.67649 0.428092 0.0954824)
(1.16678 0.00410153 -0.124636)
(1.3458 0.0185956 0.00667142)
(1.66227 0.529127 0.104614)
(1.62242 0.814322 0.0246088)
(1.57938 0.656231 -0.0419368)
(1.50682 0.39098 -0.024596)
(1.27178 0.202484 -0.0431516)
(0.891445 0.351949 -0.028569)
(0.645302 0.25736 -0.031865)
(0.702559 -0.116629 -0.0381567)
(0.896761 -0.267157 -0.0375352)
(1.24334 -0.119389 -0.0406354)
(1.18227 0.0624238 -0.0180467)
(1.30035 -0.0883832 0.0158201)
(0.723054 -1.02866 -0.0591204)