/*--------------------------------*- C++ -*----------------------------------*\
  =========                 |
  \\      /  F ield         | OpenFOAM: The Open Source CFD Toolbox
   \\    /   O peration     | Website:  https://openfoam.org
    \\  /    A nd           | Version:  8
     \\/     M anipulation  |
\*---------------------------------------------------------------------------*/
FoamFile
{
    version     2.0;
    format      ascii;
    class       surfaceScalarField;
    location    "20";
    object      phi;
}
// * * * * * * * * * * * * * * * * * * * * * * * * * * * * * * * * * * * * * //

dimensions      [0 3 -1 0 0 0 0];

internalField   nonuniform List<scalar> 
34404
(
0.0053426
-9.27377e-06
5.41068e-09
0.00537033
-2.77219e-05
-8.65252e-09
0.00541577
-4.54256e-05
-1.22677e-08
0.00547754
-6.17615e-05
-6.29807e-09
0.00555377
-7.62288e-05
-2.84295e-09
0.00564219
-8.84159e-05
-2.3763e-09
0.00574022
-9.80261e-05
-1.24297e-09
0.00584512
-0.000104902
3.54543e-10
0.00595416
-0.000109045
2.66777e-09
0.00606477
-0.000110611
4.50692e-09
0.00617465
-0.000109892
5.78467e-09
0.00628193
-0.000107277
6.38917e-09
0.00638512
-0.000103202
6.28651e-09
0.00648321
-9.80892e-05
5.64297e-09
0.00657551
-9.2307e-05
4.69793e-09
0.00666165
-8.61479e-05
3.7464e-09
0.00674148
-7.98286e-05
2.90574e-09
0.00681498
-7.34999e-05
2.27254e-09
0.00688224
-6.72659e-05
1.74905e-09
0.00694343
-6.11924e-05
1.39625e-09
0.00699875
-5.53216e-05
1.06103e-09
0.00704842
-4.96729e-05
8.92511e-10
0.00709268
-4.42573e-05
6.65429e-10
0.00713175
-3.90722e-05
6.44188e-10
0.00716587
-3.41171e-05
4.52568e-10
0.00719525
-2.93793e-05
5.38139e-10
0.0072201
-2.48554e-05
2.94531e-10
0.00724063
-2.05272e-05
5.10476e-10
0.00725702
-1.63933e-05
1.56411e-10
0.00726945
-1.24308e-05
5.58529e-10
0.0072781
-8.64407e-06
-6.9413e-12
0.0072831
-5.00493e-06
6.99086e-10
0.00728463
-1.52726e-06
-2.51842e-10
0.0072828
1.82338e-06
9.84093e-10
0.00727779
5.01756e-06
-5.89926e-10
0.00726968
8.10509e-06
1.54404e-09
0.00725865
1.10313e-05
-1.17824e-09
0.00724478
1.3867e-05
2.46266e-09
0.00722826
1.65206e-05
-2.26118e-09
0.00720916
1.90995e-05
3.97995e-09
0.00718771
2.1455e-05
-4.21237e-09
0.00716394
2.37559e-05
6.60647e-09
0.00713819
2.57655e-05
-7.63686e-09
0.00711042
2.77549e-05
1.10618e-08
0.00708108
2.93507e-05
-1.35829e-08
0.00705007
3.09924e-05
1.8466e-08
0.007018
3.20952e-05
-2.28581e-08
0.0069846
3.33671e-05
2.87664e-08
0.00695073
3.39029e-05
-3.21633e-08
3.47954e-05
2.46925e-08
0.00534283
-1.87683e-05
5.12648e-09
0.00537116
-5.60516e-05
-9.02973e-09
0.0054176
-9.1849e-05
-1.23715e-08
0.00548073
-0.000124886
-6.44581e-09
0.00555862
-0.000154117
-3.17417e-09
0.00564891
-0.000178703
-2.56979e-09
0.00574893
-0.000198042
-1.27947e-09
0.00585584
-0.000211812
4.45256e-10
0.0059668
-0.000220014
2.91984e-09
0.00607916
-0.000222974
4.85988e-09
0.00619057
-0.000221303
6.17366e-09
0.0062991
-0.000215811
6.73319e-09
0.00640329
-0.000207401
6.52177e-09
0.00650213
-0.000196942
5.75912e-09
0.00659501
-0.000185185
4.73281e-09
0.00668157
-0.000172717
3.75752e-09
0.00676171
-0.000159966
2.93782e-09
0.00683543
-0.000147226
2.34211e-09
0.00690286
-0.0001347
1.84954e-09
0.00696418
-0.000122512
1.51752e-09
0.0070196
-0.000110743
1.19861e-09
0.00706935
-9.94265e-05
1.04531e-09
0.00711368
-8.85823e-05
8.30696e-10
0.00715281
-7.82035e-05
8.13215e-10
0.00718698
-6.82867e-05
6.19823e-10
0.0072164
-5.88068e-05
7.00143e-10
0.0072413
-4.9755e-05
4.52533e-10
0.00726187
-4.10962e-05
6.60245e-10
0.0072783
-3.28247e-05
3.0411e-10
0.00729077
-2.48978e-05
6.94344e-10
0.00729944
-1.73198e-05
1.20921e-10
0.00730448
-1.00395e-05
8.12287e-10
0.00730603
-3.07679e-06
-1.50167e-10
0.00730422
3.62676e-06
1.05957e-09
0.00729922
1.00256e-05
-4.83802e-10
0.00729112
1.62032e-05
1.62576e-09
0.00728008
2.2072e-05
-1.05742e-09
0.0072662
2.77449e-05
2.51699e-09
0.00724964
3.30765e-05
-2.1377e-09
0.00723051
3.82319e-05
3.9985e-09
0.00720899
4.29792e-05
-4.04453e-09
0.00718517
4.75698e-05
6.56363e-09
0.0071593
5.16422e-05
-7.41865e-09
0.00713145
5.55913e-05
1.09139e-08
0.00710195
5.88611e-05
-1.32369e-08
0.00707084
6.20825e-05
1.81603e-08
0.00703856
6.44012e-05
-2.23513e-08
0.00700507
6.68323e-05
2.82247e-08
0.00697094
6.8058e-05
-3.1573e-08
6.97134e-05
2.43393e-08
0.00534325
-2.86842e-05
5.19851e-09
0.00537286
-8.56578e-05
-9.60165e-09
0.00542138
-0.000140352
-1.29753e-08
0.00548731
-0.000190809
-6.83832e-09
0.0055686
-0.000235402
-3.45198e-09
0.00566272
-0.000272825
-2.70191e-09
0.00576682
-0.000302136
-1.12414e-09
0.00587783
-0.000322829
9.5061e-10
0.00599273
-0.000334911
3.73998e-09
0.00610865
-0.000338904
5.94801e-09
0.00622313
-0.000335791
7.35897e-09
0.00633419
-0.000326875
7.79839e-09
0.00644037
-0.000313595
7.29356e-09
0.00654074
-0.000297318
6.18462e-09
0.00663476
-0.000279202
4.88077e-09
0.00672216
-0.000260129
3.76105e-09
0.00680292
-0.000240726
2.90833e-09
0.00687711
-0.000221416
2.33459e-09
0.00694489
-0.000202484
1.86525e-09
0.00700648
-0.000184104
1.55296e-09
0.00706212
-0.000166382
1.24793e-09
0.00711205
-0.000149361
1.11649e-09
0.00715653
-0.000133063
9.15279e-10
0.0071958
-0.000117473
9.13577e-10
0.00723009
-0.000102581
7.16763e-10
0.00725964
-8.83488e-05
8.02194e-10
0.00728464
-7.47609e-05
5.47032e-10
0.00730531
-6.17638e-05
7.63851e-10
0.00732183
-4.93476e-05
3.90462e-10
0.00733438
-3.74486e-05
7.90227e-10
0.00734313
-2.60714e-05
1.91792e-10
0.00734823
-1.514e-05
8.93493e-10
0.00734984
-4.68136e-06
-1.13616e-10
0.00734807
5.38862e-06
1.12789e-09
0.00734309
1.50064e-05
-4.42893e-10
0.007335
2.42929e-05
1.7229e-09
0.00732395
3.31234e-05
-1.01881e-09
0.00731004
4.16586e-05
2.62423e-09
0.00729342
4.96925e-05
-2.11242e-09
0.00727419
5.74569e-05
4.13006e-09
0.00725255
6.46245e-05
-4.03169e-09
0.00722857
7.15443e-05
6.71231e-09
0.00720251
7.77091e-05
-7.42309e-09
0.00717443
8.36642e-05
1.10925e-08
0.00714467
8.86315e-05
-1.32543e-08
0.00711325
9.3484e-05
1.83342e-08
0.00708065
9.70241e-05
-2.23821e-08
0.00704678
0.000100675
2.83469e-08
0.00701231
0.000102558
-3.15525e-08
0.000105039
2.43495e-08
0.00534391
-3.9259e-05
5.44704e-09
0.00537549
-0.000117234
-1.04422e-08
0.00542723
-0.000192072
-1.40628e-08
0.0054975
-0.00026107
-7.52202e-09
0.00558406
-0.000321962
-3.84426e-09
0.00568415
-0.00037291
-2.87589e-09
0.00579459
-0.000412578
-9.41477e-10
0.005912
-0.000440242
1.76492e-09
0.006033
-0.000455914
5.13929e-09
0.00615445
-0.000460359
7.81687e-09
0.00627367
-0.000455022
9.38632e-09
0.0063886
-0.000441816
9.59264e-09
0.00649782
-0.000422829
8.55393e-09
0.00660051
-0.000400009
6.83251e-09
0.00669625
-0.000374953
5.05502e-09
0.00678495
-0.000348834
3.70712e-09
0.00686668
-0.000322455
2.81673e-09
0.00694161
-0.000296342
2.28265e-09
0.00700996
-0.000270841
1.84353e-09
0.00707201
-0.000246155
1.55915e-09
0.00712803
-0.000222404
1.28109e-09
0.00717829
-0.000199625
1.18969e-09
0.00722306
-0.000177834
1.00785e-09
0.00726259
-0.000157002
1.02525e-09
0.00729712
-0.000137113
8.19451e-10
0.00732688
-0.00011811
9.17427e-10
0.00735209
-9.99692e-05
6.45516e-10
0.00737294
-8.26179e-05
8.77781e-10
0.00738964
-6.60419e-05
4.7265e-10
0.00740234
-5.01542e-05
8.96495e-10
0.00741123
-3.49608e-05
2.50704e-10
0.00741645
-2.03583e-05
9.85681e-10
0.00741815
-6.38241e-06
-9.13997e-11
0.00741646
7.07959e-06
1.21978e-09
0.00741152
1.99429e-05
-4.27293e-10
0.00740344
3.23718e-05
1.8581e-09
0.00739237
4.41981e-05
-1.02067e-09
0.00737838
5.56382e-05
2.79244e-09
0.00736166
6.64164e-05
-2.15001e-09
0.00734227
7.68429e-05
4.35851e-09
0.00732042
8.64796e-05
-4.11547e-09
0.00729617
9.57917e-05
7.02256e-09
0.00726978
0.000104101
-7.57979e-09
0.0072413
0.000112131
1.15022e-08
0.00721111
0.000118843
-1.35133e-08
0.00717917
0.000125396
1.88446e-08
0.00714603
0.00013019
-2.27433e-08
0.00711156
0.000135119
2.88723e-08
0.00707648
0.00013767
-3.1911e-08
0.000141007
2.44564e-08
0.00534482
-5.07512e-05
5.77173e-09
0.00537915
-0.000151545
-1.16505e-08
0.00543536
-0.00024827
-1.57088e-08
0.00551169
-0.000337388
-8.63852e-09
0.00560563
-0.000415901
-4.56695e-09
0.00571408
-0.00048136
-3.25998e-09
0.00583345
-0.000531942
-8.02903e-10
0.00595985
-0.000566644
2.94542e-09
0.00608941
-0.000585483
7.30041e-09
0.00621857
-0.00058953
1.07583e-08
0.00634436
-0.000580827
1.25619e-08
0.00646461
-0.000562081
1.2328e-08
0.00657798
-0.000536206
1.03798e-08
0.0066838
-0.00050584
7.69067e-09
0.00678191
-0.000473065
5.23059e-09
0.0068724
-0.000439323
3.619e-09
0.00695549
-0.000405552
2.74433e-09
0.00703148
-0.000372339
2.29958e-09
0.0071007
-0.000340061
1.90788e-09
0.00716347
-0.000308927
1.65376e-09
0.00722011
-0.000279046
1.40666e-09
0.00727092
-0.000250436
1.36342e-09
0.00731619
-0.000223097
1.2028e-09
0.00735616
-0.00019698
1.24102e-09
0.0073911
-0.000172056
1.0173e-09
0.00742124
-0.000148247
1.12442e-09
0.00744679
-0.000125522
8.19599e-10
0.00746796
-0.000103785
1.06652e-09
0.00748493
-8.30183e-05
6.12961e-10
0.00749789
-6.3109e-05
1.06571e-09
0.00750699
-4.40653e-05
3.48436e-10
0.00751239
-2.57541e-05
1.12799e-09
0.00751423
-8.22077e-06
-5.09947e-11
0.00751263
8.67827e-06
1.35145e-09
0.00750773
2.48342e-05
-4.05687e-10
0.00749964
4.04602e-05
2.04334e-09
0.0074885
5.53387e-05
-1.03071e-09
0.00747439
6.97499e-05
3.02761e-09
0.00745747
8.33388e-05
-2.20846e-09
0.0074378
9.65067e-05
4.67434e-09
0.0074156
0.000108688
-4.24756e-09
0.0073909
0.000120483
7.4535e-09
0.00736399
0.000131016
-7.81537e-09
0.00733489
0.00014122
1.20848e-08
0.00730399
0.000149752
-1.38901e-08
0.00727127
0.0001581
1.95792e-08
0.00723728
0.000164204
-2.32742e-08
0.00720189
0.000170485
2.96286e-08
0.00716586
0.000173729
-3.24799e-08
0.000177952
2.46287e-08
0.00534603
-6.34528e-05
6.1948e-09
0.00538396
-0.000189457
-1.3163e-08
0.00544608
-0.000310379
-1.79093e-08
0.00553043
-0.000421724
-1.0192e-08
0.00563418
-0.00051965
-5.65902e-09
0.0057538
-0.000600974
-3.90485e-09
0.0058851
-0.00066324
-6.4826e-10
0.00602353
-0.000705081
4.68027e-09
0.00616453
-0.000726496
1.06132e-08
0.00630393
-0.000728944
1.53586e-08
0.00643836
-0.000715272
1.74893e-08
0.00656553
-0.000689264
1.64132e-08
0.00668422
-0.000654908
1.28809e-08
0.00679407
-0.000615699
8.61837e-09
0.00689522
-0.000574228
5.16232e-09
0.00698806
-0.000532161
3.36624e-09
0.007073
-0.000490499
2.65651e-09
0.0071505
-0.000449836
2.36849e-09
0.00722097
-0.000410538
2.02629e-09
0.00728483
-0.000372785
1.79835e-09
0.00734243
-0.00033665
1.58611e-09
0.0073941
-0.000302113
1.60094e-09
0.00744015
-0.000269145
1.45305e-09
0.00748084
-0.000237672
1.50123e-09
0.00751643
-0.000207648
1.24065e-09
0.00754716
-0.000178972
1.34938e-09
0.00757324
-0.000151601
9.96612e-10
0.00759487
-0.000125417
1.25604e-09
0.00761224
-0.000100397
7.33977e-10
0.00762554
-7.6403e-05
1.21971e-09
0.00763492
-5.34443e-05
4.1097e-10
0.00764052
-3.13562e-05
1.2529e-09
0.00764249
-1.0194e-05
-5.67314e-11
0.00764095
1.02177e-05
1.46538e-09
0.00763604
2.97452e-05
-4.43971e-10
0.00762784
4.86535e-05
2.20732e-09
0.00761651
6.66725e-05
-1.12378e-09
0.00760211
8.41516e-05
3.25465e-09
0.0075848
0.000100651
-2.36001e-09
0.00756463
0.00011667
5.01294e-09
0.00754181
0.000131506
-4.49069e-09
0.00751638
0.000145906
7.9488e-09
0.00748863
0.000158779
-8.19553e-09
0.00745855
0.000171283
1.27908e-08
0.00742658
0.000181744
-1.44423e-08
0.00739265
0.000192006
2.05326e-08
0.00735737
0.000199507
-2.40217e-08
0.0073206
0.000207227
3.06495e-08
0.00728315
0.00021121
-3.33122e-08
0.000216344
2.49154e-08
0.00534758
-7.77015e-05
6.74877e-09
0.00539009
-0.000231954
-1.48842e-08
0.00545979
-0.000380057
-2.07542e-08
0.00555444
-0.000516367
-1.22421e-08
0.00567088
-0.00063608
-7.2661e-09
0.00580501
-0.000735099
-4.94039e-09
0.00595188
-0.000810111
-4.50356e-10
0.00610604
-0.000859244
7.17179e-09
0.00626196
-0.000882428
1.55692e-08
0.0064146
-0.000881607
2.2414e-08
0.00656005
-0.000860754
2.50365e-08
0.00669591
-0.000825147
2.24937e-08
0.00682122
-0.000780231
1.62406e-08
0.00693606
-0.00073055
9.16352e-09
0.00704105
-0.000679219
4.1038e-09
0.0071369
-0.000628019
2.50451e-09
0.00722431
-0.000577902
2.44359e-09
0.00730386
-0.000529393
2.40356e-09
0.00737612
-0.000482797
2.11081e-09
0.00744155
-0.000438222
1.90551e-09
0.00750057
-0.000395673
1.73344e-09
0.00755353
-0.000355069
1.80287e-09
0.00760073
-0.000316347
1.63915e-09
0.00764245
-0.000279396
1.6671e-09
0.00767896
-0.000244153
1.3423e-09
0.00771047
-0.000210492
1.44154e-09
0.00773723
-0.000178359
1.02164e-09
0.00775942
-0.000147612
1.28748e-09
0.00777725
-0.000118222
6.80016e-10
0.00779087
-9.00282e-05
1.2072e-09
0.00780047
-6.30383e-05
2.97322e-10
0.00780617
-3.70579e-05
1.23357e-09
0.00780812
-1.21485e-05
-2.14308e-10
0.00780644
1.1895e-05
1.47545e-09
0.00780127
3.49179e-05
-6.6066e-10
0.00779269
5.72313e-05
2.2101e-09
0.00778084
7.85192e-05
-1.43881e-09
0.0077658
9.91965e-05
3.33275e-09
0.00774771
0.000118744
-2.74875e-09
0.00772662
0.000137755
5.2326e-09
0.00770273
0.000155393
-4.98787e-09
0.00767608
0.000172547
8.38445e-09
0.00764696
0.000187912
-8.84208e-09
0.00761536
0.000202868
1.35371e-08
0.00758172
0.000215405
-1.52935e-08
0.00754598
0.000227717
2.16532e-08
0.00750878
0.000236734
-2.51024e-08
0.00746999
0.000245984
3.19757e-08
0.00743046
0.000250774
-3.45231e-08
0.000256824
2.53788e-08
0.00534952
-9.38919e-05
7.4658e-09
0.00539775
-0.000280167
-1.66308e-08
0.00547696
-0.000459247
-2.44428e-08
0.00558463
-0.000624019
-1.48637e-08
0.00571721
-0.000768648
-9.70383e-09
0.00586995
-0.000887839
-6.5223e-09
0.00603691
-0.000977065
1.19532e-11
0.0062114
-0.00103375
1.09481e-08
0.00638655
-0.0010576
2.31217e-08
0.00655609
-0.00105118
3.30671e-08
0.00671539
-0.0010201
3.61188e-08
0.00686197
-0.000971756
3.106e-08
0.00699532
-0.000913599
2.03825e-08
0.00711623
-0.000851469
8.39857e-09
0.00722595
-0.000788937
2.89932e-09
0.00732563
-0.000727704
1.27963e-09
0.00741623
-0.000668505
1.85577e-09
0.00749854
-0.000611704
2.1014e-09
0.00757322
-0.000557479
1.80973e-09
0.00764081
-0.000505817
1.6352e-09
0.00770175
-0.000456615
1.53085e-09
0.0077564
-0.000409718
1.64911e-09
0.00780507
-0.000365015
1.42208e-09
0.00784804
-0.000322367
1.38313e-09
0.00788557
-0.000281685
9.62468e-10
0.0079179
-0.000242823
1.03566e-09
0.00794525
-0.000205712
5.31306e-10
0.00796783
-0.000170197
8.03551e-10
0.00798585
-0.000136236
1.11665e-10
0.00799947
-0.000103651
7.00839e-10
0.00800888
-7.24425e-05
-2.86662e-10
0.00801421
-4.23936e-05
8.02524e-10
0.00801562
-1.3562e-05
-7.23578e-10
0.00801324
1.42804e-05
1.17887e-09
0.00800719
4.09696e-05
-1.30862e-09
0.00799757
6.68426e-05
1.76678e-09
0.00798453
9.1563e-05
-2.23723e-09
0.00796814
0.00011559
2.99675e-09
0.00794853
0.000138353
-3.61907e-09
0.00792577
0.000160508
5.07433e-09
0.00790005
0.000181122
-5.96821e-09
0.0078714
0.000201185
8.51913e-09
0.0078401
0.000219223
-9.96246e-09
0.00780617
0.00023678
1.41167e-08
0.00777002
0.000251573
-1.6606e-08
0.00773166
0.00026606
2.28103e-08
0.00769167
0.000276748
-2.66447e-08
0.00765002
0.000287595
3.35612e-08
0.00760755
0.000293284
-3.62279e-08
0.000300204
2.60576e-08
0.00535192
-0.000112488
8.39764e-09
0.00540716
-0.00033538
-1.8024e-08
0.00549819
-0.000550248
-2.93045e-08
0.00562207
-0.000747888
-1.80747e-08
0.00577502
-0.000921584
-1.37078e-08
0.00595149
-0.0010643
-9.02699e-09
0.00614424
-0.00116981
7.23406e-10
0.00634499
-0.00123451
1.70913e-08
0.00654488
-0.00125752
3.57012e-08
0.00673587
-0.00124223
4.98995e-08
0.00691239
-0.00119666
5.19553e-08
0.00707195
-0.00113136
4.1479e-08
0.00721488
-0.00105655
2.18089e-08
0.00734302
-0.000979619
6.72982e-09
0.00745847
-0.000904384
5.00451e-10
0.00756287
-0.000832107
-8.21964e-10
0.00765746
-0.000763093
2.77421e-10
0.0077432
-0.000697441
7.9191e-10
0.00782085
-0.00063513
3.22749e-10
0.00789099
-0.000575963
8.74271e-11
0.00795408
-0.000519696
6.49946e-11
0.00801045
-0.000466095
2.36318e-10
0.00806044
-0.000415003
-5.40202e-11
0.00810433
-0.000366256
-1.35777e-10
0.00814239
-0.000319744
-6.98997e-10
0.00817488
-0.000275311
-6.40784e-10
0.00820204
-0.000232871
-1.21201e-09
0.0082241
-0.000192262
-8.97542e-10
0.00824129
-0.000153425
-1.62462e-09
0.00825382
-0.000116178
-9.03983e-10
0.00826188
-8.04951e-05
-1.86353e-09
0.00826564
-4.61575e-05
-4.53292e-10
0.00826527
-1.31939e-05
-1.95967e-09
0.00826092
1.86364e-05
6.27194e-11
0.00825272
4.91731e-05
-2.94607e-09
0.00824081
7.87492e-05
3.31029e-10
0.00822532
0.00010706
-3.99654e-09
0.00820635
0.000134561
1.75237e-09
0.00818401
0.000160691
-5.38996e-09
0.00815842
0.000186101
4.09053e-09
0.0081297
0.000209849
-7.78117e-09
0.00809795
0.000232926
7.94985e-09
0.00806337
0.00025381
-1.18345e-08
0.00802607
0.000274066
1.41645e-08
0.00798636
0.000291298
-1.85889e-08
0.00794437
0.000308033
2.36898e-08
0.00790058
0.000320566
-2.87711e-08
0.00785513
0.00033301
3.52129e-08
0.00780874
0.000339717
-3.84661e-08
0.000347362
2.69353e-08
0.00535487
-0.000134034
9.651e-09
0.00541854
-0.000399034
-1.83715e-08
0.00552412
-0.000655793
-3.57764e-08
0.00566802
-0.000891764
-2.1609e-08
0.00584659
-0.00110013
-2.07127e-08
0.00605324
-0.00127093
-1.36078e-08
0.00627914
-0.00139572
7.94004e-10
0.00651393
-0.00146932
2.59558e-08
0.00674575
-0.0014894
5.72494e-08
0.00696394
-0.0014605
7.87447e-08
0.00716163
-0.00139443
7.63273e-08
0.00733663
-0.00130641
5.24331e-08
0.00749062
-0.00121056
1.77153e-08
0.00762706
-0.00111605
-9.61642e-11
0.00774906
-0.00102637
-9.14903e-09
0.00785876
-0.000941809
-5.84584e-09
0.00795765
-0.000861977
-2.55158e-09
0.00804684
-0.000786626
-2.37375e-09
0.00812717
-0.000715457
-3.89752e-09
0.00819924
-0.000648034
-4.2033e-09
0.0082635
-0.00058395
-4.09907e-09
0.00832032
-0.000522908
-3.92202e-09
0.00837004
-0.000464721
-4.36755e-09
0.00841301
-0.000409218
-4.52478e-09
0.00844954
-0.000356269
-5.04489e-09
0.00847995
-0.000305721
-4.86272e-09
0.00850456
-0.000257469
-5.33979e-09
0.00852365
-0.000211356
-4.81333e-09
0.00853753
-0.000167291
-5.37332e-09
0.00854646
-0.000125102
-4.30769e-09
0.00855067
-8.47098e-05
-4.94072e-09
0.00855044
-4.59167e-05
-3.04746e-09
0.00854593
-8.6835e-06
-4.14543e-09
0.00853732
2.72482e-05
-2.53718e-09
0.0085248
6.17017e-05
-6.18651e-09
0.00850855
9.50007e-05
-2.65374e-09
0.00848868
0.000126942
-7.18044e-09
0.00846534
0.0001579
-8.96253e-10
0.00843861
0.000187426
-8.46332e-09
0.00840865
0.000216056
1.79029e-09
0.00837553
0.000242986
-1.07506e-08
0.00833941
0.000269039
6.18931e-09
0.00830038
0.000292856
-1.4712e-08
0.00825866
0.000315772
1.31794e-08
0.0082144
0.000335578
-2.13898e-08
0.0081679
0.000354507
2.37984e-08
0.00811945
0.00036905
-3.14869e-08
0.00806945
0.000382978
3.65139e-08
0.00801837
0.000390837
-4.10987e-08
0.000398938
2.78816e-08
0.00535843
-0.000159138
1.14629e-08
0.00543211
-0.000472694
-1.6614e-08
0.00555547
-0.000779109
-4.4249e-08
0.00572379
-0.00106007
-2.44754e-08
0.00593458
-0.00131089
-3.27177e-08
0.00617964
-0.00151597
-2.10358e-08
0.00644842
-0.0016645
-1.88224e-09
0.00672758
-0.00174851
3.5213e-08
0.00700073
-0.00176264
8.92677e-08
0.00725338
-0.00171328
1.25307e-07
0.00747681
-0.00161797
1.16262e-07
0.00766943
-0.00149909
6.02608e-08
0.00783528
-0.00137643
1.2376e-08
0.00798008
-0.00126082
-2.58081e-08
0.00810814
-0.0011544
-3.11937e-08
0.00822202
-0.00105567
-1.87484e-08
0.00832342
-0.000963369
-1.10761e-08
0.00841365
-0.000876844
-1.24371e-08
0.00849365
-0.000795436
-1.39429e-08
0.00856405
-0.000718423
-1.39805e-08
0.00862537
-0.000645261
-1.35035e-08
0.00867811
-0.000575631
-1.31055e-08
0.00872274
-0.000509336
-1.33592e-08
0.00875975
-0.000446213
-1.31357e-08
0.0087896
-0.000386115
-1.31733e-08
0.00881279
-0.000328893
-1.2366e-08
0.00882975
-0.000274413
-1.22414e-08
0.00884092
-0.000222519
-1.09668e-08
0.00884671
-0.000173069
-1.0817e-08
0.00884751
-0.000125894
-8.7777e-09
0.00884365
-8.08416e-05
-8.52073e-09
0.00883546
-3.77208e-05
-5.62449e-09
0.00882318
3.60314e-06
-6.38372e-09
0.00880701
4.34236e-05
-5.82111e-09
0.0087872
8.15185e-05
-1.00268e-08
0.00876399
0.000118225
-6.33042e-09
0.00873743
0.000153511
-1.10107e-08
0.00870776
0.000187576
-4.44087e-09
0.00867496
0.000220229
-1.22287e-08
0.00863929
0.000251735
-1.45434e-09
0.00860065
0.000281638
-1.43748e-08
0.00855933
0.000310352
3.36815e-09
0.00851522
0.000336988
-1.81678e-08
0.00846869
0.000362293
1.10371e-08
0.00841961
0.000384676
-2.4612e-08
0.00836854
0.000405558
2.27288e-08
0.0083154
0.000422223
-3.43644e-08
0.00826096
0.000437381
3.68612e-08
0.00820531
0.000446534
-4.36004e-08
0.000454714
2.85966e-08
0.00536261
-0.000188426
1.43976e-08
0.00544795
-0.000558025
-1.13131e-08
0.0055928
-0.000923904
-5.4751e-08
0.00579054
-0.00125778
-2.50515e-08
0.00604197
-0.00156227
-5.21279e-08
0.00633597
-0.00180994
-2.84429e-08
0.00666079
-0.00198931
-7.63548e-09
0.00699819
-0.00208595
4.6406e-08
0.00732479
-0.00208937
1.2964e-07
0.00762072
-0.00200939
1.81983e-07
0.00787426
-0.00187168
1.66523e-07
0.00808486
-0.00170977
7.19075e-08
0.0082604
-0.00155196
-5.52494e-09
0.00840982
-0.00141017
-7.02288e-08
0.00853875
-0.00128326
-7.02827e-08
0.00865023
-0.00116711
-4.69676e-08
0.00874641
-0.00105951
-3.47965e-08
0.00882898
-0.000959386
-3.35966e-08
0.00889915
-0.000865573
-3.32047e-08
0.00895781
-0.00077705
-3.07518e-08
0.00900577
-0.000693197
-2.8326e-08
0.00904388
-0.000613715
-2.65676e-08
0.00907297
-0.000538397
-2.55321e-08
0.00909385
-0.000467069
-2.38559e-08
0.0091073
-0.000399539
-2.23587e-08
0.00911406
-0.000335636
-2.00117e-08
0.00911482
-0.000275152
-1.83712e-08
0.00911022
-0.000217903
-1.55635e-08
0.00910081
-0.000163652
-1.38572e-08
0.00908714
-0.000112211
-1.01713e-08
0.00906962
-6.33109e-05
-8.50226e-09
0.00904871
-1.68068e-05
-4.84854e-09
0.00902444
2.78853e-05
-8.94569e-09
0.00899735
7.05152e-05
-8.44787e-09
0.00896754
0.000111344
-1.21773e-08
0.00893526
0.000150509
-8.36916e-09
0.00890053
0.000188254
-1.31288e-08
0.00886359
0.000224525
-6.68658e-09
0.00882431
0.000259523
-1.44494e-08
0.00878296
0.000293094
-3.77994e-09
0.00873927
0.000325341
-1.65888e-08
0.0086936
0.000356023
9.97584e-10
0.00864556
0.000385046
-2.03396e-08
0.00859567
0.000412178
8.71081e-09
0.00854344
0.000436933
-2.66089e-08
0.00848963
0.000459341
2.07471e-08
0.00843375
0.000478143
-3.59555e-08
0.00837689
0.000494201
3.57766e-08
0.00831869
0.000504784
-4.47012e-08
0.000512707
2.86099e-08
0.00536727
-0.00022238
1.9795e-08
0.00546609
-0.000656841
-2.3266e-09
0.00563631
-0.00109406
-6.59665e-08
0.00586891
-0.00149035
-2.35997e-08
0.00617177
-0.00186504
-8.37162e-08
0.00652794
-0.00216608
-2.75144e-08
0.00692687
-0.00238824
-1.31432e-08
0.00734189
-0.00250105
7.94591e-08
0.00773781
-0.00248549
1.91292e-07
0.00808612
-0.00235792
2.27162e-07
0.00836982
-0.00215556
1.73838e-07
0.00859087
-0.00193086
4.588e-08
0.00876413
-0.00172515
-7.05413e-08
0.00890312
-0.00154903
-1.37532e-07
0.00901534
-0.00139536
-1.19504e-07
0.00910489
-0.00125657
-8.28394e-08
0.00917532
-0.00112988
-6.71536e-08
0.00922921
-0.00101321
-6.30623e-08
0.00926848
-0.000904778
-5.69448e-08
0.00929471
-0.000803237
-4.79978e-08
0.00930947
-0.000707919
-4.07542e-08
0.00931429
-0.000618501
-3.56111e-08
0.0093106
-0.000534671
-3.17393e-08
0.00929971
-0.000456149
-2.75331e-08
0.00928279
-0.000382601
-2.38487e-08
0.00926091
-0.000313738
-1.96568e-08
0.00923498
-0.000249199
-1.63689e-08
0.00920577
-0.000188682
-1.2007e-08
0.00917394
-0.000131818
-8.81264e-09
0.00914008
-7.83444e-05
-3.70724e-09
0.00910463
-2.7853e-05
-2.46395e-09
0.00906774
2.00794e-05
-3.209e-09
0.00902968
6.59551e-05
-9.28176e-09
0.00899083
0.000109377
-7.98894e-09
0.00895112
0.00015106
-1.03927e-08
0.00891074
0.000190894
-6.49096e-09
0.00886957
0.000229443
-1.09752e-08
0.00882773
0.00026637
-5.05758e-09
0.00878493
0.000302331
-1.23611e-08
0.00874135
0.000336672
-2.64009e-09
0.00869654
0.000370175
-1.4651e-08
0.00865077
0.000401792
1.31652e-09
0.00860339
0.000432437
-1.85517e-08
0.00855493
0.000460636
7.93643e-09
0.00850454
0.000487347
-2.47792e-08
0.00845306
0.0005108
1.87877e-08
0.00839957
0.000531662
-3.37597e-08
0.00834533
0.000548413
3.30873e-08
0.00828959
0.000560569
-4.22058e-08
0.000568264
2.73275e-08
0.00537205
-0.000261125
3.04488e-08
0.00548645
-0.000771245
7.25873e-09
0.00568508
-0.00129263
-7.21291e-08
0.00595887
-0.00176411
-2.78445e-08
0.00632617
-0.00223221
-1.38845e-07
0.00675985
-0.00259972
-3.6049e-08
0.00725696
-0.00288531
-3.22622e-08
0.00777771
-0.00302195
1.43101e-07
0.00826328
-0.00297138
3.14219e-07
0.00866572
-0.00276062
2.63007e-07
0.00896063
-0.00245053
7.38037e-08
0.00916084
-0.00213096
-1.18636e-07
0.00929456
-0.00185861
-2.67975e-07
0.00938272
-0.00163693
-2.50933e-07
0.00943591
-0.0014484
-1.4881e-07
0.0094615
-0.00128208
-7.81995e-08
0.00946547
-0.00113378
-7.35025e-08
0.00945246
-0.00100014
-6.87125e-08
0.00942565
-0.000877906
-5.62932e-08
0.00938789
-0.000765433
-4.07481e-08
0.00934182
-0.000661828
-2.93143e-08
0.0092898
-0.00056646
-2.16092e-08
0.00923381
-0.000478659
-1.59336e-08
0.00917549
-0.000397817
-1.07547e-08
0.00911617
-0.000323277
-6.84505e-09
0.00905691
-0.000254477
-3.08446e-09
0.0089985
-0.000190784
-5.92593e-10
0.00894151
-0.0001317
2.56814e-09
0.00888635
-7.66641e-05
4.61279e-09
0.00883344
-2.54352e-05
6.91911e-09
0.00878251
2.3066e-05
1.8094e-09
0.00873363
6.89638e-05
-2.58026e-09
0.00868705
0.000112547
-5.32549e-09
0.00864248
0.000153941
-1.32599e-09
0.00859973
0.000193815
-2.44369e-09
0.00855866
0.000231959
1.10322e-09
0.00851894
0.000269175
-2.82037e-09
0.00848041
0.00030489
2.0758e-09
0.00844263
0.000340123
-4.39112e-09
0.0084055
0.000373796
3.40189e-09
0.00836841
0.000407271
-7.03532e-09
0.00833141
0.000438785
5.62174e-09
0.00829369
0.000470167
-1.11716e-08
0.00825553
0.000498787
9.79288e-09
0.00821592
0.000526976
-1.72429e-08
0.00817547
0.000551235
1.74316e-08
0.00813307
0.000574084
-2.5542e-08
0.0080897
0.000591753
2.84368e-08
0.00804462
0.000605683
-3.36674e-08
0.000613954
2.39676e-08
0.0053765
-0.000304343
5.1259e-08
0.0055085
-0.000903259
1.83133e-08
0.00573598
-0.00152005
-5.6066e-08
0.00605935
-0.00208742
-5.48736e-08
0.00650404
-0.00267668
-2.28476e-07
0.00703364
-0.0031292
-1.16523e-07
0.0076643
-0.00351586
-1.12913e-07
0.00832516
-0.00368295
1.46061e-07
0.00891739
-0.00356408
4.67022e-07
0.00934112
-0.00318474
3.91011e-07
0.00957296
-0.00268241
3.96607e-08
0.00966594
-0.00222354
-4.00371e-07
0.00967439
-0.00186648
-5.74305e-07
0.00962775
-0.00158991
-3.87204e-07
0.00954416
-0.0013647
-1.12382e-07
0.00943728
-0.00117518
-2.09642e-08
0.00931688
-0.00101338
8.59897e-09
0.00918891
-0.00087219
1.39886e-08
0.00905811
-0.000747124
2.24017e-08
0.00892815
-0.000635506
3.04934e-08
0.00880204
-0.000535744
3.25943e-08
0.0086819
-0.00044636
3.19473e-08
0.00856917
-0.000365956
3.07032e-08
0.00846468
-0.000293356
2.95581e-08
0.00836882
-0.000227439
2.75641e-08
0.00828161
-0.000167298
2.54247e-08
0.00820282
-0.000112014
2.25577e-08
0.00813206
-6.09601e-05
2.04164e-08
0.00806901
-1.3635e-05
1.73529e-08
0.00801262
3.09485e-05
1.11411e-08
0.00796258
7.3098e-05
4.69768e-09
0.00791843
0.000113113
6.85358e-09
0.00787945
0.000151511
7.97051e-09
0.00784509
0.000188299
1.16207e-08
0.00781474
0.000224149
1.02925e-08
0.00778791
0.000258782
1.26423e-08
0.00776403
0.000293043
8.9925e-09
0.00774265
0.000326254
1.22244e-08
0.00772322
0.000359553
6.71177e-09
0.00770532
0.000391679
1.18427e-08
0.00768834
0.000424244
3.64733e-09
0.00767198
0.000455141
1.17908e-08
0.00765548
0.000486665
-3.19593e-10
0.00763869
0.000515561
1.26362e-08
0.00762073
0.000544941
-5.41101e-09
0.00760167
0.000570287
1.53652e-08
0.00758058
0.000595179
-1.16111e-08
0.00755771
0.000614603
2.03859e-08
0.00753278
0.000630633
-1.80085e-08
0.000641234
1.72766e-08
0.00538047
-0.000351566
8.87149e-08
0.00552948
-0.00105232
5.16179e-08
0.0057825
-0.00177308
1.08243e-08
0.00616572
-0.00247054
-1.08035e-07
0.00669262
-0.00320326
-3.19182e-07
0.00734493
-0.00378115
-3.55541e-07
0.00817443
-0.00434495
-4.05947e-07
0.00898354
-0.0044921
3.10401e-08
0.00963985
-0.00422076
3.75961e-07
0.00994614
-0.00349161
5.79035e-07
0.00993259
-0.00266914
2.82045e-07
0.00974358
-0.00203437
-1.65215e-07
0.0094756
-0.00159789
-6.07633e-07
0.00916723
-0.00128116
-3.822e-07
0.00885223
-0.00104968
-1.7936e-08
0.0085494
-0.000872501
1.49501e-07
0.00826816
-0.000732313
1.7267e-07
0.00801219
-0.000616375
1.58886e-07
0.00778306
-0.000518145
1.46535e-07
0.00758132
-0.000433891
1.26007e-07
0.00740611
-0.000360631
1.01559e-07
0.0072557
-0.000296029
8.08169e-08
0.0071279
-0.000238226
6.54508e-08
0.00702035
-0.000185861
5.43188e-08
0.00693069
-0.00013782
4.53205e-08
0.00685667
-9.33163e-05
3.77886e-08
0.00679624
-5.16184e-05
3.01824e-08
0.00674752
-1.22581e-05
2.29656e-08
0.00670886
2.50061e-05
1.65927e-08
0.00667905
6.07402e-05
1.64576e-08
0.00665687
9.52617e-05
1.66173e-08
0.0066413
0.000128667
1.92101e-08
0.00663142
0.000161366
1.93261e-08
0.00662644
0.000193265
2.049e-08
0.00662568
0.000224886
1.81838e-08
0.0066285
0.000255946
1.90343e-08
0.00663438
0.000287149
1.57542e-08
0.00664272
0.00031789
1.74486e-08
0.0066531
0.00034916
1.32532e-08
0.00666493
0.000379838
1.60072e-08
0.00667779
0.000411372
1.06658e-08
0.00669107
0.00044185
1.44582e-08
0.00670433
0.000473388
8.00441e-09
0.00671694
0.000502944
1.24793e-08
0.00672842
0.000533457
5.67507e-09
0.00673811
0.000560581
9.85387e-09
0.00674561
0.000587676
4.35448e-09
0.00675018
0.000610029
6.78144e-09
0.00675218
0.00062863
3.53357e-09
0.000643768
5.32849e-09
0.00538358
-0.000401955
1.4445e-07
0.00554164
-0.00121051
1.25789e-07
0.00581482
-0.00204638
1.26289e-07
0.00625665
-0.00291224
-1.29104e-07
0.00685883
-0.00380517
-2.71936e-07
0.00768436
-0.00460598
-7.0244e-07
0.00879658
-0.00545641
-7.52206e-07
0.00966308
-0.00535852
-8.01991e-08
0.010094
-0.00124959
-1.12372e-07
-0.00107632
-0.00124815
-0.00107751
0.00993248
-0.000914386
2.50556e-07
-0.000750982
-0.00091348
-0.000751495
0.00934749
-0.000569502
9.38603e-07
-0.000473191
-0.000569105
-0.000473294
0.00861493
-0.000336176
3.5234e-07
-0.000314694
-0.000336617
-0.000314683
0.00789844
-0.000881289
-1.04725e-07
0.00725831
-0.000640911
-1.15929e-07
0.00672755
-0.000519065
1.49321e-07
0.00630275
-0.000447862
1.57047e-07
0.0059707
-0.000400334
7.1208e-08
0.00571496
-0.000360685
5.09647e-08
0.00552053
-0.000323778
5.51517e-08
0.00537425
-0.000287658
5.18939e-08
0.00526531
-0.000251739
4.52487e-08
0.0051853
-0.000216056
3.93616e-08
0.00512782
-0.000180786
3.41792e-08
0.00508807