0 	2.23813e-07
1.57135 	-0.000507103
3.1427 	-0.000754737
4.71405 	-0.00319511
6.28539 	-0.00779459
7.85674 	-0.0107238
9.42809 	-0.00959211
10.9994 	-0.00534814
12.5708 	0.0186725
14.1421 	0.0556694
