/*--------------------------------*- C++ -*----------------------------------*\
  =========                 |
  \\      /  F ield         | OpenFOAM: The Open Source CFD Toolbox
   \\    /   O peration     | Website:  https://openfoam.org
    \\  /    A nd           | Version:  8
     \\/     M anipulation  |
\*---------------------------------------------------------------------------*/
FoamFile
{
    version     2.0;
    format      ascii;
    class       volVectorField;
    location    "0.59";
    object      U;
}
// * * * * * * * * * * * * * * * * * * * * * * * * * * * * * * * * * * * * * //

dimensions      [0 1 -1 0 0 0 0];

internalField   nonuniform List<vector> 
400
(
(0.024792 9.10964e-08 0)
(0.0247919 1.30134e-07 0)
(0.0247918 1.18587e-07 0)
(0.0247915 1.13014e-07 0)
(0.0247913 9.94354e-08 0)
(0.0247911 8.34361e-08 0)
(0.024791 6.60227e-08 0)
(0.0247909 4.8866e-08 0)
(0.0247908 3.32321e-08 0)
(0.0247907 1.90062e-08 0)
(0.0247907 5.03941e-09 0)
(0.0247907 -1.00962e-08 0)
(0.0247907 -2.75171e-08 0)
(0.0247908 -4.78016e-08 0)
(0.0247909 -7.07887e-08 0)
(0.0247911 -9.54811e-08 0)
(0.0247913 -1.18932e-07 0)
(0.0247916 -1.30715e-07 0)
(0.0247918 -1.11844e-07 0)
(0.024792 -1.71928e-08 0)
(0.0743801 6.30445e-08 0)
(0.0743801 2.79632e-07 0)
(0.0743798 3.46229e-07 0)
(0.0743795 3.71111e-07 0)
(0.0743792 3.51946e-07 0)
(0.0743789 3.11808e-07 0)
(0.0743786 2.60705e-07 0)
(0.0743784 2.05852e-07 0)
(0.0743782 1.5116e-07 0)
(0.0743781 9.68025e-08 0)
(0.074378 4.03923e-08 0)
(0.0743779 -2.13717e-08 0)
(0.074378 -9.12537e-08 0)
(0.0743781 -1.70452e-07 0)
(0.0743783 -2.57671e-07 0)
(0.0743785 -3.47866e-07 0)
(0.0743789 -4.29202e-07 0)
(0.0743793 -4.70056e-07 0)
(0.0743796 -4.18691e-07 0)
(0.0743799 -1.95087e-07 0)
(0.123983 3.75293e-09 0)
(0.123983 3.48515e-07 0)
(0.123983 5.64793e-07 0)
(0.123982 6.50891e-07 0)
(0.123982 6.50526e-07 0)
(0.123982 6.00145e-07 0)
(0.123982 5.21302e-07 0)
(0.123981 4.27944e-07 0)
(0.123981 3.27487e-07 0)
(0.123981 2.21889e-07 0)
(0.123981 1.09433e-07 0)
(0.123981 -1.33137e-08 0)
(0.123981 -1.49491e-07 0)
(0.123981 -3.00112e-07 0)
(0.123981 -4.62158e-07 0)
(0.123981 -6.25384e-07 0)
(0.123982 -7.66916e-07 0)
(0.123982 -8.37208e-07 0)
(0.123982 -7.53614e-07 0)
(0.123982 -4.5473e-07 0)
(0.17361 -1.39476e-07 0)
(0.17361 3.39031e-07 0)
(0.17361 6.57182e-07 0)
(0.17361 8.10378e-07 0)
(0.17361 8.46961e-07 0)
(0.17361 8.09244e-07 0)
(0.17361 7.24865e-07 0)
(0.17361 6.12295e-07 0)
(0.173609 4.82341e-07 0)
(0.173609 3.39699e-07 0)
(0.173609 1.84664e-07 0)
(0.173609 1.5031e-08 0)
(0.173609 -1.71739e-07 0)
(0.173609 -3.76065e-07 0)
(0.173609 -5.93253e-07 0)
(0.173609 -8.08811e-07 0)
(0.17361 -9.91891e-07 0)
(0.17361 -1.08363e-06 0)
(0.17361 -9.92737e-07 0)
(0.17361 -6.52697e-07 0)
(0.223272 -2.51885e-07 0)
(0.223272 2.7079e-07 0)
(0.223272 6.45231e-07 0)
(0.223272 8.50076e-07 0)
(0.223272 9.2615e-07 0)
(0.223272 9.13558e-07 0)
(0.223272 8.40486e-07 0)
(0.223272 7.27329e-07 0)
(0.223272 5.87406e-07 0)
(0.223272 4.27894e-07 0)
(0.223272 2.51184e-07 0)
(0.223272 5.6664e-08 0)
(0.223272 -1.5712e-07 0)
(0.223272 -3.89852e-07 0)
(0.223272 -6.35977e-07 0)
(0.223272 -8.79311e-07 0)
(0.223272 -1.08575e-06 0)
(0.223272 -1.1943e-06 0)
(0.223272 -1.11506e-06 0)
(0.223272 -7.798e-07 0)
(0.272976 -3.4692e-07 0)
(0.272977 1.63392e-07 0)
(0.272977 5.52514e-07 0)
(0.272977 7.86357e-07 0)
(0.272977 8.94206e-07 0)
(0.272977 9.09889e-07 0)
(0.272977 8.58666e-07 0)
(0.272977 7.60384e-07 0)
(0.272977 6.29153e-07 0)
(0.272977 4.73563e-07 0)
(0.272977 2.97605e-07 0)
(0.272977 1.02136e-07 0)
(0.272977 -1.1318e-07 0)
(0.272977 -3.47419e-07 0)
(0.272977 -5.95067e-07 0)
(0.272977 -8.40802e-07 0)
(0.272977 -1.05228e-06 0)
(0.272977 -1.17334e-06 0)
(0.272976 -1.12242e-06 0)
(0.272976 -8.31976e-07 0)
(0.322731 -4.0698e-07 0)
(0.322731 4.18626e-08 0)
(0.322731 4.05973e-07 0)
(0.322731 6.42511e-07 0)
(0.322731 7.68667e-07 0)
(0.322732 8.09588e-07 0)
(0.322732 7.85257e-07 0)
(0.322732 7.12831e-07 0)
(0.322732 6.0546e-07 0)
(0.322732 4.71864e-07 0)
(0.322732 3.16816e-07 0)
(0.322732 1.42211e-07 0)
(0.322732 -5.14139e-08 0)
(0.322732 -2.62883e-07 0)
(0.322732 -4.87596e-07 0)
(0.322731 -7.13038e-07 0)
(0.322731 -9.12301e-07 0)
(0.322731 -1.039e-06 0)
(0.322731 -1.02512e-06 0)
(0.322731 -8.07018e-07 0)
(0.372541 -4.2443e-07 0)
(0.372541 -7.57248e-08 0)
(0.372541 2.28344e-07 0)
(0.372542 4.4152e-07 0)
(0.372542 5.70004e-07 0)
(0.372542 6.29322e-07 0)
(0.372542 6.32712e-07 0)
(0.372542 5.92966e-07 0)
(0.372543 5.20722e-07 0)
(0.372543 4.23604e-07 0)
(0.372543 3.06291e-07 0)
(0.372543 1.71129e-07 0)
(0.372543 1.90974e-08 0)
(0.372543 -1.4887e-07 0)
(0.372542 -3.29919e-07 0)
(0.372542 -5.15786e-07 0)
(0.372542 -6.87472e-07 0)
(0.372542 -8.11679e-07 0)
(0.372541 -8.37457e-07 0)
(0.372541 -7.08709e-07 0)
(0.422412 -3.97587e-07 0)
(0.422412 -1.76444e-07 0)
(0.422412 3.95794e-08 0)
(0.422413 2.06693e-07 0)
(0.422413 3.21745e-07 0)
(0.422413 3.90713e-07 0)
(0.422413 4.19404e-07 0)
(0.422414 4.15131e-07 0)
(0.422414 3.84865e-07 0)
(0.422414 3.34107e-07 0)
(0.422414 2.66622e-07 0)
(0.422414 1.84584e-07 0)
(0.422414 8.89427e-08 0)
(0.422414 -2.0016e-08 0)
(0.422414 -1.41686e-07 0)
(0.422414 -2.72871e-07 0)
(0.422413 -4.03844e-07 0)
(0.422413 -5.1638e-07 0)
(0.422413 -5.79114e-07 0)
(0.422412 -5.46914e-07 0)
(0.472347 -3.2953e-07 0)
(0.472347 -2.51909e-07 0)
(0.472347 -1.43242e-07 0)
(0.472347 -3.9507e-08 0)
(0.472348 4.86261e-08 0)
(0.472348 1.18244e-07 0)
(0.472348 1.67655e-07 0)
(0.472349 1.98155e-07 0)
(0.472349 2.12312e-07 0)
(0.472349 2.1275e-07 0)
(0.472349 2.01655e-07 0)
(0.472349 1.80511e-07 0)
(0.472349 1.49874e-07 0)
(0.472349 1.09169e-07 0)
(0.472349 5.66602e-08 0)
(0.472349 -9.64488e-09 0)
(0.472348 -8.9636e-08 0)
(0.472348 -1.80926e-07 0)
(0.472348 -2.73487e-07 0)
(0.472347 -3.36183e-07 0)
(0.522347 -2.28039e-07 0)
(0.522347 -2.98546e-07 0)
(0.522347 -3.06781e-07 0)
(0.522348 -2.76924e-07 0)
(0.522348 -2.25271e-07 0)
(0.522348 -1.62737e-07 0)
(0.522348 -9.81128e-08 0)
(0.522349 -3.61853e-08 0)
(0.522349 2.08701e-08 0)
(0.522349 7.2363e-08 0)
(0.522349 1.18481e-07 0)
(0.522349 1.59696e-07 0)
(0.522349 1.96013e-07 0)
(0.522349 2.26047e-07 0)
(0.522349 2.46018e-07 0)
(0.522349 2.4926e-07 0)
(0.522349 2.26818e-07 0)
(0.522348 1.65607e-07 0)
(0.522348 5.35178e-08 0)
(0.522348 -9.506e-08 0)
(0.572413 -1.05206e-07 0)
(0.572413 -3.17415e-07 0)
(0.572413 -4.41829e-07 0)
(0.572413 -4.88536e-07 0)
(0.572413 -4.7775e-07 0)
(0.572414 -4.27474e-07 0)
(0.572414 -3.52915e-07 0)
(0.572414 -2.64644e-07 0)
(0.572414 -1.69541e-07 0)
(0.572415 -7.16978e-08 0)
(0.572415 2.69511e-08 0)
(0.572415 1.25795e-07 0)
(0.572415 2.24359e-07 0)
(0.572415 3.20763e-07 0)
(0.572415 4.09824e-07 0)
(0.572414 4.8124e-07 0)
(0.572414 5.18338e-07 0)
(0.572414 4.93956e-07 0)
(0.572414 3.743e-07 0)
(0.572413 1.54689e-07 0)
(0.622542 2.3516e-08 0)
(0.622542 -3.13418e-07 0)
(0.622542 -5.43006e-07 0)
(0.622543 -6.60576e-07 0)
(0.622543 -6.89095e-07 0)
(0.622543 -6.52825e-07 0)
(0.622543 -5.72542e-07 0)
(0.622543 -4.64002e-07 0)
(0.622543 -3.38371e-07 0)
(0.622544 -2.02865e-07 0)
(0.622544 -6.13454e-08 0)
(0.622544 8.46754e-08 0)
(0.622544 2.3453e-07 0)
(0.622544 3.86363e-07 0)
(0.622544 5.34501e-07 0)
(0.622544 6.66459e-07 0)
(0.622543 7.59846e-07 0)
(0.622543 7.75775e-07 0)
(0.622543 6.6063e-07 0)
(0.622543 3.89183e-07 0)
(0.672732 1.40873e-07 0)
(0.672732 -2.93888e-07 0)
(0.672732 -6.0771e-07 0)
(0.672732 -7.82029e-07 0)
(0.672733 -8.4217e-07 0)
(0.672733 -8.17974e-07 0)
(0.672733 -7.34806e-07 0)
(0.672733 -6.12655e-07 0)
(0.672733 -4.66157e-07 0)
(0.672733 -3.05e-07 0)
(0.672733 -1.34485e-07 0)
(0.672733 4.3379e-08 0)
(0.672733 2.28167e-07 0)
(0.672733 4.18691e-07 0)
(0.672733 6.09848e-07 0)
(0.672733 7.88673e-07 0)
(0.672733 9.29557e-07 0)
(0.672733 9.85143e-07 0)
(0.672733 8.85246e-07 0)
(0.672733 5.84052e-07 0)
(0.722978 2.30013e-07 0)
(0.722978 -2.66531e-07 0)
(0.722978 -6.34382e-07 0)
(0.722978 -8.4367e-07 0)
(0.722978 -9.22333e-07 0)
(0.722978 -9.05188e-07 0)
(0.722978 -8.20968e-07 0)
(0.722978 -6.92501e-07 0)
(0.722978 -5.36619e-07 0)
(0.722978 -3.64472e-07 0)
(0.722978 -1.82061e-07 0)
(0.722978 8.64718e-09 0)
(0.722979 2.07969e-07 0)
(0.722979 4.16011e-07 0)
(0.722979 6.29266e-07 0)
(0.722979 8.36029e-07 0)
(0.722979 1.01025e-06 0)
(0.722979 1.10022e-06 0)
(0.722978 1.02377e-06 0)
(0.722978 7.16652e-07 0)
(0.773274 2.77301e-07 0)
(0.773274 -2.36986e-07 0)
(0.773274 -6.20297e-07 0)
(0.773274 -8.36819e-07 0)
(0.773274 -9.17407e-07 0)
(0.773274 -9.00873e-07 0)
(0.773274 -8.17539e-07 0)
(0.773273 -6.91151e-07 0)
(0.773273 -5.39017e-07 0)
(0.773273 -3.72442e-07 0)
(0.773273 -1.97239e-07 0)
(0.773273 -1.4736e-08 0)
(0.773273 1.76549e-07 0)
(0.773273 3.78461e-07 0)
(0.773274 5.89821e-07 0)
(0.773274 8.01668e-07 0)
(0.773274 9.90355e-07 0)
(0.773274 1.10458e-06 0)
(0.773274 1.05652e-06 0)
(0.773274 7.68229e-07 0)
(0.823612 2.74184e-07 0)
(0.823612 -2.05871e-07 0)
(0.823612 -5.58564e-07 0)
(0.823612 -7.50661e-07 0)
(0.823611 -8.15826e-07 0)
(0.823611 -7.94534e-07 0)
(0.823611 -7.15871e-07 0)
(0.823611 -6.01887e-07 0)
(0.823611 -4.68286e-07 0)
(0.823611 -3.2505e-07 0)
(0.823611 -1.7688e-07 0)
(0.823611 -2.3988e-08 0)
(0.823611 1.36444e-07 0)
(0.823611 3.08019e-07 0)
(0.823611 4.92052e-07 0)
(0.823611 6.83236e-07 0)
(0.823611 8.6292e-07 0)
(0.823611 9.85572e-07 0)
(0.823612 9.66838e-07 0)
(0.823612 7.22616e-07 0)
(0.873984 2.15544e-07 0)
(0.873984 -1.70373e-07 0)
(0.873984 -4.43212e-07 0)
(0.873984 -5.79862e-07 0)
(0.873983 -6.16006e-07 0)
(0.873983 -5.88928e-07 0)
(0.873983 -5.22254e-07 0)
(0.873983 -4.32981e-07 0)
(0.873982 -3.32906e-07 0)
(0.873982 -2.29346e-07 0)
(0.873982 -1.25285e-07 0)
(0.873982 -1.96964e-08 0)
(0.873982 9.1264e-08 0)
(0.873982 2.12177e-07 0)
(0.873982 3.45793e-07 0)
(0.873983 4.90116e-07 0)
(0.873983 6.33763e-07 0)
(0.873983 7.43494e-07 0)
(0.873983 7.50681e-07 0)
(0.873984 5.73958e-07 0)
(0.924381 1.20701e-07 0)
(0.924381 -1.12045e-07 0)
(0.924381 -2.62723e-07 0)
(0.92438 -3.2801e-07 0)
(0.92438 -3.35086e-07 0)
(0.92438 -3.10713e-07 0)
(0.924379 -2.68453e-07 0)
(0.924379 -2.1747e-07 0)
(0.924379 -1.63896e-07 0)
(0.924379 -1.11365e-07 0)
(0.924379 -6.09233e-08 0)
(0.924379 -1.09754e-08 0)
(0.924379 4.19798e-08 0)
(0.924379 1.01648e-07 0)
(0.924379 1.7013e-07 0)
(0.924379 2.47247e-07 0)
(0.924379 3.29573e-07 0)
(0.92438 4.00333e-07 0)
(0.92438 4.21757e-07 0)
(0.92438 3.26762e-07 0)
(0.974792 2.62196e-08 0)
(0.974792 -4.5571e-08 0)
(0.974792 -8.42438e-08 0)
(0.974792 -9.55228e-08 0)
(0.974792 -9.1161e-08 0)
(0.974792 -8.02599e-08 0)
(0.974791 -6.63871e-08 0)
(0.974791 -5.16355e-08 0)
(0.974791 -3.73568e-08 0)
(0.974791 -2.43608e-08 0)
(0.974791 -1.27341e-08 0)
(0.974791 -1.65667e-09 0)
(0.974791 1.03391e-08 0)
(0.974791 2.46265e-08 0)
(0.974791 4.18226e-08 0)
(0.974791 6.20582e-08 0)
(0.974791 8.55169e-08 0)
(0.974792 1.08729e-07 0)
(0.974792 1.2084e-07 0)
(0.974792 9.68513e-08 0)
)
;

boundaryField
{
    movingWall
    {
        type            fixedValue;
        value           uniform (1 0 0);
    }
    fixedWalls
    {
        type            noSlip;
    }
    left
    {
        type            cyclic;
    }
    right
    {
        type            cyclic;
    }
    frontAndBack
    {
        type            empty;
    }
}


// ************************************************************************* //
