/*--------------------------------*- C++ -*----------------------------------*\
  =========                 |
  \\      /  F ield         | OpenFOAM: The Open Source CFD Toolbox
   \\    /   O peration     | Website:  https://openfoam.org
    \\  /    A nd           | Version:  8
     \\/     M anipulation  |
\*---------------------------------------------------------------------------*/
FoamFile
{
    version     2.0;
    format      ascii;
    class       volScalarField;
    location    "14.5";
    object      p;
}
// * * * * * * * * * * * * * * * * * * * * * * * * * * * * * * * * * * * * * //

dimensions      [0 2 -2 0 0 0 0];

internalField   nonuniform List<scalar> 
464
(
7.63398e-11
4.72612e-06
1.46777e-05
2.93958e-05
4.86115e-05
7.18424e-05
9.86289e-05
0.000128161
0.000160508
0.000192905
0.000229706
0.00025961
-4.72268e-06
1.11413e-07
1.02786e-05
2.5311e-05
4.49332e-05
6.8657e-05
9.60178e-05
0.000126222
0.000159299
0.000192595
0.000230419
0.000261683
-1.48962e-05
-9.83914e-06
7.91454e-07
1.65013e-05
3.69912e-05
6.1743e-05
9.02003e-05
0.000121598
0.000155452
0.00019032
0.000226935
0.000260791
-3.05225e-05
-2.51212e-05
-1.37737e-05
2.98942e-06
2.48376e-05
5.12202e-05
8.15446e-05
0.000115043
0.000151171
0.000188578
0.000227772
0.000264448
-5.20574e-05
-4.61765e-05
-3.38344e-05
-1.56096e-05
8.11256e-06
3.6728e-05
6.95551e-05
0.000105784
0.000144614
0.000184947
0.000226217
0.000266666
-8.0004e-05
-7.34872e-05
-5.9839e-05
-3.96879e-05
-1.35044e-05
1.80508e-05
5.42059e-05
9.41024e-05
0.000136873
0.000181434
0.000227066
0.000271928
-0.000115043
-0.000107712
-9.24117e-05
-6.98078e-05
-4.05196e-05
-5.26523e-06
3.50429e-05
7.94705e-05
0.000127021
0.000176569
0.000227133
0.000277452
-0.000158162
-0.000149767
-0.000132397
-0.000106683
-7.35365e-05
-3.36927e-05
1.17261e-05
6.17201e-05
0.000115171
0.00017093
0.000227892
0.000284716
-0.000210044
-0.000200407
-0.000180575
-0.00015104
-0.000113228
-6.78049e-05
-1.62424e-05
4.04123e-05
0.000100879
0.000163948
0.000228415
0.000293012
-0.00027388
-0.000262188
-0.000239033
-0.000204315
-0.000160717
-0.00010836
-4.94223e-05
1.51473e-05
8.38699e-05
0.000155503
0.000228773
0.000302386
-0.000344343
-0.000331269
-0.000305024
-0.000265267
-0.000215593
-0.000155537
-8.82312e-05
-1.44887e-05
6.37736e-05
0.000145233
0.000228536
0.00031254
-0.000444232
-0.000425612
-0.000394287
-0.000343102
-0.000284217
-0.000212249
-0.00013405
-4.91187e-05
4.02147e-05
0.000133021
0.000228301
0.000324411
-0.000532418
-0.000513505
-0.000478267
-0.000421223
-0.000355032
-0.000273102
-0.000184571
-8.81074e-05
1.29699e-05
0.000117605
0.00022409
0.000332221
-0.000694889
-0.000658135
-0.000617176
-0.000533142
-0.0004549
-0.000350763
-0.000247382
-0.000134298
-1.83072e-05
0.000101466
0.000224319
0.000348749
-0.00079863
-0.000769966
-0.000720517
-0.000632375
-0.000542381
-0.000425704
-0.000309587
-0.000182475
-5.34512e-05
7.81726e-05
0.000211287
0.000346893
-0.0010806
-0.000985187
-0.000936193
-0.000783196
-0.000680087
-0.000523505
-0.000389388
-0.000238488
-9.16879e-05
5.93255e-05
0.000213013
0.000369205
-0.00119341
-0.00114726
-0.00106827
-0.00091886
-0.000788284
-0.00061588
-0.000462165
-0.000294568
-0.000133917
2.70872e-05
0.000187715
0.000351124
-0.00175602
-0.00142382
-0.00138604
-0.00109095
-0.000951611
-0.000718815
-0.000545138
-0.000351023
-0.000172368
8.09627e-06
0.000187779
0.000372815
-0.00190689
-0.00179315
-0.00159812
-0.00133128
-0.00109233
-0.000839128
-0.000627
-0.000412888
-0.000219009
-2.96164e-05
0.000153374
0.000339584
-0.00346613
-0.00194672
-0.00193049
-0.00141062
-0.00118924
-0.000893541
-0.000666084
-0.000444287
-0.000238028
-4.0618e-05
0.000151754
0.000346773
0.000302374
0.000322656
0.000344809
0.000359743
0.000373045
0.000382434
0.000388915
0.000391933
0.000306396
0.000328449
0.000352457
0.000368973
0.00038352
0.00039399
0.000401163
0.000404534
0.000297001
0.000325419
0.000352552
0.000374189
0.000392337
0.000405884
0.000415037
0.00041936
0.000303349
0.000334701
0.00036443
0.000388664
0.000408942
0.000424255
0.000434614
0.000439565
0.000306429
0.000342678
0.000375881
0.000404458
0.000428272
0.000446474
0.000458828
0.000464742
0.000316042
0.000356705
0.000394086
0.000426633
0.000453893
0.000475037
0.00048943
0.000496377
0.000326584
0.000372947
0.000415654
0.000453412
0.000485187
0.000510025
0.000526972
0.000535229
0.000340365
0.000393301
0.0004424
0.000486283
0.000523421
0.000552833
0.000572903
0.00058285
0.000356467
0.000417347
0.000474157
0.000525527
0.000569174
0.000604298
0.000628135
0.000640177
0.000375039
0.000445347
0.000511457
0.000572286
0.000624208
0.000667533
0.000696608
0.000712177
0.000395717
0.00047665
0.000552916
0.000624109
0.000684439
0.000736641
0.000770361
0.000789965
0.000420458
0.000515525
0.000606375
0.000695137
0.000769019
0.000839694
0.000882356
0.000911287
0.000440204
0.000547711
0.00064906
0.000752487
0.000832944
0.000920439
0.000966022
0.00100587
0.000474717
0.000604656
0.000726544
0.000863987
0.000966998
0.00109629
0.00116007
0.00122635
0.000482779
0.000626194
0.000751237
0.000910839
0.00100828
0.00117339
0.00122862
0.00133106
0.000526663
0.000703492
0.000858547
0.00107756
0.00121701
0.00147403
0.00157554
0.00176249
0.00050959
0.000698726
0.000834247
0.00108514
0.00117495
0.00150779
0.0015518
0.00186601
0.000555438
0.000781263
0.000960046
0.00129509
0.00146539
0.00198797
0.0021603
0.00279222
0.000509343
0.000740479
0.000855248
0.00122442
0.00121943
0.00186898
0.00175871
0.00275247
0.000535835
0.000778189
0.000944186
0.001372
0.00151144
0.00245336
0.00277065
0.00519832
0.000359553
0.000360017
0.000360921
0.000362046
0.000363253
0.000364322
0.00036513
0.000365532
0.000360068
0.000360562
0.000361503
0.000362694
0.000363917
0.000365012
0.000365827
0.000366234
0.000357169
0.000357946
0.000359411
0.000361145
0.00036301
0.000364608
0.00036581
0.000366404
0.000358657
0.000359554
0.000361187
0.000363181
0.00036514
0.000366866
0.000368121
0.000368745
0.000351365
0.00035324
0.000356428
0.000359898
0.000363491
0.000366425
0.000368583
0.000369633
0.000353932
0.000356066
0.000359658
0.00036367
0.000367476
0.000370698
0.000372998
0.000374129
0.000337673
0.000343286
0.000351215
0.000358639
0.000365787
0.000371273
0.000375171
0.000377024
0.000341513
0.000347574
0.000356398
0.000364677
0.000372388
0.000378425
0.000382667
0.000384698
)
;

boundaryField
{
    movingWall
    {
        type            zeroGradient;
    }
    fixedWalls
    {
        type            zeroGradient;
    }
    frontAndBack
    {
        type            empty;
    }
}


// ************************************************************************* //
