0 	-2.43214e-07
1.57135 	-4.47848e-06
3.1427 	-2.7512e-05
4.71405 	-0.000104923
6.28539 	-0.000322058
7.85674 	-0.00094572
9.42809 	-0.00277571
10.9994 	-0.00477239
12.5708 	-0.00390717
14.1421 	0.2507
