/*--------------------------------*- C++ -*----------------------------------*\
  =========                 |
  \\      /  F ield         | OpenFOAM: The Open Source CFD Toolbox
   \\    /   O peration     | Website:  https://openfoam.org
    \\  /    A nd           | Version:  8
     \\/     M anipulation  |
\*---------------------------------------------------------------------------*/
FoamFile
{
    version     2.0;
    format      ascii;
    class       surfaceScalarField;
    location    "1.44";
    object      phi;
}
// * * * * * * * * * * * * * * * * * * * * * * * * * * * * * * * * * * * * * //

dimensions      [0 3 -1 0 0 0 0];

internalField   nonuniform List<scalar> 
760
(
1.2495e-06
2.44134e-19
1.2495e-06
8.84872e-20
1.2495e-06
-7.03237e-20
1.2495e-06
-2.20728e-19
1.2495e-06
-3.38741e-19
1.2495e-06
-4.38475e-19
1.2495e-06
-4.7942e-19
1.2495e-06
-4.87748e-19
1.2495e-06
-4.3457e-19
1.2495e-06
-3.47507e-19
1.2495e-06
-2.22325e-19
1.2495e-06
-7.76988e-20
1.2495e-06
6.88657e-20
1.2495e-06
2.16775e-19
1.2495e-06
3.32308e-19
1.2495e-06
4.30223e-19
1.2495e-06
4.7159e-19
1.2495e-06
4.81438e-19
1.2495e-06
4.35282e-19
3.63158e-19
3.74853e-06
4.193e-19
3.74853e-06
-2.09972e-19
3.74853e-06
-8.30479e-19
3.74853e-06
-1.34837e-18
3.74853e-06
-1.75493e-18
3.74853e-06
-1.9565e-18
3.74853e-06
-1.99786e-18
3.74853e-06
-1.80803e-18
3.74853e-06
-1.46805e-18
3.74853e-06
-9.63324e-19
3.74853e-06
-3.79378e-19
3.74853e-06
2.38603e-19
3.74853e-06
8.38219e-19
3.74853e-06
1.33597e-18
3.74853e-06
1.72925e-18
3.74853e-06
1.92593e-18
3.74853e-06
1.97342e-18
3.74853e-06
1.79826e-18
3.74853e-06
1.47833e-18
9.9305e-19
6.24759e-06
7.98464e-20
6.24759e-06
-1.37212e-18
6.24759e-06
-2.68227e-18
6.24759e-06
-3.75139e-18
6.24759e-06
-4.41437e-18
6.24759e-06
-4.68463e-18
6.24759e-06
-4.44563e-18
6.24759e-06
-3.81181e-18
6.24759e-06
-2.76157e-18
6.24759e-06
-1.47299e-18
6.24759e-06
-2.55558e-20
6.24759e-06
1.41297e-18
6.24759e-06
2.69649e-18
6.24759e-06
3.73596e-18
6.24759e-06
4.37833e-18
6.24759e-06
4.63951e-18
6.24759e-06
4.40726e-18
6.24759e-06
3.79575e-18
6.24759e-06
2.77513e-18
1.51437e-18
8.74671e-06
-9.27487e-19
8.74671e-06
-3.41113e-18
8.74671e-06
-5.57581e-18
8.74671e-06
-7.16847e-18
8.74671e-06
-8.09591e-18
8.74671e-06
-8.17865e-18
8.74671e-06
-7.51201e-18
8.74671e-06
-6.04888e-18
8.74671e-06
-4.03906e-18
8.74671e-06
-1.59488e-18
8.74671e-06
9.73654e-19
8.74671e-06
3.44976e-18
8.74671e-06
5.59342e-18
8.74671e-06
7.15991e-18
8.74671e-06
8.0652e-18
8.74671e-06
8.1371e-18
8.74671e-06
7.47706e-18
8.74671e-06
6.03253e-18
8.74671e-06
4.04948e-18
1.62902e-18
1.12459e-05
-2.42378e-18
1.12459e-05
-5.96552e-18
1.12459e-05
-8.91985e-18
1.12459e-05
-1.10256e-17
1.12459e-05
-1.20125e-17
1.12459e-05
-1.1877e-17
1.12459e-05
-1.05149e-17
1.12459e-05
-8.18239e-18
1.12459e-05
-4.98732e-18
1.12459e-05
-1.35116e-18
1.12459e-05
2.44795e-18
1.12459e-05
5.98796e-18
1.12459e-05
8.93523e-18
1.12459e-05
1.10298e-17
1.12459e-05
1.20028e-17
1.12459e-05
1.18585e-17
1.12459e-05
1.0496e-17
1.12459e-05
8.16712e-18
1.12459e-05
4.98442e-18
1.36453e-18
1.37452e-05
-3.982e-18
1.37452e-05
-8.39343e-18
1.37452e-05
-1.19844e-17
1.37452e-05
-1.43847e-17
1.37452e-05
-1.54162e-17
1.37452e-05
-1.48889e-17
1.37452e-05
-1.29677e-17
1.37452e-05
-9.70567e-18
1.37452e-05
-5.55578e-18
1.37452e-05
-8.08109e-19
1.37452e-05
3.97968e-18
1.37452e-05
8.40204e-18
1.37452e-05
1.19974e-17
1.37452e-05
1.43992e-17
1.37452e-05
1.54295e-17
1.37452e-05
1.48952e-17
1.37452e-05
1.29606e-17
1.37452e-05
9.6954e-18
1.37452e-05
5.5428e-18
7.95372e-19
1.62446e-05
-5.21584e-18
1.62446e-05
-1.00934e-17
1.62446e-05
-1.39935e-17
1.62446e-05
-1.65352e-17
1.62446e-05
-1.74311e-17
1.62446e-05
-1.66728e-17
1.62446e-05
-1.42217e-17
1.62446e-05
-1.04437e-17
1.62446e-05
-5.57741e-18
1.62446e-05
-2.21925e-19
1.62446e-05
5.20319e-18
1.62446e-05
1.00876e-17
1.62446e-05
1.40002e-17
1.62446e-05
1.65565e-17
1.62446e-05
1.74529e-17
1.62446e-05
1.66864e-17
1.62446e-05
1.42262e-17
1.62446e-05
1.04351e-17
1.62446e-05
5.55805e-18
2.03362e-19
1.87442e-05
-5.79568e-18
1.87442e-05
-1.06878e-17
1.87442e-05
-1.45196e-17
1.87442e-05
-1.69268e-17
1.87442e-05
-1.76983e-17
1.87442e-05
-1.67011e-17
1.87442e-05
-1.41207e-17
1.87442e-05
-1.01003e-17
1.87442e-05
-5.1538e-18
1.87442e-05
3.53494e-19
1.87442e-05
5.77821e-18
1.87442e-05
1.06789e-17
1.87442e-05
1.45183e-17
1.87442e-05
1.69381e-17
1.87442e-05
1.77173e-17
1.87442e-05
1.67173e-17
1.87442e-05
1.41271e-17
1.87442e-05
1.0096e-17
1.87442e-05
5.14297e-18
-3.70792e-19
2.12439e-05
-5.72656e-18
2.12439e-05
-1.00813e-17
2.12439e-05
-1.34751e-17
2.12439e-05
-1.55462e-17
2.12439e-05
-1.60836e-17
2.12439e-05
-1.50671e-17
2.12439e-05
-1.25367e-17
2.12439e-05
-8.82972e-18
2.12439e-05
-4.20687e-18
2.12439e-05
7.67959e-19
2.12439e-05
5.71694e-18
2.12439e-05
1.0074e-17
2.12439e-05
1.34725e-17
2.12439e-05
1.55414e-17
2.12439e-05
1.60862e-17
2.12439e-05
1.50709e-17
2.12439e-05
1.25381e-17
2.12439e-05
8.83091e-18
2.12439e-05
4.20869e-18
-7.68518e-19
2.37437e-05
-5.05772e-18
2.37437e-05
-8.54392e-18
2.37437e-05
-1.11668e-17
2.37437e-05
-1.27192e-17
2.37437e-05
-1.30195e-17
2.37437e-05
-1.20237e-17
2.37437e-05
-9.87828e-18
2.37437e-05
-6.72631e-18
2.37437e-05
-2.96809e-18
2.37437e-05
1.13085e-18
2.37437e-05
5.06716e-18
2.37437e-05
8.55057e-18
2.37437e-05
1.11683e-17
2.37437e-05
1.27117e-17
2.37437e-05
1.30072e-17
2.37437e-05
1.20145e-17
2.37437e-05
9.87181e-18
2.37437e-05
6.72337e-18
2.37437e-05
2.97105e-18
-1.12123e-18
2.62437e-05
-4.11876e-18
2.62437e-05
-6.44657e-18
2.62437e-05
-8.17972e-18
2.62437e-05
-9.09358e-18
2.62437e-05
-9.12772e-18
2.62437e-05
-8.265e-18
2.62437e-05
-6.57575e-18
2.62437e-05
-4.26971e-18
2.62437e-05
-1.50528e-18
2.62437e-05
1.35675e-18
2.62437e-05
4.1362e-18
2.62437e-05
6.46423e-18
2.62437e-05
8.19386e-18
2.62437e-05
9.09271e-18
2.62437e-05
9.11468e-18
2.62437e-05
8.24336e-18
2.62437e-05
6.55656e-18
2.62437e-05
4.25609e-18
2.62437e-05
1.50406e-18
-1.34689e-18
2.87439e-05
-3.04844e-18
2.87439e-05
-4.29853e-18
2.87439e-05
-5.08884e-18
2.87439e-05
-5.42322e-18
2.87439e-05
-5.20151e-18
2.87439e-05
-4.48132e-18
2.87439e-05
-3.31885e-18
2.87439e-05
-1.81716e-18
2.87439e-05
-1.60691e-19
2.87439e-05
1.55169e-18
2.87439e-05
3.07231e-18
2.87439e-05
4.33649e-18
2.87439e-05
5.12345e-18
2.87439e-05
5.43604e-18
2.87439e-05
5.19108e-18
2.87439e-05
4.45259e-18
2.87439e-05
3.28369e-18
2.87439e-05
1.78469e-18
2.87439e-05
1.42013e-19
-1.55255e-18
3.12442e-05
-2.11908e-18
3.12442e-05
-2.38299e-18
3.12442e-05
-2.47238e-18
3.12442e-05
-2.28467e-18
3.12442e-05
-1.91481e-18
3.12442e-05
-1.33595e-18
3.12442e-05
-6.31543e-19
3.12442e-05
1.42184e-19
3.12442e-05
9.23694e-19
3.12442e-05
1.59586e-18
3.12442e-05
2.14995e-18
3.12442e-05
2.44539e-18
3.12442e-05
2.53296e-18
3.12442e-05
2.32436e-18
3.12442e-05
1.90912e-18
3.12442e-05
1.29681e-18
3.12442e-05
5.70513e-19
3.12442e-05
-2.02392e-19
3.12442e-05
-9.64924e-19
-1.60391e-18
3.37446e-05
-1.30373e-18
3.37446e-05
-1.00026e-18
3.37446e-05
-5.67113e-19
3.37446e-05
-1.25844e-19
3.37446e-05
3.53704e-19
3.37446e-05
7.64837e-19
3.37446e-05
1.12046e-18
3.37446e-05
1.38312e-18
3.37446e-05
1.50963e-18
3.37446e-05
1.52109e-18
3.37446e-05
1.35008e-18
3.37446e-05
1.0757e-18
3.37446e-05
6.42437e-19
3.37446e-05
1.75788e-19
3.37446e-05
-3.4851e-19
3.37446e-05
-8.1174e-19
3.37446e-05
-1.20613e-18
3.37446e-05
-1.4664e-18
3.37446e-05
-1.56622e-18
-1.52588e-18
3.62452e-05
-7.12394e-19
3.62452e-05
-9.82049e-20
3.62452e-05
4.85339e-19
3.62452e-05
1.04507e-18
3.62452e-05
1.45532e-18
3.62452e-05
1.74815e-18
3.62452e-05
1.85717e-18
3.62452e-05
1.80934e-18
3.62452e-05
1.60796e-18
3.62452e-05
1.24157e-18
3.62452e-05
7.73584e-19
3.62452e-05
1.86808e-19
3.62452e-05
-3.94841e-19
3.62452e-05
-9.85275e-19
3.62452e-05
-1.45247e-18
3.62452e-05
-1.80844e-18
3.62452e-05
-1.96142e-18
3.62452e-05
-1.91233e-18
3.62452e-05
-1.66504e-18
-1.2376e-18
3.87459e-05
-2.74585e-19
3.87459e-05
3.09248e-19
3.87459e-05
8.74411e-19
3.87459e-05
1.314e-18
3.87459e-05
1.64134e-18
3.87459e-05
1.78054e-18
3.87459e-05
1.77738e-18
3.87459e-05
1.60007e-18
3.87459e-05
1.29281e-18
3.87459e-05
8.65299e-19
3.87459e-05
3.33468e-19
3.87459e-05
-2.12525e-19
3.87459e-05
-7.823e-19
3.87459e-05
-1.25781e-18
3.87459e-05
-1.64723e-18
3.87459e-05
-1.84854e-18
3.87459e-05
-1.87929e-18
3.87459e-05
-1.70207e-18
3.87459e-05
-1.34913e-18
-8.57719e-19
4.12467e-05
-2.50649e-20
4.12467e-05
4.03481e-19
4.12467e-05
7.61988e-19
4.12467e-05
1.06085e-18
4.12467e-05
1.22323e-18
4.12467e-05
1.28692e-18
4.12467e-05
1.21446e-18
4.12467e-05
1.05668e-18
4.12467e-05
7.97184e-19
4.12467e-05
4.58076e-19
4.12467e-05
8.80485e-20
4.12467e-05
-3.24385e-19
4.12467e-05
-6.86565e-19
4.12467e-05
-1.01747e-18
4.12467e-05
-1.22714e-18
4.12467e-05
-1.34545e-18
4.12467e-05
-1.30528e-18
4.12467e-05
-1.13708e-18
4.12467e-05
-8.38855e-19
-4.46332e-19
4.37476e-05
7.62841e-20
4.37476e-05
2.78197e-19
4.37476e-05
4.56562e-19
4.37476e-05
5.7281e-19
4.37476e-05
6.41635e-19
4.37476e-05
6.30355e-19
4.37476e-05
5.85849e-19
4.37476e-05
4.76913e-19
4.37476e-05
3.37074e-19
4.37476e-05
1.69804e-19
4.37476e-05
-3.47005e-20
4.37476e-05
-2.1883e-19
4.37476e-05
-4.07083e-19
4.37476e-05
-5.46386e-19
4.37476e-05
-6.56046e-19
4.37476e-05
-6.78735e-19
4.37476e-05
-6.42847e-19
4.37476e-05
-5.2621e-19
4.37476e-05
-3.57782e-19
-1.55552e-19
4.62485e-05
5.23303e-20
4.62485e-05
1.05918e-19
4.62485e-05
1.44737e-19
4.62485e-05
1.80263e-19
4.62485e-05
1.75845e-19
4.62485e-05
1.67871e-19
4.62485e-05
1.41564e-19
4.62485e-05
1.09585e-19
4.62485e-05
6.68876e-20
4.62485e-05
1.97502e-20
4.62485e-05
-2.81817e-20
4.62485e-05
-8.33949e-20
4.62485e-05
-1.24718e-19
4.62485e-05
-1.65036e-19
4.62485e-05
-1.80669e-19
4.62485e-05
-1.81464e-19
4.62485e-05
-1.66831e-19
4.62485e-05
-1.30774e-19
4.62485e-05
-7.71096e-20
-7.71418e-21
4.87495e-05
4.87495e-05
4.87495e-05
4.87495e-05
4.87495e-05
4.87495e-05
4.87495e-05
4.87495e-05
4.87495e-05
4.87495e-05
4.87495e-05
4.87495e-05
4.87495e-05
4.87495e-05
4.87495e-05
4.87495e-05
4.87495e-05
4.87495e-05
4.87495e-05
)
;

boundaryField
{
    movingWall
    {
        type            calculated;
        value           uniform 0;
    }
    fixedWalls
    {
        type            calculated;
        value           uniform 0;
    }
    left
    {
        type            cyclic;
        value           nonuniform List<scalar> 
20
(
-3.87459e-05
-3.62452e-05
-3.37446e-05
-3.12442e-05
-2.87439e-05
-2.62437e-05
-2.37437e-05
-2.12439e-05
-1.87442e-05
-1.62446e-05
-1.37452e-05
-1.12459e-05
-8.74671e-06
-6.24759e-06
-3.74853e-06
-1.2495e-06
-4.12467e-05
-4.37476e-05
-4.62485e-05
-4.87495e-05
)
;
    }
    right
    {
        type            cyclic;
        value           nonuniform List<scalar> 
20
(
3.87459e-05
3.62452e-05
3.37446e-05
3.12442e-05
2.87439e-05
2.62437e-05
2.37437e-05
2.12439e-05
1.87442e-05
1.62446e-05
1.37452e-05
1.12459e-05
8.74671e-06
6.24759e-06
3.74853e-06
1.2495e-06
4.12467e-05
4.37476e-05
4.62485e-05
4.87495e-05
)
;
    }
    frontAndBack
    {
        type            empty;
        value           nonuniform List<scalar> 0();
    }
}


// ************************************************************************* //
