/*--------------------------------*- C++ -*----------------------------------*\
  =========                 |
  \\      /  F ield         | OpenFOAM: The Open Source CFD Toolbox
   \\    /   O peration     | Website:  https://openfoam.org
    \\  /    A nd           | Version:  8
     \\/     M anipulation  |
\*---------------------------------------------------------------------------*/
FoamFile
{
    version     2.0;
    format      ascii;
    class       volScalarField;
    location    "0.06";
    object      p;
}
// * * * * * * * * * * * * * * * * * * * * * * * * * * * * * * * * * * * * * //

dimensions      [0 2 -2 0 0 0 0];

internalField   nonuniform List<scalar> 
400
(
-2.2899e-08
-0.00535828
-0.0118164
-0.0165972
-0.018108
-0.0156586
-0.00921884
0.000777246
0.0135754
0.0282033
0.0435466
0.0584116
0.0715985
0.0819963
0.0887069
0.0912029
0.0895174
0.0844541
0.077788
0.0724273
0.00527897
-0.000234703
-0.00527813
-0.0085098
-0.00916728
-0.00676363
-0.00124612
0.00707329
0.01762
0.0296322
0.0422218
0.0544317
0.0653027
0.0739579
0.0797038
0.0821496
0.081345
0.0778667
0.0726422
0.0671456
0.0121023
0.00446494
-0.0010032
-0.00396949
-0.00444886
-0.00218659
0.00280349
0.0102251
0.0195807
0.0302203
0.0413829
0.0522415
0.0619599
0.0697636
0.0750228
0.0773479
0.0767116
0.0734558
0.067749
0.0601011
0.0181795
0.00761781
0.000790992
-0.00262542
-0.00329281
-0.00116638
0.00363833
0.0107808
0.0197731
0.0300068
0.0407748
0.051302
0.060789
0.0684701
0.0736825
0.0759526
0.0751272
0.0713394
0.0641487
0.0534818
0.0219995
0.0083245
-0.000143714
-0.00421772
-0.00512067
-0.00299346
0.0019401
0.00927177
0.0184915
0.0289976
0.0400979
0.0510263
0.0609711
0.0691219
0.074727
0.0771789
0.0761709
0.0716412
0.0626248
0.0486506
0.0224356
0.00554965
-0.00465365
-0.00939218
-0.0104109
-0.00802468
-0.00257028
0.0054612
0.015518
0.0269817
0.0391498
0.0512339
0.0623747
0.0716736
0.0782423
0.0812916
0.0803249
0.0750764
0.0640802
0.0465589
0.0184844
-0.0017473
-0.0136896
-0.0189547
-0.0198256
-0.0167999
-0.010339
-0.00102994
0.0105211
0.0236676
0.0376826
0.0517394
0.0649066
0.0761641
0.0844408
0.0887101
0.08823
0.0824833
0.0694501
0.0480572
0.00906152
-0.0147069
-0.0283126
-0.0338167
-0.034119
-0.0299371
-0.0218797
-0.0106431
0.00310764
0.0186985
0.0353821
0.0522938
0.0684236
0.082608
0.0935503
0.0999195
0.100644
0.0948588
0.0798412
0.0541492
-0.0071535
-0.0347023
-0.0497934
-0.0550613
-0.0541778
-0.048153
-0.0377799
-0.0238778
-0.00716633
0.0116702
0.0318873
0.0526064
0.072754
0.0910205
0.105848
0.115525
0.118533
0.113494
0.0967158
0.0662147
-0.0318631
-0.0634685
-0.0796876
-0.0839603
-0.0809908
-0.0722016
-0.0586223
-0.041208
-0.0207154
0.00219836
0.0268408
0.0523726
0.0777048
0.101408
0.121651
0.136262
0.143122
0.140095
0.12209
0.0862448
-0.0673453
-0.10327
-0.119918
-0.121964
-0.115571
-0.102753
-0.0848425
-0.0629349
-0.0377854
-0.00995951
0.0199845
0.0513385
0.0830906
0.113769
0.141296
0.162985
0.175943
0.176933
0.158788
0.117161
-0.116789
-0.157158
-0.172869
-0.17065
-0.158808
-0.140195
-0.116511
-0.0889693
-0.0582497
-0.0247226
0.0113108
0.0494131
0.0888009
0.128108
0.165123
0.196654
0.218877
0.227015
0.210815
0.163324
-0.184972
-0.229397
-0.241491
-0.231593
-0.211213
-0.184326
-0.153021
-0.118538
-0.0813444
-0.0414553
0.00125643
0.0468167
0.094892
0.144469
0.193442
0.238272
0.274152
0.294289
0.283915
0.231455
-0.279731
-0.326184
-0.32933
-0.306038
-0.272457
-0.233892
-0.192675
-0.149842
-0.105391
-0.0587478
-0.00912863
0.044198
0.101638
0.162893
0.226396
0.288679
0.344184
0.38378
0.386435
0.332464
-0.415103
-0.456761
-0.440239
-0.394105
-0.340546
-0.285895
-0.232189
-0.179731
-0.127615
-0.0743347
-0.018173
0.0425787
0.109398
0.183173
0.263539
0.347954
0.430942
0.501386
0.530527
0.485037
-0.617018
-0.63456
-0.577417
-0.493502
-0.410738
-0.334894
-0.266362
-0.20367
-0.144297
-0.0853581
-0.023906
0.042997
0.118219
0.204354
0.303154
0.414459
0.534778
0.652884
0.733005
0.721253
-0.933689
-0.877483
-0.741689
-0.598558
-0.475223
-0.373189
-0.288652
-0.21653
-0.151648
-0.0892285
-0.0248524
0.0457994
0.127203
0.224155
0.341641
0.484081
0.6532
0.841918
1.01503
1.09591
-1.47574
-1.20693
-0.921762
-0.693342
-0.519471
-0.389361
-0.291051
-0.213203
-0.14678
-0.0847806
-0.0213369
0.0491126
0.132582
0.236319
0.369673
0.544436
0.772264
1.05962
1.40285
1.72856
-2.54032
-1.63199
-1.04685
-0.714147
-0.499209
-0.355219
-0.256787
-0.184602
-0.125792
-0.0718794
-0.0164575
0.0463164
0.123015
0.222421
0.357921
0.550321
0.827865
1.23724
1.91156
2.92315
-4.36805
-2.04679
-0.976889
-0.567606
-0.362791
-0.244885
-0.173959
-0.126195
-0.088172
-0.0524381
-0.014012
0.0314972
0.0891492
0.166456
0.276842
0.445848
0.721029
1.22747
2.41176
4.84834
)
;

boundaryField
{
    movingWall
    {
        type            zeroGradient;
    }
    fixedWalls
    {
        type            zeroGradient;
    }
    frontAndBack
    {
        type            empty;
    }
}


// ************************************************************************* //
