/*--------------------------------*- C++ -*----------------------------------*\
  =========                 |
  \\      /  F ield         | OpenFOAM: The Open Source CFD Toolbox
   \\    /   O peration     | Website:  https://openfoam.org
    \\  /    A nd           | Version:  8
     \\/     M anipulation  |
\*---------------------------------------------------------------------------*/
FoamFile
{
    version     2.0;
    format      ascii;
    class       surfaceScalarField;
    location    "0.06";
    object      phi;
}
// * * * * * * * * * * * * * * * * * * * * * * * * * * * * * * * * * * * * * //

dimensions      [0 3 -1 0 0 0 0];

internalField   nonuniform List<scalar> 
760
(
1.263e-08
-1.26297e-08
-2.17153e-08
3.43454e-08
-1.07062e-07
8.53463e-08
-2.27865e-07
1.20802e-07
-3.65842e-07
1.37977e-07
-5.03923e-07
1.38081e-07
-6.27555e-07
1.23632e-07
-7.25181e-07
9.76267e-08
-7.88314e-07
6.31332e-08
-8.11509e-07
2.31949e-08
-7.9243e-07
-1.9079e-08
-7.32049e-07
-6.03808e-08
-6.34929e-07
-9.71206e-08
-5.09482e-07
-1.25447e-07
-3.6806e-07
-1.41422e-07
-2.26644e-07
-1.41417e-07
-1.03807e-07
-1.22837e-07
-1.86404e-08
-8.51669e-08
1.39246e-08
-3.25652e-08
1.39247e-08
-3.20588e-08
1.94287e-08
-1.67071e-07
1.69358e-07
-4.00143e-07
3.18418e-07
-7.02584e-07
4.23244e-07
-1.03801e-06
4.73401e-07
-1.36993e-06
4.70001e-07
-1.66574e-06
4.19443e-07
-1.89871e-06
3.30594e-07
-2.04884e-06
2.13269e-07
-2.10334e-06
7.76946e-08
-2.05694e-06
-6.54771e-08
-1.91235e-06
-2.04969e-07
-1.6807e-06
-3.28779e-07
-1.38175e-06
-4.2439e-07
-1.04368e-06
-4.79494e-07
-7.01669e-07
-4.8343e-07
-3.94938e-07
-4.29567e-07
-1.61485e-07
-3.1862e-07
-2.93481e-08
-1.64701e-07
-1.54234e-08
-8.5031e-08
1.0446e-07
-3.28394e-07
4.1272e-07
-7.01983e-07
6.92007e-07
-1.16255e-06
8.83814e-07
-1.66035e-06
9.71196e-07
-2.14608e-06
9.55732e-07
-2.57551e-06
8.48874e-07
-2.91211e-06
6.67197e-07
-3.12845e-06
4.29611e-07
-3.20694e-06
1.56183e-07
-3.14038e-06
-1.3204e-07
-2.93253e-06
-4.12824e-07
-2.59862e-06
-6.6268e-07
-2.16565e-06
-8.57364e-07
-1.6718e-06
-9.7335e-07
-1.1646e-06
-9.90624e-07
-6.97128e-07
-8.97041e-07
-3.21724e-07
-6.94024e-07
-8.13821e-08
-4.05042e-07
-9.6806e-08
-1.33549e-07
2.38009e-07
-4.8318e-07
7.6235e-07
-9.93774e-07
1.2026e-06
-1.60376e-06
1.4938e-06
-2.24971e-06
1.61714e-06
-2.87158e-06
1.57761e-06
-3.41664e-06
1.39393e-06
-3.84176e-06
1.09231e-06
-4.11469e-06
7.0254e-07
-4.2147e-06
2.56199e-07
-4.13313e-06
-2.13607e-07
-3.87399e-06
-6.71967e-07
-3.45466e-06
-1.08202e-06
-2.90637e-06
-1.40565e-06
-2.27402e-06
-1.60571e-06
-1.61446e-06
-1.65018e-06
-9.92931e-07
-1.51857e-06
-4.77065e-07
-1.20989e-06
-1.29282e-07
-7.52824e-07
-2.26089e-07
-1.78658e-07
4.16667e-07
-6.32606e-07
1.2163e-06
-1.27927e-06
1.84927e-06
-2.0363e-06
2.25083e-06
-2.82536e-06
2.4062e-06
-3.57608e-06
2.32833e-06
-4.22874e-06
2.04659e-06
-4.73559e-06
1.59916e-06
-5.06132e-06
1.02828e-06
-5.18319e-06
3.7807e-07
-5.09123e-06
-3.05573e-07
-4.78885e-06
-9.74346e-07
-4.29387e-06
-1.577e-06
-3.63958e-06
-2.05993e-06
-2.87538e-06
-2.3699e-06
-2.06614e-06
-2.45942e-06
-1.28947e-06
-2.29525e-06
-6.305e-07
-1.86886e-06
-1.74629e-07
-1.2087e-06
-4.00717e-07
-2.23213e-07
6.3988e-07
-7.82637e-07
1.77572e-06
-1.56755e-06
2.63418e-06
-2.47283e-06
3.1561e-06
-3.40402e-06
3.3374e-06
-4.28052e-06
3.20483e-06
-5.03673e-06
2.8028e-06
-5.62189e-06
2.18432e-06
-5.99916e-06
1.40554e-06
-6.14471e-06
5.23616e-07
-6.04734e-06
-4.02943e-07
-5.709e-06
-1.31268e-06
-5.14623e-06
-2.13977e-06
-4.3922e-06
-2.81396e-06
-3.49885e-06
-3.26326e-06
-2.53796e-06
-3.42031e-06
-1.60014e-06
-3.23307e-06
-7.90531e-07
-2.67846e-06
-2.21113e-07
-1.77811e-06
-6.21829e-07
-2.69957e-07
9.09837e-07
-9.39654e-07
2.44542e-06
-1.86763e-06
3.56216e-06
-2.92366e-06
4.21213e-06
-3.99618e-06
4.40992e-06
-4.9948e-06
4.20345e-06
-5.84961e-06
3.65761e-06
-6.50886e-06
2.84357e-06
-6.93601e-06
1.8327e-06
-7.10733e-06
6.94933e-07
-7.01058e-06
-4.9969e-07
-6.64531e-06
-1.67795e-06
-6.02478e-06
-2.7603e-06
-5.17937e-06
-3.65937e-06
-4.16085e-06
-4.28178e-06
-3.04613e-06
-4.53503e-06
-1.93881e-06
-4.34038e-06
-9.66553e-07
-3.65072e-06
-2.72543e-07
-2.47212e-06
-8.94373e-07
-3.21307e-07
1.23114e-06
-1.10922e-06
3.23333e-06
-2.18631e-06
4.63925e-06
-3.39408e-06
5.4199e-06
-4.60319e-06
5.61904e-06
-5.71491e-06
5.31516e-06
-6.65772e-06
4.60042e-06
-7.38192e-06
3.56777e-06
-7.85396e-06
2.30474e-06
-8.05199e-06
8.92959e-07
-7.96325e-06
-5.88434e-07
-7.58391e-06
-2.05728e-06
-6.92156e-06
-3.42265e-06
-6.00019e-06
-4.58074e-06
-4.86724e-06
-5.41474e-06
-3.60117e-06
-5.8011e-06
-2.31717e-06
-5.62439e-06
-1.16744e-06
-4.80045e-06
-3.32583e-07
-3.30698e-06
-1.22696e-06
-3.79516e-07
1.61066e-06
-1.29595e-06
4.14976e-06
-2.52735e-06
5.87065e-06
-3.88262e-06
6.77518e-06
-5.21475e-06
6.95117e-06
-6.41977e-06
6.52018e-06
-7.42907e-06
5.60973e-06
-8.19967e-06
4.33837e-06
-8.70497e-06
2.81004e-06
-8.92766e-06
1.11565e-06
-8.85555e-06
-6.60549e-07
-8.48063e-06
-2.4322e-06
-7.80196e-06
-4.10132e-06
-6.83233e-06
-5.55038e-06
-5.60862e-06
-6.63844e-06
-4.20461e-06
-7.2051e-06
-2.7429e-06
-7.0861e-06
-1.40106e-06
-6.14229e-06
-4.04871e-07
-4.30316e-06
-1.63183e-06
-4.47231e-07
2.05789e-06
-1.50422e-06
5.20675e-06
-2.89133e-06
7.25776e-06
-4.37956e-06
8.26341e-06
-5.80596e-06
8.37756e-06
-7.0671e-06
7.78132e-06
-8.10445e-06
6.64708e-06
-8.88848e-06
5.1224e-06
-9.40501e-06
3.32657e-06
-9.64506e-06
1.3557e-06
-9.59878e-06
-7.06829e-07
-9.2536e-06
-2.77738e-06
-8.59701e-06
-4.75791e-06
-7.62467e-06
-6.52272e-06
-6.35432e-06
-7.90879e-06
-4.84494e-06
-8.71449e-06
-3.21806e-06
-8.71298e-06
-1.67436e-06
-7.686e-06
-4.93491e-07
-5.48403e-06
-2.12532e-06
-5.28543e-07
2.58643e-06
-1.7395e-06
6.41771e-06
-3.27571e-06
8.79397e-06
-4.86483e-06
9.85253e-06
-6.33316e-06
9.8459e-06
-7.58789e-06
9.03604e-06
-8.59112e-06
7.65032e-06
-9.33592e-06
5.8672e-06
-9.82737e-06
3.81801e-06
-1.00695e-05
1.59785e-06
-1.00575e-05
-7.18852e-07
-9.77448e-06
-3.06039e-06
-9.19387e-06
-5.33852e-06
-8.28779e-06
-7.4288e-06
-7.04391e-06
-9.15266e-06
-5.49173e-06
-1.02667e-05
-3.73654e-06
-1.04682e-05
-1.99353e-06
-9.42901e-06
-6.03843e-07
-6.87372e-06
-2.72916e-06
-6.30829e-07
3.21726e-06
-2.01009e-06
7.79697e-06
-3.67391e-06
1.04578e-05
-5.30351e-06
1.14821e-05
-6.72676e-06
1.12691e-05
-7.87788e-06
1.01872e-05
-8.75444e-06
8.52687e-06
-9.38307e-06
6.49583e-06
-9.79565e-06
4.2306e-06
-1.00142e-05
1.81641e-06
-1.0042e-05
-6.91034e-07
-9.85954e-06
-3.24288e-06
-9.42496e-06
-5.7731e-06
-8.68154e-06
-8.17223e-06
-7.57504e-06
-1.02592e-05
-6.08604e-06
-1.17557e-05
-4.27912e-06
-1.22751e-05
-2.36382e-06
-1.13443e-05
-7.4409e-07
-8.49345e-06
-3.47325e-06
-7.67783e-07
3.98504e-06
-2.32852e-06
9.3577e-06
-4.07067e-06
1.21999e-05
-5.63546e-06
1.30469e-05
-6.87765e-06
1.25113e-05
-7.78407e-06
1.10936e-05
-8.40637e-06
9.14918e-06
-8.81608e-06
6.90553e-06
-9.07801e-06
4.49253e-06
-9.23576e-06
1.97416e-06
-9.30369e-06
-6.23104e-07
-9.2624e-06
-3.28417e-06
-9.05692e-06
-5.97858e-06
-8.59999e-06
-8.62917e-06
-7.78589e-06
-1.10732e-05
-6.5242e-06
-1.30174e-05
-4.8033e-06
-1.3996e-05
-2.78754e-06
-1.33601e-05
-9.27484e-07
-1.03535e-05
-4.40073e-06
-9.63928e-07
4.94897e-06
-2.70929e-06
1.11031e-05
-4.42747e-06
1.39181e-05
-5.75171e-06
1.43712e-05
-6.61155e-06
1.33712e-05
-7.08245e-06
1.15645e-05
-7.2898e-06
9.35652e-06
-7.35742e-06
6.97315e-06
-7.38414e-06
4.51925e-06
-7.43463e-06
2.02464e-06
-7.53551e-06
-5.22221e-07
-7.67176e-06
-3.14791e-06
-7.78194e-06
-5.8684e-06
-7.75425e-06
-8.65686e-06
-7.43023e-06
-1.13973e-05
-6.63013e-06
-1.38175e-05
-5.22179e-06
-1.54043e-05
-3.25631e-06
-1.53255e-05
-1.17529e-06
-1.24345e-05
-5.57602e-06
-1.25841e-06
6.20738e-06
-3.15259e-06
1.29973e-05
-4.64231e-06
1.54078e-05
-5.44372e-06
1.51726e-05
-5.64191e-06
1.35694e-05
-5.44295e-06
1.13655e-05
-5.05794e-06
8.97152e-06
-4.65871e-06
6.57392e-06
-4.36837e-06
4.22891e-06
-4.26458e-06
1.92086e-06
-4.3835e-06
-4.03304e-07
-4.71915e-06
-2.81226e-06
-5.21606e-06
-5.37148e-06
-5.75584e-06
-8.11708e-06
-6.14328e-06
-1.10098e-05
-6.10811e-06
-1.38526e-05
-5.35636e-06
-1.61561e-05
-3.7256e-06
-1.69563e-05
-1.51631e-06
-1.46438e-05
-7.09234e-06
-1.69379e-06
7.90117e-06
-3.58079e-06
1.48843e-05
-4.44941e-06
1.62765e-05
-4.30201e-06
1.50252e-05
-3.49094e-06
1.27583e-05
-2.38042e-06
1.0255e-05
-1.25297e-06
7.84407e-06
-3.00657e-07
5.62161e-06
3.55448e-07
3.5728e-06
6.43418e-07
1.63289e-06
5.25943e-07
-2.85829e-07
-3.46588e-09
-2.28285e-06
-9.12413e-07
-4.46254e-06
-2.10773e-06
-6.92176e-06
-3.40012e-06
-9.71745e-06
-4.46584e-06
-1.27869e-05
-4.84203e-06
-1.57799e-05
-4.03883e-06
-1.77595e-05
-1.96507e-06
-1.67176e-05
-9.05741e-06
-2.24593e-06
1.01471e-05
-3.64528e-06
1.62836e-05
-3.19244e-06
1.58236e-05
-1.5331e-06
1.33658e-05
6.24538e-07
1.06006e-05
2.79768e-06
8.08187e-06
4.7021e-06
5.93965e-06
6.18718e-06
4.13652e-06
7.17813e-06
2.58186e-06
7.63621e-06
1.1748e-06
7.53667e-06
-1.86285e-07
6.86063e-06
-1.60681e-06
5.60073e-06
-3.20264e-06
3.78465e-06
-5.10568e-06
1.52463e-06
-7.45743e-06
-9.00231e-07
-1.0362e-05
-2.94249e-06
-1.37376e-05
-3.73676e-06
-1.69652e-05
-2.43298e-06
-1.80214e-05
-1.14904e-05
-2.58174e-06
1.27288e-05
-2.21824e-06
1.59201e-05
6.37468e-07
1.29679e-05
4.32702e-06
9.67629e-06
7.91816e-06
7.0095e-06
1.10104e-05
4.98963e-06
1.34662e-05
3.48388e-06
1.52649e-05
2.33775e-06
1.64257e-05
1.42114e-06
1.69673e-05
6.33124e-07
1.68904e-05
-1.09347e-07
1.61689e-05
-8.85261e-07
1.47503e-05
-1.78406e-06
1.25678e-05
-2.92322e-06
9.57854e-06
-4.46815e-06
5.85631e-06
-6.63982e-06
1.78211e-06
-9.66342e-06
-1.62474e-06
-1.35584e-05
-2.47724e-06
-1.71689e-05
-1.39676e-05
-7.85302e-07
1.35141e-05
4.06819e-06
1.10666e-05
1.02569e-05
6.77917e-06
1.57105e-05
4.22269e-06
2.00224e-05
2.6976e-06
2.32662e-05
1.74585e-06
2.56155e-05
1.13457e-06
2.72315e-05
7.21718e-07
2.82326e-05
4.20073e-07
2.86896e-05
1.76103e-07
2.86271e-05
-4.6864e-08
2.80218e-05
-2.79955e-07
2.67974e-05
-5.59568e-07
2.48141e-05
-9.39933e-07
2.18613e-05
-1.5154e-06
1.76785e-05
-2.45696e-06
1.20867e-05
-4.07167e-06
5.436e-06
-6.90769e-06
-1.40488e-07
-1.15924e-05
-1.41081e-05
1.35141e-05
2.45807e-05
3.13599e-05
3.55826e-05
3.82802e-05
4.00261e-05
4.11606e-05
4.18823e-05
4.23024e-05
4.24785e-05
4.24317e-05
4.21517e-05
4.15921e-05
4.06522e-05
3.91368e-05
3.66798e-05
3.26082e-05
2.57005e-05
1.41081e-05
)
;

boundaryField
{
    movingWall
    {
        type            calculated;
        value           uniform 0;
    }
    fixedWalls
    {
        type            calculated;
        value           uniform 0;
    }
    frontAndBack
    {
        type            empty;
        value           nonuniform List<scalar> 0();
    }
}


// ************************************************************************* //
