/*--------------------------------*- C++ -*----------------------------------*\
  =========                 |
  \\      /  F ield         | OpenFOAM: The Open Source CFD Toolbox
   \\    /   O peration     | Website:  https://openfoam.org
    \\  /    A nd           | Version:  8
     \\/     M anipulation  |
\*---------------------------------------------------------------------------*/
FoamFile
{
    version     2.0;
    format      ascii;
    class       volScalarField;
    location    "35";
    object      p;
}
// * * * * * * * * * * * * * * * * * * * * * * * * * * * * * * * * * * * * * //

dimensions      [0 2 -2 0 0 0 0];

internalField   nonuniform List<scalar> 
400
(
-6.33837e-11
-6.54138e-11
-6.95342e-11
-7.50593e-11
-8.10794e-11
-8.72418e-11
-9.33772e-11
-9.9215e-11
-1.04454e-10
-1.08796e-10
-1.11935e-10
-1.13541e-10
-1.13264e-10
-1.10714e-10
-1.05467e-10
-9.69757e-11
-8.47339e-11
-6.76431e-11
-4.57394e-11
-1.42757e-11
-6.07075e-11
-6.20992e-11
-6.51681e-11
-6.94995e-11
-7.43402e-11
-7.93466e-11
-8.43399e-11
-8.90613e-11
-9.32236e-11
-9.65471e-11
-9.87521e-11
-9.95473e-11
-9.8619e-11
-9.56156e-11
-9.01755e-11
-8.18141e-11
-7.01924e-11
-5.41743e-11
-3.48025e-11
-6.82763e-12
-5.59511e-11
-5.67131e-11
-5.87544e-11
-6.18815e-11
-6.55107e-11
-6.93148e-11
-7.31092e-11
-7.66606e-11
-7.97114e-11
-8.20131e-11
-8.33271e-11
-8.34098e-11
-8.19942e-11
-7.87746e-11
-7.34601e-11
-6.56619e-11
-5.52139e-11
-4.11086e-11
-2.5206e-11
-1.76403e-12
-5.01289e-11
-5.06256e-11
-5.20831e-11
-5.4412e-11
-5.71822e-11
-6.01141e-11
-6.30302e-11
-6.57287e-11
-6.79898e-11
-6.96015e-11
-7.03632e-11
-7.00716e-11
-6.85031e-11
-6.53972e-11
-6.05189e-11
-5.35516e-11
-4.44512e-11
-3.23269e-11
-1.93921e-11
6.31118e-13
-4.3646e-11
-4.40302e-11
-4.51077e-11
-4.68302e-11
-4.89085e-11
-5.11224e-11
-5.33127e-11
-5.53129e-11
-5.69443e-11
-5.80346e-11
-5.8419e-11
-5.7925e-11
-5.63681e-11
-5.35376e-11
-4.92462e-11
-4.32279e-11
-3.55074e-11
-2.52962e-11
-1.48927e-11
2.04508e-12
-3.66815e-11
-3.69727e-11
-3.77496e-11
-3.89716e-11
-4.04575e-11
-4.20453e-11
-4.36037e-11
-4.5002e-11
-4.61026e-11
-4.67758e-11
-4.68924e-11
-4.63051e-11
-4.48628e-11
-4.24057e-11
-3.87873e-11
-3.3782e-11
-2.74606e-11
-1.91483e-11
-1.10223e-11
2.80235e-12
-2.93669e-11
-2.95741e-11
-3.01008e-11
-3.09176e-11
-3.19063e-11
-3.29573e-11
-3.39761e-11
-3.48658e-11
-3.55286e-11
-3.58771e-11
-3.58185e-11
-3.523e-11
-3.39881e-11
-3.19815e-11
-2.91001e-11
-2.51506e-11
-2.02325e-11
-1.3813e-11
-7.76941e-12
2.93171e-12
-2.18056e-11
-2.19407e-11
-2.22586e-11
-2.27404e-11
-2.33067e-11
-2.3897e-11
-2.44541e-11
-2.49145e-11
-2.52182e-11
-2.53168e-11
-2.5153e-11
-2.46316e-11
-2.36554e-11
-2.21537e-11
-2.00521e-11
-1.71935e-11
-1.36803e-11
-9.14226e-12
-5.02315e-12
2.56442e-12
-1.40816e-11
-1.41471e-11
-1.42856e-11
-1.4472e-11
-1.4665e-11
-1.48498e-11
-1.50003e-11
-1.50857e-11
-1.50865e-11
-1.49888e-11
-1.47647e-11
-1.43519e-11
-1.36855e-11
-1.27286e-11
-1.14393e-11
-9.70732e-12
-7.61569e-12
-4.95721e-12
-2.64674e-12
1.841e-12
-6.26381e-12
-6.26323e-12
-6.23529e-12
-6.14716e-12
-6e-12
-5.81409e-12
-5.58958e-12
-5.33014e-12
-5.05883e-12
-4.79612e-12
-4.53597e-12
-4.25092e-12
-3.91874e-12
-3.5357e-12
-3.08599e-12
-2.51486e-12
-1.86837e-12
-1.09167e-12
-5.08131e-13
8.98706e-13
1.58239e-12
1.64439e-12
1.83916e-12
2.19156e-12
2.66137e-12
3.20349e-12
3.7926e-12
4.38959e-12
4.92606e-12
5.34656e-12
5.63805e-12
5.79499e-12
5.78792e-12
5.58272e-12
5.17341e-12
4.56114e-12
3.74576e-12
2.64487e-12
1.54946e-12
-1.14509e-13
9.39642e-12
9.52406e-12
9.89442e-12
1.05139e-11
1.131e-11
1.2217e-11
1.31815e-11
1.41272e-11
1.49431e-11
1.55364e-11
1.58719e-11
1.59134e-11
1.5576e-11
1.47827e-11
1.35068e-11
1.17036e-11
9.42267e-12
6.45309e-12
3.67642e-12
-1.06343e-12
1.71208e-11
1.73259e-11
1.78867e-11
1.87957e-11
1.99478e-11
2.12513e-11
2.26206e-11
2.39439e-11
2.50702e-11
2.58685e-11
2.62759e-11
2.62237e-11
2.55756e-11
2.42093e-11
2.20761e-11
1.90927e-11
1.53533e-11
1.05172e-11
5.99086e-12
-1.83628e-12
2.4683e-11
2.49779e-11
2.57545e-11
2.69994e-11
2.85619e-11
3.03138e-11
3.21367e-11
3.38842e-11
3.53691e-11
3.64223e-11
3.6947e-11
3.68396e-11
3.59181e-11
3.40179e-11
3.10646e-11
2.69368e-11
2.17527e-11
1.50364e-11
8.62137e-12
-2.30342e-12
3.19838e-11
3.2379e-11
3.34141e-11
3.5067e-11
3.7116e-11
3.93881e-11
4.17326e-11
4.39707e-11
4.58825e-11
4.72623e-11
4.79751e-11
4.78795e-11
4.67539e-11
4.43951e-11
4.06954e-11
3.54864e-11
2.88772e-11
2.02567e-11
1.17593e-11
-2.28147e-12
3.89054e-11
3.94099e-11
4.07603e-11
4.29077e-11
4.55337e-11
4.84111e-11
5.13592e-11
5.41682e-11
5.65896e-11
5.83858e-11
5.93817e-11
5.93948e-11
5.81671e-11
5.54584e-11
5.11167e-11
4.49107e-11
3.69016e-11
2.63641e-11
1.55761e-11
-1.59539e-12
4.53269e-11
4.59684e-11
4.77093e-11
5.04466e-11
5.37447e-11
5.73181e-11
6.09559e-11
6.44214e-11
6.74431e-11
6.97563e-11
7.11456e-11
7.13838e-11
7.01746e-11
6.72401e-11
6.23743e-11
5.52666e-11
4.58827e-11
3.34125e-11
2.01053e-11
-1.94162e-13
5.11027e-11
5.20246e-11
5.43501e-11
5.78619e-11
6.19991e-11
6.64249e-11
7.09026e-11
7.51746e-11
7.89529e-11
8.19482e-11
8.39021e-11
8.45388e-11
8.35225e-11
8.05298e-11
7.52896e-11
6.74012e-11
5.66897e-11
4.22321e-11
2.59827e-11
2.21719e-12
5.58416e-11
5.73881e-11
6.07255e-11
6.54142e-11
7.07518e-11
7.63643e-11
8.20032e-11
8.74028e-11
9.22641e-11
9.62715e-11
9.91178e-11
1.00476e-10
9.99722e-11
9.72346e-11
9.19083e-11
8.34941e-11
7.16497e-11
5.52968e-11
3.55756e-11
7.23751e-12
5.85452e-11
6.07164e-11
6.50803e-11
7.09432e-11
7.74597e-11
8.42254e-11
9.09841e-11
9.74731e-11
1.03393e-10
1.08412e-10
1.12184e-10
1.1434e-10
1.14478e-10
1.12196e-10
1.07077e-10
9.85513e-11
8.61027e-11
6.86904e-11
4.64096e-11
1.45594e-11
)
;

boundaryField
{
    inlet
    {
        type            zeroGradient;
    }
    outlet
    {
        type            fixedValue;
        value           uniform 0;
    }
    up
    {
        type            zeroGradient;
    }
    down
    {
        type            zeroGradient;
    }
    frontAndBack
    {
        type            empty;
    }
}


// ************************************************************************* //
