/*--------------------------------*- C++ -*----------------------------------*\
  =========                 |
  \\      /  F ield         | OpenFOAM: The Open Source CFD Toolbox
   \\    /   O peration     | Website:  https://openfoam.org
    \\  /    A nd           | Version:  8
     \\/     M anipulation  |
\*---------------------------------------------------------------------------*/
FoamFile
{
    version     2.0;
    format      ascii;
    class       surfaceScalarField;
    location    "35";
    object      phi;
}
// * * * * * * * * * * * * * * * * * * * * * * * * * * * * * * * * * * * * * //

dimensions      [0 3 -1 0 0 0 0];

internalField   nonuniform List<scalar> 
760
(
0.0004
-9.73787e-16
0.0004
-4.61422e-15
0.0004
-1.059e-14
0.0004
-1.92363e-14
0.0004
-3.10324e-14
0.0004
-4.66289e-14
0.0004
-6.68364e-14
0.0004
-9.26074e-14
0.0004
-1.25072e-13
0.0004
-1.65579e-13
0.0004
-2.15738e-13
0.0004
-2.77458e-13
0.0004
-3.53009e-13
0.0004
-4.4509e-13
0.0004
-5.56905e-13
0.0004
-6.923e-13
0.0004
-8.5559e-13
0.0004
-1.05331e-12
0.0004
-1.28334e-12
-1.61202e-12
0.0004
-1.51311e-15
0.0004
-6.193e-15
0.0004
-1.32509e-14
0.0004
-2.28906e-14
0.0004
-3.56259e-14
0.0004
-5.2135e-14
0.0004
-7.32326e-14
0.0004
-9.98733e-14
0.0004
-1.33183e-13
0.0004
-1.74501e-13
0.0004
-2.25418e-13
0.0004
-2.87825e-13
0.0004
-3.63968e-13
0.0004
-4.56518e-13
0.0004
-5.68644e-13
0.0004
-7.04148e-13
0.0004
-8.67322e-13
0.0004
-1.0646e-12
0.0004
-1.29399e-12
-1.6218e-12
0.0004
-1.88412e-15
0.0004
-7.44113e-15
0.0004
-1.54751e-14
0.0004
-2.60494e-14
0.0004
-3.9675e-14
0.0004
-5.7049e-14
0.0004
-7.89902e-14
0.0004
-1.06456e-13
0.0004
-1.40571e-13
0.0004
-1.82665e-13
0.0004
-2.34317e-13
0.0004
-2.97401e-13
0.0004
-3.74143e-13
0.0004
-4.67194e-13
0.0004
-5.79701e-13
0.0004
-7.15437e-13
0.0004
-8.787e-13
0.0004
-1.0759e-12
0.0004
-1.30528e-12
-1.63328e-12
0.0004
-2.12365e-15
0.0004
-8.35787e-15
0.0004
-1.72111e-14
0.0004
-2.86099e-14
0.0004
-4.30405e-14
0.0004
-6.12053e-14
0.0004
-8.39245e-14
0.0004
-1.12156e-13
0.0004
-1.47021e-13
0.0004
-1.89846e-13
0.0004
-2.42199e-13
0.0004
-3.05943e-13
0.0004
-3.8329e-13
0.0004
-4.76876e-13
0.0004
-5.89838e-13
0.0004
-7.25937e-13
0.0004
-8.89498e-13
0.0004
-1.08692e-12
0.0004
-1.31671e-12
-1.64526e-12
0.0004
-2.28741e-15
0.0004
-9.02179e-15
0.0004
-1.85224e-14
0.0004
-3.06022e-14
0.0004
-4.5715e-14
0.0004
-6.45622e-14
0.0004
-8.79617e-14
0.0004
-1.16869e-13
0.0004
-1.52403e-13
0.0004
-1.95886e-13
0.0004
-2.4888e-13
0.0004
-3.13239e-13
0.0004
-3.91167e-13
0.0004
-4.85292e-13
0.0004
-5.9875e-13
0.0004
-7.35297e-13
0.0004
-8.99296e-13
0.0004
-1.09715e-12
0.0004
-1.32757e-12
-1.65691e-12
0.0004
-2.40133e-15
0.0004
-9.49723e-15
0.0004
-1.94872e-14
0.0004
-3.21002e-14
0.0004
-4.7757e-14
0.0004
-6.71587e-14
0.0004
-9.11184e-14
0.0004
-1.20588e-13
0.0004
-1.56686e-13
0.0004
-2.0073e-13
0.0004
-2.54278e-13
0.0004
-3.19178e-13
0.0004
-3.97631e-13
0.0004
-4.92261e-13
0.0004
-6.06208e-13
0.0004
-7.4323e-13
0.0004
-9.07729e-13
0.0004
-1.1061e-12
0.0004
-1.33726e-12
-1.66752e-12
0.0004
-2.47956e-15
0.0004
-9.82878e-15
0.0004
-2.01738e-14
0.0004
-3.31808e-14
0.0004
-4.92464e-14
0.0004
-6.90696e-14
0.0004
-9.34603e-14
0.0004
-1.23368e-13
0.0004
-1.59909e-13
0.0004
-2.04399e-13
0.0004
-2.58392e-13
0.0004
-3.23736e-13
0.0004
-4.02629e-13
0.0004
-4.97695e-13
0.0004
-6.12077e-13
0.0004
-7.49544e-13
0.0004
-9.14529e-13
0.0004
-1.11343e-12
0.0004
-1.34531e-12
-1.67645e-12
0.0004
-2.53047e-15
0.0004
-1.00464e-14
0.0004
-2.0633e-14
0.0004
-3.39091e-14
0.0004
-5.02576e-14
0.0004
-7.0374e-14
0.0004
-9.50667e-14
0.0004
-1.25284e-13
0.0004
-1.62142e-13
0.0004
-2.06954e-13
0.0004
-2.61273e-13
0.0004
-3.26946e-13
0.0004
-4.06171e-13
0.0004
-5.01573e-13
0.0004
-6.163e-13
0.0004
-7.5413e-13
0.0004
-9.19522e-13
0.0004
-1.11887e-12
0.0004
-1.35135e-12
-1.68325e-12
0.0004
-2.55786e-15
0.0004
-1.01695e-14
0.0004
-2.08983e-14
0.0004
-3.43322e-14
0.0004
-5.08471e-14
0.0004
-7.11359e-14
0.0004
-9.60072e-14
0.0004
-1.26409e-13
0.0004
-1.63457e-13
0.0004
-2.08464e-13
0.0004
-2.62983e-13
0.0004
-3.28859e-13
0.0004
-4.08294e-13
0.0004
-5.03912e-13
0.0004
-6.18866e-13
0.0004
-7.56939e-13
0.0004
-9.2261e-13
0.0004
-1.12227e-12
0.0004
-1.35516e-12
-1.68758e-12
0.0004
-2.56391e-15
0.0004
-1.02085e-14
0.0004
-2.09881e-14
0.0004
-3.44778e-14
0.0004
-5.10494e-14
0.0004
-7.1396e-14
0.0004
-9.63276e-14
0.0004
-1.26792e-13
0.0004
-1.63905e-13
0.0004
-2.08981e-13
0.0004
-2.63571e-13
0.0004
-3.29521e-13
0.0004
-4.09034e-13
0.0004
-5.04737e-13
0.0004
-6.19781e-13
0.0004
-7.57956e-13
0.0004
-9.23747e-13
0.0004
-1.12355e-12
0.0004
-1.35661e-12
-1.68926e-12
0.0004
-2.55054e-15
0.0004
-1.01651e-14
0.0004
-2.09081e-14
0.0004
-3.43541e-14
0.0004
-5.08756e-14
0.0004
-7.11682e-14
0.0004
-9.60437e-14
0.0004
-1.26451e-13
0.0004
-1.63506e-13
0.0004
-2.08523e-13
0.0004
-2.63056e-13
0.0004
-3.28949e-13
0.0004
-4.08407e-13
0.0004
-5.04057e-13
0.0004
-6.1905e-13
0.0004
-7.57176e-13
0.0004
-9.22916e-13
0.0004
-1.12266e-12
0.0004
-1.35566e-12
-1.68822e-12
0.0004
-2.5176e-15
0.0004
-1.00355e-14
0.0004
-2.06518e-14
0.0004
-3.39512e-14
0.0004
-5.03135e-14
0.0004
-7.0438e-14
0.0004
-9.51393e-14
0.0004
-1.25368e-13
0.0004
-1.6224e-13
0.0004
-2.07071e-13
0.0004
-2.61418e-13
0.0004
-3.27124e-13
0.0004
-4.06396e-13
0.0004
-5.01859e-13
0.0004
-6.16664e-13
0.0004
-7.54597e-13
0.0004
-9.20125e-13
0.0004
-1.11964e-12
0.0004
-1.35232e-12
-1.68449e-12
0.0004
-2.46174e-15
0.0004
-9.81029e-15
0.0004
-2.01999e-14
0.0004
-3.32408e-14
0.0004
-4.93273e-14
0.0004
-6.91637e-14
0.0004
-9.35679e-14
0.0004
-1.23493e-13
0.0004
-1.60056e-13
0.0004
-2.04575e-13
0.0004
-2.58608e-13
0.0004
-3.24002e-13
0.0004
-4.02963e-13
0.0004
-4.98118e-13
0.0004
-6.12613e-13
0.0004
-7.5023e-13
0.0004
-9.15411e-13
0.0004
-1.11455e-12
0.0004
-1.34673e-12
-1.67826e-12
0.0004
-2.37758e-15
0.0004
-9.47229e-15
0.0004
-1.95188e-14
0.0004
-3.21761e-14
0.0004
-4.78596e-14
0.0004
-6.72801e-14
0.0004
-9.1259e-14
0.0004
-1.20753e-13
0.0004
-1.56881e-13
0.0004
-2.00964e-13
0.0004
-2.54563e-13
0.0004
-3.19529e-13
0.0004
-3.9807e-13
0.0004
-4.92814e-13
0.0004
-6.06904e-13
0.0004
-7.44117e-13
0.0004
-9.08863e-13
0.0004
-1.10754e-12
0.0004
-1.33908e-12
-1.66982e-12
0.0004
-2.25852e-15
0.0004
-8.99265e-15
0.0004
-1.85578e-14
0.0004
-3.0691e-14
0.0004
-4.58352e-14
0.0004
-6.47073e-14
0.0004
-8.81324e-14
0.0004
-1.1707e-13
0.0004
-1.52644e-13
0.0004
-1.96175e-13
0.0004
-2.49231e-13
0.0004
-3.1367e-13
0.0004
-3.91704e-13
0.0004
-4.85963e-13
0.0004
-5.99591e-13
0.0004
-7.36361e-13
0.0004
-9.00649e-13
0.0004
-1.09885e-12
0.0004
-1.32972e-12
-1.65962e-12
0.0004
-2.09348e-15
0.0004
-8.3273e-15
0.0004
-1.72492e-14
0.0004
-2.87072e-14
0.0004
-4.31735e-14
0.0004
-6.13693e-14
0.0004
-8.41211e-14
0.0004
-1.12391e-13
0.0004
-1.47303e-13
0.0004
-1.90185e-13
0.0004
-2.42611e-13
0.0004
-3.06449e-13
0.0004
-3.83915e-13
0.0004
-4.77652e-13
0.0004
-5.90805e-13
0.0004
-7.27152e-13
0.0004
-8.91033e-13
0.0004
-1.08885e-12
0.0004
-1.31913e-12
-1.6483e-12
0.0004
-1.85696e-15
0.0004
-7.41239e-15
0.0004
-1.55151e-14
0.0004
-2.61507e-14
0.0004
-3.98154e-14
0.0004
-5.72267e-14
0.0004
-7.92075e-14
0.0004
-1.06718e-13
0.0004
-1.40887e-13
0.0004
-1.83047e-13
0.0004
-2.34782e-13
0.0004
-2.97971e-13
0.0004
-3.74845e-13
0.0004
-4.68057e-13
0.0004
-5.8077e-13
0.0004
-7.16771e-13
0.0004
-8.80377e-13
0.0004
-1.078e-12
0.0004
-1.30792e-12
-1.63659e-12
0.0004
-1.49225e-15
0.0004
-6.16765e-15
0.0004
-1.32928e-14
0.0004
-2.29921e-14
0.0004
-3.57678e-14
0.0004
-5.23208e-14
0.0004
-7.34641e-14
0.0004
-1.00155e-13
0.0004
-1.33525e-13
0.0004
-1.74916e-13
0.0004
-2.25924e-13
0.0004
-2.88446e-13
0.0004
-3.64729e-13
0.0004
-4.57448e-13
0.0004
-5.69787e-13
0.0004
-7.05567e-13
0.0004
-8.69102e-13
0.0004
-1.06683e-12
0.0004
-1.29678e-12
-1.62532e-12
0.0004
-9.63817e-16
0.0004
-4.59807e-15
0.0004
-1.06411e-14
0.0004
-1.93414e-14
0.0004
-3.11774e-14
0.0004
-4.68266e-14
0.0004
-6.7087e-14
0.0004
-9.2913e-14
0.0004
-1.25442e-13
0.0004
-1.66028e-13
0.0004
-2.16286e-13
0.0004
-2.7813e-13
0.0004
-3.53827e-13
0.0004
-4.4608e-13
0.0004
-5.5811e-13
0.0004
-6.93787e-13
0.0004
-8.57445e-13
0.0004
-1.05562e-12
0.0004
-1.28622e-12
-1.61568e-12
0.0004
0.0004
0.0004
0.0004
0.0004
0.0004
0.0004
0.0004
0.0004
0.0004
0.0004
0.0004
0.0004
0.0004
0.0004
0.0004
0.0004
0.0004
0.0004
)
;

boundaryField
{
    inlet
    {
        type            calculated;
        value           nonuniform List<scalar> 
20
(
-0.0004
-0.0004
-0.0004
-0.0004
-0.0004
-0.0004
-0.0004
-0.0004
-0.0004
-0.0004
-0.0004
-0.0004
-0.0004
-0.0004
-0.0004
-0.0004
-0.0004
-0.0004
-0.0004
-0.0004
)
;
    }
    outlet
    {
        type            calculated;
        value           nonuniform List<scalar> 
20
(
0.0004
0.0004
0.0004
0.0004
0.0004
0.0004
0.0004
0.0004
0.0004
0.0004
0.0004
0.0004
0.0004
0.0004
0.0004
0.0004
0.0004
0.0004
0.0004
0.0004
)
;
    }
    up
    {
        type            calculated;
        value           nonuniform List<scalar> 
20
(
-2.50551e-16
-2.73318e-15
-7.77949e-15
-1.54794e-14
-2.63424e-14
-4.10475e-14
-6.03891e-14
-8.53179e-14
-1.16974e-13
-1.56724e-13
-2.06203e-13
-2.67353e-13
-3.42465e-13
-4.34265e-13
-5.46016e-13
-6.81636e-13
-8.45559e-13
-1.04433e-12
-1.2763e-12
-1.60798e-12
)
;
    }
    down
    {
        type            calculated;
        value           nonuniform List<scalar> 
20
(
2.65416e-16
2.75723e-15
7.72905e-15
1.53733e-14
2.61969e-14
4.08452e-14
6.01242e-14
8.49881e-14
1.16572e-13
1.56238e-13
2.05611e-13
2.66626e-13
3.41578e-13
4.33199e-13
5.44735e-13
6.80078e-13
8.43628e-13
1.04193e-12
1.27332e-12
1.60421e-12
)
;
    }
    frontAndBack
    {
        type            empty;
        value           nonuniform List<scalar> 0();
    }
}


// ************************************************************************* //
