/*--------------------------------*- C++ -*----------------------------------*\
  =========                 |
  \\      /  F ield         | OpenFOAM: The Open Source CFD Toolbox
   \\    /   O peration     | Website:  https://openfoam.org
    \\  /    A nd           | Version:  8
     \\/     M anipulation  |
\*---------------------------------------------------------------------------*/
FoamFile
{
    version     2.0;
    format      ascii;
    class       volScalarField;
    location    "0.18";
    object      p;
}
// * * * * * * * * * * * * * * * * * * * * * * * * * * * * * * * * * * * * * //

dimensions      [0 2 -2 0 0 0 0];

internalField   nonuniform List<scalar> 
400
(
7.68578e-07
-0.00581627
-0.0129436
-0.0183871
-0.0203973
-0.0181998
-0.0117356
-0.00144952
0.0118644
0.0271671
0.0432524
0.0588215
0.0725694
0.0832944
0.0900378
0.0922553
0.0900209
0.0842466
0.0768951
0.0710913
0.00576914
-0.000217838
-0.00579946
-0.00953301
-0.0105846
-0.0084152
-0.0029511
0.00549267
0.0163197
0.0287259
0.041761
0.0543943
0.0655927
0.0744155
0.0801269
0.0823253
0.0810912
0.0770731
0.0712959
0.0653497
0.0133134
0.00503126
-0.000993309
-0.00441557
-0.00526015
-0.00324783
0.00162002
0.0090454
0.0185188
0.0293641
0.0407778
0.0518795
0.0617767
0.0696441
0.074816
0.0768902
0.0758587
0.0721081
0.0658312
0.0575787
0.0201104
0.00869152
0.00122483
-0.00266411
-0.00371239
-0.00187203
0.00274669
0.00980098
0.0187968
0.0291106
0.0400062
0.0506668
0.0602447
0.0679278
0.0730166
0.0750181
0.0737876
0.069483
0.0616325
0.0501548
0.0244675
0.00976843
0.000586883
-0.00398478
-0.00529477
-0.00349606
0.00118877
0.00835051
0.017479
0.0279664
0.039102
0.0500864
0.060065
0.0681817
0.0736446
0.0758191
0.0743954
0.069321
0.0595578
0.0445975
0.0251421
0.00714817
-0.00380429
-0.0090551
-0.0105046
-0.00848827
-0.00334181
0.00444704
0.0143328
0.0256995
0.0378346
0.049924
0.0610687
0.0703242
0.076757
0.079542
0.0781689
0.0723676
0.0605721
0.0419559
0.0210611
-0.000257914
-0.0129336
-0.0187049
-0.0200199
-0.0173996
-0.0113004
-0.00229859
0.00901392
0.0220012
0.0359352
0.04997
0.0631376
0.0743708
0.0825481
0.0865978
0.0857534
0.0794827
0.0656513
0.0431399
0.0111181
-0.0136042
-0.0278687
-0.0338455
-0.0345894
-0.030839
-0.0231904
-0.0123192
0.00113358
0.0165144
0.0330838
0.0499648
0.0661141
0.0803201
0.0912308
0.0974613
0.0979051
0.0916723
0.0759229
0.0491845
-0.00598108
-0.0342402
-0.0498564
-0.0555341
-0.0550706
-0.0494908
-0.0395657
-0.0260818
-0.00972253
0.00885952
0.0289383
0.0496305
0.0698335
0.0881893
0.103081
0.112735
0.115587
0.110228
0.0928545
0.0614775
-0.0318593
-0.0638361
-0.0803954
-0.0849865
-0.0823949
-0.0740492
-0.0609477
-0.0439996
-0.0239113
-0.00129466
0.0231885
0.0487033
0.0741363
0.098011
0.118433
0.133162
0.140027
0.136853
0.118453
0.0819977
-0.0686596
-0.10455
-0.121316
-0.123564
-0.117485
-0.105093
-0.0876806
-0.0662839
-0.0415922
-0.0141089
0.0156528
0.0469994
0.0788998
0.109835
0.137663
0.159623
0.172766
0.173813
0.155524
0.113635
-0.11939
-0.159292
-0.174882
-0.172728
-0.161114
-0.142892
-0.119719
-0.0927329
-0.0625301
-0.0293984
0.00642259
0.0445215
0.0841005
0.123745
0.161175
0.193124
0.215709
0.224112
0.208046
0.160702
-0.188621
-0.232169
-0.243905
-0.233918
-0.21366
-0.187117
-0.156332
-0.122457
-0.0858506
-0.0464229
-0.00396519
0.0415862
0.0898861
0.139869
0.189356
0.234725
0.271115
0.2917
0.281732
0.229858
-0.283984
-0.329233
-0.331802
-0.308253
-0.274677
-0.236405
-0.195727
-0.153569
-0.109795
-0.0636984
-0.0143913
0.0389074
0.096594
0.158311
0.222405
0.285318
0.341434
0.381613
0.384905
0.331941
-0.419355
-0.459616
-0.442333
-0.39577
-0.342101
-0.287709
-0.234583
-0.182893
-0.131569
-0.0789427
-0.0231724
0.0375136
0.104586
0.178864
0.259882
0.34499
0.428646
0.499742
0.529682
0.485531
-0.620591
-0.636716
-0.578674
-0.494175
-0.411218
-0.335635
-0.267755
-0.205948
-0.147503
-0.089347
-0.0283907
0.0383796
0.113831
0.200488
0.299984
0.41203
0.533041
0.651807
0.732797
0.722564
-0.93596
-0.878504
-0.741717
-0.597917
-0.474378
-0.372648
-0.288854
-0.217743
-0.153929
-0.0924358
-0.0286885
0.0417211
0.123282
0.220728
0.338927
0.482145
0.651962
0.841298
1.01528
1.09766
-1.47595
-1.20703
-0.920442
-0.691263
-0.517264
-0.387527
-0.290043
-0.213317
-0.148102
-0.0871921
-0.0245554
0.0454745
0.128945
0.233065
0.367085
0.54263
0.771148
1.05921
1.40372
1.7297
-2.53596
-1.63341
-1.04461
-0.710611
-0.495579
-0.351996
-0.254454
-0.183524
-0.126125
-0.0735629
-0.0192519
0.0427883
0.11919
0.218728
0.354723
0.547824
0.826075
1.23679
1.91474
2.92013
-4.35994
-2.04704
-0.973927
-0.563079
-0.357916
-0.240252
-0.170194
-0.123828
-0.0875015
-0.0535084
-0.0166309
0.0276988
0.0846594
0.161797
0.272497
0.442167
0.718175
1.22614
2.41343
4.84159
)
;

boundaryField
{
    movingWall
    {
        type            zeroGradient;
    }
    fixedWalls
    {
        type            zeroGradient;
    }
    frontAndBack
    {
        type            empty;
    }
}


// ************************************************************************* //
