/*--------------------------------*- C++ -*----------------------------------*\
  =========                 |
  \\      /  F ield         | OpenFOAM: The Open Source CFD Toolbox
   \\    /   O peration     | Website:  https://openfoam.org
    \\  /    A nd           | Version:  8
     \\/     M anipulation  |
\*---------------------------------------------------------------------------*/
FoamFile
{
    version     2.0;
    format      ascii;
    class       surfaceScalarField;
    location    "0.18";
    object      phi;
}
// * * * * * * * * * * * * * * * * * * * * * * * * * * * * * * * * * * * * * //

dimensions      [0 3 -1 0 0 0 0];

internalField   nonuniform List<scalar> 
760
(
1.42244e-08
-1.42323e-08
-2.21792e-08
3.64059e-08
-1.1417e-07
9.19893e-08
-2.45275e-07
1.31106e-07
-3.95733e-07
1.50457e-07
-5.46847e-07
1.51115e-07
-6.82532e-07
1.35685e-07
-7.89893e-07
1.07361e-07
-8.59365e-07
6.94727e-08
-8.84774e-07
2.54092e-08
-8.63478e-07
-2.12966e-08
-7.96619e-07
-6.68588e-08
-6.89429e-07
-1.0719e-07
-5.51458e-07
-1.3797e-07
-3.96583e-07
-1.54875e-07
-2.42535e-07
-1.54048e-07
-1.09635e-07
-1.329e-07
-1.83874e-08
-9.12477e-08
1.56658e-08
-3.40531e-08
1.56656e-08
-3.41554e-08
1.99231e-08
-1.80171e-07
1.82421e-07
-4.33521e-07
3.45341e-07
-7.63628e-07
4.61214e-07
-1.13103e-06
5.17858e-07
-1.49568e-06
5.15768e-07
-1.82143e-06
4.61438e-07
-2.07836e-06
3.64291e-07
-2.24393e-06
2.35042e-07
-2.30364e-06
8.51205e-08
-2.25157e-06
-7.33676e-08
-2.0909e-06
-2.27526e-07
-1.8344e-06
-3.63697e-07
-1.50453e-06
-4.67841e-07
-1.13295e-06
-5.26454e-07
-7.58761e-07
-5.28236e-07
-4.24966e-07
-4.66695e-07
-1.7251e-07
-3.43703e-07
-3.07473e-08
-1.75816e-07
-1.50818e-08
-9.2132e-08
1.12054e-07
-3.56607e-07
4.46895e-07
-7.63732e-07
7.52468e-07
-1.26713e-06
9.6461e-07
-1.81276e-06
1.06349e-06
-2.34654e-06
1.04955e-06
-2.81942e-06
9.34322e-07
-3.19054e-06
7.35406e-07
-3.42896e-06
4.73465e-07
-3.51479e-06
1.7095e-07
-3.43995e-06
-1.48202e-07
-3.20891e-06
-4.58568e-07
-2.83918e-06
-7.33432e-07
-2.3614e-06
-9.45623e-07
-1.81848e-06
-1.06937e-06
-1.26322e-06
-1.08349e-06
-7.53765e-07
-9.76149e-07
-3.46621e-07
-7.50848e-07
-8.72559e-08
-4.35181e-07
-1.02337e-07
-1.45057e-07
2.57113e-07
-5.24915e-07
8.26753e-07
-1.08052e-06
1.30808e-06
-1.74573e-06
1.62982e-06
-2.45184e-06
1.7696e-06
-3.13319e-06
1.7309e-06
-3.73149e-06
1.53263e-06
-4.19864e-06
1.20255e-06
-4.49836e-06
7.73185e-07
-4.60728e-06
2.79874e-07
-4.51574e-06
-2.39742e-07
-4.22855e-06
-7.45759e-07
-3.76569e-06
-1.1963e-06
-3.16259e-06
-1.54872e-06
-2.46952e-06
-1.76243e-06
-1.74942e-06
-1.8036e-06
-1.0735e-06
-1.65207e-06
-5.14651e-07
-1.30969e-06
-1.39184e-07
-8.10647e-07
-2.41521e-07
-1.93422e-07
4.50536e-07
-6.84361e-07
1.31769e-06
-1.38435e-06
2.00807e-06
-2.20523e-06
2.4507e-06
-3.06268e-06
2.62704e-06
-3.88024e-06
2.54846e-06
-4.59231e-06
2.2447e-06
-5.14589e-06
1.75613e-06
-5.50144e-06
1.12874e-06
-5.63343e-06
4.1186e-07
-5.53079e-06
-3.42373e-07
-5.19777e-06
-1.07879e-06
-4.65481e-06
-1.73925e-06
-3.93957e-06
-2.26397e-06
-3.10707e-06
-2.59493e-06
-2.22863e-06
-2.68204e-06
-1.38848e-06
-2.49222e-06
-6.77926e-07
-2.02024e-06
-1.87605e-07
-1.30097e-06
-4.29126e-07
-2.39746e-07
6.90282e-07
-8.39695e-07
1.91764e-06
-1.682e-06
2.85037e-06
-2.65504e-06
3.42374e-06
-3.65805e-06
3.63006e-06
-4.60425e-06
3.49466e-06
-5.4222e-06
3.06265e-06
-6.05593e-06
2.38985e-06
-6.46441e-06
1.53722e-06
-6.62102e-06
5.68467e-07
-6.51341e-06
-4.49973e-07
-6.14424e-06
-1.44797e-06
-5.5325e-06
-2.35099e-06
-4.71554e-06
-3.08093e-06
-3.75082e-06
-3.55966e-06
-2.71659e-06
-3.71627e-06
-1.71036e-06
-3.49845e-06
-8.44075e-07
-2.88653e-06
-2.36011e-07
-1.90903e-06
-6.65138e-07
-2.86571e-07
9.76853e-07
-9.965e-07
2.62757e-06
-1.98093e-06
3.83481e-06
-3.10315e-06
4.54595e-06
-4.24548e-06
4.77239e-06
-5.3117e-06
4.56088e-06
-6.22643e-06
3.97738e-06
-6.93305e-06
3.09647e-06
-7.39109e-06
1.99526e-06
-7.57413e-06
7.51515e-07
-7.46878e-06
-5.55326e-07
-7.07503e-06
-1.84172e-06
-6.40826e-06
-3.01776e-06
-5.50254e-06
-3.98664e-06
-4.41468e-06
-4.64752e-06
-3.22767e-06
-4.90328e-06
-2.05188e-06
-4.67424e-06
-1.02201e-06
-3.91641e-06
-2.8813e-07
-2.64291e-06
-9.53269e-07
-3.36202e-07
1.31305e-06
-1.15993e-06
3.4513e-06
-2.28715e-06
4.96203e-06
-3.55363e-06
5.81243e-06
-4.82474e-06
6.0435e-06
-5.99667e-06
5.73281e-06
-6.99319e-06
4.97389e-06
-7.76032e-06
3.8636e-06
-8.26105e-06
2.496e-06
-8.4711e-06
9.6156e-07
-8.37652e-06
-6.49906e-07
-7.97367e-06
-2.24456e-06
-7.27171e-06
-3.71972e-06
-6.29754e-06
-4.96081e-06
-5.10279e-06
-5.84228e-06
-3.77118e-06
-6.23489e-06
-2.42404e-06
-6.02137e-06
-1.22033e-06
-5.12012e-06
-3.47593e-07
-3.51564e-06
-1.30086e-06
-3.90894e-07
1.70395e-06
-1.33465e-06
4.39506e-06
-2.60451e-06
6.23188e-06
-4.00519e-06
7.21311e-06
-5.38573e-06
7.42405e-06
-6.63834e-06
6.98542e-06
-7.69072e-06
6.02628e-06
-8.49651e-06
4.66939e-06
-9.02629e-06
3.02577e-06
-9.26072e-06
1.19599e-06
-9.18647e-06
-7.24153e-07
-8.79543e-06
-2.6356e-06
-8.08753e-06
-4.42762e-06
-7.07748e-06
-5.97086e-06
-5.80512e-06
-7.11464e-06
-4.3482e-06
-7.69181e-06
-2.83429e-06
-7.53528e-06
-1.44684e-06
-6.50757e-06
-4.18037e-07
-4.54445e-06
-1.7189e-06
-4.53472e-07
2.15742e-06
-1.52571e-06
5.46729e-06
-2.93489e-06
7.64106e-06
-4.45007e-06
8.7283e-06
-5.9062e-06
8.88017e-06
-7.19757e-06
8.2768e-06
-8.26329e-06
7.092e-06
-9.07158e-06
5.47768e-06
-9.60629e-06
3.56048e-06
-9.85694e-06
1.44665e-06
-9.81275e-06
-7.68349e-07
-9.46073e-06
-2.98762e-06
-8.78852e-06
-5.09982e-06
-7.79251e-06
-6.96687e-06
-6.49185e-06
-8.4153e-06
-4.94774e-06
-9.23592e-06
-3.28499e-06
-9.19802e-06
-1.70864e-06
-8.08392e-06
-5.03593e-07
-5.74949e-06
-2.22249e-06
-5.28443e-07
2.68586e-06
-1.73996e-06
6.67881e-06
-3.27849e-06
9.1796e-06
-4.87233e-06
1.03221e-05
-6.34786e-06
1.03557e-05
-7.61177e-06
9.54071e-06
-8.62535e-06
8.10558e-06
-9.38069e-06
6.23301e-06
-9.88198e-06
4.06176e-06
-1.01325e-05
1.69714e-06
-1.01267e-05
-7.74166e-07
-9.84712e-06
-3.26715e-06
-9.26669e-06
-5.68026e-06
-8.35694e-06
-7.87661e-06
-7.10521e-06
-9.66703e-06
-5.54113e-06
-1.08e-05
-3.77103e-06
-1.09681e-05
-2.01237e-06
-9.84258e-06
-6.09771e-07
-7.15209e-06
-2.83226e-06
-6.23858e-07
3.30972e-06
-1.98794e-06
8.04289e-06
-3.6329e-06
1.08246e-05
-5.24334e-06
1.19326e-05
-6.64934e-06
1.17617e-05
-7.78654e-06
1.06779e-05
-8.6533e-06
8.97234e-06
-9.27674e-06
6.85645e-06
-9.68903e-06
4.47405e-06
-9.91229e-06
1.9204e-06
-9.9496e-06
-7.3685e-07
-9.78078e-06
-3.43598e-06
-9.36285e-06
-6.09819e-06
-8.63731e-06
-8.60216e-06
-7.54779e-06
-1.07566e-05
-6.07268e-06
-1.22751e-05
-4.27505e-06
-1.27658e-05
-2.3641e-06
-1.17535e-05
-7.44937e-07
-8.77125e-06
-3.5772e-06
-7.54321e-07
4.06404e-06
-2.28512e-06
9.57369e-06
-3.9884e-06
1.25278e-05
-5.51107e-06
1.34552e-05
-6.71212e-06
1.29628e-05
-7.58153e-06
1.15473e-05
-8.1734e-06
9.56421e-06
-8.56124e-06
7.24429e-06
-8.81149e-06
4.7243e-06
-8.96882e-06
2.07774e-06
-9.04802e-06
-6.57651e-07
-9.02916e-06
-3.45483e-06
-8.85567e-06
-6.27168e-06
-8.43747e-06
-9.02035e-06
-7.66508e-06
-1.15289e-05
-6.44369e-06
-1.34965e-05
-4.75744e-06
-1.4452e-05
-2.76742e-06
-1.37436e-05
-9.22644e-07
-1.0616e-05
-4.49984e-06
-9.45403e-07
5.00945e-06
-2.64935e-06
1.12776e-05
-4.31261e-06
1.41911e-05
-5.5756e-06
1.47182e-05
-6.37363e-06
1.37608e-05
-6.7868e-06
1.19605e-05
-6.9445e-06
9.72191e-06
-6.9741e-06
7.27388e-06
-6.97736e-06
4.72756e-06
-7.02114e-06
2.12151e-06
-7.13312e-06
-5.45667e-07
-7.29799e-06
-3.28996e-06
-7.45245e-06
-6.11723e-06
-7.48117e-06
-8.99164e-06
-7.22062e-06
-1.17895e-05
-6.48482e-06
-1.42323e-05
-5.13488e-06
-1.58019e-05
-3.21575e-06
-1.56627e-05
-1.16453e-06
-1.26672e-05
-5.66437e-06
-1.2372e-06
6.24664e-06
-3.08399e-06
1.31244e-05
-4.50929e-06
1.56164e-05
-5.23679e-06
1.54458e-05
-5.35821e-06
1.38822e-05
-5.08548e-06
1.16878e-05
-4.63511e-06
9.27154e-06
-4.18393e-06
6.8227e-06
-3.85931e-06
4.40295e-06
-3.74208e-06
2.00427e-06
-3.87008e-06
-4.17665e-07
-4.23729e-06
-2.92275e-06
-4.78626e-06
-5.56826e-06
-5.39464e-06
-8.38326e-06
-5.86137e-06
-1.13228e-05
-5.90873e-06
-1.4185e-05
-5.23425e-06
-1.64764e-05
-3.66685e-06
-1.72301e-05
-1.49984e-06
-1.48343e-05
-7.16421e-06
-1.67275e-06
7.9194e-06
-3.51339e-06
1.49651e-05
-4.31648e-06
1.64195e-05
-4.09081e-06
1.52201e-05
-3.19568e-06
1.29871e-05
-2.00207e-06
1.04941e-05
-7.99112e-07
8.06858e-06
2.14854e-07
5.80873e-06
9.13401e-07
3.7044e-06
1.22063e-06
1.69704e-06
1.09717e-06
-2.94206e-07
5.36469e-07
-2.36205e-06
-4.27022e-07
-4.60477e-06
-1.696e-06
-7.11428e-06
-3.07507e-06
-9.94369e-06
-4.23265e-06
-1.30274e-05
-4.69659e-06
-1.60125e-05
-3.96691e-06
-1.79598e-05
-1.94359e-06
-1.68576e-05
-9.10781e-06
-2.22678e-06
1.01462e-05
-3.5887e-06
1.6327e-05
-3.07815e-06
1.59089e-05
-1.34507e-06
1.3487e-05
8.95131e-07
1.07469e-05
3.15234e-06
8.23694e-06
5.13482e-06
6.0861e-06
6.68485e-06
4.2587e-06
7.72162e-06
2.66764e-06
8.20217e-06
1.21649e-06
8.09957e-06
-1.91606e-07
7.395e-06
-1.65748e-06
6.08331e-06
-3.29309e-06
4.19631e-06
-5.22727e-06
1.85209e-06
-7.59947e-06
-6.62847e-07
-1.05124e-05
-2.79215e-06
-1.38832e-05
-3.65977e-06
-1.70921e-05
-2.40687e-06
-1.81105e-05
-1.15147e-05
-2.55982e-06
1.2706e-05
-2.18071e-06
1.59479e-05
7.18065e-07
1.30101e-05
4.46909e-06
9.73598e-06
8.13228e-06
7.08368e-06
1.12999e-05
5.06929e-06
1.38268e-05
3.55921e-06
1.56853e-05
2.40023e-06
1.68885e-05
1.46442e-06
1.74516e-05
6.53446e-07
1.73731e-05
-1.13137e-07
1.66275e-05
-9.11874e-07
1.51646e-05
-1.83021e-06
1.29215e-05
-2.9842e-06
9.86044e-06
-4.53839e-06
6.06138e-06
-6.71338e-06
1.9127e-06
-9.73451e-06
-1.55597e-06
-1.36235e-05
-2.44294e-06
-1.72235e-05
-1.39576e-05
-8.0982e-07
1.35158e-05
4.076e-06
1.10621e-05
1.02971e-05
6.78905e-06
1.57935e-05
4.23953e-06
2.01578e-05
2.71947e-06
2.34574e-05
1.76965e-06
2.58597e-05
1.15694e-06
2.752e-05
7.39911e-07
2.85522e-05
4.32206e-07
2.90245e-05
1.81179e-07
2.89603e-05
-4.89376e-08
2.8337e-05
-2.88634e-07
2.70805e-05
-5.73638e-07
2.50541e-05
-9.57826e-07
2.20511e-05
-1.53536e-06
1.7815e-05
-2.47727e-06
1.21715e-05
-4.09104e-06
5.47218e-06
-6.92416e-06
-1.5648e-07
-1.15948e-05
-1.41141e-05
1.35158e-05
2.45779e-05
3.13669e-05
3.56065e-05
3.83259e-05
4.00956e-05
4.12525e-05
4.19924e-05
4.24246e-05
4.26058e-05
4.25569e-05
4.22682e-05
4.16946e-05
4.07368e-05
3.92014e-05
3.67241e-05
3.26331e-05
2.57089e-05
1.41141e-05
)
;

boundaryField
{
    movingWall
    {
        type            calculated;
        value           uniform 0;
    }
    fixedWalls
    {
        type            calculated;
        value           uniform 0;
    }
    frontAndBack
    {
        type            empty;
        value           nonuniform List<scalar> 0();
    }
}


// ************************************************************************* //
