/*--------------------------------*- C++ -*----------------------------------*\
  =========                 |
  \\      /  F ield         | OpenFOAM: The Open Source CFD Toolbox
   \\    /   O peration     | Website:  https://openfoam.org
    \\  /    A nd           | Version:  8
     \\/     M anipulation  |
\*---------------------------------------------------------------------------*/
FoamFile
{
    version     2.0;
    format      ascii;
    class       volVectorField;
    location    "0.18";
    object      U;
}
// * * * * * * * * * * * * * * * * * * * * * * * * * * * * * * * * * * * * * //

dimensions      [0 1 -1 0 0 0 0];

internalField   nonuniform List<vector> 
400
(
(0.000252832 -0.000249716 0)
(0.000140535 0.00011207 0)
(-0.00117615 0.000565258 0)
(-0.00347806 0.000885552 0)
(-0.00637167 0.0010462 0)
(-0.00946059 0.00106219 0)
(-0.0123911 0.000958238 0)
(-0.0148705 0.000760753 0)
(-0.0166732 0.00049486 0)
(-0.0176411 0.000184659 0)
(-0.017685 -0.000145295 0)
(-0.0167889 -0.000468516 0)
(-0.0150158 -0.000755673 0)
(-0.0125134 -0.000974611 0)
(-0.0095177 -0.0010916 0)
(-0.00634933 -0.00107447 0)
(-0.00339768 -0.000898645 0)
(-0.00108574 -0.000556947 0)
(0.000195627 -9.07183e-05 0)
(0.000267258 0.000261953 0)
(-7.79397e-05 -0.000168547 0)
(-0.00161032 0.00164396 0)
(-0.00568662 0.00361503 0)
(-0.0117063 0.00503131 0)
(-0.0188725 0.00573897 0)
(-0.0263732 0.00575582 0)
(-0.0334343 0.0051677 0)
(-0.0393857 0.00408938 0)
(-0.0436985 0.00264566 0)
(-0.0459994 0.000966314 0)
(-0.0460819 -0.000812407 0)
(-0.0439164 -0.00254491 0)
(-0.039661 -0.00407534 0)
(-0.0336689 -0.00524103 0)
(-0.0264871 -0.00588217 0)
(-0.0188359 -0.00586068 0)
(-0.0115551 -0.00509137 0)
(-0.00550761 -0.00358719 0)
(-0.00149208 -0.00155798 0)
(-4.30971e-05 0.000226946 0)
(-0.000529064 0.00109065 0)
(-0.00370839 0.0057303 0)
(-0.0105774 0.0102142 0)
(-0.0199703 0.0133941 0)
(-0.0307323 0.0149309 0)
(-0.0417781 0.0148233 0)
(-0.0520648 0.0132418 0)
(-0.0606802 0.0104452 0)
(-0.066899 0.00673508 0)
(-0.0702091 0.00243668 0)
(-0.0703274 -0.00210377 0)
(-0.067215 -0.006518 0)
(-0.06109 -0.0104178 0)
(-0.0524356 -0.0134068 0)
(-0.0419952 -0.015108 0)
(-0.0307435 -0.0152105 0)
(-0.0198094 -0.0135429 0)
(-0.0103532 -0.0101692 0)
(-0.00354603 -0.00554532 0)
(-0.000477426 -0.0009479 0)
(-0.00092869 0.00347607 0)
(-0.00568706 0.0122076 0)
(-0.0152862 0.0199013 0)
(-0.0278887 0.025172 0)
(-0.0419435 0.0275684 0)
(-0.056123 0.0271091 0)
(-0.069183 0.0240836 0)
(-0.0800458 0.0189341 0)
(-0.0878607 0.0121832 0)
(-0.0920275 0.00440128 0)
(-0.0922126 -0.00380279 0)
(-0.088364 -0.0117829 0)
(-0.0807272 -0.0188613 0)
(-0.0698565 -0.0243503 0)
(-0.0566161 -0.0275991 0)
(-0.0421557 -0.0280737 0)
(-0.0278308 -0.0254729 0)
(-0.0150796 -0.0198724 0)
(-0.00550135 -0.0119155 0)
(-0.000862251 -0.0032215 0)
(-0.00127962 0.00687057 0)
(-0.00753098 0.0209321 0)
(-0.0197867 0.0324779 0)
(-0.035503 0.0400631 0)
(-0.0526966 0.0432466 0)
(-0.0697966 0.0421498 0)
(-0.0853874 0.0372395 0)
(-0.0982731 0.0291834 0)
(-0.107524 0.0187588 0)
(-0.112489 0.00680819 0)
(-0.112798 -0.00577248 0)
(-0.10838 -0.0180341 0)
(-0.099477 -0.02898 0)
(-0.0866661 -0.0375935 0)
(-0.0708769 -0.0429018 0)
(-0.0533865 -0.0440859 0)
(-0.0357553 -0.0406402 0)
(-0.0197189 -0.0325619 0)
(-0.00736642 -0.0205707 0)
(-0.00120461 -0.00649177 0)
(-0.00160867 0.0112045 0)
(-0.00931326 0.0318436 0)
(-0.0241908 0.0479063 0)
(-0.0429704 0.0580167 0)
(-0.06321 0.0618776 0)
(-0.083091 0.059823 0)
(-0.101049 0.0525769 0)
(-0.115805 0.041086 0)
(-0.126393 0.0264123 0)
(-0.132139 0.00968551 0)
(-0.132651 -0.00790563 0)
(-0.127829 -0.0251043 0)
(-0.117881 -0.0405826 0)
(-0.10336 -0.0529663 0)
(-0.0852096 -0.0609076 0)
(-0.0647912 -0.0632214 0)
(-0.0438555 -0.0590889 0)
(-0.0244609 -0.0483016 0)
(-0.00925048 -0.0315291 0)
(-0.00153922 -0.0107188 0)
(-0.00194189 0.0164621 0)
(-0.0111177 0.0449341 0)
(-0.0286336 0.0661753 0)
(-0.0504507 0.0789897 0)
(-0.0736427 0.0833716 0)
(-0.0961481 0.0800015 0)
(-0.116284 0.0699604 0)
(-0.132736 0.0545352 0)
(-0.144546 0.0351009 0)
(-0.151052 0.0130755 0)
(-0.15186 -0.0100733 0)
(-0.146831 -0.0327981 0)
(-0.136104 -0.053447 0)
(-0.120156 -0.0702708 0)
(-0.0998785 -0.0814919 0)
(-0.0766608 -0.085459 0)
(-0.0524126 -0.0808965 0)
(-0.0295293 -0.0672224 0)
(-0.011281 -0.0449026 0)
(-0.00190233 -0.0159385 0)
(-0.00230279 0.0226767 0)
(-0.0130237 0.060253 0)
(-0.0332379 0.0872949 0)
(-0.0580572 0.102914 0)
(-0.0840419 0.107578 0)
(-0.10891 0.102476 0)
(-0.130914 0.0891693 0)
(-0.148773 0.0693528 0)
(-0.161599 0.0447355 0)
(-0.168797 0.0170088 0)
(-0.169992 -0.0121184 0)
(-0.165003 -0.0408532 0)
(-0.153868 -0.067253 0)
(-0.136916 -0.0891961 0)
(-0.114899 -0.104426 0)
(-0.0891432 -0.11071 0)
(-0.0616484 -0.106133 0)
(-0.0351358 -0.0895146 0)
(-0.0135853 -0.0609053 0)
(-0.00232966 -0.0222617 0)
(-0.0027156 0.0299266 0)
(-0.0151097 0.0779033 0)
(-0.0381075 0.11128 0)
(-0.0658355 0.129659 0)
(-0.0943079 0.13422 0)
(-0.121073 0.12688 0)
(-0.144411 0.109819 0)
(-0.163175 0.0852172 0)
(-0.176645 0.0551267 0)
(-0.184361 0.0214743 0)
(-0.186012 -0.0138585 0)
(-0.181378 -0.0489128 0)
(-0.170354 -0.0815258 0)
(-0.153046 -0.109238 0)
(-0.129943 -0.129286 0)
(-0.102165 -0.138732 0)
(-0.0716751 -0.134799 0)
(-0.0414589 -0.115397 0)
(-0.0162904 -0.0798458 0)
(-0.00285943 -0.0298717 0)
(-0.00321312 0.0383385 0)
(-0.0174718 0.0980339 0)
(-0.0433409 0.13811 0)
(-0.0737557 0.158951 0)
(-0.104158 0.162799 0)
(-0.132028 0.152574 0)
(-0.155819 0.131254 0)
(-0.174669 0.101572 0)
(-0.188156 0.0659143 0)
(-0.196054 0.0263754 0)
(-0.198171 -0.0150963 0)
(-0.194269 -0.0564998 0)
(-0.184068 -0.0955712 0)
(-0.167355 -0.129599 0)
(-0.144206 -0.155323 0)
(-0.115332 -0.168996 0)
(-0.0824415 -0.166709 0)
(-0.0486339 -0.145048 0)
(-0.0195349 -0.102107 0)
(-0.00354011 -0.0390286 0)
(-0.00385125 0.0481087 0)
(-0.0202563 0.12084 0)
(-0.0490542 0.167674 0)
(-0.0816984 0.190272 0)
(-0.113069 0.192456 0)
(-0.140765 0.178515 0)
(-0.163642 0.152423 0)
(-0.18133 0.117523 0)
(-0.193867 0.0764903 0)
(-0.20138 0.031479 0)
(-0.203875 -0.0156434 0)
(-0.201126 -0.0630054 0)
(-0.192664 -0.10842 0)
(-0.17787 -0.149081 0)
(-0.156235 -0.181314 0)
(-0.127789 -0.200504 0)
(-0.0936511 -0.201331 0)
(-0.0567376 -0.178497 0)
(-0.0234906 -0.128121 0)
(-0.00444437 -0.0500866 0)
(-0.00473475 0.0595543 0)
(-0.0237095 0.146569 0)
(-0.055398 0.199685 0)
(-0.0894005 0.222703 0)
(-0.120155 0.221796 0)
(-0.145715 0.203092 0)
(-0.165675 0.171754 0)
(-0.18042 0.131742 0)
(-0.190632 0.0859256 0)
(-0.196914 0.0363604 0)
(-0.199551 -0.0153569 0)
(-0.198383 -0.0677006 0)
(-0.19276 -0.118799 0)
(-0.181612 -0.165992 0)
(-0.163677 -0.205391 0)
(-0.137992 -0.231563 0)
(-0.104614 -0.237536 0)
(-0.065745 -0.215453 0)
(-0.0283936 -0.15832 0)
(-0.00569364 -0.0635368 0)
(-0.00606305 0.0732161 0)
(-0.0282448 0.175525 0)
(-0.0625297 0.233511 0)
(-0.0962908 0.25467 0)
(-0.123903 0.248645 0)
(-0.144454 0.223939 0)
(-0.158735 0.187027 0)
(-0.168178 0.142398 0)
(-0.174277 0.0929267 0)
(-0.178196 0.0403629 0)
(-0.180561 -0.0141871 0)
(-0.181338 -0.0697831 0)
(-0.179762 -0.125149 0)
(-0.174329 -0.178101 0)
(-0.162944 -0.224884 0)
(-0.143356 -0.259498 0)
(-0.113966 -0.273248 0)
(-0.0754106 -0.255003 0)
(-0.0345771 -0.19305 0)
(-0.0075006 -0.0800928 0)
(-0.00820457 0.0900392 0)
(-0.0345035 0.207994 0)
(-0.0704362 0.267838 0)
(-0.101063 0.283543 0)
(-0.121628 0.269737 0)
(-0.133174 0.237764 0)
(-0.13824 0.195333 0)
(-0.139549 0.147175 0)
(-0.13946 0.0958707 0)
(-0.13969 0.0426039 0)
(-0.141204 -0.0122241 0)
(-0.144146 -0.0684746 0)
(-0.147752 -0.125741 0)
(-0.150243 -0.1827 0)
(-0.148782 -0.236246 0)
(-0.139692 -0.280368 0)
(-0.119129 -0.304956 0)
(-0.0849569 -0.295107 0)
(-0.0424634 -0.232348 0)
(-0.0102317 -0.10083 0)
(-0.011777 0.111631 0)
(-0.0432758 0.243949 0)
(-0.0783192 0.300004 0)
(-0.100667 0.305044 0)
(-0.108406 0.2804 0)
(-0.105799 0.240319 0)
(-0.0976097 0.193221 0)
(-0.0878618 0.1435 0)
(-0.0795996 0.0930026 0)
(-0.0748881 0.0420809 0)
(-0.0749057 -0.00972237 0)
(-0.0799894 -0.0631848 0)
(-0.0895535 -0.118947 0)
(-0.101868 -0.1769 0)
(-0.113752 -0.235221 0)
(-0.120356 -0.288818 0)
(-0.115299 -0.32714 0)
(-0.092285 -0.331757 0)
(-0.0523323 -0.275387 0)
(-0.0144422 -0.127341 0)
(-0.0175447 0.140647 0)
(-0.0547599 0.282152 0)
(-0.0827978 0.324707 0)
(-0.0881125 0.312439 0)
(-0.0751552 0.27441 0)
(-0.0526517 0.226721 0)
(-0.0275329 0.177241 0)
(-0.00460099 0.129096 0)
(0.0130034 0.0828862 0)
(0.0233395 0.0379353 0)
(0.0252974 -0.00706906 0)
(0.0184103 -0.0537386 0)
(0.00289088 -0.103718 0)
(-0.0200739 -0.158277 0)
(-0.0477481 -0.217453 0)
(-0.0750306 -0.278312 0)
(-0.093575 -0.331751 0)
(-0.0920697 -0.357664 0)
(-0.0632706 -0.319297 0)
(-0.0206281 -0.161957 0)
(-0.0253975 0.181649 0)
(-0.0657102 0.317829 0)
(-0.0733266 0.331383 0)
(-0.0480965 0.29538 0)
(-0.00560959 0.244178 0)
(0.0411728 0.192344 0)
(0.0845927 0.145012 0)
(0.120464 0.102943 0)
(0.14662 0.0651183 0)
(0.161959 0.0298828 0)
(0.165852 -0.00466856 0)
(0.15785 -0.0406144 0)
(0.137654 -0.0802229 0)
(0.105374 -0.125887 0)
(0.0622117 -0.179693 0)
(0.0117733 -0.241989 0)
(-0.0378452 -0.307857 0)
(-0.0716637 -0.360164 0)
(-0.0699716 -0.356668 0)
(-0.0278497 -0.208295 0)
(-0.0294354 0.238941 0)
(-0.0606128 0.335946 0)
(-0.0219392 0.300586 0)
(0.0505225 0.240126 0)
(0.127559 0.182929 0)
(0.196982 0.135367 0)
(0.254296 0.0973779 0)
(0.298198 0.0668337 0)
(0.328763 0.0413436 0)
(0.3464 0.0187735 0)
(0.351308 -0.00279223 0)
(0.343238 -0.0252568 0)
(0.321411 -0.050774 0)
(0.284595 -0.0820309 0)
(0.231539 -0.122428 0)
(0.162163 -0.175656 0)
(0.0798814 -0.243439 0)
(-0.00317993 -0.319226 0)
(-0.0543941 -0.368789 0)
(-0.0282109 -0.26734 0)
(0.00867961 0.281481 0)
(0.0203621 0.295062 0)
(0.138998 0.21106 0)
(0.264408 0.143513 0)
(0.364365 0.0972074 0)
(0.440358 0.0657928 0)
(0.496724 0.0442473 0)
(0.536846 0.0288918 0)
(0.563411 0.0172023 0)
(0.578266 0.00748684 0)
(0.58234 -0.00149323 0)
(0.575657 -0.0108457 0)
(0.557276 -0.02185 0)
(0.52511 -0.0363425 0)
(0.475763 -0.0572744 0)
(0.404527 -0.0894094 0)
(0.305115 -0.139786 0)
(0.173332 -0.216478 0)
(0.0417949 -0.311728 0)
(0.0190843 -0.29959 0)
(0.300183 0.145891 0)
(0.396873 0.12746 0)
(0.55741 0.0761134 0)
(0.674459 0.043753 0)
(0.743891 0.0255991 0)
(0.787152 0.0152646 0)
(0.815476 0.0092291 0)
(0.833942 0.00552099 0)
(0.84537 0.00303451 0)
(0.851355 0.00115312 0)
(0.852649 -0.000499074 0)
(0.849367 -0.00221803 0)
(0.840986 -0.00434558 0)
(0.826129 -0.00743644 0)
(0.802072 -0.0125513 0)
(0.763617 -0.0217994 0)
(0.699069 -0.0393166 0)
(0.583907 -0.0726886 0)
(0.416411 -0.12782 0)
(0.309416 -0.149275 0)
)
;

boundaryField
{
    movingWall
    {
        type            fixedValue;
        value           uniform (1 0 0);
    }
    fixedWalls
    {
        type            noSlip;
    }
    frontAndBack
    {
        type            empty;
    }
}


// ************************************************************************* //
