/*--------------------------------*- C++ -*----------------------------------*\
  =========                 |
  \\      /  F ield         | OpenFOAM: The Open Source CFD Toolbox
   \\    /   O peration     | Website:  https://openfoam.org
    \\  /    A nd           | Version:  8
     \\/     M anipulation  |
\*---------------------------------------------------------------------------*/
FoamFile
{
    version     2.0;
    format      ascii;
    class       surfaceScalarField;
    location    "48";
    object      phi;
}
// * * * * * * * * * * * * * * * * * * * * * * * * * * * * * * * * * * * * * //

dimensions      [0 3 -1 0 0 0 0];

internalField   nonuniform List<scalar> 
22960
(
-2.13452e-07
2.13459e-07
-8.23523e-07
6.10071e-07
-1.61099e-06
7.87467e-07
-2.46753e-06
8.56539e-07
-3.3435e-06
8.75969e-07
-4.22247e-06
8.78975e-07
-5.10123e-06
8.78762e-07
-5.98003e-06
8.78794e-07
-6.85961e-06
8.7958e-07
-7.74058e-06
8.80968e-07
-8.62335e-06
8.82769e-07
-9.5082e-06
8.84857e-07
-1.03954e-05
8.87162e-07
-1.1285e-05
8.89639e-07
-1.21773e-05
8.92257e-07
-1.30723e-05
8.94987e-07
-1.39701e-05
8.97806e-07
-1.48707e-05
9.00687e-07
-1.57743e-05
9.03603e-07
-1.66809e-05
9.06528e-07
-1.75903e-05
9.09431e-07
-1.85026e-05
9.12281e-07
-1.94176e-05
9.15046e-07
-2.03353e-05
9.1769e-07
-2.12555e-05
9.20176e-07
-2.2178e-05
9.22466e-07
-2.31025e-05
9.24518e-07
-2.40288e-05
9.26291e-07
-2.49565e-05
9.2774e-07
-2.58853e-05
9.28819e-07
-2.68148e-05
9.29482e-07
-2.77445e-05
9.29681e-07
-2.86739e-05
9.2937e-07
-2.96024e-05
9.28499e-07
-3.05294e-05
9.27023e-07
-3.14543e-05
9.24897e-07
-3.23764e-05
9.22079e-07
-3.32949e-05
9.18529e-07
-3.42091e-05
9.14214e-07
-3.51182e-05
9.09106e-07
-3.60214e-05
9.03185e-07
-3.69178e-05
8.96435e-07
-3.78067e-05
8.8885e-07
-3.86871e-05
8.80423e-07
-3.95582e-05
8.71139e-07
-4.04192e-05
8.6095e-07
-4.12689e-05
8.49718e-07
-4.2106e-05
8.371e-07
-4.29283e-05
8.22298e-07
-4.37318e-05
8.03531e-07
-4.45089e-05
7.77063e-07
-4.52447e-05
7.35803e-07
-4.5913e-05
6.68284e-07
-4.64727e-05
5.59726e-07
-4.68806e-05
4.07932e-07
-4.72266e-05
3.45936e-07
-4.8115e-05
8.88417e-07
-5.07011e-05
2.58607e-06
-6.2901e-05
1.21999e-05
2.95285e-05
-9.24295e-05
-6.2468e-07
8.3814e-07
-1.90121e-06
1.8866e-06
-3.48119e-06
2.36744e-06
-5.19085e-06
2.5662e-06
-6.9494e-06
2.63452e-06
-8.72474e-06
2.65431e-06
-1.05058e-05
2.65986e-06
-1.22897e-05
2.66262e-06
-1.40757e-05
2.66565e-06
-1.58643e-05
2.66948e-06
-1.76555e-05
2.67404e-06
-1.94498e-05
2.67917e-06
-2.12474e-05
2.68476e-06
-2.30485e-05
2.69073e-06
-2.48532e-05
2.69699e-06
-2.66617e-05
2.70348e-06
-2.84741e-05
2.71013e-06
-3.02902e-05
2.71687e-06
-3.21103e-05
2.72363e-06
-3.39341e-05
2.73034e-06
-3.57616e-05
2.73691e-06
-3.75925e-05
2.74327e-06
-3.94268e-05
2.74931e-06
-4.12641e-05
2.75496e-06
-4.3104e-05
2.76011e-06
-4.49462e-05
2.76466e-06
-4.67902e-05
2.7685e-06
-4.86354e-05
2.77152e-06
-5.04813e-05
2.77361e-06
-5.23271e-05
2.77466e-06
-5.41722e-05
2.77455e-06
-5.60157e-05
2.77317e-06
-5.78567e-05
2.7704e-06
-5.96944e-05
2.76614e-06
-6.15277e-05
2.76031e-06
-6.33556e-05
2.7528e-06
-6.51771e-05
2.74357e-06
-6.69911e-05
2.73257e-06
-6.87967e-05
2.7198e-06
-7.05929e-05
2.70528e-06
-7.23788e-05
2.68911e-06
-7.41538e-05
2.67144e-06
-7.59175e-05
2.65251e-06
-7.76697e-05
2.63265e-06
-7.94109e-05
2.61232e-06
-8.1142e-05
2.59212e-06
-8.28651e-05
2.57281e-06
-8.45833e-05
2.55526e-06
-8.63014e-05
2.54044e-06
-8.80272e-05
2.52936e-06
-8.97733e-05
2.52316e-06
-9.1562e-05
2.52447e-06
-9.34365e-05
2.54275e-06
-9.54882e-05
2.61141e-06
-9.79205e-05
2.84022e-06
-0.000101137
3.56281e-06
-0.000105791
5.54197e-06
-0.000113148
9.94329e-06
-0.000122744
2.17963e-05
3.80717e-05
-0.000131288
-8.23342e-07
1.66148e-06
-2.43088e-06
3.49413e-06
-4.39797e-06
4.33454e-06
-6.51534e-06
4.68357e-06
-8.69035e-06
4.80953e-06
-1.0886e-05
4.85001e-06
-1.30892e-05
4.86301e-06
-1.52957e-05
4.86915e-06
-1.75047e-05
4.87459e-06
-1.97159e-05
4.88074e-06
-2.19296e-05
4.88775e-06
-2.4146e-05
4.89552e-06
-2.63651e-05
4.9039e-06
-2.85872e-05
4.91276e-06
-3.08122e-05
4.92199e-06
-3.30402e-05
4.93147e-06
-3.52711e-05
4.9411e-06
-3.7505e-05
4.95076e-06
-3.97417e-05
4.96033e-06
-4.19811e-05
4.96968e-06
-4.42228e-05
4.97867e-06
-4.64667e-05
4.98716e-06
-4.87124e-05
4.995e-06
-5.09595e-05
5.00203e-06
-5.32074e-05
5.00809e-06
-5.54558e-05
5.013e-06
-5.77039e-05
5.01659e-06
-5.9951e-05
5.01867e-06
-6.21964e-05
5.01905e-06
-6.44393e-05
5.01756e-06
-6.66788e-05
5.014e-06
-6.89138e-05
5.0082e-06
-7.11434e-05
4.99998e-06
-7.33665e-05
4.9892e-06
-7.55819e-05
4.97572e-06
-7.77885e-05
4.95944e-06
-7.99853e-05
4.94031e-06
-8.2171e-05
4.91832e-06
-8.43448e-05
4.89356e-06
-8.65057e-05
4.86618e-06
-8.86531e-05
4.83649e-06
-9.07866e-05
4.80496e-06
-9.29063e-05
4.77224e-06
-9.50129e-05
4.73929e-06
-9.7108e-05
4.70739e-06
-9.91942e-05
4.67831e-06
-0.000101276
4.65441e-06
-0.000103359
4.63888e-06
-0.000105455
4.6361e-06
-0.000107578
4.65234e-06
-0.000109752
4.6975e-06
-0.000112017
4.78932e-06
-0.000114438
4.96396e-06
-0.000117129
5.30233e-06
-0.000120279
5.99e-06
-0.000124134
7.41741e-06
-0.000128871
1.02793e-05
-0.000134652
1.57245e-05
-0.000138976
2.61196e-05
3.90706e-05
-0.000139975
-9.08863e-07
2.57034e-06
-2.66846e-06
5.25373e-06
-4.8091e-06
6.47518e-06
-7.10465e-06
6.97912e-06
-9.45884e-06
7.16372e-06
-1.18342e-05
7.22532e-06
-1.42173e-05
7.24616e-06
-1.66041e-05
7.25592e-06
-1.89933e-05
7.26376e-06
-2.13846e-05
7.27205e-06
-2.3778e-05
7.28117e-06
-2.61736e-05
7.2911e-06
-2.85713e-05
7.30168e-06
-3.09714e-05
7.31278e-06
-3.33736e-05
7.32424e-06
-3.57781e-05
7.33592e-06
-3.81846e-05
7.34765e-06
-4.05931e-05
7.35928e-06
-4.30034e-05
7.37063e-06
-4.54153e-05
7.38153e-06
-4.78284e-05
7.39177e-06
-5.02424e-05
7.40116e-06
-5.26569e-05
7.40948e-06
-5.50714e-05
7.41651e-06
-5.74853e-05
7.42202e-06
-5.98981e-05
7.42575e-06
-6.23089e-05
7.42745e-06
-6.47171e-05
7.42688e-06
-6.71219e-05
7.42377e-06
-6.95222e-05
7.41786e-06
-7.19171e-05
7.4089e-06
-7.43055e-05
7.39664e-06
-7.66864e-05
7.38086e-06
-7.90585e-05
7.36136e-06
-8.14208e-05
7.33797e-06
-8.37719e-05
7.31059e-06
-8.61108e-05
7.27918e-06
-8.84363e-05
7.24378e-06
-9.07473e-05
7.20458e-06
-9.3043e-05
7.16191e-06
-9.53228e-05
7.11632e-06
-9.75865e-05
7.06863e-06
-9.98343e-05
7.02002e-06
-0.000102067
6.97214e-06
-0.000104287
6.92728e-06
-0.000106497
6.8886e-06
-0.000108703
6.86043e-06
-0.000110913
6.84882e-06
-0.00011314
6.86235e-06
-0.000115401
6.91363e-06
-0.000117725
7.02215e-06
-0.000120156
7.21989e-06
-0.000122755
7.56269e-06
-0.000125606
8.15317e-06
-0.000128797
9.1815e-06
-0.000132356
1.09765e-05
-0.00013612
1.40434e-05
-0.000139504
1.91085e-05
-0.00014036
2.69752e-05
3.60683e-05
-0.000137358
-9.37341e-07
3.50769e-06
-2.75886e-06
7.07525e-06
-4.97079e-06
8.68711e-06
-7.33859e-06
9.34691e-06
-9.76419e-06
9.58933e-06
-1.22101e-05
9.67128e-06
-1.46636e-05
9.69958e-06
-1.71204e-05
9.71279e-06
-1.95796e-05
9.72294e-06
-2.20408e-05
9.73322e-06
-2.45039e-05
9.74429e-06
-2.69689e-05
9.75614e-06
-2.94359e-05
9.76866e-06
-3.19048e-05
9.78167e-06
-3.43756e-05
9.79501e-06
-3.68481e-05
9.80847e-06
-3.93224e-05
9.82188e-06
-4.17981e-05
9.83501e-06
-4.42751e-05
9.84765e-06
-4.67531e-05
9.85957e-06
-4.92319e-05
9.87051e-06
-5.17109e-05
9.88021e-06
-5.41898e-05
9.88839e-06
-5.66681e-05
9.89477e-06
-5.91451e-05
9.89903e-06
-6.16202e-05
9.90086e-06
-6.40927e-05
9.89993e-06
-6.65617e-05
9.89592e-06
-6.90264e-05
9.88848e-06
-7.14859e-05
9.87729e-06
-7.3939e-05
9.86201e-06
-7.63847e-05
9.84233e-06
-7.88218e-05
9.81797e-06
-8.12491e-05
9.78867e-06
-8.36653e-05
9.75424e-06
-8.60693e-05
9.71455e-06
-8.84597e-05
9.66956e-06
-9.08353e-05
9.61936e-06
-9.31949e-05
9.56423e-06
-9.55376e-05
9.50464e-06
-9.78627e-05
9.44135e-06
-0.00010017
9.3755e-06
-0.000102458
9.30874e-06
-0.000104729
9.24334e-06
-0.000106985
9.18248e-06
-0.000109227
9.1305e-06
-0.00011146
9.09343e-06
-0.00011369
9.07961e-06
-0.000115929
9.10081e-06
-0.000118189
9.17402e-06
-0.000120491
9.3244e-06
-0.000122862
9.59054e-06
-0.000125333
1.00335e-05
-0.000127932
1.07525e-05
-0.000130656
1.19055e-05
-0.000133408
1.37281e-05
-0.0001359
1.65357e-05
-0.000137481
2.06892e-05
-0.000136787
2.62813e-05
3.2455e-05
-0.000133173
-9.43573e-07
4.45126e-06
-2.78694e-06
8.91862e-06
-5.02504e-06
1.09252e-05
-7.41948e-06
1.17413e-05
-9.87096e-06
1.20408e-05
-1.2342e-05
1.21424e-05
-1.48201e-05
1.21777e-05
-1.73015e-05
1.21941e-05
-1.97851e-05
1.22065e-05
-2.22706e-05
1.22188e-05
-2.47581e-05
1.22318e-05
-2.72475e-05
1.22455e-05
-2.97388e-05
1.22599e-05
-3.22319e-05
1.22748e-05
-3.47269e-05
1.229e-05
-3.72236e-05
1.23052e-05
-3.97219e-05
1.23202e-05
-4.22217e-05
1.23348e-05
-4.47226e-05
1.23486e-05
-4.72245e-05
1.23615e-05
-4.97271e-05
1.2373e-05
-5.22298e-05
1.2383e-05
-5.47323e-05
1.23909e-05
-5.72341e-05
1.23965e-05
-5.97345e-05
1.23995e-05
-6.22329e-05
1.23993e-05
-6.47286e-05
1.23956e-05
-6.72207e-05
1.2388e-05
-6.97083e-05
1.23761e-05
-7.21904e-05
1.23594e-05
-7.4666e-05
1.23376e-05
-7.7134e-05
1.23103e-05
-7.95931e-05
1.22771e-05
-8.20421e-05
1.22376e-05
-8.44796e-05
1.21917e-05
-8.69043e-05
1.21392e-05
-8.93147e-05
1.208e-05
-9.17096e-05
1.20143e-05
-9.40876e-05
1.19422e-05
-9.64474e-05
1.18644e-05
-9.87879e-05
1.17819e-05
-0.000101108
1.16958e-05
-0.000103408
1.16083e-05
-0.000105687
1.1522e-05
-0.000107945
1.14407e-05
-0.000110184
1.13696e-05
-0.000112406
1.13156e-05
-0.000114615
1.12885e-05
-0.000116816
1.13016e-05
-0.000119015
1.13736e-05
-0.000121222
1.15313e-05
-0.000123444
1.18129e-05
-0.000125685
1.22743e-05
-0.00012793
1.29968e-05
-0.000130119
1.40946e-05
-0.000132107
1.57161e-05
-0.0001336
1.80293e-05
-0.000134072
2.11605e-05
-0.000132788
2.49974e-05
2.90311e-05
-0.000129364
-9.43076e-07
5.39433e-06
-2.7922e-06
1.07677e-05
-5.03808e-06
1.31711e-05
-7.44091e-06
1.41442e-05
-9.90052e-06
1.45004e-05
-1.23793e-05
1.46212e-05
-1.48649e-05
1.46632e-05
-1.73535e-05
1.46828e-05
-1.98444e-05
1.46974e-05
-2.23372e-05
1.47116e-05
-2.48321e-05
1.47266e-05
-2.7329e-05
1.47424e-05
-2.98279e-05
1.47588e-05
-3.23288e-05
1.47757e-05
-3.48316e-05
1.47928e-05
-3.73363e-05
1.48099e-05
-3.98427e-05
1.48266e-05
-4.23508e-05
1.48428e-05
-4.48602e-05
1.48581e-05
-4.73708e-05
1.4872e-05
-4.98821e-05
1.48844e-05
-5.23939e-05
1.48947e-05
-5.49057e-05
1.49027e-05
-5.74169e-05
1.49078e-05
-5.9927e-05
1.49096e-05
-6.24354e-05
1.49076e-05
-6.49412e-05
1.49014e-05
-6.74437e-05
1.48905e-05
-6.99419e-05
1.48743e-05
-7.24349e-05
1.48524e-05
-7.49215e-05
1.48243e-05
-7.74007e-05
1.47895e-05
-7.98711e-05
1.47475e-05
-8.23314e-05
1.46979e-05
-8.47802e-05
1.46405e-05
-8.7216e-05
1.4575e-05
-8.96373e-05
1.45013e-05
-9.20425e-05
1.44194e-05
-9.443e-05
1.43297e-05
-9.67981e-05
1.42326e-05
-9.91455e-05
1.41292e-05
-0.000101471
1.40209e-05
-0.000103772
1.39097e-05
-0.000106048
1.37986e-05
-0.000108299
1.36915e-05
-0.000110524
1.3594e-05
-0.000112721
1.35132e-05
-0.000114892
1.34592e-05
-0.000117036
1.34454e-05
-0.000119152
1.34899e-05
-0.000121238
1.36174e-05
-0.000123287
1.38614e-05
-0.000125279
1.42669e-05
-0.000127176
1.48936e-05
-0.000128897
1.58156e-05
-0.000130297
1.71161e-05
-0.000131135
1.88674e-05
-0.000131055
2.10798e-05
-0.000129662
2.36048e-05
2.61036e-05
-0.000126735
-9.40963e-07
6.3353e-06
-2.78997e-06
1.26168e-05
-5.03677e-06
1.54179e-05
-7.4412e-06
1.65486e-05
-9.90246e-06
1.69617e-05
-1.23828e-05
1.71015e-05
-1.48697e-05
1.71502e-05
-1.73598e-05
1.71728e-05
-1.9852e-05
1.71896e-05
-2.23464e-05
1.7206e-05
-2.48429e-05
1.72231e-05
-2.73416e-05
1.72411e-05
-2.98424e-05
1.72597e-05
-3.23455e-05
1.72788e-05
-3.48507e-05
1.7298e-05
-3.7358e-05
1.73172e-05
-3.98673e-05
1.7336e-05
-4.23786e-05
1.7354e-05
-4.48915e-05
1.73709e-05
-4.74058e-05
1.73864e-05
-4.99213e-05
1.73999e-05
-5.24376e-05
1.7411e-05
-5.49542e-05
1.74193e-05
-5.74707e-05
1.74243e-05
-5.99865e-05
1.74254e-05
-6.25009e-05
1.7422e-05
-6.50133e-05
1.74138e-05
-6.75227e-05
1.73999e-05
-7.00283e-05
1.73799e-05
-7.25292e-05
1.73532e-05
-7.5024e-05
1.73192e-05
-7.75118e-05
1.72772e-05
-7.99911e-05
1.72268e-05
-8.24606e-05
1.71674e-05
-8.49187e-05
1.70987e-05
-8.73639e-05
1.70202e-05
-8.97944e-05
1.69318e-05
-9.22083e-05
1.68334e-05
-9.4604e-05
1.67253e-05
-9.69792e-05
1.66079e-05
-9.93321e-05
1.64821e-05
-0.00010166
1.63492e-05
-0.000103962
1.62113e-05
-0.000106235
1.60712e-05
-0.000108476
1.59328e-05
-0.000110683
1.58012e-05
-0.000112854
1.56835e-05
-0.000114983
1.55889e-05
-0.000117068
1.55297e-05
-0.000119099
1.55217e-05
-0.000121068
1.55857e-05
-0.000122955
1.57482e-05
-0.00012473
1.60423e-05
-0.000126344
1.65076e-05
-0.000127715
1.71872e-05
-0.00012872
1.81203e-05
-0.000129177
1.93249e-05
-0.000128861
2.07638e-05
-0.000127559
2.23025e-05
2.37009e-05
-0.000125156
-9.38586e-07
7.27388e-06
-2.78543e-06
1.44636e-05
-5.03071e-06
1.76632e-05
-7.43424e-06
1.89521e-05
-9.89484e-06
1.94223e-05
-1.23745e-05
1.95812e-05
-1.48609e-05
1.96365e-05
-1.73503e-05
1.96623e-05
-1.98421e-05
1.96814e-05
-2.23361e-05
1.97e-05
-2.48324e-05
1.97194e-05
-2.73311e-05
1.97397e-05
-2.98321e-05
1.97607e-05
-3.23356e-05
1.97823e-05
-3.48416e-05
1.9804e-05
-3.735e-05
1.98256e-05
-3.98607e-05
1.98467e-05
-4.23736e-05
1.9867e-05
-4.48887e-05
1.9886e-05
-4.74055e-05
1.99032e-05
-4.99239e-05
1.99183e-05
-5.24436e-05
1.99307e-05
-5.49641e-05
1.99398e-05
-5.7485e-05
1.99452e-05
-6.00057e-05
1.99461e-05
-6.25256e-05
1.9942e-05
-6.5044e-05
1.99321e-05
-6.75601e-05
1.9916e-05
-7.00729e-05
1.98927e-05
-7.25814e-05
1.98618e-05
-7.50846e-05
1.98223e-05
-7.75812e-05
1.97738e-05
-8.00698e-05
1.97154e-05
-8.25489e-05
1.96466e-05
-8.5017e-05
1.95668e-05
-8.74723e-05
1.94755e-05
-8.99129e-05
1.93724e-05
-9.23368e-05
1.92573e-05
-9.47417e-05
1.91302e-05
-9.71254e-05
1.89915e-05
-9.94852e-05
1.88419e-05
-0.000101818
1.86824e-05
-0.000104122
1.85149e-05
-0.000106392
1.83418e-05
-0.000108626
1.81665e-05
-0.000110819
1.79938e-05
-0.000112965
1.78296e-05
-0.000115058
1.7682e-05
-0.000117089
1.75611e-05
-0.000119048
1.74799e-05
-0.000120916
1.74542e-05
-0.000122671
1.75033e-05
-0.000124278
1.76494e-05
-0.000125687
1.79158e-05
-0.000126823
1.8324e-05
-0.000127589
1.88858e-05
-0.000127855
1.95914e-05
-0.000127481
2.03898e-05
-0.000126349
2.11703e-05
2.1762e-05
-0.00012441
-9.36162e-07
8.21004e-06
-2.78006e-06
1.63075e-05
-5.02285e-06
1.9906e-05
-7.4245e-06
2.13538e-05
-9.88351e-06
2.18813e-05
-1.23618e-05
2.20594e-05
-1.48468e-05
2.21215e-05
-1.7335e-05
2.21505e-05
-1.98256e-05
2.21721e-05
-2.23186e-05
2.2193e-05
-2.48141e-05
2.22149e-05
-2.73122e-05
2.22378e-05
-2.98129e-05
2.22615e-05
-3.23164e-05
2.22858e-05
-3.48227e-05
2.23103e-05
-3.73317e-05
2.23346e-05
-3.98435e-05
2.23585e-05
-4.23579e-05
2.23814e-05
-4.48747e-05
2.24028e-05
-4.7394e-05
2.24224e-05
-4.99152e-05
2.24396e-05
-5.24383e-05
2.24538e-05
-5.49628e-05
2.24643e-05
-5.74882e-05
2.24706e-05
-6.00141e-05
2.2472e-05
-6.25398e-05
2.24677e-05
-6.50647e-05
2.2457e-05
-6.75879e-05
2.24392e-05
-7.01086e-05
2.24134e-05
-7.26256e-05
2.23789e-05
-7.5138e-05
2.23347e-05
-7.76445e-05
2.22802e-05
-8.01436e-05
2.22145e-05
-8.26337e-05
2.21368e-05
-8.51133e-05
2.20463e-05
-8.75804e-05
2.19426e-05
-9.00329e-05
2.18249e-05
-9.24687e-05
2.1693e-05
-9.48851e-05
2.15467e-05
-9.72796e-05
2.1386e-05
-9.9649e-05
2.12113e-05
-0.00010199
2.10234e-05
-0.000104299
2.08236e-05
-0.000106571
2.06139e-05
-0.000108801
2.03972e-05
-0.000110985
2.0177e-05
-0.000113113
1.99583e-05
-0.000115179
1.97473e-05
-0.000117169
1.95519e-05
-0.000119071
1.93816e-05
-0.000120864
1.92476e-05
-0.000122524
1.91625e-05
-0.000124013
1.91392e-05
-0.000125287
1.91896e-05
-0.000126283
1.93202e-05
-0.000126925
1.95278e-05
-0.000127124
1.97901e-05
-0.000126791
2.00563e-05
-0.000125859
2.02389e-05
2.02164e-05
-0.000124314
-9.3363e-07
9.14367e-06
-2.77413e-06
1.8148e-05
-5.01395e-06
2.21458e-05
-7.4132e-06
2.3753e-05
-9.87015e-06
2.43383e-05
-1.23465e-05
2.45358e-05
-1.48298e-05
2.46047e-05
-1.73164e-05
2.46371e-05
-1.98056e-05
2.46612e-05
-2.22973e-05
2.46848e-05
-2.47918e-05
2.47094e-05
-2.72891e-05
2.47351e-05
-2.97893e-05
2.47618e-05
-3.22927e-05
2.47891e-05
-3.47991e-05
2.48167e-05
-3.73087e-05
2.48442e-05
-3.98214e-05
2.48712e-05
-4.23373e-05
2.48972e-05
-4.48561e-05
2.49217e-05
-4.73778e-05
2.49441e-05
-4.99021e-05
2.49639e-05
-5.24289e-05
2.49805e-05
-5.49576e-05
2.49931e-05
-5.7488e-05
2.5001e-05
-6.00196e-05
2.50035e-05
-6.25517e-05
2.49998e-05
-6.50838e-05
2.49891e-05
-6.7615e-05
2.49704e-05
-7.01444e-05
2.49428e-05
-7.26711e-05
2.49056e-05
-7.51939e-05
2.48575e-05
-7.77116e-05
2.47978e-05
-8.02226e-05
2.47255e-05
-8.27255e-05
2.46396e-05
-8.52183e-05
2.45392e-05
-8.76992e-05
2.44235e-05
-9.0166e-05
2.42917e-05
-9.2616e-05
2.41431e-05
-9.50467e-05
2.39774e-05
-9.7455e-05
2.37942e-05
-9.98373e-05
2.35936e-05
-0.00010219
2.33759e-05
-0.000104508
2.31418e-05
-0.000106787
2.28928e-05
-0.00010902
2.26307e-05
-0.000111202
2.23581e-05
-0.000113322
2.20786e-05
-0.000115371
2.17965e-05
-0.000117336
2.15171e-05
-0.000119201
2.12469e-05
-0.000120946
2.09926e-05
-0.000122545
2.07613e-05
-0.000123965
2.0559e-05
-0.000125164
2.03891e-05
-0.000126094
2.02493e-05
-0.000126694
2.01282e-05
-0.000126903
1.99997e-05
-0.000126665
1.98181e-05
-0.000125942
1.95158e-05
1.90062e-05
-0.000124732
-9.30905e-07
1.00746e-05
-2.76763e-06
1.99847e-05
-5.0041e-06
2.43823e-05
-7.40057e-06
2.61495e-05
-9.85511e-06
2.67928e-05
-1.23293e-05
2.701e-05
-1.48105e-05
2.7086e-05
-1.72953e-05
2.71218e-05
-1.97828e-05
2.71487e-05
-2.22731e-05
2.71751e-05
-2.47663e-05
2.72026e-05
-2.72626e-05
2.72314e-05
-2.97623e-05
2.72614e-05
-3.22653e-05
2.72921e-05
-3.47719e-05
2.73233e-05
-3.7282e-05
2.73544e-05
-3.97958e-05
2.7385e-05
-4.23131e-05
2.74146e-05
-4.48341e-05
2.74426e-05
-4.73584e-05
2.74685e-05
-4.9886e-05
2.74916e-05
-5.24167e-05
2.75112e-05
-5.49502e-05
2.75265e-05
-5.7486e-05
2.75369e-05
-6.00238e-05
2.75413e-05
-6.2563e-05
2.7539e-05
-6.5103e-05
2.75291e-05
-6.76431e-05
2.75104e-05
-7.01823e-05
2.74821e-05
-7.27197e-05
2.7443e-05
-7.52542e-05
2.7392e-05
-7.77844e-05
2.73281e-05
-8.03091e-05
2.72501e-05
-8.28264e-05
2.71569e-05
-8.53345e-05
2.70474e-05
-8.78314e-05
2.69204e-05
-9.03148e-05
2.6775e-05
-9.2782e-05
2.66103e-05
-9.523e-05
2.64254e-05
-9.76555e-05
2.62197e-05
-0.000100055
2.59928e-05
-0.000102423
2.57444e-05
-0.000104756
2.54748e-05
-0.000107048
2.51844e-05
-0.000109291
2.48743e-05
-0.000111479
2.45458e-05
-0.000113602
2.42011e-05
-0.000115648
2.38426e-05
-0.000117604
2.34733e-05
-0.000119454
2.30965e-05
-0.000121177
2.27156e-05
-0.000122748
2.23329e-05
-0.000124139
2.19496e-05
-0.000125313
2.15633e-05
-0.00012623
2.11667e-05
-0.000126847
2.07445e-05
-0.000127118
2.02707e-05
-0.000127006
1.97066e-05
-0.00012649
1.89998e-05
1.80884e-05
-0.000125573
-9.27928e-07
1.10025e-05
-2.76048e-06
2.18173e-05
-4.99324e-06
2.6615e-05
-7.38658e-06
2.85428e-05
-9.83838e-06
2.92446e-05
-1.23101e-05
2.94817e-05
-1.4789e-05
2.95649e-05
-1.72716e-05
2.96044e-05
-1.97572e-05
2.96343e-05
-2.22458e-05
2.96637e-05
-2.47376e-05
2.96944e-05
-2.72328e-05
2.97267e-05
-2.97317e-05
2.97603e-05
-3.22344e-05
2.97948e-05
-3.4741e-05
2.98299e-05
-3.72516e-05
2.9865e-05
-3.97664e-05
2.98997e-05
-4.22854e-05
2.99335e-05
-4.48084e-05
2.99657e-05
-4.73356e-05
2.99957e-05
-4.98668e-05
3.00227e-05
-5.24017e-05
3.00461e-05
-5.49402e-05
3.0065e-05
-5.74819e-05
3.00786e-05
-6.00265e-05
3.00859e-05
-6.25734e-05
3.0086e-05
-6.51221e-05
3.00777e-05
-6.76718e-05
3.00601e-05
-7.02218e-05
3.0032e-05
-7.27711e-05
2.99922e-05
-7.53185e-05
2.99395e-05
-7.78629e-05
2.98725e-05
-8.04027e-05
2.97899e-05
-8.29363e-05
2.96905e-05
-8.54618e-05
2.95729e-05
-8.79771e-05
2.94357e-05
-9.04798e-05
2.92777e-05
-9.2967e-05
2.90975e-05
-9.54357e-05
2.88941e-05
-9.78824e-05
2.86663e-05
-0.000100303
2.84132e-05
-0.000102693
2.81341e-05
-0.000105046
2.78283e-05
-0.000107357
2.74956e-05
-0.000109619
2.7136e-05
-0.000111823
2.67497e-05
-0.000113959
2.63373e-05
-0.000116016
2.58994e-05
-0.00011798
2.54371e-05
-0.000119834
2.49509e-05
-0.00012156
2.44413e-05
-0.000123134
2.39072e-05
-0.00012453
2.3346e-05
-0.000125719
2.27519e-05
-0.000126667
2.21145e-05
-0.00012734
2.14176e-05
-0.000127706
2.06372e-05
-0.00012774
1.97405e-05
-0.000127428
1.86875e-05
1.74327e-05
-0.000126772
-9.24663e-07
1.19272e-05
-2.75263e-06
2.36452e-05
-4.98128e-06
2.88437e-05
-7.37113e-06
3.09327e-05
-9.81986e-06
3.16933e-05
-1.22887e-05
3.19506e-05
-1.4765e-05
3.20412e-05
-1.72452e-05
3.20846e-05
-1.97286e-05
3.21177e-05
-2.22153e-05
3.21504e-05
-2.47055e-05
3.21846e-05
-2.71994e-05
3.22206e-05
-2.96974e-05
3.22582e-05
-3.21995e-05
3.22969e-05
-3.4706e-05
3.23364e-05
-3.72171e-05
3.23761e-05
-3.97329e-05
3.24155e-05
-4.22534e-05
3.2454e-05
-4.47787e-05
3.2491e-05
-4.73088e-05
3.25258e-05
-4.98437e-05
3.25575e-05
-5.23831e-05
3.25855e-05
-5.4927e-05
3.26089e-05
-5.7475e-05
3.26266e-05
-6.00268e-05
3.26377e-05
-6.2582e-05
3.26412e-05
-6.51401e-05
3.26358e-05
-6.77004e-05
3.26204e-05
-7.02621e-05
3.25937e-05
-7.28243e-05
3.25545e-05
-7.5386e-05
3.25011e-05
-7.79459e-05
3.24324e-05
-8.05026e-05
3.23466e-05
-8.30544e-05
3.22423e-05
-8.55994e-05
3.21179e-05
-8.81356e-05
3.19718e-05
-9.06603e-05
3.18024e-05
-9.31708e-05
3.1608e-05
-9.56638e-05
3.13871e-05
-9.81356e-05
3.11382e-05
-0.000100582
3.08597e-05
-0.000102998
3.05503e-05
-0.000105379
3.02087e-05
-0.000107717
2.98337e-05
-0.000110005
2.94243e-05
-0.000112235
2.89797e-05
-0.000114397
2.84989e-05
-0.000116478
2.7981e-05
-0.000118466
2.74251e-05
-0.000120345
2.68296e-05
-0.000122096
2.61925e-05
-0.000123699
2.55102e-05
-0.000125131
2.47776e-05
-0.000126365
2.39865e-05
-0.000127376
2.31254e-05
-0.000128136
2.21779e-05
-0.000128622
2.11225e-05
-0.000128813
1.99322e-05
-0.000128701
1.85754e-05
1.70186e-05
-0.000128287
-9.2108e-07
1.28482e-05
-2.74401e-06
2.54682e-05
-4.96813e-06
3.10678e-05
-7.35411e-06
3.33187e-05
-9.79941e-06
3.41386e-05
-1.22651e-05
3.44164e-05
-1.47385e-05
3.45145e-05
-1.72159e-05
3.45621e-05
-1.96969e-05
3.45986e-05
-2.21813e-05
3.46348e-05
-2.46696e-05
3.46729e-05
-2.7162e-05
3.4713e-05
-2.96588e-05
3.4755e-05
-3.21602e-05
3.47984e-05
-3.46666e-05
3.48427e-05
-3.7178e-05
3.48875e-05
-3.96946e-05
3.49322e-05
-4.22167e-05
3.49761e-05
-4.47443e-05
3.50186e-05
-4.72774e-05
3.50589e-05
-4.9816e-05
3.50962e-05
-5.23601e-05
3.51297e-05
-5.49096e-05
3.51584e-05
-5.74643e-05
3.51813e-05
-6.00238e-05
3.51973e-05
-6.25879e-05
3.52052e-05
-6.5156e-05
3.52039e-05
-6.77276e-05
3.5192e-05
-7.03019e-05
3.51681e-05
-7.28782e-05
3.51307e-05
-7.54553e-05
3.50783e-05
-7.80322e-05
3.50092e-05
-8.06074e-05
3.49218e-05
-8.31793e-05
3.48142e-05
-8.57461e-05
3.46847e-05
-8.83055e-05
3.45313e-05
-9.08552e-05
3.4352e-05
-9.33922e-05
3.4145e-05
-9.59132e-05
3.39082e-05
-9.84145e-05
3.36395e-05
-0.000100892
3.3337e-05
-0.00010334
3.29986e-05
-0.000105754
3.26223e-05
-0.000108126
3.22061e-05
-0.00011045
3.1748e-05
-0.000112716
3.12459e-05
-0.000114915
3.06977e-05
-0.000117035
3.0101e-05
-0.000119063
2.94531e-05
-0.000120984
2.87507e-05
-0.000122781
2.79899e-05
-0.000124436
2.71651e-05
-0.000125928
2.62694e-05
-0.000127235
2.52934e-05
-0.000128334
2.42248e-05
-0.000129205
2.30482e-05
-0.000129827
2.17443e-05
-0.000130185
2.02906e-05
-0.000130272
1.8662e-05
1.68331e-05
-0.000130086
-9.17156e-07
1.37654e-05
-2.73457e-06
2.72856e-05
-4.95369e-06
3.32869e-05
-7.3354e-06
3.57004e-05
-9.77688e-06
3.65801e-05
-1.22391e-05
3.68785e-05
-1.47091e-05
3.69846e-05
-1.71835e-05
3.70364e-05
-1.96616e-05
3.70767e-05
-2.21435e-05
3.71167e-05
-2.46296e-05
3.7159e-05
-2.71202e-05
3.72036e-05
-2.96156e-05
3.72504e-05
-3.21161e-05
3.72989e-05
-3.4622e-05
3.73486e-05
-3.71336e-05
3.73991e-05
-3.9651e-05
3.74496e-05
-4.21745e-05
3.74996e-05
-4.47043e-05
3.75483e-05
-4.72404e-05
3.7595e-05
-4.97829e-05
3.76387e-05
-5.23318e-05
3.76786e-05
-5.48871e-05
3.77137e-05
-5.74487e-05
3.77428e-05
-6.00163e-05
3.77649e-05
-6.25897e-05
3.77786e-05
-6.51684e-05
3.77827e-05
-6.7752e-05
3.77756e-05
-7.03399e-05
3.77559e-05
-7.29312e-05
3.7722e-05
-7.5525e-05
3.76722e-05
-7.81203e-05
3.76045e-05
-8.07156e-05
3.75172e-05
-8.33096e-05
3.74082e-05
-8.59002e-05
3.72753e-05
-8.84855e-05
3.71165e-05
-9.10629e-05
3.69295e-05
-9.36297e-05
3.67118e-05
-9.61826e-05
3.64611e-05
-9.87178e-05
3.61747e-05
-0.000101231
3.58502e-05
-0.000103717
3.54849e-05
-0.000106171
3.50759e-05
-0.000108585
3.46205e-05
-0.000110953
3.41157e-05
-0.000113265
3.35584e-05
-0.000115513
3.29452e-05
-0.000117684
3.22724e-05
-0.000119767
3.1536e-05
-0.000121748
3.07311e-05
-0.00012361
2.98521e-05
-0.000125337
2.88921e-05
-0.00012691
2.78429e-05
-0.000128311
2.66943e-05
-0.00012952
2.5434e-05
-0.000130519
2.40472e-05
-0.000131292
2.25168e-05
-0.000131825
2.08237e-05
-0.000132111
1.89477e-05
1.68689e-05
-0.000132146
-9.1287e-07
1.46783e-05
-2.72425e-06
2.9097e-05
-4.93789e-06
3.55005e-05
-7.31487e-06
3.80774e-05
-9.75211e-06
3.90173e-05
-1.22104e-05
3.93368e-05
-1.46767e-05
3.94509e-05
-1.71476e-05
3.95074e-05
-1.96225e-05
3.95516e-05
-2.21016e-05
3.95958e-05
-2.45851e-05
3.96425e-05
-2.70736e-05
3.9692e-05
-2.95673e-05
3.97441e-05
-3.20665e-05
3.97982e-05
-3.45718e-05
3.98539e-05
-3.70833e-05
3.99106e-05
-3.96013e-05
3.99676e-05
-4.21261e-05
4.00244e-05
-4.4658e-05
4.00802e-05
-4.7197e-05
4.0134e-05
-4.97434e-05
4.01851e-05
-5.22972e-05
4.02324e-05
-5.48584e-05
4.02749e-05
-5.74271e-05
4.03115e-05
-6.00031e-05
4.03408e-05
-6.25862e-05
4.03617e-05
-6.5176e-05
4.03725e-05
-6.77723e-05
4.03719e-05
-7.03744e-05
4.03581e-05
-7.29817e-05
4.03293e-05
-7.55934e-05
4.02838e-05
-7.82084e-05
4.02195e-05
-8.08254e-05
4.01343e-05
-8.34432e-05
4.00259e-05
-8.60598e-05
3.9892e-05
-8.86734e-05
3.97301e-05
-9.12815e-05
3.95376e-05
-9.38814e-05
3.93117e-05
-9.64699e-05
3.90496e-05
-9.90433e-05
3.87481e-05
-0.000101597
3.84043e-05
-0.000104127
3.80147e-05
-0.000106627
3.7576e-05
-0.000109091
3.70844e-05
-0.000111512
3.65361e-05
-0.00011388
3.5927e-05
-0.000116188
3.52526e-05
-0.000118423
3.4508e-05
-0.000120575
3.36879e-05
-0.00012263
3.27862e-05
-0.000124574
3.1796e-05
-0.000126391
3.07093e-05
-0.000128065
2.95169e-05
-0.000129579
2.82081e-05
-0.000130916
2.67706e-05
-0.000132059
2.51905e-05
-0.000132994
2.34522e-05
-0.00013371
2.15393e-05
-0.000134197
1.9435e-05
1.71233e-05
-0.000134452
-9.08202e-07
1.55865e-05
-2.71299e-06
3.09017e-05
-4.92063e-06
3.77082e-05
-7.29241e-06
4.04491e-05
-9.72496e-06
4.14499e-05
-1.21788e-05
4.17907e-05
-1.46411e-05
4.19132e-05
-1.71081e-05
4.19744e-05
-1.95794e-05
4.20229e-05
-2.20552e-05
4.20716e-05
-2.45358e-05
4.21231e-05
-2.70217e-05
4.21779e-05
-2.95133e-05
4.22357e-05
-3.20111e-05
4.22959e-05
-3.45153e-05
4.23581e-05
-3.70264e-05
4.24217e-05
-3.95448e-05
4.2486e-05
-4.20707e-05
4.25503e-05
-4.46044e-05
4.26139e-05
-4.71463e-05
4.26758e-05
-4.96965e-05
4.27352e-05
-5.22551e-05
4.27911e-05
-5.48224e-05
4.28422e-05
-5.73983e-05
4.28874e-05
-5.99828e-05
4.29254e-05
-6.25759e-05
4.29547e-05
-6.51773e-05
4.29739e-05
-6.77868e-05
4.29813e-05
-7.04039e-05
4.29751e-05
-7.3028e-05
4.29535e-05
-7.56585e-05
4.29143e-05
-7.82944e-05
4.28554e-05
-8.09347e-05
4.27745e-05
-8.3578e-05
4.26692e-05
-8.62227e-05
4.25367e-05
-8.8867e-05
4.23743e-05
-9.15085e-05
4.21791e-05
-9.41447e-05
4.19479e-05
-9.67725e-05
4.16774e-05
-9.93884e-05
4.1364e-05
-0.000101988
4.10042e-05
-0.000104567
4.05939e-05
-0.00010712
4.0129e-05
-0.000109641
3.96051e-05
-0.000112123
3.90175e-05
-0.000114557
3.8361e-05
-0.000116934
3.76303e-05
-0.000119246
3.68194e-05
-0.00012148
3.59218e-05
-0.000123624
3.49304e-05
-0.000125665
3.3837e-05
-0.000127589
3.26329e-05
-0.00012938
3.1308e-05
-0.000131023
2.98514e-05
-0.000132503
2.82506e-05
-0.000133805
2.64923e-05
-0.000134915
2.45623e-05
-0.000135822
2.2446e-05
-0.000136515
2.01288e-05
1.75975e-05
-0.00013699
-9.03131e-07
1.64896e-05
-2.70075e-06
3.26994e-05
-4.90183e-06
3.99093e-05
-7.26789e-06
4.28152e-05
-9.69526e-06
4.38773e-05
-1.21443e-05
4.42397e-05
-1.46019e-05
4.43708e-05
-1.70646e-05
4.44371e-05
-1.95319e-05
4.44902e-05
-2.20039e-05
4.45436e-05
-2.44812e-05
4.46004e-05
-2.69642e-05
4.46609e-05
-2.94533e-05
4.47248e-05
-3.19491e-05
4.47917e-05
-3.4452e-05
4.4861e-05
-3.69624e-05
4.49321e-05
-3.94808e-05
4.50043e-05
-4.20075e-05
4.5077e-05
-4.45429e-05
4.51493e-05
-4.70873e-05
4.52203e-05
-4.96411e-05
4.5289e-05
-5.22044e-05
4.53544e-05
-5.47776e-05
4.54154e-05
-5.73608e-05
4.54706e-05
-5.9954e-05
4.55186e-05
-6.25573e-05
4.5558e-05
-6.51706e-05
4.55872e-05
-6.77937e-05
4.56044e-05
-7.04263e-05
4.56078e-05
-7.3068e-05
4.55952e-05
-7.57182e-05
4.55645e-05
-7.83763e-05
4.55134e-05
-8.10411e-05
4.54394e-05
-8.37115e-05
4.53396e-05
-8.63862e-05
4.52114e-05
-8.90634e-05
4.50515e-05
-9.1741e-05
4.48567e-05
-9.44165e-05
4.46235e-05
-9.70873e-05
4.43481e-05
-9.97498e-05
4.40266e-05
-0.0001024
4.36546e-05
-0.000105034
4.32278e-05
-0.000107646
4.27412e-05
-0.000110231
4.21898e-05
-0.000112781
4.15679e-05
-0.00011529
4.08696e-05
-0.000117748
4.00886e-05
-0.000120147
3.9218e-05
-0.000122475
3.82501e-05
-0.000124722
3.71769e-05
-0.000126874
3.59894e-05
-0.000128919
3.46778e-05
-0.000130842
3.32316e-05
-0.00013263
3.16392e-05
-0.000134268
2.98884e-05
-0.000135742
2.7966e-05
-0.000137038
2.58587e-05
-0.000138145
2.35529e-05
-0.000139052
2.10358e-05
1.82957e-05
-0.00013975
-8.97637e-07
1.73872e-05
-2.68747e-06
3.44892e-05
-4.88139e-06
4.21032e-05
-7.24117e-06
4.5175e-05
-9.66285e-06
4.62989e-05
-1.21065e-05
4.66834e-05
-1.45591e-05
4.68233e-05
-1.70169e-05
4.6895e-05
-1.94796e-05
4.69529e-05
-2.19475e-05
4.70114e-05
-2.44209e-05
4.70738e-05
-2.69004e-05
4.71405e-05
-2.93867e-05
4.72111e-05
-3.18801e-05
4.72851e-05
-3.43812e-05
4.73621e-05
-3.68904e-05
4.74414e-05
-3.94084e-05
4.75223e-05
-4.19355e-05
4.76041e-05
-4.44722e-05
4.7686e-05
-4.7019e-05
4.7767e-05
-4.95761e-05
4.78462e-05
-5.2144e-05
4.79223e-05
-5.4723e-05
4.79944e-05
-5.73133e-05
4.80609e-05
-5.99152e-05
4.81205e-05
-6.25288e-05
4.81716e-05
-6.51541e-05
4.82125e-05
-6.77911e-05
4.82415e-05
-7.04397e-05
4.82563e-05
-7.30996e-05
4.82551e-05
-7.57703e-05
4.82353e-05
-7.84513e-05
4.81945e-05
-8.11419e-05
4.81299e-05
-8.3841e-05
4.80387e-05
-8.65474e-05
4.79178e-05
-8.92595e-05
4.77637e-05
-9.19756e-05
4.75728e-05
-9.46935e-05
4.73413e-05
-9.74104e-05
4.70651e-05
-0.000100123
4.67396e-05
-0.000102829
4.63601e-05
-0.000105523
4.59216e-05
-0.0001082
4.54185e-05