0 	0 	0 	0
1.57135 	0.00649022 	-0.0131984 	0
3.1427 	-0.0388169 	0.0363543 	0
4.71405 	-0.0725304 	0.0977014 	0
6.28539 	-0.043141 	0.0898094 	0
7.85674 	0.000589962 	0.0353528 	0
9.42809 	0.0412979 	-0.0108765 	0
10.9994 	0.0599264 	-0.0489937 	0
12.5708 	0.121855 	-0.109764 	0
14.1421 	0.5 	0 	0
