/*--------------------------------*- C++ -*----------------------------------*\
  =========                 |
  \\      /  F ield         | OpenFOAM: The Open Source CFD Toolbox
   \\    /   O peration     | Website:  https://openfoam.org
    \\  /    A nd           | Version:  8
     \\/     M anipulation  |
\*---------------------------------------------------------------------------*/
FoamFile
{
    version     2.0;
    format      ascii;
    class       volVectorField;
    location    "97";
    object      U;
}
// * * * * * * * * * * * * * * * * * * * * * * * * * * * * * * * * * * * * * //

dimensions      [0 1 -1 0 0 0 0];

internalField   nonuniform List<vector> 
400
(
(1 1.15885e-16 0)
(1 4.13285e-17 0)
(1 4.59918e-17 0)
(1 5.73055e-17 0)
(1 1.37422e-16 0)
(1 1.86188e-16 0)
(1 2.12735e-16 0)
(1 2.15763e-16 0)
(1 1.60279e-16 0)
(1 1.23286e-16 0)
(1 1.38197e-16 0)
(1 5.56682e-18 0)
(1 -1.37973e-16 0)
(1 -1.55514e-16 0)
(1 -9.56955e-17 0)
(1 -6.69355e-17 0)
(1 -5.26499e-17 0)
(1 -1.36407e-16 0)
(1 -2.53229e-16 0)
(1 -1.91049e-16 0)
(1 1.04441e-16 0)
(1 7.7228e-17 0)
(1 6.40461e-17 0)
(1 6.85922e-17 0)
(1 9.68663e-17 0)
(1 1.8715e-16 0)
(1 2.48783e-16 0)
(1 2.14641e-16 0)
(1 1.57158e-16 0)
(1 1.33529e-16 0)
(1 9.90687e-17 0)
(1 -8.40978e-17 0)
(1 -1.26661e-16 0)
(1 -1.44194e-16 0)
(1 -1.20802e-16 0)
(1 -6.4985e-17 0)
(1 -1.42981e-16 0)
(1 -1.94571e-16 0)
(1 -2.57681e-16 0)
(1 -2.11031e-16 0)
(1 -4.60905e-17 0)
(1 4.44164e-17 0)
(1 6.77788e-17 0)
(1 6.46101e-17 0)
(1 5.61026e-17 0)
(1 1.57239e-16 0)
(1 2.67457e-16 0)
(1 2.38751e-16 0)
(1 1.71029e-16 0)
(1 1.1193e-16 0)
(1 7.43992e-18 0)
(1 -5.64125e-17 0)
(1 -1.20887e-17 0)
(1 -6.88643e-17 0)
(1 -1.33453e-16 0)
(1 -1.85293e-16 0)
(1 -1.67541e-16 0)
(1 -2.48395e-16 0)
(1 -2.85175e-16 0)
(1 -2.25164e-16 0)
(1 -1.40474e-16 0)
(1 -3.25732e-17 0)
(1 6.65667e-17 0)
(1 5.88679e-17 0)
(1 4.21942e-17 0)
(1 1.02368e-16 0)
(1 1.75544e-16 0)
(1 2.30946e-16 0)
(1 1.89631e-16 0)
(1 1.16212e-16 0)
(1 -5.76711e-18 0)
(1 1.67426e-18 0)
(1 4.22106e-17 0)
(1 -7.5152e-18 0)
(1 -1.42087e-16 0)
(1 -1.99952e-16 0)
(1 -1.56746e-16 0)
(1 -2.83214e-16 0)
(1 -3.53441e-16 0)
(1 -2.27665e-16 0)
(1 -1.20821e-16 0)
(1 -3.646e-17 0)
(1 9.79687e-17 0)
(1 7.10748e-17 0)
(1 -2.37981e-18 0)
(1 5.15272e-17 0)
(1 5.62667e-17 0)
(1 1.14171e-16 0)
(1 1.59006e-16 0)
(1 1.29138e-16 0)
(1 2.59511e-17 0)
(1 -3.3328e-17 0)
(1 -1.39592e-17 0)
(1 -8.84169e-18 0)
(1 -8.23248e-17 0)
(1 -1.44637e-16 0)
(1 -2.23609e-16 0)
(1 -3.37949e-16 0)
(1 -3.00561e-16 0)
(1 -2.50848e-16 0)
(1 -4.15677e-17 0)
(1 -7.68307e-18 0)
(1 8.68152e-17 0)
(1 2.37978e-17 0)
(1 -1.24637e-18 0)
(1 -7.701e-18 0)
(1 3.16521e-17 0)
(1 5.69488e-17 0)
(1 1.10501e-16 0)
(1 4.40225e-17 0)
(1 -5.62335e-17 0)
(1 -5.21127e-17 0)
(1 -8.17553e-17 0)
(1 -8.54216e-17 0)
(1 7.11146e-18 0)
(1 -1.84504e-16 0)
(1 -2.60542e-16 0)
(1 -3.0462e-16 0)
(1 -2.52177e-16 0)
(1 -3.37342e-16 0)
(1 6.65483e-17 0)
(1 1.25043e-18 0)
(1 4.43467e-17 0)
(1 6.76099e-17 0)
(1 2.22747e-17 0)
(1 -2.72194e-17 0)
(1 1.57147e-18 0)
(1 1.20193e-17 0)
(1 1.7256e-17 0)
(1 -7.68247e-17 0)
(1 -1.27096e-16 0)
(1 -1.18e-16 0)
(1 -1.12028e-16 0)
(1 -1.49058e-16 0)
(1 -1.20282e-16 0)
(1 -1.86968e-16 0)
(1 -2.65663e-16 0)
(1 -1.76209e-16 0)
(1 -2.5629e-16 0)
(1 -3.57466e-16 0)
(1 1.06303e-16 0)
(1 -3.26701e-17 0)
(1 -2.9358e-17 0)
(1 1.46704e-16 0)
(1 9.02122e-17 0)
(1 4.67831e-18 0)
(1 -2.93701e-18 0)
(1 -9.22063e-17 0)
(1 -1.3917e-16 0)
(1 -1.95864e-16 0)
(1 -1.49258e-16 0)
(1 -1.45626e-16 0)
(1 -1.5327e-16 0)
(1 -1.74558e-16 0)
(1 -2.3929e-16 0)
(1 -1.84193e-16 0)
(1 -2.07601e-16 0)
(1 -1.57445e-16 0)
(1 -2.40593e-16 0)
(1 -2.49057e-16 0)
(1 1.04922e-17 0)
(1 -3.41588e-17 0)
(1 -8.97107e-17 0)
(1 1.06717e-16 0)
(1 1.345e-16 0)
(1 7.27318e-17 0)
(1 2.82468e-18 0)
(1 -1.2868e-16 0)
(1 -2.48855e-16 0)
(1 -2.32105e-16 0)
(1 -1.46964e-16 0)
(1 -1.03419e-16 0)
(1 -1.88159e-16 0)
(1 -1.95573e-16 0)
(1 -2.54396e-16 0)
(1 -2.03693e-16 0)
(1 -1.55102e-16 0)
(1 -1.99915e-16 0)
(1 -2.08915e-16 0)
(1 -1.57751e-16 0)
(1 -5.07109e-17 0)
(1 -7.3735e-17 0)
(1 -1.02546e-16 0)
(1 1.64931e-17 0)
(1 9.13658e-17 0)
(1 1.50603e-16 0)
(1 3.27437e-18 0)
(1 -1.24644e-16 0)
(1 -2.71083e-16 0)
(1 -1.95249e-16 0)
(1 -1.23791e-16 0)
(1 -1.1445e-16 0)
(1 -1.4657e-16 0)
(1 -1.92674e-16 0)
(1 -2.25948e-16 0)
(1 -1.77939e-16 0)
(1 -1.25319e-16 0)
(1 -1.88139e-16 0)
(1 -2.04346e-16 0)
(1 -1.97301e-16 0)
(1 -2.87705e-17 0)
(1 -1.14299e-16 0)
(1 -1.02422e-16 0)
(1 -8.89091e-17 0)
(1 8.0548e-17 0)
(1 7.39511e-17 0)
(1 -6.98637e-17 0)
(1 -1.60893e-16 0)
(1 -1.85467e-16 0)
(1 -1.6827e-16 0)
(1 -8.60426e-17 0)
(1 -6.47046e-17 0)
(1 -7.57377e-17 0)
(1 -1.80632e-16 0)
(1 -1.58489e-16 0)
(1 -9.63851e-17 0)
(1 -1.20872e-16 0)
(1 -2.18827e-16 0)
(1 -2.22821e-16 0)
(1 -2.59668e-16 0)
(1 -8.18991e-17 0)
(1 -1.25973e-16 0)
(1 -1.16646e-16 0)
(1 -1.29709e-16 0)
(1 -1.16162e-17 0)
(1 -1.14909e-17 0)
(1 -1.95945e-16 0)
(1 -1.80424e-16 0)
(1 -8.16762e-17 0)
(1 -5.88149e-17 0)
(1 -4.06903e-17 0)
(1 -2.4308e-17 0)
(1 -5.02039e-17 0)
(1 -7.88499e-17 0)
(1 -1.14167e-16 0)
(1 -1.12701e-16 0)
(1 -1.76496e-16 0)
(1 -1.97128e-16 0)
(1 -2.21957e-16 0)
(1 -3.00314e-16 0)
(1 -1.42148e-16 0)
(1 -1.60156e-16 0)
(1 -1.33528e-16 0)
(1 -1.20239e-16 0)
(1 -1.28261e-16 0)
(1 -8.33387e-17 0)
(1 -1.43092e-16 0)
(1 -1.44829e-16 0)
(1 -7.85047e-17 0)
(1 -4.12975e-17 0)
(1 -3.13883e-17 0)
(1 -4.47717e-17 0)
(1 -7.24649e-18 0)
(1 2.10761e-17 0)
(1 -2.76179e-17 0)
(1 -1.3452e-16 0)
(1 -2.39838e-16 0)
(1 -1.89565e-16 0)
(1 -2.81879e-16 0)
(1 -3.88312e-16 0)
(1 -1.60822e-16 0)
(1 -1.61337e-16 0)
(1 -1.39616e-16 0)
(1 -8.35183e-17 0)
(1 -1.05543e-16 0)
(1 -1.79701e-16 0)
(1 -4.9985e-17 0)
(1 -8.80743e-17 0)
(1 -7.92066e-17 0)
(1 -9.6063e-17 0)
(1 -1.06382e-17 0)
(1 -2.15608e-17 0)
(1 5.35143e-17 0)
(1 -1.63699e-18 0)
(1 5.16878e-18 0)
(1 -1.1982e-16 0)
(1 -2.50179e-16 0)
(1 -2.51979e-16 0)
(1 -3.14585e-16 0)
(1 -3.98859e-16 0)
(1 -7.71926e-17 0)
(1 -1.46512e-16 0)
(1 -1.17906e-16 0)
(1 -7.32953e-17 0)
(1 -1.25207e-16 0)
(1 -1.80561e-16 0)
(1 -4.13587e-17 0)
(1 -4.12258e-17 0)
(1 -2.67647e-17 0)
(1 -2.61781e-17 0)
(1 -2.0224e-17 0)
(1 -1.69893e-17 0)
(1 1.09929e-17 0)
(1 -3.43641e-17 0)
(1 -5.77746e-17 0)
(1 -1.14114e-16 0)
(1 -2.23855e-16 0)
(1 -2.94147e-16 0)
(1 -2.8136e-16 0)
(1 -3.03275e-16 0)
(1 3.15158e-17 0)
(1 -1.42065e-16 0)
(1 -1.26597e-16 0)
(1 -1.23272e-16 0)
(1 -1.62086e-16 0)
(1 -1.01211e-16 0)
(1 -6.48928e-17 0)
(1 3.64486e-17 0)
(1 4.37865e-17 0)
(1 3.53863e-17 0)
(1 -8.62093e-17 0)
(1 -6.13828e-17 0)
(1 -5.41351e-17 0)
(1 -4.12272e-17 0)
(1 -6.34445e-17 0)
(1 -8.47671e-17 0)
(1 -1.62212e-16 0)
(1 -2.46352e-16 0)
(1 -2.68918e-16 0)
(1 -2.79623e-16 0)
(1 1.25332e-17 0)
(1 -9.43976e-17 0)
(1 -1.64169e-16 0)
(1 -1.72316e-16 0)
(1 -1.3377e-16 0)
(1 -6.16442e-17 0)
(1 -4.05009e-17 0)
(1 9.64696e-17 0)
(1 9.21823e-17 0)
(1 4.464e-17 0)
(1 -1.15065e-16 0)
(1 -8.16856e-17 0)
(1 -6.25672e-17 0)
(1 -4.09661e-17 0)
(1 -1.9985e-17 0)
(1 -5.70673e-17 0)
(1 -1.3124e-16 0)
(1 -1.43307e-16 0)
(1 -2.40825e-16 0)
(1 -2.93719e-16 0)
(1 -1.98072e-17 0)
(1 -7.72744e-17 0)
(1 -9.97867e-17 0)
(1 -1.09138e-16 0)
(1 -1.13168e-16 0)
(1 -1.19137e-16 0)
(1 -5.41125e-17 0)
(1 2.59739e-17 0)
(1 7.86597e-17 0)
(1 3.54141e-17 0)
(1 -3.64055e-17 0)
(1 -6.03939e-17 0)
(1 3.183e-17 0)
(1 6.57559e-17 0)
(1 -5.26343e-17 0)
(1 -1.10221e-16 0)
(1 -1.27138e-16 0)
(1 -1.53641e-16 0)
(1 -1.6659e-16 0)
(1 -2.47831e-16 0)
(1 -4.70859e-17 0)
(1 -7.87565e-17 0)
(1 -3.10782e-17 0)
(1 -6.1734e-17 0)
(1 -1.15523e-16 0)
(1 -1.04467e-16 0)
(1 -6.73066e-17 0)
(1 -3.46757e-17 0)
(1 1.78514e-17 0)
(1 -8.35652e-18 0)
(1 3.28268e-17 0)
(1 1.69769e-17 0)
(1 9.73565e-17 0)
(1 1.22939e-16 0)
(1 -3.70046e-17 0)
(1 -1.34968e-16 0)
(1 -1.42863e-16 0)
(1 -1.53394e-16 0)
(1 -1.36735e-16 0)
(1 -1.968e-16 0)
(1 -4.70666e-17 0)
(1 -4.89934e-17 0)
(1 -3.52414e-17 0)
(1 -8.04243e-17 0)
(1 -9.32918e-17 0)
(1 -4.91137e-17 0)
(1 -4.48468e-17 0)
(1 -5.78669e-17 0)
(1 -3.34988e-17 0)
(1 -4.49583e-17 0)
(1 2.1899e-17 0)
(1 7.04697e-17 0)
(1 5.1348e-17 0)
(1 8.0717e-17 0)
(1 3.80508e-17 0)
(1 -8.31762e-17 0)
(1 -1.5393e-16 0)
(1 -1.23831e-16 0)
(1 -1.60377e-16 0)
(1 -1.71892e-16 0)
)
;

boundaryField
{
    inlet
    {
        type            fixedValue;
        value           uniform (1 0 0);
    }
    outlet
    {
        type            zeroGradient;
    }
    up
    {
        type            zeroGradient;
    }
    down
    {
        type            zeroGradient;
    }
    frontAndBack
    {
        type            empty;
    }
}


// ************************************************************************* //
