/*--------------------------------*- C++ -*----------------------------------*\
  =========                 |
  \\      /  F ield         | OpenFOAM: The Open Source CFD Toolbox
   \\    /   O peration     | Website:  https://openfoam.org
    \\  /    A nd           | Version:  8
     \\/     M anipulation  |
\*---------------------------------------------------------------------------*/
FoamFile
{
    version     2.0;
    format      ascii;
    class       surfaceScalarField;
    location    "0.58";
    object      phi;
}
// * * * * * * * * * * * * * * * * * * * * * * * * * * * * * * * * * * * * * //

dimensions      [0 3 -1 0 0 0 0];

internalField   nonuniform List<scalar> 
760
(
1.23864e-06
-4.40386e-12
1.23864e-06
1.46919e-12
1.23863e-06
5.41995e-12
1.23862e-06
7.71834e-12
1.23861e-06
8.68469e-12
1.23861e-06
8.83016e-12
1.2386e-06
8.22699e-12
1.23859e-06
7.27062e-12
1.23858e-06
6.10911e-12
1.23858e-06
4.70649e-12
1.23858e-06
3.13828e-12
1.23857e-06
1.51902e-12
1.23857e-06
-1.7848e-13
1.23858e-06
-2.08991e-12
1.23858e-06
-4.32528e-12
1.23859e-06
-6.91643e-12
1.2386e-06
-9.78615e-12
1.23861e-06
-1.23255e-11
1.23862e-06
-1.30308e-11
-1.00364e-11
3.71614e-06
-9.90661e-12
3.71614e-06
4.14053e-12
3.71613e-06
1.41523e-11
3.71612e-06
1.99163e-11
3.71611e-06
2.24367e-11
3.71609e-06
2.26978e-11
3.71608e-06
2.13417e-11
3.71607e-06
1.89409e-11
3.71606e-06
1.58344e-11
3.71605e-06
1.21592e-11
3.71605e-06
8.0257e-12
3.71604e-06
3.51453e-12
3.71605e-06
-1.40943e-12
3.71605e-06
-6.86781e-12
3.71606e-06
-1.29461e-11
3.71607e-06
-1.95681e-11
3.71609e-06
-2.61953e-11
3.71611e-06
-3.12243e-11
3.71612e-06
-3.13952e-11
-2.36472e-11
6.19445e-06
-1.40861e-11
6.19445e-06
6.04593e-12
6.19444e-06
2.10535e-11
6.19444e-06
2.96306e-11
6.19442e-06
3.36486e-11
6.19441e-06
3.42521e-11
6.1944e-06
3.242e-11
6.19439e-06
2.89333e-11
6.19438e-06
2.42594e-11
6.19438e-06
1.8635e-11
6.19437e-06
1.22173e-11
6.19437e-06
5.0882e-12
6.19437e-06
-2.78294e-12
6.19438e-06
-1.14752e-11
6.19438e-06
-2.0961e-11
6.1944e-06
-3.08617e-11
6.19441e-06
-4.01592e-11
6.19443e-06
-4.64626e-11
6.19444e-06
-4.54767e-11
-3.39186e-11
8.67412e-06
-1.77809e-11
8.67412e-06
5.8272e-12
8.67412e-06
2.38913e-11
8.67412e-06
3.48018e-11
8.67411e-06
4.01738e-11
8.6741e-06
4.14479e-11
8.6741e-06
3.96843e-11
8.67409e-06
3.57279e-11
8.67408e-06
3.01628e-11
8.67408e-06
2.33381e-11
8.67407e-06
1.5451e-11
8.67407e-06
6.57858e-12
8.67407e-06
-3.28878e-12
8.67408e-06
-1.41472e-11
8.67408e-06
-2.5841e-11
8.67409e-06
-3.77598e-11
8.6741e-06
-4.85227e-11
8.67411e-06
-5.53816e-11
8.67411e-06
-5.3831e-11
-4.05319e-11
1.11557e-05
-2.09552e-11
1.11557e-05
3.45299e-12
1.11557e-05
2.26922e-11
1.11557e-05
3.50349e-11
1.11557e-05
4.156e-11
1.11557e-05
4.36918e-11
1.11557e-05
4.24563e-11
1.11557e-05
3.87117e-11
1.11557e-05
3.30853e-11
1.11557e-05
2.59762e-11
1.11556e-05
1.76155e-11
1.11556e-05
8.09991e-12
1.11556e-05
-2.55058e-12
1.11556e-05
-1.42683e-11
1.11556e-05
-2.67889e-11
1.11557e-05
-3.9406e-11
1.11557e-05
-5.06222e-11
1.11557e-05
-5.77423e-11
1.11557e-05
-5.65084e-11
-4.35349e-11
1.36395e-05
-2.30059e-11
1.36395e-05
-3.85614e-13
1.36395e-05
1.82233e-11
1.36395e-05
3.0816e-11
1.36395e-05
3.80425e-11
1.36395e-05
4.10348e-11
1.36395e-05
4.06744e-11
1.36396e-05
3.77394e-11
1.36396e-05
3.28258e-11
1.36396e-05
2.63356e-11
1.36395e-05
1.85188e-11
1.36395e-05
9.49672e-12
1.36395e-05
-6.80418e-13
1.36395e-05
-1.19182e-11
1.36395e-05
-2.39291e-11
1.36395e-05
-3.60458e-11
1.36395e-05
-4.68787e-11
1.36395e-05
-5.40212e-11
1.36395e-05
-5.38332e-11
-4.30095e-11
1.61261e-05
-2.34819e-11
1.61261e-05
-4.78818e-12
1.61261e-05
1.14661e-11
1.61261e-05
2.31147e-11
1.61261e-05
3.04037e-11
1.61262e-05
3.40653e-11
1.61262e-05
3.47417e-11
1.61262e-05
3.30452e-11
1.61262e-05
2.94751e-11
1.61262e-05
2.43908e-11
1.61262e-05
1.80331e-11
1.61262e-05
1.05285e-11
1.61262e-05
1.93745e-12
1.61262e-05
-7.64566e-12
1.61262e-05
-1.79762e-11
1.61261e-05
-2.8527e-11
1.61261e-05
-3.82174e-11
1.61261e-05
-4.51281e-11
1.61261e-05
-4.64074e-11
-3.90301e-11
1.86158e-05
-2.21257e-11
1.86158e-05
-8.94182e-12
1.86158e-05
3.48634e-12
1.86158e-05
1.30938e-11
1.86158e-05
1.97247e-11
1.86158e-05
2.37175e-11
1.86158e-05
2.54125e-11
1.86158e-05
2.51934e-11
1.86158e-05
2.3406e-11
1.86158e-05
2.03208e-11
1.86158e-05
1.6136e-11
1.86158e-05
1.09594e-11
1.86158e-05
4.83799e-12
1.86158e-05
-2.16233e-12
1.86158e-05
-9.89158e-12
1.86158e-05
-1.80314e-11
1.86158e-05
-2.5905e-11
1.86158e-05
-3.22504e-11
1.86158e-05
-3.50857e-11
-3.18946e-11
2.11087e-05
-1.89049e-11
2.11087e-05
-1.22645e-11
2.11087e-05
-4.74706e-12
2.11087e-05
1.91079e-12
2.11088e-05
7.21096e-12
2.11088e-05
1.11319e-11
2.11088e-05
1.36917e-11
2.11088e-05
1.50092e-11
2.11088e-05
1.5234e-11
2.11088e-05
1.45069e-11
2.11088e-05
1.29503e-11
2.11088e-05
1.06301e-11
2.11088e-05
7.56238e-12
2.11088e-05
3.76809e-12
2.11088e-05
-7.19354e-13
2.11088e-05
-5.83038e-12
2.11088e-05
-1.13324e-11
2.11088e-05
-1.67086e-11
2.11087e-05
-2.09336e-11
-2.21656e-11
2.36052e-05
-1.40473e-11
2.36052e-05
-1.44131e-11
2.36052e-05
-1.24509e-11
2.36052e-05
-9.37365e-12
2.36052e-05
-5.92594e-12
2.36052e-05
-2.45917e-12
2.36052e-05
7.34795e-13
2.36052e-05
3.49803e-12
2.36052e-05
5.75956e-12
2.36053e-05
7.50277e-12
2.36053e-05
8.7501e-12
2.36053e-05
9.50874e-12
2.36053e-05
9.75593e-12
2.36053e-05
9.4617e-12
2.36052e-05
8.5423e-12
2.36052e-05
6.81697e-12
2.36052e-05
4.0736e-12
2.36052e-05
7.784e-14
2.36052e-05
-5.18242e-12
-1.06297e-11
2.61052e-05
-8.00946e-12
2.61052e-05
-1.52906e-11
2.61052e-05
-1.90505e-11
2.61052e-05
-1.98379e-11
2.61052e-05
-1.85429e-11
2.61052e-05
-1.58177e-11
2.61052e-05
-1.22368e-11
2.61052e-05
-8.22592e-12
2.61053e-05
-4.08217e-12
2.61053e-05
9.64361e-15
2.61053e-05
3.96025e-12
2.61053e-05
7.71136e-12
2.61053e-05
1.12025e-11
2.61053e-05
1.43601e-11
2.61053e-05
1.69998e-11
2.61052e-05
1.87229e-11
2.61052e-05
1.89137e-11
2.61052e-05
1.66441e-11
2.61052e-05
1.08359e-11
1.73393e-12
2.86088e-05
-1.43951e-12
2.86088e-05
-1.50354e-11
2.86088e-05
-2.41773e-11
2.86088e-05
-2.87182e-11
2.86088e-05
-2.96041e-11
2.86088e-05
-2.77583e-11
2.86088e-05
-2.40038e-11
2.86088e-05
-1.90097e-11
2.86088e-05
-1.32854e-11
2.86088e-05
-7.1762e-12
2.86088e-05
-8.80412e-13
2.86088e-05
5.48227e-12
2.86088e-05
1.18247e-11
2.86088e-05
1.80487e-11
2.86088e-05
2.39032e-11
2.86088e-05
2.88299e-11
2.86088e-05
3.18881e-11
2.86088e-05
3.15564e-11
2.86088e-05
2.57462e-11
1.3809e-11
3.11158e-05
4.88216e-12
3.11158e-05
-1.39602e-11
3.11158e-05
-2.76403e-11
3.11158e-05
-3.54013e-11
3.11158e-05
-3.81952e-11
3.11159e-05
-3.71877e-11
3.11159e-05
-3.34112e-11
3.11159e-05
-2.77378e-11
3.11159e-05
-2.08542e-11
3.11159e-05
-1.32394e-11
3.11159e-05
-5.18242e-12
3.11159e-05
3.15084e-12
3.11159e-05
1.16642e-11
3.11159e-05
2.02618e-11
3.11159e-05
2.86717e-11
3.11159e-05
3.62532e-11
3.11159e-05
4.18507e-11
3.11159e-05
4.34761e-11
3.11158e-05
3.81943e-11
2.44051e-11
3.36262e-05
1.01253e-11
3.36262e-05
-1.2447e-11
3.36262e-05
-2.93573e-11
3.36262e-05
-3.93897e-11
3.36262e-05
-4.35266e-11
3.36262e-05
-4.31432e-11
3.36262e-05
-3.94355e-11
3.36262e-05
-3.34186e-11
3.36262e-05
-2.58979e-11
3.36262e-05
-1.74377e-11
3.36262e-05
-8.38433e-12
3.36262e-05
1.07283e-12
3.36262e-05
1.08469e-11
3.36262e-05
2.08711e-11
3.36262e-05
3.09017e-11
3.36262e-05
4.03048e-11
3.36262e-05
4.78446e-11
3.36262e-05
5.12194e-11
3.36262e-05
4.69148e-11
3.23366e-11
3.61396e-05
1.34834e-11
3.61396e-05
-1.08256e-11
3.61396e-05
-2.92572e-11
3.61396e-05
-4.02569e-11
3.61396e-05
-4.49435e-11
3.61396e-05
-4.48544e-11
3.61396e-05
-4.12795e-11
3.61396e-05
-3.52949e-11
3.61396e-05
-2.7742e-11
3.61396e-05
-1.92041e-11
3.61396e-05
-1.00394e-11
3.61396e-05
-4.3768e-13
3.61396e-05
9.53677e-12
3.61396e-05
1.98631e-11
3.61396e-05
3.03714e-11
3.61396e-05
4.05234e-11
3.61396e-05
4.91481e-11
3.61396e-05
5.38429e-11
3.61396e-05
5.07948e-11
3.65711e-11
3.86557e-05
1.43254e-11
3.86557e-05
-9.28196e-12
3.86557e-05
-2.72117e-11
3.86557e-05
-3.76389e-11
3.86557e-05
-4.19665e-11
3.86557e-05
-4.18258e-11
3.86557e-05
-3.84894e-11
3.86557e-05
-3.29789e-11
3.86557e-05
-2.60643e-11
3.86557e-05
-1.82688e-11
3.86557e-05
-9.91769e-12
3.86557e-05
-1.18818e-12
3.86557e-05
7.87806e-12
3.86557e-05
1.73164e-11
3.86557e-05
2.7063e-11
3.86557e-05
3.67407e-11
3.86557e-05
4.53761e-11
3.86557e-05
5.07676e-11
3.86557e-05
4.89962e-11
3.63684e-11
4.11742e-05
1.25306e-11
4.11742e-05
-7.74775e-12
4.11742e-05
-2.29348e-11
4.11742e-05
-3.12742e-11
4.11742e-05
-3.44385e-11
4.11742e-05
-3.40245e-11
4.11742e-05
-3.11386e-11
4.11742e-05
-2.66137e-11
4.11742e-05
-2.10344e-11
4.11741e-05
-1.47808e-11
4.11741e-05
-8.10916e-12
4.11741e-05
-1.1891e-12
4.11741e-05
5.9473e-12
4.11742e-05
1.34022e-11
4.11742e-05
2.12279e-11
4.11742e-05
2.91998e-11
4.11742e-05
3.66281e-11
4.11742e-05
4.18577e-11
4.11742e-05
4.123e-11
3.12615e-11
4.36945e-05
8.50709e-12
4.36945e-05
-5.75501e-12
4.36945e-05
-1.59917e-11
4.36945e-05
-2.115e-11
4.36945e-05
-2.27534e-11
4.36945e-05
-2.21333e-11
4.36945e-05
-2.00533e-11
4.36944e-05
-1.70452e-11
4.36944e-05
-1.34388e-11
4.36944e-05
-9.4152e-12
4.36944e-05
-5.11932e-12
4.36944e-05
-6.99658e-13
4.36944e-05
3.79176e-12
4.36944e-05
8.45799e-12
4.36944e-05
1.34125e-11
4.36945e-05
1.86093e-11
4.36945e-05
2.37307e-11
4.36945e-05
2.76748e-11
4.36945e-05
2.79285e-11
2.1442e-11
4.62162e-05
3.34638e-12
4.62162e-05
-2.7443e-12
4.62162e-05
-6.7805e-12
4.62162e-05
-8.54674e-12
4.62161e-05
-8.85634e-12
4.62161e-05
-8.40387e-12
4.62161e-05
-7.49532e-12
4.62161e-05
-6.34335e-12
4.62161e-05
-5.01906e-12
4.62161e-05
-3.50063e-12
4.62161e-05
-1.82793e-12
4.62161e-05
-1.50381e-13
4.62161e-05
1.46368e-12
4.62161e-05
3.14508e-12
4.62161e-05
4.99118e-12
4.62161e-05
6.92887e-12
4.62161e-05
8.9626e-12
4.62161e-05
1.07544e-11
4.62162e-05
1.12839e-11
8.79231e-12
4.87386e-05
4.87386e-05
4.87386e-05
4.87386e-05
4.87386e-05
4.87386e-05
4.87386e-05
4.87386e-05
4.87386e-05
4.87386e-05
4.87386e-05
4.87386e-05
4.87386e-05
4.87386e-05
4.87386e-05
4.87386e-05
4.87386e-05
4.87386e-05
4.87386e-05
)
;

boundaryField
{
    movingWall
    {
        type            calculated;
        value           uniform 0;
    }
    fixedWalls
    {
        type            calculated;
        value           uniform 0;
    }
    left
    {
        type            cyclic;
        value           nonuniform List<scalar> 
20
(
-3.86557e-05
-3.61396e-05
-3.36262e-05
-3.11158e-05
-2.86088e-05
-2.61052e-05
-2.36052e-05
-2.11087e-05
-1.86158e-05
-1.61261e-05
-1.36395e-05
-1.11557e-05
-8.67412e-06
-6.19445e-06
-3.71614e-06
-1.23863e-06
-4.11742e-05
-4.36945e-05
-4.62162e-05
-4.87386e-05
)
;
    }
    right
    {
        type            cyclic;
        value           nonuniform List<scalar> 
20
(
3.86557e-05
3.61396e-05
3.36262e-05
3.11158e-05
2.86088e-05
2.61052e-05
2.36052e-05
2.11087e-05
1.86158e-05
1.61261e-05
1.36395e-05
1.11557e-05
8.67412e-06
6.19445e-06
3.71614e-06
1.23863e-06
4.11742e-05
4.36945e-05
4.62162e-05
4.87386e-05
)
;
    }
    frontAndBack
    {
        type            empty;
        value           nonuniform List<scalar> 0();
    }
}


// ************************************************************************* //
