/*--------------------------------*- C++ -*----------------------------------*\
  =========                 |
  \\      /  F ield         | OpenFOAM: The Open Source CFD Toolbox
   \\    /   O peration     | Website:  https://openfoam.org
    \\  /    A nd           | Version:  8
     \\/     M anipulation  |
\*---------------------------------------------------------------------------*/
FoamFile
{
    version     2.0;
    format      ascii;
    class       volVectorField;
    location    "0.07";
    object      U;
}
// * * * * * * * * * * * * * * * * * * * * * * * * * * * * * * * * * * * * * //

dimensions      [0 1 -1 0 0 0 0];

internalField   nonuniform List<vector> 
400
(
(0.000238329 -0.00023241 0)
(0.000123178 0.000113649 0)
(-0.00113209 0.000541531 0)
(-0.003316 0.000841989 0)
(-0.00605098 0.000990869 0)
(-0.00896396 0.00100352 0)
(-0.0117228 0.000903682 0)
(-0.0140541 0.00071649 0)
(-0.0157484 0.000465793 0)
(-0.0166591 0.000174138 0)
(-0.0167038 -0.000135806 0)
(-0.0158674 -0.000439698 0)
(-0.0142072 -0.000710502 0)
(-0.0118588 -0.000918314 0)
(-0.00904053 -0.00103136 0)
(-0.00605105 -0.00101883 0)
(-0.00325595 -0.000856419 0)
(-0.00105577 -0.000535663 0)
(0.000172918 -9.34153e-05 0)
(0.000250985 0.000245591 0)
(-7.48903e-05 -0.000151428 0)
(-0.00153052 0.00157091 0)
(-0.00539069 0.00343004 0)
(-0.0110767 0.00475759 0)
(-0.0178311 0.00541341 0)
(-0.0248882 0.00541908 0)
(-0.0315222 0.00485855 0)
(-0.0371087 0.00384149 0)
(-0.0411565 0.00248568 0)
(-0.0433204 0.000911964 0)
(-0.0434089 -0.000754061 0)
(-0.0413933 -0.00237865 0)
(-0.0374174 -0.00381818 0)
(-0.0318056 -0.00492142 0)
(-0.0250632 -0.00553784 0)
(-0.0178609 -0.00553474 0)
(-0.0109862 -0.00482654 0)
(-0.00525547 -0.00341797 0)
(-0.00143427 -0.0014992 0)
(-4.61224e-05 0.000203511 0)
(-0.00050071 0.00104204 0)
(-0.00350833 0.00543564 0)
(-0.0100014 0.00966276 0)
(-0.0188667 0.012642 0)
(-0.0290085 0.0140653 0)
(-0.0394027 0.0139419 0)
(-0.049071 0.0124396 0)
(-0.0571624 0.00980656 0)
(-0.0630036 0.0063266 0)
(-0.0661203 0.00230228 0)
(-0.0662497 -0.00194745 0)
(-0.0633535 -0.00608426 0)
(-0.0576297 -0.00975023 0)
(-0.0495217 -0.0125768 0)
(-0.0397168 -0.0142083 0)
(-0.029123 -0.0143454 0)
(-0.0188 -0.0128144 0)
(-0.00984593 -0.00965899 0)
(-0.00338046 -0.00529317 0)
(-0.000457679 -0.000920514 0)
(-0.000877977 0.00329668 0)
(-0.00538186 0.0115586 0)
(-0.0144683 0.0188123 0)
(-0.0263857 0.0237529 0)
(-0.0396603 0.0259716 0)
(-0.0530361 0.0255029 0)
(-0.0653426 0.0226328 0)
(-0.075572 0.0177851 0)
(-0.0829329 0.0114523 0)
(-0.0868681 0.00416452 0)
(-0.087067 -0.00351738 0)
(-0.083478 -0.0109996 0)
(-0.0763234 -0.0176569 0)
(-0.0661124 -0.0228491 0)
(-0.0536455 -0.0259614 0)
(-0.0399966 -0.026479 0)
(-0.026442 -0.0240968 0)
(-0.0143466 -0.0188591 0)
(-0.00523961 -0.0113474 0)
(-0.000822434 -0.00308618 0)
(-0.00121314 0.00651081 0)
(-0.00715174 0.019826 0)
(-0.0188003 0.0307255 0)
(-0.0337263 0.0378461 0)
(-0.0500383 0.0407934 0)
(-0.0662427 0.0397068 0)
(-0.0810015 0.0350466 0)
(-0.0931916 0.027454 0)
(-0.101945 0.0176622 0)
(-0.106655 0.00645487 0)
(-0.106976 -0.00534219 0)
(-0.102837 -0.0168562 0)
(-0.0944573 -0.0271668 0)
(-0.0823675 -0.0353255 0)
(-0.0674315 -0.0404117 0)
(-0.0508477 -0.0416345 0)
(-0.0340925 -0.0384851 0)
(-0.0188202 -0.0309219 0)
(-0.00703404 -0.0195885 0)
(-0.00115036 -0.00620247 0)
(-0.00153428 0.0106343 0)
(-0.00889926 0.0302193 0)
(-0.0231299 0.0454186 0)
(-0.0410797 0.0549309 0)
(-0.0604049 0.0585044 0)
(-0.0793649 0.0564891 0)
(-0.0964713 0.0495985 0)
(-0.110518 0.0387435 0)
(-0.120596 0.0249284 0)
(-0.126077 0.00920534 0)
(-0.126593 -0.00732905 0)
(-0.122045 -0.023518 0)
(-0.11262 -0.0381332 0)
(-0.0988276 -0.0498896 0)
(-0.0815478 -0.0575085 0)
(-0.0620665 -0.0598434 0)
(-0.0420501 -0.0560761 0)
(-0.023472 -0.0459561 0)
(-0.00887835 -0.0300689 0)
(-0.00147659 -0.0102459 0)
(-0.00186785 0.0156739 0)
(-0.0107125 0.0427805 0)
(-0.0276043 0.062945 0)
(-0.0486257 0.0750351 0)
(-0.0709459 0.079085 0)
(-0.0925763 0.0757873 0)
(-0.111904 0.0662068 0)
(-0.12768 0.0515866 0)
(-0.139 0.0332302 0)
(-0.145245 0.0124613 0)
(-0.146043 -0.00936487 0)
(-0.141256 -0.0308229 0)
(-0.131009 -0.0503822 0)
(-0.11574 -0.0664027 0)
(-0.0962853 -0.0771925 0)
(-0.0739649 -0.0811509 0)
(-0.0506099 -0.0770098 0)
(-0.0285326 -0.0641465 0)
(-0.0109014 -0.0429397 0)
(-0.00183706 -0.0152697 0)
(-0.0022374 0.0216866 0)
(-0.0126719 0.0576131 0)
(-0.0323491 0.0833858 0)
(-0.0564831 0.0981683 0)
(-0.0817161 0.10246 0)
(-0.105828 0.0974604 0)
(-0.12713 0.0847076 0)
(-0.144395 0.0658458 0)
(-0.156785 0.0425016 0)
(-0.16374 0.016257 0)
(-0.164904 -0.0113089 0)
(-0.160103 -0.0385436 0)
(-0.149361 -0.0636446 0)
(-0.132981 -0.084617 0)
(-0.111671 -0.0993056 0)
(-0.0866987 -0.105541 0)
(-0.0599983 -0.101425 0)
(-0.0342149 -0.0857422 0)
(-0.01323 -0.0584568 0)
(-0.00226694 -0.0214014 0)
(-0.00266669 0.0287743 0)
(-0.0148534 0.0748735 0)
(-0.0374621 0.106825 0)
(-0.0646865 0.124274 0)
(-0.0925999 0.128428 0)
(-0.118796 0.121208 0)
(-0.141597 0.104772 0)
(-0.159898 0.0812405 0)
(-0.173017 0.0525766 0)
(-0.180523 0.0205859 0)
(-0.18212 -0.0129929 0)
(-0.177596 -0.046356 0)
(-0.166842 -0.0774948 0)
(-0.149945 -0.104091 0)
(-0.127367 -0.123494 0)
(-0.100189 -0.132845 0)
(-0.0703232 -0.129392 0)
(-0.0406942 -0.111021 0)
(-0.0159894 -0.0769702 0)
(-0.00280387 -0.0288408 0)
(-0.0031873 0.0370847 0)
(-0.0173461 0.0947582 0)
(-0.043024 0.133305 0)
(-0.0731759 0.153148 0)
(-0.103272 0.156555 0)
(-0.130816 0.146452 0)
(-0.154287 0.125794 0)
(-0.172847 0.0972525 0)
(-0.186099 0.063119 0)
(-0.193836 0.0253593 0)
(-0.195879 -0.0142295 0)
(-0.191996 -0.05381 0)
(-0.18191 -0.0912815 0)
(-0.165403 -0.124082 0)
(-0.142543 -0.149076 0)
(-0.114021 -0.162602 0)
(-0.0815199 -0.160793 0)
(-0.0480984 -0.140218 0)
(-0.019315 -0.098902 0)
(-0.00349573 -0.0378624 0)
(-0.00385285 0.0468305 0)
(-0.0202838 0.117497 0)
(-0.0491208 0.162762 0)
(-0.0817808 0.184323 0)
(-0.113139 0.186035 0)
(-0.140792 0.172199 0)
(-0.163602 0.146767 0)
(-0.181205 0.113022 0)
(-0.193648 0.0735437 0)
(-0.201067 0.0303544 0)
(-0.203474 -0.0148331 0)
(-0.20065 -0.060314 0)
(-0.192133 -0.104067 0)
(-0.177313 -0.143437 0)
(-0.155691 -0.174881 0)
(-0.127302 -0.193874 0)
(-0.0932681 -0.195151 0)
(-0.0564917 -0.173412 0)
(-0.0233742 -0.124716 0)
(-0.00441443 -0.0488334 0)
(-0.00476475 0.058337 0)
(-0.0238957 0.143358 0)
(-0.0558611 0.19493 0)
(-0.0901679 0.216905 0)
(-0.121215 0.215499 0)
(-0.147032 0.196863 0)
(-0.167195 0.166143 0)
(-0.182078 0.127244 0)
(-0.192357 0.0829416 0)
(-0.19863 0.0351605 0)
(-0.201179 -0.0146548 0)
(-0.199849 -0.0651421 0)
(-0.194003 -0.114591 0)
(-0.18259 -0.160488 0)
(-0.164376 -0.199073 0)
(-0.138431 -0.225007 0)
(-0.104842 -0.231379 0)
(-0.0658309 -0.210347 0)
(-0.0283969 -0.154874 0)
(-0.00568064 -0.0622554 0)
(-0.00611828 0.0721431 0)
(-0.0285737 0.172635 0)
(-0.0633513 0.22917 0)
(-0.0976812 0.249315 0)
(-0.125871 0.242773 0)
(-0.146964 0.218082 0)
(-0.161714 0.181712 0)
(-0.171522 0.138101 0)
(-0.177856 0.0900348 0)
(-0.181864 0.0391378 0)
(-0.184161 -0.0136288 0)
(-0.184711 -0.0674788 0)
(-0.182765 -0.121286 0)
(-0.176847 -0.173002 0)
(-0.164907 -0.21899 0)
(-0.144747 -0.253339 0)
(-0.114831 -0.267421 0)
(-0.0758463 -0.250132 0)
(-0.0347085 -0.189735 0)
(-0.00750645 -0.078849 0)
(-0.00827786 0.0891801 0)
(-0.0349368 0.205584 0)
(-0.0715241 0.26413 0)
(-0.102925 0.278886 0)
(-0.124301 0.26456 0)
(-0.136631 0.232544 0)
(-0.1424 0.190554 0)
(-0.144282 0.143276 0)
(-0.144594 0.0932083 0)
(-0.14502 0.0414203 0)
(-0.146503 -0.0118213 0)
(-0.149183 -0.0665163 0)
(-0.152312 -0.12239 0)
(-0.154143 -0.17824 0)
(-0.151896 -0.231057 0)
(-0.141966 -0.274911 0)
(-0.120595 -0.299755 0)
(-0.0857295 -0.290723 0)
(-0.0427229 -0.229339 0)
(-0.0102584 -0.0996926 0)
(-0.0118593 0.11103 0)
(-0.0437573 0.242119 0)
(-0.0795342 0.297076 0)
(-0.102775 0.301268 0)
(-0.111475 0.276123 0)
(-0.109826 0.235949 0)
(-0.10252 0.18918 0)
(-0.0935147 0.140174 0)
(-0.0857959 0.0907029 0)
(-0.0813819 0.0410162 0)
(-0.0814212 -0.00946048 0)
(-0.0862412 -0.0616241 0)
(-0.0952702 -0.116225 0)
(-0.106815 -0.173251 0)
(-0.117758 -0.230955 0)
(-0.123332 -0.284309 0)
(-0.117256 -0.322815 0)
(-0.0933438 -0.328081 0)
(-0.0527108 -0.272843 0)
(-0.0144935 -0.126379 0)
(-0.0176307 0.140316 0)
(-0.0552289 0.280917 0)
(-0.0839746 0.322607 0)
(-0.0901923 0.309631 0)
(-0.0782488 0.271152 0)
(-0.0567876 0.223341 0)
(-0.0326564 0.174085 0)
(-0.0105761 0.12648 0)
(0.00638516 0.0810606 0)
(0.016344 0.037066 0)
(0.0182271 -0.00691306 0)
(0.01158 -0.0525837 0)
(-0.00339918 -0.101676 0)
(-0.0255629 -0.15553 0)
(-0.0522377 -0.214237 0)
(-0.0784085 -0.274905 0)
(-0.0958328 -0.328467 0)
(-0.0933199 -0.354849 0)
(-0.0637517 -0.317332 0)
(-0.0207125 -0.161235 0)
(-0.0255043 0.181588 0)
(-0.0661305 0.31709 0)
(-0.0743041 0.330044 0)
(-0.0498809 0.293522 0)
(-0.00835749 0.241961 0)
(0.0374001 0.190007 0)
(0.0798235 0.142812 0)
(0.114817 0.101112 0)
(0.140297 0.0638369 0)
(0.155224 0.0292665 0)
(0.159006 -0.00457607 0)
(0.151207 -0.0398379 0)
(0.13151 -0.0788474 0)
(0.0999869 -0.124043 0)
(0.0577759 -0.177541 0)
(0.00840428 -0.239714 0)
(-0.040125 -0.30566 0)
(-0.0729564 -0.35825 0)
(-0.0705423 -0.3553 0)
(-0.0279963 -0.207895 0)
(-0.0296659 0.239193 0)
(-0.0610375 0.335495 0)
(-0.0225765 0.299838 0)
(0.0492513 0.2391 0)
(0.125459 0.181674 0)
(0.193982 0.134025 0)
(0.250404 0.0961083 0)
(0.293509 0.0657788 0)
(0.323455 0.0406106 0)
(0.340709 0.0184274 0)
(0.345504 -0.00273085 0)
(0.337597 -0.0248084 0)
(0.316193 -0.0499934 0)
(0.280018 -0.0809974 0)
(0.227765 -0.121236 0)
(0.159287 -0.174405 0)
(0.0779398 -0.242225 0)
(-0.00428604 -0.318115 0)
(-0.0550875 -0.367921 0)
(-0.0285304 -0.267387 0)
(0.00810155 0.281924 0)
(0.0197496 0.294933 0)
(0.138797 0.210758 0)
(0.263768 0.143094 0)
(0.363097 0.0966885 0)
(0.438428 0.0652376 0)
(0.494135 0.0437281 0)
(0.533666 0.0284685 0)
(0.559777 0.0169173 0)
(0.574355 0.00736328 0)
(0.578353 -0.00145084 0)
(0.571796 -0.0106497 0)
(0.553722 -0.0215255 0)
(0.522013 -0.0359224 0)
(0.473227 -0.0567956 0)
(0.402616 -0.0889095 0)
(0.303888 -0.139297 0)
(0.17271 -0.21602 0)
(0.040918 -0.311425 0)
(0.0183949 -0.299947 0)
(0.299634 0.146122 0)
(0.39633 0.12752 0)
(0.557421 0.0760683 0)
(0.674333 0.0436635 0)
(0.743494 0.0254864 0)
(0.786474 0.0151472 0)
(0.814521 0.00912398 0)
(0.832741 0.00543996 0)
(0.843986 0.00298451 0)
(0.849869 0.00113689 0)
(0.851148 -0.000482184 0)
(0.847933 -0.00217198 0)
(0.839691 -0.00427559 0)
(0.825029 -0.00734832 0)
(0.801197 -0.0124509 0)
(0.762984 -0.0216925 0)
(0.698708 -0.0392102 0)
(0.583762 -0.0726031 0)
(0.415788 -0.12784 0)
(0.308829 -0.149476 0)
)
;

boundaryField
{
    movingWall
    {
        type            fixedValue;
        value           uniform (1 0 0);
    }
    fixedWalls
    {
        type            noSlip;
    }
    frontAndBack
    {
        type            empty;
    }
}


// ************************************************************************* //
