/*--------------------------------*- C++ -*----------------------------------*\
  =========                 |
  \\      /  F ield         | OpenFOAM: The Open Source CFD Toolbox
   \\    /   O peration     | Website:  https://openfoam.org
    \\  /    A nd           | Version:  8
     \\/     M anipulation  |
\*---------------------------------------------------------------------------*/
FoamFile
{
    version     2.0;
    format      ascii;
    class       volVectorField;
    location    "21";
    object      U;
}
// * * * * * * * * * * * * * * * * * * * * * * * * * * * * * * * * * * * * * //

dimensions      [0 1 -1 0 0 0 0];

internalField   nonuniform List<vector> 
116
(
(0.0118798 -0.00571206 0)
(-0.000120016 -0.0114378 0)
(0.0363276 -0.0101428 0)
(-0.00310382 -0.0232068 0)
(0.0324898 0.0319442 0)
(-0.135475 0.0967686 0)
(0.00594693 -0.00660446 0)
(-0.011663 -0.00996522 0)
(-0.00624997 0.00860398 0)
(-0.0530033 0.0337795 0)
(-0.0727542 0.086776 0)
(-0.135924 0.0920258 0)
(0.00144612 -0.000718143 0)
(-0.0139729 0.00241584 0)
(-0.0249539 0.0257712 0)
(-0.0515857 0.0515971 0)
(-0.0675687 0.112153 0)
(-0.0911669 0.113795 0)
(-0.00248586 0.00553525 0)
(-0.0156726 0.0182255 0)
(-0.025234 0.0457254 0)
(-0.0357977 0.0770166 0)
(-0.0427035 0.125564 0)
(-0.039636 0.108122 0)
(-0.000348768 0.017445 0)
(-0.00995821 0.0256917 0)
(-0.0204224 0.0452035 0)
(-0.0150434 0.067246 0)
(-0.0137477 0.113296 0)
(0.0127802 0.0911067 0)
(-0.00396608 0.0146048 0)
(-0.00556561 0.0376284 0)
(-0.0104641 0.0525852 0)
(-0.00090288 0.0705915 0)
(0.0028886 0.104668 0)
(0.0366646 0.0826974 0)
(0.0030662 0.0297637 0)
(-0.00255655 0.0323632 0)
(-0.0146063 0.042469 0)
(-0.00111094 0.0491747 0)
(0.000590828 0.0713818 0)
(0.0466115 0.0537206 0)
(0.00157875 0.0104337 0)
(0.00795189 0.0549759 0)
(0.0118362 0.0528276 0)
(0.0198923 0.0593331 0)
(0.0176654 0.0642385 0)
(0.0518053 0.0544594 0)
(-0.0655077 0.0258898 0)
(-0.0361001 0.0182553 0)
(-0.0563857 0.0297493 0)
(-0.0248243 0.0351156 0)
(-0.0202153 0.0343821 0)
(0.0213565 0.0324876 0)
(0.0516212 0.0987111 0)
(0.0867675 0.0564837 0)
(0.11143 0.0415124 0)
(0.163721 0.0319187 0)
(0.170514 0.0234041 0)
(0.220744 0.0198423 0)
(-0.131197 0.127324 0)
(-0.111278 -0.0445142 0)
(-0.0644649 -0.0290242 0)
(0.00220586 -0.114097 0)
(-0.116146 0.106208 0)
(-0.0823773 -0.0679145 0)
(-0.101771 -0.093375 0)
(0.00584823 -0.171435 0)
(-0.0752877 0.0817807 0)
(-0.0284525 -0.0669042 0)
(-0.065928 -0.109623 0)
(0.00232764 -0.210153 0)
(-0.0315684 0.0590392 0)
(0.00594843 -0.0733505 0)
(-0.0442208 -0.122629 0)
(0.011253 -0.232268 0)
(0.0161742 0.0384612 0)
(0.0392723 -0.0604373 0)
(-0.0261555 -0.116037 0)
(0.0140159 -0.242721 0)
(0.0284715 0.0422972 0)
(0.0550385 -0.0278999 0)
(-0.0186529 -0.0872918 0)
(0.0259497 -0.24253 0)
(0.0312244 0.0203905 0)
(0.0649661 -0.0270981 0)
(-0.0326788 -0.0951381 0)
(0.0306465 -0.249182 0)
(0.0294595 0.0370141 0)
(0.0557477 0.033193 0)
(-0.0141058 -0.0370083 0)
(0.0535 -0.229918 0)
(0.018677 0.0131528 0)
(0.0562835 0.0053577 0)
(0.0474954 -0.100496 0)
(0.0789773 -0.242183 0)
(0.214429 0.0128432 0)
(0.250372 0.00112411 0)
(0.204666 -0.0234493 0)
(0.152729 -0.0687387 0)
(-0.0116262 -0.00342817 0)
(-0.0312752 -0.00605645 0)
(-0.0414551 0.000764787 0)
(-0.0223982 -0.0198989 0)
(-0.0140123 0.0478293 0)
(-0.0321818 0.0354464 0)
(-0.0314421 -0.00526122 0)
(-0.0310207 -0.0446171 0)
(-0.0373864 0.0419733 0)
(-0.0232953 0.00277292 0)
(-0.0211621 0.00398082 0)
(-0.0366156 -0.0909735 0)
(-0.0111236 0.116276 0)
(-0.079888 0.0206199 0)
(0.0179708 0.0119809 0)
(-0.0358864 -0.0937419 0)
)
;

boundaryField
{
    movingWall
    {
        type            fixedValue;
        value           uniform (1 0 0);
    }
    fixedWalls
    {
        type            noSlip;
    }
    frontAndBack
    {
        type            empty;
    }
}


// ************************************************************************* //
