0 	3.62731e-08
1.57135 	-2.90393e-06
3.1427 	-2.76179e-05
4.71405 	-0.000107458
6.28539 	-0.000337951
7.85674 	-0.00106532
9.42809 	-0.00321791
10.9994 	-0.00466875
12.5708 	-0.00391107
14.1421 	0.250529
