/*--------------------------------*- C++ -*----------------------------------*\
  =========                 |
  \\      /  F ield         | OpenFOAM: The Open Source CFD Toolbox
   \\    /   O peration     | Website:  https://openfoam.org
    \\  /    A nd           | Version:  8
     \\/     M anipulation  |
\*---------------------------------------------------------------------------*/
FoamFile
{
    version     2.0;
    format      ascii;
    class       volVectorField;
    location    "40";
    object      U;
}
// * * * * * * * * * * * * * * * * * * * * * * * * * * * * * * * * * * * * * //

dimensions      [0 1 -1 0 0 0 0];

internalField   nonuniform List<vector> 
464
(
(-0.000153445 0.000152058 0)
(-0.000488365 0.000162379 0)
(-0.000830706 0.000156076 0)
(-0.00114714 0.000146229 0)
(-0.00144244 0.000133174 0)
(-0.00170901 0.000116855 0)
(-0.00193415 9.74903e-05 0)
(-0.00213888 7.37825e-05 0)
(-0.00225214 4.71051e-05 0)
(-0.00241677 1.16649e-05 0)
(-0.0023564 -2.06544e-05 0)
(-0.00256769 5.57001e-06 0)
(-0.000170284 0.000489798 0)
(-0.000540746 0.000521885 0)
(-0.000918784 0.00050171 0)
(-0.00126837 0.000470451 0)
(-0.00159462 0.000429694 0)
(-0.00188915 0.00038025 0)
(-0.00213981 0.000325196 0)
(-0.00236719 0.000261755 0)
(-0.00250147 0.000209845 0)
(-0.00268652 0.000128081 0)
(-0.00265215 0.000128917 0)
(-0.00288716 1.4449e-06 0)
(-0.000177346 0.000856142 0)
(-0.000563229 0.00091113 0)
(-0.000956941 0.00087563 0)
(-0.00132048 0.000820515 0)
(-0.00165914 0.0007485 0)
(-0.00196222 0.000660728 0)
(-0.00221993 0.000560702 0)
(-0.00243709 0.000445001 0)
(-0.00257801 0.000334964 0)
(-0.00270088 0.000189121 0)
(-0.00268708 0.000126513 0)
(-0.00269597 -5.59021e-05 0)
(-0.000187734 0.00123198 0)
(-0.000596272 0.00131089 0)
(-0.00101337 0.00125966 0)
(-0.00139861 0.00117998 0)
(-0.00175823 0.00107576 0)
(-0.00208137 0.000948647 0)
(-0.00236047 0.000802776 0)
(-0.00259816 0.000638704 0)
(-0.00276285 0.00046903 0)
(-0.00290058 0.000271261 0)
(-0.00290211 0.000105876 0)
(-0.00290182 -0.000142041 0)
(-0.000201951 0.00163702 0)
(-0.000641428 0.0017416 0)
(-0.00109031 0.0016734 0)
(-0.00150447 0.0015672 0)
(-0.00189056 0.00142865 0)
(-0.00223528 0.00125953 0)
(-0.00252995 0.00106416 0)
(-0.00277086 0.000842233 0)
(-0.00294553 0.00060469 0)
(-0.00306406 0.000335608 0)
(-0.00310045 8.7043e-05 0)
(-0.00308163 -0.000227449 0)
(-0.000220613 0.0020707 0)
(-0.0007004 0.00220379 0)
(-0.00119091 0.00211804 0)
(-0.0016434 0.00198396 0)
(-0.00206592 0.00180905 0)
(-0.00244588 0.00159563 0)
(-0.00277785 0.00135018 0)
(-0.00305773 0.00107552 0)
(-0.0032697 0.000779033 0)
(-0.00341829 0.000455849 0)
(-0.00346528 0.000122836 0)
(-0.0034371 -0.000251073 0)
(-0.000243154 0.00256077 0)
(-0.000772149 0.00272322 0)
(-0.00131402 0.00261578 0)
(-0.0018135 0.00244716 0)
(-0.00227888 0.00223075 0)
(-0.00269411 0.00196591 0)
(-0.00304995 0.00165937 0)
(-0.0033418 0.00131152 0)
(-0.00356498 0.00092983 0)
(-0.00372002 0.000512747 0)
(-0.00380739 7.4845e-05 0)
(-0.00381946 -0.000397146 0)
(-0.000273764 0.00306829 0)
(-0.00086554 0.00326813 0)
(-0.00147167 0.00314205 0)
(-0.00202851 0.00294433 0)
(-0.00254717 0.00268938 0)
(-0.00301734 0.00237703 0)
(-0.00343242 0.00202232 0)
(-0.0037876 0.00162677 0)
(-0.00406893 0.00119782 0)
(-0.00427357 0.000735089 0)
(-0.00437536 0.000244697 0)
(-0.00437669 -0.000286524 0)
(-0.000303274 0.00371637 0)
(-0.000963578 0.00394786 0)
(-0.0016432 0.00379107 0)
(-0.00226621 0.0035357 0)
(-0.00284608 0.00322378 0)
(-0.00336108 0.00283463 0)
(-0.00379986 0.00239587 0)
(-0.00416575 0.00190048 0)
(-0.00445595 0.00136096 0)
(-0.00467254 0.000774663 0)
(-0.00482862 0.000148149 0)
(-0.00489374 -0.000528944 0)
(-0.000357623 0.0043034 0)
(-0.00111224 0.00459579 0)
(-0.00189029 0.00441219 0)
(-0.00259604 0.00414061 0)
(-0.00324815 0.00378791 0)
(-0.00384561 0.0033611 0)
(-0.00436708 0.0028835 0)
(-0.00482354 0.00234997 0)
(-0.00519598 0.00177769 0)
(-0.00548741 0.00116256 0)
(-0.00567948 0.000523648 0)
(-0.00574133 -0.000202905 0)
(-0.000377841 0.0052068 0)
(-0.00122826 0.00549164 0)
(-0.00210458 0.00528671 0)
(-0.00289055 0.00486472 0)
(-0.00362503 0.00444985 0)
(-0.0042653 0.00387948 0)
(-0.00480988 0.00330138 0)
(-0.00527019 0.00263636 0)
(-0.0056415 0.00193533 0)
(-0.00592504 0.00117115 0)
(-0.00619241 0.000365802 0)
(-0.00628852 -0.000564968 0)
(-0.00052413 0.0059063 0)
(-0.0014905 0.00642277 0)
(-0.00252634 0.00606638 0)
(-0.00343432 0.00578715 0)
(-0.00423302 0.00523334 0)
(-0.00499567 0.00466271 0)
(-0.00561123 0.00400824 0)
(-0.00619229 0.00329813 0)
(-0.00666401 0.00256702 0)
(-0.00706004 0.00177423 0)
(-0.00741702 0.00103956 0)
(-0.00754866 5.98682e-05 0)
(-0.000362202 0.00713076 0)
(-0.0015773 0.00729591 0)
(-0.00274319 0.00715752 0)
(-0.00372339 0.00634672 0)
(-0.00474705 0.00590386 0)
(-0.00549026 0.00505211 0)
(-0.00617144 0.0043707 0)
(-0.00670886 0.00350707 0)
(-0.00716128 0.00268303 0)
(-0.00744948 0.00173841 0)
(-0.00790161 0.000840324 0)
(-0.00792663 -0.000370518 0)
(-0.00101917 0.00801658 0)
(-0.0021211 0.00915791 0)
(-0.00349144 0.00830445 0)
(-0.00469359 0.00818563 0)
(-0.00552542 0.00710848 0)
(-0.00653416 0.00640543 0)
(-0.00715702 0.00540527 0)
(-0.00788615 0.00446629 0)
(-0.00843725 0.00356113 0)
(-0.00891051 0.00255625 0)
(-0.00952932 0.0018252 0)
(-0.009724 0.000553969 0)
(0.000136384 0.0100014 0)
(-0.00195785 0.00930031 0)
(-0.00369899 0.00953358 0)
(-0.00491998 0.00789068 0)
(-0.00652286 0.00755099 0)
(-0.00719326 0.00627804 0)
(-0.00810495 0.00553852 0)
(-0.00854927 0.00445526 0)
(-0.00906378 0.00358615 0)
(-0.00918104 0.00249281 0)
(-0.00989392 0.00166808 0)
(-0.00958706 0.000246356 0)
(-0.0027971 0.0101716 0)
(-0.00354755 0.0136771 0)
(-0.00491076 0.0114466 0)
(-0.0066907 0.0117675 0)
(-0.00712385 0.00952996 0)
(-0.0085621 0.00859573 0)
(-0.00897884 0.00695077 0)
(-0.00985053 0.00573496 0)
(-0.0104046 0.00459203 0)
(-0.0108427 0.00339498 0)
(-0.0117826 0.00274318 0)
(-0.0118914 0.0013154 0)
(0.00205944 0.0159428 0)
(-0.00179356 0.0105704 0)
(-0.0057535 0.0123517 0)
(-0.0068879 0.00925455 0)
(-0.00971426 0.00910785 0)
(-0.00976392 0.00747217 0)
(-0.0109563 0.00657908 0)
(-0.0108978 0.00536107 0)
(-0.0113924 0.00447007 0)
(-0.0110242 0.00334152 0)
(-0.0119639 0.00280257 0)
(-0.0108976 0.00136712 0)
(-0.001115 0.0102984 0)
(-0.00521063 0.0226197 0)
(-0.00352999 0.0167866 0)
(-0.00920759 0.0170259 0)
(-0.00850051 0.0125904 0)
(-0.0110176 0.0108194 0)
(-0.0110868 0.00828298 0)
(-0.0119964 0.00664555 0)
(-0.0124423 0.0052418 0)
(-0.0125154 0.00394 0)
(-0.0137316 0.00333256 0)
(-0.0132464 0.00201153 0)
(-0.0304354 0.0226392 0)
(-0.0171617 0.0115904 0)
(-0.0300896 0.0157965 0)
(-0.0210548 0.0129014 0)
(-0.0231365 0.0103808 0)
(-0.0179499 0.00913726 0)
(-0.0168805 0.00722662 0)
(-0.0140825 0.00600575 0)
(-0.0128399 0.00492933 0)
(-0.0106003 0.00389966 0)
(-0.0107256 0.00374138 0)
(-0.00749099 0.0026937 0)
(0.0332663 0.0558068 0)
(0.0470868 0.0248362 0)
(0.0673392 0.0202821 0)
(0.0831064 0.0122272 0)
(0.0929428 0.00933401 0)
(0.101774 0.0058695 0)
(0.107887 0.00446554 0)
(0.113721 0.00309892 0)
(0.115969 0.00230312 0)
(0.122012 0.00170682 0)
(0.119917 0.000972036 0)
(0.128554 0.000745269 0)
(-0.00230618 0.00129739 0)
(-0.00161032 0.000711336 0)
(-0.00140797 0.000144744 0)
(-0.00109163 -0.000176514 0)
(-0.0008773 -0.000442913 0)
(-0.000617263 -0.000617093 0)
(-0.000368032 -0.000733005 0)
(-0.000113627 -0.000726422 0)
(-0.0025355 0.000276228 0)
(-0.00180017 -4.38333e-05 0)
(-0.00157844 -0.00026969 0)
(-0.00122957 -0.00054036 0)
(-0.000990494 -0.000745163 0)
(-0.000702539 -0.000916909 0)
(-0.000419012 -0.00102648 0)
(-0.000130214 -0.00100071 0)
(-0.00250064 0.000120719 0)
(-0.00215706 -0.000228395 0)
(-0.00190423 -0.000467308 0)
(-0.0015668 -0.000772373 0)
(-0.00125369 -0.00100702 0)
(-0.000900748 -0.00120672 0)
(-0.000534322 -0.00133482 0)
(-0.000168024 -0.00129585 0)
(-0.00271193 -0.000278948 0)
(-0.00238689 -0.000593818 0)
(-0.00212273 -0.000849954 0)
(-0.0017691 -0.00114524 0)
(-0.0014253 -0.00138755 0)
(-0.0010337 -0.00159785 0)
(-0.000615241 -0.00173502 0)
(-0.000195057 -0.00167264 0)
(-0.0029522 -0.000448104 0)
(-0.0027278 -0.00082366 0)
(-0.00245587 -0.00114328 0)
(-0.00210415 -0.00149799 0)
(-0.00170632 -0.00179411 0)
(-0.00125229 -0.00205283 0)
(-0.000747472 -0.0022207 0)
(-0.000239861 -0.00214224 0)
(-0.0033082 -0.000615251 0)
(-0.00308179 -0.00103281 0)
(-0.00279731 -0.00142643 0)
(-0.00242 -0.00183793 0)
(-0.00198052 -0.00218019 0)
(-0.00146593 -0.00250016 0)
(-0.00087942 -0.00269441 0)
(-0.000285856 -0.00260218 0)
(-0.00373387 -0.000864521 0)
(-0.00353859 -0.00138166 0)
(-0.00326061 -0.00187538 0)
(-0.00285764 -0.00239388 0)
(-0.00236829 -0.00282411 0)
(-0.00177332 -0.0032408 0)
(-0.00106611 -0.0034883 0)
(-0.000357345 -0.00338593 0)
(-0.00429312 -0.000830046 0)
(-0.00409331 -0.00144616 0)
(-0.0038099 -0.00199112 0)
(-0.00336985 -0.00266111 0)
(-0.00282793 -0.00312207 0)
(-0.00214009 -0.00371593 0)
(-0.00129604 -0.00397808 0)
(-0.000445855 -0.00391837 0)
(-0.0048924 -0.00121532 0)
(-0.00469913 -0.00198746 0)
(-0.00447335 -0.00268881 0)
(-0.00398852 -0.00354732 0)
(-0.00342093 -0.00416497 0)
(-0.00264072 -0.00495834 0)
(-0.00159524 -0.00532509 0)
(-0.000612798 -0.00529084 0)
(-0.00575236 -0.000871884 0)
(-0.00557003 -0.00181756 0)
(-0.00536964 -0.00245491 0)
(-0.00485115 -0.00363632 0)
(-0.0042383 -0.00417953 0)
(-0.00332051 -0.00541582 0)
(-0.00204522 -0.00573709 0)
(-0.000813604 -0.00593702 0)
(-0.00650253 -0.0014372 0)
(-0.00628199 -0.00260363 0)
(-0.00628251 -0.00350893 0)
(-0.00571543 -0.00499847 0)
(-0.00518812 -0.00585216 0)
(-0.00422106 -0.0075028 0)
(-0.00260634 -0.00806313 0)
(-0.00128346 -0.00845203 0)
(-0.00779173 -0.000599707 0)
(-0.00765275 -0.00202988 0)
(-0.00776103 -0.0025839 0)
(-0.00721358 -0.00466216 0)
(-0.00673221 -0.00514506 0)
(-0.00558613 -0.00782745 0)
(-0.00364538 -0.00817152 0)
(-0.00184231 -0.00951127 0)
(-0.00857843 -0.00132288 0)
(-0.00826694 -0.00302852 0)
(-0.00888034 -0.00402675 0)
(-0.00828867 -0.00658103 0)
(-0.00829105 -0.00766307 0)
(-0.00731687 -0.0112277 0)
(-0.00502985 -0.0121484 0)
(-0.00337588 -0.0144903 0)
(-0.0104522 0.000161128 0)
(-0.0103871 -0.00181099 0)
(-0.0113057 -0.00187451 0)
(-0.0109105 -0.00523587 0)
(-0.0113214 -0.00522228 0)
(-0.0102694 -0.0108939 0)
(-0.00791571 -0.0111728 0)
(-0.00546445 -0.0174068 0)
(-0.0109137 -0.00047212 0)
(-0.0102948 -0.00278329 0)
(-0.0122053 -0.00344796 0)
(-0.0116548 -0.00747833 0)
(-0.0136649 -0.00840424 0)
(-0.0135431 -0.0157932 0)
(-0.0122823 -0.0173449 0)
(-0.0113162 -0.0289311 0)
(-0.0135003 0.0014177 0)
(-0.013436 -0.000779028 0)
(-0.0160363 0.000411502 0)
(-0.0160191 -0.00392773 0)
(-0.0195053 -0.00195694 0)
(-0.0197698 -0.0121852 0)
(-0.0207157 -0.0115622 0)
(-0.0184506 -0.0400924 0)
(-0.0129816 0.00140943 0)
(-0.0112235 -0.00110089 0)
(-0.0151638 -0.000315773 0)
(-0.0137611 -0.00541434 0)
(-0.0207663 -0.0042268 0)
(-0.0221898 -0.0167226 0)
(-0.0296944 -0.0186508 0)
(-0.0213516 -0.0707409 0)
(-0.0159421 0.002636 0)
(-0.015141 0.00080111 0)
(-0.020499 0.00403352 0)
(-0.0196382 0.00105654 0)
(-0.0296817 0.00830689 0)
(-0.0244 -0.00392408 0)
(-0.0369608 -0.00916994 0)
(0.00211938 -0.0893964 0)
(-0.00980242 0.00375867 0)
(-0.0036607 0.00232671 0)
(-0.00929192 0.00489896 0)
(0.00362607 0.0018807 0)
(-0.007319 0.00180832 0)
(0.0196173 -0.0131167 0)
(-0.00373315 -0.0446049 0)
(0.0359688 -0.111827 0)
(0.120984 -0.000285664 0)
(0.134531 -0.000152801 0)
(0.120184 -0.00220991 0)
(0.140105 -0.00120926 0)
(0.117465 -0.00623269 0)
(0.13816 -0.00738089 0)
(0.0931786 -0.0201375 0)
(0.076746 -0.0509492 0)
(-1.60069e-05 -1.49697e-05 0)
(-4.83995e-05 -1.69725e-05 0)
(-7.23347e-05 -1.91287e-05 0)
(-8.32768e-05 -2.20567e-05 0)
(-8.12581e-05 -2.37446e-05 0)
(-6.69124e-05 -2.53537e-05 0)
(-4.27604e-05 -2.62407e-05 0)
(-1.37714e-05 -2.49873e-05 0)
(-1.87543e-05 8.04129e-05 0)
(-5.58798e-05 7.51356e-05 0)
(-8.32291e-05 5.45076e-05 0)
(-9.4583e-05 3.18076e-05 0)
(-9.10803e-05 7.48244e-06 0)
(-7.48329e-05 -1.21367e-05 0)
(-4.7631e-05 -2.66993e-05 0)
(-1.53965e-05 -3.05607e-05 0)
(-2.86634e-05 5.55819e-05 0)
(-8.44778e-05 4.46704e-05 0)
(-0.000121765 1.66658e-05 0)
(-0.000137144 -1.51382e-05 0)
(-0.000131869 -4.55052e-05 0)
(-0.000106673 -7.0747e-05 0)
(-6.76768e-05 -8.87494e-05 0)
(-2.16784e-05 -9.02153e-05 0)
(-3.48374e-05 0.000200269 0)
(-0.000100186 0.000175762 0)
(-0.000143369 0.000110909 0)
(-0.000156968 4.49797e-05 0)
(-0.000146907 -2.09338e-05 0)
(-0.000118444 -7.17694e-05 0)
(-7.44308e-05 -0.000108286 0)
(-2.39284e-05 -0.000115344 0)
(-6.87807e-05 0.000179294 0)
(-0.000189842 0.000144541 0)
(-0.000252941 6.59842e-05 0)
(-0.00026895 -1.40715e-05 0)
(-0.000248563 -8.91961e-05 0)
(-0.000194233 -0.000148642 0)
(-0.000121117 -0.000190592 0)
(-3.83617e-05 -0.000194475 0)
(-8.4714e-05 0.000475539 0)
(-0.000229055 0.000376313 0)
(-0.000302516 0.000197054 0)
(-0.000312262 4.65823e-05 0)
(-0.000281623 -9.15275e-05 0)
(-0.000220377 -0.000189265 0)
(-0.000136296 -0.000257164 0)
(-4.3366e-05 -0.000265793 0)
(-0.000206395 0.000468835 0)
(-0.000507032 0.000343395 0)
(-0.000583465 0.000134731 0)
(-0.000557214 -3.67225e-05 0)
(-0.000484144 -0.000192002 0)
(-0.000360244 -0.000303534 0)
(-0.000219747 -0.000380608 0)
(-6.85756e-05 -0.000384346 0)
(-0.000278242 0.00122921 0)
(-0.000604308 0.000784733 0)
(-0.000684991 0.000255591 0)
(-0.000639471 -4.16679e-05 0)
(-0.000548918 -0.000281609 0)
(-0.000410164 -0.000435775 0)
(-0.000249131 -0.00053794 0)
(-7.81297e-05 -0.000539635 0)
)
;

boundaryField
{
    movingWall
    {
        type            fixedValue;
        value           uniform (1 0 0);
    }
    fixedWalls
    {
        type            noSlip;
    }
    frontAndBack
    {
        type            empty;
    }
}


// ************************************************************************* //
