0 	-3.36634e-08
1.57135 	-1.27217e-06
3.1427 	-7.79377e-06
4.71405 	-2.5952e-05
6.28539 	-6.62655e-05
7.85674 	-0.000155059
9.42809 	-0.000391954
10.9994 	-0.0013227
12.5708 	-0.00425498
14.1421 	0.0177842
