/*--------------------------------*- C++ -*----------------------------------*\
  =========                 |
  \\      /  F ield         | OpenFOAM: The Open Source CFD Toolbox
   \\    /   O peration     | Website:  https://openfoam.org
    \\  /    A nd           | Version:  8
     \\/     M anipulation  |
\*---------------------------------------------------------------------------*/
FoamFile
{
    version     2.0;
    format      ascii;
    class       surfaceScalarField;
    location    "1.08";
    object      phi;
}
// * * * * * * * * * * * * * * * * * * * * * * * * * * * * * * * * * * * * * //

dimensions      [0 3 -1 0 0 0 0];

internalField   nonuniform List<scalar> 
760
(
1.24926e-06
-2.10481e-14
1.24926e-06
-1.05589e-14
1.24926e-06
-9.31623e-18
1.24926e-06
1.01068e-14
1.24926e-06
1.98227e-14
1.24926e-06
2.7801e-14
1.24926e-06
3.35945e-14
1.24926e-06
3.61267e-14
1.24926e-06
3.51487e-14
1.24926e-06
3.09287e-14
1.24926e-06
2.38219e-14
1.24926e-06
1.43463e-14
1.24926e-06
3.14968e-15
1.24926e-06
-8.59849e-15
1.24926e-06
-2.01193e-14
1.24926e-06
-2.99201e-14
1.24926e-06
-3.70826e-14
1.24926e-06
-3.97166e-14
1.24926e-06
-3.73955e-14
-3.0398e-14
3.74779e-06
-9.07852e-14
3.74779e-06
-4.43109e-14
3.74779e-06
4.10141e-15
3.74779e-06
5.10951e-14
3.74779e-06
9.21582e-14
3.74779e-06
1.24748e-13
3.74779e-06
1.45286e-13
3.74779e-06
1.52125e-13
3.74779e-06
1.44902e-13
3.74779e-06
1.24638e-13
3.74779e-06
9.32313e-14
3.74779e-06
5.29929e-14
3.74779e-06
7.12715e-15
3.74779e-06
-4.09935e-14
3.74779e-06
-8.6739e-14
3.74779e-06
-1.26115e-13
3.74779e-06
-1.53299e-13
3.74779e-06
-1.64382e-13
3.74779e-06
-1.5596e-13
-1.29821e-13
6.24638e-06
-1.99628e-13
6.24638e-06
-9.70535e-14
6.24638e-06
1.27955e-14
6.24638e-06
1.17585e-13
6.24638e-06
2.08879e-13
6.24638e-06
2.78079e-13
6.24638e-06
3.19902e-13
6.24638e-06
3.31466e-13
6.24638e-06
3.12887e-13
6.24638e-06
2.66644e-13
6.24638e-06
1.96866e-13
6.24638e-06
1.09049e-13
6.24638e-06
9.65533e-15
6.24638e-06
-9.32195e-14
6.24638e-06
-1.91215e-13
6.24638e-06
-2.7381e-13
6.24638e-06
-3.31599e-13
6.24638e-06
-3.54648e-13
6.24638e-06
-3.38357e-13
-2.84278e-13
8.74505e-06
-3.18828e-13
8.74505e-06
-1.55566e-13
8.74505e-06
1.94939e-14
8.74505e-06
1.88202e-13
8.74505e-06
3.33346e-13
8.74505e-06
4.42608e-13
8.74505e-06
5.07336e-13
8.74505e-06
5.23971e-13
8.74505e-06
4.9296e-13
8.74505e-06
4.18485e-13
8.74505e-06
3.07375e-13
8.74505e-06
1.68354e-13
8.74505e-06
1.21023e-14
8.74505e-06
-1.49321e-13
8.74505e-06
-3.01719e-13
8.74505e-06
-4.30512e-13
8.74505e-06
-5.19501e-13
8.74505e-06
-5.56383e-13
8.74505e-06
-5.3258e-13
-4.49822e-13
1.12439e-05
-4.14869e-13
1.12439e-05
-2.06509e-13
1.12439e-05
1.97291e-14
1.12439e-05
2.38175e-13
1.12439e-05
4.26969e-13
1.12439e-05
5.6873e-13
1.12439e-05
6.5288e-13
1.12439e-05
6.74538e-13
1.12439e-05
6.34556e-13
1.12439e-05
5.38454e-13
1.12439e-05
3.95202e-13
1.12439e-05
2.16429e-13
1.12439e-05
1.59176e-14
1.12439e-05
-1.90423e-13
1.12439e-05
-3.85147e-13
1.12439e-05
-5.48808e-13
1.12439e-05
-6.62696e-13
1.12439e-05
-7.10254e-13
1.12439e-05
-6.82703e-13
-5.80169e-13
1.37428e-05
-4.63555e-13
1.37428e-05
-2.36272e-13
1.37428e-05
1.26531e-14
1.37428e-05
2.54935e-13
1.37428e-05
4.65183e-13
1.37428e-05
6.24119e-13
1.37428e-05
7.19203e-13
1.37428e-05
7.44842e-13
1.37428e-05
7.01796e-13
1.37428e-05
5.96268e-13
1.37428e-05
4.38396e-13
1.37428e-05
2.41319e-13
1.37428e-05
2.06424e-14
1.37428e-05
-2.06155e-13
1.37428e-05
-4.19643e-13
1.37428e-05
-5.99163e-13
1.37428e-05
-7.24219e-13
1.37428e-05
-7.78021e-13
1.37428e-05
-7.50495e-13
-6.41833e-13
1.62419e-05
-4.52588e-13
1.62419e-05
-2.35868e-13
1.62419e-05
3.83134e-15
1.62419e-05
2.38546e-13
1.62419e-05
4.43698e-13
1.62419e-05
5.99791e-13
1.62419e-05
6.94132e-13
1.62419e-05
7.20743e-13
1.62419e-05
6.80252e-13
1.62419e-05
5.78731e-13
1.62419e-05
4.26231e-13
1.62419e-05
2.35813e-13
1.62419e-05
2.28021e-14
1.62419e-05
-1.95739e-13
1.62419e-05
-4.01234e-13
1.62419e-05
-5.73743e-13
1.62419e-05
-6.94275e-13
1.62419e-05
-7.4702e-13
1.62419e-05
-7.22747e-13
-6.21355e-13
1.87413e-05
-3.82329e-13
1.87413e-05
-2.01194e-13
1.87413e-05
1.21249e-16
1.87413e-05
1.9845e-13
1.87413e-05
3.72564e-13
1.87413e-05
5.05616e-13
1.87413e-05
5.86264e-13
1.87413e-05
6.09181e-13
1.87413e-05
5.74881e-13
1.87413e-05
4.88669e-13
1.87413e-05
3.59286e-13
1.87413e-05
1.98061e-13
1.87413e-05
1.81686e-14
1.87413e-05
-1.65925e-13
1.87413e-05
-3.38482e-13
1.87413e-05
-4.82896e-13
1.87413e-05
-5.8334e-13
1.87413e-05
-6.27225e-13
1.87413e-05
-6.07018e-13
-5.22851e-13
2.12408e-05
-2.62817e-13
2.12408e-05
-1.3497e-13
2.12408e-05
6.63698e-15
2.12408e-05
1.46237e-13
2.12408e-05
2.68565e-13
2.12408e-05
3.61488e-13
2.12408e-05
4.16823e-13
2.12408e-05
4.30838e-13
2.12408e-05
4.04172e-13
2.12408e-05
3.40869e-13
2.12408e-05
2.4738e-13
2.12408e-05
1.31975e-13
2.12408e-05
4.15075e-15
2.12408e-05
-1.25748e-13
2.12408e-05
-2.46462e-13
2.12408e-05
-3.4623e-13
2.12408e-05
-4.14064e-13
2.12408e-05
-4.41603e-13
2.12408e-05
-4.24353e-13
-3.6289e-13
2.37406e-05
-1.11264e-13
2.37406e-05
-4.58611e-14
2.37406e-05
2.40517e-14
2.37406e-05
9.1559e-14
2.37406e-05
1.48996e-13
2.37406e-05
1.90551e-13
2.37406e-05
2.12475e-13
2.37406e-05
2.13406e-13
2.37406e-05
1.94292e-13
2.37406e-05
1.57608e-13
2.37406e-05
1.06873e-13
2.37406e-05
4.64675e-14
2.37406e-05
-1.86592e-14
2.37406e-05
-8.31308e-14
2.37406e-05
-1.40994e-13
2.37406e-05
-1.86174e-13
2.37406e-05
-2.13332e-13
2.37406e-05
-2.19029e-13
2.37406e-05
-2.02512e-13
-1.65324e-13
2.62406e-05
5.08882e-14
2.62406e-05
5.28657e-14
2.62406e-05
4.8809e-14
2.62406e-05
4.06653e-14
2.62406e-05
2.92025e-14
2.62406e-05
1.55964e-14
2.62406e-05
1.12025e-15
2.62406e-05
-1.29122e-14
2.62406e-05
-2.52155e-14
2.62406e-05
-3.50467e-14
2.62406e-05
-4.20527e-14
2.62406e-05
-4.59819e-14
2.62406e-05
-4.65931e-14
2.62406e-05
-4.35369e-14
2.62406e-05
-3.62252e-14
2.62406e-05
-2.43231e-14
2.62406e-05
-8.28311e-15
2.62406e-05
1.0304e-14
2.62406e-05
2.81923e-14
4.25267e-14
2.87408e-05
2.00612e-13
2.87408e-05
1.45717e-13
2.87408e-05
7.47613e-14
2.87408e-05
-2.60808e-15
2.87408e-05
-7.74648e-14
2.87408e-05
-1.41945e-13
2.87408e-05
-1.9006e-13
2.87408e-05
-2.1802e-13
2.87408e-05
-2.24397e-13
2.87408e-05
-2.10174e-13
2.87408e-05
-1.77988e-13
2.87408e-05
-1.31339e-13
2.87408e-05
-7.41544e-14
2.87408e-05
-1.0443e-14
2.87408e-05
5.57055e-14
2.87408e-05
1.19532e-13
2.87408e-05
1.7537e-13
2.87408e-05
2.16958e-13
2.87408e-05
2.37484e-13
2.32454e-13
3.12413e-05
3.15872e-13
3.12413e-05
2.17603e-13
3.12413e-05
9.55022e-14
3.12413e-05
-3.52034e-14
3.12413e-05
-1.58849e-13
3.12413e-05
-2.623e-13
3.12413e-05
-3.35841e-13
3.12413e-05
-3.74005e-13
3.12413e-05
-3.75462e-13
3.12413e-05
-3.4277e-13
3.12413e-05
-2.80914e-13
3.12413e-05
-1.96243e-13
3.12413e-05
-9.56929e-14
3.12413e-05
1.36388e-14
3.12413e-05
1.24288e-13
3.12413e-05
2.27691e-13
3.12413e-05
3.14171e-13
3.12413e-05
3.73752e-13
3.12413e-05
3.97018e-13
3.77742e-13
3.37419e-05
3.78472e-13
3.37419e-05
2.5641e-13
3.37419e-05
1.06183e-13
3.37419e-05
-5.3907e-14
3.37419e-05
-2.04342e-13
3.37419e-05
-3.28682e-13
3.37419e-05
-4.15433e-13
3.37419e-05
-4.58199e-13
3.37419e-05
-4.56244e-13
3.37419e-05
-4.13095e-13
3.37419e-05
-3.35176e-13
3.37419e-05
-2.30281e-13
3.37419e-05
-1.06812e-13
3.37419e-05
2.67107e-14
3.37419e-05
1.61159e-13
3.37419e-05
2.85897e-13
3.37419e-05
3.8906e-13
3.37419e-05
4.58426e-13
3.37419e-05
4.83423e-13
4.56429e-13
3.62428e-05
3.77788e-13
3.62428e-05
2.55492e-13
3.62428e-05
1.04321e-13
3.62428e-05
-5.65529e-14
3.62428e-05
-2.07366e-13
3.62428e-05
-3.31582e-13
3.62428e-05
-4.17288e-13
3.62428e-05
-4.58738e-13
3.62428e-05
-4.55391e-13
3.62428e-05
-4.1136e-13
3.62428e-05
-3.33039e-13
3.62428e-05
-2.28251e-13
3.62428e-05
-1.05124e-13
3.62428e-05
2.81004e-14
3.62428e-05
1.62411e-13
3.62428e-05
2.87101e-13
3.62428e-05
3.90068e-13
3.62428e-05
4.59205e-13
3.62428e-05
4.83629e-13
4.56575e-13
3.87439e-05
3.16943e-13
3.87439e-05
2.15877e-13
3.87439e-05
8.98372e-14
3.87439e-05
-4.44612e-14
3.87439e-05
-1.70827e-13
3.87439e-05
-2.74711e-13
3.87439e-05
-3.46603e-13
3.87439e-05
-3.81209e-13
3.87439e-05
-3.78879e-13
3.87439e-05
-3.42768e-13
3.87439e-05
-2.78455e-13
3.87439e-05
-1.9217e-13
3.87439e-05
-9.05075e-14
3.87439e-05
2.00172e-14
3.87439e-05
1.32045e-13
3.87439e-05
2.36445e-13
3.87439e-05
3.23107e-13
3.87439e-05
3.81632e-13
3.87439e-05
4.02992e-13
3.81694e-13
4.12451e-05
2.15264e-13
4.12451e-05
1.48796e-13
4.12451e-05
6.5283e-14
4.12451e-05
-2.47396e-14
4.12451e-05
-1.09748e-13
4.12451e-05
-1.8039e-13
4.12451e-05
-2.29369e-13
4.12451e-05
-2.53861e-13
4.12451e-05
-2.53474e-13
4.12451e-05
-2.30787e-13
4.12451e-05
-1.89069e-13
4.12451e-05
-1.32605e-13
4.12451e-05
-6.54939e-14
4.12451e-05
8.17482e-15
4.12451e-05
8.35834e-14
4.12451e-05
1.54461e-13
4.12451e-05
2.13507e-13
4.12451e-05
2.54027e-13
4.12451e-05
2.69526e-13
2.56915e-13
4.37464e-05
1.06568e-13
4.37464e-05
7.53021e-14
4.37464e-05
3.58617e-14
4.37464e-05
-7.64906e-15
4.37464e-05
-4.92744e-14
4.37464e-05
-8.40612e-14
4.37464e-05
-1.08904e-13
4.37464e-05
-1.21735e-13
4.37464e-05
-1.2297e-13
4.37464e-05
-1.13198e-13
4.37464e-05
-9.42028e-14
4.37464e-05
-6.77637e-14
4.37464e-05
-3.58774e-14
4.37464e-05
-2.48035e-16
4.37464e-05
3.68445e-14
4.37464e-05
7.19966e-14
4.37464e-05
1.01574e-13
4.37464e-05
1.21879e-13
4.37464e-05
1.30662e-13
1.25196e-13
4.62478e-05
2.77475e-14
4.62478e-05
2.02009e-14
4.62478e-05
1.03406e-14
4.62478e-05
-5.05049e-16
4.62478e-05
-1.10712e-14
4.62478e-05
-2.01482e-14
4.62478e-05
-2.66186e-14
4.62478e-05
-3.04168e-14
4.62478e-05
-3.12586e-14
4.62478e-05
-2.93775e-14
4.62478e-05
-2.49067e-14
4.62478e-05
-1.8534e-14
4.62478e-05
-1.07412e-14
4.62478e-05
-1.69592e-15
4.62478e-05
8.14202e-15
4.62478e-05
1.75778e-14
4.62478e-05
2.53659e-14
4.62478e-05
3.08041e-14
4.62478e-05
3.30035e-14
3.20915e-14
4.87493e-05
4.87493e-05
4.87493e-05
4.87493e-05
4.87493e-05
4.87493e-05
4.87493e-05
4.87493e-05
4.87493e-05
4.87493e-05
4.87493e-05
4.87493e-05
4.87493e-05
4.87493e-05
4.87493e-05
4.87493e-05
4.87493e-05
4.87493e-05
4.87493e-05
)
;

boundaryField
{
    movingWall
    {
        type            calculated;
        value           uniform 0;
    }
    fixedWalls
    {
        type            calculated;
        value           uniform 0;
    }
    left
    {
        type            cyclic;
        value           nonuniform List<scalar> 
20
(
-3.87439e-05
-3.62428e-05
-3.37419e-05
-3.12413e-05
-2.87408e-05
-2.62406e-05
-2.37406e-05
-2.12408e-05
-1.87413e-05
-1.62419e-05
-1.37428e-05
-1.12439e-05
-8.74505e-06
-6.24638e-06
-3.74779e-06
-1.24926e-06
-4.12451e-05
-4.37464e-05
-4.62478e-05
-4.87493e-05
)
;
    }
    right
    {
        type            cyclic;
        value           nonuniform List<scalar> 
20
(
3.87439e-05
3.62428e-05
3.37419e-05
3.12413e-05
2.87408e-05
2.62406e-05
2.37406e-05
2.12408e-05
1.87413e-05
1.62419e-05
1.37428e-05
1.12439e-05
8.74505e-06
6.24638e-06
3.74779e-06
1.24926e-06
4.12451e-05
4.37464e-05
4.62478e-05
4.87493e-05
)
;
    }
    frontAndBack
    {
        type            empty;
        value           nonuniform List<scalar> 0();
    }
}


// ************************************************************************* //
