/*--------------------------------*- C++ -*----------------------------------*\
  =========                 |
  \\      /  F ield         | OpenFOAM: The Open Source CFD Toolbox
   \\    /   O peration     | Website:  https://openfoam.org
    \\  /    A nd           | Version:  8
     \\/     M anipulation  |
\*---------------------------------------------------------------------------*/
FoamFile
{
    version     2.0;
    format      ascii;
    class       volScalarField;
    location    "0.275";
    object      p;
}
// * * * * * * * * * * * * * * * * * * * * * * * * * * * * * * * * * * * * * //

dimensions      [0 2 -2 0 0 0 0];

internalField   nonuniform List<scalar> 
400
(
3.69046e-06
-0.00582241
-0.0129585
-0.0184094
-0.020426
-0.0182321
-0.0117679
-0.00147874
0.0118409
0.027151
0.0432444
0.0588213
0.0725756
0.0833046
0.0900487
0.0922633
0.0900233
0.0842429
0.0768813
0.0710689
0.00578099
-0.000216911
-0.00580144
-0.009539
-0.0105947
-0.00842826
-0.00296573
0.00547772
0.0163056
0.0287133
0.0417502
0.0543853
0.0655849
0.0744079
0.0801182
0.0823142
0.0810766
0.0770553
0.0712759
0.0653207
0.0133334
0.00503346
-0.000994205
-0.00442103
-0.00527019
-0.00326091
0.00160531
0.00903024
0.0185042
0.0293508
0.0407662
0.0518697
0.0617681
0.0696357
0.0748064
0.0768779
0.0758423
0.0720876
0.0658085
0.0575399
0.0201359
0.00869445
0.00122586
-0.00266749
-0.00372038
-0.00188319
0.00273351
0.00978672
0.0187823
0.0290966
0.0399931
0.0506547
0.0602333
0.0679162
0.0730036
0.0750024
0.0737675
0.0694589
0.0616072
0.0501085
0.0244975
0.00977083
0.000589101
-0.00398651
-0.00530107
-0.0035057
0.00117662
0.00833653
0.0174639
0.0279509
0.0390866
0.0500713
0.06005
0.0681661
0.0736276
0.0757995
0.0743715
0.0692934
0.0595307
0.0445443
0.0251732
0.00714765
-0.00380282
-0.00905693
-0.0105111
-0.00849836
-0.00335484
0.00443161
0.0143157
0.0256814
0.0378161
0.0499054
0.0610501
0.070305
0.0767366
0.0795193
0.0781421
0.0723378
0.0605451
0.041898
0.0210895
-0.000264168
-0.0129349
-0.0187087
-0.0200284
-0.0174119
-0.0113159
-0.0023169
0.00899342
0.0219793
0.0359128
0.0499474
0.063115
0.074348
0.0825246
0.0865725
0.0857244
0.0794518
0.0656265
0.0430799
0.0111405
-0.0136188
-0.0278745
-0.0338529
-0.0346014
-0.0308547
-0.0232095
-0.0123415
0.00110882
0.016488
0.0330567
0.0499377
0.0660872
0.0802935
0.0912042
0.0974336
0.0978743
0.0916409
0.0759024
0.0491243
-0.00596716
-0.0342654
-0.0498682
-0.0555462
-0.0550871
-0.0495109
-0.0395892
-0.0261085
-0.00975197
0.0088283
0.0289063
0.0495987
0.0698024
0.0881591
0.103052
0.112705
0.115555
0.110197
0.09284
0.0614184
-0.0318543
-0.063873
-0.0804136
-0.0850035
-0.082416
-0.0740736
-0.0609756
-0.0440307
-0.0239452
-0.00133041
0.0231521
0.0486674
0.0741016
0.0979778
0.118401
0.13313
0.139993
0.136823
0.118446
0.0819395
-0.0686616
-0.104598
-0.12134
-0.123585
-0.11751
-0.105121
-0.087712
-0.0663187
-0.0416297
-0.0141481
0.0156131
0.0469606
0.0788627
0.1098
0.13763
0.159591
0.172732
0.173783
0.155525
0.113575
-0.119394
-0.15935
-0.174908
-0.172751
-0.161142
-0.142923
-0.119752
-0.0927695
-0.0625695
-0.0294394
0.00638143
0.0444816
0.0840628
0.12371
0.161143
0.193092
0.215673
0.224081
0.208054
0.160635
-0.188618
-0.232233
-0.243931
-0.233941
-0.213688
-0.187148
-0.156365
-0.122493
-0.0858895
-0.0464634
-0.00400569
0.0415474
0.0898502
0.139837
0.189325
0.234695
0.271079
0.291668
0.281745
0.229777
-0.283962
-0.329295
-0.331824
-0.308273
-0.274702
-0.236433
-0.195757
-0.153602
-0.109832
-0.0637363
-0.0144289
0.0388721
0.0965624
0.158284
0.222381
0.285293
0.341402
0.381578
0.384916
0.331834
-0.419306
-0.459661
-0.442343
-0.395785
-0.342123
-0.287733
-0.234609
-0.182922
-0.131601
-0.0789761
-0.023205
0.037484
0.104561
0.178845
0.259867
0.344975
0.42862
0.499703
0.529677
0.485391
-0.62052
-0.636735
-0.57867
-0.494187
-0.411236
-0.335653
-0.267775
-0.205971
-0.147529
-0.0893745
-0.0284172
0.0383569
0.113815
0.200479
0.299981
0.41203
0.533033
0.651778
0.732773
0.722395
-0.935914
-0.878508
-0.741736
-0.597945
-0.47439
-0.372656
-0.288864
-0.217757
-0.153947
-0.0924561
-0.0287089
0.0417041
0.123271
0.220725
0.338932
0.482159
0.652
0.841344
1.01527
1.0975
-1.47642
-1.20663
-0.9205
-0.691386
-0.517303
-0.387542
-0.290058
-0.213333
-0.148118
-0.0872086
-0.0245698
0.0454656
0.128945
0.233078
0.367109
0.542683
0.771297
1.05932
1.40329
1.73014
-2.53964
-1.63054
-1.04444
-0.710958
-0.495751
-0.352093
-0.25453
-0.183581
-0.126165
-0.0735892
-0.0192617
0.042795
0.119221
0.218791
0.354819
0.54799
0.826398
1.23658
1.91168
2.92419
-4.36666
-2.04463
-0.973542
-0.563182
-0.357849
-0.240149
-0.170121
-0.123782
-0.0874785
-0.0535051
-0.0166472
0.0276694
0.084617
0.161739
0.27242
0.442107
0.718226
1.22571
2.41104
4.84853
)
;

boundaryField
{
    movingWall
    {
        type            zeroGradient;
    }
    fixedWalls
    {
        type            zeroGradient;
    }
    frontAndBack
    {
        type            empty;
    }
}


// ************************************************************************* //
