/*--------------------------------*- C++ -*----------------------------------*\
  =========                 |
  \\      /  F ield         | OpenFOAM: The Open Source CFD Toolbox
   \\    /   O peration     | Website:  https://openfoam.org
    \\  /    A nd           | Version:  8
     \\/     M anipulation  |
\*---------------------------------------------------------------------------*/
FoamFile
{
    version     2.0;
    format      ascii;
    class       volVectorField;
    location    "0.275";
    object      U;
}
// * * * * * * * * * * * * * * * * * * * * * * * * * * * * * * * * * * * * * //

dimensions      [0 1 -1 0 0 0 0];

internalField   nonuniform List<vector> 
400
(
(0.000253377 -0.000250368 0)
(0.000141193 0.000111434 0)
(-0.00117684 0.000564532 0)
(-0.00348067 0.000884856 0)
(-0.00637664 0.00104555 0)
(-0.00946821 0.00106158 0)
(-0.0124013 0.000957702 0)
(-0.014883 0.000760325 0)
(-0.0166873 0.000494575 0)
(-0.017656 0.000184539 0)
(-0.0176999 -0.000145241 0)
(-0.016803 -0.000468294 0)
(-0.0150282 -0.000755302 0)
(-0.0125236 -0.000974124 0)
(-0.00952527 -0.00109104 0)
(-0.00635426 -0.00107387 0)
(-0.00340028 -0.000898009 0)
(-0.00108634 -0.000556329 0)
(0.000196374 -9.03685e-05 0)
(0.000267819 0.000262344 0)
(-7.74476e-05 -0.000169291 0)
(-0.00161134 0.00164466 0)
(-0.00569217 0.00361685 0)
(-0.0117174 0.00503417 0)
(-0.0188899 0.00574247 0)
(-0.0263975 0.00575945 0)
(-0.0334651 0.005171 0)
(-0.039422 0.00409199 0)
(-0.0437387 0.00264732 0)
(-0.0460417 0.000966835 0)
(-0.046124 -0.000813081 0)
(-0.0439563 -0.00254671 0)
(-0.0396966 -0.0040781 0)
(-0.0336989 -0.00524443 0)
(-0.0265105 -0.00588583 0)
(-0.0188525 -0.00586415 0)
(-0.0115654 -0.00509417 0)
(-0.00551274 -0.00358903 0)
(-0.00149295 -0.00155899 0)
(-4.25809e-05 0.000227408 0)
(-0.000528532 0.00109152 0)
(-0.00371093 0.00573562 0)
(-0.0105877 0.0102232 0)
(-0.0199894 0.013406 0)
(-0.0307613 0.0149444 0)
(-0.0418174 0.014837 0)
(-0.0521139 0.0132541 0)
(-0.0607374 0.0104549 0)
(-0.066962 0.00674122 0)
(-0.070275 0.00243865 0)
(-0.070393 -0.00210619 0)
(-0.0672771 -0.00652457 0)
(-0.0611459 -0.0104278 0)
(-0.052483 -0.0134194 0)
(-0.0420327 -0.0151217 0)
(-0.0307708 -0.0152238 0)
(-0.0198271 -0.0135545 0)
(-0.0103625 -0.0101778 0)
(-0.00354816 -0.00555051 0)
(-0.000476794 -0.000948759 0)
(-0.000928103 0.00347944 0)
(-0.00569084 0.0122192 0)
(-0.0153001 0.0199193 0)
(-0.0279138 0.0251948 0)
(-0.041981 0.0275937 0)
(-0.0561732 0.0271342 0)
(-0.0692449 0.0241061 0)
(-0.0801174 0.0189516 0)
(-0.0879392 0.0121942 0)
(-0.0921095 0.0044047 0)
(-0.0922942 -0.00380734 0)
(-0.0884414 -0.011795 0)
(-0.0807971 -0.0188798 0)
(-0.0699162 -0.0243733 0)
(-0.0566638 -0.0276244 0)
(-0.0421908 -0.0280985 0)
(-0.027854 -0.0254948 0)
(-0.0150922 -0.0198895 0)
(-0.0055045 -0.0119264 0)
(-0.000861508 -0.00322455 0)
(-0.00127878 0.00687699 0)
(-0.00753527 0.0209512 0)
(-0.0198029 0.0325066 0)
(-0.0355315 0.0400985 0)
(-0.0527385 0.0432852 0)
(-0.0698521 0.0421878 0)
(-0.0854556 0.0372732 0)
(-0.0983517 0.0292097 0)
(-0.10761 0.0187752 0)
(-0.112578 0.00681317 0)
(-0.112887 -0.00577943 0)
(-0.108465 -0.0180523 0)
(-0.0995537 -0.0290078 0)
(-0.0867319 -0.0376282 0)
(-0.0709298 -0.04294 0)
(-0.0534258 -0.0441239 0)
(-0.0357816 -0.0406743 0)
(-0.0197335 -0.032589 0)
(-0.00736994 -0.0205885 0)
(-0.00120356 -0.00649749 0)
(-0.00160736 0.0112143 0)
(-0.0093172 0.031871 0)
(-0.0242072 0.0479464 0)
(-0.0429991 0.0580653 0)
(-0.0632519 0.06193 0)
(-0.0831462 0.0598742 0)
(-0.101116 0.0526222 0)
(-0.115883 0.0411212 0)
(-0.126478 0.0264342 0)
(-0.132227 0.00969211 0)
(-0.132739 -0.00791499 0)
(-0.127913 -0.0251288 0)
(-0.117957 -0.0406199 0)
(-0.103426 -0.053013 0)
(-0.0852625 -0.0609592 0)
(-0.0648307 -0.063273 0)
(-0.0438822 -0.0591355 0)
(-0.0244758 -0.0483393 0)
(-0.00925358 -0.0315543 0)
(-0.00153762 -0.0107275 0)
(-0.00193989 0.0164752 0)
(-0.0111204 0.0449693 0)
(-0.0286483 0.066226 0)
(-0.0504762 0.0790506 0)
(-0.0736797 0.0834369 0)
(-0.096197 0.0800651 0)
(-0.116344 0.0700165 0)
(-0.132805 0.0545788 0)
(-0.144621 0.035128 0)
(-0.151131 0.0130837 0)
(-0.151939 -0.0100848 0)
(-0.146905 -0.0328283 0)
(-0.136172 -0.0534931 0)
(-0.120215 -0.0703286 0)
(-0.0999261 -0.0815561 0)
(-0.0766965 -0.0855234 0)
(-0.0524368 -0.0809552 0)
(-0.0295429 -0.0672702 0)
(-0.0112829 -0.0449351 0)
(-0.00189994 -0.01595 0)
(-0.00229989 0.0226926 0)
(-0.0130243 0.0602946 0)
(-0.033249 0.0873545 0)
(-0.0580765 0.102986 0)
(-0.08407 0.107654 0)
(-0.108947 0.10255 0)
(-0.13096 0.0892345 0)
(-0.148826 0.0694035 0)
(-0.161657 0.0447672 0)
(-0.168858 0.0170186 0)
(-0.170054 -0.0121315 0)
(-0.165062 -0.040888 0)
(-0.153922 -0.0673064 0)
(-0.136963 -0.0892633 0)
(-0.114937 -0.104501 0)
(-0.0891714 -0.110785 0)
(-0.0616676 -0.106202 0)
(-0.0351466 -0.089571 0)
(-0.0135852 -0.0609439 0)
(-0.00232621 -0.0222756 0)
(-0.00271154 0.0299441 0)
(-0.0151075 0.0779492 0)
(-0.0381134 0.111345 0)
(-0.065846 0.129737 0)
(-0.0943234 0.134304 0)
(-0.121095 0.126961 0)
(-0.144438 0.109891 0)
(-0.163207 0.0852733 0)
(-0.17668 0.055162 0)
(-0.1844 0.0214855 0)
(-0.186051 -0.0138724 0)
(-0.181415 -0.0489507 0)
(-0.170389 -0.0815844 0)
(-0.153075 -0.109312 0)
(-0.129966 -0.129368 0)
(-0.102182 -0.138815 0)
(-0.0716871 -0.134875 0)
(-0.0414656 -0.115459 0)
(-0.0162875 -0.0798888 0)
(-0.00285459 -0.0298872 0)
(-0.00320762 0.0383564 0)
(-0.017466 0.0980812 0)
(-0.0433405 0.138177 0)
(-0.0737557 0.159032 0)
(-0.104159 0.162886 0)
(-0.13203 0.152659 0)
(-0.155823 0.131329 0)
(-0.174676 0.101631 0)
(-0.188165 0.0659521 0)
(-0.196065 0.026388 0)
(-0.198183 -0.0151101 0)
(-0.194281 -0.056539 0)
(-0.184079 -0.0956323 0)
(-0.167364 -0.129677 0)
(-0.144213 -0.15541 0)
(-0.115337 -0.169083 0)
(-0.0824446 -0.166789 0)
(-0.0486354 -0.145113 0)
(-0.0195284 -0.102153 0)
(-0.00353351 -0.0390445 0)
(-0.003844 0.0481254 0)
(-0.0202464 0.120885 0)
(-0.0490471 0.16774 0)
(-0.0816873 0.190352 0)
(-0.113054 0.192542 0)
(-0.140748 0.178601 0)
(-0.163623 0.1525 0)
(-0.181311 0.117583 0)
(-0.193848 0.0765293 0)
(-0.201363 0.0314928 0)
(-0.203859 -0.0156563 0)
(-0.201111 -0.063044 0)
(-0.19265 -0.108481 0)
(-0.177858 -0.149158 0)
(-0.156225 -0.181401 0)
(-0.12778 -0.200592 0)
(-0.0936444 -0.201411 0)
(-0.0567331 -0.178563 0)
(-0.0234799 -0.128165 0)
(-0.00443553 -0.0501016 0)
(-0.00472549 0.0595681 0)
(-0.0236953 0.146609 0)
(-0.0553844 0.199745 0)
(-0.0893789 0.222777 0)
(-0.120126 0.221878 0)
(-0.14568 0.203174 0)
(-0.165636 0.171828 0)
(-0.180377 0.131802 0)
(-0.190588 0.0859645 0)
(-0.19687 0.0363749 0)
(-0.199508 -0.0153682 0)
(-0.198342 -0.0677369 0)
(-0.192723 -0.118857 0)
(-0.181579 -0.166066 0)
(-0.163649 -0.205475 0)
(-0.137969 -0.231647 0)
(-0.104597 -0.237612 0)
(-0.0657344 -0.215514 0)
(-0.028378 -0.15836 0)
(-0.00568213 -0.0635494 0)
(-0.00605177 0.0732256 0)
(-0.0282268 0.175556 0)
(-0.0625109 0.23356 0)
(-0.0962608 0.254734 0)
(-0.123862 0.248718 0)
(-0.144405 0.224014 0)
(-0.158679 0.187096 0)
(-0.168116 0.142454 0)
(-0.174211 0.0929638 0)
(-0.178129 0.0403776 0)
(-0.180495 -0.0141964 0)
(-0.181275 -0.0698157 0)
(-0.179704 -0.125202 0)
(-0.174278 -0.178169 0)
(-0.162901 -0.224961 0)
(-0.143321 -0.259575 0)
(-0.11394 -0.273317 0)
(-0.0753946 -0.255056 0)
(-0.0345568 -0.193084 0)
(-0.00748638 -0.0801016 0)
(-0.00819228 0.0900442 0)
(-0.0344838 0.208014 0)
(-0.0704149 0.267875 0)
(-0.101028 0.283596 0)
(-0.121581 0.2698 0)
(-0.133116 0.23783 0)
(-0.138173 0.195395 0)
(-0.139473 0.147226 0)
(-0.139379 0.0959047 0)
(-0.139607 0.0426181 0)
(-0.141122 -0.0122313 0)
(-0.144067 -0.0685025 0)
(-0.147679 -0.125787 0)
(-0.150179 -0.18276 0)
(-0.148728 -0.236314 0)
(-0.139649 -0.280436 0)
(-0.119098 -0.305015 0)
(-0.084938 -0.29515 0)
(-0.0424412 -0.232371 0)
(-0.0102162 -0.100834 0)
(-0.0117677 0.111634 0)
(-0.0432608 0.243957 0)
(-0.0782999 0.300027 0)
(-0.100632 0.305084 0)
(-0.108358 0.280451 0)
(-0.105739 0.240374 0)
(-0.0975393 0.193273 0)
(-0.0877821 0.143543 0)
(-0.0795131 0.093032 0)
(-0.074798 0.0420937 0)
(-0.0748155 -0.00972756 0)
(-0.0799028 -0.0632075 0)
(-0.0894738 -0.118985 0)
(-0.101798 -0.17695 0)
(-0.113694 -0.235276 0)
(-0.120311 -0.288873 0)
(-0.115267 -0.327187 0)
(-0.0922686 -0.331787 0)
(-0.0523165 -0.275399 0)
(-0.0144305 -0.127345 0)
(-0.0175495 0.140658 0)
(-0.0547655 0.282143 0)
(-0.0827886 0.324714 0)
(-0.0880845 0.312468 0)
(-0.0751145 0.274449 0)
(-0.0525988 0.226764 0)
(-0.027468 0.177282 0)
(-0.00452553 0.129131 0)
(0.0130868 0.0829098 0)
(0.0234275 0.0379458 0)
(0.0253861 -0.00707267 0)
(0.0184955 -0.0537559 0)
(0.00296896 -0.103748 0)
(-0.0200063 -0.158315 0)
(-0.0476935 -0.217496 0)
(-0.0749905 -0.278354 0)
(-0.0935505 -0.331785 0)
(-0.0920659 -0.357677 0)
(-0.0632814 -0.31929 0)
(-0.0206337 -0.161972 0)
(-0.0254499 0.181711 0)
(-0.0657753 0.31777 0)
(-0.0733349 0.331359 0)
(-0.0480803 0.295397 0)
(-0.00558328 0.244207 0)
(0.0412117 0.192376 0)
(0.0846446 0.145043 0)
(0.120527 0.102968 0)
(0.146691 0.0651358 0)
(0.162036 0.0298906 0)
(0.16593 -0.00467107 0)
(0.157925 -0.0406268 0)
(0.137722 -0.0802438 0)
(0.105431 -0.125914 0)
(0.062255 -0.179722 0)
(0.0118003 -0.242016 0)
(-0.0378336 -0.307874 0)
(-0.0716815 -0.36014 0)
(-0.0700563 -0.356606 0)
(-0.0279124 -0.208374 0)
(-0.029649 0.239176 0)
(-0.0608417 0.335767 0)
(-0.0219436 0.300502 0)
(0.0505395 0.240125 0)
(0.127568 0.182946 0)
(0.197002 0.135387 0)
(0.25433 0.0973967 0)
(0.298242 0.0668493 0)
(0.328816 0.0413542 0)
(0.346457 0.0187781 0)
(0.351366 -0.00279388 0)
(0.343293 -0.0252642 0)
(0.32146 -0.0507862 0)
(0.284635 -0.0820462 0)
(0.231566 -0.122444 0)
(0.162176 -0.175667 0)
(0.0798975 -0.243429 0)
(-0.00319161 -0.319134 0)
(-0.0546702 -0.368611 0)
(-0.0284595 -0.267617 0)
(0.00808314 0.281862 0)
(0.019783 0.294972 0)
(0.139065 0.210972 0)
(0.264459 0.143476 0)
(0.364365 0.097185 0)
(0.44036 0.0657764 0)
(0.496738 0.0442365 0)
(0.536868 0.0288853 0)
(0.56344 0.0171984 0)
(0.578299 0.00748463 0)
(0.582373 -0.00149398 0)
(0.575689 -0.0108448 0)
(0.557302 -0.0218464 0)
(0.52513 -0.0363342 0)
(0.475773 -0.0572587 0)
(0.404534 -0.0893832 0)
(0.305174 -0.13974 0)
(0.173416 -0.216385 0)
(0.0411716 -0.311655 0)
(0.0184302 -0.299995 0)
(0.299604 0.146091 0)
(0.396272 0.127503 0)
(0.55742 0.0760894 0)
(0.674487 0.0437231 0)
(0.743888 0.0255719 0)
(0.787152 0.015242 0)
(0.815483 0.00921216 0)
(0.833953 0.00550928 0)
(0.845383 0.0030271 0)
(0.851369 0.00114933 0)
(0.852663 -0.000499345 0)
(0.84938 -0.00221498 0)
(0.840997 -0.00433843 0)
(0.826139 -0.00742393 0)
(0.802077 -0.0125321 0)
(0.76362 -0.0217727 0)
(0.699107 -0.0392828 0)
(0.583952 -0.07266 0)
(0.415827 -0.127868 0)
(0.308819 -0.149468 0)
)
;

boundaryField
{
    movingWall
    {
        type            fixedValue;
        value           uniform (1 0 0);
    }
    fixedWalls
    {
        type            noSlip;
    }
    frontAndBack
    {
        type            empty;
    }
}


// ************************************************************************* //
