/*--------------------------------*- C++ -*----------------------------------*\
  =========                 |
  \\      /  F ield         | OpenFOAM: The Open Source CFD Toolbox
   \\    /   O peration     | Website:  https://openfoam.org
    \\  /    A nd           | Version:  8
     \\/     M anipulation  |
\*---------------------------------------------------------------------------*/
FoamFile
{
    version     2.0;
    format      ascii;
    class       volVectorField;
    location    "57";
    object      U;
}
// * * * * * * * * * * * * * * * * * * * * * * * * * * * * * * * * * * * * * //

dimensions      [0 1 -1 0 0 0 0];

internalField   nonuniform List<vector> 
11600
(
(9.51352e-07 -1.18576e-06 0)
(-3.9082e-05 1.39017e-05 0)
(-0.00012036 2.09196e-05 0)
(-0.000207729 2.34162e-05 0)
(-0.000302344 2.37638e-05 0)
(-0.000397493 2.35213e-05 0)
(-0.000492718 2.33066e-05 0)
(-0.000587959 2.32206e-05 0)
(-0.000683295 2.3236e-05 0)
(-0.000778841 2.33152e-05 0)
(-0.000874687 2.34333e-05 0)
(-0.000970898 2.35776e-05 0)
(-0.00106753 2.37422e-05 0)
(-0.00116462 2.39245e-05 0)
(-0.00126222 2.41234e-05 0)
(-0.00136035 2.43385e-05 0)
(-0.00145907 2.45695e-05 0)
(-0.0015584 2.48163e-05 0)
(-0.00165838 2.5079e-05 0)
(-0.00175905 2.53576e-05 0)
(-0.00186043 2.56519e-05 0)
(-0.00196255 2.59622e-05 0)
(-0.00206544 2.62884e-05 0)
(-0.00216914 2.66306e-05 0)
(-0.00227366 2.69886e-05 0)
(-0.00237903 2.73626e-05 0)
(-0.00248527 2.77523e-05 0)
(-0.00259241 2.81579e-05 0)
(-0.00270046 2.8579e-05 0)
(-0.00280944 2.90154e-05 0)
(-0.00291936 2.94669e-05 0)
(-0.00303024 2.99331e-05 0)
(-0.00314208 3.04133e-05 0)
(-0.00325489 3.09069e-05 0)
(-0.00336867 3.14129e-05 0)
(-0.00348342 3.19303e-05 0)
(-0.00359914 3.24574e-05 0)
(-0.00371582 3.29923e-05 0)
(-0.00383346 3.35324e-05 0)
(-0.00395203 3.40743e-05 0)
(-0.00407151 3.46136e-05 0)
(-0.00419187 3.5144e-05 0)
(-0.00431307 3.56567e-05 0)
(-0.00443506 3.61391e-05 0)
(-0.00455775 3.65718e-05 0)
(-0.00468104 3.69237e-05 0)
(-0.00480473 3.71417e-05 0)
(-0.00492854 3.7129e-05 0)
(-0.00505195 3.67006e-05 0)
(-0.00517404 3.549e-05 0)
(-0.0052932 3.27677e-05 0)
(-0.00540658 2.71555e-05 0)
(-0.00550929 1.63007e-05 0)
(-0.00559358 -3.54379e-06 0)
(-0.0056576 -3.77074e-05 0)
(-0.00572085 -8.00914e-05 0)
(-0.00566551 -7.31501e-05 0)
(-0.00623335 2.76214e-06 0)
(-0.00617453 0.00112008 0)
(-0.010594 0.00372598 0)
(-1.5022e-05 3.93223e-05 0)
(-0.000114875 0.000112043 0)
(-0.000285306 0.000147944 0)
(-0.000468366 0.00016342 0)
(-0.00066551 0.00016865 0)
(-0.000865692 0.000170008 0)
(-0.0010671 0.000170325 0)
(-0.00126912 0.000170528 0)
(-0.00147156 0.000170845 0)
(-0.00167443 0.000171297 0)
(-0.00187781 0.00017186 0)
(-0.00208174 0.000172514 0)
(-0.00228632 0.000173245 0)
(-0.00249158 0.000174044 0)
(-0.00269758 0.000174908 0)
(-0.00290438 0.000175832 0)
(-0.00311202 0.000176814 0)
(-0.00332054 0.000177851 0)
(-0.00352998 0.00017894 0)
(-0.00374037 0.000180078 0)
(-0.00395175 0.000181264 0)
(-0.00416413 0.000182494 0)
(-0.00437755 0.000183765 0)
(-0.00459202 0.000185075 0)
(-0.00480755 0.000186419 0)
(-0.00502414 0.000187795 0)
(-0.00524181 0.000189198 0)
(-0.00546055 0.000190625 0)
(-0.00568034 0.000192072 0)
(-0.00590118 0.000193535 0)
(-0.00612305 0.000195008 0)
(-0.00634591 0.000196487 0)
(-0.00656975 0.000197968 0)
(-0.00679451 0.000199444 0)
(-0.00702016 0.000200911 0)
(-0.00724665 0.000202364 0)
(-0.00747393 0.000203796 0)
(-0.00770195 0.000205201 0)
(-0.00793065 0.000206573 0)
(-0.00815999 0.000207904 0)
(-0.00838989 0.000209186 0)
(-0.00862032 0.000210407 0)
(-0.00885123 0.00021155 0)
(-0.00908258 0.000212591 0)
(-0.00931434 0.000213491 0)
(-0.00954649 0.00021418 0)
(-0.00977901 0.000214539 0)
(-0.0100118 0.000214345 0)
(-0.010245 0.000213196 0)
(-0.0104782 0.000210372 0)
(-0.0107117 0.00020467 0)
(-0.0109457 0.000194399 0)
(-0.0111827 0.000178047 0)
(-0.0114312 0.000156681 0)
(-0.0117143 0.000141211 0)
(-0.012071 0.000179019 0)
(-0.0125647 0.000395822 0)
(-0.0135765 0.000900356 0)
(-0.0145069 0.00264415 0)
(-0.0169961 0.00479231 0)
(-2.33824e-05 0.000124136 0)
(-0.000156002 0.000284377 0)
(-0.000374979 0.000364233 0)
(-0.000608405 0.000399927 0)
(-0.00085857 0.000413627 0)
(-0.00111263 0.000418323 0)
(-0.00136833 0.000419968 0)
(-0.00162489 0.000420845 0)
(-0.00188199 0.000421687 0)
(-0.0021396 0.00042268 0)
(-0.00239774 0.000423844 0)
(-0.00265649 0.000425164 0)
(-0.0029159 0.000426624 0)
(-0.00317601 0.000428212 0)
(-0.00343688 0.000429918 0)
(-0.00369855 0.000431732 0)
(-0.00396106 0.000433648 0)
(-0.00422445 0.000435657 0)
(-0.00448874 0.000437753 0)
(-0.00475398 0.000439927 0)
(-0.00502016 0.000442173 0)
(-0.00528732 0.000444481 0)
(-0.00555545 0.000446843 0)
(-0.00582458 0.00044925 0)
(-0.00609468 0.000451691 0)
(-0.00636575 0.000454158 0)
(-0.00663778 0.000456639 0)
(-0.00691075 0.000459124 0)
(-0.00718462 0.000461601 0)
(-0.00745935 0.000464059 0)
(-0.00773492 0.000466486 0)
(-0.00801126 0.000468871 0)
(-0.00828832 0.000471202 0)
(-0.00856603 0.000473468 0)
(-0.00884434 0.00047566 0)
(-0.00912317 0.000477767 0)
(-0.00940246 0.000479783 0)
(-0.00968213 0.0004817 0)
(-0.00996213 0.000483515 0)
(-0.0102424 0.000485226 0)
(-0.0105229 0.000486836 0)
(-0.0108036 0.000488348 0)
(-0.0110845 0.000489768 0)
(-0.0113656 0.000491101 0)
(-0.0116472 0.000492344 0)
(-0.0119293 0.000493479 0)
(-0.0122124 0.000494448 0)
(-0.0124968 0.00049513 0)
(-0.0127833 0.000495306 0)
(-0.0130732 0.000494688 0)
(-0.0133685 0.000493152 0)
(-0.013673 0.000491615 0)
(-0.0139942 0.000494455 0)
(-0.0143466 0.000515257 0)
(-0.0147552 0.000589143 0)
(-0.0152528 0.000792667 0)
(-0.0158866 0.00125594 0)
(-0.016746 0.00216039 0)
(-0.0174025 0.00392967 0)
(-0.0184484 0.00606197 0)
(-2.69598e-05 0.000218411 0)
(-0.00017589 0.000474129 0)
(-0.000419235 0.000600184 0)
(-0.000676825 0.000656109 0)
(-0.000952078 0.000678075 0)
(-0.00123132 0.000686011 0)
(-0.00151231 0.000688989 0)
(-0.00179425 0.000690567 0)
(-0.0020768 0.000691946 0)
(-0.00235988 0.000693464 0)
(-0.00264351 0.000695189 0)
(-0.00292772 0.000697116 0)
(-0.00321257 0.000699231 0)
(-0.00349809 0.000701519 0)
(-0.00378432 0.000703965 0)
(-0.0040713 0.000706557 0)
(-0.00435906 0.000709284 0)
(-0.00464764 0.000712134 0)
(-0.00493705 0.000715093 0)
(-0.00522731 0.000718149 0)
(-0.00551844 0.00072129 0)
(-0.00581044 0.0007245 0)
(-0.00610332 0.000727765 0)
(-0.00639706 0.00073107 0)
(-0.00669166 0.000734399 0)
(-0.00698709 0.000737734 0)
(-0.00728333 0.000741058 0)
(-0.00758034 0.000744353 0)
(-0.00787809 0.000747601 0)
(-0.00817652 0.000750784 0)
(-0.00847558 0.000753884 0)
(-0.0087752 0.000756882 0)
(-0.00907533 0.000759763 0)
(-0.00937588 0.000762511 0)
(-0.00967677 0.000765114 0)
(-0.00997794 0.00076756 0)
(-0.0102793 0.000769846 0)
(-0.0105808 0.000771969 0)
(-0.0108823 0.000773938 0)
(-0.0111839 0.000775768 0)
(-0.0114854 0.000777486 0)
(-0.0117869 0.000779133 0)
(-0.0120885 0.000780769 0)
(-0.0123903 0.000782473 0)
(-0.0126925 0.000784349 0)
(-0.0129955 0.000786531 0)
(-0.0132998 0.000789191 0)
(-0.0136066 0.00079256 0)
(-0.013917 0.000796993 0)
(-0.0142336 0.000803161 0)
(-0.0145598 0.000812574 0)
(-0.0149015 0.000828838 0)
(-0.0152676 0.00086038 0)
(-0.0156714 0.000925836 0)
(-0.0161281 0.00106304 0)
(-0.0166491 0.00133847 0)
(-0.0172308 0.00184759 0)
(-0.0178135 0.00271013 0)
(-0.0181458 0.00407326 0)
(-0.0182626 0.00555028 0)
(-2.79192e-05 0.000322005 0)
(-0.000183818 0.000680919 0)
(-0.000438315 0.000855892 0)
(-0.000706659 0.00093289 0)
(-0.000993012 0.000963422 0)
(-0.00128319 0.000974753 0)
(-0.00157506 0.000979167 0)
(-0.00186787 0.000981516 0)
(-0.00216129 0.000983474 0)
(-0.00245523 0.000985538 0)
(-0.00274972 0.000987827 0)
(-0.00304479 0.000990352 0)
(-0.00334046 0.000993104 0)
(-0.00363677 0.000996066 0)
(-0.00393376 0.000999221 0)
(-0.00423147 0.00100255 0)
(-0.00452991 0.00100605 0)
(-0.00482911 0.00100969 0)
(-0.0051291 0.00101346 0)
(-0.00542988 0.00101734 0)
(-0.00573146 0.00102131 0)
(-0.00603385 0.00102534 0)
(-0.00633703 0.00102943 0)
(-0.00664101 0.00103354 0)
(-0.00694576 0.00103766 0)
(-0.00725125 0.00104176 0)
(-0.00755746 0.00104581 0)
(-0.00786434 0.00104979 0)
(-0.00817185 0.00105367 0)
(-0.00847993 0.00105743 0)
(-0.00878851 0.00106104 0)
(-0.00909754 0.00106448 0)
(-0.00940693 0.00106773 0)
(-0.0097166 0.00107077 0)
(-0.0100265 0.00107358 0)
(-0.0103365 0.00107615 0)
(-0.0106465 0.00107849 0)
(-0.0109565 0.00108059 0)
(-0.0112663 0.00108248 0)
(-0.011576 0.0010842 0)
(-0.0118855 0.00108581 0)
(-0.0121948 0.0010874 0)
(-0.012504 0.00108909 0)
(-0.0128133 0.00109107 0)
(-0.0131228 0.00109358 0)
(-0.013433 0.00109696 0)
(-0.0137446 0.00110171 0)
(-0.0140586 0.00110853 0)
(-0.0143764 0.00111852 0)
(-0.0147003 0.0011335 0)
(-0.0150335 0.00115667 0)
(-0.0153808 0.00119393 0)
(-0.0157482 0.00125622 0)
(-0.0161421 0.00136329 0)
(-0.0165659 0.00154834 0)
(-0.0170124 0.00186045 0)
(-0.0174514 0.00236016 0)
(-0.0177981 0.00310579 0)
(-0.0179014 0.00410343 0)
(-0.017693 0.00514172 0)
(-2.79079e-05 0.000427227 0)
(-0.000186324 0.000892464 0)
(-0.000445384 0.00111732 0)
(-0.000718069 0.00121548 0)
(-0.00100893 0.00125443 0)
(-0.00130344 0.001269 0)
(-0.00159955 0.00127476 0)
(-0.00189657 0.00127784 0)
(-0.00219417 0.00128036 0)
(-0.0024923 0.00128296 0)
(-0.00279097 0.0012858 0)
(-0.0030902 0.00128891 0)
(-0.00339004 0.00129228 0)
(-0.00369051 0.00129589 0)
(-0.00399165 0.00129973 0)
(-0.00429349 0.00130378 0)
(-0.00459605 0.00130801 0)
(-0.00489935 0.0013124 0)
(-0.00520342 0.00131694 0)
(-0.00550826 0.0013216 0)
(-0.00581388 0.00132635 0)
(-0.00612028 0.00133117 0)
(-0.00642746 0.00133603 0)
(-0.00673539 0.00134089 0)
(-0.00704407 0.00134574 0)
(-0.00735346 0.00135054 0)
(-0.00766353 0.00135525 0)
(-0.00797424 0.00135985 0)
(-0.00828553 0.00136429 0)
(-0.00859735 0.00136855 0)
(-0.00890962 0.0013726 0)
(-0.00922229 0.0013764 0)
(-0.00953526 0.00137993 0)
(-0.00984845 0.00138316 0)
(-0.0101618 0.00138608 0)
(-0.0104751 0.00138867 0)
(-0.0107884 0.00139094 0)
(-0.0111016 0.0013929 0)
(-0.0114145 0.00139458 0)
(-0.0117271 0.00139605 0)
(-0.0120394 0.00139739 0)
(-0.0123514 0.00139874 0)
(-0.0126629 0.00140029 0)
(-0.0129743 0.00140232 0)
(-0.0132856 0.0014052 0)
(-0.0135972 0.00140945 0)
(-0.0139096 0.00141583 0)
(-0.0142236 0.00142542 0)
(-0.0145402 0.00143984 0)
(-0.0148611 0.00146156 0)
(-0.0151882 0.00149452 0)
(-0.0155241 0.00154513 0)
(-0.015871 0.00162379 0)
(-0.0162292 0.00174691 0)
(-0.0165934 0.00193859 0)
(-0.0169472 0.00222984 0)
(-0.0172533 0.00265313 0)
(-0.0174411 0.00322807 0)
(-0.0174208 0.00392315 0)
(-0.0171236 0.00462101 0)
(-2.76836e-05 0.000532792 0)
(-0.000186738 0.00110573 0)
(-0.000447309 0.00138091 0)
(-0.000721455 0.00150031 0)
(-0.00101388 0.00154759 0)
(-0.00130986 0.00156532 0)
(-0.00160738 0.00157236 0)
(-0.00190577 0.00157614 0)
(-0.00220473 0.00157921 0)
(-0.00250421 0.00158234 0)
(-0.00280423 0.00158573 0)
(-0.00310482 0.00158943 0)
(-0.00340602 0.00159342 0)
(-0.00370786 0.00159768 0)
(-0.00401038 0.0016022 0)
(-0.0043136 0.00160695 0)
(-0.00461755 0.00161192 0)
(-0.00492225 0.00161706 0)
(-0.00522772 0.00162237 0)
(-0.00553397 0.0016278 0)
(-0.00584101 0.00163333 0)
(-0.00614884 0.00163892 0)
(-0.00645745 0.00164454 0)
(-0.00676683 0.00165016 0)
(-0.00707696 0.00165573 0)
(-0.00738781 0.00166122 0)
(-0.00769934 0.00166659 0)
(-0.00801152 0.00167179 0)
(-0.00832429 0.00167678 0)
(-0.00863758 0.00168153 0)
(-0.00895134 0.00168599 0)
(-0.00926548 0.00169013 0)
(-0.00957992 0.00169391 0)
(-0.00989457 0.00169729 0)
(-0.0102093 0.00170027 0)
(-0.0105241 0.00170283 0)
(-0.0108387 0.00170496 0)
(-0.0111532 0.00170669 0)
(-0.0114673 0.00170806 0)
(-0.011781 0.00170913 0)
(-0.0120943 0.00171004 0)
(-0.0124069 0.00171093 0)
(-0.012719 0.00171206 0)
(-0.0130304 0.00171375 0)
(-0.0133413 0.00171649 0)
(-0.0136519 0.00172092 0)
(-0.0139622 0.00172795 0)
(-0.0142728 0.0017389 0)
(-0.0145842 0.00175561 0)
(-0.0148968 0.00178081 0)
(-0.0152114 0.00181848 0)
(-0.0155282 0.00187458 0)
(-0.0158462 0.00195777 0)
(-0.0161617 0.0020803 0)
(-0.0164654 0.00225797 0)
(-0.0167388 0.00250823 0)
(-0.016949 0.00284509 0)
(-0.0170464 0.00326785 0)
(-0.0169768 0.00374185 0)
(-0.0166976 0.0041965 0)
(-2.74569e-05 0.000638199 0)
(-0.000186418 0.00131942 0)
(-0.000447198 0.00164514 0)
(-0.000721593 0.00178587 0)
(-0.00101435 0.00184147 0)
(-0.00131061 0.0018623 0)
(-0.0016084 0.0018706 0)
(-0.00190702 0.00187506 0)
(-0.00220621 0.00187867 0)
(-0.00250591 0.00188233 0)
(-0.00280617 0.00188629 0)
(-0.00310701 0.00189057 0)
(-0.00340847 0.00189519 0)
(-0.00371059 0.00190012 0)
(-0.0040134 0.00190534 0)
(-0.00431693 0.00191081 0)
(-0.00462121 0.00191653 0)
(-0.00492627 0.00192244 0)
(-0.00523211 0.00192853 0)
(-0.00553877 0.00193476 0)
(-0.00584624 0.00194108 0)
(-0.00615452 0.00194747 0)
(-0.00646361 0.00195388 0)
(-0.00677351 0.00196027 0)
(-0.00708418 0.00196658 0)
(-0.00739561 0.00197279 0)
(-0.00770776 0.00197883 0)
(-0.00802058 0.00198466 0)
(-0.00833402 0.00199022 0)
(-0.00864803 0.00199548 0)
(-0.00896252 0.00200037 0)
(-0.00927743 0.00200485 0)
(-0.00959265 0.00200889 0)
(-0.0099081 0.00201243 0)
(-0.0102237 0.00201546 0)
(-0.0105392 0.00201795 0)
(-0.0108546 0.00201991 0)
(-0.0111698 0.00202134 0)
(-0.0114846 0.0020223 0)
(-0.0117989 0.00202285 0)
(-0.0121125 0.00202312 0)
(-0.0124253 0.0020233 0)
(-0.0127372 0.00202365 0)
(-0.013048 0.00202453 0)
(-0.0133578 0.00202646 0)
(-0.0136663 0.00203014 0)
(-0.0139736 0.00203654 0)
(-0.0142795 0.002047 0)
(-0.014584 0.00206337 0)
(-0.0148867 0.00208821 0)
(-0.0151871 0.00212509 0)
(-0.0154836 0.00217888 0)
(-0.0157733 0.00225611 0)
(-0.0160505 0.00236501 0)
(-0.016305 0.00251488 0)
(-0.01652 0.00271419 0)
(-0.01667 0.00296658 0)
(-0.0167223 0.00326367 0)
(-0.0166449 0.00357697 0)
(-0.0164154 0.00385977 0)
(-2.72601e-05 0.000743252 0)
(-0.000185854 0.0015329 0)
(-0.000446312 0.00190926 0)
(-0.000720457 0.00207139 0)
(-0.00101302 0.00213533 0)
(-0.00130909 0.00215925 0)
(-0.00160668 0.00216879 0)
(-0.00190509 0.00217391 0)
(-0.00220407 0.00217806 0)
(-0.00250358 0.00218227 0)
(-0.00280364 0.00218679 0)
(-0.0031043 0.00219169 0)
(-0.0034056 0.00219696 0)
(-0.00370758 0.00220257 0)
(-0.00401028 0.0022085 0)
(-0.00431373 0.00221473 0)
(-0.00461795 0.00222122 0)
(-0.00492298 0.00222793 0)
(-0.00522883 0.00223483 0)
(-0.00553553 0.00224188 0)
(-0.00584308 0.00224904 0)
(-0.00615148 0.00225626 0)
(-0.00646074 0.00226349 0)
(-0.00677084 0.00227069 0)
(-0.00708176 0.00227779 0)
(-0.00739349 0.00228475 0)
(-0.00770598 0.00229151 0)
(-0.0080192 0.00229801 0)
(-0.0083331 0.00230419 0)
(-0.0086476 0.00230999 0)
(-0.00896264 0.00231535 0)
(-0.00927813 0.00232021 0)
(-0.00959398 0.00232453 0)
(-0.00991008 0.00232825 0)
(-0.0102263 0.00233134 0)
(-0.0105426 0.00233377 0)
(-0.0108587 0.00233552 0)
(-0.0111745 0.0023366 0)
(-0.0114899 0.00233705 0)
(-0.0118046 0.00233694 0)
(-0.0121185 0.00233639 0)
(-0.0124314 0.00233558 0)
(-0.0127431 0.00233475 0)
(-0.0130533 0.00233429 0)
(-0.0133618 0.00233468 0)
(-0.0136682 0.00233662 0)
(-0.0139722 0.00234101 0)
(-0.0142734 0.00234911 0)
(-0.0145711 0.00236255 0)
(-0.0148642 0.00238353 0)
(-0.0151513 0.00241491 0)
(-0.01543 0.00246034 0)
(-0.0156962 0.00252427 0)
(-0.0159438 0.00261174 0)
(-0.0161631 0.00272752 0)
(-0.0163403 0.00287461 0)
(-0.016457 0.00305142 0)
(-0.016492 0.00324776 0)
(-0.0164266 0.00344181 0)
(-0.0162501 0.00360179 0)
(-2.70826e-05 0.0008479 0)
(-0.000185197 0.00174591 0)
(-0.000445103 0.00217294 0)
(-0.000718781 0.00235654 0)
(-0.00101093 0.00242884 0)
(-0.00130659 0.00245586 0)
(-0.00160377 0.00246663 0)
(-0.0019018 0.00247243 0)
(-0.00220039 0.00247713 0)
(-0.00249951 0.00248188 0)
(-0.00279921 0.00248699 0)
(-0.00309953 0.00249252 0)
(-0.0034005 0.00249845 0)
(-0.00370219 0.00250478 0)
(-0.00400461 0.00251146 0)
(-0.00430782 0.00251846 0)
(-0.00461184 0.00252576 0)
(-0.0049167 0.0025333 0)
(-0.00522243 0.00254106 0)
(-0.00552904 0.00254898 0)
(-0.00583655 0.00255701 0)
(-0.00614496 0.00256511 0)
(-0.00645428 0.00257321 0)
(-0.0067645 0.00258127 0)
(-0.0070756 0.00258921 0)
(-0.00738756 0.00259699 0)
(-0.00770035 0.00260452 0)
(-0.00801392 0.00261174 0)
(-0.00832823 0.00261859 0)
(-0.00864321 0.00262499 0)
(-0.00895879 0.00263087 0)
(-0.00927489 0.00263617 0)
(-0.00959139 0.00264081 0)
(-0.0099082 0.00264475 0)
(-0.0102252 0.00264792 0)
(-0.0105422 0.00265028 0)
(-0.0108591 0.00265181 0)
(-0.0111756 0.0026525 0)
(-0.0114917 0.00265237 0)
(-0.0118071 0.00265147 0)
(-0.0121215 0.00264991 0)
(-0.0124346 0.00264782 0)
(-0.0127463 0.00264546 0)
(-0.013056 0.00264313 0)
(-0.0133634 0.00264128 0)
(-0.0136681 0.00264052 0)
(-0.0139693 0.00264165 0)
(-0.0142664 0.0026457 0)
(-0.0145582 0.00265401 0)
(-0.0148433 0.00266831 0)
(-0.0151197 0.00269067 0)
(-0.0153844 0.0027236 0)
(-0.0156332 0.00276984 0)
(-0.0158601 0.00283203 0)
(-0.0160568 0.00291205 0)
(-0.0162125 0.00300977 0)
(-0.0163142 0.00312135 0)
(-0.0163482 0.00323716 0)
(-0.0163036 0.00334076 0)
(-0.0161757 0.00341023 0)
(-2.6909e-05 0.000952122 0)
(-0.000184479 0.00195835 0)
(-0.000443713 0.00243605 0)
(-0.000716807 0.00264117 0)
(-0.0010084 0.00272187 0)
(-0.00130355 0.00275201 0)
(-0.00160023 0.00276402 0)
(-0.00189775 0.0027705 0)
(-0.00219586 0.00277575 0)
(-0.00249451 0.00278107 0)
(-0.00279376 0.00278678 0)
(-0.00309364 0.00279296 0)
(-0.00339422 0.00279959 0)
(-0.00369552 0.00280665 0)
(-0.0039976 0.00281411 0)
(-0.0043005 0.00282193 0)
(-0.00460425 0.00283007 0)
(-0.00490889 0.00283849 0)
(-0.00521443 0.00284714 0)
(-0.00552091 0.00285598 0)
(-0.00582834 0.00286494 0)
(-0.00613673 0.00287396 0)
(-0.00644609 0.002883 0)
(-0.0067564 0.00289198 0)
(-0.00706767 0.00290083 0)
(-0.00737986 0.00290947 0)
(-0.00769296 0.00291785 0)
(-0.00800691 0.00292587 0)
(-0.00832167 0.00293345 0)
(-0.00863719 0.00294052 0)
(-0.00895337 0.00294699 0)
(-0.00927014 0.00295278 0)
(-0.00958739 0.00295781 0)
(-0.00990501 0.00296201 0)
(-0.0102229 0.0029653 0)
(-0.0105408 0.00296762 0)
(-0.0108586 0.00296894 0)
(-0.0111761 0.00296921 0)
(-0.0114931 0.00296844 0)
(-0.0118093 0.00296665 0)
(-0.0121244 0.0029639 0)
(-0.0124381 0.00296032 0)
(-0.0127501 0.00295607 0)
(-0.0130597 0.00295141 0)
(-0.0133667 0.00294671 0)
(-0.0136702 0.00294245 0)
(-0.0139694 0.00293924 0)
(-0.0142635 0.00293789 0)
(-0.0145509 0.00293939 0)
(-0.0148301 0.00294495 0)
(-0.0150988 0.00295594 0)
(-0.0153538 0.00297387 0)
(-0.0155911 0.00300015 0)
(-0.0158053 0.00303581 0)
(-0.0159896 0.0030809 0)
(-0.0161357 0.00313369 0)
(-0.0162344 0.00318963 0)
(-0.0162769 0.00324037 0)
(-0.0162567 0.00327355 0)
(-0.0161721 0.00327379 0)
(-2.67287e-05 0.00105589 0)
(-0.000183698 0.00217012 0)
(-0.000442174 0.0026985 0)
(-0.000714601 0.00292519 0)
(-0.00100556 0.00301432 0)
(-0.00130011 0.0030476 0)
(-0.0015962 0.00306087 0)
(-0.00189316 0.00306804 0)
(-0.00219071 0.00307386 0)
(-0.00248882 0.00307976 0)
(-0.00278755 0.0030861 0)
(-0.00308695 0.00309295 0)
(-0.00338706 0.00310031 0)
(-0.00368793 0.00310814 0)
(-0.00398962 0.00311641 0)
(-0.00429216 0.00312509 0)
(-0.0045956 0.00313412 0)
(-0.00489997 0.00314346 0)
(-0.0052053 0.00315306 0)
(-0.00551162 0.00316286 0)
(-0.00581895 0.0031728 0)
(-0.00612731 0.00318282 0)
(-0.00643669 0.00319285 0)
(-0.00674711 0.00320282 0)
(-0.00705855 0.00321264 0)
(-0.007371 0.00322224 0)
(-0.00768443 0.00323154 0)
(-0.00799881 0.00324043 0)
(-0.00831408 0.00324883 0)
(-0.00863019 0.00325665 0)
(-0.00894706 0.00326379 0)
(-0.00926461 0.00327016 0)
(-0.00958272 0.00327565 0)
(-0.00990128 0.00328017 0)
(-0.0102201 0.00328364 0)
(-0.0105391 0.00328597 0)
(-0.0108581 0.00328709 0)
(-0.0111767 0.00328695 0)
(-0.0114949 0.00328551 0)
(-0.0118122 0.00328276 0)
(-0.0121284 0.00327871 0)
(-0.0124431 0.00327343 0)
(-0.0127558 0.00326704 0)
(-0.013066 0.00325969 0)
(-0.013373 0.00325165 0)
(-0.0136762 0.00324324 0)
(-0.0139745 0.00323489 0)
(-0.0142669 0.00322716 0)
(-0.0145518 0.00322067 0)
(-0.0148275 0.00321616 0)
(-0.0150915 0.0032144 0)
(-0.015341 0.00321609 0)
(-0.0155721 0.00322169 0)
(-0.0157803 0.00323113 0)
(-0.01596 0.00324342 0)
(-0.016105 0.00325608 0)
(-0.0162087 0.00326459 0)
(-0.0162653 0.00326196 0)
(-0.0162709 0.0032388 0)
(-0.0162249 0.00318412 0)
(-2.65359e-05 0.00115916 0)
(-0.000182848 0.00238117 0)
(-0.000440486 0.0029602 0)
(-0.000712173 0.00320851 0)
(-0.00100242 0.00330611 0)
(-0.00129629 0.00334255 0)
(-0.00159173 0.0033571 0)
(-0.00188805 0.00336498 0)
(-0.00218498 0.00337139 0)
(-0.0024825 0.00337789 0)
(-0.00278065 0.00338488 0)
(-0.0030795 0.00339244 0)
(-0.00337909 0.00340055 0)
(-0.00367949 0.00340919 0)
(-0.00398073 0.00341832 0)
(-0.00428288 0.00342789 0)
(-0.00458597 0.00343786 0)
(-0.00489004 0.00344817 0)
(-0.00519513 0.00345877 0)
(-0.00550127 0.0034696 0)
(-0.00580848 0.0034806 0)
(-0.00611679 0.00349168 0)
(-0.0064262 0.00350278 0)
(-0.00673673 0.00351381 0)
(-0.00704836 0.00352469 0)
(-0.00736109 0.00353533 0)
(-0.0076749 0.00354563 0)
(-0.00798974 0.00355549 0)
(-0.00830559 0.0035648 0)
(-0.00862236 0.00357347 0)
(-0.00894001 0.00358137 0)
(-0.00925843 0.0035884 0)
(-0.00957753 0.00359444 0)
(-0.00989717 0.00359938 0)
(-0.0102172 0.00360311 0)
(-0.0105375 0.00360552 0)
(-0.0108577 0.0036065 0)
(-0.0111778 0.00360598 0)
(-0.0114974 0.00360388 0)
(-0.0118162 0.00360014 0)
(-0.0121339 0.00359473 0)
(-0.01245 0.00358764 0)
(-0.012764 0.00357892 0)
(-0.0130753 0.00356863 0)
(-0.0133833 0.0035569 0)
(-0.0136871 0.00354391 0)
(-0.0139857 0.0035299 0)
(-0.0142778 0.00351515 0)
(-0.0145621 0.00349998 0)
(-0.0148366 0.0034847 0)
(-0.015099 0.00346958 0)
(-0.0153467 0.00345472 0)
(-0.0155763 0.00343989 0)
(-0.0157838 0.00342434 0)
(-0.015965 0.0034065 0)
(-0.0161148 0.00338362 0)
(-0.0162288 0.00335154 0)
(-0.016303 0.00330443 0)
(-0.0163347 0.00323508 0)
(-0.016324 0.00313544 0)
(-2.6328e-05 0.0012619 0)
(-0.000181923 0.00259142 0)
(-0.000438643 0.0032211 0)
(-0.000709517 0.00349106 0)
(-0.000998982 0.00359717 0)
(-0.0012921 0.00363681 0)
(-0.00158681 0.00365266 0)
(-0.00188243 0.00366126 0)
(-0.00217868 0.00366828 0)
(-0.00247554 0.00367541 0)
(-0.00277306 0.00368308 0)
(-0.0030713 0.00369137 0)
(-0.00337032 0.00370027 0)
(-0.00367018 0.00370976 0)
(-0.00397094 0.00371978 0)
(-0.00427264 0.00373029 0)
(-0.00457534 0.00374125 0)
(-0.00487908 0.00375259 0)
(-0.00518389 0.00376426 0)
(-0.00548983 0.00377619 0)
(-0.0057969 0.0037883 0)
(-0.00610515 0.00380052 0)
(-0.00641459 0.00381277 0)
(-0.00672523 0.00382495 0)
(-0.00703707 0.00383698 0)
(-0.0073501 0.00384875 0)
(-0.00766431 0.00386016 0)
(-0.00797967 0.00387109 0)
(-0.00829614 0.00388142 0)
(-0.00861366 0.00389105 0)
(-0.00893217 0.00389983 0)
(-0.00925158 0.00390764 0)
(-0.00957178 0.00391434 0)
(-0.00989265 0.00391981 0)
(-0.010214 0.0039239 0)
(-0.0105358 0.00392647 0)
(-0.0108576 0.00392741 0)
(-0.0111794 0.00392658 0)
(-0.0115008 0.00392387 0)
(-0.0118214 0.00391917 0)
(-0.0121409 0.0039124 0)
(-0.0124589 0.00390347 0)
(-0.0127748 0.00389233 0)
(-0.013088 0.00387898 0)
(-0.0133978 0.00386339 0)
(-0.0137032 0.0038456 0)
(-0.0140033 0.00382564 0)
(-0.0142969 0.00380358 0)
(-0.0145823 0.00377943 0)
(-0.0148579 0.00375318 0)
(-0.0151215 0.00372468 0)
(-0.0153707 0.00369358 0)
(-0.0156026 0.00365921 0)
(-0.0158138 0.00362037 0)
(-0.0160008 0.00357522 0)
(-0.0161601 0.003521 0)
(-0.016288 0.00345395 0)
(-0.0163818 0.00336925 0)
(-0.0164399 0.00326122 0)
(-0.0164622 0.00312382 0)
(-2.61034e-05 0.00136406 0)
(-0.000180919 0.00280079 0)
(-0.000436638 0.0034811 0)
(-0.000706623 0.00377276 0)
(-0.000995227 0.00388744 0)
(-0.00128753 0.0039303 0)
(-0.00158144 0.00394746 0)
(-0.00187629 0.00395682 0)
(-0.00217178 0.00396447 0)
(-0.00246792 0.00397225 0)
(-0.00276474 0.00398062 0)
(-0.00306232 0.00398968 0)
(-0.00336071 0.00399941 0)
(-0.00365999 0.00400978 0)
(-0.0039602 0.00402075 0)
(-0.00426141 0.00403226 0)
(-0.00456367 0.00404426 0)
(-0.00486703 0.0040567 0)
(-0.00517154 0.0040695 0)
(-0.00547724 0.00408259 0)
(-0.00578416 0.0040959 0)
(-0.00609233 0.00410934 0)
(-0.00640178 0.00412282 0)
(-0.00671253 0.00413626 0)
(-0.00702458 0.00414953 0)
(-0.00733793 0.00416254 0)
(-0.00765257 0.00417516 0)
(-0.00796848 0.00418728 0)
(-0.00828563 0.00419876 0)
(-0.00860397 0.00420947 0)
(-0.00892343 0.00421926 0)
(-0.00924393 0.00422798 0)
(-0.00956537 0.00423548 0)
(-0.00988762 0.00424161 0)
(-0.0102105 0.00424619 0)
(-0.010534 0.00424907 0)
(-0.0108577 0.00425008 0)
(-0.0111814 0.00424906 0)
(-0.0115048 0.00424585 0)
(-0.0118277 0.00424028 0)
(-0.0121496 0.0042322 0)
(-0.01247 0.00422148 0)
(-0.0127885 0.00420797 0)
(-0.0131043 0.00419154 0)
(-0.0134167 0.00417207 0)
(-0.0137248 0.00414944 0)
(-0.0140277 0.00412351 0)
(-0.0143241 0.00409412 0)
(-0.0146125 0.00406106 0)
(-0.0148913 0.00402401 0)
(-0.0151586 0.00398254 0)
(-0.0154122 0.00393596 0)
(-0.0156495 0.00388329 0)
(-0.0158678 0.0038231 0)
(-0.0160643 0.0037534 0)
(-0.0162361 0.00367157 0)
(-0.0163806 0.00357424 0)
(-0.0164957 0.00345737 0)
(-0.0165802 0.0033164 0)
(-0.0166339 0.00314662 0)
(-2.58616e-05 0.00146558 0)
(-0.000179832 0.00300922 0)
(-0.000434464 0.00374013 0)
(-0.000703481 0.00405355 0)
(-0.000991147 0.00417683 0)
(-0.00128255 0.00422294 0)
(-0.0015756 0.00424145 0)
(-0.0018696 0.00425158 0)
(-0.00216427 0.00425988 0)
(-0.00245961 0.00426834 0)
(-0.00275567 0.00427745 0)
(-0.00305252 0.00428731 0)
(-0.00335022 0.00429792 0)
(-0.00364885 0.00430922 0)
(-0.00394846 0.00432118 0)
(-0.00424913 0.00433374 0)
(-0.00455091 0.00434685 0)
(-0.00485385 0.00436044 0)
(-0.005158 0.00437444 0)
(-0.00546343 0.00438878 0)
(-0.00577016 0.00440337 0)
(-0.00607823 0.00441812 0)
(-0.00638768 0.00443294 0)
(-0.00669853 0.00444772 0)
(-0.00701079 0.00446235 0)
(-0.00732447 0.00447672 0)
(-0.00763957 0.00449068 0)
(-0.00795607 0.00450412 0)
(-0.00827395 0.00451688 0)
(-0.00859317 0.00452881 0)
(-0.00891366 0.00453975 0)
(-0.00923535 0.00454954 0)
(-0.00955816 0.004558 0)
(-0.00988195 0.00456495 0)
(-0.0102066 0.00457019 0)
(-0.0105319 0.00457354 0)
(-0.0108577 0.00457479 0)
(-0.0111836 0.00457373 0)
(-0.0115096 0.00457017 0)
(-0.0118351 0.00456388 0)
(-0.0121597 0.00455466 0)
(-0.0124832 0.00454227 0)
(-0.0128048 0.00452651 0)
(-0.0131239 0.00450714 0)
(-0.0134399 0.00448393 0)
(-0.0137518 0.00445659 0)
(-0.0140587 0.00442486 0)
(-0.0143593 0.00438838 0)
(-0.0146524 0.00434673 0)
(-0.0149364 0.00429938 0)
(-0.0152096 0.00424565 0)
(-0.01547 0.00418463 0)
(-0.0157154 0.00411513 0)
(-0.0159437 0.00403558 0)
(-0.0161524 0.00394399 0)
(-0.0163392 0.00383787 0)
(-0.0165022 0.0037142 0)
(-0.0166397 0.00356953 0)
(-0.0167507 0.00340012 0)
(-0.0168349 0.00320217 0)
(-2.5602e-05 0.00156643 0)
(-0.000178659 0.00321663 0)
(-0.000432113 0.00399811 0)
(-0.000700081 0.00433333 0)
(-0.000986728 0.00446526 0)
(-0.00127716 0.00451466 0)
(-0.00156926 0.00453454 0)
(-0.00186234 0.00454546 0)
(-0.00215612 0.00455445 0)
(-0.00245059 0.00456362 0)
(-0.00274581 0.0045735 0)
(-0.00304186 0.00458421 0)
(-0.00333881 0.00459572 0)
(-0.00363672 0.004608 0)
(-0.00393568 0.00462101 0)
(-0.00423574 0.00463468 0)
(-0.00453698 0.00464896 0)
(-0.00483944 0.00466377 0)
(-0.00514321 0.00467905 0)
(-0.00544831 0.00469472 0)
(-0.00575482 0.00471067 0)
(-0.00606276 0.00472684 0)
(-0.00637218 0.00474309 0)
(-0.00668312 0.00475934 0)
(-0.00699558 0.00477545 0)
(-0.0073096 0.00479129 0)
(-0.00762517 0.00480674 0)
(-0.00794229 0.00482163 0)
(-0.00826095 0.00483582 0)
(-0.0085811 0.00484914 0)
(-0.0089027 0.00486141 0)
(-0.00922568 0.00487244 0)
(-0.00954997 0.00488204 0)
(-0.00987544 0.00488999 0)
(-0.010202 0.00489609 0)
(-0.0105294 0.0049001 0)
(-0.0108575 0.00490179 0)
(-0.011186 0.00490091 0)
(-0.0115147 0.00489721 0)
(-0.0118432 0.00489042 0)
(-0.0121712 0.00488026 0)
(-0.0124982 0.00486645 0)
(-0.0128236 0.00484867 0)
(-0.0131468 0.00482661 0)
(-0.0134672 0.0047999 0)
(-0.0137839 0.00476817 0)
(-0.0140959 0.00473099 0)
(-0.0144022 0.00468785 0)
(-0.0147015 0.00463817 0)
(-0.0149924 0.00458123 0)
(-0.0152734 0.00451618 0)
(-0.0155427 0.00444194 0)
(-0.0157986 0.00435719 0)
(-0.016039 0.0042603 0)
(-0.0162621 0.0041493 0)
(-0.0164659 0.00402183 0)
(-0.0166489 0.00387519 0)
(-0.0168098 0.00370637 0)
(-0.0169475 0.00351219 0)
(-0.0170619 0.00328946 0)
(-2.53243e-05 0.00166655 0)
(-0.000177398 0.00342292 0)
(-0.00042958 0.00425495 0)
(-0.000696414 0.00461203 0)
(-0.000981957 0.00475266 0)
(-0.00127133 0.00480539 0)
(-0.00156241 0.00482667 0)
(-0.00185449 0.00483841 0)
(-0.0021473 0.00484811 0)
(-0.00244082 0.00485801 0)
(-0.00273513 0.0048687 0)
(-0.00303031 0.00488029 0)
(-0.00332643 0.00489275 0)
(-0.00362356 0.00490607 0)
(-0.00392179 0.00492017 0)
(-0.00422118 0.00493502 0)
(-0.00452181 0.00495053 0)
(-0.00482375 0.00496664 0)
(-0.00512706 0.00498328 0)
(-0.00543181 0.00500036 0)
(-0.00573804 0.00501779 0)
(-0.00604581 0.00503546 0)
(-0.00635518 0.00505327 0)
(-0.00666618 0.00507109 0)
(-0.00697883 0.00508881 0)
(-0.00729318 0.00510627 0)
(-0.00760923 0.00512334 0)
(-0.00792699 0.00513986 0)
(-0.00824645 0.00515565 0)
(-0.00856758 0.00517053 0)
(-0.00889036 0.00518431 0)
(-0.00921473 0.00519677 0)
(-0.00954061 0.00520772 0)
(-0.0098679 0.0052169 0)
(-0.0101965 0.00522407 0)
(-0.0105262 0.00522899 0)
(-0.0108568 0.00523137 0)
(-0.0111882 0.00523092 0)
(-0.01152 0.00522735 0)
(-0.011852 0.00522034 0)
(-0.0121837 0.00520954 0)
(-0.0125148 0.00519459 0)
(-0.0128446 0.00517513 0)
(-0.0131727 0.00515072 0)
(-0.0134983 0.00512092 0)
(-0.0138207 0.00508524 0)
(-0.014139 0.00504311 0)
(-0.0144521 0.00499392 0)
(-0.014759 0.00493692 0)
(-0.0150584 0.00487128 0)
(-0.0153489 0.00479599 0)
(-0.015629 0.00470987 0)
(-0.0158971 0.00461152 0)
(-0.0161516 0.00449926 0)
(-0.0163908 0.00437118 0)
(-0.0166133 0.00422504 0)
(-0.0168176 0.00405838 0)
(-0.0170027 0.0038685 0)
(-0.0171676 0.00365263 0)
(-0.0173119 0.003408 0)
(-2.50282e-05 0.00176588 0)
(-0.000176046 0.00362802 0)
(-0.000426857 0.00451056 0)
(-0.000692468 0.00488956 0)
(-0.00097682 0.00503894 0)
(-0.00126505 0.00509503 0)
(-0.00155503 0.00511773 0)
(-0.00184602 0.00513032 0)
(-0.00213777 0.00514076 0)
(-0.00243027 0.00515144 0)
(-0.0027236 0.00516297 0)
(-0.00301782 0.00517548 0)
(-0.00331303 0.00518895 0)
(-0.00360931 0.00520334 0)
(-0.00390673 0.00521861 0)
(-0.00420539 0.00523468 0)
(-0.00450535 0.0052515 0)