/*--------------------------------*- C++ -*----------------------------------*\
  =========                 |
  \\      /  F ield         | OpenFOAM: The Open Source CFD Toolbox
   \\    /   O peration     | Website:  https://openfoam.org
    \\  /    A nd           | Version:  8
     \\/     M anipulation  |
\*---------------------------------------------------------------------------*/
FoamFile
{
    version     2.0;
    format      ascii;
    class       volVectorField;
    location    "0.14";
    object      U;
}
// * * * * * * * * * * * * * * * * * * * * * * * * * * * * * * * * * * * * * //

dimensions      [0 1 -1 0 0 0 0];

internalField   nonuniform List<vector> 
400
(
(0.00025321 -0.000248951 0)
(0.000141247 0.000111775 0)
(-0.00117378 0.000563408 0)
(-0.00347174 0.000882752 0)
(-0.00635989 0.00104293 0)
(-0.00944296 0.00105887 0)
(-0.0123679 0.000955228 0)
(-0.0148427 0.000758358 0)
(-0.0166421 0.000493319 0)
(-0.0176084 0.000184133 0)
(-0.0176525 -0.000144745 0)
(-0.0167586 -0.000466936 0)
(-0.0149893 -0.000753222 0)
(-0.0124919 -0.000971552 0)
(-0.00950197 -0.00108829 0)
(-0.00633942 -0.0010713 0)
(-0.00339293 -0.000896025 0)
(-0.00108449 -0.000555278 0)
(0.000195466 -9.04267e-05 0)
(0.000267064 0.000261582 0)
(-7.68853e-05 -0.000167823 0)
(-0.00160632 0.00164121 0)
(-0.00567604 0.00360752 0)
(-0.0116845 0.00502058 0)
(-0.0188368 0.00572663 0)
(-0.026323 0.00574339 0)
(-0.0333703 0.00515653 0)
(-0.0393103 0.00408064 0)
(-0.043615 0.00264022 0)
(-0.0459121 0.000964731 0)
(-0.0459953 -0.000809955 0)
(-0.0438351 -0.00253864 0)
(-0.0395889 -0.0040659 0)
(-0.0336092 -0.00522939 0)
(-0.0264415 -0.00586963 0)
(-0.0188048 -0.00584871 0)
(-0.011537 -0.00508143 0)
(-0.00549969 -0.00358063 0)
(-0.00148966 -0.00155576 0)
(-4.26023e-05 0.00022651 0)
(-0.000526904 0.00108905 0)
(-0.00370025 0.00572048 0)
(-0.0105579 0.0101953 0)
(-0.0199336 0.0133687 0)
(-0.0306754 0.0149023 0)
(-0.0417005 0.0147948 0)
(-0.0519681 0.0132164 0)
(-0.0605674 0.0104256 0)
(-0.0667752 0.00672308 0)
(-0.07008 0.00243351 0)
(-0.0701994 -0.00209779 0)
(-0.0670943 -0.00650342 0)
(-0.0609823 -0.010396 0)
(-0.052345 -0.0133802 0)
(-0.0419244 -0.0150792 0)
(-0.0306932 -0.0151829 0)
(-0.0197781 -0.0135195 0)
(-0.0103374 -0.0101528 0)
(-0.00353968 -0.00553751 0)
(-0.000475689 -0.00094684 0)
(-0.000925456 0.00346995 0)
(-0.00567538 0.0121861 0)
(-0.0152595 0.0198649 0)
(-0.0278403 0.0251251 0)
(-0.0418706 0.0275167 0)
(-0.0560254 0.0270581 0)
(-0.0690627 0.0240385 0)
(-0.0799068 0.0188993 0)
(-0.0877088 0.0121621 0)
(-0.0918697 0.00439585 0)
(-0.0920561 -0.00379204 0)
(-0.0882162 -0.011757 0)
(-0.0805944 -0.0188227 0)
(-0.0697439 -0.0243029 0)
(-0.0565269 -0.0275478 0)
(-0.0420908 -0.0280237 0)
(-0.027789 -0.0254297 0)
(-0.0150574 -0.0198407 0)
(-0.00549179 -0.0118981 0)
(-0.000859491 -0.00321711 0)
(-0.0012755 0.00685846 0)
(-0.0075169 0.0208959 0)
(-0.0197558 0.0324205 0)
(-0.0354479 0.0399915 0)
(-0.0526148 0.0431686 0)
(-0.0696882 0.0420737 0)
(-0.0852549 0.0371725 0)
(-0.0981208 0.029132 0)
(-0.107358 0.0187277 0)
(-0.112317 0.00680033 0)
(-0.112628 -0.00575644 0)
(-0.108219 -0.0179957 0)
(-0.0993313 -0.0289228 0)
(-0.0865416 -0.0375231 0)
(-0.0707772 -0.0428251 0)
(-0.053313 -0.0440107 0)
(-0.0357072 -0.0405741 0)
(-0.0196928 -0.0325117 0)
(-0.00735463 -0.0205409 0)
(-0.00120099 -0.00648262 0)
(-0.0016039 0.0111857 0)
(-0.00929816 0.0317915 0)
(-0.024159 0.0478267 0)
(-0.0429142 0.0579192 0)
(-0.0631272 0.0617726 0)
(-0.0829821 0.0597211 0)
(-0.100916 0.0524878 0)
(-0.115654 0.0410178 0)
(-0.126228 0.0263713 0)
(-0.131967 0.0096752 0)
(-0.132481 -0.00788434 0)
(-0.127668 -0.0250534 0)
(-0.117735 -0.0405068 0)
(-0.103235 -0.0528727 0)
(-0.0851083 -0.0608051 0)
(-0.0647157 -0.06312 0)
(-0.0438056 -0.0589985 0)
(-0.0244334 -0.0482314 0)
(-0.00923743 -0.0314857 0)
(-0.00153485 -0.0107042 0)
(-0.00193669 0.0164368 0)
(-0.0111029 0.0448665 0)
(-0.0286043 0.0660742 0)
(-0.0503992 0.0788674 0)
(-0.073567 0.0832411 0)
(-0.0960489 0.0798755 0)
(-0.116163 0.0698506 0)
(-0.132599 0.0544514 0)
(-0.144396 0.0350505 0)
(-0.150897 0.0130627 0)
(-0.151706 -0.0100473 0)
(-0.146683 -0.0327358 0)
(-0.13597 -0.053354 0)
(-0.12004 -0.0701556 0)
(-0.0997842 -0.0813652 0)
(-0.0765899 -0.0853326 0)
(-0.0523652 -0.0807826 0)
(-0.029503 -0.0671325 0)
(-0.0112675 -0.0448456 0)
(-0.0018973 -0.0159184 0)
(-0.00229735 0.0226456 0)
(-0.0130105 0.0601719 0)
(-0.0332142 0.0871753 0)
(-0.0580156 0.102771 0)
(-0.0839807 0.107425 0)
(-0.10883 0.10233 0)
(-0.130817 0.0890418 0)
(-0.148662 0.0692555 0)
(-0.161478 0.0446768 0)
(-0.168671 0.0169937 0)
(-0.169866 -0.0120889 0)
(-0.164883 -0.0407818 0)
(-0.153757 -0.0671459 0)
(-0.13682 -0.0890628 0)
(-0.11482 -0.104279 0)
(-0.0890826 -0.110562 0)
(-0.0616075 -0.105998 0)
(-0.0351128 -0.0894069 0)
(-0.0135721 -0.0608358 0)
(-0.00232394 -0.0222364 0)
(-0.00270998 0.0298911 0)
(-0.0150989 0.0778121 0)
(-0.0380918 0.111146 0)
(-0.0658079 0.1295 0)
(-0.0942671 0.134052 0)
(-0.12102 0.126718 0)
(-0.144346 0.109678 0)
(-0.163101 0.0851096 0)
(-0.176563 0.0550615 0)
(-0.184276 0.0214567 0)
(-0.185926 -0.0138271 0)
(-0.181294 -0.0488352 0)
(-0.170277 -0.0814089 0)
(-0.152977 -0.109092 0)
(-0.129884 -0.129123 0)
(-0.102119 -0.138567 0)
(-0.0716437 -0.134648 0)
(-0.0414408 -0.115275 0)
(-0.0162778 -0.0797659 0)
(-0.00285288 -0.029842 0)
(-0.00320726 0.0383005 0)
(-0.0174639 0.0979372 0)
(-0.0433348 0.137969 0)
(-0.0737449 0.158783 0)
(-0.104142 0.162621 0)
(-0.132006 0.152403 0)
(-0.155792 0.131105 0)
(-0.174638 0.101458 0)
(-0.188121 0.0658447 0)
(-0.196017 0.0263556 0)
(-0.198133 -0.0150648 0)
(-0.19423 -0.0564199 0)
(-0.18403 -0.0954497 0)
(-0.167319 -0.129446 0)
(-0.144174 -0.155152 0)
(-0.115305 -0.168821 0)
(-0.0824218 -0.166548 0)
(-0.0486218 -0.144915 0)
(-0.0195229 -0.10202 0)
(-0.00353249 -0.0389953 0)
(-0.00384494 0.0480702 0)
(-0.0202511 0.120742 0)
(-0.0490583 0.167532 0)
(-0.0817054 0.190103 0)
(-0.113079 0.192277 0)
(-0.140777 0.178343 0)
(-0.163656 0.152273 0)
(-0.181345 0.117407 0)
(-0.193883 0.0764188 0)
(-0.201395 0.0314573 0)
(-0.203888 -0.0156138 0)
(-0.201136 -0.0629272 0)
(-0.192669 -0.1083 0)
(-0.177871 -0.148928 0)
(-0.156232 -0.181143 0)
(-0.127783 -0.200328 0)
(-0.0936445 -0.201166 0)
(-0.056732 -0.17836 0)
(-0.023479 -0.128029 0)
(-0.00443527 -0.0500507 0)
(-0.00472765 0.0595172 0)
(-0.0237065 0.146476 0)
(-0.0554115 0.199549 0)
(-0.0894243 0.222541 0)
(-0.120189 0.221624 0)
(-0.14576 0.202927 0)
(-0.16573 0.171609 0)
(-0.180481 0.13163 0)
(-0.190697 0.0858551 0)
(-0.19698 0.0363373 0)
(-0.199615 -0.0153309 0)
(-0.198441 -0.067628 0)
(-0.192809 -0.118686 0)
(-0.18165 -0.165847 0)
(-0.163703 -0.205227 0)
(-0.138007 -0.231393 0)
(-0.104621 -0.237374 0)
(-0.0657461 -0.215317 0)
(-0.0283819 -0.158227 0)
(-0.00568266 -0.0634992 0)
(-0.00605491 0.0731823 0)
(-0.0282432 0.17544 0)
(-0.0625509 0.233387 0)
(-0.0963286 0.254522 0)
(-0.123958 0.248488 0)
(-0.144528 0.223787 0)
(-0.158824 0.186893 0)
(-0.16828 0.142293 0)
(-0.174386 0.09286 0)
(-0.178308 0.0403393 0)
(-0.180671 -0.014166 0)
(-0.18144 -0.0697195 0)
(-0.179852 -0.125049 0)
(-0.174402 -0.177971 0)
(-0.162999 -0.224735 0)
(-0.143392 -0.259342 0)
(-0.113986 -0.273098 0)
(-0.0754186 -0.254874 0)
(-0.0345654 -0.192959 0)
(-0.00748768 -0.0800546 0)
(-0.008196 0.0900107 0)
(-0.0345035 0.20792 0)
(-0.0704631 0.267731 0)
(-0.10111 0.283416 0)
(-0.121699 0.269601 0)
(-0.133269 0.237632 0)
(-0.138356 0.195216 0)
(-0.139681 0.147083 0)
(-0.139604 0.0958108 0)
(-0.139839 0.0425812 0)
(-0.141351 -0.0122084 0)
(-0.144284 -0.0684222 0)
(-0.147876 -0.125656 0)
(-0.150347 -0.182591 0)
(-0.148862 -0.23612 0)
(-0.139748 -0.280234 0)
(-0.119163 -0.304824 0)
(-0.0849726 -0.29499 0)
(-0.0424539 -0.232261 0)
(-0.0102182 -0.100793 0)
(-0.0117715 0.111611 0)
(-0.0432811 0.243888 0)
(-0.0783504 0.299917 0)
(-0.10072 0.304942 0)
(-0.108485 0.280291 0)
(-0.105906 0.240211 0)
(-0.0977412 0.193125 0)
(-0.0880134 0.143423 0)
(-0.0797653 0.0929522 0)
(-0.0750607 0.0420605 0)
(-0.0750777 -0.00971163 0)
(-0.0801531 -0.0631446 0)
(-0.0897017 -0.118881 0)
(-0.101994 -0.176814 0)
(-0.113853 -0.23512 0)
(-0.120429 -0.28871 0)
(-0.115345 -0.327032 0)
(-0.0923112 -0.331657 0)
(-0.0523323 -0.275309 0)
(-0.0144331 -0.127311 0)
(-0.0175526 0.140646 0)
(-0.0547835 0.282098 0)
(-0.0828348 0.324637 0)
(-0.0881667 0.312364 0)
(-0.0752364 0.274329 0)
(-0.0527612 0.22664 0)
(-0.0276682 0.177169 0)
(-0.0047577 0.129038 0)
(0.0128312 0.0828472 0)
(0.0231588 0.0379188 0)
(0.0251162 -0.00706238 0)
(0.0182363 -0.0537101 0)
(0.00273149 -0.103671 0)
(-0.0202126 -0.158214 0)
(-0.0478616 -0.21738 0)
(-0.0751166 -0.278233 0)
(-0.0936348 -0.33167 0)
(-0.0921123 -0.35758 0)
(-0.0632989 -0.319223 0)
(-0.0206368 -0.161947 0)
(-0.0254519 0.181707 0)
(-0.0657885 0.317746 0)
(-0.0733711 0.331312 0)
(-0.0481477 0.29533 0)
(-0.00568693 0.244127 0)
(0.0410698 0.192292 0)
(0.0844659 0.144965 0)
(0.120316 0.102904 0)
(0.146457 0.0650923 0)
(0.161787 0.0298715 0)
(0.165679 -0.0046647 0)
(0.157683 -0.0405964 0)
(0.137499 -0.0801929 0)
(0.105237 -0.125848 0)
(0.062096 -0.179646 0)
(0.0116802 -0.241937 0)
(-0.0379144 -0.307798 0)
(-0.0717264 -0.360076 0)
(-0.0700735 -0.356562 0)
(-0.0279154 -0.208358 0)
(-0.0296496 0.239177 0)
(-0.0608485 0.335758 0)
(-0.0219663 0.300478 0)
(0.0504931 0.240089 0)
(0.127492 0.182902 0)
(0.196894 0.135339 0)
(0.254189 0.097352 0)
(0.298073 0.0668127 0)
(0.328625 0.0413295 0)
(0.346254 0.0187675 0)
(0.35116 -0.00279002 0)
(0.343094 -0.0252469 0)
(0.321277 -0.0507577 0)
(0.284476 -0.0820094 0)
(0.231435 -0.122402 0)
(0.162078 -0.175624 0)
(0.0798309 -0.243389 0)
(-0.00322868 -0.319101 0)
(-0.0546843 -0.368589 0)
(-0.0284619 -0.26761 0)
(0.00808392 0.281864 0)
(0.0197822 0.294971 0)
(0.139057 0.210965 0)
(0.264435 0.143463 0)
(0.364321 0.0971677 0)
(0.440293 0.0657577 0)
(0.496647 0.044219 0)
(0.536757 0.0288711 0)
(0.563313 0.0171892 0)
(0.578163 0.00748106 0)
(0.582235 -0.00149185 0)
(0.575556 -0.0108376 0)
(0.557181 -0.0218351 0)
(0.525025 -0.0363199 0)
(0.475688 -0.057243 0)
(0.404471 -0.0893674 0)
(0.305132 -0.139726 0)
(0.173393 -0.216374 0)
(0.0411635 -0.311647 0)
(0.0184291 -0.299994 0)
(0.299605 0.146092 0)
(0.396274 0.127504 0)
(0.55742 0.0760888 0)
(0.674482 0.0437211 0)
(0.743875 0.0255689 0)
(0.787129 0.0152387 0)
(0.815451 0.00920912 0)
(0.833912 0.00550693 0)
(0.845335 0.00302572 0)
(0.851318 0.00114901 0)
(0.852612 -0.000498638 0)
(0.849331 -0.00221341 0)
(0.840954 -0.00433624 0)
(0.826102 -0.00742136 0)
(0.802048 -0.0125294 0)
(0.763599 -0.0217701 0)
(0.699095 -0.0392805 0)
(0.583946 -0.0726583 0)
(0.415826 -0.127867 0)
(0.30882 -0.149468 0)
)
;

boundaryField
{
    movingWall
    {
        type            fixedValue;
        value           uniform (1 0 0);
    }
    fixedWalls
    {
        type            noSlip;
    }
    frontAndBack
    {
        type            empty;
    }
}


// ************************************************************************* //
