/*--------------------------------*- C++ -*----------------------------------*\
  =========                 |
  \\      /  F ield         | OpenFOAM: The Open Source CFD Toolbox
   \\    /   O peration     | Website:  https://openfoam.org
    \\  /    A nd           | Version:  8
     \\/     M anipulation  |
\*---------------------------------------------------------------------------*/
FoamFile
{
    version     2.0;
    format      ascii;
    class       volScalarField;
    location    "49";
    object      p;
}
// * * * * * * * * * * * * * * * * * * * * * * * * * * * * * * * * * * * * * //

dimensions      [0 2 -2 0 0 0 0];

internalField   nonuniform List<scalar> 
2844
(
-0.0150824
-0.0317477
-0.0523622
-0.0737102
-0.0954364
-0.105393
-0.105132
-0.097661
-0.0858906
-0.0721805
-0.0585198
-0.0421876
-0.0295454
-0.0192704
-0.0151226
-0.0129387
-0.014078
-0.00531957
0.00103932
0.00113809
-0.00708329
-0.0243773
-0.0496621
-0.0735453
-0.0985101
-0.105489
-0.105671
-0.0982281
-0.0858943
-0.0720467
-0.0588902
-0.0438091
-0.0304586
-0.0205795
-0.0141623
-0.00830987
-0.00771352
0.00451102
0.00713375
0.00114269
0.0097012
-0.0219626
-0.0572659
-0.0957375
-0.121935
-0.126705
-0.122418
-0.107973
-0.0953413
-0.0823909
-0.0659241
-0.0444046
-0.0330193
-0.0180575
-0.0126553
-0.0403436
-0.0471357
-0.0259853
-0.00237613
-0.000280298
0.039384
0.0100664
-0.0496968
-0.103058
-0.138674
-0.132227
-0.125844
-0.109501
-0.0959067
-0.082192
-0.0722232
-0.0548705
-0.0428237
-0.0452469
-0.0474014
-0.0977805
-0.0867746
-0.0484807
-0.0234147
-0.00927921
0.0909001
0.0221384
-0.0679155
-0.189892
-0.205328
-0.173401
-0.164454
-0.115391
-0.12703
-0.124212
-0.0857365
-0.0546145
-0.0469434
-0.0488173
-0.074655
-0.158028
-0.161238
-0.140807
-0.0571838
-0.0135572
0.163476
0.104639
-0.0563904
-0.244809
-0.262533
-0.207589
-0.202166
-0.0919663
-0.132915
-0.150323
-0.0926888
-0.0702742
-0.0817486
-0.0798056
-0.094953
-0.106185
-0.11478
-0.142821
-0.0545655
0.0140446
0.305892
0.182933
-0.113054
-0.438809
-0.531034
-0.334733
-0.295298
-0.0712957
-0.212174
-0.238409
-0.0885737
-0.072006
-0.0864564
-0.0672748
-0.097788
-0.142596
-0.156635
-0.20256
-0.113823
0.00874624
0.469837
0.41321
-0.051843
-0.856078
-0.856939
-0.372395
-0.471209
0.153723
-0.315981
-0.442395
-0.0842305
-0.144314
-0.102525
-0.06043
-0.0852497
-0.177119
-0.173311
-0.151082
-0.0930163
0.005252
0.71905
0.466242
0.318515
-0.387738
0.119935
-0.518407
-0.475829
-0.107669
-0.197006
-0.0602319
-0.0693464
-0.0473015
-0.0158566
-0.0200738
-0.0330109
-0.0583903
-0.0232048
1.24484
0.817066
1.36204
-0.37829
-0.14373
-0.503407
-0.454196
-0.0848086
-0.066616
-0.0159192
-0.0665711
-0.0195889
0.0584169
-0.00581986
-0.0352406
-0.00630736
0.0106593
1.1189
0.927668
-0.371845
-0.471205
-0.475517
-0.221455
-0.119881
0.0448603
0.00202469
-0.0209026
-0.00411578
0.0098539
-0.0167005
-0.0154556
-0.0278262
-0.0101059
0.678239
0.481311
1.04814
-0.512877
-0.739228
-0.228238
-0.0561655
-0.114863
0.113882
0.0350102
0.0123864
0.0730796
0.0035051
-0.0210636
0.00126634
-0.00265201
-0.0113163
0.359569
0.587043
-0.388071
-0.477993
-0.534401
-0.729485
-0.35728
-0.0770811
-0.0818392
0.114605
0.175906
0.129937
0.169083
0.0557482
0.0012112
0.00836487
0.0215722
0.0176473
0.178745
0.077364
-0.382555
-0.703299
-0.788239
-0.386592
-0.376751
-0.408376
-0.208332
-0.116926
-0.0777229
-0.0101011
0.00824651
0.0358502
0.105778
0.0480914
0.025919
0.0791738
0.00309013
-0.0392832
0.0731588
0.0304907
-0.205999
-0.351205
-0.338996
-0.32503
-0.275019
-0.314121
-0.225466
-0.123226
-0.0731157
-0.0139298
0.0720162
0.0922575
0.0947841
0.0860521
0.0783203
0.0749016
-0.0061303
-0.0509165
-0.00984262
-0.0787877
-0.176919
-0.266466
-0.295445
-0.267998
-0.231045
-0.21801
-0.148656
-0.107044
-0.0622335
-0.0294811
0.0110947
0.0304373
0.0522327
0.0674543
0.0737416
0.0985277
0.0183647
-0.0407765
-0.0512877
-0.0803958
-0.139329
-0.188038
-0.211904
-0.219337
-0.200189
-0.196139
-0.156292
-0.110696
-0.0694879
-0.0293582
0.0164934
0.0430559
0.0593424
0.0801835
0.0746831
0.0773692
0.0512236
0.00741586
-0.0807749
-0.109508
-0.141062
-0.177543
-0.204554
-0.20627
-0.186767
-0.169068
-0.132192
-0.0978204
-0.0627781
-0.0333722
-0.00289473
0.0196648
0.0354864
0.0590993
0.0616218
0.0677159
0.0574427
0.018878
-0.0972911
-0.112574
-0.136887
-0.158436
-0.176569
-0.183628
-0.171702
-0.157719
-0.131249
-0.0992252
-0.0666541
-0.034389
-0.00291427
0.0231155
0.0397394
0.0535861
0.056874
0.0566339
0.0440722
0.0181127
-0.104126
-0.118377
-0.137432
-0.156753
-0.175231
-0.180059
-0.168888
-0.151742
-0.125174
-0.095442
-0.0641694
-0.0351605
-0.00745257
0.015655
0.0323763
0.0479822
0.053146
0.052081
0.0399231
0.017609
-0.0150787
-0.0317586
-0.0523838
-0.0737234
-0.0954462
-0.105393
-0.105125
-0.0976548
-0.0858951
-0.0721831
-0.0585415
-0.0421643
-0.0295285
-0.0195303
-0.0155623
-0.0146764
-0.0150663
-0.00679706
0.000343723
0.00104852
-0.00707043
-0.02438
-0.049757
-0.0735781
-0.0985569
-0.105531
-0.105681
-0.0982199
-0.0858621
-0.07209
-0.0589133
-0.0437564
-0.0307596
-0.0212794
-0.0143643
-0.0115807
-0.00994611
0.00221678
0.00485022
0.000865624
0.00970128
-0.0219819
-0.0573763
-0.0959205
-0.122116
-0.126586
-0.122336
-0.107812
-0.0956119
-0.0825983
-0.0661455
-0.0443682
-0.033456
-0.0191316
-0.0177448
-0.04903
-0.0538891
-0.0315804
-0.00570232
-0.000863074
0.0395185
0.00995696
-0.0501012
-0.102485
-0.139175
-0.13192
-0.126509
-0.109365
-0.0958488
-0.0831003
-0.0726706
-0.0550915
-0.0455328
-0.0457927
-0.0472069
-0.0993693
-0.0889187
-0.049411
-0.0246053
-0.00846817
0.090796
0.0217719
-0.0673758
-0.19325
-0.210826
-0.173997
-0.167413
-0.115193
-0.12843
-0.125063
-0.0844909
-0.0550614
-0.0490309
-0.0442912
-0.0707439
-0.158845
-0.162213
-0.13966
-0.0541848
-0.0117016
0.163405
0.10223
-0.0584221
-0.220714
-0.273326
-0.211002
-0.202074
-0.0924707
-0.135097
-0.149534
-0.0921207
-0.0703471
-0.0820171
-0.0820802
-0.0976709
-0.119373
-0.1274
-0.154067
-0.0552355
0.0139683
0.303861
0.177716
-0.116648
-0.438166
-0.550466
-0.327322
-0.280672
-0.0701061
-0.20789
-0.234312
-0.084324
-0.0750301
-0.0915765
-0.0742275
-0.104825
-0.146485
-0.15301
-0.215468
-0.119588
0.0120578
0.452526
0.384973
-0.0895385
-0.883051
-0.850067
-0.421793
-0.458419
0.120674
-0.325673
-0.446053
-0.0902286
-0.149972
-0.106399
-0.0627803
-0.0952442
-0.186369
-0.175326
-0.149057
-0.0929142
0.00425284
0.69695
0.493555
0.294865
-0.403148
0.102364
-0.534242
-0.514525
-0.119407
-0.177941
-0.0627096
-0.0697886
-0.0509741
-0.0269652
-0.0213397
-0.028941
-0.0554885
-0.0299989
1.22531
0.749425
1.44223
-0.380927
-0.152212
-0.503801
-0.469437
-0.0717169
-0.0631776
-0.0296704
-0.0685873
-0.0242049
0.0512247
-0.00838483
-0.0390515
-0.00969552
0.00637237
1.07045
0.920078
-0.37005
-0.491772
-0.496146
-0.204439
-0.115748
0.0313983
0.00330897
-0.0291798
-0.0206508
-0.00516931
-0.0262264
-0.0152559
-0.0247088
-0.00590434
0.68058
0.531344
0.904082
-0.500585
-0.732846
-0.218104
-0.0855006
-0.124901
0.113262
0.0384784
0.00533416
0.0661114
0.00237452
-0.0242994
0.00149482
-0.0095248
-0.0153823
0.340466
0.56162
-0.398034
-0.493273
-0.533027
-0.756944
-0.356406
-0.070358
-0.0947033
0.110521
0.191303
0.133628
0.159253
0.0449861
0.000521352
0.00735914
0.0169975
0.00965873
0.177004
0.105171
-0.422561
-0.726348
-0.827124
-0.40023
-0.380934
-0.422032
-0.214689
-0.119156
-0.0838803
-0.0205754
0.00355323
0.0402134
0.103428
0.0459788
0.0289439
0.0772208
0.0046012
-0.038491
0.0728874
0.0323566
-0.208628
-0.344706
-0.34477
-0.328997
-0.285955
-0.327627
-0.229408
-0.123037
-0.0722453
-0.0114351
0.0739607
0.0878688
0.093928
0.0915259
0.0775977
0.0690683
-0.0093889
-0.0490891
-0.00972947
-0.0757938
-0.179315
-0.267102
-0.297116
-0.270737
-0.234287
-0.218086
-0.148395
-0.106807
-0.0631805
-0.0303383
0.00883021
0.0301996
0.0551492
0.0702467
0.0711067
0.0935219
0.0147096
-0.038985
-0.0512608
-0.0804105
-0.14004
-0.188544
-0.213211
-0.221213
-0.201229
-0.196986
-0.156768
-0.110586
-0.0692295
-0.0300643
0.0163454
0.0435192
0.0573724
0.0776763
0.0739695
0.0767187
0.0515633
0.00815152
-0.0807528
-0.10944
-0.141415
-0.178136
-0.205216
-0.206551
-0.186841
-0.169038
-0.131952
-0.0978396
-0.0627143
-0.0334162
-0.00290466
0.0194321
0.0349286
0.0594822
0.062036
0.0691574
0.0584068
0.0198575
-0.097305
-0.112605
-0.136925
-0.158586
-0.176643
-0.183702
-0.171765
-0.157768
-0.131262
-0.0992282
-0.0666417
-0.0344019
-0.00290674
0.0231885
0.0397716
0.0534787
0.0568642
0.0570034
0.043199
0.0183439
-0.104125
-0.118359
-0.13747
-0.156817
-0.17527
-0.180079
-0.16889
-0.151734
-0.125164
-0.0954475
-0.0641667
-0.0351579
-0.00744756
0.0156528
0.0323546
0.0480105
0.053108
0.0522248
0.0400477
0.0178695
-0.0150752
-0.0317701
-0.0523952
-0.0736929
-0.0954384
-0.105391
-0.105121
-0.0976503
-0.0858901
-0.0721812
-0.0585471
-0.0421661
-0.0295219
-0.0196287
-0.0157022
-0.0148567
-0.0150669
-0.00712111
0.000162574
0.0010364
-0.00705126
-0.0243815
-0.0497881
-0.0735357
-0.0985216
-0.105691
-0.105667
-0.0981889
-0.0858709
-0.0720732
-0.0589226
-0.0436917
-0.030757
-0.0216198
-0.0139509
-0.0120614
-0.00974502
0.00262043
0.00435417
0.000880872
0.00970064
-0.0220599
-0.0572807
-0.0955997
-0.12201
-0.126393
-0.122179
-0.107743
-0.095443
-0.0826105
-0.0662754
-0.0443556
-0.0338513
-0.0195074
-0.0183787
-0.0434105
-0.0488886
-0.0307341
-0.00635177
-0.000967025
0.0397652
0.00966323
-0.0500061
-0.10202
-0.139323
-0.131111
-0.126565
-0.108473
-0.0959971
-0.0832878
-0.0721952
-0.0544317
-0.0454394
-0.0459766
-0.0466273
-0.0928342
-0.0819584
-0.0477487
-0.0222127
-0.00687262
0.0904499
0.0214253
-0.0665333
-0.191108
-0.209362
-0.172223
-0.166047
-0.114077
-0.124023
-0.122944
-0.0846921
-0.0543568
-0.0489903
-0.0449486
-0.0672125
-0.153829
-0.160032
-0.138073
-0.05284
-0.00883858
0.163215
0.100453
-0.061439
-0.217954
-0.308958
-0.217027
-0.200634
-0.0884973
-0.13084
-0.143679
-0.0879346
-0.0705658
-0.0810465
-0.0801172
-0.0920391
-0.112378
-0.119109
-0.153892
-0.0547772
0.0135381
0.305659
0.161758
-0.0963434
-0.420926
-0.510393
-0.31614
-0.27579
-0.0673227
-0.208953
-0.234656
-0.0838766
-0.0682376
-0.0904069
-0.0659232
-0.0881247
-0.144276
-0.147819
-0.209851
-0.114635
0.0129659
0.452487
0.347752
-0.0776331
-0.866501
-0.839971
-0.530517
-0.427081
0.103841
-0.32087
-0.42996
-0.0795388
-0.147093
-0.119796
-0.0642352
-0.080979
-0.16448
-0.174329
-0.147499
-0.0864696
0.00460234
0.753898
0.51834
0.193788
-0.396476
0.0952166
-0.52246
-0.532526
-0.115733
-0.172864
-0.0621721
-0.0617191
-0.0523887
-0.0224629
-0.0222778
-0.0284901
-0.051558
-0.025709
1.25258
0.865597
1.5803
-0.375462
-0.154019
-0.508518
-0.443049
-0.0428079
-0.0554417
-0.0262143
-0.0631246
-0.0222828
0.0478867
-0.00788433
-0.0330437
-0.00331254
0.00667413
1.09158
0.940035
-0.36987
-0.50632
-0.494059
-0.177192
-0.110159
0.0384831
0.0167927
-0.0266507
-0.0212121
0.000965941
-0.025427
-0.0124337
-0.0214916
-0.00440899
0.656839
0.538311
0.737289
-0.491252
-0.719313
-0.212355
-0.0679742
-0.117477
0.11205
0.0469316
0.0118327
0.0657385
0.00445265
-0.0263786
0.000285143
-0.0104197
-0.0111739
0.338757
0.553956
-0.339755
-0.504293
-0.505138
-0.724643
-0.382879
-0.0726233
-0.093109
0.10643
0.191446
0.154482
0.160998
0.0477925
0.00103287
0.0116949
0.0168975
0.0106766
0.177307
0.104401
-0.375606
-0.676653
-0.866302
-0.387175
-0.383982
-0.404437
-0.210765
-0.111804
-0.079167
-0.0170219
0.00886049
0.0493523
0.10554
0.0511259
0.0308104
0.0773312
0.0107068
-0.0370902
0.0730355
0.0327858
-0.189792
-0.342105
-0.36514
-0.332635
-0.28333
-0.319377
-0.230432
-0.123031
-0.0685204
-0.00687144
0.0797105
0.0892785
0.0967695
0.0967346
0.0815585
0.0705262
-0.00420789
-0.0447805
-0.00965099
-0.0744905
-0.177558
-0.269358
-0.299509
-0.271589
-0.234894
-0.218365
-0.147278
-0.105184
-0.060868
-0.0291719
0.0107097
0.0290542
0.0551358
0.0729738
0.0782701
0.0909135
0.0152138
-0.0343025
-0.0512036
-0.0802908
-0.140067
-0.18883
-0.213996
-0.22241
-0.201191
-0.196328
-0.155748
-0.110547
-0.0694221
-0.0306681
0.0163715
0.044847
0.0574204
0.0766359
0.074383
0.0764244
0.0534583
0.00980309
-0.0807252
-0.109361
-0.141547
-0.178435
-0.205675
-0.206577
-0.186785
-0.169018
-0.131852
-0.0978534
-0.0626033
-0.033436
-0.00246946
0.0192131
0.0346431
0.0597693
0.0625474
0.070597
0.0599579
0.021263
-0.097323
-0.112625
-0.136911
-0.158671
-0.176685
-0.183736
-0.171808
-0.157747
-0.131228
-0.099232
-0.0666424
-0.0344017
-0.002926
0.0232476
0.0398006
0.0534352
0.0570672
0.0573419
0.0430241
0.0188786
-0.104123
-0.11834
-0.137497
-0.15686
-0.175296
-0.180097
-0.168892
-0.151729
-0.12516
-0.0954503
-0.0641736
-0.035156
-0.00743656
0.01565
0.0323444
0.0480119
0.0531213
0.0523727
0.0402629
0.0182274
-0.387844
-0.0438983
-0.945391
-0.0799902
-0.420043
-0.0575631
-0.957186
-0.976347
-0.876008
-0.982512
-0.428319
-0.85212
-0.457829
-0.375123
-0.340821
-0.55909
-0.386642
-0.376864
-0.357471
-0.567957
0.632115
0.57582
1.07211
0.460613
0.599037
0.619273
1.08764
0.949737
0.31359
0.896173
-0.441855
-0.395742
-0.442263
-0.397436
-0.299385
-0.373519
-0.368745
-0.39434
-0.309159
-0.379089
-0.372108
1.29541
0.902912
1.55163
0.74859
1.28357
0.883682
1.62977
1.36885
-0.392992
-0.393602
-0.352565
-0.363805
-0.405472
-0.379459
-0.357581
-0.363313
-0.406369
1.1278
1.10774
1.10515
0.897234
1.10346
1.1009
1.08946
1.21977
1.22777
-0.478995
-0.476254
-0.46898
-0.456573
-0.518338
-0.369747
-0.468529
-0.457002
-0.519565
0.961325
0.70096
0.383569
0.462395
0.950633
0.663456
0.313966
-0.0170109
0.964146
0.0847752
-0.572646
-0.580486
-0.571209
-0.586668
-0.615049
-0.530219
-0.526133
-0.507323
-0.619349
-0.535812
-0.530689
-1.34118
-0.268984
-0.567893
-0.420442
-1.35385
-0.28975
-0.597035
-1.10068
-1.15508
-1.11335
-1.15341
-0.978968
-0.601523
-0.985424
-0.603302
-0.62073
-0.458709
-0.550116
-0.488493
-0.615948
-0.466043
-0.547733
-0.460862
-0.0412879
-0.989498
-0.0826668
-0.479777
-0.0477319
-1.06883
-0.986048
-0.87527
-0.988756
-0.47178
-0.845053
-0.492636
-0.379331
-0.368031
-0.560724
-0.472726
-0.372919
-0.411944
-0.533232
0.549804
0.669683
1.13425
0.501917
0.53733
0.725351
1.17307
0.901162
0.228651
0.93005
-0.44127
-0.398311
-0.441123
-0.399452
-0.32793
-0.379251
-0.384239
-0.40593
-0.342694
-0.374328
-0.39818
1.32886
0.843321
1.64029
0.914683
1.46586
0.827207
1.4453
1.55335
-0.393753
-0.391313
-0.370194
-0.363716
-0.412185
-0.378215
-0.370753
-0.364542
-0.412431
1.10059
1.1474
1.11601
0.939258
1.13845
1.11869
1.14607
1.26219
1.3196
-0.474985
-0.469136
-0.470077
-0.457406
-0.521468
-0.36924
-0.464606
-0.456247
-0.517225
0.973492
0.612846
0.448863
0.545294
0.971532
0.607481
0.424718
0.135527
0.770476
0.199537
-0.569311
-0.589081
-0.564283
-0.576267
-0.610253
-0.543283
-0.533751
-0.49555
-0.596573
-0.550009
-0.535192
-1.3477
-0.287358
-0.616669
-0.336786
-1.33934
-0.28393
-0.609082
-1.10754
-1.15026
-1.05671
-1.1315
-0.983944
-0.610061
-0.988184
-0.620475
-0.607903
-0.480679
-0.540187
-0.503027
-0.599372
-0.506857
-0.547226
-0.488626
-0.0580693
-1.06442
-0.064381
-0.482189
-0.0728705
-1.05274
-0.992884
-0.825104
-0.990955
-0.494164
-0.8259
-0.500073
-0.365853
-0.425606
-0.504323
-0.537182
-0.352095
-0.437
-0.46792
0.504106
0.633505
1.1997
0.553688
0.569915
0.645065
1.21885
0.963595
0.0870214
0.950842
-0.439191
-0.399918
-0.429484
-0.399122
-0.352705
-0.365568
-0.402925
-0.384412
-0.34579
-0.358561
-0.390942
1.50677
0.866585
1.44887
0.845565
1.49828
0.913004
1.45092
1.51115
-0.389917
-0.388213
-0.364867
-0.36498
-0.411161
-0.372089
-0.351463
-0.366731
-0.404239
1.12264
1.06101
1.10378
0.975581
1.14134
1.0612
1.09609
1.28122
1.20356
-0.467425
-0.46645
-0.466074
-0.454888
-0.515254
-0.373994
-0.459312
-0.451385
-0.507097
0.946127
0.571667
0.477514
0.509296
0.983086
0.54285
0.522222
0.178277
0.751378
0.142119
-0.563679
-0.57185
-0.561539
-0.563261
-0.579181
-0.556085
-0.529289
-0.48722
-0.57129
-0.555348
-0.520826
-1.36705
-0.276364
-0.605658
-0.336091
-1.41262
-0.249693
-0.585964
-1.02509
-1.12066
-0.987869
-1.09569
-0.987001
-0.620891
-0.979919
-0.622025
-0.594885
-0.52694
-0.544802
-0.500356
-0.592734
-0.540376
-0.553545
-0.554729
-0.578503
-0.729303
-0.44578
-0.551905
-0.590393
-0.744812
-0.373228
-0.723792
-0.59303
-0.5425
-0.390279
-0.746914
-0.608514
-1.3049
-1.01021
-0.95718
-0.863898
-1.01496
-0.977025
-1.2804
-0.973948
-0.708536
-1.25057
-0.858925
-0.720429
-1.26239
-0.967598
-0.0723978
-0.0238423
0.517666
0.319131
-0.0194451
0.504186
-0.0805525
-0.414446
-0.417279
1.32998
-0.377312
-0.374739
-0.372889
-0.378252
-0.375325
-0.373104
-0.376746
-0.404006
-0.374424
-0.3728
-0.371565
-0.374686
-0.3718
-0.404342
0.726526
0.985196
0.645869
-2.14195
-1.71868
-1.74449
-2.10809
-0.545758
-0.505269
-0.506193
-0.480242
-0.507099
-0.509452
-0.544177
-0.799449
-0.561338
-0.614683
-0.718386
-0.804482
-0.562064
-0.619634
-0.699159
-0.571813
-0.47496
-0.805144
-0.692065
-0.573478
-0.469489
-0.543043
-0.5987
-0.750818
-0.429514
-0.526132
-0.577404
-0.724455
-0.397177
-0.773021
-0.605016
-0.539159
-0.40826
-0.776235
-0.562151
-1.31864
-1.00854
-1.01348
-0.88481
-1.31881
-1.00151
-1.03358
-1.03871
-0.738187
-1.3002
-0.848804
-1.01996
-0.746194
-1.31081
-0.0245489
-0.0359179
0.41663
0.281868
-0.0177719
-0.0606726
0.389467
-0.434129
-0.437428
1.52523
-0.377581
-0.378274
-0.37384
-0.380554
-0.378514
-0.376586
-0.373757
-0.407498
-0.37814
-0.37095
-0.370087
-0.406619
-0.378822
-0.371997
0.536478
0.850525
0.511198
-2.1558
-1.73079
-2.16762
-1.70133
-0.555042
-0.521147
-0.513731
-0.497608
-0.550527
-0.527068
-0.512661
-0.817539
-0.566263
-0.616384
-0.728861
-0.834451
-0.580445
-0.616086
-0.686285
-0.564932
-0.466684
-0.855485
-0.668725
-0.568306
-0.468561
-0.501641
-0.544733
-0.705391
-0.414051
-0.492529
-0.505528
-0.698387
-0.422466
-0.771114
-0.523631
-0.498446
-0.411011
-0.778588
-0.505212
-1.25095
-0.977545
-1.05491
-0.862265
-1.27621
-0.971442
-1.05056
-1.03893
-0.762069
-1.32835
-0.834666
-1.04513
-0.761629
-1.32354
-0.0676965
-0.159002
0.374986
0.134613
-0.049888
-0.19503
0.342526
-0.434835
-0.42936
1.603
-0.373414
-0.367864
-0.372546
-0.37398
-0.374538
-0.365044
-0.372297
-0.409814
-0.379046
-0.375191
-0.371117
-0.410773
-0.37753
-0.376905
0.469659
0.721606
0.483424
-2.07492
-1.61608
-2.09865
-1.5958
-0.552213
-0.549105
-0.497438
-0.504254
-0.556565
-0.552478
-0.493253
-0.847656
-0.564683
-0.612618
-0.68556
-0.849523
-0.585195
-0.617333
-0.648391
-0.564676
-0.46997
-0.86459
-0.633608
-0.564176
-0.471013
-0.468513
-0.840709
-0.505582
-0.945567
-0.838331
-0.525587
-0.464909
-0.465499
-0.949763
-0.831759
-0.530323
-0.827495
-0.522673
-0.468439
-1.40304
-1.02915
-1.43353
-0.983907
-1.0332
-1.44425
-1.39988
-1.71728
-1.27318
-1.27384
-1.71349
-1.31377
-0.875029
-1.01147
-0.993738
-1.01519
-0.987681
-1.31651
-1.3941
-0.981846
-1.02597
-1.45257
-1.03007
-1.44937
-1.38043
-1.69385
-1.23876
-1.25222
-1.66086
-0.614112
-0.552268
-0.474691
-0.432518
-0.564365
-0.476949
-0.603918
-0.640588
-0.430448
-0.431785
-0.626151
-0.985011
-0.853604
-0.731225
-1.28713
-0.724766
-1.27309
-1.00055
-0.627894
-0.443433
-0.585177
-0.482055
-0.573949
-0.482139
-0.642123
-0.658409
-0.431919
-0.431684
-0.675081
-0.341446
-0.313774
-0.3621
-0.34326
-0.308853
-0.369044
-0.334933
-0.354592
-0.349807
-0.295619
-0.402036
-0.302461
-0.384223
-0.365311
-0.371328
-0.363214
0.673486
0.919833
0.638092
-0.0483705
0.318693
-0.014651
0.460501
-0.0112679
0.471204
-0.0273356
-0.368817
-0.36251
0.905433
0.589446
0.610645
-0.421267
-0.431735
-0.418654
-0.442507
-0.431592
-0.419604
-0.420551
-0.409403
-0.395954
-0.409224
-0.428305
-0.420395
-0.422547
-0.442151
-0.431027
-0.421327
-0.431242
-0.420153
-0.421948
-0.397009
-0.408817
-0.409433
0.811946
0.936235
1.23404
1.27731
0.907064
1.2107
0.844146
0.867463
1.25653
0.919091
1.54839
1.25305
0.871484
0.889422
0.786387
1.27243
0.915975
1.24118
0.909486
1.21059
0.796195
0.872414
1.60036
1.29576
0.965068
1.28403
0.913892
0.861231
1.32423
-0.393163
-0.393704
-0.365646
-0.366996
-0.37822
-0.363736
-0.36712
-0.378812
-0.365019
-0.377767
-0.379692
-0.377057
-0.37361
-0.376756
-0.37338
-0.378067
-0.36647
-0.363523
-0.367133
-0.380402
-0.367174
-0.379566
-0.367574
1.04929
0.879273
1.27634
1.12211
0.847652
1.27284
1.07146
0.883786
0.981789
0.856817
1.06107
0.960634
0.810196
0.937681
1.03291
1.11544
0.794471
1.23826
0.817894
1.26125
1.01911
0.881637
1.07322
0.963798
0.92434
0.951242
0.904942
0.894965
1.19616
1.20221
-0.478127
-0.477374
-0.443475
-0.452027
-0.474456
-0.456608
-0.451913
-0.4743
-0.443285
-0.403686
-0.370744
-0.375957
-0.369834
-0.374991
-0.370778
-0.40428
-0.443443
-0.456808
-0.451
-0.473429
-0.451573
-0.473675
-0.443713
-0.0482381
0.366788
-0.312591
-0.0129512
0.334949
-0.303887
-0.0429716
-0.71059
-0.739544
1.00576
0.568118
0.609256
-0.0234058
0.0251441
0.360465
-0.211023
0.325099
-0.256728
-0.0222935
-0.726371
-0.747202
-0.552472
-0.572976
-0.552149
-0.482409
-0.487929
-0.562018
-0.564037
-0.544268
-0.582006
-0.564949
-0.545285
-0.561052
-0.57174
-0.548597
-0.550295
-0.511062
-0.498462
-0.563778
-0.584934
-0.567401
-0.550359
-0.567034
-0.547669
-0.564266
-0.858388
-0.819823
-1.23904
-1.34787
-0.918237
-1.2497
-0.834404
-0.847893
-1.35053
-1.0023
-1.22998
-0.974134
-1.24284
-0.836799
-1.4843
-1.2749
-1.22478
-1.11538
-1.30921
-1.23154
-1.46061
-1.61949
-1.53949
-1.24199
-1.15829
-1.55376
-1.24461
-1.60355
-2.16471
-1.75232
-1.75428
-2.17396
-1.51309
-1.11707
-1.33189
-1.22994
-1.31255
-1.22608
-1.5523
-1.63273
-1.15603
-1.58154
-1.2462
-1.56697
-1.24443
-1.6455
-0.749707
-0.588938
-0.593166
-0.744944
-0.970747
-1.32957
-0.8071
-0.985044
-1.34217
-0.810613
-0.971735
-0.70877
-0.606115
-0.665364
-0.601715
-0.60957
-0.669668
-0.709757
-0.754824
-0.606485
-0.599696
-0.758281
-0.968306
-0.986427
-1.37576
-0.812606
-1.35778
-0.811017
-0.966875
-0.709833
-0.602653
-0.620648
-0.68293
-0.615337
-0.675547
-0.711512
-0.547775
-0.483908
-0.516131
-0.515459
-0.511363
-0.51309
-0.54984
-0.508364
-0.84902
-0.552188
-1.02101
-0.485875
-0.867426
-0.57367
-0.531086
-1.05385
-0.884314
-0.599294
-0.884721
-0.594216
-0.53874
-1.37335
-1.02445
-1.45526
-0.984251
-1.37509
-1.02005
-1.45627
-1.68569
-1.25177
-1.66501
-1.28029
-1.31373
-0.882675
-0.984388
-1.0567
-0.994217
-1.05225
-1.29803
-1.3754
-0.985486
-1.0178
-1.45946
-1.01829
-1.45751
-1.38106
-1.71752
-1.35337
-1.32073
-1.74558
-0.669002
-0.593842
-0.485175
-0.489762
-0.655524
-0.606182
-0.488054
-0.703236
-0.441712
-0.689105
-0.456867
-1.04955
-0.847392
-0.759678
-1.32642
-0.751818
-1.31916
-1.05165
-0.681544
-0.490481
-0.599771
-0.502857
-0.601043
-0.494412
-0.691252
-0.7148
-0.491901
-0.477835
-0.72323
-0.390873
-0.290143
-0.424131
-0.381615
-0.378489
-0.29649
-0.437438
-0.403113
-0.396061
-0.334993
-0.454547
-0.308883
-0.449077
-0.414789
-0.390356
-0.413775
0.580563
0.899494
0.571301
-0.0429642
0.254063
-0.125869
0.356883
-0.0947156
0.382064
-0.0564927
-0.441843
-0.434703
0.911057
0.606371
0.58553
-0.419952
-0.427325
-0.423436
-0.441154
-0.421742
-0.422377
-0.423246
-0.40873
-0.398709
-0.40841
-0.435678
-0.437581
-0.41918
-0.441732
-0.407449
-0.426787
-0.414268
-0.428104
-0.417511
-0.399048
-0.40807
-0.408242
0.925634
0.976468
1.30542
1.39852
0.847607
1.05321
1.38787
0.789671
1.27893
0.982164
1.59337
0.82371
1.24321
0.974267
0.928628
1.45678
1.05458
1.25773
1.0921
1.36734
0.891036
0.735638
1.4912
1.15364
0.939267
1.15259
0.933231
0.757528
1.58303
-0.393207
-0.392428
-0.370782
-0.367824
-0.382374
-0.363905
-0.370139
-0.367955
-0.382478
-0.37734
-0.379864
-0.371529
-0.372969
-0.375186
-0.37346
-0.375628
-0.372682
-0.364364
-0.36864
-0.383286
-0.368455
-0.383618
-0.372758
1.01523
0.808482
1.2145
1.10443
1.0193
0.834822
1.19826
0.961463
0.954247
0.987945
1.13966
0.927856
0.945728
1.04419
1.02147
1.12059
0.901817
1.18117
0.869885
1.1963
1.00982
1.02041
1.15121
1.05183
1.1464
0.97569
1.09343
1.11484
1.28922
1.31645
-0.473252
-0.471184
-0.445262
-0.45107
-0.474445
-0.457454
-0.44536
-0.451034
-0.474023
-0.408623
-0.369924
-0.379225
-0.373647
-0.379619
-0.372999
-0.409221
-0.445178
-0.45716
-0.450284
-0.473206
-0.450818
-0.473886
-0.44474
0.016923
0.399285
-0.166445
0.160419
0.00592502
0.418839
-0.143031
-0.680176
-0.646434
0.803951
0.476058
0.486576
0.0265136
0.182222
0.423055
-0.158801
0.42396
-0.138527
0.0145889
-0.631422
-0.625695
-0.545911
-0.567752
-0.543306
-0.523703
-0.534734
-0.560478
-0.568876
-0.552054
-0.585406
-0.563316
-0.56608
-0.552026
-0.566142
-0.537376
-0.540539
-0.547916
-0.543143
-0.556428
-0.583456
-0.561774
-0.547084
-0.566431
-0.549379
-0.552047
-0.78334
-0.997335
-1.19647
-1.34275
-0.809097
-0.977603
-1.16487
-0.757847
-1.33133
-0.920287
-1.10608
-0.943804
-1.1354
-0.739059
-1.60149
-1.33411
-1.22165
-1.10009
-1.58203
-1.32578
-1.22653
-1.66242
-1.59816
-1.25168
-1.14541
-1.65555
-1.61702
-1.24967
-2.13588
-1.63672
-1.66788
-2.11672
-1.60848
-1.0807
-1.27318
-1.20191
-1.3057
-1.21434
-1.60615
-1.66043
-1.13834
-1.63137
-1.22895
-1.62958
-1.24055
-1.64836
-0.770963
-0.61336
-0.762631
-0.618003
-0.971486
-1.39656
-0.818053
-0.983854
-0.967277
-1.42116
-0.826629
-0.702943
-0.627963
-0.692908
-0.615153
-0.707868
-0.628254
-0.704161
-0.777958
-0.619532
-0.620353
-0.785153
-0.978974
-0.984098
-1.45951
-0.846557
-1.44393
-0.835313
-0.984412
-0.697534
-0.618199
-0.622375
-0.711385
-0.6283
-0.707637
-0.697833
-0.558199
-0.500706
-0.540723
-0.5034
-0.534786
-0.508385
-0.55826
-0.554822
-0.876606
-0.60109
-1.05789
-0.546273
-0.871889
-0.606545
-0.564849
-1.05583
-0.89084
-0.543181
-0.884164
-0.594266
-0.549776
-1.39633
-1.02082
-1.46144
-0.994008
-1.39036
-1.02361
-1.45984
-1.7731
-1.37381
-1.76453
-1.37273
-1.234
-0.851181
-0.955258
-1.02436
-0.967681
-1.04842
-1.21918
-1.39536
-0.998363
-1.02382
-1.43878
-1.02952
-1.45241
-1.38469
-1.76449
-1.3145
-1.35042
-1.7449
-0.696942
-0.599391
-0.507103
-0.495262
-0.698267
-0.597787
-0.517611
-0.712593
-0.501573
-0.724953
-0.50721
-1.02284
-0.834602
-0.750525
-1.29989
-0.759865
-1.31352
-1.01195
-0.692174
-0.50117
-0.605932
-0.516214
-0.613817
-0.511722
-0.687264
-0.701959
-0.477738
-0.496298
-0.689561
-0.405503
-0.369465
-0.459807
-0.434957
-0.421434
-0.400234
-0.457517
-0.369324
-0.437082
-0.408985
-0.440041
-0.415551
-0.449888
-0.317529
-0.435165
-0.44103
0.638249
0.970135
0.66658
-0.109072
0.101829
-0.218688
0.409464
-0.21838
0.391615
-0.110895
-0.479814
-0.457933
0.928567
0.751093
0.694065
-0.411769
-0.399338
-0.428045
-0.436856
-0.414872
-0.391483
-0.42684
-0.408102
-0.399953
-0.407787
-0.40692
-0.419432
-0.408109
-0.430869
-0.377142
-0.423696
-0.382408
-0.424282
-0.406257
-0.399399
-0.406588
-0.407047
0.87053
1.03495
1.21769
1.50059
0.886424
0.921122
1.2066
0.838879
1.24206
1.00691
1.4553
0.810418
1.30904
1.05387
0.800387
1.49085
0.87288
1.28153
0.815782
1.25365
0.827268
0.89228
1.4588
1.32058
1.14219
1.3267
1.12161
0.929487
1.52737
-0.389043
-0.388477
-0.373729
-0.368968
-0.383554
-0.365633
-0.373416
-0.369385
-0.383224
-0.37301
-0.372546
-0.362009
-0.372177
-0.362961
-0.372168
-0.372816
-0.373865
-0.36624
-0.370128
-0.382739
-0.369782
-0.382587
-0.374268
0.991075
0.92689
1.1663
1.12455
1.01069
0.939345
1.16834
1.10847
1.09458
1.16428
1.09189
1.12678
1.12513
1.16183
1.00418
1.14063
0.981735
1.19316
0.97243
1.19107
1.00051
1.10196
1.07522
1.18331
1.19808
1.16112
1.1757
1.09327
1.23633
1.21685
-0.466377
-0.465938
-0.443196
-0.449929
-0.473097
-0.453475
-0.445125
-0.449477
-0.471343
-0.410151
-0.372919
-0.376927
-0.379975
-0.377248
-0.378746
-0.410135
-0.443368
-0.451802
-0.448882
-0.470382
-0.449123
-0.470929
-0.442704
-0.0592991
0.399043
-0.192201
0.159736
-0.0256295
0.361539
-0.206391
-0.66265
-0.694933
0.723954
0.568719
0.51541
-0.0795624
0.142377
0.332501
-0.21052
0.338336
-0.218331
-0.0563798
-0.7245
-0.716632
-0.53572
-0.562076
-0.533578
-0.550934
-0.552179
-0.543746
-0.562423
-0.541314
-0.566711
-0.547341
-0.558766
-0.540305
-0.562424
-0.532747
-0.533666
-0.552607
-0.553651
-0.538768
-0.564026
-0.557646
-0.535858
-0.55906
-0.536101
-0.535892
-0.735729
-0.907582
-1.08651
-1.3836
-0.741286
-0.877808
-1.05338
-0.74069
-1.4005
-0.822421
-0.994534
-0.869866
-1.03086
-0.729147
-1.59649
-1.25915
-1.18275
-1.01236
-1.60265
-1.24746
-1.17279
-1.60915
-1.62503
-1.21122
-1.11333
-1.62988
-1.6145
-1.19622
-2.06458
-1.58896
-1.58915
-2.05806
-1.58903
-0.998783
-1.22156
-1.15268
-1.23918
-1.16181
-1.573
-1.59374
-1.10454
-1.59529
-1.1688
-1.60506
-1.17955
-1.58116
-0.797985
-0.617938
-0.791238
-0.617042
-0.992217
-1.46694
-0.84953
-0.987451
-0.988906
-1.47003
-0.850524
-0.705927
-0.620021
-0.708362
-0.621463
-0.700919
-0.617884
-0.706585
-0.805647
-0.61873
-0.617595
-0.806866
-0.994104
-0.986746
-1.46292
-0.844781
-1.4698
-0.848964
-0.993006
-0.7111
-0.622261
-0.616612
-0.703204
-0.616948
-0.705206
-0.713222
-0.548029
-0.502097
-0.553741
-0.488616
-0.556487
-0.490264
-0.541786
)
;

boundaryField
{
    inlet
    {
        type            zeroGradient;
    }
    outlet
    {
        type            fixedValue;
        value           uniform 0;
    }
    up
    {
        type            zeroGradient;
    }
    down
    {
        type            zeroGradient;
    }
    frontAndBack
    {
        type            zeroGradient;
    }
    cylinder
    {
        type            zeroGradient;
    }
}


// ************************************************************************* //
