/*--------------------------------*- C++ -*----------------------------------*\
  =========                 |
  \\      /  F ield         | OpenFOAM: The Open Source CFD Toolbox
   \\    /   O peration     | Website:  https://openfoam.org
    \\  /    A nd           | Version:  8
     \\/     M anipulation  |
\*---------------------------------------------------------------------------*/
FoamFile
{
    version     2.0;
    format      ascii;
    class       volVectorField;
    location    "49";
    object      U;
}
// * * * * * * * * * * * * * * * * * * * * * * * * * * * * * * * * * * * * * //

dimensions      [0 1 -1 0 0 0 0];

internalField   nonuniform List<vector> 
2844
(
(1.01057 -0.00742687 -0.000100817)
(1.00002 -0.00441625 0.000104757)
(1.01472 -0.00608608 0.000246282)
(1.06942 -0.0185662 3.73592e-05)
(1.10506 -0.0232372 -0.000197869)
(1.1127 -0.0172553 -0.000221675)
(1.09661 -0.00889818 -8.4679e-05)
(1.07846 -0.0155386 0.000175357)
(1.05439 -0.00638388 0.00025292)
(1.05851 -0.00186693 9.3153e-05)
(0.991681 0.000120874 5.52856e-06)
(0.973834 0.00997525 0.000122895)
(0.90988 0.011025 0.00011853)
(0.875493 0.0144747 -0.0012205)
(0.798463 -0.0222403 0.00286579)
(0.848304 -0.0290199 0.00955716)
(0.856792 -0.0340031 0.0072708)
(0.862278 -0.0508196 0.00620211)
(0.919666 -0.0125861 0.00349725)
(0.955959 -0.013688 0.00100039)
(1.00608 -0.0050271 -0.000309261)
(1.00629 0.0069872 0.000332863)
(1.02406 -0.0552245 0.000591945)
(1.07327 -0.053567 0.00022582)
(1.11048 -0.00278799 0.000191928)
(1.1338 0.0277908 -0.00122102)
(1.10282 0.0392873 0.000239485)
(1.0855 0.0477339 0.000457608)
(1.08026 0.0187521 0.000486404)
(1.07168 0.0526986 0.00131156)
(1.00469 0.0717533 -0.000973711)
(0.992808 0.0493811 0.00128387)
(0.915812 0.0717829 0.00187045)
(0.860928 0.0760184 -0.00357951)
(0.748529 0.0253352 0.00890045)
(0.79685 -0.0808523 0.0309696)
(0.813515 -0.0146906 0.0251605)
(0.85594 -0.0420676 0.0194247)
(0.96136 -0.0878409 0.0131049)
(0.964701 -0.0230898 0.00387131)
(1.01522 -0.0188859 -0.000602004)
(1.00281 -0.0193783 0.000791195)
(1.03892 -0.0706884 0.00174175)
(1.11436 -0.0986685 0.00151846)
(1.16585 -0.0643622 -0.0022591)
(1.15883 -0.00823691 -0.00198747)
(1.13614 0.030067 -0.00134538)
(1.12141 -0.00599622 -0.00108543)
(1.10003 -0.00232553 0.00515181)
(1.10188 0.0450221 0.00129379)
(1.0172 0.0709927 0.000481864)
(0.993332 0.073117 0.00698432)
(0.926331 0.10657 -0.0108513)
(0.936122 0.170472 -0.00380372)
(0.701991 -0.0258575 0.0330241)
(0.583236 -0.301131 0.0321417)
(0.685118 -0.242431 0.0306259)
(0.719828 -0.316073 0.0299608)
(0.859552 -0.189615 0.0259185)
(0.982772 -0.0347138 0.00949389)
(0.994977 -0.0216938 -0.00104132)
(1.0241 -0.00790579 0.00320936)
(1.05584 -0.157636 -0.000863956)
(1.17765 -0.148407 0.00251172)
(1.16742 -0.00404198 0.00245106)
(1.16328 0.0725896 -0.00862914)
(1.23157 0.0869551 -0.00251217)
(1.15544 0.0800799 0.000666075)
(1.18281 0.00630772 0.0135256)
(1.17444 0.109963 0.00279952)
(1.06038 0.164509 -0.00277616)
(1.02063 0.0605431 0.00866716)
(0.986479 0.184377 0.00504537)
(0.945762 0.278925 0.0203671)
(0.66464 0.0523531 0.0139404)
(0.471837 -0.406379 -0.0443331)
(0.506316 -0.422398 -0.0366281)
(0.564206 -0.472874 -0.0235025)
(0.857715 -0.517699 0.00520905)
(0.984273 -0.192892 0.00891911)
(0.99108 -0.0235611 0.00149658)
(1.10529 -0.122113 -0.00275798)
(1.0924 -0.18023 0.00708239)
(1.19645 -0.203872 0.0133847)
(1.30452 -0.0510547 -0.00450339)
(1.32567 -0.00936736 0.0145383)
(1.18587 0.0693813 -0.0199936)
(1.14393 0.00910783 -0.0275717)
(1.37769 -0.127806 0.0085081)
(1.17182 0.130336 0.0157243)
(1.0852 0.239731 0.0240921)
(1.11283 0.0574413 -0.000206768)
(1.01766 0.154852 -0.0305823)
(1.09236 0.36832 0.00068991)
(0.956196 0.175005 -0.00217422)
(0.589357 -0.192987 -0.0671643)
(0.744077 -0.400987 -0.0767961)
(0.633101 -0.669169 -0.0375232)
(0.629589 -0.667092 -0.0290434)
(0.862141 -0.217404 -0.00629232)
(1.00915 -0.112182 -0.000560523)
(1.11601 -0.0917568 0.00240069)
(1.18162 -0.275746 -0.0248426)
(1.29923 -0.255731 0.00775202)
(1.43186 -0.0297584 0.0593714)
(1.56938 0.0420473 0.0214087)
(1.36764 0.374603 0.00553378)
(1.16458 0.138213 0.00663486)
(1.34254 -0.00703157 -0.0501486)
(1.49186 0.211747 -0.0187069)
(1.39373 0.0176398 0.0411564)
(1.22208 0.0791435 -0.00195785)
(1.02097 0.396242 -0.026685)
(1.228 0.348232 0.00519339)
(1.10396 0.377776 -0.00926769)
(0.752341 0.0482477 -0.0520188)
(0.834081 -0.150706 -0.0796397)
(0.835856 -0.247733 -0.0143004)
(0.738145 -0.632101 -0.0217735)
(1.02503 -0.357049 -0.0261599)
(0.978055 -0.0779436 0.00838593)
(1.19375 -0.328438 0.00346605)
(1.3929 -0.261343 -0.0335274)
(1.75333 -0.491488 -0.0146437)
(1.83708 -0.62709 0.0471521)
(1.5204 -0.158744 0.038233)
(1.65512 0.302575 0.0111572)
(1.21416 0.00410533 0.00974442)
(1.43353 -0.0472177 -0.0066287)
(1.6353 0.2293 0.0264137)
(1.59563 0.27424 -0.0240384)
(1.35046 0.273844 -0.0222676)
(1.11948 0.287513 0.094785)
(0.984978 0.392355 0.0725728)
(0.829549 0.545778 -0.0406754)
(0.835263 0.312532 -0.0693607)
(0.828584 0.0944842 -0.0109497)
(0.808788 -0.348042 0.033147)
(0.944958 -0.675307 -0.00100796)
(0.987254 -0.294687 -0.00819893)
(0.973087 -0.308034 0.0544765)
(0.907923 -0.375049 -0.0814112)
(1.86695 -0.548471 0.0140151)
(2.22372 -0.831757 0.0373495)
(1.97355 -0.194879 0.00629691)
(1.60712 0.0581767 -0.0314773)
(1.67084 0.552825 -0.0668323)
(0.931193 -0.0630193 0.076232)
(1.2443 -0.228263 0.0426167)
(1.21051 0.25979 -0.0479913)
(1.48633 0.364197 0.0180914)
(1.40387 0.49411 0.0113242)
(1.28533 0.312981 0.00634511)
(1.00838 0.16472 -0.0112489)
(1.02466 0.486618 -0.0636829)
(1.28774 0.439223 -0.0320974)
(1.44498 0.132282 0.0194746)
(1.16491 -0.132086 0.0474827)
(0.966769 -0.549978 -0.00812255)
(1.14984 -0.354868 -0.0187268)
(1.08137 -0.322508 0.0536179)
(0.483799 -1.40309 -0.134184)
(1.2996 -1.35058 0.0185118)
(-0.169103 0.129492 -0.0318126)
(-0.201888 -0.0711524 0.0551006)
(0.40943 -0.534608 -0.0648269)
(0.937632 0.197494 0.0152827)
(0.594382 0.0674216 0.0649593)
(1.33398 0.592241 -0.0194094)
(1.3852 0.423865 0.0526256)
(1.16893 0.434754 0.0351199)
(1.48893 0.774434 -0.013128)
(1.30672 0.462069 0.0557829)
(1.22811 0.099513 0.0216076)
(1.23424 -0.346982 0.0118814)
(1.08395 -0.632091 0.0208594)
(1.05929 -0.382206 -0.0321569)
(1.03303 -0.288952 0.0262652)
(-0.463889 -0.687457 0.0550559)
(-0.302986 -0.428848 -0.258931)
(0.0485527 -0.052479 -0.00359729)
(-0.20417 -0.228337 0.0179655)
(-0.0908778 -0.468247 0.0466436)
(-0.122876 0.0829298 0.0737496)
(-0.378161 -0.434708 -0.0790167)
(0.706254 0.0755281 0.0264719)
(0.383811 0.200233 0.0391161)
(0.624367 0.243261 -0.00504865)
(0.986007 0.667398 0.0178594)
(1.02519 0.214466 0.0449291)
(1.065 0.0353059 0.0503187)
(1.27892 -0.251939 0.0110702)
(1.20306 -0.562802 0.0159204)
(0.949451 -0.0560463 0.0165745)
(0.833368 0.1197 0.0680788)
(-1.11853 -0.195961 -0.0996826)
(-0.0183815 0.0117661 -0.00617091)
(-0.49163 -0.0433731 0.0165669)
(-0.749554 -0.635864 -0.0320025)
(-0.223432 0.0983543 -0.00914619)
(-0.0660326 -0.379762 -0.034633)
(0.134949 -0.402577 -0.00780294)
(0.277543 -0.0403528 -0.0382477)
(0.40312 -0.132906 -0.00743684)
(0.520031 0.233687 0.00868776)
(0.907297 -0.020072 -0.048281)
(1.14063 -0.339226 -0.0342399)
(1.35072 -0.419953 0.025102)
(1.48706 -0.629042 -0.00341834)
(1.20393 -0.385585 -0.0123488)
(1.26918 0.293642 0.000582573)
(0.736479 0.324536 0.12944)
(0.361964 0.686437 -0.13197)
(0.252612 0.262629 -0.00986837)
(0.658618 -0.328043 0.0441293)
(-0.368276 -0.417191 -0.0298518)
(0.531756 -0.216445 -0.121307)
(0.797122 -0.266508 0.0262266)
(0.226729 -0.205973 -0.0290835)
(0.356286 -0.0446382 -0.103427)
(0.633807 -0.253804 -0.0738437)
(0.97523 0.100733 -0.0381649)
(1.3319 0.0496905 0.00590809)
(1.32647 -0.0807548 -0.033961)
(1.18584 -0.577925 -0.000568723)
(1.09027 -0.453159 0.0478609)
(0.89151 0.127174 -0.00754255)
(0.992223 0.195656 0.026147)
(1.2745 0.0438686 0.0257271)
(0.983891 1.4036 0.0236772)
(0.183768 -0.0179368 0.0170625)
(1.03888 -0.0403604 -0.0214582)
(1.40238 -0.271602 -0.0177629)
(1.71353 -0.515353 0.0546678)
(1.07074 -0.147616 0.00140693)
(1.48953 -0.222825 -0.00727159)
(1.09192 -0.0212635 0.0288748)
(0.816673 0.175927 -0.07184)
(1.08663 -0.194031 -0.115117)
(1.33298 -0.146252 -0.0344818)
(1.5663 -0.35354 0.0471011)
(1.33726 -0.0732295 0.0218037)
(1.2567 -0.209599 -0.0641985)
(1.45718 -0.779709 0.00703252)
(1.23418 -0.301869 0.0358128)
(1.05352 -0.00169058 0.00183879)
(1.10459 0.16472 -0.0279331)
(1.36663 0.539811 0.0353035)
(1.87326 0.83312 0.0394668)
(2.12299 0.38521 -0.00300064)
(1.65903 -0.0866088 -0.0253792)
(1.75876 0.00254082 0.00128365)
(1.70497 -0.428789 0.0398111)
(1.18262 -0.447473 0.00886506)
(1.06677 -0.241065 0.00846846)
(1.28315 -0.205213 -0.0214885)
(1.28739 -0.0472244 -0.00321267)
(1.45307 0.200296 0.0129713)
(1.44133 0.149646 0.0365202)
(1.15617 0.0090904 0.0266948)
(1.06001 -0.220614 -0.023036)
(1.25063 -0.129783 -0.0373539)
(1.3197 -0.382951 -0.0284196)
(1.4246 -0.41258 -0.0100921)
(1.10947 0.0543386 0.00675125)
(1.03166 0.0248392 -0.010847)
(1.03101 -0.0245311 -0.00279377)
(1.17716 0.481783 0.0153229)
(1.24915 0.406388 -0.000696238)
(1.4915 0.168808 -0.0120934)
(1.79162 0.098541 0.000899784)
(1.43925 -0.0635091 0.0479048)
(1.17463 -0.327842 -0.00261674)
(1.25624 -0.294862 -0.0308022)
(1.16282 -0.0908987 -0.00746549)
(1.11731 -0.0352847 -0.00448593)
(1.03246 -0.118412 0.00324043)
(1.18851 -0.0288565 0.0239534)
(1.14428 -0.0939668 0.0343511)
(0.882162 -0.115404 -0.00368608)
(0.7993 -0.286553 -0.0372454)
(1.01045 0.0652862 -0.0424457)
(1.26775 -0.163282 -0.0290897)
(1.21069 -0.466768 0.0202564)
(0.86228 -0.00515856 0.0248756)
(1.04435 0.00517004 -0.00663903)
(0.983122 0.0363643 -0.00231706)
(1.08156 0.291848 0.0166404)
(1.22627 0.262076 0.0105574)
(1.33984 0.181296 0.013653)
(1.34947 -0.0102828 0.0188199)
(1.30231 -0.101367 0.0124442)
(1.27002 -0.143591 -0.00527152)
(1.05212 -0.146962 -0.0165366)
(1.11635 -0.132316 -0.00801066)
(1.17475 -0.0888332 0.0192838)
(0.938462 -0.129667 0.0173764)
(0.954829 -0.0825238 -0.00244481)
(0.996469 0.0854041 -0.015544)
(1.15606 0.195661 -0.0180109)
(1.106 -0.10818 -0.00890467)
(0.970717 -0.192679 0.0235813)
(0.964021 -0.284699 0.00775205)
(0.737718 -0.266624 0.0124128)
(0.555361 0.127438 0.0256463)
(1.02281 0.046169 -0.00117495)
(0.991185 -0.000807567 -0.000709984)
(1.02329 0.127928 0.00486614)
(1.19025 0.148375 0.00424961)
(1.21049 0.0444007 0.0125619)
(1.21725 -0.0176699 0.011256)
(1.12546 -0.122581 -0.00457241)
(1.15388 -0.0763596 -0.00606529)
(1.14307 -0.0543201 0.00673897)
(0.999123 -0.0729663 0.00147396)
(1.02508 -0.0512817 0.00276132)
(0.968175 -0.0767718 0.000342969)
(0.960137 -0.0675446 -0.00552843)
(0.921091 -0.11199 0.000818697)
(1.02309 -0.0539928 0.00869289)
(1.07266 -0.0245582 0.0121626)
(0.832848 0.0302431 0.0140944)
(0.821058 -0.108428 -0.0121)
(0.67813 -0.293168 -0.0379952)
(0.704522 -0.0481426 -0.00829118)
(1.00004 -0.00100566 0.000189999)
(1.0213 0.0341152 -0.00102999)
(1.02955 0.0817881 -5.26046e-06)
(1.13423 0.0750871 0.00420221)
(1.12941 0.0511803 0.00475066)
(1.15799 -0.034693 -9.38156e-05)
(1.11344 -0.0300118 -0.00213612)
(1.07334 -0.0557062 -0.00206321)
(1.07486 -0.069182 0.00103005)
(1.01497 -0.0435493 0.0015022)
(1.00672 -0.0728717 -0.00110009)
(0.977153 -0.0393681 -0.00167753)
(0.985138 -0.00984365 0.00136804)
(0.910103 0.00645445 0.00301252)
(0.888722 0.0261597 -0.00226593)
(0.912361 -0.0519209 -0.00190811)
(0.890619 -0.0753823 0.00397341)
(0.942488 -0.0586732 0.0058023)
(0.784506 0.0373181 -0.0251524)
(0.862978 0.116484 -0.0220071)
(1.00272 0.020616 0.000208025)
(0.997535 -0.000128112 -0.000796429)
(1.03718 0.0352442 0.000305089)
(1.07602 0.0407787 0.00161127)
(1.09732 0.00451592 0.00062948)
(1.11969 0.00247663 -0.0005133)
(1.07577 -0.0387218 -0.000534321)
(1.07562 -0.0151245 0.000404648)
(1.03656 -0.0304254 0.000343187)
(1.00084 -0.0248927 0.000110211)
(0.998654 -0.0272031 0.000165054)
(0.929148 -0.0396669 0.000726995)
(0.942036 -0.0258112 -0.000476968)
(0.914083 -0.0485553 -8.66742e-05)
(0.930155 -0.0197365 0.0013377)
(0.918164 -0.0285793 0.0005858)
(0.850225 -0.0293178 -0.00238005)
(0.853082 -0.0628207 0.00223811)
(0.742411 -0.0157597 -0.00271387)
(0.898421 0.0502607 -0.00642346)
(0.999413 -0.00649424 -2.13039e-05)
(1.01348 0.0127035 -0.000262969)
(1.02386 0.0144359 0.000237154)
(1.06952 0.00507457 0.000437288)
(1.07377 0.0132981 0.000134557)
(1.10097 -0.00858704 -0.00014376)
(1.07154 -0.000931067 -0.00011983)
(1.0512 -0.016092 3.42411e-05)
(1.03527 -0.012828 0.000153223)
(0.991551 -0.01034 -0.000136798)
(0.992702 -0.0124171 -0.000231254)
(0.941054 -0.0002932 -2.39422e-05)
(0.945873 0.00305557 5.98449e-05)
(0.909725 0.0117934 1.89321e-05)
(0.901626 0.0121498 0.000174311)
(0.903421 0.00232097 0.000107402)
(0.860778 0.00644336 2.1539e-05)
(0.881328 0.00507261 0.000589689)
(0.779986 0.0312581 -0.00141947)
(0.914469 0.0467224 -0.00165847)
(1.01051 -0.00751133 -0.000192158)
(1.00018 -0.00439412 0.000243356)
(1.01475 -0.00579877 0.000411303)
(1.06922 -0.0183779 -3.01116e-05)
(1.10511 -0.0233817 -0.00038892)
(1.11275 -0.0175568 -0.000445585)
(1.09655 -0.00857806 -0.000156643)
(1.07843 -0.0155658 0.000311826)
(1.05426 -0.00622145 0.000393705)
(1.05844 -0.00140878 0.000162991)
(0.991788 -0.000100694 -1.21952e-05)
(0.973963 0.0100264 0.000216771)
(0.909458 0.0117859 1.61639e-05)
(0.875745 0.0141498 -0.00131105)
(0.802066 -0.0219629 0.00379865)
(0.851183 -0.0196833 0.0109865)
(0.857294 -0.0285817 0.00833982)
(0.861521 -0.0468163 0.00763268)
(0.91801 -0.00910682 0.00447394)
(0.955135 -0.0126329 0.00126114)
(1.0058 -0.00589212 -0.000581758)
(1.00709 0.00781094 0.000820095)
(1.02398 -0.0528829 0.000810797)
(1.07257 -0.0534 -4.61495e-05)
(1.11024 -0.00455167 5.55581e-05)
(1.13471 0.026072 -0.0021496)
(1.10288 0.0381935 7.6513e-05)
(1.08437 0.0494607 0.000785106)
(1.07924 0.021036 0.000965075)
(1.07084 0.052875 0.00165376)
(1.00488 0.0719784 -0.000914094)
(0.993587 0.0507519 0.000950289)
(0.917285 0.0717108 0.00262901)
(0.854428 0.0631105 -0.00320973)
(0.765613 0.0496842 0.00838532)
(0.844644 0.000684106 0.0375049)
(0.834339 0.0476531 0.0280135)
(0.867301 0.0138061 0.0223484)
(0.963077 -0.0592368 0.01539)
(0.964636 -0.0156266 0.00395186)
(1.01274 -0.0221533 -0.00143976)
(1.00788 -0.016472 0.00296835)
(1.04026 -0.0632066 0.00172392)
(1.10543 -0.0963293 0.000200776)
(1.16704 -0.0639728 -0.00454465)
(1.16335 -0.0194413 -0.00385931)
(1.13517 0.0343516 -0.00213542)
(1.11461 -0.00103199 -0.00138638)
(1.09034 0.00143864 0.00515258)
(1.1019 0.0566435 0.00381159)
(1.01557 0.0610306 7.69173e-05)
(1.00007 0.0832013 0.00825564)
(0.922818 0.131562 -0.0091152)
(0.906203 0.129695 -0.0109201)
(0.759233 0.00682705 0.0468289)
(0.757862 -0.00244283 0.0785453)
(0.837192 0.0184439 0.0733192)
(0.806684 -0.114178 0.0680606)
(0.878809 -0.0557165 0.0434973)
(0.978312 0.00145312 0.0124845)
(0.993232 -0.0300004 -0.00270914)
(1.03115 -0.00389544 0.00998296)
(1.05887 -0.128218 -0.00574201)
(1.15399 -0.133375 -0.00496702)
(1.18033 -0.0350797 0.00104487)
(1.19562 0.0539735 -0.0150051)
(1.21629 0.0818851 -0.00724447)
(1.15944 0.0800166 0.00255352)
(1.15864 0.0505489 0.022263)
(1.16748 0.118691 -0.00165906)
(1.03865 0.163995 -0.0113193)
(1.01462 0.119085 0.0161093)
(1.00176 0.126187 0.00170729)
(0.957556 0.179733 0.00613601)
(0.770846 0.220941 0.038479)
(0.704521 0.0210598 0.0522503)
(0.656768 0.0821825 0.0542926)
(0.650205 0.0232095 0.0317782)
(0.906809 -0.154674 0.0390149)
(1.03026 -0.0754301 0.0187152)
(0.986705 -0.0406297 -0.00188472)
(1.11336 -0.0930635 0.0136363)
(1.08247 -0.153202 0.00563584)
(1.21661 -0.188688 -0.0152816)
(1.29832 -0.0694387 -0.0201819)
(1.31728 -0.0783552 0.0222619)
(1.29452 0.0788841 -0.0166918)
(1.18045 0.0285034 -0.0520621)
(1.26582 -0.0033541 -0.00170376)
(1.12038 0.169284 0.0330676)
(1.10807 0.192798 0.0402333)
(1.13879 0.129818 0.00616883)
(0.938712 0.248109 -0.0368455)
(0.922545 0.364105 -0.0149393)
(0.862944 0.186391 0.0232713)
(0.650595 -0.0431553 -0.0130503)
(0.608095 -0.0809517 -0.0194352)
(0.574879 -0.42964 0.01162)
(0.738234 -0.352641 0.00958021)
(0.861063 -0.0738538 0.00402867)
(1.02987 -0.1163 -0.00817076)
(1.08065 -0.0981848 0.00407926)
(1.20085 -0.207387 -0.00457774)
(1.25761 -0.128173 0.0255722)
(1.39216 -0.0560175 0.0167253)
(1.6083 0.0579929 0.0295897)
(1.45382 0.182446 0.0375478)
(1.305 0.06198 -0.0205065)
(1.37573 0.221428 -0.0583138)
(1.27077 0.27415 -0.0264014)
(1.21537 0.131773 0.0125044)
(1.23605 0.257855 0.0330559)
(1.04496 0.227093 -0.00732074)
(1.30287 0.194853 -0.0368586)
(1.17814 0.506078 0.0155627)
(0.849441 0.0873313 -0.0575271)
(0.827848 -0.100429 -0.127611)
(0.735347 -0.269406 -0.07222)
(0.734184 -0.539382 -0.0418446)
(1.01336 -0.16817 -0.0386701)
(1.03239 -0.123841 0.00591905)
(1.14227 -0.234187 -0.00430872)
(1.35892 -0.434602 -0.072301)
(1.76936 -0.515067 -0.13641)
(1.72555 -0.326849 0.0973665)
(1.5601 -0.0858999 0.0122735)
(1.76257 0.272492 0.0292372)
(1.43954 0.0196293 0.0942798)
(1.42015 -0.0292461 -0.0108046)
(1.54937 0.32742 -0.0849392)
(1.49539 0.401806 -0.0332055)
(1.0199 0.264732 0.00464841)
(0.920003 0.119622 0.0299103)
(1.12904 0.364763 0.0497904)
(1.03242 0.570101 0.0416378)
(0.973272 0.115599 -0.0588597)
(0.926889 -0.205925 -0.0883765)
(0.896561 -0.393268 -0.0864347)
(1.05383 -0.697474 -0.0651411)
(1.05783 -0.381387 -0.0119613)
(1.06391 -0.290496 0.0632873)
(0.935438 -0.277597 0.0100613)
(1.60348 -0.761647 -0.142396)
(1.93588 -0.462526 0.105057)
(1.99217 -0.205517 0.0809274)
(1.81154 0.163563 0.00432041)
(1.52101 0.427636 -0.141481)
(1.01159 0.0498109 0.0119721)
(1.63178 -0.0695695 0.0565082)
(1.70152 0.327875 0.0174932)
(1.47329 0.451119 -0.0377545)
(1.61075 0.553999 -0.0460168)
(1.50193 0.4287 0.0612969)
(1.23034 0.336865 0.0544745)
(1.08149 0.515496 -0.0896841)
(1.29636 0.214283 -0.107294)
(1.55212 0.135391 0.00801647)
(1.34098 0.0622714 0.0882918)
(1.26403 -0.464071 -0.00890004)
(1.26301 -0.246273 -0.0206704)
(1.28759 0.00272608 0.0554505)
(1.07772 -1.02942 -0.19091)
(1.39284 -1.12223 0.108317)
(-0.190487 -0.0836053 -0.146786)
(-0.0180935 -1.15035e-05 0.0410855)
(0.573594 -0.400383 -0.132954)
(0.872258 0.340649 -0.00995059)
(1.02003 0.367936 0.0698979)
(1.45237 0.556497 -0.0119648)
(1.41767 0.501835 0.00635647)
(1.31357 0.51822 -0.0790991)
(1.46511 0.628031 -0.0936692)
(1.20536 0.100122 0.0685782)
(1.19037 -0.114545 0.0271606)
(1.21732 -0.157826 0.0526954)
(1.19072 -0.674794 0.0506307)
(1.16716 -0.484169 -0.0594417)
(0.690987 -0.261332 0.0264851)
(0.982923 -0.918487 0.224558)
(0.349264 -0.482116 -0.440465)
(0.0370908 -0.0988326 -0.0141836)
(0.10717 -0.138536 -0.0819337)
(-0.200529 -0.76837 -0.0405437)
(0.209408 0.0710148 0.0412857)
(0.0166584 0.0612519 -0.0120047)
(0.735516 0.0831422 0.105896)
(0.950266 0.375325 0.118716)
(1.05771 0.431612 0.0431046)
(1.20756 0.652789 0.0549347)
(0.955858 0.409634 0.0757567)
(0.979838 0.0824462 0.0380069)
(1.25068 -0.175964 -0.0205995)
(1.30277 -0.498345 0.0548608)
(1.12097 -0.211584 0.0400871)
(0.616414 -0.0576347 0.125302)
(-0.114086 -0.31812 -0.262938)
(-0.0747137 0.013347 -0.0131114)
(-0.334638 0.0590132 0.0537602)
(-0.581438 -0.226484 -0.0262751)
(-0.138079 0.286314 -0.0819796)
(-0.0759298 -0.433571 -0.104698)
(0.412807 -0.261588 0.00286498)
(0.734585 0.301797 0.0524439)
(0.65521 0.300988 0.0997659)
(0.672679 0.635401 0.0468894)
(0.84806 0.231713 -0.062907)
(1.09783 -0.161122 -0.0503935)
(1.19547 -0.260468 -0.00927846)
(1.41824 -0.653229 0.0207218)
(1.27045 -0.403039 0.02317)
(1.40575 0.137462 0.0326043)
(0.247046 0.795757 0.0940363)
(0.908301 0.954872 -0.110842)
(0.175038 0.267071 -0.037115)
(0.738722 -0.298352 0.0607136)
(0.420889 -0.756317 -0.00781615)
(0.294828 -0.158338 -0.131647)
(0.784875 -0.262202 0.0176625)
(0.505045 -0.373471 0.00519516)
(0.385373 0.251606 -0.0656744)
(0.464345 0.288546 -0.0629029)
(0.780205 0.495595 -0.0396471)
(1.28868 0.101839 0.0267999)
(1.53016 -0.227906 -0.0156902)
(1.24566 -0.346819 -0.0200806)
(1.27313 -0.537718 0.0810088)
(1.22327 -0.214973 0.0409164)
(1.08178 0.250973 0.019392)
(1.24568 0.248665 0.0195036)
(1.2574 0.3311 0.0874386)
(0.127524 0.00856293 0.108239)
(1.18221 -0.0876464 0.0164027)
(1.4225 -0.46105 -0.0879776)
(1.72268 -0.403316 0.0589634)
(1.3525 -0.26687 0.0537217)
(1.5715 -0.389934 0.000332328)
(1.41035 -0.136951 0.0788937)
(1.12737 0.180691 -0.0198028)
(1.1416 -0.152841 -0.153891)
(1.25939 -0.133291 -0.0893381)
(1.57641 -0.309259 0.0405274)
(1.61988 -0.208837 0.0809658)
(1.3776 -0.122108 -0.0327447)
(1.36489 -0.533363 -0.0249378)
(1.31592 -0.348386 0.0385394)
(1.11712 0.108498 0.0159083)
(1.07654 0.177058 -0.0300648)
(1.29268 0.326681 -0.0324086)
(1.89639 0.665472 0.082686)
(2.08056 0.41671 -0.0300762)
(1.69067 -0.115998 -0.0180407)
(1.64229 -0.0674042 -0.0161465)
(1.7126 -0.455255 0.130438)
(1.21486 -0.486931 0.0505973)
(1.25146 -0.203983 -0.0517129)
(1.17698 -0.27122 -0.0933447)
(1.02363 -0.13842 -0.0133468)
(1.23517 0.117071 0.0244352)
(1.3703 0.0700797 0.0197994)
(1.41846 0.136338 0.054897)
(1.31609 -0.0513801 -0.0110201)
(1.24366 -0.0981824 -0.0690459)
(1.16394 -0.362484 -0.058129)
(1.30186 -0.481861 -0.0305149)
(1.11047 -0.0604244 -0.00540039)
(1.04532 0.0730732 -0.00779603)
(1.0383 0.0230743 -0.00766638)
(1.11499 0.342225 -0.00234952)
(1.25866 0.232987 0.0386801)
(1.4863 -0.0370203 -0.0156767)
(1.55699 -0.0628169 0.000278982)
(1.47066 -0.0987256 0.127824)
(1.44613 -0.223362 -0.0194324)
(1.22609 -0.234097 -0.06315)
(1.11209 -0.072165 0.00377797)
(1.06743 -0.0919858 0.00691433)
(0.95087 -0.167867 0.00547372)
(1.08833 -0.0794969 0.0239254)
(1.12648 -0.130682 0.0660375)
(1.14266 -0.033639 0.0317661)
(1.1147 -0.1968 -0.0386711)
(1.15595 -0.143909 -0.063875)
(1.23265 -0.262098 -0.0631003)
(1.10714 -0.434777 0.0381504)
(0.83387 -0.0772379 0.0540836)
(1.04223 0.00989995 -0.0102451)
(0.973028 0.0784063 -0.00740367)
(1.09424 0.23395 0.0353156)
(1.25366 0.162306 0.0193649)
(1.29378 0.06664 0.0076103)
(1.30561 -0.0579385 0.0268654)
(1.2756 -0.0649644 0.0207074)
(1.30289 -0.134649 -0.00737626)
(1.07958 -0.196745 -0.0378454)
(1.06361 -0.12639 -0.0297288)
(1.12664 -0.14391 0.0267128)
(0.996219 -0.143308 0.0337976)
(1.04117 -0.000213748 -0.00225504)
(0.974576 0.0491826 -0.0245663)
(1.03223 0.0664519 -0.0310598)
(0.947801 -0.157946 -0.0211825)
(0.846997 -0.240288 0.0292993)
(0.864824 -0.302523 0.0183242)
(0.678805 -0.108386 0.0418235)
(0.522413 0.199745 0.0478254)
(1.0176 0.0469913 -0.00254474)
(0.991595 0.0180664 -0.000101551)
(1.04759 0.112865 0.00768442)
(1.18342 0.0979184 0.00266391)
(1.17844 0.0099005 0.0216227)
(1.21986 -0.00949616 0.0197616)
(1.15662 -0.106065 -0.0107485)
(1.14989 -0.0653284 -0.0178665)
(1.12942 -0.06396 0.00783487)
(1.01928 -0.073665 0.00376759)
(1.03707 -0.0387646 0.00179074)
(0.949492 -0.0743034 -0.0126268)
(0.960318 -0.0795094 -0.012975)
(0.935685 -0.136458 0.00699203)
(0.989687 -0.036348 0.0077352)
(1.05885 -0.0071127 0.0109799)
(0.893162 0.00785235 0.0185214)
(0.882088 -0.187208 -0.0250523)
(0.591575 -0.127871 -0.0345014)
(0.606938 0.13454 0.00652653)
(0.996496 -0.00270792 0.000500448)
(1.02771 0.043774 -0.00179148)
(1.03579 0.0753305 -0.00149084)
(1.12538 0.057968 0.00776252)
(1.12427 0.0491278 0.00872441)
(1.16021 -0.0303121 -0.000926418)
(1.11582 -0.0276692 -0.0057924)
(1.07228 -0.0609052 -0.00518907)
(1.06802 -0.0713129 0.00113803)
(1.01372 -0.0433044 0.000750131)
(1.01369 -0.0749222 -0.000236924)
(0.976577 -0.0464599 -0.00149553)
(0.977376 -0.00429313 0.00110885)
(0.912026 0.00742015 0.00361243)
(0.88604 0.0117661 -0.00511304)
(0.913704 -0.0598836 -0.00115368)
(0.884902 -0.050265 0.0139136)
(0.968021 -0.0794345 0.00295849)
(0.738204 0.0413378 -0.0460046)
(0.797591 0.168398 -0.0301843)
(1.00182 0.0208973 0.000425394)
(0.99892 0.00232063 -0.00159713)
(1.03865 0.0327016 0.000370331)
(1.07337 0.0371755 0.00324532)
(1.09713 0.00359685 0.00120559)
(1.12142 0.00353246 -0.00136581)
(1.07564 -0.037816 -0.00139522)
(1.07506 -0.0154206 0.000320472)
(1.03502 -0.0318662 0.000381675)
(1.00152 -0.0228706 0.000401869)
(0.999258 -0.0248416 -0.000532006)
(0.928996 -0.0397747 0.00119534)
(0.942131 -0.0262879 -0.000861451)
(0.915225 -0.0490732 -0.000120227)
(0.929853 -0.0213641 0.00283103)
(0.916912 -0.0294317 -0.000339347)
(0.847608 -0.0301777 -0.00486353)
(0.857715 -0.0684419 0.00437402)
(0.736687 -0.00374621 -0.00799943)
(0.886132 0.0653542 -0.0120928)
(0.999243 -0.00663586 -2.55141e-05)
(1.01366 0.0130672 -0.000553927)
(1.02407 0.0142153 0.000448338)
(1.06926 0.00446896 0.000908515)
(1.07374 0.0134666 0.000209316)
(1.10123 -0.00834471 -0.000377374)
(1.07146 -0.00114816 -0.000317579)
(1.05096 -0.0162245 -1.50103e-05)
(1.03501 -0.0125687 0.000258906)
(0.991476 -0.0108628 -0.000329822)
(0.992869 -0.0124475 -0.000408227)
(0.941183 -0.000183653 -4.21364e-05)
(0.945821 0.00300281 7.60573e-05)
(0.909862 0.012193 -2.78401e-05)
(0.901692 0.011937 0.000278856)
(0.903388 0.00216447 0.00030639)
(0.860545 0.00702834 0.000101314)
(0.881345 0.00544893 0.00119625)
(0.779194 0.0312737 -0.00316417)
(0.91387 0.0471466 -0.00338177)
(1.01045 -0.00757914 -9.15314e-05)
(1.00031 -0.00435237 0.000138963)
(1.01477 -0.00561047 0.000165397)
(1.06903 -0.0183192 -6.76574e-05)
(1.10517 -0.0236429 -0.000191178)
(1.11279 -0.0177723 -0.000224658)
(1.09647 -0.00841995 -7.12313e-05)
(1.07838 -0.0155876 0.000137487)
(1.05416 -0.00601023 0.000140836)
(1.0584 -0.00120698 7.22871e-05)
(0.991891 -0.000137558 -2.15735e-05)
(0.974015 0.00984834 9.51907e-05)
(0.909255 0.0122251 -6.6504e-05)
(0.876038 0.0139536 -0.000215289)
(0.802894 -0.0223639 0.001081)
(0.851442 -0.0170531 0.00228398)
(0.857329 -0.0275277 0.00166151)
(0.86137 -0.0461994 0.00177439)
(0.917458 -0.00842178 0.00112307)
(0.954827 -0.01262 0.000293421)
(1.0055 -0.00675669 -0.000274366)
(1.00768 0.00909912 0.000489718)
(1.02413 -0.0514839 0.000222662)
(1.07208 -0.0541737 -0.000276089)
(1.11008 -0.00620056 -0.000138228)
(1.13527 0.0243353 -0.000928829)
(1.10302 0.0374714 -0.00016823)
(1.0838 0.050716 0.000342409)
(1.07811 0.0219716 0.000468078)
(1.07022 0.0532165 0.000452342)
(1.00538 0.0717638 -0.000142175)
(0.994534 0.0520755 -6.25128e-05)
(0.917528 0.0704212 0.000787256)
(0.852672 0.0603531 -0.000701594)
(0.770207 0.0585454 0.00163305)
(0.853234 0.0118 0.00979069)
(0.836922 0.0570626 0.00624049)
(0.868411 0.0256875 0.00486886)
(0.962385 -0.0518199 0.00334784)
(0.965316 -0.0135773 0.000359267)
(1.01053 -0.0250743 -0.000852907)
(1.0114 -0.0119895 0.00219946)
(1.04252 -0.0603638 -1.80651e-05)
(1.09938 -0.0987287 -0.00137099)
(1.16819 -0.0663641 -0.00228445)
(1.16762 -0.0278131 -0.00210169)
(1.13578 0.033893 -0.000506374)
(1.10736 0.00270448 -0.000638117)
(1.08481 0.00606484 0.000810297)
(1.10404 0.058851 0.0020687)
(1.01505 0.059125 -0.000811971)
(0.999067 0.0812866 0.00334913)
(0.921289 0.140111 -0.00145698)
(0.898522 0.123105 -0.00480539)
(0.786214 0.00115009 0.015324)
(0.824455 0.0707986 0.0162792)
(0.883004 0.0599958 0.0176249)
(0.839875 -0.0799522 0.0218903)
(0.892466 -0.0327641 0.0125084)
(0.978512 0.0011253 0.00240556)
(0.994979 -0.0396564 -0.00163444)
(1.02917 0.0127625 0.00653958)
(1.06467 -0.120422 -0.00458282)
(1.14584 -0.146174 -0.00749853)
(1.19443 -0.0659646 -0.00267715)
(1.21988 0.0324257 -0.00499854)
(1.19401 0.084608 -0.00547943)
(1.16292 0.0819232 0.00189048)
(1.15328 0.0466562 0.0103407)
(1.15744 0.135066 -0.00457357)
(1.03511 0.160707 -0.00390418)
(1.02012 0.14525 0.00496987)
(1.00827 0.127252 -0.0130505)
(0.936258 0.101565 0.00953819)
(0.738852 0.291094 0.0165389)
(0.820885 0.218249 0.0102918)
(0.868896 0.326215 0.0127466)
(0.76466 0.288717 0.0063524)
(0.944877 -0.00194962 0.00584552)
(1.06114 -0.0410503 0.000645319)
(1.0034 -0.0593669 -0.00140701)
(1.07301 -0.0256627 0.0127102)
(1.09566 -0.191328 0.0028888)
(1.28332 -0.266333 -0.0241861)
(1.29305 -0.118239 -0.0174859)
(1.28578 -0.109447 0.0100829)
(1.35746 0.0470262 -0.00208398)
(1.20933 0.0325282 -0.0227465)
(1.1647 0.102779 -0.0196411)
(1.08514 0.127394 0.0151754)
(1.12563 0.123633 0.0241258)
(1.16337 0.166724 -0.00675705)
(0.968279 0.185214 -0.00452794)
(0.847176 0.401361 0.00407866)
(0.863137 0.238081 -0.0295694)
(0.791495 0.158522 -0.00636988)
(0.673715 0.272293 0.00666014)
(0.621818 -0.0583013 0.0390493)
(0.886387 -0.138096 0.0225515)
(0.973513 -0.039056 -0.00525544)
(1.04271 -0.125117 0.00388322)
(1.01041 0.0416905 -0.0106944)
(1.16464 -0.275074 0.01836)
(1.42142 -0.361899 0.0375626)
(1.40861 -0.175057 -0.0313634)
(1.48621 0.0594129 -0.00878581)
(1.61913 0.121174 0.0382978)
(1.4291 -0.0205204 0.0108414)
(1.36758 0.108538 -0.019557)
(1.33052 0.330369 -0.0227609)
(1.14614 0.286637 -0.0210984)
(1.17976 0.248275 0.00244523)
(1.06573 0.254788 0.0103101)
(1.23026 0.129338 -0.0288889)
(1.2987 0.294535 -0.0122412)
(0.942887 0.363719 -0.00500941)
(0.847823 0.441531 -0.00759356)
(0.686834 0.302478 0.00454394)
(0.790428 -0.195098 0.00385865)
(1.07828 -0.112058 -0.00857066)
(1.00602 -0.0945569 0.0158443)
(1.21867 -0.176773 -0.0133192)
(1.28861 -0.478565 -0.0474882)
(1.49423 -0.347204 -0.0640411)
(1.51554 -0.0152014 0.0964675)
(1.7025 -0.264973 -0.0483771)
(1.50483 0.368006 -0.0244217)
(1.38974 0.137212 0.0835456)
(1.77509 -0.0347027 0.0784043)
(1.70517 0.151682 -0.0192185)
(1.5713 0.200262 -0.0133263)
(1.41158 0.362225 0.0302333)
(1.19842 0.181595 0.00673089)
(1.27726 0.00867287 -0.00768191)
(1.127 0.488644 0.000907308)
(0.909424 0.294937 -0.0712946)
(0.895824 0.00548342 -0.0769151)
(0.835716 -0.202701 -0.079665)
(1.08576 -0.602595 -0.051849)
(1.17973 -0.444686 0.0044556)
(1.007 -0.26975 0.0328169)
(1.15435 -0.186214 0.0333296)
(1.63294 -0.893972 -0.112755)
(1.9423 -1.02091 0.0197336)
(1.86799 0.0508107 0.021977)
(1.64537 0.173789 0.0306359)
(1.4399 0.441737 -0.0553856)
(1.08122 0.227961 0.0147315)
(1.63244 0.125387 0.0108628)
(1.7263 0.192001 0.0194584)
(1.42602 0.327344 0.0201201)
(1.60575 0.62287 -0.0634472)
(1.67148 0.477345 -0.0181805)
(1.7621 0.270527 0.036712)
(1.4183 0.696567 -0.0818981)
(1.22077 0.177652 -0.114358)
(1.41083 -0.0348051 -0.0276152)
(1.44976 -0.30917 0.0501641)
(1.37737 -0.803131 0.00169415)
(1.30313 -0.242883 -0.00249057)
(1.33355 0.0992403 0.0571004)
(1.31251 -0.622586 -0.0259719)
(1.83185 -1.59332 -0.0594435)
(0.167207 0.0671356 -0.131518)