/*--------------------------------*- C++ -*----------------------------------*\
  =========                 |
  \\      /  F ield         | OpenFOAM: The Open Source CFD Toolbox
   \\    /   O peration     | Website:  https://openfoam.org
    \\  /    A nd           | Version:  8
     \\/     M anipulation  |
\*---------------------------------------------------------------------------*/
FoamFile
{
    version     2.0;
    format      ascii;
    class       surfaceScalarField;
    location    "11";
    object      phi;
}
// * * * * * * * * * * * * * * * * * * * * * * * * * * * * * * * * * * * * * //

dimensions      [0 3 -1 0 0 0 0];

internalField   nonuniform List<scalar> 
880
(
-5.73552e-06
5.73553e-06
-1.14535e-05
5.71798e-06
-1.68834e-05
5.42985e-06
-2.18935e-05
5.01016e-06
-2.63691e-05
4.47562e-06
-3.02148e-05
3.84565e-06
-3.33594e-05
3.1446e-06
-3.57485e-05
2.38909e-06
-3.7398e-05
1.64951e-06
-3.82245e-05
8.26487e-07
-3.86932e-05
4.68711e-07
-5.79363e-07
-3.81138e-05
-6.00501e-06
1.17405e-05
-1.19883e-05
1.17013e-05
-1.76661e-05
1.11077e-05
-2.28997e-05
1.02438e-05
-2.75693e-05
9.14516e-06
-3.15783e-05
7.85465e-06
-3.48606e-05
6.42691e-06
-3.73671e-05
4.89565e-06
-3.91102e-05
3.39253e-06
-4.00443e-05
1.76064e-06
-4.05812e-05
1.00564e-06
-1.11302e-06
-4.00476e-05
-6.30182e-06
1.80424e-05
-1.25759e-05
1.79754e-05
-1.85202e-05
1.70519e-05
-2.39854e-05
1.5709e-05
-2.88422e-05
1.4002e-05
-3.29801e-05
1.19925e-05
-3.63025e-05
9.74931e-06
-3.87399e-05
7.33305e-06
-4.02052e-05
4.85786e-06
-4.07209e-05
2.27638e-06
-3.99418e-05
2.2647e-07
-2.73418e-06
-3.83206e-05
-6.76167e-06
2.4804e-05
-1.34858e-05
2.46995e-05
-1.98426e-05
2.34088e-05
-2.56693e-05
2.15356e-05
-3.0829e-05
1.91617e-05
-3.52103e-05
1.63738e-05
-3.87273e-05
1.32663e-05
-4.13238e-05
9.92957e-06
-4.2927e-05
6.46101e-06
-4.35104e-05
2.85986e-06
-4.27264e-05
-5.57595e-07
-4.33788e-06
-4.11227e-05
-7.4051e-06
3.22091e-05
-1.47564e-05
3.20509e-05
-2.16855e-05
3.03378e-05
-2.80087e-05
2.78587e-05
-3.3579e-05
2.47321e-05
-3.82777e-05
2.10724e-05
-4.2012e-05
1.70006e-05
-4.47052e-05
1.26228e-05
-4.62941e-05
8.04989e-06
-4.6774e-05
3.33976e-06
-4.60285e-05
-1.30312e-06
-6.1915e-06
-4.41748e-05
-8.26064e-06
4.04698e-05
-1.64409e-05
4.02312e-05
-2.41218e-05
3.80187e-05
-3.10906e-05
3.48275e-05
-3.71942e-05
3.08357e-05
-4.23119e-05
2.61901e-05
-4.63618e-05
2.10505e-05
-4.92876e-05
1.55486e-05
-5.10453e-05
9.80759e-06
-5.1606e-05
3.90041e-06
-5.08532e-05
-2.0559e-06
-8.09642e-06
-4.89483e-05
-9.36955e-06
4.98393e-05
-1.86132e-05
4.94748e-05
-2.72497e-05
4.66552e-05
-3.50226e-05
4.26005e-05
-4.17797e-05
3.75927e-05
-4.73996e-05
3.181e-05
-5.18165e-05
2.54675e-05
-5.49891e-05
1.87212e-05
-5.6888e-05
1.17065e-05
-5.75053e-05
4.51767e-06
-5.68171e-05
-2.74412e-06
-1.0078e-05
-5.48355e-05
-1.07965e-05
6.06358e-05
-2.13809e-05
6.00591e-05
-3.12095e-05
5.64838e-05
-3.99538e-05
5.13449e-05
-4.74839e-05
4.51228e-05
-5.36816e-05
3.80076e-05
-5.85149e-05
3.03008e-05
-6.19721e-05
2.21784e-05
-6.40554e-05
1.37899e-05
-6.47695e-05
5.23179e-06
-6.4096e-05
-3.41765e-06
-1.21169e-05
-6.20572e-05
-1.26252e-05
7.3261e-05
-2.4885e-05
7.2319e-05
-3.61876e-05
6.77864e-05
-4.60774e-05
6.12347e-05
-5.44919e-05
5.35373e-05
-6.13167e-05
4.48324e-05
-6.65834e-05
3.55676e-05
-7.03255e-05
2.59205e-05
-7.25873e-05
1.60517e-05
-7.34003e-05
6.04476e-06
-7.27669e-05
-4.05099e-06
-1.42081e-05
-7.06757e-05
-1.50472e-05
8.83083e-05
-2.93871e-05
8.66588e-05
-4.25023e-05
8.09016e-05
-5.36792e-05
7.24116e-05
-6.30541e-05
6.29122e-05
-7.05046e-05
5.22829e-05
-7.61752e-05
4.12381e-05
-8.01656e-05
2.99108e-05
-8.25803e-05
1.84664e-05
-8.34866e-05
6.95107e-06
-8.29052e-05
-4.63243e-06
-1.63087e-05
-8.08045e-05
-1.80363e-05
0.000106345
-3.49506e-05
0.000103573
-5.03303e-05
9.62813e-05
-6.30042e-05
8.50855e-05
-7.3437e-05
7.33449e-05
-8.14638e-05
6.03097e-05
-8.74472e-05
4.72216e-05
-9.15957e-05
3.40593e-05
-9.41013e-05
2.09721e-05
-9.50807e-05
7.93043e-06
-9.45798e-05
-5.13333e-06
-1.83384e-05
-9.25502e-05
-2.29305e-05
0.000129275
-4.29778e-05
0.00012362
-6.11676e-05
0.000114471
-7.49741e-05
9.8892e-05
-8.62661e-05
8.46369e-05
-9.45365e-05
6.85801e-05
-0.000100582
5.32672e-05
-0.000104694
3.81712e-05
-0.000107172
2.34502e-05
-0.00010819
8.94824e-06
-0.000107813
-5.50981e-06
-2.0165e-05
-0.000105987
-2.76253e-05
0.0001569
-5.14792e-05
0.000147474
-7.2959e-05
0.000135951
-8.84871e-05
0.00011442
-0.000100985
9.71343e-05
-0.000109543
7.71388e-05
-0.000115552
5.92761e-05
-0.000119444
4.20633e-05
-0.000121738
2.57436e-05
-0.000122724
9.9352e-06
-0.000122529
-5.70488e-06
-2.16563e-05
-0.000121038
-4.04187e-05
0.000197319
-6.89063e-05
0.000175962
-9.45324e-05
0.000161577
-0.000109579
0.000129467
-0.000121483
0.000109038
-0.000128397
8.40524e-05
-0.000133162
6.40411e-05
-0.000136038
4.49398e-05
-0.000137748
2.74536e-05
-0.000138647
1.0834e-05
-0.000138774
-5.57816e-06
-2.2276e-05
-0.000138154
-4.72556e-05
0.000244575
-8.14233e-05
0.00021013
-0.000111398
0.000191552
-0.000128133
0.000146203
-0.000140821
0.000121725
-0.000147232
9.04643e-05
-0.000151305
6.81132e-05
-0.00015334
4.6975e-05
-0.000154419
2.85328e-05
-0.000154947
1.13625e-05
-0.000155334
-5.1913e-06
-2.23323e-05
-0.000155278
-8.92915e-05
0.000333866
-0.000125767
0.000246605
-0.000158186
0.000223971
-0.00016795
0.000155967
-0.000174162
0.000127936
-0.000174683
9.09861e-05
-0.000174135
6.75645e-05
-0.000172984
4.58239e-05
-0.000172343
2.78926e-05
-0.000172588
1.16073e-05
-0.000173659
-4.12002e-06
-2.01815e-05
-0.00017581
-9.59732e-05
0.000429839
-0.000143385
0.000294017
-0.000181343
0.000261929
-0.000192119
0.000166743
-0.000197442
0.00013326
-0.000195873
8.94166e-05
-0.00019324
6.49316e-05
-0.000190249
4.28328e-05
-0.00018826
2.59035e-05
-0.000187579
1.09267e-05
-0.000188787
-2.91237e-06
-1.75047e-05
-0.000191464
-0.000260443
0.000690282
-0.000271862
0.000305437
-0.000280516
0.000270583
-0.000265186
0.000151412
-0.000245805
0.000113878
-0.000231538
7.51503e-05
-0.000218355
5.17488e-05
-0.000209865
3.43426e-05
-0.000204841
2.08791e-05
-0.000203563
9.6493e-06
-0.000205798
-6.77555e-07
-1.10132e-05
-0.00021229
-0.000321408
0.00101169
-0.000320902
0.000304931
-0.000320662
0.000270343
-0.000287932
0.000118681
-0.000258077
8.40236e-05
-0.000234348
5.14209e-05
-0.000214889
3.22897e-05
-0.000201843
2.12974e-05
-0.000193531
1.25666e-05
-0.000189873
5.99133e-06
-0.000190741
1.90647e-07
-5.88306e-06
-0.000195871
0.00101169
0.00131662
0.00158696
0.00170565
0.00178967
0.00184109
0.00187338
0.00189468
0.00190724
0.00191323
0.00191343
0.00190754
-2.91653e-05
1.0589e-05
-1.95376e-05
-2.23635e-05
3.99173e-06
-1.07935e-05
-1.80979e-05
-1.38656e-06
-2.87909e-06
-1.42521e-05
-5.59558e-06
1.74985e-06
-1.06587e-05
-8.7979e-06
5.20452e-06
-7.08734e-06
-1.11371e-05
7.56564e-06
-3.51047e-06
-1.26608e-05
9.0839e-06
-1.31167e-05
9.60625e-06
-3.13087e-05
1.85019e-06
-2.46011e-05
-2.71591e-06
-2.00948e-05
-5.89282e-06
-1.59896e-05
-9.70085e-06
-1.20926e-05
-1.26948e-05
-8.12655e-06
-1.51031e-05
-4.05423e-06
-1.67331e-05
-1.71709e-05
-3.3735e-05
-2.73537e-06
-2.93321e-05
-7.11881e-06
-2.46204e-05
-1.06046e-05
-1.99031e-05
-1.44181e-05
-1.50322e-05
-1.75658e-05
-1.00508e-05
-2.00845e-05
-4.99088e-06
-2.1793e-05
-2.21618e-05
-3.67215e-05
-7.13653e-06
-3.23387e-05
-1.15016e-05
-2.7493e-05
-1.54503e-05
-2.24836e-05
-1.94275e-05
-1.71732e-05
-2.28762e-05
-1.15978e-05
-2.56598e-05
-5.79676e-06
-2.75941e-05
-2.79586e-05
-4.07701e-05
-1.05413e-05
-3.66296e-05
-1.56421e-05
-3.16593e-05
-2.04206e-05
-2.60984e-05
-2.49884e-05
-2.00329e-05
-2.89417e-05
-1.35556e-05
-3.21371e-05
-6.78192e-06
-3.43678e-05
-3.47405e-05
-4.55473e-05
-1.39423e-05
-4.12368e-05
-1.99526e-05
-3.59758e-05
-2.56816e-05
-2.99171e-05
-3.1047e-05
-2.31232e-05
-3.57357e-05
-1.5721e-05
-3.95393e-05
-7.88948e-06
-4.21993e-05
-4.263e-05
-5.14859e-05
-1.72919e-05
-4.69583e-05
-2.44803e-05
-4.12757e-05
-3.13642e-05
-3.45367e-05
-3.7786e-05
-2.6845e-05
-4.34274e-05
-1.83279e-05
-4.80564e-05
-9.22782e-06
-5.12994e-05
-5.18578e-05
-5.85928e-05
-2.07563e-05
-5.37672e-05
-2.93058e-05
-4.75818e-05
-3.75495e-05
-4.00738e-05
-4.5294e-05
-3.13471e-05
-5.21542e-05
-2.15012e-05
-5.79022e-05
-1.08769e-05
-6.19238e-05
-6.27347e-05
-6.70727e-05
-2.43593e-05
-6.1929e-05
-3.44495e-05
-5.51942e-05
-4.42843e-05
-4.68157e-05
-5.36726e-05
-3.68953e-05
-6.20746e-05
-2.54389e-05
-6.93586e-05
-1.29509e-05
-7.44118e-05
-7.56855e-05
-7.70996e-05
-2.80642e-05
-7.16783e-05
-3.98708e-05
-6.44147e-05
-5.15479e-05
-5.51103e-05
-6.2977e-05
-4.38813e-05
-7.33036e-05
-3.04605e-05
-8.27793e-05
-1.56861e-05
-8.91862e-05
-9.13717e-05
-8.88538e-05
-3.17606e-05
-8.32668e-05
-4.54577e-05
-7.55524e-05
-5.92624e-05
-6.52404e-05
-7.3289e-05
-5.25466e-05
-8.59974e-05
-3.66719e-05
-9.8654e-05
-1.91378e-05
-0.00010672
-0.000110509
-0.00010253
-3.52175e-05
-9.71092e-05
-5.08783e-05
-8.93953e-05
-6.69763e-05
-7.83387e-05
-8.43455e-05
-6.4615e-05
-9.97211e-05
-4.57055e-05
-0.000117563
-2.46832e-05
-0.000127743
-0.000135193
-0.00011796
-3.82957e-05
-0.000112744
-5.6094e-05
-0.000105038
-7.46831e-05
-9.29591e-05
-9.64241e-05
-7.79464e-05
-0.000114734
-5.55276e-05
-0.000139982
-3.07408e-05
-0.00015253
-0.000165933
-0.000136481
-3.99682e-05
-0.000132954
-5.96217e-05
-0.000127481
-8.01562e-05
-0.000116421
-0.000107484
-0.000102218
-0.000128936
-7.5431e-05
-0.000166769
-4.51364e-05
-0.000182824
-0.00021107
-0.000154474
-4.07724e-05
-0.000151735
-6.23609e-05
-0.000147319
-8.45718e-05
-0.000136021
-0.000118782
-0.000121939
-0.000143018
-9.10992e-05
-0.000197609
-5.72122e-05
-0.000216711
-0.000268282
-0.000178929
-3.76532e-05
-0.000181824
-5.94661e-05
-0.000184711
-8.16849e-05
-0.000181314
-0.000122179
-0.000175407
-0.000148926
-0.000142629
-0.000230387
-0.000103527
-0.000255813
-0.000371809
-0.000195623
-3.34939e-05
-0.000199942
-5.51468e-05
-0.000204937
-7.66903e-05
-0.000203336
-0.00012378
-0.000201587
-0.000150674
-0.000168206
-0.000263769
-0.000133505
-0.000290514
-0.000505313
-0.000223215
-2.25682e-05
-0.000240131
-3.82309e-05
-0.000261659
-5.51621e-05
-0.000288956
-9.64829e-05
-0.000319229
-0.000120401
-0.000319927
-0.000263071
-0.000307432
-0.00030301
-0.000812745
-0.000204838
-1.36018e-05
-0.000220211
-2.2858e-05
-0.000236895
-3.84774e-05
-0.000261604
-7.17739e-05
-0.000282245
-9.97601e-05
-0.000282698
-0.000262618
-0.000266624
-0.000319083
-0.00107937
0.00189394
0.00187108
0.00183261
0.00176083
0.00166107
0.00139845
0.00107937
-5.22984e-07
5.22984e-07
-9.53251e-07
4.30267e-07
-1.2166e-06
2.63353e-07
-1.28558e-06
6.89741e-08
-1.15902e-06
-1.26562e-07
-8.67069e-07
-2.91946e-07
-4.58134e-07
-4.08936e-07
-4.58134e-07
-5.90868e-07
1.11385e-06
-1.0699e-06
9.09301e-07
-1.3527e-06
5.46151e-07
-1.40248e-06
1.18756e-07
-1.25311e-06
-2.75932e-07
-9.34895e-07
-6.10163e-07
-4.93715e-07
-8.50115e-07
-9.51849e-07
-8.64171e-07
1.97802e-06
-1.52903e-06
1.57416e-06
-1.90091e-06
9.18023e-07
-1.98047e-06
1.98321e-07
-1.75647e-06
-4.9993e-07
-1.29583e-06
-1.07081e-06
-6.78785e-07
-1.46716e-06
-1.63063e-06
-1.07183e-06
3.04985e-06
-1.87517e-06
2.37751e-06
-2.2875e-06
1.33035e-06
-2.29067e-06
2.01496e-07
-1.99961e-06
-7.90995e-07
-1.47028e-06
-1.60014e-06
-7.6993e-07
-2.16751e-06
-2.40056e-06
-1.97897e-06
5.02882e-06
-3.27396e-06
3.6725e-06
-3.81572e-06
1.8721e-06
-3.79323e-06
1.7901e-07
-3.23693e-06
-1.3473e-06
-2.32465e-06
-2.51241e-06
-1.19942e-06
-3.29274e-06
-3.59999e-06
-2.45358e-06
7.4824e-06
-4.03022e-06
5.24914e-06
-4.6146e-06
2.45648e-06
-4.41471e-06
-2.08762e-08
-3.7303e-06
-2.0317e-06
-2.68452e-06
-3.5582e-06
-1.38769e-06
-4.58956e-06
-4.98767e-06
-5.47891e-06
1.29613e-05
-8.07759e-06
7.84782e-06
-8.3158e-06
2.69469e-06
-7.59616e-06
-7.40512e-07
-6.11508e-06
-3.51279e-06
-4.23303e-06
-5.44026e-06
-2.13963e-06
-6.68296e-06
-7.12731e-06
-6.57627e-06
-9.52193e-06
-9.70633e-06
-8.697e-06
-7.00527e-06
-4.87989e-06
-2.47894e-06
)
;

boundaryField
{
    movingWall
    {
        type            calculated;
        value           uniform 0;
    }
    fixedWalls
    {
        type            calculated;
        value           uniform 0;
    }
    frontAndBack
    {
        type            empty;
        value           nonuniform List<scalar> 0();
    }
}


// ************************************************************************* //
