/*--------------------------------*- C++ -*----------------------------------*\
  =========                 |
  \\      /  F ield         | OpenFOAM: The Open Source CFD Toolbox
   \\    /   O peration     | Website:  https://openfoam.org
    \\  /    A nd           | Version:  8
     \\/     M anipulation  |
\*---------------------------------------------------------------------------*/
FoamFile
{
    version     2.0;
    format      ascii;
    class       volVectorField;
    location    "11";
    object      U;
}
// * * * * * * * * * * * * * * * * * * * * * * * * * * * * * * * * * * * * * //

dimensions      [0 1 -1 0 0 0 0];

internalField   nonuniform List<vector> 
464
(
(-5.73448e-05 5.66046e-05 0)
(-0.000172521 5.64396e-05 0)
(-0.000284781 5.36052e-05 0)
(-0.000389565 4.94735e-05 0)
(-0.000484821 4.42029e-05 0)
(-0.0005684 3.79705e-05 0)
(-0.000638235 3.09837e-05 0)
(-0.000694896 2.32486e-05 0)
(-0.000731307 1.51585e-05 0)
(-0.000769399 5.67438e-06 0)
(-0.000751029 -2.68391e-06 0)
(-0.000808378 -1.04249e-05 0)
(-6.00455e-05 0.000173588 0)
(-0.000180612 0.00017304 0)
(-0.00029805 0.00016431 0)
(-0.000407567 0.000151598 0)
(-0.000507018 0.00013542 0)
(-0.000594147 0.000116388 0)
(-0.000667019 9.52916e-05 0)
(-0.000726011 7.28252e-05 0)
(-0.000765003 5.14194e-05 0)
(-0.000804174 2.78777e-05 0)
(-0.000788971 2.20748e-05 0)
(-0.000846287 -1.20299e-05 0)
(-6.30224e-05 0.000296508 0)
(-0.000189522 0.000295473 0)
(-0.000312592 0.000280419 0)
(-0.00042712 0.000258511 0)
(-0.000530805 0.000230646 0)
(-0.00062115 0.000197854 0)
(-0.000695966 0.000161352 0)
(-0.000754171 0.000122273 0)
(-0.000792495 8.32029e-05 0)
(-0.000815754 4.16528e-05 0)
(-0.000807715 1.69003e-05 0)
(-0.000795482 -3.3729e-05 0)
(-6.76364e-05 0.000426367 0)
(-0.000203323 0.0004247 0)
(-0.000335106 0.000402742 0)
(-0.000457406 0.000370833 0)
(-0.000567757 0.000330308 0)
(-0.000663537 0.000282627 0)
(-0.000742707 0.000229383 0)
(-0.000804276 0.00017192 0)
(-0.000845746 0.000112266 0)
(-0.000870603 5.0365e-05 0)
(-0.000864465 -7.32442e-06 0)
(-0.000849934 -7.39296e-05 0)
(-7.40974e-05 0.000567323 0)
(-0.00022262 0.000564773 0)
(-0.000366525 0.000534998 0)
(-0.000499555 0.000491832 0)
(-0.000619012 0.000437217 0)
(-0.000722075 0.000373147 0)
(-0.000806673 0.000301755 0)
(-0.000871288 0.000224968 0)
(-0.00091405 0.000145187 0)
(-0.000935344 6.30671e-05 0)
(-0.000932011 -1.56537e-05 0)
(-0.000907928 -0.000101433 0)
(-8.27002e-05 0.000723075 0)
(-0.000248248 0.000719244 0)
(-0.000408135 0.000680363 0)
(-0.000555187 0.000624167 0)
(-0.000686442 0.0005535 0)
(-0.000798999 0.000470954 0)
(-0.000890887 0.000379282 0)
(-0.000960844 0.000280832 0)
(-0.00100765 0.000177782 0)
(-0.00103144 7.13661e-05 0)
(-0.00102897 -3.56617e-05 0)
(-0.00100348 -0.000144583 0)
(-9.38765e-05 0.000898337 0)
(-0.000281389 0.000892536 0)
(-0.000461712 0.000842726 0)
(-0.000626419 0.000770988 0)
(-0.000772224 0.000681682 0)
(-0.000896293 0.000578066 0)
(-0.000996796 0.000463813 0)
(-0.00107279 0.000341808 0)
(-0.00112352 0.000214651 0)
(-0.00114879 8.4129e-05 0)
(-0.00114796 -4.72389e-05 0)
(-0.00112162 -0.000180575 0)
(-0.000108314 0.00109833 0)
(-0.000323806 0.00108947 0)
(-0.000529818 0.0010263 0)
(-0.000716232 0.0009355 0)
(-0.000879365 0.000824141 0)
(-0.00101687 0.000696036 0)
(-0.00112714 0.000556218 0)
(-0.00121001 0.000408036 0)
(-0.00126533 0.000254348 0)
(-0.00129333 9.70864e-05 0)
(-0.00129367 -6.19858e-05 0)
(-0.00126672 -0.000221862 0)
(-0.000126969 0.00133186 0)
(-0.000377813 0.00131721 0)
(-0.000615847 0.00123693 0)
(-0.000828582 0.00112141 0)
(-0.00101169 0.000983332 0)
(-0.00116422 0.000826232 0)
(-0.0012848 0.000657294 0)
(-0.00137466 0.000480143 0)
(-0.00143447 0.000297916 0)
(-0.00146512 0.000112482 0)
(-0.00146691 -7.47317e-05 0)
(-0.00143984 -0.000263085 0)
(-0.000152337 0.00159892 0)
(-0.000448301 0.00157709 0)
(-0.000725813 0.00147678 0)
(-0.000969834 0.00133064 0)
(-0.00117454 0.00116075 0)
(-0.00134291 0.000969125 0)
(-0.00147323 0.000766972 0)
(-0.00156938 0.000557781 0)
(-0.00163299 0.000344896 0)
(-0.00166598 0.000129732 0)
(-0.00166924 -8.69854e-05 0)
(-0.00164268 -0.000305137 0)
(-0.00018417 0.00194924 0)
(-0.000535551 0.00190255 0)
(-0.000862519 0.00177066 0)
(-0.00114462 0.00157298 0)
(-0.00137319 0.00136047 0)
(-0.001558 0.00112482 0)
(-0.00169614 0.000884171 0)
(-0.00179673 0.000639602 0)
(-0.00186252 0.000394381 0)
(-0.001897 0.000148725 0)
(-0.00190178 -9.79636e-05 0)
(-0.00187686 -0.000346758 0)
(-0.000241876 0.0022799 0)
(-0.000669991 0.00221961 0)
(-0.00105562 0.00206271 0)
(-0.00138004 0.00181885 0)
(-0.00162268 0.00156656 0)
(-0.00181922 0.001285 0)
(-0.00195844 0.00100428 0)
(-0.00205917 0.000722642 0)
(-0.00212387 0.000444566 0)
(-0.00215833 0.000168855 0)
(-0.00216472 -0.000106826 0)
(-0.00214318 -0.000385653 0)
(-0.000295244 0.00293516 0)
(-0.000803916 0.00276185 0)
(-0.00126349 0.00254949 0)
(-0.00164087 0.00215922 0)
(-0.00190704 0.00183635 0)
(-0.00212032 0.0014682 0)
(-0.0022585 0.00113177 0)
(-0.00235645 0.000805888 0)
(-0.0024163 0.000493613 0)
(-0.00244839 0.00018915 0)
(-0.00245628 -0.000114095 0)
(-0.0024401 -0.000422314 0)
(-0.000479466 0.00327815 0)
(-0.00112033 0.00308632 0)
(-0.00165837 0.00284122 0)
(-0.0020933 0.00238593 0)
(-0.00231346 0.00202302 0)
(-0.00252379 0.0016012 0)
(-0.0026207 0.00122917 0)
(-0.00269732 0.000871076 0)
(-0.0027406 0.00053376 0)
(-0.00276604 0.000208579 0)
(-0.00277619 -0.000111949 0)
(-0.00277178 -0.000438313 0)
(-0.0005596 0.0047126 0)
(-0.00131531 0.00402469 0)
(-0.0019636 0.00369115 0)
(-0.00246007 0.00283534 0)
(-0.0026917 0.00237455 0)
(-0.0029145 0.00178166 0)
(-0.00298867 0.00134651 0)
(-0.00305192 0.000933637 0)
(-0.00307882 0.000566895 0)
(-0.0030941 0.000223129 0)
(-0.00310316 -0.000114204 0)
(-0.00310708 -0.000460678 0)
(-0.0012715 0.00493591 0)
(-0.00224688 0.00428911 0)
(-0.00284617 0.00388023 0)
(-0.0034104 0.0029611 0)
(-0.00336567 0.00244827 0)
(-0.00355177 0.00181101 0)
(-0.00346836 0.00135896 0)
(-0.00347686 0.000934885 0)
(-0.00345107 0.000569709 0)
(-0.00344713 0.000233685 0)
(-0.00346002 -8.93982e-05 0)
(-0.0034914 -0.000421486 0)
(-0.00130237 0.00863245 0)
(-0.00249687 0.00568824 0)
(-0.00328849 0.00519718 0)
(-0.00389808 0.00333274 0)
(-0.00384193 0.00272064 0)
(-0.00400504 0.00185331 0)
(-0.00386495 0.00136191 0)
(-0.00384136 0.000906715 0)
(-0.00378005 0.00054835 0)
(-0.0037532 0.000226381 0)
(-0.00375828 -7.97693e-05 0)
(-0.00379516 -0.000398061 0)
(-0.00435294 0.00826986 0)
(-0.00587452 0.00595477 0)
(-0.0051767 0.00513568 0)
(-0.00588748 0.00328463 0)
(-0.00483768 0.00255244 0)
(-0.00490881 0.00169826 0)
(-0.00441205 0.00121513 0)
(-0.00428793 0.000796773 0)
(-0.00412853 0.000484434 0)
(-0.0040721 0.000215464 0)
(-0.00408099 -3.2497e-05 0)
(-0.00415795 -0.00028881 0)
(-0.00605881 0.0198683 0)
(-0.00665223 0.00633117 0)
(-0.0063032 0.00583555 0)
(-0.00639546 0.00275945 0)
(-0.00521724 0.00203971 0)
(-0.00503163 0.00130618 0)
(-0.00439683 0.000856187 0)
(-0.00416703 0.000572465 0)
(-0.00392972 0.00034366 0)
(-0.00381766 0.000164441 0)
(-0.00379119 3.17955e-06 0)
(-0.00383702 -0.000162429 0)
(0.0211341 0.0197957 0)
(0.020142 0.00573655 0)
(0.0317793 0.00479786 0)
(0.0322319 0.00195173 0)
(0.035597 0.00127927 0)
(0.0362375 0.000733309 0)
(0.0372419 0.000426075 0)
(0.0377085 0.000272008 0)
(0.0380366 0.000156922 0)
(0.0382184 7.73552e-05 0)
(0.0382771 5.18138e-06 0)
(0.0382297 -6.72289e-05 0)
(-0.000700239 0.000376955 0)
(-0.000477945 0.000195872 0)
(-0.000410599 3.80427e-05 0)
(-0.000317469 -5.67124e-05 0)
(-0.000250431 -0.000129764 0)
(-0.000177047 -0.000179588 0)
(-0.000105887 -0.000211749 0)
(-3.4896e-05 -0.000222398 0)
(-0.000739206 5.73551e-05 0)
(-0.000525063 -3.07019e-05 0)
(-0.000452684 -9.08631e-05 0)
(-0.000355367 -0.000162816 0)
(-0.000282106 -0.00021801 0)
(-0.000202431 -0.000262368 0)
(-0.000122057 -0.000291995 0)
(-4.04929e-05 -0.000300242 0)
(-0.000729155 1.3454e-05 0)
(-0.000626242 -8.12196e-05 0)
(-0.00054271 -0.000149414 0)
(-0.000444605 -0.000229988 0)
(-0.000349978 -0.000294244 0)
(-0.000251078 -0.000345544 0)
(-0.000150411 -0.000380423 0)
(-4.97435e-05 -0.000389258 0)
(-0.000786766 -0.00011976 0)
(-0.000687895 -0.000199328 0)
(-0.000601462 -0.000270021 0)
(-0.000500194 -0.000342379 0)
(-0.000397669 -0.000404762 0)
(-0.000288679 -0.000455398 0)
(-0.000174411 -0.000490862 0)
(-5.79005e-05 -0.00049796 0)
(-0.000854551 -0.000169197 0)
(-0.000776495 -0.000264571 0)
(-0.000685764 -0.000352229 0)
(-0.000579342 -0.000438649 0)
(-0.000462997 -0.000513758 0)
(-0.000337262 -0.000573926 0)
(-0.000204002 -0.000615479 0)
(-6.77871e-05 -0.000622834 0)
(-0.000949907 -0.000249358 0)
(-0.000870921 -0.000358067 0)
(-0.000775543 -0.000461538 0)
(-0.000661722 -0.000558851 0)
(-0.000532948 -0.000644103 0)
(-0.000390508 -0.000713093 0)
(-0.000237116 -0.000761323 0)
(-7.89463e-05 -0.000769086 0)
(-0.00106804 -0.000310475 0)
(-0.000988671 -0.000442363 0)
(-0.000886547 -0.000568183 0)
(-0.000761905 -0.000685424 0)
(-0.00061724 -0.000787879 0)
(-0.000454615 -0.00087129 0)
(-0.000277024 -0.000929663 0)
(-9.2446e-05 -0.000939228 0)
(-0.0012117 -0.000380203 0)
(-0.00112863 -0.000536933 0)
(-0.00101861 -0.000687351 0)
(-0.000881419 -0.000827847 0)
(-0.000718815 -0.000951652 0)
(-0.000532454 -0.00105398 0)
(-0.000325842 -0.00112564 0)
(-0.000109137 -0.00113861 0)
(-0.00138311 -0.000450696 0)
(-0.00129582 -0.000636479 0)
(-0.00117746 -0.00081638 0)
(-0.00102621 -0.000986416 0)
(-0.00084337 -0.00113772 0)
(-0.000628804 -0.00126632 0)
(-0.000386856 -0.00135608 0)
(-0.000130413 -0.00137613 0)
(-0.00158509 -0.000524012 0)
(-0.00149431 -0.000742473 0)
(-0.00136854 -0.00095657 0)
(-0.00120276 -0.00116273 0)
(-0.000998721 -0.00134751 0)
(-0.000751065 -0.00151003 0)
(-0.000466063 -0.0016217 0)
(-0.000159357 -0.00165186 0)
(-0.00182044 -0.00059846 0)
(-0.00172838 -0.000853254 0)
(-0.00159771 -0.00110782 0)
(-0.00141715 -0.00136186 0)
(-0.00119067 -0.00159324 0)
(-0.000903313 -0.00181445 0)
(-0.000565297 -0.00196121 0)
(-0.000196888 -0.00202097 0)
(-0.00209159 -0.000670068 0)
(-0.00200368 -0.000961692 0)
(-0.00187714 -0.0012561 0)
(-0.00168821 -0.00155877 0)
(-0.0014513 -0.00183015 0)
(-0.00111945 -0.00210975 0)
(-0.000716964 -0.00228196 0)
(-0.000263136 -0.00237121 0)
(-0.00239647 -0.000742681 0)
(-0.0023144 -0.00108218 0)
(-0.00219473 -0.00143735 0)
(-0.00199122 -0.00183778 0)
(-0.00174149 -0.00218844 0)
(-0.0013557 -0.0026331 0)
(-0.000879669 -0.00287354 0)
(-0.000338694 -0.00308824 0)
(-0.00275148 -0.000778956 0)
(-0.00269843 -0.00114522 0)
(-0.00263276 -0.00152524 0)
(-0.00243961 -0.00198375 0)
(-0.00224646 -0.0023553 0)
(-0.00180552 -0.00290701 0)
(-0.00123902 -0.00316007 0)
(-0.000544367 -0.00347443 0)
(-0.00310329 -0.000833757 0)
(-0.00306062 -0.00126237 0)
(-0.00303282 -0.00171431 0)
(-0.00282136 -0.00236496 0)
(-0.00266337 -0.00286574 0)
(-0.00216207 -0.00385107 0)
(-0.00152381 -0.00425339 0)
(-0.000731159 -0.00508752 0)
(-0.00355328 -0.000777593 0)
(-0.00357948 -0.00120113 0)
(-0.0037355 -0.00162344 0)
(-0.00359289 -0.00232015 0)
(-0.00373191 -0.00276813 0)
(-0.00319711 -0.0039339 0)
(-0.00258305 -0.00427499 0)
(-0.00148948 -0.00547732 0)
(-0.00388261 -0.000750046 0)
(-0.00390614 -0.0012116 0)
(-0.00415015 -0.00169518 0)
(-0.0039657 -0.00264466 0)
(-0.0042687 -0.00329437 0)
(-0.00367469 -0.00544027 0)
(-0.0031655 -0.00614915 0)
(-0.00207108 -0.00966195 0)
(-0.00436271 -0.000565932 0)
(-0.00452105 -0.000956052 0)
(-0.00516362 -0.00131317 0)
(-0.00519274 -0.00221426 0)
(-0.00651778 -0.00260196 0)
(-0.00605813 -0.00490407 0)
(-0.00695019 -0.00521181 0)
(-0.00510685 -0.0101633 0)
(-0.00403305 -0.000357016 0)
(-0.00410224 -0.000603922 0)
(-0.00480261 -0.000945894 0)
(-0.00453743 -0.00172706 0)
(-0.00611528 -0.0023419 0)
(-0.00493832 -0.00584784 0)
(-0.00664135 -0.00722384 0)
(-0.00373743 -0.0230335 0)
(0.0380041 -0.000174363 0)
(0.0378537 -0.000291877 0)
(0.0367273 -0.000556091 0)
(0.0369374 -0.00108057 0)
(0.0329582 -0.00154327 0)
(0.0341189 -0.00442046 0)
(0.0209863 -0.00520874 0)
(0.0231258 -0.0191795 0)
(-5.45019e-06 -2.40851e-07 0)
(-1.53954e-05 -8.53678e-07 0)
(-2.25472e-05 -1.79272e-06 0)
(-2.59248e-05 -3.10083e-06 0)
(-2.5276e-05 -3.86752e-06 0)
(-2.09112e-05 -4.61029e-06 0)
(-1.3624e-05 -5.0835e-06 0)
(-4.66594e-06 -5.24923e-06 0)
(-6.21839e-06 2.1767e-05 0)
(-1.73208e-05 1.85977e-05 0)
(-2.52888e-05 1.27166e-05 0)
(-2.85677e-05 6.04569e-06 0)
(-2.73391e-05 -9.75535e-07 0)
(-2.2586e-05 -6.7771e-06 0)
(-1.46682e-05 -1.09787e-05 0)
(-5.04017e-06 -1.27915e-05 0)
(-9.18231e-06 2.15373e-05 0)
(-2.52309e-05 1.66776e-05 0)
(-3.55997e-05 8.33211e-06 0)
(-4.01888e-05 -1.64427e-06 0)
(-3.86561e-05 -1.05287e-05 0)
(-3.13776e-05 -1.82425e-05 0)
(-2.02362e-05 -2.3658e-05 0)
(-6.87707e-06 -2.59e-05 0)
(-1.15995e-05 5.97631e-05 0)
(-3.10532e-05 4.8151e-05 0)
(-4.36188e-05 2.96989e-05 0)
(-4.74331e-05 1.01385e-05 0)
(-4.3942e-05 -8.70384e-06 0)
(-3.57234e-05 -2.3623e-05 0)
(-2.2895e-05 -3.40656e-05 0)
(-7.8456e-06 -3.8406e-05 0)
(-2.20679e-05 5.89989e-05 0)
(-5.65777e-05 4.42263e-05 0)
(-7.36208e-05 2.16433e-05 0)
(-7.85909e-05 -2.74922e-06 0)
(-7.24163e-05 -2.40731e-05 0)
(-5.67445e-05 -4.17848e-05 0)
(-3.5882e-05 -5.40331e-05 0)
(-1.20744e-05 -5.89577e-05 0)
(-2.77273e-05 0.000147349 0)
(-6.97771e-05 0.00010678 0)
(-9.0607e-05 5.58392e-05 0)
(-9.31522e-05 1.06285e-05 0)
(-8.29805e-05 -2.81916e-05 0)
(-6.56952e-05 -5.68483e-05 0)
(-4.13747e-05 -7.59212e-05 0)
(-1.40665e-05 -8.34217e-05 0)
(-6.58737e-05 0.000144527 0)
(-0.000151319 9.75152e-05 0)
(-0.000169789 3.90242e-05 0)
(-0.000162615 -1.17406e-05 0)
(-0.000139887 -5.53137e-05 0)
(-0.000104483 -8.7957e-05 0)
(-6.43099e-05 -0.00010999 0)
(-2.14174e-05 -0.000118241 0)
(-8.22199e-05 0.000386461 0)
(-0.00017864 0.000224706 0)
(-0.000199919 7.26809e-05 0)
(-0.000187503 -1.61442e-05 0)
(-0.000159207 -8.22377e-05 0)
(-0.000120398 -0.000126711 0)
(-7.42926e-05 -0.000154786 0)
(-2.49296e-05 -0.000164644 0)
)
;

boundaryField
{
    movingWall
    {
        type            fixedValue;
        value           uniform (1 0 0);
    }
    fixedWalls
    {
        type            noSlip;
    }
    frontAndBack
    {
        type            empty;
    }
}


// ************************************************************************* //
