/*--------------------------------*- C++ -*----------------------------------*\
  =========                 |
  \\      /  F ield         | OpenFOAM: The Open Source CFD Toolbox
   \\    /   O peration     | Website:  https://openfoam.org
    \\  /    A nd           | Version:  8
     \\/     M anipulation  |
\*---------------------------------------------------------------------------*/
FoamFile
{
    version     2.0;
    format      ascii;
    class       volVectorField;
    location    "56.5";
    object      U;
}
// * * * * * * * * * * * * * * * * * * * * * * * * * * * * * * * * * * * * * //

dimensions      [0 1 -1 0 0 0 0];

internalField   nonuniform List<vector> 
116
(
(0.0205491 -0.0118252 0)
(0.0179351 -0.0107126 0)
(0.0521162 -0.0201826 0)
(0.0125898 -0.0219623 0)
(0.0120811 0.0637225 0)
(-0.161399 0.0904056 0)
(0.0105583 -0.0289295 0)
(-0.00517092 -0.0184548 0)
(-0.0148618 0.020384 0)
(-0.0981458 0.0672062 0)
(-0.1139 0.0932525 0)
(-0.171272 0.0649512 0)
(-0.00288548 -0.0156043 0)
(-0.0326018 0.0176332 0)
(-0.0591321 0.0638785 0)
(-0.105624 0.0946553 0)
(-0.112 0.121622 0)
(-0.121059 0.0744632 0)
(-0.0101097 0.00447997 0)
(-0.0347572 0.04284 0)
(-0.0566568 0.0918324 0)
(-0.0854273 0.11712 0)
(-0.0812948 0.114132 0)
(-0.0613621 0.0424208 0)
(-0.00543581 0.0297182 0)
(-0.0262913 0.0632861 0)
(-0.043296 0.107004 0)
(-0.0510555 0.116285 0)
(-0.0419258 0.0969873 0)
(-0.0222495 0.0265651 0)
(-0.0032155 0.0346954 0)
(-0.0108015 0.0805028 0)
(-0.00989041 0.113492 0)
(-0.00789917 0.119188 0)
(-0.00430038 0.0956298 0)
(0.00477574 0.0349128 0)
(0.00189903 0.0480368 0)
(0.00228996 0.0724529 0)
(0.00285357 0.106087 0)
(0.0184883 0.106022 0)
(0.0281497 0.0800042 0)
(0.0455393 0.0320714 0)
(0.00771365 0.0261783 0)
(0.0142816 0.0795688 0)
(0.0382373 0.0945739 0)
(0.0637595 0.0976623 0)
(0.0759565 0.0763731 0)
(0.09374 0.0455381 0)
(-0.0568716 0.0331159 0)
(-0.0191051 0.0375602 0)
(-0.00837185 0.0573975 0)
(0.0396016 0.0634259 0)
(0.0620806 0.0465866 0)
(0.0922684 0.0325552 0)
(0.0527376 0.0903388 0)
(0.0839065 0.0419877 0)
(0.116088 0.0330571 0)
(0.179502 0.0300066 0)
(0.199888 0.0255443 0)
(0.252488 0.0223766 0)
(-0.111855 0.11692 0)
(-0.11562 -0.0328331 0)
(-0.0283206 0.00150999 0)
(-0.00705065 -0.13707 0)
(-0.108518 0.0805867 0)
(-0.11528 -0.0709932 0)
(-0.085401 -0.075295 0)
(0.00485814 -0.174448 0)
(-0.0777038 0.0574215 0)
(-0.0551463 -0.063598 0)
(-0.0757298 -0.117856 0)
(0.00027125 -0.220098 0)
(-0.0441922 0.0286522 0)
(-0.011389 -0.0658833 0)
(-0.0469253 -0.123097 0)
(0.0086124 -0.243214 0)
(-0.032118 0.00639395 0)
(0.00590604 -0.0686972 0)
(-0.0408436 -0.138093 0)
(0.0122309 -0.266499 0)
(-0.0150432 0.0034687 0)
(0.0316453 -0.0555985 0)
(-0.0258534 -0.120908 0)
(0.0200074 -0.272753 0)
(0.0228034 -0.0207423 0)
(0.0511612 -0.0657211 0)
(-0.0225255 -0.134961 0)
(0.0278046 -0.278075 0)
(0.0733356 0.00519574 0)
(0.0728263 -0.00884232 0)
(0.00998582 -0.0788687 0)
(0.0510046 -0.251836 0)
(0.0873571 -0.00035133 0)
(0.0940424 -0.0170008 0)
(0.0689929 -0.121672 0)
(0.0805993 -0.252933 0)
(0.248114 0.0141955 0)
(0.273971 0.00270608 0)
(0.215601 -0.0235317 0)
(0.152554 -0.067675 0)
(-0.0222924 0.00451612 0)
(-0.0582156 0.00467355 0)
(-0.0731337 -0.000201243 0)
(-0.044341 -0.0366183 0)
(-0.0194744 0.0730726 0)
(-0.0465273 0.0461021 0)
(-0.0434185 -0.00694643 0)
(-0.0431285 -0.0886071 0)
(-0.0362921 0.0711983 0)
(-0.00427517 0.018211 0)
(-0.014672 0.00424149 0)
(-0.0311805 -0.129632 0)
(-0.00785865 0.121946 0)
(-0.0423833 0.0289194 0)
(0.0303562 0.0247251 0)
(-0.0346954 -0.123532 0)
)
;

boundaryField
{
    movingWall
    {
        type            fixedValue;
        value           uniform (1 0 0);
    }
    fixedWalls
    {
        type            noSlip;
    }
    frontAndBack
    {
        type            empty;
    }
}


// ************************************************************************* //
