/*--------------------------------*- C++ -*----------------------------------*\
  =========                 |
  \\      /  F ield         | OpenFOAM: The Open Source CFD Toolbox
   \\    /   O peration     | Website:  https://openfoam.org
    \\  /    A nd           | Version:  8
     \\/     M anipulation  |
\*---------------------------------------------------------------------------*/
FoamFile
{
    version     2.0;
    format      ascii;
    class       volScalarField;
    location    "23.5";
    object      p;
}
// * * * * * * * * * * * * * * * * * * * * * * * * * * * * * * * * * * * * * //

dimensions      [0 2 -2 0 0 0 0];

internalField   nonuniform List<scalar> 
116
(
2.07601e-08
-0.00063996
-0.000324353
-0.00239496
0.00120511
-0.00791234
0.000155824
-0.000295405
0.000423211
-0.00170661
-0.000636596
-0.00334655
0.000239329
-7.16272e-05
9.47892e-05
-0.000951958
-0.00316024
-0.00829682
0.000272903
0.000128073
-1.19791e-05
-0.000997292
-0.0043782
-0.00920427
0.000169941
4.45845e-05
-0.000379197
-0.00111443
-0.00508067
-0.00928117
-0.000275286
-0.000202289
-0.000722703
-0.00101809
-0.00380232
-0.00607659
-1.10055e-05
-0.000328611
-0.000776208
-0.00100741
-0.00265661
-0.00448358
-0.00106088
-0.000526511
-0.000487659
3.55052e-05
-0.000510939
-0.00123787
0.000576113
-0.00111596
-0.000520386
-0.000725564
-0.000500916
-0.00169614
-0.00653495
0.000633163
0.00129164
0.0020393
0.00185098
0.000652162
0.000604784
0.00903432
0.00800086
0.013367
-0.00485781
-0.000410352
0.00271412
0.00586763
-0.0109547
-0.00744348
-0.00359372
-0.000963995
-0.01272
-0.00993311
-0.00780517
-0.00476749
-0.0126289
-0.00959043
-0.00912528
-0.00538318
-0.00832349
-0.00558806
-0.00688398
-0.00349326
-0.00678964
-0.0047538
-0.00717609
-0.000811448
-0.00192758
-0.00108532
-0.00218203
0.00649266
-0.00389173
-0.00332569
-0.00383346
0.0114157
-6.4272e-05
0.00500405
0.0147452
0.0498181
0.0152769
0.0154
0.0152477
0.0169116
0.0148407
0.0155854
0.0143285
0.0156466
0.0121958
0.0132285
0.0111592
0.0118234
0.00908911
0.0155952
0.00866438
0.0137895
)
;

boundaryField
{
    movingWall
    {
        type            zeroGradient;
    }
    fixedWalls
    {
        type            zeroGradient;
    }
    frontAndBack
    {
        type            empty;
    }
}


// ************************************************************************* //
