/*--------------------------------*- C++ -*----------------------------------*\
  =========                 |
  \\      /  F ield         | OpenFOAM: The Open Source CFD Toolbox
   \\    /   O peration     | Website:  https://openfoam.org
    \\  /    A nd           | Version:  8
     \\/     M anipulation  |
\*---------------------------------------------------------------------------*/
FoamFile
{
    version     2.0;
    format      ascii;
    class       volVectorField;
    location    "23.5";
    object      U;
}
// * * * * * * * * * * * * * * * * * * * * * * * * * * * * * * * * * * * * * //

dimensions      [0 1 -1 0 0 0 0];

internalField   nonuniform List<vector> 
116
(
(0.0125397 -0.00535012 0)
(-0.000246539 -0.0111606 0)
(0.0365066 -0.0116498 0)
(-0.00576824 -0.0216881 0)
(0.0187639 0.0425146 0)
(-0.149896 0.0912926 0)
(0.00719806 -0.00739717 0)
(-0.0116756 -0.00993178 0)
(-0.00744788 0.0131546 0)
(-0.0651531 0.0448111 0)
(-0.0871866 0.0879432 0)
(-0.152433 0.079023 0)
(0.00176151 -0.00156804 0)
(-0.0152682 0.00474048 0)
(-0.0278212 0.0357385 0)
(-0.0598831 0.0672592 0)
(-0.0767889 0.118367 0)
(-0.105734 0.100536 0)
(-0.0024831 0.00573431 0)
(-0.016252 0.0219665 0)
(-0.0259139 0.0583471 0)
(-0.0406926 0.0934975 0)
(-0.0488013 0.131707 0)
(-0.052436 0.0916003 0)
(-0.000495132 0.017154 0)
(-0.00945723 0.0286061 0)
(-0.0177238 0.0590198 0)
(-0.0100869 0.0876814 0)
(-0.00962909 0.123975 0)
(0.00794014 0.0784044 0)
(-0.00403459 0.0146485 0)
(-0.00481716 0.0385658 0)
(-0.00697451 0.0605662 0)
(0.010297 0.0850365 0)
(0.0177499 0.120972 0)
(0.0395627 0.0798981 0)
(0.00313339 0.0287336 0)
(-0.00156809 0.0318757 0)
(-0.0124632 0.0457673 0)
(0.00816517 0.0579771 0)
(0.0159065 0.0911988 0)
(0.0601774 0.0615826 0)
(0.000906114 0.00957947 0)
(0.00773289 0.0541003 0)
(0.0112398 0.0526854 0)
(0.022765 0.0601452 0)
(0.0250079 0.0764695 0)
(0.0659212 0.061424 0)
(-0.0657574 0.0255447 0)
(-0.0366002 0.0174468 0)
(-0.0571232 0.0292647 0)
(-0.0247203 0.0356887 0)
(-0.0168352 0.04151 0)
(0.034743 0.0380219 0)
(0.0509449 0.0987115 0)
(0.0870539 0.0560883 0)
(0.109559 0.0411419 0)
(0.163144 0.0294327 0)
(0.168258 0.021485 0)
(0.220861 0.0196345 0)
(-0.123503 0.106671 0)
(-0.113194 -0.0421916 0)
(-0.0519388 -0.00507669 0)
(0.00123464 -0.11885 0)
(-0.11226 0.0785291 0)
(-0.0971814 -0.0703494 0)
(-0.0937627 -0.0767494 0)
(0.00528519 -0.166069 0)
(-0.0769447 0.0551864 0)
(-0.0415284 -0.0681936 0)
(-0.0657717 -0.103347 0)
(0.000819016 -0.207205 0)
(-0.0343612 0.0288455 0)
(-0.00565967 -0.0785443 0)
(-0.0449579 -0.118037 0)
(0.0086365 -0.229107 0)
(0.00816201 0.0105607 0)
(0.0281824 -0.0657654 0)
(-0.0284408 -0.114275 0)
(0.0122263 -0.24182 0)
(0.023226 0.0165586 0)
(0.048636 -0.0389184 0)
(-0.0216076 -0.0926876 0)
(0.024156 -0.245226 0)
(0.0374603 0.00423761 0)
(0.0642103 -0.0348241 0)
(-0.031218 -0.0981951 0)
(0.0295064 -0.251003 0)
(0.039086 0.0249817 0)
(0.0578115 0.0264185 0)
(-0.0121159 -0.0410802 0)
(0.0533491 -0.232369 0)
(0.0295797 0.0109621 0)
(0.0583228 0.00457917 0)
(0.0497543 -0.101747 0)
(0.0783654 -0.242776 0)
(0.219422 0.012413 0)
(0.252307 0.00184878 0)
(0.206035 -0.0238624 0)
(0.152906 -0.0694863 0)
(-0.0127532 -0.00488929 0)
(-0.0296214 -0.00615033 0)
(-0.0412592 0.000904529 0)
(-0.030151 -0.0195533 0)
(-0.0151417 0.04924 0)
(-0.0298736 0.0334989 0)
(-0.0351101 0.00434393 0)
(-0.0420512 -0.0528149 0)
(-0.0370508 0.0386393 0)
(-0.0134292 0.00537458 0)
(-0.021148 0.0167978 0)
(-0.0350864 -0.106513 0)
(-0.00812121 0.108039 0)
(-0.0645203 0.0185287 0)
(0.0239451 0.0304455 0)
(-0.0326305 -0.0992489 0)
)
;

boundaryField
{
    movingWall
    {
        type            fixedValue;
        value           uniform (1 0 0);
    }
    fixedWalls
    {
        type            noSlip;
    }
    frontAndBack
    {
        type            empty;
    }
}


// ************************************************************************* //
