/*--------------------------------*- C++ -*----------------------------------*\
  =========                 |
  \\      /  F ield         | OpenFOAM: The Open Source CFD Toolbox
   \\    /   O peration     | Website:  https://openfoam.org
    \\  /    A nd           | Version:  8
     \\/     M anipulation  |
\*---------------------------------------------------------------------------*/
FoamFile
{
    version     2.0;
    format      ascii;
    class       volScalarField;
    location    "0.35";
    object      p;
}
// * * * * * * * * * * * * * * * * * * * * * * * * * * * * * * * * * * * * * //

dimensions      [0 2 -2 0 0 0 0];

internalField   nonuniform List<scalar> 
400
(
4.15941e-06
-0.0058223
-0.0129594
-0.0184111
-0.0204283
-0.0182345
-0.0117702
-0.00148038
0.01184
0.027151
0.0432455
0.0588234
0.0725784
0.0833079
0.0900522
0.0922666
0.0900259
0.0842446
0.076882
0.071069
0.00578255
-0.000216043
-0.00580139
-0.00953966
-0.0105959
-0.00842965
-0.00296702
0.00547678
0.0163052
0.0287135
0.0417511
0.0543868
0.0655869
0.0744103
0.0801207
0.0823164
0.0810782
0.0770562
0.071276
0.0653202
0.0133361
0.00503518
-0.000993374
-0.00442086
-0.0052705
-0.00326147
0.00160471
0.00902977
0.018504
0.029351
0.0407669
0.0518708
0.0617695
0.0696372
0.074808
0.0768793
0.0758432
0.0720878
0.0658079
0.0575384
0.0201397
0.00869694
0.00122735
-0.0026667
-0.00372008
-0.00188319
0.00273336
0.00978654
0.0187822
0.0290968
0.0399936
0.0506555
0.0602343
0.0679172
0.0730045
0.075003
0.0737677
0.0694585
0.0616059
0.0501061
0.0245018
0.00977381
0.000591029
-0.00398531
-0.00530038
-0.00350535
0.00117675
0.00833652
0.0174639
0.0279509
0.0390868
0.0500717
0.0600505
0.0681667
0.073628
0.0757995
0.0743711
0.0692924
0.0595288
0.0445413
0.0251776
0.0071507
-0.00380079
-0.00905562
-0.0105103
-0.00849793
-0.00335466
0.00443158
0.0143155
0.0256811
0.0378158
0.0499053
0.0610501
0.0703051
0.0767366
0.079519
0.0781413
0.0723364
0.0605428
0.0418945
0.0210934
-0.000261478
-0.0129331
-0.0187076
-0.0200278
-0.0174116
-0.0113159
-0.00231716
0.00899295
0.0219787
0.0359121
0.0499467
0.0631146
0.0743477
0.0825243
0.0865719
0.0857234
0.0794501
0.065624
0.0430763
0.0111434
-0.0136168
-0.0278732
-0.0338521
-0.0346012
-0.0308549
-0.02321
-0.0123422
0.00110791
0.0164869
0.0330555
0.0499365
0.0660862
0.0802927
0.0912035
0.0974328
0.0978732
0.0916392
0.0758999
0.0491209
-0.00596562
-0.0342644
-0.0498677
-0.055546
-0.0550873
-0.0495115
-0.0395902
-0.0261098
-0.00975347
0.00882664
0.0289046
0.0495969
0.0698008
0.0881578
0.103051
0.112704
0.115554
0.110195
0.0928378
0.0614155
-0.0318545
-0.0638732
-0.0804139
-0.085004
-0.0824168
-0.0740748
-0.0609772
-0.0440326
-0.0239473
-0.00133265
0.0231498
0.048665
0.0740994
0.0979759
0.118399
0.133129
0.139992
0.136821
0.118444
0.0819374
-0.0686634
-0.1046
-0.121341
-0.123586
-0.117512
-0.105123
-0.0877141
-0.0663211
-0.0416324
-0.0141508
0.0156103
0.0469578
0.0788601
0.109798
0.137628
0.159589
0.17273
0.173781
0.155524
0.113574
-0.119397
-0.159352
-0.174911
-0.172753
-0.161144
-0.142925
-0.119754
-0.0927723
-0.0625725
-0.0294425
0.00637832
0.0444785
0.0840599
0.123707
0.16114
0.19309
0.215672
0.22408
0.208053
0.160635
-0.188622
-0.232237
-0.243934
-0.233943
-0.21369
-0.18715
-0.156368
-0.122496
-0.0858927
-0.0464667
-0.00400894
0.0415443
0.0898473
0.139834
0.189323
0.234693
0.271078
0.291668
0.281745
0.229778
-0.283968
-0.329299
-0.331826
-0.308275
-0.274704
-0.236435
-0.195759
-0.153605
-0.109835
-0.0637395
-0.0144321
0.0388691
0.0965597
0.158282
0.222379
0.285292
0.341401
0.381578
0.384917
0.331836
-0.419311
-0.459665
-0.442345
-0.395787
-0.342124
-0.287735
-0.234611
-0.182924
-0.131604
-0.0789791
-0.0232081
0.0374812
0.104559
0.178843
0.259866
0.344974
0.42862
0.499703
0.529678
0.485393
-0.620525
-0.636738
-0.578672
-0.494188
-0.411236
-0.335654
-0.267775
-0.205972
-0.147531
-0.0893769
-0.0284199
0.0383544
0.113813
0.200477
0.29998
0.41203
0.533033
0.651779
0.732774
0.722397
-0.935917
-0.878509
-0.741737
-0.597944
-0.474389
-0.372655
-0.288864
-0.217758
-0.153948
-0.0924578
-0.0287111
0.0417019
0.123269
0.220724
0.338931
0.482159
0.652001
0.841345
1.01527
1.09751
-1.47642
-1.20663
-0.920499
-0.691384
-0.517301
-0.38754
-0.290057
-0.213333
-0.148119
-0.0872097
-0.0245715
0.0454637
0.128943
0.233077
0.367108
0.542683
0.771297
1.05932
1.40329
1.73014
-2.53964
-1.63054
-1.04443
-0.710956
-0.495748
-0.35209
-0.254528
-0.183579
-0.126165
-0.0735897
-0.0192631
0.0427932
0.119219
0.218789
0.354818
0.547989
0.826397
1.23658
1.91168
2.9242
-4.36666
-2.04463
-0.973539
-0.563179
-0.357845
-0.240145
-0.170117
-0.12378
-0.0874774
-0.0535053
-0.0166486
0.0276672
0.0846144
0.161736
0.272418
0.442105
0.718224
1.22571
2.41104
4.84853
)
;

boundaryField
{
    movingWall
    {
        type            zeroGradient;
    }
    fixedWalls
    {
        type            zeroGradient;
    }
    frontAndBack
    {
        type            empty;
    }
}


// ************************************************************************* //
