/*--------------------------------*- C++ -*----------------------------------*\
  =========                 |
  \\      /  F ield         | OpenFOAM: The Open Source CFD Toolbox
   \\    /   O peration     | Website:  https://openfoam.org
    \\  /    A nd           | Version:  8
     \\/     M anipulation  |
\*---------------------------------------------------------------------------*/
FoamFile
{
    version     2.0;
    format      ascii;
    class       surfaceScalarField;
    location    "0.35";
    object      phi;
}
// * * * * * * * * * * * * * * * * * * * * * * * * * * * * * * * * * * * * * //

dimensions      [0 3 -1 0 0 0 0];

internalField   nonuniform List<scalar> 
760
(
1.42315e-08
-1.42665e-08
-2.22106e-08
3.64424e-08
-1.14268e-07
9.20575e-08
-2.45489e-07
1.31222e-07
-3.96091e-07
1.50601e-07
-5.47355e-07
1.51265e-07
-6.83176e-07
1.35822e-07
-7.90645e-07
1.07469e-07
-8.60187e-07
6.95421e-08
-8.85619e-07
2.54327e-08
-8.64298e-07
-2.13214e-08
-7.97369e-07
-6.69297e-08
-6.90069e-07
-1.07301e-07
-5.5196e-07
-1.38108e-07
-3.96935e-07
-1.55025e-07
-2.42744e-07
-1.54191e-07
-1.09732e-07
-1.33014e-07
-1.84166e-08
-9.13157e-08
1.56888e-08
-3.41057e-08
1.56889e-08
-3.42151e-08
1.99483e-08
-1.80373e-07
1.826e-07
-4.33985e-07
3.4567e-07
-7.64426e-07
4.61663e-07
-1.1322e-06
5.18376e-07
-1.49723e-06
5.16293e-07
-1.82332e-06
4.61911e-07
-2.08051e-06
3.64664e-07
-2.24625e-06
2.35279e-07
-2.30601e-06
8.51964e-08
-2.25387e-06
-7.34605e-08
-2.09302e-06
-2.2778e-07
-1.83624e-06
-3.64086e-07
-1.50602e-06
-4.68325e-07
-1.13407e-06
-5.26981e-07
-7.59513e-07
-5.28747e-07
-4.25396e-07
-4.67131e-07
-1.7269e-07
-3.44021e-07
-3.0802e-08
-1.75994e-07
-1.51132e-08
-9.22272e-08
1.12175e-07
-3.56993e-07
4.47365e-07
-7.6455e-07
7.53227e-07
-1.26847e-06
9.65586e-07
-1.81468e-06
1.06458e-06
-2.34902e-06
1.05063e-06
-2.8224e-06
9.35292e-07
-3.1939e-06
7.36167e-07
-3.43256e-06
4.73942e-07
-3.51847e-06
1.71098e-07
-3.44353e-06
-1.48399e-07
-3.21221e-06
-4.59093e-07
-2.84207e-06
-7.34233e-07
-2.36377e-06
-9.46621e-07
-1.82029e-06
-1.07046e-06
-1.26447e-06
-1.08457e-06
-7.54512e-07
-9.77088e-07
-3.46966e-07
-7.51567e-07
-8.73349e-08
-4.35626e-07
-1.02448e-07
-1.45209e-07
2.57384e-07
-5.25454e-07
8.2761e-07
-1.08162e-06
1.30939e-06
-1.74748e-06
1.63145e-06
-2.45429e-06
1.77139e-06
-3.13632e-06
1.73267e-06
-3.73523e-06
1.5342e-06
-4.20284e-06
1.20378e-06
-4.50285e-06
7.73949e-07
-4.61185e-06
2.80105e-07
-4.52018e-06
-2.40067e-07
-4.23267e-06
-7.46611e-07
-3.76931e-06
-1.19759e-06
-3.16559e-06
-1.55034e-06
-2.47184e-06
-1.76421e-06
-1.75104e-06
-1.80536e-06
-1.07449e-06
-1.65364e-06
-5.15131e-07
-1.31093e-06
-1.39313e-07
-8.11443e-07
-2.41762e-07
-1.93607e-07
4.5099e-07
-6.8499e-07
1.31899e-06
-1.3856e-06
2.01e-06
-2.2072e-06
2.45306e-06
-3.06541e-06
2.6296e-06
-3.88371e-06
2.55096e-06
-4.59642e-06
2.24691e-06
-5.15049e-06
1.75784e-06
-5.50635e-06
1.12981e-06
-5.63842e-06
4.12179e-07
-5.53566e-06
-3.42833e-07
-5.20228e-06
-1.07999e-06
-4.6588e-06
-1.74107e-06
-3.94289e-06
-2.26625e-06
-3.10965e-06
-2.59745e-06
-2.23046e-06
-2.68455e-06
-1.38962e-06
-2.49448e-06
-6.78488e-07
-2.02206e-06
-1.87764e-07
-1.30217e-06
-4.29526e-07
-2.39937e-07
6.90927e-07
-8.40337e-07
1.91939e-06
-1.68326e-06
2.85292e-06
-2.65702e-06
3.42681e-06
-3.66078e-06
3.63336e-06
-4.6077e-06
3.49788e-06
-5.42627e-06
3.06548e-06
-6.06048e-06
2.39205e-06
-6.46926e-06
1.53859e-06
-6.62595e-06
5.68873e-07
-6.51822e-06
-4.50563e-07
-6.14871e-06
-1.4495e-06
-5.53646e-06
-2.35332e-06
-4.71886e-06
-3.08386e-06
-3.75341e-06
-3.5629e-06
-2.71844e-06
-3.71952e-06
-1.71151e-06
-3.50141e-06
-8.4465e-07
-2.88892e-06
-2.36176e-07
-1.91064e-06
-6.65702e-07
-2.86742e-07
9.77669e-07
-9.97076e-07
2.62973e-06
-1.98206e-06
3.83791e-06
-3.10491e-06
4.54966e-06
-4.24791e-06
4.77636e-06
-5.31476e-06
4.56473e-06
-6.23005e-06
3.98077e-06
-6.9371e-06
3.0991e-06
-7.39541e-06
1.9969e-06
-7.57854e-06
7.52007e-07
-7.47308e-06
-5.56022e-07
-7.07904e-06
-1.84354e-06
-6.41182e-06
-3.02055e-06
-5.50553e-06
-3.99015e-06
-4.41702e-06
-4.65141e-06
-3.22934e-06
-4.9072e-06
-2.05294e-06
-4.67782e-06
-1.02253e-06
-3.91933e-06
-2.88279e-07
-2.64489e-06
-9.5398e-07
-3.36329e-07
1.314e-06
-1.16036e-06
3.45376e-06
-2.288e-06
4.96555e-06
-3.55497e-06
5.81663e-06
-4.82659e-06
6.04798e-06
-5.99902e-06
5.73717e-06
-6.99598e-06
4.97773e-06
-7.76346e-06
3.86658e-06
-8.26442e-06
2.49786e-06
-8.47455e-06
9.62135e-07
-8.3799e-06
-6.50671e-07
-7.97684e-06
-2.2466e-06
-7.27453e-06
-3.72286e-06
-6.29992e-06
-4.96476e-06
-5.10465e-06
-5.84668e-06
-3.77251e-06
-6.23933e-06
-2.42487e-06
-6.02545e-06
-1.22074e-06
-5.12346e-06
-3.47706e-07
-3.51792e-06
-1.30169e-06
-3.90957e-07
1.70495e-06
-1.33488e-06
4.39769e-06
-2.60497e-06
6.23563e-06
-4.00593e-06
7.2176e-06
-5.3868e-06
7.42884e-06
-6.63973e-06
6.9901e-06
-7.69241e-06
6.03041e-06
-8.49843e-06
4.67261e-06
-9.02838e-06
3.0278e-06
-9.26289e-06
1.19664e-06
-9.18861e-06
-7.24942e-07
-8.79745e-06
-2.63777e-06
-8.08934e-06
-4.43097e-06
-7.079e-06
-5.9751e-06
-5.80631e-06
-7.11937e-06
-4.34903e-06
-7.69661e-06
-2.83481e-06
-7.53968e-06
-1.44709e-06
-6.51118e-06
-4.18098e-07
-4.54692e-06
-1.71978e-06
-4.53454e-07
2.15841e-06
-1.52568e-06
5.46992e-06
-2.93488e-06
7.64483e-06
-4.45012e-06
8.73283e-06
-5.90633e-06
8.88505e-06
-7.19782e-06
8.28159e-06
-8.26367e-06
7.09626e-06
-9.07208e-06
5.48102e-06
-9.60688e-06
3.56261e-06
-9.85761e-06
1.44737e-06
-9.81343e-06
-7.69114e-07
-9.46139e-06
-2.98981e-06
-8.78912e-06
-5.10324e-06
-7.79301e-06
-6.97121e-06
-6.49222e-06
-8.42016e-06
-4.94797e-06
-9.24085e-06
-3.28511e-06
-9.20254e-06
-1.70868e-06
-8.08761e-06
-5.03587e-07
-5.75201e-06
-2.22337e-06
-5.28336e-07
2.68674e-06
-1.73966e-06
6.68124e-06
-3.27798e-06
9.18315e-06
-4.87163e-06
1.03265e-05
-6.34702e-06
1.03604e-05
-7.61083e-06
9.5454e-06
-8.62437e-06
8.10979e-06
-9.3797e-06
6.23635e-06
-9.881e-06
4.06392e-06
-1.01315e-05
1.69791e-06
-1.01258e-05
-7.74863e-07
-9.84635e-06
-3.26926e-06
-9.266e-06
-5.68359e-06
-8.35634e-06
-7.88087e-06
-7.1047e-06
-9.67181e-06
-5.5407e-06
-1.08048e-05
-3.77071e-06
-1.09725e-05
-2.01217e-06
-9.84615e-06
-6.09688e-07
-7.15449e-06
-2.83306e-06
-6.23666e-07
3.31041e-06
-1.98739e-06
8.04496e-06
-3.63192e-06
1.08277e-05
-5.24194e-06
1.19365e-05
-6.64759e-06
1.17661e-05
-7.7845e-06
1.06823e-05
-8.65104e-06
8.97633e-06
-9.27434e-06
6.85965e-06
-9.68657e-06
4.47615e-06
-9.90986e-06
1.92119e-06
-9.94727e-06
-7.37446e-07
-9.77862e-06
-3.43791e-06
-9.36092e-06
-6.10129e-06
-8.63564e-06
-8.60614e-06
-7.5464e-06
-1.0761e-05
-6.07159e-06
-1.22797e-05
-4.27428e-06
-1.27699e-05
-2.36365e-06
-1.17568e-05
-7.44777e-07
-8.77336e-06
-3.57784e-06
-7.54077e-07
4.06449e-06
-2.28435e-06
9.57524e-06
-3.98702e-06
1.25303e-05
-5.50911e-06
1.34586e-05
-6.70964e-06
1.29666e-05
-7.5786e-06
1.15513e-05
-8.1701e-06
9.56784e-06
-8.55769e-06
7.24723e-06
-8.80779e-06
4.72626e-06
-8.96512e-06
2.07852e-06
-9.04444e-06
-6.58129e-07
-9.02581e-06
-3.45653e-06
-8.85265e-06
-6.27445e-06
-8.43487e-06
-9.02393e-06
-7.66294e-06
-1.1533e-05
-6.44203e-06
-1.35006e-05
-4.75627e-06
-1.44556e-05
-2.76675e-06
-1.37463e-05
-9.22436e-07
-1.06177e-05
-4.50027e-06
-9.45206e-07
5.0097e-06
-2.64849e-06
1.12785e-05
-4.311e-06
1.41929e-05
-5.57331e-06
1.47209e-05
-6.37071e-06
1.3764e-05
-6.78331e-06
1.19639e-05
-6.94053e-06
9.72506e-06
-6.96976e-06
7.27646e-06
-6.97281e-06
4.7293e-06
-7.01653e-06
2.12224e-06
-7.12863e-06
-5.46029e-07
-7.29378e-06
-3.29138e-06
-7.44866e-06
-6.11957e-06
-7.4779e-06
-8.99468e-06
-7.21795e-06
-1.17929e-05
-6.48276e-06
-1.42358e-05
-5.13344e-06
-1.58049e-05
-3.21498e-06
-1.56647e-05
-1.16439e-06
-1.26683e-05
-5.66466e-06
-1.23731e-06
6.24701e-06
-3.08329e-06
1.31245e-05
-4.50771e-06
1.56173e-05
-5.23449e-06
1.54477e-05
-5.35523e-06
1.38847e-05
-5.08185e-06
1.16905e-05
-4.63091e-06
9.27413e-06
-4.17928e-06
6.82483e-06
-3.85437e-06
4.4044e-06
-3.73704e-06
2.0049e-06
-3.86514e-06
-4.17924e-07
-4.23265e-06
-2.92387e-06
-4.78209e-06
-5.57013e-06
-5.39108e-06
-8.38569e-06
-5.8585e-06
-1.13255e-05
-5.90658e-06
-1.41877e-05
-5.23282e-06
-1.64787e-05
-3.66627e-06
-1.72313e-05
-1.50008e-06
-1.48345e-05
-7.16474e-06
-1.67381e-06
7.92082e-06
-3.51337e-06
1.49641e-05
-4.31531e-06
1.64192e-05
-4.08888e-06
1.52213e-05
-3.19306e-06
1.29889e-05
-1.99875e-06
1.04962e-05
-7.9516e-07
8.07054e-06
2.19318e-07
5.81035e-06
9.18213e-07
3.70551e-06
1.22558e-06
1.69753e-06
1.10204e-06
-2.94384e-07
5.41043e-07
-2.36287e-06
-4.22946e-07
-4.60614e-06
-1.69258e-06
-7.11606e-06
-3.07242e-06
-9.94566e-06
-4.23083e-06
-1.30293e-05
-4.69565e-06
-1.60139e-05
-3.96718e-06
-1.79598e-05
-1.94492e-06
-1.68567e-05
-9.10966e-06
-2.23069e-06
1.01515e-05
-3.5903e-06
1.63237e-05
-3.07778e-06
1.59067e-05
-1.34388e-06
1.34874e-05
8.97023e-07
1.0748e-05
3.15495e-06
8.23826e-06
5.13809e-06
6.08739e-06
6.68867e-06
4.25978e-06
7.72581e-06
2.66837e-06
8.20653e-06
1.21681e-06
8.10386e-06
-1.91719e-07
7.39901e-06
-1.65801e-06
6.08684e-06
-3.29397e-06
4.19917e-06
-5.22839e-06
1.85414e-06
-7.60063e-06
-6.61725e-07
-1.05134e-05
-2.79218e-06
-1.38834e-05
-3.66209e-06
-1.70899e-05
-2.41154e-06
-1.81073e-05
-1.15212e-05
-2.57382e-06
1.27253e-05
-2.18346e-06
1.59333e-05
7.18065e-07
1.30052e-05
4.46956e-06
9.73588e-06
8.13327e-06
7.0843e-06
1.13016e-05
5.06998e-06
1.38291e-05
3.55988e-06
1.56881e-05
2.40078e-06
1.68916e-05
1.4648e-06
1.74548e-05
6.53601e-07
1.73763e-05
-1.13201e-07
1.66305e-05
-9.12151e-07
1.51672e-05
-1.83066e-06
1.29235e-05
-2.98473e-06
9.86173e-06
-4.53887e-06
6.06195e-06
-6.71362e-06
1.91233e-06
-9.73379e-06
-1.55963e-06
-1.36179e-05
-2.45834e-06
-1.72086e-05
-1.39795e-05
-7.85013e-07
1.35103e-05
4.08079e-06
1.10675e-05
1.02975e-05
6.78843e-06
1.57936e-05
4.23979e-06
2.0158e-05
2.71991e-06
2.34581e-05
1.76994e-06
2.58608e-05
1.15714e-06
2.75215e-05
7.40051e-07
2.8554e-05
4.32292e-07
2.90264e-05
1.81221e-07
2.89622e-05
-4.89813e-08
2.83387e-05
-2.88698e-07
2.70818e-05
-5.73739e-07
2.5055e-05
-9.57954e-07
2.20517e-05
-1.53552e-06
1.78155e-05
-2.47741e-06
1.21724e-05
-4.09068e-06
5.47772e-06
-6.92324e-06
-1.2917e-07
-1.16017e-05
-1.41087e-05
1.35103e-05
2.45779e-05
3.13663e-05
3.56061e-05
3.8326e-05
4.00959e-05
4.12531e-05
4.19931e-05
4.24254e-05
4.26066e-05
4.25576e-05
4.22689e-05
4.16952e-05
4.07372e-05
3.92017e-05
3.67243e-05
3.26336e-05
2.57104e-05
1.41087e-05
)
;

boundaryField
{
    movingWall
    {
        type            calculated;
        value           uniform 0;
    }
    fixedWalls
    {
        type            calculated;
        value           uniform 0;
    }
    frontAndBack
    {
        type            empty;
        value           nonuniform List<scalar> 0();
    }
}


// ************************************************************************* //
