0 	-5.26884e-08
1.57135 	-0.000222363
3.1427 	-0.000408205
4.71405 	-0.00256297
6.28539 	-0.00660676
7.85674 	-0.00994978
9.42809 	-0.0087996
10.9994 	-0.00462688
12.5708 	0.0172797
14.1421 	0.0531515
