0 	0 	0 	0
1.57135 	0.00171424 	-0.010207 	0
3.1427 	-0.0394675 	0.0329736 	0
4.71405 	-0.0663842 	0.0850094 	0
6.28539 	-0.043358 	0.0831831 	0
7.85674 	-0.00307718 	0.0365353 	0
9.42809 	0.0430283 	-0.0117783 	0
10.9994 	0.0545911 	-0.0439791 	0
12.5708 	0.117758 	-0.106519 	0
14.1421 	0.5 	0 	0
