/*--------------------------------*- C++ -*----------------------------------*\
  =========                 |
  \\      /  F ield         | OpenFOAM: The Open Source CFD Toolbox
   \\    /   O peration     | Website:  https://openfoam.org
    \\  /    A nd           | Version:  8
     \\/     M anipulation  |
\*---------------------------------------------------------------------------*/
FoamFile
{
    version     2.0;
    format      ascii;
    class       volScalarField;
    location    "20.5";
    object      p;
}
// * * * * * * * * * * * * * * * * * * * * * * * * * * * * * * * * * * * * * //

dimensions      [0 2 -2 0 0 0 0];

internalField   nonuniform List<scalar> 
464
(
7.44571e-09
4.24518e-06
1.35382e-05
2.72819e-05
4.53422e-05
6.72579e-05
9.2676e-05
0.000120793
0.00015193
0.000182796
0.000218827
0.000247212
-4.25506e-06
5.38076e-08
9.51823e-06
2.35188e-05
4.19206e-05
6.42656e-05
9.01928e-05
0.000118915
0.000150742
0.000182486
0.000219552
0.000249484
-1.37589e-05
-9.27777e-06
5.72529e-07
1.51434e-05
3.42819e-05
5.75069e-05
8.43834e-05
0.00011417
0.000146596
0.000179876
0.000215518
0.0002481
-2.83932e-05
-2.36411e-05
-1.31911e-05
2.27266e-06
2.25836e-05
4.72521e-05
7.58072e-05
0.000107536
0.000142078
0.000177846
0.000216017
0.000251423
-4.85808e-05
-4.34535e-05
-3.21789e-05
-1.54872e-05
6.42191e-06
3.30308e-05
6.37865e-05
9.79546e-05
0.000134895
0.000173474
0.000213346
0.000252663
-7.47552e-05
-6.91322e-05
-5.67846e-05
-3.84834e-05
-1.44848e-05
1.46805e-05
4.83864e-05
8.58993e-05
0.0001265
0.000169123
0.000213279
0.00025692
-0.000107435
-0.000101198
-8.75318e-05
-6.72289e-05
-4.06451e-05
-8.30972e-06
2.9026e-05
7.05971e-05
0.000115548
0.00016283
0.000211588
0.000260631
-0.000147711
-0.000140658
-0.000125343
-0.000102481
-7.27031e-05
-3.64448e-05
5.34946e-06
5.1919e-05
0.000102293
0.000155457
0.000210539
0.000265894
-0.000194905
-0.000187099
-0.000170087
-0.000144495
-0.000111126
-7.02673e-05
-2.32177e-05
2.92444e-05
8.59573e-05
0.000145844
0.000207675
0.000270776
-0.000255532
-0.000245976
-0.000226316
-0.000196112
-0.000157817
-0.000110936
-5.75189e-05
2.03724e-06
6.6371e-05
0.000134725
0.00020602
0.000278141
-0.000317949
-0.000307925
-0.000286379
-0.00025309
-0.000210422
-0.000157662
-9.75253e-05
-3.02486e-05
4.22511e-05
0.000118509
0.000197357
0.000278878
-0.00040977
-0.00039557
-0.000370968
-0.000328153
-0.000278973
-0.000215793
-0.000146314
-6.86467e-05
1.46007e-05
0.000103615
0.000196897
0.000291861
-0.000488356
-0.000475865
-0.000448444
-0.000403264
-0.000348302
-0.000277925
-0.000200299
-0.000113141
-2.06651e-05
7.58324e-05
0.000175518
0.000279671
-0.000628048
-0.000602888
-0.00057441
-0.000508242
-0.000446136
-0.000357101
-0.000267854
-0.000165017
-5.73377e-05
5.73839e-05
0.000177532
0.000301598
-0.000724174
-0.000713876
-0.000676938
-0.000612145
-0.000538541
-0.000440413
-0.000339472
-0.000224584
-0.000107956
1.33158e-05
0.000137446
0.000267903
-0.000943674
-0.000884946
-0.000859099
-0.000746981
-0.000669589
-0.000540588
-0.000426007
-0.000288728
-0.000152251
-8.1718e-06
0.000140565
0.000298568
-0.00105638
-0.00108057
-0.00101408
-0.000921937
-0.000802842
-0.000661289
-0.000521151
-0.000369913
-0.00022256
-7.1934e-05
7.55976e-05
0.000236265
-0.00144903
-0.00119573
-0.00125616
-0.00102725
-0.000946237
-0.000751171
-0.000605692
-0.000428771
-0.000263332
-9.12338e-05
7.96001e-05
0.000267086
-0.00160365
-0.00181106
-0.00154678
-0.0014427
-0.00117845
-0.000958576
-0.000746191
-0.000540396
-0.000352592
-0.000168548
6.46521e-07
0.000190377
-0.00293417
-0.00166846
-0.00175882
-0.00142462
-0.00123148
-0.000991071
-0.000778779
-0.000569586
-0.000371226
-0.000178955
3.48105e-06
0.000199022
0.000289697
0.000309408
0.000331416
0.000345936
0.000359182
0.000368342
0.000374807
0.000377666
0.000294002
0.000315291
0.000339245
0.000355326
0.000369873
0.000380117
0.00038729
0.000390485
0.000283872
0.00031155
0.000338547
0.000359833
0.000377991
0.000391408
0.000400577
0.000404771
0.000289913
0.000320531
0.000350222
0.000374159
0.000394512
0.000409799
0.000420219
0.000424998
0.000291753
0.000327444
0.000360545
0.000389092
0.000413092
0.000431481
0.000444012
0.000449839
0.00030035
0.000340579
0.000377968
0.000410687
0.000438295
0.000459776
0.000474483
0.000481409
0.000309029
0.00035512
0.000398029
0.000436322
0.000468735
0.000494314
0.000511773
0.000520142
0.000320803
0.000373623
0.000423116
0.000468031
0.000506222
0.000537089
0.000557999
0.00056837
0.000333478
0.000394389
0.000451599
0.000504292
0.000548876
0.00058603
0.000610683
0.000623533
0.000350405
0.000421679
0.000489362
0.000553663
0.000608053
0.000655739
0.000686491
0.00070385
0.000360662
0.000442074
0.00051877
0.00059465
0.000655146
0.000715079
0.000748961
0.000772895
0.000388144
0.00048658
0.000579234
0.000677231
0.000753684
0.00083626
0.000881554
0.000916628
0.000384328
0.000495321
0.000591272
0.000709724
0.000784168
0.000895148
0.000937076
0.000993345
0.000426875
0.000565734
0.000687289
0.000845115
0.000950798
0.00110805
0.00117784
0.00126347
0.000391049
0.00054631
0.000649735
0.000844996
0.000916424
0.00114182
0.00118147
0.00134157
0.000450697
0.000644208
0.000791571
0.00104843
0.00118678
0.00150477
0.00162262
0.00187348
0.000365156
0.000579172
0.000655142
0.000974378
0.000982016
0.001446
0.00143715
0.00194406
0.000432958
0.000684536
0.000830566
0.00122663
0.00136377
0.00200669
0.00219444
0.00304134
0.000306425
0.000575507
0.000560566
0.00103306
0.000788816
0.00166048
0.00128215
0.0027906
0.000348788
0.0006268
0.000698677
0.00120946
0.00124095
0.00237247
0.00288625
0.00591416
0.000346275
0.000346712
0.000347598
0.000348686
0.00034987
0.000350906
0.000351695
0.000352073
0.00034691
0.000347367
0.000348283
0.000349424
0.000350618
0.000351674
0.000352466
0.000352849
0.000343858
0.000344586
0.000346026
0.000347702
0.00034953
0.000351076
0.000352251
0.000352804
0.000345661
0.000346488
0.000348081
0.000349985
0.000351905
0.000353568
0.000354793
0.000355379
0.000338107
0.000339871
0.000343021
0.000346383
0.000349915
0.00035276
0.00035488
0.000355857
0.000341157
0.00034314
0.00034666
0.000350494
0.000354255
0.00035737
0.000359633
0.000360688
0.000324621
0.000329973
0.000337848
0.000345037
0.000352102
0.000357441
0.000361291
0.000363032
0.000329
0.000334775
0.000343442
0.00035146
0.000359075
0.000364946
0.000369143
0.000371046
)
;

boundaryField
{
    movingWall
    {
        type            zeroGradient;
    }
    fixedWalls
    {
        type            zeroGradient;
    }
    frontAndBack
    {
        type            empty;
    }
}


// ************************************************************************* //
