/*--------------------------------*- C++ -*----------------------------------*\
  =========                 |
  \\      /  F ield         | OpenFOAM: The Open Source CFD Toolbox
   \\    /   O peration     | Website:  https://openfoam.org
    \\  /    A nd           | Version:  8
     \\/     M anipulation  |
\*---------------------------------------------------------------------------*/
FoamFile
{
    version     2.0;
    format      ascii;
    class       surfaceScalarField;
    location    "20.5";
    object      phi;
}
// * * * * * * * * * * * * * * * * * * * * * * * * * * * * * * * * * * * * * //

dimensions      [0 3 -1 0 0 0 0];

internalField   nonuniform List<scalar> 
880
(
-9.97767e-06
9.97766e-06
-2.01322e-05
1.01545e-05
-2.98005e-05
9.66828e-06
-3.87513e-05
8.95086e-06
-4.67827e-05
8.03132e-06
-5.37206e-05
6.93793e-06
-5.9438e-05
5.71735e-06
-6.38157e-05
4.37771e-06
-6.69269e-05
3.11121e-06
-6.84502e-05
1.52336e-06
-6.93882e-05
9.37935e-07
-8.64878e-07
-6.85233e-05
-1.06339e-05
2.06116e-05
-2.14461e-05
2.09667e-05
-3.17354e-05
1.99576e-05
-4.1255e-05
1.84704e-05
-4.97938e-05
1.65701e-05
-5.7175e-05
1.43192e-05
-6.32723e-05
1.18147e-05
-6.79804e-05
9.0858e-06
-7.13862e-05
6.51702e-06
-7.32347e-05
3.3718e-06
-7.45593e-05
2.26257e-06
-1.8539e-06
-7.35703e-05
-1.11409e-05
3.17525e-05
-2.24616e-05
3.22874e-05
-3.32205e-05
3.07165e-05
-4.31504e-05
2.84003e-05
-5.20175e-05
2.54372e-05
-5.96182e-05
2.19199e-05
-6.57775e-05
1.7974e-05
-7.03615e-05
1.36697e-05
-7.31646e-05
9.32011e-06
-7.43076e-05
4.51479e-06
-7.3058e-05
1.01298e-06
-4.66767e-06
-7.02442e-05
-1.19192e-05
4.36717e-05
-2.40198e-05
4.4388e-05
-3.5503e-05
4.21997e-05
-4.60785e-05
3.89757e-05
-5.55057e-05
3.48645e-05
-6.35809e-05
2.9995e-05
-7.01455e-05
2.45387e-05
-7.50828e-05
1.86071e-05
-7.81926e-05
1.24299e-05
-7.95405e-05
5.86264e-06
-7.83366e-05
-1.90899e-07
-7.41277e-06
-7.55915e-05
-1.30047e-05
5.66764e-05
-2.61889e-05
5.75723e-05
-3.86734e-05
5.46842e-05
-5.01283e-05
5.04307e-05
-6.02968e-05
4.5033e-05
-6.89532e-05
3.86513e-05
-7.59132e-05
3.14986e-05
-8.10321e-05
2.37261e-05
-8.41698e-05
1.55675e-05
-8.533e-05
7.0229e-06
-8.42023e-05
-1.3186e-06
-1.04836e-05
-8.11315e-05
-1.44425e-05
7.11189e-05
-2.90536e-05
7.21834e-05
-4.28537e-05
6.84843e-05
-5.54568e-05
6.30337e-05
-6.66037e-05
5.61799e-05
-7.6058e-05
4.81056e-05
-8.36628e-05
3.91035e-05
-8.92986e-05
2.93618e-05
-9.28539e-05
1.91228e-05
-9.42536e-05
8.42258e-06
-9.31698e-05
-2.40239e-06
-1.35901e-05
-9.00633e-05
-1.6287e-05
8.74059e-05
-3.27156e-05
8.8612e-05
-4.8183e-05
8.39517e-05
-6.22136e-05
7.70643e-05
-7.45604e-05
6.85267e-05
-8.49638e-05
5.8509e-05
-9.3296e-05
4.74357e-05
-9.94465e-05
3.55124e-05
-0.000103322
2.29986e-05
-0.00010492
1.00199e-05
-0.000104144
-3.17817e-06
-1.67511e-05
-0.000100983
-1.8655e-05
0.000106061
-3.73666e-05
0.000107324
-5.49128e-05
0.000101498
-7.06584e-05
9.28098e-05
-8.4435e-05
8.23034e-05
-9.59462e-05
7.00202e-05
-0.000105136
5.66253e-05
-0.000111929
4.23058e-05
-0.000116296
2.73649e-05
-0.000118216
1.19402e-05
-0.00011756
-3.83431e-06
-1.98857e-05
-0.000114425
-2.15413e-05
0.000127602
-4.30591e-05
0.000128841
-6.31616e-05
0.0001216
-8.09837e-05
0.000110632
-9.64576e-05
9.77772e-05
-0.000109214
8.27762e-05
-0.000119334
6.67456e-05
-0.000126795
4.97672e-05
-0.000131639
3.2209e-05
-0.000133888
1.41892e-05
-0.000133572
-4.15087e-06
-2.29511e-05
-0.000130506
-2.56623e-05
0.000153265
-5.06693e-05
0.000153848
-7.39977e-05
0.000144929
-9.39728e-05
0.000130607
-0.000111238
0.000115042
-0.000125196
9.67351e-05
-0.00013622
7.77691e-05
-0.00014433
5.78772e-05
-0.000149713
3.75918e-05
-0.000152429
1.69052e-05
-0.000152286
-4.29345e-06
-2.57587e-05
-0.000149479
-2.98201e-05
0.000183085
-5.89401e-05
0.000182968
-8.59806e-05
0.000171969
-0.00010878
0.000153407
-0.000128344
0.000134605
-0.000143766
0.000112158
-0.000155797
8.97994e-05
-0.000164506
6.65866e-05
-0.000170178
4.32639e-05
-0.000173099
1.98258e-05
-0.000173588
-3.80438e-06
-2.82861e-05
-0.00017106
-3.83196e-05
0.000221404
-7.28716e-05
0.00021752
-0.000105136
0.000204234
-0.00012991
0.000178181
-0.000151186
0.000155881
-0.000166918
0.00012789
-0.000179243
0.000102124
-0.000188101
7.54444e-05
-0.00019437
4.95334e-05
-0.000198009
2.34645e-05
-0.000198753
-3.06032e-06
-2.98522e-05
-0.000197187
-4.35133e-05
0.000264918
-8.43002e-05
0.000258307
-0.000121678
0.000241612
-0.000150282
0.000206785
-0.000174305
0.000179904
-0.000191399
0.000144984
-0.000204517
0.000115242
-0.000213464
8.43915e-05
-0.000219142
5.52118e-05
-0.000222476
2.6798e-05
-0.000224219
-1.31746e-06
-3.09606e-05
-0.00022311
-6.51864e-05
0.000330104
-0.000113538
0.000306659
-0.000158789
0.000286863
-0.000187101
0.000235097
-0.000210677
0.00020348
-0.000225456
0.000159763
-0.000236715
0.000126501
-0.000244309
9.19858e-05
-0.000250361
6.12637e-05
-0.000254665
3.11025e-05
-0.000256945
9.61801e-07
-2.95245e-05
-0.000258381
-6.77887e-05
0.000397893
-0.000128099
0.000366969
-0.000181075
0.00033984
-0.000214846
0.000268868
-0.00024121
0.000229843
-0.000256419
0.000174972
-0.000267214
0.000137296
-0.000273222
9.79944e-05
-0.000277009
6.50507e-05
-0.000279757
3.385e-05
-0.000282922
4.12709e-06
-2.78243e-05
-0.000284622
-0.000138289
0.000536182
-0.000198882
0.000427561
-0.000257312
0.000398269
-0.000281378
0.000292934
-0.000298142
0.000246607
-0.000305362
0.000182192
-0.000308969
0.000140903
-0.000311281
0.000100306
-0.000313953
6.77223e-05
-0.000317569
3.74668e-05
-0.000322533
9.09107e-06
-2.05665e-05
-0.000329791
-0.000114548
0.00065073
-0.000214485
0.000527498
-0.000289952
0.000473736
-0.000322881
0.000325863
-0.000340305
0.000264031
-0.000344134
0.00018602
-0.000343414
0.000140184
-0.0003407
9.75922e-05
-0.000338671
6.56931e-05
-0.000338575
3.73705e-05
-0.000341872
1.23881e-05
-1.44776e-05
-0.000347961
-0.000369805
0.00102054
-0.000399691
0.000557383
-0.00043523
0.000509276
-0.000434644
0.000325276
-0.00041672
0.000246107
-0.000404903
0.000174203
-0.000388337
0.000123617
-0.000378963
8.82187e-05
-0.000373118
5.98476e-05
-0.000373321
3.75735e-05
-0.000380025
1.9093e-05
3.26081e-07
-0.000394829
-0.000630561
0.0016511
-0.000616964
0.000543786
-0.000614261
0.000506573
-0.000543413
0.000254428
-0.000478398
0.000181092
-0.000424152
0.000119958
-0.000380014
7.94789e-05
-0.000348889
5.70937e-05
-0.000326815
3.77737e-05
-0.000313684
2.4442e-05
-0.000307556
1.29652e-05
3.88106e-06
-0.000311111
0.0016511
0.00219488
0.00270146
0.00295588
0.00313698
0.00325693
0.00333641
0.00339351
0.00343128
0.00345572
0.00346869
0.00347257
-5.31654e-05
1.97597e-05
-3.51176e-05
-4.0911e-05
7.77219e-06
-2.00266e-05
-3.32718e-05
-2.33822e-06
-5.301e-06
-2.62252e-05
-1.01093e-05
3.06269e-06
-1.96792e-05
-1.60937e-05
9.54772e-06
-1.30732e-05
-2.04726e-05
1.38666e-05
-6.43512e-06
-2.3318e-05
1.66799e-05
-2.37234e-05
1.72883e-05
-5.77123e-05
3.90172e-06
-4.52156e-05
-4.72447e-06
-3.70063e-05
-1.05476e-05
-2.93663e-05
-1.77493e-05
-2.21914e-05
-2.32686e-05
-1.48442e-05
-2.78197e-05
-7.33477e-06
-3.08274e-05
-3.10581e-05
-6.19954e-05
-4.34705e-06
-5.39798e-05
-1.27401e-05
-4.54435e-05
-1.90838e-05
-3.68175e-05
-2.63754e-05
-2.78423e-05
-3.22438e-05
-1.86242e-05
-3.70379e-05
-9.18033e-06
-4.02713e-05
-4.02385e-05
-6.76336e-05
-1.23049e-05
-5.96354e-05
-2.07384e-05
-5.07534e-05
-2.79658e-05
-4.15277e-05
-3.5601e-05
-3.16931e-05
-4.20785e-05
-2.1343e-05
-4.73879e-05
-1.05733e-05
-5.1041e-05
-5.08118e-05
-7.50777e-05
-1.83587e-05
-6.772e-05
-2.80961e-05
-5.86893e-05
-3.69965e-05
-4.85235e-05
-4.57668e-05
-3.72715e-05
-5.33305e-05
-2.51787e-05
-5.94807e-05
-1.24981e-05
-6.37216e-05
-6.33099e-05
-8.40224e-05
-2.43996e-05
-7.63571e-05
-3.57614e-05
-6.67818e-05
-4.65718e-05
-5.56647e-05
-5.68839e-05
-4.31146e-05
-6.58806e-05
-2.92862e-05
-7.33092e-05
-1.45934e-05
-7.84144e-05
-7.79032e-05
-9.52372e-05
-3.01453e-05
-8.72358e-05
-4.37628e-05
-7.69757e-05
-5.68318e-05
-6.46074e-05
-6.92522e-05
-5.03529e-05
-8.01351e-05
-3.43439e-05
-8.93182e-05
-1.71842e-05
-9.55741e-05
-9.50875e-05
-0.000108581
-3.59896e-05
-0.000100156
-5.21873e-05
-8.91032e-05
-6.78847e-05
-7.53378e-05
-8.30176e-05
-5.9199e-05
-9.62739e-05
-4.05742e-05
-0.000107943
-2.04393e-05
-0.000115709
-0.000115527
-0.000124582
-4.1914e-05
-0.000115671
-6.10981e-05
-0.000103715
-7.98407e-05
-8.82895e-05
-9.84435e-05
-7.00002e-05
-0.000114563
-4.81615e-05
-0.000129782
-2.45052e-05
-0.000139365
-0.000140032
-0.000143719
-4.76733e-05
-0.000134624
-7.01938e-05
-0.00012211
-9.23542e-05
-0.000105001
-0.000115552
-8.45574e-05
-0.000135007
-5.85876e-05
-0.000155752
-3.03302e-05
-0.000167623
-0.000170362
-0.00016539
-5.33435e-05
-0.000155839
-7.97452e-05
-0.000142794
-0.000105399
-0.000123591
-0.000134754
-0.000101053
-0.000157546
-7.02752e-05
-0.000186529
-3.72186e-05
-0.000200679
-0.000207581
-0.000192875
-5.76552e-05
-0.000184355
-8.82656e-05
-0.000172438
-0.000117316
-0.000152229
-0.000154963
-0.000127905
-0.00018187
-9.05841e-05
-0.00022385
-4.96101e-05
-0.000241653
-0.000257191
-0.000219528
-6.12376e-05
-0.000210929
-9.68643e-05
-0.000199853
-0.000128392
-0.000177885
-0.000176931
-0.000153258
-0.000206497
-0.000109458
-0.00026765
-6.32512e-05
-0.00028786
-0.000320442
-0.000259014
-6.06039e-05
-0.000255317
-0.000100562
-0.000249778
-0.000133931
-0.000230992
-0.000195718
-0.000207882
-0.000229606
-0.000154969
-0.000320564
-9.51967e-05
-0.000347632
-0.000415639
-0.000286331
-5.88953e-05
-0.000283197
-0.000103696
-0.000281016
-0.000136112
-0.000262882
-0.000213851
-0.000246423
-0.000246066
-0.000188475
-0.000378512
-0.000130089
-0.000406018
-0.000545728
-0.000340646
-4.80401e-05
-0.000351391
-9.29513e-05
-0.000365556
-0.000121947
-0.000365916
-0.000213491
-0.000365547
-0.000246435
-0.00030547
-0.000438588
-0.000230771
-0.000480717
-0.000776499
-0.000357525
-3.84757e-05
-0.000367845
-8.26313e-05
-0.000385453
-0.000104339
-0.000391186
-0.000207757
-0.000414295
-0.000223327
-0.000371032
-0.000481851
-0.000342942
-0.000508807
-0.00111944
-0.000419896
-1.34086e-05
-0.000459164
-4.3364e-05
-0.000514131
-4.93721e-05
-0.0005819
-0.000139988
-0.000665462
-0.000139764
-0.000687301
-0.000460013
-0.000640888
-0.00055522
-0.00176033
-0.000315252
-9.26693e-06
-0.000335192
-2.34246e-05
-0.000343735
-4.08292e-05
-0.000376809
-0.000106914
-0.000377048
-0.000139525
-0.000380167
-0.000456894
-0.000304015
-0.000631372
-0.00206434
0.0034633
0.00343988
0.00339905
0.00329213
0.00315261
0.00269572
0.00206434
-9.24817e-07
9.24817e-07
-1.70575e-06
7.80936e-07
-2.18104e-06
4.7529e-07
-2.30652e-06
1.25477e-07
-2.07699e-06
-2.29533e-07
-1.54997e-06
-5.27015e-07
-8.10958e-07
-7.39014e-07
-8.10958e-07
-1.04579e-06
1.97061e-06
-1.91745e-06
1.65259e-06
-2.43131e-06
9.89151e-07
-2.52943e-06
2.23601e-07
-2.25868e-06
-5.0029e-07
-1.67994e-06
-1.10575e-06
-8.77742e-07
-1.54121e-06
-1.6887e-06
-1.5661e-06
3.53672e-06
-2.8058e-06
2.89228e-06
-3.49217e-06
1.67552e-06
-3.63633e-06
3.6776e-07
-3.22135e-06
-9.15271e-07
-2.37281e-06
-1.95429e-06
-1.23212e-06
-2.68191e-06
-2.92082e-06
-1.88837e-06
5.42509e-06
-3.34991e-06
4.35383e-06
-4.098e-06
2.4236e-06
-4.12398e-06
3.93744e-07
-3.59675e-06
-1.44251e-06
-2.63506e-06
-2.91597e-06
-1.36413e-06
-3.95284e-06
-4.28495e-06
-3.58405e-06
9.00914e-06
-6.0135e-06
6.78328e-06
-7.01705e-06
3.42715e-06
-6.97345e-06
3.5014e-07
-5.94841e-06
-2.46754e-06
-4.26832e-06
-4.59607e-06
-2.18422e-06
-6.03693e-06
-6.46917e-06
-4.34383e-06
1.3353e-05
-7.24428e-06
9.68372e-06
-8.3133e-06
4.49617e-06
-7.99278e-06
2.96169e-08
-6.74289e-06
-3.71743e-06
-4.83291e-06
-6.50605e-06
-2.46884e-06
-8.401e-06
-8.93801e-06
-9.88429e-06
2.32373e-05
-1.47991e-05
1.45985e-05
-1.52586e-05
4.95566e-06
-1.3965e-05
-1.26401e-06
-1.1244e-05
-6.43841e-06
-7.7859e-06
-9.96413e-06
-3.9073e-06
-1.22796e-05
-1.28453e-05
-1.18803e-05
-1.73084e-05
-1.76537e-05
-1.5855e-05
-1.27457e-05
-8.84326e-06
-4.44294e-06
)
;

boundaryField
{
    movingWall
    {
        type            calculated;
        value           uniform 0;
    }
    fixedWalls
    {
        type            calculated;
        value           uniform 0;
    }
    frontAndBack
    {
        type            empty;
        value           nonuniform List<scalar> 0();
    }
}


// ************************************************************************* //
