0 	-3.38744e-09
1.57135 	2.90673e-05
3.1427 	-0.00017458
4.71405 	-0.000841332
6.28539 	-0.00196138
7.85674 	-0.00341833
9.42809 	-0.0037883
10.9994 	-0.00276137
12.5708 	0.0159354
14.1421 	0.0487446
