/*--------------------------------*- C++ -*----------------------------------*\
  =========                 |
  \\      /  F ield         | OpenFOAM: The Open Source CFD Toolbox
   \\    /   O peration     | Website:  https://openfoam.org
    \\  /    A nd           | Version:  8
     \\/     M anipulation  |
\*---------------------------------------------------------------------------*/
FoamFile
{
    version     2.0;
    format      ascii;
    class       volScalarField;
    location    "28.5";
    object      p;
}
// * * * * * * * * * * * * * * * * * * * * * * * * * * * * * * * * * * * * * //

dimensions      [0 2 -2 0 0 0 0];

internalField   nonuniform List<scalar> 
116
(
1.17373e-07
-0.000594751
-0.00101209
-0.00247442
0.000455398
-0.00776281
0.000379966
9.48357e-05
0.000102507
-0.00262347
-0.00137139
-0.0030662
0.00060271
0.000297319
0.000172493
-0.00197419
-0.00475912
-0.00777434
0.000640902
0.000482994
-0.000125949
-0.00246466
-0.00677082
-0.0093379
0.000271414
0.000161929
-0.000798083
-0.00331954
-0.00885013
-0.0117378
-0.000456729
-0.000476606
-0.00142114
-0.00327165
-0.00815446
-0.0109073
-0.000497606
-0.000808901
-0.00144859
-0.00264472
-0.00612071
-0.00926017
-0.00151985
-0.000981992
-0.00093572
-0.00107895
-0.00267921
-0.00416937
-0.000198426
-0.00174162
-0.000879984
-0.00123238
-0.00138311
-0.00302248
-0.00691838
0.000307312
0.000972931
0.001318
0.00101181
-0.000282553
0.000700911
0.008059
0.00684941
0.0113986
-0.00154789
0.00168357
0.00368494
0.00640067
-0.00702021
-0.00445771
-0.00216329
0.000347044
-0.00948498
-0.00728876
-0.00643355
-0.00367099
-0.0119849
-0.00920913
-0.0090457
-0.00574562
-0.0115249
-0.00816375
-0.0089746
-0.00531135
-0.0101964
-0.00714034
-0.00915304
-0.00218431
-0.00430459
-0.0025213
-0.00320459
0.00603187
-0.00496029
-0.00394345
-0.00377743
0.0118574
-0.00135382
0.0042982
0.0149734
0.0501065
0.0141205
0.0140106
0.0138512
0.016778
0.0128217
0.0132217
0.0116212
0.0137183
0.00966155
0.0104643
0.00876318
0.00958171
0.00650393
0.0126217
0.00747704
0.0109817
)
;

boundaryField
{
    movingWall
    {
        type            zeroGradient;
    }
    fixedWalls
    {
        type            zeroGradient;
    }
    frontAndBack
    {
        type            empty;
    }
}


// ************************************************************************* //
