/*--------------------------------*- C++ -*----------------------------------*\
  =========                 |
  \\      /  F ield         | OpenFOAM: The Open Source CFD Toolbox
   \\    /   O peration     | Website:  https://openfoam.org
    \\  /    A nd           | Version:  8
     \\/     M anipulation  |
\*---------------------------------------------------------------------------*/
FoamFile
{
    version     2.0;
    format      ascii;
    class       volScalarField;
    location    "1.86";
    object      p;
}
// * * * * * * * * * * * * * * * * * * * * * * * * * * * * * * * * * * * * * //

dimensions      [0 2 -2 0 0 0 0];

internalField   nonuniform List<scalar> 
400
(
3.64898e-16
1.01343e-15
1.85178e-15
2.50355e-15
2.92428e-15
3.23805e-15
3.42835e-15
3.51093e-15
3.51724e-15
3.50345e-15
3.49548e-15
3.42025e-15
3.37412e-15
3.29708e-15
3.17052e-15
2.94519e-15
2.68385e-15
2.33633e-15
1.7504e-15
9.65327e-16
1.29159e-15
1.68022e-15
2.18236e-15
2.61738e-15
2.96475e-15
3.23346e-15
3.38379e-15
3.49518e-15
3.4732e-15
3.48632e-15
3.49322e-15
3.37917e-15
3.38489e-15
3.36734e-15
3.3108e-15
3.03244e-15
2.77295e-15
2.56049e-15
2.1764e-15
1.51632e-15
2.02067e-15
2.24741e-15
2.51003e-15
2.81645e-15
3.13097e-15
3.38698e-15
3.40724e-15
3.43005e-15
3.4629e-15
3.41043e-15
3.5257e-15
3.43504e-15
3.36943e-15
3.38522e-15
3.3981e-15
3.15986e-15
2.91827e-15
2.85996e-15
2.57969e-15
2.15545e-15
2.53223e-15
2.71314e-15
2.84874e-15
2.95526e-15
3.23049e-15
3.53373e-15
3.66405e-15
3.57176e-15
3.50186e-15
3.38781e-15
3.40309e-15
3.40432e-15
3.37905e-15
3.45804e-15
3.47278e-15
3.29761e-15
3.19887e-15
3.20295e-15
3.0278e-15
2.64912e-15
3.03396e-15
3.06416e-15
3.13875e-15
3.17555e-15
3.47593e-15
3.63923e-15
3.75075e-15
3.57493e-15
3.46925e-15
3.4992e-15
3.3929e-15
3.40698e-15
3.30179e-15
3.4523e-15
3.46682e-15
3.5323e-15
3.41197e-15
3.34897e-15
3.37119e-15
3.16901e-15
3.37045e-15
3.56565e-15
3.44449e-15
3.38905e-15
3.65376e-15
3.6919e-15
3.77427e-15
3.63582e-15
3.45201e-15
3.3692e-15
3.33331e-15
3.4944e-15
3.41359e-15
3.46347e-15
3.65538e-15
3.62427e-15
3.48677e-15
3.46122e-15
3.40874e-15
3.33376e-15
3.54844e-15
3.9121e-15
3.60735e-15
3.52115e-15
3.81299e-15
3.46164e-15
3.74924e-15
3.8775e-15
3.49511e-15
3.40154e-15
3.19195e-15
3.44089e-15
3.52759e-15
3.35748e-15
3.40613e-15
3.5492e-15
3.7556e-15
3.73129e-15
3.76438e-15
3.67484e-15
3.81234e-15
4.02567e-15
3.7072e-15
3.77845e-15
3.80275e-15
3.44899e-15
3.74007e-15
3.71796e-15
3.43802e-15
3.33153e-15
3.17885e-15
3.50167e-15
3.34338e-15
3.26086e-15
3.49248e-15
3.43525e-15
3.67819e-15
3.75988e-15
4.08688e-15
4.05277e-15
4.19845e-15
4.43324e-15
4.18983e-15
4.05801e-15
3.92426e-15
3.64786e-15
3.85579e-15
3.37727e-15
3.32013e-15
3.57578e-15
3.29658e-15
3.46838e-15
3.2831e-15
3.23894e-15
3.41247e-15
3.20758e-15
3.84205e-15
3.88624e-15
4.04897e-15
4.06106e-15
4.48717e-15
4.72871e-15
4.32695e-15
4.40042e-15
4.55801e-15
4.2515e-15
3.91373e-15
3.35071e-15
3.02237e-15
3.47094e-15
3.62998e-15
3.34224e-15
3.35568e-15
3.503e-15
3.27421e-15
3.4838e-15
3.96665e-15
4.01533e-15
3.87004e-15
3.94404e-15
5.07749e-15
4.54825e-15
4.4195e-15
4.77528e-15
4.97485e-15
4.72983e-15
4.08766e-15
3.34307e-15
3.27894e-15
3.42138e-15
3.4679e-15
3.84214e-15
3.77675e-15
3.6144e-15
3.34923e-15
3.48805e-15
4.16088e-15
4.1843e-15
4.02168e-15
4.50983e-15
5.03676e-15
4.88021e-15
4.36483e-15
4.80551e-15
4.70732e-15
4.42734e-15
4.4546e-15
4.1589e-15
3.70696e-15
3.4982e-15
3.51941e-15
3.8352e-15
4.05137e-15
4.09078e-15
3.70804e-15
3.89358e-15
3.84302e-15
4.09547e-15
4.28851e-15
4.42014e-15
5.19322e-15
4.79136e-15
4.38229e-15
4.62217e-15
4.50914e-15
4.36863e-15
4.78666e-15
4.12808e-15
4.17099e-15
3.95429e-15
3.96515e-15
3.65281e-15
4.33067e-15
4.6128e-15
3.87133e-15
4.30692e-15
4.19622e-15
3.81619e-15
4.33848e-15
4.99742e-15
4.79538e-15
4.93457e-15
4.65197e-15
4.18653e-15
4.4682e-15
4.84702e-15
4.79564e-15
4.43976e-15
4.07742e-15
3.94877e-15
3.94838e-15
3.61518e-15
4.38875e-15
4.69325e-15
4.80971e-15
4.64887e-15
5.03056e-15
4.89987e-15
4.91169e-15
4.88588e-15
5.31981e-15
5.03836e-15
4.44785e-15
4.46599e-15
4.42903e-15
4.51032e-15
4.94941e-15
4.78612e-15
4.4394e-15
4.08428e-15
4.10901e-15
4.10763e-15
4.81498e-15
5.03405e-15
4.7653e-15
5.05985e-15
5.25927e-15
5.29143e-15
5.56607e-15
5.99101e-15
5.45449e-15
4.642e-15
4.18229e-15
4.15946e-15
4.64809e-15
4.92909e-15
5.45111e-15
5.35801e-15
4.3556e-15
4.16159e-15
4.29767e-15
4.53785e-15
4.68711e-15
4.95355e-15
5.14907e-15
4.87473e-15
5.44846e-15
5.59297e-15
5.60887e-15
5.88834e-15
4.81585e-15
4.39541e-15
4.37505e-15
4.33745e-15
4.64308e-15
5.27498e-15
6.26606e-15
5.60308e-15
4.1653e-15
4.17414e-15
4.15705e-15
4.51612e-15
4.43915e-15
5.01795e-15
5.59111e-15
5.16259e-15
5.5627e-15
5.88098e-15
5.80837e-15
5.34703e-15
4.06646e-15
4.49722e-15
4.664e-15
4.49826e-15
4.2338e-15
5.60584e-15
6.2921e-15
5.44828e-15
4.34307e-15
4.46499e-15
4.37667e-15
3.98045e-15
4.24432e-15
4.70388e-15
5.10552e-15
5.6304e-15
6.1358e-15
6.2378e-15
5.68753e-15
4.87555e-15
4.38114e-15
4.58619e-15
4.37797e-15
4.16086e-15
4.73391e-15
6.12186e-15
6.77005e-15
5.75027e-15
4.04428e-15
4.05941e-15
4.41689e-15
3.70779e-15
3.92507e-15
4.52154e-15
5.55056e-15
5.61457e-15
6.11681e-15
5.85778e-15
5.30876e-15
4.40118e-15
4.48017e-15
4.90187e-15
4.25339e-15
3.46566e-15
4.74696e-15
6.04287e-15
7.25048e-15
6.14901e-15
4.07017e-15
3.44327e-15
3.55077e-15
4.11326e-15
3.70591e-15
4.47663e-15
5.19716e-15
5.52272e-15
5.74562e-15
5.55365e-15
5.02177e-15
4.16913e-15
)
;

boundaryField
{
    movingWall
    {
        type            zeroGradient;
    }
    fixedWalls
    {
        type            zeroGradient;
    }
    left
    {
        type            cyclic;
    }
    right
    {
        type            cyclic;
    }
    frontAndBack
    {
        type            empty;
    }
}


// ************************************************************************* //
