0 	0 	0 	0
1.57135 	-0.00528858 	0.00524395 	0
3.1427 	-0.0130433 	0.013924 	0
4.71405 	-0.0199304 	0.0241499 	0
6.28539 	-0.0237817 	0.0369789 	0
7.85674 	-0.0225192 	0.0507425 	0
9.42809 	-0.0042231 	0.0563697 	0
10.9994 	0.0394129 	-0.00293543 	0
12.5708 	0.127221 	-0.106516 	0
14.1421 	0.5 	0 	0
