/*--------------------------------*- C++ -*----------------------------------*\
  =========                 |
  \\      /  F ield         | OpenFOAM: The Open Source CFD Toolbox
   \\    /   O peration     | Website:  https://openfoam.org
    \\  /    A nd           | Version:  8
     \\/     M anipulation  |
\*---------------------------------------------------------------------------*/
FoamFile
{
    version     2.0;
    format      ascii;
    class       volScalarField;
    location    "0.875";
    object      T;
}
// * * * * * * * * * * * * * * * * * * * * * * * * * * * * * * * * * * * * * //

dimensions      [0 0 0 1 0 0 0];

internalField   nonuniform List<scalar> 
100
(
49.9709
4.84104
-4.93067
-1.24288
1.30134
0.857067
-0.369807
-1.22002
0.254568
0.521346
95.2769
49.8759
11.236
-4.93016
-3.56883
0.715099
2.14612
1.23534
-1.74569
-1.02379
104.688
89.2613
49.4765
13.3933
-4.04104
-4.67509
-0.208082
1.4989
1.90692
0.191941
101.582
104.283
88.0537
48.8782
13.7856
-3.57687
-5.36821
1.87449
0.718858
-0.297619
98.5149
103.897
103.285
87.4926
49.6086
15.2331
-4.13004
-9.11412
2.93192
3.03468
99.3144
98.9412
105.408
102.528
85.3337
49.7402
18.3344
-2.53505
-11.0574
-1.55354
100.087
98.3651
98.9932
107.401
102.926
82.5665
49.034
18.2471
1.21221
-5.70866
101.091
99.1025
97.8935
98.6059
109.036
102.904
81.5549
49.5475
13.6102
3.55236
100.102
101.084
99.6318
96.7884
98.5157
109.928
101.116
86.7609
48.5873
4.45255
99.5998
100.755
100.358
99.6307
97.26
101.185
106.222
96.9221
94.8657
49.8309
)
;

boundaryField
{
    left
    {
        type            fixedValue;
        value           uniform 100;
    }
    right
    {
        type            zeroGradient;
    }
    up
    {
        type            zeroGradient;
    }
    down
    {
        type            fixedValue;
        value           uniform 0;
    }
    frontAndBack
    {
        type            empty;
    }
}


// ************************************************************************* //
