0 	0 	0 	0
1.57135 	0.00545273 	-0.0117867 	0
3.1427 	-0.0383441 	0.03674 	0
4.71405 	-0.0710945 	0.0967557 	0
6.28539 	-0.0428034 	0.0891001 	0
7.85674 	0.0018013 	0.0341115 	0
9.42809 	0.0422331 	-0.0113586 	0
10.9994 	0.0580322 	-0.0471643 	0
12.5708 	0.121163 	-0.10922 	0
14.1421 	0.5 	0 	0
