/*--------------------------------*- C++ -*----------------------------------*\
  =========                 |
  \\      /  F ield         | OpenFOAM: The Open Source CFD Toolbox
   \\    /   O peration     | Website:  https://openfoam.org
    \\  /    A nd           | Version:  8
     \\/     M anipulation  |
\*---------------------------------------------------------------------------*/
FoamFile
{
    version     2.0;
    format      ascii;
    class       volScalarField;
    location    "0.16";
    object      p;
}
// * * * * * * * * * * * * * * * * * * * * * * * * * * * * * * * * * * * * * //

dimensions      [0 2 -2 0 0 0 0];

internalField   nonuniform List<scalar> 
400
(
-9.28774e-08
-0.00579416
-0.012888
-0.0183009
-0.0202876
-0.018073
-0.0115976
-0.00130581
0.0120092
0.0273093
0.0433898
0.0589535
0.0726969
0.0834197
0.0901641
0.0923858
0.0901586
0.0843935
0.077051
0.0712537
0.00577858
-0.000185832
-0.00574103
-0.00945022
-0.0104817
-0.00829655
-0.00282097
0.00563013
0.0164609
0.0288677
0.0419014
0.0545327
0.0657295
0.0745522
0.0802654
0.0824678
0.0812394
0.0772283
0.0714583
0.0655185
0.0133394
0.00507664
-0.000927937
-0.00433082
-0.00515827
-0.00313161
0.00174744
0.00918084
0.0186593
0.0295071
0.0409216
0.0520234
0.0619207
0.0697891
0.0749633
0.0770414
0.0760151
0.0722708
0.0660012
0.0577565
0.0201518
0.00874991
0.00129957
-0.00257373
-0.00360735
-0.00175417
0.0028751
0.00993755
0.0189391
0.0292565
0.0401541
0.0508159
0.0603949
0.0680795
0.0731709
0.0751763
0.0739511
0.069653
0.0618105
0.0503425
0.0245223
0.00983945
0.000671876
-0.00388693
-0.00518437
-0.0033742
0.00132048
0.00849027
0.0176249
0.0281166
0.0392551
0.0502414
0.0602217
0.0683402
0.0738058
0.0759842
0.0745659
0.0694982
0.0597436
0.0447944
0.0252111
0.0072323
-0.00370817
-0.00894819
-0.010387
-0.00836046
-0.00320479
0.00459192
0.014484
0.0258555
0.0379941
0.050086
0.0612327
0.0704901
0.0769255
0.0797142
0.0783464
0.0725517
0.0607648
0.0421602
0.0211463
-0.000159843
-0.0128254
-0.0185877
-0.0198934
-0.017264
-0.011156
-0.00214652
0.00917244
0.0221649
0.0361029
0.0501404
0.06331
0.074545
0.0827245
0.0867775
0.0859377
0.079673
0.0658496
0.0433493
0.0112214
-0.013491
-0.0277474
-0.0337168
-0.0344527
-0.0306938
-0.0230369
-0.0121581
0.00130124
0.0166875
0.033261
0.0501449
0.0662961
0.0805035
0.0914157
0.0976485
0.0980958
0.0918677
0.0761252
0.0493963
-0.00585803
-0.0341109
-0.0497213
-0.0553931
-0.0549227
-0.0493351
-0.039402
-0.0259106
-0.00954466
0.00904297
0.029126
0.0498211
0.0700258
0.0883824
0.103275
0.11293
0.115784
0.110428
0.0930592
0.0616893
-0.0317154
-0.0636901
-0.0802462
-0.0848329
-0.0822355
-0.0738828
-0.0607739
-0.0438184
-0.0237234
-0.00110099
0.0233866
0.0489042
0.0743388
0.0982137
0.118635
0.133364
0.140229
0.137057
0.118659
0.082208
-0.0684957
-0.104388
-0.121153
-0.123399
-0.117316
-0.104917
-0.087498
-0.0660942
-0.0413956
-0.0139063
0.01586
0.0472096
0.0791114
0.110046
0.137873
0.159831
0.172973
0.174019
0.15573
0.113842
-0.119209
-0.159116
-0.174708
-0.172553
-0.160937
-0.14271
-0.11953
-0.0925372
-0.0623272
-0.0291892
0.0066368
0.0447389
0.084319
0.123963
0.161391
0.193337
0.215919
0.22432
0.208251
0.160905
-0.188427
-0.231985
-0.243724
-0.233738
-0.213479
-0.186932
-0.156141
-0.122259
-0.0856447
-0.0462101
-0.00374701
0.0418077
0.0901088
0.140091
0.189575
0.23494
0.271327
0.291909
0.281936
0.230057
-0.283785
-0.329044
-0.33162
-0.308073
-0.274496
-0.236222
-0.195538
-0.153372
-0.10959
-0.0634853
-0.0141722
0.0391303
0.0968179
0.158534
0.222625
0.285534
0.341646
0.381821
0.385106
0.332134
-0.419156
-0.459429
-0.442154
-0.395595
-0.341926
-0.287532
-0.2344
-0.182701
-0.131367
-0.0787321
-0.0229548
0.0377352
0.104809
0.179085
0.2601
0.345203
0.428855
0.499947
0.52988
0.485718
-0.6204
-0.636536
-0.578502
-0.494009
-0.411053
-0.335467
-0.26758
-0.205763
-0.147307
-0.089141
-0.0281768
0.0385983
0.114051
0.200706
0.300198
0.41224
0.533247
0.652009
0.732991
0.722746
-0.935781
-0.878335
-0.741555
-0.597761
-0.474224
-0.372491
-0.288688
-0.217567
-0.15374
-0.0922359
-0.0284795
0.0419355
0.123498
0.220942
0.339137
0.482351
0.652163
0.841496
1.01547
1.09784
-1.47579
-1.20687
-0.920291
-0.691118
-0.51712
-0.387379
-0.289887
-0.213149
-0.147921
-0.0869985
-0.0243514
0.0456854
0.129158
0.233278
0.367294
0.542835
0.771347
1.05941
1.40391
1.72988
-2.53581
-1.63326
-1.04447
-0.710475
-0.495445
-0.351858
-0.254308
-0.183366
-0.125952
-0.0733751
-0.0190514
0.0429982
0.119405
0.218944
0.354937
0.548033
0.826278
1.23699
1.91493
2.92032
-4.35979
-2.0469
-0.973791
-0.562951
-0.357793
-0.240127
-0.17006
-0.123681
-0.0873374
-0.0533261
-0.0164319
0.0279111
0.0848804
0.162022
0.272722
0.442389
0.71839
1.22635
2.41363
4.84178
)
;

boundaryField
{
    movingWall
    {
        type            zeroGradient;
    }
    fixedWalls
    {
        type            zeroGradient;
    }
    frontAndBack
    {
        type            empty;
    }
}


// ************************************************************************* //
