/*--------------------------------*- C++ -*----------------------------------*\
  =========                 |
  \\      /  F ield         | OpenFOAM: The Open Source CFD Toolbox
   \\    /   O peration     | Website:  https://openfoam.org
    \\  /    A nd           | Version:  8
     \\/     M anipulation  |
\*---------------------------------------------------------------------------*/
FoamFile
{
    version     2.0;
    format      ascii;
    class       surfaceScalarField;
    location    "0.16";
    object      phi;
}
// * * * * * * * * * * * * * * * * * * * * * * * * * * * * * * * * * * * * * //

dimensions      [0 3 -1 0 0 0 0];

internalField   nonuniform List<scalar> 
760
(
1.42191e-08
-1.42183e-08
-2.21649e-08
3.63833e-08
-1.14056e-07
9.1891e-08
-2.45019e-07
1.30962e-07
-3.95305e-07
1.50287e-07
-5.46243e-07
1.50939e-07
-6.81766e-07
1.35523e-07
-7.88996e-07
1.0723e-07
-8.58383e-07
6.93867e-08
-8.83761e-07
2.53773e-08
-8.62492e-07
-2.127e-08
-7.95716e-07
-6.67759e-08
-6.88657e-07
-1.0706e-07
-5.50851e-07
-1.37806e-07
-3.96155e-07
-1.54696e-07
-2.42279e-07
-1.53876e-07
-1.09521e-07
-1.32758e-07
-1.83667e-08
-9.11541e-08
1.56512e-08
-3.40184e-08
1.56512e-08
-3.40873e-08
1.98701e-08
-1.79931e-07
1.82226e-07
-4.32997e-07
3.44958e-07
-7.62723e-07
4.60689e-07
-1.12969e-06
5.17254e-07
-1.49391e-06
5.15155e-07
-1.81927e-06
4.60882e-07
-2.07589e-06
3.63849e-07
-2.24126e-06
2.3476e-07
-2.30091e-06
8.50271e-08
-2.24892e-06
-7.32611e-08
-2.08847e-06
-2.27229e-07
-1.83229e-06
-3.63238e-07
-1.50283e-06
-4.67267e-07
-1.1317e-06
-5.25829e-07
-7.57943e-07
-5.27631e-07
-4.24519e-07
-4.66182e-07
-1.72333e-07
-3.4334e-07
-3.0717e-08
-1.75634e-07
-1.50655e-08
-9.20228e-08
1.11893e-07
-3.56188e-07
4.46391e-07
-7.62852e-07
7.51623e-07
-1.26567e-06
9.63506e-07
-1.81067e-06
1.06225e-06
-2.34382e-06
1.04831e-06
-2.81614e-06
9.33206e-07
-3.18682e-06
7.34528e-07
-3.42497e-06
4.72911e-07
-3.51072e-06
1.70777e-07
-3.43601e-06
-1.47975e-07
-3.20528e-06
-4.5796e-07
-2.83601e-06
-7.32502e-07
-2.35881e-06
-9.44465e-07
-1.81654e-06
-1.06811e-06
-1.26191e-06
-1.08226e-06
-7.53006e-07
-9.75082e-07
-3.46285e-07
-7.50062e-07
-8.71753e-08
-4.34743e-07
-1.02241e-07
-1.44901e-07
2.56795e-07
-5.24355e-07
8.25844e-07
-1.07937e-06
1.30664e-06
-1.74386e-06
1.628e-06
-2.4492e-06
1.76759e-06
-3.12979e-06
1.7289e-06
-3.72743e-06
1.53085e-06
-4.19406e-06
1.20116e-06
-4.49347e-06
7.72313e-07
-4.6023e-06
2.79609e-07
-4.5109e-06
-2.39373e-07
-4.22408e-06
-7.44786e-07
-3.76177e-06
-1.19481e-06
-3.15936e-06
-1.54687e-06
-2.46706e-06
-1.7604e-06
-1.74772e-06
-1.80161e-06
-1.07249e-06
-1.65032e-06
-5.14183e-07
-1.30837e-06
-1.39063e-07
-8.09863e-07
-2.41303e-07
-1.93241e-07
4.50035e-07
-6.83718e-07
1.31632e-06
-1.38305e-06
2.00597e-06
-2.20314e-06
2.44809e-06
-3.05975e-06
2.6242e-06
-3.87651e-06
2.54566e-06
-4.58787e-06
2.24221e-06
-5.1409e-06
1.75419e-06
-5.49611e-06
1.12753e-06
-5.62799e-06
4.11493e-07
-5.52551e-06
-3.41856e-07
-5.19287e-06
-1.07743e-06
-4.6505e-06
-1.73718e-06
-3.93599e-06
-2.26138e-06
-3.10431e-06
-2.59208e-06
-2.2267e-06
-2.67922e-06
-1.38731e-06
-2.48971e-06
-6.77375e-07
-2.0183e-06
-1.87458e-07
-1.29978e-06
-4.28761e-07
-2.39562e-07
6.89597e-07
-8.39042e-07
1.9158e-06
-1.68068e-06
2.84761e-06
-2.65294e-06
3.42034e-06
-3.65513e-06
3.62639e-06
-4.60053e-06
3.49107e-06
-5.41778e-06
3.05946e-06
-6.05097e-06
2.38737e-06
-6.45912e-06
1.53567e-06
-6.61561e-06
5.67991e-07
-6.50815e-06
-4.49325e-07
-6.13933e-06
-1.44625e-06
-5.52816e-06
-2.34835e-06
-4.71192e-06
-3.07762e-06
-3.748e-06
-3.55599e-06
-2.71461e-06
-3.71261e-06
-1.70914e-06
-3.49517e-06
-8.43493e-07
-2.88395e-06
-2.35854e-07
-1.90742e-06
-6.64615e-07
-2.86405e-07
9.76001e-07
-9.95911e-07
2.62531e-06
-1.97974e-06
3.83144e-06
-3.10126e-06
4.54185e-06
-4.24285e-06
4.76798e-06
-5.30835e-06
4.55657e-06
-6.22245e-06
3.97356e-06
-6.92858e-06
3.0935e-06
-7.3863e-06
1.99339e-06
-7.56924e-06
7.50924e-07
-7.46398e-06
-5.54578e-07
-7.07054e-06
-1.83969e-06
-6.40426e-06
-3.01463e-06
-5.49918e-06
-3.9827e-06
-4.41205e-06
-4.64313e-06
-3.2258e-06
-4.89887e-06
-2.05073e-06
-4.67024e-06
-1.02145e-06
-3.91323e-06
-2.87978e-07
-2.64089e-06
-9.52593e-07
-3.36073e-07
1.31207e-06
-1.15947e-06
3.44871e-06
-2.28622e-06
4.95819e-06
-3.55215e-06
5.80778e-06
-4.82266e-06
6.03849e-06
-5.99402e-06
5.72793e-06
-6.99002e-06
4.96957e-06
-7.75675e-06
3.86022e-06
-8.2572e-06
2.49385e-06
-8.46713e-06
9.60853e-07
-8.37261e-06
-6.49105e-07
-7.96998e-06
-2.24231e-06
-7.26839e-06
-3.71621e-06
-6.29473e-06
-4.95636e-06
-5.10056e-06
-5.8373e-06
-3.76958e-06
-6.22985e-06
-2.42305e-06
-6.01677e-06
-1.21984e-06
-5.11644e-06
-3.47459e-07
-3.51327e-06
-1.30005e-06
-3.90818e-07
1.70289e-06
-1.33438e-06
4.39227e-06
-2.60394e-06
6.22775e-06
-4.00427e-06
7.20811e-06
-5.38443e-06
7.41866e-06
-6.63666e-06
6.98016e-06
-7.68869e-06
6.02159e-06
-8.49417e-06
4.6657e-06
-9.02373e-06
3.02341e-06
-9.25805e-06
1.19517e-06
-9.1838e-06
-7.23356e-07
-8.79287e-06
-2.63324e-06
-8.08519e-06
-4.42389e-06
-7.07546e-06
-5.96609e-06
-5.8035e-06
-7.10926e-06
-4.34701e-06
-7.68634e-06
-2.83354e-06
-7.53024e-06
-1.44647e-06
-6.5035e-06
-4.17932e-07
-4.54181e-06
-1.71798e-06
-4.53461e-07
2.15635e-06
-1.52565e-06
5.46446e-06
-2.93476e-06
7.63686e-06
-4.44983e-06
8.72318e-06
-5.90582e-06
8.87464e-06
-7.19703e-06
8.27137e-06
-8.26258e-06
7.08715e-06
-9.07071e-06
5.47383e-06
-9.60527e-06
3.55798e-06
-9.85582e-06
1.44572e-06
-9.81157e-06
-7.67614e-07
-9.45953e-06
-2.98527e-06
-8.78737e-06
-5.09605e-06
-7.79147e-06
-6.962e-06
-6.49096e-06
-8.40977e-06
-4.94706e-06
-9.23024e-06
-3.28454e-06
-9.19276e-06
-1.70841e-06
-8.07964e-06
-5.03526e-07
-5.74669e-06
-2.22151e-06
-5.28501e-07
2.68485e-06
-1.74014e-06
6.6761e-06
-3.27882e-06
9.17554e-06
-4.87281e-06
1.03172e-05
-6.34846e-06
1.03503e-05
-7.61244e-06
9.53536e-06
-8.62606e-06
8.10076e-06
-9.38139e-06
6.22916e-06
-9.88262e-06
4.05921e-06
-1.0133e-05
1.69612e-06
-1.01271e-05
-7.73545e-07
-9.84743e-06
-3.26494e-06
-9.26686e-06
-5.67662e-06
-8.357e-06
-7.87186e-06
-7.10517e-06
-9.66159e-06
-5.54104e-06
-1.07944e-05
-3.77093e-06
-1.09629e-05
-2.0123e-06
-9.83827e-06
-6.09748e-07
-7.14925e-06
-2.83126e-06
-6.2398e-07
3.30883e-06
-1.98834e-06
8.04046e-06
-3.63366e-06
1.08209e-05
-5.24448e-06
1.1928e-05
-6.65085e-06
1.17567e-05
-7.78837e-06
1.06729e-05
-8.65536e-06
8.96776e-06
-9.27894e-06
6.85274e-06
-9.69128e-06
4.47155e-06
-9.91449e-06
1.91933e-06
-9.95166e-06
-7.36376e-07
-9.78261e-06
-3.43399e-06
-9.36438e-06
-6.09485e-06
-8.6385e-06
-8.59775e-06
-7.54862e-06
-1.07515e-05
-6.0732e-06
-1.22698e-05
-4.27532e-06
-1.27607e-05
-2.36421e-06
-1.17494e-05
-7.4496e-07
-8.76849e-06
-3.57622e-06
-7.54494e-07
4.06333e-06
-2.28569e-06
9.57166e-06
-3.98951e-06
1.25247e-05
-5.51277e-06
1.34512e-05
-6.71439e-06
1.29583e-05
-7.58432e-06
1.15428e-05
-8.17662e-06
9.56005e-06
-8.56476e-06
7.24088e-06
-8.81516e-06
4.72196e-06
-8.9725e-06
2.07667e-06
-9.05155e-06
-6.57333e-07
-9.03238e-06
-3.45316e-06
-8.85845e-06
-6.26878e-06
-8.43972e-06
-9.01647e-06
-7.66677e-06
-1.15244e-05
-6.44482e-06
-1.34917e-05
-4.75809e-06
-1.44475e-05
-2.76771e-06
-1.37398e-05
-9.22713e-07
-1.06135e-05
-4.49893e-06
-9.45605e-07
5.00893e-06
-2.65003e-06
1.12761e-05
-4.31393e-06
1.41886e-05
-5.57765e-06
1.4715e-05
-6.37641e-06
1.3757e-05
-6.79026e-06
1.19567e-05
-6.94855e-06
9.71834e-06
-6.97859e-06
7.27092e-06
-6.98212e-06
4.72549e-06
-7.02596e-06
2.12052e-06
-7.13781e-06
-5.45489e-07
-7.30234e-06
-3.28863e-06
-7.45627e-06
-6.11485e-06
-7.48432e-06
-8.98842e-06
-7.22303e-06
-1.17857e-05
-6.48648e-06
-1.42283e-05
-5.13586e-06
-1.57981e-05
-3.2162e-06
-1.56594e-05
-1.16464e-06
-1.2665e-05
-5.66357e-06
-1.2374e-06
6.24633e-06
-3.08468e-06
1.31234e-05
-4.51066e-06
1.56145e-05
-5.23895e-06
1.54433e-05
-5.3612e-06
1.38793e-05
-5.08925e-06
1.16847e-05
-4.63959e-06
9.26867e-06
-4.18895e-06
6.82029e-06
-3.8647e-06
4.40124e-06
-3.7476e-06
2.00342e-06
-3.87551e-06
-4.17587e-07
-4.24238e-06
-2.92176e-06
-4.79079e-06
-5.56644e-06
-5.39843e-06
-8.38077e-06
-5.86432e-06
-1.13198e-05
-5.9108e-06
-1.41818e-05
-5.2355e-06
-1.64734e-05
-3.66743e-06
-1.72275e-05
-1.49999e-06
-1.48325e-05
-7.16357e-06
-1.67293e-06
7.91926e-06
-3.514e-06
1.49644e-05
-4.31773e-06
1.64183e-05
-4.09283e-06
1.52184e-05
-3.19854e-06
1.2985e-05
-2.00576e-06
1.04919e-05
-8.03563e-07
8.06647e-06
2.0978e-07
5.80694e-06
9.07897e-07
3.70312e-06
1.21493e-06
1.69639e-06
1.09152e-06
-2.94183e-07
5.31131e-07
-2.36136e-06
-4.31819e-07
-4.60349e-06
-1.70006e-06
-7.11253e-06
-3.07826e-06
-9.94161e-06
-4.23493e-06
-1.30252e-05
-4.69799e-06
-1.60103e-05
-3.96758e-06
-1.79579e-05
-1.94377e-06
-1.68563e-05
-9.10734e-06
-2.2269e-06
1.01462e-05
-3.58915e-06
1.63267e-05
-3.07914e-06
1.59083e-05
-1.34674e-06
1.3486e-05
8.92684e-07
1.07456e-05
3.14909e-06
8.23553e-06
5.13082e-06
6.08474e-06
6.68021e-06
4.25755e-06
7.71652e-06
2.66681e-06
8.19685e-06
1.21606e-06
8.09426e-06
-1.91599e-07
7.38996e-06
-1.65706e-06
6.07876e-06
-3.2923e-06
4.19242e-06
-5.2262e-06
1.84901e-06
-7.5982e-06
-6.65074e-07
-1.05111e-05
-2.79354e-06
-1.38819e-05
-3.66045e-06
-1.7091e-05
-2.40706e-06
-1.81097e-05
-1.15144e-05
-2.55987e-06
1.2706e-05
-2.18097e-06
1.59478e-05
7.17423e-07
1.30099e-05
4.46791e-06
9.73549e-06
8.13045e-06
7.08304e-06
1.12974e-05
5.06858e-06
1.38236e-05
3.55852e-06
1.56815e-05
2.39964e-06
1.68843e-05
1.46401e-06
1.74472e-05
6.53237e-07
1.73687e-05
-1.13127e-07
1.66233e-05
-9.11657e-07
1.51608e-05
-1.82982e-06
1.29183e-05
-2.98367e-06
9.85785e-06
-4.53777e-06
6.0595e-06
-6.71272e-06
1.91151e-06
-9.73388e-06
-1.55656e-06
-1.36229e-05
-2.4431e-06
-1.72231e-05
-1.39575e-05
-8.09816e-07
1.35158e-05
4.07591e-06
1.10621e-05
1.02968e-05
6.78898e-06
1.57929e-05
4.23939e-06
2.01567e-05
2.71928e-06
2.34558e-05
1.76943e-06
2.58576e-05
1.15673e-06
2.75175e-05
7.39741e-07
2.85494e-05
4.32088e-07
2.90215e-05
1.81124e-07
2.89573e-05
-4.8928e-08
2.83342e-05
-2.88565e-07
2.70779e-05
-5.7352e-07
2.50519e-05
-9.57673e-07
2.20493e-05
-1.53518e-06
1.78137e-05
-2.47709e-06
1.21707e-05
-4.09087e-06
5.47179e-06
-6.92401e-06
-1.56585e-07
-1.15948e-05
-1.41141e-05
1.35158e-05
2.45779e-05
3.13669e-05
3.56063e-05
3.83256e-05
4.0095e-05
4.12517e-05
4.19915e-05
4.24236e-05
4.26047e-05
4.25558e-05
4.22672e-05
4.16937e-05
4.0736e-05
3.92008e-05
3.67237e-05
3.26329e-05
2.57088e-05
1.41141e-05
)
;

boundaryField
{
    movingWall
    {
        type            calculated;
        value           uniform 0;
    }
    fixedWalls
    {
        type            calculated;
        value           uniform 0;
    }
    frontAndBack
    {
        type            empty;
        value           nonuniform List<scalar> 0();
    }
}


// ************************************************************************* //
