/*--------------------------------*- C++ -*----------------------------------*\
  =========                 |
  \\      /  F ield         | OpenFOAM: The Open Source CFD Toolbox
   \\    /   O peration     | Website:  https://openfoam.org
    \\  /    A nd           | Version:  8
     \\/     M anipulation  |
\*---------------------------------------------------------------------------*/
FoamFile
{
    version     2.0;
    format      ascii;
    class       volVectorField;
    location    "0.16";
    object      U;
}
// * * * * * * * * * * * * * * * * * * * * * * * * * * * * * * * * * * * * * //

dimensions      [0 1 -1 0 0 0 0];

internalField   nonuniform List<vector> 
400
(
(0.000253143 -0.000248974 0)
(0.000140441 0.000112606 0)
(-0.00117484 0.000564952 0)
(-0.00347459 0.000884802 0)
(-0.00636491 0.00104519 0)
(-0.00945025 0.0010611 0)
(-0.0123773 0.000957207 0)
(-0.0148537 0.000759892 0)
(-0.0166542 0.000494264 0)
(-0.0176209 0.000184401 0)
(-0.0176647 -0.000145176 0)
(-0.0167698 -0.000468025 0)
(-0.0149989 -0.000754861 0)
(-0.0124995 -0.000973574 0)
(-0.00950732 -0.00109047 0)
(-0.00634256 -0.00107339 0)
(-0.00339413 -0.000897785 0)
(-0.00108461 -0.000556455 0)
(0.000195442 -9.06563e-05 0)
(0.000267009 0.000261712 0)
(-7.71477e-05 -0.000168623 0)
(-0.00160752 0.00164277 0)
(-0.00567946 0.00361126 0)
(-0.0116924 0.00502576 0)
(-0.0188502 0.00573241 0)
(-0.0263421 0.00574907 0)
(-0.0333946 0.00516152 0)
(-0.0393389 0.00408442 0)
(-0.0436464 0.00264244 0)
(-0.0459447 0.000965168 0)
(-0.0460274 -0.000811329 0)
(-0.0438649 -0.00254169 0)
(-0.0396151 -0.00407031 0)
(-0.0336306 -0.00523472 0)
(-0.0264575 -0.0058753 0)
(-0.0188154 -0.00585408 0)
(-0.0115428 -0.00508586 0)
(-0.00550193 -0.00358346 0)
(-0.00149061 -0.00155638 0)
(-4.30945e-05 0.000226745 0)
(-0.000528291 0.00108895 0)
(-0.00370387 0.00572394 0)
(-0.0105651 0.0102028 0)
(-0.0199473 0.0133787 0)
(-0.0306968 0.0149134 0)
(-0.0417297 0.0148057 0)
(-0.0520043 0.0132258 0)
(-0.0606094 0.0104326 0)
(-0.0668211 0.00672706 0)
(-0.0701276 0.0024341 0)
(-0.0702463 -0.00210062 0)
(-0.0671382 -0.00650937 0)
(-0.0610213 -0.0104045 0)
(-0.0523777 -0.0133903 0)
(-0.0419498 -0.01509 0)
(-0.0307112 -0.015193 0)
(-0.0197892 -0.013528 0)
(-0.010343 -0.0101584 0)
(-0.00354273 -0.00553962 0)
(-0.000477075 -0.000946955 0)
(-0.000927667 0.00347134 0)
(-0.00568096 0.0121939 0)
(-0.0152698 0.0198789 0)
(-0.0278589 0.0251433 0)
(-0.0418985 0.0275364 0)
(-0.0560624 0.0270772 0)
(-0.0691079 0.024055 0)
(-0.0799586 0.0189116 0)
(-0.087765 0.0121691 0)
(-0.0919277 0.00439694 0)
(-0.0921133 -0.0037969 0)
(-0.0882699 -0.0117673 0)
(-0.0806425 -0.0188374 0)
(-0.0697846 -0.0243206 0)
(-0.0565591 -0.0275667 0)
(-0.0421144 -0.0280419 0)
(-0.0278043 -0.0254452 0)
(-0.0150657 -0.0198518 0)
(-0.00549652 -0.0119037 0)
(-0.000861604 -0.0032185 0)
(-0.00127845 0.00686241 0)
(-0.00752394 0.0209094 0)
(-0.0197681 0.0324427 0)
(-0.0354695 0.040019 0)
(-0.0526465 0.0431981 0)
(-0.0697296 0.042102 0)
(-0.085305 0.0371969 0)
(-0.0981778 0.0291501 0)
(-0.10742 0.018738 0)
(-0.11238 0.00680189 0)
(-0.11269 -0.00576361 0)
(-0.108277 -0.0180108 0)
(-0.0993839 -0.0289444 0)
(-0.0865866 -0.0375492 0)
(-0.0708133 -0.0428531 0)
(-0.0533399 -0.0440379 0)
(-0.035725 -0.0405978 0)
(-0.0197026 -0.0325295 0)
(-0.00736061 -0.0205511 0)
(-0.00120377 -0.00648602 0)
(-0.0016075 0.0111926 0)
(-0.00930611 0.0318114 0)
(-0.024172 0.0478575 0)
(-0.0429366 0.0579565 0)
(-0.0631598 0.0618121 0)
(-0.0830242 0.0597588 0)
(-0.100967 0.05252 0)
(-0.115711 0.0410416 0)
(-0.12629 0.0263846 0)
(-0.13203 0.0096771 0)
(-0.132543 -0.00789387 0)
(-0.127726 -0.0250733 0)
(-0.117788 -0.0405353 0)
(-0.10328 -0.0529071 0)
(-0.085145 -0.0608422 0)
(-0.0647433 -0.0631564 0)
(-0.0438241 -0.0590308 0)
(-0.0244439 -0.0482564 0)
(-0.0092443 -0.031501 0)
(-0.0015383 -0.0107099 0)
(-0.00194085 0.0164466 0)
(-0.0111113 0.0448928 0)
(-0.0286166 0.0661134 0)
(-0.0504202 0.0789142 0)
(-0.0735974 0.0832902 0)
(-0.096088 0.0799219 0)
(-0.11621 0.06989 0)
(-0.132651 0.0544804 0)
(-0.144452 0.0350666 0)
(-0.150954 0.0130648 0)
(-0.151762 -0.0100591 0)
(-0.146737 -0.0327603 0)
(-0.136018 -0.0533888 0)
(-0.120082 -0.0701977 0)
(-0.0998183 -0.0814108 0)
(-0.0766158 -0.0853778 0)
(-0.0523828 -0.0808233 0)
(-0.029513 -0.0671646 0)
(-0.011275 -0.0448662 0)
(-0.00190144 -0.0159264 0)
(-0.00230201 0.0226582 0)
(-0.0130187 0.0602039 0)
(-0.0332246 0.0872221 0)
(-0.0580333 0.102826 0)
(-0.0840063 0.107483 0)
(-0.108863 0.102384 0)
(-0.130856 0.0890873 0)
(-0.148705 0.0692887 0)
(-0.161524 0.0446952 0)
(-0.168718 0.0169959 0)
(-0.169912 -0.0121026 0)
(-0.164927 -0.0408099 0)
(-0.153797 -0.0671859 0)
(-0.136854 -0.0891113 0)
(-0.114848 -0.104332 0)
(-0.0891049 -0.110615 0)
(-0.0616228 -0.106046 0)
(-0.0351217 -0.0894454 0)
(-0.0135801 -0.0608611 0)
(-0.00232886 -0.0222467 0)
(-0.00271516 0.029906 0)
(-0.0151068 0.0778488 0)
(-0.0380995 0.111199 0)
(-0.0658209 0.129561 0)
(-0.0942858 0.134115 0)
(-0.121043 0.126777 0)
(-0.144374 0.109728 0)
(-0.163131 0.0851459 0)
(-0.176595 0.0550813 0)
(-0.184309 0.021459 0)
(-0.185958 -0.0138422 0)
(-0.181325 -0.0488661 0)
(-0.170305 -0.0814526 0)
(-0.153002 -0.109145 0)
(-0.129906 -0.129181 0)
(-0.102136 -0.138626 0)
(-0.0716558 -0.134701 0)
(-0.0414481 -0.115318 0)
(-0.0162863 -0.0797952 0)
(-0.00285879 -0.0298543 0)
(-0.00321309 0.038317 0)
(-0.0174714 0.097977 0)
(-0.0433392 0.138025 0)
(-0.0737522 0.158848 0)
(-0.104152 0.162689 0)
(-0.132018 0.152465 0)
(-0.155806 0.131157 0)
(-0.174653 0.101496 0)
(-0.188137 0.0658653 0)
(-0.196033 0.0263578 0)
(-0.198148 -0.0150807 0)
(-0.194245 -0.056452 0)
(-0.184044 -0.0954952 0)
(-0.167332 -0.129502 0)
(-0.144187 -0.155213 0)
(-0.115316 -0.168883 0)
(-0.0824302 -0.166605 0)
(-0.0486274 -0.144963 0)
(-0.0195323 -0.102053 0)
(-0.00353969 -0.0390095 0)
(-0.00385166 0.0480877 0)
(-0.0202585 0.120784 0)
(-0.0490592 0.167591 0)
(-0.0817065 0.19017 0)
(-0.11308 0.192345 0)
(-0.140777 0.178406 0)
(-0.163655 0.152326 0)
(-0.181344 0.117445 0)
(-0.19388 0.0764393 0)
(-0.201392 0.0314594 0)
(-0.203885 -0.0156295 0)
(-0.201134 -0.0629591 0)
(-0.192668 -0.108345 0)
(-0.177872 -0.148983 0)
(-0.156235 -0.181203 0)
(-0.127788 -0.20039 0)
(-0.093649 -0.201224 0)
(-0.0567359 -0.17841 0)
(-0.0234898 -0.128064 0)
(-0.00444418 -0.0500665 0)
(-0.00473559 0.0595351 0)
(-0.0237141 0.146517 0)
(-0.0554092 0.199607 0)
(-0.0894196 0.222607 0)
(-0.120182 0.22169 0)
(-0.145749 0.202987 0)
(-0.165714 0.171659 0)
(-0.180463 0.131666 0)
(-0.190677 0.0858746 0)
(-0.196959 0.0363394 0)
(-0.199595 -0.0153458 0)
(-0.198422 -0.0676581 0)
(-0.192794 -0.118729 0)
(-0.181639 -0.165899 0)
(-0.163697 -0.205284 0)
(-0.138005 -0.231452 0)
(-0.104622 -0.237432 0)
(-0.0657484 -0.215367 0)
(-0.0283946 -0.158263 0)
(-0.00569368 -0.0635167 0)
(-0.00606421 0.0731999 0)
(-0.0282513 0.175479 0)
(-0.0625459 0.233441 0)
(-0.0963187 0.254583 0)
(-0.123943 0.248549 0)
(-0.144505 0.223842 0)
(-0.158796 0.186939 0)
(-0.168246 0.142326 0)
(-0.174349 0.0928777 0)
(-0.17827 0.0403413 0)
(-0.180634 -0.0141792 0)
(-0.181406 -0.0697462 0)
(-0.179822 -0.125086 0)
(-0.174379 -0.178017 0)
(-0.162983 -0.224787 0)
(-0.143383 -0.259396 0)
(-0.113983 -0.273151 0)
(-0.0754192 -0.254923 0)
(-0.0345799 -0.192997 0)
(-0.0075009 -0.0800737 0)
(-0.00820589 0.0900269 0)
(-0.0345111 0.207958 0)
(-0.0704555 0.267781 0)
(-0.101096 0.283469 0)
(-0.121677 0.269654 0)
(-0.133237 0.237679 0)
(-0.138316 0.195255 0)
(-0.139635 0.147111 0)
(-0.139553 0.095826 0)
(-0.139787 0.042583 0)
(-0.1413 -0.0122193 0)
(-0.144237 -0.0684444 0)
(-0.147834 -0.125688 0)
(-0.150313 -0.182629 0)
(-0.148838 -0.236162 0)
(-0.139733 -0.28028 0)
(-0.119155 -0.304871 0)
(-0.0849702 -0.295036 0)
(-0.0424679 -0.2323 0)
(-0.0102323 -0.100812 0)
(-0.0117783 0.111623 0)
(-0.0432835 0.243923 0)
(-0.078339 0.299961 0)
(-0.100702 0.304986 0)
(-0.108457 0.280333 0)
(-0.105867 0.240249 0)
(-0.0976927 0.193156 0)
(-0.0879576 0.143446 0)
(-0.0797047 0.0929643 0)
(-0.0749984 0.0420621 0)
(-0.0750165 -0.00972006 0)
(-0.0800957 -0.0631617 0)
(-0.0896507 -0.118905 0)
(-0.101952 -0.176843 0)
(-0.11382 -0.235153 0)
(-0.120407 -0.288746 0)
(-0.115331 -0.327071 0)
(-0.0923022 -0.331698 0)
(-0.0523383 -0.275347 0)
(-0.014443 -0.127327 0)
(-0.0175457 0.140643 0)
(-0.0547666 0.282135 0)
(-0.0828156 0.324677 0)
(-0.0881448 0.312398 0)
(-0.0752038 0.27436 0)
(-0.0527174 0.226668 0)
(-0.0276149 0.177191 0)
(-0.00469702 0.129054 0)
(0.0128966 0.082856 0)
(0.0232263 0.0379199 0)
(0.0251826 -0.00706833 0)
(0.0182991 -0.0537221 0)
(0.0027884 -0.103688 0)
(-0.0201634 -0.158235 0)
(-0.0478212 -0.217403 0)
(-0.0750854 -0.278259 0)
(-0.0936112 -0.331699 0)
(-0.0920892 -0.35762 0)
(-0.0632776 -0.319266 0)
(-0.0206291 -0.161946 0)
(-0.0253981 0.181647 0)
(-0.0657149 0.317821 0)
(-0.0733401 0.331365 0)
(-0.0481225 0.295354 0)
(-0.00565046 0.244145 0)
(0.0411158 0.192308 0)
(0.0845197 0.144978 0)
(0.120376 0.102914 0)
(0.146521 0.0650972 0)
(0.161854 0.0298719 0)
(0.165745 -0.00466847 0)
(0.157745 -0.0406036 0)
(0.137557 -0.0802026 0)
(0.105289 -0.12586 0)
(0.0621414 -0.17966 0)
(0.01172 -0.241953 0)
(-0.037881 -0.307823 0)
(-0.0716834 -0.360134 0)
(-0.0699788 -0.356647 0)
(-0.0278509 -0.208287 0)
(-0.0294355 0.238942 0)
(-0.0606152 0.335942 0)
(-0.0219475 0.300577 0)
(0.050505 0.240112 0)
(0.127529 0.182911 0)
(0.196939 0.135347 0)
(0.254239 0.0973581 0)
(0.298128 0.0668169 0)
(0.328683 0.0413315 0)
(0.346313 0.0187673 0)
(0.351219 -0.00279214 0)
(0.343151 -0.0252507 0)
(0.32133 -0.0507627 0)
(0.284524 -0.0820156 0)
(0.23148 -0.12241 0)
(0.162118 -0.175637 0)
(0.079851 -0.243421 0)
(-0.00319687 -0.319211 0)
(-0.0544004 -0.368778 0)
(-0.0282119 -0.267336 0)
(0.00867991 0.281482 0)
(0.0203618 0.295061 0)
(0.138995 0.211057 0)
(0.264399 0.143508 0)
(0.364348 0.0972003 0)
(0.440331 0.0657848 0)
(0.496687 0.0442396 0)
(0.536799 0.0288853 0)
(0.563357 0.0171977 0)
(0.578207 0.00748464 0)
(0.582279 -0.00149298 0)
(0.575598 -0.0108431 0)
(0.557222 -0.0218456 0)
(0.525063 -0.0363366 0)
(0.475724 -0.0572677 0)
(0.404497 -0.0894024 0)
(0.305095 -0.13978 0)
(0.17332 -0.216472 0)
(0.0417908 -0.311724 0)
(0.0190837 -0.299589 0)
(0.300183 0.145891 0)
(0.396874 0.12746 0)
(0.55741 0.0761133 0)
(0.674457 0.0437522 0)
(0.743886 0.025598 0)
(0.787142 0.0152632 0)
(0.815462 0.00922781 0)
(0.833924 0.00551994 0)
(0.845349 0.00303383 0)
(0.851332 0.00115287 0)
(0.852627 -0.000498896 0)
(0.849345 -0.00221747 0)
(0.840966 -0.00434473 0)
(0.826112 -0.00743539 0)
(0.802058 -0.0125501 0)
(0.763607 -0.0217982 0)
(0.699062 -0.0393154 0)
(0.583903 -0.0726876 0)
(0.41641 -0.12782 0)
(0.309416 -0.149275 0)
)
;

boundaryField
{
    movingWall
    {
        type            fixedValue;
        value           uniform (1 0 0);
    }
    fixedWalls
    {
        type            noSlip;
    }
    frontAndBack
    {
        type            empty;
    }
}


// ************************************************************************* //
