/*--------------------------------*- C++ -*----------------------------------*\
  =========                 |
  \\      /  F ield         | OpenFOAM: The Open Source CFD Toolbox
   \\    /   O peration     | Website:  https://openfoam.org
    \\  /    A nd           | Version:  8
     \\/     M anipulation  |
\*---------------------------------------------------------------------------*/
FoamFile
{
    version     2.0;
    format      ascii;
    class       surfaceScalarField;
    location    "0.395";
    object      phi;
}
// * * * * * * * * * * * * * * * * * * * * * * * * * * * * * * * * * * * * * //

dimensions      [0 3 -1 0 0 0 0];

internalField   nonuniform List<scalar> 
760
(
1.42319e-08
-1.42677e-08
-2.22112e-08
3.64431e-08
-1.14272e-07
9.20605e-08
-2.45498e-07
1.31226e-07
-3.96104e-07
1.50607e-07
-5.47374e-07
1.5127e-07
-6.832e-07
1.35826e-07
-7.90673e-07
1.07473e-07
-8.60217e-07
6.95444e-08
-8.85651e-07
2.54333e-08
-8.64329e-07
-2.13224e-08
-7.97397e-07
-6.69323e-08
-6.90092e-07
-1.07305e-07
-5.51978e-07
-1.38113e-07
-3.96947e-07
-1.55031e-07
-2.42752e-07
-1.54196e-07
-1.09734e-07
-1.33018e-07
-1.84166e-08
-9.13183e-08
1.56895e-08
-3.41064e-08
1.56896e-08
-3.42164e-08
1.99486e-08
-1.80379e-07
1.82606e-07
-4.34e-07
3.45682e-07
-7.64454e-07
4.6168e-07
-1.13224e-06
5.18395e-07
-1.49728e-06
5.16312e-07
-1.82339e-06
4.61928e-07
-2.08059e-06
3.64677e-07
-2.24633e-06
2.35287e-07
-2.3061e-06
8.51986e-08
-2.25395e-06
-7.34644e-08
-2.0931e-06
-2.27789e-07
-1.8363e-06
-3.641e-07
-1.50608e-06
-4.68342e-07
-1.13411e-06
-5.27e-07
-7.59537e-07
-5.28765e-07
-4.25409e-07
-4.67146e-07
-1.72695e-07
-3.44032e-07
-3.08027e-08
-1.75999e-07
-1.51132e-08
-9.22307e-08
1.12179e-07
-3.57006e-07
4.47381e-07
-7.64578e-07
7.53253e-07
-1.26852e-06
9.6562e-07
-1.81474e-06
1.06462e-06
-2.3491e-06
1.05067e-06
-2.8225e-06
9.35326e-07
-3.19401e-06
7.36193e-07
-3.43268e-06
4.73958e-07
-3.51859e-06
1.71102e-07
-3.44365e-06
-1.48407e-07
-3.21232e-06
-4.59112e-07
-2.84216e-06
-7.34261e-07
-2.36385e-06
-9.46656e-07
-1.82035e-06
-1.0705e-06
-1.26451e-06
-1.0846e-06
-7.54536e-07
-9.7712e-07
-3.46977e-07
-7.5159e-07
-8.73374e-08
-4.35638e-07
-1.02451e-07
-1.45214e-07
2.57393e-07
-5.25472e-07
8.27639e-07
-1.08165e-06
1.30943e-06
-1.74754e-06
1.63151e-06
-2.45437e-06
1.77145e-06
-3.13643e-06
1.73273e-06
-3.73535e-06
1.53425e-06
-4.20298e-06
1.20382e-06
-4.50299e-06
7.73974e-07
-4.612e-06
2.80112e-07
-4.52033e-06
-2.40079e-07
-4.2328e-06
-7.46641e-07
-3.76942e-06
-1.19764e-06
-3.16568e-06
-1.5504e-06
-2.47191e-06
-1.76427e-06
-1.75109e-06
-1.80542e-06
-1.07452e-06
-1.65369e-06
-5.15146e-07
-1.31097e-06
-1.39317e-07
-8.11466e-07
-2.41768e-07
-1.93613e-07
4.51005e-07
-6.85011e-07
1.31904e-06
-1.38564e-06
2.01006e-06
-2.20727e-06
2.45314e-06
-3.06551e-06
2.62969e-06
-3.88382e-06
2.55105e-06
-4.59656e-06
2.24698e-06
-5.15064e-06
1.7579e-06
-5.50651e-06
1.12984e-06
-5.63859e-06
4.12188e-07
-5.53581e-06
-3.42851e-07
-5.20243e-06
-1.08003e-06
-4.65893e-06
-1.74114e-06
-3.94299e-06
-2.26633e-06
-3.10973e-06
-2.59753e-06
-2.23052e-06
-2.68464e-06
-1.38965e-06
-2.49456e-06
-6.78505e-07
-2.02211e-06
-1.87769e-07
-1.3022e-06
-4.29537e-07
-2.39943e-07
6.90949e-07
-8.40358e-07
1.91945e-06
-1.68331e-06
2.85301e-06
-2.65708e-06
3.42692e-06
-3.66087e-06
3.63347e-06
-4.60781e-06
3.49799e-06
-5.4264e-06
3.06558e-06
-6.06063e-06
2.39212e-06
-6.46942e-06
1.53863e-06
-6.62611e-06
5.68884e-07
-6.51838e-06
-4.50585e-07
-6.14885e-06
-1.44955e-06
-5.53659e-06
-2.3534e-06
-4.71896e-06
-3.08396e-06
-3.75349e-06
-3.56301e-06
-2.7185e-06
-3.71963e-06
-1.71155e-06
-3.5015e-06
-8.44669e-07
-2.889e-06
-2.36181e-07
-1.91069e-06
-6.65718e-07
-2.86748e-07
9.77696e-07
-9.97095e-07
2.6298e-06
-1.9821e-06
3.83801e-06
-3.10497e-06
4.54979e-06
-4.24799e-06
4.77649e-06
-5.31486e-06
4.56486e-06
-6.23017e-06
3.98088e-06
-6.93723e-06
3.09919e-06
-7.39555e-06
1.99695e-06
-7.57869e-06
7.5202e-07
-7.47322e-06
-5.56048e-07
-7.07917e-06
-1.8436e-06
-6.41193e-06
-3.02064e-06
-5.50563e-06
-3.99026e-06
-4.41709e-06
-4.65154e-06
-3.2294e-06
-4.90733e-06
-2.05297e-06
-4.67793e-06
-1.02255e-06
-3.91942e-06
-2.88284e-07
-2.64495e-06
-9.54002e-07
-3.36334e-07
1.31403e-06
-1.16038e-06
3.45384e-06
-2.28803e-06
4.96567e-06
-3.55502e-06
5.81678e-06
-4.82665e-06
6.04813e-06
-5.99911e-06
5.73731e-06
-6.99608e-06
4.97785e-06
-7.76357e-06
3.86668e-06
-8.26454e-06
2.49792e-06
-8.47467e-06
9.6215e-07
-8.38001e-06
-6.507e-07
-7.97695e-06
-2.24667e-06
-7.27462e-06
-3.72296e-06
-6.29999e-06
-4.96489e-06
-5.10471e-06
-5.84682e-06
-3.77255e-06
-6.23948e-06
-2.4249e-06
-6.02558e-06
-1.22075e-06
-5.12357e-06
-3.4771e-07
-3.51799e-06
-1.30171e-06
-3.9096e-07
1.70499e-06
-1.33489e-06
4.39778e-06
-2.60499e-06
6.23576e-06
-4.00596e-06
7.21775e-06
-5.38684e-06
7.429e-06
-6.63978e-06
6.99025e-06
-7.69247e-06
6.03054e-06
-8.4985e-06
4.67271e-06
-9.02845e-06
3.02787e-06
-9.26296e-06
1.19666e-06
-9.18869e-06
-7.24974e-07
-8.79752e-06
-2.63784e-06
-8.0894e-06
-4.43108e-06
-7.07905e-06
-5.97524e-06
-5.80635e-06
-7.11953e-06
-4.34906e-06
-7.69676e-06
-2.83482e-06
-7.53982e-06
-1.4471e-06
-6.51129e-06
-4.18101e-07
-4.54699e-06
-1.71981e-06
-4.53455e-07
2.15844e-06
-1.52569e-06
5.47001e-06
-2.93489e-06
7.64497e-06
-4.45013e-06
8.73299e-06
-5.90634e-06
8.88522e-06
-7.19784e-06
8.28175e-06
-8.26369e-06
7.09639e-06
-9.0721e-06
5.48113e-06
-9.60691e-06
3.56267e-06
-9.85763e-06
1.44738e-06
-9.81346e-06
-7.69145e-07
-9.46142e-06
-2.98989e-06
-8.78914e-06
-5.10335e-06
-7.79303e-06
-6.97135e-06
-6.49223e-06
-8.42032e-06
-4.94799e-06
-9.24101e-06
-3.28512e-06
-9.20269e-06
-1.70868e-06
-8.08773e-06
-5.03589e-07
-5.75209e-06
-2.2234e-06
-5.28335e-07
2.68678e-06
-1.73966e-06
6.68133e-06
-3.27797e-06
9.18328e-06
-4.87162e-06
1.03266e-05
-6.347e-06
1.03606e-05
-7.61081e-06
9.54556e-06
-8.62435e-06
8.10993e-06
-9.37968e-06
6.23646e-06
-9.88098e-06
4.06398e-06
-1.01315e-05
1.69793e-06
-1.01258e-05
-7.74893e-07
-9.84633e-06
-3.26933e-06
-9.26599e-06
-5.6837e-06
-8.35633e-06
-7.881e-06
-7.10469e-06
-9.67196e-06
-5.5407e-06
-1.0805e-05
-3.7707e-06
-1.09727e-05
-2.01217e-06
-9.84627e-06
-6.09688e-07
-7.15457e-06
-2.83309e-06
-6.23663e-07
3.31044e-06
-1.98737e-06
8.04504e-06
-3.63189e-06
1.08278e-05
-5.24191e-06
1.19367e-05
-6.64754e-06
1.17662e-05
-7.78445e-06
1.06825e-05
-8.65098e-06
8.97646e-06
-9.27427e-06
6.85975e-06
-9.6865e-06
4.47621e-06
-9.90979e-06
1.92121e-06
-9.94721e-06
-7.37472e-07
-9.77856e-06
-3.43798e-06
-9.36087e-06
-6.10139e-06
-8.6356e-06
-8.60627e-06
-7.54637e-06
-1.07612e-05
-6.07157e-06
-1.22798e-05
-4.27426e-06
-1.277e-05
-2.36364e-06
-1.17569e-05
-7.44775e-07
-8.77343e-06
-3.57786e-06
-7.54071e-07
4.06451e-06
-2.28433e-06
9.5753e-06
-3.98699e-06
1.25305e-05
-5.50906e-06
1.34587e-05
-6.70957e-06
1.29667e-05
-7.57852e-06
1.15514e-05
-8.17001e-06
9.56795e-06
-8.55758e-06
7.24732e-06
-8.80768e-06
4.72631e-06
-8.96501e-06
2.07853e-06
-9.04433e-06
-6.58151e-07
-9.02572e-06
-3.45659e-06
-8.85257e-06
-6.27454e-06
-8.4348e-06
-9.02404e-06
-7.66289e-06
-1.15331e-05
-6.44199e-06
-1.35007e-05
-4.75625e-06
-1.44557e-05
-2.76674e-06
-1.37464e-05
-9.22433e-07
-1.06177e-05
-4.5003e-06
-9.452e-07
5.00971e-06
-2.64847e-06
1.12786e-05
-4.31096e-06
1.41929e-05
-5.57325e-06
1.4721e-05
-6.37062e-06
1.37641e-05
-6.7832e-06
1.1964e-05
-6.94041e-06
9.72516e-06
-6.96963e-06
7.27654e-06
-6.97267e-06
4.72935e-06
-7.01639e-06
2.12225e-06
-7.12849e-06
-5.46046e-07
-7.29365e-06
-3.29143e-06
-7.44854e-06
-6.11965e-06
-7.47781e-06
-8.99477e-06
-7.21788e-06
-1.1793e-05
-6.48271e-06
-1.42359e-05
-5.13341e-06
-1.5805e-05
-3.21497e-06
-1.56648e-05
-1.16438e-06
-1.26683e-05
-5.66468e-06
-1.23731e-06
6.24702e-06
-3.08327e-06
1.31245e-05
-4.50767e-06
1.56173e-05
-5.23442e-06
1.54478e-05
-5.35514e-06
1.38848e-05
-5.08173e-06
1.16906e-05
-4.63078e-06
9.27421e-06
-4.17913e-06
6.82489e-06
-3.85421e-06
4.40444e-06
-3.73687e-06
2.00491e-06
-3.86498e-06
-4.17937e-07
-4.23251e-06
-2.9239e-06
-4.78196e-06
-5.57019e-06
-5.39097e-06
-8.38577e-06
-5.85842e-06
-1.13256e-05
-5.90652e-06
-1.41878e-05
-5.23279e-06
-1.64788e-05
-3.66625e-06
-1.72314e-05
-1.50007e-06
-1.48345e-05
-7.16475e-06
-1.6738e-06
7.92082e-06
-3.51335e-06
1.49641e-05
-4.31527e-06
1.64193e-05
-4.08882e-06
1.52213e-05
-3.19297e-06
1.2989e-05
-1.99864e-06
1.04963e-05
-7.95026e-07
8.07059e-06
2.19468e-07
5.8104e-06
9.18373e-07
3.70554e-06
1.22575e-06
1.69754e-06
1.1022e-06
-2.94392e-07
5.41191e-07
-2.36289e-06
-4.22814e-07
-4.60618e-06
-1.69247e-06
-7.11611e-06
-3.07233e-06
-9.94572e-06
-4.23077e-06
-1.30293e-05
-4.69561e-06
-1.60139e-05
-3.96716e-06
-1.79598e-05
-1.94492e-06
-1.68568e-05
-9.10967e-06
-2.23068e-06
1.01515e-05
-3.59028e-06
1.63237e-05
-3.07775e-06
1.59067e-05
-1.34383e-06
1.34874e-05
8.971e-07
1.07481e-05
3.15505e-06
8.2383e-06
5.13822e-06
6.08743e-06
6.68881e-06
4.25981e-06
7.72595e-06
2.66839e-06
8.20668e-06
1.21682e-06
8.10401e-06
-1.91725e-07
7.39915e-06
-1.65803e-06
6.08696e-06
-3.294e-06
4.19927e-06
-5.22842e-06
1.85422e-06
-7.60067e-06
-6.61668e-07
-1.05134e-05
-2.79215e-06
-1.38834e-05
-3.66208e-06
-1.70899e-05
-2.41154e-06
-1.81073e-05
-1.15212e-05
-2.57381e-06
1.27253e-05
-2.18345e-06
1.59333e-05
7.18087e-07
1.30052e-05
4.4696e-06
9.73589e-06
8.13333e-06
7.08432e-06
1.13016e-05
5.07e-06
1.38292e-05
3.55989e-06
1.56882e-05
2.40079e-06
1.68918e-05
1.4648e-06
1.7455e-05
6.53605e-07
1.73764e-05
-1.13204e-07
1.66306e-05
-9.1216e-07
1.51673e-05
-1.83067e-06
1.29236e-05
-2.98474e-06
9.8618e-06
-4.53889e-06
6.062e-06
-6.71364e-06
1.91236e-06
-9.73381e-06
-1.55961e-06
-1.36179e-05
-2.45833e-06
-1.72086e-05
-1.39795e-05
-7.85014e-07
1.35103e-05
4.08079e-06
1.10675e-05
1.02976e-05
6.78843e-06
1.57936e-05
4.2398e-06
2.01581e-05
2.71991e-06
2.34581e-05
1.76995e-06
2.58609e-05
1.15714e-06
2.75216e-05
7.40056e-07
2.85541e-05
4.32295e-07
2.90265e-05
1.81222e-07
2.89623e-05
-4.89823e-08
2.83388e-05
-2.88701e-07
2.70819e-05
-5.73743e-07
2.50551e-05
-9.57959e-07
2.20517e-05
-1.53553e-06
1.78155e-05
-2.47742e-06
1.21724e-05
-4.09068e-06
5.47773e-06
-6.92324e-06
-1.29168e-07
-1.16017e-05
-1.41087e-05
1.35103e-05
2.45778e-05
3.13663e-05
3.56061e-05
3.8326e-05
4.00959e-05
4.12531e-05
4.19931e-05
4.24254e-05
4.26066e-05
4.25577e-05
4.2269e-05
4.16952e-05
4.07373e-05
3.92017e-05
3.67243e-05
3.26336e-05
2.57104e-05
1.41087e-05
)
;

boundaryField
{
    movingWall
    {
        type            calculated;
        value           uniform 0;
    }
    fixedWalls
    {
        type            calculated;
        value           uniform 0;
    }
    frontAndBack
    {
        type            empty;
        value           nonuniform List<scalar> 0();
    }
}


// ************************************************************************* //
