/*--------------------------------*- C++ -*----------------------------------*\
  =========                 |
  \\      /  F ield         | OpenFOAM: The Open Source CFD Toolbox
   \\    /   O peration     | Website:  https://openfoam.org
    \\  /    A nd           | Version:  8
     \\/     M anipulation  |
\*---------------------------------------------------------------------------*/
FoamFile
{
    version     2.0;
    format      ascii;
    class       volScalarField;
    location    "0.01";
    object      p;
}
// * * * * * * * * * * * * * * * * * * * * * * * * * * * * * * * * * * * * * //

dimensions      [0 2 -2 0 0 0 0];

internalField   nonuniform List<scalar> 
400
(
7.33495e-08
-0.0120789
-0.0161512
-0.0128111
-0.00287714
0.0127984
0.0334532
0.0582193
0.0860021
0.115555
0.145654
0.175045
0.20242
0.226839
0.247723
0.264105
0.274624
0.278238
0.274433
0.262655
0.012821
0.000139344
-0.00477283
-0.00254511
0.00598921
0.0200599
0.039031
0.062159
0.0883675
0.116319
0.144752
0.172409
0.198063
0.220947
0.240448
0.255414
0.264575
0.267182
0.262637
0.250172
0.0190643
0.00548831
-0.000274876
0.00106154
0.00867939
0.021928
0.0402311
0.0629027
0.0888758
0.116597
0.144638
0.171853
0.197108
0.219578
0.238564
0.252868
0.261357
0.263357
0.258025
0.244734
0.0190306
0.00422166
-0.002442
-0.00174484
0.0055373
0.018867
0.0376538
0.0610647
0.0879601
0.116685
0.145583
0.17346
0.199351
0.222494
0.241991
0.256425
0.264727
0.266383
0.260458
0.246042
0.0124518
-0.00388141
-0.0113646
-0.0108145
-0.00305516
0.0113721
0.0318098
0.0571458
0.0859636
0.116561
0.147323
0.177002
0.204605
0.229361
0.250254
0.265703
0.274539
0.276153
0.269596
0.253686
-0.00136313
-0.0194899
-0.0275659
-0.0264438
-0.0171831
-0.000562659
0.0225997
0.0509229
0.0826577
0.11599
0.149486
0.182017
0.212527
0.240035
0.263294
0.280625
0.290742
0.292758
0.285545
0.267856
-0.0234942
-0.0436481
-0.0519776
-0.0494294
-0.0374945
-0.0174729
0.0094926
0.041803
0.0774888
0.114647
0.152017
0.188589
0.223245
0.254754
0.281536
0.301748
0.314001
0.317073
0.309416
0.289713
-0.0552857
-0.0776316
-0.0857315
-0.0807766
-0.0648596
-0.0400518
-0.0080457
0.0293558
0.0701424
0.112444
0.15512
0.197176
0.237305
0.274056
0.305588
0.329853
0.345301
0.350327
0.342713
0.320813
-0.0985082
-0.123068
-0.130159
-0.121553
-0.100189
-0.0690387
-0.0305157
0.0133124
0.0605142
0.109433
0.15895
0.207995
0.255001
0.298279
0.335877
0.365623
0.38569
0.3939
0.387113
0.362931
-0.155571
-0.182154
-0.187007
-0.173045
-0.144525
-0.105357
-0.0586223
-0.00669648
0.0485046
0.105642
0.163544
0.220961
0.276228
0.327541
0.372909
0.410095
0.436836
0.449963
0.445047
0.418629
-0.229907
-0.258064
-0.258909
-0.237203
-0.199256
-0.150048
-0.0931179
-0.0310901
0.0340093
0.10099
0.16876
0.2359
0.300872
0.36206
0.417494
0.464774
0.501
0.521553
0.520147
0.491891
-0.326741
-0.35544
-0.34961
-0.316731
-0.266053
-0.204002
-0.13445
-0.0602153
0.016757
0.095159
0.17412
0.252455
0.328968
0.402346
0.47066
0.531263
0.580554
0.612233
0.61735
0.588587
-0.454307
-0.480859
-0.463722
-0.414566
-0.346545
-0.267965
-0.182887
-0.0942743
-0.00372488
0.0876821
0.179305
0.270564
0.360865
0.449163
0.533544
0.611262
0.678286
0.726595
0.743474
0.717281
-0.625503
-0.643517
-0.60669
-0.533524
-0.441992
-0.34227
-0.23845
-0.132993
-0.0272568
0.0785022
0.184373
0.290528
0.396978
0.502955
0.606825
0.706302
0.797508
0.870661
0.907969
0.890746
-0.860604
-0.85641
-0.785095
-0.676066
-0.55268
-0.426096
-0.300026
-0.17553
-0.0529469
0.0684217
0.189786
0.312343
0.436768
0.562865
0.689949
0.817014
0.941138
1.05119
1.12364
1.12883
-1.19273
-1.13772
-1.00604
-0.843313
-0.67696
-0.517095
-0.364807
-0.219394
-0.079126
0.0583614
0.195633
0.335039
0.478239
0.626346
0.78056
0.942063
1.11027
1.27487
1.40812
1.46407
-1.67899
-1.51207
-1.27486
-1.03255
-0.809072
-0.60893
-0.427608
-0.260546
-0.103032
0.0495153
0.201354
0.356238
0.517407
0.6882
0.872667
1.07556
1.30163
1.54658
1.78556
1.95311
-2.41394
-2.00201
-1.58211
-1.22661
-0.932652
-0.688227
-0.478361
-0.292077
-0.120582
0.0433264
0.205753
0.372077
0.547573
0.738383
0.952428
1.2005
1.49785
1.85618
2.27781
2.69039
-3.65446
-2.62048
-1.87598
-1.37829
-1.01301
-0.731748
-0.502253
-0.305043
-0.127045
0.0412531
0.207375
0.377958
0.559941
0.761957
0.996225
1.28177
1.65081
2.15145
2.89772
3.93221
-5.64037
-3.27206
-2.03918
-1.41484
-1.00956
-0.717595
-0.487665
-0.293535
-0.119788
0.0438647
0.205152
0.370877
0.548381
0.74724
0.982103
1.27859
1.68775
2.31521
3.54979
5.91854
)
;

boundaryField
{
    movingWall
    {
        type            zeroGradient;
    }
    fixedWalls
    {
        type            zeroGradient;
    }
    frontAndBack
    {
        type            empty;
    }
}


// ************************************************************************* //
