/*--------------------------------*- C++ -*----------------------------------*\
  =========                 |
  \\      /  F ield         | OpenFOAM: The Open Source CFD Toolbox
   \\    /   O peration     | Website:  https://openfoam.org
    \\  /    A nd           | Version:  8
     \\/     M anipulation  |
\*---------------------------------------------------------------------------*/
FoamFile
{
    version     2.0;
    format      ascii;
    class       surfaceScalarField;
    location    "0.01";
    object      phi;
}
// * * * * * * * * * * * * * * * * * * * * * * * * * * * * * * * * * * * * * //

dimensions      [0 3 -1 0 0 0 0];

internalField   nonuniform List<scalar> 
760
(
-7.70895e-08
7.70889e-08
-2.40488e-07
1.63398e-07
-4.06544e-07
1.66057e-07
-5.59872e-07
1.53328e-07
-6.96287e-07
1.36415e-07
-8.12559e-07
1.16272e-07
-9.05862e-07
9.33027e-08
-9.73874e-07
6.80118e-08
-1.01537e-06
4.14964e-08
-1.0295e-06
1.41259e-08
-1.0154e-06
-1.41011e-08
-9.73487e-07
-4.19093e-08
-9.05614e-07
-6.78726e-08
-8.13169e-07
-9.24458e-08
-6.97177e-07
-1.15992e-07
-5.60317e-07
-1.36859e-07
-4.06768e-07
-1.5355e-07
-2.41201e-07
-1.65566e-07
-7.76814e-08
-1.63517e-07
-7.768e-08
-1.66026e-07
2.43116e-07
-4.48582e-07
4.45955e-07
-7.31568e-07
4.49043e-07
-9.92973e-07
4.14733e-07
-1.22567e-06
3.69115e-07
-1.42372e-06
3.14313e-07
-1.58252e-06
2.52102e-07
-1.69841e-06
1.83901e-07
-1.76877e-06
1.1186e-07
-1.79239e-06
3.77453e-08
-1.76905e-06
-3.74416e-08
-1.69875e-06
-1.12204e-07
-1.58251e-06
-1.84114e-07
-1.42343e-06
-2.5153e-07
-1.22577e-06
-3.13646e-07
-9.93595e-07
-3.69039e-07
-7.31963e-07
-4.15183e-07
-4.48824e-07
-4.48705e-07
-1.66363e-07
-4.45981e-07
-2.44041e-07
-1.83671e-07
4.26787e-07
-4.91842e-07
7.54126e-07
-7.98738e-07
7.55939e-07
-1.08183e-06
6.97824e-07
-1.33338e-06
6.20667e-07
-1.54697e-06
5.27899e-07
-1.71778e-06
4.22912e-07
-1.84232e-06
3.08441e-07
-1.91802e-06
1.87565e-07
-1.94324e-06
6.29572e-08
-1.91767e-06
-6.30097e-08
-1.84218e-06
-1.87692e-07
-1.71803e-06
-3.0826e-07
-1.54712e-06
-4.22442e-07
-1.33315e-06
-5.27617e-07
-1.08152e-06
-6.2067e-07
-7.99108e-07
-6.97593e-07
-4.92442e-07
-7.55371e-07
-1.84554e-07
-7.53869e-07
-4.28596e-07
-1.96508e-07
6.23296e-07
-5.26082e-07
1.0837e-06
-8.53481e-07
1.08334e-06
-1.1545e-06
9.9884e-07
-1.42107e-06
8.87239e-07
-1.64664e-06
7.53469e-07
-1.82637e-06
6.02643e-07
-1.95699e-06
4.39057e-07
-2.03619e-06
2.6677e-07
-2.06266e-06
8.94238e-08
-2.03619e-06
-8.94831e-08
-1.95696e-06
-2.66923e-07
-1.82613e-06
-4.39084e-07
-1.64629e-06
-6.02284e-07
-1.42089e-06
-7.53015e-07
-1.15446e-06
-8.87101e-07
-8.53449e-07
-9.98604e-07
-5.25555e-07
-1.08326e-06
-1.9635e-07
-1.08307e-06
-6.24946e-07
-2.15466e-07
8.38761e-07
-5.75794e-07
1.44403e-06
-9.32566e-07
1.44011e-06
-1.25905e-06
1.32532e-06
-1.5467e-06
1.17489e-06
-1.78891e-06
9.95686e-07
-1.98098e-06
7.94709e-07
-2.11999e-06
5.78064e-07
-2.20401e-06
3.50798e-07
-2.23194e-06
1.17351e-07
-2.20375e-06
-1.17675e-07
-2.11988e-06
-3.50793e-07
-1.98101e-06
-5.77954e-07
-1.78885e-06
-7.94446e-07
-1.54639e-06
-9.95472e-07
-1.25857e-06
-1.17492e-06
-9.31909e-07
-1.32527e-06
-5.75049e-07
-1.44012e-06
-2.14364e-07
-1.44376e-06
-8.39309e-07
-2.41032e-07
1.07979e-06
-6.42567e-07
1.84556e-06
-1.03838e-06
1.83592e-06
-1.39824e-06
1.68518e-06
-1.71299e-06
1.48964e-06
-1.97617e-06
1.25887e-06
-2.18347e-06
1.00201e-06
-2.33263e-06
7.27224e-07
-2.42245e-06
4.40619e-07
-2.45242e-06
1.47317e-07
-2.42234e-06
-1.4776e-07
-2.33254e-06
-4.40593e-07
-2.18342e-06
-7.27068e-07
-1.97615e-06
-1.00171e-06
-1.71296e-06
-1.25866e-06
-1.39811e-06
-1.48977e-06
-1.03781e-06
-1.68557e-06
-6.4189e-07
-1.83604e-06
-2.39848e-07
-1.8458e-06
-1.07916e-06
-2.74237e-07
1.35403e-06
-7.28966e-07
2.30029e-06
-1.17441e-06
2.28137e-06
-1.57584e-06
2.08661e-06
-1.92335e-06
1.83715e-06
-2.21106e-06
1.54658e-06
-2.43567e-06
1.22661e-06
-2.59607e-06
8.87626e-07
-2.69202e-06
5.3657e-07
-2.72404e-06
1.79336e-07
-2.69201e-06
-1.79786e-07
-2.59595e-06
-5.36656e-07
-2.43556e-06
-8.87451e-07
-2.21093e-06
-1.22635e-06
-1.9232e-06
-1.54639e-06
-1.57561e-06
-1.83737e-06
-1.17402e-06
-2.08716e-06
-7.28572e-07
-2.28149e-06
-2.73748e-07
-2.30063e-06
-1.35291e-06
-3.1673e-07
1.67076e-06
-8.38494e-07
2.82206e-06
-1.34496e-06
2.78783e-06
-1.79597e-06
2.53762e-06
-2.18102e-06
2.22221e-06
-2.49543e-06
1.86099e-06
-2.73791e-06
1.46909e-06
-2.9094e-06
1.05912e-06
-3.01122e-06
6.38381e-07
-3.04509e-06
2.13209e-07
-3.01132e-06
-2.13554e-07
-2.90924e-06
-6.38732e-07
-2.73768e-06
-1.05902e-06
-2.49503e-06
-1.469e-06
-2.18054e-06
-1.86087e-06
-1.79548e-06
-2.22243e-06
-1.34476e-06
-2.53788e-06
-8.38234e-07
-2.78801e-06
-3.16567e-07
-2.82229e-06
-1.66947e-06
-3.70638e-07
2.0414e-06
-9.7551e-07
3.42693e-06
-1.55498e-06
3.3673e-06
-2.06259e-06
3.04524e-06
-2.48812e-06
2.64774e-06
-2.82925e-06
2.20211e-06
-3.08816e-06
1.72801e-06
-3.26881e-06
1.23976e-06
-3.37518e-06
7.44753e-07
-3.41022e-06
2.48247e-07
-3.37523e-06
-2.48546e-07
-3.26874e-06
-7.45217e-07
-3.08808e-06
-1.23968e-06
-2.8291e-06
-1.72798e-06
-2.48786e-06
-2.20211e-06
-2.06228e-06
-2.64801e-06
-1.55494e-06
-3.04522e-06
-9.75312e-07
-3.36764e-06
-3.70322e-07
-3.42729e-06
-2.0398e-06
-4.3879e-07
2.48019e-06
-1.14532e-06
4.13346e-06
-1.80992e-06
4.0319e-06
-2.37898e-06
3.6143e-06
-2.84447e-06
3.11323e-06
-3.20852e-06
2.56616e-06
-3.47898e-06
1.99846e-06
-3.66404e-06
1.42483e-06
-3.77193e-06
8.52641e-07
-3.80709e-06
2.83405e-07
-3.77174e-06
-2.83897e-07
-3.66389e-06
-8.53069e-07
-3.47873e-06
-1.42483e-06
-3.20861e-06
-1.9981e-06
-2.84462e-06
-2.5661e-06
-2.37925e-06
-3.11337e-06
-1.81028e-06
-3.61419e-06
-1.14565e-06
-4.03227e-06
-4.38966e-07
-4.13397e-06
-2.47876e-06
-5.25435e-07
3.00562e-06
-1.35444e-06
4.96246e-06
-2.11465e-06
4.79212e-06
-2.74521e-06
4.24486e-06
-3.24376e-06
3.61179e-06
-3.62056e-06
2.94295e-06
-3.89204e-06
2.26994e-06
-4.07294e-06
1.60573e-06
-4.1764e-06
9.56104e-07
-4.21002e-06
3.17021e-07
-4.17646e-06
-3.17458e-07
-4.07303e-06
-9.56495e-07
-3.89187e-06
-1.60599e-06
-3.62065e-06
-2.26932e-06
-3.24382e-06
-2.94293e-06
-2.74566e-06
-3.61153e-06
-2.11538e-06
-4.24448e-06
-1.35557e-06
-4.79208e-06
-5.26856e-07
-4.96268e-06
-3.00562e-06
-6.36667e-07
3.64229e-06
-1.60998e-06
5.93577e-06
-2.47033e-06
5.65247e-06
-3.1524e-06
4.92693e-06
-3.6661e-06
4.12549e-06
-4.0361e-06
3.31295e-06
-4.29044e-06
2.52428e-06
-4.45418e-06
1.76947e-06
-4.54497e-06
1.04689e-06
-4.57414e-06
3.46191e-07
-4.54493e-06
-3.46674e-07
-4.45422e-06
-1.0472e-06
-4.29084e-06
-1.76937e-06
-4.03633e-06
-2.52384e-06
-3.66622e-06
-3.31304e-06
-3.15275e-06
-4.125e-06
-2.47098e-06
-4.92625e-06
-1.61135e-06
-5.65171e-06
-6.38654e-07
-5.93538e-06
-3.64427e-06
-7.80044e-07
4.42234e-06
-1.91669e-06
7.07241e-06
-2.86779e-06
6.60358e-06
-3.57346e-06
5.63259e-06
-4.06726e-06
4.6193e-06
-4.3977e-06
3.64339e-06
-4.60741e-06
2.73399e-06
-4.73311e-06
1.89517e-06
-4.79886e-06
1.11265e-06
-4.81965e-06
3.66977e-07
-4.79931e-06
-3.67014e-07
-4.73335e-06
-1.11316e-06
-4.60758e-06
-1.89513e-06
-4.39742e-06
-2.734e-06
-4.06765e-06
-3.64281e-06
-3.57376e-06
-4.61889e-06
-2.86821e-06
-5.6318e-06
-1.91755e-06
-6.60237e-06
-7.81217e-07
-7.07172e-06
-4.42549e-06
-9.64643e-07
5.38698e-06
-2.27078e-06
8.37854e-06
-3.27447e-06
7.60726e-06
-3.94473e-06
6.30285e-06
-4.35783e-06
5.0324e-06
-4.59476e-06
3.88033e-06
-4.72069e-06
2.85991e-06
-4.78175e-06
1.95624e-06
-4.80739e-06
1.13829e-06
-4.81383e-06
3.73417e-07
-4.80682e-06
-3.74026e-07
-4.78129e-06
-1.1387e-06
-4.72058e-06
-1.95585e-06
-4.59478e-06
-2.8598e-06
-4.35776e-06
-3.87983e-06
-3.94455e-06
-5.0321e-06
-3.27456e-06
-6.30179e-06
-2.271e-06
-7.60593e-06
-9.6494e-07
-8.37777e-06
-5.39043e-06
-1.20167e-06
6.58865e-06
-2.64565e-06
9.82252e-06
-3.60477e-06
8.56638e-06
-4.12664e-06
6.82473e-06
-4.36192e-06
5.26768e-06
-4.4319e-06
3.9503e-06
-4.42195e-06
2.84996e-06
-4.38421e-06
1.9185e-06
-4.35151e-06
1.10558e-06
-4.33893e-06
3.60836e-07
-4.35139e-06
-3.61564e-07
-4.38412e-06
-1.10597e-06
-4.42108e-06
-1.91889e-06
-4.43119e-06
-2.84968e-06
-4.36123e-06
-3.94979e-06
-4.12647e-06
-5.26686e-06
-3.60406e-06
-6.8242e-06
-2.64535e-06
-8.56464e-06
-1.2021e-06
-9.82103e-06
-6.59253e-06
-1.49786e-06
8.08651e-06
-2.95155e-06
1.12762e-05
-3.65653e-06
9.27136e-06
-3.84081e-06
7.00901e-06
-3.75478e-06
5.18165e-06
-3.5622e-06
3.75772e-06
-3.35722e-06
2.64498e-06
-3.1885e-06
1.74978e-06
-3.07997e-06
9.97049e-07
-3.04259e-06
3.23457e-07
-3.07962e-06
-3.24534e-07
-3.18789e-06
-9.97702e-07
-3.35655e-06
-1.75023e-06
-3.56146e-06
-2.64478e-06
-3.75351e-06
-3.75773e-06
-3.83962e-06
-5.18075e-06
-3.65603e-06
-7.00778e-06
-2.95121e-06
-9.26946e-06
-1.49744e-06
-1.12748e-05
-8.08997e-06
-1.82073e-06
9.90724e-06
-2.93744e-06
1.23929e-05
-2.98683e-06
9.32075e-06
-2.53916e-06
6.56134e-06
-1.95209e-06
4.59458e-06
-1.39835e-06
3.20397e-06
-9.46198e-07
2.19283e-06
-6.20606e-07
1.42419e-06
-4.25793e-07
8.02235e-07
-3.60999e-07
2.58663e-07
-4.25476e-07
-2.60057e-07
-6.19827e-07
-8.0335e-07
-9.45007e-07
-1.42505e-06
-1.39655e-06
-2.19323e-06
-1.95093e-06
-3.20335e-06
-2.53781e-06
-4.59387e-06
-2.98546e-06
-6.56013e-06
-2.93598e-06
-9.31894e-06
-1.81968e-06
-1.23911e-05
-9.90965e-06
-1.95485e-06
1.18621e-05
-1.92021e-06
1.23583e-05
-6.35654e-07
8.03619e-06
8.10612e-07
5.11508e-06
2.0631e-06
3.34209e-06
3.0415e-06
2.22558e-06
3.75544e-06
1.47889e-06
4.23662e-06
9.43007e-07
4.51356e-06
5.25293e-07
4.60407e-06
1.68152e-07
4.51427e-06
-1.70253e-07
4.23815e-06
-5.27231e-07
3.75741e-06
-9.44301e-07
3.04347e-06
-1.4793e-06
2.06525e-06
-2.22513e-06
8.12625e-07
-3.34125e-06
-6.34133e-07
-5.11338e-06
-1.9188e-06
-8.03428e-06
-1.95324e-06
-1.23567e-05
-1.18629e-05
-7.83873e-07
1.2646e-05
2.53529e-06
9.03912e-06
6.0339e-06
4.53757e-06
8.66318e-06
2.4858e-06
1.05298e-05
1.47551e-06
1.18288e-05
9.26506e-07
1.27125e-05
5.95212e-07
1.32833e-05
3.72229e-07
1.36037e-05
2.04868e-07
1.37072e-05
6.46992e-08
1.36042e-05
-6.72631e-08
1.32841e-05
-2.07178e-07
1.27134e-05
-3.73605e-07
1.18297e-05
-5.95599e-07
1.05309e-05
-9.26295e-07
8.66391e-06
-1.47427e-06
6.03502e-06
-2.48449e-06
2.53644e-06
-4.5357e-06
-7.82936e-07
-9.03727e-06
-1.26458e-05
1.2646e-05
2.16851e-05
2.62227e-05
2.87085e-05
3.0184e-05
3.11105e-05
3.17057e-05
3.20779e-05
3.22828e-05
3.23475e-05
3.22802e-05
3.2073e-05
3.16994e-05
3.11038e-05
3.01776e-05
2.87033e-05
2.62188e-05
2.16831e-05
1.26458e-05
)
;

boundaryField
{
    movingWall
    {
        type            calculated;
        value           uniform 0;
    }
    fixedWalls
    {
        type            calculated;
        value           uniform 0;
    }
    frontAndBack
    {
        type            empty;
        value           nonuniform List<scalar> 0();
    }
}


// ************************************************************************* //
