/*--------------------------------*- C++ -*----------------------------------*\
  =========                 |
  \\      /  F ield         | OpenFOAM: The Open Source CFD Toolbox
   \\    /   O peration     | Website:  https://openfoam.org
    \\  /    A nd           | Version:  8
     \\/     M anipulation  |
\*---------------------------------------------------------------------------*/
FoamFile
{
    version     2.0;
    format      ascii;
    class       volVectorField;
    location    "0.01";
    object      U;
}
// * * * * * * * * * * * * * * * * * * * * * * * * * * * * * * * * * * * * * //

dimensions      [0 1 -1 0 0 0 0];

internalField   nonuniform List<vector> 
400
(
(-0.000862662 0.000852337 0)
(-0.00308536 0.00161649 0)
(-0.00650584 0.00160717 0)
(-0.00971696 0.00148585 0)
(-0.0126373 0.00132175 0)
(-0.0151778 0.00112463 0)
(-0.0172832 0.000898814 0)
(-0.0188992 0.000650997 0)
(-0.0199965 0.000396883 0)
(-0.0205601 0.000135802 0)
(-0.0205601 -0.000142466 0)
(-0.0199935 -0.000416347 0)
(-0.0189012 -0.000661042 0)
(-0.0172957 -0.000890814 0)
(-0.015185 -0.00112038 0)
(-0.0126373 -0.00132356 0)
(-0.00972574 -0.00148122 0)
(-0.00652059 -0.00159818 0)
(-0.00310098 -0.00160759 0)
(-0.000857149 -0.000867098 0)
(-0.00166448 0.00305728 0)
(-0.00603749 0.00590534 0)
(-0.0118688 0.00598167 0)
(-0.0173449 0.00552783 0)
(-0.0223287 0.00492034 0)
(-0.0266609 0.00418929 0)
(-0.030244 0.00335642 0)
(-0.0329933 0.00244507 0)
(-0.0348642 0.00148486 0)
(-0.0358124 0.000494149 0)
(-0.0358093 -0.00051098 0)
(-0.0348803 -0.00150789 0)
(-0.0330247 -0.00246142 0)
(-0.0302397 -0.00335368 0)
(-0.0266296 -0.00418285 0)
(-0.0223267 -0.00492616 0)
(-0.017373 -0.0055412 0)
(-0.0118703 -0.00597622 0)
(-0.0060375 -0.00591735 0)
(-0.00167647 -0.00307483 0)
(-0.00180052 0.00665303 0)
(-0.00665238 0.0119179 0)
(-0.0129794 0.0119674 0)
(-0.018922 0.011047 0)
(-0.0243128 0.00982401 0)
(-0.0289885 0.00835591 0)
(-0.0328498 0.00669232 0)
(-0.0357986 0.00487485 0)
(-0.0378029 0.00296407 0)
(-0.038834 0.000998378 0)
(-0.0388281 -0.00100248 0)
(-0.0378118 -0.00298517 0)
(-0.0358269 -0.00489122 0)
(-0.0328533 -0.00669342 0)
(-0.0289611 -0.00835821 0)
(-0.0242985 -0.00983296 0)
(-0.0189225 -0.0110517 0)
(-0.0129923 -0.0119498 0)
(-0.00666857 -0.0119139 0)
(-0.00181456 -0.00667258 0)
(-0.00192746 0.0104312 0)
(-0.00711717 0.0182601 0)
(-0.01388 0.0182755 0)
(-0.0202137 0.0168571 0)
(-0.0259346 0.0149802 0)
(-0.0308735 0.0127309 0)
(-0.0349432 0.0101941 0)
(-0.0380447 0.00743332 0)
(-0.0401375 0.00451836 0)
(-0.0412128 0.00152109 0)
(-0.0412233 -0.00150248 0)
(-0.0401673 -0.00450911 0)
(-0.0380661 -0.00742808 0)
(-0.0349263 -0.0101847 0)
(-0.0308418 -0.0127186 0)
(-0.0259309 -0.0149713 0)
(-0.0202174 -0.0168435 0)
(-0.0138654 -0.0182587 0)
(-0.0071033 -0.0182208 0)
(-0.00193666 -0.0104518 0)
(-0.00211729 0.0145335 0)
(-0.00779969 0.0251273 0)
(-0.015184 0.0250888 0)
(-0.0220702 0.0231139 0)
(-0.0282599 0.0205144 0)
(-0.0335693 0.0174082 0)
(-0.0379218 0.0139175 0)
(-0.041234 0.0101421 0)
(-0.0434653 0.00616586 0)
(-0.0446003 0.0020697 0)
(-0.0446039 -0.00205493 0)
(-0.0434876 -0.00614062 0)
(-0.0412622 -0.0101152 0)
(-0.0379183 -0.0138981 0)
(-0.0335425 -0.0173984 0)
(-0.0282442 -0.0205081 0)
(-0.0220629 -0.0230977 0)
(-0.0151575 -0.0250772 0)
(-0.00777507 -0.0251086 0)
(-0.00210718 -0.014555 0)
(-0.00237405 0.0190684 0)
(-0.00872164 0.0326953 0)
(-0.0169309 0.0325704 0)
(-0.0245421 0.0299458 0)
(-0.0313418 0.0265193 0)
(-0.0371296 0.0224507 0)
(-0.0418361 0.0179021 0)
(-0.0453999 0.0130153 0)
(-0.0477986 0.00789863 0)
(-0.0490151 0.00264351 0)
(-0.0490151 -0.0026488 0)
(-0.0478164 -0.00789614 0)
(-0.0454272 -0.0130104 0)
(-0.0418364 -0.0178938 0)
(-0.0371111 -0.0224457 0)
(-0.0313318 -0.0265216 0)
(-0.0245405 -0.0299521 0)
(-0.0169054 -0.0325793 0)
(-0.00869682 -0.0327071 0)
(-0.00235571 -0.0190727 0)
(-0.00270557 0.0241874 0)
(-0.00991919 0.0412023 0)
(-0.0191838 0.0409332 0)
(-0.027705 0.0375206 0)
(-0.0352521 0.0331173 0)
(-0.0416148 0.0279448 0)
(-0.0467336 0.0222096 0)
(-0.0505772 0.0160989 0)
(-0.0531536 0.00974463 0)
(-0.0544531 0.0032543 0)
(-0.0544489 -0.00327361 0)
(-0.0531658 -0.00975437 0)
(-0.0505996 -0.0161045 0)
(-0.04673 -0.0222062 0)
(-0.0415987 -0.0279366 0)
(-0.0352478 -0.0331153 0)
(-0.0277045 -0.0375288 0)
(-0.0191652 -0.0409344 0)
(-0.00990024 -0.0412134 0)
(-0.00269646 -0.0241677 0)
(-0.00312669 0.0300581 0)
(-0.0114446 0.0509051 0)
(-0.0220251 0.0503999 0)
(-0.0316501 0.0460067 0)
(-0.0400667 0.0404223 0)
(-0.0470747 0.0339618 0)
(-0.0526365 0.0268843 0)
(-0.0567618 0.0194219 0)
(-0.0595043 0.0117243 0)
(-0.0608773 0.0039161 0)
(-0.0608677 -0.00392699 0)
(-0.0595083 -0.0117247 0)
(-0.056776 -0.0194108 0)
(-0.052623 -0.0268676 0)
(-0.0470575 -0.0339443 0)
(-0.0400731 -0.0404196 0)
(-0.0316518 -0.0460193 0)
(-0.022008 -0.0504063 0)
(-0.0114247 -0.0509103 0)
(-0.00312111 -0.0300331 0)
(-0.0036577 0.036887 0)
(-0.0133649 0.0621064 0)
(-0.0255513 0.0612162 0)
(-0.036475 0.0555737 0)
(-0.0458538 0.0485274 0)
(-0.0535292 0.0405319 0)
(-0.0595192 0.0319209 0)
(-0.0638937 0.0229644 0)
(-0.0667612 0.0138168 0)
(-0.0681802 0.00461067 0)
(-0.0681655 -0.00461732 0)
(-0.0667513 -0.0138195 0)
(-0.063899 -0.0229437 0)
(-0.0595091 -0.0318992 0)
(-0.0535271 -0.0405205 0)
(-0.0458796 -0.0485387 0)
(-0.0364835 -0.0555942 0)
(-0.0255293 -0.0612418 0)
(-0.0133422 -0.0621244 0)
(-0.00364539 -0.0368678 0)
(-0.00432777 0.0449324 0)
(-0.0157679 0.0751574 0)
(-0.0298733 0.0736307 0)
(-0.0422729 0.0663506 0)
(-0.0526565 0.057464 0)
(-0.0609411 0.0476137 0)
(-0.0672601 0.0372436 0)
(-0.0717863 0.0266508 0)
(-0.0746967 0.0159795 0)
(-0.0761118 0.00532384 0)
(-0.0760983 -0.00531624 0)
(-0.0746733 -0.0159789 0)
(-0.0717761 -0.0266367 0)
(-0.0672558 -0.0372327 0)
(-0.060957 -0.0476117 0)
(-0.0526948 -0.0574701 0)
(-0.0422888 -0.0663478 0)
(-0.0298621 -0.0736424 0)
(-0.0157603 -0.0751807 0)
(-0.00432124 -0.0449138 0)
(-0.00518542 0.0545239 0)
(-0.0187794 0.0904538 0)
(-0.035118 0.0878656 0)
(-0.0490968 0.0783806 0)
(-0.0604187 0.0671634 0)
(-0.0691236 0.0550851 0)
(-0.0755443 0.0427211 0)
(-0.0800181 0.0303629 0)
(-0.0828294 0.0181422 0)
(-0.0841624 0.00603115 0)
(-0.0841548 -0.00601148 0)
(-0.0828131 -0.0181229 0)
(-0.080013 -0.0303586 0)
(-0.0755462 -0.0427213 0)
(-0.0691385 -0.055093 0)
(-0.0604437 -0.0671592 0)
(-0.049111 -0.0783595 0)
(-0.0351345 -0.087858 0)
(-0.0188005 -0.0904684 0)
(-0.00519872 -0.0545162 0)
(-0.00630026 0.066093 0)
(-0.0225641 0.108431 0)
(-0.0413951 0.10409 0)
(-0.056874 0.0915863 0)
(-0.0688439 0.0774039 0)
(-0.0775725 0.0626768 0)
(-0.0837059 0.0480924 0)
(-0.0877972 0.0338782 0)
(-0.0902932 0.0201298 0)
(-0.0914546 0.0066771 0)
(-0.0914415 -0.0066681 0)
(-0.0902852 -0.0201331 0)
(-0.0878064 -0.0339015 0)
(-0.0837138 -0.0480964 0)
(-0.0775838 -0.062691 0)
(-0.0688531 -0.0774022 0)
(-0.0568864 -0.0915837 0)
(-0.0414264 -0.104095 0)
(-0.0225971 -0.10844 0)
(-0.00631173 -0.0661162 0)
(-0.00774585 0.0802129 0)
(-0.0272903 0.12954 0)
(-0.0486906 0.122329 0)
(-0.0652474 0.105657 0)
(-0.0772025 0.0876897 0)
(-0.085249 0.0698608 0)
(-0.0904846 0.0528799 0)
(-0.0937179 0.0368846 0)
(-0.0955431 0.0217354 0)
(-0.0963736 0.00717392 0)
(-0.0963782 -0.00720232 0)
(-0.0955591 -0.0217729 0)
(-0.0937133 -0.0368976 0)
(-0.0904773 -0.0528831 0)
(-0.0852581 -0.0698706 0)
(-0.0772107 -0.0876879 0)
(-0.065268 -0.105661 0)
(-0.0487126 -0.122327 0)
(-0.0273049 -0.129531 0)
(-0.0077246 -0.0802629 0)
(-0.00959361 0.097646 0)
(-0.0330758 0.154121 0)
(-0.0566671 0.142201 0)
(-0.0732545 0.119792 0)
(-0.083936 0.097099 0)
(-0.0901364 0.0758265 0)
(-0.0935095 0.0564141 0)
(-0.095238 0.038873 0)
(-0.0960171 0.0227179 0)
(-0.0962838 0.00745795 0)
(-0.0962797 -0.00750536 0)
(-0.0959936 -0.0227532 0)
(-0.0952129 -0.0388757 0)
(-0.0935141 -0.0564265 0)
(-0.0901425 -0.0758091 0)
(-0.0839396 -0.097105 0)
(-0.073267 -0.119783 0)
(-0.0566689 -0.142165 0)
(-0.0330719 -0.15409 0)
(-0.00955362 -0.097702 0)
(-0.0119345 0.119411 0)
(-0.0398809 0.182091 0)
(-0.0642151 0.162507 0)
(-0.0786017 0.132388 0)
(-0.0858075 0.1041 0)
(-0.0884509 0.0792484 0)
(-0.0887626 0.0578171 0)
(-0.0880955 0.0392299 0)
(-0.0873139 0.0227153 0)
(-0.0868175 0.00742458 0)
(-0.08681 -0.00746096 0)
(-0.0872852 -0.0227376 0)
(-0.0880679 -0.0392407 0)
(-0.088735 -0.0578157 0)
(-0.0884534 -0.0792455 0)
(-0.085824 -0.1041 0)
(-0.0785802 -0.132353 0)
(-0.0641974 -0.162465 0)
(-0.0398734 -0.182059 0)
(-0.0119186 -0.119464 0)
(-0.0147676 0.146855 0)
(-0.0470376 0.212258 0)
(-0.0683404 0.180462 0)
(-0.0763083 0.140441 0)
(-0.0767292 0.106268 0)
(-0.0733979 0.078391 0)
(-0.0691312 0.0558762 0)
(-0.0652594 0.0372726 0)
(-0.0624196 0.0213455 0)
(-0.06093 0.00693864 0)
(-0.0609118 -0.00696858 0)
(-0.0623705 -0.0213612 0)
(-0.0652105 -0.0372805 0)
(-0.0691219 -0.0558659 0)
(-0.0734059 -0.0783938 0)
(-0.0767002 -0.106228 0)
(-0.076278 -0.140422 0)
(-0.0683308 -0.180408 0)
(-0.0470157 -0.212203 0)
(-0.0147638 -0.146934 0)
(-0.0172384 0.181108 0)
(-0.0517772 0.240117 0)
(-0.0618848 0.189837 0)
(-0.0561818 0.138908 0)
(-0.0451192 0.100035 0)
(-0.0332303 0.071131 0)
(-0.022972 0.0493306 0)
(-0.015153 0.0323124 0)
(-0.00994078 0.0182961 0)
(-0.00734133 0.00591476 0)
(-0.00731953 -0.00594256 0)
(-0.00989002 -0.0183197 0)
(-0.0150995 -0.0323344 0)
(-0.0229392 -0.0493344 0)
(-0.0332023 -0.0711012 0)
(-0.0451138 -0.100001 0)
(-0.0561466 -0.138868 0)
(-0.0618093 -0.189774 0)
(-0.0517791 -0.240074 0)
(-0.0172315 -0.181161 0)
(-0.0142445 0.227414 0)
(-0.0448018 0.256361 0)
(-0.027751 0.179944 0)
(0.00215792 0.12077 0)
(0.0295594 0.0817082 0)
(0.0520839 0.0556609 0)
(0.0689303 0.0375112 0)
(0.08077 0.0241291 0)
(0.0882712 0.0135151 0)
(0.0919121 0.00434598 0)
(0.0919345 -0.00437397 0)
(0.088326 -0.0135437 0)
(0.0808388 -0.02415 0)
(0.0689914 -0.0375162 0)
(0.052113 -0.0556435 0)
(0.0295994 -0.081689 0)
(0.00221788 -0.120707 0)
(-0.0277197 -0.179911 0)
(-0.0447762 -0.256326 0)
(-0.0142395 -0.22743 0)
(0.0209704 0.258491 0)
(0.0139403 0.232357 0)
(0.0849605 0.134605 0)
(0.149667 0.0795538 0)
(0.194012 0.0495868 0)
(0.225282 0.0320741 0)
(0.246725 0.0209611 0)
(0.261007 0.0132436 0)
(0.269765 0.00734164 0)
(0.273941 0.00234663 0)
(0.273955 -0.00237347 0)
(0.269803 -0.0073689 0)
(0.261054 -0.0132615 0)
(0.246764 -0.0209687 0)
(0.225305 -0.0320701 0)
(0.194034 -0.0495616 0)
(0.149693 -0.0795483 0)
(0.0849988 -0.134568 0)
(0.0139543 -0.232323 0)
(0.0209431 -0.258512 0)
(0.290142 0.132416 0)
(0.364498 0.0962322 0)
(0.477815 0.0468127 0)
(0.552545 0.0249097 0)
(0.590759 0.0145288 0)
(0.614158 0.00905268 0)
(0.629012 0.00580545 0)
(0.638482 0.00363316 0)
(0.644145 0.00200577 0)
(0.646798 0.000641289 0)
(0.646777 -0.00064898 0)
(0.644082 -0.00201779 0)
(0.638384 -0.00364068 0)
(0.628897 -0.00580843 0)
(0.614037 -0.00906117 0)
(0.590633 -0.014528 0)
(0.552469 -0.0248971 0)
(0.477767 -0.0467979 0)
(0.36446 -0.0962251 0)
(0.290131 -0.132414 0)
)
;

boundaryField
{
    movingWall
    {
        type            fixedValue;
        value           uniform (1 0 0);
    }
    fixedWalls
    {
        type            noSlip;
    }
    frontAndBack
    {
        type            empty;
    }
}


// ************************************************************************* //
