/*--------------------------------*- C++ -*----------------------------------*\
  =========                 |
  \\      /  F ield         | OpenFOAM: The Open Source CFD Toolbox
   \\    /   O peration     | Website:  https://openfoam.org
    \\  /    A nd           | Version:  8
     \\/     M anipulation  |
\*---------------------------------------------------------------------------*/
FoamFile
{
    version     2.0;
    format      ascii;
    class       volScalarField;
    location    "1.3";
    object      p;
}
// * * * * * * * * * * * * * * * * * * * * * * * * * * * * * * * * * * * * * //

dimensions      [0 2 -2 0 0 0 0];

internalField   nonuniform List<scalar> 
400
(
3.54612e-15
2.68648e-12
5.21074e-12
7.1159e-12
8.07885e-12
7.92092e-12
6.78024e-12
4.89016e-12
2.56755e-12
3.51129e-14
-2.48379e-12
-4.77347e-12
-6.68929e-12
-8.05949e-12
-8.82552e-12
-8.84667e-12
-8.16174e-12
-6.76534e-12
-4.89608e-12
-2.64749e-12
-1.11536e-12
1.27421e-12
3.49686e-12
5.29353e-12
6.33693e-12
6.55045e-12
5.9321e-12
4.81802e-12
3.31909e-12
1.5559e-12
-3.74165e-13
-2.31096e-12
-4.02915e-12
-5.46424e-12
-6.40687e-12
-6.89149e-12
-6.75551e-12
-6.13607e-12
-4.93512e-12
-3.22872e-12
-2.00925e-12
2.42362e-13
2.41984e-12
4.21515e-12
5.5191e-12
6.01905e-12
5.98636e-12
5.49997e-12
4.68284e-12
3.38679e-12
1.69496e-12
-1.64816e-13
-2.02246e-12
-3.59552e-12
-4.91503e-12
-5.73922e-12
-6.18047e-12
-6.0432e-12
-5.38782e-12
-3.98744e-12
-2.54884e-12
-2.05944e-13
2.00779e-12
4.02943e-12
5.44285e-12
6.34422e-12
6.66244e-12
6.67716e-12
6.14394e-12
5.01027e-12
3.29768e-12
1.26214e-12
-7.3471e-13
-2.6315e-12
-4.14952e-12
-5.40045e-12
-6.08618e-12
-6.30899e-12
-5.79232e-12
-4.51584e-12
-2.59743e-12
-2.41109e-13
2.18997e-12
4.2519e-12
5.93805e-12
6.95777e-12
7.57889e-12
7.65601e-12
7.22009e-12
6.00193e-12
4.16778e-12
2.02825e-12
-1.90668e-13
-2.19338e-12
-4.0659e-12
-5.45797e-12
-6.42717e-12
-6.60608e-12
-6.07764e-12
-4.68737e-12
-2.06717e-12
4.13964e-13
2.78262e-12
4.95134e-12
6.55244e-12
7.66279e-12
8.09953e-12
8.13015e-12
7.44855e-12
6.08524e-12
4.10461e-12
1.83792e-12
-3.84705e-13
-2.55908e-12
-4.42742e-12
-6.01088e-12
-6.82076e-12
-6.89975e-12
-5.9957e-12
-4.3369e-12
-9.53418e-13
1.52641e-12
3.82849e-12
5.74061e-12
7.23397e-12
7.97245e-12
8.22694e-12
7.84775e-12
6.91833e-12
5.24218e-12
3.1028e-12
8.0015e-13
-1.45544e-12
-3.48139e-12
-5.35062e-12
-6.6265e-12
-7.22021e-12
-6.77207e-12
-5.49629e-12
-3.40973e-12
3.99478e-13
2.83352e-12
4.86378e-12
6.51981e-12
7.53523e-12
7.98367e-12
7.7605e-12
7.09179e-12
5.71525e-12
3.79191e-12
1.4635e-12
-8.75057e-13
-2.98266e-12
-4.87626e-12
-6.35529e-12
-7.31279e-12
-7.26896e-12
-6.36456e-12
-4.54901e-12
-2.19862e-12
1.52472e-12
3.80809e-12
5.60012e-12
6.81626e-12
7.47684e-12
7.44905e-12
6.96748e-12
5.86045e-12
4.23051e-12
2.01655e-12
-3.85779e-13
-2.68971e-12
-4.65991e-12
-6.2138e-12
-7.35913e-12
-7.71244e-12
-7.20089e-12
-5.70294e-12
-3.61131e-12
-1.04455e-12
2.04937e-12
4.09587e-12
5.60931e-12
6.52736e-12
6.79677e-12
6.56229e-12
5.75875e-12
4.48937e-12
2.59288e-12
3.47618e-13
-2.06065e-12
-4.22079e-12
-5.96883e-12
-7.25041e-12
-7.9341e-12
-7.89368e-12
-6.88473e-12
-5.16884e-12
-2.87399e-12
-4.09048e-13
1.78386e-12
3.58425e-12
4.84398e-12
5.52277e-12
5.65501e-12
5.25858e-12
4.42683e-12
3.01562e-12
1.18365e-12
-1.00865e-12
-3.16984e-12
-5.12182e-12
-6.61461e-12
-7.60305e-12
-7.99732e-12
-7.60516e-12
-6.4836e-12
-4.69621e-12
-2.61105e-12
-3.36096e-13
9.57811e-13
2.40448e-12
3.45735e-12
4.00688e-12
4.10279e-12
3.77834e-12
2.96842e-12
1.72522e-12
4.04431e-14
-1.78201e-12
-3.64288e-12
-5.23397e-12
-6.49398e-12
-7.2545e-12
-7.43889e-12
-6.97585e-12
-5.88249e-12
-4.40424e-12
-2.6283e-12
-8.25807e-13
-2.242e-13
9.31583e-13
1.71598e-12
2.20974e-12
2.35116e-12
2.13918e-12
1.54377e-12
5.23663e-13
-7.29043e-13
-2.15697e-12
-3.51222e-12
-4.79592e-12
-5.77699e-12
-6.40575e-12
-6.50546e-12
-6.0851e-12
-5.25864e-12
-4.12459e-12
-2.88184e-12
-1.50974e-12
-1.35364e-12
-6.13072e-13
-1.83339e-14
3.48251e-13
5.42472e-13
4.56653e-13
6.76566e-14
-5.73821e-13
-1.41999e-12
-2.28289e-12
-3.23285e-12
-4.10866e-12
-4.9285e-12
-5.41269e-12
-5.51778e-12
-5.21596e-12
-4.64332e-12
-3.92965e-12
-3.09992e-12
-2.26952e-12
-2.35499e-12
-1.87311e-12
-1.58098e-12
-1.31023e-12
-1.18488e-12
-1.19276e-12
-1.38776e-12
-1.73704e-12
-2.12403e-12
-2.59481e-12
-3.08066e-12
-3.72286e-12
-4.3026e-12
-4.73855e-12
-4.79358e-12
-4.58727e-12
-4.21617e-12
-3.75967e-12
-3.3243e-12
-2.8291e-12
-3.00122e-12
-2.84233e-12
-2.70838e-12
-2.66221e-12
-2.59788e-12
-2.63045e-12
-2.71731e-12
-2.84089e-12
-2.99802e-12
-3.1386e-12
-3.43137e-12
-3.80942e-12
-4.30365e-12
-4.58109e-12
-4.60263e-12
-4.36185e-12
-4.05247e-12
-3.74305e-12
-3.46065e-12
-3.25698e-12
-3.40659e-12
-3.36786e-12
-3.44658e-12
-3.48507e-12
-3.55302e-12
-3.59145e-12
-3.66176e-12
-3.74641e-12
-3.82243e-12
-3.96328e-12
-4.14929e-12
-4.51018e-12
-4.84459e-12
-5.05236e-12
-4.91209e-12
-4.59497e-12
-4.2172e-12
-3.87666e-12
-3.63811e-12
-3.4662e-12
-3.47429e-12
-3.54691e-12
-3.6382e-12
-3.76763e-12
-3.83986e-12
-3.93754e-12
-4.06017e-12
-4.25491e-12
-4.52321e-12
-4.80486e-12
-5.15774e-12
-5.49562e-12
-5.81609e-12
-5.86192e-12
-5.62405e-12
-5.14875e-12
-4.64892e-12
-4.18687e-12
-3.81681e-12
-3.60799e-12
-3.37026e-12
-3.27579e-12
-3.34162e-12
-3.39974e-12
-3.49759e-12
-3.64637e-12
-3.94451e-12
-4.40437e-12
-4.97781e-12
-5.59027e-12
-6.1266e-12
-6.59435e-12
-6.86646e-12
-6.87845e-12
-6.51939e-12
-5.93797e-12
-5.26775e-12
-4.6243e-12
-4.08049e-12
-3.64009e-12
-3.15057e-12
-2.82782e-12
-2.70879e-12
-2.72348e-12
-2.8134e-12
-3.08778e-12
-3.6002e-12
-4.35677e-12
-5.26648e-12
-6.163e-12
-6.93975e-12
-7.50681e-12
-7.83859e-12
-7.82532e-12
-7.45156e-12
-6.76921e-12
-5.94436e-12
-5.11014e-12
-4.32941e-12
-3.65896e-12
)
;

boundaryField
{
    movingWall
    {
        type            zeroGradient;
    }
    fixedWalls
    {
        type            zeroGradient;
    }
    left
    {
        type            cyclic;
    }
    right
    {
        type            cyclic;
    }
    frontAndBack
    {
        type            empty;
    }
}


// ************************************************************************* //
