/*--------------------------------*- C++ -*----------------------------------*\
  =========                 |
  \\      /  F ield         | OpenFOAM: The Open Source CFD Toolbox
   \\    /   O peration     | Website:  https://openfoam.org
    \\  /    A nd           | Version:  8
     \\/     M anipulation  |
\*---------------------------------------------------------------------------*/
FoamFile
{
    version     2.0;
    format      ascii;
    class       volVectorField;
    location    "1.3";
    object      U;
}
// * * * * * * * * * * * * * * * * * * * * * * * * * * * * * * * * * * * * * //

dimensions      [0 1 -1 0 0 0 0];

internalField   nonuniform List<vector> 
400
(
(0.0249884 1.74126e-14 0)
(0.0249884 -5.34134e-14 0)
(0.0249884 -1.04825e-13 0)
(0.0249884 -1.44868e-13 0)
(0.0249884 -1.59717e-13 0)
(0.0249884 -1.71075e-13 0)
(0.0249884 -1.58676e-13 0)
(0.0249884 -1.31119e-13 0)
(0.0249884 -8.38304e-14 0)
(0.0249884 -2.94801e-14 0)
(0.0249884 2.76243e-14 0)
(0.0249884 8.41449e-14 0)
(0.0249884 1.28201e-13 0)
(0.0249884 1.68372e-13 0)
(0.0249884 1.86561e-13 0)
(0.0249884 1.98126e-13 0)
(0.0249884 1.81763e-13 0)
(0.0249884 1.53616e-13 0)
(0.0249884 1.03557e-13 0)
(0.0249884 5.59121e-14 0)
(0.0749655 -1.14789e-12 0)
(0.0749655 -1.3977e-12 0)
(0.0749655 -1.52479e-12 0)
(0.0749655 -1.4775e-12 0)
(0.0749655 -1.30352e-12 0)
(0.0749655 -1.00717e-12 0)
(0.0749655 -6.3307e-13 0)
(0.0749655 -1.94388e-13 0)
(0.0749655 2.55814e-13 0)
(0.0749655 6.88073e-13 0)
(0.0749655 1.05965e-12 0)
(0.0749655 1.33258e-12 0)
(0.0749655 1.48636e-12 0)
(0.0749655 1.49173e-12 0)
(0.0749655 1.3623e-12 0)
(0.0749655 1.08808e-12 0)
(0.0749655 7.09254e-13 0)
(0.0749655 2.36575e-13 0)
(0.0749655 -2.75314e-13 0)
(0.0749655 -7.41459e-13 0)
(0.124943 -4.19152e-12 0)
(0.124943 -4.79069e-12 0)
(0.124943 -4.88821e-12 0)
(0.124943 -4.4847e-12 0)
(0.124943 -3.66095e-12 0)
(0.124943 -2.51969e-12 0)
(0.124943 -1.15204e-12 0)
(0.124943 3.02732e-13 0)
(0.124943 1.72907e-12 0)
(0.124943 2.99182e-12 0)
(0.124943 3.9819e-12 0)
(0.124943 4.6041e-12 0)
(0.124943 4.78953e-12 0)
(0.124943 4.5228e-12 0)
(0.124943 3.81003e-12 0)
(0.124943 2.72654e-12 0)
(0.124943 1.34662e-12 0)
(0.124943 -1.90852e-13 0)
(0.124943 -1.75311e-12 0)
(0.124943 -3.14216e-12 0)
(0.174923 -8.83582e-12 0)
(0.174923 -9.7747e-12 0)
(0.174923 -9.67897e-12 0)
(0.174923 -8.62978e-12 0)
(0.174923 -6.75887e-12 0)
(0.174923 -4.2602e-12 0)
(0.174923 -1.39609e-12 0)
(0.174923 1.58096e-12 0)
(0.174923 4.39019e-12 0)
(0.174923 6.78792e-12 0)
(0.174923 8.54695e-12 0)
(0.174923 9.50019e-12 0)
(0.174923 9.55006e-12 0)
(0.174923 8.67755e-12 0)
(0.174923 6.96304e-12 0)
(0.174923 4.55302e-12 0)
(0.174923 1.67449e-12 0)
(0.174923 -1.41986e-12 0)
(0.174923 -4.40759e-12 0)
(0.174923 -6.99095e-12 0)
(0.224904 -1.41484e-11 0)
(0.224904 -1.53128e-11 0)
(0.224904 -1.49186e-11 0)
(0.224904 -1.30448e-11 0)
(0.224904 -9.90715e-12 0)
(0.224904 -5.8479e-12 0)
(0.224904 -1.26047e-12 0)
(0.224904 3.41459e-12 0)
(0.224904 7.75068e-12 0)
(0.224904 1.13394e-11 0)
(0.224904 1.38481e-11 0)
(0.224904 1.50302e-11 0)
(0.224904 1.47689e-11 0)
(0.224904 1.30789e-11 0)
(0.224904 1.0111e-11 0)
(0.224904 6.14243e-12 0)
(0.224904 1.54336e-12 0)
(0.224904 -3.25166e-12 0)
(0.224904 -7.76968e-12 0)
(0.224904 -1.15404e-11 0)
(0.274888 -1.89672e-11 0)
(0.274888 -2.02312e-11 0)
(0.274888 -1.94692e-11 0)
(0.274888 -1.67773e-11 0)
(0.274888 -1.24554e-11 0)
(0.274888 -6.95243e-12 0)
(0.274888 -8.07272e-13 0)
(0.274888 5.38986e-12 0)
(0.274888 1.10482e-11 0)
(0.274888 1.5636e-11 0)
(0.274888 1.87105e-11 0)
(0.274888 1.99826e-11 0)
(0.274888 1.93214e-11 0)
(0.274888 1.67895e-11 0)
(0.274888 1.26166e-11 0)
(0.274888 7.19956e-12 0)
(0.274888 1.05032e-12 0)
(0.274888 -5.24151e-12 0)
(0.274888 -1.10553e-11 0)
(0.274888 -1.57953e-11 0)
(0.324874 -2.21982e-11 0)
(0.324874 -2.3408e-11 0)
(0.324874 -2.23011e-11 0)
(0.324874 -1.89838e-11 0)
(0.324874 -1.38219e-11 0)
(0.324874 -7.32782e-12 0)
(0.324874 -1.44089e-13 0)
(0.324874 7.03296e-12 0)
(0.324874 1.35108e-11 0)
(0.324874 1.86658e-11 0)
(0.324874 2.20073e-11 0)
(0.324874 2.32107e-11 0)
(0.324874 2.21695e-11 0)
(0.324874 1.89719e-11 0)
(0.324874 1.39278e-11 0)
(0.324874 7.50897e-12 0)
(0.324874 3.36499e-13 0)
(0.324874 -6.90242e-12 0)
(0.324874 -1.34959e-11 0)
(0.324874 -1.87697e-11 0)
(0.374864 -2.31023e-11 0)
(0.374864 -2.41068e-11 0)
(0.374864 -2.2722e-11 0)
(0.374864 -1.91071e-11 0)
(0.374864 -1.36193e-11 0)
(0.374864 -6.81509e-12 0)
(0.374864 6.47063e-13 0)
(0.374864 8.02658e-12 0)
(0.374864 1.461e-11 0)
(0.374864 1.97594e-11 0)
(0.374864 2.29761e-11 0)
(0.374864 2.39611e-11 0)
(0.374864 2.26156e-11 0)
(0.374864 1.90801e-11 0)
(0.374864 1.36785e-11 0)
(0.374864 6.93849e-12 0)
(0.374864 -5.04455e-13 0)
(0.374864 -7.91808e-12 0)
(0.374864 -1.45789e-11 0)
(0.374864 -1.98174e-11 0)
(0.424857 -2.15264e-11 0)
(0.424857 -2.21505e-11 0)
(0.424857 -2.0594e-11 0)
(0.424857 -1.7012e-11 0)
(0.424857 -1.17714e-11 0)
(0.424857 -5.37403e-12 0)
(0.424857 1.53693e-12 0)
(0.424857 8.28897e-12 0)
(0.424857 1.42165e-11 0)
(0.424857 1.87458e-11 0)
(0.424857 2.14422e-11 0)
(0.424857 2.20444e-11 0)
(0.424857 2.05098e-11 0)
(0.424857 1.69767e-11 0)
(0.424857 1.17971e-11 0)
(0.424857 5.45185e-12 0)
(0.424857 -1.43847e-12 0)
(0.424857 -8.21057e-12 0)
(0.424857 -1.41874e-11 0)
(0.424857 -1.87809e-11 0)
(0.474853 -1.78758e-11 0)
(0.474853 -1.79843e-11 0)
(0.474853 -1.63181e-11 0)
(0.474853 -1.30624e-11 0)
(0.474853 -8.51922e-12 0)
(0.474853 -3.14728e-12 0)
(0.474853 2.53462e-12 0)
(0.474853 7.954e-12 0)
(0.474853 1.25889e-11 0)
(0.474853 1.59858e-11 0)
(0.474853 1.78159e-11 0)
(0.474853 1.79114e-11 0)
(0.474853 1.62586e-11 0)
(0.474853 1.30326e-11 0)
(0.474853 8.5308e-12 0)
(0.474853 3.19698e-12 0)
(0.474853 -2.47152e-12 0)
(0.474853 -7.90758e-12 0)
(0.474853 -1.25766e-11 0)
(0.474853 -1.60156e-11 0)
(0.524853 -1.30034e-11 0)
(0.524853 -1.25015e-11 0)
(0.524853 -1.07831e-11 0)
(0.524853 -8.00432e-12 0)
(0.524853 -4.44794e-12 0)
(0.524853 -4.46032e-13 0)
(0.524853 3.59042e-12 0)
(0.524853 7.27384e-12 0)
(0.524853 1.02375e-11 0)
(0.524853 1.21982e-11 0)
(0.524853 1.29676e-11 0)
(0.524853 1.24677e-11 0)
(0.524853 1.07575e-11 0)
(0.524853 7.99402e-12 0)
(0.524853 4.45942e-12 0)
(0.524853 4.77019e-13 0)
(0.524853 -3.55782e-12 0)
(0.524853 -7.2578e-12 0)
(0.524853 -1.0244e-11 0)
(0.524853 -1.22244e-11 0)
(0.574857 -7.92526e-12 0)
(0.574857 -6.83839e-12 0)
(0.574857 -5.08783e-12 0)
(0.574857 -2.84649e-12 0)
(0.574857 -3.19781e-13 0)
(0.574857 2.23599e-12 0)
(0.574857 4.57811e-12 0)
(0.574857 6.46571e-12 0)
(0.574857 7.72274e-12 0)
(0.574857 8.22447e-12 0)
(0.574857 7.92255e-12 0)
(0.574857 6.84882e-12 0)
(0.574857 5.0998e-12 0)
(0.574857 2.85743e-12 0)
(0.574857 3.30118e-13 0)
(0.574857 -2.22734e-12 0)
(0.574857 -4.57894e-12 0)
(0.574857 -6.4778e-12 0)
(0.574857 -7.741e-12 0)
(0.574857 -8.23833e-12 0)
(0.624864 -3.56594e-12 0)
(0.624864 -2.02337e-12 0)
(0.624864 -2.99427e-13 0)
(0.624864 1.45544e-12 0)
(0.624864 3.06285e-12 0)
(0.624864 4.38064e-12 0)
(0.624864 5.26793e-12 0)
(0.624864 5.64688e-12 0)
(0.624864 5.47371e-12 0)
(0.624864 4.76924e-12 0)
(0.624864 3.5998e-12 0)
(0.624864 2.07338e-12 0)
(0.624864 3.41975e-13 0)
(0.624864 -1.4319e-12 0)
(0.624864 -3.06211e-12 0)
(0.624864 -4.40071e-12 0)
(0.624864 -5.30367e-12 0)
(0.624864 -5.68299e-12 0)
(0.624864 -5.49465e-12 0)
(0.624864 -4.76351e-12 0)
(0.674874 -5.03912e-13 0)
(0.674874 1.25074e-12 0)
(0.674874 2.8723e-12 0)
(0.674874 4.20455e-12 0)
(0.674874 5.12879e-12 0)
(0.674874 5.55133e-12 0)
(0.674874 5.44105e-12 0)
(0.674874 4.80252e-12 0)
(0.674874 3.70315e-12 0)
(0.674874 2.24339e-12 0)
(0.674874 5.63527e-13 0)
(0.674874 -1.17666e-12 0)
(0.674874 -2.81307e-12 0)
(0.674874 -4.17824e-12 0)
(0.674874 -5.14101e-12 0)
(0.674874 -5.59736e-12 0)
(0.674874 -5.5045e-12 0)
(0.674874 -4.85566e-12 0)
(0.674874 -3.72336e-12 0)
(0.674874 -2.2212e-12 0)
(0.724888 1.11181e-12 0)
(0.724888 2.79779e-12 0)
(0.724888 4.19918e-12 0)
(0.724888 5.18308e-12 0)
(0.724888 5.65589e-12 0)
(0.724888 5.57959e-12 0)
(0.724888 4.9623e-12 0)
(0.724888 3.87281e-12 0)
(0.724888 2.41062e-12 0)
(0.724888 7.17939e-13 0)
(0.724888 -1.04919e-12 0)
(0.724888 -2.72201e-12 0)
(0.724888 -4.13903e-12 0)
(0.724888 -5.16033e-12 0)
(0.724888 -5.67751e-12 0)
(0.724888 -5.64032e-12 0)
(0.724888 -5.04042e-12 0)
(0.724888 -3.93641e-12 0)
(0.724888 -2.43432e-12 0)
(0.724888 -6.93329e-13 0)
(0.774904 1.52736e-12 0)
(0.774904 2.89112e-12 0)
(0.774904 3.96738e-12 0)
(0.774904 4.6461e-12 0)
(0.774904 4.86555e-12 0)
(0.774904 4.60622e-12 0)
(0.774904 3.90419e-12 0)
(0.774904 2.82963e-12 0)
(0.774904 1.49033e-12 0)
(0.774904 6.47377e-15 0)
(0.774904 -1.47976e-12 0)
(0.774904 -2.83252e-12 0)
(0.774904 -3.91756e-12 0)
(0.774904 -4.62704e-12 0)
(0.774904 -4.8861e-12 0)
(0.774904 -4.66354e-12 0)
(0.774904 -3.97873e-12 0)
(0.774904 -2.89295e-12 0)
(0.774904 -1.51811e-12 0)
(0.774904 8.63029e-15 0)
(0.824923 1.2162e-12 0)
(0.824923 2.10909e-12 0)
(0.824923 2.80445e-12 0)
(0.824923 3.21487e-12 0)
(0.824923 3.30404e-12 0)
(0.824923 3.06508e-12 0)
(0.824923 2.52946e-12 0)
(0.824923 1.75708e-12 0)
(0.824923 8.1973e-13 0)
(0.824923 -1.91328e-13 0)
(0.824923 -1.1898e-12 0)
(0.824923 -2.07617e-12 0)
(0.824923 -2.77076e-12 0)
(0.824923 -3.19722e-12 0)
(0.824923 -3.31432e-12 0)
(0.824923 -3.10391e-12 0)
(0.824923 -2.58418e-12 0)
(0.824923 -1.80698e-12 0)
(0.824923 -8.4603e-13 0)
(0.824923 1.92123e-13 0)
(0.874944 6.68049e-13 0)
(0.874944 1.10847e-12 0)
(0.874944 1.43887e-12 0)
(0.874944 1.63339e-12 0)
(0.874944 1.65569e-12 0)
(0.874944 1.51262e-12 0)
(0.874944 1.22115e-12 0)
(0.874944 8.15674e-13 0)
(0.874944 3.39628e-13 0)
(0.874944 -1.68347e-13 0)
(0.874944 -6.56328e-13 0)
(0.874944 -1.08914e-12 0)
(0.874944 -1.41689e-12 0)
(0.874944 -1.61398e-12 0)
(0.874944 -1.65007e-12 0)
(0.874944 -1.52465e-12 0)
(0.874944 -1.24603e-12 0)
(0.874944 -8.42427e-13 0)
(0.874944 -3.59212e-13 0)
(0.874944 1.61929e-13 0)
(0.924966 2.26045e-13 0)
(0.924966 3.53483e-13 0)
(0.924966 4.43751e-13 0)
(0.924966 4.90267e-13 0)
(0.924966 4.89189e-13 0)
(0.924966 4.32461e-13 0)
(0.924966 3.34027e-13 0)
(0.924966 2.05117e-13 0)
(0.924966 5.9047e-14 0)
(0.924966 -8.56795e-14 0)
(0.924966 -2.24844e-13 0)
(0.924966 -3.39109e-13 0)
(0.924966 -4.29548e-13 0)
(0.924966 -4.74987e-13 0)
(0.924966 -4.77355e-13 0)
(0.924966 -4.2763e-13 0)
(0.924966 -3.35885e-13 0)
(0.924966 -2.11385e-13 0)
(0.924966 -6.9148e-14 0)
(0.924966 8.427e-14 0)
(0.974988 2.11918e-14 0)
(0.974988 2.85256e-14 0)
(0.974988 2.63676e-14 0)
(0.974988 2.85696e-14 0)
(0.974988 2.28899e-14 0)
(0.974988 1.49781e-14 0)
(0.974988 1.7044e-15 0)
(0.974988 -1.18393e-14 0)
(0.974988 -2.18721e-14 0)
(0.974988 -2.97491e-14 0)
(0.974988 -2.99119e-14 0)
(0.974988 -3.24618e-14 0)
(0.974988 -3.05787e-14 0)
(0.974988 -3.21041e-14 0)
(0.974988 -2.63546e-14 0)
(0.974988 -1.95345e-14 0)
(0.974988 -8.15058e-15 0)
(0.974988 1.56545e-15 0)
(0.974988 5.62634e-15 0)
(0.974988 1.21363e-14 0)
)
;

boundaryField
{
    movingWall
    {
        type            fixedValue;
        value           uniform (1 0 0);
    }
    fixedWalls
    {
        type            noSlip;
    }
    left
    {
        type            cyclic;
    }
    right
    {
        type            cyclic;
    }
    frontAndBack
    {
        type            empty;
    }
}


// ************************************************************************* //
