/*--------------------------------*- C++ -*----------------------------------*\
  =========                 |
  \\      /  F ield         | OpenFOAM: The Open Source CFD Toolbox
   \\    /   O peration     | Website:  https://openfoam.org
    \\  /    A nd           | Version:  8
     \\/     M anipulation  |
\*---------------------------------------------------------------------------*/
FoamFile
{
    version     2.0;
    format      ascii;
    class       volScalarField;
    location    "46.5";
    object      p;
}
// * * * * * * * * * * * * * * * * * * * * * * * * * * * * * * * * * * * * * //

dimensions      [0 2 -2 0 0 0 0];

internalField   nonuniform List<scalar> 
464
(
-2.74445e-08
1.45687e-06
6.31719e-06
1.35787e-05
2.36997e-05
3.65267e-05
5.22755e-05
7.00224e-05
9.18862e-05
0.000112752
0.000141757
0.000161123
-1.72004e-06
-2.80977e-07
4.5424e-06
1.17712e-05
2.19238e-05
3.49404e-05
5.10894e-05
6.95777e-05
9.24012e-05
0.000114873
0.000145448
0.000168789
-7.11879e-06
-5.75912e-06
-1.0143e-06
6.08076e-06
1.60154e-05
2.85967e-05
4.38902e-05
6.15456e-05
8.24902e-05
0.000104258
0.000131093
0.00015478
-1.51576e-05
-1.38978e-05
-9.21094e-06
-2.14346e-06
8.00335e-06
2.14173e-05
3.82994e-05
5.84258e-05
8.24301e-05
0.000108157
0.000138977
0.000168056
-2.62711e-05
-2.51928e-05
-2.06701e-05
-1.38861e-05
-4.26064e-06
7.91482e-06
2.28134e-05
4.06307e-05
6.16797e-05
8.55362e-05
0.000113062
0.000142019
-4.04081e-05
-3.95816e-05
-3.52392e-05
-2.86343e-05
-1.86468e-05
-4.60267e-06
1.35174e-05
3.57177e-05
6.21566e-05
9.23397e-05
0.000126809
0.000163665
-5.71921e-05
-5.68723e-05
-5.29419e-05
-4.71919e-05
-3.89754e-05
-2.8478e-05
-1.46464e-05
3.00444e-06
2.48474e-05
5.10821e-05
8.16899e-05
0.000116937
-7.73912e-05
-7.7728e-05
-7.40037e-05
-6.81151e-05
-5.78936e-05
-4.34386e-05
-2.45431e-05
-6.30205e-07
2.86842e-05
6.37056e-05
0.000104367
0.000152103
-9.9726e-05
-0.000102202
-9.92729e-05
-9.9541e-05
-9.44431e-05
-8.73963e-05
-7.54644e-05
-5.86242e-05
-3.62112e-05
-7.13199e-06
2.5981e-05
7.18692e-05
-0.000118208
-0.000118031
-0.000116848
-0.000112327
-0.000105937
-9.4131e-05
-7.78739e-05
-5.46014e-05
-2.44289e-05
1.52447e-05
5.99175e-05
0.000125268
-0.000167047
-0.000177052
-0.000170677
-0.00018432
-0.000176588
-0.000178809
-0.000168335
-0.000153886
-0.000133446
-9.87924e-05
-7.14221e-05
-4.33136e-06
-0.000149871
-0.000151018
-0.00015931
-0.000158206
-0.000164074
-0.000158145
-0.000151901
-0.000132228
-0.000109495
-6.3248e-05
-2.64091e-05
6.06568e-05
-0.000248263
-0.000275898
-0.00026053
-0.000305039
-0.000287723
-0.000313922
-0.000300096
-0.00029387
-0.000280612
-0.000236746
-0.000229216
-0.000132286
-0.000171324
-0.000174409
-0.000200243
-0.000206072
-0.000235474
-0.000239862
-0.000256089
-0.000240887
-0.000241118
-0.000183548
-0.000177007
-5.43393e-05
-0.000316508
-0.00039267
-0.000357765
-0.000470613
-0.000433551
-0.000505102
-0.000481719
-0.000492216
-0.000487442
-0.000434939
-0.000460565
-0.000336905
-0.00017412
-0.000182429
-0.000236226
-0.000257337
-0.000322454
-0.000348362
-0.000400891
-0.00039191
-0.000432596
-0.000355656
-0.000406426
-0.000238862
-0.000290786
-0.00051348
-0.000450483
-0.000706289
-0.000635217
-0.000774888
-0.000733001
-0.000759548
-0.000760933
-0.000691727
-0.000759575
-0.000607883
-0.000152049
-0.000181593
-0.000267416
-0.00032327
-0.000424733
-0.00050298
-0.000602757
-0.000602328
-0.000694852
-0.000583053
-0.000703855
-0.000481596
0.000131349
-0.000685646
-0.00056312
-0.00109018
-0.000952129
-0.00116024
-0.00109078
-0.00110491
-0.00110623
-0.00098804
-0.00107965
-0.00089129
-0.00110266
-1.14955e-06
-0.00016836
-0.000526103
-0.000648799
-0.000803266
-0.000965772
-0.000932343
-0.00106372
-0.000867577
-0.00103744
-0.000730426
0.0002001
0.000217914
0.000238435
0.000252124
0.000265652
0.000274847
0.000281852
0.000284459
0.000210582
0.000229443
0.000252476
0.000267395
0.00028199
0.000291972
0.000299472
0.000302287
0.000186428
0.000210978
0.00023738
0.000259063
0.000278777
0.000293793
0.000304474
0.000308954
0.000203102
0.000230861
0.000260113
0.000284429
0.000306318
0.000323346
0.000335304
0.000340481
0.000175379
0.000208756
0.00024209
0.00027457
0.000302331
0.000326945
0.000342823
0.000350905
0.000202777
0.000241714
0.000280052
0.00031783
0.000349989
0.000379273
0.000398046
0.000407975
0.000156446
0.000203509
0.000245192
0.000298493
0.000334914
0.000381128
0.000403065
0.000421053
0.000200702
0.00025697
0.000307798
0.000370743
0.000416056
0.000472342
0.000500431
0.000523921
0.000113288
0.000186963
0.000232327
0.000327608
0.000371262
0.000466322
0.000495897
0.000541772
0.000180471
0.000268043
0.000330137
0.000441591
0.000503259
0.000619412
0.000663114
0.000726037
2.45467e-05
0.000141336
0.000177573
0.000347202
0.000392223
0.000592516
0.000635036
0.000765703
0.000114546
0.000252541
0.000314142
0.000512565
0.000588383
0.000835444
0.000910771
0.00110212
-0.000136455
3.20587e-05
3.02016e-05
0.000310025
0.00033174
0.000742616
0.000813791
0.00122414
-4.80145e-05
0.0001703
0.000183365
0.000519004
0.000565163
0.00107735
0.00121247
0.00184294
-0.000402311
-0.000191698
-0.000293398
9.72669e-05
-2.3322e-05
0.000737372
0.000786171
0.00206597
-0.000325704
-3.43607e-05
-0.000192603
0.00030893
5.59395e-05
0.000995242
0.000702881
0.00259686
-0.00076928
-0.000533822
-0.000874195
-0.000453836
-0.00118376
-0.000114125
-0.00167481
0.00133409
-0.000678768
-0.000358101
-0.000742549
-0.000283437
-0.0012508
-0.000206599
-0.00204839
0.00208385
-0.00107283
-0.000903243
-0.00132561
-0.0011991
-0.00251911
-0.00226
-0.00328261
0.00148993
-0.000967277
-0.000660541
-0.00102222
-0.000828415
-0.00117958
8.11831e-05
0.00326462
0.0132263
0.000257334
0.000257653
0.00025849
0.00025946
0.000260587
0.000261522
0.000262281
0.000262562
0.000258385
0.000258712
0.000259563
0.000260548
0.000261647
0.000262553
0.000263283
0.000263547
0.000254754
0.000255284
0.000256626
0.000258101
0.000259854
0.000261266
0.000262415
0.00026284
0.000257743
0.000258368
0.000259847
0.000261497
0.000263251
0.000264666
0.000265788
0.000266187
0.000248948
0.000250293
0.000253251
0.000256207
0.000259696
0.000262322
0.000264468
0.000265244
0.000254156
0.000255829
0.000259093
0.000262489
0.000265964
0.000268658
0.000270778
0.00027153
0.000235527
0.000239891
0.000247307
0.000253733
0.000260889
0.000265935
0.000269974
0.000271426
0.000242955
0.000248747
0.000256715
0.00026391
0.00027115
0.000276421
0.000280529
0.000281997
)
;

boundaryField
{
    movingWall
    {
        type            zeroGradient;
    }
    fixedWalls
    {
        type            zeroGradient;
    }
    frontAndBack
    {
        type            empty;
    }
}


// ************************************************************************* //
