/*--------------------------------*- C++ -*----------------------------------*\
  =========                 |
  \\      /  F ield         | OpenFOAM: The Open Source CFD Toolbox
   \\    /   O peration     | Website:  https://openfoam.org
    \\  /    A nd           | Version:  8
     \\/     M anipulation  |
\*---------------------------------------------------------------------------*/
FoamFile
{
    version     2.0;
    format      ascii;
    class       volVectorField;
    location    "46.5";
    object      U;
}
// * * * * * * * * * * * * * * * * * * * * * * * * * * * * * * * * * * * * * //

dimensions      [0 1 -1 0 0 0 0];

internalField   nonuniform List<vector> 
464
(
(-0.000162219 0.000160806 0)
(-0.000524517 0.000174862 0)
(-0.00089941 0.000168807 0)
(-0.00124565 0.000159002 0)
(-0.00157189 0.00014568 0)
(-0.00186933 0.000128378 0)
(-0.00212173 0.000107006 0)
(-0.00235788 7.94638e-05 0)
(-0.00248942 4.76307e-05 0)
(-0.00268683 3.7127e-06 0)
(-0.0026254 -3.41279e-05 0)
(-0.00287819 7.6856e-06 0)
(-0.000182776 0.000525992 0)
(-0.000589043 0.00057007 0)
(-0.0010085 0.000550547 0)
(-0.00139631 0.000519465 0)
(-0.00176203 0.000478644 0)
(-0.00209591 0.000428929 0)
(-0.00238236 0.00037419 0)
(-0.00264934 0.000309239 0)
(-0.00280969 0.000259417 0)
(-0.00303444 0.000172317 0)
(-0.00301 0.000179956 0)
(-0.00329083 3.8195e-05 0)
(-0.000189808 0.000924701 0)
(-0.000611885 0.00100053 0)
(-0.00104763 0.000965865 0)
(-0.00144971 0.000910492 0)
(-0.00182762 0.000837211 0)
(-0.00216822 0.0007461 0)
(-0.00246033 0.000640412 0)
(-0.00271229 0.000513898 0)
(-0.00287839 0.000394221 0)
(-0.00303323 0.000229734 0)
(-0.00302962 0.000160664 0)
(-0.00306105 -4.73012e-05 0)
(-0.000199878 0.00132964 0)
(-0.000644681 0.00143859 0)
(-0.00110457 0.00138873 0)
(-0.0015298 0.00130906 0)
(-0.00193236 0.00120382 0)
(-0.00229957 0.00107478 0)
(-0.00262224 0.000926368 0)
(-0.00290368 0.000757073 0)
(-0.00310239 0.000581612 0)
(-0.00327669 0.000367975 0)
(-0.00329474 0.000192541 0)
(-0.00331126 -8.77279e-05 0)
(-0.000213457 0.00176509 0)
(-0.000688875 0.00190977 0)
(-0.00118081 0.00184382 0)
(-0.0016348 0.00173821 0)
(-0.00206205 0.00159822 0)
(-0.00244578 0.00142369 0)
(-0.00277813 0.00121756 0)
(-0.00305702 0.000978973 0)
(-0.00326755 0.000721132 0)
(-0.00342231 0.000421102 0)
(-0.00348539 0.000143783 0)
(-0.00349438 -0.000218773 0)
(-0.000231148 0.00222603 0)
(-0.000746381 0.00241045 0)
(-0.00128076 0.00232861 0)
(-0.00177548 0.00219759 0)
(-0.00224693 0.0020245 0)
(-0.00268034 0.00181261 0)
(-0.00306722 0.00156659 0)
(-0.00340042 0.00128608 0)
(-0.00366077 0.000977449 0)
(-0.00385426 0.000632722 0)
(-0.00393489 0.000272227 0)
(-0.00392839 -0.000146289 0)
(-0.000251693 0.00274576 0)
(-0.000814478 0.00297204 0)
(-0.00139936 0.00286966 0)
(-0.00193894 0.00270522 0)
(-0.00244693 0.00248792 0)
(-0.00290347 0.00221528 0)
(-0.00330428 0.0018953 0)
(-0.00364558 0.00152721 0)
(-0.0039203 0.00111746 0)
(-0.00412691 0.000660908 0)
(-0.00426421 0.000174136 0)
(-0.00432313 -0.000368867 0)
(-0.000279945 0.00327606 0)
(-0.000904214 0.00355588 0)
(-0.0015545 0.00343689 0)
(-0.00215739 0.00325713 0)
(-0.00273702 0.00301479 0)
(-0.00327337 0.00271701 0)
(-0.00375597 0.00236793 0)
(-0.00417921 0.00196867 0)
(-0.00452822 0.00152553 0)
(-0.00479842 0.00103536 0)
(-0.00496516 0.000511007 0)
(-0.00500897 -8.81592e-05 0)
(-0.000302221 0.00393465 0)
(-0.000991619 0.00425365 0)
(-0.00170587 0.00410905 0)
(-0.00236092 0.00385608 0)
(-0.00298663 0.00355148 0)
(-0.00354969 0.00316262 0)
(-0.00405149 0.00272267 0)
(-0.00448651 0.00221459 0)
(-0.0048519 0.00165124 0)
(-0.00513992 0.00102177 0)
(-0.00538646 0.000342797 0)
(-0.00550747 -0.000443894 0)
(-0.000360874 0.00459058 0)
(-0.00113861 0.00502923 0)
(-0.00196181 0.0048309 0)
(-0.00271568 0.00463775 0)
(-0.00343104 0.00428038 0)
(-0.00410355 0.00389076 0)
(-0.00470574 0.00341574 0)
(-0.0052532 0.00288097 0)
(-0.00572384 0.00229794 0)
(-0.00610951 0.00164097 0)
(-0.00643199 0.000997208 0)
(-0.0065544 0.000146367 0)
(-0.000326598 0.00533502 0)
(-0.00122391 0.0057288 0)
(-0.00210585 0.00558298 0)
(-0.00291044 0.00517296 0)
(-0.00373203 0.00482028 0)
(-0.00441265 0.00427622 0)
(-0.00505842 0.0037383 0)
(-0.005601 0.00307944 0)
(-0.00608778 0.00238542 0)
(-0.00643734 0.00156982 0)
(-0.00687645 0.000758591 0)
(-0.0070095 -0.000329185 0)
(-0.000533168 0.00629294 0)
(-0.00146644 0.00704808 0)
(-0.00253255 0.00663215 0)
(-0.00348134 0.00653674 0)
(-0.00432929 0.00590756 0)
(-0.00518943 0.00546235 0)
(-0.00590594 0.00477245 0)
(-0.00661204 0.00408073 0)
(-0.00723919 0.00335811 0)
(-0.00774369 0.00249442 0)
(-0.00833386 0.0018224 0)
(-0.00855806 0.000644597 0)
(-0.000197416 0.00710397 0)
(-0.00152397 0.00741736 0)
(-0.00262016 0.00739956 0)
(-0.00363128 0.00663176 0)
(-0.00480232 0.00633391 0)
(-0.00554413 0.00554103 0)
(-0.00643423 0.00497104 0)
(-0.0070094 0.00412683 0)
(-0.00766559 0.00338427 0)
(-0.00796708 0.00236465 0)
(-0.0087146 0.00155568 0)
(-0.00870546 0.000139449 0)
(-0.00103728 0.00830094 0)
(-0.00198323 0.00992131 0)
(-0.00334584 0.00894261 0)
(-0.00455549 0.00922928 0)
(-0.00542114 0.00799854 0)
(-0.00656168 0.00755088 0)
(-0.00732452 0.0064484 0)
(-0.00821087 0.00558478 0)
(-0.00901015 0.00468292 0)
(-0.0095887 0.00359885 0)
(-0.0105661 0.00299644 0)
(-0.0108364 0.0015367 0)
(0.000636278 0.00975467 0)
(-0.00169926 0.00919104 0)
(-0.00328991 0.00965928 0)
(-0.00456625 0.00812806 0)
(-0.00647713 0.00805148 0)
(-0.00708685 0.00691952 0)
(-0.00839209 0.00637851 0)
(-0.00876512 0.00533288 0)
(-0.00963762 0.00463086 0)
(-0.00964476 0.00342257 0)
(-0.0107578 0.00283063 0)
(-0.0103103 0.00111976 0)
(-0.00287645 0.00977663 0)
(-0.00322098 0.0145649 0)
(-0.00441947 0.0120917 0)
(-0.00617772 0.0132606 0)
(-0.00661986 0.0107535 0)
(-0.00825784 0.0102071 0)
(-0.00891545 0.00838234 0)
(-0.00997967 0.00725499 0)
(-0.0109299 0.00607912 0)
(-0.0114161 0.00478099 0)
(-0.0128828 0.00430282 0)
(-0.0129109 0.00271233 0)
(0.00305054 0.0154016 0)
(-0.000893663 0.00992009 0)
(-0.00501096 0.0121807 0)
(-0.00602423 0.00943062 0)
(-0.00960615 0.00970294 0)
(-0.00944213 0.00842348 0)
(-0.0113339 0.00779151 0)
(-0.0110432 0.00663081 0)
(-0.012091 0.00595457 0)
(-0.0114086 0.00463547 0)
(-0.0128153 0.00442357 0)
(-0.011337 0.00266093 0)
(0.00157104 0.00792134 0)
(-0.00266743 0.0237236 0)
(-0.000197047 0.017557 0)
(-0.00685984 0.0191915 0)
(-0.00663584 0.0144704 0)
(-0.00979111 0.0130492 0)
(-0.0105786 0.0102941 0)
(-0.0118255 0.00860471 0)
(-0.0129559 0.0071218 0)
(-0.0129957 0.00556249 0)
(-0.0148748 0.00507885 0)
(-0.0140652 0.00351608 0)
(-0.0336724 0.0168411 0)
(-0.0185109 0.0105423 0)
(-0.0349685 0.0156625 0)
(-0.0238362 0.0145663 0)
(-0.0277577 0.0119219 0)
(-0.0210167 0.0112944 0)
(-0.0206809 0.00942162 0)
(-0.0166619 0.00804372 0)
(-0.0156802 0.00705772 0)
(-0.0122194 0.00557765 0)
(-0.0125857 0.00569501 0)
(-0.00801007 0.00412727 0)
(0.0302035 0.0579658 0)
(0.0465669 0.0275336 0)
(0.0659627 0.0225041 0)
(0.0844966 0.014279 0)
(0.0953522 0.0115694 0)
(0.106898 0.00747775 0)
(0.113604 0.00611362 0)
(0.123211 0.00417336 0)
(0.124234 0.00343545 0)
(0.135221 0.00240829 0)
(0.13009 0.00172005 0)
(0.144732 0.00124424 0)
(-0.00260753 0.00148566 0)
(-0.0018343 0.000814384 0)
(-0.00161179 0.000163321 0)
(-0.00125712 -0.00020518 0)
(-0.00101479 -0.000514562 0)
(-0.00071559 -0.000717076 0)
(-0.000426324 -0.000852074 0)
(-0.000129818 -0.00083455 0)
(-0.00289527 0.00036228 0)
(-0.00206244 -9.27732e-06 0)
(-0.00181488 -0.000278167 0)
(-0.00141705 -0.000597842 0)
(-0.0011452 -0.000841361 0)
(-0.000812876 -0.00104762 0)
(-0.000484091 -0.00117812 0)
(-0.000148464 -0.00113713 0)
(-0.00285678 0.000153919 0)
(-0.00247493 -0.000251151 0)
(-0.00219993 -0.000530669 0)
(-0.00181986 -0.000891109 0)
(-0.0014643 -0.00116921 0)
(-0.00105572 -0.00140955 0)
(-0.000625796 -0.00156174 0)
(-0.000195169 -0.00150175 0)
(-0.00310539 -0.000239456 0)
(-0.00274513 -0.000610788 0)
(-0.00245532 -0.000912874 0)
(-0.00205539 -0.00127201 0)
(-0.00166445 -0.00156375 0)
(-0.0012108 -0.00182814 0)
(-0.00071989 -0.00199382 0)
(-0.000226856 -0.00190684 0)
(-0.00337942 -0.000473083 0)
(-0.00314792 -0.000918258 0)
(-0.00286138 -0.00129663 0)
(-0.00247026 -0.00173075 0)
(-0.00202034 -0.00208879 0)
(-0.00149216 -0.00241689 0)
(-0.000889702 -0.00262094 0)
(-0.000286849 -0.002511 0)
(-0.00380499 -0.000557015 0)
(-0.00356843 -0.00105671 0)
(-0.00326829 -0.0015135 0)
(-0.00284799 -0.00204015 0)
(-0.0023514 -0.0024432 0)
(-0.00175233 -0.00287834 0)
(-0.00105033 -0.00310801 0)
(-0.000344314 -0.00299544 0)
(-0.00428951 -0.000905856 0)
(-0.00410375 -0.00152815 0)
(-0.00384371 -0.00210784 0)
(-0.00339944 -0.00277045 0)
(-0.00285755 -0.00328434 0)
(-0.00216781 -0.00385067 0)
(-0.00129841 -0.00414784 0)
(-0.000454755 -0.00402352 0)
(-0.00496491 -0.000674062 0)
(-0.0047722 -0.00144581 0)
(-0.00451106 -0.00203848 0)
(-0.00402754 -0.00294788 0)
(-0.00343243 -0.00346615 0)
(-0.00263349 -0.00432965 0)
(-0.00159486 -0.00462989 0)
(-0.000576597 -0.0046058 0)
(-0.0056444 -0.0011999 0)
(-0.00546761 -0.00215745 0)
(-0.00534026 -0.00294901 0)
(-0.00482739 -0.00408767 0)
(-0.00423348 -0.00481052 0)
(-0.00335061 -0.00594305 0)
(-0.00201956 -0.00638215 0)
(-0.000856407 -0.00641102 0)
(-0.006679 -0.000505696 0)
(-0.00652854 -0.0017163 0)
(-0.00643974 -0.00235123 0)
(-0.00590112 -0.003974 0)
(-0.0052851 -0.00455964 0)
(-0.00424495 -0.00639778 0)
(-0.00264339 -0.00677275 0)
(-0.00116227 -0.00725019 0)
(-0.00749707 -0.00123634 0)
(-0.007314 -0.00270573 0)
(-0.00757683 -0.00366495 0)
(-0.00704195 -0.00566305 0)
(-0.00662801 -0.00662964 0)
(-0.00560729 -0.00904422 0)
(-0.00355248 -0.00972653 0)
(-0.00198586 -0.0105965 0)
(-0.0090552 0.000124574 0)
(-0.00897832 -0.00166043 0)
(-0.00938787 -0.00209246 0)
(-0.00890602 -0.00486405 0)
(-0.00863917 -0.00533318 0)
(-0.0074625 -0.00929524 0)
(-0.00512106 -0.00975555 0)
(-0.00297042 -0.0124281 0)
(-0.00977468 -0.000700173 0)
(-0.00953296 -0.00286446 0)
(-0.0107119 -0.00374899 0)
(-0.0103079 -0.00711743 0)
(-0.0109226 -0.00821592 0)
(-0.0101856 -0.013385 0)
(-0.00770113 -0.014555 0)
(-0.00584312 -0.0193726 0)
(-0.0120637 0.0013829 0)
(-0.0120765 -0.000864095 0)
(-0.0136276 -0.000557727 0)
(-0.0134791 -0.00468536 0)
(-0.0147832 -0.00438058 0)
(-0.0142524 -0.0123658 0)
(-0.0123736 -0.0128834 0)
(-0.0101853 -0.0254197 0)
(-0.0121238 0.000804452 0)
(-0.0114513 -0.00202696 0)
(-0.0143554 -0.00208306 0)
(-0.0141391 -0.00708797 0)
(-0.0180717 -0.00735756 0)
(-0.0192321 -0.0172837 0)
(-0.020532 -0.0187926 0)
(-0.0208486 -0.0432246 0)
(-0.0152516 0.00324968 0)
(-0.0150653 0.000985366 0)
(-0.0187808 0.00302726 0)
(-0.018919 -0.0012809 0)
(-0.0248112 0.00224673 0)
(-0.026067 -0.0101041 0)
(-0.031609 -0.00889746 0)
(-0.0266708 -0.0659533 0)
(-0.0138337 0.00328391 0)
(-0.0115215 0.00053675 0)
(-0.0163638 0.00242639 0)
(-0.0142128 -0.0026692 0)
(-0.0247432 0.000784944 0)
(-0.0248745 -0.0132868 0)
(-0.039512 -0.0174828 0)
(-0.0127241 -0.10543 0)
(-0.017438 0.00446742 0)
(-0.015994 0.00298883 0)
(-0.0223971 0.00716811 0)
(-0.0199206 0.00617842 0)
(-0.0325203 0.0153346 0)
(-0.0213519 0.00303942 0)
(-0.040441 -0.0166904 0)
(0.0213731 -0.115929 0)
(-0.0104899 0.0056296 0)
(-0.00251089 0.00411318 0)
(-0.00834871 0.0069863 0)
(0.00879489 0.00526346 0)
(-0.0024123 0.00328685 0)
(0.0332655 -0.00897922 0)
(0.00824075 -0.0600566 0)
(0.044189 -0.131482 0)
(0.132907 -0.000168003 0)
(0.152631 0.000733483 0)
(0.134923 -0.0033434 0)
(0.158774 0.000448583 0)
(0.137342 -0.00727073 0)
(0.156127 -0.00829353 0)
(0.116897 -0.0205358 0)
(0.0796503 -0.0562758 0)
(-1.77013e-05 -1.89478e-05 0)
(-5.44777e-05 -2.13844e-05 0)
(-8.18554e-05 -2.38098e-05 0)
(-9.431e-05 -2.69918e-05 0)
(-9.20705e-05 -2.88293e-05 0)
(-7.57766e-05 -3.05059e-05 0)
(-4.8193e-05 -3.14119e-05 0)
(-1.52557e-05 -2.95259e-05 0)
(-2.09791e-05 9.22935e-05 0)
(-6.35691e-05 8.76418e-05 0)
(-9.5094e-05 6.41217e-05 0)
(-0.000108124 3.82739e-05 0)
(-0.000104163 1.03526e-05 0)
(-8.54967e-05 -1.21036e-05 0)
(-5.41693e-05 -2.88453e-05 0)
(-1.72113e-05 -3.27667e-05 0)
(-3.20985e-05 6.09324e-05 0)
(-9.6119e-05 4.94609e-05 0)
(-0.000139306 1.73004e-05 0)
(-0.000157105 -1.89842e-05 0)
(-0.000151241 -5.3916e-05 0)
(-0.000122341 -8.27089e-05 0)
(-7.72959e-05 -0.000103316 0)
(-2.43728e-05 -0.000103505 0)
(-3.91614e-05 0.000228143 0)
(-0.000114243 0.000203566 0)
(-0.000164046 0.000129254 0)
(-0.00017967 5.40866e-05 0)
(-0.000168224 -2.21429e-05 0)
(-0.000135463 -8.04144e-05 0)
(-8.47513e-05 -0.000122704 0)
(-2.67761e-05 -0.000128996 0)
(-7.72192e-05 0.000201376 0)
(-0.00021615 0.000164268 0)
(-0.000289388 7.39339e-05 0)
(-0.000308446 -1.77899e-05 0)
(-0.00028566 -0.000104467 0)
(-0.00022322 -0.000172534 0)
(-0.000138827 -0.000220799 0)
(-4.32464e-05 -0.000222153 0)
(-9.61144e-05 0.000540099 0)
(-0.000262175 0.00043519 0)
(-0.000346921 0.00022981 0)
(-0.000358243 5.77437e-05 0)
(-0.000323197 -0.00010238 0)
(-0.000252622 -0.000215005 0)
(-0.000155662 -0.000293976 0)
(-4.86862e-05 -0.000299996 0)
(-0.00023249 0.000531929 0)
(-0.000577413 0.00039282 0)
(-0.000668054 0.000152904 0)
(-0.000640154 -4.39967e-05 0)
(-0.00055801 -0.000223647 0)
(-0.000415396 -0.000351824 0)
(-0.000253016 -0.000440982 0)
(-7.76696e-05 -0.000439447 0)
(-0.000319362 0.00139545 0)
(-0.00069562 0.000907518 0)
(-0.000787293 0.000303394 0)
(-0.000735507 -3.9159e-05 0)
(-0.000631771 -0.000317762 0)
(-0.000471785 -0.00049738 0)
(-0.000285856 -0.00061688 0)
(-8.81764e-05 -0.000611736 0)
)
;

boundaryField
{
    movingWall
    {
        type            fixedValue;
        value           uniform (1 0 0);
    }
    fixedWalls
    {
        type            noSlip;
    }
    frontAndBack
    {
        type            empty;
    }
}


// ************************************************************************* //
