/*--------------------------------*- C++ -*----------------------------------*\
  =========                 |
  \\      /  F ield         | OpenFOAM: The Open Source CFD Toolbox
   \\    /   O peration     | Website:  https://openfoam.org
    \\  /    A nd           | Version:  8
     \\/     M anipulation  |
\*---------------------------------------------------------------------------*/
FoamFile
{
    version     2.0;
    format      ascii;
    class       volScalarField;
    location    "86";
    object      p;
}
// * * * * * * * * * * * * * * * * * * * * * * * * * * * * * * * * * * * * * //

dimensions      [0 2 -2 0 0 0 0];

internalField   nonuniform List<scalar> 
400
(
1.72529e-16
3.6448e-17
-6.55696e-17
-2.08319e-16
-4.06469e-16
-3.62428e-16
-3.19068e-16
-3.06784e-16
-4.11965e-16
-3.3729e-16
-6.41091e-16
-7.80162e-16
-3.87522e-16
-5.07549e-16
-4.2927e-16
-4.47485e-16
-4.31701e-16
-4.41351e-16
-3.34175e-16
-6.49867e-17
-2.52693e-16
1.79752e-17
1.11114e-16
-1.60363e-16
-4.40301e-16
-3.51847e-16
-3.02976e-16
-2.31216e-16
-5.32062e-16
-3.78225e-16
-5.93184e-16
-6.85755e-16
-3.85417e-16
-6.8235e-16
-3.92429e-16
-4.60592e-16
-5.83266e-16
-3.93618e-16
-1.411e-16
5.63731e-17
-3.81528e-16
-1.2181e-17
8.81712e-17
-1.66683e-16
-4.09603e-16
-4.06097e-16
-3.39833e-16
-3.36306e-16
-4.56752e-16
-5.33159e-16
-5.65537e-16
-5.36648e-16
-4.52111e-16
-7.89465e-16
-4.81287e-16
-3.78901e-16
-5.22371e-16
-2.00111e-16
-1.40231e-16
-1.5946e-17
-2.37882e-16
-1.6321e-16
-2.04588e-16
-2.11411e-16
-2.20401e-16
-4.64392e-16
-4.29686e-16
-4.45638e-16
-5.07676e-16
-6.22212e-16
-5.50811e-16
-4.87208e-16
-6.56772e-16
-6.62938e-16
-5.86703e-16
-4.02764e-16
-2.59038e-16
-2.03836e-16
-2.1286e-16
-2.74033e-17
-1.51377e-16
-3.4887e-16
-2.47596e-16
-2.86282e-16
-3.82067e-16
-2.87383e-16
-4.84359e-16
-7.0044e-16
-6.81089e-16
-7.49322e-16
-5.3401e-16
-5.59445e-16
-7.3696e-16
-6.81921e-16
-6.09363e-16
-3.86965e-16
-3.53802e-16
-7.74255e-17
-1.5789e-17
4.73349e-17
-1.91303e-16
-3.59067e-16
-3.00719e-16
-1.86204e-16
-2.19045e-16
-3.35288e-16
-5.86276e-16
-7.8553e-16
-8.13813e-16
-8.53313e-16
-6.2303e-16
-6.81031e-16
-7.45299e-16
-7.58663e-16
-7.19854e-16
-2.33486e-16
-1.97699e-16
-4.72495e-17
9.71142e-17
1.57719e-17
-3.80408e-16
-4.70696e-16
-4.7787e-16
-8.88802e-17
-1.34442e-16
-2.85203e-16
-6.09176e-16
-9.3473e-16
-1.02383e-15
-8.5211e-16
-4.98389e-16
-8.05245e-16
-8.37945e-16
-9.0451e-16
-7.57893e-16
-1.82982e-16
-1.05501e-16
-1.62671e-16
1.72834e-17
-4.87934e-17
-5.00422e-16
-5.70085e-16
-6.18139e-16
-2.03811e-16
-4.88874e-17
-2.5176e-16
-6.76757e-16
-9.73794e-16
-9.72783e-16
-8.64822e-16
-6.23776e-16
-7.27414e-16
-7.92852e-16
-9.16267e-16
-7.88306e-16
-2.76374e-16
-2.83351e-16
-3.40193e-16
4.33392e-17
-1.08558e-17
-5.67128e-16
-6.05586e-16
-5.61476e-16
-2.89214e-16
-2.08442e-16
-3.51499e-16
-8.09629e-16
-8.85924e-16
-8.35261e-16
-7.89744e-16
-6.81728e-16
-7.23441e-16
-8.12098e-16
-8.45479e-16
-6.8601e-16
-5.43861e-16
-3.84382e-16
-3.06584e-16
-8.01562e-17
-2.22524e-17
-6.04405e-16
-5.74814e-16
-6.03039e-16
-2.46037e-16
-3.86429e-16
-3.70383e-16
-7.59492e-16
-7.75338e-16
-7.96055e-16
-7.8637e-16
-7.88481e-16
-7.46295e-16
-7.32151e-16
-6.28923e-16
-5.7237e-16
-7.53364e-16
-4.46417e-16
-2.93997e-16
-1.05969e-16
-2.42694e-17
-6.64325e-16
-6.43232e-16
-5.35063e-16
-3.52696e-16
-2.87395e-16
-5.22146e-16
-6.17265e-16
-6.34343e-16
-6.98442e-16
-7.4892e-16
-8.52819e-16
-7.90283e-16
-6.87649e-16
-4.22863e-16
-6.46589e-16
-7.84005e-16
-4.36013e-16
-2.79712e-16
-1.38454e-16
-3.92678e-18
-7.40385e-16
-4.38037e-16
-6.64073e-16
-5.25688e-16
-5.0226e-16
-4.68672e-16
-4.75855e-16
-4.99098e-16
-4.99811e-16
-5.78426e-16
-9.14994e-16
-9.05416e-16
-6.85564e-16
-4.42831e-16
-5.85863e-16
-5.55853e-16
-3.55096e-16
-3.01442e-16
-2.98563e-16
-1.08809e-16
-4.92694e-16
-4.91309e-16
-6.03433e-16
-5.90659e-16
-5.49418e-16
-4.38201e-16
-3.64752e-16
-4.76974e-16
-4.90235e-16
-4.36463e-16
-8.49585e-16
-9.83444e-16
-8.04605e-16
-4.8734e-16
-5.30252e-16
-4.29698e-16
-2.70383e-16
-3.63211e-16
-1.98609e-16
-2.07173e-17
-2.46064e-16
-5.18846e-16
-6.02182e-16
-6.5673e-16
-3.59095e-16
-3.63712e-16
-4.64016e-16
-6.20314e-16
-5.33966e-16
-4.99153e-16
-7.04298e-16
-8.18701e-16
-9.15212e-16
-7.22371e-16
-5.84085e-16
-3.01128e-16
-1.21567e-16
-3.17679e-16
-2.21987e-16
-5.09858e-17
-6.8251e-17
-5.02994e-16
-6.55308e-16
-5.77896e-16
-3.20898e-16
-2.50277e-16
-5.32258e-16
-3.87855e-16
-5.12964e-16
-6.56239e-16
-6.53747e-16
-7.36778e-16
-8.75092e-16
-7.37492e-16
-3.64135e-16
-3.53169e-17
-1.99523e-16
-3.68118e-16
-1.98226e-16
-3.46967e-17
-1.12876e-16
-2.73581e-16
-5.56795e-16
-5.38825e-16
-3.44998e-16
-3.19994e-16
-4.32881e-16
-4.48026e-16
-6.17357e-16
-6.94899e-16
-5.39591e-16
-8.36163e-16
-8.54521e-16
-5.33145e-16
-1.7938e-16
-1.2757e-16
-6.69028e-17
-2.46966e-16
-2.06565e-16
-1.64053e-16
-3.45264e-17
-3.19445e-17
-2.80374e-16
-4.2364e-16
-2.58636e-16
-4.94546e-16
-7.37321e-16
-4.46838e-16
-6.94051e-16
-4.68437e-16
-4.87027e-16
-7.37656e-16
-8.68615e-16
-5.66526e-16
-1.84666e-16
-2.56901e-16
-3.51687e-17
-1.58209e-16
-1.93279e-16
-5.92641e-17
4.18479e-17
7.46353e-17
3.59205e-17
-2.0557e-16
-3.29911e-16
-6.59951e-16
-8.98905e-16
-5.32355e-16
-6.16935e-16
-5.17992e-16
-4.43157e-16
-5.28764e-16
-7.44157e-16
-5.36779e-16
-1.88572e-16
-1.28316e-16
-1.33653e-16
-1.80802e-16
-2.1164e-16
-1.50866e-16
9.31313e-17
1.40806e-16
4.68761e-17
-1.40768e-16
-3.07911e-16
-6.83735e-16
-7.95655e-16
-4.261e-16
-6.46082e-16
-4.33139e-16
-5.03907e-16
-6.10527e-16
-7.70477e-16
-5.34262e-16
-3.43989e-17
-7.5429e-17
-1.39259e-16
-2.47506e-16
-3.98198e-16
-1.87669e-16
1.06331e-16
7.34408e-17
-3.23591e-17
-1.3721e-16
-2.30365e-16
-5.21168e-16
-6.19568e-16
-4.79585e-16
-5.85109e-16
-6.56374e-16
-5.60193e-16
-6.17976e-16
-6.76124e-16
-6.01843e-16
-6.07409e-17
8.41617e-17
-8.04961e-17
-3.13857e-16
-4.73982e-16
-3.0616e-16
)
;

boundaryField
{
    inlet
    {
        type            zeroGradient;
    }
    outlet
    {
        type            fixedValue;
        value           uniform 0;
    }
    up
    {
        type            zeroGradient;
    }
    down
    {
        type            zeroGradient;
    }
    frontAndBack
    {
        type            empty;
    }
}


// ************************************************************************* //
