0 	-2.42007e-09
1.57135 	4.14362e-07
3.1427 	1.21849e-05
4.71405 	8.14772e-05
6.28539 	0.000310975
7.85674 	0.000758486
9.42809 	0.00184404
10.9994 	0.00304722
12.5708 	0.00968741
14.1421 	0.0225381
