/*--------------------------------*- C++ -*----------------------------------*\
  =========                 |
  \\      /  F ield         | OpenFOAM: The Open Source CFD Toolbox
   \\    /   O peration     | Website:  https://openfoam.org
    \\  /    A nd           | Version:  8
     \\/     M anipulation  |
\*---------------------------------------------------------------------------*/
FoamFile
{
    version     2.0;
    format      ascii;
    class       surfaceScalarField;
    location    "8";
    object      phi;
}
// * * * * * * * * * * * * * * * * * * * * * * * * * * * * * * * * * * * * * //

dimensions      [0 3 -1 0 0 0 0];

internalField   nonuniform List<scalar> 
760
(
0.000400002
-2.08919e-09
0.000400005
-8.28535e-09
0.00040001
-1.32822e-08
0.000400017
-1.05461e-08
0.000400027
5.93456e-09
0.00040004
4.04605e-08
0.000400058
9.54325e-08
0.000400082
1.70855e-07
0.000400112
2.6407e-07
0.000400149
3.70361e-07
0.000400193
4.837e-07
0.000400244
5.97334e-07
0.000400301
7.04511e-07
0.000400362
7.99283e-07
0.000400428
8.77235e-07
0.000400495
9.35687e-07
0.000400563
9.74351e-07
0.000400629
9.93173e-07
0.000400689
1.00048e-06
9.90931e-07
0.000400001
-3.21819e-09
0.000400004
-1.1281e-08
0.000400009
-1.82371e-08
0.000400016
-1.78894e-08
0.000400027
-4.69047e-09
0.000400042
2.5427e-08
0.000400063
7.48229e-08
0.00040009
1.43534e-07
0.000400125
2.29108e-07
0.000400168
3.272e-07
0.00040022
4.32216e-07
0.000400279
5.37832e-07
0.000400346
6.37731e-07
0.000400419
7.26392e-07
0.000400496
7.99714e-07
0.000400577
8.55212e-07
0.000400658
8.92664e-07
0.000400739
9.12209e-07
0.000400818
9.22081e-07
9.14624e-07
0.000400001
-3.98177e-09
0.000400003
-1.38008e-08
0.000400008
-2.29155e-08
0.000400015
-2.54266e-08
0.000400027
-1.62586e-08
0.000400044
8.31981e-09
0.000400068
5.05368e-08
0.000400102
1.10484e-07
0.000400145
1.86039e-07
0.000400198
2.7334e-07
0.000400263
3.67342e-07
0.000400339
4.62309e-07
0.000400424
5.52509e-07
0.000400518
6.3292e-07
0.000400617
6.9978e-07
0.000400722
7.50784e-07
0.000400829
7.85675e-07
0.000400937
8.04347e-07
0.000401045
8.14213e-07
8.04761e-07
0.0004
-4.43161e-09
0.000400002
-1.56903e-08
0.000400006
-2.69898e-08
0.000400014
-3.27774e-08
0.000400026
-2.85432e-08
0.000400045
-1.09387e-08
0.000400074
2.20965e-08
0.000400113
7.07398e-08
0.000400166
1.33285e-07
0.000400233
2.06513e-07
0.000400314
2.86102e-07
0.00040041
3.67085e-07
0.000400518
4.44478e-07
0.000400637
5.13873e-07
0.000400764
5.71919e-07
0.000400899
6.1653e-07
0.000401037
6.47311e-07
0.000401178
6.63859e-07
0.000401319
6.72556e-07
6.61935e-07
0.0004
-4.658e-09
0.000400002
-1.69929e-08
0.000400005
-3.04159e-08
0.000400012
-3.97904e-08
0.000400025
-4.12641e-08
0.000400046
-3.19624e-08
0.000400078
-1.00573e-08
0.000400124
2.47811e-08
0.000400186
7.13631e-08
0.000400265
1.27228e-07
0.000400362
1.88944e-07
0.000400477
2.52503e-07
0.000400607
3.13842e-07
0.000400752
3.69312e-07
0.000400908
4.16062e-07
0.000401072
4.52267e-07
0.000401242
4.77418e-07
0.000401415
4.90917e-07
0.00040159
4.97968e-07
4.87643e-07
0.0004
-4.70603e-09
0.000400001
-1.77811e-08
0.000400004
-3.31963e-08
0.00040001
-4.6309e-08
0.000400023
-5.40435e-08
0.000400045
-5.41063e-08
0.00040008
-4.49435e-08
0.000400131
-2.60426e-08
0.0004002
1.9938e-09
0.00040029
3.75733e-08
0.0004004
7.83127e-08
0.000400532
1.21332e-07
0.000400682
1.63625e-07
0.000400849
2.02434e-07
0.000401029
2.35534e-07
0.00040122
2.61424e-07
0.000401418
2.79535e-07
0.00040162
2.89188e-07
0.000401823
2.94269e-07
2.85484e-07
0.0004
-4.59804e-09
0.0004
-1.8135e-08
0.000400002
-3.53814e-08
0.000400008
-5.22577e-08
0.000400021
-6.6558e-08
0.000400044
-7.67125e-08
0.00040008
-8.14715e-08
0.000400134
-8.01282e-08
0.000400209
-7.26471e-08
0.000400306
-5.9658e-08
0.000400427
-4.23754e-08
0.00040057
-2.24297e-08
0.000400736
-1.65113e-09
0.00040092
1.82089e-08
0.00040112
3.56527e-08
0.000401332
4.95625e-08
0.000401552
5.93921e-08
0.000401777
6.4483e-08
0.000402003
6.73168e-08
6.08824e-08
0.0004
-4.3744e-09
0.0004
-1.81378e-08
0.000400001
-3.70486e-08
0.000400007
-5.76193e-08
0.000400019
-7.86015e-08
0.000400041
-9.92544e-08
0.000400079
-1.18665e-07
0.000400134
-1.35938e-07
0.000400212
-1.50371e-07
0.000400314
-1.61567e-07
0.000400441
-1.69489e-07
0.000400593
-1.74434e-07
0.000400768
-1.76967e-07
0.000400964
-1.7775e-07
0.000401178
-1.77484e-07
0.000401404
-1.76846e-07
0.00040164
-1.76285e-07
0.000401881
-1.76385e-07
0.000402124
-1.76056e-07
-1.79765e-07
0.0004
-4.08175e-09
0.000399999
-1.78684e-08
0.000400001
-3.82871e-08
0.000400005
-6.24234e-08
0.000400017
-9.00594e-08
0.000400039
-1.21335e-07
0.000400076
-1.55711e-07
0.000400132
-1.92115e-07
0.000400211
-2.29173e-07
0.000400315
-2.65427e-07
0.000400445
-2.99539e-07
0.000400601
-3.30432e-07
0.000400781
-3.57351e-07
0.000400983
-3.79826e-07
0.000401204
-3.97722e-07
0.000401438
-4.11226e-07
0.000401682
-4.20628e-07
0.000401932
-4.26421e-07
0.000402185
-4.28829e-07
-4.2975e-07
0.0004
-3.75182e-09
0.000399999
-1.74145e-08
0.0004
-3.91811e-08
0.000400004
-6.67149e-08
0.000400015
-1.00854e-07
0.000400036
-1.42633e-07
0.000400073
-1.91908e-07
0.000400128
-2.47451e-07
0.000400206
-3.07224e-07
0.000400309
-3.68706e-07
0.000400439
-4.29252e-07
0.000400595
-4.86406e-07
0.000400776
-5.38081e-07
0.000400979
-5.8266e-07
0.0004012
-6.19169e-07
0.000401436
-6.47255e-07
0.000401682
-6.67021e-07
0.000401935
-6.78861e-07
0.00040219
-6.84214e-07
-6.82473e-07
0.0004
-3.40683e-09
0.000399999
-1.68601e-08
0.0004
-3.97959e-08
0.000400004
-7.05173e-08
0.000400014
-1.10891e-07
0.000400034
-1.62827e-07
0.000400068
-2.26585e-07
0.000400122
-3.00793e-07
0.000400197
-3.82778e-07
0.000400298
-4.68993e-07
0.000400424
-5.55514e-07
0.000400576
-6.38536e-07
0.000400753
-7.14666e-07
0.000400951
-7.81164e-07
0.000401168
-8.36223e-07
0.0004014
-8.78928e-07
0.000401642
-9.09183e-07
0.00040189
-9.27269e-07
0.000402142
-9.3576e-07
-9.31602e-07
0.0004
-3.07645e-09
0.000399999
-1.62664e-08
0.000399999
-4.01654e-08
0.000400003
-7.3803e-08
0.000400012
-1.20018e-07
0.000400031
-1.81537e-07
0.000400063
-2.59011e-07
0.000400113
-3.50949e-07
0.000400184
-4.54078e-07
0.000400279
-5.63893e-07
0.000400399
-6.75264e-07
0.000400544
-7.83095e-07
0.000400712
-8.8275e-07
0.000400901
-9.70416e-07
0.000401108
-1.04348e-06
0.00040133
-1.10046e-06
0.000401562
-1.14108e-06
0.0004018
-1.16547e-06
0.000402041
-1.17729e-06
-1.17106e-06
0.0004
-2.78916e-09
0.000399999
-1.56672e-08
0.000399999
-4.02846e-08
0.000400002
-7.64762e-08
0.00040001
-1.27984e-07
0.000400027
-1.98267e-07
0.000400056
-2.88339e-07
0.000400102
-3.96614e-07
0.000400167
-5.19278e-07
0.000400254
-6.50956e-07
0.000400364
-7.85419e-07
0.000400497
-9.16372e-07
0.000400653
-1.03803e-06
0.000400828
-1.14558e-06
0.00040102
-1.23565e-06
0.000401226
-1.30622e-06
0.000401441
-1.35683e-06
0.000401663
-1.38747e-06
0.000401889
-1.40279e-06
-1.39497e-06
0.0004
-2.55468e-09
0.000399999
-1.50681e-08
0.000399999
-4.00968e-08
0.000400001
-7.83593e-08
0.000400007
-1.34422e-07
0.000400021
-2.12381e-07
0.000400047
-3.13577e-07
0.000400086
-4.36354e-07
0.000400144
-5.76436e-07
0.00040022
-7.27679e-07
0.000400318
-8.8289e-07
0.000400436
-1.0347e-06
0.000400574
-1.17627e-06
0.000400731
-1.30193e-06
0.000400903
-1.40757e-06
0.000401087
-1.4907e-06
0.000401281
-1.55071e-06
0.000401481
-1.58743e-06
0.000401685
-1.60644e-06
-1.59775e-06
0.0004
-2.36447e-09
0.000399999
-1.44378e-08
0.000399999
-3.94733e-08
0.000399999
-7.91731e-08
0.000400004
-1.38848e-07
0.000400015
-2.2312e-07
0.000400035
-3.3363e-07
0.000400067
-4.68683e-07
0.000400114
-6.23618e-07
0.000400178
-7.91647e-07
0.00040026
-9.64752e-07
0.00040036
-1.13464e-06
0.000400477
-1.29357e-06
0.00040061
-1.4351e-06
0.000400757
-1.55452e-06
0.000400915
-1.64889e-06
0.000401082
-1.71747e-06
0.000401255
-1.76002e-06
0.000401431
-1.78284e-06
-1.77441e-06
0.0004
-2.19828e-09
0.000399999
-1.36906e-08
0.000399998
-3.82007e-08
0.000399997
-7.85396e-08
0.000399999
-1.40697e-07
0.000400006
-2.29707e-07
0.000400019
-3.47474e-07
0.000400043
-4.92292e-07
0.000400079
-6.59192e-07
0.000400128
-8.40869e-07
0.000400192
-1.02864e-06
0.000400271
-1.21346e-06
0.000400364
-1.38685e-06
0.00040047
-1.5417e-06
0.000400589
-1.67278e-06
0.000400717
-1.77683e-06
0.000400852
-1.85299e-06
0.000400993
-1.90096e-06
0.000401138
-1.92767e-06
-1.92106e-06
0.0004
-1.99851e-09
0.000399999
-1.265e-08
0.000399997
-3.60008e-08
0.000399994
-7.6084e-08
0.000399993
-1.39493e-07
0.000399995
-2.31574e-07
0.000400002
-3.54448e-07
0.000400016
-5.06434e-07
0.000400039
-6.82321e-07
0.000400073
-8.74388e-07
0.000400117
-1.07345e-06
0.000400174
-1.2699e-06
0.000400242
-1.45468e-06
0.00040032
-1.62017e-06
0.000400408
-1.76066e-06
0.000400504
-1.87269e-06
0.000400606
-1.95525e-06
0.000400713
-2.00809e-06
0.000400824
-2.03856e-06
-2.03562e-06
0.0004
-1.63838e-09
0.000399998
-1.10288e-08
0.000399995
-3.26049e-08
0.00039999
-7.15933e-08
0.000399986
-1.35126e-07
0.000399983
-2.2877e-07
0.000399983
-3.54777e-07
0.000399988
-5.11496e-07
0.0004
-6.93568e-07
0.000400018
-8.92978e-07
0.000400045
-1.10018e-06
0.00040008
-1.30515e-06
0.000400124
-1.49842e-06
0.000400176
-1.67196e-06
0.000400235
-1.81971e-06
0.0004003
-1.93794e-06
0.00040037
-2.02559e-06
0.000400445
-2.08245e-06
0.000400522
-2.11608e-06
-2.11817e-06
0.000399999
-1.11084e-09
0.000399997
-8.67348e-09
0.000399992
-2.78758e-08
0.000399986
-6.51329e-08
0.000399979
-1.27948e-07
0.000399972
-2.22015e-07
0.000399967
-3.49664e-07
0.000399965
-5.09278e-07
0.000399966
-6.95398e-07
0.000399973
-8.99778e-07
0.000399986
-1.11264e-06
0.000400004
-1.32372e-06
0.000400029
-1.52325e-06
0.00040006
-1.7028e-06
0.000400096
-1.85606e-06
0.000400138
-1.97915e-06
0.000400183
-2.07074e-06
0.000400231
-2.13049e-06
0.00040028
-2.16572e-06
-2.1707e-06
0.000399999
0.000399996
0.000399991
0.000399983
0.000399974
0.000399965
0.000399957
0.00039995
0.000399947
0.000399947
0.000399952
0.000399961
0.000399976
0.000399995
0.000400019
0.000400047
0.000400078
0.000400112
0.000400145
)
;

boundaryField
{
    inlet
    {
        type            calculated;
        value           nonuniform List<scalar> 
20
(
-0.0004
-0.0004
-0.0004
-0.0004
-0.0004
-0.0004
-0.0004
-0.0004
-0.0004
-0.0004
-0.0004
-0.0004
-0.0004
-0.0004
-0.0004
-0.0004
-0.0004
-0.0004
-0.0004
-0.0004
)
;
    }
    outlet
    {
        type            calculated;
        value           nonuniform List<scalar> 
20
(
0.000400741
0.000400894
0.000401154
0.000401462
0.000401764
0.000402026
0.000402228
0.000402365
0.000402435
0.000402443
0.000402391
0.000402281
0.000402113
0.000401887
0.000401608
0.000401285
0.000400939
0.000400605
0.000400333
0.000400177
)
;
    }
    up
    {
        type            calculated;
        value           nonuniform List<scalar> 
20
(
-1.61558e-10
-5.7403e-09
-2.25963e-08
-5.74848e-08
-1.18979e-07
-2.12896e-07
-3.41364e-07
-5.02872e-07
-6.91932e-07
-9.00058e-07
-1.11727e-06
-1.33312e-06
-1.53765e-06
-1.72218e-06
-1.87998e-06
-2.00705e-06
-2.10184e-06
-2.16412e-06
-2.19868e-06
-2.20356e-06
)
;
    }
    down
    {
        type            calculated;
        value           nonuniform List<scalar> 
20
(
5.6591e-10
4.78445e-09
8.11439e-09
3.61255e-09
-1.55923e-08
-5.39017e-08
-1.13587e-07
-1.94683e-07
-2.94309e-07
-4.074e-07
-5.27655e-07
-6.47983e-07
-7.61178e-07
-8.60917e-07
-9.42493e-07
-1.00311e-06
-1.04207e-06
-1.05956e-06
-1.06053e-06
-1.04298e-06
)
;
    }
    frontAndBack
    {
        type            empty;
        value           nonuniform List<scalar> 0();
    }
}


// ************************************************************************* //
