/*--------------------------------*- C++ -*----------------------------------*\
  =========                 |
  \\      /  F ield         | OpenFOAM: The Open Source CFD Toolbox
   \\    /   O peration     | Website:  https://openfoam.org
    \\  /    A nd           | Version:  8
     \\/     M anipulation  |
\*---------------------------------------------------------------------------*/
FoamFile
{
    version     2.0;
    format      ascii;
    class       volVectorField;
    location    "29";
    object      U;
}
// * * * * * * * * * * * * * * * * * * * * * * * * * * * * * * * * * * * * * //

dimensions      [0 1 -1 0 0 0 0];

internalField   nonuniform List<vector> 
11600
(
(-3.30498e-06 3.23681e-06 0)
(-3.57336e-05 1.28617e-05 0)
(-9.16074e-05 1.64392e-05 0)
(-0.000148089 1.74164e-05 0)
(-0.000207436 1.74476e-05 0)
(-0.000266576 1.73343e-05 0)
(-0.0003256 1.72744e-05 0)
(-0.000384576 1.72628e-05 0)
(-0.000443524 1.72781e-05 0)
(-0.000502459 1.73074e-05 0)
(-0.000561386 1.73445e-05 0)
(-0.000620307 1.73866e-05 0)
(-0.00067922 1.74323e-05 0)
(-0.000738121 1.74809e-05 0)
(-0.000797006 1.75319e-05 0)
(-0.000855868 1.75848e-05 0)
(-0.000914702 1.76393e-05 0)
(-0.000973499 1.76949e-05 0)
(-0.00103225 1.77513e-05 0)
(-0.00109095 1.78081e-05 0)
(-0.00114958 1.78648e-05 0)
(-0.00120814 1.7921e-05 0)
(-0.00126661 1.79763e-05 0)
(-0.00132498 1.803e-05 0)
(-0.00138323 1.80819e-05 0)
(-0.00144134 1.81313e-05 0)
(-0.00149931 1.81777e-05 0)
(-0.00155712 1.82207e-05 0)
(-0.00161474 1.82598e-05 0)
(-0.00167215 1.82946e-05 0)
(-0.00172935 1.83246e-05 0)
(-0.0017863 1.83494e-05 0)
(-0.00184299 1.83688e-05 0)
(-0.00189939 1.83825e-05 0)
(-0.00195549 1.83907e-05 0)
(-0.00201127 1.83932e-05 0)
(-0.00206671 1.83906e-05 0)
(-0.00212181 1.83835e-05 0)
(-0.00217654 1.83729e-05 0)
(-0.00223091 1.83603e-05 0)
(-0.00228493 1.83478e-05 0)
(-0.0023386 1.83385e-05 0)
(-0.00239196 1.83361e-05 0)
(-0.00244505 1.8346e-05 0)
(-0.00249796 1.83751e-05 0)
(-0.00255077 1.8432e-05 0)
(-0.00260365 1.85279e-05 0)
(-0.0026568 1.86763e-05 0)
(-0.00271051 1.88922e-05 0)
(-0.00276517 1.91891e-05 0)
(-0.00282133 1.95716e-05 0)
(-0.00287973 2.00172e-05 0)
(-0.00294136 2.04421e-05 0)
(-0.00300776 2.06428e-05 0)
(-0.00308184 2.03753e-05 0)
(-0.00316635 2.06783e-05 0)
(-0.00325322 2.82856e-05 0)
(-0.00348449 6.05432e-05 0)
(-0.0035529 0.000336504 0)
(-0.00484187 0.00115786 0)
(-1.31755e-05 3.58444e-05 0)
(-7.9634e-05 7.89523e-05 0)
(-0.000183241 9.59277e-05 0)
(-0.00028868 0.000101456 0)
(-0.000399133 0.00010266 0)
(-0.000509799 0.000102751 0)
(-0.000620459 0.000102677 0)
(-0.000731071 0.000102608 0)
(-0.000841566 0.000102554 0)
(-0.000951914 0.000102507 0)
(-0.00106209 0.000102457 0)
(-0.00117208 0.000102401 0)
(-0.00128185 0.000102335 0)
(-0.00139138 0.000102258 0)
(-0.00150065 0.000102167 0)
(-0.00160962 0.000102062 0)
(-0.00171827 0.00010194 0)
(-0.00182656 0.000101801 0)
(-0.00193448 0.000101644 0)
(-0.00204198 0.000101465 0)
(-0.00214903 0.000101265 0)
(-0.00225561 0.000101041 0)
(-0.00236166 0.000100791 0)
(-0.00246716 0.000100515 0)
(-0.00257207 0.00010021 0)
(-0.00267636 9.98748e-05 0)
(-0.00277997 9.95082e-05 0)
(-0.00288287 9.91086e-05 0)
(-0.00298502 9.86749e-05 0)
(-0.00308638 9.8206e-05 0)
(-0.0031869 9.77013e-05 0)
(-0.00328655 9.71607e-05 0)
(-0.00338528 9.65844e-05 0)
(-0.00348305 9.59736e-05 0)
(-0.00357984 9.53303e-05 0)
(-0.00367559 9.46577e-05 0)
(-0.0037703 9.39604e-05 0)
(-0.00386393 9.32451e-05 0)
(-0.00395648 9.25209e-05 0)
(-0.00404795 9.18002e-05 0)
(-0.00413836 9.10995e-05 0)
(-0.00422774 9.04407e-05 0)
(-0.00431616 8.98528e-05 0)
(-0.00440373 8.93744e-05 0)
(-0.0044906 8.90569e-05 0)
(-0.004577 8.8969e-05 0)
(-0.00466322 8.92041e-05 0)
(-0.0047497 8.98897e-05 0)
(-0.00483704 9.12028e-05 0)
(-0.00492607 9.33937e-05 0)
(-0.00501799 9.68226e-05 0)
(-0.00511452 0.000102025 0)
(-0.00521822 0.000109828 0)
(-0.00533321 0.000121618 0)
(-0.00546609 0.000140239 0)
(-0.00562496 0.00017315 0)
(-0.00582539 0.000238317 0)
(-0.00614652 0.000371459 0)
(-0.00641321 0.000809638 0)
(-0.00718759 0.00146246 0)
(-1.69978e-05 9.25568e-05 0)
(-9.75479e-05 0.00018296 0)
(-0.000220971 0.000218939 0)
(-0.000346027 0.000230964 0)
(-0.000476626 0.000234055 0)
(-0.000607425 0.000234575 0)
(-0.000738177 0.000234493 0)
(-0.000868825 0.000234283 0)
(-0.000999279 0.000234031 0)
(-0.00112949 0.000233747 0)
(-0.00125943 0.000233426 0)
(-0.00138906 0.000233064 0)
(-0.00151833 0.000232658 0)
(-0.00164722 0.000232203 0)
(-0.00177568 0.000231699 0)
(-0.00190368 0.000231141 0)
(-0.00203117 0.000230528 0)
(-0.00215811 0.000229857 0)
(-0.00228446 0.000229125 0)
(-0.00241018 0.00022833 0)
(-0.00253522 0.000227469 0)
(-0.00265953 0.000226538 0)
(-0.00278307 0.000225536 0)
(-0.0029058 0.000224459 0)
(-0.00302765 0.000223305 0)
(-0.00314858 0.000222071 0)
(-0.00326854 0.000220755 0)
(-0.00338749 0.000219355 0)
(-0.00350536 0.000217869 0)
(-0.0036221 0.000216297 0)
(-0.00373768 0.000214639 0)
(-0.00385202 0.000212895 0)
(-0.00396509 0.000211067 0)
(-0.00407684 0.00020916 0)
(-0.00418723 0.00020718 0)
(-0.00429622 0.000205135 0)
(-0.00440376 0.000203038 0)
(-0.00450985 0.000200906 0)
(-0.00461447 0.000198761 0)
(-0.00471762 0.000196632 0)
(-0.00481932 0.000194559 0)
(-0.00491961 0.000192593 0)
(-0.00501856 0.000190803 0)
(-0.0051163 0.000189277 0)
(-0.005213 0.000188134 0)
(-0.00530888 0.000187534 0)
(-0.00540429 0.00018769 0)
(-0.00549967 0.000188898 0)
(-0.00559565 0.000191571 0)
(-0.00569308 0.000196295 0)
(-0.00579311 0.000203931 0)
(-0.00589734 0.000215778 0)
(-0.00600804 0.000233878 0)
(-0.00612848 0.000261621 0)
(-0.00626317 0.0003052 0)
(-0.00641722 0.000376712 0)
(-0.00660003 0.00049833 0)
(-0.00683241 0.000716064 0)
(-0.00699795 0.00116217 0)
(-0.00729639 0.00176736 0)
(-1.81095e-05 0.000150369 0)
(-0.000103674 0.000289515 0)
(-0.000234204 0.000344374 0)
(-0.000365868 0.000362417 0)
(-0.000503207 0.000367086 0)
(-0.000640666 0.00036788 0)
(-0.00077805 0.00036772 0)
(-0.000915315 0.000367324 0)
(-0.00105236 0.000366834 0)
(-0.00118914 0.000366268 0)
(-0.00132559 0.000365626 0)
(-0.00146169 0.000364902 0)
(-0.00159738 0.000364093 0)
(-0.00173263 0.000363196 0)
(-0.00186739 0.000362206 0)
(-0.00200161 0.00036112 0)
(-0.00213526 0.000359935 0)
(-0.00226827 0.000358648 0)
(-0.00240061 0.000357254 0)
(-0.00253223 0.000355749 0)
(-0.00266308 0.000354131 0)
(-0.00279311 0.000352395 0)
(-0.00292226 0.000350538 0)
(-0.00305049 0.000348556 0)
(-0.00317773 0.000346445 0)
(-0.00330395 0.000344202 0)
(-0.00342908 0.000341825 0)
(-0.00355306 0.00033931 0)
(-0.00367585 0.000336657 0)
(-0.00379738 0.000333864 0)
(-0.00391761 0.000330933 0)
(-0.00403647 0.000327865 0)
(-0.00415392 0.000324664 0)
(-0.00426989 0.000321338 0)
(-0.00438436 0.000317896 0)
(-0.00449727 0.000314353 0)
(-0.00460858 0.000310727 0)
(-0.00471827 0.000307046 0)
(-0.00482631 0.000303344 0)
(-0.00493271 0.000299666 0)
(-0.00503747 0.000296072 0)
(-0.00514063 0.000292641 0)
(-0.00524224 0.000289473 0)
(-0.0053424 0.000286703 0)
(-0.00544126 0.000284506 0)
(-0.00553903 0.000283116 0)
(-0.00563597 0.000282846 0)
(-0.00573247 0.000284118 0)
(-0.00582904 0.000287513 0)
(-0.00592636 0.000293843 0)
(-0.00602533 0.000304259 0)
(-0.00612713 0.000320437 0)
(-0.00623328 0.000344872 0)
(-0.00634572 0.000381419 0)
(-0.00646645 0.00043635 0)
(-0.00659676 0.00052007 0)
(-0.00673718 0.000649349 0)
(-0.00687921 0.00085482 0)
(-0.00695788 0.00119344 0)
(-0.00700055 0.00160565 0)
(-1.8177e-05 0.000211262 0)
(-0.000105162 0.000401451 0)
(-0.000237979 0.000475763 0)
(-0.000371627 0.000499955 0)
(-0.000511007 0.000506242 0)
(-0.000650434 0.000507329 0)
(-0.000789761 0.000507097 0)
(-0.000928956 0.00050651 0)
(-0.00106792 0.000505765 0)
(-0.00120661 0.000504895 0)
(-0.00134497 0.000503902 0)
(-0.00148295 0.000502783 0)
(-0.00162052 0.000501533 0)
(-0.00175762 0.00050015 0)
(-0.00189422 0.000498628 0)
(-0.00203026 0.000496964 0)
(-0.0021657 0.000495154 0)
(-0.00230049 0.000493192 0)
(-0.00243458 0.000491075 0)
(-0.00256793 0.000488798 0)
(-0.00270048 0.000486355 0)
(-0.00283218 0.000483743 0)
(-0.00296297 0.000480956 0)
(-0.00309281 0.00047799 0)
(-0.00322164 0.000474841 0)
(-0.00334941 0.000471504 0)
(-0.00347605 0.000467976 0)
(-0.00360151 0.000464254 0)
(-0.00372574 0.000460337 0)
(-0.00384867 0.000456223 0)
(-0.00397025 0.000451914 0)
(-0.00409042 0.000447413 0)
(-0.00420912 0.000442726 0)
(-0.00432631 0.000437861 0)
(-0.00444192 0.000432834 0)
(-0.00455592 0.000427662 0)
(-0.00466825 0.000422371 0)
(-0.00477887 0.000416996 0)
(-0.00488777 0.000411582 0)
(-0.00499492 0.000406189 0)
(-0.00510031 0.000400894 0)
(-0.00520396 0.000395797 0)
(-0.0053059 0.000391029 0)
(-0.00540618 0.00038676 0)
(-0.0055049 0.000383212 0)
(-0.00560219 0.000380678 0)
(-0.00569823 0.000379543 0)
(-0.00579327 0.000380324 0)
(-0.00588762 0.00038372 0)
(-0.00598165 0.000390684 0)
(-0.00607584 0.00040254 0)
(-0.0061707 0.000421147 0)
(-0.00626671 0.000449157 0)
(-0.00636419 0.000490414 0)
(-0.00646273 0.000550581 0)
(-0.00656038 0.000637862 0)
(-0.00665224 0.000763804 0)
(-0.00672377 0.000945313 0)
(-0.00673815 0.00119947 0)
(-0.00668228 0.00149527 0)
(-1.80447e-05 0.000272039 0)
(-0.000105368 0.000513872 0)
(-0.000238921 0.000607713 0)
(-0.000373177 0.000638007 0)
(-0.000513211 0.000645848 0)
(-0.000653245 0.000647184 0)
(-0.000793164 0.000646858 0)
(-0.000932943 0.000646069 0)
(-0.00107249 0.000645065 0)
(-0.00121175 0.000643889 0)
(-0.00135069 0.000642544 0)
(-0.00148925 0.000641028 0)
(-0.00162739 0.000639337 0)
(-0.00176507 0.000637466 0)
(-0.00190224 0.000635411 0)
(-0.00203886 0.000633167 0)
(-0.00217487 0.000630728 0)
(-0.00231023 0.00062809 0)
(-0.00244489 0.000625247 0)
(-0.0025788 0.000622194 0)
(-0.0027119 0.000618924 0)
(-0.00284416 0.000615431 0)
(-0.00297551 0.000611711 0)
(-0.0031059 0.000607757 0)
(-0.00323527 0.000603564 0)
(-0.00336358 0.000599127 0)
(-0.00349075 0.000594442 0)
(-0.00361674 0.000589505 0)
(-0.00374148 0.000584314 0)
(-0.00386492 0.000578868 0)
(-0.00398699 0.000573169 0)
(-0.00410763 0.000567219 0)
(-0.0042268 0.000561026 0)
(-0.00434441 0.0005546 0)
(-0.00446043 0.000547958 0)
(-0.0045748 0.000541122 0)
(-0.00468745 0.000534121 0)
(-0.00479835 0.000526997 0)
(-0.00490745 0.000519803 0)
(-0.00501472 0.000512607 0)
(-0.00512012 0.0005055 0)
(-0.00522364 0.000498597 0)
(-0.00532528 0.000492048 0)
(-0.00542505 0.000486046 0)
(-0.00552297 0.000480841 0)
(-0.0056191 0.000476756 0)
(-0.0057135 0.000474215 0)
(-0.00580626 0.000473771 0)
(-0.00589747 0.000476154 0)
(-0.00598724 0.000482335 0)
(-0.0060756 0.000493607 0)
(-0.00616248 0.000511707 0)
(-0.00624757 0.000538971 0)
(-0.00633003 0.00057854 0)
(-0.00640802 0.000634594 0)
(-0.00647795 0.00071248 0)
(-0.00653317 0.00081866 0)
(-0.00656052 0.00096025 0)
(-0.00653811 0.0011393 0)
(-0.00644799 0.00133823 0)
(-1.79418e-05 0.000332719 0)
(-0.000105353 0.000626486 0)
(-0.000239204 0.000739919 0)
(-0.000373733 0.000776326 0)
(-0.00051408 0.000785707 0)
(-0.000654406 0.000787276 0)
(-0.000794608 0.000786848 0)
(-0.000934667 0.000785854 0)
(-0.00107449 0.000784592 0)
(-0.00121404 0.00078311 0)
(-0.00135326 0.000781415 0)
(-0.0014921 0.000779505 0)
(-0.00163053 0.000777374 0)
(-0.0017685 0.000775018 0)
(-0.00190597 0.000772432 0)
(-0.00204288 0.00076961 0)
(-0.0021792 0.000766547 0)
(-0.00231486 0.000763235 0)
(-0.00244984 0.00075967 0)
(-0.00258406 0.000755843 0)
(-0.00271749 0.000751748 0)
(-0.00285007 0.000747378 0)
(-0.00298175 0.000742727 0)
(-0.00311248 0.000737787 0)
(-0.00324219 0.000732553 0)
(-0.00337083 0.000727017 0)
(-0.00349835 0.000721175 0)
(-0.00362468 0.000715022 0)
(-0.00374976 0.000708555 0)
(-0.00387354 0.000701773 0)
(-0.00399594 0.000694675 0)
(-0.00411692 0.000687266 0)
(-0.0042364 0.000679553 0)
(-0.00435431 0.000671547 0)
(-0.00447061 0.000663264 0)
(-0.00458522 0.000654729 0)
(-0.00469808 0.000645975 0)
(-0.00480914 0.000637045 0)
(-0.00491832 0.000627997 0)
(-0.00502559 0.000618905 0)
(-0.00513089 0.000609866 0)
(-0.00523416 0.000601003 0)
(-0.00533537 0.000592474 0)
(-0.00543448 0.000584483 0)
(-0.00553144 0.000577289 0)
(-0.00562623 0.000571222 0)
(-0.00571879 0.000566708 0)
(-0.00580907 0.000564292 0)
(-0.00589697 0.000564674 0)
(-0.00598232 0.000568758 0)
(-0.00606483 0.000577701 0)
(-0.00614399 0.000592988 0)
(-0.00621893 0.0006165 0)
(-0.00628817 0.000650581 0)
(-0.00634924 0.000698037 0)
(-0.00639814 0.000761977 0)
(-0.00642858 0.000845388 0)
(-0.00643051 0.000950051 0)
(-0.00639031 0.00107292 0)
(-0.0062953 0.00120193 0)
(-1.78762e-05 0.000393352 0)
(-0.000105338 0.000739265 0)
(-0.000239396 0.000872364 0)
(-0.000374146 0.000914921 0)
(-0.000514751 0.000925844 0)
(-0.000655327 0.000927643 0)
(-0.000795777 0.000927108 0)
(-0.000936084 0.000925909 0)
(-0.00107616 0.000924388 0)
(-0.00121595 0.000922604 0)
(-0.00135542 0.000920562 0)
(-0.00149453 0.00091826 0)
(-0.00163322 0.000915694 0)
(-0.00177146 0.000912858 0)
(-0.00190919 0.000909746 0)
(-0.00204638 0.000906352 0)
(-0.00218298 0.000902668 0)
(-0.00231894 0.000898689 0)
(-0.00245421 0.000894406 0)
(-0.00258874 0.000889812 0)
(-0.00272248 0.000884898 0)
(-0.00285538 0.000879657 0)
(-0.00298739 0.00087408 0)
(-0.00311844 0.00086816 0)
(-0.00324849 0.000861888 0)
(-0.00337748 0.000855257 0)
(-0.00350534 0.000848261 0)
(-0.00363203 0.000840894 0)
(-0.00375747 0.000833151 0)
(-0.0038816 0.000825029 0)
(-0.00400436 0.000816529 0)
(-0.00412568 0.000807652 0)
(-0.0042455 0.000798405 0)
(-0.00436374 0.000788799 0)
(-0.00448034 0.00077885 0)
(-0.00459522 0.000768581 0)
(-0.00470832 0.000758027 0)
(-0.00481956 0.000747231 0)
(-0.00492886 0.000736251 0)
(-0.00503615 0.000725163 0)
(-0.00514136 0.000714063 0)
(-0.00524441 0.000703077 0)
(-0.00534521 0.000692361 0)
(-0.00544367 0.000682115 0)
(-0.0055397 0.00067259 0)
(-0.00563317 0.000664106 0)
(-0.00572395 0.00065706 0)
(-0.00581185 0.000651953 0)
(-0.0058966 0.000649412 0)
(-0.00597784 0.000650216 0)
(-0.00605505 0.000655325 0)
(-0.00612743 0.000665906 0)
(-0.0061938 0.000683344 0)
(-0.00625244 0.00070922 0)
(-0.00630076 0.000745206 0)
(-0.00633503 0.000792812 0)
(-0.00635004 0.000852903 0)
(-0.00633861 0.000924766 0)
(-0.00629235 0.00100416 0)
(-0.0062037 0.0010818 0)
(-1.78293e-05 0.000453957 0)
(-0.000105349 0.000852176 0)
(-0.000239615 0.00100502 0)
(-0.000374605 0.00105377 0)
(-0.000515483 0.00106624 0)
(-0.00065633 0.00106827 0)
(-0.000797053 0.00106763 0)
(-0.000937633 0.00106623 0)
(-0.00107798 0.00106445 0)
(-0.00121806 0.00106236 0)
(-0.00135781 0.00105998 0)
(-0.0014972 0.00105729 0)
(-0.00163618 0.0010543 0)
(-0.00177472 0.00105098 0)
(-0.00191276 0.00104735 0)
(-0.00205026 0.00104339 0)
(-0.00218718 0.0010391 0)
(-0.00232346 0.00103446 0)
(-0.00245907 0.00102946 0)
(-0.00259394 0.00102411 0)
(-0.00272803 0.00101838 0)
(-0.00286129 0.00101228 0)
(-0.00299367 0.00100579 0)
(-0.0031251 0.000998892 0)
(-0.00325554 0.00099159 0)
(-0.00338492 0.000983871 0)
(-0.00351319 0.000975726 0)
(-0.00364028 0.000967148 0)
(-0.00376613 0.000958131 0)
(-0.00389067 0.000948671 0)
(-0.00401384 0.000938764 0)
(-0.00413557 0.000928413 0)
(-0.00425579 0.000917621 0)
(-0.00437442 0.000906397 0)
(-0.00449139 0.000894756 0)
(-0.00460661 0.000882721 0)
(-0.00472001 0.000870321 0)
(-0.00483149 0.000857599 0)
(-0.00494098 0.00084461 0)
(-0.00504837 0.000831426 0)
(-0.00515357 0.000818139 0)
(-0.00525647 0.000804868 0)
(-0.00535694 0.00079176 0)
(-0.00545486 0.000779001 0)
(-0.00555007 0.000766823 0)
(-0.00564239 0.000755512 0)
(-0.00573158 0.000745424 0)
(-0.00581736 0.000736991 0)
(-0.00589935 0.000730738 0)
(-0.00597706 0.000727297 0)
(-0.0060498 0.000727408 0)
(-0.00611664 0.000731923 0)
(-0.0061763 0.000741775 0)
(-0.00622701 0.000757917 0)
(-0.00626639 0.000781182 0)
(-0.00629125 0.000812033 0)
(-0.00629753 0.000850166 0)
(-0.00628029 0.000893865 0)
(-0.00623439 0.000939029 0)
(-0.00615572 0.000978632 0)
(-1.77897e-05 0.000514552 0)
(-0.000105383 0.00096523 0)
(-0.000239882 0.00113791 0)
(-0.000375143 0.00119289 0)
(-0.000516324 0.00120692 0)
(-0.000657478 0.00120919 0)
(-0.000798509 0.00120844 0)
(-0.0009394 0.00120683 0)
(-0.00108007 0.0012048 0)
(-0.00122046 0.00120242 0)
(-0.00136053 0.0011997 0)
(-0.00150025 0.00119663 0)
(-0.00163957 0.00119321 0)
(-0.00177844 0.00118943 0)
(-0.00191683 0.00118529 0)
(-0.00205469 0.00118077 0)
(-0.00219197 0.00117587 0)
(-0.00232863 0.00117057 0)
(-0.00246461 0.00116488 0)
(-0.00259988 0.00115878 0)
(-0.00273437 0.00115225 0)
(-0.00286805 0.00114529 0)
(-0.00300084 0.00113789 0)
(-0.00313271 0.00113003 0)
(-0.00326359 0.00112171 0)
(-0.00339342 0.00111291 0)
(-0.00352215 0.00110362 0)
(-0.0036497 0.00109384 0)
(-0.00377603 0.00108355 0)
(-0.00390105 0.00107276 0)
(-0.00402471 0.00106144 0)
(-0.00414692 0.00104961 0)
(-0.00426761 0.00103726 0)
(-0.0043867 0.00102441 0)
(-0.00450411 0.00101105 0)
(-0.00461975 0.000997218 0)
(-0.00473354 0.00098293 0)
(-0.00484536 0.000968225 0)
(-0.00495513 0.000953154 0)
(-0.00506272 0.00093778 0)
(-0.00516802 0.000922186 0)
(-0.00527089 0.000906479 0)
(-0.00537117 0.00089079 0)
(-0.00546871 0.000875283 0)
(-0.00556329 0.00086016 0)
(-0.00565467 0.000845666 0)
(-0.00574258 0.000832098 0)
(-0.00582664 0.000819809 0)
(-0.0059064 0.000809215 0)
(-0.00598128 0.000800792 0)
(-0.00605053 0.000795074 0)
(-0.00611317 0.000792629 0)
(-0.00616792 0.000794017 0)
(-0.00621315 0.000799715 0)
(-0.00624676 0.000809983 0)
(-0.00626618 0.00082466 0)
(-0.00626836 0.000842875 0)
(-0.00624992 0.000862648 0)
(-0.00620777 0.000880428 0)
(-0.00613978 0.000890987 0)
(-1.77513e-05 0.000575147 0)
(-0.000105433 0.00107845 0)
(-0.000240195 0.00127107 0)
(-0.000375762 0.00133231 0)
(-0.000517282 0.00134793 0)
(-0.000658779 0.00135043 0)
(-0.000800157 0.00134958 0)
(-0.000941399 0.00134777 0)
(-0.00108242 0.00134549 0)
(-0.00122317 0.00134282 0)
(-0.00136361 0.00133976 0)
(-0.00150369 0.00133632 0)
(-0.00164339 0.00133248 0)
(-0.00178265 0.00132824 0)
(-0.00192143 0.00132359 0)
(-0.00205969 0.00131853 0)
(-0.00219738 0.00131303 0)
(-0.00233446 0.00130709 0)
(-0.00247088 0.00130071 0)
(-0.00260658 0.00129387 0)
(-0.00274153 0.00128655 0)
(-0.00287567 0.00127875 0)
(-0.00300894 0.00127045 0)
(-0.00314129 0.00126164 0)
(-0.00327267 0.0012523 0)
(-0.00340302 0.00124243 0)
(-0.00353227 0.00123201 0)
(-0.00366036 0.00122103 0)
(-0.00378722 0.00120948 0)
(-0.00391279 0.00119735 0)
(-0.004037 0.00118464 0)
(-0.00415977 0.00117132 0)
(-0.00428101 0.00115742 0)
(-0.00440065 0.00114291 0)
(-0.00451859 0.00112783 0)
(-0.00463475 0.00111216 0)
(-0.00474902 0.00109595 0)
(-0.00486129 0.00107921 0)
(-0.00497144 0.00106199 0)
(-0.00507936 0.00104434 0)
(-0.00518489 0.00102634 0)
(-0.00528788 0.00100806 0)
(-0.00538815 0.000989623 0)
(-0.00548551 0.000971164 0)
(-0.0055797 0.000952848 0)
(-0.00567046 0.000934872 0)
(-0.00575745 0.00091747 0)
(-0.00584026 0.000900913 0)
(-0.00591838 0.000885506 0)
(-0.00599122 0.000871582 0)
(-0.00605798 0.00085949 0)
(-0.00611771 0.000849562 0)
(-0.00616923 0.000842073 0)
(-0.00621106 0.00083716 0)
(-0.00624146 0.000834717 0)
(-0.00625838 0.000834244 0)
(-0.00625957 0.000834647 0)
(-0.00624277 0.000834018 0)
(-0.00620608 0.000829447 0)
(-0.00614844 0.000817081 0)
(-1.77115e-05 0.000635751 0)
(-0.000105494 0.00119186 0)
(-0.000240551 0.00140452 0)
(-0.000376458 0.00147208 0)
(-0.000518355 0.00148929 0)
(-0.000660233 0.00149203 0)
(-0.000801995 0.00149109 0)
(-0.000943627 0.00148909 0)
(-0.00108504 0.00148656 0)
(-0.00122619 0.0014836 0)
(-0.00136703 0.00148022 0)
(-0.00150753 0.0014764 0)
(-0.00164765 0.00147216 0)
(-0.00178733 0.00146747 0)
(-0.00192655 0.00146232 0)
(-0.00206526 0.00145671 0)
(-0.0022034 0.00145063 0)
(-0.00234095 0.00144406 0)
(-0.00247785 0.001437 0)
(-0.00261404 0.00142943 0)
(-0.0027495 0.00142133 0)
(-0.00288415 0.0014127 0)
(-0.00301795 0.00140351 0)
(-0.00315085 0.00139376 0)
(-0.00328279 0.00138343 0)
(-0.00341371 0.0013725 0)
(-0.00354354 0.00136096 0)
(-0.00367223 0.0013488 0)
(-0.00379971 0.001336 0)
(-0.0039259 0.00132254 0)
(-0.00405074 0.00130842 0)
(-0.00417414 0.00129363 0)
(-0.00429602 0.00127816 0)
(-0.00441629 0.001262 0)
(-0.00453486 0.00124517 0)
(-0.00465163 0.00122766 0)
(-0.00476649 0.00120949 0)
(-0.00487932 0.00119068 0)
(-0.00499 0.00117125 0)
(-0.00509838 0.00115126 0)
(-0.0052043 0.00113075 0)
(-0.0053076 0.00110979 0)
(-0.00540807 0.00108847 0)
(-0.00550548 0.00106689 0)
(-0.00559958 0.00104518 0)
(-0.00569005 0.00102349 0)
(-0.00577654 0.00100199 0)
(-0.0058586 0.00098086 0)
(-0.00593573 0.000960315 0)
(-0.0060073 0.000940557 0)
(-0.00607255 0.000921781 0)
(-0.00613058 0.000904134 0)
(-0.00618033 0.000887677 0)
(-0.00622051 0.000872323 0)
(-0.00624968 0.000857747 0)
(-0.00626626 0.000843286 0)
(-0.00626859 0.000827813 0)
(-0.00625513 0.000809634 0)
(-0.00622471 0.000786426 0)
(-0.00617684 0.000755332 0)
(-1.76688e-05 0.000696367 0)
(-0.000105563 0.00130548 0)
(-0.000240946 0.00153831 0)
(-0.000377229 0.00161223 0)
(-0.000519539 0.00163104 0)
(-0.000661835 0.00163404 0)
(-0.00080402 0.001633 0)
(-0.000946079 0.00163081 0)
(-0.00108793 0.00162804 0)
(-0.00122951 0.0016248 0)
(-0.0013708 0.0016211 0)
(-0.00151175 0.00161693 0)
(-0.00165233 0.00161228 0)
(-0.00179249 0.00160714 0)
(-0.00193218 0.00160151 0)
(-0.00207138 0.00159537 0)
(-0.00221003 0.00158872 0)
(-0.00234809 0.00158153 0)
(-0.00248551 0.0015738 0)
(-0.00262225 0.00156551 0)
(-0.00275826 0.00155665 0)
(-0.00289348 0.0015472 0)
(-0.00302787 0.00153715 0)
(-0.00316138 0.00152647 0)
(-0.00329393 0.00151516 0)
(-0.00342548 0.00150319 0)
(-0.00355597 0.00149054 0)
(-0.00368533 0.0014772 0)
(-0.00381348 0.00146316 0)
(-0.00394037 0.00144839 0)
(-0.00406591 0.00143288 0)
(-0.00419003 0.00141661 0)
(-0.00431263 0.00139958 0)
(-0.00443364 0.00138177 0)
(-0.00455294 0.00136319 0)
(-0.00467043 0.00134381 0)
(-0.004786 0.00132367 0)
(-0.00489952 0.00130275 0)
(-0.00501086 0.00128108 0)
(-0.00511986 0.00125868 0)
(-0.00522636 0.0012356 0)
(-0.00533016 0.00121187 0)
(-0.00543105 0.00118756 0)
(-0.00552879 0.00116274 0)
(-0.0056231 0.00113749 0)
(-0.00571366 0.00111191 0)
(-0.00580008 0.00108612 0)
(-0.00588193 0.00106023 0)
(-0.00595869 0.00103435 0)
(-0.00602975 0.00100858 0)
(-0.0060944 0.000982986 0)
(-0.00615182 0.000957585 0)
(-0.00620104 0.000932285 0)
(-0.006241 0.000906853 0)
(-0.0062705 0.000880846 0)
(-0.00628832 0.000853549 0)
(-0.00629322 0.0008239 0)
(-0.00628416 0.000790448 0)
(-0.00626038 0.00075135 0)
(-0.00622167 0.000704463 0)
(-1.76226e-05 0.000756996 0)
(-0.00010564 0.00141933 0)
(-0.000241377 0.00167246 0)
(-0.000378071 0.00175279 0)
(-0.00052083 0.00177323 0)
(-0.000663582 0.00177648 0)
(-0.000806228 0.00177536 0)
(-0.000948752 0.00177298 0)
(-0.00109107 0.00176998 0)
(-0.00123313 0.00176647 0)
(-0.00137491 0.00176245 0)
(-0.00151635 0.00175792 0)
(-0.00165743 0.00175288 0)
(-0.0017981 0.00174731 0)
(-0.00193832 0.00174121 0)
(-0.00207805 0.00173455 0)
(-0.00221725 0.00172733 0)
(-0.00235587 0.00171954 0)
(-0.00249386 0.00171116 0)
(-0.00263119 0.00170217 0)
(-0.00276781 0.00169256 0)
(-0.00290365 0.00168231 0)
(-0.00303868 0.0016714 0)
(-0.00317284 0.00165982 0)
(-0.00330608 0.00164754 0)
(-0.00343832 0.00163454 0)
(-0.00356953 0.00162081 0)
(-0.00369962 0.00160632 0)
(-0.00382853 0.00159105 0)
(-0.00395619 0.00157498 0)
(-0.00408252 0.00155809 0)
(-0.00420743 0.00154036 0)
(-0.00433086 0.00152178 0)
(-0.00445269 0.00150232 0)
(-0.00457282 0.00148198 0)
(-0.00469115 0.00146074 0)
(-0.00480756 0.00143861 0)
(-0.00492191 0.00141557 0)
(-0.00503407 0.00139162 0)
(-0.00514386 0.00136679 0)
(-0.00525112 0.00134109 0)
(-0.00535564 0.00131453 0)
(-0.0054572 0.00128716 0)
(-0.00555555 0.001259 0)
(-0.0056504 0.00123012 0)
(-0.00574142 0.00120055 0)
(-0.00582822 0.00117036 0)
(-0.00591038 0.00113959 0)
(-0.00598738 0.00110828 0)
(-0.00605866 0.00107644 0)
(-0.00612354 0.00104404 0)
(-0.00618129 0.001011 0)
(-0.00623106 0.000977108 0)
(-0.00627195 0.000942063 0)
(-0.00630299 0.000905364 0)
(-0.00632321 0.000866304 0)
(-0.00633169 0.000823925 0)
(-0.00632768 0.000777001 0)
(-0.00631069 0.000724066 0)
(-0.00628064 0.000663498 0)
(-1.75724e-05 0.000817642 0)
(-0.000105723 0.00153343 0)
(-0.000241844 0.001807 0)
(-0.00037898 0.00189381 0)
(-0.000522226 0.00191589 0)
(-0.000665469 0.00191941 0)
(-0.000808612 0.0019182 0)
(-0.00095164 0.00191564 0)
(-0.00109447 0.00191241 0)
(-0.00123705 0.00190863 0)
(-0.00137934 0.00190431 0)
(-0.00152132 0.00189944 0)
(-0.00166294 0.00189401 0)
(-0.00180416 0.00188802 0)
(-0.00194495 0.00188145 0)
(-0.00208525 0.00187429 0)
(-0.00222504 0.00186652 0)
(-0.00236427 0.00185814 0)
(-0.00250288 0.00184912 0)
(-0.00264085 0.00183945 0)
(-0.00277812 0.00182911 0)
(-0.00291464 0.00181807 0)
(-0.00305037 0.00180633 0)
(-0.00318524 0.00179386 0)
(-0.00331921 0.00178064 0)
(-0.00345221 0.00176663 0)
(-0.00358419 0.00175183 0)
(-0.00371509 0.00173621 0)
(-0.00384482 0.00171973 0)
(-0.00397333 0.00170238 0)
(-0.00410053 0.00168414 0)
(-0.00422634 0.00166496 0)
(-0.00435067 0.00164484 0)
(-0.00447343 0.00162375 0)
(-0.00459451 0.00160167 0)
(-0.0047138 0.00157857 0)
(-0.00483118 0.00155445 0)
(-0.00494651 0.00152928 0)
(-0.00505964 0.00150306 0)
(-0.0051704 0.00147577 0)
(-0.00527862 0.00144742 0)
(-0.00538409 0.00141801 0)
(-0.00548658 0.00138753 0)
(-0.00558583 0.001356 0)
(-0.00568155 0.00132343 0)
(-0.00577342 0.00128982 0)
(-0.00586104 0.00125518 0)
(-0.00594401 0.0012195 0)
(-0.00602184 0.00118276 0)
(-0.00609399 0.00114489 0)
(-0.00615985 0.00110579 0)
(-0.00621875 0.0010653 0)
(-0.00626997 0.00102316 0)
(-0.00631274 0.000979009 0)
(-0.00634626 0.000932338 0)
(-0.00636976 0.000882477 0)
(-0.00638253 0.000828577 0)
(-0.00638402 0.000769609 0)
(-0.00637388 0.000704401 0)
(-0.00635208 0.000631701 0)
(-1.7518e-05 0.000878303 0)
(-0.000105811 0.0016478 0)
(-0.000242343 0.00194196 0)
(-0.000379954 0.00203531 0)
(-0.000523722 0.00205905 0)
(-0.000667492 0.00206284 0)
(-0.000811169 0.00206156 0)
(-0.000954736 0.00205882 0)
(-0.00109811 0.00205537 0)
(-0.00124124 0.00205133 0)
(-0.0013841 0.00204671 0)
(-0.00152665 0.00204151 0)
(-0.00166885 0.00203571 0)
(-0.00181066 0.00202931 0)
(-0.00195205 0.00202229 0)
(-0.00209298 0.00201464 0)
(-0.0022334 0.00200634 0)
(-0.00237327 0.00199738 0)
(-0.00251256 0.00198774 0)
(-0.00265121 0.0019774 0)
(-0.00278918 0.00196634 0)
(-0.00292643 0.00195455 0)
(-0.0030629 0.001942 0)
(-0.00319854 0.00192866 0)
(-0.0033333 0.00191451 0)
(-0.00346713 0.00189953 0)
(-0.00359995 0.00188368 0)
(-0.00373172 0.00186695 0)
(-0.00386235 0.00184929 0)
(-0.00399178 0.00183069 0)
(-0.00411994 0.00181111 0)
(-0.00424673 0.00179051 0)
(-0.00437207 0.00176888 0)
(-0.00449586 0.00174618 0)
(-0.004618 0.00172237 0)
(-0.00473837 0.00169743 0)
(-0.00485685 0.00167133 0)
(-0.0049733 0.00164405 0)
(-0.00508757 0.00161555 0)
(-0.0051995 0.00158582 0)
(-0.00530888 0.00155482 0)
(-0.00541553 0.00152254 0)
(-0.00551921 0.00148895 0)
(-0.00561965 0.00145404 0)
(-0.00571658 0.00141778 0)
(-0.00580967 0.00138013 0)
(-0.00589854 0.00134105 0)
(-0.00598281 0.0013005 0)
(-0.006062 0.00125838 0)
(-0.00613563 0.00121459 0)
(-0.00620313 0.00116896 0)
(-0.00626391 0.00112129 0)
(-0.00631735 0.00107128 0)
(-0.00636277 0.00101854 0)
(-0.00639952 0.00096257 0)
(-0.00642697 0.000902755 0)
(-0.00644456 0.000838346 0)
(-0.00645186 0.000768478 0)
(-0.0064486 0.000692203 0)
(-0.00643476 0.000608539 0)
(-1.74588e-05 0.00093898 0)
(-0.000105901 0.00176246 0)
(-0.000242872 0.00207739 0)
(-0.00038099 0.00217732 0)
(-0.000525314 0.00220275 0)
(-0.000669647 0.00220683 0)
(-0.000813892 0.00220547 0)
(-0.000958033 0.00220257 0)
(-0.00110199 0.0021989 0)
(-0.00124571 0.00219461 0)
(-0.00138917 0.0021897 0)
(-0.00153232 0.00218418 0)
(-0.00167514 0.00217802 0)
(-0.00181759 0.00217121 0)
(-0.00195962 0.00216376 0)
(-0.0021012 0.00215563 0)
(-0.0022423 0.00214681 0)
(-0.00238287 0.00213729 0)
(-0.00252286 0.00212705 0)
(-0.00266224 0.00211607 0)
(-0.00280097 0.00210432 0)
(-0.00293899 0.00209179 0)
(-0.00307626 0.00207844 0)
(-0.00321273 0.00206426 0)
(-0.00334834 0.00204922 0)
(-0.00348304 0.00203328 0)
(-0.00361678 0.00201642 0)
(-0.00374948 0.00199861 0)
(-0.00388108 0.0019798 0)
(-0.00401152 0.00195997 0)
(-0.00414071 0.00193909 0)
(-0.00426857 0.0019171 0)
(-0.00439501 0.00189399 0)
(-0.00451994 0.0018697 0)
(-0.00464326 0.0018442 0)
(-0.00476484 0.00181745 0)
(-0.00488456 0.0017894 0)
(-0.00500229 0.00176003 0)
(-0.00511787 0.00172928 0)
(-0.00523113 0.00169712 0)
(-0.0053419 0.0016635 0)
(-0.00544996 0.00162838 0)
(-0.00555508 0.00159171 0)
(-0.00565701 0.00155344 0)
(-0.00575547 0.00151351 0)
(-0.00585014 0.00147187 0)
(-0.00594067 0.00142842 0)
(-0.00602669 0.00138307 0)
(-0.00610775 0.00133569 0)
(-0.0061834 0.00128614 0)
(-0.00625314 0.00123422 0)
(-0.00631644 0.00117967 0)
(-0.00637273 0.00112217 0)
(-0.00642145 0.00106134 0)
(-0.00646204 0.000996697 0)
(-0.00649398 0.000927669 0)
(-0.00651681 0.0008536 0)
(-0.00653016 0.000773759 0)
(-0.00653382 0.000687366 0)
(-0.00652773 0.000593638 0)
(-1.73948e-05 0.000999672 0)
(-0.000105994 0.00187742 0)
(-0.000243429 0.00221329 0)
(-0.000382084 0.00231989 0)
(-0.000526998 0.00234702 0)
(-0.000671928 0.00235139 0)
(-0.000816775 0.00234997 0)
(-0.000961526 0.00234691 0)
(-0.0011061 0.00234303 0)
(-0.00125044 0.0023385 0)
(-0.00139453 0.00233332 0)
(-0.00153833 0.00232747 0)
(-0.00168181 0.00232097 0)
(-0.00182492 0.00231378 0)
(-0.00196764 0.0023059 0)
(-0.00210992 0.0022973 0)
(-0.00225173 0.00228799 0)
(-0.00239303 0.00227793 0)
(-0.00253378 0.00226711 0)
(-0.00267394 0.0022555 0)
(-0.00281346 0.00224308 0)
(-0.0029523 0.00222983 0)
(-0.00309042 0.00221573 0)
(-0.00322777 0.00220073 0)
(-0.00336429 0.00218482 0)
(-0.00349993 0.00216796 0)
(-0.00363463 0.00215012 0)
(-0.00376834 0.00213125 0)
(-0.00390098 0.00211133 0)
(-0.0040325 0.00209032 0)
(-0.00416281 0.00206816 0)
(-0.00429183 0.00204483 0)
(-0.00441947 0.00202027 0)
(-0.00454565 0.00199443 0)
(-0.00467025 0.00196728 0)
(-0.00479317 0.00193875 0)
(-0.00491427 0.00190881 0)
(-0.00503343 0.00187738 0)
(-0.00515049 0.00184443 0)
(-0.00526528 0.00180988 0)
(-0.00537763 0.00177368 0)
(-0.00548732 0.00173577 0)
(-0.00559415 0.00169606 0)
(-0.00569785 0.0016545 0)
(-0.00579816 0.00161098 0)
(-0.00589477 0.00156541 0)