/*--------------------------------*- C++ -*----------------------------------*\
  =========                 |
  \\      /  F ield         | OpenFOAM: The Open Source CFD Toolbox
   \\    /   O peration     | Website:  https://openfoam.org
    \\  /    A nd           | Version:  8
     \\/     M anipulation  |
\*---------------------------------------------------------------------------*/
FoamFile
{
    version     2.0;
    format      ascii;
    class       volVectorField;
    location    "7";
    object      U;
}
// * * * * * * * * * * * * * * * * * * * * * * * * * * * * * * * * * * * * * //

dimensions      [0 1 -1 0 0 0 0];

internalField   nonuniform List<vector> 
2844
(
(1.0007 -0.00349276 -1.27271e-05)
(1.01496 -0.00431921 4.15377e-05)
(1.03955 -0.012374 -1.87565e-05)
(1.0711 -0.00874295 -5.76802e-05)
(1.09041 -0.00664805 -3.28095e-05)
(1.1079 -0.00360546 2.77061e-05)
(1.10904 -0.00630871 4.25305e-05)
(1.10994 -0.00466657 3.2424e-05)
(1.08934 -0.0159161 1.53567e-05)
(1.07384 -0.0185084 -1.90692e-06)
(1.04653 -0.0193432 -1.20269e-05)
(1.03133 -0.0164324 -1.1314e-05)
(1.01273 -0.017477 -4.25947e-06)
(0.99495 -0.0163115 -3.26193e-07)
(0.978678 -0.0219983 -6.17696e-06)
(0.94623 -0.0313036 -1.96844e-06)
(0.92832 -0.0384617 -2.51691e-06)
(0.889515 -0.0340885 -9.19455e-07)
(0.880822 -0.0319128 3.73464e-07)
(0.854127 -0.0301021 8.53281e-07)
(1.00189 -0.0142993 -4.61229e-05)
(1.01561 -0.0202032 0.000161764)
(1.04407 -0.0399963 -3.50254e-05)
(1.08351 -0.0305861 -0.000224009)
(1.10242 -0.0196227 -0.000156816)
(1.12083 -0.00557455 5.56115e-05)
(1.12633 0.002837 0.000165123)
(1.12323 0.0190294 0.00010123)
(1.09885 0.0446417 5.11043e-05)
(1.09219 0.0521784 6.29542e-05)
(1.06167 0.0538976 7.41668e-05)
(1.04492 0.045483 4.90707e-07)
(1.03131 0.0466578 -6.97788e-05)
(1.01612 0.0441788 -3.80647e-05)
(0.993312 0.0595777 2.80697e-05)
(0.958771 0.071381 5.49566e-05)
(0.952447 0.0841289 3.93378e-05)
(0.917527 0.0736288 1.71626e-05)
(0.902812 0.0606818 1.22288e-05)
(0.868158 0.0516866 8.04568e-06)
(1.00331 -0.0213425 -0.000193919)
(1.01944 -0.0305776 0.000581328)
(1.05702 -0.0733858 0.000115971)
(1.11838 -0.0539388 -0.000943922)
(1.15002 -0.0368629 -0.000918747)
(1.15301 -0.0135974 -1.03019e-05)
(1.14639 -0.0134946 0.000753624)
(1.16058 0.0215702 0.000814282)
(1.1331 0.0078759 0.000453571)
(1.09312 0.00893025 -0.00011741)
(1.07204 0.0160633 -0.00048661)
(1.06358 0.00823166 -0.000298218)
(1.03569 0.00218051 6.31004e-05)
(1.00194 0.0115259 9.68172e-05)
(0.991115 0.0218057 -7.95385e-05)
(0.960074 -0.00158155 -0.000123101)
(0.92354 -0.00663716 -7.94248e-05)
(0.87566 0.00423643 -1.42356e-05)
(0.863919 0.00630415 -1.24792e-05)
(0.851976 -0.00200917 -1.48078e-05)
(1.00763 -0.0416155 -0.000736822)
(1.01958 -0.0529269 0.00185799)
(1.07343 -0.140313 0.000788096)
(1.16297 -0.087745 -0.00127)
(1.20744 -0.0301239 -0.00258038)
(1.19983 0.00220327 -0.00145023)
(1.21448 -0.020083 0.00186846)
(1.2165 0.0303666 0.00224105)
(1.15207 0.0967342 0.000475459)
(1.15466 0.0996682 -5.83786e-05)
(1.14594 0.0850667 0.000328358)
(1.12037 0.0822242 -0.000661251)
(1.09315 0.098651 -0.0015277)
(1.08962 0.0842378 -0.00063187)
(1.06628 0.0914062 0.000383136)
(1.01099 0.127465 0.000214432)
(1.01039 0.153111 -0.000230974)
(0.985602 0.125497 -0.000316562)
(0.967326 0.0811623 -0.00010436)
(0.916593 0.0605752 2.53441e-05)
(1.00544 -0.0409781 -0.0020323)
(1.03161 -0.0833335 0.00352812)
(1.12832 -0.202223 0.00596876)
(1.25337 -0.14936 -0.00252542)
(1.31266 -0.0493547 -0.00599798)
(1.28356 0.00580613 -0.00614789)
(1.29536 -0.0605193 -0.0032011)
(1.27707 0.0855667 0.00348141)
(1.21589 0.0342198 0.00876627)
(1.21148 0.0107999 0.00363008)
(1.20334 0.0401005 -0.0039454)
(1.15201 0.053309 -0.0030509)
(1.12522 0.0203649 0.000629514)
(1.06163 0.028034 0.000207311)
(1.03378 0.0826203 -0.00107535)
(0.999919 0.0403899 -0.000343967)
(0.973529 0.0156522 0.000793783)
(0.939025 0.0390476 0.000884611)
(0.886105 0.0636854 0.000253278)
(0.879388 0.0408277 -4.57257e-05)
(1.00018 -0.0684435 -0.00359557)
(1.07578 -0.172269 -0.000436741)
(1.16082 -0.399076 0.016398)
(1.2882 -0.153541 0.0259582)
(1.46584 0.0247455 -0.00149899)
(1.47719 0.0589695 -0.0134614)
(1.48796 -0.0311994 -0.00538958)
(1.41067 0.0996742 -0.000438036)
(1.34882 0.0948971 0.00577605)
(1.39584 0.093537 0.0143484)
(1.3639 0.154239 0.0108668)
(1.32732 0.16682 -0.00513366)
(1.27741 0.174715 -0.0120338)
(1.13614 0.168627 -0.0056659)
(1.07496 0.139622 -0.00153928)
(1.0231 0.173304 -0.00201955)
(0.93721 0.194356 -0.00220111)
(0.922341 0.191192 -6.25176e-05)
(0.877746 0.127616 0.00311886)
(0.871584 0.0624115 0.0020625)
(1.00626 -0.0661692 -0.00107009)
(1.14766 -0.200327 -0.0259451)
(1.25907 -0.528696 0.0214138)
(1.53113 -0.631687 0.0372776)
(1.72412 -0.367235 0.0325088)
(1.66062 0.138533 0.00270207)
(1.67228 -0.000327865 -0.0010297)
(1.66275 0.204084 0.000890418)
(1.52755 -0.0801541 0.000380168)
(1.54724 -0.0378748 0.00328662)
(1.55548 0.0174556 0.00735416)
(1.59787 0.136044 0.00474507)
(1.51577 0.197448 -0.00324768)
(1.4624 0.213697 -0.00500952)
(1.36812 0.198916 -0.000941463)
(1.17489 0.176334 0.00334135)
(1.18348 0.114034 0.00675072)
(1.10316 0.0874142 0.00865921)
(1.1239 0.100922 -0.00161258)
(1.06996 0.0438711 -0.00670513)
(0.981303 -0.176013 -0.0273476)
(1.42856 -0.281045 -0.00242051)
(1.52804 -1.06231 0.0435626)
(1.83291 -1.41666 -0.0290876)
(1.74021 -0.19357 -0.0355847)
(1.23065 0.00670538 -0.00882452)
(0.986522 -0.00774497 -0.00600976)
(1.46649 0.307093 -0.0165073)
(1.05944 0.132114 -0.00176546)
(1.21876 0.10139 0.00403061)
(1.09954 0.0900492 0.00146936)
(1.21334 0.180806 0.00203881)
(1.29499 0.2584 0.00324468)
(1.30282 0.272181 0.00172325)
(1.42708 0.336663 0.000507978)
(1.40214 0.273715 -0.00407746)
(1.49296 0.2099 -0.00465997)
(1.43101 0.213632 -0.00146387)
(1.51696 0.164279 -0.00290362)
(1.52802 0.121643 -0.00262315)
(1.20204 -0.175079 0.0106741)
(1.68311 -0.459708 0.0662309)
(1.17849 -1.80386 0.020955)
(0.25049 -0.479205 0.00147517)
(0.303069 0.306671 -0.00956264)
(-0.228551 -0.114142 0.0332432)
(0.328289 -0.0962276 0.01041)
(0.364359 -0.103709 -0.00716828)
(0.399928 0.0444842 -0.00655319)
(0.596926 0.13198 -0.00460781)
(0.672252 0.109849 -0.00418759)
(0.887058 0.174545 -0.00570398)
(1.01369 0.141433 -0.00735419)
(1.10422 0.121347 -0.0031992)
(1.21471 0.0722174 -0.000182553)
(1.26955 0.0421175 0.00431238)
(1.31842 0.0556608 0.00475729)
(0.727587 -0.191448 0.00250725)
(-0.165967 -0.793662 0.0312663)
(-0.24777 -0.516499 -0.23051)
(-0.682672 -0.480562 0.00379847)
(-0.0346597 0.230871 0.0114207)
(0.139915 0.0106973 0.00550114)
(-0.165223 -0.265337 -0.00638317)
(-0.269018 0.0653467 -0.00205365)
(-0.255596 0.0887447 -0.000620532)
(-0.0355325 0.061265 -0.00138823)
(0.00348366 0.0741851 -0.00108662)
(0.239456 0.114852 -0.00102294)
(0.406698 0.082462 0.0011356)
(0.518934 0.0801921 0.00365159)
(0.68496 0.0705278 0.00426749)
(0.675807 0.0703581 0.00449804)
(0.828551 0.0676891 0.00227492)
(1.32597 0.146684 0.0245597)
(0.195857 -0.366613 -0.00435444)
(0.250095 -0.0182454 0.00132489)
(-0.0116193 -0.238777 0.0215702)
(0.153742 0.0188097 0.0294243)
(-0.169152 0.276367 6.26203e-05)
(-0.227568 -0.0501869 0.00259922)
(-0.228075 -0.108751 0.00163684)
(-0.00760804 -0.0822928 0.00110158)
(0.0268276 -0.0924419 0.0013012)
(0.257626 -0.130036 0.000607074)
(0.419581 -0.0922555 0.00257388)
(0.527845 -0.0864635 0.0049555)
(0.690439 -0.07422 0.00532579)
(0.679495 -0.0730645 0.00522625)
(0.830159 -0.0691084 0.00256722)
(1.59641 0.203756 0.0278662)
(0.196826 0.485547 0.041569)
(0.461226 0.856344 -0.0741183)
(-0.314394 0.217432 0.00857536)
(0.436683 -0.313347 -0.0575983)
(0.160698 -0.0443095 0.00335665)
(0.467957 0.0373183 0.034045)
(0.522841 0.0569548 0.00353651)
(0.55892 -0.0748313 0.00628009)
(0.718507 -0.168558 0.00682571)
(0.765406 -0.142416 0.00503655)
(0.950271 -0.196298 0.000522889)
(1.05953 -0.157635 -0.0037042)
(1.13721 -0.13375 -0.000515512)
(1.23543 -0.0815609 0.00187464)
(1.28402 -0.0483144 0.00613872)
(1.3245 -0.0581806 0.00578316)
(1.08967 0.204609 0.01851)
(1.09454 0.359774 0.047152)
(0.723666 1.3305 -0.0130598)
(0.250707 -0.153522 -0.0215062)
(1.21513 -0.100592 -0.0145796)
(1.46667 -0.347741 0.0188384)
(1.14864 -0.153267 -0.0202818)
(1.39429 -0.172952 -0.0219843)
(1.36322 -0.192329 -0.0215913)
(1.45546 -0.27492 -0.00646606)
(1.48897 -0.327906 0.00123818)
(1.4378 -0.320549 0.00487421)
(1.50087 -0.365965 0.0050755)
(1.4426 -0.292916 -0.00189646)
(1.51821 -0.221834 -0.00413543)
(1.44659 -0.221936 -0.00157435)
(1.52805 -0.172284 -0.00297642)
(1.5337 -0.125973 -0.00249512)
(1.01102 0.0741349 0.00897655)
(1.14801 0.338021 -0.0115029)
(1.37913 0.477538 0.0526243)
(1.64246 0.331267 0.0187931)
(1.96445 0.0103344 -0.020556)
(1.61314 0.164443 0.0204983)
(1.62781 0.0725784 0.00257957)
(1.59916 -0.286604 -0.00667575)
(1.51102 -0.0258292 -0.00608312)
(1.56111 -0.0213621 -0.00016388)
(1.55492 -0.0467194 0.0069835)
(1.55757 -0.135417 0.00587019)
(1.45 -0.17933 -0.0041007)
(1.39906 -0.191684 -0.00590329)
(1.30259 -0.178605 -0.00102744)
(1.1226 -0.161616 0.00179797)
(1.14801 -0.105182 0.00484137)
(1.08017 -0.0829572 0.00690941)
(1.10975 -0.0992082 -0.00336782)
(1.06323 -0.0437202 -0.00752717)
(0.993563 0.0961973 -0.0015301)
(1.06861 0.084129 0.00887435)
(1.2066 0.290052 -0.00954984)
(1.4008 0.243835 -0.0233267)
(1.55162 0.167572 0.020653)
(1.47329 0.0279956 0.0376173)
(1.45098 0.00885393 0.0067674)
(1.3797 -0.117669 -0.0187746)
(1.34345 -0.120656 -0.0133617)
(1.41017 -0.139573 0.00457131)
(1.3956 -0.198197 0.00807712)
(1.36684 -0.194639 -0.00213426)
(1.32354 -0.186147 -0.00657407)
(1.17943 -0.17354 -0.000349528)
(1.1108 -0.144292 0.00280697)
(1.05375 -0.178465 0.00135713)
(0.958233 -0.199218 0.000488694)
(0.934184 -0.194995 0.00180536)
(0.88337 -0.130801 0.00418085)
(0.873753 -0.0641646 0.00242242)
(1.00807 0.051583 0.000489375)
(1.03093 0.0821932 -0.00532049)
(1.14356 0.231 -0.0066482)
(1.27922 0.212049 0.0114702)
(1.3316 0.0708459 0.0209183)
(1.278 0.0169957 0.00605514)
(1.27378 0.0716237 -0.00952355)
(1.26614 -0.0676764 -0.00619138)
(1.2224 -0.0211037 0.000885034)
(1.22897 -0.00237415 -0.00134033)
(1.21768 -0.0376095 -0.00601461)
(1.15911 -0.0587541 -0.00315016)
(1.12708 -0.030252 0.00122492)
(1.06173 -0.0371147 0.000586857)
(1.03236 -0.0896585 -0.00104293)
(0.997774 -0.0453659 -0.000612044)
(0.972392 -0.0186539 0.000454089)
(0.939127 -0.0405771 0.000628215)
(0.887286 -0.0647649 0.000107569)
(0.880482 -0.0415393 -7.77605e-05)
(1.00576 0.040881 0.000277016)
(1.01667 0.0450018 -0.0029217)
(1.08425 0.133411 0.00118643)
(1.17732 0.0865263 0.0060056)
(1.2152 0.0312659 0.00318302)
(1.19866 -0.0080679 -0.000665167)
(1.21562 0.0176566 -0.00127659)
(1.23171 -0.0252078 -0.000621347)
(1.17701 -0.0909841 -0.00102866)
(1.18163 -0.102891 -0.000328199)
(1.17211 -0.0937958 0.000631683)
(1.14246 -0.0918418 -0.000414365)
(1.10903 -0.107109 -0.00151203)
(1.10082 -0.0903626 -0.000673953)
(1.07462 -0.0951592 0.00036256)
(1.01686 -0.130591 0.000228285)
(1.01451 -0.156235 -0.000220262)
(0.988611 -0.128068 -0.000306015)
(0.969966 -0.0833293 -9.78785e-05)
(0.918701 -0.0617835 2.67656e-05)
(1.0032 0.0211741 1.53572e-05)
(1.02033 0.0389881 -0.000528368)
(1.06384 0.0797236 0.000657164)
(1.12301 0.0597606 0.0010705)
(1.1499 0.0425374 0.000268851)
(1.15004 0.0240891 -1.09604e-05)
(1.14325 0.0285768 -1.56889e-05)
(1.1633 -0.00560959 0.000159903)
(1.14414 0.00528684 8.17642e-05)
(1.10792 -0.000612303 -0.000273742)
(1.08553 -0.0133083 -0.000504667)
(1.07452 -0.00916394 -0.000231397)
(1.04408 -0.0045979 0.000167074)
(1.008 -0.0144623 0.000179773)
(0.995878 -0.0246764 -2.36467e-05)
(0.964235 -0.000558848 -9.42725e-05)
(0.926995 0.0053183 -6.6216e-05)
(0.878333 -0.00507425 -7.94106e-06)
(0.866133 -0.00699441 -9.79503e-06)
(0.853665 0.00162655 -1.36551e-05)
(1.00144 0.0134148 -1.65749e-06)
(1.01511 0.0213946 -4.26938e-05)
(1.04604 0.0387122 7.72655e-05)
(1.08554 0.0239975 7.7333e-05)
(1.10289 0.0121328 2.57179e-05)
(1.12095 -0.00206701 5.86103e-05)
(1.12965 -0.00743702 5.43869e-05)
(1.13228 -0.0204341 2.11405e-05)
(1.11262 -0.0454477 1.14333e-05)
(1.10886 -0.0550753 5.90366e-05)
(1.07854 -0.0585857 8.40377e-05)
(1.05953 -0.0506336 1.79551e-07)
(1.04337 -0.0511759 -8.19202e-05)
(1.02573 -0.047598 -5.0304e-05)
(1.00076 -0.0620145 1.85223e-05)
(0.964388 -0.0733702 4.88577e-05)
(0.956932 -0.0859204 3.57979e-05)
(0.921144 -0.0750736 1.56872e-05)
(0.905882 -0.0618989 1.17975e-05)
(0.870519 -0.0523689 7.91709e-06)
(1.00056 0.00352399 -4.10062e-06)
(1.0149 0.00552421 8.29685e-07)
(1.04171 0.0137514 3.80146e-06)
(1.07371 0.012773 1.24024e-05)
(1.09081 0.012946 8.89143e-06)
(1.10751 0.0118679 2.75984e-05)
(1.11021 0.0154259 1.68566e-05)
(1.11522 0.0128747 8.93993e-06)
(1.09929 0.0226757 2.44666e-06)
(1.08665 0.0238938 -6.00135e-06)
(1.05988 0.02325 -1.12456e-05)
(1.0434 0.0188975 -8.65215e-06)
(1.02292 0.0187804 -1.33862e-06)
(1.00316 0.016828 2.07433e-06)
(0.98534 0.0221353 -4.84102e-06)
(0.951614 0.0313989 -1.52418e-06)
(0.93269 0.0386696 -2.50194e-06)
(0.892973 0.0343123 -9.18375e-07)
(0.883723 0.0321221 3.72185e-07)
(0.856357 0.0302211 8.72775e-07)
(1.00071 -0.00350159 -9.33988e-06)
(1.01495 -0.00427859 2.81968e-05)
(1.03952 -0.0123896 -5.11423e-06)
(1.07111 -0.00879671 -4.90031e-05)
(1.09044 -0.00667579 -3.7355e-05)
(1.10791 -0.00359743 -6.09218e-06)
(1.10903 -0.00628646 1.55432e-05)
(1.10993 -0.00465466 1.66474e-05)
(1.08933 -0.0158954 9.94307e-06)
(1.07384 -0.0184697 3.2654e-06)
(1.04653 -0.0193022 -1.20024e-06)
(1.03134 -0.0164238 -2.73909e-06)
(1.01273 -0.0174986 -2.48289e-06)
(0.99495 -0.0163257 -2.25108e-06)
(0.978681 -0.0219884 -1.74012e-06)
(0.946236 -0.0312841 -8.02087e-07)
(0.928324 -0.0384457 -2.8401e-07)
(0.889518 -0.0340809 -1.54928e-07)
(0.880823 -0.0319084 -6.6028e-08)
(0.854127 -0.0300998 -2.21715e-08)
(1.00195 -0.0143581 -5.07613e-05)
(1.01551 -0.0199161 0.000153929)
(1.04397 -0.0400822 -3.5864e-05)
(1.08369 -0.0310914 -0.00020765)
(1.10258 -0.0198883 -0.000154948)
(1.12078 -0.00540445 -3.70999e-05)
(1.12618 0.00321149 6.29354e-05)
(1.12314 0.0193147 4.61114e-05)
(1.09885 0.044754 1.46948e-05)
(1.0922 0.0521226 -6.16161e-06)
(1.06164 0.0537425 -1.03696e-05)
(1.0449 0.045368 -3.42656e-06)
(1.03132 0.0466453 8.45415e-06)
(1.01615 0.0442024 1.35574e-05)
(0.993321 0.0595612 1.52439e-05)
(0.958756 0.0713475 1.26638e-05)
(0.952428 0.0840914 7.47822e-06)
(0.917516 0.0736078 3.03628e-06)
(0.902808 0.0606721 9.27878e-07)
(0.868155 0.0516834 2.28608e-07)
(1.00364 -0.0217027 -0.00023496)
(1.01898 -0.0289518 0.000754769)
(1.05624 -0.0738518 -0.000114088)
(1.11941 -0.0562641 -0.0013005)
(1.15128 -0.038077 -0.00100088)
(1.15273 -0.0129855 -0.00024606)
(1.14508 -0.0119901 0.000350101)
(1.15963 0.0223994 0.000408624)
(1.13299 0.00827553 0.000294856)
(1.0938 0.00956184 0.000144565)
(1.07272 0.0168423 1.22157e-05)
(1.0638 0.00823924 -5.61887e-05)
(1.03559 0.00148897 -8.14615e-05)
(1.00187 0.0111731 -8.55464e-05)
(0.991104 0.0221714 -8.08119e-05)
(0.960116 -0.00101142 -5.10647e-05)
(0.923577 -0.00626826 -2.48503e-05)
(0.875675 0.00439061 -1.04766e-05)
(0.863926 0.0064073 -3.58226e-06)
(0.85198 -0.00194239 -1.0143e-06)
(1.00874 -0.0432584 -0.00120318)
(1.0188 -0.0466471 0.00373347)
(1.07079 -0.14049 0.000630211)
(1.16555 -0.0980208 -0.00458032)
(1.21292 -0.0377243 -0.0039507)
(1.19941 0.00424646 -0.0014379)
(1.20793 -0.0120271 0.00127147)
(1.21222 0.0368326 0.00146348)
(1.15115 0.0998734 0.000701393)
(1.15538 0.0981255 -0.000119905)
(1.14806 0.0807416 -0.000466163)
(1.12236 0.0798561 -0.000366422)
(1.09323 0.0993711 -1.27442e-05)
(1.08876 0.0851239 0.00019405)
(1.0666 0.0906538 0.000205281)
(1.01208 0.126234 0.000107234)
(1.0115 0.152369 2.44612e-05)
(0.986442 0.125335 -1.05651e-05)
(0.968051 0.0810273 -1.36167e-05)
(0.916985 0.0604232 -5.0452e-06)
(1.00755 -0.0480676 -0.00342327)
(1.03009 -0.0626708 0.00629852)
(1.12947 -0.198292 0.0126133)
(1.25873 -0.168881 -0.00790925)
(1.32288 -0.0691485 -0.0185332)
(1.29164 0.00242743 -0.00958133)
(1.27854 -0.0391582 0.00182271)
(1.25097 0.102552 0.00380004)
(1.21185 0.0347503 0.00500548)
(1.23227 0.00835451 0.00469125)
(1.21974 0.0431272 0.0027963)
(1.1574 0.0495461 0.000650365)
(1.13421 0.00809063 -0.000779085)
(1.07111 0.0215599 -0.00099129)
(1.03479 0.0846833 -0.000581856)
(0.996039 0.0421482 -3.62108e-05)
(0.970597 0.0140856 0.000257444)
(0.93819 0.0366885 0.000269984)
(0.884607 0.0633287 0.000174323)
(0.878016 0.0414723 4.80369e-05)
(1.00724 -0.088656 -0.00448601)
(1.05246 -0.136268 -0.000655743)
(1.18184 -0.354184 0.0315271)
(1.34948 -0.189661 0.0430213)
(1.50417 -0.0328926 -0.00257627)
(1.47601 0.0284728 -0.0349628)
(1.48323 -0.0263411 -0.0116325)
(1.39197 0.123658 0.0113318)
(1.29707 0.141662 0.0147093)
(1.35753 0.11137 0.00834692)
(1.39895 0.126419 0.00404652)
(1.39696 0.140125 0.000681645)
(1.29492 0.177019 -0.0023271)
(1.12064 0.178494 -0.003987)
(1.06911 0.140804 -0.00419248)
(1.01764 0.172398 -0.00368381)
(0.91755 0.198389 -0.00299362)
(0.890533 0.197512 -0.00204283)
(0.856439 0.129876 -0.00113104)
(0.868734 0.0615926 -0.000374366)
(1.01874 -0.0907904 -0.00193579)
(1.02276 -0.196561 -0.029328)
(1.3461 -0.447798 0.0603257)
(1.56501 -0.404364 0.0509699)
(1.71278 -0.180824 0.0692513)
(1.65625 0.0584007 -0.00292293)
(1.62269 -0.0124779 -0.00760673)
(1.61572 0.243644 -0.00180858)
(1.52753 -0.0287608 -0.00130214)
(1.55723 0.0143981 0.00261137)
(1.56066 0.0380763 0.00332697)
(1.61233 0.107037 0.00388329)
(1.53849 0.141976 0.00683403)
(1.4674 0.166945 0.00760866)
(1.37255 0.172283 0.00631706)
(1.17684 0.167632 0.00598482)
(1.20883 0.113323 0.00445955)
(1.17708 0.0857369 0.00284396)
(1.25916 0.106417 0.00222425)
(1.16103 0.050274 0.00101431)
(1.10067 -0.107379 -0.021116)
(0.905228 -0.541682 0.0124415)
(1.64552 -0.98746 0.125812)
(1.79379 -0.868462 -0.0262353)
(1.78626 -0.0589784 -0.0738446)
(1.33195 0.0406698 0.008273)
(1.09249 0.0447012 0.0071682)
(1.4855 0.326351 -0.0245369)
(1.10062 0.155741 0.0374902)
(1.32636 0.151185 0.0327656)
(1.22295 0.140058 0.0153095)
(1.30881 0.209823 -0.00310889)
(1.36562 0.269596 -0.00512709)
(1.34584 0.278226 -0.00576291)
(1.4578 0.347211 -0.00417212)
(1.41704 0.292404 -0.000680192)
(1.48026 0.221678 0.000280301)
(1.42246 0.215348 0.000231437)
(1.52227 0.141871 -0.000162816)
(1.52841 0.0977511 -0.000295884)
(1.67057 -0.156986 0.0900476)
(0.703364 -0.939947 0.0187327)
(1.62998 -1.62897 0.0365548)
(0.208077 -0.514816 -0.0130635)
(0.169784 0.237917 0.0449358)
(-0.309314 -0.169473 -0.00226124)
(0.402503 -0.0768476 -0.0328921)
(0.420835 -0.0929019 -0.010777)
(0.436073 0.0542213 -0.0132891)
(0.616758 0.142052 -0.0118489)
(0.676528 0.118891 -0.00951276)
(0.879382 0.185024 -0.00647883)
(0.977133 0.1368 -0.00419725)
(1.04541 0.0990795 -0.00328383)
(1.16165 0.0424172 -0.00247266)
(1.21196 0.0115821 -0.00200648)
(1.28688 0.040789 -0.00103242)
(0.749988 0.225148 -0.0149696)
(1.92166 -0.667853 -0.10551)
(0.274125 -0.452303 -0.43801)
(-0.663622 -0.502273 0.0431362)
(-0.0689952 0.196551 -0.0175131)
(0.154407 0.0223357 -0.0243593)
(-0.178838 -0.257513 -0.00553682)
(-0.274835 0.0709948 -0.00556524)
(-0.256667 0.0884602 -0.00247971)
(-0.0445227 0.0611868 -0.00292747)
(-0.00854007 0.0738805 -0.00274723)
(0.224091 0.111606 -0.00206623)
(0.384778 0.0770738 -0.00179317)
(0.497707 0.0764552 -0.00143521)
(0.667861 0.0691056 -0.00107147)
(0.662987 0.0704876 -0.000677007)
(0.825072 0.0682886 -0.000250445)
(0.656466 0.0328924 0.0289851)
(-0.186735 -0.870768 0.124734)
(0.227264 -0.13134 -0.0158413)
(-0.09052 -0.216315 0.0203274)
(0.18928 0.00413493 0.024773)
(-0.18832 0.266563 0.00441532)
(-0.262869 -0.0662434 0.00476648)
(-0.253577 -0.100035 0.0016024)
(-0.0350069 -0.0749533 0.00183106)
(-0.000519007 -0.0871219 0.00202302)
(0.230597 -0.121946 0.00142098)
(0.388996 -0.0829034 0.00134775)
(0.500577 -0.0800473 0.00122118)
(0.669808 -0.0712848 0.000996229)
(0.664648 -0.0724312 0.000692105)
(0.826047 -0.0694466 0.000289015)
(1.16675 0.047314 0.0405023)
(0.147335 0.0914711 0.0898802)
(0.760156 1.06769 -0.144167)
(-0.301699 0.213138 0.0122784)
(0.132641 -0.194873 -0.025508)
(-0.322254 0.192877 0.0331695)
(0.403652 0.0955918 0.0391481)
(0.419639 0.0883298 0.0119027)
(0.448308 -0.0643769 0.0113171)
(0.627799 -0.157709 0.0088973)
(0.690943 -0.131476 0.0067091)
(0.890447 -0.192917 0.00441503)
(0.985418 -0.140811 0.00276063)
(1.05076 -0.101227 0.00238622)
(1.1648 -0.0438097 0.00196325)
(1.21452 -0.012746 0.00175516)
(1.28807 -0.0414824 0.000977414)
(1.02735 0.102562 0.00379986)
(1.11689 0.45953 0.0370488)
(1.08857 0.370119 0.0366739)
(0.183133 -0.116862 -0.109898)
(1.06664 0.000153199 0.00877316)
(1.47029 -0.309611 0.00540691)
(1.12452 -0.150652 -0.012636)
(1.33196 -0.154548 0.0128667)
(1.21438 -0.148622 0.0103273)
(1.29567 -0.22561 0.0128866)
(1.3509 -0.284858 0.00717282)
(1.33411 -0.292215 0.00447153)
(1.44636 -0.355805 0.00258327)
(1.40845 -0.295519 -0.000105808)
(1.47459 -0.222225 -0.000757877)
(1.41904 -0.215408 -0.000533978)
(1.52006 -0.142082 -9.50314e-05)
(1.5271 -0.0978612 0.000149737)
(1.06839 0.109557 -0.0195941)
(1.02701 0.248801 0.0103936)
(1.3552 0.539402 0.0470011)
(1.71738 0.47259 0.0385661)
(1.9551 -0.0747971 -0.112748)
(1.64676 -0.0827358 -0.023147)
(1.70099 0.0555394 -0.0250702)
(1.67202 -0.174053 -0.0131404)
(1.53562 0.035844 -0.0113763)
(1.55783 -0.0499837 -0.00260097)
(1.56187 -0.0930493 -0.00118764)
(1.61352 -0.160144 -0.00250874)
(1.53142 -0.186472 -0.00538217)
(1.45034 -0.199264 -0.00564307)
(1.34988 -0.191723 -0.00436577)
(1.15945 -0.178382 -0.0044116)
(1.19709 -0.119707 -0.00347935)
(1.16973 -0.0898296 -0.00238701)
(1.25315 -0.109081 -0.00204199)
(1.15716 -0.0515167 -0.000996736)
(1.00489 0.104291 -0.00134496)
(1.05925 0.130981 0.00462186)
(1.21703 0.302946 -0.00383779)
(1.38565 0.126805 -0.0219902)
(1.50288 0.0171148 0.0316062)
(1.49509 -0.000329385 0.0308741)
(1.54762 0.0764924 0.00699105)
(1.4705 -0.0717234 -0.0133815)
(1.37016 -0.109413 -0.0191501)
(1.41459 -0.123271 -0.0152578)
(1.43708 -0.159864 -0.0102178)
(1.41499 -0.171111 -0.00460687)
(1.30666 -0.191823 0.000156509)
(1.1288 -0.182024 0.00269271)
(1.07611 -0.142512 0.00319023)
(1.02508 -0.174978 0.0030258)
(0.922803 -0.201563 0.00266549)
(0.893913 -0.200327 0.00189165)
(0.858374 -0.132565 0.00110366)
(0.869985 -0.0632695 0.000391967)
(1.00403 0.0515815 0.00390612)
(1.0458 0.107761 -0.00760737)
(1.14926 0.209646 -0.00986041)
(1.24479 0.158282 0.0111549)
(1.31854 0.0489592 0.0199801)
(1.30698 0.0195148 0.0170596)
(1.30119 0.0796322 0.00358079)
(1.26785 -0.0604954 -0.00069207)
(1.2328 -0.0105833 -0.00582391)
(1.25532 0.000720866 -0.00604606)
(1.23359 -0.0437729 -0.00378966)
(1.16081 -0.0566531 -0.0015533)
(1.13359 -0.0178484 -0.000240178)
(1.07191 -0.030435 0.00022722)
(1.03644 -0.0918574 0.000207297)
(0.997362 -0.0473217 -7.18386e-05)
(0.971907 -0.0171854 -0.000272064)
(0.93953 -0.038257 -0.000272621)
(0.886171 -0.0644331 -0.000181367)
(0.879162 -0.0421991 -5.15321e-05)
(1.00478 0.0407454 0.00146775)
(1.02025 0.049694 -0.00312893)
(1.08254 0.127086 -0.00143002)
(1.17073 0.0770275 0.00438674)
(1.21681 0.0281987 0.00554506)
(1.20097 -0.00944399 0.00284579)
(1.21475 0.0175999 -0.000531661)
(1.23088 -0.0256787 -0.00149074)
(1.17783 -0.0906718 -0.000911501)
(1.18251 -0.100167 -9.38796e-05)
(1.17376 -0.0895095 0.000346574)
(1.1442 -0.0902183 0.000369779)
(1.10902 -0.108781 0.000117983)
(1.09985 -0.0919682 -8.03591e-05)
(1.07468 -0.0948473 -0.000130686)
(1.01768 -0.129578 -7.79168e-05)
(1.01544 -0.155591 -2.30953e-05)
(0.989379 -0.127953 8.22098e-06)
(0.970681 -0.0832072 1.30234e-05)
(0.919096 -0.0616361 5.10076e-06)
(1.00317 0.0211194 0.000366793)
(1.02036 0.0394249 -0.0008451)
(1.0636 0.0790303 -0.000294767)
(1.12318 0.0590236 0.00129386)
(1.15038 0.0420477 0.00136656)
(1.14959 0.0234945 0.000755989)
(1.14234 0.0281425 -9.7805e-05)
(1.16279 -0.00567172 -0.000363717)
(1.14431 0.00522629 -0.000395516)
(1.1087 -0.00123824 -0.000264269)
(1.08618 -0.0141902 -0.000109037)
(1.07461 -0.00916346 -1.20005e-05)
(1.04385 -0.00377505 3.37088e-05)
(1.00781 -0.0139904 5.38793e-05)
(0.995808 -0.0249568 5.99916e-05)
(0.964246 -0.00107733 3.97889e-05)
(0.927015 0.00497839 1.85828e-05)
(0.878338 -0.00521745 6.77879e-06)
(0.866133 -0.00709537 1.74851e-06)
(0.853667 0.00155979 5.40455e-07)
(1.00144 0.0134051 6.68747e-05)
(1.01506 0.0214521 -0.000134932)
(1.04606 0.0386114 -4.07828e-05)
(1.08566 0.023878 0.000195656)
(1.10293 0.0120399 0.000217192)
(1.12085 -0.00223136 9.56089e-05)
(1.12951 -0.00757382 -4.12041e-05)
(1.13223 -0.0205112 -4.59774e-05)
(1.11265 -0.0454449 -8.91463e-06)
(1.10888 -0.054985 1.44359e-05)
(1.07852 -0.0584411 1.52937e-05)
(1.05951 -0.0505493 8.01024e-06)
(1.04339 -0.0512005 -3.10052e-06)
(1.02577 -0.0476497 -9.03098e-06)
(1.00078 -0.0620145 -1.14347e-05)
(0.964377 -0.0733419 -9.67817e-06)
(0.956915 -0.0858836 -5.76538e-06)
(0.921133 -0.0750526 -2.21957e-06)
(0.905878 -0.0618891 -5.86089e-07)
(0.870516 -0.0523658 -1.4268e-07)
(1.00056 0.0035215 1.4222e-05)
(1.0149 0.00553501 -3.12539e-05)
(1.04172 0.0137398 -1.13411e-05)
(1.07373 0.0127566 5.22037e-05)
(1.09081 0.012931 5.56218e-05)
(1.10751 0.0118583 2.53142e-05)
(1.1102 0.0154262 -7.23684e-06)
(1.11521 0.0128754 -1.6431e-05)
(1.09929 0.0226603 -1.35417e-05)
(1.08666 0.0238554 -7.30816e-06)
(1.05988 0.0232091 -2.02643e-06)
(1.04341 0.0188933 7.49917e-07)
(1.02292 0.0188094 1.30663e-06)
(1.00316 0.0168484 1.53877e-06)
(0.985343 0.0221294 1.3116e-06)
(0.95162 0.0313814 5.96138e-07)
(0.932694 0.0386545 1.53069e-07)
(0.892975 0.0343049 4.92852e-08)
(0.883724 0.0321179 7.19436e-09)
(0.856356 0.0302189 2.73695e-09)
(1.00071 -0.00350608 3.37284e-06)
(1.01496 -0.00427859 -1.33012e-05)
(1.03953 -0.0123839 1.36631e-05)
(1.07109 -0.00879284 8.64394e-06)
(1.09042 -0.0066828 -4.54285e-06)
(1.10791 -0.00361429 -3.37372e-05)
(1.10905 -0.00629767 -2.6923e-05)
(1.10993 -0.0046634 -1.57447e-05)
(1.08933 -0.0159178 -5.40052e-06)
(1.07383 -0.01851 5.17778e-06)
(1.04653 -0.0193425 1.08294e-05)
(1.03133 -0.0164288 8.57767e-06)
(1.01273 -0.0174706 1.77895e-06)
(0.994951 -0.0163048 -1.92362e-06)
(0.978679 -0.0219923 4.43803e-06)
(0.946231 -0.0312993 1.16751e-06)
(0.92832 -0.0384593 2.23375e-06)
(0.889515 -0.0340876 7.64788e-07)
(0.880822 -0.0319125 -4.39449e-07)
(0.854127 -0.030102 -8.75426e-07)
(1.00193 -0.0143797 -5.17127e-06)
(1.01559 -0.0199514 -6.40694e-06)
(1.04397 -0.0400391 -5.99422e-08)
(1.08354 -0.0310173 1.49203e-05)
(1.10251 -0.019939 1.18278e-06)
(1.12087 -0.00562022 -9.13411e-05)
(1.12631 0.00298379 -0.000100336)
(1.1232 0.0191789 -5.41842e-05)
(1.09883 0.0447346 -3.60244e-05)
(1.09218 0.0522102 -6.89061e-05)
(1.06167 0.0538845 -8.44368e-05)
(1.04493 0.0454529 -3.83744e-06)
(1.03131 0.0466277 7.83264e-05)
(1.01612 0.0441518 5.16473e-05)
(0.993307 0.059555 -1.29066e-05)
(0.958766 0.0713703 -4.23855e-05)
(0.952444 0.0841246 -3.19206e-05)
(0.917526 0.0736268 -1.41539e-05)
(0.902811 0.0606811 -1.13104e-05)
(0.868158 0.0516864 -7.8191e-06)
(1.0035 -0.0218553 -4.96932e-05)
(1.01931 -0.0289244 0.000197829)
(1.05661 -0.0737383 -0.000212958)
(1.11878 -0.05605 -0.000382639)
(1.15063 -0.0382674 -0.000104972)
(1.15327 -0.0138521 -0.00022834)
(1.14615 -0.0128568 -0.000377125)
(1.16023 0.0220033 -0.000389391)
(1.13288 0.00797889 -0.000151575)
(1.0931 0.00884164 0.000265618)
(1.07214 0.0159555 0.000501526)
(1.06372 0.00820063 0.00024416)
(1.03582 0.00227414 -0.00014329)
(1.00206 0.0116643 -0.00018165)
(0.99119 0.0219543 -3.5703e-07)
(0.960119 -0.00146298 7.31876e-05)
(0.923566 -0.00657111 5.54521e-05)
(0.875674 0.00426135 4.17857e-06)
(0.863926 0.00631056 9.04187e-06)
(0.851977 -0.00200818 1.38266e-05)
(1.00874 -0.0439568 -0.000528509)
(1.01772 -0.0452535 0.00207463)
(1.07321 -0.141874 6.62731e-05)
(1.16875 -0.100674 -0.00340676)
(1.21071 -0.0393353 -0.00159769)
(1.19975 0.000454338 -4.1535e-05)
(1.21188 -0.0160374 -0.000446055)
(1.21443 0.0341307 -0.000638418)
(1.15102 0.099417 0.000271413)
(1.15464 0.100765 -4.03036e-05)
(1.14658 0.0850681 -0.000777727)
(1.12085 0.0816644 0.000295131)
(1.09323 0.0979228 0.00152479)
(1.08959 0.0834782 0.000834395)
(1.06644 0.0907073 -0.000178305)
(1.01124 0.12705 -0.000112284)
(1.01059 0.152916 0.000250979)
(0.985707 0.125421 0.00030356)
(0.967361 0.0811468 8.97175e-05)
(0.916602 0.060572 -3.06761e-05)
(1.00974 -0.0520056 -0.00163643)
(1.0197 -0.0460941 0.00356036)
(1.13035 -0.201785 0.00790806)
(1.28632 -0.19784 -0.00414946)
(1.33448 -0.0810052 -0.0128115)
(1.28074 -0.00302124 -0.00384308)
(1.27826 -0.0466188 0.00546217)
(1.26403 0.0989014 0.000874147)
(1.20586 0.0389539 -0.00345758)
(1.20518 0.00823926 0.000978682)
(1.20129 0.0354106 0.00668026)
(1.15449 0.0505829 0.00391546)
(1.12878 0.020854 -0.00127855)
(1.0626 0.0298655 -0.00129459)
(1.03171 0.0841894 0.000360309)
(0.996786 0.041316 0.000231903)
(0.971116 0.0159552 -0.000572698)
(0.93775 0.0390404 -0.000632717)
(0.885663 0.063616 -8.54013e-05)
(0.879296 0.0407912 9.24806e-05)
(1.01596 -0.0970975 -0.00180947)
(1.02943 -0.103085 -6.26859e-05)
(1.18007 -0.318945 0.0157555)
(1.38837 -0.243382 0.0277676)
(1.5855 -0.122818 0.0020434)
(1.49053 4.19814e-05 -0.0209939)
(1.43868 -0.000464542 -0.00519495)
(1.34543 0.132258 0.0145166)
(1.29678 0.140183 0.0115176)
(1.36155 0.130978 -0.00443506)
(1.35031 0.172584 -0.00724005)
(1.33283 0.168231 0.00451961)
(1.29835 0.168526 0.0101307)
(1.16495 0.1632 0.00347008)
(1.10273 0.136896 -0.00117478)
(1.04694 0.172873 -0.000831636)
(0.953196 0.195075 -0.000411385)
(0.930535 0.192111 -0.00180907)
(0.881091 0.128299 -0.00416378)
(0.872386 0.0625984 -0.00241193)
(1.02938 -0.093944 -0.0027889)
(0.9805 -0.173114 -0.012446)
(1.40453 -0.359274 0.0190814)
(1.69299 -0.379823 0.0687909)
(1.73923 -0.154974 0.05906)
(1.71028 -0.0565611 0.00982884)
(1.60489 -0.0239905 -0.0140143)
(1.60262 0.329705 -0.0120831)
(1.54632 0.0333546 -0.0035871)
(1.61122 0.00662395 -0.00139935)
(1.60428 0.016556 -0.00954082)
(1.59101 0.108629 -0.0107552)
(1.46578 0.160377 0.000135813)
(1.40734 0.178941 0.00482352)
(1.31138 0.170223 0.00201683)
(1.13094 0.155504 -0.000251946)
(1.1565 0.100225 -0.0038041)
(1.08677 0.0792098 -0.00656535)
(1.11548 0.0965034 0.00341189)
(1.06698 0.0423647 0.00751104)
(1.0648 -0.108524 0.0045578)
(0.859894 -0.62387 -0.0138593)