0 	0 	0 	0
1.57135 	-0.0011486 	0.00110955 	0
3.1427 	-0.00252029 	0.002172 	0
4.71405 	-0.00420606 	0.00297201 	0
6.28539 	-0.00645261 	0.00350754 	0
7.85674 	-0.00964076 	0.00429553 	0
9.42809 	-0.0140376 	0.00783673 	0
10.9994 	-0.0112358 	0.0228027 	0
12.5708 	0.0172937 	0.00867915 	0
14.1421 	0.5 	0 	0
