/*--------------------------------*- C++ -*----------------------------------*\
  =========                 |
  \\      /  F ield         | OpenFOAM: The Open Source CFD Toolbox
   \\    /   O peration     | Website:  https://openfoam.org
    \\  /    A nd           | Version:  8
     \\/     M anipulation  |
\*---------------------------------------------------------------------------*/
FoamFile
{
    version     2.0;
    format      ascii;
    class       volScalarField;
    location    "0.36";
    object      p;
}
// * * * * * * * * * * * * * * * * * * * * * * * * * * * * * * * * * * * * * //

dimensions      [0 2 -2 0 0 0 0];

internalField   nonuniform List<scalar> 
400
(
1.49486e-11
-1.98295e-06
-3.99346e-06
-5.81976e-06
-7.24297e-06
-8.18013e-06
-8.66322e-06
-8.74847e-06
-8.48941e-06
-7.92969e-06
-7.14527e-06
-6.22154e-06
-5.18944e-06
-4.03317e-06
-2.75323e-06
-1.39475e-06
-3.16264e-08
1.18366e-06
1.8324e-06
1.42925e-06
-1.40509e-06
-2.93804e-06
-4.45244e-06
-5.79374e-06
-6.87999e-06
-7.60387e-06
-7.97161e-06
-8.04946e-06
-7.85569e-06
-7.40479e-06
-6.77587e-06
-6.06064e-06
-5.2832e-06
-4.41712e-06
-3.45656e-06
-2.43834e-06
-1.39467e-06
-4.16445e-07
1.33308e-07
-2.08572e-07
-2.656e-06
-4.02787e-06
-5.16618e-06
-6.11316e-06
-6.87995e-06
-7.39297e-06
-7.65969e-06
-7.70948e-06
-7.52982e-06
-7.13196e-06
-6.60106e-06
-6.0272e-06
-5.42493e-06
-4.75362e-06
-3.99255e-06
-3.16131e-06
-2.26517e-06
-1.38074e-06
-9.04091e-07
-1.36218e-06
-3.84893e-06
-5.21446e-06
-6.01606e-06
-6.5703e-06
-7.03393e-06
-7.36763e-06
-7.54849e-06
-7.55971e-06
-7.37073e-06
-6.99986e-06
-6.54075e-06
-6.07969e-06
-5.61466e-06
-5.08144e-06
-4.43914e-06
-3.70114e-06
-2.86608e-06
-2.01112e-06
-1.62659e-06
-2.324e-06
-4.74344e-06
-6.15303e-06
-6.70862e-06
-6.93604e-06
-7.17828e-06
-7.3943e-06
-7.50524e-06
-7.47021e-06
-7.26694e-06
-6.92764e-06
-6.54416e-06
-6.18379e-06
-5.82083e-06
-5.37582e-06
-4.8e-06
-4.10162e-06
-3.28537e-06
-2.42771e-06
-2.08634e-06
-2.98133e-06
-5.17774e-06
-6.65161e-06
-7.09688e-06
-7.14194e-06
-7.25471e-06
-7.38936e-06
-7.43636e-06
-7.36263e-06
-7.1665e-06
-6.88356e-06
-6.58321e-06
-6.30068e-06
-5.98911e-06
-5.5697e-06
-5.01057e-06
-4.32543e-06
-3.50525e-06
-2.61821e-06
-2.25302e-06
-3.23344e-06
-5.23902e-06
-6.82039e-06
-7.27337e-06
-7.25031e-06
-7.28486e-06
-7.348e-06
-7.34097e-06
-7.25278e-06
-7.09026e-06
-6.87278e-06
-6.63834e-06
-6.39748e-06
-6.09792e-06
-5.67028e-06
-5.09841e-06
-4.40527e-06
-3.56455e-06
-2.62534e-06
-2.19644e-06
-3.17879e-06
-5.11591e-06
-6.8317e-06
-7.35089e-06
-7.31202e-06
-7.29249e-06
-7.30191e-06
-7.26732e-06
-7.18979e-06
-7.06716e-06
-6.89518e-06
-6.68926e-06
-6.45348e-06
-6.14558e-06
-5.70822e-06
-5.12787e-06
-4.4222e-06
-3.5493e-06
-2.54165e-06
-2.027e-06
-2.97319e-06
-4.95961e-06
-6.80866e-06
-7.40861e-06
-7.37126e-06
-7.32128e-06
-7.30796e-06
-7.27322e-06
-7.21525e-06
-7.11536e-06
-6.95097e-06
-6.73062e-06
-6.46951e-06
-6.1436e-06
-5.70292e-06
-5.12537e-06
-4.41325e-06
-3.51119e-06
-2.44104e-06
-1.84449e-06
-2.75052e-06
-4.83334e-06
-6.79694e-06
-7.48168e-06
-7.46388e-06
-7.41145e-06
-7.40034e-06
-7.37355e-06
-7.32194e-06
-7.21487e-06
-7.02048e-06
-6.7507e-06
-6.44057e-06
-6.08762e-06
-5.64499e-06
-5.07662e-06
-4.37021e-06
-3.46341e-06
-2.3679e-06
-1.71816e-06
-2.58508e-06
-4.77169e-06
-6.81752e-06
-7.5951e-06
-7.62391e-06
-7.58972e-06
-7.58318e-06
-7.54699e-06
-7.47248e-06
-7.32779e-06
-7.07846e-06
-6.74083e-06
-6.3686e-06
-5.9808e-06
-5.53468e-06
-4.98225e-06
-4.30133e-06
-3.42809e-06
-2.36199e-06
-1.70272e-06
-2.52671e-06
-4.8253e-06
-6.91152e-06
-7.78323e-06
-7.87782e-06
-7.86407e-06
-7.84337e-06
-7.76759e-06
-7.64012e-06
-7.43682e-06
-7.12262e-06
-6.7134e-06
-6.27524e-06
-5.84676e-06
-5.39382e-06
-4.86381e-06
-4.22965e-06
-3.42772e-06
-2.44559e-06
-1.83076e-06
-2.622e-06
-5.02544e-06
-7.10469e-06
-8.04759e-06
-8.20359e-06
-8.19733e-06
-8.14023e-06
-8.00298e-06
-7.80706e-06
-7.53805e-06
-7.15818e-06
-6.67801e-06
-6.17119e-06
-5.69494e-06
-5.22937e-06
-4.72555e-06
-4.15536e-06
-3.45453e-06
-2.60253e-06
-2.09126e-06
-2.88259e-06
-5.33716e-06
-7.36038e-06
-8.32663e-06
-8.52117e-06
-8.51167e-06
-8.41312e-06
-8.2152e-06
-7.95438e-06
-7.62249e-06
-7.17701e-06
-6.62299e-06
-6.04189e-06
-5.51083e-06
-5.02717e-06
-4.55073e-06
-4.05481e-06
-3.47544e-06
-2.78939e-06
-2.43288e-06
-3.2613e-06
-5.66857e-06
-7.5964e-06
-8.54007e-06
-8.7543e-06
-8.74864e-06
-8.62824e-06
-8.39122e-06
-8.07966e-06
-7.68844e-06
-7.17341e-06
-6.53988e-06
-5.88041e-06
-5.2907e-06
-4.78412e-06
-4.33006e-06
-3.90707e-06
-3.45893e-06
-2.96299e-06
-2.79019e-06
-3.67553e-06
-5.91743e-06
-7.72986e-06
-8.64473e-06
-8.89002e-06
-8.91565e-06
-8.80583e-06
-8.55603e-06
-8.20635e-06
-7.75594e-06
-7.16706e-06
-6.45235e-06
-5.71524e-06
-5.06402e-06
-4.52339e-06
-4.07405e-06
-3.70822e-06
-3.38903e-06
-3.09161e-06
-3.10481e-06
-4.04329e-06
-6.02399e-06
-7.71243e-06
-8.63812e-06
-8.96603e-06
-9.06402e-06
-8.99299e-06
-8.74564e-06
-8.36324e-06
-7.85513e-06
-7.1958e-06
-6.40529e-06
-5.59103e-06
-4.8677e-06
-4.27298e-06
-3.80497e-06
-3.47328e-06
-3.26222e-06
-3.14719e-06
-3.3316e-06
-4.29156e-06
-5.9671e-06
-7.5692e-06
-8.57161e-06
-9.0492e-06
-9.25673e-06
-9.23759e-06
-8.99481e-06
-8.58086e-06
-8.01794e-06
-7.28929e-06
-6.41815e-06
-5.51456e-06
-4.70055e-06
-4.02794e-06
-3.51332e-06
-3.183e-06
-3.03342e-06
-3.04877e-06
-3.37469e-06
-4.33976e-06
-5.73345e-06
-7.40126e-06
-8.58966e-06
-9.27944e-06
-9.6202e-06
-9.65142e-06
-9.40473e-06
-8.95089e-06
-8.32003e-06
-7.49797e-06
-6.51353e-06
-5.48734e-06
-4.55108e-06
-3.76201e-06
-3.14531e-06
-2.74469e-06
-2.57456e-06
-2.63402e-06
-3.05813e-06
-4.09673e-06
-5.34875e-06
-7.37012e-06
-8.91615e-06
-9.87804e-06
-1.03658e-05
-1.04377e-05
-1.01647e-05
-9.63418e-06
-8.8845e-06
-7.91187e-06
-6.75635e-06
-5.54429e-06
-4.41384e-06
-3.43511e-06
-2.63303e-06
-2.03965e-06
-1.70491e-06
-1.69729e-06
-2.19051e-06
-3.43724e-06
)
;

boundaryField
{
    movingWall
    {
        type            zeroGradient;
    }
    fixedWalls
    {
        type            zeroGradient;
    }
    left
    {
        type            cyclic;
    }
    right
    {
        type            cyclic;
    }
    frontAndBack
    {
        type            empty;
    }
}


// ************************************************************************* //
