/*--------------------------------*- C++ -*----------------------------------*\
  =========                 |
  \\      /  F ield         | OpenFOAM: The Open Source CFD Toolbox
   \\    /   O peration     | Website:  https://openfoam.org
    \\  /    A nd           | Version:  8
     \\/     M anipulation  |
\*---------------------------------------------------------------------------*/
FoamFile
{
    version     2.0;
    format      ascii;
    class       volScalarField;
    location    "47";
    object      p;
}
// * * * * * * * * * * * * * * * * * * * * * * * * * * * * * * * * * * * * * //

dimensions      [0 2 -2 0 0 0 0];

internalField   nonuniform List<scalar> 
464
(
7.26444e-08
1.54146e-06
6.35783e-06
1.35411e-05
2.35668e-05
3.62844e-05
5.1921e-05
6.95547e-05
9.13385e-05
0.000112127
0.000141126
0.00016045
-1.56597e-06
-1.55712e-07
4.61811e-06
1.1766e-05
2.18267e-05
3.47467e-05
5.08041e-05
6.92037e-05
9.19702e-05
0.000114403
0.00014501
0.000168446
-6.90262e-06
-5.58048e-06
-8.97846e-07
6.0947e-06
1.58999e-05
2.83184e-05
4.34361e-05
6.09167e-05
8.17207e-05
0.00010336
0.000130131
0.000153716
-1.48475e-05
-1.36309e-05
-9.01397e-06
-2.05766e-06
7.98012e-06
2.12896e-05
3.80636e-05
5.80777e-05
8.19922e-05
0.000107658
0.000138473
0.000167627
-2.58382e-05
-2.48107e-05
-2.03739e-05
-1.37423e-05
-4.33055e-06
7.55605e-06
2.2164e-05
3.97131e-05
6.05259e-05
8.41843e-05
0.000111583
0.000140453
-3.98168e-05
-3.90414e-05
-3.47894e-05
-2.83503e-05
-1.84736e-05
-4.56165e-06
1.33718e-05
3.53641e-05
6.16036e-05
9.16356e-05
0.000126025
0.000162944
-5.64152e-05
-5.61355e-05
-5.23154e-05
-4.68581e-05
-3.91084e-05
-2.90629e-05
-1.56585e-05
1.58782e-06
2.30595e-05
4.89774e-05
7.93248e-05
0.000114438
-7.63579e-05
-7.66211e-05
-7.29517e-05
-6.70612e-05
-5.70277e-05
-4.29259e-05
-2.44618e-05
-1.0036e-06
2.78703e-05
6.25404e-05
0.000102935
0.000150775
-9.8626e-05
-0.000101401
-9.86402e-05
-9.96088e-05
-9.48445e-05
-8.84031e-05
-7.70159e-05
-6.07719e-05
-3.89637e-05
-1.0364e-05
2.20492e-05
6.78659e-05
-0.000114516
-0.000114595
-0.000113771
-0.000109744
-0.000103987
-9.28863e-05
-7.74741e-05
-5.50419e-05
-2.57696e-05
1.33301e-05
5.70843e-05
0.000122873
-0.000165517
-0.000175745
-0.000169656
-0.000184057
-0.000176685
-0.000180066
-0.000170255
-0.00015683
-0.000137588
-0.000103554
-7.77727e-05
-1.09907e-05
-0.000144511
-0.000145921
-0.000154574
-0.000154131
-0.000160923
-0.000155996
-0.000151199
-0.000132708
-0.000111932
-6.64962e-05
-3.16962e-05
5.53949e-05
-0.00024485
-0.000272704
-0.000257876
-0.000303343
-0.000286845
-0.000314705
-0.000302042
-0.000297624
-0.00028625
-0.000243678
-0.000238497
-0.000142782
-0.000163997
-0.000167484
-0.000193462
-0.00020013
-0.000230606
-0.000236318
-0.000254878
-0.00024115
-0.000244912
-0.000188435
-0.000186053
-6.35775e-05
-0.000309321
-0.000385523
-0.000351892
-0.000465735
-0.000430523
-0.000504227
-0.000483153
-0.000496288
-0.000494496
-0.000444494
-0.000473539
-0.000353061
-0.000164403
-0.000173705
-0.000226623
-0.000248673
-0.000314666
-0.000342308
-0.000398314
-0.000391237
-0.000437377
-0.000362305
-0.000419068
-0.000253413
-0.000276968
-0.00049882
-0.000439186
-0.000695381
-0.00062819
-0.000770417
-0.000732855
-0.000762996
-0.000769035
-0.000703856
-0.000775724
-0.000630314
-0.000139355
-0.000172572
-0.000254031
-0.000309919
-0.000411409
-0.000491969
-0.000597143
-0.000599342
-0.00069972
-0.000591019
-0.000718675
-0.000502211
0.000154295
-0.00066018
-0.000543108
-0.0010689
-0.000937135
-0.00114893
-0.00108738
-0.00110648
-0.00111496
-0.0010026
-0.00109649
-0.000921572
-0.00108981
2.15655e-05
-0.000142038
-0.000498448
-0.00062645
-0.000783092
-0.000957446
-0.000927174
-0.00106969
-0.000877502
-0.00105321
-0.000755949
0.000199527
0.000217434
0.000238028
0.000251813
0.000265438
0.00027472
0.00028179
0.000284426
0.000210374
0.000229348
0.000252506
0.000267542
0.000282249
0.000292329
0.000299902
0.00030275
0.00018548
0.00021015
0.0002367
0.000258578
0.000278469
0.000293668
0.000304473
0.000309021
0.000202788
0.000230694
0.000260128
0.000284674
0.000306773
0.000324018
0.000336126
0.000341388
0.000173868
0.00020743
0.000240959
0.000273838
0.000301901
0.000326938
0.000343051
0.000351303
0.000202132
0.000241299
0.000279901
0.000318155
0.000350645
0.000380469
0.000399507
0.000409679
0.000153897
0.000201419
0.000243178
0.000297462
0.00033417
0.000381544
0.000403775
0.000422356
0.000199198
0.000255952
0.000306946
0.000370983
0.000416736
0.000474416
0.000502931
0.000527228
0.000108816
0.000183442
0.000228703
0.00032584
0.000369889
0.000467525
0.000497712
0.000545317
0.000177127
0.00026546
0.000327317
0.000440928
0.000503175
0.000622667
0.000667288
0.00073286
1.6824e-05
0.000134911
0.000170874
0.00034346
0.000389111
0.000594828
0.000638901
0.000775076
0.000107755
0.000246495
0.000306651
0.000508659
0.000584714
0.000839131
0.00091671
0.00111735
-0.000149367
1.9371e-05
1.68353e-05
0.000300141
0.000322325
0.000743928
0.000819366
0.00124832
-6.13254e-05
0.000158473
0.000166741
0.000507232
0.0005495
0.001075
0.00121303
0.00187548
-0.000421785
-0.000215981
-0.000320846
7.11214e-05
-5.58943e-05
0.000722375
0.00077
0.00210205
-0.000346681
-5.50917e-05
-0.000224168
0.000280259
3.7241e-06
0.000955321
0.00059901
0.00256984
-0.000794642
-0.000570536
-0.000916212
-0.000506054
-0.00126952
-0.000187692
-0.00185483
0.00123179
-0.000702874
-0.000392412
-0.000782422
-0.000334606
-0.0013214
-0.000307988
-0.00217253
0.00199289
-0.00109308
-0.00095359
-0.00136266
-0.00125583
-0.00260096
-0.00239452
-0.00339386
0.00146282
-0.000988559
-0.00070089
-0.00105317
-0.000881249
-0.00122937
2.77785e-05
0.00325271
0.0134306
0.000257254
0.000257574
0.000258416
0.000259393
0.000260527
0.000261469
0.000262234
0.000262517
0.000258326
0.000258656
0.000259513
0.000260505
0.000261611
0.000262522
0.000263257
0.000263522
0.000254643
0.000255174
0.000256524
0.000258006
0.000259773
0.000261195
0.000262355
0.000262782
0.000257699
0.000258329
0.000259819
0.000261482
0.000263248
0.00026467
0.000265798
0.000266199
0.00024878
0.000250127
0.000253102
0.000256071
0.000259588
0.000262234
0.0002644
0.000265182
0.000254113
0.000255802
0.000259089
0.000262513
0.00026601
0.000268721
0.000270854
0.000271609
0.000235242
0.000239621
0.000247069
0.000253532
0.00026074
0.000265827
0.000269903
0.000271368
0.000242861
0.000248719
0.000256735
0.000263989
0.000271277
0.000276589
0.000280729
0.000282207
)
;

boundaryField
{
    movingWall
    {
        type            zeroGradient;
    }
    fixedWalls
    {
        type            zeroGradient;
    }
    frontAndBack
    {
        type            empty;
    }
}


// ************************************************************************* //
