/*--------------------------------*- C++ -*----------------------------------*\
  =========                 |
  \\      /  F ield         | OpenFOAM: The Open Source CFD Toolbox
   \\    /   O peration     | Website:  https://openfoam.org
    \\  /    A nd           | Version:  8
     \\/     M anipulation  |
\*---------------------------------------------------------------------------*/
FoamFile
{
    version     2.0;
    format      ascii;
    class       surfaceScalarField;
    location    "38.5";
    object      phi;
}
// * * * * * * * * * * * * * * * * * * * * * * * * * * * * * * * * * * * * * //

dimensions      [0 3 -1 0 0 0 0];

internalField   nonuniform List<scalar> 
22960
(
-2.2176e-07
2.21959e-07
-7.75393e-07
5.53633e-07
-1.46692e-06
6.91524e-07
-2.20825e-06
7.41331e-07
-2.96202e-06
7.53767e-07
-3.71728e-06
7.55262e-07
-4.47243e-06
7.55158e-07
-5.22789e-06
7.55457e-07
-5.9842e-06
7.56306e-07
-6.74175e-06
7.57554e-07
-7.50082e-06
7.59072e-07
-8.26161e-06
7.60788e-07
-9.02427e-06
7.62661e-07
-9.78894e-06
7.64667e-07
-1.05557e-05
7.66788e-07
-1.13247e-05
7.69007e-07
-1.2096e-05
7.71312e-07
-1.28697e-05
7.73687e-07
-1.36459e-05
7.76117e-07
-1.44244e-05
7.78587e-07
-1.52055e-05
7.8108e-07
-1.59891e-05
7.83579e-07
-1.67752e-05
7.86065e-07
-1.75637e-05
7.88521e-07
-1.83546e-05
7.90927e-07
-1.91479e-05
7.93261e-07
-1.99434e-05
7.95506e-07
-2.0741e-05
7.97638e-07
-2.15407e-05
7.9964e-07
-2.23421e-05
8.0149e-07
-2.31453e-05
8.0317e-07
-2.395e-05
8.04663e-07
-2.47559e-05
8.05954e-07
-2.5563e-05
8.07033e-07
-2.63709e-05
8.07894e-07
-2.71794e-05
8.08537e-07
-2.79884e-05
8.0897e-07
-2.87976e-05
8.09213e-07
-2.96069e-05
8.09302e-07
-3.04162e-05
8.09289e-07
-3.12254e-05
8.09252e-07
-3.20347e-05
8.09299e-07
-3.28443e-05
8.0958e-07
-3.36546e-05
8.10296e-07
-3.44663e-05
8.11717e-07
-3.52805e-05
8.14198e-07
-3.60987e-05
8.18202e-07
-3.6923e-05
8.24318e-07
-3.77563e-05
8.33272e-07
-3.86022e-05
8.45883e-07
-3.94651e-05
8.62935e-07
-4.035e-05
8.84898e-07
-4.12616e-05
9.11617e-07
-4.22044e-05
9.42766e-07
-4.31913e-05
9.86887e-07
-4.43066e-05
1.11533e-06
-4.58918e-05
1.58516e-06
-4.86734e-05
2.78167e-06
-5.77525e-05
9.07903e-06
2.1238e-05
-7.89905e-05
-5.62577e-07
7.84537e-07
-1.656e-06
1.64705e-06
-2.98015e-06
2.01568e-06
-4.39537e-06
2.15655e-06
-5.84173e-06
2.20013e-06
-7.29765e-06
2.21118e-06
-8.75648e-06
2.21398e-06
-1.02165e-05
2.21552e-06
-1.16776e-05
2.21735e-06
-1.31397e-05
2.21962e-06
-1.46028e-05
2.22227e-06
-1.60673e-05
2.2252e-06
-1.75329e-05
2.22835e-06
-1.9e-05
2.23167e-06
-2.04683e-05
2.23513e-06
-2.1938e-05
2.23868e-06
-2.34089e-05
2.24228e-06
-2.48811e-05
2.2459e-06
-2.63545e-05
2.2495e-06
-2.7829e-05
2.25304e-06
-2.93044e-05
2.25648e-06
-3.07806e-05
2.25977e-06
-3.22574e-05
2.26287e-06
-3.37346e-05
2.26572e-06
-3.52119e-05
2.26829e-06
-3.66892e-05
2.27052e-06
-3.81661e-05
2.27236e-06
-3.96422e-05
2.27376e-06
-4.11172e-05
2.27467e-06
-4.25908e-05
2.27506e-06
-4.40625e-05
2.27488e-06
-4.55319e-05
2.2741e-06
-4.69987e-05
2.27269e-06
-4.84623e-05
2.27064e-06
-4.99224e-05
2.26797e-06
-5.13785e-05
2.26468e-06
-5.28304e-05
2.26085e-06
-5.42777e-05
2.25656e-06
-5.57204e-05
2.25195e-06
-5.71583e-05
2.24723e-06
-5.85917e-05
2.24269e-06
-6.00212e-05
2.23871e-06
-6.14474e-05
2.23583e-06
-6.28719e-05
2.23476e-06
-6.42966e-05
2.23649e-06
-6.57247e-05
2.2423e-06
-6.71605e-05
2.25398e-06
-6.86101e-05
2.27392e-06
-7.00823e-05
2.30546e-06
-7.15897e-05
2.35325e-06
-7.31507e-05
2.42399e-06
-7.47937e-05
2.52783e-06
-7.65634e-05
2.68137e-06
-7.85366e-05
2.91595e-06
-8.08534e-05
3.30366e-06
-8.37666e-05
4.02856e-06
-8.76756e-05
5.49415e-06
-9.33418e-05
8.44788e-06
-0.000100511
1.6248e-05
2.72425e-05
-0.000106515
-7.121e-07
1.49664e-06
-2.05115e-06
2.9861e-06
-3.65881e-06
3.62334e-06
-5.36947e-06
3.8672e-06
-7.1155e-06
3.94617e-06
-8.87256e-06
3.96824e-06
-1.06328e-05
3.97425e-06
-1.23941e-05
3.97679e-06
-1.41558e-05
3.97905e-06
-1.59178e-05
3.98161e-06
-1.768e-05
3.98448e-06
-1.94424e-05
3.98758e-06
-2.12049e-05
3.99084e-06
-2.29674e-05
3.99419e-06
-2.47298e-05
3.99756e-06
-2.64921e-05
4.00091e-06
-2.82539e-05
4.00415e-06
-3.00153e-05
4.00725e-06
-3.17759e-05
4.01012e-06
-3.35356e-05
4.01271e-06
-3.5294e-05
4.01495e-06
-3.7051e-05
4.01676e-06
-3.88062e-05
4.01807e-06
-4.05593e-05
4.01879e-06
-4.23099e-05
4.01886e-06
-4.40575e-05
4.01819e-06
-4.58019e-05
4.01671e-06
-4.75425e-05
4.01433e-06
-4.92788e-05
4.01099e-06
-5.10103e-05
4.00661e-06
-5.27366e-05
4.00114e-06
-5.4457e-05
3.99453e-06
-5.61711e-05
3.98676e-06
-5.78783e-05
3.97782e-06
-5.9578e-05
3.96774e-06
-6.12699e-05
3.95659e-06
-6.29536e-05
3.94449e-06
-6.46286e-05
3.93162e-06
-6.6295e-05
3.91828e-06
-6.79526e-05
3.90485e-06
-6.96018e-05
3.89188e-06
-7.12432e-05
3.88011e-06
-7.28779e-05
3.87055e-06
-7.45077e-05
3.86454e-06
-7.61351e-05
3.86389e-06
-7.77638e-05
3.87103e-06
-7.93991e-05
3.88927e-06
-8.10483e-05
3.92311e-06
-8.27216e-05
3.97881e-06
-8.44336e-05
4.06522e-06
-8.62048e-05
4.19522e-06
-8.80654e-05
4.38835e-06
-9.00601e-05
4.67609e-06
-9.2258e-05
5.11387e-06
-9.4764e-05
5.80963e-06
-9.77122e-05
6.97676e-06
-0.000101216
8.99815e-06
-0.000105364
1.25954e-05
-0.000108543
1.94276e-05
2.8159e-05
-0.00010946
-7.69864e-07
2.2665e-06
-2.2109e-06
4.42714e-06
-3.93305e-06
5.34549e-06
-5.75986e-06
5.69401e-06
-7.62189e-06
5.8082e-06
-9.49476e-06
5.84111e-06
-1.13708e-05
5.85026e-06
-1.32477e-05
5.85368e-06
-1.51247e-05
5.85611e-06
-1.70017e-05
5.85856e-06
-1.88783e-05
5.86114e-06
-2.07546e-05
5.86381e-06
-2.26302e-05
5.86649e-06
-2.45051e-05
5.86909e-06
-2.63791e-05
5.87155e-06
-2.8252e-05
5.87377e-06
-3.01235e-05
5.87569e-06
-3.19935e-05
5.87722e-06
-3.38616e-05
5.87826e-06
-3.57276e-05
5.87874e-06
-3.75912e-05
5.87854e-06
-3.9452e-05
5.87757e-06
-4.13097e-05
5.87573e-06
-4.31638e-05
5.87291e-06
-4.5014e-05
5.869e-06
-4.68597e-05
5.8639e-06
-4.87004e-05
5.85748e-06
-5.05358e-05
5.84966e-06
-5.23651e-05
5.84032e-06
-5.41879e-05
5.82939e-06
-5.60035e-05
5.81677e-06
-5.78114e-05
5.80243e-06
-5.9611e-05
5.78633e-06
-6.14016e-05
5.76846e-06
-6.31828e-05
5.74889e-06
-6.49539e-05
5.72771e-06
-6.67145e-05
5.70513e-06
-6.84643e-05
5.68141e-06
-7.0203e-05
5.65697e-06
-7.19306e-05
5.63241e-06
-7.36472e-05
5.60851e-06
-7.53534e-05
5.58635e-06
-7.70503e-05
5.56738e-06
-7.87393e-05
5.55356e-06
-8.04229e-05
5.54747e-06
-8.21044e-05
5.5526e-06
-8.37888e-05
5.57368e-06
-8.54828e-05
5.61712e-06
-8.71958e-05
5.69181e-06
-8.89408e-05
5.81022e-06
-9.07359e-05
5.99025e-06
-9.26059e-05
6.25835e-06
-9.45847e-05
6.65493e-06
-9.67156e-05
7.24477e-06
-9.90425e-05
8.13652e-06
-0.000101576
9.51061e-06
-0.000104229
1.16512e-05
-0.000106653
1.50189e-05
-0.000107454
2.02284e-05
2.64171e-05
-0.000105712
-7.85824e-07
3.05232e-06
-2.26359e-06
5.90491e-06
-4.02731e-06
7.10921e-06
-5.89565e-06
7.56235e-06
-7.79838e-06
7.71092e-06
-9.71132e-06
7.75406e-06
-1.16271e-05
7.76604e-06
-1.35436e-05
7.77016e-06
-1.54601e-05
7.77262e-06
-1.73763e-05
7.77479e-06
-1.92921e-05
7.7769e-06
-2.12072e-05
7.7789e-06
-2.31214e-05
7.78073e-06
-2.50346e-05
7.7823e-06
-2.69466e-05
7.78352e-06
-2.88571e-05
7.78429e-06
-3.07659e-05
7.78451e-06
-3.26728e-05
7.78407e-06
-3.45774e-05
7.78287e-06
-3.64794e-05
7.78078e-06
-3.83786e-05
7.77769e-06
-4.02745e-05
7.77346e-06
-4.21667e-05
7.76796e-06
-4.40548e-05
7.76105e-06
-4.59384e-05
7.7526e-06
-4.7817e-05
7.74247e-06
-4.969e-05
7.73052e-06
-5.1557e-05
7.7166e-06
-5.34173e-05
7.70061e-06
-5.52703e-05
7.68242e-06
-5.71154e-05
7.66193e-06
-5.89521e-05
7.63907e-06
-6.07796e-05
7.61381e-06
-6.25973e-05
7.58614e-06
-6.44045e-05
7.55613e-06
-6.62007e-05
7.52392e-06
-6.79853e-05
7.48973e-06
-6.97578e-05
7.45393e-06
-7.15179e-05
7.41703e-06
-7.32652e-05
7.37977e-06
-7.49999e-05
7.34314e-06
-7.6722e-05
7.30848e-06
-7.84322e-05
7.27761e-06
-8.01316e-05
7.2529e-06
-8.18217e-05
7.23756e-06
-8.35049e-05
7.23583e-06
-8.51846e-05
7.2534e-06
-8.68654e-05
7.29793e-06
-8.85535e-05
7.37984e-06
-9.02567e-05
7.51346e-06
-9.19852e-05
7.71876e-06
-9.37509e-05
8.02406e-06
-9.55662e-05
8.47024e-06
-9.74391e-05
9.11762e-06
-9.93586e-05
1.0056e-05
-0.000101263
1.14153e-05
-0.000102988
1.33762e-05
-0.000104143
1.61739e-05
-0.00010385
1.99348e-05
2.42143e-05
-0.000101647
-7.87758e-07
3.84008e-06
-2.27676e-06
7.39391e-06
-4.05389e-06
8.88634e-06
-5.93576e-06
9.44422e-06
-7.85148e-06
9.62664e-06
-9.77694e-06
9.67952e-06
-1.1705e-05
9.69406e-06
-1.36336e-05
9.69876e-06
-1.55621e-05
9.70119e-06
-1.74904e-05
9.70305e-06
-1.94182e-05
9.70465e-06
-2.13452e-05
9.70597e-06
-2.32714e-05
9.70692e-06
-2.51965e-05
9.70741e-06
-2.71203e-05
9.70735e-06
-2.90427e-05
9.7066e-06
-3.09632e-05
9.70507e-06
-3.28817e-05
9.70261e-06
-3.4798e-05
9.69909e-06
-3.67116e-05
9.69437e-06
-3.86222e-05
9.68831e-06
-4.05295e-05
9.68073e-06
-4.2433e-05
9.67149e-06
-4.43323e-05
9.66041e-06
-4.62271e-05
9.64733e-06
-4.81167e-05
9.63206e-06
-5.00006e-05
9.61445e-06
-5.18783e-05
9.59432e-06
-5.37492e-05
9.57151e-06
-5.56127e-05
9.54589e-06
-5.74681e-05
9.51732e-06
-5.93147e-05
9.48571e-06
-6.11519e-05
9.451e-06
-6.29789e-05
9.41318e-06
-6.47951e-05
9.3723e-06
-6.65997e-05
9.32852e-06
-6.8392e-05
9.28208e-06
-7.01715e-05
9.23339e-06
-7.19375e-05
9.18302e-06
-7.36895e-05
9.13179e-06
-7.54272e-05
9.08082e-06
-7.71503e-05
9.03161e-06
-7.88589e-05
8.98618e-06
-8.05532e-05
8.94718e-06
-8.22337e-05
8.91812e-06
-8.39016e-05
8.90365e-06
-8.5558e-05
8.90988e-06
-8.72051e-05
8.94493e-06
-8.88448e-05
9.01961e-06
-9.04797e-05
9.14836e-06
-9.21116e-05
9.35067e-06
-9.37404e-05
9.65289e-06
-9.53611e-05
1.00909e-05
-9.69567e-05
1.07133e-05
-9.84859e-05
1.15852e-05
-9.98601e-05
1.27894e-05
-0.000100906
1.44226e-05
-0.000101303
1.65707e-05
-0.000100572
1.92036e-05
2.2053e-05
-9.84106e-05
-7.86426e-07
4.62651e-06
-2.27789e-06
8.88538e-06
-4.05867e-06
1.06671e-05
-5.94459e-06
1.13301e-05
-7.86422e-06
1.15463e-05
-9.79337e-06
1.16087e-05
-1.17249e-05
1.16256e-05
-1.3657e-05
1.16308e-05
-1.5589e-05
1.16332e-05
-1.75208e-05
1.16348e-05
-1.9452e-05
1.16359e-05
-2.13827e-05
1.16366e-05
-2.33125e-05
1.16367e-05
-2.52413e-05
1.16362e-05
-2.71689e-05
1.16349e-05
-2.9095e-05
1.16328e-05
-3.10195e-05
1.16295e-05
-3.2942e-05
1.16251e-05
-3.48623e-05
1.16194e-05
-3.67801e-05
1.16121e-05
-3.86949e-05
1.16032e-05
-4.06066e-05
1.15924e-05
-4.25146e-05
1.15795e-05
-4.44185e-05
1.15643e-05
-4.63179e-05
1.15467e-05
-4.82122e-05
1.15264e-05
-5.0101e-05
1.15032e-05
-5.19836e-05
1.1477e-05
-5.38595e-05
1.14474e-05
-5.5728e-05
1.14144e-05
-5.75884e-05
1.13777e-05
-5.94401e-05
1.13373e-05
-6.12822e-05
1.12931e-05
-6.3114e-05
1.1245e-05
-6.49347e-05
1.1193e-05
-6.67435e-05
1.11373e-05
-6.85395e-05
1.10781e-05
-7.0322e-05
1.10159e-05
-7.209e-05
1.09511e-05
-7.38429e-05
1.08847e-05
-7.55798e-05
1.08177e-05
-7.73001e-05
1.07518e-05
-7.9003e-05
1.06891e-05
-8.06879e-05
1.06321e-05
-8.23543e-05
1.05845e-05
-8.40017e-05
1.0551e-05
-8.56293e-05
1.05375e-05
-8.72364e-05
1.0552e-05
-8.88213e-05
1.06046e-05
-9.03816e-05
1.07086e-05
-9.19121e-05
1.08811e-05
-9.34036e-05
1.11444e-05
-9.48393e-05
1.15266e-05
-9.61891e-05
1.20631e-05
-9.73998e-05
1.27959e-05
-9.83814e-05
1.3771e-05
-9.89883e-05
1.50294e-05
-9.90005e-05
1.65829e-05
-9.81549e-05
1.83579e-05
2.01606e-05
-9.62625e-05
-7.84661e-07
5.41117e-06
-2.27592e-06
1.03766e-05
-4.05734e-06
1.24485e-05
-5.94443e-06
1.32172e-05
-7.8653e-06
1.34671e-05
-9.79563e-06
1.3539e-05
-1.17283e-05
1.35583e-05
-1.36615e-05
1.3564e-05
-1.55947e-05
1.35664e-05
-1.75276e-05
1.35677e-05
-1.94601e-05
1.35684e-05
-2.13921e-05
1.35686e-05
-2.33233e-05
1.3568e-05
-2.52536e-05
1.35666e-05
-2.71829e-05
1.35642e-05
-2.91108e-05
1.35607e-05
-3.10372e-05
1.35559e-05
-3.29618e-05
1.35497e-05
-3.48843e-05
1.35419e-05
-3.68044e-05
1.35323e-05
-3.87218e-05
1.35206e-05
-4.06362e-05
1.35067e-05
-4.2547e-05
1.34904e-05
-4.4454e-05
1.34713e-05
-4.63567e-05
1.34494e-05
-4.82545e-05
1.34242e-05
-5.01469e-05
1.33956e-05
-5.20333e-05
1.33634e-05
-5.39132e-05
1.33272e-05
-5.57858e-05
1.3287e-05
-5.76504e-05
1.32424e-05
-5.95063e-05
1.31932e-05
-6.13526e-05
1.31395e-05
-6.31887e-05
1.3081e-05
-6.50134e-05
1.30177e-05
-6.68259e-05
1.29498e-05
-6.86253e-05
1.28775e-05
-7.04105e-05
1.2801e-05
-7.21803e-05
1.2721e-05
-7.39338e-05
1.26381e-05
-7.56697e-05
1.25536e-05
-7.73868e-05
1.24689e-05
-7.90837e-05
1.2386e-05
-8.0759e-05
1.23074e-05
-8.2411e-05
1.22365e-05
-8.40377e-05
1.21777e-05
-8.56366e-05
1.21365e-05
-8.72045e-05
1.21199e-05
-8.87367e-05
1.21368e-05
-9.02268e-05
1.21986e-05
-9.16648e-05
1.23192e-05
-9.30358e-05
1.25155e-05
-9.4317e-05
1.28078e-05
-9.54733e-05
1.32193e-05
-9.64513e-05
1.37739e-05
-9.71724e-05
1.44921e-05
-9.75256e-05
1.53827e-05
-9.73675e-05
1.64248e-05
-9.65508e-05
1.75411e-05
1.85858e-05
-9.49759e-05
-7.82955e-07
6.19413e-06
-2.27325e-06
1.18669e-05
-4.05449e-06
1.42298e-05
-5.94193e-06
1.51047e-05
-7.86332e-06
1.53885e-05
-9.79422e-06
1.54699e-05
-1.17275e-05
1.54916e-05
-1.36613e-05
1.54978e-05
-1.5595e-05
1.55001e-05
-1.75287e-05
1.55013e-05
-1.9462e-05
1.55018e-05
-2.13948e-05
1.55014e-05
-2.33271e-05
1.55002e-05
-2.52585e-05
1.5498e-05
-2.71891e-05
1.54947e-05
-2.91184e-05
1.549e-05
-3.10464e-05
1.54839e-05
-3.29728e-05
1.54761e-05
-3.48972e-05
1.54664e-05
-3.68195e-05
1.54546e-05
-3.87393e-05
1.54404e-05
-4.06563e-05
1.54237e-05
-4.257e-05
1.54041e-05
-4.44801e-05
1.53814e-05
-4.6386e-05
1.53553e-05
-4.82873e-05
1.53255e-05
-5.01835e-05
1.52918e-05
-5.2074e-05
1.52538e-05
-5.3958e-05
1.52113e-05
-5.58351e-05
1.5164e-05
-5.77043e-05
1.51116e-05
-5.95649e-05
1.50539e-05
-6.1416e-05
1.49906e-05
-6.32568e-05
1.49218e-05
-6.50862e-05
1.48472e-05
-6.69032e-05
1.47669e-05
-6.87067e-05
1.46809e-05
-7.04954e-05
1.45897e-05
-7.22679e-05
1.44935e-05
-7.4023e-05
1.43932e-05
-7.57589e-05
1.42896e-05
-7.7474e-05
1.4184e-05
-7.91662e-05
1.40782e-05
-8.08334e-05
1.39746e-05
-8.24729e-05
1.3876e-05
-8.40814e-05
1.37862e-05
-8.56549e-05
1.371e-05
-8.71883e-05
1.36532e-05
-8.86747e-05
1.36233e-05
-9.01049e-05
1.36289e-05
-9.14662e-05
1.36805e-05
-9.27409e-05
1.37901e-05
-9.39039e-05
1.39709e-05
-9.49206e-05
1.4236e-05
-9.57432e-05
1.45965e-05
-9.63079e-05
1.50568e-05
-9.6534e-05
1.56088e-05
-9.63294e-05
1.62202e-05
-9.56107e-05
1.68225e-05
1.73072e-05
-9.43321e-05
-7.81283e-07
6.97541e-06
-2.27038e-06
1.3356e-05
-4.05123e-06
1.60106e-05
-5.9388e-06
1.69922e-05
-7.86055e-06
1.73103e-05
-9.79189e-06
1.74013e-05
-1.17256e-05
1.74253e-05
-1.366e-05
1.74321e-05
-1.55943e-05
1.74345e-05
-1.75287e-05
1.74356e-05
-1.94628e-05
1.74359e-05
-2.13965e-05
1.74352e-05
-2.33298e-05
1.74335e-05
-2.52625e-05
1.74307e-05
-2.71943e-05
1.74266e-05
-2.91252e-05
1.74209e-05
-3.10549e-05
1.74136e-05
-3.29832e-05
1.74044e-05
-3.49098e-05
1.7393e-05
-3.68345e-05
1.73792e-05
-3.87569e-05
1.73628e-05
-4.06767e-05
1.73435e-05
-4.25936e-05
1.73209e-05
-4.45071e-05
1.72949e-05
-4.64167e-05
1.72649e-05
-4.8322e-05
1.72309e-05
-5.02225e-05
1.71923e-05
-5.21175e-05
1.71488e-05
-5.40064e-05
1.71002e-05
-5.58885e-05
1.70461e-05
-5.7763e-05
1.69861e-05
-5.96291e-05
1.692e-05
-6.14859e-05
1.68474e-05
-6.33324e-05
1.67683e-05
-6.51675e-05
1.66823e-05
-6.699e-05
1.65894e-05
-6.87987e-05
1.64897e-05
-7.05922e-05
1.63832e-05
-7.23689e-05
1.62702e-05
-7.4127e-05
1.61513e-05
-7.58647e-05
1.60272e-05
-7.75797e-05
1.5899e-05
-7.92696e-05
1.57681e-05
-8.09314e-05
1.56364e-05
-8.25616e-05
1.55062e-05
-8.4156e-05
1.53806e-05
-8.57095e-05
1.52635e-05
-8.72155e-05
1.51593e-05
-8.86658e-05
1.50735e-05
-9.00496e-05
1.50126e-05
-9.13527e-05
1.49836e-05
-9.25567e-05
1.49941e-05
-9.36372e-05
1.50514e-05
-9.45625e-05
1.51613e-05
-9.52921e-05
1.53261e-05
-9.57763e-05
1.5541e-05
-9.59576e-05
1.57901e-05
-9.5777e-05
1.60395e-05
-9.51873e-05
1.62327e-05
1.62903e-05
-9.41703e-05
-7.79557e-07
7.75496e-06
-2.26734e-06
1.48438e-05
-4.04773e-06
1.7791e-05
-5.93539e-06
1.88799e-05
-7.85748e-06
1.92324e-05
-9.78927e-06
1.9333e-05
-1.17235e-05
1.93596e-05
-1.36584e-05
1.9367e-05
-1.55935e-05
1.93696e-05
-1.75286e-05
1.93707e-05
-1.94636e-05
1.93708e-05
-2.13983e-05
1.937e-05
-2.33328e-05
1.9368e-05
-2.52668e-05
1.93647e-05
-2.72001e-05
1.93599e-05
-2.91327e-05
1.93535e-05
-3.10643e-05
1.93452e-05
-3.29948e-05
1.93348e-05
-3.49238e-05
1.9322e-05
-3.68511e-05
1.93066e-05
-3.87765e-05
1.92882e-05
-4.06995e-05
1.92665e-05
-4.26199e-05
1.92413e-05
-4.45372e-05
1.92122e-05
-4.64511e-05
1.91788e-05
-4.83609e-05
1.91407e-05
-5.02662e-05
1.90976e-05
-5.21664e-05
1.9049e-05
-5.40608e-05
1.89946e-05
-5.59487e-05
1.8934e-05
-5.78293e-05
1.88667e-05
-5.97018e-05
1.87925e-05
-6.15652e-05
1.87108e-05
-6.34185e-05
1.86215e-05
-6.52604e-05
1.85242e-05
-6.70898e-05
1.84188e-05
-6.89052e-05
1.8305e-05
-7.0705e-05
1.8183e-05
-7.24875e-05
1.80527e-05
-7.42507e-05
1.79145e-05
-7.59924e-05
1.77689e-05
-7.77099e-05
1.76166e-05
-7.94004e-05
1.74586e-05
-8.10603e-05
1.72963e-05
-8.26856e-05
1.71315e-05
-8.42713e-05
1.69663e-05
-8.58115e-05
1.68036e-05
-8.72988e-05
1.66466e-05
-8.8724e-05
1.64988e-05
-9.00759e-05
1.63644e-05
-9.13399e-05
1.62477e-05
-9.24982e-05
1.61523e-05
-9.35281e-05
1.60813e-05
-9.4402e-05
1.60353e-05
-9.50869e-05
1.60109e-05
-9.55445e-05
1.59987e-05
-9.57343e-05
1.59798e-05
-9.56181e-05
1.59233e-05
-9.5169e-05
1.57837e-05
1.55025e-05
-9.43813e-05
-7.77714e-07
8.53268e-06
-2.26408e-06
1.63302e-05
-4.04397e-06
1.95709e-05
-5.93173e-06
2.07677e-05
-7.85416e-06
2.11548e-05
-9.78643e-06
2.12653e-05
-1.17213e-05
2.12944e-05
-1.36568e-05
2.13025e-05
-1.55926e-05
2.13054e-05
-1.75285e-05
2.13066e-05
-1.94645e-05
2.13068e-05
-2.14004e-05
2.13059e-05
-2.33361e-05
2.13037e-05
-2.52716e-05
2.13001e-05
-2.72066e-05
2.1295e-05
-2.91411e-05
2.1288e-05
-3.10749e-05
2.1279e-05
-3.30077e-05
2.12676e-05
-3.49394e-05
2.12537e-05
-3.68696e-05
2.12368e-05
-3.87982e-05
2.12168e-05
-4.07249e-05
2.11932e-05
-4.26492e-05
2.11656e-05
-4.45708e-05
2.11338e-05
-4.64893e-05
2.10973e-05
-4.84042e-05
2.10556e-05
-5.03149e-05
2.10083e-05
-5.22209e-05
2.0955e-05
-5.41216e-05
2.08953e-05
-5.60161e-05
2.08285e-05
-5.79037e-05
2.07544e-05
-5.97836e-05
2.06723e-05
-6.16546e-05
2.05819e-05
-6.35158e-05
2.04827e-05
-6.53659e-05
2.03743e-05
-6.72035e-05
2.02564e-05
-6.90271e-05
2.01287e-05
-7.08351e-05
1.99909e-05
-7.26254e-05
1.9843e-05
-7.43959e-05
1.9685e-05
-7.61442e-05
1.95171e-05
-7.78672e-05
1.93396e-05
-7.95618e-05
1.91532e-05
-8.12241e-05
1.89586e-05
-8.28495e-05
1.87569e-05
-8.44326e-05
1.85495e-05
-8.5967e-05
1.8338e-05
-8.74449e-05
1.81244e-05
-8.88568e-05
1.79107e-05
-9.01913e-05
1.7699e-05
-9.14346e-05
1.74909e-05
-9.25697e-05
1.72875e-05
-9.35767e-05
1.70883e-05
-9.44319e-05
1.68905e-05
-9.51087e-05
1.66877e-05
-9.5578e-05
1.6468e-05
-9.58109e-05
1.62128e-05
-9.57823e-05
1.58948e-05
-9.54765e-05
1.54779e-05
1.49188e-05
-9.48928e-05
-7.75719e-07
9.3084e-06
-2.26055e-06
1.7815e-05
-4.03991e-06
2.13503e-05
-5.92775e-06
2.26555e-05
-7.85055e-06
2.30776e-05
-9.78332e-06
2.31981e-05
-1.17188e-05
2.32299e-05
-1.3655e-05
2.32388e-05
-1.55916e-05
2.3242e-05
-1.75285e-05
2.32435e-05
-1.94655e-05
2.32438e-05
-2.14026e-05
2.3243e-05
-2.33398e-05
2.32408e-05
-2.52768e-05
2.32372e-05
-2.72137e-05
2.32318e-05
-2.91503e-05
2.32245e-05
-3.10863e-05
2.3215e-05
-3.30217e-05
2.3203e-05
-3.49563e-05
2.31882e-05
-3.68898e-05
2.31703e-05
-3.8822e-05
2.3149e-05
-4.07525e-05
2.31237e-05
-4.26812e-05
2.30943e-05
-4.46075e-05
2.30601e-05
-4.65311e-05
2.30209e-05
-4.84516e-05
2.2976e-05
-5.03683e-05
2.29251e-05
-5.22808e-05
2.28675e-05
-5.41884e-05
2.28028e-05
-5.60904e-05
2.27305e-05
-5.79859e-05
2.26499e-05
-5.98741e-05
2.25605e-05
-6.17539e-05
2.24617e-05
-6.36243e-05
2.2353e-05
-6.54838e-05
2.22339e-05
-6.73312e-05
2.21038e-05
-6.91648e-05
2.19623e-05
-7.09829e-05
2.18089e-05
-7.27832e-05
2.16434e-05
-7.45636e-05
2.14654e-05
-7.63213e-05
2.12748e-05
-7.80532e-05
2.10716e-05
-7.97559e-05
2.08558e-05
-8.14251e-05
2.06278e-05
-8.30561e-05
2.03878e-05
-8.46432e-05
2.01366e-05
-8.61797e-05
1.98745e-05
-8.76577e-05
1.96025e-05
-8.90679e-05
1.9321e-05
-9.03992e-05
1.90303e-05
-9.16386e-05
1.87302e-05
-9.27707e-05
1.84196e-05
-9.3778e-05
1.80956e-05
-9.46406e-05
1.77532e-05
-9.53372e-05
1.73842e-05
-9.58455e-05
1.69763e-05
-9.61445e-05
1.65118e-05
-9.62172e-05
1.59675e-05
-9.60539e-05
1.53146e-05
1.45205e-05
-9.56556e-05
-7.7355e-07
1.00819e-05
-2.25671e-06
1.92982e-05
-4.03549e-06
2.31291e-05
-5.9234e-06
2.45434e-05
-7.84658e-06
2.50008e-05
-9.77987e-06
2.51314e-05
-1.17159e-05
2.51659e-05
-1.36529e-05
2.51757e-05
-1.55904e-05
2.51795e-05
-1.75282e-05
2.51813e-05
-1.94664e-05
2.5182e-05
-2.14048e-05
2.51814e-05
-2.33435e-05
2.51795e-05
-2.52823e-05
2.5176e-05
-2.72211e-05
2.51707e-05
-2.91599e-05
2.51633e-05
-3.10984e-05
2.51536e-05
-3.30366e-05
2.51412e-05
-3.49743e-05
2.51259e-05
-3.69113e-05
2.51073e-05
-3.88473e-05
2.5085e-05
-4.07822e-05
2.50586e-05
-4.27155e-05
2.50276e-05
-4.46469e-05
2.49916e-05
-4.65762e-05
2.49501e-05
-4.85027e-05
2.49026e-05
-5.04261e-05
2.48484e-05
-5.23457e-05
2.47872e-05
-5.4261e-05
2.47181e-05
-5.61712e-05
2.46407e-05
-5.80755e-05
2.45542e-05
-5.9973e-05
2.4458e-05
-6.18627e-05
2.43514e-05
-6.37435e-05
2.42338e-05
-6.5614e-05
2.41044e-05
-6.74728e-05
2.39626e-05
-6.93182e-05
2.38077e-05
-7.11484e-05
2.36391e-05
-7.29611e-05
2.34561e-05
-7.47541e-05
2.32583e-05
-7.65243e-05
2.30451e-05
-7.82687e-05
2.2816e-05
-7.99836e-05
2.25707e-05
-8.16647e-05
2.23089e-05
-8.3307e-05
2.20302e-05
-8.49048e-05
2.17344e-05
-8.64514e-05
2.14212e-05
-8.79391e-05
2.10902e-05
-8.93588e-05
2.07406e-05
-9.07e-05
2.03715e-05
-9.19507e-05
1.99809e-05
-9.30972e-05
1.95661e-05
-9.41243e-05
1.91227e-05
-9.50154e-05
1.86443e-05
-9.57532e-05
1.81219e-05
-9.63203e-05
1.75434e-05
-9.67011e-05
1.68926e-05
-9.68836e-05
1.61499e-05
-9.68612e-05
1.52922e-05
1.42944e-05
-9.6635e-05
-7.71193e-07
1.08531e-05
-2.25252e-06
2.07795e-05
-4.03065e-06
2.49072e-05
-5.91862e-06
2.64314e-05
-7.84217e-06
2.69243e-05
-9.776e-06
2.70652e-05
-1.17127e-05
2.71026e-05
-1.36504e-05
2.71135e-05
-1.55888e-05
2.71178e-05
-1.75277e-05
2.71202e-05
-1.9467e-05
2.71214e-05
-2.14069e-05
2.71213e-05
-2.33471e-05
2.71197e-05
-2.52877e-05
2.71166e-05
-2.72286e-05
2.71116e-05
-2.91697e-05
2.71044e-05
-3.11109e-05
2.70948e-05
-3.30521e-05
2.70824e-05
-3.49931e-05
2.7067e-05
-3.69338e-05
2.7048e-05
-3.88739e-05
2.70251e-05
-4.08133e-05
2.69979e-05
-4.27516e-05
2.69659e-05
-4.46886e-05
2.69286e-05
-4.66239e-05
2.68854e-05
-4.8557e-05
2.68357e-05
-5.04876e-05
2.6779e-05
-5.2415e-05
2.67146e-05
-5.43386e-05
2.66418e-05
-5.62579e-05
2.65599e-05
-5.81719e-05
2.64682e-05
-6.00798e-05
2.63659e-05
-6.19806e-05
2.62522e-05
-6.38731e-05
2.61263e-05
-6.5756e-05
2.59873e-05
-6.76279e-05
2.58345e-05
-6.9487e-05
2.56668e-05
-7.13315e-05
2.54835e-05
-7.31591e-05
2.52837e-05
-7.49673e-05
2.50666e-05
-7.67534e-05
2.48311e-05
-7.8514e-05
2.45766e-05
-8.02454e-05
2.43021e-05
-8.19433e-05
2.40068e-05
-8.36028e-05
2.36896e-05
-8.52181e-05
2.33497e-05
-8.67827e-05
2.29858e-05
-8.82891e-05
2.25966e-05
-8.97287e-05
2.21803e-05
-9.10918e-05
2.17346e-05
-9.23675e-05
2.12566e-05
-9.35436e-05
2.07422e-05
-9.46068e-05
2.0186e-05
-9.55433e-05
1.95808e-05
-9.63388e-05
1.89174e-05
-9.69796e-05
1.81841e-05
-9.74536e-05
1.73666e-05
-9.77516e-05
1.6448e-05
-9.78688e-05
1.54094e-05
1.42312e-05
-9.78056e-05
-7.68633e-07
1.16218e-05
-2.24796e-06
2.22588e-05
-4.02535e-06
2.66846e-05
-5.91334e-06
2.83194e-05
-7.83725e-06
2.88483e-05
-9.7716e-06
2.89995e-05
-1.1709e-05
2.904e-05
-1.36475e-05
2.9052e-05
-1.55867e-05
2.90571e-05
-1.75266e-05
2.90601e-05
-1.94672e-05
2.9062e-05
-2.14085e-05
2.90625e-05
-2.33503e-05
2.90616e-05
-2.52928e-05
2.90591e-05
-2.72359e-05
2.90546e-05
-2.91794e-05
2.90479e-05
-3.11234e-05
2.90388e-05
-3.30677e-05
2.90267e-05
-3.50122e-05
2.90115e-05
-3.69568e-05
2.89926e-05
-3.89013e-05
2.89696e-05
-4.08455e-05
2.89421e-05
-4.27892e-05
2.89096e-05
-4.4732e-05
2.88714e-05
-4.66737e-05
2.88271e-05
-4.86139e-05
2.87759e-05
-5.05522e-05
2.87172e-05
-5.2488e-05
2.86504e-05
-5.44208e-05
2.85746e-05
-5.63498e-05
2.8489e-05
-5.82745e-05
2.83928e-05
-6.01938e-05
2.82852e-05
-6.21068e-05
2.81652e-05
-6.40123e-05
2.80319e-05
-6.59092e-05
2.78842e-05
-6.77958e-05
2.77211e-05
-6.96705e-05
2.75416e-05
-7.15315e-05
2.73445e-05
-7.33765e-05
2.71287e-05
-7.5203e-05
2.68931e-05
-7.70082e-05
2.66363e-05
-7.87888e-05
2.63572e-05
-8.05411e-05
2.60544e-05
-8.22608e-05
2.57265e-05
-8.39431e-05
2.53719e-05
-8.55825e-05
2.4989e-05
-8.71726e-05
2.45759e-05
-8.87063e-05
2.41303e-05
-9.01756e-05
2.36496e-05
-9.15716e-05
2.31306e-05
-9.28843e-05
2.25693e-05
-9.41029e-05
2.19608e-05
-9.52161e-05
2.12991e-05
-9.62118e-05
2.05765e-05
-9.70783e-05
1.97839e-05
-9.78043e-05
1.89102e-05
-9.83801e-05
1.79424e-05
-9.87983e-05
1.68661e-05
-9.90545e-05
1.56657e-05
1.43252e-05
-9.91485e-05
-7.6586e-07
1.23876e-05
-2.24299e-06
2.37359e-05
-4.01954e-06
2.84611e-05
-5.90749e-06
3.02073e-05
-7.83173e-06
3.07725e-05
-9.76658e-06
3.09344e-05
-1.17046e-05
3.0978e-05
-1.36438e-05
3.09912e-05
-1.55839e-05
3.09972e-05
-1.75249e-05
3.10011e-05
-1.94668e-05
3.10038e-05
-2.14094e-05
3.10052e-05
-2.3353e-05
3.10052e-05
-2.52974e-05
3.10035e-05
-2.72427e-05
3.09999e-05
-2.91887e-05
3.0994e-05
-3.11356e-05
3.09856e-05
-3.30831e-05
3.09743e-05
-3.50313e-05
3.09596e-05
-3.69799e-05
3.09413e-05
-3.8929e-05
3.09187e-05
-4.08783e-05
3.08914e-05
-4.28275e-05
3.08589e-05
-4.47766e-05
3.08205e-05
-4.67252e-05
3.07756e-05
-4.86729e-05
3.07236e-05
-5.06193e-05
3.06637e-05
-5.25641e-05
3.05951e-05
-5.45066e-05
3.05171e-05
-5.64463e-05
3.04287e-05
-5.83824e-05
3.03289e-05
-6.03141e-05
3.02169e-05
-6.22405e-05
3.00916e-05
-6.41604e-05
2.99518e-05
-6.60726e-05
2.97964e-05
-6.79757e-05
2.96242e-05
-6.9868e-05
2.94339e-05
-7.17477e-05
2.92242e-05
-7.36125e-05
2.89936e-05
-7.54601e-05
2.87407e-05
-7.72877e-05
2.84639e-05
-7.9092e-05
2.81615e-05
-8.08695e-05
2.78319e-05
-8.26159e-05
2.74729e-05
-8.43267e-05
2.70827e-05
-8.59964e-05
2.66588e-05
-8.76192e-05
2.61987e-05
-8.91883e-05
2.56994e-05
-9.06963e-05
2.51576e-05
-9.21349e-05
2.45692e-05
-9.34953e-05
2.39297e-05
-9.47679e-05
2.32334e-05
-9.59426e-05
2.24738e-05
-9.70092e-05
2.16431e-05
-9.79575e-05
2.07322e-05
-9.87782e-05
1.97308e-05
-9.94629e-05
1.86271e-05
-0.000100005
1.74084e-05
-0.000100401
1.60615e-05
1.45731e-05
-0.000100649
-7.62862e-07
1.31505e-05
-2.23759e-06
2.52107e-05
-4.01317e-06
3.02367e-05
-5.90102e-06
3.20952e-05
-7.82554e-06
3.2697e-05
-9.76084e-06
3.28697e-05
-1.16994e-05
3.29165e-05
-1.36394e-05
3.29312e-05
-1.55804e-05
3.29382e-05
-1.75224e-05
3.29431e-05
-1.94654e-05
3.29468e-05
-2.14096e-05
3.29493e-05
-2.33548e-05
3.29504e-05
-2.53011e-05
3.29498e-05
-2.72486e-05
3.29474e-05
-2.91973e-05
3.29426e-05
-3.1147e-05
3.29354e-05
-3.30979e-05
3.29251e-05
-3.50498e-05
3.29115e-05
-3.70027e-05
3.28942e-05
-3.89565e-05
3.28725e-05
-4.0911e-05
3.28459e-05
-4.28662e-05
3.2814e-05
-4.48217e-05
3.2776e-05
-4.67774e-05
3.27313e-05
-4.8733e-05
3.26792e-05
-5.06882e-05
3.26188e-05
-5.26425e-05
3.25494e-05
-5.45954e-05
3.247e-05
-5.65464e-05
3.23797e-05
-5.84948e-05
3.22774e-05
-6.04398e-05
3.2162e-05
-6.23806e-05
3.20324e-05
-6.43162e-05
3.18873e-05
-6.62452e-05
3.17254e-05
-6.81664e-05
3.15454e-05
-7.00782e-05
3.13457e-05
-7.19787e-05
3.11247e-05
-7.38659e-05
3.08808e-05
-7.57375e-05
3.06122e-05
-7.75907e-05
3.03171e-05
-7.94224e-05
2.99933e-05
-8.12291e-05
2.96386e-05
-8.3007e-05
2.92508e-05
-8.47515e-05
2.88272e-05
-8.64576e-05
2.83649e-05
-8.81198e-05
2.78608e-05
-8.97317e-05
2.73113e-05
-9.12865e-05
2.67124e-05
-9.27768e-05
2.60595e-05
-9.41944e-05
2.53473e-05
-9.55308e-05
2.45698e-05
-9.67771e-05
2.37201e-05
-9.79244e-05
2.27904e-05
-9.89638e-05
2.17717e-05
-9.98871e-05
2.06541e-05
-0.000100687
1.9427e-05
-0.000101358
1.80789e-05
-0.000101894
1.65983e-05
1.49739e-05
-0.000102295
-7.59628e-07
1.39101e-05
-2.23173e-06
2.66828e-05
-4.0062e-06
3.20112e-05
-5.89385e-06
3.39828e-05
-7.81857e-06
3.46217e-05
-9.75427e-06
3.48054e-05
-1.16934e-05
3.48556e-05
-1.3634e-05
3.48718e-05
-1.55758e-05
3.488e-05
-1.75188e-05
3.48861e-05
-1.9463e-05
3.48911e-05
-2.14086e-05
3.48948e-05
-2.33555e-05
3.48973e-05
-2.53037e-05
3.48981e-05
-2.72535e-05
3.48971e-05
-2.92047e-05
3.48939e-05
-3.11574e-05
3.48881e-05
-3.31117e-05
3.48794e-05
-3.50674e-05
3.48673e-05
-3.70246e-05
3.48514e-05
-3.89832e-05
3.48311e-05
-4.09432e-05
3.48059e-05
-4.29044e-05
3.47752e-05
-4.48667e-05
3.47383e-05
-4.68299e-05
3.46945e-05
-4.87937e-05
3.46431e-05
-5.07579e-05
3.45831e-05
-5.27222e-05
3.45137e-05
-5.46861e-05
3.44339e-05
-5.66491e-05
3.43427e-05
-5.86106e-05
3.42389e-05
-6.05699e-05
3.41213e-05
-6.25262e-05
3.39887e-05
-6.44785e-05
3.38396e-05
-6.64258e-05
3.36727e-05
-6.83667e-05
3.34863e-05
-7.02997e-05
3.32787e-05
-7.22232e-05
3.30482e-05
-7.41352e-05
3.27928e-05
-7.60334e-05
3.25104e-05
-7.79152e-05
3.21989e-05
-7.97778e-05
3.18559e-05
-8.16179e-05
3.14787e-05
-8.34317e-05
3.10646e-05
-8.52149e-05
3.06105e-05
-8.69631e-05
3.0113e-05
-8.86708e-05
2.95685e-05
-9.03324e-05
2.89729e-05
-9.19415e-05
2.83215e-05
-9.34914e-05
2.76093e-05
-9.49746e-05
2.68306e-05
-9.63837e-05
2.59788e-05
-9.77105e-05
2.5047e-05
-9.89472e-05
2.4027e-05
-0.000100086
2.29103e-05
-0.000101119
2.16872e-05
-0.00010204
2.03479e-05
-0.000102843
1.88818e-05
-0.000103523
1.72786e-05
1.55282e-05
-0.000104077
-7.56146e-07
1.46663e-05
-2.22538e-06
2.8152e-05
-3.99857e-06
3.37844e-05
-5.88591e-06
3.58701e-05
-7.81075e-06
3.65466e-05
-9.74677e-06
3.67414e-05
-1.16863e-05
3.67952e-05
-1.36275e-05
3.6813e-05
-1.55701e-05
3.68226e-05
-1.7514e-05
3.683e-05
-1.94594e-05
3.68364e-05
-2.14062e-05
3.68417e-05
-2.33547e-05
3.68458e-05
-2.53049e-05
3.68483e-05
-2.72569e-05
3.68491e-05
-2.92106e-05
3.68477e-05
-3.11663e-05
3.68438e-05
-3.31239e-05
3.6837e-05
-3.50835e-05
3.68269e-05
-3.70451e-05
3.68129e-05
-3.90086e-05
3.67946e-05
-4.09741e-05
3.67714e-05
-4.29415e-05
3.67426e-05
-4.49107e-05
3.67075e-05
-4.68816e-05
3.66654e-05
-4.8854e-05
3.66154e-05
-5.08277e-05
3.65568e-05
-5.28024e-05
3.64884e-05
-5.47777e-05
3.64092e-05
-5.67533e-05
3.63182e-05
-5.87286e-05
3.62141e-05
-6.0703e-05
3.60957e-05
-6.26757e-05
3.59615e-05
-6.4646e-05
3.58099e-05
-6.66128e-05
3.56395e-05
-6.85749e-05
3.54484e-05
-7.05309e-05
3.52348e-05
-7.24794e-05
3.49966e-05
-7.44183e-05
3.47317e-05
-7.63457e-05
3.44378e-05
-7.82592e-05
3.41124e-05
-8.0156e-05
3.37527e-05
-8.20331e-05