/*--------------------------------*- C++ -*----------------------------------*\
  =========                 |
  \\      /  F ield         | OpenFOAM: The Open Source CFD Toolbox
   \\    /   O peration     | Website:  https://openfoam.org
    \\  /    A nd           | Version:  8
     \\/     M anipulation  |
\*---------------------------------------------------------------------------*/
FoamFile
{
    version     2.0;
    format      ascii;
    class       volScalarField;
    location    "0.405";
    object      p;
}
// * * * * * * * * * * * * * * * * * * * * * * * * * * * * * * * * * * * * * //

dimensions      [0 2 -2 0 0 0 0];

internalField   nonuniform List<scalar> 
400
(
4.28997e-06
-0.00582238
-0.0129598
-0.0184119
-0.0204293
-0.0182356
-0.0117711
-0.00148116
0.0118396
0.027151
0.0432458
0.0588242
0.0725795
0.0833092
0.0900535
0.0922678
0.0900269
0.0842452
0.0768823
0.0710691
0.00578306
-0.000215801
-0.00580145
-0.00953998
-0.0105964
-0.00843021
-0.00296754
0.00547637
0.0163049
0.0287135
0.0417513
0.0543873
0.0655876
0.0744111
0.0801215
0.0823171
0.0810788
0.0770565
0.071276
0.06532
0.013337
0.00503571
-0.000993131
-0.00442086
-0.00527067
-0.00326173
0.00160444
0.00902957
0.0185039
0.029351
0.0407671
0.0518711
0.0617699
0.0696378
0.0748085
0.0768797
0.0758434
0.0720879
0.0658076
0.0575379
0.0201409
0.0086977
0.0012278
-0.00266648
-0.00372004
-0.00188327
0.00273323
0.00978643
0.0187822
0.0290968
0.0399937
0.0506557
0.0602345
0.0679175
0.0730048
0.0750033
0.0737678
0.0694583
0.0616054
0.0501052
0.0245032
0.00977469
0.000591589
-0.00398497
-0.00530022
-0.00350533
0.00117668
0.00833641
0.0174638
0.0279508
0.0390868
0.0500717
0.0600506
0.0681668
0.0736281
0.0757996
0.074371
0.069292
0.0595281
0.0445401
0.025179
0.0071516
-0.00380022
-0.00905526
-0.0105101
-0.00849788
-0.00335474
0.00443142
0.0143153
0.0256809
0.0378157
0.0499052
0.06105
0.070305
0.0767365
0.0795188
0.078141
0.0723359
0.060542
0.0418932
0.0210948
-0.000260692
-0.0129326
-0.0187073
-0.0200277
-0.0174117
-0.0113161
-0.00231744
0.00899261
0.0219783
0.0359117
0.0499465
0.0631143
0.0743474
0.082524
0.0865716
0.0857229
0.0794495
0.0656231
0.0430749
0.0111444
-0.0136163
-0.027873
-0.033852
-0.0346012
-0.030855
-0.0232103
-0.0123426
0.00110739
0.0164863
0.0330549
0.049936
0.0660857
0.0802923
0.0912031
0.0974324
0.0978727
0.0916386
0.0758991
0.0491197
-0.00596517
-0.0342642
-0.0498677
-0.0555462
-0.0550876
-0.0495119
-0.0395907
-0.0261104
-0.00975419
0.00882585
0.0289037
0.0495962
0.0698001
0.0881572
0.10305
0.112704
0.115553
0.110194
0.092837
0.0614145
-0.0318546
-0.0638735
-0.0804142
-0.0850044
-0.0824173
-0.0740754
-0.0609779
-0.0440334
-0.0239483
-0.00133365
0.0231487
0.048664
0.0740985
0.0979751
0.118399
0.133129
0.139991
0.136821
0.118443
0.0819366
-0.0686642
-0.1046
-0.121341
-0.123587
-0.117512
-0.105123
-0.087715
-0.0663221
-0.0416335
-0.014152
0.0156091
0.0469566
0.078859
0.109797
0.137627
0.159589
0.17273
0.173781
0.155523
0.113573
-0.119399
-0.159353
-0.174911
-0.172754
-0.161144
-0.142925
-0.119755
-0.0927735
-0.0625737
-0.0294438
0.00637698
0.0444773
0.0840587
0.123706
0.161139
0.193089
0.215671
0.22408
0.208053
0.160635
-0.188624
-0.232238
-0.243935
-0.233944
-0.213691
-0.187151
-0.156369
-0.122497
-0.085894
-0.0464681
-0.00401035
0.0415429
0.0898461
0.139833
0.189322
0.234692
0.271078
0.291667
0.281745
0.229778
-0.28397
-0.3293
-0.331828
-0.308276
-0.274705
-0.236436
-0.19576
-0.153606
-0.109836
-0.0637409
-0.0144335
0.0388678
0.0965585
0.158281
0.222378
0.285291
0.3414
0.381578
0.384917
0.331836
-0.419313
-0.459666
-0.442346
-0.395788
-0.342125
-0.287735
-0.234611
-0.182925
-0.131605
-0.0789803
-0.0232093
0.03748
0.104558
0.178842
0.259865
0.344974
0.42862
0.499703
0.529678
0.485394
-0.620526
-0.636739
-0.578673
-0.494189
-0.411236
-0.335654
-0.267776
-0.205973
-0.147532
-0.0893779
-0.028421
0.0383533
0.113812
0.200476
0.29998
0.412029
0.533033
0.651779
0.732775
0.722398
-0.935918
-0.87851
-0.741737
-0.597944
-0.474389
-0.372655
-0.288864
-0.217758
-0.153948
-0.0924586
-0.028712
0.041701
0.123269
0.220723
0.338931
0.482159
0.652001
0.841346
1.01527
1.09751
-1.47642
-1.20663
-0.920499
-0.691384
-0.517301
-0.38754
-0.290057
-0.213333
-0.148119
-0.0872103
-0.0245722
0.0454629
0.128943
0.233076
0.367108
0.542683
0.771297
1.05932
1.40329
1.73014
-2.53964
-1.63054
-1.04443
-0.710955
-0.495747
-0.352089
-0.254527
-0.183579
-0.126165
-0.0735901
-0.0192638
0.0427923
0.119218
0.218788
0.354817
0.547989
0.826397
1.23659
1.91168
2.9242
-4.36666
-2.04463
-0.973538
-0.563177
-0.357843
-0.240143
-0.170116
-0.123779
-0.087477
-0.0535055
-0.0166493
0.0276662
0.0846132
0.161735
0.272417
0.442104
0.718224
1.22571
2.41104
4.84854
)
;

boundaryField
{
    movingWall
    {
        type            zeroGradient;
    }
    fixedWalls
    {
        type            zeroGradient;
    }
    frontAndBack
    {
        type            empty;
    }
}


// ************************************************************************* //
