/*--------------------------------*- C++ -*----------------------------------*\
  =========                 |
  \\      /  F ield         | OpenFOAM: The Open Source CFD Toolbox
   \\    /   O peration     | Website:  https://openfoam.org
    \\  /    A nd           | Version:  8
     \\/     M anipulation  |
\*---------------------------------------------------------------------------*/
FoamFile
{
    version     2.0;
    format      ascii;
    class       surfaceScalarField;
    location    "0.405";
    object      phi;
}
// * * * * * * * * * * * * * * * * * * * * * * * * * * * * * * * * * * * * * //

dimensions      [0 3 -1 0 0 0 0];

internalField   nonuniform List<scalar> 
760
(
1.42319e-08
-1.42679e-08
-2.22112e-08
3.64432e-08
-1.14272e-07
9.20609e-08
-2.45499e-07
1.31227e-07
-3.96107e-07
1.50608e-07
-5.47377e-07
1.51271e-07
-6.83204e-07
1.35827e-07
-7.90678e-07
1.07474e-07
-8.60222e-07
6.95448e-08
-8.85656e-07
2.54335e-08
-8.64334e-07
-2.13225e-08
-7.97401e-07
-6.69327e-08
-6.90096e-07
-1.07305e-07
-5.51981e-07
-1.38114e-07
-3.96949e-07
-1.55032e-07
-2.42753e-07
-1.54197e-07
-1.09735e-07
-1.33018e-07
-1.84166e-08
-9.13186e-08
1.56897e-08
-3.41064e-08
1.56898e-08
-3.42166e-08
1.99486e-08
-1.8038e-07
1.82607e-07
-4.34003e-07
3.45684e-07
-7.64458e-07
4.61683e-07
-1.13225e-06
5.18398e-07
-1.49729e-06
5.16315e-07
-1.8234e-06
4.61931e-07
-2.0806e-06
3.64679e-07
-2.24634e-06
2.35288e-07
-2.30611e-06
8.5199e-08
-2.25397e-06
-7.34649e-08
-2.09311e-06
-2.27791e-07
-1.83631e-06
-3.64102e-07
-1.50608e-06
-4.68345e-07
-1.13411e-06
-5.27003e-07
-7.59541e-07
-5.28768e-07
-4.25411e-07
-4.67148e-07
-1.72696e-07
-3.44033e-07
-3.08028e-08
-1.76e-07
-1.51131e-08
-9.22312e-08
1.1218e-07
-3.57008e-07
4.47383e-07
-7.64582e-07
7.53257e-07
-1.26852e-06
9.65626e-07
-1.81475e-06
1.06462e-06
-2.34911e-06
1.05068e-06
-2.82251e-06
9.35332e-07
-3.19403e-06
7.36197e-07
-3.4327e-06
4.7396e-07
-3.51861e-06
1.71103e-07
-3.44366e-06
-1.48408e-07
-3.21234e-06
-4.59115e-07
-2.84218e-06
-7.34266e-07
-2.36386e-06
-9.46661e-07
-1.82036e-06
-1.07051e-06
-1.26452e-06
-1.08461e-06
-7.54539e-07
-9.77125e-07
-3.46978e-07
-7.51594e-07
-8.73379e-08
-4.3564e-07
-1.02451e-07
-1.45215e-07
2.57394e-07
-5.25475e-07
8.27643e-07
-1.08166e-06
1.30944e-06
-1.74755e-06
1.63152e-06
-2.45439e-06
1.77146e-06
-3.13645e-06
1.73274e-06
-3.73537e-06
1.53426e-06
-4.203e-06
1.20382e-06
-4.50302e-06
7.73978e-07
-4.61203e-06
2.80113e-07
-4.52035e-06
-2.40082e-07
-4.23282e-06
-7.46646e-07
-3.76944e-06
-1.19764e-06
-3.1657e-06
-1.5504e-06
-2.47192e-06
-1.76428e-06
-1.7511e-06
-1.80543e-06
-1.07453e-06
-1.6537e-06
-5.15148e-07
-1.31098e-06
-1.39318e-07
-8.1147e-07
-2.41769e-07
-1.93614e-07
4.51008e-07
-6.85014e-07
1.31904e-06
-1.38565e-06
2.01007e-06
-2.20728e-06
2.45315e-06
-3.06552e-06
2.6297e-06
-3.88384e-06
2.55106e-06
-4.59658e-06
2.247e-06
-5.15067e-06
1.75791e-06
-5.50654e-06
1.12985e-06
-5.63861e-06
4.12189e-07
-5.53584e-06
-3.42854e-07
-5.20245e-06
-1.08003e-06
-4.65895e-06
-1.74115e-06
-3.94301e-06
-2.26634e-06
-3.10975e-06
-2.59755e-06
-2.23053e-06
-2.68465e-06
-1.38966e-06
-2.49457e-06
-6.78508e-07
-2.02212e-06
-1.8777e-07
-1.30221e-06
-4.29539e-07
-2.39944e-07
6.90952e-07
-8.40362e-07
1.91946e-06
-1.68331e-06
2.85302e-06
-2.65709e-06
3.42693e-06
-3.66089e-06
3.63349e-06
-4.60783e-06
3.498e-06
-5.42643e-06
3.06559e-06
-6.06065e-06
2.39214e-06
-6.46944e-06
1.53864e-06
-6.62614e-06
5.68886e-07
-6.5184e-06
-4.50588e-07
-6.14888e-06
-1.44956e-06
-5.53661e-06
-2.35342e-06
-4.71898e-06
-3.08397e-06
-3.7535e-06
-3.56302e-06
-2.71851e-06
-3.71964e-06
-1.71156e-06
-3.50152e-06
-8.44671e-07
-2.88901e-06
-2.36182e-07
-1.9107e-06
-6.65721e-07
-2.86749e-07
9.77701e-07
-9.97098e-07
2.62981e-06
-1.98211e-06
3.83803e-06
-3.10498e-06
4.54981e-06
-4.248e-06
4.77651e-06
-5.31488e-06
4.56488e-06
-6.23019e-06
3.9809e-06
-6.93725e-06
3.0992e-06
-7.39557e-06
1.99696e-06
-7.57871e-06
7.52022e-07
-7.47324e-06
-5.56052e-07
-7.07919e-06
-1.84361e-06
-6.41195e-06
-3.02065e-06
-5.50564e-06
-3.99028e-06
-4.41711e-06
-4.65156e-06
-3.2294e-06
-4.90735e-06
-2.05297e-06
-4.67795e-06
-1.02255e-06
-3.91943e-06
-2.88284e-07
-2.64496e-06
-9.54005e-07
-3.36334e-07
1.31404e-06
-1.16038e-06
3.45386e-06
-2.28804e-06
4.96569e-06
-3.55503e-06
5.8168e-06
-4.82666e-06
6.04815e-06
-5.99912e-06
5.73733e-06
-6.99609e-06
4.97787e-06
-7.76359e-06
3.86669e-06
-8.26456e-06
2.49792e-06
-8.47468e-06
9.62152e-07
-8.38003e-06
-6.50705e-07
-7.97696e-06
-2.24668e-06
-7.27464e-06
-3.72298e-06
-6.30001e-06
-4.96491e-06
-5.10472e-06
-5.84685e-06
-3.77256e-06
-6.2395e-06
-2.42491e-06
-6.0256e-06
-1.22076e-06
-5.12359e-06
-3.47711e-07
-3.51801e-06
-1.30172e-06
-3.9096e-07
1.705e-06
-1.33489e-06
4.39779e-06
-2.60499e-06
6.23578e-06
-4.00597e-06
7.21778e-06
-5.38684e-06
7.42903e-06
-6.63979e-06
6.99028e-06
-7.69248e-06
6.03056e-06
-8.49851e-06
4.67273e-06
-9.02846e-06
3.02788e-06
-9.26297e-06
1.19666e-06
-9.1887e-06
-7.24979e-07
-8.79753e-06
-2.63785e-06
-8.08941e-06
-4.4311e-06
-7.07906e-06
-5.97526e-06
-5.80636e-06
-7.11955e-06
-4.34907e-06
-7.69679e-06
-2.83483e-06
-7.53985e-06
-1.4471e-06
-6.51131e-06
-4.18101e-07
-4.54701e-06
-1.71982e-06
-4.53455e-07
2.15845e-06
-1.52569e-06
5.47002e-06
-2.93489e-06
7.64499e-06
-4.45013e-06
8.73301e-06
-5.90634e-06
8.88524e-06
-7.19784e-06
8.28177e-06
-8.26369e-06
7.09642e-06
-9.0721e-06
5.48114e-06
-9.60691e-06
3.56269e-06
-9.85764e-06
1.44738e-06
-9.81347e-06
-7.6915e-07
-9.46142e-06
-2.9899e-06
-8.78915e-06
-5.10337e-06
-7.79303e-06
-6.97137e-06
-6.49224e-06
-8.42035e-06
-4.94799e-06
-9.24103e-06
-3.28512e-06
-9.20271e-06
-1.70868e-06
-8.08775e-06
-5.03589e-07
-5.7521e-06
-2.22341e-06
-5.28334e-07
2.68678e-06
-1.73966e-06
6.68134e-06
-3.27797e-06
9.1833e-06
-4.87161e-06
1.03267e-05
-6.347e-06
1.03606e-05
-7.61081e-06
9.54558e-06
-8.62434e-06
8.10995e-06
-9.37967e-06
6.23647e-06
-9.88098e-06
4.06399e-06
-1.01315e-05
1.69793e-06
-1.01258e-05
-7.74897e-07
-9.84633e-06
-3.26934e-06
-9.26598e-06
-5.68372e-06
-8.35633e-06
-7.88103e-06
-7.10469e-06
-9.67199e-06
-5.5407e-06
-1.0805e-05
-3.7707e-06
-1.09727e-05
-2.01217e-06
-9.84629e-06
-6.09688e-07
-7.15458e-06
-2.83309e-06
-6.23662e-07
3.31045e-06
-1.98737e-06
8.04505e-06
-3.63189e-06
1.08278e-05
-5.2419e-06
1.19367e-05
-6.64754e-06
1.17663e-05
-7.78444e-06
1.06825e-05
-8.65097e-06
8.97648e-06
-9.27426e-06
6.85976e-06
-9.68649e-06
4.47622e-06
-9.90977e-06
1.92121e-06
-9.9472e-06
-7.37476e-07
-9.77855e-06
-3.43799e-06
-9.36086e-06
-6.10141e-06
-8.63559e-06
-8.60629e-06
-7.54637e-06
-1.07612e-05
-6.07157e-06
-1.22798e-05
-4.27426e-06
-1.277e-05
-2.36364e-06
-1.17569e-05
-7.44775e-07
-8.77345e-06
-3.57787e-06
-7.54071e-07
4.06452e-06
-2.28433e-06
9.57532e-06
-3.98698e-06
1.25305e-05
-5.50905e-06
1.34587e-05
-6.70956e-06
1.29668e-05
-7.5785e-06
1.15514e-05
-8.16999e-06
9.56797e-06
-8.55756e-06
7.24733e-06
-8.80767e-06
4.72632e-06
-8.96499e-06
2.07854e-06
-9.04431e-06
-6.58155e-07
-9.0257e-06
-3.4566e-06
-8.85255e-06
-6.27455e-06
-8.43479e-06
-9.02406e-06
-7.66288e-06
-1.15331e-05
-6.44198e-06
-1.35007e-05
-4.75624e-06
-1.44558e-05
-2.76674e-06
-1.37464e-05
-9.22432e-07
-1.06178e-05
-4.5003e-06
-9.45199e-07
5.00972e-06
-2.64847e-06
1.12786e-05
-4.31095e-06
1.4193e-05
-5.57324e-06
1.4721e-05
-6.37061e-06
1.37641e-05
-6.78318e-06
1.1964e-05
-6.94039e-06
9.72518e-06
-6.96961e-06
7.27655e-06
-6.97264e-06
4.72936e-06
-7.01636e-06
2.12225e-06
-7.12847e-06
-5.46049e-07
-7.29363e-06
-3.29143e-06
-7.44853e-06
-6.11966e-06
-7.47779e-06
-8.99479e-06
-7.21787e-06
-1.1793e-05
-6.4827e-06
-1.42359e-05
-5.13341e-06
-1.58051e-05
-3.21497e-06
-1.56648e-05
-1.16438e-06
-1.26683e-05
-5.66468e-06
-1.23731e-06
6.24702e-06
-3.08327e-06
1.31245e-05
-4.50766e-06
1.56173e-05
-5.23441e-06
1.54478e-05
-5.35512e-06
1.38849e-05
-5.08172e-06
1.16906e-05
-4.63076e-06
9.27422e-06
-4.1791e-06
6.8249e-06
-3.85419e-06
4.40445e-06
-3.73685e-06
2.00491e-06
-3.86496e-06
-4.17939e-07
-4.23248e-06
-2.92391e-06
-4.78194e-06
-5.5702e-06
-5.39095e-06
-8.38578e-06
-5.85841e-06
-1.13256e-05
-5.90651e-06
-1.41878e-05
-5.23278e-06
-1.64788e-05
-3.66625e-06
-1.72314e-05
-1.50007e-06
-1.48345e-05
-7.16476e-06
-1.6738e-06
7.92082e-06
-3.51334e-06
1.49641e-05
-4.31526e-06
1.64193e-05
-4.08881e-06
1.52213e-05
-3.19296e-06
1.2989e-05
-1.99862e-06
1.04963e-05
-7.95004e-07
8.0706e-06
2.19493e-07
5.8104e-06
9.18399e-07
3.70554e-06
1.22578e-06
1.69754e-06
1.10223e-06
-2.94394e-07
5.41216e-07
-2.3629e-06
-4.22792e-07
-4.60619e-06
-1.69245e-06
-7.11612e-06
-3.07232e-06
-9.94573e-06
-4.23076e-06
-1.30293e-05
-4.69561e-06
-1.60139e-05
-3.96716e-06
-1.79598e-05
-1.94492e-06
-1.68568e-05
-9.10968e-06
-2.23068e-06
1.01515e-05
-3.59028e-06
1.63237e-05
-3.07775e-06
1.59067e-05
-1.34382e-06
1.34874e-05
8.97113e-07
1.07481e-05
3.15507e-06
8.23831e-06
5.13824e-06
6.08743e-06
6.68883e-06
4.25981e-06
7.72598e-06
2.66839e-06
8.2067e-06
1.21682e-06
8.10403e-06
-1.91725e-07
7.39917e-06
-1.65803e-06
6.08698e-06
-3.294e-06
4.19929e-06
-5.22842e-06
1.85423e-06
-7.60067e-06
-6.61658e-07
-1.05134e-05
-2.79214e-06
-1.38835e-05
-3.66207e-06
-1.70899e-05
-2.41154e-06
-1.81073e-05
-1.15212e-05
-2.57381e-06
1.27253e-05
-2.18345e-06
1.59333e-05
7.18091e-07
1.30052e-05
4.4696e-06
9.73589e-06
8.13334e-06
7.08433e-06
1.13016e-05
5.07e-06
1.38292e-05
3.5599e-06
1.56882e-05
2.4008e-06
1.68918e-05
1.46481e-06
1.7455e-05
6.53605e-07
1.73765e-05
-1.13204e-07
1.66306e-05
-9.12161e-07
1.51673e-05
-1.83067e-06
1.29236e-05
-2.98474e-06
9.86181e-06
-4.53889e-06
6.06201e-06
-6.71364e-06
1.91237e-06
-9.73381e-06
-1.55961e-06
-1.36179e-05
-2.45833e-06
-1.72086e-05
-1.39795e-05
-7.85014e-07
1.35103e-05
4.0808e-06
1.10675e-05
1.02976e-05
6.78843e-06
1.57937e-05
4.2398e-06
2.01581e-05
2.71991e-06
2.34581e-05
1.76995e-06
2.58609e-05
1.15714e-06
2.75216e-05
7.40056e-07
2.85541e-05
4.32295e-07
2.90265e-05
1.81222e-07
2.89623e-05
-4.89826e-08
2.83388e-05
-2.88701e-07
2.70819e-05
-5.73744e-07
2.50551e-05
-9.5796e-07
2.20517e-05
-1.53553e-06
1.78155e-05
-2.47742e-06
1.21724e-05
-4.09068e-06
5.47773e-06
-6.92324e-06
-1.29168e-07
-1.16017e-05
-1.41087e-05
1.35103e-05
2.45778e-05
3.13663e-05
3.56061e-05
3.8326e-05
4.00959e-05
4.12531e-05
4.19931e-05
4.24254e-05
4.26067e-05
4.25577e-05
4.2269e-05
4.16952e-05
4.07373e-05
3.92017e-05
3.67243e-05
3.26336e-05
2.57104e-05
1.41087e-05
)
;

boundaryField
{
    movingWall
    {
        type            calculated;
        value           uniform 0;
    }
    fixedWalls
    {
        type            calculated;
        value           uniform 0;
    }
    frontAndBack
    {
        type            empty;
        value           nonuniform List<scalar> 0();
    }
}


// ************************************************************************* //
