/*--------------------------------*- C++ -*----------------------------------*\
  =========                 |
  \\      /  F ield         | OpenFOAM: The Open Source CFD Toolbox
   \\    /   O peration     | Website:  https://openfoam.org
    \\  /    A nd           | Version:  8
     \\/     M anipulation  |
\*---------------------------------------------------------------------------*/
FoamFile
{
    version     2.0;
    format      ascii;
    class       volVectorField;
    location    "0.405";
    object      U;
}
// * * * * * * * * * * * * * * * * * * * * * * * * * * * * * * * * * * * * * //

dimensions      [0 1 -1 0 0 0 0];

internalField   nonuniform List<vector> 
400
(
(0.000253396 -0.000250446 0)
(0.000141197 0.000111423 0)
(-0.00117701 0.000564605 0)
(-0.00348118 0.000884989 0)
(-0.0063776 0.00104572 0)
(-0.00946965 0.00106175 0)
(-0.0124032 0.000957858 0)
(-0.0148853 0.000760447 0)
(-0.0166899 0.000494651 0)
(-0.0176587 0.000184562 0)
(-0.0177026 -0.000145272 0)
(-0.0168055 -0.000468375 0)
(-0.0150304 -0.000755427 0)
(-0.0125254 -0.000974281 0)
(-0.0095266 -0.00109121 0)
(-0.00635511 -0.00107403 0)
(-0.0034007 -0.000898139 0)
(-0.00108645 -0.0005564 0)
(0.000196432 -9.0367e-05 0)
(0.000267866 0.000262391 0)
(-7.74726e-05 -0.000169385 0)
(-0.00161161 0.00164485 0)
(-0.00569307 0.00361738 0)
(-0.0117192 0.00503495 0)
(-0.0188929 0.00574338 0)
(-0.0264017 0.00576036 0)
(-0.0334703 0.00517182 0)
(-0.0394282 0.00409264 0)
(-0.0437456 0.00264772 0)
(-0.0460488 0.000966953 0)
(-0.0461311 -0.000813256 0)
(-0.043963 -0.00254716 0)
(-0.0397026 -0.00407878 0)
(-0.0337039 -0.00524528 0)
(-0.0265143 -0.00588676 0)
(-0.0188552 -0.00586505 0)
(-0.011567 -0.00509492 0)
(-0.00551346 -0.00358953 0)
(-0.00149313 -0.00155918 0)
(-4.25788e-05 0.000227469 0)
(-0.000528628 0.00109165 0)
(-0.00371153 0.00573646 0)
(-0.0105893 0.0102248 0)
(-0.0199925 0.0134081 0)
(-0.0307661 0.0149468 0)
(-0.0418239 0.0148393 0)
(-0.052122 0.0132562 0)
(-0.0607467 0.0104565 0)
(-0.0669723 0.00674222 0)
(-0.0702857 0.00243893 0)
(-0.0704036 -0.00210664 0)
(-0.0672871 -0.00652573 0)
(-0.0611549 -0.0104296 0)
(-0.0524906 -0.0134216 0)
(-0.0420387 -0.015124 0)
(-0.0307751 -0.0152262 0)
(-0.0198298 -0.0135564 0)
(-0.0103639 -0.0101792 0)
(-0.00354864 -0.00555124 0)
(-0.000476859 -0.000948854 0)
(-0.000928261 0.00347996 0)
(-0.00569172 0.0122211 0)
(-0.0153024 0.0199224 0)
(-0.027918 0.0251987 0)
(-0.0419872 0.0275979 0)
(-0.0561814 0.0271384 0)
(-0.069255 0.0241098 0)
(-0.0801291 0.0189545 0)
(-0.0879519 0.0121959 0)
(-0.0921227 0.00440518 0)
(-0.0923073 -0.00380817 0)
(-0.0884538 -0.0117971 0)
(-0.0808082 -0.0188829 0)
(-0.0699257 -0.0243772 0)
(-0.0566714 -0.0276286 0)
(-0.0421964 -0.0281027 0)
(-0.0278576 -0.0254985 0)
(-0.0150942 -0.0198923 0)
(-0.00550523 -0.011928 0)
(-0.000861628 -0.00322496 0)
(-0.00127898 0.00687803 0)
(-0.00753633 0.0209543 0)
(-0.0198056 0.0325114 0)
(-0.0355363 0.0401045 0)
(-0.0527455 0.0432917 0)
(-0.0698613 0.0421941 0)
(-0.0854668 0.0372787 0)
(-0.0983645 0.0292139 0)
(-0.107624 0.0187778 0)
(-0.112593 0.00681385 0)
(-0.112902 -0.00578068 0)
(-0.108478 -0.0180554 0)
(-0.099566 -0.0290124 0)
(-0.0867424 -0.037634 0)
(-0.0709383 -0.0429463 0)
(-0.0534322 -0.0441302 0)
(-0.0357858 -0.0406799 0)
(-0.0197358 -0.0325934 0)
(-0.00737083 -0.0205911 0)
(-0.00120371 -0.00649832 0)
(-0.00160757 0.011216 0)
(-0.00931831 0.0318754 0)
(-0.02421 0.0479531 0)
(-0.043004 0.0580735 0)
(-0.063259 0.0619387 0)
(-0.0831555 0.0598826 0)
(-0.101127 0.0526296 0)
(-0.115896 0.0411268 0)
(-0.126492 0.0264376 0)
(-0.132241 0.00969299 0)
(-0.132753 -0.00791667 0)
(-0.127927 -0.0251329 0)
(-0.117969 -0.0406261 0)
(-0.103437 -0.0530207 0)
(-0.0852711 -0.0609677 0)
(-0.0648371 -0.0632814 0)
(-0.0438865 -0.0591432 0)
(-0.0244782 -0.0483453 0)
(-0.00925452 -0.0315582 0)
(-0.00153779 -0.0107288 0)
(-0.00194009 0.0164774 0)
(-0.0111214 0.0449751 0)
(-0.0286509 0.0662346 0)
(-0.0504807 0.0790608 0)
(-0.0736862 0.0834478 0)
(-0.0962054 0.0800755 0)
(-0.116354 0.0700255 0)
(-0.132817 0.0545857 0)
(-0.144634 0.0351322 0)
(-0.151144 0.0130847 0)
(-0.151952 -0.0100869 0)
(-0.146918 -0.0328333 0)
(-0.136183 -0.0535007 0)
(-0.120225 -0.0703381 0)
(-0.099934 -0.0815666 0)
(-0.0767024 -0.085534 0)
(-0.0524408 -0.0809648 0)
(-0.0295452 -0.0672779 0)
(-0.0112837 -0.0449401 0)
(-0.0019001 -0.0159518 0)
(-0.00230005 0.0226953 0)
(-0.0130251 0.0603016 0)
(-0.033251 0.0873646 0)
(-0.0580801 0.102998 0)
(-0.0840751 0.107666 0)
(-0.108954 0.102562 0)
(-0.130968 0.089245 0)
(-0.148835 0.0694115 0)
(-0.161667 0.044772 0)
(-0.168869 0.0170198 0)
(-0.170064 -0.0121339 0)
(-0.165072 -0.0408939 0)
(-0.153931 -0.0673152 0)
(-0.13697 -0.0892742 0)
(-0.114943 -0.104513 0)
(-0.0891762 -0.110798 0)
(-0.0616709 -0.106213 0)
(-0.0351485 -0.0895802 0)
(-0.0135859 -0.06095 0)
(-0.00232634 -0.0222778 0)
(-0.00271164 0.0299472 0)
(-0.015108 0.077957 0)
(-0.0381147 0.111357 0)
(-0.0658483 0.12975 0)
(-0.0943267 0.134318 0)
(-0.121099 0.126974 0)
(-0.144443 0.109902 0)
(-0.163213 0.0852821 0)
(-0.176687 0.0551673 0)
(-0.184406 0.0214869 0)
(-0.186057 -0.013875 0)
(-0.181422 -0.0489571 0)
(-0.170395 -0.081594 0)
(-0.153081 -0.109324 0)
(-0.129971 -0.129382 0)
(-0.102186 -0.138829 0)
(-0.0716894 -0.134888 0)
(-0.0414669 -0.11547 0)
(-0.016288 -0.0798956 0)
(-0.00285469 -0.0298897 0)
(-0.00320765 0.0383596 0)
(-0.0174662 0.0980894 0)
(-0.0433409 0.138189 0)
(-0.0737564 0.159046 0)
(-0.10416 0.162901 0)
(-0.132032 0.152673 0)
(-0.155825 0.131342 0)
(-0.174678 0.10164 0)
(-0.188168 0.0659577 0)
(-0.196068 0.0263895 0)
(-0.198186 -0.0151128 0)
(-0.194283 -0.0565456 0)
(-0.184081 -0.0956423 0)
(-0.167366 -0.129689 0)
(-0.144215 -0.155424 0)
(-0.115338 -0.169098 0)
(-0.0824457 -0.166803 0)
(-0.048636 -0.145124 0)
(-0.0195287 -0.10216 0)
(-0.00353356 -0.0390473 0)
(-0.00384395 0.0481286 0)
(-0.0202461 0.120893 0)
(-0.0490465 0.167752 0)
(-0.0816863 0.190366 0)
(-0.113053 0.192557 0)
(-0.140746 0.178615 0)
(-0.163622 0.152512 0)
(-0.181309 0.117593 0)
(-0.193846 0.076535 0)
(-0.201361 0.0314943 0)
(-0.203857 -0.0156589 0)
(-0.20111 -0.0630506 0)
(-0.192649 -0.108491 0)
(-0.177857 -0.149171 0)
(-0.156224 -0.181415 0)
(-0.127779 -0.200607 0)
(-0.0936442 -0.201425 0)
(-0.056733 -0.178574 0)
(-0.0234798 -0.128173 0)
(-0.00443553 -0.0501044 0)
(-0.00472536 0.059571 0)
(-0.0236947 0.146617 0)
(-0.0553829 0.199756 0)
(-0.0893764 0.22279 0)
(-0.120122 0.221892 0)
(-0.145676 0.203188 0)
(-0.165631 0.17184 0)
(-0.180371 0.131811 0)
(-0.190581 0.08597 0)
(-0.196863 0.0363765 0)
(-0.199502 -0.0153706 0)
(-0.198336 -0.067743 0)
(-0.192718 -0.118867 0)
(-0.181574 -0.166078 0)
(-0.163645 -0.205488 0)
(-0.137967 -0.231661 0)
(-0.104596 -0.237625 0)
(-0.0657335 -0.215525 0)
(-0.0283777 -0.158367 0)
(-0.00568208 -0.0635521 0)
(-0.00605157 0.0732282 0)
(-0.0282258 0.175563 0)
(-0.0625087 0.23357 0)
(-0.0962569 0.254746 0)
(-0.123857 0.248731 0)
(-0.144398 0.224026 0)
(-0.15867 0.187107 0)
(-0.168107 0.142462 0)
(-0.174201 0.092969 0)
(-0.178119 0.0403792 0)
(-0.180485 -0.0141984 0)
(-0.181266 -0.0698212 0)
(-0.179695 -0.125211 0)
(-0.17427 -0.17818 0)
(-0.162895 -0.224973 0)
(-0.143316 -0.259588 0)
(-0.113937 -0.273329 0)
(-0.0753931 -0.255066 0)
(-0.0345563 -0.19309 0)
(-0.00748628 -0.0801041 0)
(-0.00819205 0.0900461 0)
(-0.0344827 0.20802 0)
(-0.0704121 0.267883 0)
(-0.101023 0.283606 0)
(-0.121574 0.269811 0)
(-0.133107 0.237841 0)
(-0.138162 0.195404 0)
(-0.139462 0.147233 0)
(-0.139367 0.0959093 0)
(-0.139594 0.0426197 0)
(-0.141109 -0.0122329 0)
(-0.144055 -0.0685071 0)
(-0.147668 -0.125794 0)
(-0.150169 -0.182769 0)
(-0.14872 -0.236324 0)
(-0.139643 -0.280447 0)
(-0.119095 -0.305025 0)
(-0.0849359 -0.295158 0)
(-0.0424404 -0.232377 0)
(-0.010216 -0.100837 0)
(-0.0117675 0.111635 0)
(-0.0432596 0.243961 0)
(-0.0782971 0.300034 0)
(-0.100627 0.305092 0)
(-0.108351 0.28046 0)
(-0.10573 0.240382 0)
(-0.097528 0.193281 0)
(-0.0877692 0.143549 0)
(-0.0794992 0.0930359 0)
(-0.0747835 0.042095 0)
(-0.0748012 -0.00972877 0)
(-0.0798891 -0.0632111 0)
(-0.0894614 -0.11899 0)
(-0.101787 -0.176957 0)
(-0.113685 -0.235285 0)
(-0.120304 -0.288882 0)
(-0.115263 -0.327196 0)
(-0.0922662 -0.331794 0)
(-0.0523156 -0.275403 0)
(-0.0144303 -0.127347 0)
(-0.0175493 0.140659 0)
(-0.0547644 0.282145 0)
(-0.0827859 0.324718 0)
(-0.0880798 0.312473 0)
(-0.0751076 0.274456 0)
(-0.0525897 0.22677 0)
(-0.0274569 0.177288 0)
(-0.00451273 0.129135 0)
(0.0131008 0.0829128 0)
(0.0234421 0.0379469 0)
(0.0254006 -0.00707352 0)
(0.0185095 -0.0537586 0)
(0.00298167 -0.103752 0)
(-0.0199953 -0.15832 0)
(-0.0476845 -0.217502 0)
(-0.0749838 -0.278361 0)
(-0.093546 -0.331791 0)
(-0.0920634 -0.357682 0)
(-0.0632804 -0.319294 0)
(-0.0206336 -0.161974 0)
(-0.0254497 0.181711 0)
(-0.0657745 0.317771 0)
(-0.0733328 0.331362 0)
(-0.0480765 0.295401 0)
(-0.0055774 0.244212 0)
(0.0412197 0.19238 0)
(0.0846545 0.145047 0)
(0.120538 0.102972 0)
(0.146704 0.0651379 0)
(0.162049 0.0298914 0)
(0.165943 -0.00467161 0)
(0.157938 -0.0406286 0)
(0.137734 -0.0802466 0)
(0.105442 -0.125918 0)
(0.0622633 -0.179726 0)
(0.0118065 -0.24202 0)
(-0.0378294 -0.307878 0)
(-0.0716791 -0.360143 0)
(-0.0700554 -0.356608 0)
(-0.0279122 -0.208375 0)
(-0.029649 0.239176 0)
(-0.0608413 0.335767 0)
(-0.0219422 0.300503 0)
(0.0505422 0.240127 0)
(0.127573 0.182949 0)
(0.197008 0.135389 0)
(0.254338 0.0973991 0)
(0.298252 0.0668511 0)
(0.328826 0.0413554 0)
(0.346468 0.0187786 0)
(0.351377 -0.0027942 0)
(0.343304 -0.0252652 0)
(0.32147 -0.0507878 0)
(0.284643 -0.0820482 0)
(0.231573 -0.122446 0)
(0.162181 -0.175669 0)
(0.0799009 -0.243431 0)
(-0.00318974 -0.319136 0)
(-0.0546695 -0.368612 0)
(-0.0284594 -0.267618 0)
(0.00808309 0.281861 0)
(0.019783 0.294972 0)
(0.139066 0.210973 0)
(0.26446 0.143477 0)
(0.364368 0.097186 0)
(0.440364 0.0657775 0)
(0.496743 0.0442375 0)
(0.536874 0.028886 0)
(0.563447 0.0171989 0)
(0.578306 0.00748478 0)
(0.582381 -0.00149414 0)
(0.575696 -0.0108453 0)
(0.557309 -0.0218471 0)
(0.525135 -0.036335 0)
(0.475777 -0.0572596 0)
(0.404537 -0.0893841 0)
(0.305176 -0.139741 0)
(0.173417 -0.216386 0)
(0.041172 -0.311655 0)
(0.0184302 -0.299995 0)
(0.299604 0.146091 0)
(0.396272 0.127503 0)
(0.55742 0.0760895 0)
(0.674487 0.0437233 0)
(0.743888 0.0255721 0)
(0.787153 0.0152422 0)
(0.815485 0.00921233 0)
(0.833955 0.00550941 0)
(0.845385 0.00302718 0)
(0.851371 0.00114934 0)
(0.852666 -0.000499387 0)
(0.849382 -0.00221507 0)
(0.840999 -0.00433856 0)
(0.82614 -0.00742408 0)
(0.802078 -0.0125322 0)
(0.763621 -0.0217728 0)
(0.699108 -0.0392829 0)
(0.583952 -0.0726601 0)
(0.415827 -0.127868 0)
(0.308819 -0.149468 0)
)
;

boundaryField
{
    movingWall
    {
        type            fixedValue;
        value           uniform (1 0 0);
    }
    fixedWalls
    {
        type            noSlip;
    }
    frontAndBack
    {
        type            empty;
    }
}


// ************************************************************************* //
