0 	0 	0 	0
1.57135 	-0.0063545 	0.00318964 	0
3.1427 	-0.0200516 	0.0204944 	0
4.71405 	-0.0261662 	0.0432911 	0
6.28539 	-0.0145979 	0.0604677 	0
7.85674 	0.00646336 	0.0592785 	0
9.42809 	0.0284652 	0.0364786 	0
10.9994 	0.0350802 	-0.011398 	0
12.5708 	0.110414 	-0.0985733 	0
14.1421 	0.5 	0 	0
