/*--------------------------------*- C++ -*----------------------------------*\
  =========                 |
  \\      /  F ield         | OpenFOAM: The Open Source CFD Toolbox
   \\    /   O peration     | Website:  https://openfoam.org
    \\  /    A nd           | Version:  8
     \\/     M anipulation  |
\*---------------------------------------------------------------------------*/
FoamFile
{
    version     2.0;
    format      ascii;
    class       volScalarField;
    location    "0.64";
    object      p;
}
// * * * * * * * * * * * * * * * * * * * * * * * * * * * * * * * * * * * * * //

dimensions      [0 2 -2 0 0 0 0];

internalField   nonuniform List<scalar> 
400
(
-5.17545e-12
-1.02802e-06
-1.78273e-06
-2.29381e-06
-2.59027e-06
-2.6978e-06
-2.64054e-06
-2.43527e-06
-2.10475e-06
-1.68297e-06
-1.23166e-06
-8.06754e-07
-4.06384e-07
1.25923e-08
4.7087e-07
9.41473e-07
1.37448e-06
1.6808e-06
1.63632e-06
1.02947e-06
-2.83559e-07
-1.07818e-06
-1.62267e-06
-1.9783e-06
-2.21829e-06
-2.31535e-06
-2.26902e-06
-2.10871e-06
-1.84635e-06
-1.5028e-06
-1.14224e-06
-8.23833e-07
-5.42071e-07
-2.51182e-07
7.05235e-08
4.04398e-07
7.33179e-07
1.0121e-06
1.03418e-06
5.55059e-07
-5.73168e-07
-1.30164e-06
-1.69342e-06
-1.90565e-06
-2.04688e-06
-2.09471e-06
-2.0395e-06
-1.89727e-06
-1.67106e-06
-1.37831e-06
-1.07974e-06
-8.31432e-07
-6.27997e-07
-4.22533e-07
-1.84493e-07
8.48792e-08
3.93651e-07
7.11549e-07
7.92287e-07
3.14529e-07
-8.60882e-07
-1.62803e-06
-1.88959e-06
-1.94517e-06
-1.97416e-06
-1.96021e-06
-1.88525e-06
-1.75179e-06
-1.55133e-06
-1.29406e-06
-1.03846e-06
-8.41981e-07
-6.98883e-07
-5.53511e-07
-3.59499e-07
-1.05036e-07
2.27962e-07
6.09413e-07
7.241e-07
1.65987e-07
-1.08503e-06
-1.92131e-06
-2.0828e-06
-1.98866e-06
-1.91831e-06
-1.85641e-06
-1.76392e-06
-1.63309e-06
-1.45095e-06
-1.22521e-06
-1.01151e-06
-8.62698e-07
-7.66122e-07
-6.57201e-07
-4.80485e-07
-2.18847e-07
1.47088e-07
5.88384e-07
7.38478e-07
9.46252e-08
-1.18094e-06
-2.08606e-06
-2.19725e-06
-2.00099e-06
-1.86099e-06
-1.76347e-06
-1.65259e-06
-1.52052e-06
-1.35875e-06
-1.17256e-06
-1.00524e-06
-8.95417e-07
-8.22642e-07
-7.21442e-07
-5.39782e-07
-2.63506e-07
1.31238e-07
6.22949e-07
8.18259e-07
1.3034e-07
-1.14006e-06
-2.12944e-06
-2.24403e-06
-2.00106e-06
-1.81876e-06
-1.69149e-06
-1.56391e-06
-1.43692e-06
-1.3046e-06
-1.16172e-06
-1.03253e-06
-9.42081e-07
-8.6988e-07
-7.57637e-07
-5.59681e-07
-2.645e-07
1.5902e-07
7.01079e-07
9.52e-07
2.61855e-07
-1.01362e-06
-2.09844e-06
-2.25842e-06
-2.00884e-06
-1.80455e-06
-1.65949e-06
-1.5279e-06
-1.41722e-06
-1.31747e-06
-1.20895e-06
-1.09931e-06
-1.00755e-06
-9.20774e-07
-7.91444e-07
-5.77498e-07
-2.63247e-07
1.92732e-07
7.91173e-07
1.11003e-06
4.4803e-07
-8.6712e-07
-2.04782e-06
-2.27621e-06
-2.04301e-06
-1.8355e-06
-1.69079e-06
-1.56973e-06
-1.48012e-06
-1.40478e-06
-1.31234e-06
-1.20141e-06
-1.09285e-06
-9.84628e-07
-8.37762e-07
-6.09858e-07
-2.77401e-07
2.11712e-07
8.65933e-07
1.2548e-06
6.343e-07
-7.44506e-07
-2.01126e-06
-2.31672e-06
-2.11665e-06
-1.92512e-06
-1.79682e-06
-1.69306e-06
-1.61918e-06
-1.55275e-06
-1.45617e-06
-1.32562e-06
-1.18842e-06
-1.05351e-06
-8.87005e-07
-6.44054e-07
-2.95187e-07
2.18131e-07
9.10785e-07
1.35466e-06
7.77555e-07
-6.6889e-07
-2.00094e-06
-2.38613e-06
-2.23652e-06
-2.07701e-06
-1.9723e-06
-1.88275e-06
-1.81325e-06
-1.74009e-06
-1.6234e-06
-1.45968e-06
-1.28377e-06
-1.11494e-06
-9.23659e-07
-6.64072e-07
-3.05139e-07
2.13289e-07
9.13351e-07
1.38496e-06
8.49624e-07
-6.54112e-07
-2.02438e-06
-2.48718e-06
-2.40093e-06
-2.2802e-06
-2.19577e-06
-2.11145e-06
-2.03567e-06
-1.94591e-06
-1.80056e-06
-1.5957e-06
-1.37284e-06
-1.16189e-06
-9.39917e-07
-6.64195e-07
-3.05882e-07
1.95002e-07
8.69358e-07
1.33741e-06
8.37681e-07
-7.02392e-07
-2.08211e-06
-2.60946e-06
-2.58699e-06
-2.50177e-06
-2.42946e-06
-2.34278e-06
-2.25606e-06
-2.14731e-06
-1.97091e-06
-1.72064e-06
-1.44443e-06
-1.18432e-06
-9.27675e-07
-6.38915e-07
-2.92957e-07
1.70879e-07
7.92064e-07
1.22585e-06
7.48566e-07
-7.99572e-07
-2.15945e-06
-2.72486e-06
-2.7543e-06
-2.69881e-06
-2.63531e-06
-2.54587e-06
-2.44922e-06
-2.32188e-06
-2.11271e-06
-1.81322e-06
-1.47914e-06
-1.16665e-06
-8.75394e-07
-5.78338e-07
-2.54048e-07
1.58318e-07
7.03362e-07
1.07371e-06
6.02449e-07
-9.19481e-07
-2.23302e-06
-2.80902e-06
-2.87686e-06
-2.85036e-06
-2.80135e-06
-2.71519e-06
-2.60994e-06
-2.46042e-06
-2.21287e-06
-1.86007e-06
-1.46738e-06
-1.10428e-06
-7.80812e-07
-4.77417e-07
-1.7788e-07
1.72482e-07
6.18711e-07
8.98886e-07
4.18254e-07
-1.02948e-06
-2.27379e-06
-2.85328e-06
-2.96174e-06
-2.9716e-06
-2.94547e-06
-2.86706e-06
-2.75007e-06
-2.57043e-06
-2.27841e-06
-1.87222e-06
-1.42512e-06
-1.01466e-06
-6.57439e-07
-3.41858e-07
-6.27065e-08
2.18677e-07
5.45879e-07
7.14437e-07
2.14185e-07
-1.10559e-06
-2.25489e-06
-2.85253e-06
-3.02867e-06
-3.09129e-06
-3.09251e-06
-3.01728e-06
-2.88025e-06
-2.6645e-06
-2.32872e-06
-1.87519e-06
-1.37843e-06
-9.18964e-07
-5.21354e-07
-1.86217e-07
7.85218e-08
2.93768e-07
4.95966e-07
5.40068e-07
2.79821e-08
-1.12502e-06
-2.19096e-06
-2.83286e-06
-3.10957e-06
-3.23877e-06
-3.26393e-06
-3.1811e-06
-3.01518e-06
-2.75995e-06
-2.38015e-06
-1.87853e-06
-1.32915e-06
-8.15574e-07
-3.7116e-07
-9.17508e-09
2.50725e-07
4.1979e-07
5.20702e-07
4.46778e-07
-7.65854e-08
-1.06058e-06
-2.14741e-06
-2.89477e-06
-3.29741e-06
-3.49392e-06
-3.52724e-06
-3.41884e-06
-3.20978e-06
-2.90137e-06
-2.46043e-06
-1.89227e-06
-1.27607e-06
-6.99162e-07
-1.95926e-07
2.16362e-07
5.06912e-07
6.74795e-07
7.2944e-07
5.65913e-07
-2.27094e-08
-9.35637e-07
-2.23768e-06
-3.19279e-06
-3.7392e-06
-3.98842e-06
-4.00309e-06
-3.83959e-06
-3.55412e-06
-3.15526e-06
-2.61699e-06
-1.95058e-06
-1.236e-06
-5.62438e-07
2.98878e-08
5.29223e-07
9.18813e-07
1.1735e-06
1.25315e-06
1.02634e-06
2.82985e-07
)
;

boundaryField
{
    movingWall
    {
        type            zeroGradient;
    }
    fixedWalls
    {
        type            zeroGradient;
    }
    left
    {
        type            cyclic;
    }
    right
    {
        type            cyclic;
    }
    frontAndBack
    {
        type            empty;
    }
}


// ************************************************************************* //
