/*--------------------------------*- C++ -*----------------------------------*\
  =========                 |
  \\      /  F ield         | OpenFOAM: The Open Source CFD Toolbox
   \\    /   O peration     | Website:  https://openfoam.org
    \\  /    A nd           | Version:  8
     \\/     M anipulation  |
\*---------------------------------------------------------------------------*/
FoamFile
{
    version     2.0;
    format      ascii;
    class       surfaceScalarField;
    location    "0.64";
    object      phi;
}
// * * * * * * * * * * * * * * * * * * * * * * * * * * * * * * * * * * * * * //

dimensions      [0 3 -1 0 0 0 0];

internalField   nonuniform List<scalar> 
760
(
1.24327e-06
-1.17724e-12
1.24327e-06
3.70211e-12
1.24326e-06
6.40528e-12
1.24325e-06
7.36493e-12
1.24325e-06
7.34495e-12
1.24324e-06
6.85494e-12
1.24323e-06
5.9814e-12
1.24323e-06
4.97567e-12
1.24322e-06
3.89655e-12
1.24322e-06
2.67424e-12
1.24322e-06
1.36409e-12
1.24322e-06
6.52803e-14
1.24322e-06
-1.25247e-12
1.24322e-06
-2.72094e-12
1.24323e-06
-4.42949e-12
1.24324e-06
-6.36679e-12
1.24324e-06
-8.41391e-12
1.24325e-06
-9.99718e-12
1.24326e-06
-9.78706e-12
-6.48438e-12
3.72994e-06
-3.5126e-12
3.72994e-06
8.39003e-12
3.72993e-06
1.57259e-11
3.72992e-06
1.88587e-11
3.7299e-06
1.92898e-11
3.72989e-06
1.8193e-11
3.72988e-06
1.61523e-11
3.72987e-06
1.35708e-11
3.72987e-06
1.06546e-11
3.72986e-06
7.45742e-12
3.72986e-06
4.0279e-12
3.72986e-06
4.0293e-13
3.72986e-06
-3.47446e-12
3.72987e-06
-7.72785e-12
3.72987e-06
-1.2424e-11
3.72988e-06
-1.74448e-11
3.7299e-06
-2.22837e-11
3.72991e-06
-2.54789e-11
3.72993e-06
-2.42191e-11
-1.61581e-11
6.21708e-06
-6.48283e-12
6.21708e-06
1.08303e-11
6.21707e-06
2.24507e-11
6.21706e-06
2.78859e-11
6.21705e-06
2.932e-11
6.21704e-06
2.81465e-11
6.21703e-06
2.5331e-11
6.21702e-06
2.15413e-11
6.21702e-06
1.71244e-11
6.21701e-06
1.22098e-11
6.21701e-06
6.8642e-12
6.21701e-06
1.10292e-12
6.21701e-06
-5.14791e-12
6.21701e-06
-1.19903e-11
6.21702e-06
-1.94084e-11
6.21703e-06
-2.7064e-11
6.21704e-06
-3.40438e-11
6.21706e-06
-3.82374e-11
6.21707e-06
-3.59403e-11
-2.44925e-11
8.70502e-06
-9.91382e-12
8.70502e-06
1.05302e-11
8.70502e-06
2.50797e-11
8.70501e-06
3.27052e-11
8.70501e-06
3.53572e-11
8.705e-06
3.46721e-11
8.70499e-06
3.17535e-11
8.70499e-06
2.73913e-11
8.70498e-06
2.20787e-11
8.70498e-06
1.60624e-11
8.70498e-06
9.44285e-12
8.70498e-06
2.21795e-12
8.70498e-06
-5.68614e-12
8.70498e-06
-1.4319e-11
8.70498e-06
-2.35613e-11
8.70499e-06
-3.2905e-11
8.705e-06
-4.11599e-11
8.705e-06
-4.59392e-11
8.70501e-06
-4.33099e-11
-3.04973e-11
1.11941e-05
-1.32678e-11
1.11941e-05
8.02059e-12
1.11941e-05
2.38993e-11
1.11941e-05
3.30659e-11
1.11941e-05
3.69337e-11
1.11941e-05
3.70755e-11
1.11941e-05
3.45937e-11
1.11941e-05
3.03393e-11
1.11941e-05
2.48827e-11
1.11941e-05
1.85375e-11
1.11941e-05
1.14443e-11
1.11941e-05
3.62082e-12
1.11941e-05
-4.98337e-12
1.11941e-05
-1.43719e-11
1.11941e-05
-2.43523e-11
1.11941e-05
-3.43469e-11
1.11941e-05
-4.30886e-11
1.11941e-05
-4.82348e-11
1.11941e-05
-4.6064e-11
-3.37041e-11
1.36845e-05
-1.58026e-11
1.36845e-05
4.08743e-12
1.36845e-05
1.97204e-11
1.36845e-05
2.9459e-11
1.36845e-05
3.42241e-11
1.36845e-05
3.52971e-11
1.36845e-05
3.36539e-11
1.36845e-05
3.00995e-11
1.36845e-05
2.52048e-11
1.36845e-05
1.9308e-11
1.36845e-05
1.2583e-11
1.36845e-05
5.07965e-12
1.36845e-05
-3.22008e-12
1.36845e-05
-1.22907e-11
1.36845e-05
-2.19279e-11
1.36845e-05
-3.15909e-11
1.36845e-05
-4.01222e-11
1.36845e-05
-4.54386e-11
1.36845e-05
-4.43401e-11
-3.39841e-11
1.61765e-05
-1.70371e-11
1.61766e-05
-4.11809e-13
1.61766e-05
1.34564e-11
1.61766e-05
2.27382e-11
1.61766e-05
2.78834e-11
1.61766e-05
2.97842e-11
1.61766e-05
2.919e-11
1.61766e-05
2.67658e-11
1.61766e-05
2.30134e-11
1.61766e-05
1.82535e-11
1.61766e-05
1.26707e-11
1.61766e-05
6.33594e-12
1.61766e-05
-7.46155e-13
1.61766e-05
-8.539e-12
1.61766e-05
-1.68742e-11
1.61766e-05
-2.53305e-11
1.61766e-05
-3.3006e-11
1.61766e-05
-3.82556e-11
1.61765e-05
-3.85711e-11
-3.13202e-11
1.86704e-05
-1.67026e-11
1.86704e-05
-4.7476e-12
1.86704e-05
6.04984e-12
1.86704e-05
1.39059e-11
1.86704e-05
1.8825e-11
1.86704e-05
2.13002e-11
1.86705e-05
2.17884e-11
1.86705e-05
2.0747e-11
1.86705e-05
1.85512e-11
1.86705e-05
1.54596e-11
1.86705e-05
1.16371e-11
1.86705e-05
7.15596e-12
1.86705e-05
2.02864e-12
1.86705e-05
-3.7156e-12
1.86705e-05
-9.97948e-12
1.86704e-05
-1.6518e-11
1.86704e-05
-2.27656e-11
1.86704e-05
-2.76485e-11
1.86704e-05
-2.94435e-11
-2.59279e-11
2.11662e-05
-1.47456e-11
2.11662e-05
-8.40368e-12
2.11662e-05
-1.65501e-12
2.11663e-05
3.95817e-12
2.11663e-05
8.07064e-12
2.11663e-05
1.07948e-11
2.11663e-05
1.22681e-11
2.11663e-05
1.26991e-11
2.11663e-05
1.22926e-11
2.11663e-05
1.12052e-11
2.11663e-05
9.55139e-12
2.11663e-05
7.38458e-12
2.11663e-05
4.71173e-12
2.11663e-05
1.54323e-12
2.11663e-05
-2.10903e-12
2.11663e-05
-6.20463e-12
2.11663e-05
-1.05511e-11
2.11663e-05
-1.47157e-11
2.11662e-05
-1.78342e-11
-1.82604e-11
2.36641e-05
-1.13435e-11
2.36641e-05
-1.10726e-11
2.36641e-05
-8.97381e-12
2.36641e-05
-6.18631e-12
2.36642e-05
-3.34434e-12
2.36642e-05
-6.92669e-13
2.36642e-05
1.59027e-12
2.36642e-05
3.44709e-12
2.36642e-05
4.88396e-12
2.36642e-05
5.92768e-12
2.36642e-05
6.6188e-12
2.36642e-05
6.97591e-12
2.36642e-05
6.99294e-12
2.36642e-05
6.65797e-12
2.36642e-05
5.89945e-12
2.36642e-05
4.55645e-12
2.36642e-05
2.44723e-12
2.36642e-05
-6.4392e-13
2.36641e-05
-4.76941e-12
-8.97092e-12
2.61641e-05
-6.87043e-12
2.61641e-05
-1.26488e-11
2.61641e-05
-1.53936e-11
2.61642e-05
-1.5718e-11
2.61642e-05
-1.44316e-11
2.61642e-05
-1.21074e-11
2.61642e-05
-9.21809e-12
2.61642e-05
-6.08475e-12
2.61642e-05
-2.90955e-12
2.61642e-05
1.9083e-13
2.61642e-05
3.17016e-12
2.61642e-05
6.00431e-12
2.61642e-05
8.67318e-12
2.61642e-05
1.1148e-11
2.61642e-05
1.32899e-11
2.61642e-05
1.47661e-11
2.61642e-05
1.50554e-11
2.61642e-05
1.33372e-11
2.61642e-05
8.62776e-12
1.11949e-12
2.86663e-05
-1.85683e-12
2.86663e-05
-1.32137e-11
2.86663e-05
-2.05644e-11
2.86663e-05
-2.39498e-11
2.86663e-05
-2.42813e-11
2.86663e-05
-2.24268e-11
2.86663e-05
-1.9122e-11
2.86663e-05
-1.49322e-11
2.86663e-05
-1.02597e-11
2.86663e-05
-5.3613e-12
2.86663e-05
-3.70345e-13
2.86663e-05
4.64733e-12
2.86663e-05
9.6636e-12
2.86663e-05
1.46464e-11
2.86663e-05
1.94176e-11
2.86663e-05
2.35227e-11
2.86663e-05
2.61688e-11
2.86663e-05
2.60124e-11
2.86663e-05
2.11894e-11
1.10704e-11
3.11705e-05
3.06016e-12
3.11705e-05
-1.29858e-11
3.11705e-05
-2.42719e-11
3.11705e-05
-3.03093e-11
3.11705e-05
-3.20734e-11
3.11705e-05
-3.06931e-11
3.11705e-05
-2.7129e-11
3.11705e-05
-2.21534e-11
3.11705e-05
-1.63406e-11
3.11705e-05
-1.00664e-11
3.11705e-05
-3.53757e-12
3.11705e-05
3.14864e-12
3.11705e-05
9.96696e-12
3.11705e-05
1.69e-11
3.11705e-05
2.37665e-11
3.11705e-05
3.00551e-11
3.11705e-05
3.47958e-11
3.11705e-05
3.62335e-11
3.11705e-05
3.17584e-11
1.98755e-11
3.36766e-05
7.19629e-12
3.36766e-05
-1.22379e-11
3.36766e-05
-2.63812e-11
3.36766e-05
-3.43085e-11
3.36766e-05
-3.70789e-11
3.36766e-05
-3.60454e-11
3.36766e-05
-3.23462e-11
3.36766e-05
-2.6903e-11
3.36766e-05
-2.041e-11
3.36766e-05
-1.33214e-11
3.36766e-05
-5.89062e-12
3.36766e-05
1.77023e-12
3.36766e-05
9.65011e-12
3.36766e-05
1.77622e-11
3.36766e-05
2.59596e-11
3.36766e-05
3.37471e-11
3.36766e-05
4.00929e-11
3.36766e-05
4.29716e-11
3.36766e-05
3.92434e-11
2.65298e-11
3.61846e-05
9.88065e-12
3.61846e-05
-1.12014e-11
3.61846e-05
-2.67587e-11
3.61846e-05
-3.55076e-11
3.61846e-05
-3.86727e-11
3.61846e-05
-3.77768e-11
3.61846e-05
-3.40644e-11
3.61846e-05
-2.85276e-11
3.61846e-05
-2.19043e-11
3.61846e-05
-1.46693e-11
3.61846e-05
-7.08464e-12
3.61846e-05
7.39269e-13
3.61846e-05
8.81064e-12
3.61846e-05
1.71813e-11
3.61846e-05
2.57697e-11
3.61846e-05
3.41688e-11
3.61846e-05
4.14091e-11
3.61846e-05
4.53889e-11
3.61846e-05
4.26698e-11
3.01492e-11
3.86941e-05
1.0594e-11
3.86941e-05
-9.99307e-12
3.86941e-05
-2.52172e-11
3.86941e-05
-3.35118e-11
3.86941e-05
-3.63685e-11
3.86941e-05
-3.54072e-11
3.86941e-05
-3.18633e-11
3.86941e-05
-2.66868e-11
3.86941e-05
-2.05579e-11
3.86941e-05
-1.39021e-11
3.86941e-05
-6.95458e-12
3.86941e-05
1.82819e-13
3.86941e-05
7.53203e-12
3.86941e-05
1.51845e-11
3.86941e-05
2.3143e-11
3.86941e-05
3.11376e-11
3.86941e-05
3.83757e-11
3.86941e-05
4.29433e-11
3.86941e-05
4.12865e-11
3.00828e-11
4.12051e-05
9.26399e-12
4.12051e-05
-8.50795e-12
4.12051e-05
-2.14343e-11
4.12051e-05
-2.80249e-11
4.12051e-05
-2.99736e-11
4.12051e-05
-2.88656e-11
4.12051e-05
-2.57783e-11
4.1205e-05
-2.14922e-11
4.1205e-05
-1.65204e-11
4.1205e-05
-1.11631e-11
4.1205e-05
-5.59994e-12
4.1205e-05
6.45451e-14
4.1205e-05
5.84943e-12
4.1205e-05
1.18873e-11
4.12051e-05
1.8264e-11
4.12051e-05
2.48277e-11
4.12051e-05
3.10367e-11
4.12051e-05
3.54669e-11
4.12051e-05
3.48079e-11
2.58918e-11
4.37171e-05
6.23901e-12
4.37171e-05
-6.3008e-12
4.37171e-05
-1.49952e-11
4.37171e-05
-1.90044e-11
4.37171e-05
-1.98161e-11
4.37171e-05
-1.87441e-11
4.37171e-05
-1.65318e-11
4.37171e-05
-1.36796e-11
4.37171e-05
-1.04703e-11
4.37171e-05
-7.0317e-12
4.37171e-05
-3.4546e-12
4.37171e-05
1.60808e-13
4.37171e-05
3.79632e-12
4.37171e-05
7.56437e-12
4.37171e-05
1.15806e-11
4.37171e-05
1.58334e-11
4.37171e-05
2.00972e-11
4.37171e-05
2.34313e-11
4.37171e-05
2.35823e-11
1.77432e-11
4.623e-05
2.42468e-12
4.623e-05
-2.93259e-12
4.623e-05
-6.34484e-12
4.62299e-05
-7.66406e-12
4.62299e-05
-7.67872e-12
4.62299e-05
-7.06327e-12
4.62299e-05
-6.11589e-12
4.62299e-05
-5.03416e-12
4.62299e-05
-3.87054e-12
4.62299e-05
-2.58567e-12
4.62299e-05
-1.19995e-12
4.62299e-05
1.64787e-13
4.62299e-05
1.46092e-12
4.62299e-05
2.81709e-12
4.62299e-05
4.30991e-12
4.62299e-05
5.87627e-12
4.62299e-05
7.55691e-12
4.62299e-05
9.08239e-12
4.623e-05
9.52363e-12
7.27305e-12
4.87433e-05
4.87433e-05
4.87433e-05
4.87433e-05
4.87433e-05
4.87433e-05
4.87432e-05
4.87432e-05
4.87432e-05
4.87432e-05
4.87432e-05
4.87432e-05
4.87432e-05
4.87432e-05
4.87432e-05
4.87432e-05
4.87433e-05
4.87433e-05
4.87433e-05
)
;

boundaryField
{
    movingWall
    {
        type            calculated;
        value           uniform 0;
    }
    fixedWalls
    {
        type            calculated;
        value           uniform 0;
    }
    left
    {
        type            cyclic;
        value           nonuniform List<scalar> 
20
(
-3.86941e-05
-3.61846e-05
-3.36766e-05
-3.11705e-05
-2.86663e-05
-2.61641e-05
-2.36641e-05
-2.11662e-05
-1.86704e-05
-1.61765e-05
-1.36845e-05
-1.11941e-05
-8.70502e-06
-6.21708e-06
-3.72994e-06
-1.24327e-06
-4.12051e-05
-4.37171e-05
-4.623e-05
-4.87433e-05
)
;
    }
    right
    {
        type            cyclic;
        value           nonuniform List<scalar> 
20
(
3.86941e-05
3.61846e-05
3.36766e-05
3.11705e-05
2.86663e-05
2.61641e-05
2.36641e-05
2.11662e-05
1.86704e-05
1.61765e-05
1.36845e-05
1.11941e-05
8.70502e-06
6.21708e-06
3.72994e-06
1.24327e-06
4.12051e-05
4.37171e-05
4.623e-05
4.87433e-05
)
;
    }
    frontAndBack
    {
        type            empty;
        value           nonuniform List<scalar> 0();
    }
}


// ************************************************************************* //
