0 	0 	0 	0
1.57135 	-0.000691365 	0.000633984 	0
3.1427 	-0.0015393 	0.00112438 	0
4.71405 	-0.00261372 	0.00126043 	0
6.28539 	-0.00393935 	0.000849344 	0
7.85674 	-0.00551013 	-0.000270297 	0
9.42809 	-0.00754026 	-0.00218406 	0
10.9994 	-0.0113949 	-0.00497896 	0
12.5708 	-0.0147454 	-0.0129167 	0
14.1421 	0.5 	0 	0
