/*--------------------------------*- C++ -*----------------------------------*\
  =========                 |
  \\      /  F ield         | OpenFOAM: The Open Source CFD Toolbox
   \\    /   O peration     | Website:  https://openfoam.org
    \\  /    A nd           | Version:  8
     \\/     M anipulation  |
\*---------------------------------------------------------------------------*/
FoamFile
{
    version     2.0;
    format      ascii;
    class       surfaceScalarField;
    location    "1.48";
    object      phi;
}
// * * * * * * * * * * * * * * * * * * * * * * * * * * * * * * * * * * * * * //

dimensions      [0 3 -1 0 0 0 0];

internalField   nonuniform List<scalar> 
760
(
1.24953e-06
-1.08207e-20
1.24953e-06
-3.51734e-20
1.24953e-06
-4.57587e-20
1.24953e-06
-5.41231e-20
1.24953e-06
-6.28521e-20
1.24953e-06
-8.19701e-20
1.24953e-06
-9.38794e-20
1.24953e-06
-1.02641e-19
1.24953e-06
-9.51758e-20
1.24953e-06
-8.11723e-20
1.24953e-06
-5.31199e-20
1.24953e-06
-1.69268e-20
1.24953e-06
2.37784e-20
1.24953e-06
6.77391e-20
1.24953e-06
1.01515e-19
1.24953e-06
1.30679e-19
1.24953e-06
1.35139e-19
1.24953e-06
1.23576e-19
1.24953e-06
8.44085e-20
3.69441e-20
3.74859e-06
1.29518e-20
3.74859e-06
-1.37367e-19
3.74859e-06
-2.57337e-19
3.74859e-06
-3.41763e-19
3.74859e-06
-4.18604e-19
3.74859e-06
-4.66322e-19
3.74859e-06
-4.95074e-19
3.74859e-06
-4.66704e-19
3.74859e-06
-4.03821e-19
3.74859e-06
-2.85807e-19
3.74859e-06
-1.39284e-19
3.74859e-06
3.21171e-20
3.74859e-06
2.10666e-19
3.74859e-06
3.69266e-19
3.74859e-06
5.03267e-19
3.74859e-06
5.72774e-19
3.74859e-06
5.89618e-19
3.74859e-06
5.14567e-19
3.74859e-06
3.81254e-19
1.95832e-19
6.24769e-06
1.8574e-20
6.24769e-06
-3.77796e-19
6.24769e-06
-7.0752e-19
6.24769e-06
-9.69247e-19
6.24769e-06
-1.14566e-18
6.24769e-06
-1.25366e-18
6.24769e-06
-1.23733e-18
6.24769e-06
-1.1274e-18
6.24769e-06
-8.89029e-19
6.24769e-06
-5.7121e-19
6.24769e-06
-1.75541e-19
6.24769e-06
2.42975e-19
6.24769e-06
6.47193e-19
6.24769e-06
1.00358e-18
6.24769e-06
1.25308e-18
6.24769e-06
1.39088e-18
6.24769e-06
1.35963e-18
6.24769e-06
1.18968e-18
6.24769e-06
8.60636e-19
4.57881e-19
8.74685e-06
-3.74508e-20
8.74685e-06
-7.71297e-19
8.74685e-06
-1.39971e-18
8.74685e-06
-1.88053e-18
8.74685e-06
-2.20967e-18
8.74685e-06
-2.32774e-18
8.74685e-06
-2.25956e-18
8.74685e-06
-1.95533e-18
8.74685e-06
-1.48352e-18
8.74685e-06
-8.41665e-19
8.74685e-06
-1.20327e-19
8.74685e-06
6.33669e-19
8.74685e-06
1.33638e-18
8.74685e-06
1.91027e-18
8.74685e-06
2.31415e-18
8.74685e-06
2.46603e-18
8.74685e-06
2.38165e-18
8.74685e-06
2.01989e-18
8.74685e-06
1.4591e-18
7.29235e-19
1.12461e-05
-1.73059e-19
1.12461e-05
-1.26352e-18
1.12461e-05
-2.20505e-18
1.12461e-05
-2.93546e-18
1.12461e-05
-3.37649e-18
1.12461e-05
-3.52569e-18
1.12461e-05
-3.3226e-18
1.12461e-05
-2.83236e-18
1.12461e-05
-2.03946e-18
1.12461e-05
-1.06468e-18
1.12461e-05
4.04099e-20
1.12461e-05
1.14242e-18
1.12461e-05
2.14775e-18
1.12461e-05
2.95681e-18
1.12461e-05
3.46449e-18
1.12461e-05
3.64669e-18
1.12461e-05
3.43293e-18
1.12461e-05
2.88771e-18
1.12461e-05
2.01829e-18
9.68936e-19
1.37454e-05
-3.46241e-19
1.37454e-05
-1.74961e-18
1.37454e-05
-2.96156e-18
1.37454e-05
-3.87538e-18
1.37454e-05
-4.43197e-18
1.37454e-05
-4.54775e-18
1.37454e-05
-4.25559e-18
1.37454e-05
-3.52941e-18
1.37454e-05
-2.48863e-18
1.37454e-05
-1.17565e-18
1.37454e-05
2.41228e-19
1.37454e-05
1.65492e-18
1.37454e-05
2.91129e-18
1.37454e-05
3.88765e-18
1.37454e-05
4.49816e-18
1.37454e-05
4.64214e-18
1.37454e-05
4.34239e-18
1.37454e-05
3.57449e-18
1.37454e-05
2.47217e-18
1.10018e-18
1.62449e-05
-5.21397e-19
1.62449e-05
-2.10263e-18
1.62449e-05
-3.47717e-18
1.62449e-05
-4.51109e-18
1.62449e-05
-5.09605e-18
1.62449e-05
-5.21078e-18
1.62449e-05
-4.80172e-18
1.62449e-05
-3.95403e-18
1.62449e-05
-2.69478e-18
1.62449e-05
-1.19799e-18
1.62449e-05
4.42279e-19
1.62449e-05
2.03025e-18
1.62449e-05
3.43445e-18
1.62449e-05
4.5149e-18
1.62449e-05
5.14289e-18
1.62449e-05
5.27884e-18
1.62449e-05
4.86687e-18
1.62449e-05
3.99097e-18
1.62449e-05
2.68394e-18
1.14367e-18
1.87444e-05
-6.23439e-19
1.87444e-05
-2.25062e-18
1.87444e-05
-3.6425e-18
1.87444e-05
-4.67583e-18
1.87444e-05
-5.25909e-18
1.87444e-05
-5.32075e-18
1.87444e-05
-4.88582e-18
1.87444e-05
-3.955e-18
1.87444e-05
-2.66834e-18
1.87444e-05
-1.09576e-18
1.87444e-05
5.64598e-19
1.87444e-05
2.19572e-18
1.87444e-05
3.60836e-18
1.87444e-05
4.67352e-18
1.87444e-05
5.28959e-18
1.87444e-05
5.37206e-18
1.87444e-05
4.93299e-18
1.87444e-05
3.98197e-18
1.87444e-05
2.66389e-18
1.05688e-18
2.12441e-05
-6.72669e-19
2.12441e-05
-2.1514e-18
2.12441e-05
-3.42579e-18
2.12441e-05
-4.35558e-18
2.12441e-05
-4.8608e-18
2.12441e-05
-4.89844e-18
2.12441e-05
-4.44622e-18
2.12441e-05
-3.58571e-18
2.12441e-05
-2.3525e-18
2.12441e-05
-9.17481e-19
2.12441e-05
6.31983e-19
2.12441e-05
2.10732e-18
2.12441e-05
3.3967e-18
2.12441e-05
4.34896e-18
2.12441e-05
4.8769e-18
2.12441e-05
4.92875e-18
2.12441e-05
4.48112e-18
2.12441e-05
3.60638e-18
2.12441e-05
2.35265e-18
8.96205e-19
2.3744e-05
-6.40901e-19
2.3744e-05
-1.86436e-18
2.3744e-05
-2.88581e-18
2.3744e-05
-3.63228e-18
2.3744e-05
-4.0211e-18
2.3744e-05
-4.00963e-18
2.3744e-05
-3.62076e-18
2.3744e-05
-2.86408e-18
2.3744e-05
-1.85324e-18
2.3744e-05
-6.39359e-19
2.3744e-05
6.16337e-19
2.3744e-05
1.83666e-18
2.3744e-05
2.8637e-18
2.3744e-05
3.62322e-18
2.3744e-05
4.02671e-18
2.3744e-05
4.02919e-18
2.3744e-05
3.64135e-18
2.3744e-05
2.87744e-18
2.3744e-05
1.85216e-18
6.23156e-19
2.6244e-05
-6.00584e-19
2.6244e-05
-1.45014e-18
2.6244e-05
-2.17187e-18
2.6244e-05
-2.66931e-18
2.6244e-05
-2.91223e-18
2.6244e-05
-2.86752e-18
2.6244e-05
-2.54092e-18
2.6244e-05
-1.98086e-18
2.6244e-05
-1.21287e-18
2.6244e-05
-3.41333e-19
2.6244e-05
5.84745e-19
2.6244e-05
1.43354e-18
2.6244e-05
2.16048e-18
2.6244e-05
2.66369e-18
2.6244e-05
2.91371e-18
2.6244e-05
2.87352e-18
2.6244e-05
2.55423e-18
2.6244e-05
1.98648e-18
2.6244e-05
1.20648e-18
3.28968e-19
2.87441e-05
-5.24593e-19
2.87441e-05
-1.03021e-18
2.87441e-05
-1.41573e-18
2.87441e-05
-1.67963e-18
2.87441e-05
-1.76797e-18
2.87441e-05
-1.6922e-18
2.87441e-05
-1.44739e-18
2.87441e-05
-1.05549e-18
2.87441e-05
-5.77386e-19
2.87441e-05
-2.6677e-20
2.87441e-05
5.13119e-19
2.87441e-05
1.02328e-18
2.87441e-05
1.41749e-18
2.87441e-05
1.68063e-18
2.87441e-05
1.76703e-18
2.87441e-05
1.68893e-18
2.87441e-05
1.44536e-18
2.87441e-05
1.0582e-18
2.87441e-05
5.71946e-19
1.41699e-20
3.12444e-05
-4.61438e-19
3.12444e-05
-6.39578e-19
3.12444e-05
-7.73674e-19
3.12444e-05
-8.18257e-19
3.12444e-05
-7.92141e-19
3.12444e-05
-6.76727e-19
3.12444e-05
-5.05897e-19
3.12444e-05
-2.87095e-19
3.12444e-05
-3.3695e-20
3.12444e-05
2.17331e-19
3.12444e-05
4.60476e-19
3.12444e-05
6.41861e-19
3.12444e-05
7.76676e-19
3.12444e-05
8.19569e-19
3.12444e-05
7.93158e-19
3.12444e-05
6.77834e-19
3.12444e-05
4.97104e-19
3.12444e-05
2.73963e-19
3.12444e-05
1.92492e-20
-2.2675e-19
3.37449e-05
-3.80411e-19
3.37449e-05
-3.56763e-19
3.37449e-05
-2.90918e-19
3.37449e-05
-2.03029e-19
3.37449e-05
-8.39132e-20
3.37449e-05
2.84342e-20
3.37449e-05
1.41977e-19
3.37449e-05
2.42142e-19
3.37449e-05
3.21662e-19
3.37449e-05
3.71115e-19
3.37449e-05
3.75983e-19
3.37449e-05
3.63346e-19
3.37449e-05
2.94332e-19
3.37449e-05
2.10254e-19
3.37449e-05
8.85329e-20
3.37449e-05
-2.98675e-20
3.37449e-05
-1.56568e-19
3.37449e-05
-2.62502e-19
3.37449e-05
-3.32492e-19
-3.80171e-19
3.62454e-05
-3.01959e-19
3.62454e-05
-1.50754e-19
3.62454e-05
-2.05135e-21
3.62454e-05
1.55484e-19
3.62454e-05
2.87142e-19
3.62454e-05
3.96943e-19
3.62454e-05
4.64524e-19
3.62454e-05
4.86413e-19
3.62454e-05
4.68368e-19
3.62454e-05
4.00374e-19
3.62454e-05
2.99843e-19
3.62454e-05
1.59472e-19
3.62454e-05
1.7954e-20
3.62454e-05
-1.42838e-19
3.62454e-05
-2.83908e-19
3.62454e-05
-4.07294e-19
3.62454e-05
-4.80912e-19
3.62454e-05
-5.06495e-19
3.62454e-05
-4.85437e-19
-4.11536e-19
3.87461e-05
-2.02178e-19
3.87461e-05
-4.6773e-20
3.87461e-05
1.2521e-19
3.87461e-05
2.71894e-19
3.87461e-05
3.98411e-19
3.87461e-05
4.69804e-19
3.87461e-05
5.06138e-19
3.87461e-05
4.93338e-19
3.87461e-05
4.39194e-19
3.87461e-05
3.41096e-19
3.87461e-05
2.01968e-19
3.87461e-05
5.23389e-20
3.87461e-05
-1.11149e-19
3.87461e-05
-2.57599e-19
3.87461e-05
-3.91545e-19
3.87461e-05
-4.79504e-19
3.87461e-05
-5.23254e-19
3.87461e-05
-5.17092e-19
3.87461e-05
-4.56813e-19
-3.4503e-19
4.12469e-05
-1.1705e-19
4.12469e-05
1.09297e-20
4.12469e-05
1.2653e-19
4.12469e-05
2.43563e-19
4.12469e-05
3.18516e-19
4.12469e-05
3.67202e-19
4.12469e-05
3.76819e-19
4.12469e-05
3.59289e-19
4.12469e-05
3.06158e-19
4.12469e-05
2.20469e-19
4.12469e-05
1.15481e-19
4.12469e-05
-4.38029e-21
4.12469e-05
-1.17763e-19
4.12469e-05
-2.27173e-19
4.12469e-05
-3.13373e-19
4.12469e-05
-3.74017e-19
4.12469e-05
-3.91081e-19
4.12469e-05
-3.75245e-19
4.12469e-05
-3.18305e-19
-2.28761e-19
4.37477e-05
-4.89165e-20
4.37477e-05
1.82901e-20
4.37477e-05
9.00315e-20
4.37477e-05
1.36852e-19
4.37477e-05
1.78247e-19
4.37477e-05
1.99259e-19
4.37477e-05
1.95631e-19
4.37477e-05
1.74122e-19
4.37477e-05
1.46069e-19
4.37477e-05
1.05756e-19
4.37477e-05
4.61461e-20
4.37477e-05
-1.05153e-20
4.37477e-05
-7.28507e-20
4.37477e-05
-1.27752e-19
4.37477e-05
-1.751e-19
4.37477e-05
-2.0033e-19
4.37477e-05
-2.09443e-19
4.37477e-05
-1.90232e-19
4.37477e-05
-1.58948e-19
-1.14057e-19
4.62486e-05
-1.03179e-20
4.62486e-05
8.32272e-21
4.62486e-05
2.73423e-20
4.62486e-05
4.83988e-20
4.62486e-05
5.36945e-20
4.62486e-05
5.68571e-20
4.62486e-05
5.20326e-20
4.62486e-05
4.69387e-20
4.62486e-05
3.58046e-20
4.62486e-05
2.63764e-20
4.62486e-05
1.38215e-20
4.62486e-05
-6.60145e-21
4.62486e-05
-2.15296e-20
4.62486e-05
-3.92745e-20
4.62486e-05
-4.89026e-20
4.62486e-05
-5.6743e-20
4.62486e-05
-6.00117e-20
4.62486e-05
-5.4325e-20
4.62486e-05
-4.23037e-20
-2.49679e-20
4.87495e-05
4.87495e-05
4.87495e-05
4.87495e-05
4.87495e-05
4.87495e-05
4.87495e-05
4.87495e-05
4.87495e-05
4.87495e-05
4.87495e-05
4.87495e-05
4.87495e-05
4.87495e-05
4.87495e-05
4.87495e-05
4.87495e-05
4.87495e-05
4.87495e-05
)
;

boundaryField
{
    movingWall
    {
        type            calculated;
        value           uniform 0;
    }
    fixedWalls
    {
        type            calculated;
        value           uniform 0;
    }
    left
    {
        type            cyclic;
        value           nonuniform List<scalar> 
20
(
-3.87461e-05
-3.62454e-05
-3.37449e-05
-3.12444e-05
-2.87441e-05
-2.6244e-05
-2.3744e-05
-2.12441e-05
-1.87444e-05
-1.62449e-05
-1.37454e-05
-1.12461e-05
-8.74685e-06
-6.24769e-06
-3.74859e-06
-1.24953e-06
-4.12469e-05
-4.37477e-05
-4.62486e-05
-4.87495e-05
)
;
    }
    right
    {
        type            cyclic;
        value           nonuniform List<scalar> 
20
(
3.87461e-05
3.62454e-05
3.37449e-05
3.12444e-05
2.87441e-05
2.6244e-05
2.3744e-05
2.12441e-05
1.87444e-05
1.62449e-05
1.37454e-05
1.12461e-05
8.74685e-06
6.24769e-06
3.74859e-06
1.24953e-06
4.12469e-05
4.37477e-05
4.62486e-05
4.87495e-05
)
;
    }
    frontAndBack
    {
        type            empty;
        value           nonuniform List<scalar> 0();
    }
}


// ************************************************************************* //
