0 	-3.61857e-09
1.57135 	8.61535e-07
3.1427 	9.94869e-06
4.71405 	4.58881e-05
6.28539 	0.00013615
7.85674 	0.000314384
9.42809 	0.0006157
10.9994 	0.00109458
12.5708 	0.001932
14.1421 	0.00469616
