0 	0 	0 	0
1.57135 	0.00545757 	-0.0114735 	0
3.1427 	-0.037347 	0.036568 	0
4.71405 	-0.0700604 	0.0969599 	0
6.28539 	-0.0413137 	0.090015 	0
7.85674 	0.00379765 	0.0354335 	0
9.42809 	0.0428727 	-0.00959579 	0
10.9994 	0.057875 	-0.0461406 	0
12.5708 	0.120878 	-0.108923 	0
14.1421 	0.5 	0 	0
