0 	0 	0 	0
1.57135 	-0.000983867 	0.00092236 	0
3.1427 	-0.00218334 	0.00173287 	0
4.71405 	-0.0037076 	0.00219458 	0
6.28539 	-0.00573716 	0.00212634 	0
7.85674 	-0.00856306 	0.00141354 	0
9.42809 	-0.0129232 	0.000603312 	0
10.9994 	-0.0205117 	0.00374965 	0
12.5708 	-0.00163545 	-0.0163424 	0
14.1421 	0.5 	0 	0
