0 	7.05603e-08
1.57135 	-9.3359e-07
3.1427 	-5.9062e-06
4.71405 	-1.89727e-05
6.28539 	-4.50714e-05
7.85674 	-9.5887e-05
9.42809 	-0.000220967
10.9994 	-0.00082588
12.5708 	-0.00316134
14.1421 	0.0159468
