/*--------------------------------*- C++ -*----------------------------------*\
  =========                 |
  \\      /  F ield         | OpenFOAM: The Open Source CFD Toolbox
   \\    /   O peration     | Website:  https://openfoam.org
    \\  /    A nd           | Version:  8
     \\/     M anipulation  |
\*---------------------------------------------------------------------------*/
FoamFile
{
    version     2.0;
    format      ascii;
    class       volScalarField;
    location    "28";
    object      p;
}
// * * * * * * * * * * * * * * * * * * * * * * * * * * * * * * * * * * * * * //

dimensions      [0 2 -2 0 0 0 0];

internalField   nonuniform List<scalar> 
12504
(
0.32924
0.326168
0.31971
0.309851
0.296859
0.281082
0.2629
0.242744
0.221095
0.198463
0.175347
0.152207
0.129444
0.107381
0.0862638
0.0662662
0.0475044
0.0300494
0.0139389
-0.000814686
-0.0142166
-0.0262858
-0.0370501
-0.0465445
-0.0548078
-0.0618833
-0.0678152
-0.0726518
-0.0764398
-0.0792306
-0.0810715
-0.0820167
-0.0821124
-0.0814161
-0.079971
-0.0778397
-0.0750592
-0.0717003
-0.0677885
-0.0634088
-0.0585665
-0.0533718
-0.0477937
-0.0419879
-0.0358585
-0.0296438
-0.0231317
-0.0167111
-0.00996221
-0.00355358
0.331449
0.328312
0.321709
0.311632
0.298362
0.282259
0.263722
0.243199
0.221195
0.198236
0.174839
0.151475
0.128546
0.106372
0.0851894
0.0651629
0.0463989
0.0289602
0.0128783
-0.0018386
-0.0151993
-0.0272252
-0.0379456
-0.0473964
-0.0556168
-0.0626505
-0.068542
-0.0733395
-0.0770896
-0.0798438
-0.0816492
-0.0825599
-0.0826219
-0.0818926
-0.080415
-0.0782522
-0.0754403
-0.0720508
-0.0681082
-0.0636989
-0.0588263
-0.053603
-0.047995
-0.0421621
-0.036003
-0.0297632
-0.0232211
-0.0167784
-0.00999788
-0.00357131
0.335926
0.332648
0.325751
0.31523
0.301391
0.284623
0.265359
0.244089
0.221359
0.197738
0.173774
0.149959
0.126699
0.104307
0.083001
0.0629232
0.0441601
0.0267585
0.0107378
-0.00390308
-0.0171794
-0.029117
-0.0397482
-0.0491106
-0.0572445
-0.0641942
-0.0700043
-0.074723
-0.078397
-0.0810775
-0.0828113
-0.0836526
-0.0836467
-0.0828513
-0.0813085
-0.0790819
-0.076207
-0.0727557
-0.0687516
-0.0642821
-0.0593493
-0.0540675
-0.0484007
-0.0425111
-0.0362948
-0.0300008
-0.0234034
-0.0169092
-0.0100746
-0.00359919
0.342766
0.339271
0.331918
0.320712
0.30599
0.288191
0.267799
0.245369
0.221516
0.196873
0.172043
0.147548
0.123801
0.101097
0.0796221
0.0594837
0.0407362
0.0234018
0.00748182
-0.00703795
-0.0201823
-0.0319836
-0.0424781
-0.0517058
-0.0597082
-0.0665303
-0.0722168
-0.0768164
-0.0803751
-0.0829441
-0.0845698
-0.0853061
-0.0851977
-0.0843021
-0.0826608
-0.0803378
-0.0773675
-0.0738226
-0.0697254
-0.0651646
-0.0601407
-0.0547701
-0.0490141
-0.0430386
-0.0367357
-0.0303594
-0.0236784
-0.017106
-0.010191
-0.00364015
0.352129
0.348331
0.340344
0.328183
0.31223
0.292988
0.271018
0.246965
0.221545
0.195488
0.169473
0.144068
0.119688
0.096598
0.0749325
0.0547451
0.0360452
0.018822
0.0030534
-0.0112919
-0.0242506
-0.035863
-0.0461697
-0.0552135
-0.0630371
-0.0696862
-0.0752057
-0.0796441
-0.0830471
-0.0854658
-0.0869455
-0.0875401
-0.0872933
-0.0862625
-0.0844882
-0.0820349
-0.0789356
-0.0752643
-0.0710411
-0.0663571
-0.0612096
-0.0557189
-0.049842
-0.0437503
-0.0373299
-0.0308425
-0.0240483
-0.0173706
-0.0103471
-0.00369578
0.364232
0.360035
0.351213
0.33779
0.320207
0.299048
0.274977
0.248764
0.221267
0.193353
0.165809
0.139263
0.114126
0.090608
0.0687643
0.0485699
0.0299742
0.0129252
-0.00262682
-0.0167332
-0.0294444
-0.0408092
-0.0508727
-0.0596799
-0.0672744
-0.0737027
-0.0790093
-0.0832426
-0.0864476
-0.088675
-0.0899691
-0.0903838
-0.0899611
-0.0887584
-0.0868149
-0.0841958
-0.0809322
-0.0770999
-0.0727162
-0.067875
-0.0625699
-0.0569259
-0.0508945
-0.0446546
-0.0380837
-0.031455
-0.0245159
-0.0177054
-0.0105435
-0.00376747
0.379364
0.374656
0.364769
0.349729
0.330047
0.30641
0.279613
0.250598
0.220418
0.190133
0.160684
0.132772
0.106791
0.0828536
0.0608942
0.0407767
0.022374
0.00558699
-0.00966475
-0.0234543
-0.0358464
-0.0468979
-0.056657
-0.0651702
-0.0724816
-0.0786377
-0.0836824
-0.0876638
-0.0906256
-0.0926183
-0.0936849
-0.0938788
-0.0932403
-0.0918269
-0.0896755
-0.0868526
-0.083387
-0.0793566
-0.0747753
-0.0697407
-0.0642412
-0.0584085
-0.052186
-0.0457635
-0.0390064
-0.032204
-0.0250858
-0.0181136
-0.0107812
-0.00385706
0.397892
0.392544
0.381323
0.364248
0.341911
0.315117
0.284828
0.252219
0.218614
0.185348
0.15358
0.1241
0.0972471
0.0729771
0.0510345
0.0311327
0.0130527
-0.00335419
-0.0181993
-0.0315779
-0.0435681
-0.0542321
-0.063619
-0.0717753
-0.0787445
-0.0845725
-0.0893021
-0.0929805
-0.0956501
-0.0973609
-0.0981543
-0.0980831
-0.0971856
-0.095519
-0.0931175
-0.0900493
-0.0863405
-0.0820718
-0.0772523
-0.0719847
-0.0662506
-0.06019
-0.0537367
-0.0470937
-0.0401111
-0.0330995
-0.0257643
-0.0185997
-0.0110616
-0.00396673
0.420275
0.414136
0.40127
0.381663
0.356001
0.325212
0.290471
0.253265
0.215295
0.178302
0.143758
0.112558
0.0849167
0.0605183
0.0388232
0.0193455
0.00176679
-0.0141056
-0.0284114
-0.0412665
-0.0527588
-0.0629511
-0.0718898
-0.0796188
-0.0861798
-0.0916174
-0.0959724
-0.0992908
-0.101613
-0.102989
-0.103459
-0.103073
-0.101869
-0.0999014
-0.0972024
-0.0938426
-0.0898451
-0.0852933
-0.0801908
-0.0746459
-0.0686327
-0.0623009
-0.0555724
-0.0486665
-0.0414147
-0.0341543
-0.02656
-0.0191692
-0.0113871
-0.0040983
0.447081
0.439973
0.425105
0.402373
0.372572
0.336734
0.296307
0.253199
0.209641
0.167981
0.130161
0.0971872
0.0690216
0.0448865
0.0238095
0.00505394
-0.0117861
-0.0269282
-0.0405323
-0.0527309
-0.0636143
-0.0732382
-0.0816409
-0.0888616
-0.0949385
-0.0999137
-0.103825
-0.106718
-0.10863
-0.109609
-0.109696
-0.108942
-0.107376
-0.105054
-0.102002
-0.098298
-0.0939608
-0.0890755
-0.0836403
-0.0777686
-0.0714271
-0.0647752
-0.0577228
-0.0505062
-0.0429373
-0.0353828
-0.0274837
-0.0198275
-0.0117604
-0.0042517
0.478996
0.470718
0.453442
0.426876
0.391943
0.349697
0.301961
0.251204
0.200427
0.152912
0.111281
0.0766549
0.0485175
0.0253156
0.00542457
-0.0121887
-0.0279748
-0.0421378
-0.0548432
-0.0662289
-0.0763736
-0.0853146
-0.0930765
-0.0996913
-0.105192
-0.109618
-0.113003
-0.11539
-0.116815
-0.117327
-0.116961
-0.115772
-0.113788
-0.111045
-0.10758
-0.103473
-0.0987397
-0.093465
-0.0876425
-0.0813898
-0.0746672
-0.0676416
-0.0602134
-0.0526332
-0.0446968
-0.0367967
-0.0285454
-0.0205776
-0.0121848
-0.00442231
0.516844
0.50718
0.487042
0.45581
0.414532
0.364089
0.306843
0.245967
0.185713
0.130867
0.0849836
0.0491864
0.0220858
0.000862206
-0.0170305
-0.0329246
-0.0472284
-0.060084
-0.0716429
-0.0820251
-0.0912721
-0.0993873
-0.106376
-0.112261
-0.11707
-0.120836
-0.123591
-0.125374
-0.126223
-0.126183
-0.125291
-0.123583
-0.121112
-0.117879
-0.113939
-0.109371
-0.104184
-0.0984628
-0.0921988
-0.0855105
-0.0783549
-0.0709016
-0.0630473
-0.0550488
-0.0466967
-0.0383959
-0.0297485
-0.0214152
-0.0126613
-0.00459769
0.561593
0.55033
0.526842
0.489999
0.440896
0.379875
0.310078
0.235426
0.162315
0.0982335
0.0480496
0.0124344
-0.011771
-0.0294341
-0.0442489
-0.0576786
-0.0699258
-0.0810302
-0.0911148
-0.100243
-0.108382
-0.115483
-0.121526
-0.126523
-0.130495
-0.133469
-0.135471
-0.136539
-0.136703
-0.136027
-0.13455
-0.132302
-0.1292
-0.125406
-0.120944
-0.115866
-0.110178
-0.103964
-0.0972155
-0.0900476
-0.0824186
-0.0744934
-0.0661745
-0.0577108
-0.0489066
-0.0401534
-0.0310784
-0.0223219
-0.0131859
-0.00475588
0.61435
0.60133
0.57398
0.530523
0.471759
0.396991
0.310385
0.216509
0.125247
0.0490547
-0.00479103
-0.0370032
-0.0546815
-0.0662207
-0.0764923
-0.086518
-0.0959787
-0.104769
-0.112962
-0.120507
-0.127257
-0.133098
-0.137983
-0.141909
-0.144886
-0.146934
-0.148071
-0.14833
-0.147732
-0.146331
-0.144262
-0.1413
-0.137591
-0.133234
-0.128228
-0.122619
-0.116413
-0.109691
-0.102446
-0.094784
-0.0866699
-0.0782556
-0.0694602
-0.0605079
-0.0512399
-0.042
-0.0324896
-0.0232589
-0.0137448
-0.00486894
0.676337
0.661536
0.629849
0.578817
0.507985
0.415214
0.305452
0.184061
0.0673682
-0.0252123
-0.0813702
-0.103913
-0.10828
-0.109346
-0.112803
-0.11809
-0.123862
-0.12974
-0.135622
-0.141246
-0.146321
-0.15067
-0.154221
-0.156947
-0.158841
-0.159905
-0.16015
-0.1596
-0.158295
-0.156268
-0.153365
-0.149792
-0.145556
-0.140681
-0.135168
-0.129066
-0.122384
-0.115193
-0.107489
-0.0993666
-0.0908013
-0.0819251
-0.0726816
-0.0632572
-0.0535488
-0.0438222
-0.0338999
-0.0241678
-0.0143105
-0.00491337
0.748847
0.732476
0.696236
0.636871
0.550706
0.433901
0.290471
0.127049
-0.0221786
-0.133692
-0.188199
-0.191169
-0.172086
-0.156365
-0.149538
-0.148116
-0.149219
-0.151847
-0.155342
-0.159039
-0.162468
-0.165395
-0.167712
-0.169363
-0.170316
-0.170555
-0.170069
-0.168857
-0.166927
-0.164276
-0.160922
-0.156925
-0.152274
-0.146989
-0.14108
-0.134593
-0.127536
-0.119972
-0.111901
-0.103404
-0.0944678
-0.0852034
-0.0755816
-0.0657466
-0.0556568
-0.0454872
-0.035204
-0.0249837
-0.0148435
-0.00488051
0.833117
0.81575
0.775582
0.707699
0.602247
0.452196
0.256921
0.0258995
-0.165608
-0.28433
-0.320653
-0.289331
-0.236798
-0.199093
-0.179191
-0.16978
-0.166221
-0.166254
-0.168147
-0.170654
-0.173098
-0.175176
-0.176748
-0.177742
-0.178117
-0.177851
-0.176924
-0.175307
-0.172999
-0.170035
-0.166421
-0.162159
-0.157245
-0.151705
-0.145548
-0.138816
-0.131517
-0.123703
-0.115382
-0.10662
-0.0974192
-0.0878675
-0.0779614
-0.0678073
-0.0574162
-0.0468847
-0.0363048
-0.0256561
-0.0152985
-0.00477608
0.929966
0.912779
0.871098
0.796036
0.668537
0.472273
0.191112
-0.134106
-0.320353
-0.429789
-0.42982
-0.360595
-0.277525
-0.223741
-0.196323
-0.182237
-0.176062
-0.174575
-0.175376
-0.177022
-0.178813
-0.180403
-0.181604
-0.182306
-0.182442
-0.181971
-0.180866
-0.179127
-0.176741
-0.173656
-0.169923
-0.16554
-0.160509
-0.15485
-0.148575
-0.141716
-0.134287
-0.126332
-0.117864
-0.10894
-0.0995722
-0.0898313
-0.0797332
-0.0693571
-0.0587475
-0.0479518
-0.0371384
-0.0261578
-0.0156301
-0.00460823
1.03907
1.02429
0.986132
0.908458
0.762021
0.506984
0.171579
-0.223131
-0.513862
-0.597598
-0.557266
-0.418774
-0.302597
-0.237427
-0.197638
-0.183016
-0.177468
-0.176564
-0.177688
-0.179463
-0.181276
-0.182831
-0.183971
-0.184606
-0.184679
-0.184154
-0.183003
-0.181212
-0.178758
-0.175667
-0.171905
-0.16748
-0.16241
-0.15671
-0.150391
-0.14348
-0.135995
-0.127972
-0.119432
-0.110421
-0.100961
-0.0911093
-0.0808959
-0.0703826
-0.0596287
-0.0486641
-0.037675
-0.0264763
-0.0157959
-0.0043796
1.15806
1.14944
1.12203
1.05285
0.900408
0.615688
0.182606
-0.27075
-0.604578
-0.312766
-0.239036
-0.202444
-0.183531
-0.17871
-0.177858
-0.178928
-0.180612
-0.182329
-0.183803
-0.18488
-0.185471
-0.185516
-0.184974
-0.183817
-0.182026
-0.179585
-0.176489
-0.172733
-0.168328
-0.163264
-0.157564
-0.151244
-0.144326
-0.13683
-0.128786
-0.120221
-0.111174
-0.101674
-0.0917695
-0.0814982
-0.0709137
-0.0600783
-0.0490247
-0.0379158
-0.0266097
-0.0157725
-0.00409867
1.28197
1.28424
1.27553
1.23649
1.08852
0.776531
0.290889
-0.233055
-0.199976
-0.184223
-0.177561
-0.17721
-0.178416
-0.180151
-0.181903
-0.183413
-0.18453
-0.185163
-0.185252
-0.184754
-0.183642
-0.181895
-0.179498
-0.176444
-0.172729
-0.168352
-0.163331
-0.157666
-0.15137
-0.144471
-0.13699
-0.128956
-0.120394
-0.111344
-0.101837
-0.0919177
-0.0816281
-0.0710193
-0.0601516
-0.049069
-0.0378964
-0.0265738
-0.0156055
-0.00376536
1.40324
1.41953
1.44119
1.44727
1.32901
1.02407
-0.196624
-0.179927
-0.174127
-0.174589
-0.176218
-0.17826
-0.180254
-0.18196
-0.183241
-0.184012
-0.184218
-0.183822
-0.182799
-0.181133
-0.178809
-0.175822
-0.17217
-0.167854
-0.162879
-0.157259
-0.151013
-0.144148
-0.136698
-0.128687
-0.120146
-0.111109
-0.101612
-0.0916997
-0.0814154
-0.0708111
-0.0599457
-0.0488731
-0.0376883
-0.0264149
-0.015471
-0.00324036
1.5105
1.54289
1.59953
1.66074
1.59374
1.35917
-0.172908
-0.169152
-0.170631
-0.172976
-0.17555
-0.177946
-0.179965
-0.181491
-0.182459
-0.182825
-0.182563
-0.181655
-0.180087
-0.177852
-0.174944
-0.171364
-0.167115
-0.162201
-0.156634
-0.15043
-0.143611
-0.136197
-0.128215
-0.119698
-0.110679
-0.101198
-0.0912985
-0.081028
-0.0704404
-0.0595943
-0.048549
-0.0373969
-0.026211
-0.0149821
-0.00329696
1.59155
1.63802
1.7273
1.8422
1.84552
1.72916
-0.168414
-0.163962
-0.166613
-0.16977
-0.172923
-0.175744
-0.178083
-0.179854
-0.181014
-0.181534
-0.181398
-0.180597
-0.179121
-0.176968
-0.174135
-0.170623
-0.166436
-0.161579
-0.156064
-0.149903
-0.143121
-0.135737
-0.12778
-0.119281
-0.110275
-0.100803
-0.0909115
-0.0806498
-0.0700748
-0.0592458
-0.0482262
-0.0371246
-0.0260135
-0.0145792
-0.00314095
1.63531
1.69005
1.79896
1.94528
2.02258
-0.155447
-0.160737
-0.164117
-0.167783
-0.171304
-0.174395
-0.176933
-0.178857
-0.180134
-0.180749
-0.180693
-0.17996
-0.178546
-0.17645
-0.17367
-0.170208
-0.166067
-0.161254
-0.155779
-0.149652
-0.142894
-0.135529
-0.127585
-0.119091
-0.110085
-0.100609
-0.090709
-0.0804391
-0.0698586
-0.0590274
-0.0480129
-0.0369396
-0.0258632
-0.014318
-0.0030132
1.63532
1.69006
1.79897
1.94529
2.05908
-0.151862
-0.160712
-0.16409
-0.167752
-0.171271
-0.174357
-0.176892
-0.178814
-0.180092
-0.180711
-0.180663
-0.179941
-0.178542
-0.176465
-0.173707
-0.170269
-0.166153
-0.161363
-0.155909
-0.1498
-0.143051
-0.135691
-0.127744
-0.11924
-0.110217
-0.100716
-0.0907881
-0.0804871
-0.0698743
-0.0590121
-0.0479708
-0.0368783
-0.0257955
-0.0142622
-0.00299183
1.59158
1.63805
1.72733
1.84224
1.94873
-0.157306
-0.163886
-0.166533
-0.16968
-0.172822
-0.175632
-0.177961
-0.179728
-0.18089
-0.181421
-0.181308
-0.18054
-0.17911
-0.177013
-0.174245
-0.170803
-0.166688
-0.161902
-0.156449
-0.150336
-0.143585
-0.136217
-0.128251
-0.11972
-0.110661
-0.101119
-0.0911436
-0.0807896
-0.0701201
-0.0592006
-0.0481029
-0.0369461
-0.0258168
-0.0144159
-0.00307777
1.51054
1.54294
1.59958
1.66081
1.71826
1.65161
-0.168578
-0.169031
-0.170501
-0.17283
-0.175385
-0.177762
-0.179765
-0.181284
-0.182256
-0.182641
-0.182416
-0.181562
-0.180069
-0.177925
-0.175124
-0.171658
-0.167526
-0.162726
-0.157257
-0.151125
-0.144365
-0.136971
-0.128974
-0.120404
-0.111299
-0.101704
-0.0916687
-0.0812496
-0.0705104
-0.0595205
-0.0483528
-0.0371155
-0.0259026
-0.0147218
-0.00319656
1.4033
1.41959
1.44125
1.44735
1.45327
1.29255
-0.176417
-0.17397
-0.174416
-0.17602
-0.178035
-0.180002
-0.181687
-0.182959
-0.183735
-0.183968
-0.183623
-0.182676
-0.18111
-0.178911
-0.176068
-0.17257
-0.168411
-0.163586
-0.158093
-0.15196
-0.145159
-0.137732
-0.129697
-0.121084
-0.11193
-0.10228
-0.0921854
-0.0817032
-0.0708989
-0.059846
-0.0486164
-0.0373241
-0.0260188
-0.0151248
-0.0031228
1.28204
1.28432
1.27561
1.23658
1.19769
0.885292
0.547698
-0.194012
-0.183029
-0.177377
-0.177
-0.178173
-0.179872
-0.18159
-0.183074
-0.18418
-0.184823
-0.184946
-0.184512
-0.183495
-0.181873
-0.179629
-0.176751
-0.173223
-0.169038
-0.164194
-0.158692
-0.152516
-0.145694
-0.138237
-0.130169
-0.121518
-0.112324
-0.102629
-0.0924902
-0.0819633
-0.071117
-0.0600293
-0.0487666
-0.0374729
-0.0261199
-0.0152218
-0.00361116
1.15814
1.14953
1.12212
1.05295
0.900526
0.679998
0.193287
-0.202028
-0.237375
-0.203337
-0.18335
-0.178506
-0.177619
-0.178648
-0.180288
-0.181966
-0.183411
-0.184477
-0.185081
-0.185168
-0.184703
-0.183658
-0.182014
-0.179749
-0.176853
-0.173305
-0.169116
-0.164258
-0.158733
-0.152545
-0.145708
-0.138233
-0.130146
-0.121474
-0.112262
-0.102548
-0.092396
-0.0818594
-0.0710129
-0.0599376
-0.0486927
-0.0374577
-0.026127
-0.0153687
-0.00392997
1.03916
1.02438
0.986229
0.908564
0.762141
0.507124
0.169426
-0.310632
-0.547747
-0.437109
-0.307384
-0.243533
-0.19746
-0.182826
-0.177249
-0.176304
-0.17738
-0.179107
-0.180877
-0.182403
-0.183535
-0.184188
-0.184312
-0.183874
-0.18285
-0.181221
-0.178961
-0.176087
-0.172558
-0.168357
-0.163499
-0.157979
-0.151796
-0.144963
-0.137492
-0.129415
-0.120754
-0.111561
-0.10187
-0.091755
-0.0812615
-0.0704755
-0.0594749
-0.0483189
-0.0372065
-0.0259916
-0.0153961
-0.00421065
0.930061
0.912876
0.8712
0.796145
0.668658
0.472407
0.191265
-0.133931
-0.416272
-0.543913
-0.502053
-0.391214
-0.277329
-0.223554
-0.196138
-0.182038
-0.17583
-0.174299
-0.17505
-0.176648
-0.178399
-0.179963
-0.18116
-0.181888
-0.182084
-0.181712
-0.180743
-0.17917
-0.176993
-0.174133
-0.170633
-0.166478
-0.161657
-0.156175
-0.150028
-0.143238
-0.135813
-0.127793
-0.119193
-0.110079
-0.100473
-0.0904639
-0.0800846
-0.0694391
-0.0585882
-0.047611
-0.0366836
-0.025695
-0.0152555
-0.00445031
0.833218
0.815853
0.775688
0.707811
0.602367
0.452327
0.257064
0.0260577
-0.165436
-0.284147
-0.320462
-0.289138
-0.236607
-0.198905
-0.178999
-0.169571
-0.165982
-0.165974
-0.167821
-0.170285
-0.172695
-0.174754
-0.176331
-0.177359
-0.177802
-0.17764
-0.176855
-0.17542
-0.173306
-0.170559
-0.167172
-0.163129
-0.158413
-0.153034
-0.146992
-0.140314
-0.133007
-0.12512
-0.116662
-0.107709
-0.0982743
-0.0884631
-0.078288
-0.06788
-0.0572644
-0.0465679
-0.0358879
-0.0252372
-0.0149658
-0.00463728
0.748952
0.732583
0.696346
0.636985
0.550826
0.434028
0.290608
0.127195
-0.0220222
-0.133525
-0.188025
-0.190992
-0.171907
-0.156183
-0.149348
-0.14791
-0.148985
-0.15158
-0.155039
-0.158702
-0.162106
-0.165024
-0.167354
-0.169046
-0.170071
-0.170415
-0.170068
-0.169024
-0.16728
-0.164831
-0.161689
-0.15789
-0.153414
-0.14827
-0.142455
-0.136009
-0.128934
-0.121293
-0.113087
-0.104408
-0.0952537
-0.0857501
-0.0758831
-0.0658195
-0.0555302
-0.0452164
-0.0348486
-0.0246284
-0.0145658
-0.00476603
0.676446
0.661645
0.629961
0.578932
0.508105
0.415339
0.305584
0.1842
0.0675145
-0.0250588
-0.0812107
-0.10375
-0.108112
-0.109174
-0.112623
-0.117896
-0.123647
-0.1295
-0.135356
-0.140958
-0.146019
-0.150369
-0.15394
-0.15671
-0.158675
-0.15984
-0.160212
-0.159811
-0.158667
-0.156815
-0.154109
-0.150707
-0.14662
-0.141862
-0.136425
-0.130352
-0.123646
-0.116381
-0.108554
-0.100268
-0.0915092
-0.0824231
-0.0729665
-0.0633449
-0.0534665
-0.0436172
-0.0336248
-0.0238908
-0.0140963
-0.00482587
0.614461
0.601442
0.574093
0.530639
0.471879
0.397115
0.310514
0.216642
0.125386
0.0491989
-0.00464208
-0.0368502
-0.0545247
-0.0660593
-0.0763241
-0.0863396
-0.0957864
-0.104561
-0.112737
-0.12027
-0.127016
-0.132865
-0.137775
-0.141746
-0.14479
-0.146928
-0.148177
-0.148568
-0.14812
-0.146881
-0.144946
-0.142127
-0.138543
-0.134283
-0.129338
-0.12375
-0.117521
-0.110733
-0.103382
-0.095581
-0.0873035
-0.0787129
-0.06974
-0.0606234
-0.051215
-0.0418725
-0.0323035
-0.023066
-0.0135958
-0.0048083
0.561706
0.550444
0.526956
0.490116
0.441016
0.379997
0.310204
0.235556
0.162449
0.0983712
0.0481907
0.0125788
-0.0116234
-0.0292829
-0.0440929
-0.0575159
-0.0697547
-0.0808498
-0.0909264
-0.100051
-0.108193
-0.115307
-0.121377
-0.126417
-0.13045
-0.133504
-0.135603
-0.136783
-0.137071
-0.136521
-0.135164
-0.133032
-0.130033
-0.126318
-0.121905
-0.116843
-0.111135
-0.104866
-0.0980311
-0.0907498
-0.0829881
-0.0749196
-0.0664574
-0.0578599
-0.0489421
-0.0401033
-0.0309778
-0.0222078
-0.0130962
-0.00471911
0.516958
0.507294
0.487157
0.455927
0.414651
0.36421
0.306967
0.246094
0.185843
0.131
0.0851188
0.0493239
0.0222255
0.0010043
-0.0168856
-0.0327761
-0.0470757
-0.0599275
-0.0714844
-0.0818685
-0.0911237
-0.0992558
-0.106272
-0.112198
-0.117062
-0.120898
-0.123735
-0.125612
-0.126562
-0.126627
-0.125836
-0.124224
-0.121836
-0.118666
-0.114765
-0.11021
-0.105008
-0.0992437
-0.0929113
-0.0861327
-0.0788719
-0.0713042
-0.0633359
-0.0552295
-0.0467856
-0.0384126
-0.0297201
-0.0213667
-0.0126197
-0.00457994
0.479111
0.470834
0.453558
0.426994
0.392062
0.349818
0.302084
0.251329
0.200554
0.153041
0.111412
0.0767867
0.0486506
0.0254498
0.00555981
-0.0120524
-0.0278377
-0.042001
-0.0547088
-0.0661007
-0.0762571
-0.0852171
-0.0930071
-0.0996603
-0.105211
-0.109697
-0.113153
-0.115619
-0.117129
-0.117728
-0.117446
-0.116335
-0.114419
-0.111729
-0.108295
-0.104199
-0.0994549
-0.0941466
-0.0882707
-0.0819469
-0.0751413
-0.0680247
-0.0605057
-0.0528381
-0.0448267
-0.0368648
-0.0285718
-0.0205783
-0.0121785
-0.00441836
0.447197
0.440089
0.425222
0.402491
0.37269
0.336854
0.296428
0.253323
0.209766
0.168107
0.130287
0.0973143
0.0691489
0.0450137
0.0239363
0.00517975
-0.0116621
-0.0268075
-0.0404172
-0.0526251
-0.0635227
-0.073167
-0.0815976
-0.0888545
-0.0949765
-0.100005
-0.103979
-0.106939
-0.108922
-0.109975
-0.110132
-0.109443
-0.107933
-0.105653
-0.102629
-0.0989345
-0.0945895
-0.0896782
-0.0842011
-0.0782729
-0.0718656
-0.0651406
-0.058015
-0.0507268
-0.0430954
-0.0354867
-0.0275481
-0.0198623
-0.0117782
-0.004257
0.420392
0.414252
0.401387
0.381781
0.35612
0.325332
0.290592
0.253387
0.215417
0.178425
0.143881
0.112682
0.0850392
0.0606397
0.0389427
0.0194623
0.00187978
-0.0139982
-0.0283121
-0.0411787
-0.0526869
-0.0629005
-0.0718667
-0.0796301
-0.0862325
-0.0917184
-0.0961278
-0.0995051
-0.101889
-0.103327
-0.103857
-0.103526
-0.102368
-0.100436
-0.0977604
-0.0944094
-0.0904063
-0.0858339
-0.0806981
-0.0751076
-0.0690412
-0.0626497
-0.055861
-0.0488951
-0.0415899
-0.034281
-0.0266488
-0.0192259
-0.0114199
-0.00410937
0.398008
0.392661
0.38144
0.364365
0.342029
0.315236
0.284948
0.25234
0.218735
0.185469
0.1537
0.12422
0.0973654
0.0730934
0.0511478
0.031242
0.0131565
-0.00325777
-0.0181128
-0.0315045
-0.0435119
-0.0541977
-0.0636118
-0.0718009
-0.0788086
-0.0846807
-0.0894589
-0.0931894
-0.095913
-0.0976776
-0.0985223
-0.0984978
-0.09764
-0.0960038
-0.0936224
-0.090562
-0.0868491
-0.0825638
-0.077717
-0.0724118
-0.0666336
-0.0605233
-0.0540192
-0.0473247
-0.0402952
-0.0332395
-0.0258675
-0.0186695
-0.0111033
-0.00398115
0.379481
0.374773
0.364886
0.349846
0.330165
0.306528
0.279732
0.250717
0.220537
0.190252
0.160802
0.132889
0.106905
0.0829656
0.0610023
0.0408796
0.0224701
0.00567439
-0.00958862
-0.0233925
-0.0358026
-0.0468763
-0.0566622
-0.0652069
-0.0725546
-0.0787514
-0.0838404
-0.0878686
-0.0908784
-0.0929185
-0.09403
-0.0942645
-0.0936604
-0.0922733
-0.0901392
-0.0873234
-0.0838545
-0.0798103
-0.075206
-0.0701398
-0.0646029
-0.0587275
-0.0524612
-0.0459934
-0.0391942
-0.0323508
-0.0251969
-0.0181907
-0.0108276
-0.00387325
0.364349
0.360152
0.351331
0.337908
0.320325
0.299166
0.275095
0.248883
0.221385
0.19347
0.165926
0.139377
0.114238
0.0907163
0.068868
0.0486675
0.030064
0.0130053
-0.00255906
-0.0166807
-0.0294105
-0.0407977
-0.0508876
-0.0597253
-0.0673543
-0.0738206
-0.0791681
-0.0834442
-0.0866925
-0.0889624
-0.0902966
-0.0907472
-0.0903547
-0.0891753
-0.087247
-0.0846341
-0.0813678
-0.0775236
-0.0731201
-0.0682515
-0.0629138
-0.0572324
-0.051162
-0.0448815
-0.0382718
-0.0316046
-0.0246307
-0.017786
-0.0105922
-0.00378447
0.352246
0.348448
0.340462
0.3283
0.312348
0.293106
0.271136
0.247083
0.221662
0.195604
0.169588
0.14418
0.119798
0.0967034
0.0750326
0.0548385
0.03613
0.0188962
0.00311451
-0.0112466
-0.0242244
-0.0358593
-0.0461921
-0.0552656
-0.0631222
-0.0698074
-0.0753652
-0.0798432
-0.083286
-0.0857435
-0.0872595
-0.0878865
-0.0876669
-0.0866568
-0.0848961
-0.0824484
-0.0793467
-0.0756648
-0.0714241
-0.0667157
-0.0615391
-0.0560146
-0.0501024
-0.0439734
-0.0375166
-0.0309927
-0.0241642
-0.0174527
-0.0103966
-0.00371304
0.342884
0.339389
0.332035
0.320829
0.306108
0.288308
0.267916
0.245486
0.221632
0.196988
0.172156
0.147659
0.123909
0.1012
0.0797194
0.0595737
0.0408171
0.0234714
0.00753783
-0.0069983
-0.020162
-0.0319859
-0.0425062
-0.0517629
-0.0597972
-0.0666538
-0.0723767
-0.0770135
-0.0806095
-0.0832146
-0.0848738
-0.0856398
-0.0855563
-0.0846796
-0.0830507
-0.0807327
-0.0777602
-0.0742056
-0.0700924
-0.0655094
-0.0604588
-0.0550571
-0.0492683
-0.0432578
-0.0369204
-0.0305089
-0.0237944
-0.0171883
-0.0102406
-0.00365742
0.336043
0.332766
0.325868
0.315347
0.301508
0.28474
0.265476
0.244206
0.221475
0.197852
0.173886
0.150068
0.126805
0.104408
0.0830962
0.0630107
0.0442381
0.0268249
0.0107901
-0.00386747
-0.0171633
-0.0291235
-0.0397803
-0.0491713
-0.0573364
-0.0643195
-0.0701644
-0.0749188
-0.0786282
-0.0813427
-0.0831081
-0.0839773
-0.0839947
-0.0832168
-0.0816856
-0.0794636
-0.0765866
-0.0731263
-0.0691072
-0.0646168
-0.059659
-0.054348
-0.04865
-0.0427271
-0.0364775
-0.0301493
-0.0235187
-0.0169912
-0.010124
-0.00361634
0.331567
0.328429
0.321826
0.311749
0.298479
0.282376
0.263838
0.243315
0.22131
0.19835
0.174951
0.151584
0.128651
0.106472
0.0852832
0.0652488
0.046475
0.0290244
0.0129282
-0.00180563
-0.0151861
-0.0272345
-0.0379804
-0.0474594
-0.0557105
-0.0627769
-0.0687024
-0.0735345
-0.0773188
-0.0801057
-0.0819414
-0.0828788
-0.082963
-0.0822505
-0.0807838
-0.0786253
-0.0758114
-0.0724132
-0.0684563
-0.064027
-0.0591304
-0.0538791
-0.0482411
-0.0423757
-0.0361841
-0.0299107
-0.0233359
-0.0168601
-0.0100469
-0.00358834
0.329357
0.326286
0.319827
0.309969
0.296976
0.281199
0.263017
0.24286
0.22121
0.198577
0.175458
0.152316
0.129549
0.107481
0.086357
0.0663513
0.0475796
0.0301125
0.0139875
-0.000783012
-0.0142046
-0.0262964
-0.0370861
-0.0466086
-0.0549023
-0.0620101
-0.0679756
-0.0728463
-0.0766679
-0.0794909
-0.0813615
-0.0823328
-0.0824502
-0.0817702
-0.0803357
-0.0782086
-0.0754262
-0.0720588
-0.068133
-0.0637337
-0.0588679
-0.0536457
-0.048038
-0.0422004
-0.0360388
-0.0297909
-0.0232461
-0.0167926
-0.0100111
-0.00357052
0.329238
0.326171
0.319712
0.309852
0.296859
0.281082
0.2629
0.242743
0.221094
0.198462
0.175345
0.152206
0.129443
0.107381
0.0862633
0.0662658
0.0475042
0.0300492
0.0139387
-0.000814813
-0.0142167
-0.0262858
-0.0370501
-0.0465446
-0.0548078
-0.0618833
-0.0678152
-0.0726518
-0.0764398
-0.0792306
-0.0810715
-0.0820168
-0.0821124
-0.0814162
-0.0799709
-0.0778398
-0.0750591
-0.0717005
-0.0677883
-0.0634091
-0.058566
-0.0533723
-0.0477929
-0.0419889
-0.0358572
-0.0296457
-0.0231292
-0.0167146
-0.00995731
-0.00356013
0.331448
0.328315
0.321711
0.311633
0.298362
0.282259
0.263722
0.243199
0.221194
0.198235
0.174838
0.151474
0.128545
0.106371
0.0851888
0.0651626
0.0463986
0.02896
0.0128782
-0.00183875
-0.0151995
-0.0272254
-0.0379457
-0.0473965
-0.0556169
-0.0626506
-0.0685421
-0.0733396
-0.0770897
-0.0798439
-0.0816492
-0.08256
-0.0826219
-0.0818927
-0.080415
-0.0782523
-0.0754402
-0.072051
-0.068108
-0.0636992
-0.0588259
-0.0536036
-0.0479943
-0.0421631
-0.0360017
-0.029765
-0.0232187
-0.0167817
-0.00999307
-0.00357778
0.335925
0.332652
0.325753
0.315231
0.301391
0.284623
0.265359
0.244089
0.221358
0.197737
0.173772
0.149957
0.126698
0.104306
0.0830005
0.0629228
0.0441599
0.0267583
0.0107376
-0.00390324
-0.0171795
-0.0291171
-0.0397483
-0.0491107
-0.0572446
-0.0641944
-0.0700043
-0.0747231
-0.078397
-0.0810776
-0.0828114
-0.0836527
-0.0836467
-0.0828514
-0.0813085
-0.0790821
-0.0762069
-0.0727559
-0.0687514
-0.0642824
-0.0593489
-0.054068
-0.0483999
-0.0425121
-0.0362935
-0.0300026
-0.0234009
-0.0169126
-0.0100699
-0.00360567
0.342765
0.339275
0.33192
0.320712
0.30599
0.288191
0.267799
0.245368
0.221515
0.196872
0.172041
0.147546
0.1238
0.101096
0.0796217
0.0594834
0.0407359
0.0234016
0.00748163
-0.00703812
-0.0201824
-0.0319838
-0.0424782
-0.0517059
-0.0597083
-0.0665304
-0.0722169
-0.0768165
-0.0803751
-0.0829443
-0.0845699
-0.0853062
-0.0851977
-0.0843022
-0.0826608
-0.080338
-0.0773674
-0.0738228
-0.0697252
-0.065165
-0.0601403
-0.0547707
-0.0490133
-0.0430396
-0.0367343
-0.0303613
-0.023676
-0.0171094
-0.0101862
-0.00364668
0.352128
0.348335
0.340347
0.328183
0.31223
0.292988
0.271018
0.246964
0.221543
0.195486
0.169471
0.144066
0.119687
0.0965974
0.0749322
0.0547449
0.036045
0.0188218
0.00305319
-0.0112921
-0.0242507
-0.0358631
-0.0461699
-0.0552137
-0.0630372
-0.0696864
-0.0752058
-0.0796443
-0.0830472
-0.0854659
-0.0869456
-0.0875403
-0.0872933
-0.0862626
-0.0844882
-0.0820351
-0.0789355
-0.0752645
-0.0710409
-0.0663575
-0.0612092
-0.0557195
-0.0498412
-0.0437514
-0.0373285
-0.0308444
-0.0240457
-0.0173741
-0.0103422
-0.00370238
0.364231
0.360039
0.351217
0.337791
0.320207
0.299048
0.274976
0.248763
0.221265
0.19335
0.165807
0.139261
0.114125
0.0906075
0.0687642
0.0485698
0.029974
0.012925
-0.00262706
-0.0167334
-0.0294446
-0.0408095
-0.0508729
-0.0596801
-0.0672746
-0.0737028
-0.0790094
-0.0832428
-0.0864477
-0.0886751
-0.0899692
-0.0903839
-0.0899611
-0.0887586
-0.0868149
-0.084196
-0.0809321
-0.0771002
-0.0727159
-0.0678754
-0.0625695
-0.0569266
-0.0508937
-0.0446557
-0.0380822
-0.031457
-0.0245133
-0.017709
-0.0105384
-0.00377423
0.379362
0.374661
0.364772
0.34973
0.330047
0.30641
0.279611
0.250596
0.220414
0.190128
0.16068
0.13277
0.106789
0.0828535
0.0608944
0.0407768
0.0223738
0.00558667
-0.00966504
-0.0234545
-0.0358467
-0.0468982
-0.0566573
-0.0651704
-0.0724818
-0.0786379
-0.0836826
-0.087664
-0.0906258
-0.0926185
-0.093685
-0.093879
-0.0932404
-0.0918271
-0.0896755
-0.0868528
-0.0833869
-0.0793569
-0.074775
-0.0697412
-0.0642407
-0.0584092
-0.0521852
-0.0457647
-0.0390049
-0.0322061
-0.025083
-0.0181175
-0.0107758
-0.00386408
0.39789
0.392549
0.381327
0.364249
0.341912
0.315117
0.284826
0.252216
0.218609
0.185342
0.153574
0.124097
0.0972462
0.0729777
0.0510353
0.0311329
0.0130524
-0.00335456
-0.0181996
-0.0315782
-0.0435684
-0.0542324
-0.0636193
-0.0717755
-0.0787446
-0.0845727
-0.0893022
-0.0929806
-0.0956502
-0.097361
-0.0981543
-0.0980832
-0.0971856
-0.0955191
-0.0931174
-0.0900495
-0.0863403
-0.0820721
-0.077252
-0.0719851
-0.06625
-0.0601908
-0.0537357
-0.047095
-0.0401094
-0.0331018
-0.0257612
-0.0186039
-0.0110559
-0.00397415
0.420274
0.414142
0.401276
0.381665
0.356002
0.325212
0.290468
0.253259
0.215286
0.178292
0.143751
0.112555
0.0849168
0.0605203
0.0388248
0.0193457
0.00176638
-0.014106
-0.0284115
-0.0412666
-0.052759
-0.0629513
-0.0718899
-0.0796188
-0.0861798
-0.0916174
-0.0959724
-0.0992907
-0.101613
-0.102989
-0.103459
-0.103073
-0.101869
-0.0999013
-0.0972021
-0.0938426
-0.0898448
-0.0852934
-0.0801904
-0.0746463
-0.068632
-0.0623017
-0.0555712
-0.0486679
-0.0414128
-0.0341568
-0.0265567
-0.0191737
-0.0113809
-0.00410631
0.447079
0.43998
0.425112
0.402375
0.372574
0.336734
0.296303
0.25319
0.209627
0.167967
0.130152
0.0971853
0.0690253
0.0448917
0.023812
0.00505402
-0.0117867
-0.0269283
-0.040532
-0.0527305
-0.063614
-0.0732379
-0.0816405
-0.0888611
-0.0949379
-0.0999131
-0.103825
-0.106717
-0.108629
-0.109609
-0.109696
-0.108942
-0.107376
-0.105053
-0.102001
-0.0982977
-0.0939602
-0.0890754
-0.0836395