/*--------------------------------*- C++ -*----------------------------------*\
  =========                 |
  \\      /  F ield         | OpenFOAM: The Open Source CFD Toolbox
   \\    /   O peration     | Website:  https://openfoam.org
    \\  /    A nd           | Version:  8
     \\/     M anipulation  |
\*---------------------------------------------------------------------------*/
FoamFile
{
    version     2.0;
    format      ascii;
    class       volScalarField;
    location    "0.482";
    object      T;
}
// * * * * * * * * * * * * * * * * * * * * * * * * * * * * * * * * * * * * * //

dimensions      [0 0 0 1 0 0 0];

internalField   nonuniform List<scalar> 
100
(
49.9816
4.9722
-4.7766
-1.8689
1.05218
1.32083
0.341697
-0.386554
-0.711315
-0.438061
95.0101
49.9633
11.7431
-4.26375
-4.69723
-0.674186
1.94159
2.32003
1.7808
0.75785
104.917
88.3517
49.726
14.4623
-3.06128
-5.71923
-2.37538
0.529457
2.01793
1.36766
101.977
104.466
85.0625
49.6685
17.353
-0.957989
-6.50805
-5.57989
-3.24087
-1.07492
98.7844
104.683
103.659
82.9787
49.6047
19.1825
0.554542
-6.08791
-7.03671
-3.68515
98.3316
100.353
107.112
102.335
79.4234
48.1715
21.3273
5.6078
-1.76802
-2.2668
99.4308
97.6432
103.374
107.881
98.7338
75.7887
48.5749
26.1434
12.1208
3.64184
100.615
97.6356
98.6629
105.265
107.259
96.1911
74.5549
49.0992
30.2678
12.2583
101.365
98.5586
95.4747
101.263
109.922
108.02
92.0657
65.7019
44.1559
19.0782
101.685
100.363
93.6427
96.2093
108.732
115.349
106.59
81.1355
58.3435
26.451
)
;

boundaryField
{
    left
    {
        type            fixedValue;
        value           uniform 100;
    }
    right
    {
        type            zeroGradient;
    }
    up
    {
        type            zeroGradient;
    }
    down
    {
        type            fixedValue;
        value           uniform 0;
    }
    frontAndBack
    {
        type            empty;
    }
}


// ************************************************************************* //
