/*--------------------------------*- C++ -*----------------------------------*\
  =========                 |
  \\      /  F ield         | OpenFOAM: The Open Source CFD Toolbox
   \\    /   O peration     | Website:  https://openfoam.org
    \\  /    A nd           | Version:  8
     \\/     M anipulation  |
\*---------------------------------------------------------------------------*/
FoamFile
{
    version     2.0;
    format      ascii;
    class       volScalarField;
    location    "0.015";
    object      p;
}
// * * * * * * * * * * * * * * * * * * * * * * * * * * * * * * * * * * * * * //

dimensions      [0 2 -2 0 0 0 0];

internalField   nonuniform List<scalar> 
400
(
7.13606e-08
0.00460692
0.0134953
0.0244027
0.03619
0.0497058
0.0650495
0.0820648
0.100358
0.119326
0.138255
0.156415
0.173083
0.187559
0.199162
0.207267
0.211444
0.211727
0.208945
0.205663
0.0119593
0.0162552
0.0238235
0.0334837
0.0445058
0.0570216
0.0711005
0.086672
0.103426
0.120795
0.138106
0.154704
0.169977
0.183331
0.194177
0.201992
0.206458
0.207646
0.205915
0.202511
0.0279748
0.0283954
0.0327014
0.0403346
0.0500401
0.0615179
0.0746888
0.0894283
0.105401
0.122009
0.138571
0.154479
0.169193
0.18217
0.192827
0.200614
0.205187
0.20652
0.204469
0.199432
0.0413679
0.0377754
0.0391149
0.0445614
0.0527454
0.063268
0.0759025
0.0903767
0.106252
0.122862
0.139485
0.155513
0.170425
0.183672
0.194622
0.20264
0.207293
0.208431
0.205513
0.198508
0.0493036
0.0428107
0.0418804
0.0455698
0.0525738
0.0625238
0.0750783
0.089807
0.106165
0.123424
0.1408
0.157625
0.173345
0.187374
0.199018
0.207548
0.212412
0.213325
0.209427
0.200464
0.0520245
0.0429333
0.0401316
0.0426061
0.0489994
0.0589367
0.0719804
0.087559
0.105032
0.123622
0.142467
0.160797
0.17797
0.193338
0.206139
0.215541
0.220851
0.221623
0.216698
0.205679
0.0495148
0.0377778
0.0333585
0.0351425
0.0415354
0.0520925
0.0662866
0.0833979
0.102681
0.123319
0.144383
0.164979
0.184335
0.201707
0.216244
0.226992
0.233092
0.233897
0.227892
0.214533
0.0414855
0.0268206
0.0209558
0.0225468
0.0295789
0.0414721
0.0575831
0.0770175
0.0988933
0.122352
0.146422
0.170101
0.192474
0.212662
0.229688
0.242435
0.249832
0.250972
0.243842
0.227653
0.0272297
0.00913488
0.00193455
0.00387636
0.0123098
0.0264055
0.045341
0.0680212
0.0933928
0.120533
0.148457
0.176097
0.202424
0.22641
0.246907
0.262573
0.272047
0.274039
0.26578
0.24604
0.00545085
-0.0168066
-0.0252009
-0.0221567
-0.0112991
0.00610918
0.0289606
0.0559416
0.0858253
0.117609
0.15031
0.182867
0.214192
0.243142
0.268374
0.288247
0.300983
0.304703
0.295446
0.271196
-0.025955
-0.0532793
-0.0624716
-0.0571349
-0.0424114
-0.0202408
0.0078465
0.0402977
0.0757652
0.113201
0.151658
0.190149
0.227634
0.262921
0.294492
0.320344
0.338129
0.345055
0.335285
0.305386
-0.0702448
-0.103547
-0.112521
-0.102935
-0.0822816
-0.053451
-0.0185203
0.0206942
0.062818
0.106866
0.152017
0.197468
0.242349
0.285552
0.325461
0.359701
0.385205
0.397846
0.388845
0.3522
-0.132584
-0.172353
-0.178818
-0.161722
-0.132116
-0.0941185
-0.0503795
-0.00295447
0.0468764
0.098362
0.150978
0.204276
0.257746
0.310559
0.361192
0.407017
0.444187
0.466761
0.461477
0.417644
-0.221708
-0.266783
-0.265841
-0.235762
-0.192704
-0.142197
-0.087301
-0.030112
0.0283821
0.0878924
0.148429
0.210137
0.273126
0.337151
0.401154
0.462631
0.517169
0.556665
0.561376
0.512227
-0.353319
-0.39754
-0.378937
-0.326758
-0.263674
-0.196324
-0.127658
-0.059278
0.00851145
0.0761921
0.14459
0.214711
0.287587
0.363988
0.443952
0.525926
0.605756
0.673463
0.700975
0.654881
-0.555837
-0.580096
-0.523365
-0.434494
-0.342242
-0.252852
-0.167909
-0.0874903
-0.010501
0.0647387
0.140153
0.217843
0.30005
0.389073
0.486965
0.594597
0.709985
0.823136
0.8979
0.878932
-0.880144
-0.834279
-0.701702
-0.55484
-0.421775
-0.30492
-0.202099
-0.110046
-0.0251857
0.0558915
0.136436
0.219764
0.309532
0.410065
0.526579
0.664547
0.827402
1.00954
1.17422
1.24138
-1.43813
-1.18194
-0.902348
-0.671013
-0.48662
-0.339897
-0.220969
-0.120537
-0.0312992
0.0522464
0.134643
0.220276
0.314156
0.422907
0.555957
0.725982
0.946325
1.2254
1.55783
1.86514
-2.52424
-1.62975
-1.0523
-0.717721
-0.491624
-0.329144
-0.207286
-0.109062
-0.0235952
0.0558857
0.134289
0.216158
0.306961
0.414736
0.552679
0.741931
1.01172
1.41047
2.07096
3.06151
-4.37119
-2.06574
-1.00855
-0.601124
-0.386082
-0.247973
-0.149938
-0.0712354
-0.00103542
0.0660286
0.133248
0.203632
0.281171
0.372624
0.490997
0.661559
0.931616
1.42627
2.59209
5.0053
)
;

boundaryField
{
    movingWall
    {
        type            zeroGradient;
    }
    fixedWalls
    {
        type            zeroGradient;
    }
    frontAndBack
    {
        type            empty;
    }
}


// ************************************************************************* //
