/*--------------------------------*- C++ -*----------------------------------*\
  =========                 |
  \\      /  F ield         | OpenFOAM: The Open Source CFD Toolbox
   \\    /   O peration     | Website:  https://openfoam.org
    \\  /    A nd           | Version:  8
     \\/     M anipulation  |
\*---------------------------------------------------------------------------*/
FoamFile
{
    version     2.0;
    format      ascii;
    class       surfaceScalarField;
    location    "0.015";
    object      phi;
}
// * * * * * * * * * * * * * * * * * * * * * * * * * * * * * * * * * * * * * //

dimensions      [0 3 -1 0 0 0 0];

internalField   nonuniform List<scalar> 
760
(
6.8085e-09
-6.80914e-09
-3.57065e-08
4.25154e-08
-1.04678e-07
6.89708e-08
-1.91429e-07
8.67508e-08
-2.82173e-07
9.07434e-08
-3.67422e-07
8.52498e-08
-4.40262e-07
7.28403e-08
-4.959e-07
5.56384e-08
-5.31167e-07
3.5266e-08
-5.44235e-07
1.30694e-08
-5.34286e-07
-9.9492e-09
-5.01464e-07
-3.28218e-08
-4.47015e-07
-5.44483e-08
-3.73469e-07
-7.35472e-08
-2.85157e-07
-8.8312e-08
-1.89285e-07
-9.58705e-08
-9.71656e-08
-9.21201e-08
-2.51326e-08
-7.20339e-08
7.64879e-09
-3.27819e-08
7.64834e-09
-2.35756e-08
1.67664e-08
-1.36828e-07
1.55768e-07
-3.1457e-07
2.46714e-07
-5.20691e-07
2.92873e-07
-7.32317e-07
3.0237e-07
-9.30592e-07
2.83525e-07
-1.10063e-06
2.42882e-07
-1.23135e-06
1.8636e-07
-1.3151e-06
1.19016e-07
-1.34721e-06
4.51758e-08
-1.32562e-06
-3.15415e-08
-1.25073e-06
-1.07713e-07
-1.12558e-06
-1.79595e-07
-9.56503e-07
-2.42624e-07
-7.54066e-07
-2.90749e-07
-5.34353e-07
-3.15585e-07
-3.20212e-07
-3.06261e-07
-1.41563e-07
-2.50683e-07
-3.06476e-08
-1.43697e-07
-2.29999e-08
-7.63879e-08
9.3154e-08
-2.66899e-07
3.4628e-07
-5.36457e-07
5.16272e-07
-8.38813e-07
5.95229e-07
-1.14193e-06
6.05484e-07
-1.42133e-06
5.62923e-07
-1.65824e-06
4.79801e-07
-1.83867e-06
3.66785e-07
-1.95286e-06
2.33207e-07
-1.99477e-06
8.7089e-08
-1.96169e-06
-6.46218e-08
-1.85421e-06
-2.15193e-07
-1.67661e-06
-3.57201e-07
-1.43755e-06
-4.81684e-07
-1.15122e-06
-5.77078e-07
-8.38658e-07
-6.28147e-07
-5.2892e-07
-6.16e-07
-2.59349e-07
-5.20254e-07
-7.19344e-08
-3.31112e-07
-9.49343e-08
-1.08611e-07
2.01765e-07
-3.69161e-07
6.0683e-07
-7.22039e-07
8.69151e-07
-1.11002e-06
9.83207e-07
-1.49185e-06
9.87316e-07
-1.83806e-06
9.0914e-07
-2.12754e-06
7.69275e-07
-2.34521e-06
5.84457e-07
-2.48081e-06
3.68805e-07
-2.5281e-06
1.34382e-07
-2.48443e-06
-1.08291e-07
-2.35064e-06
-3.48988e-07
-2.13153e-06
-5.7631e-07
-1.83692e-06
-7.76296e-07
-1.48297e-06
-9.31025e-07
-1.09379e-06
-1.01732e-06
-7.03026e-07
-1.00677e-06
-3.54961e-07
-8.68321e-07
-1.02727e-07
-5.83346e-07
-1.97661e-07
-1.33228e-07
3.34993e-07
-4.51068e-07
9.24671e-07
-8.77506e-07
1.29559e-06
-1.34387e-06
1.44957e-06
-1.79895e-06
1.44239e-06
-2.20739e-06
1.31758e-06
-2.54538e-06
1.10727e-06
-2.79714e-06
8.36217e-07
-2.95254e-06
5.24199e-07
-3.00568e-06
1.87526e-07
-2.95416e-06
-1.59813e-07
-2.79891e-06
-5.04242e-07
-2.54477e-06
-8.30447e-07
-2.20179e-06
-1.11927e-06
-1.78709e-06
-1.34573e-06
-1.32713e-06
-1.47728e-06
-8.60213e-07
-1.47369e-06
-4.38576e-07
-1.28996e-06
-1.27902e-07
-8.9402e-07
-3.25563e-07
-1.56538e-07
4.9153e-07
-5.29935e-07
1.29807e-06
-1.02955e-06
1.7952e-06
-1.57447e-06
1.9945e-06
-2.10345e-06
1.97137e-06
-2.57485e-06
1.78898e-06
-2.96204e-06
1.49445e-06
-3.24867e-06
1.12286e-06
-3.42511e-06
7.00637e-07
-3.48608e-06
2.48492e-07
-3.42942e-06
-2.16471e-07
-3.25583e-06
-6.77835e-07
-2.96953e-06
-1.11675e-06
-2.57996e-06
-1.50884e-06
-2.10442e-06
-1.82127e-06
-1.57136e-06
-2.01034e-06
-1.02423e-06
-2.02082e-06
-5.24751e-07
-1.78944e-06
-1.53268e-07
-1.2655e-06
-4.78831e-07
-1.83813e-07
6.75343e-07
-6.21205e-07
1.73546e-06
-1.20349e-06
2.37749e-06
-1.83492e-06
2.62592e-06
-2.44358e-06
2.58003e-06
-2.98173e-06
2.32713e-06
-3.42043e-06
1.93315e-06
-3.74353e-06
1.44595e-06
-3.94252e-06
8.99628e-07
-4.01316e-06
3.19126e-07
-3.95357e-06
-2.76055e-07
-3.76378e-06
-8.67625e-07
-3.44653e-06
-1.434e-06
-3.00951e-06
-1.94585e-06
-2.46905e-06
-2.36173e-06
-1.85498e-06
-2.62441e-06
-1.21632e-06
-2.65948e-06
-6.26289e-07
-2.37947e-06
-1.83387e-07
-1.70841e-06
-6.62218e-07
-2.19167e-07
8.94509e-07
-7.37297e-07
2.25359e-06
-1.41989e-06
3.06008e-06
-2.15175e-06
3.35778e-06
-2.84901e-06
3.27729e-06
-3.45847e-06
2.9366e-06
-3.95039e-06
2.42507e-06
-4.31031e-06
1.80587e-06
-4.5322e-06
1.12152e-06
-4.61365e-06
4.00568e-07
-4.55323e-06
-3.36467e-07
-4.3498e-06
-1.07106e-06
-4.00344e-06
-1.78036e-06
-3.51843e-06
-2.43087e-06
-2.90821e-06
-2.97194e-06
-2.20252e-06
-3.33009e-06
-1.45583e-06
-3.40617e-06
-7.55164e-07
-3.08014e-06
-2.22416e-07
-2.24116e-06
-8.84634e-07
-2.66766e-07
1.16127e-06
-8.8956e-07
2.87639e-06
-1.69635e-06
3.86686e-06
-2.5459e-06
4.20734e-06
-3.34075e-06
4.07214e-06
-4.02382e-06
3.61966e-06
-4.56724e-06
2.96849e-06
-4.961e-06
2.19964e-06
-5.20366e-06
1.36419e-06
-5.29595e-06
4.92851e-07
-5.23731e-06
-3.95109e-07
-5.02485e-06
-1.28351e-06
-4.65449e-06
-2.15071e-06
-4.12463e-06
-2.96073e-06
-3.44282e-06
-3.65376e-06
-2.63573e-06
-4.13717e-06
-1.76185e-06
-4.28005e-06
-9.24098e-07
-3.91789e-06
-2.75052e-07
-2.8902e-06
-1.15969e-06
-3.31562e-07
1.49284e-06
-1.09024e-06
3.63506e-06
-2.04957e-06
4.8262e-06
-3.03372e-06
5.19148e-06
-3.93072e-06
4.96914e-06
-4.68289e-06
4.37182e-06
-5.26889e-06
3.55449e-06
-5.68727e-06
2.61802e-06
-5.94428e-06
1.62119e-06
-6.04567e-06
5.94241e-07
-5.99244e-06
-4.48336e-07
-5.77944e-06
-1.49651e-06
-5.39655e-06
-2.5336e-06
-4.833e-06
-3.52428e-06
-4.08579e-06
-4.40097e-06
-3.17336e-06
-5.0496e-06
-2.15429e-06
-5.29912e-06
-1.14809e-06
-4.92409e-06
-3.47384e-07
-3.6909e-06
-1.50707e-06
-4.20478e-07
1.91331e-06
-1.35433e-06
4.56892e-06
-2.49595e-06
5.96781e-06
-3.62519e-06
6.32072e-06
-4.61737e-06
5.96132e-06
-5.42075e-06
5.17521e-06
-6.02777e-06
4.16151e-06
-6.45145e-06
3.0417e-06
-6.70971e-06
1.87945e-06
-6.81568e-06
7.0022e-07
-6.77289e-06
-4.91133e-07
-6.57352e-06
-1.69588e-06
-6.19947e-06
-2.90765e-06
-5.62679e-06
-4.09697e-06
-4.83554e-06
-5.19222e-06
-3.8275e-06
-6.05764e-06
-2.65318e-06
-6.47344e-06
-1.44569e-06
-6.13158e-06
-4.48064e-07
-4.68853e-06
-1.95513e-06
-5.44268e-07
2.45758e-06
-1.70079e-06
5.72544e-06
-3.04913e-06
7.31616e-06
-4.31687e-06
7.58846e-06
-5.37439e-06
7.01884e-06
-6.18815e-06
5.98896e-06
-6.77499e-06
4.74835e-06
-7.16992e-06
3.43663e-06
-7.4069e-06
2.11643e-06
-7.50881e-06
8.0213e-07
-7.48274e-06
-5.17204e-07
-7.31827e-06
-1.86035e-06
-6.98786e-06
-3.23806e-06
-6.45045e-06
-4.63438e-06
-5.66141e-06
-5.98126e-06
-4.59357e-06
-7.12547e-06
-3.2743e-06
-7.79271e-06
-1.83946e-06
-7.56642e-06
-5.90103e-07
-5.93789e-06
-2.54524e-06
-7.19929e-07
3.17751e-06
-2.15153e-06
7.15704e-06
-3.71101e-06
8.87564e-06
-5.07446e-06
8.95191e-06
-6.1275e-06
8.07188e-06
-6.87525e-06
6.73671e-06
-7.37317e-06
5.24628e-06
-7.68599e-06
3.74945e-06
-7.8672e-06
2.29763e-06
-7.95079e-06
8.85725e-07
-7.94829e-06
-5.19704e-07
-7.84744e-06
-1.9612e-06
-7.61141e-06
-3.47409e-06
-7.17986e-06
-5.06592e-06
-6.47613e-06
-6.68499e-06
-5.4285e-06
-8.17311e-06
-4.01666e-06
-9.20454e-06
-2.35328e-06
-9.22981e-06
-7.93069e-07
-7.4981e-06
-3.3383e-06
-9.73569e-07
4.15108e-06
-2.72455e-06
8.90803e-06
-4.44866e-06
1.05997e-05
-5.79683e-06
1.03001e-05
-6.71173e-06
8.98678e-06
-7.26754e-06
7.29252e-06
-7.57378e-06
5.55252e-06
-7.72979e-06
3.90546e-06
-7.80838e-06
2.37622e-06
-7.85328e-06
9.30631e-07
-7.88027e-06
-4.92716e-07
-7.87713e-06
-1.96435e-06
-7.80115e-06
-3.55007e-06
-7.57536e-06
-5.29172e-06
-7.08824e-06
-7.17211e-06
-6.20831e-06
-9.05304e-06
-4.83333e-06
-1.05795e-05
-3.00174e-06
-1.10614e-05
-1.08537e-06
-9.41448e-06
-4.42368e-06
-1.34135e-06
5.49243e-06
-3.40984e-06
1.09765e-05
-5.14094e-06
1.23308e-05
-6.24588e-06
1.1405e-05
-6.79845e-06
9.53935e-06
-6.9783e-06
7.47236e-06
-6.9579e-06
5.53212e-06
-6.86649e-06
3.81405e-06
-6.78794e-06
2.29768e-06
-6.7693e-06
9.11988e-07
-6.82841e-06
-4.3361e-07
-6.95618e-06
-1.83657e-06
-7.11233e-06
-3.39392e-06
-7.21475e-06
-5.18929e-06
-7.12632e-06
-7.26053e-06
-6.65097e-06
-9.5284e-06
-5.56794e-06
-1.16625e-05
-3.75752e-06
-1.28718e-05
-1.50238e-06
-1.16696e-05
-5.92606e-06
-1.8543e-06
7.34673e-06
-4.09539e-06
1.32176e-05
-5.46042e-06
1.36959e-05
-5.91959e-06
1.18642e-05
-5.78252e-06
9.40229e-06
-5.35727e-06
7.04712e-06
-4.86498e-06
5.03983e-06
-4.44048e-06
3.38955e-06
-4.1574e-06
2.01459e-06
-4.05237e-06
8.06957e-07
-4.1402e-06
-3.4578e-07
-4.41886e-06
-1.55791e-06
-4.86419e-06
-2.94859e-06
-5.41295e-06
-4.64054e-06
-5.93314e-06
-6.74033e-06
-6.18845e-06
-9.27309e-06
-5.8256e-06
-1.20254e-05
-4.46025e-06
-1.42372e-05
-2.06116e-06
-1.40687e-05
-7.98721e-06
-2.46388e-06
9.81061e-06
-4.36442e-06
1.51182e-05
-4.62922e-06
1.39607e-05
-3.84182e-06
1.10768e-05
-2.63133e-06
8.1918e-06
-1.3944e-06
5.81018e-06
-3.36298e-07
3.98173e-06
4.56123e-07
2.59713e-06
9.54849e-07
1.51586e-06
1.15338e-06
6.08421e-07
1.04767e-06
-2.40069e-07
6.29554e-07
-1.13979e-06
-1.09087e-07
-2.20995e-06
-1.15814e-06
-3.59149e-06
-2.44877e-06
-5.4497e-06
-3.7822e-06
-7.93967e-06
-4.73468e-06
-1.10729e-05
-4.59628e-06
-1.43756e-05
-2.66354e-06
-1.60014e-05
-1.06508e-05
-2.79973e-06
1.26103e-05
-2.98802e-06
1.53064e-05
-9.54246e-07
1.19269e-05
1.73283e-06
8.38972e-06
4.2535e-06
5.67113e-06
6.31355e-06
3.75013e-06
7.85895e-06
2.43633e-06
8.92679e-06
1.52929e-06
9.57191e-06
8.70743e-07
9.83452e-06
3.45815e-07
9.72781e-06
-1.3336e-07
9.23371e-06
-6.45692e-07
8.30311e-06
-1.27935e-06
6.86405e-06
-2.15243e-06
4.85128e-06
-3.43694e-06
2.28487e-06
-5.37326e-06
-5.58085e-07
-8.22996e-06
-2.82378e-06
-1.21099e-05
-2.82938e-06
-1.59958e-05
-1.34801e-05
-9.15559e-07
1.35259e-05
3.49814e-06
1.08927e-05
8.97539e-06
6.44965e-06
1.35521e-05
3.81301e-06
1.69431e-05
2.28012e-06
1.93227e-05
1.3705e-06
2.09316e-05
8.27436e-07
2.19684e-05
4.92472e-07
2.25692e-05
2.69981e-07
2.28118e-05
1.03232e-07
2.27233e-05
-4.48772e-08
2.22825e-05
-2.04869e-07
2.1415e-05
-4.11874e-07
1.99819e-05
-7.19357e-07
1.7767e-05
-1.22203e-06
1.44879e-05
-2.09414e-06
9.90957e-06
-3.65161e-06
4.2654e-06
-6.46569e-06
-5.0653e-07
-1.12239e-05
-1.39867e-05
1.35259e-05
2.44186e-05
3.08683e-05
3.46813e-05
3.69614e-05
3.83319e-05
3.91594e-05
3.96518e-05
3.99218e-05
4.0025e-05
3.99802e-05
3.97753e-05
3.93634e-05
3.86441e-05
3.7422e-05
3.53279e-05
3.16763e-05
2.52106e-05
1.39867e-05
)
;

boundaryField
{
    movingWall
    {
        type            calculated;
        value           uniform 0;
    }
    fixedWalls
    {
        type            calculated;
        value           uniform 0;
    }
    frontAndBack
    {
        type            empty;
        value           nonuniform List<scalar> 0();
    }
}


// ************************************************************************* //
