/*--------------------------------*- C++ -*----------------------------------*\
  =========                 |
  \\      /  F ield         | OpenFOAM: The Open Source CFD Toolbox
   \\    /   O peration     | Website:  https://openfoam.org
    \\  /    A nd           | Version:  8
     \\/     M anipulation  |
\*---------------------------------------------------------------------------*/
FoamFile
{
    version     2.0;
    format      ascii;
    class       volVectorField;
    location    "0.015";
    object      U;
}
// * * * * * * * * * * * * * * * * * * * * * * * * * * * * * * * * * * * * * //

dimensions      [0 1 -1 0 0 0 0];

internalField   nonuniform List<vector> 
400
(
(0.000385438 6.25054e-05 0)
(-0.000124854 0.000452823 0)
(-0.00119386 0.000569211 0)
(-0.00295588 0.000694833 0)
(-0.00475163 0.00072336 0)
(-0.00654244 0.000671343 0)
(-0.00814493 0.000564313 0)
(-0.00944356 0.000423963 0)
(-0.0103606 0.000264295 0)
(-0.0108497 9.48123e-05 0)
(-0.0108825 -7.83742e-05 0)
(-0.0104512 -0.000249389 0)
(-0.00957005 -0.000410379 0)
(-0.00827525 -0.000552621 0)
(-0.00663228 -0.000663469 0)
(-0.00475341 -0.000718922 0)
(-0.00282075 -0.000681224 0)
(-0.00110519 -0.000502443 0)
(-2.41979e-05 -0.00015234 0)
(0.000173746 0.000171119 0)
(0.000153041 -4.94379e-05 0)
(-0.00112356 0.00175069 0)
(-0.00426526 0.00273073 0)
(-0.00828976 0.00330889 0)
(-0.0125592 0.00344792 0)
(-0.0167372 0.00324673 0)
(-0.020479 0.00278428 0)
(-0.0235236 0.00213658 0)
(-0.0256934 0.00136498 0)
(-0.0268688 0.000520112 0)
(-0.0269781 -0.000356835 0)
(-0.0260047 -0.00122778 0)
(-0.0239831 -0.00205015 0)
(-0.0210019 -0.00277272 0)
(-0.0172262 -0.00332554 0)
(-0.0129188 -0.00360503 0)
(-0.00846084 -0.00346986 0)
(-0.00436719 -0.00275667 0)
(-0.0013707 -0.00140155 0)
(-0.000121286 3.36329e-06 0)
(-0.000414704 0.00104698 0)
(-0.00290982 0.00469044 0)
(-0.00771981 0.00720884 0)
(-0.0136713 0.00843256 0)
(-0.0198698 0.00864847 0)
(-0.0257998 0.00808564 0)
(-0.0310415 0.00692017 0)
(-0.0352648 0.00530904 0)
(-0.0382441 0.00339162 0)
(-0.0398285 0.00128798 0)
(-0.039924 -0.000899566 0)
(-0.0385061 -0.00307159 0)
(-0.0356239 -0.00511869 0)
(-0.0314028 -0.00691071 0)
(-0.0260668 -0.00827825 0)
(-0.0199631 -0.00899205 0)
(-0.013582 -0.0087625 0)
(-0.0075622 -0.00727634 0)
(-0.00283425 -0.00440309 0)
(-0.000473644 -0.0010268 0)
(-0.000701616 0.00279465 0)
(-0.00416394 0.00923862 0)
(-0.0105476 0.013502 0)
(-0.0182518 0.0154083 0)
(-0.026128 0.0155727 0)
(-0.0335287 0.0144163 0)
(-0.0399729 0.0122527 0)
(-0.0451 0.00934596 0)
(-0.0486679 0.0059258 0)
(-0.0505204 0.00219189 0)
(-0.0505645 -0.00168117 0)
(-0.0487766 -0.00552424 0)
(-0.0452108 -0.00914955 0)
(-0.0400101 -0.0123292 0)
(-0.0334291 -0.014772 0)
(-0.0258643 -0.0161011 0)
(-0.0178779 -0.0158536 0)
(-0.0102069 -0.0135292 0)
(-0.003987 -0.00886305 0)
(-0.000716913 -0.00280515 0)
(-0.000896648 0.00525103 0)
(-0.0051192 0.0150574 0)
(-0.0128658 0.0213123 0)
(-0.022153 0.0239649 0)
(-0.03158 0.0239537 0)
(-0.0403534 0.0219738 0)
(-0.0479127 0.0185357 0)
(-0.0538683 0.0140446 0)
(-0.0579736 0.0088351 0)
(-0.0600803 0.00318943 0)
(-0.0601042 -0.00264694 0)
(-0.0580239 -0.00843451 0)
(-0.0538925 -0.013905 0)
(-0.0478541 -0.0187277 0)
(-0.0401734 -0.0224773 0)
(-0.0312768 -0.0246047 0)
(-0.0217908 -0.0244367 0)
(-0.0125632 -0.021231 0)
(-0.0049617 -0.0145018 0)
(-0.000903441 -0.00511997 0)
(-0.00108048 0.00814773 0)
(-0.00602454 0.0219537 0)
(-0.0151141 0.030547 0)
(-0.0259816 0.0340559 0)
(-0.0369734 0.0337773 0)
(-0.0471349 0.0307592 0)
(-0.0558221 0.0257779 0)
(-0.0626194 0.0194206 0)
(-0.0672807 0.0121446 0)
(-0.069672 0.00431998 0)
(-0.0697225 -0.0037403 0)
(-0.067411 -0.0117337 0)
(-0.0627785 -0.0193165 0)
(-0.0559537 -0.0260529 0)
(-0.0471932 -0.031368 0)
(-0.0369409 -0.0345098 0)
(-0.0258865 -0.0345414 0)
(-0.0150104 -0.0304041 0)
(-0.00595367 -0.0212961 0)
(-0.0010875 -0.00792256 0)
(-0.00129541 0.0115297 0)
(-0.0070817 0.0300051 0)
(-0.0177032 0.041303 0)
(-0.0303352 0.0457672 0)
(-0.0430328 0.0451172 0)
(-0.0546757 0.0408328 0)
(-0.0645477 0.0340255 0)
(-0.0722229 0.025512 0)
(-0.077469 0.0158933 0)
(-0.0801765 0.00562804 0)
(-0.0802939 -0.00491268 0)
(-0.0777976 -0.0153768 0)
(-0.0727037 -0.025356 0)
(-0.0651028 -0.0343117 0)
(-0.0552181 -0.0415045 0)
(-0.043491 -0.0459367 0)
(-0.0306694 -0.0463351 0)
(-0.017889 -0.0412251 0)
(-0.00712814 -0.0293762 0)
(-0.00130751 -0.011262 0)
(-0.0015707 0.015521 0)
(-0.00844695 0.039473 0)
(-0.0209688 0.053859 0)
(-0.0356999 0.0593274 0)
(-0.0503325 0.0581331 0)
(-0.0635858 0.0522915 0)
(-0.074697 0.0433309 0)
(-0.0832631 0.0323487 0)
(-0.0890968 0.0201074 0)
(-0.0921332 0.00714722 0)
(-0.0923501 -0.00612261 0)
(-0.0897191 -0.0193245 0)
(-0.0842148 -0.0320062 0)
(-0.0758604 -0.043535 0)
(-0.064807 -0.0529922 0)
(-0.0514553 -0.0590841 0)
(-0.0365904 -0.060105 0)
(-0.0215171 -0.0540268 0)
(-0.00863996 -0.0390348 0)
(-0.00159811 -0.0152753 0)
(-0.00194261 0.0203244 0)
(-0.0102708 0.0507649 0)
(-0.0252113 0.0686347 0)
(-0.0424771 0.0750606 0)
(-0.0593051 0.0730194 0)
(-0.0742708 0.0652188 0)
(-0.0866135 0.053707 0)
(-0.0960106 0.0399136 0)
(-0.102372 0.0247742 0)
(-0.105714 0.00889046 0)
(-0.106057 -0.00732588 0)
(-0.103368 -0.0235125 0)
(-0.0975594 -0.0392102 0)
(-0.0885475 -0.0537138 0)
(-0.076354 -0.0659176 0)
(-0.0612739 -0.0741741 0)
(-0.0440761 -0.0762208 0)
(-0.0262256 -0.0692791 0)
(-0.0106618 -0.0507193 0)
(-0.00200158 -0.0201845 0)
(-0.0024596 0.0262307 0)
(-0.0127293 0.0644306 0)
(-0.0307385 0.0861642 0)
(-0.0510187 0.0933305 0)
(-0.0702485 0.0899383 0)
(-0.0869073 0.0796186 0)
(-0.100326 0.065069 0)
(-0.110354 0.0480998 0)
(-0.117075 0.029817 0)
(-0.120635 0.0108445 0)
(-0.121125 -0.00846073 0)
(-0.118504 -0.0278151 0)
(-0.112601 -0.0468133 0)
(-0.103176 -0.0647233 0)
(-0.0900405 -0.0802615 0)
(-0.0732792 -0.0913707 0)
(-0.0535384 -0.0950757 0)
(-0.0323878 -0.0875685 0)
(-0.0134118 -0.0650424 0)
(-0.00257735 -0.0263162 0)
(-0.00319467 0.0336452 0)
(-0.0160602 0.0811767 0)
(-0.0378974 0.107051 0)
(-0.0616205 0.114449 0)
(-0.0832644 0.108907 0)
(-0.101331 0.0953047 0)
(-0.115401 0.0771418 0)
(-0.125626 0.056643 0)
(-0.132366 0.035052 0)
(-0.135962 0.0129496 0)
(-0.136603 -0.00944558 0)
(-0.134247 -0.0320185 0)
(-0.128619 -0.054509 0)
(-0.119264 -0.0762388 0)
(-0.105681 -0.0957919 0)
(-0.0875925 -0.110667 0)
(-0.0653343 -0.116997 0)
(-0.0404318 -0.109567 0)
(-0.0171867 -0.0828143 0)
(-0.00341684 -0.0341445 0)
(-0.00427271 0.0431473 0)
(-0.0206086 0.101881 0)
(-0.0470728 0.131883 0)
(-0.074426 0.13852 0)
(-0.0980669 0.129622 0)
(-0.116776 0.11174 0)
(-0.130635 0.0893324 0)
(-0.140279 0.06503 0)
(-0.146455 0.0401325 0)
(-0.149767 0.0150745 0)
(-0.150533 -0.0101742 0)
(-0.148722 -0.0357833 0)
(-0.14394 -0.0617611 0)
(-0.135472 -0.0876113 0)
(-0.122395 -0.111892 0)
(-0.103868 -0.131683 0)
(-0.0796187 -0.142064 0)
(-0.0508098 -0.135925 0)
(-0.0224022 -0.105057 0)
(-0.00467046 -0.0443574 0)
(-0.00591292 0.0555954 0)
(-0.0268687 0.127584 0)
(-0.0585974 0.161047 0)
(-0.0891544 0.165163 0)
(-0.113564 0.151182 0)
(-0.131366 0.127816 0)
(-0.143512 0.100576 0)
(-0.151332 0.0724046 0)
(-0.156059 0.0445 0)
(-0.158595 0.0170006 0)
(-0.159408 -0.0105051 0)
(-0.158492 -0.0386022 0)
(-0.155353 -0.0677165 0)
(-0.149006 -0.0977135 0)
(-0.138023 -0.127325 0)
(-0.120781 -0.153357 0)
(-0.0959889 -0.169775 0)
(-0.0638562 -0.167033 0)
(-0.0296205 -0.132965 0)
(-0.00658954 -0.0579715 0)
(-0.00848937 0.0722909 0)
(-0.0354904 0.159369 0)
(-0.0724554 0.194314 0)
(-0.104482 0.193022 0)
(-0.127039 0.171672 0)
(-0.141233 0.14157 0)
(-0.149335 0.109177 0)
(-0.15355 0.0774836 0)
(-0.15562 0.047336 0)
(-0.156714 0.018386 0)
(-0.157426 -0.010294 0)
(-0.157791 -0.0398217 0)
(-0.157277 -0.0711874 0)
(-0.1547 -0.104836 0)
(-0.148156 -0.139986 0)
(-0.135097 -0.173527 0)
(-0.11273 -0.198504 0)
(-0.0793807 -0.202523 0)
(-0.039518 -0.167727 0)
(-0.00958623 -0.0764983 0)
(-0.0125887 0.095172 0)
(-0.0471116 0.19792 0)
(-0.0874787 0.230004 0)
(-0.116742 0.218969 0)
(-0.132666 0.187628 0)
(-0.139077 0.149907 0)
(-0.13995 0.112708 0)
(-0.138343 0.0785538 0)
(-0.136344 0.0475773 0)
(-0.135224 0.0187518 0)
(-0.13561 -0.00945199 0)
(-0.137589 -0.0387356 0)
(-0.140703 -0.070741 0)
(-0.143788 -0.106702 0)
(-0.144702 -0.14673 0)
(-0.140087 -0.188446 0)
(-0.125328 -0.224673 0)
(-0.0956533 -0.240298 0)
(-0.0525909 -0.209943 0)
(-0.0142654 -0.102104 0)
(-0.0188805 0.127068 0)
(-0.0614957 0.242378 0)
(-0.0992964 0.263385 0)
(-0.117321 0.236968 0)
(-0.119053 0.19353 0)
(-0.112135 0.148559 0)
(-0.102146 0.108207 0)
(-0.092519 0.0737181 0)
(-0.0852031 0.0441179 0)
(-0.081212 0.0175869 0)
(-0.0810133 -0.00796624 0)
(-0.0847327 -0.0347317 0)
(-0.0921613 -0.0649435 0)
(-0.10253 -0.100712 0)
(-0.114036 -0.143452 0)
(-0.123157 -0.192419 0)
(-0.123756 -0.24166 0)
(-0.107034 -0.274803 0)
(-0.0679608 -0.258215 0)
(-0.0211643 -0.137779 0)
(-0.0270799 0.172393 0)
(-0.0745684 0.287702 0)
(-0.0955112 0.283729 0)
(-0.0878993 0.236548 0)
(-0.0656016 0.18158 0)
(-0.0397696 0.132535 0)
(-0.0162025 0.0928084 0)
(0.00253095 0.0614651 0)
(0.0155027 0.0362031 0)
(0.0224885 0.0145329 0)
(0.0234401 -0.00593549 0)
(0.0182406 -0.0275658 0)
(0.00667567 -0.0528742 0)
(-0.011357 -0.084644 0)
(-0.0352974 -0.125719 0)
(-0.0628522 -0.177876 0)
(-0.0880873 -0.238615 0)
(-0.0990374 -0.294228 0)
(-0.0798559 -0.306282 0)
(-0.0293423 -0.187845 0)
(-0.0310805 0.234717 0)
(-0.0696299 0.3175 0)
(-0.0454242 0.270202 0)
(0.00718611 0.202491 0)
(0.0615672 0.143297 0)
(0.107974 0.0980958 0)
(0.143998 0.0653902 0)
(0.169909 0.0418044 0)
(0.18682 0.0241039 0)
(0.195772 0.00967198 0)
(0.197335 -0.00364047 0)
(0.191466 -0.0178291 0)
(0.177473 -0.0350938 0)
(0.154073 -0.0582188 0)
(0.119717 -0.0908804 0)
(0.0735213 -0.137425 0)
(0.0173439 -0.200909 0)
(-0.0393604 -0.277094 0)
(-0.068709 -0.335217 0)
(-0.0307666 -0.253707 0)
(0.00753126 0.281297 0)
(0.0141194 0.287782 0)
(0.121244 0.19799 0)
(0.229452 0.127288 0)
(0.30984 0.0804159 0)
(0.366459 0.0503863 0)
(0.405403 0.0313768 0)
(0.43119 0.0190945 0)
(0.447126 0.010658 0)
(0.455335 0.00420375 0)
(0.456853 -0.00156945 0)
(0.45174 -0.00777413 0)
(0.439062 -0.0156728 0)
(0.416726 -0.0270923 0)
(0.381252 -0.0450221 0)
(0.32762 -0.0743827 0)
(0.24887 -0.122618 0)
(0.139251 -0.198737 0)
(0.0271629 -0.297123 0)
(0.0159386 -0.294317 0)
(0.300053 0.146586 0)
(0.39554 0.126537 0)
(0.551434 0.073862 0)
(0.660531 0.0408664 0)
(0.720964 0.0226593 0)
(0.755655 0.0126624 0)
(0.776594 0.00715725 0)
(0.789243 0.00403698 0)
(0.796561 0.00213196 0)
(0.800145 0.000803406 0)
(0.800705 -0.00032895 0)
(0.798302 -0.00155572 0)
(0.792374 -0.0032071 0)
(0.781518 -0.0058227 0)
(0.762992 -0.010451 0)
(0.731535 -0.019202 0)
(0.675336 -0.0362465 0)
(0.569457 -0.0693421 0)
(0.410292 -0.125043 0)
(0.308053 -0.148685 0)
)
;

boundaryField
{
    movingWall
    {
        type            fixedValue;
        value           uniform (1 0 0);
    }
    fixedWalls
    {
        type            noSlip;
    }
    frontAndBack
    {
        type            empty;
    }
}


// ************************************************************************* //
