/*--------------------------------*- C++ -*----------------------------------*\
  =========                 |
  \\      /  F ield         | OpenFOAM: The Open Source CFD Toolbox
   \\    /   O peration     | Website:  https://openfoam.org
    \\  /    A nd           | Version:  8
     \\/     M anipulation  |
\*---------------------------------------------------------------------------*/
FoamFile
{
    version     2.0;
    format      ascii;
    class       surfaceScalarField;
    location    "80";
    object      phi;
}
// * * * * * * * * * * * * * * * * * * * * * * * * * * * * * * * * * * * * * //

dimensions      [0 3 -1 0 0 0 0];

internalField   nonuniform List<scalar> 
34404
(
0.00534161
-8.27104e-06
-7.34555e-09
0.0053644
-2.27777e-05
-9.50639e-09
0.00540353
-3.90945e-05
-2.91321e-08
0.00545513
-5.15691e-05
-3.16914e-08
0.00552107
-6.59106e-05
-3.25561e-08
0.00559577
-7.46822e-05
-2.3732e-08
0.00568219
-8.63963e-05
-1.54112e-08
0.00577249
-9.02912e-05
-9.41305e-09
0.00586916
-9.66738e-05
-2.86625e-10
0.00596548
-9.63298e-05
7.76636e-09
0.00606276
-9.72909e-05
1.57086e-08
0.00615472
-9.19733e-05
7.62706e-09
0.00624308
-8.83779e-05
1.96008e-08
0.00632304
-7.9975e-05
2.16878e-08
0.00639485
-7.18367e-05
2.5402e-08
0.00645582
-6.09904e-05
2.06333e-08
0.00650536
-4.95672e-05
2.44547e-08
0.00654239
-3.70402e-05
1.42119e-08
0.0065655
-2.31318e-05
2.09116e-08
0.00657499
-9.51355e-06
1.62478e-08
0.00656825
6.71288e-06
2.61449e-08
0.00654749
2.07535e-05
1.44165e-08
0.00650884
3.86241e-05
2.61759e-08
0.00645609
5.27328e-05
1.79289e-08
0.006385
7.10594e-05
2.68517e-08
0.00630123
8.37483e-05
2.29426e-08
0.00620033
0.000100878
2.25284e-08
0.00608993
0.000110381
2.00147e-08
0.00596466
0.000125259
1.25332e-08
0.00583391
0.000130731
1.63709e-08
0.00569155
0.000142356
-2.56392e-09
0.00554964
0.000141908
8.3408e-09
0.00540219
0.000147455
-1.10589e-08
0.00526264
0.000139557
5.07132e-10
0.00512675
0.000135897
-5.27781e-09
0.00500586
0.000120896
-6.94887e-09
0.00490216
0.000103701
-5.24326e-09
0.00481924
8.29196e-05
-5.35786e-10
0.00477088
4.83791e-05
-2.20345e-08
0.00474603
2.48365e-05
2.04443e-08
0.00478048
-3.43917e-05
-5.91008e-08
0.00483133
-5.09186e-05
7.0794e-08
0.00497762
-0.000146066
-2.2767e-07
0.00511382
-0.000136296
9.70851e-08
0.00538873
-0.000274067
-8.43597e-07
0.00562242
-0.000233622
-6.487e-08
0.00601043
-0.000386396
-1.61869e-06
0.00636411
-0.000352212
-1.46399e-06
0.00682215
-0.000455506
-2.53874e-06
-0.000475538
-4.17743e-06
0.00534182
-1.67514e-05
-8.67591e-09
0.00536506
-4.60085e-05
-7.87499e-09
0.00540503
-7.90328e-05
-2.99622e-08
0.00545753
-0.000104037
-3.07508e-08
0.00552485
-0.000133197
-3.25711e-08
0.00560112
-0.00015093
-2.1777e-08
0.00568926
-0.00017453
-1.2675e-08
0.00578123
-0.000182245
-9.89205e-09
0.00587983
-0.000195273
-1.57906e-09
0.00597787
-0.00019438
5.70557e-09
0.00607668
-0.000196111
1.46499e-08
0.0061702
-0.000185504
8.48072e-09
0.00625985
-0.000178049
2.41192e-08
0.00634096
-0.000161108
2.38647e-08
0.00641374
-0.000144645
2.66236e-08
0.00647565
-0.000122914
1.86055e-08
0.00652591
-9.98568e-05
2.20117e-08
0.00656368
-7.48188e-05
8.6122e-09
0.00658733
-4.67949e-05
1.88535e-08
0.00659735
-1.95567e-05
1.57215e-08
0.00659096
1.30801e-05
2.32185e-08
0.00657043
4.12733e-05
1.79378e-08
0.00653171
7.73139e-05
2.89993e-08
0.00647869
0.000105734
1.80137e-08
0.00640699
0.000142726
3.43822e-08
0.00632245
0.000168266
1.74064e-08
0.00622054
0.000202766
2.80555e-08
0.00610887
0.000222023
2.39951e-08
0.00598233
0.000251797
5.74302e-09
0.00584973
0.000263305
1.97501e-08
0.00570535
0.000286743
-2.82308e-09
0.00556128
0.00028597
7.0946e-09
0.00541113
0.000297618
-1.57799e-08
0.00526883
0.000281862
3.2035e-10
0.00512996
0.00027477
-8.54922e-09
0.0050062
0.000244671
-1.01332e-08
0.00489885
0.000211049
3.61109e-09
0.00481286
0.000168915
-7.67598e-09
0.00476183
9.94321e-05
-2.24822e-08
0.0047339
5.27243e-05
4.21795e-08
0.00476583
-6.62245e-05
-1.01621e-07
0.00481367
-9.89402e-05
1.8407e-07
0.00496092
-0.000292734
-5.81843e-07
0.00509433
-0.000270108
4.06196e-07
0.00537606
-0.000553578
-2.22545e-06
0.00560424
-0.000462195
3.95517e-07
0.0059997
-0.000777642
-4.20942e-06
0.00635644
-0.00070611
-2.84803e-06
0.00682081
-0.000914466
-5.4091e-06
-0.000968572
-1.04667e-05
0.00534229
-2.56954e-05
-1.20916e-08
0.00536649
-7.01992e-05
-4.58285e-09
0.00540826
-0.00012077
-3.21953e-08
0.00546278
-0.000158532
-2.89488e-08
0.00553299
-0.000203372
-3.35473e-08
0.00561248
-0.000230398
-2.50006e-08
0.00570417
-0.000266199
-1.44611e-08
0.00579966
-0.000277733
-7.05808e-09
0.00590222
-0.000297836
6.43548e-09
0.0060037
-0.000295873
7.86944e-09
0.00610558
-0.000298001
1.0011e-08
0.00620218
-0.0002821
2.27926e-09
0.00629442
-0.000270325
3.10062e-08
0.00637782
-0.000244533
2.70478e-08
0.00645245
-0.000219307
2.94945e-08
0.00651611
-0.000186589
1.89935e-08
0.00656771
-0.000151479
1.29007e-08
0.00660693
-0.000114036
1.59125e-09
0.0066316
-7.14796e-05
1.21496e-08
0.00664267
-3.06324e-05
1.05942e-08
0.00663683
1.88818e-05
3.20008e-08
0.00661682
6.12699e-05
1.48023e-08
0.00657777
0.000116326
4.35115e-08
0.00652417
0.000159308
2.42684e-08
0.00645121
0.000215643
3.88734e-08
0.00636485
0.000254596
3.62715e-08
0.006261
0.000306585
2.71112e-08
0.00614679
0.000336206
2.7337e-08
0.00601733
0.000381237
1.92868e-08
0.00588127
0.000399357
7.61101e-09
0.00573286
0.000435164
-1.09347e-08
0.005584
0.000434818
1.70834e-08
0.00542885
0.000452798
-3.30844e-08
0.00528121
0.0004295
3.65885e-09
0.00513573
0.000420265
-1.27385e-08
0.00500624
0.000374178
-2.16037e-08
0.00489251
0.000324762
1.65144e-08
0.00480021
0.000261236
-2.15129e-08
0.00474251
0.00015715
-1.47143e-08
0.00470827
8.68726e-05
9.26068e-08
0.00473694
-9.46318e-05
-2.66601e-07
0.0047797
-0.000142247
5.44231e-07
0.00492855
-0.000439884
-1.69254e-06
0.00505467
-0.000397849
1.62321e-06
0.00535071
-0.000842529
-7.09197e-06
0.00556885
-0.000682926
2.59289e-06
0.00598243
-0.00117819
-1.30343e-05
0.00634336
-0.0010606
-6.43808e-06
0.00681585
-0.00137327
-1.36829e-05
-0.00148895
-3.15292e-05
0.00534305
-3.53939e-05
-1.90503e-08
0.00536873
-9.58788e-05
4.68744e-10
0.00541315
-0.000165151
-3.54978e-08
0.00547094
-0.000216295
-2.47986e-08
0.00554562
-0.000278023
-3.04028e-08
0.00563001
-0.00031476
-2.94882e-08
0.00572711
-0.000363275
-2.52256e-08
0.00582809
-0.000378695
-1.25846e-08
0.00593673
-0.000406504
2.05811e-08
0.00604349
-0.000402645
1.83342e-08
0.00615017
-0.000404699
9.88673e-09
0.00625151
-0.000383432
-1.31529e-09
0.00634756
-0.000366417
3.92663e-08
0.00643445
-0.000331455
2.91475e-08
0.00651187
-0.000296764
3.89633e-08
0.00657819
-0.000252922
1.29249e-08
0.00663178
-0.000205078
8.27832e-09
0.00667324
-0.00015547
-2.43457e-08
0.00669943
-9.76707e-05
1.34668e-09
0.00671216
-4.33711e-05
5.81016e-09
0.00670724
2.37802e-05
2.41983e-08
0.00668781
8.06568e-05
4.20756e-08
0.00664845
0.000155644
4.77296e-08
0.0065938
0.000213906
4.72314e-08
0.00651881
0.000290558
6.9533e-08
0.0064299
0.000343476
3.12642e-08
0.00632277
0.000413648
7.46437e-08
0.00620489
0.000454075
1.22645e-08
0.00607122
0.00051488
2.66966e-08
0.00592934
0.00054121
2.33108e-08
0.0057752
0.000589362
-5.93259e-08
0.0056193
0.00059069
2.24552e-08
0.005456
0.000616157
-5.1875e-08
0.00530038
0.000585104
1.24774e-08
0.0051456
0.000575067
-2.60963e-08
0.00500686
0.000512972
-4.98289e-08
0.00488268
0.000448888
5.09949e-08
0.00478183
0.000362152
-6.15343e-08
0.00471458
0.00022442
-2.163e-08
0.00467139
0.000129847
2.13955e-07
0.00469222
-0.000114874
-5.90107e-07
0.00472764
-0.000179197
1.5368e-06
0.00488079
-0.000588045
-4.99569e-06
0.00499875
-0.000521445
5.64097e-06
0.00532046
-0.00114288
-2.13515e-05
0.00551749
-0.000890813
1.08519e-05
0.0059595
-0.00158215
-3.80531e-05
0.00632647
-0.00141348
-1.40924e-05
0.00680622
-0.00181938
-3.3645e-05
-0.00202307
-9.07727e-05
0.00534427
-4.62938e-05
-3.42867e-08
0.00537183
-0.000123446
8.70638e-09
0.00541983
-0.00021312
-3.40993e-08
0.0054823
-0.000278739
-1.93996e-08
0.00556306
-0.000358768
-2.30542e-08
0.00565445
-0.000406109
-3.39671e-08
0.0057589
-0.000467698
-3.15659e-08
0.00586759
-0.000487358
-3.01814e-08
0.00598457
-0.000523499
1.46583e-08
0.00609859
-0.000516678
1.913e-08
0.00621202
-0.000518149
1.84922e-08
0.00631987
-0.000491286
3.67934e-09
0.00642099
-0.000467596
5.4955e-08
0.0065126
-0.000423088
3.06779e-08
0.00659375
-0.000377966
5.17041e-08
0.00666363
-0.000322832
2.30832e-08
0.00672
-0.000261419
-2.32323e-08
0.00676437
-0.000199802
-3.46183e-08
0.00679283
-0.0001261
-3.91329e-08
0.00680776
-5.82758e-05
-2.22519e-08
0.00680411
2.73905e-05
4.12762e-08
0.00678564
9.91049e-05
2.05005e-08
0.00674532
0.000195836
1.32603e-07
0.00668961
0.000269559
5.74303e-08
0.00661153
0.0003685
1.31431e-07
0.00651898
0.000435948
7.64038e-08
0.0064078
0.000524736
9.74676e-08
0.00628455
0.000577249
7.16563e-08
0.00614519
0.000654252
-8.31385e-09
0.00599589
0.000690487
2.57798e-08
0.0058333
0.000751989
-4.35415e-08
0.00566803
0.000756005
-4.19369e-08
0.00549453
0.000789771
-1.13826e-07
0.00532695
0.000752649
4.0076e-08
0.00515979
0.000742275
-5.10823e-08
0.0050094
0.000663443
-8.20732e-08
0.00487089
0.000587308
9.18568e-08
0.00475781
0.000475385
-1.50995e-07
0.00467648
0.00030571
3.794e-08
0.00462337
0.00018261
3.43324e-07
0.00463356
-0.000123685
-1.37986e-06
0.00466055
-0.000210283
4.10292e-06
0.00481806
-0.000732469
-1.30907e-05
0.0049264
-0.000646096
1.63111e-05
0.00529152
-0.00145079
-5.72196e-05
0.00546032
-0.00109355
3.39344e-05
0.00594589
-0.00197148
-9.62399e-05
0.00631531
-0.00175161
-3.129e-05
0.00679159
-0.00221593
-7.97261e-05
-0.00251049
-0.000228148
0.00534612
-5.90075e-05
-6.72844e-08
0.00537573
-0.000153083
2.62425e-08
0.00542856
-0.000265939
-1.60103e-08
0.00549729
-0.000347456
-9.86268e-09
0.0055857
-0.000447172
-2.62816e-09
0.00568666
-0.000507023
-5.05924e-08
0.00580061
-0.00058162
-3.06126e-08
0.00591966
-0.000606345
-6.11057e-08
0.00604755
-0.000651376
-1.21857e-08
0.00617105
-0.000640185
6.56371e-09
0.00629348
-0.000640607
2.62834e-08
0.00640974
-0.000607572
3.14856e-08
0.00651721
-0.000575133
6.49776e-08
0.00661482
-0.000520717
2.39664e-08
0.00670047
-0.000463731
1.05341e-07
0.00677498
-0.000397351
1.18206e-08
0.00683483
-0.000321282
1.38421e-08
0.00688331
-0.000248161
-1.24751e-07
0.00691426
-0.000156979
-6.22878e-08
0.00693263
-7.65692e-05
-7.72365e-08
0.00693029
2.97666e-05
-4.03155e-08
0.0069128
0.000116514
8.31502e-08
0.00687188
0.000236676
8.20062e-08
0.00681377
0.000327479
1.84025e-07
0.00673202
0.000450033
2.18348e-07
0.00663483
0.000532987
1.51676e-07
0.00651787
0.000641497
1.9878e-07
0.00638842
0.000706588
1.08661e-07
0.00624128
0.000801266
1.24951e-07
0.00608232
0.000849628
-1.75979e-07
0.00590983
0.000924504
-2.18455e-08
0.00573162
0.00093411
9.73292e-08
0.0055452
0.000976549
-3.53107e-07
0.0053631
0.000934763
-1.09877e-08
0.00517969
0.000925771
-9.05579e-08
0.00501381
0.000829455
-1.29037e-07
0.00485733
0.00074349
2.9051e-07
0.00473056
0.000602649
-4.87141e-07
0.00462919
0.000406808
2.72443e-07
0.00456297
0.000248354
4.75616e-07
0.0045563
-0.000114431
-2.58566e-06
0.00457962
-0.000242124
8.52339e-06
0.00474497
-0.000868408
-2.94098e-05
0.00484785
-0.000787085
3.8104e-05
0.00527992
-0.00175634
-0.000126518
0.00540952
-0.00129974
7.65987e-05
0.00595423
-0.00232058
-0.000195614
0.00632524
-0.00204665
-7.59688e-05
0.00678579
-0.00249048
-0.000185995
-0.00284111
-0.00046082
0.00534888
-7.44057e-05
-1.49006e-07
0.00538008
-0.000184361
7.88423e-08
0.00543983
-0.000325712
2.608e-08
0.0055164
-0.000424035
4.88276e-09
0.00561428
-0.000545113
6.17053e-08
0.005728
-0.000620647
-8.89611e-08
0.00585336
-0.000706957
-2.14399e-08
0.00598623
-0.000739054
-1.60213e-07
0.00612805
-0.000793131
-6.87019e-08
0.00626369
-0.000775782
-4.47984e-08
0.00639765
-0.000774628
6.35517e-08
0.0065245
-0.000734482
5.89633e-08
0.00663976
-0.000690498
1.03601e-07
0.00674474
-0.000625732
3.44978e-08
0.00683558
-0.000554714
1.4876e-07
0.00691558
-0.000477476
1.20312e-07
0.00698012
-0.000385752
-7.4102e-08
0.0070333
-0.000301284
-5.28909e-08
0.00706833
-0.000191794
-2.2034e-07
0.00709013
-9.8147e-05
-2.2232e-07
0.00709016
2.97608e-05
-1.86734e-08
0.00707385
0.000132989
-1.67793e-07
0.00703125
0.000279042
2.34873e-07
0.00697114
0.000387478
1.12986e-07
0.00688361
0.000537221
3.42531e-07
0.00678053
0.000635757
3.13284e-07
0.00665704
0.000764468
5.12521e-07
0.00651909
0.000844534
3.82584e-09
0.00636207
0.000957905
3.83492e-07
0.00619194
0.00101959
1.68555e-07
0.00600634
0.00111078
-6.78678e-07
0.00581305
0.00112735
5.0787e-08
0.00561005
0.00117944
1.13585e-07
0.00540926
0.00113574
-1.91095e-07
0.00520747
0.00112811
-5.48386e-07
0.00502159
0.00101581
-4.69628e-07
0.00484303
0.000921287
7.60926e-07
0.00470015
0.000746601
-1.07065e-06
0.00457289
0.00053307
9.98654e-07
0.00449549
0.000325951
-1.9443e-07
0.00445943
-7.60715e-05
-2.30408e-06
0.00448242
-0.00027749
1.23727e-05
0.00465839
-0.000992791
-5.15793e-05
0.00477107
-0.000966056
6.62845e-05
0.00530552
-0.00207432
-0.000216463
0.00540729
-0.00150894
0.000107428
0.00599612
-0.00260082
-0.000308591
0.00638297
-0.00223531
-0.000198189
0.00681487
-0.00252792
-0.000394468
-0.00291997
-0.000689667
0.00535254
-9.32534e-05
-3.52139e-07
0.00538448
-0.00021652
2.12846e-07
0.0054542
-0.000395564
1.32515e-07
0.00553986
-0.000509727
3.39762e-08
0.00565012
-0.0006556
2.24106e-07
0.00578025
-0.00075059
-1.83852e-07
0.00591882
-0.000845553
2.77205e-08
0.00607
-0.000889869
-3.65649e-07
0.00622927
-0.000952206
-2.00839e-07
0.00638022
-0.000926554
-1.70909e-07
0.00652872
-0.000923122
-5.26395e-09
0.00666837
-0.000874268
1.30103e-07
0.00679348
-0.000815713
1.01588e-07
0.00690731
-0.000739649
8.99996e-08
0.00700415
-0.000651947
3.97861e-07
0.00709075
-0.000564034
-4.91024e-08
0.00716031
-0.000455547
2.42569e-07
0.00722013
-0.00036085
-2.61866e-07
0.00725907
-0.000230454
-2.73441e-07
0.00728693
-0.000125813
-1.92688e-07
0.0072889
2.82493e-05
-4.62546e-07
0.00727448
0.000147476
-6.8487e-08
0.00723088
0.000322811
-1.68556e-07
0.00716586
0.000452373
1.27802e-07
0.00707234
0.000630129
6.13118e-07
0.00696214
0.000746055
-9.42223e-08
0.00682831
0.000897448
8.44546e-07
0.00668193
0.000989874
1.039e-06
0.00651173
0.00112829
-1.85779e-07
0.0063264
0.00120476
1.63115e-07
0.00612692
0.0013091
1.15531e-06
0.00591488
0.00134099
-1.60263e-06
0.00569161
0.00140397
-1.26113e-06
0.00546783
0.00135806
1.47087e-06
0.00524514
0.0013506
1.94467e-07
0.00503417
0.00122846
-1.6923e-06
0.00482784
0.00112664
9.74948e-07
0.00466658
0.000910856
-2.99572e-06
0.00450608
0.000690202
3.36852e-06
0.00441684
0.000418029
-2.83883e-06
0.00434073
-2.33603e-06
2.37712e-06
0.00437339
-0.000316735
6.59083e-06
0.00456225
-0.00112457
-5.70777e-05
0.0047131
-0.00119355
7.66452e-05
0.00535447
-0.0024318
-0.000283898
0.00549757
-0.00166945
1.74137e-05
0.00605917
-0.00274969
-0.000412721
0.00653403
-0.00223707
-0.0004731
0.00692138
-0.00226281
-0.000652462
-0.00277079
-0.000708071
0.00535631
-0.000115377
-8.5263e-07
0.0053891
-0.000249876
5.66943e-07
0.00547254
-0.000479412
4.11858e-07
0.00556786
-0.00060516
1.12116e-07
0.00569496
-0.000783255
5.51359e-07
0.00584515
-0.000900399
-3.80596e-07
0.00599971
-0.00100033
2.28396e-07
0.00617537
-0.00106475
-7.79401e-07
0.00635567
-0.00113228
-2.32827e-07
0.00652588
-0.00109628
-4.921e-07
0.00669216
-0.00108938
-1.30136e-08
0.0068478
-0.00102988
-3.24007e-08
0.00698434
-0.000952337
8.58163e-08
0.00710931
-0.000864879
2.53393e-07
0.00721313
-0.000756072
3.11098e-07
0.00730795
-0.000659125
2.73775e-07
0.0073833
-0.000530865
-3.49019e-08
0.00744981
-0.000427239
-1.20466e-07
0.00749509
-0.000275749
1.42079e-08
0.00752906
-0.000159086
-6.96272e-07
0.00753554
2.16026e-05
1.637e-07
0.0075232
0.000160723
-9.0599e-07
0.00747746
0.000368617
-6.78591e-08
0.00740994
0.000519772
1.24969e-07
0.0073041
0.000736731
-7.64746e-07
0.00718501
0.000863365
1.78366e-06
0.00704212
0.00104009
2.46805e-07
0.00687965
0.00115345
-1.11281e-06
0.00669567
0.0013082
4.07138e-06
0.00649489
0.00140638
-8.32701e-07
0.00627089
0.0015346
-1.4894e-06
0.00604039
0.00156784
3.65175e-06
0.00579281
0.0016527
-1.1523e-06
0.00553768
0.00161805
-4.85915e-06
0.00529396
0.00159391
4.18081e-07
0.00506067
0.00146114
6.12336e-07
0.00482881
0.00135417
4.3355e-06
0.00463807
0.00111021
-8.6236e-06
0.00443058
0.000889949
7.74584e-06
0.00432461
0.000531085
-7.0834e-06
0.00419565
0.000121412
5.21446e-06
0.00424848
-0.000359213
-1.03541e-05
0.00444696
-0.00132376
7.029e-07
0.00469261
-0.00144821
9.01589e-06
0.00536337
-0.00275813
-0.000344428
0.00570535
-0.00163906
-0.000372375
0.00614117
-0.00261529
-0.00057022
0.00673871
-0.00202831
-0.000806305
0.00706204
-0.00187998
-0.000706156
-0.00258755
-0.00044736
0.00535728
-0.000137307
-2.01965e-06
0.00539647
-0.000290543
1.47967e-06
0.00549481
-0.000578832
1.08495e-06
0.0056017
-0.000712104
4.89813e-08
0.0057518
-0.000934508
1.15495e-06
0.00592402
-0.00107184
-7.7283e-07
0.00610085
-0.00117797
7.97151e-07
0.00630893
-0.0012714
-1.43638e-06
0.00651422
-0.00133755
-1.81405e-08
0.00670838
-0.00128966
-7.72207e-07
0.00689724
-0.00127813
-1.19758e-07
0.00707138
-0.00120421
1.92979e-07
0.00722079
-0.00110177
2.14314e-08
0.00735894
-0.00100273
-2.99872e-07
0.00747181
-0.000869837
8.98636e-07
0.0075768
-0.000763629
-4.87857e-07
0.00765995
-0.000613744
-2.75333e-07
0.00773365
-0.000501335
3.93275e-07
0.00778613
-0.000327724
-4.96792e-07
0.00783086
-0.000204333
5.10433e-07
0.00783993
1.41218e-05
-1.58873e-06
0.00783104
0.000168219
1.39721e-06
0.00778548
0.000414402
-2.23509e-07
0.00770552
0.000603056
-3.32828e-06
0.00759665
0.000841123
4.47577e-06
0.00745995
0.00100431
-4.23941e-06
0.00729955
0.00119835
2.13277e-06
0.00712558
0.00132299
4.43437e-06
0.00691792
0.00152037
-4.50515e-06
0.00670043
0.00162164
2.22355e-06
0.00645275
0.00177613
6.15266e-06
0.00619177
0.00183619
-7.37724e-06
0.00591679
0.00192489
2.78606e-06
0.00563618
0.00189075
7.91122e-06
0.00533742
0.00189767
-5.01074e-06
0.00504557
0.0017636
-1.06139e-05
0.00478682
0.00160382
9.09394e-06
0.00459724
0.00131021
-1.0415e-05
0.00436602
0.00109682
2.43427e-05
0.00423356
0.000681842
-1.82998e-05
0.0040336
0.000319231
2.14863e-06
0.00410142
-0.000451832
2.47936e-05
0.0042774
-0.0015998
0.000100053
0.00470171
-0.0015703
-0.000302216
0.00529298
-0.00280909
-0.000540316
0.00587383
-0.00121606
-0.00100385
0.00623682
-0.00228121
-0.000697067
0.00684156
-0.00190435
-0.000728704
0.00708681
-0.00179214
-0.000333094
-0.00265659
-6.23888e-05
0.00535265
-0.000152248
-4.3752e-06
0.0054133
-0.000355139
3.94824e-06
0.005518
-0.000685207
1.67247e-06
0.00564573
-0.000839335
-4.92015e-07
0.00582366
-0.00111496
2.52494e-06
0.00601832
-0.00126449
-2.0176e-06
0.00623172
-0.00139327
1.89809e-06
0.0064789
-0.00151618
-2.38792e-06
0.00671406
-0.00157433
1.61621e-06
0.00693951
-0.0015133
-1.80507e-06
0.00715726
-0.00149678
8.91875e-07
0.00735071
-0.00139865
9.95063e-07
0.00751381
-0.00126433
-5.27683e-07
0.00766821
-0.00115707
-6.77604e-08
0.00779145
-0.000994362
1.28217e-06
0.00790999
-0.000879653
-2.51157e-06
0.00800104
-0.000705571
7.7506e-07
0.00808668
-0.000586274
-6.96071e-07
0.00815091
-0.00039301
1.05754e-06
0.00820176
-0.000251352
-3.83687e-06
0.00822127
-1.14798e-05
6.09735e-06
0.00821639
0.000177476
-4.38394e-06
0.00816434
0.000468866
-2.41288e-06
0.00807523
0.000681284
1.08798e-05
0.00794685
0.000980959
-1.14502e-05
0.00780308
0.00114446
3.61644e-06
0.00761044
0.00138599
5.00006e-06
0.00742968
0.00151492
-1.11715e-05
0.00719316
0.00174481
1.20819e-05
0.00694369
0.0018707
4.16841e-07
0.00666891
0.0020587
-7.78812e-06
0.00637886
0.00211788
8.35722e-06
0.0060557
0.00224636
1.69084e-06
0.00575491
0.00220699
-1.54484e-05
0.00549348
0.00215147
7.64132e-06
0.00522138
0.00202298
1.27117e-05
0.00490174
0.00192397
-5.12357e-07
0.00459403
0.00164375
-2.58295e-05
0.00427336
0.00137551
4.19846e-05
0.00409923
0.000916479
-6.05087e-05
0.00388775
0.000490601
4.01073e-05
0.00389731
-0.000636458
0.000175069
0.00405594
-0.0017541
-4.32794e-06
0.00468989
-0.00125767
-0.000946576
0.00521166
-0.00253958
-0.000791279
0.00577428
-0.000622785
-0.0011559
0.00619776
-0.00237466
-0.00033002
0.00660997
-0.00222152
-9.50377e-05
0.00688513
-0.00233702
0.000269712
-0.00318
0.000293597
0.00534763
-0.000158905
-7.64116e-06
0.00544249
-0.000459082
9.09164e-06
0.00553756
-0.000780749
4.70756e-07
0.00570809
-0.00100773
-2.14148e-06
0.00590788
-0.0013202
5.44518e-06
0.00613471
-0.00148613
-5.18566e-06
0.0064045
-0.00166613
3.07005e-06
0.0066931
-0.00180139
-3.39458e-06
0.0069663
-0.00185144
3.90057e-06
0.00723489
-0.00177893
-2.95083e-06
0.00748467
-0.00174909
2.53148e-06
0.00769887
-0.001615
2.14661e-06
0.00787561
-0.00143982
-1.24119e-06
0.00805363
-0.0013364
1.30731e-06
0.00818461
-0.00112639
1.04282e-06
0.00832076
-0.00101233
-3.47403e-06
0.00841979
-0.0008072
2.59977e-06
0.00852187
-0.000689129
7.74867e-07
0.00859891
-0.000461764
-8.27951e-06
0.00866021
-0.000325294
1.26365e-05
0.00869642
-3.59076e-05
-1.17849e-05
0.00869494
0.000177848
1.10825e-06
0.0086199
0.000533161
1.07443e-05
0.00854859
0.000773052
-2.04544e-05
0.00837566
0.00113696
1.69328e-05
0.00819227
0.00132225
5.59559e-06
0.00803305
0.00156292
-1.77107e-05
0.00775664
0.00177863
1.27139e-05
0.00752762
0.00197293
8.94639e-07
0.00728786
0.00212465
-1.41946e-05
0.0069271
0.00239953
1.99225e-05
0.0066019
0.00244813
-5.04694e-06
0.00620769
0.00264933
-8.74836e-06
0.00580942
0.00257323
3.20238e-05
0.00532582
0.00265403
-1.89614e-05
0.00490463
0.00246806
-2.38924e-05
0.00459728
0.00226292
-3.15916e-05
0.00437781
0.00181293
5.02876e-05
0.00414908
0.00161061
-6.36003e-06
0.00398122
0.00119427
-0.00010994
0.00363944
0.000577624
0.000254752
0.00355683
-0.00079123
0.000237386
0.00385892
-0.00146238
-0.000593809
0.00453951
-0.000622281
-0.00131599
0.00517393
-0.00266907
-0.000504926
0.0052858
-0.000247158
-0.000487497
0.0057888
-0.00327859
0.00040092
0.00596808
-0.00295016
0.000549364
0.00639199
-0.00354053
0.000779609
-0.00420306
0.000567276
0.00535739
-0.000173389
-9.5672e-06
0.0054705
-0.00058742
1.52277e-05
0.00556224
-0.000868566
-3.92874e-06
0.00578848
-0.00123075
-3.22032e-06
0.00599622
-0.00153621
8.27914e-06
0.00628758
-0.00176707
-1.04295e-05
0.0066224
-0.00200592
4.97016e-06
0.00695675
-0.00212992
-5.81427e-06
0.00728639
-0.00218848
7.394e-06
0.00760579
-0.00209149
-6.83057e-06
0.00789225
-0.00204071
5.16238e-06
0.00812197
-0.0018471
2.36956e-06
0.00832623
-0.00163965
-4.42959e-06
0.00852111
-0.0015374
6.11937e-06
0.00866697
-0.00126682
-5.43051e-06
0.00881334
-0.0011625
3.80533e-06
0.0089271
-0.000924572
3.61102e-06
0.00904962
-0.000798924
-1.27278e-05
0.00911823
-0.000551029
2.06565e-05
0.00922733
-0.000413794
-2.06031e-05
0.00926967
-8.62189e-05
7.97066e-06
0.00923867
0.000202091
6.76072e-06
0.00924364
0.000545082
-1.68867e-05
0.00905526
0.000948161
1.32637e-05
0.00891298
0.0012836
-4.35798e-06
0.0087277
0.00152582
-1.8299e-05
0.00841922
0.00183949
3.19124e-05
0.00826049
0.00194408
-6.72309e-06
0.00791715
0.00232289
-6.61987e-06
0.00760903
0.00243885
-6.07767e-06
0.00727008
0.0027162
2.22824e-05
0.0069338
0.00283277
-4.83567e-05
0.00654332
0.00300274
3.70627e-05
0.00629923
0.00287292
-5.55883e-05
0.00601251
0.0029032
3.75476e-05
0.00573879
0.00268924
5.25352e-05
0.00540236
0.00261389
-1.45398e-05
0.00493933
0.00211295
0.00016301
0.00450297
0.00219039
-0.000143419
0.00409202
0.00149355
0.000111678
0.00346233
0.000678736
0.00052857
0.00336132
-0.000475926
-0.000214296
0.0038409
-0.000928655
-0.0010133
0.00423374
-0.000214666
-0.000800457
0.00492504
-0.00355228
0.000191906
0.00482331
-0.000335619
0.000190191
0.00514073
-0.00460173
0.00100572
0.00510737
-0.00397652
0.00105973
0.00571313
-0.00520916
0.00106286
-0.00541707
0.000585969
0.00539066
-0.000223621
-7.09063e-06
0.00547166
-0.000683759
1.53378e-05
0.00561452
-0.0010036
-7.82384e-06
0.005863
-0.00147776
-1.46505e-06
0.00609916
-0.00178191
9.54712e-06
0.00648523
-0.0021374
-1.57401e-05
0.00687447
-0.00240197
6.81814e-06
0.00728472
-0.00253653
-3.64973e-06
0.00768592
-0.00259457
4.89903e-06
0.00806731
-0.00246334
-9.54458e-06
0.008372
-0.0023549
9.50024e-06
0.00863699
-0.0021065
-5.58253e-06
0.00886902
-0.00187322
1.5378e-06
0.00908829
-0.00175216
-4.50456e-06
0.00922658
-0.00141132
6.21505e-06
0.00938897
-0.001325
1.00933e-07
0.00952845
-0.00105066
-1.33923e-05
0.00961072
-0.000908481
2.72857e-05
0.00975008
-0.000661268
-2.9117e-05
0.00984837
-0.000529544
1.74607e-05
0.00988711
-0.000124485
-4.80723e-07
0.00993901
0.000162013
-1.18239e-05
0.0098563
0.000622999
4.80102e-06
0.00974376
0.00104845
1.2248e-05
0.00952438
0.00151588
-1.29074e-05
0.00928187
0.00176442
3.91772e-06
0.00901959
0.00209935
2.41895e-06
0.00874795
0.00223678
-2.10651e-05
0.00847684
0.00255949
3.45116e-05
0.0080317
0.00286536
1.86262e-05
0.00763963
0.00312952
-2.1254e-05
0.00707887
0.00335583
3.77095e-05
0.00630965
0.00369503
7.69213e-05
0.00564902
0.00361783
-8.42811e-05
0.00500642
0.00345375
9.20511e-05
0.00475731
0.00318716
-0.000248813
0.00426143
0.00302649
8.32805e-05
0.00382829
0.00248051
6.55735e-05
0.00367575
0.0025688
-0.000225866
0.00332249
0.00140639
0.000440419
0.00290468
0.000955899
0.000140639
0.00309575
-8.37125e-05
-0.000583283
0.00342841
-0.000496108
-0.000765205
0.00370888
-0.000301184
-0.000193952
0.00420362
-0.00482313
0.000776119
0.00469874
-0.00199967
0.00116893
0.00483499
-0.00609794
0.00135996
0.00462403
-0.00500323
0.00123766
0.00526006
-0.00656896
0.00072378
-0.00622573
0.000240593
0.00542832
-0.000316428
-2.1726e-06
0.00545444
-0.000717566
7.67966e-06
0.00569763
-0.00123924
-7.55133e-06
0.00592546
-0.00170826
2.65718e-06
0.00625333
-0.00211798
8.20223e-06
0.00671324
-0.00257843
-1.88881e-05
0.00717132
-0.00287538
1.53222e-05
0.00770268
-0.0030652
-2.68955e-06
0.00818897
-0.00307748
-3.3815e-06
0.00862721
-0.00290064
-9.33691e-07
0.00893986
-0.0026724
4.86179e-06
0.00924298
-0.00240834
-1.28665e-06
0.00952882
-0.00215237
-6.69775e-06
0.00970369
-0.00193755
1.05121e-05
0.0098516
-0.00155727
-1.95896e-06
0.009992
-0.00145292
-1.24741e-05
0.0100578
-0.00113744
2.1021e-05
0.0101852
-0.00102067
-1.52846e-05
0.0102928
-0.000772419
3.6133e-06
0.010397
-0.000634808
1.0363e-06
0.0104459
-0.000175721
2.33232e-06
0.0105687
4.39067e-05
-4.65581e-06
0.0105052
0.000695395
-8.89283e-06
0.0103952
0.0011409
1.75236e-05
0.0102298
0.00166878
1.24396e-05
0.00990435
0.00207656
1.33684e-05
0.00969609
0.00233144
-2.38301e-05
0.00929537
0.00260488
3.26181e-05
0.00898035
0.00289236
-1.78522e-05
0.00875824
0.00314532
-5.78554e-05
0.00831132
0.003617
-4.05524e-05
0.00808132
0.00360352
-1.76988e-05
0.00775839
0.00413247
-0.000114505
0.00704857
0.00416819
0.000159462
0.00633589
0.00426728
-0.000100843
0.00547203
0.00393995
0.000111075
0.00467843
0.00361391
0.000206179
0.00475321
0.0027916
-0.000385868
0.00489749
0.00242555
-1.03247e-06
0.00408765
0.00143834
0.000777891
0.00333617
0.0016148
9.25882e-05
0.00324099
0.000540207
-0.000528746
0.00284737
0.000404413
-0.000506898
0.00338739
-0.00148105
0.000639844
0.00362495
-0.00613634
0.00107565
0.00457955
-0.00476237
0.00180811
0.00460113
-0.00722404
0.00110452
0.00438942
-0.00544596
0.000654434
0.005009
-0.00719368
5.14074e-06
-0.00650703
-0.000104113
0.00544705
-0.000429664
-4.81982e-07
0.0054689
-0.000741849
2.44085e-06
0.00577156
-0.00153544
-6.46873e-06
0.00600481
-0.00195016
8.66156e-06
0.00645749
-0.00256565
-5.01265e-06
0.00694349
-0.00305562
-8.8056e-06
0.00756291
-0.00351606
2.12743e-05
0.00822278
-0.00370837
-1.67031e-05
0.00880927
-0.00366964
5.66169e-06
0.00928547
-0.00337579
-1.04925e-06
0.0095942
-0.00299176
1.06299e-05
0.00994777
-0.00275163
-1.02887e-05
0.0101658
-0.00239168
2.12921e-05
0.0102317
-0.00199335
-1.00658e-05
0.0103017
-0.00163589
8.61279e-06
0.0102554
-0.00139277
-1.39077e-05
0.0102071
-0.00111467
2.55057e-05
0.0102134
-0.00101358
-1.33858e-05
0.0102458
-0.000802545
-2.24608e-06
0.0102623
-0.000683598
3.22706e-05
0.0104273
-0.000318712
-2.20257e-05
0.0105634
-4.27946e-05
-4.93574e-05
0.0106228
0.000509612
0.000126414
0.0107381
0.00108893
-6.33919e-05
0.0107264
0.00167857
1.98087e-06
0.0105718
0.00215349
7.76019e-05
0.0103176
0.00252339
6.22791e-05
0.0101546
0.00275486
1.2975e-05
0.0095487
0.0034081
9.02039e-05
0.00898724
0.00360238
0.000104406
0.00804022
0.0043676
0.000196413
0.0071107
0.00448368
4.93651e-05
0.00677464
0.0045317
-6.31852e-05
0.00650469
0.00443149
6.66064e-06
0.00635087
0.00450719
-8.60946e-05
0.005903
0.00428745
0.000100365
0.00535797
0.00417892
-1.99849e-05
0.00487367
0.00315083
0.000125072
0.00374278
0.00310856
0.00044788
0.00280358
0.0018729
0.000504637
0.00246817
0.00219648
-0.000246274
0.00219092
0.00117363
-0.00035617
0.00217887
-2.63667e-05
0.000442828
0.00317247
-0.00342954
0.000954891
0.00347455
-0.00663926
0.000200851
0.00415382
-0.00606239
0.000620741
0.00397547
-0.00735514
0.000309448
0.003863
-0.00543959
0.000106097
0.00449982
-0.00761769
-0.000212809
-0.00663706
-0.000183583
0.00545411
-0.000548559
-1.88125e-06
0.00548783
-0.000777714
2.14756e-06
0.00580923
-0.00185495
-1.88654e-06
0.00608499
-0.00223079
4.87469e-06
0.00663822
-0.00310855
-1.03201e-05
0.00722066
-0.00364516
7.09709e-06
0.00808662
-0.00438635
4.32379e-06
0.00885365
-0.00445555
-1.98551e-05
0.00952176
-0.00120706
1.89103e-05
-0.00097177
-0.00120517
-0.000972656
0.00998833
-0.00105089
-7.48289e-06
-0.000867859
-0.00104799
-0.000868149
0.0102893
-0.000888216
1.18528e-05
-0.000765345
-0.000885456
-0.000765565
0.0104198
-0.00072816
1.58893e-05
-0.000723563
-0.000724966
-0.000721319
0.010143
-0.00213498
2.00773e-05
0.00974825
-0.00160841
9.81875e-06
0.00942815
-0.00130953
-6.26205e-06
0.00904742
-0.00102358
1.15394e-05
0.00869916
-0.000749904
-1.65066e-05
0.00837307
-0.000706609
1.91181e-05
0.00818315
-0.000631733
1.9115e-05
0.00816044
-0.000629261
-3.16284e-05
0.00834301
-0.000458824
-4.24589e-05
0.00850217
-0.000277225
7.52655e-05
0.00901147
7.67134e-05
-7.64012e-05
0.00940549
0.000616882
7.80316e-05
0.0096932
0.00125842
0.000132442
0.0102965
0.00172447
-0.000174313
0.0105401
0.00228215
-2.35785e-06
0.010839
0.00249506
-3.90309e-05
0.0109847
0.0033304
-6.8022e-05
0.0108825
0.00401592
-0.000311374
0.0104379
0.00494871
-0.000136519
0.00924319
0.00574497