/*--------------------------------*- C++ -*----------------------------------*\
  =========                 |
  \\      /  F ield         | OpenFOAM: The Open Source CFD Toolbox
   \\    /   O peration     | Website:  https://openfoam.org
    \\  /    A nd           | Version:  8
     \\/     M anipulation  |
\*---------------------------------------------------------------------------*/
FoamFile
{
    version     2.0;
    format      ascii;
    class       volScalarField;
    location    "53.5";
    object      p;
}
// * * * * * * * * * * * * * * * * * * * * * * * * * * * * * * * * * * * * * //

dimensions      [0 2 -2 0 0 0 0];

internalField   nonuniform List<scalar> 
116
(
1.65433e-07
-0.00111889
-0.00168367
-0.00343882
0.00128511
-0.0086385
-2.13732e-05
-0.000892867
-0.000448822
-0.0041652
-0.00169581
-0.00307038
0.000971229
-4.70733e-05
-0.000454915
-0.00306928
-0.00568002
-0.00822136
0.00168618
0.00110468
-0.000127992
-0.003363
-0.00735906
-0.00900891
0.00186797
0.00126994
-0.000501298
-0.00436159
-0.00908908
-0.0109036
0.00117518
0.000865375
-0.000912888
-0.00435568
-0.00896045
-0.0107894
0.00135134
0.000898991
-0.000536232
-0.00385549
-0.00835725
-0.0111089
0.00035184
0.00104738
0.000505356
-0.00172074
-0.00507199
-0.00749437
0.00171943
0.00105252
0.00247337
0.000551085
-0.00244567
-0.00539463
-0.00353978
0.00443675
0.0045719
0.00309433
-0.000413672
-0.00271218
0.00234796
0.0110341
0.00950925
0.0152547
-0.00219708
0.00185059
0.00498414
0.00856385
-0.00890118
-0.00623525
-0.00246742
0.000891041
-0.0100386
-0.008852
-0.00704697
-0.00385818
-0.0113749
-0.0104333
-0.00966945
-0.00663898
-0.0115601
-0.0101695
-0.0100932
-0.00660085
-0.0118688
-0.00991419
-0.0107169
-0.00334969
-0.0075827
-0.00548047
-0.00434708
0.00656949
-0.00730735
-0.00495077
-0.00275718
0.0147368
-0.00280537
0.0043876
0.0185335
0.0556574
0.0191402
0.0181718
0.0179968
0.0212773
0.0169586
0.0170926
0.0151274
0.0173702
0.0132484
0.0139666
0.011989
0.0130206
0.00963445
0.0172959
0.0103577
0.0151031
)
;

boundaryField
{
    movingWall
    {
        type            zeroGradient;
    }
    fixedWalls
    {
        type            zeroGradient;
    }
    frontAndBack
    {
        type            empty;
    }
}


// ************************************************************************* //
