/*--------------------------------*- C++ -*----------------------------------*\
  =========                 |
  \\      /  F ield         | OpenFOAM: The Open Source CFD Toolbox
   \\    /   O peration     | Website:  https://openfoam.org
    \\  /    A nd           | Version:  8
     \\/     M anipulation  |
\*---------------------------------------------------------------------------*/
FoamFile
{
    version     2.0;
    format      ascii;
    class       surfaceScalarField;
    location    "53.5";
    object      phi;
}
// * * * * * * * * * * * * * * * * * * * * * * * * * * * * * * * * * * * * * //

dimensions      [0 3 -1 0 0 0 0];

internalField   nonuniform List<scalar> 
208
(
1.95644e-05
-1.95644e-05
3.39978e-05
-1.44335e-05
3.41532e-05
-1.55374e-07
1.07772e-05
2.3376e-05
-6.90365e-05
7.98137e-05
7.41821e-05
-0.000143219
2.70234e-06
-2.22667e-05
-1.13105e-05
-4.20627e-07
-5.3993e-05
4.25271e-05
-0.000108992
7.83753e-05
-0.00013848
0.000109301
7.37665e-05
-0.000138064
-1.72133e-05
-5.05345e-06
-4.71992e-05
2.95653e-05
-8.05894e-05
7.59173e-05
-0.000107925
0.000105711
-0.000114301
0.000115677
5.69608e-05
-9.74956e-05
-2.23473e-05
1.72939e-05
-4.63918e-05
5.36098e-05
-6.96631e-05
9.91886e-05
-8.10393e-05
0.000117087
-7.19793e-05
0.000106617
3.63648e-05
-5.13833e-05
-1.59652e-05
3.32591e-05
-3.51475e-05
7.27921e-05
-4.62074e-05
0.000110248
-4.49862e-05
0.000115866
-3.31008e-05
9.4732e-05
3.0556e-05
-2.7292e-05
-7.14543e-06
4.04046e-05
-1.04449e-05
7.60915e-05
-9.03204e-06
0.000108836
-6.17672e-06
0.000113011
-8.70582e-07
8.94259e-05
3.55334e-05
-5.8479e-06
2.17437e-06
3.82302e-05
2.67831e-06
7.55876e-05
1.07582e-05
0.000100756
2.36887e-05
0.00010008
3.64842e-05
7.66304e-05
3.7705e-05
3.43125e-05
1.05038e-05
2.77264e-05
2.62475e-05
5.98439e-05
5.17914e-05
7.52118e-05
7.11476e-05
8.07243e-05
8.59374e-05
6.18406e-05
4.0382e-05
8.32604e-05
-3.70438e-05
6.47702e-05
-1.50099e-05
3.781e-05
1.60898e-05
4.4112e-05
5.14426e-05
4.53715e-05
7.7951e-05
3.53322e-05
2.65602e-05
9.17728e-05
6.47702e-05
0.00010258
0.000146692
0.000192064
0.000227396
0.000253956
-0.000117302
9.75323e-05
-0.000123448
-6.87682e-05
-5.10154e-05
2.4811e-06
-2.01623e-05
-3.74208e-05
-1.11851e-05
-0.000152315
0.000132152
-0.000113129
7.25969e-05
-9.85768e-05
-6.55677e-05
-4.20355e-05
-9.39621e-05
-0.00019435
-6.66076e-05
4.17089e-05
-6.5342e-05
-6.68333e-05
-3.85761e-05
-0.000120728
-0.000232926
-2.80725e-05
1.83982e-05
-2.83278e-05
-6.65781e-05
-2.00343e-05
-0.000129021
-0.000252961
-1.36111e-05
4.71725e-06
-1.67761e-05
-6.34132e-05
-1.52984e-05
-0.000130499
-0.000268259
7.17724e-06
-8.30789e-06
2.88569e-06
-5.91216e-05
-3.62608e-06
-0.000123987
-0.000271885
3.52117e-05
-9.20701e-06
1.54204e-05
-3.93304e-05
1.89453e-06
-0.000110461
-0.000269991
7.13545e-05
2.6989e-06
4.34869e-05
-1.14627e-05
2.77399e-05
-9.47145e-05
-0.000242251
8.84227e-05
6.04895e-06
8.53536e-05
-8.39365e-06
6.94595e-05
-7.88204e-05
-0.000172791
0.000260005
0.000251611
0.000172791
-3.93453e-05
3.93453e-05
-6.38538e-05
2.45085e-05
-6.01032e-05
-3.75058e-06
-6.01032e-05
-3.38605e-05
7.32058e-05
-4.27119e-05
3.33599e-05
-4.47699e-05
-1.69258e-06
-0.000104873
-2.17102e-05
9.4916e-05
-8.96392e-06
2.06136e-05
-2.40718e-05
1.34153e-05
-0.000128945
-2.85324e-05
-5.43768e-06
-3.20751e-06
)
;

boundaryField
{
    movingWall
    {
        type            calculated;
        value           uniform 0;
    }
    fixedWalls
    {
        type            calculated;
        value           uniform 0;
    }
    frontAndBack
    {
        type            empty;
        value           nonuniform List<scalar> 0();
    }
}


// ************************************************************************* //
