/*--------------------------------*- C++ -*----------------------------------*\
  =========                 |
  \\      /  F ield         | OpenFOAM: The Open Source CFD Toolbox
   \\    /   O peration     | Website:  https://openfoam.org
    \\  /    A nd           | Version:  8
     \\/     M anipulation  |
\*---------------------------------------------------------------------------*/
FoamFile
{
    version     2.0;
    format      ascii;
    class       volScalarField;
    location    "27";
    object      p;
}
// * * * * * * * * * * * * * * * * * * * * * * * * * * * * * * * * * * * * * //

dimensions      [0 2 -2 0 0 0 0];

internalField   nonuniform List<scalar> 
116
(
-4.08928e-08
-0.000574803
-0.000766927
-0.00231359
0.000654538
-0.00784102
0.000319969
2.68138e-05
0.000324201
-0.00223066
-0.00118795
-0.00332188
0.00044255
0.000166766
0.000185117
-0.00160562
-0.004518
-0.00826752
0.000441215
0.000309074
-0.00010691
-0.00208689
-0.00650257
-0.00997298
0.000108478
1.06256e-05
-0.000735082
-0.00265076
-0.00821056
-0.011731
-0.000529507
-0.000489015
-0.00129642
-0.00253898
-0.00706406
-0.00996051
-0.000510291
-0.000803215
-0.00136217
-0.00209276
-0.00509715
-0.00799456
-0.00154636
-0.00101727
-0.000980634
-0.000927136
-0.00211299
-0.00334501
-0.000152874
-0.00178693
-0.00108722
-0.00133405
-0.00109023
-0.00255379
-0.00708
8.90838e-05
0.000789808
0.00151708
0.00153062
0.000114124
0.000812151
0.00804504
0.00688159
0.0117956
-0.00222343
0.00130099
0.00357854
0.00631829
-0.00806943
-0.00501795
-0.00238771
2.16758e-05
-0.0105873
-0.0079487
-0.00681958
-0.00397235
-0.0125159
-0.00937288
-0.00921078
-0.00573371
-0.0109935
-0.00759168
-0.0086391
-0.00502676
-0.00932302
-0.00647883
-0.00877475
-0.0019358
-0.00374778
-0.00231741
-0.00316237
0.00593769
-0.00474333
-0.00389965
-0.004088
0.0115187
-0.00121492
0.00428357
0.0147198
0.0498888
0.0139726
0.0140098
0.013914
0.016428
0.0129777
0.0135413
0.0120609
0.0139249
0.0100001
0.010935
0.00906029
0.00974238
0.00706073
0.013018
0.00752335
0.0114109
)
;

boundaryField
{
    movingWall
    {
        type            zeroGradient;
    }
    fixedWalls
    {
        type            zeroGradient;
    }
    frontAndBack
    {
        type            empty;
    }
}


// ************************************************************************* //
