0 	1.11713e-07
1.57135 	-0.00017405
3.1427 	1.60872e-05
4.71405 	-0.00036458
6.28539 	-0.00134061
7.85674 	-0.00224566
9.42809 	-0.00174605
10.9994 	-0.00114098
12.5708 	0.0168832
14.1421 	0.0502361
