0 	0 	0 	0
1.57135 	-0.00187393 	-0.00541014 	0
3.1427 	-0.0196774 	0.0140043 	0
4.71405 	-0.032216 	0.0525993 	0
6.28539 	-0.0156732 	0.0810524 	0
7.85674 	0.0161067 	0.0678646 	0
9.42809 	0.036686 	0.0336175 	0
10.9994 	0.0373159 	-0.0126104 	0
12.5708 	0.111431 	-0.0986673 	0
14.1421 	0.5 	0 	0
