/*--------------------------------*- C++ -*----------------------------------*\
  =========                 |
  \\      /  F ield         | OpenFOAM: The Open Source CFD Toolbox
   \\    /   O peration     | Website:  https://openfoam.org
    \\  /    A nd           | Version:  8
     \\/     M anipulation  |
\*---------------------------------------------------------------------------*/
FoamFile
{
    version     2.0;
    format      ascii;
    class       volScalarField;
    location    "31.5";
    object      p;
}
// * * * * * * * * * * * * * * * * * * * * * * * * * * * * * * * * * * * * * //

dimensions      [0 2 -2 0 0 0 0];

internalField   nonuniform List<scalar> 
116
(
-1.51257e-08
-0.000742901
-0.00136395
-0.00292014
0.000310507
-0.0079321
0.000399534
7.02138e-06
-0.000302786
-0.00323216
-0.00150891
-0.00265744
0.000883239
0.000428397
-1.61728e-06
-0.00241576
-0.00469959
-0.00693552
0.00107921
0.000741551
-0.000214054
-0.00282866
-0.0062552
-0.00798394
0.000809981
0.000550364
-0.00084451
-0.00399831
-0.00858962
-0.0105289
1.6619e-05
-9.82446e-05
-0.00146573
-0.00410745
-0.00892179
-0.011118
-6.29259e-05
-0.000416569
-0.00137341
-0.00361882
-0.00767267
-0.0107899
-0.00112296
-0.000600537
-0.000693078
-0.00137985
-0.00361345
-0.00544422
0.000158948
-0.00112129
0.000114582
-0.000496868
-0.00192334
-0.00402746
-0.0060603
0.00142613
0.00210929
0.00157364
-8.98836e-05
-0.00150317
0.000571432
0.00887195
0.00744468
0.0115799
-0.00134324
0.00201807
0.00371765
0.00656366
-0.00646837
-0.00434015
-0.00205754
0.000702291
-0.00836286
-0.00685284
-0.00603542
-0.00327061
-0.0107686
-0.00893544
-0.00863238
-0.00567974
-0.0116698
-0.00878638
-0.00903355
-0.00562121
-0.0115256
-0.00826823
-0.00980302
-0.00256362
-0.0052888
-0.00280866
-0.00285881
0.00665686
-0.00582165
-0.004023
-0.00344438
0.0123605
-0.001836
0.00438057
0.0158152
0.0511586
0.0154081
0.0148632
0.0146065
0.0179324
0.0136655
0.0137429
0.012021
0.0143617
0.0101089
0.0107133
0.00915838
0.0102877
0.00644579
0.0133747
0.00829081
0.0116229
)
;

boundaryField
{
    movingWall
    {
        type            zeroGradient;
    }
    fixedWalls
    {
        type            zeroGradient;
    }
    frontAndBack
    {
        type            empty;
    }
}


// ************************************************************************* //
