/*--------------------------------*- C++ -*----------------------------------*\
  =========                 |
  \\      /  F ield         | OpenFOAM: The Open Source CFD Toolbox
   \\    /   O peration     | Website:  https://openfoam.org
    \\  /    A nd           | Version:  8
     \\/     M anipulation  |
\*---------------------------------------------------------------------------*/
FoamFile
{
    version     2.0;
    format      ascii;
    class       surfaceScalarField;
    location    "31.5";
    object      phi;
}
// * * * * * * * * * * * * * * * * * * * * * * * * * * * * * * * * * * * * * //

dimensions      [0 3 -1 0 0 0 0];

internalField   nonuniform List<scalar> 
208
(
1.17397e-05
-1.17397e-05
2.34696e-05
-1.173e-05
2.33783e-05
9.13504e-08
2.24643e-07
2.31536e-05
-6.89811e-05
6.92057e-05
5.87021e-05
-0.000127683
-4.60435e-06
-7.1353e-06
-2.23053e-05
5.97092e-06
-5.92387e-05
3.70248e-05
-0.00010193
6.58454e-05
-0.000123634
9.09097e-05
5.94461e-05
-0.000124378
-1.484e-05
7.70466e-06
-4.07073e-05
3.18383e-05
-7.06091e-05
6.69265e-05
-9.62233e-05
9.14597e-05
-0.000104188
9.88746e-05
4.98065e-05
-9.45486e-05
-1.71787e-05
2.48833e-05
-3.81251e-05
5.27847e-05
-5.96394e-05
8.84408e-05
-7.31525e-05
0.000104973
-7.22587e-05
9.79809e-05
3.55693e-05
-5.80214e-05
-9.5701e-06
3.44534e-05
-2.43542e-05
6.75688e-05
-3.68299e-05
0.000100916
-4.11028e-05
0.000109246
-3.86344e-05
9.55125e-05
3.40855e-05
-3.71507e-05
-1.93716e-06
3.63906e-05
6.94414e-07
6.49373e-05
3.08923e-06
9.85217e-05
3.78619e-06
0.000108549
4.66584e-06
9.46329e-05
4.29903e-05
-4.23896e-06
6.39704e-06
2.99936e-05
1.05353e-05
6.0799e-05
2.33646e-05
8.56923e-05
3.9863e-05
9.20503e-05
5.42164e-05
8.02795e-05
4.62625e-05
5.09442e-05
9.00476e-06
2.09888e-05
2.34912e-05
4.63126e-05
4.60403e-05
6.31432e-05
6.91523e-05
6.89383e-05
8.98636e-05
5.95682e-05
4.60095e-05
9.01165e-05
-4.41699e-05
6.51588e-05
-3.38326e-05
3.59753e-05
-9.8486e-06
3.91592e-05
2.12887e-05
3.7801e-05
4.97834e-05
3.10735e-05
2.64593e-05
6.93336e-05
6.51588e-05
0.000101134
0.000140293
0.000178094
0.000209168
0.000235627
-0.000103165
9.01126e-05
-0.000114631
-5.73662e-05
-3.42405e-05
-1.15584e-05
-1.76236e-05
-3.565e-05
-4.09263e-06
-0.000147905
0.000130282
-9.86795e-05
6.44137e-05
-8.05761e-05
-5.23439e-05
-3.52608e-05
-8.09653e-05
-0.000183166
-6.42499e-05
3.4115e-05
-5.76621e-05
-5.89317e-05
-3.3209e-05
-0.000105418
-0.000216375
-3.32642e-05
9.35769e-06
-2.91549e-05
-6.3041e-05
-1.9782e-05
-0.000114791
-0.000236157
-2.0395e-05
-7.39796e-06
-1.76715e-05
-6.57646e-05
-1.50043e-05
-0.000117458
-0.000251161
5.97793e-06
-1.76148e-05
1.90564e-06
-6.16923e-05
-4.27597e-06
-0.000111277
-0.000255437
4.55976e-05
-1.22682e-05
1.94948e-05
-3.55895e-05
1.35091e-06
-9.3133e-05
-0.000254086
7.2702e-05
5.14629e-06
3.94661e-05
-2.35357e-06
2.36548e-05
-7.73217e-05
-0.000230432
6.71653e-05
7.3146e-06
6.69934e-05
-2.18166e-06
6.10296e-05
-7.1358e-05
-0.000169402
0.000242942
0.00024076
0.000169402
-3.40497e-05
3.40497e-05
-5.95955e-05
2.55459e-05
-5.789e-05
-1.70557e-06
-5.789e-05
-3.37564e-05
6.7806e-05
-4.51944e-05
3.6984e-05
-4.3029e-05
-3.87105e-06
-0.000100919
-2.16495e-05
8.94555e-05
-1.46959e-05
3.00304e-05
-2.4664e-05
6.09702e-06
-0.000125583
-2.51753e-05
-6.70324e-06
-4.69885e-06
)
;

boundaryField
{
    movingWall
    {
        type            calculated;
        value           uniform 0;
    }
    fixedWalls
    {
        type            calculated;
        value           uniform 0;
    }
    frontAndBack
    {
        type            empty;
        value           nonuniform List<scalar> 0();
    }
}


// ************************************************************************* //
