/*--------------------------------*- C++ -*----------------------------------*\
  =========                 |
  \\      /  F ield         | OpenFOAM: The Open Source CFD Toolbox
   \\    /   O peration     | Website:  https://openfoam.org
    \\  /    A nd           | Version:  8
     \\/     M anipulation  |
\*---------------------------------------------------------------------------*/
FoamFile
{
    version     2.0;
    format      ascii;
    class       volScalarField;
    location    "41";
    object      p;
}
// * * * * * * * * * * * * * * * * * * * * * * * * * * * * * * * * * * * * * //

dimensions      [0 2 -2 0 0 0 0];

internalField   nonuniform List<scalar> 
11600
(
3.62731e-08
-1.58074e-07
4.39751e-07
1.40249e-06
2.95508e-06
5.06135e-06
7.72196e-06
1.09381e-05
1.47113e-05
1.90439e-05
2.39386e-05
2.93985e-05
3.5427e-05
4.20277e-05
4.92043e-05
5.69609e-05
6.5302e-05
7.4232e-05
8.37557e-05
9.3878e-05
0.000104604
0.000115938
0.000127886
0.000140453
0.000153642
0.00016746
0.000181911
0.000196999
0.000212731
0.000229109
0.000246139
0.000263825
0.000282171
0.00030118
0.000320855
0.0003412
0.000362215
0.000383902
0.000406263
0.000429295
0.000452999
0.000477372
0.000502411
0.000528111
0.000554466
0.000581468
0.000609107
0.000637371
0.000666243
0.000695701
0.000725715
0.000756239
0.000787205
0.000818485
0.000849823
0.000880972
0.000912359
0.000935713
0.000979979
0.000959187
7.37953e-07
3.91153e-07
1.04528e-06
2.04172e-06
3.616e-06
5.73237e-06
8.3961e-06
1.16128e-05
1.53858e-05
1.9718e-05
2.46123e-05
3.00719e-05
3.61002e-05
4.27005e-05
4.98769e-05
5.76333e-05
6.5974e-05
7.49038e-05
8.44273e-05
9.45493e-05
0.000105275
0.000116609
0.000128556
0.000141122
0.000154311
0.000168128
0.000182578
0.000197666
0.000213397
0.000229774
0.000246803
0.000264488
0.000282833
0.000301841
0.000321515
0.000341859
0.000362874
0.000384561
0.000406922
0.000429955
0.000453661
0.000478037
0.00050308
0.000528786
0.000555151
0.000582166
0.000609824
0.000638113
0.000667021
0.000696532
0.000726624
0.000757273
0.000788445
0.000820091
0.000852174
0.000884765
0.000917858
0.000950035
0.00099288
0.00102074
4.30747e-07
-7.8351e-08
5.41511e-07
1.50656e-06
3.06662e-06
5.17427e-06
7.83157e-06
1.10429e-05
1.48108e-05
1.91379e-05
2.4027e-05
2.94812e-05
3.55037e-05
4.20981e-05
4.92682e-05
5.70181e-05
6.53521e-05
7.42749e-05
8.37912e-05
9.39059e-05
0.000104624
0.00011595
0.00012789
0.000140448
0.000153629
0.000167438
0.00018188
0.00019696
0.000212683
0.000229053
0.000246076
0.000263754
0.000282093
0.000301097
0.000320767
0.000341108
0.00036212
0.000383807
0.000406167
0.000429203
0.000452912
0.000477294
0.000502345
0.000528063
0.000554443
0.000581478
0.000609161
0.000637483
0.000666433
0.000695998
0.000726162
0.000756906
0.000788207
0.000820034
0.000852379
0.0008853
0.0009188
0.000952855
0.000993091
0.00102566
-3.91202e-07
-9.76919e-07
-3.6655e-07
5.81372e-07
2.13297e-06
4.23366e-06
6.8842e-06
1.00887e-05
1.38494e-05
1.8169e-05
2.30501e-05
2.84959e-05
3.45097e-05
4.10949e-05
4.82554e-05
5.59953e-05
6.4319e-05
7.32311e-05
8.27363e-05
9.28395e-05
0.000103546
0.00011486
0.000126788
0.000139333
0.000152502
0.000166299
0.000180729
0.000195797
0.000211509
0.000227868
0.000244881
0.00026255
0.000280881
0.000299877
0.000319541
0.000339877
0.000360886
0.000382571
0.000404933
0.000427971
0.000451687
0.000476078
0.000501143
0.000526879
0.000553282
0.000580347
0.000608068
0.00063644
0.000665455
0.000695107
0.000725389
0.000756301
0.000787848
0.000820051
0.000852975
0.000886737
0.000921512
0.000957827
0.000997283
0.00103629
-1.92473e-06
-2.55267e-06
-1.95334e-06
-1.02374e-06
5.15324e-07
2.60492e-06
5.24512e-06
8.43946e-06
1.21899e-05
1.64987e-05
2.13685e-05
2.68024e-05
3.28036e-05
3.93757e-05
4.65225e-05
5.42481e-05
6.25569e-05
7.14536e-05
8.09429e-05
9.10298e-05
0.000101719
0.000113017
0.000124927
0.000137455
0.000150606
0.000164386
0.000178799
0.000193851
0.000209546
0.000225891
0.000242889
0.000260545
0.000278865
0.00029785
0.000317506
0.000337836
0.000358841
0.000380524
0.000402887
0.00042593
0.000449653
0.000474056
0.000499138
0.000524896
0.000551327
0.000578427
0.000606192
0.000634618
0.000663699
0.000693432
0.000723816
0.000754854
0.000786558
0.000818955
0.000852101
0.000886087
0.000921072
0.000957433
0.0009956
0.0010346
-4.12022e-06
-4.76913e-06
-4.17853e-06
-3.26356e-06
-1.73658e-06
3.41058e-07
2.96928e-06
6.15132e-06
9.88886e-06
1.4184e-05
1.90394e-05
2.4458e-05
3.04431e-05
3.69982e-05
4.41272e-05
5.18343e-05
6.01238e-05
6.90006e-05
7.84693e-05
8.85349e-05
9.92026e-05
0.000110478
0.000122365
0.000134871
0.000148
0.000161757
0.000176148
0.000191179
0.000206854
0.00022318
0.00024016
0.000257799
0.000276104
0.000295076
0.000314722
0.000335043
0.000356042
0.000377723
0.000400087
0.000423135
0.000446868
0.000471286
0.000496388
0.000522171
0.000548635
0.000575775
0.000603589
0.000632073
0.000661223
0.000691039
0.000721521
0.000752676
0.000784517
0.000817074
0.000850392
0.000884547
0.000919651
0.000955877
0.000993283
0.00103164
-6.96794e-06
-7.62614e-06
-7.04268e-06
-6.13938e-06
-4.624e-06
-2.5589e-06
5.59546e-08
3.22371e-06
6.94595e-06
1.12247e-05
1.60626e-05
2.14625e-05
2.74278e-05
3.39621e-05
4.10693e-05
4.87536e-05
5.70195e-05
6.58716e-05
7.53149e-05
8.53543e-05
9.59952e-05
0.000107243
0.000119103
0.000131581
0.000144682
0.000158412
0.000172777
0.000187781
0.000203431
0.000219733
0.000236691
0.00025431
0.000272596
0.000291552
0.000311184
0.000331495
0.000352487
0.000374165
0.00039653
0.000419584
0.000443328
0.000467762
0.000492886
0.000518699
0.000545199
0.000572384
0.00060025
0.000628795
0.000658017
0.000687913
0.000718486
0.00074974
0.000781685
0.000814341
0.000847737
0.000881915
0.00091693
0.000952834
0.000989591
0.00102704
-1.0461e-05
-1.11235e-05
-1.05463e-05
-9.65302e-06
-8.14904e-06
-6.09708e-06
-3.49688e-06
-3.45258e-07
3.35935e-06
7.619e-06
1.24363e-05
1.78142e-05
2.37562e-05
3.02658e-05
3.73471e-05
4.50042e-05
5.32418e-05
6.20645e-05
7.14774e-05
8.14856e-05
9.20945e-05
0.00010331
0.000115137
0.000127581
0.000140649
0.000154347
0.000168679
0.000183653
0.000199273
0.000215546
0.000232477
0.000250072
0.000268335
0.000287272
0.000306888
0.000327185
0.000348169
0.000369843
0.000392208
0.000415268
0.000439024
0.000463476
0.000488626
0.000514471
0.000541011
0.000568244
0.000596166
0.000624776
0.000654071
0.000684048
0.000714707
0.00074605
0.00077808
0.000810807
0.000844241
0.000878397
0.000913283
0.000948888
0.000985133
0.00102186
-1.45933e-05
-1.5258e-05
-1.46868e-05
-1.38027e-05
-1.23103e-05
-1.02722e-05
-7.68794e-06
-4.5543e-06
-8.69613e-07
3.36823e-06
8.16191e-06
1.35145e-05
1.94294e-05
2.59104e-05
3.29615e-05
4.05871e-05
4.87917e-05
5.75801e-05
6.69575e-05
7.69291e-05
8.75006e-05
9.86776e-05
0.000110466
0.000122872
0.000135902
0.000149561
0.000163856
0.000178793
0.000194378
0.000210617
0.000227517
0.000245082
0.000263319
0.000282233
0.000301828
0.00032211
0.000343083
0.00036475
0.000387116
0.000410181
0.00043395
0.000458422
0.000483599
0.000509479
0.000536063
0.000563348
0.000591332
0.000620011
0.000649383
0.000679444
0.000710192
0.000741622
0.000773735
0.000806527
0.000839995
0.00087413
0.000908914
0.000944299
0.000980191
0.00101644
-1.93603e-05
-2.00262e-05
-1.94609e-05
-1.85858e-05
-1.71053e-05
-1.5082e-05
-1.25152e-05
-9.40139e-06
-5.73895e-06
-1.52562e-06
3.24137e-06
8.56519e-06
1.44494e-05
2.08977e-05
2.79143e-05
3.55037e-05
4.36704e-05
5.24195e-05
6.17561e-05
7.16857e-05
8.22142e-05
9.33474e-05
0.000105092
0.000117453
0.000130438
0.000144053
0.000158305
0.0001732
0.000188744
0.000204944
0.000221807
0.000239338
0.000257543
0.000276429
0.000296001
0.000316264
0.000337223
0.000358883
0.000381246
0.000404317
0.000428098
0.000452592
0.000477798
0.000503717
0.000530348
0.00055769
0.00058574
0.000614495
0.000643951
0.000674104
0.000704947
0.000736473
0.000768677
0.000801545
0.000835064
0.000869211
0.000903948
0.000939212
0.000974905
0.00101088
-2.47578e-05
-2.54245e-05
-2.48653e-05
-2.39993e-05
-2.25315e-05
-2.05241e-05
-1.79762e-05
-1.48842e-05
-1.12464e-05
-7.06033e-06
-2.32316e-06
2.96841e-06
8.81799e-06
1.52295e-05
2.22072e-05
2.97556e-05
3.78794e-05
4.65838e-05
5.58742e-05
6.57562e-05
7.62358e-05
8.73193e-05
9.90131e-05
0.000111324
0.000124258
0.000137823
0.000152025
0.000166872
0.000182369
0.000198524
0.000215344
0.000232835
0.000251004
0.000269858
0.000289402
0.000309642
0.000330584
0.000352233
0.000374593
0.000397668
0.000421462
0.000445977
0.000471214
0.000497174
0.000523856
0.000551261
0.000579384
0.000608222
0.000637772
0.000668026
0.000698976
0.000730614
0.000762926
0.000795895
0.000829499
0.000863704
0.000898464
0.00093371
0.000969344
0.00100523
-3.07818e-05
-3.14492e-05
-3.08962e-05
-3.004e-05
-2.85857e-05
-2.65954e-05
-2.40681e-05
-2.1e-05
-1.73893e-05
-1.32333e-05
-8.52918e-06
-3.27344e-06
2.53761e-06
8.90802e-06
1.58421e-05
2.33446e-05
3.14203e-05
4.00746e-05
4.9313e-05
5.91414e-05
6.95661e-05
8.05936e-05
9.22306e-05
0.000104484
0.000117361
0.000130869
0.000145015
0.000159806
0.00017525
0.000191354
0.000208125
0.00022557
0.000243697
0.000262512
0.000282023
0.000302236
0.000323157
0.000344792
0.000367147
0.000390225
0.00041403
0.000438567
0.000463836
0.00048984
0.000516578
0.00054405
0.000572253
0.000601184
0.000630838
0.000661206
0.000692281
0.000724049
0.000756495
0.000789597
0.000823326
0.000857646
0.000892504
0.00092783
0.000963533
0.000999492
-3.74283e-05
-3.80964e-05
-3.75501e-05
-3.67042e-05
-3.52644e-05
-3.32926e-05
-3.07877e-05
-2.77457e-05
-2.41645e-05
-2.00416e-05
-1.53738e-05
-1.01576e-05
-4.38913e-06
1.93572e-06
8.82144e-06
1.62728e-05
2.4295e-05
3.28934e-05
4.20739e-05
5.18425e-05
6.22059e-05
7.31708e-05
8.47443e-05
9.69337e-05
0.000109746
0.00012319
0.000137273
0.000152002
0.000167385
0.00018343
0.000200145
0.000217538
0.000235616
0.000254387
0.00027386
0.00029404
0.000314936
0.000336553
0.000358899
0.000381977
0.000405793
0.000430351
0.000455654
0.000481704
0.000508501
0.000536046
0.000564337
0.00059337
0.000623139
0.000653638
0.000684855
0.000716777
0.000749385
0.000782655
0.000816557
0.00085105
0.00088608
0.000921581
0.000957464
0.000993625
-4.4693e-05
-4.53617e-05
-4.48226e-05
-4.39877e-05
-4.25637e-05
-4.06119e-05
-3.81312e-05
-3.51175e-05
-3.15686e-05
-2.74817e-05
-2.28537e-05
-1.76809e-05
-1.19593e-05
-5.68462e-06
1.14772e-06
8.5427e-06
1.65056e-05
2.50422e-05
3.41585e-05
4.38609e-05
5.41562e-05
6.50516e-05
7.65544e-05
8.86723e-05
0.000101413
0.000114785
0.000128797
0.000143455
0.00015877
0.000174749
0.0001914
0.000208733
0.000226756
0.000245477
0.000264904
0.000285046
0.000305911
0.000327506
0.000349838
0.000372914
0.000396738
0.000421317
0.000446653
0.00047275
0.000499611
0.000527234
0.00055562
0.000584764
0.000614663
0.000645307
0.000676687
0.000708786
0.000741588
0.000775065
0.000809187
0.000843911
0.000879186
0.000914947
0.000951112
0.000987587
-5.25713e-05
-5.32406e-05
-5.27092e-05
-5.18863e-05
-5.04791e-05
-4.85489e-05
-4.60944e-05
-4.31114e-05
-3.95975e-05
-3.55499e-05
-3.09652e-05
-2.58398e-05
-2.01695e-05
-1.39498e-05
-7.1761e-06
1.56896e-07
8.05469e-06
1.65232e-05
2.55688e-05
3.51981e-05
4.54182e-05
5.62366e-05
6.76612e-05
7.96998e-05
9.23609e-05
0.000105653
0.000119585
0.000134165
0.000149403
0.000165307
0.000181887
0.000199152
0.000217111
0.000235773
0.000255148
0.000275245
0.000296073
0.00031764
0.000339954
0.000363022
0.000386852
0.000411449
0.000436818
0.000462964
0.000489889
0.000517596
0.000546083
0.000575349
0.000605389
0.000636195
0.000667757
0.00070006
0.000733086
0.000766809
0.000801197
0.000836211
0.000871798
0.000907898
0.000944436
0.000981325
-6.10583e-05
-6.17282e-05
-6.12051e-05
-6.0395e-05
-5.90059e-05
-5.7099e-05
-5.46728e-05
-5.17229e-05
-4.82469e-05
-4.42418e-05
-3.97043e-05
-3.46304e-05
-2.9016e-05
-2.28564e-05
-1.61467e-05
-8.88155e-06
-1.05509e-06
7.33883e-06
1.63068e-05
2.58558e-05
3.59933e-05
4.67271e-05
5.80652e-05
7.00162e-05
8.2589e-05
9.57924e-05
0.000109636
0.000124129
0.00013928
0.000155101
0.0001716
0.000188788
0.000206674
0.00022527
0.000244584
0.000264629
0.000285412
0.000306943
0.000329233
0.000352289
0.000376119
0.000400731
0.000426131
0.000452325
0.000479318
0.000507111
0.000535706
0.000565101
0.000595294
0.000626277
0.000658042
0.000690573
0.000723854
0.00075786
0.000792561
0.000827916
0.00086388
0.000900392
0.000937385
0.000974777
-7.01486e-05
-7.08191e-05
-7.03049e-05
-6.95085e-05
-6.81389e-05
-6.62571e-05
-6.38612e-05
-6.0947e-05
-5.75119e-05
-5.35529e-05
-4.90664e-05
-4.40485e-05
-3.84948e-05
-3.24005e-05
-2.57605e-05
-1.85692e-05
-1.08206e-05
-2.5081e-06
6.37507e-06
1.58363e-05
2.58832e-05
3.6524e-05
4.77672e-05
5.96218e-05
7.20971e-05
8.52025e-05
9.89479e-05
0.000113343
0.000128399
0.000144126
0.000160534
0.000177635
0.00019544
0.000213959
0.000233204
0.000253186
0.000273916
0.000295404
0.000317662
0.000340698
0.000364523
0.000389146
0.000414574
0.000440814
0.000467873
0.000495755
0.000524462
0.000553994
0.00058435
0.000615524
0.000647509
0.000680293
0.000713858
0.000748182
0.000783237
0.000818986
0.000855383
0.000892375
0.000929897
0.000967874
-7.98363e-05
-8.05075e-05
-8.00028e-05
-7.92211e-05
-7.78724e-05
-7.60173e-05
-7.36541e-05
-7.07784e-05
-6.73874e-05
-6.3478e-05
-5.90467e-05
-5.40892e-05
-4.86013e-05
-4.25778e-05
-3.60135e-05
-2.89024e-05
-2.12383e-05
-1.30144e-05
-4.22364e-06
5.14174e-06
1.50898e-05
2.56289e-05
3.67682e-05
4.8517e-05
6.08851e-05
7.38825e-05
8.75197e-05
0.000101808
0.000116757
0.000132379
0.000148686
0.000165689
0.0001834
0.000201832
0.000220997
0.000240906
0.000261573
0.000283009
0.000305225
0.000328234
0.000352047
0.000376673
0.000402124
0.000428407
0.000455531
0.000483501
0.000512322
0.000541996
0.000572524
0.000603901
0.000636123
0.00066918
0.000703055
0.000737731
0.000773179
0.000809367
0.000846252
0.000883785
0.000921905
0.000960542
-9.01153e-05
-9.07872e-05
-9.02926e-05
-8.95265e-05
-8.82002e-05
-8.63738e-05
-8.40456e-05
-8.12111e-05
-7.78675e-05
-7.40116e-05
-6.96397e-05
-6.47476e-05
-5.93306e-05
-5.33836e-05
-4.69011e-05
-3.98769e-05
-3.23044e-05
-2.41766e-05
-1.54862e-05
-6.22496e-06
3.61537e-06
1.40437e-05
2.50695e-05
3.67026e-05
4.89531e-05
6.18319e-05
7.535e-05
8.95188e-05
0.00010435
0.000119856
0.00013605
0.000152943
0.000170549
0.000188882
0.000207954
0.000227779
0.000248371
0.000269743
0.000291908
0.000314879
0.00033867
0.000363293
0.000388759
0.000415079
0.000442263
0.00047032
0.000499255
0.000529074
0.000559778
0.000591369
0.000623841
0.000657188
0.000691398
0.000726453
0.00076233
0.000798999
0.000836422
0.000874551
0.000913332
0.0009527
-0.000100979
-0.000101651
-0.000101167
-0.000100418
-9.91156e-05
-9.73199e-05
-9.50292e-05
-9.22389e-05
-8.89461e-05
-8.51477e-05
-8.08397e-05
-7.60179e-05
-7.06773e-05
-6.48128e-05
-5.84185e-05
-5.1488e-05
-4.40145e-05
-3.59907e-05
-2.74089e-05
-1.82607e-05
-8.53725e-06
1.77063e-06
1.26728e-05
2.41796e-05
3.63017e-05
4.90506e-05
6.24378e-05
7.64756e-05
9.11766e-05
0.000106554
0.000122621
0.000139391
0.000156879
0.000175099
0.000194066
0.000213793
0.000234297
0.000255592
0.000277693
0.000300615
0.000324373
0.000348981
0.000374453
0.000400802
0.00042804
0.000456177
0.000485224
0.000515187
0.000546072
0.000577881
0.000610614
0.000644266
0.000678829
0.000714289
0.000750626
0.000787814
0.000825818
0.000864595
0.000904096
0.000944259
-0.000112419
-0.000113093
-0.00011262
-0.000111889
-0.000110612
-0.000108849
-0.000106598
-0.000103855
-0.000100617
-9.68798e-05
-9.26404e-05
-8.7894e-05
-8.26356e-05
-7.68597e-05
-7.05603e-05
-6.37307e-05
-5.63639e-05
-4.84523e-05
-3.99878e-05
-3.09617e-05
-2.13649e-05
-1.11877e-05
-4.19792e-07
1.09496e-05
2.29318e-05
3.55386e-05
4.87825e-05
6.26764e-05
7.72337e-05
9.24684e-05
0.000108395
0.000125028
0.000142383
0.000160476
0.000179322
0.000198937
0.000219338
0.000240541
0.000262563
0.000285421
0.000309132
0.000333713
0.000359179
0.000385546
0.000412828
0.000441039
0.000470191
0.000500295
0.000531359
0.00056339
0.000596389
0.000630357
0.000665289
0.000701174
0.000737997
0.000775735
0.000814359
0.000853831
0.000894104
0.000935123
-0.00012443
-0.000125103
-0.000124643
-0.000123931
-0.00012268
-0.000120952
-0.000118744
-0.000116052
-0.000112872
-0.000109201
-0.000105035
-0.000100369
-9.51991e-05
-8.95182e-05
-8.33205e-05
-7.65993e-05
-6.93472e-05
-6.15563e-05
-5.32182e-05
-4.43239e-05
-3.48639e-05
-2.4828e-05
-1.42056e-05
-2.98534e-06
8.8446e-06
2.12967e-05
3.43839e-05
4.81201e-05
6.25194e-05
7.75969e-05
9.33679e-05
0.000109848
0.000127054
0.000145003
0.000163712
0.000183197
0.000203478
0.000224573
0.0002465
0.000269278
0.000292926
0.000317464
0.000342909
0.000369279
0.000396593
0.000424866
0.000454114
0.000484352
0.000515591
0.000547841
0.000581109
0.000615398
0.000650708
0.000687033
0.000724362
0.000762678
0.000801956
0.000842163
0.000883257
0.000925188
-0.000137001
-0.000137675
-0.000137228
-0.000136536
-0.000135314
-0.000133623
-0.000131461
-0.000128822
-0.000125705
-0.000122104
-0.000118016
-0.000113437
-0.000108361
-0.000102781
-9.66927e-05
-9.00876e-05
-8.29585e-05
-7.52972e-05
-6.7095e-05
-5.83426e-05
-4.903e-05
-3.91466e-05
-2.86815e-05
-1.76227e-05
-5.95794e-06
6.3258e-06
1.92423e-05
3.28061e-05
4.70322e-05
6.19365e-05
7.75355e-05
9.38462e-05
0.000110886
0.000128673
0.000147226
0.000166563
0.000186706
0.000207673
0.000229485
0.000252165
0.000275731
0.000300207
0.000325613
0.000351969
0.000379298
0.000407618
0.000436949
0.000467309
0.000498713
0.000531176
0.000564709
0.00059932
0.000635013
0.000671788
0.000709638
0.000748552
0.000788512
0.000829488
0.000871446
0.000914339
-0.000150125
-0.0001508
-0.000150366
-0.000149695
-0.000148504
-0.000146853
-0.000144739
-0.000142158
-0.000139106
-0.00013558
-0.000131576
-0.000127089
-0.000122113
-0.000116642
-0.00011067
-0.000104189
-9.71914e-05
-8.96689e-05
-8.16124e-05
-7.30123e-05
-6.38581e-05
-5.41391e-05
-4.38435e-05
-3.29593e-05
-2.14734e-05
-9.37231e-06
3.35847e-06
1.67342e-05
3.07708e-05
4.5485e-05
6.08944e-05
7.7017e-05
9.38714e-05
0.000111477
0.000129854
0.000149023
0.000169006
0.000189824
0.000211501
0.000234059
0.000257522
0.000281915
0.00030726
0.000333582
0.000360906
0.000389254
0.00041865
0.000449115
0.000480671
0.000513335
0.000547124
0.00058205
0.000618125
0.000655352
0.000693732
0.000733259
0.00077392
0.000815695
0.000858552
0.000902452
-0.000163792
-0.000164467
-0.000164048
-0.0001634
-0.000162241
-0.000160632
-0.000158569
-0.000156049
-0.000153068
-0.000149622
-0.000145707
-0.000141317
-0.000136448
-0.000131093
-0.000125244
-0.000118896
-0.000112039
-0.000104664
-9.6764e-05
-8.8327e-05
-7.93428e-05
-6.98003e-05
-5.96873e-05
-4.89913e-05
-3.76987e-05
-2.57954e-05
-1.32662e-05
-9.51032e-08
1.37346e-05
2.82407e-05
4.34415e-05
5.93562e-05
7.60048e-05
9.3408e-05
0.000111587
0.000130565
0.000150365
0.000171011
0.000192528
0.000214941
0.000238275
0.000262559
0.000287819
0.000314082
0.000341376
0.000369729
0.000399167
0.000429717
0.000461404
0.000494251
0.00052828
0.000563511
0.000599958
0.000637633
0.000676544
0.000716691
0.000758068
0.000800661
0.000844447
0.000889391
-0.000177992
-0.000178668
-0.000178265
-0.00017764
-0.000176516
-0.000174951
-0.000172943
-0.000170487
-0.00016758
-0.000164219
-0.000160398
-0.000156112
-0.000151356
-0.000146124
-0.000140407
-0.0001342
-0.000127492
-0.000120276
-0.000112542
-0.00010428
-9.54777e-05
-8.61245e-05
-7.62076e-05
-6.57141e-05
-5.46299e-05
-4.29403e-05
-3.06294e-05
-1.76805e-05
-4.07606e-06
1.02025e-05
2.51745e-05
4.08602e-05
5.7281e-05
7.44587e-05
9.24168e-05
0.000111179
0.000130771
0.000151218
0.000172548
0.000194787
0.000217966
0.000242113
0.000267258
0.000293433
0.000320669
0.000348998
0.00037845
0.000409058
0.00044085
0.000473856
0.000508104
0.000543618
0.000580422
0.000618534
0.000657968
0.000698733
0.000740831
0.000784254
0.000828989
0.000875008
-0.000192715
-0.000193392
-0.000193005
-0.000192405
-0.000191317
-0.000189799
-0.000187849
-0.000185462
-0.000182634
-0.000179362
-0.000175641
-0.000171465
-0.000166829
-0.000161727
-0.00015615
-0.000150092
-0.000143544
-0.000136497
-0.00012894
-0.000120863
-0.000112256
-0.000103105
-9.33984e-05
-8.31224e-05
-7.22624e-05
-6.08031e-05
-4.87281e-05
-3.60199e-05
-2.26603e-05
-8.62976e-06
6.09196e-06
2.15262e-05
3.76955e-05
5.46233e-05
7.23344e-05
9.08544e-05
0.00011021
0.00013043
0.000151543
0.000173579
0.00019657
0.000220548
0.000245546
0.0002716
0.000298744
0.000327015
0.000356448
0.000387079
0.000418945
0.000452078
0.000486515
0.000522287
0.000559424
0.000597951
0.000637893
0.000679264
0.000722077
0.000766334
0.000812028
0.000859142
-0.00020795
-0.000208628
-0.000208257
-0.000207685
-0.000206635
-0.000205167
-0.000203278
-0.000200963
-0.000198218
-0.00019504
-0.000191424
-0.000187365
-0.000182856
-0.000177891
-0.000172463
-0.000166564
-0.000160184
-0.000153316
-0.000145947
-0.000138069
-0.000129669
-0.000120735
-0.000111253
-0.00010121
-9.05906e-05
-7.93791e-05
-6.75584e-05
-5.51104e-05
-4.2016e-05
-2.82551e-05
-1.38065e-05
1.35241e-06
1.72452e-05
3.38967e-05
5.13333e-05
6.95822e-05
8.86723e-05
0.000108633
0.000129497
0.000151295
0.000174063
0.000197836
0.000222651
0.000248546
0.00027556
0.000303734
0.000333108
0.000363723
0.000395622
0.000428845
0.000463433
0.000499427
0.000536862
0.000575775
0.000616197
0.000658154
0.000701666
0.000746747
0.0007934
0.00084162
-0.000223686
-0.000224364
-0.000224012
-0.000223467
-0.000222458
-0.000221042
-0.000219217
-0.000216978
-0.000214321
-0.000211243
-0.000207738
-0.000203801
-0.000199426
-0.000194607
-0.000189335
-0.000183604
-0.000177403
-0.000170724
-0.000163556
-0.000155888
-0.000147709
-0.000139005
-0.000129763
-0.000119969
-0.000109608
-9.86623e-05
-8.71151e-05
-7.49476e-05
-6.21401e-05
-4.86716e-05
-3.452e-05
-1.96618e-05
-4.07211e-06
1.22752e-05
2.94079e-05
4.73548e-05
6.61465e-05
8.58149e-05
0.000106394
0.000127918
0.000150425
0.000173953
0.000198542
0.000224235
0.000251076
0.000279107
0.000308376
0.00033893
0.000370815
0.000404081
0.000438774
0.000474944
0.000512635
0.000551893
0.000592757
0.000635264
0.000679448
0.000725332
0.000772932
0.000822255
-0.000239909
-0.000240588
-0.000240255
-0.00023974
-0.000238773
-0.000237412
-0.000235655
-0.000233495
-0.000230931
-0.000227957
-0.000224569
-0.000220761
-0.000216528
-0.000211862
-0.000206755
-0.000201201
-0.000195189
-0.000188711
-0.000181755
-0.00017431
-0.000166365
-0.000157906
-0.00014892
-0.000139392
-0.000129306
-0.000118646
-0.000107392
-9.55262e-05
-8.30281e-05
-6.98758e-05
-5.60464e-05
-4.15154e-05
-2.62569e-05
-1.02435e-05
6.55396e-06
2.41658e-05
4.26244e-05
6.19635e-05
8.2219e-05
0.000103429
0.000125632
0.000148872
0.00017319
0.000198634
0.000225251
0.00025309
0.000282201
0.000312639
0.000344456
0.000377709
0.000412453
0.000448743
0.000486636
0.000526184
0.00056744
0.000610452
0.000655265
0.000701916
0.000750436
0.000800843
-0.000256608
-0.000257287
-0.000256974
-0.00025649
-0.000255569
-0.000254265
-0.000252579
-0.000250503
-0.000248035
-0.000245171
-0.000241906
-0.000238234
-0.000234149
-0.000229644
-0.000224711
-0.000219344
-0.000213531
-0.000207264
-0.000200532
-0.000193324
-0.000185627
-0.000177429
-0.000168714
-0.000159469
-0.000149677
-0.000139321
-0.000128381
-0.000116839
-0.000104674
-9.18628e-05
-7.83819e-05
-6.42061e-05
-4.93083e-05
-3.366e-05
-1.7231e-05
1.06923e-08
1.80989e-05
3.70696e-05
5.69606e-05
7.78123e-05
9.96671e-05
0.00012257
0.000146568
0.00017171
0.000198048
0.000225636
0.000254531
0.000284792
0.000316479
0.000349654
0.000384383
0.000420728
0.000458755
0.000498529
0.000540112
0.000583568
0.000628952
0.000676319
0.000725712
0.000777167
-0.000273769
-0.000274449
-0.000274157
-0.000273706
-0.000272831
-0.000271588
-0.000269975
-0.000267987
-0.000265621
-0.000262872
-0.000259735
-0.000256205
-0.000252275
-0.00024794
-0.00024319
-0.000238019
-0.000232416
-0.000226372
-0.000219877
-0.000212918
-0.000205483
-0.00019756
-0.000189134
-0.00018019
-0.00017071
-0.000160678
-0.000150074
-0.000138879
-0.00012707
-0.000114626
-0.000101521
-8.77294e-05
-7.32233e-05
-5.79732e-05
-4.19476e-05
-2.51133e-05
-7.43469e-06
1.11258e-05
3.06083e-05
5.10554e-05
7.25122e-05
9.50262e-05
0.000118648
0.00014343
0.000169429
0.000196704
0.000225316
0.000255331
0.000286816
0.000319841
0.000354477
0.000390799
0.000428882
0.000468802
0.000510635
0.000554456
0.000600337
0.000648348
0.00069855
0.000750997
-0.000291378
-0.000292059
-0.000291789
-0.000291371
-0.000290545
-0.000289365
-0.00028783
-0.000285934
-0.000283673
-0.000281044
-0.000278042
-0.00027466
-0.000270894
-0.000266736
-0.000262178
-0.000257213
-0.000251831
-0.000246021
-0.000239774
-0.000233078
-0.000225921
-0.000218289
-0.000210168
-0.000201541
-0.000192393
-0.000182706
-0.00017246
-0.000161634
-0.000150208
-0.000138157
-0.000125456
-0.000112079
-9.79972e-05
-8.31797e-05
-6.75942e-05
-5.12063e-05
-3.39789e-05
-1.58727e-05
3.15442e-06
2.31472e-05
4.4153e-05
6.62223e-05
8.94085e-05
0.000113768
0.000139362
0.000166253
0.00019451
0.000224202
0.000255404
0.000288194
0.000322652
0.000358861
0.000396907
0.000436879
0.000478865
0.000522957
0.000569241
0.000617804
0.000668728
0.000722087
-0.000309421
-0.000310102
-0.000309854
-0.000309472
-0.000308697
-0.000307583
-0.000306128
-0.000304328
-0.000302177
-0.000299674
-0.000296812
-0.000293586
-0.00028999
-0.000286018
-0.000281661
-0.000276911
-0.00027176
-0.000266197
-0.000260211
-0.000253792
-0.000246926
-0.000239601
-0.000231801
-0.000223511
-0.000214714
-0.000205392
-0.000195526
-0.000185095
-0.000174076
-0.000162446
-0.000150179
-0.000137247
-0.000123623
-0.000109274
-9.41668e-05
-7.82661e-05
-6.15335e-05
-4.3928e-05
-2.54057e-05
-5.92015e-06
1.45784e-05
3.61429e-05
5.88297e-05
8.26993e-05
0.000107816
0.000134248
0.000162068
0.000191353
0.000222183
0.000254644
0.000288824
0.000324818
0.000362721
0.000402634
0.000444662
0.000488909
0.000535481
0.000584482
0.000636015
0.000690178
-0.000327881
-0.000328563
-0.000328339
-0.000327994
-0.000327272
-0.000326226
-0.000324855
-0.000323154
-0.000321118
-0.000318745
-0.00031603
-0.000312966
-0.000309548
-0.00030577
-0.000301622
-0.000297098
-0.000292188
-0.000286883
-0.000281171
-0.000275042
-0.000268483
-0.00026148
-0.000254019
-0.000246084
-0.000237658
-0.000228722
-0.000219259
-0.000209246
-0.000198661
-0.000187479
-0.000175676
-0.000163223
-0.000150091
-0.000136247
-0.000121658
-0.000106288
-9.00951e-05
-7.30388e-05
-5.50735e-05
-3.61508e-05
-1.62192e-05
4.77669e-06
2.68962e-05
5.0203e-05
7.47653e-05
0.000100656
0.000127952
0.000156736
0.000187096
0.000219123
0.000252916
0.000288577
0.000326216
0.000365946
0.000407883
0.00045215
0.00049887
0.000548169
0.000600172
0.000655002
-0.000346744
-0.000347426
-0.000347227
-0.00034692
-0.000346252
-0.000345278
-0.000343994
-0.000342396
-0.00034048
-0.000338243
-0.000335679
-0.000332784
-0.000329552
-0.000325975
-0.000322046
-0.000317757
-0.0003131
-0.000308064
-0.000302639
-0.000296813
-0.000290575
-0.00028391
-0.000276805
-0.000269243
-0.000261207
-0.000252681
-0.000243643
-0.000234073
-0.000223948
-0.000213244
-0.000201935
-0.000189994
-0.000177389
-0.000164089
-0.000150059
-0.000135262
-0.000119657
-0.0001032
-8.58464e-05
-6.75451e-05
-4.82431e-05
-2.7883e-05
-6.40272e-06
1.62643e-05
4.01898e-05
6.54504e-05
9.21282e-05
0.000120311
0.000150091
0.00018157
0.000214854
0.000250054
0.000287292
0.000326694
0.00036839
0.000412519
0.000459225
0.000508653
0.000560955
0.00061628
-0.000365992
-0.000366674
-0.000366501
-0.000366234
-0.000365623
-0.000364722
-0.000363528
-0.000362037
-0.000360245
-0.000358149
-0.000355743
-0.000353023
-0.000349983
-0.000346616
-0.000342915
-0.000338871
-0.000334477
-0.000329721
-0.000324595
-0.000319087
-0.000313184
-0.000306874
-0.000300141
-0.000292971
-0.000285346
-0.000277249
-0.00026866
-0.000259558
-0.00024992
-0.000239723
-0.00022894
-0.000217543
-0.000205502
-0.000192785
-0.000179357
-0.000165178
-0.000150208
-0.000134404
-0.000117718
-0.000100099
-8.14917e-05
-6.18376e-05
-4.10723e-05
-1.91263e-05
4.0748e-06
2.86112e-05
5.4569e-05
8.20407e-05
0.000111126
0.000141931
0.000174571
0.000209169
0.000245854
0.000284765
0.000326048
0.000369859
0.000416361
0.000465722
0.000518118
0.00057373
-0.000385608
-0.000386291
-0.000386144
-0.000385918
-0.000385365
-0.00038454
-0.00038344
-0.00038206
-0.000380396
-0.000378445
-0.000376204
-0.000373665
-0.000370825
-0.000367675
-0.00036421
-0.000360421
-0.0003563
-0.000351837
-0.000347022
-0.000341844
-0.000336292
-0.000330351
-0.000324008
-0.000317248
-0.000310054
-0.000302408
-0.000294291
-0.000285682
-0.000276559
-0.000266897
-0.000256671
-0.000245853
-0.000234413
-0.000222319
-0.000209533
-0.000196019
-0.000181735
-0.000166637
-0.000150677
-0.000133802
-0.000115958
-9.70832e-05
-7.71116e-05
-5.5972e-05
-3.35875e-05
-9.8751e-06
1.5255e-05
4.18997e-05
7.01639e-05
0.000100161
0.000132012
0.00016585
0.000201814
0.000240055
0.000280733
0.000324022
0.000370103
0.000419168
0.000471419
0.000527067
-0.000405575
-0.000406258
-0.000406139
-0.000405954
-0.000405462
-0.000404716
-0.000403712
-0.000402446
-0.000400915
-0.000399115
-0.000397042
-0.000394691
-0.000392057
-0.000389133
-0.000385913
-0.000382388
-0.00037855
-0.00037439
-0.000369899
-0.000365065
-0.000359877
-0.000354322
-0.000348385
-0.000342054
-0.00033531
-0.000328136
-0.000320514
-0.000312423
-0.000303841
-0.000294745
-0.000285108
-0.000274903
-0.000264101
-0.000252668
-0.00024057
-0.000227767
-0.000214219
-0.000199882
-0.000184707
-0.000168642
-0.00015163
-0.000133609
-0.000114513
-9.42687e-05
-7.27973e-05
-5.00135e-05
-2.58247e-05
-1.3004e-07
2.718e-05
5.62241e-05
8.71307e-05
0.000120039
0.000155098
0.000192471
0.000232332
0.00027487
0.000320285
0.000368792
0.000420621
0.000476011
-0.000425874
-0.000426558
-0.000426466
-0.000426325
-0.000425895
-0.000425229
-0.000424325
-0.000423176
-0.000421782
-0.000420137
-0.000418239
-0.000416082
-0.000413661
-0.00041097
-0.000408002
-0.00040475
-0.000401206
-0.000397361
-0.000393205
-0.000388728
-0.000383918
-0.000378763
-0.00037325
-0.000367365
-0.000361091
-0.000354411
-0.000347307
-0.000339758
-0.000331744
-0.000323242
-0.000314226
-0.000304668
-0.000294541
-0.00028381
-0.000272441
-0.000260397
-0.000247637
-0.000234116
-0.000219786
-0.000204596
-0.000188487
-0.000171399
-0.000153262
-0.000134005
-0.000113546
-9.17999e-05
-6.86708e-05
-4.4055e-05
-1.78397e-05