/*--------------------------------*- C++ -*----------------------------------*\
  =========                 |
  \\      /  F ield         | OpenFOAM: The Open Source CFD Toolbox
   \\    /   O peration     | Website:  https://openfoam.org
    \\  /    A nd           | Version:  8
     \\/     M anipulation  |
\*---------------------------------------------------------------------------*/
FoamFile
{
    version     2.0;
    format      ascii;
    class       surfaceScalarField;
    location    "41";
    object      phi;
}
// * * * * * * * * * * * * * * * * * * * * * * * * * * * * * * * * * * * * * //

dimensions      [0 3 -1 0 0 0 0];

internalField   nonuniform List<scalar> 
22960
(
-2.24385e-07
2.24349e-07
-7.99225e-07
5.7484e-07
-1.52231e-06
7.23083e-07
-2.30016e-06
7.77853e-07
-3.09227e-06
7.92109e-07
-3.88632e-06
7.94053e-07
-4.68034e-06
7.94023e-07
-5.47473e-06
7.94386e-07
-6.2701e-06
7.95371e-07
-7.06692e-06
7.96823e-07
-7.86552e-06
7.98599e-07
-8.66614e-06
8.00614e-07
-9.46896e-06
8.02821e-07
-1.02741e-05
8.0519e-07
-1.10818e-05
8.07702e-07
-1.18922e-05
8.10337e-07
-1.27053e-05
8.13081e-07
-1.35212e-05
8.15914e-07
-1.434e-05
8.18822e-07
-1.51618e-05
8.21784e-07
-1.59866e-05
8.24782e-07
-1.68144e-05
8.27797e-07
-1.76452e-05
8.30805e-07
-1.8479e-05
8.33786e-07
-1.93157e-05
8.36716e-07
-2.01552e-05
8.39571e-07
-2.09976e-05
8.42326e-07
-2.18425e-05
8.44956e-07
-2.269e-05
8.47434e-07
-2.35397e-05
8.49737e-07
-2.43915e-05
8.51838e-07
-2.52452e-05
8.53714e-07
-2.61006e-05
8.55344e-07
-2.69573e-05
8.56708e-07
-2.78151e-05
8.57791e-07
-2.86737e-05
8.58585e-07
-2.95328e-05
8.59087e-07
-3.03921e-05
8.59305e-07
-3.12513e-05
8.5926e-07
-3.21103e-05
8.5899e-07
-3.29689e-05
8.58554e-07
-3.38269e-05
8.58039e-07
-3.46845e-05
8.57566e-07
-3.55418e-05
8.57301e-07
-3.63992e-05
8.57467e-07
-3.72576e-05
8.5835e-07
-3.81179e-05
8.60314e-07
-3.89817e-05
8.63795e-07
-3.9851e-05
8.69259e-07
-4.0728e-05
8.7708e-07
-4.16153e-05
8.87233e-07
-4.2514e-05
8.98768e-07
-4.34232e-05
9.09198e-07
-4.4338e-05
9.1473e-07
-4.52586e-05
9.20583e-07
-4.62686e-05
1.01003e-06
-4.77636e-05
1.495e-06
-5.05637e-05
2.80012e-06
-6.0537e-05
9.97332e-06
2.36077e-05
-8.41447e-05
-5.85228e-07
8.09577e-07
-1.73462e-06
1.72424e-06
-3.13351e-06
2.12197e-06
-4.63326e-06
2.27761e-06
-6.16866e-06
2.32751e-06
-7.71549e-06
2.34088e-06
-9.26605e-06
2.34458e-06
-1.08184e-05
2.34672e-06
-1.23722e-05
2.34919e-06
-1.39276e-05
2.35226e-06
-1.54849e-05
2.35582e-06
-1.7044e-05
2.35979e-06
-1.86053e-05
2.36408e-06
-2.01687e-05
2.36864e-06
-2.17345e-05
2.37342e-06
-2.33025e-05
2.37838e-06
-2.48729e-05
2.38348e-06
-2.64457e-05
2.38866e-06
-2.80207e-05
2.39389e-06
-2.95981e-05
2.39912e-06
-3.11776e-05
2.40429e-06
-3.27591e-05
2.40936e-06
-3.43426e-05
2.41426e-06
-3.59278e-05
2.41895e-06
-3.75144e-05
2.42336e-06
-3.91023e-05
2.42743e-06
-4.0691e-05
2.43111e-06
-4.22804e-05
2.43432e-06
-4.387e-05
2.43701e-06
-4.54594e-05
2.43911e-06
-4.70481e-05
2.44058e-06
-4.86357e-05
2.44136e-06
-5.02218e-05
2.44141e-06
-5.18058e-05
2.4407e-06
-5.33872e-05
2.43921e-06
-5.49656e-05
2.43695e-06
-5.65405e-05
2.43396e-06
-5.81115e-05
2.43029e-06
-5.96783e-05
2.42607e-06
-6.12407e-05
2.42147e-06
-6.27989e-05
2.41675e-06
-6.43532e-05
2.41225e-06
-6.59041e-05
2.40849e-06
-6.74529e-05
2.40612e-06
-6.90015e-05
2.40605e-06
-7.05526e-05
2.40951e-06
-7.21104e-05
2.41813e-06
-7.36808e-05
2.43415e-06
-7.52722e-05
2.46062e-06
-7.68968e-05
2.50172e-06
-7.8573e-05
2.56344e-06
-8.03291e-05
2.65488e-06
-8.22116e-05
2.79165e-06
-8.43025e-05
3.00569e-06
-8.67587e-05
3.37673e-06
-8.98687e-05
4.12003e-06
-9.40901e-05
5.71638e-06
-0.000100309
9.01922e-06
-0.000108201
1.78648e-05
3.0276e-05
-0.000114869
-7.472e-07
1.55678e-06
-2.16374e-06
3.14078e-06
-3.87216e-06
3.83039e-06
-5.69548e-06
4.10093e-06
-7.55974e-06
4.19177e-06
-9.43745e-06
4.21858e-06
-1.13195e-05
4.22663e-06
-1.32033e-05
4.23049e-06
-1.50881e-05
4.23407e-06
-1.6974e-05
4.23813e-06
-1.88609e-05
4.24271e-06
-2.07489e-05
4.24773e-06
-2.26379e-05
4.25308e-06
-2.45279e-05
4.25869e-06
-2.6419e-05
4.26449e-06
-2.8311e-05
4.27041e-06
-3.02039e-05
4.27638e-06
-3.20976e-05
4.28232e-06
-3.39918e-05
4.28815e-06
-3.58865e-05
4.29381e-06
-3.77814e-05
4.2992e-06
-3.96763e-05
4.30424e-06
-4.15709e-05
4.30884e-06
-4.34648e-05
4.31291e-06
-4.53578e-05
4.31633e-06
-4.72494e-05
4.31903e-06
-4.91392e-05
4.32089e-06
-5.10267e-05
4.32182e-06
-5.29114e-05
4.32172e-06
-5.47928e-05
4.3205e-06
-5.66703e-05
4.31808e-06
-5.85433e-05
4.31437e-06
-6.04112e-05
4.30933e-06
-6.22734e-05
4.30292e-06
-6.41294e-05
4.29514e-06
-6.59784e-05
4.28602e-06
-6.78201e-05
4.27565e-06
-6.9654e-05
4.26419e-06
-7.14799e-05
4.25189e-06
-7.32975e-05
4.23911e-06
-7.51071e-05
4.22635e-06
-7.69092e-05
4.21434e-06
-7.87047e-05
4.20405e-06
-8.04954e-05
4.19679e-06
-8.22837e-05
4.19434e-06
-8.40733e-05
4.19909e-06
-8.58695e-05
4.21431e-06
-8.76798e-05
4.24445e-06
-8.95148e-05
4.29569e-06
-9.13899e-05
4.37677e-06
-9.3327e-05
4.50053e-06
-9.53589e-05
4.68682e-06
-9.7536e-05
4.96871e-06
-9.99375e-05
5.40726e-06
-0.000102688
6.12672e-06
-0.000105946
7.37834e-06
-0.000109844
9.61479e-06
-0.000114494
1.36692e-05
-0.000118046
2.14164e-05
3.12789e-05
-0.000119049
-8.11683e-07
2.36846e-06
-2.34235e-06
4.67145e-06
-4.17955e-06
5.66758e-06
-6.13398e-06
6.05536e-06
-8.12943e-06
6.18722e-06
-1.01383e-05
6.22741e-06
-1.21514e-05
6.2398e-06
-1.41663e-05
6.24534e-06
-1.6182e-05
6.24981e-06
-1.81984e-05
6.2545e-06
-2.02153e-05
6.2596e-06
-2.22326e-05
6.26506e-06
-2.42503e-05
6.27079e-06
-2.62683e-05
6.27669e-06
-2.82865e-05
6.28267e-06
-3.03047e-05
6.28863e-06
-3.23228e-05
6.29449e-06
-3.43406e-05
6.30013e-06
-3.63579e-05
6.30546e-06
-3.83745e-05
6.31037e-06
-4.039e-05
6.31473e-06
-4.24042e-05
6.31843e-06
-4.44167e-05
6.32134e-06
-4.64271e-05
6.32333e-06
-4.84351e-05
6.32426e-06
-5.044e-05
6.32399e-06
-5.24415e-05
6.3224e-06
-5.4439e-05
6.31933e-06
-5.6432e-05
6.31466e-06
-5.84197e-05
6.30826e-06
-6.04017e-05
6.30003e-06
-6.23772e-05
6.28986e-06
-6.43455e-05
6.27768e-06
-6.63061e-05
6.26346e-06
-6.82581e-05
6.24721e-06
-7.02011e-05
6.229e-06
-7.21344e-05
6.20896e-06
-7.40576e-05
6.18735e-06
-7.59702e-05
6.16455e-06
-7.78722e-05
6.1411e-06
-7.97637e-05
6.11778e-06
-8.1645e-05
6.09565e-06
-8.35171e-05
6.07615e-06
-8.53815e-05
6.06125e-06
-8.72408e-05
6.05357e-06
-8.90983e-05
6.05666e-06
-9.09594e-05
6.07536e-06
-9.28312e-05
6.11626e-06
-9.47241e-05
6.18855e-06
-9.66525e-05
6.3052e-06
-9.8637e-05
6.48507e-06
-0.000100707
6.75643e-06
-0.000102902
7.16358e-06
-0.000105274
7.77966e-06
-0.000107878
8.73073e-06
-0.000110729
1.02295e-05
-0.000113725
1.26111e-05
-0.000116464
1.64077e-05
-0.000117351
2.23039e-05
2.92771e-05
-0.00011535
-8.30488e-07
3.19895e-06
-2.40371e-06
6.24467e-06
-4.28933e-06
7.5532e-06
-6.29236e-06
8.05839e-06
-8.33553e-06
8.23039e-06
-1.03914e-05
8.28328e-06
-1.24513e-05
8.29968e-06
-1.45127e-05
8.30671e-06
-1.65748e-05
8.31192e-06
-1.86373e-05
8.31708e-06
-2.07002e-05
8.32251e-06
-2.27634e-05
8.32818e-06
-2.48266e-05
8.334e-06
-2.68898e-05
8.33987e-06
-2.89528e-05
8.34568e-06
-3.10155e-05
8.35132e-06
-3.30776e-05
8.35667e-06
-3.51391e-05
8.36159e-06
-3.71996e-05
8.36596e-06
-3.92589e-05
8.36964e-06
-4.13166e-05
8.37247e-06
-4.33725e-05
8.3743e-06
-4.54261e-05
8.37496e-06
-4.74771e-05
8.37429e-06
-4.95249e-05
8.37211e-06
-5.15692e-05
8.36825e-06
-5.36093e-05
8.36253e-06
-5.56448e-05
8.35477e-06
-5.76749e-05
8.34481e-06
-5.96991e-05
8.33248e-06
-6.17167e-05
8.31764e-06
-6.3727e-05
8.30016e-06
-6.57293e-05
8.27996e-06
-6.77228e-05
8.25699e-06
-6.97069e-05
8.23126e-06
-7.16807e-05
8.20286e-06
-7.36438e-05
8.17197e-06
-7.55953e-05
8.13892e-06
-7.7535e-05
8.10417e-06
-7.94623e-05
8.06844e-06
-8.13772e-05
8.03269e-06
-8.32798e-05
7.99828e-06
-8.51707e-05
7.96704e-06
-8.70509e-05
7.9414e-06
-8.8922e-05
7.92467e-06
-9.07866e-05
7.92126e-06
-9.26483e-05
7.93713e-06
-9.45124e-05
7.98034e-06
-9.63858e-05
8.06194e-06
-9.82779e-05
8.19726e-06
-0.000100201
8.40792e-06
-0.000102169
8.72497e-06
-0.0001042
9.19409e-06
-0.000106304
9.88412e-06
-0.000108473
1.08997e-05
-0.000110638
1.23942e-05
-0.000112607
1.45805e-05
-0.000113929
1.773e-05
-0.000113599
2.19731e-05
2.67773e-05
-0.000111099
-8.33245e-07
4.03219e-06
-2.41993e-06
7.83136e-06
-4.32166e-06
9.45493e-06
-6.34098e-06
1.00777e-05
-8.39983e-06
1.02892e-05
-1.04708e-05
1.03543e-05
-1.25455e-05
1.03744e-05
-1.46216e-05
1.03828e-05
-1.66983e-05
1.03886e-05
-1.87755e-05
1.03942e-05
-2.08529e-05
1.04e-05
-2.29305e-05
1.04058e-05
-2.50082e-05
1.04117e-05
-2.70858e-05
1.04175e-05
-2.91632e-05
1.04231e-05
-3.12402e-05
1.04283e-05
-3.33166e-05
1.04331e-05
-3.53923e-05
1.04372e-05
-3.74669e-05
1.04406e-05
-3.95402e-05
1.04429e-05
-4.16118e-05
1.04441e-05
-4.36816e-05
1.0444e-05
-4.57489e-05
1.04423e-05
-4.78136e-05
1.04389e-05
-4.9875e-05
1.04335e-05
-5.19327e-05
1.0426e-05
-5.39861e-05
1.0416e-05
-5.60348e-05
1.04034e-05
-5.80779e-05
1.0388e-05
-6.0115e-05
1.03695e-05
-6.21452e-05
1.03479e-05
-6.41679e-05
1.03228e-05
-6.61823e-05
1.02943e-05
-6.81875e-05
1.02622e-05
-7.01828e-05
1.02266e-05
-7.21675e-05
1.01875e-05
-7.41405e-05
1.01451e-05
-7.61014e-05
1.00997e-05
-7.80492e-05
1.0052e-05
-7.99835e-05
1.00027e-05
-8.19036e-05
9.95286e-06
-8.38094e-05
9.90406e-06
-8.57007e-05
9.85833e-06
-8.75777e-05
9.81844e-06
-8.94411e-05
9.78804e-06
-9.12919e-05
9.77202e-06
-9.31316e-05
9.77688e-06
-9.49626e-05
9.8113e-06
-9.67876e-05
9.88693e-06
-9.86098e-05
1.00195e-05
-0.000100432
1.02304e-05
-0.000102256
1.0549e-05
-0.000104078
1.10157e-05
-0.00010588
1.16867e-05
-0.000107618
1.26376e-05
-0.00010919
1.39662e-05
-0.000110397
1.57867e-05
-0.000110865
1.8198e-05
-0.000110049
2.11571e-05
2.43453e-05
-0.000107617
-8.3193e-07
4.86412e-06
-2.42158e-06
9.42101e-06
-4.32763e-06
1.1361e-05
-6.35172e-06
1.21018e-05
-8.41517e-06
1.23527e-05
-1.04905e-05
1.24296e-05
-1.25693e-05
1.24532e-05
-1.46494e-05
1.24629e-05
-1.67302e-05
1.24694e-05
-1.88114e-05
1.24754e-05
-2.0893e-05
1.24815e-05
-2.29748e-05
1.24876e-05
-2.50567e-05
1.24936e-05
-2.71386e-05
1.24994e-05
-2.92204e-05
1.25048e-05
-3.13019e-05
1.25098e-05
-3.33829e-05
1.25141e-05
-3.54632e-05
1.25175e-05
-3.75425e-05
1.25199e-05
-3.96207e-05
1.25211e-05
-4.16974e-05
1.25208e-05
-4.37722e-05
1.25188e-05
-4.58448e-05
1.25149e-05
-4.79148e-05
1.25089e-05
-4.99816e-05
1.25004e-05
-5.20449e-05
1.24893e-05
-5.41041e-05
1.24752e-05
-5.61586e-05
1.24578e-05
-5.82077e-05
1.24371e-05
-6.02507e-05
1.24126e-05
-6.2287e-05
1.23841e-05
-6.43157e-05
1.23516e-05
-6.63361e-05
1.23147e-05
-6.83472e-05
1.22734e-05
-7.03482e-05
1.22276e-05
-7.23382e-05
1.21774e-05
-7.43162e-05
1.21231e-05
-7.62812e-05
1.20648e-05
-7.82324e-05
1.20032e-05
-8.01687e-05
1.1939e-05
-8.20893e-05
1.18734e-05
-8.39933e-05
1.18081e-05
-8.58799e-05
1.1745e-05
-8.77484e-05
1.1687e-05
-8.95982e-05
1.16378e-05
-9.14287e-05
1.16025e-05
-9.32392e-05
1.15874e-05
-9.5029e-05
1.16011e-05
-9.67968e-05
1.16547e-05
-9.85399e-05
1.17626e-05
-0.000100254
1.19442e-05
-0.000101929
1.22241e-05
-0.000103548
1.26345e-05
-0.000105077
1.32161e-05
-0.000106458
1.40183e-05
-0.000107587
1.50954e-05
-0.000108297
1.64964e-05
-0.000108333
1.82345e-05
-0.000107397
2.02215e-05
2.2232e-05
-0.000105284
-8.29926e-07
5.69405e-06
-2.41915e-06
1.10102e-05
-4.32565e-06
1.32675e-05
-6.35074e-06
1.41269e-05
-8.41528e-06
1.44172e-05
-1.04916e-05
1.4506e-05
-1.25714e-05
1.4533e-05
-1.46524e-05
1.45439e-05
-1.67341e-05
1.45511e-05
-1.88163e-05
1.45577e-05
-2.0899e-05
1.45641e-05
-2.29819e-05
1.45706e-05
-2.50652e-05
1.45768e-05
-2.71485e-05
1.45827e-05
-2.92318e-05
1.45882e-05
-3.1315e-05
1.4593e-05
-3.33978e-05
1.45969e-05
-3.54802e-05
1.45999e-05
-3.75618e-05
1.46015e-05
-3.96423e-05
1.46017e-05
-4.17216e-05
1.46001e-05
-4.37993e-05
1.45965e-05
-4.58749e-05
1.45906e-05
-4.79482e-05
1.45821e-05
-5.00185e-05
1.45708e-05
-5.20856e-05
1.45563e-05
-5.41487e-05
1.45383e-05
-5.62074e-05
1.45165e-05
-5.82609e-05
1.44906e-05
-6.03086e-05
1.44602e-05
-6.23496e-05
1.44252e-05
-6.43833e-05
1.43852e-05
-6.64086e-05
1.434e-05
-6.84247e-05
1.42895e-05
-7.04306e-05
1.42335e-05
-7.24252e-05
1.41721e-05
-7.44075e-05
1.41053e-05
-7.63762e-05
1.40335e-05
-7.83301e-05
1.39571e-05
-8.0268e-05
1.38769e-05
-8.21886e-05
1.3794e-05
-8.40903e-05
1.37098e-05
-8.59717e-05
1.36264e-05
-8.78312e-05
1.35464e-05
-8.96668e-05
1.34735e-05
-9.14765e-05
1.34122e-05
-9.32575e-05
1.33684e-05
-9.50063e-05
1.33499e-05
-9.67182e-05
1.33665e-05
-9.83861e-05
1.34306e-05
-9.99996e-05
1.35577e-05
-0.000101543
1.37671e-05
-0.00010299
1.40821e-05
-0.000104303
1.45292e-05
-0.000105422
1.51369e-05
-0.000106256
1.59298e-05
-0.000106679
1.6919e-05
-0.000106525
1.80809e-05
-0.000105629
1.93255e-05
2.04852e-05
-0.000103883
-8.2791e-07
6.52196e-06
-2.41566e-06
1.2598e-05
-4.32143e-06
1.51733e-05
-6.34635e-06
1.61518e-05
-8.4109e-06
1.64818e-05
-1.04873e-05
1.65824e-05
-1.25672e-05
1.66129e-05
-1.46483e-05
1.6625e-05
-1.67301e-05
1.66329e-05
-1.88125e-05
1.66401e-05
-2.08955e-05
1.66471e-05
-2.29789e-05
1.6654e-05
-2.50627e-05
1.66606e-05
-2.71467e-05
1.66668e-05
-2.9231e-05
1.66724e-05
-3.13152e-05
1.66772e-05
-3.33994e-05
1.66811e-05
-3.54832e-05
1.66837e-05
-3.75665e-05
1.66848e-05
-3.96491e-05
1.66842e-05
-4.17306e-05
1.66816e-05
-4.38107e-05
1.66766e-05
-4.58891e-05
1.6669e-05
-4.79655e-05
1.66585e-05
-5.00392e-05
1.66446e-05
-5.21099e-05
1.6627e-05
-5.41771e-05
1.66054e-05
-5.624e-05
1.65794e-05
-5.82981e-05
1.65487e-05
-6.03506e-05
1.65127e-05
-6.23967e-05
1.64713e-05
-6.44356e-05
1.64241e-05
-6.64664e-05
1.63708e-05
-6.84881e-05
1.63111e-05
-7.04995e-05
1.62449e-05
-7.24994e-05
1.6172e-05
-7.44867e-05
1.60926e-05
-7.646e-05
1.60067e-05
-7.84177e-05
1.59148e-05
-8.03582e-05
1.58175e-05
-8.22798e-05
1.57156e-05
-8.41806e-05
1.56105e-05
-8.60582e-05
1.5504e-05
-8.79102e-05
1.53985e-05
-8.97337e-05
1.5297e-05
-9.15251e-05
1.52035e-05
-9.32799e-05
1.51233e-05
-9.49927e-05
1.50627e-05
-9.66559e-05
1.50297e-05
-9.82596e-05
1.50342e-05
-9.97897e-05
1.50878e-05
-0.000101227
1.52042e-05
-0.000102543
1.53986e-05
-0.0001037
1.56863e-05
-0.000104644
1.60804e-05
-0.000105301
1.65873e-05
-0.00010558
1.7198e-05
-0.000105376
1.78764e-05
-0.000104594
1.85438e-05
1.90765e-05
-0.000103185
-8.25903e-07
7.34786e-06
-2.41181e-06
1.41839e-05
-4.31645e-06
1.70779e-05
-6.3408e-06
1.81761e-05
-8.40503e-06
1.8546e-05
-1.04812e-05
1.86585e-05
-1.25609e-05
1.86926e-05
-1.46419e-05
1.8706e-05
-1.67237e-05
1.87147e-05
-1.88062e-05
1.87226e-05
-2.08893e-05
1.87302e-05
-2.2973e-05
1.87377e-05
-2.50573e-05
1.87448e-05
-2.7142e-05
1.87515e-05
-2.92271e-05
1.87575e-05
-3.13124e-05
1.87626e-05
-3.33978e-05
1.87665e-05
-3.54832e-05
1.87691e-05
-3.75683e-05
1.87699e-05
-3.96529e-05
1.87688e-05
-4.17368e-05
1.87655e-05
-4.38196e-05
1.87595e-05
-4.59011e-05
1.87505e-05
-4.79807e-05
1.87381e-05
-5.00582e-05
1.87221e-05
-5.2133e-05
1.87018e-05
-5.42046e-05
1.8677e-05
-5.62723e-05
1.86472e-05
-5.83355e-05
1.86119e-05
-6.03936e-05
1.85708e-05
-6.24455e-05
1.85233e-05
-6.44906e-05
1.84692e-05
-6.65277e-05
1.84079e-05
-6.85558e-05
1.83393e-05
-7.05738e-05
1.82629e-05
-7.25803e-05
1.81786e-05
-7.4574e-05
1.80862e-05
-7.65532e-05
1.79859e-05
-7.85162e-05
1.78778e-05
-8.04611e-05
1.77624e-05
-8.23857e-05
1.76402e-05
-8.42876e-05
1.75124e-05
-8.6164e-05
1.73804e-05
-8.80115e-05
1.7246e-05
-8.98265e-05
1.71119e-05
-9.16041e-05
1.69812e-05
-9.33387e-05
1.68579e-05
-9.50231e-05
1.67471e-05
-9.66482e-05
1.66549e-05
-9.82022e-05
1.65881e-05
-9.96693e-05
1.6555e-05
-0.000101029
1.65641e-05
-0.000102254
1.66238e-05
-0.000103309
1.67413e-05
-0.000104149
1.69196e-05
-0.000104715
1.71539e-05
-0.000104944
1.74267e-05
-0.000104767
1.76999e-05
-0.000104133
1.79091e-05
1.79642e-05
-0.00010302
-8.23814e-07
8.17168e-06
-2.40766e-06
1.57677e-05
-4.31101e-06
1.89813e-05
-6.33462e-06
2.01998e-05
-8.39838e-06
2.06098e-05
-1.04742e-05
2.07344e-05
-1.25537e-05
2.0772e-05
-1.46345e-05
2.07868e-05
-1.67162e-05
2.07965e-05
-1.87987e-05
2.08051e-05
-2.0882e-05
2.08135e-05
-2.29661e-05
2.08217e-05
-2.50508e-05
2.08296e-05
-2.71363e-05
2.08369e-05
-2.92223e-05
2.08435e-05
-3.13087e-05
2.0849e-05
-3.33956e-05
2.08533e-05
-3.54826e-05
2.08561e-05
-3.75697e-05
2.0857e-05
-3.96566e-05
2.08558e-05
-4.17431e-05
2.0852e-05
-4.3829e-05
2.08453e-05
-4.59138e-05
2.08353e-05
-4.79972e-05
2.08216e-05
-5.00789e-05
2.08037e-05
-5.21582e-05
2.07812e-05
-5.42348e-05
2.07536e-05
-5.6308e-05
2.07203e-05
-5.83771e-05
2.0681e-05
-6.04414e-05
2.06351e-05
-6.25001e-05
2.0582e-05
-6.45522e-05
2.05213e-05
-6.65967e-05
2.04525e-05
-6.86325e-05
2.03751e-05
-7.06584e-05
2.02887e-05
-7.26729e-05
2.0193e-05
-7.46744e-05
2.00878e-05
-7.66613e-05
1.99728e-05
-7.86315e-05
1.98481e-05
-8.0583e-05
1.97138e-05
-8.25131e-05
1.95703e-05
-8.4419e-05
1.94183e-05
-8.62974e-05
1.92588e-05
-8.81445e-05
1.90931e-05
-8.99556e-05
1.8923e-05
-9.17254e-05
1.87509e-05
-9.34471e-05
1.85797e-05
-9.51127e-05
1.84127e-05
-9.6712e-05
1.82541e-05
-9.82323e-05
1.81084e-05
-9.96577e-05
1.79803e-05
-0.000100968
1.78743e-05
-0.000102138
1.77938e-05
-0.000103136
1.77398e-05
-0.000103926
1.7709e-05
-0.000104463
1.7691e-05
-0.000104701
1.76652e-05
-0.000104598
1.75965e-05
-0.000104122
1.74336e-05
1.71106e-05
-0.000103269
-8.21576e-07
8.99325e-06
-2.40318e-06
1.73493e-05
-4.30509e-06
2.08832e-05
-6.32786e-06
2.22225e-05
-8.39106e-06
2.2673e-05
-1.04665e-05
2.28098e-05
-1.25456e-05
2.28511e-05
-1.46262e-05
2.28674e-05
-1.67079e-05
2.28781e-05
-1.87904e-05
2.28877e-05
-2.08739e-05
2.2897e-05
-2.29583e-05
2.29062e-05
-2.50436e-05
2.29149e-05
-2.71298e-05
2.29231e-05
-2.92168e-05
2.29305e-05
-3.13046e-05
2.29368e-05
-3.3393e-05
2.29417e-05
-3.54819e-05
2.2945e-05
-3.75711e-05
2.29463e-05
-3.96606e-05
2.29452e-05
-4.175e-05
2.29414e-05
-4.38392e-05
2.29344e-05
-4.59277e-05
2.29238e-05
-4.80153e-05
2.29092e-05
-5.01016e-05
2.289e-05
-5.21861e-05
2.28657e-05
-5.42683e-05
2.28357e-05
-5.63475e-05
2.27996e-05
-5.84233e-05
2.27567e-05
-6.04947e-05
2.27065e-05
-6.2561e-05
2.26483e-05
-6.46212e-05
2.25815e-05
-6.66743e-05
2.25055e-05
-6.8719e-05
2.24198e-05
-7.07541e-05
2.23238e-05
-7.27781e-05
2.2217e-05
-7.47894e-05
2.2099e-05
-7.67859e-05
2.19693e-05
-7.87656e-05
2.18278e-05
-8.07261e-05
2.16743e-05
-8.26645e-05
2.15088e-05
-8.45778e-05
2.13316e-05
-8.64622e-05
2.11432e-05
-8.83134e-05
2.09443e-05
-9.01264e-05
2.0736e-05
-9.18951e-05
2.05196e-05
-9.36123e-05
2.02969e-05
-9.52695e-05
2.00698e-05
-9.68559e-05
1.98406e-05
-9.83589e-05
1.96115e-05
-9.9763e-05
1.93844e-05
-0.000101049
1.91605e-05
-0.000102195
1.89395e-05
-0.000103173
1.87184e-05
-0.000103955
1.84902e-05
-0.000104506
1.8242e-05
-0.000104793
1.79528e-05
-0.000104789
1.75923e-05
-0.000104475
1.71198e-05
1.64866e-05
-0.000103851
-8.19145e-07
9.8124e-06
-2.3983e-06
1.89285e-05
-4.29864e-06
2.27835e-05
-6.32046e-06
2.42443e-05
-8.38302e-06
2.47355e-05
-1.0458e-05
2.48848e-05
-1.25367e-05
2.49299e-05
-1.46171e-05
2.49478e-05
-1.66986e-05
2.49596e-05
-1.87812e-05
2.49702e-05
-2.08649e-05
2.49807e-05
-2.29496e-05
2.49909e-05
-2.50355e-05
2.50008e-05
-2.71226e-05
2.50101e-05
-2.92106e-05
2.50186e-05
-3.12997e-05
2.50259e-05
-3.33898e-05
2.50318e-05
-3.54807e-05
2.50359e-05
-3.75724e-05
2.50379e-05
-3.96646e-05
2.50374e-05
-4.17572e-05
2.5034e-05
-4.38499e-05
2.50272e-05
-4.59425e-05
2.50165e-05
-4.80347e-05
2.50014e-05
-5.01261e-05
2.49813e-05
-5.22162e-05
2.49558e-05
-5.43046e-05
2.49241e-05
-5.63906e-05
2.48857e-05
-5.84737e-05
2.48398e-05
-6.05531e-05
2.47859e-05
-6.26279e-05
2.47231e-05
-6.46973e-05
2.46509e-05
-6.67601e-05
2.45683e-05
-6.88151e-05
2.44749e-05
-7.0861e-05
2.43697e-05
-7.28963e-05
2.42523e-05
-7.4919e-05
2.41218e-05
-7.69273e-05
2.39777e-05
-7.8919e-05
2.38194e-05
-8.08913e-05
2.36466e-05
-8.28414e-05
2.34589e-05
-8.47658e-05
2.3256e-05
-8.66605e-05
2.30379e-05
-8.8521e-05
2.28048e-05
-9.03419e-05
2.25569e-05
-9.21169e-05
2.22946e-05
-9.38384e-05
2.20185e-05
-9.54978e-05
2.17292e-05
-9.70844e-05
2.14272e-05
-9.85859e-05
2.11129e-05
-9.99875e-05
2.0786e-05
-0.000101272
2.04451e-05
-0.00010242
2.00872e-05
-0.000103408
1.97068e-05
-0.000104213
1.92949e-05
-0.000104809
1.88377e-05
-0.000105172
1.83157e-05
-0.000105282
1.77027e-05
-0.000105129
1.69667e-05
1.60711e-05
-0.000104713
-8.16499e-07
1.06289e-05
-2.39298e-06
2.0505e-05
-4.2916e-06
2.46821e-05
-6.31235e-06
2.62651e-05
-8.37418e-06
2.67974e-05
-1.04486e-05
2.69591e-05
-1.25269e-05
2.70082e-05
-1.46069e-05
2.70279e-05
-1.66883e-05
2.70409e-05
-1.87709e-05
2.70528e-05
-2.08547e-05
2.70645e-05
-2.29399e-05
2.70761e-05
-2.50264e-05
2.70873e-05
-2.71142e-05
2.7098e-05
-2.92034e-05
2.71078e-05
-3.1294e-05
2.71164e-05
-3.33858e-05
2.71236e-05
-3.54789e-05
2.7129e-05
-3.7573e-05
2.71321e-05
-3.96682e-05
2.71326e-05
-4.17642e-05
2.713e-05
-4.38608e-05
2.71238e-05
-4.59578e-05
2.71135e-05
-4.8055e-05
2.70985e-05
-5.01519e-05
2.70782e-05
-5.22481e-05
2.7052e-05
-5.43432e-05
2.70192e-05
-5.64367e-05
2.69791e-05
-5.85279e-05
2.6931e-05
-6.06161e-05
2.68741e-05
-6.27004e-05
2.68075e-05
-6.478e-05
2.67304e-05
-6.68538e-05
2.66421e-05
-6.89205e-05
2.65416e-05
-7.09787e-05
2.6428e-05
-7.30269e-05
2.63004e-05
-7.50632e-05
2.61581e-05
-7.70856e-05
2.60001e-05
-7.90918e-05
2.58256e-05
-8.1079e-05
2.56338e-05
-8.30441e-05
2.5424e-05
-8.49836e-05
2.51955e-05
-8.68934e-05
2.49477e-05
-8.87686e-05
2.46801e-05
-9.06039e-05
2.43921e-05
-9.23926e-05
2.40834e-05
-9.41275e-05
2.37533e-05
-9.57996e-05
2.34013e-05
-9.73989e-05
2.30265e-05
-9.89136e-05
2.26276e-05
-0.00010033
2.22025e-05
-0.000101633
2.17479e-05
-0.000102805
2.12591e-05
-0.000103827
2.0729e-05
-0.000104679
2.01475e-05
-0.000105343
1.95009e-05
-0.000105799
1.87716e-05
-0.000106033
1.79374e-05
-0.000106039
1.69726e-05
1.58492e-05
-0.000105817
-8.13618e-07
1.14425e-05
-2.38718e-06
2.20785e-05
-4.2839e-06
2.65788e-05
-6.30346e-06
2.82846e-05
-8.36445e-06
2.88584e-05
-1.04382e-05
2.90329e-05
-1.2516e-05
2.9086e-05
-1.45957e-05
2.91075e-05
-1.66768e-05
2.9122e-05
-1.87593e-05
2.91353e-05
-2.08432e-05
2.91485e-05
-2.29287e-05
2.91616e-05
-2.50158e-05
2.91744e-05
-2.71045e-05
2.91867e-05
-2.91949e-05
2.91981e-05
-3.12869e-05
2.92085e-05
-3.33806e-05
2.92173e-05
-3.54759e-05
2.92243e-05
-3.75727e-05
2.92289e-05
-3.9671e-05
2.92309e-05
-4.17706e-05
2.92296e-05
-4.38713e-05
2.92246e-05
-4.59731e-05
2.92152e-05
-4.80755e-05
2.92009e-05
-5.01783e-05
2.9181e-05
-5.22811e-05
2.91549e-05
-5.43836e-05
2.91217e-05
-5.64851e-05
2.90807e-05
-5.85851e-05
2.9031e-05
-6.06829e-05
2.89719e-05
-6.27778e-05
2.89023e-05
-6.48687e-05
2.88213e-05
-6.69546e-05
2.8728e-05
-6.90343e-05
2.86213e-05
-7.11065e-05
2.85001e-05
-7.31695e-05
2.83634e-05
-7.52215e-05
2.82101e-05
-7.72604e-05
2.8039e-05
-7.92838e-05
2.7849e-05
-8.12889e-05
2.76389e-05
-8.32727e-05
2.74078e-05
-8.52315e-05
2.71543e-05
-8.71611e-05
2.68773e-05
-8.90566e-05
2.65757e-05
-9.09127e-05
2.62482e-05
-9.27229e-05
2.58935e-05
-9.44798e-05
2.55102e-05
-9.6175e-05
2.50965e-05
-9.77988e-05
2.46504e-05
-9.93403e-05
2.41691e-05
-0.000100787
2.36492e-05
-0.000102125
2.30861e-05
-0.00010334
2.24737e-05
-0.000104415
2.18041e-05
-0.000105334
2.10667e-05
-0.000106082
2.02487e-05
-0.000106644
1.93338e-05
-0.00010701
1.83034e-05
-0.000107174
1.71364e-05
1.5811e-05
-0.000107136
-8.10488e-07
1.2253e-05
-2.38086e-06
2.36489e-05
-4.27549e-06
2.84735e-05
-6.29372e-06
3.03029e-05
-8.35375e-06
3.09184e-05
-1.04267e-05
3.11058e-05
-1.25039e-05
3.11632e-05
-1.45831e-05
3.11867e-05
-1.66638e-05
3.12028e-05
-1.87462e-05
3.12177e-05
-2.08302e-05
3.12325e-05
-2.2916e-05
3.12474e-05
-2.50036e-05
3.1262e-05
-2.70932e-05
3.12762e-05
-2.91847e-05
3.12897e-05
-3.12782e-05
3.1302e-05
-3.33738e-05
3.13128e-05
-3.54714e-05
3.13218e-05
-3.75709e-05
3.13285e-05
-3.96725e-05
3.13324e-05
-4.17758e-05
3.1333e-05
-4.38809e-05
3.13297e-05
-4.59876e-05
3.13219e-05
-4.80956e-05
3.13089e-05
-5.02047e-05
3.12902e-05
-5.23146e-05
3.12648e-05
-5.44249e-05
3.12319e-05
-5.65351e-05
3.11909e-05
-5.86446e-05
3.11406e-05
-6.07529e-05
3.10801e-05
-6.28591e-05
3.10085e-05
-6.49623e-05
3.09246e-05
-6.70617e-05
3.08274e-05
-6.91559e-05
3.07155e-05
-7.12436e-05
3.05878e-05
-7.33232e-05
3.0443e-05
-7.53929e-05
3.02798e-05
-7.74507e-05
3.00967e-05
-7.94941e-05
2.98924e-05
-8.15205e-05
2.96653e-05
-8.35265e-05
2.94139e-05
-8.55088e-05
2.91365e-05
-8.7463e-05
2.88315e-05
-8.93845e-05
2.84972e-05
-9.12679e-05
2.81315e-05
-9.31068e-05
2.77325e-05
-9.48943e-05
2.72977e-05
-9.66223e-05
2.68245e-05
-9.82816e-05
2.63097e-05
-9.98622e-05
2.57497e-05
-0.000101353
2.51398e-05
-0.000102741
2.44744e-05
-0.000104014
2.37467e-05
-0.000105158
2.2948e-05
-0.000106159
2.2068e-05
-0.000107005
2.10942e-05
-0.000107683
2.00123e-05
-0.000108186
1.8806e-05
-0.000108508
1.74579e-05
1.59505e-05
-0.000108647
-8.07095e-07
1.30601e-05
-2.37399e-06
2.52158e-05
-4.26631e-06
3.03658e-05
-6.28304e-06
3.23196e-05
-8.34198e-06
3.29773e-05
-1.0414e-05
3.31779e-05
-1.24905e-05
3.32397e-05
-1.45691e-05
3.32653e-05
-1.66494e-05
3.32831e-05
-1.87315e-05
3.32998e-05
-2.08155e-05
3.33165e-05
-2.29015e-05
3.33334e-05
-2.49896e-05
3.33502e-05
-2.70799e-05
3.33666e-05
-2.91725e-05
3.33823e-05
-3.12675e-05
3.3397e-05
-3.3365e-05
3.34103e-05
-3.54649e-05
3.34217e-05
-3.75672e-05
3.34309e-05
-3.96721e-05
3.34372e-05
-4.17794e-05
3.34402e-05
-4.3889e-05
3.34393e-05
-4.60008e-05
3.34337e-05
-4.81147e-05
3.34228e-05
-5.02304e-05
3.34059e-05
-5.23477e-05
3.33821e-05
-5.44663e-05
3.33505e-05
-5.65857e-05
3.33102e-05
-5.87054e-05
3.32603e-05
-6.08249e-05
3.31996e-05
-6.29433e-05
3.3127e-05
-6.506e-05
3.30413e-05
-6.7174e-05
3.29413e-05
-6.9284e-05
3.28255e-05
-7.13888e-05
3.26926e-05
-7.34869e-05
3.25411e-05
-7.55765e-05
3.23694e-05
-7.76555e-05
3.21758e-05
-7.97217e-05
3.19586e-05
-8.17724e-05
3.17159e-05
-8.38045e-05
3.14459e-05
-8.58143e-05
3.11464e-05
-8.7798e-05
3.08152e-05
-8.97509e-05
3.04501e-05
-9.16678e-05
3.00484e-05
-9.35426e-05
2.96073e-05
-9.53687e-05
2.91238e-05
-9.71385e-05
2.85943e-05
-9.88436e-05
2.80148e-05
-0.000100475
2.73807e-05
-0.000102021
2.66865e-05
-0.000103473
2.59259e-05
-0.000104817
2.50914e-05
-0.000106044
2.41741e-05
-0.000107139
2.31638e-05
-0.000108094
2.20487e-05
-0.000108897
2.08156e-05
-0.000109542
1.94505e-05
-0.000110022
1.79383e-05
1.62645e-05
-0.000110336
-8.03426e-07
1.38635e-05
-2.36654e-06
2.67789e-05
-4.25631e-06
3.22556e-05
-6.27136e-06
3.43347e-05
-8.32903e-06
3.5035e-05
-1.04001e-05
3.52489e-05
-1.24756e-05
3.53152e-05
-1.45534e-05
3.53431e-05
-1.66332e-05
3.53629e-05
-1.87149e-05
3.53815e-05
-2.07987e-05
3.54004e-05
-2.28848e-05
3.54195e-05
-2.49733e-05
3.54386e-05
-2.70643e-05
3.54576e-05
-2.9158e-05
3.5476e-05
-3.12544e-05
3.54934e-05
-3.33537e-05
3.55096e-05
-3.54559e-05
3.55239e-05
-3.75611e-05
3.55361e-05
-3.96693e-05
3.55455e-05
-4.17806e-05
3.55515e-05
-4.38948e-05
3.55535e-05
-4.60119e-05
3.55509e-05
-4.81319e-05
3.55428e-05
-5.02546e-05
3.55285e-05
-5.23797e-05
3.55072e-05
-5.45069e-05
3.54778e-05
-5.6636e-05
3.54393e-05
-5.87665e-05
3.53908e-05
-6.08979e-05
3.53309e-05
-6.30295e-05
3.52586e-05
-6.51606e-05
3.51724e-05
-6.72902e-05
3.50709e-05
-6.94174e-05
3.49527e-05
-7.15409e-05
3.48161e-05
-7.36592e-05
3.46594e-05
-7.57707e-05
3.44809e-05
-7.78734e-05
3.42785e-05
-7.99651e-05
3.40503e-05
-8.20432e-05
3.37941e-05
-8.41047e-05
3.35074e-05
-8.61463e-05
3.3188e-05
-8.81641e-05
3.2833e-05
-9.01537e-05
3.24396e-05
-9.211e-05
3.20047e-05
-9.40275e-05
3.15248e-05
-9.58998e-05
3.09961e-05
-9.77199e-05
3.04143e-05
-9.94799e-05
2.97748e-05
-0.000101171
2.90721e-05
-0.000102785
2.83002e-05
-0.000104311
2.74519e-05
-0.000105739
2.65195e-05
-0.000107059
2.54939e-05
-0.00010826
2.43649e-05
-0.000109333
2.31214e-05
-0.000110269
2.17513e-05
-0.00011106
2.02417e-05
-0.000111701
1.85797e-05
1.67526e-05
-0.000112189
-7.9947e-07
1.4663e-05
-2.35848e-06
2.83379e-05
-4.24544e-06
3.41425e-05
-6.2586e-06
3.63478e-05
-8.31482e-06
3.70912e-05
-1.03846e-05
3.73187e-05
-1.24591e-05
3.73896e-05
-1.4536e-05
3.742e-05
-1.6615e-05
3.74419e-05
-1.86962e-05
3.74627e-05
-2.07797e-05
3.74839e-05
-2.28658e-05
3.75055e-05
-2.49545e-05
3.75274e-05
-2.70461e-05
3.75492e-05
-2.91407e-05
3.75706e-05
-3.12384e-05
3.75912e-05
-3.33395e-05
3.76106e-05
-3.5444e-05
3.76284e-05
-3.7552e-05
3.76441e-05
-3.96635e-05
3.7657e-05
-4.17788e-05
3.76667e-05
-4.38977e-05
3.76724e-05
-4.60203e-05
3.76735e-05
-4.81465e-05
3.7669e-05
-5.02763e-05
3.76583e-05
-5.24094e-05
3.76403e-05
-5.45458e-05
3.76141e-05
-5.6685e-05
3.75786e-05
-5.88268e-05
3.75326e-05
-6.09707e-05
3.74749e-05
-6.31162e-05
3.74041e-05
-6.52626e-05
3.73188e-05
-6.7409e-05
3.72174e-05
-6.95546e-05
3.70983e-05
-7.16982e-05
3.69597e-05
-7.38384e-05
3.67997e-05
-7.59738e-05
3.66162e-05
-7.81024e-05
3.64071e-05
-8.02222e-05
3.61701e-05
-8.23307e-05
3.59026e-05
-8.44252e-05
3.56019e-05
-8.65024e-05
3.52652e-05
-8.85587e-05
3.48893e-05
-9.05899e-05
3.44709e-05
-9.25914e-05
3.40062e-05
-9.45579e-05
3.34913e-05
-9.64834e-05
3.29217e-05
-9.83616e-05
3.22925e-05
-0.000100185
3.15984e-05
-0.000101946
3.08333e-05
-0.000103637
2.99905e-05
-0.000105247
2.90626e-05
-0.000106769
2.80413e-05
-0.000108193
2.69174e-05
-0.000109509
2.5681e-05
-0.000110708
2.43211e-05
-0.000111784
2.28265e-05
-0.000112727
2.11852e-05
-0.000113533
1.93856e-05
1.74164e-05
-0.000114197
-7.95212e-07
1.54582e-05
-2.34976e-06
2.98925e-05
-4.23364e-06
3.60264e-05
-6.24467e-06
3.83588e-05
-8.29924e-06
3.91458e-05
-1.03676e-05
3.93871e-05
-1.24408e-05
3.94628e-05
-1.45166e-05
3.94958e-05
-1.65947e-05
3.952e-05
-1.86752e-05
3.95432e-05
-2.07582e-05
3.95669e-05
-2.2844e-05
3.95913e-05
-2.49328e-05
3.96162e-05
-2.70248e-05
3.96412e-05
-2.91202e-05
3.96659e-05
-3.12192e-05
3.96901e-05
-3.33219e-05
3.97133e-05
-3.54285e-05
3.97351e-05
-3.75392e-05
3.97548e-05
-3.96541e-05
3.9772e-05
-4.17734e-05
3.97859e-05
-4.3897e-05
3.97961e-05
-4.60251e-05
3.98015e-05
-4.81576e-05
3.98016e-05
-5.02946e-05
3.97953e-05
-5.2436e-05
3.97817e-05
-5.45817e-05
3.97598e-05
-5.67315e-05
3.97283e-05
-5.8885e-05
3.96861e-05
-6.1042e-05
3.96319e-05
-6.32021e-05
3.95641e-05
-6.53645e-05
3.94812e-05
-6.75288e-05
3.93816e-05
-6.96939e-05
3.92634e-05
-7.18589e-05
3.91247e-05
-7.40227e-05
3.89634e-05
-7.61837e-05
3.87772e-05
-7.83403e-05
3.85638e-05
-8.04906e-05
3.83204e-05
-8.26324e-05
3.80443e-05
-8.4763e-05
3.77325e-05
-8.68795e-05
3.73817e-05
-8.89785e-05