0 	-1.69486e-07
1.57135 	-0.000476677
3.1427 	-0.000708101
4.71405 	-0.00314719
6.28539 	-0.00772621
7.85674 	-0.0106888
9.42809 	-0.00954015
10.9994 	-0.00532773
12.5708 	0.0185887
14.1421 	0.0555828
