/*--------------------------------*- C++ -*----------------------------------*\
  =========                 |
  \\      /  F ield         | OpenFOAM: The Open Source CFD Toolbox
   \\    /   O peration     | Website:  https://openfoam.org
    \\  /    A nd           | Version:  8
     \\/     M anipulation  |
\*---------------------------------------------------------------------------*/
FoamFile
{
    version     2.0;
    format      ascii;
    class       volScalarField;
    location    "0.035";
    object      p;
}
// * * * * * * * * * * * * * * * * * * * * * * * * * * * * * * * * * * * * * //

dimensions      [0 2 -2 0 0 0 0];

internalField   nonuniform List<scalar> 
400
(
2.46647e-09
-0.005618
-0.0122671
-0.0169556
-0.0182153
-0.015651
-0.00936561
0.000175647
0.0122613
0.0260167
0.0404698
0.0545925
0.0673375
0.0777076
0.0848627
0.0882591
0.0878196
0.0841308
0.0786426
0.0739405
0.00371887
-0.00196296
-0.0071168
-0.0102873
-0.0107897
-0.00828411
-0.0028023
0.0053225
0.0155388
0.0271434
0.0393392
0.051276
0.0620905
0.0709721
0.0772552
0.0805277
0.0807583
0.0783787
0.0741238
0.069287
0.00810694
0.000849666
-0.00434634
-0.00707904
-0.00732076
-0.00486418
0.000237335
0.00768109
0.0169871
0.0275413
0.0386405
0.0495293
0.0594383
0.0676396
0.0735222
0.0766813
0.0770317
0.0748195
0.07013
0.0633986
0.0116524
0.00210461
-0.00403572
-0.00696811
-0.0072226
-0.00474665
0.000339372
0.00770248
0.016869
0.0272525
0.0381827
0.048937
0.0587711
0.066963
0.072874
0.0760288
0.0762365
0.0735699
0.0675984
0.0582589
0.0132797
0.00113584
-0.00630044
-0.00965993
-0.00996133
-0.00730892
-0.00191093
0.0058389
0.0154389
0.0262971
0.0377426
0.0490472
0.0594493
0.0681866
0.0745446
0.0779334
0.0780299
0.0747412
0.0671969
0.0550095
0.0119823
-0.00295767
-0.0118613
-0.0156963
-0.0159393
-0.0128516
-0.0067465
0.00189751
0.0125266
0.0245199
0.0371816
0.0497497
0.0614123
0.0713294
0.0786685
0.0826825
0.0828812
0.0789927
0.0697178
0.0544235
0.00689938
-0.0111073
-0.0215743
-0.0257993
-0.0257466
-0.0218517
-0.0145541
-0.00443904
0.00786841
0.021703
0.0363301
0.0509379
0.0646427
0.0764958
0.0855055
0.0907159
0.0914167
0.0871072
0.0759922
0.0571898
-0.00293289
-0.0243789
-0.0364449
-0.0408322
-0.0400933
-0.034883
-0.0257995
-0.0135568
0.00113671
0.0175665
0.0349593
0.0524542
0.0690886
0.0837843
0.0953499
0.102557
0.104395
0.100037
0.0870289
0.0641543
-0.0187595
-0.0441148
-0.0577312
-0.0618693
-0.059856
-0.052648
-0.0410492
-0.0259254
-0.00807088
0.0117601
0.0327743
0.0540829
0.0746581
0.0932876
0.108545
0.118854
0.12279
0.119037
0.104203
0.0765472
-0.0422838
-0.0720835
-0.0870338
-0.0902274
-0.086068
-0.0759436
-0.0609252
-0.0420513
-0.0201917
0.00388898
0.0294199
0.055534
0.081183
0.105044
0.125438
0.140364
0.14783
0.145791
0.129462
0.0962358
-0.0758966
-0.110669
-0.126392
-0.127473
-0.119863
-0.105567
-0.0859943
-0.0623669
-0.0355996
-0.00641023
0.0245278
0.0564565
0.0883962
0.118985
0.146319
0.167909
0.181024
0.182545
0.165596
0.126062
-0.123043
-0.163144
-0.178397
-0.175394
-0.162355
-0.142146
-0.116576
-0.0870382
-0.0544239
-0.0193092
0.0178464
0.0565288
0.095976
0.134934
0.171379
0.202341
0.224189
0.232282
0.216604
0.170366
-0.188913
-0.234102
-0.246299
-0.235874
-0.214382
-0.185823
-0.152422
-0.115653
-0.0762601
-0.0345256
0.00947011
0.0556458
0.103676
0.152662
0.2007
0.244494
0.279455
0.298928
0.288261
0.235929
-0.281892
-0.330152
-0.334016
-0.310538
-0.27601
-0.235742
-0.192228
-0.1468
-0.0998097
-0.0510196
9.17586e-05
0.0541156
0.111452
0.171919
0.23417
0.29501
0.349119
0.387487
0.388995
0.333832
-0.416622
-0.460963
-0.445777
-0.39988
-0.3456
-0.289237
-0.233021
-0.177627
-0.122587
-0.0668069
-0.00888872
0.0527014
0.119419
0.19227
0.271139
0.353793
0.435037
0.503842
0.531094
0.483091
-0.619539
-0.640298
-0.585042
-0.501818
-0.418564
-0.340975
-0.269681
-0.203668
-0.14094
-0.0790955
-0.0155552
0.0524062
0.12761
0.212765
0.309892
0.4192
0.537548
0.653805
0.731575
0.716274
-0.938998
-0.886079
-0.752571
-0.610513
-0.486831
-0.382945
-0.295353
-0.219507
-0.150816
-0.0850368
-0.0181585
0.0538846
0.135483
0.231516
0.347244
0.487497
0.654453
0.841228
1.01188
1.08877
-1.48509
-1.21921
-0.936489
-0.709357
-0.535167
-0.403066
-0.301438
-0.2195
-0.148822
-0.0829566
-0.0164786
0.0558721
0.139964
0.243071
0.374767
0.547245
0.772675
1.05791
1.39877
1.72073
-2.55363
-1.64775
-1.06522
-0.734118
-0.519055
-0.373098
-0.271175
-0.194514
-0.130862
-0.0723298
-0.0130165
0.0525479
0.13071
0.230192
0.364514
0.55479
0.829731
1.23653
1.90829
2.91671
-4.38374
-2.06494
-0.998402
-0.591677
-0.387459
-0.267893
-0.193308
-0.140451
-0.0965965
-0.0549947
-0.0112863
0.0384285
0.0988751
0.177404
0.287463
0.454791
0.727288
1.23049
2.41138
4.84479
)
;

boundaryField
{
    movingWall
    {
        type            zeroGradient;
    }
    fixedWalls
    {
        type            zeroGradient;
    }
    frontAndBack
    {
        type            empty;
    }
}


// ************************************************************************* //
