/*--------------------------------*- C++ -*----------------------------------*\
  =========                 |
  \\      /  F ield         | OpenFOAM: The Open Source CFD Toolbox
   \\    /   O peration     | Website:  https://openfoam.org
    \\  /    A nd           | Version:  8
     \\/     M anipulation  |
\*---------------------------------------------------------------------------*/
FoamFile
{
    version     2.0;
    format      ascii;
    class       surfaceScalarField;
    location    "0.035";
    object      phi;
}
// * * * * * * * * * * * * * * * * * * * * * * * * * * * * * * * * * * * * * //

dimensions      [0 3 -1 0 0 0 0];

internalField   nonuniform List<scalar> 
760
(
9.63826e-09
-9.63798e-09
-2.27598e-08
3.23982e-08
-1.00648e-07
7.78881e-08
-2.07938e-07
1.0729e-07
-3.28209e-07
1.20271e-07
-4.46785e-07
1.18576e-07
-5.51678e-07
1.04893e-07
-6.33722e-07
8.20436e-08
-6.86415e-07
5.26936e-08
-7.05713e-07
1.92978e-08
-6.89889e-07
-1.58236e-08
-6.39627e-07
-5.0262e-08
-5.58289e-07
-8.13386e-08
-4.52259e-07
-1.0603e-07
-3.31235e-07
-1.21024e-07
-2.08257e-07
-1.22978e-07
-9.91748e-08
-1.09082e-07
-2.12269e-08
-7.7948e-08
1.07538e-08
-3.19809e-08
1.07535e-08
-3.22598e-08
2.26215e-08
-1.55573e-07
1.55711e-07
-3.62714e-07
2.8503e-07
-6.26872e-07
3.71448e-07
-9.15382e-07
4.0878e-07
-1.19716e-06
4.00357e-07
-1.44555e-06
3.53278e-07
-1.63946e-06
2.75954e-07
-1.76361e-06
1.76843e-07
-1.80842e-06
6.41049e-08
-1.76998e-06
-5.42569e-08
-1.65029e-06
-1.69957e-07
-1.4576e-06
-2.74027e-07
-1.20696e-06
-3.56673e-07
-9.20409e-07
-4.0757e-07
-6.26536e-07
-4.16851e-07
-3.58564e-07
-3.77054e-07
-1.50408e-07
-2.86105e-07
-2.92115e-08
-1.53178e-07
-1.84577e-08
-7.78532e-08
1.00475e-07
-2.95453e-07
3.7331e-07
-6.23344e-07
6.12921e-07
-1.02157e-06
7.69671e-07
-1.4462e-06
8.33416e-07
-1.85561e-06
8.0976e-07
-2.21384e-06
7.11517e-07
-2.49229e-06
5.54394e-07
-2.67007e-06
3.5463e-07
-2.73413e-06
1.28159e-07
-2.67915e-06
-1.0923e-07
-2.5079e-06
-3.41212e-07
-2.23166e-06
-5.50261e-07
-1.87089e-06
-7.17452e-07
-1.45534e-06
-8.23113e-07
-1.02342e-06
-8.48774e-07
-6.19679e-07
-7.80796e-07
-2.90173e-07
-6.15611e-07
-7.51496e-08
-3.68201e-07
-9.36068e-08
-1.19082e-07
2.19557e-07
-4.2676e-07
6.80988e-07
-8.70531e-07
1.05669e-06
-1.39428e-06
1.29342e-06
-1.94241e-06
1.38154e-06
-2.46431e-06
1.33166e-06
-2.91724e-06
1.16445e-06
-3.26757e-06
9.04718e-07
-3.4909e-06
5.77967e-07
-3.57196e-06
2.09219e-07
-3.50444e-06
-1.76757e-07
-3.29126e-06
-5.54394e-07
-2.94525e-06
-8.96263e-07
-2.49002e-06
-1.17269e-06
-1.96042e-06
-1.35271e-06
-1.4022e-06
-1.40699e-06
-8.69815e-07
-1.31318e-06
-4.2211e-07
-1.06332e-06
-1.1597e-07
-6.74341e-07
-2.09577e-07
-1.5703e-07
3.76588e-07
-5.53283e-07
1.07724e-06
-1.11272e-06
1.61613e-06
-1.76112e-06
1.94182e-06
-2.42991e-06
2.05033e-06
-3.05966e-06
1.96141e-06
-3.6019e-06
1.70669e-06
-4.01941e-06
1.32222e-06
-4.28564e-06
8.44196e-07
-4.38396e-06
3.0754e-07
-4.3072e-06
-2.53513e-07
-4.05787e-06
-8.0373e-07
-3.64903e-06
-1.3051e-06
-3.10572e-06
-1.716e-06
-2.46627e-06
-1.99215e-06
-1.78284e-06
-2.09043e-06
-1.12011e-06
-1.97591e-06
-5.51697e-07
-1.63172e-06
-1.54174e-07
-1.07186e-06
-3.63751e-07
-1.95375e-07
5.71963e-07
-6.83408e-07
1.56527e-06
-1.36355e-06
2.29628e-06
-2.1413e-06
2.71957e-06
-2.93367e-06
2.8427e-06
-3.67211e-06
2.69985e-06
-4.30306e-06
2.33765e-06
-4.78692e-06
1.80608e-06
-5.09613e-06
1.15341e-06
-5.21348e-06
4.24886e-07
-5.13099e-06
-3.36e-07
-4.85005e-06
-1.08467e-06
-4.38264e-06
-1.77252e-06
-3.75357e-06
-2.34507e-06
-3.00316e-06
-2.74257e-06
-2.1893e-06
-2.90429e-06
-1.38774e-06
-2.77747e-06
-6.89395e-07
-2.33007e-06
-1.9398e-07
-1.56728e-06
-5.5773e-07
-2.37554e-07
8.09517e-07
-8.26046e-07
2.15377e-06
-1.637e-06
3.10723e-06
-2.55267e-06
3.63523e-06
-3.47406e-06
3.76409e-06
-4.32344e-06
3.54923e-06
-5.04323e-06
3.05744e-06
-5.59299e-06
2.35584e-06
-5.94564e-06
1.50606e-06
-6.08429e-06
5.63539e-07
-6.00034e-06
-4.19948e-07
-5.69328e-06
-1.39173e-06
-5.17238e-06
-2.29342e-06
-4.46009e-06
-3.05735e-06
-3.59662e-06
-3.60604e-06
-2.64438e-06
-3.85653e-06
-1.69069e-06
-3.73116e-06
-8.46541e-07
-3.17421e-06
-2.39669e-07
-2.17415e-06
-7.97398e-07
-2.86781e-07
1.0963e-06
-9.89534e-07
2.85652e-06
-1.94529e-06
4.06299e-06
-3.00878e-06
4.69873e-06
-4.06349e-06
4.8188e-06
-5.02322e-06
4.50896e-06
-5.82847e-06
3.86269e-06
-6.44043e-06
2.9678e-06
-6.83476e-06
1.90038e-06
-6.99637e-06
7.25149e-07
-6.91641e-06
-4.99905e-07
-6.59165e-06
-1.71649e-06
-6.02659e-06
-2.85848e-06
-5.23832e-06
-3.84562e-06
-4.26354e-06
-4.58081e-06
-3.16651e-06
-4.95357e-06
-2.04545e-06
-4.85221e-06
-1.03428e-06
-4.18538e-06
-2.9549e-07
-2.91295e-06
-1.09289e-06
-3.46175e-07
1.44247e-06
-1.18131e-06
3.69165e-06
-2.29755e-06
5.17922e-06
-3.51636e-06
5.91754e-06
-4.70266e-06
6.00511e-06
-5.76403e-06
5.57032e-06
-6.64278e-06
4.74144e-06
-7.30581e-06
3.63082e-06
-7.73484e-06
2.32942e-06
-7.91891e-06
9.09213e-07
-7.84973e-06
-5.69078e-07
-7.52057e-06
-2.04566e-06
-6.92863e-06
-3.45042e-06
-6.08146e-06
-4.69279e-06
-5.007e-06
-5.65528e-06
-3.76619e-06
-6.19438e-06
-2.46535e-06
-6.15306e-06
-1.26322e-06
-5.38751e-06
-3.6583e-07
-3.81034e-06
-1.45872e-06
-4.19171e-07
1.86164e-06
-1.40815e-06
4.68064e-06
-2.69882e-06
6.46989e-06
-4.07239e-06
7.29111e-06
-5.3757e-06
7.30842e-06
-6.51487e-06
6.70949e-06
-7.44036e-06
5.66693e-06
-8.13077e-06
4.32123e-06
-8.57874e-06
2.77738e-06
-8.78059e-06
1.11106e-06
-8.73009e-06
-6.19579e-07
-8.41643e-06
-2.35932e-06
-7.82674e-06
-4.04011e-06
-6.9537e-06
-5.56582e-06
-5.80889e-06
-6.80009e-06
-4.4413e-06
-7.56196e-06
-2.95844e-06
-7.63592e-06
-1.54329e-06
-6.80267e-06
-4.55633e-07
-4.89799e-06
-1.91435e-06
-5.10329e-07
2.37197e-06
-1.67676e-06
5.84707e-06
-3.14871e-06
7.94184e-06
-4.65995e-06
8.80235e-06
-6.0432e-06
8.69168e-06
-7.21219e-06
7.87848e-06
-8.13529e-06
6.59004e-06
-8.81111e-06
4.99705e-06
-9.24932e-06
3.2156e-06
-9.45763e-06
1.31937e-06
-9.43395e-06
-6.43266e-07
-9.16346e-06
-2.6298e-06
-8.62067e-06
-4.5829e-06
-7.77746e-06
-6.40903e-06
-6.61912e-06
-7.95844e-06
-5.16949e-06
-9.01159e-06
-3.52402e-06
-9.28138e-06
-1.88352e-06
-8.44317e-06
-5.71141e-07
-6.21037e-06
-2.48549e-06
-6.26843e-07
2.99882e-06
-1.99455e-06
7.21478e-06
-3.63868e-06
9.58597e-06
-5.24111e-06
1.04048e-05
-6.63169e-06
1.00822e-05
-7.74737e-06
8.99416e-06
-8.58845e-06
7.43112e-06
-9.18378e-06
5.59238e-06
-9.5669e-06
3.59872e-06
-9.76111e-06
1.51358e-06
-9.77105e-06
-6.33327e-07
-9.57897e-06
-2.82188e-06
-9.14549e-06
-5.01639e-06
-8.41649e-06
-7.13802e-06
-7.33982e-06
-9.03511e-06
-5.89607e-06
-1.04553e-05
-4.14621e-06
-1.10312e-05
-2.29112e-06
-1.02983e-05
-7.21179e-07
-7.78031e-06
-3.20667e-06
-7.81209e-07
3.78003e-06
-2.36994e-06
8.80351e-06
-4.14567e-06
1.13617e-05
-5.74406e-06
1.20032e-05
-7.01686e-06
1.13551e-05
-7.94928e-06
9.92658e-06
-8.59151e-06
8.07335e-06
-9.01334e-06
6.01421e-06
-9.27762e-06
3.863e-06
-9.42627e-06
1.66223e-06
-9.47305e-06
-5.86549e-07
-9.39966e-06
-2.89526e-06
-9.1544e-06
-5.26165e-06
-8.65528e-06
-7.63714e-06
-7.80331e-06
-9.88708e-06
-6.51458e-06
-1.17441e-05
-4.78169e-06
-1.27641e-05
-2.76848e-06
-1.23115e-05
-9.19215e-07
-9.62958e-06
-4.12589e-06
-9.95414e-07
4.77544e-06
-2.80939e-06
1.06175e-05
-4.61629e-06
1.31686e-05
-6.03795e-06
1.34248e-05
-6.99607e-06
1.23132e-05
-7.55982e-06
1.04903e-05
-7.84856e-06
8.36209e-06
-7.97992e-06
6.14557e-06
-8.0467e-06
3.92978e-06
-8.10862e-06
1.72415e-06
-8.18939e-06
-5.05781e-07
-8.27398e-06
-2.81067e-06
-8.30452e-06
-5.23111e-06
-8.17656e-06
-7.7651e-06
-7.74243e-06
-1.03212e-05
-6.8353e-06
-1.26512e-05
-5.33573e-06
-1.42637e-05
-3.30424e-06
-1.4343e-05
-1.18594e-06
-1.17479e-05
-5.31183e-06
-1.30466e-06
6.0801e-06
-3.30129e-06
1.26141e-05
-4.92728e-06
1.47946e-05
-5.88339e-06
1.43809e-05
-6.24273e-06
1.26725e-05
-6.20055e-06
1.04481e-05
-5.9571e-06
8.11864e-06
-5.67332e-06
5.86179e-06
-5.46225e-06
3.71871e-06
-5.39337e-06
1.65527e-06
-5.49774e-06
-4.01417e-07
-5.7682e-06
-2.54021e-06
-6.15275e-06
-4.84656e-06
-6.54156e-06
-7.37629e-06
-6.75306e-06
-1.01097e-05
-6.53496e-06
-1.28693e-05
-5.61371e-06
-1.5185e-05
-3.84637e-06
-1.61103e-05
-1.54833e-06
-1.40459e-05
-6.86016e-06
-1.74678e-06
7.82688e-06
-3.75445e-06
1.46218e-05
-4.78906e-06
1.58292e-05
-4.83644e-06
1.44283e-05
-4.23408e-06
1.20702e-05
-3.33112e-06
9.54519e-06
-2.39445e-06
7.18197e-06
-1.60086e-06
5.0682e-06
-1.05781e-06
3.17566e-06
-8.26636e-07
1.42409e-06
-9.37973e-07
-2.9008e-07
-1.39642e-06
-2.08177e-06
-2.17291e-06
-4.07007e-06
-3.18326e-06
-6.36594e-06
-4.25301e-06
-9.03997e-06
-5.07906e-06
-1.20432e-05
-5.22396e-06
-1.50401e-05
-4.22528e-06
-1.7109e-05
-2.01731e-06
-1.62539e-05
-8.87747e-06
-2.29369e-06
1.01206e-05
-3.80976e-06
1.61378e-05
-3.52675e-06
1.55462e-05
-2.07592e-06
1.29775e-05
-1.48968e-07
1.01432e-05
1.79005e-06
7.60617e-06
3.47653e-06
5.4955e-06
4.77843e-06
3.7663e-06
5.63666e-06
2.31742e-06
6.02418e-06
1.03657e-06
5.92308e-06
-1.88985e-07
5.31626e-06
-1.47494e-06
4.19284e-06
-2.94665e-06
2.57159e-06
-4.74469e-06
5.50256e-07
-7.01863e-06
-1.61242e-06
-9.88056e-06
-3.39519e-06
-1.32573e-05
-3.96338e-06
-1.65408e-05
-2.49864e-06
-1.77186e-05
-1.13761e-05
-2.61215e-06
1.27327e-05
-2.33844e-06
1.58641e-05
3.72006e-07
1.28357e-05
3.87117e-06
9.47833e-06
7.24373e-06
6.77064e-06
1.01101e-05
4.73983e-06
1.23541e-05
3.25148e-06
1.39746e-05
2.14579e-06
1.5006e-05
1.28604e-06
1.54779e-05
5.64665e-07
1.53964e-05
-1.07466e-07
1.47361e-05
-8.14706e-07
1.34408e-05
-1.65128e-06
1.1435e-05
-2.73888e-06
8.66291e-06
-4.24658e-06
5.18104e-06
-6.39868e-06
1.34778e-06
-9.42403e-06
-1.84549e-06
-1.33475e-05
-2.5427e-06
-1.70214e-05
-1.39188e-05
-7.91722e-07
1.35244e-05
4.01387e-06
1.10585e-05
1.01056e-05
6.744e-06
1.54197e-05
4.16425e-06
1.9565e-05
2.62535e-06
2.26344e-05
1.67045e-06
2.48204e-05
1.06543e-06
2.63003e-05
6.6593e-07
2.7204e-05
3.82268e-07
2.761e-05
1.58683e-07
2.75459e-05
-4.33873e-08
2.69879e-05
-2.56649e-07
2.58554e-05
-5.1884e-07
2.40019e-05
-8.85341e-07
2.12068e-05
-1.45143e-06
1.71969e-05
-2.38885e-06
1.17783e-05
-4.00537e-06
5.28137e-06
-6.85063e-06
-1.84438e-07
-1.15556e-05
-1.41033e-05
1.35244e-05
2.4583e-05
3.1327e-05
3.54912e-05
3.81166e-05
3.9787e-05
4.08525e-05
4.15184e-05
4.19007e-05
4.20593e-05
4.2016e-05
4.17593e-05
4.12405e-05
4.03551e-05
3.89037e-05
3.65148e-05
3.25095e-05
2.56588e-05
1.41033e-05
)
;

boundaryField
{
    movingWall
    {
        type            calculated;
        value           uniform 0;
    }
    fixedWalls
    {
        type            calculated;
        value           uniform 0;
    }
    frontAndBack
    {
        type            empty;
        value           nonuniform List<scalar> 0();
    }
}


// ************************************************************************* //
