/*--------------------------------*- C++ -*----------------------------------*\
  =========                 |
  \\      /  F ield         | OpenFOAM: The Open Source CFD Toolbox
   \\    /   O peration     | Website:  https://openfoam.org
    \\  /    A nd           | Version:  8
     \\/     M anipulation  |
\*---------------------------------------------------------------------------*/
FoamFile
{
    version     2.0;
    format      ascii;
    class       volVectorField;
    location    "0.035";
    object      U;
}
// * * * * * * * * * * * * * * * * * * * * * * * * * * * * * * * * * * * * * //

dimensions      [0 1 -1 0 0 0 0];

internalField   nonuniform List<vector> 
400
(
(0.000165116 -0.000210151 0)
(4.41059e-05 0.000100041 0)
(-0.00109977 0.000491599 0)
(-0.00299833 0.000740054 0)
(-0.00533924 0.000851856 0)
(-0.00778404 0.000847786 0)
(-0.0100642 0.000752789 0)
(-0.0119675 0.000589975 0)
(-0.0133378 0.000380084 0)
(-0.0140704 0.000141194 0)
(-0.014107 -0.000110503 0)
(-0.0134366 -0.000358266 0)
(-0.012099 -0.000582809 0)
(-0.0101908 -0.000761428 0)
(-0.00787242 -0.000868127 0)
(-0.00537292 -0.000875216 0)
(-0.00298625 -0.000757324 0)
(-0.00105251 -0.00049846 0)
(7.6282e-05 -0.000117429 0)
(0.00020096 0.000196488 0)
(-0.000130594 -5.58538e-05 0)
(-0.00146963 0.00142986 0)
(-0.00484163 0.0030258 0)
(-0.00970885 0.00409326 0)
(-0.0153873 0.00456776 0)
(-0.021226 0.00450008 0)
(-0.0266398 0.00398195 0)
(-0.0311478 0.00311581 0)
(-0.0343868 0.00200089 0)
(-0.036108 0.000730703 0)
(-0.0361757 -0.000604597 0)
(-0.0345699 -0.00191164 0)
(-0.0313913 -0.00308805 0)
(-0.0268713 -0.00402007 0)
(-0.0213812 -0.00458532 0)
(-0.0154329 -0.00466355 0)
(-0.00965498 -0.00415929 0)
(-0.00473288 -0.00303841 0)
(-0.00136371 -0.00141673 0)
(-7.78694e-05 0.000103549 0)
(-0.000473751 0.00103753 0)
(-0.00312438 0.00484502 0)
(-0.00871782 0.00838116 0)
(-0.016217 0.0107426 0)
(-0.0246584 0.0117473 0)
(-0.0331862 0.0114743 0)
(-0.041019 0.0101128 0)
(-0.0475048 0.00789436 0)
(-0.0521483 0.00505646 0)
(-0.0546107 0.00183077 0)
(-0.0547073 -0.001554 0)
(-0.052411 -0.00486107 0)
(-0.0478598 -0.00783543 0)
(-0.0413689 -0.0102007 0)
(-0.0334413 -0.0116686 0)
(-0.0247669 -0.0119676 0)
(-0.0161849 -0.0108978 0)
(-0.00860716 -0.00841295 0)
(-0.00302672 -0.00476859 0)
(-0.000436966 -0.000939635 0)
(-0.000780092 0.00303541 0)
(-0.00466357 0.010129 0)
(-0.0123939 0.0161432 0)
(-0.0223938 0.0200263 0)
(-0.0333805 0.0215564 0)
(-0.0443081 0.0208776 0)
(-0.0542432 0.0183115 0)
(-0.0624168 0.0142533 0)
(-0.0682492 0.00911285 0)
(-0.0713451 0.00329415 0)
(-0.0714883 -0.00280156 0)
(-0.0686428 -0.00875955 0)
(-0.0629626 -0.0141355 0)
(-0.0548079 -0.0184506 0)
(-0.0447631 -0.0212084 0)
(-0.0336415 -0.0219437 0)
(-0.0224506 -0.0203126 0)
(-0.012315 -0.0162182 0)
(-0.00456542 -0.0100007 0)
(-0.000740911 -0.00286124 0)
(-0.00105153 0.00579617 0)
(-0.00611749 0.017166 0)
(-0.0159745 0.0261693 0)
(-0.0284709 0.0317445 0)
(-0.0419671 0.0337304 0)
(-0.0552158 0.0324076 0)
(-0.0671459 0.0282811 0)
(-0.0768989 0.0219474 0)
(-0.0838405 0.0140163 0)
(-0.0875431 0.00508414 0)
(-0.0877698 -0.00426026 0)
(-0.0844709 -0.0134095 0)
(-0.0777964 -0.0217114 0)
(-0.0681202 -0.0284584 0)
(-0.0560717 -0.0329086 0)
(-0.042559 -0.0343539 0)
(-0.0287485 -0.0322437 0)
(-0.0160014 -0.0263554 0)
(-0.00604241 -0.0170221 0)
(-0.00101014 -0.00556017 0)
(-0.00132068 0.00930972 0)
(-0.00760093 0.0259812 0)
(-0.0196754 0.0385292 0)
(-0.0347747 0.0459732 0)
(-0.0508608 0.0483196 0)
(-0.0664662 0.0460789 0)
(-0.080388 0.0400109 0)
(-0.0916997 0.0309614 0)
(-0.0997381 0.019768 0)
(-0.104064 0.00723102 0)
(-0.104428 -0.00586976 0)
(-0.100761 -0.0187331 0)
(-0.0931885 -0.0304918 0)
(-0.0820652 -0.0401883 0)
(-0.0680311 -0.0467939 0)
(-0.0520647 -0.0492908 0)
(-0.0354902 -0.0468317 0)
(-0.0199386 -0.0389623 0)
(-0.00759799 -0.0259041 0)
(-0.00128364 -0.00902403 0)
(-0.00161816 0.0136165 0)
(-0.00923351 0.0366958 0)
(-0.0237281 0.0533843 0)
(-0.0416299 0.0628633 0)
(-0.0604496 0.0654328 0)
(-0.0784852 0.0619511 0)
(-0.0944155 0.0535242 0)
(-0.107275 0.0413059 0)
(-0.116403 0.0263891 0)
(-0.121376 0.00978185 0)
(-0.121945 -0.00755602 0)
(-0.118014 -0.0246439 0)
(-0.109658 -0.0404058 0)
(-0.0971751 -0.0536207 0)
(-0.0811692 -0.0629272 0)
(-0.0626516 -0.0669136 0)
(-0.0430926 -0.0643142 0)
(-0.0244233 -0.0542997 0)
(-0.00938373 -0.0368498 0)
(-0.00159995 -0.0133272 0)
(-0.001973 0.018826 0)
(-0.01113 0.0495382 0)
(-0.0283462 0.0709833 0)
(-0.0493067 0.0826131 0)
(-0.0710035 0.0851857 0)
(-0.0914986 0.0800618 0)
(-0.109386 0.0688089 0)
(-0.123709 0.0529569 0)
(-0.133864 0.0338786 0)
(-0.139478 0.0127816 0)
(-0.140323 -0.00922349 0)
(-0.136273 -0.0310119 0)
(-0.127325 -0.0513253 0)
(-0.113664 -0.0686792 0)
(-0.0957923 -0.0813357 0)
(-0.0746866 -0.0873882 0)
(-0.0519221 -0.0849929 0)
(-0.0297434 -0.0727471 0)
(-0.0115526 -0.0502019 0)
(-0.00199767 -0.0186299 0)
(-0.00241548 0.0251107 0)
(-0.0134009 0.0648327 0)
(-0.0337116 0.0916361 0)
(-0.0579832 0.105418 0)
(-0.0826111 0.107631 0)
(-0.105445 0.100346 0)
(-0.125062 0.0857375 0)
(-0.1406 0.0657869 0)
(-0.151585 0.0421641 0)
(-0.157759 0.0162491 0)
(-0.158942 -0.0107505 0)
(-0.154983 -0.0376298 0)
(-0.145764 -0.0630034 0)
(-0.131292 -0.085148 0)
(-0.111868 -0.101919 0)
(-0.088323 -0.110802 0)
(-0.0622429 -0.109172 0)
(-0.0361602 -0.0947732 0)
(-0.0142609 -0.0664375 0)
(-0.00251922 -0.0251786 0)
(-0.00298328 0.0327075 0)
(-0.0161636 0.0829823 0)
(-0.0399706 0.11566 0)
(-0.0677077 0.131381 0)
(-0.0951008 0.132644 0)
(-0.11986 0.122517 0)
(-0.14067 0.103956 0)
(-0.15689 0.0794733 0)
(-0.168293 0.051036 0)
(-0.174809 0.0201422 0)
(-0.176361 -0.0119896 0)
(-0.172777 -0.0441748 0)
(-0.163797 -0.0749968 0)
(-0.149168 -0.102559 0)
(-0.128856 -0.124311 0)
(-0.103376 -0.137025 0)
(-0.074149 -0.137044 0)
(-0.043891 -0.120868 0)
(-0.0176786 -0.08615 0)
(-0.00321805 -0.0333118 0)
(-0.00373312 0.0419306 0)
(-0.0195643 0.104448 0)
(-0.0472322 0.143298 0)
(-0.078345 0.160375 0)
(-0.107927 0.159763 0)
(-0.133712 0.145903 0)
(-0.154698 0.122742 0)
(-0.170656 0.0933868 0)
(-0.181743 0.0600677 0)
(-0.188187 0.0243113 0)
(-0.19007 -0.0127777 0)
(-0.187226 -0.0501778 0)
(-0.179227 -0.0865874 0)
(-0.165481 -0.120062 0)
(-0.145463 -0.147705 0)
(-0.119132 -0.165507 0)
(-0.0874533 -0.168506 0)
(-0.0530795 -0.151425 0)
(-0.0220052 -0.110019 0)
(-0.00417173 -0.0434788 0)
(-0.00476396 0.0532083 0)
(-0.0238146 0.129723 0)
(-0.0555569 0.17458 0)
(-0.0894772 0.191837 0)
(-0.119988 0.187958 0)
(-0.145166 0.169247 0)
(-0.164642 0.140845 0)
(-0.17884 0.10647 0)
(-0.188475 0.0685319 0)
(-0.194172 0.0284467 0)
(-0.19624 -0.0129581 0)
(-0.194554 -0.0550071 0)
(-0.188526 -0.0967126 0)
(-0.177167 -0.136284 0)
(-0.159308 -0.170637 0)
(-0.134059 -0.195008 0)
(-0.101495 -0.202882 0)
(-0.0637289 -0.186547 0)
(-0.0274929 -0.138756 0)
(-0.00550583 -0.0562795 0)
(-0.00625991 0.0671644 0)
(-0.0292467 0.159283 0)
(-0.064904 0.209105 0)
(-0.100201 0.224457 0)
(-0.129311 0.215338 0)
(-0.151224 0.190468 0)
(-0.166654 0.15632 0)
(-0.176959 0.117138 0)
(-0.183556 0.0753372 0)
(-0.187543 0.0320328 0)
(-0.189502 -0.0124168 0)
(-0.189399 -0.0578859 0)
(-0.186531 -0.103939 0)
(-0.179526 -0.14922 0)
(-0.16648 -0.190759 0)
(-0.145366 -0.223244 0)
(-0.114802 -0.238511 0)
(-0.0755518 -0.225697 0)
(-0.0344685 -0.172983 0)
(-0.00743532 -0.0725414 0)
(-0.00856267 0.0847698 0)
(-0.0363675 0.193463 0)
(-0.0749435 0.245629 0)
(-0.10869 0.255702 0)
(-0.132496 0.238764 0)
(-0.147191 0.20643 0)
(-0.155118 0.16643 0)
(-0.158801 0.123254 0)
(-0.160409 0.079029 0)
(-0.161491 0.0343338 0)
(-0.16289 -0.0111311 0)
(-0.16471 -0.0579708 0)
(-0.166238 -0.106533 0)
(-0.165859 -0.156237 0)
(-0.161005 -0.204682 0)
(-0.148361 -0.246511 0)
(-0.124489 -0.27217 0)
(-0.0876218 -0.267129 0)
(-0.0433116 -0.212968 0)
(-0.0103252 -0.0934447 0)
(-0.0122532 0.10757 0)
(-0.0457877 0.232098 0)
(-0.0844653 0.281333 0)
(-0.111231 0.281162 0)
(-0.123711 0.253478 0)
(-0.125858 0.21285 0)
(-0.12212 0.167735 0)
(-0.116192 0.122291 0)
(-0.110808 0.077935 0)
(-0.107768 0.0344585 0)
(-0.108062 -0.00921899 0)
(-0.111938 -0.0545179 0)
(-0.118852 -0.102713 0)
(-0.127251 -0.154307 0)
(-0.134273 -0.208059 0)
(-0.135526 -0.259433 0)
(-0.125185 -0.298399 0)
(-0.097546 -0.306952 0)
(-0.0542052 -0.25801 0)
(-0.0147213 -0.120657 0)
(-0.0180581 0.13805 0)
(-0.0575184 0.273588 0)
(-0.0896639 0.310499 0)
(-0.100154 0.29371 0)
(-0.0929476 0.252918 0)
(-0.0763749 0.204574 0)
(-0.0569314 0.156582 0)
(-0.0389697 0.111842 0)
(-0.0252135 0.0705595 0)
(-0.017259 0.031574 0)
(-0.0159759 -0.00694735 0)
(-0.0217188 -0.0471319 0)
(-0.034307 -0.0911164 0)
(-0.0527363 -0.140627 0)
(-0.074608 -0.196131 0)
(-0.0953171 -0.255105 0)
(-0.107151 -0.308862 0)
(-0.0995347 -0.337701 0)
(-0.0660713 -0.305166 0)
(-0.0210979 -0.156518 0)
(-0.0258573 0.18052 0)
(-0.0682009 0.312588 0)
(-0.0797037 0.321925 0)
(-0.0596861 0.282382 0)
(-0.0232616 0.228934 0)
(0.0170859 0.176476 0)
(0.0542341 0.130157 0)
(0.084542 0.0905318 0)
(0.106331 0.056253 0)
(0.118886 0.0252835 0)
(0.121829 -0.00467146 0)
(0.114821 -0.0360619 0)
(0.0975242 -0.0714966 0)
(0.0698605 -0.113672 0)
(0.0327005 -0.164944 0)
(-0.0108272 -0.225912 0)
(-0.0532407 -0.291926 0)
(-0.080323 -0.346148 0)
(-0.0733745 -0.346663 0)
(-0.028489 -0.20458 0)
(-0.0298384 0.239037 0)
(-0.0624123 0.333426 0)
(-0.0266272 0.29545 0)
(0.0413419 0.232705 0)
(0.112828 0.174013 0)
(0.176198 0.126006 0)
(0.227533 0.0886152 0)
(0.266105 0.0595491 0)
(0.292478 0.0361869 0)
(0.307424 0.0161449 0)
(0.311364 -0.00273444 0)
(0.304125 -0.0225756 0)
(0.284866 -0.0457277 0)
(0.252166 -0.0750439 0)
(0.204469 -0.114062 0)
(0.141285 -0.166591 0)
(0.0655263 -0.234471 0)
(-0.0113527 -0.311287 0)
(-0.0578386 -0.363088 0)
(-0.0290106 -0.265643 0)
(0.00815078 0.282196 0)
(0.0193197 0.29447 0)
(0.136753 0.209225 0)
(0.259029 0.14062 0)
(0.354828 0.0936297 0)
(0.426207 0.062019 0)
(0.477997 0.040743 0)
(0.514056 0.0260277 0)
(0.537464 0.0152338 0)
(0.550331 0.00655589 0)
(0.55373 -0.0013471 0)
(0.547712 -0.00967222 0)
(0.531258 -0.0197735 0)
(0.502115 -0.0335477 0)
(0.456641 -0.0539926 0)
(0.389833 -0.0859071 0)
(0.295093 -0.136361 0)
(0.167737 -0.213477 0)
(0.039052 -0.309716 0)
(0.0181111 -0.299501 0)
(0.299797 0.146297 0)
(0.396581 0.12758 0)
(0.5572 0.07589 0)
(0.673053 0.0432694 0)
(0.740706 0.0249619 0)
(0.781975 0.01459 0)
(0.808346 0.00861748 0)
(0.825119 0.00504412 0)
(0.835281 0.00273527 0)
(0.840529 0.00104974 0)
(0.841651 -0.00040805 0)
(0.838752 -0.00195 0)
(0.831254 -0.00392893 0)
(0.817693 -0.00690745 0)
(0.795226 -0.0119513 0)
(0.758527 -0.0211732 0)
(0.695791 -0.0387144 0)
(0.582276 -0.0721884 0)
(0.415414 -0.127603 0)
(0.308862 -0.149501 0)
)
;

boundaryField
{
    movingWall
    {
        type            fixedValue;
        value           uniform (1 0 0);
    }
    fixedWalls
    {
        type            noSlip;
    }
    frontAndBack
    {
        type            empty;
    }
}


// ************************************************************************* //
