/*--------------------------------*- C++ -*----------------------------------*\
  =========                 |
  \\      /  F ield         | OpenFOAM: The Open Source CFD Toolbox
   \\    /   O peration     | Website:  https://openfoam.org
    \\  /    A nd           | Version:  8
     \\/     M anipulation  |
\*---------------------------------------------------------------------------*/
FoamFile
{
    version     2.0;
    format      ascii;
    class       surfaceScalarField;
    location    "1.35";
    object      phi;
}
// * * * * * * * * * * * * * * * * * * * * * * * * * * * * * * * * * * * * * //

dimensions      [0 3 -1 0 0 0 0];

internalField   nonuniform List<scalar> 
760
(
1.24945e-06
-5.13476e-18
1.24945e-06
-7.14811e-18
1.24945e-06
-8.09783e-18
1.24945e-06
-8.24456e-18
1.24945e-06
-7.84075e-18
1.24945e-06
-7.00149e-18
1.24945e-06
-5.62252e-18
1.24945e-06
-3.81643e-18
1.24945e-06
-1.48339e-18
1.24945e-06
1.05013e-18
1.24945e-06
3.58193e-18
1.24945e-06
5.87621e-18
1.24945e-06
7.60998e-18
1.24945e-06
8.77003e-18
1.24945e-06
9.00617e-18
1.24945e-06
8.47995e-18
1.24945e-06
6.84037e-18
1.24945e-06
4.40327e-18
1.24945e-06
1.04854e-18
-2.30502e-18
3.74837e-06
-2.4089e-17
3.74837e-06
-3.13066e-17
3.74837e-06
-3.49936e-17
3.74837e-06
-3.49618e-17
3.74837e-06
-3.22723e-17
3.74837e-06
-2.68654e-17
3.74837e-06
-1.95388e-17
3.74837e-06
-1.02129e-17
3.74837e-06
5.69055e-20
3.74837e-06
1.06405e-17
3.74837e-06
2.03981e-17
3.74837e-06
2.83356e-17
3.74837e-06
3.38311e-17
3.74837e-06
3.59862e-17
3.74837e-06
3.49696e-17
3.74837e-06
3.01838e-17
3.74837e-06
2.24288e-17
3.74837e-06
1.15815e-17
3.74837e-06
-8.27733e-19
-1.33734e-17
6.24733e-06
-5.88227e-17
6.24733e-06
-7.41807e-17
6.24733e-06
-8.10281e-17
6.24733e-06
-8.01206e-17
6.24733e-06
-7.1642e-17
6.24733e-06
-5.73741e-17
6.24733e-06
-3.7808e-17
6.24733e-06
-1.50932e-17
6.24733e-06
9.43425e-18
6.24733e-06
3.31633e-17
6.24733e-06
5.40502e-17
6.24733e-06
7.00328e-17
6.24733e-06
7.929e-17
6.24733e-06
8.12781e-17
6.24733e-06
7.51012e-17
6.24733e-06
6.18585e-17
6.24733e-06
4.17511e-17
6.24733e-06
1.71168e-17
6.24733e-06
-1.02964e-17
-3.67392e-17
8.74635e-06
-1.05881e-16
8.74635e-06
-1.29726e-16
8.74635e-06
-1.40048e-16
8.74635e-06
-1.3613e-16
8.74635e-06
-1.198e-16
8.74635e-06
-9.22029e-17
8.74635e-06
-5.67285e-17
8.74635e-06
-1.56493e-17
8.74635e-06
2.66878e-17
8.74635e-06
6.69045e-17
8.74635e-06
1.00861e-16
8.74635e-06
1.25286e-16
8.74635e-06
1.37956e-16
8.74635e-06
1.37104e-16
8.74635e-06
1.23324e-16
8.74635e-06
9.69218e-17
8.74635e-06
6.10065e-17
8.74635e-06
1.79322e-17
8.74635e-06
-2.73902e-17
-7.0456e-17
1.12455e-05
-1.55847e-16
1.12455e-05
-1.87468e-16
1.12455e-05
-1.99693e-16
1.12455e-05
-1.92349e-16
1.12455e-05
-1.66196e-16
1.12455e-05
-1.2498e-16
1.12455e-05
-7.17742e-17
1.12455e-05
-1.23395e-17
1.12455e-05
4.86566e-17
1.12455e-05
1.0487e-16
1.12455e-05
1.51316e-16
1.12455e-05
1.83336e-16
1.12455e-05
1.97597e-16
1.12455e-05
1.93057e-16
1.12455e-05
1.6933e-16
1.12455e-05
1.29346e-16
1.12455e-05
7.57707e-17
1.12455e-05
1.45228e-17
1.12455e-05
-4.9187e-17
-1.07993e-16
1.37447e-05
-1.97779e-16
1.37447e-05
-2.34363e-16
1.37447e-05
-2.47413e-16
1.37447e-05
-2.35709e-16
1.37447e-05
-2.01578e-16
1.37447e-05
-1.47893e-16
1.37447e-05
-8.07887e-17
1.37447e-05
-5.66456e-18
1.37447e-05
6.95791e-17
1.37447e-05
1.38501e-16
1.37447e-05
1.94003e-16
1.37447e-05
2.30889e-16
1.37447e-05
2.45604e-16
1.37447e-05
2.36265e-16
1.37447e-05
2.04224e-16
1.37447e-05
1.51587e-16
1.37447e-05
8.41672e-17
1.37447e-05
7.46906e-18
1.37447e-05
-7.00346e-17
-1.41092e-16
1.62441e-05
-2.22239e-16
1.62441e-05
-2.60106e-16
1.62441e-05
-2.71904e-16
1.62441e-05
-2.5711e-16
1.62441e-05
-2.17036e-16
1.62441e-05
-1.56563e-16
1.62441e-05
-8.07715e-17
1.62441e-05
2.21866e-18
1.62441e-05
8.5336e-17
1.62441e-05
1.59907e-16
1.62441e-05
2.19275e-16
1.62441e-05
2.57392e-16
1.62441e-05
2.70545e-16
1.62441e-05
2.57614e-16
1.62441e-05
2.19194e-16
1.62441e-05
1.59522e-16
1.62441e-05
8.3404e-17
1.62441e-05
-8.91501e-19
1.62441e-05
-8.58026e-17
-1.62008e-16
1.87436e-05
-2.2412e-16
1.87436e-05
-2.58971e-16
1.87436e-05
-2.68122e-16
1.87436e-05
-2.50835e-16
1.87436e-05
-2.09383e-16
1.87436e-05
-1.47403e-16
1.87436e-05
-7.16623e-17
1.87436e-05
1.13122e-17
1.87436e-05
9.27257e-17
1.87436e-05
1.65451e-16
1.87436e-05
2.21904e-16
1.87436e-05
2.57e-16
1.87436e-05
2.67199e-16
1.87436e-05
2.51303e-16
1.87436e-05
2.11066e-16
1.87436e-05
1.49643e-16
1.87436e-05
7.35866e-17
1.87436e-05
-1.04322e-17
1.87436e-05
-9.31882e-17
-1.67093e-16
2.12432e-05
-2.04219e-16
2.12432e-05
-2.31888e-16
2.12432e-05
-2.36747e-16
2.12432e-05
-2.1848e-16
2.12432e-05
-1.78793e-16
2.12432e-05
-1.22007e-16
2.12432e-05
-5.30927e-17
2.12432e-05
2.05486e-17
2.12432e-05
9.24627e-17
2.12432e-05
1.54993e-16
2.12432e-05
2.02691e-16
2.12432e-05
2.30556e-16
2.12432e-05
2.36145e-16
2.12432e-05
2.18838e-16
2.12432e-05
1.79985e-16
2.12432e-05
1.23565e-16
2.12432e-05
5.44096e-17
2.12432e-05
-1.99897e-17
2.12432e-05
-9.28405e-17
-1.56162e-16
2.3743e-05
-1.67822e-16
2.3743e-05
-1.85577e-16
2.3743e-05
-1.85003e-16
2.3743e-05
-1.66384e-16
2.3743e-05
-1.31631e-16
2.3743e-05
-8.38784e-17
2.3743e-05
-2.81581e-17
2.3743e-05
3.05496e-17
2.3743e-05
8.58718e-17
2.3743e-05
1.33027e-16
2.3743e-05
1.669e-16
2.3743e-05
1.84762e-16
2.3743e-05
1.84597e-16
2.3743e-05
1.66567e-16
2.3743e-05
1.32328e-16
2.3743e-05
8.48249e-17
2.3743e-05
2.89856e-17
2.3743e-05
-3.01739e-17
2.3743e-05
-8.60781e-17
-1.33732e-16
2.62431e-05
-1.23827e-16
2.62431e-05
-1.30077e-16
2.62431e-05
-1.23847e-16
2.62431e-05
-1.05423e-16
2.62431e-05
-7.67427e-17
2.62431e-05
-4.05743e-17
2.62431e-05
-2.25212e-19
2.62431e-05
3.99201e-17
2.62431e-05
7.63273e-17
2.62431e-05
1.04881e-16
2.62431e-05
1.23403e-16
2.62431e-05
1.29673e-16
2.62431e-05
1.23574e-16
2.62431e-05
1.05406e-16
2.62431e-05
7.69931e-17
2.62431e-05
4.10038e-17
2.62431e-05
6.66894e-19
2.62431e-05
-3.96493e-17
2.62431e-05
-7.63453e-17
-1.05162e-16
2.87432e-05
-8.04937e-17
2.87432e-05
-7.65174e-17
2.87432e-05
-6.49613e-17
2.87432e-05
-4.72494e-17
2.87432e-05
-2.48061e-17
2.87432e-05
1.41323e-19
2.87432e-05
2.50962e-17
2.87432e-05
4.77515e-17
2.87432e-05
6.54354e-17
2.87432e-05
7.68568e-17
2.87432e-05
8.04317e-17
2.87432e-05
7.64202e-17
2.87432e-05
6.47955e-17
2.87432e-05
4.70932e-17
2.87432e-05
2.47279e-17
2.87432e-05
-9.53148e-20
2.87432e-05
-2.49484e-17
2.87432e-05
-4.75555e-17
2.87432e-05
-6.53138e-17
-7.68299e-17
3.12436e-05
-4.495e-17
3.12436e-05
-3.29906e-17
3.12436e-05
-1.81971e-17
3.12436e-05
-1.44091e-18
3.12436e-05
1.53344e-17
3.12436e-05
3.07953e-17
3.12436e-05
4.33298e-17
3.12436e-05
5.1547e-17
3.12436e-05
5.48155e-17
3.12436e-05
5.24192e-17
3.12436e-05
4.50922e-17
3.12436e-05
3.30896e-17
3.12436e-05
1.81482e-17
3.12436e-05
1.26508e-18
3.12436e-05
-1.55586e-17
3.12436e-05
-3.09585e-17
3.12436e-05
-4.3364e-17
3.12436e-05
-5.14516e-17
3.12436e-05
-5.46737e-17
-5.22503e-17
3.37441e-05
-1.98784e-17
3.37441e-05
-4.40055e-18
3.37441e-05
1.1712e-17
3.37441e-05
2.63497e-17
3.37441e-05
3.86605e-17
3.37441e-05
4.71348e-17
3.37441e-05
5.10941e-17
3.37441e-05
5.00804e-17
3.37441e-05
4.40318e-17
3.37441e-05
3.3815e-17
3.37441e-05
2.00354e-17
3.37441e-05
4.55655e-18
3.37441e-05
-1.16258e-17
3.37441e-05
-2.6425e-17
3.37441e-05
-3.88366e-17
3.37441e-05
-4.73146e-17
3.37441e-05
-5.12027e-17
3.37441e-05
-5.00967e-17
3.37441e-05
-4.39736e-17
-3.37052e-17
3.62447e-05
-5.66203e-18
3.62447e-05
9.88602e-18
3.62447e-05
2.42304e-17
3.62447e-05
3.63395e-17
3.62447e-05
4.47136e-17
3.62447e-05
4.88865e-17
3.62447e-05
4.81907e-17
3.62447e-05
4.27825e-17
3.62447e-05
3.32615e-17
3.62447e-05
2.03677e-17
3.62447e-05
5.69901e-18
3.62447e-05
-9.76298e-18
3.62447e-05
-2.40266e-17
3.62447e-05
-3.62242e-17
3.62447e-05
-4.46979e-17
3.62447e-05
-4.89544e-17
3.62447e-05
-4.82832e-17
3.62447e-05
-4.29048e-17
3.62447e-05
-3.33671e-17
-2.04599e-17
3.87455e-05
6.66569e-19
3.87455e-05
1.2783e-17
3.87455e-05
2.39205e-17
3.87455e-05
3.24022e-17
3.87455e-05
3.78967e-17
3.87455e-05
3.94893e-17
3.87455e-05
3.72826e-17
3.87455e-05
3.13744e-17
3.87455e-05
2.23958e-17
3.87455e-05
1.14017e-17
3.87455e-05
-8.16389e-19
3.87455e-05
-1.27277e-17
3.87455e-05
-2.36593e-17
3.87455e-05
-3.21015e-17
3.87455e-05
-3.76722e-17
3.87455e-05
-3.93845e-17
3.87455e-05
-3.73168e-17
3.87455e-05
-3.15591e-17
3.87455e-05
-2.26704e-17
-1.16878e-17
4.12464e-05
1.91948e-18
4.12464e-05
9.73265e-18
4.12464e-05
1.63915e-17
4.12464e-05
2.16447e-17
4.12464e-05
2.45181e-17
4.12464e-05
2.50809e-17
4.12464e-05
2.30171e-17
4.12464e-05
1.87353e-17
4.12464e-05
1.26885e-17
4.12464e-05
5.40031e-18
4.12464e-05
-2.21009e-18
4.12464e-05
-9.74871e-18
4.12464e-05
-1.61724e-17
4.12464e-05
-2.12711e-17
4.12464e-05
-2.4164e-17
4.12464e-05
-2.48581e-17
4.12464e-05
-2.29842e-17
4.12464e-05
-1.89025e-17
4.12464e-05
-1.30451e-17
-5.76218e-18
4.37473e-05
1.35848e-18
4.37473e-05
4.81454e-18
4.37473e-05
7.95332e-18
4.37473e-05
1.01788e-17
4.37473e-05
1.14871e-17
4.37473e-05
1.14824e-17
4.37473e-05
1.03824e-17
4.37473e-05
8.20991e-18
4.37473e-05
5.2745e-18
4.37473e-05
1.9338e-18
4.37473e-05
-1.63466e-18
4.37473e-05
-4.89267e-18
4.37473e-05
-7.82642e-18
4.37473e-05
-9.88987e-18
4.37473e-05
-1.1169e-17
4.37473e-05
-1.12502e-17
4.37473e-05
-1.03046e-17
4.37473e-05
-8.31165e-18
4.37473e-05
-5.53814e-18
-2.24577e-18
4.62484e-05
4.28455e-19
4.62484e-05
1.2844e-18
4.62484e-05
2.03261e-18
4.62484e-05
2.62739e-18
4.62484e-05
2.88152e-18
4.62484e-05
2.87241e-18
4.62484e-05
2.50552e-18
4.62484e-05
1.90416e-18
4.62484e-05
1.13739e-18
4.62484e-05
2.69203e-19
4.62484e-05
-5.6228e-19
4.62484e-05
-1.38767e-18
4.62484e-05
-2.0058e-18
4.62484e-05
-2.50348e-18
4.62484e-05
-2.71302e-18
4.62484e-05
-2.73469e-18
4.62484e-05
-2.43497e-18
4.62484e-05
-1.94172e-18
4.62484e-05
-1.23637e-18
-4.28138e-19
4.87495e-05
4.87495e-05
4.87495e-05
4.87495e-05
4.87495e-05
4.87495e-05
4.87495e-05
4.87495e-05
4.87495e-05
4.87495e-05
4.87495e-05
4.87495e-05
4.87495e-05
4.87495e-05
4.87495e-05
4.87495e-05
4.87495e-05
4.87495e-05
4.87495e-05
)
;

boundaryField
{
    movingWall
    {
        type            calculated;
        value           uniform 0;
    }
    fixedWalls
    {
        type            calculated;
        value           uniform 0;
    }
    left
    {
        type            cyclic;
        value           nonuniform List<scalar> 
20
(
-3.87455e-05
-3.62447e-05
-3.37441e-05
-3.12436e-05
-2.87432e-05
-2.62431e-05
-2.3743e-05
-2.12432e-05
-1.87436e-05
-1.62441e-05
-1.37447e-05
-1.12455e-05
-8.74635e-06
-6.24733e-06
-3.74837e-06
-1.24945e-06
-4.12464e-05
-4.37473e-05
-4.62484e-05
-4.87495e-05
)
;
    }
    right
    {
        type            cyclic;
        value           nonuniform List<scalar> 
20
(
3.87455e-05
3.62447e-05
3.37441e-05
3.12436e-05
2.87432e-05
2.62431e-05
2.3743e-05
2.12432e-05
1.87436e-05
1.62441e-05
1.37447e-05
1.12455e-05
8.74635e-06
6.24733e-06
3.74837e-06
1.24945e-06
4.12464e-05
4.37473e-05
4.62484e-05
4.87495e-05
)
;
    }
    frontAndBack
    {
        type            empty;
        value           nonuniform List<scalar> 0();
    }
}


// ************************************************************************* //
