/*--------------------------------*- C++ -*----------------------------------*\
  =========                 |
  \\      /  F ield         | OpenFOAM: The Open Source CFD Toolbox
   \\    /   O peration     | Website:  https://openfoam.org
    \\  /    A nd           | Version:  8
     \\/     M anipulation  |
\*---------------------------------------------------------------------------*/
FoamFile
{
    version     2.0;
    format      ascii;
    class       volScalarField;
    location    "1";
    object      T;
}
// * * * * * * * * * * * * * * * * * * * * * * * * * * * * * * * * * * * * * //

dimensions      [0 0 0 1 0 0 0];

internalField   nonuniform List<scalar> 
100
(
50
25
12.5
6.25
3.125
1.5625
0.78125
0.390625
0.195312
0.0976562
75
50
31.25
18.75
10.9375
6.25
3.51562
1.95312
1.07422
0.585937
87.5
68.75
50
34.375
22.6562
14.4531
8.98437
5.46875
3.27148
1.92871
93.75
81.25
65.625
50
36.3281
25.3906
17.1875
11.3281
7.2998
4.61426
96.875
89.0625
77.3438
63.6719
50
37.6953
27.4414
19.3848
13.3423
8.97827
98.4375
93.75
85.5469
74.6094
62.3047
50
38.7207
29.0527
21.1975
15.0879
99.2187
96.4844
91.0156
82.8125
72.5586
61.2793
50
39.5264
30.3619
22.7249
99.6094
98.0469
94.5312
88.6719
80.6152
70.9473
60.4736
50
40.181
31.4529
99.8047
98.9258
96.7285
92.7002
86.6577
78.8025
69.6381
59.819
50
40.7265
99.9023
99.4141
98.0713
95.3857
91.0217
84.9121
77.2751
68.5471
59.2735
50
)
;

boundaryField
{
    left
    {
        type            fixedValue;
        value           uniform 100;
    }
    right
    {
        type            zeroGradient;
    }
    up
    {
        type            zeroGradient;
    }
    down
    {
        type            fixedValue;
        value           uniform 0;
    }
    frontAndBack
    {
        type            empty;
    }
}


// ************************************************************************* //
