/*--------------------------------*- C++ -*----------------------------------*\
  =========                 |
  \\      /  F ield         | OpenFOAM: The Open Source CFD Toolbox
   \\    /   O peration     | Website:  https://openfoam.org
    \\  /    A nd           | Version:  8
     \\/     M anipulation  |
\*---------------------------------------------------------------------------*/
FoamFile
{
    version     2.0;
    format      ascii;
    class       volScalarField;
    location    "1";
    object      T;
}
// * * * * * * * * * * * * * * * * * * * * * * * * * * * * * * * * * * * * * //

dimensions      [0 0 0 1 0 0 0];

internalField   nonuniform List<scalar> 
100
(
50
24.9691
12.4847
6.25019
3.13292
1.57233
0.79008
0.397494
0.200226
0.101105
75.0309
50
31.2579
18.7735
10.9707
6.28516
3.54738
1.97904
1.09392
0.600903
87.5153
68.7421
50
34.3965
22.6972
14.5048
9.03775
5.51753
3.31244
1.96341
93.7498
81.2265
65.6035
50
36.3554
25.4403
17.2499
11.3937
7.36147
4.67335
96.8671
89.0293
77.3028
63.6446
50
37.7252
27.4956
19.4537
13.4163
9.06004
98.4277
93.7148
85.4952
74.5597
62.2748
50
38.7518
29.1092
21.2704
15.1842
99.2099
96.4526
90.9623
82.7501
72.5044
61.2482
50
39.5578
30.4196
22.8236
99.6025
98.021
94.4825
88.6063
80.5463
70.8908
60.4422
50
40.2126
31.5411
99.7998
98.9061
96.6876
92.6385
86.5837
78.7296
69.5804
59.7874
50
40.7934
99.8989
99.3991
98.0366
95.3266
90.94
84.8158
77.1764
68.4589
59.2066
50
)
;

boundaryField
{
    left
    {
        type            fixedValue;
        value           uniform 100;
    }
    right
    {
        type            zeroGradient;
    }
    up
    {
        type            zeroGradient;
    }
    down
    {
        type            fixedValue;
        value           uniform 0;
    }
    frontAndBack
    {
        type            empty;
    }
}


// ************************************************************************* //
