/*--------------------------------*- C++ -*----------------------------------*\
  =========                 |
  \\      /  F ield         | OpenFOAM: The Open Source CFD Toolbox
   \\    /   O peration     | Website:  https://openfoam.org
    \\  /    A nd           | Version:  8
     \\/     M anipulation  |
\*---------------------------------------------------------------------------*/
FoamFile
{
    version     2.0;
    format      ascii;
    class       surfaceScalarField;
    location    "0.23";
    object      phi;
}
// * * * * * * * * * * * * * * * * * * * * * * * * * * * * * * * * * * * * * //

dimensions      [0 3 -1 0 0 0 0];

internalField   nonuniform List<scalar> 
760
(
9.6261e-07
-3.35087e-13
9.62602e-07
7.73934e-12
9.62591e-07
1.17568e-11
9.62577e-07
1.35317e-11
9.62563e-07
1.36896e-11
9.62551e-07
1.29434e-11
9.62539e-07
1.15527e-11
9.62529e-07
9.79635e-12
9.62521e-07
7.85301e-12
9.62516e-07
5.73726e-12
9.62512e-07
3.35732e-12
9.62512e-07
5.98492e-13
9.62514e-07
-2.60158e-12
9.6252e-07
-6.22367e-12
9.62531e-07
-1.01364e-11
9.62545e-07
-1.40709e-11
9.62562e-07
-1.75515e-11
9.62582e-07
-1.93855e-11
9.62599e-07
-1.77856e-11
-1.04658e-11
2.89474e-06
-4.68744e-12
2.89473e-06
1.50582e-11
2.89471e-06
2.71751e-11
2.89469e-06
3.30074e-11
2.89467e-06
3.46094e-11
2.89465e-06
3.35767e-11
2.89463e-06
3.07404e-11
2.89462e-06
2.66724e-11
2.8946e-06
2.17028e-11
2.89459e-06
1.59312e-11
2.89459e-06
9.30721e-12
2.89458e-06
1.73928e-12
2.89459e-06
-6.79616e-12
2.8946e-06
-1.61684e-11
2.89461e-06
-2.60074e-11
2.89464e-06
-3.55697e-11
2.89466e-06
-4.35206e-11
2.89469e-06
-4.72336e-11
2.89471e-06
-4.26284e-11
-2.69084e-11
4.84761e-06
-1.11562e-11
4.84761e-06
1.68959e-11
4.8476e-06
3.60762e-11
4.84758e-06
4.64159e-11
4.84757e-06
5.05038e-11
4.84755e-06
5.03376e-11
4.84753e-06
4.71184e-11
4.84752e-06
4.16584e-11
4.84751e-06
3.4451e-11
4.8475e-06
2.57278e-11
4.84749e-06
1.55496e-11
4.84749e-06
3.92067e-12
4.84749e-06
-9.08819e-12
4.8475e-06
-2.32172e-11
4.84751e-06
-3.78745e-11
4.84753e-06
-5.19101e-11
4.84755e-06
-6.32855e-11
4.84757e-06
-6.84235e-11
4.84759e-06
-6.22133e-11
-4.1487e-11
6.83459e-06
-1.85318e-11
6.83459e-06
1.39575e-11
6.83459e-06
3.76754e-11
6.83458e-06
5.17202e-11
6.83458e-06
5.84371e-11
6.83457e-06
5.98477e-11
6.83456e-06
5.72671e-11
6.83455e-06
5.16214e-11
6.83454e-06
4.35126e-11
6.83453e-06
3.3283e-11
6.83452e-06
2.11016e-11
6.83452e-06
7.07116e-12
6.83452e-06
-8.64579e-12
6.83452e-06
-2.56851e-11
6.83453e-06
-4.33009e-11
6.83454e-06
-6.00937e-11
6.83455e-06
-7.36425e-11
6.83456e-06
-8.00046e-11
6.83457e-06
-7.38296e-11
-5.17607e-11
8.86821e-06
-2.50885e-11
8.86822e-06
7.77911e-12
8.86822e-06
3.31484e-11
8.86823e-06
4.93687e-11
8.86823e-06
5.81969e-11
8.86822e-06
6.13924e-11
8.86822e-06
6.0166e-11
8.86822e-06
5.54218e-11
8.86821e-06
4.77854e-11
8.86821e-06
3.76484e-11
8.8682e-06
2.52418e-11
8.8682e-06
1.07317e-11
8.8682e-06
-5.66383e-12
8.8682e-06
-2.35337e-11
8.86819e-06
-4.20877e-11
8.86819e-06
-5.98787e-11
8.8682e-06
-7.44347e-11
8.8682e-06
-8.19134e-11
8.8682e-06
-7.72513e-11
-5.70287e-11
1.09599e-05
-2.97367e-11
1.09599e-05
-8.42314e-14
1.09599e-05
2.4096e-11
1.09599e-05
4.06456e-11
1.09599e-05
5.06414e-11
1.096e-05
5.54104e-11
1.096e-05
5.5903e-11
1.096e-05
5.28804e-11
1.096e-05
4.68982e-11
1.096e-05
3.8324e-11
1.096e-05
2.73914e-11
1.096e-05
1.42775e-11
1.09599e-05
-7.99507e-13
1.09599e-05
-1.74583e-11
1.09599e-05
-3.4987e-11
1.09599e-05
-5.20877e-11
1.09599e-05
-6.65333e-11
1.09599e-05
-7.49403e-11
1.09599e-05
-7.28779e-11
-5.69631e-11
1.31197e-05
-3.17219e-11
1.31197e-05
-8.19765e-12
1.31198e-05
1.22654e-11
1.31198e-05
2.72761e-11
1.31198e-05
3.72825e-11
1.31198e-05
4.31053e-11
1.31198e-05
4.53449e-11
1.31198e-05
4.45291e-11
1.31198e-05
4.1063e-11
1.31198e-05
3.52207e-11
1.31198e-05
2.71781e-11
1.31198e-05
1.70671e-11
1.31198e-05
5.0462e-12
1.31198e-05
-8.6081e-12
1.31198e-05
-2.33708e-11
1.31198e-05
-3.82539e-11
1.31198e-05
-5.15052e-11
1.31198e-05
-6.04664e-11
1.31197e-05
-6.15875e-11
-5.16672e-11
1.53561e-05
-3.06383e-11
1.53561e-05
-1.53669e-11
1.53562e-05
-6.67482e-13
1.53562e-05
1.11332e-11
1.53562e-05
1.99635e-11
1.53562e-05
2.61399e-11
1.53562e-05
2.98784e-11
1.53562e-05
3.14196e-11
1.53562e-05
3.09599e-11
1.53562e-05
2.86243e-11
1.53563e-05
2.44796e-11
1.53562e-05
1.85642e-11
1.53562e-05
1.09269e-11
1.53562e-05
1.68044e-12
1.53562e-05
-8.91525e-12
1.53562e-05
-2.02927e-11
1.53562e-05
-3.13297e-11
1.53562e-05
-4.02783e-11
1.53561e-05
-4.46557e-11
-4.16255e-11
1.76757e-05
-2.64545e-11
1.76757e-05
-2.07289e-11
1.76757e-05
-1.32441e-11
1.76757e-05
-5.96912e-12
1.76757e-05
6.27676e-13
1.76758e-05
6.4076e-12
1.76758e-05
1.121e-11
1.76758e-05
1.49685e-11
1.76758e-05
1.76384e-11
1.76758e-05
1.91589e-11
1.76758e-05
1.94529e-11
1.76758e-05
1.84326e-11
1.76758e-05
1.60061e-11
1.76758e-05
1.20889e-11
1.76758e-05
6.63617e-12
1.76758e-05
-2.5988e-13
1.76757e-05
-8.18818e-12
1.76757e-05
-1.64195e-11
1.76757e-05
-2.36783e-11
-2.76852e-11
2.0083e-05
-1.952e-11
2.0083e-05
-2.38027e-11
2.0083e-05
-2.43119e-11
2.0083e-05
-2.24113e-11
2.0083e-05
-1.88459e-11
2.00831e-05
-1.41398e-11
2.00831e-05
-8.79462e-12
2.00831e-05
-3.17566e-12
2.00831e-05
2.42287e-12
2.00831e-05
7.74029e-12
2.00831e-05
1.254e-11
2.00831e-05
1.65954e-11
2.00831e-05
1.96652e-11
2.00831e-05
2.14649e-11
2.00831e-05
2.16461e-11
2.00831e-05
1.98265e-11
2.00831e-05
1.56937e-11
2.0083e-05
8.92792e-12
2.0083e-05
-4.92021e-13
-1.1029e-11
2.25805e-05
-1.05455e-11
2.25805e-05
-2.4499e-11
2.25805e-05
-3.30711e-11
2.25805e-05
-3.68522e-11
2.25805e-05
-3.67561e-11
2.25806e-05
-3.36223e-11
2.25806e-05
-2.82417e-11
2.25806e-05
-2.12513e-11
2.25806e-05
-1.31813e-11
2.25806e-05
-4.48585e-12
2.25806e-05
4.44443e-12
2.25806e-05
1.32522e-11
2.25806e-05
2.15621e-11
2.25806e-05
2.89159e-11
2.25806e-05
3.47019e-11
2.25806e-05
3.8115e-11
2.25806e-05
3.81734e-11
2.25806e-05
3.35515e-11
2.25805e-05
2.29121e-11
6.87778e-12
2.51685e-05
-5.5187e-13
2.51685e-05
-2.30915e-11
2.51685e-05
-3.90816e-11
2.51685e-05
-4.82689e-11
2.51685e-05
-5.1652e-11
2.51685e-05
-5.03267e-11
2.51685e-05
-4.53185e-11
2.51685e-05
-3.74945e-11
2.51686e-05
-2.75898e-11
2.51686e-05
-1.62259e-11
2.51686e-05
-3.92337e-12
2.51686e-05
8.85727e-12
2.51686e-05
2.16433e-11
2.51686e-05
3.38547e-11
2.51686e-05
4.46895e-11
2.51686e-05
5.30163e-11
2.51685e-05
5.72966e-11
2.51685e-05
5.53153e-11
2.51685e-05
4.44839e-11
2.43676e-11
2.78449e-05
9.21846e-12
2.78449e-05
-2.01462e-11
2.78449e-05
-4.22268e-11
2.78449e-05
-5.59539e-11
2.78449e-05
-6.23671e-11
2.78449e-05
-6.27763e-11
2.78449e-05
-5.83879e-11
2.78449e-05
-5.02487e-11
2.7845e-05
-3.92519e-11
2.7845e-05
-2.61435e-11
2.7845e-05
-1.15332e-11
2.7845e-05
4.05843e-12
2.7845e-05
2.01143e-11
2.7845e-05
3.60032e-11
2.7845e-05
5.083e-11
2.7845e-05
6.32674e-11
2.7845e-05
7.13844e-11
2.78449e-05
7.22628e-11
2.78449e-05
6.22186e-11
3.96782e-11
3.06056e-05
1.74284e-11
3.06056e-05
-1.64096e-11
3.06056e-05
-4.26296e-11
3.06056e-05
-5.94725e-11
3.06056e-05
-6.8023e-11
3.06056e-05
-6.978e-11
3.06056e-05
-6.60774e-11
3.06056e-05
-5.80807e-11
3.06056e-05
-4.67801e-11
3.06056e-05
-3.29893e-11
3.06056e-05
-1.73541e-11
3.06056e-05
-4.00524e-13
3.06056e-05
1.73713e-11
3.06056e-05
3.53593e-11
3.06056e-05
5.26838e-11
3.06056e-05
6.79735e-11
3.06056e-05
7.91069e-11
3.06056e-05
8.27176e-11
3.06056e-05
7.4271e-11
5.10854e-11
3.34442e-05
2.28186e-11
3.34442e-05
-1.26576e-11
3.34442e-05
-4.05271e-11
3.34442e-05
-5.85885e-11
3.34442e-05
-6.80174e-11
3.34442e-05
-7.04811e-11
3.34442e-05
-6.73781e-11
3.34442e-05
-5.99153e-11
3.34442e-05
-4.91044e-11
3.34442e-05
-3.57597e-11
3.34442e-05
-2.05028e-11
3.34442e-05
-3.80816e-12
3.34442e-05
1.39054e-11
3.34442e-05
3.21406e-11
3.34442e-05
5.01394e-11
3.34442e-05
6.66412e-11
3.34442e-05
7.95588e-11
3.34442e-05
8.53915e-11
3.34442e-05
7.90926e-11
5.70525e-11
3.63525e-05
2.44191e-11
3.63525e-05
-9.49998e-12
3.63525e-05
-3.61165e-11
3.63525e-05
-5.31848e-11
3.63525e-05
-6.20273e-11
3.63525e-05
-6.44358e-11
3.63525e-05
-6.17803e-11
3.63525e-05
-5.52085e-11
3.63525e-05
-4.56638e-11
3.63525e-05
-3.3889e-11
3.63525e-05
-2.04229e-11
3.63525e-05
-5.63463e-12
3.63525e-05
1.01911e-11
3.63525e-05
2.67228e-11
3.63525e-05
4.34066e-11
3.63525e-05
5.9227e-11
3.63525e-05
7.23595e-11
3.63525e-05
7.95217e-11
3.63525e-05
7.56115e-11
5.64044e-11
3.93204e-05
2.17662e-11
3.93204e-05
-7.13064e-12
3.93204e-05
-2.93978e-11
3.93204e-05
-4.32237e-11
3.93204e-05
-5.00893e-11
3.93204e-05
-5.17759e-11
3.93204e-05
-4.94859e-11
3.93203e-05
-4.41826e-11
3.93203e-05
-3.66441e-11
3.93203e-05
-2.74729e-11
3.93203e-05
-1.70773e-11
3.93203e-05
-5.68265e-12
3.93203e-05
6.59319e-12
3.93203e-05
1.96119e-11
3.93204e-05
3.30573e-11
3.93204e-05
4.6243e-11
3.93204e-05
5.78097e-11
3.93204e-05
6.50641e-11
3.93204e-05
6.34569e-11
4.85603e-11
4.23364e-05
1.52434e-11
4.23364e-05
-5.06769e-12
4.23363e-05
-2.00753e-11
4.23363e-05
-2.88331e-11
4.23363e-05
-3.281e-11
4.23363e-05
-3.34827e-11
4.23363e-05
-3.1701e-11
4.23363e-05
-2.81169e-11
4.23362e-05
-2.32528e-11
4.23362e-05
-1.75085e-11
4.23362e-05
-1.11267e-11
4.23362e-05
-4.18154e-12
4.23362e-05
3.3611e-12
4.23362e-05
1.15217e-11
4.23363e-05
2.01796e-11
4.23363e-05
2.89776e-11
4.23363e-05
3.71586e-11
4.23363e-05
4.29443e-11
4.23363e-05
4.31127e-11
3.36572e-11
4.53875e-05
6.12605e-12
4.53875e-05
-2.60763e-12
4.53875e-05
-8.41221e-12
4.53875e-05
-1.1537e-11
4.53875e-05
-1.27111e-11
4.53874e-05
-1.26905e-11
4.53874e-05
-1.18151e-11
4.53874e-05
-1.03481e-11
4.53874e-05
-8.50107e-12
4.53874e-05
-6.43146e-12
4.53874e-05
-4.21118e-12
4.53874e-05
-1.81023e-12
4.53874e-05
8.62817e-13
4.53874e-05
3.86633e-12
4.53874e-05
7.14656e-12
4.53874e-05
1.05667e-11
4.53874e-05
1.3965e-11
4.53875e-05
1.67367e-11
4.53875e-05
1.76515e-11
1.41539e-11
4.84601e-05
4.84601e-05
4.84601e-05
4.84601e-05
4.84601e-05
4.84601e-05
4.84601e-05
4.846e-05
4.846e-05
4.846e-05
4.846e-05
4.846e-05
4.846e-05
4.846e-05
4.846e-05
4.846e-05
4.84601e-05
4.84601e-05
4.84601e-05
)
;

boundaryField
{
    movingWall
    {
        type            calculated;
        value           uniform 0;
    }
    fixedWalls
    {
        type            calculated;
        value           uniform 0;
    }
    left
    {
        type            cyclic;
        value           nonuniform List<scalar> 
20
(
-3.63525e-05
-3.34442e-05
-3.06056e-05
-2.78449e-05
-2.51685e-05
-2.25805e-05
-2.0083e-05
-1.76757e-05
-1.53561e-05
-1.31197e-05
-1.09599e-05
-8.86821e-06
-6.83458e-06
-4.8476e-06
-2.89473e-06
-9.6261e-07
-3.93204e-05
-4.23363e-05
-4.53875e-05
-4.84601e-05
)
;
    }
    right
    {
        type            cyclic;
        value           nonuniform List<scalar> 
20
(
3.63525e-05
3.34442e-05
3.06056e-05
2.78449e-05
2.51685e-05
2.25805e-05
2.0083e-05
1.76757e-05
1.53561e-05
1.31197e-05
1.09599e-05
8.86821e-06
6.83458e-06
4.8476e-06
2.89473e-06
9.6261e-07
3.93204e-05
4.23363e-05
4.53875e-05
4.84601e-05
)
;
    }
    frontAndBack
    {
        type            empty;
        value           nonuniform List<scalar> 0();
    }
}


// ************************************************************************* //
