/*--------------------------------*- C++ -*----------------------------------*\
  =========                 |
  \\      /  F ield         | OpenFOAM: The Open Source CFD Toolbox
   \\    /   O peration     | Website:  https://openfoam.org
    \\  /    A nd           | Version:  8
     \\/     M anipulation  |
\*---------------------------------------------------------------------------*/
FoamFile
{
    version     2.0;
    format      ascii;
    class       volVectorField;
    location    "0.23";
    object      U;
}
// * * * * * * * * * * * * * * * * * * * * * * * * * * * * * * * * * * * * * //

dimensions      [0 1 -1 0 0 0 0];

internalField   nonuniform List<vector> 
400
(
(0.0192522 2.36381e-08 0)
(0.0192522 1.00021e-07 0)
(0.019252 1.30215e-07 0)
(0.0192517 1.40157e-07 0)
(0.0192514 1.36794e-07 0)
(0.0192511 1.26427e-07 0)
(0.0192509 1.10587e-07 0)
(0.0192507 9.17101e-08 0)
(0.0192505 7.1725e-08 0)
(0.0192504 5.0865e-08 0)
(0.0192503 2.81187e-08 0)
(0.0192502 2.16789e-09 0)
(0.0192502 -2.78683e-08 0)
(0.0192503 -6.20284e-08 0)
(0.0192505 -9.95001e-08 0)
(0.0192507 -1.38268e-07 0)
(0.0192511 -1.73871e-07 0)
(0.0192514 -1.93405e-07 0)
(0.0192518 -1.74753e-07 0)
(0.0192521 -9.04439e-08 0)
(0.0578947 -3.48211e-08 0)
(0.0578947 2.52709e-07 0)
(0.0578944 4.06549e-07 0)
(0.0578941 4.76068e-07 0)
(0.0578936 4.87506e-07 0)
(0.0578932 4.65058e-07 0)
(0.0578928 4.19292e-07 0)
(0.0578925 3.58613e-07 0)
(0.0578921 2.88171e-07 0)
(0.0578919 2.0903e-07 0)
(0.0578917 1.19519e-07 0)
(0.0578917 1.7259e-08 0)
(0.0578917 -9.9025e-08 0)
(0.0578918 -2.28142e-07 0)
(0.0578921 -3.65466e-07 0)
(0.0578925 -5.01261e-07 0)
(0.057893 -6.17321e-07 0)
(0.0578935 -6.72898e-07 0)
(0.0578941 -6.06686e-07 0)
(0.0578945 -3.62107e-07 0)
(0.0969521 -1.42306e-07 0)
(0.0969522 3.46535e-07 0)
(0.0969521 6.68439e-07 0)
(0.0969518 8.30855e-07 0)
(0.0969515 8.84697e-07 0)
(0.0969512 8.67616e-07 0)
(0.0969508 8.01239e-07 0)
(0.0969505 7.00188e-07 0)
(0.0969502 5.72905e-07 0)
(0.09695 4.22574e-07 0)
(0.0969498 2.4907e-07 0)
(0.0969498 5.13071e-08 0)
(0.0969498 -1.70348e-07 0)
(0.0969499 -4.11925e-07 0)
(0.09695 -6.63565e-07 0)
(0.0969503 -9.05851e-07 0)
(0.0969507 -1.10399e-06 0)
(0.0969511 -1.1932e-06 0)
(0.0969515 -1.07694e-06 0)
(0.0969519 -6.9678e-07 0)
(0.136692 -2.97747e-07 0)
(0.136692 3.29341e-07 0)
(0.136692 7.73175e-07 0)
(0.136692 1.0233e-06 0)
(0.136692 1.1316e-06 0)
(0.136691 1.14083e-06 0)
(0.136691 1.07788e-06 0)
(0.136691 9.60847e-07 0)
(0.136691 8.00853e-07 0)
(0.136691 6.03646e-07 0)
(0.136691 3.71549e-07 0)
(0.13669 1.05694e-07 0)
(0.13669 -1.91449e-07 0)
(0.13669 -5.13301e-07 0)
(0.136691 -8.4574e-07 0)
(0.136691 -1.16198e-06 0)
(0.136691 -1.41569e-06 0)
(0.136691 -1.52976e-06 0)
(0.136691 -1.39749e-06 0)
(0.136691 -9.53015e-07 0)
(0.177364 -4.43157e-07 0)
(0.177364 2.29993e-07 0)
(0.177364 7.35786e-07 0)
(0.177365 1.04729e-06 0)
(0.177365 1.20649e-06 0)
(0.177365 1.25254e-06 0)
(0.177364 1.21179e-06 0)
(0.177364 1.10318e-06 0)
(0.177364 9.39367e-07 0)
(0.177364 7.27925e-07 0)
(0.177364 4.73053e-07 0)
(0.177364 1.7766e-07 0)
(0.177364 -1.54166e-07 0)
(0.177364 -5.1426e-07 0)
(0.177364 -8.86537e-07 0)
(0.177364 -1.24126e-06 0)
(0.177364 -1.52761e-06 0)
(0.177364 -1.66581e-06 0)
(0.177364 -1.55036e-06 0)
(0.177364 -1.11361e-06 0)
(0.219198 -5.61148e-07 0)
(0.219198 7.97782e-08 0)
(0.219199 5.88633e-07 0)
(0.219199 9.26037e-07 0)
(0.219199 1.12014e-06 0)
(0.219199 1.20227e-06 0)
(0.219199 1.19458e-06 0)
(0.219199 1.11419e-06 0)
(0.219199 9.73345e-07 0)
(0.219199 7.79985e-07 0)
(0.219199 5.39065e-07 0)
(0.219199 2.54288e-07 0)
(0.219199 -6.9717e-08 0)
(0.219199 -4.24677e-07 0)
(0.219199 -7.95016e-07 0)
(0.219199 -1.15234e-06 0)
(0.219198 -1.44822e-06 0)
(0.219198 -1.60881e-06 0)
(0.219198 -1.53784e-06 0)
(0.219198 -1.16688e-06 0)
(0.262395 -6.30578e-07 0)
(0.262395 -8.6786e-08 0)
(0.262395 3.71029e-07 0)
(0.262395 6.95945e-07 0)
(0.262396 9.02509e-07 0)
(0.262396 1.01215e-06 0)
(0.262396 1.04057e-06 0)
(0.262396 1.00103e-06 0)
(0.262396 9.03498e-07 0)
(0.262397 7.54759e-07 0)
(0.262397 5.59219e-07 0)
(0.262397 3.20231e-07 0)
(0.262396 4.17998e-08 0)
(0.262396 -2.69219e-07 0)
(0.262396 -6.00056e-07 0)
(0.262396 -9.27199e-07 0)
(0.262396 -1.20986e-06 0)
(0.262395 -1.38647e-06 0)
(0.262395 -1.37613e-06 0)
(0.262395 -1.11207e-06 0)
(0.307123 -6.40189e-07 0)
(0.307123 -2.43988e-07 0)
(0.307123 1.1653e-07 0)
(0.307123 3.92554e-07 0)
(0.307124 5.87042e-07 0)
(0.307124 7.11086e-07 0)
(0.307124 7.7286e-07 0)
(0.307125 7.80255e-07 0)
(0.307125 7.39554e-07 0)
(0.307125 6.5502e-07 0)
(0.307125 5.29339e-07 0)
(0.307125 3.64445e-07 0)
(0.307125 1.62615e-07 0)
(0.307125 -7.20835e-08 0)
(0.307125 -3.31592e-07 0)
(0.307124 -5.99999e-07 0)
(0.307124 -8.47959e-07 0)
(0.307123 -1.03063e-06 0)
(0.307123 -1.08685e-06 0)
(0.307123 -9.55235e-07 0)
(0.353514 -5.8612e-07 0)
(0.353514 -3.71854e-07 0)
(0.353514 -1.4421e-07 0)
(0.353514 5.23084e-08 0)
(0.353515 2.11526e-07 0)
(0.353515 3.34862e-07 0)
(0.353515 4.22757e-07 0)
(0.353516 4.77001e-07 0)
(0.353516 4.99234e-07 0)
(0.353516 4.90261e-07 0)
(0.353516 4.5015e-07 0)
(0.353516 3.78568e-07 0)
(0.353516 2.75205e-07 0)
(0.353516 1.40407e-07 0)
(0.353516 -2.36676e-08 0)
(0.353516 -2.1036e-07 0)
(0.353515 -4.04118e-07 0)
(0.353515 -5.79755e-07 0)
(0.353514 -6.99063e-07 0)
(0.353514 -7.09992e-07 0)
(0.40166 -4.71697e-07 0)
(0.40166 -4.56989e-07 0)
(0.40166 -3.84981e-07 0)
(0.40166 -2.90146e-07 0)
(0.401661 -1.85299e-07 0)
(0.401661 -7.74346e-08 0)
(0.401661 2.66091e-08 0)
(0.401662 1.22433e-07 0)
(0.401662 2.06651e-07 0)
(0.401662 2.761e-07 0)
(0.401663 3.27704e-07 0)
(0.401663 3.58371e-07 0)
(0.401663 3.64773e-07 0)
(0.401663 3.4315e-07 0)
(0.401662 2.894e-07 0)
(0.401662 2.00411e-07 0)
(0.401662 7.70264e-08 0)
(0.401661 -7.66301e-08 0)
(0.401661 -2.47632e-07 0)
(0.40166 -3.96974e-07 0)
(0.45161 -3.0769e-07 0)
(0.45161 -4.93644e-07 0)
(0.45161 -5.85957e-07 0)
(0.45161 -6.04688e-07 0)
(0.451611 -5.66941e-07 0)
(0.451611 -4.86715e-07 0)
(0.451611 -3.77226e-07 0)
(0.451612 -2.48659e-07 0)
(0.451612 -1.09341e-07 0)
(0.451612 3.35252e-08 0)
(0.451613 1.73613e-07 0)
(0.451613 3.05008e-07 0)
(0.451613 4.21425e-07 0)
(0.451613 5.15231e-07 0)
(0.451613 5.76502e-07 0)
(0.451612 5.92928e-07 0)
(0.451612 5.51097e-07 0)
(0.451611 4.34195e-07 0)
(0.451611 2.28676e-07 0)
(0.45161 -4.30466e-08 0)
(0.503369 -1.11841e-07 0)
(0.503369 -4.83912e-07 0)
(0.503369 -7.34673e-07 0)
(0.50337 -8.67365e-07 0)
(0.50337 -9.01401e-07 0)
(0.50337 -8.56453e-07 0)
(0.50337 -7.51007e-07 0)
(0.503371 -6.00322e-07 0)
(0.503371 -4.17206e-07 0)
(0.503371 -2.12559e-07 0)
(0.503372 4.34485e-09 0)
(0.503372 2.2514e-07 0)
(0.503372 4.41115e-07 0)
(0.503372 6.41567e-07 0)
(0.503372 8.11912e-07 0)
(0.503371 9.3217e-07 0)
(0.503371 9.7641e-07 0)
(0.503371 9.08506e-07 0)
(0.50337 6.88813e-07 0)
(0.50337 3.19885e-07 0)
(0.556898 9.24552e-08 0)
(0.556898 -4.36815e-07 0)
(0.556898 -8.25905e-07 0)
(0.556898 -1.06095e-06 0)
(0.556898 -1.16235e-06 0)
(0.556898 -1.1544e-06 0)
(0.556899 -1.05972e-06 0)
(0.556899 -8.9773e-07 0)
(0.556899 -6.84939e-07 0)
(0.556899 -4.35254e-07 0)
(0.556899 -1.60222e-07 0)
(0.5569 1.30081e-07 0)
(0.5569 4.25444e-07 0)
(0.5569 7.13363e-07 0)
(0.5569 9.7633e-07 0)
(0.556899 1.18904e-06 0)
(0.556899 1.31588e-06 0)
(0.556899 1.30449e-06 0)
(0.556899 1.09134e-06 0)
(0.556898 6.56637e-07 0)
(0.612112 2.78446e-07 0)
(0.612111 -3.66361e-07 0)
(0.612111 -8.60472e-07 0)
(0.612111 -1.17451e-06 0)
(0.612112 -1.32955e-06 0)
(0.612112 -1.3538e-06 0)
(0.612112 -1.27297e-06 0)
(0.612112 -1.10951e-06 0)
(0.612112 -8.82581e-07 0)
(0.612112 -6.08094e-07 0)
(0.612112 -2.98905e-07 0)
(0.612113 3.42034e-08 0)
(0.612113 3.80728e-07 0)
(0.612113 7.27918e-07 0)
(0.612113 1.05749e-06 0)
(0.612113 1.34171e-06 0)
(0.612112 1.53902e-06 0)
(0.612112 1.58527e-06 0)
(0.612112 1.39705e-06 0)
(0.612112 9.31375e-07 0)
(0.668884 4.19352e-07 0)
(0.668884 -2.88533e-07 0)
(0.668884 -8.42884e-07 0)
(0.668884 -1.2022e-06 0)
(0.668884 -1.3888e-06 0)
(0.668884 -1.43451e-06 0)
(0.668884 -1.36706e-06 0)
(0.668884 -1.21055e-06 0)
(0.668884 -9.85432e-07 0)
(0.668884 -7.0835e-07 0)
(0.668884 -3.92329e-07 0)
(0.668884 -4.77032e-08 0)
(0.668884 3.16042e-07 0)
(0.668884 6.87569e-07 0)
(0.668885 1.05006e-06 0)
(0.668885 1.37653e-06 0)
(0.668885 1.62376e-06 0)
(0.668885 1.72147e-06 0)
(0.668884 1.57199e-06 0)
(0.668884 1.11118e-06 0)
(0.72705 4.92816e-07 0)
(0.72705 -2.17444e-07 0)
(0.72705 -7.7775e-07 0)
(0.72705 -1.14088e-06 0)
(0.72705 -1.33127e-06 0)
(0.72705 -1.38387e-06 0)
(0.72705 -1.32699e-06 0)
(0.727049 -1.18477e-06 0)
(0.727049 -9.77234e-07 0)
(0.727049 -7.20378e-07 0)
(0.727049 -4.2616e-07 0)
(0.727049 -1.03292e-07 0)
(0.727049 2.41e-07 0)
(0.72705 5.98276e-07 0)
(0.72705 9.55184e-07 0)
(0.72705 1.28842e-06 0)
(0.72705 1.55768e-06 0)
(0.72705 1.69311e-06 0)
(0.72705 1.5904e-06 0)
(0.72705 1.16953e-06 0)
(0.786408 4.84005e-07 0)
(0.786408 -1.60885e-07 0)
(0.786408 -6.64963e-07 0)
(0.786408 -9.85369e-07 0)
(0.786408 -1.14941e-06 0)
(0.786408 -1.19351e-06 0)
(0.786407 -1.1443e-06 0)
(0.786407 -1.02369e-06 0)
(0.786407 -8.49471e-07 0)
(0.786407 -6.35455e-07 0)
(0.786407 -3.91331e-07 0)
(0.786407 -1.23175e-07 0)
(0.786407 1.64975e-07 0)
(0.786407 4.68556e-07 0)
(0.786407 7.79014e-07 0)
(0.786407 1.07909e-06 0)
(0.786407 1.33574e-06 0)
(0.786408 1.4868e-06 0)
(0.786408 1.43243e-06 0)
(0.786408 1.0849e-06 0)
(0.846727 3.83659e-07 0)
(0.846727 -1.21686e-07 0)
(0.846727 -5.05155e-07 0)
(0.846727 -7.37186e-07 0)
(0.846726 -8.48301e-07 0)
(0.846726 -8.72271e-07 0)
(0.846726 -8.3046e-07 0)
(0.846725 -7.39611e-07 0)
(0.846725 -6.13169e-07 0)
(0.846725 -4.61446e-07 0)
(0.846725 -2.9104e-07 0)
(0.846725 -1.04818e-07 0)
(0.846725 9.66701e-08 0)
(0.846725 3.12626e-07 0)
(0.846725 5.39023e-07 0)
(0.846725 7.65463e-07 0)
(0.846726 9.70294e-07 0)
(0.846726 1.10774e-06 0)
(0.846727 1.09694e-06 0)
(0.846727 8.51181e-07 0)
(0.90775 2.17035e-07 0)
(0.90775 -8.04804e-08 0)
(0.90775 -2.89516e-07 0)
(0.90775 -4.0561e-07 0)
(0.907749 -4.53189e-07 0)
(0.907749 -4.56835e-07 0)
(0.907748 -4.28747e-07 0)
(0.907748 -3.77966e-07 0)
(0.907748 -3.11675e-07 0)
(0.907747 -2.35303e-07 0)
(0.907747 -1.51821e-07 0)
(0.907747 -6.13985e-08 0)
(0.907747 3.76232e-08 0)
(0.907747 1.46483e-07 0)
(0.907748 2.63828e-07 0)
(0.907748 3.85236e-07 0)
(0.907748 5.02391e-07 0)
(0.907749 5.91685e-07 0)
(0.907749 6.08876e-07 0)
(0.90775 4.79632e-07 0)
(0.969202 5.33484e-08 0)
(0.969202 -3.68313e-08 0)
(0.969202 -9.09268e-08 0)
(0.969202 -1.15741e-07 0)
(0.969202 -1.22378e-07 0)
(0.969201 -1.19173e-07 0)
(0.969201 -1.09227e-07 0)
(0.969201 -9.45778e-08 0)
(0.969201 -7.69477e-08 0)
(0.969201 -5.77608e-08 0)
(0.969201 -3.76583e-08 0)
(0.969201 -1.61821e-08 0)
(0.9692 7.80785e-09 0)
(0.969201 3.51136e-08 0)
(0.969201 6.5419e-08 0)
(0.969201 9.77753e-08 0)
(0.969201 1.31311e-07 0)
(0.969201 1.60747e-07 0)
(0.969202 1.73256e-07 0)
(0.969202 1.41104e-07 0)
)
;

boundaryField
{
    movingWall
    {
        type            fixedValue;
        value           uniform (1 0 0);
    }
    fixedWalls
    {
        type            noSlip;
    }
    left
    {
        type            cyclic;
    }
    right
    {
        type            cyclic;
    }
    frontAndBack
    {
        type            empty;
    }
}


// ************************************************************************* //
