/*--------------------------------*- C++ -*----------------------------------*\
  =========                 |
  \\      /  F ield         | OpenFOAM: The Open Source CFD Toolbox
   \\    /   O peration     | Website:  https://openfoam.org
    \\  /    A nd           | Version:  8
     \\/     M anipulation  |
\*---------------------------------------------------------------------------*/
FoamFile
{
    version     2.0;
    format      ascii;
    class       volVectorField;
    location    "2";
    object      U;
}
// * * * * * * * * * * * * * * * * * * * * * * * * * * * * * * * * * * * * * //

dimensions      [0 1 -1 0 0 0 0];

internalField   nonuniform List<vector> 
116
(
(-0.000847126 0.000803535 0)
(-0.00257383 0.000804584 0)
(-0.00414448 0.000653471 0)
(-0.00531914 0.000438957 0)
(-0.0059681 0.000185851 0)
(-0.00631011 3.37383e-06 0)
(-0.00102146 0.00263375 0)
(-0.00308071 0.00262737 0)
(-0.00493893 0.00213939 0)
(-0.00633138 0.00145796 0)
(-0.00714178 0.000670177 0)
(-0.00756688 -0.000197877 0)
(-0.001218 0.00486221 0)
(-0.00362559 0.0047968 0)
(-0.00576311 0.00389541 0)
(-0.00734615 0.0026508 0)
(-0.00825003 0.00122828 0)
(-0.00850835 -0.000346422 0)
(-0.00158192 0.00734405 0)
(-0.00456235 0.00725513 0)
(-0.00711448 0.00590689 0)
(-0.00901928 0.00401747 0)
(-0.0101613 0.00188803 0)
(-0.0105165 -0.000453379 0)
(-0.00205114 0.0113864 0)
(-0.00582785 0.010562 0)
(-0.00901868 0.00849702 0)
(-0.0113669 0.00570308 0)
(-0.0127201 0.00265701 0)
(-0.0133275 -0.000754673 0)
(-0.0035536 0.014235 0)
(-0.00862323 0.0138447 0)
(-0.0119884 0.01128 0)
(-0.0148662 0.00774007 0)
(-0.0166225 0.00409502 0)
(-0.0174547 0.000195765 0)
(-0.00380823 0.0255302 0)
(-0.0103015 0.0192604 0)
(-0.0151334 0.0156678 0)
(-0.0185645 0.0099151 0)
(-0.0202471 0.00493407 0)
(-0.0215217 -0.00049749 0)
(-0.0109874 0.0252476 0)
(-0.0209481 0.025445 0)
(-0.0211445 0.0194958 0)
(-0.0256185 0.0133844 0)
(-0.0269101 0.00806154 0)
(-0.0285795 0.00285914 0)
(-0.0305576 0.0640791 0)
(-0.0276085 0.0246153 0)
(-0.0289808 0.0214083 0)
(-0.026996 0.0124821 0)
(-0.0246145 0.00716398 0)
(-0.0216269 0.0019723 0)
(0.072659 0.0719002 0)
(0.0761934 0.0292141 0)
(0.11321 0.0186541 0)
(0.125005 0.01051 0)
(0.131583 0.00549502 0)
(0.139419 0.00136465 0)
(-0.0054537 0.00184061 0)
(-0.00362063 -4.53397e-05 0)
(-0.00224853 -0.00141454 0)
(-0.000722379 -0.00188404 0)
(-0.00653906 -0.000791282 0)
(-0.00458995 -0.00225 0)
(-0.00290036 -0.00335781 0)
(-0.000974005 -0.00370518 0)
(-0.00780609 -0.0016962 0)
(-0.00620969 -0.00371306 0)
(-0.00408603 -0.00533883 0)
(-0.00143734 -0.0059657 0)
(-0.00991551 -0.00293254 0)
(-0.00825709 -0.00573104 0)
(-0.00576874 -0.0079815 0)
(-0.00219451 -0.00921476 0)
(-0.0130791 -0.00427387 0)
(-0.0113037 -0.00836603 0)
(-0.00851182 -0.0116963 0)
(-0.00359577 -0.0144116 0)
(-0.017526 -0.00411773 0)
(-0.0157874 -0.00989635 0)
(-0.0132229 -0.0140529 0)
(-0.00637169 -0.0207174 0)
(-0.0230745 -0.00641396 0)
(-0.0213438 -0.015183 0)
(-0.0209332 -0.0222023 0)
(-0.0120744 -0.0367832 0)
(-0.0316879 -0.00116187 0)
(-0.0308318 -0.0117165 0)
(-0.0345827 -0.0164809 0)
(-0.0177104 -0.0507063 0)
(-0.0248743 -0.00369372 0)
(-0.015177 -0.0192781 0)
(-0.0279635 -0.0377664 0)
(0.00198605 -0.102051 0)
(0.129554 -0.00169952 0)
(0.141164 -0.00983216 0)
(0.086886 -0.0181483 0)
(0.0976013 -0.0619896 0)
(-0.000112356 -5.59451e-05 0)
(-0.000247985 -9.67878e-05 0)
(-0.000217674 -0.000115137 0)
(-8.2059e-05 -0.000117949 0)
(-0.000162891 0.000454939 0)
(-0.000330425 0.000220195 0)
(-0.000270744 -4.40982e-05 0)
(-0.000103226 -0.000167304 0)
(-0.000404399 0.000350045 0)
(-0.000816574 -3.40223e-05 0)
(-0.000648236 -0.000400109 0)
(-0.000232988 -0.000551193 0)
(-0.000716453 0.00192923 0)
(-0.00113775 0.0005483 0)
(-0.00084923 -0.00055588 0)
(-0.000309845 -0.000950642 0)
)
;

boundaryField
{
    movingWall
    {
        type            fixedValue;
        value           uniform (1 0 0);
    }
    fixedWalls
    {
        type            noSlip;
    }
    frontAndBack
    {
        type            empty;
    }
}


// ************************************************************************* //
