0 	-3.1109e-10
1.57135 	2.29539e-06
3.1427 	3.76876e-05
4.71405 	0.000190994
6.28539 	0.000593352
7.85674 	0.00139393
9.42809 	0.00274392
10.9994 	0.00489504
12.5708 	0.00873929
14.1421 	0.0348805
