/*--------------------------------*- C++ -*----------------------------------*\
  =========                 |
  \\      /  F ield         | OpenFOAM: The Open Source CFD Toolbox
   \\    /   O peration     | Website:  https://openfoam.org
    \\  /    A nd           | Version:  8
     \\/     M anipulation  |
\*---------------------------------------------------------------------------*/
FoamFile
{
    version     2.0;
    format      ascii;
    class       surfaceScalarField;
    location    "1.68";
    object      phi;
}
// * * * * * * * * * * * * * * * * * * * * * * * * * * * * * * * * * * * * * //

dimensions      [0 3 -1 0 0 0 0];

internalField   nonuniform List<scalar> 
760
(
1.24962e-06
9.27926e-22
1.24962e-06
1.91875e-21
1.24962e-06
4.82744e-23
1.24962e-06
4.70388e-22
1.24962e-06
-1.40545e-22
1.24962e-06
-3.50383e-22
1.24962e-06
-6.18748e-22
1.24962e-06
-1.10523e-21
1.24962e-06
-1.25694e-21
1.24962e-06
-1.39351e-21
1.24962e-06
-1.24042e-21
1.24962e-06
-1.1528e-21
1.24962e-06
-1.16661e-21
1.24962e-06
-1.6401e-21
1.24962e-06
-1.99868e-21
1.24962e-06
-1.51246e-21
1.24962e-06
-8.39288e-22
1.24962e-06
-3.85067e-22
1.24962e-06
-1.67288e-22
1.85998e-21
3.74888e-06
6.52535e-21
3.74888e-06
5.90168e-21
3.74888e-06
3.85442e-21
3.74888e-06
2.53865e-21
3.74888e-06
4.39307e-22
3.74888e-06
-1.32245e-21
3.74888e-06
-2.16675e-21
3.74888e-06
-2.59988e-21
3.74888e-06
-3.82609e-21
3.74888e-06
-3.42486e-21
3.74888e-06
-3.679e-21
3.74888e-06
-4.54268e-21
3.74888e-06
-4.66717e-21
3.74888e-06
-3.94358e-21
3.74888e-06
-3.78428e-21
3.74888e-06
-2.86958e-21
3.74888e-06
-1.14733e-21
3.74888e-06
5.48922e-22
3.74888e-06
2.23301e-21
4.69565e-21
6.24816e-06
1.24088e-20
6.24816e-06
9.83223e-21
6.24816e-06
7.66442e-21
6.24816e-06
4.48365e-21
6.24816e-06
1.84971e-21
6.24816e-06
-1.84846e-21
6.24816e-06
-3.5334e-21
6.24816e-06
-5.65504e-21
6.24816e-06
-7.11556e-21
6.24816e-06
-7.86129e-21
6.24816e-06
-7.11675e-21
6.24816e-06
-8.91509e-21
6.24816e-06
-8.98342e-21
6.24816e-06
-8.03899e-21
6.24816e-06
-5.80128e-21
6.24816e-06
-3.2315e-21
6.24816e-06
2.96775e-22
6.24816e-06
3.83676e-21
6.24816e-06
6.03448e-21
1.03024e-20
8.74749e-06
1.49213e-20
8.74749e-06
1.44813e-20
8.74749e-06
1.09541e-20
8.74749e-06
6.13779e-21
8.74749e-06
1.47748e-21
8.74749e-06
-1.61843e-21
8.74749e-06
-5.70204e-21
8.74749e-06
-7.81803e-21
8.74749e-06
-1.05264e-20
8.74749e-06
-1.23671e-20
8.74749e-06
-1.35244e-20
8.74749e-06
-1.30868e-20
8.74749e-06
-1.33103e-20
8.74749e-06
-1.19126e-20
8.74749e-06
-7.92692e-21
8.74749e-06
-3.6774e-21
8.74749e-06
1.62784e-21
8.74749e-06
8.32446e-21
8.74749e-06
1.46429e-20
1.55647e-20
1.12469e-05
2.09517e-20
1.12469e-05
1.75312e-20
1.12469e-05
1.36292e-20
1.12469e-05
7.63065e-21
1.12469e-05
1.87303e-21
1.12469e-05
-4.06281e-21
1.12469e-05
-7.3587e-21
1.12469e-05
-1.21276e-20
1.12469e-05
-1.41299e-20
1.12469e-05
-1.63191e-20
1.12469e-05
-1.65047e-20
1.12469e-05
-1.82169e-20
1.12469e-05
-1.72533e-20
1.12469e-05
-1.40359e-20
1.12469e-05
-7.93673e-21
1.12469e-05
-1.58578e-21
1.12469e-05
7.36354e-21
1.12469e-05
1.1903e-20
1.12469e-05
1.69036e-20
2.15281e-20
1.37463e-05
2.37284e-20
1.37463e-05
2.10084e-20
1.37463e-05
1.52274e-20
1.37463e-05
7.89986e-21
1.37463e-05
2.43489e-22
1.37463e-05
-5.22034e-21
1.37463e-05
-1.13023e-20
1.37463e-05
-1.42436e-20
1.37463e-05
-1.72477e-20
1.37463e-05
-1.99983e-20
1.37463e-05
-2.12573e-20
1.37463e-05
-2.00567e-20
1.37463e-05
-1.8577e-20
1.37463e-05
-1.5313e-20
1.37463e-05
-7.40015e-21
1.37463e-05
1.80931e-21
1.37463e-05
9.79232e-21
1.37463e-05
1.63696e-20
1.37463e-05
2.1497e-20
2.21364e-20
1.62459e-05
2.50552e-20
1.62459e-05
2.09262e-20
1.62459e-05
1.37719e-20
1.62459e-05
7.03669e-21
1.62459e-05
-2.05205e-22
1.62459e-05
-9.46948e-21
1.62459e-05
-1.16998e-20
1.62459e-05
-1.41846e-20
1.62459e-05
-1.98173e-20
1.62459e-05
-2.36995e-20
1.62459e-05
-2.56557e-20
1.62459e-05
-2.2266e-20
1.62459e-05
-1.792e-20
1.62459e-05
-9.35074e-21
1.62459e-05
-3.83432e-21
1.62459e-05
5.1451e-21
1.62459e-05
1.29956e-20
1.62459e-05
1.98835e-20
1.62459e-05
2.34841e-20
2.69158e-20
1.87456e-05
2.43772e-20
1.87456e-05
2.05425e-20
1.87456e-05
1.32894e-20
1.87456e-05
4.92783e-21
1.87456e-05
-3.43652e-21
1.87456e-05
-7.3502e-21
1.87456e-05
-1.54808e-20
1.87456e-05
-1.7333e-20
1.87456e-05
-1.99853e-20
1.87456e-05
-2.475e-20
1.87456e-05
-2.64135e-20
1.87456e-05
-2.46389e-20
1.87456e-05
-1.55129e-20
1.87456e-05
-7.46193e-21
1.87456e-05
8.13454e-22
1.87456e-05
9.38071e-21
1.87456e-05
1.37326e-20
1.87456e-05
2.1729e-20
1.87456e-05
2.51109e-20
2.62028e-20
2.12453e-05
2.50693e-20
2.12453e-05
2.06988e-20
2.12453e-05
1.11503e-20
2.12453e-05
9.9772e-22
2.12453e-05
-7.5116e-21
2.12453e-05
-9.33398e-21
2.12453e-05
-1.19976e-20
2.12453e-05
-1.99685e-20
2.12453e-05
-2.25486e-20
2.12453e-05
-2.44525e-20
2.12453e-05
-2.71457e-20
2.12453e-05
-2.08165e-20
2.12453e-05
-1.44451e-20
2.12453e-05
-7.10886e-21
2.12453e-05
2.37115e-21
2.12453e-05
7.59499e-21
2.12453e-05
1.46298e-20
2.12453e-05
1.90183e-20
2.12453e-05
2.45386e-20
2.772e-20
2.37452e-05
2.18226e-20
2.37452e-05
1.59642e-20
2.37452e-05
7.54251e-21
2.37452e-05
-1.57806e-21
2.37452e-05
-8.24761e-21
2.37452e-05
-1.14877e-20
2.37452e-05
-1.48203e-20
2.37452e-05
-1.62426e-20
2.37452e-05
-2.03921e-20
2.37452e-05
-2.20952e-20
2.37452e-05
-1.81721e-20
2.37452e-05
-1.70031e-20
2.37452e-05
-1.40467e-20
2.37452e-05
-6.68207e-21
2.37452e-05
1.99894e-21
2.37452e-05
1.18726e-20
2.37452e-05
1.59009e-20
2.37452e-05
1.77088e-20
2.37452e-05
2.37675e-20
2.47195e-20
2.62452e-05
1.80784e-20
2.62452e-05
1.02067e-20
2.62452e-05
7.0784e-21
2.62452e-05
-3.23761e-22
2.62452e-05
-4.08674e-21
2.62452e-05
-8.32838e-21
2.62452e-05
-1.47655e-20
2.62452e-05
-2.00686e-20
2.62452e-05
-1.9705e-20
2.62452e-05
-1.84611e-20
2.62452e-05
-1.42111e-20
2.62452e-05
-1.03361e-20
2.62452e-05
-1.05603e-20
2.62452e-05
-5.68924e-21
2.62452e-05
2.22778e-21
2.62452e-05
6.73033e-21
2.62452e-05
1.58825e-20
2.62452e-05
1.85579e-20
2.62452e-05
1.78126e-20
2.00134e-20
2.87453e-05
7.63605e-21
2.87453e-05
7.06977e-21
2.87453e-05
1.40287e-21
2.87453e-05
-9.79706e-22
2.87453e-05
-2.79745e-21
2.87453e-05
-9.83331e-21
2.87453e-05
-1.29611e-20
2.87453e-05
-1.18479e-20
2.87453e-05
-1.6582e-20
2.87453e-05
-1.53948e-20
2.87453e-05
-1.17294e-20
2.87453e-05
-4.59182e-21
2.87453e-05
-9.27354e-23
2.87453e-05
2.61141e-21
2.87453e-05
4.51305e-21
2.87453e-05
7.46122e-21
2.87453e-05
9.56442e-21
2.87453e-05
1.4098e-20
2.87453e-05
1.46312e-20
1.05042e-20
3.12456e-05
4.24861e-21
3.12456e-05
1.05103e-21
3.12456e-05
-2.69676e-21
3.12456e-05
-6.36319e-21
3.12456e-05
-9.95333e-21
3.12456e-05
-8.67853e-21
3.12456e-05
-1.29041e-20
3.12456e-05
-1.27101e-20
3.12456e-05
-1.07335e-20
3.12456e-05
-6.62837e-21
3.12456e-05
-3.66643e-21
3.12456e-05
-5.1079e-22
3.12456e-05
5.0542e-21
3.12456e-05
6.89167e-21
3.12456e-05
9.73956e-21
3.12456e-05
9.6307e-21
3.12456e-05
6.13643e-21
3.12456e-05
8.80796e-21
3.12456e-05
9.31439e-21
6.65458e-21
3.37459e-05
-3.02784e-21
3.37459e-05
-4.29945e-21
3.37459e-05
-8.25006e-21
3.37459e-05
-8.16071e-21
3.37459e-05
-6.82398e-21
3.37459e-05
-8.70395e-21
3.37459e-05
-9.9482e-21
3.37459e-05
-1.08613e-20
3.37459e-05
-6.16341e-21
3.37459e-05
-2.05487e-21
3.37459e-05
-5.23048e-22
3.37459e-05
3.77117e-21
3.37459e-05
8.6779e-21
3.37459e-05
1.02859e-20
3.37459e-05
1.40062e-20
3.37459e-05
1.36377e-20
3.37459e-05
1.06531e-20
3.37459e-05
8.00914e-21
3.37459e-05
5.25964e-21
-2.3113e-21
3.62463e-05
-9.1539e-21
3.62463e-05
-9.35142e-21
3.62463e-05
-6.83883e-21
3.62463e-05
-9.65572e-21
3.62463e-05
-1.17233e-20
3.62463e-05
-1.56091e-20
3.62463e-05
-1.3207e-20
3.62463e-05
-9.04376e-21
3.62463e-05
-4.74434e-21
3.62463e-05
-2.10385e-21
3.62463e-05
4.35532e-21
3.62463e-05
9.53203e-21
3.62463e-05
1.17702e-20
3.62463e-05
1.34775e-20
3.62463e-05
1.1939e-20
3.62463e-05
1.07201e-20
3.62463e-05
7.81603e-21
3.62463e-05
8.85649e-21
3.62463e-05
2.11268e-21
-2.1036e-21
3.87469e-05
-5.51259e-21
3.87469e-05
-8.2311e-21
3.87469e-05
-7.04175e-21
3.87469e-05
-5.84186e-21
3.87469e-05
-8.02923e-21
3.87469e-05
-1.32047e-20
3.87469e-05
-1.55914e-20
3.87469e-05
-1.1918e-20
3.87469e-05
-2.69195e-21
3.87469e-05
-3.90685e-22
3.87469e-05
7.58687e-22
3.87469e-05
9.56553e-21
3.87469e-05
1.66804e-20
3.87469e-05
1.64505e-20
3.87469e-05
8.5539e-21
3.87469e-05
7.61637e-21
3.87469e-05
9.03997e-21
3.87469e-05
-1.28122e-21
3.87469e-05
-1.15461e-21
-3.01545e-21
4.12475e-05
-1.29974e-21
4.12475e-05
-3.57572e-21
4.12475e-05
-3.62599e-21
4.12475e-05
-1.52555e-21
4.12475e-05
-3.46352e-21
4.12475e-05
-1.12072e-20
4.12475e-05
-1.3896e-20
4.12475e-05
-9.01623e-21
4.12475e-05
-5.2865e-21
4.12475e-05
-3.27178e-21
4.12475e-05
2.06713e-21
4.12475e-05
8.81869e-21
4.12475e-05
1.17029e-20
4.12475e-05
1.23352e-20
4.12475e-05
1.12453e-20
4.12475e-05
5.92474e-21
4.12475e-05
3.23053e-21
4.12475e-05
-3.34803e-21
4.12475e-05
-5.84718e-21
-3.02121e-21
4.37482e-05
-2.09873e-21
4.37482e-05
-9.45473e-22
4.37482e-05
2.21702e-21
4.37482e-05
3.26654e-21
4.37482e-05
-2.469e-21
4.37482e-05
-6.05045e-21
4.37482e-05
-8.65601e-21
4.37482e-05
-1.46222e-20
4.37482e-05
-3.77705e-21
4.37482e-05
3.00806e-21
4.37482e-05
1.61806e-21
4.37482e-05
3.00691e-21
4.37482e-05
9.2262e-21
4.37482e-05
9.98215e-21
4.37482e-05
1.23127e-21
4.37482e-05
-5.94834e-22
4.37482e-05
-2.26136e-21
4.37482e-05
2.36906e-21
4.37482e-05
1.39345e-21
3.68745e-23
4.62489e-05
1.96256e-21
4.62489e-05
-1.04003e-21
4.62489e-05
2.47203e-21
4.62489e-05
9.72053e-21
4.62489e-05
2.9573e-22
4.62489e-05
-2.20169e-21
4.62489e-05
-3.98788e-21
4.62489e-05
-6.25869e-21
4.62489e-05
-5.00381e-21
4.62489e-05
8.48725e-22
4.62489e-05
3.57425e-21
4.62489e-05
-7.0248e-22
4.62489e-05
2.38739e-23
4.62489e-05
5.86987e-22
4.62489e-05
3.82678e-21
4.62489e-05
2.9645e-21
4.62489e-05
-3.2799e-21
4.62489e-05
-4.31321e-21
4.62489e-05
-2.28379e-21
2.03809e-21
4.87496e-05
4.87496e-05
4.87496e-05
4.87496e-05
4.87496e-05
4.87496e-05
4.87496e-05
4.87496e-05
4.87496e-05
4.87496e-05
4.87496e-05
4.87496e-05
4.87496e-05
4.87496e-05
4.87496e-05
4.87496e-05
4.87496e-05
4.87496e-05
4.87496e-05
)
;

boundaryField
{
    movingWall
    {
        type            calculated;
        value           uniform 0;
    }
    fixedWalls
    {
        type            calculated;
        value           uniform 0;
    }
    left
    {
        type            cyclic;
        value           nonuniform List<scalar> 
20
(
-3.87469e-05
-3.62463e-05
-3.37459e-05
-3.12456e-05
-2.87453e-05
-2.62452e-05
-2.37452e-05
-2.12453e-05
-1.87456e-05
-1.62459e-05
-1.37463e-05
-1.12469e-05
-8.74749e-06
-6.24816e-06
-3.74888e-06
-1.24962e-06
-4.12475e-05
-4.37482e-05
-4.62489e-05
-4.87496e-05
)
;
    }
    right
    {
        type            cyclic;
        value           nonuniform List<scalar> 
20
(
3.87469e-05
3.62463e-05
3.37459e-05
3.12456e-05
2.87453e-05
2.62452e-05
2.37452e-05
2.12453e-05
1.87456e-05
1.62459e-05
1.37463e-05
1.12469e-05
8.74749e-06
6.24816e-06
3.74888e-06
1.24962e-06
4.12475e-05
4.37482e-05
4.62489e-05
4.87496e-05
)
;
    }
    frontAndBack
    {
        type            empty;
        value           nonuniform List<scalar> 0();
    }
}


// ************************************************************************* //
