/*--------------------------------*- C++ -*----------------------------------*\
  =========                 |
  \\      /  F ield         | OpenFOAM: The Open Source CFD Toolbox
   \\    /   O peration     | Website:  https://openfoam.org
    \\  /    A nd           | Version:  8
     \\/     M anipulation  |
\*---------------------------------------------------------------------------*/
FoamFile
{
    version     2.0;
    format      ascii;
    class       volVectorField;
    location    "22.5";
    object      U;
}
// * * * * * * * * * * * * * * * * * * * * * * * * * * * * * * * * * * * * * //

dimensions      [0 1 -1 0 0 0 0];

internalField   nonuniform List<vector> 
11600
(
(-2.39194e-06 2.33423e-06 0)
(-2.99121e-05 1.07246e-05 0)
(-7.71007e-05 1.3608e-05 0)
(-0.000123659 1.42623e-05 0)
(-0.000172401 1.42423e-05 0)
(-0.000220786 1.41513e-05 0)
(-0.00026903 1.41021e-05 0)
(-0.000317181 1.40806e-05 0)
(-0.000365234 1.40715e-05 0)
(-0.000413184 1.40672e-05 0)
(-0.000461021 1.40641e-05 0)
(-0.000508732 1.40608e-05 0)
(-0.000556304 1.40563e-05 0)
(-0.000603721 1.40503e-05 0)
(-0.000650967 1.40424e-05 0)
(-0.000698025 1.40323e-05 0)
(-0.00074488 1.40198e-05 0)
(-0.000791514 1.40045e-05 0)
(-0.000837908 1.39862e-05 0)
(-0.000884044 1.39646e-05 0)
(-0.000929905 1.39394e-05 0)
(-0.000975469 1.39103e-05 0)
(-0.00102072 1.3877e-05 0)
(-0.00106563 1.38392e-05 0)
(-0.00111019 1.37966e-05 0)
(-0.00115437 1.3749e-05 0)
(-0.00119815 1.36959e-05 0)
(-0.00124151 1.36371e-05 0)
(-0.00128443 1.35724e-05 0)
(-0.00132688 1.35017e-05 0)
(-0.00136885 1.34246e-05 0)
(-0.00141031 1.33411e-05 0)
(-0.00145125 1.32512e-05 0)
(-0.00149163 1.31549e-05 0)
(-0.00153145 1.30524e-05 0)
(-0.00157068 1.29441e-05 0)
(-0.00160932 1.28305e-05 0)
(-0.00164734 1.27124e-05 0)
(-0.00168475 1.2591e-05 0)
(-0.00172154 1.24677e-05 0)
(-0.00175771 1.23446e-05 0)
(-0.00179329 1.22244e-05 0)
(-0.00182829 1.21107e-05 0)
(-0.00186276 1.20079e-05 0)
(-0.00189676 1.19223e-05 0)
(-0.00193038 1.18614e-05 0)
(-0.00196374 1.18353e-05 0)
(-0.00199702 1.18566e-05 0)
(-0.00203045 1.1941e-05 0)
(-0.00206435 1.21066e-05 0)
(-0.00209919 1.23728e-05 0)
(-0.00213559 1.27555e-05 0)
(-0.00217444 1.32594e-05 0)
(-0.00221711 1.38658e-05 0)
(-0.00226605 1.45929e-05 0)
(-0.00232361 1.6216e-05 0)
(-0.00238707 2.27594e-05 0)
(-0.00254316 4.6851e-05 0)
(-0.00260331 0.000226 0)
(-0.00345078 0.000780088 0)
(-1.09415e-05 2.99784e-05 0)
(-6.74252e-05 6.69658e-05 0)
(-0.000154266 8.0092e-05 0)
(-0.000240587 8.36277e-05 0)
(-0.00033051 8.41592e-05 0)
(-0.000420208 8.40657e-05 0)
(-0.000509742 8.38964e-05 0)
(-0.0005991 8.37173e-05 0)
(-0.000688214 8.35244e-05 0)
(-0.000777038 8.33107e-05 0)
(-0.000865534 8.30719e-05 0)
(-0.00095366 8.28055e-05 0)
(-0.00104138 8.251e-05 0)
(-0.00112865 8.21845e-05 0)
(-0.00121542 8.18281e-05 0)
(-0.00130167 8.144e-05 0)
(-0.00138734 8.10196e-05 0)
(-0.0014724 8.05661e-05 0)
(-0.0015568 8.00789e-05 0)
(-0.0016405 7.95572e-05 0)
(-0.00172346 7.90003e-05 0)
(-0.00180562 7.84076e-05 0)
(-0.00188696 7.77784e-05 0)
(-0.00196743 7.7112e-05 0)
(-0.00204697 7.64081e-05 0)
(-0.00212555 7.56661e-05 0)
(-0.00220313 7.48856e-05 0)
(-0.00227966 7.40666e-05 0)
(-0.0023551 7.32091e-05 0)
(-0.0024294 7.23132e-05 0)
(-0.00250253 7.13797e-05 0)
(-0.00257444 7.04094e-05 0)
(-0.0026451 6.94039e-05 0)
(-0.00271448 6.83653e-05 0)
(-0.00278253 6.72965e-05 0)
(-0.00284924 6.62014e-05 0)
(-0.00291458 6.50849e-05 0)
(-0.00297854 6.39539e-05 0)
(-0.00304111 6.28168e-05 0)
(-0.00310229 6.16849e-05 0)
(-0.0031621 6.05723e-05 0)
(-0.00322058 5.94979e-05 0)
(-0.00327779 5.84855e-05 0)
(-0.00333381 5.75667e-05 0)
(-0.00338877 5.67829e-05 0)
(-0.00344285 5.61893e-05 0)
(-0.00349629 5.586e-05 0)
(-0.00354942 5.58971e-05 0)
(-0.00360272 5.64426e-05 0)
(-0.00365681 5.76992e-05 0)
(-0.00371262 5.99632e-05 0)
(-0.00377143 6.3683e-05 0)
(-0.00383512 6.95618e-05 0)
(-0.00390668 7.87562e-05 0)
(-0.0039908 9.34244e-05 0)
(-0.00409296 0.000118474 0)
(-0.00422334 0.000164687 0)
(-0.00443315 0.000255278 0)
(-0.00460458 0.000541509 0)
(-0.00511494 0.000988376 0)
(-1.39669e-05 7.7723e-05 0)
(-8.11292e-05 0.000154065 0)
(-0.000182502 0.000181199 0)
(-0.000282893 0.000188673 0)
(-0.000387163 0.00019007 0)
(-0.000491141 0.000190024 0)
(-0.000594895 0.000189665 0)
(-0.000698411 0.000189201 0)
(-0.000801607 0.000188662 0)
(-0.000904426 0.000188048 0)
(-0.00100682 0.000187358 0)
(-0.00110873 0.000186589 0)
(-0.00121012 0.00018574 0)
(-0.00131092 0.000184809 0)
(-0.00141109 0.000183795 0)
(-0.00151057 0.000182697 0)
(-0.00160932 0.000181514 0)
(-0.00170728 0.000180246 0)
(-0.0018044 0.00017889 0)
(-0.00190063 0.000177447 0)
(-0.00199591 0.000175916 0)
(-0.00209019 0.000174295 0)
(-0.00218342 0.000172584 0)
(-0.00227554 0.000170783 0)
(-0.0023665 0.000168891 0)
(-0.00245626 0.000166908 0)
(-0.00254475 0.000164834 0)
(-0.00263193 0.00016267 0)
(-0.00271775 0.000160416 0)
(-0.00280216 0.000158075 0)
(-0.0028851 0.000155649 0)
(-0.00296654 0.000153141 0)
(-0.00304643 0.000150555 0)
(-0.00312473 0.000147897 0)
(-0.0032014 0.000145175 0)
(-0.00327642 0.000142398 0)
(-0.00334975 0.000139579 0)
(-0.00342138 0.000136734 0)
(-0.00349131 0.000133882 0)
(-0.00355953 0.000131051 0)
(-0.00362606 0.000128272 0)
(-0.00369095 0.000125587 0)
(-0.00375426 0.000123052 0)
(-0.00381608 0.000120736 0)
(-0.00387654 0.000118733 0)
(-0.00393582 0.000117164 0)
(-0.00399419 0.000116194 0)
(-0.00405198 0.000116048 0)
(-0.00410965 0.000117039 0)
(-0.00416781 0.000119611 0)
(-0.0042273 0.000124411 0)
(-0.00428926 0.000132412 0)
(-0.00435522 0.000145124 0)
(-0.0044274 0.000164978 0)
(-0.00450873 0.0001962 0)
(-0.00460221 0.00024656 0)
(-0.00471361 0.000329457 0)
(-0.00485743 0.000472989 0)
(-0.00495504 0.000763785 0)
(-0.00514009 0.00116315 0)
(-1.46922e-05 0.000125118 0)
(-8.50431e-05 0.000241094 0)
(-0.000190786 0.000281833 0)
(-0.000295121 0.000292835 0)
(-0.000403415 0.00029488 0)
(-0.000511358 0.000294784 0)
(-0.000619057 0.000294195 0)
(-0.000726505 0.000293427 0)
(-0.000833615 0.000292528 0)
(-0.000940324 0.000291502 0)
(-0.00104658 0.000290346 0)
(-0.00115232 0.000289059 0)
(-0.00125749 0.000287639 0)
(-0.00136205 0.000286084 0)
(-0.00146593 0.000284394 0)
(-0.00156907 0.000282567 0)
(-0.00167143 0.000280601 0)
(-0.00177295 0.000278496 0)
(-0.00187357 0.000276251 0)
(-0.00197324 0.000273865 0)
(-0.0020719 0.000271336 0)
(-0.00216949 0.000268665 0)
(-0.00226597 0.00026585 0)
(-0.00236127 0.00026289 0)
(-0.00245533 0.000259787 0)
(-0.00254812 0.00025654 0)
(-0.00263956 0.000253151 0)
(-0.00272961 0.000249619 0)
(-0.00281821 0.000245948 0)
(-0.00290531 0.00024214 0)
(-0.00299086 0.000238199 0)
(-0.00307482 0.000234131 0)
(-0.00315713 0.000229943 0)
(-0.00323776 0.000225645 0)
(-0.00331666 0.000221247 0)
(-0.0033938 0.000216765 0)
(-0.00346915 0.000212218 0)
(-0.00354269 0.000207631 0)
(-0.00361441 0.000203033 0)
(-0.0036843 0.000198464 0)
(-0.00375238 0.000193973 0)
(-0.00381867 0.000189622 0)
(-0.00388323 0.000185491 0)
(-0.00394613 0.000181683 0)
(-0.00400748 0.000178333 0)
(-0.00406745 0.000175615 0)
(-0.00412622 0.000173764 0)
(-0.00418409 0.000173091 0)
(-0.00424141 0.000174023 0)
(-0.00429867 0.000177152 0)
(-0.00435646 0.000183312 0)
(-0.00441558 0.000193703 0)
(-0.00447699 0.000210088 0)
(-0.00454188 0.000235123 0)
(-0.00461137 0.000272979 0)
(-0.0046859 0.000330276 0)
(-0.00476558 0.00041705 0)
(-0.004846 0.000551811 0)
(-0.00488314 0.000772161 0)
(-0.00489941 0.00104131 0)
(-1.46959e-05 0.000174846 0)
(-8.58292e-05 0.000332022 0)
(-0.000192826 0.000386687 0)
(-0.000298194 0.000401297 0)
(-0.000407566 0.000404018 0)
(-0.000516545 0.000403882 0)
(-0.000625266 0.000403064 0)
(-0.00073373 0.000401983 0)
(-0.00084185 0.000400707 0)
(-0.000949563 0.000399244 0)
(-0.00105681 0.000397596 0)
(-0.00116355 0.000395759 0)
(-0.00126971 0.000393734 0)
(-0.00137523 0.000391518 0)
(-0.00148008 0.00038911 0)
(-0.00158418 0.000386508 0)
(-0.00168748 0.000383713 0)
(-0.00178993 0.000380721 0)
(-0.00189146 0.000377533 0)
(-0.00199203 0.000374147 0)
(-0.00209158 0.000370562 0)
(-0.00219005 0.000366778 0)
(-0.00228738 0.000362794 0)
(-0.00238352 0.000358609 0)
(-0.00247841 0.000354224 0)
(-0.00257199 0.00034964 0)
(-0.00266422 0.000344858 0)
(-0.00275503 0.000339879 0)
(-0.00284437 0.000334708 0)
(-0.00293218 0.000329348 0)
(-0.00301842 0.000323804 0)
(-0.00310304 0.000318085 0)
(-0.00318598 0.000312199 0)
(-0.0032672 0.00030616 0)
(-0.00334666 0.000299983 0)
(-0.00342432 0.000293688 0)
(-0.00350014 0.0002873 0)
(-0.0035741 0.000280852 0)
(-0.00364618 0.000274381 0)
(-0.00371636 0.000267939 0)
(-0.00378464 0.00026159 0)
(-0.00385104 0.000255411 0)
(-0.00391558 0.000249506 0)
(-0.00397831 0.000244004 0)
(-0.00403931 0.000239071 0)
(-0.00409868 0.000234924 0)
(-0.00415654 0.000231847 0)
(-0.00421308 0.000230214 0)
(-0.0042685 0.000230526 0)
(-0.00432308 0.000233463 0)
(-0.0043771 0.000239956 0)
(-0.00443089 0.000251299 0)
(-0.00448469 0.000269305 0)
(-0.00453861 0.000296551 0)
(-0.00459218 0.000336733 0)
(-0.00464385 0.000395028 0)
(-0.00469035 0.000478367 0)
(-0.00472291 0.000596988 0)
(-0.00471696 0.000762539 0)
(-0.00466693 0.000954676 0)
(-1.46087e-05 0.000224342 0)
(-8.59655e-05 0.000423052 0)
(-0.000193433 0.000491661 0)
(-0.00029918 0.000509847 0)
(-0.000408968 0.000513207 0)
(-0.000518335 0.000513008 0)
(-0.000627437 0.000511949 0)
(-0.000736278 0.00051055 0)
(-0.000844773 0.000508897 0)
(-0.000952861 0.000507 0)
(-0.00106049 0.000504861 0)
(-0.00116759 0.000502477 0)
(-0.00127412 0.000499848 0)
(-0.00138002 0.000496973 0)
(-0.00148524 0.00049385 0)
(-0.00158971 0.000490478 0)
(-0.00169338 0.000486854 0)
(-0.00179619 0.000482979 0)
(-0.0018981 0.000478851 0)
(-0.00199903 0.000474468 0)
(-0.00209894 0.000469829 0)
(-0.00219776 0.000464934 0)
(-0.00229545 0.000459783 0)
(-0.00239194 0.000454375 0)
(-0.00248718 0.00044871 0)
(-0.00258111 0.000442789 0)
(-0.00267367 0.000436615 0)
(-0.00276481 0.000430189 0)
(-0.00285447 0.000423516 0)
(-0.0029426 0.0004166 0)
(-0.00302914 0.000409449 0)
(-0.00311404 0.000402071 0)
(-0.00319726 0.000394479 0)
(-0.00327873 0.000386687 0)
(-0.00335842 0.000378713 0)
(-0.00343627 0.000370583 0)
(-0.00351226 0.000362325 0)
(-0.00358634 0.000353977 0)
(-0.00365848 0.000345586 0)
(-0.00372866 0.000337211 0)
(-0.00379686 0.000328924 0)
(-0.00386307 0.000320817 0)
(-0.0039273 0.000313007 0)
(-0.00398956 0.00030564 0)
(-0.00404987 0.000298903 0)
(-0.00410829 0.000293034 0)
(-0.00416485 0.000288339 0)
(-0.00421963 0.000285216 0)
(-0.0042727 0.000284183 0)
(-0.0043241 0.000285919 0)
(-0.00437387 0.00029132 0)
(-0.00442192 0.000301572 0)
(-0.00446799 0.000318244 0)
(-0.00451144 0.000343406 0)
(-0.00455094 0.000379752 0)
(-0.00458402 0.000430619 0)
(-0.00460637 0.000499851 0)
(-0.00460976 0.000591738 0)
(-0.00457981 0.00070783 0)
(-0.00450642 0.000836396 0)
(-1.45597e-05 0.000273812 0)
(-8.60585e-05 0.000514267 0)
(-0.000193838 0.00059686 0)
(-0.000299869 0.000618631 0)
(-0.000409974 0.000622624 0)
(-0.000519644 0.000622355 0)
(-0.000629045 0.000621052 0)
(-0.000738184 0.000619334 0)
(-0.000846975 0.000617303 0)
(-0.00095536 0.000614972 0)
(-0.00106328 0.000612342 0)
(-0.00117069 0.000609413 0)
(-0.00127752 0.000606182 0)
(-0.00138372 0.000602648 0)
(-0.00148923 0.000598811 0)
(-0.001594 0.000594668 0)
(-0.00169798 0.000590218 0)
(-0.0018011 0.00058546 0)
(-0.00190331 0.000580392 0)
(-0.00200454 0.000575012 0)
(-0.00210476 0.00056932 0)
(-0.00220389 0.000563315 0)
(-0.00230188 0.000556996 0)
(-0.00239868 0.000550363 0)
(-0.00249422 0.000543417 0)
(-0.00258845 0.000536158 0)
(-0.00268131 0.000528589 0)
(-0.00277274 0.000520711 0)
(-0.00286269 0.000512531 0)
(-0.0029511 0.000504052 0)
(-0.00303792 0.000495284 0)
(-0.00312308 0.000486236 0)
(-0.00320654 0.000476921 0)
(-0.00328824 0.000467356 0)
(-0.00336813 0.000457563 0)
(-0.00344616 0.000447566 0)
(-0.00352228 0.000437401 0)
(-0.00359645 0.000427107 0)
(-0.00366863 0.000416736 0)
(-0.00373877 0.000406353 0)
(-0.00380685 0.000396035 0)
(-0.00387283 0.000385883 0)
(-0.00393669 0.000376019 0)
(-0.00399841 0.000366599 0)
(-0.00405796 0.000357814 0)
(-0.00411533 0.000349909 0)
(-0.0041705 0.000343192 0)
(-0.00422343 0.00033805 0)
(-0.00427405 0.000334979 0)
(-0.00432225 0.000334605 0)
(-0.00436783 0.000337724 0)
(-0.00441043 0.000345339 0)
(-0.00444943 0.000358704 0)
(-0.00448381 0.000379346 0)
(-0.0045119 0.00040906 0)
(-0.00453103 0.000449767 0)
(-0.00453713 0.000503222 0)
(-0.00452385 0.000570441 0)
(-0.00448237 0.000649516 0)
(-0.00440516 0.000732411 0)
(-1.45394e-05 0.00032333 0)
(-8.61931e-05 0.000605729 0)
(-0.000194286 0.000702369 0)
(-0.000300627 0.000727749 0)
(-0.00041107 0.000732376 0)
(-0.000521072 0.000732035 0)
(-0.000630803 0.000730485 0)
(-0.000740272 0.000728448 0)
(-0.000849393 0.000726039 0)
(-0.000958108 0.000723275 0)
(-0.00106636 0.000720155 0)
(-0.0011741 0.00071668 0)
(-0.00128126 0.000712848 0)
(-0.0013878 0.000708658 0)
(-0.00149365 0.000704108 0)
(-0.00159876 0.000699195 0)
(-0.00170307 0.00069392 0)
(-0.00180653 0.000688279 0)
(-0.00190908 0.000682272 0)
(-0.00201066 0.000675896 0)
(-0.00211122 0.000669151 0)
(-0.0022107 0.000662036 0)
(-0.00230904 0.000654549 0)
(-0.00240618 0.00064669 0)
(-0.00250206 0.000638461 0)
(-0.00259663 0.000629861 0)
(-0.00268983 0.000620892 0)
(-0.0027816 0.000611558 0)
(-0.00287189 0.000601863 0)
(-0.00296062 0.000591813 0)
(-0.00304775 0.000581417 0)
(-0.00313322 0.000570684 0)
(-0.00321696 0.000559629 0)
(-0.00329893 0.00054827 0)
(-0.00337906 0.000536628 0)
(-0.0034573 0.000524731 0)
(-0.0035336 0.000512615 0)
(-0.00360789 0.000500322 0)
(-0.00368013 0.000487906 0)
(-0.00375027 0.000475432 0)
(-0.00381825 0.000462983 0)
(-0.00388402 0.000450659 0)
(-0.00394752 0.000438583 0)
(-0.00400871 0.00042691 0)
(-0.00406752 0.000415829 0)
(-0.00412387 0.000405574 0)
(-0.00417768 0.000396435 0)
(-0.00422882 0.00038877 0)
(-0.00427712 0.00038302 0)
(-0.00432235 0.000379726 0)
(-0.00436414 0.000379545 0)
(-0.00440196 0.000383264 0)
(-0.00443501 0.0003918 0)
(-0.00446214 0.00040618 0)
(-0.00448162 0.000427462 0)
(-0.00449102 0.00045656 0)
(-0.00448696 0.00049393 0)
(-0.00446491 0.000539037 0)
(-0.00441946 0.000589131 0)
(-0.00434606 0.000638101 0)
(-1.45334e-05 0.00037292 0)
(-8.637e-05 0.00069745 0)
(-0.000194816 0.000808207 0)
(-0.000301513 0.000837222 0)
(-0.00041234 0.000842488 0)
(-0.000522723 0.000842075 0)
(-0.000632836 0.000840278 0)
(-0.000742685 0.000837921 0)
(-0.000852189 0.000835134 0)
(-0.000961286 0.000831937 0)
(-0.00106992 0.000828329 0)
(-0.00117804 0.00082431 0)
(-0.00128559 0.000819879 0)
(-0.00139252 0.000815033 0)
(-0.00149876 0.000809771 0)
(-0.00160426 0.000804091 0)
(-0.00170896 0.000797991 0)
(-0.00181282 0.000791469 0)
(-0.00191577 0.000784524 0)
(-0.00201775 0.000777154 0)
(-0.0021187 0.000769357 0)
(-0.00221858 0.000761131 0)
(-0.00231732 0.000752477 0)
(-0.00241486 0.000743392 0)
(-0.00251115 0.000733878 0)
(-0.00260612 0.000723935 0)
(-0.00269971 0.000713564 0)
(-0.00279188 0.000702769 0)
(-0.00288254 0.000691554 0)
(-0.00297166 0.000679924 0)
(-0.00305916 0.000667888 0)
(-0.00314498 0.000655456 0)
(-0.00322907 0.000642643 0)
(-0.00331136 0.000629466 0)
(-0.00339179 0.000615947 0)
(-0.00347029 0.000602115 0)
(-0.00354682 0.000588004 0)
(-0.00362129 0.000573658 0)
(-0.00369365 0.000559129 0)
(-0.00376382 0.000544483 0)
(-0.00383176 0.000529799 0)
(-0.00389736 0.000515176 0)
(-0.00396057 0.000500732 0)
(-0.0040213 0.000486613 0)
(-0.00407943 0.000472996 0)
(-0.00413486 0.000460096 0)
(-0.00418744 0.000448172 0)
(-0.00423698 0.000437536 0)
(-0.00428323 0.000428561 0)
(-0.00432586 0.000421687 0)
(-0.00436443 0.000417424 0)
(-0.00439831 0.000416348 0)
(-0.00442666 0.000419077 0)
(-0.0044483 0.00042623 0)
(-0.00446168 0.000438326 0)
(-0.00446472 0.000455626 0)
(-0.00445483 0.000477872 0)
(-0.00442886 0.000503905 0)
(-0.00438354 0.000531043 0)
(-0.00431638 0.000554685 0)
(-1.45346e-05 0.000422604 0)
(-8.65838e-05 0.000789461 0)
(-0.00019543 0.000914417 0)
(-0.000302535 0.000947094 0)
(-0.000413797 0.000953005 0)
(-0.000524614 0.000952521 0)
(-0.000635161 0.000950477 0)
(-0.000745446 0.0009478 0)
(-0.000855385 0.000944637 0)
(-0.000964919 0.000941008 0)
(-0.00107399 0.000936913 0)
(-0.00118256 0.000932352 0)
(-0.00129055 0.000927322 0)
(-0.00139791 0.000921822 0)
(-0.0015046 0.000915851 0)
(-0.00161055 0.000909405 0)
(-0.0017157 0.000902483 0)
(-0.00182001 0.000895082 0)
(-0.00192341 0.000887201 0)
(-0.00202584 0.000878838 0)
(-0.00212726 0.00086999 0)
(-0.00222759 0.000860655 0)
(-0.00232679 0.000850833 0)
(-0.00242479 0.000840523 0)
(-0.00252153 0.000829723 0)
(-0.00261696 0.000818435 0)
(-0.00271101 0.00080666 0)
(-0.00280363 0.000794399 0)
(-0.00289475 0.000781657 0)
(-0.0029843 0.000768439 0)
(-0.00307223 0.000754752 0)
(-0.00315848 0.000740608 0)
(-0.00324297 0.000726019 0)
(-0.00332564 0.000711001 0)
(-0.00340643 0.000695577 0)
(-0.00348526 0.000679774 0)
(-0.00356207 0.000663625 0)
(-0.00363678 0.000647171 0)
(-0.00370933 0.000630463 0)
(-0.00377962 0.000613562 0)
(-0.00384757 0.000596545 0)
(-0.0039131 0.000579502 0)
(-0.0039761 0.000562542 0)
(-0.00403646 0.000545799 0)
(-0.00409405 0.000529429 0)
(-0.00414871 0.000513621 0)
(-0.00420026 0.000498597 0)
(-0.00424845 0.000484616 0)
(-0.00429299 0.000471977 0)
(-0.0043335 0.000461019 0)
(-0.0043695 0.000452113 0)
(-0.00440032 0.000445647 0)
(-0.00442515 0.000442 0)
(-0.00444291 0.000441482 0)
(-0.00445224 0.000444251 0)
(-0.00445149 0.000450179 0)
(-0.00443871 0.000458666 0)
(-0.00441177 0.000468399 0)
(-0.00436871 0.000477054 0)
(-0.00430826 0.000481221 0)
(-1.45395e-05 0.000472403 0)
(-8.68305e-05 0.000881804 0)
(-0.000196127 0.00102105 0)
(-0.000303691 0.00105742 0)
(-0.000415442 0.00106398 0)
(-0.000526746 0.00106343 0)
(-0.000637781 0.00106114 0)
(-0.000748555 0.00105814 0)
(-0.000858985 0.0010546 0)
(-0.000969011 0.00105054 0)
(-0.00107858 0.00104596 0)
(-0.00118764 0.00104086 0)
(-0.00129612 0.00103524 0)
(-0.00140399 0.00102908 0)
(-0.00151118 0.0010224 0)
(-0.00161763 0.00101519 0)
(-0.00172329 0.00100745 0)
(-0.0018281 0.000999175 0)
(-0.00193201 0.00099036 0)
(-0.00203496 0.000981005 0)
(-0.00213689 0.000971108 0)
(-0.00223774 0.000960666 0)
(-0.00233745 0.000949678 0)
(-0.00243597 0.000938142 0)
(-0.00253323 0.000926057 0)
(-0.00262918 0.000913422 0)
(-0.00272375 0.000900239 0)
(-0.00281688 0.000886509 0)
(-0.00290851 0.000872235 0)
(-0.00299857 0.000857421 0)
(-0.00308699 0.000842074 0)
(-0.00317372 0.000826203 0)
(-0.00325868 0.00080982 0)
(-0.0033418 0.00079294 0)
(-0.00342302 0.000775584 0)
(-0.00350225 0.000757775 0)
(-0.00357942 0.000739546 0)
(-0.00365445 0.000720933 0)
(-0.00372726 0.000701983 0)
(-0.00379774 0.000682753 0)
(-0.00386582 0.000663309 0)
(-0.00393137 0.000643735 0)
(-0.00399428 0.000624127 0)
(-0.00405441 0.000604599 0)
(-0.00411161 0.000585288 0)
(-0.0041657 0.00056635 0)
(-0.00421645 0.000547966 0)
(-0.0042636 0.000530342 0)
(-0.00430683 0.000513705 0)
(-0.00434573 0.0004983 0)
(-0.0043798 0.000484377 0)
(-0.00440843 0.000472172 0)
(-0.00443082 0.000461878 0)
(-0.00444605 0.00045359 0)
(-0.00445298 0.000447239 0)
(-0.00445031 0.000442487 0)
(-0.00443662 0.00043861 0)
(-0.00441048 0.000434351 0)
(-0.00437073 0.000427812 0)
(-0.00431675 0.000416483 0)
(-1.45466e-05 0.000522334 0)
(-8.71079e-05 0.000974518 0)
(-0.000196906 0.00112816 0)
(-0.00030498 0.00116825 0)
(-0.000417273 0.00117547 0)
(-0.000529118 0.00117485 0)
(-0.000640695 0.00117232 0)
(-0.000752013 0.001169 0)
(-0.000862988 0.00116509 0)
(-0.00097356 0.0011606 0)
(-0.00108368 0.00115553 0)
(-0.00119328 0.00114989 0)
(-0.00130232 0.00114367 0)
(-0.00141074 0.00113687 0)
(-0.00151849 0.00112949 0)
(-0.0016255 0.00112152 0)
(-0.00173172 0.00111296 0)
(-0.0018371 0.00110381 0)
(-0.00194158 0.00109406 0)
(-0.0020451 0.00108372 0)
(-0.0021476 0.00107277 0)
(-0.00224902 0.00106122 0)
(-0.00234931 0.00104907 0)
(-0.00244841 0.00103631 0)
(-0.00254625 0.00102294 0)
(-0.00264278 0.00100896 0)
(-0.00273793 0.000994365 0)
(-0.00283163 0.000979162 0)
(-0.00292383 0.000963351 0)
(-0.00301446 0.000946934 0)
(-0.00310345 0.000929918 0)
(-0.00319073 0.000912308 0)
(-0.00327623 0.000894116 0)
(-0.00335988 0.000875354 0)
(-0.00344159 0.00085604 0)
(-0.0035213 0.000836195 0)
(-0.00359891 0.000815847 0)
(-0.00367435 0.000795028 0)
(-0.00374751 0.000773779 0)
(-0.00381829 0.00075215 0)
(-0.00388659 0.000730199 0)
(-0.00395228 0.000707995 0)
(-0.00401524 0.000685622 0)
(-0.0040753 0.000663175 0)
(-0.0041323 0.000640764 0)
(-0.00418603 0.000618515 0)
(-0.00423626 0.000596569 0)
(-0.00428271 0.000575078 0)
(-0.00432503 0.000554205 0)
(-0.00436283 0.000534112 0)
(-0.00439562 0.00051495 0)
(-0.00442282 0.000496838 0)
(-0.00444373 0.000479832 0)
(-0.00445755 0.000463888 0)
(-0.00446335 0.0004488 0)
(-0.00446012 0.000434138 0)
(-0.00444685 0.000419168 0)
(-0.00442257 0.000402783 0)
(-0.00438658 0.000383474 0)
(-0.00433863 0.000359385 0)
(-1.45551e-05 0.000572412 0)
(-8.74148e-05 0.00106765 0)
(-0.000197765 0.00123579 0)
(-0.000306401 0.00127963 0)
(-0.00041929 0.00128752 0)
(-0.000531729 0.00128684 0)
(-0.000643902 0.00128406 0)
(-0.000755818 0.00128043 0)
(-0.000867392 0.00127615 0)
(-0.000978566 0.00127123 0)
(-0.00108929 0.00126568 0)
(-0.0011995 0.00125951 0)
(-0.00130914 0.00125269 0)
(-0.00141817 0.00124525 0)
(-0.00152653 0.00123716 0)
(-0.00163416 0.00122843 0)
(-0.001741 0.00121905 0)
(-0.001847 0.00120903 0)
(-0.0019521 0.00119836 0)
(-0.00205625 0.00118703 0)
(-0.00215938 0.00117504 0)
(-0.00226144 0.00116239 0)
(-0.00236237 0.00114907 0)
(-0.0024621 0.00113509 0)
(-0.00256059 0.00112043 0)
(-0.00265776 0.0011051 0)
(-0.00275355 0.0010891 0)
(-0.00284789 0.00107242 0)
(-0.00294073 0.00105507 0)
(-0.003032 0.00103705 0)
(-0.00312162 0.00101835 0)
(-0.00320952 0.000998994 0)
(-0.00329563 0.000978979 0)
(-0.00337988 0.000958318 0)
(-0.00346218 0.000937024 0)
(-0.00354244 0.000915116 0)
(-0.00362059 0.000892615 0)
(-0.00369652 0.000869549 0)
(-0.00377013 0.000845952 0)
(-0.00384133 0.000821865 0)
(-0.00390997 0.000797335 0)
(-0.00397595 0.00077242 0)
(-0.0040391 0.000747186 0)
(-0.00409927 0.000721708 0)
(-0.00415627 0.000696073 0)
(-0.00420989 0.000670374 0)
(-0.00425988 0.000644714 0)
(-0.00430596 0.000619198 0)
(-0.00434779 0.000593932 0)
(-0.00438499 0.00056901 0)
(-0.00441708 0.000544505 0)
(-0.00444354 0.000520445 0)
(-0.00446377 0.000496797 0)
(-0.00447708 0.000473426 0)
(-0.00448273 0.000450057 0)
(-0.00447995 0.000426236 0)
(-0.00446797 0.000401279 0)
(-0.00444617 0.000374251 0)
(-0.00441412 0.00034396 0)
(-0.00437175 0.000309023 0)
(-1.45647e-05 0.000622652 0)
(-8.77501e-05 0.00116122 0)
(-0.000198703 0.00134399 0)
(-0.000307951 0.00139163 0)
(-0.00042149 0.0014002 0)
(-0.000534578 0.00139945 0)
(-0.000647401 0.00139643 0)
(-0.000759968 0.00139249 0)
(-0.000872195 0.00138783 0)
(-0.000984024 0.00138249 0)
(-0.0010954 0.00137646 0)
(-0.00120627 0.00136975 0)
(-0.00131658 0.00136235 0)
(-0.00142628 0.00135426 0)
(-0.0015353 0.00134547 0)
(-0.0016436 0.00133599 0)
(-0.00175112 0.0013258 0)
(-0.0018578 0.00131491 0)
(-0.00196358 0.00130331 0)
(-0.00206841 0.00129099 0)
(-0.00217224 0.00127796 0)
(-0.00227499 0.00126421 0)
(-0.00237661 0.00124974 0)
(-0.00247705 0.00123453 0)
(-0.00257624 0.0012186 0)
(-0.00267411 0.00120192 0)
(-0.00277061 0.00118451 0)
(-0.00286566 0.00116636 0)
(-0.00295921 0.00114746 0)
(-0.00305118 0.00112783 0)
(-0.0031415 0.00110745 0)
(-0.0032301 0.00108634 0)
(-0.00331691 0.00106449 0)
(-0.00340183 0.00104191 0)
(-0.00348479 0.00101862 0)
(-0.00356571 0.000994626 0)
(-0.00364448 0.000969945 0)
(-0.00372101 0.000944598 0)
(-0.00379519 0.000918612 0)
(-0.00386691 0.000892018 0)
(-0.00393603 0.000864853 0)
(-0.00400243 0.00083716 0)
(-0.00406595 0.000808989 0)
(-0.00412642 0.000780396 0)
(-0.00418364 0.000751442 0)
(-0.00423739 0.000722193 0)
(-0.00428744 0.000692715 0)
(-0.00433349 0.000663074 0)
(-0.00437522 0.000633326 0)
(-0.00441226 0.000603511 0)
(-0.00444419 0.000573641 0)
(-0.00447053 0.000543683 0)
(-0.00449075 0.000513542 0)
(-0.00450429 0.000483031 0)
(-0.00451054 0.000451851 0)
(-0.0045089 0.00041956 0)
(-0.00449883 0.00038555 0)
(-0.00447989 0.000349042 0)
(-0.00445181 0.000309099 0)
(-0.00441461 0.00026468 0)
(-1.4575e-05 0.000673069 0)
(-8.81132e-05 0.00125529 0)
(-0.000199719 0.00145282 0)
(-0.00030963 0.00150429 0)
(-0.000423873 0.00151354 0)
(-0.000537662 0.00151274 0)
(-0.000651188 0.00150948 0)
(-0.000764461 0.00150522 0)
(-0.000877396 0.0015002 0)
(-0.000989935 0.00149443 0)
(-0.00110202 0.00148793 0)
(-0.00121361 0.00148068 0)
(-0.00132464 0.0014727 0)
(-0.00143505 0.00146396 0)
(-0.0015448 0.00145448 0)
(-0.00165383 0.00144424 0)
(-0.00176208 0.00143325 0)
(-0.00186949 0.00142149 0)
(-0.00197602 0.00140897 0)
(-0.00208159 0.00139568 0)
(-0.00218616 0.00138161 0)
(-0.00228967 0.00136677 0)
(-0.00239205 0.00135113 0)
(-0.00249325 0.00133471 0)
(-0.0025932 0.0013175 0)
(-0.00269184 0.00129948 0)
(-0.00278911 0.00128066 0)
(-0.00288494 0.00126104 0)
(-0.00297926 0.0012406 0)
(-0.00307201 0.00121935 0)
(-0.00316311 0.00119729 0)
(-0.00325249 0.00117441 0)
(-0.00334006 0.00115072 0)
(-0.00342575 0.00112622 0)
(-0.00350946 0.00110092 0)
(-0.00359112 0.00107482 0)
(-0.00367062 0.00104794 0)
(-0.00374785 0.00102028 0)
(-0.00382271 0.000991878 0)
(-0.00389508 0.00096274 0)
(-0.00396483 0.000932896 0)
(-0.00403181 0.000902376 0)
(-0.00409586 0.000871213 0)
(-0.00415682 0.000839443 0)
(-0.00421448 0.000807107 0)
(-0.00426862 0.000774241 0)
(-0.004319 0.000740883 0)
(-0.00436535 0.000707063 0)
(-0.00440736 0.000672798 0)
(-0.00444467 0.000638085 0)
(-0.00447691 0.000602891 0)
(-0.00450364 0.00056714 0)
(-0.00452443 0.000530699 0)
(-0.00453878 0.000493359 0)
(-0.0045462 0.000454817 0)
(-0.00454625 0.000414664 0)
(-0.00453849 0.000372373 0)
(-0.00452262 0.0003273 0)
(-0.00449849 0.000278705 0)
(-0.00446612 0.000225799 0)
(-1.45858e-05 0.000723676 0)
(-8.85034e-05 0.00134989 0)
(-0.000200811 0.00156233 0)
(-0.000311437 0.00161766 0)
(-0.000426437 0.00162761 0)
(-0.000540981 0.00162675 0)
(-0.000655264 0.00162326 0)
(-0.000769296 0.00161869 0)
(-0.000882992 0.0016133 0)
(-0.000996294 0.00160711 0)
(-0.00110915 0.00160013 0)
(-0.0012215 0.00159236 0)
(-0.0013333 0.00158379 0)
(-0.0014445 0.00157442 0)
(-0.00155502 0.00156424 0)
(-0.00166483 0.00155326 0)
(-0.00177387 0.00154146 0)
(-0.00188208 0.00152884 0)
(-0.0019894 0.00151541 0)
(-0.00209577 0.00150114 0)
(-0.00220115 0.00148604 0)
(-0.00230547 0.0014701 0)
(-0.00240867 0.00145332 0)
(-0.00251069 0.00143568 0)
(-0.00261147 0.00141719 0)
(-0.00271094 0.00139784 0)
(-0.00280905 0.00137762 0)
(-0.00290573 0.00135652 0)
(-0.0030009 0.00133455 0)
(-0.00309449 0.00131168 0)
(-0.00318644 0.00128794 0)
(-0.00327667 0.0012633 0)
(-0.00336509 0.00123776 0)
(-0.00345163 0.00121133 0)
(-0.0035362 0.00118401 0)
(-0.00361869 0.0011558 0)
(-0.00369902 0.0011267 0)
(-0.00377707 0.00109672 0)
(-0.00385274 0.00106587 0)
(-0.00392589 0.00103417 0)
(-0.0039964 0.00100161 0)
(-0.00406412 0.000968233 0)
(-0.00412888 0.000934042 0)
(-0.00419052 0.000899058 0)
(-0.00424884 0.000863301 0)
(-0.00430362 0.000826785 0)
(-0.00435462 0.00078952 0)
(-0.00440158 0.000751507 0)
(-0.0044442 0.000712731 0)
(-0.00448217 0.000673157 0)
(-0.00451513 0.000632721 0)
(-0.00454272 0.000591318 0)
(-0.00456453 0.000548793 0)
(-0.00458017 0.00050493 0)
(-0.00458923 0.000459439 0)
(-0.00459135 0.000411951 0)
(-0.0045862 0.000362011 0)
(-0.00457355 0.000309092 0)
(-0.00455331 0.000252608 0)
(-0.0045255 0.000191951 0)
(-1.45969e-05 0.000774487 0)
(-8.892e-05 0.00144506 0)
(-0.00020198 0.00167256 0)
(-0.00031337 0.00173181 0)
(-0.00042918 0.00174247 0)
(-0.000544533 0.00174155 0)
(-0.000659626 0.00173782 0)
(-0.00077447 0.00173295 0)
(-0.000888981 0.00172719 0)
(-0.0010031 0.00172059 0)
(-0.00111678 0.00171313 0)
(-0.00122995 0.00170484 0)
(-0.00134258 0.00169569 0)
(-0.0014546 0.00168568 0)
(-0.00156596 0.00167482 0)
(-0.00167661 0.00166309 0)
(-0.00178649 0.00165049 0)
(-0.00189555 0.00163702 0)
(-0.00200372 0.00162267 0)
(-0.00211096 0.00160743 0)
(-0.0022172 0.00159131 0)
(-0.00232239 0.00157428 0)
(-0.00242647 0.00155635 0)
(-0.00252937 0.00153751 0)
(-0.00263104 0.00151776 0)
(-0.00273142 0.00149707 0)
(-0.00283043 0.00147545 0)
(-0.00292801 0.00145289 0)
(-0.0030241 0.00142938 0)
(-0.00311862 0.00140491 0)
(-0.0032115 0.00137948 0)
(-0.00330266 0.00135307 0)
(-0.00339202 0.0013257 0)
(-0.0034795 0.00129734 0)
(-0.003565 0.001268 0)
(-0.00364843 0.00123766 0)
(-0.00372969 0.00120634 0)
(-0.00380868 0.00117403 0)
(-0.00388527 0.00114073 0)
(-0.00395934 0.00110644 0)
(-0.00403076 0.00107116 0)
(-0.00409938 0.0010349 0)
(-0.00416504 0.000997663 0)
(-0.00422756 0.000959449 0)
(-0.00428675 0.000920256 0)
(-0.0043424 0.000880081 0)
(-0.00439428 0.000838911 0)
(-0.00444214 0.000796721 0)
(-0.00448571 0.000753474 0)
(-0.00452468 0.000709109 0)
(-0.00455875 0.000663539 0)
(-0.00458757 0.000616642 0)
(-0.00461081 0.000568253 0)
(-0.00462813 0.00051816 0)
(-0.00463918 0.00046609 0)
(-0.00464368 0.000411715 0)
(-0.00464135 0.000354648 0)
(-0.00463203 0.000294454 0)
(-0.00461563 0.000230665 0)
(-0.00459218 0.000162812 0)
(-1.46079e-05 0.000825514 0)
(-8.93624e-05 0.00154084 0)
(-0.000203223 0.00178356 0)
(-0.000315427 0.00184677 0)
(-0.000432102 0.00185815 0)
(-0.000548315 0.00185719 0)
(-0.000664271 0.00185322 0)
(-0.000779981 0.00184804 0)
(-0.00089536 0.00184192 0)
(-0.00101035 0.0018349 0)
(-0.0011249 0.00182698 0)
(-0.00123895 0.00181816 0)
(-0.00135246 0.00180844 0)
(-0.00146537 0.0017978 0)
(-0.00157762 0.00178625 0)
(-0.00168916 0.00177378 0)
(-0.00179994 0.00176039 0)
(-0.0019099 0.00174607 0)
(-0.00201898 0.00173082 0)
(-0.00212714 0.00171462 0)
(-0.0022343 0.00169747 0)
(-0.00234042 0.00167937 0)
(-0.00244544 0.0016603 0)
(-0.00254929 0.00164026 0)
(-0.00265191 0.00161924 0)
(-0.00275325 0.00159723 0)
(-0.00285323 0.00157422 0)
(-0.0029518 0.0015502 0)
(-0.00304888 0.00152516 0)
(-0.00314439 0.00149909 0)
(-0.00323828 0.00147199 0)
(-0.00333045 0.00144383 0)
(-0.00342083 0.00141461 0)
(-0.00350933 0.00138433 0)
(-0.00359587 0.00135297 0)
(-0.00368034 0.00132052 0)
(-0.00376265 0.00128697 0)
(-0.00384269 0.00125233 0)