/*--------------------------------*- C++ -*----------------------------------*\
  =========                 |
  \\      /  F ield         | OpenFOAM: The Open Source CFD Toolbox
   \\    /   O peration     | Website:  https://openfoam.org
    \\  /    A nd           | Version:  8
     \\/     M anipulation  |
\*---------------------------------------------------------------------------*/
FoamFile
{
    version     2.0;
    format      ascii;
    class       surfaceScalarField;
    location    "0.36";
    object      phi;
}
// * * * * * * * * * * * * * * * * * * * * * * * * * * * * * * * * * * * * * //

dimensions      [0 3 -1 0 0 0 0];

internalField   nonuniform List<scalar> 
760
(
1.42317e-08
-1.42668e-08
-2.22107e-08
3.64425e-08
-1.14269e-07
9.20582e-08
-2.45492e-07
1.31223e-07
-3.96094e-07
1.50603e-07
-5.4736e-07
1.51266e-07
-6.83182e-07
1.35823e-07
-7.90652e-07
1.0747e-07
-8.60195e-07
6.95427e-08
-8.85628e-07
2.54328e-08
-8.64307e-07
-2.13217e-08
-7.97377e-07
-6.69304e-08
-6.90075e-07
-1.07302e-07
-5.51965e-07
-1.3811e-07
-3.96938e-07
-1.55027e-07
-2.42746e-07
-1.54192e-07
-1.09732e-07
-1.33015e-07
-1.84166e-08
-9.13164e-08
1.5689e-08
-3.41058e-08
1.56891e-08
-3.42153e-08
1.99484e-08
-1.80374e-07
1.82601e-07
-4.33989e-07
3.45673e-07
-7.64433e-07
4.61668e-07
-1.13221e-06
5.18381e-07
-1.49724e-06
5.16298e-07
-1.82334e-06
4.61916e-07
-2.08053e-06
3.64668e-07
-2.24627e-06
2.35281e-07
-2.30604e-06
8.5197e-08
-2.2539e-06
-7.34615e-08
-2.09304e-06
-2.27782e-07
-1.83626e-06
-3.6409e-07
-1.50604e-06
-4.68329e-07
-1.13408e-06
-5.26986e-07
-7.59519e-07
-5.28751e-07
-4.25399e-07
-4.67135e-07
-1.72692e-07
-3.44024e-07
-3.08022e-08
-1.75996e-07
-1.51132e-08
-9.22281e-08
1.12176e-07
-3.56997e-07
4.47369e-07
-7.64558e-07
7.53234e-07
-1.26848e-06
9.65595e-07
-1.81469e-06
1.06459e-06
-2.34904e-06
1.05064e-06
-2.82242e-06
9.35301e-07
-3.19393e-06
7.36174e-07
-3.4326e-06
4.73946e-07
-3.5185e-06
1.71099e-07
-3.44356e-06
-1.48401e-07
-3.21224e-06
-4.59098e-07
-2.84209e-06
-7.3424e-07
-2.36379e-06
-9.4663e-07
-1.82031e-06
-1.07047e-06
-1.26448e-06
-1.08458e-06
-7.54519e-07
-9.77097e-07
-3.46969e-07
-7.51574e-07
-8.73355e-08
-4.35629e-07
-1.02449e-07
-1.4521e-07
2.57386e-07
-5.25459e-07
8.27618e-07
-1.08163e-06
1.3094e-06
-1.7475e-06
1.63147e-06
-2.45431e-06
1.77141e-06
-3.13635e-06
1.73268e-06
-3.73526e-06
1.53421e-06
-4.20288e-06
1.20379e-06
-4.50288e-06
7.73955e-07
-4.61189e-06
2.80107e-07
-4.52022e-06
-2.4007e-07
-4.2327e-06
-7.46619e-07
-3.76934e-06
-1.1976e-06
-3.16561e-06
-1.55036e-06
-2.47186e-06
-1.76423e-06
-1.75106e-06
-1.80538e-06
-1.0745e-06
-1.65365e-06
-5.15135e-07
-1.31094e-06
-1.39314e-07
-8.11449e-07
-2.41763e-07
-1.93608e-07
4.50994e-07
-6.84995e-07
1.319e-06
-1.38561e-06
2.01002e-06
-2.20722e-06
2.45308e-06
-3.06544e-06
2.62962e-06
-3.88374e-06
2.55098e-06
-4.59646e-06
2.24693e-06
-5.15053e-06
1.75786e-06
-5.50639e-06
1.12982e-06
-5.63847e-06
4.12181e-07
-5.5357e-06
-3.42838e-07
-5.20232e-06
-1.08e-06
-4.65883e-06
-1.74109e-06
-3.94292e-06
-2.26627e-06
-3.10967e-06
-2.59747e-06
-2.23048e-06
-2.68457e-06
-1.38962e-06
-2.4945e-06
-6.78492e-07
-2.02207e-06
-1.87766e-07
-1.30218e-06
-4.29529e-07
-2.39939e-07
6.90933e-07
-8.40343e-07
1.91941e-06
-1.68327e-06
2.85295e-06
-2.65703e-06
3.42684e-06
-3.6608e-06
3.63339e-06
-4.60773e-06
3.49791e-06
-5.42631e-06
3.06551e-06
-6.06052e-06
2.39207e-06
-6.4693e-06
1.5386e-06
-6.626e-06
5.68876e-07
-6.51827e-06
-4.50568e-07
-6.14875e-06
-1.44951e-06
-5.53649e-06
-2.35335e-06
-4.71888e-06
-3.08388e-06
-3.75343e-06
-3.56293e-06
-2.71846e-06
-3.71955e-06
-1.71152e-06
-3.50143e-06
-8.44655e-07
-2.88894e-06
-2.36178e-07
-1.91065e-06
-6.65706e-07
-2.86744e-07
9.77677e-07
-9.97081e-07
2.62975e-06
-1.98207e-06
3.83794e-06
-3.10493e-06
4.5497e-06
-4.24793e-06
4.77639e-06
-5.31479e-06
4.56476e-06
-6.23008e-06
3.9808e-06
-6.93713e-06
3.09912e-06
-7.39545e-06
1.99691e-06
-7.57858e-06
7.52011e-07
-7.47312e-06
-5.56029e-07
-7.07908e-06
-1.84356e-06
-6.41185e-06
-3.02057e-06
-5.50556e-06
-3.99018e-06
-4.41704e-06
-4.65144e-06
-3.22936e-06
-4.90723e-06
-2.05294e-06
-4.67785e-06
-1.02253e-06
-3.91935e-06
-2.8828e-07
-2.64491e-06
-9.53986e-07
-3.3633e-07
1.31401e-06
-1.16037e-06
3.45378e-06
-2.28801e-06
4.96558e-06
-3.55499e-06
5.81667e-06
-4.82661e-06
6.04802e-06
-5.99905e-06
5.7372e-06
-6.99601e-06
4.97776e-06
-7.76349e-06
3.86661e-06
-8.26445e-06
2.49787e-06
-8.47458e-06
9.62139e-07
-8.37993e-06
-6.50679e-07
-7.97687e-06
-2.24662e-06
-7.27456e-06
-3.72288e-06
-6.29994e-06
-4.96479e-06
-5.10466e-06
-5.84672e-06
-3.77252e-06
-6.23937e-06
-2.42488e-06
-6.02549e-06
-1.22074e-06
-5.12349e-06
-3.47707e-07
-3.51794e-06
-1.30169e-06
-3.90958e-07
1.70496e-06
-1.33489e-06
4.39771e-06
-2.60497e-06
6.23567e-06
-4.00594e-06
7.21764e-06
-5.38681e-06
7.42888e-06
-6.63974e-06
6.99014e-06
-7.69242e-06
6.03044e-06
-8.49845e-06
4.67264e-06
-9.0284e-06
3.02782e-06
-9.2629e-06
1.19665e-06
-9.18863e-06
-7.24951e-07
-8.79747e-06
-2.63779e-06
-8.08935e-06
-4.431e-06
-7.07901e-06
-5.97514e-06
-5.80632e-06
-7.11941e-06
-4.34904e-06
-7.69665e-06
-2.83481e-06
-7.53972e-06
-1.44709e-06
-6.51121e-06
-4.18099e-07
-4.54694e-06
-1.71979e-06
-4.53454e-07
2.15842e-06
-1.52568e-06
5.46994e-06
-2.93488e-06
7.64487e-06
-4.45012e-06
8.73287e-06
-5.90633e-06
8.8851e-06
-7.19782e-06
8.28163e-06
-8.26367e-06
7.09629e-06
-9.07208e-06
5.48105e-06
-9.60689e-06
3.56263e-06
-9.85761e-06
1.44737e-06
-9.81344e-06
-7.69122e-07
-9.4614e-06
-2.98983e-06
-8.78912e-06
-5.10327e-06
-7.79302e-06
-6.97125e-06
-6.49222e-06
-8.42021e-06
-4.94798e-06
-9.24089e-06
-3.28512e-06
-9.20258e-06
-1.70868e-06
-8.08765e-06
-5.03588e-07
-5.75203e-06
-2.22338e-06
-5.28336e-07
2.68675e-06
-1.73966e-06
6.68127e-06
-3.27797e-06
9.18318e-06
-4.87163e-06
1.03265e-05
-6.34701e-06
1.03605e-05
-7.61083e-06
9.54544e-06
-8.62436e-06
8.10983e-06
-9.37969e-06
6.23638e-06
-9.881e-06
4.06393e-06
-1.01315e-05
1.69791e-06
-1.01258e-05
-7.74871e-07
-9.84634e-06
-3.26928e-06
-9.266e-06
-5.68362e-06
-8.35634e-06
-7.8809e-06
-7.1047e-06
-9.67185e-06
-5.5407e-06
-1.08049e-05
-3.77071e-06
-1.09726e-05
-2.01217e-06
-9.84618e-06
-6.09688e-07
-7.15451e-06
-2.83307e-06
-6.23665e-07
3.31042e-06
-1.98738e-06
8.04498e-06
-3.63191e-06
1.08277e-05
-5.24193e-06
1.19365e-05
-6.64758e-06
1.17661e-05
-7.78449e-06
1.06824e-05
-8.65103e-06
8.97637e-06
-9.27432e-06
6.85967e-06
-9.68656e-06
4.47617e-06
-9.90984e-06
1.9212e-06
-9.94725e-06
-7.37453e-07
-9.7786e-06
-3.43793e-06
-9.3609e-06
-6.10132e-06
-8.63563e-06
-8.60618e-06
-7.54639e-06
-1.07611e-05
-6.07159e-06
-1.22797e-05
-4.27427e-06
-1.27699e-05
-2.36365e-06
-1.17568e-05
-7.44777e-07
-8.77338e-06
-3.57784e-06
-7.54075e-07
4.06449e-06
-2.28435e-06
9.57525e-06
-3.98701e-06
1.25304e-05
-5.5091e-06
1.34586e-05
-6.70962e-06
1.29667e-05
-7.57858e-06
1.15513e-05
-8.17008e-06
9.56787e-06
-8.55766e-06
7.24725e-06
-8.80776e-06
4.72627e-06
-8.96509e-06
2.07852e-06
-9.04441e-06
-6.58135e-07
-9.02579e-06
-3.45655e-06
-8.85263e-06
-6.27447e-06
-8.43485e-06
-9.02396e-06
-7.66293e-06
-1.1533e-05
-6.44202e-06
-1.35006e-05
-4.75626e-06
-1.44556e-05
-2.76675e-06
-1.37463e-05
-9.22435e-07
-1.06177e-05
-4.50028e-06
-9.45205e-07
5.0097e-06
-2.64849e-06
1.12785e-05
-4.31099e-06
1.41929e-05
-5.5733e-06
1.47209e-05
-6.37069e-06
1.3764e-05
-6.78328e-06
1.19639e-05
-6.9405e-06
9.72509e-06
-6.96973e-06
7.27648e-06
-6.97277e-06
4.72932e-06
-7.01649e-06
2.12224e-06
-7.12859e-06
-5.46034e-07
-7.29375e-06
-3.29139e-06
-7.44863e-06
-6.11959e-06
-7.47788e-06
-8.9947e-06
-7.21793e-06
-1.1793e-05
-6.48275e-06
-1.42358e-05
-5.13343e-06
-1.5805e-05
-3.21498e-06
-1.56648e-05
-1.16439e-06
-1.26683e-05
-5.66466e-06
-1.23731e-06
6.24701e-06
-3.08329e-06
1.31245e-05
-4.5077e-06
1.56173e-05
-5.23447e-06
1.54477e-05
-5.35521e-06
1.38848e-05
-5.08182e-06
1.16905e-05
-4.63088e-06
9.27415e-06
-4.17924e-06
6.82485e-06
-3.85433e-06
4.40441e-06
-3.73699e-06
2.0049e-06
-3.8651e-06
-4.17928e-07
-4.23261e-06
-2.92388e-06
-4.78206e-06
-5.57015e-06
-5.39105e-06
-8.38571e-06
-5.85848e-06
-1.13255e-05
-5.90657e-06
-1.41877e-05
-5.23281e-06
-1.64787e-05
-3.66627e-06
-1.72313e-05
-1.50008e-06
-1.48345e-05
-7.16474e-06
-1.6738e-06
7.92082e-06
-3.51336e-06
1.49641e-05
-4.3153e-06
1.64192e-05
-4.08886e-06
1.52213e-05
-3.19303e-06
1.29889e-05
-1.99872e-06
1.04962e-05
-7.95124e-07
8.07055e-06
2.19358e-07
5.81036e-06
9.18256e-07
3.70551e-06
1.22563e-06
1.69753e-06
1.10209e-06
-2.94386e-07
5.41082e-07
-2.36287e-06
-4.2291e-07
-4.60615e-06
-1.69255e-06
-7.11607e-06
-3.0724e-06
-9.94567e-06
-4.23081e-06
-1.30293e-05
-4.69564e-06
-1.60139e-05
-3.96718e-06
-1.79598e-05
-1.94492e-06
-1.68567e-05
-9.10967e-06
-2.23069e-06
1.01515e-05
-3.59029e-06
1.63237e-05
-3.07778e-06
1.59067e-05
-1.34387e-06
1.34874e-05
8.97044e-07
1.0748e-05
3.15498e-06
8.23827e-06
5.13813e-06
6.0874e-06
6.6887e-06
4.25979e-06
7.72585e-06
2.66837e-06
8.20657e-06
1.21681e-06
8.1039e-06
-1.91721e-07
7.39905e-06
-1.65802e-06
6.08687e-06
-3.29398e-06
4.19919e-06
-5.2284e-06
1.85416e-06
-7.60064e-06
-6.6171e-07
-1.05134e-05
-2.79217e-06
-1.38834e-05
-3.66209e-06
-1.70899e-05
-2.41154e-06
-1.81073e-05
-1.15212e-05
-2.57381e-06
1.27253e-05
-2.18346e-06
1.59333e-05
7.18071e-07
1.30052e-05
4.46957e-06
9.73588e-06
8.13329e-06
7.08431e-06
1.13016e-05
5.06999e-06
1.38291e-05
3.55988e-06
1.56881e-05
2.40078e-06
1.68917e-05
1.4648e-06
1.74549e-05
6.53602e-07
1.73764e-05
-1.13202e-07
1.66305e-05
-9.12153e-07
1.51672e-05
-1.83066e-06
1.29235e-05
-2.98473e-06
9.86175e-06
-4.53888e-06
6.06196e-06
-6.71363e-06
1.91234e-06
-9.73379e-06
-1.55963e-06
-1.36179e-05
-2.45834e-06
-1.72086e-05
-1.39795e-05
-7.85013e-07
1.35103e-05
4.08079e-06
1.10675e-05
1.02975e-05
6.78843e-06
1.57936e-05
4.23979e-06
2.0158e-05
2.71991e-06
2.34581e-05
1.76994e-06
2.58608e-05
1.15714e-06
2.75215e-05
7.40052e-07
2.8554e-05
4.32293e-07
2.90264e-05
1.81221e-07
2.89622e-05
-4.89815e-08
2.83388e-05
-2.88699e-07
2.70818e-05
-5.7374e-07
2.50551e-05
-9.57956e-07
2.20517e-05
-1.53552e-06
1.78155e-05
-2.47742e-06
1.21724e-05
-4.09068e-06
5.47772e-06
-6.92324e-06
-1.2917e-07
-1.16017e-05
-1.41087e-05
1.35103e-05
2.45779e-05
3.13663e-05
3.56061e-05
3.8326e-05
4.00959e-05
4.12531e-05
4.19931e-05
4.24254e-05
4.26066e-05
4.25576e-05
4.22689e-05
4.16952e-05
4.07373e-05
3.92017e-05
3.67243e-05
3.26336e-05
2.57104e-05
1.41087e-05
)
;

boundaryField
{
    movingWall
    {
        type            calculated;
        value           uniform 0;
    }
    fixedWalls
    {
        type            calculated;
        value           uniform 0;
    }
    frontAndBack
    {
        type            empty;
        value           nonuniform List<scalar> 0();
    }
}


// ************************************************************************* //
