/*--------------------------------*- C++ -*----------------------------------*\
  =========                 |
  \\      /  F ield         | OpenFOAM: The Open Source CFD Toolbox
   \\    /   O peration     | Website:  https://openfoam.org
    \\  /    A nd           | Version:  8
     \\/     M anipulation  |
\*---------------------------------------------------------------------------*/
FoamFile
{
    version     2.0;
    format      ascii;
    class       volVectorField;
    location    "11.5";
    object      U;
}
// * * * * * * * * * * * * * * * * * * * * * * * * * * * * * * * * * * * * * //

dimensions      [0 1 -1 0 0 0 0];

internalField   nonuniform List<vector> 
116
(
(-0.00120798 8.48742e-06 0)
(-0.00636183 2.46484e-05 0)
(-0.0111979 0.000383516 0)
(-0.0225054 0.00033645 0)
(-0.0247449 0.0116375 0)
(-0.0721105 0.0335918 0)
(-0.00322447 0.00766007 0)
(-0.0124689 0.0113648 0)
(-0.0240596 0.0143494 0)
(-0.0390949 0.0181509 0)
(-0.0539141 0.0311162 0)
(-0.0774069 0.0417923 0)
(-0.00213263 0.0145812 0)
(-0.00976982 0.0202243 0)
(-0.0197478 0.0242671 0)
(-0.031402 0.0302426 0)
(-0.0438695 0.0434251 0)
(-0.060245 0.0571709 0)
(-0.00278326 0.0204914 0)
(-0.0100237 0.0310263 0)
(-0.0183802 0.0369908 0)
(-0.0258922 0.0461795 0)
(-0.03356 0.0604472 0)
(-0.037963 0.0705526 0)
(0.00101971 0.0265303 0)
(-0.00204038 0.0343192 0)
(-0.00849133 0.0389929 0)
(-0.0108678 0.0420483 0)
(-0.0174094 0.054397 0)
(-0.0106918 0.0577591 0)
(-0.00306258 0.0209281 0)
(-0.00422995 0.041594 0)
(-0.00555391 0.0475445 0)
(-0.00364055 0.056499 0)
(-0.00647191 0.0658491 0)
(0.00472168 0.0702695 0)
(0.00430074 0.0366504 0)
(0.000195954 0.0366129 0)
(-0.00949206 0.0392152 0)
(-0.00347274 0.0382626 0)
(-0.00644037 0.0435981 0)
(0.0171432 0.0476674 0)
(0.00496822 0.0122187 0)
(0.0119138 0.0555847 0)
(0.0200153 0.051739 0)
(0.0229118 0.0570029 0)
(0.0183829 0.0515181 0)
(0.0348522 0.0553122 0)
(-0.0631446 0.0258354 0)
(-0.0380576 0.0175754 0)
(-0.055071 0.028086 0)
(-0.0299411 0.0315476 0)
(-0.0242689 0.0285548 0)
(0.00468748 0.0301365 0)
(0.0524209 0.0997353 0)
(0.0869337 0.0585182 0)
(0.113928 0.0425805 0)
(0.161624 0.0350035 0)
(0.173469 0.0227909 0)
(0.216872 0.021476 0)
(-0.085545 0.0967483 0)
(-0.0814512 0.047399 0)
(-0.0854608 -0.0097451 0)
(-0.00447081 -0.169283 0)
(-0.0807491 0.0855239 0)
(-0.0664234 0.0385069 0)
(-0.0686058 -0.0514041 0)
(0.0158062 -0.194117 0)
(-0.0662484 0.0767562 0)
(-0.0505057 0.0251491 0)
(-0.0455818 -0.0868365 0)
(-0.00601788 -0.220511 0)
(-0.0420865 0.0804632 0)
(-0.0235179 0.0200965 0)
(-0.0250628 -0.0975823 0)
(-0.000552204 -0.250495 0)
(-0.0156198 0.0618195 0)
(0.00290823 0.00333859 0)
(-0.0153202 -0.103917 0)
(0.0102165 -0.247404 0)
(-0.00264309 0.0749209 0)
(0.0254447 0.0197336 0)
(-0.00689864 -0.0949044 0)
(0.010876 -0.251803 0)
(0.0117934 0.0371503 0)
(0.0535011 0.000391318 0)
(-0.0124282 -0.0982193 0)
(0.0234592 -0.254488 0)
(0.0250357 0.0511224 0)
(0.0586348 0.041421 0)
(0.00230735 -0.0446966 0)
(0.0505023 -0.226728 0)
(0.013305 0.0100052 0)
(0.05752 0.0086946 0)
(0.0477174 -0.0977972 0)
(0.0730507 -0.234915 0)
(0.211985 0.00934824 0)
(0.246027 0.00239534 0)
(0.201075 -0.0225014 0)
(0.152517 -0.0733366 0)
(-0.00497985 0.00160563 0)
(-0.0117039 -0.00100098 0)
(-0.0151966 -0.00246507 0)
(-0.00884664 -0.00616801 0)
(-0.00886095 0.0160898 0)
(-0.0187352 0.0110431 0)
(-0.0237468 0.00124668 0)
(-0.0167805 -0.0181675 0)
(-0.014726 0.0297328 0)
(-0.0323742 0.0104517 0)
(-0.0457806 -0.00194236 0)
(-0.0361026 -0.0477767 0)
(-0.013656 0.0653981 0)
(-0.0575671 0.0433266 0)
(-0.0661989 0.0102664 0)
(-0.0415586 -0.100613 0)
)
;

boundaryField
{
    movingWall
    {
        type            fixedValue;
        value           uniform (1 0 0);
    }
    fixedWalls
    {
        type            noSlip;
    }
    frontAndBack
    {
        type            empty;
    }
}


// ************************************************************************* //
