# Probe 0 (-1 0 -0.001)
# Probe 1 (-0.75 0 -0.001)
# Probe 2 (-0.5 0 -0.001)
# Probe 3 (0.5 0 -0.001)
# Probe 4 (0.75 0 -0.001)
# Probe 5 (1 0 -0.001)
# Probe 6 (1.25 0 -0.001)
# Probe 7 (1.5 0 -0.001)
# Probe 8 (1.75 0 -0.001)
# Probe 9 (2 0 -0.001)
# Probe 10 (2.25 0 -0.001)
# Probe 11 (2.5 0 -0.001)
# Probe 12 (2.75 0 -0.001)
# Probe 13 (3 0 -0.001)
# Probe 14 (3.25 0 -0.001)
# Probe 15 (3.5 0 -0.001)
# Probe 16 (3.75 0 -0.001)
# Probe 17 (4 0 -0.001)
# Time        0             1             2             3             4             5             6             7             8             9             10            11            12            13            14            15            16            17           
0             (0 0 0)       (0 0 0)       (0 0 0)       (0 0 0)       (0 0 0)       (0 0 0)       (0 0 0)       (0 0 0)       (0 0 0)       (0 0 0)       (0 0 0)       (0 0 0)       (0 0 0)       (0 0 0)       (0 0 0)       (0 0 0)       (0 0 0)       (0 0 0)      
1             (1.10952 0.38331 -0.59549) (1.10952 0.38331 -0.59549) (0.00472018 -0.00203539 -2.52485) (2.43679e-05 -4.65597e-07 -0.148646) (0.159415 -0.153274 -0.101653) (0.498448 -0.0995486 -2.54547e-17) (0.694773 -0.0584273 -2.87775e-17) (0.803645 -0.0343747 5.44525e-18) (0.869487 -0.0211194 1.12104e-18) (0.910582 -0.0134167 -5.92154e-19) (0.936942 -0.00874799 2.30569e-19) (0.936942 -0.00874799 2.30569e-19) (0.954338 -0.00576704 0) (0.965906 -0.00382236 0) (0.973934 -0.00253176 0) (0.978235 -0.00160639 0) (0.978067 -0.000909962 0) (0.984565 0.000151716 -2.90665e-28)
