0 	0 	0 	0
1.57135 	-0.000757163 	0.000708371 	0
3.1427 	-0.00169343 	0.0012792 	0
4.71405 	-0.00289916 	0.00147226 	0
6.28539 	-0.00443614 	0.00104522 	0
7.85674 	-0.00632043 	-0.000210878 	0
9.42809 	-0.00874985 	-0.00240524 	0
10.9994 	-0.0131882 	-0.00530875 	0
12.5708 	-0.0272344 	0.0015112 	0
14.1421 	0.5 	0 	0
