0 	3.4181e-09
1.57135 	-9.89029e-07
3.1427 	-3.80438e-08
4.71405 	1.34455e-05
6.28539 	6.68703e-05
7.85674 	0.000223494
9.42809 	0.000604649
10.9994 	0.00132128
12.5708 	0.000487561
14.1421 	0.168342
