/*--------------------------------*- C++ -*----------------------------------*\
  =========                 |
  \\      /  F ield         | OpenFOAM: The Open Source CFD Toolbox
   \\    /   O peration     | Website:  https://openfoam.org
    \\  /    A nd           | Version:  8
     \\/     M anipulation  |
\*---------------------------------------------------------------------------*/
FoamFile
{
    version     2.0;
    format      ascii;
    class       volScalarField;
    location    "59";
    object      p;
}
// * * * * * * * * * * * * * * * * * * * * * * * * * * * * * * * * * * * * * //

dimensions      [0 2 -2 0 0 0 0];

internalField   nonuniform List<scalar> 
12504
(
0.234728
0.231646
0.225165
0.215269
0.202225
0.186382
0.16812
0.147872
0.126121
0.103382
0.0801616
0.056933
0.0341128
0.0120489
-0.00897955
-0.0287542
-0.047102
-0.0638818
-0.078972
-0.0922647
-0.10366
-0.113071
-0.12042
-0.125653
-0.128737
-0.12968
-0.128525
-0.125367
-0.120335
-0.11362
-0.105437
-0.0960544
-0.0857371
-0.0747957
-0.0635068
-0.0521859
-0.041088
-0.0305023
-0.0206439
-0.0117476
-0.00400006
0.00246805
0.00746546
0.0110654
0.0129741
0.0136468
0.0124752
0.0106088
0.00672798
0.00324222
0.236946
0.233798
0.227172
0.217057
0.203735
0.187567
0.168951
0.148336
0.12623
0.103163
0.0796596
0.0562008
0.0332051
0.0110156
-0.0100987
-0.0299306
-0.0483176
-0.065127
-0.0802428
-0.0935601
-0.10498
-0.114414
-0.121782
-0.127024
-0.130104
-0.131024
-0.129823
-0.126592
-0.12146
-0.114617
-0.106281
-0.096723
-0.0862143
-0.0750732
-0.063582
-0.052066
-0.0407852
-0.0300389
-0.0200433
-0.0110429
-0.00322262
0.00328088
0.00827961
0.0118492
0.0136938
0.0142874
0.0129983
0.011026
0.00697594
0.00337011
0.241438
0.23815
0.231229
0.220671
0.206781
0.189948
0.170606
0.149245
0.126412
0.102681
0.0786045
0.0546838
0.0313399
0.00890394
-0.0123758
-0.0323163
-0.0507771
-0.0676425
-0.0828077
-0.0961739
-0.107644
-0.117126
-0.124533
-0.129797
-0.13287
-0.133745
-0.132453
-0.129076
-0.123741
-0.116638
-0.107989
-0.0980744
-0.0871758
-0.0756271
-0.0637235
-0.0518094
-0.0401565
-0.0290829
-0.01881
-0.00959875
-0.00163328
0.00493873
0.00993723
0.0134384
0.0151525
0.015574
0.0140551
0.0118485
0.00748523
0.00359901
0.248301
0.244796
0.237419
0.226176
0.211404
0.193541
0.173072
0.150552
0.126596
0.10184
0.0768902
0.0522744
0.0284162
0.00562562
-0.0158853
-0.0359733
-0.0545328
-0.0714739
-0.0867089
-0.100148
-0.111695
-0.121254
-0.128726
-0.13403
-0.137098
-0.137911
-0.136482
-0.132885
-0.127238
-0.119735
-0.110602
-0.100136
-0.0886339
-0.0764537
-0.0639119
-0.0513822
-0.0391542
-0.0275756
-0.016877
-0.00734503
0.000838136
0.00750695
0.0124949
0.0158776
0.0173797
0.0175234
0.0156469
0.0130748
0.00824425
0.00393202
0.257695
0.253886
0.245876
0.233678
0.217675
0.19837
0.176324
0.152183
0.126661
0.100488
0.0743446
0.048799
0.0242734
0.00104049
-0.0207448
-0.0409992
-0.0596669
-0.0766938
-0.0920143
-0.10555
-0.117206
-0.126878
-0.134451
-0.13982
-0.142894
-0.143632
-0.142024
-0.138128
-0.132053
-0.123995
-0.11419
-0.102955
-0.090609
-0.0775474
-0.064115
-0.0507276
-0.0377
-0.0254209
-0.0141356
-0.00416639
0.00430627
0.011092
0.0160446
0.0192374
0.0204227
0.0201559
0.0177746
0.0146885
0.0092361
0.00435822
0.269837
0.265628
0.256783
0.243322
0.225689
0.204467
0.180322
0.154023
0.126426
0.0983936
0.0707121
0.0440034
0.0186793
-0.00504993
-0.0271181
-0.0475287
-0.0662931
-0.0834025
-0.0988186
-0.112476
-0.12428
-0.134111
-0.141833
-0.147308
-0.150412
-0.15107
-0.149243
-0.144965
-0.138332
-0.129545
-0.11885
-0.106594
-0.0931297
-0.0788971
-0.0642837
-0.0497585
-0.0356752
-0.0224759
-0.0104255
0.000107934
0.00894004
0.0158506
0.0207198
0.0236184
0.0243447
0.0234921
0.0204274
0.016649
0.0104247
0.00484772
0.285015
0.280296
0.270383
0.255304
0.235571
0.211871
0.185002
0.155904
0.125626
0.095222
0.0656268
0.0375297
0.0113142
-0.0129136
-0.0352226
-0.0557386
-0.0745599
-0.091732
-0.107248
-0.121056
-0.133057
-0.143113
-0.151053
-0.156696
-0.15987
-0.160457
-0.158374
-0.153624
-0.146286
-0.136564
-0.124723
-0.111147
-0.0962339
-0.080485
-0.0643454
-0.0483505
-0.03291
-0.0185324
-0.00551595
0.00572148
0.014978
0.022004
0.0267054
0.0291574
0.0292242
0.0275461
0.0235706
0.018876
0.0117393
0.0053422
0.303599
0.298237
0.286988
0.269871
0.24748
0.220622
0.190262
0.157573
0.123874
0.0904907
0.0585699
0.0288829
0.00174774
-0.0229018
-0.0453383
-0.065855
-0.0846577
-0.101853
-0.117467
-0.131462
-0.14373
-0.154102
-0.16236
-0.168264
-0.171577
-0.172119
-0.169749
-0.164425
-0.156207
-0.145303
-0.132003
-0.116739
-0.0999723
-0.0822832
-0.0641969
-0.0463306
-0.0291719
-0.0132998
0.000918022
0.0130134
0.0227469
0.0298533
0.0342472
0.0360315
0.0351514
0.0323164
0.0271295
0.0212304
0.0130575
0.0057441
0.326047
0.319892
0.306994
0.287338
0.261616
0.230759
0.195946
0.158662
0.120604
0.0834984
0.0488006
0.0173764
-0.0105944
-0.0354657
-0.0578155
-0.0781595
-0.0968253
-0.113982
-0.12969
-0.143923
-0.156556
-0.167374
-0.176096
-0.182398
-0.185962
-0.186516
-0.183832
-0.177817
-0.168507
-0.156113
-0.14096
-0.123543
-0.104415
-0.0842536
-0.0636968
-0.0434631
-0.0241486
-0.00639718
0.00929832
0.0224284
0.0326739
0.0397883
0.0436555
0.0444567
0.0422209
0.0377775
0.0309773
0.023506
0.0141937
0.00591411
0.35293
0.345801
0.330894
0.308102
0.278229
0.242315
0.201811
0.158627
0.114987
0.0732239
0.0352543
0.00204785
-0.0264858
-0.0511852
-0.0730888
-0.0929957
-0.111355
-0.128387
-0.144188
-0.15874
-0.171879
-0.18333
-0.192726
-0.199631
-0.20362
-0.204281
-0.201268
-0.194425
-0.183759
-0.169483
-0.151969
-0.131803
-0.109663
-0.0863546
-0.0626703
-0.0394466
-0.0174323
0.00265199
0.0201409
0.0345057
0.0452773
0.0522739
0.0552913
0.0546748
0.0505248
0.0438846
0.0349493
0.0254611
0.0149224
0.00569397
0.384936
0.376631
0.359303
0.33266
0.297636
0.255297
0.207472
0.156635
0.105782
0.0581774
0.0164135
-0.0184397
-0.0469674
-0.0708124
-0.0917032
-0.110782
-0.128592
-0.145387
-0.161291
-0.17628
-0.190134
-0.202485
-0.212847
-0.220664
-0.225345
-0.226257
-0.222911
-0.215085
-0.202739
-0.186079
-0.165555
-0.141872
-0.115885
-0.0885701
-0.0609307
-0.0339488
-0.00858255
0.0143814
0.0340481
0.0498492
0.0611107
0.0677823
0.0695118
0.0669131
0.0601444
0.0506047
0.03891
0.0269239
0.0150716
0.00497943
0.422894
0.413192
0.392985
0.361647
0.320248
0.26968
0.21232
0.15135
0.0910224
0.0361054
-0.00987937
-0.0458715
-0.0733538
-0.0952698
-0.114319
-0.132008
-0.148915
-0.165304
-0.181324
-0.19692
-0.211777
-0.225395
-0.237128
-0.24631
-0.252096
-0.253473
-0.249827
-0.240855
-0.226434
-0.206771
-0.182417
-0.154252
-0.123371
-0.0909835
-0.05837
-0.0267093
0.0027723
0.0292011
0.0514758
0.0689275
0.0805892
0.0866227
0.08653
0.0812866
0.0711227
0.0579547
0.0428548
0.0279394
0.0146693
0.00383383
0.467779
0.456464
0.432878
0.395885
0.346615
0.285412
0.215453
0.140674
0.0674741
0.00334299
-0.046885
-0.0826168
-0.107135
-0.125476
-0.141552
-0.157087
-0.172573
-0.188283
-0.204402
-0.220796
-0.237004
-0.252349
-0.265974
-0.27705
-0.284537
-0.286807
-0.283059
-0.272852
-0.255956
-0.232585
-0.203444
-0.169654
-0.132636
-0.0939246
-0.0551527
-0.0177668
0.0166881
0.0471505
0.0723802
0.0916266
0.103602
0.108607
0.106134
0.0975875
0.0833377
0.0659412
0.0469031
0.0287814
0.0139694
0.00251942
0.520708
0.507616
0.480126
0.436453
0.377446
0.302405
0.215554
0.121474
0.0300732
-0.0461602
-0.0999615
-0.132133
-0.149938
-0.162004
-0.173506
-0.185844
-0.199164
-0.213771
-0.229877
-0.247204
-0.265104
-0.282693
-0.298866
-0.31229
-0.322261
-0.326113
-0.3228
-0.311562
-0.292014
-0.264379
-0.229552
-0.188984
-0.144537
-0.0981927
-0.0520364
-0.00787919
0.0324047
0.0674527
0.0957945
0.116756
0.12896
0.132575
0.127276
0.114943
0.096199
0.074253
0.0509804
0.0295992
0.0131411
0.00126906
0.582917
0.568017
0.536124
0.484783
0.413588
0.320394
0.210239
0.0884936
-0.0284451
-0.121085
-0.177081
-0.19931
-0.203425
-0.204619
-0.208976
-0.216479
-0.226538
-0.239428
-0.255248
-0.273471
-0.293255
-0.313548
-0.333009
-0.350081
-0.362683
-0.368966
-0.367041
-0.355538
-0.333777
-0.301928
-0.261067
-0.213031
-0.160225
-0.105234
-0.0507193
0.00100983
0.047714
0.0876944
0.119182
0.141677
0.153853
0.155901
0.147676
0.131452
0.108241
0.0818009
0.0543405
0.0299231
0.011866
-1.75362e-05
0.655718
0.639216
0.602672
0.542866
0.456135
0.33867
0.194569
0.0304838
-0.119156
-0.230725
-0.284869
-0.287099
-0.267146
-0.250823
-0.24408
-0.244174
-0.249485
-0.259979
-0.27515
-0.29402
-0.315564
-0.338651
-0.361735
-0.38282
-0.39936
-0.409365
-0.410296
-0.400074
-0.377555
-0.342694
-0.296639
-0.241594
-0.18056
-0.116832
-0.0537701
0.00568565
0.058851
0.103724
0.138417
0.162124
0.174037
0.174577
0.163822
0.144144
0.117069
0.0867016
0.0556042
0.0287255
0.00944521
-0.00167928
0.740383
0.722835
0.682233
0.613716
0.507372
0.356262
0.159778
-0.0725131
-0.264698
-0.383234
-0.418663
-0.385927
-0.331718
-0.292457
-0.271409
-0.262204
-0.262139
-0.270278
-0.284852
-0.304216
-0.327195
-0.352637
-0.378981
-0.404219
-0.425346
-0.44005
-0.445256
-0.438215
-0.417169
-0.381648
-0.332666
-0.27264
-0.205088
-0.134027
-0.0635567
0.00268555
0.0615289
0.110623
0.148063
0.172927
0.184767
0.184166
0.171772
0.149838
0.120218
0.0870824
0.0534592
0.0250592
0.00537942
-0.00386597
0.837771
0.820333
0.778065
0.702083
0.573216
0.375201
0.0917652
-0.235618
-0.422306
-0.531177
-0.529404
-0.45789
-0.372003
-0.315938
-0.286307
-0.271188
-0.267758
-0.274175
-0.287728
-0.30666
-0.329947
-0.356531
-0.384941
-0.413163
-0.43838
-0.457623
-0.467475
-0.464774
-0.447119
-0.413481
-0.364535
-0.302675
-0.231703
-0.156187
-0.0808628
-0.010003
0.0527651
0.104763
0.144073
0.169876
0.182017
0.181339
0.168735
0.146253
0.115882
0.0816481
0.0471704
0.01864
-9.60731e-05
-0.00625897
0.94761
0.932494
0.893576
0.814603
0.666197
0.408205
0.0699287
-0.327687
-0.61921
-0.701425
-0.658255
-0.516334
-0.397019
-0.329777
-0.286836
-0.270978
-0.267757
-0.274218
-0.287385
-0.305754
-0.328576
-0.355041
-0.383921
-0.413383
-0.440799
-0.463057
-0.476664
-0.478104
-0.464568
-0.434527
-0.388227
-0.327822
-0.257108
-0.180885
-0.104261
-0.0319511
0.0320786
0.0849685
0.124918
0.151287
0.164173
0.164437
0.153107
0.131908
0.10289
0.0698088
0.0367663
0.0100943
-0.00591807
-0.00820585
1.06758
1.05855
1.03018
0.959299
0.804175
0.515907
0.0783499
-0.378242
-0.712175
-0.406807
-0.33136
-0.293329
-0.273187
-0.270403
-0.276101
-0.287947
-0.304694
-0.3258
-0.350667
-0.378288
-0.407039
-0.434555
-0.457841
-0.473511
-0.477932
-0.46819
-0.442455
-0.400595
-0.344417
-0.277469
-0.204467
-0.130565
-0.0605959
0.00142919
0.052703
0.0916029
0.117646
0.131103
0.132855
0.123993
0.105958
0.0807355
0.0516782
0.0229895
0.000771692
-0.0106386
-0.00904812
1.19274
1.19457
1.18473
1.14367
0.992888
0.67581
0.184772
-0.325385
-0.292941
-0.277072
-0.272016
-0.276992
-0.28725
-0.301923
-0.320647
-0.342977
-0.368081
-0.394561
-0.420341
-0.442723
-0.458628
-0.464482
-0.457639
-0.436185
-0.39977
-0.349867
-0.28965
-0.22349
-0.156242
-0.0924956
-0.0359959
0.0107005
0.0462298
0.070339
0.0835233
0.0867972
0.0813621
0.0683636
0.0496489
0.0279432
0.00704289
-0.00786232
-0.0131228
-0.00771438
1.3156
1.33143
1.35194
1.35591
1.23442
0.923536
-0.292327
-0.275859
-0.270847
-0.275222
-0.283937
-0.296453
-0.312485
-0.33168
-0.353358
-0.376346
-0.398891
-0.418672
-0.433
-0.438879
-0.433882
-0.416313
-0.385803
-0.343577
-0.292387
-0.236079
-0.178942
-0.125005
-0.0774816
-0.0384626
-0.00888039
0.0113728
0.0231339
0.0276689
0.0263384
0.0201623
0.0106259
-0.000369197
-0.0100501
-0.0150366
-0.0132722
-0.00512336
1.42476
1.45676
1.51237
1.5717
1.50105
1.26027
-0.271351
-0.266437
-0.270395
-0.277853
-0.288309
-0.301512
-0.317179
-0.33477
-0.353352
-0.371521
-0.387396
-0.398728
-0.403472
-0.399397
-0.385234
-0.360774
-0.327105
-0.286555
-0.242334
-0.197974
-0.156726
-0.121058
-0.0923906
-0.0710508
-0.0563996
-0.0471333
-0.0416501
-0.0384572
-0.0364192
-0.034623
-0.0321842
-0.0279379
-0.0210404
-0.0117217
-0.00176142
1.50799
1.55419
1.64276
1.75632
1.75625
1.63465
-0.269521
-0.259404
-0.263456
-0.26994
-0.278414
-0.288667
-0.300496
-0.313511
-0.327039
-0.340057
-0.351187
-0.358781
-0.361444
-0.357606
-0.346457
-0.328027
-0.303336
-0.274315
-0.243507
-0.213601
-0.186931
-0.165069
-0.148599
-0.137084
-0.129219
-0.123155
-0.116936
-0.108966
-0.0980092
-0.0837608
-0.0665061
-0.0469402
-0.0270787
-0.00979561
0.0021661
1.55411
1.60874
1.71739
1.8632
1.93826
-0.251543
-0.252396
-0.256412
-0.26181
-0.268158
-0.275245
-0.282939
-0.291012
-0.299068
-0.306487
-0.312424
-0.315837
-0.315978
-0.312002
-0.303593
-0.291055
-0.275374
-0.25812
-0.241181
-0.226386
-0.215101
-0.207908
-0.204434
-0.203375
-0.202702
-0.200019
-0.193077
-0.18021
-0.160378
-0.133815
-0.10205
-0.0674538
-0.0346783
-0.00912031
0.0060631
1.55656
1.61139
1.72052
1.86732
1.98063
-0.239118
-0.247374
-0.251016
-0.254958
-0.258836
-0.262441
-0.265713
-0.268594
-0.270968
-0.272622
-0.273259
-0.272376
-0.269926
-0.265699
-0.25986
-0.252981
-0.246024
-0.240224
-0.236849
-0.23689
-0.240748
-0.247978
-0.257215
-0.266264
-0.272401
-0.272744
-0.264871
-0.247191
-0.219113
-0.181374
-0.136855
-0.0890901
-0.0448186
-0.011026
0.00829256
1.51519
1.56191
1.65185
1.76804
1.8756
-0.238253
-0.24612
-0.248458
-0.250301
-0.251238
-0.251021
-0.249649
-0.247229
-0.243922
-0.239897
-0.235288
-0.230491
-0.225682
-0.221303
-0.217955
-0.216431
-0.217657
-0.222546
-0.231779
-0.245556
-0.263367
-0.283772
-0.304478
-0.32246
-0.334424
-0.337117
-0.328079
-0.305877
-0.270568
-0.223243
-0.168495
-0.110328
-0.0571667
-0.015911
0.00778033
1.43636
1.46912
1.52672
1.58975
1.64938
1.58695
-0.246654
-0.248771
-0.248738
-0.247863
-0.245463
-0.241186
-0.235087
-0.227446
-0.218705
-0.209414
-0.200203
-0.191858
-0.185123
-0.180864
-0.180004
-0.18348
-0.192141
-0.206581
-0.226932
-0.252655
-0.282451
-0.313992
-0.344218
-0.369416
-0.385916
-0.390181
-0.379965
-0.353641
-0.312262
-0.257496
-0.195041
-0.129447
-0.070191
-0.0236363
0.00516212
1.33107
1.34778
1.3705
1.37856
1.38688
1.23116
-0.255151
-0.2533
-0.250798
-0.246931
-0.241051
-0.232674
-0.22196
-0.209385
-0.195685
-0.181774
-0.168688
-0.157564
-0.149554
-0.145828
-0.147508
-0.155579
-0.170759
-0.193323
-0.222902
-0.258288
-0.297597
-0.337719
-0.375081
-0.40551
-0.425067
-0.43016
-0.418655
-0.389097
-0.343219
-0.283034
-0.215412
-0.145077
-0.0820755
-0.0324347
0.00108958
1.21148
1.21416
1.20646
1.16923
1.13246
0.82537
0.491087
-0.275035
-0.264218
-0.258207
-0.253189
-0.246569
-0.237246
-0.22496
-0.209958
-0.192946
-0.174965
-0.157269
-0.141229
-0.128252
-0.119747
-0.117046
-0.121336
-0.133546
-0.154207
-0.183274
-0.219952
-0.262546
-0.308529
-0.354487
-0.396448
-0.43
-0.451206
-0.456369
-0.443633
-0.411643
-0.362824
-0.299356
-0.228969
-0.156454
-0.09162
-0.0405202
-0.00337157
1.08897
1.08071
1.05411
0.986385
0.836162
0.618938
0.136045
-0.259027
-0.321917
-0.287475
-0.268657
-0.261476
-0.254331
-0.245314
-0.233034
-0.217334
-0.198652
-0.17795
-0.156571
-0.136081
-0.118118
-0.10427
-0.0960747
-0.0948874
-0.101826
-0.117666
-0.1427
-0.176573
-0.218141
-0.265351
-0.315341
-0.364418
-0.408504
-0.443127
-0.464515
-0.468932
-0.45493
-0.421226
-0.370841
-0.306149
-0.235215
-0.162957
-0.0981795
-0.0468028
-0.00750448
0.971123
0.956624
0.919073
0.842438
0.697447
0.44442
0.109057
-0.370624
-0.611774
-0.518333
-0.39123
-0.328293
-0.283991
-0.269454
-0.260879
-0.252361
-0.241484
-0.227042
-0.208831
-0.187474
-0.164192
-0.140596
-0.118495
-0.0997126
-0.0859582
-0.0787919
-0.0794889
-0.0890034
-0.107882
-0.136149
-0.173162
-0.217511
-0.266912
-0.318359
-0.368048
-0.411984
-0.445761
-0.465881
-0.468717
-0.453215
-0.418352
-0.367542
-0.303486
-0.234024
-0.164168
-0.101388
-0.0508105
-0.010965
0.862966
0.845974
0.804732
0.730332
0.603715
0.40835
0.127934
-0.197891
-0.482245
-0.615126
-0.579172
-0.471935
-0.360061
-0.307464
-0.281114
-0.267058
-0.257276
-0.247257
-0.234638
-0.218337
-0.198585
-0.175913
-0.151579
-0.12731
-0.10503
-0.0866328
-0.0739121
-0.0683366
-0.0710719
-0.0828792
-0.104056
-0.134363
-0.172903
-0.21808
-0.267478
-0.318086
-0.366145
-0.407865
-0.43903
-0.456455
-0.456861
-0.439549
-0.403998
-0.353784
-0.292019
-0.225889
-0.160208
-0.101199
-0.0524934
-0.0135717
0.766916
0.749674
0.709807
0.642322
0.537357
0.387675
0.192519
-0.0390674
-0.23234
-0.354086
-0.393919
-0.365745
-0.315397
-0.27863
-0.259016
-0.248457
-0.240361
-0.231267
-0.219375
-0.20402
-0.185112
-0.16334
-0.140082
-0.117099
-0.0963188
-0.079633
-0.0687719
-0.0651561
-0.0698285
-0.0833826
-0.105905
-0.136941
-0.175395
-0.219558
-0.26696
-0.314674
-0.359094
-0.396736
-0.423698
-0.437184
-0.434439
-0.415168
-0.379502
-0.330986
-0.273018
-0.211895
-0.151795
-0.0979493
-0.0521218
-0.0152675
0.683336
0.667048
0.631003
0.571881
0.485971
0.369311
0.225795
0.0619128
-0.0884145
-0.201739
-0.258454
-0.263458
-0.245639
-0.230124
-0.222515
-0.218715
-0.214567
-0.208099
-0.198507
-0.185495
-0.169179
-0.1503
-0.130141
-0.110308
-0.0925676
-0.0786995
-0.0703247
-0.0687729
-0.0749906
-0.0894633
-0.112146
-0.142455
-0.179174
-0.22055
-0.264142
-0.30715
-0.346205
-0.37825
-0.399807
-0.408562
-0.402464
-0.38159
-0.346719
-0.301213
-0.248418
-0.193662
-0.140119
-0.0922826
-0.0501273
-0.0160963
0.611447
0.596705
0.565142
0.51427
0.443579
0.35088
0.241019
0.119296
0.00193386
-0.0916765
-0.149035
-0.172573
-0.177297
-0.177781
-0.179517
-0.181518
-0.181683
-0.178956
-0.173034
-0.163887
-0.151757
-0.137317
-0.121673
-0.106225
-0.0925158
-0.0821153
-0.0764791
-0.0768146
-0.0839745
-0.0983768
-0.119922
-0.147992
-0.181364
-0.218331
-0.256583
-0.293484
-0.326096
-0.35166
-0.367453
-0.371542
-0.362675
-0.34125
-0.308458
-0.267334
-0.220794
-0.173219
-0.126654
-0.0850481
-0.0470016
-0.0161577
0.550035
0.537061
0.509797
0.466459
0.407796
0.333092
0.246446
0.152393
0.0607979
-0.0158664
-0.0701853
-0.102612
-0.119945
-0.130297
-0.138293
-0.144646
-0.148581
-0.14955
-0.147455
-0.142413
-0.134727
-0.124983
-0.114094
-0.103221
-0.0936527
-0.0867111
-0.0836379
-0.0854752
-0.0929625
-0.106454
-0.125838
-0.15052
-0.179365
-0.210805
-0.242734
-0.272834
-0.298905
-0.31814
-0.328626
-0.32898
-0.318606
-0.298057
-0.268599
-0.23283
-0.193006
-0.152663
-0.11286
-0.0771346
-0.0432405
-0.0156103
0.497822
0.486598
0.463179
0.426441
0.377439
0.316506
0.246753
0.172089
0.0989218
0.0347804
-0.015357
-0.0506336
-0.0739884
-0.0900591
-0.102322
-0.112006
-0.119027
-0.12315
-0.124399
-0.122974
-0.119211
-0.113625
-0.106961
-0.100152
-0.094242
-0.090302
-0.0893442
-0.0922221
-0.0995449
-0.111593
-0.128257
-0.148996
-0.172839
-0.198408
-0.223925
-0.247564
-0.26736
-0.281358
-0.287735
-0.285747
-0.275171
-0.256596
-0.231124
-0.200875
-0.167431
-0.133641
-0.09985
-0.0692761
-0.0392721
-0.0146555
0.453591
0.443963
0.423893
0.392767
0.35161
0.301301
0.244191
0.183456
0.123376
0.0687817
0.0233212
-0.0117465
-0.0376463
-0.0570191
-0.0722345
-0.0844477
-0.0938845
-0.100532
-0.104502
-0.106037
-0.105481
-0.103294
-0.100085
-0.0965993
-0.0936694
-0.0921423
-0.092819
-0.0963704
-0.103277
-0.113748
-0.12768
-0.144611
-0.163749
-0.183933
-0.203782
-0.221872
-0.236518
-0.246194
-0.249681
-0.246479
-0.236495
-0.220272
-0.198657
-0.17334
-0.145353
-0.117023
-0.0882449
-0.0619573
-0.0354141
-0.0134975
0.416235
0.407995
0.390794
0.364347
0.329566
0.287508
0.239999
0.18952
0.139103
0.0920808
0.0511488
0.0175313
-0.00916156
-0.0303463
-0.0475116
-0.0615621
-0.0728342
-0.0814523
-0.0875827
-0.0914825
-0.0934818
-0.0939883
-0.09351
-0.0926462
-0.0920589
-0.0924138
-0.0943382
-0.0983489
-0.104816
-0.113884
-0.125463
-0.139161
-0.154346
-0.170077
-0.185307
-0.198862
-0.209466
-0.215914
-0.217436
-0.213642
-0.204471
-0.190394
-0.172018
-0.150689
-0.127048
-0.10303
-0.0782648
-0.055438
-0.0318697
-0.0123002
0.384786
0.377719
0.362938
0.340344
0.310732
0.275138
0.235022
0.192312
0.149268
0.108285
0.0713687
0.0396073
0.0130576
-0.00895415
-0.0272999
-0.0426272
-0.0552735
-0.0654225
-0.073263
-0.0790427
-0.0830668
-0.0856964
-0.0873602
-0.0885469
-0.0897879
-0.0916093
-0.0945033
-0.0988662
-0.10498
-0.112938
-0.122659
-0.133815
-0.145901
-0.158165
-0.169781
-0.179788
-0.18737
-0.191511
-0.191661
-0.187526
-0.17907
-0.166694
-0.150821
-0.132538
-0.11222
-0.0915067
-0.0698869
-0.0498105
-0.0287409
-0.0111688
0.358416
0.352324
0.339559
0.320113
0.294676
0.264186
0.229832
0.193124
0.155793
0.119622
0.0861377
0.0562987
0.030393
0.00818225
-0.0108018
-0.0269857
-0.0406507
-0.051985
-0.0611747
-0.0684474
-0.0740781
-0.0783851
-0.0817344
-0.0845303
-0.0872051
-0.0901793
-0.0938426
-0.0985008
-0.104367
-0.111502
-0.119826
-0.129066
-0.138814
-0.148468
-0.157369
-0.164661
-0.170069
-0.172511
-0.17164
-0.167256
-0.159334
-0.148219
-0.1342
-0.11818
-0.100355
-0.0821454
-0.0629663
-0.0450604
-0.0260567
-0.0101585
0.336435
0.331141
0.320035
0.303144
0.281068
0.254623
0.224788
0.192762
0.159897
0.127567
0.0969761
0.0689658
0.0439315
0.0218846
0.00261931
-0.0141146
-0.0285212
-0.040764
-0.0510115
-0.0594663
-0.0663722
-0.0720085
-0.0766898
-0.0807555
-0.0845617
-0.0884496
-0.0927315
-0.0976463
-0.103357
-0.109898
-0.117197
-0.125021
-0.133038
-0.140772
-0.147718
-0.153341
-0.156786
-0.157904
-0.156255
-0.151667
-0.144118
-0.133912
-0.121246
-0.10689
-0.0909256
-0.0746068
-0.0573169
-0.041119
-0.0238038
-0.00929023
0.318272
0.313624
0.303865
0.289032
0.269644
0.2464
0.220114
0.191753
0.162395
0.133135
0.104953
0.0785896
0.0544822
0.032785
0.0134631
-0.00359989
-0.0185325
-0.0314616
-0.0425308
-0.0519165
-0.0598318
-0.066521
-0.0722561
-0.0773254
-0.0820269
-0.0866413
-0.0914226
-0.0965606
-0.102181
-0.108301
-0.114853
-0.121637
-0.128378
-0.134688
-0.140145
-0.144291
-0.146542
-0.146705
-0.144467
-0.139712
-0.132418
-0.122861
-0.111179
-0.0980466
-0.0834724
-0.0685839
-0.0527547
-0.0378977
-0.0219476
-0.008565
0.303462
0.299331
0.290651
0.277454
0.260194
0.239466
0.215955
0.190453
0.163843
0.137023
0.110813
0.0858726
0.0626476
0.0413741
0.0221273
0.00488839
-0.0104064
-0.0238457
-0.0355459
-0.0456574
-0.0543654
-0.0618831
-0.0684475
-0.0743066
-0.0797134
-0.0849031
-0.0900856
-0.0954144
-0.100987
-0.106811
-0.11282
-0.118842
-0.124642
-0.129894
-0.134244
-0.137309
-0.138683
-0.138142
-0.135461
-0.130568
-0.123448
-0.114357
-0.103393
-0.0911634
-0.0776285
-0.0638215
-0.0491179
-0.0353074
-0.0204468
-0.00797405
0.291635
0.287907
0.280073
0.268156
0.252551
0.233772
0.212401
0.189105
0.164623
0.139713
0.115082
0.0913235
0.0688798
0.048032
0.0289256
0.0116101
-0.00392645
-0.0177376
-0.029914
-0.0405821
-0.0499026
-0.0580626
-0.0652706
-0.0717429
-0.0776981
-0.0833372
-0.0888368
-0.0943238
-0.0998755
-0.105492
-0.111109
-0.116576
-0.121687
-0.126162
-0.129703
-0.131989
-0.132706
-0.131647
-0.128636
-0.123637
-0.116637
-0.107881
-0.0974398
-0.0858744
-0.0731126
-0.0601178
-0.0462727
-0.0332682
-0.0192612
-0.00750517
0.282497
0.279077
0.271886
0.260938
0.246583
0.229273
0.209511
0.187873
0.164996
0.14154
0.11813
0.0953107
0.0735151
0.0530483
0.0340999
0.0167661
0.00107401
-0.0130009
-0.0255266
-0.0366096
-0.0463901
-0.0550345
-0.0627282
-0.0696638
-0.0760341
-0.0820144
-0.0877574
-0.0933702
-0.0989158
-0.104389
-0.109728
-0.114797
-0.119413
-0.123331
-0.12629
-0.128018
-0.128257
-0.126825
-0.123576
-0.118497
-0.11158
-0.103062
-0.0929973
-0.0819125
-0.0697157
-0.0573187
-0.0441134
-0.0317138
-0.0183557
-0.00714607
0.275828
0.272629
0.2659
0.255649
0.242191
0.225932
0.207321
0.186868
0.165143
0.142735
0.120217
0.0980969
0.0767978
0.0566374
0.0378317
0.0205078
0.00472045
-0.0095329
-0.0223027
-0.0336795
-0.0437883
-0.0527793
-0.0608214
-0.0680895
-0.074758
-0.0809843
-0.086904
-0.0926107
-0.0981572
-0.103535
-0.108685
-0.113481
-0.117755
-0.121289
-0.123847
-0.12519
-0.125097
-0.123407
-0.119993
-0.114858
-0.107997
-0.0996431
-0.0898385
-0.0790878
-0.0672868
-0.0553105
-0.04256
-0.030592
-0.0177019
-0.00688573
0.271468
0.268411
0.261981
0.252182
0.239303
0.223721
0.20585
0.186162
0.16518
0.143454
0.121518
0.0998617
0.0788977
0.0589503
0.0402505
0.0229441
0.0071032
-0.00726007
-0.0201841
-0.0317488
-0.0420686
-0.0512831
-0.05955
-0.067033
-0.0738944
-0.0802802
-0.086315
-0.092084
-0.0976337
-0.102953
-0.107985
-0.11261
-0.116671
-0.119963
-0.122269
-0.123372
-0.12307
-0.121217
-0.117698
-0.112528
-0.105701
-0.0974506
-0.0878102
-0.0772707
-0.0657214
-0.0540131
-0.0415553
-0.0298638
-0.0172797
-0.00671275
0.269316
0.266327
0.260044
0.250466
0.237871
0.22262
0.205113
0.185799
0.165182
0.14379
0.122143
0.100717
0.0799212
0.0600825
0.0414387
0.0241441
0.0082794
-0.0061361
-0.0191347
-0.0307909
-0.0412137
-0.0505377
-0.0589149
-0.0665032
-0.0734593
-0.0799235
-0.0860151
-0.0918152
-0.097367
-0.102659
-0.107634
-0.112177
-0.116134
-0.11931
-0.121495
-0.122482
-0.122079
-0.120147
-0.116578
-0.11139
-0.104581
-0.0963796
-0.0868199
-0.0763807
-0.0649569
-0.0533741
-0.0410668
-0.029499
-0.0170829
-0.00661166
0.234727
0.231649
0.225167
0.215269
0.202225
0.186382
0.16812
0.147871
0.12612
0.103381
0.0801605
0.0569319
0.0341119
0.0120483
-0.00898002
-0.0287545
-0.0471022
-0.063882
-0.0789722
-0.0922649
-0.103661
-0.113071
-0.120421
-0.125654
-0.128738
-0.129681
-0.128526
-0.125367
-0.120335
-0.113621
-0.105437
-0.0960545
-0.0857368
-0.0747956
-0.0635062
-0.0521857
-0.0410873
-0.0305021
-0.020643
-0.0117473
-0.0039994
0.00246856
0.00746529
0.0110667
0.012972
0.0136504
0.0124697
0.0106182
0.00671482
0.00326367
0.236945
0.233801
0.227174
0.217058
0.203735
0.187568
0.168951
0.148336
0.126229
0.103162
0.0796585
0.0561997
0.0332043
0.0110149
-0.0100992
-0.0299309
-0.0483178
-0.0651273
-0.080243
-0.0935604
-0.10498
-0.114414
-0.121782
-0.127025
-0.130104
-0.131025
-0.129824
-0.126593
-0.12146
-0.114618
-0.106281
-0.0967231
-0.0862141
-0.0750732
-0.0635814
-0.0520657
-0.0407844
-0.0300387
-0.0200424
-0.0110426
-0.00322195
0.00328134
0.00827946
0.0118505
0.0136919
0.014291
0.0129928
0.0110353
0.00696288
0.0033919
0.241437
0.238153
0.231231
0.220672
0.206781
0.189949
0.170606
0.149244
0.126411
0.10268
0.0786031
0.0546826
0.0313389
0.00890331
-0.0123762
-0.0323166
-0.0507773
-0.0676428
-0.0828079
-0.0961742
-0.107644
-0.117126
-0.124533
-0.129797
-0.13287
-0.133746
-0.132453
-0.129077
-0.123741
-0.116638
-0.107989
-0.0980745
-0.0871755
-0.0756269
-0.0637228
-0.0518092
-0.0401557
-0.0290827
-0.018809
-0.00959847
-0.0016325
0.00493916
0.0099372
0.0134396
0.0151506
0.0155776
0.0140494
0.0118581
0.00747184
0.00362186
0.2483
0.244799
0.237422
0.226176
0.211404
0.193541
0.173071
0.150551
0.126594
0.101839
0.0768886
0.052273
0.0284153
0.00562502
-0.0158856
-0.0359735
-0.0545329
-0.0714741
-0.0867091
-0.100148
-0.111696
-0.121254
-0.128727
-0.13403
-0.137099
-0.137912
-0.136483
-0.132886
-0.127239
-0.119736
-0.110603
-0.100137
-0.0886334
-0.0764535
-0.0639111
-0.051382
-0.0391533
-0.0275754
-0.0168759
-0.00734473
0.000839164
0.00750738
0.012495
0.0158787
0.0173777
0.0175269
0.0156408
0.0130849
0.00823019
0.00395644
0.257694
0.25389
0.245879
0.233678
0.217675
0.19837
0.176323
0.152181
0.126659
0.100486
0.0743425
0.0487974
0.0242723
0.00103997
-0.020745
-0.0409993
-0.059667
-0.076694
-0.0920145
-0.10555
-0.117207
-0.126878
-0.134451
-0.13982
-0.142895
-0.143633
-0.142025
-0.138129
-0.132054
-0.123996
-0.11419
-0.102955
-0.0906085
-0.0775471
-0.0641142
-0.0507275
-0.037699
-0.0254207
-0.0141342
-0.00416598
0.00430764
0.0110924
0.0160449
0.0192384
0.0204206
0.0201592
0.017768
0.0146989
0.0092213
0.0043845
0.269835
0.265633
0.256786
0.243323
0.225689
0.204467
0.180321
0.154022
0.126423
0.0983905
0.0707093
0.0440013
0.0186782
-0.00505028
-0.0271181
-0.0475286
-0.0662931
-0.0834027
-0.0988189
-0.112477
-0.124281
-0.134112
-0.141834
-0.147309
-0.150413
-0.151071
-0.149244
-0.144966
-0.138333
-0.129546
-0.118851
-0.106595
-0.0931291
-0.0788969
-0.0642828
-0.0497584
-0.0356741
-0.0224755
-0.0104237
0.000108434
0.00894175
0.0158509
0.0207203
0.0236192
0.0243425
0.0234949
0.0204202
0.0166595
0.0104092
0.00487582
0.285014
0.2803
0.270387
0.255305
0.235571
0.211871
0.185001
0.155901
0.125622
0.0952177
0.0656229
0.0375272
0.0113132
-0.0129136
-0.0352222
-0.0557383
-0.07456
-0.0917323
-0.107248
-0.121056
-0.133058
-0.143114
-0.151054
-0.156697
-0.159871
-0.160458
-0.158376
-0.153625
-0.146287
-0.136565
-0.124724
-0.111147
-0.0962333
-0.0804848
-0.0643443
-0.0483503
-0.0329087
-0.0185322
-0.0055139
0.00572202
0.0149799
0.0220042
0.0267062
0.0291579
0.0292221
0.0275485
0.0235631
0.0188864
0.0117236
0.0053714
0.303597
0.298243
0.286993
0.269872
0.24748
0.220622
0.19026
0.157569
0.123868
0.0904844
0.0585645
0.0288798
0.00174695
-0.0229011
-0.0453371
-0.0658544
-0.0846577
-0.101853
-0.117467
-0.131462
-0.143731
-0.154103
-0.162361
-0.168265
-0.171578
-0.172121
-0.169751
-0.164427
-0.156208
-0.145304
-0.132004
-0.116739
-0.0999719
-0.0822831
-0.0641957
-0.0463302
-0.0291705
-0.0132995
0.000920003
0.0130139
0.022749
0.0298536
0.0342483
0.036032
0.0351495
0.0323186
0.0271222
0.0212401
0.013042
0.0057726
0.326046
0.319898
0.306999
0.28734
0.261617
0.230759
0.195943
0.158656
0.120595
0.0834892
0.0487936
0.017373
-0.0105943
-0.0354634
-0.0578134
-0.0781587
-0.0968252
-0.113982
-0.12969
-0.143924
-0.156557
-0.167375
-0.176097
-0.182399
-0.185964
-0.186518
-0.183834
-0.177819
-0.168509
-0.156115
-0.14096
-0.123543
-0.104415
-0.0842537
-0.0636959
-0.0434629
-0.0241472
-0.00639671
0.00929993
0.0224288
0.0326756
0.039789
0.0436566
0.0444579
0.0422198
0.0377799
0.0309711
0.0235143
0.0141796
0.00593876
0.352928
0.345808
0.330901
0.308104
0.278231
0.242315
0.201807
0.158618
0.114973
0.0732098
0.0352452
0.0020459
-0.0264819
-0.0511795
-0.0730856
-0.0929949
-0.111354
-0.128387
-0.144188
-0.158739
-0.171879
-0.18333
-0.192726
-0.199632
-0.203622
-0.204284
-0.20127
-0.194427
-0.183761
-0.169485
-0.151971
-0.131805
-0.109664
-0.0863555
-0.0626705
-0.0394471
-0.017432
0.00265173
0.0201408
0.0345055
0.0452774
0.052275
0.0552919
0.0546772
0.0505241
0.0438879
0.0349447
0.0254671
0.014911
0.00571051
0.384933
0.376638
0.359312
0.332662
0.297641
0.255297
0.207466
0.15662
0.105758
0.0581542
0.0164003
-0.0184387
-0.0469541
-0.0707998
-0.0916974
-0.11078
-0.128591
-0.145385
-0.161288
-0.176277
-0.190132
-0.202483
-0.212847
-0.220664
-0.225347
-0.226258
-0.222912
-0.215087
-0.202741
-0.186082
-0.165557
-0.141874
-0.115887
-0.0885727
-0.0609331
-0.0339509
-0.00858426
0.0143799
0.0340446
0.0498473