/*--------------------------------*- C++ -*----------------------------------*\
  =========                 |
  \\      /  F ield         | OpenFOAM: The Open Source CFD Toolbox
   \\    /   O peration     | Website:  https://openfoam.org
    \\  /    A nd           | Version:  8
     \\/     M anipulation  |
\*---------------------------------------------------------------------------*/
FoamFile
{
    version     2.0;
    format      ascii;
    class       volScalarField;
    location    "13";
    object      p;
}
// * * * * * * * * * * * * * * * * * * * * * * * * * * * * * * * * * * * * * //

dimensions      [0 2 -2 0 0 0 0];

internalField   nonuniform List<scalar> 
11600
(
6.82221e-09
-5.05776e-07
-4.03793e-07
-1.11087e-07
5.01321e-07
1.39681e-06
2.57246e-06
4.02707e-06
5.75922e-06
7.76808e-06
1.00535e-05
1.26157e-05
1.54548e-05
1.85709e-05
2.19641e-05
2.56345e-05
2.95821e-05
3.38072e-05
3.83097e-05
4.30896e-05
4.81468e-05
5.34813e-05
5.90927e-05
6.49809e-05
7.11452e-05
7.75853e-05
8.43005e-05
9.12901e-05
9.85532e-05
0.000106089
0.000113895
0.000121972
0.000130316
0.000138926
0.000147801
0.000156936
0.000166331
0.000175983
0.000185888
0.000196044
0.000206448
0.000217097
0.000227988
0.000239118
0.000250484
0.000262084
0.000273915
0.000285976
0.000298266
0.000310786
0.000323539
0.000336528
0.000349763
0.000363256
0.000377023
0.000391121
0.000405639
0.00041982
0.000438031
0.000446714
2.09146e-07
-2.1072e-07
-4.90404e-08
2.6328e-07
8.85245e-07
1.78428e-06
2.95947e-06
4.4116e-06
6.14046e-06
8.14561e-06
1.04268e-05
1.2984e-05
1.58175e-05
1.89275e-05
2.23141e-05
2.59775e-05
2.99177e-05
3.41349e-05
3.8629e-05
4.34002e-05
4.84483e-05
5.37734e-05
5.9375e-05
6.5253e-05
7.1407e-05
7.78365e-05
8.45408e-05
9.15194e-05
9.87713e-05
0.000106295
0.000114091
0.000122155
0.000130488
0.000139087
0.000147949
0.000157073
0.000166456
0.000176096
0.00018599
0.000196135
0.000206529
0.000217167
0.000228049
0.00023917
0.000250528
0.000262121
0.000273948
0.000286006
0.000298296
0.000310821
0.000323584
0.000336594
0.000349865
0.000363419
0.000377294
0.000391573
0.000406345
0.000421451
0.000439149
0.000453615
-9.11996e-08
-5.06228e-07
-3.21646e-07
-6.61823e-10
6.27032e-07
1.52963e-06
2.70658e-06
4.1589e-06
5.88686e-06
7.89057e-06
1.017e-05
1.27252e-05
1.55564e-05
1.86637e-05
2.20474e-05
2.57077e-05
2.96447e-05
3.38584e-05
3.83491e-05
4.31166e-05
4.81611e-05
5.34825e-05
5.90805e-05
6.49549e-05
7.11054e-05
7.75315e-05
8.42327e-05
9.12083e-05
9.84573e-05
0.000105979
0.000113772
0.000121834
0.000130164
0.000138761
0.000147622
0.000156744
0.000166126
0.000175765
0.000185658
0.000195803
0.000206196
0.000216835
0.000227717
0.000238838
0.000250197
0.00026179
0.000273615
0.000285671
0.000297958
0.000310477
0.00032323
0.000336223
0.000349465
0.000362969
0.00037676
0.00039088
0.000405358
0.000420161
0.000436273
0.000450742
-5.32553e-07
-9.43034e-07
-7.41447e-07
-4.11653e-07
2.21731e-07
1.12741e-06
2.30571e-06
3.75795e-06
5.48462e-06
7.48609e-06
9.76265e-06
1.23145e-05
1.51419e-05
1.82451e-05
2.16243e-05
2.52798e-05
2.92118e-05
3.34203e-05
3.79056e-05
4.26676e-05
4.77065e-05
5.30223e-05
5.86147e-05
6.44837e-05
7.0629e-05
7.70501e-05
8.37465e-05
9.07176e-05
9.79624e-05
0.00010548
0.000113269
0.000121327
0.000129655
0.000138248
0.000147106
0.000156227
0.000165607
0.000175245
0.000185138
0.000195282
0.000205676
0.000216315
0.000227197
0.000238319
0.000249678
0.000261271
0.000273096
0.000285151
0.000297434
0.000309947
0.000322691
0.00033567
0.000348892
0.000362369
0.00037612
0.000390173
0.00040455
0.000419276
0.000434637
0.000449517
-1.27087e-06
-1.68211e-06
-1.47223e-06
-1.13722e-06
-5.0007e-07
4.07508e-07
1.58648e-06
3.03845e-06
4.76398e-06
6.7635e-06
9.03746e-06
1.15862e-05
1.44101e-05
1.75095e-05
2.08846e-05
2.45358e-05
2.84632e-05
3.26671e-05
3.71477e-05
4.1905e-05
4.69393e-05
5.22505e-05
5.78386e-05
6.37035e-05
6.9845e-05
7.62628e-05
8.29563e-05
8.99248e-05
9.71674e-05
0.000104683
0.000112471
0.000120528
0.000128855
0.000137449
0.000146308
0.000155429
0.000164812
0.000174452
0.000184348
0.000194496
0.000204894
0.000215537
0.000226424
0.00023755
0.000248913
0.000260509
0.000272335
0.000284389
0.000296669
0.000309172
0.000321899
0.000334851
0.000348028
0.000361435
0.000375078
0.000388962
0.000403083
0.000417439
0.000432065
0.000446525
-2.28138e-06
-2.6948e-06
-2.48142e-06
-2.14377e-06
-1.50429e-06
-5.95674e-07
5.83265e-07
2.03439e-06
3.75837e-06
5.75569e-06
8.02686e-06
1.05723e-05
1.33925e-05
1.64879e-05
1.98587e-05
2.35055e-05
2.74284e-05
3.16277e-05
3.61037e-05
4.08565e-05
4.58864e-05
5.11935e-05
5.67778e-05
6.26393e-05
6.87778e-05
7.51931e-05
8.18846e-05
8.88516e-05
9.60933e-05
0.000103609
0.000111396
0.000119455
0.000127784
0.00013638
0.000145242
0.000154368
0.000163755
0.000173401
0.000183303
0.000193458
0.000203863
0.000214514
0.000225408
0.000236542
0.000247912
0.000259514
0.000271345
0.000283401
0.000295678
0.000308173
0.000320883
0.000333806
0.00034694
0.000360282
0.000373828
0.000387571
0.000401496
0.00041558
0.000429778
0.000443894
-3.5668e-06
-3.98226e-06
-3.76793e-06
-3.42975e-06
-2.78949e-06
-1.88077e-06
-7.02542e-07
7.47139e-07
2.46905e-06
4.46374e-06
6.73175e-06
9.27361e-06
1.20898e-05
1.51809e-05
1.85474e-05
2.21895e-05
2.61078e-05
3.03026e-05
3.47741e-05
3.95226e-05
4.45484e-05
4.98518e-05
5.54327e-05
6.12914e-05
6.74276e-05
7.38412e-05
8.05315e-05
8.74981e-05
9.47401e-05
0.000102257
0.000110046
0.000118108
0.00012644
0.000135041
0.000143908
0.000153041
0.000162436
0.00017209
0.000182002
0.000192167
0.000202583
0.000213246
0.000224152
0.000235298
0.000246679
0.000258291
0.000270129
0.00028219
0.000294467
0.000306957
0.000319654
0.000332551
0.000345644
0.000358923
0.000372377
0.00038599
0.000399737
0.000413582
0.000427464
0.00044126
-5.12942e-06
-5.54707e-06
-5.3329e-06
-4.99566e-06
-4.35599e-06
-3.44817e-06
-2.27141e-06
-8.23788e-07
8.95492e-07
2.88704e-06
5.15146e-06
7.68933e-06
1.05012e-05
1.35878e-05
1.69495e-05
2.0587e-05
2.45005e-05
2.86906e-05
3.31577e-05
3.79021e-05
4.29241e-05
4.82241e-05
5.38021e-05
5.96585e-05
6.5793e-05
7.22055e-05
7.88956e-05
8.58627e-05
9.31062e-05
0.000100625
0.000108418
0.000116485
0.000124822
0.00013343
0.000142306
0.000151448
0.000160853
0.00017052
0.000180444
0.000190623
0.000201054
0.000211732
0.000222654
0.000233816
0.000245212
0.000256839
0.00026869
0.000280761
0.000293044
0.000305534
0.000318223
0.000331103
0.000344163
0.000357391
0.000370772
0.000384282
0.000397893
0.000411563
0.000425231
0.000438811
-6.96977e-06
-7.39034e-06
-7.17685e-06
-6.84145e-06
-6.20343e-06
-5.29749e-06
-4.12298e-06
-2.6781e-06
-9.62066e-07
1.02578e-06
3.28609e-06
5.81951e-06
8.62672e-06
1.17084e-05
1.50651e-05
1.86975e-05
2.26062e-05
2.67916e-05
3.12542e-05
3.59945e-05
4.10129e-05
4.63097e-05
5.18853e-05
5.77397e-05
6.3873e-05
7.0285e-05
7.69756e-05
8.39443e-05
9.11904e-05
9.87132e-05
0.000106511
0.000114584
0.00012293
0.000131547
0.000140433
0.000149587
0.000159006
0.000168687
0.000178628
0.000188825
0.000199274
0.000209973
0.000220915
0.000232098
0.000243515
0.000255161
0.000267031
0.000279118
0.000291414
0.000303912
0.000316602
0.000329474
0.000342515
0.00035571
0.00036904
0.000382479
0.000395996
0.000409549
0.000423085
0.000436533
-9.08784e-06
-9.51232e-06
-9.30007e-06
-8.96716e-06
-8.3316e-06
-7.42837e-06
-6.25693e-06
-4.81552e-06
-3.10338e-06
-1.11984e-06
1.1358e-06
3.66426e-06
6.46628e-06
9.54262e-06
1.2894e-05
1.65211e-05
2.04246e-05
2.46051e-05
2.90632e-05
3.37994e-05
3.88142e-05
4.4108e-05
4.96812e-05
5.5534e-05
6.16666e-05
6.80788e-05
7.47707e-05
8.17417e-05
8.89916e-05
9.65195e-05
0.000104324
0.000112405
0.000120761
0.000129389
0.000138289
0.000147457
0.000156893
0.000166592
0.000176553
0.000186771
0.000197244
0.000207966
0.000218934
0.000230143
0.000241586
0.000253259
0.000265154
0.000277265
0.000289582
0.000302098
0.000314801
0.000327678
0.000340716
0.000353898
0.000367201
0.000380601
0.000394066
0.000407556
0.000421023
0.00043441
-1.14838e-05
-1.1913e-05
-1.17026e-05
-1.13728e-05
-1.07404e-05
-9.84065e-06
-8.67304e-06
-7.23584e-06
-5.5283e-06
-3.54972e-06
-1.29935e-06
1.22358e-06
4.0199e-06
7.09043e-06
1.0436e-05
1.40574e-05
1.79554e-05
2.21308e-05
2.65841e-05
3.1316e-05
3.63272e-05
4.1618e-05
4.7189e-05
5.30404e-05
5.91726e-05
6.55855e-05
7.22793e-05
7.92537e-05
8.65083e-05
9.40425e-05
0.000101855
0.000109946
0.000118313
0.000126955
0.00013587
0.000145056
0.000154511
0.000164232
0.000174216
0.00018446
0.00019496
0.000205712
0.00021671
0.000227951
0.000239427
0.000251133
0.000263061
0.000275204
0.000287553
0.000300097
0.000312825
0.000325723
0.000338775
0.000351965
0.000365269
0.000378662
0.000392113
0.000405586
0.000419038
0.000432423
-1.41577e-05
-1.45923e-05
-1.43843e-05
-1.40584e-05
-1.34298e-05
-1.25342e-05
-1.13712e-05
-9.93893e-06
-8.23671e-06
-6.26379e-06
-4.01936e-06
-1.50259e-06
1.28744e-06
4.35163e-06
7.69089e-06
1.13061e-05
1.51982e-05
1.9368e-05
2.38163e-05
2.85437e-05
3.3551e-05
3.88387e-05
4.44075e-05
5.02577e-05
5.63897e-05
6.28038e-05
6.95001e-05
7.64785e-05
8.37388e-05
9.12805e-05
9.91027e-05
0.000107205
0.000115585
0.000124242
0.000133175
0.000142381
0.000151859
0.000161605
0.000171616
0.00018189
0.000192422
0.000203208
0.000214242
0.000225521
0.000237037
0.000248783
0.000260753
0.000272938
0.000285328
0.000297913
0.000310679
0.000323613
0.000336699
0.000349918
0.000363249
0.000376665
0.000390139
0.000403636
0.000417119
0.000430548
-1.71099e-05
-1.75503e-05
-1.73452e-05
-1.70238e-05
-1.63996e-05
-1.5509e-05
-1.43512e-05
-1.29247e-05
-1.12286e-05
-9.26204e-06
-7.02426e-06
-4.51433e-06
-1.73126e-06
1.32595e-06
4.65832e-06
8.26683e-06
1.21525e-05
1.63162e-05
2.07589e-05
2.54814e-05
3.04845e-05
3.5769e-05
4.13354e-05
4.71844e-05
5.33165e-05
5.97321e-05
6.64313e-05
7.34144e-05
8.06812e-05
8.82312e-05
9.6064e-05
0.000104179
0.000112574
0.000121249
0.000130202
0.000139431
0.000148934
0.000158708
0.000168751
0.000179058
0.000189627
0.000200452
0.000211528
0.000222851
0.000234414
0.000246209
0.00025823
0.000270466
0.000282909
0.000295546
0.000308365
0.000321352
0.00033449
0.000347761
0.000361143
0.000374612
0.000388141
0.000401699
0.000415252
0.000428766
-2.03403e-05
-2.0787e-05
-2.05851e-05
-2.02689e-05
-1.96498e-05
-1.87648e-05
-1.76131e-05
-1.61931e-05
-1.45038e-05
-1.25444e-05
-1.03141e-05
-7.81178e-06
-5.0364e-06
-1.98689e-06
1.33788e-06
4.93899e-06
8.81755e-06
1.29746e-05
1.74112e-05
2.21282e-05
2.71267e-05
3.24075e-05
3.79714e-05
4.38191e-05
4.99513e-05
5.63685e-05
6.30711e-05
7.00593e-05
7.73332e-05
8.48925e-05
9.27368e-05
0.000100865
0.000109278
0.000117972
0.000126947
0.000136202
0.000145733
0.000155539
0.000165617
0.000175962
0.000186572
0.000197441
0.000208566
0.00021994
0.000231557
0.000243409
0.000255489
0.000267787
0.000280294
0.000292997
0.000305884
0.00031894
0.000332149
0.000345493
0.000358951
0.0003725
0.000386114
0.000399764
0.00041342
0.000427054
-2.38487e-05
-2.43024e-05
-2.4104e-05
-2.37935e-05
-2.31803e-05
-2.23015e-05
-2.11567e-05
-1.97439e-05
-1.80623e-05
-1.6111e-05
-1.3889e-05
-1.13951e-05
-8.62825e-06
-5.58724e-06
-2.27087e-06
1.32206e-06
5.19275e-06
9.34238e-06
1.37721e-05
1.84831e-05
2.34764e-05
2.8753e-05
3.4314e-05
4.01602e-05
4.62924e-05
5.27112e-05
5.94173e-05
6.64109e-05
7.36923e-05
8.12616e-05
8.91184e-05
9.72624e-05
0.000105693
0.000114409
0.000123408
0.000132691
0.000142253
0.000152094
0.00016221
0.000172598
0.000183254
0.000194173
0.000205352
0.000216783
0.000228462
0.000240379
0.000252528
0.000264898
0.00027748
0.000290263
0.000303232
0.000316374
0.000329674
0.000343112
0.000356669
0.000370322
0.000384049
0.00039782
0.000411615
0.000425397
-2.76349e-05
-2.80962e-05
-2.79017e-05
-2.75976e-05
-2.69908e-05
-2.61191e-05
-2.49818e-05
-2.35772e-05
-2.19042e-05
-1.99618e-05
-1.77489e-05
-1.52644e-05
-1.2507e-05
-9.47546e-06
-6.16842e-06
-2.58459e-06
1.27733e-06
5.41866e-06
9.84072e-06
1.45448e-05
1.95322e-05
2.48041e-05
3.03616e-05
3.62058e-05
4.23377e-05
4.87579e-05
5.54674e-05
6.24666e-05
6.97559e-05
7.73357e-05
8.52059e-05
9.33663e-05
0.000101816
0.000110555
0.000119581
0.000128894
0.00013849
0.000148369
0.000158527
0.000168961
0.000179668
0.000190643
0.000201882
0.000213378
0.000225125
0.000237116
0.000249343
0.000261796
0.000274466
0.00028734
0.000300407
0.000313651
0.000327058
0.00034061
0.000354288
0.000368071
0.000381935
0.000395859
0.000409813
0.000423773
-3.16987e-05
-3.21682e-05
-3.19781e-05
-3.16809e-05
-3.10812e-05
-3.02172e-05
-2.90884e-05
-2.76927e-05
-2.60292e-05
-2.40967e-05
-2.1894e-05
-1.94199e-05
-1.6673e-05
-1.36519e-05
-1.03553e-05
-6.78161e-06
-2.92951e-06
1.20249e-06
5.61588e-06
1.03121e-05
1.52927e-05
2.0559e-05
2.61124e-05
3.1954e-05
3.80849e-05
4.45063e-05
5.12189e-05
5.82236e-05
6.55211e-05
7.31119e-05
8.09961e-05
8.91737e-05
9.76444e-05
0.000106408
0.000115462
0.000124807
0.00013444
0.00014436
0.000154563
0.000165048
0.000175811
0.000186846
0.000198151
0.000209718
0.000221542
0.000233615
0.000245929
0.000258475
0.000271244
0.000284224
0.000297402
0.000310765
0.000324297
0.000337982
0.000351801
0.000365734
0.00037976
0.000393857
0.000407999
0.000422162
-3.60398e-05
-3.65182e-05
-3.63328e-05
-3.60432e-05
-3.54512e-05
-3.45957e-05
-3.34761e-05
-3.20904e-05
-3.04373e-05
-2.85157e-05
-2.63243e-05
-2.38617e-05
-2.11265e-05
-1.81171e-05
-1.4832e-05
-1.12697e-05
-7.42862e-06
-3.30713e-06
1.09643e-06
5.78374e-06
1.07565e-05
1.60162e-05
2.15644e-05
2.74025e-05
3.35318e-05
3.99536e-05
4.6669e-05
5.36791e-05
6.09848e-05
6.85867e-05
7.64853e-05
8.46809e-05
9.31733e-05
0.000101962
0.000111046
0.000120425
0.000130098
0.000140061
0.000150314
0.000160853
0.000171676
0.000182777
0.000194153
0.000205798
0.000217705
0.000229869
0.00024228
0.00025493
0.00026781
0.000280907
0.000294211
0.000307708
0.000321382
0.000335218
0.000349198
0.000363303
0.000377513
0.000391806
0.000406159
0.000420549
-4.06579e-05
-4.11458e-05
-4.09656e-05
-4.06842e-05
-4.01006e-05
-3.92544e-05
-3.81449e-05
-3.677e-05
-3.51284e-05
-3.32188e-05
-3.10398e-05
-2.859e-05
-2.58676e-05
-2.28712e-05
-1.95991e-05
-1.60495e-05
-1.22209e-05
-8.11127e-06
-3.71888e-06
9.58166e-07
5.92173e-06
1.11736e-05
1.67155e-05
2.2549e-05
2.86758e-05
3.50973e-05
4.18149e-05
4.88299e-05
5.61435e-05
6.37565e-05
7.16698e-05
7.98837e-05
8.83984e-05
9.72137e-05
0.000106329
0.000115744
0.000125458
0.000135468
0.000145773
0.000156371
0.000167257
0.000178429
0.000189882
0.000201611
0.00021361
0.000225871
0.000238389
0.000251153
0.000264154
0.000277382
0.000290825
0.00030447
0.000318303
0.000332307
0.000346467
0.000360761
0.000375178
0.00038969
0.000404276
0.000418916
-4.55526e-05
-4.60505e-05
-4.58758e-05
-4.56033e-05
-4.50289e-05
-4.41929e-05
-4.30944e-05
-4.17313e-05
-4.01023e-05
-3.82058e-05
-3.60405e-05
-3.36047e-05
-3.08967e-05
-2.79147e-05
-2.46571e-05
-2.11219e-05
-1.73072e-05
-1.3211e-05
-8.83137e-06
-4.16612e-06
7.86789e-07
6.02936e-06
1.15636e-05
1.73913e-05
2.35143e-05
2.99345e-05
3.66534e-05
4.36727e-05
5.09936e-05
5.86175e-05
6.65453e-05
7.47777e-05
8.33151e-05
9.21577e-05
0.000101306
0.000110758
0.000120515
0.000130574
0.000140934
0.000151594
0.000162549
0.000173796
0.000185331
0.00019715
0.000209247
0.000221615
0.000234247
0.000247134
0.000260268
0.000273639
0.000287234
0.000301042
0.000315048
0.000329238
0.000343596
0.000358104
0.000372742
0.000387492
0.000402334
0.000417245
-5.07231e-05
-5.12318e-05
-5.10631e-05
-5.08002e-05
-5.02358e-05
-4.94108e-05
-4.83243e-05
-4.69741e-05
-4.53588e-05
-4.34767e-05
-4.13264e-05
-3.89061e-05
-3.62139e-05
-3.32481e-05
-3.00066e-05
-2.64874e-05
-2.26885e-05
-1.86076e-05
-1.42424e-05
-9.59069e-06
-4.65018e-06
5.81411e-07
6.10629e-06
1.19266e-05
1.80446e-05
2.44621e-05
3.11813e-05
3.82038e-05
4.55313e-05
5.31654e-05
6.11072e-05
6.93579e-05
7.79181e-05
8.67886e-05
9.59696e-05
0.000105461
0.000115262
0.000125373
0.000135791
0.000146515
0.000157542
0.000168869
0.000180492
0.000192407
0.000204608
0.00021709
0.000229845
0.000242865
0.000256143
0.000269667
0.000283427
0.000297411
0.000311606
0.000325997
0.000340569
0.000355306
0.000370188
0.000385197
0.000400315
0.000415519
-5.61688e-05
-5.66889e-05
-5.65268e-05
-5.62742e-05
-5.57206e-05
-5.49076e-05
-5.38342e-05
-5.24981e-05
-5.08976e-05
-4.90313e-05
-4.68975e-05
-4.44942e-05
-4.18196e-05
-3.88716e-05
-3.56482e-05
-3.2147e-05
-2.83657e-05
-2.4302e-05
-1.99533e-05
-1.53172e-05
-1.0391e-05
-5.17235e-06
3.41364e-07
6.15258e-06
1.22637e-05
1.86771e-05
2.5395e-05
3.24194e-05
3.97524e-05
4.73956e-05
5.53507e-05
6.36191e-05
7.22021e-05
8.11006e-05
9.03153e-05
9.98465e-05
0.000109694
0.000119857
0.000130335
0.000141127
0.000152229
0.00016364
0.000175355
0.000187371
0.000199684
0.000212286
0.000225172
0.000238335
0.000251765
0.000265454
0.000279391
0.000293565
0.000307962
0.00032257
0.000337373
0.000352356
0.0003675
0.000382788
0.000398201
0.000413719
-6.18889e-05
-6.24211e-05
-6.22659e-05
-6.20245e-05
-6.14826e-05
-6.06827e-05
-5.96235e-05
-5.83027e-05
-5.67185e-05
-5.48694e-05
-5.27536e-05
-5.03692e-05
-4.7714e-05
-4.47858e-05
-4.15824e-05
-3.81013e-05
-3.43399e-05
-3.02956e-05
-2.59656e-05
-2.13472e-05
-1.64376e-05
-1.1234e-05
-5.73363e-06
6.63926e-08
6.16874e-06
1.25761e-05
1.92908e-05
2.63155e-05
3.36523e-05
4.13033e-05
4.92706e-05
5.75561e-05
6.61613e-05
7.50876e-05
8.43361e-05
9.39075e-05
0.000103802
0.00011402
0.00012456
0.000135421
0.000146601
0.000158099
0.000169911
0.000182034
0.000194463
0.000207193
0.000220218
0.000233531
0.000247124
0.000260988
0.000275113
0.000289489
0.000304102
0.000318942
0.000333992
0.000349237
0.000364661
0.000380247
0.000395975
0.000411826
-6.78825e-05
-6.84274e-05
-6.82798e-05
-6.80504e-05
-6.75212e-05
-6.67353e-05
-6.56916e-05
-6.43874e-05
-6.2821e-05
-6.09908e-05
-5.88948e-05
-5.6531e-05
-5.38973e-05
-5.09911e-05
-4.781e-05
-4.43512e-05
-4.0612e-05
-3.65894e-05
-3.22806e-05
-2.76824e-05
-2.27919e-05
-1.76058e-05
-1.21212e-05
-6.33473e-06
-2.43535e-07
6.15538e-06
1.28649e-05
1.98876e-05
2.72263e-05
3.48835e-05
4.28616e-05
5.11629e-05
5.97894e-05
6.87429e-05
7.8025e-05
8.76367e-05
9.75787e-05
0.000107851
0.000118455
0.000129387
0.000140649
0.000152238
0.00016415
0.000176384
0.000188935
0.000201799
0.00021497
0.000228441
0.000242205
0.000256254
0.000270578
0.000285168
0.000300011
0.000315096
0.000330407
0.000345932
0.000361654
0.000377555
0.000393617
0.000409821
-7.41483e-05
-7.47067e-05
-7.45673e-05
-7.43508e-05
-7.38352e-05
-7.30647e-05
-7.20377e-05
-7.07516e-05
-6.92046e-05
-6.7395e-05
-6.53208e-05
-6.29798e-05
-6.03697e-05
-5.74878e-05
-5.43313e-05
-5.08974e-05
-4.71829e-05
-4.31847e-05
-3.88997e-05
-3.43245e-05
-2.94557e-05
-2.429e-05
-1.88238e-05
-1.30537e-05
-6.97643e-06
-5.88607e-07
6.11295e-06
1.31314e-05
2.04697e-05
2.81309e-05
3.6118e-05
4.44335e-05
5.30799e-05
6.20597e-05
7.13745e-05
8.10261e-05
9.10156e-05
0.000101344
0.000112011
0.000123018
0.000134362
0.000146044
0.000158061
0.00017041
0.000183088
0.000196091
0.000209413
0.00022305
0.000236994
0.000251238
0.000265772
0.000280587
0.000295672
0.000311015
0.000326602
0.000342423
0.000358459
0.000374693
0.000391107
0.000407683
-8.06854e-05
-8.1258e-05
-8.11272e-05
-8.09246e-05
-8.04238e-05
-7.96697e-05
-7.86609e-05
-7.73944e-05
-7.58687e-05
-7.40817e-05
-7.20314e-05
-6.97155e-05
-6.71313e-05
-6.42762e-05
-6.11469e-05
-5.77405e-05
-5.40535e-05
-5.00826e-05
-4.58243e-05
-4.12751e-05
-3.64311e-05
-3.12888e-05
-2.58442e-05
-2.00937e-05
-1.40334e-05
-7.65977e-06
-9.69138e-07
6.04207e-06
1.33774e-05
2.10402e-05
2.90338e-05
3.73615e-05
4.60261e-05
5.50304e-05
6.43768e-05
7.40674e-05
8.4104e-05
9.44879e-05
0.00010522
0.000116301
0.00012773
0.000139507
0.000151631
0.000164098
0.000176907
0.000190055
0.000203535
0.000217345
0.000231476
0.000245923
0.000260676
0.000275728
0.000291067
0.000306681
0.000322558
0.00033869
0.000355056
0.000371639
0.000388424
0.000405392
-8.74923e-05
-8.80799e-05
-8.79585e-05
-8.77706e-05
-8.72856e-05
-8.65493e-05
-8.55601e-05
-8.43151e-05
-8.28125e-05
-8.10502e-05
-7.90262e-05
-7.67378e-05
-7.41822e-05
-7.13564e-05
-6.82572e-05
-6.48812e-05
-6.12247e-05
-5.72842e-05
-5.30559e-05
-4.85359e-05
-4.37202e-05
-3.86046e-05
-3.31852e-05
-2.74577e-05
-2.1418e-05
-1.50621e-05
-8.38575e-06
-1.38503e-06
5.94408e-06
1.36055e-05
2.1603e-05
2.99403e-05
3.86207e-05
4.76475e-05
5.70237e-05
6.67519e-05
7.68345e-05
8.72735e-05
9.80703e-05
0.000109226
0.000120741
0.000132615
0.000144847
0.000157436
0.00017038
0.000183676
0.00019732
0.000211308
0.000225634
0.000240292
0.000255275
0.000270573
0.000286177
0.000302076
0.000318259
0.000334713
0.000351424
0.000368374
0.000385547
0.000402925
-9.45677e-05
-9.51711e-05
-9.50595e-05
-9.48873e-05
-9.44192e-05
-9.37021e-05
-9.27342e-05
-9.15125e-05
-9.00351e-05
-8.83e-05
-8.63046e-05
-8.40463e-05
-8.15221e-05
-7.87286e-05
-7.56625e-05
-7.232e-05
-6.86974e-05
-6.47907e-05
-6.05959e-05
-5.61087e-05
-5.13249e-05
-4.62401e-05
-4.08497e-05
-3.51491e-05
-2.91339e-05
-2.27995e-05
-1.61413e-05
-9.15479e-06
-1.83545e-06
5.8211e-06
1.38191e-05
2.21628e-05
3.08561e-05
3.99028e-05
4.93065e-05
5.90704e-05
6.91975e-05
7.96904e-05
9.05511e-05
0.000101781
0.000113382
0.000125353
0.000137696
0.000150409
0.000163491
0.000176939
0.000190752
0.000204924
0.000219452
0.000234328
0.000249548
0.000265102
0.000280982
0.000297178
0.000313678
0.00033047
0.00034754
0.000364873
0.000382452
0.000400259
-0.00010191
-0.00010253
-0.000102429
-0.000102273
-0.000101823
-0.000101127
-0.000100182
-9.89855e-05
-9.75356e-05
-9.583e-05
-9.38659e-05
-9.16406e-05
-8.91506e-05
-8.63926e-05
-8.33628e-05
-8.00573e-05
-7.64721e-05
-7.2603e-05
-6.84456e-05
-6.39954e-05
-5.92476e-05
-5.41976e-05
-4.88405e-05
-4.31712e-05
-3.71848e-05
-3.08762e-05
-2.42404e-05
-1.72722e-05
-9.96677e-06
-2.31911e-06
5.67559e-06
1.4022e-05
2.27247e-05
3.17881e-05
4.12164e-05
5.10134e-05
6.11827e-05
7.17276e-05
8.26507e-05
9.39544e-05
0.00010564
0.00011771
0.000130164
0.000143002
0.000156224
0.000169829
0.000183813
0.000198174
0.000212909
0.000228011
0.000243475
0.000259294
0.00027546
0.000291963
0.000308792
0.000325936
0.000343381
0.000361113
0.000379115
0.000397369
-0.000109517
-0.000110154
-0.000110064
-0.000109927
-0.000109496
-0.000108822
-0.000107902
-0.000106733
-0.000105313
-0.000103639
-0.000101709
-9.95199e-05
-9.70674e-05
-9.43482e-05
-9.13583e-05
-8.80936e-05
-8.45497e-05
-8.07223e-05
-7.66065e-05
-7.21975e-05
-6.74903e-05
-6.24798e-05
-5.71606e-05
-5.15273e-05
-4.55744e-05
-3.92963e-05
-3.26875e-05
-2.57425e-05
-1.84556e-05
-1.08214e-05
-2.8345e-06
5.51038e-06
1.42184e-05
2.32947e-05
3.27439e-05
4.25708e-05
5.27794e-05
6.33736e-05
7.4357e-05
8.57326e-05
9.75029e-05
0.00010967
0.000122235
0.0001352
0.000148564
0.000162326
0.000176486
0.00019104
0.000205986
0.00022132
0.000237037
0.000253129
0.000269589
0.00028641
0.000303579
0.000321088
0.000338922
0.000357068
0.000375509
0.00039423
-0.000117387
-0.000118042
-0.000117964
-0.000117845
-0.000117435
-0.000116785
-0.000115892
-0.000114753
-0.000113365
-0.000111726
-0.000109834
-0.000107683
-0.000105272
-0.000102595
-9.96488e-05
-9.64289e-05
-9.29307e-05
-8.91494e-05
-8.50798e-05
-8.07169e-05
-7.60552e-05
-7.10891e-05
-6.58129e-05
-6.02206e-05
-5.43064e-05
-4.80641e-05
-4.14876e-05
-3.45709e-05
-2.73077e-05
-1.96922e-05
-1.17181e-05
-3.37971e-06
5.32895e-06
1.44135e-05
2.38795e-05
3.37321e-05
4.39763e-05
5.46166e-05
6.56574e-05
7.71025e-05
8.89552e-05
0.000101219
0.000113895
0.000126986
0.000140492
0.000154414
0.000168751
0.000183502
0.000198664
0.000214235
0.000230209
0.000246582
0.000263346
0.000280493
0.000298013
0.000315899
0.000334136
0.000352711
0.00037161
0.000390814
-0.000125517
-0.000126191
-0.000126126
-0.000126027
-0.00012564
-0.000125015
-0.000124151
-0.000123044
-0.000121691
-0.00012009
-0.000118238
-0.00011613
-0.000113763
-0.000111132
-0.000108234
-0.000105063
-0.000101615
-9.78851e-05
-9.38668e-05
-8.95551e-05
-8.49442e-05
-8.00279e-05
-7.48002e-05
-6.92546e-05
-6.33846e-05
-5.71838e-05
-5.06454e-05
-4.37628e-05
-3.65293e-05
-2.89381e-05
-2.09826e-05
-1.26561e-05
-3.95228e-06
5.13541e-06
1.46131e-05
2.44867e-05
3.47619e-05
4.54443e-05
5.65388e-05
6.80502e-05
7.99828e-05
9.23403e-05
0.000105126
0.000118342
0.00013199
0.000146072
0.000160588
0.000175538
0.000190919
0.000206731
0.000222969
0.000239628
0.000256704
0.000274188
0.000292071
0.000310345
0.000328997
0.000348015
0.000367386
0.000387092
-0.000133905
-0.000134599
-0.000134547
-0.00013447
-0.000134106
-0.000133509
-0.000132676
-0.000131604
-0.000130289
-0.000128729
-0.00012692
-0.000124858
-0.000122539
-0.000119959
-0.000117114
-0.000113997
-0.000110604
-0.00010693
-0.000102969
-9.87136e-05
-9.41591e-05
-8.92985e-05
-8.41253e-05
-7.86324e-05
-7.2813e-05
-6.66599e-05
-6.01659e-05
-5.33239e-05
-4.61263e-05
-3.85659e-05
-3.06352e-05
-2.23271e-05
-1.36341e-05
-4.54935e-06
4.9342e-06
1.48233e-05
2.51244e-05
3.58439e-05
4.69877e-05
5.85614e-05
7.05702e-05
8.30187e-05
9.59109e-05
0.00010925
0.00012304
0.000137281
0.000151977
0.000167126
0.00018273
0.000198786
0.000215291
0.000232243
0.000249637
0.000267466
0.000285727
0.000304394
0.000323473
0.000342949
0.000362808
0.000383033
-0.000142548
-0.000143263
-0.000143225
-0.000143171
-0.000142833
-0.000142265
-0.000141466
-0.000140431
-0.000139156
-0.00013764
-0.000135878
-0.000133866
-0.0001316
-0.000129075
-0.000126287
-0.000123229
-0.000119897
-0.000116285
-0.000112386
-0.000108194
-0.000103702
-9.89032e-05
-9.37908e-05
-8.83573e-05
-8.25952e-05
-7.64967e-05
-7.00542e-05
-6.32596e-05
-5.61051e-05
-4.85825e-05
-4.06838e-05
-3.24008e-05
-2.37257e-05
-1.46506e-05
-5.16781e-06
4.73039e-06
1.50514e-05
2.58023e-05
3.69901e-05
4.86212e-05
6.07016e-05
7.3237e-05
8.62324e-05
9.96923e-05
0.000113621
0.000128021
0.000142895
0.000158245
0.000174071
0.000190374
0.00020715
0.000224399
0.000242116
0.000260296
0.000278933
0.000298014
0.000317534
0.000337481
0.000357843
0.000378604
-0.000151443
-0.000152179
-0.000152157
-0.000152127
-0.000151816
-0.00015128
-0.000150517
-0.000149522
-0.000148291
-0.000146823
-0.000145111
-0.000143153
-0.000140944
-0.000138479
-0.000135753
-0.00013276
-0.000129494
-0.00012595
-0.000122119
-0.000117996
-0.000113574
-0.000108844
-0.0001038
-9.84326e-05
-9.2735e-05
-8.66987e-05
-8.03151e-05
-7.35758e-05
-6.6472e-05
-5.8995e-05
-5.11359e-05
-4.2886e-05
-3.42365e-05
-2.51786e-05
-1.57038e-05
-5.80366e-06
4.53028e-06
1.53061e-05
2.65315e-05
3.82139e-05
5.03605e-05
6.29777e-05
7.60718e-05
8.96484e-05
0.000103713
0.000118269
0.00013332
0.00014887
0.000164919
0.000181469
0.000198519
0.000216068
0.000234113
0.00025265
0.000271673
0.000291174
0.000311146
0.000331578
0.000352458
0.000373771
-0.000160586
-0.000161345
-0.000161339
-0.000161335
-0.000161053
-0.000160552
-0.000159827
-0.000158874
-0.000157691
-0.000156273
-0.000154617
-0.000152717
-0.00015057
-0.00014817
-0.000145511
-0.000142589
-0.000139395
-0.000135924
-0.000132169
-0.000128122
-0.000123776
-0.000119123
-0.000114154
-0.000108861
-0.000103236
-9.72701e-05
-9.09538e-05
-8.42781e-05
-7.72335e-05
-6.98106e-05
-6.19997e-05
-5.37913e-05
-4.51758e-05
-3.61435e-05
-2.66851e-05
-1.67909e-05
-6.45185e-06
4.34116e-06
1.55969e-05
2.73237e-05
3.95297e-05
5.22227e-05
6.54099e-05
7.90983e-05
9.32939e-05
0.000108002
0.000123228
0.000138975
0.000155246
0.000172044
0.000189368
0.00020722
0.000225597
0.000244497
0.000263914
0.000283842
0.000304275
0.000325203
0.000346615
0.000368497
-0.000169974
-0.000170756
-0.000170767
-0.000170791
-0.000170541
-0.000170075
-0.000169392
-0.000168485
-0.000167352
-0.000165989
-0.000164392
-0.000162556
-0.000160475
-0.000158145
-0.00015556
-0.000152714
-0.000149599
-0.000146209
-0.000142536
-0.000138573
-0.00013431
-0.000129741
-0.000124856
-0.000119646
-0.000114102
-0.000108215
-0.000101975
-9.53721e-05
-8.83959e-05
-8.10364e-05
-7.32831e-05
-6.51256e-05
-5.65533e-05
-4.75559e-05
-3.81228e-05
-2.82437e-05
-1.79084e-05
-7.10683e-06
4.17072e-06
1.59338e-05
2.81917e-05
4.09532e-05
5.4227e-05
6.8021e-05
8.23426e-05
9.71984e-05
0.000112594
0.000128536
0.000145026
0.00016207
0.00017967
0.000197825
0.000216537
0.000235803
0.00025562
0.000275982
0.000296885
0.00031832
0.000340276
0.000362742
-0.000179602
-0.000180409
-0.000180439
-0.000180492
-0.000180275
-0.000179848
-0.000179208
-0.000178351
-0.000177272
-0.000175968
-0.000174434
-0.000172666
-0.000170658
-0.000168404
-0.000165898
-0.000163134
-0.000160105
-0.000156803
-0.00015322
-0.000149348
-0.000145178
-0.000140701
-0.000135908
-0.00013079
-0.000125337
-0.000119538
-0.000113384
-0.000106863
-9.99657e-05
-9.26796e-05
-8.4994e-05
-7.68975e-05
-6.83788e-05
-5.94263e-05
-5.00287e-05
-4.01747e-05
-2.98531e-05
-1.90527e-05
-7.7628e-06
4.02739e-06
1.63283e-05
2.91502e-05
4.25026e-05
5.63948e-05
7.08354e-05
8.58324e-05
0.000101393
0.000117524
0.000134231
0.00015152
0.000169392
0.000187852
0.000206899
0.000226534
0.000246755
0.000267557
0.000288938
0.00031089
0.000333402
0.000356465
-0.000189467
-0.0001903
-0.000190348
-0.000190432
-0.000190251
-0.000189865
-0.000189272
-0.000188468
-0.000187447
-0.000186206
-0.000184741
-0.000183046
-0.000181115
-0.000178943
-0.000176524
-0.000173849
-0.000170913
-0.000167706
-0.00016422
-0.000160448
-0.000156378
-0.000152003
-0.000147312
-0.000142296
-0.000136943
-0.000131243
-0.000125185
-0.000118758
-0.000111949
-0.000104747
-9.71404e-05
-8.9116e-05
-8.06619e-05
-7.17655e-05
-6.24146e-05
-5.25968e-05
-4.22999e-05
-3.15116e-05
-2.02199e-05
-8.41289e-06
3.92116e-06
1.67936e-05
3.02154e-05
4.41971e-05
5.87486e-05
7.38793e-05
8.95982e-05
0.000105913
0.000122832
0.00014036
0.000158503
0.000177265
0.000196648
0.000216653
0.00023728
0.000258527
0.000280393
0.000302869
0.000325949
0.000349623
-0.000199563
-0.000200423
-0.000200492
-0.000200608
-0.000200464
-0.000200122
-0.00019958
-0.000198831
-0.000197872
-0.0001967
-0.000195308
-0.000193691
-0.000191844
-0.000189761
-0.000187434
-0.000184856
-0.00018202
-0.000178916
-0.000175537
-0.000171873
-0.000167913
-0.00016365
-0.000159071
-0.000154166
-0.000148924
-0.000143334
-0.000137383
-0.00013106
-0.000124352
-0.000117247
-0.00010973
-0.00010179
-9.34124e-05
-8.45844e-05
-7.52924e-05
-6.55231e-05
-5.5263e-05
-4.44988e-05
-3.32171e-05
-2.14048e-05
-9.0489e-06
3.86317e-06
1.73437e-05
3.14046e-05
4.60574e-05
6.1313e-05
7.7182e-05
9.36739e-05
0.000110798
0.000128561
0.00014697
0.000166031
0.000185747