/*--------------------------------*- C++ -*----------------------------------*\
  =========                 |
  \\      /  F ield         | OpenFOAM: The Open Source CFD Toolbox
   \\    /   O peration     | Website:  https://openfoam.org
    \\  /    A nd           | Version:  8
     \\/     M anipulation  |
\*---------------------------------------------------------------------------*/
FoamFile
{
    version     2.0;
    format      ascii;
    class       volScalarField;
    location    "87";
    object      p;
}
// * * * * * * * * * * * * * * * * * * * * * * * * * * * * * * * * * * * * * //

dimensions      [0 2 -2 0 0 0 0];

internalField   nonuniform List<scalar> 
2844
(
-0.0404687
-0.0505051
-0.0752399
-0.102863
-0.119366
-0.120246
-0.106884
-0.0817696
-0.0533842
-0.0280705
-0.0127585
-0.00116267
0.0105928
0.0182771
0.0224648
0.021349
0.0193434
0.0179604
0.0152927
0.00596185
-0.0359984
-0.044508
-0.0751929
-0.107121
-0.128262
-0.128032
-0.112033
-0.0831852
-0.0474859
-0.0241981
-0.00866404
0.00372654
0.0142625
0.0231448
0.0292665
0.0287098
0.0291632
0.0285668
0.0223588
0.00815051
-0.0145437
-0.0318912
-0.0729285
-0.131101
-0.150346
-0.147306
-0.125522
-0.0924194
-0.0521331
-0.0195742
-0.0093697
-0.00145013
0.0116458
0.0142516
0.016541
0.0100021
0.00875947
0.00695071
0.0173467
0.00710028
0.0029461
-0.0144351
-0.0759143
-0.153163
-0.183894
-0.174976
-0.146636
-0.102116
-0.0272901
-0.00794391
-0.00309254
0.00958414
0.0187637
0.0234829
0.0314066
0.0373775
0.0376276
0.0396691
0.0294903
0.0100763
0.0604246
0.0206747
-0.082393
-0.258509
-0.261651
-0.239839
-0.185579
-0.118393
-0.0379593
-0.000264921
-0.0105957
-0.00875004
0.00529922
-0.00178362
0.00797226
-0.00999426
-0.0268935
-0.0258237
-0.0190554
-0.00605997
0.121769
0.0760006
-0.116054
-0.360982
-0.368496
-0.331001
-0.249492
-0.11219
0.039459
0.00727466
-0.0452434
-0.0493342
-0.0221657
-0.00769712
0.00806394
0.0211915
0.0205342
0.00943205
-0.0216867
-0.0111364
0.252368
0.146265
-0.24632
-0.584359
-0.656646
-0.512052
-0.383772
-0.210916
0.0476257
-0.10368
-0.167433
-0.165334
-0.091921
-0.0187209
-0.00762311
-0.0909035
-0.102739
-0.125534
-0.16523
-0.0431002
0.522606
0.375185
-0.168583
-0.939039
-1.20538
-0.714128
-0.530427
-0.38929
0.24056
0.00889147
-0.181504
-0.267355
-0.186419
-0.106437
-0.0819038
-0.115274
-0.174065
-0.209178
-0.13579
-0.0205151
0.398358
-0.0370868
-0.0439818
-0.784923
-0.474377
0.245998
0.0101281
-0.20992
-0.207952
-0.254661
-0.143293
-0.0726974
-0.103609
-0.176716
-0.147844
-0.0966062
-0.0141009
1.06922
0.476418
1.03982
-0.621121
-0.730263
0.00969544
-0.190341
-0.120004
-0.114075
-0.136405
-0.0939691
-0.101495
-0.135836
-0.110071
-0.0872066
-0.0807216
-0.0232641
1.06416
0.889207
-0.496592
-0.468786
-0.3964
-0.39396
-0.268897
-0.325291
-0.221244
-0.0647154
-0.106186
-0.0991643
0.0151444
-0.0254696
-0.0393683
-0.01157
0.53847
0.294146
0.546404
-0.443501
-0.407795
-0.510903
-0.342266
-0.135497
0.0712875
0.239541
0.00235728
-0.0788324
-0.0687558
0.000893479
-0.0103874
-0.0297389
-0.0125713
0.365872
0.23512
-0.230942
-0.412838
-0.302676
-0.267938
-0.380747
-0.243326
-0.19745
-0.21027
-0.122919
-0.0181092
0.0469741
0.0270002
-0.00775159
-0.0112464
-0.0159252
-0.00918833
0.206664
0.0755824
-0.156782
-0.575215
-0.875591
-0.32891
-0.240642
-0.215082
-0.191178
-0.130331
-0.190636
-0.283303
-0.364867
-0.188793
-0.0685904
-0.0233135
-0.0403795
-0.0195836
-0.00772108
-0.00373351
0.106644
0.0614283
-0.0854434
-0.221067
-0.294422
-0.269284
-0.147246
-0.147079
-0.135813
-0.052741
-0.0244495
-0.0261443
-0.00442697
0.0200948
0.0340336
0.0226022
0.00315319
0.0149762
0.0138312
-0.000860134
0.0492517
-0.0065256
-0.0755274
-0.193758
-0.2236
-0.18635
-0.137957
-0.12744
-0.104136
-0.0856867
-0.0437908
-0.00530923
-0.012259
-0.0146396
-0.0200297
0.0128033
0.0302442
0.0282637
0.0217471
0.00445122
0.00581398
-0.0216934
-0.0664576
-0.106059
-0.147565
-0.143575
-0.10303
-0.0895962
-0.0727435
-0.0329503
-0.00987873
0.0135489
0.0312514
0.0249035
0.0298984
0.0546675
0.0534086
0.0290753
0.0188069
0.00780659
-0.0144983
-0.0380417
-0.0682558
-0.104877
-0.134468
-0.124467
-0.100539
-0.0854801
-0.0687255
-0.0510524
-0.0193959
0.000401595
0.0247345
0.0287457
0.0230528
0.0277835
0.0309078
0.029322
0.0219468
0.00815597
-0.0317193
-0.0458186
-0.067043
-0.0867029
-0.105296
-0.106847
-0.0886724
-0.070999
-0.0545406
-0.0307899
-0.0088491
0.00676074
0.0255328
0.0310688
0.0323572
0.0348533
0.035101
0.0277606
0.0173762
0.00615984
-0.0369932
-0.0492819
-0.0673876
-0.0853512
-0.10288
-0.102679
-0.0884639
-0.0721627
-0.0550438
-0.0366993
-0.0142712
0.00134448
0.0193137
0.0274418
0.0270079
0.0282406
0.0293158
0.0253608
0.0168876
0.00589061
-0.040471
-0.0505173
-0.0752026
-0.102853
-0.11936
-0.120247
-0.10689
-0.0818132
-0.0534172
-0.0280855
-0.0128883
-0.00118838
0.0106196
0.0182949
0.0223735
0.0213629
0.0193705
0.0179452
0.0149631
0.00583157
-0.0359914
-0.0446008
-0.0749864
-0.107068
-0.128328
-0.12801
-0.112051
-0.0833372
-0.0475238
-0.0242278
-0.00847491
0.00372201
0.0142587
0.0230678
0.029238
0.0288426
0.0287384
0.0284429
0.0214727
0.00785981
-0.0145411
-0.031974
-0.0726314
-0.13053
-0.150351
-0.147428
-0.125749
-0.0926621
-0.0523889
-0.0194437
-0.00991133
-0.0017067
0.0117551
0.0142547
0.0163819
0.00977961
0.00854015
0.00632356
0.0147747
0.00623663
0.0032166
-0.01479
-0.0749333
-0.152119
-0.183372
-0.174956
-0.14826
-0.102999
-0.0277409
-0.00808187
-0.00292419
0.00932265
0.0185043
0.0236939
0.0313275
0.0375127
0.0384163
0.0375567
0.0268092
0.00926426
0.0601003
0.0198475
-0.0805673
-0.252253
-0.256951
-0.240113
-0.185182
-0.120661
-0.0389883
-0.00263418
-0.0120136
-0.00897492
0.00569765
-0.00210532
0.00660843
-0.0113005
-0.0270786
-0.0262351
-0.0183781
-0.00738028
0.121626
0.0668923
-0.111847
-0.349391
-0.362039
-0.329402
-0.257695
-0.104376
0.0392804
0.00921658
-0.0402304
-0.0397649
-0.0164968
-0.00808028
0.00417726
0.0171409
0.0182018
0.0136478
-0.0312986
-0.0158656
0.247792
0.126972
-0.284187
-0.576609
-0.644696
-0.529106
-0.379494
-0.199217
0.0147714
-0.0945528
-0.174503
-0.162436
-0.0885544
-0.0193114
-0.0148131
-0.0894721
-0.097908
-0.136948
-0.181989
-0.0420947
0.507659
0.324998
-0.206149
-0.96873
-1.19422
-0.716647
-0.539756
-0.323738
0.255493
-0.0206351
-0.206432
-0.267123
-0.185258
-0.102451
-0.0831316
-0.121257
-0.187104
-0.21514
-0.139967
-0.0225533
0.411901
-0.0565351
-0.0498769
-0.850551
-0.446248
0.228929
-0.0382896
-0.222314
-0.201263
-0.257651
-0.143184
-0.0704234
-0.109245
-0.189478
-0.144739
-0.0906981
-0.0158566
1.07971
0.471424
1.12885
-0.627225
-0.751684
-0.0474874
-0.240946
-0.122913
-0.129119
-0.159789
-0.109409
-0.108478
-0.135096
-0.112705
-0.0802133
-0.0764856
-0.022957
0.961923
0.961388
-0.49197
-0.513758
-0.414418
-0.385809
-0.269978
-0.334622
-0.213025
-0.0720889
-0.119475
-0.0983477
0.0153394
-0.0291058
-0.0450124
-0.0133772
0.589041
0.225149
0.1253
-0.434002
-0.47116
-0.510969
-0.332963
-0.1486
0.0675628
0.254158
0.0128861
-0.087027
-0.0684987
0.00673183
-0.0111037
-0.0325581
-0.0160834
0.342529
0.204193
-0.2604
-0.422135
-0.283141
-0.301453
-0.39251
-0.249002
-0.206555
-0.224262
-0.150165
-0.0118513
0.0533013
0.0243456
-0.0101935
-0.0104982
-0.0209685
-0.0120686
0.204439
0.0492491
-0.209624
-0.628164
-0.84497
-0.345005
-0.244419
-0.21522
-0.186394
-0.150922
-0.194002
-0.264605
-0.374516
-0.210714
-0.0700194
-0.0209607
-0.0453868
-0.0210208
-0.0124926
-0.00662362
0.105355
0.0617798
-0.0874797
-0.222735
-0.292677
-0.276572
-0.149052
-0.149137
-0.136605
-0.0537448
-0.0349426
-0.0308377
-0.00225399
0.014785
0.0299802
0.0257013
0.0114683
0.019367
0.0144276
-0.00248209
0.0495675
-0.00565661
-0.0759248
-0.197181
-0.225858
-0.186155
-0.137066
-0.126871
-0.105005
-0.0862801
-0.0484447
-0.0127525
-0.0189579
-0.0171026
-0.0214306
0.0110923
0.0291445
0.0264031
0.0193182
0.00251264
0.00576944
-0.0215523
-0.0674247
-0.107864
-0.149383
-0.143619
-0.10301
-0.0894524
-0.0728121
-0.0347564
-0.0105589
0.0114235
0.0288701
0.0222803
0.0276067
0.0504103
0.0500289
0.0286789
0.0199657
0.0078554
-0.0144953
-0.0379731
-0.068558
-0.105316
-0.134644
-0.124294
-0.100387
-0.0854734
-0.0686455
-0.0509954
-0.0198845
-0.000699515
0.0232544
0.0269669
0.0204038
0.0257193
0.0297599
0.029253
0.0220968
0.00766209
-0.0317089
-0.0457965
-0.0671935
-0.0867978
-0.105358
-0.106808
-0.0886322
-0.0709463
-0.054514
-0.0308934
-0.00908567
0.00681619
0.0250031
0.030405
0.0326299
0.0346846
0.0347393
0.027756
0.0173712
0.00613402
-0.0369908
-0.0492815
-0.0674115
-0.0853603
-0.102872
-0.102669
-0.088455
-0.0721503
-0.0550442
-0.0366943
-0.0143129
0.00130494
0.0191538
0.0272963
0.0269037
0.0281525
0.0292664
0.0253669
0.0168996
0.00587404
-0.0404747
-0.0504951
-0.0751648
-0.102856
-0.119354
-0.120249
-0.106899
-0.0818479
-0.0534122
-0.0280789
-0.0128428
-0.00119311
0.0106406
0.0183033
0.0223285
0.0214116
0.0193764
0.0179597
0.0148956
0.00581001
-0.0360001
-0.0445308
-0.0747548
-0.107016
-0.128353
-0.127985
-0.112081
-0.0835349
-0.0475332
-0.0241327
-0.00842823
0.00374547
0.014243
0.0230545
0.0292279
0.0290819
0.0283574
0.0285126
0.0213437
0.00783517
-0.0147001
-0.03176
-0.0722705
-0.13033
-0.150328
-0.147633
-0.126021
-0.0928922
-0.0521651
-0.0190419
-0.00969707
-0.00176448
0.0118886
0.0142854
0.0163231
0.010308
0.00873731
0.00666285
0.0145565
0.00621985
0.003325
-0.013198
-0.0727204
-0.151748
-0.183295
-0.175057
-0.147342
-0.104053
-0.0283029
-0.00694155
-0.00205392
0.0093462
0.0180555
0.0236904
0.0314692
0.0383704
0.0401335
0.0359508
0.0267456
0.00941517
0.0594606
0.0230791
-0.074933
-0.249347
-0.256726
-0.24165
-0.188324
-0.124023
-0.0390043
-0.00152964
-0.00789988
-0.00736812
0.00688989
-0.000469952
0.00688053
-0.0122937
-0.0258164
-0.0251713
-0.0182339
-0.00752828
0.122602
0.0724961
-0.101298
-0.345187
-0.351695
-0.333763
-0.254838
-0.115645
0.0296409
0.00798359
-0.0358423
-0.0349698
-0.0101683
-0.00409016
0.00585049
0.0165132
0.0181156
0.0141076
-0.0260778
-0.0136862
0.248499
0.144189
-0.25373
-0.551492
-0.609423
-0.525823
-0.392035
-0.168321
0.0681
-0.0753542
-0.166523
-0.160767
-0.0905426
-0.0201204
-0.013114
-0.0815673
-0.102731
-0.141403
-0.173702
-0.0374107
0.481956
0.305636
-0.2223
-0.907376
-1.14201
-0.66093
-0.534443
-0.241571
0.298485
-0.0336276
-0.205276
-0.241905
-0.180148
-0.105332
-0.0813307
-0.117258
-0.181731
-0.214622
-0.133611
-0.0185581
0.47448
0.0459192
-0.0707283
-0.838674
-0.383369
0.253197
-0.0610451
-0.218262
-0.195105
-0.24633
-0.138986
-0.0677344
-0.103155
-0.180879
-0.150983
-0.0947385
-0.012435
1.06143
0.349804
0.857351
-0.632046
-0.706011
-0.0460873
-0.230033
-0.116631
-0.120931
-0.148864
-0.108591
-0.0987775
-0.127894
-0.112344
-0.0761395
-0.0667101
-0.0213263
0.935654
1.04043
-0.487858
-0.497992
-0.42732
-0.379726
-0.268293
-0.325801
-0.201201
-0.072486
-0.111562
-0.0842361
0.02567
-0.0229626
-0.03962
-0.0120058
0.601601
0.415831
0.225932
-0.402261
-0.457453
-0.509093
-0.335663
-0.152614
0.0680709
0.252097
0.0276519
-0.0845667
-0.0641266
0.0143516
-0.0075249
-0.0317215
-0.0143515
0.328295
0.230555
-0.212181
-0.437426
-0.250381
-0.294399
-0.403713
-0.245156
-0.205792
-0.203053
-0.131625
-0.00197141
0.0595248
0.0263555
-0.00969115
-0.000307779
-0.0146071
-0.0113567
0.202599
0.071773
-0.187428
-0.654021
-0.810958
-0.348152
-0.242413
-0.205669
-0.183677
-0.142693
-0.200121
-0.2557
-0.357015
-0.207597
-0.0718435
-0.0199941
-0.0381941
-0.0149667
-0.00638454
-0.00462539
0.105068
0.0696601
-0.0753437
-0.225523
-0.264099
-0.280371
-0.142134
-0.146618
-0.138705
-0.0487558
-0.0344368
-0.0356329
-0.00327212
0.0184366
0.0292483
0.0267938
0.0134562
0.0201923
0.012669
-0.00342436
0.0501626
-0.00216791
-0.0699173
-0.193843
-0.224775
-0.185344
-0.137025
-0.125798
-0.105256
-0.0865126
-0.0479296
-0.01617
-0.02128
-0.0120535
-0.0208829
0.0118025
0.0293289
0.0263418
0.0194503
0.00371799
0.00569374
-0.0211124
-0.064866
-0.108228
-0.14638
-0.14255
-0.102543
-0.0889669
-0.0728755
-0.0346139
-0.0104075
0.0095564
0.0291021
0.0254685
0.0298222
0.0508103
0.050825
0.0296624
0.0219357
0.00911466
-0.0144949
-0.0378768
-0.0685386
-0.105445
-0.134491
-0.124098
-0.100154
-0.0855002
-0.0687118
-0.0509755
-0.0201397
-0.000831795
0.0228454
0.0263999
0.0195798
0.0251091
0.0292684
0.029854
0.0227704
0.00712144
-0.0317018
-0.0457653
-0.0672439
-0.0868228
-0.105307
-0.10671
-0.0885473
-0.0708544
-0.054457
-0.0309612
-0.00922397
0.00705357
0.0249988
0.0304468
0.0328192
0.0347584
0.0348694
0.02788
0.017583
0.00604423
-0.0369908
-0.0492796
-0.0674266
-0.0853576
-0.102844
-0.102658
-0.0884409
-0.0721407
-0.0550592
-0.0366895
-0.0143465
0.00129819
0.0191577
0.0272653
0.0269117
0.0281425
0.0292411
0.0253542
0.0169537
0.00588129
-0.460045
-0.252209
-0.8576
-0.184202
-0.482375
-0.259678
-0.911596
-1.17869
-0.967954
-1.18885
-0.842395
-1.21884
-0.829422
-0.549924
-0.712204
-0.487255
-0.721039
-0.559612
-0.766742
-0.51551
0.274457
0.51125
0.568786
-0.081371
0.240483
0.515762
0.560431
0.456407
-0.0490605
0.494252
-0.491781
-0.598343
-0.572966
-0.608332
-0.876366
-0.676863
-0.796883
-0.810915
-0.889588
-0.697869
-0.811571
1.19987
0.860197
1.57828
0.456194
1.24155
0.80651
1.64094
1.12906
-0.573225
-0.595065
-0.670054
-0.520041
-0.577316
-0.628602
-0.695275
-0.518749
-0.618025
1.41991
0.828998
1.03675
0.919889
1.40947
0.771892
1.16702
1.28782
1.51718
-0.461927
-0.459061
-0.56159
-0.46418
-0.485456
-0.493977
-0.582759
-0.462656
-0.516639
1.1178
0.42509
0.267126
0.262444
1.05184
0.382251
0.270756
-0.0665595
0.237691
-0.116994
-0.467199
-0.450689
-0.475526
-0.489667
-0.355738
-0.401256
-0.301432
-0.443896
-0.405427
-0.431202
-0.341507
-1.30328
-0.237772
-0.758726
-0.272458
-1.31795
-0.269877
-0.755109
-0.899393
-1.00325
-0.962714
-1.02738
-0.904718
-0.560714
-0.936392
-0.596429
-0.5547
-0.437436
-0.414942
-0.418011
-0.548814
-0.468223
-0.41428
-0.510318
-0.271513
-0.94883
-0.216454
-0.49853
-0.285932
-1.00542
-1.18074
-0.913785
-1.15642
-0.818003
-1.1499
-0.800588
-0.568568
-0.766098
-0.540503
-0.695574
-0.581306
-0.693982
-0.566007
0.260224
0.53572
0.56294
0.0116277
0.297249
0.571038
0.570238
0.521911
-0.0584992
0.511042
-0.608174
-0.609453
-0.612336
-0.628194
-0.927841
-0.740448
-0.823413
-0.851798
-0.909302
-0.754661
-0.851696
1.25186
0.811379
1.6138
0.386236
1.109
0.860271
1.37827
0.916151
-0.60424
-0.624538
-0.678819
-0.519117
-0.622819
-0.629378
-0.670597
-0.525051
-0.623493
1.41725
0.702259
1.21964
0.975358
1.48996
0.647608
1.12363
1.57049
1.18537
-0.457686
-0.449506
-0.577335
-0.462908
-0.500194
-0.488101
-0.562848
-0.446201
-0.483285
0.9382
0.39488
0.313876
0.308614
0.909911
0.404121
0.343583
-0.102402
0.120247
-0.0495665
-0.475665
-0.502248
-0.471617
-0.499658
-0.436912
-0.431956
-0.370731
-0.420134
-0.441423
-0.408645
-0.374662
-1.30599
-0.260639
-0.704464
-0.217829
-1.21982
-0.220803
-0.638976
-0.968218
-1.03098
-0.975609
-1.03885
-0.942566
-0.602153
-0.941374
-0.604015
-0.554471
-0.488917
-0.419225
-0.434785
-0.557414
-0.517876
-0.433321
-0.475012
-0.321244
-0.997483
-0.198241
-0.437757
-0.326228
-0.975014
-1.15431
-0.888578
-1.13261
-0.802432
-1.09673
-0.796988
-0.573771
-0.674051
-0.580259
-0.642088
-0.576089
-0.649857
-0.577544
0.340323
0.61449
0.617188
0.0589722
0.376372
0.648928
0.700039
0.482238
-0.0888226
0.459729
-0.586086
-0.634946
-0.536692
-0.641992
-0.873377
-0.785503
-0.848255
-0.826802
-0.85746
-0.793369
-0.847116
1.06319
1.01564
1.33863
0.370855
1.13258
0.971261
1.3513
0.817728
-0.62828
-0.632426
-0.652997
-0.527022
-0.61494
-0.636739
-0.652131
-0.533382
-0.615916
1.50028
0.6428
0.965611
1.06009
1.64362
0.623394
1.01987
0.973946
1.14057
-0.446941
-0.443293
-0.549163
-0.440756
-0.466295
-0.488272
-0.541279
-0.432951
-0.461045
0.872521
0.401514
0.40221
0.475487
0.828786
0.397516
0.440798
-0.0282001
0.571191
0.0126887
-0.468014
-0.492003
-0.456967
-0.461953
-0.419267
-0.387178
-0.344508
-0.391286
-0.414299
-0.367606
-0.326835
-1.19599
-0.190659
-0.59988
-0.175837
-1.18046
-0.155641
-0.568418
-0.983709
-1.04199
-0.969965
-1.02839
-0.937004
-0.60245
-0.915382
-0.595911
-0.558891
-0.534505
-0.444601
-0.435303
-0.557906
-0.544396
-0.450255
-0.681842
-0.733364
-0.914119
-0.581646
-0.677354
-0.743497
-0.908264
-0.565999
-1.00303
-0.77074
-0.660291
-0.581057
-0.997121
-0.754577
-1.31779
-1.07282
-0.99319
-0.96058
-1.08952
-1.02316
-1.28847
-1.34208
-1.04361
-1.53324
-1.21847
-1.05714
-1.5506
-1.32925
-0.372299
-0.279668
0.0489221
-0.049348
-0.288892
0.0420088
-0.358437
-0.631258
-0.647303
1.09936
-0.615584
-0.648065
-0.619216
-0.624061
-0.650872
-0.620699
-0.61207
-0.474609
-0.479469
-0.483178
-0.496143
-0.482427
-0.483363
-0.472948
0.2596
0.469205
0.211236
-1.74634
-1.32069
-1.36385
-1.716
-0.430893
-0.417997
-0.424841
-0.413425
-0.416945
-0.423646
-0.431549
-0.854184
-0.499403
-0.583816
-0.614638
-0.851372
-0.504762
-0.582807
-0.61278
-0.526345
-0.45978
-0.867039
-0.617306
-0.530804
-0.481322
-0.65644
-0.774825
-0.915357
-0.560099
-0.649281
-0.763634
-0.915797
-0.584201
-0.978882
-0.745077
-0.632481
-0.591927
-0.971639
-0.726159
-1.3441
-1.08292
-1.01052
-0.948246
-1.35694
-1.06551
-0.989854
-1.41023
-1.07406
-1.58447
-1.17921
-1.39242
-1.07844
-1.59432
-0.356195
-0.317868
0.0303882
-0.0560455
-0.356347
-0.311352
0.0291154
-0.701136
-0.697876
1.07867
-0.635199
-0.658351
-0.624644
-0.626532
-0.631004
-0.661895
-0.626439
-0.469627
-0.488
-0.480317
-0.490118
-0.469707
-0.491555
-0.478172
0.143178
0.0697026
0.125884
-1.816
-1.43721
-1.80215
-1.4472
-0.442524
-0.425979
-0.428695
-0.42698
-0.436462
-0.433167
-0.435323
-0.839429
-0.486666
-0.571072
-0.640637
-0.831993
-0.475305
-0.563074
-0.619017
-0.515796
-0.470218
-0.825973
-0.60833
-0.503421
-0.462191
-0.637519
-0.793144
-0.914157
-0.547584
-0.633826
-0.792524
-0.900047
-0.590028
-0.964211
-0.717099
-0.604914
-0.578907
-0.95701
-0.714606
-1.31527
-1.05301
-0.939069
-0.916014
-1.31924
-1.06739
-0.946267
-1.44877
-1.0713
-1.62224
-1.12748
-1.44865
-1.07154
-1.62473
-0.327553
-0.265479
0.0476612
-0.0807019
-0.332578
-0.242945
0.0393859
-0.627154
-0.608875
0.823368
-0.64202
-0.671085
-0.629909
-0.63406
-0.640632
-0.674851
-0.630163
-0.467756
-0.497871
-0.471378
-0.488682
-0.467158
-0.500679
-0.47018
0.140449
0.353539
0.171898
-1.81947
-1.45292
-1.81781
-1.45279
-0.469784
-0.460471
-0.441365
-0.437951
-0.464966
-0.467214
-0.440364
-0.827158
-0.460686
-0.557246
-0.656585
-0.821434
-0.458941
-0.552929
-0.599126
-0.487818
-0.449033
-0.799195
-0.589532
-0.481711
-0.443865
-0.564241
-0.777862
-0.660515
-0.868582
-0.778149
-0.672876
-0.54639
-0.56613
-0.883242
-0.769245
-0.650927
-0.774824
-0.65865
-0.566446
-1.49059
-1.14534
-1.58008
-1.19512
-1.15808
-1.60009
-1.48215
-1.62828
-1.22597
-1.23709
-1.60124
-1.33956
-0.96645
-1.086
-1.01252
-1.08934
-1.0132
-1.35495
-1.48463
-1.19198
-1.12708
-1.60712
-1.13706
-1.60811
-1.46808
-1.65385
-1.23251
-1.23829
-1.6526
-1.05736
-0.890662
-0.853191
-0.842545
-0.898746
-0.864973
-1.05054
-1.20059
-0.96951
-0.972776
-1.19803
-1.35609
-1.21994
-1.07369
-1.57581
-1.06409
-1.56542
-1.37223
-1.06865
-0.838391
-0.911282
-0.888479
-0.90117
-0.880192
-1.08204
-1.20645
-0.979253
-0.976188
-1.21854
-0.724521
-0.720072
-0.660956
-0.727465
-0.722309
-0.681814
-0.72535
-0.73077
-0.749393
-0.730528
-0.740695
-0.722613
-0.712466
-0.745786
-0.466672
-0.47811
0.212317
0.439774
0.192847
-0.3589
-0.0454347
-0.320915
0.0330714
-0.305992
0.0412722
-0.355511
-0.533551
-0.512349
0.478269
0.193107
0.199422
-0.646578
-0.654881
-0.513177
-0.507954
-0.663873
-0.519997
-0.640358
-0.577639
-0.603153
-0.581198
-0.68996
-0.669577
-0.654541
-0.536426
-0.678257
-0.544217
-0.670931
-0.532264
-0.662031
-0.597497
-0.580802
-0.574414
0.925844
0.74304
1.46347
1.19089
0.758471
1.46727
0.93509
1.07327
1.54915
1.15566
1.53347
1.53878
1.13589
1.09318
0.996889
1.22402
0.832634
1.59701
0.80221
1.57069
1.03104
1.10647
1.59231
1.62132
1.23007
1.61439
1.18367
1.10723
1.15955
-0.577976
-0.586357
-0.553739
-0.575228
-0.486632
-0.519825
-0.577204
-0.490452
-0.548118
-0.62086
-0.630054
-0.657035
-0.622951
-0.655454
-0.621855
-0.626719
-0.560725
-0.519193
-0.579274
-0.503912
-0.578661
-0.496327
-0.568044
1.16751
1.14778
1.32236
1.41691
1.10324
1.32501
1.18717
1.2209
1.27445
0.97315
1.02199
1.2614
0.955395
1.22621
1.14212
1.41318
1.11254
1.32903
1.09879
1.32499
1.11172
1.22794
1.06132
1.33416
0.989953
1.27368
0.955143
1.22897
1.28259
1.35022
-0.461418
-0.461233
-0.468822
-0.465657
-0.471163
-0.463061
-0.465491
-0.471109
-0.468661
-0.472668
-0.4955
-0.48672
-0.482019
-0.48339
-0.483378
-0.472159
-0.465659
-0.466936
-0.466043
-0.474165
-0.466022
-0.475587
-0.464687
-0.389477
0.00505116
-0.360235
-0.105941
-0.0164957
-0.382559
-0.417139
-0.668952
-0.66115
0.351913
0.174009
0.191737
-0.356417
-0.114685
0.0575956
-0.41611
0.0311438
-0.401508
-0.350653
-0.699768
-0.683659
-0.463267
-0.468864
-0.463419
-0.397159
-0.401264
-0.466382
-0.45633
-0.453827
-0.460118
-0.463637
-0.455876
-0.460559
-0.473339
-0.46685
-0.465354
-0.418713
-0.409328
-0.476687
-0.476333
-0.487126
-0.463764
-0.478912
-0.459695
-0.483838
-0.744634
-0.784148
-1.00116
-1.32081
-0.806538
-1.00377
-0.735529
-0.733234
-1.31744
-0.802073
-1.02454
-0.811911
-1.00867
-0.731472
-1.33384
-1.1658
-0.972978
-0.94896
-1.19564
-1.00041
-1.31805
-1.43464
-1.43907
-1.0627
-1.01712
-1.46051
-1.07547
-1.4158
-1.78633
-1.42735
-1.40245
-1.79669
-1.33641
-0.956522
-1.16992
-1.02386
-1.17578
-1.01029
-1.35064
-1.44549
-1.01916
-1.4882
-1.07703
-1.4762
-1.07403
-1.45211
-0.893602
-0.591453
-0.594429
-0.89062
-1.04068
-1.33282
-0.804361
-0.917965
-1.35172
-0.812693
-1.03896
-0.779861
-0.583718
-0.727261
-0.57393
-0.588051
-0.731664
-0.776572
-0.883256
-0.598381
-0.59665
-0.87805
-1.04552
-0.923054
-1.39122
-0.82518
-1.37058
-0.816585
-1.05373
-0.784062
-0.584824
-0.605687
-0.714328
-0.603338
-0.718254
-0.790133
-0.431482
-0.41468
-0.420135
-0.424292
-0.418574
-0.422651
-0.432401
-0.585284
-0.764056
-0.662248
-0.982456
-0.575716
-0.764401
-0.672268
-0.58566
-1.0018
-0.77623
-0.687347
-0.768081
-0.673864
-0.58245
-1.4398
-1.12294
-1.60423
-1.16894
-1.45132
-1.11499
-1.60236
-1.58567
-1.22089
-1.62464
-1.20576
-1.33346
-0.930243
-1.05015
-0.947102
-1.05517
-0.968141
-1.32512
-1.44064
-1.16261
-1.12001
-1.61808
-1.11641
-1.60707
-1.45444
-1.55357
-1.19628
-1.19261
-1.56317
-1.10877
-0.926345
-0.894424
-0.808963
-1.09478
-0.935197
-0.895779
-1.23933
-0.982434
-1.22764
-0.985726
-1.42803
-1.16181
-1.07105
-1.61413
-1.07319
-1.60338
-1.43947
-1.12487
-0.797019
-0.940151
-0.898291
-0.936775
-0.895222
-1.14185
-1.24093
-0.993085
-0.992243
-1.24851
-0.739328
-0.715861
-0.754798
-0.751086
-0.750057
-0.72072
-0.746907
-0.708313
-0.725969
-0.681799
-0.680097
-0.701044
-0.717746
-0.667907
-0.534608
-0.524652
0.204502
0.525613
0.204436
-0.354992
-0.0569962
-0.28404
0.0465083
-0.298995
0.0337753
-0.348767
-0.479695
-0.504448
0.515346
0.197137
0.187534
-0.664295
-0.68227
-0.55662
-0.630496
-0.665546
-0.683607
-0.564279
-0.578868
-0.618544
-0.582496
-0.653014
-0.679544
-0.656404
-0.636134
-0.662886
-0.565296
-0.67715
-0.56885
-0.644685
-0.622304
-0.588173
-0.583
1.02126
0.844325
1.57369
1.20981
1.03411
0.831021
1.51787
1.07352
1.53431
1.23414
1.53415
1.08318
1.46849
1.22867
0.987493
1.15546
0.783393
1.39154
0.811528
1.45061
0.947553
1.07221
1.44796
1.37545
1.20771
1.41947
1.21984
1.07288
0.987079
-0.612475
-0.61921
-0.578917
-0.579504
-0.511907
-0.520729
-0.573719
-0.579535
-0.520836
-0.636824
-0.626737
-0.666196
-0.629109
-0.662902
-0.627942
-0.638478
-0.581656
-0.522351
-0.578603
-0.532451
-0.579023
-0.526915
-0.583363
1.08933
1.13744
1.34008
1.43671
1.09908
1.1478
1.35542
1.2415
1.38612
1.03432
1.22488
1.2263
1.47332
1.08623
1.09722
1.4681
1.24449
1.42781
1.199
1.38944
1.11928
1.22715
1.18587
1.45873
1.12518
1.48538
1.1167
1.19247
1.52306
1.3835
-0.454663
-0.452113
-0.457518
-0.464592
-0.476433
-0.456347
-0.460206
-0.463999
-0.470896
-0.468158
-0.488517
-0.496165
-0.473549
-0.493063
-0.475591
-0.468152
-0.452796
-0.451255
-0.459564
-0.460246
-0.460712
-0.466322
-0.44934
-0.338692
0.107719
-0.417807
-0.099628
-0.345247
0.125115
-0.42435
-0.707909
-0.704792
0.05953
0.118032
0.106205
-0.345542
-0.0735011
0.193453
-0.401626
0.155762
-0.412613
-0.362152
-0.691165
-0.700892
-0.468676
-0.475898
-0.471644
-0.429072
-0.438405
-0.490749
-0.500226
-0.467115
-0.50482
-0.488603
-0.503847
-0.469835
-0.474488
-0.474768
-0.474113
-0.453486
-0.44659
-0.491639
-0.504751
-0.512659
-0.473924
-0.510499
-0.471861
-0.491968
-0.713353
-0.779895
-1.02543
-1.28595
-0.715548
-0.767587
-1.0309
-0.704009
-1.25325
-0.734639
-1.03919
-0.742061
-1.03441
-0.690675
-1.37139
-1.16129
-1.03462
-0.976085
-1.36076
-1.16255
-1.04259
-1.46645
-1.49828
-1.07589
-1.0336
-1.45525
-1.51171
-1.07739
-1.81284
-1.45147
-1.44994
-1.82128
-1.38135
-0.984105
-1.14784
-1.0576
-1.15828
-1.05745
-1.38838
-1.477
-1.03745
-1.53241
-1.08622
-1.52339
-1.08315
-1.48766
-0.86427
-0.600946
-0.870433
-0.602169
-1.07364
-1.41033
-0.832052
-0.946097
-1.0641
-1.42881
-0.83923
-0.79978
-0.613288
-0.706753
-0.605353
-0.795081
-0.610643
-0.70407
-0.858817
-0.598479
-0.601218
-0.856508
-1.07964
-0.94455
-1.44478
-0.838402
-1.44073
-0.841609
-1.0816
-0.801691
-0.605351
-0.605367
-0.695881
-0.609836
-0.700172
-0.802356
-0.449943
-0.431265
-0.452215
-0.441396
-0.442417
-0.439928
-0.458371
-0.587887
-0.790482
-0.70536
-0.989403
-0.580509
-0.81664
-0.727134
-0.589504
-0.977269
-0.857403
-0.728541
-0.844076
-0.730045
-0.589898
-1.50315
-1.13202
-1.63428
-1.1484
-1.47784
-1.14395
-1.64902
-1.62417
-1.21465
-1.59728
-1.23592
-1.29823
-0.896186
-1.07101
-0.916053
-1.07062
-0.930678
-1.27261
-1.52258
-1.14783
-1.1594
-1.64799
-1.16127
-1.65383
-1.53218
-1.64163
-1.2517
-1.24924
-1.64148
-1.15903
-0.933472
-0.903783
-0.801264
-1.1525
-0.938101
-0.906129
-1.2519
-0.986658
-1.25171
-0.974636
-1.43538
-1.11362
-1.06658
-1.60588
-1.07354
-1.62037
-1.42016
-1.15871
-0.803708
-0.943764
-0.897605
-0.949952
-0.898478
-1.15093
-1.25762
-0.929791
-0.945887
-1.24664
-0.566792
-0.653518
-0.638561
-0.652386
-0.614638
-0.620996
-0.610256
-0.529312
-0.648509
-0.598052
-0.57855
-0.607258
-0.586495
-0.514643
-0.463915
-0.457248
0.163343
0.479133
0.172959
-0.31389
-0.0891372
-0.207632
0.0457199
-0.223351
0.0382204
-0.316439
-0.464515
-0.456871
0.469528
0.181413
0.173975
-0.622236
-0.65213
-0.564043
-0.558532
-0.632662
-0.642985
-0.565904
-0.595577
-0.637757
-0.598883
-0.591635
-0.597521
-0.616298
-0.542003
-0.636464
-0.570055
-0.639267
-0.567481
-0.613565
-0.641125
-0.602433
-0.601578
0.878592
0.751645
1.30406
1.06441
0.890615
0.766531
1.24239
1.09882
1.33892
1.2223
1.3326
1.06805
1.31292
1.26273
0.85573
1.10125
0.801328
1.17972
0.783864
1.20006
0.86816
1.14569
1.35312
1.31212
1.29798
1.32382
1.29763
1.15374
0.809286
-0.630539
-0.631809
-0.585053
-0.577929
-0.53675
-0.529911
-0.58405
-0.577666
-0.540594
-0.64334
-0.635862
-0.680155
-0.630249
-0.678967
-0.63022
-0.643729
-0.585777
-0.532177
-0.577563
-0.542473
-0.577547
-0.542673
-0.585373
1.12231
1.20843
1.42187
1.54778
1.12294
1.21793
1.39655
1.10056
1.42756
1.10187
0.928471
1.13347
1.41833
1.10731
1.12655
1.61751
1.27728
1.34825
1.24516
1.36589
1.1439
1.07882
0.949586
1.45171
1.09221
1.4277
1.0838
1.08947
0.873716
0.977686
-0.445213
-0.443888
-0.445279
-0.457727
-0.454763
-0.437456
-0.446839
-0.456242
-0.45064
-0.467375
-0.488408
-0.501456
-0.468342
-0.501393
-0.468853
-0.467102
-0.445766
-0.433932
-0.454596
-0.446462
-0.455252
-0.447861
-0.445239
-0.433586
0.217001
-0.377792
-0.0130429
-0.394385
0.232745
-0.359379
-0.675849
-0.664988
0.477648
0.263197
0.211056
-0.476906
0.000826343
0.281917
-0.331614
0.251649
-0.345476
-0.507601
-0.658197
-0.65989
-0.47327
-0.463647
-0.468233
-0.459218
-0.463291
-0.491719
-0.513962
-0.475609
-0.483905
-0.491789
-0.512697
-0.477279
-0.460079
-0.455366
-0.461936
-0.451143
-0.460572
-0.491287
-0.474291
-0.503469
-0.469231
-0.509949
-0.474772
-0.491249
-0.693575
-0.746713
-1.04518
-1.18261
-0.69849
-0.750416
-1.0419
-0.698134
-1.18055
-0.757113
-1.03444
-0.757004
-1.0424
-0.69802
-1.39822
-1.15971
-1.07103
-0.978919
-1.39663
-1.16166
-1.05976
-1.50329
-1.53738
-1.08969
-1.03806
-1.49725
-1.53861
-1.0872
-1.82524
-1.45269
-1.45348
-1.82062
-1.40326
-0.97655
-1.15407
-1.05996
-1.16426
-1.06714
-1.39115
-1.51262
-1.0366
-1.53529
-1.08269
-1.54014
-1.0883
-1.51114
-0.861369
-0.596402
-0.857743
-0.595015
-1.07706
-1.44258
-0.831623
-0.929323
-1.08001
-1.43696
-0.821651
-0.800357
-0.602733
-0.688568
-0.601535
-0.80127
-0.601238
-0.681781
-0.864312
-0.591577
-0.593648
-0.863688
-1.07574
-0.924788
-1.42397
-0.803056
-1.43268
-0.812465
-1.0726
-0.800161
-0.598286
-0.599894
-0.667588
-0.6005
-0.67308
-0.800421
-0.469072
-0.436943
-0.471777
-0.437981
-0.467982
-0.438903
-0.469677
)
;

boundaryField
{
    inlet
    {
        type            zeroGradient;
    }
    outlet
    {
        type            fixedValue;
        value           uniform 0;
    }
    up
    {
        type            zeroGradient;
    }
    down
    {
        type            zeroGradient;
    }
    frontAndBack
    {
        type            zeroGradient;
    }
    cylinder
    {
        type            zeroGradient;
    }
}


// ************************************************************************* //
