/*--------------------------------*- C++ -*----------------------------------*\
  =========                 |
  \\      /  F ield         | OpenFOAM: The Open Source CFD Toolbox
   \\    /   O peration     | Website:  https://openfoam.org
    \\  /    A nd           | Version:  8
     \\/     M anipulation  |
\*---------------------------------------------------------------------------*/
FoamFile
{
    version     2.0;
    format      ascii;
    class       volScalarField;
    location    "0.02";
    object      p;
}
// * * * * * * * * * * * * * * * * * * * * * * * * * * * * * * * * * * * * * //

dimensions      [0 2 -2 0 0 0 0];

internalField   nonuniform List<scalar> 
400
(
-1.38863e-07
-0.00416367
-0.00888605
-0.0122065
-0.0125907
-0.00936796
-0.00262805
0.00713052
0.0192057
0.032811
0.0471137
0.0612441
0.0743103
0.0854335
0.0938344
0.0989448
0.100531
0.0988712
0.0949898
0.0913289
0.00375703
-0.00155639
-0.00567663
-0.00793626
-0.00762215
-0.00426657
0.00201514
0.0108225
0.0215887
0.0336587
0.046334
0.0588657
0.0704663
0.0803819
0.0879869
0.0928652
0.0948859
0.0942746
0.091481
0.0876635
0.00727837
-9.10987e-05
-0.00474338
-0.00676554
-0.00612545
-0.00261281
0.00359179
0.0120853
0.0223563
0.0338299
0.0458709
0.0577789
0.0688164
0.078287
0.0856197
0.090423
0.0925392
0.0920621
0.0888869
0.0833199
0.00831998
-0.00103536
-0.00654019
-0.00858015
-0.0076995
-0.00388515
0.00260823
0.0113429
0.0218115
0.033464
0.0456828
0.0577711
0.0689941
0.0786595
0.0861797
0.0911029
0.0931784
0.092365
0.0881365
0.080348
0.00653224
-0.00464543
-0.0109901
-0.0130975
-0.0119186
-0.00759373
-0.000473288
0.00895833
0.0201781
0.032619
0.0456422
0.0585339
0.0705428
0.0809424
0.0890723
0.09437
0.0964732
0.0952255
0.0897661
0.0796958
0.00169813
-0.0113563
-0.0185958
-0.0207508
-0.0191272
-0.0140205
-0.00586833
0.00477567
0.0173334
0.0311916
0.0456741
0.0600368
0.0734882
0.085227
0.0944737
0.100521
0.102877
0.101256
0.0944764
0.0819716
-0.0066407
-0.0218918
-0.0301293
-0.0322451
-0.0299329
-0.0236556
-0.0139613
-0.00150804
0.0130397
0.0290076
0.0456759
0.0622573
0.0778951
0.0916806
0.102681
0.11001
0.112999
0.111182
0.102994
0.087697
-0.0191804
-0.037157
-0.0465155
-0.0484085
-0.0450258
-0.0370484
-0.025188
-0.0102434
0.00701868
0.0258578
0.0455076
0.065131
0.0837957
0.100468
0.114034
0.123376
0.127569
0.125868
0.116176
0.0975098
-0.0369326
-0.0583363
-0.068906
-0.0702309
-0.0652068
-0.0548363
-0.0400587
-0.0218423
-0.00106221
0.0214767
0.0449677
0.0685347
0.0911808
0.11175
0.128923
0.141277
0.147518
0.146467
0.135224
0.1124
-0.0613755
-0.0870492
-0.0987913
-0.0989424
-0.0914465
-0.0777717
-0.0591563
-0.0367642
-0.0115765
0.0155526
0.0438016
0.072291
0.0999984
0.125674
0.147779
0.164512
0.174063
0.174589
0.161936
0.133966
-0.0947223
-0.125597
-0.138186
-0.136123
-0.124923
-0.106704
-0.0830819
-0.0554462
-0.0248711
0.00777888
0.0417255
0.0761604
0.110115
0.142311
0.171013
0.193981
0.208729
0.212421
0.198929
0.1647
-0.140396
-0.177347
-0.189842
-0.183757
-0.166958
-0.142453
-0.112317
-0.0781784
-0.0411677
-0.00208148
0.038451
0.0798188
0.121243
0.161547
0.198892
0.230599
0.253355
0.262885
0.249994
0.208524
-0.203844
-0.24724
-0.257401
-0.244136
-0.218793
-0.185552
-0.146982
-0.104906
-0.060409
-0.0140815
0.0337615
0.0828899
0.13292
0.182998
0.231398
0.275146
0.310034
0.329835
0.320728
0.271844
-0.294077
-0.342496
-0.345393
-0.319503
-0.281117
-0.235772
-0.186417
-0.134873
-0.0819623
-0.0278433
0.027706
0.0850712
0.144536
0.205916
0.268013
0.327954
0.380848
0.418162
0.419479
0.36553
-0.426752
-0.47361
-0.458825
-0.411153
-0.353114
-0.291286
-0.228496
-0.166088
-0.1042
-0.0422311
0.0208525
0.0863134
0.155423
0.22913
0.307429
0.388397
0.467289
0.533602
0.558601
0.508727
-0.629645
-0.655285
-0.602002
-0.517843
-0.431009
-0.347537
-0.268846
-0.194802
-0.124173
-0.0551433
0.0144293
0.0869303
0.164931
0.251027
0.347317
0.454291
0.569314
0.681852
0.75537
0.734693
-0.952434
-0.906179
-0.776164
-0.634045
-0.506884
-0.396576
-0.300644
-0.215643
-0.137888
-0.0638141
0.0100826
0.0874613
0.172398
0.269596
0.38434
0.521707
0.684505
0.866659
1.03163
1.10015
-1.5057
-1.24712
-0.968898
-0.742258
-0.564457
-0.42529
-0.314356
-0.22212
-0.141163
-0.0657919
0.00884453
0.0875321
0.175753
0.280523
0.411318
0.580498
0.800951
1.08073
1.4152
1.72737
-2.58359
-1.68468
-1.10731
-0.777275
-0.558605
-0.405076
-0.292899
-0.204651
-0.129205
-0.0595313
0.00960363
0.0831327
0.166947
0.269401
0.403753
0.591104
0.860712
1.26105
1.92562
2.92434
-4.42109
-2.10938
-1.04998
-0.64624
-0.439312
-0.31192
-0.225863
-0.159535
-0.101613
-0.046402
0.00967886
0.069919
0.138545
0.222457
0.334705
0.500763
0.76865
1.26467
2.4367
4.86037
)
;

boundaryField
{
    movingWall
    {
        type            zeroGradient;
    }
    fixedWalls
    {
        type            zeroGradient;
    }
    frontAndBack
    {
        type            empty;
    }
}


// ************************************************************************* //
