/*--------------------------------*- C++ -*----------------------------------*\
  =========                 |
  \\      /  F ield         | OpenFOAM: The Open Source CFD Toolbox
   \\    /   O peration     | Website:  https://openfoam.org
    \\  /    A nd           | Version:  8
     \\/     M anipulation  |
\*---------------------------------------------------------------------------*/
FoamFile
{
    version     2.0;
    format      ascii;
    class       surfaceScalarField;
    location    "0.02";
    object      phi;
}
// * * * * * * * * * * * * * * * * * * * * * * * * * * * * * * * * * * * * * //

dimensions      [0 3 -1 0 0 0 0];

internalField   nonuniform List<scalar> 
760
(
6.28546e-09
-6.28417e-09
-2.17549e-08
2.80405e-08
-8.22671e-08
6.05119e-08
-1.67203e-07
8.4936e-08
-2.63739e-07
9.65358e-08
-3.59216e-07
9.54761e-08
-4.43703e-07
8.44874e-08
-5.10091e-07
6.63882e-08
-5.53629e-07
4.35374e-08
-5.71471e-07
1.78418e-08
-5.62338e-07
-9.13357e-09
-5.264e-07
-3.59371e-08
-4.65477e-07
-6.09234e-08
-3.8341e-07
-8.20665e-08
-2.86538e-07
-9.68723e-08
-1.84291e-07
-1.02247e-07
-8.96653e-08
-9.46254e-08
-1.91669e-08
-7.04983e-08
1.01572e-08
-2.93245e-08
1.0157e-08
-3.89245e-08
3.2641e-08
-1.54979e-07
1.44094e-07
-3.31694e-07
2.37226e-07
-5.47834e-07
3.01076e-07
-7.78418e-07
3.2712e-07
-1.00004e-06
3.17095e-07
-1.19322e-06
2.77676e-07
-1.34319e-06
2.16355e-07
-1.4396e-06
1.39949e-07
-1.47604e-06
5.42837e-08
-1.44969e-06
-3.54852e-08
-1.36128e-06
-1.24349e-07
-1.21536e-06
-2.0684e-07
-1.02097e-06
-2.76462e-07
-7.92492e-07
-3.25349e-07
-5.50472e-07
-3.44267e-07
-3.2167e-07
-3.23428e-07
-1.37454e-07
-2.54714e-07
-2.74793e-08
-1.393e-07
-1.73224e-08
-8.68622e-08
1.19503e-07
-2.9365e-07
3.50882e-07
-5.80093e-07
5.23669e-07
-9.09816e-07
6.30797e-07
-1.24852e-06
6.65823e-07
-1.56629e-06
6.34867e-07
-1.83881e-06
5.5019e-07
-2.04755e-06
4.25093e-07
-2.17944e-06
2.71843e-07
-2.2264e-06
1.01243e-07
-2.18492e-06
-7.69652e-08
-2.05613e-06
-2.53131e-07
-1.84632e-06
-4.16655e-07
-1.56768e-06
-5.55101e-07
-1.23938e-06
-6.53654e-07
-8.88376e-07
-6.95266e-07
-5.4943e-07
-6.62374e-07
-2.63201e-07
-5.40944e-07
-7.04433e-08
-3.32058e-07
-8.77663e-08
-1.18717e-07
2.3822e-07
-4.00258e-07
6.32423e-07
-7.83369e-07
9.0678e-07
-1.21472e-06
1.06215e-06
-1.64924e-06
1.10035e-06
-2.0505e-06
1.03612e-06
-2.39035e-06
8.90039e-07
-2.64808e-06
6.82823e-07
-2.80934e-06
4.33106e-07
-2.86533e-06
1.57235e-07
-2.81237e-06
-1.29928e-07
-2.65189e-06
-4.1361e-07
-2.39102e-06
-6.77525e-07
-2.04367e-06
-9.02456e-07
-1.63189e-06
-1.06543e-06
-1.18714e-06
-1.14002e-06
-7.50598e-07
-1.09892e-06
-3.71944e-07
-9.19598e-07
-1.05017e-07
-5.98985e-07
-1.92783e-07
-1.43313e-07
3.81533e-07
-4.9028e-07
9.79389e-07
-9.62182e-07
1.37868e-06
-1.48916e-06
1.58913e-06
-2.0145e-06
1.62568e-06
-2.49467e-06
1.51629e-06
-2.89776e-06
1.29312e-06
-3.20131e-06
9.86382e-07
-3.39046e-06
6.22254e-07
-3.45632e-06
2.23097e-07
-3.39518e-06
-1.91077e-07
-3.20839e-06
-6.00397e-07
-2.90319e-06
-9.82722e-07
-2.49413e-06
-1.31152e-06
-2.00503e-06
-1.55452e-06
-1.47104e-06
-1.67402e-06
-9.39879e-07
-1.63008e-06
-4.71521e-07
-1.38795e-06
-1.34844e-07
-9.35663e-07
-3.27627e-07
-1.68397e-07
5.49929e-07
-5.81168e-07
1.39216e-06
-1.14284e-06
1.94035e-06
-1.76689e-06
2.21318e-06
-2.38433e-06
2.24312e-06
-2.94409e-06
2.07605e-06
-3.41057e-06
1.75961e-06
-3.76018e-06
1.33598e-06
-3.97803e-06
8.4011e-07
-4.05556e-06
3.00623e-07
-3.98904e-06
-2.57594e-07
-3.77938e-06
-8.10058e-07
-3.43303e-06
-1.32908e-06
-2.96403e-06
-1.78051e-06
-2.39698e-06
-2.12157e-06
-1.7703e-06
-2.3007e-06
-1.13893e-06
-2.26145e-06
-5.75027e-07
-1.95186e-06
-1.65039e-07
-1.34565e-06
-4.92666e-07
-1.9862e-07
7.4855e-07
-6.86586e-07
1.88012e-06
-1.34805e-06
2.60181e-06
-2.07771e-06
2.94284e-06
-2.79335e-06
2.95876e-06
-3.43641e-06
2.71912e-06
-3.96824e-06
2.29144e-06
-4.36502e-06
1.73276e-06
-4.61283e-06
1.08793e-06
-4.704e-06
3.9179e-07
-4.63487e-06
-3.26726e-07
-4.4053e-06
-1.03962e-06
-4.01986e-06
-1.71452e-06
-3.49064e-06
-2.30974e-06
-2.84154e-06
-2.77066e-06
-2.11349e-06
-3.02875e-06
-1.36918e-06
-3.00576e-06
-6.95407e-07
-2.62564e-06
-2.00215e-07
-1.84084e-06
-6.92882e-07
-2.37817e-07
9.86368e-07
-8.18106e-07
2.46041e-06
-1.59698e-06
3.38069e-06
-2.44613e-06
3.79199e-06
-3.26862e-06
3.78126e-06
-3.99893e-06
3.44943e-06
-4.59698e-06
2.88948e-06
-5.04057e-06
2.17636e-06
-5.3184e-06
1.36575e-06
-5.42466e-06
4.98054e-07
-5.35602e-06
-3.95369e-07
-5.11067e-06
-1.28497e-06
-4.6898e-06
-2.13539e-06
-4.10137e-06
-2.89817e-06
-3.36627e-06
-3.50577e-06
-2.52609e-06
-3.86893e-06
-1.65111e-06
-3.88074e-06
-8.45509e-07
-3.43124e-06
-2.45005e-07
-2.44135e-06
-9.37887e-07
-2.89786e-07
1.27615e-06
-9.86445e-07
3.15707e-06
-1.90614e-06
4.30039e-06
-2.89101e-06
4.77685e-06
-3.82783e-06
4.71809e-06
-4.64572e-06
4.26731e-06
-5.30618e-06
3.54995e-06
-5.79186e-06
2.66203e-06
-6.09657e-06
1.67046e-06
-6.21809e-06
6.19577e-07
-6.1539e-06
-4.59566e-07
-5.89985e-06
-1.53901e-06
-5.45186e-06
-2.58338e-06
-4.81071e-06
-3.53932e-06
-3.99038e-06
-4.32609e-06
-3.02954e-06
-4.82977e-06
-2.00433e-06
-4.90595e-06
-1.0387e-06
-4.39686e-06
-3.04511e-07
-3.17554e-06
-1.2424e-06
-3.59128e-07
1.63528e-06
-1.20283e-06
4.00077e-06
-2.2899e-06
5.38745e-06
-3.42444e-06
5.9114e-06
-4.47625e-06
5.76989e-06
-5.37275e-06
5.16381e-06
-6.08225e-06
4.25945e-06
-6.59707e-06
3.17685e-06
-6.9199e-06
1.9933e-06
-7.05442e-06
7.54093e-07
-6.99983e-06
-5.14148e-07
-6.7491e-06
-1.78975e-06
-6.29057e-06
-3.04191e-06
-5.61377e-06
-4.21613e-06
-4.72005e-06
-5.2198e-06
-3.63873e-06
-5.91109e-06
-2.4471e-06
-6.09758e-06
-1.2896e-06
-5.55436e-06
-3.84785e-07
-4.08035e-06
-1.62718e-06
-4.52213e-07
2.08749e-06
-1.47998e-06
5.02854e-06
-2.75966e-06
6.66714e-06
-4.048e-06
7.19973e-06
-5.19996e-06
6.92186e-06
-6.14877e-06
6.11262e-06
-6.87773e-06
4.98841e-06
-7.39568e-06
3.6948e-06
-7.71903e-06
2.31664e-06
-7.86028e-06
8.95347e-07
-7.82173e-06
-5.52708e-07
-7.59308e-06
-2.0184e-06
-7.15288e-06
-3.4821e-06
-6.47457e-06
-4.89444e-06
-5.53907e-06
-6.1553e-06
-4.35609e-06
-7.09407e-06
-2.99419e-06
-7.45948e-06
-1.6147e-06
-6.93386e-06
-4.94e-07
-5.20105e-06
-2.12118e-06
-5.78549e-07
2.66604e-06
-1.83237e-06
6.28236e-06
-3.32014e-06
8.15491e-06
-4.74386e-06
8.62345e-06
-5.95264e-06
8.13064e-06
-6.89906e-06
7.05903e-06
-7.59354e-06
5.68289e-06
-8.07006e-06
4.17132e-06
-8.36405e-06
2.61064e-06
-8.49989e-06
1.03119e-06
-8.48447e-06
-5.68135e-07
-8.30457e-06
-2.19829e-06
-7.92748e-06
-3.8592e-06
-7.30595e-06
-5.51596e-06
-6.39127e-06
-7.06998e-06
-5.15887e-06
-8.32648e-06
-3.65062e-06
-8.96773e-06
-2.0318e-06
-8.55268e-06
-6.44133e-07
-6.58871e-06
-2.76532e-06
-7.52806e-07
3.41885e-06
-2.27467e-06
7.80422e-06
-3.95946e-06
9.83971e-06
-5.45675e-06
1.01207e-05
-6.63182e-06
9.30571e-06
-7.47918e-06
7.9064e-06
-8.05239e-06
6.2561e-06
-8.41954e-06
4.53847e-06
-8.63931e-06
2.83042e-06
-8.74985e-06
1.14173e-06
-8.76398e-06
-5.54003e-07
-8.66691e-06
-2.29536e-06
-8.41523e-06
-4.11088e-06
-7.93892e-06
-5.99228e-06
-7.15119e-06
-7.85771e-06
-5.97502e-06
-9.50265e-06
-4.39703e-06
-1.05457e-05
-2.55611e-06
-1.03936e-05
-8.52623e-07
-8.2922e-06
-3.61794e-06
-9.97848e-07
4.4167e-06
-2.81522e-06
9.62158e-06
-4.62707e-06
1.16516e-05
-6.05949e-06
1.15532e-05
-7.03903e-06
1.02852e-05
-7.63532e-06
8.50269e-06
-7.96232e-06
6.5831e-06
-8.12795e-06
4.70411e-06
-8.2141e-06
2.91657e-06
-8.27137e-06
1.19899e-06
-8.31865e-06
-5.0672e-07
-8.34221e-06
-2.27181e-06
-8.29253e-06
-4.16056e-06
-8.08053e-06
-6.20428e-06
-7.57884e-06
-8.35939e-06
-6.64097e-06
-1.04405e-05
-5.1594e-06
-1.20273e-05
-3.18856e-06
-1.23644e-05
-1.1442e-06
-1.03366e-05
-4.76214e-06
-1.34655e-06
5.76325e-06
-3.43446e-06
1.17095e-05
-5.18469e-06
1.34018e-05
-6.29005e-06
1.26585e-05
-6.81698e-06
1.08122e-05
-6.94993e-06
8.63564e-06
-6.87342e-06
6.50659e-06
-6.73033e-06
4.56102e-06
-6.61649e-06
2.80273e-06
-6.58761e-06
1.17012e-06
-6.66626e-06
-4.28071e-07
-6.84361e-06
-2.09446e-06
-7.07416e-06
-3.93e-06
-7.26394e-06
-6.01451e-06
-7.25663e-06
-8.3667e-06
-6.83207e-06
-1.08651e-05
-5.74859e-06
-1.31108e-05
-3.88337e-06
-1.42297e-05
-1.5488e-06
-1.26711e-05
-6.31094e-06
-1.8287e-06
7.59195e-06
-4.01713e-06
1.38979e-05
-5.29965e-06
1.46843e-05
-5.64143e-06
1.30003e-05
-5.35942e-06
1.05302e-05
-4.77858e-06
8.0548e-06
-4.13932e-06
5.86733e-06
-3.59314e-06
4.01483e-06
-3.226e-06
2.43559e-06
-3.08295e-06
1.02707e-06
-3.18403e-06
-3.26991e-07
-3.52951e-06
-1.74899e-06
-4.09357e-06
-3.36594e-06
-4.80501e-06
-5.30307e-06
-5.51445e-06
-7.65726e-06
-5.9571e-06
-1.04224e-05
-5.74398e-06
-1.33239e-05
-4.46124e-06
-1.55124e-05
-2.07652e-06
-1.50559e-05
-8.38746e-06
-2.40081e-06
9.99276e-06
-4.16119e-06
1.56583e-05
-4.22207e-06
1.47452e-05
-3.18326e-06
1.19615e-05
-1.70088e-06
9.04779e-06
-2.00864e-07
6.55478e-06
1.08793e-06
4.57853e-06
2.06304e-06
3.03972e-06
2.68744e-06
1.81119e-06
2.94942e-06
7.65088e-07
2.84107e-06
-2.18637e-07
2.35054e-06
-1.25846e-06
1.46685e-06
-2.48226e-06
2.00938e-07
-4.03716e-06
-1.36907e-06
-6.08725e-06
-3.02046e-06
-8.77104e-06
-4.2872e-06
-1.20571e-05
-4.40436e-06
-1.53952e-05
-2.62339e-06
-1.68368e-05
-1.10108e-05
-2.7105e-06
1.27033e-05
-2.68588e-06
1.56337e-05
-3.47477e-07
1.24068e-05
2.69478e-06
8.91922e-06
5.57463e-06
6.16794e-06
7.96125e-06
4.16816e-06
9.77871e-06
2.76108e-06
1.10544e-05
1.76408e-06
1.18407e-05
1.02485e-06
1.21781e-05
4.27659e-07
1.20791e-05
-1.19603e-07
1.15221e-05
-7.01495e-07
1.04521e-05
-1.41226e-06
8.79056e-06
-2.3756e-06
6.47e-06
-3.76668e-06
3.52067e-06
-5.82172e-06
2.53332e-07
-8.7898e-06
-2.41392e-06
-1.2728e-05
-2.71476e-06
-1.6536e-05
-1.37256e-05
-8.38123e-07
1.35414e-05
3.7916e-06
1.1004e-05
9.58316e-06
6.61524e-06
1.45127e-05
3.98964e-06
1.82424e-05
2.4383e-06
2.09135e-05
1.49701e-06
2.27536e-05
9.20997e-07
2.39604e-05
5.57244e-07
2.46743e-05
3.10953e-07
2.49778e-05
1.2416e-07
2.49003e-05
-4.20953e-08
2.4419e-05
-2.20166e-07
2.3454e-05
-4.47271e-07
2.18576e-05
-7.7918e-07
1.94038e-05
-1.31286e-06
1.58051e-05
-2.22309e-06
1.0838e-05
-3.82264e-06
4.78011e-06
-6.67013e-06
-3.39765e-07
-1.14161e-05
-1.40654e-05
1.35414e-05
2.45453e-05
3.11606e-05
3.51502e-05
3.75885e-05
3.90855e-05
4.00065e-05
4.05638e-05
4.08747e-05
4.09989e-05
4.09568e-05
4.07366e-05
4.02894e-05
3.95102e-05
3.81973e-05
3.59742e-05
3.21516e-05
2.54815e-05
1.40654e-05
)
;

boundaryField
{
    movingWall
    {
        type            calculated;
        value           uniform 0;
    }
    fixedWalls
    {
        type            calculated;
        value           uniform 0;
    }
    frontAndBack
    {
        type            empty;
        value           nonuniform List<scalar> 0();
    }
}


// ************************************************************************* //
