/*--------------------------------*- C++ -*----------------------------------*\
  =========                 |
  \\      /  F ield         | OpenFOAM: The Open Source CFD Toolbox
   \\    /   O peration     | Website:  https://openfoam.org
    \\  /    A nd           | Version:  8
     \\/     M anipulation  |
\*---------------------------------------------------------------------------*/
FoamFile
{
    version     2.0;
    format      ascii;
    class       volScalarField;
    location    "1.76";
    object      p;
}
// * * * * * * * * * * * * * * * * * * * * * * * * * * * * * * * * * * * * * //

dimensions      [0 2 -2 0 0 0 0];

internalField   nonuniform List<scalar> 
400
(
7.59279e-16
1.12555e-15
1.35115e-15
1.50319e-15
1.64729e-15
1.7873e-15
1.91548e-15
1.96368e-15
1.96614e-15
1.9866e-15
2.00489e-15
2.00023e-15
2.00795e-15
2.02319e-15
1.97264e-15
1.90861e-15
1.81508e-15
1.67195e-15
1.43063e-15
1.09512e-15
1.09224e-15
1.2913e-15
1.42754e-15
1.45207e-15
1.62819e-15
1.81379e-15
1.96966e-15
2.03254e-15
2.02477e-15
2.08138e-15
2.02108e-15
2.0422e-15
2.02605e-15
2.08856e-15
2.03643e-15
1.93905e-15
1.79213e-15
1.6694e-15
1.47511e-15
1.21479e-15
1.35988e-15
1.49666e-15
1.58596e-15
1.56143e-15
1.69426e-15
1.91082e-15
1.97967e-15
2.00167e-15
2.1229e-15
2.11902e-15
2.0968e-15
2.10467e-15
2.10712e-15
2.14794e-15
2.09078e-15
1.98544e-15
1.7939e-15
1.74854e-15
1.61285e-15
1.47327e-15
1.52135e-15
1.74117e-15
1.69977e-15
1.71988e-15
1.83298e-15
2.06248e-15
2.00109e-15
2.14777e-15
2.38525e-15
2.34397e-15
2.04602e-15
2.2036e-15
2.24774e-15
2.2148e-15
2.00983e-15
2.04793e-15
1.89334e-15
1.88473e-15
1.8908e-15
1.70556e-15
1.85476e-15
2.03703e-15
1.92503e-15
1.70751e-15
1.9774e-15
2.22298e-15
2.24037e-15
2.18601e-15
2.3865e-15
2.47582e-15
2.33433e-15
2.3025e-15
2.29543e-15
2.33002e-15
2.27289e-15
2.27609e-15
2.08512e-15
1.92869e-15
2.06686e-15
1.93682e-15
1.92386e-15
2.25375e-15
1.95095e-15
2.0316e-15
2.31436e-15
2.42626e-15
2.45116e-15
2.49408e-15
2.44473e-15
2.54294e-15
2.436e-15
2.5546e-15
2.49527e-15
2.30032e-15
2.54173e-15
2.53051e-15
2.16927e-15
2.13743e-15
2.14356e-15
1.83212e-15
2.04279e-15
2.17077e-15
2.10381e-15
2.06274e-15
2.69773e-15
2.79311e-15
2.58737e-15
2.79229e-15
2.47432e-15
2.60213e-15
2.55724e-15
2.69829e-15
2.66317e-15
2.4952e-15
2.6972e-15
2.61614e-15
2.35961e-15
2.12364e-15
2.075e-15
1.90025e-15
2.17627e-15
2.17993e-15
2.06138e-15
2.34002e-15
2.89558e-15
3.23247e-15
3.07648e-15
2.87663e-15
2.62724e-15
2.46415e-15
2.53711e-15
2.61095e-15
2.83947e-15
2.55481e-15
2.6272e-15
2.78606e-15
2.26482e-15
1.92899e-15
2.1456e-15
2.22707e-15
2.2553e-15
2.37957e-15
2.53632e-15
2.58495e-15
3.0021e-15
3.36481e-15
3.15203e-15
2.77146e-15
2.57928e-15
2.72448e-15
3.00249e-15
2.99047e-15
2.74476e-15
2.46301e-15
2.51176e-15
2.4072e-15
2.34879e-15
1.9249e-15
2.05941e-15
2.11018e-15
2.35518e-15
2.92493e-15
2.96878e-15
3.25581e-15
3.38526e-15
3.20049e-15
2.92065e-15
2.78175e-15
2.59839e-15
2.85581e-15
3.02184e-15
2.98282e-15
2.83146e-15
2.50846e-15
2.34555e-15
2.30977e-15
2.51724e-15
2.16014e-15
2.00596e-15
1.89894e-15
2.34156e-15
2.89893e-15
3.28391e-15
3.86459e-15
3.85646e-15
3.44527e-15
3.23191e-15
2.56107e-15
2.55868e-15
2.54053e-15
2.56525e-15
3.03958e-15
3.14632e-15
2.60206e-15
2.10489e-15
2.03597e-15
2.21806e-15
2.27174e-15
2.32947e-15
2.27639e-15
2.41173e-15
3.1299e-15
3.15674e-15
4.03637e-15
4.18598e-15
3.38719e-15
2.99049e-15
2.48474e-15
2.36413e-15
2.2403e-15
2.21328e-15
2.96273e-15
3.18595e-15
2.96268e-15
2.52217e-15
1.9143e-15
1.86351e-15
2.06873e-15
2.2684e-15
1.95961e-15
2.79181e-15
2.90376e-15
3.21008e-15
4.05249e-15
4.47426e-15
3.9014e-15
2.83645e-15
2.21861e-15
2.03032e-15
2.07717e-15
2.47113e-15
2.68351e-15
2.61339e-15
2.62784e-15
2.19623e-15
2.20941e-15
1.975e-15
1.74934e-15
2.29097e-15
2.60987e-15
3.2419e-15
3.47775e-15
3.67852e-15
4.09739e-15
3.90545e-15
3.80103e-15
2.99843e-15
2.13628e-15
2.07015e-15
2.21089e-15
2.47137e-15
2.51978e-15
2.04976e-15
1.76448e-15
1.59407e-15
1.71366e-15
2.15578e-15
1.98892e-15
2.87748e-15
3.39709e-15
3.30095e-15
3.61944e-15
4.58508e-15
4.18545e-15
3.38187e-15
2.85404e-15
2.4503e-15
1.5876e-15
1.41586e-15
2.0359e-15
2.63569e-15
1.9315e-15
1.7277e-15
1.32881e-15
1.24604e-15
1.23386e-15
1.96414e-15
2.48964e-15
2.9965e-15
3.70715e-15
3.78726e-15
3.5662e-15
4.09575e-15
4.14943e-15
2.70983e-15
2.22015e-15
2.34865e-15
1.5354e-15
1.58172e-15
1.72812e-15
1.96083e-15
1.1473e-15
1.11776e-15
1.33616e-15
1.42099e-15
1.52409e-15
2.18851e-15
2.00905e-15
2.99371e-15
3.98211e-15
3.14781e-15
3.32745e-15
3.85689e-15
3.07944e-15
2.45507e-15
2.52469e-15
2.90999e-15
1.63027e-15
8.73589e-16
1.04852e-15
1.28139e-15
1.02446e-15
8.01525e-16
1.00445e-15
9.80722e-16
1.55115e-15
2.16087e-15
2.58138e-15
2.97273e-15
3.13638e-15
2.34016e-15
3.52524e-15
3.60884e-15
2.84869e-15
1.79691e-15
2.89048e-15
2.61741e-15
9.78583e-16
7.42174e-16
1.21277e-15
1.15389e-15
1.08927e-15
4.50969e-16
3.18082e-16
3.25689e-16
1.646e-15
2.11199e-15
2.94454e-15
3.19967e-15
2.44287e-15
2.54864e-15
3.16087e-15
2.718e-15
2.56911e-15
2.59984e-15
2.72752e-15
2.47132e-15
1.18727e-15
3.22871e-16
6.7453e-16
1.19546e-15
7.75878e-16
-7.3556e-17
-1.0121e-16
9.08552e-16
2.52733e-15
2.54734e-15
2.47163e-15
2.18457e-15
2.24722e-15
2.43556e-15
2.97764e-15
1.89192e-15
1.30595e-15
2.15425e-15
2.50453e-15
2.60559e-15
1.43369e-15
5.37218e-16
-1.19694e-16
1.18176e-15
1.0449e-15
-2.14312e-16
-2.07823e-16
1.10253e-15
2.62967e-15
2.84817e-15
1.97988e-15
1.985e-15
1.76708e-15
)
;

boundaryField
{
    movingWall
    {
        type            zeroGradient;
    }
    fixedWalls
    {
        type            zeroGradient;
    }
    left
    {
        type            cyclic;
    }
    right
    {
        type            cyclic;
    }
    frontAndBack
    {
        type            empty;
    }
}


// ************************************************************************* //
