/*--------------------------------*- C++ -*----------------------------------*\
  =========                 |
  \\      /  F ield         | OpenFOAM: The Open Source CFD Toolbox
   \\    /   O peration     | Website:  https://openfoam.org
    \\  /    A nd           | Version:  8
     \\/     M anipulation  |
\*---------------------------------------------------------------------------*/
FoamFile
{
    version     2.0;
    format      ascii;
    class       surfaceScalarField;
    location    "29.5";
    object      phi;
}
// * * * * * * * * * * * * * * * * * * * * * * * * * * * * * * * * * * * * * //

dimensions      [0 3 -1 0 0 0 0];

internalField   nonuniform List<scalar> 
880
(
-1.32525e-05
1.32525e-05
-2.70206e-05
1.37681e-05
-4.01781e-05
1.31575e-05
-5.24184e-05
1.22403e-05
-6.3473e-05
1.10546e-05
-7.31026e-05
9.6296e-06
-8.11305e-05
8.02789e-06
-8.73642e-05
6.23366e-06
-9.19273e-05
4.56318e-06
-9.4236e-05
2.30869e-06
-9.58043e-05
1.56829e-06
-7.05443e-07
-9.50989e-05
-1.43703e-05
2.76229e-05
-2.92761e-05
2.86738e-05
-4.35165e-05
2.73979e-05
-5.67594e-05
2.54832e-05
-6.87198e-05
2.3015e-05
-7.91498e-05
2.00596e-05
-8.78745e-05
1.67526e-05
-9.47247e-05
1.30839e-05
-9.98564e-05
9.69482e-06
-0.000102798
5.25058e-06
-0.000105124
3.89388e-06
-2.01947e-06
-0.00010381
-1.502e-05
4.26429e-05
-3.05936e-05
4.42474e-05
-4.54567e-05
4.2261e-05
-5.92489e-05
3.92754e-05
-7.16566e-05
3.54227e-05
-8.23963e-05
3.07993e-05
-9.12152e-05
2.55715e-05
-9.7909e-05
1.97777e-05
-0.000102165
1.39508e-05
-0.000104127
7.21233e-06
-0.000102776
2.54273e-06
-5.62788e-06
-9.91672e-05
-1.60033e-05
5.86462e-05
-3.25894e-05
6.08335e-05
-4.84085e-05
5.80801e-05
-6.30741e-05
5.39411e-05
-7.62666e-05
4.86151e-05
-8.77022e-05
4.22348e-05
-9.71588e-05
3.50281e-05
-0.000104436
2.70549e-05
-0.000109218
1.87331e-05
-0.000111586
9.57987e-06
-0.000110359
1.31591e-06
-9.13511e-06
-0.000106852
-1.73655e-05
7.60118e-05
-3.53494e-05
7.88173e-05
-5.24806e-05
7.52113e-05
-6.83213e-05
6.97819e-05
-8.25307e-05
6.28245e-05
-9.47862e-05
5.44904e-05
-0.000104805
4.5047e-05
-0.000112379
3.4629e-05
-0.000117238
2.35922e-05
-0.000119441
1.17827e-05
-0.000118459
3.33895e-07
-1.28322e-05
-0.000114762
-1.91606e-05
9.51723e-05
-3.89771e-05
9.86339e-05
-5.78314e-05
9.40656e-05
-7.5213e-05
8.71634e-05
-9.07863e-05
7.83978e-05
-0.000104212
6.79158e-05
-0.000115257
5.60925e-05
-0.000123747
4.31184e-05
-0.000129448
2.9294e-05
-0.0001322
1.45338e-05
-0.000131212
-6.53207e-07
-1.64749e-05
-0.00012757
-2.14214e-05
0.000116594
-4.35466e-05
0.000120759
-6.45685e-05
0.000115087
-8.38594e-05
0.000106454
-0.000101098
9.56367e-05
-0.000115897
8.27149e-05
-0.000128038
6.82329e-05
-0.00013728
5.23606e-05
-0.000143442
3.5456e-05
-0.000146578
1.76701e-05
-0.00014672
-5.1152e-07
-1.98996e-05
-0.000143295
-2.43412e-05
0.000140935
-4.93508e-05
0.000145769
-7.30599e-05
0.000138796
-9.46326e-05
0.000128027
-0.000113879
0.000114883
-0.000130329
9.9165e-05
-0.000143897
8.18005e-05
-0.000154474
6.29376e-05
-0.000161934
4.2916e-05
-0.000165961
2.16977e-05
-0.000165925
-5.47911e-07
-2.31398e-05
-0.000162684
-2.76563e-05
0.000168591
-5.60913e-05
0.000174204
-8.30134e-05
0.000165719
-0.000107389
0.000152402
-0.000129069
0.000136563
-0.000147442
0.000117539
-0.000162449
9.68074e-05
-0.000173866
7.43546e-05
-0.000181755
5.08052e-05
-0.000186344
2.62864e-05
-0.000187994
1.10221e-06
-2.56903e-05
-0.000185444
-3.26759e-05
0.000201267
-6.55308e-05
0.000207059
-9.66946e-05
0.000196882
-0.000123908
0.000179616
-0.000148188
0.000160842
-0.00016837
0.00013772
-0.000185163
0.000113601
-0.000198525
8.77167e-05
-0.000208383
6.06629e-05
-0.000214403
3.2306e-05
-0.000215903
2.60213e-06
-2.76965e-05
-0.000213897
-3.69739e-05
0.000238241
-7.47382e-05
0.000244823
-0.000110305
0.00023245
-0.000141446
0.000210757
-0.000169027
0.000188424
-0.000191569
0.000160262
-0.00020989
0.000131922
-0.000223489
0.000101315
-0.00023325
7.04237e-05
-0.000239631
3.86868e-05
-0.000243355
6.32616e-06
-2.85392e-05
-0.000242512
-4.6935e-05
0.000285176
-9.13944e-05
0.000289282
-0.000133682
0.000274737
-0.000167774
0.000244848
-0.000198166
0.000218816
-0.000221893
0.000183989
-0.000241993
0.000152022
-0.000257973
0.000117296
-0.000270345
8.2796e-05
-0.000278934
4.72755e-05
-0.000283299
1.06916e-05
-2.79096e-05
-0.000283929
-5.07345e-05
0.000335911
-0.000103141
0.000341689
-0.00015129
0.000322886
-0.000191134
0.000284693
-0.000225731
0.000253413
-0.000251727
0.000209985
-0.000272474
0.000172769
-0.000287321
0.000132143
-0.00029833
9.38044e-05
-0.000306194
5.51394e-05
-0.000312635
1.71333e-05
-2.57342e-05
-0.000314811
-7.56732e-05
0.000411584
-0.000136135
0.000402151
-0.000194257
0.000381008
-0.000234823
0.000325259
-0.000270707
0.000289297
-0.000296038
0.000235315
-0.000317473
0.000194204
-0.000333689
0.000148359
-0.000347424
0.00010754
-0.000358419
6.61335e-05
-0.000367624
2.63391e-05
-1.95456e-05
-0.000373813
-6.79277e-05
0.000479511
-0.000149574
0.000483797
-0.000215083
0.000446517
-0.000269023
0.000379199
-0.000307517
0.000327791
-0.000334591
0.000262389
-0.000353801
0.000213414
-0.000366484
0.000161042
-0.000375972
0.000117028
-0.000383217
7.33779e-05
-0.000391442
3.45647e-05
-1.28297e-05
-0.000398158
-0.000156538
0.000636049
-0.000222681
0.00054994
-0.000300399
0.000524236
-0.000339847
0.000418647
-0.00037354
0.000361484
-0.000394674
0.000283523
-0.000410249
0.000228989
-0.000422416
0.000173209
-0.000433775
0.000128388
-0.000445599
8.52016e-05
-0.000460524
4.949e-05
2.96161e-06
-0.000476315
-7.4482e-05
0.000710531
-0.00023227
0.000707729
-0.000331849
0.000623814
-0.000402139
0.000488937
-0.000436027
0.000395372
-0.000454261
0.000301757
-0.000460295
0.000235022
-0.000461679
0.000174593
-0.000462102
0.000128811
-0.000463633
8.67327e-05
-0.000468458
5.43148e-05
1.31345e-05
-0.000478631
-0.00033179
0.00104232
-0.000380115
0.000756054
-0.000454731
0.00069843
-0.000501242
0.000535448
-0.000506163
0.000400293
-0.000517769
0.000313363
-0.00051291
0.000230163
-0.000513359
0.000175042
-0.00051384
0.000129292
-0.000520664
9.35569e-05
-0.000536043
6.96945e-05
3.92314e-05
-0.00056214
-0.000918
0.00196032
-0.000903804
0.000741858
-0.000918813
0.000713439
-0.000804249
0.000420884
-0.000713362
0.000309406
-0.000619164
0.000219166
-0.000544351
0.00015535
-0.000486336
0.000117027
-0.000441325
8.42809e-05
-0.000410712
6.29437e-05
-0.00038452
4.35022e-05
3.13154e-05
-0.000376604
0.00196032
0.00270218
0.00341562
0.0038365
0.00414591
0.00436507
0.00452042
0.00463745
0.00472173
0.00478467
0.00482818
0.00485949
-7.4578e-05
2.8483e-05
-4.90039e-05
-5.7631e-05
1.15788e-05
-2.85259e-05
-4.70601e-05
-2.98306e-06
-7.58782e-06
-3.71617e-05
-1.4077e-05
4.17864e-06
-2.79507e-05
-2.27292e-05
1.35181e-05
-1.85447e-05
-2.90473e-05
1.96414e-05
-9.06948e-06
-3.31581e-05
2.36829e-05
-3.31661e-05
2.40966e-05
-8.17099e-05
6.38311e-06
-6.40793e-05
-6.05183e-06
-5.26042e-05
-1.44581e-05
-4.17588e-05
-2.49223e-05
-3.15895e-05
-3.28985e-05
-2.10713e-05
-3.95655e-05
-1.03298e-05
-4.38996e-05
-4.34959e-05
-8.77829e-05
-5.00118e-06
-7.65972e-05
-1.72375e-05
-6.47133e-05
-2.63421e-05
-5.25569e-05
-3.70787e-05
-3.98247e-05
-4.56307e-05
-2.66273e-05
-5.2763e-05
-1.30394e-05
-5.74875e-05
-5.65353e-05
-9.59483e-05
-1.59046e-05
-8.48675e-05
-2.83183e-05
-7.24723e-05
-3.87373e-05
-5.94353e-05
-5.01157e-05
-4.54215e-05
-5.96445e-05
-3.05601e-05
-6.76244e-05
-1.50279e-05
-7.30197e-05
-7.15632e-05
-0.000106693
-2.39738e-05
-9.67108e-05
-3.83004e-05
-8.41858e-05
-5.12623e-05
-6.98853e-05
-6.44162e-05
-5.38529e-05
-7.56769e-05
-3.63647e-05
-8.51126e-05
-1.79368e-05
-9.14475e-05
-8.95e-05
-0.000119611
-3.19322e-05
-0.000109324
-4.85881e-05
-9.6104e-05
-6.44818e-05
-8.04441e-05
-8.00761e-05
-6.25429e-05
-9.35781e-05
-4.24842e-05
-0.000105171
-2.10789e-05
-0.000112853
-0.000110579
-0.000136086
-3.9142e-05
-0.000125481
-5.91931e-05
-0.000111489
-7.84731e-05
-9.40122e-05
-9.75532e-05
-7.37057e-05
-0.000113885
-5.02404e-05
-0.000128637
-2.50837e-05
-0.00013801
-0.000135663
-0.000155599
-4.62278e-05
-0.000144656
-7.01357e-05
-0.000129831
-9.32985e-05
-0.000110425
-0.000116959
-8.75565e-05
-0.000136753
-6.00192e-05
-0.000156174
-3.02898e-05
-0.000167739
-0.000165952
-0.000178748
-5.29237e-05
-0.000167224
-8.16596e-05
-0.000151739
-0.000108784
-0.000129753
-0.000138944
-0.000104417
-0.000162089
-7.16681e-05
-0.000188923
-3.68757e-05
-0.000202531
-0.000202828
-0.000207965
-5.88555e-05
-0.000196624
-9.3e-05
-0.000180997
-0.000124411
-0.000156847
-0.000163093
-0.00012835
-0.000190587
-8.90628e-05
-0.00022821
-4.66234e-05
-0.000244971
-0.000249451
-0.000238004
-6.33636e-05
-0.000226246
-0.000104758
-0.000211573
-0.000139084
-0.000184599
-0.000190067
-0.000155025
-0.000220162
-0.000108047
-0.000275188
-5.90697e-05
-0.000293948
-0.000308521
-0.000282012
-6.52811e-05
-0.000272813
-0.000113957
-0.000260241
-0.000151656
-0.000232664
-0.000217644
-0.000200157
-0.000252668
-0.000143014
-0.000332331
-8.05483e-05
-0.000356414
-0.000389069
-0.000315821
-6.4271e-05
-0.000307062
-0.000122716
-0.000299369
-0.000159348
-0.000270822
-0.000246191
-0.000243789
-0.000279702
-0.000177223
-0.000398897
-0.000109953
-0.000423684
-0.000499023
-0.000381368
-5.67162e-05
-0.000381636
-0.000122448
-0.000382705
-0.00015828
-0.000361046
-0.00026785
-0.000336078
-0.00030467
-0.000257191
-0.000477783
-0.000167572
-0.000513302
-0.000666595
-0.000408366
-4.65084e-05
-0.000409626
-0.000121187
-0.000421428
-0.000146478
-0.000406153
-0.000283125
-0.000407236
-0.000303586
-0.000329735
-0.000555285
-0.000258436
-0.000584602
-0.000925031
-0.000501114
-2.17101e-05
-0.000525636
-9.6665e-05
-0.000563201
-0.000108913
-0.000579534
-0.000266792
-0.000605941
-0.000277179
-0.000536075
-0.000625151
-0.000447881
-0.000672795
-0.00137291
-0.000496496
-3.84482e-06
-0.000515929
-7.72324e-05
-0.00055978
-6.50615e-05
-0.000592816
-0.000233756
-0.000689507
-0.000180488
-0.000691595
-0.000623063
-0.000721605
-0.000642785
-0.00209452
-0.000606538
4.05527e-05
-0.000671466
-1.23046e-05
-0.000773305
3.67782e-05
-0.000898213
-0.000108849
-0.00104919
-2.95115e-05
-0.00111682
-0.000555433
-0.000953224
-0.000806381
-0.00304774
-0.00035446
1.84093e-05
-0.000364831
-1.93379e-06
-0.000323815
-4.23756e-06
-0.000338158
-9.45059e-05
-0.000234257
-0.000133412
-0.000226758
-0.000562932
-4.55095e-06
-0.00102859
-0.00305229
0.0048779
0.00487597
0.00487173
0.00477722
0.00464381
0.00408088
0.00305229
-1.2631e-06
1.2631e-06
-2.35504e-06
1.09194e-06
-3.0173e-06
6.62262e-07
-3.19393e-06
1.7663e-07
-2.87264e-06
-3.21288e-07
-2.13849e-06
-7.34152e-07
-1.10768e-06
-1.03081e-06
-1.10768e-06
-1.4417e-06
2.7048e-06
-2.67297e-06
2.32321e-06
-3.39816e-06
1.38745e-06
-3.54519e-06
3.23655e-07
-3.16396e-06
-7.02515e-07
-2.34773e-06
-1.55039e-06
-1.21429e-06
-2.16425e-06
-2.32197e-06
-2.17728e-06
4.88208e-06
-3.94587e-06
4.0918e-06
-4.91985e-06
2.36142e-06
-5.12349e-06
5.27296e-07
-4.53354e-06
-1.29246e-06
-3.33244e-06
-2.75149e-06
-1.71467e-06
-3.78202e-06
-4.03664e-06
-2.60385e-06
7.48594e-06
-4.67125e-06
6.1592e-06
-5.72974e-06
3.41991e-06
-5.78789e-06
5.85454e-07
-5.04582e-06
-2.03454e-06
-3.68751e-06
-4.1098e-06
-1.88958e-06
-5.57995e-06
-5.92621e-06
-4.98752e-06
1.24735e-05
-8.46516e-06
9.63684e-06
-9.89269e-06
4.84744e-06
-9.83816e-06
5.30923e-07
-8.38387e-06
-3.48884e-06
-6.00824e-06
-6.48542e-06
-3.04828e-06
-8.53992e-06
-8.97449e-06
-6.02485e-06
1.84983e-05
-1.01482e-05
1.37602e-05
-1.16726e-05
6.37184e-06
-1.12649e-05
1.23187e-07
-9.49846e-06
-5.25523e-06
-6.7888e-06
-9.19508e-06
-3.43415e-06
-1.18946e-05
-1.24086e-05
-1.37668e-05
3.22651e-05
-2.08357e-05
2.08291e-05
-2.15456e-05
7.08172e-06
-1.97392e-05
-1.68315e-06
-1.58967e-05
-9.09772e-06
-1.09967e-05
-1.40951e-05
-5.47573e-06
-1.74156e-05
-1.78844e-05
-1.67388e-05
-2.44356e-05
-2.49417e-05
-2.24462e-05
-1.80258e-05
-1.24796e-05
-6.21228e-06
)
;

boundaryField
{
    movingWall
    {
        type            calculated;
        value           uniform 0;
    }
    fixedWalls
    {
        type            calculated;
        value           uniform 0;
    }
    frontAndBack
    {
        type            empty;
        value           nonuniform List<scalar> 0();
    }
}


// ************************************************************************* //
