/*--------------------------------*- C++ -*----------------------------------*\
  =========                 |
  \\      /  F ield         | OpenFOAM: The Open Source CFD Toolbox
   \\    /   O peration     | Website:  https://openfoam.org
    \\  /    A nd           | Version:  8
     \\/     M anipulation  |
\*---------------------------------------------------------------------------*/
FoamFile
{
    version     2.0;
    format      ascii;
    class       surfaceScalarField;
    location    "15";
    object      phi;
}
// * * * * * * * * * * * * * * * * * * * * * * * * * * * * * * * * * * * * * //

dimensions      [0 3 -1 0 0 0 0];

internalField   nonuniform List<scalar> 
34404
(
0.00534258
-9.25303e-06
5.37793e-09
0.00537025
-2.76583e-05
-8.66862e-09
0.00541558
-4.53165e-05
-1.22793e-08
0.00547719
-6.16029e-05
-6.32803e-09
0.00555321
-7.60152e-05
-2.89017e-09
0.00564135
-8.81406e-05
-2.40535e-09
0.00573903
-9.76808e-05
-1.26794e-09
0.00584351
-0.000104477
3.40825e-10
0.00595204
-0.00010853
2.64928e-09
0.00606202
-0.000109992
4.48742e-09
0.00617117
-0.000109154
5.76201e-09
0.00627757
-0.000106406
6.35815e-09
0.00637974
-0.000102177
6.24549e-09
0.00647663
-9.68894e-05
5.59627e-09
0.00656753
-9.09071e-05
4.64823e-09
0.00665204
-8.45184e-05
3.69197e-09
0.00672997
-7.79346e-05
2.83684e-09
0.00680127
-7.13002e-05
2.1964e-09
0.00686598
-6.47118e-05
1.66557e-09
0.00692421
-5.82266e-05
1.31163e-09
0.00697608
-5.18774e-05
9.64181e-10
0.00702176
-4.56734e-05
8.12506e-10
0.00706137
-3.96146e-05
5.91874e-10
0.00709506
-3.36873e-05
6.16561e-10
0.00712294
-2.78796e-05
4.23176e-10
0.0071451
-2.21679e-05
5.85123e-10
0.00716164
-1.65386e-05
3.34403e-10
0.00717261
-1.09639e-05
6.65413e-10
0.00717804
-5.43632e-06
2.09168e-10
0.00717796
8.05624e-08
7.24937e-10
0.00717241
5.5542e-06
1.84938e-10
0.00716137
1.10345e-05
1.35413e-09
0.00714487
1.64968e-05
1.27056e-10
0.00712291
2.19598e-05
2.06627e-09
0.00709553
2.7378e-05
-2.06673e-10
0.00706276
3.27727e-05
3.07569e-09
0.00702469
3.80657e-05
-1.14456e-09
0.0069814
4.32887e-05
4.70493e-09
0.00693308
4.83188e-05
-3.08567e-09
0.00687986
5.32145e-05
7.48974e-09
0.00682208
5.77937e-05
-6.91146e-09
0.00675989
6.21696e-05
1.25275e-08
0.00669383
6.6079e-05
-1.42268e-08
0.00662408
6.97318e-05
2.19136e-08
0.00655135
7.2751e-05
-2.78381e-08
0.00647581
7.54995e-05
3.91971e-08
0.00639842
7.74494e-05
-5.15941e-08
0.00631918
7.91652e-05
6.63603e-08
0.00623929
7.99719e-05
-8.12941e-08
8.05377e-05
6.40546e-08
0.0053428
-1.87271e-05
5.09693e-09
0.00537108
-5.59253e-05
-9.04562e-09
0.00541741
-9.16324e-05
-1.23861e-08
0.00548038
-0.000124571
-6.47445e-09
0.00555807
-0.000153693
-3.20595e-09
0.00564808
-0.000178157
-2.59091e-09
0.00574776
-0.000197356
-1.29714e-09
0.00585425
-0.000210967
4.25303e-10
0.00596471
-0.000218989
2.90158e-09
0.00607645
-0.000221743
4.84245e-09
0.00618713
-0.000219836
6.15538e-09
0.00629479
-0.000214077
6.70694e-09
0.00639797
-0.000205361
6.48793e-09
0.00649563
-0.000194554
5.72252e-09
0.00658712
-0.0001824
4.69333e-09
0.00667207
-0.000169475
3.71124e-09
0.00675033
-0.000156199
2.87678e-09
0.00682188
-0.000142852
2.27586e-09
0.00688679
-0.000129621
1.77443e-09
0.00694518
-0.000116615
1.43949e-09
0.00699719
-0.000103894
1.11208e-09
0.00704299
-9.14721e-05
9.79137e-10
0.00708272
-7.93467e-05
7.73212e-10
0.00711652
-6.74884e-05
8.00209e-10
0.00714451
-5.58707e-05
6.02587e-10
0.00716679
-4.44465e-05
7.55817e-10
0.00718343
-3.31859e-05
5.01406e-10
0.00719451
-2.20351e-05
8.19158e-10
0.00720004
-1.09748e-05
3.45882e-10
0.00720005
7.29155e-08
7.36379e-10
0.00719458
1.10253e-05
2.65476e-10
0.00718361
2.20001e-05
1.48086e-09
0.00716716
3.29485e-05
3.09717e-10
0.00714522
4.38945e-05
2.21276e-09
0.00711783
5.47669e-05
-2.97483e-11
0.00708502
6.55822e-05
3.20492e-09
0.00704687
7.62195e-05
-9.44422e-10
0.00700346
8.66933e-05
4.80275e-09
0.00695496
9.68224e-05
-2.85178e-09
0.00690153
0.000106635
7.53213e-09
0.00684345
0.000115884
-6.60685e-09
0.00678097
0.000124635
1.2457e-08
0.00671449
0.000132575
-1.37942e-08
0.00664436
0.000139832
2.16373e-08
0.0065711
0.000146041
-2.71589e-08
0.00649516
0.000151402
3.85649e-08
0.0064171
0.000155555
-5.04988e-08
0.0063375
0.000158709
6.5174e-08
0.00625686
0.000160691
-7.98818e-08
0.00016146
6.32196e-08
0.00534323
-2.86232e-05
5.1703e-09
0.00537278
-8.54708e-05
-9.61839e-09
0.00542119
-0.000140031
-1.29907e-08
0.00548697
-0.000190342
-6.86473e-09
0.00556806
-0.000234774
-3.47983e-09
0.00566192
-0.000272014
-2.72116e-09
0.00576568
-0.000301118
-1.13928e-09
0.00587629
-0.000321576
9.31603e-10
0.00599068
-0.000333388
3.72494e-09
0.00610601
-0.000337074
5.93511e-09
0.00621977
-0.000333611
7.34261e-09
0.00632999
-0.000324296
7.77478e-09
0.00643518
-0.000310562
7.26468e-09
0.00653439
-0.000293768
6.15471e-09
0.00662704
-0.000275061
4.84598e-09
0.00671288
-0.00025531
3.71595e-09
0.0067918
-0.000235127
2.8474e-09
0.00686386
-0.000214916
2.26761e-09
0.00692918
-0.000194938
1.78679e-09
0.0069879
-0.000175342
1.47099e-09
0.00704021
-0.000156206
1.16146e-09
0.00708628
-0.00013754
1.05573e-09
0.00712627
-0.000119333
8.64255e-10
0.00716031
-0.000101536
9.01975e-10
0.00718854
-8.41029e-05
7.01105e-10
0.00721106
-6.69625e-05
8.64863e-10
0.00722794
-5.00661e-05
5.9785e-10
0.00723924
-3.33325e-05
9.10457e-10
0.00724499
-1.67299e-05
3.9878e-10
0.00724518
-1.21082e-07
7.37527e-10
0.00723989
1.63214e-05
2.99013e-10
0.00722906
3.2828e-05
1.61584e-09
0.0072127
4.93053e-05
4.45585e-10
0.00719081
6.57868e-05
2.37201e-09
0.0071634
8.21755e-05
7.39043e-11
0.00713049
9.84842e-05
3.39332e-09
0.00709217
0.000114547
-8.23998e-10
0.00704849
0.000130364
5.02267e-09
0.00699963
0.000145689
-2.73826e-09
0.00694573
0.000160523
7.78594e-09
0.00688707
0.000174546
-6.52363e-09
0.00682392
0.000187782
1.27476e-08
0.00675665
0.000199851
-1.37651e-08
0.00668565
0.000210816
2.19747e-08
0.00661143
0.000220289
-2.72127e-08
0.00653444
0.000228354
3.89518e-08
0.00645531
0.00023473
-5.06641e-08
0.00637454
0.000239412
6.55573e-08
0.00629282
0.000242493
-8.00455e-08
0.000243551
6.34567e-08
0.00534389
-3.91792e-05
5.42095e-09
0.00537542
-0.000116989
-1.04585e-08
0.00542705
-0.000191652
-1.40785e-08
0.00549717
-0.000260459
-7.54653e-09
0.00558354
-0.000321138
-3.87029e-09
0.00568338
-0.000371847
-2.89672e-09
0.0057935
-0.000411242
-9.56477e-10
0.00591052
-0.000438595
1.74883e-09
0.00603104
-0.000453911
5.12971e-09
0.00615191
-0.000457951
7.8078e-09
0.00627044
-0.000452151
9.37195e-09
0.00638455
-0.000438419
9.57297e-09
0.00649281
-0.000418833
8.53078e-09
0.00659437
-0.00039533
6.80927e-09
0.0066888
-0.000369497
5.02329e-09
0.00677597
-0.000342487
3.663e-09
0.00685593
-0.000315084
2.75685e-09
0.0069288
-0.000287787
2.21482e-09
0.00699477
-0.000260912
1.7638e-09
0.00705405
-0.000234628
1.47768e-09
0.00710686
-0.000209013
1.19479e-09
0.00715338
-0.000184065
1.12792e-09
0.0071938
-0.000159753
9.49092e-10
0.00722827
-0.000136001
1.00477e-09
0.00725691
-0.000112743
7.9937e-10
0.00727982
-8.98765e-05
9.82346e-10
0.00729709
-6.73326e-05
6.97386e-10
0.00730875
-4.49996e-05
1.01305e-09
0.00731485
-2.28265e-05
4.86246e-10
0.00731537
-6.42284e-07
1.04826e-09
0.00731034
2.13504e-05
3.3944e-10
0.00729972
4.34427e-05
1.77105e-09
0.00728351
6.5519e-05
5.65392e-10
0.00726167
8.76215e-05
2.58522e-09
0.00723422
0.000109627
1.80083e-10
0.00720115
0.000131546
3.65528e-09
0.00716254
0.000153165
-7.21639e-10
0.00711843
0.000174469
5.37155e-09
0.00706897
0.000195145
-2.67884e-09
0.00701432
0.000215164
8.23085e-09
0.00695475
0.000234128
-6.56565e-09
0.0068905
0.000252016
1.33271e-08
0.00682199
0.000268374
-1.39854e-08
0.00674959
0.000283201
2.27698e-08
0.00667384
0.000296067
-2.77143e-08
0.0065952
0.000306953
4.00341e-08
0.00651435
0.00031563
-5.1582e-08
0.0064318
0.000321896
6.68789e-08
0.00634828
0.00032609
-8.12584e-08
0.000327398
6.40516e-08
0.0053448
-5.06537e-05
5.74796e-09
0.00537907
-0.000151247
-1.16669e-08
0.0054352
-0.000247758
-1.5724e-08
0.00551139
-0.000336641
-8.66011e-09
0.00560515
-0.000414894
-4.59109e-09
0.00571336
-0.000480059
-3.28277e-09
0.00583243
-0.000530304
-8.16747e-10
0.00595845
-0.000564624
2.93389e-09
0.00608756
-0.000583024
7.29695e-09
0.00621616
-0.000586569
1.07534e-08
0.00634129
-0.000577294
1.25516e-08
0.00646076
-0.000557898
1.23183e-08
0.0065732
-0.000531283
1.03712e-08
0.00667794
-0.000500078
7.6796e-09
0.00677479
-0.000466347
5.20535e-09
0.00686381
-0.000431512
3.5785e-09
0.0069452
-0.000396484
2.68452e-09
0.00701923
-0.00036182
2.22698e-09
0.00708618
-0.000327856
1.81943e-09
0.0071463
-0.000294759
1.5681e-09
0.00719988
-0.000262586
1.31809e-09
0.00724711
-0.000231303
1.30234e-09
0.00728821
-0.000200849
1.13753e-09
0.00732332
-0.000171116
1.21555e-09
0.00735259
-0.000142011
9.99812e-10
0.00737611
-0.000113397
1.19581e-09
0.00739395
-8.51787e-05
8.71305e-10
0.00740617
-5.72143e-05
1.19089e-09
0.00741277
-2.94266e-05
6.63601e-10
0.00741374
-1.61554e-06
1.2679e-09
0.00740909
2.60021e-05
4.20318e-10
0.00739876
5.37702e-05
2.00541e-09
0.00738272
8.15535e-05
7.51642e-10
0.00736093
0.000109405
2.8907e-09
0.00733339
0.000137176
3.37414e-10
0.00730005
0.000164875
4.044e-09
0.00726098
0.00019224
-5.72299e-10
0.0072162
0.000219238
5.86362e-09
0.00716587
0.000245485
-2.59105e-09
0.0071101
0.000270921
8.86479e-09
0.00704917
0.00029506
-6.61648e-09
0.00698334
0.000317836
1.41509e-08
0.00691302
0.000338709
-1.42748e-08
0.00683858
0.00035761
2.38942e-08
0.00676062
0.000374058
-2.84002e-08
0.00667961
0.00038792
4.15419e-08
0.00659628
0.000399019
-5.28359e-08
0.00651118
0.000406926
6.86776e-08
0.00642507
0.000412278
-8.29831e-08
0.000413746
6.48382e-08
0.00534602
-6.33394e-05
6.17231e-09
0.00538389
-0.000189109
-1.31802e-08
0.00544593
-0.000309782
-1.79225e-08
0.00553016
-0.000420854
-1.02104e-08
0.00563374
-0.000518475
-5.68171e-09
0.00575314
-0.000599452
-3.92837e-09
0.00588416
-0.000661324
-6.56395e-10
0.00602224
-0.000702712
4.6754e-09
0.00616282
-0.000723608
1.06163e-08
0.00630169
-0.000725461
1.53601e-08
0.00643549
-0.000711111
1.74886e-08
0.00656191
-0.000684332
1.64172e-08
0.00667972
-0.000649103
1.28862e-08
0.00678853
-0.000608902
8.61828e-09
0.00688849
-0.000566306
5.1423e-09
0.00697993
-0.000522955
3.32475e-09
0.00706326
-0.00047982
2.59159e-09
0.00713889
-0.000437455
2.29335e-09
0.00720722
-0.000396181
1.93583e-09
0.00726858
-0.000356122
1.71468e-09
0.00732328
-0.000317291
1.49801e-09
0.00737158
-0.0002796
1.53873e-09
0.00741367
-0.000242949
1.38275e-09
0.00744974
-0.000207187
1.47477e-09
0.00747992
-0.000172188
1.21993e-09
0.0075043
-0.000137778
1.41832e-09
0.00752295
-0.00010383
1.0564e-09
0.00753591
-7.01715e-05
1.38346e-09
0.00754317
-3.66915e-05
8.09434e-10
0.00754472
-3.16486e-06
1.44845e-09
0.00754052
3.0195e-05
4.9499e-10
0.00753052
6.37743e-05
2.20283e-09
0.00751465
9.74244e-05
8.69329e-10
0.00749284
0.000131208
3.1791e-09
0.00746506
0.000164952
4.33124e-10
0.00743127
0.000198666
4.43833e-09
0.00739147
0.000232035
-4.83716e-10
0.0073457
0.000265006
6.40021e-09
0.00729407
0.000297121
-2.57983e-09
0.0072367
0.00032828
9.57912e-09
0.00717385
0.00035791
-6.76973e-09
0.0071058
0.00038588
1.51366e-08
0.00703295
0.000411572
-1.47091e-08
0.00695572
0.000434815
2.52687e-08
0.0068747
0.000455103
-2.93178e-08
0.00679045
0.000472127
4.3438e-08
0.0067037
0.000485827
-5.44405e-08
0.00661513
0.000495421
7.09541e-08
0.00652548
0.000502009
-8.52102e-08
0.000503485
6.58465e-08
0.00534756
-7.7574e-05
6.72638e-09
0.00539003
-0.000231564
-1.4901e-08
0.00545966
-0.000379385
-2.0765e-08
0.0055542
-0.000515387
-1.22595e-08
0.00567049
-0.000634755
-7.28824e-09
0.00580442
-0.000733381
-4.96159e-09
0.00595104
-0.000807942
-4.59116e-10
0.00610488
-0.000856556
7.17435e-09
0.0062604
-0.000879143
1.55774e-08
0.00641255
-0.000877638
2.24222e-08
0.00655742
-0.000856003
2.50462e-08
0.00669257
-0.000819509
2.25111e-08
0.00681704
-0.000773588
1.62626e-08
0.0069309
-0.000722771
9.18573e-09
0.00703474
-0.000670153
4.10041e-09
0.00712928
-0.000617491
2.46691e-09
0.00721516
-0.000565702
2.38076e-09
0.00729296
-0.000515262
2.32617e-09
0.0073632
-0.000466423
2.0172e-09
0.00742631
-0.000419226
1.8195e-09
0.00748262
-0.000373604
1.63791e-09
0.00753241
-0.000329396
1.73524e-09
0.00757591
-0.000286448
1.55872e-09
0.00761328
-0.000244563
1.63385e-09
0.00764467
-0.000203575
1.30526e-09
0.00767016
-0.000163271
1.48583e-09
0.00768981
-0.000123486
1.05275e-09
0.00770366
-8.40156e-05
1.41454e-09
0.00771168
-4.47124e-05
7.67513e-10
0.00771383
-5.32281e-06
1.4791e-09
0.00771007
3.39544e-05
4.47311e-10
0.0077003
7.3542e-05
2.20705e-09
0.00768445
0.000113282
6.70372e-10
0.00766241
0.000153244
3.20163e-09
0.00763412
0.00019324
2.08364e-10
0.00759951
0.000233272
4.59634e-09
0.00755856
0.000272981
-7.10038e-10
0.00751128
0.000312277
6.73206e-09
0.00745777
0.000350639
-2.89369e-09
0.00739814
0.000387902
1.0162e-08
0.00733263
0.000423422
-7.23921e-09
0.00726154
0.000456962
1.60987e-08
0.00718527
0.000487857
-1.54868e-08
0.00710429
0.000515768
2.6759e-08
0.00701919
0.000540229
-3.06264e-08
0.00693064
0.000560629
4.56598e-08
0.00683936
0.000577168
-5.65231e-08
0.00674622
0.000588483
7.37353e-08
0.0066519
0.000596419
-8.80423e-08
0.00059767
6.71055e-08
0.00534951
-9.37526e-05
7.4436e-09
0.0053977
-0.00027974
-1.66465e-08
0.00547685
-0.000458512
-2.44531e-08
0.00558442
-0.000622946
-1.48819e-08
0.00571687
-0.000767193
-9.72468e-09
0.00586945
-0.000885948
-6.53897e-09
0.00603618
-0.000974672
9.85779e-12
0.00621038
-0.00103077
1.0957e-08
0.00638517
-0.00105395
2.31344e-08
0.00655426
-0.00104677
3.30789e-08
0.00671302
-0.00101479
3.61411e-08
0.00685893
-0.000965452
3.11037e-08
0.00699149
-0.000906162
2.04334e-08
0.00711146
-0.000842755
8.44548e-09
0.00722009
-0.000778787
2.91141e-09
0.00731853
-0.000715928
1.25737e-09
0.0074077
-0.000654875
1.78181e-09
0.00748837
-0.000595937
2.01908e-09
0.00756118
-0.000539229
1.70546e-09
0.00762661
-0.00048466
1.53144e-09
0.00768505
-0.000432042
1.40423e-09
0.00773677
-0.000381125
1.54922e-09
0.00778202
-0.000331693
1.28557e-09
0.00782095
-0.000283499
1.29927e-09
0.00785371
-0.000236335
8.46769e-10
0.00788039
-0.000189947
1.00289e-09
0.00790103
-0.000144132
4.67823e-10
0.00791567
-9.8652e-05
8.96612e-10
0.00792427
-5.3318e-05
1.60021e-10
0.0079268
-7.85209e-06
1.03743e-09
0.00792316
3.75943e-05
-2.88155e-11
0.00791325
8.34527e-05
1.61854e-09
0.00789697
0.000129566
-2.59857e-10
0.0078742
0.00017601
2.46848e-09
0.00784484
0.000222599
-7.67322e-10
0.0078088
0.000269309
4.00258e-09
0.00776603
0.000315755
-1.77945e-09
0.00771651
0.000361785
6.35489e-09
0.00766031
0.000406841
-4.01554e-09
0.00759756
0.000450645
1.01536e-08
0.00752847
0.000492525
-8.47276e-09
0.00745335
0.000532063
1.66238e-08
0.0073726
0.000568624
-1.69715e-08
0.00728677
0.000601568
2.80624e-08
0.00719642
0.00063061
-3.2588e-08
0.00710238
0.00065462
4.79881e-08
0.00700531
0.000674305
-5.92413e-08
0.00690637
0.000687345
7.69077e-08
0.00680609
0.000696789
-9.15472e-08
0.000697474
6.85711e-08
0.00535191
-0.00011234
8.37668e-09
0.00540712
-0.000334925
-1.80387e-08
0.0054981
-0.000549463
-2.93164e-08
0.00562191
-0.000746739
-1.80934e-08
0.00577475
-0.000920023
-1.3725e-08
0.00595108
-0.00106227
-9.03949e-09
0.00614364
-0.00116723
7.26117e-10
0.00634414
-0.00123129
1.71012e-08
0.00654371
-0.00125356
3.57173e-08
0.0067343
-0.0012374
4.99264e-08
0.0069103
-0.00119085
5.20054e-08
0.00706924
-0.00112443
4.15593e-08
0.00721141
-0.00104836
2.19673e-08
0.00733866
-0.000970012
6.79783e-09
0.00745307
-0.000893198
5.27953e-10
0.00755629
-0.000819147
-8.53095e-10
0.00764953
-0.000748119
2.02924e-10
0.00773375
-0.000680152
6.8744e-10
0.00780967
-0.000615154
1.79127e-10
0.00787785
-0.000552836
-3.83274e-11
0.00793866
-0.000492857
-1.07582e-10
0.0079924
-0.000434868
3.67794e-11
0.00803931
-0.000378596
-2.62388e-10
0.00807955
-0.000323745
-4.26117e-10
0.00811329
-0.000270069
-1.06613e-09
0.00814062
-0.000217274
-9.19527e-10
0.00816161
-0.000165123
-1.59981e-09
0.0081763
-0.00011334
-9.6236e-10
0.00818468
-6.17009e-05
-1.63439e-09
0.00818673
-9.89777e-06
-2.96124e-10
0.0081823
4.20294e-05
-1.67703e-09
0.0081713
9.44456e-05
-4.94625e-10
0.00815365
0.000147226
-3.04341e-09
0.0081292
0.000200462
2.97699e-11
0.00809781
0.000253985
-3.49817e-09
0.00805939
0.000307727
1.7596e-09
0.00801384
0.00036131
-4.58302e-09
0.00796115
0.000414477
4.37256e-09
0.00790131
0.000466684
-6.79931e-09
0.00783448
0.000517466
8.71705e-09
0.00776081
0.000566208
-1.1231e-08
0.00768067
0.00061218
1.59828e-08
0.0075944
0.00065492
-1.97843e-08
0.00750266
0.000693274
2.85555e-08
0.00740593
0.000727377
-3.56508e-08
0.00730527
0.00075523
4.99443e-08
0.00720119
0.000778453
-6.27961e-08
0.00709526
0.000793188
8.01328e-08
0.00698777
0.000804374
-9.57055e-08
0.000804042
7.00714e-08
0.00535486
-0.000133878
9.63294e-09
0.00541852
-0.000398558
-1.83843e-08
0.00552406
-0.000654972
-3.57895e-08
0.0056679
-0.000890561
-2.16262e-08
0.00584639
-0.00109849
-2.07253e-08
0.00605293
-0.00126879
-1.36182e-08
0.00627869
-0.00139298
7.95292e-10
0.00651326
-0.0014659
2.59619e-08
0.00674481
-0.00148516
5.72689e-08
0.00696264
-0.00145531
7.87851e-08
0.00715986
-0.00138814
7.64162e-08
0.00733425
-0.00129888
5.2593e-08
0.00748752
-0.00120164
1.78441e-08
0.00762309
-0.00110558
3.62058e-11
0.0077441
-0.00101419
-9.09414e-09
0.00785268
-0.000927723
-5.93488e-09
0.00795031
-0.000845749
-2.64367e-09
0.00803811
-0.000767948
-2.57514e-09
0.0081169
-0.00069394
-4.14335e-09
0.00818725
-0.000623182
-4.50506e-09
0.00824956
-0.000555159
-4.52005e-09
0.00830413
-0.00048944
-4.40046e-09
0.00835125
-0.000425708
-5.0284e-09
0.00839114
-0.000363632
-5.22551e-09
0.00842402
-0.000302937
-5.98063e-09
0.00845003
-0.000243286
-5.7204e-09
0.00846934
-0.000184425
-6.44257e-09
0.00848201
-0.000126005
-5.32489e-09
0.00848814
-6.78178e-05
-5.76597e-09
0.00848774
-9.50172e-06
-3.31415e-09
0.00848059
4.91868e-05
-5.57175e-09
0.00846673
0.000108312
-5.54638e-09
0.00844605
0.000167918
-8.91537e-09
0.00841841
0.000228102
-5.43904e-09
0.00838365
0.000288753
-9.34733e-09
0.00834167
0.000349719
-3.51975e-09
0.00829229
0.000410695
-1.04526e-08
0.00823551
0.000471255
-4.11799e-10
0.00817125
0.000530962
-1.24721e-08
0.00809966
0.000589047
4.63586e-09
0.0080208
0.000645091
-1.65813e-08
0.0079351
0.000697861
1.30846e-08
0.00784276
0.000747289
-2.47973e-08
0.0077446
0.0007914
2.72745e-08
0.00764092
0.000831105
-4.04063e-08
0.00753306
0.000863032
5.07088e-08
0.00742129
0.000890294
-6.74031e-08
0.0073077
0.000906693
8.27395e-08
0.00719221
0.000919962
-1.00299e-07
0.000918116
7.12407e-08
0.00535843
-0.00015898
1.145e-08
0.00543209
-0.000472207
-1.66214e-08
0.00555543
-0.000778267
-4.42624e-08
0.00572373
-0.00105883
-2.44894e-08
0.00593447
-0.0013092
-3.27265e-08
0.00617945
-0.00151375
-2.10481e-08
0.00644813
-0.00166166
-1.88791e-09
0.00672712
-0.00174493
3.52129e-08
0.00700004
-0.00175817
8.92817e-08
0.00725238
-0.00170777
1.25358e-07
0.00747537
-0.00161125
1.16409e-07
0.00766743
-0.001491
6.05696e-08
0.00783257
-0.0013668
1.25992e-08
0.00797653
-0.00124951
-2.55559e-08
0.00810363
-0.00114126
-3.11544e-08
0.00821647
-0.00104054
-1.89253e-08
0.00831676
-0.000946023
-1.13348e-08
0.00840581
-0.000856985
-1.27848e-08
0.00848455
-0.000772672
-1.44161e-08
0.00855363
-0.000692244
-1.45759e-08
0.00861351
-0.00061503
-1.43062e-08
0.00866465
-0.000540565
-1.40731e-08
0.00870746
-0.000468503
-1.46328e-08
0.00874235
-0.000398501
-1.45652e-08
0.00876967
-0.000330245
-1.49084e-08
0.00878976
-0.000263369
-1.39987e-08
0.00880294
-0.000197583
-1.40305e-08
0.0088094
-0.000132456
-1.17872e-08
0.00880934
-6.77514e-05
-1.15036e-08
0.00880301
-3.16316e-06
-7.48716e-09
0.00878999
6.22165e-05
-1.15471e-08
0.00877058
0.000127736
-1.30893e-08
0.00874463
0.000193889
-1.74904e-08
0.00871203
0.000260719
-1.3875e-08
0.00867256
0.000328241
-1.83429e-08
0.00862611
0.00039618
-1.20475e-08
0.00857242
0.000464404
-1.96143e-08
0.00851145
0.000532233
-8.68439e-09
0.00844296
0.00059947
-2.14395e-08
0.00836713
0.000664889
-2.69625e-09
0.00828377
0.00072847
-2.50844e-08
0.00819341
0.000788218
7.10381e-09
0.00809596
0.000844771
-3.25967e-08
0.00799242
0.000894911
2.32469e-08
0.00788276
0.000940811
-4.72921e-08
0.00776868
0.000977072
4.91996e-08
0.00765001
0.00100903
-7.31117e-08
0.00752945
0.00102717
8.36503e-08
0.00740647
0.00104304
-1.04742e-07
0.00103934
7.14491e-08
0.00536261
-0.000188267
1.4391e-08
0.00544795
-0.000557536
-1.13082e-08
0.0055928
-0.00092306
-5.47664e-08
0.00579053
-0.00125654
-2.50572e-08
0.00604194
-0.00156056
-5.21366e-08
0.00633592
-0.0018077
-2.84596e-08
0.00666068
-0.00198641
-7.61592e-09
0.00699798
-0.00208227
4.63853e-08
0.00732441
-0.00208473
1.29636e-07
0.00762007
-0.00200361
1.82036e-07
0.00787322
-0.00186456
1.66742e-07
0.00808328
-0.00170114
7.22592e-08
0.00825814
-0.00154165
-5.18925e-09
0.00840677
-0.00139808
-6.99486e-08
0.00853486
-0.00126928
-7.03044e-08
0.00864548
-0.00115112
-4.72153e-08
0.00874083
-0.00104134
-3.52511e-08
0.00882264
-0.000938759
-3.41502e-08
0.00889212
-0.000842122
-3.39712e-08
0.00895018
-0.000750271
-3.16837e-08
0.00899762
-0.00066244
-2.95235e-08
0.00903526
-0.000578177
-2.79768e-08
0.00906388
-0.000497099
-2.72671e-08
0.00908426
-0.000418852
-2.57263e-08
0.00909707
-0.000343028
-2.43149e-08
0.00910297
-0.00026925
-2.158e-08
0.00910248
-0.000197074
-1.92682e-08
0.00909614
-0.000126101
-1.49531e-08
0.00908433
-5.59325e-05
-1.22552e-08
0.00906709
1.40848e-05
-9.36168e-09
0.00904449
8.48384e-05
-1.59559e-08
0.00901671
0.000155535
-1.78108e-08
0.00898361
0.000227004
-2.29646e-08
0.0089451
0.000299255
-1.97268e-08
0.00890085
0.000372519
-2.52903e-08
0.00885068
0.00044636
-1.89998e-08
0.00879417
0.000520944
-2.75921e-08
0.00873118
0.000595237
-1.62222e-08
0.00866123
0.000669458
-3.01252e-08
0.00858438
0.000741742
-1.04051e-08
0.00850017
0.000812721
-3.4105e-08
0.00840906
0.000879329
-1.39351e-10
0.00831058
0.000943285
-4.14649e-08
0.00820583
0.000999643
1.70852e-08
0.00809431
0.00105239
-5.52693e-08
0.00797796
0.00109338
4.49473e-08
0.00785616
0.00113091
-7.90888e-08
0.00773201
0.00115124
8.16196e-08
0.00760467
0.00117049
-1.07795e-07
0.00116515
6.97884e-08
0.00536728
-0.000222226
1.97949e-08
0.0054661
-0.00065636
-2.30781e-09
0.00563634
-0.00109324
-6.59866e-08
0.00586896
-0.00148913
-2.35893e-08
0.00617185
-0.00186336
-8.37377e-08
0.00652803
-0.00216386
-2.75367e-08
0.00692697
-0.00238534
-1.31684e-08
0.00734196
-0.00249734
7.94168e-08
0.00773779
-0.00248075
1.9127e-07
0.00808589
-0.00235195
2.27225e-07
0.00836926
-0.00214811
1.74181e-07
0.00858985
-0.00192177
4.61832e-08
0.00876256
-0.00171429
-7.00458e-08
0.00890096
-0.00153634
-1.37368e-07
0.00901264
-0.00138084
-1.19711e-07
0.00910178
-0.00124017
-8.32193e-08
0.00917201
-0.0011115
-6.76694e-08
0.00922596
-0.00099265
-6.36875e-08
0.00926559
-0.000881695
-5.77682e-08
0.00929253
-0.000777153
-4.8894e-08
0.00930832
-0.000678196
-4.18814e-08
0.00931453
-0.000584343
-3.68161e-08
0.00931255
-0.000495091
-3.3189e-08
0.00930371
-0.000409977
-2.88361e-08
0.00928911
-0.000328409
-2.49135e-08
0.0092698
-0.000249919
-1.96822e-08
0.00924654
-0.000173794
-1.47755e-08
0.00922011
-9.96664e-05
-8.513e-09
0.00919115
-2.69634e-05
-6.00814e-09
0.00915916
4.6081e-05
-8.99144e-09
0.00912493
0.00011908
-1.61078e-08
0.0090883
0.000192183
-1.59437e-08
0.00904903
0.000266302
-2.05526e-08
0.0090069
0.000341395
-1.73195e-08
0.00896142
0.000418027
-2.37496e-08
0.00891222
0.000495576
-1.75627e-08
0.00885857
0.000574619
-2.72241e-08
0.00880014
0.000653688
-1.60307e-08
0.00873604
0.000733585
-3.1341e-08
0.00866615
0.000811641
-1.17868e-08
0.00858953
0.000889383
-3.70116e-08
0.00850647
0.000962393
-3.143e-09
0.00841598
0.00103381
-4.57567e-08
0.00831906
0.00109655
1.2749e-08
0.00821466
0.00115684
-5.99899e-08
0.00810471
0.00120329
3.97367e-08
0.00798815
0.00124756
-8.22037e-08
0.00786806
0.00127125
7.61933e-08
0.00774366
0.00129501
-1.06969e-07
0.00128951
6.52652e-08
0.00537206
-0.000260979
3.04545e-08
0.00548647
-0.000770782
7.29212e-09
0.00568515
-0.00129184
-7.21541e-08
0.00595898
-0.00176294
-2.7805e-08
0.00632636
-0.0022306
-1.38901e-07
0.00676012
-0.00259758
-3.60912e-08
0.0072573
-0.0028825
-3.23087e-08
0.00777812
-0.0030183
1.42994e-07
0.0082637
-0.00296665
3.14207e-07
0.00866607
-0.00275458
2.63245e-07
0.00896082
-0.00244293
7.40884e-08
0.00916082
-0.00212165
-1.18138e-07
0.00929435
-0.00184754
-2.678e-07
0.00938244
-0.00162418
-2.51275e-07
0.00943582
-0.00143407
-1.49767e-07
0.00946194
-0.00126622
-7.88571e-08
0.0094669
-0.00111639
-7.41371e-08
0.00945541
-0.000981089
-6.93116e-08
0.00943068
-0.000856901
-5.69051e-08
0.00939559
-0.000742027
-4.11923e-08
0.00935285
-0.000635421
-2.98553e-08
0.00930482
-0.000536294
-2.19775e-08
0.00925354
-0.000443792
-1.64707e-08
0.00920067
-0.000357103
-1.08466e-08
0.00914759
-0.000275324
-6.80292e-09
0.00909534
-0.000197662
-1.45153e-09
0.00904474
-0.000123198
1.07618e-09
0.0089965
-5.14291e-05
5.5335e-09
0.0089505
1.90302e-05
1.58777e-09
0.00890674
8.98476e-05
-4.21253e-09
0.00886552
0.000160311
-8.43969e-09
0.00882631
0.000231396
-4.14768e-09
0.00878859
0.000304026
-6.98895e-09
0.00875185
0.000378137
-2.92502e-09
0.00871522
0.000454665
-9.28549e-09
0.00867801
0.000532791
-2.8938e-09
0.0086391
0.000613548
-1.31282e-08
0.00859778
0.000695009
-2.4845e-09
0.00855274
0.00077864
-1.89187e-08
0.00850348
0.000860901
-6.95368e-10
0.00844856
0.000944337
-2.71212e-08
0.00838789
0.00102306
4.29319e-09
0.00831996
0.00110178
-3.86962e-08
0.00824536
0.00117113
1.55655e-08
0.00816258
0.00123968
-5.5063e-08
0.00807303
0.00129279
3.71814e-08
0.00797549
0.00134518
-7.69751e-08
0.00787216
0.00137451
6.83794e-08
0.00776306
0.00140421
-9.80586e-08
0.00140204
5.73125e-08
0.00537652
-0.00030421
5.12728e-08
0.00550854
-0.000902823
1.83751e-08
0.00573608
-0.00151933
-5.60839e-08
0.00605953
-0.00208633
-5.47763e-08
0.00650435
-0.00267519
-2.28565e-07
0.00703409
-0.0031272
-1.16655e-07
0.00766493
-0.00351322
-1.13073e-07
0.00832598
-0.00367949
1.45687e-07
0.00891842
-0.00355956
4.66886e-07
0.00934241
-0.00317896
3.91673e-07
0.00957455
-0.00267511
4.04035e-08
0.00966794
-0.00221464
-3.9975e-07
0.00967702
-0.00185605
-5.74339e-07
0.00963141
-0.00157818
-3.88241e-07
0.00954933
-0.00135188
-1.13274e-07
0.00944455
-0.00116142
-2.19342e-08
0.00932691
-0.000998753
7.60255e-09
0.00920242
-0.000856619
1.33539e-08
0.00907585
-0.000730346
2.22312e-08
0.0089509
-0.000617111
3.08438e-08
0.00883064
-0.000515198
3.31414e-08
0.0087173
-0.000422986
3.29207e-08
0.00861239
-0.000338917
3.16466e-08
0.00851687
-0.000261606
3.08894e-08
0.00843123
-0.000189716
2.8344e-08
0.00835556
-0.000122019
2.63442e-08
0.00828977
-5.74334e-05
2.20207e-08
0.00823373
4.59671e-06
1.86527e-08
0.00818591
6.68437e-05
7.1043e-09
0.00814701
0.000128742
9.7937e-09
0.00811562
0.000191686
1.26149e-08
0.00809095
0.000256049
1.93807e-08
0.00807198
0.000322977
1.73598e-08
0.00805772
0.000392368
2.18873e-08
0.00804696
0.000465413
1.584e-08
0.0080386
0.00054113
2.21621e-08
0.00803121
0.000620922
1.18532e-08
0.00802371
0.000702488
2.15903e-08
0.00801448
0.000787862
4.96284e-09
0.00800259
0.000872777
2.09552e-08
0.00798627
0.000960662
-5.13108e-09
0.00796492
0.00104438
2.17591e-08
0.00793673
0.00113
-1.90645e-08
0.00790157
0.00120626
2.64549e-08
0.00785775
0.00128354
-3.73937e-08
0.0078056
0.00134491
3.87211e-08
0.00774417
0.00140666
-5.90742e-08
0.00767366
0.00144497
5.89176e-08
0.00759588
0.00148207
-7.66972e-08
0.00148894
4.60142e-08
0.00538049
-0.000351448
8.8746e-08
0.00552954
-0.00105193
5.17144e-08
0.00578264
-0.00177244
1.08424e-08
0.00616596
-0.00246955
-1.07866e-07
0.00669305
-0.00320196
-3.19243e-07
0.0073456
-0.00377939
-3.55553e-07
0.0081754
-0.00434262
-4.06446e-07
0.00898489
-0.00448901
3.03661e-08
0.00964185
-0.00421689
3.75186e-07
0.00994914
-0.00348683
5.79165e-07
0.00993687
-0.00266312
2.82933e-07
0.00974949
-0.0020271
-1.64113e-07
0.00948356
-0.00158951
-6.06799e-07
0.00917785
-0.00127209
-3.8324e-07
0.00886605
-0.00104006
-1.86641e-08
0.008567
-0.000862513
1.48914e-07
0.0082902
-0.000722123
1.72339e-07
0.00803933
-0.00060591
1.59953e-07
0.007816
-0.000507164
1.48855e-07
0.00762083
-0.000422072
1.29275e-07
0.00745309
-0.000347564
1.0528e-07
0.00731122
-0.000281202
8.50203e-08
0.00719322
-0.000220986
6.96547e-08
0.00709693
-0.000165377
5.85686e-08
0.00702021
-0.000113042
4.83959e-08
0.00696105
-6.28944e-05
3.89696e-08
0.00691737
-1.37861e-05
2.71561e-08
0.00688723
3.47163e-05
1.96993e-08
0.00686999
8.40615e-05
2.06364e-08
0.00686391
0.0001348
2.92445e-08
0.00686769
0.000187872
3.31761e-08
0.00688011
0.000243584
3.8602e-08
0.0069
0.00030306
3.60354e-08
0.00692618
0.000366148
4.01443e-08
0.00695743
0.000434127
3.45341e-08
0.00699255
0.000505967
4.06054e-08
0.0070302
0.000583243
3.12268e-08
0.00706911
0.000663535
4.03405e-08
0.00710779
0.000749152
2.53574e-08
0.007145
0.000835533
3.93112e-08
0.0071791
0.000926546
1.63223e-08
0.00720895
0.00101449
3.78786e-08
0.00723288
0.00110607
3.54347e-09
0.00724988
0.00118922
3.70734e-08
0.00725849
0.00127494
-1.28762e-08
0.00725754
0.00134582
3.89051e-08
0.00724675
0.00141748
-3.07215e-08
0.00722352
0.00146815
4.46014e-08
0.00719185
0.00151378
-4.2216e-08
0.00153663
3.09362e-08
0.0053836
-0.000401852
1.44507e-07
0.0055417
-0.00121016
1.25859e-07
0.00581498
-0.00204584
1.26484e-07
0.00625695
-0.00291139
-1.28916e-07
0.00685939
-0.00380413
-2.71742e-07
0.00768521
-0.00460451
-7.02233e-07
0.00879797
-0.00545462
-7.52702e-07
0.00966532
-0.00535628
-8.08902e-08
0.0100978
-0.00124907
-1.13739e-07
-0.00107569
-0.00124763
-0.00107689
0.0099385
-0.000913806
2.48605e-07
-0.000750271
-0.000912898
-0.000750787
0.0093563
-0.000568771
9.38562e-07
-0.00047231
-0.000568373
-0.000472414
0.00862702
-0.000335218
3.52708e-07
-0.00031365
-0.00033566
-0.000313642
0.00791386
-0.000876248
-1.03607e-07
0.00727748
-0.000635594
-1.15745e-07
0.00675056
-0.000513294
1.51873e-07
0.00632978
-0.000441895
1.61062e-07
0.0060021
-0.000394513
7.67163e-08
0.00575125
-0.000355119
5.5765e-08
0.00556242
-0.000318391
5.87418e-08
0.00542263
-0.000282336
5.49561e-08
0.00532129
-0.000246281
4.76574e-08
0.00525022
-0.000210167
4.13668e-08
0.00520324
-0.000174042
3.56464e-08
0.0051758
-0.000137965
3.01792e-08
0.00516452
-0.000101794
2.37345e-08
0.00516696
-6.53461e-05