/*--------------------------------*- C++ -*----------------------------------*\
  =========                 |
  \\      /  F ield         | OpenFOAM: The Open Source CFD Toolbox
   \\    /   O peration     | Website:  https://openfoam.org
    \\  /    A nd           | Version:  8
     \\/     M anipulation  |
\*---------------------------------------------------------------------------*/
FoamFile
{
    version     2.0;
    format      ascii;
    class       surfaceScalarField;
    location    "53";
    object      phi;
}
// * * * * * * * * * * * * * * * * * * * * * * * * * * * * * * * * * * * * * //

dimensions      [0 3 -1 0 0 0 0];

internalField   nonuniform List<scalar> 
880
(
-1.79257e-05
1.79257e-05
-3.77208e-05
1.9795e-05
-5.6932e-05
1.92113e-05
-7.51728e-05
1.82408e-05
-9.21048e-05
1.6932e-05
-0.000107394
1.52895e-05
-0.000120807
1.34129e-05
-0.000131844
1.10368e-05
-0.000140822
8.97763e-06
-0.000146236
5.41415e-06
-0.000150948
4.71248e-06
2.37843e-06
-0.000153327
-2.04549e-05
3.83806e-05
-4.29311e-05
4.22712e-05
-6.47575e-05
4.10376e-05
-8.55213e-05
3.90046e-05
-0.000104866
3.6277e-05
-0.000122425
3.28486e-05
-0.000137922
2.89093e-05
-0.0001509
2.40144e-05
-0.000161697
1.97747e-05
-0.000169287
1.30049e-05
-0.00017619
1.16149e-05
1.73581e-06
-0.000175547
-2.11663e-05
5.95469e-05
-4.44245e-05
6.55295e-05
-6.69476e-05
6.35607e-05
-8.82421e-05
6.02991e-05
-0.000107876
5.59105e-05
-0.00012548
5.04529e-05
-0.000140671
4.40999e-05
-0.000153174
3.65174e-05
-0.000162387
2.8988e-05
-0.000168302
1.89199e-05
-0.000169287
1.26004e-05
-7.16109e-07
-0.000166835
-2.21806e-05
8.17274e-05
-4.66228e-05
8.99717e-05
-7.04249e-05
8.73628e-05
-9.32167e-05
8.30909e-05
-0.000114598
7.72914e-05
-0.000134107
6.99622e-05
-0.000151248
6.12412e-05
-0.000165662
5.09313e-05
-0.000176538
3.98645e-05
-0.000183756
2.61378e-05
-0.000185172
1.40158e-05
-4.11389e-06
-0.000181774
-2.34862e-05
0.000105214
-4.93802e-05
0.000115866
-7.44071e-05
0.00011239
-9.8069e-05
0.000106753
-0.000119945
9.91669e-05
-0.000139712
8.973e-05
-0.000156989
7.8518e-05
-0.00017148
6.54226e-05
-0.000182566
5.095e-05
-0.000190452
3.40238e-05
-0.000193658
1.72217e-05
-4.25019e-06
-0.000193521
-2.52388e-05
0.000130452
-5.32493e-05
0.000143876
-8.06928e-05
0.000139833
-0.000107144
0.000133204
-0.000132141
0.000124164
-0.000155157
0.000112746
-0.000175717
9.90782e-05
-0.000193304
8.30098e-05
-0.000207135
6.47811e-05
-0.000216888
4.37767e-05
-0.000220799
2.1132e-05
-6.032e-06
-0.000219017
-2.70228e-05
0.000157475
-5.70614e-05
0.000173915
-8.59207e-05
0.000168693
-0.000113712
0.000160996
-0.000139458
0.000149911
-0.000163161
0.000136448
-0.0001843
0.000120218
-0.000202602
0.000101311
-0.000217757
7.99364e-05
-0.000229434
5.54532e-05
-0.000237824
2.95229e-05
-2.16243e-06
-0.000241694
-3.0172e-05
0.000187647
-6.3659e-05
0.000207402
-9.66433e-05
0.000201677
-0.000128257
0.000192609
-0.000158545
0.000180199
-0.000186675
0.000164578
-0.00021253
0.000146072
-0.000235352
0.000124134
-0.000254793
9.93772e-05
-0.000269629
7.02892e-05
-0.000279955
3.98486e-05
-3.61012e-07
-0.000281756
-3.13946e-05
0.000219042
-6.7519e-05
0.000243526
-0.000101404
0.000235562
-0.000135688
0.000226892
-0.000166633
0.000211144
-0.000196272
0.000194217
-0.000222774
0.000172574
-0.000246471
0.00014783
-0.000267559
0.000120465
-0.000284586
8.73168e-05
-0.000300617
5.5879e-05
1.00037e-05
-0.000310981
-3.71965e-05
0.000256238
-7.75735e-05
0.000283903
-0.000118472
0.00027646
-0.000156253
0.000264674
-0.000193777
0.000248668
-0.000228199
0.000228639
-0.000261342
0.000205718
-0.000290995
0.000177483
-0.000318851
0.000148321
-0.000341321
0.000109787
-0.000361983
7.65407e-05
2.04916e-05
-0.000372471
-3.57958e-05
0.000292034
-8.09425e-05
0.00032905
-0.000120846
0.000316364
-0.000164896
0.000308724
-0.000202308
0.00028608
-0.000240111
0.000266442
-0.000272754
0.00023836
-0.000302896
0.000207626
-0.000330788
0.000176213
-0.00035453
0.000133529
-0.000379826
0.000101837
4.02282e-05
-0.000399563
-4.80173e-05
0.000340051
-9.58524e-05
0.000376885
-0.000147035
0.000367546
-0.000191015
0.000352703
-0.000237035
0.0003321
-0.000278318
0.000307725
-0.000320202
0.000280244
-0.000357736
0.00024516
-0.000396152
0.000214629
-0.000428618
0.000165995
-0.000464287
0.000137507
6.49326e-05
-0.000488992
-3.52992e-05
0.000375351
-9.58008e-05
0.000437387
-0.000143051
0.000414797
-0.000203077
0.000412729
-0.000249051
0.000378074
-0.000297069
0.000355743
-0.000335821
0.000318997
-0.000371871
0.00028121
-0.000404848
0.000247606
-0.000434158
0.000195305
-0.000467599
0.000170948
9.56055e-05
-0.000498272
-7.11229e-05
0.000446473
-0.000122506
0.000488769
-0.000185604
0.000477895
-0.000233263
0.000460388
-0.00028666
0.000431471
-0.000335134
0.000404216
-0.000385101
0.000368964
-0.00043115
0.000327258
-0.000479696
0.000296152
-0.000523152
0.00023876
-0.000574647
0.000222443
0.000139929
-0.000618971
-5.10028e-06
0.000451574
-0.00010249
0.000586159
-0.000165201
0.000540607
-0.000255353
0.00055054
-0.000315838
0.000491957
-0.000374989
0.000463367
-0.000418442
0.000412417
-0.00045549
0.000364306
-0.000487583
0.000328245
-0.000515024
0.000266201
-0.00054669
0.000254109
0.000173388
-0.000580149
-0.000144443
0.000596017
-0.000169424
0.000611141
-0.000237132
0.000608314
-0.000283337
0.000596745
-0.00033735
0.000545969
-0.000395867
0.000521885
-0.000451444
0.000467994
-0.000505905
0.000418767
-0.000560471
0.000382811
-0.000611293
0.000317023
-0.000670737
0.000313553
0.000232698
-0.000730046
9.81139e-05
0.000497903
-0.000105455
0.00081471
-0.000224448
0.000727307
-0.000355123
0.00072742
-0.000437989
0.000628835
-0.000496398
0.000580294
-0.000537986
0.000509582
-0.000562843
0.000443624
-0.000583295
0.000403262
-0.000594203
0.000327931
-0.000601158
0.000320508
0.000244048
-0.000612509
9.77496e-05
0.000400153
8.31535e-05
0.000829306
-1.39203e-05
0.000824381
-0.000196874
0.000910374
-0.000292561
0.000724521
-0.000415078
0.000702812
-0.000499896
0.0005944
-0.000574215
0.000517943
-0.000635101
0.000464149
-0.000684741
0.000377571
-0.000735746
0.000371513
0.000296854
-0.000788552
-0.001382
0.00178215
-0.00149623
0.000943538
-0.00162867
0.000956826
-0.00147695
0.000758648
-0.00139369
0.000641264
-0.00122066
0.000529778
-0.00109753
0.00047127
-0.000950655
0.000371071
-0.000831003
0.000344497
-0.000714598
0.000261166
-0.000594891
0.000251807
0.000202643
-0.00050068
0.00178215
0.00272569
0.00368251
0.00444116
0.00508243
0.0056122
0.00608347
0.00645455
0.00679904
0.00706021
0.00731201
0.00751466
-0.000123837
5.31698e-05
-8.26595e-05
-9.76459e-05
2.37091e-05
-4.99002e-05
-8.13318e-05
-2.37343e-06
-1.39406e-05
-6.52538e-05
-2.25894e-05
6.51142e-06
-4.96911e-05
-3.88385e-05
2.32757e-05
-3.30409e-05
-5.09758e-05
3.43257e-05
-1.59475e-05
-5.87999e-05
4.17065e-05
-5.66284e-05
4.06809e-05
-0.000139657
1.72798e-05
-0.000110706
-5.24196e-06
-9.20291e-05
-2.10505e-05
-7.36996e-05
-4.09189e-05
-5.62458e-05
-5.62923e-05
-3.74817e-05
-6.97399e-05
-1.81198e-05
-7.81619e-05
-7.47482e-05
-0.000150422
8.66735e-07
-0.000133573
-2.20916e-05
-0.000115376
-3.92472e-05
-9.5265e-05
-6.103e-05
-7.34489e-05
-7.81085e-05
-4.92835e-05
-9.39054e-05
-2.39449e-05
-0.0001035
-9.86931e-05
-0.000165735
-1.51717e-05
-0.000149058
-3.87693e-05
-0.000129784
-5.85206e-05
-0.000108061
-8.27537e-05
-8.40147e-05
-0.000102154
-5.666e-05
-0.00012126
-2.76985e-05
-0.000132462
-0.000126392
-0.000185615
-2.30784e-05
-0.000172803
-5.15815e-05
-0.00015556
-7.57626e-05
-0.000131795
-0.000106519
-0.000104843
-0.000129106
-7.10556e-05
-0.000155048
-3.54367e-05
-0.000168081
-0.000161828
-0.000210613
-3.14819e-05
-0.000197221
-6.49734e-05
-0.000179028
-9.39557e-05
-0.000153081
-0.000132467
-0.000123085
-0.000159102
-8.40449e-05
-0.000194088
-4.24228e-05
-0.000209703
-0.000204251
-0.000240656
-3.25203e-05
-0.000229769
-7.58604e-05
-0.000215221
-0.000108504
-0.000186862
-0.000160825
-0.000154851
-0.000191114
-0.000106541
-0.000242397
-5.56348e-05
-0.000260609
-0.000259886
-0.000280376
-3.39001e-05
-0.00026955
-8.66869e-05
-0.00025458
-0.000123473
-0.000224024
-0.000191381
-0.000188269
-0.000226869
-0.000131393
-0.000299274
-7.02166e-05
-0.000321785
-0.000330102
-0.000320093
-2.47882e-05
-0.000314427
-9.23529e-05
-0.000307934
-0.000129967
-0.000277061
-0.000222254
-0.000243436
-0.000260494
-0.000173145
-0.000369564
-9.87739e-05
-0.000396157
-0.000428876
-0.000382202
-1.50568e-05
-0.000378734
-9.58205e-05
-0.000374494
-0.000134208
-0.000343835
-0.000252913
-0.000308291
-0.000296038
-0.000225938
-0.000451917
-0.000135245
-0.000486849
-0.000564122
-0.000424953
1.03334e-05
-0.000433651
-8.71226e-05
-0.000449253
-0.000118606
-0.000428729
-0.000273438
-0.000411351
-0.000313416
-0.000316558
-0.000546709
-0.000213273
-0.000590135
-0.000777395
-0.000520324
4.1666e-05
-0.000535005
-7.24422e-05
-0.000560369
-9.32419e-05
-0.000549559
-0.000284248
-0.000543135
-0.000319839
-0.000444963
-0.000644881
-0.000329214
-0.000705884
-0.00110661
-0.000543
8.63935e-05
-0.000580651
-3.47906e-05
-0.000644984
-2.89096e-05
-0.000674977
-0.000254255
-0.000738013
-0.000256803
-0.000671807
-0.000711087
-0.000600077
-0.000777613
-0.00170669
-0.000681512
0.000148934
-0.000731374
1.50712e-05
-0.000817441
5.71575e-05
-0.000878634
-0.000193061
-0.000997605
-0.000137832
-0.00100558
-0.000703112
-0.00104236
-0.000740838
-0.00274904
-0.000632891
0.000201677
-0.000702749
8.49287e-05
-0.000830738
0.000185147
-0.000985933
-3.78659e-05
-0.00127847
0.000154705
-0.00148618
-0.000495401
-0.00170943
-0.000517593
-0.00445847
-0.000810997
0.000282627
-0.000904465
0.000178397
-0.00104734
0.000328022
-0.00123049
0.000145281
-0.00149802
0.000422241
-0.00174569
-0.000247731
-0.00163688
-0.000626409
-0.00609535
-0.000613092
0.000283211
-0.000659653
0.000224958
-0.000723116
0.000391485
-0.000937773
0.000359938
-0.00123186
0.000716328
-0.00159674
0.000117144
-0.000844516
-0.00137863
-0.00693986
-0.000848327
0.000342986
-0.000943769
0.000320399
-0.00103613
0.000483847
-0.00122334
0.000547152
-0.00120413
0.000697116
-0.00133471
0.000247725
-0.00019323
-0.00252011
-0.00713309
-0.000323018
0.000165324
-0.000220574
0.000217954
0.000170221
9.3053e-05
0.000480269
0.000237104
0.0012218
-4.44111e-05
0.00188222
-0.000412697
0.00170273
-0.00234062
-0.00543036
0.00767998
0.00789794
0.00799099
0.00822809
0.00818368
0.00777098
0.00543036
-2.00322e-06
2.00322e-06
-3.83926e-06
1.83604e-06
-4.95149e-06
1.11223e-06
-5.2641e-06
3.12603e-07
-4.72576e-06
-5.38339e-07
-3.4985e-06
-1.22726e-06
-1.76622e-06
-1.73228e-06
-1.76622e-06
-2.37494e-06
4.37816e-06
-4.51415e-06
3.97524e-06
-5.77388e-06
2.37196e-06
-6.04229e-06
5.81011e-07
-5.37768e-06
-1.20295e-06
-3.96553e-06
-2.6394e-06
-2.00001e-06
-3.6978e-06
-3.76623e-06
-3.5904e-06
7.96856e-06
-6.68659e-06
7.07144e-06
-8.40043e-06
4.08581e-06
-8.80435e-06
9.84924e-07
-7.78783e-06
-2.21947e-06
-5.70566e-06
-4.72157e-06
-2.86935e-06
-6.53411e-06
-6.63559e-06
-4.3284e-06
1.2297e-05
-7.93607e-06
1.06791e-05
-9.78789e-06
5.93762e-06
-9.91354e-06
1.11058e-06
-8.61577e-06
-3.51724e-06
-6.25736e-06
-7.07998e-06
-3.12781e-06
-9.66366e-06
-9.7634e-06
-8.22239e-06
2.05194e-05
-1.4353e-05
1.68098e-05
-1.69417e-05
8.5263e-06
-1.69917e-05
1.16052e-06
-1.45083e-05
-6.00063e-06
-1.03777e-05
-1.12105e-05
-5.15637e-06
-1.4885e-05
-1.49198e-05
-1.01984e-05
3.07178e-05
-1.74086e-05
2.40199e-05
-2.01179e-05
1.12356e-05
-1.9463e-05
5.05627e-07
-1.63732e-05
-9.09046e-06
-1.16395e-05
-1.59442e-05
-5.75336e-06
-2.07711e-05
-2.06731e-05
-2.28313e-05
5.35491e-05
-3.53504e-05
3.6539e-05
-3.70957e-05
1.29809e-05
-3.43344e-05
-2.25565e-06
-2.78257e-05
-1.55991e-05
-1.92293e-05
-2.45406e-05
-9.40882e-06
-3.05916e-05
-3.0082e-05
-2.91104e-05
-4.24716e-05
-4.34313e-05
-3.91755e-05
-3.14989e-05
-2.17139e-05
-1.05989e-05
)
;

boundaryField
{
    movingWall
    {
        type            calculated;
        value           uniform 0;
    }
    fixedWalls
    {
        type            calculated;
        value           uniform 0;
    }
    frontAndBack
    {
        type            empty;
        value           nonuniform List<scalar> 0();
    }
}


// ************************************************************************* //
