0 	1.40441e-09
1.57135 	3.78885e-07
3.1427 	1.29744e-05
4.71405 	7.62249e-05
6.28539 	0.000262149
7.85674 	0.000686266
9.42809 	0.00151034
10.9994 	0.0029551
12.5708 	0.00530105
14.1421 	0.259894
