/*--------------------------------*- C++ -*----------------------------------*\
  =========                 |
  \\      /  F ield         | OpenFOAM: The Open Source CFD Toolbox
   \\    /   O peration     | Website:  https://openfoam.org
    \\  /    A nd           | Version:  8
     \\/     M anipulation  |
\*---------------------------------------------------------------------------*/
FoamFile
{
    version     2.0;
    format      ascii;
    class       volScalarField;
    location    "60";
    object      p;
}
// * * * * * * * * * * * * * * * * * * * * * * * * * * * * * * * * * * * * * //

dimensions      [0 2 -2 0 0 0 0];

internalField   nonuniform List<scalar> 
2844
(
0.0802248
0.0670447
0.0432557
0.0136238
-0.00819825
-0.0192154
-0.0185396
-0.0126587
-0.00592625
0.0015605
0.0170059
0.0272566
0.0329232
0.034081
0.0332966
0.0326351
0.0288698
0.0223905
0.0169936
0.00662797
0.0880906
0.0734831
0.0470362
0.0127593
-0.0115692
-0.0236856
-0.02155
-0.0135502
-0.0055313
0.00180205
0.017822
0.0311459
0.0342183
0.0332051
0.0334538
0.033478
0.028829
0.022203
0.0194651
0.0080336
0.105311
0.0833487
0.0486159
-0.00446454
-0.035076
-0.0370191
-0.0283159
-0.0216667
-0.0196849
-0.0132037
0.0119211
0.0283948
0.030154
0.0273371
0.031351
0.0330044
0.0285145
0.0247446
0.0232338
0.00750814
0.132404
0.106621
0.0610173
-0.00735185
-0.0563581
-0.0573512
-0.0443363
-0.0255775
-0.0236299
-0.0183959
0.0062205
0.0315031
0.0353746
0.0320824
0.0355989
0.0351917
0.0204797
0.0202587
0.0259721
0.0102484
0.176261
0.135568
0.0631519
-0.070826
-0.113497
-0.0743578
-0.0569623
-0.0457871
-0.0647773
-0.0571447
-0.00856654
0.0202
-0.0248297
-0.0163421
0.00435467
0.0154192
0.00460231
0.030459
0.0322937
0.00661692
0.246121
0.185325
0.0848814
-0.0911942
-0.221475
-0.14481
-0.10085
-0.0443518
-0.119915
-0.0997824
-0.0407053
0.00301971
-0.0050604
-0.0169786
-0.0368335
-0.0306476
-0.0327153
0.0240866
0.0191645
0.00608986
0.337312
0.25037
-0.00693287
-0.255254
-0.308674
-0.181051
-0.158848
-0.094929
-0.232345
-0.132461
-0.087336
-0.130306
-0.183349
-0.231526
-0.243659
-0.116631
-0.0617678
0.0151003
-0.00623754
-0.00157998
0.510614
0.395909
-0.0129103
-0.692538
-0.684407
-0.210089
-0.271126
-0.104303
-0.394128
-0.220152
-0.15391
-0.240638
-0.449532
-0.490241
-0.368794
-0.149185
0.00952893
0.0255448
0.0303287
0.00414262
0.793848
0.607277
0.0548831
-0.185605
-0.270405
-0.636146
-0.220664
-0.255134
-0.253637
-0.190312
-0.302775
-0.294687
-0.145474
-0.0241445
-0.061954
-0.103393
-0.0348446
1.06937
0.852163
1.34351
-0.329208
-0.467164
-0.367989
-0.309396
-0.322627
-0.189743
-0.0294252
-0.15412
-0.171659
-0.111971
-0.0348647
-0.0664511
-0.0279794
-0.0184719
1.58748
0.74828
-0.533458
-0.563223
-0.169236
-0.259448
-0.0922048
-0.155702
-0.180335
-0.214314
-0.170498
-0.192062
-0.10411
-0.0982572
-0.120569
-0.0312044
0.518989
0.222154
0.568919
-0.614713
-0.411864
0.101978
-0.298851
-0.0320785
-0.125512
-0.0435462
-0.0474039
-0.0601529
-0.0613168
-0.116233
-0.0968101
-0.0820712
-0.0300915
0.42905
0.208133
-0.170301
-0.8127
-0.518823
-0.394697
0.115545
0.0239095
-0.00491924
-0.0232016
0.00553958
0.0421193
0.000101833
0.00680619
-0.0168164
-0.105261
-0.0732516
-0.00593184
0.154373
0.0150194
-0.29446
-0.916466
-1.12581
-0.524575
-0.404679
-0.284653
-0.0820341
-0.0782184
0.0242853
0.0551861
0.0390718
0.0143568
0.00815612
-0.0677764
-0.049142
-0.110053
-0.199477
-0.017901
0.0434609
-0.0280517
-0.150038
-0.406928
-0.508228
-0.417695
-0.283764
-0.19758
-0.0674469
-0.0379095
0.02806
0.0714698
0.0750824
0.0827393
0.0968923
0.0148249
-0.0611443
-0.07128
-0.0829967
-0.00340729
-0.0407381
-0.101735
-0.199295
-0.384812
-0.397796
-0.323783
-0.249248
-0.181015
-0.120337
-0.0711619
-0.0233929
0.0166442
0.0498622
0.0437692
0.0497187
0.0507424
0.00858267
-0.0333084
-0.0536882
-0.0157803
-0.0911843
-0.119651
-0.166394
-0.261536
-0.279846
-0.252069
-0.200533
-0.15019
-0.092047
-0.0527066
-0.00525547
0.0306246
0.0498856
0.0681728
0.0745719
0.0614058
0.0557498
0.0547958
0.0307012
0.00127243
-0.121946
-0.145194
-0.185439
-0.250353
-0.258427
-0.236746
-0.196176
-0.153311
-0.112811
-0.0716434
-0.0376691
-0.00613694
0.0231711
0.0376112
0.0511729
0.0553138
0.0504644
0.0410713
0.0356176
0.00774042
-0.138656
-0.151099
-0.173456
-0.21009
-0.217523
-0.205429
-0.175569
-0.137815
-0.0992833
-0.0615172
-0.0256258
0.00339749
0.0252509
0.0430537
0.0507885
0.0512746
0.0508515
0.0465349
0.0363297
0.0120738
-0.146657
-0.15818
-0.178556
-0.207706
-0.21388
-0.203002
-0.175748
-0.141434
-0.105253
-0.0689452
-0.03648
-0.00819586
0.0157681
0.033481
0.0447596
0.0479597
0.0465499
0.0404673
0.0312453
0.0113053
0.080227
0.0670306
0.0432504
0.0136206
-0.00818103
-0.0192015
-0.0185294
-0.012656
-0.00592542
0.00155015
0.017028
0.0272726
0.0329548
0.0341176
0.0333454
0.0326723
0.0288888
0.0223904
0.0169768
0.00662275
0.0881023
0.0734391
0.0470007
0.0127202
-0.0115644
-0.0236308
-0.0215376
-0.0136036
-0.00548185
0.00173036
0.0178072
0.0313237
0.0343481
0.0332536
0.0335671
0.0335212
0.0288725
0.0222004
0.0193792
0.00799985
0.105294
0.0832337
0.0486134
-0.00456391
-0.0350751
-0.0368066
-0.028262
-0.0215771
-0.0197473
-0.0133608
0.0122115
0.0285475
0.0301693
0.027645
0.0321336
0.0332908
0.0285784
0.0248739
0.0232618
0.00743272
0.132333
0.106309
0.0605981
-0.0072862
-0.0567125
-0.0574206
-0.0441569
-0.0268027
-0.0234701
-0.0184291
0.00508058
0.0327967
0.0374564
0.0334415
0.0385479
0.0338304
0.0207453
0.0206019
0.0247308
0.00985992
0.176083
0.13487
0.0624598
-0.0724677
-0.115474
-0.0732599
-0.0564121
-0.0452782
-0.065694
-0.0597063
-0.00638722
0.0193154
-0.0293285
-0.0162894
0.00721895
0.0132602
0.00338595
0.0314714
0.0296138
0.00635165
0.244762
0.183791
0.0797429
-0.0872435
-0.234092
-0.148575
-0.106574
-0.0450077
-0.124624
-0.102844
-0.0499357
-0.00440784
0.00052074
-0.01191
-0.036752
-0.0304775
-0.0331839
0.0265312
0.018156
0.00489117
0.333914
0.253537
-0.0185175
-0.279438
-0.321949
-0.182833
-0.157551
-0.0889756
-0.232492
-0.134402
-0.0917211
-0.133154
-0.179549
-0.244881
-0.258279
-0.119621
-0.0568567
0.0179151
-0.00265491
-0.00085784
0.498761
0.399273
-0.0207986
-0.717063
-0.713669
-0.232774
-0.236788
-0.119037
-0.424074
-0.23141
-0.14954
-0.240299
-0.433506
-0.488505
-0.37715
-0.153098
0.0137659
0.0175802
0.0298654
0.00305695
0.758601
0.544756
0.0947086
-0.178677
-0.292833
-0.658912
-0.249947
-0.25458
-0.262719
-0.197218
-0.306193
-0.309667
-0.163943
-0.0348842
-0.0712009
-0.121382
-0.0409467
1.07809
0.82774
1.47808
-0.328619
-0.508471
-0.393565
-0.313704
-0.336335
-0.228864
-0.0527658
-0.185038
-0.181443
-0.119351
-0.0422744
-0.0642124
-0.0266302
-0.0185653
1.41301
0.662141
-0.537495
-0.579201
-0.184392
-0.28036
-0.118952
-0.193785
-0.212757
-0.230877
-0.177487
-0.187231
-0.103968
-0.109448
-0.133217
-0.0326846
0.471238
0.353892
0.564994
-0.597988
-0.415212
0.108391
-0.307008
-0.0558533
-0.151636
-0.0410829
-0.0491456
-0.0750375
-0.0785112
-0.130206
-0.0975935
-0.0831497
-0.0322209
0.410776
0.197974
-0.222499
-0.806337
-0.533147
-0.378266
0.144336
0.0080609
-0.0293605
-0.0472282
0.00135514
0.0370448
-0.0126783
-0.024535
-0.0493711
-0.114419
-0.0829754
-0.00658287
0.153642
0.0083934
-0.30099
-0.919664
-1.1054
-0.529834
-0.406978
-0.284283
-0.0929176
-0.0813804
0.0221126
0.0573374
0.0462643
0.0163345
0.000644177
-0.0693721
-0.0433085
-0.110129
-0.202763
-0.0209054
0.0427849
-0.030997
-0.148666
-0.423478
-0.489455
-0.4233
-0.286866
-0.201163
-0.0674281
-0.0388343
0.0281715
0.0694941
0.0733259
0.0834074
0.0934104
0.013398
-0.0595799
-0.0605721
-0.0710661
-0.00353498
-0.0404171
-0.102844
-0.198808
-0.382455
-0.397041
-0.324759
-0.249372
-0.178882
-0.120029
-0.0731156
-0.0239376
0.0176588
0.049248
0.0422253
0.0463287
0.0413648
-0.00171609
-0.0365837
-0.0540879
-0.0155975
-0.0912188
-0.119962
-0.16649
-0.262018
-0.279999
-0.251917
-0.201281
-0.150578
-0.0925692
-0.0531012
-0.00571823
0.0307004
0.0499492
0.0653773
0.0729037
0.0599988
0.0526875
0.0511971
0.0295054
0.00246644
-0.121971
-0.145322
-0.185435
-0.250341
-0.258184
-0.236679
-0.19617
-0.153298
-0.112867
-0.0717543
-0.0375044
-0.00622034
0.0231322
0.0376059
0.0505467
0.0538534
0.048236
0.0377777
0.0322897
0.00785229
-0.138652
-0.151135
-0.17347
-0.21013
-0.217522
-0.205439
-0.175578
-0.137791
-0.0993077
-0.0615751
-0.0256395
0.00343694
0.0252525
0.0429662
0.0506999
0.0510206
0.0503231
0.0457971
0.0350186
0.0119396
-0.146657
-0.158184
-0.178563
-0.207696
-0.213869
-0.203001
-0.175748
-0.14143
-0.105258
-0.0689504
-0.0364742
-0.00819614
0.0157697
0.0334773
0.0447085
0.0478797
0.0463703
0.0401465
0.0308222
0.0112213
0.0802295
0.0670194
0.0432386
0.0136179
-0.00813982
-0.0191777
-0.0185112
-0.0126521
-0.00592273
0.00153065
0.0170523
0.027307
0.0330122
0.034188
0.0334244
0.0327328
0.0289204
0.0224005
0.0169702
0.00662224
0.0881232
0.0734159
0.0469425
0.0126629
-0.0115099
-0.0235326
-0.0214676
-0.0135837
-0.0053852
0.00171705
0.017824
0.0314567
0.0345122
0.0333409
0.033593
0.033616
0.0289572
0.0222341
0.0193912
0.00799061
0.105289
0.0831719
0.0484841
-0.00482031
-0.0349173
-0.0364586
-0.0281269
-0.0214591
-0.0198579
-0.0135798
0.0125363
0.0288447
0.0301071
0.0275575
0.0315708
0.033476
0.0288667
0.0251387
0.0234344
0.00742689
0.132382
0.106242
0.0599529
-0.00787066
-0.0563437
-0.0558676
-0.0432292
-0.0259967
-0.022821
-0.0181977
0.00537678
0.0323425
0.0390865
0.0335988
0.0364112
0.0320507
0.02154
0.0208179
0.0243993
0.0100619
0.176025
0.134883
0.0613329
-0.075721
-0.116212
-0.0711278
-0.0534396
-0.0449053
-0.0687137
-0.060852
-0.0028696
0.0182195
-0.0321899
-0.0225135
-0.00138458
0.0116027
0.00383241
0.03139
0.0295259
0.00787561
0.245411
0.184696
0.0727869
-0.0919692
-0.239439
-0.1439
-0.0946972
-0.0391696
-0.112459
-0.106211
-0.0594686
-0.0125575
0.004774
-0.00892196
-0.0352493
-0.0297939
-0.0300202
0.0275743
0.020261
0.00557127
0.334013
0.261333
-0.0138053
-0.285143
-0.334533
-0.174724
-0.151806
-0.084364
-0.206789
-0.121038
-0.089357
-0.140093
-0.166388
-0.237909
-0.261068
-0.116241
-0.0501247
0.0181846
-0.00114268
-0.000407071
0.504923
0.410197
-0.00846972
-0.699538
-0.714293
-0.24828
-0.238441
-0.127539
-0.429033
-0.231198
-0.142694
-0.233452
-0.420942
-0.465318
-0.377945
-0.149794
0.0133375
0.0114564
0.0226031
0.00129242
0.753367
0.552514
0.0866318
-0.170507
-0.281134
-0.661989
-0.265211
-0.238758
-0.265402
-0.197342
-0.303063
-0.304327
-0.164499
-0.0375345
-0.065695
-0.0993627
-0.0394007
1.05576
0.853715
1.16018
-0.331
-0.44332
-0.411483
-0.336756
-0.294704
-0.219913
-0.0719551
-0.17496
-0.163385
-0.117605
-0.0438834
-0.0542235
-0.00902863
-0.00842325
1.48975
0.547525
-0.547646
-0.549781
-0.173657
-0.26408
-0.0890296
-0.204251
-0.214657
-0.204431
-0.172935
-0.176528
-0.0985647
-0.11171
-0.12783
-0.0314857
0.497635
0.562191
0.706194
-0.597538
-0.39123
0.12581
-0.26706
-0.0667534
-0.169376
-0.0327768
-0.0371859
-0.0752203
-0.0718994
-0.118662
-0.0925926
-0.0855297
-0.0365105
0.405719
0.184452
-0.202333
-0.768573
-0.532469
-0.357044
0.181938
0.0546316
-0.0146642
-0.0276221
0.0309142
0.0396637
-0.0141656
-0.014792
-0.0286226
-0.110655
-0.0783127
-0.00369075
0.150265
0.0187379
-0.303861
-0.937799
-1.1084
-0.538661
-0.399912
-0.286576
-0.093385
-0.0699632
0.0448755
0.0825303
0.0493331
0.016546
0.00542451
-0.054903
-0.0298982
-0.108853
-0.204562
-0.0213917
0.0424809
-0.0292237
-0.148785
-0.415831
-0.477271
-0.426798
-0.285075
-0.19601
-0.0610518
-0.0379555
0.0303056
0.0807993
0.0723473
0.084262
0.103696
0.02183
-0.0528707
-0.0475474
-0.0616337
-0.00369092
-0.0403786
-0.102499
-0.197328
-0.378362
-0.396349
-0.324624
-0.247744
-0.174547
-0.116606
-0.072588
-0.0226542
0.0188181
0.0486943
0.0461859
0.0481588
0.0468558
0.00447701
-0.0318282
-0.0548017
-0.0143966
-0.0912737
-0.119969
-0.166515
-0.262758
-0.279116
-0.25086
-0.200706
-0.150581
-0.0923599
-0.0528615
-0.0058453
0.0312525
0.0512798
0.0656705
0.0730292
0.0595645
0.0528719
0.050928
0.0288917
0.00349535
-0.122006
-0.145429
-0.18554
-0.250245
-0.257323
-0.236362
-0.195956
-0.153192
-0.112891
-0.0715875
-0.0370459
-0.0061891
0.0231152
0.0378693
0.0504056
0.0531916
0.0478819
0.0372673
0.0304921
0.00788804
-0.138646
-0.151158
-0.173504
-0.210162
-0.21746
-0.205345
-0.175582
-0.137733
-0.0993027
-0.0615627
-0.025735
0.00348982
0.0253259
0.0429145
0.0507463
0.0509924
0.0502105
0.0457072
0.0346886
0.0119813
-0.146659
-0.158189
-0.178582
-0.207667
-0.213821
-0.202989
-0.175743
-0.141426
-0.105259
-0.0689454
-0.0364581
-0.00819687
0.01577
0.0334808
0.0446935
0.04784
0.0463236
0.0400611
0.0306806
0.0112109
-0.350307
0.0156999
-0.932076
-0.0328379
-0.376453
-0.0200541
-0.932984
-0.829222
-0.71866
-0.829817
-0.344864
-0.708676
-0.349798
-0.239559
-0.195658
-0.328057
-0.222514
-0.226649
-0.20651
-0.325938
0.392319
0.770256
1.0341
0.581448
0.367721
0.782931
0.974465
0.89387
0.0864859
0.782869
-0.286575
-0.315533
-0.274807
-0.31468
-0.191377
-0.306254
-0.384788
-0.186331
-0.195526
-0.311646
-0.395613
0.982008
0.735669
1.23021
0.83963
1.17126
0.695006
1.14879
1.53966
-0.311998
-0.312115
-0.375136
-0.464434
-0.460025
-0.328642
-0.37683
-0.46311
-0.45598
1.4387
0.645751
1.639
0.713497
1.62313
0.630584
1.41555
1.60158
1.5023
-0.619704
-0.62318
-0.693304
-0.599551
-0.692095
-0.535728
-0.700169
-0.601979
-0.702061
0.720154
0.234369
0.471321
0.255572
0.719426
0.233484
0.424701
-0.0722367
0.556886
-0.111662
-0.677154
-0.74998
-0.679121
-0.761532
-0.830708
-0.640671
-0.771893
-0.612605
-0.827419
-0.642897
-0.763486
-1.20239
-0.148324
-0.473931
-0.208758
-1.23661
-0.159298
-0.514978
-1.11024
-1.3496
-1.12194
-1.35816
-1.26366
-0.923153
-1.27916
-0.932189
-0.800656
-0.712664
-0.717714
-0.809746
-0.798754
-0.731233
-0.715841
-0.361266
-0.00749161
-0.94077
-0.0134265
-0.339549
-0.0210817
-0.98914
-0.820637
-0.700194
-0.791939
-0.349215
-0.713874
-0.350016
-0.221658
-0.213803
-0.333588
-0.239816
-0.21559
-0.236915
-0.324173
0.473387
0.780171
0.990688
0.528223
0.467731
0.737398
1.00998
0.72616
0.0827863
0.773118
-0.268008
-0.314032
-0.250376
-0.311199
-0.20054
-0.318542
-0.408539
-0.175491
-0.22271
-0.326972
-0.43265
1.19393
0.742891
1.13106
0.832221
1.09868
0.814422
1.11757
1.2656
-0.312564
-0.316159
-0.387389
-0.462119
-0.45431
-0.328753
-0.405649
-0.456764
-0.44277
1.61182
0.651548
1.41411
0.504893
1.27362
0.691094
1.39907
1.55956
1.65841
-0.625526
-0.629974
-0.707337
-0.603177
-0.7081
-0.545084
-0.704362
-0.604576
-0.708621
0.724137
0.236889
0.41115
0.447931
0.772301
0.243251
0.43755
-0.12034
0.664047
-0.0904412
-0.67984
-0.766946
-0.674928
-0.77527
-0.828692
-0.633112
-0.757631
-0.599678
-0.822821
-0.61927
-0.738068
-1.26007
-0.172566
-0.567176
-0.212874
-1.3287
-0.18758
-0.605369
-1.12413
-1.35887
-1.11066
-1.346
-1.28206
-0.933907
-1.27867
-0.937377
-0.802994
-0.735214
-0.720191
-0.780091
-0.817004
-0.74869
-0.718998
-0.337592
-0.0403004
-0.986604
-0.0264201
-0.328937
-0.0661757
-0.958149
-0.787267
-0.681644
-0.771064
-0.35081
-0.699017
-0.343743
-0.202344
-0.240762
-0.294773
-0.231057
-0.200529
-0.246165
-0.279969
0.539723
0.739379
1.0219
0.609764
0.557268
0.82133
1.0933
0.808262
0.119263
0.943275
-0.243157
-0.308953
-0.197299
-0.300881
-0.23861
-0.330661
-0.453512
-0.156039
-0.214711
-0.334531
-0.414827
1.06448
0.849473
1.13764
0.925177
1.054
0.860246
1.15936
1.1999
-0.319134
-0.329312
-0.407513
-0.455064
-0.433421
-0.338828
-0.398103
-0.452728
-0.427433
1.37257
0.818421
1.37956
0.560571
1.56148
0.801107
1.33867
1.5871
1.42643
-0.62975
-0.627453
-0.702025
-0.604143
-0.695838
-0.551384
-0.695738
-0.602061
-0.691316
0.754733
0.261241
0.443944
0.626284
0.732585
0.272984
0.449035
-0.0636148
0.815926
-0.00919785
-0.674119
-0.774054
-0.667989
-0.766761
-0.816597
-0.605571
-0.735356
-0.589511
-0.809434
-0.592384
-0.724131
-1.34036
-0.198431
-0.625412
-0.178756
-1.36328
-0.194545
-0.628838
-1.10488
-1.3365
-1.07383
-1.30041
-1.27456
-0.93596
-1.2306
-0.932846
-0.82721
-0.761327
-0.718967
-0.748277
-0.830797
-0.760325
-0.710181
-0.345381
-0.381474
-0.598671
-0.269393
-0.35295
-0.411245
-0.612885
-0.24322
-0.637485
-0.424397
-0.313989
-0.247174
-0.645764
-0.420783
-1.13178
-0.809189
-0.916707
-0.715846
-0.824869
-0.950209
-1.10454
-0.820878
-0.583265
-1.14744
-0.694322
-0.591134
-1.163
-0.813353
-0.272127
-0.168922
0.136095
0.0494393
-0.178842
0.111524
-0.282879
-0.199207
-0.20162
1.31147
-0.405061
-0.356505
-0.386455
-0.328664
-0.357515
-0.386209
-0.403624
-0.562138
-0.546693
-0.547036
-0.533976
-0.547592
-0.547141
-0.561855
0.33644
0.597126
0.313989
-2.07715
-1.55018
-1.55781
-2.06912
-0.895717
-0.857691
-0.808503
-0.812079
-0.855189
-0.808763
-0.895982
-1.06405
-0.738946
-0.808372
-0.918799
-1.07646
-0.743376
-0.808115
-0.912607
-0.775922
-0.686988
-1.13089
-0.906456
-0.774981
-0.687294
-0.359154
-0.41902
-0.617557
-0.286482
-0.36312
-0.41343
-0.617145
-0.253633
-0.650894
-0.418123
-0.3265
-0.255428
-0.654576
-0.418946
-1.17252
-0.830173
-0.936296
-0.709349
-1.18156
-0.821702
-0.9154
-0.855756
-0.609274
-1.20864
-0.716044
-0.850083
-0.615366
-1.21492
-0.239091
-0.171739
0.131788
0.0857
-0.228117
-0.179346
0.130021
-0.218145
-0.225285
1.38755
-0.424684
-0.367126
-0.385574
-0.328598
-0.418972
-0.370811
-0.384586
-0.569975
-0.558796
-0.549715
-0.539773
-0.56875
-0.56221
-0.550152
0.266118
0.594089
0.260649
-2.10228
-1.60963
-2.09984
-1.6191
-0.895072
-0.848582
-0.803689
-0.800345
-0.897003
-0.845585
-0.79775
-1.08474
-0.742233
-0.803038
-0.922546
-1.08202
-0.747111
-0.814554
-0.895274
-0.764931
-0.67588
-1.10141
-0.890266
-0.752574
-0.689323
-0.362593
-0.399161
-0.614754
-0.292152
-0.364596
-0.400307
-0.615601
-0.258674
-0.659122
-0.420822
-0.337053
-0.259102
-0.658928
-0.425602
-1.12604
-0.801198
-0.889075
-0.700897
-1.13345
-0.796202
-0.890235
-0.862801
-0.626378
-1.21713
-0.711301
-0.860944
-0.628049
-1.21458
-0.334847
-0.233908
0.173101
0.0890695
-0.296852
-0.241947
0.172628
-0.208976
-0.18867
1.08163
-0.451331
-0.389137
-0.378125
-0.333217
-0.447364
-0.391453
-0.375344
-0.570647
-0.56978
-0.549936
-0.549812
-0.572123
-0.569342
-0.54966
0.263794
0.744886
0.268312
-2.08403
-1.60646
-2.08315
-1.60561
-0.880109
-0.827109
-0.772956
-0.758745
-0.884545
-0.820927
-0.766832
-1.07597
-0.749136
-0.810563
-0.92978
-1.06104
-0.742585
-0.799592
-0.870321
-0.739082
-0.67276
-1.09116
-0.862896
-0.728929
-0.67653
-0.494823
-0.85067
-0.514275
-0.932739
-0.849438
-0.537837
-0.489029
-0.476067
-0.928762
-0.808509
-0.529404
-0.830322
-0.54018
-0.456201
-1.29129
-0.91044
-1.26464
-0.83654
-0.913616
-1.28084
-1.28086
-1.54279
-1.13341
-1.16963
-1.51954
-1.15669
-0.718243
-0.832774
-0.949163
-0.827217
-0.944172
-1.17906
-1.29174
-0.832229
-0.88916
-1.30564
-0.897828
-1.29642
-1.28256
-1.55856
-1.18683
-1.18792
-1.54807
-0.515507
-0.462812
-0.306059
-0.34719
-0.467947
-0.305829
-0.511635
-0.545454
-0.254699
-0.2601
-0.53284
-0.831241
-0.699973
-0.602933
-1.19698
-0.593637
-1.17957
-0.841168
-0.523977
-0.347135
-0.466295
-0.314548
-0.462608
-0.310668
-0.535964
-0.562367
-0.288932
-0.272006
-0.586797
-0.159782
-0.160358
-0.187182
-0.197473
-0.158542
-0.190105
-0.160277
-0.159654
-0.201067
-0.154852
-0.201419
-0.155177
-0.196586
-0.160718
-0.415194
-0.432048
0.498944
0.82151
0.453724
-0.211636
0.0657123
-0.178699
0.110999
-0.180516
0.0988607
-0.215326
-0.483015
-0.457974
0.819193
0.414103
0.432894
-0.25499
-0.196694
-0.273769
-0.284724
-0.19974
-0.27442
-0.255435
-0.274567
-0.315561
-0.274062
-0.210969
-0.205277
-0.254526
-0.280332
-0.208898
-0.275257
-0.204025
-0.275119
-0.253812
-0.315346
-0.272244
-0.273482
0.864062
0.922244
1.61916
0.952529
0.916454
1.64063
0.795087
0.483302
1.29624
0.47403
1.19369
1.28827
0.458734
0.477761
0.868794
1.07124
0.952169
1.55256
0.92831
1.66899
0.816012
0.486084
1.16264
1.20772
0.437442
1.21139
0.439884
0.489346
1.46063
-0.311769
-0.311895
-0.430454
-0.409128
-0.473403
-0.464288
-0.408746
-0.473443
-0.430163
-0.407969
-0.328634
-0.362462
-0.385919
-0.359644
-0.38616
-0.412021
-0.430649
-0.463858
-0.407098
-0.472145
-0.408023
-0.473028
-0.431129
0.413291
0.393192
1.16404
1.37319
0.361265
1.11786
0.439083
0.358769
1.27558
0.557172
1.56684
1.24548
0.458194
0.430658
0.441755
1.51015
0.630719
1.22205
0.445298
1.13128
0.48281
0.325319
1.48097
1.12476
0.386751
1.17287
0.398854
0.285069
1.52884
1.49197
-0.620171
-0.621431
-0.587516
-0.573503
-0.597352
-0.600091
-0.574058
-0.598375
-0.586539
-0.563656
-0.534932
-0.553999
-0.548893
-0.550509
-0.547765
-0.565198
-0.590039
-0.600994
-0.576707
-0.603197
-0.575256
-0.600712
-0.592921
-0.654523
0.237942
-0.617081
-0.076642
0.204965
-0.615178
-0.662884
-0.791183
-0.78703
0.602529
0.268131
0.293707
-0.652489
-0.0872216
0.132058
-0.58304
0.172497
-0.601229
-0.653587
-0.769435
-0.77316
-0.695449
-0.677552
-0.696124
-0.827071
-0.827271
-0.753132
-0.714644
-0.787032
-0.752368
-0.716483
-0.787669
-0.749512
-0.678564
-0.698297
-0.697506
-0.825669
-0.82766
-0.759394
-0.756902
-0.724518
-0.790435
-0.720505
-0.788811
-0.766834
-0.709041
-0.752234
-1.14068
-1.20965
-0.766024
-1.13888
-0.708433
-0.718174
-1.21988
-0.82177
-1.12878
-0.793792
-1.13833
-0.716318
-1.60372
-1.14884
-1.34605
-1.11696
-1.16543
-1.34722
-1.59207
-1.82231
-1.95463
-1.43652
-1.3555
-1.96128
-1.43698
-1.81713
-2.08255
-1.5933
-1.57392
-2.09184
-1.61363
-1.12316
-1.21228
-1.34183
-1.19021
-1.34763
-1.62838
-1.8229
-1.35866
-1.96469
-1.42626
-1.96257
-1.43435
-1.82164
-1.34642
-1.06049
-1.06616
-1.34367
-1.55592
-1.84545
-1.21738
-1.27158
-1.85523
-1.22008
-1.55163
-1.24183
-1.02118
-1.14161
-0.927417
-1.02356
-1.14245
-1.24102
-1.34783
-1.08324
-1.07351
-1.35459
-1.55764
-1.27802
-1.86543
-1.21117
-1.86046
-1.2181
-1.55847
-1.24274
-0.929644
-1.02605
-1.12315
-1.02492
-1.13292
-1.24254
-0.897173
-0.810436
-0.850071
-0.807499
-0.852768
-0.808781
-0.897502
-0.431038
-0.783537
-0.514488
-0.958909
-0.440055
-0.762767
-0.503236
-0.42783
-0.97486
-0.738144
-0.495308
-0.747383
-0.492581
-0.431247
-1.24626
-0.87081
-1.30719
-0.809128
-1.26475
-0.853144
-1.30284
-1.4881
-1.16643
-1.51749
-1.14471
-1.15966
-0.706129
-0.805971
-0.890925
-0.814625
-0.902146
-1.14399
-1.23231
-0.802357
-0.831079
-1.29305
-0.843382
-1.29628
-1.22685
-1.47135
-1.13796
-1.13267
-1.48963
-0.551416
-0.465843
-0.323584
-0.349467
-0.544609
-0.466255
-0.332076
-0.623448
-0.309868
-0.606763
-0.32789
-0.858507
-0.716867
-0.623075
-1.21671
-0.620136
-1.21677
-0.859896
-0.55686
-0.350183
-0.470012
-0.34492
-0.469402
-0.339471
-0.560233
-0.63351
-0.353933
-0.343219
-0.638966
-0.170606
-0.158118
-0.208679
-0.222756
-0.164057
-0.168111
-0.213995
-0.179086
-0.230605
-0.192259
-0.217168
-0.179814
-0.21935
-0.181005
-0.496858
-0.511756
0.398739
0.722903
0.407238
-0.249682
0.0838031
-0.213354
0.152235
-0.192827
0.141151
-0.265395
-0.508097
-0.517173
0.741112
0.449383
0.425211
-0.250608
-0.213049
-0.278964
-0.260009
-0.252673
-0.215363
-0.277853
-0.2712
-0.313238
-0.270149
-0.222724
-0.228053
-0.248371
-0.255003
-0.196273
-0.282658
-0.21001
-0.281189
-0.245696
-0.312444
-0.26936
-0.270035
0.821002
0.944365
1.40952
1.16345
0.781555
0.91493
1.35464
0.468834
1.18754
0.46723
1.10702
0.491141
1.16642
0.460217
0.909011
1.1303
0.874104
1.35415
0.898374
1.34201
0.968279
0.448706
1.09861
1.12175
0.453649
1.14766
0.458531
0.448866
1.29802
-0.313182
-0.314332
-0.433632
-0.405986
-0.47124
-0.460681
-0.432661
-0.404352
-0.469934
-0.432794
-0.328602
-0.381064
-0.380878
-0.376097
-0.383069
-0.439566
-0.434377
-0.458679
-0.400425
-0.468319
-0.402082
-0.468192
-0.436564
0.338819
0.641441
1.29089
1.50626
0.451718
0.504464
1.33542
0.420433
1.14887
0.546867
1.40611
0.345517
1.22453
0.704961
0.207324
1.29862
0.425425
1.14609
0.412135
1.24599
0.195693
0.495831
1.39498
1.41828
0.985578
1.31001
0.844167
0.62275
1.6112
1.63771
-0.627599
-0.629378
-0.599031
-0.57854
-0.606715
-0.604005
-0.597312
-0.580228
-0.607683
-0.57148
-0.542356
-0.567933
-0.550196
-0.565761
-0.550275
-0.571421
-0.601537
-0.604562
-0.583123
-0.608241
-0.581784
-0.609495
-0.601469
-0.645481
0.100267
-0.55563
-0.113381
-0.64904
0.078699
-0.533825
-0.751141
-0.729621
0.626257
0.258886
0.258742
-0.636433
-0.0979477
0.0537286
-0.497508
0.063598
-0.514742
-0.62997
-0.677753
-0.703336
-0.700331
-0.678585
-0.699624
-0.82698
-0.829435
-0.782866
-0.729666
-0.796224
-0.770777
-0.774563
-0.732426
-0.807067
-0.67856
-0.696581
-0.700841
-0.826509
-0.830358
-0.791159
-0.773504
-0.733767
-0.829072
-0.733754
-0.819684
-0.797995
-0.724206
-0.852707
-1.11535
-1.28828
-0.722698
-0.873032
-1.09884
-0.721179
-1.31069
-0.880969
-1.0717
-0.87839
-1.08273
-0.715933
-1.65892
-1.23445
-1.33701
-1.1202
-1.64927
-1.24841
-1.32567
-1.81653
-1.96844
-1.41928
-1.35736
-1.81933
-1.97142
-1.40941
-2.09805
-1.61078
-1.61837
-2.09195
-1.66
-1.1152
-1.252
-1.29717
-1.25396
-1.3115
-1.6511
-1.81419
-1.35271
-1.96786
-1.38689
-1.97243
-1.39762
-1.81202
-1.36821
-1.09468
-1.36035
-1.10617
-1.55855
-1.87099
-1.20455
-1.28087
-1.56034
-1.87756
-1.19281
-1.23782
-1.02778
-1.11059
-0.932994
-1.24031
-1.02521
-1.09441
-1.37013
-1.12986
-1.11815
-1.37321
-1.55375
-1.28219
-1.87936
-1.16601
-1.88177
-1.18176
-1.54318
-1.23636
-0.932786
-1.04387
-1.05915
-1.02962
-1.07726
-1.2362
-0.8918
-0.791206
-0.833712
-0.78132
-0.840715
-0.789788
-0.887761
-0.451893
-0.735333
-0.509964
-0.973891
-0.439649
-0.735781
-0.544984
-0.463176
-0.962296
-0.742065
-0.576023
-0.741793
-0.569046
-0.463059
-1.23268
-0.82383
-1.29379
-0.782982
-1.2289
-0.818576
-1.29608
-1.54312
-1.15909
-1.5205
-1.17273
-1.12185
-0.696251
-0.785713
-0.872577
-0.795367
-0.889223
-1.10643
-1.23883
-0.780113
-0.80701
-1.2931
-0.815349
-1.29837
-1.23695
-1.55711
-1.18835
-1.18613
-1.55614
-0.563151
-0.472088
-0.345549
-0.348537
-0.563529
-0.473059
-0.344794
-0.650584
-0.357529
-0.648207
-0.356695
-0.864072
-0.708414
-0.62751
-1.20782
-0.629846
-1.21721
-0.864478
-0.564021
-0.348484
-0.477332
-0.340059
-0.478438
-0.341363
-0.563994
-0.655926
-0.343204
-0.350135
-0.65364
-0.168425
-0.204252
-0.211631
-0.242765
-0.178488
-0.212984
-0.201876
-0.152114
-0.244462
-0.22354
-0.170566
-0.220017
-0.186422
-0.132967
-0.486848
-0.455601
0.473579
0.85135
0.45636
-0.320055
0.102038
-0.225612
0.194579
-0.232249
0.18016
-0.312686
-0.408004
-0.418338
0.908933
0.459447
0.461787
-0.238958
-0.173534
-0.281817
-0.235477
-0.242566
-0.14711
-0.283209
-0.269775
-0.307329
-0.271828
-0.154007
-0.167958
-0.233389
-0.211299
-0.110004
-0.26286
-0.1231
-0.26929
-0.230058
-0.302776
-0.271316
-0.27144
0.977694
0.867965
1.34581
1.01224
0.99749
0.881345
1.30993
0.523805
1.08972
0.42499
1.14136
0.471083
1.09471
0.382828
1.01285
0.974212
0.96042
1.31591
0.927996
1.27609
1.05876
0.585614
1.15335
1.20175
0.402996
1.14637
0.385228
0.603826
1.11466
-0.322921
-0.327197
-0.443218
-0.399338
-0.46931
-0.453756
-0.438478
-0.399654
-0.471719
-0.458467
-0.336915
-0.397966
-0.371357
-0.399689
-0.3722
-0.456946
-0.450161
-0.45309
-0.402546
-0.47693
-0.401494
-0.475582
-0.452121
0.291167
0.415446
1.12145
1.46583
0.169111
0.461303
1.18046
0.71637
1.46974
1.02595
1.36749
0.663626
1.4619
1.08684
0.303013
1.52663
0.502848
1.26007
0.521401
1.23285
0.299602
0.677596
1.34153
1.47154
1.0774
1.45798
1.08036
0.656094
1.51336
1.4656
-0.628465
-0.627966
-0.599016
-0.584244
-0.607417
-0.603615
-0.60198
-0.585245
-0.603614
-0.570339
-0.550685
-0.568182
-0.549395
-0.568923
-0.549284
-0.569419
-0.598317
-0.602685
-0.585921
-0.599502
-0.585701
-0.601627
-0.596669
-0.630172
0.0480231
-0.47788
-0.0419395
-0.623766
0.0458373
-0.465187
-0.65714
-0.646782
0.781855
0.274708
0.270259
-0.645616
-0.0246292
0.0306147
-0.456309
0.0231877
-0.462465
-0.649376
-0.662034
-0.662434
-0.694928
-0.670673
-0.686073
-0.816733
-0.802803
-0.807064
-0.730011
-0.83402
-0.772676
-0.803309
-0.725481
-0.834912
-0.670139
-0.678715
-0.684226
-0.777211
-0.786525
-0.809459
-0.769504
-0.71684
-0.831795
-0.719754
-0.833926
-0.810279
-0.713944
-0.878518
-1.0687
-1.34944
-0.713761
-0.875313
-1.069
-0.715468
-1.36097
-0.858798
-1.06799
-0.86591
-1.07089
-0.713024
-1.64108
-1.25425
-1.28372
-1.0924
-1.64647
-1.25462
-1.27022
-1.81142
-1.96053
-1.37939
-1.32372
-1.81193
-1.9521
-1.37283
-2.08049
-1.59714
-1.60317
-2.07682
-1.64332
-1.08385
-1.25491
-1.25065
-1.25826
-1.26238
-1.63578
-1.81039
-1.31636
-1.9288
-1.36606
-1.94252
-1.37543
-1.80426
-1.38274
-1.14072
-1.37748
-1.1491
-1.51939
-1.87361
-1.15045
-1.25928
-1.5295
-1.86558
-1.13165
-1.23766
-1.05127
-1.03971
-0.937612
-1.23713
-1.06122
-1.02543
-1.38639
-1.15734
-1.15571
-1.38591
-1.51419
-1.2468
-1.84315
-1.10965
-1.85647
-1.1211
-1.50861
-1.23793
-0.934407
-1.06965
-1.00924
-1.06817
-1.01624
-1.23753
-0.873381
-0.751891
-0.814479
-0.757805
-0.815739
-0.757812
-0.872208
)
;

boundaryField
{
    inlet
    {
        type            zeroGradient;
    }
    outlet
    {
        type            fixedValue;
        value           uniform 0;
    }
    up
    {
        type            zeroGradient;
    }
    down
    {
        type            zeroGradient;
    }
    frontAndBack
    {
        type            zeroGradient;
    }
    cylinder
    {
        type            zeroGradient;
    }
}


// ************************************************************************* //
