/*--------------------------------*- C++ -*----------------------------------*\
  =========                 |
  \\      /  F ield         | OpenFOAM: The Open Source CFD Toolbox
   \\    /   O peration     | Website:  https://openfoam.org
    \\  /    A nd           | Version:  8
     \\/     M anipulation  |
\*---------------------------------------------------------------------------*/
FoamFile
{
    version     2.0;
    format      ascii;
    class       surfaceScalarField;
    location    "52";
    object      phi;
}
// * * * * * * * * * * * * * * * * * * * * * * * * * * * * * * * * * * * * * //

dimensions      [0 3 -1 0 0 0 0];

internalField   nonuniform List<scalar> 
208
(
1.93036e-05
-1.93036e-05
3.36984e-05
-1.43947e-05
3.40139e-05
-3.15562e-07
1.06656e-05
2.33484e-05
-6.90016e-05
7.96672e-05
7.40712e-05
-0.000143073
2.45283e-06
-2.17565e-05
-1.18181e-05
-1.23856e-07
-5.43846e-05
4.22509e-05
-0.000108834
7.77983e-05
-0.000138009
0.000108842
7.36769e-05
-0.000137615
-1.71479e-05
-4.60855e-06
-4.71405e-05
2.98687e-05
-8.04619e-05
7.55724e-05
-0.000107723
0.000105059
-0.000113992
0.000115111
5.69776e-05
-9.72926e-05
-2.21481e-05
1.75395e-05
-4.61448e-05
5.38654e-05
-6.94595e-05
9.88871e-05
-8.08527e-05
0.000116452
-7.17983e-05
0.000106056
3.64039e-05
-5.12246e-05
-1.57616e-05
3.33011e-05
-3.48183e-05
7.29222e-05
-4.60826e-05
0.000110151
-4.5126e-05
0.000115496
-3.35503e-05
9.44807e-05
3.05779e-05
-2.77243e-05
-7.00238e-06
4.03035e-05
-1.02144e-05
7.61342e-05
-9.02234e-06
0.000108959
-6.43248e-06
0.000112906
-1.44689e-06
8.94951e-05
3.54719e-05
-6.34082e-06
2.24176e-06
3.80617e-05
3.02348e-06
7.53524e-05
1.10777e-05
0.000100905
2.38092e-05
0.000100175
3.65761e-05
7.67282e-05
3.7549e-05
3.44989e-05
1.04293e-05
2.76324e-05
2.63103e-05
5.94715e-05
5.20244e-05
7.5191e-05
7.13752e-05
8.08237e-05
8.60714e-05
6.2032e-05
4.03051e-05
8.33153e-05
-3.71689e-05
6.48013e-05
-1.53946e-05
3.76971e-05
1.57857e-05
4.40107e-05
5.12499e-05
4.53596e-05
7.78799e-05
3.5402e-05
2.65526e-05
9.16325e-05
6.48013e-05
0.000102498
0.000146509
0.000191869
0.000227271
0.000253823
-0.000117246
9.81865e-05
-0.000124013
-6.86646e-05
-5.08769e-05
2.29513e-06
-2.04319e-05
-3.82393e-05
-9.99338e-06
-0.000152143
0.000131711
-0.000112578
7.315e-05
-9.7931e-05
-6.55242e-05
-4.2076e-05
-9.40943e-05
-0.000194219
-6.62048e-05
4.20623e-05
-6.48028e-05
-6.69263e-05
-3.84599e-05
-0.000120437
-0.000232679
-2.76688e-05
1.85065e-05
-2.79198e-05
-6.66752e-05
-1.9914e-05
-0.000128443
-0.000252593
-1.35587e-05
4.34088e-06
-1.66802e-05
-6.35537e-05
-1.527e-05
-0.000129853
-0.000267863
6.96799e-06
-8.96793e-06
2.73337e-06
-5.93191e-05
-3.7322e-06
-0.000123388
-0.000271595
3.53371e-05
-9.80615e-06
1.53141e-05
-3.92961e-05
1.81605e-06
-0.000109889
-0.000269779
7.11088e-05
2.40027e-06
4.30766e-05
-1.12638e-05
2.75706e-05
-9.43835e-05
-0.000242209
8.80222e-05
6.0106e-06
8.50317e-05
-8.27337e-06
6.93722e-05
-7.87239e-05
-0.000172837
0.000259834
0.00025156
0.000172837
-3.95362e-05
3.95362e-05
-6.42285e-05
2.46922e-05
-6.00787e-05
-4.14975e-06
-6.00787e-05
-3.39798e-05
7.35161e-05
-4.27459e-05
3.34583e-05
-4.44399e-05
-2.45574e-06
-0.000104519
-2.18749e-05
9.53909e-05
-9.18749e-06
2.07709e-05
-2.39454e-05
1.23021e-05
-0.000128464
-2.86221e-05
-5.55602e-06
-3.24728e-06
)
;

boundaryField
{
    movingWall
    {
        type            calculated;
        value           uniform 0;
    }
    fixedWalls
    {
        type            calculated;
        value           uniform 0;
    }
    frontAndBack
    {
        type            empty;
        value           nonuniform List<scalar> 0();
    }
}


// ************************************************************************* //
