/*--------------------------------*- C++ -*----------------------------------*\
  =========                 |
  \\      /  F ield         | OpenFOAM: The Open Source CFD Toolbox
   \\    /   O peration     | Website:  https://openfoam.org
    \\  /    A nd           | Version:  8
     \\/     M anipulation  |
\*---------------------------------------------------------------------------*/
FoamFile
{
    version     2.0;
    format      ascii;
    class       volVectorField;
    location    "64";
    object      U;
}
// * * * * * * * * * * * * * * * * * * * * * * * * * * * * * * * * * * * * * //

dimensions      [0 1 -1 0 0 0 0];

internalField   nonuniform List<vector> 
400
(
(1 1.04065e-16 0)
(1 8.49845e-17 0)
(1 1.18163e-17 0)
(1 2.14236e-17 0)
(1 4.74343e-17 0)
(1 1.02864e-16 0)
(1 8.09984e-17 0)
(1 8.74752e-17 0)
(1 1.11916e-16 0)
(1 4.17021e-17 0)
(1 -1.0143e-17 0)
(1 -5.85427e-17 0)
(1 -1.70803e-16 0)
(1 -2.47055e-16 0)
(1 -2.37385e-16 0)
(1 -3.03384e-16 0)
(1 -3.38896e-16 0)
(1 -4.19933e-16 0)
(1 -5.87782e-16 0)
(1 -7.10852e-16 0)
(1 1.36789e-16 0)
(1 1.1465e-16 0)
(1 6.3593e-18 0)
(1 -1.29022e-17 0)
(1 1.5676e-17 0)
(1 1.59163e-16 0)
(1 9.05696e-17 0)
(1 7.43259e-18 0)
(1 1.49972e-16 0)
(1 5.55328e-17 0)
(1 -7.74383e-17 0)
(1 -1.40477e-16 0)
(1 -1.75557e-16 0)
(1 -2.31738e-16 0)
(1 -1.90191e-16 0)
(1 -2.96079e-16 0)
(1 -3.93757e-16 0)
(1 -4.82917e-16 0)
(1 -6.22343e-16 0)
(1 -7.36274e-16 0)
(1 4.95018e-17 0)
(1 8.08166e-17 0)
(1 1.10711e-16 0)
(1 8.2298e-17 0)
(1 2.46136e-17 0)
(1 6.53956e-17 0)
(1 8.8722e-17 0)
(1 2.10374e-17 0)
(1 1.45919e-16 0)
(1 8.79673e-17 0)
(1 -7.46147e-17 0)
(1 -1.45735e-16 0)
(1 -1.53377e-16 0)
(1 -1.9081e-16 0)
(1 -2.32965e-16 0)
(1 -3.39266e-16 0)
(1 -4.34393e-16 0)
(1 -5.48104e-16 0)
(1 -6.67183e-16 0)
(1 -7.8049e-16 0)
(1 -4.08711e-17 0)
(1 7.38143e-17 0)
(1 1.94507e-16 0)
(1 1.29806e-16 0)
(1 6.32103e-17 0)
(1 1.00797e-17 0)
(1 4.34467e-17 0)
(1 5.35013e-17 0)
(1 9.94392e-18 0)
(1 6.44097e-17 0)
(1 -4.20714e-17 0)
(1 -5.18378e-17 0)
(1 -1.33406e-16 0)
(1 -2.14049e-16 0)
(1 -2.87359e-16 0)
(1 -3.66375e-16 0)
(1 -4.58688e-16 0)
(1 -6.03159e-16 0)
(1 -7.1137e-16 0)
(1 -7.96256e-16 0)
(1 -2.78134e-17 0)
(1 7.10169e-17 0)
(1 1.27401e-16 0)
(1 1.44666e-16 0)
(1 4.77152e-17 0)
(1 3.42415e-17 0)
(1 -1.20813e-18 0)
(1 -4.90062e-17 0)
(1 -2.44381e-17 0)
(1 7.71461e-18 0)
(1 -5.5347e-17 0)
(1 -9.28944e-17 0)
(1 -1.25472e-16 0)
(1 -2.03427e-16 0)
(1 -2.67055e-16 0)
(1 -3.41725e-16 0)
(1 -5.50839e-16 0)
(1 -6.55074e-16 0)
(1 -6.92174e-16 0)
(1 -7.66985e-16 0)
(1 3.81701e-17 0)
(1 4.15022e-17 0)
(1 1.00904e-16 0)
(1 1.74871e-16 0)
(1 6.86942e-17 0)
(1 9.15422e-18 0)
(1 -4.62725e-17 0)
(1 -7.19495e-17 0)
(1 6.16723e-18 0)
(1 -5.00333e-17 0)
(1 -1.38365e-16 0)
(1 -1.55033e-16 0)
(1 -1.46206e-16 0)
(1 -2.49263e-16 0)
(1 -3.3912e-16 0)
(1 -4.0234e-16 0)
(1 -4.84279e-16 0)
(1 -5.72587e-16 0)
(1 -6.69045e-16 0)
(1 -7.77559e-16 0)
(1 5.44631e-17 0)
(1 5.89339e-17 0)
(1 1.18787e-16 0)
(1 1.54877e-16 0)
(1 1.19685e-16 0)
(1 3.27798e-17 0)
(1 -5.78021e-17 0)
(1 -3.46448e-17 0)
(1 -4.96426e-17 0)
(1 -1.43115e-16 0)
(1 -2.07271e-16 0)
(1 -2.08508e-16 0)
(1 -2.08077e-16 0)
(1 -3.54776e-16 0)
(1 -4.59617e-16 0)
(1 -4.81933e-16 0)
(1 -4.84675e-16 0)
(1 -5.11561e-16 0)
(1 -5.9213e-16 0)
(1 -7.54889e-16 0)
(1 2.99331e-17 0)
(1 5.06626e-17 0)
(1 1.32942e-16 0)
(1 1.41584e-16 0)
(1 1.44789e-16 0)
(1 8.20711e-17 0)
(1 -4.95793e-17 0)
(1 -1.77291e-17 0)
(1 -1.20431e-16 0)
(1 -2.3276e-16 0)
(1 -1.81782e-16 0)
(1 -2.61737e-16 0)
(1 -3.76365e-16 0)
(1 -4.13014e-16 0)
(1 -5.25577e-16 0)
(1 -5.21475e-16 0)
(1 -5.49798e-16 0)
(1 -5.95049e-16 0)
(1 -5.49185e-16 0)
(1 -6.62893e-16 0)
(1 2.04977e-17 0)
(1 3.21615e-17 0)
(1 4.52776e-17 0)
(1 1.20393e-16 0)
(1 1.55882e-16 0)
(1 1.00357e-16 0)
(1 -6.31454e-18 0)
(1 -8.1195e-17 0)
(1 -2.28053e-16 0)
(1 -2.38002e-16 0)
(1 -1.84585e-16 0)
(1 -2.2846e-16 0)
(1 -4.3082e-16 0)
(1 -4.70855e-16 0)
(1 -4.92984e-16 0)
(1 -5.60026e-16 0)
(1 -5.38448e-16 0)
(1 -5.56459e-16 0)
(1 -5.82762e-16 0)
(1 -6.32487e-16 0)
(1 2.13232e-17 0)
(1 9.95952e-18 0)
(1 -3.1134e-17 0)
(1 1.26838e-16 0)
(1 1.2669e-16 0)
(1 9.22915e-18 0)
(1 5.47453e-20 0)
(1 -1.52211e-16 0)
(1 -2.87184e-16 0)
(1 -2.28461e-16 0)
(1 -1.86943e-16 0)
(1 -2.15864e-16 0)
(1 -3.35436e-16 0)
(1 -4.69725e-16 0)
(1 -4.7999e-16 0)
(1 -5.01991e-16 0)
(1 -5.04736e-16 0)
(1 -4.84058e-16 0)
(1 -5.81379e-16 0)
(1 -6.69766e-16 0)
(1 4.50354e-17 0)
(1 -4.74083e-18 0)
(1 -6.0314e-18 0)
(1 3.87005e-17 0)
(1 1.37528e-17 0)
(1 -5.3741e-17 0)
(1 -9.55679e-17 0)
(1 -1.79524e-16 0)
(1 -2.83892e-16 0)
(1 -2.25377e-16 0)
(1 -1.92153e-16 0)
(1 -2.17161e-16 0)
(1 -3.02465e-16 0)
(1 -3.85851e-16 0)
(1 -4.60443e-16 0)
(1 -4.46736e-16 0)
(1 -4.82921e-16 0)
(1 -5.13767e-16 0)
(1 -5.80179e-16 0)
(1 -7.37424e-16 0)
(1 -9.36882e-19 0)
(1 3.45301e-17 0)
(1 -8.62654e-18 0)
(1 -7.80295e-17 0)
(1 -5.44546e-17 0)
(1 -6.416e-17 0)
(1 -2.00659e-16 0)
(1 -2.38381e-16 0)
(1 -2.13372e-16 0)
(1 -2.83063e-16 0)
(1 -2.33258e-16 0)
(1 -2.45383e-16 0)
(1 -2.58438e-16 0)
(1 -2.52354e-16 0)
(1 -4.16241e-16 0)
(1 -4.37409e-16 0)
(1 -4.70427e-16 0)
(1 -5.17484e-16 0)
(1 -6.36502e-16 0)
(1 -7.60115e-16 0)
(1 -6.51577e-17 0)
(1 2.06488e-17 0)
(1 7.92569e-18 0)
(1 -9.11677e-17 0)
(1 -6.89931e-17 0)
(1 -7.76431e-17 0)
(1 -2.01362e-16 0)
(1 -2.71942e-16 0)
(1 -1.95933e-16 0)
(1 -3.05727e-16 0)
(1 -3.60444e-16 0)
(1 -3.10599e-16 0)
(1 -2.34581e-16 0)
(1 -2.07909e-16 0)
(1 -3.11005e-16 0)
(1 -3.91956e-16 0)
(1 -4.679e-16 0)
(1 -5.26956e-16 0)
(1 -6.09406e-16 0)
(1 -7.39397e-16 0)
(1 -6.87441e-17 0)
(1 1.49438e-17 0)
(1 -2.64527e-17 0)
(1 -5.01657e-17 0)
(1 -1.25841e-16 0)
(1 -1.13677e-16 0)
(1 -1.28585e-16 0)
(1 -2.38732e-16 0)
(1 -2.22483e-16 0)
(1 -3.08415e-16 0)
(1 -3.92521e-16 0)
(1 -3.07787e-16 0)
(1 -2.37167e-16 0)
(1 -2.41163e-16 0)
(1 -2.33287e-16 0)
(1 -3.68356e-16 0)
(1 -5.01397e-16 0)
(1 -5.41407e-16 0)
(1 -6.10844e-16 0)
(1 -7.18019e-16 0)
(1 -1.29252e-17 0)
(1 -2.20003e-17 0)
(1 -3.32482e-17 0)
(1 -9.13035e-17 0)
(1 -1.18235e-16 0)
(1 -1.34425e-16 0)
(1 -8.88821e-17 0)
(1 -1.4779e-16 0)
(1 -2.142e-16 0)
(1 -2.48005e-16 0)
(1 -2.42708e-16 0)
(1 -2.81424e-16 0)
(1 -2.26621e-16 0)
(1 -2.18575e-16 0)
(1 -2.74816e-16 0)
(1 -3.66802e-16 0)
(1 -4.60212e-16 0)
(1 -5.11009e-16 0)
(1 -6.12741e-16 0)
(1 -6.88025e-16 0)
(1 3.05329e-17 0)
(1 -9.45413e-17 0)
(1 -9.39972e-17 0)
(1 -1.26242e-16 0)
(1 -9.3441e-17 0)
(1 -1.25517e-16 0)
(1 -5.66216e-17 0)
(1 -9.39988e-18 0)
(1 -1.37207e-16 0)
(1 -1.49304e-16 0)
(1 -2.03355e-16 0)
(1 -2.63617e-16 0)
(1 -2.43998e-16 0)
(1 -1.88694e-16 0)
(1 -2.35965e-16 0)
(1 -3.02787e-16 0)
(1 -4.01868e-16 0)
(1 -4.90291e-16 0)
(1 -5.4215e-16 0)
(1 -6.24836e-16 0)
(1 1.34544e-17 0)
(1 -6.34744e-17 0)
(1 -1.69158e-16 0)
(1 -1.46656e-16 0)
(1 -1.29127e-16 0)
(1 -1.20053e-16 0)
(1 -7.13388e-18 0)
(1 7.75039e-17 0)
(1 -3.30961e-17 0)
(1 -1.81241e-16 0)
(1 -2.33637e-16 0)
(1 -2.37937e-16 0)
(1 -2.0733e-16 0)
(1 -1.82654e-16 0)
(1 -1.63317e-16 0)
(1 -2.62779e-16 0)
(1 -4.16752e-16 0)
(1 -5.0486e-16 0)
(1 -5.13538e-16 0)
(1 -6.14913e-16 0)
(1 2.05095e-17 0)
(1 -3.25648e-18 0)
(1 -1.35817e-16 0)
(1 -1.74722e-16 0)
(1 -1.29136e-16 0)
(1 -1.16202e-16 0)
(1 -3.51266e-17 0)
(1 -4.35079e-17 0)
(1 -1.10468e-20 0)
(1 -1.30846e-16 0)
(1 -1.68476e-16 0)
(1 -1.91053e-16 0)
(1 -1.38657e-16 0)
(1 -1.37322e-16 0)
(1 -1.58496e-16 0)
(1 -3.14205e-16 0)
(1 -4.61684e-16 0)
(1 -4.9559e-16 0)
(1 -4.97917e-16 0)
(1 -6.19498e-16 0)
(1 2.29774e-17 0)
(1 3.06873e-17 0)
(1 -5.40356e-17 0)
(1 -1.26583e-16 0)
(1 -1.74335e-16 0)
(1 -1.70776e-16 0)
(1 -1.25899e-16 0)
(1 -1.24661e-16 0)
(1 -2.99467e-17 0)
(1 -5.37859e-17 0)
(1 -7.5931e-17 0)
(1 -1.14419e-16 0)
(1 -1.33933e-16 0)
(1 -1.44359e-16 0)
(1 -1.9671e-16 0)
(1 -3.5996e-16 0)
(1 -4.07488e-16 0)
(1 -4.61179e-16 0)
(1 -5.24815e-16 0)
(1 -6.1537e-16 0)
(1 1.83483e-17 0)
(1 2.3214e-17 0)
(1 4.60523e-18 0)
(1 -9.74883e-17 0)
(1 -2.20283e-16 0)
(1 -2.05939e-16 0)
(1 -1.6745e-16 0)
(1 -1.04083e-16 0)
(1 -9.21832e-17 0)
(1 -7.96372e-17 0)
(1 -6.0029e-17 0)
(1 -7.57807e-17 0)
(1 -1.27942e-16 0)
(1 -1.74104e-16 0)
(1 -2.2302e-16 0)
(1 -3.59424e-16 0)
(1 -3.6373e-16 0)
(1 -4.34106e-16 0)
(1 -5.16236e-16 0)
(1 -6.26712e-16 0)
)
;

boundaryField
{
    inlet
    {
        type            fixedValue;
        value           uniform (1 0 0);
    }
    outlet
    {
        type            zeroGradient;
    }
    up
    {
        type            zeroGradient;
    }
    down
    {
        type            zeroGradient;
    }
    frontAndBack
    {
        type            empty;
    }
}


// ************************************************************************* //
