/*--------------------------------*- C++ -*----------------------------------*\
  =========                 |
  \\      /  F ield         | OpenFOAM: The Open Source CFD Toolbox
   \\    /   O peration     | Website:  https://openfoam.org
    \\  /    A nd           | Version:  8
     \\/     M anipulation  |
\*---------------------------------------------------------------------------*/
FoamFile
{
    version     2.0;
    format      ascii;
    class       volVectorField;
    location    "5";
    object      U;
}
// * * * * * * * * * * * * * * * * * * * * * * * * * * * * * * * * * * * * * //

dimensions      [0 1 -1 0 0 0 0];

internalField   nonuniform List<vector> 
11600
(
(-1.17887e-05 1.17814e-05 0)
(-4.21902e-05 1.52224e-05 0)
(-7.77942e-05 1.54666e-05 0)
(-0.000111932 1.54374e-05 0)
(-0.000146179 1.53792e-05 0)
(-0.000180298 1.53068e-05 0)
(-0.000214239 1.52206e-05 0)
(-0.000247971 1.51201e-05 0)
(-0.000281463 1.50052e-05 0)
(-0.000314682 1.4876e-05 0)
(-0.000347598 1.47327e-05 0)
(-0.000380178 1.45755e-05 0)
(-0.000412392 1.44046e-05 0)
(-0.00044421 1.42202e-05 0)
(-0.000475601 1.40226e-05 0)
(-0.000506538 1.38121e-05 0)
(-0.00053699 1.3589e-05 0)
(-0.000566932 1.33536e-05 0)
(-0.000596335 1.31063e-05 0)
(-0.000625174 1.28474e-05 0)
(-0.000653424 1.25773e-05 0)
(-0.000681059 1.22965e-05 0)
(-0.000708057 1.20054e-05 0)
(-0.000734395 1.17044e-05 0)
(-0.000760052 1.1394e-05 0)
(-0.000785007 1.10748e-05 0)
(-0.000809242 1.07473e-05 0)
(-0.000832739 1.04122e-05 0)
(-0.000855482 1.007e-05 0)
(-0.000877455 9.7214e-06 0)
(-0.000898646 9.36725e-06 0)
(-0.000919042 9.00831e-06 0)
(-0.000938635 8.64549e-06 0)
(-0.000957417 8.27979e-06 0)
(-0.000975383 7.91234e-06 0)
(-0.00099253 7.5444e-06 0)
(-0.00100886 7.17742e-06 0)
(-0.00102437 6.81308e-06 0)
(-0.00103908 6.45334e-06 0)
(-0.001053 6.10054e-06 0)
(-0.00106614 5.75748e-06 0)
(-0.00107853 5.42759e-06 0)
(-0.00109021 5.11511e-06 0)
(-0.00110121 4.82538e-06 0)
(-0.0011116 4.56524e-06 0)
(-0.00112145 4.34361e-06 0)
(-0.00113086 4.17238e-06 0)
(-0.00113996 4.06777e-06 0)
(-0.00114891 4.05251e-06 0)
(-0.00115794 4.15914e-06 0)
(-0.00116736 4.43585e-06 0)
(-0.00117762 4.95704e-06 0)
(-0.00118934 5.8422e-06 0)
(-0.00120346 7.29205e-06 0)
(-0.00122153 9.66284e-06 0)
(-0.00124561 1.36594e-05 0)
(-0.00127576 2.04547e-05 0)
(-0.00134718 3.0955e-05 0)
(-0.00136267 7.17961e-05 0)
(-0.00167356 0.000195652 0)
(-1.52553e-05 4.21921e-05 0)
(-5.35968e-05 5.35097e-05 0)
(-9.79288e-05 5.43518e-05 0)
(-0.000140597 5.42615e-05 0)
(-0.000183385 5.40633e-05 0)
(-0.000226014 5.38109e-05 0)
(-0.000268421 5.35072e-05 0)
(-0.000310566 5.31522e-05 0)
(-0.00035241 5.27462e-05 0)
(-0.000393911 5.22899e-05 0)
(-0.000435031 5.17837e-05 0)
(-0.000475729 5.12284e-05 0)
(-0.000515968 5.06247e-05 0)
(-0.000555708 4.99737e-05 0)
(-0.000594914 4.92761e-05 0)
(-0.000633549 4.85331e-05 0)
(-0.000671576 4.77457e-05 0)
(-0.000708962 4.69151e-05 0)
(-0.000745673 4.60425e-05 0)
(-0.000781676 4.51292e-05 0)
(-0.00081694 4.41767e-05 0)
(-0.000851433 4.31863e-05 0)
(-0.000885127 4.21597e-05 0)
(-0.000917994 4.10985e-05 0)
(-0.000950007 4.00045e-05 0)
(-0.000981141 3.88795e-05 0)
(-0.00101137 3.77254e-05 0)
(-0.00104068 3.65444e-05 0)
(-0.00106904 3.53388e-05 0)
(-0.00109643 3.4111e-05 0)
(-0.00112285 3.28637e-05 0)
(-0.00114827 3.15996e-05 0)
(-0.00117269 3.03221e-05 0)
(-0.00119609 2.90346e-05 0)
(-0.00121846 2.77411e-05 0)
(-0.00123981 2.64461e-05 0)
(-0.00126014 2.51546e-05 0)
(-0.00127944 2.38725e-05 0)
(-0.00129773 2.26068e-05 0)
(-0.00131503 2.13655e-05 0)
(-0.00133136 2.01585e-05 0)
(-0.00134674 1.89977e-05 0)
(-0.00136122 1.7898e-05 0)
(-0.00137485 1.68778e-05 0)
(-0.0013877 1.59608e-05 0)
(-0.00139985 1.51779e-05 0)
(-0.00141144 1.457e-05 0)
(-0.00142259 1.41927e-05 0)
(-0.00143351 1.41235e-05 0)
(-0.00144446 1.44727e-05 0)
(-0.00145579 1.5402e-05 0)
(-0.00146798 1.71573e-05 0)
(-0.00148169 2.01263e-05 0)
(-0.00149787 2.49438e-05 0)
(-0.00151795 3.26961e-05 0)
(-0.00154378 4.53987e-05 0)
(-0.00157642 6.64148e-05 0)
(-0.00163825 9.87507e-05 0)
(-0.00166007 0.000182613 0)
(-0.0018613 0.000258718 0)
(-1.55542e-05 7.79096e-05 0)
(-5.46337e-05 9.79041e-05 0)
(-9.97965e-05 9.94161e-05 0)
(-0.000143251 9.92556e-05 0)
(-0.000186826 9.88964e-05 0)
(-0.000230238 9.84356e-05 0)
(-0.000273422 9.78792e-05 0)
(-0.00031634 9.72282e-05 0)
(-0.000358949 9.64836e-05 0)
(-0.00040121 9.56466e-05 0)
(-0.000443081 9.47182e-05 0)
(-0.000484523 9.36998e-05 0)
(-0.000525495 9.25929e-05 0)
(-0.00056596 9.13991e-05 0)
(-0.00060588 9.01202e-05 0)
(-0.000645217 8.8758e-05 0)
(-0.000683935 8.73145e-05 0)
(-0.000721999 8.57919e-05 0)
(-0.000759374 8.41925e-05 0)
(-0.000796027 8.25186e-05 0)
(-0.000831926 8.07728e-05 0)
(-0.00086704 7.89579e-05 0)
(-0.000901339 7.70766e-05 0)
(-0.000934794 7.5132e-05 0)
(-0.000967378 7.31273e-05 0)
(-0.000999065 7.10659e-05 0)
(-0.00102983 6.89513e-05 0)
(-0.00105965 6.67875e-05 0)
(-0.00108851 6.45786e-05 0)
(-0.00111639 6.2329e-05 0)
(-0.00114326 6.00435e-05 0)
(-0.00116912 5.77274e-05 0)
(-0.00119395 5.53864e-05 0)
(-0.00121774 5.30269e-05 0)
(-0.00124048 5.0656e-05 0)
(-0.00126218 4.82817e-05 0)
(-0.00128282 4.59133e-05 0)
(-0.00130242 4.35612e-05 0)
(-0.00132098 4.12377e-05 0)
(-0.00133851 3.89573e-05 0)
(-0.00135504 3.67374e-05 0)
(-0.0013706 3.45991e-05 0)
(-0.00138521 3.25684e-05 0)
(-0.00139893 3.06775e-05 0)
(-0.00141182 2.89677e-05 0)
(-0.00142395 2.74921e-05 0)
(-0.00143543 2.63205e-05 0)
(-0.00144639 2.55465e-05 0)
(-0.00145697 2.52982e-05 0)
(-0.0014674 2.57546e-05 0)
(-0.00147793 2.71707e-05 0)
(-0.0014889 2.992e-05 0)
(-0.00150073 3.45648e-05 0)
(-0.00151392 4.19728e-05 0)
(-0.00152906 5.35234e-05 0)
(-0.00154658 7.15076e-05 0)
(-0.00156647 9.94947e-05 0)
(-0.00159373 0.000141678 0)
(-0.00159409 0.000225141 0)
(-0.00164414 0.000300534 0)
(-1.56076e-05 0.00011233 0)
(-5.48368e-05 0.00014085 0)
(-0.000100175 0.000142998 0)
(-0.000143789 0.000142761 0)
(-0.000187527 0.000142243 0)
(-0.0002311 0.00014158 0)
(-0.000274444 0.000140779 0)
(-0.00031752 0.000139841 0)
(-0.000360286 0.000138769 0)
(-0.000402702 0.000137564 0)
(-0.000444726 0.000136227 0)
(-0.000486318 0.000134761 0)
(-0.00052744 0.000133167 0)
(-0.000568051 0.000131448 0)
(-0.000608113 0.000129607 0)
(-0.000647591 0.000127646 0)
(-0.000686446 0.000125568 0)
(-0.000724643 0.000123376 0)
(-0.000762148 0.000121073 0)
(-0.000798928 0.000118663 0)
(-0.00083495 0.00011615 0)
(-0.000870181 0.000113537 0)
(-0.000904594 0.000110828 0)
(-0.000938158 0.000108028 0)
(-0.000970846 0.000105142 0)
(-0.00100263 0.000102174 0)
(-0.00103349 9.91289e-05 0)
(-0.0010634 9.6013e-05 0)
(-0.00109234 9.28317e-05 0)
(-0.00112029 8.95916e-05 0)
(-0.00114723 8.62992e-05 0)
(-0.00117315 8.29622e-05 0)
(-0.00119803 7.95885e-05 0)
(-0.00122186 7.61873e-05 0)
(-0.00124464 7.27683e-05 0)
(-0.00126635 6.9343e-05 0)
(-0.001287 6.5924e-05 0)
(-0.0013066 6.2526e-05 0)
(-0.00132513 5.9166e-05 0)
(-0.00134262 5.58639e-05 0)
(-0.00135908 5.26436e-05 0)
(-0.00137454 4.95337e-05 0)
(-0.00138902 4.65692e-05 0)
(-0.00140256 4.37934e-05 0)
(-0.00141522 4.12608e-05 0)
(-0.00142704 3.90407e-05 0)
(-0.00143812 3.72231e-05 0)
(-0.00144855 3.59258e-05 0)
(-0.00145843 3.53066e-05 0)
(-0.00146791 3.55793e-05 0)
(-0.00147716 3.70388e-05 0)
(-0.00148634 4.0097e-05 0)
(-0.00149565 4.53385e-05 0)
(-0.00150525 5.36017e-05 0)
(-0.00151518 6.60972e-05 0)
(-0.00152514 8.45675e-05 0)
(-0.00153441 0.000111348 0)
(-0.00154231 0.000149485 0)
(-0.00153357 0.000208522 0)
(-0.00153243 0.000264226 0)
(-1.5662e-05 0.000147068 0)
(-5.50372e-05 0.000184179 0)
(-0.000100547 0.000186966 0)
(-0.000144323 0.000186655 0)
(-0.000188223 0.000185977 0)
(-0.000231957 0.000185109 0)
(-0.000275461 0.00018406 0)
(-0.000318695 0.000182833 0)
(-0.000361619 0.00018143 0)
(-0.000404189 0.000179853 0)
(-0.000446366 0.000178104 0)
(-0.000488109 0.000176185 0)
(-0.000529378 0.000174099 0)
(-0.000570134 0.00017185 0)
(-0.000610339 0.00016944 0)
(-0.000649955 0.000166873 0)
(-0.000688945 0.000164154 0)
(-0.000727274 0.000161285 0)
(-0.000764907 0.000158271 0)
(-0.00080181 0.000155117 0)
(-0.00083795 0.000151828 0)
(-0.000873297 0.000148408 0)
(-0.000907818 0.000144863 0)
(-0.000941487 0.000141199 0)
(-0.000974274 0.000137421 0)
(-0.00100615 0.000133535 0)
(-0.0010371 0.000129549 0)
(-0.00106709 0.00012547 0)
(-0.0010961 0.000121305 0)
(-0.00112412 0.000117061 0)
(-0.00115111 0.000112749 0)
(-0.00117708 0.000108377 0)
(-0.001202 0.000103956 0)
(-0.00122586 9.94974e-05 0)
(-0.00124865 9.50135e-05 0)
(-0.00127037 9.05187e-05 0)
(-0.00129101 8.60289e-05 0)
(-0.00131057 8.15626e-05 0)
(-0.00132905 7.71409e-05 0)
(-0.00134647 7.27886e-05 0)
(-0.00136282 6.85346e-05 0)
(-0.00137813 6.44141e-05 0)
(-0.00139243 6.0469e-05 0)
(-0.00140573 5.67509e-05 0)
(-0.00141807 5.3324e-05 0)
(-0.00142951 5.02683e-05 0)
(-0.00144008 4.76858e-05 0)
(-0.00144984 4.57076e-05 0)
(-0.00145887 4.45045e-05 0)
(-0.00146724 4.43011e-05 0)
(-0.001475 4.53963e-05 0)
(-0.0014822 4.81898e-05 0)
(-0.00148883 5.32195e-05 0)
(-0.00149479 6.12078e-05 0)
(-0.00149975 7.31151e-05 0)
(-0.00150302 9.01812e-05 0)
(-0.0015033 0.000113896 0)
(-0.00149843 0.000146062 0)
(-0.00148137 0.000189535 0)
(-0.00145612 0.000234441 0)
(-1.57324e-05 0.00018196 0)
(-5.52897e-05 0.000227704 0)
(-0.000101012 0.000231131 0)
(-0.000144991 0.000230744 0)
(-0.000189094 0.000229905 0)
(-0.00023303 0.000228831 0)
(-0.000276734 0.000227533 0)
(-0.000320167 0.000226015 0)
(-0.000363286 0.000224279 0)
(-0.000406051 0.000222327 0)
(-0.000448419 0.000220163 0)
(-0.000490349 0.000217788 0)
(-0.000531803 0.000215207 0)
(-0.000572741 0.000212424 0)
(-0.000613123 0.000209442 0)
(-0.000652912 0.000206266 0)
(-0.000692071 0.0002029 0)
(-0.000730565 0.000199351 0)
(-0.000768357 0.000195621 0)
(-0.000805414 0.000191719 0)
(-0.000841704 0.000187648 0)
(-0.000877193 0.000183416 0)
(-0.000911852 0.000179029 0)
(-0.000945651 0.000174493 0)
(-0.000978561 0.000169817 0)
(-0.00101056 0.000165008 0)
(-0.00104161 0.000160073 0)
(-0.0010717 0.000155022 0)
(-0.00110081 0.000149865 0)
(-0.0011289 0.000144609 0)
(-0.00115597 0.000139267 0)
(-0.001182 0.00013385 0)
(-0.00120697 0.00012837 0)
(-0.00123087 0.000122841 0)
(-0.00125368 0.000117277 0)
(-0.0012754 0.000111697 0)
(-0.00129603 0.000106118 0)
(-0.00131555 0.000100562 0)
(-0.00133398 9.50532e-05 0)
(-0.0013513 8.96208e-05 0)
(-0.00136753 8.42977e-05 0)
(-0.00138268 7.91231e-05 0)
(-0.00139676 7.41442e-05 0)
(-0.00140978 6.94177e-05 0)
(-0.00142177 6.50129e-05 0)
(-0.00143276 6.10151e-05 0)
(-0.00144276 5.75307e-05 0)
(-0.00145181 5.46931e-05 0)
(-0.00145992 5.2671e-05 0)
(-0.0014671 5.16791e-05 0)
(-0.00147335 5.19915e-05 0)
(-0.0014786 5.39571e-05 0)
(-0.00148271 5.80178e-05 0)
(-0.00148544 6.47233e-05 0)
(-0.00148629 7.47359e-05 0)
(-0.00148445 8.88041e-05 0)
(-0.00147862 0.000107666 0)
(-0.00146677 0.000131884 0)
(-0.00144528 0.000161575 0)
(-0.00141356 0.00019237 0)
(-1.58191e-05 0.000217026 0)
(-5.55971e-05 0.000271449 0)
(-0.000101576 0.00027552 0)
(-0.0001458 0.000275056 0)
(-0.000190149 0.000274055 0)
(-0.00023433 0.000272772 0)
(-0.000278277 0.000271224 0)
(-0.00032195 0.000269413 0)
(-0.000365308 0.000267341 0)
(-0.000408307 0.000265012 0)
(-0.000450907 0.000262428 0)
(-0.000493066 0.000259595 0)
(-0.000534744 0.000256515 0)
(-0.000575901 0.000253194 0)
(-0.000616498 0.000249635 0)
(-0.000656497 0.000245845 0)
(-0.000695862 0.000241829 0)
(-0.000734555 0.000237593 0)
(-0.00077254 0.000233143 0)
(-0.000809785 0.000228485 0)
(-0.000846255 0.000223627 0)
(-0.000881918 0.000218576 0)
(-0.000916743 0.00021334 0)
(-0.0009507 0.000207926 0)
(-0.000983761 0.000202344 0)
(-0.0010159 0.000196603 0)
(-0.00104709 0.000190711 0)
(-0.0010773 0.00018468 0)
(-0.00110652 0.00017852 0)
(-0.00113472 0.000172242 0)
(-0.00116188 0.000165859 0)
(-0.00118798 0.000159384 0)
(-0.00121301 0.000152831 0)
(-0.00123695 0.000146216 0)
(-0.0012598 0.000139557 0)
(-0.00128153 0.000132871 0)
(-0.00130215 0.000126181 0)
(-0.00132164 0.000119511 0)
(-0.00134 0.000112887 0)
(-0.00135722 0.000106341 0)
(-0.00137332 9.99089e-05 0)
(-0.00138829 9.36328e-05 0)
(-0.00140214 8.75625e-05 0)
(-0.00141486 8.17572e-05 0)
(-0.00142648 7.62877e-05 0)
(-0.00143699 7.12398e-05 0)
(-0.0014464 6.67178e-05 0)
(-0.00145471 6.28491e-05 0)
(-0.00146189 5.97899e-05 0)
(-0.00146792 5.77319e-05 0)
(-0.00147272 5.69093e-05 0)
(-0.00147617 5.76051e-05 0)
(-0.00147807 6.01551e-05 0)
(-0.00147807 6.4944e-05 0)
(-0.00147567 7.23853e-05 0)
(-0.00147009 8.28703e-05 0)
(-0.00146022 9.66622e-05 0)
(-0.00144453 0.000113719 0)
(-0.00142089 0.000133367 0)
(-0.0013881 0.000153155 0)
(-1.59216e-05 0.000252303 0)
(-5.59595e-05 0.000315459 0)
(-0.00010224 0.000320177 0)
(-0.000146753 0.000319636 0)
(-0.000191392 0.000318471 0)
(-0.000235861 0.000316979 0)
(-0.000280093 0.000315178 0)
(-0.00032405 0.00031307 0)
(-0.000367687 0.00031066 0)
(-0.000410963 0.00030795 0)
(-0.000453835 0.000304944 0)
(-0.000496263 0.000301647 0)
(-0.000538204 0.000298064 0)
(-0.00057962 0.0002942 0)
(-0.000620471 0.00029006 0)
(-0.000660718 0.000285651 0)
(-0.000700324 0.000280978 0)
(-0.000739251 0.000276049 0)
(-0.000777465 0.000270871 0)
(-0.00081493 0.000265452 0)
(-0.000851613 0.000259799 0)
(-0.00088748 0.000253921 0)
(-0.000922502 0.000247828 0)
(-0.000956646 0.000241528 0)
(-0.000989885 0.000235031 0)
(-0.00102219 0.000228348 0)
(-0.00105353 0.000221489 0)
(-0.00108389 0.000214466 0)
(-0.00111325 0.000207292 0)
(-0.00114157 0.000199979 0)
(-0.00116883 0.000192542 0)
(-0.00119503 0.000184995 0)
(-0.00122014 0.000177353 0)
(-0.00124414 0.000169636 0)
(-0.00126703 0.000161861 0)
(-0.00128878 0.000154049 0)
(-0.00130939 0.000146225 0)
(-0.00132885 0.000138412 0)
(-0.00134715 0.000130642 0)
(-0.00136428 0.000122946 0)
(-0.00138024 0.000115362 0)
(-0.00139503 0.000107934 0)
(-0.00140863 0.000100713 0)
(-0.00142106 9.37569e-05 0)
(-0.00143229 8.7136e-05 0)
(-0.00144233 8.09324e-05 0)
(-0.00145115 7.52437e-05 0)
(-0.00145873 7.01856e-05 0)
(-0.00146503 6.58956e-05 0)
(-0.00146998 6.25357e-05 0)
(-0.00147347 6.02943e-05 0)
(-0.00147535 5.93867e-05 0)
(-0.00147538 6.00496e-05 0)
(-0.00147321 6.25274e-05 0)
(-0.00146836 6.70433e-05 0)
(-0.00146017 7.37456e-05 0)
(-0.00144777 8.26176e-05 0)
(-0.00143007 9.33442e-05 0)
(-0.00140585 0.000105106 0)
(-0.00137427 0.000116173 0)
(-1.60399e-05 0.000287826 0)
(-5.63774e-05 0.000359778 0)
(-0.000103005 0.000365148 0)
(-0.000147851 0.000364529 0)
(-0.000192824 0.000363198 0)
(-0.000237624 0.000361494 0)
(-0.000282186 0.000359437 0)
(-0.000326468 0.00035703 0)
(-0.000370428 0.000354278 0)
(-0.000414023 0.000351183 0)
(-0.000457209 0.000347751 0)
(-0.000499946 0.000343986 0)
(-0.000542191 0.000339895 0)
(-0.000583905 0.000335482 0)
(-0.000625047 0.000330754 0)
(-0.00066558 0.000325719 0)
(-0.000705463 0.000320383 0)
(-0.000744661 0.000314754 0)
(-0.000783138 0.000308841 0)
(-0.000820857 0.000302652 0)
(-0.000857785 0.000296196 0)
(-0.000893889 0.000289483 0)
(-0.000929137 0.000282522 0)
(-0.000963497 0.000275326 0)
(-0.000996941 0.000267904 0)
(-0.00102944 0.000260268 0)
(-0.00106097 0.00025243 0)
(-0.0010915 0.000244404 0)
(-0.001121 0.000236203 0)
(-0.00114947 0.000227841 0)
(-0.00117686 0.000219335 0)
(-0.00120317 0.000210699 0)
(-0.00122837 0.000201952 0)
(-0.00125245 0.000193113 0)
(-0.00127539 0.000184201 0)
(-0.00129717 0.000175241 0)
(-0.00131778 0.000166255 0)
(-0.00133722 0.000157272 0)
(-0.00135546 0.000148321 0)
(-0.0013725 0.000139437 0)
(-0.00138833 0.000130658 0)
(-0.00140294 0.000122027 0)
(-0.00141631 0.000113595 0)
(-0.00142844 0.000105418 0)
(-0.0014393 9.75631e-05 0)
(-0.00144888 9.01054e-05 0)
(-0.00145715 8.31332e-05 0)
(-0.00146405 7.67476e-05 0)
(-0.00146954 7.10645e-05 0)
(-0.00147352 6.62145e-05 0)
(-0.00147587 6.23418e-05 0)
(-0.00147642 5.96001e-05 0)
(-0.00147493 5.81433e-05 0)
(-0.00147108 5.81083e-05 0)
(-0.00146445 5.9586e-05 0)
(-0.00145452 6.25751e-05 0)
(-0.00144063 6.6916e-05 0)
(-0.00142204 7.2203e-05 0)
(-0.00139806 7.76565e-05 0)
(-0.00136825 8.20486e-05 0)
(-1.61742e-05 0.000323631 0)
(-5.68511e-05 0.000404451 0)
(-0.000103872 0.000410477 0)
(-0.000149096 0.000409778 0)
(-0.000194446 0.00040828 0)
(-0.000239623 0.000406362 0)
(-0.000284557 0.000404046 0)
(-0.000329209 0.000401337 0)
(-0.000373535 0.000398238 0)
(-0.00041749 0.000394754 0)
(-0.000461032 0.00039089 0)
(-0.000504119 0.000386652 0)
(-0.000546709 0.000382046 0)
(-0.000588761 0.000377078 0)
(-0.000630234 0.000371756 0)
(-0.000671089 0.000366088 0)
(-0.000711288 0.000360081 0)
(-0.000750793 0.000353744 0)
(-0.000789567 0.000347087 0)
(-0.000827575 0.000340118 0)
(-0.000864782 0.00033285 0)
(-0.000901154 0.000325291 0)
(-0.000936659 0.000317453 0)
(-0.000971265 0.000309349 0)
(-0.00100494 0.00030099 0)
(-0.00103766 0.000292389 0)
(-0.0010694 0.00028356 0)
(-0.00110012 0.000274517 0)
(-0.00112981 0.000265274 0)
(-0.00115843 0.000255848 0)
(-0.00118598 0.000246256 0)
(-0.00121241 0.000236514 0)
(-0.00123772 0.000226642 0)
(-0.00126189 0.000216661 0)
(-0.0012849 0.000206591 0)
(-0.00130673 0.000196456 0)
(-0.00132736 0.000186282 0)
(-0.00134678 0.000176097 0)
(-0.00136498 0.000165933 0)
(-0.00138194 0.000155822 0)
(-0.00139765 0.000145804 0)
(-0.00141209 0.00013592 0)
(-0.00142524 0.00012622 0)
(-0.00143709 0.000116756 0)
(-0.0014476 0.00010759 0)
(-0.00145676 9.87898e-05 0)
(-0.00146451 9.04326e-05 0)
(-0.0014708 8.26039e-05 0)
(-0.00147557 7.53978e-05 0)
(-0.0014787 6.89152e-05 0)
(-0.00148009 6.3261e-05 0)
(-0.00147955 5.85379e-05 0)
(-0.00147687 5.48353e-05 0)
(-0.00147176 5.22135e-05 0)
(-0.00146389 5.0678e-05 0)
(-0.00145284 5.01447e-05 0)
(-0.00143814 5.03952e-05 0)
(-0.00141933 5.10241e-05 0)
(-0.001396 5.13661e-05 0)
(-0.00136796 5.0535e-05 0)
(-1.63245e-05 0.000359753 0)
(-5.73814e-05 0.00044952 0)
(-0.000104842 0.000456208 0)
(-0.000150489 0.00045543 0)
(-0.000196262 0.000453761 0)
(-0.000241859 0.000451626 0)
(-0.000287211 0.000449048 0)
(-0.000332276 0.000446032 0)
(-0.000377011 0.000442583 0)
(-0.00042137 0.000438705 0)
(-0.000465311 0.000434404 0)
(-0.00050879 0.000429686 0)
(-0.000551765 0.000424559 0)
(-0.000594195 0.000419029 0)
(-0.000636038 0.000413105 0)
(-0.000677255 0.000406795 0)
(-0.000717807 0.000400108 0)
(-0.000757656 0.000393054 0)
(-0.000796763 0.000385643 0)
(-0.000835094 0.000377886 0)
(-0.000872613 0.000369793 0)
(-0.000909285 0.000361378 0)
(-0.000945079 0.000352651 0)
(-0.000979961 0.000343627 0)
(-0.0010139 0.000334318 0)
(-0.00104687 0.000324739 0)
(-0.00107884 0.000314903 0)
(-0.00110978 0.000304828 0)
(-0.00113967 0.000294529 0)
(-0.00116848 0.000284022 0)
(-0.0011962 0.000273326 0)
(-0.00122278 0.000262459 0)
(-0.00124822 0.000251443 0)
(-0.0012725 0.000240297 0)
(-0.00129559 0.000229044 0)
(-0.00131748 0.00021771 0)
(-0.00133814 0.00020632 0)
(-0.00135757 0.000194903 0)
(-0.00137574 0.000183489 0)
(-0.00139263 0.000172114 0)
(-0.00140823 0.000160814 0)
(-0.00142252 0.000149629 0)
(-0.00143548 0.000138606 0)
(-0.00144707 0.000127795 0)
(-0.00145727 0.000117249 0)
(-0.00146604 0.00010703 0)
(-0.00147333 9.7202e-05 0)
(-0.00147909 8.78368e-05 0)
(-0.00148323 7.90077e-05 0)
(-0.00148566 7.079e-05 0)
(-0.00148625 6.32558e-05 0)
(-0.00148484 5.64675e-05 0)
(-0.00148125 5.0468e-05 0)
(-0.00147524 4.52659e-05 0)
(-0.00146652 4.08164e-05 0)
(-0.0014548 3.69961e-05 0)
(-0.00143975 3.35752e-05 0)
(-0.00142107 3.01803e-05 0)
(-0.00139855 2.62789e-05 0)
(-0.00137214 2.12242e-05 0)
(-1.6491e-05 0.000396229 0)
(-5.7969e-05 0.000495032 0)
(-0.000105917 0.000502389 0)
(-0.000152032 0.000501528 0)
(-0.000198274 0.000499687 0)
(-0.000244337 0.000497332 0)
(-0.000290151 0.000494488 0)
(-0.000335675 0.000491161 0)
(-0.000380862 0.000487356 0)
(-0.000425669 0.000483078 0)
(-0.000470051 0.000478334 0)
(-0.000513964 0.00047313 0)
(-0.000557366 0.000467474 0)
(-0.000600215 0.000461374 0)
(-0.000642468 0.000454839 0)
(-0.000684086 0.000447879 0)
(-0.000725029 0.000440502 0)
(-0.000765258 0.000432721 0)
(-0.000804736 0.000424545 0)
(-0.000843425 0.000415988 0)
(-0.00088129 0.00040706 0)
(-0.000918296 0.000397775 0)
(-0.000954409 0.000388147 0)
(-0.000989598 0.000378189 0)
(-0.00102383 0.000367916 0)
(-0.00105708 0.000357344 0)
(-0.00108931 0.000346487 0)
(-0.0011205 0.000335364 0)
(-0.00115061 0.00032399 0)
(-0.00117964 0.000312384 0)
(-0.00120754 0.000300566 0)
(-0.0012343 0.000288555 0)
(-0.00125989 0.000276372 0)
(-0.00128429 0.000264039 0)
(-0.00130749 0.000251579 0)
(-0.00132945 0.000239019 0)
(-0.00135017 0.000226384 0)
(-0.00136961 0.000213703 0)
(-0.00138777 0.000201007 0)
(-0.00140462 0.00018833 0)
(-0.00142013 0.000175706 0)
(-0.0014343 0.000163176 0)
(-0.00144708 0.000150781 0)
(-0.00145845 0.000138566 0)
(-0.00146837 0.000126581 0)
(-0.00147681 0.000114877 0)
(-0.0014837 0.000103509 0)
(-0.001489 9.25343e-05 0)
(-0.00149261 8.20087e-05 0)
(-0.00149446 7.19861e-05 0)
(-0.00149441 6.25128e-05 0)
(-0.00149234 5.36215e-05 0)
(-0.00148807 4.53229e-05 0)
(-0.00148142 3.75937e-05 0)
(-0.00147216 3.03625e-05 0)
(-0.00146008 2.34931e-05 0)
(-0.00144496 1.6764e-05 0)
(-0.00142662 9.85575e-06 0)
(-0.00140496 2.37792e-06 0)
(-0.00137996 -6.16307e-06 0)
(-1.66741e-05 0.000433094 0)
(-5.86147e-05 0.000541032 0)
(-0.000107099 0.000549063 0)
(-0.000153728 0.000548119 0)
(-0.000200485 0.000546104 0)
(-0.00024706 0.000543525 0)
(-0.000293382 0.000540411 0)
(-0.000339408 0.000536768 0)
(-0.000385094 0.000532602 0)
(-0.000430392 0.000527918 0)
(-0.000475259 0.000522723 0)
(-0.00051965 0.000517026 0)
(-0.000563521 0.000510833 0)
(-0.000606829 0.000504154 0)
(-0.000649534 0.000496999 0)
(-0.000691592 0.000489378 0)
(-0.000732965 0.000481302 0)
(-0.000773612 0.000472781 0)
(-0.000813496 0.00046383 0)
(-0.000852579 0.000454459 0)
(-0.000890825 0.000444684 0)
(-0.000928198 0.000434516 0)
(-0.000964665 0.000423972 0)
(-0.00100019 0.000413066 0)
(-0.00103475 0.000401814 0)
(-0.0010683 0.000390232 0)
(-0.00110082 0.000378338 0)
(-0.00113228 0.000366149 0)
(-0.00116265 0.000353683 0)
(-0.00119191 0.00034096 0)
(-0.00122002 0.000327999 0)
(-0.00124698 0.000314822 0)
(-0.00127274 0.00030145 0)
(-0.00129729 0.000287906 0)
(-0.00132061 0.000274215 0)
(-0.00134267 0.000260402 0)
(-0.00136346 0.000246493 0)
(-0.00138294 0.000232518 0)
(-0.00140111 0.000218507 0)
(-0.00141793 0.000204491 0)
(-0.00143339 0.000190506 0)
(-0.00144745 0.000176587 0)
(-0.00146009 0.000162774 0)
(-0.00147127 0.000149108 0)
(-0.00148096 0.000135631 0)
(-0.00148911 0.000122388 0)
(-0.00149568 0.000109424 0)
(-0.00150059 9.67843e-05 0)
(-0.00150378 8.45102e-05 0)
(-0.00150515 7.26385e-05 0)
(-0.00150461 6.11961e-05 0)
(-0.00150203 5.01951e-05 0)
(-0.00149728 3.96252e-05 0)
(-0.0014902 2.94455e-05 0)
(-0.00148062 1.95738e-05 0)
(-0.0014684 9.87624e-06 0)
(-0.00145338 1.57462e-07 0)
(-0.00143545 -9.83867e-06 0)
(-0.00141457 -2.04144e-05 0)
(-0.0013908 -3.19398e-05 0)
(-1.68739e-05 0.000470385 0)
(-5.93195e-05 0.000587566 0)
(-0.000108388 0.00059628 0)
(-0.000155578 0.000595251 0)
(-0.000202898 0.000593058 0)
(-0.000250031 0.000590251 0)
(-0.000296908 0.000586862 0)
(-0.000343484 0.000582898 0)
(-0.000389712 0.000578365 0)
(-0.000435547 0.000573268 0)
(-0.000480943 0.000567616 0)
(-0.000525854 0.000561416 0)
(-0.000570237 0.000554678 0)
(-0.000614048 0.00054741 0)
(-0.000657244 0.000539625 0)
(-0.000699784 0.000531332 0)
(-0.000741626 0.000522544 0)
(-0.00078273 0.000513274 0)
(-0.000823058 0.000503533 0)
(-0.000862571 0.000493337 0)
(-0.000901233 0.000482699 0)
(-0.000939007 0.000471634 0)
(-0.00097586 0.000460159 0)
(-0.00101176 0.000448289 0)
(-0.00104666 0.000436042 0)
(-0.00108055 0.000423434 0)
(-0.00111339 0.000410484 0)
(-0.00114515 0.00039721 0)
(-0.0011758 0.000383633 0)
(-0.00120532 0.000369772 0)
(-0.00123368 0.000355648 0)
(-0.00126085 0.000341283 0)
(-0.0012868 0.0003267 0)
(-0.00131153 0.000311922 0)
(-0.00133499 0.000296973 0)
(-0.00135717 0.00028188 0)
(-0.00137805 0.000266669 0)
(-0.0013976 0.000251369 0)
(-0.0014158 0.00023601 0)
(-0.00143262 0.000220622 0)
(-0.00144804 0.000205238 0)
(-0.00146203 0.000189892 0)
(-0.00147456 0.000174621 0)
(-0.00148559 0.00015946 0)
(-0.00149509 0.000144447 0)
(-0.00150301 0.000129621 0)
(-0.00150931 0.000115017 0)
(-0.00151391 0.000100671 0)
(-0.00151676 8.66132e-05 0)
(-0.00151777 7.28671e-05 0)
(-0.00151685 5.94461e-05 0)
(-0.00151391 4.63482e-05 0)
(-0.00150882 3.35512e-05 0)
(-0.00150147 2.10061e-05 0)
(-0.00149173 8.63018e-06 0)
(-0.0014795 -3.69889e-06 0)
(-0.00146467 -1.61445e-05 0)
(-0.00144719 -2.89132e-05 0)
(-0.00142706 -4.22615e-05 0)
(-0.00140433 -5.64505e-05 0)
(-1.70908e-05 0.000508141 0)
(-6.00844e-05 0.000634681 0)
(-0.000109788 0.000644086 0)
(-0.000157587 0.00064297 0)
(-0.000205516 0.000640596 0)
(-0.000253256 0.000637557 0)
(-0.000300734 0.000633889 0)
(-0.000347906 0.000629598 0)
(-0.000394724 0.000624691 0)
(-0.000441141 0.000619174 0)
(-0.000487111 0.000613055 0)
(-0.000532588 0.000606345 0)
(-0.000577526 0.000599051 0)
(-0.000621882 0.000591185 0)
(-0.000665612 0.000582758 0)
(-0.000708673 0.000573782 0)
(-0.000751024 0.00056427 0)
(-0.000792624 0.000554235 0)
(-0.000833433 0.000543692 0)
(-0.000873414 0.000532655 0)
(-0.000912527 0.00052114 0)
(-0.000950738 0.000509163 0)
(-0.00098801 0.00049674 0)
(-0.00102431 0.00048389 0)
(-0.0010596 0.000470629 0)
(-0.00109386 0.000456977 0)
(-0.00112704 0.000442953 0)
(-0.00115913 0.000428576 0)
(-0.00119009 0.000413867 0)
(-0.00121989 0.000398847 0)
(-0.00124851 0.000383539 0)
(-0.00127592 0.000367963 0)
(-0.0013021 0.000352145 0)
(-0.00132702 0.000336107 0)
(-0.00135065 0.000319875 0)
(-0.00137298 0.000303475 0)
(-0.00139397 0.000286934 0)
(-0.0014136 0.00027028 0)
(-0.00143186 0.000253541 0)
(-0.00144871 0.000236748 0)
(-0.00146412 0.000219931 0)
(-0.00147807 0.000203123 0)
(-0.00149052 0.000186357 0)
(-0.00150144 0.000169664 0)
(-0.0015108 0.000153078 0)
(-0.00151854 0.000136632 0)
(-0.00152463 0.000120354 0)
(-0.00152899 0.000104272 0)
(-0.00153158 8.84082e-05 0)
(-0.00153232 7.27761e-05 0)
(-0.00153113 5.73799e-05 0)
(-0.00152793 4.22093e-05 0)
(-0.00152262 2.72362e-05 0)
(-0.00151512 1.24098e-05 0)
(-0.00150533 -2.34744e-06 0)
(-0.00149318 -1.71425e-05 0)
(-0.0014786 -3.21143e-05 0)
(-0.00146157 -4.74299e-05 0)
(-0.00144211 -6.32816e-05 0)
(-0.00142028 -7.98697e-05 0)
(-1.7325e-05 0.0005464 0)
(-6.09106e-05 0.000682425 0)
(-0.000111299 0.00069253 0)
(-0.000159756 0.000691325 0)
(-0.000208344 0.000688766 0)
(-0.000256739 0.000685492 0)
(-0.000304867 0.000681539 0)
(-0.000352682 0.000676915 0)
(-0.000400137 0.000671626 0)
(-0.000447183 0.000665681 0)
(-0.000493772 0.000659087 0)
(-0.000539859 0.000651856 0)
(-0.000585397 0.000643996 0)
(-0.000630341 0.00063552 0)
(-0.000674647 0.00062644 0)
(-0.000718272 0.000616768 0)
(-0.000761173 0.000606518 0)
(-0.000803308 0.000595705 0)
(-0.000844638 0.000584345 0)
(-0.000885123 0.000572452 0)
(-0.000924725 0.000560043 0)
(-0.000963407 0.000547136 0)
(-0.00100113 0.000533749 0)
(-0.00103787 0.0005199 0)
(-0.00107358 0.000505608 0)
(-0.00110823 0.000490892 0)
(-0.00114179 0.000475774 0)
(-0.00117424 0.000460273 0)
(-0.00120553 0.000444412 0)
(-0.00123565 0.000428211 0)
(-0.00126456 0.000411695 0)
(-0.00129224 0.000394886 0)
(-0.00131866 0.000377808 0)
(-0.0013438 0.000360486 0)
(-0.00136762 0.000342945 0)
(-0.00139011 0.000325211 0)
(-0.00141124 0.000307312 0)
(-0.00143099 0.000289274 0)
(-0.00144933 0.000271126 0)
(-0.00146623 0.000252897 0)
(-0.00148166 0.000234616 0)
(-0.0014956 0.000216313 0)
(-0.00150801 0.000198019 0)
(-0.00151887 0.000179762 0)
(-0.00152812 0.000161571 0)
(-0.00153574 0.000143475 0)
(-0.00154167 0.000125497 0)
(-0.00154586 0.000107659 0)
(-0.00154826 8.9975e-05 0)
(-0.0015488 7.2454e-05 0)
(-0.00154742 5.5094e-05 0)
(-0.00154405 3.78802e-05 0)
(-0.00153862 2.07827e-05 0)
(-0.00153105 3.75272e-06 0)
(-0.00152128 -1.32788e-05 0)
(-0.00150927 -3.04038e-05 0)
(-0.00149496 -4.77364e-05 0)
(-0.00147836 -6.54102e-05 0)
(-0.0014595 -8.35728e-05 0)
(-0.00143844 -0.000102375 0)
(-1.7577e-05 0.000585201 0)
(-6.17991e-05 0.000730847 0)
(-0.000112925 0.000741661 0)
(-0.000162089 0.000740366 0)
(-0.000211386 0.000737619 0)
(-0.000260485 0.000734103 0)
(-0.000309311 0.000729859 0)
(-0.000357819 0.000724895 0)
(-0.000405958 0.000719218 0)
(-0.00045368 0.000712835 0)
(-0.000500936 0.000705758 0)
(-0.000547679 0.000697995 0)
(-0.000593862 0.000689558 0)
(-0.000639438 0.00068046 0)
(-0.000684364 0.000670713 0)
(-0.000728594 0.000660331 0)
(-0.000772086 0.000649329 0)
(-0.000814797 0.000637723 0)
(-0.000856687 0.000625529 0)
(-0.000897715 0.000612764 0)
(-0.000937843 0.000599445 0)
(-0.000977032 0.000585591 0)
(-0.00101525 0.00057122 0)
(-0.00105245 0.000556353 0)
(-0.00108861 0.00054101 0)
(-0.00112369 0.000525211 0)
(-0.00115766 0.000508977 0)
(-0.00119049 0.000492331 0)
(-0.00122215 0.000475295 0)
(-0.00125261 0.000457891 0)
(-0.00128184 0.000440144 0)
(-0.00130981 0.000422077 0)
(-0.0013365 0.000403715 0)
(-0.00136188 0.000385084 0)
(-0.00138593 0.000366207 0)
(-0.00140861 0.000347113 0)
(-0.00142991 0.000327828 0)
(-0.00144979 0.000308378 0)
(-0.00146824 0.000288792 0)
(-0.00148522 0.000269098 0)
(-0.0015007 0.000249323 0)
(-0.00151466 0.000229495 0)
(-0.00152707 0.000209643 0)
(-0.00153789 0.000189794 0)
(-0.00154709 0.000169972 0)
(-0.00155462 0.000150201 0)
(-0.00156044 0.000130503 0)
(-0.00156452 0.000110893 0)
(-0.00156679 9.13822e-05 0)
(-0.0015672 7.19752e-05 0)
(-0.0015657 5.26668e-05 0)
(-0.00156224 3.34408e-05 0)
(-0.00155675 1.42684e-05 0)
(-0.00154918 -4.89596e-06 0)
(-0.00153949 -2.41105e-05 0)
(-0.00152763 -4.34527e-05 0)
(-0.0015136 -6.30152e-05 0)
(-0.00149741 -8.29033e-05 0)
(-0.00147907 -0.00010323 0)
(-0.00145867 -0.000124109 0)
(-1.7847e-05 0.000624583 0)
(-6.27515e-05 0.000779998 0)
(-0.000114668 0.000791531 0)
(-0.00016459 0.000790143 0)
(-0.000214646 0.000787203 0)
(-0.0002645 0.000783441 0)
(-0.000314075 0.0007789 0)
(-0.000363324 0.000773589 0)
(-0.000412197 0.000767514 0)
(-0.000460643 0.000760685 0)
(-0.000508613 0.000753113 0)
(-0.000556059 0.000744807 0)
(-0.000602932 0.000735781 0)
(-0.000649187 0.000726047 0)
(-0.000694776 0.00071562 0)
(-0.000739655 0.000704514 0)
(-0.00078378 0.000692745 0)
(-0.000827108 0.000680329 0)
(-0.000869598 0.000667284 0)