0 	-7.25437e-09
1.57135 	-5.81748e-06
3.1427 	-3.15533e-05
4.71405 	-0.000101543
6.28539 	-0.00030262
7.85674 	-0.00107539
9.42809 	-0.0036745
10.9994 	-0.00475978
12.5708 	-0.00418892
14.1421 	0.250403
