0 	0 	0 	0
1.57135 	-0.00250537 	0.00250024 	0
3.1427 	-0.00524947 	0.00537188 	0
4.71405 	-0.0081064 	0.00868639 	0
6.28539 	-0.0111254 	0.013883 	0
7.85674 	-0.0110914 	0.0253649 	0
9.42809 	0.0109346 	0.0373238 	0
10.9994 	0.0281534 	0.0104474 	0
12.5708 	0.0126276 	0.00092098 	0
14.1421 	0.5 	0 	0
