/*--------------------------------*- C++ -*----------------------------------*\
  =========                 |
  \\      /  F ield         | OpenFOAM: The Open Source CFD Toolbox
   \\    /   O peration     | Website:  https://openfoam.org
    \\  /    A nd           | Version:  8
     \\/     M anipulation  |
\*---------------------------------------------------------------------------*/
FoamFile
{
    version     2.0;
    format      ascii;
    class       volScalarField;
    location    "0.518";
    object      T;
}
// * * * * * * * * * * * * * * * * * * * * * * * * * * * * * * * * * * * * * //

dimensions      [0 0 0 1 0 0 0];

internalField   nonuniform List<scalar> 
100
(
49.995
4.9358
-4.80958
-1.80999
1.15337
1.34563
0.229479
-0.568936
-0.926786
-0.563834
95.0607
49.9162
11.5827
-4.23449
-4.4174
-0.415961
1.82519
1.91939
1.09394
0.272873
104.847
88.503
49.9145
14.2381
-3.54692
-5.9217
-1.92141
1.36003
3.09447
2.0339
101.834
104.64
85.4985
49.4967
16.5161
-1.61057
-6.03706
-4.3154
-1.24271
0.289925
98.8027
104.55
103.646
83.2354
49.837
19.0675
0.119783
-6.60237
-7.45283
-3.85295
98.5699
99.94
106.432
102.881
80.9593
49.044
20.1273
3.10499
-5.29035
-4.54698
99.732
97.284
102.451
108.225
100.491
77.1864
47.6068
23.4929
7.8894
0.736199
100.624
97.7894
98.5695
104.922
107.124
96.5303
75.0922
49.5558
30.3976
12.1749
101.082
99.2129
96.2159
100.263
107.912
107.282
94.0572
69.2106
48.5988
21.7934
100.792
101.809
96.2337
94.3744
103.076
111.873
110.779
90.2664
71.5644
35.1449
)
;

boundaryField
{
    left
    {
        type            fixedValue;
        value           uniform 100;
    }
    right
    {
        type            zeroGradient;
    }
    up
    {
        type            zeroGradient;
    }
    down
    {
        type            fixedValue;
        value           uniform 0;
    }
    frontAndBack
    {
        type            empty;
    }
}


// ************************************************************************* //
