/*--------------------------------*- C++ -*----------------------------------*\
  =========                 |
  \\      /  F ield         | OpenFOAM: The Open Source CFD Toolbox
   \\    /   O peration     | Website:  https://openfoam.org
    \\  /    A nd           | Version:  8
     \\/     M anipulation  |
\*---------------------------------------------------------------------------*/
FoamFile
{
    version     2.0;
    format      ascii;
    class       volScalarField;
    location    "0.15";
    object      p;
}
// * * * * * * * * * * * * * * * * * * * * * * * * * * * * * * * * * * * * * //

dimensions      [0 2 -2 0 0 0 0];

internalField   nonuniform List<scalar> 
400
(
-3.83725e-07
-0.005819
-0.012942
-0.0183799
-0.0203874
-0.0181899
-0.0117279
-0.00144632
0.0118614
0.0271567
0.0432344
0.0587965
0.0725388
0.0832605
0.090003
0.0922224
0.0899927
0.0842263
0.0768788
0.071076
0.00576341
-0.00022427
-0.00579789
-0.0095259
-0.0105746
-0.00840463
-0.00294242
0.00549715
0.0163181
0.028717
0.0417442
0.0543702
0.0655625
0.0743814
0.0800915
0.0822917
0.081062
0.0770512
0.0712828
0.0653374
0.0133008
0.00501525
-0.00100116
-0.00441939
-0.00526207
-0.0032489
0.00161851
0.0090421
0.0185126
0.0293541
0.0407636
0.0518615
0.0617555
0.069621
0.0747925
0.0768683
0.0758399
0.0720946
0.0658266
0.0575708
0.0200906
0.00866758
0.00121158
-0.00267306
-0.0037193
-0.00187754
0.00274166
0.00979538
0.0187897
0.0291014
0.0399945
0.0506526
0.0602284
0.0679103
0.0729991
0.0750023
0.0737746
0.0694755
0.0616361
0.0501539
0.0244446
0.00973904
0.000570823
-0.00399586
-0.00530348
-0.00350284
0.00118313
0.00834514
0.0174731
0.0279594
0.0390933
0.0500759
0.060053
0.0681687
0.0736318
0.0758079
0.0743869
0.0693182
0.0595689
0.0446014
0.02512
0.0071161
-0.00382087
-0.00906621
-0.0105132
-0.00849464
-0.00334646
0.00444339
0.0143295
0.0256958
0.0378299
0.049918
0.0610614
0.0703161
0.0767491
0.0795354
0.0781644
0.0723691
0.0605897
0.0419622
0.0210443
-0.000289696
-0.0129481
-0.0187138
-0.0200264
-0.0174037
-0.0113023
-0.00229896
0.00901445
0.0220019
0.0359355
0.0499692
0.0631357
0.0743679
0.0825451
0.0865956
0.0857525
0.0794875
0.0656745
0.0431463
0.0111108
-0.0136328
-0.0278786
-0.0338499
-0.0345919
-0.030839
-0.0231881
-0.0123149
0.00113919
0.0165206
0.0330898
0.04997
0.066118
0.0803227
0.0912327
0.0974632
0.0979071
0.0916794
0.0759508
0.0491883
-0.00597498
-0.0342634
-0.0498596
-0.0555322
-0.0550676
-0.0494856
-0.039558
-0.0260719
-0.009711
0.00887196
0.0289507
0.0496421
0.0698437
0.0881977
0.103088
0.112741
0.115591
0.110236
0.0928862
0.0614757
-0.0318366
-0.0638525
-0.0803904
-0.0849771
-0.0823854
-0.0740379
-0.0609342
-0.0439837
-0.0238935
-0.00127573
0.0232076
0.0487216
0.0741528
0.0980251
0.118444
0.133171
0.140032
0.136862
0.118488
0.0819869
-0.0686177
-0.104559
-0.121302
-0.123547
-0.117469
-0.105076
-0.0876615
-0.0662625
-0.0415687
-0.0140838
0.0156783
0.0470241
0.0789224
0.109854
0.137679
0.159635
0.172772
0.17382
0.15556
0.11361
-0.119326
-0.159294
-0.174858
-0.172703
-0.161093
-0.142871
-0.119695
-0.0927072
-0.0625019
-0.0293683
0.0064535
0.0445517
0.0841284
0.123769
0.161195
0.193137
0.215712
0.224115
0.208082
0.160657
-0.188533
-0.232166
-0.243873
-0.233888
-0.213636
-0.187094
-0.156307
-0.122429
-0.0858195
-0.0463894
-0.00393041
0.0416205
0.0899182
0.139898
0.189378
0.234739
0.271116
0.291697
0.281764
0.229784
-0.283869
-0.329223
-0.331764
-0.30822
-0.274653
-0.236383
-0.195703
-0.153541
-0.109764
-0.0636637
-0.0143546
0.0389443
0.096629
0.158343
0.22243
0.285334
0.341433
0.381601
0.384926
0.331828
-0.419215
-0.459593
-0.442288
-0.39574
-0.342083
-0.287693
-0.234564
-0.18287
-0.13154
-0.0789093
-0.0231356
0.0375516
0.104623
0.178898
0.259911
0.345009
0.428644
0.499718
0.529678
0.485373
-0.620441
-0.636677
-0.578628
-0.494157
-0.411211
-0.335628
-0.267743
-0.20593
-0.147478
-0.0893165
-0.0283555
0.0384175
0.11387
0.200525
0.300017
0.412055
0.533049
0.651784
0.732767
0.722368
-0.935856
-0.878468
-0.741712
-0.597932
-0.474383
-0.372648
-0.288849
-0.217731
-0.153908
-0.0924084
-0.0286558
0.0417575
0.12332
0.220765
0.338961
0.482178
0.652009
0.841344
1.01526
1.09747
-1.47638
-1.2066
-0.920494
-0.691392
-0.517315
-0.387551
-0.290059
-0.213321
-0.148092
-0.0871709
-0.0245243
0.0455139
0.128991
0.233117
0.367137
0.5427
0.771302
1.05932
1.40328
1.73011
-2.53963
-1.63054
-1.04445
-0.710981
-0.495779
-0.352119
-0.254546
-0.183583
-0.126151
-0.07356
-0.0192208
0.0428427
0.119269
0.218835
0.354855
0.548014
0.82641
1.23659
1.91167
2.92417
-4.36666
-2.04464
-0.973565
-0.563222
-0.357897
-0.240197
-0.170158
-0.123803
-0.0874779
-0.0534835
-0.0166074
0.0277223
0.0846766
0.161799
0.272474
0.44215
0.718255
1.22573
2.41104
4.84852
)
;

boundaryField
{
    movingWall
    {
        type            zeroGradient;
    }
    fixedWalls
    {
        type            zeroGradient;
    }
    frontAndBack
    {
        type            empty;
    }
}


// ************************************************************************* //
