/*--------------------------------*- C++ -*----------------------------------*\
  =========                 |
  \\      /  F ield         | OpenFOAM: The Open Source CFD Toolbox
   \\    /   O peration     | Website:  https://openfoam.org
    \\  /    A nd           | Version:  8
     \\/     M anipulation  |
\*---------------------------------------------------------------------------*/
FoamFile
{
    version     2.0;
    format      ascii;
    class       surfaceScalarField;
    location    "0.15";
    object      phi;
}
// * * * * * * * * * * * * * * * * * * * * * * * * * * * * * * * * * * * * * //

dimensions      [0 3 -1 0 0 0 0];

internalField   nonuniform List<scalar> 
760
(
1.42179e-08
-1.42151e-08
-2.21735e-08
3.63929e-08
-1.14071e-07
9.18968e-08
-2.45052e-07
1.30981e-07
-3.95371e-07
1.50318e-07
-5.46348e-07
1.50977e-07
-6.8191e-07
1.35562e-07
-7.89176e-07
1.07266e-07
-8.58591e-07
6.94148e-08
-8.83986e-07
2.53946e-08
-8.6272e-07
-2.12659e-08
-7.95935e-07
-6.67859e-08
-6.88853e-07
-1.07083e-07
-5.51014e-07
-1.37839e-07
-3.9628e-07
-1.54734e-07
-2.42367e-07
-1.53914e-07
-1.09581e-07
-1.32787e-07
-1.8409e-08
-9.11714e-08
1.56535e-08
-3.40621e-08
1.56537e-08
-3.41418e-08
1.99258e-08
-1.80023e-07
1.82273e-07
-4.33152e-07
3.45027e-07
-7.62957e-07
4.60786e-07
-1.13002e-06
5.17376e-07
-1.49433e-06
5.1529e-07
-1.81978e-06
4.61014e-07
-2.07648e-06
3.63963e-07
-2.24191e-06
2.34844e-07
-2.30159e-06
8.50714e-08
-2.24959e-06
-7.32625e-08
-2.0891e-06
-2.27277e-07
-1.83285e-06
-3.63329e-07
-1.5033e-06
-4.6739e-07
-1.13207e-06
-5.2597e-07
-7.5821e-07
-5.27772e-07
-4.2469e-07
-4.66307e-07
-1.72417e-07
-3.43445e-07
-3.07588e-08
-1.75721e-07
-1.51051e-08
-9.20416e-08
1.11967e-07
-3.563e-07
4.46531e-07
-7.63082e-07
7.51809e-07
-1.26604e-06
9.63747e-07
-1.8112e-06
1.06253e-06
-2.34451e-06
1.0486e-06
-2.81698e-06
9.33487e-07
-3.18779e-06
7.34765e-07
-3.42602e-06
4.7308e-07
-3.51181e-06
1.70858e-07
-3.43708e-06
-1.47993e-07
-3.20628e-06
-4.58078e-07
-2.8369e-06
-7.32708e-07
-2.35955e-06
-9.44739e-07
-1.8171e-06
-1.06842e-06
-1.2623e-06
-1.08257e-06
-7.53244e-07
-9.75365e-07
-3.46392e-07
-7.50297e-07
-8.71919e-08
-4.34921e-07
-1.02297e-07
-1.44932e-07
2.56899e-07
-5.24486e-07
8.26084e-07
-1.07965e-06
1.30697e-06
-1.74432e-06
1.62842e-06
-2.44986e-06
1.76807e-06
-3.13066e-06
1.7294e-06
-3.72849e-06
1.53132e-06
-4.19528e-06
1.20155e-06
-4.49479e-06
7.72588e-07
-4.60367e-06
2.79735e-07
-4.51225e-06
-2.39412e-07
-4.22534e-06
-7.44991e-07
-3.76288e-06
-1.19516e-06
-3.16029e-06
-1.54733e-06
-2.46777e-06
-1.76093e-06
-1.74821e-06
-1.80214e-06
-1.07278e-06
-1.6508e-06
-5.14315e-07
-1.30876e-06
-1.3909e-07
-8.10146e-07
-2.41387e-07
-1.93274e-07
4.50175e-07
-6.83859e-07
1.31667e-06
-1.38335e-06
2.00646e-06
-2.20364e-06
2.44871e-06
-3.06047e-06
2.6249e-06
-3.87745e-06
2.54638e-06
-4.58902e-06
2.24289e-06
-5.14222e-06
1.75475e-06
-5.49756e-06
1.12792e-06
-5.62949e-06
4.11673e-07
-5.52699e-06
-3.41914e-07
-5.19426e-06
-1.07773e-06
-4.65173e-06
-1.73769e-06
-3.93701e-06
-2.26205e-06
-3.1051e-06
-2.59284e-06
-2.22725e-06
-2.67999e-06
-1.38764e-06
-2.49041e-06
-6.77524e-07
-2.01888e-06
-1.87493e-07
-1.30018e-06
-4.2888e-07
-2.39592e-07
6.89766e-07
-8.39174e-07
1.91625e-06
-1.68097e-06
2.84826e-06
-2.65341e-06
3.42116e-06
-3.65582e-06
3.62731e-06
-4.60145e-06
3.49201e-06
-5.41891e-06
3.06035e-06
-6.05227e-06
2.38811e-06
-6.46054e-06
1.53619e-06
-6.6171e-06
5.68233e-07
-6.50962e-06
-4.49393e-07
-6.14072e-06
-1.44663e-06
-5.5294e-06
-2.34901e-06
-4.71295e-06
-3.0785e-06
-3.7488e-06
-3.55699e-06
-2.71516e-06
-3.71363e-06
-1.70947e-06
-3.4961e-06
-8.43645e-07
-2.88471e-06
-2.35889e-07
-1.90793e-06
-6.6477e-07
-2.86425e-07
9.76191e-07
-9.96013e-07
2.62584e-06
-1.97998e-06
3.83222e-06
-3.10165e-06
4.54283e-06
-4.24343e-06
4.76909e-06
-5.30913e-06
4.55771e-06
-6.22343e-06
3.97464e-06
-6.92972e-06
3.0944e-06
-7.38757e-06
1.99404e-06
-7.57057e-06
7.51235e-07
-7.46532e-06
-5.54645e-07
-7.0718e-06
-1.84014e-06
-6.40539e-06
-3.01542e-06
-5.50013e-06
-3.98376e-06
-4.41278e-06
-4.64434e-06
-3.2263e-06
-4.90011e-06
-2.05103e-06
-4.67137e-06
-1.02158e-06
-3.91415e-06
-2.88007e-07
-2.64151e-06
-9.52777e-07
-3.36078e-07
1.31227e-06
-1.15952e-06
3.44928e-06
-2.28636e-06
4.95905e-06
-3.5524e-06
5.80887e-06
-4.82305e-06
6.03974e-06
-5.99457e-06
5.72923e-06
-6.99073e-06
4.9708e-06
-7.7576e-06
3.86127e-06
-8.25818e-06
2.49461e-06
-8.46818e-06
9.61235e-07
-8.37367e-06
-6.49156e-07
-7.971e-06
-2.24281e-06
-7.26931e-06
-3.71711e-06
-6.2955e-06
-4.95757e-06
-5.10115e-06
-5.83869e-06
-3.76998e-06
-6.23127e-06
-2.42328e-06
-6.01807e-06
-1.21994e-06
-5.11749e-06
-3.47476e-07
-3.51397e-06
-1.30025e-06
-3.90802e-07
1.70307e-06
-1.33436e-06
4.39284e-06
-2.60395e-06
6.22863e-06
-4.00432e-06
7.20925e-06
-5.38456e-06
7.41999e-06
-6.63689e-06
6.98156e-06
-7.68903e-06
6.02295e-06
-8.49464e-06
4.66687e-06
-9.0243e-06
3.02428e-06
-9.25869e-06
1.19562e-06
-9.18447e-06
-7.23376e-07
-8.79352e-06
-2.63375e-06
-8.08579e-06
-4.42485e-06
-7.07595e-06
-5.96741e-06
-5.80386e-06
-7.11078e-06
-4.34724e-06
-7.6879e-06
-2.83366e-06
-7.53166e-06
-1.44651e-06
-6.50463e-06
-4.17928e-07
-4.54255e-06
-1.71818e-06
-4.53416e-07
2.15649e-06
-1.52555e-06
5.46498e-06
-2.9346e-06
7.63768e-06
-4.44965e-06
8.72429e-06
-5.90564e-06
8.87598e-06
-7.19689e-06
8.27282e-06
-8.26251e-06
7.08857e-06
-9.07072e-06
5.47508e-06
-9.60536e-06
3.55892e-06
-9.85598e-06
1.44624e-06
-9.81176e-06
-7.6759e-07
-9.45974e-06
-2.98577e-06
-8.78757e-06
-5.09703e-06
-7.79162e-06
-6.96336e-06
-6.49105e-06
-8.41135e-06
-4.94708e-06
-9.23187e-06
-3.28451e-06
-9.19422e-06
-1.70836e-06
-8.08079e-06
-5.03491e-07
-5.74742e-06
-2.22167e-06
-5.28424e-07
2.68491e-06
-1.73994e-06
6.67649e-06
-3.27849e-06
9.17623e-06
-4.87237e-06
1.03182e-05
-6.34796e-06
1.03516e-05
-7.61192e-06
9.53678e-06
-8.62555e-06
8.10219e-06
-9.38092e-06
6.23044e-06
-9.8822e-06
4.0602e-06
-1.01327e-05
1.6967e-06
-1.01268e-05
-7.73472e-07
-9.84715e-06
-3.26539e-06
-9.26661e-06
-5.67757e-06
-8.35675e-06
-7.87322e-06
-7.10493e-06
-9.66318e-06
-5.54079e-06
-1.0796e-05
-3.77071e-06
-1.09643e-05
-2.01215e-06
-9.83935e-06
-6.09674e-07
-7.14989e-06
-2.83135e-06
-6.23872e-07
3.30878e-06
-1.98805e-06
8.04067e-06
-3.63317e-06
1.08213e-05
-5.24382e-06
1.19288e-05
-6.65007e-06
1.17578e-05
-7.78751e-06
1.06742e-05
-8.65446e-06
8.96915e-06
-9.27804e-06
6.85402e-06
-9.69039e-06
4.47256e-06
-9.91363e-06
1.91994e-06
-9.95084e-06
-7.36259e-07
-9.78184e-06
-3.43439e-06
-9.36367e-06
-6.09574e-06
-8.63785e-06
-8.59904e-06
-7.54803e-06
-1.0753e-05
-6.07268e-06
-1.22714e-05
-4.2749e-06
-1.27621e-05
-2.36393e-06
-1.17503e-05
-7.44847e-07
-8.76898e-06
-3.57619e-06
-7.54378e-07
4.06316e-06
-2.28533e-06
9.57162e-06
-3.98888e-06
1.25249e-05
-5.51193e-06
1.34519e-05
-6.7134e-06
1.29593e-05
-7.58322e-06
1.1544e-05
-8.17543e-06
9.56136e-06
-8.56352e-06
7.2421e-06
-8.81389e-06
4.72293e-06
-8.97123e-06
2.07728e-06
-9.05031e-06
-6.57186e-07
-9.0312e-06
-3.4535e-06
-8.85735e-06
-6.2696e-06
-8.43872e-06
-9.01767e-06
-7.66588e-06
-1.15258e-05
-6.44405e-06
-1.34932e-05
-4.75748e-06
-1.44487e-05
-2.76732e-06
-1.37405e-05
-9.22586e-07
-1.06137e-05
-4.49878e-06
-9.45566e-07
5.00873e-06
-2.64967e-06
1.12757e-05
-4.31325e-06
1.41885e-05
-5.57676e-06
1.47154e-05
-6.37536e-06
1.37579e-05
-6.78907e-06
1.19577e-05
-6.94723e-06
9.71952e-06
-6.97717e-06
7.27204e-06
-6.98063e-06
4.72639e-06
-7.02443e-06
2.12109e-06
-7.13628e-06
-5.45333e-07
-7.30087e-06
-3.28892e-06
-7.4549e-06
-6.11557e-06
-7.48309e-06
-8.98948e-06
-7.22195e-06
-1.1787e-05
-6.48557e-06
-1.42296e-05
-5.13515e-06
-1.57991e-05
-3.2158e-06
-1.56598e-05
-1.16461e-06
-1.26649e-05
-5.66339e-06
-1.23768e-06
6.24641e-06
-3.08451e-06
1.31225e-05
-4.51008e-06
1.56141e-05
-5.23817e-06
1.54435e-05
-5.36026e-06
1.388e-05
-5.08816e-06
1.16856e-05
-4.63833e-06
9.26969e-06
-4.18754e-06
6.82125e-06
-3.86317e-06
4.40202e-06
-3.746e-06
2.00391e-06
-3.87388e-06
-4.17446e-07
-4.2408e-06
-2.92199e-06
-4.78933e-06
-5.56704e-06
-5.39714e-06
-8.38167e-06
-5.86323e-06
-1.13209e-05
-5.90993e-06
-1.41829e-05
-5.23489e-06
-1.64741e-05
-3.66727e-06
-1.72274e-05
-1.50036e-06
-1.48318e-05
-7.16374e-06
-1.67413e-06
7.92054e-06
-3.51447e-06
1.49629e-05
-4.31751e-06
1.64171e-05
-4.09237e-06
1.52184e-05
-3.19792e-06
1.29855e-05
-2.00495e-06
1.04927e-05
-8.02544e-07
8.06729e-06
2.10995e-07
5.80771e-06
9.09277e-07
3.70374e-06
1.21642e-06
1.69677e-06
1.09305e-06
-2.94074e-07
5.32602e-07
-2.36155e-06
-4.30481e-07
-4.60396e-06
-1.69893e-06
-7.11321e-06
-3.07741e-06
-9.9424e-06
-4.2344e-06
-1.30259e-05
-4.69788e-06
-1.60106e-05
-3.96827e-06
-1.7957e-05
-1.94523e-06
-1.68549e-05
-9.10898e-06
-2.23092e-06
1.01515e-05
-3.59115e-06
1.63231e-05
-3.07956e-06
1.59055e-05
-1.34681e-06
1.34856e-05
8.92822e-07
1.07459e-05
3.14947e-06
8.23602e-06
5.13145e-06
6.08531e-06
6.68109e-06
4.25808e-06
7.71759e-06
2.66723e-06
8.19804e-06
1.21632e-06
8.0955e-06
-1.91527e-07
7.39113e-06
-1.65719e-06
6.07978e-06
-3.29261e-06
4.19319e-06
-5.22662e-06
1.84942e-06
-7.59862e-06
-6.65121e-07
-1.05113e-05
-2.79431e-06
-1.38814e-05
-3.66315e-06
-1.70882e-05
-2.41184e-06
-1.81062e-05
-1.15208e-05
-2.57392e-06
1.27254e-05
-2.18396e-06
1.59332e-05
7.16883e-07
1.30047e-05
4.46746e-06
9.73503e-06
8.13011e-06
7.08324e-06
1.12973e-05
5.06884e-06
1.38238e-05
3.55882e-06
1.56819e-05
2.39992e-06
1.68849e-05
1.46423e-06
1.74479e-05
6.53369e-07
1.73695e-05
-1.1309e-07
1.6624e-05
-9.11725e-07
1.51614e-05
-1.82997e-06
1.29186e-05
-2.98386e-06
9.85787e-06
-4.5379e-06
6.05917e-06
-6.71263e-06
1.91058e-06
-9.73286e-06
-1.5605e-06
-1.36171e-05
-2.45859e-06
-1.72081e-05
-1.39794e-05
-7.85006e-07
1.35104e-05
4.08063e-06
1.10675e-05
1.0297e-05
6.7883e-06
1.57925e-05
4.23955e-06
2.01561e-05
2.71959e-06
2.34553e-05
1.7696e-06
2.58573e-05
1.15682e-06
2.75175e-05
7.39803e-07
2.85496e-05
4.32134e-07
2.90218e-05
1.81165e-07
2.89576e-05
-4.89354e-08
2.83344e-05
-2.88563e-07
2.7078e-05
-5.73534e-07
2.50518e-05
-9.57702e-07
2.20492e-05
-1.53525e-06
1.78137e-05
-2.47714e-06
1.21713e-05
-4.09043e-06
5.47719e-06
-6.92304e-06
-1.29308e-07
-1.16016e-05
-1.41087e-05
1.35104e-05
2.45779e-05
3.13662e-05
3.56058e-05
3.83254e-05
4.0095e-05
4.12518e-05
4.19916e-05
4.24237e-05
4.26049e-05
4.25559e-05
4.22674e-05
4.16939e-05
4.07361e-05
3.92009e-05
3.67238e-05
3.26333e-05
2.57103e-05
1.41087e-05
)
;

boundaryField
{
    movingWall
    {
        type            calculated;
        value           uniform 0;
    }
    fixedWalls
    {
        type            calculated;
        value           uniform 0;
    }
    frontAndBack
    {
        type            empty;
        value           nonuniform List<scalar> 0();
    }
}


// ************************************************************************* //
