0 	-3.29395e-07
1.57135 	-4.55634e-06
3.1427 	-2.9195e-05
4.71405 	-0.000110174
6.28539 	-0.000340393
7.85674 	-0.00103201
9.42809 	-0.00305433
10.9994 	-0.00469124
12.5708 	-0.00387961
14.1421 	0.250606
