/*--------------------------------*- C++ -*----------------------------------*\
  =========                 |
  \\      /  F ield         | OpenFOAM: The Open Source CFD Toolbox
   \\    /   O peration     | Website:  https://openfoam.org
    \\  /    A nd           | Version:  8
     \\/     M anipulation  |
\*---------------------------------------------------------------------------*/
FoamFile
{
    version     2.0;
    format      ascii;
    class       surfaceScalarField;
    location    "18.5";
    object      phi;
}
// * * * * * * * * * * * * * * * * * * * * * * * * * * * * * * * * * * * * * //

dimensions      [0 3 -1 0 0 0 0];

internalField   nonuniform List<scalar> 
22960
(
-1.50903e-07
1.50898e-07
-5.11817e-07
3.60915e-07
-9.37192e-07
4.25375e-07
-1.37645e-06
4.39253e-07
-1.81652e-06
4.40073e-07
-2.25536e-06
4.38845e-07
-2.6929e-06
4.37537e-07
-3.1291e-06
4.36197e-07
-3.56384e-06
4.34738e-07
-3.99695e-06
4.33112e-07
-4.42824e-06
4.31296e-07
-4.85752e-06
4.29277e-07
-5.28457e-06
4.2705e-07
-5.70918e-06
4.2461e-07
-6.13113e-06
4.21954e-07
-6.55021e-06
4.19081e-07
-6.9662e-06
4.15987e-07
-7.37887e-06
4.12671e-07
-7.788e-06
4.09132e-07
-8.19337e-06
4.05367e-07
-8.59475e-06
4.01375e-07
-8.9919e-06
3.97154e-07
-9.3846e-06
3.92704e-07
-9.77263e-06
3.88024e-07
-1.01557e-05
3.83113e-07
-1.05337e-05
3.77973e-07
-1.09063e-05
3.72605e-07
-1.12733e-05
3.6701e-07
-1.16345e-05
3.61192e-07
-1.19897e-05
3.55156e-07
-1.23386e-05
3.48908e-07
-1.2681e-05
3.42458e-07
-1.30169e-05
3.35815e-07
-1.33459e-05
3.28995e-07
-1.36679e-05
3.22017e-07
-1.39828e-05
3.14903e-07
-1.42905e-05
3.07684e-07
-1.45908e-05
3.00396e-07
-1.48839e-05
2.93087e-07
-1.51698e-05
2.85817e-07
-1.54484e-05
2.78661e-07
-1.57201e-05
2.71714e-07
-1.59852e-05
2.65099e-07
-1.62442e-05
2.58976e-07
-1.64978e-05
2.5355e-07
-1.67468e-05
2.49092e-07
-1.69928e-05
2.45967e-07
-1.72375e-05
2.44666e-07
-1.74833e-05
2.45868e-07
-1.77339e-05
2.5053e-07
-1.79939e-05
2.6003e-07
-1.82703e-05
2.76419e-07
-1.85732e-05
3.02877e-07
-1.89177e-05
3.44548e-07
-1.93286e-05
4.10861e-07
-1.98527e-05
5.24073e-07
-2.05904e-05
7.37688e-07
-2.17655e-05
1.17512e-06
-2.47232e-05
2.95769e-06
6.86685e-06
-3.159e-05
-3.63552e-07
5.1445e-07
-1.03905e-06
1.03641e-06
-1.81133e-06
1.19765e-06
-2.60628e-06
1.23421e-06
-3.40464e-06
1.23842e-06
-4.20203e-06
1.23624e-06
-4.99723e-06
1.23273e-06
-5.78961e-06
1.22858e-06
-6.57867e-06
1.2238e-06
-7.36394e-06
1.21838e-06
-8.14495e-06
1.2123e-06
-8.92122e-06
1.20555e-06
-9.6923e-06
1.19813e-06
-1.04577e-05
1.19002e-06
-1.1217e-05
1.18123e-06
-1.19697e-05
1.17175e-06
-1.27153e-05
1.16159e-06
-1.34533e-05
1.15074e-06
-1.41834e-05
1.1392e-06
-1.4905e-05
1.12697e-06
-1.56177e-05
1.11405e-06
-1.6321e-05
1.10044e-06
-1.70144e-05
1.08616e-06
-1.76976e-05
1.07119e-06
-1.837e-05
1.05555e-06
-1.90313e-05
1.03924e-06
-1.96809e-05
1.02227e-06
-2.03186e-05
1.00466e-06
-2.09438e-05
9.86425e-07
-2.15562e-05
9.6758e-07
-2.21555e-05
9.48151e-07
-2.27412e-05
9.2817e-07
-2.33131e-05
9.07676e-07
-2.38708e-05
8.86716e-07
-2.44141e-05
8.65349e-07
-2.49429e-05
8.43648e-07
-2.54569e-05
8.21702e-07
-2.59561e-05
7.99623e-07
-2.64406e-05
7.77549e-07
-2.69104e-05
7.55653e-07
-2.73659e-05
7.34151e-07
-2.78075e-05
7.13318e-07
-2.82359e-05
6.93504e-07
-2.86521e-05
6.75157e-07
-2.90574e-05
6.58863e-07
-2.94537e-05
6.45393e-07
-2.98435e-05
6.35779e-07
-3.02303e-05
6.3143e-07
-3.06187e-05
6.34305e-07
-3.10154e-05
6.4719e-07
-3.14295e-05
6.74157e-07
-3.18744e-05
7.21343e-07
-3.23698e-05
7.98298e-07
-3.29457e-05
9.20408e-07
-3.36493e-05
1.11443e-06
-3.45566e-05
1.43146e-06
-3.57803e-05
1.96138e-06
-3.74951e-05
2.88986e-06
-3.96812e-05
5.14376e-06
8.4935e-06
-4.13078e-05
-4.30621e-07
9.45071e-07
-1.20662e-06
1.81241e-06
-2.08723e-06
2.07826e-06
-2.99092e-06
2.1379e-06
-3.8976e-06
2.14511e-06
-4.80285e-06
2.14149e-06
-5.70537e-06
2.13525e-06
-6.60447e-06
2.12767e-06
-7.49955e-06
2.11888e-06
-8.39005e-06
2.10888e-06
-9.27541e-06
2.09766e-06
-1.01551e-05
2.08521e-06
-1.10285e-05
2.07153e-06
-1.18951e-05
2.05661e-06
-1.27543e-05
2.04046e-06
-1.36056e-05
2.02306e-06
-1.44484e-05
2.00443e-06
-1.52823e-05
1.98455e-06
-1.61065e-05
1.96345e-06
-1.69207e-05
1.94111e-06
-1.77242e-05
1.91755e-06
-1.85165e-05
1.89277e-06
-1.92971e-05
1.86679e-06
-2.00655e-05
1.8396e-06
-2.08212e-05
1.81123e-06
-2.15637e-05
1.78169e-06
-2.22924e-05
1.751e-06
-2.30069e-05
1.71919e-06
-2.37068e-05
1.68629e-06
-2.43915e-05
1.65234e-06
-2.50608e-05
1.61739e-06
-2.57141e-05
1.58149e-06
-2.63511e-05
1.54472e-06
-2.69716e-05
1.50716e-06
-2.75752e-05
1.46891e-06
-2.81616e-05
1.4301e-06
-2.87308e-05
1.39089e-06
-2.92826e-05
1.35147e-06
-2.98172e-05
1.31208e-06
-3.03345e-05
1.273e-06
-3.0835e-05
1.23462e-06
-3.1319e-05
1.19737e-06
-3.17874e-05
1.16186e-06
-3.22411e-05
1.12882e-06
-3.26814e-05
1.09922e-06
-3.31104e-05
1.07432e-06
-3.35304e-05
1.05577e-06
-3.39448e-05
1.04583e-06
-3.4358e-05
1.04756e-06
-3.4776e-05
1.06523e-06
-3.52068e-05
1.10493e-06
-3.5661e-05
1.17554e-06
-3.61531e-05
1.29034e-06
-3.67024e-05
1.46974e-06
-3.73349e-05
1.74693e-06
-3.80809e-05
2.1775e-06
-3.89659e-05
2.84632e-06
-3.99951e-05
3.91914e-06
-4.07368e-05
5.88545e-06
8.41943e-06
-4.06628e-05
-4.46284e-07
1.39136e-06
-1.24817e-06
2.6143e-06
-2.15545e-06
2.98554e-06
-3.08531e-06
3.06776e-06
-4.01785e-06
3.07764e-06
-4.94878e-06
3.07242e-06
-5.87689e-06
3.06336e-06
-6.80145e-06
3.05223e-06
-7.72184e-06
3.03928e-06
-8.63747e-06
3.02451e-06
-9.54774e-06
3.00794e-06
-1.04521e-05
2.98955e-06
-1.13499e-05
2.96934e-06
-1.22406e-05
2.94732e-06
-1.31236e-05
2.92348e-06
-1.39984e-05
2.89783e-06
-1.48643e-05
2.87037e-06
-1.57209e-05
2.84111e-06
-1.65675e-05
2.81004e-06
-1.74036e-05
2.77719e-06
-1.82286e-05
2.74255e-06
-1.90419e-05
2.70614e-06
-1.98431e-05
2.66798e-06
-2.06316e-05
2.62808e-06
-2.14068e-05
2.58646e-06
-2.21683e-05
2.54316e-06
-2.29155e-05
2.4982e-06
-2.36479e-05
2.45163e-06
-2.43651e-05
2.40349e-06
-2.50666e-05
2.35383e-06
-2.5752e-05
2.30274e-06
-2.64208e-05
2.25028e-06
-2.70726e-05
2.19657e-06
-2.77072e-05
2.14172e-06
-2.83242e-05
2.08588e-06
-2.89233e-05
2.02923e-06
-2.95044e-05
1.97198e-06
-3.00673e-05
1.91441e-06
-3.06121e-05
1.85684e-06
-3.11387e-05
1.79967e-06
-3.16475e-05
1.7434e-06
-3.21388e-05
1.68865e-06
-3.26132e-05
1.63622e-06
-3.30714e-05
1.58709e-06
-3.35147e-05
1.54253e-06
-3.39446e-05
1.5042e-06
-3.43631e-05
1.47424e-06
-3.47728e-05
1.45551e-06
-3.5177e-05
1.45184e-06
-3.55803e-05
1.46844e-06
-3.59879e-05
1.51255e-06
-3.64066e-05
1.59431e-06
-3.68445e-05
1.72816e-06
-3.73097e-05
1.93501e-06
-3.78087e-05
2.24586e-06
-3.83374e-05
2.70627e-06
-3.88697e-05
3.37862e-06
-3.93181e-05
4.36755e-06
-3.93002e-05
5.86751e-06
7.63472e-06
-3.85155e-05
-4.48614e-07
1.83997e-06
-1.25721e-06
3.4229e-06
-2.1714e-06
3.89972e-06
-3.10797e-06
4.00433e-06
-4.04703e-06
4.01671e-06
-4.98439e-06
4.00978e-06
-5.91885e-06
3.99782e-06
-6.84973e-06
3.98311e-06
-7.77641e-06
3.96595e-06
-8.69829e-06
3.94639e-06
-9.61477e-06
3.92441e-06
-1.05253e-05
3.90004e-06
-1.14292e-05
3.87326e-06
-1.23259e-05
3.84407e-06
-1.32149e-05
3.81249e-06
-1.40956e-05
3.77852e-06
-1.49674e-05
3.74216e-06
-1.58297e-05
3.70342e-06
-1.6682e-05
3.6623e-06
-1.75236e-05
3.61883e-06
-1.83541e-05
3.57302e-06
-1.91728e-05
3.52488e-06
-1.99793e-05
3.47443e-06
-2.07729e-05
3.4217e-06
-2.15532e-05
3.36672e-06
-2.23195e-05
3.30952e-06
-2.30715e-05
3.25015e-06
-2.38085e-05
3.18866e-06
-2.45301e-05
3.12511e-06
-2.52359e-05
3.05958e-06
-2.59253e-05
2.99214e-06
-2.65979e-05
2.92292e-06
-2.72534e-05
2.85203e-06
-2.78913e-05
2.77963e-06
-2.85113e-05
2.7059e-06
-2.91131e-05
2.63107e-06
-2.96966e-05
2.55541e-06
-3.02614e-05
2.47924e-06
-3.08075e-05
2.40298e-06
-3.1335e-05
2.32709e-06
-3.18438e-05
2.25221e-06
-3.23342e-05
2.17906e-06
-3.28065e-05
2.10859e-06
-3.32614e-05
2.04198e-06
-3.36996e-05
1.9807e-06
-3.41221e-05
1.92665e-06
-3.45301e-05
1.88227e-06
-3.49253e-05
1.85072e-06
-3.53096e-05
1.83615e-06
-3.56852e-05
1.84405e-06
-3.60544e-05
1.88177e-06
-3.64193e-05
1.95917e-06
-3.67807e-05
2.0896e-06
-3.71369e-05
2.29116e-06
-3.74794e-05
2.58839e-06
-3.7786e-05
3.01286e-06
-3.80112e-05
3.60385e-06
-3.80589e-05
4.41527e-06
-3.76892e-05
5.49773e-06
6.71624e-06
-3.67707e-05
-4.49045e-07
2.28901e-06
-1.26063e-06
4.23448e-06
-2.17812e-06
4.81721e-06
-3.11802e-06
4.94423e-06
-4.06033e-06
4.95902e-06
-5.00086e-06
4.95031e-06
-5.93846e-06
4.93542e-06
-6.87246e-06
4.91711e-06
-7.80225e-06
4.89574e-06
-8.72722e-06
4.87136e-06
-9.64679e-06
4.84398e-06
-1.05604e-05
4.81361e-06
-1.14673e-05
4.78024e-06
-1.23672e-05
4.74388e-06
-1.32592e-05
4.70454e-06
-1.41429e-05
4.66223e-06
-1.50177e-05
4.61694e-06
-1.5883e-05
4.5687e-06
-1.67382e-05
4.51752e-06
-1.75828e-05
4.46341e-06
-1.84161e-05
4.40639e-06
-1.92377e-05
4.34648e-06
-2.0047e-05
4.2837e-06
-2.08434e-05
4.2181e-06
-2.16264e-05
4.1497e-06
-2.23954e-05
4.07855e-06
-2.315e-05
4.0047e-06
-2.38895e-05
3.92821e-06
-2.46135e-05
3.84916e-06
-2.53216e-05
3.76763e-06
-2.60132e-05
3.68373e-06
-2.66879e-05
3.59759e-06
-2.73452e-05
3.50935e-06
-2.79848e-05
3.4192e-06
-2.86062e-05
3.32734e-06
-2.92092e-05
3.23404e-06
-2.97934e-05
3.13961e-06
-3.03585e-05
3.04442e-06
-3.09045e-05
2.94894e-06
-3.14311e-05
2.85371e-06
-3.19383e-05
2.75942e-06
-3.24262e-05
2.6669e-06
-3.28948e-05
2.57718e-06
-3.33443e-05
2.49155e-06
-3.37752e-05
2.41158e-06
-3.41879e-05
2.33929e-06
-3.45828e-05
2.2772e-06
-3.49606e-05
2.22853e-06
-3.53218e-05
2.19737e-06
-3.56667e-05
2.18898e-06
-3.59951e-05
2.21012e-06
-3.63054e-05
2.26947e-06
-3.65939e-05
2.37811e-06
-3.68528e-05
2.55003e-06
-3.70668e-05
2.8024e-06
-3.72089e-05
3.15494e-06
-3.7233e-05
3.62794e-06
-3.70579e-05
4.24027e-06
-3.655e-05
4.9898e-06
5.79653e-06
-3.56303e-05
-4.49756e-07
2.73877e-06
-1.26396e-06
5.04869e-06
-2.1845e-06
5.73775e-06
-3.12759e-06
5.88732e-06
-4.07308e-06
5.9045e-06
-5.01675e-06
5.89398e-06
-5.95748e-06
5.87615e-06
-6.89458e-06
5.85422e-06
-7.82747e-06
5.82863e-06
-8.75554e-06
5.79943e-06
-9.6782e-06
5.76664e-06
-1.05949e-05
5.73026e-06
-1.15049e-05
5.6903e-06
-1.24078e-05
5.64676e-06
-1.33029e-05
5.59965e-06
-1.41897e-05
5.54899e-06
-1.50675e-05
5.49477e-06
-1.59358e-05
5.43702e-06
-1.6794e-05
5.37575e-06
-1.76416e-05
5.31097e-06
-1.84779e-05
5.24272e-06
-1.93024e-05
5.17101e-06
-2.01146e-05
5.09588e-06
-2.09139e-05
5.01736e-06
-2.16997e-05
4.93549e-06
-2.24715e-05
4.85033e-06
-2.32287e-05
4.76193e-06
-2.39709e-05
4.67037e-06
-2.46974e-05
4.57573e-06
-2.54079e-05
4.4781e-06
-2.61018e-05
4.37761e-06
-2.67786e-05
4.2744e-06
-2.74378e-05
4.16862e-06
-2.80791e-05
4.06049e-06
-2.8702e-05
3.95024e-06
-2.93062e-05
3.83815e-06
-2.98911e-05
3.72457e-06
-3.04566e-05
3.60989e-06
-3.10023e-05
3.49462e-06
-3.15279e-05
3.37936e-06
-3.20333e-05
3.26481e-06
-3.25183e-05
3.15186e-06
-3.29827e-05
3.04158e-06
-3.34264e-05
2.93529e-06
-3.38494e-05
2.83458e-06
-3.42516e-05
2.74145e-06
-3.46327e-05
2.65835e-06
-3.49925e-05
2.58834e-06
-3.53304e-05
2.53519e-06
-3.5645e-05
2.50359e-06
-3.59342e-05
2.4993e-06
-3.61941e-05
2.5294e-06
-3.64183e-05
2.60232e-06
-3.65962e-05
2.72793e-06
-3.67108e-05
2.91701e-06
-3.67359e-05
3.18006e-06
-3.66327e-05
3.52474e-06
-3.63444e-05
3.95194e-06
-3.57973e-05
4.44271e-06
4.94083e-06
-3.49416e-05
-4.50846e-07
3.18962e-06
-1.26797e-06
5.86581e-06
-2.19199e-06
6.66177e-06
-3.13872e-06
6.83405e-06
-4.08786e-06
6.85364e-06
-5.03518e-06
6.8413e-06
-5.97953e-06
6.8205e-06
-6.92026e-06
6.79495e-06
-7.85676e-06
6.76513e-06
-8.78843e-06
6.73111e-06
-9.71469e-06
6.6929e-06
-1.06349e-05
6.65051e-06
-1.15486e-05
6.60395e-06
-1.2455e-05
6.55322e-06
-1.33537e-05
6.49833e-06
-1.4244e-05
6.4393e-06
-1.51254e-05
6.37614e-06
-1.59972e-05
6.30886e-06
-1.6859e-05
6.23748e-06
-1.771e-05
6.16202e-06
-1.85498e-05
6.08251e-06
-1.93778e-05
5.99897e-06
-2.01933e-05
5.91144e-06
-2.0996e-05
5.81996e-06
-2.1785e-05
5.72458e-06
-2.25601e-05
5.62535e-06
-2.33205e-05
5.52234e-06
-2.40657e-05
5.41561e-06
-2.47953e-05
5.30528e-06
-2.55086e-05
5.19143e-06
-2.62052e-05
5.07421e-06
-2.68845e-05
4.95375e-06
-2.75462e-05
4.83024e-06
-2.81896e-05
4.70389e-06
-2.88143e-05
4.57496e-06
-2.94199e-05
4.44374e-06
-3.00059e-05
4.31058e-06
-3.05719e-05
4.17592e-06
-3.11175e-05
4.04026e-06
-3.16424e-05
3.90422e-06
-3.21461e-05
3.76852e-06
-3.26283e-05
3.63406e-06
-3.30886e-05
3.50188e-06
-3.35266e-05
3.37328e-06
-3.39418e-05
3.2498e-06
-3.43337e-05
3.13332e-06
-3.47015e-05
3.02612e-06
-3.5044e-05
2.93092e-06
-3.53599e-05
2.85103e-06
-3.56466e-05
2.79037e-06
-3.59009e-05
2.7536e-06
-3.61176e-05
2.74605e-06
-3.6289e-05
2.77372e-06
-3.64039e-05
2.84289e-06
-3.64464e-05
2.95948e-06
-3.6394e-05
3.12767e-06
-3.6217e-05
3.34768e-06
-3.58774e-05
3.61233e-06
-3.53344e-05
3.89979e-06
4.16898e-06
-3.45626e-05
-4.52238e-07
3.64185e-06
-1.27273e-06
6.68631e-06
-2.20077e-06
7.58981e-06
-3.1517e-06
7.78497e-06
-4.10506e-06
7.80701e-06
-5.05659e-06
7.79284e-06
-6.00516e-06
7.76907e-06
-6.95009e-06
7.73988e-06
-7.89078e-06
7.70582e-06
-8.82664e-06
7.66697e-06
-9.75708e-06
7.62334e-06
-1.06815e-05
7.57493e-06
-1.15993e-05
7.52176e-06
-1.25099e-05
7.46383e-06
-1.34127e-05
7.40115e-06
-1.43072e-05
7.33375e-06
-1.51927e-05
7.26162e-06
-1.60686e-05
7.1848e-06
-1.69344e-05
7.10329e-06
-1.77895e-05
7.01712e-06
-1.86333e-05
6.92632e-06
-1.94653e-05
6.83092e-06
-2.02848e-05
6.73096e-06
-2.10913e-05
6.62647e-06
-2.18843e-05
6.51752e-06
-2.26631e-05
6.40415e-06
-2.34272e-05
6.28644e-06
-2.4176e-05
6.16447e-06
-2.49091e-05
6.03833e-06
-2.56258e-05
5.90813e-06
-2.63256e-05
5.77402e-06
-2.7008e-05
5.63614e-06
-2.76724e-05
5.49468e-06
-2.83184e-05
5.34987e-06
-2.89454e-05
5.20194e-06
-2.95529e-05
5.05122e-06
-3.01403e-05
4.89806e-06
-3.07073e-05
4.7429e-06
-3.12533e-05
4.58623e-06
-3.17777e-05
4.42867e-06
-3.22802e-05
4.27093e-06
-3.276e-05
4.11387e-06
-3.32166e-05
3.95849e-06
-3.36493e-05
3.80601e-06
-3.40574e-05
3.65786e-06
-3.44398e-05
3.51573e-06
-3.47953e-05
3.38164e-06
-3.51223e-05
3.25793e-06
-3.54186e-05
3.14735e-06
-3.56813e-05
3.05302e-06
-3.59062e-05
2.97847e-06
-3.60876e-05
2.92749e-06
-3.62178e-05
2.90396e-06
-3.62864e-05
2.91143e-06
-3.62793e-05
2.95237e-06
-3.61787e-05
3.02706e-06
-3.59628e-05
3.13182e-06
-3.56071e-05
3.25666e-06
-3.50892e-05
3.3819e-06
3.47713e-06
-3.43974e-05
-4.53888e-07
4.09574e-06
-1.27823e-06
7.51065e-06
-2.21085e-06
8.52244e-06
-3.16655e-06
8.74066e-06
-4.12471e-06
8.76517e-06
-5.08105e-06
8.74918e-06
-6.03442e-06
8.72243e-06
-6.98414e-06
8.6896e-06
-7.92962e-06
8.6513e-06
-8.87026e-06
8.60761e-06
-9.80548e-06
8.55855e-06
-1.07347e-05
8.50412e-06
-1.16572e-05
8.44432e-06
-1.25726e-05
8.37918e-06
-1.34801e-05
8.30871e-06
-1.43793e-05
8.23291e-06
-1.52695e-05
8.15181e-06
-1.61501e-05
8.06541e-06
-1.70206e-05
7.97375e-06
-1.78803e-05
7.87685e-06
-1.87287e-05
7.77473e-06
-1.95652e-05
7.66743e-06
-2.03893e-05
7.55499e-06
-2.12002e-05
7.43745e-06
-2.19976e-05
7.31486e-06
-2.27807e-05
7.18729e-06
-2.35491e-05
7.0548e-06
-2.43021e-05
6.91748e-06
-2.50392e-05
6.77542e-06
-2.57598e-05
6.62875e-06
-2.64634e-05
6.47759e-06
-2.71493e-05
6.3221e-06
-2.78171e-05
6.16247e-06
-2.84662e-05
5.99892e-06
-2.90959e-05
5.8317e-06
-2.97058e-05
5.66112e-06
-3.02953e-05
5.48752e-06
-3.08637e-05
5.31134e-06
-3.14105e-05
5.13306e-06
-3.19351e-05
4.95325e-06
-3.24368e-05
4.7726e-06
-3.29148e-05
4.59191e-06
-3.33684e-05
4.41211e-06
-3.37967e-05
4.23431e-06
-3.41986e-05
4.05977e-06
-3.45729e-05
3.88997e-06
-3.49179e-05
3.72663e-06
-3.52316e-05
3.57167e-06
-3.55115e-05
3.42727e-06
-3.57543e-05
3.29581e-06
-3.59557e-05
3.17979e-06
-3.61099e-05
3.08171e-06
-3.62097e-05
3.00379e-06
-3.62459e-05
2.94758e-06
-3.62068e-05
2.91334e-06
-3.60789e-05
2.89911e-06
-3.58466e-05
2.89954e-06
-3.54944e-05
2.90447e-06
-3.50102e-05
2.89769e-06
2.85646e-06
-3.43895e-05
-4.55774e-07
4.55152e-06
-1.28445e-06
8.33932e-06
-2.22222e-06
9.46022e-06
-3.18327e-06
9.70171e-06
-4.14683e-06
9.72873e-06
-5.10857e-06
9.71091e-06
-6.06732e-06
9.68119e-06
-7.02244e-06
9.64471e-06
-7.9733e-06
9.60216e-06
-8.91932e-06
9.55363e-06
-9.85989e-06
9.49913e-06
-1.07944e-05
9.43866e-06
-1.17223e-05
9.37224e-06
-1.2643e-05
9.29987e-06
-1.35559e-05
9.22158e-06
-1.44604e-05
9.13738e-06
-1.53558e-05
9.04728e-06
-1.62417e-05
8.9513e-06
-1.71174e-05
8.84946e-06
-1.79824e-05
8.74179e-06
-1.8836e-05
8.62832e-06
-1.96776e-05
8.50909e-06
-2.05067e-05
8.38412e-06
-2.13228e-05
8.25347e-06
-2.21251e-05
8.11719e-06
-2.29131e-05
7.97533e-06
-2.36863e-05
7.82798e-06
-2.44441e-05
7.67521e-06
-2.51858e-05
7.51713e-06
-2.59108e-05
7.35383e-06
-2.66187e-05
7.18547e-06
-2.73088e-05
7.01219e-06
-2.79805e-05
6.83417e-06
-2.86332e-05
6.65162e-06
-2.92663e-05
6.4648e-06
-2.98792e-05
6.274e-06
-3.04712e-05
6.07955e-06
-3.10417e-05
5.88185e-06
-3.159e-05
5.68136e-06
-3.21154e-05
5.47862e-06
-3.26171e-05
5.27426e-06
-3.30941e-05
5.069e-06
-3.35457e-05
4.86368e-06
-3.39707e-05
4.65926e-06
-3.43677e-05
4.45684e-06
-3.47354e-05
4.25767e-06
-3.50719e-05
4.06314e-06
-3.53751e-05
3.87478e-06
-3.5642e-05
3.69424e-06
-3.58694e-05
3.5232e-06
-3.6053e-05
3.36334e-06
-3.61874e-05
3.21611e-06
-3.62661e-05
3.08252e-06
-3.62813e-05
2.96276e-06
-3.62237e-05
2.85575e-06
-3.6083e-05
2.75842e-06
-3.58485e-05
2.66504e-06
-3.55105e-05
2.56648e-06
-3.50624e-05
2.44963e-06
2.29766e-06
-3.45036e-05
-4.57885e-07
5.0094e-06
-1.29137e-06
9.17281e-06
-2.23488e-06
1.04037e-05
-3.20187e-06
1.06687e-05
-4.17141e-06
1.06983e-05
-5.13914e-06
1.06786e-05
-6.10389e-06
1.06459e-05
-7.06498e-06
1.06058e-05
-8.02182e-06
1.0559e-05
-8.9738e-06
1.05056e-05
-9.92034e-06
1.04457e-05
-1.08608e-05
1.03791e-05
-1.17947e-05
1.03061e-05
-1.27213e-05
1.02265e-05
-1.36401e-05
1.01404e-05
-1.45505e-05
1.00477e-05
-1.54518e-05
9.94862e-06
-1.63435e-05
9.84303e-06
-1.72251e-05
9.73099e-06
-1.80958e-05
9.61253e-06
-1.89552e-05
9.48768e-06
-1.98025e-05
9.35646e-06
-2.06373e-05
9.21893e-06
-2.1459e-05
9.07511e-06
-2.22669e-05
8.92507e-06
-2.30604e-05
8.76887e-06
-2.3839e-05
8.60657e-06
-2.46021e-05
8.43826e-06
-2.5349e-05
8.26403e-06
-2.60791e-05
8.08398e-06
-2.67919e-05
7.89826e-06
-2.74867e-05
7.70699e-06
-2.81629e-05
7.51037e-06
-2.88199e-05
7.30858e-06
-2.94569e-05
7.10187e-06
-3.00734e-05
6.8905e-06
-3.06687e-05
6.67479e-06
-3.1242e-05
6.45511e-06
-3.17925e-05
6.23187e-06
-3.23194e-05
6.00558e-06
-3.28219e-05
5.77677e-06
-3.3299e-05
5.5461e-06
-3.37496e-05
5.31428e-06
-3.41725e-05
5.08215e-06
-3.45663e-05
4.85061e-06
-3.49293e-05
4.62068e-06
-3.52596e-05
4.39345e-06
-3.55549e-05
4.17007e-06
-3.58124e-05
3.95172e-06
-3.60287e-05
3.73954e-06
-3.61999e-05
3.53449e-06
-3.6321e-05
3.33725e-06
-3.63865e-05
3.14799e-06
-3.63898e-05
2.96603e-06
-3.63236e-05
2.78956e-06
-3.61803e-05
2.61513e-06
-3.59525e-05
2.43729e-06
-3.56342e-05
2.24818e-06
-3.5222e-05
2.03742e-06
1.79254e-06
-3.47169e-05
-4.60216e-07
5.46962e-06
-1.299e-06
1.00116e-05
-2.24881e-06
1.13535e-05
-3.22235e-06
1.16422e-05
-4.19847e-06
1.16744e-05
-5.17278e-06
1.1653e-05
-6.14411e-06
1.16173e-05
-7.11178e-06
1.15735e-05
-8.07519e-06
1.15224e-05
-9.03374e-06
1.14642e-05
-9.98684e-06
1.13988e-05
-1.09339e-05
1.13262e-05
-1.18743e-05
1.12465e-05
-1.28074e-05
1.11596e-05
-1.37327e-05
1.10657e-05
-1.46495e-05
1.09646e-05
-1.55574e-05
1.08564e-05
-1.64555e-05
1.07412e-05
-1.73435e-05
1.06189e-05
-1.82206e-05
1.04897e-05
-1.90863e-05
1.03534e-05
-1.994e-05
1.02102e-05
-2.07811e-05
1.006e-05
-2.1609e-05
9.90298e-06
-2.2423e-05
9.73912e-06
-2.32227e-05
9.5685e-06
-2.40073e-05
9.39118e-06
-2.47762e-05
9.20722e-06
-2.55289e-05
9.01673e-06
-2.62647e-05
8.81981e-06
-2.69831e-05
8.61657e-06
-2.76832e-05
8.40715e-06
-2.83646e-05
8.19172e-06
-2.90264e-05
7.97045e-06
-2.96681e-05
7.74357e-06
-3.0289e-05
7.51132e-06
-3.08882e-05
7.27399e-06
-3.14649e-05
7.0319e-06
-3.20185e-05
6.78543e-06
-3.25479e-05
6.535e-06
-3.30523e-05
6.28111e-06
-3.35305e-05
6.0243e-06
-3.39814e-05
5.76518e-06
-3.44036e-05
5.50442e-06
-3.47958e-05
5.24275e-06
-3.51561e-05
4.98098e-06
-3.54825e-05
4.71991e-06
-3.57728e-05
4.46036e-06
-3.60242e-05
4.20313e-06
-3.62336e-05
3.94888e-06
-3.63971e-05
3.69806e-06
-3.65107e-05
3.45078e-06
-3.65693e-05
3.20664e-06
-3.65678e-05
2.96448e-06
-3.65004e-05
2.72214e-06
-3.63615e-05
2.47623e-06
-3.6146e-05
2.22181e-06
-3.58501e-05
1.95232e-06
-3.54723e-05
1.65961e-06
1.33441e-06
-3.50142e-05
-4.62762e-07
5.93238e-06
-1.30733e-06
1.08562e-05
-2.26402e-06
1.23102e-05
-3.24469e-06
1.26229e-05
-4.22799e-06
1.26577e-05
-5.20948e-06
1.26344e-05
-6.18799e-06
1.25958e-05
-7.16284e-06
1.25483e-05
-8.13342e-06
1.2493e-05
-9.09914e-06
1.24299e-05
-1.00594e-05
1.2359e-05
-1.10136e-05
1.22804e-05
-1.19611e-05
1.2194e-05
-1.29013e-05
1.20999e-05
-1.38337e-05
1.19981e-05
-1.47577e-05
1.18885e-05
-1.56725e-05
1.17713e-05
-1.65778e-05
1.16464e-05
-1.74727e-05
1.15139e-05
-1.83569e-05
1.13738e-05
-1.92295e-05
1.12261e-05
-2.00901e-05
1.10708e-05
-2.09381e-05
1.0908e-05
-2.17728e-05
1.07377e-05
-2.25936e-05
1.05599e-05
-2.33999e-05
1.03748e-05
-2.41911e-05
1.01824e-05
-2.49666e-05
9.98272e-06
-2.57258e-05
9.77587e-06
-2.64679e-05
9.56194e-06
-2.71924e-05
9.34105e-06
-2.78985e-05
9.11332e-06
-2.85857e-05
8.87889e-06
-2.92532e-05
8.63793e-06
-2.99002e-05
8.39063e-06
-3.05261e-05
8.13721e-06
-3.11301e-05
7.87792e-06
-3.17112e-05
7.61305e-06
-3.22687e-05
7.34291e-06
-3.28016e-05
7.06788e-06
-3.33088e-05
6.78835e-06
-3.37893e-05
6.50479e-06
-3.42418e-05
6.21768e-06
-3.46649e-05
5.92756e-06
-3.50572e-05
5.635e-06
-3.54168e-05
5.34057e-06
-3.57417e-05
5.04486e-06
-3.60298e-05
4.7484e-06
-3.62783e-05
4.45166e-06
-3.64844e-05
4.15494e-06
-3.66446e-05
3.85831e-06
-3.67553e-05
3.5615e-06
-3.68124e-05
3.26374e-06
-3.68116e-05
2.96362e-06
-3.67484e-05
2.65895e-06
-3.66187e-05
2.34651e-06
-3.64189e-05
2.02203e-06
-3.61467e-05
1.68011e-06
-3.58014e-05
1.31438e-06
9.17894e-07
-3.53849e-05
-4.65521e-07
6.3979e-06
-1.31636e-06
1.1707e-05
-2.2805e-06
1.32744e-05
-3.2689e-06
1.36113e-05
-4.25998e-06
1.36488e-05
-5.24925e-06
1.36237e-05
-6.23554e-06
1.35821e-05
-7.21817e-06
1.3531e-05
-8.19652e-06
1.34713e-05
-9.17e-06
1.34034e-05
-1.0138e-05
1.3327e-05
-1.10999e-05
1.32423e-05
-1.20552e-05
1.31492e-05
-1.30031e-05
1.30479e-05
-1.39432e-05
1.29382e-05
-1.48748e-05
1.28201e-05
-1.57974e-05
1.26939e-05
-1.67102e-05
1.25593e-05
-1.76128e-05
1.24165e-05
-1.85045e-05
1.22655e-05
-1.93848e-05
1.21063e-05
-2.02529e-05
1.19389e-05
-2.11083e-05
1.17634e-05
-2.19504e-05
1.15798e-05
-2.27786e-05
1.13881e-05
-2.35923e-05
1.11885e-05
-2.43907e-05
1.09809e-05
-2.51734e-05
1.07654e-05
-2.59396e-05
1.05421e-05
-2.66887e-05
1.0311e-05
-2.742e-05
1.00724e-05
-2.81328e-05
9.82617e-06
-2.88265e-05
9.57258e-06
-2.95003e-05
9.31173e-06
-3.01535e-05
9.04379e-06
-3.07852e-05
8.76895e-06
-3.13947e-05
8.48742e-06
-3.19811e-05
8.19944e-06
-3.25435e-05
7.90527e-06
-3.30808e-05
7.60522e-06
-3.35921e-05
7.29962e-06
-3.40761e-05
6.98881e-06
-3.45316e-05
6.67319e-06
-3.49572e-05
6.35316e-06
-3.53513e-05
6.02912e-06
-3.57122e-05
5.70147e-06
-3.6038e-05
5.3706e-06
-3.63264e-05
5.0368e-06
-3.6575e-05
4.70028e-06
-3.67811e-05
4.36106e-06
-3.69418e-05
4.01896e-06
-3.70537e-05
3.67343e-06
-3.71135e-05
3.32353e-06
-3.71176e-05
2.96775e-06
-3.70626e-05
2.60397e-06
-3.69454e-05
2.2293e-06
-3.67635e-05
1.8401e-06
-3.65153e-05
1.43197e-06
-3.62009e-05
9.99936e-07
5.3879e-07
-3.58218e-05
-4.68491e-07
6.86639e-06
-1.32608e-06
1.25646e-05
-2.29826e-06
1.42465e-05
-3.29498e-06
1.4608e-05
-4.29443e-06
1.46482e-05
-5.2921e-06
1.46214e-05
-6.28677e-06
1.45767e-05
-7.27777e-06
1.4522e-05
-8.26449e-06
1.44581e-05
-9.24633e-06
1.43852e-05
-1.02227e-05
1.43034e-05
-1.11929e-05
1.42126e-05
-1.21565e-05
1.41128e-05
-1.31128e-05
1.40041e-05
-1.40612e-05
1.38865e-05
-1.50011e-05
1.376e-05
-1.59319e-05
1.36247e-05
-1.6853e-05
1.34804e-05
-1.77638e-05
1.33273e-05
-1.86637e-05
1.31654e-05
-1.95521e-05
1.29947e-05
-2.04283e-05
1.28152e-05
-2.12919e-05
1.26269e-05
-2.2142e-05
1.24299e-05
-2.29782e-05
1.22243e-05
-2.37998e-05
1.20101e-05
-2.46062e-05
1.17872e-05
-2.53966e-05
1.15558e-05
-2.61705e-05
1.1316e-05
-2.69273e-05
1.10677e-05
-2.76661e-05
1.08112e-05
-2.83863e-05
1.05464e-05
-2.90873e-05
1.02735e-05
-2.97681e-05
9.99261e-06
-3.04282e-05
9.70385e-06
-3.10666e-05
9.40738e-06
-3.16826e-05
9.10336e-06
-3.22751e-05
8.792e-06
-3.28434e-05
8.47351e-06
-3.33863e-05
8.14812e-06
-3.39027e-05
7.81607e-06
-3.43915e-05
7.47765e-06
-3.48515e-05
7.13311e-06
-3.52811e-05
6.78276e-06
-3.56788e-05
6.42685e-06
-3.6043e-05
6.06564e-06
-3.63717e-05
5.69931e-06
-3.66629e-05
5.32799e-06
-3.69143e-05
4.95169e-06
-3.71234e-05
4.57022e-06
-3.72877e-05
4.18321e-06
-3.74042e-05
3.78997e-06
-3.74702e-05
3.38946e-06
-3.74826e-05
2.9802e-06
-3.74389e-05
2.56021e-06
-3.73365e-05
2.12695e-06
-3.71738e-05
1.67736e-06
-3.69497e-05
1.20789e-06
-3.66644e-05
7.14681e-07
1.93875e-07
-3.63195e-05
-4.7167e-07
7.33806e-06
-1.3365e-06
1.34294e-05
-2.31728e-06
1.52273e-05
-3.32293e-06
1.56137e-05
-4.33137e-06
1.56567e-05
-5.33802e-06
1.5628e-05
-6.34167e-06
1.55804e-05
-7.34165e-06
1.55219e-05
-8.33735e-06
1.54538e-05
-9.32815e-06
1.5376e-05
-1.03135e-05
1.52887e-05
-1.12927e-05
1.51918e-05
-1.22652e-05
1.50853e-05
-1.32304e-05
1.49693e-05
-1.41877e-05
1.48438e-05
-1.51364e-05
1.47088e-05
-1.60761e-05
1.45643e-05
-1.70061e-05
1.44104e-05
-1.79257e-05
1.42469e-05
-1.88344e-05
1.40741e-05
-1.97315e-05
1.38918e-05
-2.06165e-05
1.37002e-05
-2.14888e-05
1.34991e-05
-2.23476e-05
1.32888e-05
-2.31924e-05
1.30691e-05
-2.40226e-05
1.28402e-05
-2.48375e-05
1.26021e-05
-2.56364e-05
1.23548e-05
-2.64187e-05
1.20983e-05
-2.71837e-05
1.18328e-05
-2.79308e-05
1.15582e-05
-2.86591e-05
1.12748e-05
-2.9368e-05
1.09824e-05
-3.00568e-05
1.06813e-05
-3.07245e-05
1.03716e-05
-3.13705e-05
1.00533e-05
-3.19938e-05
9.72664e-06
-3.25935e-05
9.3917e-06
-3.31686e-05
9.04864e-06
-3.37181e-05
8.69765e-06
-3.4241e-05
8.33891e-06
-3.47359e-05
7.97258e-06
-3.52017e-05
7.59887e-06
-3.56368e-05
7.21793e-06
-3.60399e-05
6.82992e-06
-3.64092e-05
6.43494e-06
-3.6743e-05
6.03307e-06
-3.70392e-05
5.62425e-06
-3.72959e-05
5.20835e-06
-3.75107e-05
4.78505e-06
-3.76814e-05
4.35385e-06
-3.78054e-05
3.91398e-06
-3.78803e-05
3.46438e-06
-3.79037e-05
3.00363e-06
-3.78734e-05
2.52996e-06
-3.77877e-05
2.04116e-06
-3.7645e-05
1.53469e-06
-3.74448e-05
1.00771e-06
-3.71874e-05
4.57291e-07
-1.20425e-07
-3.68731e-05
-4.75056e-07
7.81312e-06
-1.34761e-06
1.4302e-05
-2.33757e-06
1.62173e-05
-3.35275e-06
1.66289e-05
-4.37077e-06
1.66747e-05
-5.38701e-06
1.66443e-05
-6.40026e-06
1.65936e-05
-7.40982e-06
1.65315e-05
-8.41509e-06
1.6459e-05
-9.41546e-06
1.63764e-05
-1.04103e-05
1.62835e-05
-1.13991e-05
1.61805e-05
-1.23811e-05
1.60674e-05
-1.33558e-05
1.59441e-05
-1.43226e-05
1.58106e-05
-1.52809e-05
1.56671e-05
-1.623e-05
1.55135e-05
-1.71694e-05
1.53498e-05
-1.80985e-05
1.5176e-05
-1.90166e-05
1.49922e-05
-1.99231e-05
1.47983e-05
-2.08175e-05
1.45945e-05
-2.16991e-05
1.43807e-05
-2.25672e-05
1.41569e-05
-2.34213e-05
1.39232e-05
-2.42607e-05
1.36796e-05
-2.50847e-05
1.34261e-05
-2.58928e-05
1.31628e-05
-2.66841e-05
1.28897e-05
-2.74582e-05
1.26068e-05
-2.82141e-05
1.23142e-05
-2.89514e-05
1.2012e-05
-2.9669e-05
1.17001e-05
-3.03664e-05
1.13787e-05
-3.10427e-05
1.10479e-05
-3.16971e-05
1.07077e-05
-3.23286e-05
1.03582e-05
-3.29364e-05
9.99949e-06
-3.35194e-05
9.63171e-06
-3.40767e-05
9.25495e-06
-3.46072e-05
8.86932e-06
-3.51095e-05
8.47492e-06
-3.55825e-05
8.07185e-06
-3.60247e-05
7.66018e-06
-3.64348e-05
7.23997e-06
-3.6811e-05
6.8112e-06
-3.71518e-05
6.37382e-06
-3.74552e-05
5.92767e-06
-3.77194e-05
5.4725e-06
-3.79422e-05
5.0079e-06
-3.81216e-05
4.53329e-06
-3.82555e-05
4.04787e-06
-3.83418e-05
3.5506e-06
-3.83783e-05
3.04018e-06
-3.83634e-05
2.51502e-06
-3.82954e-05
1.97322e-06
-3.81734e-05
1.41269e-06
-3.79969e-05
8.31154e-07
-3.7766e-05
2.26441e-07
-4.05439e-07
-3.7481e-05
-4.78645e-07
8.29176e-06
-1.3594e-06
1.51827e-05
-2.35913e-06
1.7217e-05
-3.38444e-06
1.76542e-05
-4.41266e-06
1.77029e-05
-5.4391e-06
1.76707e-05
-6.46253e-06
1.76171e-05
-7.48229e-06
1.75513e-05
-8.49774e-06
1.74745e-05
-9.50828e-06
1.73869e-05
-1.05133e-05
1.72885e-05
-1.15122e-05
1.71794e-05
-1.25044e-05
1.70595e-05
-1.34892e-05
1.69289e-05
-1.44661e-05
1.67875e-05
-1.54345e-05
1.66355e-05
-1.63937e-05
1.64727e-05
-1.73432e-05
1.62992e-05
-1.82823e-05
1.61151e-05
-1.92104e-05
1.59203e-05
-2.01269e-05
1.57149e-05
-2.10313e-05
1.54988e-05
-2.19228e-05
1.52722e-05
-2.28008e-05
1.5035e-05
-2.36648e-05
1.47872e-05
-2.45141e-05
1.45289e-05
-2.5348e-05
1.426e-05
-2.61658e-05
1.39807e-05
-2.69669e-05
1.36908e-05
-2.77507e-05
1.33905e-05
-2.85163e-05
1.30798e-05
-2.92631e-05
1.27588e-05
-2.99903e-05
1.24273e-05
-3.06972e-05
1.20856e-05
-3.13828e-05
1.17336e-05
-3.20465e-05
1.13713e-05
-3.26872e-05
1.09989e-05
-3.33041e-05
1.06164e-05
-3.38961e-05
1.02237e-05
-3.44623e-05
9.82111e-06
-3.50014e-05
9.4085e-06
-3.55125e-05
8.98594e-06
-3.59941e-05
8.55345e-06
-3.64449e-05
8.11101e-06
-3.68635e-05
7.6586e-06
-3.72484e-05
7.19611e-06
-3.7598e-05
6.72338e-06
-3.79105e-05
6.24018e-06
-3.81842e-05
5.74616e-06
-3.84171e-05
5.24086e-06
-3.86075e-05
4.72365e-06
-3.87533e-05
4.19373e-06
-3.88529e-05
3.65012e-06
-3.89043e-05
3.09163e-06
-3.89061e-05
2.51684e-06
-3.88571e-05
1.92416e-06
-3.87562e-05
1.31185e-06
-3.86031e-05
6.78076e-07
-3.83979e-05
2.11984e-08
-6.62669e-07
-3.81407e-05
-4.82438e-07
8.7742e-06
-1.37188e-06
1.60722e-05
-2.38196e-06
1.82271e-05
-3.418e-06
1.86902e-05
-4.45702e-06
1.87419e-05
-5.49426e-06
1.8708e-05
-6.5285e-06
1.86513e-05
-7.55905e-06
1.85818e-05
-8.58529e-06
1.85007e-05
-9.60661e-06
1.84082e-05
-1.06224e-05
1.83043e-05
-1.16321e-05
1.81891e-05
-1.2635e-05
1.80625e-05
-1.36305e-05
1.79245e-05
-1.46182e-05
1.77752e-05
-1.55972e-05
1.76145e-05
-1.65671e-05
1.74426e-05
-1.75273e-05
1.72594e-05
-1.8477e-05
1.70648e-05
-1.94158e-05
1.68591e-05
-2.03429e-05
1.6642e-05
-2.12578e-05
1.64138e-05
-2.21599e-05
1.61743e-05
-2.30486e-05
1.59236e-05
-2.39231e-05
1.56617e-05
-2.47829e-05
1.53886e-05
-2.56272e-05
1.51044e-05
-2.64556e-05
1.4809e-05
-2.72671e-05
1.45024e-05
-2.80613e-05
1.41847e-05
-2.88373e-05
1.38559e-05
-2.95945e-05
1.35159e-05
-3.0332e-05
1.31648e-05
-3.10491e-05
1.28027e-05
-3.1745e-05
1.24294e-05
-3.24188e-05
1.20451e-05
-3.30696e-05
1.16497e-05
-3.36966e-05
1.12433e-05
-3.42986e-05
1.08258e-05
-3.48748e-05
1.03973e-05
-3.54239e-05
9.95764e-06
-3.59449e-05
9.5069e-06