/*--------------------------------*- C++ -*----------------------------------*\
  =========                 |
  \\      /  F ield         | OpenFOAM: The Open Source CFD Toolbox
   \\    /   O peration     | Website:  https://openfoam.org
    \\  /    A nd           | Version:  8
     \\/     M anipulation  |
\*---------------------------------------------------------------------------*/
FoamFile
{
    version     2.0;
    format      ascii;
    class       surfaceScalarField;
    location    "67";
    object      phi;
}
// * * * * * * * * * * * * * * * * * * * * * * * * * * * * * * * * * * * * * //

dimensions      [0 3 -1 0 0 0 0];

internalField   nonuniform List<scalar> 
760
(
0.0004
5.76331e-20
0.0004
5.5539e-20
0.0004
7.53909e-20
0.0004
1.39917e-20
0.0004
4.67795e-21
0.0004
5.74529e-20
0.0004
9.17129e-20
0.0004
1.10079e-19
0.0004
7.09498e-20
0.0004
6.32018e-20
0.0004
6.50411e-20
0.0004
-2.00907e-20
0.0004
-5.73259e-20
0.0004
-3.71346e-20
0.0004
-1.2091e-20
0.0004
-4.24746e-20
0.0004
-5.02641e-21
0.0004
-6.18551e-20
0.0004
-1.09231e-19
-1.43274e-19
0.0004
-4.10751e-21
0.0004
7.62878e-20
0.0004
7.93113e-20
0.0004
3.49111e-20
0.0004
2.6387e-20
0.0004
7.79337e-20
0.0004
1.3996e-19
0.0004
1.0191e-19
0.0004
1.05328e-19
0.0004
6.70383e-20
0.0004
-1.89622e-21
0.0004
-5.47373e-20
0.0004
-5.97934e-20
0.0004
-5.03593e-20
0.0004
-3.27966e-21
0.0004
-7.33132e-20
0.0004
-8.01223e-20
0.0004
-7.90228e-20
0.0004
-1.04368e-19
-1.25805e-19
0.0004
-9.11695e-20
0.0004
4.09969e-20
0.0004
1.0025e-19
0.0004
1.13045e-19
0.0004
6.90129e-20
0.0004
2.66238e-20
0.0004
4.21195e-20
0.0004
8.99784e-20
0.0004
1.01464e-19
0.0004
6.04489e-20
0.0004
2.35701e-20
0.0004
2.74826e-20
0.0004
-6.75886e-21
0.0004
-1.26272e-19
0.0004
-8.53593e-20
0.0004
-3.06414e-20
0.0004
-5.08523e-20
0.0004
-1.26034e-19
0.0004
-1.38555e-19
-1.5084e-19
0.0004
-3.08924e-20
0.0004
2.31983e-21
0.0004
7.13126e-20
0.0004
8.05726e-20
0.0004
4.9109e-20
0.0004
1.32335e-20
0.0004
-8.20496e-21
0.0004
6.79753e-20
0.0004
5.70522e-20
0.0004
4.41644e-20
0.0004
1.62163e-20
0.0004
2.62487e-20
0.0004
1.32896e-20
0.0004
-3.92288e-21
0.0004
-9.36005e-20
0.0004
-9.18743e-20
0.0004
-1.17691e-19
0.0004
-1.4171e-19
0.0004
-1.6673e-19
-1.36457e-19
0.0004
2.61658e-20
0.0004
3.2387e-20
0.0004
2.38454e-20
0.0004
3.46027e-20
0.0004
3.18339e-20
0.0004
1.78145e-20
0.0004
2.0317e-20
0.0004
9.36541e-21
0.0004
5.88158e-20
0.0004
3.59589e-20
0.0004
4.1521e-21
0.0004
-5.67965e-21
0.0004
4.99352e-20
0.0004
1.73176e-20
0.0004
-5.66416e-20
0.0004
-1.14413e-19
0.0004
-1.45911e-19
0.0004
-1.52588e-19
0.0004
-1.37914e-19
-1.18932e-19
0.0004
9.32006e-20
0.0004
5.52664e-20
0.0004
2.74637e-20
0.0004
4.71986e-20
0.0004
1.45191e-20
0.0004
1.87117e-20
0.0004
-1.729e-20
0.0004
-1.21802e-20
0.0004
-1.78215e-20
0.0004
-1.03624e-20
0.0004
-1.55805e-20
0.0004
-2.99316e-20
0.0004
-2.60703e-20
0.0004
-1.19906e-20
0.0004
-3.93091e-20
0.0004
-3.79719e-20
0.0004
-1.2129e-19
0.0004
-9.68401e-20
0.0004
-7.8082e-20
-1.05198e-19
0.0004
4.42777e-20
0.0004
6.14052e-20
0.0004
5.21519e-20
0.0004
5.34449e-20
0.0004
7.23354e-20
0.0004
3.35785e-20
0.0004
-1.34613e-21
0.0004
-5.91002e-20
0.0004
-4.96866e-20
0.0004
-3.22267e-20
0.0004
-4.70617e-20
0.0004
-4.88888e-20
0.0004
-6.82097e-20
0.0004
-7.57272e-20
0.0004
-6.81611e-20
0.0004
-1.26859e-19
0.0004
-7.75497e-20
0.0004
-9.65497e-20
0.0004
-7.53017e-20
-7.123e-20
0.0004
4.6654e-20
0.0004
3.35524e-20
0.0004
6.72639e-22
0.0004
5.5843e-20
0.0004
1.30528e-19
0.0004
6.81587e-20
0.0004
-2.69935e-20
0.0004
-5.77337e-20
0.0004
-7.06107e-20
0.0004
-9.94705e-20
0.0004
-7.37159e-20
0.0004
-5.697e-20
0.0004
-9.44478e-20
0.0004
-9.10297e-20
0.0004
-1.27451e-19
0.0004
-9.25492e-20
0.0004
-9.23711e-20
0.0004
-9.8456e-20
0.0004
-1.11101e-19
-5.87037e-20
0.0004
1.63624e-20
0.0004
8.23133e-20
0.0004
4.17057e-20
0.0004
2.26035e-20
0.0004
3.80948e-20
0.0004
3.78085e-20
0.0004
5.71014e-21
0.0004
-5.39489e-20
0.0004
-1.30519e-19
0.0004
-1.02376e-19
0.0004
-3.55325e-20
0.0004
-4.29139e-20
0.0004
-8.44495e-20
0.0004
-1.28609e-19
0.0004
-1.30151e-19
0.0004
-1.11407e-19
0.0004
-7.53514e-20
0.0004
-3.49671e-20
0.0004
-3.88811e-20
-7.83591e-20
0.0004
2.03325e-20
0.0004
6.97572e-20
0.0004
2.39236e-20
0.0004
1.21205e-20
0.0004
-1.53496e-20
0.0004
3.10855e-20
0.0004
3.67548e-20
0.0004
-8.07825e-20
0.0004
-1.45449e-19
0.0004
-9.17953e-20
0.0004
-4.92141e-20
0.0004
-3.27631e-20
0.0004
-7.36928e-20
0.0004
-1.16321e-19
0.0004
-1.112e-19
0.0004
-6.94853e-20
0.0004
-5.78902e-20
0.0004
-4.44375e-20
0.0004
-5.41195e-20
-6.25397e-20
0.0004
-3.9725e-21
0.0004
-3.0886e-20
0.0004
9.08511e-22
0.0004
-1.56628e-20
0.0004
3.99129e-20
0.0004
2.16454e-20
0.0004
-6.78789e-20
0.0004
-1.17238e-19
0.0004
-9.17464e-20
0.0004
-5.55177e-20
0.0004
-4.40742e-20
0.0004
-5.47081e-20
0.0004
-5.80208e-20
0.0004
-8.54018e-20
0.0004
-1.20607e-19
0.0004
-7.25173e-20
0.0004
-3.88583e-20
0.0004
-7.07403e-20
0.0004
-6.09028e-20
-8.6292e-20
0.0004
-1.75421e-20
0.0004
6.39831e-21
0.0004
-6.35592e-21
0.0004
-6.67386e-20
0.0004
-8.98384e-20
0.0004
-7.17257e-20
0.0004
-7.94599e-20
0.0004
-5.87951e-20
0.0004
-7.7252e-20
0.0004
-2.32733e-20
0.0004
-8.39609e-20
0.0004
-5.55245e-20
0.0004
-3.61442e-20
0.0004
-2.26948e-20
0.0004
-5.06817e-20
0.0004
-2.51616e-20
0.0004
-9.9685e-20
0.0004
-9.22264e-20
0.0004
-6.60307e-20
-3.96161e-20
0.0004
-5.03375e-20
0.0004
2.47105e-20
0.0004
1.46413e-20
0.0004
-1.11973e-19
0.0004
-1.2556e-19
0.0004
-7.32159e-20
0.0004
-4.26254e-20
0.0004
-6.56501e-20
0.0004
-3.98389e-20
0.0004
-6.20122e-20
0.0004
-1.00734e-19
0.0004
-7.07627e-20
0.0004
-3.56738e-20
0.0004
-2.61414e-20
0.0004
3.22359e-20
0.0004
-5.83824e-20
0.0004
-9.39865e-20
0.0004
-9.96014e-20
0.0004
-6.5712e-20
-4.98515e-20
0.0004
-2.4329e-20
0.0004
-5.02762e-20
0.0004
-6.67097e-20
0.0004
-3.81238e-20
0.0004
-1.24483e-19
0.0004
-1.35349e-19
0.0004
-1.8745e-20
0.0004
8.27262e-22
0.0004
-1.86354e-20
0.0004
-5.57647e-20
0.0004
-7.91384e-20
0.0004
-5.88623e-20
0.0004
-3.33539e-20
0.0004
-1.28092e-20
0.0004
-1.44618e-20
0.0004
-1.32546e-19
0.0004
-8.36481e-20
0.0004
-1.58891e-20
0.0004
-4.52169e-20
-4.14924e-20
0.0004
4.96911e-21
0.0004
-1.09636e-19
0.0004
-1.06299e-19
0.0004
-9.11261e-20
0.0004
-1.17284e-19
0.0004
-4.35222e-20
0.0004
-8.01939e-20
0.0004
-1.69539e-20
0.0004
2.84927e-20
0.0004
4.99402e-21
0.0004
-3.13642e-20
0.0004
-3.51719e-20
0.0004
-7.36146e-20
0.0004
-8.79707e-21
0.0004
-6.96594e-20
0.0004
-4.33985e-20
0.0004
-6.2182e-20
0.0004
-3.59658e-20
0.0004
-1.04173e-20
-5.1456e-21
0.0004
-3.05151e-20
0.0004
-1.10718e-19
0.0004
-1.4056e-19
0.0004
-9.31721e-20
0.0004
-1.10088e-19
0.0004
-1.35864e-19
0.0004
-7.78577e-20
0.0004
1.30392e-20
0.0004
8.00237e-20
0.0004
-3.90359e-20
0.0004
-1.04213e-20
0.0004
-5.40598e-20
0.0004
-2.64089e-22
0.0004
-9.36186e-20
0.0004
-7.34462e-20
0.0004
7.60893e-21
0.0004
1.77958e-20
0.0004
-1.71812e-20
0.0004
1.41327e-20
-1.3721e-21
0.0004
1.34243e-21
0.0004
-7.46192e-20
0.0004
-1.76207e-19
0.0004
-1.82407e-19
0.0004
-8.60236e-20
0.0004
-1.13472e-19
0.0004
-7.55151e-20
0.0004
-1.44276e-20
0.0004
1.03606e-20
0.0004
2.00339e-20
0.0004
-1.18625e-20
0.0004
-7.688e-20
0.0004
-5.79509e-20
0.0004
-2.95402e-20
0.0004
-5.62044e-21
0.0004
-1.34219e-20
0.0004
1.77073e-20
0.0004
3.31241e-20
0.0004
3.41938e-20
2.68049e-20
0.0004
-6.91205e-21
0.0004
-8.13305e-20
0.0004
-1.18297e-19
0.0004
-1.03077e-19
0.0004
-9.12706e-20
0.0004
-1.10687e-19
0.0004
-1.28378e-19
0.0004
-7.32683e-20
0.0004
-4.7761e-20
0.0004
-6.83532e-20
0.0004
-1.03564e-20
0.0004
1.20667e-20
0.0004
-1.79513e-20
0.0004
1.29879e-20
0.0004
-3.35882e-20
0.0004
-5.71492e-21
0.0004
4.08357e-21
0.0004
1.38958e-20
0.0004
2.29239e-20
1.14858e-20
0.0004
-2.41219e-22
0.0004
-2.49549e-20
0.0004
-1.25265e-19
0.0004
-1.22392e-19
0.0004
-9.08036e-20
0.0004
-1.45706e-19
0.0004
-1.47763e-19
0.0004
-8.75439e-20
0.0004
-7.16453e-20
0.0004
-3.01419e-20
0.0004
-3.7135e-20
0.0004
-5.30491e-20
0.0004
3.82883e-20
0.0004
7.16656e-21
0.0004
-1.91992e-21
0.0004
7.79663e-21
0.0004
-9.4055e-21
0.0004
-5.47872e-21
0.0004
4.78596e-20
4.05562e-20
0.0004
0.0004
0.0004
0.0004
0.0004
0.0004
0.0004
0.0004
0.0004
0.0004
0.0004
0.0004
0.0004
0.0004
0.0004
0.0004
0.0004
0.0004
0.0004
)
;

boundaryField
{
    inlet
    {
        type            calculated;
        value           nonuniform List<scalar> 
20
(
-0.0004
-0.0004
-0.0004
-0.0004
-0.0004
-0.0004
-0.0004
-0.0004
-0.0004
-0.0004
-0.0004
-0.0004
-0.0004
-0.0004
-0.0004
-0.0004
-0.0004
-0.0004
-0.0004
-0.0004
)
;
    }
    outlet
    {
        type            calculated;
        value           nonuniform List<scalar> 
20
(
0.0004
0.0004
0.0004
0.0004
0.0004
0.0004
0.0004
0.0004
0.0004
0.0004
0.0004
0.0004
0.0004
0.0004
0.0004
0.0004
0.0004
0.0004
0.0004
0.0004
)
;
    }
    up
    {
        type            calculated;
        value           nonuniform List<scalar> 
20
(
3.16713e-21
-1.33757e-20
-6.03076e-20
-9.11495e-20
-9.73512e-20
-1.09954e-19
-1.31395e-19
-9.83953e-20
-7.63166e-20
-7.57663e-20
-4.92959e-20
-2.82813e-20
-9.71521e-22
-3.82068e-21
1.38306e-20
-2.97155e-21
1.00735e-20
5.40409e-21
1.33241e-20
2.92203e-20
)
;
    }
    down
    {
        type            calculated;
        value           nonuniform List<scalar> 
20
(
-8.83926e-21
-6.17895e-20
-5.8524e-20
-3.15583e-20
-2.47393e-20
-2.74222e-20
-7.27951e-20
-9.60807e-20
-6.89714e-20
-5.11053e-20
-5.51456e-20
-1.52055e-20
2.36259e-20
3.2756e-20
4.43831e-21
1.9604e-20
4.33319e-20
6.4338e-20
7.90707e-20
1.42447e-19
)
;
    }
    frontAndBack
    {
        type            empty;
        value           nonuniform List<scalar> 0();
    }
}


// ************************************************************************* //
