/*--------------------------------*- C++ -*----------------------------------*\
  =========                 |
  \\      /  F ield         | OpenFOAM: The Open Source CFD Toolbox
   \\    /   O peration     | Website:  https://openfoam.org
    \\  /    A nd           | Version:  8
     \\/     M anipulation  |
\*---------------------------------------------------------------------------*/
FoamFile
{
    version     2.0;
    format      ascii;
    class       surfaceScalarField;
    location    "0.38";
    object      phi;
}
// * * * * * * * * * * * * * * * * * * * * * * * * * * * * * * * * * * * * * //

dimensions      [0 3 -1 0 0 0 0];

internalField   nonuniform List<scalar> 
760
(
1.17902e-06
-6.20051e-12
1.17902e-06
1.91703e-12
1.17902e-06
7.54593e-12
1.179e-06
1.09601e-11
1.17899e-06
1.26068e-11
1.17898e-06
1.3092e-11
1.17897e-06
1.24638e-11
1.17896e-06
1.12042e-11
1.17895e-06
9.50169e-12
1.17894e-06
7.31749e-12
1.17893e-06
4.78675e-12
1.17893e-06
2.11417e-12
1.17893e-06
-6.84762e-13
1.17894e-06
-3.74163e-12
1.17894e-06
-7.1422e-12
1.17895e-06
-1.08535e-11
1.17897e-06
-1.46984e-11
1.17899e-06
-1.78386e-11
1.179e-06
-1.83544e-11
-1.39962e-11
3.53875e-06
-1.44903e-11
3.53874e-06
4.56961e-12
3.53873e-06
1.85569e-11
3.53872e-06
2.70944e-11
3.5387e-06
3.13834e-11
3.53868e-06
3.25773e-11
3.53866e-06
3.13739e-11
3.53864e-06
2.84258e-11
3.53863e-06
2.41493e-11
3.53862e-06
1.87474e-11
3.53861e-06
1.24329e-11
3.5386e-06
5.41132e-12
3.53861e-06
-2.24903e-12
3.53861e-06
-1.05805e-11
3.53863e-06
-1.95523e-11
3.53864e-06
-2.8912e-11
3.53867e-06
-3.78403e-11
3.53869e-06
-4.41954e-11
3.53872e-06
-4.38426e-11
-3.30602e-11
5.90362e-06
-2.1191e-11
5.90362e-06
5.58788e-12
5.90361e-06
2.61282e-11
5.9036e-06
3.86692e-11
5.90359e-06
4.54172e-11
5.90357e-06
4.7605e-11
5.90356e-06
4.62845e-11
5.90355e-06
4.23313e-11
5.90353e-06
3.62886e-11
5.90352e-06
2.8466e-11
5.90352e-06
1.91406e-11
5.90351e-06
8.5449e-12
5.90351e-06
-3.20566e-12
5.90352e-06
-1.60394e-11
5.90353e-06
-2.97303e-11
5.90354e-06
-4.36013e-11
5.90356e-06
-5.61972e-11
5.90358e-06
-6.43927e-11
5.9036e-06
-6.27648e-11
-4.73416e-11
8.27702e-06
-2.6942e-11
8.27702e-06
3.80749e-12
8.27702e-06
2.80516e-11
8.27701e-06
4.36361e-11
8.27701e-06
5.2387e-11
8.277e-06
5.58401e-11
8.27699e-06
5.50846e-11
8.27698e-06
5.10102e-11
8.27697e-06
4.42576e-11
8.27697e-06
3.52499e-11
8.27696e-06
2.42986e-11
8.27696e-06
1.16231e-11
8.27696e-06
-2.62798e-12
8.27696e-06
-1.8259e-11
8.27697e-06
-3.4859e-11
8.27697e-06
-5.14505e-11
8.27698e-06
-6.61222e-11
8.27699e-06
-7.53282e-11
8.277e-06
-7.33894e-11
-5.62689e-11
1.06621e-05
-3.15424e-11
1.06621e-05
-4.23023e-13
1.06621e-05
2.48296e-11
1.06621e-05
4.20165e-11
1.06621e-05
5.22446e-11
1.06621e-05
5.69916e-11
1.06621e-05
5.72601e-11
1.06621e-05
5.39082e-11
1.06621e-05
4.75791e-11
1.06621e-05
3.87143e-11
1.06621e-05
2.76311e-11
1.06621e-05
1.4546e-11
1.0662e-05
-3.72566e-13
1.0662e-05
-1.68613e-11
1.0662e-05
-3.43832e-11
1.0662e-05
-5.1856e-11
1.0662e-05
-6.72397e-11
1.06621e-05
-7.70743e-11
1.06621e-05
-7.60259e-11
-5.99432e-11
1.30616e-05
-3.41744e-11
1.30616e-05
-6.06985e-12
1.30616e-05
1.77406e-11
1.30616e-05
3.47988e-11
1.30616e-05
4.56778e-11
1.30616e-05
5.14932e-11
1.30616e-05
5.30523e-11
1.30616e-05
5.108e-11
1.30616e-05
4.61364e-11
1.30616e-05
3.86203e-11
1.30616e-05
2.88255e-11
1.30616e-05
1.69547e-11
1.30616e-05
3.175e-12
1.30616e-05
-1.22555e-11
1.30616e-05
-2.88066e-11
1.30616e-05
-4.54834e-11
1.30616e-05
-6.0416e-11
1.30616e-05
-7.05241e-11
1.30616e-05
-7.12722e-11
-5.85533e-11
1.54781e-05
-3.42783e-11
1.54781e-05
-1.19091e-11
1.54781e-05
8.20031e-12
1.54781e-05
2.34601e-11
1.54781e-05
3.39803e-11
1.54781e-05
4.04078e-11
1.54781e-05
4.32657e-11
1.54781e-05
4.30621e-11
1.54781e-05
4.02092e-11
1.54781e-05
3.50137e-11
1.54781e-05
2.7709e-11
1.54781e-05
1.84482e-11
1.54781e-05
7.35256e-12
1.54781e-05
-5.37265e-12
1.54781e-05
-1.93125e-11
1.54781e-05
-3.37011e-11
1.54781e-05
-4.71005e-11
1.54781e-05
-5.70677e-11
1.54781e-05
-6.00649e-11
-5.23024e-11
1.79135e-05
-3.15898e-11
1.79135e-05
-1.68927e-11
1.79136e-05
-2.34185e-12
1.79136e-05
9.64888e-12
1.79136e-05
1.87526e-11
1.79136e-05
2.51795e-11
1.79136e-05
2.91167e-11
1.79136e-05
3.08032e-11
1.79136e-05
3.04544e-11
1.79136e-05
2.82401e-11
1.79136e-05
2.42948e-11
1.79136e-05
1.86885e-11
1.79136e-05
1.14593e-11
1.79136e-05
2.70836e-12
1.79136e-05
-7.33977e-12
1.79136e-05
-1.82494e-11
1.79136e-05
-2.91418e-11
1.79136e-05
-3.84313e-11
1.79136e-05
-4.36712e-11
-4.16882e-11
2.03696e-05
-2.61618e-11
2.03696e-05
-2.03099e-11
2.03696e-05
-1.26218e-11
2.03697e-05
-5.06388e-12
2.03697e-05
1.6838e-12
2.03697e-05
7.45594e-12
2.03697e-05
1.21016e-11
2.03697e-05
1.55693e-11
2.03697e-05
1.78466e-11
2.03697e-05
1.89312e-11
2.03698e-05
1.88265e-11
2.03698e-05
1.74932e-11
2.03698e-05
1.48629e-11
2.03697e-05
1.09065e-11
2.03697e-05
5.62371e-12
2.03697e-05
-9.37816e-13
2.03697e-05
-8.51554e-12
2.03697e-05
-1.64948e-11
2.03697e-05
-2.36282e-11
-2.75669e-11
2.28474e-05
-1.84055e-11
2.28474e-05
-2.1803e-11
2.28474e-05
-2.16723e-11
2.28474e-05
-1.92998e-11
2.28474e-05
-1.55987e-11
2.28475e-05
-1.10592e-11
2.28475e-05
-6.13805e-12
2.28475e-05
-1.17035e-12
2.28475e-05
3.5918e-12
2.28475e-05
7.95592e-12
2.28475e-05
1.17767e-11
2.28475e-05
1.48933e-11
2.28475e-05
1.71254e-11
2.28475e-05
1.8307e-11
2.28475e-05
1.82113e-11
2.28475e-05
1.64943e-11
2.28475e-05
1.2799e-11
2.28474e-05
6.76191e-12
2.28474e-05
-1.67535e-12
-1.10936e-11
2.53474e-05
-9.04581e-12
2.53474e-05
-2.13717e-11
2.53474e-05
-2.88507e-11
2.53474e-05
-3.19286e-11
2.53474e-05
-3.1629e-11
2.53475e-05
-2.87245e-11
2.53475e-05
-2.39323e-11
2.53475e-05
-1.78458e-11
2.53475e-05
-1.09484e-11
2.53475e-05
-3.62195e-12
2.53475e-05
3.83857e-12
2.53475e-05
1.11546e-11
2.53475e-05
1.80448e-11
2.53475e-05
2.42217e-11
2.53475e-05
2.92578e-11
2.53475e-05
3.24622e-11
2.53475e-05
3.29121e-11
2.53475e-05
2.93385e-11
2.53474e-05
2.03403e-11
6.32899e-12
2.78696e-05
9.3635e-13
2.78696e-05
-1.9352e-11
2.78696e-05
-3.38335e-11
2.78697e-05
-4.20912e-11
2.78697e-05
-4.51534e-11
2.78697e-05
-4.40374e-11
2.78697e-05
-3.96752e-11
2.78697e-05
-3.28814e-11
2.78697e-05
-2.43452e-11
2.78697e-05
-1.4618e-11
2.78697e-05
-4.12855e-12
2.78697e-05
6.74579e-12
2.78697e-05
1.76487e-11
2.78697e-05
2.82079e-11
2.78697e-05
3.78468e-11
2.78697e-05
4.56111e-11
2.78697e-05
5.01174e-11
2.78697e-05
4.9318e-11
2.78697e-05
4.05502e-11
2.31341e-11
3.04136e-05
1.03884e-11
3.04135e-05
-1.63299e-11
3.04136e-05
-3.65715e-11
3.04136e-05
-4.91839e-11
3.04136e-05
-5.51433e-11
3.04136e-05
-5.56802e-11
3.04136e-05
-5.18999e-11
3.04136e-05
-4.47915e-11
3.04136e-05
-3.5207e-11
3.04136e-05
-2.3829e-11
3.04136e-05
-1.11884e-11
3.04136e-05
2.27268e-12
3.04136e-05
1.61583e-11
3.04136e-05
3.0063e-11
3.04136e-05
4.33335e-11
3.04136e-05
5.48636e-11
3.04136e-05
6.29582e-11
3.04136e-05
6.49554e-11
3.04136e-05
5.71483e-11
3.76837e-11
3.29781e-05
1.80942e-11
3.29781e-05
-1.2996e-11
3.29781e-05
-3.71914e-11
3.29781e-05
-5.28001e-11
3.29781e-05
-6.07809e-11
3.29781e-05
-6.2552e-11
3.29781e-05
-5.93512e-11
3.29781e-05
-5.22826e-11
3.29781e-05
-4.22981e-11
3.29781e-05
-3.01543e-11
3.29781e-05
-1.64362e-11
3.29781e-05
-1.61315e-12
3.29781e-05
1.39272e-11
3.29781e-05
2.97917e-11
3.29781e-05
4.53372e-11
3.29781e-05
5.9436e-11
3.29781e-05
7.02633e-11
3.29781e-05
7.47506e-11
3.29781e-05
6.84781e-11
4.83775e-11
3.55616e-05
2.28848e-11
3.55616e-05
-9.97803e-12
3.55616e-05
-3.58512e-11
3.55616e-05
-5.26442e-11
3.55616e-05
-6.14423e-11
3.55616e-05
-6.3816e-11
3.55616e-05
-6.10782e-11
3.55616e-05
-5.43746e-11
3.55616e-05
-4.46728e-11
3.55616e-05
-3.27292e-11
3.55616e-05
-1.91249e-11
3.55616e-05
-4.31413e-12
3.55616e-05
1.13548e-11
3.55616e-05
2.75494e-11
3.55616e-05
4.37177e-11
3.55616e-05
5.88481e-11
3.55616e-05
7.11866e-11
3.55616e-05
7.75391e-11
3.55616e-05
7.31132e-11
5.38315e-11
3.81621e-05
2.38447e-11
3.81621e-05
-7.702e-12
3.81621e-05
-3.26065e-11
3.81621e-05
-4.84652e-11
3.81621e-05
-5.6689e-11
3.81621e-05
-5.89519e-11
3.8162e-05
-5.65448e-11
3.8162e-05
-5.05487e-11
3.8162e-05
-4.18383e-11
3.8162e-05
-3.10845e-11
3.8162e-05
-1.88091e-11
3.8162e-05
-5.42492e-12
3.8162e-05
8.77823e-12
3.8162e-05
2.357e-11
3.81621e-05
3.85604e-11
3.81621e-05
5.29644e-11
3.81621e-05
6.52931e-11
3.81621e-05
7.26099e-11
3.81621e-05
6.99928e-11
5.30506e-11
4.0777e-05
2.07449e-11
4.0777e-05
-6.19178e-12
4.0777e-05
-2.7217e-11
4.0777e-05
-4.00292e-11
4.0777e-05
-4.63751e-11
4.0777e-05
-4.79228e-11
4.0777e-05
-4.58093e-11
4.0777e-05
-4.09247e-11
4.0777e-05
-3.39325e-11
4.0777e-05
-2.53246e-11
4.0777e-05
-1.55182e-11
4.0777e-05
-4.88254e-12
4.0777e-05
6.3561e-12
4.0777e-05
1.81161e-11
4.0777e-05
3.02128e-11
4.0777e-05
4.2099e-11
4.0777e-05
5.26917e-11
4.0777e-05
5.97681e-11
4.0777e-05
5.8733e-11
4.5405e-11
4.34036e-05
1.41067e-11
4.34036e-05
-4.81501e-12
4.34036e-05
-1.90424e-11
4.34036e-05
-2.71732e-11
4.34036e-05
-3.08242e-11
4.34036e-05
-3.14226e-11
4.34036e-05
-2.97807e-11
4.34035e-05
-2.64873e-11
4.34035e-05
-2.19233e-11
4.34035e-05
-1.63305e-11
4.34035e-05
-9.95751e-12
4.34035e-05
-3.09949e-12
4.34035e-05
4.05786e-12
4.34035e-05
1.15127e-11
4.34035e-05
1.92487e-11
4.34035e-05
2.70365e-11
4.34036e-05
3.43347e-11
4.34036e-05
3.96442e-11
4.34036e-05
3.98034e-11
3.11109e-11
4.60387e-05
5.55364e-12
4.60387e-05
-2.51538e-12
4.60387e-05
-8.16811e-12
4.60387e-05
-1.10914e-11
4.60387e-05
-1.21466e-11
4.60387e-05
-1.21008e-11
4.60387e-05
-1.13054e-11
4.60386e-05
-1.00155e-11
4.60386e-05
-8.30783e-12
4.60386e-05
-6.15206e-12
4.60386e-05
-3.63244e-12
4.60386e-05
-9.99899e-13
4.60386e-05
1.6208e-12
4.60386e-05
4.36183e-12
4.60386e-05
7.28574e-12
4.60386e-05
1.02075e-11
4.60387e-05
1.3094e-11
4.60387e-05
1.54944e-11
4.60387e-05
1.60966e-11
1.27207e-11
4.8679e-05
4.8679e-05
4.8679e-05
4.8679e-05
4.8679e-05
4.8679e-05
4.8679e-05
4.8679e-05
4.86789e-05
4.86789e-05
4.86789e-05
4.86789e-05
4.86789e-05
4.86789e-05
4.86789e-05
4.8679e-05
4.8679e-05
4.8679e-05
4.8679e-05
)
;

boundaryField
{
    movingWall
    {
        type            calculated;
        value           uniform 0;
    }
    fixedWalls
    {
        type            calculated;
        value           uniform 0;
    }
    left
    {
        type            cyclic;
        value           nonuniform List<scalar> 
20
(
-3.81621e-05
-3.55616e-05
-3.29781e-05
-3.04136e-05
-2.78696e-05
-2.53474e-05
-2.28474e-05
-2.03696e-05
-1.79135e-05
-1.54781e-05
-1.30616e-05
-1.06621e-05
-8.27701e-06
-5.90362e-06
-3.53874e-06
-1.17902e-06
-4.0777e-05
-4.34036e-05
-4.60387e-05
-4.8679e-05
)
;
    }
    right
    {
        type            cyclic;
        value           nonuniform List<scalar> 
20
(
3.81621e-05
3.55616e-05
3.29781e-05
3.04136e-05
2.78696e-05
2.53474e-05
2.28474e-05
2.03696e-05
1.79135e-05
1.54781e-05
1.30616e-05
1.06621e-05
8.27701e-06
5.90362e-06
3.53874e-06
1.17902e-06
4.0777e-05
4.34036e-05
4.60387e-05
4.8679e-05
)
;
    }
    frontAndBack
    {
        type            empty;
        value           nonuniform List<scalar> 0();
    }
}


// ************************************************************************* //
