0 	0 	0 	0
1.57135 	-0.00332343 	-0.00350042 	0
3.1427 	-0.0206331 	0.0149161 	0
4.71405 	-0.0319667 	0.0475248 	0
6.28539 	-0.0174081 	0.0721897 	0
7.85674 	0.0118897 	0.0642604 	0
9.42809 	0.0334318 	0.0352665 	0
10.9994 	0.03634 	-0.0115286 	0
12.5708 	0.111715 	-0.0986891 	0
14.1421 	0.5 	0 	0
