0 	-9.88599e-09
1.57135 	8.56432e-07
3.1427 	1.01253e-05
4.71405 	4.66638e-05
6.28539 	0.000138201
7.85674 	0.000318466
9.42809 	0.000622271
10.9994 	0.00110351
12.5708 	0.00194218
14.1421 	0.00464056
