0 	0 	0 	0
1.57135 	-0.0027141 	0.00270616 	0
3.1427 	-0.00568482 	0.00585374 	0
4.71405 	-0.00876741 	0.0095437 	0
6.28539 	-0.0120802 	0.015501 	0
7.85674 	-0.0116747 	0.0295392 	0
9.42809 	0.017744 	0.0411549 	0
10.9994 	0.030979 	0.00756992 	0
12.5708 	0.0131613 	0.000194316 	0
14.1421 	0.5 	0 	0
