/*--------------------------------*- C++ -*----------------------------------*\
  =========                 |
  \\      /  F ield         | OpenFOAM: The Open Source CFD Toolbox
   \\    /   O peration     | Website:  https://openfoam.org
    \\  /    A nd           | Version:  8
     \\/     M anipulation  |
\*---------------------------------------------------------------------------*/
FoamFile
{
    version     2.0;
    format      ascii;
    class       volScalarField;
    location    "1";
    object      T;
}
// * * * * * * * * * * * * * * * * * * * * * * * * * * * * * * * * * * * * * //

dimensions      [0 0 0 1 0 0 0];

internalField   nonuniform List<scalar> 
2500
(
49.8809
4.75074
-4.70391
-1.16445
1.24067
0.342716
-0.264745
-0.440172
0.463232
-0.0927921
0.0671465
-0.206291
0.10505
0.123648
-0.147627
0.0619889
-0.0860271
0.116387
-0.00013059
-0.1058
0.0700245
-0.0350262
0.061076
-0.0106724
-0.0836143
0.066366
-0.00612246
0.0125006
0.00851484
-0.0703243
0.040692
0.0271677
-0.0176875
0.0159136
-0.0444123
-0.00315517
0.0509158
-0.0109546
-0.00257642
-0.0107655
-0.0345644
0.0321761
0.0292685
-0.0139638
-0.00210559
-0.026393
-0.0188322
0.0398276
0.0222918
-0.00722924
95.528
49.8284
10.5942
-4.72229
-2.84495
1.27997
0.905806
-0.159441
-0.918202
0.54967
0.0310617
0.124087
-0.349891
0.0297799
0.292727
-0.177262
0.0361425
-0.153068
0.146361
0.101668
-0.181639
0.0480356
-0.0419955
0.0891418
0.0502434
-0.153326
0.0434669
0.018306
0.0231134
0.0485049
-0.110805
0.00149209
0.0583626
-0.00683422
0.0364371
-0.0496219
-0.0506495
0.0564805
0.0132817
0.00905781
0.00404259
-0.060777
-0.000564414
0.0394947
0.00690208
0.0217192
-0.0168752
-0.0522548
0.00458605
0.0210185
104.46
89.7168
49.8548
12.2285
-4.66133
-3.53971
1.3513
1.20847
-0.0875049
-1.15003
0.547999
0.199303
0.104048
-0.389106
-0.0621877
0.414531
-0.150221
-0.036225
-0.156767
0.125571
0.196067
-0.208357
-0.0183424
-0.00940475
0.0840507
0.101035
-0.173766
-0.019256
0.0636612
0.0276642
0.0570111
-0.10327
-0.0531925
0.082792
0.0217773
0.0135237
-0.0334786
-0.0673259
0.0394042
0.0500679
-0.00404141
-0.0114735
-0.0341239
-0.0129204
0.0338971
0.0203325
-0.00752443
-0.0143165
-0.00720916
0.000419114
101.418
104.387
88.0925
49.8176
12.8474
-4.62697
-3.99796
1.44992
1.27629
0.03509
-1.39724
0.578425
0.30835
0.0731482
-0.387779
-0.195009
0.556458
-0.136924
-0.104063
-0.148522
0.0726164
0.318665
-0.235087
-0.101132
0.0339199
0.0637641
0.174415
-0.189982
-0.115403
0.12427
0.0388552
0.0707871
-0.0895127
-0.145304
0.114567
0.0850506
-0.0149789
-0.0237044
-0.11116
0.00975935
0.139299
0.00141113
-0.0592711
-0.0358942
-0.0495389
0.0638836
0.105482
-0.0479522
-0.0775418
-0.00835168
98.5735
103.11
104.395
87.4695
49.8504
13.203
-4.56576
-4.25551
1.52725
1.36467
0.115214
-1.54858
0.562576
0.435512
0.0550881
-0.397081
-0.307386
0.650683
-0.0696104
-0.176209
-0.165035
0.0227688
0.426364
-0.206623
-0.201743
0.0340039
0.0575883
0.258023
-0.165905
-0.23226
0.125662
0.0715676
0.121407
-0.0523225
-0.256992
0.0785608
0.154211
0.0232701
0.0152816
-0.180537
-0.0902307
0.198277
0.0783229
-0.0307439
-0.0486783
-0.168563
0.0172024
0.213984
0.0288247
-0.0620047
99.8136
98.4854
103.785
104.329
87.0913
49.8497
13.3434
-4.48714
-4.52987
1.62136
1.37741
0.211309
-1.67871
0.498335
0.580992
0.0236203
-0.371714
-0.43802
0.697335
0.0470241
-0.243729
-0.177137
-0.0563929
0.497912
-0.107375
-0.291585
-0.000671797
0.0290079
0.318746
-0.0686968
-0.318009
0.0559626
0.0756109
0.173206
0.0431717
-0.30517
-0.032098
0.145222
0.0813
0.112194
-0.169734
-0.209329
0.122597
0.114296
0.078116
0.0382252
-0.230743
-0.122943
0.153441
0.0918036
100.196
99.2272
98.4879
104.212
104.327
86.9172
49.8684
13.4739
-4.4054
-4.72162
1.68906
1.39732
0.299652
-1.76447
0.413541
0.70543
0.0080785
-0.336551
-0.542886
0.686204
0.172503
-0.285563
-0.179366
-0.128223
0.49948
0.0182851
-0.336282
-0.0407014
-0.00118527
0.306284
0.0482443
-0.321896
-0.0296941
0.0599219
0.163138
0.120952
-0.23731
-0.119363
0.076221
0.0863031
0.151746
-0.0711702
-0.199936
0.000424126
0.0505783
0.108689
0.115678
-0.124773
-0.134026
-0.00131524
100.454
100.101
98.8809
98.4119
104.433
104.284
86.7569
49.8844
13.5196
-4.31166
-4.91442
1.76381
1.39802
0.364603
-1.80573
0.30395
0.841629
-0.0318371
-0.297142
-0.606343
0.635715
0.309597
-0.348565
-0.167807
-0.155341
0.448868
0.145921
-0.386239
-0.0700823
0.0258077
0.235859
0.136473
-0.304396
-0.108079
0.109417
0.118353
0.112648
-0.14252
-0.174027
0.0631806
0.114845
0.0688232
-0.0261558
-0.119005
-0.0517234
0.0611364
0.0859715
0.0132644
-0.0491242
-0.025449
99.5969
100.876
100.097
98.7489
98.3893
104.647
104.24
86.6757
49.8962
13.5771
-4.23954
-5.08831
1.8459
1.39736
0.424625
-1.85662
0.202083
0.989102
-0.0748924
-0.272912
-0.671376
0.595833
0.465436
-0.428667
-0.178642
-0.171312
0.416897
0.290798
-0.466979
-0.130462
0.08031
0.195735
0.2359
-0.326965
-0.234571
0.196859
0.129441
0.114069
-0.0932087
-0.305715
0.0683668
0.243016
0.0266276
-0.0258436
-0.14522
-0.164071
0.176379
0.204404
-0.0756408
-0.0865155
99.9994
99.5507
101.076
100.026
98.6276
98.35
104.807
104.185
86.5903
49.9152
13.6366
-4.17344
-5.26183
1.90892
1.43069
0.481919
-1.91525
0.0811159
1.13632
-0.0672211
-0.270814
-0.761547
0.543902
0.643299
-0.454047
-0.233636
-0.23273
0.398355
0.472981
-0.497552
-0.244627
0.0592136
0.191255
0.398659
-0.310144
-0.408201
0.173542
0.156988
0.229513
0.00916025
-0.479651
-0.0551082
0.306267
0.11268
0.121567
-0.178838
-0.413785
0.127503
0.325627
0.0596305
100.054
99.8187
99.5824
101.264
99.9748
98.5619
98.3054
104.975
104.122
86.51
49.9191
13.6997
-4.09059
-5.44245
1.9388
1.47863
0.554602
-1.95225
-0.0806156
1.2496
-0.00211129
-0.256702
-0.850106
0.431325
0.797169
-0.380208
-0.285663
-0.330722
0.324304
0.631179
-0.397083
-0.337292
-0.0569815
0.138061
0.539914
-0.164977
-0.485558
0.0144379
0.0786633
0.343247
0.206146
-0.47333
-0.228204
0.139093
0.130591
0.354088
-0.0164217
-0.501971
-0.0973015
0.140523
100.097
100.032
99.6473
99.5931
101.403
99.923
98.5165
98.2556
105.142
104.073
86.4413
49.9148
13.7469
-3.97869
-5.60847
1.94377
1.51594
0.621573
-1.9282
-0.263281
1.31392
0.0738058
-0.230395
-0.867265
0.264293
0.877113
-0.256252
-0.309586
-0.367415
0.188984
0.670654
-0.214025
-0.359866
-0.14314
0.0459259
0.512209
0.0253496
-0.396548
-0.120948
-0.0336281
0.289227
0.301769
-0.252417
-0.237378
-0.0701563
0.0119325
0.352609
0.151981
-0.253949
-0.140541
99.9718
100.224
100.037
99.5161
99.6076
101.508
99.8571
98.4909
98.1841
105.299
104.007
86.3975
49.9083
13.7622
-3.85771
-5.76681
1.97168
1.52703
0.65394
-1.85963
-0.436878
1.38203
0.108578
-0.233455
-0.803208
0.0999843
0.927777
-0.170401
-0.362289
-0.293672
0.0713248
0.628449
-0.0633851
-0.408273
-0.116815
0.0372872
0.356951
0.13603
-0.31197
-0.175518
0.0262582
0.170539
0.189688
-0.0742961
-0.181027
-0.086473
0.0460171
0.148536
0.0471459
-0.0326628
99.8525
100.031
100.305
100.052
99.4153
99.6603
101.593
99.8014
98.4835
98.1357
105.451
103.913
86.3786
49.9131
13.7834
-3.76601
-5.93486
2.04004
1.54078
0.668059
-1.82009
-0.59946
1.50424
0.126803
-0.27821
-0.753072
-0.0362438
1.04184
-0.117431
-0.486835
-0.214796
0.000457676
0.655397
0.0575756
-0.573513
-0.0907505
0.112444
0.280095
0.246519
-0.379663
-0.311618
0.203415
0.185566
0.125831
-0.0176791
-0.348156
-0.0996211
0.310618
0.122746
-0.0561855
100.125
99.7112
100.081
100.34
100.033
99.3075
99.724
101.653
99.7281
98.4598
98.1183
105.603
103.8
86.3415
49.9298
13.8479
-3.70222
-6.12673
2.09686
1.59779
0.716007
-1.84148
-0.785024
1.63988
0.204857
-0.302088
-0.798137
-0.193535
1.20784
-0.00233658
-0.596575
-0.258436
-0.115351
0.783858
0.254497
-0.730554
-0.191216
0.0722594
0.32178
0.510652
-0.435214
-0.564248
0.186769
0.209598
0.319676
0.182698
-0.610624
-0.350808
0.365776
0.228401
99.9977
100.116
99.6246
100.17
100.383
100.02
99.2056
99.8132
101.72
99.6497
98.4124
98.1159
105.771
103.7
86.2582
49.9399
13.9464
-3.61779
-6.32378
2.0742
1.69059
0.819285
-1.85983
-1.00228
1.68064
0.360806
-0.238738
-0.883712
-0.40225
1.27827
0.203495
-0.5555
-0.383296
-0.328227
0.837385
0.508793
-0.656862
-0.324277
-0.174964
0.283913
0.798702
-0.251195
-0.64769
-0.0751071
-0.0201455
0.501866
0.556584
-0.523203
-0.534095
0.00643234
100.01
100.064
100.063
99.5282
100.253
100.409
100.005
99.0894
99.9068
101.795
99.5801
98.358
98.0892
105.957
103.635
86.1542
49.9309
14.017
-3.47197
-6.48968
1.97945
1.77073
0.916365
-1.78455
-1.20297
1.58721
0.524781
-0.13751
-0.876734
-0.587454
1.14999
0.405015
-0.393488
-0.435557
-0.495802
0.671668
0.642193
-0.371199
-0.329159
-0.390344
0.0958751
0.786778
0.0463941
-0.396948
-0.250415
-0.332446
0.3548
0.654143
-0.124832
-0.270528
99.948
100.052
100.145
100.013
99.4548
100.336
100.418
100.008
98.9617
100.003
101.843
99.5329
98.3208
98.0259
106.14
103.573
86.0924
49.9128
14.0172
-3.29036
-6.62543
1.91012
1.81171
0.924168
-1.61928
-1.349
1.46953
0.638206
-0.135752
-0.746182
-0.661589
0.929683
0.537149
-0.321134
-0.389221
-0.445154
0.403883
0.607374
-0.148744
-0.301193
-0.318528
-0.0104388
0.476347
0.171348
-0.143156
-0.21428
-0.273698
0.122389
0.296962
0.0668359
99.9729
99.9113
100.079
100.215
99.9515
99.4218
100.412
100.414
100.021
98.8525
100.121
101.837
99.5076
98.3033
97.9773
106.298
103.462
86.0977
49.9095
13.9949
-3.14734
-6.78238
1.94297
1.84741
0.859352
-1.47425
-1.48815
1.46987
0.74074
-0.270425
-0.615655
-0.688057
0.820267
0.691328
-0.449142
-0.388215
-0.27182
0.245122
0.642713
-0.118775
-0.484918
-0.10762
0.0932321
0.274946
0.221551
-0.246452
-0.315676
0.0960854
0.191734
0.0357156
100.094
99.8952
99.8948
100.1
100.257
99.862
99.4239
100.476
100.395
99.9979
98.778
100.268
101.789
99.4688
98.2754
98.004
106.433
103.294
86.1079
49.9303
14.0486
-3.0773
-7.00236
2.02177
1.92683
0.852938
-1.43435
-1.70863
1.57064
0.90524
-0.376987
-0.595568
-0.843916
0.847974
0.97342
-0.589076
-0.491031
-0.285505
0.167718
0.942403
-0.063866
-0.809448
-0.112479
0.100247
0.380128
0.562419
-0.461116
-0.705925
0.179006
0.279153
99.9688
100.143
99.8284
99.914
100.146
100.285
99.7579
99.4558
100.56
100.375
99.9255
98.7272
100.439
101.76
99.3835
98.2105
98.0971
106.582
103.13
86.0308
49.9541
14.2079
-3.02056
-7.24902
1.99831
2.04197
1.00233
-1.44568
-2.00092
1.5837
1.10525
-0.2612
-0.627035
-1.16464
0.814928
1.27193
-0.468698
-0.523494
-0.585045
-0.0410923
1.2786
0.209443
-0.846314
-0.323385
-0.298179
0.44239
1.09699
-0.288726
-0.864136
-0.176314
99.9825
100.021
100.149
99.7381
99.9408
100.199
100.304
99.6317
99.4887
100.667
100.363
99.8335
98.6551
100.622
101.786
99.2674
98.1173
98.1676
106.782
103.032
85.8586
49.9521
14.3724
-2.88122
-7.43096
1.8056
2.13383
1.22272
-1.37522
-2.21961
1.36984
1.22813
0.0336176
-0.574628
-1.41659
0.571551
1.33244
-0.107688
-0.339909
-0.861591
-0.373977
1.2245
0.500791
-0.414087
-0.371039
-0.802428
0.158385
1.19596
0.151244
-0.361277
99.9821
99.9694
100.099
100.145
99.6504
99.977
100.244
100.338
99.4879
99.5226
100.761
100.366
99.7664
98.5368
100.802
101.823
99.1877
98.0291
98.1429
107.021
102.984
85.7029
49.923
14.409
-2.64193
-7.5144
1.56346
2.17761
1.30711
-1.17847
-2.24775
1.02764
1.25103
0.227752
-0.444118
-1.34786
0.232073
1.12503
0.189906
-0.135817
-0.787857
-0.515263
0.761701
0.515953
0.052212
-0.187468
-0.803136
-0.14104
0.639036
0.271865
100.001
99.9421
99.9558
100.183
100.119
99.5931
100.012
100.276
100.382
99.3509
99.5886
100.792
100.389
99.7287
98.4217
100.969
101.789
99.194
97.9679
98.0684
107.233
102.896
85.6826
49.8986
14.3184
-2.39966
-7.59202
1.46529
2.22936
1.17016
-0.959088
-2.18566
0.794696
1.32698
0.132479
-0.389145
-1.04898
0.00469512
0.987591
0.256012
-0.258994
-0.483832
-0.326273
0.366139
0.432379
0.0565439
-0.22477
-0.303568
-0.0122949
0.102625
100.061
99.9705
99.9091
99.9475
100.25
100.055
99.5785
100.038
100.299
100.383
99.2496
99.7014
100.76
100.41
99.6736
98.3981
101.114
101.661
99.2402
97.9245
98.0809
107.361
102.703
85.7729
49.9098
14.2699
-2.26521
-7.79697
1.5493
2.3528
0.994617
-0.83522
-2.28859
0.760077
1.60001
-0.0866372
-0.457873
-0.916897
-0.132184
1.23517
0.291984
-0.669262
-0.352896
-0.201253
0.350304
0.745729
-0.215658
-0.705236
-0.00741139
0.203978
99.9682
100.11
99.9394
99.8976
99.9776
100.295
99.9636
99.5983
100.083
100.326
100.308
99.1913
99.8474
100.737
100.38
99.5613
98.4889
101.256
101.514
99.2072
97.8753
98.2558
107.432
102.45
85.7987
49.9485
14.4281
-2.23038
-8.13282
1.62134
2.51155
1.06286
-0.783778
-2.65934
0.747482
1.95059
-0.0766719
-0.449051
-1.18159
-0.405278
1.6824
0.538814
-0.83664
-0.478425
-0.611941
0.405712
1.4463
-0.154497
-1.03017
-0.267303
99.9734
100.005
100.126
99.8804
99.8948
100.039
100.32
99.8474
99.6165
100.174
100.36
100.182
99.1298
100.008
100.787
100.287
99.4046
98.5996
101.442
101.441
99.0335
97.8042
98.4978
107.557
102.258
85.6156
49.9724
14.7436
-2.15986
-8.42556
1.45101
2.58694
1.42113
-0.67511
-3.0528
0.532904
2.05257
0.272712
-0.161
-1.57264
-0.853733
1.7725
0.851799
-0.37927
-0.491732
-1.34888
0.101337
1.77943
0.303251
-0.499384
100.006
99.9419
100.07
100.129
99.8025
99.9013
100.11
100.352
99.7038
99.6243
100.284
100.405
100.068
99.0103
100.178
100.884
100.197
99.2437
98.61
101.698
101.444
98.8169
97.706
98.6217
107.819
102.186
85.2965
49.9513
14.9622
-1.93404
-8.49766
1.04409
2.53488
1.76921
-0.460691
-3.0943
0.129093
1.77058
0.676249
0.24625
-1.60598
-1.15091
1.25997
0.873526
0.344971
-0.187688
-1.61267
-0.362458
1.19118
0.520614
100.004
99.9737
99.9177
100.158
100.114
99.7403
99.9043
100.179
100.402
99.552
99.6528
100.342
100.481
99.9854
98.8613
100.344
100.927
100.207
99.0957
98.5251
101.965
101.428
98.7404
97.5827
98.5622
108.156
102.154
85.0958
49.9039
14.8898
-1.59161
-8.39882
0.673328
2.48877
1.7589
-0.255005
-2.73114
-0.235998
1.42848
0.799404
0.32856
-1.18371
-1.01672
0.58054
0.647099
0.588358
0.0232612
-1.03478
-0.389166
0.233346
100.037
99.9971
99.9321
99.899
100.237
100.065
99.7215
99.886
100.247
100.416
99.4427
99.7187
100.317
100.58
99.8938
98.7991
100.464
100.861
100.316
98.9563
98.4976
102.125
101.31
98.864
97.4568
98.4769
108.392
102.015
85.1836
49.8812
14.6446
-1.30441
-8.40994
0.596368
2.63397
1.40798
-0.174068
-2.38348
-0.429239
1.52143
0.677811
-0.0809407
-0.734039
-0.735163
0.346899
0.737085
0.17131
-0.340995
-0.271961
-0.0276843
99.9825
100.071
99.9935
99.8981
99.9203
100.279
99.9982
99.7425
99.8778
100.314
100.34
99.4166
99.806
100.276
100.627
99.7587
98.9017
100.524
100.747
100.379
98.8399
98.6655
102.13
101.114
99.0136
97.3778
98.5988
108.412
101.719
85.4203
49.9113
14.5866
-1.19514
-8.75333
0.752838
2.95448
1.14484
-0.132273
-2.53027
-0.595479
2.10197
0.654373
-0.504718
-0.666568
-0.967206
0.564548
1.47613
-0.235367
-0.929727
-0.205543
99.967
100.014
100.082
99.9678
99.8802
99.988
100.276
99.9176
99.7669
99.9381
100.358
100.187
99.4316
99.913
100.311
100.546
99.5986
99.0953
100.601
100.677
100.245
98.7717
98.9818
102.106
100.927
98.9335
97.382
98.9725
108.326
101.383
85.4505
49.9649
14.9413
-1.19174
-9.29563
0.792164
3.16825
1.36998
0.0932212
-3.13058
-0.940021
2.5774
0.89655
-0.251093
-0.837348
-1.89117
0.628302
2.26406
0.00627232
-0.724151
100.011
99.941
100.063
100.073
99.9057
99.8856
100.079
100.26
99.8003
99.7812
100.066
100.383
100.02
99.3892
100.071
100.422
100.387
99.431
99.2216
100.806
100.664
99.9544
98.7161
99.2511
102.262
100.8
98.5802
97.4252
99.3703
108.406
101.18
85.0747
49.9834
15.4993
-1.08813
-9.61151
0.439069
3.00979
1.98226
0.545274
-3.56528
-1.3833
2.29117
1.14751
0.715142
-0.768359
-2.73255
0.172496
2.06044
0.600644
100.008
99.978
99.9337
100.143
100.045
99.8372
99.8953
100.183
100.263
99.645
99.8075
100.18
100.447
99.861
99.2727
100.268
100.519
100.309
99.2201
99.2296
101.122
100.65
99.7428
98.5666
99.3488
102.643
100.701
98.2248
97.3811
99.515
108.802
101.144
84.5203
49.9418
15.7639
-0.761862
-9.4238
-0.184942
2.59712
2.42185
0.918254
-3.26659
-1.59904
1.32601
1.10313
1.52501
-0.371119
-2.4936
-0.375172
0.737324
100.02
100.008
99.9244
99.9376
100.224
99.9975
99.7979
99.8729
100.307
100.246
99.5238
99.8369
100.221
100.582
99.6852
99.2022
100.394
100.558
100.391
98.9503
99.2409
101.347
100.618
99.7835
98.2757
99.3647
103.009
100.589
98.1977
97.164
99.3919
109.327
101.117
84.2753
49.8796
15.4684
-0.318297
-8.98218
-0.654227
2.42241
2.24849
0.854009
-2.39573
-1.4853
0.565226
0.944218
1.27165
-0.152691
-1.21887
-0.413616
99.9999
100.044
100.012
99.8636
99.9737
100.257
99.9613
99.7861
99.8424
100.42
100.163
99.5234
99.8282
100.232
100.684
99.5176
99.2924
100.356
100.582
100.494
98.7321
99.3909
101.292
100.611
99.964
97.9902
99.4928
103.036
100.475
98.5094
96.8725
99.3023
109.58
100.909
84.5807
49.8621
14.9415
0.00562951
-8.90905
-0.682143
2.85015
1.65567
0.454221
-1.7715
-1.47278
0.790327
1.21729
0.132288
-0.47077
-0.226337
99.9674
100.025
100.059
100.003
99.8339
100.04
100.221
99.9488
99.781
99.8839
100.445
100.039
99.6179
99.8139
100.284
100.605
99.4401
99.4981
100.247
100.61
100.402
98.7268
99.6574
101.044
100.615
99.9844
97.9635
99.8017
102.7
100.373
98.7766
96.7612
99.5632
109.355
100.503
85.0935
49.9105
14.8671
0.0904346
-9.55914
-0.451489
3.60109
1.32722
0.363901
-2.02489
-2.1206
1.73892
2.02955
-0.618294
-0.753082
100
99.9597
100.048
100.051
99.9567
99.8656
100.106
100.152
99.9036
99.8049
100.015
100.366
99.9147
99.684
99.9145
100.351
100.353
99.4417
99.6878
100.297
100.556
100.092
98.9104
99.9211
100.936
100.501
99.6984
98.2525
100.173
102.385
100.215
98.5967
96.9875
100.152
108.946
100.09
85.1412
49.9759
15.5808
0.073791
-10.5214
-0.455667
3.86602
1.72776
1.13474
-2.85632
-3.30097
2.24318
2.55424
0.0703235
100.013
99.9683
99.9788
100.093
100.003
99.8976
99.9334
100.182
100.08
99.7844
99.8912
100.16
100.295
99.75
99.68
100.161
100.372
100.114
99.3541
99.8415
100.58
100.376
99.7694
99.0027
100.162
101.174
100.184
99.2925
98.5457
100.477
102.53
99.9037
98.008
97.363
100.694
108.943
99.8809
84.4122
49.9874
16.5973
0.220683
-10.8799
-0.98584
3.11526
2.56606
2.43258
-3.25961
-3.97735
1.44379
1.74839
100.011
100.002
99.9231
100.027
100.149
99.9265
99.8512
99.9829
100.307
99.9767
99.6646
99.9758
100.282
100.318
99.4931
99.6998
100.38
100.413
100.004
99.0692
100.048
100.867
100.238
99.5989
98.767
100.472
101.556
99.8421
99.0672
98.4265
100.737
103.109
99.4918
97.5156
97.44
100.835
109.631
99.8735
83.4018
49.9274
16.9539
0.647039
-10.1335
-1.79867
1.85146
3.04352
3.05655
-2.56599
-3.15166
-0.192123
100.011
100.029
99.9796
99.8626
100.106
100.164
99.8844
99.7906
100.026
100.434
99.848
99.6416
99.9487
100.436
100.344
99.26
99.7868
100.386
100.597
99.9197
98.7754
100.281
100.887
100.374
99.5006
98.3659
100.835
101.665
99.8207
99.0825
97.8778
101.044
103.561
99.2402
97.5899
96.9616
100.636
110.568
99.8415
83.0596
49.8534
16.1762
1.18587
-8.90574
-2.33897
1.39638
2.68009
2.06146
-1.21685
-1.24245
99.9803
100.032
100.058
99.9411
99.8399
100.169
100.135
99.8999
99.7126
100.114
100.434
99.7952
99.6819
99.856
100.603
100.231
99.2619
99.8331
100.259
100.833
99.7379
98.8
100.353
100.678
100.708
99.3263
98.2678
101.025
101.351
100.2
99.1196
97.4418
101.35
103.33
99.3714
98.1354
96.2596
100.545
110.877
99.5599
83.8395
49.841
14.9532
1.54797
-8.59562
-2.31308
2.64508
1.85737
0.0540961
-0.379232
99.9826
99.9855
100.042
100.073
99.8946
99.8949
100.163
100.104
99.9026
99.7169
100.205
100.285
99.8499
99.7017
99.8888
100.612
100.027
99.4914
99.7988
100.236
100.81
99.5559
99.179
100.22
100.523
100.808
99.1449
98.7086
100.891
100.92
100.536
99.0065
97.7165
101.478
102.512
99.7081
98.5253
96.0875
100.944
110.116
99.0466
85.0469
49.9046
14.7159
1.62178
-10.0572
-2.01768
4.84545
1.46766
-0.734997
100.009
99.9689
99.9997
100.053
100.022
99.8903
99.9869
100.126
100.045
99.8597
99.8748
100.214
100.119
99.8534
99.7701
100.091
100.386
99.8795
99.6701
99.893
100.351
100.408
99.5256
99.5642
100.198
100.531
100.365
99.1556
99.3571
100.712
100.75
100.238
98.854
98.6426
101.425
101.858
99.6714
98.2321
96.8773
101.732
108.926
98.5592
85.2639
49.979
16.2894
1.60087
-12.4405
-2.05817
5.69537
1.99135
100.008
99.9865
99.9663
100.055
100.045
99.9261
99.9294
100.078
100.134
99.8821
99.8551
100.072
100.213
99.9853
99.6881
100.005
100.274
100.163
99.7276
99.638
100.295
100.396
99.9589
99.5025
99.6784
100.63
100.497
99.6682
99.2822
99.6731
101.02
100.821
99.2937
98.8446
99.4148
101.557
102.025
98.8392
97.4174
98.0946
102.394
108.668
98.3359
83.6813
49.9844
18.7741
1.79564
-13.4016
-2.72483
2.96222
100.014
100.005
99.9432
99.9708
100.15
99.9895
99.8571
99.9304
100.218
100.136
99.6829
99.9022
100.172
100.354
99.7679
99.5203
100.264
100.351
100.193
99.3736
99.5996
100.759
100.329
99.8622
99.1538
99.6886
101.322
100.295
99.3588
99.0978
99.5652
101.92
100.795
98.4925
98.8493
99.268
102.278
102.824
97.5944
96.8268
98.4792
102.52
110.149
98.3424
81.2002
49.9094
19.8127
2.31367
-10.7564
-3.67191
100.004
100.033
100.009
99.8657
100.019
100.203
99.952
99.8058
99.8936
100.401
100.046
99.6313
99.8537
100.254
100.539
99.4895
99.5577
100.25
100.504
100.327
98.9302
99.7655
100.818
100.435
100.028
98.5351
99.9037
101.606
100.207
99.6496
98.3922
99.4872
102.71
100.557
98.6799
98.4932
98.3777
103.392
103.318
97.0584
97.0374
97.215
102.249
112.513
98.2934
80.1653
49.8258
17.2511
2.93892
-4.25215
99.9781
100.016
100.066
99.9957
99.8132
100.088
100.173
99.9913
99.7187
99.9423
100.45
99.9638
99.7201
99.6973
100.424
100.486
99.4325
99.6815
100.006
100.786
100.22
98.8582
99.9464
100.449
100.825
100.006
98.2622
100.217
101.143
100.55
100.023
97.7113
99.7954
102.497
100.437
99.7355
97.7607
97.8246
103.952
102.766
98.0675
97.8227
95.0633
102.155
113.453
97.9391
82.7203
49.817
10.8685
3.3443
99.991
99.9792
100.013
100.094
99.9441
99.8646
100.089
100.134
100.009
99.6935
100.071
100.282
100.012
99.7554
99.704
100.495
100.203
99.6912
99.6761
99.9419
100.832
99.913
99.3186
99.8716
100.176
101.02
99.6955
98.7913
100.229
100.448
100.997
99.8956
97.9519
100.233
101.306
100.675
100.489
97.385
98.5086
103.098
101.46
99.9989
98.3341
94.2654
102.666
110.818
97.3283
89.089
49.8917
3.4277
100.005
99.9867
99.9834
100.032
100.044
99.9251
99.9713
100.049
100.093
99.9209
99.8699
100.109
100.096
100.016
99.7668
99.9955
100.264
99.9974
99.8882
99.7299
100.192
100.362
99.7823
99.8035
99.8066
100.317
100.484
99.5238
99.68
100.01
100.301
100.702
99.4135
99.2176
100.342
100.336
100.786
99.8867
98.2455
100.106
101.273
100.507
100.705
97.9625
97.0015
103.604
104.345
96.7693
96.5195
49.9721
)
;

boundaryField
{
    left
    {
        type            fixedValue;
        value           uniform 100;
    }
    right
    {
        type            zeroGradient;
    }
    up
    {
        type            zeroGradient;
    }
    down
    {
        type            fixedValue;
        value           uniform 0;
    }
    frontAndBack
    {
        type            empty;
    }
}


// ************************************************************************* //
