/*--------------------------------*- C++ -*----------------------------------*\
  =========                 |
  \\      /  F ield         | OpenFOAM: The Open Source CFD Toolbox
   \\    /   O peration     | Website:  https://openfoam.org
    \\  /    A nd           | Version:  8
     \\/     M anipulation  |
\*---------------------------------------------------------------------------*/
FoamFile
{
    version     2.0;
    format      ascii;
    class       surfaceScalarField;
    location    "69";
    object      phi;
}
// * * * * * * * * * * * * * * * * * * * * * * * * * * * * * * * * * * * * * //

dimensions      [0 3 -1 0 0 0 0];

internalField   nonuniform List<scalar> 
34404
(
0.0053417
-8.37267e-06
4.15137e-09
0.00536671
-2.49931e-05
-9.46184e-09
0.0054075
-4.0779e-05
-1.28534e-08
0.00546255
-5.50403e-05
-7.20896e-09
0.00552977
-6.72186e-05
-3.90694e-09
0.00560663
-7.68567e-05
-3.11126e-09
0.00569026
-8.36257e-05
-1.78301e-09
0.00577761
-8.7354e-05
2.04279e-10
0.00586565
-8.80477e-05
2.85658e-09
0.00595154
-8.58938e-05
5.12162e-09
0.00603278
-8.12425e-05
6.84338e-09
0.00610734
-7.45692e-05
7.87622e-09
0.00617375
-6.64219e-05
8.1792e-09
0.00623111
-5.73634e-05
7.87808e-09
0.00627903
-4.79242e-05
7.18586e-09
0.0063176
-3.85748e-05
6.32038e-09
0.00634731
-2.97157e-05
5.41004e-09
0.00636898
-2.16776e-05
4.49239e-09
0.0063837
-1.47223e-05
3.52631e-09
0.00639273
-9.03503e-06
2.46858e-09
0.00639744
-4.71511e-06
1.3706e-09
0.0063992
-1.76068e-06
3.10004e-10
0.00639927
-6.47127e-08
-5.82119e-10
0.00639868
5.87391e-07
-1.24876e-09
0.00639818
5.04034e-07
-1.54137e-09
0.00639806
1.22685e-07
-1.92685e-09
0.0063982
-1.36856e-07
-1.85284e-09
0.00639799
2.09003e-07
-1.96484e-09
0.00639642
1.57464e-06
-1.09738e-09
0.00639208
4.33958e-06
-7.39694e-10
0.00638334
8.73889e-06
1.10439e-09
0.00636845
1.48886e-05
9.58323e-10
0.00634573
2.27168e-05
3.32779e-09
0.00631374
3.19877e-05
1.63365e-09
0.00627136
4.23759e-05
4.83807e-09
0.00621805
5.33116e-05
5.16119e-10
0.00615358
6.44651e-05
5.6724e-09
0.00607861
7.49724e-05
-2.50611e-09
0.00599368
8.49172e-05
6.73887e-09
0.00590068
9.30044e-05
-6.84607e-09
0.00580036
0.000100319
9.34662e-09
0.00569582
0.000104553
-1.21348e-08
0.00558706
0.000108744
1.3028e-08
0.00547887
0.0001082
-1.65908e-08
0.00536921
0.000109652
1.48838e-08
0.00526573
0.000103494
-1.43044e-08
0.00516258
0.00010315
4.16261e-09
0.00507249
9.00752e-05
1.01807e-08
0.00498342
8.91102e-05
-3.74719e-08
6.67155e-05
6.25937e-08
0.00534194
-1.69852e-05
3.94442e-09
0.00536761
-5.06528e-05
-9.77986e-09
0.0054095
-8.26481e-05
-1.29291e-08
0.00546603
-0.000111562
-7.3144e-09
0.00553505
-0.000136235
-4.11622e-09
0.00561393
-0.000155734
-3.25061e-09
0.00569969
-0.000169391
-1.74105e-09
0.00578919
-0.000176852
3.32277e-10
0.00587927
-0.000178129
3.15082e-09
0.00596698
-0.000173608
5.49749e-09
0.00604974
-0.000164011
7.24105e-09
0.00612549
-0.000150325
8.22482e-09
0.00619273
-0.000133677
8.43415e-09
0.00625058
-0.000115222
8.04163e-09
0.00629869
-9.60367e-05
7.30495e-09
0.00633718
-7.70708e-05
6.46135e-09
0.00636659
-5.91287e-05
5.61274e-09
0.00638778
-4.28745e-05
4.74284e-09
0.00640189
-2.88373e-05
3.78376e-09
0.00641025
-1.73944e-05
2.71007e-09
0.00641428
-8.75139e-06
1.60096e-09
0.00641543
-2.90838e-06
4.4524e-10
0.00641501
3.50538e-07
-4.324e-10
0.00641415
1.45535e-06
-9.59432e-10
0.00641361
1.04745e-06
-1.53445e-09
0.00641369
3.51565e-08
-2.09239e-09
0.00641432
-7.58028e-07
-1.99691e-09
0.00641485
-3.18694e-07
-1.85979e-09
0.00641419
2.23724e-06
-1.13396e-09
0.00641086
7.66915e-06
-8.16523e-10
0.00640313
1.64671e-05
9.77341e-10
0.00638913
2.88828e-05
9.46164e-10
0.00636709
4.47512e-05
3.46764e-09
0.00633547
6.36076e-05
2.01723e-09
0.0062931
8.47425e-05
5.24782e-09
0.00623939
0.000107025
1.04436e-09
0.00617414
0.000129702
5.95716e-09
0.00609803
0.000151092
-1.93095e-09
0.00601171
0.000171231
6.96994e-09
0.00591705
0.000187662
-6.41715e-09
0.00581501
0.000202356
8.92501e-09
0.00570862
0.000210954
-1.18359e-08
0.00559812
0.000219233
1.25328e-08
0.00548815
0.000218179
-1.60244e-08
0.00537689
0.000220905
1.43717e-08
0.00527187
0.000208525
-1.36427e-08
0.00516729
0.000207727
3.73926e-09
0.005076
0.000181357
1.05673e-08
0.00498564
0.000179506
-3.74297e-08
0.000134276
6.22428e-08
0.00534241
-2.60628e-05
4.0559e-09
0.00536948
-7.77093e-05
-1.03545e-08
0.00541363
-0.000126784
-1.3553e-08
0.0054732
-0.000171124
-7.71878e-09
0.00554589
-0.000208929
-4.40834e-09
0.00562891
-0.000238749
-3.41062e-09
0.00571906
-0.000259537
-1.54577e-09
0.00581294
-0.000270736
7.51852e-10
0.00590717
-0.000272361
3.95598e-09
0.00599858
-0.000265022
6.58296e-09
0.00608443
-0.000249869
8.4511e-09
0.00616256
-0.000228465
9.35491e-09
0.00623146
-0.000202593
9.31732e-09
0.00629029
-0.000174052
8.62149e-09
0.00633874
-0.000144503
7.63842e-09
0.00637705
-0.000115384
6.65752e-09
0.00640583
-8.79094e-05
5.76222e-09
0.00642603
-6.30814e-05
4.88378e-09
0.00643889
-4.17071e-05
3.91275e-09
0.00644587
-2.43716e-05
2.7965e-09
0.00644852
-1.14008e-05
1.60147e-09
0.00644841
-2.80648e-06
3.51461e-10
0.00644703
1.73636e-06
-6.78023e-10
0.00644558
2.90234e-06
-1.72386e-09
0.00644497
1.662e-06
-1.83601e-09
0.00644553
-5.22299e-07
-2.58749e-09
0.00644718
-2.40282e-06
-2.432e-09
0.00644922
-2.36044e-06
-2.20235e-09
0.00645046
1.0032e-06
-1.24148e-09
0.00644922
8.90574e-06
-7.56463e-10
0.00644358
2.2112e-05
1.3177e-09
0.00643142
4.10352e-05
1.5443e-09
0.00641077
6.54008e-05
4.17679e-09
0.00637988
9.44884e-05
2.73932e-09
0.00633748
0.000127136
5.90401e-09
0.00628292
0.000161591
1.744e-09
0.00621603
0.000196586
6.53867e-09
0.00613754
0.000229582
-1.38496e-09
0.00604828
0.000260481
7.1151e-09
0.00595026
0.00028569
-6.08834e-09
0.00584462
0.000307983
9.08646e-09
0.00573452
0.000321069
-1.12411e-08
0.00562038
0.000333363
1.2655e-08
0.00550689
0.000331682
-1.56384e-08
0.00539229
0.000335492
1.43086e-08
0.00528425
0.000316575
-1.34935e-08
0.00517674
0.000315235
3.49316e-09
0.00508302
0.000275065
1.08562e-08
0.00499023
0.000272336
-3.86645e-08
0.000203815
6.34986e-08
0.00534313
-3.58641e-05
4.33688e-09
0.00537235
-0.000106917
-1.1225e-08
0.00542
-0.000174419
-1.46865e-08
0.00548427
-0.000235389
-8.43873e-09
0.00556267
-0.000287322
-4.86389e-09
0.00565211
-0.000328185
-3.68304e-09
0.00574907
-0.000356492
-1.41364e-09
0.00584977
-0.000371438
1.47122e-09
0.00595044
-0.000373039
5.29018e-09
0.00604758
-0.000362168
8.41953e-09
0.00613819
-0.000340488
1.04911e-08
0.00621997
-0.000310258
1.12224e-08
0.0062914
-0.000274034
1.07188e-08
0.00635169
-0.000234349
9.46831e-09
0.00640067
-0.000193492
8.05024e-09
0.00643868
-0.000153406
6.8607e-09
0.00646648
-0.000115714
5.94376e-09
0.00648516
-8.17646e-05
5.10512e-09
0.00649611
-5.2659e-05
4.13182e-09
0.00650095
-2.92159e-05
2.93052e-09
0.00650145
-1.19066e-05
1.55363e-09
0.00649942
-7.70463e-07
2.07402e-10
0.00649653
4.62771e-06
-9.22926e-10
0.00649421
5.21779e-06
-1.68326e-09
0.00649351
2.3709e-06
-2.14275e-09
0.00649483
-1.84547e-06
-3.21801e-09
0.00649811
-5.67965e-06
-3.20341e-09
0.00650256
-6.80446e-06
-3.02869e-09
0.00650681
-3.24464e-06
-1.42548e-09
0.00650889
6.82717e-06
-5.74151e-10
0.00650653
2.44673e-05
1.81666e-09
0.00649727
5.02948e-05
2.27325e-09
0.00647877
8.39008e-05
5.08595e-09
0.00644899
0.000124259
3.77927e-09
0.00640647
0.000169651
7.04219e-09
0.00635046
0.000217593
2.93002e-09
0.00628087
0.000266168
7.53116e-09
0.00619856
0.000311895
-4.77187e-10
0.00610461
0.000354426
7.77899e-09
0.00600124
0.000389066
-5.22491e-09
0.00588995
0.000419263
9.52818e-09
0.00577402
0.000437005
-1.0669e-08
0.00565423
0.000453138
1.2702e-08
0.00553528
0.000450655
-1.54341e-08
0.00541559
0.000455163
1.42448e-08
0.0053029
0.000429278
-1.35395e-08
0.00519098
0.000427157
3.23674e-09
0.00509359
0.000372441
1.11629e-08
0.00499709
0.000368874
-4.04419e-08
0.000276269
6.58853e-08
0.00534414
-4.66696e-05
4.7107e-09
0.00537634
-0.000139103
-1.24625e-08
0.00542884
-0.00022691
-1.63847e-08
0.00549966
-0.000306198
-9.5942e-09
0.00558601
-0.000373667
-5.6511e-09
0.00568444
-0.000426606
-4.18688e-09
0.00579094
-0.000462991
-1.31738e-09
0.0059012
-0.000481704
2.54994e-09
0.0060109
-0.000482747
7.39046e-09
0.00611603
-0.00046731
1.13316e-08
0.00621324
-0.000437705
1.3696e-08
0.00630003
-0.00039707
1.40835e-08
0.00637489
-0.000348908
1.27748e-08
0.00643715
-0.000296616
1.06318e-08
0.00648681
-0.000243164
8.5962e-09
0.00652441
-0.00019101
7.20084e-09
0.00655086
-0.000142171
6.35128e-09
0.00656744
-9.83466e-05
5.61742e-09
0.00657573
-6.09601e-05
4.62814e-09
0.00657762
-3.11029e-05
3.25561e-09
0.00657514
-9.43246e-06
1.54377e-09
0.00657042
3.95536e-06
1.37845e-10
0.00656543
9.61086e-06
-1.15934e-09
0.00656193
8.72274e-06
-1.90066e-09
0.00656113
3.17817e-06
-2.53398e-09
0.00656358
-4.29991e-06
-4.1579e-09
0.00656924
-1.13324e-05
-4.21078e-09
0.00657718
-1.4744e-05
-3.73676e-09
0.00658576
-1.18177e-05
-1.9283e-09
0.00659261
-2.19215e-08
-6.79996e-10
0.00659496
2.21151e-05
2.28048e-09
0.00658981
5.54435e-05
3.20397e-09
0.00657431
9.93947e-05
6.49226e-09
0.00654601
0.000152554
5.548e-09
0.00650315
0.000212495
8.90263e-09
0.00644492
0.000275825
4.80357e-09
0.00637128
0.000339793
9.14667e-09
0.00628334
0.000399837
1.08986e-09
0.00618254
0.000455213
8.76326e-09
0.00607147
0.000500143
-4.11549e-09
0.00595211
0.000538619
9.72649e-09
0.00582795
0.000561174
-9.9928e-09
0.00570025
0.000580818
1.23545e-08
0.00557366
0.000577261
-1.49452e-08
0.00544702
0.000581789
1.37919e-08
0.0053279
0.000548413
-1.31359e-08
0.00521005
0.000545007
2.69801e-09
0.00510771
0.000474766
1.19472e-08
0.00500619
0.000470438
-4.2585e-08
0.000352571
6.88743e-08
0.00534545
-5.87937e-05
5.21063e-09
0.00538156
-0.000175196
-1.40079e-08
0.00544046
-0.000285788
-1.8648e-08
0.00551991
-0.000385643
-1.11958e-08
0.0056168
-0.000470544
-6.81449e-09
0.00572717
-0.000536975
-4.96171e-09
0.0058464
-0.000582218
-1.22794e-09
0.00596943
-0.000604739
4.15805e-09
0.00609117
-0.000604492
1.06034e-08
0.0062069
-0.000583056
1.58557e-08
0.00631276
-0.00054359
1.86234e-08
0.00640607
-0.000490391
1.82985e-08
0.00648532
-0.000428174
1.55505e-08
0.00655006
-0.000361366
1.19689e-08
0.00660056
-0.000293676
9.10919e-09
0.00663759
-0.000228049
7.59957e-09
0.00666228
-0.000166872
6.99723e-09
0.00667612
-0.000112193
6.45448e-09
0.00668095
-6.57943e-05
5.37451e-09
0.00667895
-2.91013e-05
3.61932e-09
0.00667253
-3.02046e-06
1.27055e-09
0.00666426
1.22272e-05
5.03548e-11
0.00665654
1.73339e-05
-1.53817e-09
0.00665145
1.38152e-05
-2.6794e-09
0.00665057
4.05779e-06
-2.67244e-09
0.00665465
-8.3704e-06
-5.37657e-09
0.00666361
-2.02898e-05
-5.54854e-09
0.00667638
-2.75096e-05
-4.88154e-09
0.00669093
-2.63601e-05
-2.49192e-09
0.00670433
-1.34235e-05
-1.50638e-09
0.00671312
1.33272e-05
2.52291e-09
0.00671354
5.50181e-05
4.52645e-09
0.00670203
0.000110893
8.61319e-09
0.00667556
0.000179014
8.24538e-09
0.006632
0.000256042
1.17002e-08
0.00657042
0.0003374
7.60872e-09
0.00649095
0.000419254
1.14376e-08
0.00639504
0.000495738
3.28642e-09
0.00628469
0.000565552
9.84164e-09
0.00616301
0.000621826
-2.76649e-09
0.00603264
0.000668987
9.67359e-09
0.00589739
0.000696428
-8.93913e-09
0.00575918
0.000719021
1.15743e-08
0.0056225
0.000713949
-1.37826e-08
0.00548686
0.000717419
1.26585e-08
0.00535933
0.000675956
-1.18258e-08
0.00523403
0.000670306
1.32057e-09
0.00512536
0.000583422
1.34802e-08
0.00501744
0.000578399
-4.54229e-08
0.000433625
7.22733e-08
0.00534713
-7.25964e-05
5.86415e-09
0.0053882
-0.000216244
-1.57692e-08
0.00545524
-0.000352809
-2.15453e-08
0.00554575
-0.00047614
-1.32915e-08
0.00565619
-0.000580979
-8.50158e-09
0.00578204
-0.000662814
-6.15091e-09
0.00591781
-0.00071799
-1.16748e-09
0.00605747
-0.000744403
6.45883e-09
0.00619485
-0.000741884
1.53925e-08
0.00632426
-0.000712489
2.27795e-08
0.00644117
-0.000660529
2.61459e-08
0.00654263
-0.00059188
2.45046e-08
0.00662729
-0.000512853
1.92624e-08
0.00669504
-0.000429125
1.33396e-08
0.00674653
-0.000345175
9.34904e-09
0.00678284
-0.000264364
7.92066e-09
0.00680533
-0.000189372
7.8651e-09
0.00681572
-0.000122592
7.62911e-09
0.00681615
-6.62287e-05
6.35429e-09
0.00680917
-2.21301e-05
3.90345e-09
0.00679768
8.46676e-06
7.95416e-10
0.00678483
2.50849e-05
-3.96029e-10
0.00677356
2.86031e-05
-1.89505e-09
0.00676646
2.09217e-05
-4.08937e-09
0.00676556
4.96059e-06
-5.63878e-09
0.00677183
-1.46309e-05
-7.27407e-09
0.00678525
-3.37086e-05
-7.41383e-09
0.00680452
-4.6772e-05
-6.44483e-09
0.0068271
-4.89293e-05
-3.5883e-09
0.00684929
-3.56178e-05
-9.71459e-10
0.00686666
-4.03875e-06
1.73563e-09
0.00687445
4.72139e-05
5.88017e-09
0.00686813
0.00011721
1.13296e-08
0.00684385
0.00020328
1.18271e-08
0.00679899
0.000300886
1.54475e-08
0.00673252
0.000403858
1.13745e-08
0.00664481
0.000506948
1.44204e-08
0.00653789
0.000602649
6.16247e-09
0.0064145
0.000688933
1.12503e-08
0.00627856
0.000757773
-8.80725e-10
0.00613352
0.000814008
9.53566e-09
0.00598376
0.000846197
-7.3459e-09
0.0058319
0.00087087
1.03305e-08
0.00568235
0.000863519
-1.17478e-08
0.00553539
0.000864369
1.05423e-08
0.00539724
0.000814108
-9.27802e-09
0.00526298
0.00080457
-1.35051e-09
0.00514641
0.000699982
1.61964e-08
0.00503071
0.000694145
-4.92912e-08
0.000520273
7.61269e-08
0.00534923
-8.84946e-05
6.70871e-09
0.00539644
-0.000263442
-1.75409e-08
0.00547367
-0.000430013
-2.5235e-08
0.00557807
-0.00058052
-1.59553e-08
0.00570568
-0.000708585
-1.10476e-08
0.00585128
-0.000808397
-7.95661e-09
0.00600829
-0.000874999
-1.06159e-09
0.00616935
-0.000905483
9.91758e-09
0.00632683
-0.000899382
2.26666e-08
0.00647365
-0.000859343
3.32357e-08
0.0066044
-0.000791312
3.7262e-08
0.00671587
-0.000703385
3.33612e-08
0.00680701
-0.000604022
2.4083e-08
0.0068783
-0.000500424
1.43769e-08
0.00693092
-0.000397806
8.86259e-09
0.00696632
-0.000299772
7.93407e-09
0.00698611
-0.000209169
8.86716e-09
0.00699223
-0.000128725
9.1403e-09
0.00698713
-6.11393e-05
7.44006e-09
0.00697382
-8.82115e-06
3.74616e-09
0.00695592
2.63602e-05
2.41399e-09
0.00693717
4.38428e-05
-3.71335e-10
0.00692123
4.45427e-05
-3.16226e-09
0.0069115
3.06539e-05
-5.42651e-09
0.00691058
5.8927e-06
-6.5181e-09
0.00691968
-2.37278e-05
-9.64769e-09
0.00693894
-5.29559e-05
-1.02041e-08
0.00696674
-7.45613e-05
-8.98536e-09
0.00699987
-8.20536e-05
-5.56341e-09
0.00703362
-6.93619e-05
-2.87882e-09
0.00706227
-3.26896e-05
1.2956e-09
0.00707971
2.97698e-05
5.78857e-09
0.00708006
0.000116839
1.38103e-08
0.00705843
0.0002249
1.5802e-08
0.00701149
0.000347805
1.99236e-08
0.00693812
0.000477213
1.60841e-08
0.00683906
0.00060599
1.8187e-08
0.00671717
0.000724522
9.81081e-09
0.00657627
0.000829829
1.31352e-08
0.00642142
0.000912615
1.34936e-09
0.00625719
0.000978228
9.38444e-09
0.00608874
0.00101465
-5.30086e-09
0.00591948
0.00104013
8.60006e-09
0.00575382
0.00102918
-8.87852e-09
0.00559286
0.00102533
7.25565e-09
0.0054417
0.000965269
-5.1186e-09
0.00529692
0.000949355
-5.87862e-09
0.0051706
0.000826287
2.08347e-08
0.00504581
0.000818983
-5.46919e-08
0.00061328
8.05486e-08
0.00535181
-0.000106974
7.82586e-09
0.00540652
-0.000318138
-1.89264e-08
0.00549633
-0.000519792
-3.00212e-08
0.00561795
-0.000702117
-1.92208e-08
0.00576712
-0.000857744
-1.51897e-08
0.00593774
-0.000979008
-1.08244e-08
0.00612189
-0.00105914
-7.25908e-10
0.00631047
-0.00109408
1.54936e-08
0.00649368
-0.00108263
3.47098e-08
0.00666252
-0.00102823
4.96413e-08
0.00681037
-0.000939223
5.32196e-08
0.00693387
-0.000826929
4.46648e-08
0.00703259
-0.000702767
2.87121e-08
0.00710791
-0.000575756
1.22744e-08
0.00716178
-0.000451677
6.24513e-09
0.00719603
-0.000334038
7.47591e-09
0.00721249
-0.000225639
1.00414e-08
0.00721331
-0.000129553
1.09697e-08
0.00720126
-4.90944e-05
8.40921e-09
0.00717974
1.26912e-05
2.54404e-09
0.0071536
5.24997e-05
3.55859e-09
0.00712705
7.0388e-05
3.68597e-10
0.00710491
6.66945e-05
-3.73564e-09
0.00709147
4.40966e-05
-6.64276e-09
0.00709016
7.21544e-06
-7.78063e-09
0.00710258
-3.61387e-05
-1.29619e-08
0.00712904
-7.94023e-05
-1.44464e-08
0.00716758
-0.000113086
-1.30169e-08
0.00721414
-0.000128606
-8.57499e-09
0.00726273
-0.000117951
-3.88632e-09
0.00730599
-7.59461e-05
-1.12223e-10
0.00733594
-1.80997e-07
1.24393e-09
0.00734507
0.000107695
1.46346e-08
0.00732691
0.000243035
1.88316e-08
0.00727724
0.000397457
2.3717e-08
0.00719472
0.000559713
2.05687e-08
0.0070806
0.000720089
2.20025e-08
0.0069389
0.000866207
1.35822e-08
0.00677492
0.000993789
1.49806e-08
0.00659543
0.00109211
3.79618e-09
0.0064064
0.00116725
9.03687e-09
0.00621419
0.00120687
-3.15765e-09
0.006023
0.0012313
6.36598e-09
0.00583755
0.00121464
-5.4661e-09
0.00565942
0.00120345
2.86694e-09
0.00549272
0.00113198
7.46501e-10
0.00533572
0.00110636
-1.27898e-08
0.00519752
0.000964457
2.80738e-08
0.00506257
0.000953995
-6.23411e-08
0.000713362
8.57655e-08
0.00535495
-0.000128596
9.34488e-09
0.00541866
-0.000381835
-1.92457e-08
0.00552387
-0.000624962
-3.63129e-08
0.00566662
-0.000844842
-2.28219e-08
0.00584274
-0.00103385
-2.23215e-08
0.00604502
-0.00118127
-1.58426e-08
0.00626385
-0.00127797
-1.30928e-09
0.00648788
-0.00131813
2.34348e-08
0.00670415
-0.00129895
5.52725e-08
0.00690077
-0.00122493
7.74194e-08
0.00706957
-0.0011081
7.75727e-08
0.00720719
-0.000964607
5.74267e-08
0.00731442
-0.000810017
2.48275e-08
0.00739409
-0.000655435
6.90693e-09
0.00744913
-0.000506723
1.17066e-09
0.00748179
-0.000366702
5.06437e-09
0.00749396
-0.000237824
1.10755e-08
0.0074879
-0.000123503
1.2516e-08
0.0074665
-2.77039e-05
8.81703e-09
0.00743466
4.45257e-05
9.96119e-09
0.00739709
9.00606e-05
4.85129e-09
0.00735979
0.000107688
2.81949e-10
0.00732877
9.77186e-05
-3.61686e-09
0.00730952
6.33537e-05
-6.92266e-09
0.00730648
1.0265e-05
-8.8067e-09
0.00732189
-5.15263e-05
-1.6777e-08
0.00735628
-0.000113779
-1.95865e-08
0.00740732
-0.000164109
-1.87007e-08
0.00747
-0.000191264
-1.42175e-08
0.00753681
-0.000184759
-9.0617e-09
0.00759841
-0.000137544
-3.87178e-09
0.00764459
-4.6349e-05
-4.89118e-09
0.00766568
8.65861e-05
1.17288e-08
0.00765308
0.00025562
1.85729e-08
0.00760112
0.000449394
2.38383e-08
0.00750796
0.000652856
2.16027e-08
0.0073753
0.000852719
2.32722e-08
0.00720862
0.00103287
1.55776e-08
0.00701529
0.00118711
1.55605e-08
0.00680437
0.00130302
5.16328e-09
0.0065839
0.00138771
7.9494e-09
0.00636191
0.00142887
-1.50249e-09
0.00614351
0.00144969
3.66403e-09
0.00593402
0.00142414
-1.9354e-09
0.00573508
0.00140239
-2.13181e-09
0.00555022
0.00131683
8.0416e-09
0.005379
0.00127761
-2.18374e-08
0.00522667
0.00111676
3.83058e-08
0.00508082
0.00109991
-7.29373e-08
0.000821289
9.21178e-08
0.00535872
-0.000153991
1.1492e-08
0.00543306
-0.000456155
-1.74277e-08
0.00555695
-0.000748814
-4.44527e-08
0.00572536
-0.00101322
-2.57727e-08
0.00593517
-0.00124362
-3.43985e-08
0.00617748
-0.00142355
-2.37535e-08
0.00644088
-0.00154137
-4.45898e-09
0.00671087
-0.00158815
3.12428e-08
0.00696971
-0.00155789
8.56686e-08
0.00720138
-0.00145672
1.22213e-07
0.00739548
-0.00130232
1.17251e-07
0.00754903
-0.00111823
7.19183e-08
0.00766506
-0.000926058
1.83406e-08
0.0077487
-0.000739062
-1.05871e-08
0.00780414
-0.00056215
-1.69653e-08
0.00783392
-0.000396476
-3.08164e-09
0.00783987
-0.000243787
9.93935e-09
0.00782426
-0.000107909
1.33541e-08
0.00778979
6.76123e-06
2.44394e-09
0.00774302
9.12903e-05
1.0792e-08
0.00768938
0.000143692
6.93631e-09
0.00763632
0.000160747
1.33457e-09
0.00759156
0.000142479
-4.30718e-09
0.00756214
9.27881e-05
-8.8059e-09
0.00755377
1.86423e-05
-1.27456e-08
0.00756956
-6.72941e-05
-2.05564e-08
0.00761046
-0.000154652
-2.53661e-08
0.00767381
-0.000227437
-2.59361e-08
0.00775357
-0.000270999
-2.36646e-08
0.00784075
-0.000271914
-1.92709e-08
0.00792422
-0.000221015
-8.47849e-09
0.0079915
-0.000113625
1.40596e-09
0.00802967
4.84089e-05
2.8857e-09
0.00802771
0.000257576
8.47585e-09
0.00797745
0.000499636
1.5202e-08
0.00787555
0.000754742
1.43204e-08
0.00772358
0.00100467
1.70587e-08
0.00752839
0.00122805
1.15223e-08
0.00730004
0.00141545
1.18773e-08
0.0070508
0.00155225
3.16907e-09
0.00679171
0.0016468
4.96001e-09
0.00653318
0.0016874
-1.19371e-09
0.00628166
0.00170121
3.53239e-10
0.00604335
0.00166244
1.22433e-09
0.00581958
0.00162618
-7.5452e-09
0.00561393
0.00152245
1.61897e-08
0.00542606
0.00146551
-3.255e-08
0.00525747
0.0012853
5.15009e-08
0.00510034
0.00125712
-8.68737e-08
0.00093804
9.99128e-08
0.00536314
-0.000183805
1.48151e-08
0.00544979
-0.000542803
-1.19061e-08
0.00559613
-0.000895096
-5.44628e-08
0.00579526
-0.00121232
-2.65024e-08
0.00604724
-0.00149555
-5.39493e-08
0.00634024
-0.00171651
-3.20571e-08
0.00666152
-0.00186264
-1.02786e-08
0.00699151
-0.00191819
4.02409e-08
0.00730521
-0.00187171
1.23472e-07
0.00758077
-0.00173245
1.77084e-07
0.00780446
-0.00152618
1.68191e-07
0.0079743
-0.00128816
8.15739e-08
0.0080973
-0.00104907
5.44689e-09
0.00818224
-0.000823937
-5.52445e-08
0.00823493
-0.000614795
-5.40783e-08
0.00825809
-0.000419609
-1.94908e-08
0.00825325
-0.000238952
4.13224e-10
0.0082222
-7.68764e-05
1.46136e-08
0.00816907
5.9873e-05
2.08535e-08
0.00809952
0.000160827
1.51987e-08
0.00802144
0.000221756
1.32248e-08
0.00794405
0.000238126
8.60403e-09
0.00787692
0.000209607
2.24688e-09
0.00782891
0.000140805
-3.96948e-09
0.0078071
4.04639e-05
-7.75254e-09
0.00781606
-7.62371e-05
-1.61555e-08
0.00785704
-0.00019561
-2.528e-08
0.00792749
-0.000297853
-3.1028e-08
0.00802085
-0.00036433
-3.24706e-08
0.00812734
-0.000378374
-3.12808e-08
0.00823449
-0.000328134
-2.46264e-08
0.00832777
-0.000206887
-1.93052e-08
0.00839168
-1.5482e-05
-2.27477e-08
0.00841134
0.000237949
-2.72353e-08
0.00837479
0.000536202
-1.87801e-08
0.00827494
0.000854602
-1.27433e-08
0.00811111
0.00116851
-4.28061e-09
0.00789032
0.00144884
-4.31513e-09
0.00762552
0.00168025
-4.65077e-10
0.00733336
0.00184442
-4.67692e-09
0.00702942
0.00195074
-1.72539e-09
0.00672778
0.00198904
-3.85643e-09
0.00643711
0.00199188
-3.86893e-09
0.00616496
0.00193459
3.3277e-09
0.0059122
0.00187895
-1.28849e-08
0.00568313
0.0017515
2.43414e-08
0.00547586
0.00167282
-4.41114e-08
0.00528934
0.00147176
6.71163e-08
0.00512071
0.00142585
-1.0404e-07
0.00106493
1.0927e-07
0.00536807
-0.000218561
2.06502e-08
0.00546885
-0.000643579
-2.15999e-09
0.00564153
-0.00106771
-6.51039e-08
0.00587688
-0.00144764
-2.51555e-08
0.00618181
-0.0018004
-8.61848e-08
0.00653873
-0.0020734
-3.46245e-08
0.00693615
-0.00226004
-1.82941e-08
0.00734574
-0.00232785
7.01379e-08
0.00773029
-0.00225644
1.81755e-07
0.00805913
-0.00206151
2.21405e-07
0.00831339
-0.00178062
1.8184e-07
0.00849407
-0.0014689
5.47713e-08
0.00861572
-0.00117066
-5.50241e-08
0.00869263
-0.000900716
-1.3177e-07
0.00873311
-0.000655154
-1.16092e-07
0.00873999
-0.000426437
-5.32384e-08
0.00871456
-0.000213505
-1.64336e-08
0.00865778
-2.00983e-05
2.74421e-09
0.00857432
0.000143313
1.98865e-08
0.0084701
0.000265034
1.84692e-08
0.00835483
0.000337001
2.21125e-08
0.00823958
0.000353349
2.55293e-08
0.00813598
0.000313184
2.18792e-08
0.00805474
0.00022204
9.60904e-09
0.0080043
9.09069e-05
-7.36761e-09
0.00799127
-6.32005e-05
-8.83752e-10
0.00801735
-0.000221697
-7.18185e-11
0.00808079
-0.000361275
-1.08059e-08
0.00817582
-0.00045934
-2.26057e-08
0.00829347
-0.000495996
-3.02408e-08
0.0084222
-0.000456834
-2.81817e-08
0.00854715
-0.000331817
-1.77457e-08
0.00865078
-0.000119104
-1.29781e-08
0.00871242
0.00017637
-5.65921e-08
0.00871485
0.000533847
-7.74558e-08
0.0086441
0.000925427
-7.21298e-08
0.00849299
0.00131968
-5.36905e-08
0.00826484
0.00167703
-4.19029e-08
0.00797381
0.00197131
-2.88988e-08
0.00764178
0.00217648
-2.47069e-08
0.00729122
0.00230132
-1.65351e-08
0.00694223
0.00233804
-1.1632e-08
0.00660756
0.00232656
-1.06103e-08
0.00629697
0.00224517
3.73994e-09
0.0060115
0.00216444
-1.81073e-08
0.00575642
0.00200655
3.18561e-08
0.005527
0.0019023
-5.55788e-08
0.00532159
0.00167708
8.41956e-08
0.0051411
0.00160647
-1.23901e-07
0.00120357
1.19986e-07
0.00537318
-0.000258436
3.17258e-08
0.00549006
-0.000760464
8.41572e-09
0.00569217
-0.00126976
-7.07543e-08
0.00596995
-0.00172539
-2.85397e-08
0.00634069
-0.002171
-1.4243e-07
0.00677691
-0.00250957
-4.40077e-08
0.00727467
-0.00275776
-4.1048e-08
0.00779204
-0.00284535
1.27781e-07
0.00826827
-0.00273297
3.01225e-07
0.00865439
-0.0024479
2.62693e-07
0.00892517
-0.00205148
8.48118e-08
0.00909338
-0.00163701
-9.32969e-08
0.00918804
-0.00126507
-2.58949e-07
0.00923231
-0.000944715
-2.72546e-07
0.00923786
-0.000660507
-1.90733e-07
0.00920847
-0.000396974
-8.00256e-08
0.00914454
-0.00014954
-2.77734e-08
0.00904573
7.87239e-05
-1.08146e-08
0.00891542
0.000273626
-1.21456e-08
0.00876085
0.000419615
-3.01615e-09
0.00859203
0.000505795
2.04391e-08
0.00842131
0.000524033
4.15783e-08
0.00826214
0.000472304
4.69321e-08
0.00812682
0.00035732
3.76421e-08
0.00802485
0.000192865
1.55521e-08
0.0079638
-2.1545e-06
-2.66785e-10
0.00794873
-0.000206657
3.02944e-08
0.00797985
-0.000392437
4.75669e-08
0.00805511
-0.000534648
3.95005e-08
0.00816994
-0.000610841
2.07596e-08
0.00831575
-0.000602657
7.90583e-09
0.00847943
-0.000495494
4.64989e-09
0.00864134
-0.000281029
9.4689e-09
0.0087773
4.03972e-05
1.04484e-08
0.00885992
0.000451293
-6.01262e-08
0.00886598
0.000919464
-1.00713e-07
0.00877682
0.00140894
-1.05698e-07
0.00858526
0.00186869
-9.78184e-08
0.00830084
0.0022558
-7.74767e-08
0.00794892
0.00252847
-6.13582e-08
0.00756098
0.0026893
-4.2298e-08
0.00716688
0.00273216
-2.66791e-08
0.00678697
0.00270649
-2.07973e-08
0.00643533
0.0025968
1.84559e-09
0.00611467
0.00248513
-2.32936e-08
0.0058315
0.00228968
3.83156e-08
0.00557774
0.00215612
-6.61183e-08
0.00535321
0.00190151
1.01635e-07
0.00516021
0.00179962
-1.45695e-07
0.00135567
1.3149e-07
0.00537799
-0.00030314
5.27742e-08
0.00551275
-0.000895251
2.21553e-08
0.00574484
-0.00150179
-5.46788e-08
0.00607291
-0.00205341
-5.17663e-08
0.00652228
-0.00262014
-2.32231e-07
0.00705638
-0.00304354
-1.31682e-07
0.00768934
-0.00339058
-1.30475e-07
0.00834865
-0.00350478
1.1552e-07
0.00893695
-0.00332171
4.46491e-07
0.00935699
-0.00286835
4.06181e-07
0.00958465
-0.0022792
7.28056e-08
0.00967313
-0.00172513
-3.63577e-07
0.00967986
-0.00127124
-5.69049e-07
0.00963842
-0.000902833
-4.38389e-07
0.00956562
-0.000587537
-1.72915e-07
0.0094662
-0.000297506
-4.84993e-08
0.00934132
-2.46778e-05
1.7531e-08
0.00918158
0.000238479
-1.16755e-08
0.00899188
0.000463369
-4.09208e-08
0.00877555
0.000635978
-3.93292e-08
0.00854126
0.000740093
-5.48405e-09
0.00830099
0.000764269
3.03144e-08
0.00806844
0.00070481
4.63768e-08
0.00785717
0.000568547
4.4295e-08
0.00767842
0.000371586
2.54383e-08
0.00753911
0.000137162
-2.451e-09
0.00744966
-0.000117198
-1.37552e-08
0.00741973
-0.000362559
5.40841e-08
0.00745534
-0.000570359
9.7663e-08
0.0075601
-0.000715709
1.06644e-07
0.00772986
-0.000772509
9.72468e-08
0.00795021
-0.000715925
7.85492e-08
0.00819777
-0.000528646
6.30977e-08
0.00844425
-0.000206164
8.10976e-08
0.00865356
0.000241931
4.88411e-08
0.00879264
0.000780407
-2.12423e-08
0.00883046
0.00137119
-6.91533e-08
0.0087435
0.00195575
-1.03819e-07
0.008527
0.00247242
-1.12614e-07
0.0082016
0.00285396
-1.05051e-07
0.00780569
0.00308529
-7.99532e-08
0.00738202
0.00315589
-5.17578e-08
0.00696347
0.00312508
-3.64482e-08
0.00657262
0.00298766
-2.67849e-09
0.00621688
0.0028409
-2.87542e-08
0.00590483
0.00260169
4.35761e-08
0.00562576
0.00243528
-7.50696e-08
0.00538263
0.00214451
1.18374e-07
0.00517631
0.00200611
-1.68506e-07
0.00152267
1.43126e-07
0.0053822
-0.000352094
9.02718e-08
0.00553413
-0.00104724
5.98602e-08
0.00579271
-0.00176038
1.14414e-08
0.00618028
-0.00244088
-9.7158e-08
0.00671338
-0.00315292
-3.21006e-07
0.00737151
-0.00370132
-3.58402e-07
0.00820396
-0.0042226
-4.34151e-07
0.00901521
-0.00431601
-5.51459e-09
0.00968643
-0.00399327
3.32268e-07
0.0100247
-0.00320717
5.81486e-07
0.0100562
-0.00231102
3.21826e-07
0.00992434
-0.00159319
-1.16084e-07
0.00972815
-0.00107447
-5.72024e-07
0.00951345
-0.000687686
-4.53107e-07
0.0093053
-0.000379299
-8.79141e-08
0.00910831
-0.000100589
7.60794e-08
0.00890475
0.000178822
5.81701e-08
0.00869099
0.000452224
1.8239e-08
0.00845584
0.000698523
-5.98073e-09
0.00819417
0.000897675
-2.1601e-08
0.00790833
0.00102595
-2.12009e-08
0.00760721
0.0010654
-9.3736e-09
0.00730281
0.00100922
-1.42505e-09
0.00700868
0.000862673
6.59843e-10
0.00673937
0.000640898
-1.60778e-09
0.00651259
0.000363952
-1.59562e-08
0.00633814
5.73198e-05
-6.0123e-08
0.00625215
-0.000276561
-7.61773e-09
0.00626782
-0.000586083
5.27783e-08
0.00639436
-0.000842334
8.47882e-08
0.00662517
-0.00100343
1.11225e-07
0.00693922
-0.0010301
1.24788e-07
0.00730521
-0.000894746
1.13626e-07
0.00768606
-0.000587101
8.66025e-08
0.00804812
-0.000120287
1.56459e-07
0.00835076
0.000477662
9.82823e-08
0.00855906
0.00116285
4.21428e-08
0.00863588
0.00187896
-2.45509e-08
0.00855622
0.00255216
-8.21308e-08
0.00832344
0.00308686
-1.15088e-07
0.00797185
0.00343699
-1.09276e-07
0.00755346
0.00357436
-8.02769e-08
0.00711629
0.00356231
-5.65984e-08
0.00669638
0.00340758
-1.10325e-08
0.00631046
0.00322685
-3.50082e-08
0.00597139
0.00294071
4.74442e-08
0.00566798
0.00273876
-8.21468e-08
0.00540766
0.00240471
1.33501e-07
0.00518739
0.00222657
-1.91266e-07
0.00170533
1.54346e-07
0.00538528
-0.000404188
1.46191e-07
0.00554659
-0.00120868
1.34511e-07
0.00582521
-0.00203913
1.31881e-07
0.00627041
-0.00288596
-1.11216e-07
0.00688005
-0.00376229
-2.68145e-07
0.00770837
-0.00452896
-6.8122e-07
0.00882679
-0.00534025
-7.64444e-07
0.00971502
-0.00520414
-1.03008e-07
0.0102093
-0.00121228
-1.74772e-07
-0.00103155
-0.00121072
-0.00103285
0.0101486
-0.000872915
1.45573e-07
-0.000700578
-0.000871881
-0.000701245
0.00969659
-0.000518698
9.27571e-07
-0.000411412
-0.000518178
-0.000411627
0.00912011
-0.000269454
3.51832e-07
-0.000238788
-0.000269872
-0.000238951
0.00856138
-0.000515646
-9.34102e-08
0.00810435
-0.000230404
-2.42727e-07
0.00776516
-4.01397e-05
2.74425e-08
0.0075098
0.000154615
1.57767e-07
0.00730667
0.000381785
1.62518e-07
0.00712186
0.000636914
1.19006e-07
0.00692364
0.000896655
9.12257e-08
0.0066931
0.00112815
6.09323e-08
0.00642293
0.00129611
1.16138e-08
0.00611596
0.00137241
-4.09511e-08
0.00578296
0.00134229
-7.82079e-08
0.00544142
0.00120431
-9.48364e-08
0.00511723
0.000965186
-9.60011e-08
0.00484492
0.000636353
-8.5366e-08
0.00466527
0.000237002
-3.58259e-08
0.00460474
-0.000216006