/*--------------------------------*- C++ -*----------------------------------*\
  =========                 |
  \\      /  F ield         | OpenFOAM: The Open Source CFD Toolbox
   \\    /   O peration     | Website:  https://openfoam.org
    \\  /    A nd           | Version:  8
     \\/     M anipulation  |
\*---------------------------------------------------------------------------*/
FoamFile
{
    version     2.0;
    format      ascii;
    class       surfaceScalarField;
    location    "43";
    object      phi;
}
// * * * * * * * * * * * * * * * * * * * * * * * * * * * * * * * * * * * * * //

dimensions      [0 3 -1 0 0 0 0];

internalField   nonuniform List<scalar> 
880
(
-1.65522e-05
1.65522e-05
-3.43398e-05
1.77876e-05
-5.14725e-05
1.71327e-05
-6.75753e-05
1.61028e-05
-8.23222e-05
1.47469e-05
-9.53994e-05
1.30772e-05
-0.00010658
1.11802e-05
-0.000115503
8.92388e-06
-0.000122409
6.90511e-06
-0.000126228
3.81909e-06
-0.000129262
3.03391e-06
5.43384e-07
-0.000129805
-1.84606e-05
3.50128e-05
-3.82339e-05
3.75609e-05
-5.7276e-05
3.61748e-05
-7.5173e-05
3.39998e-05
-9.15783e-05
3.11522e-05
-0.000106177
2.76763e-05
-0.000118742
2.3745e-05
-0.000128943
1.91251e-05
-0.000137034
1.49958e-05
-0.000142212
8.99703e-06
-0.000146645
7.46709e-06
-8.59378e-07
-0.000145243
-1.9205e-05
5.42178e-05
-3.97774e-05
5.81333e-05
-5.95746e-05
5.5972e-05
-7.81453e-05
5.25706e-05
-9.50908e-05
4.80976e-05
-0.000110015
4.26009e-05
-0.000122543
3.62725e-05
-0.000132436
2.90181e-05
-0.000139223
2.17831e-05
-0.000143014
1.27877e-05
-0.000142446
6.8989e-06
-4.51857e-06
-0.000138786
-2.02872e-05
7.4505e-05
-4.20327e-05
7.98787e-05
-6.29756e-05
7.69149e-05
-8.26576e-05
7.22526e-05
-0.000100714
6.61543e-05
-0.000116833
5.87197e-05
-0.000130644
5.00831e-05
-0.000141828
4.02024e-05
-0.000149756
2.97107e-05
-0.000154399
1.74313e-05
-0.000154022
6.52185e-06
-8.43286e-06
-0.000150108
-2.17589e-05
9.62639e-05
-4.50933e-05
0.000103213
-6.75629e-05
9.93845e-05
-8.86511e-05
9.33408e-05
-0.000107907
8.54099e-05
-0.000124836
7.56494e-05
-0.000139067
6.4314e-05
-0.000150355
5.14904e-05
-0.000158308
3.76635e-05
-0.000163112
2.22349e-05
-0.000163721
7.13127e-06
-1.12634e-05
-0.00016089
-2.36771e-05
0.000119941
-4.90874e-05
0.000128623
-7.35795e-05
0.000123877
-9.66067e-05
0.000116368
-0.000117816
0.000106619
-0.00013692
9.47535e-05
-0.000153494
8.08878e-05
-0.00016704
6.5037e-05
-0.000176945
4.7568e-05
-0.000182935
2.82257e-05
-0.000183599
7.79479e-06
-1.45597e-05
-0.000180303
-2.59794e-05
0.00014592
-5.39162e-05
0.00015656
-8.08469e-05
0.000150807
-0.000106146
0.000141667
-0.000129253
0.000129726
-0.000149536
0.000115036
-0.000166784
9.81361e-05
-0.000180807
7.90598e-05
-0.000191405
5.81664e-05
-0.000198556
3.53761e-05
-0.000202095
1.13339e-05
-1.54613e-05
-0.000201193
-2.90221e-05
0.000174943
-6.01619e-05
0.0001877
-9.01641e-05
0.000180809
-0.000118287
0.00016979
-0.000144537
0.000155975
-0.000168342
0.000138841
-0.000189292
0.000119087
-0.000206805
9.65723e-05
-0.000220419
7.17802e-05
-0.000229559
4.45159e-05
-0.000233323
1.50979e-05
-1.70352e-05
-0.000231749
-3.20395e-05
0.000206982
-6.67375e-05
0.000222398
-0.000100035
0.000214107
-0.000131314
0.000201069
-0.000159732
0.000184394
-0.000184813
0.000163922
-0.000206478
0.000140752
-0.00022451
0.000114604
-0.000238936
8.62067e-05
-0.000249631
5.52108e-05
-0.000257449
2.29155e-05
-1.47095e-05
-0.000259774
-3.70128e-05
0.000243995
-7.64835e-05
0.000261869
-0.000114628
0.000252252
-0.000149945
0.000236386
-0.000183302
0.00021775
-0.000212918
0.000193538
-0.000239647
0.000167481
-0.000262426
0.000137383
-0.000281333
0.000105114
-0.000295398
6.92764e-05
-0.000304732
3.22497e-05
-1.28176e-05
-0.000306624
-3.93613e-05
0.000283356
-8.42312e-05
0.000306739
-0.000125053
0.000293074
-0.000165663
0.000276996
-0.000200656
0.000252743
-0.000232574
0.000225455
-0.00025973
0.000194637
-0.000282584
0.000160237
-0.000301794
0.000124323
-0.000316594
8.40767e-05
-0.000330343
4.59993e-05
-5.08044e-06
-0.000338081
-5.07055e-05
0.000334062
-0.000100274
0.000356307
-0.000150951
0.000343751
-0.000193753
0.000319798
-0.000235818
0.000294808
-0.0002717
0.000261338
-0.000305271
0.000228207
-0.000333897
0.000188863
-0.000359857
0.000150283
-0.000380463
0.000104683
-0.000399092
6.46287e-05
3.83356e-06
-0.000408006
-4.55726e-05
0.000379634
-0.00010774
0.000418474
-0.000158581
0.000394592
-0.000214041
0.000375258
-0.000257168
0.000337935
-0.000297795
0.000301966
-0.000329822
0.000260234
-0.000356949
0.00021599
-0.00038018
0.000173514
-0.000398493
0.000122996
-0.000418262
8.43977e-05
1.85219e-05
-0.00043295
-7.79783e-05
0.000457612
-0.000136709
0.000477206
-0.000203486
0.000461369
-0.00025288
0.000424651
-0.000303545
0.0003886
-0.000345503
0.000343924
-0.000385248
0.000299979
-0.000419394
0.000250135
-0.00045242
0.000206541
-0.000480416
0.000150991
-0.000511357
0.000115338
4.05434e-05
-0.000533378
-3.62002e-05
0.000493813
-0.0001369
0.000577905
-0.000205361
0.00052983
-0.000286356
0.000505646
-0.000340595
0.000442839
-0.000389368
0.000392697
-0.000423402
0.000334013
-0.000451007
0.00027774
-0.000473324
0.000228858
-0.000491499
0.000169166
-0.000512543
0.000136382
6.00786e-05
-0.000532078
-0.000157295
0.000651107
-0.00020076
0.00062137
-0.000281367
0.000610437
-0.000333479
0.000557758
-0.000387172
0.000496533
-0.000435508
0.000441033
-0.00047705
0.000375555
-0.000514928
0.000315618
-0.000550908
0.000264838
-0.000584106
0.000202365
-0.000625247
0.000177523
9.82312e-05
-0.000663399
3.03651e-05
0.000620742
-0.00017442
0.000826156
-0.000294184
0.000730201
-0.000411891
0.000675465
-0.000480637
0.000565279
-0.000526545
0.000486941
-0.000553934
0.000402943
-0.000569745
0.000331429
-0.000580621
0.000275714
-0.00058824
0.000209984
-0.00059711
0.000186392
0.0001102
-0.000609079
-9.92361e-05
0.000719978
-0.000150926
0.000877846
-0.000258884
0.000838159
-0.000397128
0.000813709
-0.000460023
0.000628173
-0.000536445
0.000563363
-0.000578291
0.00044479
-0.000616647
0.000369784
-0.000645716
0.000304783
-0.000673473
0.000237741
-0.000709635
0.000222554
0.000152815
-0.00075225
-0.00122962
0.0019496
-0.00127133
0.000919556
-0.00135416
0.000920988
-0.00120383
0.000663378
-0.00110705
0.000531391
-0.000956144
0.000412457
-0.000842663
0.00033131
-0.000731504
0.000258625
-0.00064011
0.000213389
-0.000565786
0.000163417
-0.000487851
0.000144619
0.000103405
-0.00043844
0.0019496
0.00286916
0.00379015
0.00445352
0.00498491
0.00539737
0.00572868
0.00598731
0.0062007
0.00636411
0.00650873
0.00661214
-0.000103466
4.18001e-05
-6.81394e-05
-8.07114e-05
1.78483e-05
-4.06025e-05
-6.64948e-05
-3.19254e-06
-1.1024e-05
-5.28415e-05
-1.9246e-05
5.59263e-06
-3.99403e-05
-3.19877e-05
1.90865e-05
-2.64873e-05
-4.13365e-05
2.78835e-05
-1.28331e-05
-4.74078e-05
3.37537e-05
-4.62827e-05
3.34495e-05
-0.000114947
1.15044e-05
-9.05585e-05
-6.54014e-06
-7.47869e-05
-1.89641e-05
-5.95785e-05
-3.44545e-05
-4.52333e-05
-4.63329e-05
-3.01184e-05
-5.64514e-05
-1.46211e-05
-6.29052e-05
-6.09037e-05
-0.00012386
-3.42203e-06
-0.000108868
-2.15319e-05
-9.28445e-05
-3.49877e-05
-7.5927e-05
-5.1372e-05
-5.79069e-05
-6.4353e-05
-3.87401e-05
-7.56182e-05
-1.88254e-05
-8.28198e-05
-7.97291e-05
-0.000135738
-1.77922e-05
-0.000120951
-3.63192e-05
-0.000104143
-5.1795e-05
-8.59631e-05
-6.95522e-05
-6.61073e-05
-8.42088e-05
-4.44789e-05
-9.72467e-05
-2.17183e-05
-0.00010558
-0.000101447
-0.000151632
-2.70511e-05
-0.000139201
-4.87502e-05
-0.000122858
-6.81378e-05
-0.000102963
-8.94468e-05
-8.02992e-05
-0.000106873
-5.42858e-05
-0.00012326
-2.67246e-05
-0.000133142
-0.000128172
-0.000170924
-3.643e-05
-0.000158036
-6.16377e-05
-0.000140778
-8.5396e-05
-0.000118945
-0.00011128
-9.36861e-05
-0.000132131
-6.36937e-05
-0.000153252
-3.16301e-05
-0.000165205
-0.000159802
-0.000195043
-4.25797e-05
-0.000182632
-7.40489e-05
-0.000166121
-0.000101907
-0.000141562
-0.000135839
-0.000113767
-0.000159927
-7.74725e-05
-0.000189547
-3.93223e-05
-0.000203355
-0.000199124
-0.000225543
-4.87856e-05
-0.000212761
-8.68306e-05
-0.000195355
-0.000119313
-0.000168309
-0.000162885
-0.000136852
-0.000191384
-9.40737e-05
-0.000232325
-4.8383e-05
-0.000249046
-0.000247507
-0.000258326
-5.02337e-05
-0.000246454
-9.87034e-05
-0.000231924
-0.000133842
-0.000201889
-0.000192921
-0.000169263
-0.00022401
-0.000117
-0.000284587
-6.27291e-05
-0.000303317
-0.000310237
-0.000305836
-5.10217e-05
-0.00029504
-0.000109499
-0.000280636
-0.000148246
-0.000248644
-0.000224913
-0.000211688
-0.000260966
-0.00014913
-0.000347145
-8.19429e-05
-0.000370504
-0.000392179
-0.00034539
-4.37128e-05
-0.000337638
-0.000117251
-0.000331834
-0.00015405
-0.000299521
-0.000257227
-0.000267971
-0.000292515
-0.000192585
-0.000422531
-0.000115241
-0.000447848
-0.00050742
-0.000418359
-3.33601e-05
-0.000415853
-0.000119757
-0.000414369
-0.000155534
-0.000384405
-0.000287191
-0.000351374
-0.000325546
-0.00026254
-0.000511365
-0.000164896
-0.000545493
-0.000672316
-0.00045453
-1.17804e-05
-0.000459301
-0.000114985
-0.00047735
-0.000137486
-0.000458908
-0.000305633
-0.000453471
-0.000330983
-0.000359308
-0.000605528
-0.000263718
-0.000641083
-0.000936035
-0.000564457
1.92986e-05
-0.000582809
-9.66339e-05
-0.00061654
-0.000103754
-0.000614892
-0.000307281
-0.000625524
-0.00032035
-0.000532871
-0.000698181
-0.000427884
-0.000746069
-0.00136392
-0.000566487
5.37079e-05
-0.000594635
-6.84862e-05
-0.000658977
-3.94124e-05
-0.000698824
-0.000267435
-0.000798565
-0.000220609
-0.000773953
-0.000722794
-0.00077711
-0.000742912
-0.00214103
-0.000723863
0.000114171
-0.000780041
-1.23083e-05
-0.000880421
6.09681e-05
-0.000969631
-0.000178224
-0.00113021
-6.00283e-05
-0.00118356
-0.000669448
-0.00122339
-0.00070308
-0.00336442
-0.000633187
0.00013828
-0.00067343
2.79345e-05
-0.000764854
0.000152392
-0.00090802
-3.50584e-05
-0.00119275
0.000224698
-0.00143521
-0.000426988
-0.00138408
-0.000754208
-0.0047485
-0.000821488
0.000207518
-0.000916839
0.000123285
-0.00105705
0.000292604
-0.00126147
0.000169357
-0.00140039
0.000363623
-0.00152691
-0.000300472
-0.000738136
-0.00154298
-0.00548663
-0.00033839
0.000107468
-0.00029301
7.79052e-05
-7.84755e-05
7.80694e-05
2.17738e-05
6.91076e-05
0.000502001
-0.000116604
0.00069486
-0.000493331
0.00101899
-0.0018671
-0.00446765
0.0067196
0.00679751
0.00687558
0.00694469
0.00682808
0.00633475
0.00446765
-1.69419e-06
1.69419e-06
-3.21028e-06
1.51609e-06
-4.1284e-06
9.18113e-07
-4.3779e-06
2.49502e-07
-3.9318e-06
-4.46098e-07
-2.91621e-06
-1.01559e-06
-1.48746e-06
-1.42876e-06
-1.48746e-06
-1.97339e-06
3.66758e-06
-3.71475e-06
3.25745e-06
-4.74092e-06
1.94428e-06
-4.96047e-06
4.69052e-07
-4.42236e-06
-9.84209e-07
-3.26996e-06
-2.16798e-06
-1.66601e-06
-3.03271e-06
-3.15347e-06
-2.99356e-06
6.66114e-06
-5.51257e-06
5.77645e-06
-6.89694e-06
3.32865e-06
-7.19742e-06
7.69523e-07
-6.36036e-06
-1.82127e-06
-4.66271e-06
-3.86563e-06
-2.36593e-06
-5.32949e-06
-5.5194e-06
-3.57696e-06
1.02381e-05
-6.50895e-06
8.70844e-06
-8.01329e-06
4.83299e-06
-8.12276e-06
8.78995e-07
-7.07504e-06
-2.86898e-06
-5.1526e-06
-5.78807e-06
-2.60148e-06
-7.88061e-06
-8.12088e-06
-6.85884e-06
1.7097e-05
-1.18395e-05
1.36891e-05
-1.38937e-05
6.88717e-06
-1.38593e-05
8.44579e-07
-1.18032e-05
-4.92505e-06
-8.44394e-06
-9.14734e-06
-4.22809e-06
-1.20965e-05
-1.2349e-05
-8.3609e-06
2.54578e-05
-1.42256e-05
1.95538e-05
-1.64107e-05
9.07227e-06
-1.58913e-05
3.25231e-07
-1.33853e-05
-7.43104e-06
-9.53899e-06
-1.29937e-05
-4.75806e-06
-1.68774e-05
-1.7107e-05
-1.90087e-05
4.44665e-05
-2.91684e-05
2.97135e-05
-3.03641e-05
1.0268e-05
-2.79191e-05
-2.11971e-06
-2.25261e-05
-1.28241e-05
-1.55563e-05
-1.99634e-05
-7.65852e-06
-2.47752e-05
-2.47656e-05
-2.36728e-05
-3.45619e-05
-3.53179e-05
-3.1845e-05
-2.55826e-05
-1.76625e-05
-8.68398e-06
)
;

boundaryField
{
    movingWall
    {
        type            calculated;
        value           uniform 0;
    }
    fixedWalls
    {
        type            calculated;
        value           uniform 0;
    }
    frontAndBack
    {
        type            empty;
        value           nonuniform List<scalar> 0();
    }
}


// ************************************************************************* //
