0 	0 	0 	0
1.57135 	-0.00220084 	0.00214387 	0
3.1427 	-0.00483015 	0.00447601 	0
4.71405 	-0.00792039 	0.00663669 	0
6.28539 	-0.0119608 	0.00872559 	0
7.85674 	-0.0148916 	0.00618629 	0
9.42809 	-0.159568 	0.218734 	0
10.9994 	0.204964 	-0.00427261 	0
12.5708 	0.0564168 	-0.032225 	0
14.1421 	0.5 	0 	0
