/*--------------------------------*- C++ -*----------------------------------*\
  =========                 |
  \\      /  F ield         | OpenFOAM: The Open Source CFD Toolbox
   \\    /   O peration     | Website:  https://openfoam.org
    \\  /    A nd           | Version:  8
     \\/     M anipulation  |
\*---------------------------------------------------------------------------*/
FoamFile
{
    version     2.0;
    format      ascii;
    class       volScalarField;
    location    "60";
    object      p;
}
// * * * * * * * * * * * * * * * * * * * * * * * * * * * * * * * * * * * * * //

dimensions      [0 2 -2 0 0 0 0];

internalField   nonuniform List<scalar> 
11600
(
5.42552e-09
-6.89551e-07
-2.87857e-07
6.66377e-07
2.40111e-06
4.85203e-06
8.01023e-06
1.1872e-05
1.64379e-05
2.1713e-05
2.77052e-05
3.44251e-05
4.18848e-05
5.00975e-05
5.90782e-05
6.8843e-05
7.94097e-05
9.07975e-05
0.000103027
0.00011612
0.0001301
0.000144991
0.00016082
0.000177613
0.000195399
0.00021421
0.000234075
0.00025503
0.000277107
0.000300343
0.000324775
0.000350441
0.00037738
0.000405633
0.000435241
0.000466246
0.00049869
0.000532615
0.000568064
0.000605077
0.000643698
0.000683965
0.000725917
0.000769588
0.000815009
0.000862207
0.0009112
0.000961994
0.00101458
0.00106892
0.00112495
0.0011825
0.00124132
0.00130096
0.00136047
0.0014186
0.00147893
0.0015134
0.00161096
0.00153075
3.22647e-07
-2.6366e-07
3.47157e-07
1.41244e-06
3.21207e-06
5.69558e-06
8.86672e-06
1.27324e-05
1.72985e-05
2.25722e-05
2.85626e-05
3.528e-05
4.27364e-05
5.09453e-05
5.99216e-05
6.96818e-05
8.02434e-05
9.16257e-05
0.000103849
0.000116936
0.000130908
0.000145792
0.000161612
0.000178396
0.000196173
0.000214973
0.000234828
0.000255771
0.000277836
0.000301059
0.000325477
0.000351129
0.000378054
0.000406292
0.000435885
0.000466875
0.000499303
0.000533213
0.000568646
0.000605645
0.000644252
0.000684506
0.000726446
0.000770108
0.000815524
0.00086272
0.000911715
0.000962518
0.00101512
0.0010695
0.00112559
0.00118329
0.00124243
0.00130274
0.00136391
0.00142606
0.00148963
0.00154931
0.00163978
0.00169606
-3.32115e-07
-1.05196e-06
-4.03259e-07
6.66587e-07
2.47462e-06
4.96131e-06
8.1302e-06
1.19889e-05
1.65441e-05
2.18037e-05
2.77773e-05
3.44754e-05
4.19102e-05
5.0095e-05
5.90448e-05
6.87761e-05
7.93066e-05
9.06555e-05
0.000102843
0.000115892
0.000129824
0.000144664
0.000160439
0.000177175
0.000194902
0.000213649
0.000233449
0.000254334
0.000276339
0.0002995
0.000323854
0.00034944
0.000376297
0.000404466
0.000433989
0.000464908
0.000497265
0.000531103
0.000566466
0.000603396
0.000641935
0.000682126
0.000724008
0.000767618
0.00081299
0.000860156
0.000909137
0.000959948
0.00101259
0.00106706
0.0011233
0.00118126
0.0012408
0.00130176
0.00136401
0.00142774
0.00149323
0.00156034
0.0016465
0.00171458
-1.57089e-06
-2.37826e-06
-1.69154e-06
-6.10434e-07
1.20898e-06
3.69826e-06
6.86168e-06
1.07083e-05
1.52456e-05
2.04826e-05
2.64291e-05
3.30963e-05
4.04963e-05
4.86429e-05
5.75508e-05
6.72365e-05
7.77177e-05
8.90137e-05
0.000101145
0.000114133
0.000128001
0.000142773
0.000158475
0.000175136
0.000192783
0.000211446
0.000231159
0.000251953
0.000273863
0.000296926
0.000321179
0.00034666
0.00037341
0.00040147
0.000430882
0.000461688
0.000493931
0.000527655
0.000562905
0.000599724
0.000638156
0.000678244
0.000720031
0.000763555
0.000808854
0.000855963
0.000904912
0.000955725
0.00100842
0.001063
0.00111947
0.00117783
0.00123807
0.00130022
0.00136441
0.00143106
0.00150086
0.00157569
0.00166066
0.00174691
-3.68954e-06
-4.55635e-06
-3.85805e-06
-2.78298e-06
-9.67934e-07
1.51083e-06
4.6576e-06
8.4817e-06
1.29909e-05
1.81942e-05
2.41016e-05
3.07243e-05
3.80748e-05
4.61668e-05
5.5015e-05
6.46361e-05
7.50475e-05
8.62685e-05
9.83193e-05
0.000111222
0.000124999
0.000139674
0.000155275
0.000171829
0.000189363
0.000207909
0.000227499
0.000248165
0.000269942
0.000292867
0.000316977
0.000342312
0.000368912
0.000396819
0.000426074
0.000456721
0.000488805
0.00052237
0.00055746
0.000594123
0.000632403
0.000672345
0.000713994
0.000757393
0.000802583
0.000849603
0.000898489
0.000949276
0.00100199
0.00105667
0.00111333
0.00117201
0.00123276
0.00129568
0.00136096
0.00142897
0.00150038
0.00157665
0.00165931
0.00174627
-6.65957e-06
-7.55942e-06
-6.86109e-06
-5.79847e-06
-3.99617e-06
-1.53627e-06
1.58519e-06
5.37748e-06
9.84841e-06
1.50069e-05
2.08629e-05
2.74278e-05
3.4714e-05
4.27351e-05
5.15062e-05
6.10436e-05
7.13648e-05
8.24889e-05
9.44361e-05
0.000107228
0.000120887
0.000135439
0.000150909
0.000167324
0.000184714
0.000203108
0.000222539
0.00024304
0.000264646
0.000287393
0.00031132
0.000336466
0.000362873
0.000390581
0.000419634
0.000450077
0.000481954
0.000515311
0.000550196
0.000586655
0.000624735
0.000664485
0.000705952
0.000749182
0.00079422
0.00084111
0.000889895
0.000940619
0.000993323
0.00104805
0.00110485
0.00116379
0.00122494
0.00128843
0.00135449
0.00142342
0.00149576
0.00157229
0.0016534
0.00173893
-1.04814e-05
-1.13967e-05
-1.07046e-05
-9.65852e-06
-7.87601e-06
-5.44263e-06
-2.35476e-06
1.39656e-06
5.819e-06
1.09214e-05
1.67137e-05
2.32072e-05
3.04142e-05
3.83484e-05
4.70248e-05
5.64595e-05
6.66701e-05
7.76754e-05
8.94954e-05
0.000102152
0.000115667
0.000130067
0.000145376
0.000161622
0.000178834
0.000197042
0.000216279
0.000236578
0.000257974
0.000280504
0.000304207
0.000329121
0.00035529
0.000382754
0.00041156
0.00044175
0.000473373
0.000506475
0.000541104
0.00057731
0.000615143
0.000654652
0.000695888
0.000738901
0.000783739
0.000830453
0.00087909
0.000929701
0.000982337
0.00103705
0.00109391
0.00115297
0.00121434
0.00127815
0.00134456
0.00141384
0.00148631
0.00156235
0.00164206
0.00172533
-1.51492e-05
-1.60715e-05
-1.53899e-05
-1.43636e-05
-1.2607e-05
-1.02072e-05
-7.16097e-06
-3.45958e-06
9.04336e-07
5.93944e-06
1.16557e-05
1.80641e-05
2.51771e-05
3.30082e-05
4.15723e-05
5.08854e-05
6.09649e-05
7.18294e-05
8.3499e-05
9.5995e-05
0.00010934
0.000123559
0.000138678
0.000154724
0.000171725
0.000189713
0.00020872
0.00022878
0.000249927
0.0002722
0.000295635
0.000320275
0.000346161
0.000373336
0.000401846
0.000431737
0.000463056
0.000495852
0.000530176
0.000566078
0.000603612
0.000642829
0.000683783
0.000726526
0.000771113
0.000817597
0.000866033
0.000916476
0.000968982
0.00102361
0.00108044
0.00113952
0.00120097
0.00126488
0.00133141
0.00140071
0.00147299
0.00154839
0.00162689
0.00170826
-2.06525e-05
-2.15789e-05
-2.09108e-05
-1.99073e-05
-1.81818e-05
-1.58223e-05
-1.28254e-05
-9.18271e-06
-4.88721e-06
6.95595e-08
5.69741e-06
1.20073e-05
1.90115e-05
2.67234e-05
3.51577e-05
4.43302e-05
5.42582e-05
6.49601e-05
7.64557e-05
8.87665e-05
0.000101915
0.000115926
0.000130825
0.000146639
0.000163397
0.000181131
0.000199872
0.000219654
0.000240514
0.000262487
0.000285614
0.000309934
0.000335492
0.000362331
0.000390497
0.000420038
0.000451002
0.000483441
0.000517407
0.000552953
0.000590133
0.000629003
0.00066962
0.000712041
0.000756321
0.00080252
0.000850697
0.000900912
0.000953227
0.00100771
0.00106442
0.00112344
0.00118485
0.00124874
0.00131523
0.00138441
0.0014564
0.00153122
0.00160879
0.00168884
-2.69803e-05
-2.79099e-05
-2.7258e-05
-2.62805e-05
-2.4591e-05
-2.22777e-05
-1.93376e-05
-1.57623e-05
-1.1545e-05
-6.67748e-06
-1.15016e-06
5.04782e-06
1.19285e-05
1.95051e-05
2.77922e-05
3.68052e-05
4.65614e-05
5.70789e-05
6.83774e-05
8.04783e-05
9.3404e-05
0.000107179
0.000121828
0.000137379
0.000153861
0.000171306
0.000189745
0.000209212
0.000229744
0.000251377
0.000274151
0.000298107
0.00032329
0.000349744
0.000377517
0.000406657
0.000437215
0.000469243
0.000502796
0.00053793
0.0005747
0.000613167
0.00065339
0.000695428
0.000739344
0.0007852
0.000833059
0.000882986
0.000935047
0.000989309
0.00104584
0.00110472
0.00116602
0.00122981
0.00129618
0.00136521
0.00143692
0.0015113
0.00158824
0.00166746
-3.41211e-05
-3.50539e-05
-3.44206e-05
-3.34723e-05
-3.18234e-05
-2.95623e-05
-2.6686e-05
-2.31865e-05
-1.9057e-05
-1.42896e-05
-8.87486e-06
-2.80207e-06
3.94054e-06
1.1366e-05
1.94884e-05
2.83233e-05
3.78875e-05
4.8199e-05
5.92775e-05
7.11437e-05
8.38202e-05
9.73307e-05
0.000111701
0.000126958
0.000143132
0.000160252
0.000178352
0.000197466
0.000217629
0.000238879
0.000261257
0.000284804
0.000309564
0.000335585
0.000362913
0.0003916
0.000421697
0.000453259
0.000486343
0.000521006
0.000557308
0.000595311
0.000635078
0.000676674
0.000720164
0.000765615
0.000813094
0.000862671
0.000914416
0.000968399
0.00102469
0.00108337
0.0011445
0.00120815
0.00127438
0.00134324
0.00141475
0.00148885
0.00156544
0.00164426
-4.20626e-05
-4.29986e-05
-4.23862e-05
-4.14702e-05
-3.98664e-05
-3.76633e-05
-3.48578e-05
-3.14422e-05
-2.74101e-05
-2.27534e-05
-1.74631e-05
-1.15286e-05
-4.93847e-06
2.31999e-06
1.02607e-05
1.88989e-05
2.82512e-05
3.83354e-05
4.91708e-05
6.0778e-05
7.31791e-05
8.63977e-05
0.000100459
0.000115391
0.000131223
0.000147985
0.000165709
0.00018443
0.000204184
0.000225009
0.000246945
0.000270035
0.000294325
0.000319861
0.000346693
0.000374873
0.000404453
0.000435491
0.000468046
0.000502177
0.000537949
0.000575426
0.000614674
0.000655762
0.000698761
0.000743741
0.000790777
0.00083994
0.000891307
0.000944952
0.00100095
0.00105937
0.00112029
0.00118376
0.00124985
0.00131859
0.00138997
0.00146396
0.00154043
0.00161919
-5.0791e-05
-5.17305e-05
-5.11409e-05
-5.02603e-05
-4.8706e-05
-4.65664e-05
-4.38387e-05
-4.05152e-05
-3.65895e-05
-3.20541e-05
-2.68998e-05
-2.11165e-05
-1.46931e-05
-7.61717e-06
1.24949e-07
8.54819e-06
1.76689e-05
2.75045e-05
3.80742e-05
4.93979e-05
6.14976e-05
7.43967e-05
8.81204e-05
0.000102696
0.000118152
0.00013452
0.000151831
0.000170121
0.000189424
0.00020978
0.00023123
0.000253817
0.000277586
0.000302586
0.000328868
0.000356484
0.000385489
0.000415943
0.000447907
0.000481443
0.000516619
0.000553502
0.000592163
0.000632676
0.000675114
0.000719556
0.000766079
0.000814762
0.000865686
0.000918931
0.000974576
0.0010327
0.00109337
0.00115665
0.0012226
0.00129124
0.00136259
0.00143659
0.00151316
0.00159212
-6.02913e-05
-6.12347e-05
-6.06698e-05
-5.98274e-05
-5.8327e-05
-5.62564e-05
-5.36131e-05
-5.03895e-05
-4.65794e-05
-4.21753e-05
-3.71685e-05
-3.15492e-05
-2.53065e-05
-1.84283e-05
-1.09014e-05
-2.71115e-06
6.15849e-06
1.57247e-05
2.60059e-05
3.70221e-05
4.87945e-05
6.13465e-05
7.47029e-05
8.88908e-05
0.000103939
0.000119877
0.000136738
0.000154556
0.000173368
0.000193211
0.000214129
0.000236163
0.000259362
0.000283773
0.000309448
0.000336442
0.000364813
0.00039462
0.000425928
0.000458803
0.000493313
0.000529532
0.000567534
0.000607398
0.000649203
0.000693031
0.000738968
0.000787099
0.000837511
0.000890292
0.000945526
0.0010033
0.00106368
0.00112675
0.00119256
0.00126114
0.00133252
0.00140665
0.00148348
0.00156286
-7.05473e-05
-7.14947e-05
-7.09565e-05
-7.01553e-05
-6.87128e-05
-6.67167e-05
-6.41642e-05
-6.10481e-05
-5.73623e-05
-5.30996e-05
-4.82515e-05
-4.28085e-05
-3.67602e-05
-3.00948e-05
-2.27994e-05
-1.48598e-05
-6.26037e-06
3.01562e-06
1.29861e-05
2.36707e-05
3.50902e-05
4.72676e-05
6.02277e-05
7.39968e-05
8.86033e-05
0.000104077
0.000120451
0.000137758
0.000156036
0.000175323
0.000195661
0.000217094
0.000239669
0.000263437
0.000288449
0.000314762
0.000342434
0.00037153
0.000402114
0.000434256
0.000468028
0.000503508
0.000540774
0.00057991
0.000621002
0.000664137
0.000709409
0.000756909
0.000806734
0.000858978
0.000913735
0.000971097
0.00103115
0.00109397
0.00115963
0.00122818
0.00129963
0.00137399
0.00145119
0.00153116
-8.15416e-05
-8.24932e-05
-8.19835e-05
-8.12264e-05
-7.98458e-05
-7.79292e-05
-7.54739e-05
-7.24727e-05
-6.89197e-05
-6.4808e-05
-6.01294e-05
-5.48749e-05
-4.90343e-05
-4.25964e-05
-3.55486e-05
-2.7877e-05
-1.95666e-05
-1.06013e-05
-9.63604e-07
9.36558e-06
2.04069e-05
3.21827e-05
4.47174e-05
5.80368e-05
7.21689e-05
8.71432e-05
0.000102992
0.000119748
0.00013745
0.000156136
0.000175847
0.000196629
0.000218529
0.000241596
0.000265886
0.000291456
0.000318365
0.00034668
0.000376469
0.000407804
0.000440762
0.000475423
0.000511871
0.000550195
0.000590487
0.000632842
0.000677361
0.000724144
0.000773297
0.000824923
0.000879127
0.000936012
0.000995676
0.00105821
0.0011237
0.0011922
0.00126376
0.00133839
0.00141607
0.00149673
-9.32556e-05
-9.42115e-05
-9.37322e-05
-9.3022e-05
-9.17072e-05
-8.9875e-05
-8.75228e-05
-8.46435e-05
-8.12316e-05
-7.72802e-05
-7.27818e-05
-6.77275e-05
-6.21077e-05
-5.59115e-05
-4.91269e-05
-4.17404e-05
-3.37377e-05
-2.51032e-05
-1.58199e-05
-5.86933e-06
4.76875e-06
1.61163e-05
2.81969e-05
4.10359e-05
5.46607e-05
6.91005e-05
8.43867e-05
0.000100553
0.000117637
0.000135676
0.000154713
0.000174792
0.000195962
0.000218273
0.00024178
0.000266542
0.000292621
0.000320085
0.000349004
0.000379454
0.000411515
0.000445272
0.000480814
0.000518235
0.000557633
0.000599113
0.000642782
0.000688752
0.000737136
0.00078805
0.000841612
0.000897937
0.00095714
0.00101933
0.00108459
0.00115303
0.00122469
0.00129962
0.00137782
0.00145927
-0.00010567
-0.00010663
-0.000106183
-0.000105522
-0.000104277
-0.000102534
-0.00010029
-9.75398e-05
-9.42768e-05
-9.04949e-05
-8.61867e-05
-8.13441e-05
-7.59578e-05
-7.00173e-05
-6.3511e-05
-5.64262e-05
-4.87493e-05
-4.04652e-05
-3.15576e-05
-2.20084e-05
-1.1798e-05
-9.05098e-07
1.06932e-05
2.30215e-05
3.61066e-05
4.9977e-05
6.46639e-05
8.02007e-05
9.66235e-05
0.000113971
0.000132285
0.00015161
0.000171994
0.00019349
0.000216152
0.000240041
0.00026522
0.000291758
0.00031973
0.000349213
0.000380291
0.000413053
0.000447593
0.000484012
0.000522416
0.000562916
0.000605629
0.000650675
0.000698181
0.000748276
0.00080109
0.000856756
0.000915404
0.000977158
0.00104214
0.00111045
0.00118218
0.0012574
0.00133614
0.00141842
-0.000118763
-0.000119728
-0.000119314
-0.000118706
-0.000117533
-0.000115884
-0.000113755
-0.000111139
-0.000108033
-0.000104429
-0.000100321
-9.57013e-05
-9.05606e-05
-8.48892e-05
-7.86761e-05
-7.19093e-05
-6.45757e-05
-5.6661e-05
-4.81495e-05
-3.90238e-05
-2.9265e-05
-1.88526e-05
-7.76449e-06
4.02326e-06
1.65365e-05
2.98032e-05
4.38539e-05
5.87212e-05
7.44407e-05
9.10507e-05
0.000108593
0.000127111
0.000146655
0.000167276
0.000189029
0.000211977
0.000236183
0.00026172
0.000288662
0.000317091
0.000347094
0.000378765
0.000412203
0.000447514
0.000484812
0.000524217
0.000565854
0.000609856
0.000656361
0.000705512
0.000757455
0.000812341
0.000870317
0.000931532
0.000996126
0.00106423
0.00113596
0.00121143
0.00129069
0.0013738
-0.000132514
-0.000133483
-0.000133105
-0.00013255
-0.000131454
-0.000129903
-0.000127893
-0.000125419
-0.000122476
-0.000119059
-0.000115161
-0.000110774
-0.000105891
-0.000100502
-9.45959e-05
-8.81625e-05
-8.11893e-05
-7.36624e-05
-6.55669e-05
-5.68862e-05
-4.76023e-05
-3.76955e-05
-2.71447e-05
-1.59269e-05
-4.01704e-06
8.61205e-06
2.19898e-05
3.61482e-05
5.11221e-05
6.69491e-05
8.36702e-05
0.00010133
0.000119976
0.000139661
0.000160442
0.000182378
0.000205538
0.000229992
0.00025582
0.000283105
0.000311936
0.000342413
0.00037464
0.000408729
0.000444801
0.000482984
0.000523415
0.000566236
0.0006116
0.000659664
0.000710593
0.000764554
0.000821719
0.000882258
0.000946338
0.00101412
0.00108575
0.00116137
0.00124109
0.00132499
-0.000146898
-0.000147873
-0.000147531
-0.000147033
-0.000146016
-0.000144566
-0.000142681
-0.000140355
-0.000137583
-0.00013436
-0.00013068
-0.000126537
-0.000121922
-0.000116827
-0.000111243
-0.000105158
-9.85608e-05
-9.14394e-05
-8.3779e-05
-7.5564e-05
-6.67775e-05
-5.74009e-05
-4.7414e-05
-3.67947e-05
-2.55191e-05
-1.3561e-05
-8.92195e-07
1.25184e-05
2.67045e-05
4.17031e-05
5.75546e-05
7.43027e-05
9.1995e-05
0.000110683
0.000130424
0.000151279
0.000173315
0.000196605
0.00022123
0.000247275
0.000274834
0.000304008
0.000334908
0.000367652
0.000402368
0.000439191
0.00047827
0.000519759
0.000563824
0.000610639
0.000660387
0.000713256
0.00076944
0.000829135
0.000892539
0.000959844
0.00103124
0.00110688
0.00118694
0.00127155
-0.000161893
-0.000162872
-0.000162568
-0.000162128
-0.000161194
-0.00015985
-0.000158094
-0.000155921
-0.000153326
-0.000150305
-0.000146853
-0.000142962
-0.000138627
-0.000133838
-0.000128587
-0.000122865
-0.00011666
-0.00010996
-0.000102753
-9.50242e-05
-8.67569e-05
-7.7934e-05
-6.85365e-05
-5.85435e-05
-4.79322e-05
-3.66778e-05
-2.47532e-05
-1.21287e-05
1.22832e-06
1.53538e-05
3.02871e-05
4.6071e-05
6.27523e-05
8.03819e-05
9.90162e-05
0.000118717
0.000139551
0.000161592
0.000184922
0.000209629
0.000235808
0.000263566
0.000293017
0.000324283
0.000357501
0.000392816
0.000430383
0.000470372
0.000512963
0.000558346
0.000606722
0.000658302
0.000713305
0.000771957
0.000834484
0.000901116
0.000972076
0.00104758
0.00112782
0.00121299
-0.000177472
-0.000178456
-0.000178191
-0.000177812
-0.000176962
-0.000175728
-0.000174105
-0.00017209
-0.000169679
-0.000166867
-0.00016365
-0.000160021
-0.000155975
-0.000151503
-0.000146599
-0.000141252
-0.000135454
-0.000129192
-0.000122456
-0.000115232
-0.000107504
-9.92579e-05
-9.04744e-05
-8.11343e-05
-7.12163e-05
-6.06971e-05
-4.95512e-05
-3.77501e-05
-2.52626e-05
-1.20541e-05
1.91305e-06
1.66805e-05
3.22938e-05
4.8803e-05
6.62634e-05
8.47361e-05
0.000104288
0.000124994
0.000146935
0.000170201
0.00019489
0.000221111
0.000248982
0.000278631
0.000310201
0.000343844
0.000379728
0.000418032
0.000458953
0.000502696
0.000549484
0.00059955
0.00065314
0.00071051
0.000771921
0.000837639
0.000907932
0.00098306
0.00106327
0.00114881
-0.000193611
-0.000194598
-0.000194373
-0.000194056
-0.000193295
-0.000192173
-0.000190688
-0.000188837
-0.000186614
-0.000184018
-0.000181043
-0.000177685
-0.000173936
-0.000169792
-0.000165245
-0.000160287
-0.000154909
-0.000149101
-0.000142852
-0.00013615
-0.000128982
-0.000121334
-0.000113187
-0.000104526
-9.53289e-05
-8.55753e-05
-7.5241e-05
-6.42993e-05
-5.27206e-05
-4.04723e-05
-2.75182e-05
-1.38186e-05
6.70426e-07
1.59975e-05
3.22168e-05
4.9388e-05
6.75776e-05
8.68594e-05
0.000107315
0.000129035
0.000152119
0.000176677
0.000202831
0.000230715
0.000260475
0.000292273
0.000326285
0.000362704
0.000401738
0.000443612
0.000488569
0.000536865
0.000588774
0.000644583
0.000704592
0.000769108
0.000838443
0.000912911
0.000992817
0.00107846
-0.000210281
-0.000211272
-0.000211089
-0.000210835
-0.000210164
-0.000209158
-0.000207815
-0.000206131
-0.000204103
-0.000201728
-0.000199002
-0.000195921
-0.00019248
-0.000188673
-0.000184494
-0.000179935
-0.00017499
-0.000169649
-0.000163903
-0.000157741
-0.000151151
-0.00014412
-0.000136633
-0.000128674
-0.000120225
-0.000111265
-0.000101774
-9.17266e-05
-8.10947e-05
-6.9848e-05
-5.79527e-05
-4.53713e-05
-3.20618e-05
-1.79776e-05
-3.06651e-06
1.27296e-05
2.94757e-05
4.72444e-05
6.61166e-05
8.61827e-05
0.000107543
0.000130309
0.000154603
0.000180565
0.000208345
0.000238112
0.000270051
0.000304365
0.000341277
0.000381028
0.000423881
0.000470118
0.000520042
0.000573972
0.000632246
0.000695217
0.000763246
0.000836703
0.000915956
0.00100136
-0.000227456
-0.000228451
-0.00022831
-0.000228121
-0.000227542
-0.000226654
-0.000225456
-0.000223943
-0.000222115
-0.000219967
-0.000217496
-0.000214699
-0.000211573
-0.000208111
-0.000204309
-0.000200162
-0.000195661
-0.0001908
-0.000185571
-0.000179964
-0.000173969
-0.000167574
-0.000160767
-0.000153533
-0.000145856
-0.000137718
-0.0001291
-0.000119979
-0.00011033
-0.000100125
-8.93322e-05
-7.79176e-05
-6.58414e-05
-5.30595e-05
-3.95223e-05
-2.51741e-05
-9.95213e-06
6.21425e-06
2.34044e-05
4.17073e-05
6.12226e-05
8.20619e-05
0.00010435
0.000128227
0.000153848
0.000181388
0.000211037
0.000243011
0.000277544
0.000314894
0.000355344
0.000399201
0.000446794
0.00049848
0.000554637
0.000615663
0.000681975
0.000754002
0.000832178
0.000916937
-0.000245108
-0.000246106
-0.000246008
-0.000245885
-0.0002454
-0.000244632
-0.000243582
-0.000242245
-0.000240619
-0.000238702
-0.000236492
-0.000233986
-0.000231181
-0.000228073
-0.000224657
-0.000220929
-0.000216884
-0.000212515
-0.000207815
-0.000202777
-0.000197393
-0.000191651
-0.000185542
-0.000179053
-0.000172171
-0.00016488
-0.000157163
-0.000148999
-0.000140367
-0.000131241
-0.000121594
-0.000111392
-0.000100601
-8.91787e-05
-7.70794e-05
-6.42503e-05
-5.06318e-05
-3.61561e-05
-2.07466e-05
-4.31676e-06
1.32313e-05
3.20079e-05
5.2138e-05
7.37618e-05
9.70374e-05
0.000122142
0.000149275
0.000178657
0.000210535
0.000245183
0.000282901
0.00032402
0.0003689
0.000417931
0.000471533
0.000530155
0.000594269
0.000664369
0.000740962
0.000824562
-0.000263208
-0.000264208
-0.000264154
-0.000264098
-0.000263708
-0.000263063
-0.000262163
-0.000261003
-0.000259584
-0.000257903
-0.000255958
-0.000253748
-0.00025127
-0.000248522
-0.0002455
-0.0002422
-0.000238619
-0.000234752
-0.000230593
-0.000226137
-0.000221377
-0.000216304
-0.00021091
-0.000205185
-0.000199119
-0.000192697
-0.000185906
-0.000178728
-0.000171144
-0.000163133
-0.000154669
-0.000145724
-0.000136267
-0.000126259
-0.000115659
-0.000104418
-9.248e-05
-7.97816e-05
-6.625e-05
-5.18025e-05
-3.63442e-05
-1.97675e-05
-1.94969e-06
1.72487e-05
3.79859e-05
6.04411e-05
8.4817e-05
0.000111342
0.000140272
0.000171893
0.000206523
0.000244514
0.000286256
0.000332173
0.000382728
0.00043842
0.000499782
0.000567374
0.000641783
0.000723613
-0.000281727
-0.000282729
-0.000282718
-0.00028273
-0.000282436
-0.000281915
-0.000281167
-0.000280188
-0.000278978
-0.000277536
-0.00027586
-0.00027395
-0.000271805
-0.000269422
-0.0002668
-0.000263936
-0.000260827
-0.000257471
-0.000253863
-0.000249999
-0.000245874
-0.000241483
-0.000236819
-0.000231875
-0.000226643
-0.000221111
-0.000215268
-0.000209102
-0.000202594
-0.000195729
-0.000188485
-0.000180838
-0.00017276
-0.000164219
-0.000155176
-0.000145588
-0.000135404
-0.000124567
-0.000113008
-0.000100649
-8.74019e-05
-7.3162e-05
-5.7811e-05
-4.12125e-05
-2.32104e-05
-3.62578e-06
1.77454e-05
4.11351e-05
6.68057e-05
9.50537e-05
0.000126212
0.000160653
0.000198792
0.000241088
0.000288045
0.000340214
0.000398188
0.000462602
0.000534127
0.000613462
-0.000300634
-0.000301638
-0.000301671
-0.000301751
-0.000301554
-0.000301159
-0.000300564
-0.000299767
-0.000298768
-0.000297568
-0.000296164
-0.000294559
-0.00029275
-0.000290737
-0.000288519
-0.000286096
-0.000283466
-0.000280627
-0.000277578
-0.000274315
-0.000270836
-0.000267138
-0.000263217
-0.000259068
-0.000254685
-0.00025006
-0.000245186
-0.000240053
-0.000234648
-0.000228958
-0.000222966
-0.000216653
-0.000209995
-0.000202967
-0.000195534
-0.000187661
-0.000179302
-0.000170405
-0.000160909
-0.000150743
-0.000139824
-0.000128055
-0.000115324
-0.0001015
-8.64307e-05
-6.99413e-05
-5.18293e-05
-3.18628e-05
-9.77589e-06
1.47345e-05
4.20128e-05
7.24486e-05
0.00010648
0.000144598
0.000187348
0.000235329
0.0002892
0.000349669
0.000417499
0.000493491
-0.0003199
-0.000320904
-0.000320982
-0.00032113
-0.000321031
-0.000320761
-0.000320321
-0.000319707
-0.000318922
-0.000317964
-0.000316836
-0.000315537
-0.000314067
-0.000312427
-0.000310619
-0.000308641
-0.000306494
-0.000304179
-0.000301694
-0.00029904
-0.000296215
-0.000293218
-0.000290049
-0.000286706
-0.000283185
-0.000279483
-0.000275594
-0.000271512
-0.000267231
-0.00026274
-0.000258028
-0.000253081
-0.000247881
-0.000242407
-0.000236634
-0.000230531
-0.00022406
-0.000217177
-0.000209829
-0.000201953
-0.000193476
-0.000184308
-0.000174346
-0.000163467
-0.000151527
-0.000138358
-0.000123763
-0.000107514
-8.93455e-05
-6.89526e-05
-4.59837e-05
-2.00368e-05
9.34596e-06
4.26826e-05
8.05556e-05
0.000123615
0.000172579
0.000228236
0.00029144
0.000363103
-0.000339493
-0.000340497
-0.000340619
-0.000340836
-0.000340834
-0.000340691
-0.000340405
-0.000339976
-0.000339405
-0.000338692
-0.00033784
-0.000336848
-0.00033572
-0.000334456
-0.000333058
-0.000331529
-0.000329869
-0.00032808
-0.000326165
-0.000324123
-0.000321957
-0.000319669
-0.00031726
-0.000314731
-0.000312082
-0.000309313
-0.000306422
-0.000303407
-0.000300267
-0.000296995
-0.000293586
-0.000290032
-0.00028632
-0.000282438
-0.000278366
-0.000274082
-0.000269556
-0.000264754
-0.000259631
-0.000254136
-0.000248205
-0.00024176
-0.000234709
-0.000226941
-0.000218322
-0.000208696
-0.000197874
-0.000185639
-0.000171729
-0.000155845
-0.000137631
-0.000116681
-9.25228e-05
-6.46158e-05
-3.2345e-05
4.98481e-06
4.81525e-05
9.80228e-05
0.000155545
0.000221748
-0.000359383
-0.000360386
-0.000360553
-0.000360837
-0.000360933
-0.000360916
-0.000360786
-0.000360541
-0.000360184
-0.000359716
-0.00035914
-0.000358457
-0.000357671
-0.000356783
-0.000355798
-0.000354718
-0.000353546
-0.000352286
-0.000350942
-0.000349516
-0.000348013
-0.000346437
-0.000344793
-0.000343083
-0.000341312
-0.000339483
-0.000337599
-0.000335663
-0.000333675
-0.000331638
-0.000329549
-0.000327409
-0.000325211
-0.00032295
-0.000320614
-0.00031819
-0.000315659
-0.000312995
-0.000310166
-0.000307132
-0.000303843
-0.000300233
-0.000296226
-0.000291724
-0.000286609
-0.000280739
-0.000273942
-0.000266012
-0.000256703
-0.000245721
-0.000232721
-0.000217294
-0.000198963
-0.000177173
-0.000151284
-0.00012056
-8.41681e-05
-4.11684e-05
9.48463e-06
6.894e-05
-0.000379538
-0.00038054
-0.00038075
-0.000381102
-0.000381296
-0.000381404
-0.000381428
-0.000381368
-0.000381224
-0.000381001
-0.000380701
-0.000380327
-0.000379882
-0.000379371
-0.000378797
-0.000378166
-0.000377483
-0.000376751
-0.000375978
-0.000375169
-0.000374329
-0.000373467
-0.000372588
-0.000371701
-0.000370811
-0.000369926
-0.000369053
-0.000368201
-0.000367374
-0.00036658
-0.000365825
-0.000365112
-0.000364446
-0.000363827
-0.000363254
-0.000362723
-0.000362225
-0.000361747
-0.00036127
-0.000360766
-0.000360201
-0.000359527
-0.000358682
-0.000357588
-0.000356146
-0.000354235
-0.000351702
-0.000348361
-0.000343985
-0.0003383
-0.000330972
-0.000321605
-0.000309724
-0.000294771
-0.000276089
-0.000252914
-0.000224363
-0.000189428
-0.000146969
-9.57156e-05
-0.000399928
-0.000400927
-0.000401181
-0.0004016
-0.000401889
-0.000402123
-0.000402301
-0.000402423
-0.000402493
-0.000402513
-0.000402487
-0.000402419
-0.000402315
-0.000402178
-0.000402014
-0.000401831
-0.000401633
-0.000401429
-0.000401225
-0.00040103
-0.000400853
-0.000400702
-0.000400588
-0.000400521
-0.000400511
-0.00040057
-0.00040071
-0.000400942
-0.000401279
-0.000401732
-0.000402315
-0.000403038
-0.000403913
-0.000404951
-0.000406158
-0.000407542
-0.000409106
-0.000410849
-0.000412767
-0.000414849
-0.000417077
-0.000419421
-0.00042184
-0.000424279
-0.000426662
-0.000428892
-0.000430844
-0.000432358
-0.000433235
-0.000433227
-0.000432025
-0.000429254
-0.000424457
-0.000417082
-0.00040647
-0.000391842
-0.000372277
-0.000346708
-0.000313909
-0.000272487
-0.00042052
-0.000421516
-0.000421813
-0.000422297
-0.000422683
-0.00042304
-0.00042337
-0.000423673
-0.000423954
-0.000424215
-0.000424461
-0.000424698
-0.00042493
-0.000425165
-0.000425409
-0.000425669
-0.000425954
-0.000426273
-0.000426635
-0.00042705
-0.00042753
-0.000428086
-0.000428732
-0.000429481
-0.000430347
-0.000431346
-0.000432493
-0.000433807
-0.000435303
-0.000437002
-0.000438921
-0.00044108
-0.000443499
-0.000446196
-0.000449191
-0.000452501
-0.000456143
-0.000460129
-0.000464472
-0.000469179
-0.000474249
-0.000479675
-0.00048544
-0.000491514
-0.00049785
-0.00050438
-0.000511012
-0.000517623
-0.000524047
-0.000530075
-0.000535434
-0.000539783
-0.000542697
-0.000543649
-0.000541996
-0.000536956
-0.000527592
-0.000512792
-0.000491255
-0.000461474
-0.000441285
-0.000442276
-0.000442615
-0.000443164
-0.000443643
-0.000444123
-0.000444603
-0.000445085
-0.000445574
-0.000446073
-0.000446589
-0.000447126
-0.000447691
-0.000448293
-0.000448939
-0.000449639
-0.000450401
-0.000451237
-0.000452157
-0.000453176
-0.000454307
-0.000455563
-0.000456961
-0.000458517
-0.000460251
-0.000462181
-0.000464327
-0.000466713
-0.00046936
-0.000472295
-0.000475542
-0.000479129
-0.000483084
-0.000487436
-0.000492215
-0.00049745
-0.000503171
-0.000509408
-0.000516189
-0.00052354
-0.000531483
-0.000540033
-0.000549201
-0.000558985
-0.000569372
-0.00058033
-0.000591806
-0.000603718
-0.00061595
-0.000628338
-0.00064066
-0.000652625
-0.000663857
-0.000673875
-0.00068207
-0.000687685
-0.000689789
-0.000687249
-0.000678706
-0.000662556
-0.00046219
-0.000463176
-0.000463556
-0.000464168
-0.00046474
-0.000465339
-0.000465967
-0.000466626
-0.000467319
-0.000468053
-0.000468833
-0.000469666
-0.00047056
-0.000471523
-0.000472566
-0.000473697
-0.000474929
-0.000476274
-0.000477746
-0.000479359
-0.00048113
-0.000483076
-0.000485215
-0.000487568
-0.000490156
-0.000493004
-0.000496136
-0.000499579
-0.000503362
-0.000507516
-0.000512075
-0.000517074
-0.000522549
-0.00052854
-0.000535087
-0.000542233
-0.000550022
-0.0005585
-0.000567714
-0.000577709
-0.000588531
-0.000600221
-0.00061282
-0.000626359
-0.00064086
-0.000656335
-0.000672777
-0.000690155
-0.000708407
-0.000727429
-0.000747067
-0.000767097
-0.000787211
-0.000806997
-0.000825912
-0.00084325
-0.000858117
-0.000869391
-0.000875688
-0.00087533
-0.000483207
-0.000484185
-0.000484606
-0.000485279
-0.000485941
-0.000486657
-0.00048743
-0.000488261
-0.000489156
-0.000490119
-0.000491158
-0.000492282
-0.000493498
-0.000494816
-0.000496247
-0.000497803
-0.000499495
-0.00050134
-0.000503352
-0.000505549
-0.000507948
-0.00051057
-0.000513436
-0.00051657
-0.000519997
-0.000523744
-0.000527842
-0.000532323
-0.000537221
-0.000542573
-0.00054842
-0.000554805
-0.000561774
-0.000569377
-0.000577664
-0.000586694
-0.000596523
-0.000607216
-0.000618836
-0.000631453
-0.000645136
-0.000659954
-0.00067598
-0.000693281
-0.000711922
-0.000731959
-0.000753438
-0.000776388
-0.000800813
-0.000826682
-0.000853921
-0.000882394
-0.000911887
-0.000942083
-0.000972533
-0.00100263
-0.00103154
-0.00105822
-0.00108128
-0.00109903
-0.000504303
-0.000505274
-0.000505733
-0.000506466
-0.000507215
-0.000508046
-0.000508961
-0.00050996
-0.00051105
-0.000512238
-0.000513531
-0.000514938
-0.000516468
-0.000518133
-0.000519944
-0.000521914
-0.000524057
-0.00052639
-0.00052893
-0.000531696
-0.000534708
-0.00053799
-0.000541565
-0.000545461
-0.000549706
-0.000554332
-0.000559372
-0.000564865
-0.000570849
-0.00057737
-0.000584474
-0.000592212
-0.00060064
-0.000609815
-0.000619804
-0.000630674
-0.000642501
-0.000655362
-0.000669344
-0.000684536
-0.000701034
-0.000718938
-0.000738352
-0.000759383
-0.000782141