/*--------------------------------*- C++ -*----------------------------------*\
  =========                 |
  \\      /  F ield         | OpenFOAM: The Open Source CFD Toolbox
   \\    /   O peration     | Website:  https://openfoam.org
    \\  /    A nd           | Version:  8
     \\/     M anipulation  |
\*---------------------------------------------------------------------------*/
FoamFile
{
    version     2.0;
    format      ascii;
    class       volVectorField;
    location    "1.21";
    object      U;
}
// * * * * * * * * * * * * * * * * * * * * * * * * * * * * * * * * * * * * * //

dimensions      [0 1 -1 0 0 0 0];

internalField   nonuniform List<vector> 
400
(
(0.0249871 -4.32532e-12 0)
(0.0249871 -4.69833e-12 0)
(0.0249871 -4.27685e-12 0)
(0.0249871 -3.40724e-12 0)
(0.0249871 -2.39753e-12 0)
(0.0249871 -1.54868e-12 0)
(0.0249871 -6.85561e-13 0)
(0.0249871 2.01801e-13 0)
(0.0249871 1.11835e-12 0)
(0.0249871 1.92115e-12 0)
(0.0249871 2.53829e-12 0)
(0.0249871 2.98145e-12 0)
(0.0249871 3.16078e-12 0)
(0.0249871 3.16264e-12 0)
(0.0249871 2.81085e-12 0)
(0.0249871 2.20522e-12 0)
(0.0249871 1.11446e-12 0)
(0.0249871 -2.74164e-13 0)
(0.0249871 -1.93663e-12 0)
(0.0249871 -3.41813e-12 0)
(0.0749618 -2.66931e-11 0)
(0.0749618 -2.62874e-11 0)
(0.0749618 -2.26412e-11 0)
(0.0749618 -1.661e-11 0)
(0.0749618 -9.63962e-12 0)
(0.0749618 -2.29705e-12 0)
(0.0749618 4.81094e-12 0)
(0.0749618 1.14886e-11 0)
(0.0749618 1.70867e-11 0)
(0.0749618 2.11421e-11 0)
(0.0749618 2.3302e-11 0)
(0.0749618 2.33794e-11 0)
(0.0749618 2.14853e-11 0)
(0.0749618 1.76629e-11 0)
(0.0749618 1.2314e-11 0)
(0.0749618 5.59003e-12 0)
(0.0749618 -2.02484e-12 0)
(0.0749618 -1.01109e-11 0)
(0.0749618 -1.77241e-11 0)
(0.0749618 -2.37018e-11 0)
(0.124937 -7.71676e-11 0)
(0.124937 -7.28372e-11 0)
(0.124937 -6.04258e-11 0)
(0.124937 -4.21019e-11 0)
(0.124937 -2.03542e-11 0)
(0.124937 2.23828e-12 0)
(0.124937 2.41215e-11 0)
(0.124937 4.34917e-11 0)
(0.124937 5.87167e-11 0)
(0.124937 6.83681e-11 0)
(0.124937 7.16196e-11 0)
(0.124937 6.82599e-11 0)
(0.124937 5.85913e-11 0)
(0.124937 4.35567e-11 0)
(0.124937 2.43298e-11 0)
(0.124937 2.57492e-12 0)
(0.124937 -2.00115e-11 0)
(0.124937 -4.15679e-11 0)
(0.124937 -5.99087e-11 0)
(0.124937 -7.23884e-11 0)
(0.174915 -1.46504e-10 0)
(0.174915 -1.34824e-10 0)
(0.174915 -1.08793e-10 0)
(0.174915 -7.20282e-11 0)
(0.174915 -2.91756e-11 0)
(0.174915 1.55618e-11 0)
(0.174915 5.81123e-11 0)
(0.174915 9.47833e-11 0)
(0.174915 1.22209e-10 0)
(0.174915 1.37935e-10 0)
(0.174915 1.40529e-10 0)
(0.174915 1.29806e-10 0)
(0.174915 1.06806e-10 0)
(0.174915 7.36281e-11 0)
(0.174915 3.3343e-11 0)
(0.174915 -1.04993e-11 0)
(0.174915 -5.38567e-11 0)
(0.174915 -9.28439e-11 0)
(0.174915 -1.23621e-10 0)
(0.174915 -1.42508e-10 0)
(0.224894 -2.2045e-10 0)
(0.224894 -1.99031e-10 0)
(0.224894 -1.57134e-10 0)
(0.224894 -9.97884e-11 0)
(0.224894 -3.33525e-11 0)
(0.224894 3.54974e-11 0)
(0.224894 1.00253e-10 0)
(0.224894 1.54918e-10 0)
(0.224894 1.94468e-10 0)
(0.224894 2.15253e-10 0)
(0.224894 2.15385e-10 0)
(0.224894 1.94855e-10 0)
(0.224894 1.5564e-10 0)
(0.224894 1.01407e-10 0)
(0.224894 3.72436e-11 0)
(0.224894 -3.08207e-11 0)
(0.224894 -9.63888e-11 0)
(0.224894 -1.53192e-10 0)
(0.224894 -1.95622e-10 0)
(0.224894 -2.19137e-10 0)
(0.274876 -2.82472e-10 0)
(0.274876 -2.51441e-10 0)
(0.274876 -1.95048e-10 0)
(0.274876 -1.19472e-10 0)
(0.274876 -3.26031e-11 0)
(0.274876 5.67955e-11 0)
(0.274876 1.40107e-10 0)
(0.274876 2.0938e-10 0)
(0.274876 2.58168e-10 0)
(0.274876 2.81968e-10 0)
(0.274876 2.78544e-10 0)
(0.274876 2.48261e-10 0)
(0.274876 1.93957e-10 0)
(0.274876 1.20845e-10 0)
(0.274876 3.57874e-11 0)
(0.274876 -5.29941e-11 0)
(0.274876 -1.36988e-10 0)
(0.274876 -2.08041e-10 0)
(0.274876 -2.59174e-10 0)
(0.274876 -2.85033e-10 0)
(0.324861 -3.16826e-10 0)
(0.324861 -2.78591e-10 0)
(0.324861 -2.12701e-10 0)
(0.324861 -1.25769e-10 0)
(0.324861 -2.68111e-11 0)
(0.324861 7.43819e-11 0)
(0.324861 1.67818e-10 0)
(0.324861 2.4454e-10 0)
(0.324861 2.97301e-10 0)
(0.324861 3.21203e-10 0)
(0.324861 3.14014e-10 0)
(0.324861 2.76368e-10 0)
(0.324861 2.11915e-10 0)
(0.324861 1.26758e-10 0)
(0.324861 2.9146e-11 0)
(0.324861 -7.15715e-11 0)
(0.324861 -1.65503e-10 0)
(0.324861 -2.43564e-10 0)
(0.324861 -2.9809e-10 0)
(0.324861 -3.23433e-10 0)
(0.374849 -3.13737e-10 0)
(0.374849 -2.72225e-10 0)
(0.374849 -2.03802e-10 0)
(0.374849 -1.15321e-10 0)
(0.374849 -1.5598e-11 0)
(0.374849 8.5362e-11 0)
(0.374849 1.77695e-10 0)
(0.374849 2.52335e-10 0)
(0.374849 3.02255e-10 0)
(0.374849 3.2277e-10 0)
(0.374849 3.11928e-10 0)
(0.374849 2.70791e-10 0)
(0.374849 2.03243e-10 0)
(0.374849 1.15876e-10 0)
(0.374849 1.70542e-11 0)
(0.374849 -8.35051e-11 0)
(0.374849 -1.76102e-10 0)
(0.374849 -2.51619e-10 0)
(0.374849 -3.02755e-10 0)
(0.374849 -3.24223e-10 0)
(0.424841 -2.7233e-10 0)
(0.424841 -2.3132e-10 0)
(0.424841 -1.6759e-10 0)
(0.424841 -8.73051e-11 0)
(0.424841 1.47372e-12 0)
(0.424841 9.00676e-11 0)
(0.424841 1.69629e-10 0)
(0.424841 2.32406e-10 0)
(0.424841 2.72374e-10 0)
(0.424841 2.85785e-10 0)
(0.424841 2.7139e-10 0)
(0.424841 2.30531e-10 0)
(0.424841 1.67219e-10 0)
(0.424841 8.75199e-11 0)
(0.424841 -7.07511e-13 0)
(0.424841 -8.89396e-11 0)
(0.424841 -1.68527e-10 0)
(0.424841 -2.31801e-10 0)
(0.424841 -2.7251e-10 0)
(0.424841 -2.8653e-10 0)
(0.474837 -2.00389e-10 0)
(0.474837 -1.62664e-10 0)
(0.474837 -1.08936e-10 0)
(0.474837 -4.45403e-11 0)
(0.474837 2.42952e-11 0)
(0.474837 9.07174e-11 0)
(0.474837 1.48215e-10 0)
(0.474837 1.91058e-10 0)
(0.474837 2.15168e-10 0)
(0.474837 2.18267e-10 0)
(0.474837 2.00054e-10 0)
(0.474837 1.62333e-10 0)
(0.474837 1.08715e-10 0)
(0.474837 4.45184e-11 0)
(0.474837 -2.40216e-11 0)
(0.474837 -9.01216e-11 0)
(0.474837 -1.47495e-10 0)
(0.474837 -1.90549e-10 0)
(0.474837 -2.15059e-10 0)
(0.474837 -2.18504e-10 0)
(0.524837 -1.12266e-10 0)
(0.524837 -7.89386e-11 0)
(0.524837 -3.79465e-11 0)
(0.524837 6.80158e-12 0)
(0.524837 5.08566e-11 0)
(0.524837 8.99897e-11 0)
(0.524837 1.2027e-10 0)
(0.524837 1.38745e-10 0)
(0.524837 1.43635e-10 0)
(0.524837 1.34479e-10 0)
(0.524837 1.12194e-10 0)
(0.524837 7.88849e-11 0)
(0.524837 3.78519e-11 0)
(0.524837 -6.91968e-12 0)
(0.524837 -5.08909e-11 0)
(0.524837 -8.9817e-11 0)
(0.524837 -1.19956e-10 0)
(0.524837 -1.38507e-10 0)
(0.524837 -1.43571e-10 0)
(0.524837 -1.34548e-10 0)
(0.574841 -2.50379e-11 0)
(0.574841 3.89728e-12 0)
(0.574841 3.24237e-11 0)
(0.574841 5.76828e-11 0)
(0.574841 7.72849e-11 0)
(0.574841 8.92906e-11 0)
(0.574841 9.25661e-11 0)
(0.574841 8.68032e-11 0)
(0.574841 7.25925e-11 0)
(0.574841 5.13364e-11 0)
(0.574841 2.50383e-11 0)
(0.574841 -3.74104e-12 0)
(0.574841 -3.22839e-11 0)
(0.574841 -5.76887e-11 0)
(0.574841 -7.74047e-11 0)
(0.574841 -8.94172e-11 0)
(0.574841 -9.26971e-11 0)
(0.574841 -8.69858e-11 0)
(0.574841 -7.28126e-11 0)
(0.574841 -5.1482e-11 0)
(0.624849 4.53886e-11 0)
(0.624849 7.06408e-11 0)
(0.624849 8.89127e-11 0)
(0.624849 9.83921e-11 0)
(0.624849 9.81227e-11 0)
(0.624849 8.82171e-11 0)
(0.624849 6.96523e-11 0)
(0.624849 4.43496e-11 0)
(0.624849 1.48305e-11 0)
(0.624849 -1.60611e-11 0)
(0.624849 -4.53247e-11 0)
(0.624849 -7.02491e-11 0)
(0.624849 -8.84169e-11 0)
(0.624849 -9.80801e-11 0)
(0.624849 -9.81083e-11 0)
(0.624849 -8.8482e-11 0)
(0.624849 -7.01538e-11 0)
(0.624849 -4.49664e-11 0)
(0.624849 -1.53722e-11 0)
(0.624849 1.57783e-11 0)
(0.674861 8.82934e-11 0)
(0.674861 1.10324e-10 0)
(0.674861 1.21602e-10 0)
(0.674861 1.20806e-10 0)
(0.674861 1.08093e-10 0)
(0.674861 8.46889e-11 0)
(0.674861 5.29734e-11 0)
(0.674861 1.6171e-11 0)
(0.674861 -2.20665e-11 0)
(0.674861 -5.79793e-11 0)
(0.674861 -8.816e-11 0)
(0.674861 -1.09735e-10 0)
(0.674861 -1.2076e-10 0)
(0.674861 -1.20119e-10 0)
(0.674861 -1.07813e-10 0)
(0.674861 -8.49313e-11 0)
(0.674861 -5.36889e-11 0)
(0.674861 -1.70955e-11 0)
(0.674861 2.12898e-11 0)
(0.674861 5.7583e-11 0)
(0.724876 1.00503e-10 0)
(0.724876 1.1935e-10 0)
(0.724876 1.26523e-10 0)
(0.724876 1.21212e-10 0)
(0.724876 1.03911e-10 0)
(0.724876 7.63258e-11 0)
(0.724876 4.12175e-11 0)
(0.724876 2.16111e-12 0)
(0.724876 -3.69416e-11 0)
(0.724876 -7.22615e-11 0)
(0.724876 -1.00377e-10 0)
(0.724876 -1.18691e-10 0)
(0.724876 -1.25517e-10 0)
(0.724876 -1.20274e-10 0)
(0.724876 -1.03396e-10 0)
(0.724876 -7.64707e-11 0)
(0.724876 -4.19846e-11 0)
(0.724876 -3.22137e-12 0)
(0.724876 3.60376e-11 0)
(0.724876 7.17727e-11 0)
(0.774894 8.70513e-11 0)
(0.774894 1.02132e-10 0)
(0.774894 1.07179e-10 0)
(0.774894 1.01682e-10 0)
(0.774894 8.61394e-11 0)
(0.774894 6.20298e-11 0)
(0.774894 3.18035e-11 0)
(0.774894 -1.48141e-12 0)
(0.774894 -3.44812e-11 0)
(0.774894 -6.39458e-11 0)
(0.774894 -8.70225e-11 0)
(0.774894 -1.01552e-10 0)
(0.774894 -1.06245e-10 0)
(0.774894 -1.00716e-10 0)
(0.774894 -8.55251e-11 0)
(0.774894 -6.20674e-11 0)
(0.774894 -3.24811e-11 0)
(0.774894 4.91794e-13 0)
(0.774894 3.35805e-11 0)
(0.774894 6.34571e-11 0)
(0.824915 5.89937e-11 0)
(0.824915 6.9554e-11 0)
(0.824915 7.32747e-11 0)
(0.824915 6.98071e-11 0)
(0.824915 5.94436e-11 0)
(0.824915 4.31599e-11 0)
(0.824915 2.25987e-11 0)
(0.824915 -1.30713e-13 0)
(0.824915 -2.27782e-11 0)
(0.824915 -4.30688e-11 0)
(0.824915 -5.90591e-11 0)
(0.824915 -6.92023e-11 0)
(0.824915 -7.2619e-11 0)
(0.824915 -6.90394e-11 0)
(0.824915 -5.88871e-11 0)
(0.824915 -4.31155e-11 0)
(0.824915 -2.30901e-11 0)
(0.824915 -6.32372e-13 0)
(0.824915 2.20675e-11 0)
(0.824915 4.26708e-11 0)
(0.874938 2.94034e-11 0)
(0.874938 3.51664e-11 0)
(0.874938 3.75338e-11 0)
(0.874938 3.62852e-11 0)
(0.874938 3.14347e-11 0)
(0.874938 2.3456e-11 0)
(0.874938 1.31544e-11 0)
(0.874938 1.54905e-12 0)
(0.874938 -1.01539e-11 0)
(0.874938 -2.08384e-11 0)
(0.874938 -2.9376e-11 0)
(0.874938 -3.5008e-11 0)
(0.874938 -3.71726e-11 0)
(0.874938 -3.57774e-11 0)
(0.874938 -3.09996e-11 0)
(0.874938 -2.332e-11 0)
(0.874938 -1.33675e-11 0)
(0.874938 -1.94539e-12 0)
(0.874938 9.74447e-12 0)
(0.874938 2.053e-11 0)
(0.924962 8.47299e-12 0)
(0.924962 1.05616e-11 0)
(0.924962 1.15192e-11 0)
(0.924962 1.1428e-11 0)
(0.924962 1.0238e-11 0)
(0.924962 8.02141e-12 0)
(0.924962 4.9948e-12 0)
(0.924962 1.47785e-12 0)
(0.924962 -2.22502e-12 0)
(0.924962 -5.64965e-12 0)
(0.924962 -8.51122e-12 0)
(0.924962 -1.0442e-11 0)
(0.924962 -1.13654e-11 0)
(0.924962 -1.11648e-11 0)
(0.924962 -9.96728e-12 0)
(0.924962 -7.86938e-12 0)
(0.924962 -5.01431e-12 0)
(0.924962 -1.60555e-12 0)
(0.924962 2.03521e-12 0)
(0.924962 5.55694e-12 0)
(0.974987 3.94665e-13 0)
(0.974987 6.92606e-13 0)
(0.974987 8.05017e-13 0)
(0.974987 9.48646e-13 0)
(0.974987 9.9097e-13 0)
(0.974987 9.42506e-13 0)
(0.974987 7.92564e-13 0)
(0.974987 5.23757e-13 0)
(0.974987 2.12372e-13 0)
(0.974987 -1.47479e-13 0)
(0.974987 -4.2512e-13 0)
(0.974987 -6.73895e-13 0)
(0.974987 -8.20173e-13 0)
(0.974987 -9.31942e-13 0)
(0.974987 -9.64766e-13 0)
(0.974987 -9.39211e-13 0)
(0.974987 -8.04202e-13 0)
(0.974987 -5.77645e-13 0)
(0.974987 -3.17206e-13 0)
(0.974987 5.71112e-14 0)
)
;

boundaryField
{
    movingWall
    {
        type            fixedValue;
        value           uniform (1 0 0);
    }
    fixedWalls
    {
        type            noSlip;
    }
    left
    {
        type            cyclic;
    }
    right
    {
        type            cyclic;
    }
    frontAndBack
    {
        type            empty;
    }
}


// ************************************************************************* //
