/*--------------------------------*- C++ -*----------------------------------*\
  =========                 |
  \\      /  F ield         | OpenFOAM: The Open Source CFD Toolbox
   \\    /   O peration     | Website:  https://openfoam.org
    \\  /    A nd           | Version:  8
     \\/     M anipulation  |
\*---------------------------------------------------------------------------*/
FoamFile
{
    version     2.0;
    format      ascii;
    class       volScalarField;
    location    "0.385";
    object      p;
}
// * * * * * * * * * * * * * * * * * * * * * * * * * * * * * * * * * * * * * //

dimensions      [0 2 -2 0 0 0 0];

internalField   nonuniform List<scalar> 
400
(
4.25329e-06
-0.00582238
-0.0129597
-0.0184117
-0.020429
-0.0182353
-0.0117709
-0.00148101
0.0118397
0.027151
0.0432458
0.058824
0.0725793
0.0833089
0.0900532
0.0922675
0.0900267
0.0842452
0.0768824
0.0710691
0.00578293
-0.000215871
-0.00580146
-0.00953992
-0.0105962
-0.00843003
-0.00296738
0.00547646
0.0163049
0.0287135
0.0417513
0.0543873
0.0655875
0.0744109
0.0801213
0.0823169
0.0810786
0.0770565
0.0712761
0.0653201
0.0133368
0.00503559
-0.000993208
-0.00442089
-0.00527064
-0.00326164
0.00160456
0.00902966
0.0185039
0.029351
0.040767
0.0518711
0.0617699
0.0696378
0.0748084
0.0768796
0.0758433
0.0720878
0.0658078
0.0575382
0.0201406
0.00869753
0.0012277
-0.00266656
-0.00372009
-0.00188326
0.00273331
0.00978653
0.0187822
0.0290967
0.0399936
0.0506556
0.0602345
0.0679176
0.0730049
0.0750033
0.0737677
0.0694583
0.0616055
0.0501055
0.0245028
0.0097745
0.000591477
-0.00398505
-0.0053003
-0.00350537
0.00117671
0.00833651
0.0174639
0.0279509
0.0390867
0.0500716
0.0600506
0.0681668
0.0736282
0.0757997
0.0743711
0.0692921
0.0595283
0.0445404
0.0251786
0.00715139
-0.00380032
-0.00905532
-0.0105102
-0.00849794
-0.00335475
0.0044315
0.0143154
0.025681
0.0378158
0.0499052
0.06105
0.070305
0.0767366
0.079519
0.0781412
0.0723361
0.0605421
0.0418935
0.0210944
-0.000260892
-0.0129327
-0.0187073
-0.0200277
-0.0174117
-0.0113161
-0.00231738
0.00899276
0.0219785
0.0359119
0.0499466
0.0631143
0.0743474
0.0825241
0.0865718
0.0857232
0.0794498
0.0656234
0.0430752
0.0111441
-0.0136165
-0.027873
-0.033852
-0.0346011
-0.030855
-0.0232103
-0.0123426
0.00110752
0.0164866
0.0330552
0.0499362
0.0660859
0.0802923
0.0912031
0.0974325
0.0978729
0.0916388
0.0758993
0.04912
-0.00596528
-0.0342643
-0.0498677
-0.0555461
-0.0550874
-0.0495118
-0.0395906
-0.0261103
-0.00975406
0.00882608
0.0289041
0.0495965
0.0698004
0.0881573
0.10305
0.112704
0.115553
0.110195
0.0928373
0.0614148
-0.0318545
-0.0638735
-0.0804142
-0.0850043
-0.0824171
-0.0740752
-0.0609776
-0.0440333
-0.0239481
-0.00133345
0.023149
0.0486644
0.0740989
0.0979754
0.118399
0.133129
0.139991
0.136821
0.118444
0.0819369
-0.0686639
-0.1046
-0.121341
-0.123587
-0.117512
-0.105123
-0.0877147
-0.0663218
-0.0416333
-0.0141518
0.0156094
0.046957
0.0788594
0.109797
0.137627
0.159589
0.17273
0.173781
0.155523
0.113574
-0.119398
-0.159353
-0.174911
-0.172753
-0.161144
-0.142925
-0.119755
-0.092773
-0.0625733
-0.0294435
0.00637721
0.0444775
0.0840591
0.123707
0.16114
0.193089
0.215671
0.22408
0.208053
0.160635
-0.188623
-0.232238
-0.243935
-0.233944
-0.213691
-0.187151
-0.156368
-0.122497
-0.0858935
-0.0464677
-0.00401005
0.0415431
0.0898463
0.139833
0.189323
0.234693
0.271078
0.291667
0.281745
0.229778
-0.283969
-0.3293
-0.331827
-0.308276
-0.274705
-0.236436
-0.19576
-0.153606
-0.109835
-0.0637404
-0.0144331
0.0388681
0.0965587
0.158281
0.222378
0.285292
0.341401
0.381578
0.384917
0.331836
-0.419313
-0.459666
-0.442346
-0.395788
-0.342125
-0.287735
-0.234611
-0.182925
-0.131604
-0.0789798
-0.0232088
0.0374804
0.104558
0.178842
0.259865
0.344974
0.42862
0.499703
0.529678
0.485394
-0.620526
-0.636739
-0.578672
-0.494189
-0.411236
-0.335654
-0.267776
-0.205973
-0.147531
-0.0893776
-0.0284206
0.0383537
0.113812
0.200476
0.29998
0.412029
0.533033
0.651779
0.732775
0.722398
-0.935918
-0.87851
-0.741737
-0.597944
-0.474389
-0.372655
-0.288864
-0.217758
-0.153948
-0.0924585
-0.0287117
0.0417013
0.123269
0.220723
0.338931
0.482159
0.652001
0.841345
1.01527
1.09751
-1.47642
-1.20663
-0.920499
-0.691384
-0.517301
-0.38754
-0.290057
-0.213333
-0.148119
-0.0872102
-0.0245721
0.0454631
0.128943
0.233076
0.367108
0.542683
0.771297
1.05932
1.40329
1.73014
-2.53964
-1.63054
-1.04443
-0.710955
-0.495747
-0.35209
-0.254527
-0.183579
-0.126165
-0.07359
-0.0192637
0.0427925
0.119218
0.218788
0.354817
0.547989
0.826397
1.23658
1.91168
2.9242
-4.36666
-2.04463
-0.973539
-0.563178
-0.357844
-0.240144
-0.170116
-0.123779
-0.087477
-0.0535054
-0.0166491
0.0276664
0.0846134
0.161736
0.272417
0.442104
0.718224
1.22571
2.41104
4.84854
)
;

boundaryField
{
    movingWall
    {
        type            zeroGradient;
    }
    fixedWalls
    {
        type            zeroGradient;
    }
    frontAndBack
    {
        type            empty;
    }
}


// ************************************************************************* //
