/*--------------------------------*- C++ -*----------------------------------*\
  =========                 |
  \\      /  F ield         | OpenFOAM: The Open Source CFD Toolbox
   \\    /   O peration     | Website:  https://openfoam.org
    \\  /    A nd           | Version:  8
     \\/     M anipulation  |
\*---------------------------------------------------------------------------*/
FoamFile
{
    version     2.0;
    format      ascii;
    class       surfaceScalarField;
    location    "0.385";
    object      phi;
}
// * * * * * * * * * * * * * * * * * * * * * * * * * * * * * * * * * * * * * //

dimensions      [0 3 -1 0 0 0 0];

internalField   nonuniform List<scalar> 
760
(
1.42319e-08
-1.42676e-08
-2.2211e-08
3.64429e-08
-1.14271e-07
9.20599e-08
-2.45496e-07
1.31225e-07
-3.96102e-07
1.50606e-07
-5.47371e-07
1.51269e-07
-6.83196e-07
1.35825e-07
-7.90668e-07
1.07472e-07
-8.60212e-07
6.95441e-08
-8.85645e-07
2.54335e-08
-8.64323e-07
-2.13219e-08
-7.97392e-07
-6.69318e-08
-6.90088e-07
-1.07304e-07
-5.51975e-07
-1.38113e-07
-3.96945e-07
-1.5503e-07
-2.42751e-07
-1.54195e-07
-1.09734e-07
-1.33016e-07
-1.84165e-08
-9.13174e-08
1.56896e-08
-3.41061e-08
1.56895e-08
-3.4216e-08
1.99484e-08
-1.80378e-07
1.82604e-07
-4.33997e-07
3.45679e-07
-7.64449e-07
4.61677e-07
-1.13223e-06
5.18391e-07
-1.49727e-06
5.16308e-07
-1.82337e-06
4.61925e-07
-2.08058e-06
3.64675e-07
-2.24632e-06
2.35285e-07
-2.30608e-06
8.51983e-08
-2.25394e-06
-7.34633e-08
-2.09309e-06
-2.27787e-07
-1.83629e-06
-3.64098e-07
-1.50607e-06
-4.68339e-07
-1.1341e-06
-5.26997e-07
-7.59533e-07
-5.28761e-07
-4.25407e-07
-4.67143e-07
-1.72695e-07
-3.44029e-07
-3.08026e-08
-1.75998e-07
-1.51131e-08
-9.223e-08
1.12178e-07
-3.57004e-07
4.47378e-07
-7.64572e-07
7.53248e-07
-1.26851e-06
9.65614e-07
-1.81473e-06
1.06461e-06
-2.34908e-06
1.05066e-06
-2.82248e-06
9.3532e-07
-3.19399e-06
7.36188e-07
-3.43266e-06
4.73955e-07
-3.51857e-06
1.71101e-07
-3.44362e-06
-1.48405e-07
-3.2123e-06
-4.59108e-07
-2.84215e-06
-7.34256e-07
-2.36383e-06
-9.46649e-07
-1.82034e-06
-1.07049e-06
-1.2645e-06
-1.0846e-06
-7.54532e-07
-9.77114e-07
-3.46975e-07
-7.51586e-07
-8.73372e-08
-4.35636e-07
-1.0245e-07
-1.45213e-07
2.57391e-07
-5.25469e-07
8.27633e-07
-1.08165e-06
1.30943e-06
-1.74753e-06
1.6315e-06
-2.45436e-06
1.77144e-06
-3.13641e-06
1.73271e-06
-3.73533e-06
1.53424e-06
-4.20295e-06
1.20381e-06
-4.50297e-06
7.73969e-07
-4.61198e-06
2.8011e-07
-4.5203e-06
-2.40077e-07
-4.23278e-06
-7.46635e-07
-3.7694e-06
-1.19763e-06
-3.16567e-06
-1.55039e-06
-2.4719e-06
-1.76426e-06
-1.75108e-06
-1.80541e-06
-1.07452e-06
-1.65368e-06
-5.15143e-07
-1.31096e-06
-1.39317e-07
-8.11462e-07
-2.41767e-07
-1.93612e-07
4.51003e-07
-6.85007e-07
1.31903e-06
-1.38563e-06
2.01005e-06
-2.20726e-06
2.45312e-06
-3.06549e-06
2.62967e-06
-3.8838e-06
2.55103e-06
-4.59653e-06
2.24697e-06
-5.15062e-06
1.75789e-06
-5.50648e-06
1.12983e-06
-5.63856e-06
4.12186e-07
-5.53579e-06
-3.42848e-07
-5.2024e-06
-1.08002e-06
-4.6589e-06
-1.74113e-06
-3.94297e-06
-2.26632e-06
-3.10972e-06
-2.59752e-06
-2.23051e-06
-2.68462e-06
-1.38964e-06
-2.49454e-06
-6.78502e-07
-2.0221e-06
-1.87769e-07
-1.3022e-06
-4.29535e-07
-2.39942e-07
6.90945e-07
-8.40354e-07
1.91944e-06
-1.6833e-06
2.85299e-06
-2.65707e-06
3.4269e-06
-3.66085e-06
3.63345e-06
-4.60779e-06
3.49797e-06
-5.42638e-06
3.06556e-06
-6.0606e-06
2.39211e-06
-6.46939e-06
1.53862e-06
-6.62608e-06
5.68882e-07
-6.51835e-06
-4.50581e-07
-6.14883e-06
-1.44954e-06
-5.53657e-06
-2.35339e-06
-4.71894e-06
-3.08394e-06
-3.75347e-06
-3.56299e-06
-2.71849e-06
-3.71961e-06
-1.71154e-06
-3.50149e-06
-8.44665e-07
-2.88898e-06
-2.3618e-07
-1.91068e-06
-6.65715e-07
-2.86747e-07
9.77692e-07
-9.97092e-07
2.62978e-06
-1.98209e-06
3.838e-06
-3.10496e-06
4.54977e-06
-4.24798e-06
4.77647e-06
-5.31484e-06
4.56483e-06
-6.23015e-06
3.98086e-06
-6.93721e-06
3.09917e-06
-7.39552e-06
1.99694e-06
-7.57866e-06
7.52018e-07
-7.4732e-06
-5.56043e-07
-7.07915e-06
-1.84359e-06
-6.41191e-06
-3.02062e-06
-5.50561e-06
-3.99024e-06
-4.41708e-06
-4.65151e-06
-3.22939e-06
-4.9073e-06
-2.05296e-06
-4.67791e-06
-1.02254e-06
-3.9194e-06
-2.88283e-07
-2.64494e-06
-9.53998e-07
-3.36333e-07
1.31402e-06
-1.16038e-06
3.45383e-06
-2.28803e-06
4.96565e-06
-3.55501e-06
5.81675e-06
-4.82664e-06
6.0481e-06
-5.99909e-06
5.73728e-06
-6.99606e-06
4.97783e-06
-7.76355e-06
3.86666e-06
-8.26452e-06
2.49791e-06
-8.47465e-06
9.62147e-07
-8.37999e-06
-6.50695e-07
-7.97693e-06
-2.24666e-06
-7.27461e-06
-3.72294e-06
-6.29998e-06
-4.96487e-06
-5.1047e-06
-5.8468e-06
-3.77255e-06
-6.23945e-06
-2.4249e-06
-6.02556e-06
-1.22075e-06
-5.12355e-06
-3.47709e-07
-3.51798e-06
-1.30171e-06
-3.90959e-07
1.70498e-06
-1.33489e-06
4.39776e-06
-2.60499e-06
6.23574e-06
-4.00596e-06
7.21772e-06
-5.38683e-06
7.42897e-06
-6.63977e-06
6.99022e-06
-7.69246e-06
6.03052e-06
-8.49849e-06
4.6727e-06
-9.02844e-06
3.02785e-06
-9.26295e-06
1.19665e-06
-9.18867e-06
-7.24967e-07
-8.79751e-06
-2.63783e-06
-8.08939e-06
-4.43106e-06
-7.07904e-06
-5.97521e-06
-5.80634e-06
-7.1195e-06
-4.34906e-06
-7.69673e-06
-2.83482e-06
-7.5398e-06
-1.4471e-06
-6.51127e-06
-4.181e-07
-4.54698e-06
-1.71981e-06
-4.53454e-07
2.15844e-06
-1.52569e-06
5.46999e-06
-2.93489e-06
7.64494e-06
-4.45012e-06
8.73296e-06
-5.90634e-06
8.88519e-06
-7.19783e-06
8.28172e-06
-8.26368e-06
7.09637e-06
-9.0721e-06
5.48111e-06
-9.6069e-06
3.56266e-06
-9.85763e-06
1.44738e-06
-9.81346e-06
-7.69139e-07
-9.46141e-06
-2.98987e-06
-8.78914e-06
-5.10333e-06
-7.79303e-06
-6.97132e-06
-6.49223e-06
-8.42029e-06
-4.94798e-06
-9.24098e-06
-3.28512e-06
-9.20266e-06
-1.70868e-06
-8.08771e-06
-5.03588e-07
-5.75207e-06
-2.22339e-06
-5.28335e-07
2.68677e-06
-1.73966e-06
6.68131e-06
-3.27797e-06
9.18325e-06
-4.87162e-06
1.03266e-05
-6.34701e-06
1.03606e-05
-7.61082e-06
9.54553e-06
-8.62435e-06
8.1099e-06
-9.37968e-06
6.23644e-06
-9.88099e-06
4.06397e-06
-1.01315e-05
1.69792e-06
-1.01258e-05
-7.74887e-07
-9.84633e-06
-3.26932e-06
-9.26599e-06
-5.68368e-06
-8.35633e-06
-7.88098e-06
-7.10469e-06
-9.67193e-06
-5.5407e-06
-1.0805e-05
-3.7707e-06
-1.09727e-05
-2.01217e-06
-9.84625e-06
-6.09688e-07
-7.15455e-06
-2.83308e-06
-6.23664e-07
3.31044e-06
-1.98738e-06
8.04503e-06
-3.6319e-06
1.08278e-05
-5.24191e-06
1.19366e-05
-6.64755e-06
1.17662e-05
-7.78446e-06
1.06824e-05
-8.65099e-06
8.97644e-06
-9.27429e-06
6.85973e-06
-9.68652e-06
4.4762e-06
-9.9098e-06
1.9212e-06
-9.94722e-06
-7.37468e-07
-9.77857e-06
-3.43797e-06
-9.36088e-06
-6.10137e-06
-8.63561e-06
-8.60625e-06
-7.54638e-06
-1.07612e-05
-6.07158e-06
-1.22798e-05
-4.27426e-06
-1.277e-05
-2.36365e-06
-1.17569e-05
-7.44776e-07
-8.77342e-06
-3.57786e-06
-7.54073e-07
4.06451e-06
-2.28434e-06
9.57529e-06
-3.98699e-06
1.25304e-05
-5.50907e-06
1.34587e-05
-6.70958e-06
1.29667e-05
-7.57853e-06
1.15514e-05
-8.17003e-06
9.56793e-06
-8.5576e-06
7.2473e-06
-8.8077e-06
4.7263e-06
-8.96503e-06
2.07853e-06
-9.04435e-06
-6.58147e-07
-9.02573e-06
-3.45658e-06
-8.85258e-06
-6.27452e-06
-8.43481e-06
-9.02402e-06
-7.6629e-06
-1.15331e-05
-6.442e-06
-1.35007e-05
-4.75625e-06
-1.44557e-05
-2.76675e-06
-1.37464e-05
-9.22434e-07
-1.06177e-05
-4.50029e-06
-9.45202e-07
5.00971e-06
-2.64848e-06
1.12786e-05
-4.31097e-06
1.41929e-05
-5.57326e-06
1.4721e-05
-6.37064e-06
1.37641e-05
-6.78322e-06
1.1964e-05
-6.94043e-06
9.72514e-06
-6.96965e-06
7.27653e-06
-6.97269e-06
4.72934e-06
-7.01641e-06
2.12225e-06
-7.12851e-06
-5.46043e-07
-7.29368e-06
-3.29142e-06
-7.44856e-06
-6.11963e-06
-7.47783e-06
-8.99476e-06
-7.21789e-06
-1.1793e-05
-6.48272e-06
-1.42358e-05
-5.13342e-06
-1.5805e-05
-3.21497e-06
-1.56648e-05
-1.16438e-06
-1.26683e-05
-5.66468e-06
-1.23731e-06
6.24702e-06
-3.08328e-06
1.31245e-05
-4.50768e-06
1.56173e-05
-5.23444e-06
1.54478e-05
-5.35516e-06
1.38848e-05
-5.08175e-06
1.16906e-05
-4.6308e-06
9.27419e-06
-4.17915e-06
6.82488e-06
-3.85424e-06
4.40443e-06
-3.7369e-06
2.00491e-06
-3.86501e-06
-4.17934e-07
-4.23253e-06
-2.9239e-06
-4.78199e-06
-5.57018e-06
-5.39099e-06
-8.38575e-06
-5.85843e-06
-1.13256e-05
-5.90653e-06
-1.41877e-05
-5.23279e-06
-1.64788e-05
-3.66626e-06
-1.72314e-05
-1.50008e-06
-1.48345e-05
-7.16475e-06
-1.6738e-06
7.92082e-06
-3.51335e-06
1.49641e-05
-4.31527e-06
1.64192e-05
-4.08883e-06
1.52213e-05
-3.19299e-06
1.2989e-05
-1.99866e-06
1.04962e-05
-7.9505e-07
8.07058e-06
2.19441e-07
5.81039e-06
9.18344e-07
3.70553e-06
1.22572e-06
1.69754e-06
1.10217e-06
-2.9439e-07
5.41165e-07
-2.36289e-06
-4.22837e-07
-4.60618e-06
-1.69249e-06
-7.1161e-06
-3.07235e-06
-9.94571e-06
-4.23078e-06
-1.30293e-05
-4.69562e-06
-1.60139e-05
-3.96717e-06
-1.79598e-05
-1.94492e-06
-1.68568e-05
-9.10967e-06
-2.23068e-06
1.01515e-05
-3.59028e-06
1.63237e-05
-3.07776e-06
1.59067e-05
-1.34384e-06
1.34874e-05
8.97086e-07
1.07481e-05
3.15503e-06
8.23829e-06
5.13819e-06
6.08742e-06
6.68878e-06
4.2598e-06
7.72593e-06
2.66838e-06
8.20665e-06
1.21681e-06
8.10398e-06
-1.91723e-07
7.39912e-06
-1.65803e-06
6.08694e-06
-3.29399e-06
4.19925e-06
-5.22841e-06
1.8542e-06
-7.60066e-06
-6.61678e-07
-1.05134e-05
-2.79215e-06
-1.38834e-05
-3.66208e-06
-1.70899e-05
-2.41154e-06
-1.81073e-05
-1.15212e-05
-2.57381e-06
1.27253e-05
-2.18345e-06
1.59333e-05
7.18083e-07
1.30052e-05
4.46959e-06
9.73589e-06
8.13332e-06
7.08432e-06
1.13016e-05
5.07e-06
1.38291e-05
3.55989e-06
1.56882e-05
2.40079e-06
1.68917e-05
1.4648e-06
1.74549e-05
6.53604e-07
1.73764e-05
-1.13203e-07
1.66306e-05
-9.12158e-07
1.51672e-05
-1.83067e-06
1.29236e-05
-2.98474e-06
9.86179e-06
-4.53889e-06
6.06199e-06
-6.71364e-06
1.91236e-06
-9.7338e-06
-1.55962e-06
-1.36179e-05
-2.45834e-06
-1.72086e-05
-1.39795e-05
-7.85013e-07
1.35103e-05
4.08079e-06
1.10675e-05
1.02976e-05
6.78843e-06
1.57936e-05
4.2398e-06
2.0158e-05
2.71991e-06
2.34581e-05
1.76995e-06
2.58608e-05
1.15714e-06
2.75216e-05
7.40055e-07
2.85541e-05
4.32294e-07
2.90265e-05
1.81221e-07
2.89623e-05
-4.89826e-08
2.83388e-05
-2.88701e-07
2.70819e-05
-5.73742e-07
2.50551e-05
-9.57958e-07
2.20517e-05
-1.53552e-06
1.78155e-05
-2.47742e-06
1.21724e-05
-4.09068e-06
5.47772e-06
-6.92324e-06
-1.29169e-07
-1.16017e-05
-1.41087e-05
1.35103e-05
2.45779e-05
3.13663e-05
3.56061e-05
3.8326e-05
4.00959e-05
4.12531e-05
4.19931e-05
4.24254e-05
4.26066e-05
4.25577e-05
4.2269e-05
4.16952e-05
4.07373e-05
3.92017e-05
3.67243e-05
3.26336e-05
2.57104e-05
1.41087e-05
)
;

boundaryField
{
    movingWall
    {
        type            calculated;
        value           uniform 0;
    }
    fixedWalls
    {
        type            calculated;
        value           uniform 0;
    }
    frontAndBack
    {
        type            empty;
        value           nonuniform List<scalar> 0();
    }
}


// ************************************************************************* //
