/*--------------------------------*- C++ -*----------------------------------*\
  =========                 |
  \\      /  F ield         | OpenFOAM: The Open Source CFD Toolbox
   \\    /   O peration     | Website:  https://openfoam.org
    \\  /    A nd           | Version:  8
     \\/     M anipulation  |
\*---------------------------------------------------------------------------*/
FoamFile
{
    version     2.0;
    format      ascii;
    class       volScalarField;
    location    "1.19";
    object      p;
}
// * * * * * * * * * * * * * * * * * * * * * * * * * * * * * * * * * * * * * //

dimensions      [0 2 -2 0 0 0 0];

internalField   nonuniform List<scalar> 
400
(
1.15104e-15
5.4776e-12
-5.08791e-12
-3.24251e-11
-7.73233e-11
-1.39018e-10
-2.12057e-10
-2.9052e-10
-3.66531e-10
-4.31267e-10
-4.74917e-10
-4.90188e-10
-4.76764e-10
-4.38148e-10
-3.80643e-10
-3.08656e-10
-2.2908e-10
-1.48709e-10
-7.92824e-11
-2.94536e-11
-6.31645e-11
-4.93944e-11
-5.12295e-11
-6.63076e-11
-9.4707e-11
-1.35886e-10
-1.89458e-10
-2.49134e-10
-3.10773e-10
-3.67209e-10
-4.08978e-10
-4.2923e-10
-4.25925e-10
-4.03778e-10
-3.65101e-10
-3.14791e-10
-2.5531e-10
-1.94073e-10
-1.3624e-10
-9.04244e-11
-1.13962e-10
-9.20422e-11
-8.23909e-11
-8.33389e-11
-9.43723e-11
-1.20519e-10
-1.58377e-10
-2.06178e-10
-2.59511e-10
-3.13523e-10
-3.589e-10
-3.87037e-10
-3.97325e-10
-3.90329e-10
-3.70598e-10
-3.37128e-10
-2.94483e-10
-2.44662e-10
-1.94905e-10
-1.49082e-10
-1.50147e-10
-1.18523e-10
-9.77379e-11
-8.53946e-11
-8.66917e-11
-1.01432e-10
-1.32074e-10
-1.73469e-10
-2.24384e-10
-2.79018e-10
-3.28324e-10
-3.65187e-10
-3.85832e-10
-3.93268e-10
-3.85761e-10
-3.66074e-10
-3.31979e-10
-2.88617e-10
-2.39017e-10
-1.91112e-10
-1.66548e-10
-1.30538e-10
-1.01445e-10
-8.44568e-11
-7.9441e-11
-9.24981e-11
-1.20362e-10
-1.61249e-10
-2.1064e-10
-2.65001e-10
-3.1649e-10
-3.57745e-10
-3.87038e-10
-4.01469e-10
-4.02864e-10
-3.87518e-10
-3.58252e-10
-3.14368e-10
-2.63061e-10
-2.11792e-10
-1.64501e-10
-1.274e-10
-9.98458e-11
-8.28511e-11
-8.22997e-11
-9.79698e-11
-1.3002e-10
-1.71394e-10
-2.20645e-10
-2.73212e-10
-3.2339e-10
-3.65992e-10
-3.96029e-10
-4.12615e-10
-4.11933e-10
-3.96023e-10
-3.62746e-10
-3.17209e-10
-2.62833e-10
-2.09951e-10
-1.48461e-10
-1.15954e-10
-9.35029e-11
-8.5437e-11
-9.26452e-11
-1.17812e-10
-1.54688e-10
-1.99993e-10
-2.49252e-10
-2.99895e-10
-3.46669e-10
-3.84414e-10
-4.09734e-10
-4.18205e-10
-4.10637e-10
-3.85299e-10
-3.46409e-10
-2.96069e-10
-2.42118e-10
-1.9093e-10
-1.24335e-10
-9.8158e-11
-8.58004e-11
-8.82963e-11
-1.08656e-10
-1.4315e-10
-1.88316e-10
-2.3773e-10
-2.88997e-10
-3.37147e-10
-3.77985e-10
-4.07195e-10
-4.20255e-10
-4.16414e-10
-3.95212e-10
-3.60075e-10
-3.12365e-10
-2.59653e-10
-2.07144e-10
-1.61047e-10
-9.61039e-11
-7.84357e-11
-7.62328e-11
-9.22531e-11
-1.24477e-10
-1.70048e-10
-2.22113e-10
-2.77024e-10
-3.29119e-10
-3.74131e-10
-4.07309e-10
-4.24856e-10
-4.24066e-10
-4.04712e-10
-3.71169e-10
-3.25252e-10
-2.71932e-10
-2.16644e-10
-1.67298e-10
-1.26318e-10
-7.0135e-11
-6.12008e-11
-6.99821e-11
-9.70601e-11
-1.402e-10
-1.93242e-10
-2.51394e-10
-3.08551e-10
-3.59926e-10
-3.99502e-10
-4.24084e-10
-4.30336e-10
-4.1643e-10
-3.85242e-10
-3.41533e-10
-2.89672e-10
-2.32361e-10
-1.77245e-10
-1.29802e-10
-9.37482e-11
-5.31005e-11
-5.28847e-11
-7.04415e-11
-1.05478e-10
-1.54084e-10
-2.11182e-10
-2.70289e-10
-3.26517e-10
-3.72991e-10
-4.0575e-10
-4.21645e-10
-4.18868e-10
-3.96439e-10
-3.58246e-10
-3.10593e-10
-2.56532e-10
-2.00013e-10
-1.46212e-10
-1.01709e-10
-6.97118e-11
-5.01652e-11
-5.73365e-11
-8.00734e-11
-1.17531e-10
-1.66423e-10
-2.2137e-10
-2.77173e-10
-3.27204e-10
-3.6648e-10
-3.90808e-10
-3.99769e-10
-3.91237e-10
-3.65535e-10
-3.26524e-10
-2.79834e-10
-2.2885e-10
-1.76208e-10
-1.27472e-10
-8.68267e-11
-6.02706e-11
-6.44201e-11
-7.53343e-11
-9.88252e-11
-1.33341e-10
-1.76766e-10
-2.24854e-10
-2.72086e-10
-3.13423e-10
-3.43044e-10
-3.60026e-10
-3.63215e-10
-3.52735e-10
-3.27952e-10
-2.92833e-10
-2.51552e-10
-2.07002e-10
-1.62705e-10
-1.21817e-10
-8.88266e-11
-6.79825e-11
-9.38491e-11
-1.05686e-10
-1.24957e-10
-1.52483e-10
-1.86406e-10
-2.23485e-10
-2.5995e-10
-2.90164e-10
-3.11211e-10
-3.20853e-10
-3.20725e-10
-3.09489e-10
-2.88673e-10
-2.59915e-10
-2.26665e-10
-1.91844e-10
-1.58626e-10
-1.29882e-10
-1.06305e-10
-9.33758e-11
-1.32757e-10
-1.41779e-10
-1.55036e-10
-1.72918e-10
-1.95777e-10
-2.20956e-10
-2.4534e-10
-2.65907e-10
-2.78457e-10
-2.83382e-10
-2.79556e-10
-2.69118e-10
-2.52063e-10
-2.3085e-10
-2.06508e-10
-1.8242e-10
-1.6239e-10
-1.46192e-10
-1.34177e-10
-1.28648e-10
-1.67274e-10
-1.74165e-10
-1.8041e-10
-1.90212e-10
-2.032e-10
-2.17952e-10
-2.33013e-10
-2.45166e-10
-2.53077e-10
-2.53792e-10
-2.488e-10
-2.38155e-10
-2.25401e-10
-2.10216e-10
-1.93795e-10
-1.79042e-10
-1.6928e-10
-1.64177e-10
-1.60751e-10
-1.62408e-10
-1.86332e-10
-1.89966e-10
-1.93167e-10
-1.97905e-10
-2.0523e-10
-2.13763e-10
-2.22742e-10
-2.3168e-10
-2.37431e-10
-2.38951e-10
-2.33791e-10
-2.25357e-10
-2.14954e-10
-2.04018e-10
-1.91723e-10
-1.81674e-10
-1.77219e-10
-1.76561e-10
-1.78201e-10
-1.80962e-10
-1.82672e-10
-1.84745e-10
-1.87598e-10
-1.92751e-10
-1.98833e-10
-2.05924e-10
-2.14746e-10
-2.24839e-10
-2.35101e-10
-2.4058e-10
-2.40076e-10
-2.33614e-10
-2.25145e-10
-2.14213e-10
-2.01666e-10
-1.90743e-10
-1.84414e-10
-1.81855e-10
-1.80689e-10
-1.8147e-10
-1.59636e-10
-1.58928e-10
-1.63196e-10
-1.70397e-10
-1.79545e-10
-1.90772e-10
-2.05419e-10
-2.24384e-10
-2.44152e-10
-2.59656e-10
-2.65463e-10
-2.62873e-10
-2.54131e-10
-2.41276e-10
-2.24524e-10
-2.0738e-10
-1.92973e-10
-1.80829e-10
-1.70786e-10
-1.63121e-10
-1.26412e-10
-1.23031e-10
-1.2619e-10
-1.34665e-10
-1.47933e-10
-1.66612e-10
-1.92039e-10
-2.23654e-10
-2.57172e-10
-2.84297e-10
-2.99233e-10
-3.00834e-10
-2.92667e-10
-2.77001e-10
-2.55611e-10
-2.30706e-10
-2.04739e-10
-1.79309e-10
-1.56319e-10
-1.3841e-10
)
;

boundaryField
{
    movingWall
    {
        type            zeroGradient;
    }
    fixedWalls
    {
        type            zeroGradient;
    }
    left
    {
        type            cyclic;
    }
    right
    {
        type            cyclic;
    }
    frontAndBack
    {
        type            empty;
    }
}


// ************************************************************************* //
