/*--------------------------------*- C++ -*----------------------------------*\
  =========                 |
  \\      /  F ield         | OpenFOAM: The Open Source CFD Toolbox
   \\    /   O peration     | Website:  https://openfoam.org
    \\  /    A nd           | Version:  8
     \\/     M anipulation  |
\*---------------------------------------------------------------------------*/
FoamFile
{
    version     2.0;
    format      ascii;
    class       volVectorField;
    location    "1.19";
    object      U;
}
// * * * * * * * * * * * * * * * * * * * * * * * * * * * * * * * * * * * * * //

dimensions      [0 1 -1 0 0 0 0];

internalField   nonuniform List<vector> 
400
(
(0.0249868 -2.89405e-12 0)
(0.0249868 -3.42126e-12 0)
(0.0249868 -3.92163e-12 0)
(0.0249868 -3.92609e-12 0)
(0.0249868 -3.33108e-12 0)
(0.0249868 -2.60808e-12 0)
(0.0249868 -1.4616e-12 0)
(0.0249868 -1.00146e-13 0)
(0.0249868 1.41299e-12 0)
(0.0249868 2.81933e-12 0)
(0.0249868 3.88429e-12 0)
(0.0249868 4.53084e-12 0)
(0.0249868 4.58816e-12 0)
(0.0249868 4.30818e-12 0)
(0.0249868 3.53601e-12 0)
(0.0249868 2.60665e-12 0)
(0.0249868 1.33158e-12 0)
(0.0249868 -9.69855e-15 0)
(0.0249868 -1.57929e-12 0)
(0.0249868 -2.34239e-12 0)
(0.0749609 -3.80219e-11 0)
(0.0749609 -3.58737e-11 0)
(0.0749609 -3.11975e-11 0)
(0.0749609 -2.30132e-11 0)
(0.0749609 -1.29108e-11 0)
(0.0749609 -1.31525e-12 0)
(0.0749609 1.03657e-11 0)
(0.0749609 2.13514e-11 0)
(0.0749609 3.03716e-11 0)
(0.0749609 3.65051e-11 0)
(0.0749609 3.89836e-11 0)
(0.0749609 3.73536e-11 0)
(0.0749609 3.19241e-11 0)
(0.0749609 2.31569e-11 0)
(0.0749609 1.2314e-11 0)
(0.0749609 2.62742e-13 0)
(0.0749609 -1.15363e-11 0)
(0.0749609 -2.22107e-11 0)
(0.0749609 -3.0878e-11 0)
(0.0749609 -3.59109e-11 0)
(0.124936 -1.21726e-10 0)
(0.124936 -1.10677e-10 0)
(0.124936 -8.84414e-11 0)
(0.124936 -5.7636e-11 0)
(0.124936 -2.12393e-11 0)
(0.124936 1.71442e-11 0)
(0.124936 5.40473e-11 0)
(0.124936 8.58821e-11 0)
(0.124936 1.0961e-10 0)
(0.124936 1.22705e-10 0)
(0.124936 1.23656e-10 0)
(0.124936 1.12179e-10 0)
(0.124936 8.92897e-11 0)
(0.124936 5.75325e-11 0)
(0.124936 2.01076e-11 0)
(0.124936 -1.89043e-11 0)
(0.124936 -5.58286e-11 0)
(0.124936 -8.70022e-11 0)
(0.124936 -1.09711e-10 0)
(0.124936 -1.22028e-10 0)
(0.174913 -2.42888e-10 0)
(0.174913 -2.13595e-10 0)
(0.174913 -1.63223e-10 0)
(0.174913 -9.70726e-11 0)
(0.174913 -2.13315e-11 0)
(0.174913 5.64841e-11 0)
(0.174913 1.28763e-10 0)
(0.174913 1.88713e-10 0)
(0.174913 2.30467e-10 0)
(0.174913 2.49886e-10 0)
(0.174913 2.44717e-10 0)
(0.174913 2.15179e-10 0)
(0.174913 1.64126e-10 0)
(0.174913 9.6741e-11 0)
(0.174913 2.00184e-11 0)
(0.174913 -5.83443e-11 0)
(0.174913 -1.30451e-10 0)
(0.174913 -1.89637e-10 0)
(0.174913 -2.3012e-10 0)
(0.174913 -2.48514e-10 0)
(0.224891 -3.72908e-10 0)
(0.224891 -3.21596e-10 0)
(0.224891 -2.38539e-10 0)
(0.224891 -1.31994e-10 0)
(0.224891 -1.24783e-11 0)
(0.224891 1.08087e-10 0)
(0.224891 2.17986e-10 0)
(0.224891 3.06712e-10 0)
(0.224891 3.65742e-10 0)
(0.224891 3.89181e-10 0)
(0.224891 3.74431e-10 0)
(0.224891 3.22591e-10 0)
(0.224891 2.38772e-10 0)
(0.224891 1.31381e-10 0)
(0.224891 1.13065e-11 0)
(0.224891 -1.09509e-10 0)
(0.224891 -2.19152e-10 0)
(0.224891 -3.07212e-10 0)
(0.224891 -3.65294e-10 0)
(0.224891 -3.88017e-10 0)
(0.274873 -4.80732e-10 0)
(0.274873 -4.08506e-10 0)
(0.274873 -2.9615e-10 0)
(0.274873 -1.5457e-10 0)
(0.274873 2.13802e-12 0)
(0.274873 1.58363e-10 0)
(0.274873 2.99002e-10 0)
(0.274873 4.10382e-10 0)
(0.274873 4.81804e-10 0)
(0.274873 5.06267e-10 0)
(0.274873 4.81075e-10 0)
(0.274873 4.08534e-10 0)
(0.274873 2.95699e-10 0)
(0.274873 1.5393e-10 0)
(0.274873 -2.81194e-12 0)
(0.274873 -1.58887e-10 0)
(0.274873 -2.99214e-10 0)
(0.274873 -4.10222e-10 0)
(0.274873 -4.81415e-10 0)
(0.274873 -5.05684e-10 0)
(0.324858 -5.37611e-10 0)
(0.324858 -4.51241e-10 0)
(0.324858 -3.20634e-10 0)
(0.324858 -1.58292e-10 0)
(0.324858 1.93061e-11 0)
(0.324858 1.949e-10 0)
(0.324858 3.51211e-10 0)
(0.324858 4.73099e-10 0)
(0.324858 5.4875e-10 0)
(0.324858 5.70811e-10 0)
(0.324858 5.36969e-10 0)
(0.324858 4.50384e-10 0)
(0.324858 3.19738e-10 0)
(0.324858 1.57828e-10 0)
(0.324858 -1.93057e-11 0)
(0.324858 -1.94451e-10 0)
(0.324858 -3.50454e-10 0)
(0.324858 -4.72394e-10 0)
(0.324858 -5.48477e-10 0)
(0.324858 -5.70991e-10 0)
(0.374846 -5.2695e-10 0)
(0.374846 -4.36033e-10 0)
(0.374846 -3.02212e-10 0)
(0.374846 -1.38844e-10 0)
(0.374846 3.80958e-11 0)
(0.374846 2.11135e-10 0)
(0.374846 3.63503e-10 0)
(0.374846 4.80125e-10 0)
(0.374846 5.49768e-10 0)
(0.374846 5.65594e-10 0)
(0.374846 5.25954e-10 0)
(0.374846 4.3483e-10 0)
(0.374846 3.01241e-10 0)
(0.374846 1.38495e-10 0)
(0.374846 -3.77338e-11 0)
(0.374846 -2.10142e-10 0)
(0.374846 -3.62236e-10 0)
(0.374846 -4.79115e-10 0)
(0.374846 -5.49491e-10 0)
(0.374846 -5.66046e-10 0)
(0.424838 -4.47973e-10 0)
(0.424838 -3.61708e-10 0)
(0.424838 -2.40078e-10 0)
(0.424838 -9.4965e-11 0)
(0.424838 5.93505e-11 0)
(0.424838 2.08016e-10 0)
(0.424838 3.36341e-10 0)
(0.424838 4.31707e-10 0)
(0.424838 4.84691e-10 0)
(0.424838 4.90064e-10 0)
(0.424838 4.47296e-10 0)
(0.424838 3.60693e-10 0)
(0.424838 2.39095e-10 0)
(0.424838 9.43855e-11 0)
(0.424838 -5.92798e-11 0)
(0.424838 -2.07249e-10 0)
(0.424838 -3.35158e-10 0)
(0.424838 -4.30679e-10 0)
(0.424838 -4.84195e-10 0)
(0.424838 -4.90196e-10 0)
(0.474833 -3.14945e-10 0)
(0.474833 -2.40208e-10 0)
(0.474833 -1.42027e-10 0)
(0.474833 -3.01641e-11 0)
(0.474833 8.48265e-11 0)
(0.474833 1.91748e-10 0)
(0.474833 2.80203e-10 0)
(0.474833 3.41196e-10 0)
(0.474833 3.68613e-10 0)
(0.474833 3.59613e-10 0)
(0.474833 3.15079e-10 0)
(0.474833 2.39702e-10 0)
(0.474833 1.41096e-10 0)
(0.474833 2.91346e-11 0)
(0.474833 -8.54683e-11 0)
(0.474833 -1.91665e-10 0)
(0.474833 -2.79474e-10 0)
(0.474833 -3.40221e-10 0)
(0.474833 -3.6767e-10 0)
(0.474833 -3.58978e-10 0)
(0.524834 -1.53727e-10 0)
(0.524834 -9.3394e-11 0)
(0.524834 -2.42248e-11 0)
(0.524834 4.72235e-11 0)
(0.524834 1.1422e-10 0)
(0.524834 1.70557e-10 0)
(0.524834 2.10563e-10 0)
(0.524834 2.30031e-10 0)
(0.524834 2.26729e-10 0)
(0.524834 2.00748e-10 0)
(0.524834 1.54761e-10 0)
(0.524834 9.35111e-11 0)
(0.524834 2.34032e-11 0)
(0.524834 -4.86655e-11 0)
(0.524834 -1.15603e-10 0)
(0.524834 -1.71232e-10 0)
(0.524834 -2.10324e-10 0)
(0.524834 -2.29084e-10 0)
(0.524834 -2.25265e-10 0)
(0.524834 -1.99242e-10 0)
(0.574838 4.73136e-12 0)
(0.574838 5.10831e-11 0)
(0.574838 9.21701e-11 0)
(0.574838 1.24062e-10 0)
(0.574838 1.44172e-10 0)
(0.574838 1.50717e-10 0)
(0.574838 1.42952e-10 0)
(0.574838 1.21273e-10 0)
(0.574838 8.74034e-11 0)
(0.574838 4.45096e-11 0)
(0.574838 -3.15837e-12 0)
(0.574838 -5.05491e-11 0)
(0.574838 -9.28599e-11 0)
(0.574838 -1.25732e-10 0)
(0.574838 -1.46013e-10 0)
(0.574838 -1.51875e-10 0)
(0.574838 -1.4305e-10 0)
(0.574838 -1.20317e-10 0)
(0.574838 -8.56365e-11 0)
(0.574838 -4.24639e-11 0)
(0.624846 1.31258e-10 0)
(0.624846 1.66478e-10 0)
(0.624846 1.8505e-10 0)
(0.624846 1.85495e-10 0)
(0.624846 1.68095e-10 0)
(0.624846 1.34811e-10 0)
(0.624846 8.86626e-11 0)
(0.624846 3.38445e-11 0)
(0.624846 -2.45734e-11 0)
(0.624846 -8.10487e-11 0)
(0.624846 -1.29804e-10 0)
(0.624846 -1.65929e-10 0)
(0.624846 -1.85663e-10 0)
(0.624846 -1.87078e-10 0)
(0.624846 -1.69889e-10 0)
(0.624846 -1.35984e-10 0)
(0.624846 -8.88312e-11 0)
(0.624846 -3.29734e-11 0)
(0.624846 2.62073e-11 0)
(0.624846 8.295e-11 0)
(0.674858 2.05755e-10 0)
(0.674858 2.33031e-10 0)
(0.674858 2.37371e-10 0)
(0.674858 2.18438e-10 0)
(0.674858 1.7846e-10 0)
(0.674858 1.21371e-10 0)
(0.674858 5.25402e-11 0)
(0.674858 -2.15132e-11 0)
(0.674858 -9.37792e-11 0)
(0.674858 -1.57082e-10 0)
(0.674858 -2.05103e-10 0)
(0.674858 -2.32928e-10 0)
(0.674858 -2.3795e-10 0)
(0.674858 -2.19602e-10 0)
(0.674858 -1.79659e-10 0)
(0.674858 -1.22063e-10 0)
(0.674858 -5.25437e-11 0)
(0.674858 2.21553e-11 0)
(0.674858 9.48252e-11 0)
(0.674858 1.58083e-10 0)
(0.724873 2.21977e-10 0)
(0.724873 2.43821e-10 0)
(0.724873 2.41846e-10 0)
(0.724873 2.16282e-10 0)
(0.724873 1.69717e-10 0)
(0.724873 1.06661e-10 0)
(0.724873 3.30645e-11 0)
(0.724873 -4.3991e-11 0)
(0.724873 -1.16948e-10 0)
(0.724873 -1.78518e-10 0)
(0.724873 -2.22396e-10 0)
(0.724873 -2.4434e-10 0)
(0.724873 -2.42324e-10 0)
(0.724873 -2.16708e-10 0)
(0.724873 -1.69895e-10 0)
(0.724873 -1.06505e-10 0)
(0.724873 -3.26861e-11 0)
(0.724873 4.44141e-11 0)
(0.724873 1.17221e-10 0)
(0.724873 1.78276e-10 0)
(0.774892 1.89007e-10 0)
(0.774892 2.06438e-10 0)
(0.774892 2.03865e-10 0)
(0.774892 1.81472e-10 0)
(0.774892 1.41375e-10 0)
(0.774892 8.72753e-11 0)
(0.774892 2.43532e-11 0)
(0.774892 -4.12438e-11 0)
(0.774892 -1.02933e-10 0)
(0.774892 -1.5438e-10 0)
(0.774892 -1.90356e-10 0)
(0.774892 -2.07404e-10 0)
(0.774892 -2.04165e-10 0)
(0.774892 -1.81109e-10 0)
(0.774892 -1.40505e-10 0)
(0.774892 -8.62524e-11 0)
(0.774892 -2.35616e-11 0)
(0.774892 4.15591e-11 0)
(0.774892 1.02454e-10 0)
(0.774892 1.53273e-10 0)
(0.824913 1.27889e-10 0)
(0.824913 1.40669e-10 0)
(0.824913 1.39858e-10 0)
(0.824913 1.25607e-10 0)
(0.824913 9.90241e-11 0)
(0.824913 6.24551e-11 0)
(0.824913 1.93911e-11 0)
(0.824913 -2.58456e-11 0)
(0.824913 -6.86313e-11 0)
(0.824913 -1.04418e-10 0)
(0.824913 -1.2958e-10 0)
(0.824913 -1.41717e-10 0)
(0.824913 -1.39969e-10 0)
(0.824913 -1.24698e-10 0)
(0.824913 -9.74746e-11 0)
(0.824913 -6.09102e-11 0)
(0.824913 -1.83808e-11 0)
(0.824913 2.60675e-11 0)
(0.824913 6.77902e-11 0)
(0.824913 1.02829e-10 0)
(0.874936 6.3905e-11 0)
(0.874936 7.15499e-11 0)
(0.874936 7.22031e-11 0)
(0.874936 6.61069e-11 0)
(0.874936 5.34375e-11 0)
(0.874936 3.5245e-11 0)
(0.874936 1.32682e-11 0)
(0.874936 -1.03163e-11 0)
(0.874936 -3.28744e-11 0)
(0.874936 -5.20093e-11 0)
(0.874936 -6.55896e-11 0)
(0.874936 -7.25099e-11 0)
(0.874936 -7.22831e-11 0)
(0.874936 -6.51959e-11 0)
(0.874936 -5.19456e-11 0)
(0.874936 -3.37963e-11 0)
(0.874936 -1.23772e-11 0)
(0.874936 1.03596e-11 0)
(0.874936 3.19565e-11 0)
(0.874936 5.04151e-11 0)
(0.924961 1.88483e-11 0)
(0.924961 2.14952e-11 0)
(0.924961 2.23835e-11 0)
(0.924961 2.1176e-11 0)
(0.924961 1.78601e-11 0)
(0.924961 1.26102e-11 0)
(0.924961 5.8581e-12 0)
(0.924961 -1.63403e-12 0)
(0.924961 -9.06484e-12 0)
(0.924961 -1.53441e-11 0)
(0.924961 -1.98864e-11 0)
(0.924961 -2.22042e-11 0)
(0.924961 -2.24345e-11 0)
(0.924961 -2.05731e-11 0)
(0.924961 -1.68982e-11 0)
(0.924961 -1.16821e-11 0)
(0.924961 -5.29386e-12 0)
(0.924961 1.63712e-12 0)
(0.924961 8.437e-12 0)
(0.924961 1.42501e-11 0)
(0.974987 1.13336e-12 0)
(0.974987 1.39352e-12 0)
(0.974987 1.72312e-12 0)
(0.974987 1.96863e-12 0)
(0.974987 1.9918e-12 0)
(0.974987 1.7661e-12 0)
(0.974987 1.27194e-12 0)
(0.974987 5.11557e-13 0)
(0.974987 -2.60104e-13 0)
(0.974987 -9.53757e-13 0)
(0.974987 -1.30215e-12 0)
(0.974987 -1.49044e-12 0)
(0.974987 -1.53215e-12 0)
(0.974987 -1.57534e-12 0)
(0.974987 -1.49842e-12 0)
(0.974987 -1.28886e-12 0)
(0.974987 -8.58198e-13 0)
(0.974987 -2.59071e-13 0)
(0.974987 2.98246e-13 0)
(0.974987 7.68305e-13 0)
)
;

boundaryField
{
    movingWall
    {
        type            fixedValue;
        value           uniform (1 0 0);
    }
    fixedWalls
    {
        type            noSlip;
    }
    left
    {
        type            cyclic;
    }
    right
    {
        type            cyclic;
    }
    frontAndBack
    {
        type            empty;
    }
}


// ************************************************************************* //
