/*--------------------------------*- C++ -*----------------------------------*\
  =========                 |
  \\      /  F ield         | OpenFOAM: The Open Source CFD Toolbox
   \\    /   O peration     | Website:  https://openfoam.org
    \\  /    A nd           | Version:  8
     \\/     M anipulation  |
\*---------------------------------------------------------------------------*/
FoamFile
{
    version     2.0;
    format      ascii;
    class       surfaceScalarField;
    location    "24";
    object      phi;
}
// * * * * * * * * * * * * * * * * * * * * * * * * * * * * * * * * * * * * * //

dimensions      [0 3 -1 0 0 0 0];

internalField   nonuniform List<scalar> 
760
(
0.0004
-3.59791e-13
0.0004
-1.69791e-12
0.0004
-3.92822e-12
0.0004
-7.13505e-12
0.0004
-1.1503e-11
0.0004
-1.7292e-11
0.0004
-2.47912e-11
0.0004
-3.43556e-11
0.0004
-4.64135e-11
0.0004
-6.14791e-11
0.0004
-8.01703e-11
0.0004
-1.03229e-10
0.0004
-1.31547e-10
0.0004
-1.66189e-10
0.0004
-2.08427e-10
0.0004
-2.59777e-10
0.0004
-3.21967e-10
0.0004
-3.97496e-10
0.0004
-4.85704e-10
-6.11591e-10
0.0004
-5.58232e-13
0.0004
-2.28386e-12
0.0004
-4.90552e-12
0.0004
-8.48153e-12
0.0004
-1.31984e-11
0.0004
-1.9321e-11
0.0004
-2.71464e-11
0.0004
-3.703e-11
0.0004
-4.9397e-11
0.0004
-6.4757e-11
0.0004
-8.3721e-11
0.0004
-1.07022e-10
0.0004
-1.35541e-10
0.0004
-1.70329e-10
0.0004
-2.12644e-10
0.0004
-2.63986e-10
0.0004
-3.26067e-10
0.0004
-4.01345e-10
0.0004
-4.89215e-10
-6.14592e-10
0.0004
-6.94258e-13
0.0004
-2.74714e-12
0.0004
-5.72563e-12
0.0004
-9.64762e-12
0.0004
-1.46954e-11
0.0004
-2.11358e-11
0.0004
-2.92719e-11
0.0004
-3.94593e-11
0.0004
-5.21213e-11
0.0004
-6.77634e-11
0.0004
-8.69909e-11
0.0004
-1.10529e-10
0.0004
-1.39249e-10
0.0004
-1.74189e-10
0.0004
-2.16596e-10
0.0004
-2.67953e-10
0.0004
-3.2997e-10
0.0004
-4.05078e-10
0.0004
-4.92768e-10
-6.17888e-10
0.0004
-7.83094e-13
0.0004
-3.08686e-12
0.0004
-6.36607e-12
0.0004
-1.05922e-11
0.0004
-1.59386e-11
0.0004
-2.26709e-11
0.0004
-3.1094e-11
0.0004
-4.15636e-11
0.0004
-5.45012e-11
0.0004
-7.04091e-11
0.0004
-8.9887e-11
0.0004
-1.13654e-10
0.0004
-1.4257e-10
0.0004
-1.77666e-10
0.0004
-2.20174e-10
0.0004
-2.71568e-10
0.0004
-3.33553e-10
0.0004
-4.08543e-10
0.0004
-4.9612e-10
-6.2101e-10
0.0004
-8.44994e-13
0.0004
-3.33332e-12
0.0004
-6.84992e-12
0.0004
-1.13271e-11
0.0004
-1.69267e-11
0.0004
-2.39117e-11
0.0004
-3.25863e-11
0.0004
-4.33053e-11
0.0004
-5.64884e-11
0.0004
-7.26348e-11
0.0004
-9.23393e-11
0.0004
-1.16314e-10
0.0004
-1.45411e-10
0.0004
-1.80651e-10
0.0004
-2.23254e-10
0.0004
-2.74684e-10
0.0004
-3.36643e-10
0.0004
-4.11525e-10
0.0004
-4.98985e-10
-6.23627e-10
0.0004
-8.89543e-13
0.0004
-3.50998e-12
0.0004
-7.20654e-12
0.0004
-1.18796e-11
0.0004
-1.76818e-11
0.0004
-2.48728e-11
0.0004
-3.37549e-11
0.0004
-4.46818e-11
0.0004
-5.80712e-11
0.0004
-7.44192e-11
0.0004
-9.43161e-11
0.0004
-1.18467e-10
0.0004
-1.47716e-10
0.0004
-1.83073e-10
0.0004
-2.25748e-10
0.0004
-2.7719e-10
0.0004
-3.39097e-10
0.0004
-4.13845e-10
0.0004
-5.0114e-10
-6.25471e-10
0.0004
-9.20911e-13
0.0004
-3.63361e-12
0.0004
-7.46108e-12
0.0004
-1.22789e-11
0.0004
-1.82336e-11
0.0004
-2.55816e-11
0.0004
-3.46238e-11
0.0004
-4.57125e-11
0.0004
-5.92633e-11
0.0004
-7.57693e-11
0.0004
-9.58164e-11
0.0004
-1.20103e-10
0.0004
-1.49464e-10
0.0004
-1.84899e-10
0.0004
-2.27606e-10
0.0004
-2.79017e-10
0.0004
-3.40823e-10
0.0004
-4.15381e-10
0.0004
-5.02427e-10
-6.26348e-10
0.0004
-9.41226e-13
0.0004
-3.71572e-12
0.0004
-7.63208e-12
0.0004
-1.25496e-11
0.0004
-1.86097e-11
0.0004
-2.60673e-11
0.0004
-3.5222e-11
0.0004
-4.64251e-11
0.0004
-6.00902e-11
0.0004
-7.67072e-11
0.0004
-9.68578e-11
0.0004
-1.21233e-10
0.0004
-1.50659e-10
0.0004
-1.86124e-10
0.0004
-2.28812e-10
0.0004
-2.80137e-10
0.0004
-3.41775e-10
0.0004
-4.16067e-10
0.0004
-5.0276e-10
-6.26144e-10
0.0004
-9.5223e-13
0.0004
-3.7632e-12
0.0004
-7.73203e-12
0.0004
-1.27087e-11
0.0004
-1.88308e-11
0.0004
-2.63532e-11
0.0004
-3.55747e-11
0.0004
-4.68457e-11
0.0004
-6.05779e-11
0.0004
-7.72581e-11
0.0004
-9.74635e-11
0.0004
-1.21879e-10
0.0004
-1.51319e-10
0.0004
-1.8676e-10
0.0004
-2.29371e-10
0.0004
-2.80548e-10
0.0004
-3.41945e-10
0.0004
-4.15888e-10
0.0004
-5.02113e-10
-6.24824e-10
0.0004
-9.55284e-13
0.0004
-3.77939e-12
0.0004
-7.76789e-12
0.0004
-1.27658e-11
0.0004
-1.89093e-11
0.0004
-2.6454e-11
0.0004
-3.56983e-11
0.0004
-4.69918e-11
0.0004
-6.07446e-11
0.0004
-7.74406e-11
0.0004
-9.76521e-11
0.0004
-1.22057e-10
0.0004
-1.5146e-10
0.0004
-1.86825e-10
0.0004
-2.29302e-10
0.0004
-2.80268e-10
0.0004
-3.41351e-10
0.0004
-4.14863e-10
0.0004
-5.00512e-10
-6.22415e-10
0.0004
-9.50481e-13
0.0004
-3.76541e-12
0.0004
-7.74175e-12
0.0004
-1.27237e-11
0.0004
-1.88489e-11
0.0004
-2.63743e-11
0.0004
-3.55979e-11
0.0004
-4.6869e-11
0.0004
-6.05966e-11
0.0004
-7.72613e-11
0.0004
-9.74309e-11
0.0004
-1.21777e-10
0.0004
-1.51094e-10
0.0004
-1.8633e-10
0.0004
-2.28621e-10
0.0004
-2.7932e-10
0.0004
-3.40027e-10
0.0004
-4.13037e-10
0.0004
-4.98017e-10
-6.18994e-10
0.0004
-9.37102e-13
0.0004
-3.7202e-12
0.0004
-7.65089e-12
0.0004
-1.25784e-11
0.0004
-1.86448e-11
0.0004
-2.61081e-11
0.0004
-3.52669e-11
0.0004
-4.64703e-11
0.0004
-6.01263e-11
0.0004
-7.6713e-11
0.0004
-9.67936e-11
0.0004
-1.21033e-10
0.0004
-1.50218e-10
0.0004
-1.85282e-10
0.0004
-2.2734e-10
0.0004
-2.77729e-10
0.0004
-3.38013e-10
0.0004
-4.10471e-10
0.0004
-4.94717e-10
-6.14682e-10
0.0004
-9.14552e-13
0.0004
-3.63997e-12
0.0004
-7.48756e-12
0.0004
-1.23193e-11
0.0004
-1.82832e-11
0.0004
-2.56394e-11
0.0004
-3.46873e-11
0.0004
-4.57763e-11
0.0004
-5.93139e-11
0.0004
-7.57761e-11
0.0004
-9.57223e-11
0.0004
-1.19812e-10
0.0004
-1.48823e-10
0.0004
-1.83677e-10
0.0004
-2.25472e-10
0.0004
-2.75523e-10
0.0004
-3.3536e-10
0.0004
-4.07247e-10
0.0004
-4.90728e-10
-6.09645e-10
0.0004
-8.82146e-13
0.0004
-3.51761e-12
0.0004
-7.23853e-12
0.0004
-1.19282e-11
0.0004
-1.77423e-11
0.0004
-2.49434e-11
0.0004
-3.38326e-11
0.0004
-4.47598e-11
0.0004
-5.81321e-11
0.0004
-7.44246e-11
0.0004
-9.41936e-11
0.0004
-1.18094e-10
0.0004
-1.46898e-10
0.0004
-1.81516e-10
0.0004
-2.23029e-10
0.0004
-2.72736e-10
0.0004
-3.3213e-10
0.0004
-4.0346e-10
0.0004
-4.86194e-10
-6.04079e-10
0.0004
-8.38003e-13
0.0004
-3.34195e-12
0.0004
-6.88468e-12
0.0004
-1.13802e-11
0.0004
-1.69938e-11
0.0004
-2.39903e-11
0.0004
-3.26726e-11
0.0004
-4.33912e-11
0.0004
-5.65538e-11
0.0004
-7.26349e-11
0.0004
-9.21888e-11
0.0004
-1.15868e-10
0.0004
-1.4444e-10
0.0004
-1.78808e-10
0.0004
-2.2004e-10
0.0004
-2.69419e-10
0.0004
-3.28406e-10
0.0004
-3.99233e-10
0.0004
-4.81284e-10
-5.98216e-10
0.0004
-7.77728e-13
0.0004
-3.09659e-12
0.0004
-6.40104e-12
0.0004
-1.0646e-11
0.0004
-1.60076e-11
0.0004
-2.27517e-11
0.0004
-3.11821e-11
0.0004
-4.16502e-11
0.0004
-5.45639e-11
0.0004
-7.03979e-11
0.0004
-8.97064e-11
0.0004
-1.1314e-10
0.0004
-1.41468e-10
0.0004
-1.75586e-10
0.0004
-2.16554e-10
0.0004
-2.65645e-10
0.0004
-3.24292e-10
0.0004
-3.94712e-10
0.0004
-4.76197e-10
-5.92319e-10
0.0004
-6.91179e-13
0.0004
-2.75806e-12
0.0004
-5.75903e-12
0.0004
-9.69857e-12
0.0004
-1.47619e-11
0.0004
-2.1213e-11
0.0004
-2.93548e-11
0.0004
-3.95386e-11
0.0004
-5.21729e-11
0.0004
-6.77332e-11
0.0004
-8.67749e-11
0.0004
-1.09951e-10
0.0004
-1.3803e-10
0.0004
-1.71913e-10
0.0004
-2.1265e-10
0.0004
-2.61513e-10
0.0004
-3.19919e-10
0.0004
-3.90067e-10
0.0004
-4.71151e-10
-5.86659e-10
0.0004
-5.56877e-13
0.0004
-2.29672e-12
0.0004
-4.93579e-12
0.0004
-8.52771e-12
0.0004
-1.326e-11
0.0004
-1.93903e-11
0.0004
-2.72181e-11
0.0004
-3.70944e-11
0.0004
-4.94286e-11
0.0004
-6.46983e-11
0.0004
-8.34612e-11
0.0004
-1.06374e-10
0.0004
-1.34212e-10
0.0004
-1.6788e-10
0.0004
-2.08431e-10
0.0004
-2.57139e-10
0.0004
-3.15418e-10
0.0004
-3.85467e-10
0.0004
-4.66386e-10
-5.81523e-10
0.0004
-3.60316e-13
0.0004
-1.7124e-12
0.0004
-3.95087e-12
0.0004
-7.17169e-12
0.0004
-1.15533e-11
0.0004
-1.73439e-11
0.0004
-2.48393e-11
0.0004
-3.43913e-11
0.0004
-4.64112e-11
0.0004
-6.1377e-11
0.0004
-7.98497e-11
0.0004
-1.02496e-10
0.0004
-1.301e-10
0.0004
-1.63572e-10
0.0004
-2.03971e-10
0.0004
-2.52586e-10
0.0004
-3.10846e-10
0.0004
-3.80977e-10
0.0004
-4.62035e-10
-5.77316e-10
0.0004
0.0004
0.0004
0.0004
0.0004
0.0004
0.0004
0.0004
0.0004
0.0004
0.0004
0.0004
0.0004
0.0004
0.0004
0.0004
0.0004
0.0004
0.0004
)
;

boundaryField
{
    inlet
    {
        type            calculated;
        value           nonuniform List<scalar> 
20
(
-0.0004
-0.0004
-0.0004
-0.0004
-0.0004
-0.0004
-0.0004
-0.0004
-0.0004
-0.0004
-0.0004
-0.0004
-0.0004
-0.0004
-0.0004
-0.0004
-0.0004
-0.0004
-0.0004
-0.0004
)
;
    }
    outlet
    {
        type            calculated;
        value           nonuniform List<scalar> 
20
(
0.0004
0.0004
0.0004
0.0004
0.0004
0.0004
0.0004
0.0004
0.0004
0.0004
0.0004
0.0004
0.0004
0.0004
0.0004
0.0004
0.0004
0.0004
0.0004
0.0004
)
;
    }
    up
    {
        type            calculated;
        value           nonuniform List<scalar> 
20
(
-9.83312e-14
-1.02084e-12
-2.88832e-12
-5.73573e-12
-9.75376e-12
-1.51912e-11
-2.23411e-11
-3.15546e-11
-4.3246e-11
-5.78975e-11
-7.60731e-11
-9.84433e-11
-1.25807e-10
-1.59091e-10
-1.99363e-10
-2.47911e-10
-3.06214e-10
-3.76499e-10
-4.58029e-10
-5.74048e-10
)
;
    }
    down
    {
        type            calculated;
        value           nonuniform List<scalar> 
20
(
9.72837e-14
1.00712e-12
2.87561e-12
5.71333e-12
9.71919e-12
1.51582e-11
2.2318e-11
3.15513e-11
4.32889e-11
5.80504e-11
7.64607e-11
9.92715e-11
1.27386e-10
1.61884e-10
2.04052e-10
2.55422e-10
3.17752e-10
3.93564e-10
4.82319e-10
6.09111e-10
)
;
    }
    frontAndBack
    {
        type            empty;
        value           nonuniform List<scalar> 0();
    }
}


// ************************************************************************* //
