/*--------------------------------*- C++ -*----------------------------------*\
  =========                 |
  \\      /  F ield         | OpenFOAM: The Open Source CFD Toolbox
   \\    /   O peration     | Website:  https://openfoam.org
    \\  /    A nd           | Version:  8
     \\/     M anipulation  |
\*---------------------------------------------------------------------------*/
FoamFile
{
    version     2.0;
    format      ascii;
    class       volVectorField;
    location    "9";
    object      U;
}
// * * * * * * * * * * * * * * * * * * * * * * * * * * * * * * * * * * * * * //

dimensions      [0 1 -1 0 0 0 0];

internalField   nonuniform List<vector> 
11600
(
(-9.37948e-06 9.36069e-06 0)
(-4.29841e-05 1.57347e-05 0)
(-8.75491e-05 1.66325e-05 0)
(-0.000129132 1.66809e-05 0)
(-0.000171516 1.66206e-05 0)
(-0.00021369 1.65474e-05 0)
(-0.000255651 1.6466e-05 0)
(-0.000297388 1.63732e-05 0)
(-0.000338865 1.62675e-05 0)
(-0.000380046 1.61485e-05 0)
(-0.000420897 1.60159e-05 0)
(-0.000461382 1.58699e-05 0)
(-0.000501465 1.57104e-05 0)
(-0.000541113 1.55377e-05 0)
(-0.000580291 1.53518e-05 0)
(-0.000618965 1.51531e-05 0)
(-0.000657102 1.49415e-05 0)
(-0.00069467 1.47175e-05 0)
(-0.000731636 1.44811e-05 0)
(-0.00076797 1.42327e-05 0)
(-0.000803642 1.39725e-05 0)
(-0.00083862 1.37008e-05 0)
(-0.000872877 1.3418e-05 0)
(-0.000906384 1.31244e-05 0)
(-0.000939116 1.28204e-05 0)
(-0.000971045 1.25063e-05 0)
(-0.00100215 1.21827e-05 0)
(-0.0010324 1.185e-05 0)
(-0.00106178 1.15088e-05 0)
(-0.00109027 1.11597e-05 0)
(-0.00111785 1.08034e-05 0)
(-0.0011445 1.04406e-05 0)
(-0.0011702 1.00722e-05 0)
(-0.00119496 9.69908e-06 0)
(-0.00121875 9.32241e-06 0)
(-0.00124156 8.94344e-06 0)
(-0.00126341 8.56364e-06 0)
(-0.00128428 8.18473e-06 0)
(-0.00130418 7.80876e-06 0)
(-0.00132313 7.43816e-06 0)
(-0.00134114 7.07589e-06 0)
(-0.00135824 6.72559e-06 0)
(-0.00137447 6.39174e-06 0)
(-0.00138988 6.08003e-06 0)
(-0.00140453 5.79768e-06 0)
(-0.00141851 5.5541e-06 0)
(-0.00143195 5.3617e-06 0)
(-0.00144498 5.23725e-06 0)
(-0.00145783 5.20389e-06 0)
(-0.00147076 5.29405e-06 0)
(-0.00148416 5.55449e-06 0)
(-0.00149856 6.05521e-06 0)
(-0.00151471 6.90568e-06 0)
(-0.00153379 8.28591e-06 0)
(-0.00155779 1.05219e-05 0)
(-0.00158894 1.43335e-05 0)
(-0.00162613 2.11269e-05 0)
(-0.00172007 3.31687e-05 0)
(-0.00174291 0.000102729 0)
(-0.00216535 0.000347685 0)
(-1.57974e-05 4.29978e-05 0)
(-6.6018e-05 6.58723e-05 0)
(-0.000130119 6.92191e-05 0)
(-0.000190575 6.9447e-05 0)
(-0.000252016 6.92484e-05 0)
(-0.000313192 6.89631e-05 0)
(-0.000374069 6.86207e-05 0)
(-0.000434612 6.82206e-05 0)
(-0.000494768 6.77617e-05 0)
(-0.000554481 6.72441e-05 0)
(-0.000613698 6.66679e-05 0)
(-0.000672368 6.60338e-05 0)
(-0.000730437 6.53421e-05 0)
(-0.000787854 6.45938e-05 0)
(-0.00084457 6.37896e-05 0)
(-0.000900534 6.29303e-05 0)
(-0.000955697 6.20169e-05 0)
(-0.00101001 6.10505e-05 0)
(-0.00106343 6.00322e-05 0)
(-0.00111591 5.89632e-05 0)
(-0.0011674 5.78448e-05 0)
(-0.00121787 5.66784e-05 0)
(-0.00126726 5.54655e-05 0)
(-0.00131554 5.42077e-05 0)
(-0.00136268 5.29068e-05 0)
(-0.00140862 5.15647e-05 0)
(-0.00145334 5.01834e-05 0)
(-0.00149681 4.87652e-05 0)
(-0.00153899 4.73124e-05 0)
(-0.00157986 4.58279e-05 0)
(-0.00161938 4.43145e-05 0)
(-0.00165753 4.27755e-05 0)
(-0.0016943 4.12147e-05 0)
(-0.00172967 3.96362e-05 0)
(-0.00176362 3.80447e-05 0)
(-0.00179614 3.64456e-05 0)
(-0.00182724 3.48452e-05 0)
(-0.00185691 3.32509e-05 0)
(-0.00188516 3.16713e-05 0)
(-0.00191201 3.01168e-05 0)
(-0.0019375 2.86e-05 0)
(-0.00196165 2.71361e-05 0)
(-0.00198453 2.57443e-05 0)
(-0.0020062 2.44488e-05 0)
(-0.00202676 2.32803e-05 0)
(-0.00204634 2.22792e-05 0)
(-0.0020651 2.1499e-05 0)
(-0.00208326 2.10124e-05 0)
(-0.00210111 2.0921e-05 0)
(-0.00211902 2.13697e-05 0)
(-0.00213753 2.25709e-05 0)
(-0.00215736 2.4849e-05 0)
(-0.00217954 2.87186e-05 0)
(-0.00220557 3.50264e-05 0)
(-0.00223786 4.52525e-05 0)
(-0.00227894 6.22605e-05 0)
(-0.00233092 9.05787e-05 0)
(-0.0024296 0.000135069 0)
(-0.00248035 0.000259687 0)
(-0.00275508 0.000413123 0)
(-1.67533e-05 8.77344e-05 0)
(-6.96121e-05 0.000130054 0)
(-0.000136854 0.000136309 0)
(-0.000200258 0.00013674 0)
(-0.000264665 0.000136372 0)
(-0.000328785 0.000135818 0)
(-0.000392587 0.000135139 0)
(-0.000456036 0.00013434 0)
(-0.000519076 0.000133422 0)
(-0.00058165 0.000132387 0)
(-0.000643702 0.000131234 0)
(-0.000705175 0.000129966 0)
(-0.000766017 0.000128584 0)
(-0.000826171 0.000127088 0)
(-0.000885587 0.000125482 0)
(-0.00094421 0.000123766 0)
(-0.00100199 0.000121944 0)
(-0.00105888 0.000120016 0)
(-0.00111482 0.000117985 0)
(-0.00116977 0.000115854 0)
(-0.00122369 0.000113626 0)
(-0.00127652 0.000111302 0)
(-0.00132822 0.000108887 0)
(-0.00137876 0.000106384 0)
(-0.00142808 0.000103796 0)
(-0.00147616 0.000101128 0)
(-0.00152295 9.83819e-05 0)
(-0.00156841 9.5564e-05 0)
(-0.00161253 9.26787e-05 0)
(-0.00165525 8.97314e-05 0)
(-0.00169657 8.6728e-05 0)
(-0.00173644 8.3675e-05 0)
(-0.00177486 8.05797e-05 0)
(-0.0018118 7.74504e-05 0)
(-0.00184724 7.42963e-05 0)
(-0.00188118 7.1128e-05 0)
(-0.00191362 6.79578e-05 0)
(-0.00194455 6.48e-05 0)
(-0.00197398 6.16714e-05 0)
(-0.00200193 5.85919e-05 0)
(-0.00202842 5.55859e-05 0)
(-0.0020535 5.26826e-05 0)
(-0.0020772 4.99187e-05 0)
(-0.00209961 4.73398e-05 0)
(-0.0021208 4.50045e-05 0)
(-0.00214089 4.29882e-05 0)
(-0.00216004 4.13907e-05 0)
(-0.00217843 4.03462e-05 0)
(-0.0021963 4.00392e-05 0)
(-0.00221399 4.07291e-05 0)
(-0.00223189 4.27879e-05 0)
(-0.00225054 4.67651e-05 0)
(-0.00227062 5.34955e-05 0)
(-0.00229297 6.42779e-05 0)
(-0.00231866 8.12171e-05 0)
(-0.00234835 0.000107946 0)
(-0.0023825 0.000149705 0)
(-0.00243243 0.000213615 0)
(-0.00244312 0.000343128 0)
(-0.00252665 0.000481949 0)
(-1.68758e-05 0.000129669 0)
(-7.01652e-05 0.00019087 0)
(-0.000137936 0.000199868 0)
(-0.0002018 0.000200455 0)
(-0.000266682 0.000199904 0)
(-0.000331272 0.000199089 0)
(-0.00039554 0.000198089 0)
(-0.000459454 0.000196914 0)
(-0.000522955 0.000195563 0)
(-0.000585986 0.000194039 0)
(-0.00064849 0.000192343 0)
(-0.000710412 0.000190476 0)
(-0.000771695 0.000188442 0)
(-0.000832286 0.000186242 0)
(-0.000892131 0.000183878 0)
(-0.000951177 0.000181354 0)
(-0.00100937 0.000178673 0)
(-0.00106667 0.000175837 0)
(-0.00112301 0.00017285 0)
(-0.00117835 0.000169716 0)
(-0.00123265 0.000166439 0)
(-0.00128585 0.000163022 0)
(-0.00133792 0.000159472 0)
(-0.0013888 0.000155791 0)
(-0.00143847 0.000151986 0)
(-0.00148687 0.000148063 0)
(-0.00153398 0.000144026 0)
(-0.00157975 0.000139884 0)
(-0.00162415 0.000135642 0)
(-0.00166715 0.000131309 0)
(-0.00170872 0.000126893 0)
(-0.00174884 0.000122405 0)
(-0.00178748 0.000117853 0)
(-0.00182463 0.000113251 0)
(-0.00186026 0.00010861 0)
(-0.00189437 0.000103948 0)
(-0.00192694 9.92805e-05 0)
(-0.00195799 9.46282e-05 0)
(-0.00198751 9.00149e-05 0)
(-0.00201551 8.54687e-05 0)
(-0.00204201 8.10234e-05 0)
(-0.00206705 7.67197e-05 0)
(-0.00209067 7.26081e-05 0)
(-0.00211291 6.87509e-05 0)
(-0.00213386 6.52272e-05 0)
(-0.0021536 6.21378e-05 0)
(-0.00217226 5.96137e-05 0)
(-0.00218996 5.78281e-05 0)
(-0.00220691 5.70128e-05 0)
(-0.00222331 5.74842e-05 0)
(-0.00223944 5.96802e-05 0)
(-0.00225559 6.42165e-05 0)
(-0.00227213 7.19722e-05 0)
(-0.00228939 8.42173e-05 0)
(-0.0023076 0.000102816 0)
(-0.00232644 0.000130524 0)
(-0.00234518 0.000170924 0)
(-0.002364 0.000229121 0)
(-0.00235555 0.00032334 0)
(-0.00235708 0.000416695 0)
(-1.6915e-05 0.000172637 0)
(-7.04038e-05 0.000253014 0)
(-0.000138444 0.000264784 0)
(-0.000202539 0.000265537 0)
(-0.000267662 0.000264806 0)
(-0.000332489 0.000263725 0)
(-0.000396992 0.000262398 0)
(-0.00046114 0.000260837 0)
(-0.000524873 0.000259043 0)
(-0.000588133 0.000257018 0)
(-0.000650865 0.000254765 0)
(-0.000713011 0.000252285 0)
(-0.000774516 0.000249583 0)
(-0.000835325 0.000246661 0)
(-0.000895385 0.000243521 0)
(-0.000954642 0.000240169 0)
(-0.00101305 0.000236608 0)
(-0.00107054 0.000232842 0)
(-0.00112708 0.000228876 0)
(-0.00118262 0.000224714 0)
(-0.0012371 0.000220362 0)
(-0.00129049 0.000215826 0)
(-0.00134273 0.000211111 0)
(-0.00139379 0.000206224 0)
(-0.00144361 0.000201172 0)
(-0.00149217 0.000195962 0)
(-0.00153942 0.000190603 0)
(-0.00158533 0.000185102 0)
(-0.00162986 0.000179469 0)
(-0.00167298 0.000173714 0)
(-0.00171466 0.000167849 0)
(-0.00175488 0.000161885 0)
(-0.0017936 0.000155837 0)
(-0.00183082 0.000149719 0)
(-0.0018665 0.000143549 0)
(-0.00190064 0.000137346 0)
(-0.00193322 0.000131132 0)
(-0.00196425 0.000124932 0)
(-0.00199372 0.000118778 0)
(-0.00202164 0.000112704 0)
(-0.00204802 0.000106751 0)
(-0.00207288 0.000100971 0)
(-0.00209625 9.54249e-05 0)
(-0.00211817 9.01883e-05 0)
(-0.0021387 8.53555e-05 0)
(-0.00215789 8.10453e-05 0)
(-0.00217582 7.74094e-05 0)
(-0.00219259 7.46438e-05 0)
(-0.0022083 7.30051e-05 0)
(-0.00222307 7.28329e-05 0)
(-0.00223701 7.45812e-05 0)
(-0.00225021 7.88637e-05 0)
(-0.00226271 8.65145e-05 0)
(-0.00227439 9.86725e-05 0)
(-0.00228484 0.00011689 0)
(-0.00229304 0.000143227 0)
(-0.00229719 0.00018015 0)
(-0.00229432 0.000230946 0)
(-0.00227169 0.000301424 0)
(-0.00223733 0.000373877 0)
(-1.69696e-05 0.000215687 0)
(-7.06769e-05 0.000315335 0)
(-0.000139009 0.000329881 0)
(-0.000203368 0.000330798 0)
(-0.000268763 0.000329884 0)
(-0.000333859 0.000328534 0)
(-0.000398629 0.000326879 0)
(-0.000463042 0.00032493 0)
(-0.000527037 0.000322691 0)
(-0.000590558 0.000320164 0)
(-0.000653547 0.000317352 0)
(-0.000715947 0.000314258 0)
(-0.000777703 0.000310885 0)
(-0.00083876 0.000307238 0)
(-0.000899063 0.000303321 0)
(-0.00095856 0.000299138 0)
(-0.0010172 0.000294693 0)
(-0.00107492 0.000289994 0)
(-0.00113169 0.000285044 0)
(-0.00118744 0.000279851 0)
(-0.00124214 0.00027442 0)
(-0.00129573 0.000268759 0)
(-0.00134817 0.000262876 0)
(-0.00139942 0.000256777 0)
(-0.00144943 0.000250472 0)
(-0.00149816 0.000243969 0)
(-0.00154558 0.000237279 0)
(-0.00159164 0.000230412 0)
(-0.00163632 0.000223379 0)
(-0.00167957 0.000216193 0)
(-0.00172137 0.000208868 0)
(-0.00176169 0.000201418 0)
(-0.0018005 0.000193859 0)
(-0.00183779 0.000186211 0)
(-0.00187352 0.000178493 0)
(-0.00190769 0.000170729 0)
(-0.00194027 0.000162944 0)
(-0.00197127 0.00015517 0)
(-0.00200068 0.000147441 0)
(-0.00202849 0.000139798 0)
(-0.00205471 0.000132289 0)
(-0.00207935 0.000124972 0)
(-0.00210243 0.000117916 0)
(-0.00212397 0.000111205 0)
(-0.002144 0.000104942 0)
(-0.00216256 9.92548e-05 0)
(-0.00217967 9.43037e-05 0)
(-0.00219539 9.02902e-05 0)
(-0.00220975 8.7471e-05 0)
(-0.00222278 8.61746e-05 0)
(-0.00223446 8.6823e-05 0)
(-0.00224472 8.99587e-05 0)
(-0.00225339 9.62754e-05 0)
(-0.0022601 0.000106649 0)
(-0.00226415 0.000122154 0)
(-0.00226432 0.000144034 0)
(-0.00225864 0.000173538 0)
(-0.00224402 0.000211828 0)
(-0.00221404 0.000259649 0)
(-0.00216826 0.000309073 0)
(-1.70444e-05 0.000258897 0)
(-7.1016e-05 0.000377917 0)
(-0.000139694 0.000395249 0)
(-0.000204374 0.000396331 0)
(-0.000270096 0.000395231 0)
(-0.000335518 0.000393612 0)
(-0.000400612 0.000391626 0)
(-0.000465345 0.000389288 0)
(-0.000529659 0.000386602 0)
(-0.000593495 0.00038357 0)
(-0.000656795 0.000380196 0)
(-0.000719504 0.000376484 0)
(-0.000781564 0.000372437 0)
(-0.000842921 0.000368062 0)
(-0.000903519 0.000363362 0)
(-0.000963305 0.000358343 0)
(-0.00102223 0.000353011 0)
(-0.00108023 0.000347372 0)
(-0.00113727 0.000341434 0)
(-0.00119329 0.000335203 0)
(-0.00124824 0.000328687 0)
(-0.00130208 0.000321894 0)
(-0.00135476 0.000314834 0)
(-0.00140624 0.000307516 0)
(-0.00145647 0.000299949 0)
(-0.00150542 0.000292144 0)
(-0.00155304 0.000284114 0)
(-0.00159929 0.000275869 0)
(-0.00164414 0.000267425 0)
(-0.00168755 0.000258795 0)
(-0.0017295 0.000249995 0)
(-0.00176995 0.000241043 0)
(-0.00180887 0.000231956 0)
(-0.00184625 0.000222757 0)
(-0.00188205 0.000213469 0)
(-0.00191625 0.000204118 0)
(-0.00194885 0.000194733 0)
(-0.00197982 0.000185349 0)
(-0.00200916 0.000176005 0)
(-0.00203686 0.000166745 0)
(-0.00206291 0.000157622 0)
(-0.00208732 0.000148698 0)
(-0.00211009 0.000140047 0)
(-0.00213122 0.000131757 0)
(-0.00215072 0.000123933 0)
(-0.0021686 0.000116707 0)
(-0.00218486 0.000110234 0)
(-0.0021995 0.000104711 0)
(-0.00221249 0.000100377 0)
(-0.00222379 9.75279e-05 0)
(-0.0022333 9.65292e-05 0)
(-0.00224083 9.78264e-05 0)
(-0.0022461 0.000101955 0)
(-0.00224859 0.000109539 0)
(-0.00224754 0.000121267 0)
(-0.00224174 0.000137815 0)
(-0.00222949 0.000159683 0)
(-0.00220831 0.000186968 0)
(-0.00217455 0.000218843 0)
(-0.00212645 0.000251065 0)
(-1.71364e-05 0.000302332 0)
(-7.14204e-05 0.00044084 0)
(-0.000140504 0.000460973 0)
(-0.000205564 0.000462221 0)
(-0.000271673 0.000460936 0)
(-0.000337479 0.000459044 0)
(-0.000402955 0.000456725 0)
(-0.000468067 0.000453995 0)
(-0.000532757 0.000450859 0)
(-0.000596965 0.000447318 0)
(-0.000660635 0.000443379 0)
(-0.000723707 0.000439044 0)
(-0.000786127 0.00043432 0)
(-0.000847838 0.00042921 0)
(-0.000908785 0.000423722 0)
(-0.000968913 0.000417862 0)
(-0.00102817 0.000411636 0)
(-0.0010865 0.000405051 0)
(-0.00114386 0.000398117 0)
(-0.00120019 0.00039084 0)
(-0.00125545 0.000383231 0)
(-0.00130959 0.000375298 0)
(-0.00136255 0.000367051 0)
(-0.00141431 0.000358503 0)
(-0.0014648 0.000349663 0)
(-0.001514 0.000340545 0)
(-0.00156186 0.000331162 0)
(-0.00160833 0.000321527 0)
(-0.00165339 0.000311657 0)
(-0.001697 0.000301567 0)
(-0.00173913 0.000291275 0)
(-0.00177973 0.000280801 0)
(-0.00181879 0.000270165 0)
(-0.00185628 0.000259392 0)
(-0.00189216 0.000248507 0)
(-0.00192643 0.000237539 0)
(-0.00195905 0.00022652 0)
(-0.00199 0.000215487 0)
(-0.00201928 0.000204482 0)
(-0.00204687 0.000193552 0)
(-0.00207276 0.000182752 0)
(-0.00209693 0.000172147 0)
(-0.00211938 0.000161811 0)
(-0.00214009 0.000151834 0)
(-0.00215906 0.000142319 0)
(-0.00217626 0.000133391 0)
(-0.00219168 0.0001252 0)
(-0.00220526 0.000117924 0)
(-0.00221694 0.000111774 0)
(-0.00222663 0.000107003 0)
(-0.00223416 0.000103909 0)
(-0.0022393 0.000102834 0)
(-0.00224169 0.00010416 0)
(-0.0022408 0.000108293 0)
(-0.00223588 0.000115617 0)
(-0.00222591 0.000126414 0)
(-0.0022095 0.000140724 0)
(-0.00218487 0.000158147 0)
(-0.00214994 0.000177474 0)
(-0.00210338 0.000195842 0)
(-1.72442e-05 0.000346031 0)
(-7.18895e-05 0.00050416 0)
(-0.000141441 0.000527113 0)
(-0.000206939 0.000528528 0)
(-0.000273495 0.000527055 0)
(-0.000339745 0.000524889 0)
(-0.000405661 0.000522235 0)
(-0.000471212 0.00051911 0)
(-0.000536336 0.000515519 0)
(-0.000600975 0.000511467 0)
(-0.00066507 0.000506957 0)
(-0.000728563 0.000501995 0)
(-0.000791398 0.000496587 0)
(-0.000853518 0.000490738 0)
(-0.000914868 0.000484455 0)
(-0.000975392 0.000477746 0)
(-0.00103504 0.000470619 0)
(-0.00109375 0.000463081 0)
(-0.00115148 0.000455142 0)
(-0.00120817 0.000446811 0)
(-0.00126378 0.000438098 0)
(-0.00131826 0.000429014 0)
(-0.00137156 0.000419571 0)
(-0.00142363 0.000409781 0)
(-0.00147443 0.000399657 0)
(-0.00152392 0.000389212 0)
(-0.00157206 0.000378462 0)
(-0.00161879 0.000367421 0)
(-0.0016641 0.000356108 0)
(-0.00170794 0.00034454 0)
(-0.00175027 0.000332737 0)
(-0.00179106 0.00032072 0)
(-0.00183028 0.000308512 0)
(-0.00186791 0.000296138 0)
(-0.0019039 0.000283628 0)
(-0.00193824 0.00027101 0)
(-0.0019709 0.00025832 0)
(-0.00200186 0.000245596 0)
(-0.0020311 0.000232881 0)
(-0.00205859 0.000220225 0)
(-0.00208432 0.000207684 0)
(-0.00210826 0.000195322 0)
(-0.0021304 0.000183212 0)
(-0.00215071 0.000171441 0)
(-0.00216916 0.000160109 0)
(-0.00218572 0.00014933 0)
(-0.00220033 0.000139241 0)
(-0.00221293 0.000129996 0)
(-0.00222341 0.000121777 0)
(-0.00223166 0.000114788 0)
(-0.00223747 0.00010926 0)
(-0.00224058 0.000105439 0)
(-0.00224064 0.00010358 0)
(-0.00223713 0.000103917 0)
(-0.00222942 0.00010662 0)
(-0.00221664 0.000111725 0)
(-0.00219776 0.000119025 0)
(-0.00217156 0.000127934 0)
(-0.00213685 0.000137269 0)
(-0.00209286 0.000145035 0)
(-1.73673e-05 0.000390034 0)
(-7.24231e-05 0.000567933 0)
(-0.000142506 0.000593728 0)
(-0.000208502 0.000595312 0)
(-0.000275564 0.000593649 0)
(-0.000342318 0.000591207 0)
(-0.000408735 0.000588214 0)
(-0.000474783 0.00058469 0)
(-0.0005404 0.000580641 0)
(-0.000605528 0.000576072 0)
(-0.000670106 0.000570987 0)
(-0.000734078 0.000565392 0)
(-0.000797384 0.000559294 0)
(-0.000859969 0.000552699 0)
(-0.000921776 0.000545615 0)
(-0.000982749 0.000538049 0)
(-0.00104284 0.000530012 0)
(-0.00110198 0.000521512 0)
(-0.00116013 0.000512558 0)
(-0.00121724 0.000503163 0)
(-0.00127325 0.000493336 0)
(-0.00132811 0.00048309 0)
(-0.00138179 0.000472438 0)
(-0.00143422 0.000461393 0)
(-0.00148537 0.00044997 0)
(-0.0015352 0.000438184 0)
(-0.00158365 0.000426051 0)
(-0.00163069 0.000413588 0)
(-0.00167628 0.000400814 0)
(-0.00172037 0.000387748 0)
(-0.00176295 0.000374412 0)
(-0.00180396 0.000360829 0)
(-0.00184337 0.000347023 0)
(-0.00188116 0.000333021 0)
(-0.00191729 0.000318854 0)
(-0.00195173 0.000304552 0)
(-0.00198446 0.000290152 0)
(-0.00201544 0.000275693 0)
(-0.00204465 0.00026122 0)
(-0.00207207 0.000246782 0)
(-0.00209766 0.000232434 0)
(-0.0021214 0.00021824 0)
(-0.00214326 0.00020427 0)
(-0.0021632 0.000190606 0)
(-0.00218117 0.000177338 0)
(-0.00219713 0.000164573 0)
(-0.00221101 0.000152428 0)
(-0.00222272 0.000141035 0)
(-0.00223215 0.000130543 0)
(-0.00223915 0.00012111 0)
(-0.00224351 0.000112906 0)
(-0.00224498 0.000106098 0)
(-0.00224321 0.000100838 0)
(-0.00223776 9.72375e-05 0)
(-0.00222808 9.53272e-05 0)
(-0.00221351 9.5002e-05 0)
(-0.00219329 9.59487e-05 0)
(-0.00216663 9.75583e-05 0)
(-0.00213284 9.88085e-05 0)
(-0.00209156 9.82681e-05 0)
(-1.75056e-05 0.000434378 0)
(-7.30216e-05 0.000632216 0)
(-0.000143699 0.000660879 0)
(-0.000210253 0.000662632 0)
(-0.000277883 0.000660778 0)
(-0.000345201 0.000658056 0)
(-0.000412179 0.000654721 0)
(-0.000478784 0.000650795 0)
(-0.000544954 0.000646284 0)
(-0.000610629 0.000641193 0)
(-0.00067575 0.000635527 0)
(-0.000740257 0.000629293 0)
(-0.000804092 0.000622497 0)
(-0.000867198 0.000615149 0)
(-0.000929517 0.000607255 0)
(-0.000990994 0.000598825 0)
(-0.00105157 0.000589868 0)
(-0.0011112 0.000580395 0)
(-0.00116983 0.000570417 0)
(-0.0012274 0.000559945 0)
(-0.00128386 0.000548993 0)
(-0.00133916 0.000537572 0)
(-0.00139326 0.000525698 0)
(-0.0014461 0.000513384 0)
(-0.00149764 0.000500647 0)
(-0.00154784 0.000487503 0)
(-0.00159665 0.000473969 0)
(-0.00164403 0.000460065 0)
(-0.00168994 0.00044581 0)
(-0.00173434 0.000431226 0)
(-0.00177719 0.000416334 0)
(-0.00181845 0.00040116 0)
(-0.00185809 0.000385729 0)
(-0.00189607 0.00037007 0)
(-0.00193237 0.000354212 0)
(-0.00196694 0.000338191 0)
(-0.00199976 0.000322041 0)
(-0.00203079 0.000305804 0)
(-0.00206001 0.000289523 0)
(-0.00208738 0.000273246 0)
(-0.00211286 0.000257029 0)
(-0.00213643 0.000240931 0)
(-0.00215804 0.000225019 0)
(-0.00217764 0.000209369 0)
(-0.0021952 0.000194062 0)
(-0.00221063 0.000179192 0)
(-0.00222387 0.000164859 0)
(-0.00223481 0.000151172 0)
(-0.00224334 0.000138248 0)
(-0.00224929 0.000126207 0)
(-0.00225248 0.000115165 0)
(-0.00225265 0.000105228 0)
(-0.0022495 9.6473e-05 0)
(-0.00224265 8.8927e-05 0)
(-0.00223165 8.25364e-05 0)
(-0.00221602 7.71272e-05 0)
(-0.0021952 7.23578e-05 0)
(-0.0021687 6.76626e-05 0)
(-0.00213614 6.22201e-05 0)
(-0.00209738 5.49772e-05 0)
(-1.76591e-05 0.000479105 0)
(-7.36854e-05 0.000697069 0)
(-0.000145023 0.000728626 0)
(-0.000212194 0.000730551 0)
(-0.000280454 0.000728503 0)
(-0.000348397 0.000725499 0)
(-0.000415998 0.000721818 0)
(-0.00048322 0.000717486 0)
(-0.000550003 0.000712507 0)
(-0.000616285 0.000706888 0)
(-0.000682006 0.000700634 0)
(-0.000747107 0.000693754 0)
(-0.000811528 0.000686254 0)
(-0.000875212 0.000678143 0)
(-0.0009381 0.000669431 0)
(-0.00100014 0.000660126 0)
(-0.00106126 0.00065024 0)
(-0.00112143 0.000639783 0)
(-0.00118058 0.000628769 0)
(-0.00123866 0.000617209 0)
(-0.00129562 0.000605117 0)
(-0.00135141 0.000592508 0)
(-0.00140598 0.000579396 0)
(-0.00145927 0.000565797 0)
(-0.00151125 0.00055173 0)
(-0.00156187 0.00053721 0)
(-0.00161109 0.000522258 0)
(-0.00165885 0.000506893 0)
(-0.00170512 0.000491136 0)
(-0.00174985 0.00047501 0)
(-0.00179301 0.000458538 0)
(-0.00183456 0.000441747 0)
(-0.00187446 0.000424662 0)
(-0.00191268 0.000407315 0)
(-0.00194917 0.000389735 0)
(-0.0019839 0.000371957 0)
(-0.00201685 0.000354018 0)
(-0.00204796 0.000335957 0)
(-0.00207721 0.000317818 0)
(-0.00210456 0.000299649 0)
(-0.00212998 0.000281502 0)
(-0.00215341 0.000263433 0)
(-0.00217482 0.000245505 0)
(-0.00219415 0.000227785 0)
(-0.00221135 0.000210348 0)
(-0.00222633 0.000193272 0)
(-0.00223903 0.000176642 0)
(-0.00224933 0.000160546 0)
(-0.00225712 0.000145074 0)
(-0.00226223 0.000130311 0)
(-0.00226449 0.000116333 0)
(-0.00226367 0.000103199 0)
(-0.00225951 9.09339e-05 0)
(-0.00225169 7.95111e-05 0)
(-0.00223988 6.88318e-05 0)
(-0.00222368 5.86967e-05 0)
(-0.00220275 4.87746e-05 0)
(-0.00217677 3.85727e-05 0)
(-0.00214553 2.74533e-05 0)
(-0.00210903 1.46516e-05 0)
(-1.78279e-05 0.000524254 0)
(-7.44152e-05 0.00076255 0)
(-0.000146478 0.000797031 0)
(-0.000214329 0.000799129 0)
(-0.000283279 0.000796886 0)
(-0.000351911 0.000793596 0)
(-0.000420194 0.000789566 0)
(-0.000488096 0.000784821 0)
(-0.000555552 0.000779369 0)
(-0.000622502 0.000773216 0)
(-0.000688883 0.000766369 0)
(-0.000754637 0.000758834 0)
(-0.000819702 0.000750622 0)
(-0.000884021 0.00074174 0)
(-0.000947534 0.000732199 0)
(-0.00101019 0.000722009 0)
(-0.00107192 0.000711182 0)
(-0.00113267 0.00069973 0)
(-0.0011924 0.000687666 0)
(-0.00125105 0.000675004 0)
(-0.00130856 0.000661759 0)
(-0.00136488 0.000647945 0)
(-0.00141997 0.00063358 0)
(-0.00147376 0.00061868 0)
(-0.00152623 0.000603264 0)
(-0.00157731 0.00058735 0)
(-0.00162697 0.000570959 0)
(-0.00167515 0.000554112 0)
(-0.00172182 0.000536831 0)
(-0.00176694 0.000519139 0)
(-0.00181045 0.000501062 0)
(-0.00185233 0.000482626 0)
(-0.00189252 0.000463859 0)
(-0.001931 0.000444791 0)
(-0.00196773 0.000425454 0)
(-0.00200266 0.000405883 0)
(-0.00203576 0.000386114 0)
(-0.00206699 0.000366186 0)
(-0.00209632 0.000346143 0)
(-0.00212369 0.000326029 0)
(-0.00214908 0.000305895 0)
(-0.00217242 0.000285793 0)
(-0.00219369 0.00026578 0)
(-0.0022128 0.000245918 0)
(-0.00222971 0.000226271 0)
(-0.00224434 0.000206906 0)
(-0.00225659 0.000187892 0)
(-0.00226638 0.0001693 0)
(-0.00227358 0.000151195 0)
(-0.00227804 0.000133638 0)
(-0.00227959 0.000116673 0)
(-0.00227805 0.000100324 0)
(-0.00227319 8.45825e-05 0)
(-0.00226475 6.93921e-05 0)
(-0.00225247 5.4634e-05 0)
(-0.00223607 4.01077e-05 0)
(-0.00221532 2.55105e-05 0)
(-0.00219002 1.04476e-05 0)
(-0.00216007 -5.57425e-06 0)
(-0.0021255 -2.31264e-05 0)
(-1.80122e-05 0.000569865 0)
(-7.52116e-05 0.00082872 0)
(-0.000148065 0.000866157 0)
(-0.000216658 0.00086843 0)
(-0.000286363 0.000865989 0)
(-0.000355745 0.00086241 0)
(-0.000424774 0.000858025 0)
(-0.000493416 0.000852864 0)
(-0.000561608 0.000846933 0)
(-0.000629286 0.000840239 0)
(-0.000696388 0.00083279 0)
(-0.000762854 0.000824593 0)
(-0.000828623 0.000815658 0)
(-0.000893635 0.000805995 0)
(-0.000957831 0.000795615 0)
(-0.00102115 0.000784528 0)
(-0.00108354 0.000772748 0)
(-0.00114495 0.000760288 0)
(-0.00120531 0.000747161 0)
(-0.00126457 0.000733382 0)
(-0.00132268 0.000718968 0)
(-0.00137959 0.000703934 0)
(-0.00143524 0.000688299 0)
(-0.00148959 0.000672079 0)
(-0.00154258 0.000655296 0)
(-0.00159418 0.000637968 0)
(-0.00164432 0.000620117 0)
(-0.00169298 0.000601765 0)
(-0.00174009 0.000582935 0)
(-0.00178562 0.000563653 0)
(-0.00182953 0.000543944 0)
(-0.00187177 0.000523835 0)
(-0.0019123 0.000503355 0)
(-0.00195108 0.000482536 0)
(-0.00198808 0.000461408 0)
(-0.00202324 0.000440006 0)
(-0.00205654 0.000418368 0)
(-0.00208793 0.000396531 0)
(-0.00211737 0.000374537 0)
(-0.00214481 0.000352429 0)
(-0.00217021 0.000330255 0)
(-0.00219353 0.000308063 0)
(-0.0022147 0.000285905 0)
(-0.00223366 0.000263836 0)
(-0.00225036 0.000241911 0)
(-0.00226471 0.000220188 0)
(-0.00227663 0.000198723 0)
(-0.00228603 0.00017757 0)
(-0.00229278 0.000156777 0)
(-0.00229675 0.000136382 0)
(-0.0022978 0.00011641 0)
(-0.00229576 9.68609e-05 0)
(-0.00229044 7.77054e-05 0)
(-0.00228164 5.88729e-05 0)
(-0.00226916 4.02403e-05 0)
(-0.00225281 2.16176e-05 0)
(-0.00223241 2.75438e-06 0)
(-0.00220785 -1.6669e-05 0)
(-0.0021791 -3.70408e-05 0)
(-0.00214626 -5.87987e-05 0)
(-1.8212e-05 0.000615978 0)
(-7.60756e-05 0.000895637 0)
(-0.000149788 0.000936068 0)
(-0.000219184 0.000938517 0)
(-0.000289708 0.000935875 0)
(-0.000359904 0.000932004 0)
(-0.000429743 0.00092726 0)
(-0.000499188 0.000921676 0)
(-0.000568177 0.000915259 0)
(-0.000636645 0.000908017 0)
(-0.000704529 0.000899958 0)
(-0.000771768 0.00089109 0)
(-0.0008383 0.000881423 0)
(-0.000904065 0.000870968 0)
(-0.000969002 0.000859737 0)
(-0.00103305 0.000847741 0)
(-0.00109616 0.000834995 0)
(-0.00115826 0.000821512 0)
(-0.00121931 0.000807307 0)
(-0.00127924 0.000792396 0)
(-0.001338 0.000776796 0)
(-0.00139555 0.000760525 0)
(-0.00145182 0.000743601 0)
(-0.00150677 0.000726043 0)
(-0.00156034 0.000707871 0)
(-0.00161249 0.000689108 0)
(-0.00166317 0.000669774 0)
(-0.00171234 0.000649894 0)
(-0.00175994 0.000629492 0)
(-0.00180593 0.000608594 0)
(-0.00185027 0.000587225 0)
(-0.00189291 0.000565415 0)
(-0.00193382 0.000543192 0)
(-0.00197295 0.000520587 0)
(-0.00201026 0.000497634 0)
(-0.0020457 0.000474366 0)
(-0.00207924 0.000450819 0)
(-0.00211082 0.000427032 0)
(-0.00214042 0.000403043 0)
(-0.00216797 0.000378895 0)
(-0.00219344 0.000354631 0)
(-0.00221677 0.000330298 0)
(-0.00223791 0.000305941 0)
(-0.00225679 0.000281609 0)
(-0.00227336 0.000257351 0)
(-0.00228752 0.000233215 0)
(-0.00229921 0.000209246 0)
(-0.00230833 0.000185485 0)
(-0.00231476 0.000161967 0)
(-0.0023184 0.000138715 0)
(-0.00231911 0.000115737 0)
(-0.00231676 9.30208e-05 0)
(-0.00231117 7.05259e-05 0)
(-0.00230221 4.8177e-05 0)
(-0.00228972 2.58559e-05 0)
(-0.00227356 3.39523e-06 0)
(-0.00225361 -1.94078e-05 0)
(-0.00222982 -4.28212e-05 0)
(-0.0022022 -6.71485e-05 0)
(-0.00217083 -9.27077e-05 0)
(-1.84276e-05 0.000662635 0)
(-7.70078e-05 0.000963365 0)
(-0.000151646 0.00100683 0)
(-0.000221911 0.00100945 0)
(-0.000293318 0.00100661 0)
(-0.000364393 0.00100244 0)
(-0.000435104 0.000997332 0)
(-0.000505417 0.000991319 0)
(-0.000575267 0.00098441 0)
(-0.000644587 0.000976612 0)
(-0.000713316 0.000967934 0)
(-0.000781389 0.000958384 0)
(-0.000848745 0.000947975 0)
(-0.000915321 0.000936717 0)
(-0.000981058 0.000924622 0)
(-0.0010459 0.000911705 0)
(-0.00110977 0.000897978 0)
(-0.00117263 0.000883457 0)
(-0.00123442 0.000868159 0)
(-0.00129508 0.000852099 0)
(-0.00135455 0.000835296 0)
(-0.00141278 0.000817768 0)
(-0.00146972 0.000799536 0)
(-0.00152532 0.000780619 0)
(-0.00157952 0.000761038 0)
(-0.00163228 0.000740817 0)
(-0.00168354 0.000719978 0)
(-0.00173326 0.000698546 0)
(-0.00178139 0.000676546 0)
(-0.00182789 0.000654004 0)
(-0.00187271 0.000630948 0)
(-0.0019158 0.000607406 0)
(-0.00195713 0.000583409 0)
(-0.00199664 0.000558988 0)
(-0.0020343 0.000534175 0)
(-0.00207006 0.000509004 0)
(-0.00210388 0.000483511 0)
(-0.00213571 0.000457733 0)
(-0.00216551 0.000431708 0)
(-0.00219322 0.000405476 0)
(-0.00221881 0.000379078 0)
(-0.00224222 0.000352555 0)
(-0.00226338 0.000325952 0)
(-0.00228225 0.00029931 0)
(-0.00229875 0.000272671 0)
(-0.00231282 0.000246077 0)
(-0.00232437 0.000219563 0)
(-0.00233331 0.000193161 0)
(-0.00233955 0.000166897 0)
(-0.00234298 0.000140781 0)
(-0.0023435 0.000114814 0)
(-0.00234097 8.89733e-05 0)
(-0.00233528 6.32161e-05 0)
(-0.00232631 3.7468e-05 0)
(-0.00231394 1.1619e-05 0)
(-0.00229807 -1.44589e-05 0)
(-0.00227863 -4.09505e-05 0)
(-0.00225559 -6.80651e-05 0)
(-0.00222899 -9.60341e-05 0)
(-0.00219892 -0.000125097 0)
(-1.86592e-05 0.000709878 0)
(-7.80094e-05 0.00103196 0)
(-0.000153643 0.0010785 0)
(-0.00022484 0.00108131 0)
(-0.000297197 0.00107826 0)
(-0.000369216 0.00107379 0)
(-0.000440866 0.00106831 0)
(-0.000512111 0.00106186 0)
(-0.000582884 0.00105445 0)
(-0.000653121 0.00104609 0)
(-0.000722757 0.00103678 0)
(-0.000791727 0.00102654 0)
(-0.000859968 0.00101538 0)
(-0.000927417 0.0010033 0)
(-0.000994014 0.000990331 0)
(-0.0010597 0.000976477 0)
(-0.00112441 0.000961754 0)
(-0.00118808 0.00094618 0)
(-0.00125067 0.000929771 0)
(-0.0013121 0.000912545 0)
(-0.00137234 0.00089452 0)
(-0.00143131 0.000875717 0)
(-0.00148897 0.000856156 0)
(-0.00154527 0.000835858 0)
(-0.00160014 0.000814846 0)
(-0.00165355 0.000793144 0)
(-0.00170544 0.000770775 0)
(-0.00175577 0.000747765 0)
(-0.00180448 0.00072414 0)
(-0.00185153 0.000699928 0)
(-0.00189687 0.000675155 0)
(-0.00194045 0.000649853 0)
(-0.00198224 0.00062405 0)
(-0.00202218 0.000597779 0)
(-0.00206024 0.000571073 0)
(-0.00209636 0.000543964 0)
(-0.00213051 0.000516488 0)
(-0.00216263 0.000488681 0)
(-0.00219268 0.00046058 0)
(-0.00222061 0.000432223 0)
(-0.00224636 0.000403648 0)
(-0.0022699 0.000374895 0)
(-0.00229116 0.000346002 0)
(-0.00231008 0.000317008 0)
(-0.00232659 0.000287949 0)
(-0.00234063 0.00025886 0)
(-0.00235213 0.000229771 0)
(-0.00236099 0.000200706 0)
(-0.00236714 0.000171683 0)
(-0.00237049 0.000142707 0)
(-0.00237092 0.000113772 0)
(-0.00236835 8.48534e-05 0)
(-0.00236268 5.59077e-05 0)
(-0.00235381 2.68668e-05 0)
(-0.00234165 -2.36312e-06 0)
(-0.00232613 -3.18902e-05 0)
(-0.00230722 -6.18666e-05 0)
(-0.0022849 -9.24555e-05 0)
(-0.00225923 -0.000123835 0)
(-0.00223028 -0.000156184 0)
(-1.89069e-05 0.000757748 0)
(-7.90814e-05 0.0011015 0)
(-0.000155781 0.00115115 0)
(-0.000227976 0.00115414 0)
(-0.000301349 0.00115088 0)
(-0.000374378 0.0011461 0)
(-0.000447033 0.00114025 0)
(-0.000519275 0.00113336 0)
(-0.000591039 0.00112544 0)
(-0.000662257 0.00111651 0)
(-0.000732863 0.00110656 0)
(-0.000802793 0.00109562 0)
(-0.000871982 0.00108369 0)
(-0.000940366 0.00107078 0)
(-0.00100788 0.00105692 0)
(-0.00107447 0.00104212 0)
(-0.00114007 0.00102638 0)
(-0.00120462 0.00100974 0)
(-0.00126806 0.0009922 0)
(-0.00133033 0.000973788 0)
(-0.00139138 0.000954522 0)
(-0.00145115 0.000934423 0)
(-0.00150958 0.000913511 0)
(-0.00156663 0.000891811 0)