/*--------------------------------*- C++ -*----------------------------------*\
  =========                 |
  \\      /  F ield         | OpenFOAM: The Open Source CFD Toolbox
   \\    /   O peration     | Website:  https://openfoam.org
    \\  /    A nd           | Version:  8
     \\/     M anipulation  |
\*---------------------------------------------------------------------------*/
FoamFile
{
    version     2.0;
    format      ascii;
    class       surfaceScalarField;
    location    "0.205";
    object      phi;
}
// * * * * * * * * * * * * * * * * * * * * * * * * * * * * * * * * * * * * * //

dimensions      [0 3 -1 0 0 0 0];

internalField   nonuniform List<scalar> 
760
(
1.42393e-08
-1.42406e-08
-2.2204e-08
3.64443e-08
-1.14239e-07
9.20342e-08
-2.45422e-07
1.31183e-07
-3.95978e-07
1.50555e-07
-5.47195e-07
1.51217e-07
-6.82974e-07
1.35779e-07
-7.90409e-07
1.07436e-07
-8.5993e-07
6.9521e-08
-8.85356e-07
2.54261e-08
-8.64043e-07
-2.13128e-08
-7.97136e-07
-6.69072e-08
-6.8987e-07
-1.07266e-07
-5.51806e-07
-1.38065e-07
-3.96828e-07
-1.54978e-07
-2.42684e-07
-1.54144e-07
-1.0971e-07
-1.32974e-07
-1.84188e-08
-9.12908e-08
1.56805e-08
-3.40997e-08
1.56799e-08
-3.41973e-08
1.99557e-08
-1.80307e-07
1.82553e-07
-4.33835e-07
3.45563e-07
-7.64166e-07
4.61514e-07
-1.13182e-06
5.18206e-07
-1.49672e-06
5.16123e-07
-1.8227e-06
4.6176e-07
-2.07981e-06
3.64546e-07
-2.2455e-06
2.35205e-07
-2.30524e-06
8.51736e-08
-2.25313e-06
-7.34299e-08
-2.09234e-06
-2.27698e-07
-1.83564e-06
-3.63961e-07
-1.50554e-06
-4.68168e-07
-1.13371e-06
-5.26809e-07
-7.59275e-07
-5.28577e-07
-4.25265e-07
-4.66985e-07
-1.7264e-07
-3.43917e-07
-3.0795e-08
-1.75946e-07
-1.51151e-08
-9.21869e-08
1.12143e-07
-3.56853e-07
4.47217e-07
-7.64261e-07
7.52971e-07
-1.268e-06
9.65257e-07
-1.81402e-06
1.06422e-06
-2.34817e-06
1.05028e-06
-2.82139e-06
9.34979e-07
-3.19277e-06
7.35924e-07
-3.43135e-06
4.73792e-07
-3.51723e-06
1.71054e-07
-3.44233e-06
-1.48333e-07
-3.21111e-06
-4.58922e-07
-2.84109e-06
-7.33973e-07
-2.36297e-06
-9.46295e-07
-1.81967e-06
-1.0701e-06
-1.26404e-06
-1.08421e-06
-7.54256e-07
-9.76771e-07
-3.46846e-07
-7.51327e-07
-8.73043e-08
-4.35489e-07
-1.02419e-07
-1.45147e-07
2.57289e-07
-5.25247e-07
8.27315e-07
-1.08121e-06
1.30893e-06
-1.74684e-06
1.63089e-06
-2.4534e-06
1.77078e-06
-3.1352e-06
1.73208e-06
-3.73391e-06
1.53368e-06
-4.20137e-06
1.20338e-06
-4.50128e-06
7.73707e-07
-4.61026e-06
2.80037e-07
-4.51864e-06
-2.39956e-07
-4.23123e-06
-7.4633e-07
-3.76804e-06
-1.19717e-06
-3.16453e-06
-1.54981e-06
-2.47101e-06
-1.76362e-06
-1.75045e-06
-1.80477e-06
-1.07413e-06
-1.6531e-06
-5.1495e-07
-1.3105e-06
-1.39262e-07
-8.11177e-07
-2.4168e-07
-1.9353e-07
4.50819e-07
-6.84737e-07
1.31852e-06
-1.38511e-06
2.00931e-06
-2.20645e-06
2.45223e-06
-3.06439e-06
2.62872e-06
-3.88243e-06
2.55012e-06
-4.59492e-06
2.24618e-06
-5.14882e-06
1.75729e-06
-5.50458e-06
1.12947e-06
-5.63663e-06
4.12085e-07
-5.53392e-06
-3.42673e-07
-5.20066e-06
-1.07958e-06
-4.65736e-06
-1.74047e-06
-3.94168e-06
-2.26549e-06
-3.1087e-06
-2.5966e-06
-2.22977e-06
-2.68369e-06
-1.38918e-06
-2.49369e-06
-6.78267e-07
-2.02142e-06
-1.87699e-07
-1.30175e-06
-4.29379e-07
-2.39855e-07
6.90674e-07
-8.4007e-07
1.91874e-06
-1.68275e-06
2.85199e-06
-2.65623e-06
3.42571e-06
-3.65972e-06
3.63221e-06
-4.60638e-06
3.49678e-06
-5.42474e-06
3.06453e-06
-6.05878e-06
2.39133e-06
-6.46747e-06
1.53815e-06
-6.62414e-06
5.68756e-07
-6.51646e-06
-4.50352e-07
-6.14706e-06
-1.44898e-06
-5.53499e-06
-2.35254e-06
-4.71762e-06
-3.08287e-06
-3.75242e-06
-3.56179e-06
-2.71772e-06
-3.71839e-06
-1.71106e-06
-3.50036e-06
-8.44416e-07
-2.88806e-06
-2.36106e-07
-1.91006e-06
-6.65484e-07
-2.86665e-07
9.77338e-07
-9.96827e-07
2.6289e-06
-1.98159e-06
3.83675e-06
-3.10419e-06
4.54831e-06
-4.24694e-06
4.77496e-06
-5.31356e-06
4.5634e-06
-6.22865e-06
3.97963e-06
-6.93555e-06
3.09823e-06
-7.39377e-06
1.99637e-06
-7.57689e-06
7.51867e-07
-7.47147e-06
-5.55769e-07
-7.07753e-06
-1.84292e-06
-6.41047e-06
-3.0196e-06
-5.50439e-06
-3.98895e-06
-4.41611e-06
-4.65007e-06
-3.22868e-06
-4.90582e-06
-2.0525e-06
-4.67653e-06
-1.02231e-06
-3.91826e-06
-2.88212e-07
-2.64415e-06
-9.53696e-07
-3.36266e-07
1.3136e-06
-1.16016e-06
3.4528e-06
-2.28762e-06
4.96421e-06
-3.55439e-06
5.81508e-06
-4.82581e-06
6.04637e-06
-5.99806e-06
5.73565e-06
-6.99486e-06
4.97643e-06
-7.76223e-06
3.8656e-06
-8.26311e-06
2.49726e-06
-8.47322e-06
9.61975e-07
-8.3786e-06
-6.50386e-07
-7.97562e-06
-2.2459e-06
-7.27344e-06
-3.72178e-06
-6.29898e-06
-4.96341e-06
-5.1039e-06
-5.84515e-06
-3.77196e-06
-6.23776e-06
-2.42452e-06
-6.02397e-06
-1.22055e-06
-5.12222e-06
-3.4765e-07
-3.51706e-06
-1.30135e-06
-3.90917e-07
1.70452e-06
-1.33476e-06
4.39664e-06
-2.60473e-06
6.23418e-06
-4.00556e-06
7.21592e-06
-5.3863e-06
7.42711e-06
-6.63911e-06
6.98846e-06
-7.69168e-06
6.029e-06
-8.49763e-06
4.67155e-06
-9.02752e-06
3.02716e-06
-9.26201e-06
1.19646e-06
-9.18776e-06
-7.24642e-07
-8.79664e-06
-2.63701e-06
-8.0886e-06
-4.42982e-06
-7.07837e-06
-5.97364e-06
-5.8058e-06
-7.11773e-06
-4.34865e-06
-7.6949e-06
-2.83456e-06
-7.53807e-06
-1.44696e-06
-6.50982e-06
-4.18058e-07
-4.54596e-06
-1.7194e-06
-4.53442e-07
2.15796e-06
-1.52565e-06
5.46884e-06
-2.93481e-06
7.64334e-06
-4.45e-06
8.73111e-06
-5.90616e-06
8.88327e-06
-7.19761e-06
8.2799e-06
-8.26341e-06
7.09481e-06
-9.07179e-06
5.47992e-06
-9.60657e-06
3.56194e-06
-9.85728e-06
1.44717e-06
-9.8131e-06
-7.68816e-07
-9.46107e-06
-2.98905e-06
-8.78882e-06
-5.10207e-06
-7.79274e-06
-6.96972e-06
-6.49199e-06
-8.41848e-06
-4.9478e-06
-9.2391e-06
-3.28499e-06
-9.20088e-06
-1.70861e-06
-8.0862e-06
-5.03567e-07
-5.75101e-06
-2.22297e-06
-5.28354e-07
2.68632e-06
-1.73972e-06
6.6802e-06
-3.27808e-06
9.1817e-06
-4.87178e-06
1.03248e-05
-6.34721e-06
1.03587e-05
-7.61106e-06
9.54375e-06
-8.62462e-06
8.10837e-06
-9.37996e-06
6.23526e-06
-9.88127e-06
4.06325e-06
-1.01318e-05
1.6977e-06
-1.0126e-05
-7.74586e-07
-9.84655e-06
-3.26853e-06
-9.26616e-06
-5.68245e-06
-8.35647e-06
-7.87942e-06
-7.10479e-06
-9.67016e-06
-5.54075e-06
-1.08031e-05
-3.77073e-06
-1.09709e-05
-2.01218e-06
-9.84475e-06
-6.0969e-07
-7.15349e-06
-2.83266e-06
-6.23714e-07
3.31003e-06
-1.98753e-06
8.04402e-06
-3.63219e-06
1.08264e-05
-5.24234e-06
1.1935e-05
-6.64812e-06
1.17645e-05
-7.78514e-06
1.06808e-05
-8.65177e-06
8.975e-06
-9.27513e-06
6.85862e-06
-9.68739e-06
4.47551e-06
-9.91067e-06
1.92098e-06
-9.94805e-06
-7.37205e-07
-9.77933e-06
-3.43724e-06
-9.36154e-06
-6.10025e-06
-8.63615e-06
-8.6048e-06
-7.54679e-06
-1.07595e-05
-6.07187e-06
-1.22781e-05
-4.27444e-06
-1.27683e-05
-2.36373e-06
-1.17555e-05
-7.448e-07
-8.77242e-06
-3.57746e-06
-7.54148e-07
4.06418e-06
-2.28457e-06
9.57445e-06
-3.98743e-06
1.25292e-05
-5.50973e-06
1.34573e-05
-6.71045e-06
1.29652e-05
-7.57959e-06
1.15499e-05
-8.17123e-06
9.56665e-06
-8.55892e-06
7.2463e-06
-8.80908e-06
4.72567e-06
-8.96641e-06
2.07832e-06
-9.04568e-06
-6.57934e-07
-9.02697e-06
-3.45596e-06
-8.85367e-06
-6.27354e-06
-8.43572e-06
-9.02276e-06
-7.66361e-06
-1.15316e-05
-6.4425e-06
-1.34992e-05
-4.75657e-06
-1.44543e-05
-2.7669e-06
-1.37451e-05
-9.22479e-07
-1.06168e-05
-4.49994e-06
-9.45292e-07
5.00947e-06
-2.64876e-06
1.12779e-05
-4.3115e-06
1.4192e-05
-5.57406e-06
1.47198e-05
-6.37171e-06
1.37628e-05
-6.78453e-06
1.19627e-05
-6.94194e-06
9.72406e-06
-6.97131e-06
7.27568e-06
-6.97444e-06
4.7288e-06
-7.01817e-06
2.12205e-06
-7.13022e-06
-5.45882e-07
-7.29527e-06
-3.29092e-06
-7.44998e-06
-6.11883e-06
-7.47901e-06
-8.99372e-06
-7.21883e-06
-1.17918e-05
-6.48339e-06
-1.42346e-05
-5.13384e-06
-1.58038e-05
-3.21518e-06
-1.56638e-05
-1.16445e-06
-1.26676e-05
-5.66439e-06
-1.2374e-06
6.24687e-06
-3.08357e-06
1.31241e-05
-4.50824e-06
1.56166e-05
-5.23529e-06
1.54469e-05
-5.3563e-06
1.38839e-05
-5.08317e-06
1.16896e-05
-4.63245e-06
9.27333e-06
-4.18098e-06
6.8242e-06
-3.85617e-06
4.404e-06
-3.73886e-06
2.00474e-06
-3.86692e-06
-4.17821e-07
-4.23432e-06
-2.92352e-06
-4.78358e-06
-5.56957e-06
-5.39234e-06
-8.38496e-06
-5.8595e-06
-1.13247e-05
-5.90731e-06
-1.41868e-05
-5.23328e-06
-1.64778e-05
-3.6665e-06
-1.72306e-05
-1.50015e-06
-1.48339e-05
-7.16453e-06
-1.67388e-06
7.92076e-06
-3.51362e-06
1.49638e-05
-4.31579e-06
1.64188e-05
-4.08963e-06
1.52207e-05
-3.19408e-06
1.29883e-05
-2.00003e-06
1.04956e-05
-7.9666e-07
8.06997e-06
2.17644e-07
5.8099e-06
9.16428e-07
3.70521e-06
1.22376e-06
1.69741e-06
1.10026e-06
-2.94316e-07
5.39364e-07
-2.36263e-06
-4.24451e-07
-4.60575e-06
-1.69386e-06
-7.11555e-06
-3.07344e-06
-9.94508e-06
-4.23157e-06
-1.30287e-05
-4.69613e-06
-1.60133e-05
-3.96742e-06
-1.79593e-05
-1.945e-06
-1.68564e-05
-9.10953e-06
-2.23074e-06
1.01515e-05
-3.59049e-06
1.63236e-05
-3.07817e-06
1.59065e-05
-1.34449e-06
1.3487e-05
8.96169e-07
1.07476e-05
3.15386e-06
8.23787e-06
5.13679e-06
6.08704e-06
6.68719e-06
4.2595e-06
7.72422e-06
2.66818e-06
8.2049e-06
1.21674e-06
8.10226e-06
-1.91678e-07
7.3975e-06
-1.65787e-06
6.08548e-06
-3.29373e-06
4.19801e-06
-5.22808e-06
1.85322e-06
-7.60028e-06
-6.62396e-07
-1.0513e-05
-2.79261e-06
-1.38831e-05
-3.66231e-06
-1.70896e-05
-2.41161e-06
-1.81071e-05
-1.15211e-05
-2.57384e-06
1.27253e-05
-2.18357e-06
1.59333e-05
7.17823e-07
1.30051e-05
4.46914e-06
9.73573e-06
8.13266e-06
7.08412e-06
1.13007e-05
5.06979e-06
1.38281e-05
3.5597e-06
1.56869e-05
2.40064e-06
1.68904e-05
1.46471e-06
1.74536e-05
6.53568e-07
1.73751e-05
-1.13178e-07
1.66293e-05
-9.12077e-07
1.51661e-05
-1.83054e-06
1.29226e-05
-2.98458e-06
9.86102e-06
-4.53871e-06
6.06144e-06
-6.71346e-06
1.912e-06
-9.73363e-06
-1.55979e-06
-1.36178e-05
-2.45839e-06
-1.72085e-05
-1.39795e-05
-7.8501e-07
1.35103e-05
4.08076e-06
1.10675e-05
1.02974e-05
6.7884e-06
1.57934e-05
4.23975e-06
2.01577e-05
2.71985e-06
2.34576e-05
1.76989e-06
2.58602e-05
1.15709e-06
2.75208e-05
7.40013e-07
2.85533e-05
4.32269e-07
2.90256e-05
1.81214e-07
2.89614e-05
-4.89725e-08
2.8338e-05
-2.88675e-07
2.70812e-05
-5.73706e-07
2.50545e-05
-9.57914e-07
2.20513e-05
-1.53548e-06
1.78152e-05
-2.47737e-06
1.21722e-05
-4.09064e-06
5.47763e-06
-6.92321e-06
-1.29193e-07
-1.16017e-05
-1.41087e-05
1.35103e-05
2.45779e-05
3.13663e-05
3.5606e-05
3.83259e-05
4.00958e-05
4.12529e-05
4.19929e-05
4.24251e-05
4.26063e-05
4.25574e-05
4.22687e-05
4.1695e-05
4.07371e-05
3.92016e-05
3.67242e-05
3.26336e-05
2.57104e-05
1.41087e-05
)
;

boundaryField
{
    movingWall
    {
        type            calculated;
        value           uniform 0;
    }
    fixedWalls
    {
        type            calculated;
        value           uniform 0;
    }
    frontAndBack
    {
        type            empty;
        value           nonuniform List<scalar> 0();
    }
}


// ************************************************************************* //
