/*--------------------------------*- C++ -*----------------------------------*\
  =========                 |
  \\      /  F ield         | OpenFOAM: The Open Source CFD Toolbox
   \\    /   O peration     | Website:  https://openfoam.org
    \\  /    A nd           | Version:  8
     \\/     M anipulation  |
\*---------------------------------------------------------------------------*/
FoamFile
{
    version     2.0;
    format      ascii;
    class       volVectorField;
    location    "42";
    object      U;
}
// * * * * * * * * * * * * * * * * * * * * * * * * * * * * * * * * * * * * * //

dimensions      [0 1 -1 0 0 0 0];

internalField   nonuniform List<vector> 
11600
(
(-2.76495e-06 2.61023e-06 0)
(-4.33373e-05 1.55899e-05 0)
(-0.000116729 2.08064e-05 0)
(-0.000192653 2.24654e-05 0)
(-0.000273461 2.26322e-05 0)
(-0.000354364 2.2465e-05 0)
(-0.000435229 2.23486e-05 0)
(-0.000516102 2.23186e-05 0)
(-0.000597042 2.23467e-05 0)
(-0.000678106 2.24088e-05 0)
(-0.000759339 2.24911e-05 0)
(-0.000840769 2.2587e-05 0)
(-0.00092242 2.26934e-05 0)
(-0.00100431 2.28087e-05 0)
(-0.00108645 2.29321e-05 0)
(-0.00116886 2.30627e-05 0)
(-0.00125155 2.31999e-05 0)
(-0.00133454 2.33432e-05 0)
(-0.00141782 2.34919e-05 0)
(-0.0015014 2.36453e-05 0)
(-0.0015853 2.38027e-05 0)
(-0.00166951 2.39635e-05 0)
(-0.00175403 2.41267e-05 0)
(-0.00183887 2.42915e-05 0)
(-0.00192401 2.4457e-05 0)
(-0.00200945 2.46222e-05 0)
(-0.00209518 2.47862e-05 0)
(-0.00218118 2.49479e-05 0)
(-0.00226745 2.51062e-05 0)
(-0.00235396 2.52598e-05 0)
(-0.00244069 2.54077e-05 0)
(-0.00252762 2.55486e-05 0)
(-0.00261473 2.56813e-05 0)
(-0.00270198 2.58044e-05 0)
(-0.00278934 2.59169e-05 0)
(-0.00287678 2.60174e-05 0)
(-0.00296427 2.61049e-05 0)
(-0.00305177 2.61781e-05 0)
(-0.00313925 2.62362e-05 0)
(-0.00322667 2.62782e-05 0)
(-0.00331402 2.63034e-05 0)
(-0.00340127 2.63111e-05 0)
(-0.0034884 2.63007e-05 0)
(-0.00357542 2.62712e-05 0)
(-0.00366234 2.62211e-05 0)
(-0.0037492 2.61466e-05 0)
(-0.00383606 2.60397e-05 0)
(-0.00392303 2.58819e-05 0)
(-0.00401024 2.5632e-05 0)
(-0.00409783 2.51982e-05 0)
(-0.00418596 2.43786e-05 0)
(-0.00427464 2.27453e-05 0)
(-0.00436351 1.94372e-05 0)
(-0.00445177 1.27782e-05 0)
(-0.00454093 1.87666e-07 0)
(-0.00463436 -1.67561e-05 0)
(-0.00468488 -1.77561e-05 0)
(-0.00503893 2.31446e-05 0)
(-0.00501795 0.000631672 0)
(-0.00750441 0.00226252 0)
(-1.62587e-05 4.3518e-05 0)
(-0.000104407 0.000102889 0)
(-0.00024615 0.000128559 0)
(-0.000393809 0.000138434 0)
(-0.000550465 0.000141337 0)
(-0.000708466 0.000141954 0)
(-0.00086695 0.000142076 0)
(-0.0010257 0.000142184 0)
(-0.00118461 0.000142363 0)
(-0.0013437 0.000142606 0)
(-0.00150298 0.000142899 0)
(-0.00166246 0.000143228 0)
(-0.00182218 0.000143589 0)
(-0.00198214 0.000143975 0)
(-0.00214235 0.000144383 0)
(-0.00230283 0.00014481 0)
(-0.00246357 0.000145254 0)
(-0.00262459 0.00014571 0)
(-0.00278588 0.000146177 0)
(-0.00294743 0.00014665 0)
(-0.00310925 0.000147126 0)
(-0.00327132 0.000147601 0)
(-0.00343363 0.000148073 0)
(-0.00359616 0.000148536 0)
(-0.00375889 0.000148987 0)
(-0.00392179 0.00014942 0)
(-0.00408485 0.000149833 0)
(-0.00424801 0.000150219 0)
(-0.00441125 0.000150575 0)
(-0.00457453 0.000150896 0)
(-0.0047378 0.000151178 0)
(-0.00490101 0.000151415 0)
(-0.00506411 0.000151605 0)
(-0.00522705 0.000151744 0)
(-0.00538978 0.000151829 0)
(-0.00555223 0.000151858 0)
(-0.00571436 0.000151832 0)
(-0.00587612 0.000151752 0)
(-0.00603746 0.000151621 0)
(-0.00619836 0.000151447 0)
(-0.00635879 0.00015124 0)
(-0.00651877 0.000151016 0)
(-0.00667833 0.000150798 0)
(-0.00683755 0.000150617 0)
(-0.00699656 0.000150514 0)
(-0.00715558 0.000150545 0)
(-0.00731492 0.00015078 0)
(-0.00747504 0.000151312 0)
(-0.00763661 0.000152251 0)
(-0.00780062 0.000153724 0)
(-0.00796846 0.000155856 0)
(-0.00814229 0.000158762 0)
(-0.00832556 0.000162615 0)
(-0.00852468 0.000168076 0)
(-0.00875129 0.000178651 0)
(-0.00902113 0.000210913 0)
(-0.00936634 0.000312469 0)
(-0.00996789 0.000552118 0)
(-0.0104784 0.00146573 0)
(-0.0119047 0.00276172 0)
(-2.20993e-05 0.000118791 0)
(-0.000132418 0.000245562 0)
(-0.000306264 0.000301346 0)
(-0.000486596 0.000323568 0)
(-0.000677252 0.000331058 0)
(-0.000869527 0.000333258 0)
(-0.00106238 0.000333923 0)
(-0.00125553 0.000334271 0)
(-0.00144884 0.000334621 0)
(-0.00164226 0.000335032 0)
(-0.00183581 0.000335504 0)
(-0.00202949 0.000336026 0)
(-0.00222332 0.00033659 0)
(-0.00241728 0.000337187 0)
(-0.00261138 0.000337812 0)
(-0.00280563 0.000338457 0)
(-0.003 0.000339116 0)
(-0.00319451 0.000339784 0)
(-0.00338913 0.000340454 0)
(-0.00358384 0.000341119 0)
(-0.00377864 0.000341771 0)
(-0.0039735 0.000342403 0)
(-0.0041684 0.000343007 0)
(-0.00436329 0.000343576 0)
(-0.00455816 0.000344099 0)
(-0.00475296 0.000344569 0)
(-0.00494764 0.000344976 0)
(-0.00514217 0.000345312 0)
(-0.00533649 0.000345568 0)
(-0.00553055 0.000345734 0)
(-0.00572429 0.000345804 0)
(-0.00591765 0.000345769 0)
(-0.00611056 0.000345623 0)
(-0.00630296 0.000345362 0)
(-0.00649478 0.000344983 0)
(-0.00668596 0.000344487 0)
(-0.00687644 0.000343878 0)
(-0.00706616 0.000343166 0)
(-0.00725509 0.000342367 0)
(-0.00744318 0.000341506 0)
(-0.00763044 0.000340619 0)
(-0.00781689 0.000339757 0)
(-0.00800258 0.00033899 0)
(-0.00818765 0.000338414 0)
(-0.00837228 0.00033816 0)
(-0.00855676 0.000338402 0)
(-0.00874152 0.000339382 0)
(-0.0089272 0.000341424 0)
(-0.00911466 0.000344983 0)
(-0.00930517 0.000350703 0)
(-0.00950055 0.000359541 0)
(-0.00970347 0.000373035 0)
(-0.00991807 0.000393924 0)
(-0.0101511 0.0004278 0)
(-0.0104129 0.000487412 0)
(-0.0107166 0.000601395 0)
(-0.0110862 0.000825026 0)
(-0.0115703 0.00126307 0)
(-0.0119288 0.0021905 0)
(-0.0125357 0.00343109 0)
(-2.41879e-05 0.000197969 0)
(-0.000143989 0.000396049 0)
(-0.000331731 0.000482672 0)
(-0.000525506 0.000516856 0)
(-0.000729985 0.000528572 0)
(-0.000936023 0.000532155 0)
(-0.00114263 0.000533273 0)
(-0.00134954 0.000533801 0)
(-0.0015566 0.000534262 0)
(-0.00176374 0.000534767 0)
(-0.00197097 0.00053533 0)
(-0.00217828 0.000535942 0)
(-0.00238567 0.000536594 0)
(-0.00259312 0.000537275 0)
(-0.00280064 0.000537978 0)
(-0.0030082 0.000538692 0)
(-0.00321581 0.000539409 0)
(-0.00342344 0.00054012 0)
(-0.00363108 0.000540816 0)
(-0.00383871 0.000541484 0)
(-0.00404629 0.000542116 0)
(-0.00425381 0.0005427 0)
(-0.00446122 0.000543223 0)
(-0.0046685 0.000543674 0)
(-0.00487559 0.00054404 0)
(-0.00508246 0.000544308 0)
(-0.00528906 0.000544466 0)
(-0.00549534 0.000544499 0)
(-0.00570123 0.000544395 0)
(-0.00590667 0.000544142 0)
(-0.00611161 0.000543728 0)
(-0.00631596 0.000543144 0)
(-0.00651967 0.000542382 0)
(-0.00672265 0.000541436 0)
(-0.00692484 0.000540305 0)
(-0.00712617 0.000538992 0)
(-0.00732656 0.000537508 0)
(-0.00752597 0.00053587 0)
(-0.00772433 0.000534109 0)
(-0.00792162 0.000532268 0)
(-0.00811783 0.00053041 0)
(-0.00831296 0.000528622 0)
(-0.00850709 0.000527024 0)
(-0.00870032 0.00052578 0)
(-0.00889285 0.000525108 0)
(-0.00908495 0.000525308 0)
(-0.00927708 0.000526784 0)
(-0.00946983 0.000530094 0)
(-0.00966409 0.000536009 0)
(-0.00986113 0.00054563 0)
(-0.0100627 0.000560571 0)
(-0.0102714 0.000583321 0)
(-0.0104909 0.000617964 0)
(-0.0107263 0.000671762 0)
(-0.0109836 0.000758463 0)
(-0.0112681 0.000903375 0)
(-0.0115824 0.00114869 0)
(-0.0119044 0.00156583 0)
(-0.0120979 0.00227142 0)
(-0.0121973 0.00311439 0)
(-2.45434e-05 0.000282737 0)
(-0.000147723 0.00055651 0)
(-0.000340893 0.000675325 0)
(-0.000539703 0.000721828 0)
(-0.000749344 0.000737879 0)
(-0.000960414 0.000742897 0)
(-0.00117201 0.000744498 0)
(-0.00138388 0.000745223 0)
(-0.00159587 0.000745793 0)
(-0.00180795 0.000746379 0)
(-0.00202009 0.00074701 0)
(-0.00223229 0.000747681 0)
(-0.00244453 0.000748383 0)
(-0.00265682 0.000749106 0)
(-0.00286913 0.00074984 0)
(-0.00308147 0.000750571 0)
(-0.0032938 0.000751291 0)
(-0.00350611 0.000751985 0)
(-0.00371838 0.000752641 0)
(-0.0039306 0.000753245 0)
(-0.00414272 0.000753783 0)
(-0.00435472 0.00075424 0)
(-0.00456656 0.000754601 0)
(-0.00477821 0.000754848 0)
(-0.00498961 0.000754965 0)
(-0.00520073 0.000754935 0)
(-0.00541151 0.000754741 0)
(-0.0056219 0.000754365 0)
(-0.00583182 0.00075379 0)
(-0.00604123 0.000753 0)
(-0.00625004 0.000751981 0)
(-0.00645819 0.000750719 0)
(-0.00666561 0.000749205 0)
(-0.00687221 0.000747432 0)
(-0.00707792 0.0007454 0)
(-0.00728265 0.000743114 0)
(-0.00748634 0.000740589 0)
(-0.00768891 0.000737852 0)
(-0.00789031 0.000734944 0)
(-0.00809048 0.000731928 0)
(-0.00828939 0.000728889 0)
(-0.00848703 0.000725951 0)
(-0.00868342 0.000723277 0)
(-0.00887865 0.000721093 0)
(-0.00907283 0.000719702 0)
(-0.00926618 0.000719514 0)
(-0.00945901 0.000721087 0)
(-0.00965176 0.000725183 0)
(-0.00984507 0.000732863 0)
(-0.0100398 0.000745627 0)
(-0.0102371 0.000765642 0)
(-0.0104384 0.000796137 0)
(-0.0106455 0.000842073 0)
(-0.0108605 0.000911359 0)
(-0.0110839 0.00101677 0)
(-0.0113136 0.00117816 0)
(-0.0115394 0.0014243 0)
(-0.011726 0.0017944 0)
(-0.0117942 0.00231834 0)
(-0.0117087 0.00291659 0)
(-2.43978e-05 0.000367865 0)
(-0.000148527 0.000718782 0)
(-0.000343563 0.000870137 0)
(-0.000544055 0.000928925 0)
(-0.000755449 0.000949192 0)
(-0.000968174 0.000955547 0)
(-0.00118137 0.000957578 0)
(-0.00139483 0.000958472 0)
(-0.00160841 0.000959138 0)
(-0.00182205 0.000959795 0)
(-0.00203577 0.000960483 0)
(-0.00224953 0.000961202 0)
(-0.00246335 0.000961943 0)
(-0.00267719 0.000962694 0)
(-0.00289106 0.000963442 0)
(-0.00310494 0.000964175 0)
(-0.00331881 0.000964877 0)
(-0.00353266 0.000965535 0)
(-0.00374647 0.000966131 0)
(-0.0039602 0.000966649 0)
(-0.00417383 0.000967071 0)
(-0.00438733 0.000967378 0)
(-0.00460067 0.00096755 0)
(-0.0048138 0.000967568 0)
(-0.00502668 0.000967409 0)
(-0.00523927 0.000967053 0)
(-0.0054515 0.000966477 0)
(-0.00566332 0.000965659 0)
(-0.00587467 0.00096458 0)
(-0.00608548 0.000963217 0)
(-0.00629568 0.000961552 0)
(-0.0065052 0.00095957 0)
(-0.00671395 0.000957257 0)
(-0.00692185 0.000954605 0)
(-0.00712882 0.000951611 0)
(-0.00733478 0.000948283 0)
(-0.00753962 0.000944638 0)
(-0.00774328 0.000940706 0)
(-0.00794567 0.000936539 0)
(-0.00814671 0.000932209 0)
(-0.00834635 0.000927822 0)
(-0.00854454 0.000923523 0)
(-0.00874124 0.000919508 0)
(-0.00893646 0.000916046 0)
(-0.00913024 0.000913494 0)
(-0.00932266 0.000912333 0)
(-0.00951385 0.000913211 0)
(-0.00970403 0.000917001 0)
(-0.00989345 0.000924894 0)
(-0.0100825 0.000938528 0)
(-0.0102715 0.000960184 0)
(-0.0104608 0.000993081 0)
(-0.0106506 0.00104183 0)
(-0.01084 0.00111309 0)
(-0.0110265 0.0012164 0)
(-0.0112034 0.00136478 0)
(-0.0113561 0.00157457 0)
(-0.0114534 0.00186263 0)
(-0.0114481 0.00222909 0)
(-0.011299 0.00263021 0)
(-2.42117e-05 0.000452911 0)
(-0.000148465 0.00088156 0)
(-0.000344001 0.00106561 0)
(-0.00054496 0.00113671 0)
(-0.000756881 0.00116115 0)
(-0.000970083 0.0011688 0)
(-0.00118374 0.00117123 0)
(-0.00139763 0.00117228 0)
(-0.00161164 0.00117304 0)
(-0.00182573 0.00117377 0)
(-0.00203988 0.00117452 0)
(-0.00225409 0.00117529 0)
(-0.00246836 0.00117607 0)
(-0.00268266 0.00117685 0)
(-0.002897 0.00117762 0)
(-0.00311136 0.00117836 0)
(-0.00332572 0.00117905 0)
(-0.00354006 0.00117967 0)
(-0.00375437 0.00118021 0)
(-0.00396862 0.00118065 0)
(-0.00418279 0.00118096 0)
(-0.00439683 0.00118113 0)
(-0.00461072 0.00118112 0)
(-0.00482443 0.00118091 0)
(-0.00503789 0.00118048 0)
(-0.00525107 0.0011798 0)
(-0.00546391 0.00117885 0)
(-0.00567635 0.0011776 0)
(-0.00588834 0.00117601 0)
(-0.0060998 0.00117408 0)
(-0.00631065 0.00117177 0)
(-0.00652083 0.00116906 0)
(-0.00673024 0.00116594 0)
(-0.00693879 0.00116239 0)
(-0.00714641 0.00115841 0)
(-0.00735298 0.001154 0)
(-0.0075584 0.00114918 0)
(-0.00776259 0.00114399 0)
(-0.00796542 0.00113847 0)
(-0.00816681 0.0011327 0)
(-0.00836665 0.0011268 0)
(-0.00856485 0.00112093 0)
(-0.00876132 0.00111529 0)
(-0.00895597 0.00111017 0)
(-0.00914873 0.00110596 0)
(-0.00933955 0.00110317 0)
(-0.00952836 0.00110246 0)
(-0.00971511 0.00110474 0)
(-0.0098997 0.0011112 0)
(-0.010082 0.00112343 0)
(-0.0102616 0.00114357 0)
(-0.0104381 0.00117449 0)
(-0.01061 0.00122003 0)
(-0.0107751 0.00128528 0)
(-0.0109289 0.00137674 0)
(-0.0110635 0.00150212 0)
(-0.0111648 0.00166925 0)
(-0.0112101 0.00188239 0)
(-0.0111699 0.0021328 0)
(-0.0110163 0.00239236 0)
(-2.40653e-05 0.00053777 0)
(-0.000148195 0.00104442 0)
(-0.000343759 0.00126128 0)
(-0.000544785 0.00134473 0)
(-0.000756823 0.00137335 0)
(-0.000970127 0.00138228 0)
(-0.00118387 0.0013851 0)
(-0.00139786 0.0013863 0)
(-0.00161196 0.00138716 0)
(-0.00182614 0.00138796 0)
(-0.00204039 0.00138878 0)
(-0.00225471 0.00138961 0)
(-0.0024691 0.00139044 0)
(-0.00268354 0.00139127 0)
(-0.00289803 0.00139207 0)
(-0.00311255 0.00139282 0)
(-0.00332709 0.00139351 0)
(-0.00354163 0.00139412 0)
(-0.00375616 0.00139462 0)
(-0.00397065 0.001395 0)
(-0.00418507 0.00139522 0)
(-0.0043994 0.00139525 0)
(-0.0046136 0.00139508 0)
(-0.00482763 0.00139467 0)
(-0.00504145 0.00139399 0)
(-0.00525501 0.00139302 0)
(-0.00546826 0.00139171 0)
(-0.00568113 0.00139004 0)
(-0.00589358 0.00138797 0)
(-0.00610552 0.00138548 0)
(-0.00631687 0.00138254 0)
(-0.00652757 0.00137911 0)
(-0.00673752 0.00137519 0)
(-0.00694661 0.00137074 0)
(-0.00715477 0.00136576 0)
(-0.00736186 0.00136025 0)
(-0.00756779 0.00135422 0)
(-0.00777243 0.0013477 0)
(-0.00797565 0.00134074 0)
(-0.00817733 0.00133342 0)
(-0.00837732 0.00132584 0)
(-0.00857547 0.00131816 0)
(-0.00877164 0.0013106 0)
(-0.00896565 0.00130344 0)
(-0.00915733 0.00129704 0)
(-0.00934648 0.00129192 0)
(-0.00953283 0.0012887 0)
(-0.0097161 0.00128825 0)
(-0.00989588 0.00129164 0)
(-0.0100716 0.0013003 0)
(-0.0102424 0.00131605 0)
(-0.010407 0.0013412 0)
(-0.0105634 0.00137864 0)
(-0.0107084 0.00143188 0)
(-0.010837 0.00150487 0)
(-0.0109417 0.00160151 0)
(-0.0110109 0.00172444 0)
(-0.0110288 0.0018723 0)
(-0.0109773 0.00203515 0)
(-0.0108402 0.00219256 0)
(-2.39489e-05 0.000622413 0)
(-0.000147884 0.00120716 0)
(-0.000343321 0.00145689 0)
(-0.000544288 0.00155277 0)
(-0.000756311 0.00158557 0)
(-0.000969603 0.00159578 0)
(-0.00118334 0.00159899 0)
(-0.00139732 0.00160035 0)
(-0.00161141 0.0016013 0)
(-0.00182559 0.00160218 0)
(-0.00203985 0.00160308 0)
(-0.0022542 0.00160398 0)
(-0.00246862 0.00160488 0)
(-0.00268311 0.00160576 0)
(-0.00289767 0.00160661 0)
(-0.00311228 0.0016074 0)
(-0.00332693 0.00160812 0)
(-0.0035416 0.00160873 0)
(-0.00375629 0.00160922 0)
(-0.00397096 0.00160955 0)
(-0.00418559 0.0016097 0)
(-0.00440015 0.00160964 0)
(-0.00461462 0.00160933 0)
(-0.00482895 0.00160875 0)
(-0.0050431 0.00160785 0)
(-0.00525702 0.00160661 0)
(-0.00547067 0.00160497 0)
(-0.00568398 0.00160292 0)
(-0.00589688 0.0016004 0)
(-0.00610932 0.00159738 0)
(-0.0063212 0.00159383 0)
(-0.00653245 0.00158971 0)
(-0.00674297 0.00158499 0)
(-0.00695266 0.00157965 0)
(-0.00716141 0.00157367 0)
(-0.0073691 0.00156704 0)
(-0.00757561 0.00155977 0)
(-0.00778079 0.00155187 0)
(-0.00798449 0.00154339 0)
(-0.00818655 0.00153439 0)
(-0.0083868 0.00152497 0)
(-0.00858504 0.00151528 0)
(-0.00878104 0.0015055 0)
(-0.00897457 0.00149589 0)
(-0.00916535 0.00148681 0)
(-0.00935304 0.00147869 0)
(-0.00953723 0.0014721 0)
(-0.00971743 0.0014678 0)
(-0.00989298 0.00146669 0)
(-0.010063 0.00146994 0)
(-0.0102263 0.00147897 0)
(-0.0103812 0.0014955 0)
(-0.0105253 0.00152152 0)
(-0.0106553 0.00155917 0)
(-0.0107663 0.00161052 0)
(-0.0108519 0.00167701 0)
(-0.0109031 0.00175845 0)
(-0.0109093 0.00185136 0)
(-0.0108593 0.00194677 0)
(-0.0107446 0.0020297 0)
(-2.38448e-05 0.000706843 0)
(-0.000147559 0.0013697 0)
(-0.000342813 0.00165238 0)
(-0.00054368 0.00176073 0)
(-0.000755641 0.00179774 0)
(-0.000968882 0.00180924 0)
(-0.00118258 0.00181285 0)
(-0.00139652 0.00181436 0)
(-0.00161058 0.00181541 0)
(-0.00182473 0.00181639 0)
(-0.00203899 0.00181737 0)
(-0.00225334 0.00181836 0)
(-0.00246778 0.00181935 0)
(-0.00268231 0.00182031 0)
(-0.00289692 0.00182122 0)
(-0.00311161 0.00182207 0)
(-0.00332636 0.00182283 0)
(-0.00354117 0.00182347 0)
(-0.00375601 0.00182397 0)
(-0.00397086 0.00182429 0)
(-0.00418571 0.00182441 0)
(-0.00440053 0.00182428 0)
(-0.00461528 0.00182387 0)
(-0.00482993 0.00182315 0)
(-0.00504444 0.00182207 0)
(-0.00525876 0.00182059 0)
(-0.00547285 0.00181867 0)
(-0.00568663 0.00181626 0)
(-0.00590006 0.00181332 0)
(-0.00611306 0.00180981 0)
(-0.00632554 0.00180568 0)
(-0.00653742 0.0018009 0)
(-0.0067486 0.00179541 0)
(-0.00695898 0.0017892 0)
(-0.00716844 0.00178222 0)
(-0.00737684 0.00177447 0)
(-0.00758405 0.00176593 0)
(-0.00778992 0.00175661 0)
(-0.00799425 0.00174654 0)
(-0.00819688 0.00173576 0)
(-0.00839757 0.00172436 0)
(-0.0085961 0.00171245 0)
(-0.00879219 0.00170018 0)
(-0.00898552 0.00168779 0)
(-0.00917573 0.00167555 0)
(-0.00936237 0.00166385 0)
(-0.00954493 0.00165315 0)
(-0.00972274 0.00164405 0)
(-0.00989498 0.00163728 0)
(-0.0100606 0.0016337 0)
(-0.0102181 0.00163434 0)
(-0.0103658 0.00164036 0)
(-0.0105011 0.00165296 0)
(-0.0106209 0.00167327 0)
(-0.0107209 0.00170205 0)
(-0.0107956 0.00173928 0)
(-0.0108387 0.0017834 0)
(-0.0108428 0.0018304 0)
(-0.0108011 0.00187285 0)
(-0.0107094 0.00189979 0)
(-2.37413e-05 0.000791057 0)
(-0.000147215 0.00153202 0)
(-0.000342259 0.00184772 0)
(-0.000543005 0.0019686 0)
(-0.000754882 0.00200985 0)
(-0.000968056 0.00202265 0)
(-0.00118169 0.00202666 0)
(-0.00139558 0.00202833 0)
(-0.0016096 0.00202949 0)
(-0.00182373 0.00203058 0)
(-0.00203797 0.00203166 0)
(-0.00225232 0.00203275 0)
(-0.00246678 0.00203384 0)
(-0.00268135 0.00203489 0)
(-0.00289602 0.0020359 0)
(-0.0031108 0.00203683 0)
(-0.00332566 0.00203766 0)
(-0.00354061 0.00203836 0)
(-0.00375562 0.0020389 0)
(-0.00397068 0.00203925 0)
(-0.00418577 0.00203936 0)
(-0.00440086 0.0020392 0)
(-0.00461593 0.00203873 0)
(-0.00483093 0.00203791 0)
(-0.00504585 0.00203668 0)
(-0.00526062 0.00203501 0)
(-0.00547519 0.00203285 0)
(-0.00568952 0.00203013 0)
(-0.00590354 0.00202682 0)
(-0.00611717 0.00202286 0)
(-0.00633034 0.0020182 0)
(-0.00654294 0.00201278 0)
(-0.0067549 0.00200656 0)
(-0.00696608 0.0019995 0)
(-0.00717637 0.00199155 0)
(-0.00738563 0.00198268 0)
(-0.0075937 0.00197287 0)
(-0.00780042 0.0019621 0)
(-0.00800558 0.00195039 0)
(-0.00820898 0.00193775 0)
(-0.00841037 0.00192424 0)
(-0.00860946 0.00190994 0)
(-0.00880595 0.00189497 0)
(-0.00899945 0.00187949 0)
(-0.00918954 0.00186373 0)
(-0.00937569 0.00184796 0)
(-0.00955729 0.00183255 0)
(-0.00973357 0.00181793 0)
(-0.0099036 0.00180462 0)
(-0.0100662 0.00179321 0)
(-0.0102199 0.00178437 0)
(-0.0103629 0.00177875 0)
(-0.0104927 0.00177696 0)
(-0.0106065 0.00177938 0)
(-0.0107007 0.00178595 0)
(-0.0107709 0.00179581 0)
(-0.0108124 0.00180689 0)
(-0.0108203 0.00181534 0)
(-0.0107904 0.00181518 0)
(-0.0107206 0.00179844 0)
(-2.36318e-05 0.000875044 0)
(-0.000146844 0.0016941 0)
(-0.000341656 0.00204289 0)
(-0.000542267 0.00217636 0)
(-0.000754045 0.00222187 0)
(-0.00096714 0.00223599 0)
(-0.00118071 0.0022404 0)
(-0.00139454 0.00224226 0)
(-0.00160852 0.00224354 0)
(-0.00182261 0.00224474 0)
(-0.00203683 0.00224594 0)
(-0.00225118 0.00224716 0)
(-0.00246566 0.00224836 0)
(-0.00268027 0.00224953 0)
(-0.00289501 0.00225066 0)
(-0.00310987 0.0022517 0)
(-0.00332486 0.00225263 0)
(-0.00353996 0.00225342 0)
(-0.00375516 0.00225403 0)
(-0.00397044 0.00225443 0)
(-0.00418579 0.00225458 0)
(-0.00440119 0.00225443 0)
(-0.00461661 0.00225394 0)
(-0.00483201 0.00225306 0)
(-0.00504737 0.00225175 0)
(-0.00526264 0.00224993 0)
(-0.00547777 0.00224757 0)
(-0.0056927 0.00224461 0)
(-0.00590738 0.00224097 0)
(-0.00612173 0.00223661 0)
(-0.00633566 0.00223146 0)
(-0.0065491 0.00222547 0)
(-0.00676193 0.00221856 0)
(-0.00697404 0.00221069 0)
(-0.00718531 0.00220179 0)
(-0.00739557 0.00219182 0)
(-0.00760468 0.00218075 0)
(-0.00781245 0.00216852 0)
(-0.00801866 0.00215514 0)
(-0.00822308 0.00214059 0)
(-0.00842544 0.00212489 0)
(-0.00862542 0.00210808 0)
(-0.00882269 0.00209023 0)
(-0.00901681 0.00207145 0)
(-0.0092073 0.00205187 0)
(-0.0093936 0.00203169 0)
(-0.00957501 0.00201113 0)
(-0.00975073 0.00199048 0)
(-0.00991975 0.00197005 0)
(-0.0100809 0.00195019 0)
(-0.0102326 0.00193123 0)
(-0.0103733 0.00191346 0)
(-0.0105006 0.00189701 0)
(-0.010612 0.00188176 0)
(-0.0107045 0.00186714 0)
(-0.0107748 0.0018519 0)
(-0.0108193 0.00183384 0)
(-0.0108346 0.00180954 0)
(-0.0108181 0.00177428 0)
(-0.0107688 0.00172222 0)
(-2.35135e-05 0.000958785 0)
(-0.00014644 0.00185591 0)
(-0.000340999 0.00223787 0)
(-0.00054146 0.00238399 0)
(-0.000753126 0.0024338 0)
(-0.00096613 0.00244925 0)
(-0.00117962 0.00245409 0)
(-0.00139339 0.00245612 0)
(-0.00160731 0.00245754 0)
(-0.00182137 0.00245888 0)
(-0.00203556 0.00246022 0)
(-0.00224991 0.00246157 0)
(-0.00246441 0.00246291 0)
(-0.00267906 0.00246423 0)
(-0.00289387 0.00246549 0)
(-0.00310883 0.00246667 0)
(-0.00332395 0.00246773 0)
(-0.00353921 0.00246865 0)
(-0.00375461 0.00246937 0)
(-0.00397013 0.00246987 0)
(-0.00418577 0.0024701 0)
(-0.0044015 0.00247 0)
(-0.0046173 0.00246954 0)
(-0.00483314 0.00246866 0)
(-0.00504898 0.0024673 0)
(-0.0052648 0.0024654 0)
(-0.00548053 0.00246291 0)
(-0.00569613 0.00245974 0)
(-0.00591154 0.00245585 0)
(-0.00612669 0.00245115 0)
(-0.00634149 0.00244558 0)
(-0.00655586 0.00243906 0)
(-0.00676969 0.00243152 0)
(-0.00698286 0.00242289 0)
(-0.00719524 0.0024131 0)
(-0.00740668 0.00240208 0)
(-0.00761701 0.00238976 0)
(-0.00782603 0.00237611 0)
(-0.00803353 0.00236105 0)
(-0.00823924 0.00234457 0)
(-0.00844289 0.00232663 0)
(-0.00864413 0.00230724 0)
(-0.00884259 0.00228641 0)
(-0.00903782 0.00226418 0)
(-0.00922931 0.0022406 0)
(-0.00941644 0.00221577 0)
(-0.00959851 0.00218979 0)
(-0.00977466 0.0021628 0)
(-0.0099439 0.00213493 0)
(-0.010105 0.00210631 0)
(-0.0102567 0.002077 0)
(-0.0103971 0.00204699 0)
(-0.0105244 0.00201608 0)
(-0.0106364 0.00198383 0)
(-0.0107306 0.00194937 0)
(-0.0108043 0.00191129 0)
(-0.0108548 0.00186749 0)
(-0.0108799 0.00181503 0)
(-0.0108777 0.00175018 0)
(-0.0108478 0.00166862 0)
(-2.33846e-05 0.00104226 0)
(-0.000145999 0.00201743 0)
(-0.00034028 0.00243264 0)
(-0.000540577 0.00259148 0)
(-0.000752116 0.00264562 0)
(-0.000965017 0.00266242 0)
(-0.00117842 0.00266769 0)
(-0.00139211 0.00266993 0)
(-0.00160597 0.0026715 0)
(-0.00181998 0.00267298 0)
(-0.00203415 0.00267447 0)
(-0.00224849 0.00267598 0)
(-0.002463 0.00267749 0)
(-0.00267769 0.00267898 0)
(-0.00289257 0.00268041 0)
(-0.00310763 0.00268176 0)
(-0.00332289 0.00268299 0)
(-0.00353832 0.00268406 0)
(-0.00375393 0.00268494 0)
(-0.00396972 0.00268558 0)
(-0.00418566 0.00268593 0)
(-0.00440175 0.00268595 0)
(-0.00461795 0.00268557 0)
(-0.00483426 0.00268474 0)
(-0.00505063 0.0026834 0)
(-0.00526704 0.00268148 0)
(-0.00548343 0.00267891 0)
(-0.00569976 0.00267562 0)
(-0.00591597 0.00267153 0)
(-0.006132 0.00266656 0)
(-0.00634776 0.00266064 0)
(-0.00656316 0.00265367 0)
(-0.0067781 0.00264557 0)
(-0.00699247 0.00263625 0)
(-0.00720612 0.00262563 0)
(-0.00741891 0.00261362 0)
(-0.00763066 0.00260013 0)
(-0.00784116 0.00258507 0)
(-0.0080502 0.00256839 0)
(-0.0082575 0.00254999 0)
(-0.00846276 0.00252983 0)
(-0.00866565 0.00250784 0)
(-0.00886576 0.00248399 0)
(-0.00906262 0.00245824 0)
(-0.00925571 0.00243058 0)
(-0.00944441 0.00240099 0)
(-0.00962798 0.00236947 0)
(-0.00980559 0.00233602 0)
(-0.00997625 0.0023006 0)
(-0.0101388 0.00226316 0)
(-0.010292 0.00222355 0)
(-0.0104342 0.00218153 0)
(-0.0105637 0.00213669 0)
(-0.0106787 0.00208835 0)
(-0.0107771 0.0020355 0)
(-0.0108567 0.00197672 0)
(-0.0109155 0.00191007 0)
(-0.0109519 0.00183307 0)
(-0.0109645 0.00174273 0)
(-0.0109531 0.00163581 0)
(-2.32444e-05 0.00112544 0)
(-0.000145519 0.00217864 0)
(-0.000339496 0.00262719 0)
(-0.00053961 0.00279881 0)
(-0.000751008 0.00285732 0)
(-0.000963792 0.00287548 0)
(-0.00117709 0.00288121 0)
(-0.00139069 0.00288365 0)
(-0.00160448 0.00288539 0)
(-0.00181843 0.00288704 0)
(-0.00203257 0.0028887 0)
(-0.00224689 0.0028904 0)
(-0.00246141 0.0028921 0)
(-0.00267614 0.00289378 0)
(-0.00289109 0.00289542 0)
(-0.00310625 0.00289697 0)
(-0.00332164 0.0028984 0)
(-0.00353726 0.00289968 0)
(-0.00375309 0.00290076 0)
(-0.00396914 0.00290158 0)
(-0.00418541 0.00290211 0)
(-0.00440187 0.00290229 0)
(-0.00461851 0.00290205 0)
(-0.00483531 0.00290133 0)
(-0.00505225 0.00290007 0)
(-0.00526929 0.0028982 0)
(-0.00548639 0.00289563 0)
(-0.00570351 0.00289228 0)
(-0.0059206 0.00288808 0)
(-0.00613758 0.00288293 0)
(-0.00635438 0.00287674 0)
(-0.00657093 0.00286941 0)
(-0.0067871 0.00286084 0)
(-0.0070028 0.00285092 0)
(-0.00721788 0.00283956 0)
(-0.00743219 0.00282663 0)
(-0.00764556 0.00281204 0)
(-0.00785777 0.00279568 0)
(-0.00806861 0.00277742 0)
(-0.0082778 0.00275718 0)
(-0.00848504 0.00273484 0)
(-0.00868997 0.0027103 0)
(-0.00889219 0.00268345 0)
(-0.00909123 0.00265421 0)
(-0.00928656 0.00262248 0)
(-0.00947755 0.00258815 0)
(-0.00966348 0.0025511 0)
(-0.00984354 0.00251122 0)
(-0.0100168 0.00246833 0)
(-0.0101821 0.00242223 0)
(-0.0103383 0.00237259 0)
(-0.010484 0.00231903 0)
(-0.0106176 0.00226094 0)
(-0.0107376 0.00219755 0)
(-0.0108422 0.00212777 0)
(-0.0109297 0.00205023 0)
(-0.0109985 0.00196318 0)
(-0.0110472 0.00186449 0)
(-0.011075 0.00175179 0)
(-0.0110815 0.00162256 0)
(-2.30922e-05 0.0012083 0)
(-0.000144997 0.0023395 0)
(-0.00033864 0.0028215 0)
(-0.000538553 0.00300597 0)
(-0.000749792 0.00306888 0)
(-0.000962443 0.00308843 0)
(-0.00117562 0.00309462 0)
(-0.00138912 0.00309729 0)
(-0.00160282 0.00309922 0)
(-0.00181671 0.00310105 0)
(-0.00203079 0.00310291 0)
(-0.00224509 0.00310481 0)
(-0.00245961 0.00310673 0)
(-0.00267438 0.00310864 0)
(-0.00288938 0.00311051 0)
(-0.00310465 0.0031123 0)
(-0.00332018 0.00311398 0)
(-0.00353597 0.0031155 0)
(-0.00375203 0.00311682 0)
(-0.00396836 0.00311788 0)
(-0.00418496 0.00311864 0)
(-0.00440181 0.00311904 0)
(-0.00461891 0.003119 0)
(-0.00483623 0.00311847 0)
(-0.00505377 0.00311736 0)
(-0.00527148 0.00311561 0)
(-0.00548934 0.00311312 0)
(-0.00570731 0.00310981 0)
(-0.00592533 0.00310559 0)
(-0.00614334 0.00310035 0)
(-0.00636128 0.00309399 0)
(-0.00657906 0.00308639 0)
(-0.00679659 0.00307745 0)
(-0.00701375 0.00306704 0)
(-0.00723041 0.00305504 0)
(-0.00744643 0.00304132 0)
(-0.00766162 0.00302573 0)
(-0.00787578 0.00300816 0)
(-0.00808869 0.00298845 0)
(-0.00830008 0.00296646 0)
(-0.00850965 0.00294205 0)
(-0.00871703 0.00291505 0)
(-0.00892184 0.00288532 0)
(-0.0091236 0.00285269 0)
(-0.00932178 0.00281698 0)
(-0.00951578 0.00277802 0)
(-0.00970491 0.00273559 0)
(-0.00988836 0.00268946 0)
(-0.0100652 0.00263933 0)
(-0.0102346 0.00258487 0)
(-0.0103952 0.00252565 0)
(-0.0105458 0.00246113 0)
(-0.0106852 0.00239063 0)
(-0.0108119 0.00231326 0)
(-0.0109244 0.00222796 0)
(-0.0110213 0.00213339 0)
(-0.0111013 0.00202799 0)
(-0.0111633 0.00190995 0)
(-0.0112065 0.00177731 0)
(-0.0112305 0.00162807 0)
(-2.29275e-05 0.00129081 0)
(-0.00014443 0.00249998 0)
(-0.000337709 0.00301553 0)
(-0.000537398 0.00321293 0)
(-0.000748459 0.00328029 0)
(-0.00096096 0.00330125 0)
(-0.00117401 0.00330792 0)
(-0.00138739 0.00331083 0)
(-0.00160099 0.00331295 0)
(-0.00181479 0.00331499 0)
(-0.00202881 0.00331707 0)
(-0.00224307 0.0033192 0)
(-0.00245758 0.00332137 0)
(-0.00267236 0.00332353 0)
(-0.00288743 0.00332567 0)
(-0.00310278 0.00332774 0)
(-0.00331844 0.00332971 0)
(-0.00353442 0.00333152 0)
(-0.00375071 0.00333313 0)
(-0.00396732 0.00333449 0)
(-0.00418425 0.00333554 0)
(-0.00440151 0.00333622 0)
(-0.00461908 0.00333646 0)
(-0.00483695 0.00333618 0)
(-0.00505511 0.00333531 0)
(-0.00527353 0.00333376 0)
(-0.00549219 0.00333144 0)
(-0.00571105 0.00332826 0)
(-0.00593006 0.00332411 0)
(-0.00614918 0.00331889 0)
(-0.00636834 0.00331246 0)
(-0.00658746 0.00330472 0)
(-0.00680645 0.00329553 0)
(-0.00702521 0.00328475 0)
(-0.0072436 0.00327225 0)
(-0.0074615 0.00325785 0)
(-0.00767871 0.00324142 0)
(-0.00789506 0.00322278 0)
(-0.00811031 0.00320176 0)
(-0.00832421 0.00317817 0)
(-0.00853645 0.00315184 0)
(-0.0087467 0.00312254 0)
(-0.00895456 0.00309009 0)
(-0.00915957 0.00305424 0)
(-0.00936123 0.00301476 0)
(-0.00955894 0.00297138 0)
(-0.00975205 0.00292381 0)
(-0.0099398 0.00287171 0)
(-0.0101214 0.0028147 0)
(-0.0102958 0.00275234 0)
(-0.010462 0.00268408 0)
(-0.010619 0.00260931 0)
(-0.0107655 0.00252726 0)
(-0.0109003 0.00243702 0)
(-0.0110221 0.00233751 0)
(-0.0111297 0.00222748 0)
(-0.0112219 0.0021055 0)
(-0.0112979 0.00197001 0)
(-0.0113569 0.00181936 0)
(-0.0113985 0.00165191 0)
(-2.27498e-05 0.00137295 0)
(-0.000143817 0.00266005 0)
(-0.000336698 0.00320926 0)
(-0.000536138 0.00341968 0)
(-0.000747001 0.00349153 0)
(-0.000959331 0.00351391 0)
(-0.00117223 0.00352108 0)
(-0.00138547 0.00352425 0)
(-0.00159894 0.00352659 0)
(-0.00181264 0.00352885 0)
(-0.00202659 0.00353117 0)
(-0.00224079 0.00353356 0)
(-0.00245528 0.003536 0)
(-0.00267007 0.00353846 0)
(-0.00288518 0.00354091 0)
(-0.00310061 0.0035433 0)
(-0.0033164 0.00354559 0)
(-0.00353254 0.00354774 0)
(-0.00374906 0.0035497 0)
(-0.00396595 0.00355141 0)
(-0.00418323 0.00355282 0)
(-0.0044009 0.00355385 0)
(-0.00461895 0.00355443 0)
(-0.00483738 0.00355448 0)
(-0.00505619 0.00355393 0)
(-0.00527535 0.00355268 0)
(-0.00549484 0.00355063 0)
(-0.00571464 0.00354768 0)
(-0.0059347 0.00354372 0)
(-0.00615499 0.00353862 0)
(-0.00637545 0.00353226 0)
(-0.006596 0.0035245 0)
(-0.00681656 0.0035152 0)
(-0.00703704 0.0035042 0)
(-0.00725731 0.00349134 0)
(-0.00747725 0.00347644 0)
(-0.00769669 0.00345932 0)
(-0.00791545 0.00343979 0)
(-0.0081333 0.00341763 0)
(-0.00835001 0.00339264 0)
(-0.00856528 0.00336458 0)
(-0.00877878 0.00333321 0)
(-0.00899014 0.00329825 0)
(-0.00919893 0.00325944 0)
(-0.00940464 0.00321645 0)
(-0.00960674 0.00316895 0)
(-0.00980458 0.00311657 0)
(-0.00999747 0.0030589 0)
(-0.0101846 0.00299546 0)
(-0.0103652 0.00292573 0)
(-0.0105382 0.00284909 0)
(-0.0107027 0.00276484 0)
(-0.0108575 0.00267215 0)
(-0.0110016 0.00257011 0)
(-0.0111339 0.00245764 0)
(-0.0112533 0.00233355 0)
(-0.0113587 0.00219654 0)
(-0.0114494 0.00204521 0)
(-0.0115246 0.00187814 0)
(-0.0115838 0.00169394 0)
(-2.25586e-05 0.00145469 0)
(-0.000143154 0.00281967 0)
(-0.000335601 0.00340266 0)