/*--------------------------------*- C++ -*----------------------------------*\
  =========                 |
  \\      /  F ield         | OpenFOAM: The Open Source CFD Toolbox
   \\    /   O peration     | Website:  https://openfoam.org
    \\  /    A nd           | Version:  8
     \\/     M anipulation  |
\*---------------------------------------------------------------------------*/
FoamFile
{
    version     2.0;
    format      ascii;
    class       volScalarField;
    location    "0.88";
    object      T;
}
// * * * * * * * * * * * * * * * * * * * * * * * * * * * * * * * * * * * * * //

dimensions      [0 0 0 1 0 0 0];

internalField   nonuniform List<scalar> 
2500
(
49.9995
4.65282
-4.65267
-1.18098
1.17945
0.456502
-0.452817
-0.224531
0.216019
0.139133
-0.122624
-0.0981388
0.0727609
0.0784527
-0.0385032
-0.0730102
0.0207494
0.0578264
0.00610956
-0.05246
-0.0203498
0.0371528
0.0314659
-0.0161115
-0.0385995
-0.00262974
0.0331911
0.01915
-0.0173606
-0.0287381
-0.00288557
0.026979
0.017952
-0.01129
-0.0226141
-0.0109862
0.0172433
0.0220578
-0.00138938
-0.0144139
-0.0176915
-0.00101892
0.0215846
0.0107737
-0.00291852
-0.010399
-0.0186441
0.00253179
0.0172835
0.00559524
95.3488
49.9985
10.4875
-4.65308
-2.81495
1.17449
1.13551
-0.447166
-0.577817
0.199687
0.36008
-0.0979151
-0.251688
0.0375037
0.186975
0.0165911
-0.157344
-0.03891
0.104676
0.0786985
-0.0699833
-0.0931279
0.0274819
0.0857306
0.0252912
-0.0716194
-0.0581448
0.0375404
0.0652105
0.0140874
-0.055579
-0.0518709
0.026438
0.0535419
0.0219243
-0.0306708
-0.0566132
0.000404532
0.0425505
0.03099
0.00496461
-0.0452789
-0.0362489
0.0194622
0.0265099
0.0296222
0.00454584
-0.0473796
-0.0216412
0.00909208
104.651
89.5159
49.9976
12.1241
-4.65248
-3.49038
1.16692
1.49276
-0.436409
-0.797151
0.176632
0.514407
-0.0624059
-0.367943
-0.00848435
0.267059
0.0833686
-0.215961
-0.107451
0.125302
0.152854
-0.0593314
-0.159145
-0.00622016
0.120383
0.0847825
-0.079206
-0.115161
0.0140271
0.0945943
0.0682834
-0.0585277
-0.100174
-0.000977149
0.0656939
0.0740326
-0.01268
-0.0922604
-0.0326747
0.027644
0.064591
0.0505309
-0.0533402
-0.063061
-0.0126599
0.0118665
0.0719907
0.0375052
-0.0502282
-0.0324733
101.184
104.649
87.8819
49.9951
12.8035
-4.65201
-3.84295
1.15445
1.71748
-0.420729
-0.951642
0.14567
0.631166
-0.0145414
-0.461262
-0.0631861
0.32238
0.161069
-0.251193
-0.180949
0.121025
0.222788
-0.0241454
-0.209491
-0.0610634
0.133317
0.150204
-0.0602148
-0.158848
-0.0369979
0.103664
0.128669
-0.0361071
-0.127369
-0.0540396
0.0515784
0.125912
0.0226766
-0.0932633
-0.0727023
-0.0218695
0.0858281
0.0946139
-0.0295528
-0.0581253
-0.0659431
-0.0277127
0.0950266
0.0614759
-0.0117267
98.8168
102.821
104.646
87.2077
49.9917
13.163
-4.65105
-4.06091
1.13729
1.87908
-0.398425
-1.07292
0.108529
0.721952
0.0474096
-0.539543
-0.124229
0.355922
0.244817
-0.261002
-0.259927
0.0999877
0.277904
0.0340648
-0.239856
-0.132415
0.129589
0.203691
-0.0120209
-0.183419
-0.107869
0.0971299
0.172318
0.0126998
-0.125539
-0.123815
0.0232362
0.153009
0.0647426
-0.0511226
-0.112932
-0.0816692
0.0857474
0.108528
0.0243101
-0.0227723
-0.118622
-0.062802
0.0807224
0.053588
99.5481
98.8169
103.5
104.639
86.8562
49.9859
13.392
-4.65111
-4.21417
1.11427
2.00923
-0.369464
-1.17646
0.0661094
0.792538
0.125752
-0.60967
-0.187289
0.366249
0.335666
-0.248765
-0.341547
0.066569
0.311188
0.116797
-0.254274
-0.210079
0.108889
0.236196
0.0673757
-0.193652
-0.183846
0.0743271
0.187412
0.0901832
-0.102759
-0.195094
-0.0110853
0.140301
0.115086
0.0227762
-0.150225
-0.128643
0.0565959
0.090115
0.103483
0.0218932
-0.155833
-0.0780389
0.0269039
100.448
98.8741
98.8193
103.861
104.63
86.6397
49.9779
13.5624
-4.65132
-4.33479
1.08525
2.12256
-0.331187
-1.27126
0.0173593
0.846807
0.220635
-0.670497
-0.255078
0.354287
0.432126
-0.214902
-0.418751
0.0148638
0.323442
0.219141
-0.249645
-0.282693
0.0596395
0.249432
0.170823
-0.185279
-0.247609
0.019739
0.174068
0.190376
-0.0614579
-0.241745
-0.0628728
0.079342
0.174562
0.113517
-0.15984
-0.152647
-0.0218215
0.0435755
0.193832
0.0736319
-0.14434
-0.0802108
100.231
100.437
98.5219
98.8213
104.091
104.615
86.4879
49.9656
13.7052
-4.65013
-4.4388
1.05054
2.22257
-0.277753
-1.36346
-0.0357573
0.882086
0.330902
-0.714881
-0.331926
0.325035
0.520793
-0.153239
-0.482273
-0.0599731
0.318167
0.319049
-0.21002
-0.339276
-0.0240421
0.245514
0.268327
-0.13943
-0.279073
-0.0743568
0.13664
0.275723
0.00290723
-0.22584
-0.135211
-0.0213319
0.210809
0.186158
-0.100913
-0.131598
-0.137155
-0.0303969
0.230109
0.113914
-0.0423537
99.7761
100.591
100.421
98.3074
98.8241
104.263
104.595
86.3725
49.9482
13.835
-4.64702
-4.53358
1.01336
2.30684
-0.204884
-1.45885
-0.0842405
0.892318
0.453435
-0.74016
-0.417205
0.291079
0.580697
-0.0583193
-0.533047
-0.145934
0.30198
0.38664
-0.124987
-0.381462
-0.120867
0.23031
0.320081
-0.0485985
-0.277769
-0.182033
0.0972391
0.297214
0.0789682
-0.146299
-0.208678
-0.105649
0.195742
0.192483
0.0126737
-0.0746883
-0.22221
-0.075655
0.170798
0.0936797
99.869
99.7842
100.817
100.395
98.1595
98.8264
104.407
104.565
86.2796
49.9265
13.96
-4.64457
-4.62493
0.978277
2.37675
-0.112705
-1.56514
-0.120592
0.878053
0.589359
-0.755379
-0.50868
0.261384
0.609172
0.0694352
-0.586507
-0.227872
0.279246
0.4214
-8.9754e-05
-0.429848
-0.20676
0.209334
0.327567
0.0802689
-0.277478
-0.278718
0.0747008
0.259045
0.170136
-0.0548929
-0.287666
-0.135408
0.146
0.162694
0.145205
-0.0529738
-0.269235
-0.061281
0.0724945
100.115
99.655
99.8006
100.984
100.359
98.049
98.8304
104.542
104.525
86.198
49.9034
14.0867
-4.6402
-4.7231
0.946103
2.43801
0.00137777
-1.68441
-0.155867
0.848418
0.741355
-0.758728
-0.610674
0.222414
0.62475
0.226708
-0.637795
-0.3137
0.232185
0.451714
0.157726
-0.478061
-0.289494
0.153216
0.327432
0.24768
-0.27774
-0.362134
0.0196781
0.188398
0.306649
0.041674
-0.354617
-0.165875
0.0308418
0.154177
0.316826
-0.0375999
-0.284946
-0.090437
100.106
100.084
99.5054
99.8201
101.12
100.31
97.9591
98.833
104.678
104.477
86.1186
49.8773
14.2146
-4.62037
-4.83763
0.915813
2.48353
0.146722
-1.8045
-0.20857
0.808489
0.892188
-0.718988
-0.724421
0.155168
0.629575
0.392561
-0.635335
-0.414753
0.138836
0.47484
0.321781
-0.457693
-0.370999
0.0256849
0.31431
0.409884
-0.207637
-0.387583
-0.11789
0.0706438
0.423102
0.165333
-0.292063
-0.202189
-0.182488
0.0978211
0.432057
0.0622618
-0.137204
99.919
100.268
100.044
99.3961
99.8442
101.244
100.251
97.8858
98.83
104.818
104.425
86.0429
49.8469
14.3332
-4.57531
-4.96794
0.897488
2.49175
0.324576
-1.91424
-0.271335
0.762033
1.00153
-0.612565
-0.845147
0.0840829
0.60526
0.518946
-0.542584
-0.523494
0.0392123
0.458048
0.424113
-0.32935
-0.431275
-0.115087
0.271153
0.456333
-0.0560165
-0.319467
-0.260104
-0.0376064
0.389952
0.227993
-0.0875121
-0.175631
-0.32515
0.00462822
0.313086
0.119447
99.9274
99.9485
100.388
99.9912
99.3123
99.8708
101.358
100.178
97.8304
98.8237
104.958
104.365
85.9763
49.8203
14.4371
-4.51657
-5.11232
0.908382
2.46242
0.521137
-2.02906
-0.3225
0.725484
1.06041
-0.463949
-0.987302
0.0544835
0.561261
0.594292
-0.40216
-0.654876
0.00146982
0.416678
0.452692
-0.15552
-0.512262
-0.181439
0.249024
0.388434
0.108914
-0.272398
-0.353006
-0.0168579
0.269432
0.218558
0.0816917
-0.209531
-0.300129
0.0386064
0.121233
100.035
99.821
99.9924
100.486
99.9252
99.2507
99.9071
101.463
100.087
97.7878
98.8271
105.099
104.288
85.9063
49.8109
14.5401
-4.45577
-5.28214
0.938675
2.43331
0.7298
-2.1624
-0.383498
0.705565
1.12135
-0.300878
-1.16446
0.033063
0.521078
0.688263
-0.25593
-0.830285
-0.0207587
0.372895
0.514697
0.0292672
-0.657659
-0.236105
0.225474
0.357914
0.328396
-0.309706
-0.479499
0.00739125
0.16032
0.336904
0.246472
-0.364468
-0.318997
0.0127021
100.076
99.9787
99.7397
100.047
100.566
99.8411
99.2013
99.9562
101.57
99.9754
97.743
98.8435
105.251
104.207
85.8075
49.8161
14.6507
-4.36912
-5.4846
0.947855
2.42437
0.95538
-2.26588
-0.507198
0.674474
1.20751
-0.105451
-1.31257
-0.0729764
0.460245
0.8243
-0.0696376
-0.957643
-0.142321
0.264956
0.635304
0.262216
-0.716607
-0.356868
0.047288
0.355724
0.613618
-0.23024
-0.535874
-0.166421
-0.0846745
0.49388
0.505482
-0.283156
-0.287331
99.9787
100.161
99.9127
99.6789
100.114
100.637
99.7462
99.1572
100.01
101.684
99.8562
97.6924
98.8557
105.414
104.144
85.6835
49.8183
14.7427
-4.22589
-5.69858
0.930315
2.39641
1.177
-2.27161
-0.688787
0.628606
1.23939
0.122666
-1.33621
-0.258983
0.374699
0.878211
0.150117
-0.902548
-0.331607
0.102106
0.651553
0.449869
-0.524907
-0.434629
-0.21573
0.24784
0.688452
0.0123572
-0.315946
-0.330796
-0.371566
0.360091
0.504562
0.0521249
99.9391
100.041
100.219
99.84
99.6335
100.186
100.692
99.652
99.122
100.062
101.791
99.7402
97.6545
98.8536
105.571
104.09
85.5745
49.8188
14.7928
-4.05618
-5.90282
0.942229
2.32304
1.35802
-2.21586
-0.869205
0.635891
1.16228
0.33006
-1.28454
-0.430426
0.365968
0.777659
0.317892
-0.75188
-0.488885
0.0729438
0.524453
0.463343
-0.251272
-0.468167
-0.272433
0.176832
0.455543
0.165814
-0.0966824
-0.341621
-0.278537
0.166954
0.176533
99.9976
99.8871
100.113
100.251
99.7663
99.6099
100.265
100.719
99.5596
99.1063
100.124
101.868
99.6177
97.6402
98.8659
105.709
104.006
85.4924
49.84
14.8434
-3.92719
-6.11527
0.999258
2.26226
1.52238
-2.20986
-1.04537
0.715017
1.07864
0.523135
-1.31103
-0.59085
0.461297
0.670762
0.478809
-0.714503
-0.680906
0.194687
0.433098
0.495894
-0.0927446
-0.68177
-0.203576
0.250485
0.315297
0.34175
-0.185735
-0.530368
-0.0388868
0.159872
100.05
99.9278
99.8634
100.192
100.251
99.6867
99.611
100.361
100.714
99.4532
99.1076
100.221
101.921
99.4677
97.6238
98.9248
105.853
103.884
85.3841
49.8805
14.9593
-3.83213
-6.3546
1.00452
2.27332
1.73754
-2.24228
-1.2658
0.728464
1.09875
0.78407
-1.3835
-0.810222
0.451629
0.671433
0.776458
-0.715277
-0.937334
0.146401
0.358227
0.773037
0.122627
-0.936575
-0.326945
0.0880196
0.360911
0.807554
-0.164419
-0.741789
-0.199653
100.024
100.065
99.8532
99.8644
100.283
100.225
99.5974
99.6246
100.481
100.694
99.3269
99.1048
100.348
101.988
99.2922
97.5776
99.0007
106.036
103.776
85.2128
49.9007
15.1111
-3.68087
-6.58322
0.884913
2.3049
1.97497
-2.15673
-1.50491
0.570528
1.14409
1.06438
-1.2764
-1.01507
0.197491
0.652397
1.07826
-0.5044
-1.00963
-0.180739
0.114632
0.991903
0.452165
-0.748728
-0.460161
-0.421018
0.178774
1.06466
0.188443
-0.334103
99.9596
100.101
100.054
99.7795
99.881
100.379
100.185
99.5117
99.6338
100.612
100.671
99.2089
99.0833
100.469
102.078
99.1245
97.5268
99.025
106.247
103.708
85.045
49.8812
15.1943
-3.4458
-6.76069
0.748085
2.26979
2.10805
-1.90853
-1.69033
0.397597
1.08896
1.16929
-0.955287
-1.10176
-0.0549262
0.545158
1.05718
-0.153507
-0.810379
-0.434079
-0.087506
0.786261
0.535233
-0.239958
-0.343192
-0.625183
-0.0722419
0.620873
0.275428
99.9678
99.9684
100.169
100.024
99.7185
99.9104
100.46
100.131
99.4516
99.6447
100.728
100.625
99.1331
99.0635
100.57
102.137
98.9865
97.5254
99
106.44
103.613
84.9733
49.8615
15.2049
-3.23369
-6.93696
0.751546
2.19623
2.13445
-1.68098
-1.86995
0.428249
0.996126
1.10909
-0.673527
-1.2209
-0.0355165
0.525491
0.80153
0.0885957
-0.755522
-0.471486
0.103838
0.461766
0.404306
-0.026999
-0.427383
-0.32665
0.124821
0.161421
100.019
99.9103
100.003
100.216
99.9719
99.6818
99.9654
100.511
100.049
99.4202
99.6912
100.821
100.528
99.0837
99.0864
100.685
102.116
98.8463
97.5712
99.0264
106.595
103.423
84.9549
49.8847
15.2887
-3.13107
-7.19341
0.82793
2.1827
2.2555
-1.60984
-2.1578
0.546069
0.983172
1.20419
-0.54506
-1.56042
0.0489758
0.597168
0.797875
0.341504
-1.0752
-0.620795
0.336574
0.398545
0.68886
-0.0109488
-0.964424
-0.259805
0.237105
100.037
99.9783
99.8737
100.064
100.239
99.8914
99.6658
100.058
100.543
99.9259
99.3938
99.7908
100.918
100.381
99.0023
99.1596
100.852
102.059
98.6459
97.5957
99.1622
106.763
103.191
84.8334
49.9251
15.5248
-3.04331
-7.48523
0.72995
2.21959
2.57528
-1.54225
-2.47131
0.407208
0.96259
1.58385
-0.355762
-1.87129
-0.165754
0.415507
1.10287
0.823775
-1.23274
-0.886261
-0.0310902
0.250412
1.33876
0.361455
-1.07955
-0.510406
100.005
100.069
99.9165
99.8561
100.15
100.245
99.7888
99.654
100.179
100.578
99.7772
99.3507
99.9088
101.05
100.224
98.8752
99.225
101.058
102.06
98.3887
97.5614
99.3035
107.005
103.043
84.5723
49.92
15.7519
-2.80895
-7.6685
0.412281
2.19993
2.85164
-1.26433
-2.57036
-0.0094952
0.807808
1.85185
0.00439058
-1.71932
-0.556142
-0.0581577
1.18048
1.18065
-0.762296
-0.784039
-0.685098
-0.22508
1.37444
0.716186
-0.261796
99.9632
100.066
100.079
99.8469
99.8514
100.243
100.238
99.6931
99.6377
100.299
100.61
99.6484
99.3009
99.9962
101.198
100.088
98.7763
99.2197
101.253
102.11
98.1727
97.521
99.3115
107.295
102.976
84.3605
49.87
15.7706
-2.45603
-7.73949
0.169129
2.12129
2.80124
-0.856223
-2.48052
-0.303855
0.685094
1.63672
0.304598
-1.27246
-0.746865
-0.229835
0.842652
0.959489
-0.14961
-0.43847
-0.757585
-0.334086
0.637532
0.401746
99.9803
99.9569
100.125
100.065
99.7895
99.8658
100.318
100.206
99.6317
99.6378
100.398
100.594
99.5709
99.2808
100.064
101.28
99.9654
98.7748
99.1808
101.41
102.073
98.08
97.5425
99.2477
107.518
102.834
84.3625
49.8495
15.6816
-2.19808
-7.90566
0.225642
2.10855
2.59621
-0.571696
-2.58979
-0.262152
0.825859
1.25402
0.457663
-1.21499
-0.834509
0.197693
0.583445
0.646429
0.0178262
-0.701312
-0.412576
0.243577
0.21415
100.02
99.9314
99.981
100.166
100.021
99.7565
99.9194
100.362
100.127
99.5984
99.6951
100.481
100.497
99.5104
99.324
100.178
101.252
99.811
98.8266
99.2375
101.547
101.873
98.0313
97.6144
99.3392
107.616
102.528
84.431
49.8985
15.812
-2.12557
-8.28428
0.345228
2.17207
2.71901
-0.419783
-3.06211
-0.220642
0.993206
1.30363
0.806293
-1.65339
-1.166
0.490136
0.584477
1.1089
0.139456
-1.51898
-0.512915
0.343995
100.028
99.9883
99.9008
100.039
100.184
99.9376
99.7423
100.021
100.392
99.9951
99.5615
99.819
100.58
100.344
99.3969
99.4225
100.368
101.19
99.5786
98.8269
99.4356
101.72
101.633
97.8433
97.6664
99.6477
107.713
102.204
84.2532
49.9525
16.2313
-2.0378
-8.64549
0.108881
2.13052
3.2331
-0.161325
-3.41558
-0.542339
0.689848
1.71377
1.47028
-1.79127
-1.49044
-0.0909508
0.30631
1.98068
0.708078
-1.54843
-0.802903
100.005
100.055
99.9299
99.8877
100.125
100.189
99.8281
99.7312
100.151
100.431
99.8341
99.5058
99.9563
100.722
100.186
99.2307
99.5066
100.593
101.21
99.2846
98.7585
99.6217
101.977
101.515
97.4959
97.6569
99.9183
107.982
102.049
83.8165
49.9282
16.5561
-1.70631
-8.68425
-0.451013
1.91979
3.55465
0.253713
-3.12338
-1.0287
0.0408262
1.80552
1.84459
-1.1326
-1.24581
-0.968417
-0.319953
1.94913
1.0575
-0.353543
99.9697
100.06
100.06
99.8628
99.8871
100.216
100.181
99.7297
99.7165
100.274
100.466
99.7006
99.4502
100.049
100.877
100.052
99.1144
99.5035
100.793
101.282
99.0486
98.7065
99.6255
102.288
101.477
97.2412
97.6071
99.9093
108.39
102.007
83.5197
49.8502
16.4465
-1.22398
-8.52874
-0.810853
1.80045
3.23721
0.580322
-2.5172
-1.26154
-0.123548
1.37202
1.46036
-0.334073
-0.787133
-1.03146
-0.356457
0.91337
0.542947
99.9803
99.9692
100.11
100.043
99.8125
99.9069
100.28
100.147
99.6763
99.7228
100.363
100.442
99.6362
99.4342
100.115
100.94
99.9413
99.1254
99.4596
100.94
101.231
98.9849
98.7316
99.5439
102.505
101.321
97.2918
97.5772
99.7858
108.656
101.816
83.6521
49.8278
16.1721
-0.912578
-8.68127
-0.678647
1.99291
2.72235
0.750891
-2.50522
-1.31981
0.508881
1.00158
1.04352
-0.171765
-1.19635
-0.457609
0.472448
0.302813
100.014
99.9414
99.9975
100.135
99.9977
99.7963
99.9677
100.297
100.065
99.6643
99.799
100.414
100.324
99.6042
99.5022
100.223
100.85
99.8138
99.2065
99.5436
101.029
100.979
99.0018
98.8217
99.6657
102.514
100.98
97.453
97.636
99.9554
108.612
101.384
83.8999
49.9004
16.3538
-0.870039
-9.29915
-0.481468
2.20656
2.83954
1.09603
-3.2353
-1.6063
0.963522
1.04523
1.71036
-0.265404
-2.38152
-0.415641
0.653779
100.023
99.9796
99.9295
100.057
100.127
99.914
99.8137
100.079
100.283
99.9248
99.6642
99.9592
100.46
100.136
99.5199
99.6641
100.402
100.699
99.5929
99.2549
99.8235
101.11
100.67
98.842
98.9519
100.057
102.459
100.605
97.2984
97.7999
100.484
108.509
100.952
83.6685
49.9709
17.0754
-0.794011
-9.80598
-0.833992
1.92564
3.59581
1.77064
-3.64702
-2.02372
0.196336
0.997625
3.06595
0.180209
-2.60054
-0.971127
100.013
100.03
99.9215
99.944
100.142
100.096
99.8032
99.8453
100.22
100.269
99.7445
99.6555
100.143
100.55
99.9224
99.3773
99.8329
100.625
100.63
99.2621
99.2559
100.107
101.308
100.458
98.4519
99.0708
100.418
102.653
100.339
96.7853
97.9519
100.922
108.783
100.784
82.9331
49.9337
17.6002
-0.376947
-9.58421
-1.64673
1.25674
4.00892
2.26699
-2.85811
-2.02566
-1.18646
0.497511
3.29958
0.809878
-0.953142
99.9809
100.065
100.012
99.8592
99.9729
100.228
100.053
99.7063
99.8684
100.355
100.256
99.5966
99.6333
100.28
100.668
99.7365
99.2782
99.8815
100.858
100.622
98.9917
99.2372
100.179
101.647
100.305
98.1692
99.0615
100.489
103.121
100.14
96.44
97.9077
100.892
109.425
100.775
82.4378
49.8283
17.2906
0.245811
-8.96633
-2.15973
1.04226
3.41771
2.07105
-1.57724
-1.70928
-1.45096
0.247874
1.77527
0.689134
99.974
99.9997
100.104
99.98
99.8209
100.011
100.274
100.004
99.6658
99.8943
100.433
100.204
99.5521
99.6214
100.366
100.687
99.643
99.2932
99.8405
101.022
100.516
98.9932
99.2037
100.136
101.865
100.112
98.3036
98.906
100.439
103.402
99.9135
96.6897
97.6834
100.668
109.833
100.556
82.7677
49.7959
16.6238
0.643037
-9.02596
-1.96644
1.72302
2.51664
1.72102
-1.33518
-2.05801
-0.202017
0.877008
0.414741
100.003
99.9503
100.034
100.104
99.9392
99.8334
100.067
100.245
99.9405
99.6952
99.9736
100.415
100.09
99.5883
99.7018
100.423
100.519
99.6261
99.3976
99.9219
100.987
100.266
99.1709
99.2506
100.26
101.678
99.8821
98.632
98.8799
100.614
103.093
99.6459
97.1743
97.6262
100.88
109.535
99.9997
83.4076
49.8863
16.7789
0.675155
-10.1209
-1.64303
2.38832
2.52863
2.41657
-2.3262
-3.37643
0.719962
1.26602
100.015
99.9685
99.9683
100.077
100.054
99.8836
99.9078
100.146
100.15
99.8352
99.7864
100.129
100.328
99.9029
99.6208
99.9361
100.464
100.25
99.524
99.5791
100.216
100.805
99.9532
99.1699
99.5478
100.582
101.277
99.594
98.6426
99.285
101.037
102.535
99.309
97.1122
98.041
101.636
108.976
99.4353
83.2066
49.9793
18.0401
0.720826
-11.075
-2.02912
1.6929
3.49405
4.16044
-2.9086
-4.09562
-0.379281
100.02
99.9923
99.9303
100.026
100.127
99.9638
99.8168
100.019
100.246
100.03
99.6856
99.907
100.317
100.266
99.6401
99.6302
100.22
100.557
100.007
99.2454
99.8184
100.536
100.779
99.5775
98.9058
99.9896
100.896
101.208
99.1125
98.2816
99.8854
101.426
102.531
98.8014
96.3931
98.6421
102.29
109.153
99.223
81.9317
49.9408
19.0932
1.18994
-10.4684
-3.06005
-0.107473
4.07002
5.02553
-1.75235
-2.48655
100.002
100.051
99.9414
99.8998
100.099
100.171
99.8637
99.7627
100.117
100.351
99.9119
99.562
99.9848
100.491
100.249
99.3917
99.6402
100.373
100.765
99.7866
99.0085
99.9353
100.728
101.029
99.1486
98.732
100.121
101.147
101.572
98.5202
98.0613
99.9891
101.666
103.213
98.2024
95.8805
98.6936
102.27
110.272
99.2462
80.9007
49.8093
18.5068
1.95297
-8.75379
-3.77247
-0.820705
3.29425
3.37148
0.193914
99.9736
100.044
100.061
99.8935
99.8908
100.159
100.178
99.8004
99.7472
100.177
100.396
99.8277
99.5408
99.9933
100.607
100.188
99.3341
99.628
100.401
100.92
99.6077
99.0724
99.792
100.872
101.162
98.9356
98.8816
99.7846
101.416
101.741
98.2916
98.3014
99.4188
101.891
103.638
97.9135
96.3154
97.9903
101.909
111.146
99.0296
81.4999
49.7549
16.8511
2.47961
-8.29491
-3.57361
1.10171
1.97994
0.806503
99.9878
99.9758
100.072
100.039
99.8758
99.9255
100.179
100.118
99.7955
99.8
100.213
100.306
99.8028
99.6221
100.035
100.56
100.047
99.4816
99.652
100.442
100.732
99.5857
99.3226
99.6915
100.95
100.808
99.1368
99.139
99.5823
101.531
101.224
98.6531
98.6889
99.057
102.076
102.945
98.1486
97.2101
97.4746
102.079
110.483
98.3733
83.1318
49.8523
16.5646
2.54278
-10.5619
-3.0915
3.77976
1.72855
100.004
99.97
100.012
100.065
99.977
99.8979
100.02
100.145
99.9942
99.8189
99.9583
100.222
100.102
99.7728
99.8015
100.193
100.326
99.8653
99.6192
99.92
100.471
100.283
99.5928
99.5244
100.063
100.782
100.227
99.3151
99.3427
100.118
101.243
100.435
98.9223
98.8659
99.8158
102.009
101.689
98.3071
97.3637
98.2885
103.013
108.82
97.6534
83.3819
49.9725
19.0593
2.55083
-13.4934
-3.39249
2.76305
100.011
99.9661
99.9876
100.076
100.024
99.8794
99.9568
100.153
100.09
99.8182
99.8479
100.188
100.223
99.8699
99.6505
100.084
100.379
100.113
99.5743
99.6662
100.404
100.451
99.9606
99.2565
99.7666
100.69
100.567
99.8729
98.8452
99.6997
100.982
100.943
100.068
98.2103
99.004
101.172
101.896
101.316
97.4471
96.4893
100.036
103.914
108.45
97.3458
80.8744
49.9472
22.1856
3.02867
-12.618
-4.54497
100.023
99.9923
99.9168
100.03
100.146
99.9642
99.7797
100.027
100.277
100.048
99.6305
99.8919
100.366
100.285
99.6353
99.5248
100.314
100.537
100.077
99.157
99.7662
100.677
100.624
99.8027
98.6885
100.093
100.93
100.862
99.6321
98.0404
100.149
101.231
101.419
100.036
96.9188
99.302
101.541
102.432
102.194
95.7652
95.7452
100.632
103.968
110.736
97.3782
77.7563
49.7961
21.4792
3.91118
-5.46856
99.9973
100.057
99.9554
99.8853
100.074
100.192
99.9044
99.7368
100.067
100.357
99.9986
99.5462
99.9162
100.441
100.354
99.4653
99.544
100.298
100.723
100.032
98.9703
99.8457
100.574
101.022
99.5535
98.5923
100.092
100.769
101.527
99.2409
97.9693
100.067
100.833
102.473
99.7676
96.6544
99.3414
100.44
103.665
102.887
95.0543
96.2706
98.7095
103.469
113.622
97.1927
78.4608
49.7093
14.5452
4.60208
99.9783
100.027
100.059
99.9302
99.8956
100.101
100.166
99.8779
99.7772
100.086
100.332
99.9339
99.6343
99.9161
100.441
100.25
99.5293
99.6483
100.19
100.753
99.8579
99.2855
99.7333
100.489
101.029
99.3967
99.1433
99.6777
100.752
101.509
99.084
98.8255
99.3945
100.673
102.601
99.3686
98.0396
98.8092
99.4861
104.167
101.948
96.7079
97.5836
96.1408
103.498
112.729
96.4753
85.3719
49.7986
4.75453
99.9929
99.9892
100.038
100.016
99.9342
99.9668
100.096
100.052
99.892
99.9015
100.122
100.144
99.8925
99.8094
100.032
100.289
99.9933
99.7554
99.8143
100.259
100.334
99.7804
99.6946
99.8176
100.529
100.31
99.6184
99.6197
99.7347
100.812
100.431
99.481
99.5052
99.3989
100.994
101.03
99.4069
99.3853
98.6919
100.414
102.522
100.002
99.1175
98.0968
97.2237
104.498
105.624
95.5955
95.1398
49.9435
)
;

boundaryField
{
    left
    {
        type            fixedValue;
        value           uniform 100;
    }
    right
    {
        type            zeroGradient;
    }
    up
    {
        type            zeroGradient;
    }
    down
    {
        type            fixedValue;
        value           uniform 0;
    }
    frontAndBack
    {
        type            empty;
    }
}


// ************************************************************************* //
