/*--------------------------------*- C++ -*----------------------------------*\
  =========                 |
  \\      /  F ield         | OpenFOAM: The Open Source CFD Toolbox
   \\    /   O peration     | Website:  https://openfoam.org
    \\  /    A nd           | Version:  8
     \\/     M anipulation  |
\*---------------------------------------------------------------------------*/
FoamFile
{
    version     2.0;
    format      ascii;
    class       surfaceScalarField;
    location    "21";
    object      phi;
}
// * * * * * * * * * * * * * * * * * * * * * * * * * * * * * * * * * * * * * //

dimensions      [0 3 -1 0 0 0 0];

internalField   nonuniform List<scalar> 
880
(
-1.01801e-05
1.01801e-05
-2.05522e-05
1.03721e-05
-3.04294e-05
9.87717e-06
-3.95757e-05
9.14632e-06
-4.77849e-05
8.20917e-06
-5.48791e-05
7.09424e-06
-6.07284e-05
5.84927e-06
-6.52101e-05
4.48165e-06
-6.84001e-05
3.19001e-06
-6.99633e-05
1.56325e-06
-7.09307e-05
9.67331e-07
-8.68182e-07
-7.00625e-05
-1.08599e-05
2.104e-05
-2.19139e-05
2.14261e-05
-3.24352e-05
2.03985e-05
-4.21719e-05
1.8883e-05
-5.09084e-05
1.69456e-05
-5.84635e-05
1.46493e-05
-6.47081e-05
1.20939e-05
-6.95339e-05
9.30742e-06
-7.30316e-05
6.68775e-06
-7.49341e-05
3.46577e-06
-7.63074e-05
2.34057e-06
-1.87881e-06
-7.52967e-05
-1.13764e-05
3.24165e-05
-2.29491e-05
3.29987e-05
-3.39497e-05
3.13991e-05
-4.41052e-05
2.90385e-05
-5.31769e-05
2.60173e-05
-6.09566e-05
2.24291e-05
-6.72652e-05
1.84024e-05
-7.19644e-05
1.40066e-05
-7.48431e-05
9.56647e-06
-7.6025e-05
4.64772e-06
-7.47596e-05
1.07519e-06
-4.74703e-06
-7.18914e-05
-1.21688e-05
4.45853e-05
-2.45366e-05
4.53666e-05
-3.62762e-05
4.31387e-05
-4.70912e-05
3.98535e-05
-5.67363e-05
3.56624e-05
-6.50027e-05
3.06955e-05
-7.17284e-05
2.51281e-05
-7.67924e-05
1.90706e-05
-7.99878e-05
1.27619e-05
-8.13841e-05
6.044e-06
-8.01677e-05
-1.41217e-07
-7.54361e-06
-7.73711e-05
-1.32737e-05
5.78589e-05
-2.67459e-05
5.88388e-05
-3.95069e-05
5.58997e-05
-5.12198e-05
5.15664e-05
-6.16226e-05
4.60652e-05
-7.04839e-05
3.95568e-05
-7.76144e-05
3.22586e-05
-8.28659e-05
2.43221e-05
-8.60923e-05
1.59884e-05
-8.72992e-05
7.25082e-06
-8.6164e-05
-1.27633e-06
-1.06652e-05
-8.30424e-05
-1.47369e-05
7.25958e-05
-2.96631e-05
7.37651e-05
-4.3766e-05
7.00025e-05
-5.66513e-05
6.44517e-05
-6.80551e-05
5.7469e-05
-7.77348e-05
4.92365e-05
-8.55292e-05
4.0053e-05
-9.13148e-05
3.01077e-05
-9.49753e-05
1.96489e-05
-9.64335e-05
8.70906e-06
-9.53457e-05
-2.3642e-06
-1.38182e-05
-9.21927e-05
-1.66125e-05
8.92083e-05
-3.33898e-05
9.05424e-05
-4.91926e-05
8.58054e-05
-6.35355e-05
7.87946e-05
-7.61671e-05
7.01006e-05
-8.68199e-05
5.98894e-05
-9.53623e-05
4.85954e-05
-0.000101679
3.64244e-05
-0.000105673
2.36425e-05
-0.000107339
1.03754e-05
-0.000106581
-3.12245e-06
-1.70208e-05
-0.000103378
-1.90204e-05
0.000108229
-3.81226e-05
0.000109645
-5.60452e-05
0.000103728
-7.21384e-05
9.48878e-05
-8.6233e-05
8.41952e-05
-9.80227e-05
7.1679e-05
-0.000107449
5.80214e-05
-0.000114432
4.34073e-05
-0.000118938
2.81491e-05
-0.000120949
1.23862e-05
-0.000120313
-3.75878e-06
-2.01863e-05
-0.000117147
-2.19451e-05
0.000130174
-4.38991e-05
0.000131599
-6.44243e-05
0.000124253
-8.26408e-05
0.000113104
-9.84774e-05
0.000100032
-0.000111549
8.47511e-05
-0.000121937
6.84086e-05
-0.000129612
5.10823e-05
-0.000134614
3.31513e-05
-0.000136962
1.47347e-05
-0.000136705
-4.01572e-06
-2.32696e-05
-0.000133622
-2.61364e-05
0.00015631
-5.16457e-05
0.000157108
-7.54663e-05
0.000148074
-9.58756e-05
0.000133514
-0.000113546
0.000117702
-0.000127849
9.90543e-05
-0.000139172
7.97315e-05
-0.000147527
5.94378e-05
-0.000153113
3.87377e-05
-0.000155969
1.75905e-05
-0.00015588
-4.10481e-06
-2.60716e-05
-0.000153078
-3.03258e-05
0.000186636
-6.00083e-05
0.00018679
-8.75963e-05
0.000175662
-0.000110899
0.000156816
-0.00013093
0.000137733
-0.00014675
0.000114874
-0.000159123
9.21044e-05
-0.000168102
6.84162e-05
-0.000173964
4.45997e-05
-0.000177028
2.06548e-05
-0.000177638
-3.49527e-06
-2.85688e-05
-0.000175141
-3.89623e-05
0.000225598
-7.41746e-05
0.000222003
-0.000107096
0.000208583
-0.000132424
0.000182144
-0.000154219
0.000159529
-0.00017037
0.000131025
-0.000183073
0.000104808
-0.000192244
7.75867e-05
-0.000198797
5.11529e-05
-0.000202644
2.45017e-05
-0.000203496
-2.64289e-06
-3.00589e-05
-0.000202006
-4.41106e-05
0.000269709
-8.56725e-05
0.000263564
-0.000123782
0.000246693
-0.000153053
0.000211414
-0.00017768
0.000184156
-0.000195261
0.000148606
-0.000208797
0.000118344
-0.000218044
8.6834e-05
-0.000223938
5.70465e-05
-0.00022745
2.80141e-05
-0.0002294
-6.93044e-07
-3.10823e-05
-0.000228377
-6.61035e-05
0.000335812
-0.000115331
0.000312792
-0.000161474
0.000292836
-0.00019049
0.000240431
-0.000214715
0.00020838
-0.000230001
0.000163892
-0.000241699
0.000130041
-0.000249677
9.48118e-05
-0.000256064
6.34341e-05
-0.000260648
3.25981e-05
-0.00026315
1.80906e-06
-2.94554e-05
-0.000264777
-6.82924e-05
0.000404105
-0.00012986
0.00037436
-0.000183908
0.000346884
-0.000218597
0.00027512
-0.000245751
0.000235534
-0.000261513
0.000179654
-0.000272753
0.000141282
-0.000279008
0.000101067
-0.000283034
6.74593e-05
-0.000285981
3.55452e-05
-0.000289344
5.17225e-06
-2.75652e-05
-0.000291234
-0.000139862
0.000543967
-0.000201456
0.000435954
-0.0002611
0.000406528
-0.000286016
0.000300035
-0.000303574
0.000253092
-0.000311355
0.000187435
-0.000315444
0.000145371
-0.000318124
0.000103747
-0.000321094
7.04291e-05
-0.000325007
3.94577e-05
-0.000330348
1.05134e-05
-1.99326e-05
-0.00033798
-0.000113675
0.000657642
-0.000216765
0.000539044
-0.000293882
0.000483644
-0.000328651
0.000334805
-0.000346803
0.000271244
-0.000351168
0.0001918
-0.00035064
0.000144843
-0.000348067
0.000101175
-0.000346116
6.84779e-05
-0.000346088
3.9429e-05
-0.000349487
1.3913e-05
-1.36204e-05
-0.000355799
-0.000371281
0.00102892
-0.0004022
0.000569963
-0.000439788
0.000521233
-0.000441045
0.000336062
-0.00042389
0.000254089
-0.000412786
0.000180697
-0.00039642
0.000128476
-0.000387274
9.20284e-05
-0.000381554
6.27584e-05
-0.000381949
3.98243e-05
-0.000388977
2.09403e-05
1.81306e-06
-0.00040441
-0.000647319
0.00167624
-0.000633134
0.000555778
-0.000630656
0.000518755
-0.000557472
0.000262877
-0.000490497
0.000187115
-0.000434406
0.000124605
-0.000388717
8.27874e-05
-0.000356353
5.96645e-05
-0.000333292
3.96982e-05
-0.00031942
2.59522e-05
-0.000312589
1.41089e-05
4.94098e-06
-0.000315717
0.00167624
0.00223202
0.00275078
0.00301365
0.00320077
0.00332537
0.00340816
0.00346782
0.00350752
0.00353347
0.00354758
0.00355252
-5.43935e-05
2.02437e-05
-3.59126e-05
-4.18648e-05
7.97806e-06
-2.05068e-05
-3.40551e-05
-2.38154e-06
-5.4282e-06
-2.68445e-05
-1.03385e-05
3.12796e-06
-2.01467e-05
-1.64706e-05
9.77276e-06
-1.33827e-05
-2.0957e-05
1.4193e-05
-6.58521e-06
-2.38723e-05
1.70747e-05
-2.42643e-05
1.76791e-05
-5.90773e-05
4.02426e-06
-4.62843e-05
-4.81492e-06
-3.78862e-05
-1.07797e-05
-3.00633e-05
-1.81614e-05
-2.27186e-05
-2.38153e-05
-1.51939e-05
-2.84818e-05
-7.50401e-06
-3.15621e-05
-3.17683e-05
-6.34582e-05
-4.40896e-06
-5.52584e-05
-1.30147e-05
-4.6528e-05
-1.95101e-05
-3.77005e-05
-2.69889e-05
-2.85126e-05
-3.30032e-05
-1.90722e-05
-3.79221e-05
-9.3978e-06
-4.12365e-05
-4.11661e-05
-6.92375e-05
-1.25426e-05
-6.10573e-05
-2.11949e-05
-5.19706e-05
-2.85968e-05
-4.25269e-05
-3.64326e-05
-3.24561e-05
-4.3074e-05
-2.18549e-05
-4.85233e-05
-1.08218e-05
-5.22696e-05
-5.19879e-05
-7.68614e-05
-1.87236e-05
-6.93452e-05
-2.87111e-05
-6.01093e-05
-3.78326e-05
-4.97071e-05
-4.68348e-05
-3.81853e-05
-5.45957e-05
-2.57941e-05
-6.09146e-05
-1.27988e-05
-6.5265e-05
-6.47867e-05
-8.60278e-05
-2.48885e-05
-7.82005e-05
-3.65385e-05
-6.84088e-05
-4.76243e-05
-5.70312e-05
-5.82124e-05
-4.41793e-05
-6.74476e-05
-3.00094e-05
-7.50845e-05
-1.4949e-05
-8.03254e-05
-7.97357e-05
-9.75264e-05
-3.07403e-05
-8.93604e-05
-4.47044e-05
-7.88739e-05
-5.81108e-05
-6.6215e-05
-7.08713e-05
-5.16171e-05
-8.20456e-05
-3.52054e-05
-9.14963e-05
-1.76109e-05
-9.79199e-05
-9.73465e-05
-0.000111204
-3.6683e-05
-0.000102614
-5.32953e-05
-9.1325e-05
-6.93994e-05
-7.7239e-05
-8.49573e-05
-6.07149e-05
-9.85696e-05
-4.16133e-05
-0.000110598
-2.0961e-05
-0.000118572
-0.000118308
-0.000127606
-4.26992e-05
-0.00011852
-6.23808e-05
-0.000106315
-8.16046e-05
-9.05215e-05
-0.000100751
-7.18092e-05
-0.000117282
-4.9399e-05
-0.000133008
-2.51426e-05
-0.000142828
-0.00014345
-0.000147259
-4.85183e-05
-0.000138007
-7.16328e-05
-0.000125263
-9.43489e-05
-0.000107748
-0.000118266
-8.68353e-05
-0.000138195
-6.01653e-05
-0.000159678
-3.11593e-05
-0.000171834
-0.00017461
-0.000169428
-5.42312e-05
-0.000159699
-8.13618e-05
-0.000146456
-0.000107592
-0.000126798
-0.000137924
-0.000103793
-0.000161199
-7.21775e-05
-0.000191293
-3.82746e-05
-0.000205737
-0.000212884
-0.000197735
-5.85019e-05
-0.00018911
-8.9987e-05
-0.000177057
-0.000119645
-0.000156393
-0.000158588
-0.000131549
-0.000186044
-9.31905e-05
-0.000229651
-5.10894e-05
-0.000247838
-0.000263974
-0.000224894
-6.19847e-05
-0.000216188
-9.86932e-05
-0.000205088
-0.000130744
-0.000182652
-0.000181024
-0.000157674
-0.000211022
-0.00011267
-0.000274656
-6.53136e-05
-0.000295195
-0.000329287
-0.00026566
-6.11017e-05
-0.000262064
-0.000102289
-0.000256689
-0.000136119
-0.000237594
-0.000200118
-0.000214154
-0.000234462
-0.000159798
-0.000329013
-9.83694e-05
-0.000356623
-0.000427656
-0.000293228
-5.91074e-05
-0.000290189
-0.000105329
-0.000288415
-0.000137894
-0.000270115
-0.000218418
-0.000253996
-0.000250581
-0.000194686
-0.000388323
-0.000135216
-0.000416093
-0.000562873
-0.000349423
-4.76652e-05
-0.000360762
-9.39894e-05
-0.000375858
-0.000122798
-0.000376717
-0.000217558
-0.000377123
-0.000250175
-0.000315849
-0.000449598
-0.000239479
-0.000492462
-0.000802352
-0.000365742
-3.77227e-05
-0.000376478
-8.32529e-05
-0.000395132
-0.000104144
-0.000401718
-0.000210972
-0.000427376
-0.000224517
-0.000384762
-0.000492212
-0.000358553
-0.000518672
-0.0011609
-0.000430368
-1.17644e-05
-0.000470999
-4.26226e-05
-0.000528229
-4.69138e-05
-0.000598726
-0.000140475
-0.000685907
-0.000137335
-0.000709673
-0.000468446
-0.000659872
-0.000568473
-0.00182078
-0.00031911
-8.37132e-06
-0.000338922
-2.28109e-05
-0.000346009
-3.98262e-05
-0.00037889
-0.000107594
-0.00037608
-0.000140146
-0.000379193
-0.000465333
-0.000297594
-0.000650072
-0.00211837
0.00354415
0.00352134
0.00348152
0.00337392
0.00323378
0.00276844
0.00211837
-9.44695e-07
9.44695e-07
-1.74351e-06
7.98819e-07
-2.22956e-06
4.86046e-07
-2.35794e-06
1.28384e-07
-2.12315e-06
-2.34793e-07
-1.58421e-06
-5.38945e-07
-8.28415e-07
-7.55791e-07
-8.28415e-07
-1.06871e-06
2.01341e-06
-1.96071e-06
1.69081e-06
-2.48653e-06
1.01187e-06
-2.58732e-06
2.29176e-07
-2.3103e-06
-5.11811e-07
-1.7181e-06
-1.13115e-06
-8.97175e-07
-1.57671e-06
-1.72559e-06
-1.60153e-06
3.61494e-06
-2.87109e-06
2.96037e-06
-3.57372e-06
1.7145e-06
-3.72121e-06
3.76666e-07
-3.29632e-06
-9.36706e-07
-2.42776e-06
-1.9997e-06
-1.26002e-06
-2.74446e-06
-2.98561e-06
-1.92964e-06
5.54458e-06
-3.42537e-06
4.4561e-06
-4.19093e-06
2.48005e-06
-4.21851e-06
4.04244e-07
-3.67908e-06
-1.47613e-06
-2.69499e-06
-2.98379e-06
-1.39434e-06
-4.04511e-06
-4.37995e-06
-3.66521e-06
9.20979e-06
-6.15379e-06
6.94468e-06
-7.18129e-06
3.50756e-06
-7.13674e-06
3.59689e-07
-6.08744e-06
-2.52543e-06
-4.36774e-06
-4.70349e-06
-2.23406e-06
-6.17879e-06
-6.61401e-06
-4.44002e-06
1.36498e-05
-7.40944e-06
9.91411e-06
-8.50398e-06
4.60209e-06
-8.17803e-06
3.37398e-08
-6.89886e-06
-3.8046e-06
-4.94386e-06
-6.65849e-06
-2.5241e-06
-8.59855e-06
-9.13811e-06
-1.01079e-05
2.37577e-05
-1.5144e-05
1.49502e-05
-1.56163e-05
5.07442e-06
-1.42931e-05
-1.28945e-06
-1.15081e-05
-6.58956e-06
-7.96858e-06
-1.01981e-05
-3.99725e-06
-1.25699e-05
-1.31354e-05
-1.21549e-05
-1.77115e-05
-1.80653e-05
-1.62268e-05
-1.30436e-05
-9.04858e-06
-4.54371e-06
)
;

boundaryField
{
    movingWall
    {
        type            calculated;
        value           uniform 0;
    }
    fixedWalls
    {
        type            calculated;
        value           uniform 0;
    }
    frontAndBack
    {
        type            empty;
        value           nonuniform List<scalar> 0();
    }
}


// ************************************************************************* //
