/*--------------------------------*- C++ -*----------------------------------*\
  =========                 |
  \\      /  F ield         | OpenFOAM: The Open Source CFD Toolbox
   \\    /   O peration     | Website:  https://openfoam.org
    \\  /    A nd           | Version:  8
     \\/     M anipulation  |
\*---------------------------------------------------------------------------*/
FoamFile
{
    version     2.0;
    format      ascii;
    class       volVectorField;
    location    "75";
    object      U;
}
// * * * * * * * * * * * * * * * * * * * * * * * * * * * * * * * * * * * * * //

dimensions      [0 1 -1 0 0 0 0];

internalField   nonuniform List<vector> 
12504
(
(1.00013 -0.000627873 7.33791e-07)
(1.0032 -0.00186989 -1.08965e-06)
(1.00931 -0.00305331 -1.95312e-06)
(1.01837 -0.00413299 -1.33537e-06)
(1.03003 -0.00507033 -7.53797e-07)
(1.04384 -0.00583369 -5.25183e-07)
(1.05934 -0.00639959 -3.67222e-07)
(1.07601 -0.00675464 -3.77825e-08)
(1.09331 -0.00689677 3.25047e-07)
(1.11071 -0.00683502 6.4773e-07)
(1.12771 -0.00658801 8.91041e-07)
(1.14388 -0.00618084 1.03051e-06)
(1.15883 -0.00564124 1.0583e-06)
(1.17228 -0.0049955 9.89571e-07)
(1.18397 -0.00426527 8.69188e-07)
(1.19374 -0.0034664 7.36652e-07)
(1.20142 -0.00260852 6.27921e-07)
(1.20688 -0.00169744 5.6701e-07)
(1.20999 -0.000735865 5.17408e-07)
(1.21063 0.000273158 5.4168e-07)
(1.20869 0.00132448 6.63843e-07)
(1.20408 0.0024099 7.76467e-07)
(1.19671 0.00351591 8.38497e-07)
(1.18655 0.00462271 8.53904e-07)
(1.17362 0.00570491 8.01431e-07)
(1.15802 0.00673263 6.9717e-07)
(1.13992 0.00767362 5.18655e-07)
(1.11957 0.00849536 3.42053e-07)
(1.09733 0.00916732 1.08017e-07)
(1.07358 0.00966337 -5.06201e-08)
(1.04883 0.00996184 -2.43863e-07)
(1.02355 0.0100482 -2.32469e-07)
(0.998372 0.0099103 -3.68274e-07)
(0.973762 0.00954529 -1.43696e-07)
(0.950448 0.00894408 -2.81607e-07)
(0.928818 0.00811564 1.98975e-07)
(0.909726 0.00704107 -5.1614e-08)
(0.893431 0.00575343 6.53666e-07)
(0.880889 0.00419769 2.70657e-07)
(0.872345 0.00247872 8.70626e-07)
(0.868473 0.000438083 8.69036e-07)
(0.870265 -0.00162128 2.63115e-08)
(0.876431 -0.00411732 2.70317e-06)
(0.891524 -0.0063117 -3.80718e-06)
(0.907164 -0.00911854 8.09367e-06)
(0.939195 -0.0111538 -1.39566e-05)
(0.960176 -0.0138755 1.98981e-05)
(1.01366 -0.0155287 -3.23278e-05)
(1.03089 -0.0174184 2.99465e-05)
(1.11085 -0.0186625 -3.40329e-05)
(1.00013 -0.00190144 7.08472e-07)
(1.00327 -0.00565808 -1.14165e-06)
(1.00954 -0.00923693 -1.97657e-06)
(1.01883 -0.0125027 -1.35314e-06)
(1.03077 -0.015337 -7.7926e-07)
(1.04492 -0.0176431 -5.47809e-07)
(1.06078 -0.0193498 -3.74235e-07)
(1.07784 -0.0204166 -1.47172e-08)
(1.09552 -0.0208374 3.72224e-07)
(1.11328 -0.0206405 7.13613e-07)
(1.13061 -0.0198835 9.66675e-07)
(1.14706 -0.0186441 1.10208e-06)
(1.16225 -0.0170079 1.1129e-06)
(1.17589 -0.0150555 1.02127e-06)
(1.18775 -0.0128528 8.81805e-07)
(1.19764 -0.010447 7.38772e-07)
(1.20544 -0.00786683 6.26496e-07)
(1.211 -0.00512788 5.71092e-07)
(1.2142 -0.00223818 5.17735e-07)
(1.21492 0.000795407 5.37215e-07)
(1.21304 0.00395876 6.78469e-07)
(1.20845 0.00722761 8.12678e-07)
(1.20108 0.0105617 8.8948e-07)
(1.19087 0.0139013 9.13418e-07)
(1.17784 0.0171695 8.6798e-07)
(1.16208 0.0202752 7.70653e-07)
(1.14377 0.0231203 5.94418e-07)
(1.12315 0.0256055 4.12343e-07)
(1.10059 0.0276381 1.79751e-07)
(1.07648 0.0291386 6.41416e-09)
(1.05135 0.0300417 -2.04411e-07)
(1.02568 0.0303036 -2.02243e-07)
(1.0001 0.0298889 -3.48286e-07)
(0.975101 0.0287889 -1.29323e-07)
(0.951416 0.0269779 -2.8897e-07)
(0.92943 0.0244819 1.87138e-07)
(0.910019 0.0212462 -9.64074e-08)
(0.893426 0.0173675 6.31917e-07)
(0.880646 0.0126817 2.15423e-07)
(0.871889 0.0075024 8.82382e-07)
(0.8679 0.00134668 8.03456e-07)
(0.869636 -0.00485954 5.94878e-08)
(0.875847 -0.0124137 2.60568e-06)
(0.891192 -0.0190184 -3.78593e-06)
(0.907024 -0.0275509 8.11457e-06)
(0.939844 -0.0336544 -1.40465e-05)
(0.961029 -0.0419623 2.03215e-05)
(1.01603 -0.0469068 -3.27008e-05)
(1.03333 -0.0527019 3.04779e-05)
(1.11555 -0.0564818 -3.45206e-05)
(1.00014 -0.00322341 7.24807e-07)
(1.00343 -0.00958726 -1.21817e-06)
(1.01 -0.0156494 -2.07845e-06)
(1.01975 -0.0211817 -1.42895e-06)
(1.03228 -0.0259801 -8.32821e-07)
(1.04711 -0.0298785 -5.80342e-07)
(1.06373 -0.0327548 -3.6795e-07)
(1.08157 -0.0345394 4.98662e-08)
(1.10004 -0.0352228 4.99181e-07)
(1.11854 -0.0348555 8.92515e-07)
(1.13653 -0.0335402 1.173e-06)
(1.15355 -0.0314147 1.30016e-06)
(1.16922 -0.0286298 1.27007e-06)
(1.18325 -0.0253258 1.1204e-06)
(1.19542 -0.0216152 9.27032e-07)
(1.20559 -0.0175767 7.44719e-07)
(1.21362 -0.0132551 6.13469e-07)
(1.21938 -0.00867286 5.48658e-07)
(1.22277 -0.00383932 5.10351e-07)
(1.22364 0.00123895 5.35068e-07)
(1.22188 0.00654197 6.99892e-07)
(1.21735 0.0120319 8.70024e-07)
(1.20997 0.0176429 9.80265e-07)
(1.19966 0.0232741 1.02954e-06)
(1.18643 0.0287943 9.97237e-07)
(1.17035 0.0340472 9.03179e-07)
(1.15159 0.038864 7.20638e-07)
(1.13042 0.0430737 5.21968e-07)
(1.1072 0.0465175 2.70004e-07)
(1.08237 0.0490596 7.72089e-08)
(1.05646 0.0505903 -1.67626e-07)
(1.02998 0.0510366 -1.80957e-07)
(1.00361 0.0503414 -3.53852e-07)
(0.977814 0.0484917 -1.29968e-07)
(0.95338 0.0454483 -3.17456e-07)
(0.930677 0.041254 1.899e-07)
(0.910627 0.0358203 -1.46386e-07)
(0.893433 0.0293047 6.53991e-07)
(0.880181 0.0214319 1.42809e-07)
(0.871001 0.0127253 9.44357e-07)
(0.86679 0.00235346 7.05757e-07)
(0.868419 -0.00809104 1.527e-07)
(0.874753 -0.0208941 2.55278e-06)
(0.890628 -0.0320012 -3.78586e-06)
(0.906897 -0.0465573 8.44878e-06)
(0.94133 -0.056798 -1.46203e-05)
(0.962984 -0.0710015 2.17035e-05)
(1.02099 -0.0793528 -3.44084e-05)
(1.03848 -0.0892319 3.21596e-05)
(1.12509 -0.0958577 -3.61664e-05)
(1.00015 -0.00462459 7.65885e-07)
(1.00368 -0.0137544 -1.32991e-06)
(1.01073 -0.0224516 -2.2585e-06)
(1.02118 -0.0303874 -1.56483e-06)
(1.03461 -0.0372653 -9.19092e-07)
(1.05051 -0.0428419 -6.31335e-07)
(1.06831 -0.046938 -3.49288e-07)
(1.08737 -0.0494511 1.60281e-07)
(1.10705 -0.0503686 7.15025e-07)
(1.1267 -0.049769 1.19937e-06)
(1.14572 -0.0478105 1.52669e-06)
(1.16361 -0.0447049 1.63699e-06)
(1.18 -0.0406813 1.53289e-06)
(1.19462 -0.0359494 1.2808e-06)
(1.20728 -0.030672 9.92369e-07)
(1.21785 -0.0249583 7.44989e-07)
(1.22622 -0.0188649 5.80188e-07)
(1.2323 -0.0124151 5.10423e-07)
(1.23597 -0.0056122 4.82767e-07)
(1.23708 0.00154388 5.08316e-07)
(1.2355 0.00903253 7.25071e-07)
(1.23109 0.0168079 9.65045e-07)
(1.2237 0.0247798 1.13391e-06)
(1.21324 0.0328044 1.22316e-06)
(1.19969 0.0406909 1.21058e-06)
(1.1831 0.0482106 1.11657e-06)
(1.16365 0.0551153 9.13976e-07)
(1.14161 0.0611543 6.81059e-07)
(1.11738 0.0660952 3.83101e-07)
(1.09142 0.0697412 1.63676e-07)
(1.06431 0.0719366 -1.37184e-07)
(1.03659 0.0725798 -1.72599e-07)
(1.00898 0.0715953 -3.79054e-07)
(0.981972 0.0689692 -1.35777e-07)
(0.956395 0.0646527 -3.56327e-07)
(0.932604 0.058707 2.11007e-07)
(0.91159 0.0510116 -1.94094e-07)
(0.893492 0.0417811 7.07585e-07)
(0.879537 0.0306249 7.1389e-08)
(0.869726 0.0182738 1.03194e-06)
(0.865201 0.00351488 6.26396e-07)
(0.866704 -0.011336 2.47e-07)
(0.873271 -0.0297108 2.5827e-06)
(0.890043 -0.0455021 -3.89125e-06)
(0.907026 -0.0665627 9.02347e-06)
(0.944014 -0.0810993 -1.56463e-05)
(0.966372 -0.101607 2.37436e-05)
(1.02878 -0.11365 -3.71702e-05)
(1.04655 -0.12772 3.45487e-05)
(1.1392 -0.137786 -3.85396e-05)
(1.00016 -0.00614226 8.23562e-07)
(1.00402 -0.0182691 -1.48632e-06)
(1.01173 -0.0298224 -2.52444e-06)
(1.02316 -0.0403626 -1.77619e-06)
(1.03786 -0.0494892 -1.0609e-06)
(1.05525 -0.0568713 -7.27288e-07)
(1.0747 -0.0622615 -3.32825e-07)
(1.09549 -0.0655179 3.22621e-07)
(1.11687 -0.0666248 1.04661e-06)
(1.13812 -0.0656971 1.68128e-06)
(1.15856 -0.0629652 2.08411e-06)
(1.17766 -0.0587367 2.16161e-06)
(1.19504 -0.0533402 1.93209e-06)
(1.21045 -0.0470686 1.5171e-06)
(1.22375 -0.0401407 1.08579e-06)
(1.23486 -0.0326934 7.49309e-07)
(1.24371 -0.0247877 5.40685e-07)
(1.25021 -0.0164387 4.65912e-07)
(1.25427 -0.00763361 4.44979e-07)
(1.25572 0.00164632 4.60565e-07)
(1.25441 0.0113864 7.66071e-07)
(1.25015 0.0215406 1.12283e-06)
(1.24276 0.0319973 1.38704e-06)
(1.23209 0.0425657 1.53646e-06)
(1.21809 0.0529877 1.55373e-06)
(1.2008 0.0629511 1.45817e-06)
(1.18038 0.0721151 1.2201e-06)
(1.15712 0.0801359 9.30752e-07)
(1.13146 0.0866972 5.53446e-07)
(1.10391 0.0915345 2.86056e-07)
(1.07511 0.0944435 -8.94577e-08)
(1.04567 0.0952962 -1.53362e-07)
(1.01635 0.0940034 -4.04485e-07)
(0.987679 0.0905562 -1.40568e-07)
(0.960546 0.0849028 -4.07256e-07)
(0.935279 0.0771245 2.3304e-07)
(0.912965 0.0670737 -2.41819e-07)
(0.893657 0.0550105 7.63985e-07)
(0.878768 0.0404348 4.00652e-08)
(0.868131 0.0242606 1.08321e-06)
(0.863208 0.00487012 7.09925e-07)
(0.864625 -0.0146515 2.02782e-07)
(0.871549 -0.0390774 2.83346e-06)
(0.889744 -0.0598201 -4.25444e-06)
(0.907669 -0.0880676 9.83954e-06)
(0.948214 -0.107068 -1.70338e-05)
(0.971302 -0.134351 2.5977e-05)
(1.03902 -0.150392 -4.04943e-05)
(1.05692 -0.168649 3.68992e-05)
(1.15598 -0.182853 -4.11228e-05)
(1.00018 -0.0078171 9.0032e-07)
(1.00448 -0.0232517 -1.67869e-06)
(1.01305 -0.0379603 -2.87603e-06)
(1.02578 -0.0513789 -2.06563e-06)
(1.04216 -0.0629876 -1.26726e-06)
(1.06153 -0.0723521 -8.82436e-07)
(1.08318 -0.07914 -3.21221e-07)
(1.10628 -0.0831593 5.581e-07)
(1.12994 -0.0843902 1.54856e-06)
(1.15331 -0.0829952 2.42953e-06)
(1.17563 -0.0793026 2.95187e-06)
(1.1963 -0.0737486 2.96165e-06)
(1.21494 -0.0667924 2.51407e-06)
(1.23135 -0.0588302 1.83703e-06)
(1.24546 -0.0501427 1.19494e-06)
(1.25725 -0.0408884 7.38326e-07)
(1.26671 -0.0311228 4.79675e-07)
(1.27377 -0.0208379 4.00724e-07)
(1.27834 -0.00999312 3.93881e-07)
(1.28025 0.00146702 3.58131e-07)
(1.27931 0.0135444 8.12614e-07)
(1.27527 0.0262054 1.35492e-06)
(1.26789 0.0393181 1.75544e-06)
(1.25695 0.0526397 1.99332e-06)
(1.24236 0.0658326 2.06007e-06)
(1.22411 0.0784849 1.9714e-06)
(1.20237 0.0901439 1.6855e-06)
(1.17747 0.100354 1.31248e-06)
(1.14989 0.1087 8.17497e-07)
(1.12021 0.114841 4.62809e-07)
(1.08918 0.11852 -1.562e-08)
(1.05746 0.119589 -1.22366e-07)
(1.0259 0.117951 -4.32059e-07)
(0.995075 0.113612 -1.47233e-07)
(0.965936 0.106529 -4.68055e-07)
(0.938784 0.0968008 2.43291e-07)
(0.914822 0.0842671 -2.72882e-07)
(0.893993 0.0692073 7.97672e-07)
(0.87793 0.0510337 1.23741e-07)
(0.866299 0.0307863 1.0129e-06)
(0.860869 0.00643603 1.07043e-06)
(0.86236 -0.0181395 -2.24299e-07)
(0.86971 -0.0492644 3.62612e-06)
(0.890054 -0.0753003 -5.1646e-06)
(0.90887 -0.111516 1.10486e-05)
(0.953725 -0.135068 -1.86522e-05)
(0.976933 -0.169363 2.79267e-05)
(1.04947 -0.189665 -4.36269e-05)
(1.06681 -0.2117 3.85654e-05)
(1.1701 -0.230796 -4.34342e-05)
(1.0002 -0.00969541 9.97074e-07)
(1.00505 -0.0288385 -1.89052e-06)
(1.01474 -0.0470929 -3.32307e-06)
(1.02913 -0.0637501 -2.44206e-06)
(1.04767 -0.0781522 -1.56049e-06)
(1.06961 -0.0897389 -1.12321e-06)
(1.09412 -0.0980662 -3.22656e-07)
(1.12022 -0.102875 8.88305e-07)
(1.14686 -0.104136 2.28946e-06)
(1.173 -0.102076 3.56867e-06)
(1.19773 -0.0971593 4.28251e-06)
(1.22039 -0.0900005 4.17313e-06)
(1.24059 -0.0812343 3.35804e-06)
(1.25822 -0.0713864 2.26263e-06)
(1.27331 -0.0608039 1.28544e-06)
(1.28593 -0.049657 6.62835e-07)
(1.29613 -0.0379791 3.66601e-07)
(1.3039 -0.0257222 2.75039e-07)
(1.30914 -0.0127971 2.82718e-07)
(1.31165 0.000910969 1.30061e-07)
(1.31119 0.0154342 8.39482e-07)
(1.30746 0.0307696 1.66528e-06)
(1.30012 0.0467674 2.27327e-06)
(1.28885 0.0631239 2.64174e-06)
(1.27347 0.0794057 2.78482e-06)
(1.25396 0.0950769 2.71128e-06)
(1.23049 0.109545 2.35879e-06)
(1.20341 0.122217 1.86861e-06)
(1.1733 0.132557 1.2072e-06)
(1.14085 0.140136 7.08654e-07)
(1.10692 0.144646 9.13589e-08)
(1.07227 0.145919 -8.58599e-08)
(1.03787 0.143872 -4.6526e-07)
(1.00433 0.138532 -1.57675e-07)
(0.97269 0.129886 -5.24441e-07)
(0.943215 0.118047 2.44047e-07)
(0.917232 0.102862 -2.55643e-07)
(0.894574 0.0845898 7.81315e-07)
(0.877068 0.0625934 4.3028e-07)
(0.864317 0.0379457 7.12792e-07)
(0.858203 0.00820244 2.01962e-06)
(0.860106 -0.0219434 -1.31332e-06)
(0.867781 -0.060554 5.42202e-06)
(0.891062 -0.09222 -6.93358e-06)
(0.91002 -0.136964 1.29293e-05)
(0.958887 -0.164876 -1.9923e-05)
(0.9803 -0.205678 2.91942e-05)
(1.0547 -0.230361 -4.49419e-05)
(1.06974 -0.255076 3.95623e-05)
(1.17191 -0.279956 -4.51374e-05)
(1.00023 -0.0118308 1.11397e-06)
(1.00578 -0.0351854 -2.08726e-06)
(1.01685 -0.057485 -3.88949e-06)
(1.03333 -0.0778449 -2.91514e-06)
(1.0546 -0.0954502 -1.9871e-06)
(1.07982 -0.109582 -1.49659e-06)
(1.10801 -0.119641 -3.27937e-07)
(1.138 -0.125277 1.38036e-06)
(1.16848 -0.126439 3.41526e-06)
(1.19817 -0.123435 5.29963e-06)
(1.22595 -0.116924 6.26805e-06)
(1.25107 -0.107778 5.93698e-06)
(1.27316 -0.0968734 4.52939e-06)
(1.29224 -0.084896 2.78448e-06)
(1.30848 -0.0722592 1.24269e-06)
(1.3221 -0.0591249 4.15453e-07)
(1.33321 -0.045481 1.31026e-07)
(1.34185 -0.0312213 3.86772e-08)
(1.34793 -0.0161793 5.05037e-08)
(1.35123 -0.000155933 -4.16252e-07)
(1.35142 0.0169592 7.3417e-07)
(1.34813 0.0351904 2.01386e-06)
(1.34085 0.0543769 2.93658e-06)
(1.32915 0.0741426 3.52002e-06)
(1.31276 0.0939358 3.79431e-06)
(1.2916 0.113063 3.74835e-06)
(1.26585 0.130754 3.29644e-06)
(1.23592 0.146237 2.63598e-06)
(1.20252 0.158831 1.74722e-06)
(1.16648 0.168002 1.04372e-06)
(1.12883 0.173392 2.4159e-07)
(1.09047 0.174831 -5.27915e-08)
(1.05253 0.172263 -5.18757e-07)
(1.01562 0.165761 -1.85837e-07)
(0.98094 0.155364 -5.62452e-07)
(0.94867 0.141197 2.45032e-07)
(0.920262 0.12314 -1.43565e-07)
(0.895471 0.101387 7.01985e-07)
(0.876203 0.0752892 1.06451e-06)
(0.862249 0.04584 1.10936e-07)
(0.85519 0.0101378 3.783e-06)
(0.857983 -0.0262199 -3.24957e-06)
(0.865617 -0.0730678 8.64279e-06)
(0.892042 -0.110464 -9.49514e-06)
(0.909168 -0.163437 1.57696e-05)
(0.959435 -0.194884 -1.95457e-05)
(0.975293 -0.240541 2.9566e-05)
(1.04591 -0.269463 -4.23743e-05)
(1.05566 -0.295221 4.07914e-05)
(1.14998 -0.327371 -4.6589e-05)
(1.00027 -0.0142861 1.25245e-06)
(1.00667 -0.0424702 -2.20086e-06)
(1.01944 -0.0694482 -4.61843e-06)
(1.03852 -0.0941001 -3.47743e-06)
(1.06321 -0.115448 -2.65079e-06)
(1.09258 -0.132558 -2.09908e-06)
(1.12547 -0.144616 -3.61439e-07)
(1.16046 -0.151139 2.1466e-06)
(1.19591 -0.152022 5.27323e-06)
(1.23015 -0.14768 8.08305e-06)
(1.26179 -0.139059 9.25111e-06)
(1.28991 -0.127403 8.34388e-06)
(1.31426 -0.113929 5.92491e-06)
(1.33501 -0.0995224 3.01569e-06)
(1.35259 -0.0846511 8.18066e-07)
(1.36737 -0.0694299 -7.91494e-08)
(1.37957 -0.0537726 -3.06712e-07)
(1.38927 -0.0374877 -4.49203e-07)
(1.3964 -0.0202978 -3.93795e-07)
(1.40071 -0.00189798 -5.11512e-07)
(1.40177 0.0179848 5.8292e-07)
(1.39906 0.0394013 2.3126e-06)
(1.39189 0.0621798 3.57189e-06)
(1.37966 0.0858552 4.47134e-06)
(1.36196 0.109722 5.0326e-06)
(1.33865 0.132883 5.11455e-06)
(1.30991 0.154332 4.55747e-06)
(1.27626 0.173073 3.65397e-06)
(1.23859 0.188236 2.45361e-06)
(1.19792 0.199168 1.47677e-06)
(1.15554 0.205465 4.22891e-07)
(1.11252 0.206974 -3.08598e-08)
(1.07017 0.203707 -5.96345e-07)
(1.02918 0.195801 -2.38552e-07)
(0.990818 0.183393 -5.7537e-07)
(0.955239 0.166613 2.52586e-07)
(0.923966 0.145399 1.10556e-07)
(0.896728 0.119851 6.03822e-07)
(0.875322 0.0893111 2.07101e-06)
(0.860078 0.0545818 -7.07092e-07)
(0.851822 0.0122161 6.31107e-06)
(0.855839 -0.0310419 -5.75008e-06)
(0.862691 -0.0863654 1.32098e-05)
(0.89058 -0.128869 -1.20492e-05)
(0.902276 -0.188167 1.92295e-05)
(0.948113 -0.221341 -1.65851e-05)
(0.953431 -0.269494 2.81588e-05)
(1.01389 -0.302356 -3.63647e-05)
(1.01546 -0.32813 4.17367e-05)
(1.09848 -0.370352 -4.97734e-05)
(1.00031 -0.0171347 1.41734e-06)
(1.00775 -0.0508936 -2.11323e-06)
(1.02259 -0.0833515 -5.57147e-06)
(1.04488 -0.113035 -4.05935e-06)
(1.0738 -0.138845 -3.74968e-06)
(1.10841 -0.15952 -3.09176e-06)
(1.14732 -0.173946 -6.36588e-07)
(1.18875 -0.18145 3.1277e-06)
(1.23064 -0.181806 8.32517e-06)
(1.27075 -0.175576 1.28112e-05)
(1.30723 -0.164126 1.40586e-05)
(1.33901 -0.149249 1.17394e-05)
(1.36596 -0.132642 7.09674e-06)
(1.3886 -0.115437 2.05516e-06)
(1.40767 -0.0981232 -6.3884e-07)
(1.42377 -0.0807121 -1.23962e-06)
(1.43721 -0.0630028 -1.28368e-06)
(1.44813 -0.0446937 -1.60824e-06)
(1.4565 -0.0253363 -1.55676e-06)
(1.46205 -0.00447559 -1.23071e-06)
(1.46425 0.018359 1.36115e-07)
(1.46232 0.0433152 2.38527e-06)
(1.45534 0.0702007 3.98292e-06)
(1.44247 0.098445 5.16726e-06)
(1.42313 0.12714 6.0832e-06)
(1.39705 0.155104 6.48412e-06)
(1.36445 0.181015 5.99476e-06)
(1.32597 0.203578 4.88309e-06)
(1.28276 0.221691 3.2921e-06)
(1.23615 0.234556 1.95675e-06)
(1.18776 0.24174 5.68714e-07)
(1.1389 0.24314 -4.27939e-08)
(1.09112 0.238889 -6.88754e-07)
(1.04518 0.229236 -3.00978e-07)
(1.00244 0.214456 -5.48095e-07)
(0.962985 0.194693 2.95493e-07)
(0.928372 0.169957 4.9703e-07)
(0.898341 0.140262 5.84529e-07)
(0.87438 0.104883 3.31309e-06)
(0.857677 0.0642847 -1.46164e-06)
(0.848145 0.0145018 8.98307e-06)
(0.852971 -0.0361093 -8.01251e-06)
(0.85753 -0.0987981 1.7882e-05)
(0.881972 -0.144392 -1.37068e-05)
(0.883236 -0.206393 2.12327e-05)
(0.916769 -0.238876 -1.29346e-05)
(0.908401 -0.288341 2.25822e-05)
(0.955795 -0.325578 -3.18099e-05)
(0.950214 -0.3529 3.91044e-05)
(1.02586 -0.40913 -5.6644e-05)
(1.00037 -0.0204612 1.62867e-06)
(1.00905 -0.0606754 -1.65306e-06)
(1.02637 -0.0996316 -6.8123e-06)
(1.05257 -0.135263 -4.45765e-06)
(1.0867 -0.166514 -5.57044e-06)
(1.12793 -0.191556 -4.56209e-06)
(1.17454 -0.208889 -1.53826e-06)
(1.22436 -0.217522 3.91435e-06)
(1.27465 -0.216973 1.2609e-05)
(1.32235 -0.208053 2.01377e-05)
(1.36494 -0.192775 2.17127e-05)
(1.40109 -0.173729 1.70735e-05)
(1.43094 -0.153273 7.40442e-06)
(1.45554 -0.132818 -1.06144e-06)
(1.4761 -0.112807 -4.33001e-06)
(1.49349 -0.0930768 -4.27626e-06)
(1.50812 -0.0732815 -3.89279e-06)
(1.52025 -0.0529891 -4.44233e-06)
(1.52993 -0.0314904 -4.48166e-06)
(1.53687 -0.00810738 -3.43078e-06)
(1.54045 0.0178826 -1.7046e-06)
(1.53956 0.0468145 1.00538e-06)
(1.53296 0.0784442 3.25649e-06)
(1.51948 0.112081 5.12353e-06)
(1.49824 0.146582 6.47299e-06)
(1.46879 0.180382 7.16965e-06)
(1.43134 0.211704 6.90758e-06)
(1.38671 0.238832 5.85732e-06)
(1.33642 0.26036 4.02817e-06)
(1.28224 0.27533 2.31716e-06)
(1.22625 0.283309 4.56927e-07)
(1.17013 0.284299 -2.71614e-07)
(1.11569 0.278633 -9.08618e-07)
(1.0638 0.26674 -4.14511e-07)
(1.01586 0.249096 -4.85474e-07)
(0.971921 0.225867 4.08863e-07)
(0.933473 0.197161 9.81944e-07)
(0.900217 0.162949 8.40457e-07)
(0.873286 0.122268 4.49065e-06)
(0.854861 0.0750478 -1.91868e-06)
(0.844121 0.0173401 1.05539e-05)
(0.847831 -0.0401364 -9.46677e-06)
(0.846897 -0.106891 2.00783e-05)
(0.859971 -0.151948 -1.49322e-05)
(0.84614 -0.21281 1.83797e-05)
(0.861989 -0.243729 -1.24405e-05)
(0.843571 -0.297055 1.23854e-05)
(0.882206 -0.341253 -3.191e-05)
(0.877588 -0.374786 3.26244e-05)
(0.954505 -0.447403 -6.35764e-05)
(1.00045 -0.0243569 1.95676e-06)
(1.01057 -0.0720472 -6.19408e-07)
(1.03083 -0.118799 -8.34758e-06)
(1.06175 -0.161488 -4.3478e-06)
(1.10224 -0.199556 -8.53667e-06)
(1.15187 -0.230065 -6.25074e-06)
(1.20838 -0.251137 -3.15296e-06)
(1.26921 -0.261169 4.81619e-06)
(1.33056 -0.259109 1.81511e-05)
(1.38811 -0.246249 2.90643e-05)
(1.43829 -0.225657 3.10057e-05)
(1.47942 -0.201141 2.31232e-05)
(1.51209 -0.175951 6.28185e-06)
(1.53821 -0.151716 -6.69398e-06)
(1.55969 -0.128689 -1.09198e-05)
(1.57771 -0.106456 -1.00543e-05)
(1.59284 -0.0845443 -9.27115e-06)
(1.60557 -0.0623731 -1.00688e-05)
(1.61614 -0.0388941 -1.03492e-05)
(1.62435 -0.013055 -7.64505e-06)
(1.62947 0.0162014 -5.67709e-06)
(1.63 0.0495782 -4.72965e-06)
(1.62424 0.0867403 -2.59038e-06)
(1.61062 0.126809 1.15022e-06)
(1.58776 0.168347 4.32145e-06)
(1.55481 0.209311 6.07656e-06)
(1.51181 0.247324 6.22513e-06)
(1.45979 0.280057 5.34859e-06)
(1.40076 0.30564 3.71653e-06)
(1.33714 0.322903 2.05221e-06)
(1.27169 0.331476 4.4398e-08)
(1.2066 0.331589 -6.98331e-07)
(1.14408 0.323882 -1.27156e-06)
(1.0851 0.309076 -6.0105e-07)
(1.03106 0.287911 -4.10278e-07)
(0.981982 0.260599 6.09455e-07)
(0.939184 0.227402 1.51285e-06)
(0.902158 0.188287 1.52071e-06)
(0.871906 0.14173 5.50851e-06)
(0.851505 0.0870171 -1.98605e-06)
(0.839187 0.0217509 1.01623e-05)
(0.837732 -0.0401023 -1.06377e-05)
(0.825846 -0.105511 1.73719e-05)
(0.819833 -0.146289 -1.67845e-05)
(0.790496 -0.205296 1.03691e-05)
(0.791619 -0.238514 -1.44006e-05)
(0.775499 -0.302582 4.15502e-06)
(0.81521 -0.357924 -3.13205e-05)
(0.822711 -0.402186 2.77685e-05)
(0.905445 -0.488258 -6.26517e-05)
(1.00057 -0.0289056 2.58881e-06)
(1.01224 -0.0852466 1.19708e-06)
(1.03603 -0.141431 -9.89015e-06)
(1.07245 -0.192486 -3.63878e-06)
(1.12067 -0.239355 -1.35659e-05)
(1.18099 -0.276814 -7.99229e-06)
(1.25017 -0.302953 -5.73967e-06)
(1.32562 -0.314859 8.29271e-06)
(1.40171 -0.310439 2.80547e-05)
(1.47211 -0.291694 3.8863e-05)
(1.53123 -0.263332 3.6338e-05)
(1.57697 -0.231296 2.03608e-05)
(1.61093 -0.200137 -3.00231e-06)
(1.63655 -0.171468 -1.7857e-05)
(1.65671 -0.14503 -2.04118e-05)
(1.67303 -0.120073 -1.69298e-05)
(1.68633 -0.0960861 -1.56595e-05)
(1.69762 -0.0723246 -1.69148e-05)
(1.70756 -0.0472913 -1.714e-05)
(1.7162 -0.019378 -1.28234e-05)
(1.72282 0.0127715 -9.26379e-06)
(1.72549 0.0506159 -1.32066e-05)
(1.72184 0.0939286 -1.60353e-05)
(1.70974 0.141653 -1.30381e-05)
(1.68709 0.191901 -7.40399e-06)
(1.65216 0.241907 -1.93567e-06)
(1.60443 0.28842 1.27717e-06)
(1.54481 0.328266 1.87216e-06)
(1.47591 0.358919 4.67554e-07)
(1.40112 0.378865 -9.41181e-07)
(1.32429 0.387815 -2.10744e-06)
(1.24841 0.386385 -2.04233e-06)
(1.17623 0.375742 -1.97199e-06)
(1.10893 0.3571 -8.07208e-07)
(1.04785 0.331536 -1.7609e-07)
(0.99298 0.299362 9.74406e-07)
(0.94529 0.26112 2.25901e-06)
(0.903866 0.216662 2.56047e-06)
(0.87012 0.163461 6.32736e-06)
(0.847486 0.10069 -1.46606e-06)
(0.831683 0.0300242 7.47385e-06)
(0.818982 -0.0312035 -1.27916e-05)
(0.790198 -0.0898257 1.04283e-05)
(0.763052 -0.126065 -1.75516e-05)
(0.725799 -0.188751 3.79131e-06)
(0.72399 -0.233149 -1.25828e-05)
(0.724372 -0.315255 4.6425e-06)
(0.772351 -0.383714 -2.43704e-05)
(0.797049 -0.438946 2.603e-05)
(0.881696 -0.530369 -5.25243e-05)
(1.00071 -0.0341506 3.93457e-06)
(1.014 -0.100532 3.76721e-06)
(1.04198 -0.168105 -1.02691e-05)
(1.08444 -0.22909 -3.28503e-06)
(1.1422 -0.287687 -2.23617e-05)
(1.21587 -0.333923 -1.1842e-05)
(1.30109 -0.367218 -1.32076e-05)
(1.39613 -0.381593 1.3583e-05)
(1.49228 -0.373887 4.68833e-05)
(1.57909 -0.346453 5.53945e-05)
(1.64654 -0.306141 3.48279e-05)
(1.69279 -0.262993 -5.03955e-06)
(1.72222 -0.223754 -3.56593e-05)
(1.74121 -0.189569 -4.32404e-05)
(1.75406 -0.15912 -3.33069e-05)
(1.76288 -0.131232 -1.99186e-05)
(1.76903 -0.105535 -1.6834e-05)
(1.77433 -0.0809664 -1.91534e-05)
(1.78032 -0.0554647 -1.90449e-05)
(1.78729 -0.0265377 -1.53185e-05)
(1.79496 0.0074359 -5.69293e-06)
(1.80124 0.048652 -9.77151e-06)
(1.80285 0.0975373 -2.11167e-05)
(1.79678 0.153365 -2.79127e-05)
(1.77968 0.21393 -2.82822e-05)
(1.74827 0.27558 -2.32952e-05)
(1.70057 0.333638 -1.57179e-05)
(1.63655 0.383288 -9.23131e-06)
(1.55899 0.420814 -6.35594e-06)
(1.47264 0.444267 -5.9417e-06)
(1.38312 0.453578 -6.20116e-06)
(1.2949 0.449957 -5.14065e-06)
(1.21164 0.435342 -3.85962e-06)
(1.13484 0.411723 -1.58047e-06)
(1.06581 0.380639 -1.04186e-07)
(1.00457 0.342649 1.41629e-06)
(0.951378 0.298802 3.32765e-06)
(0.90501 0.248388 4.1194e-06)
(0.867913 0.187603 6.27962e-06)
(0.842216 0.117414 -2.08111e-06)
(0.818697 0.0459841 3.73617e-06)
(0.788472 -0.00869964 -1.56756e-05)
(0.740859 -0.0589341 4.32241e-06)
(0.699706 -0.0969414 -1.31387e-05)
(0.667779 -0.173691 4.90735e-06)
(0.67523 -0.238071 -6.47697e-06)
(0.697594 -0.340556 8.44602e-06)
(0.753152 -0.41959 -1.49128e-05)
(0.791606 -0.482265 2.18855e-05)
(0.871163 -0.570118 -3.98914e-05)
(1.00074 -0.0400535 6.72534e-06)
(1.01588 -0.118207 6.66477e-06)
(1.04837 -0.199183 -6.43753e-06)
(1.09712 -0.272327 -5.46387e-06)
(1.16692 -0.346797 -3.49886e-05)
(1.25617 -0.403855 -2.54416e-05)
(1.36174 -0.447833 -3.72668e-05)
(1.48369 -0.465382 7.05013e-06)
(1.60644 -0.452437 6.34015e-05)
(1.71029 -0.411283 8.45221e-05)
(1.7775 -0.352213 4.67011e-05)
(1.81064 -0.292376 -3.04744e-05)
(1.82045 -0.241586 -7.96533e-05)
(1.81882 -0.199944 -7.55406e-05)
(1.81197 -0.164524 -4.03235e-05)
(1.80245 -0.133693 -8.5695e-06)
(1.79229 -0.107442 -3.70334e-06)
(1.78429 -0.0840086 -8.62111e-06)
(1.78135 -0.0604284 -8.03957e-06)
(1.784 -0.0333975 -6.62972e-06)
(1.79238 0.000453548 1.56911e-07)
(1.805 0.042102 6.81201e-07)
(1.81784 0.093907 -7.25167e-06)
(1.82682 0.156242 -1.63258e-05)
(1.82664 0.227191 -2.60814e-05)
(1.81154 0.302609 -3.48142e-05)
(1.77665 0.376372 -3.84715e-05)
(1.71914 0.441034 -3.45827e-05)
(1.64034 0.48991 -2.67196e-05)
(1.54605 0.519386 -1.92803e-05)
(1.4447 0.529666 -1.40866e-05)
(1.34368 0.523247 -9.68819e-06)
(1.24854 0.503505 -6.30002e-06)
(1.16149 0.473626 -2.60116e-06)
(1.08399 0.435723 -2.66571e-07)
(1.01602 0.390916 1.83578e-06)
(0.956741 0.340899 4.49581e-06)
(0.905298 0.283582 5.24055e-06)
(0.865123 0.214552 4.60359e-06)
(0.834049 0.139851 -4.20966e-06)
(0.797132 0.0739857 1.54032e-07)
(0.746641 0.0291874 -9.34147e-06)
(0.685642 -0.0179963 5.03789e-06)
(0.643245 -0.0690022 -4.49171e-06)
(0.626914 -0.168917 9.00446e-06)
(0.647934 -0.256767 -3.2158e-06)
(0.687762 -0.376546 6.4081e-06)
(0.745825 -0.46127 -8.50928e-06)
(0.791792 -0.527448 1.32858e-05)
(0.862244 -0.60524 -2.95443e-05)
(1.00042 -0.0464895 1.18014e-05)
(1.01815 -0.138493 1.05995e-05)
(1.05392 -0.234423 6.76894e-06)
(1.10985 -0.323758 -1.04069e-05)
(1.19357 -0.41885 -4.26377e-05)
(1.2991 -0.489886 -5.86163e-05)
(1.43281 -0.551665 -8.42005e-05)
(1.59189 -0.573953 -1.70963e-05)
(1.7422 -0.545889 4.61676e-05)
(1.84638 -0.477439 9.49091e-05)
(1.88377 -0.388459 0.000111985)
(1.87333 -0.30592 2.63196e-05)
(1.83416 -0.240168 -6.25215e-05)
(1.78802 -0.189478 -6.96413e-05)
(1.74317 -0.14877 -1.45067e-05)
(1.70187 -0.116278 2.55614e-05)
(1.66562 -0.0922226 2.34271e-05)
(1.63836 -0.0737424 1.52305e-05)
(1.62403 -0.0565713 1.83635e-05)
(1.62403 -0.0367367 2.00325e-05)
(1.63728 -0.00976269 1.07436e-05)
(1.66262 0.0271607 1.0925e-05)
(1.69685 0.0773967 1.55227e-05)
(1.73396 0.1423 1.79121e-05)
(1.76666 0.221001 1.23378e-05)
(1.78665 0.30984 -1.34501e-06)
(1.78578 0.402115 -1.96226e-05)
(1.75674 0.488088 -3.54981e-05)
(1.69607 0.556565 -4.32165e-05)
(1.60747 0.599253 -4.07733e-05)
(1.50162 0.614559 -3.18374e-05)
(1.39065 0.606332 -2.08465e-05)
(1.28425 0.580697 -1.17668e-05)
(1.18684 0.543177 -4.59014e-06)
(1.10085 0.496981 -6.66209e-07)
(1.02601 0.444426 2.46822e-06)
(0.960377 0.38755 5.56568e-06)
(0.904457 0.322066 4.86438e-06)
(0.860938 0.245432 6.19644e-07)
(0.820588 0.171485 -8.12347e-06)
(0.766257 0.116266 -3.50718e-06)
(0.698699 0.0789146 -6.1432e-06)
(0.634566 0.0242579 8.3767e-06)
(0.601678 -0.0502686 1.40017e-06)
(0.603369 -0.1768 8.33129e-06)
(0.635275 -0.286305 -5.01096e-06)
(0.685295 -0.418321 -1.10157e-06)
(0.741695 -0.504455 -4.89337e-06)
(0.790922 -0.571493 4.13993e-06)
(0.851518 -0.635275 -2.12215e-05)
(0.99967 -0.0532999 1.89137e-05)
(1.02071 -0.160877 2.06745e-05)
(1.05621 -0.272861 3.34082e-05)
(1.12174 -0.384913 -1.03126e-05)
(1.21584 -0.504058 -2.28219e-05)
(1.33976 -0.598503 -0.000107524)
(1.51489 -0.690868 -0.000123863)
(1.71659 -0.713272 -4.43799e-05)
(1.86631 -0.641623 1.35248e-05)
(1.90576 -0.512421 3.733e-05)
(1.84502 -0.374939 0.00015222)
(1.73993 -0.26836 0.000119745)
(1.60842 -0.190347 1.60197e-05)
(1.49566 -0.135653 -1.612e-05)
(1.40602 -0.0948162 3.70252e-05)
(1.33575 -0.0667028 5.66043e-05)
(1.28131 -0.0520493 1.84473e-05)
(1.24778 -0.0460646 -4.88597e-08)
(1.23883 -0.0432702 7.37756e-06)
(1.25388 -0.038924 1.31818e-05)
(1.2908 -0.0274683 1.28322e-05)
(1.3467 -0.00247935 1.84809e-05)
(1.41593 0.0402247 2.97298e-05)
(1.49204 0.103674 4.50202e-05)
(1.56778 0.18663 5.55733e-05)
(1.63455 0.28646 5.25659e-05)
(1.68297 0.396989 3.50028e-05)
(1.70284 0.507767 8.08401e-06)
(1.68479 0.603849 -2.07137e-05)
(1.62589 0.67029 -3.98478e-05)
(1.53416 0.699905 -4.32562e-05)
(1.4248 0.695347 -3.39278e-05)
(1.31298 0.665649 -2.04917e-05)
(1.20776 0.620061 -8.74418e-06)
(1.1145 0.564355 -2.15938e-06)
(1.03306 0.503276 2.83228e-06)
(0.961488 0.438461 5.72891e-06)
(0.902151 0.363735 2.08893e-06)
(0.853722 0.282266 -5.38032e-06)
(0.800115 0.214932 -1.22615e-05)
(0.728534 0.171176 -4.72603e-06)
(0.651853 0.133343 -9.55992e-07)
(0.5944 0.0602614 1.0309e-05)
(0.575703 -0.0436083 2.23257e-06)
(0.592716 -0.195194 3.30307e-06)
(0.63141 -0.322293 -7.50427e-06)
(0.686832 -0.462109 -7.97288e-06)
(0.739708 -0.546881 -1.45116e-06)
(0.790094 -0.613063 -2.35458e-06)
(0.840899 -0.66041 -1.38232e-05)
(0.998947 -0.0602164 2.59505e-05)
(1.02181 -0.183253 4.13832e-05)
(1.05334 -0.313139 6.63783e-05)
(1.12781 -0.45362 1.31892e-05)
(1.2207 -0.60009 3.86053e-05)
(1.37488 -0.74032 -0.000177591)
(1.59678 -0.871432 -7.3003e-05)
(1.80539 -0.852483 -0.000140578)
(1.86456 -0.764724 5.25273e-05)
(1.77068 -0.523949 -0.00014321)
(1.54027 -0.297259 -0.00010562)
(1.2773 -0.154245 -4.91212e-05)
(0.87375 -0.0442379 -2.7474e-05)
(0.777859 -0.0258242 -2.00593e-05)
(0.727694 -0.0136742 5.91057e-05)
(0.698939 -0.0111462 4.76958e-05)
(0.686275 -0.0213211 -1.62591e-05)
(0.701368 -0.0390805 -1.93946e-05)
(0.743467 -0.0589521 -7.52253e-06)
(0.807158 -0.0750001 -7.28341e-06)
(0.888253 -0.0802515 -7.65989e-06)
(0.983236 -0.0676228 8.52689e-07)
(1.08771 -0.03207 1.31103e-05)
(1.19555 0.0291185 1.74963e-05)
(1.30182 0.116385 4.48516e-05)
(1.40253 0.226245 6.53464e-05)
(1.49064 0.35343 6.61688e-05)
(1.55678 0.488887 4.92337e-05)
(1.58856 0.616529 1.79036e-05)
(1.57539 0.715601 -1.72799e-05)
(1.51744 0.770855 -3.84442e-05)
(1.42731 0.779898 -3.94934e-05)
(1.32251 0.752436 -2.75227e-05)
(1.21714 0.701301 -1.34899e-05)
(1.12083 0.636579 -4.42087e-06)
(1.03471 0.566852 2.27914e-06)
(0.959057 0.492835 3.77883e-06)
(0.897293 0.40896 -3.34625e-06)
(0.841451 0.327237 -1.19356e-05)
(0.77271 0.270462 -1.44512e-05)
(0.688377 0.234063 -3.33196e-06)
(0.611729 0.185523 4.03038e-06)
(0.567232 0.0859506 1.00811e-05)
(0.563001 -0.0482796 2.04598e-06)
(0.592045 -0.221221 -1.0181e-06)
(0.635133 -0.361881 -6.93041e-06)
(0.693737 -0.506048 -1.15442e-05)
(0.742316 -0.587576 2.23774e-06)
(0.792435 -0.651314 -6.26748e-06)