/*--------------------------------*- C++ -*----------------------------------*\
  =========                 |
  \\      /  F ield         | OpenFOAM: The Open Source CFD Toolbox
   \\    /   O peration     | Website:  https://openfoam.org
    \\  /    A nd           | Version:  8
     \\/     M anipulation  |
\*---------------------------------------------------------------------------*/
FoamFile
{
    version     2.0;
    format      ascii;
    class       surfaceScalarField;
    location    "50";
    object      phi;
}
// * * * * * * * * * * * * * * * * * * * * * * * * * * * * * * * * * * * * * //

dimensions      [0 3 -1 0 0 0 0];

internalField   nonuniform List<scalar> 
760
(
0.0004
-2.27921e-19
0.0004
-1.40745e-18
0.0004
-3.31234e-18
0.0004
-6.04524e-18
0.0004
-9.80696e-18
0.0004
-1.46942e-17
0.0004
-2.09443e-17
0.0004
-2.90432e-17
0.0004
-3.92782e-17
0.0004
-5.2091e-17
0.0004
-6.78359e-17
0.0004
-8.72496e-17
0.0004
-1.11033e-16
0.0004
-1.39922e-16
0.0004
-1.75021e-16
0.0004
-2.17586e-16
0.0004
-2.68935e-16
0.0004
-3.31115e-16
0.0004
-4.03395e-16
-5.06729e-16
0.0004
-4.49869e-19
0.0004
-1.91357e-18
0.0004
-4.16833e-18
0.0004
-7.23367e-18
0.0004
-1.12398e-17
0.0004
-1.63799e-17
0.0004
-2.29594e-17
0.0004
-3.14069e-17
0.0004
-4.1863e-17
0.0004
-5.48482e-17
0.0004
-7.08866e-17
0.0004
-9.0566e-17
0.0004
-1.14495e-16
0.0004
-1.43517e-16
0.0004
-1.7868e-16
0.0004
-2.21307e-16
0.0004
-2.72654e-16
0.0004
-3.34629e-16
0.0004
-4.06715e-16
-5.09814e-16
0.0004
-5.71199e-19
0.0004
-2.29146e-18
0.0004
-4.87591e-18
0.0004
-8.18288e-18
0.0004
-1.2487e-17
0.0004
-1.79552e-17
0.0004
-2.48869e-17
0.0004
-3.34659e-17
0.0004
-4.41999e-17
0.0004
-5.74523e-17
0.0004
-7.36242e-17
0.0004
-9.35056e-17
0.0004
-1.17665e-16
0.0004
-1.46921e-16
0.0004
-1.82274e-16
0.0004
-2.24864e-16
0.0004
-2.76136e-16
0.0004
-3.38197e-16
0.0004
-4.10361e-16
-5.13431e-16
0.0004
-6.59637e-19
0.0004
-2.60497e-18
0.0004
-5.39401e-18
0.0004
-8.93608e-18
0.0004
-1.36005e-17
0.0004
-1.93097e-17
0.0004
-2.64243e-17
0.0004
-3.52841e-17
0.0004
-4.62091e-17
0.0004
-5.96834e-17
0.0004
-7.61595e-17
0.0004
-9.61709e-17
0.0004
-1.20461e-16
0.0004
-1.49897e-16
0.0004
-1.85466e-16
0.0004
-2.28189e-16
0.0004
-2.79582e-16
0.0004
-3.41702e-16
0.0004
-4.13959e-16
-5.17189e-16
0.0004
-7.7406e-19
0.0004
-2.80764e-18
0.0004
-5.75382e-18
0.0004
-9.62511e-18
0.0004
-1.43752e-17
0.0004
-2.03583e-17
0.0004
-2.77107e-17
0.0004
-3.67359e-17
0.0004
-4.79478e-17
0.0004
-6.15694e-17
0.0004
-7.82737e-17
0.0004
-9.8456e-17
0.0004
-1.22926e-16
0.0004
-1.52529e-16
0.0004
-1.88224e-16
0.0004
-2.31155e-16
0.0004
-2.82716e-16
0.0004
-3.44838e-16
0.0004
-4.17265e-16
-5.20796e-16
0.0004
-7.52845e-19
0.0004
-2.96329e-18
0.0004
-6.06238e-18
0.0004
-1.011e-17
0.0004
-1.50557e-17
0.0004
-2.11293e-17
0.0004
-2.86188e-17
0.0004
-3.78917e-17
0.0004
-4.93326e-17
0.0004
-6.32087e-17
0.0004
-7.99852e-17
0.0004
-1.00304e-16
0.0004
-1.24911e-16
0.0004
-1.54782e-16
0.0004
-1.90569e-16
0.0004
-2.33623e-16
0.0004
-2.85305e-16
0.0004
-3.47638e-16
0.0004
-4.20325e-16
-5.24088e-16
0.0004
-7.76164e-19
0.0004
-3.04372e-18
0.0004
-6.31559e-18
0.0004
-1.0384e-17
0.0004
-1.54694e-17
0.0004
-2.17025e-17
0.0004
-2.94206e-17
0.0004
-3.88219e-17
0.0004
-5.03428e-17
0.0004
-6.43125e-17
0.0004
-8.12235e-17
0.0004
-1.01794e-16
0.0004
-1.26595e-16
0.0004
-1.56452e-16
0.0004
-1.92405e-16
0.0004
-2.35645e-16
0.0004
-2.87448e-16
0.0004
-3.49886e-16
0.0004
-4.22778e-16
-5.26801e-16
0.0004
-7.9195e-19
0.0004
-3.15067e-18
0.0004
-6.44563e-18
0.0004
-1.05793e-17
0.0004
-1.57016e-17
0.0004
-2.21102e-17
0.0004
-2.99015e-17
0.0004
-3.94166e-17
0.0004
-5.10114e-17
0.0004
-6.51049e-17
0.0004
-8.21246e-17
0.0004
-1.02787e-16
0.0004
-1.27754e-16
0.0004
-1.57697e-16
0.0004
-1.9373e-16
0.0004
-2.37042e-16
0.0004
-2.88944e-16
0.0004
-3.51571e-16
0.0004
-4.24578e-16
-5.28797e-16
0.0004
-8.03736e-19
0.0004
-3.16979e-18
0.0004
-6.5418e-18
0.0004
-1.0727e-17
0.0004
-1.5912e-17
0.0004
-2.23175e-17
0.0004
-3.01609e-17
0.0004
-3.9754e-17
0.0004
-5.13882e-17
0.0004
-6.55445e-17
0.0004
-8.26757e-17
0.0004
-1.03398e-16
0.0004
-1.28374e-16
0.0004
-1.58388e-16
0.0004
-1.94516e-16
0.0004
-2.37821e-16
0.0004
-2.89839e-16
0.0004
-3.52552e-16
0.0004
-4.257e-16
-5.30128e-16
0.0004
-7.53053e-19
0.0004
-3.11591e-18
0.0004
-6.6137e-18
0.0004
-1.08614e-17
0.0004
-1.6026e-17
0.0004
-2.24037e-17
0.0004
-3.02415e-17
0.0004
-3.98053e-17
0.0004
-5.15047e-17
0.0004
-6.56881e-17
0.0004
-8.28567e-17
0.0004
-1.03549e-16
0.0004
-1.28545e-16
0.0004
-1.58633e-16
0.0004
-1.94721e-16
0.0004
-2.38081e-16
0.0004
-2.90178e-16
0.0004
-3.52898e-16
0.0004
-4.26063e-16
-5.30541e-16
0.0004
-7.51797e-19
0.0004
-3.19374e-18
0.0004
-6.54726e-18
0.0004
-1.08174e-17
0.0004
-1.59246e-17
0.0004
-2.23281e-17
0.0004
-3.01995e-17
0.0004
-3.9761e-17
0.0004
-5.1328e-17
0.0004
-6.54752e-17
0.0004
-8.26338e-17
0.0004
-1.03347e-16
0.0004
-1.28311e-16
0.0004
-1.58288e-16
0.0004
-1.94412e-16
0.0004
-2.37841e-16
0.0004
-2.89882e-16
0.0004
-3.52564e-16
0.0004
-4.25686e-16
-5.30107e-16
0.0004
-8.12376e-19
0.0004
-3.11503e-18
0.0004
-6.45583e-18
0.0004
-1.06449e-17
0.0004
-1.57917e-17
0.0004
-2.21618e-17
0.0004
-2.99005e-17
0.0004
-3.93997e-17
0.0004
-5.09366e-17
0.0004
-6.50032e-17
0.0004
-8.20826e-17
0.0004
-1.02685e-16
0.0004
-1.27506e-16
0.0004
-1.57531e-16
0.0004
-1.93656e-16
0.0004
-2.36995e-16
0.0004
-2.88923e-16
0.0004
-3.51574e-16
0.0004
-4.24647e-16
-5.2891e-16
0.0004
-8.86734e-19
0.0004
-3.10439e-18
0.0004
-6.28076e-18
0.0004
-1.03925e-17
0.0004
-1.54887e-17
0.0004
-2.16782e-17
0.0004
-2.93803e-17
0.0004
-3.87987e-17
0.0004
-5.02273e-17
0.0004
-6.41621e-17
0.0004
-8.11671e-17
0.0004
-1.01693e-16
0.0004
-1.26469e-16
0.0004
-1.56302e-16
0.0004
-1.92285e-16
0.0004
-2.35526e-16
0.0004
-2.87439e-16
0.0004
-3.49917e-16
0.0004
-4.22809e-16
-5.26857e-16
0.0004
-7.99801e-19
0.0004
-3.01988e-18
0.0004
-6.1045e-18
0.0004
-1.00458e-17
0.0004
-1.50143e-17
0.0004
-2.11141e-17
0.0004
-2.86087e-17
0.0004
-3.78544e-17
0.0004
-4.91991e-17
0.0004
-6.3001e-17
0.0004
-7.98634e-17
0.0004
-1.00266e-16
0.0004
-1.2489e-16
0.0004
-1.54646e-16
0.0004
-1.90493e-16
0.0004
-2.33608e-16
0.0004
-2.8528e-16
0.0004
-3.4765e-16
0.0004
-4.20312e-16
-5.24103e-16
0.0004
-7.25387e-19
0.0004
-2.86616e-18
0.0004
-5.81682e-18
0.0004
-9.61323e-18
0.0004
-1.43328e-17
0.0004
-2.02542e-17
0.0004
-2.75864e-17
0.0004
-3.66405e-17
0.0004
-4.78063e-17
0.0004
-6.15093e-17
0.0004
-7.81855e-17
0.0004
-9.83892e-17
0.0004
-1.22879e-16
0.0004
-1.5253e-16
0.0004
-1.88144e-16
0.0004
-2.31063e-16
0.0004
-2.82624e-16
0.0004
-3.44859e-16
0.0004
-4.17304e-16
-5.20807e-16
0.0004
-6.95284e-19
0.0004
-2.71741e-18
0.0004
-5.47734e-18
0.0004
-8.93826e-18
0.0004
-1.34978e-17
0.0004
-1.91474e-17
0.0004
-2.6284e-17
0.0004
-3.51142e-17
0.0004
-4.60862e-17
0.0004
-5.96127e-17
0.0004
-7.60517e-17
0.0004
-9.60996e-17
0.0004
-1.20479e-16
0.0004
-1.49874e-16
0.0004
-1.85349e-16
0.0004
-2.28097e-16
0.0004
-2.7957e-16
0.0004
-3.41613e-16
0.0004
-4.13893e-16
-5.17161e-16
0.0004
-5.75024e-19
0.0004
-2.4216e-18
0.0004
-4.92415e-18
0.0004
-8.17616e-18
0.0004
-1.24012e-17
0.0004
-1.78329e-17
0.0004
-2.46923e-17
0.0004
-3.33021e-17
0.0004
-4.40451e-17
0.0004
-5.72822e-17
0.0004
-7.35632e-17
0.0004
-9.34629e-17
0.0004
-1.17578e-16
0.0004
-1.46794e-16
0.0004
-1.82141e-16
0.0004
-2.24832e-16
0.0004
-2.76161e-16
0.0004
-3.38167e-16
0.0004
-4.10313e-16
-5.13448e-16
0.0004
-4.91031e-19
0.0004
-1.92886e-18
0.0004
-4.14749e-18
0.0004
-7.16713e-18
0.0004
-1.11262e-17
0.0004
-1.6262e-17
0.0004
-2.28724e-17
0.0004
-3.12669e-17
0.0004
-4.17003e-17
0.0004
-5.47522e-17
0.0004
-7.07698e-17
0.0004
-9.03898e-17
0.0004
-1.14332e-16
0.0004
-1.43431e-16
0.0004
-1.7866e-16
0.0004
-2.2128e-16
0.0004
-2.72628e-16
0.0004
-3.34676e-16
0.0004
-4.0676e-16
-5.09808e-16
0.0004
-3.34591e-19
0.0004
-1.45644e-18
0.0004
-3.27643e-18
0.0004
-6.0147e-18
0.0004
-9.67543e-18
0.0004
-1.45313e-17
0.0004
-2.08612e-17
0.0004
-2.89861e-17
0.0004
-3.9225e-17
0.0004
-5.1939e-17
0.0004
-6.77037e-17
0.0004
-8.71523e-17
0.0004
-1.10916e-16
0.0004
-1.39825e-16
0.0004
-1.74991e-16
0.0004
-2.17569e-16
0.0004
-2.68925e-16
0.0004
-3.31144e-16
0.0004
-4.03413e-16
-5.0674e-16
0.0004
0.0004
0.0004
0.0004
0.0004
0.0004
0.0004
0.0004
0.0004
0.0004
0.0004
0.0004
0.0004
0.0004
0.0004
0.0004
0.0004
0.0004
0.0004
)
;

boundaryField
{
    inlet
    {
        type            calculated;
        value           nonuniform List<scalar> 
20
(
-0.0004
-0.0004
-0.0004
-0.0004
-0.0004
-0.0004
-0.0004
-0.0004
-0.0004
-0.0004
-0.0004
-0.0004
-0.0004
-0.0004
-0.0004
-0.0004
-0.0004
-0.0004
-0.0004
-0.0004
)
;
    }
    outlet
    {
        type            calculated;
        value           nonuniform List<scalar> 
20
(
0.0004
0.0004
0.0004
0.0004
0.0004
0.0004
0.0004
0.0004
0.0004
0.0004
0.0004
0.0004
0.0004
0.0004
0.0004
0.0004
0.0004
0.0004
0.0004
0.0004
)
;
    }
    up
    {
        type            calculated;
        value           nonuniform List<scalar> 
20
(
-7.3718e-20
-8.26844e-19
-2.37557e-18
-4.76209e-18
-8.1433e-18
-1.27281e-17
-1.8765e-17
-2.65881e-17
-3.65389e-17
-4.90141e-17
-6.45295e-17
-8.37246e-17
-1.07299e-16
-1.36104e-16
-1.71161e-16
-2.13723e-16
-2.65149e-16
-3.27514e-16
-4.00274e-16
-5.04319e-16
)
;
    }
    down
    {
        type            calculated;
        value           nonuniform List<scalar> 
20
(
5.84325e-20
8.08546e-19
2.37824e-18
4.80453e-18
8.23805e-18
1.28427e-17
1.8854e-17
2.66622e-17
3.66088e-17
4.91267e-17
6.46449e-17
8.38431e-17
1.07419e-16
1.36182e-16
1.7122e-16
2.13771e-16
2.65167e-16
3.27486e-16
4.00232e-16
5.0426e-16
)
;
    }
    frontAndBack
    {
        type            empty;
        value           nonuniform List<scalar> 0();
    }
}


// ************************************************************************* //
