# Probe 0 (0 1 0)
# Probe 1 (0.1 0.9 0)
# Probe 2 (0.2 0.8 0)
# Probe 3 (0.3 0.7 0)
# Probe 4 (0.4 0.6 0)
# Probe 5 (0.5 0.5 0)
# Probe 6 (0.6 0.4 0)
# Probe 7 (0.7 0.3 0)
# Probe 8 (0.8 0.2 0)
# Probe 9 (0.9 0.1 0)
# Probe 10 (1 0 0)
# Time        0             1             2             3             4             5             6             7             8             9             10           
0             0             0             0             0             0             0             0             0             0             0             0            
1             100           100           99.9995       99.8099       92.3796       50            7.62039       0.190083      0.000463177   4.11273e-08   8.88178e-14  
