/*--------------------------------*- C++ -*----------------------------------*\
  =========                 |
  \\      /  F ield         | OpenFOAM: The Open Source CFD Toolbox
   \\    /   O peration     | Website:  https://openfoam.org
    \\  /    A nd           | Version:  8
     \\/     M anipulation  |
\*---------------------------------------------------------------------------*/
FoamFile
{
    version     2.0;
    format      ascii;
    class       surfaceScalarField;
    location    "95";
    object      phi;
}
// * * * * * * * * * * * * * * * * * * * * * * * * * * * * * * * * * * * * * //

dimensions      [0 3 -1 0 0 0 0];

internalField   nonuniform List<scalar> 
760
(
0.0004
7.25695e-20
0.0004
2.68761e-20
0.0004
6.02212e-20
0.0004
3.10845e-20
0.0004
3.18354e-20
0.0004
8.89446e-20
0.0004
8.96312e-20
0.0004
8.75725e-20
0.0004
1.20317e-19
0.0004
4.9731e-20
0.0004
5.9884e-20
0.0004
-6.67685e-20
0.0004
-7.9598e-20
0.0004
-7.09778e-20
0.0004
-9.68934e-20
0.0004
-8.57257e-20
0.0004
-1.26538e-19
0.0004
-1.38239e-19
0.0004
-1.0304e-19
-1.23794e-19
0.0004
7.11739e-21
0.0004
7.31751e-20
0.0004
7.95762e-20
0.0004
7.06889e-20
0.0004
7.13802e-20
0.0004
6.24724e-20
0.0004
4.76553e-20
0.0004
6.97149e-20
0.0004
4.17988e-20
0.0004
9.54073e-20
0.0004
3.12109e-20
0.0004
-4.73173e-20
0.0004
-8.72466e-20
0.0004
-7.34565e-20
0.0004
-7.29218e-20
0.0004
-8.24902e-20
0.0004
-9.30388e-20
0.0004
-1.74746e-19
0.0004
-1.54302e-19
-1.38515e-19
0.0004
-7.8758e-20
0.0004
7.17073e-21
0.0004
4.11124e-20
0.0004
9.1696e-20
0.0004
4.71833e-20
0.0004
5.52652e-20
0.0004
4.93738e-20
0.0004
3.35924e-20
0.0004
7.32444e-20
0.0004
4.49543e-20
0.0004
-4.38798e-21
0.0004
2.79081e-20
0.0004
-3.60714e-20
0.0004
-6.59474e-20
0.0004
-4.45115e-20
0.0004
-1.20042e-19
0.0004
-1.25223e-19
0.0004
-1.4076e-19
0.0004
-1.87229e-19
-1.2832e-19
0.0004
-9.55144e-20
0.0004
-5.57268e-20
0.0004
2.75646e-20
0.0004
8.78533e-20
0.0004
9.34245e-20
0.0004
2.0981e-20
0.0004
2.91779e-20
0.0004
5.46466e-20
0.0004
5.50413e-20
0.0004
4.76668e-20
0.0004
2.33092e-20
0.0004
4.5404e-20
0.0004
1.70624e-20
0.0004
-9.28218e-20
0.0004
-4.30498e-20
0.0004
-1.10645e-19
0.0004
-1.69041e-19
0.0004
-1.79851e-19
0.0004
-2.48433e-19
-2.2423e-19
0.0004
-3.69987e-20
0.0004
-3.10166e-20
0.0004
7.99827e-20
0.0004
8.68754e-20
0.0004
2.2241e-20
0.0004
1.12234e-20
0.0004
2.41287e-20
0.0004
1.76449e-20
0.0004
-3.0005e-20
0.0004
2.25109e-20
0.0004
2.23071e-20
0.0004
-2.17528e-20
0.0004
-3.3196e-21
0.0004
-8.07131e-20
0.0004
-7.05991e-20
0.0004
-7.24077e-20
0.0004
-1.41413e-19
0.0004
-1.85197e-19
0.0004
-2.20012e-19
-2.14083e-19
0.0004
2.2207e-20
0.0004
5.77097e-20
0.0004
7.17313e-20
0.0004
7.43973e-20
0.0004
2.80516e-20
0.0004
1.21324e-20
0.0004
-5.67651e-21
0.0004
-1.81724e-20
0.0004
-2.15853e-20
0.0004
-3.74135e-20
0.0004
-5.34959e-20
0.0004
7.60175e-21
0.0004
-5.65047e-20
0.0004
-9.4282e-20
0.0004
-1.21723e-19
0.0004
-4.87686e-20
0.0004
-1.3843e-19
0.0004
-1.44751e-19
0.0004
-1.48281e-19
-2.00374e-19
0.0004
5.95409e-20
0.0004
2.79522e-20
0.0004
5.77873e-20
0.0004
6.73658e-20
0.0004
6.11391e-20
0.0004
1.86276e-20
0.0004
-2.94362e-20
0.0004
-3.75201e-20
0.0004
-6.72332e-20
0.0004
-9.66116e-20
0.0004
-4.45536e-20
0.0004
-6.42115e-20
0.0004
-8.43831e-20
0.0004
-1.01361e-19
0.0004
-1.42992e-19
0.0004
-1.32177e-19
0.0004
-8.71365e-20
0.0004
-1.22312e-19
0.0004
-1.11502e-19
-1.4088e-19
0.0004
2.29985e-20
0.0004
2.51393e-20
0.0004
2.46238e-20
0.0004
6.92136e-20
0.0004
8.18015e-20
0.0004
6.04579e-20
0.0004
3.31222e-20
0.0004
-4.51953e-20
0.0004
-1.05539e-19
0.0004
-1.84648e-19
0.0004
-9.02278e-20
0.0004
-8.54346e-20
0.0004
-1.44051e-19
0.0004
-9.56607e-20
0.0004
-1.21194e-19
0.0004
-1.03732e-19
0.0004
-1.10808e-19
0.0004
-1.4641e-19
0.0004
-1.21344e-19
-1.0318e-19
0.0004
1.98691e-21
0.0004
-6.09981e-22
0.0004
-1.26172e-20
0.0004
6.42043e-20
0.0004
5.91716e-20
0.0004
6.60045e-20
0.0004
3.8496e-20
0.0004
-6.20044e-20
0.0004
-1.62912e-19
0.0004
-1.60664e-19
0.0004
-7.04913e-20
0.0004
-5.71898e-20
0.0004
-7.98286e-20
0.0004
-1.67664e-19
0.0004
-1.44377e-19
0.0004
-1.14353e-19
0.0004
-1.24018e-19
0.0004
-1.43986e-19
0.0004
-1.30959e-19
-1.1861e-19
0.0004
-1.17642e-20
0.0004
-1.34653e-20
0.0004
2.23704e-21
0.0004
-9.20484e-21
0.0004
3.80164e-20
0.0004
7.22134e-20
0.0004
1.75071e-20
0.0004
-7.15066e-20
0.0004
-1.60035e-19
0.0004
-1.50107e-19
0.0004
-1.09631e-19
0.0004
-7.08019e-20
0.0004
-8.48334e-20
0.0004
-1.23658e-19
0.0004
-1.57173e-19
0.0004
-9.88898e-20
0.0004
-1.19919e-19
0.0004
-1.44936e-19
0.0004
-1.3478e-19
-1.22361e-19
0.0004
-2.25474e-20
0.0004
-1.47817e-20
0.0004
-4.81142e-20
0.0004
-4.50915e-20
0.0004
5.23278e-20
0.0004
1.26905e-20
0.0004
-7.43993e-20
0.0004
-1.62335e-19
0.0004
-5.9315e-20
0.0004
-4.60986e-20
0.0004
-1.00628e-19
0.0004
-9.99046e-20
0.0004
-8.78043e-20
0.0004
-9.96405e-20
0.0004
-1.20075e-19
0.0004
-1.30916e-19
0.0004
-1.44963e-19
0.0004
-1.39493e-19
0.0004
-1.35966e-19
-1.49795e-19
0.0004
7.99637e-21
0.0004
1.10868e-20
0.0004
-3.34093e-20
0.0004
-6.3018e-20
0.0004
-6.29159e-20
0.0004
-1.43326e-20
0.0004
-1.11804e-19
0.0004
-1.10618e-19
0.0004
-6.40886e-20
0.0004
-1.21109e-20
0.0004
-1.20494e-19
0.0004
-1.28722e-19
0.0004
-8.8883e-20
0.0004
-4.98518e-20
0.0004
-6.18026e-20
0.0004
-1.48457e-19
0.0004
-1.52255e-19
0.0004
-1.12391e-19
0.0004
-1.29545e-19
-1.94038e-19
0.0004
-4.68835e-21
0.0004
-3.78761e-21
0.0004
-2.18058e-20
0.0004
-5.41718e-20
0.0004
-7.86909e-20
0.0004
-9.84225e-20
0.0004
-8.81692e-20
0.0004
-1.02644e-19
0.0004
-7.30441e-20
0.0004
-8.90934e-20
0.0004
-1.08659e-19
0.0004
-1.17778e-19
0.0004
-9.66317e-20
0.0004
-5.60035e-20
0.0004
1.88076e-20
0.0004
-1.2195e-19
0.0004
-1.69951e-19
0.0004
-1.50973e-19
0.0004
-2.09262e-19
-1.98294e-19
0.0004
-1.9752e-20
0.0004
2.99206e-20
0.0004
-3.35241e-20
0.0004
-8.71767e-20
0.0004
-9.8221e-20
0.0004
-1.13718e-19
0.0004
-9.18839e-20
0.0004
-6.4224e-20
0.0004
-9.21027e-20
0.0004
-7.7576e-20
0.0004
-8.0925e-20
0.0004
-6.78957e-20
0.0004
-1.02898e-19
0.0004
-8.0092e-20
0.0004
-1.13395e-19
0.0004
-1.2711e-19
0.0004
-1.02315e-19
0.0004
-1.34957e-19
0.0004
-1.73135e-19
-2.10447e-19
0.0004
3.56002e-20
0.0004
-3.51177e-20
0.0004
-1.83527e-20
0.0004
-9.46797e-20
0.0004
-1.06722e-19
0.0004
-1.27168e-19
0.0004
-8.74421e-20
0.0004
-2.12327e-20
0.0004
-4.04024e-20
0.0004
-2.47192e-20
0.0004
-6.6585e-20
0.0004
-6.23269e-20
0.0004
-7.7114e-20
0.0004
-1.02612e-19
0.0004
-1.10574e-19
0.0004
-9.68382e-20
0.0004
-1.12663e-19
0.0004
-1.30875e-19
0.0004
-1.80634e-19
-1.88721e-19
0.0004
6.86487e-21
0.0004
-4.40311e-20
0.0004
-1.04415e-19
0.0004
-9.96981e-20
0.0004
-9.57692e-20
0.0004
-1.11883e-19
0.0004
-6.92513e-20
0.0004
-1.75783e-20
0.0004
4.2644e-20
0.0004
-2.01646e-20
0.0004
-4.73929e-20
0.0004
-8.04684e-20
0.0004
-5.60345e-20
0.0004
-4.63446e-20
0.0004
-5.24902e-20
0.0004
-5.82122e-20
0.0004
-1.5012e-19
0.0004
-1.58062e-19
0.0004
-1.49473e-19
-1.93412e-19
0.0004
-6.72591e-21
0.0004
-5.38417e-20
0.0004
-1.4186e-19
0.0004
-1.14507e-19
0.0004
-1.13258e-19
0.0004
-1.17766e-19
0.0004
-5.52915e-20
0.0004
1.82604e-20
0.0004
4.18596e-20
0.0004
-2.03503e-20
0.0004
-2.70859e-20
0.0004
-2.12978e-20
0.0004
-3.60189e-21
0.0004
-1.49767e-20
0.0004
-2.59237e-20
0.0004
-1.03343e-19
0.0004
-1.3266e-19
0.0004
-1.37992e-19
0.0004
-1.50275e-19
-1.55322e-19
0.0004
-1.06046e-20
0.0004
-5.50246e-20
0.0004
-1.14781e-19
0.0004
-1.2086e-19
0.0004
-1.14229e-19
0.0004
-8.02262e-20
0.0004
-6.56657e-20
0.0004
-4.18839e-20
0.0004
-1.70534e-20
0.0004
2.79436e-20
0.0004
-2.46303e-20
0.0004
-3.09041e-20
0.0004
3.55216e-20
0.0004
1.90209e-20
0.0004
-7.30323e-20
0.0004
-9.27427e-20
0.0004
-1.18081e-19
0.0004
-1.11147e-19
0.0004
-1.45496e-19
-1.23944e-19
0.0004
-3.43982e-21
0.0004
-9.88857e-21
0.0004
-6.63164e-20
0.0004
-1.17777e-19
0.0004
-1.1891e-19
0.0004
-1.31301e-19
0.0004
-7.0787e-20
0.0004
-4.34148e-20
0.0004
-1.70127e-20
0.0004
1.60743e-20
0.0004
-8.50304e-21
0.0004
-3.40075e-20
0.0004
4.49082e-20
0.0004
1.93211e-20
0.0004
-8.03033e-20
0.0004
-9.00935e-20
0.0004
-7.59416e-20
0.0004
-1.21871e-19
0.0004
-1.31959e-19
-1.33511e-19
0.0004
0.0004
0.0004
0.0004
0.0004
0.0004
0.0004
0.0004
0.0004
0.0004
0.0004
0.0004
0.0004
0.0004
0.0004
0.0004
0.0004
0.0004
0.0004
)
;

boundaryField
{
    inlet
    {
        type            calculated;
        value           nonuniform List<scalar> 
20
(
-0.0004
-0.0004
-0.0004
-0.0004
-0.0004
-0.0004
-0.0004
-0.0004
-0.0004
-0.0004
-0.0004
-0.0004
-0.0004
-0.0004
-0.0004
-0.0004
-0.0004
-0.0004
-0.0004
-0.0004
)
;
    }
    outlet
    {
        type            calculated;
        value           nonuniform List<scalar> 
20
(
0.0004
0.0004
0.0004
0.0004
0.0004
0.0004
0.0004
0.0004
0.0004
0.0004
0.0004
0.0004
0.0004
0.0004
0.0004
0.0004
0.0004
0.0004
0.0004
0.0004
)
;
    }
    up
    {
        type            calculated;
        value           nonuniform List<scalar> 
20
(
-1.11979e-22
-1.34709e-20
-4.89389e-20
-8.30733e-20
-1.00106e-19
-1.00403e-19
-7.34642e-20
-7.3239e-20
-4.61587e-20
-2.46388e-20
-1.85324e-20
-2.60058e-20
8.06407e-21
2.66384e-20
-5.52226e-21
-5.95424e-20
-8.09631e-20
-9.84628e-20
-1.0191e-19
-1.11505e-19
)
;
    }
    down
    {
        type            calculated;
        value           nonuniform List<scalar> 
20
(
-4.30439e-21
-4.84889e-20
-6.06043e-20
-4.43675e-20
-4.76846e-20
-5.31482e-20
-7.06395e-20
-8.95977e-20
-7.19326e-20
-6.40924e-20
-4.54447e-20
9.2904e-21
5.25926e-20
6.71603e-20
6.06907e-20
7.82518e-20
1.10154e-19
1.17221e-19
1.15411e-19
1.22614e-19
)
;
    }
    frontAndBack
    {
        type            empty;
        value           nonuniform List<scalar> 0();
    }
}


// ************************************************************************* //
