/*--------------------------------*- C++ -*----------------------------------*\
  =========                 |
  \\      /  F ield         | OpenFOAM: The Open Source CFD Toolbox
   \\    /   O peration     | Website:  https://openfoam.org
    \\  /    A nd           | Version:  8
     \\/     M anipulation  |
\*---------------------------------------------------------------------------*/
FoamFile
{
    version     2.0;
    format      ascii;
    class       surfaceScalarField;
    location    "0.425";
    object      phi;
}
// * * * * * * * * * * * * * * * * * * * * * * * * * * * * * * * * * * * * * //

dimensions      [0 3 -1 0 0 0 0];

internalField   nonuniform List<scalar> 
760
(
1.42321e-08
-1.42682e-08
-2.22114e-08
3.64435e-08
-1.14273e-07
9.20619e-08
-2.45501e-07
1.31228e-07
-3.9611e-07
1.50609e-07
-5.47383e-07
1.51272e-07
-6.83211e-07
1.35828e-07
-7.90686e-07
1.07475e-07
-8.60231e-07
6.95456e-08
-8.85665e-07
2.5434e-08
-8.64342e-07
-2.13226e-08
-7.97408e-07
-6.69336e-08
-6.90102e-07
-1.07307e-07
-5.51986e-07
-1.38116e-07
-3.96953e-07
-1.55033e-07
-2.42755e-07
-1.54198e-07
-1.09736e-07
-1.33019e-07
-1.84166e-08
-9.1319e-08
1.569e-08
-3.41065e-08
1.56899e-08
-3.42168e-08
1.99486e-08
-1.80382e-07
1.82608e-07
-4.34007e-07
3.45687e-07
-7.64466e-07
4.61687e-07
-1.13226e-06
5.18403e-07
-1.49731e-06
5.1632e-07
-1.82341e-06
4.61935e-07
-2.08062e-06
3.64683e-07
-2.24637e-06
2.3529e-07
-2.30613e-06
8.51998e-08
-2.25399e-06
-7.34656e-08
-2.09313e-06
-2.27793e-07
-1.83633e-06
-3.64107e-07
-1.5061e-06
-4.6835e-07
-1.13412e-06
-5.27009e-07
-7.59547e-07
-5.28773e-07
-4.25415e-07
-4.67152e-07
-1.72698e-07
-3.44036e-07
-3.08031e-08
-1.76001e-07
-1.51131e-08
-9.2232e-08
1.12181e-07
-3.57011e-07
4.47388e-07
-7.64589e-07
7.53265e-07
-1.26854e-06
9.65635e-07
-1.81477e-06
1.06464e-06
-2.34914e-06
1.05069e-06
-2.82254e-06
9.35341e-07
-3.19406e-06
7.36204e-07
-3.43274e-06
4.73965e-07
-3.51864e-06
1.71104e-07
-3.4437e-06
-1.4841e-07
-3.21237e-06
-4.5912e-07
-2.8422e-06
-7.34273e-07
-2.36388e-06
-9.46671e-07
-1.82037e-06
-1.07052e-06
-1.26453e-06
-1.08462e-06
-7.54546e-07
-9.77134e-07
-3.46981e-07
-7.516e-07
-8.73389e-08
-4.35643e-07
-1.02452e-07
-1.45216e-07
2.57397e-07
-5.2548e-07
8.27651e-07
-1.08167e-06
1.30945e-06
-1.74757e-06
1.63153e-06
-2.45441e-06
1.77148e-06
-3.13647e-06
1.73275e-06
-3.73541e-06
1.53427e-06
-4.20304e-06
1.20383e-06
-4.50306e-06
7.73984e-07
-4.61207e-06
2.80114e-07
-4.52039e-06
-2.40085e-07
-4.23286e-06
-7.46654e-07
-3.76948e-06
-1.19766e-06
-3.16573e-06
-1.55042e-06
-2.47194e-06
-1.7643e-06
-1.75112e-06
-1.80545e-06
-1.07454e-06
-1.65371e-06
-5.15152e-07
-1.31099e-06
-1.39319e-07
-8.11476e-07
-2.41771e-07
-1.93615e-07
4.51012e-07
-6.85019e-07
1.31906e-06
-1.38566e-06
2.01009e-06
-2.2073e-06
2.45317e-06
-3.06555e-06
2.62972e-06
-3.88388e-06
2.55108e-06
-4.59662e-06
2.24702e-06
-5.15071e-06
1.75793e-06
-5.50658e-06
1.12986e-06
-5.63866e-06
4.12191e-07
-5.53588e-06
-3.42859e-07
-5.20249e-06
-1.08005e-06
-4.65898e-06
-1.74116e-06
-3.94304e-06
-2.26636e-06
-3.10977e-06
-2.59757e-06
-2.23054e-06
-2.68467e-06
-1.38967e-06
-2.49459e-06
-6.78512e-07
-2.02214e-06
-1.87772e-07
-1.30222e-06
-4.29542e-07
-2.39946e-07
6.90958e-07
-8.40368e-07
1.91948e-06
-1.68332e-06
2.85305e-06
-2.65711e-06
3.42696e-06
-3.66091e-06
3.63352e-06
-4.60786e-06
3.49803e-06
-5.42646e-06
3.06562e-06
-6.06069e-06
2.39216e-06
-6.46948e-06
1.53865e-06
-6.62618e-06
5.68889e-07
-6.51845e-06
-4.50595e-07
-6.14892e-06
-1.44958e-06
-5.53664e-06
-2.35344e-06
-4.71901e-06
-3.084e-06
-3.75353e-06
-3.56305e-06
-2.71852e-06
-3.71967e-06
-1.71157e-06
-3.50155e-06
-8.44676e-07
-2.88903e-06
-2.36184e-07
-1.91071e-06
-6.65726e-07
-2.8675e-07
9.77709e-07
-9.97104e-07
2.62983e-06
-1.98212e-06
3.83806e-06
-3.105e-06
4.54984e-06
-4.24803e-06
4.77655e-06
-5.31491e-06
4.56491e-06
-6.23022e-06
3.98093e-06
-6.93729e-06
3.09922e-06
-7.39561e-06
1.99697e-06
-7.57875e-06
7.52026e-07
-7.47328e-06
-5.5606e-07
-7.07923e-06
-1.84363e-06
-6.41198e-06
-3.02068e-06
-5.50567e-06
-3.99031e-06
-4.41713e-06
-4.65159e-06
-3.22942e-06
-4.90738e-06
-2.05298e-06
-4.67798e-06
-1.02255e-06
-3.91946e-06
-2.88285e-07
-2.64498e-06
-9.54011e-07
-3.36336e-07
1.31404e-06
-1.16039e-06
3.45388e-06
-2.28805e-06
4.96572e-06
-3.55504e-06
5.81684e-06
-4.82668e-06
6.04819e-06
-5.99914e-06
5.73737e-06
-6.99612e-06
4.97791e-06
-7.76362e-06
3.86672e-06
-8.26459e-06
2.49794e-06
-8.47472e-06
9.62156e-07
-8.38006e-06
-6.50714e-07
-7.97699e-06
-2.2467e-06
-7.27466e-06
-3.72301e-06
-6.30003e-06
-4.96495e-06
-5.10473e-06
-5.84689e-06
-3.77257e-06
-6.23954e-06
-2.42491e-06
-6.02564e-06
-1.22076e-06
-5.12361e-06
-3.47711e-07
-3.51803e-06
-1.30172e-06
-3.90961e-07
1.705e-06
-1.3349e-06
4.39782e-06
-2.605e-06
6.23582e-06
-4.00598e-06
7.21782e-06
-5.38686e-06
7.42907e-06
-6.6398e-06
6.99032e-06
-7.69249e-06
6.0306e-06
-8.49853e-06
4.67276e-06
-9.02848e-06
3.02789e-06
-9.26299e-06
1.19666e-06
-9.18872e-06
-7.24987e-07
-8.79755e-06
-2.63787e-06
-8.08942e-06
-4.43113e-06
-7.07907e-06
-5.9753e-06
-5.80637e-06
-7.11959e-06
-4.34908e-06
-7.69683e-06
-2.83483e-06
-7.53989e-06
-1.4471e-06
-6.51134e-06
-4.18102e-07
-4.54703e-06
-1.71982e-06
-4.53454e-07
2.15846e-06
-1.52569e-06
5.47005e-06
-2.93489e-06
7.64502e-06
-4.45013e-06
8.73306e-06
-5.90635e-06
8.88529e-06
-7.19784e-06
8.28182e-06
-8.2637e-06
7.09645e-06
-9.07211e-06
5.48117e-06
-9.60692e-06
3.5627e-06
-9.85765e-06
1.44739e-06
-9.81347e-06
-7.69158e-07
-9.46143e-06
-2.98992e-06
-8.78915e-06
-5.1034e-06
-7.79304e-06
-6.97141e-06
-6.49224e-06
-8.42039e-06
-4.94799e-06
-9.24108e-06
-3.28513e-06
-9.20275e-06
-1.70869e-06
-8.08779e-06
-5.03589e-07
-5.75212e-06
-2.22341e-06
-5.28334e-07
2.68679e-06
-1.73965e-06
6.68137e-06
-3.27796e-06
9.18333e-06
-4.87161e-06
1.03267e-05
-6.347e-06
1.03607e-05
-7.61081e-06
9.54563e-06
-8.62434e-06
8.10999e-06
-9.37967e-06
6.2365e-06
-9.88097e-06
4.06401e-06
-1.01315e-05
1.69793e-06
-1.01258e-05
-7.74905e-07
-9.84632e-06
-3.26936e-06
-9.26598e-06
-5.68375e-06
-8.35633e-06
-7.88106e-06
-7.10469e-06
-9.67203e-06
-5.5407e-06
-1.08051e-05
-3.7707e-06
-1.09727e-05
-2.01217e-06
-9.84632e-06
-6.09688e-07
-7.1546e-06
-2.8331e-06
-6.23661e-07
3.31045e-06
-1.98737e-06
8.04508e-06
-3.63188e-06
1.08278e-05
-5.24189e-06
1.19367e-05
-6.64752e-06
1.17663e-05
-7.78442e-06
1.06825e-05
-8.65095e-06
8.97652e-06
-9.27424e-06
6.85979e-06
-9.68647e-06
4.47624e-06
-9.90976e-06
1.92122e-06
-9.94718e-06
-7.37484e-07
-9.77853e-06
-3.43801e-06
-9.36084e-06
-6.10144e-06
-8.63558e-06
-8.60633e-06
-7.54636e-06
-1.07613e-05
-6.07156e-06
-1.22799e-05
-4.27426e-06
-1.27701e-05
-2.36364e-06
-1.17569e-05
-7.44775e-07
-8.77347e-06
-3.57788e-06
-7.54069e-07
4.06452e-06
-2.28433e-06
9.57533e-06
-3.98697e-06
1.25305e-05
-5.50904e-06
1.34588e-05
-6.70954e-06
1.29668e-05
-7.57848e-06
1.15515e-05
-8.16997e-06
9.56801e-06
-8.55753e-06
7.24736e-06
-8.80763e-06
4.72634e-06
-8.96496e-06
2.07854e-06
-9.04428e-06
-6.58161e-07
-9.02567e-06
-3.45662e-06
-8.85253e-06
-6.27458e-06
-8.43477e-06
-9.02409e-06
-7.66287e-06
-1.15332e-05
-6.44197e-06
-1.35008e-05
-4.75624e-06
-1.44558e-05
-2.76674e-06
-1.37464e-05
-9.22432e-07
-1.06178e-05
-4.50031e-06
-9.45198e-07
5.00972e-06
-2.64846e-06
1.12786e-05
-4.31094e-06
1.4193e-05
-5.57322e-06
1.47211e-05
-6.37059e-06
1.37642e-05
-6.78316e-06
1.1964e-05
-6.94035e-06
9.7252e-06
-6.96957e-06
7.27658e-06
-6.9726e-06
4.72938e-06
-7.01632e-06
2.12226e-06
-7.12843e-06
-5.46054e-07
-7.2936e-06
-3.29145e-06
-7.4485e-06
-6.11968e-06
-7.47777e-06
-8.99482e-06
-7.21785e-06
-1.17931e-05
-6.48269e-06
-1.42359e-05
-5.1334e-06
-1.58051e-05
-3.21496e-06
-1.56649e-05
-1.16438e-06
-1.26684e-05
-5.66469e-06
-1.23731e-06
6.24703e-06
-3.08326e-06
1.31246e-05
-4.50765e-06
1.56174e-05
-5.23439e-06
1.54478e-05
-5.3551e-06
1.38849e-05
-5.08168e-06
1.16906e-05
-4.63072e-06
9.27424e-06
-4.17906e-06
6.82492e-06
-3.85415e-06
4.40446e-06
-3.7368e-06
2.00492e-06
-3.86492e-06
-4.17942e-07
-4.23244e-06
-2.92392e-06
-4.78191e-06
-5.57021e-06
-5.39092e-06
-8.3858e-06
-5.85838e-06
-1.13256e-05
-5.9065e-06
-1.41878e-05
-5.23277e-06
-1.64788e-05
-3.66625e-06
-1.72314e-05
-1.50007e-06
-1.48345e-05
-7.16476e-06
-1.6738e-06
7.92082e-06
-3.51334e-06
1.49641e-05
-4.31525e-06
1.64193e-05
-4.08879e-06
1.52213e-05
-3.19293e-06
1.2989e-05
-1.99859e-06
1.04963e-05
-7.94967e-07
8.07062e-06
2.19534e-07
5.81042e-06
9.18443e-07
3.70555e-06
1.22582e-06
1.69754e-06
1.10227e-06
-2.94395e-07
5.41257e-07
-2.3629e-06
-4.22755e-07
-4.6062e-06
-1.69242e-06
-7.11613e-06
-3.0723e-06
-9.94574e-06
-4.23074e-06
-1.30294e-05
-4.6956e-06
-1.60139e-05
-3.96716e-06
-1.79598e-05
-1.94492e-06
-1.68568e-05
-9.10968e-06
-2.23068e-06
1.01515e-05
-3.59027e-06
1.63237e-05
-3.07774e-06
1.59067e-05
-1.34381e-06
1.34874e-05
8.97134e-07
1.07481e-05
3.1551e-06
8.23832e-06
5.13827e-06
6.08744e-06
6.68887e-06
4.25982e-06
7.72602e-06
2.6684e-06
8.20674e-06
1.21682e-06
8.10408e-06
-1.91726e-07
7.39921e-06
-1.65804e-06
6.08701e-06
-3.29401e-06
4.19932e-06
-5.22843e-06
1.85425e-06
-7.60068e-06
-6.61642e-07
-1.05135e-05
-2.79213e-06
-1.38835e-05
-3.66207e-06
-1.70899e-05
-2.41153e-06
-1.81073e-05
-1.15212e-05
-2.57381e-06
1.27253e-05
-2.18345e-06
1.59333e-05
7.18097e-07
1.30052e-05
4.46961e-06
9.7359e-06
8.13336e-06
7.08433e-06
1.13017e-05
5.07001e-06
1.38292e-05
3.5599e-06
1.56882e-05
2.4008e-06
1.68918e-05
1.46481e-06
1.7455e-05
6.53606e-07
1.73765e-05
-1.13205e-07
1.66306e-05
-9.12163e-07
1.51673e-05
-1.83067e-06
1.29236e-05
-2.98475e-06
9.86183e-06
-4.5389e-06
6.06202e-06
-6.71365e-06
1.91237e-06
-9.73381e-06
-1.55961e-06
-1.36179e-05
-2.45833e-06
-1.72086e-05
-1.39795e-05
-7.85013e-07
1.35103e-05
4.0808e-06
1.10675e-05
1.02976e-05
6.78843e-06
1.57937e-05
4.2398e-06
2.01581e-05
2.71992e-06
2.34581e-05
1.76995e-06
2.58609e-05
1.15715e-06
2.75216e-05
7.40058e-07
2.85541e-05
4.32296e-07
2.90265e-05
1.81221e-07
2.89623e-05
-4.89834e-08
2.83388e-05
-2.88702e-07
2.70819e-05
-5.73745e-07
2.50551e-05
-9.57961e-07
2.20518e-05
-1.53553e-06
1.78155e-05
-2.47742e-06
1.21724e-05
-4.09069e-06
5.47773e-06
-6.92324e-06
-1.29168e-07
-1.16017e-05
-1.41087e-05
1.35103e-05
2.45778e-05
3.13663e-05
3.56061e-05
3.8326e-05
4.00959e-05
4.12531e-05
4.19931e-05
4.24254e-05
4.26067e-05
4.25577e-05
4.2269e-05
4.16952e-05
4.07373e-05
3.92017e-05
3.67243e-05
3.26336e-05
2.57104e-05
1.41087e-05
)
;

boundaryField
{
    movingWall
    {
        type            calculated;
        value           uniform 0;
    }
    fixedWalls
    {
        type            calculated;
        value           uniform 0;
    }
    frontAndBack
    {
        type            empty;
        value           nonuniform List<scalar> 0();
    }
}


// ************************************************************************* //
