/*--------------------------------*- C++ -*----------------------------------*\
  =========                 |
  \\      /  F ield         | OpenFOAM: The Open Source CFD Toolbox
   \\    /   O peration     | Website:  https://openfoam.org
    \\  /    A nd           | Version:  8
     \\/     M anipulation  |
\*---------------------------------------------------------------------------*/
FoamFile
{
    version     2.0;
    format      ascii;
    class       surfaceScalarField;
    location    "35.5";
    object      phi;
}
// * * * * * * * * * * * * * * * * * * * * * * * * * * * * * * * * * * * * * //

dimensions      [0 3 -1 0 0 0 0];

internalField   nonuniform List<scalar> 
880
(
-1.49648e-05
1.49648e-05
-3.07392e-05
1.57744e-05
-4.58616e-05
1.51224e-05
-5.99876e-05
1.4126e-05
-7.28167e-05
1.28291e-05
-8.40726e-05
1.12559e-05
-9.35515e-05
9.47884e-06
-0.000100994
7.44273e-06
-0.000106567
5.57327e-06
-0.000109488
2.92074e-06
-0.000111618
2.12956e-06
-3.08252e-07
-0.00011131
-1.64243e-05
3.13891e-05
-3.3699e-05
3.30491e-05
-5.02557e-05
3.16791e-05
-6.57177e-05
2.9588e-05
-7.97632e-05
2.68746e-05
-9.21066e-05
2.35993e-05
-0.000102548
1.992e-05
-0.000110857
1.57523e-05
-0.000117238
1.19539e-05
-0.000121071
6.75332e-06
-0.000124222
5.28124e-06
-1.74538e-06
-0.000122785
-1.71343e-05
4.85234e-05
-3.51524e-05
5.10672e-05
-5.24075e-05
4.89342e-05
-6.84914e-05
4.56719e-05
-8.30484e-05
4.14316e-05
-9.57458e-05
3.62968e-05
-0.000106273
3.0447e-05
-0.000114392
2.38718e-05
-0.000119715
1.72764e-05
-0.000122382
9.42094e-06
-0.00012122
4.11871e-06
-5.58758e-06
-0.000117378
-1.8193e-05
6.67164e-05
-3.73241e-05
7.01983e-05
-5.56439e-05
6.7254e-05
-7.2721e-05
6.2749e-05
-8.81972e-05
5.69078e-05
-0.000101753
4.98521e-05
-0.000113126
4.18203e-05
-0.000122071
3.28164e-05
-0.000128151
2.33569e-05
-0.000131406
1.26757e-05
-0.000130396
3.10898e-06
-9.39524e-06
-0.000126588
-1.96498e-05
8.63662e-05
-4.03077e-05
9.08562e-05
-6.00777e-05
8.7024e-05
-7.84746e-05
8.11459e-05
-9.51118e-05
7.3545e-05
-0.000109602
6.43425e-05
-0.000121592
5.38103e-05
-0.000130815
4.20395e-05
-0.000136951
2.94932e-05
-0.00014013
1.58547e-05
-0.00013962
2.59903e-06
-1.30339e-05
-0.000135982
-2.15622e-05
0.000107928
-4.42161e-05
0.00011351
-6.58896e-05
0.000108697
-8.60289e-05
0.000101285
-0.000104263
9.17786e-05
-0.000120205
8.0285e-05
-0.000133627
6.72324e-05
-0.000144286
5.26987e-05
-0.000151723
3.69297e-05
-0.000155713
1.98452e-05
-0.000155183
2.06873e-06
-1.67222e-05
-0.000151495
-2.39226e-05
0.000131851
-4.90607e-05
0.000138648
-7.31043e-05
0.000132741
-9.53988e-05
0.00012358
-0.000115539
0.000111919
-0.000133055
9.78003e-05
-0.00014761
8.17882e-05
-0.000158898
6.39861e-05
-0.000166834
4.48653e-05
-0.00017147
2.44818e-05
-0.000172777
3.37539e-06
-1.9518e-05
-0.000169981
-2.70085e-05
0.00015886
-5.52631e-05
0.000166903
-8.22522e-05
0.00015973
-0.000107077
0.000148405
-0.000129584
0.000134425
-0.000149224
0.000117441
-0.000166015
9.85788e-05
-0.000179621
7.75924e-05
-0.000189622
5.48665e-05
-0.000195599
3.04587e-05
-0.000196757
4.53332e-06
-2.23099e-05
-0.000193965
-3.0319e-05
0.000189179
-6.21681e-05
0.000198752
-9.2569e-05
0.000190131
-0.000120535
0.000176371
-0.000145811
0.000159702
-0.000167588
0.000139217
-0.00018559
0.000116581
-0.000199716
9.17179e-05
-0.000210175
6.53259e-05
-0.000217101
3.73853e-05
-0.000220838
8.26971e-06
-2.33413e-05
-0.000219806
-3.54848e-05
0.000224663
-7.20677e-05
0.000235335
-0.000107045
0.000225108
-0.000138252
0.000207578
-0.000166684
0.000188133
-0.000191119
0.000163652
-0.000212538
0.000138
-0.000230052
0.000109232
-0.000243606
7.88801e-05
-0.000252744
4.65232e-05
-0.000256781
1.23065e-05
-2.41261e-05
-0.000255996
-3.93889e-05
0.000264052
-8.11224e-05
0.000277068
-0.00012051
0.000264496
-0.000156188
0.000243256
-0.000188239
0.000220184
-0.000214953
0.000190367
-0.000237035
0.000160081
-0.000254486
0.000126683
-0.000267959
9.23534e-05
-0.000277705
5.6269e-05
-0.000284997
1.95982e-05
-2.22671e-05
-0.000286856
-4.92954e-05
0.000313348
-9.79638e-05
0.000325737
-0.000144453
0.000310985
-0.000183738
0.000282542
-0.000219928
0.000256374
-0.000249605
0.000220044
-0.000275909
0.000186386
-0.00029728
0.000148054
-0.000314937
0.00011001
-0.000328214
6.95453e-05
-0.000337479
2.88638e-05
-1.89685e-05
-0.000340778
-5.06928e-05
0.000364041
-0.000108903
0.000383947
-0.000159704
0.000361785
-0.000207597
0.000330435
-0.000246418
0.000295194
-0.000278829
0.000252455
-0.000304824
0.000212382
-0.000324877
0.000168107
-0.000340855
0.000125989
-0.000352819
8.15091e-05
-0.000364289
4.03332e-05
-1.23753e-05
-0.000370882
-7.88957e-05
0.000442936
-0.000140349
0.0004454
-0.000204828
0.000426265
-0.000250624
0.000376231
-0.000294461
0.000339031
-0.000327551
0.000285545
-0.000357126
0.000241956
-0.000380842
0.000191823
-0.000402206
0.000147353
-0.000419883
9.91859e-05
-0.000437232
5.76824e-05
-1.22392e-06
-0.000448383
-5.60499e-05
0.000498986
-0.000149821
0.000539171
-0.000218523
0.000494967
-0.000286197
0.000443905
-0.000332155
0.000384989
-0.000369443
0.000322833
-0.000394977
0.00026749
-0.000413677
0.000210522
-0.000428332
0.000162008
-0.000439605
0.000110459
-0.00045269
7.07677e-05
1.07058e-05
-0.00046462
-0.000161298
0.000660284
-0.000219574
0.000597447
-0.000302164
0.000577557
-0.000349849
0.00049159
-0.000394059
0.000429199
-0.000427698
0.000356472
-0.000454368
0.00029416
-0.000477066
0.000233221
-0.000498053
0.000182994
-0.000518445
0.000130852
-0.00054382
9.61424e-05
3.51224e-05
-0.000568236
-2.79816e-05
0.000688266
-0.000215257
0.000784722
-0.000327994
0.000690293
-0.000422345
0.000585942
-0.00047223
0.000479084
-0.000502377
0.000386619
-0.000516437
0.00030822
-0.000523525
0.000240308
-0.000527402
0.000186871
-0.000531411
0.000134861
-0.0005375
0.000102232
4.69766e-05
-0.000549355
-0.000245126
0.000933392
-0.000300821
0.000840418
-0.000396493
0.000785965
-0.000484139
0.000673588
-0.000513985
0.00050893
-0.000551518
0.000424152
-0.000563735
0.000320437
-0.000577976
0.000254549
-0.000588225
0.000197121
-0.000602807
0.000149442
-0.000626617
0.000126042
8.08986e-05
-0.000660539
-0.00107618
0.00200957
-0.00107824
0.000842485
-0.00112055
0.000828272
-0.000983648
0.000536684
-0.000885433
0.000410716
-0.000762596
0.000301315
-0.000668341
0.000226182
-0.000587581
0.000173789
-0.000522353
0.000131893
-0.000474997
0.000102087
-0.000427864
7.89094e-05
5.86749e-05
-0.000405641
0.00200957
0.00285205
0.00368033
0.00421701
0.00462773
0.00492904
0.00515522
0.00532901
0.0054609
0.00556299
0.0056419
0.00570057
-8.7906e-05
3.43219e-05
-5.77255e-05
-6.81733e-05
1.42492e-05
-3.39818e-05
-5.58492e-05
-3.2178e-06
-9.10625e-06
-4.41913e-05
-1.65026e-05
4.84469e-06
-3.32941e-05
-2.69442e-05
1.60469e-05
-2.20774e-05
-3.4572e-05
2.33553e-05
-1.07498e-05
-3.95359e-05
2.82083e-05
-3.91082e-05
2.83584e-05
-9.6872e-05
8.40874e-06
-7.60985e-05
-6.52427e-06
-6.26292e-05
-1.66871e-05
-4.97816e-05
-2.93502e-05
-3.77102e-05
-3.90156e-05
-2.51281e-05
-4.71541e-05
-1.22613e-05
-5.24027e-05
-5.13695e-05
-0.000104207
-4.76224e-06
-9.11497e-05
-1.95812e-05
-7.72615e-05
-3.05753e-05
-6.2894e-05
-4.37178e-05
-4.7755e-05
-5.41546e-05
-3.19264e-05
-6.29826e-05
-1.55715e-05
-6.87576e-05
-6.6941e-05
-0.000113992
-1.73584e-05
-0.000101119
-3.24548e-05
-8.66245e-05
-4.50694e-05
-7.12189e-05
-5.91234e-05
-5.45419e-05
-7.08317e-05
-3.66901e-05
-8.08344e-05
-1.79732e-05
-8.74745e-05
-8.49142e-05
-0.000127042
-2.62984e-05
-0.000115696
-4.38005e-05
-0.000101189
-5.95765e-05
-8.43074e-05
-7.60049e-05
-6.52111e-05
-8.99281e-05
-4.40562e-05
-0.000101989
-2.16784e-05
-0.000109852
-0.000106593
-0.000142639
-3.51539e-05
-0.00013097
-5.54696e-05
-0.000115693
-7.48537e-05
-9.721e-05
-9.4488e-05
-7.58995e-05
-0.000111239
-5.15706e-05
-0.000126318
-2.55419e-05
-0.000135881
-0.000132134
-0.000162604
-4.2531e-05
-0.000150857
-6.72161e-05
-0.000135082
-9.06293e-05
-0.000114331
-0.000115239
-9.03924e-05
-0.000135177
-6.15533e-05
-0.000155157
-3.08662e-05
-0.000166568
-0.000163001
-0.000186712
-4.97844e-05
-0.000174591
-7.93369e-05
-0.000158012
-0.000107209
-0.000135005
-0.000138246
-0.000108035
-0.000162146
-7.40575e-05
-0.000189135
-3.75813e-05
-0.000203044
-0.000200582
-0.000214269
-5.53214e-05
-0.000201836
-9.17706e-05
-0.000185703
-0.000123342
-0.000159646
-0.000164303
-0.000130497
-0.000191296
-8.95994e-05
-0.000230032
-4.67588e-05
-0.000245885
-0.000247341
-0.000251339
-5.99784e-05
-0.000239412
-0.000103698
-0.000223162
-0.000139591
-0.000194839
-0.000192626
-0.000161768
-0.000224367
-0.000112664
-0.000279136
-5.98643e-05
-0.000298685
-0.000307205
-0.000285969
-6.08655e-05
-0.000274419
-0.000115248
-0.000261709
-0.000152301
-0.000230741
-0.000223595
-0.000198696
-0.000256411
-0.000139507
-0.000338325
-7.88148e-05
-0.000359378
-0.00038602
-0.000342718
-5.89252e-05
-0.000334877
-0.000123088
-0.000324815
-0.000162363
-0.000294036
-0.000254375
-0.000258628
-0.000291819
-0.000187136
-0.000409817
-0.00010923
-0.000437283
-0.00049525
-0.000378897
-5.09099e-05
-0.000373152
-0.000128834
-0.00037341
-0.000162104
-0.000344579
-0.000283206
-0.000322227
-0.00031417
-0.000240421
-0.000491623
-0.000158998
-0.000518706
-0.000654249
-0.000464107
-3.51864e-05
-0.000470146
-0.000122794
-0.000481396
-0.000150854
-0.000462962
-0.00030164
-0.000445223
-0.000331909
-0.000352305
-0.000584541
-0.000246787
-0.000624223
-0.000901036
-0.000484735
-1.50718e-05
-0.000493575
-0.000113954
-0.00052406
-0.00012037
-0.000522229
-0.000303471
-0.000553211
-0.000300927
-0.00047721
-0.000660542
-0.000413508
-0.000687925
-0.00131454
-0.000606763
2.34547e-05
-0.000643605
-7.71111e-05
-0.00070503
-5.89445e-05
-0.000743446
-0.000265055
-0.000811664
-0.00023271
-0.000765207
-0.000706999
-0.00070832
-0.000744812
-0.00202286
-0.000571407
4.55069e-05
-0.000599499
-4.90187e-05
-0.00066842
9.97658e-06
-0.000739902
-0.000193573
-0.000919222
-5.33905e-05
-0.00100493
-0.000621287
-0.00106871
-0.000681039
-0.00309157
-0.000719569
0.000104537
-0.000800817
3.22298e-05
-0.000931435
0.000140594
-0.00109666
-2.83477e-05
-0.00127493
0.000124884
-0.00137702
-0.000519204
-0.00101678
-0.00104128
-0.00410835
-0.000352959
5.18556e-05
-0.000344902
2.41728e-05
-0.000239166
3.48575e-05
-0.00022082
-4.66939e-05
2.6889e-05
-0.000122824
7.17051e-05
-0.00056402
0.000404387
-0.00137396
-0.00370396
0.00575243
0.0057766
0.00581146
0.00576477
0.00564194
0.00507792
0.00370396
-1.46476e-06
1.46476e-06
-2.7506e-06
1.28584e-06
-3.5296e-06
7.78995e-07
-3.73882e-06
2.09221e-07
-3.36027e-06
-3.78544e-07
-2.49736e-06
-8.62914e-07
-1.28475e-06
-1.21261e-06
-1.28475e-06
-1.68608e-06
3.15083e-06
-3.14749e-06
2.74725e-06
-4.00843e-06
1.63994e-06
-4.18834e-06
3.89135e-07
-3.73644e-06
-8.30446e-07
-2.76825e-06
-1.8311e-06
-1.42218e-06
-2.55868e-06
-2.70693e-06
-2.55316e-06
5.704e-06
-4.66097e-06
4.85506e-06
-5.81975e-06
2.79872e-06
-6.0634e-06
6.32777e-07
-5.36171e-06
-1.53213e-06
-3.93574e-06
-3.25708e-06
-2.01257e-06
-4.48185e-06
-4.7195e-06
-3.0479e-06
8.7519e-06
-5.50569e-06
7.31285e-06
-6.76491e-06
4.05794e-06
-6.84736e-06
7.15225e-07
-5.96785e-06
-2.41164e-06
-4.35461e-06
-4.87032e-06
-2.21664e-06
-6.61982e-06
-6.93614e-06
-5.851e-06
1.46029e-05
-1.00051e-05
1.14669e-05
-1.17084e-05
5.76126e-06
-1.16552e-05
6.6203e-07
-9.92573e-06
-4.14112e-06
-7.10783e-06
-7.68822e-06
-3.5848e-06
-1.01428e-05
-1.05209e-05
-7.08438e-06
2.16873e-05
-1.19943e-05
1.63769e-05
-1.38157e-05
7.58259e-06
-1.33603e-05
2.06701e-07
-1.12615e-05
-6.23996e-06
-8.03742e-06
-1.09123e-05
-4.04018e-06
-1.41401e-05
-1.45611e-05
-1.61758e-05
3.78631e-05
-2.46368e-05
2.48379e-05
-2.554e-05
8.48575e-06
-2.34225e-05
-1.91074e-06
-1.88719e-05
-1.07906e-05
-1.30431e-05
-1.67411e-05
-6.4611e-06
-2.07221e-05
-2.10222e-05
-1.98623e-05
-2.90063e-05
-2.96268e-05
-2.66928e-05
-2.14365e-05
-1.48223e-05
-7.33617e-06
)
;

boundaryField
{
    movingWall
    {
        type            calculated;
        value           uniform 0;
    }
    fixedWalls
    {
        type            calculated;
        value           uniform 0;
    }
    frontAndBack
    {
        type            empty;
        value           nonuniform List<scalar> 0();
    }
}


// ************************************************************************* //
