/*--------------------------------*- C++ -*----------------------------------*\
  =========                 |
  \\      /  F ield         | OpenFOAM: The Open Source CFD Toolbox
   \\    /   O peration     | Website:  https://openfoam.org
    \\  /    A nd           | Version:  8
     \\/     M anipulation  |
\*---------------------------------------------------------------------------*/
FoamFile
{
    version     2.0;
    format      ascii;
    class       volScalarField;
    location    "1.22";
    object      p;
}
// * * * * * * * * * * * * * * * * * * * * * * * * * * * * * * * * * * * * * //

dimensions      [0 2 -2 0 0 0 0];

internalField   nonuniform List<scalar> 
400
(
3.11422e-15
4.63273e-11
1.42736e-10
2.2671e-10
2.75331e-10
2.98657e-10
3.05439e-10
3.0226e-10
2.93643e-10
2.81923e-10
2.68597e-10
2.54963e-10
2.4179e-10
2.29885e-10
2.1839e-10
2.05562e-10
1.86344e-10
1.52893e-10
9.14464e-11
2.08698e-11
6.10814e-11
1.03933e-10
1.75247e-10
2.39357e-10
2.83686e-10
3.09996e-10
3.22262e-10
3.25468e-10
3.22167e-10
3.14275e-10
3.02939e-10
2.89075e-10
2.74239e-10
2.58731e-10
2.43368e-10
2.26049e-10
2.04774e-10
1.73976e-10
1.29972e-10
8.07583e-11
1.54643e-10
1.83163e-10
2.27073e-10
2.72508e-10
3.10471e-10
3.36435e-10
3.51782e-10
3.57483e-10
3.55994e-10
3.4837e-10
3.35925e-10
3.2031e-10
3.0249e-10
2.84684e-10
2.66472e-10
2.48311e-10
2.2751e-10
2.03928e-10
1.77764e-10
1.57487e-10
2.35872e-10
2.55871e-10
2.8482e-10
3.18468e-10
3.49009e-10
3.73096e-10
3.87305e-10
3.92612e-10
3.89341e-10
3.79516e-10
3.64644e-10
3.46193e-10
3.26751e-10
3.07175e-10
2.89694e-10
2.72556e-10
2.56223e-10
2.39883e-10
2.27824e-10
2.25156e-10
2.98373e-10
3.17438e-10
3.41089e-10
3.66448e-10
3.91319e-10
4.10513e-10
4.22284e-10
4.242e-10
4.18029e-10
4.05049e-10
3.87476e-10
3.67656e-10
3.47115e-10
3.28838e-10
3.1271e-10
2.99825e-10
2.8799e-10
2.79599e-10
2.76852e-10
2.83326e-10
3.55542e-10
3.74718e-10
3.94244e-10
4.13904e-10
4.3099e-10
4.44748e-10
4.50801e-10
4.48635e-10
4.38123e-10
4.2206e-10
4.02729e-10
3.82331e-10
3.63634e-10
3.47603e-10
3.36294e-10
3.27819e-10
3.2277e-10
3.21069e-10
3.2632e-10
3.38473e-10
4.10396e-10
4.28294e-10
4.44558e-10
4.56983e-10
4.66747e-10
4.72256e-10
4.72308e-10
4.64196e-10
4.49707e-10
4.30773e-10
4.10488e-10
3.91464e-10
3.75376e-10
3.64485e-10
3.58255e-10
3.56866e-10
3.58056e-10
3.64002e-10
3.75389e-10
3.91901e-10
4.6092e-10
4.77021e-10
4.88329e-10
4.94338e-10
4.95489e-10
4.93622e-10
4.86247e-10
4.73133e-10
4.54671e-10
4.34131e-10
4.14172e-10
3.97281e-10
3.85562e-10
3.7957e-10
3.80112e-10
3.84973e-10
3.93788e-10
4.05967e-10
4.22941e-10
4.42149e-10
5.04507e-10
5.17437e-10
5.23911e-10
5.23187e-10
5.1782e-10
5.08551e-10
4.95563e-10
4.77713e-10
4.57159e-10
4.36139e-10
4.17815e-10
4.04263e-10
3.9674e-10
3.96216e-10
4.01907e-10
4.13223e-10
4.27847e-10
4.45972e-10
4.66184e-10
4.86741e-10
5.38529e-10
5.47864e-10
5.4948e-10
5.44193e-10
5.33707e-10
5.19881e-10
5.02328e-10
4.82176e-10
4.607e-10
4.41062e-10
4.25396e-10
4.15606e-10
4.12441e-10
4.15846e-10
4.25761e-10
4.40781e-10
4.60072e-10
4.81371e-10
5.03247e-10
5.22903e-10
5.61843e-10
5.6775e-10
5.66029e-10
5.58088e-10
5.45668e-10
5.29303e-10
5.10176e-10
4.89201e-10
4.69056e-10
4.51715e-10
4.39636e-10
4.33601e-10
4.33915e-10
4.4011e-10
4.51592e-10
4.68272e-10
4.888e-10
5.1125e-10
5.31933e-10
5.49384e-10
5.75354e-10
5.78512e-10
5.75361e-10
5.673e-10
5.55205e-10
5.39341e-10
5.20578e-10
5.01356e-10
4.83525e-10
4.69772e-10
4.6111e-10
4.58497e-10
4.61135e-10
4.68301e-10
4.79437e-10
4.94659e-10
5.13951e-10
5.34256e-10
5.52282e-10
5.65951e-10
5.81202e-10
5.83133e-10
5.80105e-10
5.738e-10
5.64011e-10
5.50402e-10
5.34445e-10
5.18126e-10
5.04182e-10
4.93831e-10
4.88689e-10
4.88251e-10
4.92126e-10
4.9871e-10
5.07631e-10
5.19571e-10
5.34815e-10
5.51319e-10
5.64884e-10
5.74942e-10
5.83576e-10
5.84777e-10
5.83361e-10
5.79397e-10
5.72646e-10
5.6248e-10
5.50138e-10
5.38133e-10
5.27905e-10
5.21384e-10
5.18495e-10
5.19695e-10
5.23338e-10
5.28546e-10
5.34384e-10
5.41913e-10
5.52247e-10
5.6349e-10
5.72984e-10
5.79262e-10
5.86084e-10
5.87687e-10
5.87534e-10
5.85969e-10
5.81674e-10
5.74679e-10
5.66289e-10
5.58037e-10
5.51782e-10
5.477e-10
5.46819e-10
5.48078e-10
5.51248e-10
5.54476e-10
5.57553e-10
5.61152e-10
5.66621e-10
5.73552e-10
5.79303e-10
5.83597e-10
5.92794e-10
5.94186e-10
5.95447e-10
5.94812e-10
5.91992e-10
5.87087e-10
5.81331e-10
5.76213e-10
5.72055e-10
5.69876e-10
5.69042e-10
5.70152e-10
5.71834e-10
5.73783e-10
5.74924e-10
5.76124e-10
5.78677e-10
5.82628e-10
5.87182e-10
5.90424e-10
6.04204e-10
6.063e-10
6.0755e-10
6.07232e-10
6.04326e-10
6.00021e-10
5.95391e-10
5.9102e-10
5.87651e-10
5.84835e-10
5.834e-10
5.82682e-10
5.83243e-10
5.83976e-10
5.84859e-10
5.85782e-10
5.8776e-10
5.91686e-10
5.9668e-10
6.01473e-10
6.1966e-10
6.22272e-10
6.23838e-10
6.22598e-10
6.1892e-10
6.13719e-10
6.0804e-10
6.0255e-10
5.97109e-10
5.92374e-10
5.88132e-10
5.85482e-10
5.842e-10
5.84818e-10
5.86572e-10
5.89414e-10
5.93504e-10
5.99465e-10
6.0747e-10
6.14724e-10
6.36064e-10
6.40754e-10
6.42471e-10
6.40816e-10
6.35615e-10
6.28297e-10
6.19777e-10
6.10558e-10
6.01276e-10
5.92137e-10
5.84336e-10
5.78436e-10
5.75746e-10
5.76328e-10
5.80193e-10
5.86381e-10
5.94408e-10
6.04599e-10
6.16601e-10
6.28213e-10
6.50722e-10
6.58251e-10
6.61423e-10
6.59669e-10
6.5327e-10
6.43225e-10
6.30696e-10
6.16694e-10
6.02016e-10
5.87864e-10
5.7536e-10
5.662e-10
5.61518e-10
5.62227e-10
5.67959e-10
5.77717e-10
5.90326e-10
6.05372e-10
6.22309e-10
6.38401e-10
)
;

boundaryField
{
    movingWall
    {
        type            zeroGradient;
    }
    fixedWalls
    {
        type            zeroGradient;
    }
    left
    {
        type            cyclic;
    }
    right
    {
        type            cyclic;
    }
    frontAndBack
    {
        type            empty;
    }
}


// ************************************************************************* //
