0 	-5.75677e-09
1.57135 	6.25608e-07
3.1427 	8.20786e-06
4.71405 	3.93505e-05
6.28539 	0.000119606
7.85674 	0.000282751
9.42809 	0.000566341
10.9994 	0.00102688
12.5708 	0.00184469
14.1421 	0.00524637
