0 	-2.90711e-08
1.57135 	-1.21856e-06
3.1427 	-1.09662e-05
4.71405 	-4.34396e-05
6.28539 	-0.000129999
7.85674 	-0.000365357
9.42809 	-0.0011432
10.9994 	-0.00424827
12.5708 	-0.00678052
14.1421 	0.250131
