/*--------------------------------*- C++ -*----------------------------------*\
  =========                 |
  \\      /  F ield         | OpenFOAM: The Open Source CFD Toolbox
   \\    /   O peration     | Website:  https://openfoam.org
    \\  /    A nd           | Version:  8
     \\/     M anipulation  |
\*---------------------------------------------------------------------------*/
FoamFile
{
    version     2.0;
    format      ascii;
    class       surfaceScalarField;
    location    "93";
    object      phi;
}
// * * * * * * * * * * * * * * * * * * * * * * * * * * * * * * * * * * * * * //

dimensions      [0 3 -1 0 0 0 0];

internalField   nonuniform List<scalar> 
34404
(
0.00534163
-8.29966e-06
4.0121e-09
0.00536643
-2.47858e-05
-9.46791e-09
0.0054069
-4.04597e-05
-1.29364e-08
0.00546154
-5.46327e-05
-7.29204e-09
0.00552828
-6.67336e-05
-3.92347e-09
0.00560456
-7.62804e-05
-3.08566e-09
0.00568747
-8.29059e-05
-1.755e-09
0.00577385
-8.63861e-05
1.90733e-10
0.00586051
-8.66592e-05
2.7404e-09
0.00594433
-8.38276e-05
4.85035e-09
0.00602247
-7.81386e-05
6.37238e-09
0.00609241
-6.99481e-05
7.18026e-09
0.00615207
-5.9666e-05
7.30894e-09
0.00619977
-4.77079e-05
6.87592e-09
0.00623421
-3.44469e-05
6.17991e-09
0.00625441
-2.021e-05
5.46028e-09
0.00625966
-5.25684e-06
4.79801e-09
0.00624958
1.00764e-05
4.84121e-09
0.006224
2.55788e-05
5.46852e-09
0.00618307
4.09218e-05
5.73426e-09
0.00612732
5.57401e-05
5.5848e-09
0.00605771
6.96141e-05
5.08356e-09
0.00597562
8.20845e-05
4.32042e-09
0.00588294
9.26715e-05
3.22874e-09
0.00578203
0.000100914
2.03818e-09
0.00567563
0.000106391
7.15682e-10
0.00556686
0.00010877
-1.12427e-10
0.00545906
0.000107802
-9.72288e-10
0.0053557
0.000103369
-1.31503e-09
0.00526026
9.5433e-05
-1.35532e-09
0.00517616
8.41072e-05
-1.16337e-09
0.00510661
6.95453e-05
-5.46156e-10
0.00505454
5.20766e-05
-3.74338e-10
0.00502251
3.20303e-05
6.30661e-10
0.00501255
9.95644e-06
-2.46592e-10
0.00502614
-1.35939e-05
1.06528e-09
0.00506399
-3.78407e-05
-2.69274e-09
0.00512597
-6.19857e-05
1.3275e-09
0.00521102
-8.50405e-05
-6.55791e-09
0.00531692
-0.000105903
3.15509e-09
0.0054407
-0.000123773
-1.15093e-08
0.00557778
-0.000137083
8.47049e-09
0.00572402
-0.000146231
-1.68621e-08
0.00587236
-0.000148351
1.7417e-08
0.0060197
-0.00014732
-2.15054e-08
0.00615582
-0.000136146
2.51903e-08
0.00628303
-0.000127191
-2.03406e-08
0.00638486
-0.000101842
1.88834e-08
0.00647665
-9.1794e-05
3.28498e-09
-5.02565e-05
-2.04879e-08
0.00534186
-1.68295e-05
3.86755e-09
0.0053673
-5.02187e-05
-9.80934e-09
0.00540885
-8.19885e-05
-1.3038e-08
0.00546495
-0.000110733
-7.42082e-09
0.00553349
-0.000135266
-4.15344e-09
0.00561182
-0.000154605
-3.25331e-09
0.00569692
-0.000168006
-1.67273e-09
0.00578554
-0.00017501
3.08868e-10
0.00587438
-0.000175495
3.06682e-09
0.00596022
-0.000169676
5.30376e-09
0.00604015
-0.000158073
6.89501e-09
0.00611162
-0.000141428
7.68618e-09
0.00617254
-0.000120594
7.70899e-09
0.00622124
-9.64207e-05
7.11856e-09
0.00625646
-6.96656e-05
6.26192e-09
0.00627722
-4.09756e-05
5.42554e-09
0.00628281
-1.08575e-05
4.69115e-09
0.00627286
2.00286e-05
4.7288e-09
0.00624716
5.12745e-05
5.46864e-09
0.00620584
8.22306e-05
5.89217e-09
0.00614941
0.000112166
5.90107e-09
0.00607879
0.000140231
5.50585e-09
0.00599538
0.00016549
4.77416e-09
0.00590108
0.000186963
3.66171e-09
0.00579829
0.000203704
2.42048e-09
0.00568983
0.000214854
1.03401e-09
0.00557887
0.000219731
1.09707e-10
0.00546884
0.00021783
-7.53438e-10
0.00536329
0.000208914
-1.11604e-09
0.00526582
0.000192911
-1.16982e-09
0.00517987
0.000170051
-1.01903e-09
0.00510878
0.000140643
-5.084e-10
0.0050555
0.000105354
-4.24108e-10
0.00502269
6.4837e-05
5.50044e-10
0.00501245
2.01964e-05
-2.22907e-10
0.00502632
-2.74629e-05
9.04571e-10
0.00506505
-7.65642e-05
-2.85879e-09
0.00512858
-0.000125519
1.28892e-09
0.00521581
-0.000172267
-6.57517e-09
0.00532453
-0.00021463
3.25979e-09
0.00545163
-0.000250856
-1.14902e-08
0.00559242
-0.000277881
8.72731e-09
0.0057425
-0.000296292
-1.67166e-08
0.00589464
-0.000300514
1.80881e-08
0.00604543
-0.000298086
-2.121e-08
0.0061845
-0.000275241
2.61371e-08
0.00631396
-0.000256634
-2.03891e-08
0.00641722
-0.000205124
1.95887e-08
0.0065099
-0.000184475
2.40775e-09
-0.000100508
-2.1185e-08
0.00534231
-2.58054e-05
3.99498e-09
0.00536911
-7.70096e-05
-1.04002e-08
0.00541288
-0.000125743
-1.36639e-08
0.005472
-0.000169847
-7.79597e-09
0.00554422
-0.00020748
-4.37273e-09
0.00562673
-0.000237117
-3.31402e-09
0.00571633
-0.000257597
-1.40592e-09
0.00580952
-0.000268209
8.5373e-10
0.00590279
-0.000268767
3.98841e-09
0.00599274
-0.000259627
6.46404e-09
0.00607629
-0.000241634
8.12025e-09
0.00615084
-0.000215986
8.74761e-09
0.00621428
-0.00018404
8.43121e-09
0.00626498
-0.000147132
7.45936e-09
0.00630172
-0.000106414
6.31668e-09
0.00632358
-6.28423e-05
5.36786e-09
0.00632986
-1.71403e-05
4.67616e-09
0.00632015
2.97375e-05
4.81857e-09
0.00629421
7.72122e-05
5.79157e-09
0.0062521
0.000124329
6.45582e-09
0.00619427
0.000169988
6.60577e-09
0.00612161
0.00021289
6.25936e-09
0.0060355
0.000251587
5.51218e-09
0.00593791
0.000284554
4.32248e-09
0.0058313
0.000310315
2.94395e-09
0.00571862
0.00032753
1.40843e-09
0.00560321
0.000335141
2.51329e-10
0.00548866
0.000332374
-7.33527e-10
0.00537871
0.00031887
-1.27863e-09
0.0052771
0.000294527
-1.46765e-09
0.00518744
0.000259703
-1.41222e-09
0.00511322
0.000214873
-8.75031e-10
0.00505753
0.000161043
-7.20508e-10
0.00502317
9.9191e-05
3.96435e-10
0.00501239
3.09768e-05
-2.48155e-10
0.00502687
-4.19359e-05
8.84885e-10
0.00506746
-0.00011716
-3.05122e-09
0.00513422
-0.000192274
1.47775e-09
0.00522603
-0.000264076
-6.71683e-09
0.0053406
-0.000329201
3.97949e-09
0.00547462
-0.000384859
-1.14423e-08
0.00562303
-0.00042631
1.04634e-08
0.0057811
-0.00045434
-1.65928e-08
0.00594097
-0.000460403
2.08731e-08
0.00609891
-0.000456004
-2.16163e-08
0.00624379
-0.000420158
2.98557e-08
0.00637785
-0.000390671
-2.12335e-08
0.00648374
-0.00031104
2.30051e-08
0.006578
-0.000278735
8.98582e-10
-0.000150581
-2.29998e-08
0.005343
-3.54772e-05
4.3042e-09
0.0053719
-0.000105895
-1.12847e-08
0.00541911
-0.00017294
-1.48011e-08
0.0054829
-0.000233631
-8.48149e-09
0.00556083
-0.000285406
-4.72736e-09
0.00564985
-0.000326131
-3.44297e-09
0.00574643
-0.00035417
-1.16585e-09
0.00584673
-0.000368514
1.75339e-09
0.00594687
-0.000368915
5.45807e-09
0.00604315
-0.000355913
8.39272e-09
0.00613227
-0.000330763
1.01907e-08
0.00621151
-0.000295233
1.05601e-08
0.00627876
-0.000251301
9.68621e-09
0.00633247
-0.000200854
8.08287e-09
0.00637151
-0.000145464
6.45365e-09
0.00639504
-8.63697e-05
5.29818e-09
0.00640236
-2.4466e-05
4.63376e-09
0.00639303
3.90637e-05
4.93398e-09
0.00636673
0.0001035
6.24438e-09
0.00632344
0.000167616
7.25621e-09
0.00626348
0.000229938
7.64625e-09
0.00618768
0.000288683
7.41856e-09
0.00609743
0.000341832
6.67719e-09
0.00599473
0.000387241
5.36668e-09
0.00588221
0.000422831
3.76162e-09
0.00576303
0.000446716
1.93607e-09
0.00564075
0.00045742
4.40729e-10
0.00551925
0.000453874
-8.21322e-10
0.00540252
0.000435599
-1.61315e-09
0.00529457
0.000402479
-1.92129e-09
0.00519926
0.000355016
-1.90503e-09
0.00512027
0.000293861
-1.28438e-09
0.00506094
0.000220373
-1.15734e-09
0.0050243
0.000135835
1.53168e-10
0.00501277
4.25025e-05
-1.1152e-09
0.00502831
-5.74697e-05
6.79599e-10
0.00507196
-0.000160805
-3.37379e-09
0.00514388
-0.000264203
1.85741e-09
0.00524302
-0.000363205
-6.85483e-09
0.00536689
-0.000453072
5.38914e-09
0.00551186
-0.000529818
-1.13858e-08
0.0056723
-0.000586769
1.3301e-08
0.00584287
-0.000624896
-1.67823e-08
0.00601478
-0.000632336
2.5421e-08
0.00618375
-0.000624945
-2.25373e-08
0.00633751
-0.000573961
3.62903e-08
0.00647834
-0.000531476
-2.28717e-08
0.0065879
-0.000420629
2.89023e-08
0.00668397
-0.000374805
-2.12247e-09
-0.000199791
-2.57657e-08
0.00534397
-4.61174e-05
4.68966e-09
0.00537578
-0.000137689
-1.25546e-08
0.00542778
-0.000224924
-1.65164e-08
0.00549808
-0.000303926
-9.60289e-09
0.005584
-0.000371314
-5.38774e-09
0.00568212
-0.000424252
-3.75357e-09
0.00578848
-0.000460529
-9.35019e-10
0.00589874
-0.000478777
3.07696e-09
0.00600849
-0.000478673
7.77405e-09
0.00611357
-0.000461001
1.14903e-08
0.00621035
-0.000427561
1.35171e-08
0.00629598
-0.000380876
1.34383e-08
0.00636838
-0.000323709
1.16298e-08
0.00642613
-0.000258613
9.01328e-09
0.00646825
-0.000187597
6.63374e-09
0.00649402
-0.000112137
5.20186e-09
0.00650276
-3.32119e-05
4.59956e-09
0.00649398
4.78394e-05
5.07065e-09
0.00646724
0.000130228
6.92594e-09
0.00642235
0.000212497
8.52077e-09
0.00635949
0.000292794
9.32753e-09
0.00627936
0.000368797
9.31602e-09
0.00618336
0.000437829
8.59201e-09
0.00607357
0.000497019
7.08775e-09
0.00595283
0.000543571
5.11461e-09
0.00582458
0.000574963
2.83769e-09
0.00569276
0.000589236
8.03728e-10
0.00556163
0.000585005
-7.79679e-10
0.00543556
0.000561673
-1.84073e-09
0.00531891
0.000519135
-2.26865e-09
0.00521586
0.000458065
-2.28402e-09
0.00513041
0.000379317
-1.66477e-09
0.00506617
0.000284607
-1.68896e-09
0.00502651
0.000175497
-1.75454e-10
0.00501414
5.48723e-05
-2.0163e-09
0.00503137
-7.46988e-05
4.56299e-10
0.00507953
-0.000208963
-3.79802e-09
0.005159
-0.000343674
2.42191e-09
0.0052687
-0.000472901
-7.11831e-09
0.0054059
-0.000590279
7.17116e-09
0.00556644
-0.000690338
-1.16462e-08
0.00574385
-0.000764201
1.67744e-08
0.0059319
-0.000812928
-1.75366e-08
0.00612056
-0.00082103
3.13248e-08
0.00630471
-0.00080907
-2.42038e-08
0.00647062
-0.000739913
4.47751e-08
0.00662039
-0.00068122
-2.57838e-08
0.00673442
-0.0005347
3.69757e-08
0.00683203
-0.000472403
-6.49783e-09
-0.000246807
-2.89927e-08
0.00534525
-5.80343e-05
5.17331e-09
0.00538088
-0.000173308
-1.41356e-08
0.0054392
-0.000283223
-1.88077e-08
0.00551812
-0.000382834
-1.11672e-08
0.00561462
-0.000467814
-6.3999e-09
0.00572488
-0.0005345
-4.28415e-09
0.00584429
-0.000579945
-7.43382e-10
0.00596784
-0.000602324
5.03965e-09
0.00609036
-0.00060121
1.13492e-08
0.00620705
-0.000577707
1.63724e-08
0.00631384
-0.000534367
1.87418e-08
0.00640769
-0.000474744
1.78211e-08
0.00648662
-0.000402653
1.4388e-08
0.00654945
-0.000321451
1.01263e-08
0.00659545
-0.000233608
6.64854e-09
0.00662406
-0.000140747
4.89037e-09
0.00663464
-4.37969e-05
4.48977e-09
0.00662661
5.58571e-05
5.24875e-09
0.00659937
0.00015746
7.91388e-09
0.00655247
0.000259391
1.04019e-08
0.00648585
0.000359404
1.1844e-08
0.00640007
0.000454565
1.21737e-08
0.00629648
0.00054141
1.14873e-08
0.0061773
0.000616181
9.68508e-09
0.00604566
0.000675208
7.12334e-09
0.00590542
0.000715199
4.13763e-09
0.00576102
0.000733634
1.34892e-09
0.00561724
0.000728786
-6.49815e-10
0.00547895
0.00069996
-2.06332e-09
0.00535099
0.000647104
-2.62434e-09
0.00523794
0.000571114
-2.71597e-09
0.0051442
0.000473062
-2.06094e-09
0.00507376
0.000355045
-1.97495e-09
0.00503035
0.000218913
-6.71678e-10
0.00501716
6.80651e-05
-2.57205e-09
0.00503693
-9.44734e-05
5.23697e-10
0.00509143
-0.000263451
-4.16531e-09
0.00518128
-0.000433534
3.24511e-09
0.00530533
-0.000596941
-7.64849e-09
0.00546038
-0.000745342
9.05721e-09
0.00564139
-0.000871328
-1.26974e-08
0.00584085
-0.000963688
2.01669e-08
0.00605132
-0.00102337
-1.98716e-08
0.0062615
-0.00103125
3.72191e-08
0.00646512
-0.00101267
-2.80431e-08
0.00664678
-0.000921626
5.42487e-08
0.00680799
-0.000842398
-3.10354e-08
0.00692749
-0.000654244
4.65576e-08
0.0070262
-0.000571098
-1.32574e-08
-0.000289773
-3.25579e-08
0.00534688
-7.15839e-05
5.77417e-09
0.00538738
-0.000213796
-1.59264e-08
0.00545379
-0.000349604
-2.1783e-08
0.00554377
-0.000472803
-1.32392e-08
0.00565395
-0.000577988
-7.91861e-09
0.00577994
-0.000660482
-5.16874e-09
0.00591634
-0.00071635
-2.80248e-10
0.00605717
-0.000743163
7.85859e-09
0.00619627
-0.000740322
1.6723e-08
0.00632788
-0.000709342
2.39145e-08
0.00644733
-0.000653845
2.68429e-08
0.0065514
-0.00057884
2.44579e-08
0.00663831
-0.000489581
1.82193e-08
0.00670728
-0.000390428
1.11965e-08
0.00675797
-0.000284311
5.62524e-09
0.00679006
-0.000172835
4.03899e-09
0.00680296
-5.6701e-05
4.06537e-09
0.00679596
6.28511e-05
5.33773e-09
0.00676819
0.000185217
9.26581e-09
0.00671884
0.000308732
1.31391e-08
0.0066475
0.000430728
1.55688e-08
0.0065545
0.000547545
1.64144e-08
0.00644115
0.000654747
1.57731e-08
0.00630985
0.000747465
1.35063e-08
0.00616412
0.000820929
1.00611e-08
0.00600841
0.000870901
6.01329e-09
0.00584785
0.000894196
2.15686e-09
0.00568791
0.000888726
-4.75318e-10
0.00553412
0.000853746
-2.42883e-09
0.0053919
0.000789328
-3.15189e-09
0.00526635
0.000696669
-3.26804e-09
0.00516232
0.000577097
-2.43004e-09
0.00508426
0.000433107
-2.21277e-09
0.00503639
0.000266778
-4.44955e-10
0.00502246
8.1997e-05
-2.42115e-09
0.00504584
-0.000117855
1.12727e-09
0.00510879
-0.000326396
-4.48102e-09
0.00521221
-0.000536957
4.25972e-09
0.00535449
-0.000739209
-8.75984e-09
0.00553159
-0.000922452
1.03192e-08
0.005737
-0.00107673
-1.58587e-08
0.00596221
-0.00118891
2.1364e-08
0.0061984
-0.00125954
-2.62699e-08
0.00643366
-0.00126655
3.97109e-08
0.00666051
-0.00123947
-3.73482e-08
0.00686205
-0.00112323
6.12707e-08
0.00703847
-0.00101878
-4.09781e-08
0.00716591
-0.000781735
5.64325e-08
0.00726666
-0.000671822
-2.39944e-08
-0.000327236
-3.67758e-08
0.00534893
-8.71843e-05
6.52171e-09
0.0053955
-0.000260351
-1.77194e-08
0.00547206
-0.000426139
-2.56717e-08
0.005576
-0.000576723
-1.58875e-08
0.00570356
-0.000705541
-1.02601e-08
0.00584969
-0.000806601
-6.5203e-09
0.00600794
-0.000874597
4.72997e-10
0.00617104
-0.000906279
1.21261e-08
0.00633139
-0.000900696
2.491e-08
0.00648192
-0.000859907
3.53444e-08
0.00661713
-0.000789093
3.89223e-08
0.00673362
-0.000695368
3.411e-08
0.00683003
-0.000586009
2.3294e-08
0.0069062
-0.000466616
1.07556e-08
0.00696243
-0.000340538
4.00359e-09
0.00699868
-0.000209096
1.93515e-09
0.00701445
-7.24665e-05
3.10854e-09
0.00700882
6.84688e-05
5.05779e-09
0.00698055
0.000213476
1.08892e-08
0.00692828
0.000360993
1.68999e-08
0.00685109
0.000507894
2.08984e-08
0.00674899
0.000649625
2.25816e-08
0.0066232
0.000780512
2.20107e-08
0.00647639
0.000894254
1.9025e-08
0.00631264
0.000984664
1.42823e-08
0.00613721
0.00104632
8.69887e-09
0.00595616
0.00107525
3.34233e-09
0.00577588
0.00106901
-1.62437e-10
0.00560274
0.00102688
-2.86733e-09
0.00544287
0.000949204
-3.76976e-09
0.00530197
0.000837578
-3.83052e-09
0.0051854
0.000693664
-2.41713e-09
0.00509815
0.000520358
-2.06432e-09
0.00504503
0.000319899
3.19566e-10
0.00503042
9.66107e-05
-1.72506e-09
0.00505851
-0.000145948
2.33115e-09
0.00513204
-0.000399921
-4.62189e-09
0.00525179
-0.000656715
5.25411e-09
0.00541483
-0.000902234
-1.12429e-08
0.00561547
-0.0011231
9.32953e-09
0.00584513
-0.00130636
-2.35608e-08
0.00609483
-0.00143864
1.66082e-08
0.00635505
-0.00151972
-4.07307e-08
0.00661517
-0.0015267
3.31724e-08
0.00686698
-0.00149123
-5.69043e-08
0.00709305
-0.00134937
5.96434e-08
0.00729143
-0.0012171
-6.04288e-08
0.00743333
-0.000923697
6.39374e-08
0.007542
-0.000780457
-3.90673e-08
-0.000360608
-4.12731e-08
0.00535147
-0.000105329
7.47295e-09
0.00540548
-0.000314336
-1.90954e-08
0.00549466
-0.000515289
-3.08659e-08
0.00561598
-0.000698025
-1.9091e-08
0.00576546
-0.000855004
-1.41572e-08
0.00593721
-0.000978343
-8.61431e-09
0.00612344
-0.00106083
1.62419e-09
0.0063152
-0.00109806
1.89828e-08
0.00650277
-0.0010883
3.84234e-08
0.00667717
-0.00103436
5.33345e-08
0.00683179
-0.000943765
5.6414e-08
0.00696313
-0.000826759
4.65755e-08
0.00707058
-0.000693484
2.79924e-08
0.00715502
-0.000551068
9.65236e-09
0.00721761
-0.000403127
1.73792e-09
0.00725876
-0.000250245
-5.9727e-10
0.00727801
-9.17212e-05
7.02036e-10
0.00727421
7.22682e-05
3.75e-09
0.00724552
0.000242152
1.22271e-08
0.00718978
0.000416708
2.11633e-08
0.00710538
0.000592273
2.75817e-08
0.00699181
0.00076316
3.0899e-08
0.00685021
0.000922083
3.07495e-08
0.0066836
0.00106084
2.68031e-08
0.00649686
0.00117138
2.01489e-08
0.00629638
0.00124678
1.23714e-08
0.00608948
0.00128215
4.93854e-09
0.00588377
0.00127471
2.81942e-10
0.00568669
0.00122397
-3.1903e-09
0.00550518
0.00113072
-4.11994e-09
0.00534561
0.000997153
-3.95507e-09
0.00521393
0.000825345
-1.76842e-09
0.00511564
0.000618644
-9.61615e-10
0.00505619
0.000379352
2.59662e-09
0.00504069
0.000112109
-7.77831e-11
0.00507423
-0.000179491
4.97772e-09
0.00515954
-0.000485222
-4.0061e-09
0.00529602
-0.000793209
6.53513e-09
0.00547758
-0.00108377
-1.50068e-08
0.00569575
-0.00134129
5.93119e-09
0.00593981
-0.00155038
-3.54904e-08
0.00620242
-0.00170125
5.71894e-09
0.00647536
-0.0017926
-6.24018e-08
0.00675293
-0.00180429
1.63795e-08
0.00702751
-0.00176572
-8.66844e-08
0.0072829
-0.0016048
4.62703e-08
0.00751455
-0.00144865
-9.1526e-08
0.00768471
-0.00109393
6.45769e-08
0.00781747
-0.000913153
-5.93673e-08
-0.000398574
-4.57648e-08
0.0053546
-0.000126599
8.72351e-09
0.00541756
-0.00037728
-1.9302e-08
0.0055223
-0.000619988
-3.78998e-08
0.00566507
-0.000840776
-2.2471e-08
0.0058421
-0.00103201
-2.10713e-08
0.0060464
-0.00118264
-1.28344e-08
0.00626854
-0.00128297
2.31254e-09
0.00649735
-0.00132689
2.87977e-08
0.00671994
-0.00131095
6.13538e-08
0.00692448
-0.00123899
8.39347e-08
0.00710283
-0.0011222
8.34592e-08
0.00725161
-0.000975593
6.09494e-08
0.00737154
-0.00081344
2.46958e-08
0.00746514
-0.000644673
5.17217e-09
0.00753479
-0.000472773
-7.19182e-09
0.00758147
-0.000296924
-7.45448e-09
0.00760484
-0.000115082
-3.09538e-09
0.00760338
7.37221e-05
-2.84323e-12
0.00757441
0.000271114
1.25942e-08
0.0075146
0.000476498
2.51029e-08
0.00742129
0.000685544
3.44063e-08
0.0072933
0.000891109
4.02611e-08
0.00713158
0.00108376
4.14347e-08
0.00693967
0.00125272
3.6793e-08
0.00672358
0.00138745
2.77465e-08
0.00649129
0.00147906
1.70001e-08
0.00625183
0.0015216
6.79239e-09
0.00601444
0.0015121
8.33244e-10
0.00578785
0.00145057
-3.26472e-09
0.00557996
0.00133861
-3.75489e-09
0.00539783
0.00117928
-2.79598e-09
0.00524796
0.000975217
-3.24081e-11
0.00513633
0.00073027
1.207e-09
0.00506886
0.000446818
5.82706e-09
0.00505155
0.000129414
2.92271e-09
0.00509
-0.000217951
1.03075e-08
0.00518527
-0.000580494
-3.83859e-10
0.00533244
-0.000940385
1.15441e-08
0.00551947
-0.00127079
-1.41718e-08
0.00573481
-0.00155663
8.61667e-09
0.00596775
-0.00178328
-3.8595e-08
0.00621703
-0.00195054
4.92563e-09
0.00647964
-0.00205513
-7.07145e-08
0.00675913
-0.00208378
8.2681e-09
0.00704992
-0.00205641
-1.04516e-07
0.00733871
-0.00189363
3.53115e-08
0.00761938
-0.00172921
-1.18375e-07
0.00783909
-0.0013137
6.29282e-08
0.00802584
-0.00109982
-8.16655e-08
-0.000461438
-4.78333e-08
0.00535838
-0.000151651
1.04891e-08
0.00543197
-0.000450852
-1.71834e-08
0.00555576
-0.000743735
-4.72948e-08
0.00572474
-0.00100973
-2.48168e-08
0.00593643
-0.00124367
-3.30856e-08
0.00618217
-0.00142836
-1.98171e-08
0.0064507
-0.0015515
4.9806e-10
0.00672774
-0.00160398
3.91197e-08
0.00699562
-0.00157893
9.51111e-08
0.00723836
-0.00148186
1.33227e-07
0.00744551
-0.00132948
1.2786e-07
0.00761416
-0.00114432
7.82291e-08
0.0077474
-0.0009467
1.98192e-08
0.00785034
-0.000747602
-1.57612e-08
0.00792708
-0.000549476
-3.10022e-08
0.00797933
-0.000349155
-2.39166e-08
0.00800709
-0.000142824
-1.52687e-08
0.00800845
7.23721e-05
-7.22354e-09
0.00797939
0.000300164
7.09799e-09
0.00791493
0.000540931
2.64774e-08
0.00781088
0.000789551
3.98097e-08
0.00766498
0.00103696
4.84817e-08
0.00747789
0.0012708
5.1193e-08
0.0072538
0.00147676
4.64418e-08
0.00700035
0.00164086
3.54899e-08
0.00672773
0.00175166
2.16719e-08
0.00644736
0.00180196
8.24938e-09
0.00617058
0.00178888
1.16797e-09
0.00590775
0.0017134
-3.04757e-09
0.00566782
0.00157854
-2.125e-09
0.00545851
0.00138859
-5.0123e-11
0.00528675
0.00114698
5.38263e-09
0.00515862
0.000858383
7.07662e-09
0.00508052
0.000524913
1.2743e-08
0.00505902
0.000150905
9.33796e-09
0.00509879
-0.000257747
2.10093e-08
0.00519511
-0.000676823
1.08881e-08
0.00533382
-0.00107912
2.83838e-08
0.00549545
-0.00143243
3.3019e-09
0.00566863
-0.00172985
3.59157e-08
0.00584948
-0.00196411
-1.08701e-08
0.00604932
-0.00215043
4.03818e-08
0.00627429
-0.00228006
-3.71854e-08
0.0065389
-0.00234844
4.03037e-08
0.00683932
-0.00235675
-7.4877e-08
0.00716445
-0.00221881
5.6325e-08
0.00750957
-0.00207422
-1.05663e-07
0.00780079
-0.001605
8.00858e-08
0.00807845
-0.00137739
-8.36034e-08
-0.000579277
-4.01001e-08
0.00536283
-0.000181163
1.33611e-08
0.00544884
-0.000536848
-1.11507e-08
0.00559577
-0.000890604
-5.92306e-08
0.00579633
-0.00121026
-2.41822e-08
0.00605181
-0.0014991
-5.27868e-08
0.00635041
-0.00172693
-2.50248e-08
0.00667957
-0.00188066
-3.87203e-09
0.00702001
-0.00194446
5.16208e-08
0.00734664
-0.0019057
1.37278e-07
0.00763756
-0.00177297
1.9337e-07
0.00787879
-0.0015709
1.84561e-07
0.00806842
-0.00133404
9.30716e-08
0.00821363
-0.00109192
9.6521e-09
0.00832371
-0.000857614
-6.23152e-08
0.00840516
-0.000630858
-7.68539e-08
0.00846104
-0.000404966
-6.12667e-08
0.00849216
-0.000173901
-4.8403e-08
0.00849633
6.82391e-05
-3.33448e-08
0.00846749
0.000329021
-1.34251e-08
0.00839846
0.000609949
5.94e-09
0.00828264
0.000905342
3.20608e-08
0.00811586
0.00120369
4.96857e-08
0.00789802
0.00148859
5.52749e-08
0.00763407
0.00174066
5.01636e-08
0.00733385
0.00194104
3.80073e-08
0.00701069
0.00207479
2.26436e-08
0.00667932
0.00213333
7.97744e-09
0.00635393
0.00211427
1.29972e-09
0.00604688
0.00202045
-1.61837e-09
0.00576825
0.00185717
1.64324e-09
0.00552633
0.0016305
6.03018e-09
0.00532806
0.00134523
1.43354e-08
0.00517922
0.00100721
1.72233e-08
0.00508634
0.000617779
2.34612e-08
0.00505575
0.000181479
1.63374e-08
0.00508677
-0.000288812
3.60245e-08
0.00516159
-0.000751671
3.07214e-08
0.00525299
-0.00117058
5.75304e-08
0.00533921
-0.00151869
3.75228e-08
0.00542023
-0.00181096
7.98219e-08
0.00551005
-0.00205396
3.12588e-08
0.00563683
-0.0022773
8.91446e-08
0.00581413
-0.00245737
1.11358e-08
0.00606141
-0.00259581
8.58617e-08
0.00637247
-0.00266779
-1.41411e-08
0.00673469
-0.00258112
9.52535e-08
0.00714945
-0.00248893
-4.56344e-08
0.00751998
-0.00197565
1.19167e-07
0.00791094
-0.00176832
-4.34432e-08
-0.000778812
-1.04529e-08
0.00536781
-0.000215658
1.88072e-08
0.00546825
-0.000637285
-1.56509e-09
0.00564266
-0.00106494
-7.23388e-08
0.00588073
-0.00144832
-2.06744e-08
0.00619186
-0.00181015
-8.5561e-08
0.00655768
-0.00209272
-2.28795e-08
0.0069672
-0.00229017
-8.95994e-09
0.00739242
-0.00236978
8.70839e-08
0.00779571
-0.00230919
2.02228e-07
0.00814578
-0.00212329
2.42504e-07
0.00842306
-0.00184837
1.99834e-07
0.00862865
-0.00153969
6.44327e-08
0.00877745
-0.00124067
-4.4217e-08
0.00888528
-0.000965311
-1.37861e-07
0.0089624
-0.000707831
-1.42358e-07
0.00901462
-0.000457071
-1.16662e-07
0.0090452
-0.000204382
-1.00732e-07
0.00905122
6.23089e-05
-8.45039e-08
0.00902366
0.000356661
-8.31272e-08
0.00895261
0.000681057
-6.33339e-08
0.00882769
0.00103029
-2.28308e-08
0.00864119
0.00139018
9.14609e-09
0.00839071
0.00173903
3.50746e-08
0.00808128
0.00205005
3.71227e-08
0.0077255
0.00229679
2.37794e-08
0.00734118
0.00245911
8.65357e-09
0.00694781
0.0025267
5.34612e-10
0.00656357
0.00249851
-3.11242e-09
0.0062034
0.00238063
-3.56944e-10
0.00587862
0.00218195
8.72675e-09
0.00559791
0.0019112
1.68841e-08
0.00536753
0.00157558
2.75794e-08
0.00519225
0.00118245
2.97693e-08
0.00507872
0.000731282
3.12177e-08
0.00502933
0.000230854
1.24481e-08
0.00502925
-0.000288777
4.15604e-08
0.00504016
-0.000762622
4.36682e-08
0.00502786
-0.00115835
7.22951e-08
0.00498719
-0.00147806
4.44203e-08
0.00494772
-0.00177156
7.8725e-08
0.00494786
-0.00205412
1.3481e-08
0.00502377
-0.00235328
7.07203e-08
0.00518218
-0.00261577
-7.67828e-09
0.00543261
-0.00284631
6.86314e-08
0.00576176
-0.00299694
9.34932e-10
0.00615328
-0.00297272
8.38807e-08
0.00662024
-0.00295591
1.26157e-08
0.00705044
-0.00240598
1.36416e-07
0.00753869
-0.0022566
2.73115e-08
-0.00106388
3.99297e-08
0.00537291
-0.000255266
2.98794e-08
0.00549027
-0.000754646
8.05598e-09
0.00569563
-0.00127022
-8.00694e-08
0.00597829
-0.00173096
-2.27372e-08
0.00635961
-0.00219131
-1.43836e-07
0.00680942
-0.0025425
-3.05008e-08
0.00732573
-0.00280646
-2.76598e-08
0.00786696
-0.00291116
1.52632e-07
0.00837055
-0.0028131
3.3126e-07
0.00878515
-0.00253818
2.88446e-07
0.00908417
-0.00214748
9.36212e-08
0.00928106
-0.00173649
-9.11129e-08
0.00940613
-0.00136549
-2.57213e-07
0.00948555
-0.00104446
-2.72578e-07
0.00953483
-0.000756908
-2.00619e-07
0.00956546
-0.00048755
-1.46266e-07
0.00958553
-0.000224322
-1.33422e-07
0.00959237
5.55661e-05
-9.52441e-08
0.00957109
0.000378069
-1.24465e-07
0.0095086
0.000743703
-1.64064e-07
0.00938841
0.00115064
-1.62716e-07
0.00919626
0.00158245
-1.17777e-07
0.00892405
0.00201131
-6.45665e-08
0.00857427
0.00239986
-2.7943e-08
0.00816156
0.00270952
-1.3513e-08
0.00770965
0.00291104
-1.67531e-08
0.00724529
0.00299108
-2.32663e-08
0.00679281
0.00295101
-1.93483e-08
0.00637087
0.00280257
-5.85349e-09
0.00599247
0.00256033
1.37668e-08
0.00566651
0.00223713
2.93737e-08
0.0053974
0.00184464
4.41708e-08
0.00518866
0.00139116
4.46648e-08
0.00504588
0.000874019
3.58523e-08
0.00495979
0.00031693
1.25568e-08
0.00488718
-0.000216179
1.76829e-08
0.00477578
-0.000651239
1.89203e-08
0.00461144
-0.000994043
3.33954e-08
0.00443565
-0.00130225
-1.90021e-08
0.00431589
-0.0016518
-3.64292e-09
0.00429742
-0.00203556
-8.03533e-08
0.00439496
-0.0024508
-1.53769e-08
0.00458783
-0.00280855
-9.09545e-08
0.00486468
-0.00312315
-1.14166e-08
0.00520857
-0.00334079
-4.42368e-08
0.00560462
-0.00336877
-5.85307e-09
0.00608065
-0.00343197
3.18953e-08
0.00652678
-0.0028522
8.40551e-08
0.00705647
-0.00278639
1.03145e-07
-0.00140706
1.05186e-07
0.00537769
-0.000299671
5.19256e-08
0.00551457
-0.000891549
1.8033e-08
0.0057516
-0.00150718
-6.30692e-08
0.00608869
-0.002068
-4.99958e-08
0.00655484
-0.00265723
-2.38022e-07
0.00710902
-0.00309657
-1.05738e-07
0.00777107
-0.0034684
-1.11595e-07
0.00846651
-0.00360674
1.47402e-07
0.009093
-0.00344007
4.80202e-07
0.00954744
-0.00299305
4.34595e-07
0.00980428
-0.0024044
7.62519e-08
0.00991987
-0.0018517
-3.78249e-07
0.00995509
-0.00140013
-5.80183e-07
0.00994803
-0.00103697
-4.27742e-07
0.00992208
-0.000730808
-1.55972e-07
0.00989769
-0.000463069
-8.63374e-08
0.00988973
-0.000216235
-1.30574e-07
0.00989598
4.94055e-05
-8.87059e-08
0.00989649
0.00037764
-7.94599e-08
0.00987237
0.000767959
-1.31877e-07
0.00979752
0.00122569
-1.98412e-07
0.00964529
0.00173491
-2.38101e-07
0.00939499
0.00226185
-2.41436e-07
0.00903979
0.00275526
-2.10554e-07
0.00859219
0.00315728
-1.59626e-07
0.00808208
0.00342125
-1.11543e-07
0.00754731
0.00352592
-7.48225e-08
0.00702275
0.00347561
-4.33947e-08
0.00653372
0.00329162
-1.25064e-08
0.00609637
0.00299765
1.78551e-08
0.00571948
0.00261398
3.99202e-08
0.00540473
0.00215933
6.01799e-08
0.00515565
0.00164017
6.07017e-08
0.00497152
0.00105811
4.12021e-08
0.00481417
0.000474281
-3.54669e-09
0.00461222
-1.41771e-05
-5.21776e-08
0.00433392
-0.000372882
-5.44734e-08
0.00402925
-0.000689326
-4.87125e-08
0.0037969
-0.00106979
-1.06497e-07
0.00370977
-0.00156459
-8.18235e-08
0.00377549
-0.00210114
-1.42043e-07
0.00396092
-0.00263617
-6.25666e-08
0.00421685
-0.00306434
-1.39008e-07
0.00451743
-0.00342367
-6.4112e-08
0.00485298
-0.00367625
-8.39306e-08
0.00521851
-0.00373419
-1.03052e-07
0.00565273
-0.00386624
4.11156e-08
0.00606823
-0.00326768
-1.66594e-08
0.00657143
-0.00328976
1.77524e-07
-0.00176168
1.75132e-07
0.00538211
-0.000348534
9.18844e-08
0.0055385
-0.00104799
4.70944e-08
0.00580411
-0.0017728
1.06849e-08
0.00620826
-0.00247204
-1.09407e-07
0.0067651
-0.00321374
-3.28275e-07
0.00745376
-0.00378488
-3.55446e-07
0.00833312
-0.00434734
-4.24227e-07
0.00919425
-0.00446789
9.68204e-09
0.00990996
-0.00415613
3.48976e-07
0.0102785
-0.00336223
5.91436e-07
0.0103285
-0.00245465
3.27818e-07
0.0102113
-0.00173443
-1.08678e-07
0.0100312
-0.00121952
-5.53577e-07
0.00983796
-0.00084328
-4.13126e-07
0.00966771
-0.000560509
-4.89515e-08
0.00954982
-0.000345199
2.13268e-08
0.00950071
-0.000167054
-6.53551e-08
0.00951452
3.56511e-05
-5.47439e-08
0.00957554
0.000316591
2.33776e-08
0.00965098
0.000692464
5.40088e-08
0.00970354
0.00117313
1.52039e-08
0.00968821
0.00175029
-4.49474e-08
0.00956278
0.00238741
-1.35706e-07
0.00929924
0.00301904
-2.35093e-07
0.00889545
0.00356136
-2.95059e-07
0.00838024
0.00393675
-2.85569e-07
0.00780388
0.00410251
-2.19773e-07
0.00721911
0.00406051
-1.3216e-07
0.0066659
0.00384488
-5.10051e-08
0.00616901
0.00349454
8.12825e-09
0.00573778
0.00304516
4.53834e-08
0.0053721
0.00252494
6.87678e-08
0.00507585
0.00193637
5.96264e-08
0.00482692
0.00130701
2.81565e-08
0.00454863
0.000752578
-8.27412e-09
0.00417628
0.000358209
-3.26466e-08
0.00375296
5.05474e-05
-1.16648e-07
0.00341085
-0.00034712
-8.85101e-08
0.00325534
-0.000914174
-1.05599e-07
0.00330372
-0.00161293
-5.10743e-08
0.00350338
-0.0023007
-9.96831e-08
0.00378498
-0.00291774
-2.19369e-08
0.00409163
-0.00337089
-1.07604e-07
0.00439492
-0.00372692
-4.71447e-08
0.00469684
-0.0039781
-6.99335e-08
0.00500584
-0.00404303
-1.5538e-07
0.00536279
-0.00422327
7.87183e-08
0.00571746
-0.00362224
-1.10976e-07
0.00614407
-0.00371663
2.61277e-07
-0.00208294
2.53021e-07
0.00538599
-0.000401345
1.5136e-07
0.00555396
-0.00121607
1.18367e-07
0.00584381
-0.00206279
1.39457e-07
0.0063158
-0.00294389
-1.42615e-07
0.00695661
-0.00385429
-2.5739e-07
0.00783557
-0.00466312
-7.18605e-07
0.00902441
-0.00553539
-7.9361e-07
0.00996739
-0.00541074
-1.28685e-07
0.0104894
-0.00126042
-1.86167e-07
-0.00107869
-0.00125889
-0.00107998
0.0104298
-0.000912009
1.15215e-07
-0.000739527
-0.000911026
-0.000740151
0.00996414
-0.000549918
9.47791e-07
-0.000445193
-0.000549475
-0.00044535
0.00937157
-0.000298057
3.85175e-07
-0.000272742
-0.000298579
-0.000272868
0.00880173
-0.000649646
-3.07854e-08
0.00833483
-0.000376279
-1.01933e-07
0.00799736
-0.000223237
1.99555e-07
0.00781099
-0.000158961
1.33943e-07
0.00778303
-0.000139061
-3.10703e-08
0.00788939
-7.07193e-05
6.25031e-09
0.0081067
9.91041e-05
1.75588e-07
0.00838634
0.000412582
2.45076e-07
0.00867901
0.000880146
3.11577e-07
0.00892231
0.00150663
3.49175e-07
0.00905576
0.00225369
2.74405e-07
0.00902811
0.00304659
1.04076e-07
0.00881146
0.00377811
-9.24863e-08
0.00841619
0.00433226
-2.47075e-07
0.00789181
0.0046272
-2.99406e-07
0.0073061
0.00464646
-2.48785e-07
0.00672092