/*--------------------------------*- C++ -*----------------------------------*\
  =========                 |
  \\      /  F ield         | OpenFOAM: The Open Source CFD Toolbox
   \\    /   O peration     | Website:  https://openfoam.org
    \\  /    A nd           | Version:  8
     \\/     M anipulation  |
\*---------------------------------------------------------------------------*/
FoamFile
{
    version     2.0;
    format      ascii;
    class       volVectorField;
    location    "93";
    object      U;
}
// * * * * * * * * * * * * * * * * * * * * * * * * * * * * * * * * * * * * * //

dimensions      [0 1 -1 0 0 0 0];

internalField   nonuniform List<vector> 
12504
(
(1.00013 -0.000622771 6.75129e-07)
(1.00317 -0.00185326 -1.20015e-06)
(1.00922 -0.00302031 -2.09256e-06)
(1.01818 -0.00407491 -1.46235e-06)
(1.02965 -0.00497451 -8.52839e-07)
(1.04317 -0.00568368 -6.04869e-07)
(1.05822 -0.00617541 -4.16232e-07)
(1.07423 -0.00643324 -5.4628e-08)
(1.0906 -0.00645275 3.48399e-07)
(1.10673 -0.00624161 7.1155e-07)
(1.12206 -0.00581811 9.93358e-07)
(1.13607 -0.00520843 1.16513e-06)
(1.14833 -0.00444262 1.22435e-06)
(1.1585 -0.00355124 1.18402e-06)
(1.16627 -0.00256185 1.08632e-06)
(1.17146 -0.00149897 9.7391e-07)
(1.17389 -0.000383513 8.39438e-07)
(1.17347 0.000764073 8.12142e-07)
(1.17015 0.00192259 8.99951e-07)
(1.16392 0.00306851 9.54806e-07)
(1.15484 0.00417452 9.4653e-07)
(1.14305 0.0052092 8.76178e-07)
(1.12877 0.00613833 7.61042e-07)
(1.11229 0.00692629 5.90235e-07)
(1.09402 0.0075389 3.9976e-07)
(1.07445 0.00794505 2.03164e-07)
(1.05412 0.00812011 9.59063e-09)
(1.03364 0.00804569 -1.35553e-07)
(1.01366 0.00771306 -2.05825e-07)
(0.994852 0.00711947 -2.25417e-07)
(0.977858 0.00627324 -2.04487e-07)
(0.963299 0.00518596 -1.15895e-07)
(0.951783 0.00388215 -9.69038e-08)
(0.943773 0.00238659 8.95918e-08)
(0.939809 0.000740573 -6.91071e-08)
(0.940038 -0.00101535 1.66805e-07)
(0.944974 -0.00282211 -4.6485e-07)
(0.954184 -0.00462002 2.0447e-07)
(0.968315 -0.00633644 -1.09159e-06)
(0.985924 -0.00788833 5.18711e-07)
(1.00818 -0.00921844 -1.8893e-06)
(1.03202 -0.0102081 1.42105e-06)
(1.05986 -0.0108907 -2.75377e-06)
(1.08634 -0.0110494 2.91143e-06)
(1.11594 -0.0109777 -3.52367e-06)
(1.14093 -0.0101494 4.16742e-06)
(1.16754 -0.00948974 -3.30458e-06)
(1.18811 -0.00760666 3.02082e-06)
(1.20586 -0.00686254 5.87633e-07)
(1.22317 -0.00376704 -2.44339e-06)
(1.00013 -0.00188719 6.60502e-07)
(1.00325 -0.00561166 -1.2529e-06)
(1.00947 -0.00914382 -2.1185e-06)
(1.01867 -0.0123367 -1.48375e-06)
(1.03045 -0.0150599 -8.84107e-07)
(1.04434 -0.0172052 -6.31575e-07)
(1.05979 -0.0186906 -4.29169e-07)
(1.07622 -0.0194665 -3.11583e-08)
(1.093 -0.0195196 3.99834e-07)
(1.10953 -0.0188739 7.84564e-07)
(1.12522 -0.0175862 1.07909e-06)
(1.13955 -0.0157373 1.24997e-06)
(1.15208 -0.0134195 1.29447e-06)
(1.16245 -0.010726 1.23083e-06)
(1.17039 -0.00774022 1.10869e-06)
(1.1757 -0.00453517 9.78874e-07)
(1.17821 -0.00117315 8.34582e-07)
(1.17783 0.00228638 8.04948e-07)
(1.17451 0.00578037 9.08809e-07)
(1.16823 0.00923852 9.8661e-07)
(1.15906 0.0125788 9.98581e-07)
(1.14711 0.0157064 9.4126e-07)
(1.1326 0.0185172 8.3034e-07)
(1.11585 0.020903 6.57046e-07)
(1.09726 0.0227595 4.57825e-07)
(1.07731 0.0239921 2.47956e-07)
(1.05657 0.0245258 4.70779e-08)
(1.03568 0.0243048 -1.11909e-07)
(1.01529 0.0233028 -1.89639e-07)
(0.996074 0.0215118 -2.13997e-07)
(0.978712 0.0189573 -1.97449e-07)
(0.963832 0.0156738 -1.15332e-07)
(0.952055 0.0117359 -1.00704e-07)
(0.943854 0.00721705 7.80799e-08)
(0.939789 0.0022428 -4.77776e-08)
(0.940012 -0.00306766 1.49158e-07)
(0.945057 -0.00853293 -4.93032e-07)
(0.954489 -0.0139764 1.97333e-07)
(0.968982 -0.0191723 -1.09239e-06)
(0.987049 -0.0238761 5.52641e-07)
(1.00991 -0.027901 -1.87597e-06)
(1.03439 -0.0309016 1.48042e-06)
(1.06299 -0.0329561 -2.73984e-06)
(1.09014 -0.0334337 3.02741e-06)
(1.12051 -0.0331892 -3.48766e-06)
(1.14601 -0.0306709 4.35109e-06)
(1.17324 -0.0286397 -3.29433e-06)
(1.19402 -0.0229303 3.17614e-06)
(1.21212 -0.0206609 4.67206e-07)
(1.22939 -0.0113049 -2.56555e-06)
(1.00014 -0.00320334 6.85191e-07)
(1.00342 -0.00952169 -1.33152e-06)
(1.00997 -0.0155143 -2.22354e-06)
(1.01966 -0.0209331 -1.56032e-06)
(1.03208 -0.0255535 -9.36685e-07)
(1.04671 -0.0291898 -6.60733e-07)
(1.06298 -0.0317016 -4.21876e-07)
(1.08027 -0.033004 3.93744e-08)
(1.09792 -0.0330751 5.32997e-07)
(1.11526 -0.0319585 9.67152e-07)
(1.13168 -0.0297549 1.28619e-06)
(1.14664 -0.0266068 1.44595e-06)
(1.1597 -0.0226761 1.44683e-06)
(1.17049 -0.018123 1.3236e-06)
(1.17876 -0.0130885 1.1474e-06)
(1.18431 -0.00769284 9.85139e-07)
(1.18699 -0.00203734 8.33847e-07)
(1.1867 0.00378373 8.11049e-07)
(1.18338 0.00966817 9.46061e-07)
(1.17701 0.0155 1.06204e-06)
(1.16763 0.0211422 1.10224e-06)
(1.15536 0.0264342 1.06037e-06)
(1.14041 0.0311984 9.52548e-07)
(1.1231 0.0352489 7.69729e-07)
(1.10383 0.0384066 5.49195e-07)
(1.08312 0.0405088 3.09835e-07)
(1.06156 0.0414271 8.70496e-08)
(1.03982 0.0410668 -1.04354e-07)
(1.01858 0.0393838 -2.0634e-07)
(0.998562 0.0363651 -2.47646e-07)
(0.980457 0.0320547 -2.45752e-07)
(0.964928 0.0265109 -1.64654e-07)
(0.952624 0.0198594 -1.4818e-07)
(0.944045 0.0122211 5.05454e-08)
(0.93978 0.00380873 -5.50585e-08)
(0.939998 -0.005184 1.42958e-07)
(0.945279 -0.0144465 -5.20681e-07)
(0.955173 -0.0236845 2.37685e-07)
(0.970419 -0.0325067 -1.10171e-06)
(0.989441 -0.0405027 6.78019e-07)
(1.01356 -0.0473366 -1.87299e-06)
(1.03935 -0.0524316 1.7457e-06)
(1.06953 -0.0558918 -2.73562e-06)
(1.09805 -0.0566701 3.47501e-06)
(1.13001 -0.0561831 -3.53268e-06)
(1.15653 -0.0518432 4.9653e-06)
(1.18501 -0.0483002 -3.39059e-06)
(1.20617 -0.0385623 3.73408e-06)
(1.22497 -0.0346546 2.7819e-07)
(1.24207 -0.0188413 -2.82531e-06)
(1.00015 -0.00460456 7.38588e-07)
(1.00369 -0.013688 -1.44645e-06)
(1.01075 -0.0223057 -2.41142e-06)
(1.0212 -0.0300997 -1.70102e-06)
(1.0346 -0.0367434 -1.0253e-06)
(1.05039 -0.0419658 -7.13222e-07)
(1.06794 -0.0455611 -4.03831e-07)
(1.08657 -0.0474045 1.50999e-07)
(1.10554 -0.0474662 7.51143e-07)
(1.12414 -0.045814 1.27539e-06)
(1.14169 -0.0426034 1.63987e-06)
(1.15762 -0.0380521 1.78097e-06)
(1.17148 -0.0324034 1.70589e-06)
(1.18291 -0.0258935 1.48049e-06)
(1.19167 -0.0187232 1.21061e-06)
(1.19758 -0.0110571 9.93494e-07)
(1.20052 -0.00302955 8.2655e-07)
(1.20036 0.00523563 8.1529e-07)
(1.19704 0.013602 9.99092e-07)
(1.19053 0.0219112 1.1754e-06)
(1.18085 0.0299707 1.26429e-06)
(1.16809 0.0375498 1.25101e-06)
(1.15246 0.0443907 1.15051e-06)
(1.13428 0.0502211 9.52052e-07)
(1.11397 0.0547782 6.97249e-07)
(1.09209 0.0578237 4.11471e-07)
(1.06926 0.0591705 1.45329e-07)
(1.04621 0.0586823 -1.00092e-07)
(1.02367 0.0562969 -2.40869e-07)
(1.00241 0.0519982 -3.05281e-07)
(0.983168 0.0458499 -3.17831e-07)
(0.96665 0.0379362 -2.32169e-07)
(0.95355 0.028435 -2.25563e-07)
(0.944401 0.0175137 1.61665e-08)
(0.939845 0.00547228 -1.97941e-07)
(0.940076 -0.00742013 1.09321e-07)
(0.945747 -0.0207203 -5.66091e-07)
(0.956388 -0.0340084 3.06143e-07)
(0.97284 -0.0467155 -1.12865e-06)
(0.993383 -0.0582418 8.93806e-07)
(1.01949 -0.0680873 -1.88058e-06)
(1.04736 -0.0754077 2.19506e-06)
(1.08002 -0.0803376 -2.76918e-06)
(1.11069 -0.0813615 4.21805e-06)
(1.14511 -0.0805174 -3.66599e-06)
(1.17318 -0.0740988 5.99703e-06)
(1.20359 -0.0688025 -3.61162e-06)
(1.22521 -0.0546667 4.68601e-06)
(1.24507 -0.0489131 -2.09088e-08)
(1.26169 -0.0263196 -3.20925e-06)
(1.00016 -0.00613074 8.09007e-07)
(1.00406 -0.0182286 -1.60973e-06)
(1.01183 -0.0297108 -2.69081e-06)
(1.02334 -0.0400984 -1.92047e-06)
(1.03811 -0.0489507 -1.1703e-06)
(1.05552 -0.0558992 -8.1041e-07)
(1.07486 -0.0606615 -3.80807e-07)
(1.09536 -0.0630658 3.22297e-07)
(1.1162 -0.0630739 1.09421e-06)
(1.13655 -0.0607863 1.76912e-06)
(1.15566 -0.0564293 2.20762e-06)
(1.17293 -0.0503171 2.31281e-06)
(1.18787 -0.0427951 2.10799e-06)
(1.20015 -0.0341875 1.71755e-06)
(1.20957 -0.0247577 1.30255e-06)
(1.21598 -0.0147104 1.00397e-06)
(1.21925 -0.00420242 8.19914e-07)
(1.21928 0.00662229 8.19668e-07)
(1.21597 0.0176008 1.08215e-06)
(1.20928 0.0285367 1.35825e-06)
(1.19918 0.0391811 1.52618e-06)
(1.18575 0.0492271 1.55929e-06)
(1.16918 0.0583255 1.47132e-06)
(1.14979 0.0661046 1.24882e-06)
(1.12804 0.0722043 9.39662e-07)
(1.10452 0.0762992 5.793e-07)
(1.07993 0.0781357 2.46122e-07)
(1.05507 0.0775328 -7.87675e-08)
(1.03073 0.0744104 -2.71323e-07)
(1.00776 0.0687516 -3.65515e-07)
(0.986955 0.0606437 -3.87785e-07)
(0.96909 0.0501989 -2.98533e-07)
(0.954911 0.0376467 -3.0833e-07)
(0.945001 0.0232056 -4.45524e-08)
(0.940075 0.00725564 -3.3571e-07)
(0.94036 -0.0098566 8.16976e-08)
(0.946619 -0.0275502 -6.38376e-07)
(0.958355 -0.0452689 3.90051e-07)
(0.976557 -0.0622434 -1.18818e-06)
(0.999287 -0.077652 1.16741e-06)
(1.02824 -0.0907995 -1.93337e-06)
(1.05905 -0.100531 2.76389e-06)
(1.09521 -0.107006 -2.88945e-06)
(1.12883 -0.108185 5.17791e-06)
(1.16671 -0.10679 -3.93367e-06)
(1.19686 -0.0979044 7.3597e-06)
(1.22995 -0.0904627 -4.02251e-06)
(1.25204 -0.071371 5.97734e-06)
(1.27332 -0.0634287 -4.86173e-07)
(1.28894 -0.0335923 -3.67259e-06)
(1.00018 -0.00782563 8.97762e-07)
(1.00454 -0.0232728 -1.81098e-06)
(1.01325 -0.0379438 -3.06128e-06)
(1.02617 -0.0512227 -2.22003e-06)
(1.04275 -0.0625374 -1.37851e-06)
(1.06231 -0.071406 -9.65101e-07)
(1.08403 -0.0774507 -3.51913e-07)
(1.10704 -0.0804417 5.77995e-07)
(1.13035 -0.0803305 1.62091e-06)
(1.15303 -0.0772619 2.54422e-06)
(1.17421 -0.071558 3.10045e-06)
(1.1932 -0.0636622 3.13239e-06)
(1.20952 -0.0540522 2.7e-06)
(1.22289 -0.0431579 2.04029e-06)
(1.23313 -0.0313089 1.40712e-06)
(1.24015 -0.018739 9.88553e-07)
(1.24385 -0.00561464 7.97757e-07)
(1.24412 0.00791662 8.26428e-07)
(1.24085 0.0216777 1.20579e-06)
(1.23393 0.0354403 1.63093e-06)
(1.2233 0.0488975 1.91687e-06)
(1.209 0.0616565 2.02146e-06)
(1.19119 0.0732609 1.95443e-06)
(1.17021 0.0832201 1.69631e-06)
(1.14654 0.0910569 1.30123e-06)
(1.12086 0.0963429 8.25113e-07)
(1.09394 0.0987479 3.88376e-07)
(1.06668 0.0980417 -4.56753e-08)
(1.03999 0.0941286 -3.07063e-07)
(1.01478 0.0869954 -4.32236e-07)
(0.991966 0.0767586 -4.65988e-07)
(0.972365 0.0635615 -3.68487e-07)
(0.95681 0.0476881 -3.47152e-07)
(0.945944 0.0294009 -1.31832e-07)
(0.940578 0.00916358 -4.43971e-07)
(0.940986 -0.0126057 8.36358e-08)
(0.948089 -0.0351817 -7.1445e-07)
(0.961342 -0.0578567 5.1107e-07)
(0.981945 -0.0796203 -1.28543e-06)
(1.00762 -0.0993847 1.46876e-06)
(1.04037 -0.116206 -2.10992e-06)
(1.07499 -0.12858 3.32263e-06)
(1.11569 -0.136668 -3.28026e-06)
(1.15304 -0.137873 6.12779e-06)
(1.19543 -0.135642 -4.58014e-06)
(1.22817 -0.123765 8.87382e-06)
(1.26484 -0.113605 -4.80771e-06)
(1.28738 -0.0887799 7.49456e-06)
(1.31057 -0.0781138 -1.26675e-06)
(1.32448 -0.0404043 -4.22201e-06)
(1.00021 -0.00973906 1.00567e-06)
(1.00516 -0.0289677 -2.03254e-06)
(1.01507 -0.0472504 -3.53599e-06)
(1.02978 -0.0638111 -2.60871e-06)
(1.0487 -0.0779259 -1.67219e-06)
(1.07103 -0.0889758 -1.20498e-06)
(1.09586 -0.0964586 -3.28917e-07)
(1.12212 -0.100069 9.43111e-07)
(1.14866 -0.0997438 2.40777e-06)
(1.17435 -0.0956862 3.73605e-06)
(1.19816 -0.0883534 4.48409e-06)
(1.21932 -0.0783678 4.38724e-06)
(1.23735 -0.0663839 3.56542e-06)
(1.25202 -0.052961 2.47248e-06)
(1.26324 -0.0384957 1.48941e-06)
(1.27101 -0.0232346 9.07789e-07)
(1.27525 -0.00733022 7.15505e-07)
(1.27584 0.00908737 8.04266e-07)
(1.27262 0.0258443 1.36791e-06)
(1.26544 0.0426905 2.02195e-06)
(1.25416 0.059259 2.48935e-06)
(1.23875 0.0750571 2.70268e-06)
(1.21936 0.0894979 2.66733e-06)
(1.19631 0.101944 2.35584e-06)
(1.17017 0.111773 1.83162e-06)
(1.14169 0.118431 1.1826e-06)
(1.11177 0.121499 5.86894e-07)
(1.08145 0.120694 -9.17785e-10)
(1.05175 0.115909 -3.56271e-07)
(1.02373 0.107142 -5.1605e-07)
(0.998375 0.0945493 -5.56311e-07)
(0.976612 0.0783074 -4.3538e-07)
(0.959358 0.0587612 -3.98599e-07)
(0.947329 0.0362052 -1.25742e-07)
(0.941463 0.0111888 -4.45483e-07)
(0.942089 -0.0158119 1.61141e-07)
(0.950343 -0.043914 -7.73904e-07)
(0.965599 -0.0722339 6.71401e-07)
(0.989312 -0.0994466 -1.46883e-06)
(1.01866 -0.124142 1.67467e-06)
(1.05605 -0.145043 -2.63696e-06)
(1.0951 -0.160301 3.51039e-06)
(1.14113 -0.170037 -4.37658e-06)
(1.18267 -0.171127 6.49679e-06)
(1.23046 -0.167724 -6.18795e-06)
(1.26626 -0.152262 9.93921e-06)
(1.30765 -0.138657 -6.40997e-06)
(1.33085 -0.107091 9.02524e-06)
(1.35676 -0.0929234 -2.6062e-06)
(1.36842 -0.0464518 -4.94065e-06)
(1.00024 -0.011929 1.13279e-06)
(1.00594 -0.0354816 -2.23832e-06)
(1.01734 -0.0579171 -4.14491e-06)
(1.03431 -0.0782611 -3.09526e-06)
(1.05618 -0.0956191 -2.09978e-06)
(1.08205 -0.109199 -1.57825e-06)
(1.11086 -0.11833 -2.91422e-07)
(1.14131 -0.122605 1.49469e-06)
(1.17201 -0.12193 3.61277e-06)
(1.20155 -0.116588 5.55898e-06)
(1.22867 -0.107231 6.56956e-06)
(1.25251 -0.0947377 6.24086e-06)
(1.27258 -0.0800069 4.78733e-06)
(1.28878 -0.0637549 3.01363e-06)
(1.30116 -0.0464412 1.4088e-06)
(1.30981 -0.0282956 6.44884e-07)
(1.31469 -0.00942352 5.17158e-07)
(1.31568 0.0100911 7.02276e-07)
(1.31256 0.0301052 1.54126e-06)
(1.30508 0.0503612 2.5421e-06)
(1.29301 0.0704275 3.2942e-06)
(1.27622 0.0896907 3.68392e-06)
(1.25481 0.107401 3.70126e-06)
(1.22914 0.122734 3.30902e-06)
(1.19983 0.134883 2.5941e-06)
(1.16778 0.143139 1.69481e-06)
(1.13404 0.146977 8.69616e-07)
(1.09984 0.14606 7.16236e-08)
(1.06638 0.14028 -4.09165e-07)
(1.03485 0.129663 -6.08584e-07)
(1.00638 0.114414 -6.52178e-07)
(0.981968 0.094753 -4.52948e-07)
(0.962659 0.0710838 -4.11429e-07)
(0.949237 0.0437307 2.79581e-08)
(0.942801 0.0133153 -3.4589e-07)
(0.943738 -0.019646 3.50533e-07)
(0.953469 -0.0540832 -7.8764e-07)
(0.97119 -0.0888869 8.49059e-07)
(0.998592 -0.122284 -1.85138e-06)
(1.03198 -0.15248 1.53602e-06)
(1.07421 -0.17777 -3.89271e-06)
(1.11742 -0.196077 2.73606e-06)
(1.16857 -0.207435 -6.81353e-06)
(1.21385 -0.208372 5.39607e-06)
(1.2674 -0.203573 -9.55228e-06)
(1.30657 -0.18412 9.55253e-06)
(1.35414 -0.166372 -9.69527e-06)
(1.379 -0.126888 1.00439e-05)
(1.4092 -0.108212 -4.60569e-06)
(1.41921 -0.0516101 -5.79701e-06)
(1.00028 -0.0144638 1.27949e-06)
(1.0069 -0.0430074 -2.35671e-06)
(1.02014 -0.0702821 -4.94077e-06)
(1.03993 -0.0950449 -3.66724e-06)
(1.06549 -0.116227 -2.76903e-06)
(1.09584 -0.132803 -2.17862e-06)
(1.12971 -0.143867 -2.56212e-07)
(1.16556 -0.148872 2.35663e-06)
(1.2016 -0.147659 5.60223e-06)
(1.23605 -0.140615 8.4914e-06)
(1.26733 -0.128678 9.71664e-06)
(1.29442 -0.113105 8.80326e-06)
(1.3169 -0.0951409 6.30169e-06)
(1.33485 -0.0756935 3.29773e-06)
(1.34853 -0.0552689 8.9169e-07)
(1.35819 -0.0340283 1.7943e-08)
(1.36384 -0.0119835 5.32529e-08)
(1.36533 0.0108689 4.10063e-07)
(1.36237 0.0344577 1.63188e-06)
(1.35456 0.0585369 3.10189e-06)
(1.34153 0.0826006 4.27739e-06)
(1.32302 0.105884 4.98096e-06)
(1.29907 0.127429 5.12915e-06)
(1.27005 0.146165 4.64312e-06)
(1.23669 0.161051 3.65439e-06)
(1.20008 0.171179 2.40094e-06)
(1.16151 0.1759 1.25696e-06)
(1.12244 0.174829 1.91852e-07)
(1.0843 0.167872 -4.44767e-07)
(1.04845 0.155106 -6.66598e-07)
(1.01616 0.136809 -6.89079e-07)
(0.988551 0.113257 -3.98541e-07)
(0.966774 0.0849093 -2.87541e-07)
(0.951677 0.0521154 3.74395e-07)
(0.944555 0.0155459 -4.67674e-08)
(0.945845 -0.0242633 8.01777e-07)
(0.957294 -0.0659816 -6.32753e-07)
(0.977678 -0.108154 1.13287e-06)
(1.00872 -0.148333 -2.38377e-06)
(1.04534 -0.184312 1.07724e-06)
(1.09096 -0.213924 -5.75994e-06)
(1.13609 -0.235238 1.05868e-06)
(1.19023 -0.248153 -1.0336e-05)
(1.2372 -0.249269 2.76643e-06)
(1.29572 -0.243357 -1.45552e-05)
(1.33827 -0.220204 7.36422e-06)
(1.39377 -0.198187 -1.49782e-05)
(1.4228 -0.149683 9.82826e-06)
(1.45999 -0.125457 -7.50179e-06)
(1.47172 -0.056445 -6.83236e-06)
(1.00032 -0.0174238 1.44843e-06)
(1.00807 -0.0517636 -2.26359e-06)
(1.02355 -0.0847485 -5.99892e-06)
(1.04681 -0.114725 -4.24013e-06)
(1.07696 -0.140504 -3.88903e-06)
(1.11296 -0.160701 -3.14575e-06)
(1.15331 -0.174089 -4.27751e-07)
(1.19608 -0.179923 3.47381e-06)
(1.23904 -0.177906 8.86019e-06)
(1.27978 -0.168571 1.34574e-05)
(1.31627 -0.15328 1.47847e-05)
(1.34727 -0.133847 1.24068e-05)
(1.3725 -0.112012 7.68584e-06)
(1.39237 -0.0889214 2.43264e-06)
(1.40747 -0.0650926 -6.58494e-07)
(1.41826 -0.0405353 -1.27239e-06)
(1.42479 -0.0151047 -9.58197e-07)
(1.42689 0.0113456 -3.17865e-07)
(1.42415 0.0388859 1.49847e-06)
(1.41599 0.0673075 3.55677e-06)
(1.4018 0.0960168 5.24189e-06)
(1.38115 0.124051 6.40351e-06)
(1.35399 0.15017 6.83813e-06)
(1.3207 0.172981 6.33208e-06)
(1.28217 0.191127 5.02602e-06)
(1.23974 0.203453 3.31152e-06)
(1.19505 0.209167 1.74382e-06)
(1.14987 0.207844 3.53363e-07)
(1.10593 0.199439 -4.39126e-07)
(1.06478 0.184122 -6.23087e-07)
(1.02788 0.162274 -5.36461e-07)
(0.996411 0.134236 -6.58519e-08)
(0.971674 0.100546 1.41772e-07)
(0.954524 0.0615537 8.90161e-07)
(0.946482 0.0179524 4.43501e-07)
(0.94801 -0.0297123 1.70783e-06)
(0.961092 -0.079659 1.91835e-08)
(0.983533 -0.129808 2.07061e-06)
(1.01654 -0.176727 -2.10919e-06)
(1.05317 -0.217959 1.76146e-06)
(1.09777 -0.251081 -6.07792e-06)
(1.13968 -0.275069 1.19257e-06)
(1.19209 -0.289627 -1.15358e-05)
(1.23688 -0.29208 1.93293e-06)
(1.29827 -0.286435 -1.74465e-05)
(1.34398 -0.261298 5.88083e-06)
(1.40894 -0.236324 -1.94979e-05)
(1.44664 -0.178326 9.38468e-06)
(1.49432 -0.148198 -1.08134e-05)
(1.51562 -0.0630329 -7.72035e-06)
(1.00039 -0.0209023 1.65789e-06)
(1.00948 -0.0619925 -1.7811e-06)
(1.02766 -0.101797 -7.39916e-06)
(1.05517 -0.137966 -4.58303e-06)
(1.09096 -0.169395 -5.7688e-06)
(1.13411 -0.194061 -4.55058e-06)
(1.18275 -0.210339 -1.1806e-06)
(1.23452 -0.217151 4.43376e-06)
(1.28648 -0.213921 1.3421e-05)
(1.33534 -0.201436 2.11369e-05)
(1.37834 -0.181709 2.28593e-05)
(1.41397 -0.157371 1.804e-05)
(1.44221 -0.130852 8.18382e-06)
(1.46402 -0.103576 -7.7873e-07)
(1.4805 -0.076009 -4.62091e-06)
(1.4924 -0.0479008 -4.54378e-06)
(1.49982 -0.0188696 -3.52411e-06)
(1.5026 0.0114485 -2.37977e-06)
(1.50016 0.043379 3.52885e-07)
(1.49165 0.0767765 3.41022e-06)
(1.4761 0.11095 5.84819e-06)
(1.45284 0.144686 7.58975e-06)
(1.42166 0.176361 8.39326e-06)
(1.38296 0.204129 7.9772e-06)
(1.33784 0.226203 6.44685e-06)
(1.28803 0.241114 4.28101e-06)
(1.2356 0.247907 2.233e-06)
(1.18278 0.24615 5.00468e-07)
(1.13166 0.235904 -3.87053e-07)
(1.08405 0.217492 -3.90559e-07)
(1.04156 0.191447 -7.78837e-08)
(1.00547 0.158206 7.81846e-07)
(0.977152 0.118397 1.08356e-06)
(0.957407 0.0723538 2.0365e-06)
(0.947998 0.02076 1.49131e-06)
(0.94933 -0.035752 3.47017e-06)
(0.96312 -0.0944835 1.93213e-06)
(0.985175 -0.152219 4.89661e-06)
(1.0154 -0.204379 9.67348e-07)
(1.04519 -0.248922 6.26687e-06)
(1.08089 -0.28389 -1.48218e-06)
(1.11211 -0.310223 7.0082e-06)
(1.15671 -0.32723 -5.98041e-06)
(1.19524 -0.333559 7.30364e-06)
(1.25711 -0.331168 -1.25807e-05)
(1.30615 -0.307589 9.93423e-06)
(1.38108 -0.283153 -1.75134e-05)
(1.43305 -0.216377 1.23365e-05)
(1.49357 -0.181977 -1.08951e-05)
(1.53624 -0.0754245 -7.12098e-06)
(1.00048 -0.0250017 1.98188e-06)
(1.01113 -0.0739544 -7.13227e-07)
(1.03255 -0.121997 -9.16306e-06)
(1.0652 -0.165541 -4.3393e-06)
(1.1079 -0.204096 -8.87047e-06)
(1.16014 -0.234387 -6.08386e-06)
(1.21942 -0.254424 -2.56098e-06)
(1.28298 -0.262485 5.60273e-06)
(1.34676 -0.257383 1.93235e-05)
(1.40613 -0.240401 3.04919e-05)
(1.45721 -0.214619 3.27127e-05)
(1.49807 -0.18395 2.46505e-05)
(1.5292 -0.15175 7.21009e-06)
(1.55248 -0.119688 -7.00507e-06)
(1.56983 -0.088028 -1.22419e-05)
(1.5824 -0.056148 -1.13876e-05)
(1.59041 -0.0233585 -9.45298e-06)
(1.59375 0.0110707 -7.14438e-06)
(1.59168 0.0478952 -4.44739e-06)
(1.58288 0.0870476 -1.21677e-07)
(1.56594 0.127704 4.00712e-06)
(1.53975 0.168341 7.36282e-06)
(1.5038 0.206844 8.96481e-06)
(1.45848 0.240737 8.71669e-06)
(1.40514 0.267621 7.08636e-06)
(1.34605 0.28559 4.72312e-06)
(1.28393 0.293516 2.40309e-06)
(1.22161 0.29102 5.86794e-07)
(1.16169 0.278369 -1.79948e-07)
(1.10624 0.256144 1.95912e-07)
(1.05704 0.225092 8.52151e-07)
(1.0154 0.185797 2.22376e-06)
(0.982699 0.13902 2.77082e-06)
(0.959577 0.0850408 3.88426e-06)
(0.948049 0.024505 2.64313e-06)
(0.948112 -0.0414711 5.86022e-06)
(0.959859 -0.108314 5.16992e-06)
(0.975801 -0.17114 9.63817e-06)
(0.994395 -0.224893 6.35932e-06)
(1.00747 -0.269562 1.31996e-05)
(1.02544 -0.3049 5.24174e-06)
(1.04021 -0.334552 1.46769e-05)
(1.07392 -0.356611 1.72302e-06)
(1.10557 -0.371052 1.45818e-05)
(1.16742 -0.376296 -2.99173e-06)
(1.22097 -0.358826 1.67814e-05)
(1.30432 -0.340107 -8.11905e-06)
(1.37466 -0.2662 1.92779e-05)
(1.4461 -0.231981 -4.52353e-06)
(1.521 -0.0985543 -2.63861e-06)
(1.00061 -0.0298175 2.62516e-06)
(1.01297 -0.0879275 1.10527e-06)
(1.0383 -0.146001 -1.09934e-05)
(1.07697 -0.198306 -3.42512e-06)
(1.12813 -0.246129 -1.41986e-05)
(1.19195 -0.283583 -7.42247e-06)
(1.26487 -0.308761 -4.82928e-06)
(1.34408 -0.318548 9.53161e-06)
(1.42362 -0.310658 2.98464e-05)
(1.49665 -0.287076 4.0826e-05)
(1.5572 -0.252567 3.86802e-05)
(1.60292 -0.213344 2.248e-05)
(1.63545 -0.174149 -1.82861e-06)
(1.65835 -0.136704 -1.92219e-05)
(1.67477 -0.10069 -2.39171e-05)
(1.68644 -0.0649692 -2.13613e-05)
(1.69391 -0.0285199 -1.85526e-05)
(1.69733 0.00993061 -1.51875e-05)
(1.69569 0.0519747 -1.43297e-05)
(1.68702 0.0977347 -1.19188e-05)
(1.66925 0.146185 -6.91352e-06)
(1.64059 0.195329 1.87247e-07)
(1.59991 0.242357 5.07406e-06)
(1.5473 0.283942 6.54443e-06)
(1.48437 0.316843 5.36682e-06)
(1.4141 0.33854 3.04272e-06)
(1.34018 0.347669 7.79984e-07)
(1.2663 0.34399 -2.41697e-07)
(1.19574 0.328151 -5.45811e-08)
(1.1309 0.301168 1.2469e-06)
(1.07374 0.264101 2.55777e-06)
(1.0255 0.217783 4.41517e-06)
(0.987362 0.163183 4.94122e-06)
(0.95981 0.100402 5.3615e-06)
(0.944996 0.0301329 1.74014e-06)
(0.941346 -0.0446515 6.5772e-06)
(0.945009 -0.116373 7.12915e-06)
(0.944979 -0.178933 1.19648e-05)
(0.940657 -0.229357 7.41383e-06)
(0.929042 -0.272169 1.28498e-05)
(0.926631 -0.309614 2.2305e-06)
(0.928108 -0.347001 1.14616e-05)
(0.956138 -0.379137 -1.62718e-06)
(0.986513 -0.40651 1.14319e-05)
(1.0504 -0.423282 -7.78031e-07)
(1.10949 -0.415172 1.48939e-05)
(1.1966 -0.406775 8.58489e-07)
(1.28421 -0.327067 2.27419e-05)
(1.3591 -0.299158 6.24693e-06)
(1.46844 -0.135317 6.25422e-06)
(1.00076 -0.0354051 4.03917e-06)
(1.01494 -0.104232 3.56609e-06)
(1.04498 -0.174476 -1.1591e-05)
(1.0903 -0.237208 -2.97085e-06)
(1.15202 -0.297467 -2.35213e-05)
(1.23031 -0.343935 -1.09929e-05)
(1.32051 -0.376437 -1.24331e-05)
(1.42073 -0.388542 1.5111e-05)
(1.52169 -0.376847 4.94331e-05)
(1.6121 -0.343647 5.83192e-05)
(1.68157 -0.29596 3.82431e-05)
(1.72812 -0.244419 -2.88045e-06)
(1.75656 -0.196144 -3.44586e-05)
(1.77369 -0.152606 -4.54553e-05)
(1.78447 -0.112178 -3.89151e-05)
(1.79138 -0.0730023 -2.90031e-05)
(1.79557 -0.0335964 -2.53081e-05)
(1.79788 0.00811927 -1.81641e-05)
(1.79711 0.0547892 -1.94496e-05)
(1.7902 0.107278 -2.5134e-05)
(1.77405 0.164627 -2.65518e-05)
(1.74572 0.224286 -2.08438e-05)
(1.70286 0.28235 -1.21835e-05)
(1.64461 0.334054 -4.95917e-06)
(1.57245 0.374819 -1.56462e-06)
(1.49016 0.401286 -1.70168e-06)
(1.40284 0.411867 -2.92223e-06)
(1.31556 0.406576 -2.82404e-06)
(1.23261 0.386657 -1.12272e-06)
(1.15684 0.353784 1.8945e-06)
(1.09043 0.30951 4.4969e-06)
(1.03444 0.255142 7.17241e-06)
(0.989543 0.191886 7.53152e-06)
(0.956293 0.119473 6.19525e-06)
(0.936362 0.0395946 2.06775e-06)
(0.923852 -0.0406666 3.20415e-06)
(0.90911 -0.110604 3.12768e-06)
(0.88151 -0.166315 5.62518e-06)
(0.847736 -0.211494 -2.88759e-06)
(0.814934 -0.256674 -5.60205e-07)
(0.80369 -0.304205 -1.31462e-05)
(0.807066 -0.356906 -2.74986e-06)
(0.841442 -0.4038 -1.54413e-05)
(0.878517 -0.445795 -1.93812e-06)
(0.945275 -0.47441 -8.99814e-06)
(1.00787 -0.475456 1.93887e-07)
(1.09111 -0.47927 2.9054e-06)
(1.18821 -0.394355 1.49142e-05)
(1.25653 -0.377895 1.5724e-05)
(1.39021 -0.183919 1.68799e-05)
(1.00078 -0.0417403 7.01801e-06)
(1.01712 -0.123269 6.20276e-06)
(1.05229 -0.20787 -7.58103e-06)
(1.10468 -0.283468 -5.58244e-06)
(1.17989 -0.36061 -3.6723e-05)
(1.27503 -0.418098 -2.52072e-05)
(1.38733 -0.461686 -3.76068e-05)
(1.51639 -0.476758 8.02811e-06)
(1.64553 -0.459062 6.553e-05)
(1.75402 -0.410954 8.85774e-05)
(1.82399 -0.34321 5.20896e-05)
(1.85824 -0.273878 -2.6763e-05)
(1.86849 -0.213371 -7.75675e-05)
(1.86761 -0.162593 -7.67968e-05)
(1.86294 -0.117969 -4.7399e-05)
(1.85778 -0.0768039 -2.55185e-05)
(1.8539 -0.0366605 -2.38325e-05)
(1.85311 0.00635445 -1.80013e-05)
(1.85442 0.0553329 -1.38499e-05)
(1.85366 0.112867 -1.92368e-05)
(1.84605 0.178739 -2.91646e-05)
(1.82654 0.250277 -3.6476e-05)
(1.79032 0.322465 -3.83016e-05)
(1.73419 0.388375 -3.41455e-05)
(1.65828 0.440786 -2.59471e-05)
(1.56678 0.474414 -1.78193e-05)
(1.46671 0.487223 -1.18545e-05)
(1.36548 0.479926 -7.13758e-06)
(1.26913 0.45494 -2.61763e-06)
(1.18137 0.414955 2.35459e-06)
(1.10476 0.362249 6.15175e-06)
(1.03984 0.298951 9.82862e-06)
(0.986801 0.226295 1.02511e-05)
(0.946734 0.143733 7.45224e-06)
(0.918133 0.0565064 8.62662e-08)
(0.887369 -0.0221387 -6.3966e-06)
(0.84222 -0.0819361 -8.3287e-06)
(0.7823 -0.12887 -7.92763e-06)
(0.728201 -0.176503 -1.73623e-05)
(0.694693 -0.236962 -1.35395e-05)
(0.696561 -0.305376 -2.35989e-05)
(0.718567 -0.377768 -1.05756e-05)
(0.767315 -0.438392 -2.34237e-05)
(0.813692 -0.490762 -1.06217e-05)
(0.87986 -0.527287 -1.52475e-05)
(0.940648 -0.534491 -1.60537e-05)
(1.01231 -0.549707 3.84784e-06)
(1.10782 -0.460681 -9.66034e-07)
(1.16234 -0.457845 2.43296e-05)
(1.30257 -0.238134 2.8387e-05)
(1.00041 -0.0487262 1.24523e-05)
(1.01987 -0.145371 9.71791e-06)
(1.05889 -0.246017 6.53789e-06)
(1.11971 -0.339 -1.18641e-05)
(1.21059 -0.437951 -4.41814e-05)
(1.32341 -0.509672 -6.00419e-05)
(1.46655 -0.571967 -8.58939e-05)
(1.635 -0.591347 -1.77575e-05)
(1.79302 -0.557078 4.56066e-05)
(1.90273 -0.480109 9.68053e-05)
(1.94394 -0.38152 0.00011978)
(1.93671 -0.289131 3.67117e-05)
(1.90154 -0.214017 -5.33829e-05)
(1.86127 -0.15563 -6.74993e-05)
(1.82592 -0.108329 -2.34232e-05)
(1.79891 -0.069125 1.93035e-07)
(1.78216 -0.0340276 -8.76134e-06)
(1.77791 0.00430286 -1.18001e-05)
(1.78556 0.0505357 6.21512e-07)
(1.80031 0.108768 6.71619e-06)
(1.81485 0.17988 2.8413e-06)
(1.82129 0.262192 -6.06366e-06)
(1.81112 0.350366 -1.99739e-05)
(1.77673 0.435356 -3.57609e-05)
(1.71428 0.506132 -4.61278e-05)
(1.62609 0.553233 -4.57889e-05)
(1.52054 0.572271 -3.62152e-05)
(1.40864 0.564294 -2.26855e-05)
(1.29985 0.533773 -9.91124e-06)
(1.20015 0.485411 4.00119e-07)
(1.11302 0.423069 6.88308e-06)
(1.03822 0.350165 1.13308e-05)
(0.976151 0.267364 1.03825e-05)
(0.927592 0.175577 5.51112e-06)
(0.883055 0.087575 -5.47336e-07)
(0.822571 0.0200443 -6.70862e-06)
(0.74272 -0.0272246 -1.73e-05)
(0.663358 -0.0757781 -1.47967e-05)
(0.61476 -0.143556 -1.79922e-05)
(0.605085 -0.232682 -9.24612e-06)
(0.634121 -0.325877 -1.72034e-05)
(0.679238 -0.414208 -3.9737e-06)
(0.740775 -0.482014 -1.82323e-05)
(0.793347 -0.537291 -7.74493e-06)
(0.854265 -0.576255 -1.24925e-05)
(0.908238 -0.586139 -2.45409e-05)
(0.964048 -0.610314 9.53789e-06)
(1.04868 -0.519498 -1.5852e-05)
(1.08747 -0.529123 3.46469e-05)
(1.21721 -0.290329 4.14845e-05)
(0.999589 -0.0562547 2.00924e-05)
(1.02309 -0.170103 1.95524e-05)
(1.0623 -0.288116 3.47573e-05)
(1.13478 -0.405764 -1.35842e-05)
(1.23745 -0.529799 -2.15785e-05)
(1.37093 -0.625918 -0.000112586)
(1.55911 -0.720062 -0.000125562)
(1.77177 -0.738231 -5.06528e-05)
(1.92969 -0.658209 1.08991e-05)
(1.97472 -0.518607 3.45298e-05)
(1.91873 -0.370993 0.0001581)
(1.82106 -0.255536 0.000131889)
(1.69866 -0.17093 3.23604e-05)
(1.59738 -0.111471 -9.43161e-06)
(1.52386 -0.0680479 2.57722e-05)
(1.47562 -0.0390361 2.4692e-05)
(1.45356 -0.0188525 -1.95806e-06)
(1.46029 0.00405756 -2.20637e-06)
(1.49213 0.0388274 2.16291e-05)
(1.54138 0.0904661 3.41163e-05)
(1.59791 0.160758 4.5535e-05)
(1.65195 0.249646 5.29368e-05)
(1.69179 0.352404 4.39943e-05)
(1.70574 0.458751 1.93446e-05)
(1.68483 0.554067 -1.24517e-05)
(1.62623 0.623368 -3.82179e-05)
(1.53609 0.657122 -4.83592e-05)
(1.42751 0.654353 -4.16609e-05)
(1.31412 0.621046 -2.575e-05)
(1.20646 0.564699 -1.01452e-05)
(1.11018 0.492491 6.69016e-07)
(1.0253 0.409613 6.02738e-06)
(0.954383 0.31624 1.97512e-06)
(0.893412 0.219555 -5.97419e-06)
(0.82198 0.141106 -1.12972e-05)
(0.72614 0.0895312 -9.41625e-06)
(0.625646 0.0433897 -6.83745e-06)
(0.555025 -0.028114 -3.11875e-06)
(0.535512 -0.131572 -3.56387e-06)
(0.558697 -0.252527 3.74945e-06)
(0.612863 -0.365713 -6.18385e-06)
(0.675151 -0.46243 5.00422e-06)
(0.7441 -0.530509 -9.83143e-06)
(0.799417 -0.581972 -1.75929e-06)
(0.853222 -0.618234 -6.04706e-06)
(0.898246 -0.627653 -2.74453e-05)
(0.937844 -0.657315 1.737e-05)
(1.00635 -0.567538 -2.67321e-05)
(1.03088 -0.586149 4.45995e-05)
(1.13901 -0.334594 5.53208e-05)
(0.99884 -0.0641052 2.7732e-05)
(1.02488 -0.19537 4.13695e-05)
(1.06084 -0.333117 6.84622e-05)
(1.14464 -0.481707 9.9759e-06)
(1.24708 -0.634073 4.53744e-05)
(1.41506 -0.778446 -0.000189312)
(1.65242 -0.911501 -7.0966e-05)
(1.87142 -0.884958 -0.000160639)
(1.93441 -0.791338 5.0078e-05)
(1.84363 -0.538028 -0.00014901)
(1.616 -0.300415 -0.0001091)
(1.35734 -0.149037 -4.25478e-05)
(0.958367 -0.0337687 -8.32631e-06)
(0.875317 -0.0140524 4.3595e-07)
(0.840264 -0.0026206 4.51409e-05)
(0.835037 -0.00682715 1.26763e-06)
(0.864645 -0.0192553 -2.89068e-05)
(0.931796 -0.0227748 2.24239e-06)
(1.02337 -0.00693945 1.9895e-05)
(1.12731 0.0328006 2.65823e-05)
(1.23475 0.100863 5.00061e-05)
(1.33991 0.196428 8.20295e-05)
(1.43271 0.314198 9.2057e-05)
(1.50167 0.44359 7.72079e-05)
(1.53546 0.567891 4.32091e-05)
(1.52598 0.667139 1.34002e-06)
(1.47398 0.725302 -3.12208e-05)
(1.38969 0.737182 -4.36977e-05)
(1.28796 0.708116 -3.81802e-05)
(1.1836 0.647907 -2.48211e-05)
(1.08405 0.5684 -1.30036e-05)
(0.99301 0.476101 -9.56654e-06)
(0.91473 0.374178 -1.74667e-05)
(0.834279 0.281869 -2.55854e-05)
(0.729575 0.220436 -2.37945e-05)
(0.610151 0.175731 -9.66582e-06)
(0.516726 0.108361 2.51498e-06)
(0.477971 -0.00382227 9.73131e-06)
(0.493779 -0.146245 5.46631e-06)
(0.543706 -0.293132 7.15752e-06)
(0.613875 -0.418981 -4.42925e-06)
(0.685774 -0.51788 5.6885e-06)
(0.757945 -0.58154 -6.67806e-06)
(0.814303 -0.624418 4.26469e-07)
(0.861837 -0.65343 -1.47799e-06)
(0.898283 -0.659325 -2.88597e-05)
(0.92366 -0.690406 2.29328e-05)
(0.974358 -0.60397 -3.377e-05)
(0.986931 -0.627357 5.13881e-05)