/*--------------------------------*- C++ -*----------------------------------*\
  =========                 |
  \\      /  F ield         | OpenFOAM: The Open Source CFD Toolbox
   \\    /   O peration     | Website:  https://openfoam.org
    \\  /    A nd           | Version:  8
     \\/     M anipulation  |
\*---------------------------------------------------------------------------*/
FoamFile
{
    version     2.0;
    format      ascii;
    class       volVectorField;
    location    "20";
    object      U;
}
// * * * * * * * * * * * * * * * * * * * * * * * * * * * * * * * * * * * * * //

dimensions      [0 1 -1 0 0 0 0];

internalField   nonuniform List<vector> 
116
(
(0.0111209 -0.00590416 0)
(0.000102422 -0.0114673 0)
(0.0347057 -0.00992972 0)
(-0.00181529 -0.0231067 0)
(0.0357263 0.0295416 0)
(-0.12822 0.096387 0)
(0.00489272 -0.00584763 0)
(-0.0121536 -0.00901485 0)
(-0.00798143 0.00732406 0)
(-0.0505391 0.0289834 0)
(-0.06866 0.0836345 0)
(-0.127222 0.0942433 0)
(0.00108408 0.000496628 0)
(-0.0137454 0.00313128 0)
(-0.0244919 0.0230171 0)
(-0.0494872 0.0456122 0)
(-0.0648196 0.106272 0)
(-0.0852409 0.114538 0)
(-0.00261012 0.00652151 0)
(-0.0155859 0.0183887 0)
(-0.0254376 0.0421713 0)
(-0.0355599 0.0702753 0)
(-0.041823 0.12001 0)
(-0.0353141 0.110044 0)
(-0.000285584 0.0186586 0)
(-0.00975806 0.0264167 0)
(-0.0209605 0.0423657 0)
(-0.017687 0.0603242 0)
(-0.0173406 0.104967 0)
(0.0130444 0.0915026 0)
(-0.0038451 0.0152835 0)
(-0.00516069 0.0384385 0)
(-0.0102354 0.0517143 0)
(-0.00317035 0.0668708 0)
(-0.00176237 0.0959649 0)
(0.0335153 0.0807519 0)
(0.00308747 0.0304646 0)
(-0.00237167 0.032992 0)
(-0.014072 0.0421861 0)
(-0.00206122 0.0468667 0)
(-0.00221988 0.0643308 0)
(0.0409933 0.0505507 0)
(0.00184024 0.0108409 0)
(0.00828244 0.0553751 0)
(0.0125447 0.0530029 0)
(0.0200408 0.0588503 0)
(0.0167536 0.0602867 0)
(0.0475458 0.0530864 0)
(-0.0654422 0.0260655 0)
(-0.0357687 0.0184441 0)
(-0.0560335 0.0297625 0)
(-0.0248964 0.0344787 0)
(-0.0208778 0.0321095 0)
(0.0175075 0.0315466 0)
(0.0518583 0.0987085 0)
(0.0867134 0.0565784 0)
(0.111956 0.0418765 0)
(0.163858 0.0324658 0)
(0.171229 0.0232658 0)
(0.219567 0.0202327 0)
(-0.131184 0.136188 0)
(-0.109385 -0.0400491 0)
(-0.0641656 -0.0407902 0)
(-0.00080387 -0.115641 0)
(-0.115593 0.118746 0)
(-0.0745238 -0.0640617 0)
(-0.099943 -0.0988716 0)
(0.00502403 -0.17296 0)
(-0.0749355 0.0921521 0)
(-0.0226462 -0.0644591 0)
(-0.0652401 -0.112109 0)
(0.00250167 -0.211335 0)
(-0.0313657 0.0711219 0)
(0.0105594 -0.0691887 0)
(-0.0437493 -0.121316 0)
(0.0121586 -0.232153 0)
(0.01585 0.0491308 0)
(0.0408793 -0.0577579 0)
(-0.0266237 -0.11625 0)
(0.0146338 -0.243739 0)
(0.0279481 0.0518012 0)
(0.0561009 -0.0231579 0)
(-0.0183444 -0.08565 0)
(0.0263812 -0.241792 0)
(0.02776 0.0261347 0)
(0.0650144 -0.0243903 0)
(-0.0328492 -0.0944069 0)
(0.031126 -0.249208 0)
(0.0266891 0.0406676 0)
(0.0555557 0.0350099 0)
(-0.0141438 -0.0363289 0)
(0.0535675 -0.22961 0)
(0.0160058 0.0141025 0)
(0.0559953 0.00542396 0)
(0.0471335 -0.0998987 0)
(0.0787475 -0.241342 0)
(0.213568 0.0130143 0)
(0.249818 0.000585222 0)
(0.203926 -0.0230763 0)
(0.153071 -0.0693864 0)
(-0.011357 -0.00227209 0)
(-0.0327258 -0.00529444 0)
(-0.0440939 0.00154636 0)
(-0.0209643 -0.0203303 0)
(-0.013888 0.0474448 0)
(-0.0345239 0.0381998 0)
(-0.0332537 -0.00907625 0)
(-0.0246399 -0.0455882 0)
(-0.0381807 0.0456899 0)
(-0.0276446 0.00502834 0)
(-0.0233567 -0.00415925 0)
(-0.0332595 -0.0861704 0)
(-0.0120144 0.120385 0)
(-0.0847792 0.0262183 0)
(0.0142962 0.000821172 0)
(-0.0376153 -0.0937555 0)
)
;

boundaryField
{
    movingWall
    {
        type            fixedValue;
        value           uniform (1 0 0);
    }
    fixedWalls
    {
        type            noSlip;
    }
    frontAndBack
    {
        type            empty;
    }
}


// ************************************************************************* //
