/*--------------------------------*- C++ -*----------------------------------*\
  =========                 |
  \\      /  F ield         | OpenFOAM: The Open Source CFD Toolbox
   \\    /   O peration     | Website:  https://openfoam.org
    \\  /    A nd           | Version:  8
     \\/     M anipulation  |
\*---------------------------------------------------------------------------*/
FoamFile
{
    version     2.0;
    format      ascii;
    class       volScalarField;
    location    "96";
    object      p;
}
// * * * * * * * * * * * * * * * * * * * * * * * * * * * * * * * * * * * * * //

dimensions      [0 2 -2 0 0 0 0];

internalField   nonuniform List<scalar> 
12504
(
-0.102065
-0.104806
-0.110549
-0.119251
-0.13057
-0.144059
-0.15921
-0.175447
-0.192125
-0.208566
-0.224102
-0.238108
-0.25004
-0.259453
-0.266014
-0.2695
-0.269792
-0.266868
-0.260804
-0.251751
-0.239939
-0.225668
-0.209293
-0.19121
-0.17184
-0.151609
-0.130939
-0.110233
-0.0898815
-0.0702425
-0.0516546
-0.0344217
-0.0188264
-0.00509002
0.00661559
0.0162083
0.0236812
0.0291172
0.032692
0.0345957
0.0351369
0.0344536
0.0329309
0.0304589
0.0275531
0.0236509
0.0196638
0.0142916
0.00936555
0.00233806
-0.10009
-0.102906
-0.108814
-0.117764
-0.129401
-0.143261
-0.158822
-0.175483
-0.192579
-0.20941
-0.22529
-0.239582
-0.251738
-0.261314
-0.267982
-0.271526
-0.271829
-0.268873
-0.262735
-0.253567
-0.241597
-0.227128
-0.21052
-0.192176
-0.172526
-0.152005
-0.131045
-0.110062
-0.089453
-0.0695844
-0.0508015
-0.0334126
-0.017704
-0.00389805
0.00783292
0.0174096
0.0248292
0.0301815
0.0336507
0.0354355
0.0358572
0.0350584
0.033436
0.0308725
0.0279005
0.0239279
0.0199004
0.0144515
0.00949535
0.00234461
-0.0960779
-0.0990533
-0.105296
-0.114749
-0.127034
-0.141655
-0.158049
-0.175577
-0.193524
-0.211148
-0.227725
-0.242596
-0.255201
-0.265102
-0.271981
-0.275635
-0.275959
-0.272939
-0.266652
-0.257249
-0.244959
-0.230088
-0.213007
-0.194131
-0.173909
-0.152797
-0.13125
-0.109702
-0.0885715
-0.0682386
-0.049062
-0.0313603
-0.0154263
-0.00148524
0.0102907
0.0198274
0.027131
0.0323052
0.0355522
0.0370894
0.037262
0.0362292
0.034403
0.0316614
0.0285525
0.0244557
0.0203367
0.0147677
0.00972096
0.00238642
-0.0899166
-0.0931385
-0.0998973
-0.110129
-0.123416
-0.139215
-0.156904
-0.175775
-0.19504
-0.213887
-0.231533
-0.247281
-0.260561
-0.270942
-0.27813
-0.281944
-0.282293
-0.279172
-0.272656
-0.262894
-0.250113
-0.234624
-0.216812
-0.197115
-0.17601
-0.153986
-0.131533
-0.109117
-0.0871864
-0.0661454
-0.0463715
-0.0281978
-0.0119294
0.00220387
0.0140306
0.0234858
0.0305901
0.0354696
0.0383556
0.039496
0.0392713
0.0378669
0.0357321
0.0327302
0.0294267
0.0251589
0.0209197
0.0151928
0.0100271
0.00244434
-0.0814277
-0.084992
-0.0924673
-0.103781
-0.118465
-0.135908
-0.155406
-0.176153
-0.197257
-0.2178
-0.236915
-0.253853
-0.268031
-0.279041
-0.286624
-0.290635
-0.291009
-0.287746
-0.280916
-0.27066
-0.257203
-0.240861
-0.222035
-0.201197
-0.178864
-0.155574
-0.131864
-0.108249
-0.0852158
-0.063206
-0.0426212
-0.0238149
-0.00710985
0.0072576
0.0191179
0.0284196
0.0352055
0.0396366
0.0419853
0.0425471
0.0417497
0.0398092
0.0372596
0.0339241
0.0303839
0.0259185
0.0215562
0.0156597
0.0103773
0.00250062
-0.0703637
-0.0743786
-0.082796
-0.095535
-0.112066
-0.131688
-0.153591
-0.176833
-0.200374
-0.223148
-0.244172
-0.262627
-0.277922
-0.289689
-0.297734
-0.301968
-0.302357
-0.298905
-0.291671
-0.28078
-0.266443
-0.248981
-0.228821
-0.206475
-0.18252
-0.157558
-0.132196
-0.107008
-0.0825381
-0.0592727
-0.0376499
-0.0180505
-0.000818776
0.0138001
0.0256394
0.0346672
0.0409592
0.0447279
0.0463052
0.0460527
0.0444655
0.0418036
0.0387431
0.0350062
0.0312068
0.0265511
0.0221032
0.0160673
0.0107133
0.00253278
-0.0563996
-0.0609893
-0.0706073
-0.0851698
-0.104073
-0.126505
-0.151519
-0.177994
-0.204681
-0.230313
-0.253737
-0.274048
-0.290661
-0.303285
-0.311831
-0.316293
-0.316678
-0.312988
-0.305258
-0.293574
-0.27813
-0.259244
-0.237373
-0.213088
-0.187044
-0.159935
-0.132456
-0.105266
-0.0789802
-0.0541381
-0.0312319
-0.0106794
0.00714862
0.0219966
0.0337016
0.04226
0.0477953
0.0505942
0.051081
0.0497067
0.0470554
0.043409
0.0397895
0.0356074
0.0315686
0.0267843
0.0223509
0.0162687
0.0109511
0.00250968
-0.0391217
-0.0444306
-0.055548
-0.0724007
-0.094297
-0.120302
-0.149293
-0.179906
-0.210609
-0.239844
-0.266225
-0.288738
-0.306834
-0.320362
-0.329402
-0.334072
-0.334427
-0.330455
-0.322134
-0.309493
-0.29268
-0.27201
-0.247977
-0.221228
-0.192529
-0.162695
-0.132543
-0.102839
-0.0742921
-0.0475171
-0.0230628
-0.00139683
0.0170685
0.0320618
0.0434276
0.0512031
0.055585
0.0569677
0.0559153
0.0530173
0.0489814
0.0439523
0.0398103
0.0351713
0.0309815
0.0262197
0.0219978
0.0160562
0.0109727
0.00238899
-0.0180138
-0.0242111
-0.0371738
-0.0568708
-0.0825087
-0.113024
-0.147073
-0.182969
-0.218787
-0.252544
-0.282516
-0.30756
-0.327227
-0.341617
-0.35108
-0.35591
-0.356209
-0.351922
-0.342929
-0.329154
-0.310675
-0.287788
-0.261031
-0.231162
-0.199097
-0.165821
-0.13231
-0.099473
-0.0681335
-0.0390088
-0.0127135
0.0102146
0.0293048
0.0442635
0.0549475
0.0614511
0.0640819
0.0633945
0.0601546
0.0551877
0.0494941
0.0438283
0.0380302
0.0328711
0.0287312
0.0242847
0.020618
0.0151416
0.0106167
0.0021147
0.00755886
0.000275833
-0.0149319
-0.0381354
-0.068422
-0.104625
-0.145118
-0.187782
-0.230144
-0.269586
-0.303881
-0.33173
-0.35291
-0.367965
-0.377678
-0.382586
-0.382823
-0.378231
-0.368516
-0.35343
-0.332936
-0.307291
-0.277097
-0.243262
-0.206919
-0.169286
-0.131557
-0.0948222
-0.0600464
-0.0280626
0.00039861
0.0247054
0.0443222
0.0589233
0.0683839
0.0728817
0.0728873
0.0691848
0.062834
0.0549699
0.0468521
0.0392779
0.0327589
0.0274368
0.0237793
0.0201707
0.0176218
0.0131337
0.0096659
0.00161506
0.0383666
0.029772
0.011863
-0.0156398
-0.0516828
-0.0950889
-0.143846
-0.195263
-0.246076
-0.292694
-0.332149
-0.362963
-0.385344
-0.400613
-0.410245
-0.415104
-0.415322
-0.410522
-0.400108
-0.383555
-0.360637
-0.331548
-0.296976
-0.258058
-0.216238
-0.173061
-0.130014
-0.0884276
-0.0494325
-0.0139879
0.01699
0.0427463
0.0626734
0.0764037
0.0838536
0.0853221
0.0815121
0.0735168
0.0628008
0.0509164
0.0395193
0.0297269
0.0223503
0.0172528
0.0147467
0.0127935
0.0122219
0.00951607
0.00783612
0.000801645
0.0753325
0.0651787
0.0440563
0.0113151
-0.0318384
-0.0844433
-0.143927
-0.206893
-0.268794
-0.32448
-0.369952
-0.403608
-0.42646
-0.441122
-0.450135
-0.454776
-0.455101
-0.450334
-0.439376
-0.421269
-0.395466
-0.362046
-0.321835
-0.276325
-0.227422
-0.177143
-0.127369
-0.0797309
-0.0355628
0.00400123
0.0378586
0.0650667
0.0849444
0.0970947
0.101541
0.0987599
0.0897535
0.0759689
0.0593457
0.0419779
0.0261021
0.0133517
0.00489144
0.000444053
-3.56451e-05
0.000806558
0.0034273
0.00363977
0.00476985
-0.000428231
0.119543
0.107583
0.0826832
0.0436252
-0.00829837
-0.0727592
-0.146359
-0.224999
-0.301938
-0.369195
-0.42128
-0.45686
-0.478612
-0.491294
-0.498921
-0.50323
-0.504015
-0.499775
-0.488634
-0.468991
-0.439786
-0.400895
-0.353357
-0.299213
-0.241077
-0.181647
-0.123349
-0.0681966
-0.0177616
0.0266674
0.0637117
0.0922478
0.111551
0.121316
0.121798
0.113709
0.0983508
0.0774579
0.0534072
0.0288968
0.00688337
-0.0102046
-0.0206762
-0.024485
-0.0221605
-0.0172109
-0.00987026
-0.00524136
4.69593e-05
-0.00218324
0.172248
0.158283
0.128998
0.082455
0.0196827
-0.0601804
-0.152631
-0.253059
-0.351203
-0.433865
-0.492721
-0.527462
-0.5446
-0.552785
-0.557847
-0.56177
-0.563895
-0.561302
-0.550886
-0.530022
-0.496865
-0.451027
-0.393918
-0.328429
-0.258232
-0.187025
-0.11798
-0.0536099
0.00420756
0.0540983
0.0944568
0.124029
0.142068
0.148701
0.144641
0.13086
0.10885
0.0804024
0.0480982
0.0150516
-0.0150122
-0.0388569
-0.0529325
-0.0573067
-0.0522599
-0.0422405
-0.0286284
-0.0178454
-0.00676607
-0.00456028
0.234841
0.218807
0.184529
0.129346
0.0529739
-0.0470801
-0.165453
-0.296927
-0.424767
-0.528595
-0.594176
-0.622301
-0.627626
-0.626379
-0.626763
-0.630071
-0.634815
-0.635929
-0.628427
-0.60769
-0.570485
-0.516111
-0.446656
-0.366392
-0.280612
-0.194453
-0.112112
-0.0367115
0.029481
0.0849007
0.128096
0.15793
0.173789
0.176587
0.167778
0.148651
0.120819
0.0858492
0.0461087
0.00456354
-0.0345183
-0.0668197
-0.0875506
-0.0951
-0.0889
-0.0739924
-0.0531499
-0.0346065
-0.0160073
-0.00761815
0.308819
0.290888
0.251238
0.186431
0.0926994
-0.0343089
-0.190293
-0.36915
-0.535266
-0.664428
-0.734119
-0.746038
-0.72834
-0.709707
-0.701609
-0.703525
-0.712058
-0.71998
-0.719388
-0.702045
-0.662397
-0.599039
-0.514883
-0.416248
-0.310981
-0.206441
-0.108294
-0.0203852
0.0546552
0.114922
0.159674
0.187476
0.199736
0.19777
0.184072
0.16055
0.128879
0.0900288
0.0456173
-0.00219163
-0.0492449
-0.0905938
-0.119998
-0.133362
-0.128654
-0.110464
-0.0825878
-0.0553357
-0.0277463
-0.0113453
0.395669
0.376372
0.331805
0.256928
0.141202
-0.0229235
-0.236452
-0.491702
-0.708964
-0.852701
-0.909006
-0.888172
-0.835375
-0.790652
-0.768235
-0.766223
-0.779145
-0.798442
-0.810729
-0.802852
-0.765874
-0.696669
-0.598535
-0.480218
-0.353037
-0.227627
-0.111987
-0.0111456
0.0718659
0.135154
0.178199
0.201877
0.208041
0.200521
0.182831
0.157205
0.124902
0.0859966
0.0410573
-0.00906332
-0.0609161
-0.109581
-0.14737
-0.1683
-0.167626
-0.148554
-0.114988
-0.0790669
-0.0416432
-0.0156385
0.496507
0.476962
0.429793
0.345882
0.20465
-0.0107955
-0.318953
-0.679992
-0.89338
-1.03442
-1.05732
-0.994192
-0.907819
-0.838302
-0.802793
-0.796474
-0.817574
-0.850151
-0.878803
-0.886498
-0.860105
-0.793131
-0.687713
-0.554221
-0.407681
-0.262929
-0.131135
-0.0192323
0.0689244
0.131703
0.169717
0.18639
0.186825
0.175831
0.157447
0.133386
0.104151
0.0690635
0.0277947
-0.0202137
-0.0726521
-0.125333
-0.169667
-0.198052
-0.202815
-0.185105
-0.147828
-0.104215
-0.0569465
-0.0203075
0.611325
0.59372
0.549011
0.46031
0.296395
0.0153654
-0.349861
-0.785581
-1.11919
-1.23415
-1.21667
-1.07328
-0.936864
-0.855373
-0.800539
-0.794049
-0.821424
-0.86765
-0.912231
-0.936881
-0.925904
-0.869229
-0.766357
-0.627542
-0.47027
-0.313241
-0.171155
-0.0534264
0.0349545
0.0933208
0.124631
0.13535
0.133301
0.123671
0.109538
0.0913327
0.0685461
0.0401132
0.00537897
-0.037104
-0.0863024
-0.139361
-0.18749
-0.221947
-0.232323
-0.21753
-0.17858
-0.128892
-0.0726076
-0.0250941
0.73805
0.726208
0.691271
0.608897
0.43544
0.123545
-0.348668
-0.84567
-1.2163
-0.951284
-0.8557
-0.803906
-0.790505
-0.819762
-0.868985
-0.921352
-0.957765
-0.960591
-0.917024
-0.82389
-0.689943
-0.533117
-0.374651
-0.23182
-0.116116
-0.033527
0.0176225
0.043043
0.0519167
0.0530021
0.051134
0.0467598
0.0384968
0.0247437
0.0044123
-0.0227606
-0.0581565
-0.101695
-0.152121
-0.201213
-0.239743
-0.25506
-0.243951
-0.205064
-0.151218
-0.0874489
-0.0296936
0.871949
0.870824
0.853898
0.800392
0.631859
0.28519
-0.242379
-0.850264
-0.804613
-0.785362
-0.809637
-0.856138
-0.909319
-0.950776
-0.962911
-0.931783
-0.852523
-0.731976
-0.586302
-0.438319
-0.305823
-0.200771
-0.130458
-0.0879262
-0.0658953
-0.054133
-0.0438533
-0.0327872
-0.0229869
-0.0179972
-0.0206409
-0.0320321
-0.0516424
-0.0798922
-0.116949
-0.162873
-0.210628
-0.251208
-0.270351
-0.263078
-0.225587
-0.169552
-0.100327
-0.0337797
1.0056
1.01856
1.03224
1.0239
0.883544
0.541449
-0.808668
-0.774681
-0.784976
-0.825252
-0.873733
-0.914554
-0.931293
-0.910534
-0.847031
-0.746499
-0.619692
-0.493364
-0.382185
-0.297446
-0.242543
-0.210388
-0.189658
-0.173362
-0.149715
-0.122442
-0.0955868
-0.0748093
-0.0643244
-0.0656178
-0.0774727
-0.0989037
-0.129574
-0.170182
-0.215049
-0.255923
-0.277715
-0.274069
-0.23896
-0.182619
-0.110261
-0.0370345
1.12749
1.15708
1.20681
1.25539
1.16511
0.89376
-0.749342
-0.742422
-0.77385
-0.814402
-0.850229
-0.867526
-0.85452
-0.806534
-0.727914
-0.630586
-0.533812
-0.452368
-0.394456
-0.359438
-0.338322
-0.319384
-0.29453
-0.25794
-0.213385
-0.168114
-0.130094
-0.104992
-0.09494
-0.0984136
-0.113073
-0.137602
-0.172666
-0.213742
-0.25353
-0.276881
-0.276499
-0.244496
-0.189577
-0.116514
-0.0391837
1.22508
1.26961
1.35417
1.4602
1.44239
1.29492
-0.721362
-0.682758
-0.706222
-0.737468
-0.765274
-0.779818
-0.772072
-0.738985
-0.684823
-0.620267
-0.559525
-0.513378
-0.485473
-0.47145
-0.461091
-0.443044
-0.410872
-0.360959
-0.299079
-0.23545
-0.180372
-0.140691
-0.118989
-0.113705
-0.121521
-0.140048
-0.169538
-0.206334
-0.244022
-0.268006
-0.270411
-0.242025
-0.190049
-0.118653
-0.0400271
1.28664
1.34061
1.44768
1.59043
1.65337
-0.640857
-0.615625
-0.631835
-0.65284
-0.67135
-0.681235
-0.677303
-0.658758
-0.629988
-0.599418
-0.576128
-0.565408
-0.565813
-0.570467
-0.569261
-0.55236
-0.512376
-0.449731
-0.371757
-0.291403
-0.22119
-0.168755
-0.136586
-0.123018
-0.124194
-0.136871
-0.160803
-0.193019
-0.227869
-0.251688
-0.256341
-0.231894
-0.184135
-0.116569
-0.0394629
1.30499
1.36026
1.47046
1.61944
1.72871
-0.555771
-0.551205
-0.5609
-0.571797
-0.580974
-0.585889
-0.585401
-0.580953
-0.576661
-0.577847
-0.588219
-0.607985
-0.630947
-0.649527
-0.654164
-0.636416
-0.590321
-0.516881
-0.425509
-0.33153
-0.249365
-0.187176
-0.146887
-0.126404
-0.121603
-0.128748
-0.147191
-0.174593
-0.206033
-0.229003
-0.235337
-0.214947
-0.172383
-0.110477
-0.037502
1.27915
1.32728
1.42064
1.54342
1.65419
-0.498269
-0.4976
-0.500481
-0.501941
-0.502666
-0.503643
-0.506917
-0.515488
-0.532538
-0.559993
-0.596243
-0.639164
-0.676925
-0.703855
-0.711245
-0.691707
-0.640164
-0.558294
-0.457096
-0.35364
-0.263559
-0.195201
-0.149718
-0.124309
-0.114637
-0.116807
-0.129944
-0.152358
-0.179897
-0.201381
-0.208716
-0.192485
-0.155747
-0.100882
-0.0342641
1.21501
1.24985
1.31259
1.38518
1.45372
1.40958
-0.459684
-0.45653
-0.451812
-0.44503
-0.439276
-0.438052
-0.445463
-0.465109
-0.498715
-0.545375
-0.599747
-0.654978
-0.701441
-0.73224
-0.739418
-0.717302
-0.661017
-0.573003
-0.465727
-0.357444
-0.26402
-0.193335
-0.145686
-0.117561
-0.104406
-0.102379
-0.110549
-0.127906
-0.151174
-0.170611
-0.178575
-0.16617
-0.135478
-0.0885202
-0.0299627
1.123
1.14218
1.17077
1.18956
1.20874
1.07455
-0.435506
-0.423667
-0.411851
-0.398753
-0.389056
-0.38755
-0.399196
-0.427411
-0.472448
-0.530682
-0.594829
-0.655975
-0.705111
-0.735071
-0.740889
-0.715452
-0.654838
-0.562688
-0.453002
-0.344598
-0.252464
-0.183181
-0.136117
-0.107314
-0.0921053
-0.0867964
-0.0904998
-0.102866
-0.121621
-0.138554
-0.146598
-0.137669
-0.112952
-0.0742832
-0.0248803
1.01505
1.02021
1.01839
0.991454
0.965414
0.6831
0.366139
-0.4248
-0.419722
-0.396025
-0.377369
-0.359782
-0.34866
-0.348628
-0.364406
-0.398583
-0.450097
-0.513768
-0.581247
-0.643177
-0.691177
-0.718543
-0.720198
-0.690081
-0.625098
-0.530718
-0.422345
-0.318351
-0.231708
-0.167028
-0.12275
-0.0948665
-0.078859
-0.0712188
-0.0711005
-0.0787197
-0.09286
-0.106935
-0.114606
-0.108681
-0.0895768
-0.0591073
-0.0193295
0.902477
0.896484
0.875139
0.816366
0.679733
0.478476
0.0155821
-0.371989
-0.466062
-0.431536
-0.399019
-0.372997
-0.347531
-0.327354
-0.316439
-0.318926
-0.338433
-0.376325
-0.430409
-0.494794
-0.561017
-0.619998
-0.663669
-0.685983
-0.681409
-0.644989
-0.575679
-0.481453
-0.378397
-0.282979
-0.205183
-0.147421
-0.107411
-0.0814912
-0.06562
-0.0565315
-0.0533439
-0.056657
-0.0662544
-0.0772347
-0.0841246
-0.0806645
-0.0666204
-0.0438953
-0.0136248
0.792958
0.780427
0.747253
0.677862
0.543226
0.3038
-0.0179638
-0.488756
-0.734913
-0.665547
-0.537794
-0.474162
-0.421728
-0.388503
-0.354855
-0.324878
-0.303507
-0.293729
-0.298885
-0.321258
-0.360849
-0.41449
-0.476114
-0.537501
-0.590122
-0.626433
-0.640353
-0.626966
-0.583079
-0.510766
-0.420249
-0.326726
-0.243258
-0.176407
-0.126757
-0.0917266
-0.0682825
-0.0531245
-0.0433272
-0.0378701
-0.037502
-0.0428165
-0.0505868
-0.0563515
-0.0547868
-0.045125
-0.0294266
-0.00805062
0.691748
0.676366
0.638668
0.569849
0.450987
0.264894
-0.0056852
-0.325401
-0.609397
-0.750141
-0.722684
-0.617774
-0.504959
-0.449018
-0.413296
-0.37971
-0.343765
-0.312514
-0.291155
-0.28308
-0.290361
-0.314016
-0.352909
-0.403049
-0.458417
-0.511221
-0.553567
-0.578693
-0.581239
-0.55759
-0.507414
-0.435846
-0.353698
-0.273366
-0.203747
-0.148407
-0.106916
-0.0768887
-0.0560321
-0.0418676
-0.0319251
-0.0249842
-0.0217071
-0.0231953
-0.0277712
-0.0321311
-0.0318975
-0.0258607
-0.0163178
-0.0028471
0.601491
0.585528
0.548476
0.485258
0.386062
0.243036
0.0548188
-0.171183
-0.362666
-0.486069
-0.529023
-0.503407
-0.452876
-0.411243
-0.382191
-0.355525
-0.327047
-0.301792
-0.285116
-0.280337
-0.289273
-0.312254
-0.347567
-0.390458
-0.435488
-0.475792
-0.504903
-0.516784
-0.507436
-0.475716
-0.424014
-0.358782
-0.289204
-0.223844
-0.167965
-0.123247
-0.0890764
-0.0636008
-0.0452034
-0.0321203
-0.0224218
-0.0147062
-0.00937667
-0.00769013
-0.00924325
-0.011979
-0.0125386
-0.00934438
-0.00502154
0.00178968
0.522766
0.507495
0.473672
0.417874
0.336336
0.22474
0.0864809
-0.0725541
-0.219873
-0.332196
-0.389292
-0.394413
-0.374571
-0.353809
-0.337806
-0.322104
-0.304303
-0.287821
-0.277357
-0.27604
-0.285306
-0.305114
-0.334404
-0.36624
-0.398693
-0.425478
-0.441077
-0.441229
-0.423985
-0.390112
-0.343093
-0.288605
-0.233079
-0.181783
-0.137739
-0.101843
-0.0737387
-0.0521516
-0.0359825
-0.0239723
-0.0147511
-0.00684034
-0.000309628
0.00373904
0.0048488
0.00385845
0.00299148
0.00411029
0.00414392
0.00568937
0.454985
0.441066
0.411269
0.363057
0.29579
0.207134
0.1015
-0.0160804
-0.130071
-0.221377
-0.277176
-0.298896
-0.300464
-0.295806
-0.290455
-0.283804
-0.275147
-0.266608
-0.261602
-0.262722
-0.270898
-0.285579
-0.304899
-0.328781
-0.349939
-0.36492
-0.370267
-0.363527
-0.344084
-0.313346
-0.274387
-0.231247
-0.18804
-0.148039
-0.113206
-0.0841958
-0.0609255
-0.0425565
-0.0283597
-0.0173789
-0.00874854
-0.00105372
0.00592565
0.0114476
0.0146629
0.0153752
0.0146275
0.0143967
0.0110181
0.00871186
0.397086
0.38479
0.358955
0.317796
0.261914
0.190539
0.107453
0.0170358
-0.0711713
-0.144899
-0.196556
-0.226073
-0.2397
-0.245181
-0.247191
-0.246939
-0.244707
-0.241864
-0.240652
-0.242954
-0.249408
-0.259804
-0.273137
-0.287864
-0.299813
-0.306493
-0.305791
-0.296344
-0.278078
-0.252222
-0.220969
-0.187046
-0.153191
-0.121599
-0.0936679
-0.0699232
-0.0504472
-0.0346948
-0.0222117
-0.0122068
-0.00420752
0.00303395
0.00988168
0.0160366
0.0206807
0.0227931
0.022503
0.0216043
0.015681
0.0107991
0.347902
0.337245
0.315011
0.280093
0.233425
0.175307
0.108653
0.0372681
-0.0326038
-0.0935415
-0.14049
-0.172336
-0.191745
-0.203171
-0.210169
-0.21438
-0.216494
-0.217471
-0.218772
-0.221683
-0.226741
-0.233932
-0.24235
-0.250522
-0.25625
-0.257883
-0.254066
-0.243986
-0.227689
-0.206094
-0.180781
-0.15366
-0.126609
-0.101146
-0.0783109
-0.058545
-0.0420195
-0.028373
-0.0173562
-0.00826938
-0.000908499
0.00578301
0.0121276
0.01821
0.0232112
0.026548
0.0269056
0.025914
0.0184317
0.0119889
0.306295
0.297149
0.278087
0.248514
0.209368
0.161502
0.107154
0.0494301
-0.00747702
-0.0587923
-0.100844
-0.132259
-0.154128
-0.169022
-0.179395
-0.186722
-0.191782
-0.195323
-0.198326
-0.201665
-0.205791
-0.210645
-0.215601
-0.219659
-0.221611
-0.220308
-0.214845
-0.20476
-0.190185
-0.171842
-0.150877
-0.128634
-0.106438
-0.0853916
-0.0663023
-0.0495433
-0.0353168
-0.0233692
-0.0135945
-0.00535974
0.00136883
0.00750093
0.0131948
0.0188401
0.0238127
0.0275012
0.0283424
0.0275701
0.019592
0.0123271
0.27122
0.263398
0.247073
0.221978
0.18897
0.149083
0.104082
0.0564007
0.00902786
-0.0347403
-0.0722055
-0.102099
-0.124754
-0.141579
-0.154147
-0.163605
-0.170672
-0.175963
-0.180161
-0.183872
-0.18744
-0.19082
-0.19361
-0.195225
-0.194866
-0.191774
-0.185406
-0.175546
-0.162365
-0.146427
-0.128573
-0.109793
-0.0910712
-0.0732405
-0.0569346
-0.0424667
-0.0300396
-0.0194683
-0.0107369
-0.00327754
0.00284108
0.00843877
0.0134611
0.0185105
0.0229739
0.0265891
0.0275728
0.0270468
0.0193898
0.0118651
0.241753
0.235056
0.221052
0.19966
0.17164
0.138014
0.100208
0.0601222
0.0199922
-0.0178071
-0.0512798
-0.0793244
-0.101871
-0.119614
-0.133507
-0.144374
-0.152814
-0.159323
-0.164391
-0.168446
-0.171741
-0.174269
-0.175778
-0.175901
-0.174125
-0.16999
-0.163193
-0.153659
-0.141573
-0.127396
-0.111786
-0.0955063
-0.0793128
-0.063854
-0.0496366
-0.0369285
-0.0259179
-0.0164685
-0.00861019
-0.00184434
0.00370473
0.00880265
0.0131972
0.0176527
0.0214103
0.0247314
0.0255164
0.0251552
0.0181251
0.0108505
0.217101
0.211342
0.199279
0.180921
0.15694
0.128261
0.0960595
0.0618306
0.0272923
-0.00578593
-0.035887
-0.0620563
-0.0840145
-0.102031
-0.116647
-0.128414
-0.13779
-0.145157
-0.150872
-0.15524
-0.158444
-0.160499
-0.16126
-0.160497
-0.1579
-0.153202
-0.146252
-0.137064
-0.125841
-0.112984
-0.0990304
-0.084591
-0.0702672
-0.0565832
-0.0439532
-0.0326111
-0.0227234
-0.0141928
-0.00706334
-0.000908793
0.00412661
0.00876178
0.0126012
0.0165413
0.019582
0.0225756
0.0229653
0.0227688
0.0162841
0.00973848
0.1966
0.19161
0.181149
0.165259
0.144532
0.119777
0.0919685
0.0622999
0.0321175
0.00278665
-0.0244974
-0.0489034
-0.070053
-0.0879683
-0.102914
-0.115229
-0.125231
-0.133203
-0.139399
-0.144037
-0.14725
-0.149068
-0.149413
-0.148151
-0.145102
-0.140128
-0.13318
-0.124335
-0.113811
-0.101968
-0.0892611
-0.0762004
-0.0632822
-0.0509447
-0.0395346
-0.0292606
-0.0202676
-0.0124896
-0.00596759
-0.000344446
0.00424111
0.00845484
0.0118216
0.015336
0.0177503
0.0204687
0.0204188
0.0204649
0.0143386
0.00886094
0.179697
0.175333
0.166176
0.152277
0.134155
0.112505
0.0881438
0.0620376
0.0352648
0.00891486
-0.0160394
-0.0388683
-0.0591538
-0.0767715
-0.0918012
-0.104421
-0.11483
-0.123221
-0.129772
-0.134635
-0.137909
-0.139628
-0.139761
-0.138235
-0.134959
-0.129881
-0.123022
-0.114504
-0.104552
-0.0934993
-0.0817459
-0.0697329
-0.0578841
-0.0465776
-0.0361114
-0.0266759
-0.0183968
-0.0112332
-0.0052154
-4.65939e-05
0.00415394
0.00799326
0.0109697
0.0141306
0.0160491
0.0185482
0.0181209
0.0184548
0.0125585
0.00823852
0.165946
0.162081
0.153969
0.141657
0.125597
0.106388
0.0847195
0.0613885
0.03728
0.01329
-0.00976615
-0.0312396
-0.0507008
-0.067938
-0.0829088
-0.0956723
-0.106333
-0.115009
-0.121818
-0.126864
-0.130219
-0.131919
-0.131958
-0.130308
-0.126939
-0.121856
-0.11513
-0.106909
-0.0974245
-0.0869909
-0.0759718
-0.0647599
-0.0537287
-0.0432138
-0.0334788
-0.0246999
-0.0169886
-0.0103214
-0.00471823
7.02327e-05
0.00394773
0.00746366
0.0101266
0.0129889
0.0145437
0.0168527
0.0161657
0.0167408
0.0110484
0.00773761
0.154985
0.151512
0.14422
0.133148
0.118694
0.101376
0.0817824
0.0605884
0.0385381
0.0163898
-0.00515306
-0.0255039
-0.0442343
-0.0610812
-0.0759213
-0.0887294
-0.0995367
-0.108402
-0.115396
-0.120586
-0.124023
-0.125742
-0.125755
-0.124063
-0.120675
-0.115639
-0.109055
-0.101092
-0.0919847
-0.0820339
-0.0715778
-0.0609757
-0.0505664
-0.0406554
-0.0314822
-0.0232119
-0.015946
-0.00967271
-0.00440428
7.42237e-05
0.00368703
0.00693279
0.00935055
0.0119608
0.0132653
0.0153949
0.014573
0.0152825
0.00983939
0.00726113
0.146531
0.143357
0.136688
0.126557
0.113315
0.0974212
0.0793874
0.059798
0.0392973
0.0185467
-0.00182917
-0.0212902
-0.0394142
-0.055908
-0.0705962
-0.0833946
-0.0942806
-0.103268
-0.110391
-0.11569
-0.119199
-0.120953
-0.120974
-0.119281
-0.115913
-0.110942
-0.10449
-0.0967396
-0.0879268
-0.0783436
-0.0683103
-0.0581632
-0.0482176
-0.0387576
-0.030006
-0.0221198
-0.0151941
-0.00922381
-0.00421677
1.84717e-05
0.00342212
0.00645184
0.00868416
0.0110874
0.0122288
0.0141911
0.0133299
0.0140715
0.00892393
0.00679884
0.140369
0.13741
0.13119
0.121735
0.109364
0.0944887
0.0775689
0.0591256
0.0397345
0.0199907
0.000465213
-0.0183347
-0.0359938
-0.0522022
-0.0667515
-0.0795183
-0.0904421
-0.0995044
-0.106713
-0.112089
-0.115657
-0.117446
-0.117487
-0.115812
-0.112475
-0.107567
-0.101224
-0.0936362
-0.0850409
-0.0757236
-0.0659933
-0.0561705
-0.0465549
-0.0374161
-0.0289662
-0.0213559
-0.0146764
-0.00892673
-0.00411235
-5.68632e-05
0.00319125
0.00605914
0.00815837
0.0104023
0.0114428
0.0132628
0.012415
0.0131289
0.00827258
0.00639176
0.136345
0.133523
0.127594
0.118577
0.106768
0.0925491
0.0763469
0.0586418
0.0399667
0.0208754
0.00190538
-0.0164571
-0.0338024
-0.0498118
-0.0642575
-0.076992
-0.0879312
-0.0970359
-0.104297
-0.109723
-0.113331
-0.115148
-0.115207
-0.113551
-0.110242
-0.105383
-0.0991172
-0.0916389
-0.0831871
-0.074043
-0.0645084
-0.0548945
-0.0454911
-0.036559
-0.0283037
-0.0208718
-0.0143527
-0.00874707
-0.00405961
-0.000122799
0.00302222
0.00578217
0.00779557
0.00993103
0.0109144
0.0126301
0.011813
0.0124795
0.00785804
0.00608083
0.13436
0.131604
0.125818
0.117016
0.105482
0.0915847
0.0757335
0.0583899
0.0400657
0.0212951
0.00259923
-0.0155458
-0.0327334
-0.0486409
-0.0630317
-0.0757471
-0.0866912
-0.0958147
-0.1031
-0.10855
-0.112179
-0.114011
-0.114081
-0.112436
-0.109144
-0.104311
-0.0980844
-0.0906613
-0.0822809
-0.0732223
-0.0637838
-0.0542721
-0.0449726
-0.0361417
-0.0279818
-0.0206375
-0.0141972
-0.00866285
-0.00403795
-0.0001608
0.00293442
0.00563789
0.00761371
0.00968673
0.0106566
0.0122989
0.01153
0.0121238
0.00768313
0.00586555
-0.102065
-0.104802
-0.110547
-0.11925
-0.13057
-0.144058
-0.15921
-0.175447
-0.192126
-0.208568
-0.224103
-0.238109
-0.250041
-0.259454
-0.266015
-0.269501
-0.269792
-0.266869
-0.260805
-0.251752
-0.23994
-0.225668
-0.209293
-0.19121
-0.17184
-0.151609
-0.130938
-0.110233
-0.089881
-0.0702419
-0.051654
-0.0344209
-0.0188258
-0.00508937
0.00661591
0.0162085
0.0236811
0.029117
0.0326917
0.0345949
0.0351368
0.0344522
0.0329319
0.0304559
0.0275568
0.0236448
0.019673
0.0142783
0.00938627
0.00230945
-0.10009
-0.102903
-0.108812
-0.117763
-0.1294
-0.143261
-0.158822
-0.175483
-0.19258
-0.209411
-0.225291
-0.239584
-0.251739
-0.261315
-0.267983
-0.271527
-0.271829
-0.268874
-0.262736
-0.253568
-0.241598
-0.227129
-0.21052
-0.192176
-0.172526
-0.152004
-0.131045
-0.110062
-0.0894524
-0.0695838
-0.0508008
-0.0334118
-0.0177034
-0.00389742
0.00783325
0.0174099
0.0248292
0.0301813
0.0336504
0.0354347
0.0358571
0.035057
0.033437
0.0308695
0.0279041
0.0239219
0.0199095
0.0144382
0.00951574
0.00231594
-0.0960785
-0.0990498
-0.105293
-0.114749
-0.127034
-0.141654
-0.15805
-0.175578
-0.193525
-0.21115
-0.227727
-0.242597
-0.255202
-0.265103
-0.271982
-0.275636
-0.27596
-0.27294
-0.266653
-0.25725
-0.24496
-0.230089
-0.213007
-0.194131
-0.173908
-0.152796
-0.131249
-0.109702
-0.0885709
-0.0682379
-0.0490613
-0.0313595
-0.0154257
-0.00148461
0.010291
0.0198276
0.0271309
0.0323049
0.0355518
0.0370885
0.037262
0.0362278
0.0344039
0.0316582
0.0285561
0.0244495
0.0203459
0.0147539
0.00974178
0.002357
-0.0899172
-0.0931348
-0.0998947
-0.110128
-0.123416
-0.139215
-0.156904
-0.175776
-0.195042
-0.213889
-0.231535
-0.247283
-0.260562
-0.270943
-0.278131
-0.281944
-0.282294
-0.279173
-0.272658
-0.262895
-0.250113
-0.234625
-0.216812
-0.197115
-0.176009
-0.153986
-0.131533
-0.109117
-0.0871858
-0.0661447
-0.0463707
-0.0281969
-0.0119287
0.00220448
0.0140309
0.023486
0.0305897
0.035469
0.038355
0.0394949
0.0392712
0.0378656
0.0357328
0.0327267
0.0294303
0.0251523
0.0209292
0.0151784
0.0100491
0.00241365
-0.0814283
-0.0849879
-0.0924643
-0.10378
-0.118465
-0.135907
-0.155406
-0.176155
-0.197259
-0.217802
-0.236917
-0.253855
-0.268033
-0.279042
-0.286624
-0.290636
-0.29101
-0.287747
-0.280917
-0.270662
-0.257204
-0.240861
-0.222035
-0.201197
-0.178863
-0.155573
-0.131864
-0.108248
-0.0852152
-0.0632053
-0.0426204
-0.0238139
-0.00710918
0.0072582
0.0191181
0.0284196
0.0352049
0.0396357
0.0419843
0.0425456
0.0417489
0.039807
0.03726
0.0339203
0.0303876
0.0259114
0.0215662
0.0156446
0.0104009
0.00246815
-0.0703644
-0.0743739
-0.0827926
-0.0955341
-0.112066
-0.131688
-0.153591
-0.176835
-0.200376
-0.223152
-0.244175
-0.262629
-0.277923
-0.28969
-0.297735
-0.301969
-0.302358
-0.298906
-0.291673
-0.280781
-0.266444
-0.248982
-0.228821
-0.206475
-0.182519
-0.157558
-0.132195
-0.107007
-0.0825374
-0.059272
-0.0376489
-0.0180493
-0.000818028
0.0138006
0.0256394
0.0346669
0.0409582
0.0447266
0.0463038
0.0460507
0.0444645
0.0418022
0.0387436
0.0350019
0.0312107
0.0265434
0.0221139
0.0160512
0.0107389
0.00249793
-0.0564004
-0.060984
-0.0706034
-0.0851687
-0.104072
-0.126505
-0.151521
-0.177997
-0.204686
-0.230318
-0.253741
-0.274051
-0.290663
-0.303286
-0.311831
-0.316294
-0.316679
-0.31299
-0.30526
-0.293577
-0.278131
-0.259245
-0.237373
-0.213088
-0.187044
-0.159934
-0.132455
-0.105265
-0.0789791
-0.054137
-0.0312306
-0.010678
0.00714943
0.0219971
0.0337014
0.0422593
0.0477938
0.0505924
0.051079
0.0497043
0.047055
0.0434118
0.0397902
0.0356026
0.0315725
0.0267758
0.0223623
0.0162514
0.0109791
0.0024718
-0.0391227
-0.0444247
-0.0555432
-0.0723994
-0.0942963
-0.120302
-0.149295
-0.17991
-0.210615
-0.239851
-0.266231
-0.288742
-0.306835
-0.320362
-0.329401
-0.334073
-0.334428
-0.330457
-0.322137
-0.309496
-0.292683
-0.272012
-0.247978
-0.221228
-0.192528
-0.162694
-0.132541
-0.102837
-0.0742909
-0.047516
-0.0230612
-0.00139525
0.0170694
0.0320623
0.0434273
0.0512022
0.0555832
0.0569654
0.0559127
0.0530144
0.0489822
0.0439788
0.0398117
0.0351658
0.0309856
0.0262105
0.0220102
0.0160374
0.0110037
0.00234733
-0.018015
-0.0242044
-0.037168
-0.0568691
-0.0825074
-0.113024
-0.147076
-0.182976
-0.218797
-0.252554
-0.282524
-0.307564
-0.327228
-0.341616
-0.351079
-0.35591
-0.356211
-0.351926
-0.342934
-0.329159
-0.310679
-0.287791
-0.261033
-0.231162
-0.199097
-0.165819
-0.132309
-0.0994714
-0.0681324
-0.0390079
-0.0127117
0.0102164
0.0293058
0.0442643
0.0549476
0.0614507
0.0640806
0.0633925
0.0601521
0.0551846
0.0494895
0.0437967
0.0380279
0.0328652
0.0287359
0.0242748
0.0206316
0.0151213
0.0106512
0.0020685
0.0075572
0.000283236
-0.0149246
-0.0381331
-0.0684196
-0.104625
-0.145123
-0.187792
-0.230159
-0.269601
-0.303891
-0.331734
-0.352908
-0.367961
-0.377675
-0.382586
-0.382826
-0.378236
-0.368522
-0.353436
-0.332941
-0.307295
-0.277099
-0.243263
-0.206919
-0.169284
-0.131555
-0.0948207
-0.0600452
-0.0280617
0.000400255
0.0247072
0.0443238
0.0589253
0.0683857
0.0728836
0.0728885
0.0691853
0.0628335
0.0549679
0.0468494
0.0392668
0.0327586
0.0274312
0.023785
0.0201603
0.0176373
0.0131117
0.00970463
0.00156351
0.0383643
0.0297799
0.0118723
-0.0156371
-0.051678
-0.0950883
-0.143852
-0.195279
-0.2461
-0.292718
-0.332165
-0.362965
-0.385335