/*--------------------------------*- C++ -*----------------------------------*\
  =========                 |
  \\      /  F ield         | OpenFOAM: The Open Source CFD Toolbox
   \\    /   O peration     | Website:  https://openfoam.org
    \\  /    A nd           | Version:  8
     \\/     M anipulation  |
\*---------------------------------------------------------------------------*/
FoamFile
{
    version     2.0;
    format      ascii;
    class       volScalarField;
    location    "2";
    object      T;
}
// * * * * * * * * * * * * * * * * * * * * * * * * * * * * * * * * * * * * * //

dimensions      [0 0 0 1 0 0 0];

internalField   nonuniform List<scalar> 
116
(
4.82833e-13
4.82669e-13
4.82653e-13
4.82652e-13
4.8265e-13
4.82499e-13
2.27664e-11
2.27602e-11
2.27596e-11
2.27596e-11
2.27596e-11
2.27596e-11
9.89702e-10
9.89492e-10
9.89472e-10
9.89471e-10
9.89471e-10
9.89471e-10
3.84547e-08
3.84486e-08
3.8448e-08
3.8448e-08
3.8448e-08
3.8448e-08
1.31499e-06
1.31484e-06
1.31483e-06
1.31483e-06
1.31483e-06
1.31483e-06
3.87872e-05
3.87843e-05
3.8784e-05
3.8784e-05
3.8784e-05
3.8784e-05
0.000960278
0.000960235
0.000960231
0.000960231
0.000960231
0.000960231
0.0191901
0.0191897
0.0191896
0.0191896
0.0191896
0.0191896
0.291366
0.291364
0.291363
0.291363
0.291363
0.291363
3.02287
3.02287
3.02287
3.02287
3.02287
3.02287
4.73795e-13
4.73647e-13
4.73644e-13
4.73644e-13
2.27594e-11
2.27594e-11
2.27594e-11
2.27594e-11
9.89471e-10
9.89471e-10
9.89471e-10
9.89471e-10
3.8448e-08
3.8448e-08
3.8448e-08
3.8448e-08
1.31483e-06
1.31483e-06
1.31483e-06
1.31483e-06
3.8784e-05
3.8784e-05
3.8784e-05
3.8784e-05
0.000960231
0.000960231
0.000960231
0.000960231
0.0191896
0.0191896
0.0191896
0.0191896
0.291363
0.291363
0.291363
0.291363
3.02287
3.02287
3.02287
3.02287
3.9303e-20
3.92894e-20
3.92889e-20
3.9291e-20
2.55666e-18
2.55589e-18
2.55586e-18
2.55599e-18
1.57388e-16
1.57345e-16
1.57344e-16
1.57351e-16
8.98767e-15
8.98532e-15
8.98526e-15
8.98568e-15
)
;

boundaryField
{
    movingWall
    {
        type            fixedValue;
        value           uniform 10;
    }
    fixedWalls
    {
        type            zeroGradient;
    }
    frontAndBack
    {
        type            empty;
    }
}


// ************************************************************************* //
