/*--------------------------------*- C++ -*----------------------------------*\
  =========                 |
  \\      /  F ield         | OpenFOAM: The Open Source CFD Toolbox
   \\    /   O peration     | Website:  https://openfoam.org
    \\  /    A nd           | Version:  8
     \\/     M anipulation  |
\*---------------------------------------------------------------------------*/
FoamFile
{
    version     2.0;
    format      ascii;
    class       volScalarField;
    location    "0.38";
    object      p;
}
// * * * * * * * * * * * * * * * * * * * * * * * * * * * * * * * * * * * * * //

dimensions      [0 2 -2 0 0 0 0];

internalField   nonuniform List<scalar> 
400
(
4.24084e-06
-0.00582238
-0.0129597
-0.0184117
-0.020429
-0.0182353
-0.0117708
-0.0014809
0.0118397
0.027151
0.0432457
0.0588239
0.0725792
0.0833089
0.0900532
0.0922675
0.0900266
0.0842451
0.0768823
0.0710691
0.0057829
-0.000215893
-0.00580144
-0.00953988
-0.0105962
-0.00843002
-0.00296736
0.00547652
0.016305
0.0287135
0.0417513
0.0543871
0.0655874
0.0744108
0.0801212
0.0823169
0.0810786
0.0770565
0.0712761
0.0653201
0.0133367
0.00503552
-0.000993221
-0.00442086
-0.0052706
-0.00326163
0.00160454
0.00902965
0.018504
0.0293511
0.040767
0.051871
0.0617698
0.0696376
0.0748083
0.0768796
0.0758434
0.0720879
0.0658078
0.0575381
0.0201405
0.00869743
0.00122764
-0.00266656
-0.00372004
-0.00188323
0.00273329
0.00978648
0.0187822
0.0290968
0.0399937
0.0506556
0.0602344
0.0679174
0.0730047
0.0750032
0.0737678
0.0694584
0.0616056
0.0501056
0.0245027
0.00977438
0.000591377
-0.00398509
-0.00530026
-0.00350531
0.00117672
0.00833646
0.0174638
0.0279509
0.0390868
0.0500717
0.0600506
0.0681668
0.0736281
0.0757996
0.0743711
0.0692922
0.0595284
0.0445405
0.0251786
0.00715128
-0.00380044
-0.0090554
-0.0105102
-0.00849788
-0.00335469
0.0044315
0.0143154
0.025681
0.0378158
0.0499053
0.0610501
0.0703051
0.0767366
0.0795189
0.0781412
0.0723361
0.0605423
0.0418936
0.0210943
-0.000260962
-0.0129328
-0.0187074
-0.0200277
-0.0174116
-0.011316
-0.00231731
0.00899276
0.0219785
0.0359119
0.0499466
0.0631144
0.0743476
0.0825242
0.0865718
0.0857231
0.0794498
0.0656235
0.0430754
0.0111441
-0.0136165
-0.0278731
-0.0338521
-0.0346012
-0.030855
-0.0232102
-0.0123424
0.0011076
0.0164866
0.0330551
0.0499362
0.0660859
0.0802925
0.0912033
0.0974326
0.0978729
0.0916388
0.0758994
0.0491201
-0.00596531
-0.0342643
-0.0498677
-0.0555461
-0.0550875
-0.0495118
-0.0395905
-0.0261102
-0.0097539
0.00882616
0.0289041
0.0495965
0.0698004
0.0881574
0.10305
0.112704
0.115553
0.110195
0.0928373
0.0614149
-0.0318546
-0.0638734
-0.0804141
-0.0850043
-0.0824171
-0.0740752
-0.0609776
-0.0440331
-0.0239479
-0.00133326
0.0231491
0.0486644
0.0740989
0.0979754
0.118399
0.133129
0.139992
0.136821
0.118444
0.0819369
-0.068664
-0.1046
-0.121341
-0.123587
-0.117512
-0.105123
-0.0877147
-0.0663218
-0.0416331
-0.0141516
0.0156096
0.0469571
0.0788594
0.109797
0.137627
0.159589
0.17273
0.173781
0.155523
0.113574
-0.119398
-0.159353
-0.174911
-0.172753
-0.161144
-0.142925
-0.119755
-0.0927731
-0.0625733
-0.0294433
0.0063775
0.0444778
0.0840592
0.123707
0.16114
0.193089
0.215671
0.22408
0.208053
0.160635
-0.188623
-0.232238
-0.243935
-0.233944
-0.21369
-0.18715
-0.156368
-0.122497
-0.0858935
-0.0464676
-0.00400982
0.0415434
0.0898465
0.139833
0.189323
0.234693
0.271078
0.291667
0.281745
0.229778
-0.283969
-0.3293
-0.331827
-0.308276
-0.274704
-0.236435
-0.19576
-0.153605
-0.109835
-0.0637404
-0.014433
0.0388683
0.096559
0.158281
0.222378
0.285292
0.341401
0.381578
0.384917
0.331836
-0.419313
-0.459666
-0.442346
-0.395788
-0.342125
-0.287735
-0.234611
-0.182925
-0.131604
-0.0789799
-0.0232089
0.0374804
0.104558
0.178842
0.259866
0.344974
0.42862
0.499703
0.529678
0.485394
-0.620526
-0.636738
-0.578672
-0.494189
-0.411236
-0.335654
-0.267776
-0.205973
-0.147531
-0.0893775
-0.0284206
0.0383537
0.113812
0.200477
0.29998
0.412029
0.533033
0.651779
0.732775
0.722398
-0.935918
-0.87851
-0.741737
-0.597944
-0.474389
-0.372655
-0.288864
-0.217758
-0.153948
-0.0924583
-0.0287116
0.0417013
0.123269
0.220723
0.338931
0.482159
0.652001
0.841345
1.01527
1.09751
-1.47642
-1.20663
-0.920499
-0.691384
-0.517301
-0.38754
-0.290057
-0.213333
-0.148119
-0.0872101
-0.0245719
0.0454632
0.128943
0.233076
0.367108
0.542683
0.771297
1.05932
1.40329
1.73014
-2.53964
-1.63054
-1.04443
-0.710955
-0.495747
-0.35209
-0.254527
-0.183579
-0.126165
-0.07359
-0.0192635
0.0427926
0.119218
0.218788
0.354817
0.547989
0.826397
1.23658
1.91168
2.9242
-4.36666
-2.04463
-0.973539
-0.563178
-0.357844
-0.240144
-0.170116
-0.123779
-0.0874772
-0.0535055
-0.016649
0.0276665
0.0846136
0.161736
0.272417
0.442104
0.718224
1.22571
2.41104
4.84854
)
;

boundaryField
{
    movingWall
    {
        type            zeroGradient;
    }
    fixedWalls
    {
        type            zeroGradient;
    }
    frontAndBack
    {
        type            empty;
    }
}


// ************************************************************************* //
