/*--------------------------------*- C++ -*----------------------------------*\
  =========                 |
  \\      /  F ield         | OpenFOAM: The Open Source CFD Toolbox
   \\    /   O peration     | Website:  https://openfoam.org
    \\  /    A nd           | Version:  8
     \\/     M anipulation  |
\*---------------------------------------------------------------------------*/
FoamFile
{
    version     2.0;
    format      ascii;
    class       surfaceScalarField;
    location    "0.38";
    object      phi;
}
// * * * * * * * * * * * * * * * * * * * * * * * * * * * * * * * * * * * * * //

dimensions      [0 3 -1 0 0 0 0];

internalField   nonuniform List<scalar> 
760
(
1.42319e-08
-1.42675e-08
-2.2211e-08
3.64428e-08
-1.14271e-07
9.20595e-08
-2.45495e-07
1.31225e-07
-3.96101e-07
1.50605e-07
-5.47369e-07
1.51268e-07
-6.83194e-07
1.35825e-07
-7.90665e-07
1.07472e-07
-8.60209e-07
6.95437e-08
-8.85642e-07
2.54332e-08
-8.6432e-07
-2.13219e-08
-7.97389e-07
-6.69314e-08
-6.90085e-07
-1.07303e-07
-5.51973e-07
-1.38112e-07
-3.96944e-07
-1.55029e-07
-2.4275e-07
-1.54194e-07
-1.09734e-07
-1.33016e-07
-1.84166e-08
-9.13173e-08
1.56893e-08
-3.4106e-08
1.56895e-08
-3.42159e-08
1.99484e-08
-1.80377e-07
1.82604e-07
-4.33996e-07
3.45678e-07
-7.64446e-07
4.61675e-07
-1.13223e-06
5.18389e-07
-1.49727e-06
5.16306e-07
-1.82337e-06
4.61923e-07
-2.08057e-06
3.64673e-07
-2.24631e-06
2.35284e-07
-2.30607e-06
8.5198e-08
-2.25393e-06
-7.34631e-08
-2.09308e-06
-2.27786e-07
-1.83629e-06
-3.64096e-07
-1.50606e-06
-4.68337e-07
-1.1341e-06
-5.26995e-07
-7.5953e-07
-5.2876e-07
-4.25405e-07
-4.67141e-07
-1.72694e-07
-3.44028e-07
-3.08026e-08
-1.75998e-07
-1.5113e-08
-9.22295e-08
1.12178e-07
-3.57002e-07
4.47377e-07
-7.6457e-07
7.53246e-07
-1.26851e-06
9.65611e-07
-1.81472e-06
1.06461e-06
-2.34908e-06
1.05066e-06
-2.82247e-06
9.35317e-07
-3.19398e-06
7.36186e-07
-3.43265e-06
4.73953e-07
-3.51855e-06
1.71101e-07
-3.44361e-06
-1.48405e-07
-3.21229e-06
-4.59106e-07
-2.84214e-06
-7.34253e-07
-2.36383e-06
-9.46646e-07
-1.82033e-06
-1.07049e-06
-1.2645e-06
-1.08459e-06
-7.54529e-07
-9.77111e-07
-3.46974e-07
-7.51584e-07
-8.73368e-08
-4.35635e-07
-1.0245e-07
-1.45212e-07
2.5739e-07
-5.25467e-07
8.27631e-07
-1.08164e-06
1.30942e-06
-1.74753e-06
1.63149e-06
-2.45435e-06
1.77143e-06
-3.1364e-06
1.73271e-06
-3.73532e-06
1.53424e-06
-4.20294e-06
1.20381e-06
-4.50295e-06
7.73967e-07
-4.61196e-06
2.8011e-07
-4.52029e-06
-2.40076e-07
-4.23276e-06
-7.46632e-07
-3.76939e-06
-1.19762e-06
-3.16566e-06
-1.55038e-06
-2.47189e-06
-1.76426e-06
-1.75108e-06
-1.8054e-06
-1.07452e-06
-1.65367e-06
-5.15142e-07
-1.31096e-06
-1.39316e-07
-8.1146e-07
-2.41766e-07
-1.93611e-07
4.51001e-07
-6.85005e-07
1.31902e-06
-1.38563e-06
2.01005e-06
-2.20725e-06
2.45312e-06
-3.06548e-06
2.62966e-06
-3.88379e-06
2.55102e-06
-4.59652e-06
2.24696e-06
-5.1506e-06
1.75789e-06
-5.50647e-06
1.12983e-06
-5.63854e-06
4.12185e-07
-5.53577e-06
-3.42846e-07
-5.20239e-06
-1.08002e-06
-4.65889e-06
-1.74112e-06
-3.94296e-06
-2.26631e-06
-3.10971e-06
-2.59751e-06
-2.2305e-06
-2.68461e-06
-1.38964e-06
-2.49454e-06
-6.785e-07
-2.0221e-06
-1.87768e-07
-1.30219e-06
-4.29534e-07
-2.39942e-07
6.90943e-07
-8.40352e-07
1.91943e-06
-1.68329e-06
2.85299e-06
-2.65706e-06
3.42689e-06
-3.66085e-06
3.63344e-06
-4.60778e-06
3.49796e-06
-5.42637e-06
3.06555e-06
-6.06058e-06
2.3921e-06
-6.46937e-06
1.53862e-06
-6.62607e-06
5.68881e-07
-6.51834e-06
-4.50578e-07
-6.14881e-06
-1.44954e-06
-5.53655e-06
-2.35338e-06
-4.71893e-06
-3.08393e-06
-3.75347e-06
-3.56298e-06
-2.71848e-06
-3.7196e-06
-1.71154e-06
-3.50148e-06
-8.44663e-07
-2.88898e-06
-2.3618e-07
-1.91067e-06
-6.65714e-07
-2.86746e-07
9.77689e-07
-9.9709e-07
2.62978e-06
-1.98209e-06
3.83798e-06
-3.10496e-06
4.54975e-06
-4.24797e-06
4.77646e-06
-5.31483e-06
4.56482e-06
-6.23013e-06
3.98085e-06
-6.93719e-06
3.09916e-06
-7.39551e-06
1.99693e-06
-7.57864e-06
7.52017e-07
-7.47318e-06
-5.5604e-07
-7.07913e-06
-1.84359e-06
-6.4119e-06
-3.02061e-06
-5.5056e-06
-3.99023e-06
-4.41707e-06
-4.6515e-06
-3.22938e-06
-4.90729e-06
-2.05296e-06
-4.6779e-06
-1.02254e-06
-3.91939e-06
-2.88282e-07
-2.64493e-06
-9.53996e-07
-3.36332e-07
1.31402e-06
-1.16037e-06
3.45382e-06
-2.28802e-06
4.96563e-06
-3.55501e-06
5.81674e-06
-4.82664e-06
6.04808e-06
-5.99908e-06
5.73727e-06
-6.99605e-06
4.97782e-06
-7.76354e-06
3.86665e-06
-8.26451e-06
2.4979e-06
-8.47463e-06
9.62146e-07
-8.37998e-06
-6.50692e-07
-7.97692e-06
-2.24665e-06
-7.2746e-06
-3.72293e-06
-6.29997e-06
-4.96485e-06
-5.10469e-06
-5.84678e-06
-3.77254e-06
-6.23944e-06
-2.42489e-06
-6.02555e-06
-1.22075e-06
-5.12354e-06
-3.47709e-07
-3.51798e-06
-1.3017e-06
-3.90959e-07
1.70498e-06
-1.33489e-06
4.39775e-06
-2.60498e-06
6.23573e-06
-4.00595e-06
7.21771e-06
-5.38683e-06
7.42896e-06
-6.63976e-06
6.99021e-06
-7.69245e-06
6.0305e-06
-8.49848e-06
4.67269e-06
-9.02843e-06
3.02785e-06
-9.26294e-06
1.19665e-06
-9.18867e-06
-7.24964e-07
-8.7975e-06
-2.63782e-06
-8.08938e-06
-4.43105e-06
-7.07904e-06
-5.9752e-06
-5.80634e-06
-7.11948e-06
-4.34906e-06
-7.69672e-06
-2.83482e-06
-7.53978e-06
-1.4471e-06
-6.51126e-06
-4.181e-07
-4.54697e-06
-1.7198e-06
-4.53454e-07
2.15843e-06
-1.52569e-06
5.46998e-06
-2.93489e-06
7.64493e-06
-4.45012e-06
8.73294e-06
-5.90634e-06
8.88517e-06
-7.19783e-06
8.2817e-06
-8.26368e-06
7.09636e-06
-9.07209e-06
5.4811e-06
-9.6069e-06
3.56266e-06
-9.85763e-06
1.44738e-06
-9.81345e-06
-7.69136e-07
-9.46141e-06
-2.98987e-06
-8.78914e-06
-5.10332e-06
-7.79303e-06
-6.97131e-06
-6.49223e-06
-8.42028e-06
-4.94798e-06
-9.24096e-06
-3.28512e-06
-9.20265e-06
-1.70868e-06
-8.0877e-06
-5.03588e-07
-5.75206e-06
-2.22339e-06
-5.28335e-07
2.68677e-06
-1.73966e-06
6.68131e-06
-3.27797e-06
9.18324e-06
-4.87162e-06
1.03266e-05
-6.34701e-06
1.03606e-05
-7.61082e-06
9.54551e-06
-8.62435e-06
8.10989e-06
-9.37968e-06
6.23643e-06
-9.88099e-06
4.06396e-06
-1.01315e-05
1.69792e-06
-1.01258e-05
-7.74884e-07
-9.84633e-06
-3.26931e-06
-9.26599e-06
-5.68367e-06
-8.35633e-06
-7.88097e-06
-7.1047e-06
-9.67192e-06
-5.5407e-06
-1.0805e-05
-3.7707e-06
-1.09726e-05
-2.01217e-06
-9.84624e-06
-6.09688e-07
-7.15454e-06
-2.83308e-06
-6.23664e-07
3.31043e-06
-1.98738e-06
8.04502e-06
-3.6319e-06
1.08278e-05
-5.24191e-06
1.19366e-05
-6.64756e-06
1.17662e-05
-7.78446e-06
1.06824e-05
-8.651e-06
8.97643e-06
-9.27429e-06
6.85972e-06
-9.68652e-06
4.47619e-06
-9.90981e-06
1.9212e-06
-9.94722e-06
-7.37465e-07
-9.77858e-06
-3.43796e-06
-9.36088e-06
-6.10136e-06
-8.63561e-06
-8.60624e-06
-7.54638e-06
-1.07611e-05
-6.07158e-06
-1.22798e-05
-4.27427e-06
-1.277e-05
-2.36365e-06
-1.17569e-05
-7.44776e-07
-8.77341e-06
-3.57786e-06
-7.54073e-07
4.06451e-06
-2.28434e-06
9.57529e-06
-3.987e-06
1.25304e-05
-5.50908e-06
1.34587e-05
-6.70959e-06
1.29667e-05
-7.57854e-06
1.15514e-05
-8.17003e-06
9.56792e-06
-8.55761e-06
7.2473e-06
-8.80771e-06
4.7263e-06
-8.96504e-06
2.07853e-06
-9.04436e-06
-6.58145e-07
-9.02574e-06
-3.45657e-06
-8.85259e-06
-6.27451e-06
-8.43482e-06
-9.02401e-06
-7.66291e-06
-1.15331e-05
-6.442e-06
-1.35007e-05
-4.75625e-06
-1.44557e-05
-2.76675e-06
-1.37464e-05
-9.22434e-07
-1.06177e-05
-4.50029e-06
-9.45202e-07
5.00971e-06
-2.64848e-06
1.12786e-05
-4.31097e-06
1.41929e-05
-5.57327e-06
1.4721e-05
-6.37065e-06
1.37641e-05
-6.78323e-06
1.1964e-05
-6.94044e-06
9.72513e-06
-6.96966e-06
7.27652e-06
-6.97271e-06
4.72934e-06
-7.01642e-06
2.12225e-06
-7.12853e-06
-5.46041e-07
-7.29369e-06
-3.29141e-06
-7.44858e-06
-6.11963e-06
-7.47783e-06
-8.99475e-06
-7.2179e-06
-1.1793e-05
-6.48273e-06
-1.42358e-05
-5.13342e-06
-1.5805e-05
-3.21497e-06
-1.56648e-05
-1.16438e-06
-1.26683e-05
-5.66467e-06
-1.23731e-06
6.24702e-06
-3.08328e-06
1.31245e-05
-4.50768e-06
1.56173e-05
-5.23444e-06
1.54478e-05
-5.35516e-06
1.38848e-05
-5.08177e-06
1.16906e-05
-4.63082e-06
9.27418e-06
-4.17917e-06
6.82487e-06
-3.85426e-06
4.40443e-06
-3.73692e-06
2.00491e-06
-3.86503e-06
-4.17933e-07
-4.23255e-06
-2.92389e-06
-4.782e-06
-5.57017e-06
-5.391e-06
-8.38575e-06
-5.85844e-06
-1.13256e-05
-5.90654e-06
-1.41877e-05
-5.2328e-06
-1.64787e-05
-3.66626e-06
-1.72313e-05
-1.50008e-06
-1.48345e-05
-7.16475e-06
-1.6738e-06
7.92082e-06
-3.51335e-06
1.49641e-05
-4.31528e-06
1.64192e-05
-4.08883e-06
1.52213e-05
-3.19299e-06
1.2989e-05
-1.99867e-06
1.04962e-05
-7.95063e-07
8.07058e-06
2.19426e-07
5.81038e-06
9.18328e-07
3.70553e-06
1.2257e-06
1.69753e-06
1.10216e-06
-2.9439e-07
5.4115e-07
-2.36289e-06
-4.2285e-07
-4.60617e-06
-1.6925e-06
-7.1161e-06
-3.07236e-06
-9.9457e-06
-4.23078e-06
-1.30293e-05
-4.69562e-06
-1.60139e-05
-3.96717e-06
-1.79598e-05
-1.94492e-06
-1.68567e-05
-9.10967e-06
-2.23069e-06
1.01515e-05
-3.59029e-06
1.63237e-05
-3.07776e-06
1.59067e-05
-1.34385e-06
1.34874e-05
8.97079e-07
1.0748e-05
3.15502e-06
8.23829e-06
5.13818e-06
6.08742e-06
6.68877e-06
4.2598e-06
7.72591e-06
2.66838e-06
8.20664e-06
1.21681e-06
8.10397e-06
-1.91723e-07
7.39911e-06
-1.65803e-06
6.08693e-06
-3.29399e-06
4.19924e-06
-5.22841e-06
1.8542e-06
-7.60066e-06
-6.61684e-07
-1.05134e-05
-2.79216e-06
-1.38834e-05
-3.66208e-06
-1.70899e-05
-2.41154e-06
-1.81073e-05
-1.15212e-05
-2.57381e-06
1.27253e-05
-2.18345e-06
1.59333e-05
7.18081e-07
1.30052e-05
4.46959e-06
9.73589e-06
8.13332e-06
7.08432e-06
1.13016e-05
5.07e-06
1.38291e-05
3.55989e-06
1.56881e-05
2.40079e-06
1.68917e-05
1.4648e-06
1.74549e-05
6.53604e-07
1.73764e-05
-1.13203e-07
1.66305e-05
-9.12157e-07
1.51672e-05
-1.83067e-06
1.29235e-05
-2.98474e-06
9.86178e-06
-4.53889e-06
6.06199e-06
-6.71364e-06
1.91235e-06
-9.7338e-06
-1.55962e-06
-1.36179e-05
-2.45834e-06
-1.72086e-05
-1.39795e-05
-7.85013e-07
1.35103e-05
4.08079e-06
1.10675e-05
1.02975e-05
6.78843e-06
1.57936e-05
4.2398e-06
2.0158e-05
2.71991e-06
2.34581e-05
1.76995e-06
2.58608e-05
1.15714e-06
2.75216e-05
7.40054e-07
2.85541e-05
4.32294e-07
2.90265e-05
1.81221e-07
2.89622e-05
-4.89822e-08
2.83388e-05
-2.887e-07
2.70819e-05
-5.73742e-07
2.50551e-05
-9.57958e-07
2.20517e-05
-1.53552e-06
1.78155e-05
-2.47742e-06
1.21724e-05
-4.09068e-06
5.47772e-06
-6.92324e-06
-1.29169e-07
-1.16017e-05
-1.41087e-05
1.35103e-05
2.45779e-05
3.13663e-05
3.56061e-05
3.8326e-05
4.00959e-05
4.12531e-05
4.19931e-05
4.24254e-05
4.26066e-05
4.25577e-05
4.2269e-05
4.16952e-05
4.07373e-05
3.92017e-05
3.67243e-05
3.26336e-05
2.57104e-05
1.41087e-05
)
;

boundaryField
{
    movingWall
    {
        type            calculated;
        value           uniform 0;
    }
    fixedWalls
    {
        type            calculated;
        value           uniform 0;
    }
    frontAndBack
    {
        type            empty;
        value           nonuniform List<scalar> 0();
    }
}


// ************************************************************************* //
