/*--------------------------------*- C++ -*----------------------------------*\
  =========                 |
  \\      /  F ield         | OpenFOAM: The Open Source CFD Toolbox
   \\    /   O peration     | Website:  https://openfoam.org
    \\  /    A nd           | Version:  8
     \\/     M anipulation  |
\*---------------------------------------------------------------------------*/
FoamFile
{
    version     2.0;
    format      ascii;
    class       surfaceScalarField;
    location    "13";
    object      phi;
}
// * * * * * * * * * * * * * * * * * * * * * * * * * * * * * * * * * * * * * //

dimensions      [0 3 -1 0 0 0 0];

internalField   nonuniform List<scalar> 
7966
(
0.013424
-8.77086e-05
-2.95486e-06
0.0137366
-0.000313463
8.27403e-07
0.0141426
-0.000413402
7.39212e-06
0.0144837
-0.000344156
3.12377e-06
0.0147519
-0.000256673
-1.15713e-05
0.0150559
-0.000285702
-1.83172e-05
0.0152463
-0.000180645
-9.70965e-06
0.0152913
-4.79782e-05
2.95158e-06
0.0152701
9.30179e-06
1.19048e-05
0.0152108
4.70997e-05
1.22057e-05
0.0150348
0.000171411
4.64939e-06
0.0147311
0.000306047
-2.4077e-06
0.0143689
0.000368225
-5.98806e-06
0.0139854
0.000389206
-5.70831e-06
0.0135791
0.000409003
-2.71046e-06
0.0131521
0.000427382
-3.66224e-07
0.0127519
0.000399793
3.43037e-07
0.0123466
0.000405523
-1.75966e-07
0.0120384
0.000308618
-4.73176e-07
0.00019768
-2.95224e-07
0.0134106
-0.00015575
-9.24885e-06
0.0137462
-0.000661009
1.20242e-05
0.014238
-0.000911059
5.82262e-06
0.0146564
-0.000761843
-7.10972e-07
0.0148851
-0.000470764
-1.46514e-05
0.0152051
-0.000566524
-3.91808e-05
0.0154455
-0.000382938
-3.8078e-05
0.0154805
-8.69718e-05
3.98825e-06
0.0154774
-3.02302e-05
4.26581e-05
0.0154349
4.9853e-05
3.97091e-05
0.0151948
0.000385375
2.61103e-05
0.0149001
0.000585396
1.53918e-05
0.0145515
0.000701133
1.56821e-05
0.014088
0.000844475
8.21091e-06
0.01372
0.00078188
-4.86676e-06
0.0133669
0.000780621
-1.65889e-07
0.0129504
0.000812695
3.69016e-06
0.0125352
0.000815006
5.69292e-06
0.0121643
0.000673473
6.03754e-06
0.000443018
2.11682e-06
0.0134742
-0.000258321
-3.729e-05
0.0139378
-0.00128268
0.000158076
0.0146313
-0.00154501
-5.95799e-05
0.0150928
-0.000978934
-0.000244419
0.0153124
-0.000596335
-9.39773e-05
0.0155825
-0.000947414
0.000110813
0.0157243
-0.000569256
4.44717e-05
0.0158935
-0.000214889
-4.12301e-05
0.0160944
-0.000389517
0.000158293
0.0159937
-0.000155584
0.000306174
0.0156848
0.000524536
0.000169707
0.0152437
0.00102407
2.46104e-06
0.0146894
0.00133785
-8.24335e-05
0.014363
0.00126744
-9.6587e-05
0.0139781
0.00122629
-5.94925e-05
0.0133496
0.00146361
-5.44101e-05
0.0128507
0.00136308
-5.14911e-05
0.0124086
0.00131901
-6.19187e-05
0.0121587
0.000976815
-5.35025e-05
0.000559777
-1.47217e-05
0.0134366
-0.000220383
-0.000139155
0.0140349
-0.00244682
0.000565755
0.0148644
-0.00239422
1.97685e-05
0.0158511
-0.000954935
-0.00101068
0.0162313
4.68753e-06
-0.000981271
0.0162967
-0.00125797
0.000245217
0.0164218
-0.00184705
0.00115264
0.0169102
-0.00127737
0.00057408
0.0172769
-0.000629688
-0.000126527
0.0170362
-0.000417722
0.000502835
0.0164551
0.000115336
0.000990318
0.0159645
0.00133674
0.000177948
0.0156104
0.00215834
-0.00046638
0.0150853
0.00218852
-0.00039597
0.0143484
0.00210723
-0.000144041
0.0137734
0.00194858
8.99898e-05
0.0135069
0.00141961
0.00020993
0.0130565
0.00148746
0.000282033
0.0125024
0.00130053
0.000230298
0.000740962
8.30564e-05
0.0137958
-0.000477618
-0.000200082
0.0147027
-0.00401716
0.000663467
0.0157468
-0.0041337
0.000695398
0.0165535
-0.000560735
-0.00120096
0.0173862
0.00226263
-0.00309065
0.0184757
0.00010362
-0.0024511
0.0190026
-0.00296846
0.000594509
0.0184627
-0.00325793
0.00252046
0.0183266
-0.00162796
0.00113439
0.0190803
-8.41315e-05
-0.00108732
0.0185989
0.00093429
-0.000337525
0.0166212
0.00160357
0.00171087
0.0152255
0.00243832
0.0011157
0.0149027
0.00320764
-0.000696301
0.0151296
0.00306236
-0.00118204
0.0152879
0.00246446
-0.000674187
0.0148576
0.00197227
-0.000122342
0.013901
0.00270472
-0.000260672
0.0132799
0.00222041
-0.000298811
0.000871212
-1.23824e-05
0.0134184
-0.000593539
4.20846e-05
0.0151471
-0.00555299
-0.000192894
0.0167031
-0.00616813
0.00047843
0.0178188
-0.00165127
0.0011661
-0.000135127
-0.00139334
0.000337196
0.0185437
0.000697143
-0.00130366
0.000698822
0.000410842
0.00103462
0.0211789
-2.62958e-06
-0.00252893
0.0222484
-0.00239178
-0.00164623
0.021587
-0.00377936
0.00118291
0.0205451
-0.00289318
0.00230712
0.0197552
0.000330547
0.000375154
0.0201129
0.00243104
-0.00185437
0.0199999
0.00271224
-0.000995757
0.0172723
0.00368464
0.00148136
0.0150927
0.00363587
0.00175134
0.014173
0.00434096
-0.000358859
0.0145193
0.00463722
-0.00251908
0.0150175
0.00412801
-0.00265394
0.0148229
0.00437983
-0.00148048
0.0148032
0.00234335
-0.00010329
0.000569304
0.000420535
0.0133491
-0.00125111
0.000661218
0.015022
-0.00759763
0.000371801
0.0048821
-0.00283654
4.21258e-06
-0.00378947
-0.00303361
-0.00225452
0.00562347
0.00482312
0.00543507
0.00500899
-0.00271982
0.00094166
-0.00494496
0.00537004
6.89714e-05
0.000203097
0.0229897
-0.000953636
0.00265044
-0.000560815
-0.000466416
-0.000406511
-0.00573212
-0.00619927
-0.00546432
-0.00585965
0.0224932
-0.00208974
0.000194465
0.021123
-0.00223514
-0.000174082
0.02079
-0.00252555
-3.45775e-05
0.0204256
0.000182816
0.000512118
0.0205028
0.00172884
0.000624982
0.0221219
0.00223223
-0.00113911
0.0221569
0.00412677
-0.000477142
0.0204895
0.00351229
0.00179096
0.0182422
0.00526441
0.00132395
0.0172127
0.00611606
-0.000449432
0.0176645
0.00465229
-0.000976043
0.0182893
0.00401912
-0.000264066
0.018332
0.00181678
0.000483833
0.000416929
0.000378402
0.0128641
-0.00211276
0.00135403
0.00411714
-0.00364304
0.000627207
0.00346413
0.00436298
0.00308569
-0.00189579
-0.00363298
-0.0012189
0.0043312
-0.00385556
0.00080495
-0.00146409
0.00127198
0.00164737
-0.00150556
5.02952e-05
-0.00151809
0.000246657
0.0015357
-0.000178488
-8.57803e-05
-0.00115735
0.00276051
0.000778318
-0.000468673
-0.00127273
-0.000650384
-0.000313878
-0.000149572
-0.000140849
-0.000339024
0.00707881
-0.00138378
0.000638754
-0.00238055
0.000233202
-0.00332828
0.000260061
-0.000964981
-0.00132263
-0.000920353
0.007705
-0.000585364
-0.00227597
0.010285
-0.000824456
-0.00428106
0.0117027
0.000539147
-0.00177404
0.0120582
0.000466851
0.000906452
0.0132127
0.00104976
2.80302e-05
0.0146562
0.00302057
-0.000337329
0.0151903
0.00206142
0.000916717
0.0157479
0.00391641
0.000790473
0.0166101
0.00446367
0.000790188
0.0176964
0.00312122
0.000444711
0.0191953
0.00277527
-0.000254995
0.0190721
0.0010629
0.000877005
0.000183155
0.000893837
0.00305427
-0.00171844
0.00146622
0.00188106
0.00439943
0.00212344
0.00254426
-0.00136471
-0.00176833
0.00155757
-0.00117594
0.00123627
-0.00157872
-3.91856e-05
0.000253637
-0.00068311
-0.000846877
-0.000646785
0.000152059
0.000221633
0.000165667
0.00194657
-0.000595169
-0.00104079
-0.000108631
-0.000514539
-6.48863e-05
-0.000207924
0.000597224
-0.000510371
0.00103526
-0.00116492
-0.000386001
0.00268729
-0.00071093
-0.000986108
0.000998972
0.00305479
-0.000504038
-0.00221193
0.0045091
0.00126222
0.000304032
0.00615585
-0.00022197
0.00063664
0.0087685
0.00102803
0.000275734
0.00913859
0.00232277
0.00177081
0.0100435
0.0015843
0.000632021
0.00980961
0.00211195
0.000897219
0.00915491
0.0011981
0.000519493
-1.61381e-05
-0.000607616
0.00302363
-0.000424993
0.00163211
-0.000289591
0.00654228
0.00108414
0.00166056
-0.00117905
-0.000309777
0.000760663
0.000523935
0.000952427
0.000614874
0.00064594
-0.000258661
-0.000387279
9.19956e-05
4.53714e-05
-2.5522e-05
-3.80433e-05
-7.38017e-05
-0.00673242
-4.1296e-05
0.0002439
0.00147333
0.00138593
0.00162329
0.00145209
-0.00596617
-0.00180637
0.000529749
-0.00758122
-0.0017819
0.00301094
-0.00685805
-0.000666173
-0.0010431
-0.00477693
-0.0018372
-0.00074796
-0.00365055
-0.000696262
0.000832105
-0.00191913
-0.00299488
0.00104149
4.66897e-06
-0.00244725
0.00155148
0.000752034
0.00114942
0.000425987
0.00251614
0.000552114
-0.000731924
0.00340958
0.0019208
-0.000702288
0.00439613
0.00223541
-0.00202386
-0.000137108
-0.00134541
0.00149669
0.00231803
-0.000817646
0.00351709
0.000759752
0.0055871
-0.00112617
0.0011537
0.00252649
-0.000301132
-0.000272993
-0.000161584
-0.000321624
-6.1848e-05
1.51638e-05
6.45705e-05
-1.78863e-05
-0.00253245
0.00196394
0.000258582
-0.000802505
0.000652623
-0.000484622
0.000903135
-0.00259199
2.22816e-05
-0.00176911
-0.00181259
-0.000304003
-0.0022573
-0.0024154
0.000254738
-0.000318102
-0.00401559
-0.00243462
0.00219761
-0.00160889
-0.00319006
8.70944e-05
7.8846e-05
-0.00428303
-0.000399585
0.000344436
-0.00432481
0.00161197
0.00210139
-0.000501391
-0.000106145
0.00335465
-0.000489406
-0.000211742
0.00452491
0.000722612
2.79287e-05
0.00687527
0.00110178
-0.00121672
-0.00109203
-0.000736038
0.00115003
0.0032118
0.00660218
0.000588502
0.00226305
0.0018212
-0.00397584
0.000826897
0.00455118
-0.000252199
-0.000424962
-0.000341391
0.00111085
-0.000344494
-0.000114568
-7.02259e-05
0.000415345
0.000336436
0.000182615
-0.000172516
-0.000116167
-0.000185099
-0.000116864
-4.78225e-05
-0.000111133
0.00318495
-0.00055285
0.00209923
-0.00030623
-0.00134861
-7.82252e-05
-0.00103433
0.00466401
-0.000323306
-0.00113347
0.00492448
4.14823e-05
-0.000605955
0.00636849
-0.00127346
8.41885e-05
0.00796375
-0.00375731
-0.000272583
0.00869456
-0.00428702
0.00036615
0.0098677
-0.00403843
-0.00141774
0.0101887
-0.00428468
-0.000361119
0.0101068
-0.0018019
0.00138242
0.010833
-0.00171023
0.000494605
0.0116216
-0.000524103
0.000458092
0.0128817
-0.00106587
0.000907593
-0.00251087
0.000145852
0.0111447
0.00327487
0.00214866
0.00278038
0.00717579
8.13902e-05
-0.00412475
-0.00280946
-0.00397098
-0.00136231
0.00504828
0.00308757
0.00523879
-0.00177666
0.0035977
0.00103295
-0.00113584
-0.00169441
-0.00119507
0.00111763
0.000845965
0.000921565
0.00106654
0.000217884
-0.000247307
2.94229e-05
0.0187239
-0.000202146
-0.00231318
0.000188461
0.000315738
-0.000185825
0.000106426
-0.00231298
-0.00554446
-0.00270939
-0.00606658
0.0185225
-0.0016253
0.00127392
0.0180919
-0.00230977
0.00241698
0.0175701
-0.00164458
0.00220788
0.0176041
-0.00273776
0.00143029
0.0172554
-0.00418584
0.000777308
0.0168376
-0.00356364
-0.000305651
0.0170282
-0.00317945
-0.00104959
0.0174659
-0.00305524
-0.00166715
0.018503
-0.00153557
-0.00130344
0.0190531
-0.00212245
-0.000137877
0.0192208
-0.00135932
0.00066757
0.0194088
-0.00206763
0.000813748
-0.00289883
0.000402515
0.0134695
0.00229273
0.000865371
0.016734
0.00348931
0.000422067
0.00563762
0.00280606
0.000865377
-0.00225516
-0.00160278
-0.00286933
-0.00163706
0.00494672
0.00561303
0.00522947
-0.000592927
0.00670282
0.000660883
0.000550601
-0.000584733
-0.00055915
-0.000539868
-0.00038579
-0.00735258
0.00655864
0.0013546
0.000616162
-0.000298262
-0.000304933
-0.000187846
0.0230307
0.00347404
-0.00246045
-6.04204e-05
-0.000275119
7.23268e-05
-4.54137e-05
-0.00612593
-0.00586504
-0.00595818
-0.00578656
0.0222763
0.00255476
-0.00200248
0.0218669
0.000628142
-0.00184403
0.0212875
-0.00128105
-0.000449337
0.0212413
-0.00207952
0.000481203
0.0214711
-0.00294327
-2.43361e-05
0.0218754
-0.00379156
-0.000798518
0.0215507
-0.0035193
0.000280294
0.0203294
-0.00290381
0.000945693
0.0189011
-0.00234426
0.000717342
0.0185806
-0.00107207
-0.000143013
0.0184963
-0.00130656
-0.000731596
0.0184359
-0.00122439
-7.45546e-05
0.0182741
-0.00141273
-0.000493063
-0.00184186
-0.000635882
0.0137357
0.00164638
0.00025523
0.0150478
0.00169928
0.000477944
0.0172162
0.00178788
-0.00115028
0.0198532
0.00299524
-0.00282264
-0.000183538
-0.00128229
-0.000531055
-0.000812648
0.0207193
0.00375047
-0.0015904
-0.000990064
-0.000780151
-0.000848277
-0.000407727
0.0203074
0.00368157
0.000204418
0.0199501
0.00210718
0.000804859
0.0197012
0.000770379
0.000106669
0.0193752
-0.000698059
-0.000257033
0.0193244
-0.00158371
-0.000444954
0.0190267
-0.00219496
-0.000450652
0.0181533
-0.00281596
-0.00010221
0.0175248
-0.00256385
-0.000326887
0.0168705
-0.00186391
-0.000385602
0.0160019
-0.0017697
0.000293959
0.01503
-0.000792977
0.000692877
0.0138815
-0.000980701
0.000822606
0.0145583
-0.00124182
-0.000659315
0.0150216
-0.000607357
-0.00126877
-0.000868966
-0.000269144
0.0137388
0.000883836
0.000362289
0.0144946
0.00145611
-0.000512693
0.0159366
0.00142404
-0.00107817
0.0172436
0.00198926
-0.00030098
0.017867
0.00242284
0.000704229
0.017852
0.00254124
0.00115534
0.0178012
0.00111984
0.00103812
0.0177986
2.0032e-05
0.000752957
0.0175234
-0.000574271
0.000151449
0.0173799
-0.000935081
-0.000505135
0.0170866
-0.00132417
-0.000577498
0.0166866
-0.00188835
-0.000527677
0.0160666
-0.00168576
-0.000258052
0.0151127
-0.000985788
7.57607e-05
0.0143078
-0.00113368
0.000168927
0.014197
-0.000872778
0.000190517
0.014266
-0.000996134
-5.3517e-05
0.0141393
-0.00117897
6.38597e-05
0.0140319
-0.000835162
0.000335158
-0.000914455
0.000172006
0.0135348
0.000529656
0.00015472
0.0142114
0.00105037
-0.000270888
0.0148681
0.00108242
-0.0003151
0.0157239
0.000981101
0.000152445
0.0162564
0.00136119
0.000529116
0.0165324
0.00164767
0.000617532
0.0166336
0.000637549
0.000381101
0.0166828
-0.000108901
7.9789e-05
0.0164198
-0.000200688
-0.000110663
0.0162362
-0.000482374
-0.000269038
0.0161228
-0.000893841
-0.000316914
0.0155208
-0.00124237
-4.39886e-05
0.0150216
-0.00133507
0.000148455
0.0148246
-0.000956765
0.000167944
0.0143224
-0.000810849
0.000179402
0.0140742
-0.000714449
8.98675e-05
0.0137248
-0.00067223
2.54986e-05
0.013262
-0.000613267
-0.000102848
0.0132451
-0.00060425
-0.000214071
-0.000719719
-0.000110188
0.0135466
0.00026642
5.10154e-05
0.0140152
0.000666185
-8.44717e-05
0.0145484
0.000663056
-0.000113811
0.0148646
0.000590664
7.42498e-05
0.0153105
0.000712639
0.000202651
0.0158664
0.000877902
0.000213855
0.0159155
0.000437052
0.000151359
0.0158302
-6.25328e-05
3.90137e-05
0.0158659
-0.000163186
-7.32806e-05
0.0157214
-0.000232568
-0.000105297
0.0154289
-0.000544842
-5.65037e-05
0.0149685
-0.000771295
-1.06681e-05
0.0143576
-0.000773014
4.88533e-05
0.0139812
-0.000658995
7.86815e-05
0.0137218
-0.00058999
3.85131e-05
0.0134169
-0.000413802
4.20383e-06
0.0132679
-0.000506746
-1.64239e-05
0.0131916
-0.000520741
-1.62758e-05
0.0129271
-0.000357828
1.81242e-05
-0.000427823
2.08064e-05
0.0134651
0.000123101
1.15534e-05
0.013832
0.000312061
-1.27625e-05
0.0141953
0.000326587
-2.68001e-05
0.0145071
0.000273973
4.85027e-06
0.0148342
0.000338641
4.69114e-05
0.0152642
0.000386171
6.17338e-05
0.0154754
0.000186385
3.94695e-05
0.0154089
-3.48851e-06
7.41765e-06
0.0153352
-7.23058e-05
-1.71401e-05
0.0152604
-0.000134129
-2.36802e-05
0.0149762
-0.000242994
-1.7666e-05
0.0145825
-0.00037201
-5.53115e-06
0.014207
-0.000396441
-1.04556e-06
0.0138609
-0.000312622
-3.22337e-07
0.0135548
-0.000290438
6.53934e-06
0.0133717
-0.000233302
2.60482e-06
0.0130794
-0.00021696
2.51183e-06
0.0127821
-0.000225854
2.43655e-06
0.0126554
-0.0002201
-1.1019e-05
-0.000239729
-8.76003e-06
0.013454
2.43901e-06
0.0137679
-1.8234e-06
0.0141022
-7.72438e-06
0.0143764
-2.55588e-07
0.014703
1.20972e-05
0.015072
1.71577e-05
0.0152467
1.16424e-05
0.0152411
2.17461e-06
0.0151743
-5.57193e-06
0.0150479
-7.66287e-06
0.0148091
-4.25024e-06
0.0144366
5.25941e-07
0.0140361
4.06404e-06
0.0137185
4.92743e-06
0.0134254
2.71162e-06
0.0131919
2.13851e-07
0.0129763
-1.43423e-06
0.012752
-1.4679e-06
0.012532
-1.2024e-07
5.10986e-07
0.0134242
-9.07043e-05
-3.15333e-06
0.0137365
-0.000312998
1.50778e-06
0.0141413
-0.000406288
8.90953e-06
0.014482
-0.000339027
1.43279e-06
0.014752
-0.000264348
-1.7193e-05
0.0150577
-0.00030012
-2.39453e-05
0.0152478
-0.000189369
-1.04349e-05
0.015292
-4.65902e-05
5.40507e-06
0.0152697
2.13069e-05
1.29065e-05
0.0152104
6.20225e-05
9.46129e-06
0.0150347
0.00017958
7.35978e-07
0.0147316
0.000307143
-6.39545e-06
0.0143696
0.00036536
-9.39363e-06
0.0139861
0.000385428
-7.65641e-06
0.0135794
0.000407788
-3.80879e-06
0.0131521
0.000428341
-1.38641e-06
0.0127516
0.000401175
-2.96376e-07
0.0123462
0.000405684
-4.6508e-07
0.0120382
0.000308023
-5.42233e-07
0.000197265
-2.95893e-07
0.0134132
-0.000169867
-9.94365e-06
0.0137494
-0.000650257
1.31104e-05
0.0142319
-0.000892924
9.90292e-06
0.0146449
-0.000748842
-3.85364e-06
0.0148868
-0.000487998
-3.29648e-05
0.0152199
-0.000611112
-6.13093e-05
0.0154567
-0.000420944
-4.32444e-05
0.0154769
-7.18515e-05
9.01721e-06
0.0154663
3.41711e-05
4.03897e-05
0.0154287
0.000108904
3.04812e-05
0.0151927
0.000426962
1.46984e-05
0.0148997
0.000608311
7.26832e-06
0.0145513
0.000719879
9.47381e-06
0.0140873
0.000857183
4.74111e-07
0.0137194
0.000779592
-8.78687e-06
0.0133676
0.000779726
3.23781e-07
0.0129511
0.000816134
5.2022e-06
0.0125355
0.000821442
5.55535e-06
0.0121645
0.000680704
4.34665e-06
0.000445943
9.50116e-07
0.0134785
-0.000317141
-3.44825e-05
0.0139496
-0.00111785
0.000154476
0.0146291
-0.00157687
-5.5042e-05
0.0150496
-0.00114193
-0.000271874
0.0152794
-0.000655797
-0.000155932
0.0156256
-0.000841802
-4.72019e-06
0.0157851
-0.000485353
-5.0695e-05
0.0158713
-0.000155269
-4.39639e-05
0.0159976
-0.000127026
0.000193184
0.0159078
0.000209602
0.00029529
0.0156531
0.000730484
0.000120852
0.0152493
0.00109556
-8.09675e-05
0.0147037
0.001358
-0.00017497
0.0143816
0.00122931
-0.000146548
0.0139925
0.00118751
-7.83536e-05
0.013351
0.00143022
-6.33603e-05
0.0128475
0.0013253
-5.72271e-05
0.0124079
0.00125955
-6.03764e-05
0.0121582
0.000920094
-4.3238e-05
0.000543305
-9.23355e-06
0.013408
-0.000401746
-0.000127263
0.0139878
-0.00167283
0.000541015
0.0149668
-0.00258956
5.34454e-05
0.0159071
-0.00204371
-0.00104927
0.0160432
-0.000632999
-0.00114015
0.0160651
-0.000606473
-1.20399e-05
0.0164035
-0.000467489
0.000796407
0.0169004
-0.000397412
0.00031938
0.0169284
-0.000115899
-0.000165697
0.0165925
0.000568036
0.000480321
0.016281
0.001106
0.00092626
0.0159404
0.00146289
0.000151218
0.0155922
0.00178115
-0.00054128
0.0150408
0.00197927
-0.000594608
0.0142994
0.00213518
-0.000350238
0.0137621
0.00210634
-4.89122e-05
0.0135051
0.00168225
0.000110032
0.0130444
0.00180031
0.000201975
0.0124919
0.00154326
0.000159638
0.000845524
4.28801e-05
0.0137023
-0.000781339
-0.000184342
0.014332
-0.00219725
0.000558195
0.0160412
-0.00441104
0.000807673
0.0174004
-0.00366117
-0.000942721
0.0173961
-0.000682734
-0.00303661
0.017288
-0.000164115
-0.00278538
0.017765
-0.000611456
0.000261474
0.0181485
-0.000509185
0.00224878
0.0181276
4.53646e-05
0.000994052
0.0178863
0.000818075
-0.0010961
0.0172975
0.00183505
-0.000477822
0.0167069
0.00235564
0.0014088
0.0161199
0.00251901
0.000964838
0.0153612
0.00277716
-0.000735543
0.0149783
0.0026285
-0.00129245
0.0148968
0.00232892
-0.000815238
0.0145908
0.00208877
-0.000222843
0.013785
0.00263015
-0.000284694
0.0131924
0.00210587
-0.000268816
0.000960654
-1.10247e-05
0.0134165
-0.000849824
3.85623e-05
0.0144858
-0.00300088
-0.000458617
0.017184
-0.00718296
0.000552161
0.0199102
-0.00193033
0.000906525
-0.000700572
-0.00199619
-0.00150068
0.0200303
-0.000640457
-0.000428224
0.000179069
-0.00114897
-6.78958e-05
0.0202402
-0.000216028
-0.00268692
0.0203173
-0.000330745
-0.0020041
0.0200899
-0.000307195
0.00120831
0.0201984
-0.000345631
0.00258971
0.0199133
0.000812892
0.000665409
0.0193301
0.00233631
-0.0017724
0.0184506
0.00336464
-0.00112527
0.0170402
0.0044867
0.000924009
0.0170075
0.0035019
0.00105928
0.0165393
0.00332009
-0.000582215
0.0150954
0.00355426
-0.00230056
0.0137058
0.00334001
-0.00251556
0.0126938
0.00372039
-0.00155868
0.0127483
0.0020419
-9.38666e-05
0.000648411
0.000450591
0.0136228
-0.000711947
0.000253507
0.0163003
-0.00647947
0.00117292
0.00505116
-0.00329635
-0.0018969
-0.00204651
-0.00315178
-0.00191646
0.0055986
0.00527453
0.00550527
-0.00147711
0.00514618
-0.00209722
0.00154897
0.000276447
-0.00520785
0.00537204
-2.0112e-05
-0.00106099
0.0225621
7.02577e-05
0.00204686
-8.70902e-05
-0.000113237
0.000166596
-0.00547383
-0.00561094
-0.00546121
-0.00566505
0.0226886
-0.000283955
2.11166e-05
0.0221277
0.000369491
-0.000289814
0.0217635
-0.000392395
0.000376334
0.0211509
0.000603806
0.00133381
0.0209984
0.00168503
0.00142875
0.0214683
0.00248723
-0.000731524
0.0211644
0.00474417
-0.000430801
0.0207617
0.00375933
0.0019363
0.019439
0.00455842
0.00140824
0.0179777
0.0050909
-0.000524724
0.0173784
0.00412576
-0.00116255
0.0169163
0.00387294
4.55678e-05
0.0163393
0.00208427
0.00101848
0.000770233
0.000504117
0.0134124
0.000270178
0.000316569
0.00539849
-0.00426336
-1.05548e-05
0.00358001
0.00574233
0.00370962
-0.0016674
-0.00372267
-0.00120636
-0.000638966
0.00522119
-0.00237738
-0.0001027
-0.000148818
-0.00142955
0.000582065
0.0016033
-0.00077193
0.000164938
-5.29523e-05
-0.00159242
-0.000163711
0.00157157
7.19846e-05
0.000165524
-0.0015581
-0.00145396
0.00505684
0.00176978
-0.00121104
-0.00143182
-0.00122616
2.87387e-05
4.93904e-05
-3.10746e-05
7.76596e-05
0.0152992
-0.00108375
0.000457689
-0.00450046
-0.000479561
-0.00538745
-0.0018104
-0.000670694
-0.000884827
-0.000584982
0.0151331
2.71894e-05
-0.00176751
0.0145668
-0.000374182
-0.00373304
0.0144529
0.000779645
-0.00183592
0.0150833
0.00110627
0.000854799
0.0159875
0.00101301
0.000598022
0.0167263
0.00318526
0.000482817
0.0174182
0.00240542
0.00157873
0.0177693
0.00377008
0.0012277
0.0183388
0.00451858
0.00079297
0.018611
0.00388043
0.000417924
0.0189761
0.00359044
-0.000337646
0.019299
0.00233177
0.000306653
0.00113508
0.000598791
0.00368374
0.000361923
0.000713521
0.00382519
0.00363687
0.00283376
0.00151977
0.00327372
-0.00336908
-0.00200403
0.00061249
0.000958802
-0.00135801
0.00157961
-0.00124219
-0.000550701
0.000939108
7.48035e-05
-0.000385481
-0.00114496
-0.000907642
0.000143506
5.99656e-05
0.000136945
-0.000264081
-0.00079838
-0.000921352
0.00014449
0.000348282
-0.000117671
0.000595112
0.000883227
-0.000518529
3.23035e-05
0.00170998
0.000349221
0.00229096
0.00220588
-3.91253e-05
0.00164847
0.0045711
-0.00158989
-0.00197425
0.00691669
0.00118559
-4.18907e-05
0.00878896
0.000526798
0.00064299
0.0112741
0.00140181
0.00015883
0.0128584
0.00323562
0.00146955
0.0140998
0.00289574
0.000375312
0.0148495
0.00337148
0.000366476
0.0142247
0.00289162
0.000584365
0.00104309
-0.000175996
0.00657072
-0.00268257
0.00301559
0.00183985
0.00467404
0.00186212
-0.00032656
0.00252218
-0.000394048
-0.000540396
0.00132554
0.00144858
0.00123596
0.00129947
-0.000645867
0.00065503
-0.000852035
0.000842872
0.000234961
0.000151138
8.57143e-05
-0.000122277
-6.85775e-05
-0.000280959
-0.00629433
0.000162549
0.000603622
0.00137112
0.00115712
0.0014009
0.00104454
-0.00650454
-0.000824319
0.00104575
-0.0067907
0.000785092
0.00286123
-0.00609019
-0.000271764
-0.00151097
-0.00425203
-0.0025214
-0.00165461
-0.00216494
-0.000942598
0.000873206
8.44275e-06
-0.00196061
0.00135552
0.00298329
-0.00150026
0.00147871
0.00408621
0.00200334
0.000555346
0.00552549
0.00138795
-0.000663418
0.006067
0.0026485
-0.000520811
0.00577562
0.00280692
-0.00164777
0.000230771
-0.00123246
-7.11364e-05
-0.00224572
0.00159798
0.00519368
-0.000921152
0.00623185
-0.0033509
-0.000824278
0.000814952
0.00373583
-6.53026e-05
-0.000135375
-0.000162054
-8.40059e-05
6.30165e-05
-5.94758e-05
2.28435e-05
4.58661e-05
-7.22502e-05
-0.00442657
0.00168349
0.000135961
-3.76935e-05
0.00131406
0.000195769
0.00155611
-0.00628207
0.000360516
-0.00109844
-0.00624045
0.000892583
-0.00240641
-0.0051748
-0.000463132
-0.00119238
-0.0046624
-0.00276345
0.00192726
-0.0026769
-0.00335942
0.000518413
-0.00162711
-0.00342624
1.625e-05
-8.21467e-05
-0.00312258
0.00168932
0.00158037
0.000372417
-0.000137739
0.00292749
2.95781e-05
-0.0002005
0.00441084
0.00121047
-1.73895e-05
0.00619793
0.00115136
-0.00134826
-0.00113974
-0.000761428
0.00334678
-0.000920302
0.00293843
0.00377546
0.00386463
0.00467009
0.00119593
-0.00268944
0.00351088
0.00342166
-0.00209224
0.000136552
-0.00053262
-0.00082635
0.00112771
9.47122e-05
-0.000221758
-0.00015293
6.78951e-05
-0.00030672
0.00107106
0.00016983
-0.000264815
-0.00015124
-0.000273259
-1.27546e-05
7.66734e-05
-1.98073e-06
0.00142156
0.000456933
0.00168687
0.000281019
-0.000446346
0.000426595
-4.39044e-05
0.00215865
0.000257693
-0.00176774
0.00331503
-0.000468452
-0.000401298
0.0050425
-0.00199045
-0.000115966
0.00583504
-0.00406588
0.000237299
0.00661114
-0.00443815
0.000668778
0.00709126
-0.00387871
-0.00144539
0.00733402
-0.00367137
-5.50836e-05
0.00844177
-0.000906712
0.00155381
0.00965236
-0.00104985
0.000363441
0.0108747
-2.46135e-05
0.000470837
0.0128504
-0.000790032
0.00087333
-0.00256116
0.000117953
0.0137916
0.000650038
0.000143744
0.00331656
0.00608567
0.000577445
-0.00370987
-0.00110092
-0.00435464
-0.00131765
0.00570876
0.00304568
0.00562196
-0.00109384
-0.00112398
0.00348326
0.000728341
-0.000984844
-0.00107382
-0.000962355
0.00116348
0.0010081
0.00116217
0.00101005
-3.9039e-05
0.000359732
-0.000351059
3.03659e-05
0.0156884
-0.00042848
-5.02008e-05
-0.000697683
-0.000328959
-0.000801677
-0.000486326
-0.00257368
-0.00595536
-0.00146643
-0.00521281
0.0156674
-0.000259771
0.00201167
0.0165669
-0.000806732
0.00258188
0.0171856
-0.00101798
0.00213868
0.0178671
-0.00282408
0.00158249
0.018054
-0.00455915
0.00108367
0.0176162
-0.00428121
-2.48408e-05
0.0171421
-0.00379671
-0.000657405
0.016729
-0.00344498
-0.00148043
0.0170786
-0.00133846
-0.00122133
0.0176246
-0.00165209
-8.15909e-05
0.0184819
-0.000776933
0.000562515
0.0192511
-0.00161459
0.000869148
-0.00280795
0.000500267
0.0134197
0.00148957
-4.09164e-05
0.0170296
0.00331021
-0.00041234
0.00560617
0.00711039
0.00127703
-0.00383872
-0.00240328
-0.0039177
-0.0022813
0.00555285
0.00542259
0.00536695
-0.000550823
-0.000729027
0.00622913
0.0017134
0.000466072
-0.000457907
-0.00058222
-0.000482452
9.02018e-05
-0.000491977
-0.00623645
0.00578339
0.000416915
-5.93986e-06
0.000195345
8.29337e-05
0.000165576
0.022951
0.000715121
-0.00350567
0.000268261
0.000235315
0.000194399
-8.3041e-05
-0.00600916
-0.00569532
-0.00605829
-0.00547305
0.0223275
0.000587771
-0.00239527
0.0217661
0.000578074
-0.0021205
0.0213741
-0.000253929
-0.00061007
0.0214109
-0.00100237
0.000428795
0.0210742
-0.00273066
0.00021893
0.020367
-0.00429598
-0.000354505
0.0199543
-0.00408285
0.000494656
0.0196398
-0.00343092
0.000894319
0.019302
-0.0028784
0.000488643
0.0195092
-0.00134152
-0.000347208
0.0192625
-0.001337
-0.000799977
0.0194729
-0.00104797
-1.39271e-05
0.0190297
-0.0013597
-0.000304726
-0.00188962
-0.000568286
0.0136511
0.00106399
0.000374165
0.0153182
0.00276641
-0.000645389
0.0177302
0.00347088
7.72786e-05
0.0195489
0.0023957
-0.00147324
-0.00151287
-0.00124102
-0.00161864
-0.00119123
0.0196224
0.00152332
-0.00155656
-0.000810847
-0.00018913
-0.000892193
0.000261494
0.019465
0.00164218
-0.000565252
0.019658
0.00111463
8.50063e-05
0.0199558
0.000603091
-0.000216159
0.0200611
-0.000183772
-0.000432527
0.0198064
-0.000691008
-0.000501629
0.0186773
-0.00167671
-0.000375506
0.0174154
-0.00289638
-0.000239905
0.016571
-0.00284184
-0.0007235
0.0157822
-0.00209303
-0.000934624
0.0153304
-0.00199921
-0.00013349
0.0151156
-0.000946057
0.000512271
0.0148747
-0.00103955
0.000766007
0.0149698
-0.00125901
-0.000543318
0.0141928
-0.000622724
-0.00122883
-0.000897984
-0.000333478
0.0137228
0.000624165
0.000417722
0.0146711
0.00200913
-0.000703699
0.0159879
0.00188393
-0.000808016
0.016866
0.00137593
-0.000159236
0.0173077
0.00127683
0.000509022
0.0174914
0.00158353
0.00103024
0.0178321
0.000766541
0.00104549
0.0182138
0.000238283
0.000736071
0.018041
-0.000139427
0.000279959
0.0176978
-0.000572275
-0.000280671
0.0171449
-0.00112721
-0.000574164
0.0163797
-0.00195928
-0.000699565
0.0156402
-0.00195505
-0.000405312
0.0148406
-0.00123084
1.32116e-05
0.0141589
-0.00127458
0.000125912
0.0141741
-0.000902782
0.000132137
0.0141335
-0.000927256
-0.000125274
0.0140428
-0.00105858
-4.58503e-05
0.0141761
-0.00072813
0.000307245
-0.000869979
0.00020472
0.0135175
0.000441959
0.000154734
0.0142797
0.00121184
-0.000235768
0.0149193
0.00124949
-0.000320289
0.0156013
0.000792659
5.37293e-05
0.0160405
0.00097902
0.000387675
0.0163783
0.00133156
0.000531765
0.0166278
0.000509358
0.000388715
0.0168092
-5.54745e-05
0.000192162
0.0165958
-5.03161e-05
1.36858e-05
0.016348
-0.00035372
-0.000239812
0.0161101
-0.000861711
-0.000344507
0.0154405
-0.00128291
-5.0779e-05
0.0148901
-0.00141545
0.000159266
0.0147034
-0.00104098
0.000164746
0.0142813
-0.000848828
0.000175751
0.0140831
-0.000713675
9.90204e-05
0.0138086
-0.000665181
3.79238e-05
0.0133295
-0.000607522
-7.47804e-05
0.0132206
-0.000618015
-0.000215294
-0.000735571
-0.000136711
0.013537
0.000245972
4.39879e-05
0.0140289
0.000693796
-5.82806e-05
0.0145726
0.000705624
-0.000113735
0.0148508
0.000565659
2.30534e-05
0.0152626
0.000626853
0.000143038
0.0158212
0.000793761
0.00019304
0.0159012
0.000400383
0.000180343
0.0158498
-5.44796e-05
8.94236e-05
0.0159007
-0.000131903
-4.26031e-05
0.0157505
-0.00020216
-0.000106619
0.015433
-0.000527971
-7.27855e-05
0.0149427
-0.000770181
-3.30607e-05
0.0143262
-0.000778059
2.79278e-05
0.0139617
-0.000663823
6.60277e-05
0.0137164
-0.000598131
3.31832e-05
0.0134233
-0.000415425
-1.01826e-06
0.013271
-0.000508015
-2.12915e-05
0.0131923
-0.000521283
-2.37654e-05
0.0129282
-0.000346588
1.07407e-05
-0.000420487
2.06349e-05
0.0134622
0.000119528
9.09732e-06
0.0138322
0.000316123
-5.0839e-06
0.0142005
0.000335616
-2.50935e-05
0.0145078
0.000270512
-7.302e-06
0.0148278
0.000322253
3.15397e-05
0.0152558
0.000368745
5.87651e-05
0.0154711
0.000177291
4.72479e-05
0.0154104
-2.88534e-06
1.64671e-05
0.0153403
-6.51006e-05
-1.38377e-05
0.015265
-0.000126308
-2.42357e-05
0.014978
-0.000239741
-1.89009e-05
0.0145818
-0.000373987
-5.44615e-06
0.0142046
-0.000401709
-2.72916e-07
0.013859
-0.000318032
-4.64777e-07
0.0135548
-0.000293035
5.68528e-06
0.0133725
-0.000233348
2.79142e-06
0.0130798
-0.00021565
2.83764e-06
0.0127821
-0.000224651
3.55268e-06
0.0126552
-0.000220471
-1.03098e-05
-0.000240425
-9.78506e-06
0.0134533
2.00553e-06
0.0137674
2.24858e-07
0.0141027
-7.43542e-06
0.0143767
-3.80467e-06
0.0147024
8.73558e-06
0.0150714
1.68894e-05
0.0152462
1.40966e-05
0.0152409
4.58667e-06
0.0151748
-4.59027e-06
0.015049
-8.13017e-06
0.01481
-5.04389e-06
0.0144369
-3.35449e-07
0.0140359