/*--------------------------------*- C++ -*----------------------------------*\
  =========                 |
  \\      /  F ield         | OpenFOAM: The Open Source CFD Toolbox
   \\    /   O peration     | Website:  https://openfoam.org
    \\  /    A nd           | Version:  8
     \\/     M anipulation  |
\*---------------------------------------------------------------------------*/
FoamFile
{
    version     2.0;
    format      ascii;
    class       volScalarField;
    location    "0.04";
    object      p;
}
// * * * * * * * * * * * * * * * * * * * * * * * * * * * * * * * * * * * * * //

dimensions      [0 2 -2 0 0 0 0];

internalField   nonuniform List<scalar> 
400
(
-5.27527e-08
-0.00463371
-0.011242
-0.0181746
-0.0231477
-0.0243844
-0.0212133
-0.013796
-0.00281714
0.0106648
0.025374
0.0399628
0.0531075
0.0636541
0.0707233
0.0738225
0.0730388
0.0691982
0.0639039
0.0598056
0.00411517
-0.00291562
-0.00939707
-0.0151262
-0.0188459
-0.0193329
-0.0161114
-0.00937426
0.000230517
0.0118469
0.0244714
0.0369597
0.0481814
0.0572036
0.0633789
0.0663963
0.0663903
0.0639683
0.0599259
0.0555652
0.00858034
-0.00161733
-0.00923166
-0.014939
-0.0181688
-0.0181588
-0.0147286
-0.00814847
0.000971503
0.0118509
0.0236019
0.0352084
0.0456168
0.0539659
0.0597092
0.0626072
0.0627486
0.0605201
0.0559999
0.0495314
0.0103641
-0.00271377
-0.0117841
-0.0175881
-0.0204559
-0.0199121
-0.0160022
-0.00911444
0.000156057
0.011086
0.0228355
0.0344103
0.0447706
0.0530798
0.0588073
0.061675
0.0616652
0.0589851
0.0531725
0.0439749
0.00906792
-0.00630759
-0.0165332
-0.0224254
-0.0248516
-0.0236777
-0.0191304
-0.0116309
-0.0017703
0.00972454
0.0220072
0.0340937
0.0449653
0.0537735
0.0599141
0.0629907
0.0628688
0.0596111
0.052283
0.0402322
0.0048316
-0.0126489
-0.0238769
-0.0297915
-0.0317336
-0.0298145
-0.024359
-0.0158425
-0.0049114
0.00766888
0.0210467
0.0342668
0.0463238
0.0563015
0.0634413
0.0671659
0.0671918
0.0634066
0.0543963
0.0392415
-0.00269357
-0.0224618
-0.034752
-0.0406489
-0.0420012
-0.0390633
-0.0322538
-0.022197
-0.00963993
0.00464012
0.0198182
0.0349568
0.0490224
0.060983
0.0698798
0.0748991
0.0755236
0.0713715
0.0604944
0.0417831
-0.0143678
-0.0369063
-0.050374
-0.0561199
-0.056556
-0.0521081
-0.0433696
-0.0311593
-0.0163168
0.000393435
0.0181836
0.0361139
0.0530935
0.0679573
0.0795239
0.0866764
0.0885394
0.0843374
0.0714741
0.0486157
-0.0314802
-0.0574655
-0.0721619
-0.0773884
-0.0763035
-0.0696557
-0.0582886
-0.043199
-0.0252958
-0.00534029
0.0159102
0.0375251
0.0583763
0.0771809
0.0925146
0.102868
0.106873
0.103215
0.088417
0.0607516
-0.0557955
-0.0859213
-0.101702
-0.105721
-0.102226
-0.0924836
-0.0776328
-0.0588168
-0.0369949
-0.0129403
0.0126248
0.0388377
0.0646086
0.0885802
0.109061
0.12405
0.131546
0.129504
0.113119
0.0799278
-0.0897032
-0.124602
-0.140955
-0.142634
-0.135472
-0.121435
-0.102004
-0.0784708
-0.0518246
-0.0228154
0.00792243
0.0396908
0.0715523
0.102149
0.129526
0.15112
0.164157
0.165549
0.148434
0.108967
-0.13663
-0.17675
-0.192507
-0.189974
-0.177268
-0.15723
-0.131769
-0.102357
-0.0699683
-0.0352118
0.00150158
0.0397743
0.0789547
0.117803
0.154189
0.185018
0.206613
0.21439
0.198368
0.152129
-0.201808
-0.247033
-0.259727
-0.249767
-0.228572
-0.2001
-0.166748
-0.130142
-0.0911229
-0.0499661
-0.00664443
0.0389291
0.0865529
0.1353
0.183106
0.226546
0.261001
0.279863
0.26858
0.216084
-0.29373
-0.342209
-0.346699
-0.323757
-0.289522
-0.249274
-0.205764
-0.160567
-0.114132
-0.0661458
-0.015898
0.037403
0.0942361
0.154317
0.216108
0.276309
0.329578
0.36695
0.3675
0.311911
-0.427136
-0.472033
-0.457702
-0.412443
-0.358464
-0.302117
-0.245931
-0.190876
-0.136569
-0.0817806
-0.024866
0.0359061
0.102006
0.174283
0.252435
0.334138
0.414154
0.481561
0.507504
0.4587
-0.628488
-0.650189
-0.596026
-0.51356
-0.430658
-0.353163
-0.282038
-0.216533
-0.154715
-0.0940296
-0.0316448
0.0353365
0.109713
0.194039
0.290176
0.398214
0.514947
0.629472
0.70565
0.689154
-0.946178
-0.89442
-0.762052
-0.62086
-0.497671
-0.394057
-0.30688
-0.231822
-0.164319
-0.0999685
-0.034521
0.036228
0.116641
0.211483
0.325879
0.464507
0.629494
0.814333
0.98339
1.05882
-1.49015
-1.22608
-0.943798
-0.717414
-0.543894
-0.412344
-0.311503
-0.230788
-0.161755
-0.0977728
-0.0331952
0.0373495
0.119718
0.22112
0.351021
0.521469
0.744622
1.02795
1.36801
1.68763
-2.55433
-1.6552
-1.07021
-0.739045
-0.524763
-0.379704
-0.27905
-0.204193
-0.142805
-0.0867811
-0.0300224
0.0330382
0.108773
0.20591
0.337892
0.525736
0.798262
1.20391
1.87769
2.87815
-4.38047
-2.06989
-1.0006
-0.59339
-0.389946
-0.271564
-0.198715
-0.148253
-0.107327
-0.0689378
-0.0285172
0.0179329
0.0752041
0.1507
0.257912
0.422582
0.692796
1.19538
2.37836
4.8027
)
;

boundaryField
{
    movingWall
    {
        type            zeroGradient;
    }
    fixedWalls
    {
        type            zeroGradient;
    }
    frontAndBack
    {
        type            empty;
    }
}


// ************************************************************************* //
