/*--------------------------------*- C++ -*----------------------------------*\
  =========                 |
  \\      /  F ield         | OpenFOAM: The Open Source CFD Toolbox
   \\    /   O peration     | Website:  https://openfoam.org
    \\  /    A nd           | Version:  8
     \\/     M anipulation  |
\*---------------------------------------------------------------------------*/
FoamFile
{
    version     2.0;
    format      ascii;
    class       surfaceScalarField;
    location    "0.04";
    object      phi;
}
// * * * * * * * * * * * * * * * * * * * * * * * * * * * * * * * * * * * * * //

dimensions      [0 3 -1 0 0 0 0];

internalField   nonuniform List<scalar> 
760
(
1.31145e-08
-1.31147e-08
-4.30854e-09
1.74232e-08
-6.08862e-08
5.65778e-08
-1.52528e-07
9.16418e-08
-2.67442e-07
1.14914e-07
-3.8933e-07
1.21888e-07
-5.0338e-07
1.14049e-07
-5.97061e-07
9.36808e-08
-6.6118e-07
6.41181e-08
-6.89591e-07
2.84116e-08
-6.79425e-07
-1.01661e-08
-6.31221e-07
-4.82036e-08
-5.4908e-07
-8.21411e-08
-4.40559e-07
-1.08522e-07
-3.16706e-07
-1.23853e-07
-1.91982e-07
-1.24724e-07
-8.34455e-08
-1.08536e-07
-9.11104e-09
-7.43346e-08
1.6104e-08
-2.5215e-08
1.61038e-08
-4.03354e-08
2.72209e-08
-1.63319e-07
1.40406e-07
-3.63004e-07
2.56263e-07
-6.25764e-07
3.544e-07
-9.211e-07
4.10251e-07
-1.21542e-06
4.16211e-07
-1.47841e-06
3.77034e-07
-1.68584e-06
3.01111e-07
-1.81982e-06
1.98104e-07
-1.86933e-06
7.79205e-08
-1.82999e-06
-4.95054e-08
-1.7041e-06
-1.74091e-07
-1.5009e-06
-2.85345e-07
-1.23707e-06
-3.72353e-07
-9.36736e-07
-4.24186e-07
-6.30603e-07
-4.30859e-07
-3.53862e-07
-3.85277e-07
-1.42167e-07
-2.8603e-07
-2.38939e-08
-1.43488e-07
-7.78986e-09
-9.83985e-08
1.25619e-07
-3.33949e-07
3.75958e-07
-6.73511e-07
5.95825e-07
-1.08718e-06
7.6807e-07
-1.53106e-06
8.54126e-07
-1.96039e-06
8.4554e-07
-2.3354e-06
7.52049e-07
-2.62523e-06
5.90939e-07
-2.80802e-06
3.80895e-07
-2.87044e-06
1.40342e-07
-2.8075e-06
-1.1245e-07
-2.62279e-06
-3.58794e-07
-2.32892e-06
-5.79221e-07
-1.94779e-06
-7.53482e-07
-1.51082e-06
-8.61156e-07
-1.0582e-06
-8.83473e-07
-6.3658e-07
-8.069e-07
-2.9454e-07
-6.28069e-07
-7.45758e-08
-3.63452e-07
-8.23656e-08
-1.38439e-07
2.64058e-07
-4.65592e-07
7.03111e-07
-9.24762e-07
1.05499e-06
-1.46724e-06
1.31055e-06
-2.03759e-06
1.42448e-06
-2.58153e-06
1.38949e-06
-3.05307e-06
1.22359e-06
-3.41623e-06
9.54094e-07
-3.6454e-06
6.10065e-07
-3.72517e-06
2.20117e-07
-3.64986e-06
-1.87762e-07
-3.42333e-06
-5.85323e-07
-3.05953e-06
-9.43022e-07
-2.58333e-06
-1.22968e-06
-2.03108e-06
-1.41341e-06
-1.45018e-06
-1.46438e-06
-8.9708e-07
-1.36e-06
-4.33239e-07
-1.09191e-06
-1.18002e-07
-6.78689e-07
-2.00368e-07
-1.6904e-07
4.33098e-07
-5.80451e-07
1.11452e-06
-1.15429e-06
1.62883e-06
-1.81972e-06
1.97598e-06
-2.50874e-06
2.1135e-06
-3.15934e-06
2.04008e-06
-3.72001e-06
1.78426e-06
-4.15114e-06
1.38522e-06
-4.42487e-06
8.83798e-07
-4.5242e-06
3.19446e-07
-4.44224e-06
-2.69718e-07
-4.18223e-06
-8.45333e-07
-3.75825e-06
-1.36701e-06
-3.19646e-06
-1.79146e-06
-2.53649e-06
-2.07338e-06
-1.83194e-06
-2.16893e-06
-1.1494e-06
-2.04254e-06
-5.64866e-07
-1.67644e-06
-1.57296e-07
-1.08626e-06
-3.57665e-07
-2.00385e-07
6.33484e-07
-6.98814e-07
1.61295e-06
-1.39196e-06
2.32197e-06
-2.18519e-06
2.76921e-06
-2.99488e-06
2.9232e-06
-3.75107e-06
2.79627e-06
-4.3981e-06
2.43129e-06
-4.89441e-06
1.88153e-06
-5.21117e-06
1.20056e-06
-5.3306e-06
4.38884e-07
-5.24485e-06
-3.55477e-07
-4.9558e-06
-1.13437e-06
-4.47628e-06
-1.84653e-06
-3.83209e-06
-2.43566e-06
-3.0646e-06
-2.84087e-06
-2.23294e-06
-3.00058e-06
-1.41446e-06
-2.86102e-06
-7.01955e-07
-2.38894e-06
-1.97292e-07
-1.59092e-06
-5.54956e-07
-2.36968e-07
8.70451e-07
-8.32178e-07
2.20816e-06
-1.6557e-06
3.14549e-06
-2.58564e-06
3.69915e-06
-3.52151e-06
3.85907e-06
-4.38483e-06
3.65959e-06
-5.1169e-06
3.16335e-06
-5.67604e-06
2.44068e-06
-6.03428e-06
1.5588e-06
-6.17428e-06
5.78888e-07
-6.08752e-06
-4.42238e-07
-5.77396e-06
-1.44793e-06
-5.24361e-06
-2.37688e-06
-4.51975e-06
-3.15952e-06
-3.6434e-06
-3.71722e-06
-2.67782e-06
-3.96616e-06
-1.71138e-06
-3.82747e-06
-8.56331e-07
-3.244e-06
-2.42244e-07
-2.20501e-06
-7.972e-07
-2.82383e-07
1.15283e-06
-9.88934e-07
2.91471e-06
-1.95665e-06
4.11321e-06
-3.03307e-06
4.77557e-06
-4.09928e-06
4.92528e-06
-5.06864e-06
4.62894e-06
-5.88135e-06
3.97607e-06
-6.49824e-06
3.05756e-06
-6.8946e-06
1.95517e-06
-7.05529e-06
7.39573e-07
-6.97169e-06
-5.25837e-07
-6.64113e-06
-1.77849e-06
-6.06885e-06
-2.94916e-06
-5.27268e-06
-3.95569e-06
-4.28988e-06
-4.70002e-06
-3.18503e-06
-5.071e-06
-2.05664e-06
-4.95586e-06
-1.03913e-06
-4.2615e-06
-2.96363e-07
-2.94778e-06
-1.09356e-06
-3.39248e-07
1.49208e-06
-1.17569e-06
3.75116e-06
-2.30232e-06
5.23983e-06
-3.53179e-06
6.00504e-06
-4.72586e-06
6.11935e-06
-5.79183e-06
5.69492e-06
-6.67249e-06
4.85672e-06
-7.33507e-06
3.72014e-06
-7.76162e-06
2.38171e-06
-7.94152e-06
9.19469e-07
-7.86704e-06
-6.00315e-07
-7.53219e-06
-2.11335e-06
-6.93502e-06
-3.54632e-06
-6.08381e-06
-4.80691e-06
-5.00682e-06
-5.77701e-06
-3.76481e-06
-6.313e-06
-2.46341e-06
-6.25726e-06
-1.26107e-06
-5.46384e-06
-3.64345e-07
-3.8445e-06
-1.45791e-06
-4.10686e-07
1.90277e-06
-1.39844e-06
4.73891e-06
-2.69664e-06
6.53803e-06
-4.0772e-06
7.38561e-06
-5.38342e-06
7.42557e-06
-6.52144e-06
6.83294e-06
-7.44275e-06
5.77803e-06
-8.12695e-06
4.40434e-06
-8.56751e-06
2.82228e-06
-8.7616e-06
1.11355e-06
-8.70382e-06
-6.58094e-07
-8.38435e-06
-2.43282e-06
-7.79132e-06
-4.13936e-06
-6.91819e-06
-5.68003e-06
-5.77676e-06
-6.91845e-06
-4.4154e-06
-7.67437e-06
-2.9401e-06
-7.73256e-06
-1.53236e-06
-6.87159e-06
-4.51413e-07
-4.92545e-06
-1.90932e-06
-5.00959e-07
2.40373e-06
-1.66349e-06
5.90144e-06
-3.13895e-06
8.01349e-06
-4.65218e-06
8.89884e-06
-6.03255e-06
8.80593e-06
-7.19417e-06
7.99457e-06
-8.10691e-06
6.69077e-06
-8.77091e-06
5.06834e-06
-9.19716e-06
3.24853e-06
-9.39447e-06
1.31086e-06
-9.36183e-06
-6.90738e-07
-9.08554e-06
-2.70911e-06
-8.54122e-06
-4.68367e-06
-7.70166e-06
-6.51959e-06
-6.55241e-06
-8.0677e-06
-5.1165e-06
-9.11028e-06
-3.48734e-06
-9.36172e-06
-1.86274e-06
-8.49619e-06
-5.63883e-07
-6.22431e-06
-2.4732e-06
-6.1711e-07
3.02084e-06
-1.97839e-06
7.26272e-06
-3.62141e-06
9.65651e-06
-5.22017e-06
1.04976e-05
-6.60179e-06
1.01875e-05
-7.70411e-06
9.09689e-06
-8.52936e-06
7.51602e-06
-9.10837e-06
5.64735e-06
-9.47625e-06
3.61641e-06
-9.65753e-06
1.49215e-06
-9.65791e-06
-6.90363e-07
-9.46065e-06
-2.90636e-06
-9.02743e-06
-5.11689e-06
-8.3051e-06
-7.24192e-06
-7.24201e-06
-9.1308e-06
-5.81816e-06
-1.05341e-05
-4.09224e-06
-1.10876e-05
-2.26107e-06
-1.03274e-05
-7.11109e-07
-7.77427e-06
-3.18431e-06
-7.7173e-07
3.79257e-06
-2.35213e-06
8.84312e-06
-4.12246e-06
1.14268e-05
-5.71192e-06
1.20871e-05
-6.97054e-06
1.14462e-05
-7.88494e-06
1.00113e-05
-8.50779e-06
8.13888e-06
-8.91107e-06
6.05063e-06
-9.15927e-06
3.8646e-06
-9.29536e-06
1.62823e-06
-9.33383e-06
-6.51896e-07
-9.25701e-06
-2.98318e-06
-9.01387e-06
-5.36003e-06
-8.52328e-06
-7.73251e-06
-7.68698e-06
-9.96709e-06
-6.42111e-06
-1.18e-05
-4.71637e-06
-1.27924e-05
-2.73234e-06
-1.23114e-05
-9.07515e-07
-9.5991e-06
-4.09183e-06
-9.86938e-07
4.7795e-06
-2.79195e-06
1.06481e-05
-4.59061e-06
1.32255e-05
-5.99977e-06
1.34962e-05
-6.94057e-06
1.2387e-05
-7.48429e-06
1.0555e-05
-7.75312e-06
8.4077e-06
-7.86696e-06
6.16447e-06
-7.92008e-06
3.91773e-06
-7.97283e-06
1.68099e-06
-8.04906e-06
-5.75666e-07
-8.13363e-06
-2.89862e-06
-8.16858e-06
-5.32507e-06
-8.04978e-06
-7.85131e-06
-7.6303e-06
-1.03866e-05
-6.74405e-06
-1.26862e-05
-5.27084e-06
-1.42656e-05
-3.26812e-06
-1.43141e-05
-1.1744e-06
-1.16928e-05
-5.26622e-06
-1.29802e-06
6.07753e-06
-3.28694e-06
1.2637e-05
-4.90407e-06
1.48426e-05
-5.84667e-06
1.44388e-05
-6.18853e-06
1.27288e-05
-6.12777e-06
1.04943e-05
-5.86755e-06
8.14749e-06
-5.57095e-06
5.86787e-06
-5.35204e-06
3.69881e-06
-5.28044e-06
1.60939e-06
-5.38662e-06
-4.6949e-07
-5.66237e-06
-2.62286e-06
-6.05454e-06
-4.9329e-06
-6.45256e-06
-7.4533e-06
-6.67495e-06
-1.01642e-05
-6.4704e-06
-1.28908e-05
-5.56638e-06
-1.51696e-05
-3.81928e-06
-1.60612e-05
-1.53941e-06
-1.39727e-05
-6.80564e-06
-1.74261e-06
7.82013e-06
-3.74567e-06
1.46401e-05
-4.77283e-06
1.58698e-05
-4.8082e-06
1.44742e-05
-4.19135e-06
1.2112e-05
-3.2746e-06
9.5775e-06
-2.32743e-06
7.20032e-06
-1.52836e-06
5.0688e-06
-9.85475e-07
3.15593e-06
-7.59818e-07
1.38373e-06
-8.80867e-07
-3.48441e-07
-1.35133e-06
-2.1524e-06
-2.13988e-06
-4.14435e-06
-3.16018e-06
-6.433e-06
-4.23644e-06
-9.08792e-06
-5.06579e-06
-1.20614e-05
-5.21304e-06
-1.50224e-05
-4.2177e-06
-1.70565e-05
-2.01395e-06
-1.61764e-05
-8.81959e-06
-2.29071e-06
1.01108e-05
-3.80652e-06
1.61559e-05
-3.51855e-06
1.55818e-05
-2.05848e-06
1.30141e-05
-1.21616e-07
1.01751e-05
1.82506e-06
7.63082e-06
3.515e-06
5.51038e-06
4.81511e-06
3.76869e-06
5.66593e-06
2.30511e-06
6.04078e-06
1.00889e-06
5.92304e-06
-2.307e-07
5.2978e-06
-1.52716e-06
4.15713e-06
-3.00368e-06
2.52311e-06
-4.79898e-06
4.96769e-07
-7.06158e-06
-1.66133e-06
-9.90336e-06
-3.43158e-06
-1.32521e-05
-3.98276e-06
-1.65054e-05
-2.5021e-06
-1.76571e-05
-1.13217e-05
-2.60109e-06
1.27119e-05
-2.33681e-06
1.58916e-05
3.78414e-07
1.28666e-05
3.88635e-06
9.50618e-06
7.26647e-06
6.79499e-06
1.01373e-05
4.75999e-06
1.23817e-05
3.26601e-06
1.39977e-05
2.1527e-06
1.50192e-05
1.28357e-06
1.5476e-05
5.52082e-07
1.5375e-05
-1.29674e-07
1.46927e-05
-8.44836e-07
1.33755e-05
-1.68649e-06
1.13519e-05
-2.77545e-06
8.57059e-06
-4.28024e-06
5.09145e-06
-6.42422e-06
1.27487e-06
-9.43551e-06
-1.88913e-06
-1.33414e-05
-2.5452e-06
-1.7001e-05
-1.38669e-05
-8.17377e-07
1.35293e-05
4.01456e-06
1.10597e-05
1.01239e-05
6.7573e-06
1.54523e-05
4.17771e-06
1.96097e-05
2.63768e-06
2.26881e-05
1.6816e-06
2.48794e-05
1.07462e-06
2.63601e-05
6.72045e-07
2.72592e-05
3.84465e-07
2.76546e-05
1.56685e-07
2.75743e-05
-4.94199e-08
2.69959e-05
-2.66387e-07
2.58408e-05
-5.31359e-07
2.39649e-05
-8.99556e-07
2.11512e-05
-1.4666e-06
1.71307e-05
-2.40369e-06
1.1713e-05
-4.01777e-06
5.22713e-06
-6.85551e-06
-2.32668e-07
-1.15412e-05
-1.40996e-05
1.35293e-05
2.4589e-05
3.13463e-05
3.5524e-05
3.81617e-05
3.98433e-05
4.09179e-05
4.159e-05
4.19744e-05
4.21311e-05
4.20817e-05
4.18153e-05
4.12839e-05
4.03844e-05
3.89178e-05
3.65141e-05
3.24963e-05
2.56408e-05
1.40996e-05
)
;

boundaryField
{
    movingWall
    {
        type            calculated;
        value           uniform 0;
    }
    fixedWalls
    {
        type            calculated;
        value           uniform 0;
    }
    frontAndBack
    {
        type            empty;
        value           nonuniform List<scalar> 0();
    }
}


// ************************************************************************* //
