/*--------------------------------*- C++ -*----------------------------------*\
  =========                 |
  \\      /  F ield         | OpenFOAM: The Open Source CFD Toolbox
   \\    /   O peration     | Website:  https://openfoam.org
    \\  /    A nd           | Version:  8
     \\/     M anipulation  |
\*---------------------------------------------------------------------------*/
FoamFile
{
    version     2.0;
    format      ascii;
    class       volVectorField;
    location    "0.04";
    object      U;
}
// * * * * * * * * * * * * * * * * * * * * * * * * * * * * * * * * * * * * * //

dimensions      [0 1 -1 0 0 0 0];

internalField   nonuniform List<vector> 
400
(
(0.0001874 -0.000289134 0)
(0.000245864 -0.000196997 0)
(-0.000511917 7.95697e-05 0)
(-0.00202242 0.00038914 0)
(-0.00415212 0.000631913 0)
(-0.00657318 0.000758898 0)
(-0.00899026 0.000772875 0)
(-0.0111106 0.000679517 0)
(-0.0127197 0.000500645 0)
(-0.0136651 0.000260965 0)
(-0.0138534 -1.29289e-05 0)
(-0.0132598 -0.000289433 0)
(-0.0119326 -0.000537786 0)
(-0.00998742 -0.000731128 0)
(-0.00761086 -0.000841424 0)
(-0.00506088 -0.000838207 0)
(-0.00265735 -0.000697292 0)
(-0.000758912 -0.000410711 0)
(0.000262021 -9.72816e-06 0)
(0.000275165 0.000275928 0)
(-0.000315957 -8.64621e-05 0)
(-0.00165916 0.00103804 0)
(-0.00490455 0.00243182 0)
(-0.00968042 0.00365601 0)
(-0.0154124 0.00444107 0)
(-0.0214564 0.00463143 0)
(-0.0271474 0.00428371 0)
(-0.0319491 0.00348618 0)
(-0.035431 0.00235177 0)
(-0.0373004 0.000998878 0)
(-0.0374051 -0.000452229 0)
(-0.0357273 -0.00187841 0)
(-0.0323796 -0.00315184 0)
(-0.0276165 -0.00414195 0)
(-0.0218475 -0.00471764 0)
(-0.0156289 -0.00475697 0)
(-0.00962973 -0.00417202 0)
(-0.00457248 -0.00294342 0)
(-0.00119622 -0.00120895 0)
(-3.27316e-06 0.000284005 0)
(-0.000828563 0.00131576 0)
(-0.00373159 0.0046834 0)
(-0.00959868 0.00786697 0)
(-0.0173698 0.0105085 0)
(-0.0261565 0.0119241 0)
(-0.0350952 0.0119586 0)
(-0.0433032 0.0107354 0)
(-0.0500757 0.00850136 0)
(-0.0548851 0.00553149 0)
(-0.0573809 0.00209793 0)
(-0.0573764 -0.00152665 0)
(-0.054861 -0.005062 0)
(-0.0499977 -0.00821801 0)
(-0.0431245 -0.0106945 0)
(-0.0347719 -0.012189 0)
(-0.0256647 -0.012425 0)
(-0.0166846 -0.0112084 0)
(-0.00878242 -0.00850418 0)
(-0.00302162 -0.00459391 0)
(-0.0004094 -0.000707178 0)
(-0.00111811 0.00374162 0)
(-0.00527479 0.0103738 0)
(-0.0133125 0.0159398 0)
(-0.0236551 0.020175 0)
(-0.0350577 0.022188 0)
(-0.0464423 0.0218066 0)
(-0.0567949 0.0192977 0)
(-0.0652915 0.0150983 0)
(-0.0713132 0.00967862 0)
(-0.074451 0.00350648 0)
(-0.0744963 -0.00295996 0)
(-0.071436 -0.00925895 0)
(-0.0654456 -0.0149069 0)
(-0.0569021 -0.0193949 0)
(-0.0464134 -0.0222082 0)
(-0.0348269 -0.0228743 0)
(-0.0231904 -0.021049 0)
(-0.0126634 -0.0166324 0)
(-0.00465251 -0.00999521 0)
(-0.000737922 -0.00265293 0)
(-0.00129246 0.00682584 0)
(-0.00651984 0.0177773 0)
(-0.016652 0.0262903 0)
(-0.0294641 0.0322712 0)
(-0.0433294 0.0348153 0)
(-0.0570052 0.0337955 0)
(-0.0693417 0.0296617 0)
(-0.0794229 0.0230748 0)
(-0.0865784 0.0147303 0)
(-0.0903642 0.00530412 0)
(-0.090544 -0.00454597 0)
(-0.0870843 -0.0141539 0)
(-0.080153 -0.0228209 0)
(-0.0701393 -0.0298073 0)
(-0.0576939 -0.0343526 0)
(-0.043755 -0.0357374 0)
(-0.0295238 -0.0334011 0)
(-0.0163934 -0.0271053 0)
(-0.0061638 -0.0172175 0)
(-0.00102105 -0.00540784 0)
(-0.00145477 0.010519 0)
(-0.00779633 0.0268507 0)
(-0.0200984 0.0389206 0)
(-0.0354952 0.0468263 0)
(-0.0519021 0.0497788 0)
(-0.0678717 0.0478523 0)
(-0.0821413 0.0417421 0)
(-0.0937439 0.03236 0)
(-0.101985 0.0206427 0)
(-0.106408 0.00748953 0)
(-0.106757 -0.00623499 0)
(-0.102975 -0.0196613 0)
(-0.0952011 -0.0318708 0)
(-0.083804 -0.0418715 0)
(-0.069443 -0.0486134 0)
(-0.0531204 -0.051063 0)
(-0.036187 -0.0483551 0)
(-0.020303 -0.0400131 0)
(-0.00772164 -0.0262925 0)
(-0.00130388 -0.00893682 0)
(-0.00165625 0.0148639 0)
(-0.00925818 0.0377392 0)
(-0.0239592 0.0540328 0)
(-0.0421523 0.0640109 0)
(-0.0612538 0.0672046 0)
(-0.0795797 0.06404 0)
(-0.0957757 0.0555423 0)
(-0.108855 0.0429289 0)
(-0.118138 0.0274015 0)
(-0.123181 0.0100811 0)
(-0.123732 -0.00797514 0)
(-0.119706 -0.0257102 0)
(-0.11119 -0.0419924 0)
(-0.0984959 -0.0555639 0)
(-0.0822429 -0.0650404 0)
(-0.0634577 -0.0689913 0)
(-0.043628 -0.066128 0)
(-0.0247059 -0.0555961 0)
(-0.0094817 -0.0373996 0)
(-0.00162208 -0.013299 0)
(-0.00194114 0.0200185 0)
(-0.0110338 0.0506795 0)
(-0.0284355 0.0718752 0)
(-0.0496785 0.084029 0)
(-0.0716146 0.0872147 0)
(-0.0923193 0.0823873 0)
(-0.110377 0.0710276 0)
(-0.124826 0.0547277 0)
(-0.135054 0.0349737 0)
(-0.140679 0.0130929 0)
(-0.141474 -0.00969853 0)
(-0.137327 -0.0321931 0)
(-0.128247 -0.0530728 0)
(-0.114435 -0.0708144 0)
(-0.0964025 -0.083658 0)
(-0.0751351 -0.0896794 0)
(-0.0522149 -0.0870118 0)
(-0.0298893 -0.0742225 0)
(-0.0115957 -0.05087 0)
(-0.00201136 -0.0186407 0)
(-0.00233918 0.026183 0)
(-0.0132235 0.066021 0)
(-0.033686 0.0927531 0)
(-0.0582082 0.107073 0)
(-0.0830146 0.109858 0)
(-0.105967 0.10282 0)
(-0.125646 0.0880548 0)
(-0.141198 0.0676073 0)
(-0.152156 0.0432605 0)
(-0.15826 0.0165152 0)
(-0.159343 -0.0113106 0)
(-0.15527 -0.0389243 0)
(-0.14594 -0.0648773 0)
(-0.131374 -0.0874088 0)
(-0.111884 -0.104356 0)
(-0.0883012 -0.113197 0)
(-0.0622074 -0.111288 0)
(-0.0361133 -0.0963333 0)
(-0.0142238 -0.0671558 0)
(-0.00251776 -0.0251902 0)
(-0.00288546 0.0336196 0)
(-0.0159322 0.0841711 0)
(-0.0398388 0.116963 0)
(-0.0677606 0.133223 0)
(-0.0952471 0.134988 0)
(-0.120018 0.125031 0)
(-0.140769 0.106253 0)
(-0.156882 0.0812281 0)
(-0.168146 0.052034 0)
(-0.174507 0.020289 0)
(-0.175902 -0.0126767 0)
(-0.172183 -0.0455871 0)
(-0.163108 -0.0769606 0)
(-0.148441 -0.104867 0)
(-0.128162 -0.126746 0)
(-0.102782 -0.139378 0)
(-0.0737049 -0.139102 0)
(-0.0436011 -0.122367 0)
(-0.0175411 -0.0868031 0)
(-0.00319986 -0.0332678 0)
(-0.00362974 0.0426616 0)
(-0.0192976 0.105587 0)
(-0.0469947 0.144719 0)
(-0.0781978 0.162316 0)
(-0.107766 0.162111 0)
(-0.133442 0.148332 0)
(-0.154243 0.124892 0)
(-0.169972 0.094958 0)
(-0.180817 0.0608682 0)
(-0.187028 0.0242673 0)
(-0.188706 -0.0136292 0)
(-0.185708 -0.0517067 0)
(-0.177629 -0.0885977 0)
(-0.163898 -0.122329 0)
(-0.144008 -0.150009 0)
(-0.117915 -0.167655 0)
(-0.0865526 -0.170319 0)
(-0.0525146 -0.152686 0)
(-0.0217554 -0.110465 0)
(-0.00413763 -0.0433179 0)
(-0.00466512 0.0537475 0)
(-0.0235285 0.13076 0)
(-0.0552219 0.176029 0)
(-0.0891253 0.193763 0)
(-0.119504 0.190186 0)
(-0.144449 0.171465 0)
(-0.163623 0.142727 0)
(-0.177491 0.107754 0)
(-0.186805 0.0690531 0)
(-0.192218 0.0281559 0)
(-0.194057 -0.014001 0)
(-0.192217 -0.0566482 0)
(-0.186131 -0.0987327 0)
(-0.174834 -0.138439 0)
(-0.157178 -0.172703 0)
(-0.132274 -0.196807 0)
(-0.100167 -0.204281 0)
(-0.0629018 -0.187402 0)
(-0.0271401 -0.138862 0)
(-0.00546249 -0.0559435 0)
(-0.00617552 0.0675093 0)
(-0.0289616 0.160169 0)
(-0.0645007 0.210485 0)
(-0.0996809 0.226249 0)
(-0.128548 0.217325 0)
(-0.150126 0.192362 0)
(-0.165171 0.157839 0)
(-0.175089 0.11806 0)
(-0.181336 0.0755304 0)
(-0.185035 0.0314719 0)
(-0.186782 -0.0136513 0)
(-0.186556 -0.0596204 0)
(-0.183666 -0.105934 0)
(-0.176761 -0.151216 0)
(-0.163958 -0.192517 0)
(-0.143235 -0.224595 0)
(-0.113198 -0.239366 0)
(-0.0745501 -0.226004 0)
(-0.0340515 -0.172636 0)
(-0.00739609 -0.0719822 0)
(-0.0085034 0.0849299 0)
(-0.0361112 0.194165 0)
(-0.0745268 0.246857 0)
(-0.108086 0.257265 0)
(-0.131575 0.24042 0)
(-0.14588 0.207925 0)
(-0.153396 0.167536 0)
(-0.1567 0.123793 0)
(-0.157996 0.0789033 0)
(-0.158849 0.0335366 0)
(-0.160111 -0.0125087 0)
(-0.16188 -0.0597483 0)
(-0.163447 -0.108464 0)
(-0.163201 -0.158047 0)
(-0.158586 -0.206118 0)
(-0.146295 -0.247393 0)
(-0.122908 -0.272442 0)
(-0.0866201 -0.26682 0)
(-0.0428975 -0.212101 0)
(-0.0103009 -0.0926442 0)
(-0.0122271 0.107574 0)
(-0.0455939 0.232618 0)
(-0.0841107 0.282372 0)
(-0.110662 0.282445 0)
(-0.122809 0.254766 0)
(-0.124578 0.213936 0)
(-0.120475 0.168449 0)
(-0.11425 0.122504 0)
(-0.108662 0.0775754 0)
(-0.105519 0.0335282 0)
(-0.105804 -0.0106344 0)
(-0.109752 -0.0562508 0)
(-0.116797 -0.104529 0)
(-0.125368 -0.155933 0)
(-0.132592 -0.209226 0)
(-0.134082 -0.259943 0)
(-0.124053 -0.298195 0)
(-0.0968 -0.306105 0)
(-0.0538925 -0.256677 0)
(-0.0147215 -0.119638 0)
(-0.0180645 0.137946 0)
(-0.057413 0.273976 0)
(-0.0894398 0.311362 0)
(-0.0997315 0.294722 0)
(-0.0922337 0.253864 0)
(-0.0753635 0.205315 0)
(-0.0556692 0.157004 0)
(-0.0375482 0.111857 0)
(-0.0237429 0.0701137 0)
(-0.0158492 0.0306657 0)
(-0.0147215 -0.00825246 0)
(-0.0206872 -0.0486982 0)
(-0.0335263 -0.0927442 0)
(-0.0521871 -0.142069 0)
(-0.0742283 -0.197127 0)
(-0.0950331 -0.255439 0)
(-0.106918 -0.308436 0)
(-0.0993447 -0.336571 0)
(-0.0659717 -0.303569 0)
(-0.0211293 -0.155362 0)
(-0.0258639 0.180349 0)
(-0.0681581 0.312962 0)
(-0.0796215 0.322682 0)
(-0.0594448 0.283189 0)
(-0.0227983 0.22964 0)
(0.0177353 0.177008 0)
(0.0549968 0.130451 0)
(0.0853192 0.0905245 0)
(0.107013 0.0558976 0)
(0.119363 0.0245689 0)
(0.122008 -0.00570586 0)
(0.114641 -0.0373233 0)
(0.0969725 -0.0728405 0)
(0.0689909 -0.114911 0)
(0.0316383 -0.165861 0)
(-0.0119038 -0.226301 0)
(-0.0541423 -0.291637 0)
(-0.080893 -0.345179 0)
(-0.0735609 -0.345192 0)
(-0.0285342 -0.203411 0)
(-0.0297057 0.238749 0)
(-0.0622606 0.333895 0)
(-0.0265943 0.296147 0)
(0.0415424 0.233363 0)
(0.11323 0.174578 0)
(0.176724 0.126454 0)
(0.228107 0.088911 0)
(0.266634 0.0596458 0)
(0.29286 0.0360428 0)
(0.307557 0.0157436 0)
(0.311149 -0.00337763 0)
(0.303485 -0.0234128 0)
(0.283771 -0.0466756 0)
(0.250655 -0.0759896 0)
(0.202667 -0.114877 0)
(0.139395 -0.167132 0)
(0.0637976 -0.234578 0)
(-0.0125825 -0.310893 0)
(-0.0581774 -0.362234 0)
(-0.0289419 -0.264562 0)
(0.00869416 0.281804 0)
(0.0199047 0.29478 0)
(0.136912 0.209733 0)
(0.259496 0.141115 0)
(0.355621 0.0940765 0)
(0.427216 0.0624089 0)
(0.479145 0.0410524 0)
(0.515264 0.0262239 0)
(0.538635 0.0152894 0)
(0.551354 0.00645975 0)
(0.554484 -0.00159116 0)
(0.548093 -0.0100465 0)
(0.531198 -0.0202471 0)
(0.501592 -0.0340831 0)
(0.455689 -0.0545498 0)
(0.388561 -0.0864248 0)
(0.293646 -0.136757 0)
(0.166449 -0.21361 0)
(0.0389792 -0.309452 0)
(0.018571 -0.298734 0)
(0.300353 0.146111 0)
(0.397217 0.127673 0)
(0.557422 0.0761517 0)
(0.673537 0.0435684 0)
(0.741491 0.0252568 0)
(0.783002 0.0148639 0)
(0.809574 0.00885324 0)
(0.826501 0.00522578 0)
(0.836749 0.0028543 0)
(0.842001 0.00110486 0)
(0.843044 -0.000417333 0)
(0.839984 -0.00202386 0)
(0.832258 -0.00406288 0)
(0.818425 -0.00709529 0)
(0.795664 -0.0121931 0)
(0.758646 -0.0214588 0)
(0.695583 -0.0390103 0)
(0.581891 -0.0724159 0)
(0.415726 -0.127609 0)
(0.309368 -0.14927 0)
)
;

boundaryField
{
    movingWall
    {
        type            fixedValue;
        value           uniform (1 0 0);
    }
    fixedWalls
    {
        type            noSlip;
    }
    frontAndBack
    {
        type            empty;
    }
}


// ************************************************************************* //
