/*--------------------------------*- C++ -*----------------------------------*\
  =========                 |
  \\      /  F ield         | OpenFOAM: The Open Source CFD Toolbox
   \\    /   O peration     | Website:  https://openfoam.org
    \\  /    A nd           | Version:  8
     \\/     M anipulation  |
\*---------------------------------------------------------------------------*/
FoamFile
{
    version     2.0;
    format      ascii;
    class       volScalarField;
    location    "47";
    object      p;
}
// * * * * * * * * * * * * * * * * * * * * * * * * * * * * * * * * * * * * * //

dimensions      [0 2 -2 0 0 0 0];

internalField   nonuniform List<scalar> 
400
(
-9.24032e-14
-9.64582e-14
-1.03875e-13
-1.1312e-13
-1.233e-13
-1.33602e-13
-1.43975e-13
-1.53912e-13
-1.63217e-13
-1.71053e-13
-1.77131e-13
-1.80729e-13
-1.80976e-13
-1.77531e-13
-1.69252e-13
-1.55689e-13
-1.359e-13
-1.08573e-13
-7.32723e-14
-2.29887e-14
-8.8655e-14
-9.12085e-14
-9.68409e-14
-1.04451e-13
-1.12767e-13
-1.21126e-13
-1.29689e-13
-1.37943e-13
-1.45438e-13
-1.51746e-13
-1.56495e-13
-1.58678e-13
-1.57857e-13
-1.53742e-13
-1.45286e-13
-1.32038e-13
-1.13062e-13
-8.742e-14
-5.61306e-14
-1.12755e-14
-8.13878e-14
-8.26252e-14
-8.67317e-14
-9.25315e-14
-9.87666e-14
-1.05408e-13
-1.12189e-13
-1.18399e-13
-1.24195e-13
-1.29079e-13
-1.32222e-13
-1.33344e-13
-1.31678e-13
-1.27017e-13
-1.18786e-13
-1.06427e-13
-8.95369e-14
-6.68143e-14
-4.10486e-14
-3.41796e-15
-7.20634e-14
-7.32587e-14
-7.62216e-14
-8.0583e-14
-8.5686e-14
-9.10093e-14
-9.65522e-14
-1.01409e-13
-1.05955e-13
-1.09612e-13
-1.11816e-13
-1.12308e-13
-1.10334e-13
-1.05658e-13
-9.81805e-14
-8.70624e-14
-7.22948e-14
-5.28108e-14
-3.17535e-14
3.1621e-16
-6.18245e-14
-6.2824e-14
-6.51782e-14
-6.85161e-14
-7.26802e-14
-7.68502e-14
-8.13643e-14
-8.53097e-14
-8.89072e-14
-9.16222e-14
-9.30371e-14
-9.30455e-14
-9.10659e-14
-8.67615e-14
-8.0179e-14
-7.0514e-14
-5.80191e-14
-4.14535e-14
-2.46074e-14
2.52758e-15
-5.08206e-14
-5.16781e-14
-5.34773e-14
-5.59592e-14
-5.92663e-14
-6.25597e-14
-6.59298e-14
-6.92073e-14
-7.21786e-14
-7.4119e-14
-7.49191e-14
-7.46323e-14
-7.2769e-14
-6.90144e-14
-6.34356e-14
-5.54447e-14
-4.50525e-14
-3.17906e-14
-1.85791e-14
3.65249e-15
-3.91605e-14
-3.99474e-14
-4.11566e-14
-4.30061e-14
-4.52773e-14
-4.81773e-14
-5.08243e-14
-5.33501e-14
-5.56262e-14
-5.68574e-14
-5.7458e-14
-5.70696e-14
-5.54796e-14
-5.24873e-14
-4.80679e-14
-4.1575e-14
-3.35816e-14
-2.35166e-14
-1.37186e-14
3.79791e-15
-2.7176e-14
-2.778e-14
-2.8415e-14
-2.96809e-14
-3.15084e-14
-3.37029e-14
-3.56513e-14
-3.77612e-14
-3.92186e-14
-4.00487e-14
-4.04969e-14
-4.02987e-14
-3.90947e-14
-3.69588e-14
-3.37075e-14
-2.89012e-14
-2.32924e-14
-1.62066e-14
-9.51121e-15
3.18923e-15
-1.50067e-14
-1.50008e-14
-1.5479e-14
-1.65203e-14
-1.75781e-14
-1.9166e-14
-2.07334e-14
-2.21389e-14
-2.30425e-14
-2.36494e-14
-2.39736e-14
-2.40646e-14
-2.3291e-14
-2.20689e-14
-2.00848e-14
-1.69774e-14
-1.39031e-14
-9.82451e-15
-5.55275e-15
2.06144e-15
-2.2869e-15
-2.40883e-15
-2.54597e-15
-2.94152e-15
-3.69919e-15
-4.76303e-15
-5.73671e-15
-6.35639e-15
-7.01216e-15
-7.49733e-15
-7.88668e-15
-8.17585e-15
-7.85264e-15
-7.48019e-15
-6.71112e-15
-5.7141e-15
-4.92861e-15
-3.56899e-15
-1.98562e-15
6.40957e-16
1.05262e-14
1.02587e-14
1.02806e-14
1.04634e-14
1.024e-14
9.76091e-15
9.39482e-15
9.37268e-15
9.00519e-15
8.56018e-15
8.1266e-15
7.77e-15
7.46594e-15
6.88748e-15
6.25946e-15
5.40763e-15
3.95588e-15
2.55739e-15
1.33328e-15
-9.47722e-16
2.29889e-14
2.29984e-14
2.3266e-14
2.37356e-14
2.39568e-14
2.4293e-14
2.45773e-14
2.48954e-14
2.50208e-14
2.47051e-14
2.41332e-14
2.37845e-14
2.29471e-14
2.13976e-14
1.92819e-14
1.66425e-14
1.30732e-14
8.65433e-15
4.68067e-15
-2.32673e-15
3.51668e-14
3.52987e-14
3.60299e-14
3.68959e-14
3.76892e-14
3.87094e-14
3.96999e-14
4.05262e-14
4.10179e-14
4.10953e-14
4.06323e-14
3.9962e-14
3.86451e-14
3.62165e-14
3.28291e-14
2.82858e-14
2.24249e-14
1.52093e-14
8.53568e-15
-3.56399e-15
4.69662e-14
4.71893e-14
4.82958e-14
4.96773e-14
5.13061e-14
5.2921e-14
5.46671e-14
5.62457e-14
5.7217e-14
5.77021e-14
5.7706e-14
5.67695e-14
5.48966e-14
5.18221e-14
4.71004e-14
4.07333e-14
3.26901e-14
2.25282e-14
1.27615e-14
-4.16079e-15
5.83173e-14
5.86406e-14
6.01093e-14
6.22115e-14
6.45358e-14
6.69455e-14
6.96423e-14
7.21167e-14
7.38654e-14
7.4771e-14
7.51985e-14
7.44826e-14
7.22783e-14
6.8273e-14
6.24628e-14
5.44048e-14
4.41226e-14
3.09689e-14
1.78997e-14
-3.87124e-15
6.88659e-14
6.94123e-14
7.12758e-14
7.42257e-14
7.75309e-14
8.10098e-14
8.46383e-14
8.80826e-14
9.07268e-14
9.25888e-14
9.3587e-14
9.28636e-14
9.05709e-14
8.60271e-14
7.91312e-14
6.95054e-14
5.69432e-14
4.07236e-14
2.4153e-14
-2.78921e-15
7.87189e-14
7.95556e-14
8.19604e-14
8.57677e-14
9.02744e-14
9.50284e-14
9.98008e-14
1.04301e-13
1.08106e-13
1.10979e-13
1.12465e-13
1.12077e-13
1.09866e-13
1.04929e-13
9.71273e-14
8.61065e-14
7.13569e-14
5.18713e-14
3.12016e-14
-6.21394e-16
8.76541e-14
8.89636e-14
9.23608e-14
9.74304e-14
1.03267e-13
1.09288e-13
1.15577e-13
1.21375e-13
1.26533e-13
1.30607e-13
1.33095e-13
1.33327e-13
1.31231e-13
1.26259e-13
1.17812e-13
1.05419e-13
8.86696e-14
6.60928e-14
4.04467e-14
3.04804e-15
9.50321e-14
9.71807e-14
1.02208e-13
1.09151e-13
1.17091e-13
1.25063e-13
1.3325e-13
1.40851e-13
1.478e-13
1.53535e-13
1.57341e-13
1.58795e-13
1.57553e-13
1.52983e-13
1.44355e-13
1.311e-13
1.1258e-13
8.68136e-14
5.58768e-14
1.11435e-14
9.89079e-14
1.02207e-13
1.08938e-13
1.17787e-13
1.27697e-13
1.3754e-13
1.47404e-13
1.56764e-13
1.65437e-13
1.72746e-13
1.77983e-13
1.80778e-13
1.80584e-13
1.76769e-13
1.68557e-13
1.55085e-13
1.35601e-13
1.08129e-13
7.32084e-14
2.29832e-14
)
;

boundaryField
{
    inlet
    {
        type            zeroGradient;
    }
    outlet
    {
        type            fixedValue;
        value           uniform 0;
    }
    up
    {
        type            zeroGradient;
    }
    down
    {
        type            zeroGradient;
    }
    frontAndBack
    {
        type            empty;
    }
}


// ************************************************************************* //
