/*--------------------------------*- C++ -*----------------------------------*\
  =========                 |
  \\      /  F ield         | OpenFOAM: The Open Source CFD Toolbox
   \\    /   O peration     | Website:  https://openfoam.org
    \\  /    A nd           | Version:  8
     \\/     M anipulation  |
\*---------------------------------------------------------------------------*/
FoamFile
{
    version     2.0;
    format      ascii;
    class       volScalarField;
    location    "19";
    object      p;
}
// * * * * * * * * * * * * * * * * * * * * * * * * * * * * * * * * * * * * * //

dimensions      [0 2 -2 0 0 0 0];

internalField   nonuniform List<scalar> 
11600
(
-2.29504e-09
-4.67745e-07
-2.8087e-07
1.89368e-07
1.05819e-06
2.2838e-06
3.86181e-06
5.79101e-06
8.07088e-06
1.07012e-05
1.3682e-05
1.70138e-05
2.06976e-05
2.47342e-05
2.91247e-05
3.38703e-05
3.8972e-05
4.44312e-05
5.0249e-05
5.64269e-05
6.29663e-05
6.98686e-05
7.71352e-05
8.47674e-05
9.27666e-05
0.000101134
0.000109871
0.000118979
0.000128458
0.00013831
0.000148534
0.000159133
0.000170105
0.000181451
0.000193172
0.000205267
0.000217735
0.000230577
0.000243792
0.000257379
0.000271337
0.000285666
0.000300364
0.00031543
0.000330864
0.000346666
0.000362836
0.000379376
0.000396288
0.000413576
0.000431246
0.00044931
0.000467779
0.000486673
0.000506016
0.000525874
0.000546347
0.000566456
0.000591979
0.000604631
7.63724e-08
-2.72746e-07
1.62012e-09
5.03091e-07
1.38639e-06
2.61849e-06
4.19877e-06
6.12767e-06
8.40549e-06
1.10328e-05
1.40102e-05
1.73382e-05
2.10177e-05
2.50495e-05
2.94347e-05
3.41744e-05
3.92699e-05
4.47224e-05
5.05333e-05
5.67039e-05
6.32356e-05
7.01299e-05
7.73881e-05
8.50117e-05
9.3002e-05
0.00010136
0.000110088
0.000119186
0.000128655
0.000138497
0.000148711
0.000159299
0.00017026
0.000181596
0.000193305
0.000205389
0.000217847
0.000230678
0.000243883
0.000257459
0.000271407
0.000285726
0.000300414
0.000315472
0.000330898
0.000346693
0.000362858
0.000379394
0.000396306
0.000413597
0.000431278
0.000449361
0.000467867
0.000486827
0.00050629
0.000526362
0.000547148
0.000568552
0.000593235
0.000614203
-3.58177e-07
-7.12748e-07
-4.07996e-07
1.05133e-07
9.95649e-07
2.2312e-06
3.81322e-06
5.74281e-06
8.02019e-06
1.0646e-05
1.36211e-05
1.69464e-05
2.06226e-05
2.46508e-05
2.9032e-05
3.37674e-05
3.88582e-05
4.43059e-05
5.01118e-05
5.62773e-05
6.28038e-05
6.96928e-05
7.69457e-05
8.45639e-05
9.25488e-05
0.000100902
0.000109624
0.000118716
0.00012818
0.000138016
0.000148225
0.000158808
0.000169764
0.000181095
0.0001928
0.00020488
0.000217334
0.000230162
0.000243363
0.000256936
0.000270881
0.000285197
0.000299882
0.000314937
0.00033036
0.000346151
0.000362311
0.000378841
0.000395744
0.000413023
0.000430686
0.000448742
0.000467207
0.0004861
0.000505456
0.000525331
0.000545768
0.000566793
0.000589511
0.000610493
-1.01507e-06
-1.37128e-06
-1.04436e-06
-5.18581e-07
3.81182e-07
1.62138e-06
3.20509e-06
5.13465e-06
7.41073e-06
1.00341e-05
1.30057e-05
1.63266e-05
1.99977e-05
2.40202e-05
2.83952e-05
3.31239e-05
3.82077e-05
4.3648e-05
4.94463e-05
5.56039e-05
6.21224e-05
6.90033e-05
7.6248e-05
8.38579e-05
9.18345e-05
0.000100179
0.000108893
0.000117977
0.000127432
0.00013726
0.000147461
0.000158036
0.000168985
0.000180309
0.000192008
0.000204081
0.000216529
0.000229351
0.000242547
0.000256116
0.000270057
0.000284368
0.00029905
0.0003141
0.000329518
0.000345304
0.000361458
0.00037798
0.000394872
0.000412137
0.000429779
0.000447808
0.000466236
0.000485081
0.000504369
0.000524139
0.000544427
0.000565294
0.000587017
0.000608433
-2.04394e-06
-2.40332e-06
-2.0671e-06
-1.53542e-06
-6.30089e-07
6.13152e-07
2.19772e-06
4.12653e-06
6.40065e-06
9.02103e-06
1.19887e-05
1.53047e-05
1.89701e-05
2.29863e-05
2.73544e-05
3.20757e-05
3.71518e-05
4.25841e-05
4.83741e-05
5.45233e-05
6.10332e-05
6.79054e-05
7.51414e-05
8.27426e-05
9.07106e-05
9.90466e-05
0.000107752
0.000116828
0.000126275
0.000136095
0.000146289
0.000156856
0.000167799
0.000179117
0.00019081
0.000202878
0.000215322
0.000228141
0.000241334
0.0002549
0.000268838
0.000283148
0.000297827
0.000312875
0.00032829
0.000344071
0.000360218
0.00037673
0.000393607
0.000410849
0.00042846
0.000446442
0.0004648
0.000483543
0.00050268
0.000522221
0.000542169
0.000562532
0.00058332
0.000604081
-3.42028e-06
-3.78099e-06
-3.44046e-06
-2.90637e-06
-1.99826e-06
-7.53573e-07
8.30845e-07
2.75802e-06
5.02926e-06
7.64566e-06
1.06083e-05
1.39185e-05
1.75773e-05
2.1586e-05
2.59462e-05
3.06591e-05
3.57263e-05
4.11494e-05
4.69298e-05
5.30693e-05
5.95694e-05
6.64316e-05
7.36577e-05
8.12491e-05
8.92074e-05
9.75339e-05
0.00010623
0.000115297
0.000124735
0.000134547
0.000144733
0.000155293
0.000166229
0.000177541
0.000189229
0.000201294
0.000213734
0.00022655
0.000239741
0.000253306
0.000267243
0.000281552
0.00029623
0.000311277
0.000326691
0.000342469
0.000358609
0.000375111
0.000391972
0.000409191
0.000426767
0.000444699
0.000462986
0.000481628
0.000500621
0.000519958
0.000539622
0.000559583
0.000579772
0.000599967
-5.14716e-06
-5.50846e-06
-5.1658e-06
-4.63128e-06
-3.72268e-06
-2.47837e-06
-8.95438e-07
1.02901e-06
3.29631e-06
5.90768e-06
8.86433e-06
1.21675e-05
1.58186e-05
1.98189e-05
2.417e-05
2.88733e-05
3.39305e-05
3.93431e-05
4.51128e-05
5.12413e-05
5.77302e-05
6.45813e-05
7.17962e-05
7.93766e-05
8.73241e-05
9.564e-05
0.000104326
0.000113383
0.000122812
0.000132615
0.000142793
0.000153346
0.000164275
0.000175582
0.000187265
0.000199326
0.000211764
0.000224578
0.000237768
0.000251333
0.000265271
0.000279581
0.000294261
0.000309309
0.000324723
0.0003405
0.000356636
0.00037313
0.000389977
0.000407174
0.000424716
0.000442599
0.000460815
0.000479357
0.00049821
0.000517356
0.000536762
0.000556379
0.000576124
0.000595842
-7.2254e-06
-7.58824e-06
-7.24492e-06
-6.71121e-06
-5.80378e-06
-4.56143e-06
-2.98142e-06
-1.06096e-06
1.20124e-06
3.80643e-06
6.75592e-06
1.00511e-05
1.36933e-05
1.7684e-05
2.20249e-05
2.67174e-05
3.17633e-05
3.71641e-05
4.29217e-05
4.90378e-05
5.55143e-05
6.23529e-05
6.95554e-05
7.71236e-05
8.50591e-05
9.33634e-05
0.000102038
0.000111085
0.000120504
0.000130298
0.000140467
0.000151013
0.000161936
0.000173237
0.000184916
0.000196974
0.00020941
0.000222224
0.000235415
0.000248981
0.000262922
0.000277236
0.00029192
0.000306971
0.000322388
0.000338166
0.000354302
0.000370792
0.000387629
0.000404808
0.000422323
0.000440164
0.00045832
0.000476776
0.000495512
0.000514502
0.000533704
0.000553062
0.000572496
0.000591886
-9.65489e-06
-1.00204e-05
-9.67769e-06
-9.14586e-06
-8.24083e-06
-7.00181e-06
-5.42606e-06
-3.5109e-06
-1.25505e-06
1.34274e-06
4.28386e-06
7.56973e-06
1.12018e-05
1.51818e-05
1.95111e-05
2.41915e-05
2.92247e-05
3.46124e-05
4.03565e-05
4.64589e-05
5.29215e-05
5.97462e-05
6.69349e-05
7.44896e-05
8.24119e-05
9.07035e-05
9.93661e-05
0.000108401
0.00011781
0.000127594
0.000137755
0.000148293
0.00015921
0.000170505
0.000182181
0.000194236
0.000206671
0.000219486
0.000232679
0.000246249
0.000260195
0.000274514
0.000289205
0.000304264
0.000319687
0.000335472
0.000351612
0.000368102
0.000384937
0.000402107
0.000419603
0.000437414
0.000455525
0.000473917
0.000492566
0.00051144
0.000530495
0.000549676
0.000568908
0.000588096
-1.24358e-05
-1.28045e-05
-1.24635e-05
-1.19346e-05
-1.10331e-05
-9.79858e-06
-8.22837e-06
-6.31978e-06
-4.07158e-06
-1.48247e-06
1.44898e-06
4.72426e-06
8.34494e-06
1.23126e-05
1.6629e-05
2.12959e-05
2.63149e-05
3.1688e-05
3.74172e-05
4.35044e-05
4.99516e-05
5.6761e-05
6.39345e-05
7.14742e-05
7.9382e-05
8.76596e-05
9.63089e-05
0.000105332
0.000114729
0.000124503
0.000134654
0.000145184
0.000156095
0.000167385
0.000179058
0.000191111
0.000203546
0.000216363
0.000229559
0.000243135
0.000257088
0.000271417
0.000286117
0.000301187
0.000316622
0.000332418
0.000348568
0.000365067
0.000381907
0.000399078
0.000416569
0.000434365
0.000452451
0.000470804
0.000489398
0.000508199
0.000527165
0.000546242
0.000565363
0.00058445
-1.5568e-05
-1.59403e-05
-1.56018e-05
-1.50769e-05
-1.41799e-05
-1.29509e-05
-1.13874e-05
-9.48669e-06
-7.24743e-06
-4.66834e-06
-1.74794e-06
1.51534e-06
5.12313e-06
9.0771e-06
1.3379e-05
1.80307e-05
2.3034e-05
2.8391e-05
3.41036e-05
4.0174e-05
4.66044e-05
5.33969e-05
6.05537e-05
6.8077e-05
7.59688e-05
8.42311e-05
9.28659e-05
0.000101875
0.00011126
0.000121023
0.000131164
0.000141686
0.00015259
0.000163875
0.000175544
0.000187597
0.000200033
0.000212853
0.000226055
0.000239638
0.000253601
0.000267941
0.000282655
0.000297741
0.000313192
0.000329005
0.000345173
0.000361689
0.000378545
0.000395729
0.000413228
0.000431029
0.000449111
0.000467453
0.000486026
0.000504798
0.000523726
0.000542762
0.000561848
0.000580918
-1.90512e-05
-1.94274e-05
-1.90919e-05
-1.85718e-05
-1.76803e-05
-1.6458e-05
-1.49024e-05
-1.30107e-05
-1.07817e-05
-8.21403e-06
-5.30611e-06
-2.05634e-06
1.53699e-06
5.47563e-06
9.76142e-06
1.43963e-05
1.93822e-05
2.47214e-05
3.04158e-05
3.64677e-05
4.28795e-05
4.96535e-05
5.67919e-05
6.42971e-05
7.21714e-05
8.04169e-05
8.90358e-05
9.803e-05
0.000107402
0.000117152
0.000127283
0.000137796
0.000148692
0.000159973
0.000171639
0.000183691
0.000196129
0.000208953
0.000222162
0.000235755
0.00024973
0.000264085
0.000278818
0.000293923
0.000309397
0.000325234
0.000341428
0.000357971
0.000374853
0.000392063
0.000409587
0.00042741
0.000445513
0.000463871
0.000482458
0.00050124
0.000520181
0.000539233
0.000558347
0.000577467
-2.28847e-05
-2.32653e-05
-2.29331e-05
-2.24185e-05
-2.15335e-05
-2.03189e-05
-1.87723e-05
-1.6891e-05
-1.46736e-05
-1.21187e-05
-9.22476e-06
-5.99007e-06
-2.41287e-06
1.50873e-06
5.77667e-06
1.0393e-05
1.53598e-05
2.06792e-05
2.63536e-05
3.23853e-05
3.87767e-05
4.55303e-05
5.26485e-05
6.01339e-05
6.7989e-05
7.62161e-05
8.48175e-05
9.37955e-05
0.000103152
0.000112889
0.000123009
0.000133512
0.000144401
0.000155676
0.000167339
0.000179391
0.000191832
0.000204661
0.000217879
0.000231483
0.000245474
0.000259848
0.000274602
0.000289732
0.000305235
0.000321103
0.000337332
0.000353911
0.000370831
0.000388082
0.000405648
0.000423513
0.000441659
0.000460061
0.000478694
0.000497527
0.000516523
0.000535642
0.000554838
0.000574063
-2.70673e-05
-2.74528e-05
-2.71246e-05
-2.66162e-05
-2.57385e-05
-2.45327e-05
-2.29963e-05
-2.11265e-05
-1.8922e-05
-1.63814e-05
-1.35031e-05
-1.02851e-05
-6.72574e-06
-2.82296e-06
1.42529e-06
6.02114e-06
1.09669e-05
1.62647e-05
2.19172e-05
2.79266e-05
3.42956e-05
4.10268e-05
4.81229e-05
5.55866e-05
6.34205e-05
7.16273e-05
8.02096e-05
8.91696e-05
9.85097e-05
0.000108232
0.000118339
0.000128831
0.000139712
0.000150981
0.000162642
0.000174693
0.000187137
0.000199973
0.000213201
0.00022682
0.000240828
0.000255224
0.000270004
0.000285165
0.000300702
0.00031661
0.000332881
0.000349507
0.000366479
0.000383784
0.000401408
0.000419336
0.000437548
0.000456022
0.000474732
0.00049365
0.000512742
0.000531971
0.000551296
0.000570675
-3.1598e-05
-3.19891e-05
-3.16651e-05
-3.11638e-05
-3.02942e-05
-2.90982e-05
-2.75731e-05
-2.57162e-05
-2.35262e-05
-2.10014e-05
-1.81402e-05
-1.49406e-05
-1.14009e-05
-7.51875e-06
-3.29211e-06
1.28132e-06
6.2039e-06
1.14781e-05
1.71063e-05
2.30913e-05
2.94358e-05
3.61424e-05
4.32143e-05
5.06541e-05
5.84649e-05
6.66495e-05
7.52105e-05
8.41507e-05
9.34725e-05
0.000103178
0.000113271
0.000123751
0.000134623
0.000145886
0.000157543
0.000169595
0.000182042
0.000194886
0.000208125
0.00022176
0.000235789
0.00025021
0.00026502
0.000280217
0.000295795
0.000311749
0.000328072
0.000344756
0.00036179
0.000379164
0.000396864
0.000414873
0.000433174
0.000451745
0.000470563
0.000489599
0.000508823
0.000528201
0.000547697
0.000567271
-3.64756e-05
-3.68728e-05
-3.65536e-05
-3.60601e-05
-3.51995e-05
-3.40143e-05
-3.25018e-05
-3.06591e-05
-2.84849e-05
-2.59774e-05
-2.3135e-05
-1.99557e-05
-1.64374e-05
-1.25779e-05
-8.37487e-06
-3.826e-06
1.07123e-06
6.31938e-06
1.19211e-05
1.78793e-05
2.41968e-05
3.08766e-05
3.79218e-05
4.53355e-05
5.31209e-05
6.12809e-05
6.98186e-05
7.87367e-05
8.80383e-05
9.77258e-05
0.000107802
0.000118269
0.00012913
0.000140386
0.000152039
0.000164091
0.000176542
0.000189394
0.000202646
0.000216298
0.00023035
0.0002448
0.000259645
0.000274882
0.000290507
0.000306515
0.000322898
0.00033965
0.00035676
0.000374217
0.000392008
0.000410118
0.00042853
0.000447222
0.000466174
0.000485358
0.000504747
0.00052431
0.000544013
0.000563821
-4.16988e-05
-4.21025e-05
-4.17887e-05
-4.13036e-05
-4.0453e-05
-3.92797e-05
-3.7781e-05
-3.59539e-05
-3.3797e-05
-3.13085e-05
-2.84866e-05
-2.53293e-05
-2.18344e-05
-1.79995e-05
-1.38223e-05
-9.30027e-06
-4.43081e-06
7.88841e-07
6.36154e-06
1.22903e-05
1.85782e-05
2.52286e-05
3.22447e-05
3.96298e-05
4.73871e-05
5.55201e-05
6.40319e-05
7.29256e-05
8.22045e-05
9.18715e-05
0.00010193
0.000112382
0.00012323
0.000134478
0.000146126
0.000158177
0.000170632
0.000183492
0.000196758
0.00021043
0.000224507
0.000238988
0.000253871
0.000269154
0.000284832
0.0003009
0.000317353
0.000334182
0.000351379
0.000368933
0.000386831
0.00040506
0.000423602
0.000442439
0.00046155
0.00048091
0.000500494
0.000520273
0.000540217
0.000560293
-4.72661e-05
-4.76767e-05
-4.73687e-05
-4.68929e-05
-4.60532e-05
-4.4893e-05
-4.34093e-05
-4.15992e-05
-3.94611e-05
-3.69933e-05
-3.41937e-05
-3.10603e-05
-2.75908e-05
-2.37827e-05
-1.96337e-05
-1.5141e-05
-1.03018e-05
-5.11336e-06
4.27568e-07
6.32418e-06
1.25798e-05
1.9198e-05
2.61821e-05
3.35357e-05
4.12622e-05
4.93653e-05
5.78484e-05
6.6715e-05
7.59686e-05
8.56127e-05
9.56506e-05
0.000106085
0.00011692
0.000128157
0.000139799
0.000151849
0.000164307
0.000177175
0.000190456
0.000204148
0.000218251
0.000232767
0.000247692
0.000263024
0.00027876
0.000294896
0.000311425
0.000328342
0.000345637
0.0003633
0.000381321
0.000399685
0.000418377
0.00043738
0.000456673
0.000476235
0.000496041
0.000516066
0.000536281
0.000556655
-5.31757e-05
-5.35938e-05
-5.32921e-05
-5.28264e-05
-5.19985e-05
-5.08524e-05
-4.9385e-05
-4.75933e-05
-4.54757e-05
-4.30303e-05
-4.02549e-05
-3.71475e-05
-3.37056e-05
-2.99267e-05
-2.58083e-05
-2.13475e-05
-1.65415e-05
-1.1387e-05
-5.88069e-06
-1.91633e-08
6.20121e-06
1.27841e-05
1.97331e-05
2.70521e-05
3.47447e-05
4.28147e-05
5.1266e-05
6.01024e-05
6.93279e-05
7.89463e-05
8.89612e-05
9.93762e-05
0.000110195
0.000121419
0.000133054
0.0001451
0.00015756
0.000170437
0.000183731
0.000197444
0.000211576
0.000226128
0.000241097
0.000256483
0.000272283
0.000288492
0.000305106
0.000322118
0.000339521
0.000357307
0.000375463
0.000393978
0.000412838
0.000432025
0.000451523
0.00047131
0.000491365
0.000511662
0.000532176
0.000552881
-5.94259e-05
-5.98519e-05
-5.9557e-05
-5.91022e-05
-5.82871e-05
-5.71562e-05
-5.57065e-05
-5.39347e-05
-5.18391e-05
-4.94179e-05
-4.66688e-05
-4.35895e-05
-4.01775e-05
-3.64304e-05
-3.23452e-05
-2.79192e-05
-2.31492e-05
-1.80316e-05
-1.25631e-05
-6.73978e-06
-5.57917e-07
5.98635e-06
1.28969e-05
2.01777e-05
2.78328e-05
3.58663e-05
4.42824e-05
5.30854e-05
6.22796e-05
7.1869e-05
8.18579e-05
9.22502e-05
0.00010305
0.00011426
0.000125884
0.000137925
0.000150386
0.00016327
0.000176578
0.000190312
0.000204473
0.000219062
0.000234079
0.000249522
0.000265389
0.000281677
0.000298381
0.000315498
0.000333019
0.000350936
0.000369241
0.000387922
0.000406965
0.000426356
0.000446078
0.000466112
0.000486437
0.000507032
0.000527871
0.000548933
-6.60146e-05
-6.64491e-05
-6.61615e-05
-6.57183e-05
-6.4917e-05
-6.38025e-05
-6.23717e-05
-6.06214e-05
-5.85496e-05
-5.61545e-05
-5.34337e-05
-5.03849e-05
-4.70054e-05
-4.32926e-05
-3.92437e-05
-3.48554e-05
-3.01243e-05
-2.50469e-05
-1.96194e-05
-1.38377e-05
-7.69785e-06
-1.19586e-06
5.67246e-06
1.29113e-05
2.05251e-05
2.85183e-05
3.68955e-05
4.56613e-05
5.48205e-05
6.43775e-05
7.43368e-05
8.4703e-05
9.54801e-05
0.000106672
0.000118284
0.000130317
0.000142777
0.000155666
0.000168987
0.000182742
0.000196933
0.000211561
0.000226626
0.000242128
0.000258066
0.000274437
0.000291238
0.000308465
0.000326112
0.000344173
0.000362637
0.000381496
0.000400738
0.000420349
0.000440313
0.000460614
0.000481233
0.000502147
0.000523335
0.00054478
-7.29398e-05
-7.33832e-05
-7.31035e-05
-7.26727e-05
-7.1886e-05
-7.07891e-05
-6.93787e-05
-6.76513e-05
-6.56052e-05
-6.32382e-05
-6.0548e-05
-5.75321e-05
-5.41878e-05
-5.05123e-05
-4.65025e-05
-4.2155e-05
-3.74662e-05
-3.24323e-05
-2.70492e-05
-2.13128e-05
-1.52189e-05
-8.76314e-06
-1.94116e-06
5.25163e-06
1.282e-05
2.07687e-05
2.91029e-05
3.78274e-05
4.69475e-05
5.6468e-05
6.63938e-05
7.67299e-05
8.74811e-05
9.86519e-05
0.000110247
0.00012227
0.000134726
0.000147619
0.000160951
0.000174725
0.000188945
0.000203611
0.000218726
0.000234289
0.0002503
0.000266758
0.000283661
0.000301005
0.000318786
0.000336997
0.000355632
0.000374681
0.000394134
0.00041398
0.000434203
0.00045479
0.000475721
0.000496979
0.000518542
0.000540389
-8.0199e-05
-8.06519e-05
-8.03805e-05
-7.9963e-05
-7.91919e-05
-7.81138e-05
-7.67251e-05
-7.50225e-05
-7.30039e-05
-7.06671e-05
-6.80099e-05
-6.50295e-05
-6.17231e-05
-5.80879e-05
-5.41203e-05
-4.9817e-05
-4.51739e-05
-4.0187e-05
-3.48522e-05
-2.91651e-05
-2.31212e-05
-1.67161e-05
-9.94481e-06
-2.80255e-06
4.71583e-06
1.26156e-05
2.09022e-05
2.95809e-05
3.86573e-05
4.81367e-05
5.80245e-05
6.83262e-05
7.90471e-05
9.01925e-05
0.000101767
0.000113777
0.000126226
0.000139119
0.000152459
0.000166252
0.000180499
0.000195203
0.000210367
0.000225992
0.000242078
0.000258625
0.000275633
0.000293099
0.000311019
0.000329389
0.000348203
0.000367453
0.000387129
0.000407223
0.000427721
0.000448609
0.000469872
0.000491492
0.00051345
0.000535725
-8.77898e-05
-8.82526e-05
-8.79901e-05
-8.75866e-05
-8.68323e-05
-8.57742e-05
-8.44087e-05
-8.27325e-05
-8.07434e-05
-7.84392e-05
-7.58173e-05
-7.28752e-05
-6.96097e-05
-6.60178e-05
-6.20959e-05
-5.78401e-05
-5.32463e-05
-4.83105e-05
-4.3028e-05
-3.73945e-05
-3.14051e-05
-2.50551e-05
-1.83393e-05
-1.12524e-05
-3.78878e-06
4.05711e-06
1.22911e-05
2.09189e-05
2.99465e-05
3.93797e-05
4.92245e-05
5.94868e-05
7.01726e-05
8.12878e-05
9.28383e-05
0.00010483
0.000117268
0.000130157
0.000143503
0.00015731
0.000171582
0.000186323
0.000201535
0.000217221
0.000233383
0.000250022
0.000267137
0.000284729
0.000302793
0.000321328
0.000340327
0.000359787
0.000379698
0.000400051
0.000420837
0.000442042
0.000463653
0.000485654
0.000508026
0.000530751
-9.57093e-05
-9.61826e-05
-9.59294e-05
-9.55409e-05
-9.48043e-05
-9.37676e-05
-9.2427e-05
-9.0779e-05
-8.88214e-05
-8.65521e-05
-8.39683e-05
-8.10672e-05
-7.78457e-05
-7.43004e-05
-7.04274e-05
-6.62229e-05
-6.16825e-05
-5.68017e-05
-5.1576e-05
-4.60006e-05
-4.00706e-05
-3.37806e-05
-2.71253e-05
-2.00988e-05
-1.26953e-05
-4.90871e-06
3.26713e-06
1.18385e-05
2.08116e-05
3.0193e-05
3.99891e-05
5.02065e-05
6.08518e-05
7.19317e-05
8.34526e-05
9.5421e-05
0.000107843
0.000120725
0.000134072
0.00014789
0.000162184
0.000176958
0.000192216
0.000207963
0.0002242
0.00024093
0.000258155
0.000275873
0.000294086
0.000312789
0.000331981
0.000351657
0.000371811
0.000392435
0.000413521
0.000435056
0.00045703
0.000479428
0.000502234
0.000525429
-0.000103955
-0.000104439
-0.000104196
-0.000103823
-0.000103105
-0.000102091
-0.000100777
-9.91593e-05
-9.72355e-05
-9.50034e-05
-9.24604e-05
-8.96033e-05
-8.64289e-05
-8.29336e-05
-7.91134e-05
-7.4964e-05
-7.0481e-05
-6.56598e-05
-6.04955e-05
-5.49832e-05
-4.91175e-05
-4.28928e-05
-3.63033e-05
-2.93428e-05
-2.20051e-05
-1.42837e-05
-6.17201e-06
2.33669e-06
1.12492e-05
2.05726e-05
3.03139e-05
4.04802e-05
5.1079e-05
6.21175e-05
7.36029e-05
8.55426e-05
9.79434e-05
0.000110812
0.000124156
0.00013798
0.000152291
0.000167094
0.000182396
0.0001982
0.000214511
0.000231331
0.000248665
0.000266512
0.000284874
0.00030375
0.000323138
0.000343037
0.00036344
0.000384344
0.000405739
0.000427618
0.000449968
0.000472779
0.000496034
0.000519719
-0.000112522
-0.000113018
-0.000112785
-0.000112429
-0.000111732
-0.000110742
-0.000109456
-0.000107871
-0.000105983
-0.000103791
-0.000101291
-9.84811e-05
-9.53572e-05
-9.19154e-05
-8.81518e-05
-8.40617e-05
-7.96406e-05
-7.48837e-05
-6.97858e-05
-6.43417e-05
-5.85456e-05
-5.23917e-05
-4.58738e-05
-3.89853e-05
-3.17196e-05
-2.40697e-05
-1.60287e-05
-7.58924e-06
1.25598e-06
1.05146e-05
2.01942e-05
3.03028e-05
4.08482e-05
5.18386e-05
6.32818e-05
7.5186e-05
8.7559e-05
0.000100408
0.000113742
0.000127566
0.000141889
0.000156718
0.000172058
0.000187916
0.000204297
0.000221206
0.000238646
0.000256621
0.000275133
0.000294183
0.000313771
0.000333896
0.000354556
0.000375745
0.000397459
0.00041969
0.000442429
0.000465666
0.000489387
0.000513578
-0.000121409
-0.000121917
-0.000121695
-0.000121357
-0.000120681
-0.000119717
-0.000118461
-0.00011691
-0.00011506
-0.000112911
-0.000110458
-0.000107698
-0.000104628
-0.000101244
-9.75406e-05
-9.35142e-05
-8.91597e-05
-8.4472e-05
-7.94457e-05
-7.40752e-05
-6.83545e-05
-6.22773e-05
-5.58371e-05
-4.9027e-05
-4.18398e-05
-3.42684e-05
-2.6305e-05
-1.7942e-05
-9.17137e-06
1.50542e-08
9.62562e-06
1.96688e-05
3.01534e-05
4.1088e-05
5.24815e-05
6.43427e-05
7.66802e-05
8.95027e-05
0.000102819
0.000116637
0.000130966
0.000145813
0.000161186
0.000177093
0.00019354
0.000210533
0.000228077
0.000246178
0.000264839
0.000284063
0.000303852
0.000324205
0.000345124
0.000366604
0.000388643
0.000411236
0.000434374
0.000458048
0.000482248
0.000506963
-0.000130611
-0.000131131
-0.000130921
-0.000130602
-0.000129949
-0.000129012
-0.000127788
-0.000126273
-0.000124465
-0.000122361
-0.000119957
-0.000117251
-0.000114239
-0.000110916
-0.000107278
-0.00010332
-9.90365e-05
-9.44232e-05
-8.9474e-05
-8.41829e-05
-7.85435e-05
-7.25494e-05
-6.61934e-05
-5.94685e-05
-5.23671e-05
-4.48813e-05
-3.70031e-05
-2.87242e-05
-2.00359e-05
-1.09297e-05
-1.39636e-06
8.57323e-06
1.89885e-05
2.98589e-05
4.11941e-05
5.30036e-05
6.52972e-05
7.80846e-05
9.13754e-05
0.000105179
0.000119506
0.000134364
0.000149764
0.000165713
0.000182219
0.000199291
0.000216935
0.000235158
0.000253965
0.000273361
0.000293349
0.000313932
0.000335111
0.000356886
0.000379255
0.000402215
0.00042576
0.000449882
0.000474573
0.000499827
-0.000140123
-0.000140657
-0.00014046
-0.000140161
-0.000139531
-0.000138624
-0.000137434
-0.000135958
-0.000134193
-0.000132137
-0.000129786
-0.000127137
-0.000124186
-0.000120929
-0.00011736
-0.000113475
-0.000109269
-0.000104736
-9.98692e-05
-9.46635e-05
-8.91119e-05
-8.32074e-05
-7.69428e-05
-7.03103e-05
-6.33021e-05
-5.59097e-05
-4.81247e-05
-3.99381e-05
-3.13408e-05
-2.23234e-05
-1.28762e-05
-2.98934e-06
7.34735e-06
1.81442e-05
2.94115e-05
4.116e-05
5.34002e-05
6.6143e-05
7.93992e-05
9.31797e-05
0.000107495
0.000122356
0.000137773
0.000153756
0.000170315
0.000187458
0.000205195
0.000223534
0.000242483
0.000262047
0.000282232
0.000303043
0.000324482
0.000346553
0.000369255
0.000392587
0.000416545
0.000441124
0.000466313
0.00049212
-0.000149943
-0.00015049
-0.000150307
-0.000150029
-0.000149425
-0.000148548
-0.000147394
-0.000145959
-0.000144241
-0.000142236
-0.000139941
-0.000137353
-0.000134468
-0.00013128
-0.000127786
-0.000123979
-0.000119855
-0.000115407
-0.000110629
-0.000105516
-0.000100058
-9.42508e-05
-8.80848e-05
-8.15525e-05
-7.46454e-05
-6.73548e-05
-5.96714e-05
-5.1586e-05
-4.30887e-05
-3.41696e-05
-2.48183e-05
-1.50241e-05
-4.77606e-06
5.93687e-06
1.7126e-05
2.88029e-05
4.09793e-05
5.3667e-05
6.68781e-05
8.06247e-05
9.49188e-05
0.000109772
0.000125197
0.000141204
0.000157805
0.000175012
0.000192834
0.000211282
0.000230365
0.000250091
0.000270468
0.000291502
0.0003132
0.000335566
0.000358602
0.000382308
0.000406685
0.000431726
0.000457415
0.000483795
-0.000160066
-0.000160627
-0.000160457
-0.000160201
-0.000159624
-0.00015878
-0.000157665
-0.000156274
-0.000154604
-0.000152654
-0.000150419
-0.000147896
-0.00014508
-0.000141967
-0.000138551
-0.000134828
-0.000130791
-0.000126435
-0.000121753
-0.000116738
-0.000111382
-0.000105679
-9.96191e-05
-9.31951e-05
-8.63975e-05
-7.92173e-05
-7.16448e-05
-6.367e-05
-5.52826e-05
-4.64719e-05
-3.72269e-05
-2.7536e-05
-1.73877e-05
-6.76982e-06
4.32975e-06
1.59236e-05
2.80245e-05
4.06454e-05
5.37997e-05
6.75006e-05
8.17613e-05
9.65952e-05
0.000112016
0.000128036
0.000144669
0.000161928
0.000179825
0.000198372
0.000217581
0.000237461
0.000258023
0.000279275
0.000301227
0.000323883
0.000347251
0.000371333
0.000396132
0.000421651
0.000447901
0.000474806
-0.000170486
-0.000171062
-0.000170907
-0.000170674
-0.000170125
-0.000169316
-0.000168241
-0.000166896
-0.000165279
-0.000163386
-0.000161215
-0.00015876
-0.000156018
-0.000152984
-0.000149653
-0.000146019
-0.000142076
-0.000137817
-0.000133237
-0.000128327
-0.000123081
-0.000117489
-0.000111545
-0.000105237
-9.85584e-05
-9.1498e-05
-8.4046e-05
-7.61919e-05
-6.79249e-05
-5.92335e-05
-5.0106e-05
-4.053e-05
-3.04931e-05
-1.99825e-05
-8.98488e-06
2.5133e-06
1.45259e-05
2.70672e-05
4.01514e-05
5.37932e-05
6.80073e-05
8.28085e-05
9.82117e-05
0.000114232
0.000130885
0.000148184
0.000166143
0.000184778
0.000204101
0.000224124
0.000244861
0.000266324
0.000288521
0.000311463
0.000335158
0.000359612
0.000384829
0.000410814
0.000437565
0.000465066
-0.000181198
-0.000181789
-0.00018165
-0.000181442
-0.000180923
-0.00018015
-0.000179118
-0.000177822
-0.00017626
-0.000174428
-0.000172324
-0.000169942
-0.000167279
-0.000164329
-0.000161087
-0.000157548
-0.000153704
-0.00014955
-0.000145079
-0.000140282
-0.000135153
-0.000129682
-0.00012386
-0.000117679
-0.000111128
-0.000104197
-9.6876e-05
-8.91535e-05
-8.1018e-05
-7.24575e-05
-6.34593e-05
-5.40106e-05
-4.40979e-05
-3.37076e-05
-2.28253e-05
-1.14364e-05
4.73954e-07
1.29212e-05
2.59209e-05
3.94889e-05
5.36414e-05
6.8395e-05
8.37663e-05
9.9772e-05
0.000116429
0.000133753
0.000151761
0.000170469
0.000189893
0.000210048
0.000230948
0.000252609
0.000275043
0.000298261
0.000322276
0.000347095
0.000372727
0.000399175
0.000426444
0.000454528
-0.000192197
-0.000192805
-0.000192681
-0.000192499
-0.000192012
-0.000191277
-0.00019029
-0.000189046
-0.000187542
-0.000185776
-0.000183742
-0.000181438
-0.000178858
-0.000175997
-0.00017285
-0.000169412
-0.000165674
-0.000161631
-0.000157276
-0.0001526
-0.000147596
-0.000142254
-0.000136564
-0.000130518
-0.000124105
-0.000117315
-0.000110135
-0.000102556
-9.45638e-05
-8.61463e-05
-7.72903e-05
-6.7982e-05
-5.82072e-05
-4.79511e-05
-3.71986e-05
-2.59339e-05
-1.41411e-05
-1.8035e-06
1.10956e-05
2.45737e-05
3.86484e-05
5.33379e-05
6.86606e-05
8.46349e-05
0.000101279
0.000118612
0.000136652
0.000155417
0.000174926
0.000195196
0.000216246
0.000238091
0.000260748
0.000284232
0.000308556
0.000333732
0.000359771
0.000386681
0.000414468
0.000443134
-0.000203477
-0.000204101
-0.000203995
-0.00020384
-0.000203386
-0.000202692
-0.000201752
-0.000200563
-0.000199121
-0.000197422
-0.000195464
-0.000193241
-0.00019075
-0.000187984
-0.000184938
-0.000181606
-0.000177981
-0.000174057
-0.000169825
-0.000165278
-0.000160407
-0.000155202
-0.000149655
-0.000143754
-0.00013749
-0.00013085
-0.000123824
-0.0001164
-0.000108564
-0.000100302
-9.1602e-05
-8.24481e-05
-7.28257e-05
-6.27189e-05
-5.21117e-05
-4.09873e-05
-2.93284e-05
-1.71175e-05
-4.33624e-06
9.03418e-06
2.30131e-05
3.76203e-05
5.28759e-05
6.88e-05
8.5413e-05
0.000102735
0.000120788
0.000139592
0.000159168
0.000179536
0.000200717
0.00022273
0.000245594
0.000269328
0.000293948
0.000319469
0.000345906
0.00037327
0.000401572
0.000430817
-0.000215032
-0.000215673
-0.000215585
-0.000215458
-0.000215039
-0.000214388
-0.000213498
-0.000212367
-0.000210989
-0.000209363
-0.000207484
-0.000205348
-0.000202949
-0.000200283
-0.000197344
-0.000194125
-0.00019062
-0.000186822
-0.000182722
-0.000178312
-0.000173583
-0.000168525
-0.000163129
-0.000157384
-0.000151279
-0.000144803
-0.000137943
-0.000130686
-0.000123018
-0.000114927
-0.000106397
-9.74123e-05
-8.79577e-05
-7.80164e-05
-6.75711e-05
-5.66041e-05
-4.50971e-05
-3.30311e-05
-2.03865e-05
-7.14284e-06
6.7207e-06
2.12255e-05
3.63934e-05
5.22465e-05
6.8807e-05
8.60978e-05
0.000104142
0.000122963
0.000142585
0.00016303
0.000184322
0.000206483
0.000229536
0.000253501
0.000278399
0.00030425
0.000331072
0.00035888
0.000387689
0.000417513
-0.000226855
-0.000227514
-0.000227445
-0.000227348
-0.000226965
-0.000226359
-0.000225522
-0.000224451
-0.000223142
-0.000221592
-0.000219796
-0.000217751
-0.000215451
-0.000212891
-0.000210064
-0.000206966
-0.000203587
-0.000199922
-0.000195962
-0.000191697
-0.000187119
-0.000182219
-0.000176985
-0.000171407
-0.000165473
-0.000159171
-0.000152489
-0.000145413
-0.000137929
-0.000130022
-0.000121677
-0.000112877
-0.000103607
-9.38482e-05
-8.35827e-05
-7.27916e-05
-6.14555e-05
-4.95541e-05
-3.70663e-05
-2.39702e-05
-1.02434e-05
4.13709e-06
1.91948e-05
3.49537e-05
5.14384e-05
6.86741e-05
8.66863e-05
0.000105501
0.000125145
0.000145643
0.000167022
0.000189308
0.000212526
0.000236701
0.000261858
0.000288019
0.000315207
0.000343443
0.000372743
0.000403125
-0.00023894
-0.000239617
-0.000239567
-0.000239502
-0.000239158
-0.000238598
-0.000237817
-0.000236809
-0.000235572
-0.000234101
-0.000232394
-0.000230445
-0.000228249
-0.0002258
-0.000223093
-0.000220121
-0.000216877
-0.000213353
-0.00020954
-0.00020543
-0.000201013
-0.00019628
-0.000191218
-0.000185818
-0.000180067
-0.000173953
-0.000167462
-0.000160581
-0.000153294
-0.000145587
-0.000137443
-0.000128846
-0.000119777
-0.000110219
-0.000100152
-8.95562e-05
-7.84114e-05
-6.66956e-05
-5.43863e-05
-4.14602e-05
-2.78934e-05
-1.36611e-05
1.26185e-06
1.69016e-05
3.32849e-05
5.04395e-05
6.83933e-05
8.71751e-05
0.000106814
0.000127338
0.000148777
0.000171161
0.000194518
0.000218878
0.000244269
0.000270717
0.00029825
0.000326892
0.000356666
0.00038759
-0.000251279
-0.000251975
-0.000251945
-0.000251913
-0.000251609
-0.000251098
-0.000250375
-0.000249434
-0.000248272
-0.000246886
-0.000245271
-0.000243423
-0.000241336
-0.000239005
-0.000236424
-0.000233586
-0.000230483
-0.000227108
-0.000223452
-0.000219506
-0.000215259
-0.000210703
-0.000205825
-0.000200615
-0.00019506
-0.000189146
-0.00018286
-0.000176188
-0.000169114
-0.000161623
-0.000153697
-0.000145319
-0.00013647
-0.000127131
-0.000117283
-0.000106904
-9.59719e-05
-8.44641e-05
-7.23566e-05
-5.96247e-05
-4.62427e-05
-3.21846e-05
-1.74229e-05
-1.92957e-06
1.43246e-05
3.13695e-05
4.92358e-05
6.79548e-05
8.75581e-05
0.000108078
0.000129547
0.000151999