/*--------------------------------*- C++ -*----------------------------------*\
  =========                 |
  \\      /  F ield         | OpenFOAM: The Open Source CFD Toolbox
   \\    /   O peration     | Website:  https://openfoam.org
    \\  /    A nd           | Version:  8
     \\/     M anipulation  |
\*---------------------------------------------------------------------------*/
FoamFile
{
    version     2.0;
    format      ascii;
    class       surfaceScalarField;
    location    "0.5";
    object      phi;
}
// * * * * * * * * * * * * * * * * * * * * * * * * * * * * * * * * * * * * * //

dimensions      [0 3 -1 0 0 0 0];

internalField   nonuniform List<scalar> 
22960
(
-5.12645e-08
5.12643e-08
-1.03785e-07
5.252e-08
-1.56212e-07
5.24271e-08
-2.08483e-07
5.22713e-08
-2.60546e-07
5.20636e-08
-3.12351e-07
5.18043e-08
-3.63845e-07
5.14938e-08
-4.14977e-07
5.11326e-08
-4.65699e-07
5.07213e-08
-5.15959e-07
5.02604e-08
-5.6571e-07
4.97507e-08
-6.14903e-07
4.9193e-08
-6.63491e-07
4.85882e-08
-7.11428e-07
4.79372e-08
-7.58669e-07
4.7241e-08
-8.0517e-07
4.65008e-08
-8.50888e-07
4.57177e-08
-8.9578e-07
4.48928e-08
-9.39808e-07
4.40277e-08
-9.82932e-07
4.31235e-08
-1.02511e-06
4.21819e-08
-1.06632e-06
4.12043e-08
-1.10651e-06
4.01923e-08
-1.14566e-06
3.91477e-08
-1.18373e-06
3.80723e-08
-1.2207e-06
3.6968e-08
-1.25653e-06
3.58367e-08
-1.29122e-06
3.46807e-08
-1.32472e-06
3.35022e-08
-1.35702e-06
3.23037e-08
-1.38811e-06
3.10879e-08
-1.41797e-06
2.98576e-08
-1.44658e-06
2.8616e-08
-1.47395e-06
2.73666e-08
-1.50006e-06
2.61133e-08
-1.52492e-06
2.48605e-08
-1.54854e-06
2.36132e-08
-1.57091e-06
2.23772e-08
-1.59207e-06
2.11593e-08
-1.61204e-06
1.99673e-08
-1.63085e-06
1.8811e-08
-1.64855e-06
1.77019e-08
-1.66521e-06
1.66546e-08
-1.68089e-06
1.56869e-08
-1.69572e-06
1.48222e-08
-1.70981e-06
1.40903e-08
-1.72334e-06
1.35311e-08
-1.73654e-06
1.31988e-08
-1.7497e-06
1.31681e-08
-1.76325e-06
1.35452e-08
-1.77774e-06
1.44875e-08
-1.79397e-06
1.62358e-08
-1.81315e-06
1.91746e-08
-1.8371e-06
2.39473e-08
-1.86878e-06
3.16848e-08
-1.91325e-06
4.44708e-08
-1.97957e-06
6.63155e-08
-2.08484e-06
1.05275e-07
-2.26535e-06
1.80513e-07
2.79957e-07
-2.54531e-06
-5.2622e-08
1.03886e-07
-1.06517e-07
1.06415e-07
-1.60318e-07
1.06228e-07
-2.1396e-07
1.05913e-07
-2.67388e-07
1.05492e-07
-3.2055e-07
1.04966e-07
-3.73394e-07
1.04337e-07
-4.25866e-07
1.03605e-07
-4.77916e-07
1.02771e-07
-5.29493e-07
1.01837e-07
-5.80546e-07
1.00804e-07
-6.31027e-07
9.96739e-08
-6.80887e-07
9.8448e-08
-7.30078e-07
9.71286e-08
-7.78555e-07
9.57176e-08
-8.26271e-07
9.42173e-08
-8.73184e-07
9.263e-08
-9.19249e-07
9.09583e-08
-9.64426e-07
8.92047e-08
-1.00867e-06
8.73722e-08
-1.05196e-06
8.54636e-08
-1.09423e-06
8.34821e-08
-1.13547e-06
8.1431e-08
-1.17564e-06
7.93136e-08
-1.2147e-06
7.71337e-08
-1.25263e-06
7.48951e-08
-1.28939e-06
7.26019e-08
-1.32497e-06
7.02585e-08
-1.35934e-06
6.78693e-08
-1.39247e-06
6.54395e-08
-1.42436e-06
6.29742e-08
-1.45498e-06
6.04794e-08
-1.48433e-06
5.79615e-08
-1.51239e-06
5.54273e-08
-1.53916e-06
5.28847e-08
-1.56464e-06
5.03425e-08
-1.58884e-06
4.78107e-08
-1.61176e-06
4.53008e-08
-1.63343e-06
4.28262e-08
-1.65386e-06
4.04027e-08
-1.6731e-06
3.80493e-08
-1.69119e-06
3.57889e-08
-1.70819e-06
3.36497e-08
-1.72417e-06
3.1667e-08
-1.73923e-06
2.98858e-08
-1.7535e-06
2.83638e-08
-1.76715e-06
2.71771e-08
-1.78038e-06
2.64278e-08
-1.79346e-06
2.62556e-08
-1.80678e-06
2.68565e-08
-1.8208e-06
2.85123e-08
-1.83621e-06
3.16404e-08
-1.85391e-06
3.68763e-08
-1.87518e-06
4.52176e-08
-1.90177e-06
5.82818e-08
-1.93608e-06
7.878e-08
-1.98119e-06
1.11418e-07
-2.04063e-06
1.64722e-07
-2.11511e-06
2.54988e-07
3.78469e-07
-2.21362e-06
-5.27361e-08
1.56622e-07
-1.06749e-07
1.60429e-07
-1.60668e-07
1.60146e-07
-2.14426e-07
1.59671e-07
-2.6797e-07
1.59036e-07
-3.21247e-07
1.58243e-07
-3.74204e-07
1.57294e-07
-4.26789e-07
1.5619e-07
-4.7895e-07
1.54933e-07
-5.30637e-07
1.53524e-07
-5.81798e-07
1.51966e-07
-6.32385e-07
1.50261e-07
-6.82349e-07
1.48412e-07
-7.31642e-07
1.46422e-07
-7.80218e-07
1.44294e-07
-8.28031e-07
1.42031e-07
-8.75038e-07
1.39637e-07
-9.21195e-07
1.37115e-07
-9.6646e-07
1.3447e-07
-1.01079e-06
1.31706e-07
-1.05416e-06
1.28827e-07
-1.09651e-06
1.25838e-07
-1.13783e-06
1.22744e-07
-1.17806e-06
1.1955e-07
-1.21719e-06
1.16262e-07
-1.25518e-06
1.12885e-07
-1.29201e-06
1.09425e-07
-1.32764e-06
1.05889e-07
-1.36205e-06
1.02284e-07
-1.39523e-06
9.86175e-08
-1.42715e-06
9.48968e-08
-1.4578e-06
9.11309e-08
-1.48717e-06
8.73292e-08
-1.51525e-06
8.35022e-08
-1.54202e-06
7.96613e-08
-1.5675e-06
7.58194e-08
-1.59168e-06
7.19913e-08
-1.61457e-06
6.81938e-08
-1.63619e-06
6.44465e-08
-1.65656e-06
6.07722e-08
-1.67571e-06
5.71983e-08
-1.69368e-06
5.37578e-08
-1.71052e-06
5.0491e-08
-1.7263e-06
4.74478e-08
-1.74111e-06
4.46912e-08
-1.75505e-06
4.23015e-08
-1.76825e-06
4.0383e-08
-1.7809e-06
3.90735e-08
-1.7932e-06
3.85582e-08
-1.80543e-06
3.90909e-08
-1.81795e-06
4.10261e-08
-1.83118e-06
4.48689e-08
-1.84565e-06
5.13525e-08
-1.86199e-06
6.15597e-08
-1.88083e-06
7.71121e-08
-1.9025e-06
1.00457e-07
-1.92635e-06
1.35266e-07
-1.9485e-06
1.86867e-07
-1.95572e-06
2.62216e-07
3.63754e-07
-1.94101e-06
-5.28922e-08
2.09515e-07
-1.07066e-07
2.14603e-07
-1.61144e-07
2.14224e-07
-2.15061e-07
2.13587e-07
-2.68762e-07
2.12738e-07
-3.22196e-07
2.11677e-07
-3.75308e-07
2.10407e-07
-4.28047e-07
2.08929e-07
-4.8036e-07
2.07245e-07
-5.32195e-07
2.05359e-07
-5.83504e-07
2.03274e-07
-6.34235e-07
2.00992e-07
-6.8434e-07
1.98517e-07
-7.33771e-07
1.95853e-07
-7.82482e-07
1.93004e-07
-8.30426e-07
1.89975e-07
-8.7756e-07
1.86771e-07
-9.23841e-07
1.83395e-07
-9.69225e-07
1.79855e-07
-1.01367e-06
1.76155e-07
-1.05715e-06
1.72301e-07
-1.09961e-06
1.683e-07
-1.14102e-06
1.64158e-07
-1.18135e-06
1.59882e-07
-1.22057e-06
1.55479e-07
-1.25864e-06
1.50957e-07
-1.29554e-06
1.46325e-07
-1.33124e-06
1.41589e-07
-1.36572e-06
1.36761e-07
-1.39895e-06
1.31849e-07
-1.43092e-06
1.26865e-07
-1.46161e-06
1.21818e-07
-1.491e-06
1.16722e-07
-1.51909e-06
1.11591e-07
-1.54587e-06
1.06439e-07
-1.57133e-06
1.01283e-07
-1.59548e-06
9.61413e-08
-1.61832e-06
9.10366e-08
-1.63987e-06
8.59934e-08
-1.66014e-06
8.10409e-08
-1.67915e-06
7.62134e-08
-1.69695e-06
7.15523e-08
-1.71356e-06
6.71075e-08
-1.72906e-06
6.29403e-08
-1.74349e-06
5.9127e-08
-1.75695e-06
5.57637e-08
-1.76954e-06
5.29732e-08
-1.78139e-06
5.09146e-08
-1.79262e-06
4.97967e-08
-1.80343e-06
4.98979e-08
-1.814e-06
5.15936e-08
-1.82453e-06
5.53966e-08
-1.83519e-06
6.20124e-08
-1.84604e-06
7.24154e-08
-1.85688e-06
8.79456e-08
-1.86683e-06
1.10411e-07
-1.87371e-06
1.42143e-07
-1.87268e-06
1.85839e-07
-1.85424e-06
2.43774e-07
3.15071e-07
-1.80555e-06
-5.31014e-08
2.62616e-07
-1.07489e-07
2.6899e-07
-1.61781e-07
2.68516e-07
-2.1591e-07
2.67717e-07
-2.69823e-07
2.66651e-07
-3.23466e-07
2.6532e-07
-3.76786e-07
2.63727e-07
-4.2973e-07
2.61872e-07
-4.82245e-07
2.59761e-07
-5.34281e-07
2.57395e-07
-5.85785e-07
2.54778e-07
-6.36709e-07
2.51916e-07
-6.87003e-07
2.48811e-07
-7.3662e-07
2.45469e-07
-7.85511e-07
2.41895e-07
-8.33631e-07
2.38096e-07
-8.80936e-07
2.34075e-07
-9.27381e-07
2.29841e-07
-9.72925e-07
2.25399e-07
-1.01753e-06
2.20757e-07
-1.06115e-06
2.15922e-07
-1.10375e-06
2.10902e-07
-1.1453e-06
2.05705e-07
-1.18576e-06
2.0034e-07
-1.22509e-06
1.94815e-07
-1.26328e-06
1.8914e-07
-1.30028e-06
1.83326e-07
-1.33607e-06
1.77383e-07
-1.37063e-06
1.71321e-07
-1.40394e-06
1.65154e-07
-1.43597e-06
1.58894e-07
-1.4667e-06
1.52555e-07
-1.49613e-06
1.46151e-07
-1.52424e-06
1.397e-07
-1.55102e-06
1.3322e-07
-1.57647e-06
1.26731e-07
-1.60058e-06
1.20255e-07
-1.62336e-06
1.13818e-07
-1.64482e-06
1.07449e-07
-1.66496e-06
1.01184e-07
-1.68381e-06
9.50617e-08
-1.70139e-06
8.91297e-08
-1.71773e-06
8.34451e-08
-1.73286e-06
7.80769e-08
-1.74685e-06
7.31097e-08
-1.75973e-06
6.86484e-08
-1.77158e-06
6.48245e-08
-1.78247e-06
6.18044e-08
-1.79248e-06
5.98009e-08
-1.80167e-06
5.90885e-08
-1.8101e-06
6.00237e-08
-1.81777e-06
6.30707e-08
-1.82459e-06
6.88322e-08
-1.83026e-06
7.8082e-08
-1.8341e-06
9.17882e-08
-1.83479e-06
1.11099e-07
-1.82988e-06
1.37231e-07
-1.81517e-06
1.71136e-07
-1.78411e-06
2.12707e-07
2.59141e-07
-1.72818e-06
-5.33638e-08
3.1598e-07
-1.0802e-07
3.23647e-07
-1.6258e-07
3.23075e-07
-2.16976e-07
3.22113e-07
-2.71154e-07
3.20829e-07
-3.2506e-07
3.19226e-07
-3.7864e-07
3.17307e-07
-4.31842e-07
3.15074e-07
-4.84611e-07
3.1253e-07
-5.36897e-07
3.09681e-07
-5.88648e-07
3.06529e-07
-6.39814e-07
3.03082e-07
-6.90345e-07
2.99342e-07
-7.40193e-07
2.95317e-07
-7.8931e-07
2.91013e-07
-8.37651e-07
2.86436e-07
-8.8517e-07
2.81594e-07
-9.31823e-07
2.76494e-07
-9.77567e-07
2.71144e-07
-1.02236e-06
2.65552e-07
-1.06617e-06
2.59729e-07
-1.10895e-06
2.53681e-07
-1.15066e-06
2.47421e-07
-1.19128e-06
2.40957e-07
-1.23077e-06
2.34301e-07
-1.26909e-06
2.27464e-07
-1.30622e-06
2.20457e-07
-1.34213e-06
2.13294e-07
-1.3768e-06
2.05988e-07
-1.4102e-06
1.98552e-07
-1.4423e-06
1.91003e-07
-1.4731e-06
1.83355e-07
-1.50258e-06
1.75628e-07
-1.53072e-06
1.67839e-07
-1.55751e-06
1.60011e-07
-1.58295e-06
1.52165e-07
-1.60702e-06
1.44328e-07
-1.62973e-06
1.3653e-07
-1.65108e-06
1.28802e-07
-1.67108e-06
1.21184e-07
-1.68974e-06
1.13719e-07
-1.70707e-06
1.06459e-07
-1.72309e-06
9.94651e-08
-1.73782e-06
9.28106e-08
-1.7513e-06
8.65836e-08
-1.76354e-06
8.08915e-08
-1.77458e-06
7.58656e-08
-1.78445e-06
7.16684e-08
-1.79315e-06
6.85012e-08
-1.80067e-06
6.66148e-08
-1.80697e-06
6.63211e-08
-1.81191e-06
6.80061e-08
-1.81521e-06
7.21395e-08
-1.81641e-06
7.92766e-08
-1.81466e-06
9.00376e-08
-1.8086e-06
1.05041e-07
-1.79611e-06
1.24746e-07
-1.77412e-06
1.49138e-07
-1.73853e-06
1.77124e-07
2.05983e-07
-1.68538e-06
-5.36799e-08
3.6966e-07
-1.0866e-07
3.78627e-07
-1.63542e-07
3.77957e-07
-2.1826e-07
3.7683e-07
-2.72757e-07
3.75327e-07
-3.2698e-07
3.73449e-07
-3.80874e-07
3.71201e-07
-4.34385e-07
3.68585e-07
-4.87461e-07
3.65606e-07
-5.40048e-07
3.62268e-07
-5.92096e-07
3.58577e-07
-6.43553e-07
3.54539e-07
-6.9437e-07
3.50159e-07
-7.44497e-07
3.45444e-07
-7.93887e-07
3.40403e-07
-8.42493e-07
3.35042e-07
-8.9027e-07
3.2937e-07
-9.37172e-07
3.23396e-07
-9.83158e-07
3.1713e-07
-1.02819e-06
3.1058e-07
-1.07222e-06
3.03758e-07
-1.11521e-06
2.96674e-07
-1.15713e-06
2.8934e-07
-1.19794e-06
2.81767e-07
-1.2376e-06
2.73968e-07
-1.2761e-06
2.65956e-07
-1.31338e-06
2.57744e-07
-1.34944e-06
2.49348e-07
-1.38423e-06
2.40783e-07
-1.41774e-06
2.32064e-07
-1.44995e-06
2.23209e-07
-1.48083e-06
2.14236e-07
-1.51037e-06
2.05165e-07
-1.53855e-06
1.96018e-07
-1.56536e-06
1.86818e-07
-1.59078e-06
1.77591e-07
-1.61482e-06
1.68364e-07
-1.63746e-06
1.59171e-07
-1.6587e-06
1.50046e-07
-1.67855e-06
1.4103e-07
-1.697e-06
1.32171e-07
-1.71406e-06
1.23521e-07
-1.72974e-06
1.15144e-07
-1.74404e-06
1.07115e-07
-1.75698e-06
9.95201e-08
-1.76855e-06
9.24644e-08
-1.77876e-06
8.60726e-08
-1.78759e-06
8.04949e-08
-1.795e-06
7.5911e-08
-1.80092e-06
7.25366e-08
-1.80523e-06
7.06275e-08
-1.8077e-06
7.04822e-08
-1.808e-06
7.24384e-08
-1.80558e-06
7.68567e-08
-1.79962e-06
8.40817e-08
-1.78895e-06
9.4363e-08
-1.77191e-06
1.07713e-07
-1.74644e-06
1.23668e-07
-1.71028e-06
1.40958e-07
1.57459e-07
-1.66175e-06
-5.40503e-08
4.2371e-07
-1.0941e-07
4.33987e-07
-1.6467e-07
4.33217e-07
-2.19763e-07
4.31924e-07
-2.74634e-07
4.30198e-07
-3.29228e-07
4.28043e-07
-3.83489e-07
4.25462e-07
-4.37364e-07
4.2246e-07
-4.90798e-07
4.1904e-07
-5.43739e-07
4.15209e-07
-5.96134e-07
4.10973e-07
-6.47933e-07
4.06337e-07
-6.99084e-07
4.0131e-07
-7.49538e-07
3.95899e-07
-7.99248e-07
3.90112e-07
-8.48165e-07
3.83959e-07
-8.96243e-07
3.77449e-07
-9.43439e-07
3.70592e-07
-9.89707e-07
3.63399e-07
-1.03501e-06
3.55881e-07
-1.0793e-06
3.48049e-07
-1.12254e-06
3.39917e-07
-1.1647e-06
3.31497e-07
-1.20574e-06
3.22802e-07
-1.24562e-06
3.13848e-07
-1.28431e-06
3.04647e-07
-1.32178e-06
2.95217e-07
-1.358e-06
2.85572e-07
-1.39295e-06
2.75731e-07
-1.4266e-06
2.65712e-07
-1.45892e-06
2.55533e-07
-1.4899e-06
2.45215e-07
-1.51952e-06
2.34779e-07
-1.54775e-06
2.2425e-07
-1.57458e-06
2.13653e-07
-1.60001e-06
2.03015e-07
-1.62401e-06
1.92367e-07
-1.64658e-06
1.81742e-07
-1.66771e-06
1.71179e-07
-1.6874e-06
1.6072e-07
-1.70565e-06
1.50412e-07
-1.72243e-06
1.40309e-07
-1.73777e-06
1.30476e-07
-1.75163e-06
1.20983e-07
-1.76403e-06
1.11915e-07
-1.77493e-06
1.0337e-07
-1.78432e-06
9.54615e-08
-1.79215e-06
8.83219e-08
-1.79834e-06
8.21048e-08
-1.80279e-06
7.69861e-08
-1.80533e-06
7.3164e-08
-1.8057e-06
7.08544e-08
-1.80354e-06
7.02804e-08
-1.79834e-06
7.16488e-08
-1.78936e-06
7.5108e-08
-1.77568e-06
8.06779e-08
-1.75611e-06
8.8141e-08
-1.72932e-06
9.68861e-08
-1.69419e-06
1.05826e-07
1.13346e-07
-1.65008e-06
-5.44753e-08
4.78185e-07
-1.1027e-07
4.89781e-07
-1.65964e-07
4.88911e-07
-2.21489e-07
4.87449e-07
-2.76789e-07
4.85498e-07
-3.31809e-07
4.83062e-07
-3.86491e-07
4.80145e-07
-4.40783e-07
4.76751e-07
-4.94629e-07
4.72886e-07
-5.47975e-07
4.68556e-07
-6.0077e-07
4.63767e-07
-6.5296e-07
4.58527e-07
-7.04495e-07
4.52845e-07
-7.55325e-07
4.46729e-07
-8.054e-07
4.40188e-07
-8.54674e-07
4.33233e-07
-9.031e-07
4.25874e-07
-9.50631e-07
4.18124e-07
-9.97225e-07
4.09993e-07
-1.04284e-06
4.01494e-07
-1.08743e-06
3.92641e-07
-1.13096e-06
3.83448e-07
-1.17339e-06
3.73929e-07
-1.21469e-06
3.64099e-07
-1.25482e-06
3.53973e-07
-1.29374e-06
3.43569e-07
-1.33142e-06
3.32903e-07
-1.36784e-06
3.21993e-07
-1.40297e-06
3.10858e-07
-1.43678e-06
2.99519e-07
-1.46924e-06
2.87996e-07
-1.50034e-06
2.7631e-07
-1.53004e-06
2.64487e-07
-1.55834e-06
2.5255e-07
-1.58522e-06
2.40528e-07
-1.61065e-06
2.28449e-07
-1.63463e-06
2.16346e-07
-1.65714e-06
2.04253e-07
-1.67817e-06
1.92209e-07
-1.69771e-06
1.80258e-07
-1.71575e-06
1.68446e-07
-1.73226e-06
1.56828e-07
-1.74725e-06
1.45465e-07
-1.7607e-06
1.34425e-07
-1.77257e-06
1.23786e-07
-1.78283e-06
1.13637e-07
-1.79145e-06
1.04078e-07
-1.79835e-06
9.52228e-08
-1.80344e-06
8.7196e-08
-1.80659e-06
8.01353e-08
-1.80761e-06
7.41858e-08
-1.80625e-06
6.94931e-08
-1.80216e-06
6.61893e-08
-1.79488e-06
6.43695e-08
-1.78383e-06
6.40544e-08
-1.76829e-06
6.51361e-08
-1.74745e-06
6.73027e-08
-1.72052e-06
6.996e-08
-1.68695e-06
7.22551e-08
7.29757e-08
-1.64658e-06
-5.49558e-08
5.33141e-07
-1.11242e-07
5.46067e-07
-1.67426e-07
5.45096e-07
-2.2344e-07
5.43462e-07
-2.79225e-07
5.41283e-07
-3.34726e-07
5.38563e-07
-3.89885e-07
5.35304e-07
-4.44648e-07
5.31514e-07
-4.98959e-07
5.27197e-07
-5.52764e-07
5.22361e-07
-6.06009e-07
5.17012e-07
-6.58642e-07
5.1116e-07
-7.10611e-07
5.04814e-07
-7.61865e-07
4.97983e-07
-8.12355e-07
4.90678e-07
-8.62033e-07
4.8291e-07
-9.1085e-07
4.74692e-07
-9.58762e-07
4.66035e-07
-1.00572e-06
4.56954e-07
-1.05169e-06
4.47462e-07
-1.09662e-06
4.37574e-07
-1.14048e-06
4.27305e-07
-1.18322e-06
4.16672e-07
-1.22481e-06
4.0569e-07
-1.26522e-06
3.94377e-07
-1.3044e-06
3.82752e-07
-1.34233e-06
3.70832e-07
-1.37898e-06
3.58638e-07
-1.41431e-06
3.46191e-07
-1.4483e-06
3.3351e-07
-1.48093e-06
3.2062e-07
-1.51216e-06
3.07544e-07
-1.54198e-06
2.94307e-07
-1.57037e-06
2.80936e-07
-1.5973e-06
2.67459e-07
-1.62276e-06
2.53908e-07
-1.64672e-06
2.40314e-07
-1.66918e-06
2.26714e-07
-1.69012e-06
2.13147e-07
-1.70952e-06
1.99656e-07
-1.72736e-06
1.86287e-07
-1.74362e-06
1.73092e-07
-1.75829e-06
1.6013e-07
-1.77133e-06
1.47464e-07
-1.78271e-06
1.35166e-07
-1.79238e-06
1.23312e-07
-1.8003e-06
1.1199e-07
-1.80637e-06
1.01292e-07
-1.81049e-06
9.13188e-08
-1.81252e-06
8.21716e-08
-1.81229e-06
7.3951e-08
-1.80954e-06
6.67467e-08
-1.80398e-06
6.06237e-08
-1.79521e-06
5.56016e-08
-1.78278e-06
5.16254e-08
-1.76617e-06
4.85267e-08
-1.74484e-06
4.59743e-08
-1.71835e-06
4.34688e-08
-1.68643e-06
4.03359e-08
3.56798e-08
-1.64914e-06
-5.54925e-08
5.88634e-07
-1.12328e-07
6.02903e-07
-1.6906e-07
6.01828e-07
-2.25619e-07
6.00021e-07
-2.81946e-07
5.9761e-07
-3.37984e-07
5.946e-07
-3.93675e-07
5.90996e-07
-4.48964e-07
5.86803e-07
-5.03795e-07
5.82027e-07
-5.58112e-07
5.76677e-07
-6.11861e-07
5.70761e-07
-6.64988e-07
5.64288e-07
-7.17442e-07
5.57267e-07
-7.6917e-07
5.49711e-07
-8.20123e-07
5.41631e-07
-8.70251e-07
5.33038e-07
-9.19506e-07
5.23947e-07
-9.67843e-07
5.14372e-07
-1.01521e-06
5.04326e-07
-1.06158e-06
4.93826e-07
-1.10689e-06
4.82887e-07
-1.15111e-06
4.71527e-07
-1.1942e-06
4.59763e-07
-1.23613e-06
4.47612e-07
-1.27684e-06
4.35094e-07
-1.31632e-06
4.22229e-07
-1.35452e-06
4.09036e-07
-1.39142e-06
3.95538e-07
-1.42699e-06
3.81755e-07
-1.46119e-06
3.67711e-07
-1.494e-06
3.53431e-07
-1.5254e-06
3.38939e-07
-1.55535e-06
3.24262e-07
-1.58384e-06
3.09428e-07
-1.61085e-06
2.94466e-07
-1.63635e-06
2.79408e-07
-1.66032e-06
2.64288e-07
-1.68275e-06
2.49142e-07
-1.70361e-06
2.34009e-07
-1.72289e-06
2.1893e-07
-1.74055e-06
2.03952e-07
-1.75658e-06
1.89124e-07
-1.77095e-06
1.74499e-07
-1.78362e-06
1.60136e-07
-1.79456e-06
1.46099e-07
-1.8037e-06
1.32455e-07
-1.81099e-06
1.19276e-07
-1.81633e-06
1.06637e-07
-1.81963e-06
9.46142e-08
-1.82074e-06
8.32808e-08
-1.81949e-06
7.27014e-08
-1.81566e-06
6.29234e-08
-1.809e-06
5.39653e-08
-1.7992e-06
4.57999e-08
-1.78591e-06
3.83325e-08
-1.76876e-06
3.13741e-08
-1.7474e-06
2.46181e-08
-1.72159e-06
1.76586e-08
-1.69123e-06
9.97838e-09
1.02142e-09
-1.65657e-06
-5.60862e-08
6.4472e-07
-1.1353e-07
6.60346e-07
-1.70868e-07
6.59166e-07
-2.28029e-07
6.57183e-07
-2.84956e-07
6.54537e-07
-3.41588e-07
6.51233e-07
-3.97868e-07
6.47277e-07
-4.5374e-07
6.42674e-07
-5.09145e-07
6.37433e-07
-5.64028e-07
6.3156e-07
-6.18334e-07
6.25067e-07
-6.72008e-07
6.17962e-07
-7.24997e-07
6.10257e-07
-7.7725e-07
6.01964e-07
-8.28715e-07
5.93095e-07
-8.79341e-07
5.83665e-07
-9.29081e-07
5.73687e-07
-9.77888e-07
5.63178e-07
-1.02571e-06
5.52153e-07
-1.07252e-06
5.40628e-07
-1.11825e-06
5.28622e-07
-1.16288e-06
5.16153e-07
-1.20635e-06
5.0324e-07
-1.24864e-06
4.89901e-07
-1.28971e-06
4.76159e-07
-1.32951e-06
4.62033e-07
-1.36802e-06
4.47546e-07
-1.40521e-06
4.32721e-07
-1.44103e-06
4.1758e-07
-1.47547e-06
4.02149e-07
-1.50849e-06
3.86453e-07
-1.54007e-06
3.70519e-07
-1.57018e-06
3.54374e-07
-1.5988e-06
3.38046e-07
-1.6259e-06
3.21568e-07
-1.65147e-06
3.04971e-07
-1.67547e-06
2.88289e-07
-1.69788e-06
2.71557e-07
-1.71869e-06
2.54816e-07
-1.73786e-06
2.38105e-07
-1.75538e-06
2.21468e-07
-1.77121e-06
2.04951e-07
-1.78531e-06
1.88605e-07
-1.79766e-06
1.72483e-07
-1.8082e-06
1.56639e-07
-1.81688e-06
1.41131e-07
-1.82362e-06
1.2602e-07
-1.82835e-06
1.11364e-07
-1.83095e-06
9.72199e-08
-1.83131e-06
8.36366e-08
-1.82926e-06
7.0652e-08
-1.82462e-06
5.82839e-08
-1.81718e-06
4.65208e-08
-1.80669e-06
3.53092e-08
-1.79289e-06
2.45383e-08
-1.77554e-06
1.40211e-08
-1.75444e-06
3.52254e-09
-1.72947e-06
-7.31875e-09
-1.70055e-06
-1.89364e-08
-3.17778e-08
-1.66775e-06
-5.67379e-08
7.01458e-07
-1.14848e-07
7.18457e-07
-1.72852e-07
7.17169e-07
-2.30675e-07
7.15006e-07
-2.88259e-07
7.12121e-07
-3.45544e-07
7.08518e-07
-4.02471e-07
7.04203e-07
-4.58981e-07
6.99184e-07
-5.15017e-07
6.93468e-07
-5.70521e-07
6.87065e-07
-6.25438e-07
6.79984e-07
-6.79713e-07
6.72236e-07
-7.3329e-07
6.63835e-07
-7.86118e-07
6.54792e-07
-8.38144e-07
6.45121e-07
-8.89318e-07
6.34839e-07
-9.3959e-07
6.23959e-07
-9.88912e-07
6.125e-07
-1.03724e-06
6.00478e-07
-1.08452e-06
5.87912e-07
-1.13072e-06
5.74821e-07
-1.17579e-06
5.61224e-07
-1.21969e-06
5.47141e-07
-1.26239e-06
5.32595e-07
-1.30383e-06
5.17606e-07
-1.344e-06
5.02199e-07
-1.38285e-06
4.86395e-07
-1.42035e-06
4.70219e-07
-1.45646e-06
4.53696e-07
-1.49116e-06
4.36852e-07
-1.52443e-06
4.19714e-07
-1.55622e-06
4.02309e-07
-1.58651e-06
3.84667e-07
-1.61528e-06
3.66816e-07
-1.6425e-06
3.48789e-07
-1.66815e-06
3.30619e-07
-1.6922e-06
3.12338e-07
-1.71462e-06
2.93983e-07
-1.7354e-06
2.75592e-07
-1.7545e-06
2.57205e-07
-1.77189e-06
2.38862e-07
-1.78755e-06
2.20608e-07
-1.80143e-06
2.02488e-07
-1.8135e-06
1.8455e-07
-1.8237e-06
1.66841e-07
-1.83198e-06
1.49412e-07
-1.83827e-06
1.32309e-07
-1.84249e-06
1.1558e-07
-1.84453e-06
9.92647e-08
-1.84429e-06
8.33945e-08
-1.84163e-06
6.79876e-08
-1.83639e-06
5.30425e-08
-1.82839e-06
3.85297e-08
-1.81747e-06
2.43837e-08
-1.80342e-06
1.0493e-08
-1.7861e-06
-3.30348e-09
-1.76535e-06
-1.72304e-08
-1.7411e-06
-3.15641e-08
-1.7134e-06
-4.66343e-08
-6.27899e-08
-1.68239e-06
-5.74486e-08
7.58906e-07
-1.16287e-07
7.77295e-07
-1.75015e-07
7.75897e-07
-2.33561e-07
7.73552e-07
-2.91862e-07
7.70422e-07
-3.49858e-07
7.66514e-07
-4.0749e-07
7.61835e-07
-4.64696e-07
7.56391e-07
-5.2142e-07
7.50192e-07
-5.77602e-07
7.43247e-07
-6.33185e-07
7.35567e-07
-6.88114e-07
7.27165e-07
-7.42333e-07
7.18054e-07
-7.95788e-07
7.08247e-07
-8.48426e-07
6.9776e-07
-9.00197e-07
6.86609e-07
-9.51049e-07
6.74812e-07
-1.00093e-06
6.62385e-07
-1.0498e-06
6.49348e-07
-1.09761e-06
6.35722e-07
-1.14432e-06
6.21525e-07
-1.18987e-06
6.06779e-07
-1.23424e-06
5.91507e-07
-1.27737e-06
5.75731e-07
-1.31924e-06
5.59474e-07
-1.3598e-06
5.4276e-07
-1.39902e-06
5.25615e-07
-1.43687e-06
5.08064e-07
-1.4733e-06
4.90133e-07
-1.5083e-06
4.7185e-07
-1.54183e-06
4.53242e-07
-1.57386e-06
4.34338e-07
-1.60436e-06
4.15168e-07
-1.63331e-06
3.95763e-07
-1.66067e-06
3.76155e-07
-1.68643e-06
3.56376e-07
-1.71055e-06
3.36461e-07
-1.73301e-06
3.16445e-07
-1.75379e-06
2.96365e-07
-1.77284e-06
2.7626e-07
-1.79015e-06
2.56168e-07
-1.80567e-06
2.36131e-07
-1.81937e-06
2.16189e-07
-1.83121e-06
1.96386e-07
-1.84113e-06
1.76764e-07
-1.84908e-06
1.57364e-07
-1.855e-06
1.38225e-07
-1.8588e-06
1.19383e-07
-1.8604e-06
1.00865e-07
-1.8597e-06
8.26897e-08
-1.85657e-06
6.48631e-08
-1.8509e-06
4.73709e-08
-1.84255e-06
3.01751e-08
-1.83137e-06
1.32073e-08
-1.81724e-06
-3.6366e-09
-1.80004e-06
-2.05004e-08
-1.7797e-06
-3.75697e-08
-1.7562e-06
-5.50677e-08
-1.72959e-06
-7.32469e-08
-9.23704e-08
-1.70001e-06
-5.82194e-08
8.17126e-07
-1.17847e-07
8.36922e-07
-1.77362e-07
8.35413e-07
-2.3669e-07
8.3288e-07
-2.95769e-07
8.29501e-07
-3.54537e-07
8.25282e-07
-4.12933e-07
8.2023e-07
-4.70895e-07
8.14353e-07
-5.28364e-07
8.07661e-07
-5.85281e-07
8.00164e-07
-6.41587e-07
7.91873e-07
-6.97225e-07
7.82803e-07
-7.52139e-07
7.72968e-07
-8.06274e-07
7.62382e-07
-8.59577e-07
7.51062e-07
-9.11994e-07
7.39026e-07
-9.63475e-07
7.26292e-07
-1.01397e-06
7.1288e-07
-1.06343e-06
6.98809e-07
-1.11181e-06
6.84101e-07
-1.15906e-06
6.68777e-07
-1.20514e-06
6.52862e-07
-1.25001e-06
6.36377e-07
-1.29363e-06
6.19347e-07
-1.33595e-06
6.01797e-07
-1.37695e-06
5.83753e-07
-1.41657e-06
5.65241e-07
-1.4548e-06
5.46288e-07
-1.49159e-06
5.26922e-07
-1.52691e-06
5.07171e-07
-1.56073e-06
4.87065e-07
-1.59303e-06
4.66632e-07
-1.62376e-06
4.45904e-07
-1.65291e-06
4.24913e-07
-1.68045e-06
4.0369e-07
-1.70634e-06
3.8227e-07
-1.73057e-06
3.60685e-07
-1.75309e-06
3.38971e-07
-1.77389e-06
3.17164e-07
-1.79293e-06
2.95301e-07
-1.81018e-06
2.73419e-07
-1.82561e-06
2.51557e-07
-1.83917e-06
2.29752e-07
-1.85083e-06
2.08043e-07
-1.86053e-06
1.86466e-07
-1.86822e-06
1.65056e-07
-1.87384e-06
1.43845e-07
-1.87732e-06
1.22861e-07
-1.87858e-06
1.02121e-07
-1.87752e-06
8.16374e-08
-1.87407e-06
6.14052e-08
-1.8681e-06
4.14047e-08
-1.85952e-06
2.15949e-08
-1.84822e-06
1.90992e-09
-1.83412e-06
-1.77434e-08
-1.81713e-06
-3.74886e-08
-1.79722e-06
-5.74781e-08
-1.7744e-06
-7.78893e-08
-1.74873e-06
-9.89164e-08
-1.20757e-07
-1.72034e-06
-5.90517e-08
8.76177e-07
-1.19531e-07
8.97401e-07
-1.79895e-07
8.95777e-07
-2.40069e-07
8.93054e-07
-2.99988e-07
8.8942e-07
-3.59589e-07
8.84883e-07
-4.1881e-07
8.7945e-07
-4.77587e-07
8.73131e-07
-5.35861e-07
8.65935e-07
-5.93571e-07
8.57873e-07
-6.50656e-07
8.48959e-07
-7.0706e-07
8.39207e-07
-7.62724e-07
8.28632e-07
-8.17593e-07
8.17251e-07
-8.71612e-07
8.05081e-07
-9.24727e-07
7.92141e-07
-9.76887e-07
7.78452e-07
-1.02804e-06
7.64033e-07
-1.07814e-06
7.48906e-07
-1.12713e-06
7.33095e-07
-1.17498e-06
7.16623e-07
-1.22163e-06
6.99513e-07
-1.26704e-06
6.81791e-07
-1.31118e-06
6.63483e-07
-1.354e-06
6.44615e-07
-1.39546e-06
6.25214e-07
-1.43553e-06
6.05308e-07
-1.47416e-06
5.84926e-07
-1.51134e-06
5.64096e-07
-1.54701e-06
5.42849e-07
-1.58116e-06
5.21214e-07
-1.61375e-06
4.99222e-07
-1.64475e-06
4.76905e-07
-1.67413e-06
4.54294e-07
-1.70187e-06
4.31424e-07
-1.72793e-06
4.08327e-07
-1.75228e-06
3.85037e-07
-1.7749e-06
3.6159e-07
-1.79575e-06
3.38019e-07
-1.81481e-06
3.14361e-07
-1.83204e-06
2.90651e-07
-1.84741e-06
2.66926e-07
-1.86088e-06
2.43219e-07
-1.8724e-06
2.19566e-07
-1.88194e-06
1.95999e-07
-1.88943e-06
1.72549e-07
-1.89482e-06
1.4924e-07
-1.89806e-06
1.26094e-07
-1.89906e-06
1.03124e-07
-1.89776e-06
8.0334e-08
-1.89407e-06
5.77167e-08
-1.88791e-06
3.52491e-08
-1.87921e-06
1.28912e-08
-1.86788e-06
-9.41691e-09
-1.85387e-06
-3.17565e-08
-1.83713e-06
-5.42309e-08
-1.81764e-06
-7.69638e-08
-1.79543e-06
-1.00095e-07
-1.77058e-06
-1.23774e-07
-1.48148e-07
-1.74319e-06
-5.99468e-08
9.36124e-07
-1.21342e-07
9.58796e-07
-1.8262e-07
9.57055e-07
-2.43703e-07
9.54137e-07
-3.04525e-07
9.50242e-07
-3.65021e-07
9.4538e-07
-4.25129e-07
9.39558e-07
-4.84783e-07
9.32785e-07
-5.43922e-07
9.25074e-07
-6.02484e-07
9.16435e-07
-6.60408e-07
9.06883e-07
-7.17635e-07
8.96434e-07
-7.74105e-07
8.85103e-07
-8.29763e-07
8.72908e-07
-8.84551e-07
8.5987e-07
-9.38416e-07
8.46007e-07
-9.91305e-07
8.3134e-07
-1.04317e-06
8.15893e-07
-1.09395e-06
7.99689e-07
-1.1436e-06
7.82751e-07
-1.19209e-06
7.65105e-07
-1.23935e-06
7.46776e-07
-1.28535e-06
7.27792e-07
-1.33005e-06
7.08179e-07
-1.3734e-06
6.87965e-07
-1.41536e-06
6.6718e-07
-1.45591e-06
6.45852e-07
-1.49499e-06
6.24012e-07
-1.53258e-06
6.01688e-07
-1.56865e-06
5.78914e-07
-1.60315e-06
5.55719e-07
-1.63607e-06
5.32136e-07
-1.66736e-06
5.08198e-07
-1.697e-06
4.83936e-07
-1.72496e-06
4.59385e-07
-1.75121e-06
4.34577e-07
-1.77573e-06
4.09548e-07
-1.79847e-06
3.84331e-07
-1.81941e-06
3.58961e-07
-1.83852e-06
3.33472e-07
-1.85577e-06
3.07899e-07
-1.87112e-06
2.82275e-07
-1.88453e-06
2.56633e-07
-1.89597e-06
2.31004e-07
-1.90539e-06
2.05417e-07
-1.91274e-06
1.79899e-07
-1.91797e-06
1.54471e-07
-1.92103e-06
1.29151e-07
-1.92185e-06
1.03946e-07
-1.92037e-06
7.88588e-08
-1.91654e-06
5.38791e-08
-1.91027e-06
2.89847e-08
-1.90152e-06
4.13875e-09
-1.89023e-06
-2.07111e-08
-1.87635e-06
-4.56337e-08
-1.85987e-06
-7.07139e-08
-1.84078e-06
-9.60506e-08
-1.81912e-06
-1.21753e-07
-1.79496e-06
-1.47936e-07
-1.74709e-07
-1.7684e-06
-6.09061e-08
9.9703e-07
-1.23283e-07
1.02117e-06
-1.8554e-07
1.01931e-06
-2.47597e-07
1.01619e-06
-3.09387e-07
1.01203e-06
-3.70843e-07
1.00684e-06
-4.31901e-07
1.00062e-06
-4.92495e-07
9.93379e-07
-5.5256e-07
9.85139e-07
-6.12035e-07
9.7591e-07
-6.70857e-07
9.65705e-07
-7.28965e-07
9.54541e-07
-7.86299e-07
9.42437e-07
-8.42801e-07
9.2941e-07
-8.98414e-07
9.15482e-07
-9.53082e-07
9.00675e-07
-1.00675e-06
8.8501e-07
-1.05937e-06
8.68511e-07
-1.11088e-06
8.51205e-07
-1.16125e-06
8.33115e-07
-1.21041e-06
8.1427e-07
-1.25833e-06
7.94695e-07
-1.30496e-06
7.74421e-07
-1.35026e-06
7.53475e-07
-1.39418e-06
7.31888e-07
-1.43669e-06
7.09689e-07
-1.47775e-06
6.86909e-07
-1.51731e-06
6.63579e-07
-1.55536e-06
6.39732e-07
-1.59184e-06
6.15399e-07
-1.62674e-06
5.90613e-07
-1.66001e-06
5.65407e-07
-1.69162e-06
5.39814e-07
-1.72155e-06
5.13867e-07
-1.74977e-06
4.87601e-07
-1.77624e-06
4.6105e-07
-1.80094e-06
4.34247e-07
-1.82384e-06
4.07226e-07
-1.8449e-06
3.80022e-07
-1.86409e-06
3.52669e-07
-1.88139e-06
3.25198e-07
-1.89676e-06
2.97643e-07
-1.91016e-06
2.70034e-07
-1.92156e-06
2.424e-07
-1.93091e-06
2.14767e-07
-1.93817e-06
1.8716e-07
-1.94329e-06
1.59597e-07
-1.94623e-06
1.32091e-07
-1.94694e-06
1.04651e-07
-1.94535e-06
7.72766e-08
-1.94143e-06
4.99569e-08
-1.93512e-06
2.26723e-08
-1.92637e-06
-4.60875e-09
-1.91515e-06
-3.19319e-08
-1.90143e-06
-5.93527e-08
-1.88521e-06
-8.69397e-08
-1.86649e-06
-1.14771e-07
-1.84531e-06
-1.42932e-07
-1.82174e-06
-1.71507e-07
-2.00581e-07
-1.79586e-06
-6.19312e-08
1.05896e-06
-1.25358e-07
1.0846e-06
-1.88661e-07
1.08262e-06
-2.51758e-07
1.07929e-06
-3.14582e-07
1.07486e-06
-3.77064e-07
1.06932e-06
-4.39137e-07
1.06269e-06
-5.00734e-07
1.05498e-06
-5.6179e-07
1.0462e-06
-6.22239e-07
1.03636e-06
-6.8202e-07
1.02549e-06
-7.41069e-07
1.01359e-06
-7.99325e-07
1.00069e-06
-8.56728e-07
9.86814e-07
-9.13221e-07
9.71975e-07
-9.68746e-07
9.562e-07
-1.02325e-06
9.39512e-07
-1.07668e-06
9.21938e-07
-1.12897e-06
9.03503e-07
-1.18009e-06
8.84235e-07
-1.22999e-06
8.64163e-07
-1.27861e-06
8.43315e-07
-1.32591e-06
8.21722e-07
-1.37185e-06
7.99414e-07
-1.41638e-06
7.76422e-07
-1.45947e-06
7.52778e-07
-1.50107e-06
7.28515e-07
-1.54116e-06
7.03665e-07
-1.57969e-06
6.78261e-07
-1.61663e-06
6.52337e-07
-1.65194e-06
6.25927e-07
-1.6856e-06
5.99064e-07
-1.71757e-06
5.71783e-07
-1.74782e-06
5.44118e-07
-1.77632e-06
5.16103e-07
-1.80304e-06
4.87773e-07
-1.82796e-06
4.59162e-07
-1.85104e-06
4.30305e-07
-1.87225e-06
4.01233e-07
-1.89156e-06
3.71982e-07
-1.90895e-06
3.42582e-07
-1.92437e-06
3.13064e-07
-1.93779e-06
2.83459e-07
-1.94919e-06
2.53793e-07
-1.95851e-06
2.24092e-07
-1.96573e-06
1.94376e-07
-1.9708e-06
1.64664e-07
-1.97367e-06
1.34967e-07
-1.97431e-06
1.05292e-07
-1.97268e-06
7.56394e-08
-1.96872e-06
4.60002e-08
-1.9624e-06
1.63576e-08
-1.9537e-06
-1.33149e-08
-1.94258e-06
-4.30542e-08
-1.92902e-06
-7.29048e-08
-1.91304e-06
-1.02921e-07
-1.89465e-06
-1.33163e-07
-1.87389e-06
-1.63695e-07
-1.85081e-06
-1.94582e-07
-2.25883e-07
-1.82551e-06
-6.30238e-08
1.12199e-06
-1.27569e-07
1.14914e-06
-1.91986e-07
1.14703e-06
-2.56193e-07
1.1435e-06
-3.20119e-07
1.13878e-06
-3.83694e-07
1.13289e-06
-4.46848e-07
1.12584e-06
-5.09514e-07
1.11764e-06
-5.71625e-07
1.10831e-06
-6.33113e-07
1.09785e-06
-6.93915e-07
1.08629e-06
-7.53965e-07
1.07364e-06
-8.13203e-07
1.05993e-06
-8.71566e-07
1.04518e-06
-9.28995e-07
1.0294e-06
-9.85433e-07
1.01264e-06
-1.04082e-06
9.94902e-07
-1.09511e-06
9.76225e-07
-1.14824e-06
9.56634e-07
-1.20017e-06
9.3616e-07
-1.25083e-06
9.14831e-07
-1.3002e-06
8.9268e-07
-1.34821e-06
8.69737e-07
-1.39484e-06
8.46035e-07
-1.44002e-06
8.21608e-07
-1.48373e-06
7.96487e-07
-1.52592e-06
7.70708e-07
-1.56656e-06
7.44304e-07
-1.60561e-06
7.17311e-07
-1.64304e-06
6.89762e-07
-1.6788e-06
6.61693e-07
-1.71288e-06
6.3314e-07
-1.74523e-06
6.04136e-07
-1.77583e-06
5.74718e-07
-1.80465e-06
5.4492e-07
-1.83165e-06
5.14778e-07
-1.85682e-06
4.84325e-07
-1.88011e-06
4.53596e-07
-1.9015e-06
4.22625e-07
-1.92096e-06
3.91443e-07
-1.93846e-06
3.60083e-07