/*--------------------------------*- C++ -*----------------------------------*\
  =========                 |
  \\      /  F ield         | OpenFOAM: The Open Source CFD Toolbox
   \\    /   O peration     | Website:  https://openfoam.org
    \\  /    A nd           | Version:  8
     \\/     M anipulation  |
\*---------------------------------------------------------------------------*/
FoamFile
{
    version     2.0;
    format      ascii;
    class       volVectorField;
    location    "0.5";
    object      U;
}
// * * * * * * * * * * * * * * * * * * * * * * * * * * * * * * * * * * * * * //

dimensions      [0 1 -1 0 0 0 0];

internalField   nonuniform List<vector> 
11600
(
(-2.56112e-06 2.56062e-06 0)
(-7.75027e-06 2.62325e-06 0)
(-1.29998e-05 2.61861e-06 0)
(-1.82349e-05 2.61083e-06 0)
(-2.34517e-05 2.60045e-06 0)
(-2.86452e-05 2.5875e-06 0)
(-3.38102e-05 2.57199e-06 0)
(-3.89416e-05 2.55396e-06 0)
(-4.40343e-05 2.53341e-06 0)
(-4.90835e-05 2.51039e-06 0)
(-5.40841e-05 2.48494e-06 0)
(-5.90313e-05 2.45708e-06 0)
(-6.39204e-05 2.42687e-06 0)
(-6.87468e-05 2.39436e-06 0)
(-7.35057e-05 2.35959e-06 0)
(-7.81929e-05 2.32262e-06 0)
(-8.28038e-05 2.28351e-06 0)
(-8.73344e-05 2.24231e-06 0)
(-9.17805e-05 2.1991e-06 0)
(-9.61381e-05 2.15394e-06 0)
(-0.000100403 2.10691e-06 0)
(-0.000104573 2.05809e-06 0)
(-0.000108643 2.00755e-06 0)
(-0.00011261 1.95538e-06 0)
(-0.000116471 1.90167e-06 0)
(-0.000120223 1.84651e-06 0)
(-0.000123863 1.79001e-06 0)
(-0.000127389 1.73228e-06 0)
(-0.000130798 1.67342e-06 0)
(-0.000134088 1.61357e-06 0)
(-0.000137258 1.55285e-06 0)
(-0.000140305 1.49141e-06 0)
(-0.000143229 1.4294e-06 0)
(-0.000146028 1.36701e-06 0)
(-0.000148702 1.30443e-06 0)
(-0.000151251 1.24187e-06 0)
(-0.000153674 1.17959e-06 0)
(-0.000155974 1.11789e-06 0)
(-0.000158151 1.05708e-06 0)
(-0.000160207 9.97586e-07 0)
(-0.000162146 9.39875e-07 0)
(-0.000163971 8.84534e-07 0)
(-0.000165689 8.32284e-07 0)
(-0.000167306 7.84028e-07 0)
(-0.000168831 7.4092e-07 0)
(-0.000170277 7.0446e-07 0)
(-0.000171658 6.76642e-07 0)
(-0.000172994 6.60188e-07 0)
(-0.000174312 6.58922e-07 0)
(-0.000175647 6.78347e-07 0)
(-0.000177048 7.26606e-07 0)
(-0.000178582 8.16287e-07 0)
(-0.00018035 9.67895e-07 0)
(-0.0001825 1.21684e-06 0)
(-0.000185269 1.62818e-06 0)
(-0.000189046 2.3286e-06 0)
(-0.000194507 3.57632e-06 0)
(-0.000203059 5.91773e-06 0)
(-0.000211373 1.07322e-05 0)
(-0.000255813 1.79828e-05 0)
(-2.62886e-06 7.75474e-06 0)
(-7.95467e-06 7.94381e-06 0)
(-1.33419e-05 7.9298e-06 0)
(-1.87142e-05 7.90625e-06 0)
(-2.40678e-05 7.87483e-06 0)
(-2.93974e-05 7.83561e-06 0)
(-3.46977e-05 7.78864e-06 0)
(-3.99636e-05 7.734e-06 0)
(-4.51898e-05 7.67177e-06 0)
(-5.03712e-05 7.60205e-06 0)
(-5.55028e-05 7.52494e-06 0)
(-6.05796e-05 7.44057e-06 0)
(-6.55967e-05 7.34908e-06 0)
(-7.05493e-05 7.2506e-06 0)
(-7.54328e-05 7.14528e-06 0)
(-8.02425e-05 7.0333e-06 0)
(-8.4974e-05 6.91482e-06 0)
(-8.9623e-05 6.79005e-06 0)
(-9.41851e-05 6.65916e-06 0)
(-9.86565e-05 6.52238e-06 0)
(-0.000103033 6.37993e-06 0)
(-0.000107311 6.23203e-06 0)
(-0.000111487 6.07894e-06 0)
(-0.000115557 5.92091e-06 0)
(-0.000119519 5.75821e-06 0)
(-0.000123368 5.59113e-06 0)
(-0.000127103 5.41998e-06 0)
(-0.00013072 5.24508e-06 0)
(-0.000134217 5.06677e-06 0)
(-0.000137592 4.88543e-06 0)
(-0.000140844 4.70146e-06 0)
(-0.000143969 4.51528e-06 0)
(-0.000146967 4.32739e-06 0)
(-0.000149838 4.1383e-06 0)
(-0.000152579 3.94859e-06 0)
(-0.000155192 3.75894e-06 0)
(-0.000157676 3.57008e-06 0)
(-0.000160032 3.38289e-06 0)
(-0.000162261 3.19838e-06 0)
(-0.000164366 3.01773e-06 0)
(-0.00016635 2.84238e-06 0)
(-0.000168216 2.67406e-06 0)
(-0.00016997 2.51492e-06 0)
(-0.000171619 2.36763e-06 0)
(-0.000173171 2.23562e-06 0)
(-0.000174638 2.12331e-06 0)
(-0.000176033 2.03657e-06 0)
(-0.000177377 1.98332e-06 0)
(-0.000178692 1.97453e-06 0)
(-0.000180011 2.02577e-06 0)
(-0.000181377 2.15971e-06 0)
(-0.000182848 2.41057e-06 0)
(-0.000184501 2.83194e-06 0)
(-0.000186446 3.51131e-06 0)
(-0.000188833 4.59812e-06 0)
(-0.000191869 6.35939e-06 0)
(-0.000195829 9.29374e-06 0)
(-0.000201043 1.43772e-05 0)
(-0.00020636 2.3764e-05 0)
(-0.000224657 3.59608e-05 0)
(-2.63455e-06 1.30251e-05 0)
(-7.97197e-06 1.33419e-05 0)
(-1.33709e-05 1.33184e-05 0)
(-1.87549e-05 1.32788e-05 0)
(-2.41201e-05 1.32261e-05 0)
(-2.94613e-05 1.31602e-05 0)
(-3.4773e-05 1.30812e-05 0)
(-4.00502e-05 1.29894e-05 0)
(-4.52876e-05 1.28849e-05 0)
(-5.04801e-05 1.27677e-05 0)
(-5.56226e-05 1.26382e-05 0)
(-6.07101e-05 1.24964e-05 0)
(-6.57377e-05 1.23427e-05 0)
(-7.07006e-05 1.21772e-05 0)
(-7.55941e-05 1.20003e-05 0)
(-8.04136e-05 1.18121e-05 0)
(-8.51547e-05 1.16131e-05 0)
(-8.98129e-05 1.14034e-05 0)
(-9.43841e-05 1.11835e-05 0)
(-9.88641e-05 1.09537e-05 0)
(-0.000103249 1.07143e-05 0)
(-0.000107535 1.04658e-05 0)
(-0.000111719 1.02085e-05 0)
(-0.000115796 9.94299e-06 0)
(-0.000119765 9.66958e-06 0)
(-0.00012362 9.38881e-06 0)
(-0.000127361 9.10117e-06 0)
(-0.000130984 8.80722e-06 0)
(-0.000134486 8.50752e-06 0)
(-0.000137866 8.2027e-06 0)
(-0.000141121 7.89342e-06 0)
(-0.00014425 7.5804e-06 0)
(-0.000147251 7.26443e-06 0)
(-0.000150123 6.94639e-06 0)
(-0.000152865 6.62723e-06 0)
(-0.000155478 6.30805e-06 0)
(-0.000157961 5.99008e-06 0)
(-0.000160315 5.67474e-06 0)
(-0.00016254 5.36368e-06 0)
(-0.00016464 5.05884e-06 0)
(-0.000166615 4.76255e-06 0)
(-0.000168471 4.4776e-06 0)
(-0.000170212 4.20746e-06 0)
(-0.000171843 3.9564e-06 0)
(-0.000173372 3.72988e-06 0)
(-0.000174809 3.53487e-06 0)
(-0.000176166 3.38054e-06 0)
(-0.000177458 3.27909e-06 0)
(-0.000178705 3.24711e-06 0)
(-0.000179932 3.30761e-06 0)
(-0.000181168 3.49326e-06 0)
(-0.000182455 3.85154e-06 0)
(-0.000183839 4.45313e-06 0)
(-0.000185379 5.40573e-06 0)
(-0.000187137 6.87696e-06 0)
(-0.000189162 9.13245e-06 0)
(-0.000191442 1.25985e-05 0)
(-0.000193759 1.79647e-05 0)
(-0.000195249 2.63269e-05 0)
(-0.000197147 3.79235e-05 0)
(-2.64235e-06 1.83066e-05 0)
(-7.99559e-06 1.87513e-05 0)
(-1.34105e-05 1.87182e-05 0)
(-1.88105e-05 1.86626e-05 0)
(-2.41915e-05 1.85884e-05 0)
(-2.95484e-05 1.84958e-05 0)
(-3.48758e-05 1.83848e-05 0)
(-4.01684e-05 1.82557e-05 0)
(-4.5421e-05 1.81086e-05 0)
(-5.06285e-05 1.79439e-05 0)
(-5.57858e-05 1.77617e-05 0)
(-6.08878e-05 1.75624e-05 0)
(-6.59297e-05 1.73462e-05 0)
(-7.09066e-05 1.71135e-05 0)
(-7.58138e-05 1.68647e-05 0)
(-8.06466e-05 1.66001e-05 0)
(-8.54006e-05 1.63201e-05 0)
(-9.00714e-05 1.60253e-05 0)
(-9.46547e-05 1.5716e-05 0)
(-9.91464e-05 1.53928e-05 0)
(-0.000103543 1.50562e-05 0)
(-0.000107839 1.47067e-05 0)
(-0.000112033 1.43449e-05 0)
(-0.00011612 1.39714e-05 0)
(-0.000120098 1.35869e-05 0)
(-0.000123962 1.3192e-05 0)
(-0.000127711 1.27874e-05 0)
(-0.000131341 1.23738e-05 0)
(-0.00013485 1.19522e-05 0)
(-0.000138235 1.15233e-05 0)
(-0.000141495 1.1088e-05 0)
(-0.000144628 1.06474e-05 0)
(-0.000147632 1.02025e-05 0)
(-0.000150506 9.75464e-06 0)
(-0.00015325 9.305e-06 0)
(-0.000155862 8.85512e-06 0)
(-0.000158342 8.40668e-06 0)
(-0.000160692 7.9616e-06 0)
(-0.000162911 7.52212e-06 0)
(-0.000165002 7.09084e-06 0)
(-0.000166966 6.67087e-06 0)
(-0.000168807 6.26591e-06 0)
(-0.000170527 5.88052e-06 0)
(-0.000172133 5.52029e-06 0)
(-0.000173629 5.19224e-06 0)
(-0.000175024 4.90529e-06 0)
(-0.000176326 4.67093e-06 0)
(-0.000177547 4.50423e-06 0)
(-0.000178701 4.42524e-06 0)
(-0.000179803 4.46105e-06 0)
(-0.000180872 4.64886e-06 0)
(-0.000181926 5.04055e-06 0)
(-0.000182985 5.70949e-06 0)
(-0.000184061 6.76048e-06 0)
(-0.000185146 8.34409e-06 0)
(-0.000186188 1.06754e-05 0)
(-0.000187039 1.40536e-05 0)
(-0.000187359 1.88654e-05 0)
(-0.000186447 2.55185e-05 0)
(-0.000183622 3.40648e-05 0)
(-2.6528e-06 2.36062e-05 0)
(-8.02721e-06 2.41793e-05 0)
(-1.34636e-05 2.41366e-05 0)
(-1.88848e-05 2.40649e-05 0)
(-2.4287e-05 2.39691e-05 0)
(-2.96649e-05 2.38495e-05 0)
(-3.50132e-05 2.37063e-05 0)
(-4.03264e-05 2.35397e-05 0)
(-4.55995e-05 2.335e-05 0)
(-5.08271e-05 2.31374e-05 0)
(-5.60042e-05 2.29023e-05 0)
(-6.11257e-05 2.2645e-05 0)
(-6.61866e-05 2.23661e-05 0)
(-7.11822e-05 2.20658e-05 0)
(-7.61076e-05 2.17447e-05 0)
(-8.09583e-05 2.14032e-05 0)
(-8.57296e-05 2.1042e-05 0)
(-9.04172e-05 2.06615e-05 0)
(-9.50167e-05 2.02624e-05 0)
(-9.95241e-05 1.98453e-05 0)
(-0.000103935 1.94109e-05 0)
(-0.000108247 1.89599e-05 0)
(-0.000112454 1.84929e-05 0)
(-0.000116554 1.80109e-05 0)
(-0.000120544 1.75145e-05 0)
(-0.00012442 1.70047e-05 0)
(-0.000128179 1.64824e-05 0)
(-0.000131819 1.59485e-05 0)
(-0.000135337 1.5404e-05 0)
(-0.00013873 1.48501e-05 0)
(-0.000141997 1.42878e-05 0)
(-0.000145135 1.37186e-05 0)
(-0.000148144 1.31436e-05 0)
(-0.000151021 1.25645e-05 0)
(-0.000153765 1.19829e-05 0)
(-0.000156377 1.14007e-05 0)
(-0.000158855 1.08198e-05 0)
(-0.000161199 1.02428e-05 0)
(-0.000163411 9.67229e-06 0)
(-0.000165491 9.11147e-06 0)
(-0.000167441 8.56408e-06 0)
(-0.000169262 8.03457e-06 0)
(-0.000170958 7.52832e-06 0)
(-0.000172531 7.05186e-06 0)
(-0.000173987 6.61332e-06 0)
(-0.00017533 6.22283e-06 0)
(-0.000176567 5.89325e-06 0)
(-0.000177704 5.64105e-06 0)
(-0.000178749 5.4876e-06 0)
(-0.000179708 5.46095e-06 0)
(-0.000180589 5.59815e-06 0)
(-0.000181394 5.94863e-06 0)
(-0.000182119 6.57838e-06 0)
(-0.000182745 7.57527e-06 0)
(-0.000183222 9.05451e-06 0)
(-0.000183453 1.11619e-05 0)
(-0.000183252 1.4069e-05 0)
(-0.000182294 1.79452e-05 0)
(-0.00018005 2.2882e-05 0)
(-0.000175807 2.87054e-05 0)
(-2.66591e-06 2.89294e-05 0)
(-8.06688e-06 2.96314e-05 0)
(-1.35301e-05 2.95791e-05 0)
(-1.89781e-05 2.94911e-05 0)
(-2.44069e-05 2.93736e-05 0)
(-2.98112e-05 2.92269e-05 0)
(-3.51856e-05 2.90512e-05 0)
(-4.05247e-05 2.88469e-05 0)
(-4.58233e-05 2.86141e-05 0)
(-5.10762e-05 2.83534e-05 0)
(-5.62781e-05 2.8065e-05 0)
(-6.1424e-05 2.77495e-05 0)
(-6.65089e-05 2.74073e-05 0)
(-7.1528e-05 2.70389e-05 0)
(-7.64763e-05 2.6645e-05 0)
(-8.13493e-05 2.62262e-05 0)
(-8.61423e-05 2.57831e-05 0)
(-9.08509e-05 2.53164e-05 0)
(-9.54709e-05 2.48268e-05 0)
(-9.99979e-05 2.43152e-05 0)
(-0.000104428 2.37822e-05 0)
(-0.000108757 2.32289e-05 0)
(-0.000112982 2.2656e-05 0)
(-0.000117099 2.20646e-05 0)
(-0.000121104 2.14556e-05 0)
(-0.000124995 2.083e-05 0)
(-0.000128767 2.0189e-05 0)
(-0.000132419 1.95336e-05 0)
(-0.000135948 1.88653e-05 0)
(-0.000139352 1.81852e-05 0)
(-0.000142627 1.74947e-05 0)
(-0.000145772 1.67954e-05 0)
(-0.000148786 1.60889e-05 0)
(-0.000151667 1.53769e-05 0)
(-0.000154414 1.46615e-05 0)
(-0.000157025 1.39448e-05 0)
(-0.0001595 1.32292e-05 0)
(-0.000161839 1.25175e-05 0)
(-0.000164043 1.18127e-05 0)
(-0.00016611 1.11186e-05 0)
(-0.000168043 1.04394e-05 0)
(-0.000169842 9.77993e-06 0)
(-0.00017151 9.14624e-06 0)
(-0.000173048 8.54542e-06 0)
(-0.000174458 7.9862e-06 0)
(-0.000175744 7.47924e-06 0)
(-0.000176908 7.03783e-06 0)
(-0.000177953 6.67857e-06 0)
(-0.000178881 6.42238e-06 0)
(-0.000179693 6.2958e-06 0)
(-0.000180384 6.3325e-06 0)
(-0.000180946 6.5752e-06 0)
(-0.000181359 7.07754e-06 0)
(-0.000181585 7.90561e-06 0)
(-0.00018156 9.13769e-06 0)
(-0.000181174 1.08595e-05 0)
(-0.000180255 1.31504e-05 0)
(-0.000178546 1.6051e-05 0)
(-0.000175687 1.95013e-05 0)
(-0.000171272 2.32307e-05 0)
(-2.68171e-06 3.42816e-05 0)
(-8.11466e-06 3.51132e-05 0)
(-1.36102e-05 3.50511e-05 0)
(-1.90904e-05 3.49466e-05 0)
(-2.45512e-05 3.48073e-05 0)
(-2.99873e-05 3.46333e-05 0)
(-3.53932e-05 3.44249e-05 0)
(-4.07635e-05 3.41824e-05 0)
(-4.6093e-05 3.39063e-05 0)
(-5.13762e-05 3.3597e-05 0)
(-5.66081e-05 3.32549e-05 0)
(-6.17834e-05 3.28805e-05 0)
(-6.68972e-05 3.24746e-05 0)
(-7.19444e-05 3.20376e-05 0)
(-7.69204e-05 3.15703e-05 0)
(-8.18202e-05 3.10735e-05 0)
(-8.66394e-05 3.05478e-05 0)
(-9.13734e-05 2.99941e-05 0)
(-9.60179e-05 2.94133e-05 0)
(-0.000100569 2.88063e-05 0)
(-0.000105022 2.8174e-05 0)
(-0.000109373 2.75174e-05 0)
(-0.000113618 2.68377e-05 0)
(-0.000117755 2.61359e-05 0)
(-0.000121779 2.54131e-05 0)
(-0.000125687 2.46707e-05 0)
(-0.000129476 2.39098e-05 0)
(-0.000133143 2.31319e-05 0)
(-0.000136685 2.23383e-05 0)
(-0.000140101 2.15306e-05 0)
(-0.000143387 2.07104e-05 0)
(-0.000146541 1.98794e-05 0)
(-0.000149562 1.90396e-05 0)
(-0.000152448 1.81928e-05 0)
(-0.000155197 1.73414e-05 0)
(-0.000157809 1.64878e-05 0)
(-0.000160282 1.56347e-05 0)
(-0.000162616 1.47851e-05 0)
(-0.00016481 1.39426e-05 0)
(-0.000166864 1.31109e-05 0)
(-0.000168779 1.22948e-05 0)
(-0.000170555 1.14995e-05 0)
(-0.000172192 1.07312e-05 0)
(-0.000173691 9.99731e-06 0)
(-0.000175053 9.30667e-06 0)
(-0.000176279 8.66993e-06 0)
(-0.000177368 8.1e-06 0)
(-0.000178319 7.61263e-06 0)
(-0.000179131 7.22703e-06 0)
(-0.000179798 6.96666e-06 0)
(-0.00018031 6.86002e-06 0)
(-0.000180649 6.94131e-06 0)
(-0.000180789 7.25063e-06 0)
(-0.000180684 7.83311e-06 0)
(-0.000180268 8.73574e-06 0)
(-0.00017944 9.99991e-06 0)
(-0.000178061 1.16468e-05 0)
(-0.000175943 1.36515e-05 0)
(-0.00017287 1.59023e-05 0)
(-0.000168639 1.81408e-05 0)
(-2.70021e-06 3.9668e-05 0)
(-8.17063e-06 4.06301e-05 0)
(-1.3704e-05 4.05581e-05 0)
(-1.92219e-05 4.04371e-05 0)
(-2.47202e-05 4.02756e-05 0)
(-3.01936e-05 4.0074e-05 0)
(-3.56364e-05 3.98325e-05 0)
(-4.10433e-05 3.95516e-05 0)
(-4.64088e-05 3.92317e-05 0)
(-5.17276e-05 3.88733e-05 0)
(-5.69945e-05 3.84769e-05 0)
(-6.22043e-05 3.80432e-05 0)
(-6.73519e-05 3.75729e-05 0)
(-7.24322e-05 3.70666e-05 0)
(-7.74405e-05 3.65252e-05 0)
(-8.23718e-05 3.59496e-05 0)
(-8.72217e-05 3.53405e-05 0)
(-9.19854e-05 3.4699e-05 0)
(-9.66587e-05 3.4026e-05 0)
(-0.000101237 3.33226e-05 0)
(-0.000105717 3.259e-05 0)
(-0.000110094 3.18292e-05 0)
(-0.000114364 3.10415e-05 0)
(-0.000118523 3.02281e-05 0)
(-0.000122569 2.93904e-05 0)
(-0.000126498 2.85298e-05 0)
(-0.000130306 2.76478e-05 0)
(-0.000133991 2.67458e-05 0)
(-0.00013755 2.58255e-05 0)
(-0.000140979 2.48886e-05 0)
(-0.000144278 2.39369e-05 0)
(-0.000147443 2.29724e-05 0)
(-0.000150473 2.19971e-05 0)
(-0.000153365 2.10133e-05 0)
(-0.000156119 2.00235e-05 0)
(-0.000158732 1.90303e-05 0)
(-0.000161203 1.80366e-05 0)
(-0.000163532 1.70457e-05 0)
(-0.000165717 1.60614e-05 0)
(-0.000167758 1.50877e-05 0)
(-0.000169655 1.41294e-05 0)
(-0.000171406 1.3192e-05 0)
(-0.000173012 1.22817e-05 0)
(-0.000174472 1.14059e-05 0)
(-0.000175785 1.05731e-05 0)
(-0.00017695 9.79365e-06 0)
(-0.000177965 9.07943e-06 0)
(-0.000178826 8.44468e-06 0)
(-0.000179527 7.90616e-06 0)
(-0.00018006 7.48351e-06 0)
(-0.000180409 7.19943e-06 0)
(-0.000180555 7.07953e-06 0)
(-0.000180467 7.15147e-06 0)
(-0.0001801 7.44296e-06 0)
(-0.000179393 7.97765e-06 0)
(-0.000178263 8.76781e-06 0)
(-0.000176604 9.80245e-06 0)
(-0.00017429 1.10297e-05 0)
(-0.000171198 1.23334e-05 0)
(-0.000167236 1.35108e-05 0)
(-2.72144e-06 4.50942e-05 0)
(-8.23487e-06 4.61877e-05 0)
(-1.38117e-05 4.61057e-05 0)
(-1.93729e-05 4.59679e-05 0)
(-2.49143e-05 4.57841e-05 0)
(-3.04304e-05 4.55546e-05 0)
(-3.59156e-05 4.52797e-05 0)
(-4.13644e-05 4.49599e-05 0)
(-4.67713e-05 4.45956e-05 0)
(-5.2131e-05 4.41876e-05 0)
(-5.74381e-05 4.37363e-05 0)
(-6.26874e-05 4.32426e-05 0)
(-6.78738e-05 4.27071e-05 0)
(-7.29921e-05 4.21308e-05 0)
(-7.80374e-05 4.15144e-05 0)
(-8.3005e-05 4.0859e-05 0)
(-8.789e-05 4.01656e-05 0)
(-9.26879e-05 3.94352e-05 0)
(-9.73943e-05 3.86691e-05 0)
(-0.000102005 3.78682e-05 0)
(-0.000106515 3.70341e-05 0)
(-0.000110921 3.61678e-05 0)
(-0.000115219 3.52709e-05 0)
(-0.000119406 3.43446e-05 0)
(-0.000123477 3.33907e-05 0)
(-0.000127429 3.24104e-05 0)
(-0.00013126 3.14056e-05 0)
(-0.000134965 3.0378e-05 0)
(-0.000138543 2.93292e-05 0)
(-0.000141989 2.82613e-05 0)
(-0.000145303 2.71762e-05 0)
(-0.000148481 2.60761e-05 0)
(-0.000151521 2.49632e-05 0)
(-0.000154421 2.38399e-05 0)
(-0.00015718 2.2709e-05 0)
(-0.000159796 2.15732e-05 0)
(-0.000162266 2.04356e-05 0)
(-0.000164591 1.92998e-05 0)
(-0.000166768 1.81696e-05 0)
(-0.000168796 1.70491e-05 0)
(-0.000170675 1.59432e-05 0)
(-0.000172403 1.48573e-05 0)
(-0.000173978 1.37977e-05 0)
(-0.0001754 1.27713e-05 0)
(-0.000176665 1.17863e-05 0)
(-0.000177772 1.0852e-05 0)
(-0.000178717 9.9793e-06 0)
(-0.000179493 9.1804e-06 0)
(-0.000180093 8.46934e-06 0)
(-0.000180505 7.8618e-06 0)
(-0.000180714 7.37489e-06 0)
(-0.000180697 7.02654e-06 0)
(-0.000180426 6.83415e-06 0)
(-0.000179858 6.81229e-06 0)
(-0.000178943 6.96871e-06 0)
(-0.000177615 7.29847e-06 0)
(-0.000175799 7.77542e-06 0)
(-0.000173413 8.34166e-06 0)
(-0.000170389 8.89507e-06 0)
(-0.000166691 9.2891e-06 0)
(-2.74545e-06 5.05657e-05 0)
(-8.3075e-06 5.17916e-05 0)
(-1.39335e-05 5.16996e-05 0)
(-1.95436e-05 5.15448e-05 0)
(-2.51336e-05 5.13383e-05 0)
(-3.0698e-05 5.10805e-05 0)
(-3.62311e-05 5.07717e-05 0)
(-4.17273e-05 5.04125e-05 0)
(-4.71811e-05 5.00034e-05 0)
(-5.25869e-05 4.95451e-05 0)
(-5.79395e-05 4.90382e-05 0)
(-6.32335e-05 4.84837e-05 0)
(-6.84637e-05 4.78823e-05 0)
(-7.36249e-05 4.72349e-05 0)
(-7.87122e-05 4.65426e-05 0)
(-8.37206e-05 4.58065e-05 0)
(-8.86455e-05 4.50277e-05 0)
(-9.3482e-05 4.42073e-05 0)
(-9.82257e-05 4.33468e-05 0)
(-0.000102872 4.24473e-05 0)
(-0.000107417 4.15102e-05 0)
(-0.000111857 4.05372e-05 0)
(-0.000116187 3.95295e-05 0)
(-0.000120404 3.8489e-05 0)
(-0.000124504 3.74171e-05 0)
(-0.000128483 3.63156e-05 0)
(-0.000132339 3.51864e-05 0)
(-0.000136067 3.40312e-05 0)
(-0.000139666 3.28521e-05 0)
(-0.000143133 3.16512e-05 0)
(-0.000146463 3.04306e-05 0)
(-0.000149656 2.91925e-05 0)
(-0.000152709 2.79395e-05 0)
(-0.000155619 2.66742e-05 0)
(-0.000158385 2.53993e-05 0)
(-0.000161005 2.41178e-05 0)
(-0.000163476 2.2833e-05 0)
(-0.000165798 2.15484e-05 0)
(-0.000167968 2.02679e-05 0)
(-0.000169984 1.89959e-05 0)
(-0.000171846 1.77369e-05 0)
(-0.000173552 1.64964e-05 0)
(-0.000175098 1.52803e-05 0)
(-0.000176483 1.40952e-05 0)
(-0.000177704 1.29486e-05 0)
(-0.000178757 1.18489e-05 0)
(-0.000179637 1.08053e-05 0)
(-0.000180336 9.82828e-06 0)
(-0.000180846 8.92907e-06 0)
(-0.000181154 8.11963e-06 0)
(-0.000181245 7.4122e-06 0)
(-0.000181096 6.81838e-06 0)
(-0.000180681 6.34773e-06 0)
(-0.000179965 6.00561e-06 0)
(-0.000178907 5.78988e-06 0)
(-0.000177456 5.68658e-06 0)
(-0.000175561 5.66449e-06 0)
(-0.000173171 5.66913e-06 0)
(-0.00017025 5.61877e-06 0)
(-0.000166789 5.40821e-06 0)
(-2.77226e-06 5.6088e-05 0)
(-8.38861e-06 5.74476e-05 0)
(-1.40695e-05 5.73453e-05 0)
(-1.97343e-05 5.71733e-05 0)
(-2.53786e-05 5.69438e-05 0)
(-3.0997e-05 5.66573e-05 0)
(-3.65835e-05 5.63142e-05 0)
(-4.21326e-05 5.5915e-05 0)
(-4.76387e-05 5.54604e-05 0)
(-5.30962e-05 5.49511e-05 0)
(-5.84995e-05 5.43879e-05 0)
(-6.38434e-05 5.37716e-05 0)
(-6.91225e-05 5.31033e-05 0)
(-7.43317e-05 5.2384e-05 0)
(-7.94658e-05 5.16147e-05 0)
(-8.45199e-05 5.07967e-05 0)
(-8.94892e-05 4.99313e-05 0)
(-9.43689e-05 4.90197e-05 0)
(-9.91544e-05 4.80634e-05 0)
(-0.000103841 4.70638e-05 0)
(-0.000108425 4.60225e-05 0)
(-0.000112902 4.49411e-05 0)
(-0.000117268 4.38212e-05 0)
(-0.000121518 4.26646e-05 0)
(-0.00012565 4.14731e-05 0)
(-0.00012966 4.02486e-05 0)
(-0.000133544 3.8993e-05 0)
(-0.000137299 3.77084e-05 0)
(-0.000140923 3.63969e-05 0)
(-0.000144411 3.50608e-05 0)
(-0.000147762 3.37023e-05 0)
(-0.000150972 3.23239e-05 0)
(-0.000154039 3.09283e-05 0)
(-0.000156962 2.9518e-05 0)
(-0.000159737 2.80961e-05 0)
(-0.000162362 2.66657e-05 0)
(-0.000164836 2.52301e-05 0)
(-0.000167156 2.37928e-05 0)
(-0.000169321 2.23579e-05 0)
(-0.000171327 2.09294e-05 0)
(-0.000173174 1.95122e-05 0)
(-0.000174859 1.81112e-05 0)
(-0.000176379 1.67319e-05 0)
(-0.000177731 1.53807e-05 0)
(-0.000178912 1.40641e-05 0)
(-0.000179916 1.27895e-05 0)
(-0.000180737 1.15648e-05 0)
(-0.000181369 1.03984e-05 0)
(-0.000181801 9.29914e-06 0)
(-0.000182022 8.27574e-06 0)
(-0.000182015 7.33639e-06 0)
(-0.000181762 6.48782e-06 0)
(-0.000181238 5.73401e-06 0)
(-0.000180416 5.0743e-06 0)
(-0.000179262 4.50098e-06 0)
(-0.000177741 3.99626e-06 0)
(-0.000175816 3.52917e-06 0)
(-0.000173458 3.0509e-06 0)
(-0.00017065 2.49726e-06 0)
(-0.000167398 1.79345e-06 0)
(-2.80192e-06 6.16669e-05 0)
(-8.47834e-06 6.31615e-05 0)
(-1.42199e-05 6.30487e-05 0)
(-1.99452e-05 6.28592e-05 0)
(-2.56496e-05 6.26064e-05 0)
(-3.13277e-05 6.22907e-05 0)
(-3.69734e-05 6.19127e-05 0)
(-4.25811e-05 6.14729e-05 0)
(-4.8145e-05 6.09721e-05 0)
(-5.36595e-05 6.0411e-05 0)
(-5.9119e-05 5.97905e-05 0)
(-6.45181e-05 5.91116e-05 0)
(-6.98513e-05 5.83754e-05 0)
(-7.51135e-05 5.75829e-05 0)
(-8.02995e-05 5.67355e-05 0)
(-8.54041e-05 5.58344e-05 0)
(-9.04225e-05 5.4881e-05 0)
(-9.53499e-05 5.38768e-05 0)
(-0.000100182 5.28232e-05 0)
(-0.000104913 5.1722e-05 0)
(-0.00010954 5.05748e-05 0)
(-0.000114058 4.93834e-05 0)
(-0.000118463 4.81495e-05 0)
(-0.000122752 4.68751e-05 0)
(-0.00012692 4.55621e-05 0)
(-0.000130963 4.42126e-05 0)
(-0.000134879 4.28287e-05 0)
(-0.000138663 4.14125e-05 0)
(-0.000142314 3.99664e-05 0)
(-0.000145827 3.84927e-05 0)
(-0.0001492 3.69939e-05 0)
(-0.00015243 3.54726e-05 0)
(-0.000155515 3.39315e-05 0)
(-0.000158452 3.23735e-05 0)
(-0.000161238 3.08016e-05 0)
(-0.000163871 2.92189e-05 0)
(-0.000166349 2.76288e-05 0)
(-0.00016867 2.6035e-05 0)
(-0.000170831 2.44413e-05 0)
(-0.00017283 2.28519e-05 0)
(-0.000174665 2.12712e-05 0)
(-0.000176332 1.9704e-05 0)
(-0.000177829 1.81556e-05 0)
(-0.000179151 1.66315e-05 0)
(-0.000180296 1.51376e-05 0)
(-0.000181257 1.36802e-05 0)
(-0.000182028 1.22659e-05 0)
(-0.000182602 1.09015e-05 0)
(-0.000182968 9.59353e-06 0)
(-0.000183117 8.34808e-06 0)
(-0.000183032 7.17024e-06 0)
(-0.000182698 6.0632e-06 0)
(-0.000182095 5.02715e-06 0)
(-0.000181198 4.05788e-06 0)
(-0.000179985 3.145e-06 0)
(-0.000178428 2.26998e-06 0)
(-0.000176506 1.40383e-06 0)
(-0.000174203 5.0777e-07 0)
(-0.000171508 -4.66384e-07 0)
(-0.000168422 -1.57359e-06 0)
(-2.83448e-06 6.7308e-05 0)
(-8.57684e-06 6.89391e-05 0)
(-1.43851e-05 6.88157e-05 0)
(-2.01767e-05 6.86084e-05 0)
(-2.59471e-05 6.83318e-05 0)
(-3.16907e-05 6.79865e-05 0)
(-3.74013e-05 6.7573e-05 0)
(-4.30733e-05 6.70919e-05 0)
(-4.87006e-05 6.65441e-05 0)
(-5.42777e-05 6.59303e-05 0)
(-5.97989e-05 6.52516e-05 0)
(-6.52585e-05 6.4509e-05 0)
(-7.06512e-05 6.37037e-05 0)
(-7.59716e-05 6.28369e-05 0)
(-8.12144e-05 6.191e-05 0)
(-8.63745e-05 6.09243e-05 0)
(-9.14468e-05 5.98815e-05 0)
(-9.64266e-05 5.87831e-05 0)
(-0.000101309 5.76308e-05 0)
(-0.00010609 5.64263e-05 0)
(-0.000110764 5.51714e-05 0)
(-0.000115327 5.38682e-05 0)
(-0.000119776 5.25184e-05 0)
(-0.000124106 5.11242e-05 0)
(-0.000128313 4.96877e-05 0)
(-0.000132394 4.8211e-05 0)
(-0.000136344 4.66965e-05 0)
(-0.000140162 4.51465e-05 0)
(-0.000143842 4.35634e-05 0)
(-0.000147383 4.19497e-05 0)
(-0.000150782 4.0308e-05 0)
(-0.000154034 3.86411e-05 0)
(-0.000157139 3.69518e-05 0)
(-0.000160092 3.52429e-05 0)
(-0.000162891 3.35177e-05 0)
(-0.000165535 3.17793e-05 0)
(-0.00016802 3.00312e-05 0)
(-0.000170343 2.8277e-05 0)
(-0.000172504 2.65204e-05 0)
(-0.000174497 2.47655e-05 0)
(-0.000176322 2.30166e-05 0)
(-0.000177975 2.12782e-05 0)
(-0.000179452 1.9555e-05 0)
(-0.00018075 1.7852e-05 0)
(-0.000181863 1.61745e-05 0)
(-0.000182787 1.45278e-05 0)
(-0.000183516 1.29174e-05 0)
(-0.000184041 1.13483e-05 0)
(-0.000184355 9.82553e-06 0)
(-0.000184445 8.35307e-06 0)
(-0.0001843 6.93369e-06 0)
(-0.000183905 5.56812e-06 0)
(-0.000183244 4.25423e-06 0)
(-0.000182298 2.98596e-06 0)
(-0.00018105 1.75211e-06 0)
(-0.000179482 5.35197e-07 0)
(-0.000177578 -6.89363e-07 0)
(-0.000175328 -1.95159e-06 0)
(-0.000172731 -3.28739e-06 0)
(-0.000169795 -4.73831e-06 0)
(-2.86999e-06 7.30173e-05 0)
(-8.68426e-06 7.47864e-05 0)
(-1.45652e-05 7.46522e-05 0)
(-2.04291e-05 7.44268e-05 0)
(-2.62715e-05 7.4126e-05 0)
(-3.20865e-05 7.37505e-05 0)
(-3.7868e-05 7.33008e-05 0)
(-4.361e-05 7.27777e-05 0)
(-4.93066e-05 7.21819e-05 0)
(-5.49519e-05 7.15145e-05 0)
(-6.05403e-05 7.07765e-05 0)
(-6.6066e-05 6.99691e-05 0)
(-7.15235e-05 6.90934e-05 0)
(-7.69072e-05 6.81509e-05 0)
(-8.2212e-05 6.71431e-05 0)
(-8.74325e-05 6.60715e-05 0)
(-9.25637e-05 6.49377e-05 0)
(-9.76006e-05 6.37434e-05 0)
(-0.000102538 6.24905e-05 0)
(-0.000107372 6.11809e-05 0)
(-0.000112098 5.98165e-05 0)
(-0.000116711 5.83994e-05 0)
(-0.000121207 5.69317e-05 0)
(-0.000125582 5.54156e-05 0)
(-0.000129833 5.38534e-05 0)
(-0.000133954 5.22473e-05 0)
(-0.000137943 5.05999e-05 0)
(-0.000141797 4.89136e-05 0)
(-0.000145511 4.7191e-05 0)
(-0.000149082 4.54346e-05 0)
(-0.000152509 4.36474e-05 0)
(-0.000155787 4.1832e-05 0)
(-0.000158913 3.99914e-05 0)
(-0.000161886 3.81287e-05 0)
(-0.000164701 3.6247e-05 0)
(-0.000167357 3.43496e-05 0)
(-0.000169851 3.24398e-05 0)
(-0.000172181 3.05213e-05 0)
(-0.000174342 2.85979e-05 0)
(-0.000176334 2.66733e-05 0)
(-0.000178152 2.47516e-05 0)
(-0.000179794 2.28371e-05 0)
(-0.000181255 2.09341e-05 0)
(-0.000182532 1.90471e-05 0)
(-0.00018362 1.71807e-05 0)
(-0.000184514 1.53393e-05 0)
(-0.000185207 1.35274e-05 0)
(-0.000185693 1.17489e-05 0)
(-0.000185964 1.00074e-05 0)
(-0.000186009 8.30523e-06 0)
(-0.000185817 6.64363e-06 0)
(-0.000185378 5.02177e-06 0)
(-0.000184677 3.43621e-06 0)
(-0.000183701 1.8802e-06 0)
(-0.000182436 3.42887e-07 0)
(-0.000180869 -1.19124e-06 0)
(-0.000178993 -2.74208e-06 0)
(-0.000176801 -4.33507e-06 0)
(-0.000174295 -5.9992e-06 0)
(-0.000171485 -7.76475e-06 0)
(-2.9085e-06 7.88006e-05 0)
(-8.80077e-06 8.07096e-05 0)
(-1.47605e-05 8.05643e-05 0)
(-2.07029e-05 8.03204e-05 0)
(-2.66234e-05 7.99949e-05 0)
(-3.25159e-05 7.95886e-05 0)
(-3.83741e-05 7.9102e-05 0)
(-4.41921e-05 7.8536e-05 0)
(-4.99638e-05 7.78915e-05 0)
(-5.56831e-05 7.71694e-05 0)
(-6.13444e-05 7.63709e-05 0)
(-6.69416e-05 7.54973e-05 0)
(-7.24693e-05 7.455e-05 0)
(-7.79219e-05 7.35304e-05 0)
(-8.32939e-05 7.24401e-05 0)
(-8.85799e-05 7.12808e-05 0)
(-9.37749e-05 7.00542e-05 0)
(-9.88737e-05 6.87623e-05 0)
(-0.000103872 6.7407e-05 0)
(-0.000108764 6.59902e-05 0)
(-0.000113545 6.45143e-05 0)
(-0.000118212 6.29812e-05 0)
(-0.00012276 6.13934e-05 0)
(-0.000127184 5.97531e-05 0)
(-0.000131481 5.80628e-05 0)
(-0.000135647 5.6325e-05 0)
(-0.000139678 5.45422e-05 0)
(-0.000143571 5.2717e-05 0)
(-0.000147321 5.08522e-05 0)
(-0.000150927 4.89506e-05 0)
(-0.000154384 4.70149e-05 0)
(-0.00015769 4.50481e-05 0)
(-0.000160842 4.30533e-05 0)
(-0.000163836 4.10335e-05 0)
(-0.00016667 3.8992e-05 0)
(-0.000169342 3.69321e-05 0)
(-0.000171848 3.48571e-05 0)
(-0.000174185 3.27707e-05 0)
(-0.000176352 3.06764e-05 0)
(-0.000178344 2.8578e-05 0)
(-0.000180158 2.64794e-05 0)
(-0.000181792 2.43845e-05 0)
(-0.000183242 2.22972e-05 0)
(-0.000184503 2.02217e-05 0)
(-0.000185571 1.81618e-05 0)
(-0.000186441 1.61214e-05 0)
(-0.000187106 1.4104e-05 0)
(-0.000187561 1.21127e-05 0)
(-0.000187798 1.01499e-05 0)
(-0.000187809 8.21702e-06 0)
(-0.000187583 6.31409e-06 0)
(-0.000187112 4.43942e-06 0)
(-0.000186385 2.589e-06 0)
(-0.000185392 7.56115e-07 0)
(-0.000184122 -1.06918e-06 0)
(-0.000182567 -2.90021e-06 0)
(-0.000180722 -4.75391e-06 0)
(-0.000178586 -6.65025e-06 0)
(-0.000176161 -8.61147e-06 0)
(-0.000173458 -1.06605e-05 0)
(-2.95008e-06 8.46641e-05 0)
(-8.92656e-06 8.67148e-05 0)
(-1.49714e-05 8.65582e-05 0)
(-2.09986e-05 8.62954e-05 0)
(-2.70033e-05 8.59447e-05 0)
(-3.29794e-05 8.5507e-05 0)
(-3.89206e-05 8.49827e-05 0)
(-4.48206e-05 8.43729e-05 0)
(-5.06732e-05 8.36785e-05 0)
(-5.64725e-05 8.29006e-05 0)
(-6.22123e-05 8.20404e-05 0)
(-6.78869e-05 8.10993e-05 0)
(-7.34904e-05 8.00788e-05 0)
(-7.90171e-05 7.89805e-05 0)
(-8.44616e-05 7.78061e-05 0)
(-8.98184e-05 7.65573e-05 0)
(-9.50822e-05 7.52362e-05 0)
(-0.000100248 7.38446e-05 0)
(-0.00010531 7.23848e-05 0)
(-0.000110265 7.08589e-05 0)
(-0.000115107 6.92691e-05 0)
(-0.000119832 6.76178e-05 0)
(-0.000124435 6.59076e-05 0)
(-0.000128913 6.41407e-05 0)
(-0.000133261 6.23199e-05 0)
(-0.000137475 6.04477e-05 0)
(-0.000141551 5.85268e-05 0)
(-0.000145487 5.65601e-05 0)
(-0.000149277 5.45504e-05 0)
(-0.00015292 5.25005e-05 0)
(-0.000156411 5.04134e-05 0)
(-0.000159748 4.82923e-05 0)
(-0.000162928 4.61401e-05 0)
(-0.000165947 4.396e-05 0)
(-0.000168803 4.17554e-05 0)
(-0.000171492 3.95296e-05 0)
(-0.000174013 3.72859e-05 0)
(-0.000176361 3.50279e-05 0)
(-0.000178535 3.27591e-05 0)
(-0.000180531 3.04831e-05 0)
(-0.000182346 2.82035e-05 0)
(-0.000183976 2.59242e-05 0)
(-0.000185418 2.36487e-05 0)
(-0.000186667 2.13806e-05 0)
(-0.00018772 1.91235e-05 0)
(-0.000188572 1.68805e-05 0)
(-0.000189216 1.46546e-05 0)
(-0.000189648 1.24481e-05 0)
(-0.000189859 1.02627e-05 0)
(-0.000189844 8.09898e-06 0)
(-0.000189595 5.95649e-06 0)
(-0.000189103 3.83302e-06 0)
(-0.00018836 1.72451e-06 0)
(-0.000187359 -3.75334e-07 0)
(-0.000186092 -2.47529e-06 0)
(-0.000184554 -4.58667e-06 0)
(-0.000182743 -6.72327e-06 0)
(-0.000180658 -8.90093e-06 0)
(-0.000178305 -1.11368e-05 0)
(-0.000175692 -1.3448e-05 0)
(-2.9948e-06 9.06139e-05 0)
(-9.06184e-06 9.28084e-05 0)
(-1.51982e-05 9.26402e-05 0)
(-2.13165e-05 9.23581e-05 0)
(-2.74118e-05 9.19817e-05 0)
(-3.34779e-05 9.15117e-05 0)
(-3.95082e-05 9.0949e-05 0)
(-4.54963e-05 9.02944e-05 0)
(-5.14361e-05 8.95491e-05 0)
(-5.73212e-05 8.87141e-05 0)
(-6.31456e-05 8.77908e-05 0)
(-6.89032e-05 8.67808e-05 0)
(-7.45882e-05 8.56855e-05 0)
(-8.01947e-05 8.45067e-05 0)
(-8.57171e-05 8.32463e-05 0)
(-9.11498e-05 8.19062e-05 0)
(-9.64876e-05 8.04885e-05 0)
(-0.000101725 7.89952e-05 0)
(-0.000106857 7.74287e-05 0)
(-0.000111879 7.57913e-05 0)
(-0.000116786 7.40854e-05 0)
(-0.000121574 7.23135e-05 0)
(-0.000126237 7.04783e-05 0)
(-0.000130772 6.85822e-05 0)
(-0.000135174 6.66282e-05 0)
(-0.00013944 6.4619e-05 0)
(-0.000143566 6.25573e-05 0)
(-0.000147547 6.04462e-05 0)
(-0.000151381 5.82886e-05 0)
(-0.000155064 5.60876e-05 0)
(-0.000158593 5.38461e-05 0)
(-0.000161964 5.15674e-05 0)
(-0.000165174 4.92547e-05 0)
(-0.000168221 4.69111e-05 0)
(-0.000171101 4.45401e-05 0)
(-0.000173812 4.21449e-05 0)
(-0.00017635 3.9729e-05 0)
(-0.000178712 3.72959e-05 0)
(-0.000180897 3.48489e-05 0)
(-0.000182899 3.23916e-05 0)
(-0.000184717 2.99275e-05 0)
(-0.000186347 2.746e-05 0)
(-0.000187785 2.49927e-05 0)
(-0.000189028 2.25286e-05 0)
(-0.000190071 2.0071e-05 0)
(-0.00019091 1.76226e-05 0)
(-0.000191539 1.51858e-05 0)
(-0.000191953 1.27624e-05 0)
(-0.000192147 1.03537e-05 0)
(-0.000192115 7.95988e-06 0)
(-0.000191849 5.58e-06 0)
(-0.000191344 3.21183e-06 0)
(-0.000190594 8.51541e-07 0)
(-0.000189591 -1.50652e-06 0)
(-0.000188333 -3.86985e-06 0)
(-0.000186815 -6.24785e-06 0)
(-0.000185036 -8.65165e-06 0)