/*--------------------------------*- C++ -*----------------------------------*\
  =========                 |
  \\      /  F ield         | OpenFOAM: The Open Source CFD Toolbox
   \\    /   O peration     | Website:  https://openfoam.org
    \\  /    A nd           | Version:  8
     \\/     M anipulation  |
\*---------------------------------------------------------------------------*/
FoamFile
{
    version     2.0;
    format      ascii;
    class       surfaceScalarField;
    location    "0.11";
    object      phi;
}
// * * * * * * * * * * * * * * * * * * * * * * * * * * * * * * * * * * * * * //

dimensions      [0 3 -1 0 0 0 0];

internalField   nonuniform List<scalar> 
760
(
1.40751e-08
-1.40756e-08
-2.20557e-08
3.6131e-08
-1.13227e-07
9.11712e-08
-2.43119e-07
1.29892e-07
-3.92146e-07
1.49027e-07
-5.41797e-07
1.49651e-07
-6.76155e-07
1.34358e-07
-7.82467e-07
1.06312e-07
-8.51278e-07
6.88112e-08
-8.76482e-07
2.5204e-08
-8.55462e-07
-2.10205e-08
-7.89336e-07
-6.61256e-08
-6.83263e-07
-1.06074e-07
-5.46673e-07
-1.3659e-07
-3.93283e-07
-1.53389e-07
-2.40643e-07
-1.5264e-07
-1.0889e-07
-1.31754e-07
-1.8368e-08
-9.0522e-08
1.55002e-08
-3.38681e-08
1.55001e-08
-3.38459e-08
1.97712e-08
-1.78482e-07
1.80767e-07
-4.29436e-07
3.42126e-07
-7.56354e-07
4.56811e-07
-1.12014e-06
5.12816e-07
-1.48117e-06
5.10678e-07
-1.80367e-06
4.56856e-07
-2.05805e-06
3.60693e-07
-2.22203e-06
2.32795e-07
-2.28128e-06
8.44532e-08
-2.22992e-06
-7.23785e-08
-2.07108e-06
-2.2497e-07
-1.81733e-06
-3.59829e-07
-1.49085e-06
-4.63065e-07
-1.12294e-06
-5.21296e-07
-7.52295e-07
-5.23287e-07
-4.21506e-07
-4.62543e-07
-1.71191e-07
-3.40837e-07
-3.05664e-08
-1.74493e-07
-1.50665e-08
-9.12193e-08
1.10991e-07
-3.53195e-07
4.42742e-07
-7.56473e-07
7.45404e-07
-1.25506e-06
9.55402e-07
-1.79543e-06
1.05318e-06
-2.32402e-06
1.03926e-06
-2.79229e-06
9.2513e-07
-3.15983e-06
7.2823e-07
-3.39605e-06
4.69014e-07
-3.48126e-06
1.69669e-07
-3.40747e-06
-1.46175e-07
-3.17902e-06
-4.53417e-07
-2.81319e-06
-7.25662e-07
-2.34023e-06
-9.36026e-07
-1.80257e-06
-1.05896e-06
-1.25246e-06
-1.0734e-06
-7.47523e-07
-9.67477e-07
-3.43828e-07
-7.44533e-07
-8.65622e-08
-4.31759e-07
-1.01629e-07
-1.43701e-07
2.54692e-07
-5.2014e-07
8.1918e-07
-1.07077e-06
1.29604e-06
-1.72999e-06
1.61462e-06
-2.42969e-06
1.75288e-06
-3.10482e-06
1.71439e-06
-3.69765e-06
1.51797e-06
-4.16058e-06
1.19116e-06
-4.45773e-06
7.6616e-07
-4.56595e-06
2.77892e-07
-4.47565e-06
-2.36476e-07
-4.19153e-06
-7.37541e-07
-3.73327e-06
-1.18391e-06
-3.1359e-06
-1.5334e-06
-2.44913e-06
-1.74572e-06
-1.73529e-06
-1.78724e-06
-1.06501e-06
-1.63776e-06
-5.10649e-07
-1.2989e-06
-1.38103e-07
-8.04305e-07
-2.39731e-07
-1.91798e-07
4.4649e-07
-6.78764e-07
1.30615e-06
-1.37313e-06
1.9904e-06
-2.18737e-06
2.42887e-06
-3.03783e-06
2.60334e-06
-3.84868e-06
2.52524e-06
-4.5549e-06
2.22418e-06
-5.10399e-06
1.74025e-06
-5.4568e-06
1.11898e-06
-5.58804e-06
4.09128e-07
-5.48671e-06
-3.37802e-07
-5.15693e-06
-1.06732e-06
-4.61888e-06
-1.72197e-06
-3.90975e-06
-2.24253e-06
-3.08404e-06
-2.57143e-06
-2.21245e-06
-2.65883e-06
-1.37858e-06
-2.47163e-06
-6.73151e-07
-2.00433e-06
-1.86278e-07
-1.29118e-06
-4.26009e-07
-2.38046e-07
6.84536e-07
-8.33897e-07
1.902e-06
-1.67048e-06
2.82698e-06
-2.63684e-06
3.39524e-06
-3.6329e-06
3.59939e-06
-4.57245e-06
3.46479e-06
-5.38462e-06
3.03636e-06
-6.01393e-06
2.36955e-06
-6.4197e-06
1.52475e-06
-6.57553e-06
5.64962e-07
-6.46916e-06
-4.44176e-07
-6.10311e-06
-1.43338e-06
-5.49613e-06
-2.32894e-06
-4.68517e-06
-3.05349e-06
-3.72718e-06
-3.52943e-06
-2.69982e-06
-3.68618e-06
-1.69999e-06
-3.47146e-06
-8.39011e-07
-2.8653e-06
-2.34586e-07
-1.8956e-06
-6.60596e-07
-2.84991e-07
9.69526e-07
-9.91139e-07
2.60814e-06
-1.97032e-06
3.80616e-06
-3.08645e-06
4.51137e-06
-4.22245e-06
4.7354e-06
-5.28264e-06
4.52497e-06
-6.19212e-06
3.94585e-06
-6.8947e-06
3.07213e-06
-7.35024e-06
1.98028e-06
-7.5325e-06
7.47229e-07
-7.42816e-06
-5.48521e-07
-7.03712e-06
-1.82441e-06
-6.37457e-06
-2.9915e-06
-5.47423e-06
-3.95382e-06
-4.39248e-06
-4.61118e-06
-3.21179e-06
-4.86687e-06
-2.04198e-06
-4.64127e-06
-1.01713e-06
-3.89015e-06
-2.86748e-07
-2.62598e-06
-9.47343e-07
-3.34922e-07
1.30445e-06
-1.1556e-06
3.42882e-06
-2.27858e-06
4.92913e-06
-3.54014e-06
5.77293e-06
-4.80611e-06
6.00137e-06
-5.97313e-06
5.692e-06
-6.96534e-06
4.93806e-06
-7.72911e-06
3.83591e-06
-8.2277e-06
2.47887e-06
-8.43697e-06
9.565e-07
-8.34305e-06
-6.42439e-07
-7.94226e-06
-2.2252e-06
-7.24359e-06
-3.69017e-06
-6.27372e-06
-4.92369e-06
-5.08393e-06
-5.80098e-06
-3.75756e-06
-6.19324e-06
-2.41546e-06
-5.98337e-06
-1.21607e-06
-5.08954e-06
-3.46373e-07
-3.49568e-06
-1.29372e-06
-3.90066e-07
1.69451e-06
-1.33185e-06
4.37061e-06
-2.59892e-06
6.1962e-06
-3.99633e-06
7.17034e-06
-5.37341e-06
7.37845e-06
-6.62265e-06
6.94123e-06
-7.67201e-06
5.98742e-06
-8.47537e-06
4.63927e-06
-9.0035e-06
3.007e-06
-9.23719e-06
1.19019e-06
-9.16317e-06
-7.16462e-07
-8.7733e-06
-2.61506e-06
-8.06747e-06
-4.396e-06
-7.06023e-06
-5.93093e-06
-5.79125e-06
-7.06996e-06
-4.33801e-06
-7.64648e-06
-2.82777e-06
-7.49362e-06
-1.44355e-06
-6.47376e-06
-4.17075e-07
-4.52215e-06
-1.71079e-06
-4.53202e-07
2.14772e-06
-1.52477e-06
5.44217e-06
-2.93295e-06
7.60438e-06
-4.44685e-06
8.68424e-06
-5.90151e-06
8.83311e-06
-7.19136e-06
8.23108e-06
-8.25561e-06
7.05167e-06
-9.0626e-06
5.44626e-06
-9.59628e-06
3.54069e-06
-9.84628e-06
1.44018e-06
-9.80183e-06
-7.60913e-07
-9.44998e-06
-2.96691e-06
-8.7784e-06
-5.06759e-06
-7.78345e-06
-6.92588e-06
-6.48423e-06
-8.36917e-06
-4.94189e-06
-9.18882e-06
-3.28108e-06
-9.15443e-06
-1.70658e-06
-8.04826e-06
-5.02958e-07
-5.72577e-06
-2.21375e-06
-5.28778e-07
2.67649e-06
-1.74104e-06
6.65443e-06
-3.28046e-06
9.1438e-06
-4.87517e-06
1.02789e-05
-6.35141e-06
1.03094e-05
-7.61579e-06
9.49546e-06
-8.62959e-06
8.06547e-06
-9.38489e-06
6.20155e-06
-9.88589e-06
4.04168e-06
-1.01359e-05
1.69016e-06
-1.01293e-05
-7.67439e-07
-9.84896e-06
-3.24728e-06
-9.26763e-06
-5.64892e-06
-8.35705e-06
-7.83647e-06
-7.10466e-06
-9.62156e-06
-5.54021e-06
-1.07533e-05
-3.77009e-06
-1.09245e-05
-2.01171e-06
-9.80665e-06
-6.0951e-07
-7.12797e-06
-2.82326e-06
-6.24773e-07
3.30127e-06
-1.99095e-06
8.02061e-06
-3.63864e-06
1.07915e-05
-5.25202e-06
1.18923e-05
-6.66086e-06
1.17182e-05
-7.80054e-06
1.06351e-05
-8.66922e-06
8.93416e-06
-9.29392e-06
6.82625e-06
-9.70673e-06
4.45448e-06
-9.92971e-06
1.91314e-06
-9.96597e-06
-7.31183e-07
-9.79537e-06
-3.41788e-06
-9.37511e-06
-6.06918e-06
-8.64687e-06
-8.5647e-06
-7.55458e-06
-1.07138e-05
-6.07693e-06
-1.22309e-05
-4.27725e-06
-1.27242e-05
-2.36493e-06
-1.1719e-05
-7.45077e-07
-8.74782e-06
-3.56834e-06
-7.55734e-07
4.057e-06
-2.28974e-06
9.55461e-06
-3.99729e-06
1.2499e-05
-5.52472e-06
1.34198e-05
-6.73048e-06
1.2924e-05
-7.60418e-06
1.15088e-05
-8.19957e-06
9.52956e-06
-8.58995e-06
7.21662e-06
-8.84154e-06
4.70608e-06
-8.99894e-06
2.07054e-06
-9.07689e-06
-6.53236e-07
-9.05554e-06
-3.43923e-06
-8.87849e-06
-6.24623e-06
-8.45598e-06
-8.98721e-06
-7.67892e-06
-1.14909e-05
-6.45295e-06
-1.34569e-05
-4.76273e-06
-1.44145e-05
-2.76973e-06
-1.3712e-05
-9.23208e-07
-1.05943e-05
-4.49154e-06
-9.47211e-07
5.00421e-06
-2.65505e-06
1.12625e-05
-4.32363e-06
1.41676e-05
-5.59271e-06
1.46888e-05
-6.39691e-06
1.37282e-05
-6.81583e-06
1.19277e-05
-6.97841e-06
9.69214e-06
-7.01167e-06
7.24988e-06
-7.0171e-06
4.71151e-06
-7.06136e-06
2.11481e-06
-7.1721e-06
-5.42503e-07
-7.33404e-06
-3.27728e-06
-7.48409e-06
-6.09618e-06
-7.50728e-06
-8.96402e-06
-7.24057e-06
-1.17576e-05
-6.49854e-06
-1.41989e-05
-5.14297e-06
-1.577e-05
-3.21949e-06
-1.56354e-05
-1.16559e-06
-1.26482e-05
-5.65714e-06
-1.23939e-06
6.2436e-06
-3.09019e-06
1.31132e-05
-4.52116e-06
1.55986e-05
-5.25543e-06
1.54231e-05
-5.38392e-06
1.38566e-05
-5.11791e-06
1.16617e-05
-4.6734e-06
9.24764e-06
-4.22677e-06
6.80324e-06
-3.90503e-06
4.38977e-06
-3.78874e-06
1.99852e-06
-3.91567e-06
-4.15573e-07
-4.27984e-06
-2.91312e-06
-4.82399e-06
-5.55202e-06
-5.42617e-06
-8.36184e-06
-5.88583e-06
-1.1298e-05
-5.9259e-06
-1.41588e-05
-5.24467e-06
-1.64512e-05
-3.67197e-06
-1.72081e-05
-1.50164e-06
-1.48186e-05
-7.15878e-06
-1.67565e-06
7.91925e-06
-3.51966e-06
1.49573e-05
-4.3279e-06
1.64068e-05
-4.10893e-06
1.52041e-05
-3.22108e-06
1.29688e-05
-2.03458e-06
1.04752e-05
-8.37981e-07
8.05104e-06
1.70905e-07
5.79436e-06
8.66097e-07
3.69458e-06
1.17198e-06
1.69264e-06
1.04931e-06
-2.92901e-07
4.91486e-07
-2.3553e-06
-4.67246e-07
-4.59329e-06
-1.72996e-06
-7.09913e-06
-3.1018e-06
-9.92613e-06
-4.25182e-06
-1.30088e-05
-4.70869e-06
-1.59944e-05
-3.97355e-06
-1.79433e-05
-1.94671e-06
-1.68454e-05
-9.10549e-06
-2.23201e-06
1.01513e-05
-3.59516e-06
1.63204e-05
-3.08801e-06
1.58997e-05
-1.36082e-06
1.3477e-05
8.72608e-07
1.07354e-05
3.12298e-06
8.22486e-06
5.09919e-06
6.07483e-06
6.6441e-06
4.24945e-06
7.67736e-06
2.66131e-06
8.15636e-06
1.21365e-06
8.05426e-06
-1.90802e-07
7.35221e-06
-1.65325e-06
6.04484e-06
-3.28592e-06
4.16356e-06
-5.21785e-06
1.826e-06
-7.58856e-06
-6.81985e-07
-1.05008e-05
-2.80489e-06
-1.38715e-05
-3.66837e-06
-1.70798e-05
-2.41333e-06
-1.81005e-05
-1.15188e-05
-2.57444e-06
1.27257e-05
-2.18636e-06
1.59323e-05
7.11211e-07
1.30021e-05
4.45732e-06
9.73085e-06
8.11474e-06
7.07795e-06
1.12764e-05
5.06316e-06
1.37978e-05
3.55347e-06
1.56517e-05
2.39553e-06
1.68518e-05
1.46126e-06
1.74134e-05
6.52076e-07
1.73352e-05
-1.12654e-07
1.65916e-05
-9.09686e-07
1.51323e-05
-1.8266e-06
1.2894e-05
-2.9795e-06
9.83838e-06
-4.53298e-06
6.04511e-06
-6.70757e-06
1.90174e-06
-9.72811e-06
-1.56488e-06
-1.36132e-05
-2.45985e-06
-1.72055e-05
-1.39787e-05
-7.84978e-07
1.35107e-05
4.07985e-06
1.10675e-05
1.02943e-05
6.78768e-06
1.57868e-05
4.23837e-06
2.01467e-05
2.71802e-06
2.34419e-05
1.7679e-06
2.58402e-05
1.15524e-06
2.74972e-05
7.38529e-07
2.85271e-05
4.31306e-07
2.89984e-05
1.80848e-07
2.89344e-05
-4.87405e-08
2.83127e-05
-2.87909e-07
2.70586e-05
-5.72515e-07
2.50355e-05
-9.56436e-07
2.20364e-05
-1.53386e-06
1.78046e-05
-2.47575e-06
1.21656e-05
-4.08916e-06
5.47448e-06
-6.92202e-06
-1.30029e-07
-1.1601e-05
-1.41087e-05
1.35107e-05
2.45782e-05
3.13659e-05
3.56042e-05
3.83222e-05
4.00902e-05
4.12454e-05
4.19839e-05
4.24152e-05
4.25961e-05
4.25473e-05
4.22594e-05
4.16869e-05
4.07305e-05
3.91966e-05
3.67209e-05
3.26317e-05
2.57097e-05
1.41087e-05
)
;

boundaryField
{
    movingWall
    {
        type            calculated;
        value           uniform 0;
    }
    fixedWalls
    {
        type            calculated;
        value           uniform 0;
    }
    frontAndBack
    {
        type            empty;
        value           nonuniform List<scalar> 0();
    }
}


// ************************************************************************* //
