/*--------------------------------*- C++ -*----------------------------------*\
  =========                 |
  \\      /  F ield         | OpenFOAM: The Open Source CFD Toolbox
   \\    /   O peration     | Website:  https://openfoam.org
    \\  /    A nd           | Version:  8
     \\/     M anipulation  |
\*---------------------------------------------------------------------------*/
FoamFile
{
    version     2.0;
    format      ascii;
    class       volVectorField;
    location    "0.11";
    object      U;
}
// * * * * * * * * * * * * * * * * * * * * * * * * * * * * * * * * * * * * * //

dimensions      [0 1 -1 0 0 0 0];

internalField   nonuniform List<vector> 
400
(
(0.000250692 -0.000247275 0)
(0.000138876 0.000111464 0)
(-0.00116707 0.000560138 0)
(-0.00344831 0.000876901 0)
(-0.00631476 0.00103553 0)
(-0.00937394 0.00105106 0)
(-0.0122758 0.000948032 0)
(-0.0147309 0.000752598 0)
(-0.0165162 0.000489604 0)
(-0.0174751 0.000182849 0)
(-0.0175198 -0.000143439 0)
(-0.016634 -0.000463148 0)
(-0.0148798 -0.000747335 0)
(-0.0124031 -0.000964221 0)
(-0.00943676 -0.00108042 0)
(-0.00629811 -0.00106399 0)
(-0.0033727 -0.000890416 0)
(-0.00107958 -0.000552369 0)
(0.000192818 -9.06521e-05 0)
(0.000264955 0.000259462 0)
(-7.65579e-05 -0.000166612 0)
(-0.00159467 0.00162949 0)
(-0.00563342 0.00358147 0)
(-0.0115957 0.00498292 0)
(-0.0186919 0.00568241 0)
(-0.0261184 0.0056981 0)
(-0.0331089 0.0051154 0)
(-0.0390008 0.00404807 0)
(-0.0432712 0.0026196 0)
(-0.0455512 0.000958202 0)
(-0.0456362 -0.000801624 0)
(-0.0434967 -0.00251619 0)
(-0.0392882 -0.00403158 0)
(-0.0333592 -0.0051869 0)
(-0.0262498 -0.00582384 0)
(-0.0186727 -0.00580519 0)
(-0.0114592 -0.00504575 0)
(-0.00546446 -0.00355739 0)
(-0.00148113 -0.00154711 0)
(-4.28351e-05 0.000223849 0)
(-0.000522669 0.0010803 0)
(-0.00367155 0.00567729 0)
(-0.0104769 0.0101182 0)
(-0.0197807 0.0132656 0)
(-0.0304393 0.0147851 0)
(-0.0413779 0.0146768 0)
(-0.0515642 0.0131102 0)
(-0.0600957 0.0103421 0)
(-0.0662554 0.0066708 0)
(-0.0695366 0.00241777 0)
(-0.0696593 -0.0020752 0)
(-0.066584 -0.00644454 0)
(-0.0605256 -0.0103067 0)
(-0.0519606 -0.0132698 0)
(-0.0416235 -0.0149597 0)
(-0.0304785 -0.0150677 0)
(-0.0196437 -0.0134219 0)
(-0.0102693 -0.0100836 0)
(-0.00351719 -0.00550235 0)
(-0.000472989 -0.000942166 0)
(-0.000918407 0.00344272 0)
(-0.00563336 0.0120939 0)
(-0.0151481 0.0197147 0)
(-0.0276376 0.0249326 0)
(-0.0415652 0.0273026 0)
(-0.0556155 0.0268451 0)
(-0.0685558 0.0238483 0)
(-0.0793195 0.0187507 0)
(-0.087065 0.0120697 0)
(-0.0911983 0.00436891 0)
(-0.0913889 -0.00375065 0)
(-0.0875844 -0.011651 0)
(-0.0800262 -0.0186625 0)
(-0.0692614 -0.0241046 0)
(-0.056144 -0.027332 0)
(-0.0418122 -0.0278135 0)
(-0.0276093 -0.0252476 0)
(-0.0149621 -0.0197056 0)
(-0.00545765 -0.0118211 0)
(-0.000854364 -0.00319784 0)
(-0.00126676 0.0068066 0)
(-0.00746685 0.0207425 0)
(-0.0196261 0.0321826 0)
(-0.0352158 0.0396945 0)
(-0.0522698 0.0428437 0)
(-0.0692297 0.0417535 0)
(-0.0846921 0.0368884 0)
(-0.097472 0.0289112 0)
(-0.106649 0.0185912 0)
(-0.111578 0.00676117 0)
(-0.111893 -0.00569414 0)
(-0.107522 -0.0178375 0)
(-0.098702 -0.0286838 0)
(-0.0860038 -0.0372266 0)
(-0.0703465 -0.0425008 0)
(-0.0529957 -0.0436917 0)
(-0.0354991 -0.0402931 0)
(-0.01958 -0.0322968 0)
(-0.00731293 -0.020411 0)
(-0.00119432 -0.00644343 0)
(-0.00159466 0.0111064 0)
(-0.00924591 0.0315712 0)
(-0.024025 0.0474947 0)
(-0.0426766 0.0575121 0)
(-0.0627764 0.0613322 0)
(-0.0825184 0.0592904 0)
(-0.100349 0.0521074 0)
(-0.115002 0.040723 0)
(-0.125517 0.0261894 0)
(-0.131227 0.00962325 0)
(-0.131744 -0.00780119 0)
(-0.126967 -0.0248425 0)
(-0.117099 -0.0401876 0)
(-0.102688 -0.0524756 0)
(-0.0846674 -0.0603686 0)
(-0.0643879 -0.0626871 0)
(-0.0435883 -0.0586123 0)
(-0.0243142 -0.0479299 0)
(-0.00919274 -0.0312969 0)
(-0.00152755 -0.0106423 0)
(-0.00192808 0.0163304 0)
(-0.0110545 0.0445809 0)
(-0.0284807 0.0656511 0)
(-0.0501806 0.0783545 0)
(-0.0732452 0.0826905 0)
(-0.0956244 0.0793395 0)
(-0.115645 0.0693786 0)
(-0.132003 0.0540862 0)
(-0.143745 0.034825 0)
(-0.150218 0.0129977 0)
(-0.151029 -0.00994574 0)
(-0.146037 -0.0324764 0)
(-0.135381 -0.0529602 0)
(-0.119532 -0.0696638 0)
(-0.099371 -0.0808219 0)
(-0.0762802 -0.0847899 0)
(-0.0521582 -0.0802936 0)
(-0.0293885 -0.066745 0)
(-0.0112242 -0.0445976 0)
(-0.00189015 -0.0158333 0)
(-0.00229042 0.0225157 0)
(-0.0129714 0.0598296 0)
(-0.0331145 0.0866734 0)
(-0.0578391 0.102167 0)
(-0.0837206 0.106779 0)
(-0.108486 0.101703 0)
(-0.130396 0.0884902 0)
(-0.148177 0.0688285 0)
(-0.160947 0.0444124 0)
(-0.168115 0.0169155 0)
(-0.169309 -0.0119735 0)
(-0.164348 -0.0404825 0)
(-0.153267 -0.0666893 0)
(-0.136393 -0.0884901 0)
(-0.11447 -0.103643 0)
(-0.0888182 -0.109923 0)
(-0.061429 -0.105418 0)
(-0.0350132 -0.0889416 0)
(-0.0135341 -0.0605335 0)
(-0.00231761 -0.0221299 0)
(-0.00270562 0.0297439 0)
(-0.015074 0.0774282 0)
(-0.0380276 0.110586 0)
(-0.0656931 0.128827 0)
(-0.0940962 0.133334 0)
(-0.120792 0.126021 0)
(-0.144065 0.109065 0)
(-0.162773 0.084634 0)
(-0.176201 0.054765 0)
(-0.183894 0.0213656 0)
(-0.185539 -0.0137043 0)
(-0.180919 -0.0485088 0)
(-0.169929 -0.0809071 0)
(-0.15267 -0.108459 0)
(-0.129629 -0.128417 0)
(-0.101923 -0.137853 0)
(-0.0715095 -0.133994 0)
(-0.0413648 -0.114747 0)
(-0.0162484 -0.0794191 0)
(-0.00284788 -0.0297178 0)
(-0.00320612 0.0381445 0)
(-0.0174565 0.0975316 0)
(-0.0433142 0.137377 0)
(-0.0737056 0.158072 0)
(-0.104079 0.161862 0)
(-0.131918 0.151665 0)
(-0.155679 0.130454 0)
(-0.174501 0.10095 0)
(-0.187964 0.0655254 0)
(-0.195845 0.0262525 0)
(-0.197953 -0.0149424 0)
(-0.19405 -0.0560818 0)
(-0.183857 -0.0949249 0)
(-0.167161 -0.128781 0)
(-0.144037 -0.154405 0)
(-0.115196 -0.168061 0)
(-0.0823441 -0.165847 0)
(-0.0485762 -0.144345 0)
(-0.0195045 -0.101642 0)
(-0.00352918 -0.0388584 0)
(-0.00384732 0.0479154 0)
(-0.0202628 0.120338 0)
(-0.0490849 0.16694 0)
(-0.0817476 0.189389 0)
(-0.113134 0.191511 0)
(-0.140841 0.177596 0)
(-0.163725 0.151611 0)
(-0.181415 0.116888 0)
(-0.193949 0.0760879 0)
(-0.201454 0.0313439 0)
(-0.203937 -0.0154994 0)
(-0.201172 -0.0625942 0)
(-0.192692 -0.107777 0)
(-0.17788 -0.14826 0)
(-0.15623 -0.180387 0)
(-0.127773 -0.199555 0)
(-0.0936315 -0.200449 0)
(-0.0567213 -0.177773 0)
(-0.0234734 -0.127637 0)
(-0.00443394 -0.0499073 0)
(-0.00473342 0.0593737 0)
(-0.0237365 0.146097 0)
(-0.0554837 0.198988 0)
(-0.0895452 0.221859 0)
(-0.120358 0.220887 0)
(-0.145973 0.202203 0)
(-0.165977 0.170963 0)
(-0.180754 0.131119 0)
(-0.190984 0.0855251 0)
(-0.197269 0.0362168 0)
(-0.199893 -0.0152313 0)
(-0.198696 -0.0673164 0)
(-0.193031 -0.118189 0)
(-0.181831 -0.165207 0)
(-0.16384 -0.204499 0)
(-0.138101 -0.230643 0)
(-0.104676 -0.236674 0)
(-0.0657725 -0.21474 0)
(-0.02839 -0.157839 0)
(-0.00568347 -0.0633562 0)
(-0.00606347 0.0730592 0)
(-0.0282884 0.175106 0)
(-0.0626612 0.232886 0)
(-0.0965159 0.253904 0)
(-0.124224 0.247813 0)
(-0.144867 0.223118 0)
(-0.159228 0.186292 0)
(-0.168732 0.141813 0)
(-0.17487 0.0925447 0)
(-0.178804 0.0402165 0)
(-0.181158 -0.0140857 0)
(-0.181897 -0.069443 0)
(-0.180259 -0.124599 0)
(-0.174745 -0.177388 0)
(-0.163268 -0.224068 0)
(-0.143585 -0.25865 0)
(-0.114108 -0.272448 0)
(-0.0754816 -0.254334 0)
(-0.0345871 -0.192594 0)
(-0.00749069 -0.0799191 0)
(-0.00820625 0.0899149 0)
(-0.0345585 0.207649 0)
(-0.0705986 0.267311 0)
(-0.101343 0.282889 0)
(-0.122033 0.269017 0)
(-0.1337 0.237045 0)
(-0.138874 0.194683 0)
(-0.14027 0.146653 0)
(-0.14024 0.095524 0)
(-0.140498 0.0424626 0)
(-0.142005 -0.0121489 0)
(-0.144904 -0.0681905 0)
(-0.148436 -0.125273 0)
(-0.150825 -0.182088 0)
(-0.149244 -0.235541 0)
(-0.140027 -0.279631 0)
(-0.119344 -0.304254 0)
(-0.0850685 -0.294513 0)
(-0.0424881 -0.231937 0)
(-0.0102233 -0.100672 0)
(-0.0117819 0.111546 0)
(-0.0433385 0.243687 0)
(-0.078494 0.299592 0)
(-0.10097 0.304521 0)
(-0.108849 0.279815 0)
(-0.106383 0.239727 0)
(-0.098322 0.19268 0)
(-0.0886802 0.143061 0)
(-0.0804939 0.0927069 0)
(-0.0758216 0.0419538 0)
(-0.0758384 -0.00967133 0)
(-0.0808804 -0.0629622 0)
(-0.0903646 -0.118573 0)
(-0.102567 -0.176408 0)
(-0.114315 -0.234652 0)
(-0.120772 -0.288219 0)
(-0.115571 -0.326566 0)
(-0.0924328 -0.331263 0)
(-0.0523768 -0.275039 0)
(-0.0144402 -0.12721 0)
(-0.0175615 0.14061 0)
(-0.054835 0.281967 0)
(-0.0829677 0.324409 0)
(-0.0884037 0.312056 0)
(-0.0755893 0.273972 0)
(-0.0532327 0.22627 0)
(-0.0282513 0.176825 0)
(-0.00543615 0.128756 0)
(0.012082 0.0826541 0)
(0.0223697 0.0378317 0)
(0.0243215 -0.00703702 0)
(0.0174716 -0.0535766 0)
(0.00202994 -0.103443 0)
(-0.0208224 -0.157913 0)
(-0.0483586 -0.217031 0)
(-0.0754892 -0.277867 0)
(-0.0938828 -0.33132 0)
(-0.0922481 -0.357284 0)
(-0.0633496 -0.31902 0)
(-0.0206452 -0.161872 0)
(-0.0254575 0.181695 0)
(-0.0658266 0.317675 0)
(-0.0734763 0.331173 0)
(-0.0483442 0.295129 0)
(-0.00599031 0.243886 0)
(0.0406528 0.192038 0)
(0.0839389 0.144727 0)
(0.119693 0.102708 0)
(0.145761 0.0649575 0)
(0.161049 0.0298099 0)
(0.164931 -0.00464923 0)
(0.156959 -0.0405075 0)
(0.136833 -0.0800407 0)
(0.104656 -0.125647 0)
(0.0616194 -0.179415 0)
(0.0113203 -0.241695 0)
(-0.0381563 -0.307568 0)
(-0.0718604 -0.359881 0)
(-0.0701243 -0.356429 0)
(-0.0279241 -0.20831 0)
(-0.0296511 0.23918 0)
(-0.0608686 0.33573 0)
(-0.0220328 0.300409 0)
(0.0503562 0.23998 0)
(0.127267 0.182766 0)
(0.19657 0.135194 0)
(0.253769 0.0972155 0)
(0.297567 0.0667002 0)
(0.328053 0.0412526 0)
(0.345642 0.018733 0)
(0.350538 -0.00278044 0)
(0.342492 -0.025196 0)
(0.320723 -0.0506719 0)
(0.283992 -0.0818977 0)
(0.231039 -0.122275 0)
(0.161778 -0.175492 0)
(0.0796285 -0.243264 0)
(-0.00334118 -0.318996 0)
(-0.0547269 -0.368519 0)
(-0.028469 -0.267587 0)
(0.00808615 0.281871 0)
(0.0197796 0.294968 0)
(0.13903 0.210943 0)
(0.264363 0.143423 0)
(0.364188 0.0971151 0)
(0.440089 0.0657005 0)
(0.496372 0.0441653 0)
(0.536418 0.0288274 0)
(0.562927 0.0171602 0)
(0.577748 0.00746922 0)
(0.581814 -0.00148621 0)
(0.575149 -0.010816 0)
(0.556809 -0.0218005 0)
(0.524702 -0.0362763 0)
(0.475425 -0.0571945 0)
(0.404274 -0.0893183 0)
(0.305001 -0.13968 0)
(0.173321 -0.216337 0)
(0.0411382 -0.311624 0)
(0.0184257 -0.299989 0)
(0.299609 0.146096 0)
(0.396281 0.127506 0)
(0.557421 0.0760867 0)
(0.674467 0.0437148 0)
(0.743834 0.0255598 0)
(0.787058 0.0152286 0)
(0.81535 0.00919976 0)
(0.833784 0.00549964 0)
(0.845188 0.00302133 0)
(0.851161 0.00114786 0)
(0.852454 -0.000496648 0)
(0.849181 -0.00220872 0)
(0.840819 -0.00432951 0)
(0.825988 -0.00741336 0)
(0.801958 -0.0125209 0)
(0.763535 -0.0217618 0)
(0.699055 -0.0392731 0)
(0.583927 -0.0726525 0)
(0.415822 -0.127864 0)
(0.308821 -0.149469 0)
)
;

boundaryField
{
    movingWall
    {
        type            fixedValue;
        value           uniform (1 0 0);
    }
    fixedWalls
    {
        type            noSlip;
    }
    frontAndBack
    {
        type            empty;
    }
}


// ************************************************************************* //
