/*--------------------------------*- C++ -*----------------------------------*\
  =========                 |
  \\      /  F ield         | OpenFOAM: The Open Source CFD Toolbox
   \\    /   O peration     | Website:  https://openfoam.org
    \\  /    A nd           | Version:  8
     \\/     M anipulation  |
\*---------------------------------------------------------------------------*/
FoamFile
{
    version     2.0;
    format      ascii;
    class       surfaceScalarField;
    location    "0.315";
    object      phi;
}
// * * * * * * * * * * * * * * * * * * * * * * * * * * * * * * * * * * * * * //

dimensions      [0 3 -1 0 0 0 0];

internalField   nonuniform List<scalar> 
760
(
1.42315e-08
-1.4265e-08
-2.22096e-08
3.64412e-08
-1.14264e-07
9.20538e-08
-2.4548e-07
1.31216e-07
-3.96074e-07
1.50595e-07
-5.47332e-07
1.51258e-07
-6.83147e-07
1.35816e-07
-7.90612e-07
1.07465e-07
-8.60151e-07
6.95392e-08
-8.85583e-07
2.54321e-08
-8.64263e-07
-2.13198e-08
-7.97337e-07
-6.69264e-08
-6.90041e-07
-1.07296e-07
-5.51939e-07
-1.38103e-07
-3.9692e-07
-1.55019e-07
-2.42736e-07
-1.54184e-07
-1.09729e-07
-1.33008e-07
-1.84166e-08
-9.1312e-08
1.56881e-08
-3.41047e-08
1.56879e-08
-3.42135e-08
1.99482e-08
-1.80365e-07
1.82592e-07
-4.33966e-07
3.45655e-07
-7.64394e-07
4.61643e-07
-1.13215e-06
5.18353e-07
-1.49716e-06
5.16271e-07
-1.82324e-06
4.61891e-07
-2.08042e-06
3.64649e-07
-2.24615e-06
2.35269e-07
-2.30592e-06
8.51938e-08
-2.25378e-06
-7.34557e-08
-2.09294e-06
-2.27768e-07
-1.83617e-06
-3.64069e-07
-1.50596e-06
-4.68304e-07
-1.13402e-06
-5.26959e-07
-7.59484e-07
-5.28725e-07
-4.25381e-07
-4.67112e-07
-1.72685e-07
-3.44008e-07
-3.08012e-08
-1.75988e-07
-1.51132e-08
-9.22234e-08
1.12171e-07
-3.56978e-07
4.47347e-07
-7.64518e-07
7.53195e-07
-1.26842e-06
9.65545e-07
-1.8146e-06
1.06453e-06
-2.34892e-06
1.05059e-06
-2.82228e-06
9.35253e-07
-3.19377e-06
7.36136e-07
-3.43242e-06
4.73923e-07
-3.51832e-06
1.71093e-07
-3.44339e-06
-1.4839e-07
-3.21208e-06
-4.5907e-07
-2.84195e-06
-7.34199e-07
-2.36368e-06
-9.46579e-07
-1.82022e-06
-1.07042e-06
-1.26442e-06
-1.08452e-06
-7.54485e-07
-9.7705e-07
-3.46954e-07
-7.51539e-07
-8.73321e-08
-4.3561e-07
-1.02445e-07
-1.45203e-07
2.57374e-07
-5.25433e-07
8.27577e-07
-1.08157e-06
1.30934e-06
-1.74741e-06
1.63139e-06
-2.4542e-06
1.77132e-06
-3.1362e-06
1.73259e-06
-3.73508e-06
1.53413e-06
-4.20267e-06
1.20373e-06
-4.50267e-06
7.73919e-07
-4.61167e-06
2.80097e-07
-4.52001e-06
-2.40053e-07
-4.23251e-06
-7.46575e-07
-3.76917e-06
-1.19754e-06
-3.16547e-06
-1.55027e-06
-2.47175e-06
-1.76414e-06
-1.75098e-06
-1.80529e-06
-1.07446e-06
-1.65357e-06
-5.15113e-07
-1.31088e-06
-1.39309e-07
-8.11414e-07
-2.41753e-07
-1.936e-07
4.50972e-07
-6.84965e-07
1.31894e-06
-1.38555e-06
2.00992e-06
-2.20713e-06
2.45296e-06
-3.06531e-06
2.6295e-06
-3.88357e-06
2.55086e-06
-4.59626e-06
2.24682e-06
-5.15031e-06
1.75778e-06
-5.50616e-06
1.12977e-06
-5.63823e-06
4.12168e-07
-5.53547e-06
-3.42813e-07
-5.20211e-06
-1.07994e-06
-4.65865e-06
-1.741e-06
-3.94276e-06
-2.26616e-06
-3.10955e-06
-2.59735e-06
-2.23039e-06
-2.68445e-06
-1.38957e-06
-2.49439e-06
-6.78466e-07
-2.02199e-06
-1.87759e-07
-1.30212e-06
-4.29511e-07
-2.3993e-07
6.90902e-07
-8.40311e-07
1.91932e-06
-1.68321e-06
2.85282e-06
-2.65694e-06
3.42669e-06
-3.66067e-06
3.63323e-06
-4.60756e-06
3.49775e-06
-5.42611e-06
3.06537e-06
-6.0603e-06
2.39197e-06
-6.46907e-06
1.53854e-06
-6.62576e-06
5.6886e-07
-6.51804e-06
-4.50537e-07
-6.14854e-06
-1.44944e-06
-5.53631e-06
-2.35323e-06
-4.71873e-06
-3.08374e-06
-3.75331e-06
-3.56277e-06
-2.71837e-06
-3.71939e-06
-1.71147e-06
-3.50129e-06
-8.44628e-07
-2.88883e-06
-2.3617e-07
-1.91058e-06
-6.65681e-07
-2.86735e-07
9.77636e-07
-9.97052e-07
2.62964e-06
-1.98201e-06
3.83778e-06
-3.10484e-06
4.54951e-06
-4.24781e-06
4.7762e-06
-5.31464e-06
4.56458e-06
-6.2299e-06
3.98064e-06
-6.93694e-06
3.099e-06
-7.39524e-06
1.99684e-06
-7.57837e-06
7.51992e-07
-7.47291e-06
-5.5599e-07
-7.07888e-06
-1.84347e-06
-6.41168e-06
-3.02043e-06
-5.50541e-06
-3.99001e-06
-4.41693e-06
-4.65126e-06
-3.22928e-06
-4.90704e-06
-2.05289e-06
-4.67767e-06
-1.02251e-06
-3.91921e-06
-2.88273e-07
-2.64482e-06
-9.53953e-07
-3.36323e-07
1.31396e-06
-1.16034e-06
3.45366e-06
-2.28797e-06
4.9654e-06
-3.55491e-06
5.81646e-06
-4.82651e-06
6.04779e-06
-5.99893e-06
5.73699e-06
-6.99587e-06
4.97758e-06
-7.76334e-06
3.86647e-06
-8.26429e-06
2.49779e-06
-8.47441e-06
9.62118e-07
-8.37977e-06
-6.50636e-07
-7.97672e-06
-2.24652e-06
-7.27442e-06
-3.72273e-06
-6.29982e-06
-4.9646e-06
-5.10457e-06
-5.84651e-06
-3.77246e-06
-6.23916e-06
-2.42484e-06
-6.02529e-06
-1.22072e-06
-5.12333e-06
-3.47701e-07
-3.51784e-06
-1.30165e-06
-3.90953e-07
1.70491e-06
-1.33487e-06
4.39758e-06
-2.60495e-06
6.23548e-06
-4.0059e-06
7.21741e-06
-5.38675e-06
7.42864e-06
-6.63966e-06
6.98991e-06
-7.69233e-06
6.03025e-06
-8.49835e-06
4.67249e-06
-9.02829e-06
3.02773e-06
-9.2628e-06
1.19662e-06
-9.18853e-06
-7.24906e-07
-8.79737e-06
-2.63768e-06
-8.08926e-06
-4.43083e-06
-7.07894e-06
-5.97493e-06
-5.80626e-06
-7.11918e-06
-4.349e-06
-7.69642e-06
-2.83478e-06
-7.53951e-06
-1.44708e-06
-6.51103e-06
-4.18094e-07
-4.54682e-06
-1.71975e-06
-4.53452e-07
2.15836e-06
-1.52568e-06
5.46981e-06
-2.93488e-06
7.64468e-06
-4.45011e-06
8.73264e-06
-5.90631e-06
8.88485e-06
-7.1978e-06
8.2814e-06
-8.26364e-06
7.09609e-06
-9.07205e-06
5.48089e-06
-9.60685e-06
3.56253e-06
-9.85757e-06
1.44734e-06
-9.8134e-06
-7.69077e-07
-9.46136e-06
-2.98972e-06
-8.78909e-06
-5.1031e-06
-7.79298e-06
-6.97104e-06
-6.49219e-06
-8.41997e-06
-4.94796e-06
-9.24065e-06
-3.2851e-06
-9.20236e-06
-1.70867e-06
-8.08746e-06
-5.03585e-07
-5.75191e-06
-2.22333e-06
-5.28338e-07
2.6867e-06
-1.73967e-06
6.68114e-06
-3.27799e-06
9.183e-06
-4.87165e-06
1.03263e-05
-6.34704e-06
1.03602e-05
-7.61086e-06
9.54521e-06
-8.62439e-06
8.10963e-06
-9.37973e-06
6.23623e-06
-9.88103e-06
4.06384e-06
-1.01316e-05
1.69789e-06
-1.01258e-05
-7.74829e-07
-9.84637e-06
-3.26917e-06
-9.26602e-06
-5.68346e-06
-8.35636e-06
-7.8807e-06
-7.10471e-06
-9.67162e-06
-5.54071e-06
-1.08047e-05
-3.77071e-06
-1.09724e-05
-2.01217e-06
-9.846e-06
-6.09689e-07
-7.15439e-06
-2.83302e-06
-6.23671e-07
3.31037e-06
-1.9874e-06
8.04486e-06
-3.63194e-06
1.08275e-05
-5.24198e-06
1.19363e-05
-6.64764e-06
1.17659e-05
-7.78457e-06
1.06821e-05
-8.65112e-06
8.97618e-06
-9.27442e-06
6.85953e-06
-9.68666e-06
4.47608e-06
-9.90994e-06
1.92117e-06
-9.94735e-06
-7.37416e-07
-9.7787e-06
-3.43783e-06
-9.36098e-06
-6.10117e-06
-8.63569e-06
-8.60599e-06
-7.54644e-06
-1.07609e-05
-6.07162e-06
-1.22795e-05
-4.27429e-06
-1.27697e-05
-2.36366e-06
-1.17566e-05
-7.44779e-07
-8.77326e-06
-3.5778e-06
-7.54084e-07
4.06446e-06
-2.28437e-06
9.57516e-06
-3.98706e-06
1.25302e-05
-5.50917e-06
1.34585e-05
-6.70972e-06
1.29665e-05
-7.5787e-06
1.15511e-05
-8.17022e-06
9.5677e-06
-8.55782e-06
7.24712e-06
-8.80793e-06
4.72619e-06
-8.96525e-06
2.07849e-06
-9.04457e-06
-6.58104e-07
-9.02593e-06
-3.45646e-06
-8.85276e-06
-6.27434e-06
-8.43496e-06
-9.02379e-06
-7.66301e-06
-1.15328e-05
-6.44207e-06
-1.35004e-05
-4.7563e-06
-1.44555e-05
-2.76677e-06
-1.37462e-05
-9.2244e-07
-1.06176e-05
-4.50024e-06
-9.45215e-07
5.00967e-06
-2.64852e-06
1.12785e-05
-4.31105e-06
1.41928e-05
-5.57339e-06
1.47208e-05
-6.37081e-06
1.37639e-05
-6.78343e-06
1.19637e-05
-6.94068e-06
9.72494e-06
-6.96992e-06
7.27637e-06
-6.97298e-06
4.72925e-06
-7.0167e-06
2.12222e-06
-7.12879e-06
-5.4601e-07
-7.29394e-06
-3.29132e-06
-7.44879e-06
-6.11948e-06
-7.47802e-06
-8.99457e-06
-7.21804e-06
-1.17928e-05
-6.48282e-06
-1.42356e-05
-5.13348e-06
-1.58048e-05
-3.215e-06
-1.56646e-05
-1.16439e-06
-1.26682e-05
-5.66463e-06
-1.23732e-06
6.247e-06
-3.08332e-06
1.31245e-05
-4.50776e-06
1.56172e-05
-5.23457e-06
1.54476e-05
-5.35534e-06
1.38846e-05
-5.08199e-06
1.16904e-05
-4.63108e-06
9.27403e-06
-4.17946e-06
6.82476e-06
-3.85456e-06
4.40435e-06
-3.73723e-06
2.00488e-06
-3.86533e-06
-4.1791e-07
-4.23283e-06
-2.92382e-06
-4.78225e-06
-5.57006e-06
-5.39121e-06
-8.38561e-06
-5.8586e-06
-1.13254e-05
-5.90665e-06
-1.41876e-05
-5.23287e-06
-1.64786e-05
-3.66629e-06
-1.72312e-05
-1.50009e-06
-1.48344e-05
-7.16472e-06
-1.67381e-06
7.92081e-06
-3.51339e-06
1.4964e-05
-4.31536e-06
1.64192e-05
-4.08896e-06
1.52212e-05
-3.19317e-06
1.29889e-05
-1.99889e-06
1.04961e-05
-7.95322e-07
8.07047e-06
2.19136e-07
5.8103e-06
9.18019e-07
3.70547e-06
1.22539e-06
1.69751e-06
1.10185e-06
-2.94373e-07
5.40863e-07
-2.36284e-06
-4.23105e-07
-4.60609e-06
-1.69272e-06
-7.116e-06
-3.07253e-06
-9.94559e-06
-4.2309e-06
-1.30292e-05
-4.6957e-06
-1.60138e-05
-3.96721e-06
-1.79597e-05
-1.94493e-06
-1.68567e-05
-9.10965e-06
-2.23069e-06
1.01515e-05
-3.59032e-06
1.63237e-05
-3.07783e-06
1.59067e-05
-1.34395e-06
1.34873e-05
8.96929e-07
1.0748e-05
3.15483e-06
8.23821e-06
5.13795e-06
6.08735e-06
6.6885e-06
4.25974e-06
7.72563e-06
2.66835e-06
8.20634e-06
1.2168e-06
8.10368e-06
-1.91713e-07
7.39884e-06
-1.65799e-06
6.08669e-06
-3.29394e-06
4.19904e-06
-5.22835e-06
1.85404e-06
-7.60059e-06
-6.61796e-07
-1.05134e-05
-2.79223e-06
-1.38834e-05
-3.66212e-06
-1.70898e-05
-2.41155e-06
-1.81073e-05
-1.15212e-05
-2.57382e-06
1.27253e-05
-2.18347e-06
1.59333e-05
7.18038e-07
1.30052e-05
4.46951e-06
9.73586e-06
8.1332e-06
7.08428e-06
1.13015e-05
5.06996e-06
1.38289e-05
3.55985e-06
1.56879e-05
2.40076e-06
1.68915e-05
1.46478e-06
1.74547e-05
6.53597e-07
1.73762e-05
-1.13198e-07
1.66303e-05
-9.12141e-07
1.5167e-05
-1.83064e-06
1.29234e-05
-2.98471e-06
9.86165e-06
-4.53885e-06
6.0619e-06
-6.7136e-06
1.9123e-06
-9.73377e-06
-1.55965e-06
-1.36179e-05
-2.45834e-06
-1.72086e-05
-1.39795e-05
-7.85013e-07
1.35103e-05
4.08079e-06
1.10675e-05
1.02975e-05
6.78842e-06
1.57936e-05
4.23979e-06
2.0158e-05
2.7199e-06
2.3458e-05
1.76994e-06
2.58607e-05
1.15713e-06
2.75214e-05
7.40047e-07
2.85539e-05
4.32289e-07
2.90263e-05
1.81219e-07
2.89621e-05
-4.89803e-08
2.83386e-05
-2.88695e-07
2.70817e-05
-5.73734e-07
2.5055e-05
-9.57949e-07
2.20516e-05
-1.53551e-06
1.78155e-05
-2.47741e-06
1.21724e-05
-4.09067e-06
5.47771e-06
-6.92324e-06
-1.29173e-07
-1.16017e-05
-1.41087e-05
1.35103e-05
2.45779e-05
3.13663e-05
3.56061e-05
3.8326e-05
4.00959e-05
4.1253e-05
4.19931e-05
4.24254e-05
4.26066e-05
4.25576e-05
4.22689e-05
4.16952e-05
4.07372e-05
3.92017e-05
3.67243e-05
3.26336e-05
2.57104e-05
1.41087e-05
)
;

boundaryField
{
    movingWall
    {
        type            calculated;
        value           uniform 0;
    }
    fixedWalls
    {
        type            calculated;
        value           uniform 0;
    }
    frontAndBack
    {
        type            empty;
        value           nonuniform List<scalar> 0();
    }
}


// ************************************************************************* //
