/*--------------------------------*- C++ -*----------------------------------*\
  =========                 |
  \\      /  F ield         | OpenFOAM: The Open Source CFD Toolbox
   \\    /   O peration     | Website:  https://openfoam.org
    \\  /    A nd           | Version:  8
     \\/     M anipulation  |
\*---------------------------------------------------------------------------*/
FoamFile
{
    version     2.0;
    format      ascii;
    class       volVectorField;
    location    "0.315";
    object      U;
}
// * * * * * * * * * * * * * * * * * * * * * * * * * * * * * * * * * * * * * //

dimensions      [0 1 -1 0 0 0 0];

internalField   nonuniform List<vector> 
400
(
(0.000253383 -0.000250405 0)
(0.000141192 0.000111428 0)
(-0.00117692 0.000564566 0)
(-0.00348091 0.00088492 0)
(-0.00637709 0.00104563 0)
(-0.00946887 0.00106167 0)
(-0.0124022 0.000957777 0)
(-0.014884 0.000760382 0)
(-0.0166885 0.000494611 0)
(-0.0176572 0.000184552 0)
(-0.0177011 -0.000145254 0)
(-0.0168041 -0.000468332 0)
(-0.0150292 -0.000755365 0)
(-0.0125244 -0.000974204 0)
(-0.00952589 -0.00109113 0)
(-0.00635467 -0.00107395 0)
(-0.00340049 -0.000898071 0)
(-0.0010864 -0.000556363 0)
(0.000196398 -9.03696e-05 0)
(0.000267841 0.000262364 0)
(-7.74626e-05 -0.000169337 0)
(-0.00161147 0.00164474 0)
(-0.00569259 0.00361709 0)
(-0.0117182 0.00503453 0)
(-0.0188913 0.0057429 0)
(-0.0263994 0.00575987 0)
(-0.0334675 0.00517138 0)
(-0.0394249 0.00409229 0)
(-0.0437418 0.0026475 0)
(-0.0460449 0.000966894 0)
(-0.0461273 -0.000813154 0)
(-0.0439593 -0.00254691 0)
(-0.0396994 -0.00407841 0)
(-0.0337012 -0.00524483 0)
(-0.0265122 -0.00588627 0)
(-0.0188538 -0.00586457 0)
(-0.0115662 -0.00509452 0)
(-0.00551309 -0.00358927 0)
(-0.00149304 -0.00155908 0)
(-4.25823e-05 0.000227431 0)
(-0.000528582 0.00109158 0)
(-0.00371122 0.005736 0)
(-0.0105884 0.0102239 0)
(-0.0199908 0.013407 0)
(-0.0307635 0.0149455 0)
(-0.0418204 0.014838 0)
(-0.0521176 0.013255 0)
(-0.0607417 0.0104557 0)
(-0.0669667 0.00674167 0)
(-0.0702799 0.00243878 0)
(-0.0703979 -0.00210638 0)
(-0.0672817 -0.00652508 0)
(-0.06115 -0.0104286 0)
(-0.0524865 -0.0134204 0)
(-0.0420355 -0.0151228 0)
(-0.0307728 -0.0152249 0)
(-0.0198284 -0.0135554 0)
(-0.0103632 -0.0101785 0)
(-0.0035484 -0.00555085 0)
(-0.00047683 -0.000948808 0)
(-0.000928184 0.00347968 0)
(-0.00569126 0.0122201 0)
(-0.0153012 0.0199207 0)
(-0.0279158 0.0251966 0)
(-0.0419839 0.0275956 0)
(-0.056177 0.0271361 0)
(-0.0692496 0.0241077 0)
(-0.0801228 0.0189529 0)
(-0.0879451 0.012195 0)
(-0.0921156 0.00440492 0)
(-0.0923003 -0.00380771 0)
(-0.0884472 -0.0117959 0)
(-0.0808023 -0.0188812 0)
(-0.0699207 -0.0243751 0)
(-0.0566674 -0.0276263 0)
(-0.0421935 -0.0281005 0)
(-0.0278557 -0.0254966 0)
(-0.0150932 -0.0198908 0)
(-0.00550486 -0.0119272 0)
(-0.000861573 -0.00322474 0)
(-0.00127888 0.00687747 0)
(-0.00753578 0.0209527 0)
(-0.0198042 0.0325088 0)
(-0.0355338 0.0401013 0)
(-0.0527418 0.0432882 0)
(-0.0698565 0.0421907 0)
(-0.0854609 0.0372757 0)
(-0.0983577 0.0292117 0)
(-0.107617 0.0187764 0)
(-0.112585 0.00681349 0)
(-0.112894 -0.00577999 0)
(-0.108471 -0.0180537 0)
(-0.0995595 -0.0290099 0)
(-0.0867369 -0.0376309 0)
(-0.0709338 -0.0429429 0)
(-0.0534288 -0.0441268 0)
(-0.0357836 -0.0406769 0)
(-0.0197346 -0.0325911 0)
(-0.00737038 -0.0205897 0)
(-0.00120364 -0.00649788 0)
(-0.00160747 0.0112151 0)
(-0.00931775 0.031873 0)
(-0.0242086 0.0479495 0)
(-0.0430014 0.0580691 0)
(-0.0632552 0.061934 0)
(-0.0831506 0.0598781 0)
(-0.101121 0.0526256 0)
(-0.115889 0.0411238 0)
(-0.126485 0.0264358 0)
(-0.132234 0.00969253 0)
(-0.132746 -0.00791575 0)
(-0.127919 -0.0251306 0)
(-0.117963 -0.0406227 0)
(-0.103431 -0.0530165 0)
(-0.0852666 -0.0609631 0)
(-0.0648338 -0.0632769 0)
(-0.0438843 -0.0591391 0)
(-0.024477 -0.0483421 0)
(-0.00925404 -0.0315561 0)
(-0.0015377 -0.0107281 0)
(-0.00193999 0.0164763 0)
(-0.0111209 0.044972 0)
(-0.0286496 0.06623 0)
(-0.0504784 0.0790553 0)
(-0.0736828 0.0834419 0)
(-0.096201 0.0800699 0)
(-0.116348 0.0700206 0)
(-0.132811 0.054582 0)
(-0.144627 0.0351299 0)
(-0.151137 0.0130842 0)
(-0.151945 -0.0100857 0)
(-0.146911 -0.0328306 0)
(-0.136177 -0.0534966 0)
(-0.12022 -0.070333 0)
(-0.0999299 -0.081561 0)
(-0.0766993 -0.0855284 0)
(-0.0524387 -0.0809597 0)
(-0.029544 -0.0672739 0)
(-0.0112833 -0.0449375 0)
(-0.00190002 -0.0159509 0)
(-0.00229997 0.0226938 0)
(-0.0130247 0.0602979 0)
(-0.03325 0.0873592 0)
(-0.0580782 0.102991 0)
(-0.0840725 0.10766 0)
(-0.108951 0.102556 0)
(-0.130964 0.0892394 0)
(-0.148831 0.0694072 0)
(-0.161662 0.0447694 0)
(-0.168863 0.0170192 0)
(-0.170059 -0.0121326 0)
(-0.165067 -0.0408907 0)
(-0.153926 -0.0673105 0)
(-0.136966 -0.0892683 0)
(-0.11494 -0.104507 0)
(-0.0891737 -0.110791 0)
(-0.0616692 -0.106207 0)
(-0.0351475 -0.0895754 0)
(-0.0135855 -0.0609468 0)
(-0.00232628 -0.0222766 0)
(-0.00271159 0.0299456 0)
(-0.0151077 0.0779528 0)
(-0.038114 0.111351 0)
(-0.0658471 0.129743 0)
(-0.094325 0.13431 0)
(-0.121097 0.126967 0)
(-0.144441 0.109896 0)
(-0.16321 0.0852774 0)
(-0.176684 0.0551644 0)
(-0.184403 0.0214862 0)
(-0.186054 -0.0138736 0)
(-0.181418 -0.0489536 0)
(-0.170392 -0.0815888 0)
(-0.153078 -0.109318 0)
(-0.129969 -0.129375 0)
(-0.102184 -0.138822 0)
(-0.0716882 -0.134881 0)
(-0.0414662 -0.115464 0)
(-0.0162878 -0.0798921 0)
(-0.00285464 -0.0298884 0)
(-0.00320763 0.0383579 0)
(-0.0174661 0.0980851 0)
(-0.0433407 0.138183 0)
(-0.0737561 0.159038 0)
(-0.104159 0.162893 0)
(-0.132031 0.152665 0)
(-0.155824 0.131335 0)
(-0.174677 0.101635 0)
(-0.188166 0.0659547 0)
(-0.196066 0.0263887 0)
(-0.198184 -0.0151114 0)
(-0.194282 -0.056542 0)
(-0.18408 -0.0956369 0)
(-0.167365 -0.129683 0)
(-0.144214 -0.155416 0)
(-0.115338 -0.16909 0)
(-0.0824451 -0.166796 0)
(-0.0486357 -0.145119 0)
(-0.0195286 -0.102156 0)
(-0.00353354 -0.0390458 0)
(-0.00384397 0.0481269 0)
(-0.0202463 0.120889 0)
(-0.0490468 0.167745 0)
(-0.0816868 0.190359 0)
(-0.113054 0.192549 0)
(-0.140747 0.178607 0)
(-0.163623 0.152506 0)
(-0.18131 0.117588 0)
(-0.193848 0.0765319 0)
(-0.201362 0.0314935 0)
(-0.203858 -0.0156575 0)
(-0.201111 -0.063047 0)
(-0.192649 -0.108486 0)
(-0.177858 -0.149164 0)
(-0.156224 -0.181408 0)
(-0.12778 -0.200599 0)
(-0.0936443 -0.201418 0)
(-0.056733 -0.178568 0)
(-0.0234798 -0.128169 0)
(-0.00443553 -0.0501029 0)
(-0.00472543 0.0595695 0)
(-0.023695 0.146613 0)
(-0.0553837 0.19975 0)
(-0.0893777 0.222783 0)
(-0.120124 0.221884 0)
(-0.145678 0.203181 0)
(-0.165633 0.171834 0)
(-0.180374 0.131806 0)
(-0.190585 0.085967 0)
(-0.196867 0.0363757 0)
(-0.199505 -0.0153693 0)
(-0.198339 -0.0677397 0)
(-0.19272 -0.118862 0)
(-0.181577 -0.166072 0)
(-0.163647 -0.205481 0)
(-0.137968 -0.231654 0)
(-0.104597 -0.237618 0)
(-0.0657339 -0.215519 0)
(-0.0283778 -0.158364 0)
(-0.0056821 -0.0635507 0)
(-0.00605167 0.0732268 0)
(-0.0282263 0.175559 0)
(-0.0625099 0.233565 0)
(-0.0962589 0.25474 0)
(-0.12386 0.248724 0)
(-0.144401 0.22402 0)
(-0.158675 0.187101 0)
(-0.168112 0.142457 0)
(-0.174206 0.0929662 0)
(-0.178124 0.0403783 0)
(-0.18049 -0.0141973 0)
(-0.181271 -0.0698182 0)
(-0.1797 -0.125206 0)
(-0.174274 -0.178174 0)
(-0.162898 -0.224966 0)
(-0.143319 -0.259581 0)
(-0.113939 -0.273323 0)
(-0.0753938 -0.255061 0)
(-0.0345565 -0.193087 0)
(-0.00748633 -0.0801028 0)
(-0.00819217 0.0900451 0)
(-0.0344833 0.208017 0)
(-0.0704136 0.267879 0)
(-0.101026 0.283601 0)
(-0.121577 0.269805 0)
(-0.133112 0.237835 0)
(-0.138168 0.195399 0)
(-0.139468 0.147229 0)
(-0.139373 0.0959068 0)
(-0.139601 0.0426189 0)
(-0.141116 -0.012232 0)
(-0.144061 -0.0685046 0)
(-0.147674 -0.12579 0)
(-0.150174 -0.182764 0)
(-0.148724 -0.236319 0)
(-0.139646 -0.280441 0)
(-0.119097 -0.30502 0)
(-0.084937 -0.295154 0)
(-0.0424408 -0.232374 0)
(-0.0102161 -0.100836 0)
(-0.0117676 0.111635 0)
(-0.0432603 0.243959 0)
(-0.0782986 0.30003 0)
(-0.10063 0.305088 0)
(-0.108354 0.280455 0)
(-0.105735 0.240378 0)
(-0.097534 0.193277 0)
(-0.0877761 0.143546 0)
(-0.0795066 0.0930338 0)
(-0.0747912 0.0420943 0)
(-0.0748088 -0.0097281 0)
(-0.0798963 -0.0632092 0)
(-0.0894679 -0.118987 0)
(-0.101793 -0.176953 0)
(-0.11369 -0.23528 0)
(-0.120308 -0.288877 0)
(-0.115265 -0.327191 0)
(-0.0922675 -0.33179 0)
(-0.052316 -0.275401 0)
(-0.0144304 -0.127346 0)
(-0.0175494 0.140658 0)
(-0.054765 0.282144 0)
(-0.0827873 0.324716 0)
(-0.0880823 0.31247 0)
(-0.0751112 0.274452 0)
(-0.0525945 0.226767 0)
(-0.0274628 0.177285 0)
(-0.00451953 0.129133 0)
(0.0130934 0.0829112 0)
(0.0234343 0.0379463 0)
(0.0253929 -0.00707304 0)
(0.0185021 -0.0537571 0)
(0.00297495 -0.10375 0)
(-0.0200011 -0.158317 0)
(-0.0476893 -0.217499 0)
(-0.0749873 -0.278357 0)
(-0.0935484 -0.331788 0)
(-0.0920647 -0.35768 0)
(-0.0632809 -0.319292 0)
(-0.0206337 -0.161973 0)
(-0.0254498 0.181711 0)
(-0.0657749 0.31777 0)
(-0.0733339 0.331361 0)
(-0.0480785 0.295399 0)
(-0.00558053 0.244209 0)
(0.0412155 0.192378 0)
(0.0846493 0.145045 0)
(0.120532 0.10297 0)
(0.146697 0.0651368 0)
(0.162042 0.029891 0)
(0.165936 -0.0046713 0)
(0.157931 -0.0406276 0)
(0.137727 -0.0802451 0)
(0.105436 -0.125916 0)
(0.0622589 -0.179724 0)
(0.0118032 -0.242018 0)
(-0.0378316 -0.307875 0)
(-0.0716803 -0.360141 0)
(-0.0700559 -0.356607 0)
(-0.0279123 -0.208375 0)
(-0.029649 0.239176 0)
(-0.0608415 0.335767 0)
(-0.0219429 0.300502 0)
(0.0505408 0.240126 0)
(0.127571 0.182948 0)
(0.197005 0.135388 0)
(0.254333 0.0973978 0)
(0.298247 0.0668501 0)
(0.32882 0.0413547 0)
(0.346462 0.0187783 0)
(0.351371 -0.00279402 0)
(0.343298 -0.0252647 0)
(0.321465 -0.0507869 0)
(0.284639 -0.0820471 0)
(0.231569 -0.122445 0)
(0.162179 -0.175668 0)
(0.0798991 -0.24343 0)
(-0.00319073 -0.319135 0)
(-0.0546699 -0.368612 0)
(-0.0284594 -0.267618 0)
(0.00808312 0.281861 0)
(0.019783 0.294972 0)
(0.139066 0.210972 0)
(0.264459 0.143477 0)
(0.364366 0.0971855 0)
(0.440362 0.0657769 0)
(0.49674 0.044237 0)
(0.536871 0.0288856 0)
(0.563443 0.0171986 0)
(0.578302 0.00748469 0)
(0.582377 -0.00149405 0)
(0.575692 -0.010845 0)
(0.557305 -0.0218467 0)
(0.525132 -0.0363345 0)
(0.475775 -0.0572591 0)
(0.404536 -0.0893836 0)
(0.305175 -0.139741 0)
(0.173416 -0.216386 0)
(0.0411718 -0.311655 0)
(0.0184302 -0.299995 0)
(0.299604 0.146091 0)
(0.396272 0.127503 0)
(0.55742 0.0760895 0)
(0.674487 0.0437232 0)
(0.743888 0.025572 0)
(0.787153 0.0152421 0)
(0.815484 0.00921225 0)
(0.833954 0.00550934 0)
(0.845384 0.00302714 0)
(0.85137 0.00114933 0)
(0.852665 -0.000499365 0)
(0.849381 -0.00221502 0)
(0.840998 -0.00433849 0)
(0.826139 -0.007424 0)
(0.802077 -0.0125322 0)
(0.76362 -0.0217728 0)
(0.699108 -0.0392828 0)
(0.583952 -0.0726601 0)
(0.415827 -0.127868 0)
(0.308819 -0.149468 0)
)
;

boundaryField
{
    movingWall
    {
        type            fixedValue;
        value           uniform (1 0 0);
    }
    fixedWalls
    {
        type            noSlip;
    }
    frontAndBack
    {
        type            empty;
    }
}


// ************************************************************************* //
