0 	2.20152e-10
1.57135 	6.55422e-07
3.1427 	8.57157e-06
4.71405 	4.08211e-05
6.28539 	0.000123404
7.85674 	0.000289968
9.42809 	0.000577807
10.9994 	0.00104293
12.5708 	0.00186796
14.1421 	0.00510818
