/*--------------------------------*- C++ -*----------------------------------*\
  =========                 |
  \\      /  F ield         | OpenFOAM: The Open Source CFD Toolbox
   \\    /   O peration     | Website:  https://openfoam.org
    \\  /    A nd           | Version:  8
     \\/     M anipulation  |
\*---------------------------------------------------------------------------*/
FoamFile
{
    version     2.0;
    format      ascii;
    class       surfaceScalarField;
    location    "1.88";
    object      phi;
}
// * * * * * * * * * * * * * * * * * * * * * * * * * * * * * * * * * * * * * //

dimensions      [0 3 -1 0 0 0 0];

internalField   nonuniform List<scalar> 
760
(
1.2497e-06
-3.99756e-21
1.2497e-06
-8.11156e-22
1.2497e-06
-4.14286e-22
1.2497e-06
-6.63284e-22
1.2497e-06
-1.10172e-21
1.2497e-06
-1.12079e-21
1.2497e-06
-1.29694e-21
1.2497e-06
-1.46644e-21
1.2497e-06
-1.06738e-21
1.2497e-06
-8.93917e-22
1.2497e-06
-7.34676e-22
1.2497e-06
-6.85529e-22
1.2497e-06
-6.66648e-22
1.2497e-06
-5.47809e-22
1.2497e-06
-6.91915e-22
1.2497e-06
-3.45374e-22
1.2497e-06
7.8146e-23
1.2497e-06
2.73088e-22
1.2497e-06
2.46678e-22
-4.15253e-23
3.7491e-06
1.50988e-21
3.7491e-06
1.27867e-21
3.7491e-06
2.19043e-22
3.7491e-06
-1.36359e-21
3.7491e-06
-2.89065e-21
3.7491e-06
-3.75843e-21
3.7491e-06
-3.21889e-21
3.7491e-06
-2.99383e-21
3.7491e-06
-2.64836e-21
3.7491e-06
-2.30694e-21
3.7491e-06
-2.09233e-21
3.7491e-06
-2.13992e-21
3.7491e-06
-1.76788e-21
3.7491e-06
-1.15982e-21
3.7491e-06
-4.66568e-22
3.7491e-06
-4.01169e-22
3.7491e-06
8.45098e-22
3.7491e-06
1.48453e-21
3.7491e-06
2.38753e-21
2.54812e-21
6.24853e-06
4.95551e-21
6.24853e-06
2.91772e-21
6.24853e-06
4.46959e-22
6.24853e-06
-1.36116e-21
6.24853e-06
-3.42372e-21
6.24853e-06
-4.98024e-21
6.24853e-06
-5.55167e-21
6.24853e-06
-5.34623e-21
6.24853e-06
-5.38396e-21
6.24853e-06
-4.22878e-21
6.24853e-06
-2.88204e-21
6.24853e-06
-2.98368e-21
6.24853e-06
-2.31945e-21
6.24853e-06
-1.12616e-21
6.24853e-06
-7.20128e-22
6.24853e-06
2.28044e-22
6.24853e-06
1.99405e-21
6.24853e-06
3.39214e-21
6.24853e-06
4.84571e-21
5.64402e-21
8.748e-06
5.3923e-21
8.748e-06
3.15646e-21
8.748e-06
6.41341e-22
8.748e-06
-1.51312e-21
8.748e-06
-4.3604e-21
8.748e-06
-5.82215e-21
8.748e-06
-7.01372e-21
8.748e-06
-6.70782e-21
8.748e-06
-6.19377e-21
8.748e-06
-6.22505e-21
8.748e-06
-6.25973e-21
8.748e-06
-4.55397e-21
8.748e-06
-2.6557e-21
8.748e-06
-2.24582e-21
8.748e-06
-7.77891e-22
8.748e-06
1.25826e-21
8.748e-06
3.61955e-21
8.748e-06
7.44343e-21
8.748e-06
8.14343e-21
7.27907e-21
1.12475e-05
6.44448e-21
1.12475e-05
2.95649e-21
1.12475e-05
5.67825e-22
1.12475e-05
-2.16428e-21
1.12475e-05
-5.13031e-21
1.12475e-05
-6.73235e-21
1.12475e-05
-7.30096e-21
1.12475e-05
-9.29747e-21
1.12475e-05
-8.8002e-21
1.12475e-05
-8.19978e-21
1.12475e-05
-6.57517e-21
1.12475e-05
-5.43326e-21
1.12475e-05
-3.94936e-21
1.12475e-05
-2.4469e-21
1.12475e-05
2.97933e-23
1.12475e-05
3.76696e-21
1.12475e-05
6.93451e-21
1.12475e-05
8.09303e-21
1.12475e-05
1.12343e-20
8.95454e-21
1.37471e-05
6.68962e-21
1.37471e-05
4.43031e-21
1.37471e-05
8.7009e-22
1.37471e-05
-3.34842e-21
1.37471e-05
-6.73547e-21
1.37471e-05
-8.39772e-21
1.37471e-05
-9.3079e-21
1.37471e-05
-9.84323e-21
1.37471e-05
-9.36897e-21
1.37471e-05
-8.6245e-21
1.37471e-05
-7.23931e-21
1.37471e-05
-6.85721e-21
1.37471e-05
-6.26474e-21
1.37471e-05
-2.05596e-21
1.37471e-05
3.31879e-21
1.37471e-05
6.29737e-21
1.37471e-05
7.78752e-21
1.37471e-05
1.06594e-20
1.37471e-05
1.01387e-20
8.48151e-21
1.62467e-05
6.07681e-21
1.62467e-05
4.72469e-21
1.62467e-05
1.6049e-21
1.62467e-05
-4.03004e-21
1.62467e-05
-4.74863e-21
1.62467e-05
-9.14173e-21
1.62467e-05
-1.16146e-20
1.62467e-05
-1.08119e-20
1.62467e-05
-1.17193e-20
1.62467e-05
-9.84186e-21
1.62467e-05
-8.84238e-21
1.62467e-05
-6.14595e-21
1.62467e-05
-4.72157e-21
1.62467e-05
-7.64147e-23
1.62467e-05
3.15944e-21
1.62467e-05
6.11775e-21
1.62467e-05
1.10446e-20
1.62467e-05
1.05794e-20
1.62467e-05
8.15017e-21
7.26396e-21
1.87465e-05
3.03033e-21
1.87465e-05
3.24858e-21
1.87465e-05
1.98303e-22
1.87465e-05
-1.22806e-21
1.87465e-05
-7.73306e-21
1.87465e-05
-9.68837e-21
1.87465e-05
-1.22377e-20
1.87465e-05
-1.26693e-20
1.87465e-05
-1.18172e-20
1.87465e-05
-1.35654e-20
1.87465e-05
-1.0654e-20
1.87465e-05
-6.57762e-21
1.87465e-05
-2.54408e-21
1.87465e-05
1.70544e-21
1.87465e-05
7.18248e-21
1.87465e-05
1.13494e-20
1.87465e-05
1.03786e-20
1.87465e-05
1.03118e-20
1.87465e-05
1.03396e-20
6.36966e-21
2.12463e-05
1.01718e-20
2.12463e-05
4.47871e-21
2.12463e-05
3.48852e-22
2.12463e-05
-4.07125e-21
2.12463e-05
-9.76538e-21
2.12463e-05
-1.06576e-20
2.12463e-05
-1.30392e-20
2.12463e-05
-1.49508e-20
2.12463e-05
-1.29883e-20
2.12463e-05
-1.07028e-20
2.12463e-05
-1.01663e-20
2.12463e-05
-8.33711e-21
2.12463e-05
-3.64324e-21
2.12463e-05
1.3319e-21
2.12463e-05
6.45346e-21
2.12463e-05
8.32214e-21
2.12463e-05
7.16601e-21
2.12463e-05
8.87734e-21
2.12463e-05
9.16432e-21
1.15653e-20
2.37462e-05
7.25043e-21
2.37462e-05
5.48682e-21
2.37462e-05
2.75358e-21
2.37462e-05
-2.92347e-21
2.37462e-05
-1.11545e-20
2.37462e-05
-1.41389e-20
2.37462e-05
-1.52232e-20
2.37462e-05
-1.3014e-20
2.37462e-05
-1.12615e-20
2.37462e-05
-6.9578e-21
2.37462e-05
-7.59176e-21
2.37462e-05
-5.98344e-21
2.37462e-05
-3.76504e-21
2.37462e-05
1.06085e-21
2.37462e-05
4.66533e-21
2.37462e-05
6.09588e-21
2.37462e-05
7.28777e-21
2.37462e-05
5.49434e-21
2.37462e-05
6.12082e-21
8.40281e-21
2.62462e-05
8.67634e-21
2.62462e-05
5.50641e-21
2.62462e-05
3.47499e-21
2.62462e-05
-3.6239e-21
2.62462e-05
-6.2629e-21
2.62462e-05
-1.05757e-20
2.62462e-05
-1.47801e-20
2.62462e-05
-1.31302e-20
2.62462e-05
-1.17711e-20
2.62462e-05
-9.88153e-21
2.62462e-05
-4.88198e-21
2.62462e-05
-2.59735e-21
2.62462e-05
1.70945e-22
2.62462e-05
2.2747e-21
2.62462e-05
2.40016e-21
2.62462e-05
4.06024e-21
2.62462e-05
7.35021e-21
2.62462e-05
6.94244e-21
2.62462e-05
5.24324e-21
6.93884e-21
2.87463e-05
1.52362e-21
2.87463e-05
5.14517e-21
2.87463e-05
1.05773e-21
2.87463e-05
-4.52194e-21
2.87463e-05
-6.32652e-21
2.87463e-05
-1.28419e-20
2.87463e-05
-1.25164e-20
2.87463e-05
-1.16597e-20
2.87463e-05
-1.28791e-20
2.87463e-05
-9.64342e-21
2.87463e-05
-4.69797e-21
2.87463e-05
3.94235e-21
2.87463e-05
7.96092e-21
2.87463e-05
4.50097e-21
2.87463e-05
3.00827e-21
2.87463e-05
3.22181e-21
2.87463e-05
1.27108e-21
2.87463e-05
7.90289e-21
2.87463e-05
8.18367e-21
2.92028e-21
3.12465e-05
8.00111e-22
3.12465e-05
2.27571e-22
3.12465e-05
-1.38743e-21
3.12465e-05
-3.93962e-21
3.12465e-05
-8.53276e-21
3.12465e-05
-1.04855e-20
3.12465e-05
-1.25965e-20
3.12465e-05
-1.2044e-20
3.12465e-05
-8.06551e-21
3.12465e-05
-4.32956e-21
3.12465e-05
3.19526e-22
3.12465e-05
4.68905e-21
3.12465e-05
1.02387e-20
3.12465e-05
1.14606e-20
3.12465e-05
1.04719e-20
3.12465e-05
6.73778e-21
3.12465e-05
2.8116e-21
3.12465e-05
-4.33551e-22
3.12465e-05
1.31765e-21
2.85777e-21
3.37467e-05
-1.46492e-21
3.37467e-05
-2.21171e-21
3.37467e-05
-6.68618e-21
3.37467e-05
-5.97432e-21
3.37467e-05
-5.1263e-21
3.37467e-05
-7.12597e-21
3.37467e-05
-7.57973e-21
3.37467e-05
-6.74517e-21
3.37467e-05
-4.1932e-21
3.37467e-05
-6.31237e-22
3.37467e-05
4.289e-21
3.37467e-05
6.19719e-21
3.37467e-05
5.07503e-21
3.37467e-05
7.52215e-21
3.37467e-05
1.16633e-20
3.37467e-05
9.65886e-21
3.37467e-05
6.64195e-21
3.37467e-05
2.77749e-21
3.37467e-05
-1.69192e-21
-5.77791e-21
3.62471e-05
-9.29768e-21
3.62471e-05
-4.6566e-21
3.62471e-05
-2.35938e-21
3.62471e-05
-7.15123e-21
3.62471e-05
-4.53318e-21
3.62471e-05
-6.58764e-21
3.62471e-05
-8.59793e-21
3.62471e-05
-8.66231e-21
3.62471e-05
-1.95321e-21
3.62471e-05
2.83326e-22
3.62471e-05
3.22647e-21
3.62471e-05
7.87573e-21
3.62471e-05
1.18439e-20
3.62471e-05
1.24688e-20
3.62471e-05
8.43372e-21
3.62471e-05
5.83115e-21
3.62471e-05
5.81166e-21
3.62471e-05
3.19323e-21
3.62471e-05
-7.38173e-22
-6.75781e-21
3.87475e-05
3.4785e-22
3.87475e-05
-4.58995e-21
3.87475e-05
-6.0583e-21
3.87475e-05
-3.31735e-21
3.87475e-05
-3.39528e-21
3.87475e-05
-7.04828e-21
3.87475e-05
-9.41675e-21
3.87475e-05
-9.10823e-21
3.87475e-05
-1.58154e-21
3.87475e-05
1.01168e-21
3.87475e-05
5.47896e-21
3.87475e-05
8.85338e-21
3.87475e-05
1.21788e-20
3.87475e-05
1.26418e-20
3.87475e-05
8.33296e-21
3.87475e-05
5.81194e-21
3.87475e-05
1.77262e-21
3.87475e-05
-5.90692e-21
3.87475e-05
-6.10555e-21
-1.61394e-21
4.1248e-05
-3.62616e-21
4.1248e-05
-2.84788e-21
4.1248e-05
3.70655e-21
4.1248e-05
5.22322e-21
4.1248e-05
-2.259e-21
4.1248e-05
-9.0104e-21
4.1248e-05
-1.11286e-20
4.1248e-05
-6.78149e-21
4.1248e-05
-3.25974e-21
4.1248e-05
-2.25929e-22
4.1248e-05
3.64756e-21
4.1248e-05
8.95756e-21
4.1248e-05
1.3926e-20
4.1248e-05
1.38617e-20
4.1248e-05
6.04463e-21
4.1248e-05
1.0544e-21
4.1248e-05
-3.94682e-21
4.1248e-05
-5.20015e-21
4.1248e-05
-6.87412e-21
-3.65681e-21
4.37485e-05
-1.90377e-21
4.37485e-05
-5.28685e-22
4.37485e-05
2.54594e-21
4.37485e-05
4.72042e-21
4.37485e-05
-4.01055e-21
4.37485e-05
-8.32495e-21
4.37485e-05
-9.38394e-21
4.37485e-05
-7.94765e-21
4.37485e-05
-3.41356e-21
4.37485e-05
2.62592e-21
4.37485e-05
1.77251e-21
4.37485e-05
8.28327e-21
4.37485e-05
1.26387e-20
4.37485e-05
7.79889e-21
4.37485e-05
1.0759e-21
4.37485e-05
-2.43333e-21
4.37485e-05
-3.4869e-21
4.37485e-05
-2.32679e-21
4.37485e-05
-2.95421e-21
-1.9779e-21
4.62491e-05
3.34274e-21
4.62491e-05
-9.16068e-22
4.62491e-05
1.7149e-21
4.62491e-05
4.77639e-21
4.62491e-05
-9.51467e-23
4.62491e-05
-1.96152e-21
4.62491e-05
-6.89032e-21
4.62491e-05
-8.81506e-21
4.62491e-05
-5.41651e-21
4.62491e-05
2.57993e-21
4.62491e-05
3.48662e-21
4.62491e-05
3.71436e-21
4.62491e-05
5.29002e-21
4.62491e-05
5.18602e-21
4.62491e-05
2.73247e-21
4.62491e-05
2.05002e-21
4.62491e-05
-3.16314e-21
4.62491e-05
-3.42326e-21
4.62491e-05
-1.06253e-21
3.59468e-22
4.87497e-05
4.87497e-05
4.87497e-05
4.87497e-05
4.87497e-05
4.87497e-05
4.87497e-05
4.87497e-05
4.87497e-05
4.87497e-05
4.87497e-05
4.87497e-05
4.87497e-05
4.87497e-05
4.87497e-05
4.87497e-05
4.87497e-05
4.87497e-05
4.87497e-05
)
;

boundaryField
{
    movingWall
    {
        type            calculated;
        value           uniform 0;
    }
    fixedWalls
    {
        type            calculated;
        value           uniform 0;
    }
    left
    {
        type            cyclic;
        value           nonuniform List<scalar> 
20
(
-3.87475e-05
-3.62471e-05
-3.37467e-05
-3.12465e-05
-2.87463e-05
-2.62462e-05
-2.37462e-05
-2.12463e-05
-1.87465e-05
-1.62467e-05
-1.37471e-05
-1.12475e-05
-8.748e-06
-6.24853e-06
-3.7491e-06
-1.2497e-06
-4.1248e-05
-4.37485e-05
-4.62491e-05
-4.87497e-05
)
;
    }
    right
    {
        type            cyclic;
        value           nonuniform List<scalar> 
20
(
3.87475e-05
3.62471e-05
3.37467e-05
3.12465e-05
2.87463e-05
2.62462e-05
2.37462e-05
2.12463e-05
1.87465e-05
1.62467e-05
1.37471e-05
1.12475e-05
8.748e-06
6.24853e-06
3.7491e-06
1.2497e-06
4.1248e-05
4.37485e-05
4.62491e-05
4.87497e-05
)
;
    }
    frontAndBack
    {
        type            empty;
        value           nonuniform List<scalar> 0();
    }
}


// ************************************************************************* //
