0 	-2.25832e-07
1.57135 	-0.000411217
3.1427 	-0.000635337
4.71405 	-0.00314213
6.28539 	-0.00778938
7.85674 	-0.0107158
9.42809 	-0.0093968
10.9994 	-0.00525469
12.5708 	0.0184024
14.1421 	0.0553678
