0 	-4.17118e-09
1.57135 	-2.27992e-06
3.1427 	-9.84848e-05
4.71405 	-0.000338823
6.28539 	-0.000946553
7.85674 	-0.00264892
9.42809 	-0.00635028
10.9994 	-0.0136523
12.5708 	0.00460188
14.1421 	0.0447163
