/*--------------------------------*- C++ -*----------------------------------*\
  =========                 |
  \\      /  F ield         | OpenFOAM: The Open Source CFD Toolbox
   \\    /   O peration     | Website:  https://openfoam.org
    \\  /    A nd           | Version:  8
     \\/     M anipulation  |
\*---------------------------------------------------------------------------*/
FoamFile
{
    version     2.0;
    format      ascii;
    class       volScalarField;
    location    "55";
    object      p;
}
// * * * * * * * * * * * * * * * * * * * * * * * * * * * * * * * * * * * * * //

dimensions      [0 2 -2 0 0 0 0];

internalField   nonuniform List<scalar> 
116
(
2.9015e-07
-0.00111967
-0.0016771
-0.00340557
0.00131133
-0.00858678
-3.51588e-05
-0.000914745
-0.000437162
-0.00413985
-0.00168921
-0.00307488
0.00095502
-7.72732e-05
-0.000478219
-0.00309242
-0.00572764
-0.00827346
0.00168404
0.00109589
-0.00013676
-0.0033932
-0.0074498
-0.00908716
0.00187369
0.00126797
-0.000511415
-0.00440038
-0.00919701
-0.010997
0.00118279
0.000872036
-0.000913101
-0.00437598
-0.00902711
-0.0108262
0.00136449
0.000908079
-0.000527192
-0.00385671
-0.00836736
-0.0111036
0.000363607
0.00106079
0.000519177
-0.00171763
-0.00508798
-0.00749605
0.00173696
0.00107622
0.00248578
0.000550191
-0.00246469
-0.00539812
-0.00350934
0.0044668
0.00457479
0.00309219
-0.000434623
-0.00272082
0.0024326
0.0110105
0.00952557
0.0152687
-0.00213462
0.00188603
0.00506787
0.00862985
-0.00893291
-0.00624649
-0.00245127
0.000914554
-0.0101093
-0.00891439
-0.00709083
-0.00388093
-0.0114643
-0.0105208
-0.00973785
-0.00667823
-0.0116007
-0.0102312
-0.0101347
-0.0066286
-0.0118701
-0.00995335
-0.0107355
-0.00336229
-0.00759044
-0.00551284
-0.00434386
0.00658707
-0.00731292
-0.00496591
-0.00272821
0.0147626
-0.00280467
0.00438533
0.0185576
0.0556867
0.0191037
0.018149
0.0179775
0.0212883
0.0169151
0.0170558
0.0150711
0.0173304
0.0132101
0.013924
0.0119292
0.0129492
0.00962562
0.017226
0.010317
0.0150394
)
;

boundaryField
{
    movingWall
    {
        type            zeroGradient;
    }
    fixedWalls
    {
        type            zeroGradient;
    }
    frontAndBack
    {
        type            empty;
    }
}


// ************************************************************************* //
