/*--------------------------------*- C++ -*----------------------------------*\
  =========                 |
  \\      /  F ield         | OpenFOAM: The Open Source CFD Toolbox
   \\    /   O peration     | Website:  https://openfoam.org
    \\  /    A nd           | Version:  8
     \\/     M anipulation  |
\*---------------------------------------------------------------------------*/
FoamFile
{
    version     2.0;
    format      ascii;
    class       volScalarField;
    location    "83";
    object      p;
}
// * * * * * * * * * * * * * * * * * * * * * * * * * * * * * * * * * * * * * //

dimensions      [0 2 -2 0 0 0 0];

internalField   nonuniform List<scalar> 
2844
(
0.0605631
0.0483047
0.0261409
-0.000102616
-0.0275639
-0.0401733
-0.0350921
-0.0244885
-0.0127769
0.00203454
0.0155647
0.0231073
0.0277897
0.00983407
0.00420662
0.00687574
0.00659417
0.00538306
0.00481442
0.00204247
0.0675835
0.0542108
0.0284768
-0.000812379
-0.0320077
-0.0481109
-0.0401122
-0.0302484
-0.0201828
-0.00178086
0.0162216
0.0331106
0.0379355
0.00561976
0.00474606
0.00731282
0.00548111
0.00494431
0.00407042
0.00175373
0.0848331
0.0620911
0.0322209
-0.013546
-0.0551043
-0.0624811
-0.0485931
-0.0313739
-0.0165248
0.00282921
0.0190433
0.033558
0.0396228
-0.00554894
-0.000129126
0.00838291
0.00537788
0.0064463
0.011641
0.00455603
0.109776
0.0863772
0.0460367
-0.0150832
-0.0707019
-0.0893489
-0.0660062
-0.0497949
-0.0426018
-0.0144322
0.0124574
0.0774536
0.0534912
-0.0343706
-0.00749781
-0.00218902
0.000504796
0.00571986
0.00541939
0.00412911
0.152244
0.0994795
0.0654035
-0.0855643
-0.139773
-0.135236
-0.101975
-0.0549824
-0.0346075
-0.00435201
0.0132177
0.0318821
-0.080329
-0.096435
-0.0542272
-0.0373366
-0.0205933
0.013959
0.0220179
0.00694443
0.216101
0.158529
0.101332
-0.1251
-0.205966
-0.208389
-0.151218
-0.0819639
-0.112913
-0.0846974
-0.0456804
-0.010365
-0.0732164
-0.0770775
-0.147814
-0.0721843
0.0215816
0.053598
0.020589
0.00222527
0.311098
0.154674
0.0680663
-0.338151
-0.374197
-0.313443
-0.212071
-0.151217
-0.160097
-0.124296
-0.0801429
-0.138246
-0.275362
-0.279078
-0.189381
-0.0300064
0.0259744
0.0365242
0.0202702
0.00658153
0.413671
0.292347
0.00363433
-0.733418
-0.745584
-0.417348
-0.269013
0.0361572
-0.495685
-0.2794
-0.109946
-0.165762
-0.198236
-0.12691
-0.108929
-0.0199063
0.0247023
0.0274634
0.0420422
0.010115
0.725179
0.708359
-0.0973257
-0.390667
-0.178681
-0.547074
-0.346542
-0.17193
-0.0507442
-0.0240781
-0.143551
-0.120292
-0.0261328
0.0285758
-0.014314
-0.0218498
-0.00688611
1.19019
0.920109
1.72634
-0.365759
-0.37641
-0.532732
-0.36122
-0.0794258
-0.0653967
-0.111784
-0.123222
-0.0851638
-0.0202629
0.0365672
0.0305793
0.0548794
0.0227169
0.884494
1.19988
-0.442492
-0.564768
-0.219098
-0.267118
0.0176644
-0.128694
-0.126702
-0.140325
-0.155363
-0.0978332
-0.0241378
-0.0151029
-0.0175522
-0.0052539
0.748948
0.667124
0.810841
-0.729961
-0.424616
0.100875
-0.0744331
0.0717936
-0.1862
-0.0693752
-0.0756575
-0.097252
-0.0815024
-0.0401042
-0.0380913
-0.0235587
-0.00551846
0.170169
0.188524
-0.454185
-0.677852
-0.554194
-0.490705
0.0952591
0.00293679
0.089478
-0.0243267
-0.0748496
-0.0808228
-0.0495968
-0.0354048
-0.0503054
-0.13403
-0.15123
-0.0382443
0.124777
-0.0496579
-0.30176
-0.711451
-1.07483
-0.590267
-0.357409
-0.266261
-0.118001
-0.0502302
0.0311543
0.0042969
-0.0510179
-0.0365431
-0.00860491
-0.00141985
-0.0499076
-0.206364
-0.300644
-0.0793646
0.0299021
-0.0234217
-0.186739
-0.343176
-0.441912
-0.411918
-0.281227
-0.209731
-0.0589297
-0.0188299
0.0352869
0.0703012
0.0404059
0.0358562
0.0239475
0.0206358
-0.00581896
-0.106277
-0.130765
-0.0207809
-0.0283567
-0.0670767
-0.141401
-0.291992
-0.313302
-0.3014
-0.229243
-0.163947
-0.104753
-0.0458536
0.00465576
0.0328332
0.0297831
0.0172287
0.0430913
0.0556852
0.0241498
-0.0115332
-0.0545118
-0.014147
-0.0681719
-0.088829
-0.135499
-0.201501
-0.246943
-0.24904
-0.197944
-0.145872
-0.0768137
-0.0405804
-0.00851337
0.0238172
0.0456588
0.0462263
0.0453147
0.0475052
0.0351078
0.0334442
0.000283828
-0.00127597
-0.0889296
-0.104543
-0.135609
-0.185973
-0.208709
-0.210133
-0.174494
-0.13231
-0.0946608
-0.0549119
-0.0230788
0.00806422
0.022152
0.0252344
0.0414344
0.0468053
0.0438159
0.0386011
0.0296762
0.00903282
-0.104869
-0.113153
-0.135659
-0.166144
-0.186907
-0.187632
-0.161058
-0.126639
-0.0846265
-0.0511775
-0.0237685
0.00161101
0.0225115
0.0336189
0.0401123
0.0448383
0.0420298
0.0360715
0.0358201
0.0133861
-0.109436
-0.117474
-0.136319
-0.162513
-0.176875
-0.176917
-0.155269
-0.123977
-0.0894486
-0.0560096
-0.0283796
-0.0033483
0.0155738
0.0271379
0.0363034
0.0414448
0.0409366
0.0356878
0.032544
0.0130294
0.0605619
0.0483129
0.0261169
-0.00010071
-0.0275608
-0.0401833
-0.0350828
-0.024489
-0.0127991
0.00204641
0.0154659
0.0230342
0.0273054
0.00980269
0.00404885
0.00671667
0.00651679
0.00537893
0.00485314
0.002048
0.067549
0.0541878
0.0284522
-0.000835003
-0.0319971
-0.0480743
-0.0401521
-0.0303067
-0.0202423
-0.00176927
0.0159869
0.0323003
0.0367171
0.00557222
0.00458418
0.00679485
0.00537662
0.00498429
0.00395762
0.00174284
0.0848502
0.0619576
0.0321747
-0.0133474
-0.0549794
-0.0627115
-0.0484759
-0.0314368
-0.0165072
0.00268867
0.0189022
0.0297909
0.0343338
-0.00585241
-0.00306623
0.00521326
0.0040073
0.00621032
0.0117354
0.00445337
0.109832
0.0855848
0.0459352
-0.0152778
-0.0707052
-0.0896255
-0.0674502
-0.0515078
-0.0430771
-0.0145366
0.0105248
0.0659199
0.0493161
-0.0344505
-0.0145562
-0.00587991
0.00178873
0.00647563
0.00593927
0.00407574
0.152265
0.0969602
0.0637545
-0.0817772
-0.135741
-0.129394
-0.10226
-0.0609254
-0.0361095
-0.0077249
0.00130566
0.0302009
-0.0940091
-0.107975
-0.0600045
-0.0416712
-0.0203588
0.0122929
0.0210396
0.00637231
0.214274
0.155374
0.0888172
-0.140195
-0.199464
-0.197416
-0.144994
-0.0814752
-0.118579
-0.0797146
-0.0542503
-0.016507
-0.0968606
-0.0848325
-0.148887
-0.077501
0.014582
0.0495469
0.0190972
0.0015633
0.304969
0.145115
0.0617778
-0.338616
-0.394222
-0.29929
-0.214522
-0.151052
-0.15922
-0.126148
-0.0870826
-0.138299
-0.272636
-0.280839
-0.188538
-0.0299402
0.025287
0.0346172
0.020376
0.00682023
0.402672
0.264721
-0.0563956
-0.792682
-0.762044
-0.353252
-0.286139
0.0313929
-0.514235
-0.288152
-0.106584
-0.171064
-0.211909
-0.134878
-0.103877
-0.0183949
0.022074
0.0233915
0.0422801
0.00998653
0.747672
0.758195
-0.0771639
-0.39243
-0.183544
-0.564109
-0.337972
-0.177762
-0.0950298
-0.0627896
-0.129018
-0.128736
-0.0265054
0.0229497
-0.0228547
-0.032834
-0.00997614
1.07552
0.8497
1.71277
-0.364627
-0.418893
-0.558342
-0.36537
-0.114743
-0.100826
-0.105346
-0.120665
-0.0811128
-0.0172274
0.0407042
0.0299575
0.0528099
0.0201791
0.817246
1.13052
-0.456087
-0.608885
-0.215676
-0.276368
-0.0284592
-0.134588
-0.1363
-0.146315
-0.147654
-0.0960501
-0.024786
-0.00931932
-0.0199386
-0.00520636
0.747548
0.680148
0.608848
-0.719563
-0.446116
0.0973421
-0.0812258
0.0570521
-0.200038
-0.0900433
-0.0838623
-0.103584
-0.0869285
-0.040911
-0.0346382
-0.0168116
-0.00456938
0.154507
0.156224
-0.515518
-0.683527
-0.538761
-0.465582
0.108947
-0.0113571
0.079664
-0.0465657
-0.0840455
-0.0964865
-0.0593965
-0.0412783
-0.0485423
-0.133709
-0.153124
-0.0395256
0.122201
-0.0696515
-0.347979
-0.742804
-1.06309
-0.597937
-0.357666
-0.271634
-0.130008
-0.0526409
0.0334142
-0.00484752
-0.0610851
-0.0406029
-0.0110938
0.00092926
-0.0508477
-0.213163
-0.30671
-0.0818223
0.0278638
-0.0244921
-0.186777
-0.333277
-0.422858
-0.414956
-0.283859
-0.211069
-0.0565872
-0.0162685
0.0374351
0.0709961
0.0421011
0.0356661
0.0235039
0.0230039
-0.00625344
-0.111204
-0.135807
-0.0211851
-0.0277421
-0.0665991
-0.138846
-0.287241
-0.31133
-0.302
-0.229441
-0.165641
-0.105588
-0.0462453
0.00567204
0.0334404
0.0293033
0.0171053
0.0413157
0.0549874
0.024704
-0.0122712
-0.0546662
-0.0141093
-0.0681847
-0.0883822
-0.134291
-0.201086
-0.247803
-0.248795
-0.198716
-0.146001
-0.0766564
-0.0402514
-0.00802626
0.0235706
0.0450069
0.0461659
0.0451515
0.0474418
0.0343918
0.0286678
-0.00191733
-0.00162591
-0.0888455
-0.104393
-0.135351
-0.185943
-0.208553
-0.210061
-0.174462
-0.132359
-0.0946875
-0.0549355
-0.0228449
0.0078684
0.0221489
0.0256862
0.0410595
0.0462013
0.0433221
0.0383665
0.0278467
0.00872784
-0.104961
-0.113119
-0.135633
-0.166104
-0.186892
-0.187619
-0.161067
-0.126656
-0.0846326
-0.0511899
-0.0238404
0.00162154
0.0224801
0.0335865
0.0400291
0.0447849
0.0422099
0.0362252
0.03442
0.0129075
-0.109314
-0.117457
-0.136315
-0.162496
-0.176864
-0.176921
-0.155264
-0.12397
-0.0894517
-0.0560154
-0.0283831
-0.0033506
0.0155738
0.0271605
0.0362852
0.0414053
0.0409123
0.0356359
0.0317915
0.0127228
0.0605589
0.0483221
0.0260977
-9.49689e-05
-0.0275593
-0.0401891
-0.0350682
-0.0244904
-0.0128168
0.00206487
0.015395
0.0229653
0.027107
0.00983637
0.00400766
0.00665025
0.00649824
0.0053849
0.00486482
0.00205744
0.0675179
0.0541885
0.0284332
-0.000843933
-0.0320051
-0.0480254
-0.0401103
-0.0302787
-0.0202741
-0.0017672
0.0158399
0.0318468
0.0364485
0.0060522
0.00488697
0.00679505
0.00544881
0.00501559
0.00395815
0.00175882
0.0848521
0.0620262
0.0321783
-0.013269
-0.0551656
-0.0624399
-0.0483183
-0.0315532
-0.0163801
0.0028557
0.018639
0.0293034
0.0322972
-0.00555961
-0.00380554
0.00434848
0.00376135
0.00652389
0.0117804
0.00449352
0.109885
0.0855457
0.045705
-0.015336
-0.0705613
-0.0891521
-0.066773
-0.0511661
-0.0430029
-0.0142196
0.00996928
0.0625063
0.0529068
-0.0290013
-0.0125855
-0.00502866
0.00252133
0.00722682
0.00659631
0.00450038
0.152192
0.0983248
0.0656462
-0.0819713
-0.140203
-0.127422
-0.096164
-0.0616705
-0.037712
-0.00555426
-8.43093e-05
0.0245754
-0.0755739
-0.101553
-0.060056
-0.0386745
-0.0170567
0.0129329
0.0212244
0.00612898
0.214577
0.153759
0.0969221
-0.123762
-0.191478
-0.195751
-0.143694
-0.0769102
-0.114341
-0.0730006
-0.0557538
-0.00570561
-0.0789371
-0.0848582
-0.143263
-0.0776928
0.0158442
0.0466829
0.0188212
0.00213193
0.303988
0.143029
0.0491838
-0.342792
-0.389349
-0.286227
-0.199954
-0.151174
-0.164016
-0.126246
-0.0771078
-0.1097
-0.271038
-0.282782
-0.185604
-0.0322296
0.021105
0.033023
0.0213065
0.00730965
0.410997
0.272132
-0.0882612
-0.745679
-0.813034
-0.273995
-0.285295
0.0251064
-0.507023
-0.282233
-0.113003
-0.149996
-0.199348
-0.134721
-0.105612
-0.0108576
0.0240636
0.0249599
0.0432877
0.0105902
0.745679
0.794797
-0.0353443
-0.37124
-0.206992
-0.549014
-0.316647
-0.165703
-0.106737
-0.0464665
-0.133644
-0.120082
-0.0096591
0.0347556
-0.0169618
-0.0324301
-0.00903458
1.1662
0.887509
1.81512
-0.363493
-0.452018
-0.554892
-0.3664
-0.0883925
-0.0809879
-0.105709
-0.120638
-0.071244
-0.00770831
0.0444197
0.032751
0.0509835
0.0201243
0.814532
1.17829
-0.469952
-0.586028
-0.211942
-0.264431
0.0092934
-0.117152
-0.115634
-0.11672
-0.12471
-0.0942293
-0.0260076
-0.00597119
-0.0169254
-0.0051806
0.739414
0.542346
0.548536
-0.676679
-0.422944
0.11342
-0.070943
0.0349
-0.21104
-0.0660804
-0.069511
-0.101057
-0.0912817
-0.0391746
-0.0318558
-0.0124692
-0.00303406
0.144503
0.237262
-0.533283
-0.692708
-0.52401
-0.457141
0.149746
0.0214308
0.0624249
-0.041359
-0.0590032
-0.0902455
-0.0662886
-0.0432968
-0.0422648
-0.132919
-0.153048
-0.0392863
0.119766
-0.0414578
-0.326676
-0.788764
-1.04373
-0.607077
-0.366265
-0.273962
-0.113161
-0.0344218
0.050698
0.0112678
-0.0646676
-0.0434122
-0.00915553
0.00907342
-0.0511771
-0.220262
-0.309958
-0.0808796
0.0295039
-0.012593
-0.170169
-0.337254
-0.406215
-0.412323
-0.282762
-0.214404
-0.0633209
-0.0151601
0.0409146
0.0720519
0.0357736
0.0332469
0.0244777
0.0276757
-0.00779445
-0.117337
-0.138147
-0.0197792
-0.0271294
-0.0588224
-0.13361
-0.284543
-0.309331
-0.30242
-0.230063
-0.167093
-0.10541
-0.0450842
0.00852675
0.0371682
0.031619
0.0181145
0.0407448
0.0541723
0.0256619
-0.0097747
-0.0500406
-0.0128664
-0.0682907
-0.0862022
-0.132223
-0.200924
-0.247163
-0.248525
-0.198362
-0.145852
-0.0766176
-0.0398679
-0.00709679
0.0235997
0.0439269
0.0461603
0.0450675
0.0477408
0.0343873
0.0259676
-0.00120551
-0.00123004
-0.0887254
-0.103941
-0.135036
-0.185723
-0.208346
-0.209908
-0.174426
-0.132452
-0.0946933
-0.0548627
-0.0225477
0.00782414
0.0222923
0.0259777
0.0405476
0.0458183
0.0429831
0.0374453
0.0266337
0.00861115
-0.104967
-0.113036
-0.135605
-0.166057
-0.186812
-0.187595
-0.161047
-0.126655
-0.0846556
-0.0511764
-0.0238457
0.00164886
0.0224159
0.0336032
0.0399931
0.0447183
0.0423978
0.0364469
0.0335331
0.0126091
-0.109297
-0.117438
-0.136311
-0.16247
-0.176844
-0.176913
-0.155257
-0.123965
-0.089454
-0.0560071
-0.0283799
-0.00334855
0.0155819
0.0271803
0.0362682
0.0413672
0.0409051
0.0356086
0.0313079
0.0125226
-0.311933
-0.09719
-1.08075
-0.0394484
-0.336045
-0.170943
-1.05732
-0.810096
-0.778051
-0.836614
-0.450911
-0.756786
-0.464699
-0.288807
-0.309385
-0.365047
-0.397428
-0.291879
-0.29839
-0.37297
0.273177
0.390954
1.12022
0.735609
0.269158
0.354822
1.16884
0.859196
-0.0996913
0.642689
-0.343296
-0.377399
-0.345617
-0.377517
-0.264842
-0.35601
-0.257095
-0.390825
-0.271191
-0.35085
-0.263021
1.33393
1.09007
1.22151
0.877391
1.27083
1.04863
1.19271
1.63606
-0.371447
-0.371147
-0.393347
-0.386265
-0.404215
-0.364401
-0.400266
-0.386759
-0.410271
1.33585
1.08256
0.937996
1.14846
1.16218
1.01768
1.0634
1.36212
1.33995
-0.585877
-0.590221
-0.617034
-0.59452
-0.770175
-0.449993
-0.631419
-0.60241
-0.787517
0.794722
0.714364
0.222177
0.634133
0.795295
0.649437
0.155789
-0.227304
0.660556
-0.152689
-0.698632
-0.697428
-0.692129
-0.692759
-0.926782
-0.728628
-0.803676
-0.727459
-0.922521
-0.727752
-0.792462
-1.38007
-0.0795725
-0.625432
-0.492191
-1.35336
-0.102265
-0.629126
-0.993861
-1.21251
-1.01134
-1.23168
-1.19697
-0.822891
-1.23063
-0.859701
-0.6528
-0.735457
-0.676657
-0.680884
-0.647157
-0.767345
-0.669383
-0.352175
-0.217021
-1.0524
-0.0830386
-0.377277
-0.27988
-1.06536
-0.846983
-0.769782
-0.863898
-0.470996
-0.803239
-0.43544
-0.290981
-0.290236
-0.388259
-0.298423
-0.28941
-0.264671
-0.395074
0.304816
0.31616
1.26213
0.783684
0.361467
0.321089
1.33082
0.67928
-0.0331874
0.851976
-0.345596
-0.3746
-0.34425
-0.370448
-0.2674
-0.353026
-0.253458
-0.386185
-0.276447
-0.352302
-0.259346
1.37717
1.00509
1.183
0.877993
1.54762
0.960424
1.1946
1.84124
-0.371316
-0.372225
-0.410894
-0.388007
-0.420481
-0.363684
-0.417278
-0.394775
-0.43103
1.12185
0.967888
1.17325
1.10399
0.937219
0.916851
1.193
1.55937
1.4434
-0.591307
-0.586281
-0.652984
-0.605603
-0.804094
-0.47028
-0.66668
-0.594578
-0.807923
0.820933
0.565412
0.244048
0.67579
0.752801
0.501467
0.327054
-0.101763
0.50269
0.0288807
-0.686059
-0.67999
-0.653925
-0.64986
-0.909039
-0.717414
-0.799675
-0.701943
-0.887831
-0.696182
-0.79023
-1.34822
-0.129734
-0.631935
-0.49763
-1.29531
-0.135872
-0.609933
-1.01348
-1.23939
-0.994123
-1.26678
-1.2305
-0.873629
-1.22834
-0.93174
-0.649134
-0.767032
-0.670318
-0.694322
-0.645786
-0.780381
-0.672379
-0.388839
-0.294521
-1.06998
-0.0881778
-0.380392
-0.308035
-1.07122
-0.865917
-0.70012
-0.87203
-0.418421
-0.821568
-0.387687
-0.285768
-0.248489
-0.382564
-0.267101
-0.279848
-0.205119
-0.368124
0.408243
0.359691
1.32929
0.803161
0.476139
0.380372
1.32041
0.915674
-0.0380007
0.988287
-0.341728
-0.369575
-0.348724
-0.367377
-0.269776
-0.343522
-0.256713
-0.358601
-0.263849
-0.327462
-0.257017
1.56486
0.958136
1.22866
0.873016
1.46544
0.920053
1.30119
1.6135
-0.37229
-0.371299
-0.423774
-0.397515
-0.43631
-0.363432
-0.424452
-0.39958
-0.43402
0.974269
0.961029
1.08709
1.44365
1.5503
1.02929
0.999344
1.33012
1.33788
-0.582022
-0.571309
-0.670602
-0.583588
-0.798112
-0.466112
-0.654399
-0.553511
-0.777098
0.632998
0.462824
0.378288
0.505381
0.804962
0.522045
0.463395
0.0594446
0.836866
0.100378
-0.644365
-0.640538
-0.629115
-0.63465
-0.862241
-0.675684
-0.791256
-0.66274
-0.838398
-0.658328
-0.7772
-1.27586
-0.143049
-0.573427
-0.558741
-1.30761
-0.117459
-0.513511
-0.998128
-1.2686
-1.00007
-1.23755
-1.2211
-0.952156
-1.19232
-0.960539
-0.645639
-0.768696
-0.665072
-0.686969
-0.649581
-0.751176
-0.669636
-0.446627
-0.468555
-0.688268
-0.333381
-0.446192
-0.468651
-0.694494
-0.382279
-0.672292
-0.500958
-0.384364
-0.380322
-0.684928
-0.496205
-1.1527
-0.828089
-0.913559
-0.744717
-0.834946
-0.931762
-1.14208
-0.868835
-0.657601
-1.24669
-0.752428
-0.662624
-1.2518
-0.868532
-0.112331
-0.264876
0.320297
-0.10506
-0.292207
0.261116
-0.111426
-0.272739
-0.276014
1.51186
-0.421689
-0.407117
-0.386017
-0.365128
-0.40601
-0.385577
-0.422215
-0.53634
-0.474148
-0.461725
-0.443576
-0.475396
-0.463567
-0.534626
0.458662
0.714535
0.375364
-1.93126
-1.42068
-1.45147
-1.88431
-0.740846
-0.726347
-0.645859
-0.679056
-0.724134
-0.647015
-0.740478
-0.986815
-0.63144
-0.699013
-0.719128
-0.975122
-0.620747
-0.694707
-0.812685
-0.681425
-0.649825
-1.06276
-0.814905
-0.681219
-0.654224
-0.451272
-0.465114
-0.696951
-0.340999
-0.452032
-0.449241
-0.68828
-0.379505
-0.696304
-0.508052
-0.389504
-0.380092
-0.68951
-0.52235
-1.16785
-0.851622
-0.983477
-0.798692
-1.16841
-0.849174
-0.995069
-0.896786
-0.695305
-1.23025
-0.773585
-0.880985
-0.71024
-1.22583
0.0231123
-0.362561
0.218665
-0.0510524
-0.00292009
-0.37904
0.230701
-0.29129
-0.290128
1.79555
-0.419861
-0.402163
-0.384053
-0.364043
-0.420792
-0.400216
-0.382965
-0.548707
-0.486669
-0.483976
-0.462021
-0.545614
-0.490869
-0.491472
0.341127
0.559105
0.338994
-2.04616
-1.53099
-2.03783
-1.55289
-0.749108
-0.717297
-0.661826
-0.689005
-0.74619
-0.715662
-0.672253
-0.968423
-0.61393
-0.694087
-0.751955
-0.959315
-0.593142
-0.683521
-0.823758
-0.667236
-0.637762
-1.05318
-0.825037
-0.659418
-0.636037
-0.449587
-0.42799
-0.68764
-0.355996
-0.45151
-0.423624
-0.684803
-0.359
-0.686527
-0.511361
-0.381671
-0.369942
-0.685929
-0.517322
-1.15908
-0.811443
-0.963655
-0.726904
-1.16131
-0.802096
-0.948665
-0.966635
-0.700548
-1.23588
-0.818432
-0.95845
-0.691105
-1.23987
-0.0932383
-0.407082
0.247495
-0.0443641
-0.0316226
-0.398778
0.245725
-0.266124
-0.257017
1.72432
-0.404464
-0.397259
-0.377752
-0.363543
-0.411063
-0.394432
-0.376174
-0.539716
-0.494226
-0.501058
-0.468394
-0.546903
-0.487972
-0.497587
0.391762
0.633465
0.435267
-1.90719
-1.58173
-1.96265
-1.5642
-0.748816
-0.70774
-0.70771
-0.689446
-0.754047
-0.708144
-0.716166
-0.959459
-0.586034
-0.676366
-0.802697
-0.954267
-0.584627
-0.671414
-0.832072
-0.646988
-0.629837
-1.03955
-0.834789
-0.643504
-0.622012
-0.44261
-0.735914
-0.484564
-1.07342
-0.749017
-0.518758
-0.431161
-0.454517
-1.06195
-0.789642
-0.547742
-0.767644
-0.531192
-0.473767
-1.24519
-0.848006
-1.32117
-0.821017
-0.855223
-1.32595
-1.23363
-1.39153
-1.05035
-1.06864
-1.36515
-1.16228
-0.766263
-0.848671
-0.968364
-0.845329
-0.951071
-1.16758
-1.26072
-0.829634
-0.867319
-1.31623
-0.860234
-1.32454
-1.27479
-1.43278
-1.13761
-1.10243
-1.47684
-0.582132
-0.516643
-0.393822
-0.454209
-0.521104
-0.399268
-0.578955
-0.71712
-0.395478
-0.4011
-0.71334
-0.868939
-0.75443
-0.678886
-1.24165
-0.668593
-1.25069
-0.87134
-0.590451
-0.457591
-0.538456
-0.420405
-0.527464
-0.407678
-0.604137
-0.719166
-0.421521
-0.409629
-0.72173
-0.207675
-0.27776
-0.261531
-0.309272
-0.27883
-0.26605
-0.202847
-0.220716
-0.306351
-0.283913
-0.272434
-0.282013
-0.271247
-0.238266
-0.636671
-0.638756
0.613465
0.752989
0.526372
-0.0919897
-0.0924022
-0.344289
0.20849
-0.316044
0.230346
-0.0540451
-0.65174
-0.649998
0.673478
0.46041
0.486176
-0.332332
-0.310799
-0.347798
-0.343426
-0.311376
-0.348958
-0.331701
-0.345709
-0.378432
-0.346577
-0.288187
-0.281926
-0.333216
-0.344929
-0.317012
-0.351701
-0.314721
-0.350667
-0.33435
-0.376557
-0.348555
-0.347125
0.842858
0.79476
1.61205
1.26597
0.764528
1.52406
0.871407
0.897336
1.50937
0.781842
1.1934
1.4704
0.741941
0.927925
0.826281
1.23518
0.73968
1.30937
0.751792
1.38584
0.830866
0.854598
1.17956
1.34723
0.682603
1.40611
0.683147
0.808885
1.47644
-0.371316
-0.371162
-0.430661
-0.385374
-0.424375
-0.386012
-0.384992
-0.423634
-0.431369
-0.421031
-0.364934
-0.40282
-0.384757
-0.404412
-0.385226
-0.420834
-0.429646
-0.386166
-0.384784
-0.421695
-0.38482
-0.422753
-0.42838
0.861981
0.720533
1.27137
1.27889
0.696698
1.24967
0.887844
0.917797
1.14769
0.962818
0.886477
1.12599
0.938383
0.927833
0.826121
1.21215
0.628417
1.18659
0.660545
1.22021
0.806385
0.881513
0.965511
0.959255
0.963858
1.05772
0.947989
0.813172
1.14114
1.14998
-0.58598
-0.588323
-0.611752
-0.547457
-0.671368
-0.595612
-0.549359
-0.672598
-0.611583
-0.539409
-0.445838
-0.481088
-0.475894
-0.478176
-0.469229
-0.541631
-0.61413
-0.599442
-0.560533
-0.67733
-0.554459
-0.67619
-0.615823
-0.285848
0.134649
-0.484188
-0.219667
0.0905012
-0.486571
-0.277812
-0.751911
-0.741473
0.705463
0.346975
0.356212
-0.246901
-0.192692
0.0772224
-0.419319
0.058754
-0.454168
-0.220233
-0.782137
-0.767969
-0.67745
-0.697123
-0.673244
-0.689913
-0.690157
-0.653052
-0.687655
-0.657967
-0.697048
-0.684911
-0.660712
-0.649945
-0.696372
-0.655773
-0.666459
-0.690428
-0.690324
-0.659358
-0.693129
-0.672152
-0.672093
-0.678801
-0.665904
-0.66791
-0.833245
-0.867091
-0.998256
-1.38263
-0.955912
-0.984919
-0.817437
-0.844231
-1.36265
-1.09501
-0.992054
-1.02687
-0.976072
-0.88711
-1.5396
-1.20769
-1.12985
-1.02689
-1.23397
-1.14419
-1.52785
-1.58392
-1.70503
-1.22402
-1.22588
-1.71601
-1.23085
-1.57889
-1.97777
-1.51059
-1.48242
-2.01762
-1.53331
-1.02278
-1.18559
-1.14692
-1.20784
-1.14383
-1.53324
-1.58636
-1.22804
-1.73088
-1.23157
-1.72182
-1.22687
-1.59696
-1.35001
-1.04618
-1.05554
-1.33198
-1.49452
-1.6621
-1.13098
-1.21145
-1.67814
-1.13876
-1.49037
-1.23896
-0.974952
-1.02458
-0.835952
-0.976098
-1.03079
-1.23134
-1.35086
-1.08706
-1.0728
-1.36289
-1.50074
-1.22361
-1.70169
-1.1491
-1.68718
-1.14042
-1.50833
-1.24703
-0.846226
-0.996325
-1.02349
-0.988765
-1.01775
-1.2579
-0.740713
-0.678083
-0.717269
-0.653444
-0.720801
-0.64769
-0.742348
-0.507003
-0.814118
-0.554145
-1.05465
-0.486712
-0.840205
-0.566667
-0.523584
-1.06068
-0.876331
-0.601919
-0.863917
-0.582976
-0.52884
-1.27687
-0.880576
-1.30269
-0.850875
-1.28189
-0.881664
-1.28638
-1.52842
-1.1685
-1.5104
-1.18795
-1.16603
-0.791726
-0.825597
-0.978642
-0.84123
-0.99426
-1.16326
-1.25935
-0.858364
-0.878305
-1.27274
-0.881615
-1.27549
-1.24046
-1.53405
-1.18383
-1.19162
-1.53888
-0.640617
-0.559019
-0.43166
-0.466869
-0.622239
-0.565615
-0.441644
-0.724794
-0.434344
-0.723409
-0.440858
-0.919186
-0.79167
-0.712032
-1.22952
-0.719274
-1.22479
-0.940729
-0.654891
-0.454143
-0.551937
-0.44834
-0.564489
-0.443433
-0.662823
-0.719888
-0.434255
-0.440106
-0.708728
-0.2454
-0.281354
-0.265543
-0.28353
-0.246183
-0.273286
-0.257794
-0.237767
-0.276417
-0.241257
-0.242042
-0.260034
-0.249415
-0.226486
-0.645189
-0.636863
0.466524
0.721493
0.477065
0.0337395
-0.0433366
-0.40892
0.241978
-0.398873
0.234888
0.0118542
-0.623939
-0.626113
0.791965
0.515899
0.500797
-0.339355
-0.322772
-0.350973
-0.34436
-0.336587
-0.324558
-0.35172
-0.34855
-0.374409
-0.349086
-0.276195
-0.284561
-0.342657
-0.341136
-0.323536
-0.350605
-0.325668
-0.346308
-0.34581
-0.371771
-0.347036
-0.347884
0.966122
0.822023
1.32246
1.42332
0.892839
0.893316
1.38532
0.677953
1.30625
0.717262
1.16965
0.731865
1.29585
0.699225
1.06457
1.50163
1.10713
1.59401
1.00494
1.4889
1.13663
0.695484
1.16995
1.31374
0.790835
1.30111
0.767996
0.73503
1.89691
-0.371567
-0.371983
-0.426032
-0.384899
-0.421246
-0.389885
-0.426977
-0.385276
-0.421416
-0.418111
-0.364115
-0.397562
-0.379662
-0.399649
-0.381485
-0.414677
-0.424938
-0.392404
-0.386568
-0.421094
-0.386038
-0.42191
-0.422739
0.763371
0.589491
1.15119
1.07998
0.786992
0.547663
1.11778
0.732048
0.918914
1.01463
1.25872
0.764908
0.984716
1.06646
0.742589
1.01324
0.550893
1.07612
0.539185
1.09032
0.73228
0.699256
1.24732
1.04345
1.08794
1.01923
1.08111
0.696003
1.65894
1.575
-0.591159
-0.589293
-0.61981
-0.56727
-0.680714
-0.605254
-0.618568
-0.572931
-0.679958
-0.551205
-0.467386
-0.495275
-0.501304
-0.495174
-0.498023
-0.549322
-0.619796
-0.602435
-0.576826
-0.672489
-0.576425
-0.680308
-0.615506
-0.146876
0.112179
-0.376636
-0.0428834
-0.177716
0.184257
-0.341319
-0.771871
-0.753454
0.480835
0.350207
0.323099
-0.133005
0.01051
0.333902
-0.303795
0.27776
-0.312565
-0.13689
-0.700362
-0.724221
-0.645087
-0.676319
-0.634704
-0.691825
-0.69253
-0.682458
-0.661487
-0.676886
-0.672237
-0.67692
-0.65335
-0.679858
-0.665582
-0.622793
-0.627583
-0.697781
-0.6955
-0.685094
-0.655708
-0.641187
-0.684816
-0.644069
-0.682407
-0.684824
-0.891858
-1.11977
-1.02144
-1.34642
-0.895454
-1.11546
-1.06111
-0.874391
-1.32442
-1.04522
-1.1247
-1.08492
-1.09801
-0.840692
-1.5469
-1.17914
-1.1571
-1.00998
-1.54117
-1.17553
-1.16518
-1.63131
-1.74337
-1.24529
-1.24803
-1.61219
-1.76051
-1.25428
-2.03228
-1.57991
-1.56786
-2.00434
-1.55249
-1.01143
-1.16779
-1.17883
-1.17517
-1.1763
-1.55149
-1.65203
-1.25897
-1.79251
-1.26652
-1.77963
-1.26203
-1.66823
-1.3719
-1.10122
-1.36639
-1.11086
-1.52595
-1.71365
-1.16104
-1.23058
-1.51636
-1.72411
-1.17273
-1.27199
-1.00166
-1.03377
-0.890466
-1.26493
-1.00787
-1.04456
-1.37658
-1.11183
-1.11419
-1.37921
-1.53604
-1.22986
-1.73324
-1.18899
-1.73209
-1.18223
-1.53762
-1.27883
-0.910003
-1.0247
-1.06969
-1.01623
-1.05605
-1.28406
-0.752381
-0.692721
-0.709576
-0.695446
-0.715271
-0.683395
-0.75295
-0.537326
-0.881062
-0.63208
-1.07506
-0.538103
-0.876488
-0.654332
-0.538114
-1.07437
-0.855611
-0.688167
-0.869317
-0.676659
-0.534944
-1.21798
-0.874239
-1.27788
-0.873115
-1.22699
-0.875716
-1.27732
-1.55972
-1.17955
-1.54729
-1.18189
-1.1564
-0.707957
-0.784257
-0.922253
-0.789607
-0.934627
-1.14505
-1.21267
-0.872002
-0.86241
-1.26204
-0.866448
-1.27219
-1.20383
-1.57944
-1.19225
-1.18957
-1.58134
-0.681826
-0.531707
-0.459343
-0.409877
-0.671158
-0.523441
-0.464307
-0.683547
-0.425095
-0.691094
-0.412599
-0.96666
-0.82139
-0.681725
-1.22508
-0.685958
-1.23629
-0.957087
-0.686903
-0.397014
-0.508155
-0.45296
-0.516226
-0.463187
-0.687582
-0.674062
-0.390868
-0.401451
-0.668131
-0.193796
-0.217314
-0.233215
-0.230538
-0.210603
-0.191378
-0.225077
-0.167879
-0.214206
-0.150903
-0.209841
-0.16486
-0.214459
-0.156557
-0.619234
-0.643008
0.543325
0.954839
0.575758
-0.160667
-0.0352
-0.370424
0.299227
-0.375176
0.285834
-0.202414
-0.6742
-0.661169
0.963041
0.637737
0.609395
-0.347342
-0.320557
-0.342831
-0.347071
-0.346782
-0.317369
-0.348011
-0.346431
-0.368109
-0.345405
-0.24872
-0.251531
-0.345982
-0.346577
-0.314248
-0.345481
-0.315195
-0.344485
-0.345548
-0.368662
-0.344985
-0.345805
1.21567
1.15949
1.71119
1.55267
1.17433
1.21945
1.84347
0.772347
1.32962
0.768502
1.26677
0.752723
1.34464
0.773959
1.22411
1.44823
1.23978
1.9494
1.21156
1.90588
1.24246
0.787661
1.29541
1.34823
0.842255
1.34939
0.807774
0.794083
1.62656
-0.372064
-0.371666
-0.415082
-0.387025
-0.421298
-0.398895
-0.421149
-0.386968
-0.417696
-0.400112
-0.363363
-0.392491
-0.374479
-0.39446
-0.374949
-0.396485
-0.411195
-0.399482
-0.386512
-0.412197
-0.386702
-0.417275
-0.403854
0.723725
0.558509
1.08263
1.15707
0.722771
0.666744
1.0752
0.799064
1.0555
1.00833
1.00371
0.712993
1.10689
0.996026
0.778643
1.40082
0.917571
1.20286
0.797097
1.10434
0.880054
0.841224
0.962493
1.23931
1.02301
1.19844
1.01185
0.821944
1.2526
1.24605
-0.578053
-0.573364
-0.602758
-0.573417
-0.666266
-0.570272
-0.610682
-0.567687
-0.654702
-0.53592
-0.466783
-0.476013
-0.491559
-0.482924
-0.493479
-0.530539
-0.597642
-0.558965
-0.559528
-0.640709
-0.562029
-0.647437
-0.593298
-0.189902
0.408795
-0.302798
0.0799331
-0.172343
0.429696
-0.306228
-0.703866
-0.744783
0.797446
0.501947
0.490416
-0.16204
0.0800043
0.416993
-0.369901
0.422499
-0.349427
-0.120986
-0.757509
-0.752711
-0.621227
-0.635737
-0.620054
-0.69956
-0.699529
-0.68065
-0.636938
-0.686497
-0.637273
-0.683323
-0.64219
-0.686194
-0.631315
-0.621392
-0.621293
-0.694201
-0.69573
-0.67666
-0.63542
-0.64335
-0.681585
-0.640244
-0.684549
-0.674263
-0.799221
-1.03386
-1.14667
-1.26715
-0.81902
-0.998249
-1.16549
-0.792213
-1.27822
-0.88366
-1.18725
-0.968984
-1.18418
-0.779924
-1.5334
-1.16496
-1.18834
-1.00128
-1.54486
-1.1617
-1.19432
-1.67551
-1.79119
-1.26809
-1.26255
-1.67649
-1.77569
-1.26484
-1.85438
-1.51309
-1.53669
-1.81455
-1.51947
-0.998342
-1.14619
-1.19605
-1.15578
-1.19753
-1.49902
-1.67314
-1.25499
-1.72865
-1.25772
-1.7512
-1.26456
-1.66813
-1.37633
-1.09604
-1.38486
-1.08346
-1.49963
-1.72455
-1.19238
-1.21339
-1.52412
-1.70057
-1.19151
-1.27845
-1.02704
-1.0805
-0.964477
-1.28381
-1.02335
-1.09018
-1.36733
-1.04596
-1.06101
-1.3499
-1.46532
-1.20606
-1.64834
-1.17641
-1.6748
-1.18689
-1.44054
-1.27033
-0.969094
-0.997826
-1.09773
-1.00845
-1.10345
-1.2581
-0.743952
-0.688072
-0.718588
-0.725773
-0.709608
-0.724401
-0.743
)
;

boundaryField
{
    inlet
    {
        type            zeroGradient;
    }
    outlet
    {
        type            fixedValue;
        value           uniform 0;
    }
    up
    {
        type            zeroGradient;
    }
    down
    {
        type            zeroGradient;
    }
    frontAndBack
    {
        type            zeroGradient;
    }
    cylinder
    {
        type            zeroGradient;
    }
}


// ************************************************************************* //
