/*--------------------------------*- C++ -*----------------------------------*\
  =========                 |
  \\      /  F ield         | OpenFOAM: The Open Source CFD Toolbox
   \\    /   O peration     | Website:  https://openfoam.org
    \\  /    A nd           | Version:  8
     \\/     M anipulation  |
\*---------------------------------------------------------------------------*/
FoamFile
{
    version     2.0;
    format      ascii;
    class       surfaceScalarField;
    location    "83";
    object      phi;
}
// * * * * * * * * * * * * * * * * * * * * * * * * * * * * * * * * * * * * * //

dimensions      [0 3 -1 0 0 0 0];

internalField   nonuniform List<scalar> 
7966
(
0.0134998
-0.000177116
1.06895e-05
0.0136051
-8.23397e-05
-2.30416e-05
0.013987
-0.000407638
2.57875e-05
0.0142019
-0.00020046
-1.44e-05
0.0141122
7.28277e-05
1.68286e-05
0.0140488
8.69674e-05
-2.35512e-05
0.0139682
7.03685e-05
1.02024e-05
0.0136525
0.000297998
1.76664e-05
0.0131756
0.000511899
-3.49161e-05
0.0128732
0.00021937
8.29991e-05
0.0123712
0.000593987
-9.19845e-05
0.0123353
-5.5215e-05
9.11041e-05
0.0126422
-0.000425088
0.000118147
0.0124994
0.000149171
-6.32787e-06
0.0126676
-0.00028792
0.000119735
0.0128223
-0.000221977
6.72628e-05
0.0127137
0.000128447
-1.98126e-05
0.0128371
-0.000162602
3.92e-05
0.0128048
-1.93276e-05
5.15525e-05
0.000116035
1.2858e-05
0.0134686
-0.000348571
3.62351e-05
0.0136423
-0.000188643
-6.74226e-05
0.0141372
-0.000954274
5.16833e-05
0.0143271
-0.000400673
1.0399e-05
0.0143081
8.14018e-05
1.03496e-05
0.0142387
0.00016414
-7.69542e-06
0.0141533
0.000135741
1.99422e-05
0.0138012
0.00067271
-2.25343e-05
0.0131777
0.00113214
3.22552e-06
0.0127907
0.000532262
7.41033e-05
0.0120635
0.0014904
-0.000169226
0.0121056
-0.000261172
0.000163867
0.0127918
-0.00150438
0.000393092
0.0126665
0.00026872
5.72298e-06
0.0129766
-0.000818085
0.0002201
0.0132223
-0.000647417
0.000179732
0.0130091
0.000346755
-5.14071e-06
0.0128869
-9.01664e-05
4.97568e-05
0.0125845
0.000280655
2.44676e-06
0.000312804
-3.86839e-05
0.0137434
-0.000842973
8.52926e-05
0.0139368
-0.00026406
-0.000117922
0.0144122
-0.0013211
-0.000108599
0.0146771
-0.000773817
0.000108276
0.0144498
0.000153307
0.000155351
0.0146522
4.52198e-05
-8.3456e-05
0.0145512
0.000194197
4.25032e-05
0.0141275
0.00107446
2.19395e-05
0.0135511
0.00180244
-9.39092e-05
0.0133531
0.000378483
0.000351864
0.0125329
0.002387
-7.64709e-05
0.0115279
0.000703543
4.03463e-05
0.0125829
-0.0042687
0.00170925
0.0128388
-0.00115339
0.00116627
0.0126559
-0.0020643
0.0014291
0.0130014
-0.00219252
0.00119963
0.013085
-0.000252007
0.00051514
0.0132042
-0.000270518
6.11726e-05
0.0132865
-0.000176368
0.000374676
0.000283463
0.000158153
0.0137055
-0.00127554
6.23727e-05
0.0142352
-0.00113623
0.000342541
0.0147388
-0.00157756
-0.00024719
0.0152485
-0.000578762
-0.000704752
0.0156433
-0.000120262
-0.000121215
0.0156449
-0.00107246
0.00111607
0.014931
0.000765296
0.00014276
0.0147451
0.00120375
5.6675e-05
0.0142002
0.00168823
0.000659076
0.0132698
0.00147932
-0.000170421
0.0120995
0.00371732
-0.000160012
0.00968612
0.00159742
0.0015195
0.00983118
-0.00823667
0.00382291
0.010887
-0.00417665
0.00196743
0.0118832
-0.00491293
0.00185241
0.0138099
-0.00564729
0.00152805
0.0147913
-0.00215731
0.000923933
0.0141574
-0.000697773
0.0010612
0.0128548
0.000821558
0.000304613
0.00124771
-0.000615174
0.0138512
-0.00131099
-0.000477234
0.0147222
-0.00333342
0.0013262
0.0162196
-0.00328177
0.000206801
0.0164743
0.000590264
-0.00142377
0.0164027
0.00164392
-0.00169256
0.0167118
-0.000524713
-0.000856775
0.0162541
-0.00102496
0.00224788
0.0163194
-0.000854153
0.00199262
0.0155354
0.00248639
-1.41343e-05
0.0142962
0.00071457
0.00200395
0.0125807
0.00554797
-0.000115151
0.00691396
0.00459626
0.0026679
0.00397687
-0.00993072
0.00463114
0.00579246
-0.00787144
0.0018792
0.00774228
-0.0079643
0.00110156
0.010385
-0.00940829
0.00111825
0.0120029
-0.0047212
0.00094602
0.0127892
-0.00124857
-0.000235517
0.0130045
0.000965351
-0.000359042
0.00124743
0.000179
0.013766
-0.00149293
-0.000239492
0.0156735
-0.00516888
-7.20056e-05
0.0179388
-0.00642962
0.000882473
0.0183352
0.000154387
-0.000235606
0.000492191
-0.000620252
0.000403171
0.0185008
0.0013434
-0.00389544
0.00185455
0.000633245
0.0015426
0.0197616
0.000300684
-0.00208622
0.0199832
-0.000123631
-0.00112296
0.0215245
-0.001975
-0.000420471
0.0184843
0.00249834
0.00302833
0.0169945
0.00176739
0.000436912
0.0169545
0.00807872
-0.00249075
0.0098887
0.00582145
0.00584064
0.00392501
-0.00720747
0.00324043
0.00275292
-0.00834614
0.00164679
0.00431124
-0.0097934
0.000270781
0.00861032
-0.0121497
-0.00155762
0.0130672
-0.0067826
-0.00239544
0.016062
-0.0037253
-0.000518113
0.0169159
-0.000830527
0.000941926
0.000815954
0.000512793
0.0132799
-0.00161337
0.00019329
0.0146025
-0.0074613
0.000969868
0.00510698
-0.00399968
-0.000635366
-0.00222234
-0.00366305
-0.00243436
0.00499942
0.00558659
0.00543467
0.00571153
0.000128838
-0.000579003
-0.00568724
0.00516402
0.00149101
0.000375618
0.0240284
-7.16999e-05
-0.000119194
-0.000258447
-8.65726e-05
-6.42676e-05
-0.00524369
-0.00622351
-0.00538793
-0.00627239
0.0240544
0.00294164
-0.00309131
0.0231892
-0.000561239
-0.000548535
0.0189234
0.00513992
0.00162427
0.015589
0.00651112
-0.00140936
0.0124841
0.00812451
0.00305907
0.00913648
0.00624248
0.00292662
0.00547316
-0.00240838
-0.00113577
0.00329269
-0.00469182
-0.00147385
0.00582734
-0.00895023
-0.00337782
0.0100758
-0.0132539
-0.00314426
0.0122671
-0.00844756
-0.000526321
0.0137368
-0.00791197
0.00271697
0.0130596
-0.00120993
0.00105659
0.00269659
-0.000516542
0.0116818
-0.00216391
0.00222515
0.00345316
-0.00319046
0.000100356
0.00149942
0.00374926
0.00235589
-0.000581655
-0.00327655
0.000111104
0.00429877
-0.00422618
-0.000619106
-0.0012916
0.00020979
0.00145798
-0.000392753
1.659e-05
-0.00167636
-0.000227659
0.00175542
6.96331e-05
7.89736e-05
-0.0017289
0.00609612
0.000421529
-0.00156477
-0.00173335
-0.00156015
-7.91945e-05
7.55409e-05
7.65056e-05
-7.50314e-05
0.0172428
0.000654926
0.000138552
-0.00625915
-0.00281095
-0.00641352
-0.00286429
0.00151456
0.000664314
0.00107444
0.0226853
-0.000521956
-0.0054818
0.0272044
0.00554041
-0.00491963
0.022273
0.00861933
0.0028232
0.0168783
0.0110955
0.00242375
0.0166495
0.00946718
-0.00299588
0.0140077
0.000546243
-0.000312877
0.0105299
-0.000963922
-0.000250088
0.00838447
-0.0046757
-0.00212907
0.00970091
-0.0109266
-0.00364372
0.0122019
-0.00867151
-0.00227699
0.0139926
-0.00998397
0.00028128
0.0143198
-0.00222858
0.000691384
0.00353658
0.00010874
0.00280634
-0.00165393
0.00276449
0.00289292
0.00215636
0.00218865
0.00173953
-0.00307826
0.000954609
0.0018836
-0.000471068
0.000752822
-0.00199806
-0.000167291
-0.000193273
0.00174893
0.000250377
-0.000820421
-7.73142e-05
-0.000183479
-6.98975e-05
0.011947
-0.00831002
0.00105408
-0.00226345
-0.000833051
-0.00168237
-0.000434099
0.0141775
-0.00218678
0.00549663
0.0182131
0.00834755
-0.00376381
0.021193
0.0135237
-0.00540816
0.0145224
0.0121697
0.00396808
0.00835989
0.00103468
0.00567404
0.00909237
-0.000737593
-0.000958815
0.0105213
-0.00289455
-0.00321003
0.0117715
-0.00894116
-0.00323572
0.0136844
-0.00595175
-0.00463271
0.0143302
-0.00845973
-0.00216994
0.0135119
-0.00109647
-0.000313847
0.00453761
-0.000533982
0.00249334
-0.00014148
0.00710646
0.000997555
0.00287729
-0.00170109
0.00368832
-0.000782045
0.000851218
-0.000546233
-0.00043156
0.000316871
-0.000603229
0.000573032
0.000292812
-0.000865844
0.00011787
0.000126366
-7.32514e-05
-0.000236345
6.53605e-05
0.00225206
-0.0148383
0.00214686
0.000111373
0.000859754
0.000194203
0.000964089
0.00839162
-0.00640345
-0.00192289
0.0143967
0.00526252
-0.00292005
0.0137844
0.00739189
0.00674417
0.00813741
0.0113273
0.0064894
0.00634426
0.00204404
0.000783792
0.00930304
-0.00128861
-0.00240776
0.0129035
-0.00504608
-0.00144894
0.0128659
-0.0106923
0.00178875
0.0122189
-0.00554583
0.000241065
0.0129023
-0.00802203
-0.00112104
0.014055
-0.00297442
0.000725199
0.00317947
0.00115068
0.00350724
0.00152467
-0.00505029
0.00469593
0.00272116
0.00574582
-0.00155315
0.00212851
0.00193916
0.000355393
7.07211e-05
0.000147472
0.000419139
7.03314e-05
-0.000172892
-6.13602e-06
0.000108696
-0.00271388
-0.0150919
-0.00261525
0.00151213
0.00133174
0.00150391
0.00123491
0.00145928
-0.0091606
-0.00141601
0.00578554
-0.00294776
0.00388402
0.0065548
-0.00201998
0.0086426
0.00717377
0.00447938
0.00622897
0.0107255
0.00114605
-0.00265374
0.0143531
-0.00154254
-0.00337365
0.0166864
-0.00614405
-0.00123536
0.0181386
-0.0122094
6.49536e-05
0.0186314
-0.00678959
0.000750968
0.0171651
-0.00532856
-0.00122717
0.0162731
-0.00132352
-0.000758913
0.00299139
0.000151879
0.00187232
0.00531563
-0.00444379
0.00510017
0.00191583
0.00508326
-0.00416996
0.000853902
0.00315996
0.00202843
-0.000470675
-0.000222506
0.00119112
-0.000497942
-5.55504e-05
3.91332e-05
-0.000347427
-0.000469137
0.000323767
0.000100111
-5.72001e-05
9.85148e-05
0.000166949
3.96843e-05
0.000161155
0.00546821
-0.011818
-0.00353729
-0.000329148
-0.00210733
-0.000548532
-0.00221979
0.00878719
-0.00841283
-0.00406675
0.0099373
-0.00567028
0.0015724
0.00786375
-0.00236183
0.00241541
0.00883525
0.0014151
0.00209277
0.015104
-0.00141624
-0.00370641
0.0206601
-0.00350692
-0.00359175
0.0198825
-0.00550957
0.000143107
0.0168959
-0.0102071
0.000984211
0.017427
-0.00678044
-0.000540265
0.0167049
-0.00455104
-5.54401e-05
0.0143459
0.00180789
-0.000772393
0.00462835
-0.000801533
0.0157656
0.00435
-0.00144357
0.00306066
0.00253891
0.00335462
-0.00156109
-0.00172939
-0.00234176
-0.00146004
0.00453025
0.00393929
0.00543417
-0.00182958
0.00468489
0.00118402
-0.00148553
-0.0016606
-0.00144789
0.000952525
0.000787922
0.00099491
0.000879994
0.000296589
-0.000260029
-3.65599e-05
0.0220287
-0.003583
-0.00419161
0.000936381
0.00129406
0.00103484
0.00133211
-0.00302824
-0.00596415
-0.00352997
-0.00632916
0.0187494
-0.0100852
0.00154652
0.0189783
-0.00278571
-0.00585598
0.0195129
-0.000821371
-0.00538354
0.016375
0.00230893
-0.00153285
0.0175674
0.00272547
-0.0025027
0.0212155
-0.00247682
-0.00258761
0.0216752
-0.00396823
1.67992e-06
0.0178435
-0.00470287
0.00302502
0.0143397
-0.00849538
0.00179205
0.0156239
-0.00807722
1.25693e-05
0.0173496
-0.0069258
0.000649046
0.0166247
0.0022696
0.000263275
0.00580881
-0.000306046
0.014631
0.00194888
0.00112294
0.017777
0.00210083
-0.00270793
0.00558201
0.00248733
0.00389012
-0.00291325
-0.00278888
-0.00246372
-0.00218134
0.00513901
0.00561231
0.00541336
-0.000845306
0.00602915
0.00163821
0.000897086
-0.000725303
-0.000776637
-0.000635187
-6.96205e-05
-0.00623475
0.00624786
0.000320065
-0.000491746
3.0833e-05
1.70418e-05
0.000180325
0.0201069
-0.000675537
-0.0017771
0.00136544
0.000348878
0.00187938
0.000985359
-0.00591879
-0.0056553
-0.00535995
-0.00529927
0.0180186
-0.00105525
-0.000439431
0.0138915
-0.00694096
0.000982849
0.0154952
-0.00313442
-0.00125506
0.0165622
-0.000608586
-0.00127977
0.0168184
0.00136368
0.000689061
0.0209004
0.00169132
-0.00304783
0.0214003
-0.00210917
-0.000867528
0.0175601
-0.00141777
0.0012897
0.0154157
-0.00203101
-0.000527476
0.0148476
-0.00625831
-0.00166895
0.014186
-0.00750465
8.90298e-05
0.0127599
-0.0067027
0.00120297
0.010862
0.00389403
0.000273491
0.00755402
-0.00101442
0.0139054
0.000749981
0.000638055
0.0151122
0.00209462
-0.00120057
0.0174197
0.00195401
-0.00177422
0.0202261
0.00254721
-0.0022671
-0.000976837
-0.000554799
-0.00114707
-0.000407813
0.019374
0.00114142
0.000975949
-0.000604936
-0.00079814
-0.000208186
0.000346062
0.0175393
-0.00058058
0.00173967
0.016733
-0.00118175
0.000932861
0.0137648
-0.00423431
0.000261515
0.0121758
-0.00141849
-0.000126972
0.0139285
-0.000806499
-0.00155469
0.0167746
-4.34724e-05
-0.00143897
0.0184583
0.00202666
-0.00201909
0.0170495
-0.00110361
0.000403284
0.0167941
-0.0013419
0.000179502
0.0188145
-0.00315865
-0.000892735
0.0165338
-0.00450293
0.000525288
0.0121795
-0.00390956
0.000759217
0.00885953
-0.00379919
0.000416469
0.00808867
0.00527122
-0.000606327
0.00722226
-0.000778655
0.0135299
0.000146367
0.000412185
0.0145326
0.00189685
-0.00080486
0.0163637
0.00187766
-0.00175483
0.0175371
0.00157928
-0.000205432
0.0176166
-0.000691298
0.00175327
0.0162979
-0.000370191
0.00110822
0.0150028
0.000742451
-0.00062907
0.0134678
-0.00300314
0.000303801
0.012363
-0.00111343
0.000799797
0.0132354
-0.000800007
-0.000878926
0.015282
-0.000422967
-0.00166703
0.0162223
0.00179897
-0.000712672
0.0151391
-0.000157853
0.000137493
0.0137935
-0.000346091
0.000349792
0.0130899
-0.002942
0.000486885
0.0121258
-0.00382814
0.00028935
0.0106976
-0.00168373
-0.000797693
0.00860899
-7.92962e-05
-0.00163124
0.00838025
0.00736653
-0.00186657
0.0063728
-0.000465865
0.0133751
3.06448e-05
7.59565e-05
0.014187
0.00155813
-0.000473198
0.0149465
0.00127465
-0.000156432
0.0156074
0.000461013
0.000457392
0.015517
-0.000559311
-4.16181e-05
0.015619
-0.000282266
-0.000189933
0.0152327
0.00038508
0.000743646
0.0135095
-0.00133332
5.33696e-05
0.0138088
-0.00127238
-0.000140326
0.0137279
-0.000581616
-0.00013751
0.0133766
6.87112e-05
-0.000140323
0.0147145
0.000675306
-0.000214241
0.0153601
-0.000713513
-8.99384e-05
0.0144396
-4.20676e-05
0.00061649
0.0124989
-0.000900291
-0.000101033
0.0107971
-0.00217699
5.06514e-05
0.00999356
-0.00137485
0.000494647
0.00922604
-5.14757e-06
0.000693374
0.0103318
0.0059967
0.000264064
0.00449496
0.000234935
0.0134172
-4.112e-05
-1.11236e-05
0.0140781
0.0009372
-3.99717e-05
0.0145767
0.000738912
3.71862e-05
0.0148517
0.000220583
-3.45824e-05
0.0147833
-0.000363463
-0.000127447
0.0144966
-8.98477e-05
9.42884e-05
0.014591
0.000106608
0.000184004
0.0140059
-0.000758564
1.03873e-05
0.013345
-0.000684934
7.34684e-05
0.0134144
-0.00043424
-0.000216767
0.013435
1.9399e-05
2.86469e-05
0.013489
0.000334342
0.00028697
0.0132187
-0.000387302
-5.58941e-05
0.0132993
-0.00030719
0.000184568
0.0133811
-0.000871189
-0.000110965
0.0124886
-0.00130962
2.51627e-05
0.0113221
-0.000664613
0.000456248
0.0105655
1.5755e-05
0.000735732
0.0120101
0.00310472
0.00144733
0.00228854
0.00088836
0.0132962
-1.92071e-06
-2.08777e-06
0.0138234
0.000420346
-1.03605e-05
0.014199
0.000333858
2.94601e-05
0.0144092
0.00010218
-9.17187e-05
0.0141493
-0.000149912
4.63544e-05
0.0141111
-7.47065e-05
2.29918e-05
0.0141786
5.08972e-05
-1.17915e-05
0.0136852
-0.000360161
9.5037e-05
0.0134057
-0.000375136
-3.03237e-05
0.0131248
-0.00020935
5.59695e-05
0.0131487
-3.70445e-05
3.25935e-05
0.0133725
0.000114812
-4.25951e-06
0.0132014
-0.000212068
-4.16078e-06
0.0129236
-0.000106866
7.74814e-05
0.0123391
-0.000341058
5.44083e-05
0.0117148
-0.00058536
-9.99819e-05
0.0113609
-0.000278385
-3.23372e-05
0.0112668
-3.4117e-05
0.000143998
0.0124815
0.00116099
0.000729034
0.000912695
0.000428236
0.0133324
-9.51518e-07
0.0137673
-1.45616e-05
0.0140787
2.24171e-05
0.014218
-3.7145e-05
0.0140453
2.2861e-05
0.0139719
-1.33595e-06
0.0140145
8.34717e-06
0.0136361
1.81943e-05
0.013283
-2.20038e-05
0.013068
5.59573e-06
0.0130206
1.03563e-05
0.0131505
-1.51118e-05
0.0129344
4.05271e-06
0.0128063
2.12386e-05
0.0124959
-3.06169e-05
0.0119301
-1.96044e-05
0.0116133
3.8452e-05
0.0115176
6.1581e-05
0.0124554
0.000223177
0.000126036
0.0134997
-0.00016519
9.54754e-06
0.0136063
-0.000109674
-1.99704e-05
0.0139846
-0.000377156
2.45494e-05
0.0142016
-0.000217028
-1.4328e-05
0.0141115
9.48637e-05
1.20824e-05
0.014049
6.49613e-05
-2.60098e-05
0.0139705
8.09209e-05
7.75939e-06
0.0136508
0.000321005
1.63684e-05
0.0131806
0.000469345
-3.40273e-05
0.0128701
0.000318551
7.49239e-05
0.0123761
0.000488569
-8.65598e-05
0.0123484
3.5049e-05
8.37606e-05
0.0126346
-0.000259863
9.17533e-05
0.0125035
0.000142667
-1.78682e-05
0.0126705
-0.000142704
9.54834e-05
0.0128125
-0.000124643
4.99197e-05
0.0127117
0.000108372
-2.7466e-05
0.0128438
-0.000125504
3.26034e-05
0.0128084
4.00122e-05
4.69873e-05
0.00013402
9.45401e-06
0.0134701
-0.000297211
3.14684e-05
0.0136499
-0.000296196
-6.06815e-05
0.01413
-0.000859138
5.35914e-05
0.014321
-0.000403262
5.6388e-06
0.0143107
0.000115314
1.45898e-07
0.01424
0.000145846
-1.78533e-05
0.0141599
0.000183298
-2.38981e-06
0.0137861
0.000710834
-3.85278e-05
0.0131917
0.00106169
5.24122e-06
0.0127935
0.000719645
7.12133e-05
0.0120705
0.00121488
-0.000172453
0.0121782
-7.12638e-05
0.000162457
0.012792
-0.000756267
0.00027567
0.0126607
0.00034452
-6.48097e-05
0.0129931
-0.000391224
0.000136231
0.0132154
-0.00027734
0.000110119
0.0130129
0.000330499
-2.48154e-05
0.0129104
-7.04591e-06
3.38091e-05
0.0126101
0.000361434
-1.86711e-05
0.000303607
-4.66307e-05
0.0137702
-0.000721584
7.34093e-05
0.0139849
-0.000514204
-0.000114569
0.0143498
-0.00125531
-7.73785e-05
0.0146476
-0.00072444
0.000131704
0.0144561
0.000352781
0.000109411
0.0146369
8.6905e-05
-0.000205331
0.0145902
0.000239563
3.29389e-05
0.0141257
0.0011679
2.94008e-05
0.0135767
0.00165139
-0.000134699
0.0133343
0.0010607
0.000253246
0.0125004
0.00201525
-4.296e-05
0.0119515
0.000457247
6.07289e-05
0.0130096
-0.001204
0.00109888
0.0129784
0.00065651
0.000885481
0.0126594
0.000316035
0.0010409
0.0128405
-7.04439e-05
0.000811653
0.0129363
0.000487143
0.000262683
0.0131656
-0.000154456
-2.06854e-05
0.0132796
0.000227762
0.000394323
0.000462504
0.000129
0.0137476
-0.00112932
5.78307e-05
0.0143442
-0.000993674
0.000225392
0.0147665
-0.00180242
-0.000122384
0.0151479
-0.00124997
-0.00056057
0.0155436
-6.13113e-05
-0.000102863
0.015754
4.63558e-05
0.000946267
0.0150544
0.00141776
-0.000335869
0.0145912
0.00204808
-0.000360327
0.0142273
0.00201116
0.000663266
0.0132328
0.00199087
-0.000106186
0.0115106
0.00390403
-0.000326539
0.0111307
0.00138998
0.000966637
0.01284
-0.00179804
0.00270769
0.0130638
0.00113976
0.00126034
0.0133124
0.000907687
0.00101216
0.0141816
-0.00049348
0.00108192
0.0145901
0.000195438
0.000807132
0.014279
0.000331903
0.000885919
0.0133087
0.00136416
0.000138584
0.000927336
-0.000669289
0.0137337
-0.00157216
-0.000429599
0.0144627
-0.00132382
0.000927306
0.0165438
-0.0037946
0.000117922
0.0171392
-0.00271829
-0.000550843
0.0164404
-0.000260713
-0.000794431
0.0156556
0.00078165
-0.000807276
0.0153775
0.00247666
0.00146711
0.015574
0.00216747
0.00167668
0.0145634
0.00324315
-0.000235498
0.0138502
0.00363911
0.00106893
0.0128482
0.00478616
4.71709e-06
0.0105428
0.00410582
0.00225743
0.00988446
-0.000152008
0.00364348
0.0113696
0.000489954
0.00104382
0.0123486
-0.000137818
0.00116814
0.0131253
-0.00200902
0.00185707
0.013384
-0.000205655
0.00108844
0.012943
0.000829615
-0.00029225
0.0122991
0.00207746
-0.000428473
0.00140868
5.10792e-05
0.0138635
-0.0022844
-4.63464e-05
0.0144619
-0.00125374
-0.000740425
0.0182322
-0.00612923
-0.000553212
0.020844
-0.00155437
7.78329e-06
-0.000887333
-0.00174202
-0.00138975
0.0192938
-0.000772425
-0.000251816
7.674e-05
-0.00123559
-0.000422873
0.0189796
0.000325462
-0.00131581
0.0182965
0.00273349
-0.000696721
0.0184722
0.00185251
-0.00028116
0.0187878
0.00517288
0.000782942
0.0168508
0.00559209
0.000420932
0.0149629
0.00557684
-0.00139351
0.0114547
0.00947739
0.00397727
0.00865226
0.00249808
0.00339278
0.00956335
-0.00178331
0.00300897
0.0104945
-0.00262411
0.00182591
0.0123819
-0.00458023
-0.000873798
0.0139812
-0.00172204
-0.00247833
0.0156387
-0.00153986
0.000193843
0.0167196
0.000588983
0.0013495
0.00157019
0.000326605
0.0140236
-0.0024453
-0.000316461
0.015022
-0.0020397
0.00075743
0.00526204
-0.00304845
-0.00142734
-0.00232119
-0.00347758
-0.00263345
0.00544701
0.0051234
0.00533299
0.000432576
0.00569535
-0.00203941
-0.000380844
-0.000597509
-0.00602735
0.00623273
-0.000330013
-5.02903e-05
0.0220372
-6.01425e-05
0.0030318
0.000122057
-3.11534e-05
0.00042698
-0.0060616
-0.00662814
-0.00623365
-0.00639706
0.0203315
0.0036636
-0.00231571
0.0208574
0.00283284
-0.00205483
0.0153869
0.00862529
0.00364239
0.0110589
0.00893757
-0.000426866
0.0119585
0.00860851
-0.000872155
0.0109555
0.0117503
0.00165663
0.00841859
0.00248425
0.00141501
0.00727913
-0.00217404
5.63372e-05
0.00846746
-0.00427643
-0.00291382
0.0116432
-0.00767318
-0.00322707
0.0130839
-0.00351223
-0.000176839
0.0151391
-0.00361405
0.00273601
0.0147657
0.000958467
0.00106054
0.00297418
-6.08617e-05
0.0149347
-0.00349922
0.00170137
0.00471526
-0.00263414
0.000338662
0.003774
0.00438383
0.00398854
0.000761435
-0.00266103
0.000328822
0.00152317
0.00478253
-0.00298346
-0.00165544
2.74007e-05
-0.0013554
0.000659495
0.00156071
-0.000803049
-8.91589e-05
-0.000332244
-0.00169733
4.04394e-05
0.0017589
-0.000171916
0.000402149
-0.000607973
-0.00169812
0.00610423
0.000266488
-0.00134504
-0.00168187
-0.00130846
5.68e-06
8.90216e-05
1.61167e-05
9.9772e-05
0.0198511
0.000619443
-0.000642549
-0.00640815
-0.00249054
-0.00648095
-0.00209591
0.000831295
0.000168931
0.000449519
0.0210653
-0.00178932
-0.00207391
0.0211423
0.00629938
-0.00267067
0.0201889
0.0117847
0.000929453
0.0164936
0.0111014
0.00362611
0.0156728
0.0101909
-0.000615708
0.0163883
0.00380138
-0.00234553
0.0128615
0.00206522
-0.000962552
0.00946341
-0.00142703
-0.00158034
0.010935
-0.00960863
-0.00317985
0.0129587
-0.00650189
-0.00131104
0.0150741
-0.00601031
0.000562142
0.01623
-0.000340406
0.000834333
0.00357971
0.00037431
0.00329298
-0.00204913
0.00396386
0.00155303
0.00420466
0.00161848
-0.00176542
0.00344233
-0.00285084
0.00183276
0.00033354
0.0011112
-0.00137937
0.00149702
-0.00136497
-0.000197426
0.0012541
-6.01965e-05
0.000971224
-0.000127785
-0.00139746
-1.02106e-05
-1.14096e-06
-9.08312e-06
0.00963789
-0.0106698
0.00141908
-0.000843451
9.15262e-05
-0.000364154
-6.35695e-06
0.0173182
0.000462676
0.00365305
0.017253
0.00974666
-0.00166054
0.0167809
0.00937821
-0.00321286
0.0187615
0.0131589
-0.000980504
0.0173367
0.00797685
0.00292344
0.0132324
0.00339459
0.00181606
0.0113421
-0.000804372
-0.00194234
0.0128661
-0.0103483
-0.00402006
0.015239
-0.00865451
-0.004853
0.0159324
-0.00695123
-0.00192244
0.0151536
0.000833239
-0.00070871
0.00463557
-0.000964756
0.00464153
0.00223209
0.00328078
0.0001615
0.00645926
0.0015679
0.000121671
0.00291511
-0.00124286
-0.000761464
0.000709112
0.00114738
0.000629911
0.00112267
0.0009997
0.000555501
-0.000688015
-0.000867186
-0.000236469
0.000165509
0.000115475
-6.55306e-05
-0.000235367
0.000256383
0.00218201
-0.0126733
-0.000893593
0.000271922
0.00128086
0.000120849
0.00118832
0.00741236
-0.00356101
-0.00312956
0.0103962
0.0055309
-0.0016881
0.0169706
0.00667583
0.00287207
0.0164334
0.0159573
0.00422829
0.0107431
0.00947133
0.00497957
0.010204
0.00209243
-0.000566498
0.0135359
-0.00273498
-0.00285024
0.0143198
-0.00978927
0.000445809
0.0131853
-0.0068081
-0.000470779
0.0130051
-0.00647273
-0.00141942
0.013746
0.000204662
0.000612908
0.00459913
0.00101807
0.00234605
0.00159053
-0.00523819
0.00592521
0.00219178
0.00365213
-0.00390142
-9.33207e-05
0.000836106
0.0055885
-7.97094e-06
-2.40424e-05
-2.30049e-05
-2.87946e-05
-0.000406142
3.96673e-05
-0.000129249
2.06633e-05
0.000475061
-0.0022015
-0.0127214
-0.00342882
0.001163
0.00082472
0.000770484
0.000304954
0.000156967
-0.00408045
-0.00325504
0.005552
0.00138781
0.00263207
0.010169
0.00259689
0.00810458
0.00980696
0.0140606
0.00848761
0.00895648
0.00806625
-0.000398177
0.0114193
0.00104211
-0.00478618
0.0149473
-0.00544191
-0.00205642
0.0179285
-0.0125227
-0.000182804
0.0180277
-0.00692715
0.000770798
0.0166427
-0.00545972
-0.000855159
0.0169076
-2.4444e-05
-0.000794681
0.00405634
0.000168464
0.0016489
0.000782708
-0.001979
0.00437817
0.00196262
0.00367197
-0.00120877
-0.00294609
0.00260793
0.0039688
-0.000772966
0.000334632
-0.000530495
-0.000918645
0.00116065
-4.61429e-05
-0.000658945
-0.000175603
-2.41959e-05
0.00028421
-1.26211e-05
0.000913902
-5.58715e-05
-0.000189088
-8.00569e-05
3.30397e-05
-3.46116e-05
-1.59067e-07
0.00420358
-0.0119717
-0.00145828
-0.00100478
-0.00241946
-0.00115606
-0.00245195
0.00347582
-0.00564673
-0.00177271
0.00602538
-0.00257636
0.00298701
0.0048191
0.00030197
0.00591661
0.00666986
0.00931696
0.0049857
0.0133446
0.00258645
-0.0049014
0.0179419
-0.00282334
-0.00432353
0.0175481
-0.00581007
0.000905018
0.0160871
-0.0111997
0.00112217
0.0168062
-0.00727815
-0.000908313
0.016308
-0.00533812
0.00032112
0.0147713
0.00117818
-0.00043824
0.00470015
-0.00082617
0.0149017
0.000980869
-0.00318639
0.00376927
0.00465344
0.00367181
-0.00309805
-0.00108653
-0.00333835
-0.000783783
0.00541085
0.00356588
0.00549177
-0.00214893
-0.000974974
0.00271744
0.00210634
-0.00107191
-0.000904911
-0.00104728
0.00114833
0.00139925
0.00114912
0.00139679
-9.25929e-05
0.000481446
-0.000577539
0.000188686
0.0226322
-0.00578347
-0.00266915
0.00085181
0.00127192
0.000638299
0.00118774
-0.00427712
-0.00662964
-0.00453954
-0.00687465
0.0212378
-0.0106676
0.00163684
0.0193613
-0.0037884
-0.00583781
0.0162539
-0.000114173
-0.00473832
0.0112491
0.00318946
0.000584426
0.0126058
0.00573753
-0.000279945
0.018116
-0.00252525
-0.00298614
0.0204229
-0.00477551
-0.000353087
0.0188468
-0.00397009
0.00276116
0.0158533
-0.00837028
0.00195625
0.0169614
-0.00816348
-0.000210259
0.0192997
-0.0072196
0.000192207
0.0185205
0.00194109
0.0002796
0.00606579
-0.000290365
0.0139711
0.000750668
0.000735012
0.0161358
0.00328368
-0.00350282
0.00554836
0.0066437
0.00188289
-0.00291514
-0.00249581
-0.00296191
-0.00229991
0.00549188
0.00559526
0.00553658
-0.000737792
-0.000850711
0.00655218
0.00227349
0.000149081
-0.000527648
-0.00076255
-0.000547691
0.000148515
0.00045389
-0.00707076
0.00648669
-0.000296593
-0.000555913
0.000334655
0.000160983
0.00033853
0.0190296
-0.00456547
-0.0025566
0.00231126
0.00194253
0.00229336
0.00194318
-0.00576039
-0.00542724
-0.00582248
-0.00516487
0.0177133
-0.00402107
-0.000885472
0.013821
-0.00673141
0.000938863
0.0139355
-0.00194149
-0.00321639
0.0144923
0.00147448
-0.00342526
0.0158261
0.00347791
-0.000933149
0.0199122
0.00316407
-0.00456054
0.0197214
-0.00235128
-0.000850615
0.0170073
-0.00268358
0.00191186
0.0158814
-0.00246413
-0.000907581
0.0148751
-0.00676445
-0.00226849
0.014577
-0.00789251
0.000116167
0.0137152
-0.00644016
0.00128536
0.0114179
0.00440856
0.000103345
0.00723039
-0.00114839
0.0135211
0.000313867
0.000898225
0.0151733
0.00295718
-0.00252625
0.0183086
0.0039945
-0.00226031
0.0203894
0.00224089
-0.00112773
-0.00174001
-0.000917416
-0.00180075
-0.00100292
0.0195086
-0.00105876
0.000939678
3.79989e-05
0.000850737
-0.000147591
0.00123469
0.0175516
-0.00208203
0.00121327
0.016278
-0.00172831
-8.63661e-05
0.0142731
-0.00438531
-7.96094e-05
0.0133109
-0.00130701
0.000200723
0.0148833
-1.78861e-05
-0.00163476
0.017421
0.000779456
-0.00127819
0.0181184
0.00212498
-0.00167736
0.0167478
-0.000921265
0.000343876
0.0164107
-0.00225389
8.68819e-05
0.0170352
-0.00321295
-0.000768424
0.0143916
-0.00415976
0.000564245
0.0107923
-0.00409883
0.000564776
0.00842534
-0.00360422
-5.24956e-05
0.00810931
0.00502321
-0.00090495
0.00605034
-0.00077587
0.0134823
3.77756e-05
0.000544444
0.0147304
0.00225692
-0.0013527
0.016446
0.002255
-0.00173095
0.0172774
0.00134041
-0.000136311
0.0174879
-0.00109034
0.00157433
0.0163466
-0.000562282
0.000729736
0.0147197
-0.000181735
-0.00054876
0.0133378
-0.00310059
0.000401033
0.0131731
-0.00105852
0.000715938
0.0138514
-0.000580024
-0.000994997
0.0150463
-0.00046347
-0.00161907
0.0157804
0.00145261
-0.000774404
0.015027
-9.094e-05
6.0547e-05
0.0140119
-0.00118441
0.000295463
0.0134701
-0.00257026
0.000385925
0.0126008
-0.00351648
0.000515425
0.0107878
-0.00259065
-0.000492928
0.0085843
-0.00126777
-0.00176414
0.00883475
0.00508236
-0.00217617
0.00463221
-0.000554978
0.0133285
2.7847e-05
9.26915e-05
0.0140937
0.00158327
-0.00056472
0.0150274
0.00129169
-0.000126789
0.0157902
0.000633222
0.000401701
0.0154862
-0.000640826
-0.000187097
0.0154266
-0.000464261
-0.000228383
0.015216
0.000174371
0.00059819
0.0136008
-0.00142378
-8.29167e-06
0.0138267
-0.00127683
-0.000147895
0.013803
-0.000493737
-0.000200045
0.0134538
-3.5217e-05
-0.000219452
0.0145051
0.000378876
-0.000191811
0.0150664
-0.000650996
-9.11068e-05
0.014352
-0.000384037
0.000530451
0.0127283
-0.000823875
-0.00022365
0.011294
-0.00199806
-3.34727e-05
0.0103466
-0.00178627
0.000637645
0.00964498
-0.000751379
0.000878594
0.0109111
0.00367162
0.000408713
0.00299376
0.000307519
0.0133943
-3.70113e-05
-6.6156e-06
0.0140364
0.00095333
-5.21258e-05
0.0146272
0.000700285
3.78223e-05
0.0149249
0.000351907
-5.09469e-05
0.0147533
-0.000457518
-0.000139142
0.0144234
-0.000110072
7.0014e-05
0.0145235
9.18368e-05
0.000166382
0.0139782
-0.000881913
1.3839e-05
0.0133349
-0.000615078
5.50356e-05
0.0133529
-0.00051761
-0.000210898
0.0133765
-3.34273e-05
3.19861e-06
0.0134442
0.000352981
0.000245215
0.0132126
-0.000387628
-8.76722e-05
0.0132368
-0.00042253
0.000198816
0.0132408
-0.000878874
-5.99084e-05
0.0124625
-0.0011752
-1.9389e-05
0.0114045
-0.000684447
0.000412347
0.0107955
-0.000200869
0.000794304
0.012241
0.00204259
0.00163082
0.00167079
0.000996855
0.0132961
5.46331e-08
-1.95018e-06
0.0138171
0.000433824
-1.18693e-05
0.0142069
0.000310339
2.96207e-05
0.0144177
0.000142178
-9.27884e-05
0.014138
-0.000175588
4.41553e-05
0.0141083
-7.53994e-05
1.80313e-05
0.0141698
4.0753e-05
-2.22751e-05
0.0136723
-0.000381059
9.17698e-05
0.0134089
-0.000350718
-3.13513e-05
0.0131162
-0.000215918
4.69894e-05
0.0131363
-5.15743e-05
3.06436e-05
0.0133683
0.000129421
-1.26555e-05
0.013193
-0.000217256
7.27734e-07
0.0129241
-0.000132934
5.6796e-05
0.012352
-0.000307662
5.5285e-05
0.0117283
-0.000562427
-8.90998e-05
0.0113876
-0.000319456
-5.65752e-05
0.0113217
-9.85345e-05
0.000107534
0.0124996
0.000904676
0.000689039
0.000771877
0.000408729
0.0133331
-7.15923e-07
0.0137675
-1.50741e-05
0.0140773
2.29711e-05
0.0142201
-3.77709e-05
0.0140449
2.24344e-05
0.0139722
-3.99022e-06
0.014015
6.29191e-06
0.013634
1.80611e-05
0.0132841
-2.27377e-05
0.0130688
4.95597e-06
0.0130194
8.16333e-06
0.0131523
-1.85526e-05
0.0129347
4.38768e-06
0.0128038
1.92075e-05
0.0124965
-3.10515e-05
0.0119333
-1.88418e-05
0.0116182
3.41075e-05
0.0115267
5.45621e-05
0.0124517
0.000202899
0.000115591
0.0135004
-0.000157478
0.0136079
-0.000127519
0.0139831
-0.000350653
0.0142019
-0.000233112
0.0141101
0.00010391
0.0140486
3.54573e-05
0.0139718
8.45399e-05
0.0136489
0.000339267
0.0131836