0 	0 	0 	0
1.57135 	-0.00122844 	-0.00602127 	0
3.1427 	-0.0332743 	0.0333367 	0
4.71405 	-0.0543144 	0.0887162 	0
6.28539 	-0.026989 	0.0943681 	0
7.85674 	0.0185405 	0.0440354 	0
9.42809 	0.050139 	-0.00351135 	0
10.9994 	0.0490772 	-0.0321374 	0
12.5708 	0.114235 	-0.102151 	0
14.1421 	0.5 	0 	0
