/*--------------------------------*- C++ -*----------------------------------*\
  =========                 |
  \\      /  F ield         | OpenFOAM: The Open Source CFD Toolbox
   \\    /   O peration     | Website:  https://openfoam.org
    \\  /    A nd           | Version:  8
     \\/     M anipulation  |
\*---------------------------------------------------------------------------*/
FoamFile
{
    version     2.0;
    format      ascii;
    class       volScalarField;
    location    "0.125";
    object      T;
}
// * * * * * * * * * * * * * * * * * * * * * * * * * * * * * * * * * * * * * //

dimensions      [0 0 0 1 0 0 0];

internalField   nonuniform List<scalar> 
100
(
49.3198
9.53608
0.239627
-0.572692
-0.25112
-0.0695487
-0.0150526
-0.00273593
-0.000433931
-5.49509e-05
92.5376
47.9898
17.844
5.17273
1.22951
0.247882
0.0434323
0.00673551
0.000939012
0.000107523
106.846
70.2883
30.8818
10.1349
2.65776
0.581631
0.109447
0.018098
0.00267772
0.000322724
110.62
78.6313
36.4178
12.4132
3.3515
0.751032
0.144192
0.0242667
0.00364793
0.000445546
111.445
80.9952
38.1221
13.1525
3.58561
0.810023
0.156615
0.0265239
0.00401037
0.00049222
111.598
81.5399
38.5396
13.341
3.64713
0.825918
0.160036
0.0271573
0.00411386
0.000505742
111.623
81.6462
38.6253
13.381
3.66053
0.829456
0.160812
0.0273037
0.00413819
0.000508966
111.626
81.6643
38.6401
13.3879
3.66284
0.830062
0.160944
0.0273281
0.00414215
0.00050948
111.627
81.6673
38.6439
13.3904
3.66393
0.83042
0.161038
0.0273491
0.00414618
0.000510086
111.627
81.667
38.64
13.3867
3.66199
0.829714
0.16084
0.0273031
0.00413711
0.00050867
)
;

boundaryField
{
    left
    {
        type            fixedValue;
        value           uniform 100;
    }
    right
    {
        type            zeroGradient;
    }
    up
    {
        type            zeroGradient;
    }
    down
    {
        type            fixedValue;
        value           uniform 0;
    }
    frontAndBack
    {
        type            empty;
    }
}


// ************************************************************************* //
