/*--------------------------------*- C++ -*----------------------------------*\
  =========                 |
  \\      /  F ield         | OpenFOAM: The Open Source CFD Toolbox
   \\    /   O peration     | Website:  https://openfoam.org
    \\  /    A nd           | Version:  8
     \\/     M anipulation  |
\*---------------------------------------------------------------------------*/
FoamFile
{
    version     2.0;
    format      ascii;
    class       volScalarField;
    location    "20";
    object      p;
}
// * * * * * * * * * * * * * * * * * * * * * * * * * * * * * * * * * * * * * //

dimensions      [0 2 -2 0 0 0 0];

internalField   nonuniform List<scalar> 
46400
(
1.52695e-07
1.74266e-07
1.68211e-07
1.70363e-07
2.16522e-07
3.20193e-07
4.83929e-07
7.07221e-07
9.89416e-07
1.33019e-06
1.72941e-06
2.18699e-06
2.70296e-06
3.2774e-06
3.91048e-06
4.60229e-06
5.35294e-06
6.16256e-06
7.03125e-06
7.95913e-06
8.94627e-06
9.9927e-06
1.10985e-05
1.22636e-05
1.34881e-05
1.47721e-05
1.61157e-05
1.7519e-05
1.89819e-05
2.05045e-05
2.20868e-05
2.37286e-05
2.543e-05
2.71911e-05
2.90118e-05
3.08922e-05
3.28322e-05
3.48318e-05
3.68909e-05
3.90095e-05
4.11876e-05
4.34251e-05
4.57221e-05
4.80785e-05
5.04942e-05
5.29692e-05
5.55033e-05
5.80966e-05
6.0749e-05
6.34602e-05
6.62302e-05
6.9059e-05
7.19463e-05
7.48922e-05
7.78965e-05
8.09589e-05
8.40794e-05
8.72576e-05
9.04935e-05
9.37869e-05
9.71376e-05
0.000100546
0.00010401
0.000107532
0.00011111
0.000114743
0.000118433
0.000122178
0.000125977
0.000129832
0.000133741
0.000137705
0.000141722
0.000145793
0.000149917
0.000154094
0.000158323
0.000162604
0.000166937
0.000171321
0.000175756
0.000180242
0.000184777
0.000189361
0.000193994
0.000198676
0.000203406
0.000208183
0.000213007
0.000217878
0.000222794
0.000227757
0.000232764
0.000237816
0.000242912
0.000248052
0.000253235
0.000258461
0.00026373
0.000269041
0.000274394
0.000279789
0.000285225
0.000290702
0.00029622
0.000301778
0.000307377
0.000313014
0.00031869
0.000324401
0.000330144
0.000335911
0.000341687
0.000347444
0.000353131
0.000358672
0.000363986
0.000369016
0.000373735
0.000380326
4.16797e-07
3.56499e-07
3.50789e-07
3.73152e-07
4.35523e-07
5.48834e-07
7.17366e-07
9.42605e-07
1.22521e-06
1.56561e-06
1.96416e-06
2.42106e-06
2.93641e-06
3.51029e-06
4.14281e-06
4.83408e-06
5.58421e-06
6.39325e-06
7.26131e-06
8.18848e-06
9.17486e-06
1.02206e-05
1.13256e-05
1.249e-05
1.37138e-05
1.49971e-05
1.63399e-05
1.77422e-05
1.92041e-05
2.07257e-05
2.2307e-05
2.39479e-05
2.56483e-05
2.74083e-05
2.92278e-05
3.1107e-05
3.30458e-05
3.50442e-05
3.71021e-05
3.92194e-05
4.13962e-05
4.36324e-05
4.59279e-05
4.82828e-05
5.06971e-05
5.31706e-05
5.57033e-05
5.8295e-05
6.09456e-05
6.36552e-05
6.64236e-05
6.92506e-05
7.21363e-05
7.50805e-05
7.80829e-05
8.11435e-05
8.42621e-05
8.74384e-05
9.06724e-05
9.39638e-05
9.73126e-05
0.000100719
0.000104181
0.000107701
0.000111276
0.000114908
0.000118595
0.000122338
0.000126135
0.000129988
0.000133895
0.000137856
0.000141871
0.00014594
0.000150061
0.000154236
0.000158463
0.000162742
0.000167073
0.000171455
0.000175888
0.000180371
0.000184904
0.000189486
0.000194117
0.000198797
0.000203525
0.0002083
0.000213122
0.000217991
0.000222907
0.000227868
0.000232874
0.000237925
0.00024302
0.00024816
0.000253343
0.00025857
0.000263839
0.000269152
0.000274507
0.000279905
0.000285345
0.000290828
0.000296353
0.00030192
0.000307529
0.000313181
0.000318875
0.000324611
0.000330387
0.000336202
0.000342053
0.000347938
0.000353858
0.000359839
0.000365965
0.000372404
0.000379499
0.000389095
6.11761e-07
4.86814e-07
4.57719e-07
4.73823e-07
5.35091e-07
6.48462e-07
8.16967e-07
1.04198e-06
1.32425e-06
1.66423e-06
2.06224e-06
2.51854e-06
3.03329e-06
3.60658e-06
4.23851e-06
4.9292e-06
5.67877e-06
6.48731e-06
7.35488e-06
8.28155e-06
9.26737e-06
1.03124e-05
1.14168e-05
1.25806e-05
1.38039e-05
1.50866e-05
1.64288e-05
1.78305e-05
1.92917e-05
2.08125e-05
2.2393e-05
2.4033e-05
2.57327e-05
2.7492e-05
2.93108e-05
3.11892e-05
3.31271e-05
3.51246e-05
3.71816e-05
3.92981e-05
4.1474e-05
4.37092e-05
4.60038e-05
4.83577e-05
5.0771e-05
5.32434e-05
5.57751e-05
5.83657e-05
6.10154e-05
6.37239e-05
6.64912e-05
6.93172e-05
7.22018e-05
7.51449e-05
7.81462e-05
8.12057e-05
8.43231e-05
8.74983e-05
9.07311e-05
9.40215e-05
9.73691e-05
0.000100774
0.000104235
0.000107754
0.000111328
0.000114958
0.000118644
0.000122386
0.000126182
0.000130033
0.000133939
0.000137899
0.000141913
0.00014598
0.000150101
0.000154275
0.0001585
0.000162779
0.000167108
0.000171489
0.000175921
0.000180403
0.000184935
0.000189516
0.000194146
0.000198825
0.000203552
0.000208327
0.000213148
0.000218017
0.000222932
0.000227892
0.000232898
0.000237949
0.000243044
0.000248184
0.000253368
0.000258596
0.000263866
0.000269181
0.000274538
0.000279938
0.000285382
0.000290868
0.000296398
0.000301972
0.000307591
0.000313254
0.000318963
0.000324719
0.000330523
0.000336378
0.000342288
0.000348262
0.000354319
0.000360506
0.000366924
0.000373749
0.000381347
0.000390784
7.40942e-07
5.68926e-07
5.18355e-07
5.23754e-07
5.7971e-07
6.90435e-07
8.57317e-07
1.08108e-06
1.36234e-06
1.70147e-06
2.09871e-06
2.55427e-06
3.06831e-06
3.64093e-06
4.27223e-06
4.96228e-06
5.71119e-06
6.51907e-06
7.38601e-06
8.31208e-06
9.29735e-06
1.03419e-05
1.14457e-05
1.26089e-05
1.38315e-05
1.51135e-05
1.6455e-05
1.78561e-05
1.93166e-05
2.08367e-05
2.24164e-05
2.40557e-05
2.57546e-05
2.75131e-05
2.93312e-05
3.12088e-05
3.3146e-05
3.51426e-05
3.71988e-05
3.93144e-05
4.14894e-05
4.37238e-05
4.60176e-05
4.83706e-05
5.07829e-05
5.32544e-05
5.5785e-05
5.83748e-05
6.10236e-05
6.37312e-05
6.64976e-05
6.93227e-05
7.22064e-05
7.51485e-05
7.81489e-05
8.12074e-05
8.43239e-05
8.74982e-05
9.07302e-05
9.40196e-05
9.73663e-05
0.00010077
0.000104231
0.000107748
0.000111321
0.00011495
0.000118635
0.000122376
0.000126171
0.000130022
0.000133927
0.000137886
0.000141899
0.000145966
0.000150086
0.000154259
0.000158484
0.000162761
0.00016709
0.000171471
0.000175902
0.000180383
0.000184914
0.000189495
0.000194125
0.000198803
0.00020353
0.000208304
0.000213126
0.000217994
0.000222909
0.00022787
0.000232876
0.000237928
0.000243024
0.000248164
0.000253349
0.000258577
0.00026385
0.000269166
0.000274525
0.000279928
0.000285375
0.000290866
0.000296402
0.000301982
0.000307609
0.000313284
0.000319007
0.000324783
0.000330614
0.000336507
0.000342471
0.00034852
0.000354683
0.000361009
0.000367586
0.000374547
0.000382125
0.000390794
7.91562e-07
5.90492e-07
5.24766e-07
5.20357e-07
5.70102e-07
6.77073e-07
8.41513e-07
1.06345e-06
1.34324e-06
1.68115e-06
2.07735e-06
2.53196e-06
3.04512e-06
3.61694e-06
4.2475e-06
4.93686e-06
5.6851e-06
6.49228e-06
7.35851e-06
8.28387e-06
9.26847e-06
1.03124e-05
1.14156e-05
1.25782e-05
1.38002e-05
1.50816e-05
1.64224e-05
1.78227e-05
1.92825e-05
2.08019e-05
2.23809e-05
2.40195e-05
2.57177e-05
2.74754e-05
2.92927e-05
3.11695e-05
3.31059e-05
3.51018e-05
3.71572e-05
3.9272e-05
4.14462e-05
4.36798e-05
4.59727e-05
4.83249e-05
5.07363e-05
5.3207e-05
5.57368e-05
5.83257e-05
6.09737e-05
6.36805e-05
6.64462e-05
6.92705e-05
7.21533e-05
7.50946e-05
7.80942e-05
8.1152e-05
8.42677e-05
8.74413e-05
9.06727e-05
9.39614e-05
9.73074e-05
0.00010071
0.00010417
0.000107686
0.000111259
0.000114888
0.000118572
0.000122312
0.000126107
0.000129956
0.000133861
0.00013782
0.000141832
0.000145899
0.000150019
0.000154191
0.000158416
0.000162693
0.000167022
0.000171402
0.000175833
0.000180314
0.000184845
0.000189426
0.000194056
0.000198734
0.000203461
0.000208236
0.000213058
0.000217927
0.000222842
0.000227803
0.00023281
0.000237862
0.000242959
0.000248101
0.000253287
0.000258517
0.000263791
0.000269109
0.000274471
0.000279877
0.000285327
0.000290823
0.000296363
0.00030195
0.000307585
0.000313269
0.000319006
0.000324798
0.000330652
0.000336575
0.000342579
0.000348681
0.000354909
0.000361307
0.000367941
0.000374896
0.000382293
0.00039029
7.61134e-07
5.43341e-07
4.67606e-07
4.55387e-07
4.99276e-07
6.02153e-07
7.63723e-07
9.83505e-07
1.26155e-06
1.59801e-06
1.99296e-06
2.44647e-06
2.95863e-06
3.52952e-06
4.15923e-06
4.84781e-06
5.59532e-06
6.4018e-06
7.26732e-06
8.19199e-06
9.17589e-06
1.02191e-05
1.13217e-05
1.24837e-05
1.3705e-05
1.49857e-05
1.63259e-05
1.77255e-05
1.91846e-05
2.07033e-05
2.22816e-05
2.39196e-05
2.5617e-05
2.73741e-05
2.91906e-05
3.10667e-05
3.30023e-05
3.49975e-05
3.70522e-05
3.91663e-05
4.13398e-05
4.35727e-05
4.58648e-05
4.82163e-05
5.0627e-05
5.30969e-05
5.5626e-05
5.82142e-05
6.08615e-05
6.35677e-05
6.63327e-05
6.91564e-05
7.20386e-05
7.49793e-05
7.79783e-05
8.10355e-05
8.41508e-05
8.7324e-05
9.05548e-05
9.38431e-05
9.71886e-05
0.000100591
0.00010405
0.000107566
0.000111138
0.000114766
0.00011845
0.00012219
0.000125984
0.000129834
0.000133738
0.000137697
0.00014171
0.000145777
0.000149896
0.000154069
0.000158294
0.000162572
0.000166901
0.000171281
0.000175712
0.000180193
0.000184725
0.000189306
0.000193936
0.000198616
0.000203343
0.000208119
0.000212941
0.000217811
0.000222728
0.00022769
0.000232698
0.000237751
0.000242849
0.000247992
0.00025318
0.000258411
0.000263688
0.000269008
0.000274372
0.000279781
0.000285235
0.000290733
0.000296278
0.00030187
0.000307511
0.000313203
0.000318949
0.000324754
0.000330622
0.000336563
0.000342589
0.000348714
0.000354965
0.000361372
0.000367979
0.000374834
0.000381985
0.000389458
6.52831e-07
4.25857e-07
3.43666e-07
3.25738e-07
3.64815e-07
4.639e-07
6.22566e-07
8.40077e-07
1.11625e-06
1.4511e-06
1.84465e-06
2.29695e-06
2.80803e-06
3.37795e-06
4.00675e-06
4.69449e-06
5.4412e-06
6.24692e-06
7.11173e-06
8.03569e-06
9.0189e-06
1.00614e-05
1.11633e-05
1.23246e-05
1.35453e-05
1.48254e-05
1.61649e-05
1.75638e-05
1.90223e-05
2.05404e-05
2.21181e-05
2.37553e-05
2.54522e-05
2.72085e-05
2.90244e-05
3.08998e-05
3.28347e-05
3.48292e-05
3.68833e-05
3.89968e-05
4.11697e-05
4.34019e-05
4.56934e-05
4.80442e-05
5.04543e-05
5.29236e-05
5.54522e-05
5.80399e-05
6.06866e-05
6.33923e-05
6.61568e-05
6.898e-05
7.18618e-05
7.48021e-05
7.78007e-05
8.08577e-05
8.39727e-05
8.71456e-05
9.03762e-05
9.36642e-05
9.70094e-05
0.000100412
0.000103871
0.000107386
0.000110958
0.000114586
0.00011827
0.00012201
0.000125805
0.000129655
0.000133559
0.000137518
0.000141532
0.000145599
0.000149719
0.000153892
0.000158118
0.000162396
0.000166725
0.000171106
0.000175538
0.00018002
0.000184553
0.000189135
0.000193767
0.000198447
0.000203176
0.000207952
0.000212777
0.000217648
0.000222566
0.000227529
0.000232539
0.000237594
0.000242694
0.000247838
0.000253027
0.000258261
0.000263539
0.000268862
0.000274228
0.00027964
0.000285096
0.000290597
0.000296145
0.000301741
0.000307386
0.000313082
0.000318833
0.000324643
0.000330518
0.000336465
0.000342494
0.000348618
0.000354856
0.000361229
0.00036776
0.000374471
0.000381372
0.00038844
4.70545e-07
2.38713e-07
1.52292e-07
1.30299e-07
1.65693e-07
2.61583e-07
4.17569e-07
6.32861e-07
9.07143e-07
1.24033e-06
1.63241e-06
2.0834e-06
2.59333e-06
3.16224e-06
3.79014e-06
4.47703e-06
5.22293e-06
6.02787e-06
6.89192e-06
7.81515e-06
8.79765e-06
9.8395e-06
1.09407e-05
1.21013e-05
1.33213e-05
1.46007e-05
1.59396e-05
1.73379e-05
1.87958e-05
2.03133e-05
2.18904e-05
2.3527e-05
2.52232e-05
2.69789e-05
2.87942e-05
3.06689e-05
3.26033e-05
3.45972e-05
3.66506e-05
3.87636e-05
4.09359e-05
4.31676e-05
4.54586e-05
4.7809e-05
5.02186e-05
5.26874e-05
5.52156e-05
5.78029e-05
6.04492e-05
6.31545e-05
6.59187e-05
6.87416e-05
7.16232e-05
7.45633e-05
7.75618e-05
8.06186e-05
8.37336e-05
8.69064e-05
9.0137e-05
9.34249e-05
9.67702e-05
0.000100172
0.000103632
0.000107147
0.00011072
0.000114348
0.000118032
0.000121772
0.000125568
0.000129418
0.000133323
0.000137283
0.000141297
0.000145365
0.000149486
0.000153661
0.000157887
0.000162166
0.000166497
0.000170879
0.000175312
0.000179796
0.00018433
0.000188914
0.000193547
0.000198229
0.000202959
0.000207738
0.000212563
0.000217436
0.000222356
0.000227322
0.000232333
0.00023739
0.000242492
0.000247638
0.00025283
0.000258066
0.000263346
0.00026867
0.000274039
0.000279452
0.00028491
0.000290414
0.000295964
0.000301561
0.000307207
0.000312905
0.000318657
0.000324466
0.000330339
0.00033628
0.000342298
0.000348403
0.000354605
0.000360918
0.000367352
0.000373911
0.000380586
0.000387341
2.17148e-07
-1.71295e-08
-1.06381e-07
-1.31326e-07
-9.87345e-08
-5.43576e-09
1.48192e-07
3.614e-07
6.33851e-07
9.65396e-07
1.356e-06
1.80567e-06
2.31442e-06
2.88229e-06
3.50926e-06
4.1953e-06
4.9404e-06
5.74457e-06
6.60785e-06
7.53034e-06
8.5121e-06
9.55323e-06
1.06538e-05
1.18137e-05
1.3033e-05
1.43118e-05
1.565e-05
1.70477e-05
1.85051e-05
2.0022e-05
2.15985e-05
2.32345e-05
2.49301e-05
2.66853e-05
2.84999e-05
3.03742e-05
3.2308e-05
3.43014e-05
3.63543e-05
3.84667e-05
4.06386e-05
4.28699e-05
4.51605e-05
4.75104e-05
4.99197e-05
5.23883e-05
5.49161e-05
5.75032e-05
6.01493e-05
6.28544e-05
6.56184e-05
6.84413e-05
7.13228e-05
7.42629e-05
7.72615e-05
8.03184e-05
8.34334e-05
8.66064e-05
8.98371e-05
9.31253e-05
9.64709e-05
9.98735e-05
0.000103333
0.000106849
0.000110422
0.000114051
0.000117736
0.000121477
0.000125273
0.000129125
0.000133031
0.000136992
0.000141007
0.000145076
0.000149199
0.000153374
0.000157603
0.000161883
0.000166215
0.000170599
0.000175034
0.00017952
0.000184056
0.000188641
0.000193277
0.000197961
0.000202693
0.000207474
0.000212302
0.000217177
0.000222099
0.000227067
0.000232081
0.00023714
0.000242244
0.000247393
0.000252587
0.000257825
0.000263107
0.000268434
0.000273804
0.000279219
0.000284679
0.000290183
0.000295734
0.000301331
0.000306977
0.000312672
0.00031842
0.000324224
0.000330087
0.000336014
0.000342011
0.000348083
0.000354237
0.000360478
0.000366809
0.000373223
0.000379705
0.000386219
-1.05411e-07
-3.40888e-07
-4.32012e-07
-4.59154e-07
-4.28754e-07
-3.37558e-07
-1.85958e-07
2.53459e-08
2.96058e-07
6.26025e-07
1.01519e-06
1.46358e-06
1.97119e-06
2.53802e-06
3.16405e-06
3.84923e-06
4.59352e-06
5.39691e-06
6.25943e-06
7.18117e-06
8.1622e-06
9.2026e-06
1.03024e-05
1.14616e-05
1.26803e-05
1.39584e-05
1.52961e-05
1.66932e-05
1.815e-05
1.96663e-05
2.12423e-05
2.28778e-05
2.45729e-05
2.63275e-05
2.81417e-05
3.00154e-05
3.19487e-05
3.39417e-05
3.59942e-05
3.81062e-05
4.02777e-05
4.25086e-05
4.47989e-05
4.71486e-05
4.95577e-05
5.20261e-05
5.45538e-05
5.71407e-05
5.97868e-05
6.24919e-05
6.52559e-05
6.80789e-05
7.09605e-05
7.39008e-05
7.68996e-05
7.99568e-05
8.30721e-05
8.62454e-05
8.94765e-05
9.27652e-05
9.61114e-05
9.95148e-05
0.000102975
0.000106492
0.000110066
0.000113696
0.000117382
0.000121124
0.000124922
0.000128774
0.000132682
0.000136645
0.000140661
0.000144732
0.000148856
0.000153033
0.000157264
0.000161546
0.000165881
0.000170267
0.000174704
0.000179192
0.00018373
0.000188318
0.000192956
0.000197643
0.000202378
0.000207161
0.000211992
0.00021687
0.000221795
0.000226766
0.000231782
0.000236844
0.000241951
0.000247103
0.000252299
0.000257539
0.000262824
0.000268152
0.000273524
0.000278941
0.000284401
0.000289906
0.000295456
0.000301052
0.000306694
0.000312386
0.000318127
0.000323921
0.000329769
0.000335676
0.000341645
0.000347677
0.000353777
0.000359943
0.000366174
0.000372459
0.000378779
0.000385103
-4.95742e-07
-7.3192e-07
-8.24275e-07
-8.5306e-07
-8.24434e-07
-7.34988e-07
-5.85118e-07
-3.75515e-07
-1.06412e-07
2.2207e-07
6.0988e-07
1.05703e-06
1.56353e-06
2.12936e-06
2.75445e-06
3.43876e-06
4.18222e-06
4.98481e-06
5.84657e-06
6.76756e-06
7.74786e-06
8.78755e-06
9.88665e-06
1.10452e-05
1.22632e-05
1.35407e-05
1.48777e-05
1.62743e-05
1.77305e-05
1.92463e-05
2.08218e-05
2.24568e-05
2.41514e-05
2.59056e-05
2.77193e-05
2.95926e-05
3.15256e-05
3.35181e-05
3.55702e-05
3.76819e-05
3.9853e-05
4.20837e-05
4.43739e-05
4.67235e-05
4.91325e-05
5.16009e-05
5.41286e-05
5.67155e-05
5.93616e-05
6.20669e-05
6.48312e-05
6.76544e-05
7.05363e-05
7.3477e-05
7.64762e-05
7.95337e-05
8.26495e-05
8.58234e-05
8.90551e-05
9.23447e-05
9.56918e-05
9.90962e-05
0.000102558
0.000106076
0.000109651
0.000113282
0.00011697
0.000120713
0.000124512
0.000128367
0.000132276
0.00013624
0.000140259
0.000144332
0.000148458
0.000152638
0.00015687
0.000161155
0.000165493
0.000169881
0.000174321
0.000178812
0.000183353
0.000187945
0.000192585
0.000197275
0.000202014
0.0002068
0.000211634
0.000216515
0.000221443
0.000226417
0.000231437
0.000236502
0.000241612
0.000246767
0.000251966
0.000257209
0.000262496
0.000267826
0.0002732
0.000278617
0.000284078
0.000289582
0.000295131
0.000300724
0.000306363
0.000312047
0.000317779
0.00032356
0.000329392
0.000335275
0.000341211
0.000347201
0.000353245
0.000359339
0.000365478
0.00037165
0.000377837
0.000384012
-9.52885e-07
-1.18966e-06
-1.28289e-06
-1.31291e-06
-1.28574e-06
-1.1978e-06
-1.04942e-06
-8.41316e-07
-5.73665e-07
-2.46546e-07
1.4e-07
5.85982e-07
1.09141e-06
1.65624e-06
2.2804e-06
2.96382e-06
3.70643e-06
4.50821e-06
5.36919e-06
6.28944e-06
7.26903e-06
8.30801e-06
9.40643e-06
1.05643e-05
1.17817e-05
1.30585e-05
1.4395e-05
1.5791e-05
1.72467e-05
1.8762e-05
2.03369e-05
2.19715e-05
2.36656e-05
2.54194e-05
2.72328e-05
2.91058e-05
3.10384e-05
3.30306e-05
3.50824e-05
3.71938e-05
3.93648e-05
4.15953e-05
4.38854e-05
4.6235e-05
4.8644e-05
5.11125e-05
5.36403e-05
5.62274e-05
5.88738e-05
6.15793e-05
6.4344e-05
6.71676e-05
7.00501e-05
7.29913e-05
7.5991e-05
7.90491e-05
8.21656e-05
8.53403e-05
8.85731e-05
9.18637e-05
9.52119e-05
9.86176e-05
0.00010208
0.0001056
0.000109177
0.00011281
0.000116499
0.000120244
0.000124045
0.000127902
0.000131813
0.00013578
0.000139801
0.000143876
0.000148005
0.000152187
0.000156423
0.000160711
0.000165051
0.000169443
0.000173886
0.00017838
0.000182925
0.00018752
0.000192164
0.000196858
0.0002016
0.00020639
0.000211228
0.000216113
0.000221044
0.000226022
0.000231045
0.000236114
0.000241228
0.000246386
0.000251588
0.000256834
0.000262123
0.000267455
0.000272831
0.000278249
0.00028371
0.000289214
0.000294761
0.00030035
0.000305984
0.000311661
0.000317382
0.000323149
0.000328961
0.000334818
0.000340722
0.00034667
0.00035266
0.000358688
0.000364745
0.000370821
0.000376898
0.000382954
-1.47624e-06
-1.71364e-06
-1.80761e-06
-1.83858e-06
-1.81261e-06
-1.72598e-06
-1.57892e-06
-1.37212e-06
-1.10577e-06
-7.79884e-07
-3.94498e-07
5.03869e-08
5.54769e-07
1.11861e-06
1.74182e-06
2.42432e-06
3.16606e-06
3.96702e-06
4.82723e-06
5.74674e-06
6.72563e-06
7.76394e-06
8.8617e-06
1.00189e-05
1.12357e-05
1.25119e-05
1.38477e-05
1.52432e-05
1.66984e-05
1.82132e-05
1.97877e-05
2.14218e-05
2.31156e-05
2.4869e-05
2.66821e-05
2.85548e-05
3.04871e-05
3.24791e-05
3.45307e-05
3.66419e-05
3.88128e-05
4.10433e-05
4.33334e-05
4.56831e-05
4.80923e-05
5.05609e-05
5.30889e-05
5.56764e-05
5.83231e-05
6.10291e-05
6.37943e-05
6.66185e-05
6.95016e-05
7.24435e-05
7.5444e-05
7.8503e-05
8.16205e-05
8.47962e-05
8.80302e-05
9.13221e-05
9.46718e-05
9.80791e-05
0.000101544
0.000105065
0.000108644
0.000112279
0.00011597
0.000119717
0.000123521
0.00012738
0.000131294
0.000135263
0.000139286
0.000143364
0.000147496
0.000151682
0.000155921
0.000160212
0.000164556
0.000168952
0.000173399
0.000177897
0.000182445
0.000187044
0.000191692
0.00019639
0.000201136
0.000205931
0.000210773
0.000215662
0.000220598
0.00022558
0.000230608
0.00023568
0.000240798
0.00024596
0.000251166
0.000256415
0.000261707
0.000267042
0.000272419
0.000277838
0.000283299
0.000288802
0.000294347
0.000299933
0.00030556
0.000311229
0.000316939
0.000322691
0.000328483
0.000334315
0.000340187
0.000346095
0.000352035
0.000358003
0.00036399
0.000369985
0.000375972
0.000381933
-2.0655e-06
-2.30351e-06
-2.39819e-06
-2.42996e-06
-2.405e-06
-2.3195e-06
-2.1736e-06
-1.96796e-06
-1.70276e-06
-1.37799e-06
-9.93676e-07
-5.49827e-07
-4.64594e-08
5.1638e-07
1.13862e-06
1.82018e-06
2.56103e-06
3.36116e-06
4.2206e-06
5.1394e-06
6.11762e-06
7.15528e-06
8.25239e-06
9.40899e-06
1.06251e-05
1.19008e-05
1.3236e-05
1.4631e-05
1.60856e-05
1.76e-05
1.9174e-05
2.08078e-05
2.25012e-05
2.42543e-05
2.60671e-05
2.79396e-05
2.98717e-05
3.18635e-05
3.3915e-05
3.60262e-05
3.81971e-05
4.04276e-05
4.27178e-05
4.50677e-05
4.74771e-05
4.9946e-05
5.24744e-05
5.50623e-05
5.77095e-05
6.04162e-05
6.3182e-05
6.60069e-05
6.88908e-05
7.18336e-05
7.48351e-05
7.78952e-05
8.10139e-05
8.4191e-05
8.74264e-05
9.07199e-05
9.40713e-05
9.74804e-05
0.000100947
0.000104471
0.000108051
0.000111688
0.000115382
0.000119132
0.000122938
0.0001268
0.000130717
0.000134689
0.000138716
0.000142797
0.000146933
0.000151122
0.000155364
0.00015966
0.000164007
0.000168407
0.000172858
0.000177361
0.000181914
0.000186517
0.00019117
0.000195873
0.000200624
0.000205423
0.00021027
0.000215164
0.000220104
0.000225091
0.000230124
0.000235201
0.000240323
0.000245489
0.000250699
0.000255952
0.000261247
0.000266585
0.000271964
0.000277385
0.000282846
0.000288348
0.000293891
0.000299473
0.000305095
0.000310755
0.000316454
0.000322191
0.000327965
0.000333773
0.000339614
0.000345486
0.000351382
0.000357298
0.000363224
0.000369152
0.000375066
0.000380952
-2.72049e-06
-2.95904e-06
-3.05442e-06
-3.08695e-06
-3.06284e-06
-2.97833e-06
-2.83347e-06
-2.62886e-06
-2.36467e-06
-2.04092e-06
-1.65761e-06
-1.21475e-06
-7.12373e-07
-1.50529e-07
4.70723e-07
1.15133e-06
1.89128e-06
2.69058e-06
3.54927e-06
4.46738e-06
5.44494e-06
6.48197e-06
7.57846e-06
8.73445e-06
9.94996e-06
1.12251e-05
1.25598e-05
1.39543e-05
1.54084e-05
1.69223e-05
1.8496e-05
2.01293e-05
2.18224e-05
2.35753e-05
2.53878e-05
2.72601e-05
2.91922e-05
3.11839e-05
3.32354e-05
3.53466e-05
3.75175e-05
3.97482e-05
4.20386e-05
4.43886e-05
4.67984e-05
4.92677e-05
5.17966e-05
5.4385e-05
5.70329e-05
5.97403e-05
6.25069e-05
6.53327e-05
6.82177e-05
7.11615e-05
7.41642e-05
7.72257e-05
8.03459e-05
8.35246e-05
8.67617e-05
9.0057e-05
9.34103e-05
9.68214e-05
0.00010029
0.000103816
0.000107399
0.000111039
0.000114735
0.000118488
0.000122297
0.000126162
0.000130082
0.000134058
0.000138089
0.000142174
0.000146313
0.000150506
0.000154753
0.000159053
0.000163405
0.000167809
0.000172265
0.000176773
0.000181331
0.000185939
0.000190597
0.000195305
0.000200061
0.000204866
0.000209718
0.000214617
0.000219564
0.000224556
0.000229594
0.000234676
0.000239803
0.000244974
0.000250189
0.000255446
0.000260745
0.000266086
0.000271468
0.00027689
0.000282352
0.000287854
0.000293395
0.000298974
0.00030459
0.000310243
0.000315932
0.000321655
0.000327411
0.000333197
0.000339012
0.00034485
0.000350708
0.000356579
0.000362456
0.000368328
0.000374183
0.00038001
-3.44108e-06
-3.68012e-06
-3.77615e-06
-3.80942e-06
-3.78608e-06
-3.70243e-06
-3.5585e-06
-3.35482e-06
-3.09156e-06
-2.76875e-06
-2.38637e-06
-1.94447e-06
-1.44306e-06
-8.82204e-07
-2.6193e-07
4.17736e-07
1.1568e-06
1.95528e-06
2.81323e-06
3.73065e-06
4.70757e-06
5.74396e-06
6.83985e-06
7.99524e-06
9.21019e-06
1.04848e-05
1.1819e-05
1.3213e-05
1.46667e-05
1.61802e-05
1.77534e-05
1.93864e-05
2.10792e-05
2.28318e-05
2.46442e-05
2.65164e-05
2.84483e-05
3.04401e-05
3.24916e-05
3.46029e-05
3.6774e-05
3.90048e-05
4.12955e-05
4.36459e-05
4.60561e-05
4.85259e-05
5.10554e-05
5.36445e-05
5.62932e-05
5.90014e-05
6.1769e-05
6.45959e-05
6.7482e-05
7.04272e-05
7.34313e-05
7.64944e-05
7.96162e-05
8.27967e-05
8.60357e-05
8.93331e-05
9.26886e-05
9.6102e-05
9.95731e-05
0.000103102
0.000106688
0.00011033
0.00011403
0.000117786
0.000121598
0.000125467
0.000129391
0.00013337
0.000137405
0.000141494
0.000145638
0.000149836
0.000154087
0.000158391
0.000162749
0.000167158
0.00017162
0.000176132
0.000180696
0.00018531
0.000189974
0.000194687
0.000199449
0.00020426
0.000209118
0.000214024
0.000218976
0.000223974
0.000229018
0.000234106
0.000239239
0.000244415
0.000249635
0.000254897
0.0002602
0.000265545
0.00027093
0.000276355
0.000281818
0.000287321
0.00029286
0.000298437
0.000304049
0.000309695
0.000315375
0.000321086
0.000326826
0.000332593
0.000338384
0.000344195
0.00035002
0.000355854
0.000361689
0.000367517
0.000373326
0.000379107
-4.22714e-06
-4.46667e-06
-4.56328e-06
-4.59727e-06
-4.57466e-06
-4.49179e-06
-4.3487e-06
-4.14589e-06
-3.88349e-06
-3.56154e-06
-3.18006e-06
-2.73907e-06
-2.23861e-06
-1.67871e-06
-1.05938e-06
-3.80635e-07
3.57562e-07
1.15525e-06
2.01245e-06
2.92919e-06
3.90545e-06
4.94122e-06
6.0365e-06
7.19132e-06
8.40574e-06
9.67981e-06
1.10136e-05
1.24071e-05
1.38604e-05
1.53735e-05
1.69463e-05
1.8579e-05
2.02715e-05
2.20238e-05
2.38361e-05
2.57082e-05
2.76402e-05
2.9632e-05
3.16837e-05
3.37951e-05
3.59664e-05
3.81975e-05
4.04885e-05
4.28394e-05
4.52501e-05
4.77205e-05
5.02507e-05
5.28406e-05
5.54902e-05
5.81994e-05
6.09681e-05
6.37962e-05
6.66837e-05
6.96304e-05
7.26362e-05
7.57011e-05
7.88248e-05
8.20073e-05
8.52484e-05
8.8548e-05
9.19059e-05
9.53219e-05
9.87958e-05
0.000102327
0.000105916
0.000109562
0.000113265
0.000117025
0.000120841
0.000124713
0.000128641
0.000132625
0.000136664
0.000140758
0.000144907
0.000149109
0.000153366
0.000157676
0.000162038
0.000166454
0.000170921
0.000175439
0.000180009
0.000184629
0.000189299
0.000194019
0.000198788
0.000203605
0.00020847
0.000213382
0.000218341
0.000223346
0.000228396
0.000233491
0.00023863
0.000243813
0.000249038
0.000254306
0.000259614
0.000264963
0.000270352
0.00027578
0.000281246
0.00028675
0.000292289
0.000297864
0.000303473
0.000309114
0.000314786
0.000320487
0.000326214
0.000331966
0.000337737
0.000343524
0.000349323
0.000355127
0.000360929
0.000366721
0.000372495
0.00037824
-5.07852e-06
-5.31863e-06
-5.41573e-06
-5.45039e-06
-5.42852e-06
-5.34638e-06
-5.20408e-06
-5.00208e-06
-4.7405e-06
-4.41938e-06
-4.03875e-06
-3.59863e-06
-3.09906e-06
-2.54007e-06
-1.92166e-06
-1.24379e-06
-5.06434e-07
2.90466e-07
1.14693e-06
2.06297e-06
3.03856e-06
4.07368e-06
5.16836e-06
6.32263e-06
7.53654e-06
8.81015e-06
1.01435e-05
1.15366e-05
1.29895e-05
1.45022e-05
1.60746e-05
1.77069e-05
1.93992e-05
2.11513e-05
2.29635e-05
2.48356e-05
2.67677e-05
2.87596e-05
3.08114e-05
3.29231e-05
3.50946e-05
3.73261e-05
3.96175e-05
4.19689e-05
4.43802e-05
4.68514e-05
4.93824e-05
5.19733e-05
5.46238e-05
5.73341e-05
6.01041e-05
6.29337e-05
6.58227e-05
6.87711e-05
7.17788e-05
7.48456e-05
7.79714e-05
8.11561e-05
8.43996e-05
8.77017e-05
9.10622e-05
9.4481e-05
9.79578e-05
0.000101492
0.000105085
0.000108734
0.000112441
0.000116204
0.000120025
0.000123901
0.000127834
0.000131823
0.000135867
0.000139966
0.000144119
0.000148327
0.000152589
0.000156905
0.000161274
0.000165695
0.000170169
0.000174694
0.00017927
0.000183897
0.000188574
0.000193301
0.000198076
0.000202901
0.000207773
0.000212693
0.000217659
0.000222671
0.000227728
0.000232831
0.000237977
0.000243167
0.000248399
0.000253672
0.000258987
0.000264341
0.000269735
0.000275167
0.000280637
0.000286142
0.000291683
0.000297258
0.000302865
0.000308502
0.000314169
0.000319862
0.000325579
0.000331317
0.000337073
0.000342842
0.00034862
0.0003544
0.000360177
0.000365943
0.00037169
0.000377409
-5.9951e-06
-6.23589e-06
-6.33346e-06
-6.36875e-06
-6.34759e-06
-6.26618e-06
-6.12462e-06
-5.92341e-06
-5.66261e-06
-5.34228e-06
-4.96246e-06
-4.52317e-06
-4.02446e-06
-3.46633e-06
-2.84878e-06
-2.17176e-06
-1.43521e-06
-6.39093e-07
2.16623e-07
1.13194e-06
2.10684e-06
3.14132e-06
4.2354e-06
5.38913e-06
6.60255e-06
7.87572e-06
9.20865e-06
1.06014e-05
1.20538e-05
1.35661e-05
1.51382e-05
1.67702e-05
1.84622e-05
2.02143e-05
2.20264e-05
2.38985e-05
2.58307e-05
2.78227e-05
2.98747e-05
3.19866e-05
3.41585e-05
3.63904e-05
3.86824e-05
4.10344e-05
4.34465e-05
4.59185e-05
4.84504e-05
5.10423e-05
5.3694e-05
5.64056e-05
5.91769e-05
6.20081e-05
6.48988e-05
6.78491e-05
7.08588e-05
7.39277e-05
7.70558e-05
8.02429e-05
8.3489e-05
8.67938e-05
9.01572e-05
9.35791e-05
9.70592e-05
0.000100597
0.000104193
0.000107847
0.000111557
0.000115325
0.00011915
0.000123031
0.000126969
0.000130963
0.000135012
0.000139116
0.000143276
0.00014749
0.000151758
0.00015608
0.000160455
0.000164883
0.000169363
0.000173895
0.000178478
0.000183113
0.000187797
0.000192532
0.000197316
0.000202148
0.000207028
0.000211955
0.00021693
0.00022195
0.000227015
0.000232126
0.00023728
0.000242477
0.000247717
0.000252998
0.000258319
0.00026368
0.00026908
0.000274517
0.000279991
0.0002855
0.000291043
0.000296619
0.000302226
0.000307862
0.000313525
0.000319213
0.000324923
0.000330652
0.000336396
0.000342151
0.000347913
0.000353676
0.000359435
0.000365181
0.000370909
0.000376611
-6.97679e-06
-7.21834e-06
-7.31642e-06
-7.35229e-06
-7.33183e-06
-7.25114e-06
-7.11031e-06
-6.90984e-06
-6.64982e-06
-6.33026e-06
-5.95122e-06
-5.51273e-06
-5.01482e-06
-4.45751e-06
-3.84078e-06
-3.16456e-06
-2.42882e-06
-1.63348e-06
-7.78525e-07
1.36055e-07
1.11026e-06
2.14409e-06
3.23758e-06
4.39076e-06
5.6037e-06
6.87642e-06
8.20894e-06
9.60124e-06
1.10533e-05
1.25652e-05
1.4137e-05
1.57688e-05
1.74606e-05
1.92126e-05
2.10247e-05
2.28968e-05
2.48291e-05
2.68213e-05
2.88735e-05
3.09857e-05
3.31581e-05
3.53905e-05
3.76831e-05
4.00358e-05
4.24487e-05
4.49216e-05
4.74545e-05
5.00475e-05
5.27005e-05
5.54135e-05
5.81864e-05
6.10193e-05
6.39119e-05
6.68642e-05
6.9876e-05
7.29473e-05
7.60778e-05
7.92676e-05
8.25164e-05
8.58242e-05
8.91908e-05
9.26159e-05
9.60995e-05
9.96414e-05
0.000103241
0.000106899
0.000110614
0.000114387
0.000118216
0.000122103
0.000126045
0.000130044
0.000134099
0.00013821
0.000142375
0.000146596
0.00015087
0.000155199
0.000159581
0.000164016
0.000168504
0.000173043
0.000177635
0.000182277
0.00018697
0.000191713
0.000196505
0.000201345
0.000206234
0.00021117
0.000216153
0.000221183
0.000226257
0.000231376
0.000236539
0.000241745
0.000246993
0.000252282
0.000257611
0.000262979
0.000268386
0.00027383
0.000279309
0.000284823
0.00029037
0.000295949
0.000301558
0.000307195
0.000312857
0.000318542
0.000324248
0.000329971
0.000335707
0.000341454
0.000347205
0.000352957
0.000358703
0.000364437
0.000370153
0.000375844
-8.02358e-06
-8.2659e-06
-8.36456e-06
-8.40098e-06
-8.3812e-06
-8.30122e-06
-8.1611e-06
-7.96137e-06
-7.7021e-06
-7.38329e-06
-7.00501e-06
-6.56729e-06
-6.07016e-06
-5.51364e-06
-4.89769e-06
-4.22227e-06
-3.48732e-06
-2.69276e-06
-1.83858e-06
-9.24737e-07
4.87632e-08
1.08194e-06
2.17484e-06
3.32749e-06
4.53993e-06
5.81219e-06
7.14427e-06
8.53615e-06
9.98786e-06
1.14994e-05
1.3071e-05
1.47025e-05
1.63942e-05
1.81461e-05
1.99582e-05
2.18304e-05
2.37628e-05
2.57552e-05
2.78077e-05
2.99203e-05
3.20931e-05
3.43261e-05
3.66194e-05
3.89729e-05
4.13866e-05
4.38605e-05
4.63946e-05
4.89888e-05
5.16432e-05
5.43577e-05