/*--------------------------------*- C++ -*----------------------------------*\
  =========                 |
  \\      /  F ield         | OpenFOAM: The Open Source CFD Toolbox
   \\    /   O peration     | Website:  https://openfoam.org
    \\  /    A nd           | Version:  8
     \\/     M anipulation  |
\*---------------------------------------------------------------------------*/
FoamFile
{
    version     2.0;
    format      ascii;
    class       surfaceScalarField;
    location    "20";
    object      phi;
}
// * * * * * * * * * * * * * * * * * * * * * * * * * * * * * * * * * * * * * //

dimensions      [0 3 -1 0 0 0 0];

internalField   nonuniform List<scalar> 
92320
(
5.7379e-10
-2.02118e-09
-1.73312e-08
1.79052e-08
-5.30321e-08
3.57011e-08
-9.97895e-08
4.67543e-08
-1.52205e-07
5.24141e-08
-2.06964e-07
5.47608e-08
-2.62425e-07
5.54632e-08
-3.17939e-07
5.55139e-08
-3.73317e-07
5.53776e-08
-4.28542e-07
5.52244e-08
-4.83639e-07
5.50961e-08
-5.3863e-07
5.49915e-08
-5.9353e-07
5.49006e-08
-6.48346e-07
5.48158e-08
-7.03077e-07
5.47317e-08
-7.57722e-07
5.46454e-08
-8.12277e-07
5.4555e-08
-8.66736e-07
5.44594e-08
-9.21094e-07
5.43581e-08
-9.75345e-07
5.42508e-08
-1.02948e-06
5.41374e-08
-1.0835e-06
5.40177e-08
-1.13739e-06
5.38914e-08
-1.19115e-06
5.37584e-08
-1.24477e-06
5.36185e-08
-1.29824e-06
5.34718e-08
-1.35156e-06
5.33181e-08
-1.40471e-06
5.31575e-08
-1.4577e-06
5.299e-08
-1.51052e-06
5.28154e-08
-1.56315e-06
5.26338e-08
-1.6156e-06
5.2445e-08
-1.66785e-06
5.2249e-08
-1.71989e-06
5.20456e-08
-1.77173e-06
5.18349e-08
-1.82335e-06
5.16168e-08
-1.87474e-06
5.13914e-08
-1.9259e-06
5.11586e-08
-1.97681e-06
5.09182e-08
-2.02748e-06
5.06704e-08
-2.0779e-06
5.0415e-08
-2.12805e-06
5.01519e-08
-2.17793e-06
4.9881e-08
-2.22753e-06
4.96024e-08
-2.27685e-06
4.93161e-08
-2.32587e-06
4.90222e-08
-2.37459e-06
4.87205e-08
-2.423e-06
4.8411e-08
-2.4711e-06
4.80936e-08
-2.51887e-06
4.77682e-08
-2.5663e-06
4.74349e-08
-2.61339e-06
4.70938e-08
-2.66014e-06
4.67448e-08
-2.70653e-06
4.6388e-08
-2.75255e-06
4.60233e-08
-2.7982e-06
4.56507e-08
-2.84347e-06
4.52703e-08
-2.88835e-06
4.48821e-08
-2.93284e-06
4.44862e-08
-2.97692e-06
4.40827e-08
-3.02059e-06
4.36717e-08
-3.06385e-06
4.32534e-08
-3.10668e-06
4.28277e-08
-3.14907e-06
4.23948e-08
-3.19103e-06
4.19548e-08
-3.23253e-06
4.15081e-08
-3.27359e-06
4.10549e-08
-3.31418e-06
4.05953e-08
-3.35431e-06
4.01297e-08
-3.39397e-06
3.96582e-08
-3.43315e-06
3.91813e-08
-3.47185e-06
3.86993e-08
-3.51006e-06
3.82127e-08
-3.54778e-06
3.77219e-08
-3.58501e-06
3.72277e-08
-3.62174e-06
3.67308e-08
-3.65797e-06
3.62318e-08
-3.6937e-06
3.57314e-08
-3.72894e-06
3.52307e-08
-3.76367e-06
3.47307e-08
-3.7979e-06
3.42326e-08
-3.83164e-06
3.37377e-08
-3.86488e-06
3.32474e-08
-3.89765e-06
3.27633e-08
-3.92993e-06
3.22875e-08
-3.96176e-06
3.18222e-08
-3.99313e-06
3.13696e-08
-4.02406e-06
3.09323e-08
-4.05457e-06
3.05136e-08
-4.08469e-06
3.01171e-08
-4.11443e-06
2.97472e-08
-4.14384e-06
2.94085e-08
-4.17295e-06
2.91065e-08
-4.2018e-06
2.88477e-08
-4.23044e-06
2.86395e-08
-4.25893e-06
2.84905e-08
-4.28734e-06
2.84108e-08
-4.31575e-06
2.84122e-08
-4.34426e-06
2.8509e-08
-4.37298e-06
2.87184e-08
-4.40204e-06
2.90609e-08
-4.4316e-06
2.95604e-08
-4.46185e-06
3.02462e-08
-4.493e-06
3.11536e-08
-4.52533e-06
3.23261e-08
-4.55914e-06
3.38159e-08
-4.59483e-06
3.56848e-08
-4.63283e-06
3.80034e-08
-4.67368e-06
4.08493e-08
-4.71798e-06
4.43034e-08
-4.76644e-06
4.84574e-08
-4.81992e-06
5.34839e-08
-4.87986e-06
5.99388e-08
-4.94964e-06
6.97754e-08
-5.03899e-06
8.93532e-08
-5.17679e-06
1.378e-07
-5.4459e-06
2.69109e-07
-6.0733e-06
6.27396e-07
-7.66438e-06
1.59109e-06
4.21683e-06
-1.18812e-05
-1.85662e-08
1.65451e-08
-7.76525e-08
7.69921e-08
-1.6925e-07
1.27305e-07
-2.82659e-07
1.60166e-07
-4.08582e-07
1.78335e-07
-5.40707e-07
1.86883e-07
-6.75448e-07
1.90203e-07
-8.11061e-07
1.91129e-07
-9.46817e-07
1.91135e-07
-1.08245e-06
1.90861e-07
-1.21789e-06
1.90535e-07
-1.35312e-06
1.90215e-07
-1.48812e-06
1.89905e-07
-1.6229e-06
1.89596e-07
-1.75745e-06
1.89279e-07
-1.89175e-06
1.88947e-07
-2.02579e-06
1.88597e-07
-2.15956e-06
1.88226e-07
-2.29303e-06
1.87833e-07
-2.4262e-06
1.87417e-07
-2.55904e-06
1.86976e-07
-2.69153e-06
1.86511e-07
-2.82366e-06
1.8602e-07
-2.9554e-06
1.85505e-07
-3.08675e-06
1.84964e-07
-3.21768e-06
1.84398e-07
-3.34816e-06
1.83806e-07
-3.47819e-06
1.83188e-07
-3.60775e-06
1.82543e-07
-3.7368e-06
1.81873e-07
-3.86535e-06
1.81176e-07
-3.99335e-06
1.80453e-07
-4.12081e-06
1.79704e-07
-4.24769e-06
1.78928e-07
-4.37398e-06
1.78125e-07
-4.49966e-06
1.77296e-07
-4.62471e-06
1.76439e-07
-4.7491e-06
1.75555e-07
-4.87283e-06
1.74645e-07
-4.99587e-06
1.73707e-07
-5.1182e-06
1.72742e-07
-5.23979e-06
1.7175e-07
-5.36064e-06
1.7073e-07
-5.48072e-06
1.69683e-07
-5.60002e-06
1.68609e-07
-5.7185e-06
1.67507e-07
-5.83616e-06
1.66378e-07
-5.95297e-06
1.65222e-07
-6.06891e-06
1.64038e-07
-6.18397e-06
1.62826e-07
-6.29812e-06
1.61587e-07
-6.41135e-06
1.60321e-07
-6.52363e-06
1.59027e-07
-6.63495e-06
1.57707e-07
-6.74529e-06
1.5636e-07
-6.85462e-06
1.54985e-07
-6.96294e-06
1.53585e-07
-7.07021e-06
1.52158e-07
-7.17643e-06
1.50706e-07
-7.28158e-06
1.49227e-07
-7.38563e-06
1.47724e-07
-7.48858e-06
1.46196e-07
-7.59039e-06
1.44644e-07
-7.69107e-06
1.43069e-07
-7.79058e-06
1.41471e-07
-7.88892e-06
1.3985e-07
-7.98608e-06
1.38209e-07
-8.08203e-06
1.36547e-07
-8.17676e-06
1.34866e-07
-8.27027e-06
1.33166e-07
-8.36254e-06
1.31451e-07
-8.45356e-06
1.2972e-07
-8.54332e-06
1.27975e-07
-8.63182e-06
1.26219e-07
-8.71904e-06
1.24454e-07
-8.80499e-06
1.22682e-07
-8.88967e-06
1.20905e-07
-8.97306e-06
1.19128e-07
-9.05519e-06
1.17352e-07
-9.13604e-06
1.15583e-07
-9.21563e-06
1.13824e-07
-9.29397e-06
1.1208e-07
-9.37108e-06
1.10355e-07
-9.44697e-06
1.08658e-07
-9.52167e-06
1.06993e-07
-9.59522e-06
1.05369e-07
-9.66764e-06
1.03794e-07
-9.73899e-06
1.02279e-07
-9.80931e-06
1.00836e-07
-9.87867e-06
9.94761e-08
-9.94714e-06
9.82158e-08
-1.00148e-05
9.70723e-08
-1.00818e-05
9.60658e-08
-1.01481e-05
9.52195e-08
-1.02141e-05
9.45608e-08
-1.02797e-05
9.41218e-08
-1.03452e-05
9.39404e-08
-1.04109e-05
9.40612e-08
-1.04769e-05
9.45374e-08
-1.05436e-05
9.54331e-08
-1.06114e-05
9.68263e-08
-1.06806e-05
9.8812e-08
-1.07519e-05
1.01506e-07
-1.08258e-05
1.05053e-07
-1.09031e-05
1.09632e-07
-1.09847e-05
1.15469e-07
-1.10719e-05
1.22855e-07
-1.11661e-05
1.32164e-07
-1.12691e-05
1.43901e-07
-1.13836e-05
1.5878e-07
-1.15131e-05
1.77924e-07
-1.16629e-05
2.03354e-07
-1.18422e-05
2.39201e-07
-1.2067e-05
2.94579e-07
-1.23678e-05
3.90107e-07
-1.28018e-05
5.71822e-07
-1.34709e-05
9.38179e-07
-1.45289e-05
1.68545e-06
-1.61182e-05
3.18034e-06
6.05755e-06
-1.79589e-05
-3.63185e-08
5.28638e-08
-1.28415e-07
1.69084e-07
-2.61427e-07
2.60316e-07
-4.21407e-07
3.2015e-07
-5.97131e-07
3.54062e-07
-7.81003e-07
3.70754e-07
-9.68591e-07
3.7779e-07
-1.15762e-06
3.80161e-07
-1.34706e-06
3.80572e-07
-1.53647e-06
3.80269e-07
-1.72568e-06
3.79744e-07
-1.91462e-06
3.79158e-07
-2.10326e-06
3.78549e-07
-2.29158e-06
3.77917e-07
-2.47956e-06
3.77254e-07
-2.66716e-06
3.76554e-07
-2.85438e-06
3.7581e-07
-3.04117e-06
3.75021e-07
-3.22752e-06
3.74183e-07
-3.4134e-06
3.73295e-07
-3.59878e-06
3.72356e-07
-3.78363e-06
3.71365e-07
-3.96793e-06
3.70321e-07
-4.15165e-06
3.69224e-07
-4.33476e-06
3.68074e-07
-4.51724e-06
3.66871e-07
-4.69904e-06
3.65613e-07
-4.88016e-06
3.64302e-07
-5.06055e-06
3.62936e-07
-5.24019e-06
3.61516e-07
-5.41906e-06
3.60042e-07
-5.59712e-06
3.58513e-07
-5.77434e-06
3.56929e-07
-5.9507e-06
3.5529e-07
-6.12618e-06
3.53596e-07
-6.30073e-06
3.51847e-07
-6.47433e-06
3.50043e-07
-6.64696e-06
3.48184e-07
-6.81858e-06
3.46269e-07
-6.98917e-06
3.44298e-07
-7.1587e-06
3.42272e-07
-7.32715e-06
3.40191e-07
-7.49447e-06
3.38054e-07
-7.66065e-06
3.35862e-07
-7.82565e-06
3.33614e-07
-7.98946e-06
3.31311e-07
-8.15203e-06
3.28953e-07
-8.31335e-06
3.26539e-07
-8.47338e-06
3.2407e-07
-8.6321e-06
3.21547e-07
-8.78948e-06
3.18968e-07
-8.9455e-06
3.16336e-07
-9.10012e-06
3.13649e-07
-9.25332e-06
3.10908e-07
-9.40507e-06
3.08114e-07
-9.55535e-06
3.05267e-07
-9.70414e-06
3.02368e-07
-9.8514e-06
2.99418e-07
-9.99711e-06
2.96417e-07
-1.01412e-05
2.93366e-07
-1.02838e-05
2.90266e-07
-1.04247e-05
2.87118e-07
-1.0564e-05
2.83924e-07
-1.07016e-05
2.80684e-07
-1.08375e-05
2.774e-07
-1.09718e-05
2.74074e-07
-1.11043e-05
2.70708e-07
-1.1235e-05
2.67303e-07
-1.1364e-05
2.63862e-07
-1.14912e-05
2.60388e-07
-1.16167e-05
2.56882e-07
-1.17403e-05
2.5335e-07
-1.18621e-05
2.49793e-07
-1.19821e-05
2.46217e-07
-1.21003e-05
2.42625e-07
-1.22166e-05
2.39022e-07
-1.23311e-05
2.35415e-07
-1.24438e-05
2.31809e-07
-1.25547e-05
2.28211e-07
-1.26637e-05
2.24629e-07
-1.2771e-05
2.21071e-07
-1.28764e-05
2.17548e-07
-1.29801e-05
2.14069e-07
-1.30821e-05
2.10648e-07
-1.31824e-05
2.07297e-07
-1.32811e-05
2.04034e-07
-1.33782e-05
2.00875e-07
-1.34737e-05
1.97841e-07
-1.35679e-05
1.94956e-07
-1.36606e-05
1.92246e-07
-1.37522e-05
1.89742e-07
-1.38426e-05
1.8748e-07
-1.3932e-05
1.855e-07
-1.40206e-05
1.8385e-07
-1.41087e-05
1.82585e-07
-1.41963e-05
1.81773e-07
-1.42839e-05
1.81489e-07
-1.43716e-05
1.81828e-07
-1.446e-05
1.82898e-07
-1.45494e-05
1.84832e-07
-1.46403e-05
1.87793e-07
-1.47335e-05
1.91978e-07
-1.48296e-05
1.97633e-07
-1.49296e-05
2.05063e-07
-1.50347e-05
2.14655e-07
-1.51461e-05
2.26904e-07
-1.52657e-05
2.42458e-07
-1.53957e-05
2.6218e-07
-1.55391e-05
2.87266e-07
-1.56998e-05
3.19454e-07
-1.58833e-05
3.61452e-07
-1.60978e-05
4.17841e-07
-1.63555e-05
4.96951e-07
-1.66756e-05
6.14673e-07
-1.70872e-05
8.01681e-07
-1.76312e-05
1.11586e-06
-1.83529e-05
1.65987e-06
-1.92652e-05
2.59776e-06
-2.0242e-05
4.15714e-06
6.5545e-06
-2.0739e-05
-4.75765e-08
1.00444e-07
-1.62046e-07
2.83551e-07
-3.22694e-07
4.20962e-07
-5.1276e-07
5.10216e-07
-7.19777e-07
5.61081e-07
-9.35602e-07
5.8658e-07
-1.15554e-06
5.97726e-07
-1.37716e-06
6.01778e-07
-1.59931e-06
6.02725e-07
-1.82149e-06
6.02452e-07
-2.04349e-06
6.01739e-07
-2.26519e-06
6.00864e-07
-2.48655e-06
5.99911e-07
-2.70753e-06
5.98895e-07
-2.92809e-06
5.97814e-07
-3.1482e-06
5.96663e-07
-3.36783e-06
5.95436e-07
-3.58693e-06
5.9413e-07
-3.80549e-06
5.92742e-07
-4.02347e-06
5.91271e-07
-4.24083e-06
5.89714e-07
-4.45754e-06
5.88073e-07
-4.67356e-06
5.86344e-07
-4.88886e-06
5.84529e-07
-5.10341e-06
5.82626e-07
-5.31718e-06
5.80636e-07
-5.53012e-06
5.78557e-07
-5.74221e-06
5.7639e-07
-5.95341e-06
5.74135e-07
-6.16368e-06
5.71791e-07
-6.373e-06
5.69359e-07
-6.58133e-06
5.66838e-07
-6.78862e-06
5.64227e-07
-6.99486e-06
5.61528e-07
-7.20001e-06
5.58739e-07
-7.40402e-06
5.55861e-07
-7.60687e-06
5.52894e-07
-7.80852e-06
5.49837e-07
-8.00895e-06
5.46691e-07
-8.2081e-06
5.43456e-07
-8.40596e-06
5.40132e-07
-8.60249e-06
5.36718e-07
-8.79765e-06
5.33215e-07
-8.99141e-06
5.29623e-07
-9.18374e-06
5.25943e-07
-9.3746e-06
5.22174e-07
-9.56397e-06
5.18316e-07
-9.7518e-06
5.14371e-07
-9.93807e-06
5.10338e-07
-1.01227e-05
5.06217e-07
-1.03058e-05
5.0201e-07
-1.04872e-05
4.97716e-07
-1.06668e-05
4.93337e-07
-1.08448e-05
4.88872e-07
-1.1021e-05
4.84324e-07
-1.11954e-05
4.79693e-07
-1.13681e-05
4.74979e-07
-1.15388e-05
4.70185e-07
-1.17077e-05
4.65311e-07
-1.18747e-05
4.60359e-07
-1.20398e-05
4.5533e-07
-1.22029e-05
4.50227e-07
-1.2364e-05
4.45052e-07
-1.25231e-05
4.39806e-07
-1.26802e-05
4.34492e-07
-1.28353e-05
4.29114e-07
-1.29882e-05
4.23673e-07
-1.31391e-05
4.18173e-07
-1.32879e-05
4.12619e-07
-1.34345e-05
4.07014e-07
-1.3579e-05
4.01363e-07
-1.37213e-05
3.95671e-07
-1.38614e-05
3.89944e-07
-1.39994e-05
3.84188e-07
-1.41352e-05
3.78412e-07
-1.42688e-05
3.72622e-07
-1.44002e-05
3.66827e-07
-1.45294e-05
3.61038e-07
-1.46565e-05
3.55266e-07
-1.47814e-05
3.49523e-07
-1.49041e-05
3.43822e-07
-1.50248e-05
3.38179e-07
-1.51433e-05
3.32612e-07
-1.52598e-05
3.2714e-07
-1.53743e-05
3.21785e-07
-1.54868e-05
3.16573e-07
-1.55975e-05
3.11532e-07
-1.57063e-05
3.06694e-07
-1.58135e-05
3.02096e-07
-1.5919e-05
2.97782e-07
-1.60231e-05
2.938e-07
-1.61258e-05
2.90207e-07
-1.62274e-05
2.87067e-07
-1.6328e-05
2.84458e-07
-1.64279e-05
2.82467e-07
-1.65273e-05
2.81199e-07
-1.66266e-05
2.80778e-07
-1.67261e-05
2.81352e-07
-1.68263e-05
2.83096e-07
-1.69277e-05
2.86223e-07
-1.70309e-05
2.90992e-07
-1.71366e-05
2.97719e-07
-1.72458e-05
3.06798e-07
-1.73594e-05
3.18721e-07
-1.74789e-05
3.34112e-07
-1.76058e-05
3.53774e-07
-1.77421e-05
3.7876e-07
-1.78904e-05
4.10482e-07
-1.8054e-05
4.50888e-07
-1.82373e-05
5.02776e-07
-1.84462e-05
5.70361e-07
-1.86887e-05
6.6034e-07
-1.89756e-05
7.83866e-07
-1.9321e-05
9.60051e-07
-1.9741e-05
1.22162e-06
-2.02477e-05
1.62263e-06
-2.0833e-05
2.24514e-06
-2.14318e-05
3.19661e-06
-2.18589e-05
4.58421e-06
6.42531e-06
-2.17297e-05
-5.34907e-08
1.53937e-07
-1.81018e-07
4.11082e-07
-3.58075e-07
5.98017e-07
-5.65797e-07
7.17937e-07
-7.9083e-07
7.86114e-07
-1.02475e-06
8.205e-07
-1.2628e-06
8.35778e-07
-1.50256e-06
8.41534e-07
-1.74287e-06
8.4304e-07
-1.98323e-06
8.42814e-07
-2.22341e-06
8.41915e-07
-2.46329e-06
8.40741e-07
-2.70279e-06
8.3942e-07
-2.94189e-06
8.37988e-07
-3.18052e-06
8.36448e-07
-3.41866e-06
8.34798e-07
-3.65625e-06
8.33034e-07
-3.89328e-06
8.31152e-07
-4.12968e-06
8.29151e-07
-4.36544e-06
8.27029e-07
-4.60051e-06
8.24785e-07
-4.83486e-06
8.22417e-07
-5.06844e-06
8.19924e-07
-5.30122e-06
8.17307e-07
-5.53316e-06
8.14565e-07
-5.76422e-06
8.11697e-07
-5.99436e-06
8.08703e-07
-6.22356e-06
8.05583e-07
-6.45176e-06
8.02337e-07
-6.67893e-06
7.98964e-07
-6.90504e-06
7.95465e-07
-7.13004e-06
7.9184e-07
-7.3539e-06
7.88087e-07
-7.57658e-06
7.84208e-07
-7.79804e-06
7.80202e-07
-8.01825e-06
7.76069e-07
-8.23716e-06
7.7181e-07
-8.45475e-06
7.67424e-07
-8.67097e-06
7.62911e-07
-8.88579e-06
7.58272e-07
-9.09916e-06
7.53507e-07
-9.31106e-06
7.48615e-07
-9.52144e-06
7.43598e-07
-9.73027e-06
7.38455e-07
-9.93752e-06
7.33188e-07
-1.01431e-05
7.27795e-07
-1.03471e-05
7.22278e-07
-1.05494e-05
7.16637e-07
-1.07499e-05
7.10874e-07
-1.09487e-05
7.04987e-07
-1.11456e-05
6.98979e-07
-1.13408e-05
6.9285e-07
-1.1534e-05
6.86602e-07
-1.17254e-05
6.80235e-07
-1.19148e-05
6.7375e-07
-1.21023e-05
6.6715e-07
-1.22877e-05
6.60435e-07
-1.24712e-05
6.53608e-07
-1.26525e-05
6.4667e-07
-1.28318e-05
6.39624e-07
-1.30089e-05
6.32473e-07
-1.31839e-05
6.25218e-07
-1.33567e-05
6.17862e-07
-1.35273e-05
6.1041e-07
-1.36957e-05
6.02864e-07
-1.38618e-05
5.95229e-07
-1.40257e-05
5.87509e-07
-1.41872e-05
5.79709e-07
-1.43464e-05
5.71834e-07
-1.45033e-05
5.6389e-07
-1.46578e-05
5.55884e-07
-1.481e-05
5.47824e-07
-1.49597e-05
5.39717e-07
-1.51071e-05
5.31573e-07
-1.52521e-05
5.23401e-07
-1.53947e-05
5.15214e-07
-1.55349e-05
5.07023e-07
-1.56727e-05
4.98843e-07
-1.58081e-05
4.90689e-07
-1.59412e-05
4.82578e-07
-1.60719e-05
4.74529e-07
-1.62003e-05
4.66565e-07
-1.63264e-05
4.58709e-07
-1.64502e-05
4.50988e-07
-1.65719e-05
4.43435e-07
-1.66914e-05
4.36084e-07
-1.68088e-05
4.28974e-07
-1.69243e-05
4.22151e-07
-1.70378e-05
4.15666e-07
-1.71496e-05
4.09579e-07
-1.72598e-05
4.03958e-07
-1.73685e-05
3.98879e-07
-1.74758e-05
3.94435e-07
-1.75821e-05
3.90731e-07
-1.76875e-05
3.87889e-07
-1.77924e-05
3.86054e-07
-1.7897e-05
3.85396e-07
-1.80018e-05
3.8612e-07
-1.81071e-05
3.88467e-07
-1.82137e-05
3.92731e-07
-1.83219e-05
3.99267e-07
-1.84327e-05
4.08509e-07
-1.85469e-05
4.20997e-07
-1.86656e-05
4.37403e-07
-1.87901e-05
4.58576e-07
-1.89219e-05
4.85609e-07
-1.90631e-05
5.19922e-07
-1.9216e-05
5.63403e-07
-1.93837e-05
6.18621e-07
-1.95701e-05
6.89171e-07
-1.978e-05
7.80251e-07
-2.00193e-05
8.99644e-07
-2.02948e-05
1.05933e-06
-2.06128e-05
1.27803e-06
-2.09757e-05
1.58455e-06
-2.13742e-05
2.02114e-06
-2.17723e-05
2.64327e-06
-2.20856e-05
3.50987e-06
-2.21573e-05
4.65589e-06
6.03128e-06
-2.17632e-05
-5.60535e-08
2.09989e-07
-1.90247e-07
5.45278e-07
-3.76032e-07
7.83803e-07
-5.93197e-07
9.35101e-07
-8.2777e-07
1.02069e-06
-1.07113e-06
1.06386e-06
-1.31852e-06
1.08317e-06
-1.56755e-06
1.09056e-06
-1.8171e-06
1.09259e-06
-2.06668e-06
1.0924e-06
-2.31608e-06
1.09131e-06
-2.56516e-06
1.08983e-06
-2.81387e-06
1.08813e-06
-3.06214e-06
1.08626e-06
-3.30993e-06
1.08424e-06
-3.5572e-06
1.08207e-06
-3.80391e-06
1.07974e-06
-4.05001e-06
1.07725e-06
-4.29546e-06
1.0746e-06
-4.54023e-06
1.0718e-06
-4.78427e-06
1.06882e-06
-5.02754e-06
1.06569e-06
-5.27001e-06
1.06239e-06
-5.51163e-06
1.05893e-06
-5.75236e-06
1.0553e-06
-5.99217e-06
1.0515e-06
-6.23101e-06
1.04755e-06
-6.46885e-06
1.04342e-06
-6.70564e-06
1.03913e-06
-6.94134e-06
1.03467e-06
-7.17592e-06
1.03005e-06
-7.40934e-06
1.02526e-06
-7.64155e-06
1.0203e-06
-7.87252e-06
1.01518e-06
-8.1022e-06
1.00989e-06
-8.33056e-06
1.00443e-06
-8.55757e-06
9.98811e-07
-8.78317e-06
9.93025e-07
-9.00733e-06
9.87073e-07
-9.23001e-06
9.80955e-07
-9.45118e-06
9.74673e-07
-9.67079e-06
9.68226e-07
-9.88881e-06
9.61616e-07
-1.01052e-05
9.54841e-07
-1.03199e-05
9.47903e-07
-1.05329e-05
9.40803e-07
-1.07442e-05
9.33541e-07
-1.09537e-05
9.26118e-07
-1.11613e-05
9.18535e-07
-1.13671e-05
9.10793e-07
-1.1571e-05
9.02893e-07
-1.1773e-05
8.94836e-07
-1.1973e-05
8.86624e-07
-1.21711e-05
8.78259e-07
-1.23671e-05
8.69741e-07
-1.2561e-05
8.61074e-07
-1.27528e-05
8.52259e-07
-1.29425e-05
8.43298e-07
-1.313e-05
8.34195e-07
-1.33154e-05
8.24953e-07
-1.34985e-05
8.15573e-07
-1.36793e-05
8.06061e-07
-1.38579e-05
7.9642e-07
-1.40341e-05
7.86654e-07
-1.4208e-05
7.76769e-07
-1.43795e-05
7.66768e-07
-1.45487e-05
7.56659e-07
-1.47154e-05
7.46448e-07
-1.48797e-05
7.36141e-07
-1.50416e-05
7.25746e-07
-1.5201e-05
7.15273e-07
-1.53579e-05
7.04731e-07
-1.55123e-05
6.9413e-07
-1.56642e-05
6.83482e-07
-1.58136e-05
6.72801e-07
-1.59605e-05
6.62101e-07
-1.61049e-05
6.51398e-07
-1.62467e-05
6.40709e-07
-1.63861e-05
6.30056e-07
-1.6523e-05
6.19459e-07
-1.66574e-05
6.08945e-07
-1.67894e-05
5.9854e-07
-1.69189e-05
5.88276e-07
-1.70461e-05
5.78189e-07
-1.7171e-05
5.68317e-07
-1.72936e-05
5.58706e-07
-1.74141e-05
5.49406e-07
-1.75324e-05
5.40475e-07
-1.76487e-05
5.31979e-07
-1.77631e-05
5.23993e-07
-1.78758e-05
5.16603e-07
-1.79868e-05
5.09908e-07
-1.80964e-05
5.04024e-07
-1.82047e-05
4.99082e-07
-1.83121e-05
4.9524e-07
-1.84187e-05
4.92679e-07
-1.85249e-05
4.91614e-07
-1.86311e-05
4.92299e-07
-1.87377e-05
4.95039e-07
-1.88452e-05
5.00198e-07
-1.89541e-05
5.08219e-07
-1.90652e-05
5.1964e-07
-1.91794e-05
5.35122e-07
-1.92974e-05
5.5549e-07
-1.94206e-05
5.81777e-07
-1.95503e-05
6.15296e-07
-1.96882e-05
6.57737e-07
-1.98361e-05
7.11311e-07
-1.99964e-05
7.7896e-07
-2.01719e-05
8.64671e-07
-2.03656e-05
9.73973e-07
-2.05807e-05
1.11467e-06
-2.08193e-05
1.29796e-06
-2.10811e-05
1.53984e-06
-2.13592e-05
1.86265e-06
-2.16336e-05
2.29552e-06
-2.18616e-05
2.87129e-06
-2.19682e-05
3.61647e-06
-2.18431e-05
4.53085e-06
5.55367e-06
-2.13655e-05
-5.69153e-08
2.66903e-07
-1.94098e-07
6.82461e-07
-3.84089e-07
9.73796e-07
-6.05916e-07
1.15693e-06
-8.45201e-07
1.25997e-06
-1.09318e-06
1.31184e-06
-1.34507e-06
1.33506e-06
-1.59852e-06
1.34401e-06
-1.85245e-06
1.34652e-06
-2.10639e-06
1.34633e-06
-2.36011e-06
1.34503e-06
-2.61352e-06
1.34324e-06
-2.86655e-06
1.34115e-06
-3.11913e-06
1.33884e-06
-3.37123e-06
1.33634e-06
-3.62279e-06
1.33363e-06
-3.87377e-06
1.33072e-06
-4.12413e-06
1.32762e-06
-4.37384e-06
1.32431e-06
-4.62284e-06
1.32079e-06
-4.87109e-06
1.31708e-06
-5.11856e-06
1.31316e-06
-5.3652e-06
1.30903e-06
-5.61097e-06
1.3047e-06
-5.85584e-06
1.30016e-06
-6.09975e-06
1.29542e-06
-6.34267e-06
1.29047e-06
-6.58457e-06
1.28531e-06
-6.82539e-06
1.27995e-06
-7.06509e-06
1.27438e-06
-7.30365e-06
1.2686e-06
-7.54101e-06
1.26262e-06
-7.77713e-06
1.25643e-06
-8.01199e-06
1.25003e-06
-8.24552e-06
1.24342e-06
-8.47771e-06
1.23661e-06
-8.70849e-06
1.2296e-06
-8.93785e-06
1.22238e-06
-9.16572e-06
1.21495e-06
-9.39209e-06
1.20732e-06
-9.6169e-06
1.19948e-06
-9.84011e-06
1.19144e-06
-1.00617e-05
1.1832e-06
-1.02816e-05
1.17475e-06
-1.04998e-05
1.16611e-06
-1.07163e-05
1.15726e-06
-1.09309e-05
1.14821e-06
-1.11438e-05
1.13896e-06
-1.13548e-05
1.12952e-06
-1.15638e-05
1.11987e-06
-1.1771e-05
1.11004e-06
-1.19762e-05
1.10001e-06
-1.21793e-05
1.08979e-06
-1.23804e-05
1.07938e-06
-1.25795e-05
1.06878e-06
-1.27764e-05
1.058e-06
-1.29712e-05
1.04703e-06
-1.31638e-05
1.03589e-06
-1.33541e-05
1.02457e-06
-1.35423e-05
1.01308e-06
-1.37281e-05
1.00142e-06
-1.39116e-05
9.89599e-07
-1.40928e-05
9.77619e-07
-1.42717e-05
9.65486e-07
-1.44481e-05
9.53206e-07
-1.46221e-05
9.40785e-07
-1.47937e-05
9.28231e-07
-1.49628e-05
9.15552e-07
-1.51294e-05
9.02755e-07
-1.52935e-05
8.89852e-07
-1.54551e-05
8.76852e-07
-1.56141e-05
8.63768e-07
-1.57706e-05
8.50612e-07
-1.59245e-05
8.37399e-07
-1.60759e-05
8.24145e-07
-1.62247e-05
8.10868e-07
-1.63708e-05
7.97586e-07
-1.65145e-05
7.84323e-07
-1.66555e-05
7.71102e-07
-1.6794e-05
7.5795e-07
-1.69299e-05
7.44897e-07
-1.70634e-05
7.31977e-07
-1.71943e-05
7.19228e-07
-1.73228e-05
7.06693e-07
-1.74489e-05
6.94419e-07
-1.75727e-05
6.82461e-07
-1.76942e-05
6.70879e-07
-1.78134e-05
6.59743e-07
-1.79306e-05
6.49131e-07
-1.80457e-05
6.39134e-07
-1.8159e-05
6.29854e-07
-1.82705e-05
6.2141e-07
-1.83804e-05
6.13939e-07
-1.84889e-05
6.07599e-07
-1.85962e-05
6.02574e-07
-1.87026e-05
5.99079e-07
-1.88084e-05
5.97368e-07
-1.89138e-05
5.97739e-07
-1.90193e-05
6.00546e-07
-1.91254e-05
6.06215e-07
-1.92324e-05
6.15254e-07
-1.9341e-05
6.28283e-07
-1.9452e-05
6.46057e-07
-1.9566e-05
6.69505e-07
-1.9684e-05
6.99782e-07
-1.9807e-05
7.38335e-07
-1.99363e-05
7.87e-07
-2.00731e-05
8.48127e-07
-2.02189e-05
9.2476e-07
-2.03751e-05
1.02089e-06
-2.0543e-05
1.14181e-06
-2.07229e-05
1.2946e-06
-2.09136e-05
1.48868e-06
-2.11103e-05
1.73652e-06
-2.13015e-05
2.05381e-06
-2.14646e-05
2.45864e-06
-2.15612e-05
2.96792e-06
-2.15342e-05
3.58951e-06
-2.13128e-05
4.30941e-06
5.07522e-06
-2.08344e-05
-5.7084e-08
3.23986e-07
-1.95447e-07
8.20823e-07
-3.87311e-07
1.16566e-06
-6.11317e-07
1.38094e-06
-8.52843e-07
1.5015e-06
-1.10301e-06
1.56201e-06
-1.35702e-06
1.58907e-06
-1.61253e-06
1.59951e-06
-1.86846e-06
1.60246e-06
-2.12437e-06
1.60225e-06
-2.38006e-06
1.60073e-06
-2.63543e-06
1.5986e-06
-2.8904e-06
1.59612e-06
-3.14493e-06
1.59337e-06
-3.39897e-06
1.59037e-06
-3.65247e-06
1.58713e-06
-3.90538e-06
1.58364e-06
-4.15767e-06
1.5799e-06
-4.40929e-06
1.57593e-06
-4.6602e-06
1.57171e-06
-4.91036e-06
1.56724e-06
-5.15972e-06
1.56252e-06
-5.40825e-06
1.55756e-06
-5.6559e-06
1.55235e-06
-5.90264e-06
1.5469e-06
-6.14841e-06
1.54119e-06
-6.39318e-06
1.53524e-06
-6.63691e-06
1.52904e-06
-6.87955e-06
1.52259e-06
-7.12107e-06
1.5159e-06
-7.36143e-06
1.50895e-06
-7.60057e-06
1.50176e-06
-7.83847e-06
1.49433e-06
-8.07508e-06
1.48664e-06
-8.31037e-06
1.47871e-06
-8.54428e-06
1.47053e-06
-8.77678e-06
1.4621e-06
-9.00784e-06
1.45343e-06
-9.2374e-06
1.44451e-06
-9.46543e-06
1.43535e-06
-9.69189e-06
1.42595e-06
-9.91674e-06
1.4163e-06
-1.01399e-05
1.4064e-06
-1.03615e-05
1.39627e-06
-1.05812e-05
1.38589e-06
-1.07993e-05
1.37528e-06
-1.10155e-05
1.36442e-06
-1.12298e-05
1.35333e-06
-1.14423e-05
1.342e-06
-1.16529e-05
1.33044e-06
-1.18615e-05
1.31865e-06
-1.20681e-05
1.30662e-06
-1.22727e-05
1.29437e-06
-1.24752e-05
1.28189e-06
-1.26756e-05
1.26919e-06
-1.28739e-05
1.25627e-06
-1.307e-05
1.24314e-06
-1.32639e-05
1.22979e-06
-1.34556e-05
1.21623e-06
-1.3645e-05
1.20247e-06
-1.3832e-05
1.1885e-06
-1.40168e-05
1.17435e-06
-1.41992e-05
1.16e-06
-1.43792e-05
1.14547e-06
-1.45567e-05
1.13077e-06
-1.47318e-05
1.1159e-06
-1.49045e-05
1.10087e-06
-1.50746e-05
1.0857e-06
-1.52422e-05
1.07038e-06
-1.54073e-05
1.05493e-06
-1.55699e-05
1.03938e-06
-1.57298e-05
1.02371e-06
-1.58872e-05
1.00797e-06
-1.60419e-05
9.92154e-07
-1.61941e-05
9.76288e-07
-1.63436e-05
9.60393e-07
-1.64905e-05
9.44492e-07
-1.66348e-05
9.28609e-07
-1.67764e-05
9.12773e-07
-1.69155e-05
8.97015e-07
-1.7052e-05
8.81372e-07
-1.71859e-05
8.65881e-07
-1.73172e-05
8.50587e-07
-1.74461e-05
8.35539e-07
-1.75725e-05
8.20793e-07
-1.76964e-05
8.06411e-07
-1.7818e-05
7.92463e-07
-1.79373e-05
7.79028e-07
-1.80543e-05
7.66199e-07
-1.81693e-05
7.54076e-07
-1.82822e-05
7.42779e-07
-1.83932e-05
7.32443e-07
-1.85025e-05
7.23221e-07
-1.86102e-05
7.15295e-07
-1.87165e-05
7.08872e-07
-1.88216e-05
7.04193e-07
-1.89258e-05
7.01543e-07
-1.90293e-05
7.01254e-07
-1.91325e-05
7.0372e-07
-1.92357e-05
7.09407e-07
-1.93393e-05
7.18874e-07
-1.94438e-05
7.3279e-07
-1.95497e-05
7.51968e-07
-1.96576e-05
7.77394e-07
-1.97681e-05
8.10278e-07
-1.98819e-05
8.52113e-07
-1.99996e-05
9.04756e-07
-2.01221e-05
9.7053e-07
-2.02496e-05
1.05236e-06
-2.03827e-05
1.15394e-06
-2.05208e-05
1.27996e-06
-2.06626e-05
1.43634e-06
-2.08044e-05
1.63046e-06
-2.09391e-05
1.87127e-06
-2.10542e-05
2.16892e-06
-2.1129e-05
2.53345e-06
-2.11329e-05
2.97176e-06
-2.10257e-05
3.4823e-06
-2.0764e-05
4.0477e-06
4.62756e-06
-2.03163e-05
-5.70456e-08
3.81033e-07
-1.95827e-07
9.59604e-07
-3.88503e-07
1.35834e-06
-6.13534e-07
1.60597e-06
-8.56155e-07
1.74412e-06
-1.10741e-06
1.81327e-06
-1.36247e-06
1.84413e-06
-1.61898e-06
1.85602e-06
-1.87588e-06
1.85936e-06
-2.13275e-06
1.85911e-06
-2.38938e-06
1.85735e-06
-2.64567e-06
1.8549e-06
-2.90157e-06
1.85202e-06
-3.15702e-06
1.84882e-06
-3.41197e-06
1.84533e-06
-3.66638e-06
1.84154e-06
-3.92021e-06
1.83747e-06
-4.17341e-06
1.83311e-06
-4.42594e-06
1.82846e-06
-4.67776e-06
1.82352e-06
-4.92882e-06
1.8183e-06
-5.17909e-06
1.81279e-06
-5.42851e-06
1.80699e-06
-5.67706e-06
1.8009e-06
-5.92468e-06
1.79452e-06
-6.17133e-06
1.78785e-06
-6.41699e-06
1.78089e-06
-6.66159e-06
1.77365e-06
-6.90511e-06
1.76611e-06
-7.14749e-06
1.75828e-06
-7.38871e-06
1.75017e-06
-7.62871e-06
1.74177e-06
-7.86746e-06
1.73308e-06
-8.10492e-06
1.7241e-06
-8.34104e-06
1.71483e-06
-8.57579e-06
1.70527e-06
-8.80912e-06
1.69543e-06
-9.04099e-06
1.6853e-06
-9.27136e-06
1.67489e-06
-9.5002e-06
1.66419e-06
-9.72746e-06
1.65321e-06
-9.95311e-06
1.64194e-06
-1.01771e-05
1.63039e-06
-1.03994e-05
1.61856e-06
-1.06199e-05
1.60645e-06
-1.08387e-05
1.59405e-06
-1.10557e-05
1.58139e-06
-1.12708e-05
1.56844e-06
-1.1484e-05
1.55522e-06
-1.16953e-05
1.54173e-06
-1.19046e-05
1.52797e-06
-1.21119e-05
1.51394e-06
-1.23172e-05
1.49965e-06
-1.25204e-05
1.4851e-06
-1.27215e-05
1.47028e-06
-1.29205e-05
1.45521e-06
-1.31172e-05
1.43989e-06
-1.33117e-05
1.42432e-06
-1.3504e-05
1.40851e-06
-1.3694e-05
1.39246e-06
-1.38817e-05
1.37618e-06
-1.4067e-05
1.35968e-06
-1.425e-05
1.34295e-06
-1.44305e-05
1.32601e-06
-1.46086e-05
1.30887e-06
-1.47843e-05
1.29154e-06
-1.49574e-05
1.27402e-06
-1.5128e-05
1.25632e-06
-1.52961e-05
1.23847e-06
-1.54617e-05
1.22046e-06
-1.56246e-05
1.20232e-06
-1.57849e-05
1.18406e-06
-1.59427e-05
1.1657e-06
-1.60978e-05
1.14725e-06
-1.62502e-05
1.12875e-06
-1.64e-05
1.1102e-06
-1.65472e-05
1.09165e-06
-1.66917e-05
1.07311e-06
-1.68335e-05
1.05462e-06
-1.69727e-05
1.03622e-06
-1.71093e-05
1.01793e-06
-1.72432e-05
9.99821e-07
-1.73746e-05
9.81926e-07
-1.75034e-05
9.64303e-07
-1.76296e-05
9.47016e-07
-1.77533e-05
9.30133e-07
-1.78746e-05
9.13733e-07
-1.79934e-05
8.97904e-07
-1.811e-05
8.82748e-07
-1.82243e-05
8.68379e-07
-1.83364e-05
8.54925e-07
-1.84465e-05
8.42536e-07
-1.85547e-05
8.31382e-07
-1.86611e-05
8.21659e-07
-1.87658e-05
8.13594e-07
-1.8869e-05
8.07448e-07
-1.8971e-05
8.03526e-07
-1.90719e-05
8.02185e-07
-1.91721e-05
8.03844e-07
-1.92717e-05
8.08994e-07
-1.9371e-05
8.18221e-07
-1.94704e-05
8.32219e-07
-1.95703e-05
8.51819e-07
-1.96709e-05
8.78019e-07
-1.97727e-05
9.12026e-07
-1.98758e-05
9.55299e-07
-1.99807e-05
1.00962e-06
-2.00873e-05
1.07715e-06
-2.01955e-05
1.16053e-06
-2.03046e-05
1.26301e-06
-2.04131e-05
1.38846e-06
-2.05183e-05
1.54156e-06
-2.06155e-05
1.7277e-06
-2.06971e-05
1.95288e-06
-2.07513e-05
2.22306e-06
-2.07608e-05
2.54295e-06
-2.07028e-05
2.91375e-06
-2.05503e-05
3.32981e-06
-2.02774e-05
3.77477e-06
4.21881e-06
-1.98686e-05
-5.6987e-08
4.38021e-07
-1.95926e-07
1.09854e-06
-3.88993e-07
1.5514e-06
-6.14569e-07
1.83154e-06
-8.57806e-07
1.98736e-06
-1.10969e-06
2.06516e-06
-1.36537e-06
2.0998e-06
-1.62247e-06
2.11312e-06
-1.87995e-06
2.11685e-06
-2.13737e-06
2.11653e-06
-2.39455e-06
2.11453e-06
-2.65138e-06
2.11173e-06
-2.90781e-06
2.10845e-06
-3.16379e-06
2.1048e-06
-3.41927e-06
2.10081e-06
-3.67421e-06
2.09648e-06
-3.92857e-06
2.09182e-06
-4.1823e-06
2.08683e-06
-4.43535e-06
2.08151e-06
-4.68769e-06
2.07586e-06
-4.93928e-06
2.06988e-06
-5.19007e-06
2.06357e-06
-5.44001e-06
2.05693e-06
-5.68908e-06
2.04996e-06
-5.93722e-06
2.04266e-06
-6.18439e-06
2.03502e-06
-6.43056e-06
2.02706e-06
-6.67568e-06
2.01876e-06
-6.91971e-06
2.01014e-06
-7.1626e-06
2.00118e-06
-7.40433e-06
1.99189e-06
-7.64484e-06
1.98228e-06
-7.88409e-06
1.97233e-06
-8.12205e-06
1.96205e-06
-8.35867e-06
1.95145e-06
-8.59391e-06
1.94052e-06
-8.82773e-06
1.92925e-06
-9.06009e-06
1.91767e-06
-9.29096e-06
1.90575e-06
-9.52028e-06
1.89351e-06
-9.74802e-06
1.88095e-06
-9.97414e-06
1.86806e-06
-1.01986e-05
1.85485e-06
-1.04214e-05
1.84132e-06
-1.06424e-05
1.82746e-06
-1.08616e-05
1.81329e-06
-1.1079e-05
1.79881e-06
-1.12946e-05
1.78401e-06
-1.15083e-05
1.76889e-06
-1.172e-05
1.75347e-06
-1.19298e-05
1.73773e-06
-1.21375e-05
1.7217e-06
-1.23432e-05
1.70536e-06
-1.25469e-05
1.68872e-06
-1.27484e-05
1.67178e-06
-1.29477e-05
1.65456e-06
-1.31449e-05
1.63705e-06
-1.33398e-05
1.61925e-06
-1.35325e-05
1.60118e-06
-1.37228e-05
1.58284e-06
-1.39109e-05
1.56423e-06
-1.40966e-05
1.54537e-06
-1.42799e-05
1.52625e-06
-1.44607e-05
1.50689e-06
-1.46392e-05
1.4873e-06
-1.48151e-05
1.46749e-06
-1.49886e-05
1.44746e-06
-1.51595e-05
1.42723e-06
-1.53278e-05
1.40682e-06
-1.54936e-05
1.38623e-06
-1.56568e-05
1.36549e-06
-1.58173e-05
1.34461e-06
-1.59752e-05
1.32361e-06
-1.61305e-05
1.30251e-06
-1.62831e-05
1.28134e-06
-1.6433e-05
1.26012e-06
-1.65802e-05
1.23888e-06
-1.67248e-05
1.21765e-06
-1.68666e-05
1.19647e-06
-1.70058e-05
1.17537e-06
-1.71423e-05
1.15441e-06
-1.72761e-05
1.13362e-06
-1.74072e-05
1.11307e-06
-1.75357e-05
1.0928e-06
-1.76616e-05
1.0729e-06
-1.77849e-05
1.05344e-06
-1.79057e-05
1.03449e-06
-1.80239e-05
1.01617e-06
-1.81397e-05
9.9857e-07
-1.82532e-05
9.81821e-07
-1.83643e-05
9.66059e-07
-1.84732e-05
9.51446e-07
-1.858e-05
9.38161e-07
-1.86848e-05
9.26413e-07
-1.87876e-05
9.16441e-07
-1.88887e-05
9.08519e-07
-1.89881e-05
9.02966e-07
-1.90861e-05
9.00152e-07
-1.91827e-05
9.00506e-07
-1.92783e-05
9.04532e-07
-1.93729e-05
9.12818e-07
-1.94667e-05
9.2606e-07
-1.956e-05