/*--------------------------------*- C++ -*----------------------------------*\
  =========                 |
  \\      /  F ield         | OpenFOAM: The Open Source CFD Toolbox
   \\    /   O peration     | Website:  https://openfoam.org
    \\  /    A nd           | Version:  8
     \\/     M anipulation  |
\*---------------------------------------------------------------------------*/
FoamFile
{
    version     2.0;
    format      ascii;
    class       surfaceScalarField;
    location    "46";
    object      phi;
}
// * * * * * * * * * * * * * * * * * * * * * * * * * * * * * * * * * * * * * //

dimensions      [0 3 -1 0 0 0 0];

internalField   nonuniform List<scalar> 
760
(
0.0004
-2.51625e-18
0.0004
-1.21688e-17
0.0004
-2.82239e-17
0.0004
-5.15379e-17
0.0004
-8.3383e-17
0.0004
-1.25425e-16
0.0004
-1.7995e-16
0.0004
-2.49515e-16
0.0004
-3.37189e-16
0.0004
-4.46525e-16
0.0004
-5.81969e-16
0.0004
-7.4863e-16
0.0004
-9.5275e-16
0.0004
-1.20151e-15
0.0004
-1.50365e-15
0.0004
-1.86956e-15
0.0004
-2.31084e-15
0.0004
-2.84534e-15
0.0004
-3.46726e-15
-4.35573e-15
0.0004
-3.94972e-18
0.0004
-1.65198e-17
0.0004
-3.55111e-17
0.0004
-6.14728e-17
0.0004
-9.57774e-17
0.0004
-1.4036e-16
0.0004
-1.97305e-16
0.0004
-2.69169e-16
0.0004
-3.59083e-16
0.0004
-4.70601e-16
0.0004
-6.08075e-16
0.0004
-7.76692e-16
0.0004
-9.82336e-16
0.0004
-1.23236e-15
0.0004
-1.53536e-15
0.0004
-1.90149e-15
0.0004
-2.34252e-15
0.0004
-2.87575e-15
0.0004
-3.49586e-15
-4.38202e-15
0.0004
-5.09721e-18
0.0004
-1.99305e-17
0.0004
-4.15254e-17
0.0004
-7.00001e-17
0.0004
-1.0678e-16
0.0004
-1.53661e-16
0.0004
-2.12863e-16
0.0004
-2.86954e-16
0.0004
-3.79051e-16
0.0004
-4.9266e-16
0.0004
-6.32179e-16
0.0004
-8.02483e-16
0.0004
-1.00977e-15
0.0004
-1.26118e-15
0.0004
-1.56514e-15
0.0004
-1.93194e-15
0.0004
-2.37319e-15
0.0004
-2.90623e-15
0.0004
-3.52623e-15
-4.41272e-15
0.0004
-5.70525e-18
0.0004
-2.24411e-17
0.0004
-4.62396e-17
0.0004
-7.69612e-17
0.0004
-1.1592e-16
0.0004
-1.6494e-16
0.0004
-2.26229e-16
0.0004
-3.02381e-16
0.0004
-3.96465e-16
0.0004
-5.1211e-16
0.0004
-6.53407e-16
0.0004
-8.25522e-16
0.0004
-1.0344e-15
0.0004
-1.28724e-15
0.0004
-1.59242e-15
0.0004
-1.9602e-15
0.0004
-2.40222e-15
0.0004
-2.93581e-15
0.0004
-3.55692e-15
-4.4448e-15
0.0004
-6.16804e-18
0.0004
-2.42805e-17
0.0004
-4.98264e-17
0.0004
-8.23836e-17
0.0004
-1.23123e-16
0.0004
-1.74e-16
0.0004
-2.37134e-16
0.0004
-3.15169e-16
0.0004
-4.11005e-16
0.0004
-5.28378e-16
0.0004
-6.7148e-16
0.0004
-8.45245e-16
0.0004
-1.05566e-15
0.0004
-1.30989e-15
0.0004
-1.61637e-15
0.0004
-1.98533e-15
0.0004
-2.42853e-15
0.0004
-2.96319e-15
0.0004
-3.5859e-15
-4.47585e-15
0.0004
-6.42377e-18
0.0004
-2.55438e-17
0.0004
-5.24779e-17
0.0004
-8.64658e-17
0.0004
-1.28686e-16
0.0004
-1.80946e-16
0.0004
-2.45649e-16
0.0004
-3.25148e-16
0.0004
-4.22616e-16
0.0004
-5.41539e-16
0.0004
-6.86052e-16
0.0004
-8.6121e-16
0.0004
-1.07306e-15
0.0004
-1.32862e-15
0.0004
-1.63646e-15
0.0004
-2.00664e-15
0.0004
-2.45104e-15
0.0004
-2.987e-15
0.0004
-3.61162e-15
-4.50389e-15
0.0004
-6.64177e-18
0.0004
-2.6467e-17
0.0004
-5.43295e-17
0.0004
-8.9367e-17
0.0004
-1.3268e-16
0.0004
-1.86169e-16
0.0004
-2.51924e-16
0.0004
-3.32662e-16
0.0004
-4.31306e-16
0.0004
-5.51374e-16
0.0004
-6.97098e-16
0.0004
-8.73545e-16
0.0004
-1.08655e-15
0.0004
-1.34324e-15
0.0004
-1.65217e-15
0.0004
-2.02346e-15
0.0004
-2.46913e-15
0.0004
-3.00639e-15
0.0004
-3.63277e-15
-4.52736e-15
0.0004
-6.77971e-18
0.0004
-2.70334e-17
0.0004
-5.56316e-17
0.0004
-9.13702e-17
0.0004
-1.35361e-16
0.0004
-1.8963e-16
0.0004
-2.56211e-16
0.0004
-3.37844e-16
0.0004
-4.37328e-16
0.0004
-5.58223e-16
0.0004
-7.04825e-16
0.0004
-8.82131e-16
0.0004
-1.09601e-15
0.0004
-1.35365e-15
0.0004
-1.66342e-15
0.0004
-2.0356e-15
0.0004
-2.48226e-15
0.0004
-3.02067e-15
0.0004
-3.6486e-15
-4.545e-15
0.0004
-6.92254e-18
0.0004
-2.73781e-17
0.0004
-5.62947e-17
0.0004
-9.24049e-17
0.0004
-1.36959e-16
0.0004
-1.91664e-16
0.0004
-2.58781e-16
0.0004
-3.40842e-16
0.0004
-4.4082e-16
0.0004
-5.6224e-16
0.0004
-7.09398e-16
0.0004
-8.87204e-16
0.0004
-1.10165e-15
0.0004
-1.35982e-15
0.0004
-1.67022e-15
0.0004
-2.043e-15
0.0004
-2.49028e-15
0.0004
-3.02941e-15
0.0004
-3.65826e-15
-4.55593e-15
0.0004
-6.93286e-18
0.0004
-2.75328e-17
0.0004
-5.65127e-17
0.0004
-9.28333e-17
0.0004
-1.37502e-16
0.0004
-1.9239e-16
0.0004
-2.5967e-16
0.0004
-3.41796e-16
0.0004
-4.41936e-16
0.0004
-5.63628e-16
0.0004
-7.10948e-16
0.0004
-8.88916e-16
0.0004
-1.10358e-15
0.0004
-1.36188e-15
0.0004
-1.67241e-15
0.0004
-2.04545e-15
0.0004
-2.49301e-15
0.0004
-3.03237e-15
0.0004
-3.66155e-15
-4.55959e-15
0.0004
-6.89984e-18
0.0004
-2.73693e-17
0.0004
-5.62923e-17
0.0004
-9.25623e-17
0.0004
-1.37045e-16
0.0004
-1.91755e-16
0.0004
-2.58886e-16
0.0004
-3.40881e-16
0.0004
-4.40849e-16
0.0004
-5.62335e-16
0.0004
-7.09489e-16
0.0004
-8.87302e-16
0.0004
-1.10173e-15
0.0004
-1.35988e-15
0.0004
-1.67023e-15
0.0004
-2.04301e-15
0.0004
-2.49034e-15
0.0004
-3.0295e-15
0.0004
-3.65832e-15
-4.55593e-15
0.0004
-6.77227e-18
0.0004
-2.6979e-17
0.0004
-5.56443e-17
0.0004
-9.14953e-17
0.0004
-1.35574e-16
0.0004
-1.89771e-16
0.0004
-2.564e-16
0.0004
-3.37954e-16
0.0004
-4.37422e-16
0.0004
-5.58382e-16
0.0004
-7.05003e-16
0.0004
-8.82275e-16
0.0004
-1.09612e-15
0.0004
-1.3537e-15
0.0004
-1.66355e-15
0.0004
-2.03576e-15
0.0004
-2.48248e-15
0.0004
-3.02081e-15
0.0004
-3.64867e-15
-4.54509e-15
0.0004
-6.65019e-18
0.0004
-2.64016e-17
0.0004
-5.4419e-17
0.0004
-8.95267e-17
0.0004
-1.32859e-16
0.0004
-1.8633e-16
0.0004
-2.52141e-16
0.0004
-3.32886e-16
0.0004
-4.31467e-16
0.0004
-5.5155e-16
0.0004
-6.9736e-16
0.0004
-8.73754e-16
0.0004
-1.08676e-15
0.0004
-1.34348e-15
0.0004
-1.65234e-15
0.0004
-2.02366e-15
0.0004
-2.46934e-15
0.0004
-3.00659e-15
0.0004
-3.63297e-15
-4.5275e-15
0.0004
-6.48233e-18
0.0004
-2.5594e-17
0.0004
-5.25311e-17
0.0004
-8.65809e-17
0.0004
-1.28881e-16
0.0004
-1.81225e-16
0.0004
-2.45884e-16
0.0004
-3.2538e-16
0.0004
-4.22834e-16
0.0004
-5.41762e-16
0.0004
-6.86319e-16
0.0004
-8.6157e-16
0.0004
-1.07343e-15
0.0004
-1.32901e-15
0.0004
-1.63677e-15
0.0004
-2.00694e-15
0.0004
-2.45132e-15
0.0004
-2.98719e-15
0.0004
-3.61173e-15
-4.50392e-15
0.0004
-6.07712e-18
0.0004
-2.42773e-17
0.0004
-4.9981e-17
0.0004
-8.26126e-17
0.0004
-1.23399e-16
0.0004
-1.74289e-16
0.0004
-2.37392e-16
0.0004
-3.15405e-16
0.0004
-4.11331e-16
0.0004
-5.28708e-16
0.0004
-6.71847e-16
0.0004
-8.45669e-16
0.0004
-1.05615e-15
0.0004
-1.31041e-15
0.0004
-1.61687e-15
0.0004
-1.9857e-15
0.0004
-2.42877e-15
0.0004
-2.96334e-15
0.0004
-3.58595e-15
-4.47574e-15
0.0004
-5.68639e-18
0.0004
-2.24639e-17
0.0004
-4.64346e-17
0.0004
-7.72786e-17
0.0004
-1.1624e-16
0.0004
-1.65181e-16
0.0004
-2.26444e-16
0.0004
-3.0266e-16
0.0004
-3.96841e-16
0.0004
-5.12555e-16
0.0004
-6.53942e-16
0.0004
-8.26089e-16
0.0004
-1.03501e-15
0.0004
-1.28784e-15
0.0004
-1.59298e-15
0.0004
-1.9606e-15
0.0004
-2.40256e-15
0.0004
-2.93602e-15
0.0004
-3.55692e-15
-4.44462e-15
0.0004
-5.01502e-18
0.0004
-1.99617e-17
0.0004
-4.17252e-17
0.0004
-7.03721e-17
0.0004
-1.07113e-16
0.0004
-1.53978e-16
0.0004
-2.13153e-16
0.0004
-2.87315e-16
0.0004
-3.79456e-16
0.0004
-4.93171e-16
0.0004
-6.32794e-16
0.0004
-8.03186e-16
0.0004
-1.01045e-15
0.0004
-1.2618e-15
0.0004
-1.56574e-15
0.0004
-1.93244e-15
0.0004
-2.37352e-15
0.0004
-2.90638e-15
0.0004
-3.52624e-15
-4.41255e-15
0.0004
-4.03521e-18
0.0004
-1.64965e-17
0.0004
-3.56998e-17
0.0004
-6.17994e-17
0.0004
-9.61503e-17
0.0004
-1.40669e-16
0.0004
-1.97636e-16
0.0004
-2.69593e-16
0.0004
-3.59574e-16
0.0004
-4.71207e-16
0.0004
-6.08756e-16
0.0004
-7.77368e-16
0.0004
-9.83041e-16
0.0004
-1.23304e-15
0.0004
-1.53593e-15
0.0004
-1.90201e-15
0.0004
-2.34288e-15
0.0004
-2.87597e-15
0.0004
-3.49587e-15
-4.38173e-15
0.0004
-2.52765e-18
0.0004
-1.22547e-17
0.0004
-2.83958e-17
0.0004
-5.18046e-17
0.0004
-8.36906e-17
0.0004
-1.25828e-16
0.0004
-1.80417e-16
0.0004
-2.50019e-16
0.0004
-3.37733e-16
0.0004
-4.47157e-16
0.0004
-5.8271e-16
0.0004
-7.49455e-16
0.0004
-9.53588e-16
0.0004
-1.20231e-15
0.0004
-1.50435e-15
0.0004
-1.87008e-15
0.0004
-2.31126e-15
0.0004
-2.84552e-15
0.0004
-3.46719e-15
-4.35546e-15
0.0004
0.0004
0.0004
0.0004
0.0004
0.0004
0.0004
0.0004
0.0004
0.0004
0.0004
0.0004
0.0004
0.0004
0.0004
0.0004
0.0004
0.0004
0.0004
)
;

boundaryField
{
    inlet
    {
        type            calculated;
        value           nonuniform List<scalar> 
20
(
-0.0004
-0.0004
-0.0004
-0.0004
-0.0004
-0.0004
-0.0004
-0.0004
-0.0004
-0.0004
-0.0004
-0.0004
-0.0004
-0.0004
-0.0004
-0.0004
-0.0004
-0.0004
-0.0004
-0.0004
)
;
    }
    outlet
    {
        type            calculated;
        value           nonuniform List<scalar> 
20
(
0.0004
0.0004
0.0004
0.0004
0.0004
0.0004
0.0004
0.0004
0.0004
0.0004
0.0004
0.0004
0.0004
0.0004
0.0004
0.0004
0.0004
0.0004
0.0004
0.0004
)
;
    }
    up
    {
        type            calculated;
        value           nonuniform List<scalar> 
20
(
-5.12808e-19
-7.08166e-18
-2.06338e-17
-4.13147e-17
-7.05667e-17
-1.10171e-16
-1.62278e-16
-2.2948e-16
-3.14852e-16
-4.22033e-16
-5.55443e-16
-7.2031e-16
-9.22829e-16
-1.17033e-15
-1.47159e-15
-1.8372e-15
-2.27908e-15
-2.81489e-15
-3.44024e-15
-4.3345e-15
)
;
    }
    down
    {
        type            calculated;
        value           nonuniform List<scalar> 
20
(
5.49538e-19
7.10569e-18
2.04437e-17
4.10468e-17
7.02638e-17
1.09818e-16
1.61858e-16
2.28938e-16
3.14203e-16
4.21296e-16
5.54595e-16
7.19368e-16
9.21837e-16
1.16935e-15
1.47077e-15
1.83657e-15
2.27862e-15
2.81464e-15
3.44021e-15
4.33471e-15
)
;
    }
    frontAndBack
    {
        type            empty;
        value           nonuniform List<scalar> 0();
    }
}


// ************************************************************************* //
