/*--------------------------------*- C++ -*----------------------------------*\
  =========                 |
  \\      /  F ield         | OpenFOAM: The Open Source CFD Toolbox
   \\    /   O peration     | Website:  https://openfoam.org
    \\  /    A nd           | Version:  8
     \\/     M anipulation  |
\*---------------------------------------------------------------------------*/
FoamFile
{
    version     2.0;
    format      ascii;
    class       volVectorField;
    location    "46";
    object      U;
}
// * * * * * * * * * * * * * * * * * * * * * * * * * * * * * * * * * * * * * //

dimensions      [0 1 -1 0 0 0 0];

internalField   nonuniform List<vector> 
400
(
(1 -3.09361e-15 0)
(1 -1.85162e-14 0)
(1 -4.66665e-14 0)
(1 -8.95065e-14 0)
(1 -1.49548e-13 0)
(1 -2.30155e-13 0)
(1 -3.35766e-13 0)
(1 -4.71479e-13 0)
(1 -6.43517e-13 0)
(1 -8.59066e-13 0)
(1 -1.12696e-12 0)
(1 -1.45759e-12 0)
(1 -1.86347e-12 0)
(1 -2.3591e-12 0)
(1 -2.9622e-12 0)
(1 -3.69361e-12 0)
(1 -4.5768e-12 0)
(1 -5.64747e-12 0)
(1 -6.89524e-12 0)
(1 -8.67873e-12 0)
(1 -6.26466e-15 0)
(1 -2.80226e-14 0)
(1 -6.2656e-14 0)
(1 -1.11486e-13 0)
(1 -1.77246e-13 0)
(1 -2.63491e-13 0)
(1 -3.74578e-13 0)
(1 -5.15636e-13 0)
(1 -6.92864e-13 0)
(1 -9.13372e-13 0)
(1 -1.18597e-12 0)
(1 -1.52095e-12 0)
(1 -1.93046e-12 0)
(1 -2.42904e-12 0)
(1 -3.03401e-12 0)
(1 -3.76597e-12 0)
(1 -4.64829e-12 0)
(1 -5.71609e-12 0)
(1 -6.95831e-12 0)
(1 -8.73314e-12 0)
(1 -9.09012e-15 0)
(1 -3.67607e-14 0)
(1 -7.76737e-14 0)
(1 -1.32341e-13 0)
(1 -2.03604e-13 0)
(1 -2.95246e-13 0)
(1 -4.11559e-13 0)
(1 -5.57672e-13 0)
(1 -7.3982e-13 0)
(1 -9.65071e-13 0)
(1 -1.2422e-12 0)
(1 -1.58124e-12 0)
(1 -1.99424e-12 0)
(1 -2.49572e-12 0)
(1 -3.10267e-12 0)
(1 -3.83549e-12 0)
(1 -4.71758e-12 0)
(1 -5.78353e-12 0)
(1 -7.02302e-12 0)
(1 -8.79464e-12 0)
(1 -1.08707e-14 0)
(1 -4.27952e-14 0)
(1 -8.84938e-14 0)
(1 -1.47947e-13 0)
(1 -2.2389e-13 0)
(1 -3.19982e-13 0)
(1 -4.40648e-13 0)
(1 -5.91038e-13 0)
(1 -7.77353e-13 0)
(1 -1.00675e-12 0)
(1 -1.28768e-12 0)
(1 -1.63019e-12 0)
(1 -2.04642e-12 0)
(1 -2.55067e-12 0)
(1 -3.15979e-12 0)
(1 -3.89425e-12 0)
(1 -4.7773e-12 0)
(1 -5.84357e-12 0)
(1 -7.08417e-12 0)
(1 -8.85781e-12 0)
(1 -1.19117e-14 0)
(1 -4.69749e-14 0)
(1 -9.65697e-14 0)
(1 -1.60038e-13 0)
(1 -2.39932e-13 0)
(1 -3.39988e-13 0)
(1 -4.64551e-13 0)
(1 -6.18893e-13 0)
(1 -8.08957e-13 0)
(1 -1.04208e-12 0)
(1 -1.32658e-12 0)
(1 -1.67255e-12 0)
(1 -2.09191e-12 0)
(1 -2.59901e-12 0)
(1 -3.21065e-12 0)
(1 -3.94733e-12 0)
(1 -4.83243e-12 0)
(1 -5.90049e-12 0)
(1 -7.14406e-12 0)
(1 -8.92163e-12 0)
(1 -1.26157e-14 0)
(1 -4.9989e-14 0)
(1 -1.02671e-13 0)
(1 -1.69422e-13 0)
(1 -2.52573e-13 0)
(1 -3.55891e-13 0)
(1 -4.83906e-13 0)
(1 -6.41606e-13 0)
(1 -8.35069e-13 0)
(1 -1.07152e-12 0)
(1 -1.35928e-12 0)
(1 -1.70833e-12 0)
(1 -2.13071e-12 0)
(1 -2.64057e-12 0)
(1 -3.25494e-12 0)
(1 -3.99412e-12 0)
(1 -4.8817e-12 0)
(1 -5.95225e-12 0)
(1 -7.19953e-12 0)
(1 -8.98172e-12 0)
(1 -1.30726e-14 0)
(1 -5.21368e-14 0)
(1 -1.0711e-13 0)
(1 -1.76344e-13 0)
(1 -2.6206e-13 0)
(1 -3.67996e-13 0)
(1 -4.98649e-13 0)
(1 -6.59056e-13 0)
(1 -8.55341e-13 0)
(1 -1.09452e-12 0)
(1 -1.38493e-12 0)
(1 -1.73669e-12 0)
(1 -2.16169e-12 0)
(1 -2.67407e-12 0)
(1 -3.29095e-12 0)
(1 -4.03252e-12 0)
(1 -4.92264e-12 0)
(1 -5.99591e-12 0)
(1 -7.247e-12 0)
(1 -9.03398e-12 0)
(1 -1.34293e-14 0)
(1 -5.35997e-14 0)
(1 -1.1022e-13 0)
(1 -1.81172e-13 0)
(1 -2.68644e-13 0)
(1 -3.76579e-13 0)
(1 -5.09086e-13 0)
(1 -6.7165e-13 0)
(1 -8.69967e-13 0)
(1 -1.11111e-12 0)
(1 -1.40361e-12 0)
(1 -1.75754e-12 0)
(1 -2.1846e-12 0)
(1 -2.69909e-12 0)
(1 -3.31794e-12 0)
(1 -4.06154e-12 0)
(1 -4.95401e-12 0)
(1 -6.02982e-12 0)
(1 -7.28435e-12 0)
(1 -9.07562e-12 0)
(1 -1.3709e-14 0)
(1 -5.44966e-14 0)
(1 -1.12153e-13 0)
(1 -1.84135e-13 0)
(1 -2.72845e-13 0)
(1 -3.81981e-13 0)
(1 -5.15848e-13 0)
(1 -6.79726e-13 0)
(1 -8.79383e-13 0)
(1 -1.12187e-12 0)
(1 -1.41581e-12 0)
(1 -1.77111e-12 0)
(1 -2.19962e-12 0)
(1 -2.71561e-12 0)
(1 -3.33596e-12 0)
(1 -4.0811e-12 0)
(1 -4.97526e-12 0)
(1 -6.05301e-12 0)
(1 -7.31009e-12 0)
(1 -9.10452e-12 0)
(1 -1.38643e-14 0)
(1 -5.50016e-14 0)
(1 -1.13021e-13 0)
(1 -1.8558e-13 0)
(1 -2.74946e-13 0)
(1 -3.84714e-13 0)
(1 -5.19286e-13 0)
(1 -6.83634e-13 0)
(1 -8.83923e-13 0)
(1 -1.12722e-12 0)
(1 -1.42189e-12 0)
(1 -1.77785e-12 0)
(1 -2.20714e-12 0)
(1 -2.72381e-12 0)
(1 -3.34495e-12 0)
(1 -4.09098e-12 0)
(1 -4.98606e-12 0)
(1 -6.0648e-12 0)
(1 -7.32314e-12 0)
(1 -9.11926e-12 0)
(1 -1.3842e-14 0)
(1 -5.50015e-14 0)
(1 -1.13015e-13 0)
(1 -1.85754e-13 0)
(1 -2.75062e-13 0)
(1 -3.84817e-13 0)
(1 -5.19398e-13 0)
(1 -6.83693e-13 0)
(1 -8.83963e-13 0)
(1 -1.12733e-12 0)
(1 -1.42199e-12 0)
(1 -1.77795e-12 0)
(1 -2.20723e-12 0)
(1 -2.72387e-12 0)
(1 -3.34495e-12 0)
(1 -4.09098e-12 0)
(1 -4.9861e-12 0)
(1 -6.06487e-12 0)
(1 -7.32318e-12 0)
(1 -9.11924e-12 0)
(1 -1.36813e-14 0)
(1 -5.44348e-14 0)
(1 -1.12157e-13 0)
(1 -1.84443e-13 0)
(1 -2.73172e-13 0)
(1 -3.82238e-13 0)
(1 -5.16164e-13 0)
(1 -6.79888e-13 0)
(1 -8.79512e-13 0)
(1 -1.12213e-12 0)
(1 -1.41608e-12 0)
(1 -1.77135e-12 0)
(1 -2.1998e-12 0)
(1 -2.71569e-12 0)
(1 -3.33609e-12 0)
(1 -4.08127e-12 0)
(1 -4.97553e-12 0)
(1 -6.05324e-12 0)
(1 -7.31019e-12 0)
(1 -9.10459e-12 0)
(1 -1.34338e-14 0)
(1 -5.34666e-14 0)
(1 -1.10303e-13 0)
(1 -1.81444e-13 0)
(1 -2.69032e-13 0)
(1 -3.7688e-13 0)
(1 -5.09497e-13 0)
(1 -6.71974e-13 0)
(1 -8.70205e-13 0)
(1 -1.11142e-12 0)
(1 -1.40403e-12 0)
(1 -1.75788e-12 0)
(1 -2.18489e-12 0)
(1 -2.69936e-12 0)
(1 -3.31822e-12 0)
(1 -4.06192e-12 0)
(1 -4.95447e-12 0)
(1 -6.03021e-12 0)
(1 -7.28464e-12 0)
(1 -9.07587e-12 0)
(1 -1.31363e-14 0)
(1 -5.21186e-14 0)
(1 -1.0724e-13 0)
(1 -1.76585e-13 0)
(1 -2.62414e-13 0)
(1 -3.68412e-13 0)
(1 -4.99076e-13 0)
(1 -6.59507e-13 0)
(1 -8.55707e-13 0)
(1 -1.09489e-12 0)
(1 -1.38543e-12 0)
(1 -1.73723e-12 0)
(1 -2.16225e-12 0)
(1 -2.67469e-12 0)
(1 -3.29143e-12 0)
(1 -4.03303e-12 0)
(1 -4.92316e-12 0)
(1 -5.99635e-12 0)
(1 -7.24737e-12 0)
(1 -9.03422e-12 0)
(1 -1.25762e-14 0)
(1 -5.00308e-14 0)
(1 -1.02881e-13 0)
(1 -1.6975e-13 0)
(1 -2.53024e-13 0)
(1 -3.56464e-13 0)
(1 -4.84394e-13 0)
(1 -6.42062e-13 0)
(1 -8.35607e-13 0)
(1 -1.07207e-12 0)
(1 -1.3599e-12 0)
(1 -1.70909e-12 0)
(1 -2.13155e-12 0)
(1 -2.64148e-12 0)
(1 -3.25577e-12 0)
(1 -3.99479e-12 0)
(1 -4.88223e-12 0)
(1 -5.95261e-12 0)
(1 -7.19973e-12 0)
(1 -8.98167e-12 0)
(1 -1.18032e-14 0)
(1 -4.69979e-14 0)
(1 -9.69252e-14 0)
(1 -1.60608e-13 0)
(1 -2.40541e-13 0)
(1 -3.4053e-13 0)
(1 -4.65046e-13 0)
(1 -6.19408e-13 0)
(1 -8.09656e-13 0)
(1 -1.04286e-12 0)
(1 -1.32749e-12 0)
(1 -1.67357e-12 0)
(1 -2.09303e-12 0)
(1 -2.60015e-12 0)
(1 -3.21172e-12 0)
(1 -3.94811e-12 0)
(1 -4.83301e-12 0)
(1 -5.90084e-12 0)
(1 -7.14409e-12 0)
(1 -8.92134e-12 0)
(1 -1.07703e-14 0)
(1 -4.28391e-14 0)
(1 -8.89059e-14 0)
(1 -1.48668e-13 0)
(1 -2.24573e-13 0)
(1 -3.20545e-13 0)
(1 -4.41156e-13 0)
(1 -5.91693e-13 0)
(1 -7.7815e-13 0)
(1 -1.00772e-12 0)
(1 -1.28886e-12 0)
(1 -1.63148e-12 0)
(1 -2.04774e-12 0)
(1 -2.55192e-12 0)
(1 -3.16094e-12 0)
(1 -3.89512e-12 0)
(1 -4.77795e-12 0)
(1 -5.84392e-12 0)
(1 -7.08415e-12 0)
(1 -8.85742e-12 0)
(1 -9.08866e-15 0)
(1 -3.67772e-14 0)
(1 -7.80541e-14 0)
(1 -1.33045e-13 0)
(1 -2.04327e-13 0)
(1 -2.95888e-13 0)
(1 -4.12189e-13 0)
(1 -5.58468e-13 0)
(1 -7.40738e-13 0)
(1 -9.66234e-13 0)
(1 -1.24353e-12 0)
(1 -1.58263e-12 0)
(1 -1.99563e-12 0)
(1 -2.49701e-12 0)
(1 -3.10382e-12 0)
(1 -3.83652e-12 0)
(1 -4.71826e-12 0)
(1 -5.78387e-12 0)
(1 -7.02302e-12 0)
(1 -8.79412e-12 0)
(1 -6.36021e-15 0)
(1 -2.80793e-14 0)
(1 -6.30261e-14 0)
(1 -1.12094e-13 0)
(1 -1.77934e-13 0)
(1 -2.64208e-13 0)
(1 -3.7539e-13 0)
(1 -5.16592e-13 0)
(1 -6.93945e-13 0)
(1 -9.14658e-13 0)
(1 -1.18742e-12 0)
(1 -1.52249e-12 0)
(1 -1.93203e-12 0)
(1 -2.43053e-12 0)
(1 -3.03529e-12 0)
(1 -3.76703e-12 0)
(1 -4.64905e-12 0)
(1 -5.71645e-12 0)
(1 -6.95822e-12 0)
(1 -8.73258e-12 0)
(1 -3.07478e-15 0)
(1 -1.85897e-14 0)
(1 -4.70319e-14 0)
(1 -9.00216e-14 0)
(1 -1.5014e-13 0)
(1 -2.30904e-13 0)
(1 -3.3665e-13 0)
(1 -4.72517e-13 0)
(1 -6.44687e-13 0)
(1 -8.604e-13 0)
(1 -1.12853e-12 0)
(1 -1.45935e-12 0)
(1 -1.86531e-12 0)
(1 -2.36092e-12 0)
(1 -2.96375e-12 0)
(1 -3.69478e-12 0)
(1 -4.57773e-12 0)
(1 -5.64794e-12 0)
(1 -6.89523e-12 0)
(1 -8.67827e-12 0)
)
;

boundaryField
{
    inlet
    {
        type            fixedValue;
        value           uniform (1 0 0);
    }
    outlet
    {
        type            zeroGradient;
    }
    up
    {
        type            zeroGradient;
    }
    down
    {
        type            zeroGradient;
    }
    frontAndBack
    {
        type            empty;
    }
}


// ************************************************************************* //
