/*--------------------------------*- C++ -*----------------------------------*\
  =========                 |
  \\      /  F ield         | OpenFOAM: The Open Source CFD Toolbox
   \\    /   O peration     | Website:  https://openfoam.org
    \\  /    A nd           | Version:  8
     \\/     M anipulation  |
\*---------------------------------------------------------------------------*/
FoamFile
{
    version     2.0;
    format      ascii;
    class       surfaceScalarField;
    location    "48.5";
    object      phi;
}
// * * * * * * * * * * * * * * * * * * * * * * * * * * * * * * * * * * * * * //

dimensions      [0 3 -1 0 0 0 0];

internalField   nonuniform List<scalar> 
22960
(
-2.11495e-07
2.11498e-07
-8.22348e-07
6.10853e-07
-1.61264e-06
7.9029e-07
-2.47304e-06
8.60405e-07
-3.35326e-06
8.80216e-07
-4.23655e-06
8.83295e-07
-5.11961e-06
8.83057e-07
-6.00266e-06
8.83048e-07
-6.88646e-06
8.838e-07
-7.77162e-06
8.85164e-07
-8.65857e-06
8.86944e-07
-9.54758e-06
8.89015e-07
-1.04389e-05
8.91302e-07
-1.13326e-05
8.9376e-07
-1.2229e-05
8.96358e-07
-1.31281e-05
8.99066e-07
-1.40299e-05
9.0186e-07
-1.49346e-05
9.04714e-07
-1.58422e-05
9.07599e-07
-1.67527e-05
9.10489e-07
-1.76661e-05
9.13353e-07
-1.85822e-05
9.1616e-07
-1.95011e-05
9.18876e-07
-2.04226e-05
9.21465e-07
-2.13465e-05
9.2389e-07
-2.22726e-05
9.26112e-07
-2.32007e-05
9.2809e-07
-2.41305e-05
9.29779e-07
-2.50616e-05
9.31136e-07
-2.59937e-05
9.32115e-07
-2.69264e-05
9.32667e-07
-2.78591e-05
9.32744e-07
-2.87914e-05
9.32299e-07
-2.97227e-05
9.31282e-07
-3.06523e-05
9.29646e-07
-3.15797e-05
9.27344e-07
-3.2504e-05
9.24332e-07
-3.34246e-05
9.2057e-07
-3.43406e-05
9.1602e-07
-3.52513e-05
9.10653e-07
-3.61557e-05
9.04442e-07
-3.70531e-05
8.97368e-07
-3.79425e-05
8.89413e-07
-3.8823e-05
8.80561e-07
-3.96938e-05
8.70778e-07
-4.05538e-05
8.5999e-07
-4.14018e-05
8.48022e-07
-4.22363e-05
8.34465e-07
-4.30547e-05
8.18413e-07
-4.38526e-05
7.97905e-07
-4.46215e-05
7.68889e-07
-4.53453e-05
7.23784e-07
-4.59958e-05
6.50474e-07
-4.65294e-05
5.33616e-07
-4.69006e-05
3.71236e-07
-4.72019e-05
3.01277e-07
-4.80572e-05
8.55271e-07
-5.06511e-05
2.59397e-06
-6.30369e-05
1.23858e-05
2.99492e-05
-9.29861e-05
-6.25773e-07
8.37271e-07
-1.90904e-06
1.89412e-06
-3.4996e-06
2.38086e-06
-5.22198e-06
2.58278e-06
-6.99423e-06
2.65246e-06
-8.78365e-06
2.67272e-06
-1.0579e-05
2.67838e-06
-1.23771e-05
2.68114e-06
-1.41774e-05
2.68416e-06
-1.59802e-05
2.68799e-06
-1.77859e-05
2.69255e-06
-1.95945e-05
2.6977e-06
-2.14066e-05
2.70332e-06
-2.32221e-05
2.70931e-06
-2.50414e-05
2.7156e-06
-2.68644e-05
2.72211e-06
-2.86913e-05
2.72879e-06
-3.05222e-05
2.73555e-06
-3.23569e-05
2.74232e-06
-3.41954e-05
2.74903e-06
-3.60377e-05
2.7556e-06
-3.78835e-05
2.76195e-06
-3.97325e-05
2.76797e-06
-4.15847e-05
2.77358e-06
-4.34394e-05
2.77867e-06
-4.52965e-05
2.78314e-06
-4.71553e-05
2.78689e-06
-4.90153e-05
2.7898e-06
-5.08759e-05
2.79175e-06
-5.27364e-05
2.79263e-06
-5.45961e-05
2.79231e-06
-5.6454e-05
2.79069e-06
-5.83094e-05
2.78766e-06
-6.01612e-05
2.78309e-06
-6.20084e-05
2.77689e-06
-6.38501e-05
2.76898e-06
-6.5685e-05
2.75929e-06
-6.75122e-05
2.74777e-06
-6.93306e-05
2.73441e-06
-7.11392e-05
2.71923e-06
-7.29371e-05
2.70231e-06
-7.47235e-05
2.68379e-06
-7.6498e-05
2.66389e-06
-7.82603e-05
2.64291e-06
-8.00108e-05
2.62128e-06
-8.17504e-05
2.59955e-06
-8.34807e-05
2.57838e-06
-8.52048e-05
2.55852e-06
-8.69271e-05
2.54075e-06
-8.8655e-05
2.52577e-06
-9.04004e-05
2.51426e-06
-9.21849e-05
2.50831e-06
-9.40514e-05
2.51697e-06
-9.6092e-05
2.5742e-06
-9.85139e-05
2.79319e-06
-0.000101731
3.51863e-06
-0.000106413
5.53713e-06
-0.000113856
1.0037e-05
-0.00012359
2.21193e-05
3.86611e-05
-0.000132301
-8.27087e-07
1.66436e-06
-2.44603e-06
3.51306e-06
-4.42943e-06
4.36426e-06
-6.56573e-06
4.71908e-06
-8.76093e-06
4.84766e-06
-1.09774e-05
4.88914e-06
-1.32015e-05
4.90248e-06
-1.5429e-05
4.90873e-06
-1.76591e-05
4.91422e-06
-1.98915e-05
4.92043e-06
-2.21265e-05
4.92752e-06
-2.43642e-05
4.93538e-06
-2.66047e-05
4.94386e-06
-2.88483e-05
4.95283e-06
-3.10948e-05
4.96218e-06
-3.33445e-05
4.97178e-06
-3.55972e-05
4.98153e-06
-3.7853e-05
4.9913e-06
-4.01116e-05
5.00097e-06
-4.2373e-05
5.01042e-06
-4.46369e-05
5.01949e-06
-4.6903e-05
5.02805e-06
-4.9171e-05
5.03595e-06
-5.14404e-05
5.04301e-06
-5.37108e-05
5.04906e-06
-5.59816e-05
5.05395e-06
-5.82522e-05
5.05747e-06
-6.05219e-05
5.05944e-06
-6.27898e-05
5.05968e-06
-6.50551e-05
5.05798e-06
-6.7317e-05
5.05417e-06
-6.95743e-05
5.04805e-06
-7.18261e-05
5.03945e-06
-7.40713e-05
5.02821e-06
-7.63086e-05
5.01419e-06
-7.85369e-05
4.99729e-06
-8.0755e-05
4.97744e-06
-8.29619e-05
4.95463e-06
-8.51564e-05
4.92892e-06
-8.73376e-05
4.90048e-06
-8.95049e-05
4.86959e-06
-9.16578e-05
4.83669e-06
-9.37963e-05
4.80243e-06
-9.59211e-05
4.76771e-06
-9.80337e-05
4.7338e-06
-0.000100137
4.70239e-06
-0.000102234
4.67574e-06
-0.000104332
4.65693e-06
-0.000106442
4.65013e-06
-0.000108577
4.66136e-06
-0.000110763
4.70022e-06
-0.000113039
4.78428e-06
-0.000115472
4.95008e-06
-0.000118179
5.28065e-06
-0.000121353
5.96748e-06
-0.000125248
7.41352e-06
-0.000130044
1.03336e-05
-0.000135905
1.58977e-05
-0.000140283
2.64974e-05
3.96677e-05
-0.00014129
-9.14222e-07
2.57858e-06
-2.68815e-06
5.28699e-06
-4.84855e-06
6.52465e-06
-7.16667e-06
7.0372e-06
-9.54477e-06
7.22577e-06
-1.19446e-05
7.28896e-06
-1.43525e-05
7.31039e-06
-1.67642e-05
7.32038e-06
-1.91783e-05
7.32837e-06
-2.15947e-05
7.33679e-06
-2.40132e-05
7.34608e-06
-2.6434e-05
7.35618e-06
-2.88571e-05
7.36697e-06
-3.12826e-05
7.37827e-06
-3.37104e-05
7.38995e-06
-3.61404e-05
7.40185e-06
-3.85727e-05
7.41381e-06
-4.10071e-05
7.42566e-06
-4.34433e-05
7.43722e-06
-4.58812e-05
7.44832e-06
-4.83205e-05
7.45875e-06
-5.07607e-05
7.4683e-06
-5.32015e-05
7.47676e-06
-5.56424e-05
7.48389e-06
-5.80828e-05
7.48946e-06
-6.05221e-05
7.49321e-06
-6.29595e-05
7.49488e-06
-6.53943e-05
7.49422e-06
-6.78255e-05
7.49095e-06
-7.02524e-05
7.48481e-06
-7.26737e-05
7.47554e-06
-7.50886e-05
7.46288e-06
-7.74957e-05
7.4466e-06
-7.9894e-05
7.42649e-06
-8.22822e-05
7.40237e-06
-8.4659e-05
7.37414e-06
-8.70233e-05
7.34174e-06
-8.93739e-05
7.30521e-06
-9.17097e-05
7.26471e-06
-9.40298e-05
7.22058e-06
-9.63335e-05
7.17334e-06
-9.86207e-05
7.1238e-06
-0.000100891
7.07311e-06
-0.000103147
7.02291e-06
-0.000105388
6.97545e-06
-0.00010762
6.93383e-06
-0.000109846
6.90235e-06
-0.000112076
6.88696e-06
-0.000114322
6.89616e-06
-0.000116603
6.94249e-06
-0.000118949
7.04543e-06
-0.000121402
7.2373e-06
-0.000124027
7.57504e-06
-0.00012691
8.1641e-06
-0.000130143
9.2006e-06
-0.000133753
1.10236e-05
-0.000137572
1.41519e-05
-0.000140998
1.93241e-05
-0.000141845
2.73449e-05
3.65924e-05
-0.00013877
-9.43484e-07
3.52206e-06
-2.78089e-06
7.12439e-06
-5.01442e-06
8.75819e-06
-7.40671e-06
9.42949e-06
-9.85815e-06
9.67721e-06
-1.23305e-05
9.76135e-06
-1.48106e-05
9.7905e-06
-1.72943e-05
9.80407e-06
-1.97804e-05
9.81446e-06
-2.22686e-05
9.82496e-06
-2.47588e-05
9.83627e-06
-2.7251e-05
9.84839e-06
-2.97452e-05
9.8612e-06
-3.22415e-05
9.87452e-06
-3.47397e-05
9.88818e-06
-3.72398e-05
9.90197e-06
-3.97417e-05
9.9157e-06
-4.22452e-05
9.92917e-06
-4.47501e-05
9.94213e-06
-4.72561e-05
9.95435e-06
-4.9763e-05
9.96557e-06
-5.22702e-05
9.97552e-06
-5.47774e-05
9.98393e-06
-5.72839e-05
9.99047e-06
-5.97893e-05
9.99486e-06
-6.22929e-05
9.99675e-06
-6.47938e-05
9.99582e-06
-6.72913e-05
9.99172e-06
-6.97845e-05
9.98411e-06
-7.22723e-05
9.97265e-06
-7.47538e-05
9.95699e-06
-7.72277e-05
9.93681e-06
-7.96929e-05
9.91182e-06
-8.21482e-05
9.88175e-06
-8.45922e-05
9.8464e-06
-8.70237e-05
9.80562e-06
-8.94413e-05
9.75936e-06
-9.18438e-05
9.70771e-06
-9.423e-05
9.65093e-06
-9.65989e-05
9.58947e-06
-9.89497e-05
9.52409e-06
-0.000101282
9.45591e-06
-0.000103595
9.38657e-06
-0.000105891
9.31834e-06
-0.00010817
9.25436e-06
-0.000110435
9.19898e-06
-0.000112691
9.1582e-06
-0.000114944
9.14038e-06
-0.000117205
9.15732e-06
-0.000119489
9.2261e-06
-0.000121816
9.37218e-06
-0.000124213
9.63477e-06
-0.000126714
1.00764e-05
-0.000129349
1.0799e-05
-0.000132114
1.19655e-05
-0.000134909
1.38183e-05
-0.000137438
1.66808e-05
-0.000139032
2.09186e-05
-0.000138305
2.66174e-05
3.28922e-05
-0.000134605
-9.50026e-07
4.47209e-06
-2.81e-06
8.98437e-06
-5.07057e-06
1.10188e-05
-7.49039e-06
1.18493e-05
-9.96859e-06
1.21554e-05
-1.2467e-05
1.22597e-05
-1.49726e-05
1.22961e-05
-1.74816e-05
1.23131e-05
-1.9993e-05
1.23258e-05
-2.25064e-05
1.23384e-05
-2.50218e-05
1.23517e-05
-2.75392e-05
1.23658e-05
-3.00586e-05
1.23806e-05
-3.25799e-05
1.23959e-05
-3.51032e-05
1.24115e-05
-3.76284e-05
1.24271e-05
-4.01552e-05
1.24426e-05
-4.26836e-05
1.24576e-05
-4.52133e-05
1.24718e-05
-4.77441e-05
1.24851e-05
-5.02756e-05
1.2497e-05
-5.28073e-05
1.25073e-05
-5.5339e-05
1.25156e-05
-5.78699e-05
1.25214e-05
-6.03996e-05
1.25245e-05
-6.29273e-05
1.25244e-05
-6.54523e-05
1.25208e-05
-6.79736e-05
1.25131e-05
-7.04905e-05
1.2501e-05
-7.30019e-05
1.2484e-05
-7.55067e-05
1.24618e-05
-7.80038e-05
1.24339e-05
-8.04919e-05
1.23999e-05
-8.29696e-05
1.23595e-05
-8.54357e-05
1.23125e-05
-8.78887e-05
1.22586e-05
-9.03272e-05
1.21979e-05
-9.27499e-05
1.21303e-05
-9.51552e-05
1.20563e-05
-9.75419e-05
1.19762e-05
-9.9909e-05
1.18911e-05
-0.000102255
1.18023e-05
-0.000104581
1.17117e-05
-0.000106884
1.16221e-05
-0.000109167
1.15372e-05
-0.00011143
1.14622e-05
-0.000113676
1.14042e-05
-0.000115909
1.13729e-05
-0.000118133
1.13818e-05
-0.000120357
1.145e-05
-0.00012259
1.16044e-05
-0.000124839
1.18841e-05
-0.000127109
1.23466e-05
-0.000129385
1.30752e-05
-0.000131607
1.41876e-05
-0.000133625
1.58364e-05
-0.000135138
1.81934e-05
-0.000135605
2.13857e-05
-0.000134281
2.52935e-05
2.93909e-05
-0.00013078
-9.49626e-07
5.42172e-06
-2.81564e-06
1.08504e-05
-5.08432e-06
1.32874e-05
-7.51289e-06
1.42779e-05
-9.99958e-06
1.46421e-05
-1.2506e-05
1.47661e-05
-1.50194e-05
1.48095e-05
-1.75361e-05
1.48297e-05
-2.0055e-05
1.48447e-05
-2.2576e-05
1.48594e-05
-2.50992e-05
1.48748e-05
-2.76244e-05
1.4891e-05
-3.01517e-05
1.49079e-05
-3.26812e-05
1.49253e-05
-3.52127e-05
1.4943e-05
-3.77461e-05
1.49606e-05
-4.02815e-05
1.49779e-05
-4.28185e-05
1.49946e-05
-4.5357e-05
1.50104e-05
-4.78968e-05
1.50249e-05
-5.04375e-05
1.50377e-05
-5.29786e-05
1.50485e-05
-5.55199e-05
1.50568e-05
-5.80607e-05
1.50622e-05
-6.06004e-05
1.50643e-05
-6.31384e-05
1.50625e-05
-6.56739e-05
1.50563e-05
-6.82061e-05
1.50453e-05
-7.07341e-05
1.50289e-05
-7.32567e-05
1.50067e-05
-7.5773e-05
1.4978e-05
-7.82816e-05
1.49425e-05
-8.07814e-05
1.48997e-05
-8.32709e-05
1.4849e-05
-8.57487e-05
1.47903e-05
-8.82133e-05
1.47232e-05
-9.06631e-05
1.46477e-05
-9.30964e-05
1.45637e-05
-9.55117e-05
1.44715e-05
-9.79073e-05
1.43718e-05
-0.000100282
1.42654e-05
-0.000102633
1.41539e-05
-0.000104961
1.40391e-05
-0.000107263
1.39242e-05
-0.000109538
1.3813e-05
-0.000111787
1.37112e-05
-0.000114009
1.3626e-05
-0.000116204
1.35676e-05
-0.000118372
1.35495e-05
-0.000120512
1.35902e-05
-0.000122622
1.37148e-05
-0.000124696
1.39577e-05
-0.000126714
1.43649e-05
-0.000128637
1.49978e-05
-0.000130382
1.59327e-05
-0.000131801
1.7255e-05
-0.000132646
1.90386e-05
-0.000132553
2.12928e-05
-0.000131122
2.3863e-05
2.64007e-05
-0.000128132
-9.4753e-07
6.36925e-06
-2.8135e-06
1.27163e-05
-5.0832e-06
1.55571e-05
-7.51346e-06
1.67082e-05
-1.00019e-05
1.71305e-05
-1.25099e-05
1.72742e-05
-1.50249e-05
1.73245e-05
-1.7543e-05
1.73479e-05
-2.00634e-05
1.73652e-05
-2.2586e-05
1.7382e-05
-2.51109e-05
1.73997e-05
-2.7638e-05
1.74181e-05
-3.01674e-05
1.74373e-05
-3.26991e-05
1.7457e-05
-3.52331e-05
1.7477e-05
-3.77693e-05
1.74968e-05
-4.03077e-05
1.75162e-05
-4.2848e-05
1.75349e-05
-4.53902e-05
1.75525e-05
-4.79338e-05
1.75686e-05
-5.04788e-05
1.75826e-05
-5.30246e-05
1.75943e-05
-5.55709e-05
1.76031e-05
-5.81172e-05
1.76085e-05
-6.06628e-05
1.76099e-05
-6.32071e-05
1.76068e-05
-6.57493e-05
1.75986e-05
-6.82887e-05
1.75847e-05
-7.08243e-05
1.75645e-05
-7.3355e-05
1.75374e-05
-7.58798e-05
1.75028e-05
-7.83973e-05
1.74601e-05
-8.09063e-05
1.74086e-05
-8.34053e-05
1.7348e-05
-8.58927e-05
1.72777e-05
-8.8367e-05
1.71975e-05
-9.08263e-05
1.7107e-05
-9.32688e-05
1.70062e-05
-9.56926e-05
1.68953e-05
-9.80957e-05
1.67749e-05
-0.000100476
1.66456e-05
-0.000102831
1.65091e-05
-0.000105159
1.63671e-05
-0.000107458
1.62227e-05
-0.000109724
1.60796e-05
-0.000111956
1.59432e-05
-0.000114151
1.58205e-05
-0.000116304
1.57211e-05
-0.000118412
1.56571e-05
-0.000120467
1.56451e-05
-0.000122458
1.57059e-05
-0.000124367
1.58669e-05
-0.000126164
1.61621e-05
-0.000127798
1.6632e-05
-0.000129187
1.73211e-05
-0.000130201
1.82698e-05
-0.000130659
1.94961e-05
-0.000130328
2.09617e-05
-0.000128993
2.25277e-05
2.3948e-05
-0.00012654
-9.45147e-07
7.31439e-06
-2.80894e-06
1.45801e-05
-5.0771e-06
1.78253e-05
-7.50646e-06
1.91375e-05
-9.99422e-06
1.96183e-05
-1.25016e-05
1.97816e-05
-1.50159e-05
1.98387e-05
-1.75335e-05
1.98654e-05
-2.00534e-05
1.98851e-05
-2.25757e-05
1.99043e-05
-2.51003e-05
1.99243e-05
-2.76274e-05
1.99452e-05
-3.01571e-05
1.9967e-05
-3.26892e-05
1.99892e-05
-3.5224e-05
2.00117e-05
-3.77613e-05
2.00341e-05
-4.03011e-05
2.0056e-05
-4.28432e-05
2.00771e-05
-4.53875e-05
2.00968e-05
-4.79338e-05
2.01148e-05
-5.04818e-05
2.01306e-05
-5.30311e-05
2.01437e-05
-5.55814e-05
2.01534e-05
-5.81322e-05
2.01592e-05
-6.06828e-05
2.01605e-05
-6.32328e-05
2.01567e-05
-6.57812e-05
2.0147e-05
-6.83274e-05
2.01309e-05
-7.08703e-05
2.01075e-05
-7.3409e-05
2.00761e-05
-7.59423e-05
2.00361e-05
-7.84689e-05
1.99867e-05
-8.09874e-05
1.99272e-05
-8.34964e-05
1.9857e-05
-8.59941e-05
1.97755e-05
-8.84788e-05
1.96822e-05
-9.09486e-05
1.95767e-05
-9.34013e-05
1.94589e-05
-9.58348e-05
1.93288e-05
-9.82466e-05
1.91866e-05
-0.000100634
1.90331e-05
-0.000102994
1.88694e-05
-0.000105325
1.86973e-05
-0.000107621
1.85193e-05
-0.00010988
1.83388e-05
-0.000112098
1.81606e-05
-0.000114268
1.79908e-05
-0.000116385
1.78376e-05
-0.000118439
1.77114e-05
-0.000120419
1.76253e-05
-0.000122309
1.75956e-05
-0.000124084
1.76421e-05
-0.000125709
1.77875e-05
-0.000127133
1.80559e-05
-0.000128282
1.84695e-05
-0.000129053
1.90406e-05
-0.000129316
1.9759e-05
-0.000128926
2.05724e-05
-0.000127766
2.13672e-05
2.19688e-05
-0.000125787
-9.42712e-07
8.2571e-06
-2.80351e-06
1.64409e-05
-5.06913e-06
2.00909e-05
-7.49654e-06
2.15649e-05
-9.98266e-06
2.21044e-05
-1.24886e-05
2.22875e-05
-1.50015e-05
2.23516e-05
-1.75177e-05
2.23816e-05
-2.00364e-05
2.24039e-05
-2.25577e-05
2.24255e-05
-2.50815e-05
2.24481e-05
-2.7608e-05
2.24718e-05
-3.01373e-05
2.24963e-05
-3.26695e-05
2.25214e-05
-3.52045e-05
2.25468e-05
-3.77425e-05
2.2572e-05
-4.02833e-05
2.25968e-05
-4.28269e-05
2.26206e-05
-4.53731e-05
2.2643e-05
-4.79218e-05
2.26635e-05
-5.04727e-05
2.26815e-05
-5.30255e-05
2.26965e-05
-5.55798e-05
2.27077e-05
-5.81352e-05
2.27146e-05
-6.06912e-05
2.27165e-05
-6.32471e-05
2.27126e-05
-6.58022e-05
2.27022e-05
-6.83557e-05
2.26844e-05
-7.09067e-05
2.26585e-05
-7.34542e-05
2.26235e-05
-7.59969e-05
2.25788e-05
-7.85337e-05
2.25234e-05
-8.1063e-05
2.24565e-05
-8.35833e-05
2.23773e-05
-8.60928e-05
2.2285e-05
-8.85897e-05
2.2179e-05
-9.10717e-05
2.20588e-05
-9.35367e-05
2.19239e-05
-9.59821e-05
2.17742e-05
-9.8405e-05
2.16096e-05
-0.000100802
2.14306e-05
-0.000103171
2.12379e-05
-0.000105507
2.1033e-05
-0.000107805
2.08178e-05
-0.000110061
2.05951e-05
-0.00011227
2.03687e-05
-0.000114422
2.01436e-05
-0.000116511
1.99262e-05
-0.000118524
1.97245e-05
-0.000120447
1.95482e-05
-0.00012226
1.94088e-05
-0.000123937
1.93193e-05
-0.000125443
1.92931e-05
-0.000126729
1.93423e-05
-0.000127734
1.94741e-05
-0.000128378
1.9685e-05
-0.000128572
1.99525e-05
-0.000128224
2.02245e-05
-0.000127268
2.04117e-05
2.03901e-05
-0.00012569
-9.40168e-07
9.19727e-06
-2.79751e-06
1.82983e-05
-5.06007e-06
2.23535e-05
-7.485e-06
2.39899e-05
-9.96898e-06
2.45884e-05
-1.2473e-05
2.47915e-05
-1.4984e-05
2.48627e-05
-1.74986e-05
2.48962e-05
-2.00158e-05
2.49211e-05
-2.25357e-05
2.49454e-05
-2.50585e-05
2.49708e-05
-2.75841e-05
2.49974e-05
-3.01129e-05
2.5025e-05
-3.26448e-05
2.50534e-05
-3.51801e-05
2.5082e-05
-3.77186e-05
2.51106e-05
-4.02604e-05
2.51386e-05
-4.28054e-05
2.51657e-05
-4.53536e-05
2.51912e-05
-4.79049e-05
2.52147e-05
-5.04589e-05
2.52355e-05
-5.30154e-05
2.5253e-05
-5.55741e-05
2.52665e-05
-5.81346e-05
2.52751e-05
-6.06964e-05
2.52783e-05
-6.32589e-05
2.52751e-05
-6.58214e-05
2.52646e-05
-6.83831e-05
2.52461e-05
-7.09431e-05
2.52185e-05
-7.35004e-05
2.51808e-05
-7.60538e-05
2.51322e-05
-7.86021e-05
2.50716e-05
-8.11436e-05
2.49981e-05
-8.3677e-05
2.49106e-05
-8.62001e-05
2.48082e-05
-8.87112e-05
2.46901e-05
-9.12079e-05
2.45555e-05
-9.36876e-05
2.44037e-05
-9.61476e-05
2.42342e-05
-9.85848e-05
2.40467e-05
-0.000100996
2.38414e-05
-0.000103376
2.36184e-05
-0.000105722
2.33786e-05
-0.000108027
2.31234e-05
-0.000110287
2.28546e-05
-0.000112493
2.2575e-05
-0.000114637
2.22881e-05
-0.00011671
2.19985e-05
-0.000118697
2.17116e-05
-0.000120583
2.14339e-05
-0.000122346
2.11725e-05
-0.000123962
2.09348e-05
-0.000125396
2.07269e-05
-0.000126606
2.05525e-05
-0.000127541
2.04095e-05
-0.000128143
2.02863e-05
-0.000128346
2.01564e-05
-0.000128095
1.99733e-05
-0.000127351
1.96679e-05
1.91522e-05
-0.000126113
-9.37431e-07
1.01347e-05
-2.79092e-06
2.01518e-05
-5.05004e-06
2.46126e-05
-7.47209e-06
2.64119e-05
-9.95355e-06
2.70698e-05
-1.24552e-05
2.72932e-05
-1.49642e-05
2.73717e-05
-1.74768e-05
2.74088e-05
-1.99923e-05
2.74366e-05
-2.25107e-05
2.74638e-05
-2.50321e-05
2.74923e-05
-2.75568e-05
2.75221e-05
-3.00849e-05
2.75531e-05
-3.26165e-05
2.7585e-05
-3.51518e-05
2.76173e-05
-3.76909e-05
2.76496e-05
-4.02337e-05
2.76814e-05
-4.27803e-05
2.77123e-05
-4.53306e-05
2.77416e-05
-4.78845e-05
2.77686e-05
-5.04419e-05
2.77929e-05
-5.30024e-05
2.78136e-05
-5.5566e-05
2.783e-05
-5.8132e-05
2.78412e-05
-6.07002e-05
2.78465e-05
-6.32699e-05
2.78448e-05
-6.58405e-05
2.78353e-05
-6.84113e-05
2.78168e-05
-7.09813e-05
2.77885e-05
-7.35496e-05
2.77491e-05
-7.6115e-05
2.76976e-05
-7.86762e-05
2.76328e-05
-8.12317e-05
2.75536e-05
-8.37799e-05
2.74587e-05
-8.63187e-05
2.73471e-05
-8.88463e-05
2.72176e-05
-9.136e-05
2.70692e-05
-9.38573e-05
2.6901e-05
-9.63351e-05
2.6712e-05
-9.87901e-05
2.65017e-05
-0.000101218
2.62696e-05
-0.000103615
2.60154e-05
-0.000105976
2.57395e-05
-0.000108295
2.54422e-05
-0.000110565
2.51246e-05
-0.000112778
2.47882e-05
-0.000114925
2.4435e-05
-0.000116994
2.40677e-05
-0.000118972
2.36895e-05
-0.000120842
2.33037e-05
-0.000122583
2.29137e-05
-0.00012417
2.25223e-05
-0.000125574
2.21305e-05
-0.000126758
2.17363e-05
-0.000127681
2.13323e-05
-0.000128297
2.0903e-05
-0.000128563
2.04221e-05
-0.00012844
1.98502e-05
-0.000127906
1.91341e-05
1.82107e-05
-0.000126965
-9.34442e-07
1.10691e-05
-2.78369e-06
2.2001e-05
-5.03897e-06
2.68679e-05
-7.45778e-06
2.88307e-05
-9.93639e-06
2.95485e-05
-1.24355e-05
2.97923e-05
-1.4942e-05
2.98782e-05
-1.74524e-05
2.99191e-05
-1.99659e-05
2.99501e-05
-2.24825e-05
2.99804e-05
-2.50024e-05
3.00122e-05
-2.75259e-05
3.00456e-05
-3.00532e-05
3.00804e-05
-3.25844e-05
3.01162e-05
-3.51197e-05
3.01526e-05
-3.76593e-05
3.01891e-05
-4.02031e-05
3.02253e-05
-4.27513e-05
3.02605e-05
-4.53038e-05
3.02941e-05
-4.78606e-05
3.03254e-05
-5.04215e-05
3.03538e-05
-5.29864e-05
3.03785e-05
-5.55551e-05
3.03986e-05
-5.81272e-05
3.04133e-05
-6.07023e-05
3.04215e-05
-6.32799e-05
3.04224e-05
-6.58594e-05
3.04148e-05
-6.84401e-05
3.03976e-05
-7.10211e-05
3.03696e-05
-7.36016e-05
3.03296e-05
-7.61803e-05
3.02763e-05
-7.87559e-05
3.02085e-05
-8.1327e-05
3.01247e-05
-8.38919e-05
3.00236e-05
-8.64486e-05
2.99038e-05
-8.8995e-05
2.9764e-05
-9.15285e-05
2.96028e-05
-9.40465e-05
2.94189e-05
-9.65455e-05
2.92111e-05
-9.90222e-05
2.89783e-05
-0.000101472
2.87196e-05
-0.000103891
2.84341e-05
-0.000106273
2.81214e-05
-0.000108612
2.77811e-05
-0.0001109
2.74131e-05
-0.00011313
2.70179e-05
-0.000115291
2.65959e-05
-0.000117371
2.6148e-05
-0.000119357
2.56752e-05
-0.000121231
2.51782e-05
-0.000122975
2.46574e-05
-0.000124565
2.4112e-05
-0.000125974
2.35395e-05
-0.000127171
2.2934e-05
-0.000128124
2.22852e-05
-0.000128798
2.15767e-05
-0.00012916
2.0784e-05
-0.000129184
1.98742e-05
-0.000128856
1.88063e-05
1.75345e-05
-0.00012818
-9.31159e-07
1.20003e-05
-2.77573e-06
2.38456e-05
-5.02677e-06
2.91189e-05
-7.44196e-06
3.12459e-05
-9.91737e-06
3.20239e-05
-1.24135e-05
3.22885e-05
-1.49173e-05
3.2382e-05
-1.74252e-05
3.2427e-05
-1.99364e-05
3.24612e-05
-2.24509e-05
3.2495e-05
-2.49692e-05
3.25304e-05
-2.74913e-05
3.25677e-05
-3.00175e-05
3.26067e-05
-3.25482e-05
3.26469e-05
-3.50834e-05
3.26878e-05
-3.76233e-05
3.27291e-05
-4.01682e-05
3.27701e-05
-4.27179e-05
3.28102e-05
-4.52727e-05
3.28488e-05
-4.78324e-05
3.28852e-05
-5.03971e-05
3.29185e-05
-5.29667e-05
3.2948e-05
-5.55408e-05
3.29728e-05
-5.81193e-05
3.29918e-05
-6.07018e-05
3.30041e-05
-6.32879e-05
3.30085e-05
-6.5877e-05
3.30039e-05
-6.84685e-05
3.29891e-05
-7.10616e-05
3.29626e-05
-7.36553e-05
3.29233e-05
-7.62486e-05
3.28696e-05
-7.88402e-05
3.28e-05
-8.14286e-05
3.27131e-05
-8.40121e-05
3.26071e-05
-8.65889e-05
3.24806e-05
-8.91566e-05
3.23317e-05
-9.17128e-05
3.2159e-05
-9.42546e-05
3.19606e-05
-9.67786e-05
3.17351e-05
-9.92811e-05
3.14808e-05
-0.000101758
3.11963e-05
-0.000104204
3.088e-05
-0.000106613
3.05308e-05
-0.000108979
3.01474e-05
-0.000111295
2.97289e-05
-0.000113552
2.92743e-05
-0.000115738
2.87827e-05
-0.000117844
2.82534e-05
-0.000119854
2.76854e-05
-0.000121753
2.70772e-05
-0.000123523
2.64267e-05
-0.000125141
2.57307e-05
-0.000126585
2.49838e-05
-0.000127829
2.41779e-05
-0.000128846
2.33015e-05
-0.000129607
2.23381e-05
-0.000130089
2.12658e-05
-0.000130272
2.00574e-05
-0.000130147
1.86809e-05
1.71024e-05
-0.000129715
-9.27556e-07
1.29279e-05
-2.76699e-06
2.5685e-05
-5.01335e-06
3.13653e-05
-7.42453e-06
3.36571e-05
-9.89636e-06
3.44957e-05
-1.23892e-05
3.47813e-05
-1.489e-05
3.48828e-05
-1.7395e-05
3.4932e-05
-1.99035e-05
3.49698e-05
-2.24158e-05
3.50072e-05
-2.4932e-05
3.50466e-05
-2.74525e-05
3.50882e-05
-2.99775e-05
3.51317e-05
-3.25074e-05
3.51767e-05
-3.50424e-05
3.52228e-05
-3.75826e-05
3.52693e-05
-4.01283e-05
3.53158e-05
-4.26796e-05
3.53615e-05
-4.52366e-05
3.54059e-05
-4.77994e-05
3.5448e-05
-5.0368e-05
3.54871e-05
-5.29423e-05
3.55223e-05
-5.55222e-05
3.55527e-05
-5.81074e-05
3.55771e-05
-6.06978e-05
3.55945e-05
-6.3293e-05
3.56036e-05
-6.58924e-05
3.56033e-05
-6.84955e-05
3.55921e-05
-7.11015e-05
3.55687e-05
-7.37096e-05
3.55314e-05
-7.63188e-05
3.54788e-05
-7.89277e-05
3.5409e-05
-8.15351e-05
3.53205e-05
-8.41393e-05
3.52113e-05
-8.67383e-05
3.50796e-05
-8.933e-05
3.49234e-05
-9.19117e-05
3.47407e-05
-9.44806e-05
3.45296e-05
-9.70334e-05
3.42879e-05
-9.95661e-05
3.40135e-05
-0.000102074
3.37046e-05
-0.000104553
3.33588e-05
-0.000106997
3.29743e-05
-0.000109398
3.2549e-05
-0.00011175
3.20808e-05
-0.000114044
3.15677e-05
-0.000116268
3.10075e-05
-0.000118413
3.03979e-05
-0.000120464
2.97362e-05
-0.000122406
2.90192e-05
-0.000124222
2.82428e-05
-0.000125893
2.74017e-05
-0.000127398
2.64887e-05
-0.000128714
2.54946e-05
-0.00012982
2.44071e-05
-0.000130692
2.32105e-05
-0.000131312
2.18853e-05
-0.000131663
2.0409e-05
-0.000131739
1.87562e-05
1.69011e-05
-0.000131537
-9.23608e-07
1.38515e-05
-2.7574e-06
2.75188e-05
-4.99862e-06
3.36065e-05
-7.40535e-06
3.60638e-05
-9.87321e-06
3.69636e-05
-1.23624e-05
3.72705e-05
-1.48597e-05
3.73801e-05
-1.73614e-05
3.74338e-05
-1.98671e-05
3.74754e-05
-2.23767e-05
3.75168e-05
-2.48906e-05
3.75605e-05
-2.74092e-05
3.76068e-05
-2.99327e-05
3.76553e-05
-3.24616e-05
3.77056e-05
-3.4996e-05
3.77572e-05
-3.75364e-05
3.78097e-05
-4.00828e-05
3.78622e-05
-4.26356e-05
3.79143e-05
-4.51948e-05
3.79651e-05
-4.77606e-05
3.80138e-05
-5.03331e-05
3.80596e-05
-5.29123e-05
3.81015e-05
-5.54982e-05
3.81385e-05
-5.80905e-05
3.81694e-05
-6.06891e-05
3.81931e-05
-6.32938e-05
3.82083e-05
-6.59041e-05
3.82136e-05
-6.85195e-05
3.82075e-05
-7.11393e-05
3.81885e-05
-7.37629e-05
3.8155e-05
-7.63891e-05
3.8105e-05
-7.9017e-05
3.80369e-05
-8.1645e-05
3.79485e-05
-8.42717e-05
3.7838e-05
-8.68952e-05
3.7703e-05
-8.95134e-05
3.75415e-05
-9.21236e-05
3.73509e-05
-9.47231e-05
3.7129e-05
-9.73084e-05
3.68732e-05
-9.98758e-05
3.6581e-05
-0.000102421
3.62496e-05
-0.000104938
3.58764e-05
-0.000107423
3.54587e-05
-0.000109867
3.49934e-05
-0.000112264
3.44777e-05
-0.000114605
3.39083e-05
-0.000116879
3.32819e-05
-0.000119076
3.25948e-05
-0.000121183
3.18429e-05
-0.000123185
3.10213e-05
-0.000125067
3.01245e-05
-0.000126811
2.91456e-05
-0.000128398
2.80763e-05
-0.00012981
2.69064e-05
-0.000131026
2.56234e-05
-0.000132028
2.42127e-05
-0.0001328
2.26569e-05
-0.000133328
2.09369e-05
-0.000133604
1.90323e-05
1.69231e-05
-0.000133626
-9.19293e-07
1.47708e-05
-2.74692e-06
2.93464e-05
-4.98249e-06
3.58421e-05
-7.38431e-06
3.84656e-05
-9.84775e-06
3.9427e-05
-1.23328e-05
3.97555e-05
-1.48262e-05
3.98735e-05
-1.73244e-05
3.99319e-05
-1.98267e-05
3.99777e-05
-2.23333e-05
4.00234e-05
-2.48445e-05
4.00718e-05
-2.73608e-05
4.01231e-05
-2.98826e-05
4.0177e-05
-3.24101e-05
4.02331e-05
-3.49439e-05
4.0291e-05
-3.74841e-05
4.03499e-05
-4.0031e-05
4.04092e-05
-4.25851e-05
4.04683e-05
-4.51464e-05
4.05264e-05
-4.77152e-05
4.05826e-05
-5.02916e-05
4.0636e-05
-5.28758e-05
4.06856e-05
-5.54677e-05
4.07304e-05
-5.80673e-05
4.0769e-05
-6.06745e-05
4.08003e-05
-6.32891e-05
4.08229e-05
-6.59108e-05
4.08353e-05
-6.85391e-05
4.08359e-05
-7.11736e-05
4.0823e-05
-7.38135e-05
4.07949e-05
-7.6458e-05
4.07495e-05
-7.91061e-05
4.06849e-05
-8.17564e-05
4.05989e-05
-8.44075e-05
4.04891e-05
-8.70577e-05
4.03532e-05
-8.97048e-05
4.01886e-05
-9.23464e-05
3.99926e-05
-9.49798e-05
3.97624e-05
-9.76017e-05
3.94951e-05
-0.000100208
3.91875e-05
-0.000102795
3.88365e-05
-0.000105357
3.84387e-05
-0.000107889
3.79906e-05
-0.000110384
3.74884e-05
-0.000112835
3.69283e-05
-0.000115233
3.63061e-05
-0.000117568
3.56173e-05
-0.00011983
3.48569e-05
-0.000122007
3.40197e-05
-0.000124085
3.30994e-05
-0.00012605
3.20891e-05
-0.000127885
3.09809e-05
-0.000129574
2.97655e-05
-0.0001311
2.84322e-05
-0.000132445
2.69686e-05
-0.000133593
2.53607e-05
-0.000134529
2.3593e-05
-0.000135242
2.1649e-05
-0.000135721
1.95118e-05
1.71654e-05
-0.000135963
-9.14591e-07
1.56854e-05
-2.73549e-06
3.11673e-05
-4.96486e-06
3.80714e-05
-7.36127e-06
4.0862e-05
-9.81983e-06
4.18856e-05
-1.23003e-05
4.2236e-05
-1.47895e-05
4.23626e-05
-1.72836e-05
4.24261e-05
-1.97821e-05
4.24763e-05
-2.22853e-05
4.25266e-05
-2.47934e-05
4.258e-05
-2.73071e-05
4.26367e-05
-2.98267e-05
4.26966e-05
-3.23526e-05
4.2759e-05
-3.48852e-05
4.28236e-05
-3.7425e-05
4.28896e-05
-3.99722e-05
4.29565e-05
-4.25273e-05
4.30234e-05
-4.50906e-05
4.30896e-05
-4.76622e-05
4.31543e-05
-5.02425e-05
4.32163e-05
-5.28315e-05
4.32747e-05
-5.54295e-05
4.33284e-05
-5.80365e-05
4.3376e-05
-6.06525e-05
4.34163e-05
-6.32773e-05
4.34477e-05
-6.59108e-05
4.34688e-05
-6.85527e-05
4.34778e-05
-7.12025e-05
4.34728e-05
-7.38596e-05
4.3452e-05
-7.65235e-05
4.34133e-05
-7.9193e-05
4.33544e-05
-8.18671e-05
4.3273e-05
-8.45444e-05
4.31664e-05
-8.72233e-05
4.30321e-05
-8.99019e-05
4.28671e-05
-9.25778e-05
4.26685e-05
-9.52483e-05
4.2433e-05
-9.79105e-05
4.21572e-05
-0.000100561
4.18375e-05
-0.000103194
4.14703e-05
-0.000105807
4.10514e-05
-0.000108393
4.05766e-05
-0.000110946
4.00415e-05
-0.000113459
3.94413e-05
-0.000115924
3.87708e-05
-0.000118331
3.80245e-05
-0.00012067
3.71964e-05
-0.000122931
3.62799e-05
-0.000125099
3.52679e-05
-0.000127162
3.41523e-05
-0.000129106
3.29242e-05
-0.000130914
3.15735e-05
-0.00013257
3.00891e-05
-0.000134061
2.84587e-05
-0.000135369
2.66689e-05
-0.000136481
2.47055e-05
-0.000137386
2.25538e-05
-0.000138074
2.01994e-05
1.7629e-05
-0.000138537
-9.0948e-07
1.65948e-05
-2.72305e-06
3.29809e-05
-4.94565e-06
4.0294e-05
-7.33612e-06
4.32525e-05
-9.78929e-06
4.43387e-05
-1.22647e-05
4.47115e-05
-1.47491e-05
4.4847e-05
-1.72387e-05
4.49157e-05
-1.9733e-05
4.49705e-05
-2.22322e-05
4.50258e-05
-2.47369e-05
4.50846e-05
-2.72474e-05
4.51473e-05
-2.97644e-05
4.52135e-05
-3.22882e-05
4.52829e-05
-3.48194e-05
4.53548e-05
-3.73584e-05
4.54286e-05
-3.99056e-05
4.55037e-05
-4.24615e-05
4.55793e-05
-4.50263e-05
4.56545e-05
-4.76006e-05
4.57285e-05
-5.01845e-05
4.58002e-05
-5.27784e-05
4.58686e-05
-5.53824e-05
4.59324e-05
-5.79968e-05
4.59904e-05
-6.06216e-05
4.60411e-05
-6.32569e-05
4.6083e-05
-6.59025e-05
4.61144e-05
-6.85583e-05
4.61336e-05
-7.12241e-05
4.61385e-05
-7.38992e-05
4.61272e-05
-7.65833e-05
4.60974e-05
-7.92754e-05
4.60466e-05
-8.19747e-05
4.59722e-05
-8.46798e-05
4.58716e-05
-8.73894e-05
4.57417e-05
-9.01017e-05
4.55794e-05
-9.28146e-05
4.53814e-05
-9.55255e-05
4.51439e-05
-9.82316e-05
4.48632e-05
-0.000100929
4.45353e-05
-0.000103615
4.41558e-05
-0.000106284
4.37201e-05
-0.00010893
4.32232e-05
-0.000111549
4.266e-05
-0.000114132
4.20247e-05
-0.000116673
4.13115e-05
-0.000119162
4.05138e-05
-0.00012159
3.96245e-05
-0.000123946
3.86362e-05
-0.000126219
3.75406e-05
-0.000128395
3.63286e-05
-0.000130462
3.49905e-05
-0.000132404
3.35157e-05
-0.000134207
3.18925e-05
-0.000135857
3.01086e-05
-0.000137339
2.8151e-05
-0.00013864
2.60062e-05
-0.000139747
2.36608e-05
-0.000140649
2.1102e-05
1.83183e-05
-0.000141339
-9.03939e-07
1.74988e-05
-2.70955e-06
3.47865e-05
-4.92476e-06
4.25092e-05
-7.30872e-06
4.56364e-05
-9.75595e-06
4.6786e-05
-1.22258e-05
4.71814e-05
-1.47048e-05
4.7326e-05
-1.71894e-05
4.74002e-05
-1.96789e-05
4.74601e-05
-2.21738e-05
4.75207e-05
-2.46744e-05
4.75853e-05
-2.71814e-05
4.76543e-05
-2.96953e-05
4.77274e-05
-3.22166e-05
4.78042e-05
-3.47459e-05
4.78841e-05
-3.72836e-05
4.79664e-05
-3.98304e-05
4.80504e-05
-4.23866e-05
4.81355e-05
-4.49527e-05
4.82207e-05
-4.75293e-05
4.8305e-05
-5.01166e-05
4.83875e-05
-5.2715e-05
4.84671e-05
-5.5325e-05
4.85424e-05
-5.79467e-05
4.86121e-05
-6.05804e-05
4.86748e-05
-6.32261e-05
4.87288e-05
-6.58841e-05
4.87724e-05
-6.85542e-05
4.88037e-05
-7.12362e-05
4.88206e-05
-7.393e-05
4.8821e-05
-7.66351e-05
4.88024e-05
-7.93508e-05
4.87623e-05
-8.20764e-05
4.86979e-05
-8.48109e-05
4.86061e-05
-8.75531e-05
4.84838e-05
-9.03012e-05
4.83276e-05
-9.30535e-05
4.81337e-05
-9.58078e-05
4.78981e-05
-9.85612e-05
4.76167e-05
-0.000101311
4.72848e-05
-0.000104053
4.68977e-05
-0.000106783
4.645e-05
-0.000109496