0 	-1.60336e-08
1.57135 	6.25106e-08
3.1427 	4.13502e-06
4.71405 	2.37958e-05
6.28539 	7.9563e-05
7.85674 	0.000202594
9.42809 	0.00043221
10.9994 	0.00081509
12.5708 	0.00137844
14.1421 	0.00707296
