/*--------------------------------*- C++ -*----------------------------------*\
  =========                 |
  \\      /  F ield         | OpenFOAM: The Open Source CFD Toolbox
   \\    /   O peration     | Website:  https://openfoam.org
    \\  /    A nd           | Version:  8
     \\/     M anipulation  |
\*---------------------------------------------------------------------------*/
FoamFile
{
    version     2.0;
    format      ascii;
    class       volScalarField;
    location    "0.721";
    object      T;
}
// * * * * * * * * * * * * * * * * * * * * * * * * * * * * * * * * * * * * * //

dimensions      [0 0 0 1 0 0 0];

internalField   nonuniform List<scalar> 
10000
(
50
4.64945
-4.64939
-1.17677
1.17647
0.446317
-0.445438
-0.214363
0.212397
0.121459
-0.117747
-0.0785271
0.0722897
0.0568424
-0.047239
-0.045252
0.0314765
0.0387161
-0.0201338
-0.0346054
0.0109323
0.0313438
-0.00285071
-0.0278839
-0.00440782
0.0235274
0.0106623
-0.0179061
-0.015414
0.0110344
0.0180175
-0.00337154
-0.017892
-0.004179
0.0147882
0.0103726
-0.0090239
-0.0139141
0.00166475
0.0138312
0.00559262
-0.0100055
-0.0106927
0.00338091
0.0120232
0.00387813
-0.00893908
-0.00922563
0.0026362
0.0103521
0.0044132
-0.00684483
-0.00882848
0.000204901
0.00851899
0.00600959
-0.00356045
-0.0083573
-0.00313058
0.00548279
0.00725964
0.000820579
-0.00625597
-0.00593767
0.000743524
0.00629382
0.00479502
-0.00160527
-0.00596327
-0.003985
0.00188925
0.00549204
0.00352387
-0.00172552
-0.004983
-0.00333531
0.00120678
0.00442534
0.00335697
-0.000506326
-0.00364041
-0.00354623
-0.00027438
0.00269157
0.00344482
0.00136862
-0.00182429
-0.00288609
-0.00218117
0.000376134
0.0025261
0.00209389
0.00107327
-0.00123906
-0.00240479
-0.00116899
-0.000519026
0.00142682
0.00207453
0.000436311
95.3506
50
10.4756
-4.64918
-2.79949
1.17573
1.10602
-0.443667
-0.548108
0.208943
0.317632
-0.111835
-0.207593
0.063077
0.149334
-0.0339091
-0.115545
0.0133699
0.0936884
0.00307523
-0.077269
-0.0171674
0.062623
0.0291909
-0.0476773
-0.0385657
0.0315066
0.0442286
-0.0142145
-0.0450091
-0.00311079
0.0400759
0.0185277
-0.0294187
-0.0295992
0.0142775
0.0340048
0.00271208
-0.0304133
-0.0177686
0.0192783
0.0269025
-0.00341492
-0.0271571
-0.0124377
0.018243
0.0226935
-0.00310572
-0.023401
-0.0121583
0.0139777
0.0209676
0.00120158
-0.0188919
-0.0147251
0.00710136
0.0191749
0.00782961
-0.0120112
-0.0168877
-0.00208408
0.0141211
0.0137476
-0.00186651
-0.0144349
-0.01083
0.00409298
0.0138028
0.00867343
-0.00496213
-0.0127726
-0.00739957
0.00479868
0.0116477
0.00688938
-0.00388514
-0.0103859
-0.0070469
0.00251296
0.00885802
0.00741377
-0.000490582
-0.00734518
-0.00726029
-0.00197085
0.00520361
0.00717469
0.0033846
-0.0017957
-0.00648005
-0.00477862
-0.000281096
0.00314934
0.00594533
0.00238172
-0.00129898
-0.00288761
-0.00506941
-0.000842918
0.0018218
104.649
89.5244
49.9999
12.0983
-4.64874
-3.45915
1.17439
1.43973
-0.440772
-0.744311
0.203713
0.446836
-0.103406
-0.300388
0.0505916
0.220151
-0.0166391
-0.171305
-0.00910729
0.13742
0.030671
-0.109868
-0.0490696
0.0838938
0.0636988
-0.0571249
-0.0730469
0.0290386
0.0752839
-0.000775199
-0.0689166
-0.0250705
0.0535308
0.0449069
-0.0304775
-0.0550138
0.00328707
0.052755
0.0225722
-0.0379794
-0.0407081
0.0139468
0.0458088
0.0125628
-0.0357975
-0.0329538
0.0138215
0.0395427
0.0120394
-0.0295403
-0.0308277
0.00700118
0.0339685
0.0172218
-0.0196665
-0.0306638
-0.0042478
0.0257117
0.0238391
-0.00548002
-0.0269312
-0.0166291
0.0115253
0.0254552
0.0107596
-0.0145371
-0.0229584
-0.00682057
0.0153641
0.0205222
0.00471444
-0.0146925
-0.0185717
-0.00423559
0.0131371
0.0169353
0.00512247
-0.0108535
-0.0156259
-0.00648118
0.00740633
0.0144922
0.00802518
-0.0037042
-0.0118208
-0.0102907
0.000422883
0.00817561
0.0103621
0.00456262
-0.00545507
-0.00798432
-0.00721275
-0.000631612
0.00723284
0.0058002
0.00472868
-0.000942062
-0.00737064
-0.00336706
101.177
104.649
87.9017
49.9999
12.7579
-4.64798
-3.79287
1.17229
1.63603
-0.436532
-0.87376
0.196438
0.540112
-0.0921784
-0.372005
0.0345873
0.2771
0.00470364
-0.21665
-0.0358803
0.172026
0.0622679
-0.133422
-0.0839882
0.0956716
0.0994452
-0.056695
-0.106233
0.0169329
0.102006
0.0209585
-0.0854523
-0.0526006
0.0573055
0.072832
-0.0211023
-0.0772171
-0.0166763
0.0638709
0.0475695
-0.0351946
-0.0632137
-0.00151635
0.0585001
0.0350365
-0.0343191
-0.0537302
-0.000866695
0.0500251
0.0332207
-0.0252649
-0.0483349
-0.00951754
0.0389653
0.0368727
-0.00979789
-0.0421089
-0.02268
0.0222363
0.0388187
0.0101214
-0.0284584
-0.0329283
-0.000981461
0.0302905
0.0270493
-0.00461177
-0.0295259
-0.0224954
0.00714767
0.0275796
0.0194896
-0.00710831
-0.0252688
-0.0178986
0.00529452
0.0223186
0.0178222
-0.00260607
-0.0184898
-0.0181033
-0.0015885
0.0148256
0.0169339
0.00671202
-0.00977816
-0.0160253
-0.0091357
0.00206425
0.0136987
0.0115964
0.0021325
-0.00573056
-0.0132034
-0.00654263
0.00185799
0.00562416
0.0114984
0.00308769
-0.00352028
98.8235
102.799
104.649
87.2421
49.9998
13.0917
-4.64684
-3.98927
1.16929
1.76574
-0.430733
-0.967577
0.186865
0.61266
-0.077898
-0.43038
0.0148719
0.324433
0.0301694
-0.253808
-0.0667595
0.198588
0.0973391
-0.148415
-0.12099
0.0982629
0.135089
-0.0468877
-0.136487
-0.00379852
0.122717
0.0492506
-0.0932961
-0.083222
0.0509242
0.0993415
-0.00209527
-0.0933415
-0.0433465
0.0653898
0.0742417
-0.021815
-0.0814519
-0.0251855
0.0620361
0.0602018
-0.0219676
-0.0702848
-0.0237156
0.0508435
0.0560028
-0.0102018
-0.059801
-0.0324514
0.0332027
0.0548445
0.00952023
-0.0445361
-0.0433533
0.00796216
0.0472044
0.0309066
-0.0190228
-0.0449512
-0.020596
0.0246332
0.0408127
0.0134864
-0.0262015
-0.0367312
-0.00952134
0.0250502
0.0333184
0.00856395
-0.0224537
-0.0302
-0.0101354
0.0185496
0.0276962
0.0123295
-0.0123393
-0.0256657
-0.0147368
0.00576554
0.0207165
0.018632
-0.000178403
-0.0140353
-0.0185101
-0.00857565
0.0092774
0.0140027
0.0130459
0.00153767
-0.01264
-0.0102932
-0.00858932
0.00136361
0.0130254
0.006049
99.5537
98.8241
103.459
104.648
86.9083
49.9997
13.2881
-4.64523
-4.1192
1.16522
1.86007
-0.423168
-1.04106
0.174757
0.672532
-0.0603452
-0.479892
-0.00869101
0.364502
0.0597236
-0.283948
-0.101441
0.217603
0.135225
-0.155055
-0.159016
0.0919291
0.169218
-0.0283335
-0.162214
-0.0319011
0.13596
0.0821056
-0.0915709
-0.114314
0.0345536
0.121605
0.0250126
-0.101045
-0.0738609
0.0562878
0.0989452
0.00121665
-0.092067
-0.0540694
0.0546672
0.0837967
0.000389735
-0.078689
-0.0511893
0.0402857
0.0754859
0.0139583
-0.0613482
-0.057156
0.0161328
0.0659251
0.0347397
-0.0353383
-0.0605408
-0.015029
0.0448179
0.0511842
0.000767104
-0.0475004
-0.0419046
0.00788929
0.0462172
0.0347207
-0.011733
-0.0431789
-0.0299706
0.0115618
0.0396023
0.0275057
-0.0087118
-0.0349723
-0.0275215
0.00456986
0.0289829
0.028074
0.00203087
-0.0233964
-0.0262672
-0.0101701
0.0156254
0.0249945
0.0139742
-0.00350627
-0.0215946
-0.0179101
-0.00304463
0.00916133
0.0207089
0.00994934
-0.00313389
-0.00894702
-0.0179934
-0.0045394
0.00566583
100.446
98.894
98.8253
103.793
104.647
86.7119
49.9996
13.4182
-4.64308
-4.21392
1.15995
1.93436
-0.41364
-1.10234
0.159899
0.724227
-0.0393368
-0.523021
-0.0361776
0.398584
0.0932436
-0.307624
-0.13951
0.229244
0.175145
-0.153442
-0.196912
0.0769933
0.200397
-0.00185368
-0.181933
-0.0658675
0.14058
0.117319
-0.0799066
-0.143228
0.00901447
0.137085
0.0580461
-0.0986806
-0.104969
0.0365686
0.118172
0.0318528
-0.0925219
-0.0844226
0.036041
0.101613
0.0303583
-0.0761043
-0.078806
0.0185006
0.0870788
0.0436874
-0.0507732
-0.0783063
-0.0103876
0.0659934
0.0606659
-0.0144946
-0.0688538
-0.0421753
0.029915
0.0648767
0.0271649
-0.0375232
-0.0584293
-0.017028
0.0394625
0.0522784
0.0115403
-0.03762
-0.0473164
-0.0103712
0.0337507
0.0430018
0.0128101
-0.0280557
-0.0396791
-0.0162264
0.0191336
0.0370584
0.0200509
-0.00966423
-0.0302762
-0.0260886
0.00152553
0.0209249
0.0264368
0.0113364
-0.014289
-0.0203215
-0.0183224
-0.00125505
0.0187476
0.0146828
0.0119474
-0.00279175
-0.0190331
-0.00848024
100.214
100.444
98.5602
98.8272
103.989
104.646
86.5818
49.9994
13.5131
-4.64031
-4.28881
1.15334
1.99685
-0.401963
-1.15604
0.142096
0.770344
-0.0147291
-0.561163
-0.0676006
0.427322
0.130518
-0.325031
-0.180441
0.233522
0.216211
-0.14367
-0.233453
0.0539075
0.227215
0.0315109
-0.194339
-0.103956
0.135793
0.152551
-0.0584791
-0.16742
-0.0242454
0.1437
0.0943169
-0.0854196
-0.133277
0.007277
0.128862
0.0671215
-0.0813668
-0.11214
0.00726583
0.110015
0.0642882
-0.0611859
-0.101768
-0.012456
0.0872111
0.0741755
-0.0280218
-0.0908022
-0.0423864
0.0529042
0.0814505
0.0152804
-0.0644105
-0.0674488
0.00385821
0.0668917
0.0541867
-0.0151569
-0.0643401
-0.0442399
0.0199297
0.05973
0.0379528
-0.0193738
-0.0546773
-0.0349626
0.0152024
0.0485358
0.0353815
-0.00921348
-0.0407404
-0.0367085
-5.42349e-05
0.0334156
0.0350342
0.0115471
-0.0231486
-0.0339988
-0.0174324
0.0067218
0.030197
0.0234185
0.00261129
-0.0137782
-0.0282803
-0.0122692
0.00535163
0.0130054
0.0243162
0.00491051
-0.00829914
99.7875
100.548
100.441
98.3639
98.8299
104.119
104.644
86.4868
49.9993
13.5883
-4.63686
-4.35217
1.14524
2.05221
-0.387963
-1.20487
0.121177
0.812404
0.0135811
-0.595072
-0.10291
0.450975
0.171249
-0.336156
-0.223612
0.230385
0.257449
-0.125898
-0.267385
0.0232906
0.248339
0.0704976
-0.198364
-0.144234
0.121229
0.185425
-0.028018
-0.184583
-0.0632233
0.139957
0.130799
-0.0613273
-0.155513
-0.0295759
0.128694
0.103398
-0.0584065
-0.133203
-0.0291793
0.106385
0.0977272
-0.0343257
-0.115617
-0.0488906
0.0739577
0.100052
0.00472698
-0.0906992
-0.0744417
0.0270488
0.0916865
0.0490491
-0.0458768
-0.0845594
-0.029081
0.0544727
0.0750176
0.0160033
-0.0559845
-0.0664771
-0.00928184
0.0529602
0.059993
0.00826115
-0.0475744
-0.05478
-0.0119997
0.0400892
0.0510478
0.0172303
-0.0285739
-0.048437
-0.0230353
0.0160772
0.040655
0.0318868
-0.00523358
-0.0290775
-0.0338592
-0.0119675
0.0208997
0.0268426
0.0225936
-0.000987802
-0.0256538
-0.0187036
-0.0143704
0.00587149
0.0253089
0.0103272
99.8786
99.7907
100.744
100.437
98.2341
98.8337
104.214
104.642
86.4116
49.9991
13.6522
-4.63263
-4.40875
1.13554
2.10327
-0.371473
-1.25044
0.0969918
0.851279
0.0456572
-0.625106
-0.141993
0.469568
0.215058
-0.340878
-0.268313
0.219783
0.297823
-0.100392
-0.29746
-0.0140545
0.262567
0.11364
-0.193231
-0.18464
0.096969
0.213628
0.0102158
-0.19278
-0.105469
0.125058
0.16433
-0.0273703
-0.168795
-0.0711642
0.116299
0.136745
-0.0247559
-0.144109
-0.0697048
0.0894874
0.125947
0.00235732
-0.11689
-0.0859462
0.0474058
0.116219
0.0433553
-0.0760066
-0.100548
-0.00865283
0.0875791
0.0804888
-0.0148729
-0.088351
-0.0625489
0.0280688
0.0835846
0.0496485
-0.0330729
-0.0769435
-0.0419766
0.0315933
0.0703732
0.0388094
-0.0256926
-0.0629884
-0.040202
0.017643
0.0536996
0.0432195
-0.00558709
-0.0450549
-0.0425654
-0.00988364
0.0330574
0.0424905
0.0187212
-0.0124813
-0.0396489
-0.027252
-0.000189449
0.0200949
0.0356976
0.0125683
-0.00895027
-0.018139
-0.0300968
-0.00328442
0.0116974
100.118
99.6823
99.7957
100.874
100.432
98.1397
98.8387
104.289
104.639
86.3477
49.9989
13.7094
-4.62758
-4.4614
1.1241
2.15173
-0.352341
-1.29377
0.0694135
0.887444
0.0815223
-0.651369
-0.184679
0.482983
0.261491
-0.339033
-0.313762
0.201719
0.336257
-0.0675515
-0.322473
-0.0571372
0.268865
0.159297
-0.178492
-0.223053
0.0635521
0.235019
0.05448
-0.190547
-0.148216
0.0989635
0.191826
0.0146336
-0.170854
-0.114069
0.0914195
0.163272
0.0172448
-0.142267
-0.109967
0.0596543
0.144527
0.0452281
-0.103642
-0.11823
0.00970353
0.118702
0.0823366
-0.047076
-0.115202
-0.0491063
0.0677377
0.103089
0.0241827
-0.0760049
-0.0893501
-0.00861687
0.0761504
0.0780091
0.00115741
-0.0713181
-0.0701614
-0.000735765
0.0641782
0.0644557
0.00639105
-0.0551303
-0.0608364
-0.0141517
0.0412653
0.059249
0.0224287
-0.0256217
-0.0517396
-0.0349907
0.0122291
0.0385184
0.0402777
0.00940213
-0.0295613
-0.0332459
-0.0252639
0.00611752
0.0334551
0.0219162
0.0153153
-0.0114109
-0.0317626
-0.0111555
100.078
100.112
99.553
99.8028
100.968
100.424
98.0652
98.845
104.353
104.635
86.2904
49.9987
13.7629
-4.62162
-4.51192
1.11079
2.1987
-0.330421
-1.33543
0.0383379
0.921111
0.121159
-0.673804
-0.230734
0.491022
0.310023
-0.330453
-0.359114
0.176273
0.371662
-0.0279274
-0.341296
-0.104785
0.266415
0.20569
-0.154057
-0.257367
0.0219693
0.247724
0.102622
-0.176988
-0.188535
0.0624113
0.210482
0.0621267
-0.160231
-0.154535
0.0549509
0.179494
0.0642107
-0.126295
-0.145309
0.0188028
0.149906
0.0895074
-0.0757459
-0.140573
-0.0351037
0.105263
0.115582
-0.00672428
-0.114341
-0.0878424
0.0335811
0.111432
0.0646904
-0.0476482
-0.103122
-0.0490013
0.0521088
0.0937933
0.0403824
-0.0490935
-0.0857587
-0.0374927
0.0409574
0.0776681
0.0405189
-0.0306597
-0.067446
-0.046371
0.0158427
0.0581554
0.0478966
0.00418676
-0.0455785
-0.0497605
-0.0169388
0.0213162
0.0496949
0.0285795
-0.00481801
-0.028317
-0.0425084
-0.0101097
0.0142382
0.0244309
0.0348662
-0.000944675
-0.0159684
99.9275
100.208
100.104
99.4595
99.8121
101.042
100.415
98.0026
98.8527
104.409
104.63
86.2369
49.9984
13.8145
-4.6147
-4.56149
1.09549
2.24486
-0.305583
-1.37576
0.00368428
0.952321
0.164509
-0.692249
-0.279869
0.493444
0.360062
-0.315003
-0.403474
0.14363
0.402951
0.0177708
-0.352907
-0.15566
0.254643
0.250951
-0.12021
-0.285563
-0.0263602
0.250225
0.152168
-0.151836
-0.223489
0.0168979
0.217969
0.111962
-0.136414
-0.188758
0.00892009
0.182672
0.111987
-0.0962075
-0.171261
-0.0296782
0.139829
0.129838
-0.0350588
-0.148697
-0.0815802
0.0758877
0.137323
0.0400518
-0.0960759
-0.118151
-0.0105605
0.102084
0.0992429
-0.00679257
-0.099546
-0.0848907
0.0142598
0.0922171
0.0759845
-0.0134519
-0.0831626
-0.0704344
0.00527423
0.072869
0.0677584
0.00572951
-0.0571971
-0.0683804
-0.0171286
0.0386708
0.0627287
0.0343232
-0.0230112
-0.0489641
-0.0447445
-0.00294416
0.0402563
0.0390205
0.0255768
-0.0144822
-0.0418517
-0.0238726
-0.014285
0.0195737
0.0379863
0.0106933
99.9432
99.9365
100.301
100.093
99.3867
99.8239
101.103
100.404
97.947
98.862
104.462
104.625
86.1852
49.9982
13.8655
-4.60673
-4.61087
1.0781
2.29066
-0.277702
-1.4149
-0.0346029
0.980996
0.211472
-0.706472
-0.331734
0.49
0.410954
-0.2926
-0.44591
0.104094
0.429071
0.0686713
-0.356431
-0.208273
0.233251
0.293169
-0.0776224
-0.305796
-0.079629
0.24145
0.200432
-0.115494
-0.250308
-0.0353808
0.212613
0.160601
-0.099919
-0.2132
-0.0436271
0.171084
0.156022
-0.0535182
-0.183995
-0.0812536
0.113726
0.160873
0.0147191
-0.139867
-0.123587
0.0329968
0.142916
0.086872
-0.0613775
-0.133994
-0.0582081
0.0745402
0.120954
0.0399657
-0.0771228
-0.108532
-0.0310283
0.071895
0.0991116
0.0292705
-0.0612874
-0.090941
-0.034762
0.0486314
0.080835
0.0444962
-0.0311441
-0.0719783
-0.0496195
0.00639591
0.0601878
0.0547519
0.0111223
-0.0333062
-0.0594083
-0.0265513
0.0128168
0.0381343
0.0477779
0.00439839
-0.0212249
-0.0315195
-0.0378303
0.00798275
0.0208915
100.047
99.8505
99.9488
100.373
100.079
99.3266
99.8385
101.157
100.39
97.8957
98.873
104.513
104.618
86.1341
49.9979
13.9166
-4.59765
-4.66058
1.05849
2.33636
-0.246672
-1.45291
-0.0765524
1.00698
0.261901
-0.716207
-0.385923
0.480455
0.461993
-0.263239
-0.485474
0.0581014
0.449026
0.123745
-0.351165
-0.261025
0.202248
0.330459
-0.0273459
-0.316469
-0.135701
0.22084
0.244646
-0.0690448
-0.266558
-0.0916339
0.193534
0.204354
-0.0523179
-0.224878
-0.0988489
0.144273
0.19176
-0.00115005
-0.180804
-0.130663
0.0728982
0.177911
0.0684527
-0.113478
-0.154955
-0.018897
0.129827
0.126712
-0.0140252
-0.131124
-0.101819
0.0317962
0.124507
0.0843605
-0.0380296
-0.114169
-0.0748379
0.0351606
0.103204
0.0704009
-0.0240099
-0.0921257
-0.0698319
0.00921431
0.075624
0.0739858
0.00593915
-0.0550293
-0.0721216
-0.0284675
0.0376999
0.0595065
0.0458431
-0.00809292
-0.0523908
-0.043184
-0.0225091
0.0262218
0.0499523
0.023833
0.0106173
-0.0302538
-0.043026
-0.0085122
100.045
100.034
99.7794
99.9646
100.431
100.062
99.2745
99.856
101.206
100.374
97.8469
98.8859
104.563
104.611
86.083
49.9976
13.9684
-4.5874
-4.71097
1.03657
2.3821
-0.212397
-1.48971
-0.122166
1.03005
0.31561
-0.721169
-0.441977
0.464605
0.512428
-0.227002
-0.521216
0.00622506
0.461908
0.181818
-0.336614
-0.312236
0.161959
0.361022
0.0292099
-0.316321
-0.192195
0.188399
0.282098
-0.0142242
-0.270304
-0.148634
0.16076
0.239639
0.00384607
-0.221656
-0.152385
0.103143
0.215089
0.0567869
-0.160496
-0.172416
0.0203993
0.17764
0.120003
-0.0711374
-0.17049
-0.0736075
0.0981534
0.152928
0.0399326
-0.108152
-0.133842
-0.0201064
0.107395
0.118004
0.0118845
-0.0992496
-0.107603
-0.0121758
0.085995
0.100398
0.0209134
-0.0711691
-0.0917998
-0.0356359
0.0516778
0.0847654
0.0459046
-0.0225932
-0.0757655
-0.0555989
-0.000329299
0.0482226
0.0671952
0.0198223
-0.023974
-0.0489047
-0.0499386
0.00533347
0.0296412
0.0387544
0.0375901
-0.0182138
-0.0260239
99.9683
100.116
100.017
99.7221
99.9841
100.481
100.041
99.228
99.8766
101.252
100.355
97.7996
98.9007
104.612
104.602
86.0311
49.9973
14.0212
-4.57592
-4.76227
1.01222
2.42794
-0.174798
-1.5252
-0.171417
1.04997
0.372369
-0.721074
-0.499391
0.442295
0.561479
-0.184072
-0.552209
-0.0508286
0.466923
0.241598
-0.312512
-0.360203
0.113032
0.383219
0.0903181
-0.304481
-0.246582
0.144721
0.310277
0.046657
-0.260256
-0.2029
0.115256
0.263249
0.0652051
-0.202468
-0.199696
0.0499234
0.222808
0.115281
-0.123513
-0.20149
-0.0391032
0.158517
0.163041
-0.0166508
-0.166746
-0.124039
0.0507138
0.160418
0.0929375
-0.066924
-0.148096
-0.0729452
0.070537
0.134184
0.0637705
-0.0648415
-0.121566
-0.0615967
0.050329
0.110753
0.0642646
-0.031348
-0.0950515
-0.0734367
0.0123135
0.0736686
0.0778382
0.0156471
-0.0559088
-0.0685132
-0.0418274
0.0244414
0.0647289
0.0442558
0.0148555
-0.0413804
-0.0562583
-0.0207326
-0.00348613
0.0432282
0.0453922
0.00394737
99.9612
99.9862
100.172
99.9961
99.6743
100.007
100.525
100.016
99.1855
99.9005
101.296
100.334
97.753
98.9176
104.662
104.593
85.9781
49.997
14.0755
-4.56313
-4.81463
0.985349
2.47388
-0.133804
-1.55923
-0.224257
1.06647
0.431912
-0.71565
-0.55762
0.413424
0.608347
-0.134729
-0.577564
-0.112228
0.463409
0.301694
-0.278835
-0.403236
0.0564237
0.395623
0.153991
-0.280525
-0.296293
0.0909734
0.327015
0.110817
-0.235861
-0.250905
0.0588889
0.272612
0.127763
-0.167415
-0.236487
-0.011903
0.212892
0.168961
-0.0720758
-0.213816
-0.0998622
0.121126
0.191779
0.0443797
-0.142601
-0.16316
-0.00714785
0.146395
0.137213
-0.0126639
-0.140574
-0.118077
0.0187365
0.12895
0.107461
-0.0153811
-0.11318
-0.102682
0.00281246
0.0968228
0.0973753
0.0178162
-0.0767698
-0.0938643
-0.0347101
0.0445843
0.0903289
0.0500242
-0.0161225
-0.0651773
-0.0708593
-0.00703217
0.0380434
0.0594461
0.0470618
-0.0196606
-0.0388521
-0.0451047
-0.0325077
0.0317561
0.0306754
100.02
99.9058
100.009
100.218
99.9707
99.6337
100.035
100.563
99.9883
99.1461
99.9279
101.338
100.309
97.7068
98.9368
104.713
104.582
85.9237
49.9967
14.1313
-4.54899
-4.86816
0.95587
2.51989
-0.0893585
-1.59161
-0.280611
1.07928
0.493938
-0.704643
-0.616083
0.377951
0.652225
-0.0793584
-0.596449
-0.177025
0.450858
0.360647
-0.235809
-0.439714
-0.00661871
0.397079
0.218041
-0.2445
-0.338821
0.0288636
0.330599
0.175126
-0.197353
-0.289303
-0.00562925
0.265955
0.187208
-0.117869
-0.258993
-0.077929
0.184829
0.212482
-0.00993574
-0.206845
-0.155549
0.0681668
0.201702
0.105229
-0.0996774
-0.184735
-0.0685448
0.111368
0.165505
0.0470825
-0.110473
-0.147979
-0.039569
0.101269
0.134325
0.041131
-0.0835278
-0.125191
-0.048274
0.0605245
0.112623
0.0637898
-0.0380128
-0.0925803
-0.0770614
0.00537367
0.0763224
0.073707
0.0308545
-0.0459479
-0.0753372
-0.0405295
-0.00166082
0.0591085
0.0588827
0.013585
-0.00760229
-0.0574887
-0.0434381
0.00340152
100.035
99.9973
99.8617
100.035
100.255
99.9411
99.5991
100.066
100.598
99.9564
99.1093
99.9587
101.379
100.282
97.6606
98.9582
104.765
104.57
85.8677
49.9963
14.1889
-4.53341
-4.92291
0.923688
2.56589
-0.0414157
-1.62213
-0.340382
1.08809
0.55811
-0.687821
-0.674166
0.335902
0.692301
-0.0184476
-0.608095
-0.244163
0.428925
0.416957
-0.183913
-0.468117
-0.0745814
0.386745
0.280146
-0.196936
-0.371834
-0.0394037
0.319861
0.236269
-0.145805
-0.315096
-0.0749207
0.24252
0.239122
-0.0563425
-0.264408
-0.143034
0.139634
0.241127
0.0578393
-0.179884
-0.199843
0.00411401
0.190432
0.158465
-0.0418746
-0.184619
-0.125593
0.0591088
0.172092
0.103938
-0.061198
-0.156786
-0.0943006
0.0537189
0.13923
0.0936593
-0.0370485
-0.122597
-0.0938071
0.0102753
0.104122
0.0958778
0.0142332
-0.0712574
-0.100754
-0.0359078
0.0381612
0.0820706
0.0677615
-0.0124695
-0.0539954
-0.0677131
-0.0372829
0.0382331
0.0476464
0.0490005
0.0212459
-0.0477566
-0.0338285
99.9888
100.078
99.9696
99.8266
100.066
100.286
99.9075
99.5698
100.102
100.629
99.9206
99.075
99.9932
101.419
100.251
97.6143
98.982
104.817
104.556
85.81
49.9959
14.2483
-4.51635
-4.97891
0.888715
2.61177
0.0100577
-1.65057
-0.403445
1.09263
0.624055
-0.664985
-0.731227
0.287377
0.727776
0.0474097
-0.611821
-0.312491
0.397449
0.469104
-0.123886
-0.487077
-0.145711
0.36413
0.337927
-0.138866
-0.393259
-0.11122
0.294293
0.290869
-0.0830594
-0.325891
-0.145038
0.202589
0.279389
0.0135346
-0.251073
-0.201828
0.0798715
0.251324
0.125151
-0.134066
-0.227399
-0.0648382
0.157818
0.197056
0.0248971
-0.161572
-0.170103
-0.00420377
0.154312
0.14952
5.11026e-05
-0.141073
-0.136173
-0.00673136
0.12077
0.130594
0.0194798
-0.0948737
-0.12396
-0.0422795
0.070155
0.108304
0.0665646
-0.0347029
-0.0962513
-0.0721326
-0.0114627
0.0710601
0.0813951
0.0302675
-0.0173399
-0.0772633
-0.0555544
-0.00172776
0.0224792
0.0709193
0.0354661
-0.0134686
99.9684
100.017
100.111
99.9379
99.7995
100.101
100.31
99.8701
99.5455
100.141
100.656
99.8809
99.0431
100.031
101.458
100.217
97.5678
99.0084
104.871
104.541
85.7504
49.9955
14.3097
-4.49774
-5.03615
0.850871
2.65742
0.0650798
-1.67667
-0.469648
1.09261
0.691364
-0.635976
-0.786598
0.232554
0.757867
0.117514
-0.607046
-0.380772
0.356464
0.51559
-0.0567198
-0.495423
-0.218059
0.329146
0.389015
-0.0717905
-0.401418
-0.183629
0.254061
0.335715
-0.0117465
-0.320006
-0.211758
0.147591
0.304449
0.0872377
-0.218659
-0.249179
0.009668
0.240862
0.185629
-0.0725717
-0.234324
-0.131427
0.106038
0.21547
0.0930598
-0.11734
-0.194878
-0.0707814
0.113517
0.176193
0.063862
-0.101082
-0.158359
-0.0691104
0.0805842
0.143499
0.0769118
-0.0484932
-0.129515
-0.0866748
0.0164005
0.0997684
0.102784
0.0115578
-0.0643704
-0.0954806
-0.0549531
0.0383145
0.0696498
0.0708287
0.0189256
-0.0595437
-0.054046
-0.0483477
-0.00282224
0.0642605
0.0340539
100.003
99.9367
100.049
100.135
99.9026
99.7799
100.14
100.328
99.8291
99.5263
100.184
100.679
99.8374
99.0137
100.073
101.495
100.18
97.5212
99.0373
104.927
104.525
85.6889
49.9951
14.3731
-4.47752
-5.09461
0.810078
2.70268
0.123652
-1.7002
-0.538811
1.08776
0.759595
-0.600681
-0.839595
0.171698
0.781829
0.191064
-0.593309
-0.447709
0.306219
0.554972
0.0163524
-0.49223
-0.289522
0.28211
0.431172
0.00232221
-0.395084
-0.253496
0.20009
0.367895
0.0648759
-0.296656
-0.270817
0.0800895
0.311562
0.159717
-0.168387
-0.280534
-0.065687
0.2093
0.233182
-0.000432285
-0.218665
-0.18815
0.0395306
0.210519
0.154078
-0.0563238
-0.195156
-0.132
0.0551086
0.177984
0.120833
-0.0420544
-0.156758
-0.120943
0.0231233
0.130189
0.123456
0.00682974
-0.105607
-0.115951
-0.0432562
0.0708888
0.111303
0.0604968
-0.0169631
-0.0966129
-0.0791326
-0.0120593
0.0414424
0.0923433
0.0436468
-0.014956
-0.0401828
-0.0802702
-0.019745
0.0256799
100.028
99.9708
99.9149
100.084
100.15
99.8643
99.7678
100.181
100.34
99.7849
99.5122
100.23
100.698
99.7903
98.9869
100.119
101.531
100.139
97.4745
99.069
104.983
104.507
85.6253
49.9947
14.4385
-4.45562
-5.15426
0.766269
2.74742
0.185762
-1.72088
-0.610726
1.07782
0.828279
-0.55904
-0.889531
0.105159
0.798966
0.26717
-0.570286
-0.511965
0.24717
0.58591
0.0938721
-0.476853
-0.357924
0.223783
0.462351
0.0811311
-0.373596
-0.31761
0.134028
0.384994
0.143068
-0.256068
-0.318166
0.00361407
0.299123
0.225689
-0.102942
-0.292434
-0.140085
0.158044
0.26273
0.0757723
-0.180573
-0.228328
-0.0351989
0.181779
0.199491
0.0151624
-0.170063
-0.178774
-0.013012
0.15241
0.162954
0.0257998
-0.129485
-0.152488
-0.0431465
0.094442
0.146636
0.0620809
-0.0562222
-0.125308
-0.0914162
0.0235114
0.0915223
0.100832
0.0297385
-0.0685745
-0.0815701
-0.0653921
0.00898185
0.0806516
0.0553796
0.0407904
-0.0229747
-0.0781122
-0.0296347
100.004
100.048
99.9359
99.9027
100.122
100.158
99.8238
99.763
100.225
100.345
99.7379
99.5035
100.28
100.713
99.7396
98.9629
100.168
101.566
100.095
97.4277
99.1034
105.041
104.488
85.5597
49.9942
14.5059
-4.432
-5.21506
0.719379
2.79146
0.25138
-1.73847
-0.685166
1.06258
0.896924
-0.511044
-0.935717
0.0333663
0.808648
0.344859
-0.537798
-0.572201
0.17999
0.607194
0.174204
-0.448967
-0.421065
0.155333
0.480808
0.161979
-0.336891
-0.372855
0.0581945
0.385255
0.218787
-0.199471
-0.350289
-0.0774708
0.266747
0.280142
-0.0264606
-0.282695
-0.207305
0.0905065
0.270583
0.148625
-0.122361
-0.247153
-0.109784
0.131102
0.222829
0.0889461
-0.122551
-0.202712
-0.0824149
0.10254
0.183274
0.0903001
-0.0778628
-0.159537
-0.105005
0.0425121
0.138635
0.109666
0.00528055
-0.110011
-0.11569
-0.0359521
0.0532587
0.117527
0.0645546
-0.014469
-0.0683447
-0.099583
-0.021018
0.0355413
0.0585571
0.0814158
-0.00466012
-0.0386609
99.9761
100.039
100.058
99.8996
99.8998
100.16
100.156
99.7821
99.7657
100.27
100.344
99.6887
99.5004
100.332
100.723
99.6855
98.9421
100.221
101.6
100.047
97.381
99.1408
105.1
104.466
85.492
49.9938
14.5755
-4.40659
-5.27696
0.669349
2.83463
0.320469
-1.75272
-0.761882
1.04181
0.965022
-0.456737
-0.977481
-0.0431723
0.810312
0.423101
-0.495816
-0.627085
0.105545
0.617783
0.255556
-0.408573
-0.476802
0.0783243
0.48516
0.241997
-0.285531
-0.416354
-0.0244829
0.367653
0.287957
-0.129159
-0.364334
-0.158374
0.215523
0.318539
0.0559031
-0.250772
-0.261532
0.0120012
0.25456
0.211079
-0.0489622
-0.241705
-0.175356
0.0625888
0.220943
0.155079
-0.0578212
-0.198752
-0.144463
0.036695
0.175958
0.14151
-0.00898608
-0.142217
-0.147546
-0.0194486
0.101439
0.140854
0.0622022
-0.0673168
-0.114287
-0.0928394
0.00886898
0.0990718
0.085284
0.0481811
-0.0454094
-0.0969734
-0.0487532
-0.024399
0.0544675
0.0850282
0.0191214
99.9893
99.9678
100.074
100.058
99.8633
99.9059
100.199
100.147
99.7401
99.776
100.316
100.336
99.6379
99.5032
100.387
100.729
99.6283
98.9247
100.278
101.631
99.9957
97.3345
99.1811
105.16
104.444
85.4222
49.9933
14.6471
-4.37934
-5.33988
0.61612
2.87678
0.392978
-1.76337
-0.840604
1.01533
1.03205
-0.396215
-1.01416
-0.123877
0.803473
0.500807
-0.444462
-0.675329
0.0248921
0.616823
0.33603
-0.356013
-0.523104
-0.00532197
0.474436
0.31822
-0.220731
-0.445554
-0.110662
0.33208
0.346562
-0.0482501
-0.358456
-0.234042
0.14793
0.33715
0.138474
-0.198142
-0.297493
-0.0710912
0.214654
0.256966
0.0323904
-0.210879
-0.224366
-0.0168046
0.193635
0.203501
0.0176678
-0.167313
-0.189591
-0.0347985
0.138792
0.173402
0.0635803
-0.101831
-0.160746
-0.0837845
0.0463625
0.144901
0.103109
-0.00260524
-0.0933532
-0.126873
-0.0347137
0.0476657
0.0935081
0.0934863
-0.0127041
-0.0574646
-0.073891
-0.0700351
0.0367039
0.0499539
100.018
99.9552
99.9701
100.108
100.048
99.8284
99.9207
100.236
100.129
99.6988
99.7938
100.363
100.321
99.5861
99.5122
100.444
100.73
99.5681
98.911
100.338
101.661
99.9408
97.2882
99.2244
105.222
104.419
85.3502
49.9928
14.721
-4.35018
-5.40378
0.559636
2.9177
0.468845
-1.77017
-0.921043
0.982983
1.09745
-0.329628
-1.0451
-0.208092
0.787731
0.576844
-0.384019
-0.715696
-0.0607312
0.603675
0.413655
-0.291985
-0.558096
-0.0933937
0.448172
0.387623
-0.144268
-0.458439
-0.19661
0.279288
0.390933
0.0394009
-0.331996
-0.299366
0.0675552
0.333589
0.21521
-0.128098
-0.310961
-0.152014
0.153546
0.281056
0.113414
-0.156015
-0.251523
-0.097318
0.142555
0.226992
0.0954767
-0.113663
-0.208204
-0.103071
0.0767515
0.181786
0.123992
-0.0404782
-0.144402
-0.137878
-0.0129909
0.114207
0.125289
0.0667149
-0.058649
-0.122981
-0.0758835
-0.0173125
0.0862178
0.10244
0.0317584
-0.00142787
-0.0872483
-0.080032
-0.00193287
100.016
100.015
99.9234
99.9822
100.139
100.03
99.7964
99.9439
100.271
100.104
99.6593
99.8192
100.408
100.299
99.534
99.5276
100.502
100.725
99.5054
98.9013
100.401
101.688
99.8823
97.2425
99.2708
105.284
104.393
85.2761
49.9923
14.7969
-4.31907
-5.46857
0.499846
2.95722
0.547991
-1.77288
-1.00288
0.944621
1.16068
-0.257185
-1.0697
-0.295091
0.762778
0.650045
-0.314934
-0.747028
-0.149928
0.577947
0.486409
-0.217513
-0.580165
-0.183385
0.406388
0.447302
-0.0585083
-0.45359
-0.278382
0.210898
0.41801
0.1293
-0.285493
-0.349591
-0.0210474
0.307127
0.279962
-0.0453076
-0.2995
-0.223967
0.0764733
0.279289
0.186337
-0.0819921
-0.253313
-0.168304
0.071237
0.223193
0.164206
-0.0447185
-0.194613
-0.160855
0.00233991
0.162024
0.161369
0.0347797
-0.106174
-0.165238
-0.0682203
0.0529408
0.129624
0.116767
-0.0107999
-0.0829478
-0.110119
-0.0689544
0.0549559
0.0761859
0.0810539
0.0426788
-0.0725178
-0.0560438
99.9886
100.046
100.001
99.896
100.003
100.165
100.003
99.7687
99.9749
100.302
100.07
99.6228
99.852
100.452
100.269
99.4824
99.5495
100.561
100.715
99.4403
98.8958
100.468
101.712
99.8201
97.1974
99.3204
105.348
104.364
85.1999
49.9917
14.875
-4.28592
-5.53418
0.436705
2.99513
0.63032
-1.77124
-1.08579
0.900146
1.22116
-0.17916
-1.08735
-0.384075
0.728419
0.719222
-0.237815
-0.768282
-0.241138
0.539501
0.552302
-0.133985
-0.587974
-0.272606
0.349663
0.494558
0.0336719
-0.430296
-0.352002
0.129378
0.425559
0.216487
-0.22063
-0.380779
-0.112477
0.258747
0.326922
0.0447147
-0.263265
-0.280004
-0.00995714
0.249992
0.244425
0.00274775
-0.227321
-0.22139
-0.0130504
0.193456
0.211395
0.0331997
-0.151249
-0.199543
-0.0698086
0.111453
0.173574
0.108126
-0.0539355
-0.154206
-0.11617
-0.0200275
0.112884
0.131231
0.0493257
-0.0263272
-0.123564
-0.0903948
-0.00352091
0.0349845
0.11391
0.0584902
-0.0209863
99.9816
100.003
100.07
99.9791
99.8746
100.032
100.186
99.9691
99.7467
100.013
100.328
100.03
99.5904
99.8918
100.492
100.233
99.4321
99.5781
100.621
100.699
99.3734
98.8949
100.538
101.734
99.7544
97.1531
99.3732
105.413
104.334
85.1215
49.9912
14.9552
-4.25071
-5.60052
0.370176
3.03124
0.715719
-1.76502
-1.16939
0.849492
1.2783