/*--------------------------------*- C++ -*----------------------------------*\
  =========                 |
  \\      /  F ield         | OpenFOAM: The Open Source CFD Toolbox
   \\    /   O peration     | Website:  https://openfoam.org
    \\  /    A nd           | Version:  8
     \\/     M anipulation  |
\*---------------------------------------------------------------------------*/
FoamFile
{
    version     2.0;
    format      ascii;
    class       volVectorField;
    location    "4.5";
    object      U;
}
// * * * * * * * * * * * * * * * * * * * * * * * * * * * * * * * * * * * * * //

dimensions      [0 1 -1 0 0 0 0];

internalField   nonuniform List<vector> 
116
(
(-0.00105288 0.00102615 0)
(-0.00367225 0.00123958 0)
(-0.00651814 0.00110318 0)
(-0.00889458 0.00082205 0)
(-0.0106155 0.000456832 0)
(-0.0122653 0.000445131 0)
(-0.00142555 0.0037014 0)
(-0.00488536 0.00446711 0)
(-0.00862187 0.00415067 0)
(-0.0117758 0.00356686 0)
(-0.0142253 0.00270416 0)
(-0.016161 0.00143036 0)
(-0.00151821 0.0070997 0)
(-0.00524954 0.00830735 0)
(-0.00927105 0.00752887 0)
(-0.0126617 0.00609757 0)
(-0.0154571 0.00411577 0)
(-0.0175358 0.00135374 0)
(-0.00189644 0.0104173 0)
(-0.0063017 0.0129651 0)
(-0.0111206 0.0120477 0)
(-0.0154426 0.0106768 0)
(-0.0192404 0.00833891 0)
(-0.0221397 0.00485262 0)
(-0.00129125 0.014971 0)
(-0.00601375 0.0164356 0)
(-0.0116225 0.0154259 0)
(-0.0162805 0.0127336 0)
(-0.0211736 0.0096296 0)
(-0.0253331 0.00475666 0)
(-0.00418271 0.0180091 0)
(-0.00976815 0.0259384 0)
(-0.0151236 0.0235162 0)
(-0.0215044 0.0227333 0)
(-0.0274612 0.0199418 0)
(-0.033616 0.0156894 0)
(0.0016542 0.0287715 0)
(-0.00467411 0.0234606 0)
(-0.0150321 0.0250809 0)
(-0.0194552 0.0207573 0)
(-0.0277205 0.0195608 0)
(-0.0328296 0.0145772 0)
(-0.000980423 0.0194678 0)
(-0.0127835 0.0483683 0)
(-0.013391 0.040576 0)
(-0.0266091 0.0410712 0)
(-0.0340404 0.0389139 0)
(-0.0416408 0.0385231 0)
(-0.0607286 0.0483243 0)
(-0.036332 0.0277876 0)
(-0.0558225 0.0357061 0)
(-0.0387807 0.0320769 0)
(-0.0358166 0.0319967 0)
(-0.0132408 0.0276847 0)
(0.0649238 0.102348 0)
(0.0997106 0.0571029 0)
(0.132963 0.0439454 0)
(0.185701 0.0313806 0)
(0.186681 0.0205912 0)
(0.242922 0.0215446 0)
(-0.0116771 0.00452797 0)
(-0.00843937 3.07156e-05 0)
(-0.00562422 -0.00331188 0)
(-0.00191521 -0.0045984 0)
(-0.014789 0.000563029 0)
(-0.0111669 -0.00383266 0)
(-0.00790523 -0.00721467 0)
(-0.00303898 -0.0093339 0)
(-0.0182684 -0.00160497 0)
(-0.0164434 -0.00740794 0)
(-0.0131407 -0.0120316 0)
(-0.00597262 -0.0165024 0)
(-0.0236267 0.0004783 0)
(-0.0221824 -0.00858561 0)
(-0.0204023 -0.015164 0)
(-0.0112624 -0.028089 0)
(-0.0315211 -0.00155094 0)
(-0.0331424 -0.0138591 0)
(-0.0366141 -0.0229988 0)
(-0.0245682 -0.0503753 0)
(-0.042268 0.0117829 0)
(-0.0456634 -0.00438052 0)
(-0.0558296 -0.0153437 0)
(-0.0359098 -0.088608 0)
(-0.0495428 0.0117806 0)
(-0.0560276 -0.00864335 0)
(-0.0819801 -0.030278 0)
(-0.0252022 -0.153726 0)
(-0.0595577 0.0452466 0)
(-0.0509401 0.019753 0)
(-0.0734002 -0.0262174 0)
(0.0275294 -0.195028 0)
(-0.0159648 0.0225348 0)
(0.0385698 -0.0106975 0)
(0.000256346 -0.107484 0)
(0.072385 -0.229387 0)
(0.221752 0.00465748 0)
(0.269374 0.0016287 0)
(0.202634 -0.0248731 0)
(0.158796 -0.085069 0)
(-0.000216125 -0.000176304 0)
(-0.000523431 -0.000267121 0)
(-0.000471256 -0.000311724 0)
(-0.000163952 -0.000290422 0)
(-0.000337775 0.0009811 0)
(-0.000750027 0.000569387 0)
(-0.000637506 -4.51883e-05 0)
(-0.000224415 -0.00030752 0)
(-0.00087388 0.000745686 0)
(-0.00185594 -5.77887e-05 0)
(-0.00153584 -0.000966589 0)
(-0.000536323 -0.00126231 0)
(-0.00171644 0.0041773 0)
(-0.00276622 0.00144226 0)
(-0.00215431 -0.00121844 0)
(-0.000774537 -0.00216996 0)
)
;

boundaryField
{
    movingWall
    {
        type            fixedValue;
        value           uniform (1 0 0);
    }
    fixedWalls
    {
        type            noSlip;
    }
    frontAndBack
    {
        type            empty;
    }
}


// ************************************************************************* //
