/*--------------------------------*- C++ -*----------------------------------*\
  =========                 |
  \\      /  F ield         | OpenFOAM: The Open Source CFD Toolbox
   \\    /   O peration     | Website:  https://openfoam.org
    \\  /    A nd           | Version:  8
     \\/     M anipulation  |
\*---------------------------------------------------------------------------*/
FoamFile
{
    version     2.0;
    format      ascii;
    class       volScalarField;
    location    "8";
    object      p;
}
// * * * * * * * * * * * * * * * * * * * * * * * * * * * * * * * * * * * * * //

dimensions      [0 2 -2 0 0 0 0];

internalField   nonuniform List<scalar> 
12504
(
-0.0279967
-0.0310579
-0.0374945
-0.0473181
-0.0602593
-0.0759667
-0.0940558
-0.114089
-0.135578
-0.158002
-0.18085
-0.203644
-0.225963
-0.247456
-0.267843
-0.286906
-0.304475
-0.320415
-0.33461
-0.346959
-0.357368
-0.365748
-0.372018
-0.376102
-0.377939
-0.377481
-0.374716
-0.369653
-0.362334
-0.352842
-0.341297
-0.327861
-0.312727
-0.296123
-0.27829
-0.259499
-0.239999
-0.220071
-0.199928
-0.179837
-0.159926
-0.140457
-0.121412
-0.103107
-0.0852749
-0.068457
-0.0518992
-0.0367697
-0.0212416
-0.0080728
-0.025794
-0.0289215
-0.0355032
-0.0455458
-0.0587668
-0.0748012
-0.0932478
-0.113651
-0.135499
-0.158255
-0.181391
-0.204419
-0.226918
-0.24854
-0.269015
-0.288136
-0.305744
-0.321711
-0.335929
-0.3483
-0.358732
-0.367138
-0.373435
-0.377545
-0.379405
-0.378962
-0.376204
-0.371136
-0.363798
-0.354271
-0.342674
-0.329169
-0.31395
-0.297249
-0.279308
-0.260402
-0.240784
-0.22074
-0.200483
-0.180288
-0.160281
-0.14073
-0.121612
-0.103253
-0.0853718
-0.0685267
-0.0519349
-0.0368043
-0.0212409
-0.00810237
-0.0213319
-0.0245998
-0.0314773
-0.0419649
-0.0557572
-0.0724595
-0.0916367
-0.112793
-0.135375
-0.158805
-0.182523
-0.206023
-0.228878
-0.250754
-0.271398
-0.29063
-0.30831
-0.324328
-0.338589
-0.351002
-0.361481
-0.369939
-0.376291
-0.380455
-0.382363
-0.381954
-0.379212
-0.374137
-0.366762
-0.357164
-0.345461
-0.331818
-0.316428
-0.299529
-0.281369
-0.26223
-0.242372
-0.222089
-0.201604
-0.181195
-0.160994
-0.141275
-0.122014
-0.10354
-0.0855665
-0.0686562
-0.0520134
-0.0368554
-0.0212626
-0.0081221
-0.014512
-0.0179982
-0.0253326
-0.0365084
-0.051186
-0.0689249
-0.0892359
-0.11156
-0.135277
-0.159744
-0.184351
-0.20856
-0.231943
-0.254184
-0.275067
-0.294448
-0.312223
-0.328309
-0.342628
-0.355103
-0.365653
-0.374191
-0.38063
-0.38488
-0.386864
-0.386512
-0.383802
-0.378721
-0.371292
-0.361589
-0.349727
-0.335871
-0.320221
-0.303018
-0.284521
-0.265022
-0.244795
-0.224145
-0.203305
-0.182567
-0.162069
-0.142091
-0.122611
-0.103962
-0.0858496
-0.0688409
-0.0521237
-0.0369243
-0.0212943
-0.00814361
-0.00517657
-0.0089664
-0.016936
-0.0290698
-0.0449824
-0.06417
-0.0860675
-0.110025
-0.135324
-0.161226
-0.187045
-0.212204
-0.236273
-0.25897
-0.280137
-0.299686
-0.317564
-0.333723
-0.34811
-0.360662
-0.371307
-0.379958
-0.386521
-0.390897
-0.392986
-0.392733
-0.390076
-0.384994
-0.377498
-0.367656
-0.355581
-0.341436
-0.325427
-0.307806
-0.288842
-0.268846
-0.248106
-0.226947
-0.205617
-0.184423
-0.163514
-0.143179
-0.123398
-0.104509
-0.0862094
-0.0690693
-0.0522552
-0.0370039
-0.0213294
-0.00816923
0.00689379
0.0027037
-0.00610261
-0.0195013
-0.0370493
-0.0581607
-0.082169
-0.1083
-0.135693
-0.163477
-0.190859
-0.217207
-0.242097
-0.26531
-0.28677
-0.306477
-0.324443
-0.340665
-0.355119
-0.367763
-0.37853
-0.387334
-0.394068
-0.398623
-0.400883
-0.400761
-0.398184
-0.393112
-0.385543
-0.375531
-0.363184
-0.348668
-0.332193
-0.314024
-0.294449
-0.273799
-0.252384
-0.230555
-0.208579
-0.186787
-0.165338
-0.144538
-0.124365
-0.105168
-0.0866289
-0.0693243
-0.0523928
-0.0370825
-0.0213608
-0.0081975
0.0219878
0.0172862
0.0074117
-0.00760769
-0.0272595
-0.0508567
-0.0776014
-0.106549
-0.136645
-0.166829
-0.196156
-0.223923
-0.249734
-0.273468
-0.295183
-0.314996
-0.333004
-0.349258
-0.36377
-0.376517
-0.387439
-0.396444
-0.403412
-0.408213
-0.410714
-0.410784
-0.408332
-0.403297
-0.395653
-0.385441
-0.372763
-0.357784
-0.340722
-0.321859
-0.301504
-0.280017
-0.257739
-0.23505
-0.212249
-0.189692
-0.167556
-0.146165
-0.1255
-0.105917
-0.0870842
-0.0695819
-0.052515
-0.0371438
-0.0213781
-0.00822557
0.0404739
0.0351309
0.0239203
0.00686173
-0.0154511
-0.0422136
-0.0724613
-0.105019
-0.138563
-0.171758
-0.203447
-0.232843
-0.25961
-0.283795
-0.305653
-0.325464
-0.343431
-0.359664
-0.374212
-0.387072
-0.398189
-0.407461
-0.414745
-0.419884
-0.422713
-0.423065
-0.420808
-0.415851
-0.408144
-0.397707
-0.384634
-0.369089
-0.351299
-0.331567
-0.310232
-0.28769
-0.264321
-0.240548
-0.216705
-0.193185
-0.170188
-0.148059
-0.126785
-0.106729
-0.0875423
-0.0698092
-0.0525925
-0.0371654
-0.0213671
-0.00824911
0.0628124
0.0566763
0.0438188
0.0242241
-0.00142034
-0.0321862
-0.0668985
-0.10407
-0.142002
-0.178957
-0.213468
-0.244648
-0.272295
-0.296736
-0.318525
-0.338158
-0.355954
-0.372084
-0.386632
-0.39962
-0.410989
-0.420616
-0.428327
-0.433927
-0.437209
-0.437965
-0.436006
-0.431193
-0.423445
-0.412766
-0.399229
-0.382998
-0.364311
-0.343499
-0.320939
-0.297073
-0.272335
-0.2472
-0.222051
-0.197327
-0.173257
-0.150216
-0.128194
-0.107565
-0.087958
-0.0699607
-0.0525848
-0.0371158
-0.0213084
-0.00826166
0.0895701
0.0824643
0.0676018
0.0448776
0.0150875
-0.0207365
-0.0611467
-0.104237
-0.147782
-0.189437
-0.227271
-0.260291
-0.288555
-0.312867
-0.33423
-0.353415
-0.370853
-0.386765
-0.401271
-0.414408
-0.426108
-0.436211
-0.4445
-0.450728
-0.454634
-0.455964
-0.454445
-0.44987
-0.442128
-0.431194
-0.41712
-0.400062
-0.380275
-0.358123
-0.334032
-0.308509
-0.282052
-0.255209
-0.228425
-0.202196
-0.176794
-0.152627
-0.129689
-0.10837
-0.0882683
-0.0699738
-0.0524365
-0.0369519
-0.021175
-0.00825355
0.121436
0.113159
0.0958848
0.0693231
0.0343938
-0.00784726
-0.0555794
-0.106338
-0.157125
-0.204669
-0.246359
-0.281096
-0.309421
-0.332931
-0.353305
-0.371643
-0.388459
-0.403996
-0.418406
-0.43173
-0.443871
-0.454611
-0.463678
-0.470761
-0.475527
-0.477659
-0.476771
-0.472565
-0.464897
-0.453711
-0.439022
-0.420973
-0.399838
-0.376026
-0.350027
-0.322428
-0.293814
-0.264826
-0.235993
-0.207886
-0.180828
-0.15527
-0.131216
-0.109066
-0.0883858
-0.0697616
-0.0520712
-0.0366134
-0.02093
-0.00821011
0.159234
0.149569
0.12943
0.098198
0.0569169
0.0064687
-0.0507877
-0.111684
-0.171973
-0.226881
-0.272866
-0.308828
-0.336194
-0.357841
-0.376403
-0.393324
-0.409133
-0.424066
-0.438303
-0.451864
-0.464583
-0.476158
-0.486245
-0.494458
-0.500391
-0.503636
-0.503629
-0.499974
-0.492494
-0.481084
-0.465704
-0.446484
-0.423718
-0.397869
-0.369505
-0.339317
-0.308007
-0.276336
-0.24494
-0.214491
-0.185377
-0.158105
-0.132688
-0.109541
-0.0881873
-0.0692035
-0.0513835
-0.0360165
-0.0205217
-0.00810893
0.203933
0.192668
0.169176
0.132328
0.0832148
0.0221771
-0.047646
-0.122338
-0.195513
-0.259689
-0.310012
-0.34583
-0.370346
-0.388507
-0.404136
-0.41887
-0.433116
-0.447101
-0.461025
-0.474848
-0.488281
-0.500898
-0.512263
-0.521874
-0.529298
-0.534029
-0.535215
-0.532374
-0.525283
-0.513748
-0.497661
-0.47713
-0.452463
-0.424184
-0.392958
-0.359606
-0.324975
-0.289986
-0.255416
-0.222067
-0.190416
-0.16104
-0.13397
-0.10963
-0.0875003
-0.0681317
-0.050228
-0.0350444
-0.0198787
-0.00791582
0.256641
0.243617
0.216261
0.172793
0.114011
0.0392141
-0.0474356
-0.141378
-0.232738
-0.309063
-0.36308
-0.395506
-0.413484
-0.425509
-0.436638
-0.448152
-0.460066
-0.472601
-0.48597
-0.49999
-0.514188
-0.528004
-0.540874
-0.552153
-0.561317
-0.567806
-0.570481
-0.568822
-0.562454
-0.551038
-0.534386
-0.512564
-0.485878
-0.454903
-0.420406
-0.383359
-0.344791
-0.305822
-0.267418
-0.230551
-0.195822
-0.1639
-0.134847
-0.109098
-0.0860851
-0.0663176
-0.0484085
-0.0335376
-0.0189037
-0.00757971
0.318581
0.303775
0.272079
0.221029
0.15017
0.0573538
-0.0524749
-0.173965
-0.290802
-0.38357
-0.439937
-0.462678
-0.467251
-0.468646
-0.472799
-0.479527
-0.488042
-0.498498
-0.510972
-0.524989
-0.539846
-0.55486
-0.569351
-0.582587
-0.593676
-0.601878
-0.606302
-0.606281
-0.601104
-0.590253
-0.573445
-0.550669
-0.52219
-0.488599
-0.450744
-0.40975
-0.366846
-0.323389
-0.280582
-0.239623
-0.201287
-0.166371
-0.134996
-0.107614
-0.0836223
-0.0634601
-0.0456682
-0.0312841
-0.0174671
-0.00702677
0.391047
0.37467
0.338418
0.279028
0.192826
0.0759543
-0.0675747
-0.23115
-0.380591
-0.492371
-0.547139
-0.550277
-0.531231
-0.515513
-0.508924
-0.508482
-0.512263
-0.520102
-0.531472
-0.545327
-0.560692
-0.576775
-0.592804
-0.607942
-0.621227
-0.631266
-0.637777
-0.639748
-0.636236
-0.626549
-0.610255
-0.587219
-0.55761
-0.521981
-0.481211
-0.436542
-0.389383
-0.341343
-0.293894
-0.248511
-0.206201
-0.167942
-0.133968
-0.104762
-0.079727
-0.0592002
-0.0417003
-0.0280233
-0.0154075
-0.00615786
0.475277
0.457903
0.417719
0.349807
0.244305
0.0941635
-0.101258
-0.332537
-0.524391
-0.643493
-0.680111
-0.648897
-0.596213
-0.558101
-0.537736
-0.528429
-0.52708
-0.532648
-0.54336
-0.557363
-0.573398
-0.590557
-0.607993
-0.624781
-0.639899
-0.652388
-0.661066
-0.665058
-0.663456
-0.65537
-0.640187
-0.617621
-0.587706
-0.550903
-0.508058
-0.460462
-0.409658
-0.357467
-0.305625
-0.255904
-0.209586
-0.167881
-0.131194
-0.100076
-0.0740004
-0.0531735
-0.0361932
-0.0234779
-0.0125496
-0.00485969
0.572089
0.554896
0.513197
0.438103
0.310542
0.114163
-0.167213
-0.492846
-0.679512
-0.789484
-0.789855
-0.720611
-0.637209
-0.582716
-0.554141
-0.539253
-0.534885
-0.539173
-0.549364
-0.5633
-0.579693
-0.59759
-0.616079
-0.634189
-0.650908
-0.665178
-0.676059
-0.681769
-0.681899
-0.675374
-0.661423
-0.639626
-0.609888
-0.57256
-0.528409
-0.478724
-0.425101
-0.369518
-0.313916
-0.260343
-0.210351
-0.165401
-0.126124
-0.0931569
-0.0661406
-0.0451139
-0.0289182
-0.017422
-0.00874326
-0.00303457
0.681164
0.666379
0.6282
0.550495
0.403989
0.148823
-0.186815
-0.582005
-0.873426
-0.957754
-0.917798
-0.779068
-0.662375
-0.596694
-0.555236
-0.539628
-0.535935
-0.541047
-0.55187
-0.566317
-0.58323
-0.601723
-0.620928
-0.639903
-0.65762
-0.672949
-0.684609
-0.691914
-0.693256
-0.687781
-0.674687
-0.653457
-0.62389
-0.586242
-0.541199
-0.490018
-0.434301
-0.376111
-0.317527
-0.26081
-0.207738
-0.160001
-0.11847
-0.0838724
-0.0561092
-0.0350022
-0.0198546
-0.0097833
-0.00392719
-0.00063644
0.800131
0.791505
0.764071
0.694868
0.542366
0.257545
-0.175808
-0.629685
-0.96415
-0.672571
-0.598345
-0.561079
-0.541213
-0.538624
-0.544008
-0.554902
-0.569316
-0.586202
-0.604737
-0.624085
-0.643317
-0.661395
-0.67718
-0.689469
-0.69717
-0.699014
-0.693962
-0.681178
-0.660092
-0.630436
-0.592395
-0.546604
-0.49428
-0.437012
-0.376903
-0.316106
-0.257026
-0.201599
-0.151694
-0.108401
-0.072513
-0.0442592
-0.023189
-0.00929718
-0.000741312
0.00180435
0.00231407
0.924016
0.926285
0.917562
0.878495
0.730501
0.418413
-0.0674717
-0.592281
-0.559769
-0.543901
-0.539853
-0.54566
-0.556546
-0.570758
-0.587422
-0.605764
-0.624968
-0.644111
-0.66215
-0.677938
-0.690272
-0.697961
-0.699784
-0.694701
-0.68177
-0.660456
-0.63045
-0.591901
-0.545428
-0.492213
-0.433833
-0.372405
-0.310117
-0.249453
-0.192439
-0.141064
-0.096581
-0.0598254
-0.0313565
-0.010429
0.00211226
0.00922287
0.00816774
0.00574373
1.04527
1.06155
1.0832
1.08927
0.971
0.665998
-0.558198
-0.541138
-0.537706
-0.544157
-0.555151
-0.569336
-0.585886
-0.604064
-0.623069
-0.641988
-0.659782
-0.675311
-0.68737
-0.694747
-0.696241
-0.690873
-0.677459
-0.65568
-0.625173
-0.586088
-0.539022
-0.485152
-0.426064
-0.363861
-0.300752
-0.23923
-0.181372
-0.12922
-0.0841229
-0.0469477
-0.018509
0.00217926
0.0134365
0.0193299
0.0147053
0.00954382
1.15252
1.1849
1.24153
1.30275
1.23575
1.00115
-0.534259
-0.53178
-0.5391
-0.550616
-0.565123
-0.581822
-0.6
-0.618881
-0.637575
-0.655065
-0.670227
-0.681872
-0.688786
-0.689756
-0.68363
-0.6699
-0.647617
-0.61659
-0.577006
-0.529499
-0.475216
-0.415783
-0.353274
-0.289901
-0.228112
-0.170036
-0.117697
-0.07248
-0.0352791
-0.00704117
0.0133301
0.0235467
0.0285451
0.0208173
0.0135154
1.23355
1.28002
1.3693
1.4842
1.48753
1.37117
-0.529063
-0.523729
-0.532395
-0.54479
-0.559879
-0.576914
-0.595227
-0.614078
-0.632609
-0.649831
-0.664646
-0.675887
-0.682357
-0.682853
-0.676265
-0.6619
-0.639117
-0.607653
-0.567691
-0.519885
-0.465407
-0.405885
-0.343369
-0.280089
-0.218426
-0.160513
-0.108337
-0.0633023
-0.0263096
0.0016678
0.0217105
0.0312485
0.0356822
0.0257479
0.0171548
1.27731
1.33204
1.44095
1.58727
1.66458
-0.509902
-0.518053
-0.527685
-0.540731
-0.55627
-0.573579
-0.592019
-0.610879
-0.629325
-0.646388
-0.660989
-0.671974
-0.678159
-0.678348
-0.671433
-0.656657
-0.633574
-0.601861
-0.561699
-0.513755
-0.459214
-0.399712
-0.33728
-0.274152
-0.212677
-0.154981
-0.103021
-0.0581865
-0.0213935
0.00639739
0.026224
0.0354488
0.0396137
0.0285822
0.0194729
1.27731
1.33204
1.44095
1.58727
1.70106
-0.503902
-0.518054
-0.527686
-0.540731
-0.556271
-0.57358
-0.59202
-0.61088
-0.629326
-0.646389
-0.660989
-0.671974
-0.678158
-0.678347
-0.671431
-0.656654
-0.633571
-0.601858
-0.561695
-0.513751
-0.459211
-0.399708
-0.337277
-0.274149
-0.212675
-0.15498
-0.103021
-0.0581866
-0.0213939
0.00639671
0.0262232
0.035448
0.0396129
0.0285815
0.0194725
1.23355
1.28002
1.3693
1.4842
1.59069
-0.513177
-0.523731
-0.532397
-0.544793
-0.559882
-0.576917
-0.59523
-0.614081
-0.632611
-0.649832
-0.664646
-0.675886
-0.682354
-0.682848
-0.676259
-0.661892
-0.639108
-0.607643
-0.56768
-0.519874
-0.465397
-0.405876
-0.343361
-0.280083
-0.218422
-0.16051
-0.108336
-0.0633025
-0.0263109
0.00166582
0.0217082
0.031246
0.03568
0.0257461
0.0171539
1.15252
1.1849
1.24153
1.30275
1.36019
1.29352
-0.529412
-0.531783
-0.539104
-0.55062
-0.565127
-0.581826
-0.600004
-0.618885
-0.637578
-0.655067
-0.670228
-0.68187
-0.688782
-0.689749
-0.683622
-0.669889
-0.647603
-0.616575
-0.57699
-0.529483
-0.475202
-0.41577
-0.353263
-0.289892
-0.228106
-0.170033
-0.117696
-0.0724808
-0.0352813
-0.0070443
0.0133266
0.0235431
0.0285419
0.0208149
0.0135142
1.04527
1.06155
1.0832
1.08927
1.09517
0.934402
-0.538247
-0.53771
-0.544162
-0.555156
-0.569341
-0.585892
-0.604069
-0.623074
-0.641992
-0.659785
-0.675311
-0.687368
-0.694742
-0.696232
-0.69086
-0.677444
-0.655664
-0.625155
-0.586069
-0.539003
-0.485134
-0.426048
-0.363848
-0.300742
-0.239224
-0.181368
-0.129219
-0.0841243
-0.0469507
-0.018513
0.00217491
0.0134322
0.0193261
0.0147026
0.00954257
0.924014
0.926284
0.91756
0.878493
0.83956
0.527056
0.189301
-0.555293
-0.543792
-0.539858
-0.545665
-0.556552
-0.570765
-0.587429
-0.60577
-0.624974
-0.644116
-0.662153
-0.677939
-0.69027
-0.697955
-0.699774
-0.694688
-0.681753
-0.660438
-0.63043
-0.59188
-0.545407
-0.492193
-0.433816
-0.372391
-0.310107
-0.249446
-0.192436
-0.141064
-0.096583
-0.0598289
-0.0313609
-0.0104337
0.00210781
0.00921903
0.00816508
0.00574258
0.800129
0.791503
0.764069
0.694866
0.542363
0.321714
-0.165296
-0.561002
-0.596804
-0.562613
-0.541218
-0.538629
-0.544014
-0.554909
-0.569323
-0.58621
-0.604744
-0.624091
-0.643322
-0.661398
-0.67718
-0.689468
-0.697164
-0.699004
-0.693948
-0.68116
-0.660072
-0.630415
-0.592373
-0.546583
-0.494261
-0.436995
-0.37689
-0.316096
-0.25702
-0.201596
-0.151694
-0.108403
-0.0725166
-0.0442635
-0.0231935
-0.00930132
-0.000744802
0.00180204
0.00231309
0.681161
0.666377
0.628198
0.550493
0.403986
0.14882
-0.189162
-0.669803
-0.907574
-0.797626
-0.667366
-0.603061
-0.555241
-0.539633
-0.535941
-0.541054
-0.551878
-0.566325
-0.583238
-0.601731
-0.620934
-0.639908
-0.657622
-0.67295
-0.68461
-0.691907
-0.693245
-0.687766
-0.674669
-0.653437
-0.623869
-0.586221
-0.541179
-0.49
-0.434285
-0.376099
-0.317519
-0.260805
-0.207736
-0.160001
-0.118472
-0.0838757
-0.0561129
-0.035006
-0.019858
-0.00978613
-0.00392898
-0.000637191
0.572087
0.554894
0.513194
0.438101
0.310539
0.114159
-0.167217
-0.49285
-0.775849
-0.904182
-0.86267
-0.751603
-0.637214
-0.582721
-0.554146
-0.539258
-0.534891
-0.53918
-0.549372
-0.563308
-0.579701
-0.597597
-0.616085
-0.634193
-0.65091
-0.665176
-0.67605
-0.681761
-0.681887
-0.675359
-0.661406
-0.639607
-0.609868
-0.57254
-0.52839
-0.478707
-0.425087
-0.369506
-0.313908
-0.260338
-0.210349
-0.165401
-0.126125
-0.0931593
-0.0661435
-0.0451168
-0.0289207
-0.017424
-0.00874446
-0.00303508
0.475274
0.457901
0.417716
0.349805
0.244302
0.0941603
-0.101261
-0.332541
-0.524395
-0.643498
-0.680116
-0.648902
-0.596218
-0.558105
-0.537741
-0.528435
-0.527086
-0.532655
-0.543367
-0.557371
-0.573405
-0.590564
-0.607998
-0.624784
-0.639901
-0.652386
-0.66106
-0.665049
-0.663444
-0.655356
-0.640171
-0.617603
-0.587688
-0.550885
-0.508041
-0.460447
-0.409645
-0.357457
-0.305618
-0.255899
-0.209584
-0.16788
-0.131195
-0.100078
-0.0740022
-0.0531753
-0.0361948
-0.0234791
-0.0125503
-0.00485998
0.391045
0.374668
0.338415
0.279026
0.192823
0.0759513
-0.067578
-0.231153
-0.380595
-0.492375
-0.547143
-0.550281
-0.531235
-0.515518
-0.508928
-0.508487
-0.512269
-0.520109
-0.531478
-0.545334
-0.560699
-0.576781
-0.592808
-0.607944
-0.621226
-0.631262
-0.637771
-0.63974
-0.636225
-0.626536
-0.61024
-0.587203
-0.557594
-0.521966
-0.481197
-0.436529
-0.389373
-0.341335
-0.293888
-0.248507
-0.206199
-0.167941
-0.133968
-0.104763
-0.0797278
-0.0592011
-0.0417011
-0.0280239
-0.0154078
-0.00615799
0.318579
0.303773
0.272076
0.221026
0.150167
0.0573509
-0.052478
-0.173968
-0.290805
-0.383574
-0.439941
-0.462682
-0.467255
-0.468651
-0.472803
-0.479531
-0.488047
-0.498503
-0.510977
-0.524995
-0.539851
-0.554865
-0.569354
-0.582588
-0.593676
-0.601875
-0.606297
-0.606273
-0.601094
-0.590241
-0.573432
-0.550655
-0.522176
-0.488586
-0.450732
-0.409739
-0.366837
-0.323382
-0.280577
-0.23962
-0.201285
-0.16637
-0.134996
-0.107614
-0.0836223
-0.0634603
-0.0456683
-0.0312842
-0.017467
-0.00702679
0.256638
0.243615
0.216259
0.17279
0.114008
0.0392114
-0.0474385
-0.141381
-0.232741
-0.309067
-0.363084
-0.39551
-0.413488
-0.425513
-0.436642
-0.448156
-0.46007
-0.472606
-0.485975
-0.499995
-0.514192
-0.528007
-0.540876
-0.552154
-0.561316
-0.567803
-0.570477
-0.568815
-0.562445
-0.551028
-0.534375
-0.512552
-0.485867
-0.454893
-0.420396
-0.38335
-0.344784
-0.305816
-0.267413
-0.230547
-0.19582
-0.163899
-0.134846
-0.109097
-0.0860846
-0.0663173
-0.0484082
-0.0335374
-0.0189035
-0.00757967
0.20393
0.192666
0.169174
0.132325
0.0832122
0.0221745
-0.0476488
-0.122341
-0.195516
-0.259692
-0.310015
-0.345833
-0.370349
-0.388511
-0.40414
-0.418874
-0.43312
-0.447105
-0.461029
-0.474852
-0.488284
-0.500901
-0.512264
-0.521875
-0.529298
-0.534027
-0.535211
-0.532368
-0.525277
-0.51374
-0.497653
-0.477121
-0.452454
-0.424176
-0.39295
-0.359599
-0.324969
-0.289981
-0.255412
-0.222064
-0.190413
-0.161038
-0.133968
-0.109629
-0.0874995
-0.0681311
-0.0502275
-0.035044
-0.0198784
-0.00791574
0.159231
0.149567
0.129428
0.0981956
0.0569144
0.00646611
-0.0507904
-0.111686
-0.171976
-0.226884
-0.272869
-0.308832
-0.336197
-0.357844
-0.376407
-0.393328
-0.409136
-0.42407
-0.438306
-0.451867
-0.464586
-0.47616
-0.486246
-0.494458
-0.50039
-0.503634
-0.503626
-0.499969
-0.492489
-0.481077
-0.465697
-0.446477
-0.423711
-0.397862
-0.369498
-0.339312
-0.308002
-0.276332
-0.244937
-0.214488
-0.185374
-0.158103
-0.132686
-0.10954
-0.0881863
-0.0692027
-0.0513828
-0.036016
-0.0205213
-0.00810881
0.121433
0.113157
0.0958824
0.0693207
0.0343914
-0.00784979
-0.055582
-0.106341
-0.157128
-0.204672
-0.246362
-0.281099
-0.309425
-0.332934
-0.353309
-0.371647
-0.388463
-0.403999
-0.418409
-0.431733
-0.443873
-0.454613
-0.463679
-0.470761
-0.475526
-0.477657
-0.476768
-0.472561
-0.464893
-0.453706
-0.439016
-0.420967
-0.399832
-0.376021
-0.350022
-0.322423
-0.293809
-0.264822
-0.23599
-0.207884
-0.180826
-0.155269
-0.131214
-0.109065
-0.0883847
-0.0697608
-0.0520705
-0.0366128
-0.0209295
-0.00820995
0.0895679
0.0824621
0.0675995
0.0448753
0.0150851
-0.020739
-0.0611493
-0.10424
-0.147784
-0.189439
-0.227274
-0.260294
-0.288558
-0.31287
-0.334233
-0.353418
-0.370856
-0.386768
-0.401274
-0.414411
-0.42611
-0.436212
-0.444501
-0.450728
-0.454634
-0.455962
-0.454443
-0.449867
-0.442124
-0.43119
-0.417116
-0.400058
-0.38027
-0.358119
-0.334028
-0.308505
-0.282048
-0.255205
-0.228422
-0.202194
-0.176792
-0.152625
-0.129688
-0.108369
-0.0882672
-0.0699729
-0.0524357
-0.0369512
-0.0211745
-0.00825337
0.0628103
0.0566741
0.0438166
0.0242219
-0.0014227
-0.0321886
-0.066901
-0.104073
-0.142005
-0.17896
-0.213471
-0.244651
-0.272298
-0.296739
-0.318528
-0.338161
-0.355957
-0.372086
-0.386635
-0.399622
-0.410991
-0.420617
-0.428328
-0.433927
-0.437208
-0.437964
-0.436004
-0.43119
-0.423443
-0.412762
-0.399225
-0.382994
-0.364308
-0.343496
-0.320935
-0.29707
-0.272331
-0.247197
-0.222049
-0.197324
-0.173255
-0.150215
-0.128192
-0.107564
-0.0879569
-0.0699598
-0.052584
-0.0371152
-0.0213079
-0.00826147
0.0404718
0.0351288
0.0239181
0.00685951
-0.0154534
-0.042216
-0.0724637
-0.105021
-0.138565
-0.17176
-0.20345
-0.232846
-0.259613
-0.283797
-0.305655
-0.325467
-0.343434
-0.359667
-0.374214
-0.387074
-0.398191
-0.407462
-0.414746
-0.419884
-0.422713
-0.423064
-0.420807
-0.415849
-0.408141
-0.397705
-0.384631
-0.369086
-0.351296
-0.331564
-0.310229
-0.287687
-0.264318
-0.240545
-0.216703
-0.193183
-0.170186
-0.148058
-0.126784
-0.106728
-0.0875413
-0.0698083
-0.0525917
-0.0371648
-0.0213667
-0.00824894
0.0219857
0.0172841
0.00740957
-0.00760988
-0.0272618
-0.050859
-0.0776037
-0.106551
-0.136648
-0.166831
-0.196158
-0.223926
-0.249737
-0.273471
-0.295186
-0.314999
-0.333006
-0.349261
-0.363773
-0.376519
-0.38744
-0.396445
-0.403413
-0.408214
-0.410713
-0.410783
-0.408331
-0.403295
-0.395651
-0.385439
-0.37276
-0.357781
-0.340719
-0.321856
-0.301501
-0.280014
-0.257736
-0.235048
-0.212247
-0.18969
-0.167554
-0.146164
-0.125499
-0.105916
-0.0870832
-0.0695811
-0.0525144
-0.0371433
-0.0213777
-0.00822545
0.00689169
0.00270161
-0.00610474
-0.0195034
-0.0370515
-0.058163
-0.0821712
-0.108302
-0.135695
-0.16348
-0.190862
-0.217209
-0.2421
-0.265312
-0.286773
-0.30648
-0.324445
-0.340667
-0.355121
-0.367765
-0.378532
-0.387335
-0.394069
-0.398623
-0.400883
-0.400761
-0.398183
-0.393111
-0.385541
-0.375529
-0.363181
-0.348665
-0.33219
-0.314022
-0.294447
-0.273797
-0.252382
-0.230553
-0.208578
-0.186785
-0.165336
-0.144536
-0.124364
-0.105166
-0.0866279
-0.0693235
-0.0523922
-0.037082
-0.0213605
-0.00819742
-0.00517866
-0.00896851
-0.0169382
-0.0290719
-0.0449845
-0.0641722
-0.0860697
-0.110028
-0.135326
-0.161228
-0.187048
-0.212207
-0.236275
-0.258973
-0.280139
-0.299688
-0.317566
-0.333725
-0.348112
-0.360664
-0.371309
-0.37996
-0.386522
-0.390898
-0.392986
-0.392733
-0.390075
-0.384992
-0.377497
-0.367655
-0.355579
-0.341434
-0.325425
-0.307804
-0.28884
-0.268844
-0.248105
-0.226945
-0.205615
-0.184422
-0.163512
-0.143178
-0.123397
-0.104508
-0.0862084
-0.0690686
-0.0522547
-0.0370035
-0.0213292
-0.00816917
-0.0145141
-0.0180003
-0.0253348
-0.0365106
-0.0511881
-0.068927
-0.0892381
-0.111563
-0.135279
-0.159747
-0.184353
-0.208562
-0.231945
-0.254186
-0.275069
-0.29445
-0.312225
-0.328311
-0.34263
-0.355105
-0.365654
-0.374192
-0.38063
-0.384881
-0.386864
-0.386512
-0.383801
-0.37872
-0.37129
-0.361587
-0.349725
-0.335869
-0.320219
-0.303016
-0.284519
-0.265021
-0.244793
-0.224143
-0.203304
-0.182566
-0.162068
-0.14209
-0.12261
-0.103961
-0.0858487
-0.0688402
-0.0521232
-0.036924
-0.0212941
-0.00814356
-0.021334
-0.0246019
-0.0314794
-0.041967
-0.0557593
-0.0724616
-0.0916389
-0.112795
-0.135377
-0.158807
-0.182525
-0.206025
-0.22888
-0.250756
-0.271401
-0.290632
-0.308312
-0.32433
-0.338591
-0.351004
-0.361483
-0.36994
-0.376292
-0.380456
-0.382363
-0.381953
-0.379211
-0.374136
-0.366761
-0.357162
-0.34546
-0.331816
-0.316426
-0.299527
-0.281367
-0.262228
-0.242371
-0.222088
-0.201602
-0.181193
-0.160993
-0.141274
-0.122013
-0.103539
-0.0855657
-0.0686555
-0.0520128
-0.0368551
-0.0212624
-0.00812204
-0.0257961
-0.0289236
-0.0355054
-0.0455479
-0.0587689
-0.0748032
-0.0932499
-0.113653
-0.135501
-0.158257
-0.181393
-0.204422
-0.22692
-0.248542
-0.269017
-0.288138
-0.305746
-0.321713
-0.335931
-0.348301
-0.358733
-0.367139
-0.373435
-0.377545
-0.379405
-0.378962
-0.376203
-0.371135
-0.363797
-0.35427
-0.342672
-0.329167
-0.313948
-0.297247
-0.279306
-0.260401
-0.240783
-0.220738
-0.200482
-0.180287
-0.16028
-0.140729
-0.121611
-0.103252
-0.0853711
-0.068526
-0.0519344
-0.036804
-0.0212407
-0.0081023
-0.0279988
-0.03106
-0.0374966
-0.0473202
-0.0602614
-0.0759688
-0.0940579
-0.114092
-0.13558
-0.158004
-0.180853
-0.203646
-0.225965
-0.247458
-0.267845
-0.286908
-0.304477
-0.320417
-0.334612
-0.34696
-0.357369
-0.365749
-0.372019
-0.376103
-0.377939
-0.377481
-0.374715
-0.369652
-0.362333
-0.352841
-0.341296
-0.32786
-0.312725
-0.296121
-0.278288
-0.259497
-0.239998
-0.22007
-0.199926
-0.179836
-0.159925
-0.140456
-0.121411
-0.103106
-0.0852742
-0.0684564
-0.0518987
-0.0367694
-0.0212414
-0.00807273
-0.0279978
-0.0310549
-0.0374923
-0.0473178
-0.0602593
-0.0759666
-0.0940558
-0.11409
-0.135578
-0.158003
-0.180851
-0.203645
-0.225964
-0.247456
-0.267843
-0.286906
-0.304475
-0.320415
-0.33461
-0.346959
-0.357368
-0.365749
-0.372018
-0.376102
-0.377939
-0.377482
-0.374716
-0.369653
-0.362335
-0.352843
-0.341298
-0.327862
-0.312727
-0.296123
-0.27829
-0.259499
-0.239999
-0.220071
-0.199927
-0.179837
-0.159925
-0.140458
-0.12141
-0.103109
-0.0852711
-0.0684625
-0.0518903
-0.0367831
-0.0212196
-0.00810633
-0.025795
-0.0289184
-0.0355011
-0.0455454
-0.0587668
-0.074801
-0.0932478
-0.113651
-0.1355
-0.158256
-0.181392
-0.204421
-0.226919
-0.248541
-0.269015
-0.288136
-0.305744
-0.321711
-0.335929
-0.3483
-0.358732
-0.367138
-0.373435
-0.377545
-0.379405
-0.378963
-0.376204
-0.371137
-0.363799
-0.354272
-0.342674
-0.32917
-0.31395
-0.297249
-0.279308
-0.260402
-0.240784
-0.22074
-0.200483
-0.180288
-0.16028
-0.140731
-0.121611
-0.103255
-0.0853681
-0.068532
-0.0519263
-0.0368173
-0.0212194
-0.00813537
-0.0213329
-0.0245966
-0.031475
-0.0419645
-0.0557571
-0.0724594
-0.0916368
-0.112793
-0.135376
-0.158806
-0.182524
-0.206024
-0.228879
-0.250754
-0.271399
-0.29063
-0.30831
-0.324328
-0.338589
-0.351003
-0.361482
-0.36994
-0.376291
-0.380456
-0.382363
-0.381954
-0.379213
-0.374138
-0.366763
-0.357165
-0.345462
-0.331818
-0.316428
-0.299529
-0.281369
-0.26223
-0.242372
-0.22209
-0.201603
-0.181195
-0.160993
-0.141276
-0.122012
-0.103542
-0.0855628
-0.0686616
-0.0520047
-0.0368684
-0.0212411
-0.00815514
-0.014513
-0.0179947
-0.0253302
-0.036508
-0.0511859
-0.0689247
-0.0892362
-0.111561
-0.135279
-0.159746
-0.184352
-0.208561
-0.231944
-0.254184
-0.275067
-0.294448
-0.312223
-0.328309
-0.342629
-0.355103
-0.365653
-0.374191
-0.38063
-0.384881
-0.386864
-0.386513
-0.383803
-0.378722
-0.371293
-0.361589
-0.349728
-0.335872
-0.320221
-0.303018
-0.284521
-0.265023
-0.244795
-0.224145
-0.203305
-0.182568
-0.162068
-0.142092
-0.122609
-0.103964
-0.0858458
-0.0688464
-0.0521149
-0.0369375
-0.0212726
-0.00817695
-0.00517764
-0.00896258
-0.0169333
-0.0290693
-0.0449822
-0.0641699
-0.0860679
-0.110027
-0.135326
-0.161228
-0.187047
-0.212206
-0.236274
-0.258971
-0.280137
-0.299686
-0.317564
-0.333723
-0.34811
-0.360662
-0.371307
-0.379959
-0.386522
-0.390898
-0.392986
-0.392734
-0.390077
-0.384995
-0.377499
-0.367657
-0.355581
-0.341437
-0.325428
-0.307806
-0.288843
-0.268846
-0.248106
-0.226947
-0.205617
-0.184424
-0.163513
-0.14318
-0.123396
-0.104511
-0.0862054
-0.0690748
-0.0522463
-0.0370173
-0.0213075
-0.00820296
0.00689267
0.00270801
-0.0060995
-0.0195006
-0.0370491
-0.0581606
-0.0821696
-0.108301
-0.135696
-0.16348
-0.190862
-0.217209
-0.242098
-0.26531
-0.28677
-0.306477
-0.324443
-0.340665
-0.355119
-0.367763
-0.37853
-0.387334
-0.394069
-0.398623
-0.400884
-0.400762
-0.398185
-0.393114
-0.385544
-0.375532
-0.363185
-0.348669
-0.332194
-0.314025
-0.29445
-0.273799
-0.252384
-0.230555
-0.208579
-0.186787
-0.165337
-0.144538
-0.124363
-0.10517
-0.0866248
-0.0693299
-0.0523838
-0.0370961
-0.0213386
-0.00823173
0.0219867
0.0172911
0.00741534
-0.00760683
-0.0272592
-0.0508566
-0.0776025
-0.106551
-0.136649
-0.166833
-0.196159
-0.223925
-0.249735
-0.273468
-0.295183
-0.314996
-0.333004
-0.349259
-0.363771
-0.376517
-0.387439
-0.396444
-0.403413
-0.408214
-0.410714
-0.410785
-0.408334
-0.403298
-0.395654
-0.385443
-0.372764
-0.357785
-0.340723
-0.32186
-0.301505
-0.280017
-0.257739
-0.23505
-0.212249
-0.189692
-0.167555
-0.146166
-0.125498
-0.105919
-0.08708
-0.0695876
-0.0525058
-0.0371577
-0.0213556
-0.00826041
0.0404726
0.0351365
0.0239247
0.00686288
-0.0154505
-0.0422135
-0.0724631
-0.105023
-0.138568
-0.171764
-0.203453
-0.232846
-0.259611
-0.283794
-0.305651
-0.325464
-0.343431
-0.359664
-0.374212
-0.387072
-0.398189
-0.407462
-0.414746
-0.419885
-0.422714
-0.423066
-0.42081
-0.415853
-0.408145
-0.397709
-0.384636
-0.369091
-0.3513
-0.331568
-0.310232
-0.28769
-0.26432
-0.240548
-0.216704
-0.193185
-0.170186
-0.14806
-0.126783
-0.106731
-0.087538
-0.0698149
-0.052583
-0.0371796
-0.0213443
-0.00828468
0.0628109
0.0566825
0.0438241
0.0242257
-0.00141925
-0.0321861
-0.0669014
-0.104076
-0.142011
-0.178966
-0.213475
-0.244652
-0.272295
-0.296734
-0.318523
-0.338157
-0.355954
-0.372083
-0.386632
-0.39962
-0.410989
-0.420616
-0.428328
-0.433927
-0.437209
-0.437966
-0.436007
-0.431194
-0.423447
-0.412767
-0.39923
-0.382999
-0.364312
-0.3435
-0.320939
-0.297073
-0.272334
-0.2472
-0.222051
-0.197327
-0.173256
-0.150217
-0.128191
-0.107567
-0.0879534
-0.0699665
-0.052575
-0.0371304
-0.0212851
-0.00829809
0.0895682
0.0824712
0.0676086
0.0448797
0.0150897
-0.0207363
-0.0611511
-0.104247
-0.147796
-0.189451
-0.22728
-0.260293
-0.288551
-0.312861
-0.334227
-0.353414
-0.370853
-0.386764
-0.40127
-0.414407
-0.426107
-0.43621
-0.4445
-0.450728
-0.454634
-0.455964
-0.454445
-0.44987
-0.442128
-0.431195
-0.417121
-0.400063
-0.380275
-0.358123
-0.334032
-0.308509
-0.282051
-0.255208
-0.228423
-0.202196
-0.176792
-0.152627
-0.129687
-0.108372
-0.0882635
-0.0699797
-0.0524264
-0.0369669
-0.0211513
-0.00829094
0.121433
0.113167
0.0958935
0.0693258
0.0343983
-0.00784663
-0.0555851
-0.106352
-0.157148
-0.204692
-0.246372
-0.281095
-0.309408
-0.332919
-0.3533
-0.371642
-0.388458
-0.403994
-0.418403
-0.431728