/*--------------------------------*- C++ -*----------------------------------*\
  =========                 |
  \\      /  F ield         | OpenFOAM: The Open Source CFD Toolbox
   \\    /   O peration     | Website:  https://openfoam.org
    \\  /    A nd           | Version:  8
     \\/     M anipulation  |
\*---------------------------------------------------------------------------*/
FoamFile
{
    version     2.0;
    format      ascii;
    class       surfaceScalarField;
    location    "8";
    object      phi;
}
// * * * * * * * * * * * * * * * * * * * * * * * * * * * * * * * * * * * * * //

dimensions      [0 3 -1 0 0 0 0];

internalField   nonuniform List<scalar> 
34404
(
0.00534256
-9.2314e-06
5.3477e-09
0.00537016
-2.75889e-05
-8.70001e-09
0.00541536
-4.51923e-05
-1.23079e-08
0.00547678
-6.14139e-05
-6.36811e-09
0.00555254
-7.57479e-05
-2.95492e-09
0.00564032
-8.77773e-05
-2.47149e-09
0.00573752
-9.71987e-05
-1.39473e-09
0.00584136
-0.000103847
2.36498e-10
0.00594907
-0.000107713
2.49067e-09
0.00605801
-0.000108941
4.29385e-09
0.00616581
-0.000107808
5.52045e-09
0.00627049
-0.000104685
6.05702e-09
0.00637047
-9.99808e-05
5.89282e-09
0.00646455
-9.40901e-05
5.18245e-09
0.00655189
-8.73457e-05
4.19646e-09
0.00663189
-7.99983e-05
3.21121e-09
0.0067041
-7.22162e-05
2.40225e-09
0.0067682
-6.40997e-05
1.83802e-09
0.0068239
-5.56983e-05
1.50138e-09
0.00687092
-4.70287e-05
1.36068e-09
0.00690901
-3.80863e-05
1.37767e-09
0.00693787
-2.88611e-05
1.5411e-09
0.00695721
-1.93429e-05
1.76486e-09
0.00696675
-9.53947e-06
2.00408e-09
0.0069662
5.41261e-07
2.07187e-09
0.0069554
1.08002e-05
2.66562e-09
0.00693419
2.12113e-05
3.14873e-09
0.00690251
3.16728e-05
3.53153e-09
0.00686044
4.20649e-05
3.54446e-09
0.00680819
5.22516e-05
3.62992e-09
0.0067461
6.20853e-05
3.2339e-09
0.00667468
7.14166e-05
3.13961e-09
0.00659458
8.00973e-05
2.29364e-09
0.00650658
8.79928e-05
2.26849e-09
0.0064116
9.49848e-05
8.16397e-10
0.00631061
0.000100983
1.33104e-09
0.00620469
0.000105925
-8.82466e-10
0.00609491
0.000109782
9.14985e-10
0.00598235
0.000112563
-2.99607e-09
0.00586804
0.000114301
1.82648e-09
0.00575297
0.000115074
-6.03093e-09
0.00563802
0.000114948
5.2712e-09
0.00552395
0.000114086
-1.18264e-08
0.00541143
0.000112504
1.39876e-08
0.00530094
0.000110518
-2.45847e-08
0.00519301
0.000107893
3.40176e-08
0.00508768
0.000105386
-5.34379e-08
0.00498567
0.000101931
7.49059e-08
0.00488607
9.97055e-05
-1.05139e-07
9.49307e-05
1.0173e-07
0.00534278
-1.86843e-05
5.06836e-09
0.00537099
-5.57881e-05
-9.07397e-09
0.0054172
-9.1387e-05
-1.24113e-08
0.00547999
-0.000124198
-6.51172e-09
0.00555741
-0.000153165
-3.25775e-09
0.00564707
-0.000177439
-2.65286e-09
0.00574628
-0.000196404
-1.39181e-09
0.00585216
-0.000209724
3.41511e-10
0.00596182
-0.000217379
2.77196e-09
0.00607255
-0.000219672
4.67579e-09
0.00618192
-0.000217184
5.94359e-09
0.00628791
-0.000210687
6.43863e-09
0.00638896
-0.000201035
6.16613e-09
0.00648391
-0.000189041
5.33252e-09
0.00657194
-0.000175384
4.25937e-09
0.0066525
-0.000160565
3.24386e-09
0.0067252
-0.000144916
2.45424e-09
0.00678973
-0.000128628
1.928e-09
0.00684582
-0.000111791
1.6216e-09
0.00689322
-9.44295e-05
1.50485e-09
0.00693166
-7.65264e-05
1.55404e-09
0.00696085
-5.80545e-05
1.74181e-09
0.00698049
-3.89877e-05
1.96433e-09
0.00699029
-1.93379e-05
2.15877e-09
0.00698993
8.92238e-07
2.0627e-09
0.00697925
2.14767e-05
2.79726e-09
0.00695807
4.23915e-05
3.36252e-09
0.00692632
6.34212e-05
3.78079e-09
0.00688406
8.43237e-05
3.82449e-09
0.00683148
0.000104822
3.91835e-09
0.00676895
0.000124617
3.52455e-09
0.00669696
0.000143403
3.41793e-09
0.00661617
0.000160881
2.57974e-09
0.00652739
0.000176772
2.53088e-09
0.00643153
0.000190842
1.1114e-09
0.00632961
0.000202897
1.55099e-09
0.00622272
0.000212823
-6.53859e-10
0.00611195
0.000220546
1.08128e-09
0.00599841
0.000226108
-2.77392e-09
0.00588317
0.000229536
1.90657e-09
0.0057672
0.000231055
-5.83353e-09
0.00565143
0.000230708
5.19387e-09
0.00553657
0.000228957
-1.15207e-08
0.00542342
0.000225644
1.37201e-08
0.00531227
0.000221698
-2.4033e-08
0.0052039
0.000216221
3.32722e-08
0.00509798
0.000211364
-5.22767e-08
0.00499576
0.000204073
7.33098e-08
0.00489555
0.000200023
-1.02975e-07
0.000189939
9.99936e-08
0.00534321
-2.85604e-05
5.14464e-09
0.0053727
-8.52692e-05
-9.6428e-09
0.00542099
-0.000139671
-1.3012e-08
0.0054866
-0.000189794
-6.89941e-09
0.00556743
-0.000233998
-3.53071e-09
0.00566096
-0.000270961
-2.77954e-09
0.00576428
-0.000299722
-1.19986e-09
0.0058743
-0.000319752
8.37955e-10
0.00598795
-0.00033103
3.61595e-09
0.00610232
-0.000334043
5.78351e-09
0.00621486
-0.000329731
7.14703e-09
0.0063235
-0.000319341
7.51953e-09
0.0064267
-0.000304241
6.94912e-09
0.00652337
-0.000285711
5.75974e-09
0.00661278
-0.000264803
4.39766e-09
0.00669448
-0.000242269
3.22459e-09
0.00676815
-0.000218588
2.39217e-09
0.00683355
-0.000194024
1.87428e-09
0.00689044
-0.000168688
1.59019e-09
0.00693861
-0.000142594
1.5076e-09
0.00697777
-0.000115694
1.59826e-09
0.00700765
-8.7933e-05
1.81917e-09
0.00702791
-5.92547e-05
2.05694e-09
0.00703824
-2.96691e-05
2.22034e-09
0.00703828
8.48002e-07
1.97931e-09
0.00702786
3.19004e-05
2.91434e-09
0.00700674
6.35097e-05
3.65445e-09
0.00697482
9.53289e-05
4.1764e-09
0.00693216
0.000126986
4.25331e-09
0.00687892
0.000158052
4.32359e-09
0.00681547
0.00018807
3.92437e-09
0.0067423
0.000216565
3.83056e-09
0.0066601
0.000243077
2.95865e-09
0.0065697
0.000267171
2.85993e-09
0.00647205
0.000288489
1.38425e-09
0.00636822
0.000306725
1.77145e-09
0.00625933
0.000321712
-4.77476e-10
0.00614655
0.000333324
1.20499e-09
0.00603102
0.000341645
-2.72138e-09
0.00591386
0.000346697
1.90227e-09
0.00579606
0.000348859
-5.87055e-09
0.0056786
0.000348157
5.17231e-09
0.00556221
0.000345368
-1.15661e-08
0.00544767
0.000340164
1.36605e-08
0.0053353
0.000334094
-2.4089e-08
0.00522587
0.000325622
3.31959e-08
0.00511902
0.000318259
-5.22496e-08
0.00501596
0.000307061
7.32153e-08
0.00491508
0.000301007
-1.02602e-07
0.000285673
9.99774e-08
0.00534387
-3.90978e-05
5.39708e-09
0.00537534
-0.000116728
-1.04818e-08
0.00542687
-0.000191185
-1.40984e-08
0.00549683
-0.000259749
-7.57987e-09
0.00558297
-0.000320134
-3.91749e-09
0.00568249
-0.000370484
-2.94645e-09
0.00579221
-0.000409437
-9.95343e-10
0.0059087
-0.00043624
1.67861e-09
0.00602853
-0.000450869
5.03641e-09
0.00614852
-0.000454046
7.67208e-09
0.00626594
-0.000447157
9.19456e-09
0.00637864
-0.000432048
9.3304e-09
0.0064851
-0.000410711
8.21777e-09
0.00658436
-0.00038498
6.40065e-09
0.00667587
-0.00035631
4.54447e-09
0.0067593
-0.000325701
3.11083e-09
0.00683446
-0.000293752
2.20988e-09
0.0069012
-0.000260764
1.70976e-09
0.00695935
-0.000226841
1.46658e-09
0.00700871
-0.000191958
1.43324e-09
0.00704903
-0.000156014
1.58395e-09
0.00707999
-0.000118899
1.87395e-09
0.00710125
-8.05129e-05
2.15336e-09
0.00711243
-4.08515e-05
2.27648e-09
0.0071131
1.70339e-07
1.87335e-09
0.00710309
4.19118e-05
3.11752e-09
0.00708207
8.45207e-05
4.10505e-09
0.00704992
0.000127479
4.72651e-09
0.00700663
0.000170274
4.82688e-09
0.00695236
0.000212315
4.93485e-09
0.00688746
0.000252967
4.54709e-09
0.00681245
0.000291571
4.4447e-09
0.00672803
0.000327487
3.50598e-09
0.00663509
0.00036011
3.34088e-09
0.00653464
0.00038894
1.76337e-09
0.00642781
0.000413551
2.08257e-09
0.00631581
0.000433715
-2.71254e-10
0.00619988
0.000449254
1.30368e-09
0.00608123
0.000460295
-2.77065e-09
0.00596106
0.000466863
1.89321e-09
0.00584042
0.000469503
-6.03184e-09
0.00572034
0.000468237
5.15887e-09
0.00560155
0.000464172
-1.18615e-08
0.00548487
0.000456823
1.37186e-08
0.00537061
0.000448379
-2.45191e-08
0.00525953
0.000436671
3.3495e-08
0.00515125
0.000426591
-5.28587e-08
0.00504693
0.000411303
7.38983e-08
0.00494494
0.000403107
-1.03251e-07
0.000382407
1.00606e-07
0.00534479
-5.05558e-05
5.72585e-09
0.005379
-0.000150932
-1.16884e-08
0.00543503
-0.000247195
-1.57409e-08
0.00551108
-0.000335785
-8.68874e-09
0.00560463
-0.000413685
-4.62678e-09
0.00571257
-0.000478419
-3.31665e-09
0.00583127
-0.000528135
-8.36006e-10
0.00595682
-0.000561797
2.88502e-09
0.00608533
-0.000579378
7.22683e-09
0.00621317
-0.000581898
1.0645e-08
0.00633733
-0.000571331
1.24027e-08
0.00645557
-0.000550302
1.20946e-08
0.00656646
-0.000521609
1.00644e-08
0.00666923
-0.000487757
7.25519e-09
0.00676355
-0.000450641
4.68019e-09
0.00684934
-0.000411487
2.92621e-09
0.00692655
-0.000370969
1.99807e-09
0.00699516
-0.000329379
1.56543e-09
0.00705509
-0.000286769
1.38384e-09
0.00710617
-0.000243036
1.41661e-09
0.00714814
-0.000197987
1.66092e-09
0.00718067
-0.000151431
2.07689e-09
0.00720336
-0.000103204
2.43247e-09
0.00721577
-5.32707e-05
2.60721e-09
0.00721737
-1.42769e-06
2.19376e-09
0.00720796
5.13171e-05
3.40901e-09
0.00718711
0.000105369
4.81039e-09
0.00715462
0.000159966
5.6274e-09
0.00711044
0.000214448
5.77096e-09
0.0070547
0.000268042
5.90301e-09
0.00698775
0.000319914
5.51082e-09
0.00691012
0.000369197
5.38721e-09
0.00682256
0.000415045
4.36195e-09
0.00672601
0.000456655
4.10757e-09
0.00662157
0.00049337
2.37608e-09
0.0065105
0.000524627
2.57216e-09
0.00639408
0.000550128
1.75997e-11
0.0062737
0.00056964
1.49537e-09
0.00615065
0.000583339
-2.76998e-09
0.00602625
0.000591263
1.92642e-09
0.00590162
0.000594143
-6.26323e-09
0.00577784
0.000592009
5.11152e-09
0.0056557
0.000586329
-1.22852e-08
0.00553603
0.00057647
1.37972e-08
0.00541914
0.0005653
-2.51057e-08
0.00530577
0.00055001
3.38921e-08
0.00519549
0.00053692
-5.36893e-08
0.00508945
0.000517268
7.47825e-08
0.0049859
0.000506764
-1.04129e-07
0.000480503
1.01446e-07
0.005346
-6.32271e-05
6.15497e-09
0.00538383
-0.000188749
-1.31974e-08
0.00544579
-0.000309137
-1.79341e-08
0.00552989
-0.000419872
-1.02317e-08
0.0056333
-0.000517089
-5.70152e-09
0.00575245
-0.000597574
-3.9419e-09
0.00588316
-0.000658841
-6.57771e-10
0.00602084
-0.000699483
4.65286e-09
0.00616091
-0.000719451
1.05789e-08
0.00629914
-0.000720148
1.52892e-08
0.00643214
-0.000704345
1.73763e-08
0.00655755
-0.000675732
1.62206e-08
0.0066741
-0.000638171
1.25936e-08
0.00678133
-0.000594993
8.17179e-09
0.00687926
-0.000548573
4.38527e-09
0.00696808
-0.000500312
2.33355e-09
0.00704799
-0.00045088
1.71313e-09
0.0071191
-0.000400493
1.42356e-09
0.00718143
-0.000349095
1.29696e-09
0.00723484
-0.000296449
1.40873e-09
0.00727908
-0.000242229
1.78125e-09
0.00731376
-0.000186114
2.37099e-09
0.00733841
-0.00012786
2.81653e-09
0.00735249
-6.73538e-05
3.28713e-09
0.00735544
-4.38016e-06
3.68228e-09
0.00734683
5.99258e-05
4.00332e-09
0.00732619
0.000126002
5.70616e-09
0.00729323
0.000192919
6.79832e-09
0.00724783
0.000259836
6.97955e-09
0.0071901
0.000325769
7.15018e-09
0.00712035
0.000389659
6.7784e-09
0.00703915
0.000450391
6.63275e-09
0.00694731
0.00050688
5.48762e-09
0.00684586
0.000558095
5.10357e-09
0.00673604
0.000603192
3.15337e-09
0.00661921
0.000641449
3.19396e-09
0.00649685
0.000672491
3.05746e-10
0.00637046
0.000696024
1.75934e-09
0.00624152
0.000712288
-2.78888e-09
0.00611144
0.000721339
1.90769e-09
0.00598146
0.000724126
-6.60723e-09
0.00585276
0.000720704
5.01794e-09
0.00572616
0.000712945
-1.28327e-08
0.00560254
0.000700077
1.38666e-08
0.00548216
0.000685705
-2.58533e-08
0.00536577
0.000666358
3.43438e-08
0.00525287
0.000649878
-5.47139e-08
0.00514458
0.00062548
7.58391e-08
0.005039
0.000612456
-1.05155e-07
0.000580366
1.02478e-07
0.00534755
-7.74498e-05
6.71658e-09
0.00538998
-0.000231165
-1.49127e-08
0.00545954
-0.00037867
-2.07695e-08
0.00555398
-0.0005143
-1.22709e-08
0.00567012
-0.000633221
-7.29018e-09
0.00580385
-0.000731305
-4.95245e-09
0.00595021
-0.000805202
-4.45571e-10
0.00610372
-0.000852999
7.18269e-09
0.00625883
-0.000874575
1.55809e-08
0.00641048
-0.000871815
2.24008e-08
0.00655472
-0.000848612
2.49877e-08
0.00668911
-0.000810147
2.23647e-08
0.00681265
-0.000761722
1.59906e-08
0.00692535
-0.000707705
8.43667e-09
0.00702773
-0.000650959
3.42806e-09
0.00712037
-0.000592954
1.48741e-09
0.00720373
-0.000534237
1.16417e-09
0.00727809
-0.000474858
1.13247e-09
0.00734358
-0.000414581
1.05042e-09
0.00740009
-0.000352963
1.26971e-09
0.00744735
-0.000289489
1.81962e-09
0.00748488
-0.000223653
2.62105e-09
0.00751214
-0.000155117
3.12748e-09
0.00752843
-8.36502e-05
3.82106e-09
0.00753309
-9.04457e-06
4.19954e-09
0.00752551
6.75004e-05
4.50539e-09
0.00750511
0.000146399
6.54319e-09
0.00747147
0.00022655
7.96277e-09
0.00742441
0.000306891
8.19755e-09
0.00736397
0.000386201
8.45373e-09
0.00729046
0.000463155
8.15749e-09
0.0072045
0.000536344
8.00866e-09
0.00710698
0.0006044
6.72882e-09
0.00699905
0.000666017
6.21115e-09
0.0068821
0.000720132
4.01994e-09
0.00675771
0.000765838
3.88799e-09
0.00662753
0.000802669
6.05204e-10
0.00649329
0.000830267
1.99185e-09
0.00635663
0.000848948
-2.9012e-09
0.00621916
0.000858806
1.80584e-09
0.00608225
0.000861046
-7.07774e-09
0.00594718
0.000855769
4.8624e-09
0.00581482
0.000845315
-1.3543e-08
0.00568611
0.000828773
1.39017e-08
0.00556127
0.000810575
-2.68035e-08
0.00544105
0.000786541
3.4856e-08
0.00532481
0.000766176
-5.59749e-08
0.00521369
0.000736526
7.70964e-08
0.00510553
0.000720715
-1.0639e-07
0.000682445
1.03734e-07
0.0053495
-9.36191e-05
7.44187e-09
0.00539766
-0.000279311
-1.66526e-08
0.00547676
-0.000457742
-2.44487e-08
0.00558425
-0.000621777
-1.48829e-08
0.00571658
-0.000765544
-9.71e-09
0.005869
-0.000883717
-6.50751e-09
0.00603553
-0.000971731
4.4611e-11
0.00620948
-0.00102696
1.10028e-08
0.00638396
-0.00104907
2.31913e-08
0.00655268
-0.00104057
3.31244e-08
0.00671099
-0.00100696
3.61629e-08
0.00685639
-0.000955574
3.10322e-08
0.00698834
-0.000893699
2.01934e-08
0.00710762
-0.000826992
7.93766e-09
0.00721541
-0.000758749
2.26853e-09
0.00731276
-0.000690308
3.18245e-10
0.00740045
-0.000621922
1.26674e-10
0.00747895
-0.00055336
2.53751e-10
0.00754849
-0.000484122
1.43062e-10
0.00760898
-0.000413459
4.79872e-10
0.0076601
-0.000340608
1.21662e-09
0.00770126
-0.000264815
2.32828e-09
0.00773178
-0.000185637
2.918e-09
0.00775081
-0.000102682
3.8537e-09
0.00775752
-1.57598e-05
4.30678e-09
0.00775111
7.39087e-05
4.72697e-09
0.00773082
0.000166673
6.86756e-09
0.00769612
0.000261241
8.46338e-09
0.00764673
0.000356275
8.72475e-09
0.00758264
0.000450286
9.12165e-09
0.00750415
0.000541633
8.99248e-09
0.00741193
0.000628557
8.94445e-09
0.00730698
0.000709345
7.61354e-09
0.00719062
0.000782365
7.04883e-09
0.00706446
0.00084629
4.66036e-09
0.0069303
0.000899991
4.38198e-09
0.00679007
0.0009429
7.39551e-10
0.00664575
0.000974587
1.98943e-09
0.00649923
0.000995467
-3.20622e-09
0.00635234
0.00100569
1.5275e-09
0.00620662
0.00100678
-7.75659e-09
0.00606349
0.000998896
4.57153e-09
0.00592388
0.000984939
-1.44809e-08
0.00578878
0.000963857
1.38707e-08
0.00565836
0.000941028
-2.79989e-08
0.00553337
0.000911493
3.54106e-08
0.00541299
0.000886613
-5.75164e-08
0.00529838
0.00085106
7.85476e-08
0.00518707
0.000832126
-1.07853e-07
0.000787231
1.05224e-07
0.00535191
-0.0001122
8.38172e-09
0.00540709
-0.000334474
-1.80395e-08
0.00549803
-0.000548654
-2.93029e-08
0.00562178
-0.00074551
-1.80858e-08
0.00577454
-0.00091829
-1.36951e-08
0.00595076
-0.00105992
-8.98368e-09
0.00614317
-0.00116414
7.85646e-10
0.00634349
-0.0012273
1.71968e-08
0.00654284
-0.00124846
3.58409e-08
0.00673318
-0.00123096
5.00547e-08
0.00690891
-0.00118274
5.21346e-08
0.00706756
-0.00111427
4.15937e-08
0.00720947
-0.00103562
2.15362e-08
0.00733648
-0.000954016
6.40374e-09
0.0074507
-0.000872965
-4.08086e-10
0.00755373
-0.000793333
-2.60982e-09
0.00764666
-0.000714853
-1.82627e-09
0.00773019
-0.000636893
-1.90216e-09
0.00780465
-0.000558571
-2.3445e-09
0.00786992
-0.000478727
-1.832e-09
0.00792559
-0.000396276
-8.73798e-10
0.00797093
-0.000310161
6.72324e-11
0.00800512
-0.000219825
8.24213e-10
0.00802712
-0.000124682
2.0796e-09
0.00803593
-2.4581e-05
2.92521e-09
0.00803051
7.93318e-05
3.83332e-09
0.00800992
0.000187258
5.53673e-09
0.00797347
0.000297679
6.76733e-09
0.0079208
0.000408942
7.1389e-09
0.00785182
0.000519252
7.8382e-09
0.00776685
0.000626602
7.92756e-09
0.00766659
0.000728804
8.0955e-09
0.0075522
0.000823735
6.90087e-09
0.00742519
0.000909367
6.51138e-09
0.00728741
0.000984058
4.11915e-09
0.007141
0.00104641
3.89407e-09
0.00698817
0.00109572
3.16337e-10
0.00683126
0.0011315
1.24431e-09
0.00667245
0.00115428
-4.05434e-09
0.00651385
0.00116429
7.66934e-10
0.0063572
0.00116344
-8.82655e-09
0.00620411
0.00115199
4.02631e-09
0.00605557
0.0011335
-1.57328e-08
0.00591264
0.00110677
1.37184e-08
0.0057754
0.0010783
-2.94877e-08
0.00564462
0.00104223
3.59772e-08
0.00551924
0.00101205
-5.93597e-08
0.00540045
0.000969776
8.01748e-08
0.00528538
0.000947305
-1.09502e-07
0.000895241
1.06927e-07
0.00535486
-0.000133734
9.64146e-09
0.0054185
-0.000398095
-1.83812e-08
0.00552402
-0.000654139
-3.57701e-08
0.00566783
-0.000889296
-2.16126e-08
0.00584626
-0.00109671
-2.06788e-08
0.00605273
-0.00126638
-1.35429e-08
0.00627839
-0.00138981
8.87032e-10
0.00651285
-0.00146179
2.61132e-08
0.00674426
-0.00147993
5.74698e-08
0.00696195
-0.00144872
7.90259e-08
0.00715904
-0.0013799
7.66999e-08
0.00733336
-0.00128864
5.278e-08
0.00748665
-0.00118894
1.78102e-08
0.00762243
-0.00108979
-4.90578e-10
0.0077439
-0.000994423
-1.04985e-08
0.00785325
-0.000902676
-8.5414e-09
0.00795191
-0.000813507
-6.30338e-09
0.00804081
-0.000725781
-7.34928e-09
0.00812034
-0.000638091
-8.71881e-09
0.00819038
-0.000548756
-8.63726e-09
0.00825039
-0.000456285
-7.55769e-09
0.00829955
-0.000359315
-6.23482e-09
0.00833688
-0.000257142
-5.29466e-09
0.00836117
-0.000148977
-3.38679e-09
0.00837137
-3.47748e-05
-1.96185e-09
0.00836605
8.46544e-05
-6.89556e-10
0.00834415
0.000209161
-7.08606e-10
0.00830487
0.000336953
-7.44342e-10
0.00824772
0.000466091
-2.00687e-10
0.00817253
0.000594443
1.36645e-09
0.00807957
0.000719565
2.10746e-09
0.0079696
0.000838771
2.90747e-09
0.00784387
0.000949454
2.33821e-09
0.00770414
0.0010491
2.64483e-09
0.00755251
0.00113568
6.62704e-10
0.00739145
0.00120747
9.66897e-10
0.00722358
0.0012636
-2.17644e-09
0.0070516
0.00130348
-3.24313e-10
0.00687808
0.0013278
-6.10036e-09
0.00670548
0.0013369
-4.53155e-10
0.00653577
0.00133316
-1.05905e-08
0.00637079
0.00131696
3.06296e-09
0.00621161
0.00129269
-1.73937e-08
0.00605939
0.00125898
1.33895e-08
0.0059141
0.00122362
-3.12868e-08
0.00577653
0.00117977
3.65275e-08
0.00564531
0.00114333
-6.14812e-08
0.00552166
0.00109334
8.19282e-08
0.00540223
0.00106684
-1.11233e-07
0.00100697
1.0876e-07
0.00535843
-0.000158835
1.14576e-08
0.00543209
-0.000471739
-1.66146e-08
0.00555542
-0.000777425
-4.4242e-08
0.0057237
-0.00105755
-2.44701e-08
0.00593442
-0.00130739
-3.26609e-08
0.00617937
-0.00151131
-2.0958e-08
0.006448
-0.00165844
-1.75744e-09
0.00672694
-0.00174076
3.54113e-08
0.0069998
-0.00175287
8.95617e-08
0.00725207
-0.00170112
1.25749e-07
0.00747504
-0.00160299
1.16975e-07
0.00766716
-0.00148083
6.11709e-08
0.00783257
-0.00135436
1.2829e-08
0.00797714
-0.00123433
-2.60972e-08
0.00810537
-0.00112262
-3.3027e-08
0.00822003
-0.00101731
-2.31799e-08
0.00832292
-0.000916383
-1.83359e-08
0.00841529
-0.000818125
-2.03188e-08
0.00849764
-0.000720422
-2.26433e-08
0.0085699
-0.000620989
-2.28924e-08
0.00863149
-0.000517853
-2.18605e-08
0.00868162
-0.000409425
-2.10389e-08
0.00871926
-0.00029477
-1.95182e-08
0.00874323
-0.000172922
-1.7345e-08
0.0087525
-4.40281e-05
-1.4715e-08
0.00874521
9.19502e-05
-1.32579e-08
0.00872029
0.0002341
-1.82009e-08
0.00867689
0.000380371
-2.13221e-08
0.00861432
0.000528687
-1.98447e-08
0.00853222
0.000676561
-1.65227e-08
0.00843074
0.000821059
-1.42604e-08
0.00831058
0.000958942
-1.17304e-08
0.008173
0.00108704
-1.03504e-08
0.00801986
0.00120225
-7.95052e-09
0.00785349
0.00130206
-8.01503e-09
0.00767668
0.00138428
-5.93199e-09
0.00749243
0.00144785
-8.18113e-09
0.00730391
0.00149201
-5.13811e-09
0.0071141
0.00151762
-1.00618e-08
0.00692587
0.00152513
-3.39259e-09
0.00674154
0.00151751
-1.33156e-08
0.00656321
0.00149529
1.51659e-09
0.00639208
0.00146384
-1.95017e-08
0.00622944
0.0014216
1.28895e-08
0.00607514
0.00137796
-3.33105e-08
0.00593001
0.00132486
3.70657e-08
0.00579231
0.00128109
-6.37504e-08
0.00566333
0.00122223
8.37068e-08
0.00553913
0.00119117
-1.12828e-07
0.00112277
1.1053e-07
0.00536261
-0.000188125
1.43952e-08
0.00544796
-0.000557073
-1.12897e-08
0.00559281
-0.000922225
-5.47529e-08
0.00579055
-0.00125527
-2.50317e-08
0.00604197
-0.00155876
-5.20596e-08
0.00633596
-0.00180526
-2.83505e-08
0.00666072
-0.00198319
-7.50381e-09
0.00699801
-0.0020781
4.66044e-08
0.00732443
-0.00207943
1.29983e-07
0.00762009
-0.00199696
1.82623e-07
0.00787326
-0.00185633
1.67786e-07
0.00808348
-0.00169113
7.35526e-08
0.00825879
-0.00152966
-4.14854e-09
0.00840839
-0.00138386
-6.96235e-08
0.00853829
-0.00125245
-7.20373e-08
0.00865194
-0.00113091
-5.22735e-08
0.00875187
-0.00101626
-4.36598e-08
0.00883989
-0.000906105
-4.52174e-08
0.00891687
-0.000797357
-4.63148e-08
0.00898301
-0.000687078
-4.48942e-08
0.00903797
-0.000572771
-4.26505e-08
0.00908135
-0.000452763
-4.14879e-08
0.00911233
-0.000325722
-3.74776e-08
0.00913013
-0.000190682
-3.26757e-08
0.00913394
-4.78137e-05
-2.7399e-08
0.00912135
0.00010457
-2.68011e-08
0.00909153
0.000263961
-4.09224e-08
0.00904355
0.000428404
-5.08795e-08
0.00897633
0.000595956
-5.11212e-08
0.00888917
0.000763767
-4.74344e-08
0.00878184
0.00092843
-4.41075e-08
0.00865468
0.00108614
-3.94899e-08
0.00850865
0.0012331
-3.51925e-08
0.00834544
0.0013655
-2.92748e-08
0.00816737
0.00148016
-2.58618e-08
0.00797739
0.00157428
-2.02666e-08
0.00777881
0.00164645
-1.96044e-08
0.00757523
0.0016956
-1.3774e-08
0.00737011
0.00172276
-1.6891e-08
0.00716683
0.00172841
-8.1634e-09
0.00696812
0.00171623
-1.73079e-08
0.00677651
0.0016869
-7.30726e-10
0.00659336
0.00164702
-2.20056e-08
0.00642021
0.00159474
1.22776e-08
0.00625678
0.00154142
-3.53441e-08
0.00610405
0.00147755
3.76202e-08
0.00595985
0.00142536
-6.58556e-08
0.00582559
0.0013564
8.53296e-08
0.00569662
0.00132025
-1.13834e-07
0.00124266
1.11877e-07
0.00536728
-0.000222089
1.97973e-08
0.00546612
-0.000655908
-2.27227e-09
0.00563639
-0.00109243
-6.59904e-08
0.00586904
-0.0014879
-2.35512e-08
0.00617196
-0.0018616
-8.36779e-08
0.0065282
-0.00216147
-2.74599e-08
0.00692719
-0.00238217
-1.304e-08
0.00734223
-0.00249322
7.95986e-08
0.00773809
-0.00247548
1.91678e-07
0.00808621
-0.00234531
2.2803e-07
0.00836964
-0.00213993
1.76048e-07
0.00859043
-0.00191197
4.78683e-08
0.00876373
-0.00170289
-6.65899e-08
0.00890347
-0.00152347
-1.34446e-07
0.00901776
-0.00136662
-1.18539e-07
0.00911141
-0.00122447
-8.57006e-08
0.00918874
-0.00109352
-7.48368e-08
0.00925273
-0.000970022
-7.47998e-08
0.00930509
-0.000849651
-7.03654e-08
0.00934683
-0.000728754
-6.26436e-08
0.00937848
-0.000604359
-5.61296e-08
0.00940047
-0.000474704
-5.15742e-08
0.00941252
-0.00033773
-4.25219e-08
0.00941484
-0.000192973
-3.19963e-08
0.00940717
-4.0123e-05
-2.16493e-08
0.00938605
0.000125711
-1.97305e-08
0.00935144
0.000298616
-4.25492e-08
0.00930191
0.000477997
-5.97619e-08
0.00923572
0.000662213
-6.55251e-08
0.00915143
0.000848124
-6.65542e-08
0.00904793
0.00103199
-6.7008e-08
0.00892465
0.00120949
-6.46898e-08
0.00878167
0.00137615
-6.12708e-08
0.00861995
0.00152727
-5.45763e-08
0.0084413
0.00165885
-4.9193e-08
0.00824845
0.00176718
-4.03675e-08
0.00804471
0.00185022
-3.62811e-08
0.00783398
0.00190635
-2.65643e-08
0.00762017
0.0019366
-2.66524e-08
0.00740727
0.00194133
-1.47059e-08
0.00719854
0.00192498
-2.22012e-08
0.00699712
0.00188833
-3.23051e-09
0.00680471
0.00183945
-2.43202e-08
0.0066233
0.00177614
1.19717e-08
0.00645257
0.00171219
-3.6786e-08
0.0062938
0.00163628
3.8339e-08
0.00614439
0.00157484
-6.71612e-08
0.006006
0.0014947
8.64835e-08
0.00587324
0.00145312
-1.13438e-07
0.0013659
1.12157e-07
0.00537207
-0.000260852
3.04588e-08
0.0054865
-0.000770347
7.3382e-09
0.00568522
-0.00129107
-7.21831e-08
0.00595911
-0.00176175
-2.7732e-08
0.00632656
-0.00222892
-1.38902e-07
0.00676042
-0.00259529
-3.60826e-08
0.00725772
-0.00287944
-3.22787e-08
0.00777865
-0.0030143
1.43036e-07
0.00826433
-0.00296147
3.14634e-07
0.00866679
-0.00274803
2.64498e-07
0.00896166
-0.00243488
7.54344e-08
0.00916201
-0.0021122
-1.14421e-07
0.00929636
-0.00183699
-2.6254e-07
0.00938629
-0.00161315
-2.4407e-07
0.0094432
-0.00142338
-1.39863e-07
0.00947556
-0.00125676
-7.47251e-08
0.00949065
-0.00110854
-7.58116e-08
0.0094938
-0.000973097
-7.44941e-08
0.00948818
-0.00084397
-6.21346e-08
0.00947631
-0.000716837
-4.66391e-08
0.00946029
-0.000588301
-3.66085e-08
0.00944167
-0.000456054
-2.97928e-08
0.00942108
-0.000317122
-2.12577e-08
0.00939895
-0.000170833
-9.04617e-09
0.00937651
-1.76784e-05
-5.21929e-09
0.00934878
0.000153455
-5.89045e-09
0.00931634
0.00033108
-2.41722e-08
0.00927636
0.000518006
-3.63338e-08
0.00922617
0.000712451
-4.32239e-08
0.009163
0.000911343
-4.84249e-08
0.00908418
0.00111086
-5.40321e-08
0.00898749
0.00130624
-5.74839e-08
0.00887138
0.00149232
-6.03208e-08
0.0087353
0.00166342
-5.92278e-08
0.00857978
0.00181442
-5.83952e-08
0.00840661
0.0019404
-5.21091e-08
0.00821858
0.00203831
-4.90042e-08
0.00801948
0.0021055
-3.81794e-08
0.00781343
0.00214268
-3.65492e-08
0.00760501
0.00214977
-2.16468e-08
0.00739812
0.0021319
-2.70654e-08
0.00719676
0.00208969
-4.9759e-09
0.0070032
0.00203303
-2.54496e-08
0.00682022
0.00195911
1.27544e-08
0.00664768
0.00188477
-3.63983e-08
0.00648748
0.00179645
3.96866e-08
0.00633669
0.0017257
-6.63585e-08
0.00619741
0.00163389
8.68021e-08
0.00606365
0.00158699
-1.10174e-07
0.00149036
1.10335e-07
0.00537653
-0.000304096
5.12829e-08
0.00550858
-0.000902412
1.84639e-08
0.00573619
-0.00151863
-5.61317e-08
0.00605971
-0.00208522
-5.46345e-08
0.00650466
-0.00267364
-2.28653e-07
0.00703456
-0.00312507
-1.16768e-07
0.0076656
-0.00351036
-1.13194e-07
0.00832685
-0.00367571
1.45331e-07
0.00891954
-0.00355462
4.66973e-07
0.00934389
-0.00317278
3.93274e-07
0.00957653
-0.00266756
4.24866e-08
0.00967071
-0.00220598
-3.96445e-07
0.00968116
-0.00184687
-5.68559e-07
0.00963801
-0.00156962
-3.77785e-07
0.00956026
-0.00134554
-1.0274e-07
0.00946325
-0.00115974
-9.55873e-09
0.00935855
-0.00100385
1.76783e-08
0.00925304
-0.000867605
1.96717e-08
0.00915182
-0.000742783
3.29952e-08
0.00905884
-0.000623897
4.33941e-08
0.00897737
-0.000506879
4.38345e-08
0.00890925
-0.000387971
3.98588e-08
0.00885562
-0.000263522
3.34971e-08
0.00881594
-0.000131179
2.55791e-08
0.00878754
1.06951e-05
2.38204e-08
0.00877075
0.000170236
7.63583e-09
0.00876102
0.000340788
1.80745e-08
0.00875474
0.000524261
2.45233e-08
0.00874763
0.000719543
2.23272e-08
0.00873507
0.00092389
1.69026e-08
0.0087125
0.00113342
8.76745e-09
0.00867572
0.00134302
2.6369e-10
0.00862116
0.00154689
-1.04519e-08
0.00854623
0.00173837
-1.8901e-08
0.00844953
0.00191115
-2.86113e-08
0.00833117
0.00205879
-3.22353e-08
0.0081926
0.00217691
-3.79622e-08
0.0080368
0.00226133
-3.33911e-08
0.00786752
0.002312
-3.60281e-08
0.00768954
0.00232777
-2.25389e-08
0.00750721
0.00231426
-2.82566e-08
0.00732546
0.00227144
-4.35356e-09
0.00714731
0.00221121
-2.43156e-08
0.00697669
0.00212971
1.489e-08
0.00681394
0.00204755
-3.315e-08
0.00666203
0.00194832
4.1645e-08
0.00651801
0.00186978
-6.18089e-08
0.00638466
0.00176716
8.54546e-08
0.0062558
0.00171594
-1.0188e-07
0.00161146
1.04803e-07
0.0053805
-0.000351349
8.87712e-08
0.00552958
-0.00105155
5.18389e-08
0.00578277
-0.00177183
1.08353e-08
0.0061662
-0.00246854
-1.07638e-07
0.00669348
-0.0032006
-3.19351e-07
0.00734626
-0.0037775
-3.55578e-07
0.00817637
-0.00434007
-4.07021e-07
0.00898625
-0.00448561
2.95778e-08
0.00964391
-0.00421266
3.74236e-07
0.00995234
-0.00348178
5.79324e-07
0.00994153
-0.00265704
2.84124e-07
0.00975603
-0.00202032
-1.61904e-07
0.00949243
-0.00158267
-6.0114e-07
0.00918965
-0.00126648
-3.72286e-07
0.00888195
-0.00103782
-2.5743e-09
0.00859063
-0.0008686
1.69232e-07
0.00832766
-0.000741072
1.86111e-07
0.00809807
-0.000638189
1.76935e-07
0.00790469
-0.000549581
1.75925e-07
0.00774938
-0.000468749
1.61424e-07
0.00763223
-0.000389865
1.38236e-07
0.0075517
-0.000307554
1.16563e-07
0.0075054
-0.000217323
9.54088e-08
0.00748915
-0.000114998
7.15543e-08
0.00749724
2.56276e-06
3.92494e-08
0.00752917
0.000138266
4.67908e-08
0.00757774
0.000292135
7.63681e-08
0.00763775
0.000464163
9.57656e-08
0.00770386
0.000653328
9.93322e-08
0.00777063
0.000857028
9.62687e-08
0.00783261
0.00107135
8.86434e-08
0.00788457
0.00129098
7.89318e-08
0.00792165
0.00150975
6.45333e-08
0.0079397
0.00172026
5.02877e-08
0.00793554
0.00191529
3.22557e-08
0.00790735
0.00208696
1.89322e-08
0.00785469
0.00222957
2.25687e-09
0.00777891
0.00233712
-3.21707e-09
0.00768242
0.0024085
-1.53539e-08
0.00756933
0.00244087
-8.51237e-09
0.00744363
0.00243997
-1.9103e-08
0.00731068
0.0024044
3.85833e-10
0.00717388
0.00234803
-1.81006e-08
0.00703837
0.00226521
1.9116e-08
0.00690506
0.00218088
-2.59239e-08
0.00677827
0.00207507
4.33831e-08
0.00665546
0.00199264
-5.18962e-08
0.00654018
0.00188236
8.05278e-08
0.00642702
0.00182919
-8.5975e-08
0.00172079
9.30902e-08
0.00538361
-0.000401767
1.44563e-07
0.00554176
-0.00120983
1.2593e-07
0.00581513
-0.00204532
1.26683e-07
0.00625724
-0.00291052
-1.28681e-07
0.00685994
-0.00380303
-2.71584e-07
0.00768606
-0.00460292
-7.02012e-07
0.00879937
-0.00545262
-7.53354e-07
0.00966762
-0.00535378
-8.17811e-08
0.0101018
-0.00124848
-1.1547e-07
-0.00107502
-0.00124704
-0.00107622
0.00994494
-0.000913187
2.46024e-07
-0.000749571
-0.000912277
-0.000750089
0.00936583
-0.000568064
9.37819e-07
-0.000471518
-0.000567665
-0.000471623
0.00864005
-0.000334395
3.53145e-07
-0.000312833
-0.000334838
-0.000312828
0.00792996
-0.000872476
-1.00237e-07
0.00729582
-0.000632231
-1.02417e-07
0.00676999
-0.000512176
1.7786e-07
0.00635348
-0.000452259
1.65601e-07
0.00603859
-0.000426235
5.54292e-08
0.00581186
-0.000411503
4.59715e-08
0.00566034
-0.000398124
5.9328e-08
0.00557192
-0.000380387
5.88151e-08
0.00553565
-0.000353652
5.29391e-08
0.00554222
-0.000314164
4.88449e-08
0.00558376
-0.000258913
4.49226e-08
0.00565369
-0.000184962
3.81482e-08
0.00574637
-9.01599e-05
3.6106e-08
0.00585711
2.74927e-05
3.44927e-08
0.00598272
0.000166473
5.82161e-08
0.00611882
0.000327968
8.61355e-08
0.00626157
0.000510482
1.01132e-07
0.00640718
0.000711309
1.07429e-07
0.00655167
0.000926748
1.08109e-07