/*--------------------------------*- C++ -*----------------------------------*\
  =========                 |
  \\      /  F ield         | OpenFOAM: The Open Source CFD Toolbox
   \\    /   O peration     | Website:  https://openfoam.org
    \\  /    A nd           | Version:  8
     \\/     M anipulation  |
\*---------------------------------------------------------------------------*/
FoamFile
{
    version     2.0;
    format      ascii;
    class       volScalarField;
    location    "18.5";
    object      p;
}
// * * * * * * * * * * * * * * * * * * * * * * * * * * * * * * * * * * * * * //

dimensions      [0 2 -2 0 0 0 0];

internalField   nonuniform List<scalar> 
464
(
-4.52079e-09
4.39836e-06
1.39274e-05
2.80241e-05
4.65065e-05
6.89043e-05
9.48288e-05
0.000123464
0.000155059
0.000186472
0.000222809
0.000251727
-4.43416e-06
5.62507e-08
9.77345e-06
2.41473e-05
4.29937e-05
6.58446e-05
9.23038e-05
0.000121566
0.00015387
0.000186167
0.000223542
0.000253936
-1.41865e-05
-9.50455e-06
6.27837e-07
1.56126e-05
3.52457e-05
5.90299e-05
8.64879e-05
0.000116868
0.000149823
0.000183682
0.000219694
0.000252729
-2.91829e-05
-2.4204e-05
-1.34296e-05
2.5058e-06
2.33782e-05
4.86755e-05
7.78836e-05
0.000110265
0.000145394
0.000181774
0.00022033
0.000256192
-4.98642e-05
-4.44735e-05
-3.28138e-05
-1.5566e-05
7.00492e-06
3.43505e-05
6.58697e-05
0.0001008
0.000138441
0.00017767
0.000218068
0.000257799
-7.6686e-05
-7.07511e-05
-5.79361e-05
-3.89655e-05
-1.41703e-05
1.58734e-05
5.04837e-05
8.88805e-05
0.000130289
0.000173635
0.000218343
0.000262437
-0.000110231
-0.000103613
-8.93625e-05
-6.82281e-05
-4.06594e-05
-7.24882e-06
3.11864e-05
7.38197e-05
0.000119744
0.000167878
0.000217327
0.00026684
-0.000151554
-0.000144026
-0.000127974
-0.000104087
-7.309e-05
-3.55079e-05
7.6282e-06
5.5473e-05
0.000106999
0.000161135
0.000216877
0.00027281
-0.00020044
-0.000192006
-0.00017401
-0.000147024
-0.000112042
-6.94671e-05
-2.07431e-05
3.32883e-05
9.14239e-05
0.000152546
0.000215488
0.000279193
-0.000262441
-0.000252113
-0.000231168
-0.000199257
-0.00015903
-0.000110131
-5.46613e-05
6.7621e-06
7.27178e-05
0.000142173
0.000214129
0.000286749
-0.000327521
-0.000316388
-0.000293212
-0.000257608
-0.000212408
-0.000156984
-9.42204e-05
-2.45325e-05
5.01835e-05
0.00012857
0.000209182
0.000291705
-0.000422734
-0.000406878
-0.000379965
-0.000334019
-0.000281396
-0.000214866
-0.000142107
-6.16906e-05
2.37931e-05
0.000114195
0.000208205
0.000303574
-0.000504105
-0.000489449
-0.000459372
-0.000410019
-0.000351067
-0.000276392
-0.000194705
-0.000104013
-8.08394e-06
9.14962e-05
0.000193836
0.000299484
-0.000653123
-0.000623276
-0.000590955
-0.000518083
-0.000450279
-0.000355313
-0.000260951
-0.000154155
-4.35522e-05
7.33141e-05
0.000194783
0.000318731
-0.000751152
-0.000733591
-0.000693129
-0.000620499
-0.000540701
-0.000435639
-0.000328951
-0.000209441
-8.77495e-05
3.73043e-05
0.000164911
0.000297176
-0.000994108
-0.000920184
-0.00088912
-0.000762776
-0.000674784
-0.000535674
-0.000413174
-0.000271014
-0.000130874
1.58601e-05
0.000166542
0.000323656
-0.00110823
-0.00110266
-0.00103602
-0.000918851
-0.000797439
-0.000643479
-0.000499062
-0.000341374
-0.000189666
-3.5306e-05
0.000117734
0.000278849
-0.00155992
-0.00128357
-0.00130588
-0.00105268
-0.000949088
-0.000742181
-0.000586206
-0.000402117
-0.000231097
-5.57146e-05
0.000119477
0.000306042
-0.001722
-0.00180767
-0.00158236
-0.00139457
-0.00114799
-0.000917303
-0.00070306
-0.00049367
-0.000303567
-0.000117858
5.70597e-05
0.000243301
-0.0031211
-0.00177057
-0.00182821
-0.00142266
-0.00122105
-0.000959367
-0.00073967
-0.000525145
-0.000323267
-0.000129155
5.74364e-05
0.000250505
0.000294329
0.000314226
0.000336299
0.000350954
0.000364223
0.000373458
0.00037993
0.000382841
0.000298567
0.000320107
0.0003441
0.000360318
0.000374869
0.000385182
0.00039235
0.000395601
0.000288676
0.000316605
0.000343659
0.000365057
0.000383209
0.00039667
0.000405828
0.000410073
0.000294859
0.000325724
0.000355441
0.000379462
0.000399782
0.000415064
0.000425451
0.000430273
0.000297138
0.000333026
0.000366157
0.000394698
0.00041862
0.000436926
0.000449388
0.000455235
0.00030613
0.000346514
0.000383892
0.000416522
0.000443979
0.000465318
0.000479895
0.000486813
0.000315514
0.000361702
0.000404523
0.000442575
0.00047473
0.00050001
0.000517268
0.000525577
0.000328018
0.000380875
0.000430199
0.000474703
0.000512489
0.00054279
0.000563388
0.000573585
0.000342227
0.000403163
0.000460255
0.000512422
0.000556658
0.000592955
0.000617265
0.000629746
0.000359137
0.000430044
0.000497215
0.000560241
0.000613854
0.000659893
0.000690094
0.000706732
0.000374071
0.00045527
0.000531878
0.000605806
0.000666488
0.000723198
0.000757133
0.000779247
0.000399815
0.000496909
0.000589172
0.000683673
0.000759208
0.00083735
0.000881666
0.000914347
0.000405644
0.000515037
0.000613496
0.000725792
0.000802995
0.00090455
0.000948056
0.000997689
0.000444489
0.000579938
0.000701774
0.000852163
0.00095693
0.00110378
0.00117133
0.0012493
0.000425978
0.000576077
0.000688702
0.000869786
0.000951729
0.00115366
0.00119918
0.00133646
0.000478514
0.000665956
0.000816691
0.00105988
0.00119923
0.00149458
0.00160673
0.00183181
0.00042015
0.000623555
0.000723488
0.00101637
0.00105584
0.00147051
0.0014807
0.00191307
0.000478404
0.00071991
0.000879547
0.00125369
0.00140613
0.00200515
0.002193
0.00295279
0.000382228
0.000635486
0.00067157
0.00110525
0.000952482
0.00174494
0.00146807
0.00278462
0.000416893
0.000680887
0.000789946
0.00127113
0.00134389
0.00241002
0.00284451
0.00564091
0.000351115
0.00035156
0.000352452
0.000353553
0.000354744
0.000355791
0.000356586
0.000356974
0.000351716
0.000352185
0.000353109
0.000354266
0.00035547
0.000356539
0.000357339
0.000357731
0.000348703
0.000349447
0.000350897
0.000352592
0.000354432
0.000355996
0.000357179
0.000357748
0.00035042
0.00035127
0.000352875
0.000354807
0.00035674
0.000358426
0.000359661
0.000360262
0.000342931
0.000344733
0.000347898
0.000351297
0.000354849
0.000357725
0.000359856
0.000360858
0.000345849
0.000347879
0.000351422
0.000355309
0.00035909
0.000362244
0.000364518
0.000365602
0.000329376
0.000334816
0.000342715
0.000349989
0.000357074
0.000362467
0.00036633
0.000368108
0.000333617
0.000339473
0.0003482
0.0003563
0.000363952
0.000369875
0.000374087
0.000376032
)
;

boundaryField
{
    movingWall
    {
        type            zeroGradient;
    }
    fixedWalls
    {
        type            zeroGradient;
    }
    frontAndBack
    {
        type            empty;
    }
}


// ************************************************************************* //
