/*--------------------------------*- C++ -*----------------------------------*\
  =========                 |
  \\      /  F ield         | OpenFOAM: The Open Source CFD Toolbox
   \\    /   O peration     | Website:  https://openfoam.org
    \\  /    A nd           | Version:  8
     \\/     M anipulation  |
\*---------------------------------------------------------------------------*/
FoamFile
{
    version     2.0;
    format      ascii;
    class       surfaceScalarField;
    location    "18.5";
    object      phi;
}
// * * * * * * * * * * * * * * * * * * * * * * * * * * * * * * * * * * * * * //

dimensions      [0 3 -1 0 0 0 0];

internalField   nonuniform List<scalar> 
880
(
-9.14565e-06
9.14566e-06
-1.84124e-05
9.26671e-06
-2.72295e-05
8.81711e-06
-3.53854e-05
8.15588e-06
-4.26951e-05
7.30973e-06
-4.90008e-05
6.30575e-06
-5.41869e-05
5.18603e-06
-5.81482e-05
3.96134e-06
-6.09463e-05
2.79809e-06
-6.23141e-05
1.36786e-06
-6.31402e-05
8.26022e-07
-8.38671e-07
-6.23015e-05
-9.71069e-06
1.88563e-05
-1.95416e-05
1.90976e-05
-2.88904e-05
1.81659e-05
-3.75317e-05
1.67971e-05
-4.52725e-05
1.50505e-05
-5.19539e-05
1.29872e-05
-5.74609e-05
1.0693e-05
-6.17005e-05
8.20087e-06
-6.47432e-05
5.84078e-06
-6.63824e-05
3.00711e-06
-6.75202e-05
1.96385e-06
-1.73791e-06
-6.6621e-05
-1.01779e-05
2.90343e-05
-2.0475e-05
2.93947e-05
-3.02536e-05
2.79446e-05
-3.92701e-05
2.58136e-05
-4.73114e-05
2.30918e-05
-5.4192e-05
1.98678e-05
-5.97541e-05
1.62552e-05
-6.38795e-05
1.23262e-05
-6.6386e-05
8.3473e-06
-6.73799e-05
4.00105e-06
-6.62039e-05
7.87802e-07
-4.32393e-06
-6.36179e-05
-1.08969e-05
3.99311e-05
-2.19107e-05
4.04086e-05
-3.23528e-05
3.83867e-05
-4.19579e-05
3.54187e-05
-5.05059e-05
3.16398e-05
-5.78119e-05
2.71737e-05
-6.37328e-05
2.21761e-05
-6.81673e-05
1.67607e-05
-7.09422e-05
1.11222e-05
-7.21054e-05
5.1643e-06
-7.09618e-05
-3.55809e-07
-6.85273e-06
-6.8433e-05
-1.19006e-05
5.18318e-05
-2.39111e-05
5.24191e-05
-3.52714e-05
4.9747e-05
-4.56803e-05
4.58275e-05
-5.49024e-05
4.08619e-05
-6.27346e-05
3.5006e-05
-6.90131e-05
2.84546e-05
-7.36071e-05
2.13547e-05
-7.63978e-05
1.39129e-05
-7.73839e-05
6.15041e-06
-7.6302e-05
-1.43775e-06
-9.70568e-06
-7.3449e-05
-1.32313e-05
6.50631e-05
-2.65554e-05
6.57431e-05
-3.91223e-05
6.23138e-05
-5.05796e-05
5.72848e-05
-6.06884e-05
5.09707e-05
-6.92372e-05
4.35548e-05
-7.6086e-05
3.53035e-05
-8.11304e-05
2.63991e-05
-8.42769e-05
1.70593e-05
-8.54594e-05
7.33296e-06
-8.44062e-05
-2.49096e-06
-1.26065e-05
-8.15054e-05
-1.49431e-05
8.00062e-05
-2.99437e-05
8.07438e-05
-4.40417e-05
7.64118e-05
-5.68029e-05
7.0046e-05
-6.79987e-05
6.21665e-05
-7.74009e-05
5.2957e-05
-8.48962e-05
4.27987e-05
-9.0392e-05
3.18949e-05
-9.38114e-05
2.04787e-05
-9.51522e-05
8.67381e-06
-9.43346e-05
-3.30859e-06
-1.55778e-05
-9.13633e-05
-1.71404e-05
9.71465e-05
-3.42481e-05
9.78516e-05
-5.02552e-05
9.24188e-05
-6.4586e-05
8.43768e-05
-7.70759e-05
7.46565e-05
-8.74706e-05
6.33516e-05
-9.57217e-05
5.10499e-05
-0.000101773
3.79458e-05
-0.000105602
2.43081e-05
-0.000107196
1.0268e-05
-0.000106476
-4.02864e-06
-1.85592e-05
-0.000103495
-1.98563e-05
0.000117003
-3.95733e-05
0.000117569
-5.7939e-05
0.000110785
-7.41536e-05
0.000100591
-8.81606e-05
8.86635e-05
-9.96571e-05
7.48481e-05
-0.000108722
6.01144e-05
-0.000115346
4.45703e-05
-0.000119579
2.85409e-05
-0.000121451
1.21402e-05
-0.000120951
-4.52887e-06
-2.15111e-05
-0.000117999
-2.3671e-05
0.000140674
-4.66025e-05
0.0001405
-6.79066e-05
0.000132089
-8.6113e-05
0.000118798
-0.000101747
0.000104297
-0.000114327
8.74289e-05
-0.000124173
6.99605e-05
-0.000131337
5.17337e-05
-0.000135973
3.31768e-05
-0.000138174
1.43416e-05
-0.000137852
-4.85134e-06
-2.42959e-05
-0.000135067
-2.76788e-05
0.000168353
-5.44588e-05
0.00016728
-7.92332e-05
0.000156863
-9.99847e-05
0.000139549
-0.000117658
0.00012197
-0.000131496
0.000101267
-0.000142178
8.06431e-05
-0.000149834
5.93897e-05
-0.000154759
3.81018e-05
-0.000157161
1.6743e-05
-0.000157251
-4.76122e-06
-2.68754e-05
-0.000154671
-3.55631e-05
0.000203916
-6.73642e-05
0.000199081
-9.69008e-05
0.0001864
-0.000119426
0.000162074
-0.000138611
0.000141155
-0.000152699
0.000115355
-0.000163562
9.15058e-05
-0.000171254
6.7082e-05
-0.000176474
4.33216e-05
-0.00017936
1.96292e-05
-0.000179732
-4.38964e-06
-2.86805e-05
-0.000177927
-4.08699e-05
0.000244786
-7.84427e-05
0.000236654
-0.000112769
0.000220726
-0.000138658
0.000187964
-0.000160258
0.000162755
-0.000175438
0.000130536
-0.000186921
0.000102989
-0.000194684
7.48445e-05
-0.000199575
4.82123e-05
-0.000202241
2.22957e-05
-0.000203294
-3.33699e-06
-3.00633e-05
-0.000201911
-6.10996e-05
0.000305885
-0.000105781
0.000281335
-0.000147286
0.000262232
-0.000172746
0.000213423
-0.000193779
0.000183789
-0.000206612
0.000143369
-0.000216235
0.000112611
-0.000222485
8.10947e-05
-0.000227259
5.29867e-05
-0.000230548
2.5584e-05
-0.00023214
-1.74406e-06
-2.9317e-05
-0.000232887
-6.52796e-05
0.000371165
-0.000120383
0.000336438
-0.000168869
0.000310718
-0.000198889
0.000243443
-0.000222223
0.000207122
-0.000235267
0.000156412
-0.000244384
0.000121729
-0.000249445
8.6156e-05
-0.000252427
5.59679e-05
-0.000254478
2.76351e-05
-0.000256845
6.23539e-07
-2.82505e-05
-0.000257912
-0.000131069
0.000502234
-0.000187308
0.000392677
-0.000240682
0.000364092
-0.000261193
0.000263954
-0.000275222
0.000221151
-0.000280309
0.0001615
-0.000282376
0.000123796
-0.000283388
8.71679e-05
-0.000285002
5.75814e-05
-0.000287571
3.02043e-05
-0.000291191
4.24346e-06
-2.23391e-05
-0.000297102
-0.000116164
0.000618398
-0.000203742
0.000480255
-0.000271756
0.000432106
-0.000298631
0.000290828
-0.00031325
0.000235771
-0.000315208
0.000163457
-0.000313777
0.000122365
-0.000310615
8.40063e-05
-0.000308347
5.53137e-05
-0.000308019
2.98754e-05
-0.000310894
7.11874e-06
-1.71345e-05
-0.000316098
-0.000359446
0.000977843
-0.000385464
0.000506273
-0.000412856
0.000459499
-0.000406304
0.000284276
-0.000385852
0.000215319
-0.000371939
0.000149543
-0.000354952
0.000105378
-0.000344991
7.40455e-05
-0.000338832
4.91545e-05
-0.000338358
2.94008e-05
-0.000343765
1.25266e-05
-4.29094e-06
-0.000356609
-0.000563563
0.00154141
-0.000552343
0.000495053
-0.000550395
0.000457551
-0.000487738
0.000221619
-0.000430647
0.000158228
-0.000383604
0.000102501
-0.000345406
6.71798e-05
-0.000318954
4.75938e-05
-0.000300548
3.07483e-05
-0.000290174
1.9027e-05
-0.000286565
8.91735e-06
2.52516e-07
-0.000291109
0.00154141
0.00203646
0.00249401
0.00271563
0.00287386
0.00297636
0.00304354
0.00309113
0.00312188
0.00314091
0.00314982
0.00315008
-4.82148e-05
1.78257e-05
-3.19124e-05
-3.70716e-05
6.95578e-06
-1.8099e-05
-3.01221e-05
-2.15733e-06
-4.79218e-06
-2.37364e-05
-9.18358e-06
2.79791e-06
-1.78013e-05
-1.45786e-05
8.64356e-06
-1.18293e-05
-1.85274e-05
1.25554e-05
-5.83085e-06
-2.10939e-05
1.50954e-05
-2.15422e-05
1.57114e-05
-5.22234e-05
3.4281e-06
-4.09223e-05
-4.3453e-06
-3.34751e-05
-9.60455e-06
-2.65709e-05
-1.60878e-05
-2.00783e-05
-2.10712e-05
-1.34421e-05
-2.51636e-05
-6.65464e-06
-2.78813e-05
-2.81968e-05
-5.61165e-05
-4.07321e-06
-4.88449e-05
-1.1617e-05
-4.10933e-05
-1.73561e-05
-3.3278e-05
-2.39031e-05
-2.51574e-05
-2.91918e-05
-1.68288e-05
-3.34922e-05
-8.30688e-06
-3.64032e-05
-3.65037e-05
-6.11914e-05
-1.13148e-05
-5.39313e-05
-1.88771e-05
-4.58774e-05
-2.541e-05
-3.75287e-05
-3.22519e-05
-2.86411e-05
-3.80794e-05
-1.92957e-05
-4.28376e-05
-9.5776e-06
-4.61214e-05
-4.60813e-05
-6.79183e-05
-1.68455e-05
-6.12073e-05
-2.55881e-05
-5.30075e-05
-3.36098e-05
-4.37943e-05
-4.14652e-05
-3.36247e-05
-4.82489e-05
-2.2722e-05
-5.37403e-05
-1.12959e-05
-5.75474e-05
-5.73773e-05
-7.5979e-05
-2.23719e-05
-6.89788e-05
-3.25883e-05
-6.02826e-05
-4.2306e-05
-5.02138e-05
-5.15339e-05
-3.88722e-05
-5.95905e-05
-2.64054e-05
-6.62071e-05
-1.31754e-05
-7.07774e-05
-7.05527e-05
-8.60654e-05
-2.76698e-05
-7.87437e-05
-3.991e-05
-6.9409e-05
-5.16407e-05
-5.82082e-05
-6.27348e-05
-4.53295e-05
-7.24692e-05
-3.09201e-05
-8.06165e-05
-1.54878e-05
-8.62096e-05
-8.60405e-05
-9.80772e-05
-3.30872e-05
-9.03464e-05
-4.76408e-05
-8.02586e-05
-6.17285e-05
-6.77858e-05
-7.52076e-05
-5.31945e-05
-8.70605e-05
-3.64608e-05
-9.73503e-05
-1.83761e-05
-0.000104294
-0.000104417
-0.000112479
-3.86074e-05
-0.000104296
-5.58236e-05
-9.33712e-05
-7.26535e-05
-7.94177e-05
-8.9161e-05
-6.28494e-05
-0.000103629
-4.3264e-05
-0.000116936
-2.1995e-05
-0.000125563
-0.000126412
-0.000129598
-4.40763e-05
-0.000121161
-6.42601e-05
-0.000109627
-8.41875e-05
-9.41547e-05
-0.000104634
-7.56005e-05
-0.000122183
-5.23892e-05
-0.000140147
-2.70826e-05
-0.00015087
-0.000153494
-0.000149253
-4.94951e-05
-0.000140449
-7.30638e-05
-0.000128294
-9.63429e-05
-0.000110929
-0.000121998
-9.03202e-05
-0.000142792
-6.28327e-05
-0.000167634
-3.31262e-05
-0.000180576
-0.00018662
-0.000173549
-5.38728e-05
-0.000165517
-8.10955e-05
-0.000154237
-0.000107623
-0.000135884
-0.000140351
-0.000113691
-0.000164985
-8.0444e-05
-0.000200881
-4.38964e-05
-0.000217124
-0.000230517
-0.00019808
-5.77041e-05
-0.000189994
-8.9181e-05
-0.000179199
-0.000118418
-0.000159173
-0.000160377
-0.00013614
-0.000188019
-9.70749e-05
-0.000239946
-5.54401e-05
-0.000258759
-0.000285957
-0.000232651
-5.79401e-05
-0.000228664
-9.3168e-05
-0.000222663
-0.000124419
-0.000205227
-0.000177813
-0.000183614
-0.000209631
-0.000136415
-0.000287146
-8.31786e-05
-0.000311995
-0.000369135
-0.000258667
-5.71846e-05
-0.000255296
-9.65394e-05
-0.000251831
-0.000127884
-0.000234613
-0.000195032
-0.000217356
-0.000226887
-0.000164986
-0.000339517
-0.000111196
-0.000365784
-0.000480331
-0.000305807
-4.848e-05
-0.000314362
-8.79841e-05
-0.000325182
-0.000117063
-0.000323901
-0.000196313
-0.000321026
-0.000229762
-0.000266116
-0.000394428
-0.000198522
-0.000433378
-0.000678853
-0.000324262
-4.03164e-05
-0.000333026
-7.92198e-05
-0.000346891
-0.000103198
-0.000349782
-0.000193422
-0.000364166
-0.000215378
-0.000319838
-0.000438756
-0.000285935
-0.000467281
-0.000964788
-0.000378152
-1.8774e-05
-0.00041209
-4.5281e-05
-0.000458478
-5.68112e-05
-0.000515953
-0.000135946
-0.000585767
-0.000145565
-0.000600757
-0.000423766
-0.00056569
-0.000502348
-0.00153048
-0.000297739
-1.21437e-05
-0.000317814
-2.52059e-05
-0.000330984
-4.36412e-05
-0.000364058
-0.000102872
-0.000374052
-0.00013557
-0.000376879
-0.00042094
-0.00031979
-0.000559436
-0.00185027
0.00313793
0.00311273
0.00306909
0.00296621
0.00283064
0.0024097
0.00185027
-8.44021e-07
8.44021e-07
-1.55284e-06
7.0882e-07
-1.98471e-06
4.31864e-07
-2.09849e-06
1.13788e-07
-1.89017e-06
-2.08323e-07
-1.41133e-06
-4.78842e-07
-7.40023e-07
-6.71306e-07
-7.40023e-07
-9.53116e-07
1.79714e-06
-1.74307e-06
1.49877e-06
-2.20888e-06
8.97678e-07
-2.29642e-06
2.01324e-07
-2.05082e-06
-4.53921e-07
-1.5262e-06
-1.00346e-06
-7.99204e-07
-1.3983e-06
-1.53923e-06
-1.42281e-06
3.21995e-06
-2.5426e-06
2.61856e-06
-3.16363e-06
1.5187e-06
-3.29445e-06
3.32145e-07
-2.9193e-06
-8.29072e-07
-2.15126e-06
-1.77151e-06
-1.11929e-06
-2.43027e-06
-2.65851e-06
-1.72169e-06
4.94164e-06
-3.04597e-06
3.94285e-06
-3.72397e-06
2.1967e-06
-3.74381e-06
3.51986e-07
-3.26558e-06
-1.3073e-06
-2.39391e-06
-2.64318e-06
-1.24223e-06
-3.58195e-06
-3.90074e-06
-3.25599e-06
8.19762e-06
-5.44818e-06
6.13504e-06
-6.35552e-06
3.10404e-06
-6.31607e-06
3.12544e-07
-5.38848e-06
-2.2349e-06
-3.86773e-06
-4.16393e-06
-1.98287e-06
-5.46681e-06
-5.88361e-06
-3.95598e-06
1.21536e-05
-6.57973e-06
8.75879e-06
-7.54679e-06
4.0711e-06
-7.24829e-06
1.40411e-08
-6.11619e-06
-3.367e-06
-4.38678e-06
-5.89334e-06
-2.24611e-06
-7.60748e-06
-8.12973e-06
-8.98136e-06
2.1135e-05
-1.341e-05
1.31874e-05
-1.38193e-05
4.48042e-06
-1.26452e-05
-1.16008e-06
-1.01817e-05
-5.83049e-06
-7.05088e-06
-9.02415e-06
-3.54447e-06
-1.11139e-05
-1.16742e-05
-1.07775e-05
-1.56891e-05
-1.60008e-05
-1.4363e-05
-1.15499e-05
-8.01865e-06
-4.03715e-06
)
;

boundaryField
{
    movingWall
    {
        type            calculated;
        value           uniform 0;
    }
    fixedWalls
    {
        type            calculated;
        value           uniform 0;
    }
    frontAndBack
    {
        type            empty;
        value           nonuniform List<scalar> 0();
    }
}


// ************************************************************************* //
