/*--------------------------------*- C++ -*----------------------------------*\
  =========                 |
  \\      /  F ield         | OpenFOAM: The Open Source CFD Toolbox
   \\    /   O peration     | Website:  https://openfoam.org
    \\  /    A nd           | Version:  8
     \\/     M anipulation  |
\*---------------------------------------------------------------------------*/
FoamFile
{
    version     2.0;
    format      ascii;
    class       volScalarField;
    location    "16";
    object      p;
}
// * * * * * * * * * * * * * * * * * * * * * * * * * * * * * * * * * * * * * //

dimensions      [0 2 -2 0 0 0 0];

internalField   nonuniform List<scalar> 
464
(
-2.34114e-09
4.61301e-06
1.44137e-05
2.89058e-05
4.78528e-05
7.07774e-05
9.72475e-05
0.000126444
0.000158516
0.000190542
0.000227175
0.000256702
-4.60393e-06
1.05308e-07
1.01091e-05
2.49006e-05
4.42376e-05
6.76397e-05
9.46699e-05
0.000124523
0.000157318
0.000190237
0.000227902
0.000258827
-1.46144e-05
-9.69624e-06
7.51358e-07
1.61949e-05
3.63697e-05
6.07656e-05
8.88538e-05
0.000119875
0.000153394
0.000187889
0.000224278
0.00025782
-3.00002e-05
-2.47567e-05
-1.36212e-05
2.83665e-06
2.4325e-05
5.03076e-05
8.02206e-05
0.000113306
0.000149062
0.000186096
0.000225051
0.000261415
-5.12125e-05
-4.55156e-05
-3.34273e-05
-1.55639e-05
7.73324e-06
3.58807e-05
6.82256e-05
0.000103976
0.000142366
0.000182291
0.000223238
0.000263413
-7.87347e-05
-7.24375e-05
-5.9101e-05
-3.93876e-05
-1.37172e-05
1.72811e-05
5.28675e-05
9.2212e-05
0.000134481
0.000178594
0.000223885
0.000268457
-0.000113214
-0.000106153
-9.12474e-05
-6.91891e-05
-4.0536e-05
-5.95984e-06
3.366e-05
7.74287e-05
0.000124383
0.00017341
0.000223564
0.000273581
-0.00015565
-0.000147585
-0.000130715
-0.000105686
-7.33344e-05
-3.43209e-05
1.02598e-05
5.94656e-05
0.000112211
0.000167374
0.000223881
0.000280382
-0.000206437
-0.000197262
-0.000178134
-0.000149548
-0.00011276
-6.83755e-05
-1.78532e-05
3.78424e-05
9.74587e-05
0.000159823
0.000223755
0.000288011
-0.000269626
-0.000258431
-0.000236084
-0.000202384
-0.000160056
-0.000108962
-5.12942e-05
1.21226e-05
7.98276e-05
0.000150637
0.00022334
0.000296546
-0.000337964
-0.000325633
-0.000300543
-0.000262328
-0.000214333
-0.000155996
-9.03774e-05
-1.81119e-05
5.88863e-05
0.000139288
0.000221701
0.000305209
-0.000436324
-0.000418722
-0.000389062
-0.000339777
-0.000283252
-0.000213225
-0.00013701
-5.36978e-05
3.42455e-05
0.00012612
0.00022089
0.000316711
-0.000521611
-0.000504352
-0.000471086
-0.000416929
-0.000353516
-0.000274238
-0.000188212
-9.38413e-05
5.37242e-06
0.000108287
0.000213357
0.000320647
-0.00067957
-0.000645247
-0.000607674
-0.000527663
-0.00045344
-0.000352468
-0.000252465
-0.000141582
-2.75604e-05
9.11713e-05
0.000213536
0.000337724
-0.000780453
-0.000756027
-0.000710142
-0.000627816
-0.000541881
-0.000429284
-0.000316731
-0.000192233
-6.55611e-05
6.35726e-05
0.000194633
0.000329093
-0.00104947
-0.000960552
-0.000919605
-0.000775877
-0.000679135
-0.000527947
-0.000398429
-0.000250489
-0.000106218
4.35909e-05
0.000196983
0.000352786
-0.00116116
-0.00112656
-0.0010562
-0.000918663
-0.00079245
-0.000625554
-0.000476062
-0.000311304
-0.000154111
4.44823e-06
0.000161914
0.000325094
-0.00168959
-0.00137983
-0.00136015
-0.00108279
-0.0009545
-0.000731032
-0.000561616
-0.000370831
-0.000194248
-1.53992e-05
0.000163222
0.000348215
-0.00184723
-0.00178908
-0.00159867
-0.00136004
-0.00111319
-0.000868434
-0.000654537
-0.000441886
-0.000249384
-6.12683e-05
0.000119215
0.000304954
-0.00334482
-0.00189018
-0.00189782
-0.00141951
-0.00120284
-0.000920143
-0.00069458
-0.000474711
-0.000269296
-7.27837e-05
0.000117957
0.000312158
0.000299399
0.000319521
0.000341643
0.000356464
0.000369753
0.000379081
0.000385558
0.000388534
0.000303518
0.000325363
0.000349367
0.000365759
0.000380303
0.000390707
0.000397873
0.000401198
0.00029393
0.000322152
0.000349252
0.000370787
0.000388929
0.00040244
0.00041159
0.000415888
0.000300232
0.000331387
0.000361107
0.000385246
0.000405527
0.000420817
0.000431175
0.000436067
0.000303013
0.000339118
0.000372281
0.000400829
0.000424669
0.000442893
0.000455277
0.000461158
0.000312412
0.000352959
0.000390325
0.000422881
0.000450188
0.000471383
0.000485827
0.000492752
0.000322538
0.000368828
0.000411558
0.000449396
0.000481282
0.000506252
0.000523293
0.000531555
0.000335868
0.000388766
0.000437932
0.000481996
0.000519322
0.000549005
0.000569243
0.000579267
0.00035132
0.000412237
0.000469176
0.000520822
0.000564661
0.000600141
0.000624128
0.000636291
0.000369082
0.000439571
0.000506037
0.000567621
0.000620146
0.000664433
0.000693955
0.000709879
0.000388088
0.000469057
0.000545436
0.000617481
0.000678058
0.000731686
0.000765526
0.000785918
0.000412822
0.000508536
0.000600017
0.00069073
0.000765172
0.000838448
0.000881675
0.000911873
0.000428054
0.000536083
0.000636647
0.000742902
0.000822439
0.000914535
0.00095949
0.00100252
0.000463745
0.000595561
0.00071746
0.000859482
0.000963095
0.00109852
0.00116357
0.00123376
0.000462973
0.000608406
0.000729615
0.000896292
0.000988722
0.00116615
0.00121809
0.00133205
0.000509344
0.000689908
0.000843589
0.0010712
0.00121075
0.00148115
0.00158639
0.0017859
0.000478417
0.00067208
0.000796077
0.00106111
0.00113409
0.00149496
0.00152709
0.00188104
0.000527851
0.000759163
0.00093186
0.00128084
0.00144592
0.0019954
0.00217494
0.00284869
0.000464983
0.000703112
0.000791781
0.00118301
0.00112802
0.00182815
0.00166102
0.00276619
0.000493879
0.000743265
0.00089032
0.00133705
0.00145383
0.00244075
0.00279616
0.00534841
0.000356417
0.000356874
0.000357773
0.000358888
0.000360089
0.000361149
0.000361952
0.000362349
0.000356968
0.000357452
0.000358387
0.000359564
0.00036078
0.000361864
0.000362673
0.000363074
0.000354019
0.000354784
0.000356242
0.000357961
0.000359816
0.000361402
0.000362596
0.000363181
0.000355605
0.000356484
0.000358107
0.000360077
0.000362024
0.000363733
0.000364979
0.000365594
0.000348225
0.000350071
0.000353249
0.00035669
0.000360269
0.000363182
0.00036533
0.000366361
0.000350944
0.000353038
0.000356612
0.000360585
0.000364369
0.000367562
0.000369848
0.000370962
0.000334585
0.00034013
0.000348042
0.000355401
0.000362532
0.000367987
0.000371871
0.000373695
0.000338604
0.000344578
0.000353367
0.000361571
0.000369257
0.000375247
0.000379475
0.000381473
)
;

boundaryField
{
    movingWall
    {
        type            zeroGradient;
    }
    fixedWalls
    {
        type            zeroGradient;
    }
    frontAndBack
    {
        type            empty;
    }
}


// ************************************************************************* //
