/*--------------------------------*- C++ -*----------------------------------*\
  =========                 |
  \\      /  F ield         | OpenFOAM: The Open Source CFD Toolbox
   \\    /   O peration     | Website:  https://openfoam.org
    \\  /    A nd           | Version:  8
     \\/     M anipulation  |
\*---------------------------------------------------------------------------*/
FoamFile
{
    version     2.0;
    format      ascii;
    class       volVectorField;
    location    "0.61";
    object      U;
}
// * * * * * * * * * * * * * * * * * * * * * * * * * * * * * * * * * * * * * //

dimensions      [0 1 -1 0 0 0 0];

internalField   nonuniform List<vector> 
400
(
(0.0248256 6.51819e-08 0)
(0.0248255 1.01474e-07 0)
(0.0248254 9.71158e-08 0)
(0.0248252 9.37633e-08 0)
(0.024825 8.31623e-08 0)
(0.0248248 7.0137e-08 0)
(0.0248247 5.57536e-08 0)
(0.0248246 4.15733e-08 0)
(0.0248245 2.87225e-08 0)
(0.0248244 1.70803e-08 0)
(0.0248244 5.61901e-09 0)
(0.0248244 -6.92851e-09 0)
(0.0248244 -2.15345e-08 0)
(0.0248245 -3.86514e-08 0)
(0.0248246 -5.819e-08 0)
(0.0248247 -7.93722e-08 0)
(0.0248249 -9.98279e-08 0)
(0.0248252 -1.10939e-07 0)
(0.0248254 -9.6754e-08 0)
(0.0248256 -2.2612e-08 0)
(0.0744801 4.13966e-08 0)
(0.0744801 2.2815e-07 0)
(0.0744799 2.93662e-07 0)
(0.0744796 3.17641e-07 0)
(0.0744793 3.03078e-07 0)
(0.0744791 2.69627e-07 0)
(0.0744788 2.2618e-07 0)
(0.0744786 1.79287e-07 0)
(0.0744784 1.32535e-07 0)
(0.0744783 8.61314e-08 0)
(0.0744782 3.79634e-08 0)
(0.0744782 -1.492e-08 0)
(0.0744783 -7.49929e-08 0)
(0.0744784 -1.43295e-07 0)
(0.0744785 -2.18744e-07 0)
(0.0744787 -2.97017e-07 0)
(0.074479 -3.67965e-07 0)
(0.0744794 -4.04583e-07 0)
(0.0744797 -3.62531e-07 0)
(0.0744799 -1.78654e-07 0)
(0.124147 -1.08064e-08 0)
(0.124147 2.95692e-07 0)
(0.124147 4.88437e-07 0)
(0.124147 5.66652e-07 0)
(0.124146 5.6867e-07 0)
(0.124146 5.26038e-07 0)
(0.124146 4.57734e-07 0)
(0.124146 3.76325e-07 0)
(0.124146 2.88641e-07 0)
(0.124145 1.96559e-07 0)
(0.124145 9.8549e-08 0)
(0.124145 -8.52652e-09 0)
(0.124145 -1.27552e-07 0)
(0.124145 -2.59483e-07 0)
(0.124145 -4.01644e-07 0)
(0.124146 -5.44983e-07 0)
(0.124146 -6.69347e-07 0)
(0.124146 -7.31447e-07 0)
(0.124146 -6.59937e-07 0)
(0.124147 -4.03035e-07 0)
(0.173834 -1.2866e-07 0)
(0.173834 2.94098e-07 0)
(0.173834 5.77496e-07 0)
(0.173834 7.1532e-07 0)
(0.173834 7.49602e-07 0)
(0.173834 7.17274e-07 0)
(0.173834 6.42872e-07 0)
(0.173834 5.43095e-07 0)
(0.173834 4.27885e-07 0)
(0.173834 3.016e-07 0)
(0.173834 1.64502e-07 0)
(0.173833 1.45229e-08 0)
(0.173833 -1.50721e-07 0)
(0.173833 -3.31673e-07 0)
(0.173834 -5.24097e-07 0)
(0.173834 -7.14977e-07 0)
(0.173834 -8.76783e-07 0)
(0.173834 -9.57385e-07 0)
(0.173834 -8.76986e-07 0)
(0.173834 -5.78738e-07 0)
(0.223551 -2.26661e-07 0)
(0.223551 2.38141e-07 0)
(0.223551 5.73108e-07 0)
(0.223551 7.57633e-07 0)
(0.223551 8.26961e-07 0)
(0.223551 8.16339e-07 0)
(0.223551 7.51031e-07 0)
(0.223551 6.49575e-07 0)
(0.223551 5.24204e-07 0)
(0.223551 3.81511e-07 0)
(0.223551 2.23654e-07 0)
(0.22355 5.00007e-08 0)
(0.22355 -1.40849e-07 0)
(0.22355 -3.4864e-07 0)
(0.22355 -5.68267e-07 0)
(0.22355 -7.85004e-07 0)
(0.22355 -9.68162e-07 0)
(0.223551 -1.06339e-06 0)
(0.223551 -9.91509e-07 0)
(0.223551 -6.93959e-07 0)
(0.273303 -3.09989e-07 0)
(0.273303 1.45696e-07 0)
(0.273303 4.94801e-07 0)
(0.273303 7.05802e-07 0)
(0.273303 8.036e-07 0)
(0.273303 8.17969e-07 0)
(0.273303 7.71668e-07 0)
(0.273303 6.82772e-07 0)
(0.273303 5.64233e-07 0)
(0.273303 4.23944e-07 0)
(0.273303 2.65539e-07 0)
(0.273303 8.9741e-08 0)
(0.273303 -1.03828e-07 0)
(0.273303 -3.14327e-07 0)
(0.273303 -5.36594e-07 0)
(0.273303 -7.56501e-07 0)
(0.273303 -9.44712e-07 0)
(0.273303 -1.05087e-06 0)
(0.273303 -1.00284e-06 0)
(0.273303 -7.42394e-07 0)
(0.323097 -3.62719e-07 0)
(0.323097 3.93597e-08 0)
(0.323097 3.66578e-07 0)
(0.323097 5.80175e-07 0)
(0.323097 6.94342e-07 0)
(0.323097 7.31194e-07 0)
(0.323098 7.0877e-07 0)
(0.323098 6.42695e-07 0)
(0.323098 5.45026e-07 0)
(0.323098 4.23777e-07 0)
(0.323098 2.8331e-07 0)
(0.323098 1.25314e-07 0)
(0.323098 -4.97709e-08 0)
(0.323098 -2.40834e-07 0)
(0.323097 -4.43475e-07 0)
(0.323097 -6.45979e-07 0)
(0.323097 -8.23733e-07 0)
(0.323097 -9.34899e-07 0)
(0.323097 -9.19149e-07 0)
(0.323097 -7.21394e-07 0)
(0.372938 -3.77458e-07 0)
(0.372938 -6.43414e-08 0)
(0.372938 2.09031e-07 0)
(0.372938 4.01385e-07 0)
(0.372938 5.17372e-07 0)
(0.372938 5.70604e-07 0)
(0.372939 5.73036e-07 0)
(0.372939 5.36274e-07 0)
(0.372939 4.70035e-07 0)
(0.372939 3.81303e-07 0)
(0.372939 2.74355e-07 0)
(0.372939 1.51307e-07 0)
(0.372939 1.30374e-08 0)
(0.372939 -1.39524e-07 0)
(0.372939 -3.03514e-07 0)
(0.372939 -4.71003e-07 0)
(0.372938 -6.24404e-07 0)
(0.372938 -7.33443e-07 0)
(0.372938 -7.52816e-07 0)
(0.372938 -6.33908e-07 0)
(0.42283 -3.52258e-07 0)
(0.42283 -1.53315e-07 0)
(0.42283 4.05476e-08 0)
(0.42283 1.9078e-07 0)
(0.42283 2.94132e-07 0)
(0.42283 3.55799e-07 0)
(0.422831 3.81013e-07 0)
(0.422831 3.76326e-07 0)
(0.422831 3.48024e-07 0)
(0.422831 3.01093e-07 0)
(0.422831 2.38957e-07 0)
(0.422831 1.6359e-07 0)
(0.422831 7.58743e-08 0)
(0.422831 -2.38157e-08 0)
(0.422831 -1.34637e-07 0)
(0.422831 -2.53227e-07 0)
(0.42283 -3.70323e-07 0)
(0.42283 -4.69076e-07 0)
(0.42283 -5.21497e-07 0)
(0.42283 -4.88552e-07 0)
(0.472775 -2.89787e-07 0)
(0.472775 -2.19758e-07 0)
(0.472775 -1.23125e-07 0)
(0.472775 -3.09515e-08 0)
(0.472775 4.73733e-08 0)
(0.472776 1.09259e-07 0)
(0.472776 1.5315e-07 0)
(0.472776 1.80044e-07 0)
(0.472776 1.92104e-07 0)
(0.472777 1.91609e-07 0)
(0.472777 1.80504e-07 0)
(0.472777 1.60138e-07 0)
(0.472777 1.3106e-07 0)
(0.472777 9.28885e-08 0)
(0.472776 4.43422e-08 0)
(0.472776 -1.59338e-08 0)
(0.472776 -8.73636e-08 0)
(0.472776 -1.67272e-07 0)
(0.472775 -2.46567e-07 0)
(0.472775 -2.98519e-07 0)
(0.522775 -1.97214e-07 0)
(0.522775 -2.60401e-07 0)
(0.522775 -2.69734e-07 0)
(0.522775 -2.45229e-07 0)
(0.522776 -2.0067e-07 0)
(0.522776 -1.45605e-07 0)
(0.522776 -8.80047e-08 0)
(0.522776 -3.24854e-08 0)
(0.522777 1.86795e-08 0)
(0.522777 6.4651e-08 0)
(0.522777 1.055e-07 0)
(0.522777 1.41643e-07 0)
(0.522777 1.73147e-07 0)
(0.522777 1.98912e-07 0)
(0.522777 2.1579e-07 0)
(0.522776 2.18151e-07 0)
(0.522776 1.98353e-07 0)
(0.522776 1.45182e-07 0)
(0.522776 4.81094e-08 0)
(0.522775 -8.08647e-08 0)
(0.57283 -8.57516e-08 0)
(0.57283 -2.76309e-07 0)
(0.57283 -3.90847e-07 0)
(0.57283 -4.36331e-07 0)
(0.572831 -4.29447e-07 0)
(0.572831 -3.85853e-07 0)
(0.572831 -3.19301e-07 0)
(0.572831 -2.39734e-07 0)
(0.572832 -1.53817e-07 0)
(0.572832 -6.55843e-08 0)
(0.572832 2.30422e-08 0)
(0.572832 1.11474e-07 0)
(0.572832 1.99352e-07 0)
(0.572832 2.85134e-07 0)
(0.572832 3.64381e-07 0)
(0.572832 4.28123e-07 0)
(0.572831 4.61705e-07 0)
(0.572831 4.41266e-07 0)
(0.572831 3.37052e-07 0)
(0.57283 1.44298e-07 0)
(0.622939 3.02887e-08 0)
(0.622939 -2.72078e-07 0)
(0.622939 -4.81517e-07 0)
(0.622939 -5.9149e-07 0)
(0.622939 -6.20635e-07 0)
(0.622939 -5.89972e-07 0)
(0.622939 -5.18247e-07 0)
(0.62294 -4.2015e-07 0)
(0.62294 -3.06335e-07 0)
(0.62294 -1.83762e-07 0)
(0.62294 -5.61623e-08 0)
(0.62294 7.50322e-08 0)
(0.62294 2.09286e-07 0)
(0.62294 3.45083e-07 0)
(0.62294 4.77519e-07 0)
(0.62294 5.95601e-07 0)
(0.62294 6.79482e-07 0)
(0.62294 6.94776e-07 0)
(0.622939 5.9418e-07 0)
(0.622939 3.54875e-07 0)
(0.673098 1.34968e-07 0)
(0.673098 -2.54489e-07 0)
(0.673098 -5.39319e-07 0)
(0.673098 -7.00447e-07 0)
(0.673098 -7.58273e-07 0)
(0.673098 -7.38588e-07 0)
(0.673099 -6.64214e-07 0)
(0.673099 -5.53677e-07 0)
(0.673099 -4.20832e-07 0)
(0.673099 -2.74943e-07 0)
(0.673099 -1.21094e-07 0)
(0.673099 3.88062e-08 0)
(0.673099 2.04434e-07 0)
(0.673099 3.74878e-07 0)
(0.673099 5.45732e-07 0)
(0.673099 7.05535e-07 0)
(0.673099 8.31528e-07 0)
(0.673099 8.81766e-07 0)
(0.673099 7.94331e-07 0)
(0.673098 5.28351e-07 0)
(0.723304 2.12805e-07 0)
(0.723304 -2.30593e-07 0)
(0.723304 -5.62807e-07 0)
(0.723304 -7.54673e-07 0)
(0.723304 -8.28831e-07 0)
(0.723304 -8.15336e-07 0)
(0.723304 -7.39939e-07 0)
(0.723305 -6.23672e-07 0)
(0.723305 -4.82366e-07 0)
(0.723305 -3.26634e-07 0)
(0.723305 -1.62233e-07 0)
(0.723305 8.94214e-09 0)
(0.723305 1.87228e-07 0)
(0.723305 3.72882e-07 0)
(0.723305 5.6293e-07 0)
(0.723305 7.4703e-07 0)
(0.723305 9.02051e-07 0)
(0.723305 9.82231e-07 0)
(0.723305 9.15163e-07 0)
(0.723304 6.4397e-07 0)
(0.773552 2.51552e-07 0)
(0.773552 -2.05391e-07 0)
(0.773552 -5.49458e-07 0)
(0.773552 -7.46293e-07 0)
(0.773552 -8.21313e-07 0)
(0.773552 -8.07998e-07 0)
(0.773552 -7.3336e-07 0)
(0.773552 -6.19108e-07 0)
(0.773552 -4.81421e-07 0)
(0.773552 -3.31038e-07 0)
(0.773552 -1.73569e-07 0)
(0.773552 -1.03645e-08 0)
(0.773552 1.59952e-07 0)
(0.773552 3.39205e-07 0)
(0.773552 5.26515e-07 0)
(0.773552 7.14009e-07 0)
(0.773552 8.8076e-07 0)
(0.773552 9.8154e-07 0)
(0.773552 9.39083e-07 0)
(0.773552 6.8494e-07 0)
(0.823836 2.44236e-07 0)
(0.823836 -1.78992e-07 0)
(0.823836 -4.92912e-07 0)
(0.823836 -6.65723e-07 0)
(0.823836 -7.25673e-07 0)
(0.823835 -7.07655e-07 0)
(0.823835 -6.37339e-07 0)
(0.823835 -5.34661e-07 0)
(0.823835 -4.14195e-07 0)
(0.823835 -2.85421e-07 0)
(0.823835 -1.52952e-07 0)
(0.823835 -1.71583e-08 0)
(0.823835 1.24518e-07 0)
(0.823835 2.75478e-07 0)
(0.823835 4.37082e-07 0)
(0.823835 6.04738e-07 0)
(0.823835 7.62057e-07 0)
(0.823835 8.69148e-07 0)
(0.823836 8.52043e-07 0)
(0.823836 6.37653e-07 0)
(0.874148 1.87552e-07 0)
(0.874148 -1.48314e-07 0)
(0.874148 -3.87924e-07 0)
(0.874148 -5.09043e-07 0)
(0.874147 -5.41881e-07 0)
(0.874147 -5.18406e-07 0)
(0.874147 -4.59169e-07 0)
(0.874147 -3.79297e-07 0)
(0.874147 -2.89649e-07 0)
(0.874147 -1.97227e-07 0)
(0.874146 -1.05098e-07 0)
(0.874146 -1.25472e-08 0)
(0.874146 8.39025e-08 0)
(0.874146 1.88545e-07 0)
(0.874147 3.04061e-07 0)
(0.874147 4.28834e-07 0)
(0.874147 5.52936e-07 0)
(0.874147 6.4746e-07 0)
(0.874148 6.52691e-07 0)
(0.874148 4.98972e-07 0)
(0.924481 1.02142e-07 0)
(0.924481 -9.7585e-08 0)
(0.924481 -2.27226e-07 0)
(0.92448 -2.83645e-07 0)
(0.92448 -2.89917e-07 0)
(0.92448 -2.68755e-07 0)
(0.92448 -2.31651e-07 0)
(0.924479 -1.8655e-07 0)
(0.924479 -1.39028e-07 0)
(0.924479 -9.26272e-08 0)
(0.924479 -4.86115e-08 0)
(0.924479 -5.76697e-09 0)
(0.924479 3.90305e-08 0)
(0.924479 8.92734e-08 0)
(0.924479 1.47083e-07 0)
(0.924479 2.12457e-07 0)
(0.92448 2.82413e-07 0)
(0.92448 3.42474e-07 0)
(0.92448 3.60269e-07 0)
(0.924481 2.78398e-07 0)
(0.974826 2.13782e-08 0)
(0.974826 -3.91097e-08 0)
(0.974826 -7.1349e-08 0)
(0.974825 -8.05726e-08 0)
(0.974825 -7.67026e-08 0)
(0.974825 -6.73833e-08 0)
(0.974825 -5.55037e-08 0)
(0.974825 -4.27751e-08 0)
(0.974825 -3.03996e-08 0)
(0.974825 -1.92053e-08 0)
(0.974825 -9.41044e-09 0)
(0.974825 -3.77502e-10 0)
(0.974825 9.20314e-09 0)
(0.974825 2.06508e-08 0)
(0.974825 3.46475e-08 0)
(0.974825 5.13832e-08 0)
(0.974825 7.10023e-08 0)
(0.974825 9.05259e-08 0)
(0.974825 1.00834e-07 0)
(0.974826 8.06138e-08 0)
)
;

boundaryField
{
    movingWall
    {
        type            fixedValue;
        value           uniform (1 0 0);
    }
    fixedWalls
    {
        type            noSlip;
    }
    left
    {
        type            cyclic;
    }
    right
    {
        type            cyclic;
    }
    frontAndBack
    {
        type            empty;
    }
}


// ************************************************************************* //
