/*--------------------------------*- C++ -*----------------------------------*\
  =========                 |
  \\      /  F ield         | OpenFOAM: The Open Source CFD Toolbox
   \\    /   O peration     | Website:  https://openfoam.org
    \\  /    A nd           | Version:  8
     \\/     M anipulation  |
\*---------------------------------------------------------------------------*/
FoamFile
{
    version     2.0;
    format      ascii;
    class       volScalarField;
    location    "1.41";
    object      p;
}
// * * * * * * * * * * * * * * * * * * * * * * * * * * * * * * * * * * * * * //

dimensions      [0 2 -2 0 0 0 0];

internalField   nonuniform List<scalar> 
400
(
4.43213e-15
9.73699e-14
2.22325e-13
3.56272e-13
4.78559e-13
5.69932e-13
6.30419e-13
6.55551e-13
6.47536e-13
6.0423e-13
5.32976e-13
4.42437e-13
3.40302e-13
2.36858e-13
1.37705e-13
5.47769e-14
-9.31956e-15
-4.64898e-14
-5.95401e-14
-4.44188e-14
8.59834e-14
1.49587e-13
2.36276e-13
3.31524e-13
4.17057e-13
4.91311e-13
5.41739e-13
5.74701e-13
5.77929e-13
5.55366e-13
5.08549e-13
4.45601e-13
3.73682e-13
2.93955e-13
2.19374e-13
1.49766e-13
9.87879e-14
6.215e-14
5.00334e-14
5.63868e-14
1.28282e-13
1.66966e-13
2.27491e-13
2.95072e-13
3.67494e-13
4.28305e-13
4.86939e-13
5.25024e-13
5.46067e-13
5.39115e-13
5.14311e-13
4.74955e-13
4.21594e-13
3.62642e-13
2.94926e-13
2.36372e-13
1.80432e-13
1.4339e-13
1.17825e-13
1.13765e-13
1.48861e-13
1.72823e-13
2.14607e-13
2.74271e-13
3.33871e-13
4.03318e-13
4.60045e-13
5.12594e-13
5.3879e-13
5.4862e-13
5.37819e-13
5.12799e-13
4.74992e-13
4.19155e-13
3.61394e-13
2.94714e-13
2.40544e-13
1.89208e-13
1.60626e-13
1.43638e-13
1.65386e-13
1.82756e-13
2.19844e-13
2.68364e-13
3.35201e-13
3.97367e-13
4.64372e-13
5.11692e-13
5.49914e-13
5.62857e-13
5.62417e-13
5.44521e-13
5.07706e-13
4.59341e-13
3.92735e-13
3.3155e-13
2.65155e-13
2.1761e-13
1.78727e-13
1.6541e-13
1.90147e-13
2.09952e-13
2.42924e-13
2.96018e-13
3.54005e-13
4.22029e-13
4.75717e-13
5.28972e-13
5.57668e-13
5.75567e-13
5.70626e-13
5.50219e-13
5.1301e-13
4.55929e-13
3.95324e-13
3.24307e-13
2.69739e-13
2.18106e-13
1.93307e-13
1.81664e-13
2.26049e-13
2.54152e-13
2.92783e-13
3.40381e-13
4.01321e-13
4.53122e-13
5.07932e-13
5.41993e-13
5.69209e-13
5.70443e-13
5.59024e-13
5.28306e-13
4.82088e-13
4.26041e-13
3.58114e-13
3.00751e-13
2.4618e-13
2.18836e-13
2.01726e-13
2.10911e-13
2.76054e-13
3.109e-13
3.53934e-13
4.05185e-13
4.5369e-13
5.04376e-13
5.36692e-13
5.64858e-13
5.6656e-13
5.57898e-13
5.257e-13
4.84559e-13
4.31989e-13
3.704e-13
3.12223e-13
2.56214e-13
2.26228e-13
2.09251e-13
2.22069e-13
2.41696e-13
3.22116e-13
3.70173e-13
4.18686e-13
4.66841e-13
5.1378e-13
5.46226e-13
5.7179e-13
5.72365e-13
5.63985e-13
5.29661e-13
4.87347e-13
4.30981e-13
3.72288e-13
3.13874e-13
2.57519e-13
2.21365e-13
2.00261e-13
2.11734e-13
2.35296e-13
2.79638e-13
3.64908e-13
4.17056e-13
4.71541e-13
5.18961e-13
5.55905e-13
5.80801e-13
5.83441e-13
5.75552e-13
5.43006e-13
5.02681e-13
4.43734e-13
3.8426e-13
3.21511e-13
2.66129e-13
2.2232e-13
1.94248e-13
1.95648e-13
2.1407e-13
2.58966e-13
3.06771e-13
3.95835e-13
4.55823e-13
5.06943e-13
5.5122e-13
5.80558e-13
5.89651e-13
5.83616e-13
5.56756e-13
5.22782e-13
4.69791e-13
4.14769e-13
3.50423e-13
2.94599e-13
2.44587e-13
2.10041e-13
1.97562e-13
2.04838e-13
2.39374e-13
2.82744e-13
3.42002e-13
4.32705e-13
4.82552e-13
5.31864e-13
5.65101e-13
5.84311e-13
5.83676e-13
5.64359e-13
5.37067e-13
4.95074e-13
4.50582e-13
3.93909e-13
3.41916e-13
2.9054e-13
2.53649e-13
2.28453e-13
2.23514e-13
2.41522e-13
2.74315e-13
3.24982e-13
3.75747e-13
4.63439e-13
5.08695e-13
5.4122e-13
5.66811e-13
5.7205e-13
5.63568e-13
5.42212e-13
5.10768e-13
4.77335e-13
4.33486e-13
3.92175e-13
3.44174e-13
3.09599e-13
2.80306e-13
2.67102e-13
2.68884e-13
2.88199e-13
3.24412e-13
3.68002e-13
4.21153e-13
4.93505e-13
5.17843e-13
5.42738e-13
5.5133e-13
5.5228e-13
5.38594e-13
5.17881e-13
4.91178e-13
4.59122e-13
4.27763e-13
3.90156e-13
3.60362e-13
3.30632e-13
3.16298e-13
3.08982e-13
3.17019e-13
3.37438e-13
3.69301e-13
4.13088e-13
4.54384e-13
4.99185e-13
5.18128e-13
5.25709e-13
5.31931e-13
5.25943e-13
5.16852e-13
4.99643e-13
4.76254e-13
4.50968e-13
4.20824e-13
3.96201e-13
3.69643e-13
3.56179e-13
3.44815e-13
3.46988e-13
3.54326e-13
3.74783e-13
4.0314e-13
4.38537e-13
4.75968e-13
4.87251e-13
4.95686e-13
5.05247e-13
5.07098e-13
5.10546e-13
5.04699e-13
4.94639e-13
4.74563e-13
4.48858e-13
4.23662e-13
3.9843e-13
3.82278e-13
3.6842e-13
3.66978e-13
3.66834e-13
3.77521e-13
3.92554e-13
4.14739e-13
4.42365e-13
4.66837e-13
4.51584e-13
4.67694e-13
4.80206e-13
4.96764e-13
5.05485e-13
5.12233e-13
5.04546e-13
4.86674e-13
4.60197e-13
4.31161e-13
4.07818e-13
3.86496e-13
3.77376e-13
3.7032e-13
3.72803e-13
3.76342e-13
3.87847e-13
4.01833e-13
4.1848e-13
4.37573e-13
4.12668e-13
4.37369e-13
4.69306e-13
4.9595e-13
5.20441e-13
5.31725e-13
5.29593e-13
5.09778e-13
4.78852e-13
4.45313e-13
4.12945e-13
3.89411e-13
3.7095e-13
3.62545e-13
3.55388e-13
3.56655e-13
3.60522e-13
3.69994e-13
3.7982e-13
3.92656e-13
3.81735e-13
4.22416e-13
4.68612e-13
5.14133e-13
5.46382e-13
5.65138e-13
5.61084e-13
5.38346e-13
4.9978e-13
4.56379e-13
4.16567e-13
3.81082e-13
3.56343e-13
3.36376e-13
3.25606e-13
3.19391e-13
3.21293e-13
3.27117e-13
3.37924e-13
3.55537e-13
3.69736e-13
4.22609e-13
4.84237e-13
5.40559e-13
5.83726e-13
6.03171e-13
5.98242e-13
5.67961e-13
5.19552e-13
4.66204e-13
4.15297e-13
3.70087e-13
3.32512e-13
3.05301e-13
2.8605e-13
2.78087e-13
2.79458e-13
2.88147e-13
3.0451e-13
3.30487e-13
)
;

boundaryField
{
    movingWall
    {
        type            zeroGradient;
    }
    fixedWalls
    {
        type            zeroGradient;
    }
    left
    {
        type            cyclic;
    }
    right
    {
        type            cyclic;
    }
    frontAndBack
    {
        type            empty;
    }
}


// ************************************************************************* //
