/*--------------------------------*- C++ -*----------------------------------*\
  =========                 |
  \\      /  F ield         | OpenFOAM: The Open Source CFD Toolbox
   \\    /   O peration     | Website:  https://openfoam.org
    \\  /    A nd           | Version:  8
     \\/     M anipulation  |
\*---------------------------------------------------------------------------*/
FoamFile
{
    version     2.0;
    format      ascii;
    class       volVectorField;
    location    "0.34";
    object      U;
}
// * * * * * * * * * * * * * * * * * * * * * * * * * * * * * * * * * * * * * //

dimensions      [0 1 -1 0 0 0 0];

internalField   nonuniform List<vector> 
400
(
(0.0229389 -9.09421e-08 0)
(0.0229389 6.54026e-09 0)
(0.0229387 8.39708e-08 0)
(0.0229385 1.04793e-07 0)
(0.0229383 1.09732e-07 0)
(0.022938 1.05474e-07 0)
(0.0229378 9.52481e-08 0)
(0.0229376 8.22249e-08 0)
(0.0229374 6.82399e-08 0)
(0.0229373 5.31829e-08 0)
(0.0229372 3.58898e-08 0)
(0.0229371 1.5224e-08 0)
(0.0229371 -9.50037e-09 0)
(0.0229372 -3.84326e-08 0)
(0.0229373 -7.13904e-08 0)
(0.0229375 -1.07574e-07 0)
(0.0229378 -1.44469e-07 0)
(0.0229381 -1.72791e-07 0)
(0.0229384 -1.73358e-07 0)
(0.0229387 -1.5491e-07 0)
(0.0688659 -1.3816e-07 0)
(0.0688659 1.21424e-07 0)
(0.0688657 3.24688e-07 0)
(0.0688654 4.01699e-07 0)
(0.068865 4.22779e-07 0)
(0.0688647 4.10231e-07 0)
(0.0688643 3.75406e-07 0)
(0.068864 3.27176e-07 0)
(0.0688637 2.70604e-07 0)
(0.0688635 2.06362e-07 0)
(0.0688633 1.32499e-07 0)
(0.0688632 4.66833e-08 0)
(0.0688632 -5.23564e-08 0)
(0.0688634 -1.64066e-07 0)
(0.0688636 -2.85571e-07 0)
(0.0688639 -4.10106e-07 0)
(0.0688643 -5.2343e-07 0)
(0.0688648 -5.91327e-07 0)
(0.0688653 -5.56538e-07 0)
(0.0688657 -4.14607e-07 0)
(0.114943 -2.44971e-07 0)
(0.114943 2.43639e-07 0)
(0.114943 5.59371e-07 0)
(0.114943 7.19359e-07 0)
(0.114942 7.77634e-07 0)
(0.114942 7.69673e-07 0)
(0.114942 7.16185e-07 0)
(0.114942 6.31667e-07 0)
(0.114941 5.24489e-07 0)
(0.114941 3.97468e-07 0)
(0.114941 2.49924e-07 0)
(0.114941 8.02117e-08 0)
(0.114941 -1.12094e-07 0)
(0.114941 -3.24628e-07 0)
(0.114941 -5.50378e-07 0)
(0.114941 -7.74081e-07 0)
(0.114942 -9.65889e-07 0)
(0.114942 -1.06779e-06 0)
(0.114943 -9.91611e-07 0)
(0.114943 -6.86411e-07 0)
(0.161267 -3.30858e-07 0)
(0.161267 2.50438e-07 0)
(0.161268 6.70081e-07 0)
(0.161267 9.06669e-07 0)
(0.161267 1.011e-06 0)
(0.161267 1.02353e-06 0)
(0.161267 9.69749e-07 0)
(0.161267 8.67399e-07 0)
(0.161267 7.2771e-07 0)
(0.161266 5.56224e-07 0)
(0.161266 3.54596e-07 0)
(0.161266 1.22947e-07 0)
(0.161266 -1.37691e-07 0)
(0.161266 -4.23017e-07 0)
(0.161266 -7.22385e-07 0)
(0.161266 -1.01401e-06 0)
(0.161267 -1.25752e-06 0)
(0.161267 -1.38182e-06 0)
(0.161267 -1.28701e-06 0)
(0.161267 -9.0945e-07 0)
(0.20793 -4.5156e-07 0)
(0.20793 1.73434e-07 0)
(0.20793 6.49779e-07 0)
(0.20793 9.42445e-07 0)
(0.20793 1.09173e-06 0)
(0.20793 1.13507e-06 0)
(0.20793 1.09807e-06 0)
(0.20793 9.997e-07 0)
(0.20793 8.52885e-07 0)
(0.20793 6.65093e-07 0)
(0.20793 4.39932e-07 0)
(0.20793 1.79278e-07 0)
(0.207929 -1.14398e-07 0)
(0.207929 -4.35332e-07 0)
(0.207929 -7.70878e-07 0)
(0.207929 -1.09634e-06 0)
(0.207929 -1.36773e-06 0)
(0.207929 -1.51203e-06 0)
(0.20793 -1.42879e-06 0)
(0.20793 -1.05214e-06 0)
(0.255012 -5.45486e-07 0)
(0.255012 4.88665e-08 0)
(0.255012 5.27106e-07 0)
(0.255013 8.43499e-07 0)
(0.255013 1.024e-06 0)
(0.255013 1.09862e-06 0)
(0.255013 1.08939e-06 0)
(0.255013 1.01379e-06 0)
(0.255013 8.84487e-07 0)
(0.255013 7.0958e-07 0)
(0.255013 4.93749e-07 0)
(0.255013 2.39879e-07 0)
(0.255013 -4.89033e-08 0)
(0.255013 -3.66564e-07 0)
(0.255013 -7.00589e-07 0)
(0.255012 -1.02701e-06 0)
(0.255012 -1.30394e-06 0)
(0.255012 -1.46432e-06 0)
(0.255012 -1.41622e-06 0)
(0.255012 -1.09299e-06 0)
(0.302586 -5.94658e-07 0)
(0.302587 -8.98531e-08 0)
(0.302587 3.39599e-07 0)
(0.302587 6.43679e-07 0)
(0.302587 8.34483e-07 0)
(0.302587 9.32729e-07 0)
(0.302588 9.54551e-07 0)
(0.302588 9.13738e-07 0)
(0.302588 8.20929e-07 0)
(0.302588 6.83383e-07 0)
(0.302588 5.05626e-07 0)
(0.302588 2.90574e-07 0)
(0.302588 4.11149e-08 0)
(0.302588 -2.37675e-07 0)
(0.302588 -5.35524e-07 0)
(0.302588 -8.32553e-07 0)
(0.302587 -1.0936e-06 0)
(0.302587 -1.26319e-06 0)
(0.302587 -1.26447e-06 0)
(0.302587 -1.03253e-06 0)
(0.350713 -5.88082e-07 0)
(0.350713 -2.19071e-07 0)
(0.350713 1.18418e-07 0)
(0.350713 3.75754e-07 0)
(0.350714 5.53674e-07 0)
(0.350714 6.63299e-07 0)
(0.350714 7.13707e-07 0)
(0.350714 7.13569e-07 0)
(0.350715 6.69999e-07 0)
(0.350715 5.8803e-07 0)
(0.350715 4.70857e-07 0)
(0.350715 3.20454e-07 0)
(0.350715 1.38553e-07 0)
(0.350715 -7.18437e-08 0)
(0.350714 -3.04311e-07 0)
(0.350714 -5.45514e-07 0)
(0.350714 -7.70389e-07 0)
(0.350714 -9.39033e-07 0)
(0.350713 -9.94307e-07 0)
(0.350713 -8.77041e-07 0)
(0.399437 -5.21637e-07 0)
(0.399437 -3.20051e-07 0)
(0.399437 -1.0753e-07 0)
(0.399437 7.3924e-08 0)
(0.399438 2.16846e-07 0)
(0.399438 3.23504e-07 0)
(0.399438 3.95742e-07 0)
(0.399439 4.36357e-07 0)
(0.399439 4.47939e-07 0)
(0.399439 4.32257e-07 0)
(0.399439 3.90238e-07 0)
(0.399439 3.22102e-07 0)
(0.399439 2.27683e-07 0)
(0.399439 1.07109e-07 0)
(0.399439 -3.80319e-08 0)
(0.399439 -2.02339e-07 0)
(0.399438 -3.72893e-07 0)
(0.399438 -5.27844e-07 0)
(0.399437 -6.32925e-07 0)
(0.399437 -6.39242e-07 0)
(0.448791 -3.99335e-07 0)
(0.448791 -3.81252e-07 0)
(0.448791 -3.14619e-07 0)
(0.448791 -2.30118e-07 0)
(0.448791 -1.40287e-07 0)
(0.448792 -5.04427e-08 0)
(0.448792 3.4459e-08 0)
(0.448792 1.11219e-07 0)
(0.448793 1.77464e-07 0)
(0.448793 2.31112e-07 0)
(0.448793 2.70217e-07 0)
(0.448793 2.9272e-07 0)
(0.448793 2.96141e-07 0)
(0.448793 2.77413e-07 0)
(0.448793 2.3299e-07 0)
(0.448793 1.59942e-07 0)
(0.448792 5.82861e-08 0)
(0.448792 -6.93257e-08 0)
(0.448791 -2.13289e-07 0)
(0.448791 -3.39114e-07 0)
(0.49879 -2.33151e-07 0)
(0.49879 -3.99298e-07 0)
(0.49879 -4.86329e-07 0)
(0.49879 -5.09784e-07 0)
(0.49879 -4.84718e-07 0)
(0.498791 -4.2265e-07 0)
(0.498791 -3.34541e-07 0)
(0.498791 -2.29235e-07 0)
(0.498792 -1.14031e-07 0)
(0.498792 4.99801e-09 0)
(0.498792 1.22832e-07 0)
(0.498792 2.34977e-07 0)
(0.498792 3.36621e-07 0)
(0.498792 4.21684e-07 0)
(0.498792 4.81876e-07 0)
(0.498792 5.06472e-07 0)
(0.498791 4.83058e-07 0)
(0.498791 3.95319e-07 0)
(0.49879 2.27714e-07 0)
(0.49879 -3.02423e-09 0)
(0.549434 -4.17591e-08 0)
(0.549434 -3.78592e-07 0)
(0.549434 -6.13447e-07 0)
(0.549434 -7.44641e-07 0)
(0.549435 -7.8796e-07 0)
(0.549435 -7.59881e-07 0)
(0.549435 -6.76424e-07 0)
(0.549436 -5.51434e-07 0)
(0.549436 -3.96717e-07 0)
(0.549436 -2.22078e-07 0)
(0.549436 -3.54059e-08 0)
(0.549436 1.56607e-07 0)
(0.549436 3.47205e-07 0)
(0.549436 5.27935e-07 0)
(0.549436 6.86773e-07 0)
(0.549436 8.06568e-07 0)
(0.549436 8.64064e-07 0)
(0.549435 8.2559e-07 0)
(0.549435 6.51411e-07 0)
(0.549435 3.37922e-07 0)
(0.600709 1.51408e-07 0)
(0.600709 -3.29672e-07 0)
(0.600709 -6.93095e-07 0)
(0.600709 -9.20216e-07 0)
(0.600709 -1.02661e-06 0)
(0.600709 -1.0328e-06 0)
(0.600709 -9.589e-07 0)
(0.600709 -8.22926e-07 0)
(0.60071 -6.40469e-07 0)
(0.60071 -4.24443e-07 0)
(0.60071 -1.85051e-07 0)
(0.60071 6.94063e-08 0)
(0.60071 3.30958e-07 0)
(0.60071 5.89812e-07 0)
(0.60071 8.31694e-07 0)
(0.60071 1.03508e-06 0)
(0.60071 1.16843e-06 0)
(0.60071 1.18367e-06 0)
(0.600709 1.01939e-06 0)
(0.600709 6.50007e-07 0)
(0.652581 3.20557e-07 0)
(0.652581 -2.66832e-07 0)
(0.652581 -7.2718e-07 0)
(0.652581 -1.0272e-06 0)
(0.652581 -1.18235e-06 0)
(0.652581 -1.21679e-06 0)
(0.652582 -1.15378e-06 0)
(0.652582 -1.01446e-06 0)
(0.652582 -8.17215e-07 0)
(0.652582 -5.77135e-07 0)
(0.652582 -3.05894e-07 0)
(0.652582 -1.25549e-08 0)
(0.652582 2.94677e-07 0)
(0.652582 6.05957e-07 0)
(0.652582 9.06565e-07 0)
(0.652582 1.17312e-06 0)
(0.652582 1.36913e-06 0)
(0.652582 1.43631e-06 0)
(0.652582 1.29565e-06 0)
(0.652581 8.99487e-07 0)
(0.705006 4.40551e-07 0)
(0.705006 -2.05172e-07 0)
(0.705006 -7.20188e-07 0)
(0.705006 -1.06023e-06 0)
(0.705006 -1.24198e-06 0)
(0.705006 -1.29313e-06 0)
(0.705006 -1.23914e-06 0)
(0.705006 -1.10293e-06 0)
(0.705006 -9.04345e-07 0)
(0.705006 -6.59484e-07 0)
(0.705006 -3.80442e-07 0)
(0.705006 -7.60413e-08 0)
(0.705006 2.4639e-07 0)
(0.705007 5.78327e-07 0)
(0.705007 9.06473e-07 0)
(0.705007 1.20828e-06 0)
(0.705007 1.44613e-06 0)
(0.705007 1.55679e-06 0)
(0.705007 1.44897e-06 0)
(0.705006 1.05572e-06 0)
(0.757924 4.91019e-07 0)
(0.757924 -1.56896e-07 0)
(0.757924 -6.75668e-07 0)
(0.757924 -1.01572e-06 0)
(0.757924 -1.19673e-06 0)
(0.757923 -1.24983e-06 0)
(0.757923 -1.20126e-06 0)
(0.757923 -1.07406e-06 0)
(0.757923 -8.87881e-07 0)
(0.757923 -6.58465e-07 0)
(0.757923 -3.97171e-07 0)
(0.757923 -1.11513e-07 0)
(0.757923 1.93131e-07 0)
(0.757923 5.10765e-07 0)
(0.757923 8.31119e-07 0)
(0.757923 1.13495e-06 0)
(0.757924 1.38752e-06 0)
(0.757924 1.52659e-06 0)
(0.757924 1.45566e-06 0)
(0.757924 1.09454e-06 0)
(0.811262 4.60547e-07 0)
(0.811262 -1.26446e-07 0)
(0.811262 -5.9052e-07 0)
(0.811262 -8.86228e-07 0)
(0.811262 -1.03754e-06 0)
(0.811261 -1.07779e-06 0)
(0.811261 -1.03174e-06 0)
(0.811261 -9.2029e-07 0)
(0.811261 -7.61006e-07 0)
(0.811261 -5.6772e-07 0)
(0.811261 -3.49877e-07 0)
(0.81126 -1.12732e-07 0)
(0.811261 1.41085e-07 0)
(0.811261 4.08878e-07 0)
(0.811261 6.84409e-07 0)
(0.811261 9.53618e-07 0)
(0.811261 1.18839e-06 0)
(0.811261 1.33395e-06 0)
(0.811262 1.29874e-06 0)
(0.811262 9.9794e-07 0)
(0.864939 3.44993e-07 0)
(0.864939 -1.12163e-07 0)
(0.864939 -4.61062e-07 0)
(0.864938 -6.70028e-07 0)
(0.864938 -7.67486e-07 0)
(0.864938 -7.84988e-07 0)
(0.864937 -7.42315e-07 0)
(0.864937 -6.55214e-07 0)
(0.864937 -5.36992e-07 0)
(0.864937 -3.98248e-07 0)
(0.864936 -2.45703e-07 0)
(0.864936 -8.18213e-08 0)
(0.864936 9.38034e-08 0)
(0.864937 2.81672e-07 0)
(0.864937 4.79228e-07 0)
(0.864937 6.77998e-07 0)
(0.864937 8.59633e-07 0)
(0.864938 9.84365e-07 0)
(0.864938 9.78945e-07 0)
(0.864938 7.63152e-07 0)
(0.918863 1.81537e-07 0)
(0.918863 -8.42439e-08 0)
(0.918863 -2.70898e-07 0)
(0.918863 -3.71198e-07 0)
(0.918862 -4.08821e-07 0)
(0.918862 -4.07011e-07 0)
(0.918862 -3.76829e-07 0)
(0.918861 -3.26485e-07 0)
(0.918861 -2.62999e-07 0)
(0.918861 -1.92144e-07 0)
(0.918861 -1.17286e-07 0)
(0.91886 -3.8642e-08 0)
(0.91886 4.58891e-08 0)
(0.918861 1.38344e-07 0)
(0.918861 2.38198e-07 0)
(0.918861 3.41761e-07 0)
(0.918861 4.41817e-07 0)
(0.918862 5.18208e-07 0)
(0.918862 5.31508e-07 0)
(0.918863 4.16091e-07 0)
(0.972938 4.10113e-08 0)
(0.972938 -3.80004e-08 0)
(0.972938 -8.46043e-08 0)
(0.972938 -1.04059e-07 0)
(0.972937 -1.0726e-07 0)
(0.972937 -1.02096e-07 0)
(0.972937 -9.12497e-08 0)
(0.972937 -7.64157e-08 0)
(0.972936 -5.92648e-08 0)
(0.972936 -4.14232e-08 0)
(0.972936 -2.3778e-08 0)
(0.972936 -5.9606e-09 0)
(0.972936 1.33363e-08 0)
(0.972936 3.52787e-08 0)
(0.972936 5.98755e-08 0)
(0.972937 8.62498e-08 0)
(0.972937 1.13514e-07 0)
(0.972937 1.37372e-07 0)
(0.972937 1.46685e-07 0)
(0.972938 1.17389e-07 0)
)
;

boundaryField
{
    movingWall
    {
        type            fixedValue;
        value           uniform (1 0 0);
    }
    fixedWalls
    {
        type            noSlip;
    }
    left
    {
        type            cyclic;
    }
    right
    {
        type            cyclic;
    }
    frontAndBack
    {
        type            empty;
    }
}


// ************************************************************************* //
