/*--------------------------------*- C++ -*----------------------------------*\
  =========                 |
  \\      /  F ield         | OpenFOAM: The Open Source CFD Toolbox
   \\    /   O peration     | Website:  https://openfoam.org
    \\  /    A nd           | Version:  8
     \\/     M anipulation  |
\*---------------------------------------------------------------------------*/
FoamFile
{
    version     2.0;
    format      ascii;
    class       volScalarField;
    location    "16";
    object      p;
}
// * * * * * * * * * * * * * * * * * * * * * * * * * * * * * * * * * * * * * //

dimensions      [0 2 -2 0 0 0 0];

internalField   nonuniform List<scalar> 
116
(
-8.35721e-09
-0.000680716
-0.000251258
-0.00304751
-0.000779914
-0.00866339
0.000388989
-5.93455e-05
0.000301926
-0.00158623
-0.000896307
-0.00133166
0.000395519
0.000133812
0.000212058
-0.00065912
-0.00112153
-0.00309015
0.000592685
0.000463239
0.000361168
-9.05868e-05
-0.00109901
-0.00219492
0.000526444
0.000421684
0.000231295
1.50063e-05
-0.00131307
-0.00210277
0.000211363
0.000325403
7.04959e-05
0.000245544
-0.000788358
-0.000951421
0.000573522
0.000258305
3.40015e-05
-9.27845e-05
-0.000897168
-0.000934804
-0.000522606
4.68835e-05
0.000124122
0.000746398
0.000477386
0.000591237
0.00115592
-0.000516151
0.000156543
-0.000246324
-0.000376191
-0.000525544
-0.00597197
0.0011421
0.00152198
0.00200251
0.00175754
0.00196542
-0.00252162
0.0069247
0.00535465
0.00896639
-0.00580512
-0.00212203
-0.00128318
0.00269447
-0.007812
-0.0081167
-0.00528368
-0.00218276
-0.00751652
-0.00876919
-0.0071355
-0.00427394
-0.00600159
-0.00714666
-0.00682777
-0.00370685
-0.00335683
-0.00300651
-0.00440317
-0.00141096
-0.0028664
-0.00240199
-0.00475355
0.00127159
0.000198874
0.000223758
-0.000519159
0.00764964
-0.00222852
-0.00192738
-0.00258526
0.0123224
0.00197142
0.00646666
0.0155896
0.0502415
0.0178909
0.0178662
0.0180462
0.0200047
0.0174159
0.0177611
0.0168101
0.0184166
0.0144316
0.0141475
0.0145399
0.0149643
0.00807583
0.01437
0.0127644
0.0133922
)
;

boundaryField
{
    movingWall
    {
        type            zeroGradient;
    }
    fixedWalls
    {
        type            zeroGradient;
    }
    frontAndBack
    {
        type            empty;
    }
}


// ************************************************************************* //
