/*--------------------------------*- C++ -*----------------------------------*\
  =========                 |
  \\      /  F ield         | OpenFOAM: The Open Source CFD Toolbox
   \\    /   O peration     | Website:  https://openfoam.org
    \\  /    A nd           | Version:  8
     \\/     M anipulation  |
\*---------------------------------------------------------------------------*/
FoamFile
{
    version     2.0;
    format      ascii;
    class       volVectorField;
    location    "16";
    object      U;
}
// * * * * * * * * * * * * * * * * * * * * * * * * * * * * * * * * * * * * * //

dimensions      [0 1 -1 0 0 0 0];

internalField   nonuniform List<vector> 
116
(
(0.00589001 -0.00489737 0)
(-0.00140257 -0.00882236 0)
(0.0169907 -0.0070996 0)
(-0.00499912 -0.0156238 0)
(0.0219616 0.0268757 0)
(-0.101718 0.08158 0)
(-0.000283429 0.000249363 0)
(-0.0147279 -9.82193e-05 0)
(-0.0205719 0.0079565 0)
(-0.049291 0.0148668 0)
(-0.0621462 0.061416 0)
(-0.0987595 0.0775023 0)
(-0.000737944 0.00878034 0)
(-0.0126653 0.012861 0)
(-0.0236947 0.0220386 0)
(-0.0441727 0.0312089 0)
(-0.0569323 0.074702 0)
(-0.0670222 0.0973831 0)
(-0.00307924 0.0140866 0)
(-0.0138325 0.0254946 0)
(-0.023932 0.038592 0)
(-0.0349513 0.0528719 0)
(-0.0426258 0.0861855 0)
(-0.0314261 0.0955994 0)
(0.000476705 0.0247811 0)
(-0.00553718 0.0331539 0)
(-0.0154949 0.0415193 0)
(-0.0172061 0.0467852 0)
(-0.0228687 0.0715051 0)
(0.000824145 0.0720907 0)
(-0.0032851 0.0182906 0)
(-0.00257527 0.0417536 0)
(-0.0050527 0.0515133 0)
(-0.000636177 0.0606025 0)
(-0.00388856 0.0748979 0)
(0.0181689 0.0686052 0)
(0.00341727 0.0335009 0)
(-0.0013223 0.0351127 0)
(-0.0113796 0.0411449 0)
(-0.00150644 0.0412766 0)
(-0.00407694 0.0495127 0)
(0.0281674 0.0435723 0)
(0.00292089 0.0122133 0)
(0.0102287 0.0567544 0)
(0.0152353 0.052654 0)
(0.0220577 0.0570786 0)
(0.015879 0.0523618 0)
(0.0393036 0.0516675 0)
(-0.0647894 0.0263257 0)
(-0.0352232 0.0185682 0)
(-0.0547298 0.0290278 0)
(-0.025303 0.0323883 0)
(-0.0229053 0.0282191 0)
(0.0098066 0.0321378 0)
(0.0531708 0.0988115 0)
(0.0858146 0.0573521 0)
(0.113983 0.0421481 0)
(0.162944 0.0337062 0)
(0.171932 0.0231396 0)
(0.217122 0.020029 0)
(-0.115084 0.152502 0)
(-0.107151 0.0145592 0)
(-0.0397723 -0.0803049 0)
(-0.0268471 -0.145741 0)
(-0.103621 0.142787 0)
(-0.0560333 -0.0242571 0)
(-0.0604629 -0.105347 0)
(-0.00403117 -0.181064 0)
(-0.0702921 0.114855 0)
(-0.0134532 -0.0400066 0)
(-0.0480061 -0.119904 0)
(-0.0034988 -0.211393 0)
(-0.0301891 0.100288 0)
(0.0167418 -0.0417038 0)
(-0.0307386 -0.116311 0)
(0.00553111 -0.232165 0)
(0.00695226 0.0677269 0)
(0.0376869 -0.0425455 0)
(-0.0253613 -0.110086 0)
(0.0142028 -0.235917 0)
(0.0161504 0.0696702 0)
(0.0484326 -0.00764366 0)
(-0.0197072 -0.0845978 0)
(0.0212672 -0.242805 0)
(0.0151971 0.035394 0)
(0.0634909 -0.0159728 0)
(-0.0335381 -0.0907647 0)
(0.032676 -0.244988 0)
(0.0183621 0.047116 0)
(0.0534852 0.0385526 0)
(-0.0173182 -0.0384241 0)
(0.0520561 -0.230441 0)
(0.0129305 0.0153922 0)
(0.0557758 0.00891062 0)
(0.0489487 -0.0977869 0)
(0.0783612 -0.241319 0)
(0.21215 0.0118493 0)
(0.249128 -0.000168068 0)
(0.203303 -0.024494 0)
(0.153152 -0.0687764 0)
(-0.0100117 0.00248625 0)
(-0.0299698 -0.00227963 0)
(-0.0488304 0.00196218 0)
(-0.0293437 -0.0181294 0)
(-0.0173268 0.0384382 0)
(-0.041379 0.041636 0)
(-0.0536737 0.00168435 0)
(-0.0193714 -0.0618877 0)
(-0.0390508 0.0627268 0)
(-0.0450593 0.024305 0)
(-0.0517657 -0.0149096 0)
(-0.00204466 -0.0985709 0)
(-0.00553116 0.120831 0)
(-0.0882339 0.0647489 0)
(-0.0149682 -0.0375242 0)
(-0.0233964 -0.107968 0)
)
;

boundaryField
{
    movingWall
    {
        type            fixedValue;
        value           uniform (1 0 0);
    }
    fixedWalls
    {
        type            noSlip;
    }
    frontAndBack
    {
        type            empty;
    }
}


// ************************************************************************* //
