0 	3.03549e-08
1.57135 	-6.64224e-06
3.1427 	-4.38085e-05
4.71405 	-0.000149549
6.28539 	-0.000397365
7.85674 	-0.00102989
9.42809 	-0.00348785
10.9994 	-0.00445406
12.5708 	-0.00397508
14.1421 	0.250938
