/*--------------------------------*- C++ -*----------------------------------*\
  =========                 |
  \\      /  F ield         | OpenFOAM: The Open Source CFD Toolbox
   \\    /   O peration     | Website:  https://openfoam.org
    \\  /    A nd           | Version:  8
     \\/     M anipulation  |
\*---------------------------------------------------------------------------*/
FoamFile
{
    version     2.0;
    format      ascii;
    class       volScalarField;
    location    "0.907";
    object      T;
}
// * * * * * * * * * * * * * * * * * * * * * * * * * * * * * * * * * * * * * //

dimensions      [0 0 0 1 0 0 0];

internalField   nonuniform List<scalar> 
100
(
49.9388
4.92007
-4.9934
-1.29017
1.35255
0.878004
-0.207829
-1.41197
0.104486
0.573503
95.3477
49.7051
11.3602
-4.81894
-3.67104
0.674775
1.7833
1.6214
-1.40357
-1.11822
104.564
89.5861
49.1954
13.2079
-3.82029
-4.56004
0.438729
0.649017
1.30688
0.436418
101.714
103.894
88.4726
49.0437
13.4662
-3.76702
-6.05811
3.10264
1.32785
-0.715967
98.455
104.084
103.058
87.4345
49.7813
15.3344
-3.82822
-9.76892
2.68094
3.27747
99.3957
98.7215
105.61
102.645
85.177
49.6546
17.9085
-1.9303
-10.6666
-1.73656
100.008
98.646
98.6166
107.329
103.203
82.7589
49.4574
17.1702
0.865062
-5.29608
100.972
99.3676
97.7683
98.378
109.144
102.94
82.1949
49.1193
12.9713
3.58919
100.217
100.707
100.097
96.9115
98.1695
109.698
100.507
88.1031
49.1052
3.95968
99.6723
100.57
100.5
99.7523
97.1491
101.125
105.833
97.3589
95.2386
49.7227
)
;

boundaryField
{
    left
    {
        type            fixedValue;
        value           uniform 100;
    }
    right
    {
        type            zeroGradient;
    }
    up
    {
        type            zeroGradient;
    }
    down
    {
        type            fixedValue;
        value           uniform 0;
    }
    frontAndBack
    {
        type            empty;
    }
}


// ************************************************************************* //
