/*--------------------------------*- C++ -*----------------------------------*\
  =========                 |
  \\      /  F ield         | OpenFOAM: The Open Source CFD Toolbox
   \\    /   O peration     | Website:  https://openfoam.org
    \\  /    A nd           | Version:  8
     \\/     M anipulation  |
\*---------------------------------------------------------------------------*/
FoamFile
{
    version     2.0;
    format      ascii;
    class       volScalarField;
    location    "0.04";
    object      p;
}
// * * * * * * * * * * * * * * * * * * * * * * * * * * * * * * * * * * * * * //

dimensions      [0 2 -2 0 0 0 0];

internalField   nonuniform List<scalar> 
400
(
-4.77923e-12
-3.94166e-06
-1.09549e-05
-1.70912e-05
-2.10252e-05
-2.35118e-05
-2.49389e-05
-2.55569e-05
-2.55783e-05
-2.516e-05
-2.43654e-05
-2.31978e-05
-2.16628e-05
-1.97941e-05
-1.76343e-05
-1.51884e-05
-1.23767e-05
-9.01371e-06
-4.58679e-06
-4.1383e-07
-5.22954e-06
-8.65509e-06
-1.36859e-05
-1.80696e-05
-2.12727e-05
-2.34521e-05
-2.47887e-05
-2.54373e-05
-2.55734e-05
-2.53335e-05
-2.47604e-05
-2.38398e-05
-2.25681e-05
-2.09791e-05
-1.91217e-05
-1.70091e-05
-1.45762e-05
-1.17532e-05
-8.61766e-06
-5.79851e-06
-1.22439e-05
-1.44967e-05
-1.73188e-05
-2.00801e-05
-2.23708e-05
-2.40885e-05
-2.52119e-05
-2.57824e-05
-2.59274e-05
-2.57671e-05
-2.53327e-05
-2.45953e-05
-2.35377e-05
-2.21891e-05
-2.06064e-05
-1.88286e-05
-1.68371e-05
-1.46812e-05
-1.27687e-05
-1.18196e-05
-1.80155e-05
-1.9452e-05
-2.09717e-05
-2.25173e-05
-2.39868e-05
-2.52211e-05
-2.60679e-05
-2.64828e-05
-2.65629e-05
-2.64239e-05
-2.6088e-05
-2.55072e-05
-2.46442e-05
-2.35177e-05
-2.2188e-05
-2.07173e-05
-1.91373e-05
-1.7574e-05
-1.65555e-05
-1.67372e-05
-2.20239e-05
-2.3304e-05
-2.41577e-05
-2.49345e-05
-2.57925e-05
-2.66024e-05
-2.71641e-05
-2.73959e-05
-2.7386e-05
-2.7249e-05
-2.69948e-05
-2.65517e-05
-2.58625e-05
-2.49385e-05
-2.38407e-05
-2.26357e-05
-2.13699e-05
-2.02098e-05
-1.97227e-05
-2.04714e-05
-2.51387e-05
-2.63783e-05
-2.68831e-05
-2.71874e-05
-2.76071e-05
-2.80651e-05
-2.83646e-05
-2.84212e-05
-2.83243e-05
-2.81853e-05
-2.79981e-05
-2.76675e-05
-2.71201e-05
-2.63652e-05
-2.54666e-05
-2.44824e-05
-2.3441e-05
-2.25158e-05
-2.23178e-05
-2.33856e-05
-2.76789e-05
-2.89581e-05
-2.92773e-05
-2.92686e-05
-2.93622e-05
-2.9534e-05
-2.96078e-05
-2.95106e-05
-2.93356e-05
-2.91889e-05
-2.90484e-05
-2.87989e-05
-2.83555e-05
-2.77292e-05
-2.69862e-05
-2.61716e-05
-2.52816e-05
-2.44792e-05
-2.4433e-05
-2.57244e-05
-2.98206e-05
-3.1192e-05
-3.1405e-05
-3.11717e-05
-3.10192e-05
-3.09669e-05
-3.08595e-05
-3.06371e-05
-3.03952e-05
-3.0233e-05
-3.01144e-05
-2.99099e-05
-2.95287e-05
-2.8987e-05
-2.83541e-05
-2.76592e-05
-2.68658e-05
-2.6125e-05
-2.61673e-05
-2.76472e-05
-3.16667e-05
-3.3143e-05
-3.32889e-05
-3.28935e-05
-3.25638e-05
-3.23481e-05
-3.21068e-05
-3.1791e-05
-3.14951e-05
-3.13086e-05
-3.11848e-05
-3.09862e-05
-3.06234e-05
-3.01227e-05
-2.95583e-05
-2.89445e-05
-2.82158e-05
-2.75152e-05
-2.76287e-05
-2.92794e-05
-3.32703e-05
-3.48437e-05
-3.49517e-05
-3.44501e-05
-3.40047e-05
-3.36787e-05
-3.33442e-05
-3.29621e-05
-3.26221e-05
-3.24016e-05
-3.22453e-05
-3.20147e-05
-3.16292e-05
-3.11313e-05
-3.06032e-05
-3.00462e-05
-2.93703e-05
-2.8712e-05
-2.88971e-05
-3.0698e-05
-3.46437e-05
-3.63071e-05
-3.64135e-05
-3.58608e-05
-3.53513e-05
-3.49543e-05
-3.4553e-05
-3.412e-05
-3.37389e-05
-3.34724e-05
-3.32581e-05
-3.29628e-05
-3.25218e-05
-3.19991e-05
-3.1488e-05
-3.09784e-05
-3.03585e-05
-2.97554e-05
-3.00116e-05
-3.19285e-05
-3.5783e-05
-3.75358e-05
-3.76854e-05
-3.71358e-05
-3.66031e-05
-3.61585e-05
-3.57003e-05
-3.52177e-05
-3.47887e-05
-3.44611e-05
-3.4167e-05
-3.37828e-05
-3.32659e-05
-3.27054e-05
-3.22069e-05
-3.17492e-05
-3.12001e-05
-3.06695e-05
-3.09885e-05
-3.29733e-05
-3.66981e-05
-3.85422e-05
-3.87809e-05
-3.82838e-05
-3.77594e-05
-3.72789e-05
-3.67609e-05
-3.62169e-05
-3.57242e-05
-3.53174e-05
-3.49254e-05
-3.44381e-05
-3.38378e-05
-3.32396e-05
-3.27607e-05
-3.23678e-05
-3.19087e-05
-3.14684e-05
-3.18389e-05
-3.3841e-05
-3.74229e-05
-3.93588e-05
-3.97234e-05
-3.93215e-05
-3.88315e-05
-3.83231e-05
-3.77384e-05
-3.71159e-05
-3.65376e-05
-3.6031e-05
-3.55259e-05
-3.4928e-05
-3.42442e-05
-3.3613e-05
-3.31599e-05
-3.28387e-05
-3.24811e-05
-3.21449e-05
-3.2563e-05
-3.45515e-05
-3.79894e-05
-4.00173e-05
-4.05327e-05
-4.02614e-05
-3.98325e-05
-3.9309e-05
-3.86571e-05
-3.79427e-05
-3.72583e-05
-3.66321e-05
-3.60009e-05
-3.52873e-05
-3.45188e-05
-3.3851e-05
-3.3413e-05
-3.31494e-05
-3.28861e-05
-3.26626e-05
-3.31433e-05
-3.51183e-05
-3.84021e-05
-4.05197e-05
-4.12043e-05
-4.10952e-05
-4.0754e-05
-4.02323e-05
-3.95206e-05
-3.87099e-05
-3.79068e-05
-3.71482e-05
-3.6384e-05
-3.55526e-05
-3.46951e-05
-3.39745e-05
-3.35212e-05
-3.32804e-05
-3.30932e-05
-3.29974e-05
-3.35758e-05
-3.55464e-05
-3.86724e-05
-4.08648e-05
-4.17331e-05
-4.1807e-05
-4.15677e-05
-4.1057e-05
-4.02916e-05
-3.93869e-05
-3.84644e-05
-3.75741e-05
-3.66813e-05
-3.57371e-05
-3.47867e-05
-3.39918e-05
-3.34871e-05
-3.32364e-05
-3.31221e-05
-3.319e-05
-3.3903e-05
-3.58558e-05
-3.88113e-05
-4.10859e-05
-4.21687e-05
-4.24343e-05
-4.22861e-05
-4.17773e-05
-4.09556e-05
-3.9959e-05
-3.89214e-05
-3.79038e-05
-3.68838e-05
-3.58204e-05
-3.47598e-05
-3.38641e-05
-3.32801e-05
-3.30045e-05
-3.29719e-05
-3.32368e-05
-3.41234e-05
-3.60914e-05
-3.88662e-05
-4.12681e-05
-4.26526e-05
-4.31401e-05
-4.30613e-05
-4.25263e-05
-4.16285e-05
-4.05248e-05
-3.93557e-05
-3.8187e-05
-3.70039e-05
-3.5775e-05
-3.45545e-05
-3.35123e-05
-3.28115e-05
-3.24811e-05
-3.25027e-05
-3.2955e-05
-3.4095e-05
-3.61793e-05
-3.89614e-05
-4.17206e-05
-4.35003e-05
-4.42546e-05
-4.42285e-05
-4.36203e-05
-4.25902e-05
-4.13147e-05
-3.99378e-05
-3.85287e-05
-3.70851e-05
-3.55953e-05
-3.4129e-05
-3.28572e-05
-3.19453e-05
-3.14566e-05
-3.14353e-05
-3.20266e-05
-3.34517e-05
-3.58637e-05
)
;

boundaryField
{
    movingWall
    {
        type            zeroGradient;
    }
    fixedWalls
    {
        type            zeroGradient;
    }
    left
    {
        type            cyclic;
    }
    right
    {
        type            cyclic;
    }
    frontAndBack
    {
        type            empty;
    }
}


// ************************************************************************* //
