/*--------------------------------*- C++ -*----------------------------------*\
  =========                 |
  \\      /  F ield         | OpenFOAM: The Open Source CFD Toolbox
   \\    /   O peration     | Website:  https://openfoam.org
    \\  /    A nd           | Version:  8
     \\/     M anipulation  |
\*---------------------------------------------------------------------------*/
FoamFile
{
    version     2.0;
    format      ascii;
    class       volScalarField;
    location    "0.408";
    object      T;
}
// * * * * * * * * * * * * * * * * * * * * * * * * * * * * * * * * * * * * * //

dimensions      [0 0 0 1 0 0 0];

internalField   nonuniform List<scalar> 
10000
(
50
4.65276
-4.6524
-1.18358
1.18192
0.457094
-0.45224
-0.2297
0.218928
0.141781
-0.12176
-0.10369
0.0710161
0.0856311
-0.0377443
-0.074905
0.0113984
0.0646971
0.0111916
-0.050972
-0.0293117
0.0320516
0.0400846
-0.00911681
-0.0402544
-0.0134623
0.028509
0.0290053
-0.00778235
-0.0312846
-0.0139662
0.0186775
0.026218
0.002623
-0.0218575
-0.019841
0.00359429
0.0211217
0.0151238
-0.00568647
-0.0189673
-0.0126953
0.00494458
0.0163643
0.0120597
-0.00228971
-0.0132408
-0.0121889
-0.00155456
0.00909572
0.0117275
0.00556786
-0.00372532
-0.00931639
-0.00809708
-0.0019633
0.00447404
0.00734494
0.00566651
0.00122989
-0.00307592
-0.0050978
-0.00434736
-0.001799
0.000987761
0.00276431
0.00306327
0.00216265
0.000734111
-0.000557005
-0.0013094
-0.00144586
-0.00112581
-0.000602258
-0.000100016
0.000247764
0.000405798
0.000407636
0.000316615
0.000194374
8.38887e-05
5.83463e-06
-3.68028e-05
-5.11959e-05
-4.79053e-05
-3.64955e-05
-2.36121e-05
-1.28163e-05
-5.31546e-06
-9.19028e-07
1.16212e-06
1.79709e-06
1.68748e-06
1.29464e-06
8.74131e-07
5.33229e-07
2.97609e-07
1.51615e-07
7.29954e-08
2.53322e-08
95.3473
49.9999
10.4885
-4.65123
-2.82221
1.17786
1.1386
-0.442607
-0.590061
0.200408
0.367177
-0.0908979
-0.260816
0.0250747
0.199513
0.0240193
-0.153086
-0.0634371
0.107263
0.0916454
-0.0566736
-0.103192
0.00332825
0.0926276
0.0440965
-0.0590041
-0.0728454
0.00995282
0.0719077
0.0374314
-0.0400467
-0.061944
-0.00839169
0.0501036
0.0464048
-0.00860495
-0.0493621
-0.0339706
0.0153553
0.0446425
0.027035
-0.015065
-0.0390261
-0.0248999
0.0100806
0.0328184
0.0255316
-0.00191996
-0.0248808
-0.0260983
-0.00767919
0.0141029
0.0233456
0.0156472
-0.00122107
-0.0149927
-0.017722
-0.00974344
0.00242149
0.0112953
0.0128529
0.00782259
7.16478e-05
-0.00617775
-0.00849126
-0.00684672
-0.00292995
0.00111981
0.00374973
0.00443057
0.00351965
0.00181917
0.000124996
-0.0010518
-0.00155199
-0.00148433
-0.00108389
-0.000587081
-0.000159455
0.000122628
0.000254683
0.000272968
0.000225779
0.00015484
8.75035e-05
3.67667e-05
5.16851e-06
-1.04988e-05
-1.541e-05
-1.44059e-05
-1.10138e-05
-7.32554e-06
-4.31283e-06
-2.22688e-06
-9.67635e-07
-3.02293e-07
-6.33089e-09
8.22666e-08
9.81945e-08
5.04954e-08
104.653
89.5115
49.9996
12.127
-4.64882
-3.50364
1.17057
1.49922
-0.427067
-0.816441
0.172939
0.526409
-0.0483176
-0.378235
-0.0340791
0.282692
0.0979295
-0.201622
-0.145565
0.118734
0.170251
-0.0317386
-0.162938
-0.0499511
0.119065
0.108354
-0.0454636
-0.124294
-0.0359281
0.0891839
0.092464
-0.0164431
-0.0959339
-0.0568439
0.0433762
0.0863945
0.0315632
-0.0519456
-0.0739658
-0.0189234
0.0498305
0.0640786
0.0166491
-0.0415117
-0.0569331
-0.0213747
0.0285878
0.0498707
0.0291867
-0.0117033
-0.039151
-0.0350319
-0.00693408
0.0222551
0.0330739
0.0216366
-0.00123
-0.019949
-0.0245997
-0.0153189
0.000226171
0.0128658
0.0170884
0.0128248
0.00397178
-0.00456401
-0.00937509
-0.00957506
-0.00637461
-0.00190902
0.0019063
0.00402236
0.00433022
0.00335453
0.00183512
0.0003987
-0.000597234
-0.00106572
-0.00110318
-0.000882158
-0.000568244
-0.000276767
-6.43787e-05
5.84985e-05
0.000108168
0.000110335
8.88889e-05
6.08714e-05
3.58566e-05
1.75844e-05
6.21735e-06
2.62397e-07
-2.13775e-06
-2.57872e-06
-2.1405e-06
-1.48261e-06
-8.75825e-07
-4.53946e-07
-1.86695e-07
-2.41949e-08
101.183
104.652
87.873
49.9993
12.8085
-4.64473
-3.86472
1.15926
1.72699
-0.404588
-0.978599
0.135527
0.64882
0.00646607
-0.468672
-0.105765
0.340281
0.181442
-0.222493
-0.230178
0.101066
0.240359
0.0193858
-0.201781
-0.119344
0.115568
0.17179
-0.00215543
-0.156029
-0.0986953
0.074975
0.141779
0.0343956
-0.10317
-0.111064
0.00529062
0.105463
0.0844758
-0.0224051
-0.0968443
-0.0685464
0.0233352
0.084586
0.0623884
-0.0133327
-0.0699066
-0.061688
-0.00377058
0.0508847
0.0602116
0.023488
-0.0258488
-0.0510421
-0.0385595
-0.00261936
0.030001
0.0397978
0.0249987
-0.00143143
-0.0227635
-0.0287615
-0.0195668
-0.00292745
0.0117324
0.0183398
0.0160484
0.00807251
-0.000950295
-0.00735165
-0.00960072
-0.00818435
-0.0047252
-0.000985209
0.001807
0.00317441
0.00325783
0.00252457
0.00148928
0.000538181
-0.000129596
-0.000476841
-0.000565764
-0.000495147
-0.000356662
-0.000214215
-0.000101118
-2.69763e-05
1.26002e-05
2.76302e-05
2.83468e-05
2.26187e-05
1.53809e-05
9.09644e-06
4.59919e-06
1.80594e-06
3.33677e-07
-3.39601e-07
-4.81731e-07
-5.10111e-07
-3.10873e-07
98.8178
102.822
104.65
87.1915
49.9988
13.1699
-4.63856
-4.09377
1.14318
1.89215
-0.374239
-1.10652
0.0873998
0.747821
0.0735305
-0.53772
-0.188688
0.374185
0.271294
-0.216666
-0.311958
0.0566798
0.295551
0.0909328
-0.214531
-0.195234
0.0814642
0.22293
0.0644334
-0.159489
-0.165208
0.029359
0.171087
0.101256
-0.077287
-0.153742
-0.056076
0.0923983
0.131416
0.0335419
-0.0885314
-0.113725
-0.0294774
0.0736989
0.100976
0.0378488
-0.0507429
-0.0884211
-0.0516982
0.020795
0.0694131
0.062069
0.0122491
-0.0394723
-0.0586187
-0.0383255
0.00220734
0.0353749
0.0436036
0.027143
-0.000415463
-0.0228197
-0.0303021
-0.02274
-0.00704069
0.00809775
0.0166327
0.0169902
0.0113149
0.00339237
-0.00337965
-0.00713862
-0.00768917
-0.00596041
-0.0032644
-0.000713571
0.00105669
0.00189096
0.00195958
0.00156844
0.00101149
0.000493755
0.000116146
-0.000102542
-0.000191084
-0.00019507
-0.000156949
-0.000107058
-6.24719e-05
-2.98962e-05
-9.64647e-06
9.10537e-07
5.09701e-06
5.74195e-06
4.81852e-06
3.46602e-06
2.25315e-06
1.32305e-06
7.71256e-07
3.15252e-07
99.5431
98.8211
103.504
104.647
86.8299
49.9983
13.3998
-4.62991
-4.26136
1.1216
2.02521
-0.335196
-1.21429
0.0280204
0.82962
0.152537
-0.587535
-0.280967
0.384883
0.363626
-0.185062
-0.38536
-0.0110679
0.330113
0.175842
-0.198097
-0.267448
0.0194134
0.251822
0.144538
-0.130411
-0.221473
-0.041684
0.169783
0.168967
-0.0196035
-0.169699
-0.125742
0.0448119
0.154256
0.100858
-0.0449301
-0.134587
-0.0921954
0.0283111
0.112137
0.0927237
-0.000630253
-0.0833644
-0.0925851
-0.0315913
0.0449765
0.0806731
0.0573515
-0.000224559
-0.0497077
-0.0620365
-0.0364708
0.00544119
0.0375765
0.0449343
0.028922
0.00236072
-0.0200109
-0.0292016
-0.0245182
-0.0114228
0.00271968
0.0123272
0.0152771
0.0125741
0.00688942
0.000993678
-0.00325654
-0.00520749
-0.00515802
-0.00388433
-0.00220309
-0.000707215
0.000312662
0.000818604
0.000922212
0.000785211
0.000552569
0.000322531
0.000144269
3.00172e-05
-2.91101e-05
-4.99507e-05
-4.89921e-05
-3.86177e-05
-2.64043e-05
-1.60462e-05
-8.66411e-06
-4.07304e-06
-1.54773e-06
-3.50913e-07
8.59082e-08
2.13716e-07
1.17261e-07
100.453
98.8614
98.8276
103.865
104.642
86.6
49.9976
13.5688
-4.61839
-4.39841
1.09385
2.14083
-0.286751
-1.30877
-0.0429031
0.896863
0.242732
-0.618565
-0.380182
0.372369
0.454138
-0.129077
-0.444931
-0.0977019
0.339478
0.266022
-0.151841
-0.326035
-0.0647308
0.251094
0.226204
-0.0694418
-0.254651
-0.127155
0.132845
0.221221
0.0610168
-0.149317
-0.185251
-0.0300047
0.140474
0.159288
0.0264107
-0.117799
-0.142658
-0.0411848
0.0845772
0.127745
0.0646462
-0.0412392
-0.104116
-0.0842467
-0.00795496
0.0639495
0.0846593
0.0493735
-0.0106692
-0.0555074
-0.0623516
-0.0347027
0.00600486
0.0364621
0.0440928
0.0304821
0.00668448
-0.0146475
-0.0254305
-0.0242643
-0.0149113
-0.00309625
0.00638604
0.0111568
0.0112594
0.00825604
0.00412167
0.000431277
-0.00198598
-0.00300005
-0.00292631
-0.0022413
-0.00137507
-0.000611738
-7.89512e-05
0.000212602
0.000315765
0.000302127
0.000234535
0.000155909
8.90871e-05
4.19291e-05
1.35387e-05
-7.30076e-07
-6.03561e-06
-6.60517e-06
-5.17724e-06
-3.39234e-06
-1.83146e-06
-8.33641e-07
-1.95836e-07
1.03064e-07
100.229
100.444
98.5004
98.8378
104.094
104.634
86.4308
49.9969
13.7081
-4.60362
-4.51999
1.0593
2.24648
-0.228314
-1.39321
-0.125411
0.950331
0.342954
-0.630448
-0.483439
0.336681
0.538267
-0.0508826
-0.485625
-0.197637
0.320608
0.352779
-0.0777615
-0.362102
-0.162379
0.216811
0.296666
0.0178358
-0.254974
-0.21267
0.061876
0.243645
0.149724
-0.0908892
-0.216927
-0.116493
0.0868546
0.188974
0.107952
-0.0613508
-0.16029
-0.113784
0.0210181
0.12444
0.120351
0.0268594
-0.0748924
-0.111753
-0.0684746
0.0136441
0.075858
0.0832937
0.0412255
-0.0172588
-0.0569378
-0.0606308
-0.0339164
0.00367771
0.0322112
0.0410918
0.0313416
0.0117024
-0.00751508
-0.0192433
-0.021459
-0.0162808
-0.00773917
0.000372831
0.00574857
0.00779424
0.0071612
0.00504148
0.00257589
0.000530378
-0.000768448
-0.00133376
-0.00136185
-0.00109415
-0.000731379
-0.000400488
-0.000158204
-1.18352e-05
5.73238e-05
7.58572e-05
6.76098e-05
4.94271e-05
3.10073e-05
1.6565e-05
7.01015e-06
1.54035e-06
-9.92564e-07
-1.91362e-06
-1.78366e-06
-1.60255e-06
-9.1812e-07
99.7804
100.59
100.429
98.272
98.8527
104.263
104.624
86.2913
49.996
13.833
-4.58524
-4.63404
1.01737
2.34605
-0.159416
-1.46897
-0.219288
0.989795
0.451653
-0.622522
-0.587454
0.278229
0.61138
0.0464424
-0.503117
-0.30433
0.272295
0.427358
0.01954
-0.368633
-0.262948
0.149025
0.343874
0.121479
-0.217299
-0.282651
-0.0348925
0.226625
0.228427
-0.00142417
-0.208099
-0.194247
0.000971049
0.176172
0.176776
0.023931
-0.133237
-0.164556
-0.0616435
0.0772355
0.142383
0.0968581
-0.0107165
-0.097288
-0.109011
-0.0507063
0.0298469
0.0809877
0.0789452
0.0349908
-0.0193828
-0.0545068
-0.0574828
-0.0341526
-0.00108088
0.0252401
0.0357884
0.0306465
0.0160988
7.64059e-05
-0.0114875
-0.0162025
-0.0148303
-0.00986114
-0.00401361
0.000751992
0.00355988
0.00444826
0.00397485
0.00282977
0.00157948
0.00056394
-9.20298e-05
-0.000410964
-0.000486063
-0.0004226
-0.00030529
-0.000187723
-9.53962e-05
-3.44261e-05
-5.07006e-07
1.43306e-05
1.78406e-05
1.58194e-05
1.19593e-05
8.11526e-06
5.12724e-06
2.97365e-06
1.76663e-06
7.68211e-07
99.8583
99.798
100.817
100.408
98.1061
98.8729
104.4
104.611
86.1661
49.9951
13.9517
-4.56289
-4.74495
0.9675
2.44151
-0.0797174
-1.53629
-0.324063
1.0145
0.566915
-0.594135
-0.688642
0.197987
0.668979
0.158884
-0.494088
-0.410546
0.195351
0.481547
0.133098
-0.341185
-0.35484
0.0519349
0.358013
0.228331
-0.142093
-0.322771
-0.143675
0.167389
0.279265
0.104311
-0.154396
-0.242739
-0.100012
0.1176
0.210984
0.116723
-0.063083
-0.173076
-0.137311
-0.0031768
0.117212
0.140827
0.0663915
-0.0413745
-0.108293
-0.100176
-0.0350901
0.0393909
0.0806246
0.0734823
0.0315791
-0.0172618
-0.0487657
-0.05296
-0.0347332
-0.00724478
0.0163056
0.0282141
0.0275971
0.0184504
0.00645876
-0.0036734
-0.00951908
-0.0108975
-0.0090637
-0.00573582
-0.0023717
0.00016245
0.00159278
0.0020559
0.00187607
0.00139038
0.000852693
0.000407235
0.000105339
-6.10322e-05
-0.000127003
-0.000132122
-0.000108458
-7.70089e-05
-4.87732e-05
-2.78296e-05
-1.42167e-05
-6.41513e-06
-2.40927e-06
-7.1519e-07
-1.08622e-07
-2.01778e-08
-1.03725e-07
100.123
99.6321
99.8244
100.981
100.379
97.972
98.8992
104.523
104.595
86.047
49.994
14.0689
-4.53622
-4.85522
0.909197
2.5337
0.0109923
-1.59477
-0.439011
1.02344
0.686495
-0.544844
-0.78323
0.0976133
0.70691
0.281552
-0.456473
-0.508701
0.0926762
0.508288
0.25403
-0.278422
-0.426561
-0.0663782
0.332824
0.323628
-0.0356878
-0.322323
-0.247168
0.0709912
0.288203
0.206396
-0.0613824
-0.246334
-0.193019
0.0222266
0.196194
0.190876
0.0344558
-0.130873
-0.179312
-0.0924046
0.0482889
0.138365
0.126391
0.0367744
-0.06217
-0.110187
-0.0892432
-0.0239756
0.0424319
0.0761557
0.0678723
0.0308632
-0.0116633
-0.0402288
-0.0467392
-0.0345218
-0.0133382
0.00664564
0.0189554
0.0219705
0.0177866
0.0101182
0.00242364
-0.00313636
-0.00587413
-0.00618723
-0.00498407
-0.00319778
-0.00150829
-0.000266353
0.000450625
0.000730684
0.000724776
0.000577164
0.000392395
0.000229622
0.00011177
3.92032e-05
1.86946e-06
-1.26209e-05
-1.46621e-05
-1.14907e-05
-7.06032e-06
-3.45282e-06
-8.76282e-07
3.03235e-07
1.05176e-06
9.29957e-07
100.104
100.093
99.4717
99.8609
101.11
100.341
97.8551
98.9322
104.638
104.574
85.9294
49.9929
14.1873
-4.50488
-4.96626
0.842001
2.62283
0.11279
-1.64362
-0.563155
1.01555
0.807859
-0.474559
-0.867371
-0.0205019
0.72156
0.408811
-0.389653
-0.591263
-0.0308081
0.502252
0.37216
-0.182402
-0.467898
-0.194639
0.266588
0.39289
0.0902773
-0.276167
-0.327268
-0.0500596
0.248107
0.283575
0.0558939
-0.198463
-0.254469
-0.0900986
0.130349
0.222939
0.133302
-0.04539
-0.169849
-0.160251
-0.0437814
0.0856876
0.143513
0.106358
0.013009
-0.0730121
-0.105942
-0.0789665
-0.0180962
0.0398534
0.0686007
0.0621797
0.0319121
-0.0037843
-0.0295403
-0.0385012
-0.0323271
-0.0176952
-0.00205706
0.00934603
0.0145164
0.0141586
0.0104015
0.00555071
0.00130115
-0.00151909
-0.00281991
-0.00295071
-0.00240516
-0.00162017
-0.000885935
-0.000340498
-8.91281e-06
0.000146551
0.000185001
0.000161297
0.000115017
6.91633e-05
3.38249e-05
1.09092e-05
-1.5382e-06
-6.8791e-06
-7.8864e-06
-7.10253e-06
-5.2546e-06
-4.06822e-06
-2.16179e-06
99.928
100.262
100.051
99.3477
99.9081
101.219
100.294
97.7478
98.9725
104.75
104.55
85.8104
49.9916
14.3088
-4.46854
-5.07883
0.7655
2.70866
0.22562
-1.68185
-0.695282
0.989818
0.928232
-0.383627
-0.937266
-0.153225
0.710056
0.534466
-0.294584
-0.651193
-0.16836
0.460332
0.476787
-0.0585788
-0.471033
-0.319445
0.162628
0.423875
0.220174
-0.185936
-0.368086
-0.1775
0.160679
0.31759
0.175471
-0.103953
-0.266184
-0.19301
0.0253803
0.199427
0.204346
0.0610933
-0.107031
-0.181365
-0.127772
-0.00144725
0.107593
0.137843
0.0865135
-0.00271394
-0.075338
-0.0980728
-0.070622
-0.0169897
0.0328353
0.0585562
0.0558243
0.0332625
0.00478302
-0.0177385
-0.028403
-0.0274442
-0.018964
-0.00807656
0.00121213
0.00689557
0.00881353
0.00794883
0.00565289
0.00309116
0.000991595
-0.000361882
-0.00100274
-0.00112392
-0.000950989
-0.000668394
-0.000393561
-0.000181916
-4.54759e-05
2.71161e-05
5.53803e-05
5.78868e-05
4.85481e-05
3.5881e-05
2.43566e-05
1.54081e-05
9.36752e-06
5.33552e-06
3.23808e-06
1.50351e-06
99.914
99.9733
100.381
99.9966
99.2468
99.9669
101.316
100.236
97.6463
99.0208
104.862
104.521
85.6884
49.9903
14.4343
-4.42688
-5.19329
0.679327
2.79068
0.349286
-1.70832
-0.833943
0.945384
1.04465
-0.272903
-0.989295
-0.296718
0.670425
0.652
-0.17385
-0.682377
-0.311754
0.382002
0.557539
0.0844813
-0.431498
-0.426621
0.0292497
0.40837
0.336347
-0.060297
-0.358784
-0.290152
0.0368534
0.29721
0.272734
0.0211338
-0.220391
-0.260038
-0.0949207
0.121674
0.224296
0.157553
-0.00685222
-0.14489
-0.172977
-0.0925995
0.0295004
0.116102
0.126515
0.0703532
-0.0102714
-0.0710259
-0.0881394
-0.0641914
-0.019384
0.0227245
0.0464402
0.0480151
0.0332823
0.0121832
-0.00638385
-0.0174226
-0.020167
-0.0167502
-0.010382
-0.00389649
0.000972843
0.00365504
0.00441094
0.0038938
0.00279125
0.00162262
0.000679893
6.06953e-05
-0.000261469
-0.000368598
-0.000349691
-0.000275519
-0.000191286
-0.000119766
-6.8195e-05
-3.54319e-05
-1.67601e-05
-7.42202e-06
-3.18016e-06
-1.78637e-06
-1.18341e-06
-1.25596e-06
-9.94959e-07
100.039
99.7983
100.032
100.474
99.9297
99.1628
100.037
101.403
100.168
97.5486
99.0774
104.974
104.487
85.5621
49.9888
14.5647
-4.37955
-5.30974
0.583163
2.86821
0.483457
-1.72187
-0.977476
0.881604
1.15402
-0.143785
-1.02014
-0.44651
0.601748
0.754847
-0.0316321
-0.680045
-0.451732
0.269526
0.605255
0.235684
-0.34885
-0.502743
-0.120905
0.343577
0.42149
0.0858394
-0.295793
-0.367475
-0.104539
0.221111
0.325569
0.152286
-0.12252
-0.271539
-0.200515
0.00667228
0.183368
0.213666
0.100922
-0.0594994
-0.160944
-0.153804
-0.0620555
0.0479299
0.114657
0.113332
0.0592059
-0.0107767
-0.0617989
-0.0767622
-0.0587335
-0.0234796
0.0111026
0.0328826
0.0382826
0.0306731
0.0166838
0.00268728
-0.00726757
-0.011889
-0.0119595
-0.0092484
-0.00556679
-0.0022199
0.000143042
0.00141452
0.00180885
0.00165392
0.00125127
0.000811932
0.000448767
0.000198718
5.33909e-05
-1.48248e-05
-3.56733e-05
-3.28511e-05
-2.16327e-05
-1.03367e-05
-1.95239e-06
2.64284e-06
4.87685e-06
4.7047e-06
4.61032e-06
2.88255e-06
100.076
99.977
99.7131
100.104
100.545
99.8504
99.093
100.12
101.481
100.089
97.4539
99.143
105.089
104.448
85.4309
49.9873
14.7005
-4.32625
-5.42809
0.476737
2.94041
0.627665
-1.72132
-1.12402
0.798108
1.2532
0.00176989
-1.02692
-0.597603
0.504259
0.836683
0.126402
-0.641141
-0.578556
0.127967
0.612829
0.382253
-0.22701
-0.536684
-0.272063
0.232894
0.461139
0.233118
-0.183981
-0.393269
-0.239708
0.0989703
0.319371
0.261508
0.00903859
-0.220376
-0.262908
-0.116649
0.089363
0.209738
0.181969
0.0483817
-0.0932939
-0.160899
-0.131515
-0.0397991
0.0550959
0.10653
0.100349
0.0527302
-0.00599498
-0.0491122
-0.063974
-0.0528568
-0.0272089
-0.000139516
0.0190702
0.0269725
0.0250308
0.0172772
0.00799515
0.000254188
-0.00454486
-0.0063938
-0.00608276
-0.00462449
-0.00287251
-0.00136215
-0.000317539
0.000257581
0.000472839
0.000466958
0.000358495
0.000227237
0.000115382
3.75765e-05
-7.43695e-06
-2.78229e-05
-3.26245e-05
-2.95053e-05
-2.31381e-05
-1.69169e-05
-1.11098e-05
-7.7521e-06
-3.85371e-06
99.9878
100.156
99.9025
99.6533
100.188
100.597
99.7594
99.0368
100.214
101.551
99.9991
97.3619
99.2179
105.206
104.403
85.2942
49.9857
14.842
-4.26666
-5.54811
0.359824
3.00637
0.781302
-1.70555
-1.27153
0.694835
1.33903
0.16125
-1.0073
-0.744608
0.379421
0.891733
0.2933
-0.564616
-0.682622
-0.0349923
0.575945
0.510777
-0.07418
-0.521011
-0.406984
0.085952
0.445937
0.360341
-0.036534
-0.358889
-0.344005
-0.0495988
0.250809
0.323482
0.146403
-0.11475
-0.263107
-0.21496
-0.0334713
0.143845
0.208869
0.142999
0.00772858
-0.109684
-0.151022
-0.111077
-0.0266056
0.0532624
0.0941217
0.0880782
0.0494783
0.00194704
-0.0343695
-0.0497781
-0.0453101
-0.0286435
-0.0089656
0.0067953
0.0154705
0.0172405
0.0142497
0.00914432
0.00406822
0.000250858
-0.00194235
-0.00272434
-0.00256367
-0.00194048
-0.00121618
-0.000599273
-0.000169196
7.78153e-05
0.000184902
0.000203583
0.000177212
0.000135237
9.42738e-05
6.12562e-05
3.77948e-05
2.22687e-05
1.29872e-05
7.2599e-06
4.52943e-06
2.24871e-06
99.934
100.064
100.206
99.8176
99.6173
100.282
100.631
99.6578
98.9944
100.32
101.613
99.8975
97.2729
99.3026
105.325
104.353
85.1517
49.9839
14.9893
-4.20045
-5.66951
0.232251
3.06512
0.943628
-1.67351
-1.41781
0.572069
1.40844
0.331605
-0.959583
-0.881902
0.229945
0.915075
0.461101
-0.451629
-0.755114
-0.209441
0.493633
0.608393
0.0976517
-0.453086
-0.508907
-0.0821509
0.373367
0.44755
0.126537
-0.265374
-0.396502
-0.198214
0.129432
0.32158
0.258274
0.022783
-0.197528
-0.259911
-0.150788
0.0335843
0.1709
0.191649
0.106656
-0.0184896
-0.112386
-0.136289
-0.0947325
-0.0213897
0.044868
0.0789071
0.0760085
0.0474308
0.0107177
-0.0192007
-0.034699
-0.0356271
-0.0266372
-0.0138074
-0.00209973
0.00577544
0.00927968
0.00930239
0.0072913
0.00459725
0.00214377
0.00037344
-0.000643696
-0.00104993
-0.00106007
-0.000871899
-0.000626449
-0.00040358
-0.000235373
-0.000124481
-5.96099e-05
-2.61764e-05
-1.11886e-05
-5.90254e-06
-4.31986e-06
-4.42062e-06
-3.86702e-06
-3.98588e-06
-2.71608e-06
99.9891
99.8896
100.147
100.229
99.7256
99.6046
100.383
100.645
99.547
98.9668
100.436
101.665
99.7845
97.1873
99.3974
105.446
104.296
85.0031
49.982
15.1428
-4.12733
-5.79189
0.0938942
3.11565
1.11376
-1.62428
-1.56051
0.430464
1.45852
0.50929
-0.882859
-1.0038
0.0597752
0.902925
0.621185
-0.305634
-0.788649
-0.383815
0.368603
0.664001
0.273626
-0.335732
-0.563597
-0.252373
0.248649
0.479153
0.281121
-0.124039
-0.384233
-0.318504
-0.02339
0.252341
0.317317
0.160115
-0.0800497
-0.236715
-0.228076
-0.0884904
0.0786335
0.176645
0.167701
0.0782955
-0.0311218
-0.10539
-0.119725
-0.082565
-0.022017
0.0322385
0.0617899
0.0632384
0.0445079
0.017989
-0.00551928
-0.0200015
-0.0244651
-0.0213276
-0.0142989
-0.00671208
-0.000683501
0.00298272
0.00444734
0.00435827
0.00345155
0.0023153
0.00130835
0.000581481
0.000143993
-6.61446e-05
-0.000129874
-0.00011742
-7.71876e-05
-3.63537e-05
-6.17534e-06
1.12547e-05
1.87011e-05
1.92439e-05
1.70217e-05
1.26262e-05
9.96783e-06
5.39582e-06
100.053
99.9068
99.8767
100.234
100.225
99.6304
99.6155
100.49
100.639
99.429
98.9549
100.562
101.707
99.6602
97.1059
99.5027
105.569
104.233
84.8484
49.9801
15.3023
-4.04697
-5.91482
-0.0553187
3.15692
1.2907
-1.55706
-1.69722
0.271059
1.48657
0.690317
-0.777035
-1.10478
-0.125995
0.852896
0.764682
-0.132341
-0.777882
-0.545637
0.207301
0.66942
0.437284
-0.177353
-0.561255
-0.403896
0.0846266
0.446657
0.40264
0.0447077
-0.305267
-0.385704
-0.178182
0.127241
0.307153
0.263293
0.0606545
-0.149343
-0.241351
-0.184699
-0.0386414
0.102446
0.168467
0.143558
0.0595009
-0.0327061
-0.0919736
-0.102574
-0.0732217
-0.0257927
0.0177021
0.0436795
0.0491642
0.0391071
0.0217684
0.00468618
-0.0075125
-0.0134267
-0.0140012
-0.0112652
-0.00727693
-0.00352652
-0.000777613
0.000806315
0.001424
0.00141129
0.0010884
0.000687269
0.000338956
9.37778e-05
-4.83585e-05
-0.000111058
-0.000123014
-0.000108636
-8.45216e-05
-6.04383e-05
-4.03168e-05
-2.58192e-05
-1.53807e-05
-9.71102e-06
-4.49896e-06
100.03
100.059
99.8255
99.8938
100.319
100.194
99.5363
99.6503
100.597
100.613
99.3059
98.96
100.697
101.737
99.5249
97.0296
99.6186
105.694
104.163
84.6873
49.978
15.4682
-3.95907
-6.03783
-0.215409
3.18788
1.47329
-1.47118
-1.82539
0.095286
1.49019
0.870327
-0.642912
-1.17964
-0.321245
0.764204
0.882928
0.0604655
-0.72001
-0.682387
0.0196519
0.620358
0.572098
0.00855923
-0.498039
-0.516704
-0.0994565
0.35051
0.470056
0.214279
-0.169908
-0.383947
-0.303193
-0.0289217
0.227138
0.305319
0.188214
-0.0204225
-0.185223
-0.224465
-0.142346
-0.00515154
0.109077
0.152579
0.122474
0.049322
-0.02636
-0.0745664
-0.0849757
-0.0647299
-0.0298571
0.003762
0.0260707
0.034224
0.0308495
0.0210824
0.00994647
0.00085423
-0.00474315
-0.00694166
-0.00668199
-0.00511259
-0.00318526
-0.00149599
-0.000300754
0.000384038
0.000666965
0.000692092
0.000586299
0.00043838
0.00029881
0.000188846
0.000112041
6.30168e-05
3.43045e-05
1.82965e-05
1.02776e-05
5.81076e-06
4.08829e-06
2.36787e-06
99.9665
100.106
100.034
99.7522
99.9385
100.396
100.137
99.448
99.7086
100.703
100.565
99.1804
98.9833
100.839
101.755
99.379
96.9592
99.7454
105.82
104.085
84.5199
49.9757
15.6403
-3.86332
-6.16038
-0.386344
3.20749
1.66028
-1.36619
-1.94249
-0.095025
1.46737
1.04467
-0.482227
-1.22374
-0.519
0.637818
0.967929
0.263231
-0.615151
-0.782424
-0.181487
0.517101
0.663115
0.204505
-0.376981
-0.574239
-0.280171
0.200711
0.469584
0.356153
0.000389572
-0.310105
-0.371129
-0.182922
0.0934808
0.273634
0.268295
0.114548
-0.0753974
-0.194732
-0.197852
-0.108046
0.012502
0.103299
0.133062
0.1051
0.0454079
-0.0152164
-0.0550432
-0.0667851
-0.0553622
-0.0318192
-0.00725471
0.0109366
0.0200511
0.0210781
0.0168996
0.0106449
0.00467936
0.000271511
-0.00226509
-0.00321896
-0.00312346
-0.00250297
-0.00174553
-0.00107517
-0.000581139
-0.000266756
-9.42453e-05
-1.59539e-05
9.20416e-06
9.72933e-06
2.59016e-06
-4.5928e-06
-8.48816e-06
-1.01775e-05
-8.82512e-06
-8.14513e-06
-4.92999e-06
99.9586
99.9955
100.169
99.9822
99.6937
100.008
100.46
100.058
99.3705
99.7896
100.802
100.495
99.0551
99.0257
100.987
101.758
99.2232
96.8957
99.8833
105.947
104.001
84.3459
49.9734
15.8187
-3.75941
-6.28192
-0.568033
3.21468
1.85028
-1.2418
-2.04592
-0.297646
1.4165
1.20851
-0.297668
-1.23319
-0.711647
0.476559
1.01284
0.465062
-0.466574
-0.835924
-0.38115
0.364863
0.698589
0.390566
-0.208184
-0.565832
-0.432871
0.0160398
0.397519
0.444765
0.176269
-0.175331
-0.365392
-0.300261
-0.0637255
0.174249
0.278294
0.217098
0.0553682
-0.1049
-0.186697
-0.169636
-0.0841238
0.0171489
0.08924
0.111921
0.0903322
0.044746
-0.00228241
-0.035093
-0.048116
-0.0441385
-0.0302403
-0.013837
-0.000207343
0.00825619
0.0115565
0.0110676
0.00854656
0.00547814
0.00280069
0.000915644
-0.000158297
-0.000602152
-0.00065137
-0.000509959
-0.000317118
-0.000148056
-3.05231e-05
3.56035e-05
6.28058e-05
6.56546e-05
5.65347e-05
4.31265e-05
3.07635e-05
1.98337e-05
1.34658e-05
6.46639e-06
100.01
99.9033
100.051
100.211
99.9081
99.656
100.097
100.504
99.9574
99.3083
99.892
100.892
100.403
98.9332
99.088
101.138
101.746
99.058
96.8403
100.032
106.075
103.908
84.1655
49.9709
16.0034
-3.64703
-6.40187
-0.760332
3.20846
2.04177
-1.09795
-2.13315
-0.509968
1.33652
1.35694
-0.0928631
-1.20506
-0.891211
0.285107
1.01244
0.654285
-0.280733
-0.835792
-0.563359
0.173714
0.671452
0.546447
-0.00818241
-0.488617
-0.53515
-0.178159
0.261665
0.462364
0.325565
-0.00380085
-0.284536
-0.353269
-0.207207
0.0312719
0.214464
0.257281
0.166968
0.0154378
-0.113752
-0.168656
-0.143953
-0.0696284
0.012592
0.0701852
0.0898504
0.0762425
0.0440883
0.00933959
-0.0168134
-0.0299228
-0.0311392
-0.0246374
-0.0151106
-0.00615718
0.000295458
0.00380558
0.00487508
0.00438315
0.00317853
0.00187487
0.000809545
9.65675e-05
-0.000288604
-0.000432025
-0.000428651
-0.000355418
-0.000263024
-0.000178854
-0.000113418
-6.78989e-05
-3.85343e-05
-2.11928e-05
-1.10917e-05
-6.21412e-06
-2.77161e-06
100.042
99.9547
99.8747
100.123
100.226
99.8192
99.6442
100.202
100.525
99.8408
99.2661
100.013
100.967
100.291
98.8178
99.1707
101.291
101.717
98.8844
96.7939
100.193
106.202
103.808
83.9786
49.9683
16.1946
-3.52587
-6.51962
-0.963041
3.18782
2.23316
-0.934787
-2.2017
-0.729027
1.22691
1.48508
0.127677
-1.13753
-1.04966
0.0699024
0.963514
0.819112
-0.0670526
-0.778402
-0.712406
-0.0420046
0.580401
0.653735
0.201628
-0.348493
-0.570273
-0.353506
0.0808186
0.402815
0.419473
0.171578
-0.143534
-0.328228
-0.301778
-0.118829
0.0939029
0.2234
0.224992
0.126285
-0.00597675
-0.107838
-0.145777
-0.121873
-0.0618311
0.00287262
0.0490239
0.0674662
0.0614341
0.0409376
0.0168754
-0.00284735
-0.0146298
-0.018536
-0.0167567
-0.012074
-0.00682251
-0.0024495
0.000467682
0.00196763
0.00240243
0.00219762
0.00171166
0.00118352
0.000737736
0.000415404
0.000209467
9.2421e-05
3.4126e-05
9.55861e-06
2.16458e-06
1.26378e-06
2.80659e-06
3.27559e-06
4.15728e-06
3.11201e-06
100.014
100.063
99.8871
99.8771
100.203
100.21
99.724
99.6618
100.314
100.518
99.7126
99.2476
100.151
101.024
100.159
98.7123
99.274
101.443
101.671
98.7032
96.7577
100.364
106.329
103.699
83.7851
49.9656
16.392
-3.39561
-6.63453
-1.1759
3.1518
2.42271
-0.752693
-2.24919
-0.951523
1.08775
1.58822
0.358618
-1.03005
-1.17921
-0.16101
0.86517
0.948309
0.16247
-0.664112
-0.814154
-0.26467
0.430437
0.698061
0.397219
-0.159948
-0.529944
-0.482779
-0.117698
0.273392
0.438338
0.31558
0.0287941
-0.229254
-0.323434
-0.236805
-0.0499078
0.125945
0.212107
0.191217
0.0977914
-0.012317
-0.0922957
-0.120881
-0.102609
-0.0575131
-0.00840537
0.0282715
0.0458238
0.0459118
0.0348101
0.0196208
0.00577707
-0.00387032
-0.00877348
-0.00983642
-0.0085201
-0.00619893
-0.00384347
-0.00196624
-0.000717413
-2.89665e-05
0.000257523
0.000305816
0.000243389
0.000151067
7.00255e-05
1.43606e-05
-1.62544e-05
-2.86421e-05
-2.94e-05
-2.55112e-05
-1.86158e-05
-1.43002e-05
-7.5182e-06
99.9697
100.077
100.049
99.8195
99.9119
100.28
100.163
99.6314
99.7104
100.427
100.482
99.5787
99.2563
100.3
101.06
100.009
98.6198
99.3978
101.593
101.606
98.5156
96.7327
100.547
106.455
103.581
83.585
49.9627
16.5959
-3.25593
-6.74593
-1.3986
3.09946
2.60861
-0.552313
-2.27335
-1.17383
0.919808
1.66196
0.593879
-0.883473
-1.27267
-0.398201
0.719112
1.03192
0.393823
-0.497614
-0.857352
-0.474689
0.232922
0.671032
0.554599
0.0551287
-0.416161
-0.544203
-0.301948
0.0944262
0.376057
0.397803
0.195356
-0.078269
-0.265915
-0.291036
-0.176117
-0.00506687
0.133791
0.189643
0.160738
0.0803082
-0.00804753
-0.0710312
-0.095
-0.0842974
-0.0533668
-0.0180995
0.0100161
0.0259228
0.0300452
0.0259409
0.0179469
0.00959972
0.00299358
-0.00114775
-0.00303756
-0.00333214
-0.00275072
-0.00186352
-0.00102449
-0.000394594
-2.69769e-06
0.000191787
0.00025222
0.000237394
0.000190556
0.000137822
9.22972e-05
5.78573e-05
3.4635e-05
1.93938e-05
1.12935e-05
4.88347e-06
99.9694
99.9887
100.132
100.004
99.764
99.9767
100.344
100.086
99.5506
99.7896
100.532
100.414
99.4453
99.2943
100.457
101.071
99.8443
98.5438
99.5416
101.737
101.522
98.3229
96.72
100.741
106.579
103.454
83.3782
49.9596
16.8061
-3.10653
-6.85313
-1.63072
3.02996
2.78894
-0.334558
-2.27216
-1.39208
0.72454
1.70234
0.826783
-0.700142
-1.32379
-0.631217
0.529782
1.06204
0.611818
-0.287968
-0.834924
-0.652249
0.00495934
0.571799
0.652917
0.269826
-0.241866
-0.525526
-0.440638
-0.103447
0.242464
0.399738
0.318866
0.0891995
-0.143617
-0.26702
-0.248402
-0.128636
0.0176015
0.124837
0.161997
0.134482
0.0702987
0.00183543
-0.0476099
-0.0689546
-0.0653191
-0.0464397
-0.0229863
-0.00285104
0.0101306
0.0156329
0.015444
0.0120465
0.00763158
0.0036476
0.000768409
-0.000910901
-0.00161751
-0.00168612
-0.00142427
-0.00105357
-0.000702847
-0.000427999
-0.000238562
-0.000121426
-5.58636e-05
-2.32834e-05
-8.72273e-06
-3.81932e-06
-2.09976e-06
-2.33364e-06
-2.03037e-06
100.009
99.9232
100.037
100.167
99.9335
99.7315
100.066
100.385
99.9835
99.4906
99.8967
100.622
100.316
99.3194
99.363
100.617
101.055
99.667
98.4872
99.7044
101.873
101.419
98.1264
96.7208
100.946
106.7
103.318
83.1649
49.9564
17.0228
-2.94708
-6.95545
-1.87185
2.94247
2.96174
-0.100583
-2.24379
-1.6022
0.504104
1.70599
1.05026
-0.483893
-1.32769
-0.849061
0.304279
1.03349
0.801123
-0.0481604
-0.744904
-0.779288
-0.232091
0.407685
0.677441
0.455754
-0.0296424
-0.42672
-0.508924
-0.28476
0.0621503
0.319698
0.371084
0.232817
0.0116196
-0.172465
-0.246962
-0.206745
-0.0965905
0.0230002
0.10558
0.132665
0.111553
0.0638369
0.0126929
-0.0256776
-0.0448503
-0.0465132
-0.0367547
-0.0224456
-0.00889497
0.00100563
0.00653692
0.00838097
0.0078032
0.00605384
0.00405892
0.00234821
0.001123
0.000374367
-5.86554e-06
-0.000147528
-0.000160317
-0.000119856
-6.91968e-05
-2.82159e-05
-1.56724e-06
1.14623e-05
1.66119e-05
1.49536e-05
1.37529e-05
8.18279e-06
100.034
99.9605
99.9038
100.104
100.172
99.8475
99.7303
100.17
100.394
99.8627
99.4592
100.027
100.689