0 	1.57714e-07
1.57135 	-0.00039403
3.1427 	-0.000622714
4.71405 	-0.00314835
6.28539 	-0.00782242
7.85674 	-0.0107183
9.42809 	-0.00933054
10.9994 	-0.00521563
12.5708 	0.0183405
14.1421 	0.0552716
