/*--------------------------------*- C++ -*----------------------------------*\
  =========                 |
  \\      /  F ield         | OpenFOAM: The Open Source CFD Toolbox
   \\    /   O peration     | Website:  https://openfoam.org
    \\  /    A nd           | Version:  8
     \\/     M anipulation  |
\*---------------------------------------------------------------------------*/
FoamFile
{
    version     2.0;
    format      ascii;
    class       surfaceScalarField;
    location    "1";
    object      phi;
}
// * * * * * * * * * * * * * * * * * * * * * * * * * * * * * * * * * * * * * //

dimensions      [0 3 -1 0 0 0 0];

internalField   nonuniform List<scalar> 
2298
(
0.000454426
-5.69197e-05
0.000509276
-5.755e-05
0.000547322
-4.00198e-05
0.00056695
-2.06014e-05
0.000566466
5.55465e-07
0.000550002
1.73303e-05
0.000525318
2.59775e-05
0.000499041
2.76381e-05
0.000475145
2.50958e-05
0.000455345
2.08032e-05
0.000439919
1.62496e-05
0.000428401
1.21561e-05
0.00042005
8.81021e-06
0.00041412
6.24525e-06
0.000409983
4.35387e-06
0.00040715
2.98247e-06
0.000405264
1.98831e-06
0.000404071
1.25671e-06
0.000403375
7.29593e-07
2.64549e-07
0.000461676
-0.000118574
0.000515626
-0.000111501
0.000559145
-8.35378e-05
0.000579944
-4.14001e-05
0.00057664
3.8588e-06
0.000555127
3.88435e-05
0.000526153
5.49514e-05
0.000497236
5.65561e-05
0.000472196
5.01348e-05
0.00045224
4.07598e-05
0.000437156
3.13329e-05
0.000426134
2.31789e-05
0.000418257
1.66872e-05
0.000412725
1.17774e-05
0.000408901
8.17695e-06
0.000406306
5.57733e-06
0.00040459
3.70401e-06
0.000403513
2.33383e-06
0.000402949
1.29424e-06
4.31078e-07
0.000468607
-0.00018716
0.000533421
-0.000176316
0.000585686
-0.000135802
0.000608399
-6.41143e-05
0.000598685
1.35719e-05
0.000565275
7.22524e-05
0.000527015
9.32115e-05
0.00049297
9.06017e-05
0.000465988
7.71171e-05
0.000445989
6.07584e-05
0.000431716
4.56048e-05
0.000421749
3.31466e-05
0.00041488
2.35565e-05
0.000410187
1.64695e-05
0.00040701
1.13547e-05
0.000404883
7.70397e-06
0.000403492
5.09536e-06
0.000402627
3.19898e-06
0.000402164
1.75743e-06
5.77272e-07
0.000479241
-0.00026634
0.00055959
-0.000256666
0.000631301
-0.000207514
0.000658063
-9.0877e-05
0.000636058
3.55756e-05
0.000579062
0.000129248
0.00052568
0.000146593
0.000484522
0.00013176
0.000455636
0.000106004
0.00043633
8.00648e-05
0.000423738
5.81965e-05
0.000415603
4.1282e-05
0.000410332
2.88279e-05
0.000406902
1.98997e-05
0.000404664
1.35931e-05
0.000403207
9.16135e-06
0.000402272
6.03052e-06
0.000401699
3.7717e-06
0.000401393
2.06342e-06
6.74154e-07
0.000490685
-0.000356847
0.000592026
-0.000358008
0.000706522
-0.00032201
0.00073666
-0.000121017
0.000696747
7.54887e-05
0.000591278
0.000234717
0.000516713
0.000221158
0.000468292
0.000180181
0.000439078
0.000135218
0.000422319
9.68238e-05
0.000412908
6.76073e-05
0.000407614
4.65772e-05
0.000404599
3.18427e-05
0.000402851
2.16483e-05
0.000401816
1.46278e-05
0.000401194
9.78331e-06
0.000400819
6.40565e-06
0.0004006
3.99142e-06
0.000400486
2.17718e-06
7.08694e-07
0.000496421
-0.00045293
0.000612964
-0.000474551
0.000816419
-0.000525466
0.000837916
-7.17388e-05
4.77e-07
-7.17309e-05
4.77249e-07
0.000780636
-3.28523e-08
6.64207e-05
-3.31446e-08
6.64133e-05
0.000580935
0.000434417
0.000491154
0.00031094
0.000439726
0.00023161
0.000414529
0.000160415
0.000403583
0.00010777
0.000399391
7.18e-05
0.000398139
4.78302e-05
0.000398047
3.19344e-05
0.000398339
2.13559e-05
0.000398703
1.42638e-05
0.000399023
9.46356e-06
0.000399267
6.1624e-06
0.000399432
3.82593e-06
0.000399528
2.08127e-06
6.74953e-07
0.000486168
-0.000538531
0.000555606
-0.000543989
7.19912e-05
-5.70472e-05
-1.04367e-06
-5.70368e-05
-1.03495e-06
1.15808e-06
7.19968e-05
1.15789e-06
5.67082e-07
-3.07959e-07
-6.73015e-09
-8.00462e-07
5.33633e-07
2.33873e-07
2.67078e-10
0.000480812
5.54051e-08
4.49562e-05
5.63226e-08
4.49472e-05
-6.57367e-05
-2.46568e-06
-6.57416e-05
-2.46526e-06
0.000437522
0.000354231
0.000394146
0.000274985
0.000380667
0.000173894
0.000380402
0.000108037
0.000383943
6.82597e-05
0.000387897
4.38767e-05
0.000391236
2.85955e-05
0.00039378
1.88115e-05
0.000395618
1.24261e-05
0.000396901
8.18124e-06
0.000397763
5.30034e-06
0.000398309
3.27994e-06
0.000398611
1.78005e-06
5.74831e-07
0.000470678
-0.000608535
5.77025e-05
-8.19891e-05
-3.64852e-08
5.76887e-05
-3.05174e-08
-1.23408e-05
-8.19663e-05
-1.23398e-05
8.2086e-07
-1.6831e-07
2.69264e-09
-9.4692e-09
2.0699e-08
3.27379e-08
-6.37047e-09
-3.7599e-08
-5.93861e-08
4.39519e-08
2.33226e-08
3.03669e-08
-3.82568e-08
-3.31823e-08
3.38591e-08
9.20259e-10
-1.0025e-08
-5.73626e-08
-7.32982e-09
5.08905e-08
1.17657e-08
5.20648e-08
1.40659e-08
0.00037047
4.97178e-07
-4.41069e-05
-1.03317e-06
-4.40984e-05
-1.03221e-06
3.65302e-05
4.97337e-07
3.65064e-05
0.000327265
0.000318191
0.000338038
0.000163121
0.000354602
9.14736e-05
0.000368159
5.47035e-05
0.000378028
3.40073e-05
0.000384928
2.16962e-05
0.000389669
1.40711e-05
0.000392888
9.20665e-06
0.000395047
6.02264e-06
0.000396462
3.88576e-06
0.000397344
2.39818e-06
0.000397825
1.2988e-06
4.17096e-07
8.76051e-05
-0.000394048
4.60902e-06
8.78709e-05
4.9975e-06
7.05402e-06
-1.29299e-06
-1.4509e-07
1.67424e-07
2.43275e-08
-3.3449e-09
4.07133e-09
-1.92481e-07
-2.62369e-08
1.73621e-08
4.88124e-07
4.89368e-10
-5.09447e-09
-9.86296e-09
3.23408e-08
0.00022192
0.000169466
-3.60896e-05
-5.51995e-07
-3.60016e-05
-5.52272e-07
0.000291428
9.36137e-05
0.000330558
5.23437e-05
0.000354689
3.05726e-05
0.000370049
1.86474e-05
0.000380008
1.1737e-05
0.000386535
7.5435e-06
0.00039084
4.90161e-06
0.000393671
3.19233e-06
0.000395503
2.05403e-06
0.000396636
1.26553e-06
0.000397251
6.83859e-07
2.16976e-07
1.44537e-06
-3.86261e-08
3.39665e-07
1.85531e-06
9.21185e-07
5.52677e-07
-1.60988e-07
-2.13588e-07
2.01276e-07
4.70866e-07
5.81242e-07
1.39478e-08
1.31518e-07
-1.5187e-07
2.03525e-08
-2.94638e-08
1.02594e-08
9.80865e-09
8.89463e-09
5.00138e-10
0.000170368
-6.27975e-10
-3.66565e-07
-8.42781e-08
-3.66325e-07
-8.39854e-08
0.000263989
-8.07611e-09
0.000316337
-4.14704e-09
0.000346914
-4.63387e-09
0.00036556
1.74594e-09
0.000377293
4.31082e-09
0.000384836
1.40602e-09
0.00038974
-2.44608e-09
0.000392937
-3.71568e-09
0.000394994
-2.81411e-09
0.000396261
-1.49455e-09
0.000396947
-1.95787e-09
-5.1282e-09
3.43542e-07
0.000393964
1.44565e-06
9.25098e-07
1.85557e-06
1.70324e-09
1.59077e-07
-2.98841e-07
1.32054e-07
1.19929e-07
3.06173e-07
-7.66355e-08
3.9702e-11
-1.30212e-08
2.81009e-08
-1.51197e-08
0.000170366
-0.00016946
-8.53998e-08
-3.68467e-07
-8.51053e-08
-3.68223e-07
0.000263984
-9.36256e-05
0.000316338
-5.23574e-05
0.000346915
-3.05806e-05
0.00036556
-1.86444e-05
0.000377293
-1.17296e-05
0.000384836
-7.54106e-06
0.000389741
-4.90633e-06
0.000392937
-3.19969e-06
0.000394993
-2.05944e-06
0.00039626
-1.26829e-06
0.000396946
-6.87502e-07
-2.26633e-07
4.61279e-06
0.000608447
8.76026e-05
5.00114e-06
8.78704e-05
-5.53607e-07
4.06489e-06
1.29486e-06
-1.93669e-07
-1.28582e-07
-5.26517e-08
3.52065e-08
1.46029e-07
2.98282e-08
-6.66194e-09
2.54262e-07
-4.89469e-07
5.73095e-10
5.98733e-08
6.05072e-08
1.07325e-07
9.88035e-10
-1.30691e-08
-4.15749e-09
0.000221916
-0.000318189
-5.53995e-07
-3.60834e-05
-5.5428e-07
-3.59955e-05
0.000291431
-0.00016314
0.000330562
-9.14882e-05
0.000354691
-5.47092e-05
0.000370049
-3.40027e-05
0.000380008
-2.16886e-05
0.000386536
-1.40685e-05
0.00039084
-9.2103e-06
0.000393669
-6.02893e-06
0.0003955
-3.89028e-06
0.000396633
-2.40034e-06
0.000397247
-1.30158e-06
-4.24659e-07
0.000470684
0.000538439
-4.29396e-08
0.000543999
-8.19837e-05
-1.23464e-05
-8.19609e-05
-1.23453e-05
5.77081e-05
-4.05995e-08
5.76947e-05
-1.67911e-07
1.60447e-07
1.40993e-09
-1.15177e-07
-1.14896e-07
6.60085e-10
6.29422e-08
2.84605e-08
7.79926e-08
2.32868e-08
-2.11979e-08
4.17725e-08
-2.05751e-08
0.000370462
-0.000354216
4.98932e-07
3.65259e-05
4.9909e-07
3.65012e-05
-1.03302e-06
-4.41075e-05
-1.03205e-06
-4.40991e-05
0.000327278
-0.000275005
0.000338054
-0.000173916
0.000354614
-0.000108047
0.000368163
-6.82586e-05
0.00037803
-4.38694e-05
0.00038493
-2.85888e-05
0.000389671
-1.88093e-05
0.000392889
-1.24282e-05
0.000395045
-8.18529e-06
0.000396458
-5.30333e-06
0.000397339
-3.28097e-06
0.000397819
-1.78142e-06
-5.79675e-07
0.000486161
0.000452843
0.000555637
0.000474524
1.16337e-06
0.000525466
-5.70463e-05
-1.04001e-06
-5.70357e-05
-1.0368e-06
7.19985e-05
1.16318e-06
7.20043e-05
-2.07456e-08
8.142e-07
3.12634e-07
3.47003e-10
2.54663e-08
-3.56601e-08
6.76432e-08
-4.4258e-08
-1.00295e-06
1.15964e-06
-2.34014e-07
-1.77141e-10
1.3948e-08
1.63204e-08
9.14923e-08
0.000480822
-0.000434419
5.78981e-08
4.4955e-05
5.88146e-08
4.49459e-05
-2.46239e-06
-6.57456e-05
-2.46197e-06
-6.57506e-05
0.000437556
-0.00031095
0.000394176
-0.000231625
0.000380689
-0.000160428
0.000380416
-0.000107774
0.000383949
-7.17922e-05
0.0003879
-4.782e-05
0.000391239
-3.19278e-05
0.000393783
-2.13533e-05
0.000395618
-1.42642e-05
0.000396898
-9.46495e-06
0.000397758
-6.16328e-06
0.000398303
-3.82577e-06
0.000398603
-2.08129e-06
-6.76653e-07
0.000496391
0.000356791
0.000612943
0.000357971
0.000816405
0.000322005
0.000837946
0.000121006
-7.17517e-05
4.74297e-07
-7.17432e-05
4.74552e-07
0.000780668
-7.55067e-05
-3.17341e-08
6.64281e-05
-3.20467e-08
6.64207e-05
0.00058096
-0.000234711
0.000491178
-0.000221168
0.000439747
-0.000180193
0.000414551
-0.000135232
0.000403598
-9.68216e-05
0.000399399
-6.75933e-05
0.000398144
-4.65646e-05
0.000398051
-3.18356e-05
0.000398343
-2.16448e-05
0.000398704
-1.46255e-05
0.000399021
-9.78129e-06
0.000399261
-6.40374e-06
0.000399425
-3.98966e-06
0.000399519
-2.17537e-06
-7.07345e-07
0.000490634
0.000266335
0.00059201
0.000256595
0.000706517
0.000207498
0.000736702
9.08218e-05
0.00069674
-3.55453e-05
0.000591292
-0.000129263
0.000516727
-0.000146604
0.000468313
-0.000131779
0.000439101
-0.00010602
0.000422337
-8.00575e-05
0.00041292
-5.81762e-05
0.000407621
-4.12658e-05
0.000404604
-2.88193e-05
0.000402854
-1.98947e-05
0.000401817
-1.35882e-05
0.000401192
-9.15591e-06
0.000400813
-6.02563e-06
0.000400592
-3.76791e-06
0.000400476
-2.05993e-06
-6.70701e-07
0.000479254
0.00018714
0.000559609
0.000176242
0.000631306
0.000135801
0.000658003
6.41235e-05
0.000636066
-1.3608e-05
0.000579089
-7.22863e-05
0.000525701
-9.32166e-05
0.000484544
-9.06215e-05
0.00045566
-7.71357e-05
0.000436352
-6.07488e-05
0.000423753
-4.55773e-05
0.000415611
-3.31234e-05
0.000410336
-2.35447e-05
0.000406904
-1.6463e-05
0.000404663
-1.13476e-05
0.000403203
-7.69561e-06
0.000402265
-5.08766e-06
0.00040169
-3.19246e-06
0.000401382
-1.75207e-06
-5.72254e-07
0.000468612
0.000118549
0.000533427
0.000111425
0.000585714
8.35146e-05
0.000608431
4.14049e-05
0.000598705
-3.88202e-06
0.000565282
-3.88633e-05
0.000527042
-5.49772e-05
0.000493008
-5.6587e-05
0.000466024
-5.01517e-05
0.000446017
-4.07409e-05
0.000431731
-3.12914e-05
0.000421753
-2.31445e-05
0.000414878
-1.66706e-05
0.000410186
-1.17701e-05
0.000407007
-8.16935e-06
0.000404879
-5.56702e-06
0.000403484
-3.69278e-06
0.000402616
-2.32436e-06
0.000402151
-1.28658e-06
-4.25599e-07
0.000461752
5.68161e-05
0.000515709
5.74679e-05
0.000559155
4.00675e-05
0.000579933
2.0626e-05
0.000576657
-6.06345e-07
0.000555164
-1.73709e-05
0.000526185
-2.59979e-05
0.000497268
-2.76689e-05
0.000472247
-2.51294e-05
0.000452288
-2.07818e-05
0.000437178
-1.61809e-05
0.00042613
-1.20965e-05
0.000418245
-8.78597e-06
0.000412717
-6.24196e-06
0.000408898
-4.35034e-06
0.000406303
-2.97119e-06
0.000404583
-1.97269e-06
0.000403502
-1.24216e-06
0.000402934
-7.18272e-07
-2.5831e-07
0.00045447
0.00050931
0.000547389
0.000567053
0.000566527
0.00055004
0.000525351
0.000499057
0.000475146
0.000455351
0.000439941
0.000428431
0.000420077
0.000414135
0.000409979
0.000407125
0.00040522
0.000404017
0.00040332
9.13047e-10
4.00319e-08
-3.27251e-08
3.80237e-08
-7.96457e-08
-5.74837e-08
8.36001e-09
-1.49843e-07
4.41083e-10
-1.14665e-07
-1.15193e-07
1.75199e-10
6.2701e-08
2.82903e-08
7.74403e-08
2.34516e-08
-3.79399e-08
6.28601e-08
-2.49211e-08
8.20755e-07
-1.66304e-07
9.5193e-09
-7.40402e-08
-5.72515e-08
1.06492e-08
-1.47833e-07
4.01341e-08
-3.28267e-08
3.83148e-08
-1.67509e-07
6.5095e-08
2.90889e-08
7.88936e-08
2.46086e-08
-1.14168e-07
-1.15007e-07
2.72216e-09
-3.79279e-08
6.29168e-08
-2.49898e-08
6.46857e-09
1.61897e-08
-4.60064e-08
-3.60092e-08
2.08274e-08
3.29217e-08
-6.37691e-09
-3.78547e-08
5.93804e-08
6.67828e-09
1.60948e-08
-4.60208e-08
-3.61342e-08
1.46358e-08
2.34087e-08
-4.917e-08
-2.20587e-08
4.41644e-08
2.32021e-08
3.03745e-08
-3.83764e-08
3.31432e-08
1.47589e-08
2.35146e-08
-4.92008e-08
-2.22176e-08
8.82914e-07
3.61172e-10
-2.14356e-08
-2.03978e-08
4.18329e-08
2.07212e-09
-9.33322e-09
-5.00036e-08
-4.4726e-08
-1.5091e-08
-7.87095e-08
1.8532e-08
-1.67581e-08
4.3759e-08
3.32003e-08
-9.94833e-09
-5.74464e-08
-7.12597e-09
5.29447e-08
1.14539e-08
5.29079e-08
1.45854e-08
8.8242e-07
-2.14373e-08
-2.04618e-08
4.18986e-08
-9.34799e-09
-4.8386e-08
-4.45466e-08
-1.44576e-08
-7.819e-08
1.87466e-08
-1.66469e-08
4.50362e-08
-5.27008e-06
2.51776e-09
2.42605e-08
-6.3883e-08
4.46789e-08
4.06245e-06
-1.93854e-07
-7.03901e-10
5.13977e-08
-3.591e-07
5.25564e-08
1.09137e-07
1.09751e-07
-2.69581e-07
-5.53874e-07
-3.47169e-07
7.05221e-06
-1.29281e-06
-5.26901e-06
-2.46054e-08
2.43525e-08
-6.19942e-08
4.64578e-08
4.06195e-06
-5.50992e-07
5.1418e-08
-3.59359e-07
5.24137e-08
1.08118e-07
1.08999e-07
-2.69184e-07
-5.53846e-07
-3.46381e-07
3.60197e-08
1.46852e-07
-3.50866e-09
4.06455e-09
-1.92674e-07
-1.31496e-07
3.60482e-08
1.46864e-07
-9.2351e-10
-1.76916e-08
-1.69579e-08
6.75556e-09
-2.81315e-09
6.16019e-09
-1.01027e-08
2.62745e-08
-9.37827e-10
-1.7722e-08
-1.69645e-08
6.76697e-09
-2.80474e-09
6.09199e-09
-1.00543e-08
4.89841e-07
-3.20278e-08
2.53292e-07
5.60125e-10
5.95064e-08
6.05817e-08
1.07318e-07
1.01231e-09
-1.28949e-08
-3.96374e-09
4.92169e-10
1.9057e-07
1.71872e-08
4.88142e-07
-4.98989e-09
-9.24973e-09
3.28968e-08
4.89803e-07
2.5279e-07
2.93859e-08
1.3299e-09
-1.2165e-08
-3.44437e-09
5.96588e-08
6.05412e-08
1.074e-07
1.90732e-07
1.47463e-07
-1.92941e-07
-4.65554e-07
-2.98978e-07
1.31924e-07
1.19084e-07
3.04989e-07
-7.65889e-08
-8.65915e-10
-6.811e-09
4.86973e-08
-4.10201e-08
-1.60031e-07
1.88121e-07
4.69853e-07
5.81402e-07
1.13271e-08
1.51911e-07
1.47601e-07
-1.93307e-07
-4.65563e-07
-1.68465e-09
1.17846e-07
1.19982e-07
3.04538e-07
-7.837e-08
-8.68426e-10
-6.8771e-09
4.87772e-08
-4.10314e-08
2.04172e-08
7.4461e-09
-1.0223e-08
7.42521e-09
8.84815e-09
-1.00656e-09
-4.85739e-08
-3.81111e-08
-1.48701e-08
-8.23555e-08
-1.29806e-08
-1.50651e-08
2.80767e-08
-1.08427e-09
6.28032e-10
-2.49768e-08
-9.84504e-09
2.20375e-08
-6.22969e-08
9.73112e-09
8.83358e-09
5.93897e-10
8.97907e-09
-5.0169e-08
-3.81261e-08
-1.47173e-08
-8.26419e-08
-3.97645e-11
-1.29729e-08
-1.50942e-08
2.81065e-08
6.20903e-10
-2.66493e-08
-9.65308e-09
2.20334e-08
-6.25077e-08
-9.58505e-09
-4.09216e-08
4.95464e-08
-2.13672e-07
1.99601e-07
4.70757e-07
5.81722e-07
1.26775e-08
1.55937e-07
3.58486e-07
1.42722e-07
-4.6443e-07
-1.92712e-07
1.5812e-07
1.18216e-07
1.20839e-07
3.05803e-07
-7.83938e-08
-9.6626e-09
-4.09304e-08
4.96301e-08
5.51861e-07
1.86439e-07
4.69739e-07
5.81821e-07
1.00579e-08
1.56002e-07
3.58735e-07
1.42783e-07
-4.64436e-07
-1.93082e-07
2.73496e-08
1.28548e-07
2.74005e-08
-1.05379e-08
2.76107e-09
7.77702e-09
-1.05002e-08
2.75196e-09
7.74847e-09
-8.50403e-09
-1.07167e-09
-2.50078e-08
-9.86212e-09
2.20249e-08
-6.23393e-08
9.92024e-09
4.30443e-10
8.91083e-09
-9.98597e-10
-1.91695e-07
-4.87026e-08
-3.81111e-08
-1.49721e-08
-8.24544e-08
-1.30415e-08
2.81306e-08
-1.51489e-08
-8.63701e-09
-2.66872e-08
-9.66989e-09
2.20211e-08
-6.25499e-08
-2.97499e-08
9.84695e-09
5.24829e-10
8.84974e-09
-1.91852e-07
-5.03009e-08
-3.81299e-08
-1.48137e-08
-8.27393e-08
5.26876e-06
-6.8936e-10
5.33862e-08
1.08796e-07
1.09836e-07
-2.69392e-07
-5.5345e-07
-3.46488e-07
7.05961e-06
-1.46066e-07
2.89468e-09
-2.48328e-08
2.36545e-08
-6.41118e-08
4.45964e-08
4.06448e-06
1.29462e-06
5.2677e-06
5.26808e-08
-2.68987e-07
-5.53402e-07
-3.45672e-07
5.3242e-08
1.07811e-07
1.0911e-07
7.05777e-06
-2.51083e-08
2.3757e-08
-6.21629e-08
4.64161e-08
-3.46274e-09
-1.93014e-07
3.72367e-09
3.50885e-08
1.46052e-07
1.68005e-07
-3.62842e-09
-1.93205e-07
3.71722e-09
6.28024e-09
-1.02007e-08
2.63471e-08
9.4123e-09
-9.94726e-10
-1.69952e-08
-1.77713e-08
6.66748e-09
6.21503e-09
-1.01497e-08
2.63846e-08
9.42679e-09
-1.00994e-09
-1.70022e-08
-1.78011e-08
-4.91869e-07
4.92161e-10
1.78309e-08
4.61622e-10
-5.20454e-09
-9.81491e-09
3.245e-08
-3.15738e-08
2.53757e-07
-4.89485e-07
6.00243e-08
6.04656e-08
1.07407e-07
1.30531e-09
-1.23335e-08
-3.63942e-09
-4.91824e-07
1.76532e-08
-5.09827e-09
-9.20562e-09
3.30069e-08
-3.89362e-08
-2.44963e-08
6.34316e-08
8.20008e-07
2.33769e-09
2.24136e-09
9.60185e-09
-7.8865e-08
-5.77566e-08
8.90945e-09
-1.49151e-07
4.00538e-08
-3.28206e-08
3.79911e-08
1.58475e-07
-1.14683e-07
-1.14731e-07
3.19508e-09
6.48191e-08
2.87856e-08
7.89737e-08
2.39337e-08
-3.88705e-08
-2.4591e-08
6.34606e-08
8.19885e-07
9.6474e-09
-7.40641e-08
-5.82898e-08
1.04519e-08
-1.47938e-07
4.01508e-08
-3.29272e-08
3.82792e-08
3.29069e-08
-3.77065e-08
-6.35481e-09
5.92951e-08
6.89217e-09
1.62712e-08
-3.65161e-08
-4.59439e-08
2.08731e-08
3.31032e-08
-3.79698e-08
-6.36084e-09
5.92894e-08
7.10285e-09
1.62076e-08
-3.66433e-08
-4.59582e-08
2.33224e-08
-3.87532e-08
3.04016e-08
3.32455e-08
1.46773e-08
2.351e-08
-2.21313e-08
-4.93032e-08
4.44714e-08
2.32679e-08
-3.88748e-08
3.04093e-08
3.32065e-08
1.47998e-08
2.36161e-08
-2.229e-08
-4.9334e-08
-8.83078e-07
2.04781e-09
-5.01967e-08
-4.4526e-08
-1.49787e-08
-7.88719e-08
1.84925e-08
-1.65656e-08
4.40537e-08
3.60615e-08
8.97109e-10
5.06527e-08
1.20333e-08
5.22258e-08
1.38832e-08
-1.01604e-08
-5.72443e-08
-7.20749e-09
4.19176e-10
-2.11985e-08
4.18376e-08
-2.06396e-08
-8.82579e-07
1.87074e-08
-1.64541e-08
4.53306e-08
-4.85772e-08
-4.43469e-08
-1.43461e-08
-7.83514e-08
3.54026e-08
-1.0084e-08
-5.73275e-08
-7.0042e-09
5.27101e-08
1.17218e-08
5.30684e-08
1.4404e-08
2.43661e-07
7.40804e-11
8.13933e-07
1.55904e-10
2.54375e-08
-3.58973e-08
6.74044e-08
-1.83001e-10
1.00348e-06
5.37115e-08
-4.43304e-08
5.13118e-08
5.67063e-07
-3.07972e-07
2.43651e-07
8.00517e-07
8.1391e-07
2.55364e-08
-3.61696e-08
6.76391e-08
1.00339e-06
5.37969e-08
-4.4643e-08
5.15909e-08
1.21154e-06
6.16016e-09
1.16014e-06
-3.77603e-10
1.38149e-08
1.62578e-08
9.12827e-08
-2.05167e-10
2.18128e-08
-9.35223e-08
-7.42325e-09
5.33609e-07
2.33875e-07
1.21151e-06
1.15982e-06
1.39312e-08
1.60463e-08
9.14757e-08
2.18968e-08
-9.38671e-08
-7.19365e-09
-1.03578e-07
-7.37764e-08
1.60466e-07
2.01103e-09
1.51482e-08
-2.76379e-10
4.09832e-08
5.73854e-08
-1.72327e-10
3.72008e-08
-1.16315e-07
3.67496e-08
2.11721e-08
-4.8923e-08
-4.27137e-08
4.27544e-08
-6.93172e-10
4.31937e-08
-3.10807e-10
4.25404e-08
-4.80967e-08
-1.00153e-07
-6.44557e-08
9.90302e-08
6.51844e-08
3.89932e-10
3.42933e-08
4.32729e-08
-4.04271e-08
-3.83931e-11
1.33491e-08
-4.08182e-08
7.40715e-08
-5.92124e-09
1.89652e-08
-5.12538e-08
3.91953e-08
-4.4652e-10
-2.71928e-08
6.7085e-11
7.65189e-08
-5.41259e-08
-2.07093e-07
2.60045e-07
1.16477e-09
4.79996e-08
-1.41374e-07
-3.77304e-10
4.97079e-08
-2.26322e-07
6.54363e-08
-7.08611e-09
-3.3845e-08
-2.15504e-07
4.60709e-08
-2.29155e-09
-3.08726e-07
-2.1074e-09
2.12107e-08
-2.0664e-08
-5.46207e-10
2.37422e-08
-2.58024e-09
5.11595e-11
7.11235e-08
-5.08448e-08
7.56296e-11
-1.05785e-07
-1.68678e-08
5.54314e-08
1.92999e-08
-6.56395e-10
8.76451e-09
7.47572e-08
-1.41037e-08
-8.09818e-11
4.52383e-09
2.6835e-08
-1.97733e-08
1.22715e-08
7.99356e-09
-5.31477e-11
3.82043e-08
-9.01337e-11
1.03908e-08
-4.71985e-08
-7.38952e-09
4.95707e-08
-1.93337e-08
-6.60357e-10
-4.04881e-09
-8.96676e-09
-5.73959e-13
-1.60243e-11
2.90333e-08
-1.081e-08
8.77391e-12
-2.21089e-08
1.49136e-08
-7.93384e-09
-1.51536e-11
-1.53206e-10
-3.8433e-08
-2.98742e-11
-1.03638e-08
1.61945e-07
-7.34766e-08
1.33122e-10
3.84472e-08
2.16459e-07
3.09e-07
1.18886e-09
-6.89027e-08
8.3648e-08
-1.54619e-08
7.13463e-10
-6.93512e-09
-3.60357e-08
-3.93889e-11
4.30101e-08
-3.24036e-08
-4.34035e-08
-4.54156e-11
4.79369e-08
-1.36415e-08
-2.96668e-08
4.61437e-08
-2.38542e-09
1.9279e-08
-4.04866e-08
7.51037e-12
-1.51513e-08
-8.41357e-09
2.079e-08
1.09648e-08
2.7658e-08
-4.71974e-08
-2.39739e-08
-4.98843e-10
-6.60063e-09
-3.51e-10
-2.42517e-07
-4.1563e-10
5.37449e-08
-4.43376e-08
5.1373e-08
5.66626e-07
-7.21402e-09
-2.875e-10
7.98502e-07
8.1418e-07
3.12639e-07
2.55657e-08
-3.59303e-08
6.78781e-08
-2.42504e-07
1.00286e-06
5.38306e-08
-4.46503e-08
5.16518e-08
5.66604e-07
7.9856e-07
-1.20881e-06
-2.17063e-10
2.1612e-08
-9.34067e-08
-7.26684e-09
5.32596e-07
-7.20735e-11
6.13032e-09
1.15932e-06
-2.34017e-07
1.40647e-08
1.61086e-08
9.16856e-08
-1.20878e-06
2.16957e-08
-9.37507e-08
-7.03743e-09
5.32572e-07
-6.57905e-10
-8.44176e-08
7.29226e-08
-4.80093e-09
2.21417e-09
-4.02306e-08
7.8557e-11
2.17233e-08
-1.59869e-08
-4.70644e-10
-3.69444e-08
6.92486e-08
-2.90026e-08
-1.39794e-09
3.31067e-08
-1.4014e-09
-8.27168e-08
-3.35933e-10
-8.39156e-08
7.073e-08
2.40148e-09
-4.02465e-08
2.20007e-08
-1.61485e-08
-3.00198e-10
-3.59353e-08
6.87178e-08
-2.8749e-08
3.34973e-08
-8.25029e-08
-9.84742e-08
-1.69588e-08
1.15671e-07
1.76909e-09
-2.6455e-08
5.59162e-08
-4.27664e-11
3.0237e-08
-8.38413e-08
-1.17318e-08
-7.55289e-08
-6.53132e-10
3.3377e-11
-6.93771e-08
8.48199e-08
-2.97769e-10
-7.15923e-09
-3.60303e-08
-2.38371e-10
-1.02498e-07
-7.36617e-08
1.59892e-07
1.94342e-09
1.49134e-08
4.10027e-08
5.74125e-08
3.7177e-08
-1.16596e-07
3.67844e-08
2.12645e-08
-4.90121e-08
-4.30765e-08
4.27794e-08
4.32425e-08
4.25545e-08
-4.82046e-08
-9.74364e-08
-1.6882e-08
1.17041e-07
-2.64554e-08
5.59079e-08
4.04158e-08
3.01768e-08
-8.40221e-08
-1.1864e-08
-7.5705e-08
5.1412e-08
2.72238e-08
-6.92869e-08
8.42559e-08
-7.21432e-09
-3.6167e-08
-5.90284e-08
-2.29609e-08
1.14524e-07
3.21674e-08
4.77685e-10
-4.16744e-09
3.94894e-08
-1.22344e-10
3.09743e-08
-9.95987e-08
2.34209e-08
-8.17902e-08
-2.10986e-08
-4.52771e-10
3.28453e-08
-2.19697e-10
9.83934e-09
-2.33709e-08
5.53073e-08
2.28971e-10
-2.92697e-09
-6.54454e-08
4.72784e-08
-4.70014e-11
6.60277e-09
-9.94432e-08
-6.4534e-08
9.85772e-08
6.5393e-08
3.42963e-08
4.32661e-08
1.32953e-08
-4.09211e-08
7.40781e-08
-6.0011e-09
1.90388e-08
3.9187e-08
7.67901e-08
-5.82143e-08
-2.28354e-08
1.14752e-07
3.21268e-08
-4.16029e-09
3.95115e-08
3.08351e-08
-9.98255e-08
2.35046e-08
-8.19029e-08
-2.13122e-08
3.28798e-08
9.82461e-09
-2.32178e-08
5.5805e-08
-3.10322e-09
-6.56521e-08
4.74479e-08
6.52045e-09
-2.93904e-08
-1.32122e-08
4.58886e-08
-2.40572e-09
-4.06363e-08
1.92092e-08
4.85354e-12
1.10261e-08
2.76035e-08
-1.51305e-08
-8.43262e-09
-3.42327e-10
-4.86933e-10
-2.93318e-08
-1.30839e-08
4.44525e-08
-4.06659e-08
1.92536e-08
1.09142e-08
2.75097e-08
-1.50777e-08
-8.36438e-09
2.07698e-08
-2.38374e-08
3.64322e-08
-2.13437e-10
1.59663e-07
9.0053e-11
4.04989e-08
1.20811e-09
-5.31415e-08
-2.0691e-07
2.61081e-07
4.79694e-08
-1.41663e-07
5.06631e-08
-2.27125e-07
6.54653e-08
-4.91574e-09
-3.4013e-08
-2.15811e-07
4.59998e-08
-3.0902e-07
3.67151e-08
1.59669e-07
-7.11045e-08
3.9147e-08
-7.04943e-08
-5.43294e-08
1.24564e-07
2.54735e-10
1.08647e-08
1.83611e-09
-1.90639e-10
1.74567e-08
-5.24569e-08
6.04718e-09
-7.19371e-08
3.90465e-08
-9.96788e-10
-1.33158e-08
-7.81454e-10
5.87289e-10
-1.06264e-10
6.70535e-09
1.6063e-08
-6.21938e-10
2.12583e-08
-4.81605e-10
-2.53142e-09
-7.0172e-08
-5.41672e-08
1.24812e-07
1.08226e-08
1.80177e-09
1.78422e-08
-5.26962e-08
6.81429e-09
-7.21084e-08
3.90575e-08
-1.34073e-08
6.21769e-10
6.71353e-09
1.68517e-08
-1.4711e-07
5.4954e-08
3.42328e-07
-5.75643e-08
8.65855e-09
-1.12732e-07
-5.9699e-08
-4.61782e-10
2.55813e-08
-3.01501e-07
-5.60079e-08
-1.83782e-07
-2.25822e-07
-1.53342e-10
-5.96714e-08
-1.04111e-09
-1.28962e-07
4.3276e-08
-2.84863e-07
3.06276e-07
9.66186e-09
6.96116e-08
-7.6763e-08
1.5106e-11
3.27395e-10
-5.38583e-08
-1.23259e-07
5.56255e-08
2.23241e-08
4.84587e-11
-6.38886e-10
-3.96836e-10
-5.80768e-10
-1.47014e-07
5.62028e-08
3.45719e-07
-5.80664e-08
-1.12941e-07
-5.97071e-08
5.0607e-08
2.50887e-08
-3.02415e-07
-5.52299e-08
-1.84159e-07
-2.26233e-07
-5.96771e-08
-1.29557e-07
4.42974e-08
-2.8469e-07
3.09457e-07
6.96794e-08
-7.68648e-08
3.28175e-10
-5.3658e-08
-1.2379e-07
5.67268e-08
2.21159e-08
4.18898e-11
-5.86047e-10
4.76069e-11
1.41789e-08
-7.37509e-09
-4.7168e-08
4.94377e-08
-5.75082e-10
-8.88505e-09
-4.05886e-09
-2.4567e-11
-2.19695e-08
1.48984e-08
2.90569e-08
-1.08121e-08
-2.53999e-11
-1.44832e-10
-1.05769e-07
-1.68244e-08
5.40303e-08
1.93176e-08
8.67133e-09
7.48524e-08
4.47066e-09
2.67719e-08
-1.96742e-08
1.22384e-08
8.02089e-09
3.82661e-08
1.04118e-08
-7.40366e-09
-4.71128e-08
4.80571e-08
-8.8959e-09
-4.08516e-09
6.56772e-13
-2.19399e-08
1.48669e-08
2.93064e-08
-1.08594e-08
-8.88152e-12
1.51581e-11
-2.84739e-07
4.34717e-08
3.06259e-07
5.76033e-08
9.45056e-09
-7.8237e-08
6.90492e-08
-2.66561e-11
5.69804e-08
2.20706e-08
-5.41726e-08
-1.23261e-07
2.26868e-07
-4.00756e-10
5.90963e-08
-7.00926e-10
1.28617e-07
5.39722e-08
-1.48358e-07
3.42548e-07
9.03277e-09
-6.0559e-08
-1.11841e-07
-4.32937e-10
4.61666e-08
-5.35237e-08
-1.84042e-07
2.47855e-08
-3.00198e-07
-1.01654e-09
-1.75296e-10
-2.84564e-07
4.44949e-08
3.09405e-07
5.81126e-08
-7.83388e-08
6.91184e-08
5.80783e-08
2.1867e-08
-5.397e-08
-1.23793e-07
2.27282e-07
5.90985e-08
1.29213e-07
5.52252e-08
-1.4826e-07
3.4624e-07
-6.05602e-08
-1.12054e-07
4.59484e-08
-5.27401e-08
-1.84416e-07
2.43386e-08
-3.01109e-07
3.73315e-11
7.34371e-08
4.82734e-11
1.42661e-08
-6.53491e-09
1.43429e-08
-6.54326e-09
-1.69862e-08
-1.0593e-07
5.56271e-08
-7.51768e-10
7.51054e-08
9.02695e-09
-8.38246e-11
-1.97725e-08
1.22629e-08
4.49982e-09
2.68025e-08
-8.95181e-11
-5.34418e-11
-4.71437e-08
-7.41819e-09
4.81194e-08
-1.93513e-08
-4.07521e-09
-8.97767e-09
2.93254e-08
-1.08571e-08
-2.20793e-08
1.48821e-08
-7.96117e-09
-3.84951e-08
-1.03847e-08
-1.69422e-08
-1.05913e-07
5.41631e-08
7.52009e-08
8.93354e-09
-1.96726e-08
1.223e-08
4.44303e-09
2.67395e-08
-2.07084e-07
-5.44877e-08
2.60382e-07
1.17975e-09
-1.41968e-07
4.73719e-08
-3.79548e-10
-6.67062e-09
-3.39958e-08
5.05696e-08
-2.26529e-07
6.47165e-08
-2.12718e-09
4.64235e-08
-2.28379e-09
3.51403e-08
2.96772e-08
1.15555e-10
8.13987e-08
1.61965e-07
3.71645e-08
2.16767e-07
3.09303e-07
-2.069e-07
-5.35032e-08
2.61423e-07
-1.42257e-07
4.73415e-08
-4.43576e-09
-3.41658e-08
5.15107e-08
-2.27333e-07
6.47427e-08
4.63525e-08
3.51601e-08
2.9684e-08
8.14777e-08
8.55657e-10
-1.12848e-10
1.61367e-08
-3.94014e-08
1.34634e-08
-6.27963e-10
2.15973e-08
-8.0621e-10
-2.43165e-09
5.19125e-11
-5.44091e-08
-7.07868e-08
1.24952e-07
2.39356e-10
1.78936e-09
1.06845e-08
-1.90916e-10
5.93616e-09
-7.21462e-08
1.74825e-08
-5.26203e-08
-7.69935e-10
-9.95813e-10
8.92072e-10
1.69338e-08
-3.94117e-08
1.35555e-08
2.16397e-08
-7.42093e-10
-2.08971e-08
-2.38236e-09
2.40689e-08
-5.42466e-08
-7.04636e-08
1.2519e-07
1.75484e-09
1.06426e-08
6.69995e-09
-7.2318e-08
1.78695e-08
-5.28594e-08
-8.36906e-08
-5.73479e-10
7.27357e-08
-4.40445e-09
-4.15256e-08
2.5616e-09
2.17951e-11
-3.49412e-08
6.85818e-08
2.09836e-08
-1.53421e-08
-7.70541e-10
-5.19731e-10
-8.3588e-08
-4.90055e-10
7.09958e-08
-4.15747e-08
2.71648e-09
-3.45139e-08
6.83933e-08
2.02978e-08
-1.53041e-08
3.8958e-11
3.259e-08
-7.38649e-08
-1.03944e-07
1.58961e-07
2.13995e-09
1.24002e-09
5.77568e-08
4.08372e-08
-1.71976e-10
2.12861e-08
-4.87942e-08
3.76213e-08
-1.16453e-07
3.67066e-08
-2.29583e-10
4.29173e-08
-7.03959e-10
4.23822e-08
-1.6693e-08
-9.86491e-08
1.17426e-07
5.18238e-11
5.65224e-08
-2.68501e-08
-6.48067e-11
4.03659e-08
-1.26863e-08
-7.50763e-08
5.12241e-08
3.05784e-08
-8.41711e-08
2.40881e-11
2.71318e-08
-6.59455e-10
-6.88128e-08
8.40842e-08
-1.52308e-08
-7.12737e-09
-3.61721e-08
4.33752e-08
-4.34537e-08
4.8043e-08
-7.37507e-08
-1.02863e-07
1.59898e-07
2.0721e-09
5.77847e-08
4.08568e-08
2.13695e-08
-4.88841e-08
3.76024e-08
-1.16735e-07
3.67416e-08
4.29425e-08
4.23949e-08
-1.66168e-08
-9.76074e-08
1.17057e-07
5.65131e-08
-2.68506e-08
4.03545e-08
-1.27971e-08
-7.52505e-08
5.13822e-08
3.0526e-08
-8.43537e-08
2.71627e-08
-2.35905e-08
5.53014e-08
-3.21609e-08
4.47898e-10
-2.78067e-09
-6.55525e-08
2.11346e-08
-3.29233e-08
-4.78743e-11
-9.72959e-09
-6.40972e-08
-1.00411e-07
9.94077e-08
6.49077e-08
1.88733e-10
4.37498e-08
3.3953e-08
-4.60953e-11
-6.7384e-09
1.9211e-08
1.36495e-08
-4.1112e-08
7.41642e-08
4.69653e-11
3.91081e-08
-4.47525e-10
7.66452e-08
-2.31128e-08
-5.92429e-08
1.14391e-07
7.07159e-10
3.9355e-08
-4.27705e-09
-1.2196e-10
2.36908e-08
-8.19428e-08
3.1227e-08
-9.97778e-08
-2.03274e-10
-4.56914e-10
-2.34371e-08
5.60202e-08
-3.21205e-08
-2.95559e-09
-6.57596e-08
2.13487e-08
4.73664e-08
-3.29577e-08
6.51804e-09
-9.71459e-09
-6.41761e-08
-9.96974e-08
9.87522e-08
6.51165e-08
4.37421e-08
3.3956e-08
-6.77634e-09
1.92861e-08
1.35961e-08
-4.12161e-08
7.41708e-08
3.90998e-08
7.69174e-08
-2.29869e-08
-5.84269e-08
1.14852e-07
3.93771e-08
-4.26982e-09
2.37752e-08
-8.2056e-08
3.10922e-08
-1.00005e-07
-1.3511e-08
-2.96077e-08
4.47334e-08
1.9323e-08
-4.05169e-08
-1.50487e-08
-8.34452e-09
1.08779e-08
2.75646e-08
)
;

boundaryField
{
    inlet
    {
        type            calculated;
        value           nonuniform List<scalar> 
20
(
-0.0004
-0.00040002
-0.00040002
-0.00040006
-0.000400178
-0.000400338
-0.000400568
-0.000400674
-0.00039957
-0.000398572
-0.000398572
-0.000399568
-0.000400676
-0.000400568
-0.000400338
-0.000400178
-0.00040006
-0.00040002
-0.00040002
-0.0004
)
;
    }
    outlet
    {
        type            calculated;
        value           nonuniform List<scalar> 
20
(
0.000403123
0.000402783
0.000402018
0.000401296
0.000400451
0.000399561
0.000398711
0.000397983
0.000397451
0.00039717
0.000397167
0.000397445
0.000397974
0.0003987
0.00039955
0.00040044
0.000401284
0.000402005
0.000402767
0.000403069
)
;
    }
    up
    {
        type            calculated;
        value           nonuniform List<scalar> 
20
(
2.3455e-06
2.62749e-06
1.98765e-06
9.62108e-07
-8.07832e-08
-8.83229e-07
-1.30801e-06
-1.37436e-06
-1.2179e-06
-9.87709e-07
-7.70035e-07
-5.86856e-07
-4.3192e-07
-3.00124e-07
-1.94007e-07