/*--------------------------------*- C++ -*----------------------------------*\
  =========                 |
  \\      /  F ield         | OpenFOAM: The Open Source CFD Toolbox
   \\    /   O peration     | Website:  https://openfoam.org
    \\  /    A nd           | Version:  8
     \\/     M anipulation  |
\*---------------------------------------------------------------------------*/
FoamFile
{
    version     2.0;
    format      ascii;
    class       volVectorField;
    location    "32";
    object      U;
}
// * * * * * * * * * * * * * * * * * * * * * * * * * * * * * * * * * * * * * //

dimensions      [0 1 -1 0 0 0 0];

internalField   nonuniform List<vector> 
2844
(
(0.985157 -0.00374782 0.000103144)
(1.02455 -0.00582435 -0.000123278)
(1.04578 -0.000851433 -0.000335172)
(1.05809 -0.008616 0.000201584)
(1.0784 -0.00420129 0.000309607)
(1.08915 -0.0163532 0.000440011)
(1.12615 -0.0104834 0.000219966)
(1.09296 0.0051784 -0.000128705)
(1.05725 0.00762457 1.69303e-05)
(1.02238 0.0148577 -0.000104489)
(0.994121 0.0108813 -1.04815e-05)
(0.989836 0.0107724 0.000120653)
(0.95629 0.00717186 3.39337e-05)
(0.942179 0.00219363 -1.94692e-05)
(0.908543 0.0026404 2.64156e-05)
(0.900272 -0.0213853 7.26607e-05)
(0.940407 -0.0260684 -0.00012667)
(0.951784 -0.0282651 -0.000100271)
(0.99856 -0.0235054 -2.77015e-06)
(1.01908 -0.0110048 -7.94315e-06)
(0.982505 -0.00730901 0.000324589)
(1.02826 -0.0432498 -0.000482375)
(1.04778 -0.0284691 -0.000800549)
(1.06976 -0.010903 0.000556251)
(1.08698 -0.0235878 0.00110033)
(1.0985 -0.0220598 0.0010138)
(1.15189 0.00803614 0.000520841)
(1.10141 0.0435047 8.40156e-05)
(1.07459 0.0553041 -0.000240084)
(1.03963 0.0398868 0.000158077)
(0.996107 0.01305 0.000616793)
(0.997325 0.017592 0.000283153)
(0.953347 0.0340019 0.000276234)
(0.94134 0.0311952 0.000431239)
(0.892854 0.0354314 0.000435177)
(0.885085 -0.00549615 9.15044e-05)
(0.938639 -0.0171115 -0.000129242)
(0.958607 -0.0127377 -4.07406e-05)
(1.0278 -0.0285703 -0.000128276)
(1.04074 -0.00755641 3.70926e-05)
(0.980623 -0.0140949 0.000577936)
(1.03919 -0.0558214 -0.00162928)
(1.06782 -0.0263519 -0.00182198)
(1.09478 -0.0400762 0.00393835)
(1.12624 -0.0338743 0.0048815)
(1.15701 -0.086461 0.0020148)
(1.17244 -0.0122627 0.00113514)
(1.13806 0.0550657 -0.00102792)
(1.09597 0.0538824 -0.00146285)
(1.03901 0.0813805 -0.00113094)
(1.00484 0.0336819 0.000711231)
(1.00768 0.0455401 0.00183156)
(0.994356 0.0549613 0.00154768)
(0.985546 0.0394785 0.000898943)
(0.907791 0.0504627 0.000634979)
(0.880752 -0.0619056 -0.00094486)
(0.963888 -0.0849897 -0.00377468)
(0.990048 -0.0954993 -0.00319674)
(1.03111 -0.0908177 -0.000741391)
(1.05807 -0.0233271 -0.000170057)
(0.968726 -0.0335361 -6.0222e-05)
(1.07828 -0.104118 -0.00744595)
(1.05811 -0.0706722 0.00341335)
(1.11915 -0.0601419 0.0106339)
(1.2098 -0.109291 0.00906509)
(1.18898 -0.0744308 0.00568519)
(1.23472 0.0119781 0.00432253)
(1.14385 0.09725 -0.00529345)
(1.16838 0.183998 -0.00507541)
(1.15087 0.117447 -0.00563452)
(1.04304 0.0376214 -0.0057084)
(1.07672 0.0132476 0.00360456)
(1.01627 0.0405076 0.00657775)
(0.957954 0.0905868 0.00358653)
(0.82758 0.122863 0.00682711)
(0.823563 -0.0382559 -0.00264676)
(0.950856 -0.0587188 -0.0116557)
(0.993062 -0.0154175 -0.0118697)
(1.1581 -0.0610025 -0.00501321)
(1.16805 -0.0276352 0.00085277)
(0.996821 -0.0438619 -0.00285612)
(1.09349 -0.0800214 -0.0101263)
(1.0986 -0.0804946 0.0115798)
(1.25329 -0.219322 0.0168546)
(1.32758 -0.142529 0.0175647)
(1.33284 -0.207598 0.0152972)
(1.31538 -0.0134467 -0.00385563)
(1.19869 0.116855 -0.00377966)
(1.17941 0.0894646 -0.00628772)
(1.15763 0.253293 -0.0243264)
(1.13165 0.146407 -0.0115461)
(1.10403 0.0601403 -0.00324899)
(1.06182 0.0933518 -0.0121011)
(1.1138 0.13924 0.00572222)
(1.00328 0.105471 0.0128753)
(0.884498 -0.152057 -0.0157463)
(0.990493 -0.123445 -0.0214484)
(1.04769 -0.159609 -0.0280497)
(1.19023 -0.189162 -0.0323912)
(1.18088 -0.0329943 -0.0118683)
(1.02439 -0.0855187 -0.0144835)
(1.06084 -0.122495 0.0117208)
(1.11472 -0.345057 0.00410145)
(1.42359 -0.262231 0.0118644)
(1.45206 -0.181472 0.0181515)
(1.58977 -0.145261 0.0283784)
(1.39957 0.0851026 0.0092119)
(1.15373 0.141057 -0.00793968)
(1.33588 0.350549 -0.0090826)
(1.24615 0.334453 0.0103144)
(0.932937 0.167858 -0.0190605)
(1.21584 0.131608 -0.0414054)
(1.35871 0.161154 0.00469959)
(1.13347 0.124351 0.046522)
(1.03735 0.253547 0.022962)
(0.811788 0.127984 -0.0146933)
(0.944655 -0.0381852 -0.0186292)
(1.02249 0.0118906 -0.0104998)
(1.12553 0.0524385 -0.0105087)
(1.25708 0.0683309 -0.00889825)
(0.991493 0.0147499 -0.00345923)
(1.19403 -0.238878 -0.0101882)
(1.36913 -0.476389 0.0146301)
(1.67961 -0.679122 0.0514963)
(1.85106 -0.42443 0.0246884)
(1.66378 -0.179234 0.0272402)
(1.62488 0.334415 0.0358442)
(1.45585 0.0885746 -0.00469569)
(1.83135 -0.0313704 0.0432928)
(1.41796 0.443755 0.0303046)
(1.40035 0.342746 -0.0679072)
(1.81846 0.0748296 -0.0152929)
(1.16667 0.0968809 0.0571532)
(0.847503 -0.0218335 -0.00979137)
(1.00632 0.18592 -0.0221447)
(1.00364 0.000335732 3.03618e-05)
(1.1101 -0.221048 -0.00530217)
(0.870503 -0.347473 0.0116262)
(1.03225 -0.407448 0.0292272)
(1.29708 -0.105402 0.0120351)
(0.912346 -0.103697 -0.00113804)
(1.33754 -0.425621 0.0083828)
(1.41955 -1.04859 0.0800434)
(1.80109 -1.37003 -0.0204349)
(1.89705 -0.462683 -0.0658052)
(1.45473 -0.0565186 -0.020959)
(1.18861 0.376842 -0.0681282)
(1.32215 0.0148067 -0.228869)
(1.8827 0.0778784 0.0149723)
(1.64576 0.459287 0.0511501)
(1.18539 0.169623 0.0915365)
(1.26798 0.417383 -0.0678719)
(1.66246 0.528501 -0.167412)
(1.78886 0.37286 -0.0751621)
(1.61163 0.336159 0.0543052)
(1.38405 0.114716 -0.0238091)
(1.35475 0.0942207 -0.0723675)
(1.26808 -0.1017 -0.00797467)
(1.05049 -0.556521 0.0317944)
(1.12045 -0.237117 0.0187718)
(1.25606 -0.155082 -0.0606832)
(1.8587 -0.34274 0.0940114)
(0.854738 -1.63735 0.0284694)
(-0.267062 0.274843 -0.0451776)
(0.311074 0.502402 -0.0741074)
(0.690555 -0.192034 -0.0212449)
(1.2244 0.497588 -0.0675717)
(0.615539 0.112995 0.0355736)
(1.06069 0.270205 0.0724634)
(1.07777 0.491759 0.0639419)
(0.940415 0.27963 0.00391993)
(0.97914 0.124714 -0.11541)
(0.886447 0.412093 -0.129006)
(0.980408 0.343391 -0.00685681)
(1.03391 -0.109517 0.0453666)
(0.850293 -0.503506 0.0224682)
(0.867272 -0.249394 0.00759285)
(0.507582 -0.57836 -0.0338091)
(0.363893 -0.943131 0.0283926)
(0.0633931 -0.544905 -0.221538)
(0.0397841 0.185758 -0.0078366)
(-0.0993618 -0.117183 0.13052)
(0.275851 -0.362117 -0.0122032)
(0.288318 0.653955 0.0232886)
(-0.142761 -0.272403 0.105003)
(0.317544 -0.345182 0.121226)
(0.547879 0.308123 -0.0071056)
(0.698001 0.295391 -0.110143)
(0.823842 0.85306 -0.141173)
(0.750817 0.62764 0.0307265)
(0.79889 -0.125639 0.0763483)
(0.833133 -0.25165 0.0198916)
(0.832311 -0.417348 -0.0202858)
(0.863532 -0.214093 -0.0144387)
(1.18016 -0.0698514 -0.265536)
(1.24108 0.247599 -0.00615)
(-0.0231767 0.255041 0.00166238)
(-0.256789 -0.5665 0.0215018)
(-0.160683 -0.703818 0.0107132)
(0.00740633 0.411244 -0.00841091)
(0.324238 -0.374565 0.0720271)
(0.252939 -0.333796 -0.0429321)
(0.452687 0.388972 -0.0702594)
(0.188906 0.578781 -0.0330386)
(0.300948 0.768577 0.00109532)
(0.868138 -0.180343 0.0676295)
(0.904106 -0.314885 0.0410486)
(0.88893 -0.21105 0.0339871)
(0.790874 -0.313481 0.0114452)
(0.768124 -0.11935 -0.014866)
(1.38622 0.345755 -0.0822776)
(0.951106 0.6266 0.0513406)
(0.47319 0.86181 0.00832323)
(0.200287 0.122333 0.0121098)
(0.565098 -0.304046 0.017786)
(0.333587 -0.635426 0.059735)
(-0.0228352 0.572138 -0.103883)
(1.04711 -0.237434 -0.0859269)
(0.783868 -0.35286 -0.0192645)
(0.492017 0.648807 -0.0428625)
(0.124037 0.66465 0.0039128)
(0.399326 0.316443 0.00205663)
(1.13494 -0.326602 -0.0212325)
(1.09884 -0.456063 0.00951703)
(1.24423 -0.425631 0.0430502)
(0.899753 -0.299238 0.0634475)
(0.578328 -0.00512186 0.0232292)
(1.15784 0.438641 -0.0196675)
(1.38576 -0.058824 0.011477)
(1.06105 0.893269 0.0560961)
(0.527509 -0.195578 -0.00140964)
(1.32502 -0.168817 0.0441097)
(1.15722 -0.480273 -0.0394126)
(1.95536 -0.680635 -0.028185)
(0.985064 0.150544 0.0413629)
(1.62822 -0.187151 -0.0685153)
(1.39448 -0.272486 -0.00729451)
(0.618989 0.746946 -0.0154483)
(0.74907 0.450102 0.0114237)
(1.05485 -0.0752519 0.0274084)
(1.3634 -0.489707 -0.00939761)
(1.1672 -0.411986 -0.0200407)
(1.20095 -0.341434 -0.014472)
(1.20742 -0.247126 0.0188522)
(0.892005 0.00235009 0.0307053)
(1.04581 0.0437916 0.0139261)
(1.30353 0.374672 -0.0243864)
(1.22193 0.588703 -0.0207449)
(1.84127 0.926019 0.0166385)
(2.25792 0.760941 -0.022512)
(1.30622 -0.425897 0.0476964)
(1.58806 -0.199735 0.0295015)
(1.40947 -0.560611 0.0593185)
(1.02668 -0.23801 -0.0355573)
(1.19066 0.32968 -0.0236453)
(1.48832 0.0537287 -0.00401044)
(0.97266 0.40164 0.00995214)
(0.700343 0.75497 0.0302612)
(1.29066 0.0016986 -0.0218933)
(1.67848 -0.438626 -0.00326179)
(1.28962 -0.221461 0.0300416)
(0.86937 -0.0233655 0.00641318)
(0.978794 -0.299069 -0.0372261)
(1.06869 -0.276959 -0.0447575)
(0.931862 -0.00123563 -0.0133479)
(0.961412 0.0082148 -0.00337204)
(1.079 0.109641 0.00876945)
(1.20711 0.420169 -0.00517234)
(1.37427 0.255935 0.00765553)
(1.72864 0.146122 0.0471159)
(1.32401 -0.288537 0.0478639)
(1.0052 -0.273109 -0.00704377)
(1.22066 -0.448449 -0.0453746)
(1.09039 -0.436723 -0.00375625)
(1.16609 0.0411431 -0.0137527)
(1.34433 0.0303139 0.00604563)
(1.09318 0.154116 0.0340683)
(1.2498 0.169143 0.0408161)
(1.41474 0.0240724 0.00331139)
(1.21396 0.0178131 -0.0211124)
(1.14036 -0.157102 -0.00302325)
(1.08211 -0.219066 0.0282508)
(0.912973 -0.252443 0.00980181)
(0.829245 0.0155492 -0.0441161)
(0.932569 0.174603 -0.0319366)
(0.996678 0.00754493 -0.00596241)
(1.04087 0.103847 0.00111661)
(1.17362 0.277758 0.0135684)
(1.24993 0.187025 0.021481)
(1.31847 0.0838873 0.018912)
(1.28049 -0.0972169 -0.00836996)
(1.13746 -0.12904 -0.00406433)
(1.15272 -0.160058 -0.0317496)
(1.11229 -0.131225 -0.0340159)
(1.13705 0.132575 0.00560917)
(1.10025 0.103191 0.016194)
(1.0523 0.131761 0.0084786)
(1.23764 0.128615 0.0166044)
(1.1831 0.00953902 0.0301232)
(1.11141 -0.079266 0.0183564)
(1.08186 -0.112945 -0.0142208)
(1.09263 -0.0626613 -0.0100778)
(0.998665 -0.156966 0.0108606)
(0.869895 0.0104806 0.00733881)
(1.00821 0.139975 0.000235903)
(1.0026 0.023715 -0.00261355)
(1.01561 0.00548311 0.000452982)
(1.07571 0.0912611 0.00663742)
(1.14776 0.0367049 0.00681445)
(1.17942 0.0469511 0.00496668)
(1.1542 -0.0593005 -0.00243926)
(1.11932 -0.0965643 -0.0124121)
(1.1343 -0.125594 -0.00125303)
(1.01165 -0.138346 0.00229169)
(0.988095 -0.0252833 0.0058137)
(1.04952 -0.0191872 0.00789098)
(1.03586 0.0111571 0.00704971)
(1.10304 -0.00541664 0.00276392)
(1.11178 -0.0557733 -0.00195202)
(1.12272 -0.035937 0.00326809)
(1.01849 -0.0526446 0.00687608)
(0.959604 -0.0866048 0.00267737)
(0.923571 -0.146801 -0.00881171)
(0.882092 -0.00668947 -0.0110725)
(1.00646 0.0779538 -0.00211192)
(1.01003 0.00894538 -0.000397259)
(1.01179 0.0351217 -0.000653729)
(1.0545 0.0696739 0.00184979)
(1.0681 0.0562494 0.00442153)
(1.09255 0.0473136 0.00107987)
(1.12659 -0.00051606 -0.00379781)
(1.09977 -0.0142699 -0.00277641)
(1.08592 -0.0464078 -0.000740991)
(1.03064 -0.0430762 0.000891437)
(0.986933 0.0478068 0.00242093)
(1.01323 0.0398683 0.00137834)
(1.01191 0.0280546 0.00156879)
(1.04301 0.0412516 0.00246123)
(1.00522 0.00899591 0.0025996)
(1.00581 -0.0239703 0.000255812)
(0.997337 -0.0461816 -0.000942771)
(0.98396 -0.00870172 -0.000100126)
(0.942733 -0.0236732 0.000289528)
(0.876603 0.0287934 -0.00012641)
(0.961986 0.0623476 5.5963e-05)
(1.00372 0.00172397 -0.000114401)
(1.00085 0.00146698 -0.000310675)
(1.03011 0.0164215 0.000802982)
(1.04355 -0.000822924 0.000717669)
(1.06682 0.0106259 -0.000563135)
(1.08929 -0.0191852 -0.000778322)
(1.06545 -0.0383834 -0.000136743)
(1.04641 -0.0475089 0.000407176)
(0.997992 -0.0611033 -0.000201701)
(0.971975 -0.0297141 -0.000351594)
(1.01438 -0.0268655 -1.81782e-05)
(0.994883 -0.0252297 9.83014e-06)
(1.01636 -0.0240213 -0.000203797)
(1.00851 -0.0338295 -1.13737e-05)
(1.008 -0.0238496 0.000191841)
(0.967762 -0.0305823 0.000139713)
(0.943442 -0.034206 -0.000127566)
(0.940418 -0.0555763 -0.000152004)
(0.89596 -0.0161984 -0.000491883)
(0.953354 0.0162629 -0.000536191)
(1.00355 0.0039996 -6.61145e-05)
(1.00145 0.0118852 1.17599e-05)
(1.02386 0.0173628 0.000277091)
(1.03497 0.020111 3.19106e-05)
(1.05588 0.0166 -0.000263219)
(1.07791 0.011362 -0.000133165)
(1.05542 0.00990392 4.10392e-05)
(1.03746 0.00638204 5.75123e-05)
(1.00871 0.0123729 -5.75372e-05)
(0.978709 0.029134 -0.000142499)
(1.00272 0.0289401 -2.90477e-05)
(0.98866 0.0250084 4.08001e-05)
(1.00392 0.0260429 3.75331e-05)
(0.983937 0.0167064 5.21011e-05)
(0.986455 0.00736077 -2.63654e-05)
(0.966029 0.00178095 -2.59574e-05)
(0.949803 0.0126785 -4.75757e-05)
(0.941772 0.013291 4.2917e-05)
(0.898228 0.0188594 -9.48709e-05)
(0.945119 0.0207782 -0.00018302)
(0.985148 -0.0035961 0.000210526)
(1.0243 -0.00605413 -0.000226169)
(1.04611 -0.00113754 -0.000674819)
(1.05827 -0.00876585 0.000274104)
(1.07842 -0.00350408 0.000588501)
(1.08904 -0.0159845 0.000875256)
(1.12589 -0.0103388 0.000485173)
(1.09292 0.00551753 -0.000190982)
(1.0573 0.00734638 -1.73962e-05)
(1.0223 0.0149528 -0.000247)
(0.994136 0.0111074 -8.11965e-05)
(0.989893 0.0105887 0.000157228)
(0.956264 0.0071792 2.06281e-05)
(0.942148 0.00237591 -2.25751e-05)
(0.908618 0.00269937 6.26004e-05)
(0.900216 -0.0214452 -2.1498e-05)
(0.940378 -0.0259745 -0.00047417)
(0.951864 -0.0282248 -0.000440685)
(0.998606 -0.0236521 -0.000182839)
(1.01906 -0.0110496 -8.39839e-05)
(0.982506 -0.00625554 0.000669818)
(1.02731 -0.0444415 -0.000774565)
(1.04901 -0.0315696 -0.00178386)
(1.07048 -0.0085722 0.000534702)
(1.08661 -0.0211839 0.00196687)
(1.0975 -0.0183415 0.00219234)
(1.15084 0.00974704 0.001143)
(1.10101 0.0418142 0.000420842)
(1.07503 0.055692 -0.0004193)
(1.0396 0.0388041 -4.77316e-05)
(0.995416 0.012693 0.000844128)
(0.997207 0.0188173 9.67612e-05)
(0.952816 0.0343166 0.000174934)
(0.940874 0.0308127 0.000777265)
(0.893131 0.0355874 0.000963555)
(0.885058 -0.00465327 -0.000408035)
(0.938845 -0.0184179 -0.00120426)
(0.959078 -0.0137687 -0.00083178)
(1.02818 -0.028285 -0.000901103)
(1.04074 -0.00748808 -0.000252305)
(0.980459 -0.0103146 0.00102652)
(1.03684 -0.0614873 -0.00199376)
(1.07263 -0.0348187 -0.00446896)
(1.09698 -0.0336082 0.00392584)
(1.12228 -0.0211594 0.00873892)
(1.15323 -0.0760709 0.00547435)
(1.16709 -0.00801765 0.00403927)
(1.14009 0.0552137 -0.00162779)
(1.10045 0.0510621 -0.0042314)
(1.03569 0.0836752 -0.00223786)
(1.00476 0.039413 0.00067855)
(1.00826 0.0477677 0.00229738)
(0.990823 0.0578822 0.00215287)
(0.983144 0.0430802 0.00164742)
(0.908639 0.0539593 0.00161127)
(0.882042 -0.0599783 -0.00384931)
(0.967102 -0.0856255 -0.0106546)
(0.99472 -0.095469 -0.0100646)
(1.03278 -0.0913146 -0.0046794)
(1.05807 -0.0226034 -0.00160041)
(0.96455 -0.0247211 -2.94991e-05)
(1.07859 -0.124402 -0.0094471)
(1.0759 -0.0939756 0.00301059)
(1.11296 -0.0148206 0.00884896)
(1.19261 -0.0572966 0.00888242)
(1.17481 -0.0515642 0.0164637)
(1.22838 0.0202053 0.0133352)
(1.15158 0.0786595 -0.00746424)
(1.1701 0.176229 -0.0118206)
(1.15917 0.110382 -0.0169071)
(1.03211 0.0403669 -0.0149344)
(1.04788 0.0329751 0.002628)
(1.00526 0.0563497 0.00903213)
(0.962879 0.0945872 0.00883271)
(0.838438 0.125911 0.0131978)
(0.841915 -0.0472194 -0.00691564)
(0.970701 -0.0958961 -0.0237697)
(1.01488 -0.0426973 -0.0238945)
(1.17139 -0.0615603 -0.0132986)
(1.17032 -0.0272617 -0.00214311)
(0.993389 -0.0382459 -0.0046865)
(1.11065 -0.169312 -0.0141052)
(1.11048 -0.0526169 0.0280086)
(1.23136 -0.0886128 0.00955844)
(1.27401 -0.0374427 -0.00929505)
(1.31135 -0.15072 0.0130064)
(1.31872 0.00672387 0.0221176)
(1.23865 0.0623469 0.0149352)
(1.2599 0.0470439 -0.0142715)
(1.19964 0.219856 -0.0433767)
(1.11716 0.132038 -0.0216557)
(1.07041 0.0949672 -0.0138628)
(1.03352 0.133149 -0.0333552)
(1.03269 0.157739 0.00471189)
(0.98899 0.162196 0.00754262)
(0.885975 -0.178407 -0.0318677)
(0.981143 -0.241332 -0.0243479)
(1.0867 -0.262901 -0.0289966)
(1.20386 -0.213684 -0.0407251)
(1.17023 -0.0133042 -0.0156888)
(1.01423 -0.11683 -0.0217314)
(1.10799 -0.241693 0.0109151)
(1.13701 -0.214337 0.031824)
(1.34456 -0.0179329 0.0309462)
(1.34932 0.00493397 -0.0552632)
(1.54099 -0.0482745 -0.0455614)
(1.49964 0.00178101 -0.000679973)
(1.30715 -0.00978684 0.00571525)
(1.44848 0.245912 0.0332237)
(1.37046 0.184378 0.0309644)
(1.11592 0.131066 -0.043827)
(1.27569 0.140707 -0.0689363)
(1.27663 0.114967 0.00369002)
(1.07315 0.169026 0.0852805)
(1.08528 0.299838 0.0323423)
(0.855492 -0.0143445 -0.0221049)
(0.871661 -0.303554 -0.0097213)
(0.951081 -0.292006 0.018328)
(1.12111 -0.194411 0.0151995)
(1.21726 -0.0173814 -0.000128592)
(1.01488 -0.150397 -0.0329384)
(1.08358 -0.200593 0.00560165)
(1.48161 -0.328371 0.0299571)
(1.82352 -0.279265 0.0374444)
(1.70143 -0.00993185 0.0147638)
(1.58774 -0.0825668 -0.0598654)
(1.58403 0.30456 -0.046896)
(1.32765 -0.00137893 -0.0341236)
(1.75604 -0.102197 0.0897247)
(1.68409 0.429192 0.0256333)
(1.45333 0.218663 -0.0533148)
(1.42717 -0.0575872 0.00622487)
(0.97901 0.243086 0.0670652)
(0.940068 0.340614 -0.0267891)
(1.1317 0.381781 -0.0417731)
(1.05687 -0.0591796 -0.0117249)
(0.93093 -0.417074 0.00715045)
(0.662101 -0.582639 0.0503079)
(0.980178 -0.521258 0.0621287)
(1.2361 -0.117689 0.0231287)
(0.93924 -0.132046 -0.000245495)
(1.05364 -0.629189 -0.0101488)
(1.85368 -1.11834 0.197219)
(1.91659 -0.594756 -0.11384)
(2.03428 -0.00935741 -0.160382)
(1.63927 0.258906 -0.0498272)
(1.62764 0.563928 -0.0850406)
(0.758635 -0.161694 -0.16594)
(1.69416 0.145878 -0.00703215)
(1.44082 0.470897 0.12416)
(1.54559 0.111789 0.0579784)
(1.50588 0.58238 -0.122084)
(1.26031 0.617841 -0.11337)
(1.15802 0.175152 0.000391908)
(1.38405 0.281559 0.0704009)
(1.29146 0.212779 -0.0669082)
(1.16806 0.0186588 -0.0867691)
(0.988047 -0.35203 -0.00737946)
(0.926157 -0.626562 0.0294925)
(1.11524 -0.191827 0.0183735)
(1.41926 -0.1321 0.0117179)
(1.4889 -1.04474 0.162592)
(1.38961 -1.26321 0.0965712)
(0.362397 0.426745 -0.134159)
(-0.439285 -0.73517 0.0616832)
(0.651299 -0.440405 -0.0475797)
(1.08296 0.500544 0.0107913)
(0.622013 0.345642 0.11201)
(1.06072 0.122711 0.0869013)
(1.06241 0.2434 0.0185697)
(0.901786 0.190802 0.0337613)
(0.702813 0.207716 -0.0490612)
(0.41762 -0.0985253 -0.0307238)
(0.733943 -0.252463 0.043524)
(0.969155 -0.428253 0.0291564)
(0.877756 -0.572831 -0.0138652)
(0.909699 -0.191961 -0.00721539)
(0.912001 -0.318175 -0.0499369)
(0.86486 -0.44426 -0.0765954)
(0.404584 -0.70197 -0.101789)
(0.0453218 0.188774 -0.045235)
(0.227488 -0.41261 0.1782)
(0.200627 -0.947155 0.0788106)
(0.49386 0.239483 0.11904)
(-0.215307 -0.180202 0.0283897)
(0.810389 0.421264 -0.0942101)
(0.659958 0.695125 -0.0540767)
(0.44087 0.232992 -0.0576235)
(0.383501 0.390703 -0.0511946)
(0.593509 0.108582 0.150392)
(0.906332 -0.315625 0.11505)
(1.02238 -0.323047 0.00536962)
(0.919651 -0.438313 -0.064546)
(0.931124 -0.149189 -0.0449985)
(0.597347 0.0471254 -0.231399)
(-0.400518 -0.166691 0.297609)
(-0.0208661 0.265727 0.0131343)
(0.0638296 -0.504195 0.0278414)
(-0.147475 -1.01314 0.0394585)
(0.179943 0.699452 -0.0724172)
(-0.15525 -0.151824 -0.127786)
(0.336027 0.0768431 -0.00383187)
(0.405908 0.622788 -0.0411088)
(0.286553 0.316949 -0.0548523)
(0.268261 0.169186 -0.0176644)
(0.902289 -0.392933 0.0628187)
(1.03713 -0.443744 0.0557299)
(1.04714 -0.342258 0.0590147)
(1.03991 -0.487195 -0.0053083)
(0.950904 -0.203353 -0.0488084)
(1.22401 0.257734 -0.181948)
(1.18951 0.492529 0.26002)
(0.455377 0.811596 -0.129066)
(0.209255 0.166263 0.00283256)
(0.81781 -0.428568 -0.070397)
(0.630062 -0.896677 0.0314932)
(0.434338 0.144582 -0.0199142)
(0.661368 0.0652859 -0.179246)
(0.433465 -0.083944 0.112331)
(0.450047 0.612849 0.103594)
(0.589828 0.368681 0.0757917)
(0.839347 0.0984255 0.0180649)
(1.27818 -0.340389 -0.0540987)
(1.18377 -0.458009 -0.0154827)
(1.17391 -0.368037 0.0474221)
(1.00344 -0.286943 0.082181)
(0.790973 -0.0420346 0.0235173)
(1.18106 0.19873 -0.0201862)
(1.11564 0.309148 -0.00872972)
(1.12401 0.661321 0.140496)
(0.66696 -0.260794 0.0161178)
(1.4813 -0.196194 0.103362)
(1.6875 -0.719809 0.0127495)
(1.6131 -0.501074 -0.0787144)
(1.00586 0.152797 0.089569)
(1.51533 -0.135029 -0.0852892)
(1.3466 -0.162841 -0.00339468)
(0.943596 0.32082 0.126936)
(1.12631 0.0641838 0.0999083)
(1.30504 -0.287893 0.0559477)
(1.47427 -0.547736 -0.0601961)
(1.09023 -0.312462 -0.0872135)
(1.08547 -0.200931 -0.0303354)
(1.00578 -0.13353 0.0462751)
(0.810997 0.0503022 0.0479227)
(1.12935 0.089208 0.039591)
(1.13811 0.337894 -0.0664052)
(1.39205 0.548154 -0.0140261)
(1.63434 0.206663 0.00158633)
(1.75342 -0.118357 -0.139735)
(1.3524 -0.467366 0.100462)
(1.48575 -0.114627 -0.00998735)
(1.50346 -0.446976 0.079985)
(1.04662 -0.335669 -0.00463451)
(1.08056 0.209383 -0.0380495)
(1.39196 -0.110403 0.00223741)
(1.01982 0.267468 0.0519965)
(1.09367 0.477251 0.0876502)
(1.54071 -0.0385735 -0.0727642)
(1.54569 -0.307563 -0.0344787)
(1.20633 -0.232733 0.0610956)
(0.955252 -0.140573 0.0128877)
(1.17252 -0.324116 -0.044684)
(1.06918 -0.135821 -0.0287336)
(0.828765 0.132446 -0.00140624)
(0.973798 0.0741918 0.0022288)
(1.0665 0.0997521 0.00229282)
(1.23745 0.237503 -0.000899447)
(1.37485 0.043398 0.021128)
(1.63457 -0.00196163 0.0667049)
(1.3935 -0.168596 0.0448611)
(1.2776 -0.15724 -0.0127839)
(1.29127 -0.25212 -0.0961395)
(1.05016 -0.258764 -0.0277789)
(1.07407 -0.00543805 -0.0173967)
(1.1009 -0.0804723 0.0148879)
(0.978655 0.011382 0.0580306)
(1.32095 -0.0328768 0.0616652)
(1.43887 -0.181378 0.013357)
(1.27962 -0.0902293 -0.0238142)
(1.17148 -0.127019 -0.00550259)
(1.15278 -0.211424 0.0489741)
(1.20105 -0.339931 0.0135144)
(1.01192 -0.0358818 -0.0651505)
(0.905161 0.18402 -0.044706)
(0.997801 0.0376383 -0.0135106)
(1.0538 0.108537 0.00343828)
(1.15962 0.180318 0.038756)
(1.23092 0.100237 0.0333083)
(1.31131 0.0807532 0.00987447)
(1.25634 -0.0578503 -0.0283002)
(1.17218 -0.0648509 -0.0178929)
(1.22937 -0.175972 -0.0622001)
(1.06364 -0.142958 -0.0598106)
(1.05738 0.0791134 0.0219486)
(1.08051 0.0349999 0.0354253)
(1.02251 0.0771108 0.00162597)
(1.13113 0.10059 0.00321898)
(1.10494 0.0111015 0.0405785)
(1.12889 -0.0991146 0.0281977)
(1.0864 -0.137996 -0.0222307)
(0.985152 -0.0625055 -0.0100116)
(0.879691 -0.109306 0.0123086)
(0.785215 0.0711123 -0.00300286)
(0.933444 0.157863 -0.00407512)
(0.999171 0.0304578 -0.00572175)
(1.02338 0.0113627 0.00249454)
(1.08263 0.0629988 0.014237)
(1.12573 -0.00312541 0.00891412)
(1.16274 0.045842 0.00312524)
(1.18157 -0.0262443 -0.0147222)
(1.13517 -0.079058 -0.0312133)
(1.11413 -0.119149 -0.00548215)
(1.00614 -0.14032 0.00356495)
(0.977445 -0.043982 0.00274538)
(1.03526 -0.0345171 0.0052656)
(1.02912 -0.00868523 0.00714602)
(1.10102 -0.0294271 0.00264893)
(1.09761 -0.0759249 -0.00298718)
(1.09704 -0.0355663 0.00418313)
(1.01807 -0.0468895 0.011374)
(0.98562 -0.0857639 0.00441774)
(0.956287 -0.152219 -0.0148827)
(0.869762 -0.00856904 -0.0201713)
(0.98495 0.0793684 -0.00590821)
(1.00936 0.0108491 -0.000805992)
(1.01615 0.0365505 -0.000996362)
(1.05438 0.0606847 0.00380344)
(1.06057 0.0515103 0.00742897)
(1.09144 0.0536667 -0.00175593)
(1.12992 0.0039801 -0.0100555)
(1.09925 -0.0146107 -0.00635597)
(1.08305 -0.0491915 -0.00211752)
(1.03005 -0.0395907 0.00168964)
(0.990015 0.05104 0.00232415)
(1.01557 0.0394621 0.000211241)
(1.0095 0.0278926 0.00132653)
(1.03822 0.0430286 0.00319787)
(1.00209 0.00919606 0.00420318)
(1.00751 -0.0254364 -6.08161e-05)
(0.997468 -0.0471568 -0.0017617)
(0.98172 -0.00793348 -0.00130847)
(0.941688 -0.0228958 0.000306684)
(0.872208 0.0336561 -0.00172622)
(0.958974 0.0675675 -0.00264393)
(1.00404 0.00233858 -0.000224796)
(1.0014 0.00122286 -0.000539469)
(1.02887 0.0140538 0.0016533)
(1.04285 -0.00100365 0.00119931)
(1.06781 0.0126604 -0.0017951)
(1.08987 -0.0182864 -0.00215463)
(1.06455 -0.0388789 -0.000615818)
(1.04533 -0.0478557 0.000580818)
(0.998496 -0.0605615 -0.000464528)
(0.972976 -0.0288046 -0.000960582)
(1.01452 -0.0267156 -0.000377193)
(0.994888 -0.025772 -0.000134891)
(1.0164 -0.024567 -0.000444939)
(1.00827 -0.034252 -4.4555e-05)
(1.00798 -0.0235395 0.000131873)
(0.968059 -0.0302649 0.000221381)
(0.943814 -0.0337879 -0.000340358)
(0.940373 -0.0560664 0.00023277)
(0.895517 -0.0156261 -0.00105953)
(0.953451 0.0176303 -0.0019202)
(1.00363 0.00407828 -0.000134357)
(1.00149 0.011782 5.64448e-05)
(1.02367 0.0171522 0.000564083)
(1.03494 0.0202288 -2.40113e-05)
(1.05601 0.0168605 -0.000714256)
(1.07797 0.0114453 -0.000374334)
(1.05533 0.00984879 5.0765e-05)
(1.03737 0.00634606 7.54218e-05)
(1.00877 0.0125022 -0.000134174)
(0.978839 0.02922 -0.000384074)
(1.00277 0.0289688 -0.000186475)
(0.988666 0.0250796 1.36909e-05)
(1.00391 0.026135 1.46696e-05)
(0.983895 0.0167053 6.22711e-05)
(0.986471 0.00729481 -8.60366e-05)
(0.966051 0.00173747 -5.69452e-05)
(0.949822 0.0126866 -0.000173231)
(0.941751 0.0132845 0.000173539)
(0.898166 0.0190398 -0.00026073)
(0.945154 0.0209985 -0.000621896)
(0.985137 -0.00343828 0.000107653)
(1.02405 -0.00625079 -0.000102822)
(1.04637 -0.00146479 -0.000341017)
(1.05846 -0.00903517 7.35656e-05)
(1.07847 -0.0029282 0.000278858)
(1.08895 -0.0155822 0.000435548)
(1.12564 -0.0101529 0.000265162)
(1.09282 0.00590219 -6.32863e-05)
(1.05733 0.00708741 -3.45182e-05)
(1.02226 0.0148801 -0.000142082)
(0.99417 0.0111716 -6.92242e-05)
(0.989978 0.0102638 3.77782e-05)
(0.956259 0.00706326 -1.26127e-05)
(0.942136 0.00249724 -2.66943e-06)
(0.908638 0.00277596 3.64392e-05)
(0.900117 -0.0216158 -9.51531e-05)
(0.940369 -0.0260921 -0.000349964)
(0.952009 -0.0283152 -0.000342226)
(0.998755 -0.0239331 -0.000181008)
(1.01911 -0.0111754 -7.62712e-05)
(0.982514 -0.00522171 0.000348854)
(1.02637 -0.0454414 -0.000295031)
(1.04997 -0.0347881 -0.000996172)
(1.07138 -0.00755175 1.22223e-06)
(1.08649 -0.0191879 0.000867506)
(1.09655 -0.0144749 0.00117231)
(1.14959 0.0120699 0.000623909)
(1.1003 0.0405809 0.000328299)
(1.07537 0.0556065 -0.000184752)
(1.03974 0.0377129 -0.000201655)
(0.995145 0.0118336 0.000249181)
(0.997393 0.0195588 -0.000167049)
(0.952516 0.0344345 -9.43811e-05)
(0.94055 0.0304923 0.000347391)
(0.893226 0.0360024 0.000530585)
(0.885141 -0.00559113 -0.000526284)
(0.939753 -0.0220191 -0.0011327)
(0.96035 -0.0170353 -0.000838909)
(1.02917 -0.0296724 -0.000796052)
(1.04106 -0.00802144 -0.000295068)
(0.980809 -0.0063639 0.000472948)
(1.03345 -0.0651196 -0.000443141)
(1.07595 -0.0456063 -0.00262684)
(1.10188 -0.0331806 0.0002371)
(1.11997 -0.0114617 0.00393829)
(1.14761 -0.0639763 0.00348628)
(1.15988 -0.00259163 0.00287346)
(1.14022 0.0572366 -0.000783173)
(1.10604 0.0488797 -0.0029071)
(1.03559 0.0821091 -0.00116617)
(1.00715 0.0414266 -5.6305e-05)
(1.01131 0.0458702 0.000577457)
(0.989556 0.0571859 0.000747202)
(0.982603 0.045817 0.000877413)
(0.908344 0.0586653 0.00105346)
(0.883383 -0.065354 -0.00299045)
(0.973815 -0.0966546 -0.00706186)
(1.00497 -0.102947 -0.00714774)
(1.04135 -0.0982685 -0.00417206)
(1.06108 -0.0249465 -0.00149412)
(0.965951 -0.0167326 0.000202281)
(1.06625 -0.131865 -0.00262107)
(1.08775 -0.128844 -7.33342e-05)
(1.13194 -0.00979573 -0.000237223)
(1.17978 -0.0158881 0.00161754)
(1.1384 -0.0135324 0.0109497)
(1.20928 0.0458276 0.00959534)
(1.15593 0.0607481 -0.00149703)
(1.18856 0.148751 -0.00767874)
(1.1843 0.102518 -0.0128434)
(1.04151 0.0368609 -0.00965825)
(1.03229 0.0416966 -0.000614664)
(0.993887 0.0649351 0.00247147)
(0.959327 0.10028 0.00530887)
(0.85136 0.13391 0.00568582)
(0.854532 -0.0818297 -0.00393189)
(0.988826 -0.171423 -0.00992695)
(1.04352 -0.112566 -0.0109089)
(1.19901 -0.095018 -0.00886994)
(1.18285 -0.0371556 -0.00351905)
(0.998543 -0.0247341 -0.000611426)
(1.08945 -0.202995 -0.00630518)
(1.10795 -0.0902147 0.0134346)
(1.28319 -0.0746893 -0.00710265)
(1.26255 0.0255645 -0.0191632)
(1.21121 -0.033555 0.00627862)
(1.22249 0.0643538 0.0292899)
(1.22774 0.0198255 0.026789)
(1.34785 -0.0361238 0.00472429)
(1.30211 0.111539 -0.0138374)
(1.16207 0.0789193 -0.00990099)
(1.09257 0.101719 -0.0122237)
(1.03898 0.143234 -0.0209791)
(1.00675 0.186686 0.000322993)
(1.0201 0.206673 -0.00285892)
(0.862388 -0.228671 -0.0139531)
(0.932375 -0.367554 0.000395601)
(1.10276 -0.385994 0.0013637)
(1.22065 -0.290613 -0.00885494)
(1.17087 -0.0347709 -0.00392606)
(0.978114 -0.103976 -0.00323179)
(1.13421 -0.296483 -0.0137067)
(1.11054 -0.186437 0.0252147)
(1.34716 -0.0727854 0.0280336)
(1.40061 -0.047663 -0.0484095)
(1.45636 0.0695748 -0.0475989)
(1.36388 0.217562 -0.0154287)
(1.21265 0.0482214 0.00188932)
(1.46302 0.124543 0.0357163)
(1.5744 0.0566981 0.0303849)
(1.38977 0.0985943 -0.021561)
(1.42243 0.0751474 -0.0293478)
(1.15326 -0.0462557 0.012817)
(1.00146 0.152686 0.0414879)
(1.08419 0.271313 0.00645912)
(0.798845 -0.123716 -0.00799326)
(0.756265 -0.411667 0.00409939)
(0.900137 -0.404248 0.0195803)
(1.1219 -0.292619 0.0162154)
(1.20789 -0.0491934 0.00291027)
(0.960756 -0.170849 -0.0172196)
(1.12342 -0.327587 -0.0118116)
(1.45576 -0.101803 0.00334273)
(1.6759 -0.158213 0.0559805)
(1.71018 -0.189041 0.0912743)
(1.71243 -0.349667 -0.0507304)
(1.58211 0.23585 -0.0496326)
(1.13867 -0.115633 -0.0285027)
(1.84757 -0.0717632 0.0152486)
(1.76714 0.346229 -0.00128304)
(1.47882 -0.02084 -0.0122975)
(1.33035 0.0132681 -0.0144755)
(0.947319 0.50689 0.00973526)
(1.08309 0.576834 -0.0398787)
(1.18813 0.476724 -0.0448693)
(1.06925 -0.104983 -0.00822954)
(0.812231 -0.505485 0.00979434)
(0.620432 -0.604931 0.0296218)
(1.04163 -0.457767 0.0278373)
(1.20362 -0.0909059 0.00831771)
(1.102 -0.304946 -0.000864749)
(0.827924 -0.720363 -0.000528242)
(1.88812 -1.01967 0.0704999)
(1.84347 -0.344646 -0.0757726)
(2.02515 0.175814 -0.0451677)
(1.5103 0.00603172 -0.0420233)
(1.31127 0.468879 -0.0450797)
(0.553439 -0.402338 -0.0559043)
(0.991857 0.0444166 0.000727937)
(1.50644 0.382989 0.0942103)
(1.70435 0.206123 0.00940367)
(1.22122 0.537919 -0.029152)
(1.04563 0.343069 -0.0674169)
(0.826644 -0.225207 -0.0320201)
(1.32654 0.0452234 0.0871227)
(1.50334 0.151184 0.0272536)
(1.2411 0.0538759 -0.0369294)
(0.887914 -0.324918 -0.0101809)
(1.02013 -0.477252 0.00984048)
(1.15046 -0.0760302 0.00297232)
(1.69835 -0.115648 -0.018411)