0 	0 	0 	0
1.57135 	0.0066965 	-0.0132277 	0
3.1427 	-0.0388521 	0.0368217 	0
4.71405 	-0.0729947 	0.098564 	0
6.28539 	-0.0432766 	0.0899455 	0
7.85674 	0.00109949 	0.0348443 	0
9.42809 	0.0416389 	-0.0110481 	0
10.9994 	0.0600483 	-0.0490647 	0
12.5708 	0.121908 	-0.10983 	0
14.1421 	0.5 	0 	0
