/*--------------------------------*- C++ -*----------------------------------*\
  =========                 |
  \\      /  F ield         | OpenFOAM: The Open Source CFD Toolbox
   \\    /   O peration     | Website:  https://openfoam.org
    \\  /    A nd           | Version:  8
     \\/     M anipulation  |
\*---------------------------------------------------------------------------*/
FoamFile
{
    version     2.0;
    format      ascii;
    class       volScalarField;
    location    "0.12";
    object      p;
}
// * * * * * * * * * * * * * * * * * * * * * * * * * * * * * * * * * * * * * //

dimensions      [0 2 -2 0 0 0 0];

internalField   nonuniform List<scalar> 
400
(
-3.24094e-08
-0.0057266
-0.0127272
-0.01805
-0.0199674
-0.0177095
-0.0112189
-0.00093883
0.0123408
0.0275877
0.0436053
0.0591067
0.0727986
0.0834891
0.090226
0.092467
0.0902824
0.0845752
0.0772914
0.0715375
0.00575569
-0.000139397
-0.005619
-0.00925763
-0.0102316
-0.00800642
-0.00250984
0.00594352
0.0167592
0.0291372
0.0421339
0.0547276
0.0658935
0.0746983
0.0804107
0.0826301
0.0814346
0.077467
0.0717444
0.0658487
0.0132896
0.00510582
-0.000829395
-0.0041717
-0.00494789
-0.00288239
0.00202174
0.00946644
0.0189429
0.0297774
0.0411711
0.0522503
0.0621291
0.0699883
0.0751661
0.0772616
0.0762655
0.0725609
0.0663402
0.0581526
0.0200801
0.00876868
0.00138832
-0.00242905
-0.00341477
-0.001523
0.00313435
0.0102141
0.0192223
0.0295363
0.0404231
0.051071
0.0606385
0.0683188
0.0734164
0.0754408
0.0742467
0.0699903
0.0622039
0.0508096
0.0244436
0.00985943
0.000762
-0.00374449
-0.00499655
-0.00314774
0.00157785
0.0087701
0.0179181
0.0284141
0.0395491
0.0505277
0.0605009
0.0686177
0.0740909
0.076289
0.0749029
0.0698792
0.0601868
0.0453238
0.02515
0.00727011
-0.00360338
-0.00879502
-0.0101906
-0.0081251
-0.00293592
0.00488759
0.0147985
0.0261801
0.0383205
0.0504087
0.0615506
0.070807
0.0772494
0.0800567
0.0787204
0.0729699
0.0612474
0.0427348
0.0211307
-8.54219e-05
-0.0126909
-0.0184094
-0.0196741
-0.0170054
-0.0108615
-0.00182152
0.00952063
0.0225274
0.0364707
0.0505067
0.063672
0.0749045
0.083088
0.0871557
0.0863435
0.0801195
0.0663576
0.0439469
0.0112793
-0.0133609
-0.0275681
-0.0334994
-0.0341972
-0.0303991
-0.0227042
-0.0117917
0.00169438
0.0170982
0.0336794
0.0505626
0.0667082
0.0809096
0.0918203
0.0980607
0.098528
0.0923327
0.076643
0.0499932
-0.00570236
-0.0339082
-0.0494841
-0.0551254
-0.054621
-0.0489953
-0.0390231
-0.0254953
-0.00909964
0.00950837
0.0296009
0.0502953
0.0704922
0.0888379
0.103721
0.113374
0.116237
0.110901
0.0935713
0.0622633
-0.0314461
-0.0634041
-0.0799434
-0.0845093
-0.0818837
-0.0734955
-0.0603473
-0.0433537
-0.0232261
-0.000580665
0.0239182
0.0494352
0.0748593
0.0987177
0.119121
0.133836
0.140696
0.13753
0.119152
0.0827399
-0.0681098
-0.104018
-0.120786
-0.123022
-0.116918
-0.104488
-0.087031
-0.0655877
-0.0408539
-0.0133384
0.0164414
0.0477907
0.0796797
0.110593
0.138392
0.160326
0.173449
0.174483
0.156194
0.114317
-0.11872
-0.158676
-0.174289
-0.172137
-0.160509
-0.142256
-0.119039
-0.0920058
-0.0617574
-0.0285893
0.00725306
0.0453557
0.0849214
0.124539
0.161933
0.193843
0.216394
0.224768
0.208678
0.161314
-0.187867
-0.231498
-0.243277
-0.233306
-0.213045
-0.186478
-0.155653
-0.121727
-0.0850702
-0.0456006
-0.00311716
0.0424397
0.0907251
0.140677
0.190121
0.235444
0.27179
0.292334
0.28232
0.230394
-0.283195
-0.328547
-0.331177
-0.307657
-0.274089
-0.235801
-0.195082
-0.152869
-0.109037
-0.062891
-0.0135524
0.0397546
0.0974257
0.159108
0.223155
0.286016
0.342083
0.382213
0.385443
0.332398
-0.418589
-0.458961
-0.441751
-0.395231
-0.34158
-0.287175
-0.234006
-0.182253
-0.130861
-0.0781754
-0.022366
0.0383318
0.105388
0.179629
0.260595
0.345648
0.429252
0.500297
0.530168
0.485913
-0.619903
-0.636134
-0.578172
-0.493727
-0.410794
-0.335198
-0.267269
-0.20539
-0.146865
-0.0886387
-0.0276345
0.0391532
0.114591
0.201207
0.300648
0.412635
0.533594
0.652311
0.73323
0.722883
-0.93539
-0.878025
-0.741318
-0.597579
-0.474066
-0.372319
-0.288468
-0.217275
-0.153371
-0.0917962
-0.0279908
0.0424441
0.123996
0.221403
0.339545
0.482701
0.652463
0.841752
1.01567
1.09794
-1.47551
-1.20666
-0.920148
-0.69103
-0.517056
-0.387297
-0.289752
-0.212937
-0.147622
-0.0866196
-0.0239122
0.0461558
0.129628
0.233718
0.367684
0.543166
0.771622
1.05964
1.40409
1.72998
-2.53562
-1.63313
-1.0444
-0.710468
-0.495465
-0.351863
-0.254259
-0.183233
-0.125722
-0.0730496
-0.0186467
0.0434545
0.119879
0.219405
0.355359
0.5484
0.826585
1.23724
1.91512
2.92045
-4.35965
-2.04681
-0.973779
-0.56302
-0.357908
-0.240238
-0.170118
-0.123644
-0.0871835
-0.053049
-0.0160437
0.0283833
0.085401
0.162554
0.273233
0.442852
0.71879
1.22668
2.41388
4.84197
)
;

boundaryField
{
    movingWall
    {
        type            zeroGradient;
    }
    fixedWalls
    {
        type            zeroGradient;
    }
    frontAndBack
    {
        type            empty;
    }
}


// ************************************************************************* //
