/*--------------------------------*- C++ -*----------------------------------*\
  =========                 |
  \\      /  F ield         | OpenFOAM: The Open Source CFD Toolbox
   \\    /   O peration     | Website:  https://openfoam.org
    \\  /    A nd           | Version:  8
     \\/     M anipulation  |
\*---------------------------------------------------------------------------*/
FoamFile
{
    version     2.0;
    format      ascii;
    class       surfaceScalarField;
    location    "0.12";
    object      phi;
}
// * * * * * * * * * * * * * * * * * * * * * * * * * * * * * * * * * * * * * //

dimensions      [0 3 -1 0 0 0 0];

internalField   nonuniform List<scalar> 
760
(
1.41222e-08
-1.41221e-08
-2.20063e-08
3.61286e-08
-1.13204e-07
9.11981e-08
-2.43149e-07
1.29945e-07
-3.92228e-07
1.4908e-07
-5.41925e-07
1.49696e-07
-6.7631e-07
1.34386e-07
-7.82627e-07
1.06316e-07
-8.51419e-07
6.87917e-08
-8.76584e-07
2.51663e-08
-8.55514e-07
-2.10704e-08
-7.89332e-07
-6.6181e-08
-6.83203e-07
-1.06129e-07
-5.46562e-07
-1.36641e-07
-3.9313e-07
-1.53432e-07
-2.40463e-07
-1.52668e-07
-1.08702e-07
-1.31761e-07
-1.82053e-08
-9.04968e-08
1.55579e-08
-3.37636e-08
1.55577e-08
-3.37512e-08
1.96291e-08
-1.78369e-07
1.80746e-07
-4.29347e-07
3.42175e-07
-7.56308e-07
4.56906e-07
-1.12015e-06
5.12918e-07
-1.48121e-06
5.10759e-07
-1.80372e-06
4.56897e-07
-2.05808e-06
3.60682e-07
-2.22203e-06
2.32733e-07
-2.28121e-06
8.43527e-08
-2.22978e-06
-7.25007e-08
-2.07087e-06
-2.25096e-07
-1.81706e-06
-3.59942e-07
-1.49055e-06
-4.63153e-07
-1.12263e-06
-5.21352e-07
-7.51989e-07
-5.23305e-07
-4.21239e-07
-4.62511e-07
-1.71005e-07
-3.40731e-07
-3.04737e-08
-1.74295e-07
-1.49156e-08
-9.12439e-08
1.10873e-07
-3.53207e-07
4.4271e-07
-7.56491e-07
7.45459e-07
-1.25507e-06
9.55488e-07
-1.79542e-06
1.05326e-06
-2.32395e-06
1.0393e-06
-2.79216e-06
9.25103e-07
-3.15961e-06
7.28131e-07
-3.39573e-06
4.68853e-07
-3.48085e-06
1.69471e-07
-3.40697e-06
-1.46376e-07
-3.17848e-06
-4.53588e-07
-2.81265e-06
-7.25777e-07
-2.33973e-06
-9.36072e-07
-1.80215e-06
-1.05894e-06
-1.25214e-06
-1.07331e-06
-7.47313e-07
-9.67336e-07
-3.43723e-07
-7.44321e-07
-8.65445e-08
-4.31472e-07
-1.0146e-07
-1.43752e-07
2.54625e-07
-5.20229e-07
8.19188e-07
-1.07086e-06
1.29609e-06
-1.73004e-06
1.61466e-06
-2.42965e-06
1.75287e-06
-3.10465e-06
1.7143e-06
-3.69734e-06
1.51778e-06
-4.1601e-06
1.19089e-06
-4.45707e-06
7.6583e-07
-4.56515e-06
2.7755e-07
-4.47476e-06
-2.36773e-07
-4.1906e-06
-7.37741e-07
-3.7324e-06
-1.18398e-06
-3.13514e-06
-1.53333e-06
-2.44855e-06
-1.74553e-06
-1.7349e-06
-1.78696e-06
-1.0648e-06
-1.63743e-06
-5.10576e-07
-1.29854e-06
-1.38104e-07
-8.03944e-07
-2.39564e-07
-1.91863e-07
4.46487e-07
-6.78879e-07
1.3062e-06
-1.37323e-06
1.99044e-06
-2.18739e-06
2.42883e-06
-3.03771e-06
2.60319e-06
-3.84837e-06
2.52495e-06
-4.55435e-06
2.22377e-06
-5.10319e-06
1.73973e-06
-5.45577e-06
1.11841e-06
-5.58681e-06
4.08592e-07
-5.48536e-06
-3.38219e-07
-5.15556e-06
-1.06755e-06
-4.61759e-06
-1.72195e-06
-3.90864e-06
-2.24227e-06
-3.08319e-06
-2.57098e-06
-2.21189e-06
-2.65826e-06
-1.37828e-06
-2.47104e-06
-6.73055e-07
-2.00377e-06
-1.86277e-07
-1.29072e-06
-4.25842e-07
-2.38117e-07
6.84605e-07
-8.34007e-07
1.90209e-06
-1.67054e-06
2.82698e-06
-2.63679e-06
3.39508e-06
-3.63265e-06
3.59905e-06
-4.57195e-06
3.46425e-06
-5.38382e-06
3.03564e-06
-6.0128e-06
2.36871e-06
-6.41826e-06
1.52387e-06
-6.57385e-06
5.64177e-07
-6.46732e-06
-4.44744e-07
-6.10124e-06
-1.43363e-06
-5.49438e-06
-2.32881e-06
-4.68367e-06
-3.05299e-06
-3.72601e-06
-3.52864e-06
-2.69904e-06
-3.68524e-06
-1.69956e-06
-3.47051e-06
-8.38858e-07
-2.86448e-06
-2.34572e-07
-1.89501e-06
-6.60413e-07
-2.85057e-07
9.69661e-07
-9.91227e-07
2.60826e-06
-1.97034e-06
3.80609e-06
-3.08632e-06
4.51106e-06
-4.2221e-06
4.73482e-06
-5.28198e-06
4.52413e-06
-6.1911e-06
3.94477e-06
-6.8933e-06
3.0709e-06
-7.34846e-06
1.97904e-06
-7.53043e-06
7.4614e-07
-7.42589e-06
-5.4928e-07
-7.03482e-06
-1.8247e-06
-6.37238e-06
-2.99124e-06
-5.47233e-06
-3.95304e-06
-4.39098e-06
-4.60999e-06
-3.21076e-06
-4.86546e-06
-2.0414e-06
-4.63987e-06
-1.0169e-06
-3.88897e-06
-2.86713e-07
-2.6252e-06
-9.47125e-07
-3.34977e-07
1.30464e-06
-1.15567e-06
3.42895e-06
-2.27858e-06
4.929e-06
-3.53999e-06
5.77247e-06
-4.80572e-06
6.00056e-06
-5.97242e-06
5.69083e-06
-6.96424e-06
4.93659e-06
-7.72759e-06
3.83425e-06
-8.22576e-06
2.47721e-06
-8.43468e-06
9.55063e-07
-8.34053e-06
-6.43428e-07
-7.93967e-06
-2.22556e-06
-7.24111e-06
-3.6898e-06
-6.27154e-06
-4.92262e-06
-5.08218e-06
-5.79934e-06
-3.75634e-06
-6.19131e-06
-2.41475e-06
-5.98146e-06
-1.21577e-06
-5.08795e-06
-3.4632e-07
-3.49465e-06
-1.29345e-06
-3.90113e-07
1.69475e-06
-1.33192e-06
4.37076e-06
-2.59895e-06
6.19603e-06
-3.99624e-06
7.16977e-06
-5.37311e-06
7.37743e-06
-6.62204e-06
6.93976e-06
-7.67102e-06
5.98556e-06
-8.47395e-06
4.63718e-06
-9.00164e-06
3.00491e-06
-9.23496e-06
1.18838e-06
-9.16067e-06
-7.17717e-07
-8.7707e-06
-2.61553e-06
-8.06494e-06
-4.39555e-06
-7.05797e-06
-5.92959e-06
-5.78942e-06
-7.06789e-06
-4.3367e-06
-7.64402e-06
-2.82699e-06
-7.49116e-06
-1.44322e-06
-6.47173e-06
-4.17013e-07
-4.52086e-06
-1.71046e-06
-4.5325e-07
2.148e-06
-1.52487e-06
5.44238e-06
-2.93307e-06
7.60423e-06
-4.44692e-06
8.68362e-06
-5.90144e-06
8.83195e-06
-7.19104e-06
8.22936e-06
-8.25495e-06
7.04947e-06
-9.06154e-06
5.44377e-06
-9.59481e-06
3.53818e-06
-9.84444e-06
1.438e-06
-9.7997e-06
-7.62448e-07
-9.44771e-06
-2.96752e-06
-8.77615e-06
-5.06712e-06
-7.78139e-06
-6.92435e-06
-6.48253e-06
-8.36675e-06
-4.94066e-06
-9.18589e-06
-3.28034e-06
-9.15148e-06
-1.70626e-06
-8.04581e-06
-5.02905e-07
-5.72422e-06
-2.21336e-06
-5.28837e-07
2.67684e-06
-1.7412e-06
6.65473e-06
-3.28073e-06
9.14376e-06
-4.87549e-06
1.02784e-05
-6.35168e-06
1.03081e-05
-7.6159e-06
9.49358e-06
-8.62945e-06
8.06302e-06
-9.38443e-06
6.19875e-06
-9.88508e-06
4.03884e-06
-1.01347e-05
1.68766e-06
-1.0128e-05
-7.69235e-07
-9.84741e-06
-3.24806e-06
-9.26603e-06
-5.6485e-06
-8.35554e-06
-7.83484e-06
-7.10338e-06
-9.61891e-06
-5.53927e-06
-1.075e-05
-3.76953e-06
-1.09212e-05
-2.01148e-06
-9.80386e-06
-6.09483e-07
-7.12622e-06
-2.82285e-06
-6.24849e-07
3.30169e-06
-1.99119e-06
8.02107e-06
-3.63907e-06
1.07916e-05
-5.2526e-06
1.18919e-05
-6.66149e-06
1.1717e-05
-7.80112e-06
1.06332e-05
-8.66968e-06
8.93158e-06
-9.29419e-06
6.82326e-06
-9.70679e-06
4.45143e-06
-9.92955e-06
1.91042e-06
-9.96561e-06
-7.33175e-07
-9.79486e-06
-3.41882e-06
-9.37449e-06
-6.06887e-06
-8.64622e-06
-8.5631e-06
-7.55399e-06
-1.07111e-05
-6.07649e-06
-1.22275e-05
-4.277e-06
-1.27207e-05
-2.36485e-06
-1.1716e-05
-7.45088e-07
-8.74598e-06
-3.56794e-06
-7.55804e-07
4.05749e-06
-2.29002e-06
9.55529e-06
-3.99785e-06
1.24995e-05
-5.52549e-06
1.34196e-05
-6.7314e-06
1.29229e-05
-7.60516e-06
1.1507e-05
-8.20058e-06
9.527e-06
-8.59094e-06
7.21362e-06
-8.84251e-06
4.703e-06
-8.99986e-06
2.06777e-06
-9.07773e-06
-6.55306e-07
-9.05626e-06
-3.44028e-06
-8.87907e-06
-6.24606e-06
-8.45642e-06
-8.98576e-06
-7.67923e-06
-1.14883e-05
-6.45318e-06
-1.34536e-05
-4.76291e-06
-1.4411e-05
-2.76986e-06
-1.37091e-05
-9.23249e-07
-1.05926e-05
-4.49119e-06
-9.47191e-07
5.00468e-06
-2.65531e-06
1.12634e-05
-4.3242e-06
1.41684e-05
-5.59352e-06
1.46889e-05
-6.39792e-06
1.37273e-05
-6.81701e-06
1.19261e-05
-6.97978e-06
9.68976e-06
-7.01322e-06
7.24707e-06
-7.01884e-06
4.70861e-06
-7.06325e-06
2.11218e-06
-7.17406e-06
-5.44493e-07
-7.33599e-06
-3.27835e-06
-7.48591e-06
-6.09614e-06
-7.50885e-06
-8.96281e-06
-7.24183e-06
-1.17554e-05
-6.49948e-06
-1.41959e-05
-5.1436e-06
-1.57668e-05
-3.21979e-06
-1.56329e-05
-1.16558e-06
-1.26468e-05
-5.65676e-06
-1.23903e-06
6.24371e-06
-3.0902e-06
1.31146e-05
-4.52156e-06
1.55997e-05
-5.25605e-06
1.54234e-05
-5.38474e-06
1.3856e-05
-5.119e-06
1.16603e-05
-4.67483e-06
9.24559e-06
-4.22858e-06
6.80081e-06
-3.90724e-06
4.38726e-06
-3.7913e-06
1.99625e-06
-3.91849e-06
-4.17311e-07
-4.28275e-06
-2.91409e-06
-4.82681e-06
-5.55208e-06
-5.42869e-06
-8.36093e-06
-5.8879e-06
-1.12962e-05
-5.92742e-06
-1.41564e-05
-5.24561e-06
-1.64487e-05
-3.67223e-06
-1.72063e-05
-1.50128e-06
-1.48178e-05
-7.15804e-06
-1.67435e-06
7.91807e-06
-3.51898e-06
1.49592e-05
-4.32783e-06
1.64086e-05
-4.10907e-06
1.52046e-05
-3.22144e-06
1.29684e-05
-2.03528e-06
1.04742e-05
-8.39151e-07
8.04946e-06
1.69188e-07
5.79247e-06
8.63806e-07
3.69264e-06
1.16917e-06
1.69089e-06
1.04611e-06
-2.94249e-07
4.88089e-07
-2.35608e-06
-4.70598e-07
-4.59339e-06
-1.73301e-06
-7.09852e-06
-3.10428e-06
-9.92488e-06
-4.25355e-06
-1.30071e-05
-4.70952e-06
-1.59927e-05
-3.97315e-06
-1.79426e-05
-1.9453e-06
-1.68456e-05
-9.10334e-06
-2.22789e-06
1.0146e-05
-3.59291e-06
1.63242e-05
-3.0872e-06
1.59029e-05
-1.36029e-06
1.34777e-05
8.72904e-07
1.07352e-05
3.12286e-06
8.22421e-06
5.09852e-06
6.07381e-06
6.64279e-06
4.24821e-06
7.67539e-06
2.66004e-06
8.15379e-06
1.2125e-06
8.05124e-06
-1.91698e-07
7.34894e-06
-1.65378e-06
6.04157e-06
-3.28603e-06
4.1606e-06
-5.21755e-06
1.82364e-06
-7.58792e-06
-6.8346e-07
-1.05e-05
-2.8051e-06
-1.3871e-05
-3.66615e-06
-1.70816e-05
-2.40867e-06
-1.81031e-05
-1.1512e-05
-2.56032e-06
1.27063e-05
-2.18315e-06
1.59471e-05
7.12145e-07
1.30076e-05
4.45829e-06
9.73156e-06
8.1156e-06
7.07788e-06
1.12769e-05
5.06287e-06
1.37978e-05
3.55297e-06
1.56511e-05
2.39492e-06
1.68505e-05
1.46062e-06
1.74115e-05
6.51489e-07
1.73329e-05
-1.13123e-07
1.65891e-05
-9.09977e-07
1.51298e-05
-1.82669e-06
1.28917e-05
-2.97942e-06
9.83654e-06
-4.5328e-06
6.04395e-06
-6.70743e-06
1.90163e-06
-9.72872e-06
-1.56149e-06
-1.36184e-05
-2.44452e-06
-1.72201e-05
-1.39565e-05
-8.09793e-07
1.35161e-05
4.07521e-06
1.10621e-05
1.02943e-05
6.78845e-06
1.57876e-05
4.2383e-06
2.01477e-05
2.71778e-06
2.34428e-05
1.76775e-06
2.58407e-05
1.15511e-06
2.74972e-05
7.38383e-07
2.85267e-05
4.31143e-07
2.89975e-05
1.80675e-07
2.89332e-05
-4.88619e-08
2.83113e-05
-2.88024e-07
2.70572e-05
-5.72586e-07
2.50342e-05
-9.56455e-07
2.20352e-05
-1.5338e-06
1.78034e-05
-2.47565e-06
1.21642e-05
-4.08949e-06
5.46858e-06
-6.92284e-06
-1.57466e-07
-1.1594e-05
-1.4114e-05
1.35161e-05
2.45781e-05
3.13666e-05
3.56049e-05
3.83227e-05
4.00904e-05
4.12455e-05
4.19839e-05
4.2415e-05
4.25957e-05
4.25469e-05
4.22588e-05
4.16862e-05
4.07298e-05
3.9196e-05
3.67203e-05
3.26308e-05
2.5708e-05
1.4114e-05
)
;

boundaryField
{
    movingWall
    {
        type            calculated;
        value           uniform 0;
    }
    fixedWalls
    {
        type            calculated;
        value           uniform 0;
    }
    frontAndBack
    {
        type            empty;
        value           nonuniform List<scalar> 0();
    }
}


// ************************************************************************* //
