/*--------------------------------*- C++ -*----------------------------------*\
  =========                 |
  \\      /  F ield         | OpenFOAM: The Open Source CFD Toolbox
   \\    /   O peration     | Website:  https://openfoam.org
    \\  /    A nd           | Version:  8
     \\/     M anipulation  |
\*---------------------------------------------------------------------------*/
FoamFile
{
    version     2.0;
    format      ascii;
    class       volVectorField;
    location    "0.12";
    object      U;
}
// * * * * * * * * * * * * * * * * * * * * * * * * * * * * * * * * * * * * * //

dimensions      [0 1 -1 0 0 0 0];

internalField   nonuniform List<vector> 
400
(
(0.000251911 -0.000246439 0)
(0.000139331 0.000113157 0)
(-0.00116594 0.000562016 0)
(-0.00344854 0.000879272 0)
(-0.00631589 0.00103805 0)
(-0.0093761 0.00105347 0)
(-0.0122787 0.000950049 0)
(-0.0147342 0.000753993 0)
(-0.0165193 0.000490276 0)
(-0.0174777 0.000182788 0)
(-0.0175214 -0.000144197 0)
(-0.0166345 -0.000464517 0)
(-0.0148792 -0.00074919 0)
(-0.0124013 -0.000966397 0)
(-0.00943404 -0.00108269 0)
(-0.00629469 -0.00106609 0)
(-0.00336894 -0.000892072 0)
(-0.00107631 -0.000553253 0)
(0.000194431 -9.02885e-05 0)
(0.000265347 0.000260056 0)
(-7.55193e-05 -0.000168089 0)
(-0.00159263 0.00163059 0)
(-0.00563114 0.00358342 0)
(-0.0115942 0.00498594 0)
(-0.0186915 0.00568571 0)
(-0.0261188 0.00570116 0)
(-0.0331098 0.00511776 0)
(-0.0390018 0.00404938 0)
(-0.0432716 0.00261975 0)
(-0.0455505 0.000957279 0)
(-0.0456341 -0.000803438 0)
(-0.0434931 -0.00251864 0)
(-0.0392833 -0.00403441 0)
(-0.0333533 -0.00518984 0)
(-0.0262435 -0.00582657 0)
(-0.0186664 -0.00580737 0)
(-0.0114533 -0.00504699 0)
(-0.00545981 -0.00355708 0)
(-0.00147914 -0.00154466 0)
(-4.27971e-05 0.000225629 0)
(-0.000523755 0.0010783 0)
(-0.0036727 0.00567669 0)
(-0.0104771 0.0101194 0)
(-0.0197809 0.0132676 0)
(-0.0304392 0.0147872 0)
(-0.0413772 0.0146783 0)
(-0.0515624 0.0131107 0)
(-0.0600923 0.0103414 0)
(-0.06625 0.00666891 0)
(-0.0695292 0.00241506 0)
(-0.0696501 -0.00207827 0)
(-0.0665735 -0.00644748 0)
(-0.0605145 -0.0103091 0)
(-0.0519499 -0.0132713 0)
(-0.0416141 -0.0149603 0)
(-0.0304711 -0.0150673 0)
(-0.0196384 -0.0134205 0)
(-0.0102661 -0.0100805 0)
(-0.00351709 -0.00549741 0)
(-0.000474043 -0.000939089 0)
(-0.000920476 0.00344062 0)
(-0.00563632 0.0120935 0)
(-0.0151499 0.0197159 0)
(-0.0276391 0.0249341 0)
(-0.0415655 0.0273035 0)
(-0.0556136 0.0268449 0)
(-0.0685511 0.0238466 0)
(-0.0793115 0.0187474 0)
(-0.0870535 0.0120652 0)
(-0.0911836 0.00436378 0)
(-0.0913718 -0.00375547 0)
(-0.0875659 -0.0116547 0)
(-0.0800078 -0.0186644 0)
(-0.0692447 -0.0241046 0)
(-0.0561304 -0.0273302 0)
(-0.0418023 -0.0278103 0)
(-0.0276033 -0.0252433 0)
(-0.0149594 -0.0197001 0)
(-0.00545873 -0.0118147 0)
(-0.000856179 -0.00319443 0)
(-0.00126961 0.00680582 0)
(-0.00747088 0.0207432 0)
(-0.0196283 0.0321838 0)
(-0.0352172 0.0396948 0)
(-0.052269 0.0428424 0)
(-0.0692255 0.0417501 0)
(-0.0846836 0.0368828 0)
(-0.0974586 0.0289037 0)
(-0.106631 0.0185825 0)
(-0.111555 0.00675264 0)
(-0.111867 -0.00570115 0)
(-0.107494 -0.0178417 0)
(-0.0986749 -0.0286845 0)
(-0.0859794 -0.0372237 0)
(-0.0703268 -0.0424949 0)
(-0.0529816 -0.0436838 0)
(-0.0354906 -0.0402844 0)
(-0.0195764 -0.0322881 0)
(-0.00731448 -0.020403 0)
(-0.00119674 -0.00644007 0)
(-0.00159821 0.0111071 0)
(-0.00925056 0.0315728 0)
(-0.024027 0.0474953 0)
(-0.0426769 0.0575103 0)
(-0.0627738 0.0613275 0)
(-0.0825112 0.0592824 0)
(-0.100336 0.0520963 0)
(-0.114982 0.0407097 0)
(-0.125491 0.0261752 0)
(-0.131195 0.00961025 0)
(-0.131708 -0.00781093 0)
(-0.126929 -0.0248472 0)
(-0.117062 -0.0401863 0)
(-0.102655 -0.0524684 0)
(-0.0846403 -0.0603566 0)
(-0.0643683 -0.0626725 0)
(-0.0435762 -0.0585973 0)
(-0.0243088 -0.0479165 0)
(-0.00919437 -0.0312866 0)
(-0.00153052 -0.0106388 0)
(-0.00193222 0.0163324 0)
(-0.0110595 0.044583 0)
(-0.0284819 0.0656505 0)
(-0.0501797 0.0783499 0)
(-0.0732407 0.0826814 0)
(-0.0956145 0.0793258 0)
(-0.115628 0.0693608 0)
(-0.131979 0.0540658 0)
(-0.143713 0.0348041 0)
(-0.15018 0.0129792 0)
(-0.150985 -0.00995883 0)
(-0.145991 -0.0324816 0)
(-0.135336 -0.0529563 0)
(-0.11949 -0.0696511 0)
(-0.0993366 -0.0808023 0)
(-0.0762549 -0.0847667 0)
(-0.0521422 -0.0802704 0)
(-0.0293809 -0.0667254 0)
(-0.0112258 -0.0445841 0)
(-0.0018937 -0.0158294 0)
(-0.00229502 0.0225189 0)
(-0.0129767 0.059832 0)
(-0.0331152 0.0866712 0)
(-0.0578377 0.102159 0)
(-0.0837157 0.106765 0)
(-0.108476 0.101683 0)
(-0.130379 0.0884648 0)
(-0.148151 0.0687999 0)
(-0.160912 0.0443836 0)
(-0.168072 0.0168904 0)
(-0.16926 -0.0119908 0)
(-0.164296 -0.0404888 0)
(-0.153215 -0.0666829 0)
(-0.136345 -0.0884715 0)
(-0.11443 -0.103615 0)
(-0.0887883 -0.109889 0)
(-0.0614096 -0.105385 0)
(-0.0350036 -0.0889142 0)
(-0.0135358 -0.0605156 0)
(-0.00232185 -0.0221251 0)
(-0.00271073 0.0297482 0)
(-0.0150798 0.0774309 0)
(-0.0380285 0.110583 0)
(-0.0656927 0.128816 0)
(-0.0940929 0.133315 0)
(-0.120783 0.125995 0)
(-0.144049 0.109032 0)
(-0.162749 0.0845965 0)
(-0.176168 0.0547276 0)
(-0.183852 0.0213332 0)
(-0.185491 -0.0137266 0)
(-0.180867 -0.0485169 0)
(-0.169876 -0.0808987 0)
(-0.152621 -0.108435 0)
(-0.129588 -0.12838 0)
(-0.101892 -0.137809 0)
(-0.0714884 -0.13395 0)
(-0.0413541 -0.11471 0)
(-0.0162507 -0.079396 0)
(-0.00285306 -0.0297118 0)
(-0.00321193 0.0381497 0)
(-0.0174633 0.097535 0)
(-0.0433162 0.137373 0)
(-0.0737076 0.15806 0)
(-0.10408 0.16184 0)
(-0.131915 0.151633 0)
(-0.155669 0.130413 0)
(-0.174484 0.100904 0)
(-0.187939 0.0654793 0)
(-0.195812 0.0262124 0)
(-0.197913 -0.0149702 0)
(-0.194005 -0.0560924 0)
(-0.183811 -0.0949154 0)
(-0.167117 -0.128751 0)
(-0.143999 -0.154359 0)
(-0.115167 -0.168007 0)
(-0.082324 -0.165793 0)
(-0.0485658 -0.1443 0)
(-0.0195083 -0.101614 0)
(-0.00353569 -0.0388513 0)
(-0.00385413 0.0479216 0)
(-0.0202711 0.120343 0)
(-0.0490888 0.166938 0)
(-0.0817534 0.189377 0)
(-0.11314 0.191487 0)
(-0.140846 0.177559 0)
(-0.163725 0.151564 0)
(-0.181409 0.116834 0)
(-0.193936 0.076034 0)
(-0.201435 0.0312966 0)
(-0.203911 -0.0155328 0)
(-0.201142 -0.0626081 0)
(-0.192659 -0.107767 0)
(-0.177848 -0.148227 0)
(-0.156201 -0.180336 0)
(-0.12775 -0.199492 0)
(-0.0936158 -0.200385 0)
(-0.0567132 -0.17772 0)
(-0.0234797 -0.127604 0)
(-0.00444222 -0.0498992 0)
(-0.00474159 0.0593813 0)
(-0.0237469 0.146104 0)
(-0.0554897 0.198989 0)
(-0.0895552 0.221849 0)
(-0.120371 0.220863 0)
(-0.145985 0.202164 0)
(-0.165988 0.170912 0)
(-0.180761 0.131061 0)
(-0.190988 0.0854654 0)
(-0.197268 0.0361638 0)
(-0.199888 -0.0152696 0)
(-0.198687 -0.0673338 0)
(-0.193019 -0.118181 0)
(-0.181818 -0.165174 0)
(-0.163827 -0.204444 0)
(-0.13809 -0.230575 0)
(-0.104668 -0.236605 0)
(-0.0657688 -0.214681 0)
(-0.0284 -0.157802 0)
(-0.00569399 -0.0633479 0)
(-0.0060731 0.0730684 0)
(-0.0283009 0.175118 0)
(-0.0626689 0.232891 0)
(-0.096529 0.253898 0)
(-0.124242 0.247791 0)
(-0.144886 0.223079 0)
(-0.159248 0.186239 0)
(-0.168753 0.141752 0)
(-0.17489 0.0924822 0)
(-0.178823 0.0401606 0)
(-0.181175 -0.0141271 0)
(-0.181912 -0.0694633 0)
(-0.180272 -0.124594 0)
(-0.174755 -0.177357 0)
(-0.163276 -0.224014 0)
(-0.14359 -0.258581 0)
(-0.114111 -0.272376 0)
(-0.0754836 -0.254274 0)
(-0.0346014 -0.192557 0)
(-0.0075036 -0.0799115 0)
(-0.00821648 0.0899252 0)
(-0.0345712 0.207665 0)
(-0.0706059 0.267323 0)
(-0.101356 0.282887 0)
(-0.122051 0.268998 0)
(-0.133722 0.237009 0)
(-0.1389 0.194633 0)
(-0.140299 0.146594 0)
(-0.140273 0.0954629 0)
(-0.140535 0.0424075 0)
(-0.142044 -0.0121905 0)
(-0.144944 -0.0682123 0)
(-0.148474 -0.125271 0)
(-0.150859 -0.182061 0)
(-0.149273 -0.235492 0)
(-0.14005 -0.279567 0)
(-0.119358 -0.304186 0)
(-0.0850762 -0.294457 0)
(-0.042505 -0.231904 0)
(-0.0102374 -0.100665 0)
(-0.011789 0.111554 0)
(-0.0433456 0.243708 0)
(-0.0784971 0.29961 0)
(-0.10098 0.304524 0)
(-0.108864 0.2798 0)
(-0.106402 0.239696 0)
(-0.0983469 0.192635 0)
(-0.0887125 0.143008 0)
(-0.0805341 0.0926517 0)
(-0.0758697 0.0419039 0)
(-0.0758928 -0.00970943 0)
(-0.0809385 -0.0629832 0)
(-0.0904229 -0.118574 0)
(-0.102621 -0.176387 0)
(-0.114362 -0.23461 0)
(-0.120808 -0.288164 0)
(-0.115594 -0.326506 0)
(-0.0924427 -0.331216 0)
(-0.0523888 -0.275014 0)
(-0.0144505 -0.127202 0)
(-0.0175545 0.140606 0)
(-0.0548213 0.281997 0)
(-0.0829598 0.324434 0)
(-0.0884048 0.312062 0)
(-0.0755941 0.273961 0)
(-0.0532427 0.226245 0)
(-0.0282696 0.176788 0)
(-0.00546482 0.128712 0)
(0.0120418 0.0826089 0)
(0.0223183 0.0377909 0)
(0.0242607 -0.00706846 0)
(0.0174045 -0.0535946 0)
(0.00196108 -0.103445 0)
(-0.0208878 -0.157898 0)
(-0.0484151 -0.217 0)
(-0.0755324 -0.277825 0)
(-0.0939089 -0.331275 0)
(-0.0922514 -0.357253 0)
(-0.0633373 -0.319011 0)
(-0.0206385 -0.16185 0)
(-0.0254033 0.181635 0)
(-0.0657543 0.317747 0)
(-0.0734517 0.331219 0)
(-0.048334 0.295137 0)
(-0.00598127 0.243878 0)
(0.0406556 0.192019 0)
(0.0839316 0.144699 0)
(0.119674 0.102676 0)
(0.145728 0.0649246 0)
(0.161003 0.0297805 0)
(0.164874 -0.00467173 0)
(0.156895 -0.0405204 0)
(0.136766 -0.0800424 0)
(0.104592 -0.125637 0)
(0.0615649 -0.179395 0)
(0.0112811 -0.241668 0)
(-0.0381776 -0.307543 0)
(-0.0718478 -0.35989 0)
(-0.0700406 -0.356476 0)
(-0.027861 -0.208224 0)
(-0.0294365 0.238944 0)
(-0.060635 0.335915 0)
(-0.0220159 0.300506 0)
(0.0503611 0.239997 0)
(0.127288 0.182762 0)
(0.196586 0.135183 0)
(0.253774 0.0971992 0)
(0.29756 0.0666812 0)
(0.328033 0.0412333 0)
(0.34561 0.0187158 0)
(0.350496 -0.00279356 0)
(0.342443 -0.0252038 0)
(0.320671 -0.0506735 0)
(0.283942 -0.0818934 0)
(0.230997 -0.122266 0)
(0.161748 -0.175483 0)
(0.0795984 -0.24327 0)
(-0.00333857 -0.319079 0)
(-0.0544543 -0.368686 0)
(-0.0282207 -0.267305 0)
(0.00868218 0.281489 0)
(0.0203592 0.295058 0)
(0.138968 0.211036 0)
(0.264325 0.143467 0)
(0.364208 0.0971438 0)
(0.440112 0.0657213 0)
(0.496387 0.0441779 0)
(0.536424 0.0288332 0)
(0.562922 0.0171609 0)
(0.577734 0.00746643 0)
(0.581792 -0.00149155 0)
(0.575123 -0.0108232 0)
(0.55678 -0.0218101 0)
(0.524674 -0.0362896 0)
(0.475403 -0.0572133 0)
(0.404252 -0.0893454 0)
(0.304928 -0.139725 0)
(0.173227 -0.216425 0)
(0.0417566 -0.311693 0)
(0.0190789 -0.299581 0)
(0.300186 0.145894 0)
(0.39688 0.127462 0)
(0.557411 0.0761119 0)
(0.674442 0.0437465 0)
(0.743844 0.0255889 0)
(0.787067 0.0152527 0)
(0.815354 0.00921771 0)
(0.833785 0.00551173 0)
(0.845186 0.00302853 0)
(0.851155 0.00115096 0)
(0.852446 -0.000497407 0)
(0.84917 -0.00221298 0)
(0.840806 -0.00433791 0)
(0.825974 -0.00742699 0)
(0.801947 -0.0125409 0)
(0.763524 -0.0217887 0)
(0.699009 -0.0393065 0)
(0.583876 -0.0726802 0)
(0.416403 -0.127816 0)
(0.309416 -0.149276 0)
)
;

boundaryField
{
    movingWall
    {
        type            fixedValue;
        value           uniform (1 0 0);
    }
    fixedWalls
    {
        type            noSlip;
    }
    frontAndBack
    {
        type            empty;
    }
}


// ************************************************************************* //
