/*--------------------------------*- C++ -*----------------------------------*\
  =========                 |
  \\      /  F ield         | OpenFOAM: The Open Source CFD Toolbox
   \\    /   O peration     | Website:  https://openfoam.org
    \\  /    A nd           | Version:  8
     \\/     M anipulation  |
\*---------------------------------------------------------------------------*/
FoamFile
{
    version     2.0;
    format      ascii;
    class       volScalarField;
    location    "7";
    object      p;
}
// * * * * * * * * * * * * * * * * * * * * * * * * * * * * * * * * * * * * * //

dimensions      [0 2 -2 0 0 0 0];

internalField   nonuniform List<scalar> 
116
(
-5.02243e-08
4.13733e-05
0.000206005
0.000475519
0.000937485
0.00142324
-4.98458e-06
3.65604e-05
0.000184547
0.000436128
0.000849059
0.00142829
-0.000343467
-0.000353886
-0.000258664
-0.000123418
0.000147272
0.00058278
-0.000528229
-0.00052895
-0.000505283
-0.000436593
-0.000360933
-0.000103688
-0.0011132
-0.00126802
-0.0013231
-0.00153821
-0.00181625
-0.00190015
-0.00140971
-0.0014534
-0.00165163
-0.00179723
-0.00256276
-0.00286478
-0.00170479
-0.00220431
-0.00239868
-0.00302694
-0.00407629
-0.00458595
-0.00267718
-0.00236927
-0.00255634
-0.00260628
-0.00384411
-0.00482603
-0.00095729
-0.00323725
-0.00279455
-0.0040064
-0.00484962
-0.00516769
-0.00800346
-0.00142879
-0.00111741
-0.00106219
-0.00180443
-0.00225973
0.00277646
0.00378161
0.0046573
0.00578807
0.00257699
0.00383651
0.0049304
0.0070249
0.00131119
0.00273639
0.00384124
0.00795502
2.12155e-05
0.00138484
0.000970527
0.00674753
-0.00320891
-0.00214489
-0.00748519
0.000928566
-0.00537312
-0.00496651
-0.0117529
-0.00481815
-0.00798528
-0.00986789
-0.0154281
-0.0085774
-0.00831689
-0.0133235
-0.0197486
-0.00662422
-0.00892334
-0.0147286
-0.0191433
0.00421818
-0.00297353
-0.0016097
0.00584371
0.0487808
0.00449973
0.00457271
0.00467451
0.00475812
0.0045255
0.00463234
0.00474547
0.0048543
0.00418936
0.00440299
0.00465656
0.0049178
0.00415871
0.00460069
0.00491465
0.00537214
)
;

boundaryField
{
    movingWall
    {
        type            zeroGradient;
    }
    fixedWalls
    {
        type            zeroGradient;
    }
    frontAndBack
    {
        type            empty;
    }
}


// ************************************************************************* //
