0 	5.22561e-09
1.57135 	-0.000197394
3.1427 	-8.66056e-05
4.71405 	-0.00103249
6.28539 	-0.00353932
7.85674 	-0.00523171
9.42809 	-0.00382488
10.9994 	-0.00240998
12.5708 	0.0159629
14.1421 	0.0498861
