/*--------------------------------*- C++ -*----------------------------------*\
  =========                 |
  \\      /  F ield         | OpenFOAM: The Open Source CFD Toolbox
   \\    /   O peration     | Website:  https://openfoam.org
    \\  /    A nd           | Version:  8
     \\/     M anipulation  |
\*---------------------------------------------------------------------------*/
FoamFile
{
    version     2.0;
    format      ascii;
    class       volScalarField;
    location    "1.24";
    object      p;
}
// * * * * * * * * * * * * * * * * * * * * * * * * * * * * * * * * * * * * * //

dimensions      [0 2 -2 0 0 0 0];

internalField   nonuniform List<scalar> 
400
(
3.8513e-15
1.10528e-11
1.83757e-11
2.05978e-11
1.72016e-11
8.42626e-12
-4.79061e-12
-2.11413e-11
-3.86227e-11
-5.55148e-11
-7.01929e-11
-8.10011e-11
-8.68545e-11
-8.7172e-11
-8.25106e-11
-7.32635e-11
-6.05697e-11
-4.53139e-11
-2.92449e-11
-1.37754e-11
-9.56255e-12
5.21216e-13
7.97606e-12
1.19371e-11
1.13234e-11
6.3797e-12
-2.8222e-12
-1.47849e-11
-2.82129e-11
-4.17391e-11
-5.41909e-11
-6.42848e-11
-7.06125e-11
-7.30417e-11
-7.12067e-11
-6.59295e-11
-5.71056e-11
-4.6011e-11
-3.33774e-11
-2.08923e-11
-1.61231e-11
-6.06536e-12
2.76289e-12
8.3401e-12
1.05837e-11
8.46634e-12
2.74743e-12
-6.15433e-12
-1.67979e-11
-2.856e-11
-4.04077e-11
-5.08689e-11
-5.90435e-11
-6.37493e-11
-6.53737e-11
-6.31552e-11
-5.79471e-11
-4.93204e-11
-3.87704e-11
-2.73732e-11
-1.99408e-11
-8.24569e-12
1.55761e-12
9.09555e-12
1.27759e-11
1.30183e-11
9.15564e-12
2.34575e-12
-7.19891e-12
-1.84524e-11
-3.05533e-11
-4.22698e-11
-5.18941e-11
-5.91613e-11
-6.28927e-11
-6.36128e-11
-6.02252e-11
-5.35828e-11
-4.35443e-11
-3.18432e-11
-2.12749e-11
-8.75491e-12
2.44841e-12
1.0527e-11
1.55928e-11
1.65105e-11
1.39722e-11
7.51813e-12
-1.59471e-12
-1.30421e-11
-2.56667e-11
-3.79486e-11
-4.893e-11
-5.70903e-11
-6.2656e-11
-6.4354e-11
-6.26249e-11
-5.63549e-11
-4.66465e-11
-3.43846e-11
-1.98807e-11
-6.87461e-12
4.01109e-12
1.23331e-11
1.67034e-11
1.76451e-11
1.42053e-11
7.57248e-12
-2.17017e-12
-1.38396e-11
-2.65557e-11
-3.90527e-11
-4.97837e-11
-5.84007e-11
-6.35224e-11
-6.55189e-11
-6.30903e-11
-5.67752e-11
-4.63119e-11
-3.35309e-11
-1.52117e-11
-3.04987e-12
6.88267e-12
1.3326e-11
1.63558e-11
1.4957e-11
1.01594e-11
1.91501e-12
-8.43086e-12
-2.0507e-11
-3.29853e-11
-4.45735e-11
-5.44743e-11
-6.14655e-11
-6.5523e-11
-6.53867e-11
-6.16128e-11
-5.34962e-11
-4.23006e-11
-2.88765e-11
-8.66377e-12
2.15567e-12
9.62934e-12
1.37621e-11
1.3594e-11
9.76729e-12
2.29999e-12
-7.30475e-12
-1.88517e-11
-3.10346e-11
-4.28462e-11
-5.302e-11
-6.06005e-11
-6.5418e-11
-6.64432e-11
-6.38796e-11
-5.71094e-11
-4.73654e-11
-3.49968e-11
-2.16185e-11
-2.16347e-12
6.56127e-12
1.15424e-11
1.24121e-11
9.42078e-12
2.49751e-12
-6.83528e-12
-1.81968e-11
-3.03469e-11
-4.26049e-11
-5.32801e-11
-6.13214e-11
-6.6287e-11
-6.7787e-11
-6.58806e-11
-5.9921e-11
-5.0858e-11
-3.91808e-11
-2.6602e-11
-1.37013e-11
2.26855e-12
8.72828e-12
1.11121e-11
9.43672e-12
3.68021e-12
-5.04766e-12
-1.60441e-11
-2.80078e-11
-4.05648e-11
-5.20912e-11
-6.13333e-11
-6.70691e-11
-6.91513e-11
-6.78108e-11
-6.28002e-11
-5.45577e-11
-4.3458e-11
-3.12696e-11
-1.88534e-11
-7.4321e-12
3.57397e-12
7.83866e-12
8.17514e-12
4.51889e-12
-2.60461e-12
-1.24179e-11
-2.35732e-11
-3.5609e-11
-4.7302e-11
-5.76829e-11
-6.49555e-11
-6.85175e-11
-6.82595e-11
-6.45705e-11
-5.77048e-11
-4.78884e-11
-3.64632e-11
-2.44891e-11
-1.35089e-11
-3.82362e-12
2.03013e-12
4.13768e-12
2.9344e-12
-1.71047e-12
-9.24119e-12
-1.8678e-11
-2.92606e-11
-3.99658e-11
-5.02371e-11
-5.84599e-11
-6.37679e-11
-6.52663e-11
-6.3388e-11
-5.83948e-11
-5.06475e-11
-4.08577e-11
-3.00536e-11
-1.97793e-11
-1.05874e-11
-3.29033e-12
-1.95695e-12
-1.47771e-12
-3.97601e-12
-8.83794e-12
-1.576e-11
-2.40735e-11
-3.29315e-11
-4.18273e-11
-4.95931e-11
-5.5572e-11
-5.85259e-11
-5.85557e-11
-5.5567e-11
-5.0202e-11
-4.27047e-11
-3.38736e-11
-2.49522e-11
-1.67658e-11
-1.01758e-11
-4.99258e-12
-7.26283e-12
-8.40261e-12
-1.15491e-11
-1.63195e-11
-2.20905e-11
-2.8679e-11
-3.55582e-11
-4.19067e-11
-4.72566e-11
-5.05144e-11
-5.16893e-11
-5.02969e-11
-4.69864e-11
-4.17176e-11
-3.51718e-11
-2.80227e-11
-2.11966e-11
-1.56103e-11
-1.13168e-11
-8.59304e-12
-1.32758e-11
-1.51956e-11
-1.89097e-11
-2.31064e-11
-2.77807e-11
-3.26624e-11
-3.7412e-11
-4.1598e-11
-4.43711e-11
-4.57325e-11
-4.51499e-11
-4.32273e-11
-3.96496e-11
-3.50187e-11
-2.95e-11
-2.40215e-11
-1.92636e-11
-1.56615e-11
-1.36948e-11
-1.27296e-11
-1.80774e-11
-2.08222e-11
-2.42674e-11
-2.81248e-11
-3.17645e-11
-3.5352e-11
-3.85806e-11
-4.09423e-11
-4.22973e-11
-4.21565e-11
-4.10927e-11
-3.87554e-11
-3.56242e-11
-3.13538e-11
-2.67797e-11
-2.2442e-11
-1.89697e-11
-1.68545e-11
-1.60859e-11
-1.67222e-11
-2.08019e-11
-2.33097e-11
-2.66206e-11
-2.98234e-11
-3.29958e-11
-3.5834e-11
-3.8278e-11
-4.01245e-11
-4.09256e-11
-4.09527e-11
-3.9897e-11
-3.82214e-11
-3.53033e-11
-3.15639e-11
-2.72452e-11
-2.33659e-11
-2.03656e-11
-1.85162e-11
-1.82442e-11
-1.9012e-11
-2.02962e-11
-2.2308e-11
-2.48324e-11
-2.7789e-11
-3.06113e-11
-3.34832e-11
-3.62642e-11
-3.87025e-11
-4.06563e-11
-4.16531e-11
-4.19108e-11
-4.0893e-11
-3.86906e-11
-3.49851e-11
-3.07033e-11
-2.65053e-11
-2.29988e-11
-2.05459e-11
-1.92925e-11
-1.93856e-11
-1.71872e-11
-1.77379e-11
-1.94373e-11
-2.17679e-11
-2.4766e-11
-2.83203e-11
-3.24591e-11
-3.68675e-11
-4.08753e-11
-4.40963e-11
-4.59398e-11
-4.63482e-11
-4.47362e-11
-4.13544e-11
-3.66756e-11
-3.17032e-11
-2.6928e-11
-2.27541e-11
-1.96738e-11
-1.76965e-11
-1.29691e-11
-1.18454e-11
-1.21449e-11
-1.38837e-11
-1.70336e-11
-2.17318e-11
-2.77708e-11
-3.45652e-11
-4.12568e-11
-4.68678e-11
-5.08847e-11
-5.27524e-11
-5.22492e-11
-4.92428e-11
-4.43616e-11
-3.83328e-11
-3.188e-11
-2.55997e-11
-2.00281e-11
-1.5786e-11
)
;

boundaryField
{
    movingWall
    {
        type            zeroGradient;
    }
    fixedWalls
    {
        type            zeroGradient;
    }
    left
    {
        type            cyclic;
    }
    right
    {
        type            cyclic;
    }
    frontAndBack
    {
        type            empty;
    }
}


// ************************************************************************* //
