0 	1.52695e-07
1.57135 	-1.18245e-07
3.1427 	-3.89786e-06
4.71405 	-9.89475e-06
6.28539 	-1.55238e-05
7.85674 	-1.48076e-05
9.42809 	1.16578e-05
10.9994 	-0.000204448
12.5708 	-0.0213896
14.1421 	0.378226
