/*--------------------------------*- C++ -*----------------------------------*\
  =========                 |
  \\      /  F ield         | OpenFOAM: The Open Source CFD Toolbox
   \\    /   O peration     | Website:  https://openfoam.org
    \\  /    A nd           | Version:  8
     \\/     M anipulation  |
\*---------------------------------------------------------------------------*/
FoamFile
{
    version     2.0;
    format      ascii;
    class       volScalarField;
    location    "0.24";
    object      p;
}
// * * * * * * * * * * * * * * * * * * * * * * * * * * * * * * * * * * * * * //

dimensions      [0 2 -2 0 0 0 0];

internalField   nonuniform List<scalar> 
400
(
2.45969e-06
-0.00582402
-0.0129598
-0.0184101
-0.0204262
-0.0182319
-0.0117677
-0.00147873
0.0118405
0.0271501
0.0432431
0.0588195
0.0725734
0.0833022
0.0900463
0.0922612
0.0900217
0.0842421
0.0768811
0.0710692
0.00577856
-0.000219009
-0.00580321
-0.00954043
-0.0105958
-0.00842908
-0.00296638
0.00547708
0.0163048
0.0287123
0.0417491
0.054384
0.0655835
0.0744065
0.0801169
0.0823131
0.0810758
0.0770551
0.0712761
0.0653214
0.0133302
0.00503102
-0.000996323
-0.00442287
-0.00527173
-0.00326214
0.0016043
0.00902934
0.0185033
0.0293498
0.0407652
0.0518687
0.0617671
0.0696348
0.0748056
0.0768774
0.0758421
0.0720879
0.0658093
0.0575414
0.0201322
0.00869178
0.00122361
-0.00266946
-0.00372203
-0.0018845
0.00273247
0.00978585
0.0187815
0.0290958
0.0399924
0.050654
0.0602327
0.0679157
0.0730032
0.0750023
0.0737678
0.0694596
0.0616084
0.0501107
0.0244933
0.00976803
0.000586846
-0.00398844
-0.00530264
-0.0035069
0.00117575
0.0083359
0.0174634
0.0279505
0.0390862
0.050071
0.0600498
0.0681661
0.0736277
0.0757998
0.0743721
0.0692944
0.0595324
0.0445472
0.025169
0.00714492
-0.00380492
-0.00905868
-0.0105124
-0.0084993
-0.00335539
0.00443137
0.0143156
0.0256814
0.0378162
0.0499056
0.0610503
0.0703054
0.0767372
0.07952
0.0781431
0.0723391
0.060547
0.0419011
0.0210858
-0.000266534
-0.0129366
-0.0187101
-0.0200294
-0.0174124
-0.011316
-0.00231664
0.00899395
0.02198
0.0359135
0.0499481
0.0631158
0.0743489
0.0825256
0.0865737
0.0857257
0.0794532
0.0656285
0.043083
0.0111377
-0.0136205
-0.0278756
-0.0338536
-0.0346018
-0.0308547
-0.0232091
-0.0123406
0.00110998
0.0164893
0.0330581
0.049939
0.0660886
0.0802949
0.0912056
0.0974351
0.0978759
0.0916425
0.0759043
0.0491272
-0.00596863
-0.0342661
-0.0498685
-0.0555461
-0.0550867
-0.0495102
-0.0395881
-0.0261071
-0.00975021
0.00883026
0.0289083
0.0496006
0.0698043
0.0881609
0.103054
0.112707
0.115557
0.110198
0.0928417
0.0614207
-0.0318543
-0.0638727
-0.080413
-0.0850026
-0.0824149
-0.0740722
-0.0609739
-0.0440287
-0.0239429
-0.00132789
0.0231547
0.0486698
0.0741039
0.0979799
0.118403
0.133132
0.139995
0.136824
0.118447
0.0819411
-0.0686599
-0.104597
-0.121338
-0.123583
-0.117508
-0.105119
-0.0877098
-0.0663162
-0.041627
-0.0141452
0.0156161
0.0469634
0.0788653
0.109802
0.137632
0.159593
0.172733
0.173784
0.155526
0.113576
-0.119391
-0.159347
-0.174906
-0.172749
-0.161139
-0.14292
-0.119749
-0.0927667
-0.0625664
-0.0294362
0.00638461
0.0444846
0.0840654
0.123712
0.161144
0.193093
0.215674
0.224082
0.208054
0.160635
-0.188614
-0.23223
-0.243929
-0.233938
-0.213685
-0.187145
-0.156363
-0.12249
-0.0858865
-0.0464603
-0.00400253
0.0415503
0.0898528
0.139839
0.189327
0.234696
0.27108
0.291668
0.281745
0.229776
-0.283958
-0.329292
-0.331821
-0.30827
-0.2747
-0.236431
-0.195755
-0.1536
-0.109829
-0.0637334
-0.014426
0.0388748
0.0965647
0.158286
0.222382
0.285294
0.341402
0.381578
0.384915
0.331832
-0.419302
-0.459658
-0.44234
-0.395783
-0.342121
-0.287731
-0.234607
-0.18292
-0.131599
-0.0789737
-0.0232026
0.0374863
0.104563
0.178846
0.259868
0.344976
0.42862
0.499702
0.529675
0.485388
-0.620516
-0.636732
-0.578668
-0.494186
-0.411234
-0.335652
-0.267773
-0.205969
-0.147527
-0.0893727
-0.0284154
0.0383586
0.113816
0.200479
0.299981
0.412029
0.533032
0.651776
0.732771
0.722391
-0.935911
-0.878506
-0.741735
-0.597944
-0.474389
-0.372655
-0.288863
-0.217756
-0.153945
-0.0924548
-0.0287076
0.0417052
0.123272
0.220725
0.338931
0.482158
0.651999
0.841342
1.01527
1.0975
-1.47641
-1.20662
-0.920499
-0.691386
-0.517304
-0.387542
-0.290058
-0.213333
-0.148118
-0.0872077
-0.0245689
0.0454664
0.128946
0.233078
0.367109
0.542682
0.771295
1.05932
1.40329
1.73014
-2.53964
-1.63054
-1.04444
-0.710959
-0.495752
-0.352094
-0.25453
-0.183581
-0.126165
-0.0735885
-0.0192609
0.0427958
0.119221
0.218791
0.354819
0.547989
0.826396
1.23658
1.91168
2.92419
-4.36666
-2.04463
-0.973543
-0.563184
-0.357851
-0.240151
-0.170122
-0.123783
-0.0874788
-0.0535048
-0.0166464
0.0276705
0.0846182
0.16174
0.272421
0.442107
0.718225
1.22571
2.41104
4.84853
)
;

boundaryField
{
    movingWall
    {
        type            zeroGradient;
    }
    fixedWalls
    {
        type            zeroGradient;
    }
    frontAndBack
    {
        type            empty;
    }
}


// ************************************************************************* //
