/*--------------------------------*- C++ -*----------------------------------*\
  =========                 |
  \\      /  F ield         | OpenFOAM: The Open Source CFD Toolbox
   \\    /   O peration     | Website:  https://openfoam.org
    \\  /    A nd           | Version:  8
     \\/     M anipulation  |
\*---------------------------------------------------------------------------*/
FoamFile
{
    version     2.0;
    format      ascii;
    class       volVectorField;
    location    "0.24";
    object      U;
}
// * * * * * * * * * * * * * * * * * * * * * * * * * * * * * * * * * * * * * //

dimensions      [0 1 -1 0 0 0 0];

internalField   nonuniform List<vector> 
400
(
(0.000253403 -0.000250285 0)
(0.000141244 0.000111471 0)
(-0.00117674 0.00056451 0)
(-0.0034804 0.000884795 0)
(-0.00637615 0.00104547 0)
(-0.00946746 0.0010615 0)
(-0.0124003 0.000957631 0)
(-0.0148818 0.000760269 0)
(-0.016686 0.000494539 0)
(-0.0176546 0.000184527 0)
(-0.0176985 -0.000145229 0)
(-0.0168016 -0.000468257 0)
(-0.015027 -0.000755244 0)
(-0.0125226 -0.00097405 0)
(-0.00952455 -0.00109096 0)
(-0.0063538 -0.00107379 0)
(-0.00340006 -0.000897944 0)
(-0.0010863 -0.000556291 0)
(0.000196329 -9.03695e-05 0)
(0.000267787 0.000262315 0)
(-7.74146e-05 -0.000169177 0)
(-0.00161116 0.0016446 0)
(-0.00569166 0.00361659 0)
(-0.0117163 0.00503377 0)
(-0.0188883 0.005742 0)
(-0.0263952 0.00575898 0)
(-0.0334622 0.00517058 0)
(-0.0394187 0.00409167 0)
(-0.043735 0.00264711 0)
(-0.0460377 0.000966768 0)
(-0.0461201 -0.000813001 0)
(-0.0439525 -0.00254649 0)
(-0.0396933 -0.00407775 0)
(-0.0336961 -0.005244 0)
(-0.0265083 -0.00588535 0)
(-0.018851 -0.00586368 0)
(-0.0115645 -0.00509377 0)
(-0.00551232 -0.00358876 0)
(-0.00149286 -0.00155889 0)
(-4.2592e-05 0.000227366 0)
(-0.000528469 0.00109149 0)
(-0.00371055 0.00573518 0)
(-0.0105867 0.0102224 0)
(-0.0199875 0.0134049 0)
(-0.0307585 0.0149432 0)
(-0.0418137 0.0148357 0)
(-0.0521093 0.013253 0)
(-0.060732 0.0104541 0)
(-0.0669561 0.00674068 0)
(-0.0702688 0.00243848 0)
(-0.0703869 -0.00210597 0)
(-0.0672713 -0.00652398 0)
(-0.0611406 -0.0104269 0)
(-0.0524785 -0.0134182 0)
(-0.0420291 -0.0151204 0)
(-0.0307682 -0.0152226 0)
(-0.0198254 -0.0135533 0)
(-0.0103616 -0.010177 0)
(-0.00354787 -0.00555009 0)
(-0.00047676 -0.000948713 0)
(-0.000928003 0.00347915 0)
(-0.00569027 0.0122182 0)
(-0.0152987 0.0199176 0)
(-0.0279113 0.0251926 0)
(-0.0419772 0.0275913 0)
(-0.0561682 0.0271319 0)
(-0.0692388 0.024104 0)
(-0.0801105 0.0189501 0)
(-0.0879317 0.0121932 0)
(-0.0921017 0.00440441 0)
(-0.0922864 -0.00380693 0)
(-0.088434 -0.0117939 0)
(-0.0807903 -0.0188781 0)
(-0.0699104 -0.0243712 0)
(-0.0566591 -0.027622 0)
(-0.0421873 -0.0280962 0)
(-0.0278517 -0.0254927 0)
(-0.015091 -0.0198879 0)
(-0.00550403 -0.0119255 0)
(-0.000861433 -0.00322431 0)
(-0.00127865 0.00687637 0)
(-0.00753457 0.0209494 0)
(-0.0198011 0.0325037 0)
(-0.0355285 0.040095 0)
(-0.0527341 0.0432815 0)
(-0.0698464 0.0421843 0)
(-0.0854486 0.0372701 0)
(-0.0983437 0.0292074 0)
(-0.107602 0.0187738 0)
(-0.112569 0.00681274 0)
(-0.112878 -0.00577879 0)
(-0.108456 -0.0180507 0)
(-0.099546 -0.0290052 0)
(-0.0867252 -0.037625 0)
(-0.0709243 -0.0429364 0)
(-0.0534217 -0.0441202 0)
(-0.0357789 -0.0406709 0)
(-0.0197319 -0.0325863 0)
(-0.00736935 -0.0205868 0)
(-0.00120345 -0.00649696 0)
(-0.00160722 0.0112133 0)
(-0.00931645 0.0318682 0)
(-0.0242054 0.0479423 0)
(-0.0429959 0.0580604 0)
(-0.0632472 0.0619249 0)
(-0.0831402 0.0598694 0)
(-0.101109 0.052618 0)
(-0.115875 0.041118 0)
(-0.126469 0.0264323 0)
(-0.132218 0.00969156 0)
(-0.13273 -0.00791411 0)
(-0.127904 -0.0251265 0)
(-0.117949 -0.0406165 0)
(-0.103419 -0.0530086 0)
(-0.0852568 -0.0609542 0)
(-0.0648264 -0.0632679 0)
(-0.0438793 -0.0591309 0)
(-0.0244742 -0.0483354 0)
(-0.00925294 -0.0315518 0)
(-0.0015375 -0.0107266 0)
(-0.00193976 0.0164738 0)
(-0.0111197 0.0449656 0)
(-0.0286466 0.0662207 0)
(-0.0504732 0.0790443 0)
(-0.0736754 0.0834304 0)
(-0.0961914 0.0800589 0)
(-0.116337 0.0700112 0)
(-0.132798 0.0545748 0)
(-0.144613 0.0351256 0)
(-0.151122 0.013083 0)
(-0.15193 -0.0100837 0)
(-0.146897 -0.0328255 0)
(-0.136165 -0.0534888 0)
(-0.120209 -0.0703231 0)
(-0.0999208 -0.0815499 0)
(-0.0766924 -0.085517 0)
(-0.052434 -0.0809492 0)
(-0.0295414 -0.0672652 0)
(-0.0112822 -0.0449318 0)
(-0.00189983 -0.0159488 0)
(-0.00229978 0.0226908 0)
(-0.0130237 0.0602901 0)
(-0.0332476 0.087348 0)
(-0.0580741 0.102978 0)
(-0.0840664 0.107646 0)
(-0.108943 0.102543 0)
(-0.130955 0.0892284 0)
(-0.14882 0.0693988 0)
(-0.161651 0.0447644 0)
(-0.168851 0.0170178 0)
(-0.170047 -0.0121302 0)
(-0.165056 -0.0408847 0)
(-0.153916 -0.0673014 0)
(-0.136957 -0.0892568 0)
(-0.114932 -0.104494 0)
(-0.089168 -0.110778 0)
(-0.0616653 -0.106195 0)
(-0.0351453 -0.089565 0)
(-0.0135846 -0.0609399 0)
(-0.00232611 -0.022274 0)
(-0.00271147 0.0299421 0)
(-0.0151071 0.077944 0)
(-0.0381125 0.111338 0)
(-0.0658444 0.129729 0)
(-0.0943211 0.134295 0)
(-0.121092 0.126953 0)
(-0.144435 0.109884 0)
(-0.163203 0.0852681 0)
(-0.176676 0.0551589 0)
(-0.184395 0.0214847 0)
(-0.186046 -0.0138709 0)
(-0.181411 -0.048947 0)
(-0.170385 -0.0815788 0)
(-0.153072 -0.109305 0)
(-0.129963 -0.12936 0)
(-0.10218 -0.138807 0)
(-0.0716855 -0.134867 0)
(-0.0414646 -0.115453 0)
(-0.0162871 -0.0798842 0)
(-0.00285452 -0.0298854 0)
(-0.00320761 0.0383542 0)
(-0.0174659 0.0980758 0)
(-0.0433403 0.13817 0)
(-0.0737552 0.159023 0)
(-0.104158 0.162877 0)
(-0.132029 0.15265 0)
(-0.155822 0.131322 0)
(-0.174675 0.101626 0)
(-0.188164 0.0659488 0)
(-0.196063 0.0263871 0)
(-0.198182 -0.0151087 0)
(-0.194279 -0.0565352 0)
(-0.184077 -0.0956264 0)
(-0.167363 -0.129669 0)
(-0.144212 -0.155401 0)
(-0.115336 -0.169074 0)
(-0.0824439 -0.166781 0)
(-0.048635 -0.145106 0)
(-0.0195282 -0.102148 0)
(-0.00353347 -0.0390426 0)
(-0.00384404 0.0481232 0)
(-0.0202466 0.12088 0)
(-0.0490475 0.167732 0)
(-0.0816879 0.190343 0)
(-0.113055 0.192533 0)
(-0.140749 0.178592 0)
(-0.163625 0.152493 0)
(-0.181312 0.117578 0)
(-0.19385 0.0765259 0)
(-0.201364 0.0314918 0)
(-0.20386 -0.0156548 0)
(-0.201113 -0.0630402 0)
(-0.192651 -0.108475 0)
(-0.177859 -0.149151 0)
(-0.156225 -0.181393 0)
(-0.12778 -0.200583 0)
(-0.0936447 -0.201403 0)
(-0.0567332 -0.178555 0)
(-0.0234799 -0.12816 0)
(-0.00443553 -0.0500996 0)
(-0.00472558 0.0595661 0)
(-0.0236957 0.146604 0)
(-0.0553855 0.199738 0)
(-0.0893807 0.222769 0)
(-0.120128 0.221869 0)
(-0.145683 0.203166 0)
(-0.165639 0.171821 0)
(-0.180381 0.131796 0)
(-0.190592 0.0859612 0)
(-0.196874 0.0363739 0)
(-0.199512 -0.0153669 0)
(-0.198346 -0.0677333 0)
(-0.192726 -0.118852 0)
(-0.181582 -0.166059 0)
(-0.163651 -0.205467 0)
(-0.137971 -0.231639 0)
(-0.104599 -0.237604 0)
(-0.065735 -0.215507 0)
(-0.0283782 -0.158355 0)
(-0.00568216 -0.0635475 0)
(-0.00605189 0.073224 0)
(-0.0282274 0.175552 0)
(-0.0625125 0.233554 0)
(-0.0962634 0.254727 0)
(-0.123866 0.248711 0)
(-0.144409 0.224006 0)
(-0.158684 0.18709 0)
(-0.168122 0.142449 0)
(-0.174218 0.0929608 0)
(-0.178135 0.0403766 0)
(-0.180502 -0.0141953 0)
(-0.181282 -0.0698125 0)
(-0.17971 -0.125197 0)
(-0.174283 -0.178163 0)
(-0.162905 -0.224953 0)
(-0.143324 -0.259567 0)
(-0.113942 -0.27331 0)
(-0.0753957 -0.25505 0)
(-0.0345572 -0.193079 0)
(-0.00748645 -0.0800999 0)
(-0.00819243 0.0900429 0)
(-0.0344846 0.208011 0)
(-0.0704168 0.26787 0)
(-0.101031 0.28359 0)
(-0.121585 0.269793 0)
(-0.133122 0.237823 0)
(-0.138179 0.195389 0)
(-0.139481 0.147221 0)
(-0.139387 0.095902 0)
(-0.139616 0.0426172 0)
(-0.14113 -0.0122304 0)
(-0.144075 -0.0684999 0)
(-0.147687 -0.125783 0)
(-0.150185 -0.182755 0)
(-0.148733 -0.236308 0)
(-0.139653 -0.280429 0)
(-0.119101 -0.305009 0)
(-0.0849394 -0.295145 0)
(-0.0424418 -0.232367 0)
(-0.0102163 -0.100833 0)
(-0.0117679 0.111633 0)
(-0.0432616 0.243954 0)
(-0.0783019 0.300023 0)
(-0.100636 0.305079 0)
(-0.108362 0.280446 0)
(-0.105745 0.240369 0)
(-0.0975466 0.193269 0)
(-0.0877904 0.143539 0)
(-0.0795221 0.0930298 0)
(-0.0748073 0.0420928 0)
(-0.0748248 -0.00972691 0)
(-0.0799116 -0.0632055 0)
(-0.0894819 -0.118981 0)
(-0.101805 -0.176946 0)
(-0.1137 -0.235272 0)
(-0.120315 -0.288868 0)
(-0.11527 -0.327182 0)
(-0.0922703 -0.331783 0)
(-0.0523171 -0.275396 0)
(-0.0144306 -0.127344 0)
(-0.0175496 0.140658 0)
(-0.0547662 0.282141 0)
(-0.0827904 0.324711 0)
(-0.0880876 0.312464 0)
(-0.0751189 0.274445 0)
(-0.0526046 0.22676 0)
(-0.0274751 0.177279 0)
(-0.00453356 0.129128 0)
(0.0130781 0.0829081 0)
(0.0234184 0.0379451 0)
(0.0253769 -0.00707223 0)
(0.0184868 -0.0537544 0)
(0.00296092 -0.103745 0)
(-0.0200133 -0.158312 0)
(-0.0476993 -0.217492 0)
(-0.0749949 -0.27835 0)
(-0.0935535 -0.331781 0)
(-0.0920676 -0.357674 0)
(-0.063282 -0.319288 0)
(-0.0206339 -0.161972 0)
(-0.0254499 0.18171 0)
(-0.0657758 0.317769 0)
(-0.0733362 0.331358 0)
(-0.0480828 0.295395 0)
(-0.00558693 0.244205 0)
(0.0412068 0.192373 0)
(0.0846386 0.145041 0)
(0.12052 0.102967 0)
(0.146684 0.0651346 0)
(0.162028 0.0298902 0)
(0.165922 -0.00467079 0)
(0.157917 -0.0406258 0)
(0.137715 -0.0802423 0)
(0.105425 -0.125912 0)
(0.0622498 -0.17972 0)
(0.0117964 -0.242014 0)
(-0.0378363 -0.307871 0)
(-0.071683 -0.360138 0)
(-0.0700569 -0.356605 0)
(-0.0279125 -0.208374 0)
(-0.0296491 0.239176 0)
(-0.0608419 0.335767 0)
(-0.0219444 0.300501 0)
(0.0505379 0.240124 0)
(0.127566 0.182945 0)
(0.196999 0.135385 0)
(0.254325 0.0973954 0)
(0.298237 0.0668483 0)
(0.32881 0.0413535 0)
(0.346451 0.0187779 0)
(0.35136 -0.00279372 0)
(0.343287 -0.0252637 0)
(0.321455 -0.0507854 0)
(0.28463 -0.0820451 0)
(0.231562 -0.122442 0)
(0.162173 -0.175666 0)
(0.0798954 -0.243428 0)
(-0.00319277 -0.319133 0)
(-0.0546707 -0.36861 0)
(-0.0284596 -0.267617 0)
(0.00808318 0.281862 0)
(0.019783 0.294972 0)
(0.139065 0.210972 0)
(0.264458 0.143476 0)
(0.364364 0.0971845 0)
(0.440358 0.0657759 0)
(0.496735 0.0442361 0)
(0.536865 0.0288849 0)
(0.563436 0.0171982 0)
(0.578295 0.00748455 0)
(0.582369 -0.00149391 0)
(0.575685 -0.0108446 0)
(0.557299 -0.0218461 0)
(0.525127 -0.0363338 0)
(0.47577 -0.0572582 0)
(0.404532 -0.0893827 0)
(0.305173 -0.13974 0)
(0.173415 -0.216385 0)
(0.0411714 -0.311654 0)
(0.0184301 -0.299995 0)
(0.299604 0.146091 0)
(0.396272 0.127503 0)
(0.55742 0.0760894 0)
(0.674487 0.043723 0)
(0.743887 0.0255718 0)
(0.787151 0.0152419 0)
(0.815482 0.00921207 0)
(0.833952 0.00550921 0)
(0.845381 0.00302706 0)
(0.851367 0.00114932 0)
(0.852662 -0.000499323 0)
(0.849378 -0.00221493 0)
(0.840996 -0.00433837 0)
(0.826137 -0.00742385 0)
(0.802076 -0.012532 0)
(0.763619 -0.0217726 0)
(0.699107 -0.0392827 0)
(0.583952 -0.07266 0)
(0.415827 -0.127868 0)
(0.308819 -0.149468 0)
)
;

boundaryField
{
    movingWall
    {
        type            fixedValue;
        value           uniform (1 0 0);
    }
    fixedWalls
    {
        type            noSlip;
    }
    frontAndBack
    {
        type            empty;
    }
}


// ************************************************************************* //
