/*--------------------------------*- C++ -*----------------------------------*\
  =========                 |
  \\      /  F ield         | OpenFOAM: The Open Source CFD Toolbox
   \\    /   O peration     | Website:  https://openfoam.org
    \\  /    A nd           | Version:  8
     \\/     M anipulation  |
\*---------------------------------------------------------------------------*/
FoamFile
{
    version     2.0;
    format      ascii;
    class       volVectorField;
    location    "10";
    object      U;
}
// * * * * * * * * * * * * * * * * * * * * * * * * * * * * * * * * * * * * * //

dimensions      [0 1 -1 0 0 0 0];

internalField   nonuniform List<vector> 
11600
(
(-8.28007e-06 8.25996e-06 0)
(-4.12324e-05 1.51074e-05 0)
(-8.6311e-05 1.61937e-05 0)
(-0.000128245 1.62748e-05 0)
(-0.000171169 1.62163e-05 0)
(-0.00021385 1.61455e-05 0)
(-0.000256319 1.60698e-05 0)
(-0.000298572 1.59847e-05 0)
(-0.000340575 1.58882e-05 0)
(-0.000382294 1.57796e-05 0)
(-0.000423694 1.56585e-05 0)
(-0.00046474 1.55249e-05 0)
(-0.000505399 1.53788e-05 0)
(-0.000545637 1.52204e-05 0)
(-0.00058542 1.50496e-05 0)
(-0.000624715 1.48667e-05 0)
(-0.00066349 1.46718e-05 0)
(-0.000701711 1.4465e-05 0)
(-0.000739348 1.42466e-05 0)
(-0.00077637 1.40166e-05 0)
(-0.000812746 1.37754e-05 0)
(-0.000848446 1.35231e-05 0)
(-0.000883442 1.32601e-05 0)
(-0.000917705 1.29865e-05 0)
(-0.000951209 1.27028e-05 0)
(-0.000983927 1.24093e-05 0)
(-0.00101583 1.21063e-05 0)
(-0.00104691 1.17942e-05 0)
(-0.00107712 1.14737e-05 0)
(-0.00110646 1.11451e-05 0)
(-0.0011349 1.08091e-05 0)
(-0.00116242 1.04664e-05 0)
(-0.00118901 1.01178e-05 0)
(-0.00121465 9.76413e-06 0)
(-0.00123934 9.40642e-06 0)
(-0.00126307 9.04587e-06 0)
(-0.00128583 8.68388e-06 0)
(-0.00130762 8.3221e-06 0)
(-0.00132845 7.96247e-06 0)
(-0.00134832 7.60737e-06 0)
(-0.00136726 7.25965e-06 0)
(-0.00138529 6.92283e-06 0)
(-0.00140245 6.60129e-06 0)
(-0.00141878 6.30054e-06 0)
(-0.00143435 6.02762e-06 0)
(-0.00144926 5.79167e-06 0)
(-0.00146361 5.6047e-06 0)
(-0.00147757 5.48289e-06 0)
(-0.00149134 5.44841e-06 0)
(-0.00150519 5.53209e-06 0)
(-0.00151952 5.7778e-06 0)
(-0.00153486 6.25047e-06 0)
(-0.00155198 7.05041e-06 0)
(-0.00157206 8.34161e-06 0)
(-0.00159715 1.04238e-05 0)
(-0.00162947 1.39902e-05 0)
(-0.00166775 2.0541e-05 0)
(-0.00176458 3.29006e-05 0)
(-0.00178956 0.000109581 0)
(-0.00223321 0.000380499 0)
(-1.51797e-05 4.12542e-05 0)
(-6.65246e-05 6.63622e-05 0)
(-0.000133561 7.04879e-05 0)
(-0.000196694 7.08619e-05 0)
(-0.000261071 7.0682e-05 0)
(-0.000325147 7.04032e-05 0)
(-0.000388916 7.00692e-05 0)
(-0.000452352 6.96794e-05 0)
(-0.000515398 6.92323e-05 0)
(-0.000577996 6.87275e-05 0)
(-0.000640095 6.81651e-05 0)
(-0.000701639 6.75454e-05 0)
(-0.000762575 6.68689e-05 0)
(-0.000822852 6.61362e-05 0)
(-0.000882417 6.5348e-05 0)
(-0.00094122 6.4505e-05 0)
(-0.00099921 6.36081e-05 0)
(-0.00105634 6.26582e-05 0)
(-0.00111256 6.16562e-05 0)
(-0.00116782 6.06033e-05 0)
(-0.00122207 5.95006e-05 0)
(-0.00127528 5.83494e-05 0)
(-0.0013274 5.71511e-05 0)
(-0.00137838 5.5907e-05 0)
(-0.00142819 5.46189e-05 0)
(-0.00147678 5.32885e-05 0)
(-0.00152412 5.19178e-05 0)
(-0.00157018 5.05087e-05 0)
(-0.00161491 4.90637e-05 0)
(-0.0016583 4.75854e-05 0)
(-0.0017003 4.60765e-05 0)
(-0.0017409 4.45403e-05 0)
(-0.00178007 4.29803e-05 0)
(-0.0018178 4.14008e-05 0)
(-0.00185407 3.98064e-05 0)
(-0.00188886 3.82025e-05 0)
(-0.00192218 3.65954e-05 0)
(-0.00195403 3.49925e-05 0)
(-0.00198441 3.34026e-05 0)
(-0.00201334 3.18362e-05 0)
(-0.00204085 3.03061e-05 0)
(-0.00206698 2.88281e-05 0)
(-0.00209178 2.74217e-05 0)
(-0.00211533 2.61116e-05 0)
(-0.00213773 2.49296e-05 0)
(-0.00215911 2.3917e-05 0)
(-0.00217964 2.3129e-05 0)
(-0.00219955 2.26404e-05 0)
(-0.00221914 2.25559e-05 0)
(-0.00223883 2.30247e-05 0)
(-0.00225915 2.42659e-05 0)
(-0.0022809 2.66145e-05 0)
(-0.00230515 3.06024e-05 0)
(-0.00233354 3.71056e-05 0)
(-0.00236865 4.76589e-05 0)
(-0.00241319 6.52481e-05 0)
(-0.00246972 9.46508e-05 0)
(-0.00257553 0.00014147 0)
(-0.00263426 0.000274683 0)
(-0.0029206 0.000448725 0)
(-1.63248e-05 8.65244e-05 0)
(-7.09083e-05 0.000133488 0)
(-0.000141849 0.000141271 0)
(-0.000208645 0.000141986 0)
(-0.000276712 0.000141656 0)
(-0.000344449 0.000141109 0)
(-0.000411858 0.000140434 0)
(-0.000478909 0.000139638 0)
(-0.000545544 0.000138722 0)
(-0.000611702 0.000137688 0)
(-0.000677328 0.000136535 0)
(-0.000742362 0.000135266 0)
(-0.00080675 0.000133882 0)
(-0.000870434 0.000132383 0)
(-0.000933362 0.000130771 0)
(-0.000995477 0.000129049 0)
(-0.00105673 0.000127217 0)
(-0.00111706 0.000125278 0)
(-0.00117642 0.000123234 0)
(-0.00123477 0.000121087 0)
(-0.00129205 0.00011884 0)
(-0.00134821 0.000116495 0)
(-0.00140321 0.000114056 0)
(-0.001457 0.000111525 0)
(-0.00150955 0.000108906 0)
(-0.0015608 0.000106203 0)
(-0.00161072 0.000103419 0)
(-0.00165928 0.000100559 0)
(-0.00170643 9.76271e-05 0)
(-0.00175215 9.46297e-05 0)
(-0.0017964 9.15722e-05 0)
(-0.00183916 8.8461e-05 0)
(-0.0018804 8.53035e-05 0)
(-0.0019201 8.2108e-05 0)
(-0.00195825 7.88839e-05 0)
(-0.00199483 7.5642e-05 0)
(-0.00202984 7.23949e-05 0)
(-0.00206328 6.91574e-05 0)
(-0.00209516 6.59467e-05 0)
(-0.00212548 6.27836e-05 0)
(-0.00215428 5.96933e-05 0)
(-0.0021816 5.67065e-05 0)
(-0.00220748 5.38614e-05 0)
(-0.002232 5.12059e-05 0)
(-0.00225525 4.88011e-05 0)
(-0.00227735 4.67265e-05 0)
(-0.00229846 4.5087e-05 0)
(-0.00231878 4.40236e-05 0)
(-0.00233858 4.37308e-05 0)
(-0.00235819 4.44821e-05 0)
(-0.00237806 4.66702e-05 0)
(-0.00239875 5.08765e-05 0)
(-0.002421 5.79856e-05 0)
(-0.00244575 6.93763e-05 0)
(-0.00247418 8.72971e-05 0)
(-0.00250704 0.000115654 0)
(-0.00254505 0.00016006 0)
(-0.00260041 0.000228645 0)
(-0.00261557 0.000367521 0)
(-0.00270556 0.000522738 0)
(-1.64742e-05 0.000128824 0)
(-7.16013e-05 0.00019699 0)
(-0.000143215 0.000208222 0)
(-0.000210595 0.000209211 0)
(-0.000279265 0.000208712 0)
(-0.000347599 0.000207901 0)
(-0.0004156 0.0002069 0)
(-0.000483241 0.00020572 0)
(-0.000550461 0.000204364 0)
(-0.000617201 0.000202831 0)
(-0.000683401 0.000201124 0)
(-0.000749005 0.000199244 0)
(-0.000813956 0.000197193 0)
(-0.000878196 0.000194973 0)
(-0.000941671 0.000192586 0)
(-0.00100432 0.000190036 0)
(-0.0010661 0.000187324 0)
(-0.00112696 0.000184453 0)
(-0.00118683 0.000181427 0)
(-0.00124568 0.00017825 0)
(-0.00130344 0.000174924 0)
(-0.00136008 0.000171455 0)
(-0.00141554 0.000167845 0)
(-0.00146979 0.000164101 0)
(-0.00152277 0.000160227 0)
(-0.00157445 0.000156228 0)
(-0.00162478 0.00015211 0)
(-0.00167373 0.00014788 0)
(-0.00172126 0.000143545 0)
(-0.00176733 0.000139112 0)
(-0.00181192 0.00013459 0)
(-0.001855 0.000129989 0)
(-0.00189654 0.000125319 0)
(-0.00193652 0.000120592 0)
(-0.00197493 0.000115821 0)
(-0.00201174 0.000111023 0)
(-0.00204696 0.000106216 0)
(-0.00208057 0.000101419 0)
(-0.00211259 9.66588e-05 0)
(-0.00214301 9.19635e-05 0)
(-0.00217187 8.73687e-05 0)
(-0.0021992 8.29173e-05 0)
(-0.00222502 7.86622e-05 0)
(-0.00224942 7.46692e-05 0)
(-0.00227245 7.10215e-05 0)
(-0.00229421 6.78257e-05 0)
(-0.00231484 6.52204e-05 0)
(-0.00233448 6.33888e-05 0)
(-0.00235333 6.25767e-05 0)
(-0.00237162 6.31197e-05 0)
(-0.00238965 6.54829e-05 0)
(-0.00240776 7.03211e-05 0)
(-0.00242633 7.85709e-05 0)
(-0.00244576 9.15896e-05 0)
(-0.00246632 0.000111382 0)
(-0.0024877 0.000140938 0)
(-0.0025092 0.000184137 0)
(-0.00253104 0.000246708 0)
(-0.00252407 0.000348426 0)
(-0.00252612 0.000451744 0)
(-1.65056e-05 0.000172338 0)
(-7.18449e-05 0.000262083 0)
(-0.000143755 0.000276804 0)
(-0.000211384 0.000278081 0)
(-0.000280315 0.000277415 0)
(-0.000348905 0.000276335 0)
(-0.00041716 0.000275002 0)
(-0.000485054 0.000273429 0)
(-0.000552524 0.000271619 0)
(-0.000619512 0.000269574 0)
(-0.000685959 0.000267297 0)
(-0.000751806 0.000264788 0)
(-0.000816997 0.000262052 0)
(-0.000881475 0.000259091 0)
(-0.000945184 0.000255907 0)
(-0.00100807 0.000252505 0)
(-0.00107007 0.000248888 0)
(-0.00113115 0.000245059 0)
(-0.00119124 0.000241024 0)
(-0.0012503 0.000236787 0)
(-0.00130827 0.000232353 0)
(-0.00136511 0.000227727 0)
(-0.00142077 0.000222914 0)
(-0.0014752 0.000217922 0)
(-0.00152836 0.000212757 0)
(-0.00158022 0.000207425 0)
(-0.00163071 0.000201935 0)
(-0.00167982 0.000196296 0)
(-0.00172749 0.000190516 0)
(-0.0017737 0.000184605 0)
(-0.00181842 0.000178575 0)
(-0.00186161 0.000172438 0)
(-0.00190325 0.000166208 0)
(-0.00194332 0.000159901 0)
(-0.00198178 0.000153533 0)
(-0.00201864 0.000147125 0)
(-0.00205388 0.0001407 0)
(-0.00208748 0.000134285 0)
(-0.00211946 0.00012791 0)
(-0.00214981 0.000121613 0)
(-0.00217855 0.000115437 0)
(-0.0022057 0.000109436 0)
(-0.00223128 0.000103675 0)
(-0.00225534 9.82336e-05 0)
(-0.00227794 9.32113e-05 0)
(-0.00229913 8.87345e-05 0)
(-0.00231901 8.49644e-05 0)
(-0.00233766 8.21094e-05 0)
(-0.00235521 8.04431e-05 0)
(-0.00237178 8.03278e-05 0)
(-0.00238749 8.22498e-05 0)
(-0.00240246 8.6867e-05 0)
(-0.00241672 9.50774e-05 0)
(-0.00243017 0.000108112 0)
(-0.00244238 0.000127657 0)
(-0.00245229 0.000155955 0)
(-0.002458 0.000195699 0)
(-0.00245631 0.000250533 0)
(-0.00243347 0.000326785 0)
(-0.00239765 0.000405935 0)
(-1.65503e-05 0.000215889 0)
(-7.21069e-05 0.000327321 0)
(-0.000144319 0.000345533 0)
(-0.000212216 0.000347096 0)
(-0.000281426 0.000346259 0)
(-0.000350292 0.000344909 0)
(-0.000418821 0.000343241 0)
(-0.000486985 0.000341274 0)
(-0.000554725 0.00033901 0)
(-0.00062198 0.000336452 0)
(-0.000688691 0.000333602 0)
(-0.0007548 0.000330465 0)
(-0.00082025 0.000327042 0)
(-0.000884983 0.000323337 0)
(-0.000948943 0.000319355 0)
(-0.00101207 0.000315099 0)
(-0.00107432 0.000310574 0)
(-0.00113564 0.000305786 0)
(-0.00119596 0.000300738 0)
(-0.00125525 0.000295439 0)
(-0.00131344 0.000289892 0)
(-0.0013705 0.000284106 0)
(-0.00142636 0.000278086 0)
(-0.001481 0.000271842 0)
(-0.00153435 0.000265381 0)
(-0.00158639 0.000258711 0)
(-0.00163706 0.000251843 0)
(-0.00168633 0.000244787 0)
(-0.00173416 0.000237554 0)
(-0.00178052 0.000230157 0)
(-0.00182537 0.00022261 0)
(-0.00186867 0.000214926 0)
(-0.00191041 0.000207123 0)
(-0.00195056 0.00019922 0)
(-0.00198909 0.000191238 0)
(-0.00202598 0.0001832 0)
(-0.00206122 0.000175134 0)
(-0.00209481 0.000167071 0)
(-0.00212672 0.000159048 0)
(-0.00215697 0.000151107 0)
(-0.00218555 0.0001433 0)
(-0.00221247 0.000135686 0)
(-0.00223776 0.00012834 0)
(-0.00226143 0.000121349 0)
(-0.00228351 0.000114825 0)
(-0.00230403 0.000108902 0)
(-0.00232305 0.000103751 0)
(-0.0023406 9.95873e-05 0)
(-0.00235672 9.66855e-05 0)
(-0.00237144 9.53972e-05 0)
(-0.00238475 9.61754e-05 0)
(-0.00239658 9.96036e-05 0)
(-0.00240676 0.00010643 0)
(-0.00241487 0.000117602 0)
(-0.00242021 0.000134288 0)
(-0.00242143 0.00015785 0)
(-0.00241647 0.000189664 0)
(-0.00240198 0.00023106 0)
(-0.00237092 0.0002829 0)
(-0.00232265 0.000336722 0)
(-1.66162e-05 0.000259586 0)
(-7.24342e-05 0.000392814 0)
(-0.000144999 0.000414531 0)
(-0.000213222 0.000416381 0)
(-0.000282767 0.000415372 0)
(-0.000351965 0.000413749 0)
(-0.000420824 0.000411745 0)
(-0.000489316 0.000409381 0)
(-0.000557381 0.00040666 0)
(-0.000624958 0.000403587 0)
(-0.000691988 0.000400163 0)
(-0.000758413 0.000396393 0)
(-0.000824175 0.00039228 0)
(-0.000889216 0.000387828 0)
(-0.00095348 0.000383044 0)
(-0.00101691 0.00037793 0)
(-0.00107945 0.000372493 0)
(-0.00114105 0.00036674 0)
(-0.00120166 0.000360675 0)
(-0.00126122 0.000354307 0)
(-0.00131968 0.000347643 0)
(-0.001377 0.000340689 0)
(-0.00143312 0.000333456 0)
(-0.001488 0.000325952 0)
(-0.00154159 0.000318186 0)
(-0.00159385 0.00031017 0)
(-0.00164473 0.000301914 0)
(-0.0016942 0.000293431 0)
(-0.00174222 0.000284735 0)
(-0.00178875 0.000275838 0)
(-0.00183376 0.000266758 0)
(-0.00187721 0.000257512 0)
(-0.00191907 0.000248119 0)
(-0.00195931 0.0002386 0)
(-0.00199792 0.00022898 0)
(-0.00203486 0.000219286 0)
(-0.00207013 0.000209547 0)
(-0.00210369 0.000199801 0)
(-0.00213555 0.000190086 0)
(-0.00216568 0.000180452 0)
(-0.00219409 0.000170952 0)
(-0.00222078 0.000161652 0)
(-0.00224574 0.00015263 0)
(-0.00226899 0.00014398 0)
(-0.00229051 0.000135815 0)
(-0.00231034 0.000128272 0)
(-0.00232845 0.00012152 0)
(-0.00234486 0.000115768 0)
(-0.00235953 0.000111272 0)
(-0.00237242 0.00010835 0)
(-0.00238342 0.000107396 0)
(-0.00239234 0.00010889 0)
(-0.00239886 0.000113412 0)
(-0.00240245 0.000121639 0)
(-0.00240228 0.000134325 0)
(-0.00239706 0.000152215 0)
(-0.00238495 0.000175871 0)
(-0.00236326 0.000205444 0)
(-0.00232799 0.000240073 0)
(-0.0022772 0.000275175 0)
(-1.66991e-05 0.000303496 0)
(-7.28265e-05 0.000458651 0)
(-0.000145805 0.000483893 0)
(-0.000214414 0.000486031 0)
(-0.000284354 0.000484849 0)
(-0.000353944 0.000482951 0)
(-0.000423193 0.000480609 0)
(-0.000492072 0.000477846 0)
(-0.000560521 0.000474666 0)
(-0.00062848 0.000471074 0)
(-0.000695888 0.000467072 0)
(-0.000762687 0.000462665 0)
(-0.000828818 0.000457858 0)
(-0.000894223 0.000452655 0)
(-0.000958845 0.000447063 0)
(-0.00102263 0.000441086 0)
(-0.00108552 0.000434731 0)
(-0.00114746 0.000428006 0)
(-0.0012084 0.000420918 0)
(-0.00126828 0.000413474 0)
(-0.00132706 0.000405683 0)
(-0.00138469 0.000397554 0)
(-0.00144111 0.000389098 0)
(-0.00149627 0.000380324 0)
(-0.00155014 0.000371244 0)
(-0.00160267 0.000361869 0)
(-0.00165381 0.000352214 0)
(-0.00170352 0.00034229 0)
(-0.00175177 0.000332115 0)
(-0.0017985 0.000321703 0)
(-0.0018437 0.000311073 0)
(-0.00188732 0.000300245 0)
(-0.00192933 0.00028924 0)
(-0.0019697 0.000278081 0)
(-0.00200841 0.000266796 0)
(-0.00204542 0.000255414 0)
(-0.00208072 0.000243968 0)
(-0.00211428 0.000232497 0)
(-0.00214608 0.000221043 0)
(-0.00217611 0.000209658 0)
(-0.00220436 0.000198399 0)
(-0.0022308 0.000187334 0)
(-0.00225544 0.000176542 0)
(-0.00227825 0.000166118 0)
(-0.00229922 0.000156172 0)
(-0.00231834 0.000146837 0)
(-0.00233556 0.000138273 0)
(-0.00235086 0.000130671 0)
(-0.00236415 0.000124258 0)
(-0.00237533 0.000119305 0)
(-0.00238422 0.000116135 0)
(-0.00239058 0.000115115 0)
(-0.00239402 0.000116664 0)
(-0.00239397 0.000121222 0)
(-0.00238964 0.000129213 0)
(-0.0023799 0.000140953 0)
(-0.00236326 0.000156503 0)
(-0.00233779 0.000175452 0)
(-0.0023012 0.00019651 0)
(-0.00225201 0.000216579 0)
(-1.6797e-05 0.00034766 0)
(-7.32825e-05 0.000524887 0)
(-0.000146738 0.000553677 0)
(-0.000215793 0.000556107 0)
(-0.000286189 0.000554749 0)
(-0.000356233 0.000552576 0)
(-0.000425932 0.000549892 0)
(-0.000495259 0.000546727 0)
(-0.000564153 0.000543085 0)
(-0.000632552 0.00053897 0)
(-0.000700397 0.000534386 0)
(-0.000767628 0.000529339 0)
(-0.000834185 0.000523832 0)
(-0.000900012 0.000517873 0)
(-0.000965049 0.000511466 0)
(-0.00102924 0.00050462 0)
(-0.00109253 0.00049734 0)
(-0.00115487 0.000489636 0)
(-0.00121619 0.000481516 0)
(-0.00127645 0.000472987 0)
(-0.0013356 0.000464061 0)
(-0.00139358 0.000454748 0)
(-0.00145035 0.000445058 0)
(-0.00150585 0.000435003 0)
(-0.00156004 0.000424596 0)
(-0.00161288 0.00041385 0)
(-0.00166431 0.00040278 0)
(-0.0017143 0.000391402 0)
(-0.00176281 0.000379731 0)
(-0.0018098 0.000367786 0)
(-0.00185522 0.000355587 0)
(-0.00189904 0.000343155 0)
(-0.00194123 0.000330513 0)
(-0.00198176 0.000317688 0)
(-0.00202059 0.000304708 0)
(-0.00205769 0.000291604 0)
(-0.00209304 0.000278412 0)
(-0.00212662 0.000265172 0)
(-0.00215839 0.00025193 0)
(-0.00218833 0.000238736 0)
(-0.00221642 0.00022565 0)
(-0.00224264 0.000212739 0)
(-0.00226696 0.000200082 0)
(-0.00228936 0.00018777 0)
(-0.0023098 0.000175908 0)
(-0.00232823 0.000164621 0)
(-0.00234462 0.000154052 0)
(-0.00235888 0.000144369 0)
(-0.0023709 0.000135766 0)
(-0.00238055 0.000128464 0)
(-0.00238761 0.00012271 0)
(-0.00239181 0.000118773 0)
(-0.00239275 0.00011693 0)
(-0.0023899 0.000117438 0)
(-0.00238255 0.000120489 0)
(-0.00236977 0.000126129 0)
(-0.00235045 0.000134146 0)
(-0.00232325 0.00014392 0)
(-0.00228686 0.000154183 0)
(-0.00224043 0.000162771 0)
(-1.69092e-05 0.000392116 0)
(-7.3802e-05 0.00059158 0)
(-0.0001478 0.000623945 0)
(-0.00021736 0.000626669 0)
(-0.000288274 0.000625135 0)
(-0.000358833 0.000622683 0)
(-0.000429044 0.000619656 0)
(-0.00049888 0.000616085 0)
(-0.000568279 0.000611977 0)
(-0.000637179 0.000607335 0)
(-0.00070552 0.000602165 0)
(-0.000773241 0.000596471 0)
(-0.000840284 0.000590259 0)
(-0.000906589 0.000583537 0)
(-0.000972098 0.00057631 0)
(-0.00103675 0.000568586 0)
(-0.0011005 0.000560374 0)
(-0.00116328 0.000551683 0)
(-0.00122505 0.000542521 0)
(-0.00128574 0.000532899 0)
(-0.0013453 0.000522827 0)
(-0.00140369 0.000512317 0)
(-0.00146085 0.000501382 0)
(-0.00151674 0.000490034 0)
(-0.0015713 0.000478286 0)
(-0.00162448 0.000466155 0)
(-0.00167626 0.000453655 0)
(-0.00172657 0.000440804 0)
(-0.00177538 0.00042762 0)
(-0.00182265 0.000414123 0)
(-0.00186833 0.000400333 0)
(-0.00191239 0.000386273 0)
(-0.0019548 0.00037197 0)
(-0.00199551 0.000357449 0)
(-0.00203449 0.000342742 0)
(-0.00207172 0.000327881 0)
(-0.00210715 0.000312903 0)
(-0.00214076 0.000297849 0)
(-0.00217252 0.000282765 0)
(-0.00220239 0.000267703 0)
(-0.00223036 0.000252721 0)
(-0.00225637 0.000237885 0)
(-0.00228041 0.000223271 0)
(-0.00230242 0.000208965 0)
(-0.00232237 0.000195063 0)
(-0.00234019 0.000181678 0)
(-0.00235582 0.000168936 0)
(-0.00236914 0.000156979 0)
(-0.00238005 0.000145966 0)
(-0.00238838 0.000136069 0)
(-0.00239391 0.00012747 0)
(-0.00239636 0.000120351 0)
(-0.00239535 0.000114881 0)
(-0.00239041 0.000111181 0)
(-0.00238095 0.000109291 0)
(-0.00236624 0.000109104 0)
(-0.00234546 0.000110289 0)
(-0.00231775 0.000112196 0)
(-0.00228235 0.000113725 0)
(-0.00223883 0.000113326 0)
(-1.70354e-05 0.000436901 0)
(-7.43849e-05 0.000658788 0)
(-0.00014899 0.000694758 0)
(-0.000219117 0.000697778 0)
(-0.000290612 0.000696067 0)
(-0.000361747 0.000693334 0)
(-0.000432532 0.00068996 0)
(-0.000502938 0.00068598 0)
(-0.000572903 0.000681402 0)
(-0.000642364 0.000676229 0)
(-0.000711261 0.000670466 0)
(-0.000779533 0.00066412 0)
(-0.000847119 0.000657197 0)
(-0.000913961 0.000649704 0)
(-0.00098 0.00064165 0)
(-0.00104518 0.000633041 0)
(-0.00110944 0.000623888 0)
(-0.00117272 0.000614199 0)
(-0.00123498 0.000603986 0)
(-0.00129615 0.000593259 0)
(-0.00135618 0.000582031 0)
(-0.00141503 0.000570313 0)
(-0.00147263 0.000558119 0)
(-0.00152895 0.000545463 0)
(-0.00158392 0.000532361 0)
(-0.00163751 0.000518828 0)
(-0.00168966 0.000504881 0)
(-0.00174034 0.00049054 0)
(-0.00178949 0.000475823 0)
(-0.00183708 0.000460751 0)
(-0.00188307 0.000445347 0)
(-0.0019274 0.000429636 0)
(-0.00197006 0.000413642 0)
(-0.00201099 0.000397396 0)
(-0.00205016 0.000380929 0)
(-0.00208753 0.000364273 0)
(-0.00212308 0.000347468 0)
(-0.00215675 0.000330554 0)
(-0.00218853 0.000313577 0)
(-0.00221837 0.000296588 0)
(-0.00224624 0.000279643 0)
(-0.00227209 0.000262807 0)
(-0.00229588 0.00024615 0)
(-0.00231756 0.00022975 0)
(-0.00233708 0.000213697 0)
(-0.00235436 0.000198088 0)
(-0.00236932 0.000183031 0)
(-0.00238185 0.000168643 0)
(-0.00239181 0.000155049 0)
(-0.00239904 0.000142379 0)
(-0.00240333 0.000130759 0)
(-0.0024044 0.000120305 0)
(-0.00240192 0.000111101 0)
(-0.00239549 0.000103179 0)
(-0.00238462 9.6487e-05 0)
(-0.00236878 9.08405e-05 0)
(-0.00234736 8.58759e-05 0)
(-0.00231982 8.09872e-05 0)
(-0.00228573 7.52891e-05 0)
(-0.00224495 6.76464e-05 0)
(-1.71756e-05 0.000482054 0)
(-7.50317e-05 0.00072657 0)
(-0.00015031 0.000766179 0)
(-0.000221066 0.000769499 0)
(-0.000293205 0.000767608 0)
(-0.000364979 0.000764591 0)
(-0.0004364 0.000760867 0)
(-0.000507438 0.000756475 0)
(-0.000578031 0.000751421 0)
(-0.000648115 0.000745711 0)
(-0.000717628 0.000739351 0)
(-0.00078651 0.000732346 0)
(-0.000854699 0.000724705 0)
(-0.000922136 0.000716434 0)
(-0.000988762 0.000707543 0)
(-0.00105452 0.00069804 0)
(-0.00111934 0.000687936 0)
(-0.00118319 0.00067724 0)
(-0.00124599 0.000665964 0)
(-0.00130769 0.000654121 0)
(-0.00136825 0.000641723 0)
(-0.0014276 0.000628783 0)
(-0.0014857 0.000615317 0)
(-0.00154249 0.000601339 0)
(-0.00159793 0.000586865 0)
(-0.00165196 0.000571914 0)
(-0.00170455 0.000556502 0)
(-0.00175563 0.000540651 0)
(-0.00180517 0.000524379 0)
(-0.00185312 0.000507711 0)
(-0.00189945 0.000490669 0)
(-0.0019441 0.000473278 0)
(-0.00198704 0.000455567 0)
(-0.00202822 0.000437564 0)
(-0.00206762 0.000419302 0)
(-0.00210518 0.000400815 0)
(-0.00214087 0.00038214 0)
(-0.00217465 0.00036332 0)
(-0.00220648 0.000344399 0)
(-0.00223633 0.000325426 0)
(-0.00226414 0.000306455 0)
(-0.00228987 0.000287547 0)
(-0.00231347 0.000268767 0)
(-0.00233488 0.000250187 0)
(-0.00235403 0.000231884 0)
(-0.00237086 0.000213943 0)
(-0.00238526 0.000196454 0)
(-0.00239713 0.000179512 0)
(-0.00240632 0.000163212 0)
(-0.00241267 0.000147646 0)
(-0.00241599 0.000132899 0)
(-0.00241602 0.000119032 0)
(-0.00241248 0.000106076 0)
(-0.00240503 9.40034e-05 0)
(-0.00239329 8.27115e-05 0)
(-0.00237685 7.19882e-05 0)
(-0.00235532 6.14793e-05 0)
(-0.00232834 5.06568e-05 0)
(-0.00229569 3.88266e-05 0)
(-0.00225735 2.51586e-05 0)
(-1.73298e-05 0.000527613 0)
(-7.57428e-05 0.000794984 0)
(-0.00015176 0.000838271 0)
(-0.000223209 0.000841893 0)
(-0.000296054 0.000839821 0)
(-0.000368532 0.000836517 0)
(-0.000440651 0.000832439 0)
(-0.000512384 0.00082763 0)
(-0.000583667 0.000822096 0)
(-0.000654435 0.000815844 0)
(-0.000724626 0.000808879 0)
(-0.000794179 0.000801209 0)
(-0.000863031 0.000792841 0)
(-0.000931123 0.000783784 0)
(-0.000998394 0.000774048 0)
(-0.00106478 0.000763641 0)
(-0.00113024 0.000752574 0)
(-0.00119469 0.00074086 0)
(-0.0012581 0.000728511 0)
(-0.00132039 0.000715538 0)
(-0.00138152 0.000701957 0)
(-0.00144143 0.000687781 0)
(-0.00150008 0.000673026 0)
(-0.0015574 0.000657709 0)
(-0.00161335 0.000641847 0)
(-0.00166787 0.000625459 0)
(-0.00172093 0.000608563 0)
(-0.00177246 0.00059118 0)
(-0.00182243 0.000573333 0)
(-0.00187079 0.000555044 0)
(-0.0019175 0.000536338 0)
(-0.00196251 0.000517241 0)
(-0.00200577 0.000497782 0)
(-0.00204725 0.00047799 0)
(-0.00208691 0.000457899 0)
(-0.00212469 0.000437542 0)
(-0.00216057 0.000416957 0)
(-0.0021945 0.000396185 0)
(-0.00222643 0.00037527 0)
(-0.00225631 0.000354259 0)
(-0.00228412 0.000333203 0)
(-0.00230978 0.000312158 0)
(-0.00233324 0.000291184 0)
(-0.00235445 0.000270344 0)
(-0.00237333 0.000249708 0)
(-0.00238979 0.000229346 0)
(-0.00240375 0.000209333 0)
(-0.00241509 0.000189742 0)
(-0.00242368 0.000170645 0)
(-0.00242936 0.000152105 0)
(-0.00243194 0.000134173 0)
(-0.00243122 0.000116874 0)
(-0.00242695 0.0001002 0)
(-0.00241886 8.40919e-05 0)
(-0.00240664 6.8424e-05 0)
(-0.00239001 5.2982e-05 0)
(-0.00236869 3.74428e-05 0)
(-0.00234247 2.13708e-05 0)
(-0.00231123 4.24579e-06 0)
(-0.00227501 -1.45597e-05 0)
(-1.74981e-05 0.000573616 0)
(-7.65188e-05 0.000864092 0)
(-0.000153344 0.000911097 0)
(-0.000225547 0.000915025 0)
(-0.000299164 0.00091277 0)
(-0.000372408 0.000909176 0)
(-0.00044529 0.00090474 0)
(-0.000517781 0.000899509 0)
(-0.000589817 0.000893489 0)
(-0.000661332 0.000886688 0)
(-0.000732263 0.000879112 0)
(-0.000802548 0.000870769 0)
(-0.000872124 0.000861667 0)
(-0.00094093 0.000851814 0)
(-0.00100891 0.000841222 0)
(-0.00107599 0.0008299 0)
(-0.00114212 0.000817861 0)
(-0.00120725 0.000805116 0)
(-0.00127131 0.000791679 0)
(-0.00133425 0.000777563 0)
(-0.00139601 0.000762784 0)
(-0.00145653 0.000747357 0)
(-0.00151577 0.000731298 0)
(-0.00157367 0.000714625 0)
(-0.00163018 0.000697356 0)
(-0.00168525 0.000679511 0)
(-0.00173882 0.00066111 0)
(-0.00179086 0.000642175 0)
(-0.00184131 0.000622728 0)
(-0.00189012 0.000602793 0)
(-0.00193725 0.000582397 0)
(-0.00198265 0.000561566 0)
(-0.00202629 0.000540329 0)
(-0.00206811 0.000518716 0)
(-0.00210806 0.00049676 0)
(-0.00214612 0.000474496 0)
(-0.00218222 0.000451961 0)
(-0.00221634 0.000429193 0)
(-0.00224841 0.000406237 0)
(-0.00227839 0.000383136 0)
(-0.00230624 0.000359939 0)
(-0.00233189 0.000336697 0)
(-0.00235528 0.000313465 0)
(-0.00237635 0.000290298 0)
(-0.00239503 0.000267257 0)
(-0.00241124 0.000244402 0)
(-0.00242487 0.000221791 0)
(-0.00243581 0.000199483 0)
(-0.00244395 0.000177528 0)
(-0.00244914 0.000155968 0)
(-0.00245122 0.000134829 0)
(-0.00244999 0.000114112 0)
(-0.00244526 9.37861e-05 0)
(-0.0024368 7.3776e-05 0)
(-0.0024244 5.39502e-05 0)
(-0.00240783 3.41062e-05 0)
(-0.00238693 1.39655e-05 0)
(-0.00236154 -6.80347e-06 0)
(-0.00233162 -2.86213e-05 0)
(-0.00229728 -5.19595e-05 0)
(-1.76806e-05 0.000620104 0)
(-7.73604e-05 0.000933955 0)
(-0.000155061 0.000984723 0)
(-0.000228082 0.000988959 0)
(-0.000302536 0.000986519 0)
(-0.000376612 0.000982631 0)
(-0.000450321 0.000977834 0)
(-0.000523635 0.000972175 0)
(-0.000596487 0.000965664 0)
(-0.000668812 0.000958308 0)
(-0.000740546 0.000950113 0)
(-0.000811625 0.000941088 0)
(-0.000881986 0.000931242 0)
(-0.000951568 0.000920584 0)
(-0.00102031 0.000909125 0)
(-0.00108815 0.000896877 0)
(-0.00115502 0.000883853 0)
(-0.00122087 0.000870064 0)
(-0.00128565 0.000855526 0)
(-0.00134928 0.000840252 0)
(-0.00141173 0.000824259 0)
(-0.00147292 0.000807564 0)
(-0.00153281 0.000790183 0)
(-0.00159134 0.000772136 0)
(-0.00164846 0.000753441 0)
(-0.00170412 0.000734119 0)
(-0.00175826 0.000714191 0)
(-0.00181084 0.00069368 0)
(-0.00186181 0.000672609 0)
(-0.00191112 0.000651004 0)
(-0.00195873 0.000628891 0)
(-0.00200457 0.000606296 0)
(-0.00204862 0.000583251 0)
(-0.00209082 0.000559784 0)
(-0.00213113 0.000535929 0)
(-0.00216949 0.000511721 0)
(-0.00220587 0.000487195 0)
(-0.00224022 0.00046239 0)
(-0.00227248 0.000437346 0)
(-0.00230261 0.000412108 0)
(-0.00233055 0.000386718 0)
(-0.00235625 0.000361226 0)
(-0.00237964 0.000335679 0)
(-0.00240066 0.000310127 0)
(-0.00241922 0.000284622 0)
(-0.00243526 0.000259214 0)
(-0.00244867 0.00023395 0)
(-0.00245935 0.000208874 0)
(-0.00246719 0.000184023 0)
(-0.00247205 0.000159421 0)
(-0.0024738 0.000135078 0)
(-0.00247227 0.000110978 0)
(-0.00246729 8.70792e-05 0)
(-0.00245869 6.33013e-05 0)
(-0.00244631 3.95163e-05 0)
(-0.00242999 1.55429e-05 0)
(-0.0024096 -8.83446e-06 0)
(-0.00238506 -3.38958e-05 0)
(-0.00235639 -5.99826e-05 0)
(-0.00232368 -8.74343e-05 0)
(-1.78774e-05 0.000667114 0)
(-7.82683e-05 0.00100463 0)
(-0.000156914 0.00105921 0)
(-0.000230818 0.00106376 0)
(-0.000306175 0.00106113 0)
(-0.000381148 0.00105695 0)
(-0.00045575 0.00105178 0)
(-0.000529951 0.00104569 0)
(-0.000603684 0.00103868 0)
(-0.000676883 0.00103077 0)
(-0.000749483 0.00102194 0)
(-0.000821419 0.00101223 0)
(-0.000892628 0.00100163 0)
(-0.000963046 0.000990154 0)
(-0.00103261 0.000977818 0)
(-0.00110126 0.000964631 0)
(-0.00116894 0.000950608 0)
(-0.00123558 0.000935761 0)
(-0.00130112 0.000920107 0)
(-0.00136551 0.00090366 0)
(-0.0014287 0.000886437 0)
(-0.00149061 0.000868456 0)
(-0.0015512 0.000849735 0)
(-0.00161042 0.000830293 0)
(-0.0016682 0.000810152 0)
(-0.0017245 0.000789331 0)
(-0.00177926 0.000767854 0)
(-0.00183244 0.000745744 0)
(-0.00188398 0.000723025 0)
(-0.00193384 0.000699723 0)
(-0.00198196 0.000675864 0)
(-0.00202829 0.000651478 0)
(-0.0020728 0.000626593 0)
(-0.00211543 0.00060124 0)
(-0.00215613 0.000575451 0)
(-0.00219485 0.000549262 0)
(-0.00223156 0.000522707 0)
(-0.00226619 0.000495824 0)
(-0.00229869 0.000468651 0)
(-0.00232902 0.000441229 0)
(-0.00235712 0.000413601 0)
(-0.00238292 0.000385809 0)
(-0.00240638 0.000357897 0)
(-0.00242741 0.00032991 0)
(-0.00244595 0.000301892 0)
(-0.00246191 0.000273884 0)
(-0.0024752 0.000245925 0)
(-0.00248574 0.000218047 0)
(-0.00249341 0.000190276 0)
(-0.00249809 0.000162626 0)
(-0.00249966 0.000135094 0)
(-0.00249799 0.000107657 0)
(-0.00249293 8.02688e-05 0)
(-0.00248437 5.28491e-05 0)
(-0.00247216 2.52829e-05 0)
(-0.00245618 -2.58096e-06 0)
(-0.00243637 -3.09199e-05 0)
(-0.00241269 -5.9976e-05 0)
(-0.00238516 -8.99934e-05 0)
(-0.00235388 -0.000121232 0)
(-1.80886e-05 0.000714688 0)
(-7.92433e-05 0.00107619 0)
(-0.000158904 0.00113463 0)
(-0.000233756 0.0011395 0)
(-0.000310083 0.00113668 0)
(-0.000386021 0.00113219 0)
(-0.000461581 0.00112666 0)
(-0.000536735 0.00112013 0)
(-0.000611415 0.00111261 0)
(-0.000685553 0.00110412 0)
(-0.000759083 0.00109467 0)
(-0.00083194 0.00108425 0)
(-0.00090406 0.00107289 0)
(-0.000975378 0.00106059 0)
(-0.00104583 0.00104736 0)
(-0.00111536 0.00103322 0)
(-0.00118389 0.00101819 0)
(-0.00125138 0.00100227 0)
(-0.00131775 0.00098548 0)
(-0.00138295 0.000967843 0)
(-0.00144693 0.000949373 0)
(-0.00150962 0.000930087 0)
(-0.00157097 0.000910007 0)
(-0.00163092 0.000889151 0)
(-0.00168942 0.000867542 0)
(-0.00174641 0.000845201 0)
(-0.00180185 0.000822151 0)
(-0.00185567 0.000798417 0)
(-0.00190784 0.000774024 0)
(-0.00195828 0.000748998 0)
(-0.00200697 0.000723366 0)
(-0.00205385 0.000697158 0)
(-0.00209886 0.000670402 0)
(-0.00214196 0.00064313 0)
(-0.0021831 0.000615374 0)
(-0.00222224 0.000587168 0)
(-0.00225931 0.000558547 0)
(-0.00229428 0.000529546 0)
(-0.00232708 0.000500204 0)
(-0.00235766 0.000470557 0)
(-0.00238597 0.000440647 0)
(-0.00241195 0.000410512 0)
(-0.00243554 0.000380192 0)
(-0.00245666 0.000349726 0)
(-0.00247525 0.000319153 0)
(-0.00249122 0.000288507 0)
(-0.00250451 0.000257821 0)
(-0.002515 0.000227118 0)
(-0.00252261 0.000196416 0)
(-0.00252724 0.000165721 0)
(-0.00252877 0.000135024 0)
(-0.00252709 0.0001043 0)
(-0.0025221 7.35008e-05 0)
(-0.00251368 4.25527e-05 0)
(-0.00250174 1.13541e-05 0)
(-0.0024862 -2.0205e-05 0)
(-0.00246699 -5.22971e-05 0)
(-0.00244413 -8.50961e-05 0)
(-0.00241765 -0.000118793 0)
(-0.00238763 -0.000153582 0)
(-1.83144e-05 0.000762866 0)
(-8.02863e-05 0.00114869 0)
(-0.000161033 0.00121105 0)
(-0.0002369 0.00121624 0)
(-0.000314265 0.00121323 0)
(-0.000391234 0.00120843 0)
(-0.000467821 0.00120252 0)
(-0.000543995 0.00119555 0)
(-0.000619688 0.00118752 0)
(-0.00069483 0.00117845 0)
(-0.000769356 0.00116835 0)
(-0.000843199 0.00115722 0)
(-0.000916293 0.00114508 0)
(-0.000988574 0.00113194 0)
(-0.00105998 0.00111781 0)
(-0.00113044 0.00110271 0)
(-0.00119989 0.00108665 0)
(-0.00126828 0.00106964 0)
(-0.00133555 0.0010517 0)
(-0.00140162 0.00103286 0)
(-0.00146645 0.00101312 0)
(-0.00152998 0.000992514 0)
(-0.00159214 0.000971054 0)
(-0.00165288 0.000948763 0)
(-0.00171215 0.000925663 0)
(-0.00176989 0.000901778 0)