/*--------------------------------*- C++ -*----------------------------------*\
  =========                 |
  \\      /  F ield         | OpenFOAM: The Open Source CFD Toolbox
   \\    /   O peration     | Website:  https://openfoam.org
    \\  /    A nd           | Version:  8
     \\/     M anipulation  |
\*---------------------------------------------------------------------------*/
FoamFile
{
    version     2.0;
    format      ascii;
    class       volScalarField;
    location    "0.193";
    object      T;
}
// * * * * * * * * * * * * * * * * * * * * * * * * * * * * * * * * * * * * * //

dimensions      [0 0 0 1 0 0 0];

internalField   nonuniform List<scalar> 
2500
(
49.9978
4.73568
-4.7088
-1.36295
1.23957
0.743745
-0.409514
-0.572027
-0.0286953
0.367369
0.297315
-0.00714211
-0.225675
-0.239079
-0.115784
0.0255632
0.1123
0.133571
0.112646
0.0772626
0.0451569
0.0228379
0.00992656
0.00355351
0.000887137
-8.15694e-06
-0.000196648
-0.000166423
-0.00010135
-5.25379e-05
-2.44829e-05
-1.05194e-05
-4.22649e-06
-1.60194e-06
-5.76145e-07
-1.97424e-07
-6.46367e-08
-2.02576e-08
-6.08412e-09
-1.75161e-09
-4.8312e-10
-1.27438e-10
-3.20414e-11
-7.63264e-12
-1.70399e-12
-3.49097e-13
-6.25979e-14
-8.51898e-15
-1.73251e-16
3.25882e-16
95.2679
49.9897
10.7979
-4.62666
-3.34509
0.967526
1.76356
0.139142
-1.00378
-0.721336
0.156429
0.656367
0.531677
0.0938369
-0.28082
-0.426017
-0.376157
-0.241719
-0.112416
-0.0271153
0.0135909
0.02483
0.0220546
0.0152649
0.00909928
0.00486261
0.00237852
0.0010781
0.000456375
0.000181326
6.78196e-05
2.39058e-05
7.93527e-06
2.47213e-06
7.17479e-07
1.91069e-07
4.51716e-08
8.67701e-09
8.89826e-10
-2.78161e-10
-2.42349e-10
-1.15149e-10
-4.48066e-11
-1.56089e-11
-5.04108e-12
-1.53603e-12
-4.46083e-13
-1.24172e-13
-3.36657e-14
-7.32842e-15
104.723
89.2029
49.9729
12.7941
-4.4599
-4.43969
0.515828
2.36491
0.857034
-0.971727
-1.30049
-0.436856
0.509854
0.865247
0.645159
0.198413
-0.170812
-0.345733
-0.354805
-0.278015
-0.18301
-0.10515
-0.0536443
-0.0244189
-0.00984646
-0.00341998
-0.00093791
-0.000130517
6.24986e-05
7.15893e-05
4.52015e-05
2.31423e-05
1.04878e-05
4.35779e-06
1.69038e-06
6.18667e-07
2.15117e-07
7.13963e-08
2.26936e-08
6.92428e-09
2.03137e-09
5.73541e-10
1.55903e-10
4.07868e-11
1.02581e-11
2.47459e-12
5.70296e-13
1.24698e-13
2.56435e-14
4.19236e-15
101.357
104.671
87.1975
49.9513
13.9569
-4.19031
-5.2517
-0.123217
2.66556
1.66481
-0.524944
-1.59213
-1.16932
-0.109758
0.718008
0.988734
0.827497
0.501773
0.209828
0.0279441
-0.0516704
-0.0675105
-0.055274
-0.036758
-0.0213609
-0.0112043
-0.00539884
-0.00241561
-0.0010105
-0.000396919
-0.000146736
-5.10793e-05
-1.67142e-05
-5.11652e-06
-1.4505e-06
-3.72891e-07
-8.27538e-08
-1.3552e-08
-1.9497e-10
1.14996e-09
6.91017e-10
2.97922e-10
1.10719e-10
3.75297e-11
1.18987e-11
3.57672e-12
1.02781e-12
2.83659e-13
7.63387e-14
1.65239e-14
98.7335
103.36
104.551
86.0224
49.9176
14.9077
-3.78715
-5.90925
-0.943999
2.63473
2.41496
0.270584
-1.39819
-1.66471
-0.935739
-0.00398452
0.615496
0.814169
0.722249
0.515373
0.313639
0.166646
0.0777051
0.0313778
0.0104341
0.00235296
-0.000131392
-0.000572586
-0.000447244
-0.000259055
-0.000128981
-5.80393e-05
-2.41694e-05
-9.43951e-06
-3.48663e-06
-1.22484e-06
-4.10844e-07
-1.31952e-07
-4.06575e-08
-1.20334e-08
-3.42304e-09
-9.35756e-10
-2.45601e-10
-6.17617e-11
-1.48255e-11
-3.37504e-12
-7.2023e-13
-1.40906e-13
-2.39331e-14
-2.78275e-15
99.2515
98.9719
104.499
104.329
85.0388
49.8802
15.8453
-3.23232
-6.46123
-1.94139
2.26033
3.00841
1.30932
-0.685077
-1.70036
-1.651
-1.04863
-0.40307
0.029198
0.218971
0.244154
0.19415
0.128761
0.0752117
0.039728
0.0192622
0.00865071
0.00361821
0.00141315
0.000515397
0.000174961
5.48216e-05
1.55677e-05
3.83882e-06
7.22461e-07
3.80842e-08
-5.38823e-08
-3.77883e-08
-1.78971e-08
-7.19378e-09
-2.6181e-09
-8.87147e-10
-2.84057e-10
-8.67096e-11
-2.53796e-11
-7.15131e-12
-1.94544e-12
-5.11699e-13
-1.3167e-13
-2.74747e-14
100.445
98.1765
99.3929
105.37
103.988
84.0778
49.8319
16.8072
-2.51699
-6.85473
-3.02224
1.53367
3.2358
2.28089
0.382777
-1.08116
-1.65473
-1.53238
-1.10061
-0.654138
-0.325939
-0.132071
-0.0375929
-0.000787817
0.00879352
0.00829926
0.00549248
0.00306491
0.00152859
0.000699895
0.00029862
0.000119838
4.5516e-05
1.6433e-05
5.65691e-06
1.86059e-06
5.85423e-07
1.76287e-07
5.078e-08
1.39692e-08
3.65775e-09
9.06153e-10
2.1007e-10
4.46073e-11
8.26602e-12
1.15047e-12
2.2954e-14
-6.49416e-14
-3.47091e-14
-1.04691e-14
100.606
99.8972
97.4842
100.026
106.136
103.499
83.0396
49.7591
17.8554
-1.57231
-7.04542
-4.18505
0.378218
2.92982
2.98897
1.70452
0.303207
-0.586588
-0.89787
-0.831168
-0.612382
-0.387869
-0.218445
-0.111332
-0.0518287
-0.0221198
-0.00863957
-0.00305961
-0.000959152
-0.000249745
-4.22935e-05
4.91213e-06
9.30119e-06
5.87014e-06
2.8632e-06
1.22199e-06
4.76988e-07
1.73939e-07
5.99739e-08
1.97011e-08
6.19722e-09
1.8735e-09
5.45757e-10
1.53488e-10
4.17331e-11
1.09807e-11
2.79743e-12
6.89821e-13
1.65975e-13
3.25859e-14
100.012
101.113
99.1306
97.0956
100.879
106.794
102.823
81.9254
49.7034
18.9934
-0.447286
-7.04236
-5.32114
-1.0369
2.1499
3.2297
2.78255
1.76033
0.823003
0.220149
-0.0657546
-0.148567
-0.135873
-0.0950909
-0.0570944
-0.0307262
-0.0151538
-0.00693919
-0.00297526
-0.00120123
-0.000458413
-0.000165749
-5.68443e-05
-1.84866e-05
-5.69014e-06
-1.65034e-06
-4.47167e-07
-1.1129e-07
-2.45198e-08
-4.31849e-09
-3.48638e-10
1.67179e-10
1.2203e-10
5.39567e-11
1.99023e-11
6.62284e-12
2.05273e-12
6.01774e-13
1.70667e-13
3.84716e-14
99.573
100.783
101.154
98.2247
97.009
101.926
107.356
101.979
80.7027
49.5836
20.1665
0.9189
-6.64295
-6.17136
-2.5738
0.72842
2.4379
2.69939
2.17282
1.44212
0.824409
0.412103
0.179396
0.0658798
0.0182289
0.00171121
-0.00230348
-0.00228562
-0.00146024
-0.000775713
-0.000367558
-0.000160125
-6.51846e-05
-2.50428e-05
-9.13948e-06
-3.18318e-06
-1.06159e-06
-3.39837e-07
-1.04612e-07
-3.10046e-08
-8.85341e-09
-2.43623e-09
-6.45761e-10
-1.6469e-10
-4.0322e-11
-9.44151e-12
-2.10061e-12
-4.39064e-13
-8.44665e-14
-1.25485e-14
99.6579
99.7744
101.517
100.702
97.2728
97.3047
103.192
107.774
100.859
79.2911
49.4356
21.5119
2.66308
-5.79369
-6.77191
-4.31863
-1.44175
0.482664
1.28425
1.32642
1.03047
0.677752
0.394918
0.208566
0.101136
0.0453706
0.0189026
0.00731827
0.00262448
0.000863927
0.000255692
6.46891e-05
1.1844e-05
2.07888e-08
-1.40875e-06
-9.31877e-07
-4.47392e-07
-1.85205e-07
-6.98114e-08
-2.45607e-08
-8.17444e-09
-2.59522e-09
-7.9028e-10
-2.31718e-10
-6.56051e-11
-1.79735e-11
-4.77258e-12
-1.22906e-12
-3.10266e-13
-6.37717e-14
100.027
99.1851
100.472
101.94
99.7943
96.4891
98.0505
104.554
107.915
99.4664
77.807
49.3477
22.968
4.59254
-4.64996
-7.02811
-5.80371
-3.55112
-1.63644
-0.459017
0.0858297
0.245325
0.228785
0.160788
0.0966967
0.0521409
0.0258002
0.0118748
0.00512837
0.00209064
0.000807885
0.000296805
0.000103869
3.46605e-05
1.10294e-05
3.34327e-06
9.62806e-07
2.6208e-07
6.67959e-08
1.56514e-08
3.23968e-09
5.28892e-10
3.37656e-11
-2.25349e-11
-1.46265e-11
-6.09565e-12
-2.14517e-12
-6.84054e-13
-2.06683e-13
-4.86817e-14
100.307
99.3447
99.2682
101.409
101.873
98.5678
95.999
99.1975
105.963
107.845
97.8644
76.154
49.0677
24.2962
6.6966
-2.84668
-6.16946
-5.93735
-4.34321
-2.66993
-1.42537
-0.665012
-0.266517
-0.0858755
-0.0165614
0.00404623
0.00692951
0.0050756
0.00291321
0.00146164
0.000668008
0.000283861
0.000113505
4.30403e-05
1.55603e-05
5.3844e-06
1.78857e-06
5.71597e-07
1.76045e-07
5.2318e-08
1.50155e-08
4.16382e-09
1.11565e-09
2.88706e-10
7.20803e-11
1.73288e-11
3.99864e-12
8.80816e-13
1.84329e-13
3.10193e-14
100.333
99.9207
98.7712
100.032
102.273
101.123
97.1194
95.9975
100.894
107.451
107.418
95.7523
74.0557
48.5572
25.7821
9.50469
0.231332
-3.62446
-4.24787
-3.44564
-2.32331
-1.37974
-0.740837
-0.364673
-0.165811
-0.069871
-0.0272731
-0.00980896
-0.00320733
-0.000924096
-0.000215385
-2.72151e-05
9.32454e-06
9.89781e-06
5.57517e-06
2.55211e-06
1.04053e-06
3.91666e-07
1.38593e-07
4.65931e-08
1.49834e-08
4.63072e-09
1.38011e-09
3.97662e-10
1.10996e-10
3.00582e-11
7.90707e-12
2.02129e-12
5.0738e-13
1.0392e-13
100.162
100.449
99.0646
98.8795
101.298
102.513
99.6138
95.8797
96.862
103.089
108.628
106.244
93.0323
71.775
48.2744
27.7954
13.0608
4.22329
-0.0733505
-1.56083
-1.65767
-1.25797
-0.80569
-0.459995
-0.240203
-0.116395
-0.0528191
-0.0225851
-0.00913874
-0.00350963
-0.00128164
-0.000445442
-0.000147322
-4.62977e-05
-1.37788e-05
-3.85876e-06
-1.00469e-06
-2.37361e-07
-4.80315e-08
-6.82998e-09
2.31941e-10
7.04988e-10
3.74872e-10
1.50692e-10
5.30534e-11
1.718e-11
5.23447e-12
1.518e-12
4.27748e-13
9.6158e-14
99.9362
100.682
99.77
98.4512
99.8546
102.442
101.809
97.7646
95.3307
98.5289
105.342
109.221
104.488
90.135
69.6145
48.0685
29.6178
16.1693
7.66765
2.99065
0.784789
-0.0594449
-0.269403
-0.243395
-0.163218
-0.0939015
-0.0487082
-0.0233269
-0.0104549
-0.0044233
-0.00177723
-0.000681094
-0.000249787
-8.78907e-05
-2.97296e-05
-9.68225e-06
-3.03948e-06
-9.20438e-07
-2.68988e-07
-7.58591e-08
-2.06342e-08
-5.40697e-09
-1.36201e-09
-3.28637e-10
-7.5504e-11
-1.63477e-11
-3.27146e-12
-5.80563e-13
-8.01445e-14
-4.52748e-15
99.7615
100.622
100.479
98.6772
98.6583
101.436
102.969
100.191
95.8859
95.5403
100.872
107.716
109.565
102.417
86.8383
66.7023
46.5628
29.6582
17.2916
9.2404
4.51883
2.00934
0.799674
0.274135
0.0721898
0.00690296
-0.00804688
-0.00789113
-0.00495718
-0.00259833
-0.00122005
-0.000528982
-0.000215214
-8.29684e-05
-3.05069e-05
-1.07483e-05
-3.64121e-06
-1.18925e-06
-3.75279e-07
-1.14613e-07
-3.39257e-08
-9.74396e-09
-2.71808e-09
-7.36938e-10
-1.94305e-10
-4.98406e-11
-1.24398e-11
-3.01978e-12
-7.18713e-13
-1.4036e-13
99.6723
100.398
100.974
99.2375
97.9785
100.171
103.16
102.202
97.4655
94.3046
97.1002
104.493
110.523
109.365
99.001
81.5706
61.3347
42.3094
26.9264
15.8922
8.73722
4.49035
2.16289
0.977945
0.415201
0.165306
0.0614823
0.0211912
0.0066586
0.00183916
0.000403359
4.02182e-05
-2.38839e-05
-2.13282e-05
-1.14935e-05
-5.14488e-06
-2.06937e-06
-7.7234e-07
-2.71952e-07
-9.12352e-08
-2.93498e-08
-9.09424e-09
-2.72316e-09
-7.89985e-10
-2.22467e-10
-6.09122e-11
-1.62377e-11
-4.21625e-12
-1.07854e-12
-2.25111e-13
99.6533
100.143
101.223
99.8371
97.7534
99.0897
102.786
103.483
99.1719
94.2626
94.6213
101.296
109.492
112.578
106.632
92.1373
72.7029
52.6566
35.2206
21.8859
12.7025
6.91846
3.55048
1.72275
0.792663
0.346693
0.144428
0.0573953
0.0217814
0.0078981
0.00273629
0.000904964
0.000285146
8.52811e-05
2.4049e-05
6.317e-06
1.50864e-06
3.0946e-07
4.49504e-08
-1.27899e-09
-4.60979e-09
-2.50525e-09
-1.02543e-09
-3.67457e-10
-1.21154e-10
-3.76036e-11
-1.11266e-11
-3.16021e-12
-8.77078e-13
-1.95313e-13
99.6725
99.931
101.296
100.315
97.7978
98.3484
102.233
104.126
100.536
94.7658
93.2909
98.8656
107.911
113.635
110.917
98.9356
80.5936
60.2384
41.5687
26.6488
15.9618
8.97783
4.76284
2.39241
1.14167
0.519103
0.225469
0.0937594
0.0374017
0.0143371
0.00528893
0.00188002
0.000644626
0.00021339
6.824e-05
2.109e-05
6.30004e-06
1.81864e-06
5.07006e-07
1.36335e-07
3.52883e-08
8.76231e-09
2.07574e-09
4.64741e-10
9.66593e-11
1.80127e-11
2.72958e-12
2.06561e-13
-7.25222e-14
-3.72174e-14
99.7034
99.7873
101.278
100.63
97.9445
97.9202
101.736
104.358
101.445
95.3689
92.7201
97.2993
106.505
113.687
113.068
102.939
85.6046
65.3022
45.9772
30.0665
18.369
10.5394
5.70496
2.92507
1.42556
0.662433
0.294293
0.1253
0.0512365
0.0201605
0.00764645
0.00279978
0.000991048
0.000339557
0.000112736
3.63059e-05
1.13512e-05
3.44827e-06
1.01846e-06
2.92634e-07
8.18358e-08
2.22819e-08
5.90809e-09
1.52568e-09
3.83667e-10
9.39255e-11
2.23716e-11
5.17764e-12
1.17085e-12
2.17943e-13
99.7313
99.7029
101.231
100.811
98.0937
97.7089
101.377
104.386
101.973
95.8621
92.5523
96.4097
105.502
113.403
114.025
105.112
88.5461
68.4221
48.7933
32.3154
19.9943
11.6184
6.36999
3.30869
1.63397
0.769604
0.346683
0.149731
0.0621386
0.024828
0.00956813
0.00356219
0.00128306
0.000447712
0.00015153
4.98e-05
1.59087e-05
4.94451e-06
1.49646e-06
4.41366e-07
1.26953e-07
3.56349e-08
9.76696e-09
2.61534e-09
6.84524e-10
1.75196e-10
4.38637e-11
1.07412e-11
2.59647e-12
5.16993e-13
99.7511
99.6593
101.186
100.902
98.2061
97.6214
101.154
104.341
102.245
96.1952
92.5533
95.9565
104.88
113.094
114.389
106.206
90.1544
70.2113
50.4647
33.6874
21.0096
12.3067
6.80246
3.56266
1.77431
0.842953
0.383105
0.166976
0.0699494
0.0282212
0.0109854
0.00413254
0.00150463
0.000530937
0.000181804
6.04795e-05
1.95667e-05
6.16252e-06
1.89113e-06
5.65946e-07
1.65293e-07
4.71493e-08
1.31441e-08
3.58338e-09
9.55904e-10
2.4965e-10
6.38666e-11
1.60031e-11
3.96781e-12
8.09015e-13
99.7633
99.6393
101.153
100.943
98.2777
97.5936
101.03
104.287
102.371
96.3929
92.6017
95.7482
104.533
112.864
114.496
106.718
90.9784
71.173
51.3933
34.4699
21.6015
12.7159
7.06417
3.7189
1.86198
0.889458
0.406526
0.178219
0.0751096
0.0304923
0.0119462
0.0045241
0.00165864
0.000589505
0.000203371
6.81805e-05
2.22367e-05
7.06238e-06
2.18627e-06
6.60242e-07
1.94669e-07
5.60799e-08
1.57958e-08
4.35292e-09
1.17434e-09
3.10337e-10
8.03794e-11
2.04029e-11
5.12986e-12
1.0594e-12
99.7699
99.6313
101.134
100.958
98.3181
97.5893
100.967
104.247
102.422
96.4989
92.6482
95.6621
104.355
112.72
114.51
106.94
91.3758
71.66
51.8792
34.8897
21.9259
12.9443
7.21269
3.80894
1.91324
0.917018
0.420588
0.185055
0.0782857
0.0319069
0.0125517
0.00477369
0.00175793
0.000627685
0.000217586
7.33123e-05
2.40354e-05
7.67519e-06
2.38944e-06
7.25856e-07
2.1533e-07
6.2429e-08
1.77014e-08
4.91195e-09
1.33475e-09
3.5539e-10
9.27729e-11
2.37415e-11
6.02172e-12
1.25348e-12
99.7732
99.6286
101.123
100.963
98.3388
97.5919
100.938
104.222
102.441
96.5511
92.6801
95.6305
104.27
112.64
114.499
107.03
91.5569
71.8935
52.1198
35.1028
22.0938
13.0646
7.29219
3.85783
1.94145
0.932385
0.428525
0.188958
0.0801202
0.0327331
0.0129091
0.00492261
0.00181778
0.000650938
0.000226331
7.65011e-05
2.51641e-05
8.06354e-06
2.51945e-06
7.68254e-07
2.2881e-07
6.66115e-08
1.89688e-08
5.28735e-09
1.44351e-09
3.8623e-10
1.01339e-10
2.60713e-11
6.6503e-12
1.39146e-12
99.7748
99.6279
101.118
100.964
98.3486
97.5952
100.926
104.208
102.446
96.575
92.6987
95.6208
104.233
112.599
114.486
107.063
91.635
71.9998
52.233
35.2055
22.1764
13.1248
7.33255
3.883
1.95617
0.940496
0.432764
0.191067
0.0811218
0.0331889
0.0131084
0.00500645
0.00185181
0.000664288
0.0002314
7.8367e-05
2.58308e-05
8.29504e-06
2.59767e-06
7.93995e-07
2.37069e-07
6.91973e-08
1.97594e-08
5.52364e-09
1.51259e-09
4.05993e-10
1.06877e-10
2.75911e-11
7.06415e-12
1.48303e-12
99.7754
99.6278
101.115
100.964
98.3528
97.5975
100.921
104.201
102.447
96.5852
92.7082
95.6186
104.217
112.58
114.477
107.075
91.6671
72.0459
52.2838
35.2526
22.215
13.1534
7.35202
3.89531
1.96345
0.944558
0.43491
0.192145
0.0816393
0.0334267
0.0132133
0.00505101
0.00187007
0.000671512
0.000234167
7.93943e-05
2.6201e-05
8.42467e-06
2.64184e-06
8.0865e-07
2.4181e-07
7.06937e-08
2.02207e-08
5.66263e-09
1.55354e-09
4.17806e-10
1.10214e-10
2.85143e-11
7.3176e-12
1.53952e-12
99.7757
99.6279
101.114
100.963
98.3546
97.5989
100.919
104.198
102.447
96.5892
92.7128
95.6185
104.211
112.572
114.473
107.078
91.6795
72.0651
52.3056
35.2734
22.2324
13.1665
7.36104
3.90109
1.96691
0.946511
0.435953
0.192675
0.0818962
0.033546
0.0132664
0.00507379
0.00187948
0.000675273
0.000235621
7.99387e-05
2.63989e-05
8.49456e-06
2.66585e-06
8.16684e-07
2.4443e-07
7.15276e-08
2.04799e-08
5.74133e-09
1.57692e-09
4.24602e-10
1.12149e-10
2.90537e-11
7.4669e-12
1.57302e-12
99.7758
99.628
101.114
100.963
98.3553
97.5995
100.918
104.196
102.447
96.5908
92.7148
95.6188
104.209
112.568
114.47
107.079
91.6842
72.0727
52.3145
35.2821
22.2397
13.1721
7.36498
3.90364
1.96845
0.94739
0.436427
0.192918
0.082015
0.0336015
0.0132914
0.00508458
0.00188398
0.000677082
0.000236325
8.02044e-05
2.64962e-05
8.52919e-06
2.67784e-06
8.20725e-07
2.45758e-07
7.19533e-08
2.06132e-08
5.78211e-09
1.58912e-09
4.28176e-10
1.13175e-10
2.93417e-11
7.54722e-12
1.59117e-12
99.7758
99.628
101.113
100.963
98.3555
97.5998
100.918
104.196
102.446
96.5913
92.7157
95.6191
104.208
112.567
114.469
107.079
91.6858
72.0756
52.3181
35.2857
22.2429
13.1746
7.36673
3.90479
1.96916
0.947797
0.436649
0.193033
0.0820719
0.0336284
0.0133036
0.0050899
0.00188621
0.000677989
0.000236682
8.03399e-05
2.65462e-05
8.5471e-06
2.68408e-06
8.22843e-07
2.46458e-07
7.21793e-08
2.06844e-08
5.80403e-09
1.59572e-09
4.3012e-10
1.13735e-10
2.95e-11
7.59163e-12
1.60125e-12
99.7758
99.6281
101.113
100.963
98.3556
97.5999
100.918
104.196
102.446
96.5915
92.716
95.6192
104.208
112.566
114.469
107.079
91.6864
72.0766
52.3193
35.287
22.244
13.1754
7.36734
3.90519
1.96941
0.947943
0.43673
0.193075
0.0820927
0.0336384
0.0133081
0.0050919
0.00188707
0.000678339
0.00023682
8.03933e-05
2.65661e-05
8.55433e-06
2.68663e-06
8.23719e-07
2.46751e-07
7.2275e-08
2.07149e-08
5.81353e-09
1.59862e-09
4.30983e-10
1.13987e-10
2.95721e-11
7.61207e-12
1.60593e-12
99.7758
99.6281
101.113
100.963
98.3556
97.6
100.918
104.196
102.446
96.5915
92.7162
95.6194
104.208
112.566
114.468
107.079
91.6865
72.077
52.32
35.2876
22.2446
13.1759
7.3677
3.90544
1.96956
0.948032
0.436779
0.193101
0.0821057
0.0336446
0.013311
0.00509314
0.00188759
0.000678553
0.000236905
8.04255e-05
2.6578e-05
8.55863e-06
2.68813e-06
8.24232e-07
2.46922e-07
7.23303e-08
2.07324e-08
5.81895e-09
1.60026e-09
4.31468e-10
1.14128e-10
2.96121e-11
7.62337e-12
1.60852e-12
99.7758
99.6281
101.113
100.963
98.3556
97.6
100.918
104.196
102.446
96.5915
92.7161
95.6193
104.207
112.566
114.468
107.079
91.6866
72.0771
52.32
35.2876
22.2446
13.1759
7.36771
3.90544
1.96957
0.948037
0.436782
0.193103
0.0821068
0.0336452
0.0133113
0.00509331
0.00188767
0.000678589
0.00023692
8.0432e-05
2.65806e-05
8.55963e-06
2.68851e-06
8.24367e-07
2.46969e-07
7.23465e-08
2.07378e-08
5.82069e-09
1.60081e-09
4.31638e-10
1.14179e-10
2.9627e-11
7.62773e-12
1.60954e-12
99.7758
99.6281
101.113
100.963
98.3556
97.6
100.918
104.196
102.446
96.5915
92.7162
95.6194
104.207
112.566
114.468
107.079
91.6866
72.0772
52.3202
35.2879
22.2448
13.1761
7.36784
3.90553
1.96962
0.948066
0.436798
0.193111
0.0821107
0.033647
0.0133121
0.00509365
0.00188781
0.000678644
0.000236941
8.04399e-05
2.65835e-05
8.56064e-06
2.68886e-06
8.24483e-07
2.47007e-07
7.23587e-08
2.07416e-08
5.82186e-09
1.60116e-09
4.31742e-10
1.14209e-10
2.96356e-11
7.63015e-12
1.61009e-12
99.7758
99.6281
101.113
100.963
98.3556
97.6
100.918
104.196
102.446
96.5915
92.7162
95.6193
104.207
112.566
114.468
107.079
91.6866
72.0771
52.3201
35.2877
22.2447
13.176
7.36778
3.90549
1.9696
0.948055
0.436792
0.193108
0.0821096
0.0336466
0.0133119
0.00509359
0.00188779
0.000678639
0.00023694
8.04397e-05
2.65835e-05
8.56067e-06
2.68888e-06
8.24495e-07
2.47012e-07
7.23605e-08
2.07422e-08
5.8221e-09
1.60124e-09
4.31767e-10
1.14217e-10
2.9638e-11
7.63085e-12
1.61026e-12
99.7758
99.6281
101.113
100.963
98.3556
97.6
100.918
104.196
102.446
96.5916
92.7162
95.6194
104.207
112.566
114.468
107.079
91.6866
72.0772
52.3202
35.2879
22.2448
13.1761
7.36784
3.90553
1.96962
0.948067
0.436799
0.193111
0.082111
0.0336472
0.0133122
0.0050937
0.00188783
0.000678656
0.000236946
8.0442e-05
2.65843e-05
8.56097e-06
2.68898e-06
8.24529e-07
2.47024e-07
7.23642e-08
2.07434e-08
5.82246e-09
1.60135e-09
4.318e-10
1.14227e-10
2.96407e-11
7.63165e-12
1.61044e-12
99.7758
99.6281
101.113
100.963
98.3556
97.6
100.918
104.196
102.446
96.5915
92.7162
95.6194
104.207
112.566
114.468
107.079
91.6866
72.0772
52.3201
35.2878
22.2447
13.1761
7.3678
3.90551
1.96961
0.948059
0.436795
0.193109
0.0821101
0.0336468
0.013312
0.00509363
0.0018878
0.000678643
0.000236942
8.04403e-05
2.65837e-05
8.56075e-06
2.6889e-06
8.24503e-07
2.47015e-07
7.23616e-08
2.07426e-08
5.82221e-09
1.60127e-09
4.31779e-10
1.14221e-10
2.96391e-11
7.63122e-12
1.61035e-12
99.7758
99.6281
101.113
100.963
98.3556
97.6
100.918
104.196
102.446
96.5915
92.7162
95.6194
104.207
112.566
114.468
107.079
91.6866
72.0772
52.3202
35.2878
22.2448
13.1761
7.36783
3.90553
1.96962
0.948068
0.436799
0.193112
0.0821113
0.0336473
0.0133123
0.00509374
0.00188785
0.000678662
0.000236949
8.0443e-05
2.65847e-05
8.56111e-06
2.68903e-06
8.24545e-07
2.47029e-07
7.23658e-08
2.07439e-08
5.8226e-09
1.60139e-09
4.31811e-10
1.1423e-10
2.96416e-11
7.63189e-12
1.6105e-12
99.7758
99.6281
101.113
100.963
98.3556
97.6
100.918
104.196
102.446
96.5915
92.7162
95.6194
104.207
112.566
114.468
107.079
91.6866
72.0772
52.3201
35.2878
22.2448
13.1761
7.3678
3.9055
1.96961
0.948058
0.436794
0.193109
0.08211
0.0336467
0.013312
0.00509362
0.0018878
0.000678643
0.000236942
8.04404e-05
2.65838e-05
8.56079e-06
2.68892e-06
8.2451e-07
2.47018e-07
7.23626e-08
2.07429e-08
5.82233e-09
1.60131e-09
4.31791e-10
1.14225e-10
2.96402e-11
7.63154e-12
1.61042e-12
99.7758
99.6281
101.113
100.963
98.3556
97.6
100.918
104.196
102.446
96.5915
92.7162
95.6194
104.207
112.566
114.468
107.079
91.6866
72.0772
52.3201
35.2878
22.2448
13.1761
7.36783
3.90553
1.96962
0.948066
0.436798
0.193111
0.082111
0.0336472
0.0133122
0.0050937
0.00188783
0.000678655
0.000236946
8.04419e-05
2.65843e-05
8.56094e-06
2.68897e-06
8.24525e-07
2.47022e-07
7.23636e-08
2.07432e-08
5.8224e-09
1.60133e-09
4.31794e-10
1.14225e-10
2.96403e-11
7.63152e-12
1.61042e-12
99.7758
99.6281
101.113
100.963
98.3556
97.6
100.918
104.196
102.446
96.5916
92.7162
95.6194
104.207
112.566
114.468
107.079
91.6866
72.0772
52.3202
35.2878
22.2448
13.1761
7.36782
3.90552
1.96962
0.948065
0.436798
0.193111
0.082111
0.0336472
0.0133122
0.00509371
0.00188784
0.000678658
0.000236948
8.04426e-05
2.65846e-05
8.56106e-06
2.68901e-06
8.24541e-07
2.47028e-07
7.23655e-08
2.07438e-08
5.82259e-09
1.60139e-09
4.31812e-10
1.1423e-10
2.96417e-11
7.63194e-12
1.61051e-12
99.7758
99.6281
101.113
100.963
98.3556
97.6
100.918
104.196
102.446
96.5915
92.7162
95.6194
104.207
112.566
114.468
107.079
91.6865
72.0771
52.3201
35.2877
22.2447
13.176
7.36778
3.90549
1.9696
0.948056
0.436793
0.193108
0.0821097
0.0336466
0.0133119
0.00509359
0.00188779
0.000678638
0.00023694
8.04397e-05
2.65835e-05
8.5607e-06
2.68889e-06
8.24499e-07
2.47014e-07
7.23614e-08
2.07426e-08
5.82221e-09
1.60128e-09
4.3178e-10
1.14222e-10
2.96394e-11
7.63129e-12
1.61037e-12
99.7758
99.6281
101.113
100.963
98.3556
97.6
100.918
104.196
102.446
96.5916
92.7162
95.6194
104.207
112.566
114.468
107.079
91.6867
72.0773
52.3203
35.288
22.2449
13.1762
7.36787
3.90555
1.96963
0.948074
0.436802
0.193113
0.0821119
0.0336476
0.0133124
0.00509378
0.00188786
0.000678667
0.000236951
8.04436e-05
2.65849e-05
8.56116e-06
2.68904e-06
8.24548e-07
2.4703e-07
7.23661e-08
2.0744e-08
5.82262e-09
1.60139e-09
4.31813e-10
1.1423e-10
2.96418e-11
7.63193e-12
1.61051e-12
99.7758
99.6281
101.113
100.963
98.3556
97.6
100.918
104.196
102.446
96.5915
92.7162
95.6194
104.208
112.566
114.468
107.079
91.6865
72.077
52.32
35.2877
22.2447
13.176
7.36777
3.90549
1.9696
0.948055
0.436793
0.193109
0.0821098
0.0336467
0.013312
0.00509362
0.0018878
0.000678645
0.000236943
8.04408e-05
2.65839e-05
8.56084e-06
2.68894e-06
8.24517e-07
2.4702e-07
7.23633e-08
2.07432e-08
5.82239e-09
1.60133e-09
4.31796e-10
1.14226e-10
2.96406e-11
7.63163e-12
1.61044e-12
99.7758
99.6281
101.113
100.963
98.3556
97.6
100.918
104.196
102.446
96.5916
92.7162
95.6193
104.207
112.566
114.468
107.079
91.6867
72.0773
52.3202
35.2879
22.2448
13.1761
7.36782
3.90552
1.96961
0.948062
0.436796
0.19311
0.0821103
0.0336468
0.013312
0.00509363
0.0018878
0.000678643
0.000236942
8.04403e-05
2.65837e-05
8.56075e-06
2.68891e-06
8.24504e-07
2.47016e-07
7.23617e-08
2.07426e-08
5.82222e-09
1.60128e-09
4.3178e-10
1.14221e-10
2.96393e-11
7.63126e-12
1.61036e-12
99.7758
99.6281
101.113
100.963
98.3556
97.6001
100.918
104.196
102.446
96.5915
92.7163
95.6195
104.207
112.566
114.468
107.079
91.6866
72.0772
52.3202
35.2879
22.2449
13.1762
7.36788
3.90556
1.96964
0.948078
0.436805
0.193114
0.0821126
0.0336479
0.0133125
0.00509385
0.00188789
0.000678679
0.000236956
8.04454e-05
2.65856e-05
8.5614e-06
2.68913e-06
8.24577e-07
2.47039e-07
7.2369e-08
2.07449e-08
5.8229e-09
1.60148e-09
4.31837e-10
1.14237e-10
2.96436e-11
7.63244e-12
1.61062e-12
99.7758
99.6281
101.113
100.963
98.3556
97.6
100.918
104.196
102.446
96.5915
92.7161
95.6193
104.208
112.566
114.468
107.079
91.6865
72.077
52.3198
35.2875
22.2445
13.1759
7.36768
3.90543
1.96956
0.948035
0.436782
0.193103
0.0821072
0.0336454
0.0133115
0.00509339
0.00188771
0.000678607
0.000236928
8.04355e-05
2.6582e-05
8.56018e-06
2.68872e-06
8.24444e-07
2.46997e-07
7.23559e-08
2.07409e-08
5.82173e-09
1.60114e-09
4.31741e-10
1.14211e-10
2.96364e-11
7.6305e-12
1.61019e-12
99.7758
99.6281
101.113
100.963
98.3557
97.6001
100.918
104.195
102.446
96.5916
92.7164
95.6194
104.207
112.566
114.468
107.079
91.6869
72.0777
52.3207
35.2883
22.2452
13.1764
7.36803
3.90565
1.96969
0.948107
0.43682
0.193122
0.082116
0.0336494
0.0133132
0.00509411
0.001888
0.00067872
0.000236971
8.04508e-05
2.65875e-05
8.56204e-06
2.68934e-06
8.24645e-07
2.4706e-07
7.23756e-08
2.07468e-08
5.82347e-09
1.60164e-09
4.31883e-10
1.1425e-10
2.9647e-11
7.63333e-12
1.61084e-12
99.7758
99.6281
101.113
100.963
98.3556
97.6
100.918
104.196
102.446
96.5914
92.716
95.6194
104.208
112.566
114.468
107.079
91.6862
72.0766
52.3196
35.2873
22.2444
13.1758
7.36764
3.90541
1.96956
0.948033
0.436782
0.193104
0.0821077
0.0336458
0.0133116
0.00509349
0.00188776
0.000678629
0.000236938
8.04392e-05
2.65835e-05
8.56072e-06
2.68891e-06
8.24512e-07
2.4702e-07
7.23635e-08
2.07434e-08
5.82249e-09
1.60137e-09
4.31809e-10
1.1423e-10
2.9642e-11
7.63207e-12
1.61055e-12
)
;

boundaryField
{
    left
    {
        type            fixedValue;
        value           uniform 100;
    }
    right
    {
        type            zeroGradient;
    }
    up
    {
        type            zeroGradient;
    }
    down
    {
        type            fixedValue;
        value           uniform 0;
    }
    frontAndBack
    {
        type            empty;
    }
}


// ************************************************************************* //
