0 	-8.32817e-11
1.57135 	5.01997e-07
3.1427 	7.45194e-06
4.71405 	3.66104e-05
6.28539 	0.000112711
7.85674 	0.000269564
9.42809 	0.000545269
10.9994 	0.000996591
12.5708 	0.00179525
14.1421 	0.00551739
