0 	0 	0 	0
1.57135 	-0.000427348 	0.000388964 	0
3.1427 	-0.000949598 	0.000673909 	0
4.71405 	-0.0016062 	0.000720318 	0
6.28539 	-0.00238206 	0.000403116 	0
7.85674 	-0.00323419 	-0.000363157 	0
9.42809 	-0.004237 	-0.00163179 	0
10.9994 	-0.00595272 	-0.00365778 	0
12.5708 	-0.00932619 	-0.00838415 	0
14.1421 	0.5 	0 	0
