/*--------------------------------*- C++ -*----------------------------------*\
  =========                 |
  \\      /  F ield         | OpenFOAM: The Open Source CFD Toolbox
   \\    /   O peration     | Website:  https://openfoam.org
    \\  /    A nd           | Version:  8
     \\/     M anipulation  |
\*---------------------------------------------------------------------------*/
FoamFile
{
    version     2.0;
    format      ascii;
    class       volVectorField;
    location    "24.5";
    object      U;
}
// * * * * * * * * * * * * * * * * * * * * * * * * * * * * * * * * * * * * * //

dimensions      [0 1 -1 0 0 0 0];

internalField   nonuniform List<vector> 
464
(
(-0.000113452 0.000112081 0)
(-0.00034928 0.000115156 0)
(-0.000583919 0.000109817 0)
(-0.000801851 0.000101868 0)
(-0.00100178 9.15926e-05 0)
(-0.00117891 7.91893e-05 0)
(-0.00132719 6.49633e-05 0)
(-0.0014541 4.87172e-05 0)
(-0.00152669 3.1206e-05 0)
(-0.00162046 9.99792e-06 0)
(-0.0015769 -1.07795e-05 0)
(-0.00170168 -1.22826e-05 0)
(-0.000121893 0.000350708 0)
(-0.000374993 0.000360061 0)
(-0.000626602 0.000343331 0)
(-0.000860211 0.00031849 0)
(-0.00107445 0.000286607 0)
(-0.0012642 0.000248682 0)
(-0.00142355 0.000206617 0)
(-0.0015597 0.00016063 0)
(-0.00164097 0.000119889 0)
(-0.00174272 6.50725e-05 0)
(-0.00170852 5.9562e-05 0)
(-0.00184667 -2.0777e-05 0)
(-0.000127599 0.000605288 0)
(-0.000392477 0.00062108 0)
(-0.000655585 0.000592 0)
(-0.000899422 0.000548803 0)
(-0.00112246 0.000493347 0)
(-0.00131858 0.000427295 0)
(-0.00148226 0.000353377 0)
(-0.00161387 0.000272285 0)
(-0.00169904 0.000194085 0)
(-0.00176163 9.95944e-05 0)
(-0.00174284 5.51608e-05 0)
(-0.00172834 -6.12676e-05 0)
(-0.00013632 0.000871347 0)
(-0.000419159 0.000893772 0)
(-0.000699862 0.0008515 0)
(-0.000959593 0.000788698 0)
(-0.00119686 0.000708121 0)
(-0.00140521 0.000612042 0)
(-0.00157973 0.000503641 0)
(-0.00172023 0.000384595 0)
(-0.00181497 0.000261338 0)
(-0.00188299 0.000127549 0)
(-0.00187056 9.71464e-06 0)
(-0.00185298 -0.000144863 0)
(-0.000148478 0.0011593 0)
(-0.000456258 0.00118859 0)
(-0.000761308 0.00113163 0)
(-0.00104282 0.00104702 0)
(-0.00129913 0.000938923 0)
(-0.00152307 0.000810326 0)
(-0.00170972 0.000665526 0)
(-0.00185617 0.000507246 0)
(-0.0019561 0.000342178 0)
(-0.00201326 0.000166151 0)
(-0.00201526 2.50512e-06 0)
(-0.00197527 -0.000192279 0)
(-0.000164608 0.00147456 0)
(-0.000505232 0.00151105 0)
(-0.000842269 0.00143755 0)
(-0.00115231 0.00132827 0)
(-0.00143356 0.00118941 0)
(-0.00167861 0.00102444 0)
(-0.00188281 0.000838867 0)
(-0.00204359 0.000636056 0)
(-0.00215609 0.00042093 0)
(-0.00222266 0.000194425 0)
(-0.00222901 -3.46076e-05 0)
(-0.00218775 -0.000275561 0)
(-0.000185258 0.00182878 0)
(-0.000567574 0.00187217 0)
(-0.00094515 0.00177911 0)
(-0.00129096 0.00164033 0)
(-0.00160295 0.0014663 0)
(-0.00187361 0.00126027 0)
(-0.0020981 0.00103023 0)
(-0.0022741 0.00078014 0)
(-0.00239772 0.000515831 0)
(-0.00246878 0.000238939 0)
(-0.00248527 -4.30823e-05 0)
(-0.00244725 -0.000336089 0)
(-0.0002121 0.00221821 0)
(-0.000647028 0.00227031 0)
(-0.00107539 0.00215631 0)
(-0.00146513 0.00198509 0)
(-0.00181361 0.00177221 0)
(-0.00211468 0.00152004 0)
(-0.00236295 0.00124055 0)
(-0.00255799 0.00093803 0)
(-0.00269731 0.000619311 0)
(-0.00278158 0.000287381 0)
(-0.00280405 -5.266e-05 0)
(-0.00276703 -0.000403329 0)
(-0.000243786 0.00270127 0)
(-0.000741579 0.002754 0)
(-0.00123187 0.00260837 0)
(-0.00167508 0.00238557 0)
(-0.002068 0.00212185 0)
(-0.00240528 0.0018115 0)
(-0.0026801 0.00147521 0)
(-0.00289533 0.00111401 0)
(-0.00304836 0.000735773 0)
(-0.00314073 0.00034115 0)
(-0.00317597 -6.58481e-05 0)
(-0.00314965 -0.000481128 0)
(-0.000293567 0.00316862 0)
(-0.000875843 0.00323446 0)
(-0.00144559 0.00306357 0)
(-0.0019517 0.00280058 0)
(-0.00238762 0.00249038 0)
(-0.00276133 0.00212326 0)
(-0.00306042 0.00172944 0)
(-0.00329744 0.00130783 0)
(-0.00347019 0.000871301 0)
(-0.00358323 0.000423788 0)
(-0.00362636 -3.3369e-05 0)
(-0.00360317 -0.000506533 0)
(-0.000336866 0.00391719 0)
(-0.0010075 0.003951 0)
(-0.00166761 0.00373309 0)
(-0.00224842 0.00335027 0)
(-0.00274526 0.0029652 0)
(-0.00316634 0.00249471 0)
(-0.00349553 0.00202089 0)
(-0.00375349 0.0015209 0)
(-0.00393235 0.00101061 0)
(-0.00404534 0.000484051 0)
(-0.00410622 -5.87257e-05 0)
(-0.00410371 -0.000614203 0)
(-0.000455194 0.00443993 0)
(-0.00125746 0.00450689 0)
(-0.00204854 0.00425232 0)
(-0.00271986 0.00382605 0)
(-0.0032427 0.00338341 0)
(-0.00370568 0.00284424 0)
(-0.00403401 0.00230798 0)
(-0.00430775 0.00174382 0)
(-0.00450714 0.00118175 0)
(-0.00465271 0.000615186 0)
(-0.00472473 4.16525e-05 0)
(-0.00473205 -0.000552996 0)
(-0.000492798 0.00572713 0)
(-0.00142073 0.00560834 0)
(-0.00234963 0.00529989 0)
(-0.00311851 0.00456784 0)
(-0.00372671 0.00403127 0)
(-0.00424263 0.00329137 0)
(-0.00459597 0.00265974 0)
(-0.00487986 0.0019836 0)
(-0.0050608 0.00133194 0)
(-0.00518523 0.000674906 0)
(-0.00527415 6.28062e-06 0)
(-0.00530263 -0.000692595 0)
(-0.000865607 0.00622482 0)
(-0.00197743 0.00627609 0)
(-0.00309117 0.0058682 0)
(-0.00398992 0.0051206 0)
(-0.00451658 0.00447766 0)
(-0.00507756 0.00365464 0)
(-0.00534059 0.00294837 0)
(-0.00563569 0.00221063 0)
(-0.00581601 0.00152749 0)
(-0.00597878 0.000856782 0)
(-0.00609258 0.000196118 0)
(-0.00615056 -0.000500585 0)
(-0.000746468 0.0087403 0)
(-0.0020935 0.00787653 0)
(-0.00350021 0.00748821 0)
(-0.00451644 0.00596514 0)
(-0.00519144 0.00525136 0)
(-0.00577557 0.00407479 0)
(-0.00603987 0.0032804 0)
(-0.00630142 0.00239605 0)
(-0.00641417 0.00164109 0)
(-0.0065162 0.000896528 0)
(-0.00663079 0.000164627 0)
(-0.00665217 -0.000629581 0)
(-0.00221165 0.00884846 0)
(-0.00368855 0.0091249 0)
(-0.0049956 0.00817245 0)
(-0.00623181 0.00684817 0)
(-0.0063946 0.00574789 0)
(-0.00704988 0.00449305 0)
(-0.00701536 0.00354217 0)
(-0.00727558 0.00260956 0)
(-0.0073155 0.0018328 0)
(-0.00745614 0.00110096 0)
(-0.00761939 0.000438786 0)
(-0.00772197 -0.000293527 0)
(-0.000896739 0.0149509 0)
(-0.00328472 0.0102319 0)
(-0.00575485 0.010292 0)
(-0.00697795 0.00697294 0)
(-0.00754566 0.00615168 0)
(-0.00799022 0.00443854 0)
(-0.00792313 0.00352076 0)
(-0.00801209 0.00253469 0)
(-0.00792188 0.00178267 0)
(-0.00790958 0.00108006 0)
(-0.00802351 0.000450044 0)
(-0.00793284 -0.000267356 0)
(-0.00591624 0.0125963 0)
(-0.00866115 0.0147515 0)
(-0.00786227 0.0116931 0)
(-0.0103717 0.00922472 0)
(-0.0088801 0.00687572 0)
(-0.00969035 0.00505975 0)
(-0.00891198 0.00374481 0)
(-0.00900782 0.00267383 0)
(-0.00875458 0.00188276 0)
(-0.00876718 0.00120535 0)
(-0.00893746 0.000669752 0)
(-0.00902712 7.12362e-05 0)
(-0.0181156 0.0304302 0)
(-0.0128247 0.0109087 0)
(-0.016623 0.0121083 0)
(-0.0136329 0.0070959 0)
(-0.0124195 0.00543693 0)
(-0.0108673 0.00399974 0)
(-0.00941142 0.00280195 0)
(-0.00860191 0.00213048 0)
(-0.00779041 0.00150513 0)
(-0.00728496 0.00108131 0)
(-0.00711094 0.000765747 0)
(-0.00656743 0.000470744 0)
(0.0348635 0.0416988 0)
(0.0391082 0.0149935 0)
(0.05853 0.011977 0)
(0.0645487 0.00614044 0)
(0.0708402 0.00399487 0)
(0.0742583 0.00249788 0)
(0.0769821 0.0016041 0)
(0.0787778 0.0011131 0)
(0.0800563 0.00073669 0)
(0.0810575 0.000484858 0)
(0.0814164 0.000208375 0)
(0.0824559 0.000106811 0)
(-0.00149931 0.000821181 0)
(-0.00103305 0.00044302 0)
(-0.000895685 8.8072e-05 0)
(-0.000690656 -0.00011611 0)
(-0.000550727 -0.000280185 0)
(-0.000387643 -0.000388917 0)
(-0.000231798 -0.000460173 0)
(-7.42903e-05 -0.000470206 0)
(-0.00161712 0.000140684 0)
(-0.00114305 -5.67229e-05 0)
(-0.000994267 -0.000190607 0)
(-0.000773433 -0.000353534 0)
(-0.000618635 -0.000475894 0)
(-0.000439722 -0.000577178 0)
(-0.00026349 -0.000642862 0)
(-8.49338e-05 -0.00064417 0)
(-0.00158967 5.09821e-05 0)
(-0.00136493 -0.000164079 0)
(-0.00119244 -0.000311 0)
(-0.000975855 -0.000494606 0)
(-0.000774329 -0.00063626 0)
(-0.000555108 -0.00075356 0)
(-0.000330753 -0.000830897 0)
(-0.000107025 -0.000828902 0)
(-0.00172079 -0.000237051 0)
(-0.00150468 -0.000423603 0)
(-0.00132488 -0.000577906 0)
(-0.00109864 -0.000746655 0)
(-0.000877681 -0.000887336 0)
(-0.000635115 -0.0010035 0)
(-0.000380238 -0.00108268 0)
(-0.000123602 -0.00107042 0)
(-0.00186837 -0.000332239 0)
(-0.00170571 -0.000554205 0)
(-0.00151556 -0.000746304 0)
(-0.00128524 -0.000947734 0)
(-0.00103118 -0.00111895 0)
(-0.000751376 -0.00126025 0)
(-0.00045086 -0.00135686 0)
(-0.000147015 -0.00134052 0)
(-0.00208273 -0.000506631 0)
(-0.00191865 -0.00075447 0)
(-0.00171845 -0.000989073 0)
(-0.00147127 -0.00121501 0)
(-0.00119024 -0.00141153 0)
(-0.000874242 -0.00157455 0)
(-0.000527162 -0.00168602 0)
(-0.000172705 -0.00166293 0)
(-0.0023473 -0.000622357 0)
(-0.00218811 -0.000922632 0)
(-0.0019761 -0.00121011 0)
(-0.00170767 -0.00148722 0)
(-0.00139074 -0.00172868 0)
(-0.00102738 -0.0019327 0)
(-0.000621813 -0.00207031 0)
(-0.00020499 -0.00204534 0)
(-0.00266931 -0.000755093 0)
(-0.00250641 -0.00111077 0)
(-0.00228305 -0.0014539 0)
(-0.00198986 -0.00178544 0)
(-0.00163575 -0.00207299 0)
(-0.00121779 -0.00232578 0)
(-0.000741062 -0.00249158 0)
(-0.000247087 -0.00246658 0)
(-0.0030547 -0.000901929 0)
(-0.00288686 -0.00133139 0)
(-0.0026507 -0.00175083 0)
(-0.00232677 -0.0021695 0)
(-0.00193102 -0.00253128 0)
(-0.00144838 -0.00287106 0)
(-0.000885602 -0.0030857 0)
(-0.0003006 -0.00307568 0)
(-0.00351964 -0.000987553 0)
(-0.00335546 -0.00148302 0)
(-0.00312121 -0.00196118 0)
(-0.00277059 -0.00246696 0)
(-0.00233732 -0.00287327 0)
(-0.00177543 -0.00331771 0)
(-0.00109614 -0.00355644 0)
(-0.000384523 -0.00358117 0)
(-0.00403093 -0.00118731 0)
(-0.00386035 -0.00179639 0)
(-0.00363404 -0.0023876 0)
(-0.00323898 -0.00306378 0)
(-0.00278099 -0.00359493 0)
(-0.00213559 -0.00424533 0)
(-0.00132856 -0.0045787 0)
(-0.000501127 -0.00468043 0)
(-0.00470214 -0.0011576 0)
(-0.00455667 -0.00183823 0)
(-0.00438861 -0.00243347 0)
(-0.00397961 -0.00326112 0)
(-0.00351823 -0.00377168 0)
(-0.00276568 -0.0046695 0)
(-0.00175682 -0.00497966 0)
(-0.000707436 -0.00525337 0)
(-0.005315 -0.00141107 0)
(-0.00513596 -0.00226453 0)
(-0.00505369 -0.00303196 0)
(-0.00457819 -0.00417267 0)
(-0.00418385 -0.00492709 0)
(-0.00335253 -0.00629517 0)
(-0.00217479 -0.00683543 0)
(-0.00103279 -0.00741165 0)
(-0.00627487 -0.00115409 0)
(-0.00618149 -0.00207567 0)
(-0.00629648 -0.00268182 0)
(-0.00588251 -0.00406879 0)
(-0.00563617 -0.00457494 0)
(-0.0046924 -0.00652062 0)
(-0.00322236 -0.00685427 0)
(-0.00163566 -0.00815978 0)
(-0.00688643 -0.0014035 0)
(-0.00666281 -0.00252151 0)
(-0.00703449 -0.00339721 0)
(-0.00647457 -0.00527121 0)
(-0.00660357 -0.0062815 0)
(-0.00566259 -0.0092702 0)
(-0.00419244 -0.010232 0)
(-0.00275295 -0.0128077 0)
(-0.00816917 -0.000844066 0)
(-0.00818796 -0.00197373 0)
(-0.00904919 -0.00233302 0)
(-0.00879927 -0.00448779 0)
(-0.0096187 -0.00461138 0)
(-0.00871748 -0.00873302 0)
(-0.00728602 -0.00886429 0)
(-0.00491682 -0.0145514 0)
(-0.00855917 -0.000888467 0)
(-0.00814361 -0.00207082 0)
(-0.00951529 -0.00277652 0)
(-0.00873937 -0.00542652 0)
(-0.0106857 -0.00649116 0)
(-0.00998337 -0.0126533 0)
(-0.0100997 -0.0145065 0)
(-0.00892375 -0.0261543 0)
(-0.00993156 -0.000209436 0)
(-0.0100426 -0.0012273 0)
(-0.0123571 -0.000947931 0)
(-0.0124903 -0.0035006 0)
(-0.016676 -0.00210366 0)
(-0.0162209 -0.00922316 0)
(-0.0192187 -0.00811262 0)
(-0.0118834 -0.0324607 0)
(-0.00737419 0.00034864 0)
(-0.0060338 -0.000200663 0)
(-0.00858019 -2.61955e-05 0)
(-0.00512437 -0.00215962 0)
(-0.0105213 -0.0024783 0)
(-0.00293183 -0.0120348 0)
(-0.0115963 -0.019242 0)
(0.00318414 -0.0603461 0)
(0.0812193 -0.000339725 0)
(0.0835646 -0.00043397 0)
(0.0790765 -0.00108204 0)
(0.0842044 -0.00204863 0)
(0.0725486 -0.00291168 0)
(0.0809754 -0.00817642 0)
(0.0492039 -0.011443 0)
(0.0526234 -0.0377001 0)
(-1.10696e-05 -6.61674e-06 0)
(-3.21976e-05 -7.77545e-06 0)
(-4.75758e-05 -9.32655e-06 0)
(-5.47082e-05 -1.15271e-05 0)
(-5.33626e-05 -1.27251e-05 0)
(-4.40344e-05 -1.39333e-05 0)
(-2.84631e-05 -1.46069e-05 0)
(-9.53087e-06 -1.43877e-05 0)
(-1.26764e-05 5.08036e-05 0)
(-3.63854e-05 4.55433e-05 0)
(-5.36562e-05 3.23808e-05 0)
(-6.07838e-05 1.77835e-05 0)
(-5.83791e-05 2.26617e-06 0)
(-4.80824e-05 -1.03779e-05 0)
(-3.09351e-05 -1.96739e-05 0)
(-1.03949e-05 -2.29349e-05 0)
(-1.92002e-05 3.94307e-05 0)
(-5.45707e-05 3.086e-05 0)
(-7.77331e-05 1.30499e-05 0)
(-8.75381e-05 -7.65758e-06 0)
(-8.41701e-05 -2.67403e-05 0)
(-6.8182e-05 -4.29985e-05 0)
(-4.37123e-05 -5.44303e-05 0)
(-1.45252e-05 -5.74043e-05 0)
(-2.34301e-05 0.00013008 0)
(-6.5005e-05 0.000109484 0)
(-9.22554e-05 6.84925e-05 0)
(-0.000100625 2.61645e-05 0)
(-9.37719e-05 -1.53315e-05 0)
(-7.586e-05 -4.7783e-05 0)
(-4.81506e-05 -7.07855e-05 0)
(-1.61154e-05 -7.79146e-05 0)
(-4.5987e-05 0.000119412 0)
(-0.000122446 9.27311e-05 0)
(-0.000161147 4.33122e-05 0)
(-0.000171353 -8.19382e-06 0)
(-0.000158103 -5.49929e-05 0)
(-0.000123687 -9.28843e-05 0)
(-7.78275e-05 -0.000119285 0)
(-2.55786e-05 -0.000126028 0)
(-5.62303e-05 0.000312115 0)
(-0.000147342 0.000236455 0)
(-0.000193311 0.000123503 0)
(-0.000198959 2.65571e-05 0)
(-0.000178496 -5.92809e-05 0)
(-0.000140281 -0.000121623 0)
(-8.75595e-05 -0.00016376 0)
(-2.90099e-05 -0.000174971 0)
(-0.000137025 0.00030424 0)
(-0.000326453 0.000215164 0)
(-0.000371234 8.46139e-05 0)
(-0.00035406 -2.44567e-05 0)
(-0.000306215 -0.00012086 0)
(-0.000228255 -0.000191425 0)
(-0.000139931 -0.000239496 0)
(-4.54215e-05 -0.000249925 0)
(-0.000176638 0.00080805 0)
(-0.000383087 0.000493603 0)
(-0.000433523 0.000157728 0)
(-0.000404559 -3.12921e-05 0)
(-0.00034558 -0.000179565 0)
(-0.0002592 -0.000276048 0)
(-0.000158597 -0.000338795 0)
(-5.17387e-05 -0.000350518 0)
)
;

boundaryField
{
    movingWall
    {
        type            fixedValue;
        value           uniform (1 0 0);
    }
    fixedWalls
    {
        type            noSlip;
    }
    frontAndBack
    {
        type            empty;
    }
}


// ************************************************************************* //
