/*--------------------------------*- C++ -*----------------------------------*\
  =========                 |
  \\      /  F ield         | OpenFOAM: The Open Source CFD Toolbox
   \\    /   O peration     | Website:  https://openfoam.org
    \\  /    A nd           | Version:  8
     \\/     M anipulation  |
\*---------------------------------------------------------------------------*/
FoamFile
{
    version     2.0;
    format      ascii;
    class       volVectorField;
    location    "1.65";
    object      U;
}
// * * * * * * * * * * * * * * * * * * * * * * * * * * * * * * * * * * * * * //

dimensions      [0 1 -1 0 0 0 0];

internalField   nonuniform List<vector> 
400
(
(0.0249922 1.98489e-17 0)
(0.0249922 5.90608e-18 0)
(0.0249922 1.18266e-17 0)
(0.0249922 1.24168e-17 0)
(0.0249922 1.01011e-17 0)
(0.0249922 5.06437e-18 0)
(0.0249922 4.50849e-18 0)
(0.0249922 3.71029e-19 0)
(0.0249922 -3.37118e-18 0)
(0.0249922 -4.03365e-18 0)
(0.0249922 -3.12906e-18 0)
(0.0249922 -6.75819e-18 0)
(0.0249922 -6.19401e-18 0)
(0.0249922 -1.04699e-17 0)
(0.0249922 -1.2219e-17 0)
(0.0249922 -5.49518e-18 0)
(0.0249922 -3.17907e-19 0)
(0.0249922 3.62592e-18 0)
(0.0249922 6.35494e-18 0)
(0.0249922 1.08588e-17 0)
(0.0749768 8.9088e-17 0)
(0.0749768 6.09857e-17 0)
(0.0749768 5.64815e-17 0)
(0.0749768 4.4268e-17 0)
(0.0749768 2.57255e-17 0)
(0.0749768 7.13979e-18 0)
(0.0749768 -1.19266e-18 0)
(0.0749768 -1.34359e-17 0)
(0.0749768 -3.19877e-17 0)
(0.0749768 -3.20767e-17 0)
(0.0749768 -3.80764e-17 0)
(0.0749768 -3.82164e-17 0)
(0.0749768 -4.24197e-17 0)
(0.0749768 -4.07889e-17 0)
(0.0749768 -3.42599e-17 0)
(0.0749768 -2.04371e-17 0)
(0.0749768 9.31428e-18 0)
(0.0749768 2.31451e-17 0)
(0.0749768 4.77458e-17 0)
(0.0749768 6.1923e-17 0)
(0.124962 1.64393e-16 0)
(0.124962 1.53675e-16 0)
(0.124962 1.36006e-16 0)
(0.124962 9.14553e-17 0)
(0.124962 4.19264e-17 0)
(0.124962 -1.46839e-17 0)
(0.124962 -4.05182e-17 0)
(0.124962 -7.61657e-17 0)
(0.124962 -9.93489e-17 0)
(0.124962 -1.20126e-16 0)
(0.124962 -1.04891e-16 0)
(0.124962 -1.13845e-16 0)
(0.124962 -1.07751e-16 0)
(0.124962 -9.03629e-17 0)
(0.124962 -5.21191e-17 0)
(0.124962 -1.51484e-17 0)
(0.124962 4.20022e-17 0)
(0.124962 8.90216e-17 0)
(0.124962 1.28007e-16 0)
(0.124962 1.53913e-16 0)
(0.174948 2.88247e-16 0)
(0.174948 2.69805e-16 0)
(0.174948 2.08549e-16 0)
(0.174948 1.37997e-16 0)
(0.174948 4.26193e-17 0)
(0.174948 -3.86199e-17 0)
(0.174948 -1.18955e-16 0)
(0.174948 -1.77362e-16 0)
(0.174948 -2.17125e-16 0)
(0.174948 -2.42756e-16 0)
(0.174948 -2.44463e-16 0)
(0.174948 -2.28818e-16 0)
(0.174948 -2.00152e-16 0)
(0.174948 -1.43902e-16 0)
(0.174948 -5.96142e-17 0)
(0.174948 2.8214e-17 0)
(0.174948 1.28265e-16 0)
(0.174948 2.15006e-16 0)
(0.174948 2.71294e-16 0)
(0.174948 2.8658e-16 0)
(0.224935 4.19265e-16 0)
(0.224935 3.64946e-16 0)
(0.224935 2.79537e-16 0)
(0.224935 1.36268e-16 0)
(0.224935 3.62081e-18 0)
(0.224935 -1.00225e-16 0)
(0.224935 -2.1529e-16 0)
(0.224935 -3.12535e-16 0)
(0.224935 -3.64874e-16 0)
(0.224935 -3.98908e-16 0)
(0.224935 -4.01237e-16 0)
(0.224935 -3.70908e-16 0)
(0.224935 -2.7545e-16 0)
(0.224935 -1.60132e-16 0)
(0.224935 -2.60356e-17 0)
(0.224935 1.10763e-16 0)
(0.224935 2.53511e-16 0)
(0.224935 3.68893e-16 0)
(0.224935 4.3529e-16 0)
(0.224935 4.56777e-16 0)
(0.274924 5.3842e-16 0)
(0.274924 4.3957e-16 0)
(0.274924 2.9563e-16 0)
(0.274924 1.18849e-16 0)
(0.274924 -5.57372e-17 0)
(0.274924 -2.05341e-16 0)
(0.274924 -3.42071e-16 0)
(0.274924 -4.35155e-16 0)
(0.274924 -5.07357e-16 0)
(0.274924 -5.36781e-16 0)
(0.274924 -5.2394e-16 0)
(0.274924 -4.80693e-16 0)
(0.274924 -3.30679e-16 0)
(0.274924 -1.44961e-16 0)
(0.274924 5.26769e-17 0)
(0.274924 2.23379e-16 0)
(0.274924 3.99199e-16 0)
(0.274924 5.11163e-16 0)
(0.274924 5.94928e-16 0)
(0.274924 5.91877e-16 0)
(0.324915 5.92929e-16 0)
(0.324915 4.7152e-16 0)
(0.324915 2.70433e-16 0)
(0.324915 6.67172e-17 0)
(0.324915 -1.03972e-16 0)
(0.324915 -3.18669e-16 0)
(0.324915 -4.58391e-16 0)
(0.324915 -5.36199e-16 0)
(0.324915 -6.11936e-16 0)
(0.324915 -6.32142e-16 0)
(0.324915 -6.27489e-16 0)
(0.324915 -5.12964e-16 0)
(0.324915 -3.69723e-16 0)
(0.324915 -1.1298e-16 0)
(0.324915 1.36725e-16 0)
(0.324915 3.43707e-16 0)
(0.324915 5.2426e-16 0)
(0.324915 6.61102e-16 0)
(0.324915 6.9383e-16 0)
(0.324915 6.59815e-16 0)
(0.374908 5.89398e-16 0)
(0.374908 4.42002e-16 0)
(0.374908 2.43969e-16 0)
(0.374908 7.87633e-18 0)
(0.374908 -1.9669e-16 0)
(0.374908 -3.72983e-16 0)
(0.374908 -5.03998e-16 0)
(0.374908 -6.07182e-16 0)
(0.374908 -6.67896e-16 0)
(0.374908 -7.0728e-16 0)
(0.374908 -6.79153e-16 0)
(0.374908 -5.28196e-16 0)
(0.374908 -3.32139e-16 0)
(0.374908 -5.82171e-17 0)
(0.374908 2.15598e-16 0)
(0.374908 4.38884e-16 0)
(0.374908 5.85882e-16 0)
(0.374908 7.37933e-16 0)
(0.374908 7.33909e-16 0)
(0.374908 7.01085e-16 0)
(0.424903 6.11506e-16 0)
(0.424903 4.13316e-16 0)
(0.424903 1.80444e-16 0)
(0.424903 -3.59248e-17 0)
(0.424903 -2.8557e-16 0)
(0.424903 -3.90687e-16 0)
(0.424903 -4.98534e-16 0)
(0.424903 -5.96286e-16 0)
(0.424903 -6.70691e-16 0)
(0.424903 -6.97807e-16 0)
(0.424903 -6.38737e-16 0)
(0.424903 -4.86854e-16 0)
(0.424903 -2.72538e-16 0)
(0.424903 -3.09145e-17 0)
(0.424903 2.34973e-16 0)
(0.424903 4.66971e-16 0)
(0.424903 6.034e-16 0)
(0.424903 6.88613e-16 0)
(0.424903 7.445e-16 0)
(0.424903 7.18391e-16 0)
(0.474901 5.744e-16 0)
(0.474901 3.79259e-16 0)
(0.474901 1.4619e-16 0)
(0.474901 -9.60467e-17 0)
(0.474901 -2.90015e-16 0)
(0.474901 -4.06769e-16 0)
(0.474901 -4.7266e-16 0)
(0.474901 -5.45517e-16 0)
(0.474901 -6.04689e-16 0)
(0.474901 -5.97011e-16 0)
(0.474901 -5.14174e-16 0)
(0.474901 -3.87631e-16 0)
(0.474901 -2.08669e-16 0)
(0.474901 -3.97422e-17 0)
(0.474901 2.11338e-16 0)
(0.474901 4.32746e-16 0)
(0.474901 5.53936e-16 0)
(0.474901 6.19399e-16 0)
(0.474901 6.42746e-16 0)
(0.474901 6.49947e-16 0)
(0.524901 4.2377e-16 0)
(0.524901 2.91236e-16 0)
(0.524901 9.78851e-17 0)
(0.524901 -9.74946e-17 0)
(0.524901 -2.10966e-16 0)
(0.524901 -3.12178e-16 0)
(0.524901 -4.03642e-16 0)
(0.524901 -4.90267e-16 0)
(0.524901 -5.20539e-16 0)
(0.524901 -4.90093e-16 0)
(0.524901 -4.13517e-16 0)
(0.524901 -2.60624e-16 0)
(0.524901 -1.48229e-16 0)
(0.524901 -1.55391e-17 0)
(0.524901 1.60732e-16 0)
(0.524901 3.253e-16 0)
(0.524901 4.76572e-16 0)
(0.524901 5.15672e-16 0)
(0.524901 5.1975e-16 0)
(0.524901 4.98311e-16 0)
(0.574903 2.22946e-16 0)
(0.574903 1.17439e-16 0)
(0.574903 3.52933e-17 0)
(0.574903 -4.96214e-17 0)
(0.574903 -1.1601e-16 0)
(0.574903 -2.04961e-16 0)
(0.574903 -2.91385e-16 0)
(0.574903 -3.73436e-16 0)
(0.574903 -4.04959e-16 0)
(0.574903 -4.02144e-16 0)
(0.574903 -3.05463e-16 0)
(0.574903 -1.30947e-16 0)
(0.574903 -4.09885e-17 0)
(0.574903 5.18868e-17 0)
(0.574903 1.33742e-16 0)
(0.574903 2.17722e-16 0)
(0.574903 3.49479e-16 0)
(0.574903 3.83102e-16 0)
(0.574903 3.78791e-16 0)
(0.574903 3.17047e-16 0)
(0.624908 3.47301e-17 0)
(0.624908 8.60741e-18 0)
(0.624908 -2.34524e-17 0)
(0.624908 -4.4632e-17 0)
(0.624908 -1.03396e-16 0)
(0.624908 -1.6119e-16 0)
(0.624908 -2.11133e-16 0)
(0.624908 -2.40505e-16 0)
(0.624908 -2.45257e-16 0)
(0.624908 -2.3161e-16 0)
(0.624908 -1.25662e-16 0)
(0.624908 -2.94577e-17 0)
(0.624908 1.12971e-16 0)
(0.624908 1.78877e-16 0)
(0.624908 1.97895e-16 0)
(0.624908 2.01634e-16 0)
(0.624908 1.84634e-16 0)
(0.624908 1.73929e-16 0)
(0.624908 1.48767e-16 0)
(0.624908 9.78718e-17 0)
(0.674915 -1.05124e-16 0)
(0.674915 -6.19141e-17 0)
(0.674915 -9.39619e-17 0)
(0.674915 -8.44618e-17 0)
(0.674915 -1.0974e-16 0)
(0.674915 -9.3679e-17 0)
(0.674915 -1.44266e-16 0)
(0.674915 -1.56774e-16 0)
(0.674915 -1.02986e-16 0)
(0.674915 -4.36848e-17 0)
(0.674915 4.81771e-17 0)
(0.674915 1.18893e-16 0)
(0.674915 1.81451e-16 0)
(0.674915 2.41657e-16 0)
(0.674915 2.35099e-16 0)
(0.674915 1.92092e-16 0)
(0.674915 9.24743e-17 0)
(0.674915 3.38388e-17 0)
(0.674915 -2.54422e-17 0)
(0.674915 -1.29303e-16 0)
(0.724924 -2.16035e-16 0)
(0.724924 -1.45275e-16 0)
(0.724924 -1.09971e-16 0)
(0.724924 -7.36941e-17 0)
(0.724924 -5.69453e-17 0)
(0.724924 -9.64259e-17 0)
(0.724924 -1.6033e-16 0)
(0.724924 -1.23767e-16 0)
(0.724924 -4.22011e-17 0)
(0.724924 5.98665e-17 0)
(0.724924 1.47432e-16 0)
(0.724924 2.29047e-16 0)
(0.724924 2.88049e-16 0)
(0.724924 2.47061e-16 0)
(0.724924 1.81308e-16 0)
(0.724924 1.07194e-16 0)
(0.724924 4.9257e-17 0)
(0.724924 3.47145e-17 0)
(0.724924 -9.28145e-17 0)
(0.724924 -2.01754e-16 0)
(0.774935 -1.64601e-16 0)
(0.774935 -1.55606e-16 0)
(0.774935 -6.39323e-17 0)
(0.774935 1.01027e-17 0)
(0.774935 -3.42718e-17 0)
(0.774935 -1.61662e-16 0)
(0.774935 -2.1677e-16 0)
(0.774935 -1.64012e-16 0)
(0.774935 -8.19328e-18 0)
(0.774935 1.05689e-16 0)
(0.774935 1.565e-16 0)
(0.774935 2.73099e-16 0)
(0.774935 3.10938e-16 0)
(0.774935 2.67387e-16 0)
(0.774935 1.38778e-16 0)
(0.774935 4.02007e-17 0)
(0.774935 1.46494e-17 0)
(0.774935 -5.92194e-17 0)
(0.774935 -8.21544e-17 0)
(0.774935 -8.01617e-17 0)
(0.824948 -1.51157e-17 0)
(0.824948 -5.41036e-17 0)
(0.824948 9.14597e-18 0)
(0.824948 3.69328e-17 0)
(0.824948 -1.67481e-17 0)
(0.824948 -1.17487e-16 0)
(0.824948 -1.9549e-16 0)
(0.824948 -1.28592e-16 0)
(0.824948 -1.41218e-17 0)
(0.824948 6.17418e-17 0)
(0.824948 1.28834e-16 0)
(0.824948 1.92239e-16 0)
(0.824948 2.44804e-16 0)
(0.824948 2.44713e-16 0)
(0.824948 1.23271e-16 0)
(0.824948 2.56523e-17 0)
(0.824948 -7.13222e-17 0)
(0.824948 -1.75563e-16 0)
(0.824948 -9.51139e-17 0)
(0.824948 -2.33609e-17 0)
(0.874962 5.35844e-17 0)
(0.874962 6.44334e-17 0)
(0.874962 3.99599e-17 0)
(0.874962 5.49898e-17 0)
(0.874962 2.01479e-17 0)
(0.874962 -9.40321e-17 0)
(0.874962 -1.21126e-16 0)
(0.874962 -1.329e-16 0)
(0.874962 -5.81224e-17 0)
(0.874962 4.31258e-17 0)
(0.874962 9.06305e-17 0)
(0.874962 9.57987e-17 0)
(0.874962 1.78825e-16 0)
(0.874962 1.90145e-16 0)
(0.874962 4.90278e-17 0)
(0.874962 -7.31579e-17 0)
(0.874962 -1.55823e-16 0)
(0.874962 -1.27226e-16 0)
(0.874962 -9.22628e-17 0)
(0.874962 -1.28934e-17 0)
(0.924977 6.06286e-17 0)
(0.924977 5.55099e-17 0)
(0.924977 7.52238e-17 0)
(0.924977 1.03781e-16 0)
(0.924977 3.36053e-17 0)
(0.924977 -5.56157e-17 0)
(0.924977 -1.5218e-16 0)
(0.924977 -1.29568e-16 0)
(0.924977 -7.72162e-17 0)
(0.924977 5.46751e-17 0)
(0.924977 1.09326e-16 0)
(0.924977 4.51679e-17 0)
(0.924977 5.70762e-17 0)
(0.924977 7.46758e-17 0)
(0.924977 -1.7609e-17 0)
(0.924977 -1.1799e-16 0)
(0.924977 -1.03639e-16 0)
(0.924977 -4.72868e-17 0)
(0.924977 -1.38728e-17 0)
(0.924977 4.61896e-17 0)
(0.974992 3.47068e-17 0)
(0.974992 1.91481e-17 0)
(0.974992 5.82883e-17 0)
(0.974992 7.28273e-17 0)
(0.974992 2.8397e-17 0)
(0.974992 -7.94104e-18 0)
(0.974992 -1.00879e-16 0)
(0.974992 -4.31807e-17 0)
(0.974992 -4.16645e-17 0)
(0.974992 2.27137e-17 0)
(0.974992 6.79699e-17 0)
(0.974992 -2.05796e-18 0)
(0.974992 -9.85276e-19 0)
(0.974992 -1.08086e-18 0)
(0.974992 -1.62304e-17 0)
(0.974992 -4.0825e-17 0)
(0.974992 -2.03134e-17 0)
(0.974992 -2.5333e-17 0)
(0.974992 -2.19938e-19 0)
(0.974992 3.25392e-17 0)
)
;

boundaryField
{
    movingWall
    {
        type            fixedValue;
        value           uniform (1 0 0);
    }
    fixedWalls
    {
        type            noSlip;
    }
    left
    {
        type            cyclic;
    }
    right
    {
        type            cyclic;
    }
    frontAndBack
    {
        type            empty;
    }
}


// ************************************************************************* //
