/*--------------------------------*- C++ -*----------------------------------*\
  =========                 |
  \\      /  F ield         | OpenFOAM: The Open Source CFD Toolbox
   \\    /   O peration     | Website:  https://openfoam.org
    \\  /    A nd           | Version:  8
     \\/     M anipulation  |
\*---------------------------------------------------------------------------*/
FoamFile
{
    version     2.0;
    format      ascii;
    class       volVectorField;
    location    "38.5";
    object      U;
}
// * * * * * * * * * * * * * * * * * * * * * * * * * * * * * * * * * * * * * //

dimensions      [0 1 -1 0 0 0 0];

internalField   nonuniform List<vector> 
464
(
(-0.0001508 0.000149416 0)
(-0.000478285 0.000158918 0)
(-0.000812084 0.000152608 0)
(-0.00112073 0.000142812 0)
(-0.0014082 0.000129871 0)
(-0.00166713 0.000113781 0)
(-0.00188561 9.48026e-05 0)
(-0.00208305 7.18075e-05 0)
(-0.00219229 4.61069e-05 0)
(-0.00234969 1.23205e-05 0)
(-0.00229014 -1.89125e-05 0)
(-0.00249244 3.89364e-06 0)
(-0.000166787 0.00047971 0)
(-0.000527916 0.000509195 0)
(-0.000895438 0.000489045 0)
(-0.00123538 0.000457996 0)
(-0.001552 0.000417582 0)
(-0.00183716 0.00036865 0)
(-0.00207944 0.00031412 0)
(-0.00229786 0.000251682 0)
(-0.00242653 0.000199954 0)
(-0.00260294 0.000120011 0)
(-0.00256729 0.000119643 0)
(-0.00279245 -3.96378e-06 0)
(-0.000173807 0.000837427 0)
(-0.000550169 0.000887905 0)
(-0.000933109 0.000852503 0)
(-0.00128679 0.000797851 0)
(-0.00161561 0.000726593 0)
(-0.00190936 0.00063999 0)
(-0.00215865 0.000541592 0)
(-0.00236776 0.000428644 0)
(-0.0025032 0.000321121 0)
(-0.0026194 0.000179833 0)
(-0.00260402 0.000118892 0)
(-0.00260892 -5.75024e-05 0)
(-0.000184186 0.00120521 0)
(-0.000583038 0.00127762 0)
(-0.000989061 0.00122648 0)
(-0.00136407 0.00114741 0)
(-0.00171328 0.00104421 0)
(-0.00202611 0.000918633 0)
(-0.0022952 0.000774701 0)
(-0.00252302 0.000613119 0)
(-0.00268027 0.000446008 0)
(-0.0028102 0.00025289 0)
(-0.00280903 9.06532e-05 0)
(-0.00280587 -0.000149231 0)
(-0.000198427 0.00160173 0)
(-0.000628061 0.00169762 0)
(-0.00106554 0.00162945 0)
(-0.00146914 0.00152393 0)
(-0.00184446 0.00138661 0)
(-0.00217893 0.00121953 0)
(-0.00246423 0.00102732 0)
(-0.00269648 0.000810126 0)
(-0.0028635 0.000578303 0)
(-0.00297479 0.000317246 0)
(-0.00300621 7.60633e-05 0)
(-0.00298275 -0.000227074 0)
(-0.000217159 0.00202741 0)
(-0.000686942 0.00214936 0)
(-0.00116559 0.00206339 0)
(-0.00160694 0.00192974 0)
(-0.00201769 0.00175596 0)
(-0.00238542 0.00154443 0)
(-0.00270466 0.00130156 0)
(-0.0029721 0.00103032 0)
(-0.00317333 0.000738448 0)
(-0.00331248 0.000421798 0)
(-0.00335345 9.65289e-05 0)
(-0.00332189 -0.000266296 0)
(-0.000239941 0.00250831 0)
(-0.000758963 0.00265693 0)
(-0.00128867 0.00254908 0)
(-0.0017766 0.00238081 0)
(-0.00222975 0.00216558 0)
(-0.0026333 0.00190326 0)
(-0.00297827 0.0016016 0)
(-0.00325943 0.00126068 0)
(-0.00347185 0.000887811 0)
(-0.00361652 0.000481997 0)
(-0.00369433 5.72974e-05 0)
(-0.00369797 -0.000397788 0)
(-0.000270806 0.00300866 0)
(-0.000852562 0.00319133 0)
(-0.00144598 0.00306439 0)
(-0.00199051 0.00286582 0)
(-0.00249524 0.00261113 0)
(-0.00294945 0.00229964 0)
(-0.00334736 0.00194612 0)
(-0.00368613 0.00155391 0)
(-0.00395237 0.00113071 0)
(-0.00414322 0.000676432 0)
(-0.00423337 0.000196856 0)
(-0.0042275 -0.000319018 0)
(-0.000301384 0.00364888 0)
(-0.0009521 0.00385911 0)
(-0.00161907 0.00370086 0)
(-0.00222991 0.00344373 0)
(-0.00279586 0.0031319 0)
(-0.00329826 0.00274685 0)
(-0.00372375 0.00231353 0)
(-0.00407443 0.00182597 0)
(-0.00434878 0.00129672 0)
(-0.00454991 0.000724368 0)
(-0.00468951 0.000114883 0)
(-0.00474228 -0.00053724 0)
(-0.000356784 0.00422912 0)
(-0.00110228 0.00449273 0)
(-0.0018672 0.00430987 0)
(-0.00255967 0.00402875 0)
(-0.00319198 0.00367407 0)
(-0.00376806 0.00324266 0)
(-0.00426859 0.00276581 0)
(-0.00470373 0.00223599 0)
(-0.00505495 0.00167052 0)
(-0.00532587 0.00106664 0)
(-0.00549539 0.000436846 0)
(-0.00554514 -0.000263215 0)
(-0.000382958 0.0051349 0)
(-0.00122246 0.00539692 0)
(-0.00208872 0.00518261 0)
(-0.00286587 0.00476344 0)
(-0.00358153 0.00434237 0)
(-0.00420652 0.00377177 0)
(-0.0047296 0.00319191 0)
(-0.00516867 0.00253187 0)
(-0.00551663 0.00183857 0)
(-0.00578233 0.00108976 0)
(-0.00601809 0.000298626 0)
(-0.00610585 -0.000594199 0)
(-0.000519555 0.00580188 0)
(-0.00148559 0.00625841 0)
(-0.00250877 0.00592195 0)
(-0.0034011 0.00560008 0)
(-0.00418304 0.00506553 0)
(-0.00491972 0.00447748 0)
(-0.00550913 0.00383114 0)
(-0.00605922 0.00312583 0)
(-0.00649936 0.00240147 0)
(-0.00686827 0.00162778 0)
(-0.00718054 0.000890804 0)
(-0.0072972 -4.41467e-05 0)
(-0.00039883 0.0070969 0)
(-0.00158219 0.00723096 0)
(-0.00274996 0.00706348 0)
(-0.00372269 0.00624884 0)
(-0.00470207 0.0057772 0)
(-0.00544131 0.00491918 0)
(-0.00607881 0.00422266 0)
(-0.00659635 0.00336094 0)
(-0.0070113 0.00253373 0)
(-0.00729047 0.00161004 0)
(-0.00768591 0.000709761 0)
(-0.0077182 -0.000451412 0)
(-0.00100838 0.00790541 0)
(-0.00213982 0.00893281 0)
(-0.00350451 0.00811953 0)
(-0.00469236 0.00790935 0)
(-0.0055099 0.00687917 0)
(-0.00647875 0.00612667 0)
(-0.0070675 0.00515881 0)
(-0.00775324 0.00421779 0)
(-0.00825407 0.00332034 0)
(-0.00869852 0.00234547 0)
(-0.00924483 0.00159407 0)
(-0.00942003 0.000386997 0)
(1.89282e-05 0.0100163 0)
(-0.00200186 0.00928543 0)
(-0.00375835 0.00945612 0)
(-0.0049656 0.00779333 0)
(-0.00648044 0.00739627 0)
(-0.00716283 0.00610194 0)
(-0.00798276 0.00533117 0)
(-0.00843208 0.00424719 0)
(-0.0088773 0.00336168 0)
(-0.00901311 0.00229735 0)
(-0.00963604 0.00144537 0)
(-0.009372 9.23702e-05 0)
(-0.00276239 0.0101846 0)
(-0.00361261 0.0133739 0)
(-0.00500435 0.011232 0)
(-0.00676606 0.0113552 0)
(-0.00718626 0.0092063 0)
(-0.00855749 0.00819394 0)
(-0.00892027 0.00661109 0)
(-0.00973292 0.00538853 0)
(-0.010208 0.00426888 0)
(-0.0106266 0.00310864 0)
(-0.0114555 0.00242932 0)
(-0.0115796 0.00106266 0)
(0.00178804 0.0160228 0)
(-0.00199032 0.0106906 0)
(-0.0058815 0.0123201 0)
(-0.00703707 0.00914906 0)
(-0.00965462 0.00890492 0)
(-0.00975267 0.00720951 0)
(-0.0107797 0.00627791 0)
(-0.0107667 0.00505939 0)
(-0.0111476 0.00414797 0)
(-0.010848 0.00306635 0)
(-0.0116732 0.00247465 0)
(-0.0107172 0.0011292 0)
(-0.00174276 0.0107587 0)
(-0.00574808 0.0221763 0)
(-0.00422073 0.0164913 0)
(-0.00961715 0.0163983 0)
(-0.00880217 0.0120818 0)
(-0.0111452 0.0102536 0)
(-0.0110759 0.00780481 0)
(-0.0118967 0.00619551 0)
(-0.0122128 0.00483656 0)
(-0.012297 0.0035988 0)
(-0.0133607 0.00297283 0)
(-0.0129648 0.00173405 0)
(-0.029529 0.0239103 0)
(-0.0168375 0.011733 0)
(-0.0288801 0.015688 0)
(-0.0203824 0.0124166 0)
(-0.0220581 0.00994499 0)
(-0.0172383 0.00860103 0)
(-0.0160508 0.00672021 0)
(-0.013511 0.00554682 0)
(-0.0122479 0.00448403 0)
(-0.0102657 0.00354743 0)
(-0.0103246 0.00333818 0)
(-0.00742598 0.0024125 0)
(0.0339048 0.0550514 0)
(0.0469533 0.0240762 0)
(0.0673492 0.0196319 0)
(0.0823235 0.0116711 0)
(0.0918214 0.0087762 0)
(0.100071 0.00548819 0)
(0.105885 0.00411107 0)
(0.111073 0.00285976 0)
(0.113408 0.00208488 0)
(0.118567 0.00155657 0)
(0.117004 0.000839559 0)
(0.124451 0.00066346 0)
(-0.00223428 0.00125341 0)
(-0.00155773 0.000686839 0)
(-0.00136061 0.000139833 0)
(-0.00105385 -0.00017057 0)
(-0.000846209 -0.000427247 0)
(-0.000595244 -0.000595131 0)
(-0.000354999 -0.000706771 0)
(-0.000109989 -0.000702448 0)
(-0.00245149 0.000259601 0)
(-0.00173943 -4.8687e-05 0)
(-0.00152404 -0.000265134 0)
(-0.00118675 -0.000525015 0)
(-0.000955339 -0.000721375 0)
(-0.000677586 -0.000885777 0)
(-0.000404285 -0.000990821 0)
(-0.000126061 -0.000968354 0)
(-0.00241709 0.000113412 0)
(-0.00208334 -0.000222951 0)
(-0.0018367 -0.000452803 0)
(-0.00150982 -0.000745777 0)
(-0.00120683 -0.000971044 0)
(-0.000866621 -0.00116221 0)
(-0.000514232 -0.0012852 0)
(-0.00016211 -0.00125075 0)
(-0.00262043 -0.000282426 0)
(-0.00230447 -0.000584704 0)
(-0.00204714 -0.000830608 0)
(-0.00170482 -0.00111256 0)
(-0.00137217 -0.00134423 0)
(-0.000994718 -0.00154388 0)
(-0.000592274 -0.00167495 0)
(-0.000188149 -0.00161826 0)
(-0.00285236 -0.000439847 0)
(-0.00263129 -0.000799914 0)
(-0.00236477 -0.00110648 0)
(-0.00202323 -0.00144463 0)
(-0.00163818 -0.00172758 0)
(-0.00120097 -0.00197267 0)
(-0.000717082 -0.002133 0)
(-0.000230196 -0.00206162 0)
(-0.00319332 -0.000618908 0)
(-0.00297082 -0.00101932 0)
(-0.00269207 -0.00139753 0)
(-0.00232596 -0.00178728 0)
(-0.00190053 -0.0021152 0)
(-0.00140511 -0.00241467 0)
(-0.000843225 -0.00260061 0)
(-0.0002739 -0.00251495 0)
(-0.00360536 -0.000848137 0)
(-0.00340958 -0.00134272 0)
(-0.00313245 -0.00181591 0)
(-0.00274068 -0.00230626 0)
(-0.00226539 -0.00271746 0)
(-0.00169245 -0.00310684 0)
(-0.00101831 -0.00334325 0)
(-0.000339343 -0.00324821 0)
(-0.0041386 -0.000847855 0)
(-0.0039391 -0.00143341 0)
(-0.00365593 -0.00196432 0)
(-0.00322837 -0.00258856 0)
(-0.00270153 -0.00303631 0)
(-0.00203958 -0.00358089 0)
(-0.0012356 -0.00383557 0)
(-0.000421821 -0.00377387 0)
(-0.00471887 -0.00120183 0)
(-0.00452556 -0.00193584 0)
(-0.00428586 -0.00261346 0)
(-0.00381258 -0.00341729 0)
(-0.00325603 -0.00401093 0)
(-0.00250176 -0.00474274 0)
(-0.00151371 -0.00509449 0)
(-0.000569936 -0.00505609 0)
(-0.00553789 -0.000927427 0)
(-0.00535334 -0.00181634 0)
(-0.00513739 -0.00245055 0)
(-0.00462997 -0.00354254 0)
(-0.00402655 -0.00407852 0)
(-0.00314042 -0.00520311 0)
(-0.0019328 -0.00551742 0)
(-0.000754308 -0.00567902 0)
(-0.00626833 -0.00144986 0)
(-0.00604841 -0.00255266 0)
(-0.00600425 -0.00343745 0)
(-0.00544233 -0.00482634 0)
(-0.00490671 -0.00565253 0)
(-0.00396028 -0.00716488 0)
(-0.00244138 -0.00770202 0)
(-0.00116637 -0.00802795 0)
(-0.00749717 -0.000722624 0)
(-0.00735013 -0.00206622 0)
(-0.00740847 -0.00264348 0)
(-0.0068609 -0.00457011 0)
(-0.00635688 -0.00506092 0)
(-0.00523513 -0.00750243 0)
(-0.00339274 -0.00783665 0)
(-0.00166536 -0.00898403 0)
(-0.00827884 -0.00140276 0)
(-0.00796975 -0.00301226 0)
(-0.00847939 -0.00401381 0)
(-0.00786971 -0.00639976 0)
(-0.00778783 -0.00746626 0)
(-0.0067935 -0.0107297 0)
(-0.00460367 -0.0116084 0)
(-0.00299754 -0.0136081 0)
(-0.0100603 -6.28028e-05 0)
(-0.00998762 -0.00193805 0)
(-0.0107896 -0.00207965 0)
(-0.0103653 -0.0052409 0)
(-0.01064 -0.00527913 0)
(-0.00953857 -0.0104905 0)
(-0.00720224 -0.0107431 0)
(-0.00478947 -0.0160894 0)
(-0.0105784 -0.000690938 0)
(-0.00998044 -0.00286105 0)
(-0.0116968 -0.00360958 0)
(-0.0110865 -0.00741302 0)
(-0.0127972 -0.00842264 0)
(-0.0124864 -0.0152589 0)
(-0.0109652 -0.0167721 0)
(-0.00983179 -0.0266045 0)
(-0.013029 0.00107143 0)
(-0.0129719 -0.00106279 0)
(-0.0153698 -5.38044e-05 0)
(-0.0153187 -0.00427511 0)
(-0.0183691 -0.00254212 0)
(-0.0183867 -0.0122035 0)
(-0.0186755 -0.011669 0)
(-0.0163818 -0.0360019 0)
(-0.0126781 0.00104508 0)
(-0.0110408 -0.00134311 0)
(-0.014739 -0.000825303 0)
(-0.0133702 -0.00575376 0)
(-0.0197282 -0.00503479 0)
(-0.0210316 -0.01696 0)
(-0.0272168 -0.0188686 0)
(-0.0211962 -0.0640728 0)
(-0.0154623 0.00224086 0)
(-0.0148112 0.000445078 0)
(-0.0198799 0.0033615 0)
(-0.0192901 0.000163441 0)
(-0.0286525 0.00682125 0)
(-0.0244406 -0.00522241 0)
(-0.0355846 -0.00845669 0)
(-0.0015529 -0.0827325 0)
(-0.00960747 0.00333584 0)
(-0.00397546 0.00198186 0)
(-0.0094084 0.00436623 0)
(0.00248754 0.00123775 0)
(-0.008189 0.00140111 0)
(0.01655 -0.0135825 0)
(-0.00553227 -0.0412811 0)
(0.0326133 -0.107203 0)
(0.117826 -0.00032393 0)
(0.129893 -0.000243209 0)
(0.11665 -0.00204936 0)
(0.135104 -0.00150961 0)
(0.113002 -0.00585714 0)
(0.133242 -0.00753229 0)
(0.0880559 -0.0195513 0)
(0.0756181 -0.0496868 0)
(-1.55978e-05 -1.41342e-05 0)
(-4.6969e-05 -1.60462e-05 0)
(-7.01111e-05 -1.81452e-05 0)
(-8.07063e-05 -2.10137e-05 0)
(-7.87447e-05 -2.26596e-05 0)
(-6.48532e-05 -2.42416e-05 0)
(-4.14915e-05 -2.51137e-05 0)
(-1.34166e-05 -2.39885e-05 0)
(-1.8229e-05 7.77198e-05 0)
(-5.41014e-05 7.23433e-05 0)
(-8.04969e-05 5.23914e-05 0)
(-9.14586e-05 3.04326e-05 0)
(-8.80564e-05 6.92204e-06 0)
(-7.23638e-05 -1.2051e-05 0)
(-4.6108e-05 -2.61247e-05 0)
(-1.49642e-05 -2.9965e-05 0)
(-2.78446e-05 5.42164e-05 0)
(-8.17641e-05 4.34542e-05 0)
(-0.000117702 1.64012e-05 0)
(-0.00013255 -1.43764e-05 0)
(-0.000127439 -4.36868e-05 0)
(-0.000103096 -6.81012e-05 0)
(-6.54758e-05 -8.54936e-05 0)
(-2.10505e-05 -8.72057e-05 0)
(-3.38294e-05 0.000193894 0)
(-9.69516e-05 0.00016952 0)
(-0.000138625 0.000106867 0)
(-0.000151739 4.30866e-05 0)
(-0.000141976 -2.04985e-05 0)
(-0.000114499 -6.9635e-05 0)
(-7.20231e-05 -0.000104861 0)
(-2.32494e-05 -0.000112054 0)
(-6.67677e-05 0.000173974 0)
(-0.000183694 0.000139807 0)
(-0.000244488 6.39604e-05 0)
(-0.000259883 -1.3433e-05 0)
(-0.000240111 -8.59005e-05 0)
(-0.000187645 -0.000143342 0)
(-0.000117097 -0.000183839 0)
(-3.72298e-05 -0.000188207 0)
(-8.21046e-05 0.000460724 0)
(-0.000221467 0.000363069 0)
(-0.000292344 0.000189926 0)
(-0.000301702 4.44199e-05 0)
(-0.000272015 -8.86959e-05 0)
(-0.000212918 -0.000183087 0)
(-0.000131802 -0.000248504 0)
(-4.21043e-05 -0.000257648 0)
(-0.000200229 0.000453927 0)
(-0.000490565 0.000331625 0)
(-0.000563848 0.000130208 0)
(-0.000538219 -3.54376e-05 0)
(-0.000467377 -0.000185134 0)
(-0.000347788 -0.000292873 0)
(-0.000212241 -0.000367183 0)
(-6.64948e-05 -0.000371963 0)
(-0.000268779 0.00119091 0)
(-0.000583488 0.000757069 0)
(-0.000661529 0.000245592 0)
(-0.000617474 -4.1392e-05 0)
(-0.000529883 -0.000272546 0)
(-0.000396024 -0.00042108 0)
(-0.000240679 -0.000519388 0)
(-7.57786e-05 -0.000522509 0)
)
;

boundaryField
{
    movingWall
    {
        type            fixedValue;
        value           uniform (1 0 0);
    }
    fixedWalls
    {
        type            noSlip;
    }
    frontAndBack
    {
        type            empty;
    }
}


// ************************************************************************* //
