/*--------------------------------*- C++ -*----------------------------------*\
  =========                 |
  \\      /  F ield         | OpenFOAM: The Open Source CFD Toolbox
   \\    /   O peration     | Website:  https://openfoam.org
    \\  /    A nd           | Version:  8
     \\/     M anipulation  |
\*---------------------------------------------------------------------------*/
FoamFile
{
    version     2.0;
    format      ascii;
    class       volScalarField;
    location    "0.622";
    object      T;
}
// * * * * * * * * * * * * * * * * * * * * * * * * * * * * * * * * * * * * * //

dimensions      [0 0 0 1 0 0 0];

internalField   nonuniform List<scalar> 
2500
(
49.9999
4.65626
-4.65546
-1.19089
1.18714
0.468845
-0.457951
-0.246539
0.222546
0.163722
-0.119872
-0.129256
0.0599156
0.110987
-0.0147704
-0.0935141
-0.0229124
0.0683903
0.0507946
-0.0332284
-0.0618945
-0.00673857
0.0502637
0.0387058
-0.0180473
-0.0475496
-0.0198527
0.0269501
0.040064
0.0100947
-0.0270939
-0.0341714
-0.00805626
0.0226581
0.0306856
0.0112597
-0.0148199
-0.0272641
-0.0172191
0.00412354
0.0196491
0.0222374
0.00743707
-0.00603626
-0.0185356
-0.0168117
-0.00634783
0.000854444
0.015535
0.010862
95.3439
49.9997
10.5021
-4.65285
-2.8461
1.17808
1.17256
-0.436585
-0.632471
0.182072
0.413541
-0.0543083
-0.30246
-0.0329162
0.223463
0.0998974
-0.144619
-0.143289
0.0563328
0.150665
0.0325143
-0.112563
-0.0977383
0.0357462
0.111303
0.0485255
-0.062758
-0.093166
-0.0203738
0.0662784
0.0774735
0.0116038
-0.0586961
-0.0683791
-0.0168738
0.0444953
0.0620386
0.0308189
-0.0232884
-0.0514278
-0.0441729
-0.00633135
0.031746
0.0415926
0.0360967
-0.00133897
-0.0193602
-0.0346277
-0.0337322
-0.00389742
104.656
89.498
49.9992
12.1571
-4.64747
-3.54991
1.16191
1.55973
-0.402486
-0.885692
0.123156
0.593199
0.0332704
-0.424651
-0.146059
0.286313
0.224752
-0.14312
-0.254356
-0.00481756
0.216563
0.129027
-0.110507
-0.185647
-0.0295261
0.143889
0.135196
-0.0219808
-0.139504
-0.0997239
0.0366451
0.124023
0.0847496
-0.0273448
-0.105426
-0.084451
0.00223209
0.0793146
0.088669
0.0302035
-0.0373244
-0.081613
-0.0578272
-0.0137782
0.04022
0.0672128
0.0423261
0.0278177
-0.0305988
-0.0391334
101.191
104.654
87.8429
49.9984
12.8613
-4.63838
-3.93872
1.13697
1.81737
-0.353699
-1.07403
0.0445252
0.729108
0.141932
-0.505249
-0.274614
0.302764
0.34998
-0.0934092
-0.342935
-0.103752
0.237448
0.23609
-0.0554344
-0.246754
-0.128609
0.122766
0.212045
0.0644242
-0.135088
-0.178333
-0.0425563
0.119893
0.156443
0.0517554
-0.088092
-0.138743
-0.0793151
0.0401776
0.110671
0.103421
0.0249239
-0.0631444
-0.0908426
-0.0857551
-0.00583128
0.0375993
0.073487
0.0791798
0.0137541
98.8121
102.846
104.65
87.1386
49.9974
13.2512
-4.62471
-4.20034
1.10168
2.01461
-0.288598
-1.22543
-0.0543721
0.831796
0.269513
-0.547176
-0.412173
0.274491
0.464871
-0.00156292
-0.397179
-0.226114
0.207349
0.332447
0.0446346
-0.262396
-0.237667
0.0467085
0.251204
0.17293
-0.0715934
-0.222131
-0.146305
0.0541989
0.188983
0.14661
-0.00902008
-0.143423
-0.155636
-0.049387
0.0698468
0.145393
0.0999864
0.0209791
-0.0743049
-0.119176
-0.0733962
-0.0464659
0.0571427
0.0697792
99.5316
98.8197
103.55
104.643
86.7484
49.9962
13.5153
-4.6056
-4.40485
1.05463
2.18073
-0.205916
-1.35179
-0.173329
0.904772
0.412658
-0.550774
-0.551112
0.203606
0.558592
0.123869
-0.407802
-0.355148
0.126389
0.39809
0.174148
-0.221913
-0.329921
-0.0726301
0.232967
0.272349
0.04109
-0.205306
-0.239082
-0.0591105
0.155083
0.21609
0.107301
-0.0809686
-0.178751
-0.153304
-0.021969
0.110329
0.144165
0.125099
-0.00486342
-0.0672778
-0.120011
-0.116796
-0.013261
100.459
98.8272
98.8339
103.94
104.632
86.4839
49.9948
13.7241
-4.58021
-4.58259
0.994519
2.3291
-0.104759
-1.45784
-0.311374
0.948307
0.566923
-0.515741
-0.68299
0.0936847
0.621033
0.271782
-0.369163
-0.472964
0.00115813
0.416715
0.311981
-0.124718
-0.3802
-0.212942
0.151011
0.330561
0.177682
-0.119734
-0.284359
-0.185992
0.0501791
0.225993
0.211222
0.0406884
-0.127286
-0.213678
-0.125401
-0.00541102
0.128653
0.171018
0.0942183
0.0462818
-0.102427
-0.102808
100.246
100.44
98.439
98.8567
104.202
104.616
86.2747
49.9931
13.9085
-4.54775
-4.74808
0.920175
2.46581
0.0153921
-1.54469
-0.466799
0.961245
0.726936
-0.442149
-0.798998
-0.0497856
0.643594
0.428931
-0.280028
-0.562087
-0.155746
0.377968
0.434152
0.0193476
-0.369722
-0.345212
0.0144881
0.322163
0.304128
0.019967
-0.253757
-0.286377
-0.0985052
0.156928
0.254076
0.182626
-0.0162587
-0.178301
-0.198575
-0.143242
0.0438098
0.112495
0.174177
0.137346
-0.00427663
99.7759
100.634
100.407
98.1797
98.8894
104.408
104.593
86.0896
49.9912
14.0837
-4.50745
-4.90865
0.830546
2.59334
0.154678
-1.61164
-0.637173
0.941947
0.886541
-0.331038
-0.890394
-0.219255
0.619898
0.580612
-0.143998
-0.60709
-0.326822
0.279155
0.516876
0.191425
-0.290505
-0.438061
-0.154499
0.237287
0.383183
0.181911
-0.139944
-0.324618
-0.239349
0.0114002
0.214999
0.278083
0.119717
-0.0438107
-0.206469
-0.214245
-0.0952536
-0.016239
0.170338
0.13438
99.8363
99.8145
100.889
100.361
97.9802
98.9338
104.588
104.565
85.9136
49.9891
14.2577
-4.45852
-5.06806
0.724721
2.71217
0.312824
-1.65698
-0.819348
0.888887
1.03897
-0.184812
-0.948981
-0.405177
0.54647
0.711521
0.0304622
-0.596363
-0.491097
0.125917
0.540356
0.365598
-0.147339
-0.464045
-0.324748
0.0865692
0.381458
0.328545
0.0317215
-0.272336
-0.323606
-0.17158
0.102381
0.264155
0.241848
0.123199
-0.119019
-0.172175
-0.227921
-0.126101
0.0448741
100.122
99.5841
99.8717
101.08
100.298
97.8112
98.9911
104.756
104.528
85.7385
49.9868
14.4352
-4.40025
-5.22812
0.60194
2.82166
0.489135
-1.67859
-1.00953
0.80106
1.17714
-0.00744343
-0.967667
-0.596331
0.423291
0.806939
0.230429
-0.523779
-0.626169
-0.0682649
0.492966
0.511331
0.0439734
-0.408923
-0.457714
-0.104732
0.285409
0.420355
0.212173
-0.121051
-0.327173
-0.315878
-0.0635347
0.134816
0.299536
0.229647
0.0627457
-0.054653
-0.254841
-0.153622
100.13
100.058
99.4012
99.9491
101.235
100.217
97.6592
99.0625
104.919
104.483
85.5598
49.9842
14.6187
-4.33191
-5.38956
0.46158
2.92051
0.682531
-1.67422
-1.20336
0.678211
1.29387
0.195536
-0.940962
-0.78031
0.253932
0.854109
0.439162
-0.389286
-0.711421
-0.282485
0.372622
0.599366
0.257645
-0.275542
-0.51429
-0.304975
0.11418
0.415617
0.357158
0.0929734
-0.241999
-0.349802
-0.249579
-0.0426727
0.2306
0.235313
0.260976
0.0623753
-0.11132
99.9382
100.307
99.9706
99.2613
100.047
101.366
100.117
97.5181
99.1494
105.082
104.43
85.3747
49.9814
14.81
-4.25279
-5.55245
0.303139
3.00699
0.891544
-1.64167
-1.39602
0.520961
1.38219
0.417073
-0.865314
-0.944115
0.0455734
0.843347
0.637196
-0.198991
-0.73123
-0.489191
0.18544
0.610444
0.455805
-0.0767196
-0.47363
-0.470912
-0.0940435
0.291344
0.437566
0.289342
-0.0623461
-0.264402
-0.382294
-0.187701
0.0177136
0.170937
0.335196
0.142476
99.8874
100.031
100.433
99.8614
99.1541
100.167
101.477
99.9978
97.3855
99.2525
105.247
104.366
85.1817
49.9784
15.01
-4.16216
-5.71638
0.126272
3.0791
1.11429
-1.57894
-1.58221
0.330968
1.43557
0.648603
-0.739387
-1.07503
-0.190721
0.768472
0.804749
0.0333956
-0.675266
-0.659647
-0.0512204
0.536481
0.595995
0.166153
-0.343906
-0.546236
-0.306968
0.0775826
0.418565
0.396144
0.186606
-0.114377
-0.359752
-0.276161
-0.240386
0.0701764
0.19595
100.016
99.7709
100.145
100.518
99.7321
99.0761
100.306
101.569
99.8587
97.2609
99.3729
105.413
104.292
84.9796
49.9751
15.2195
-4.05933
-5.88066
-0.0692045
3.13469
1.34847
-1.48442
-1.75636
0.111048
1.44827
0.880386
-0.564479
-1.16131
-0.440566
0.627697
0.92388
0.286403
-0.538358
-0.771479
-0.303772
0.373336
0.652559
0.408116
-0.142727
-0.495266
-0.489949
-0.151408
0.26047
0.404495
0.404111
0.056329
-0.150596
-0.316816
-0.367706
-0.0786133
100.096
99.8996
99.7041
100.277
100.564
99.5856
99.0273
100.464
101.642
99.6998
97.1448
99.5112
105.581
104.206
84.7677
49.9716
15.4388
-3.94363
-6.04439
-0.283324
3.17152
1.59143
-1.35689
-1.91277
-0.134769
1.41543
1.10206
-0.345084
-1.19231
-0.688244
0.426155
0.977355
0.53669
-0.327416
-0.805333
-0.533382
0.128734
0.619767
0.584106
0.118439
-0.339669
-0.575962
-0.341641
-0.0186499
0.339211
0.456129
0.252547
0.126214
-0.26792
-0.272028
100.023
100.151
99.7709
99.6843
100.419
100.572
99.4264
99.0094
100.638
101.694
99.5216
97.0387
99.668
105.752
104.109
84.5456
49.9678
15.6683
-3.81435
-6.20653
-0.515955
3.18735
1.84014
-1.19573
-2.04562
-0.401398
1.33363
1.30263
-0.0884086
-1.15976
-0.917017
0.1757
0.949944
0.763205
-0.0664637
-0.738765
-0.7161
-0.155491
0.485232
0.655217
0.400681
-0.129591
-0.492977
-0.489693
-0.296207
0.178089
0.313801
0.441969
0.290479
-0.0530396
99.9286
100.147
100.151
99.6401
99.7105
100.565
100.539
99.2598
99.0242
100.826
101.722
99.3252
96.9444
99.8438
105.923
103.999
84.313
49.9637
15.9081
-3.67081
-6.36588
-0.766804
3.17994
2.09129
-1.00094
-2.14905
-0.682894
1.20145
1.47026
0.196973
-1.06083
-1.1066
-0.111127
0.838636
0.93804
0.219252
-0.566116
-0.831273
-0.419185
0.234476
0.633064
0.608349
0.122518
-0.258326
-0.569341
-0.435985
-0.118194
0.103981
0.480791
0.289545
99.9477
99.9392
100.264
100.102
99.5182
99.7813
100.704
100.467
99.092
99.0736
101.024
101.724
99.1118
96.8639
100.039
106.095
103.875
84.0696
49.9594
16.1584
-3.51232
-6.52117
-1.03545
3.14717
2.34113
-0.773017
-2.21773
-0.97188
1.01867
1.59424
0.499354
-0.896088
-1.23714
-0.419613
0.653369
1.02568
0.515629
-0.320159
-0.833465
-0.636836
-0.0902306
0.52234
0.656628
0.420526
0.00339575
-0.473283
-0.440374
-0.455492
-0.0496359
0.2373
100.036
99.8421
100.002
100.359
100.008
99.4169
99.8936
100.829
100.355
98.93
99.1592
101.226
101.698
98.8831
96.7994
100.254
106.266
103.737
83.8153
49.9547
16.4193
-3.33817
-6.67098
-1.32131
3.08699
2.58556
-0.512987
-2.24699
-1.25944
0.785693
1.66701
0.801153
-0.664227
-1.29998
-0.719379
0.396519
1.01378
0.789045
-0.0359599
-0.688206
-0.808171
-0.383688
0.276339
0.574039
0.670861
0.208869
-0.143406
-0.413308
-0.594272
-0.187007
100.065
99.9676
99.7706
100.105
100.42
99.8766
99.3469
100.042
100.93
100.206
98.7812
99.2816
101.429
101.64
98.6414
96.7534
100.488
106.435
103.585
83.5498
49.9497
16.6908
-3.1476
-6.81391
-1.62344
2.99724
2.82063
-0.22337
-2.23158
-1.53749
0.507295
1.6796
1.08637
-0.371178
-1.28925
-0.974743
0.0678082
0.92004
0.970746
0.291243
-0.440668
-0.876484
-0.587706
-0.106586
0.448849
0.695671
0.419191
0.253894
-0.342314
-0.403099
100.006
100.121
99.8654
99.7456
100.235
100.435
99.7199
99.3179
100.22
100.998
100.022
98.6531
99.4406
101.628
101.55
98.3892
96.7281
100.741
106.6
103.417
83.2732
49.9442
16.9731
-2.93994
-6.94835
-1.94082
2.87606
3.04201
0.092434
-2.16646
-1.79863
0.193242
1.61965
1.34737
-0.0420851
-1.18241
-1.17883
-0.290808
0.735447
1.02812
0.64442
-0.169524
-0.743641
-0.751164
-0.468301
0.248003
0.4653
0.662602
0.451323
-0.0668459
99.9459
100.103
100.121
99.75
99.7745
100.374
100.398
99.5513
99.3374
100.418
101.024
99.81
98.5533
99.6348
101.815
101.425
98.1295
96.726
101.013
106.762
103.232
82.9854
49.9384
17.2661
-2.71465
-7.07249
-2.27264
2.72268
3.24388
0.432539
-2.05138
-2.02971
-0.152216
1.48739
1.56523
0.304667
-0.970212
-1.32938
-0.613553
0.421773
1.00671
0.910053
0.139827
-0.435685
-0.875147
-0.630332
-0.144481
0.19672
0.733988
0.41989
99.9588
99.9598
100.199
100.063
99.6439
99.8586
100.504
100.307
99.3861
99.41
100.623
101.003
99.576
98.489
99.862
101.986
101.265
97.8655
96.7496
101.304
106.917
103.03
82.686
49.9323
17.57
-2.47076
-7.18493
-2.61743
2.53552
3.42151
0.79338
-1.88641
-2.21672
-0.527302
1.29573
1.70363
0.678132
-0.694934
-1.36929
-0.901777
0.0209638
0.914264
0.988903
0.546056
-0.133534
-0.782387
-0.658201
-0.621438
0.0454442
0.405138
100.02
99.879
100.029
100.268
99.9563
99.569
99.9919
100.605
100.164
99.2406
99.5366
100.823
100.93
99.3288
98.4667
100.118
102.134
101.069
97.6009
96.8008
101.613
107.065
102.811
82.3749
49.9257
17.8846
-2.20693
-7.28426
-2.97236
2.31089
3.57327
1.16417
-1.662
-2.36069
-0.906647
1.03215
1.75977
1.05214
-0.381023
-1.25006
-1.18729
-0.337697
0.642685
0.960956
0.922765
0.105162
-0.366549
-0.735698
-0.822839
-0.16263
100.052
99.9483
99.8412
100.138
100.289
99.8151
99.5438
100.162
100.66
99.9773
99.1311
99.7143
101.005
100.803
99.0787
98.4918
100.399
102.252
100.837
97.3399
96.8819
101.939
107.204
102.573
82.0526
49.9181
18.2102
-1.92379
-7.36718
-3.33672
2.05067
3.69169
1.5393
-1.3784
-2.45791
-1.26139
0.67773
1.76379
1.34245
0.0220702
-1.04481
-1.37623
-0.631873
0.174508
0.939526
1.00801
0.462551
0.102557
-0.745793
-0.608379
100.021
100.07
99.8523
99.8618
100.259
100.248
99.662
99.5811
100.35
100.655
99.7601
99.0723
99.9366
101.153
100.621
98.8366
98.569
100.697
102.335
100.571
97.0871
96.9956
102.281
107.332
102.315
81.7188
49.9106
18.5477
-1.62143
-7.43162
-3.71199
1.76035
3.7644
1.92724
-1.06005
-2.47322
-1.61398
0.282683
1.67702
1.54424
0.503894
-0.828979
-1.3266
-0.992131
-0.250789
0.770933
0.842133
0.954492
0.295572
-0.350867
99.9695
100.103
100.027
99.7647
99.9441
100.365
100.144
99.523
99.6853
100.535
100.582
99.5295
99.0758
100.193
101.256
100.39
98.6138
98.7009
101.007
102.378
100.271
96.8458
97.1434
102.638
107.448
102.036
81.3712
49.9029
18.8964
-1.29371
-7.47923
-4.09065
1.42755
3.7966
2.31105
-0.697749
-2.39835
-1.96654
-0.104749
1.42096
1.74314
0.907435
-0.476243
-1.12468
-1.36158
-0.488342
0.229845
0.760729
1.16453
0.398184
99.9551
100.022
100.157
99.9305
99.7171
100.077
100.426
99.9849
99.4249
99.8517
100.69
100.439
99.3067
99.1487
100.467
101.301
100.116
98.4228
98.8871
101.32
102.376
99.9417
96.6213
97.3251
103.008
107.551
101.737
81.0122
49.8915
19.2541
-0.942435
-7.50401
-4.46321
1.0469
3.79422
2.64809
-0.254856
-2.28611
-2.21289
-0.551253
1.07539
1.8631
1.16328
0.102788
-0.984003
-1.37891
-0.782625
-0.404796
0.733624
0.782283
99.9892
99.9238
100.112
100.155
99.8071
99.7333
100.236
100.42
99.7919
99.3915
100.066
100.793
100.234
99.1148
99.295
100.742
101.276
99.8079
98.2777
99.1281
101.623
102.321
99.5865
96.4221
97.545
103.387
107.635
101.416
80.6471
49.8795
19.6273
-0.582038
-7.49723
-4.84847
0.657082
3.72609
2.97355
0.210766
-2.12267
-2.33858
-1.08271
0.793468
1.71682
1.47644
0.607411
-0.78997
-1.04777
-1.28938
-0.596865
0.317081
100.031
99.9117
99.9561
100.203
100.085
99.6909
99.8233
100.389
100.335
99.592
99.4385
100.309
100.823
99.9754
98.9741
99.513
101.001
101.177
99.4758
98.1878
99.4239
101.912
102.209
99.2035
96.25
97.8083
103.78
107.698
101.065
80.2628
49.8729
20.0197
-0.189999
-7.46905
-5.2498
0.240681
3.57653
3.33353
0.644346
-1.78852
-2.49986
-1.53826
0.404666
1.39908
1.89254
0.838553
-0.154798
-0.881325
-1.56624
-0.613621
100.04
99.9875
99.8557
100.047
100.258
99.9559
99.6181
99.9786
100.503
100.175
99.4183
99.5687
100.549
100.77
99.6877
98.9012
99.7894
101.224
101.005
99.136
98.1573
99.7626
102.178
102.047
98.8023
96.1014
98.1049
104.185
107.754
100.695
79.8561
49.8526
20.4104
0.253876
-7.41525
-5.59833
-0.270994
3.39663
3.57332
1.14443
-1.34118
-2.59209
-1.79291
-0.291082
1.17491
1.87364
1.12473
0.666487
-0.828611
-1.02025
100.009
100.07
99.9019
99.857
100.169
100.244
99.7967
99.6207
100.173
100.541
99.9585
99.3082
99.775
100.751
100.627
99.4023
98.9168
100.105
101.384
100.763
98.8159
98.2024
100.13
102.397
101.828
98.4044
95.9979
98.4336
104.573
107.787
100.307
79.4725
49.8186
20.8127
0.667276
-7.31369
-5.92619
-0.771288
3.21058
3.65455
1.72603
-1.05866
-2.36813
-2.09972
-0.827089
0.989395
1.3914
1.67951
0.773332
-0.379135
99.9728
100.08
100.034
99.8161
99.9325
100.28
100.146
99.6464
99.7165
100.373
100.482
99.7102
99.2903
100.046
100.884
100.39
99.1416
99.0371
100.452
101.46
100.441
98.524
98.3419
100.537
102.558
101.528
97.9932
95.9575
98.8286
104.968
107.764
99.8613
79.0761
49.8178
21.2841
1.08612
-7.18066
-6.3739
-1.22245
2.88492
3.89072
2.26315
-0.699772
-2.04358
-2.69528
-1.03153
0.293115
1.32801
2.13872
0.739634
99.9632
100.02
100.127
99.9386
99.7733
100.07
100.34
99.9777
99.5443
99.8952
100.541
100.328
99.4662
99.3691
100.35
100.937
100.083
98.9224
99.245
100.812
101.463
100.061
98.2552
98.5494
100.977
102.692
101.173
97.5535
95.9285
99.2704
105.409
107.754
99.3829
78.5852
49.7879
21.7318
1.67923
-7.00246
-6.70603
-1.85011
2.37195
4.04708
2.64195
0.187369
-1.79092
-2.73138
-1.50211
-0.82497
1.25391
1.4675
99.9866
99.9443
100.103
100.111
99.8216
99.8066
100.225
100.314
99.783
99.5325
100.12
100.624
100.102
99.2864
99.5424
100.627
100.885
99.7568
98.7949
99.5172
101.119
101.378
99.6795
98.065
98.805
101.375
102.762
100.811
97.1745
95.9242
99.6921
105.778
107.775
98.9377
78.1882
49.6766
22.0986
2.18312
-6.80819
-6.76073
-2.49427
2.13004
3.68825
2.99791
0.689048
-1.54686
-2.03248
-2.11313
-0.713016
0.582119
100.019
99.9242
99.9941
100.17
100.017
99.737
99.931
100.346
100.18
99.6085
99.645
100.356
100.577
99.8192
99.221
99.8247
100.836
100.687
99.4222
98.8112
99.8841
101.341
101.142
99.2768
98.0115
99.1865
101.737
102.675
100.353
96.8627
96.0847
100.199
106.068
107.631
98.3783
77.8926
49.6903
22.6974
2.523
-6.63431
-7.21297
-3.03514
1.96853
3.54659
3.89142
0.670553
-0.926757
-2.4505
-2.78541
-0.511695
100.034
99.9613
99.9023
100.099
100.176
99.8658
99.7224
100.124
100.398
99.9579
99.4863
99.8646
100.573
100.413
99.5051
99.2584
100.19
100.988
100.375
99.0696
98.9261
100.34
101.536
100.795
98.8049
98.0011
99.6857
102.17
102.546
99.7561
96.4477
96.276
100.865
106.543
107.467
97.689
77.2426
49.6975
23.3232
3.3621
-6.20574
-7.68656
-3.77162
0.837357
3.51718
4.27473
1.72897
0.562469
-2.56643
-2.33124
100.022
100.031
99.884
99.947
100.203
100.106
99.7251
99.7951
100.31
100.353
99.7274
99.4643
100.119
100.698
100.185
99.2611
99.3847
100.522
101.042
100.051
98.8044
99.0913
100.737
101.658
100.47
98.4171
98.0067
100.106
102.53
102.482
99.2706
96.0948
96.2975
101.4
106.935
107.592
97.2047
76.708
49.4279
23.4161
4.1547
-5.91172
-7.07643
-4.34488
0.318767
2.87138
3.27006
2.48507
0.326226
-0.97212
99.9933
100.067
99.9657
99.8549
100.055
100.233
99.9603
99.6731
99.9686
100.409
100.174
99.5584
99.6114
100.364
100.635
99.8863
99.1866
99.6697
100.758
100.874
99.6973
98.7558
99.4317
101.028
101.517
100.059
98.2383
98.2808
100.528
102.614
102.143
98.8422
96.0686
96.6276
101.881
106.918
107.374
96.6012
76.7593
49.4853
24.051
4.30063
-6.12406
-7.23494
-5.25206
1.081
2.50619
4.47777
2.70878
-0.566709
99.9752
100.057
100.046
99.8674
99.9138
100.196
100.158
99.7658
99.7322
100.221
100.408
99.8767
99.4544
99.9115
100.61
100.412
99.5007
99.2302
100.12
100.98
100.521
99.2217
98.8073
99.9863
101.394
101.212
99.4054
98.0102
98.7702
101.245
102.755
101.537
98.0382
95.8934
97.2901
102.807
107.33
106.759
95.5498
75.9223
49.6789
25.2458
5.42344
-5.15675
-8.23061
-6.38832
-0.83537
1.36656
5.72362
3.3859
99.9688
100.01
100.113
99.962
99.7985
100.036
100.296
100.015
99.6144
99.8672
100.439
100.323
99.5961
99.4365
100.218
100.777
100.16
99.179
99.3168
100.523
101.15
100.204
98.8085
98.8334
100.45
101.75
101.027
98.8531
97.7024
99.0376
101.883
103.069
101.301
97.2751
95.4959
97.3318
103.66
107.969
107.017
95.0138
74.7496
49.2224
24.6869
6.82804
-4.30951
-6.82284
-5.70049
-2.48165
0.882479
2.10236
99.9911
99.953
100.077
100.094
99.8669
99.8374
100.164
100.258
99.8509
99.6272
100.064
100.482
100.115
99.471
99.6157
100.433
100.685
99.8821
99.1281
99.581
100.735
101.008
99.891
98.7392
99.1044
100.72
101.688
100.702
98.657
97.8444
99.3703
102.015
102.893
100.997
97.1597
95.7257
97.5159
103.882
107.534
107.078
94.6004
75.4117
49.3081
24.8005
6.78574
-5.87326
-6.15819
-6.9774
-0.387711
2.52339
100.008
99.945
100.018
100.12
99.972
99.8102
100.008
100.261
100.057
99.6839
99.8249
100.325
100.342
99.759
99.4802
100.024
100.624
100.328
99.4702
99.2786
100.13
100.932
100.541
99.3356
98.8291
99.7815
101.183
101.343
99.8944
98.2781
98.3735
100.298
102.395
102.287
99.8802
96.6589
96.1974
98.9275
104.667
107.513
105.564
93.0989
74.8983
49.792
27.5321
7.86171
-4.22714
-7.92312
-10.2451
-2.31934
100.027
99.9452
99.9449
100.129
100.102
99.8109
99.8208
100.219
100.291
99.8058
99.5722
100.083
100.551
100.14
99.4103
99.5388
100.445
100.793
99.9607
99.0536
99.4089
100.678
101.189
100.136
98.7326
98.7662
100.388
101.797
101.259
99.1412
97.6019
98.5152
101.14
103.285
102.203
99.0858
95.3549
95.9872
99.4603
106.264
108.667
105.371
92.2749
72.091
49.2178
26.5251
9.99702
-0.733135
-6.42708
-5.85977
100.026
100.004
99.8965
100.005
100.183
100.013
99.7393
99.9254
100.323
100.19
99.6592
99.6426
100.27
100.545
99.934
99.3236
99.7152
100.628
100.71
99.7244
98.9917
99.6073
100.875
101.133
99.9026
98.6086
98.8824
100.609
101.863
101.155
98.9418
97.5797
98.5239
101.323
103.261
102.343
99.0257
95.3566
95.9015
98.9584
106.508
108.11
106.738
92.2286
73.1372
49.063
24.1661
10.1018
-5.31189
-4.29581
100.008
100.029
99.9404
99.9429
100.103
100.101
99.8695
99.834
100.129
100.25
99.9218
99.6653
99.961
100.384
100.226
99.6605
99.553
100.142
100.606
100.222
99.4479
99.3528
100.159
100.872
100.522
99.4315
98.8923
99.6482
100.958
101.358
100.264
98.6656
98.235
99.5654
101.689
102.487
101.176
98.1853
96.2664
97.0076
100.762
105.893
106.953
104.492
90.4124
75.178
49.7384
30.1776
10.5615
-6.16202
99.9998
100.052
99.9534
99.8896
100.078
100.181
99.919
99.7359
100.038
100.348
100.067
99.5975
99.7586
100.377
100.463
99.788
99.3442
99.8733
100.685
100.584
99.6004
99.0433
99.7511
100.911
101.024
99.8175
98.6493
98.9834
100.585
101.783
101.115
99.1259
97.6919
98.4272
100.936
102.918
102.79
99.5539
96.678
94.8529
98.2963
102.791
108.209
108.389
101.532
88.8059
69.0312
49.3127
32.1804
13.2663
99.9747
100.056
100.049
99.8685
99.9093
100.194
100.164
99.7714
99.7265
100.211
100.411
99.891
99.4597
99.8962
100.592
100.419
99.5311
99.2441
100.088
100.931
100.524
99.2962
98.875
99.939
101.246
101.122
99.5512
98.2896
98.9077
100.881
102.219
101.227
98.8981
97.0615
98.2488
100.858
103.851
103.12
100.181
95.8956
93.7981
97.5552
101.505
110.735
108.436
106.087
88.9553
66.9998
48.6224
14.2059
99.9816
100.006
100.066
99.9773
99.8821
100.021
100.173
100.009
99.7751
99.9229
100.255
100.187
99.7663
99.6744
100.125
100.446
100.093
99.5333
99.6106
100.292
100.646
100.119
99.3453
99.3552
100.233
100.936
100.559
99.4211
98.8241
99.4841
100.884
101.464
100.659
98.9055
98.0877
98.8781
100.939
102.666
101.948
100.253
96.465
96.6834
97.0861
102.348
106.47
105.788
106.524
87.3661
84.707
49.3581
)
;

boundaryField
{
    left
    {
        type            fixedValue;
        value           uniform 100;
    }
    right
    {
        type            zeroGradient;
    }
    up
    {
        type            zeroGradient;
    }
    down
    {
        type            fixedValue;
        value           uniform 0;
    }
    frontAndBack
    {
        type            empty;
    }
}


// ************************************************************************* //
