0 	-1.73937e-08
1.57135 	-5.09451e-06
3.1427 	-3.30912e-05
4.71405 	-0.000108171
6.28539 	-0.000308027
7.85674 	-0.00104069
9.42809 	-0.00368301
10.9994 	-0.00471641
12.5708 	-0.00418822
14.1421 	0.250582
