/*--------------------------------*- C++ -*----------------------------------*\
  =========                 |
  \\      /  F ield         | OpenFOAM: The Open Source CFD Toolbox
   \\    /   O peration     | Website:  https://openfoam.org
    \\  /    A nd           | Version:  8
     \\/     M anipulation  |
\*---------------------------------------------------------------------------*/
FoamFile
{
    version     2.0;
    format      ascii;
    class       volVectorField;
    location    "1.23";
    object      U;
}
// * * * * * * * * * * * * * * * * * * * * * * * * * * * * * * * * * * * * * //

dimensions      [0 1 -1 0 0 0 0];

internalField   nonuniform List<vector> 
400
(
(0.0249874 -3.92656e-12 0)
(0.0249874 -4.16099e-12 0)
(0.0249874 -3.60729e-12 0)
(0.0249874 -2.63517e-12 0)
(0.0249874 -1.71545e-12 0)
(0.0249874 -1.04931e-12 0)
(0.0249874 -4.83706e-13 0)
(0.0249874 7.76067e-14 0)
(0.0249874 6.69148e-13 0)
(0.0249874 1.21913e-12 0)
(0.0249874 1.68985e-12 0)
(0.0249874 2.06548e-12 0)
(0.0249874 2.25928e-12 0)
(0.0249874 2.29648e-12 0)
(0.0249874 2.06668e-12 0)
(0.0249874 1.62916e-12 0)
(0.0249874 7.96328e-13 0)
(0.0249874 -3.48871e-13 0)
(0.0249874 -1.81522e-12 0)
(0.0249874 -3.20349e-12 0)
(0.0749627 -1.8293e-11 0)
(0.0749627 -1.83682e-11 0)
(0.0749627 -1.58491e-11 0)
(0.0749627 -1.16093e-11 0)
(0.0749627 -6.96582e-12 0)
(0.0749627 -2.39465e-12 0)
(0.0749627 1.88632e-12 0)
(0.0749627 5.95256e-12 0)
(0.0749627 9.53469e-12 0)
(0.0749627 1.24074e-11 0)
(0.0749627 1.43263e-11 0)
(0.0749627 1.50875e-11 0)
(0.0749627 1.46354e-11 0)
(0.0749627 1.2902e-11 0)
(0.0749627 1.00683e-11 0)
(0.0749627 6.15205e-12 0)
(0.0749627 1.28951e-12 0)
(0.0749627 -4.38869e-12 0)
(0.0749627 -1.03393e-11 0)
(0.0749627 -1.54026e-11 0)
(0.124939 -4.88432e-11 0)
(0.124939 -4.76841e-11 0)
(0.124939 -4.07517e-11 0)
(0.124939 -2.97305e-11 0)
(0.124939 -1.66465e-11 0)
(0.124939 -3.24055e-12 0)
(0.124939 9.81743e-12 0)
(0.124939 2.16899e-11 0)
(0.124939 3.15906e-11 0)
(0.124939 3.8709e-11 0)
(0.124939 4.24539e-11 0)
(0.124939 4.24783e-11 0)
(0.124939 3.87034e-11 0)
(0.124939 3.14622e-11 0)
(0.124939 2.12612e-11 0)
(0.124939 8.87367e-12 0)
(0.124939 -4.94231e-12 0)
(0.124939 -1.93289e-11 0)
(0.124939 -3.29061e-11 0)
(0.124939 -4.33422e-11 0)
(0.174916 -8.88573e-11 0)
(0.174916 -8.53044e-11 0)
(0.174916 -7.19754e-11 0)
(0.174916 -5.14475e-11 0)
(0.174916 -2.69296e-11 0)
(0.174916 -9.16284e-13 0)
(0.174916 2.43516e-11 0)
(0.174916 4.69285e-11 0)
(0.174916 6.49677e-11 0)
(0.174916 7.70016e-11 0)
(0.174916 8.19618e-11 0)
(0.174916 7.93804e-11 0)
(0.174916 6.94657e-11 0)
(0.174916 5.30665e-11 0)
(0.174916 3.164e-11 0)
(0.174916 6.90141e-12 0)
(0.174916 -1.91219e-11 0)
(0.174916 -4.43444e-11 0)
(0.174916 -6.63423e-11 0)
(0.174916 -8.21872e-11 0)
(0.224896 -1.30781e-10 0)
(0.224896 -1.23476e-10 0)
(0.224896 -1.02886e-10 0)
(0.224896 -7.20761e-11 0)
(0.224896 -3.48964e-11 0)
(0.224896 4.74608e-12 0)
(0.224896 4.31656e-11 0)
(0.224896 7.69694e-11 0)
(0.224896 1.03256e-10 0)
(0.224896 1.19723e-10 0)
(0.224896 1.24919e-10 0)
(0.224896 1.18353e-10 0)
(0.224896 1.00645e-10 0)
(0.224896 7.34149e-11 0)
(0.224896 3.91259e-11 0)
(0.224896 8.21724e-13 0)
(0.224896 -3.81841e-11 0)
(0.224896 -7.43518e-11 0)
(0.224896 -1.04061e-10 0)
(0.224896 -1.23912e-10 0)
(0.274879 -1.66116e-10 0)
(0.274879 -1.54814e-10 0)
(0.274879 -1.2746e-10 0)
(0.274879 -8.74361e-11 0)
(0.274879 -3.92224e-11 0)
(0.274879 1.21349e-11 0)
(0.274879 6.16653e-11 0)
(0.274879 1.04764e-10 0)
(0.274879 1.37546e-10 0)
(0.274879 1.57076e-10 0)
(0.274879 1.61577e-10 0)
(0.274879 1.50682e-10 0)
(0.274879 1.25424e-10 0)
(0.274879 8.82215e-11 0)
(0.274879 4.24654e-11 0)
(0.274879 -7.61978e-12 0)
(0.274879 -5.74774e-11 0)
(0.274879 -1.02442e-10 0)
(0.274879 -1.3799e-10 0)
(0.274879 -1.60182e-10 0)
(0.324864 -1.86357e-10 0)
(0.324864 -1.71647e-10 0)
(0.324864 -1.39618e-10 0)
(0.324864 -9.36491e-11 0)
(0.324864 -3.87168e-11 0)
(0.324864 1.95763e-11 0)
(0.324864 7.54466e-11 0)
(0.324864 1.23597e-10 0)
(0.324864 1.59537e-10 0)
(0.324864 1.79968e-10 0)
(0.324864 1.83036e-10 0)
(0.324864 1.68488e-10 0)
(0.324864 1.37805e-10 0)
(0.324864 9.38971e-11 0)
(0.324864 4.09262e-11 0)
(0.324864 -1.62402e-11 0)
(0.324864 -7.22026e-11 0)
(0.324864 -1.21662e-10 0)
(0.324864 -1.59676e-10 0)
(0.324864 -1.82078e-10 0)
(0.374852 -1.8592e-10 0)
(0.374852 -1.69158e-10 0)
(0.374852 -1.35482e-10 0)
(0.374852 -8.83685e-11 0)
(0.374852 -3.26333e-11 0)
(0.374852 2.60148e-11 0)
(0.374852 8.18222e-11 0)
(0.374852 1.29329e-10 0)
(0.374852 1.64049e-10 0)
(0.374852 1.82725e-10 0)
(0.374852 1.83638e-10 0)
(0.374852 1.6682e-10 0)
(0.374852 1.3393e-10 0)
(0.374852 8.82076e-11 0)
(0.374852 3.39279e-11 0)
(0.374852 -2.37581e-11 0)
(0.374852 -7.94618e-11 0)
(0.374852 -1.27769e-10 0)
(0.374852 -1.63917e-10 0)
(0.374852 -1.84024e-10 0)
(0.424845 -1.64118e-10 0)
(0.424845 -1.46625e-10 0)
(0.424845 -1.14565e-10 0)
(0.424845 -7.11466e-11 0)
(0.424845 -2.07785e-11 0)
(0.424845 3.15606e-11 0)
(0.424845 8.06244e-11 0)
(0.424845 1.21619e-10 0)
(0.424845 1.50549e-10 0)
(0.424845 1.64675e-10 0)
(0.424845 1.6273e-10 0)
(0.424845 1.44994e-10 0)
(0.424845 1.13326e-10 0)
(0.424845 7.07669e-11 0)
(0.424845 2.142e-11 0)
(0.424845 -3.01225e-11 0)
(0.424845 -7.8933e-11 0)
(0.424845 -1.20333e-10 0)
(0.424845 -1.50139e-10 0)
(0.424845 -1.65288e-10 0)
(0.474841 -1.25161e-10 0)
(0.474841 -1.07909e-10 0)
(0.474841 -7.99048e-11 0)
(0.474841 -4.40713e-11 0)
(0.474841 -3.83417e-12 0)
(0.474841 3.67723e-11 0)
(0.474841 7.37577e-11 0)
(0.474841 1.03385e-10 0)
(0.474841 1.22747e-10 0)
(0.474841 1.29975e-10 0)
(0.474841 1.24441e-10 0)
(0.474841 1.06837e-10 0)
(0.474841 7.89442e-11 0)
(0.474841 4.35545e-11 0)
(0.474841 3.99075e-12 0)
(0.474841 -3.59658e-11 0)
(0.474841 -7.26002e-11 0)
(0.474841 -1.02333e-10 0)
(0.474841 -1.22159e-10 0)
(0.474841 -1.30075e-10 0)
(0.524841 -7.6984e-11 0)
(0.524841 -6.03282e-11 0)
(0.524841 -3.77218e-11 0)
(0.524841 -1.13989e-11 0)
(0.524841 1.6086e-11 0)
(0.524841 4.21017e-11 0)
(0.524841 6.40043e-11 0)
(0.524841 7.95825e-11 0)
(0.524841 8.72274e-11 0)
(0.524841 8.61878e-11 0)
(0.524841 7.66539e-11 0)
(0.524841 5.96418e-11 0)
(0.524841 3.69509e-11 0)
(0.524841 1.07821e-11 0)
(0.524841 -1.6303e-11 0)
(0.524841 -4.18094e-11 0)
(0.524841 -6.33206e-11 0)
(0.524841 -7.88127e-11 0)
(0.524841 -8.6648e-11 0)
(0.524841 -8.60296e-11 0)
(0.574845 -2.89978e-11 0)
(0.574845 -1.30518e-11 0)
(0.574845 4.18241e-12 0)
(0.574845 2.0964e-11 0)
(0.574845 3.57853e-11 0)
(0.574845 4.71858e-11 0)
(0.574845 5.40344e-11 0)
(0.574845 5.55499e-11 0)
(0.574845 5.15157e-11 0)
(0.574845 4.23174e-11 0)
(0.574845 2.88889e-11 0)
(0.574845 1.26572e-11 0)
(0.574845 -4.75622e-12 0)
(0.574845 -2.15747e-11 0)
(0.574845 -3.62076e-11 0)
(0.574845 -4.72483e-11 0)
(0.574845 -5.37407e-11 0)
(0.574845 -5.50749e-11 0)
(0.574845 -5.10709e-11 0)
(0.574845 -4.20879e-11 0)
(0.624853 1.01228e-11 0)
(0.624853 2.53334e-11 0)
(0.624853 3.8008e-11 0)
(0.624853 4.69586e-11 0)
(0.624853 5.13537e-11 0)
(0.624853 5.08308e-11 0)
(0.624853 4.53695e-11 0)
(0.624853 3.54544e-11 0)
(0.624853 2.19949e-11 0)
(0.624853 6.29051e-12 0)
(0.624853 -1.00681e-11 0)
(0.624853 -2.54643e-11 0)
(0.624853 -3.83235e-11 0)
(0.624853 -4.74032e-11 0)
(0.624853 -5.17628e-11 0)
(0.624853 -5.10321e-11 0)
(0.624853 -4.53071e-11 0)
(0.624853 -3.52037e-11 0)
(0.624853 -2.16909e-11 0)
(0.624853 -6.06393e-12 0)
(0.674864 3.46864e-11 0)
(0.674864 4.88021e-11 0)
(0.674864 5.81358e-11 0)
(0.674864 6.1755e-11 0)
(0.674864 5.93914e-11 0)
(0.674864 5.12626e-11 0)
(0.674864 3.81455e-11 0)
(0.674864 2.1275e-11 0)
(0.674864 2.28484e-12 0)
(0.674864 -1.69499e-11 0)
(0.674864 -3.45411e-11 0)
(0.674864 -4.87383e-11 0)
(0.674864 -5.81878e-11 0)
(0.674864 -6.19314e-11 0)
(0.674864 -5.96063e-11 0)
(0.674864 -5.14008e-11 0)
(0.674864 -3.81486e-11 0)
(0.674864 -2.11515e-11 0)
(0.674864 -2.10384e-12 0)
(0.674864 1.71228e-11 0)
(0.724879 4.3156e-11 0)
(0.724879 5.5569e-11 0)
(0.724879 6.25167e-11 0)
(0.724879 6.33858e-11 0)
(0.724879 5.80661e-11 0)
(0.724879 4.70835e-11 0)
(0.724879 3.14661e-11 0)
(0.724879 1.27471e-11 0)
(0.724879 -7.22678e-12 0)
(0.724879 -2.64674e-11 0)
(0.724879 -4.30697e-11 0)
(0.724879 -5.54433e-11 0)
(0.724879 -6.24053e-11 0)
(0.724879 -6.33123e-11 0)
(0.724879 -5.80343e-11 0)
(0.724879 -4.70709e-11 0)
(0.724879 -3.14507e-11 0)
(0.724879 -1.27179e-11 0)
(0.724879 7.2496e-12 0)
(0.724879 2.64899e-11 0)
(0.774896 3.83429e-11 0)
(0.774896 4.82453e-11 0)
(0.774896 5.33882e-11 0)
(0.774896 5.33668e-11 0)
(0.774896 4.81274e-11 0)
(0.774896 3.81358e-11 0)
(0.774896 2.43587e-11 0)
(0.774896 8.15585e-12 0)
(0.774896 -8.82605e-12 0)
(0.774896 -2.48835e-11 0)
(0.774896 -3.84242e-11 0)
(0.774896 -4.81661e-11 0)
(0.774896 -5.32196e-11 0)
(0.774896 -5.31262e-11 0)
(0.774896 -4.78909e-11 0)
(0.774896 -3.79717e-11 0)
(0.774896 -2.43008e-11 0)
(0.774896 -8.2022e-12 0)
(0.774896 8.67926e-12 0)
(0.774896 2.47154e-11 0)
(0.824917 2.60242e-11 0)
(0.824917 3.27837e-11 0)
(0.824917 3.63277e-11 0)
(0.824917 3.63597e-11 0)
(0.824917 3.28174e-11 0)
(0.824917 2.60011e-11 0)
(0.824917 1.65571e-11 0)
(0.824917 5.45873e-12 0)
(0.824917 -6.16282e-12 0)
(0.824917 -1.70943e-11 0)
(0.824917 -2.62766e-11 0)
(0.824917 -3.28264e-11 0)
(0.824917 -3.61889e-11 0)
(0.824917 -3.60658e-11 0)
(0.824917 -3.24853e-11 0)
(0.824917 -2.57571e-11 0)
(0.824917 -1.64825e-11 0)
(0.824917 -5.56553e-12 0)
(0.824917 5.90268e-12 0)
(0.824917 1.67991e-11 0)
(0.874939 1.28462e-11 0)
(0.874939 1.63537e-11 0)
(0.874939 1.83596e-11 0)
(0.874939 1.86038e-11 0)
(0.874939 1.6994e-11 0)
(0.874939 1.36615e-11 0)
(0.874939 8.9241e-12 0)
(0.874939 3.26858e-12 0)
(0.874939 -2.67209e-12 0)
(0.874939 -8.30017e-12 0)
(0.874939 -1.30132e-11 0)
(0.874939 -1.64213e-11 0)
(0.874939 -1.82067e-11 0)
(0.874939 -1.82707e-11 0)
(0.874939 -1.65958e-11 0)
(0.874939 -1.33388e-11 0)
(0.874939 -8.77351e-12 0)
(0.874939 -3.30091e-12 0)
(0.874939 2.48453e-12 0)
(0.874939 8.03505e-12 0)
(0.924963 3.61457e-12 0)
(0.924963 4.72853e-12 0)
(0.924963 5.46321e-12 0)
(0.924963 5.67128e-12 0)
(0.924963 5.32734e-12 0)
(0.924963 4.40711e-12 0)
(0.924963 3.00739e-12 0)
(0.924963 1.29563e-12 0)
(0.924963 -5.48871e-13 0)
(0.924963 -2.27214e-12 0)
(0.924963 -3.74091e-12 0)
(0.924963 -4.78013e-12 0)
(0.924963 -5.37577e-12 0)
(0.924963 -5.45236e-12 0)
(0.924963 -5.05067e-12 0)
(0.924963 -4.177e-12 0)
(0.924963 -2.90296e-12 0)
(0.924963 -1.32823e-12 0)
(0.924963 4.23114e-13 0)
(0.924963 2.10487e-12 0)
(0.974987 4.43809e-14 0)
(0.974987 1.7023e-13 0)
(0.974987 2.45228e-13 0)
(0.974987 3.39503e-13 0)
(0.974987 3.73372e-13 0)
(0.974987 3.55237e-13 0)
(0.974987 2.75106e-13 0)
(0.974987 1.41402e-13 0)
(0.974987 3.4165e-15 0)
(0.974987 -1.40578e-13 0)
(0.974987 -2.29755e-13 0)
(0.974987 -3.10817e-13 0)
(0.974987 -3.48925e-13 0)
(0.974987 -3.91281e-13 0)
(0.974987 -4.04664e-13 0)
(0.974987 -4.05898e-13 0)
(0.974987 -3.68994e-13 0)
(0.974987 -2.97031e-13 0)
(0.974987 -1.90293e-13 0)
(0.974987 -3.42676e-14 0)
)
;

boundaryField
{
    movingWall
    {
        type            fixedValue;
        value           uniform (1 0 0);
    }
    fixedWalls
    {
        type            noSlip;
    }
    left
    {
        type            cyclic;
    }
    right
    {
        type            cyclic;
    }
    frontAndBack
    {
        type            empty;
    }
}


// ************************************************************************* //
