0 	1.64303e-07
1.57135 	-0.000219455
3.1427 	-4.89671e-05
4.71405 	-0.000567807
6.28539 	-0.00197298
7.85674 	-0.00307949
9.42809 	-0.00229535
10.9994 	-0.00142468
12.5708 	0.0166353
14.1421 	0.0501559
