/*--------------------------------*- C++ -*----------------------------------*\
  =========                 |
  \\      /  F ield         | OpenFOAM: The Open Source CFD Toolbox
   \\    /   O peration     | Website:  https://openfoam.org
    \\  /    A nd           | Version:  8
     \\/     M anipulation  |
\*---------------------------------------------------------------------------*/
FoamFile
{
    version     2.0;
    format      ascii;
    class       volScalarField;
    location    "0.9";
    object      p;
}
// * * * * * * * * * * * * * * * * * * * * * * * * * * * * * * * * * * * * * //

dimensions      [0 2 -2 0 0 0 0];

internalField   nonuniform List<scalar> 
400
(
1.43378e-12
-3.97312e-07
-5.93992e-07
-6.48011e-07
-6.31626e-07
-5.76246e-07
-5.10089e-07
-4.55304e-07
-4.13788e-07
-3.82862e-07
-3.58086e-07
-3.20576e-07
-2.49092e-07
-1.40188e-07
-1.78973e-09
1.67752e-07
3.80843e-07
6.07488e-07
6.91514e-07
4.6305e-07
-1.08873e-07
-4.2927e-07
-5.32443e-07
-5.26726e-07
-4.91332e-07
-4.3943e-07
-3.95284e-07
-3.69977e-07
-3.5417e-07
-3.46198e-07
-3.45145e-07
-3.3263e-07
-2.89005e-07
-2.14448e-07
-1.19018e-07
8.25085e-10
1.72057e-07
3.87414e-07
4.97103e-07
3.02585e-07
-2.19405e-07
-5.29496e-07
-5.51149e-07
-4.70232e-07
-4.04744e-07
-3.55428e-07
-3.27688e-07
-3.24291e-07
-3.30659e-07
-3.41125e-07
-3.5505e-07
-3.57622e-07
-3.31751e-07
-2.77071e-07
-2.01895e-07
-1.00737e-07
6.40119e-08
3.03384e-07
4.41775e-07
2.31104e-07
-2.94057e-07
-6.18229e-07
-5.90021e-07
-4.49224e-07
-3.58653e-07
-3.14941e-07
-3.0538e-07
-3.22628e-07
-3.46306e-07
-3.69401e-07
-3.93179e-07
-4.0403e-07
-3.83809e-07
-3.31161e-07
-2.55899e-07
-1.54134e-07
2.04466e-08
2.91679e-07
4.62747e-07
2.28841e-07
-3.02989e-07
-6.68327e-07
-6.13526e-07
-4.31651e-07
-3.30539e-07
-2.9865e-07
-3.08208e-07
-3.45555e-07
-3.86538e-07
-4.22054e-07
-4.52161e-07
-4.62704e-07
-4.36494e-07
-3.74713e-07
-2.89913e-07
-1.78766e-07
1.45142e-08
3.28287e-07
5.42718e-07
2.94279e-07
-2.64343e-07
-6.90855e-07
-6.26106e-07
-4.15665e-07
-3.11278e-07
-2.94221e-07
-3.2379e-07
-3.81939e-07
-4.40628e-07
-4.85724e-07
-5.14536e-07
-5.15261e-07
-4.7631e-07
-4.03143e-07
-3.08447e-07
-1.85207e-07
3.21782e-08
3.9606e-07
6.64501e-07
4.08078e-07
-2.17267e-07
-7.10075e-07
-6.44761e-07
-4.11166e-07
-3.04385e-07
-3.02773e-07
-3.52713e-07
-4.29325e-07
-4.99685e-07
-5.45616e-07
-5.64425e-07
-5.5023e-07
-4.98839e-07
-4.17994e-07
-3.168e-07
-1.8289e-07
5.69846e-08
4.66479e-07
7.87623e-07
5.2833e-07
-1.83673e-07
-7.37719e-07
-6.77645e-07
-4.24918e-07
-3.16284e-07
-3.28924e-07
-3.94657e-07
-4.81063e-07
-5.52564e-07
-5.90111e-07
-5.9323e-07
-5.63151e-07
-5.02998e-07
-4.20533e-07
-3.17949e-07
-1.77116e-07
7.86939e-08
5.20828e-07
8.83558e-07
6.25123e-07
-1.682e-07
-7.75462e-07
-7.26833e-07
-4.6184e-07
-3.5212e-07
-3.74051e-07
-4.45841e-07
-5.30081e-07
-5.92598e-07
-6.16107e-07
-6.02118e-07
-5.57425e-07
-4.91493e-07
-4.11561e-07
-3.11973e-07
-1.68833e-07
9.45558e-08
5.53624e-07
9.4298e-07
6.88009e-07
-1.70927e-07
-8.21877e-07
-7.90395e-07
-5.21237e-07
-4.1041e-07
-4.34183e-07
-5.00928e-07
-5.72248e-07
-6.19168e-07
-6.27553e-07
-5.99037e-07
-5.42894e-07
-4.73261e-07
-3.97269e-07
-3.02656e-07
-1.60853e-07
1.02371e-07
5.63623e-07
9.64726e-07
7.15171e-07
-1.93212e-07
-8.76242e-07
-8.65143e-07
-5.98351e-07
-4.85544e-07
-5.04161e-07
-5.57152e-07
-6.08486e-07
-6.3692e-07
-6.32094e-07
-5.93782e-07
-5.30477e-07
-4.58829e-07
-3.86112e-07
-2.95531e-07
-1.56244e-07
1.00773e-07
5.50771e-07
9.49067e-07
7.05621e-07
-2.33236e-07
-9.34762e-07
-9.45156e-07
-6.86028e-07
-5.71288e-07
-5.80939e-07
-6.15945e-07
-6.4443e-07
-6.53972e-07
-6.38269e-07
-5.94056e-07
-5.26584e-07
-4.52927e-07
-3.80526e-07
-2.90373e-07
-1.52624e-07
9.305e-08
5.18273e-07
8.98601e-07
6.60846e-07
-2.8139e-07
-9.86736e-07
-1.02048e-06
-7.75947e-07
-6.62225e-07
-6.63455e-07
-6.81164e-07
-6.8796e-07
-6.79948e-07
-6.54699e-07
-6.05561e-07
-5.33367e-07
-4.5446e-07
-3.76887e-07
-2.81921e-07
-1.43928e-07
8.5727e-08
4.73229e-07
8.20762e-07
5.88513e-07
-3.23158e-07
-1.01697e-06
-1.07885e-06
-8.59423e-07
-7.52583e-07
-7.49175e-07
-7.54154e-07
-7.43978e-07
-7.21527e-07
-6.87237e-07
-6.31134e-07
-5.50041e-07
-4.59753e-07
-3.70215e-07
-2.65301e-07
-1.2545e-07
8.51739e-08
4.25353e-07
7.27404e-07
5.01624e-07
-3.48488e-07
-1.01405e-06
-1.11022e-06
-9.29518e-07
-8.37163e-07
-8.33692e-07
-8.31761e-07
-8.10927e-07
-7.77827e-07
-7.3407e-07
-6.67073e-07
-5.71242e-07
-4.6343e-07
-3.56806e-07
-2.38871e-07
-9.58217e-08
9.59888e-08
3.84385e-07
6.31278e-07
4.13256e-07
-3.59195e-07
-9.81333e-07
-1.1137e-06
-9.84267e-07
-9.14908e-07
-9.15674e-07
-9.11021e-07
-8.83662e-07
-8.41206e-07
-7.85299e-07
-7.02664e-07
-5.8789e-07
-4.59858e-07
-3.34613e-07
-2.02492e-07
-5.40747e-08
1.22397e-07
3.58968e-07
5.44626e-07
3.32289e-07
-3.63052e-07
-9.37304e-07
-1.10084e-06
-1.02705e-06
-9.86999e-07
-9.95877e-07
-9.90255e-07
-9.55845e-07
-9.00852e-07
-8.2832e-07
-7.27286e-07
-5.93844e-07
-4.46861e-07
-3.02661e-07
-1.5452e-07
1.34583e-09
1.65149e-07
3.53019e-07
4.76422e-07
2.60117e-07
-3.62777e-07
-8.97065e-07
-1.09101e-06
-1.07158e-06
-1.06026e-06
-1.07506e-06
-1.06465e-06
-1.01772e-06
-9.45089e-07
-8.53509e-07
-7.34746e-07
-5.84517e-07
-4.19354e-07
-2.55055e-07
-8.85353e-08
7.65452e-08
2.27886e-07
3.69819e-07
4.30663e-07
1.97832e-07
-3.64179e-07
-8.81272e-07
-1.11709e-06
-1.15509e-06
-1.16404e-06
-1.17084e-06
-1.14177e-06
-1.07194e-06
-9.76611e-07
-8.65314e-07
-7.29107e-07
-5.60545e-07
-3.74292e-07
-1.87538e-07
5.04482e-11
1.80514e-07
3.28662e-07
4.31469e-07
4.29705e-07
1.69818e-07
-3.6843e-07
-9.47115e-07
-1.25525e-06
-1.33597e-06
-1.34007e-06
-1.31346e-06
-1.24686e-06
-1.14302e-06
-1.01865e-06
-8.82728e-07
-7.25221e-07
-5.35915e-07
-3.24276e-07
-1.06562e-07
1.10278e-07
3.1584e-07
4.863e-07
5.90283e-07
5.48298e-07
2.26757e-07
)
;

boundaryField
{
    movingWall
    {
        type            zeroGradient;
    }
    fixedWalls
    {
        type            zeroGradient;
    }
    left
    {
        type            cyclic;
    }
    right
    {
        type            cyclic;
    }
    frontAndBack
    {
        type            empty;
    }
}


// ************************************************************************* //
