/*--------------------------------*- C++ -*----------------------------------*\
  =========                 |
  \\      /  F ield         | OpenFOAM: The Open Source CFD Toolbox
   \\    /   O peration     | Website:  https://openfoam.org
    \\  /    A nd           | Version:  8
     \\/     M anipulation  |
\*---------------------------------------------------------------------------*/
FoamFile
{
    version     2.0;
    format      ascii;
    class       surfaceScalarField;
    location    "0.9";
    object      phi;
}
// * * * * * * * * * * * * * * * * * * * * * * * * * * * * * * * * * * * * * //

dimensions      [0 3 -1 0 0 0 0];

internalField   nonuniform List<scalar> 
760
(
1.24884e-06
1.69923e-13
1.24884e-06
2.1135e-12
1.24883e-06
2.73207e-12
1.24883e-06
2.49669e-12
1.24883e-06
2.0897e-12
1.24883e-06
1.6845e-12
1.24883e-06
1.36221e-12
1.24883e-06
1.11431e-12
1.24883e-06
8.68786e-13
1.24882e-06
6.29334e-13
1.24882e-06
4.1899e-13
1.24882e-06
1.98006e-13
1.24882e-06
-9.18068e-14
1.24882e-06
-4.78909e-13
1.24883e-06
-9.88651e-13
1.24883e-06
-1.68372e-12
1.24883e-06
-2.6511e-12
1.24883e-06
-3.66478e-12
1.24884e-06
-3.87927e-12
-2.43984e-12
3.74654e-06
-2.12836e-14
3.74653e-06
4.77617e-12
3.74653e-06
6.67502e-12
3.74653e-06
6.55623e-12
3.74652e-06
5.78356e-12
3.74652e-06
4.90187e-12
3.74652e-06
4.06589e-12
3.74651e-06
3.30993e-12
3.74651e-06
2.59847e-12
3.74651e-06
1.89779e-12
3.74651e-06
1.18143e-12
3.74651e-06
3.95747e-13
3.74651e-06
-5.33517e-13
3.74651e-06
-1.68519e-12
3.74651e-06
-3.14718e-12
3.74652e-06
-5.0066e-12
3.74652e-06
-7.24959e-12
3.74653e-06
-9.28084e-12
3.74653e-06
-9.33786e-12
-5.8801e-12
6.24431e-06
-7.34553e-13
6.24431e-06
6.3546e-12
6.2443e-06
9.64912e-12
6.2443e-06
1.00681e-11
6.2443e-06
9.2449e-12
6.24429e-06
8.065e-12
6.24429e-06
6.83319e-12
6.24429e-06
5.62939e-12
6.24429e-06
4.44026e-12
6.24429e-06
3.23887e-12
6.24429e-06
1.98279e-12
6.24428e-06
5.94885e-13
6.24429e-06
-1.02434e-12
6.24429e-06
-2.97687e-12
6.24429e-06
-5.35236e-12
6.24429e-06
-8.19066e-12
6.2443e-06
-1.13319e-11
6.2443e-06
-1.3891e-11
6.24431e-06
-1.37442e-11
-8.8553e-12
8.74222e-06
-1.84985e-12
8.74222e-06
6.63363e-12
8.74222e-06
1.11323e-11
8.74221e-06
1.22356e-11
8.74221e-06
1.1671e-11
8.74221e-06
1.04756e-11
8.74221e-06
9.04459e-12
8.74221e-06
7.54298e-12
8.7422e-06
6.01012e-12
8.7422e-06
4.42434e-12
8.7422e-06
2.7299e-12
8.7422e-06
8.42846e-13
8.7422e-06
-1.3364e-12
8.7422e-06
-3.9045e-12
8.7422e-06
-6.92736e-12
8.74221e-06
-1.03801e-11
8.74221e-06
-1.39958e-11
8.74221e-06
-1.67699e-11
8.74222e-06
-1.65075e-11
-1.10717e-11
1.12403e-05
-3.08773e-12
1.12403e-05
5.85161e-12
1.12403e-05
1.11401e-11
1.12403e-05
1.28891e-11
1.12403e-05
1.27342e-11
1.12403e-05
1.17285e-11
1.12403e-05
1.03301e-11
1.12403e-05
8.75262e-12
1.12403e-05
7.06791e-12
1.12403e-05
5.27361e-12
1.12403e-05
3.32502e-12
1.12403e-05
1.14578e-12
1.12403e-05
-1.35417e-12
1.12403e-05
-4.25159e-12
1.12403e-05
-7.57786e-12
1.12403e-05
-1.12603e-11
1.12403e-05
-1.49859e-11
1.12403e-05
-1.77844e-11
1.12403e-05
-1.75826e-11
-1.2354e-11
1.37387e-05
-4.21518e-12
1.37387e-05
4.35621e-12
1.37387e-05
9.88666e-12
1.37387e-05
1.21025e-11
1.37387e-05
1.23895e-11
1.37387e-05
1.17138e-11
1.37387e-05
1.05361e-11
1.37387e-05
9.08823e-12
1.37387e-05
7.4608e-12
1.37387e-05
5.67206e-12
1.37387e-05
3.69715e-12
1.37387e-05
1.47619e-12
1.37387e-05
-1.06464e-12
1.37387e-05
-3.97828e-12
1.37387e-05
-7.26249e-12
1.37387e-05
-1.08208e-11
1.37387e-05
-1.43502e-11
1.37387e-05
-1.70249e-11
1.37387e-05
-1.70584e-11
-1.26046e-11
1.62373e-05
-5.03779e-12
1.62373e-05
2.45728e-12
1.62373e-05
7.69133e-12
1.62373e-05
1.01237e-11
1.62373e-05
1.07886e-11
1.62373e-05
1.05015e-11
1.62373e-05
9.67368e-12
1.62373e-05
8.52508e-12
1.62373e-05
7.14851e-12
1.62373e-05
5.57498e-12
1.62373e-05
3.79893e-12
1.62373e-05
1.78134e-12
1.62373e-05
-5.29938e-13
1.62373e-05
-3.1636e-12
1.62373e-05
-6.09333e-12
1.62373e-05
-9.22425e-12
1.62373e-05
-1.23112e-11
1.62373e-05
-1.4737e-11
1.62373e-05
-1.51212e-11
-1.18468e-11
1.87362e-05
-5.42747e-12
1.87362e-05
4.12783e-13
1.87362e-05
4.88382e-12
1.87362e-05
7.25681e-12
1.87362e-05
8.18533e-12
1.87362e-05
8.28474e-12
1.87362e-05
7.8803e-12
1.87362e-05
7.15375e-12
1.87362e-05
6.18241e-12
1.87362e-05
4.99951e-12
1.87362e-05
3.61458e-12
1.87362e-05
2.00989e-12
1.87362e-05
1.56329e-13
1.87362e-05
-1.9526e-12
1.87362e-05
-4.27655e-12
1.87362e-05
-6.73959e-12
1.87362e-05
-9.18647e-12
1.87362e-05
-1.12462e-11
1.87362e-05
-1.20146e-11
-1.01768e-11
2.12355e-05
-5.33676e-12
2.12355e-05
-1.57566e-12
2.12355e-05
1.75981e-12
2.12355e-05
3.81889e-12
2.12355e-05
4.88276e-12
2.12355e-05
5.33132e-12
2.12355e-05
5.37828e-12
2.12355e-05
5.14664e-12
2.12355e-05
4.68379e-12
2.12355e-05
4.0156e-12
2.12355e-05
3.16119e-12
2.12355e-05
2.12247e-12
2.12355e-05
8.92784e-13
2.12355e-05
-5.14929e-13
2.12355e-05
-2.05446e-12
2.12355e-05
-3.67939e-12
2.12355e-05
-5.33777e-12
2.12355e-05
-6.92098e-12
2.12355e-05
-8.03306e-12
-7.74049e-12
2.37351e-05
-4.78885e-12
2.37351e-05
-3.36391e-12
2.37351e-05
-1.42956e-12
2.37351e-05
1.1861e-13
2.37352e-05
1.20276e-12
2.37352e-05
1.94877e-12
2.37352e-05
2.44166e-12
2.37352e-05
2.73169e-12
2.37352e-05
2.82693e-12
2.37352e-05
2.73902e-12
2.37352e-05
2.49152e-12
2.37352e-05
2.10322e-12
2.37352e-05
1.58866e-12
2.37352e-05
9.78391e-13
2.37352e-05
3.2079e-13
2.37352e-05
-3.70198e-13
2.37352e-05
-1.14434e-12
2.37351e-05
-2.1519e-12
2.37351e-05
-3.50866e-12
-4.73453e-12
2.62351e-05
-3.86689e-12
2.62351e-05
-4.86616e-12
2.62351e-05
-4.47677e-12
2.62352e-05
-3.55589e-12
2.62352e-05
-2.53145e-12
2.62352e-05
-1.53729e-12
2.62352e-05
-6.26109e-13
2.62352e-05
1.72483e-13
2.62352e-05
8.23347e-13
2.62352e-05
1.32084e-12
2.62352e-05
1.68922e-12
2.62352e-05
1.96157e-12
2.62352e-05
2.17275e-12
2.62352e-05
2.37077e-12
2.62352e-05
2.60713e-12
2.62352e-05
2.8685e-12
2.62352e-05
3.01672e-12
2.62352e-05
2.66341e-12
2.62351e-05
1.19888e-12
-1.40498e-12
2.87355e-05
-2.70492e-12
2.87355e-05
-6.04394e-12
2.87355e-05
-7.20898e-12
2.87355e-05
-6.93822e-12
2.87355e-05
-6.00401e-12
2.87355e-05
-4.79778e-12
2.87355e-05
-3.51055e-12
2.87355e-05
-2.25129e-12
2.87355e-05
-1.09615e-12
2.87355e-05
-6.70773e-14
2.87355e-05
8.59616e-13
2.87355e-05
1.72937e-12
2.87355e-05
2.59717e-12
2.87355e-05
3.52982e-12
2.87355e-05
4.58645e-12
2.87355e-05
5.73827e-12
2.87355e-05
6.78182e-12
2.87355e-05
7.12884e-12
2.87355e-05
5.70942e-12
1.96227e-12
3.12362e-05
-1.47341e-12
3.12362e-05
-6.8881e-12
3.12362e-05
-9.47265e-12
3.12363e-05
-9.77709e-12
3.12363e-05
-8.90999e-12
3.12363e-05
-7.51197e-12
3.12363e-05
-5.90372e-12
3.12363e-05
-4.26443e-12
3.12363e-05
-2.7023e-12
3.12363e-05
-1.25056e-12
3.12363e-05
1.15515e-13
3.12363e-05
1.45221e-12
3.12363e-05
2.8348e-12
3.12363e-05
4.35037e-12
3.12363e-05
6.07187e-12
3.12363e-05
7.97097e-12
3.12363e-05
9.8099e-12
3.12363e-05
1.08572e-11
3.12362e-05
9.63279e-12
5.05872e-12
3.37373e-05
-3.53832e-13
3.37373e-05
-7.40054e-12
3.37373e-05
-1.11143e-11
3.37373e-05
-1.18256e-11
3.37373e-05
-1.09566e-11
3.37373e-05
-9.37982e-12
3.37373e-05
-7.52417e-12
3.37373e-05
-5.62053e-12
3.37373e-05
-3.7929e-12
3.37373e-05
-2.07666e-12
3.37373e-05
-4.43127e-13
3.37373e-05
1.17566e-12
3.37373e-05
2.87209e-12
3.37373e-05
4.75412e-12
3.37373e-05
6.91354e-12
3.37373e-05
9.33918e-12
3.37373e-05
1.17961e-11
3.37373e-05
1.3481e-11
3.37373e-05
1.25865e-11
7.56994e-12
3.62387e-05
5.01867e-13
3.62387e-05
-7.5694e-12
3.62387e-05
-1.19592e-11
3.62387e-05
-1.28325e-11
3.62387e-05
-1.18696e-11
3.62387e-05
-1.01423e-11
3.62387e-05
-8.14701e-12
3.62387e-05
-6.13565e-12
3.62387e-05
-4.22578e-12
3.62387e-05
-2.44313e-12
3.62387e-05
-7.50344e-13
3.62387e-05
9.30308e-13
3.62387e-05
2.70352e-12
3.62387e-05
4.69283e-12
3.62387e-05
7.00951e-12
3.62387e-05
9.67351e-12
3.62387e-05
1.24926e-11
3.62387e-05
1.46707e-11
3.62387e-05
1.4217e-11
9.18312e-12
3.87404e-05
1.00138e-12
3.87404e-05
-7.32036e-12
3.87404e-05
-1.17927e-11
3.87404e-05
-1.25529e-11
3.87404e-05
-1.14286e-11
3.87404e-05
-9.6268e-12
3.87404e-05
-7.6513e-12
3.87404e-05
-5.7329e-12
3.87404e-05
-3.95756e-12
3.87404e-05
-2.32849e-12
3.87404e-05
-7.95628e-13
3.87404e-05
7.23603e-13
3.87404e-05
2.3331e-12
3.87404e-05
4.1579e-12
3.87404e-05
6.32431e-12
3.87404e-05
8.89209e-12
3.87404e-05
1.17436e-11
3.87404e-05
1.41766e-11
3.87404e-05
1.42253e-11
9.60942e-12
4.12423e-05
1.08968e-12
4.12422e-05
-6.4796e-12
4.12422e-05
-1.03698e-11
4.12422e-05
-1.07738e-11
4.12422e-05
-9.52613e-12
4.12422e-05
-7.82485e-12
4.12422e-05
-6.09521e-12
4.12422e-05
-4.5017e-12
4.12422e-05
-3.08381e-12
4.12422e-05
-1.81594e-12
4.12422e-05
-6.34377e-13
4.12422e-05
5.38369e-13
4.12422e-05
1.78065e-12
4.12422e-05
3.19406e-12
4.12422e-05
4.91609e-12
4.12422e-05
7.05338e-12
4.12422e-05
9.56113e-12
4.12422e-05
1.1907e-11
4.12422e-05
1.23956e-11
8.66916e-12
4.37443e-05
8.10084e-13
4.37443e-05
-4.75835e-12
4.37443e-05
-7.46795e-12
4.37443e-05
-7.4321e-12
4.37443e-05
-6.28602e-12
4.37443e-05
-4.98628e-12
4.37443e-05
-3.78161e-12
4.37443e-05
-2.73593e-12
4.37443e-05
-1.84846e-12
4.37443e-05
-1.08297e-12
4.37443e-05
-3.7768e-13
4.37443e-05
3.29144e-13
4.37443e-05
1.08078e-12
4.37443e-05
1.93903e-12
4.37443e-05
3.01348e-12
4.37443e-05
4.4108e-12
4.37443e-05
6.16691e-12
4.37443e-05
8.01286e-12
4.37443e-05
8.69697e-12
6.29725e-12
4.62466e-05
3.22798e-13
4.62465e-05
-2.15452e-12
4.62465e-05
-3.23609e-12
4.62465e-05
-3.01992e-12
4.62465e-05
-2.39254e-12
4.62465e-05
-1.81905e-12
4.62465e-05
-1.33437e-12
4.62465e-05
-9.35677e-13
4.62465e-05
-6.24324e-13
4.62465e-05
-3.80878e-13
4.62465e-05
-1.50577e-13
4.62465e-05
1.0758e-13
4.62465e-05
3.76994e-13
4.62465e-05
6.57278e-13
4.62465e-05
1.0366e-12
4.62465e-05
1.58977e-12
4.62465e-05
2.3236e-12
4.62465e-05
3.18099e-12
4.62465e-05
3.65994e-12
2.79241e-12
4.87488e-05
4.87488e-05
4.87488e-05
4.87488e-05
4.87488e-05
4.87488e-05
4.87488e-05
4.87488e-05
4.87488e-05
4.87488e-05
4.87488e-05
4.87488e-05
4.87488e-05
4.87488e-05
4.87488e-05
4.87488e-05
4.87488e-05
4.87488e-05
4.87488e-05
)
;

boundaryField
{
    movingWall
    {
        type            calculated;
        value           uniform 0;
    }
    fixedWalls
    {
        type            calculated;
        value           uniform 0;
    }
    left
    {
        type            cyclic;
        value           nonuniform List<scalar> 
20
(
-3.87404e-05
-3.62387e-05
-3.37373e-05
-3.12362e-05
-2.87355e-05
-2.62351e-05
-2.37351e-05
-2.12355e-05
-1.87362e-05
-1.62373e-05
-1.37387e-05
-1.12403e-05
-8.74222e-06
-6.24431e-06
-3.74654e-06
-1.24884e-06
-4.12423e-05
-4.37443e-05
-4.62466e-05
-4.87488e-05
)
;
    }
    right
    {
        type            cyclic;
        value           nonuniform List<scalar> 
20
(
3.87404e-05
3.62387e-05
3.37373e-05
3.12362e-05
2.87355e-05
2.62351e-05
2.37351e-05
2.12355e-05
1.87362e-05
1.62373e-05
1.37387e-05
1.12403e-05
8.74222e-06
6.24431e-06
3.74654e-06
1.24884e-06
4.12423e-05
4.37443e-05
4.62466e-05
4.87488e-05
)
;
    }
    frontAndBack
    {
        type            empty;
        value           nonuniform List<scalar> 0();
    }
}


// ************************************************************************* //
