/*--------------------------------*- C++ -*----------------------------------*\
  =========                 |
  \\      /  F ield         | OpenFOAM: The Open Source CFD Toolbox
   \\    /   O peration     | Website:  https://openfoam.org
    \\  /    A nd           | Version:  8
     \\/     M anipulation  |
\*---------------------------------------------------------------------------*/
FoamFile
{
    version     2.0;
    format      ascii;
    class       volVectorField;
    location    "0.9";
    object      U;
}
// * * * * * * * * * * * * * * * * * * * * * * * * * * * * * * * * * * * * * //

dimensions      [0 1 -1 0 0 0 0];

internalField   nonuniform List<vector> 
400
(
(0.0249768 -1.27291e-09 0)
(0.0249768 1.82605e-08 0)
(0.0249767 2.33145e-08 0)
(0.0249767 2.07108e-08 0)
(0.0249766 1.71221e-08 0)
(0.0249766 1.35093e-08 0)
(0.0249766 1.07469e-08 0)
(0.0249765 8.77625e-09 0)
(0.0249765 6.58826e-09 0)
(0.0249765 4.42902e-09 0)
(0.0249765 2.92129e-09 0)
(0.0249765 1.57271e-09 0)
(0.0249765 -5.74272e-10 0)
(0.0249765 -3.92953e-09 0)
(0.0249765 -8.63849e-09 0)
(0.0249765 -1.5383e-08 0)
(0.0249766 -2.54531e-08 0)
(0.0249766 -3.70634e-08 0)
(0.0249767 -4.101e-08 0)
(0.0249768 -2.71317e-08 0)
(0.0749307 3.43495e-09 0)
(0.0749307 6.97361e-08 0)
(0.0749306 9.46292e-08 0)
(0.0749306 8.95742e-08 0)
(0.0749305 7.69743e-08 0)
(0.0749304 6.40245e-08 0)
(0.0749303 5.24128e-08 0)
(0.0749303 4.25271e-08 0)
(0.0749303 3.3372e-08 0)
(0.0749302 2.4502e-08 0)
(0.0749302 1.58571e-08 0)
(0.0749302 6.50268e-09 0)
(0.0749302 -4.97139e-09 0)
(0.0749302 -1.9708e-08 0)
(0.0749302 -3.89163e-08 0)
(0.0749303 -6.43396e-08 0)
(0.0749304 -9.72028e-08 0)
(0.0749305 -1.28806e-07 0)
(0.0749306 -1.32047e-07 0)
(0.0749307 -8.32183e-08 0)
(0.124886 -6.08195e-09 0)
(0.124886 1.1675e-07 0)
(0.124886 1.68764e-07 0)
(0.124886 1.70888e-07 0)
(0.124886 1.53536e-07 0)
(0.124886 1.31449e-07 0)
(0.124886 1.10049e-07 0)
(0.124886 9.00625e-08 0)
(0.124886 7.06848e-08 0)
(0.124886 5.14643e-08 0)
(0.124886 3.16866e-08 0)
(0.124886 9.81871e-09 0)
(0.124886 -1.59696e-08 0)
(0.124886 -4.74665e-08 0)
(0.124886 -8.65538e-08 0)
(0.124886 -1.34758e-07 0)
(0.124886 -1.9041e-07 0)
(0.124886 -2.38311e-07 0)
(0.124886 -2.37377e-07 0)
(0.124886 -1.50367e-07 0)
(0.174844 -2.49612e-08 0)
(0.174844 1.35803e-07 0)
(0.174844 2.15099e-07 0)
(0.174844 2.2995e-07 0)
(0.174844 2.14926e-07 0)
(0.174844 1.89994e-07 0)
(0.174844 1.62069e-07 0)
(0.174844 1.33952e-07 0)
(0.174844 1.06063e-07 0)
(0.174844 7.75673e-08 0)
(0.174844 4.72016e-08 0)
(0.174844 1.34496e-08 0)
(0.174844 -2.55006e-08 0)
(0.174844 -7.17027e-08 0)
(0.174844 -1.2697e-07 0)
(0.174844 -1.91634e-07 0)
(0.174844 -2.61126e-07 0)
(0.174844 -3.15694e-07 0)
(0.174844 -3.11132e-07 0)
(0.174844 -2.03618e-07 0)
(0.224806 -4.81099e-08 0)
(0.224806 1.30106e-07 0)
(0.224806 2.30429e-07 0)
(0.224806 2.59376e-07 0)
(0.224806 2.51395e-07 0)
(0.224806 2.28325e-07 0)
(0.224806 1.99011e-07 0)
(0.224806 1.67145e-07 0)
(0.224806 1.3375e-07 0)
(0.224806 9.86589e-08 0)
(0.224806 6.10002e-08 0)
(0.224806 1.92059e-08 0)
(0.224806 -2.87363e-08 0)
(0.224806 -8.4744e-08 0)
(0.224806 -1.49861e-07 0)
(0.224806 -2.22941e-07 0)
(0.224806 -2.97848e-07 0)
(0.224806 -3.54033e-07 0)
(0.224806 -3.48107e-07 0)
(0.224806 -2.38136e-07 0)
(0.274773 -7.31742e-08 0)
(0.274773 1.05303e-07 0)
(0.274773 2.1612e-07 0)
(0.274773 2.56752e-07 0)
(0.274773 2.58186e-07 0)
(0.274773 2.40906e-07 0)
(0.274773 2.14262e-07 0)
(0.274773 1.82856e-07 0)
(0.274773 1.48486e-07 0)
(0.274773 1.11457e-07 0)
(0.274773 7.11039e-08 0)
(0.274773 2.59832e-08 0)
(0.274773 -2.56621e-08 0)
(0.274773 -8.52077e-08 0)
(0.274773 -1.5293e-07 0)
(0.274773 -2.26912e-07 0)
(0.274773 -3.00621e-07 0)
(0.274773 -3.55664e-07 0)
(0.274773 -3.52823e-07 0)
(0.274773 -2.53604e-07 0)
(0.324746 -9.42041e-08 0)
(0.324746 6.95609e-08 0)
(0.324746 1.79769e-07 0)
(0.324746 2.27719e-07 0)
(0.324746 2.37767e-07 0)
(0.324746 2.27931e-07 0)
(0.324746 2.07187e-07 0)
(0.324746 1.80311e-07 0)
(0.324746 1.49321e-07 0)
(0.324746 1.14772e-07 0)
(0.324746 7.63049e-08 0)
(0.324746 3.28296e-08 0)
(0.324746 -1.69582e-08 0)
(0.324746 -7.38188e-08 0)
(0.324746 -1.37366e-07 0)
(0.324746 -2.05585e-07 0)
(0.324746 -2.72772e-07 0)
(0.324746 -3.24227e-07 0)
(0.324746 -3.27843e-07 0)
(0.324746 -2.48855e-07 0)
(0.374724 -1.07065e-07 0)
(0.374724 2.8787e-08 0)
(0.374725 1.27975e-07 0)
(0.374725 1.77508e-07 0)
(0.374725 1.94085e-07 0)
(0.374725 1.92225e-07 0)
(0.374725 1.79558e-07 0)
(0.374725 1.60299e-07 0)
(0.374725 1.36248e-07 0)
(0.374725 1.08061e-07 0)
(0.374725 7.57321e-08 0)
(0.374725 3.86326e-08 0)
(0.374725 -4.07125e-09 0)
(0.374725 -5.2665e-08 0)
(0.374725 -1.06346e-07 0)
(0.374725 -1.63313e-07 0)
(0.374725 -2.19505e-07 0)
(0.374725 -2.64927e-07 0)
(0.374724 -2.7646e-07 0)
(0.374724 -2.24417e-07 0)
(0.42471 -1.10031e-07 0)
(0.42471 -1.23697e-08 0)
(0.42471 6.7257e-08 0)
(0.42471 1.12726e-07 0)
(0.42471 1.33254e-07 0)
(0.42471 1.38949e-07 0)
(0.42471 1.35361e-07 0)
(0.42471 1.25627e-07 0)
(0.42471 1.11027e-07 0)
(0.42471 9.21602e-08 0)
(0.42471 6.93195e-08 0)
(0.42471 4.23378e-08 0)
(0.42471 1.08453e-08 0)
(0.42471 -2.50755e-08 0)
(0.42471 -6.44884e-08 0)
(0.42471 -1.06096e-07 0)
(0.42471 -1.47816e-07 0)
(0.42471 -1.84842e-07 0)
(0.42471 -2.04052e-07 0)
(0.42471 -1.82543e-07 0)
(0.474703 -1.03344e-07 0)
(0.474703 -5.06905e-08 0)
(0.474703 2.95362e-09 0)
(0.474703 3.97591e-08 0)
(0.474703 6.174e-08 0)
(0.474703 7.40166e-08 0)
(0.474703 7.96243e-08 0)
(0.474703 8.03066e-08 0)
(0.474703 7.66084e-08 0)
(0.474703 6.89186e-08 0)
(0.474703 5.77046e-08 0)
(0.474703 4.32004e-08 0)
(0.474703 2.54818e-08 0)
(0.474703 4.97508e-09 0)
(0.474703 -1.73595e-08 0)
(0.474703 -4.08891e-08 0)
(0.474703 -6.56029e-08 0)
(0.474703 -9.19828e-08 0)
(0.474703 -1.17273e-07 0)
(0.474703 -1.27001e-07 0)
(0.524703 -8.82902e-08 0)
(0.524703 -8.407e-08 0)
(0.524703 -6.04714e-08 0)
(0.524703 -3.54233e-08 0)
(0.524703 -1.39838e-08 0)
(0.524703 3.76632e-09 0)
(0.524703 1.81357e-08 0)
(0.524703 2.92996e-08 0)
(0.524703 3.69513e-08 0)
(0.524703 4.11491e-08 0)
(0.524703 4.24142e-08 0)
(0.524703 4.1311e-08 0)
(0.524703 3.83506e-08 0)
(0.524703 3.43153e-08 0)
(0.524703 3.01934e-08 0)
(0.524703 2.59608e-08 0)
(0.524703 1.96569e-08 0)
(0.524703 5.73869e-09 0)
(0.524703 -2.32034e-08 0)
(0.524703 -6.24397e-08 0)
(0.57471 -6.69138e-08 0)
(0.57471 -1.11177e-07 0)
(0.57471 -1.19164e-07 0)
(0.57471 -1.07284e-07 0)
(0.57471 -8.75779e-08 0)
(0.574711 -6.53102e-08 0)
(0.574711 -4.2948e-08 0)
(0.574711 -2.19349e-08 0)
(0.574711 -3.44968e-09 0)
(0.574711 1.21962e-08 0)
(0.574711 2.54998e-08 0)
(0.574711 3.72943e-08 0)
(0.574711 4.85163e-08 0)
(0.574711 6.03285e-08 0)
(0.574711 7.38124e-08 0)
(0.574711 8.84542e-08 0)
(0.574711 1.00659e-07 0)
(0.574711 1.00409e-07 0)
(0.57471 7.07509e-08 0)
(0.57471 5.82511e-09 0)
(0.624725 -4.20955e-08 0)
(0.624725 -1.31438e-07 0)
(0.624725 -1.69887e-07 0)
(0.624725 -1.7073e-07 0)
(0.624725 -1.529e-07 0)
(0.624725 -1.26733e-07 0)
(0.624725 -9.73846e-08 0)
(0.624725 -6.78229e-08 0)
(0.624725 -3.99982e-08 0)
(0.624725 -1.45266e-08 0)
(0.624725 9.06797e-09 0)
(0.624725 3.18586e-08 0)
(0.624725 5.51855e-08 0)
(0.624725 8.06077e-08 0)
(0.624725 1.09397e-07 0)
(0.624725 1.40837e-07 0)
(0.624725 1.70272e-07 0)
(0.624725 1.842e-07 0)
(0.624725 1.56955e-07 0)
(0.624725 7.19357e-08 0)
(0.674746 -1.73955e-08 0)
(0.674746 -1.4472e-07 0)
(0.674746 -2.09578e-07 0)
(0.674746 -2.20732e-07 0)
(0.674746 -2.03776e-07 0)
(0.674746 -1.73977e-07 0)
(0.674746 -1.38927e-07 0)
(0.674747 -1.02827e-07 0)
(0.674747 -6.81279e-08 0)
(0.674747 -3.55816e-08 0)
(0.674747 -4.65589e-09 0)
(0.674747 2.59476e-08 0)
(0.674747 5.79284e-08 0)
(0.674747 9.3229e-08 0)
(0.674747 1.33419e-07 0)
(0.674747 1.77953e-07 0)
(0.674746 2.21876e-07 0)
(0.674746 2.49526e-07 0)
(0.674746 2.27615e-07 0)
(0.674746 1.29664e-07 0)
(0.724774 3.36839e-09 0)
(0.724774 -1.51071e-07 0)
(0.724774 -2.35023e-07 0)
(0.724774 -2.52385e-07 0)
(0.724774 -2.34525e-07 0)
(0.724774 -2.01264e-07 0)
(0.724774 -1.62182e-07 0)
(0.724774 -1.22264e-07 0)
(0.724774 -8.40045e-08 0)
(0.724774 -4.80314e-08 0)
(0.724774 -1.36608e-08 0)
(0.724774 2.05867e-08 0)
(0.724774 5.66669e-08 0)
(0.724774 9.68556e-08 0)
(0.724774 1.43146e-07 0)
(0.724774 1.95578e-07 0)
(0.724774 2.49728e-07 0)
(0.724774 2.89197e-07 0)
(0.724774 2.7511e-07 0)
(0.724774 1.72607e-07 0)
(0.774807 1.71698e-08 0)
(0.774807 -1.50595e-07 0)
(0.774807 -2.4265e-07 0)
(0.774807 -2.60714e-07 0)
(0.774807 -2.40192e-07 0)
(0.774807 -2.04379e-07 0)
(0.774807 -1.63781e-07 0)
(0.774807 -1.23511e-07 0)
(0.774807 -8.56324e-08 0)
(0.774807 -5.03989e-08 0)
(0.774807 -1.69375e-08 0)
(0.774807 1.6307e-08 0)
(0.774807 5.13868e-08 0)
(0.774807 9.08346e-08 0)
(0.774807 1.37163e-07 0)
(0.774807 1.91286e-07 0)
(0.774807 2.49936e-07 0)
(0.774807 2.97391e-07 0)
(0.774807 2.93021e-07 0)
(0.774807 1.94618e-07 0)
(0.824845 2.30631e-08 0)
(0.824845 -1.41281e-07 0)
(0.824845 -2.27872e-07 0)
(0.824845 -2.40575e-07 0)
(0.824845 -2.16552e-07 0)
(0.824845 -1.80655e-07 0)
(0.824845 -1.42556e-07 0)
(0.824845 -1.06372e-07 0)
(0.824845 -7.33416e-08 0)
(0.824845 -4.32852e-08 0)
(0.824845 -1.52275e-08 0)
(0.824845 1.23895e-08 0)
(0.824845 4.16533e-08 0)
(0.824845 7.51403e-08 0)
(0.824845 1.15429e-07 0)
(0.824845 1.64031e-07 0)
(0.824845 2.19585e-07 0)
(0.824845 2.6946e-07 0)
(0.824845 2.75723e-07 0)
(0.824845 1.8967e-07 0)
(0.874887 2.08631e-08 0)
(0.874887 -1.16587e-07 0)
(0.874887 -1.84849e-07 0)
(0.874887 -1.88067e-07 0)
(0.874886 -1.62688e-07 0)
(0.874886 -1.31254e-07 0)
(0.874886 -1.00778e-07 0)
(0.874886 -7.35179e-08 0)
(0.874886 -4.98349e-08 0)
(0.874886 -2.90776e-08 0)
(0.874886 -9.90264e-09 0)
(0.874886 9.1785e-09 0)
(0.874886 2.93774e-08 0)
(0.874886 5.23429e-08 0)
(0.874886 8.0904e-08 0)
(0.874886 1.1752e-07 0)
(0.874886 1.61719e-07 0)
(0.874887 2.05409e-07 0)
(0.874887 2.18656e-07 0)
(0.874887 1.55574e-07 0)
(0.924931 1.15532e-08 0)
(0.924931 -7.0239e-08 0)
(0.924931 -1.09151e-07 0)
(0.924931 -1.05606e-07 0)
(0.924931 -8.61864e-08 0)
(0.924931 -6.63605e-08 0)
(0.924931 -4.89853e-08 0)
(0.924931 -3.4489e-08 0)
(0.924931 -2.27659e-08 0)
(0.924931 -1.31652e-08 0)
(0.924931 -4.37382e-09 0)
(0.924931 4.7601e-09 0)
(0.924931 1.45465e-08 0)
(0.924931 2.55535e-08 0)
(0.924931 3.96449e-08 0)
(0.924931 5.86898e-08 0)
(0.924931 8.37208e-08 0)
(0.924931 1.11809e-07 0)
(0.924931 1.2456e-07 0)
(0.924931 9.3124e-08 0)
(0.974977 1.00479e-09 0)
(0.974977 -2.43306e-08 0)
(0.974977 -3.41956e-08 0)
(0.974977 -3.02676e-08 0)
(0.974977 -2.27635e-08 0)
(0.974977 -1.64143e-08 0)
(0.974977 -1.13771e-08 0)
(0.974977 -7.55093e-09 0)
(0.974977 -4.9818e-09 0)
(0.974977 -3.30773e-09 0)
(0.974977 -1.58232e-09 0)
(0.974977 7.92359e-10 0)
(0.974977 3.30856e-09 0)
(0.974977 5.55576e-09 0)
(0.974977 8.60067e-09 0)
(0.974977 1.35813e-08 0)
(0.974977 2.0638e-08 0)
(0.974977 2.94284e-08 0)
(0.974977 3.52154e-08 0)
(0.974977 2.67053e-08 0)
)
;

boundaryField
{
    movingWall
    {
        type            fixedValue;
        value           uniform (1 0 0);
    }
    fixedWalls
    {
        type            noSlip;
    }
    left
    {
        type            cyclic;
    }
    right
    {
        type            cyclic;
    }
    frontAndBack
    {
        type            empty;
    }
}


// ************************************************************************* //
