0 	0 	0 	0
1.57135 	-0.00300177 	0.00300478 	0
3.1427 	-0.00621285 	0.00658832 	0
4.71405 	-0.0093169 	0.0108198 	0
6.28539 	-0.0123567 	0.0172433 	0
7.85674 	-0.0129854 	0.032219 	0
9.42809 	0.0248693 	0.0479304 	0
10.9994 	0.0352447 	0.0046725 	0
12.5708 	0.0141407 	-0.000919011 	0
14.1421 	0.5 	0 	0
