/*--------------------------------*- C++ -*----------------------------------*\
  =========                 |
  \\      /  F ield         | OpenFOAM: The Open Source CFD Toolbox
   \\    /   O peration     | Website:  https://openfoam.org
    \\  /    A nd           | Version:  8
     \\/     M anipulation  |
\*---------------------------------------------------------------------------*/
FoamFile
{
    version     2.0;
    format      ascii;
    class       volScalarField;
    location    "1.78";
    object      p;
}
// * * * * * * * * * * * * * * * * * * * * * * * * * * * * * * * * * * * * * //

dimensions      [0 2 -2 0 0 0 0];

internalField   nonuniform List<scalar> 
400
(
8.44194e-16
1.6957e-15
2.62196e-15
3.47876e-15
4.1441e-15
4.70536e-15
5.14403e-15
5.46695e-15
5.66469e-15
5.79932e-15
5.82193e-15
5.77614e-15
5.71509e-15
5.55749e-15
5.29882e-15
4.8834e-15
4.3457e-15
3.69448e-15
2.83939e-15
1.81375e-15
2.44567e-15
2.73447e-15
3.32602e-15
3.84007e-15
4.32573e-15
4.76205e-15
5.13032e-15
5.46011e-15
5.63412e-15
5.76662e-15
5.74359e-15
5.7151e-15
5.68808e-15
5.56579e-15
5.41298e-15
5.0239e-15
4.57952e-15
4.12938e-15
3.5903e-15
2.91743e-15
3.56606e-15
3.61621e-15
3.96538e-15
4.2337e-15
4.63188e-15
5.03898e-15
5.20573e-15
5.43974e-15
5.68936e-15
5.75848e-15
5.77033e-15
5.71576e-15
5.68942e-15
5.65178e-15
5.57712e-15
5.25991e-15
4.86579e-15
4.67555e-15
4.38992e-15
3.93087e-15
4.27149e-15
4.37545e-15
4.47451e-15
4.58628e-15
4.84981e-15
5.26101e-15
5.5059e-15
5.7089e-15
5.79017e-15
5.87994e-15
5.73729e-15
5.74412e-15
5.82038e-15
5.84433e-15
5.72306e-15
5.55302e-15
5.32475e-15
5.19668e-15
5.0892e-15
4.70607e-15
5.01437e-15
4.91259e-15
4.79408e-15
4.85964e-15
5.35953e-15
5.512e-15
5.6462e-15
5.74565e-15
5.77779e-15
5.91317e-15
5.83365e-15
6.02452e-15
6.14776e-15
5.98263e-15
6.10608e-15
6.09134e-15
5.67844e-15
5.55899e-15
5.46115e-15
5.24474e-15
5.34067e-15
5.3833e-15
5.2007e-15
5.18752e-15
5.62825e-15
5.50705e-15
5.77844e-15
5.94125e-15
5.72438e-15
5.91121e-15
5.9811e-15
6.4185e-15
6.401e-15
6.15854e-15
6.43994e-15
6.37845e-15
5.8238e-15
5.8238e-15
5.85926e-15
5.50939e-15
5.45561e-15
5.51955e-15
5.44775e-15
5.31931e-15
5.70593e-15
5.57943e-15
5.91536e-15
6.00725e-15
5.87025e-15
5.94524e-15
6.18312e-15
6.59297e-15
6.74898e-15
6.54924e-15
6.33823e-15
6.60253e-15
6.39516e-15
6.16616e-15
6.01992e-15
5.88088e-15
5.65731e-15
5.77377e-15
5.50844e-15
5.55305e-15
5.65373e-15
5.82152e-15
6.17768e-15
6.11293e-15
6.10349e-15
6.00368e-15
6.26712e-15
6.60841e-15
6.83758e-15
6.45702e-15
6.63635e-15
6.69554e-15
6.38964e-15
6.27352e-15
6.28722e-15
5.96261e-15
6.01324e-15
6.22128e-15
6.00012e-15
5.60824e-15
5.84479e-15
5.83103e-15
6.13966e-15
6.02091e-15
6.23314e-15
6.46043e-15
6.32802e-15
6.36971e-15
6.46927e-15
5.99205e-15
6.35243e-15
6.51435e-15
6.60052e-15
6.44522e-15
6.22629e-15
6.02503e-15
6.14935e-15
6.39684e-15
6.28669e-15
6.06007e-15
5.97554e-15
5.47195e-15
5.85641e-15
6.13425e-15
6.26493e-15
6.43949e-15
6.37614e-15
6.36511e-15
6.21502e-15
5.99466e-15
6.02469e-15
6.14349e-15
6.55549e-15
6.51908e-15
6.3057e-15
5.898e-15
6.28931e-15
6.32774e-15
5.98575e-15
6.46925e-15
6.42852e-15
5.4623e-15
5.69799e-15
5.91329e-15
6.27891e-15
5.92393e-15
6.13991e-15
6.40367e-15
6.24286e-15
5.92308e-15
5.72917e-15
5.49034e-15
6.09264e-15
6.72713e-15
6.30105e-15
6.26386e-15
6.41629e-15
6.48852e-15
6.03719e-15
6.64753e-15
6.33337e-15
5.79803e-15
5.8047e-15
5.70028e-15
5.88039e-15
5.91534e-15
5.85766e-15
5.96514e-15
6.46923e-15
6.0822e-15
5.58201e-15
5.46012e-15
5.57384e-15
6.38852e-15
6.32697e-15
5.99111e-15
6.89622e-15
6.62348e-15
6.07736e-15
6.54834e-15
6.43061e-15
6.23098e-15
5.82596e-15
5.35023e-15
5.65493e-15
6.0209e-15
5.70083e-15
5.84629e-15
5.96313e-15
6.10597e-15
5.43141e-15
5.46971e-15
5.23536e-15
5.64949e-15
6.04189e-15
6.68529e-15
6.70787e-15
6.41906e-15
5.65792e-15
6.25227e-15
6.66513e-15
6.51678e-15
6.25416e-15
5.40695e-15
5.37235e-15
5.84488e-15
5.73628e-15
5.83736e-15
6.01011e-15
5.60201e-15
5.33563e-15
5.04998e-15
5.66233e-15
6.26342e-15
6.89582e-15
6.65995e-15
6.85625e-15
6.73142e-15
6.23293e-15
6.28083e-15
6.32158e-15
6.55649e-15
6.31271e-15
5.64955e-15
5.60642e-15
5.42401e-15
5.33336e-15
5.13829e-15
5.4344e-15
5.14228e-15
5.21306e-15
5.4768e-15
6.26165e-15
6.84815e-15
7.41378e-15
7.5028e-15
7.63486e-15
7.17984e-15
6.16898e-15
6.47429e-15
5.83857e-15
6.58755e-15
6.74253e-15
5.97162e-15
5.62989e-15
5.25237e-15
5.09016e-15
4.84777e-15
4.71943e-15
4.74552e-15
4.89207e-15
5.90563e-15
7.01177e-15
7.26033e-15
8.0561e-15
7.92924e-15
7.42214e-15
6.73724e-15
5.96539e-15
5.64403e-15
6.49194e-15
6.65464e-15
6.62923e-15
6.1897e-15
5.2258e-15
5.17768e-15
5.12063e-15
4.49276e-15
4.52731e-15
4.82817e-15
5.83145e-15
6.45724e-15
7.20465e-15
7.73089e-15
8.0115e-15
7.37124e-15
6.79326e-15
6.15632e-15
5.53334e-15
5.34913e-15
5.84612e-15
6.2547e-15
6.52335e-15
6.10466e-15
5.70925e-15
5.45966e-15
4.7997e-15
4.6888e-15
4.71193e-15
4.68505e-15
5.66653e-15
6.84897e-15
7.15218e-15
7.83561e-15
8.39462e-15
7.27404e-15
6.32056e-15
5.54416e-15
5.04871e-15
5.04582e-15
5.57546e-15
6.57142e-15
6.81425e-15
6.46361e-15
5.79946e-15
5.5911e-15
5.28964e-15
4.57807e-15
3.94831e-15
4.6358e-15
5.90304e-15
6.89262e-15
7.36111e-15
7.65839e-15
7.75438e-15
7.68902e-15
6.41695e-15
5.90014e-15
4.35818e-15
3.46745e-15
5.08172e-15
6.14417e-15
6.72909e-15
7.21885e-15
5.70667e-15
5.51379e-15
5.2345e-15
4.89357e-15
4.90527e-15
4.56351e-15
5.56397e-15
6.18546e-15
7.43963e-15
7.35854e-15
6.94231e-15
7.04149e-15
)
;

boundaryField
{
    movingWall
    {
        type            zeroGradient;
    }
    fixedWalls
    {
        type            zeroGradient;
    }
    left
    {
        type            cyclic;
    }
    right
    {
        type            cyclic;
    }
    frontAndBack
    {
        type            empty;
    }
}


// ************************************************************************* //
