/*--------------------------------*- C++ -*----------------------------------*\
  =========                 |
  \\      /  F ield         | OpenFOAM: The Open Source CFD Toolbox
   \\    /   O peration     | Website:  https://openfoam.org
    \\  /    A nd           | Version:  8
     \\/     M anipulation  |
\*---------------------------------------------------------------------------*/
FoamFile
{
    version     2.0;
    format      ascii;
    class       surfaceScalarField;
    location    "33";
    object      phi;
}
// * * * * * * * * * * * * * * * * * * * * * * * * * * * * * * * * * * * * * //

dimensions      [0 3 -1 0 0 0 0];

internalField   nonuniform List<scalar> 
880
(
-1.42996e-05
1.42995e-05
-2.92805e-05
1.49809e-05
-4.36223e-05
1.43419e-05
-5.69952e-05
1.33729e-05
-6.91107e-05
1.21155e-05
-7.97071e-05
1.05964e-05
-8.8591e-05
8.88396e-06
-9.55333e-05
6.94227e-06
-0.000100681
5.14777e-06
-0.000103337
2.65597e-06
-0.000105217
1.88004e-06
-5.04985e-07
-0.000104712
-1.56143e-05
2.99138e-05
-3.1941e-05
3.13076e-05
-4.75673e-05
2.99682e-05
-6.21336e-05
2.79392e-05
-7.53318e-05
2.53137e-05
-8.68909e-05
2.21555e-05
-9.66204e-05
1.86134e-05
-0.000104318
1.46398e-05
-0.000110167
1.09968e-05
-0.00011361
6.09941e-06
-0.000116399
4.66911e-06
-1.90206e-06
-0.000115002
-1.63026e-05
4.62164e-05
-3.33445e-05
4.83495e-05
-4.96405e-05
4.62642e-05
-6.48009e-05
4.30996e-05
-7.84864e-05
3.89992e-05
-9.03843e-05
3.40534e-05
-0.000100209
2.8438e-05
-0.000107735
2.21655e-05
-0.000112603
1.58654e-05
-0.000114959
8.45517e-06
-0.00011369
3.39996e-06
-5.68257e-06
-0.000109909
-1.73361e-05
6.35526e-05
-3.54548e-05
6.64682e-05
-5.27751e-05
6.35845e-05
-6.88823e-05
5.92068e-05
-8.3432e-05
5.35489e-05
-9.61162e-05
4.67376e-05
-0.00010669
3.90121e-05
-0.000114927
3.04021e-05
-0.000120448
2.13861e-05
-0.00012331
1.13174e-05
-0.000122181
2.27116e-06
-9.38673e-06
-0.000118477
-1.87626e-05
8.23151e-05
-3.83626e-05
8.60683e-05
-5.70832e-05
8.2305e-05
-7.44561e-05
7.65797e-05
-9.01128e-05
6.92055e-05
-0.000103694
6.03189e-05
-0.000114875
5.01933e-05
-0.000123415
3.8942e-05
-0.000129004
2.69754e-05
-0.000131748
1.40607e-05
-0.000131
1.52364e-06
-1.31048e-05
-0.000127282
-2.06383e-05
0.000102953
-4.21772e-05
0.000107607
-6.27355e-05
0.000102863
-8.17737e-05
9.56178e-05
-9.89315e-05
8.63633e-05
-0.000113838
7.52258e-05
-0.000126249
6.26039e-05
-0.000135984
4.86768e-05
-0.00014267
3.3662e-05
-0.000146107
1.74973e-05
-0.00014533
7.46645e-07
-1.6809e-05
-0.000141626
-2.2974e-05
0.000125927
-4.69396e-05
0.000131573
-6.97989e-05
0.000125723
-9.09007e-05
0.00011672
-0.000109875
0.000105338
-0.000126291
9.16415e-05
-0.000139872
7.61846e-05
-0.000150301
5.91062e-05
-0.000157464
4.0825e-05
-0.000161425
2.14582e-05
-0.000162201
1.52298e-06
-1.99587e-05
-0.000159052
-2.60133e-05
0.000151941
-5.30157e-05
0.000158575
-7.87274e-05
0.000151434
-0.000102266
0.000140258
-0.000123458
0.00012653
-0.000141778
0.000109962
-0.000157166
9.15722e-05
-0.00016949
7.14304e-05
-0.00017839
4.9725e-05
-0.000183494
2.65615e-05
-0.000184059
2.0883e-06
-2.29938e-05
-0.000181024
-2.93528e-05
0.000181293
-5.99013e-05
0.000189124
-8.897e-05
0.000180503
-0.000115528
0.000166817
-0.000139373
0.000150375
-0.000159797
0.000130385
-0.000176615
0.000108391
-0.000189568
8.43836e-05
-0.000198897
5.9053e-05
-0.000204773
3.24376e-05
-0.000207541
4.85692e-06
-2.47659e-05
-0.000205769
-3.45008e-05
0.000215794
-6.96776e-05
0.0002243
-0.00010322
0.000214046
-0.000132865
0.000196461
-0.000159623
0.000177134
-0.000182238
0.000152999
-0.000201657
0.00012781
-0.000217432
0.000100158
-0.000229386
7.1007e-05
-0.000237128
4.01799e-05
-0.000239966
7.69484e-06
-2.61319e-05
-0.0002386
-3.86152e-05
0.000254409
-7.88726e-05
0.000264558
-0.000116874
0.000252047
-0.000150799
0.000230386
-0.000181115
0.000207449
-0.000206231
0.000178115
-0.000226738
0.000148318
-0.000242487
0.000115907
-0.000254309
8.28281e-05
-0.000262562
4.8433e-05
-0.00026818
1.33136e-05
-2.5577e-05
-0.000268735
-4.85696e-05
0.000302979
-9.57895e-05
0.000311778
-0.000140724
0.000296982
-0.000178041
0.000267703
-0.000211652
0.00024106
-0.000238922
0.000205385
-0.000262747
0.000172143
-0.000281816
0.000134976
-0.000297142
9.81543e-05
-0.000308351
5.96418e-05
-0.000315289
2.02519e-05
-2.35318e-05
-0.000317334
-5.13346e-05
0.000354314
-0.000107203
0.000367646
-0.000157419
0.000347198
-0.00020192
0.000312204
-0.000239339
0.000278479
-0.000268852
0.000234898
-0.000292604
0.000195895
-0.000310437
0.000152809
-0.000324224
0.000111941
-0.000334388
6.98055e-05
-0.000343583
2.94474e-05
-1.89962e-05
-0.000348119
-7.77e-05
0.000432014
-0.000139322
0.000429268
-0.000201645
0.00040952
-0.000245472
0.000356031
-0.000286371
0.000319378
-0.000316178
0.000264706
-0.000342315
0.000222032
-0.000362742
0.000173237
-0.000380684
0.000129884
-0.000395353
8.44745e-05
-0.000408958
4.30521e-05
-1.00504e-05
-0.000417904
-6.18541e-05
0.000493868
-0.000151222
0.000518636
-0.000218721
0.000477019
-0.00028097
0.000418281
-0.000323713
0.00036212
-0.000356843
0.000297836
-0.000379698
0.000244886
-0.000395694
0.000189233
-0.000408041
0.000142231
-0.000417457
9.38905e-05
-0.000428295
5.38903e-05
-1.9161e-07
-0.000438154
-0.000160308
0.000654175
-0.000222493
0.000580822
-0.000303732
0.000558258
-0.000348435
0.000462984
-0.000388427
0.000402113
-0.000416778
0.000326186
-0.000438638
0.000266746
-0.000456656
0.00020725
-0.000473335
0.000158911
-0.000490008
0.000110563
-0.000510839
7.47207e-05
2.02051e-05
-0.000531235
-4.80923e-05
0.000702268
-0.000224663
0.000757392
-0.000332513
0.000666108
-0.000417161
0.000547633
-0.000460241
0.000445192
-0.000485207
0.000351153
-0.00049549
0.00027703
-0.000499977
0.000211737
-0.000502212
0.000161146
-0.000505037
0.000113389
-0.000510435
8.01183e-05
3.13654e-05
-0.000521595
-0.000285578
0.000987846
-0.000339127
0.000810942
-0.000426927
0.000753908
-0.000497079
0.000617785
-0.000516093
0.000464205
-0.00054208
0.00037714
-0.000546348
0.000281298
-0.000554144
0.000219533
-0.000559742
0.000166743
-0.000570787
0.000124433
-0.000590877
0.000100209
6.20505e-05
-0.000621563
-0.0010143
0.00200215
-0.00100773
0.000804366
-0.00103745
0.000783628
-0.000908715
0.000489054
-0.000812661
0.000368151
-0.000701407
0.000265885
-0.000614972
0.000194863
-0.000544027
0.000148588
-0.0004875
0.000110216
-0.000447644
8.4578e-05
-0.000409878
6.24429e-05
4.64555e-05
-0.000394283
0.00200215
0.00280651
0.00359014
0.00407919
0.00444735
0.00471323
0.00490809
0.00505668
0.0051669
0.00525148
0.00531392
0.00536038
-8.2452e-05
3.18833e-05
-5.41434e-05
-6.38422e-05
1.31205e-05
-3.17303e-05
-5.22253e-05
-3.14294e-06
-8.47393e-06
-4.12845e-05
-1.55159e-05
4.57511e-06
-3.10806e-05
-2.52095e-05
1.50056e-05
-2.06138e-05
-3.22881e-05
2.18213e-05
-1.00554e-05
-3.68951e-05
2.63368e-05
-3.66642e-05
2.66088e-05
-9.06425e-05
7.5235e-06
-7.11498e-05
-6.37223e-06
-5.84932e-05
-1.57996e-05
-4.64655e-05
-2.75435e-05
-3.51762e-05
-3.64989e-05
-2.34481e-05
-4.40162e-05
-1.14632e-05
-4.88801e-05
-4.81274e-05
-9.74457e-05
-4.94017e-06
-8.51375e-05
-1.86805e-05
-7.20562e-05
-2.88808e-05
-5.8593e-05
-4.10067e-05
-4.44465e-05
-5.06454e-05
-2.97145e-05
-5.87483e-05
-1.45161e-05
-6.40784e-05
-6.26435e-05
-0.000106559
-1.68583e-05
-9.44063e-05
-3.08329e-05
-8.07621e-05
-4.25251e-05
-6.63259e-05
-5.54428e-05
-5.07449e-05
-6.62263e-05
-3.41374e-05
-7.53558e-05
-1.67483e-05
-8.14676e-05
-7.93918e-05
-0.000118647
-2.54932e-05
-0.000107821
-4.16595e-05
-9.40923e-05
-5.62533e-05
-7.82651e-05
-7.127e-05
-6.043e-05
-8.40615e-05
-4.08176e-05
-9.49682e-05
-2.0102e-05
-0.000102183
-9.94938e-05
-0.000133102
-3.40168e-05
-0.000121972
-5.27898e-05
-0.000107512
-7.07136e-05
-9.0187e-05
-8.85947e-05
-7.0276e-05
-0.000103972
-4.77404e-05
-0.000117504
-2.36567e-05
-0.000126267
-0.00012315
-0.000151643
-4.14255e-05
-0.000140307
-6.41262e-05
-0.000125169
-8.58511e-05
-0.000105772
-0.000107992
-8.3284e-05
-0.00012646
-5.67429e-05
-0.000144045
-2.83785e-05
-0.000154631
-0.000151529
-0.000173763
-4.8686e-05
-0.000162085
-7.58047e-05
-0.000146138
-0.000101798
-0.000124606
-0.000129524
-9.92996e-05
-0.000151766
-6.80603e-05
-0.000175284
-3.44444e-05
-0.000188247
-0.000185973
-0.000199529
-5.49258e-05
-0.000187361
-8.79727e-05
-0.000171304
-0.000117855
-0.000146888
-0.00015394
-0.000119224
-0.00017943
-8.18185e-05
-0.00021269
-4.24173e-05
-0.000227648
-0.000228391
-0.000233236
-6.029e-05
-0.000221434
-9.97752e-05
-0.000205263
-0.000134026
-0.000178596
-0.000180607
-0.000147313
-0.000210713
-0.000102401
-0.000257601
-5.40174e-05
-0.000276032
-0.000282408
-0.000266038
-6.29872e-05
-0.000254177
-0.000111636
-0.000240294
-0.000147909
-0.000210794
-0.000210107
-0.000179515
-0.000241992
-0.000125546
-0.00031157
-6.9876e-05
-0.000331702
-0.000352284
-0.000317386
-6.29351e-05
-0.000308742
-0.000120281
-0.000297255
-0.000159396
-0.000267549
-0.000239813
-0.000232958
-0.000276584
-0.00016752
-0.000377008
-9.61172e-05
-0.000403105
-0.000448401
-0.000352789
-5.82651e-05
-0.000345364
-0.000127705
-0.000341657
-0.000163103
-0.000312328
-0.000269142
-0.000287259
-0.000301652
-0.000211641
-0.000452626
-0.000136042
-0.000478704
-0.000584443
-0.000429715
-4.64535e-05
-0.000432967
-0.000124454
-0.000439285
-0.000156784
-0.000418786
-0.000289642
-0.000396745
-0.000323693
-0.00030894
-0.000540431
-0.000209125
-0.000578519
-0.000793568
-0.000453734
-3.08738e-05
-0.000458768
-0.00011942
-0.000480401
-0.000135152
-0.000471392
-0.000298651
-0.000487653
-0.000307432
-0.000408611
-0.000619473
-0.000338875
-0.000648255
-0.00113244
-0.000563049
9.39682e-07
-0.00059453
-8.7939e-05
-0.000645429
-8.42523e-05
-0.000673208
-0.000270872
-0.000720743
-0.000259896
-0.000659796
-0.000680421
-0.000584035
-0.000724016
-0.00171648
-0.000542689
2.20337e-05
-0.000566955
-6.36727e-05
-0.000624889
-2.63182e-05
-0.00067797
-0.000217792
-0.000820012
-0.000117854
-0.000865119
-0.000635314
-0.000919853
-0.000669282
-0.00263633
-0.000674623
7.50939e-05
-0.000749181
1.08859e-05
-0.00086934
9.38399e-05
-0.00101831
-6.88227e-05
-0.00118958
5.34213e-05
-0.00127744
-0.000547459
-0.00101502
-0.000931702
-0.00365135
-0.00035565
3.64605e-05
-0.000356744
1.19799e-05
-0.000280873
1.7969e-05
-0.000278189
-7.15065e-05
-9.85897e-05
-0.000126178
-7.52539e-05
-0.000570795
0.000214782
-0.00122174
-0.00343657
0.00539684
0.00540882
0.00542678
0.00535528
0.0052291
0.00465831
0.00343657
-1.38304e-06
1.38304e-06
-2.58934e-06
1.20631e-06
-3.32045e-06
7.31107e-07
-3.51622e-06
1.95766e-07
-3.16114e-06
-3.55079e-07
-2.35098e-06
-8.10153e-07
-1.21291e-06
-1.13808e-06
-1.21291e-06
-1.58617e-06
2.96921e-06
-2.95259e-06
2.57272e-06
-3.75746e-06
1.53598e-06
-3.92371e-06
3.62017e-07
-3.50097e-06
-7.7782e-07
-2.59547e-06
-1.71566e-06
-1.33716e-06
-2.39639e-06
-2.55006e-06
-2.39953e-06
5.36874e-06
-4.36743e-06
4.54062e-06
-5.44993e-06
2.61848e-06
-5.67664e-06
5.88722e-07
-5.02107e-06
-1.43339e-06
-3.68774e-06
-3.04899e-06
-1.89064e-06
-4.19348e-06
-4.44071e-06
-2.86573e-06
8.23448e-06
-5.16243e-06
6.83731e-06
-6.33866e-06
3.79472e-06
-6.41091e-06
6.60975e-07
-5.58813e-06
-2.25618e-06
-4.08013e-06
-4.55699e-06
-2.08266e-06
-6.19094e-06
-6.52337e-06
-5.49825e-06
1.37327e-05
-9.37269e-06
1.07118e-05
-1.09612e-05
5.38327e-06
-1.09066e-05
6.06298e-07
-9.29033e-06
-3.8724e-06
-6.65501e-06
-7.19231e-06
-3.36476e-06
-9.48119e-06
-9.88814e-06
-6.64864e-06
2.03814e-05
-1.12339e-05
1.5297e-05
-1.29322e-05
7.08163e-06
-1.24962e-05
1.70255e-07
-1.05348e-05
-5.8338e-06
-7.52287e-06
-1.02042e-05
-3.79144e-06
-1.32126e-05
-1.36796e-05
-1.51896e-05
3.5571e-05
-2.30751e-05
2.31825e-05
-2.38946e-05
7.90109e-06
-2.19027e-05
-1.82159e-06
-1.76432e-05
-1.00933e-05
-1.21985e-05
-1.5649e-05
-6.05575e-06
-1.93554e-05
-1.97353e-05
-1.85724e-05
-2.71202e-05
-2.76931e-05
-2.49396e-05
-2.00272e-05
-1.38549e-05
-6.87347e-06
)
;

boundaryField
{
    movingWall
    {
        type            calculated;
        value           uniform 0;
    }
    fixedWalls
    {
        type            calculated;
        value           uniform 0;
    }
    frontAndBack
    {
        type            empty;
        value           nonuniform List<scalar> 0();
    }
}


// ************************************************************************* //
