/*--------------------------------*- C++ -*----------------------------------*\
  =========                 |
  \\      /  F ield         | OpenFOAM: The Open Source CFD Toolbox
   \\    /   O peration     | Website:  https://openfoam.org
    \\  /    A nd           | Version:  8
     \\/     M anipulation  |
\*---------------------------------------------------------------------------*/
FoamFile
{
    version     2.0;
    format      ascii;
    class       surfaceScalarField;
    location    "0.71";
    object      phi;
}
// * * * * * * * * * * * * * * * * * * * * * * * * * * * * * * * * * * * * * //

dimensions      [0 3 -1 0 0 0 0];

internalField   nonuniform List<scalar> 
760
(
1.24621e-06
5.42751e-12
1.2462e-06
9.53067e-12
1.24619e-06
1.02018e-11
1.24618e-06
8.6891e-12
1.24618e-06
6.47531e-12
1.24617e-06
4.40571e-12
1.24617e-06
2.73281e-12
1.24617e-06
1.38428e-12
1.24617e-06
1.92479e-13
1.24617e-06
-8.83892e-13
1.24617e-06
-1.83507e-12
1.24617e-06
-2.75076e-12
1.24618e-06
-3.74676e-12
1.24618e-06
-4.84383e-12
1.24619e-06
-5.98344e-12
1.2462e-06
-7.05376e-12
1.2462e-06
-7.8372e-12
1.24621e-06
-7.72707e-12
1.24622e-06
-5.66363e-12
-7.14248e-13
3.7387e-06
9.29665e-12
3.73869e-06
1.96957e-11
3.73868e-06
2.31907e-11
3.73866e-06
2.15036e-11
3.73865e-06
1.76483e-11
3.73864e-06
1.34128e-11
3.73864e-06
9.39939e-12
3.73863e-06
5.80689e-12
3.73863e-06
2.6037e-12
3.73863e-06
-3.25938e-13
3.73863e-06
-3.1022e-12
3.73863e-06
-5.86261e-12
3.73864e-06
-8.72745e-12
3.73865e-06
-1.1752e-11
3.73866e-06
-1.48902e-11
3.73867e-06
-1.78724e-11
3.73868e-06
-2.01103e-11
3.73869e-06
-2.01238e-11
3.7387e-06
-1.53454e-11
-4.44539e-12
6.23145e-06
8.30143e-12
6.23144e-06
2.38372e-11
6.23143e-06
3.11182e-11
6.23142e-06
3.12978e-11
6.23141e-06
2.76571e-11
6.2314e-06
2.25006e-11
6.2314e-06
1.7008e-11
6.23139e-06
1.17055e-11
6.23139e-06
6.72769e-12
6.23138e-06
2.03705e-12
6.23138e-06
-2.4798e-12
6.23139e-06
-6.98879e-12
6.23139e-06
-1.16491e-11
6.23139e-06
-1.65497e-11
6.2314e-06
-2.16343e-11
6.23141e-06
-2.64733e-11
6.23142e-06
-3.01721e-11
6.23143e-06
-3.07181e-11
6.23144e-06
-2.48775e-11
-1.0648e-11
8.72464e-06
4.59641e-12
8.72464e-06
2.3365e-11
8.72464e-06
3.38976e-11
8.72463e-06
3.64271e-11
8.72463e-06
3.40559e-11
8.72462e-06
2.91698e-11
8.72461e-06
2.31957e-11
8.72461e-06
1.69718e-11
8.7246e-06
1.0873e-11
8.7246e-06
4.97738e-12
8.7246e-06
-7.91827e-13
8.7246e-06
-6.58922e-12
8.7246e-06
-1.25773e-11
8.7246e-06
-1.88453e-11
8.72461e-06
-2.52902e-11
8.72461e-06
-3.14448e-11
8.72462e-06
-3.62474e-11
8.72462e-06
-3.75094e-11
8.72463e-06
-3.17051e-11
-1.65293e-11
1.12185e-05
2.26222e-13
1.12185e-05
2.00037e-11
1.12185e-05
3.24471e-11
1.12185e-05
3.70477e-11
1.12185e-05
3.62464e-11
1.12185e-05
3.22801e-11
1.12185e-05
2.66535e-11
1.12185e-05
2.03562e-11
1.12184e-05
1.39067e-11
1.12184e-05
7.49777e-12
1.12184e-05
1.13714e-12
1.12184e-05
-5.27456e-12
1.12184e-05
-1.18798e-11
1.12184e-05
-1.87781e-11
1.12184e-05
-2.58398e-11
1.12184e-05
-3.25914e-11
1.12184e-05
-3.79613e-11
1.12184e-05
-3.98724e-11
1.12185e-05
-3.49395e-11
-2.06658e-11
1.37131e-05
-3.74069e-12
1.37131e-05
1.50135e-11
1.37131e-05
2.78916e-11
1.37131e-05
3.3758e-11
1.37131e-05
3.43765e-11
1.37131e-05
3.16369e-11
1.37131e-05
2.69334e-11
1.37131e-05
2.12607e-11
1.37131e-05
1.5194e-11
1.37131e-05
9.00784e-12
1.37131e-05
2.78885e-12
1.37131e-05
-3.50221e-12
1.37131e-05
-9.96903e-12
1.37131e-05
-1.6693e-11
1.37131e-05
-2.35547e-11
1.37131e-05
-3.01437e-11
1.37131e-05
-3.55502e-11
1.37131e-05
-3.79567e-11
1.37131e-05
-3.4385e-11
-2.2366e-11
1.62086e-05
-6.62225e-12
1.62086e-05
9.36634e-12
1.62086e-05
2.12488e-11
1.62086e-05
2.74252e-11
1.62086e-05
2.90591e-11
1.62086e-05
2.7575e-11
1.62086e-05
2.41205e-11
1.62086e-05
1.95785e-11
1.62086e-05
1.45024e-11
1.62086e-05
9.20182e-12
1.62086e-05
3.81804e-12
1.62086e-05
-1.64147e-12
1.62086e-05
-7.24768e-12
1.62086e-05
-1.3059e-11
1.62086e-05
-1.89846e-11
1.62086e-05
-2.47169e-11
1.62086e-05
-2.95984e-11
1.62086e-05
-3.22519e-11
1.62086e-05
-3.02934e-11
-2.14801e-11
1.87051e-05
-8.09116e-12
1.87051e-05
3.7925e-12
1.87051e-05
1.34219e-11
1.87051e-05
1.89951e-11
1.87051e-05
2.11291e-11
1.87051e-05
2.07457e-11
1.87051e-05
1.86653e-11
1.87051e-05
1.55733e-11
1.87052e-05
1.19309e-11
1.87052e-05
8.03172e-12
1.87052e-05
4.04024e-12
1.87052e-05
-3.71174e-15
1.87051e-05
-4.14269e-12
1.87051e-05
-8.41473e-12
1.87051e-05
-1.27758e-11
1.87051e-05
-1.70733e-11
1.87051e-05
-2.094e-11
1.87051e-05
-2.35337e-11
1.87051e-05
-2.32217e-11
-1.81287e-11
2.12027e-05
-8.06444e-12
2.12028e-05
-1.20362e-12
2.12028e-05
5.19131e-12
2.12028e-05
9.38833e-12
2.12028e-05
1.1506e-11
2.12028e-05
1.19739e-11
2.12028e-05
1.12468e-11
2.12028e-05
9.75569e-12
2.12028e-05
7.81601e-12
2.12028e-05
5.65991e-12
2.12028e-05
3.44301e-12
2.12028e-05
1.22031e-12
2.12028e-05
-1.02906e-12
2.12028e-05
-3.32612e-12
2.12028e-05
-5.67178e-12
2.12028e-05
-8.0871e-12
2.12028e-05
-1.0524e-11
2.12028e-05
-1.27204e-11
2.12028e-05
-1.38956e-11
-1.26789e-11
2.37016e-05
-6.64705e-12
2.37016e-05
-5.31073e-12
2.37016e-05
-2.79804e-12
2.37016e-05
-5.45866e-13
2.37016e-05
1.11886e-12
2.37016e-05
2.16427e-12
2.37016e-05
2.6722e-12
2.37016e-05
2.78956e-12
2.37016e-05
2.64999e-12
2.37016e-05
2.39126e-12
2.37016e-05
2.13481e-12
2.37016e-05
1.93654e-12
2.37016e-05
1.79223e-12
2.37016e-05
1.6954e-12
2.37016e-05
1.60883e-12
2.37016e-05
1.35353e-12
2.37016e-05
6.56679e-13
2.37016e-05
-8.10398e-13
2.37016e-05
-3.16894e-12
-5.68285e-12
2.62016e-05
-4.12217e-12
2.62016e-05
-8.38554e-12
2.62016e-05
-1.00409e-11
2.62016e-05
-1.0052e-11
2.62016e-05
-9.13976e-12
2.62016e-05
-7.75959e-12
2.62016e-05
-6.18807e-12
2.62016e-05
-4.5692e-12
2.62016e-05
-2.96693e-12
2.62016e-05
-1.35624e-12
2.62016e-05
3.34788e-13
2.62016e-05
2.15391e-12
2.62016e-05
4.11225e-12
2.62016e-05
6.21923e-12
2.62016e-05
8.41437e-12
2.62016e-05
1.03952e-11
2.62016e-05
1.16032e-11
2.62016e-05
1.11542e-11
2.62016e-05
8.0119e-12
2.18167e-12
2.87028e-05
-9.23901e-13
2.87028e-05
-1.04292e-11
2.87028e-05
-1.61614e-11
2.87028e-05
-1.84723e-11
2.87028e-05
-1.84369e-11
2.87028e-05
-1.68932e-11
2.87028e-05
-1.44484e-11
2.87028e-05
-1.15214e-11
2.87028e-05
-8.37045e-12
2.87028e-05
-5.08551e-12
2.87028e-05
-1.65103e-12
2.87028e-05
1.97214e-12
2.87028e-05
5.81227e-12
2.87028e-05
9.90124e-12
2.87028e-05
1.41746e-11
2.87028e-05
1.82526e-11
2.87028e-05
2.13573e-11
2.87028e-05
2.21315e-11
2.87028e-05
1.86518e-11
1.01403e-11
3.12051e-05
2.42028e-12
3.12051e-05
-1.15557e-11
3.12052e-05
-2.08788e-11
3.12052e-05
-2.52336e-11
3.12052e-05
-2.60061e-11
3.12052e-05
-2.4379e-11
3.12052e-05
-2.12516e-11
3.12052e-05
-1.72796e-11
3.12052e-05
-1.28908e-11
3.12052e-05
-8.27829e-12
3.12052e-05
-3.47645e-12
3.12052e-05
1.54791e-12
3.12052e-05
6.84689e-12
3.12052e-05
1.24846e-11
3.12052e-05
1.84166e-11
3.12052e-05
2.42402e-11
3.12052e-05
2.90458e-11
3.12052e-05
3.11212e-11
3.12052e-05
2.77503e-11
1.73561e-11
3.37086e-05
5.35249e-12
3.37086e-05
-1.1939e-11
3.37086e-05
-2.39588e-11
3.37086e-05
-2.9817e-11
3.37086e-05
-3.11443e-11
3.37086e-05
-2.94312e-11
3.37086e-05
-2.58143e-11
3.37086e-05
-2.11284e-11
3.37087e-05
-1.59219e-11
3.37087e-05
-1.04617e-11
3.37087e-05
-4.81572e-12
3.37087e-05
1.05116e-12
3.37087e-05
7.22023e-12
3.37087e-05
1.37966e-11
3.37087e-05
2.07789e-11
3.37086e-05
2.77971e-11
3.37086e-05
3.39118e-11
3.37086e-05
3.72007e-11
3.37086e-05
3.43424e-11
2.29807e-11
3.62131e-05
7.35319e-12
3.62131e-05
-1.17391e-11
3.62131e-05
-2.51678e-11
3.62131e-05
-3.17285e-11
3.62131e-05
-3.32154e-11
3.62131e-05
-3.13783e-11
3.62131e-05
-2.74976e-11
3.62131e-05
-2.25059e-11
3.62131e-05
-1.70009e-11
3.62131e-05
-1.12795e-11
3.62131e-05
-5.41842e-12
3.62131e-05
6.28477e-13
3.62131e-05
6.96987e-12
3.62131e-05
1.37511e-11
3.62131e-05
2.10289e-11
3.62131e-05
2.85169e-11
3.62131e-05
3.53529e-11
3.62131e-05
3.95785e-11
3.62131e-05
3.75467e-11
2.62045e-11
3.87185e-05
8.05281e-12
3.87185e-05
-1.10002e-11
3.87185e-05
-2.42418e-11
3.87185e-05
-3.05212e-11
3.87185e-05
-3.17135e-11
3.87185e-05
-2.97402e-11
3.87185e-05
-2.58975e-11
3.87185e-05
-2.10997e-11
3.87185e-05
-1.59023e-11
3.87185e-05
-1.05722e-11
3.87185e-05
-5.1669e-12
3.87185e-05
3.69487e-13
3.87185e-05
6.15249e-12
3.87185e-05
1.2351e-11
3.87185e-05
1.90881e-11
3.87185e-05
2.62005e-11
3.87185e-05
3.2996e-11
3.87185e-05
3.76848e-11
3.87185e-05
3.66497e-11
2.63101e-11
4.12247e-05
7.2302e-12
4.12247e-05
-9.5471e-12
4.12247e-05
-2.08353e-11
4.12247e-05
-2.58205e-11
4.12247e-05
-2.63872e-11
4.12247e-05
-2.44076e-11
4.12247e-05
-2.10183e-11
4.12247e-05
-1.69833e-11
4.12247e-05
-1.27344e-11
4.12247e-05
-8.44701e-12
4.12247e-05
-4.13e-12
4.12247e-05
2.68988e-13
4.12247e-05
4.82461e-12
4.12247e-05
9.69453e-12
4.12247e-05
1.50816e-11
4.12247e-05
2.09686e-11
4.12247e-05
2.68479e-11
4.12247e-05
3.13006e-11
4.12247e-05
3.12252e-11
2.28685e-11
4.37315e-05
4.91902e-12
4.37315e-05
-6.94535e-12
4.37315e-05
-1.46628e-11
4.37315e-05
-1.7574e-11
4.37315e-05
-1.74878e-11
4.37315e-05
-1.5865e-11
4.37314e-05
-1.34633e-11
4.37314e-05
-1.07612e-11
4.37314e-05
-8.01928e-12
4.37314e-05
-5.3098e-12
4.37314e-05
-2.58788e-12
4.37314e-05
1.93287e-13
4.37314e-05
3.05116e-12
4.37314e-05
6.08629e-12
4.37314e-05
9.49172e-12
4.37314e-05
1.33422e-11
4.37315e-05
1.74192e-11
4.37315e-05
2.08469e-11
4.37315e-05
2.13636e-11
1.59628e-11
4.62387e-05
1.90886e-12
4.62387e-05
-3.10132e-12
4.62387e-05
-6.22293e-12
4.62387e-05
-7.05572e-12
4.62387e-05
-6.74022e-12
4.62387e-05
-5.95409e-12
4.62387e-05
-4.93967e-12
4.62387e-05
-3.88208e-12
4.62387e-05
-2.89418e-12
4.62387e-05
-1.95988e-12
4.62387e-05
-9.76598e-13
4.62387e-05
8.10122e-14
4.62387e-05
1.11966e-12
4.62387e-05
2.16348e-12
4.62387e-05
3.42176e-12
4.62387e-05
4.94955e-12
4.62387e-05
6.61186e-12
4.62387e-05
8.16256e-12
4.62387e-05
8.63831e-12
6.66967e-12
4.87462e-05
4.87462e-05
4.87462e-05
4.87462e-05
4.87462e-05
4.87462e-05
4.87462e-05
4.87462e-05
4.87462e-05
4.87462e-05
4.87462e-05
4.87462e-05
4.87462e-05
4.87462e-05
4.87462e-05
4.87462e-05
4.87462e-05
4.87462e-05
4.87462e-05
)
;

boundaryField
{
    movingWall
    {
        type            calculated;
        value           uniform 0;
    }
    fixedWalls
    {
        type            calculated;
        value           uniform 0;
    }
    left
    {
        type            cyclic;
        value           nonuniform List<scalar> 
20
(
-3.87185e-05
-3.62131e-05
-3.37086e-05
-3.12051e-05
-2.87028e-05
-2.62016e-05
-2.37016e-05
-2.12027e-05
-1.87051e-05
-1.62086e-05
-1.37131e-05
-1.12185e-05
-8.72464e-06
-6.23144e-06
-3.7387e-06
-1.24622e-06
-4.12247e-05
-4.37315e-05
-4.62387e-05
-4.87462e-05
)
;
    }
    right
    {
        type            cyclic;
        value           nonuniform List<scalar> 
20
(
3.87185e-05
3.62131e-05
3.37086e-05
3.12051e-05
2.87028e-05
2.62016e-05
2.37016e-05
2.12027e-05
1.87051e-05
1.62086e-05
1.37131e-05
1.12185e-05
8.72464e-06
6.23144e-06
3.7387e-06
1.24622e-06
4.12247e-05
4.37315e-05
4.62387e-05
4.87462e-05
)
;
    }
    frontAndBack
    {
        type            empty;
        value           nonuniform List<scalar> 0();
    }
}


// ************************************************************************* //
