/*--------------------------------*- C++ -*----------------------------------*\
  =========                 |
  \\      /  F ield         | OpenFOAM: The Open Source CFD Toolbox
   \\    /   O peration     | Website:  https://openfoam.org
    \\  /    A nd           | Version:  8
     \\/     M anipulation  |
\*---------------------------------------------------------------------------*/
FoamFile
{
    version     2.0;
    format      ascii;
    class       volScalarField;
    location    "68";
    object      p;
}
// * * * * * * * * * * * * * * * * * * * * * * * * * * * * * * * * * * * * * //

dimensions      [0 2 -2 0 0 0 0];

internalField   nonuniform List<scalar> 
400
(
-1.38249e-15
-1.20189e-15
-1.18462e-15
-1.28412e-15
-1.37321e-15
-1.22751e-15
-1.21578e-15
-1.04328e-15
-9.41753e-16
-1.03297e-15
-1.06522e-15
-1.07419e-15
-7.86729e-16
-4.81493e-16
-1.49752e-16
-5.05511e-17
1.7152e-17
3.04155e-17
4.10594e-18
-4.13759e-17
-1.56892e-15
-1.114e-15
-1.24491e-15
-1.29006e-15
-1.37742e-15
-1.29114e-15
-1.33449e-15
-9.93293e-16
-7.9463e-16
-9.07365e-16
-1.09553e-15
-9.76867e-16
-6.54825e-16
-5.30456e-16
-1.68471e-16
-4.51796e-17
5.78769e-17
4.25857e-17
-2.22609e-17
9.66811e-17
-1.57096e-15
-1.18932e-15
-1.32872e-15
-1.38337e-15
-1.30736e-15
-1.3623e-15
-1.29244e-15
-9.39706e-16
-8.64915e-16
-7.68179e-16
-9.16999e-16
-7.53017e-16
-4.7797e-16
-5.45381e-16
-2.50509e-16
-1.27802e-16
6.92429e-17
-4.05549e-17
-9.00567e-18
4.42401e-17
-1.30993e-15
-1.32749e-15
-1.38621e-15
-1.43534e-15
-1.16271e-15
-1.24565e-15
-1.34307e-15
-1.10726e-15
-8.92259e-16
-7.88793e-16
-7.56721e-16
-7.64637e-16
-3.16781e-16
-3.46457e-16
-2.67242e-16
-1.36118e-16
-1.97783e-17
1.64925e-16
1.28415e-17
8.32437e-17
-1.03548e-15
-1.39868e-15
-1.38924e-15
-1.39727e-15
-1.24234e-15
-1.07877e-15
-1.21735e-15
-1.18804e-15
-9.21197e-16
-8.09641e-16
-6.50181e-16
-6.51437e-16
-2.51968e-16
-2.40534e-16
-2.99654e-16
-2.06982e-16
-2.85672e-16
7.50233e-17
2.07442e-16
6.6669e-17
-1.03821e-15
-1.35375e-15
-1.36745e-15
-1.24706e-15
-1.01687e-15
-1.08301e-15
-1.19759e-15
-1.06264e-15
-1.02894e-15
-8.12777e-16
-6.11323e-16
-4.51958e-16
-3.6724e-16
-3.06726e-16
-3.47918e-16
-2.23224e-16
-2.32395e-16
1.532e-16
1.15169e-16
4.3377e-17
-1.07703e-15
-1.47278e-15
-1.45326e-15
-1.02742e-15
-9.07602e-16
-1.17452e-15
-1.14127e-15
-7.67985e-16
-9.39843e-16
-8.60077e-16
-4.36843e-16
-3.48081e-16
-6.08966e-16
-4.20293e-16
-4.68514e-16
-1.82381e-16
-8.59863e-17
1.64617e-16
1.16158e-16
2.86606e-17
-1.36813e-15
-1.39453e-15
-1.46665e-15
-1.13159e-15
-8.10904e-16
-9.15944e-16
-9.08017e-16
-8.38749e-16
-9.51848e-16
-7.48839e-16
-4.67828e-16
-3.921e-16
-5.44172e-16
-4.46943e-16
-4.60983e-16
-1.211e-16
-7.13984e-17
8.82403e-17
9.5305e-17
-6.58627e-18
-1.63904e-15
-1.31027e-15
-1.47053e-15
-1.18169e-15
-8.68312e-16
-7.77954e-16
-7.0235e-16
-6.86498e-16
-7.88173e-16
-6.63642e-16
-4.6678e-16
-4.63816e-16
-4.73605e-16
-5.15865e-16
-4.06984e-16
-2.19311e-16
-1.00972e-16
1.15247e-16
1.32195e-16
-1.16892e-16
-1.60642e-15
-1.42939e-15
-1.32252e-15
-1.03448e-15
-8.99191e-16
-7.33766e-16
-6.27531e-16
-5.55517e-16
-6.74184e-16
-6.19085e-16
-6.26402e-16
-5.04672e-16
-4.0335e-16
-3.66595e-16
-3.5177e-16
-2.3599e-16
-1.19126e-16
1.78415e-16
4.13577e-17
-1.23367e-16
-1.70927e-15
-1.27087e-15
-1.12434e-15
-1.02138e-15
-7.65718e-16
-6.42882e-16
-5.50003e-16
-4.66928e-16
-6.05461e-16
-6.8019e-16
-7.26233e-16
-5.155e-16
-2.70642e-16
-2.32135e-16
-2.61933e-16
-3.57221e-16
-1.43747e-16
5.02241e-17
-6.35193e-17
-1.87299e-16
-1.59247e-15
-1.02584e-15
-9.98604e-16
-9.9387e-16
-8.11714e-16
-6.24547e-16
-4.29893e-16
-3.3049e-16
-5.29879e-16
-6.40166e-16
-6.36928e-16
-5.47918e-16
-3.33785e-16
-2.12974e-16
-3.40681e-16
-5.21287e-16
-2.00704e-16
4.62496e-17
-1.93022e-16
-1.55583e-16
-1.35415e-15
-1.01221e-15
-7.91154e-16
-8.03051e-16
-8.44968e-16
-8.07599e-16
-3.13996e-16
-1.84277e-16
-4.95928e-16
-7.48264e-16
-6.66503e-16
-6.69364e-16
-4.42274e-16
-3.1533e-16
-3.00084e-16
-5.46991e-16
-2.55624e-16
-1.07074e-16
-1.508e-16
-9.03641e-17
-8.22395e-16
-9.13748e-16
-7.66672e-16
-7.61765e-16
-7.56005e-16
-7.55403e-16
-2.64209e-16
-1.53512e-16
-4.78457e-16
-7.8452e-16
-7.18707e-16
-7.62365e-16
-6.14509e-16
-4.20504e-16
-3.54849e-16
-4.20802e-16
-2.30353e-16
-1.9914e-16
-2.17517e-16
-1.01291e-16
-4.98285e-16
-7.56748e-16
-6.44684e-16
-7.19138e-16
-7.16775e-16
-7.75995e-16
-4.89603e-16
-1.48841e-16
-3.96687e-16
-7.25338e-16
-7.69076e-16
-8.083e-16
-7.65596e-16
-5.41145e-16
-4.35291e-16
-4.2103e-16
-2.88646e-16
-2.70635e-16
-1.74587e-16
-1.65869e-16
-5.31507e-16
-6.16024e-16
-6.69859e-16
-6.30129e-16
-5.87837e-16
-5.89692e-16
-5.12648e-16
-2.07462e-16
-4.30802e-16
-6.23737e-16
-8.32837e-16
-9.20216e-16
-8.14185e-16
-7.22372e-16
-4.3217e-16
-4.62211e-16
-2.82943e-16
-3.68096e-16
-2.21311e-16
-2.07252e-17
-5.00054e-16
-4.78058e-16
-5.04724e-16
-5.52892e-16
-4.91485e-16
-5.0779e-16
-6.38379e-16
-3.33846e-16
-5.0167e-16
-6.20918e-16
-7.51088e-16
-9.67241e-16
-8.08607e-16
-6.37412e-16
-6.07059e-16
-5.8294e-16
-2.72272e-16
-3.78314e-16
-1.98901e-16
2.08891e-17
-4.85433e-16
-4.66664e-16
-3.36874e-16
-4.63789e-16
-4.39021e-16
-4.08895e-16
-6.0874e-16
-5.90364e-16
-6.62328e-16
-4.53892e-16
-7.78329e-16
-1.05794e-15
-7.98377e-16
-6.13916e-16
-7.04882e-16
-6.19313e-16
-9.02886e-17
-3.01346e-16
-2.63142e-16
2.47999e-17
-4.85174e-16
-4.47111e-16
-3.61265e-16
-3.68058e-16
-2.79447e-16
-3.94046e-16
-5.25012e-16
-6.94474e-16
-7.79357e-16
-5.10309e-16
-7.86314e-16
-1.01959e-15
-1.07382e-15
-6.76811e-16
-4.01052e-16
-4.43941e-16
-1.01497e-16
-2.60824e-16
-3.19065e-16
4.05772e-17
-5.1092e-16
-5.17497e-16
-2.29416e-16
-2.24006e-16
-2.68443e-16
-3.81509e-16
-4.48147e-16
-6.44399e-16
-7.94769e-16
-6.46253e-16
-8.0589e-16
-1.01014e-15
-1.06911e-15
-6.85828e-16
-3.41637e-16
-4.05055e-16
-5.53691e-17
-1.32257e-16
-2.5077e-16
-5.58834e-17
)
;

boundaryField
{
    inlet
    {
        type            zeroGradient;
    }
    outlet
    {
        type            fixedValue;
        value           uniform 0;
    }
    up
    {
        type            zeroGradient;
    }
    down
    {
        type            zeroGradient;
    }
    frontAndBack
    {
        type            empty;
    }
}


// ************************************************************************* //
