/*--------------------------------*- C++ -*----------------------------------*\
  =========                 |
  \\      /  F ield         | OpenFOAM: The Open Source CFD Toolbox
   \\    /   O peration     | Website:  https://openfoam.org
    \\  /    A nd           | Version:  8
     \\/     M anipulation  |
\*---------------------------------------------------------------------------*/
FoamFile
{
    version     2.0;
    format      ascii;
    class       surfaceScalarField;
    location    "68";
    object      phi;
}
// * * * * * * * * * * * * * * * * * * * * * * * * * * * * * * * * * * * * * //

dimensions      [0 3 -1 0 0 0 0];

internalField   nonuniform List<scalar> 
760
(
0.0004
4.82559e-20
0.0004
1.22782e-21
0.0004
7.47483e-20
0.0004
7.20967e-20
0.0004
4.36495e-20
0.0004
5.91091e-20
0.0004
1.09504e-19
0.0004
8.02999e-20
0.0004
5.26157e-20
0.0004
5.62443e-20
0.0004
8.67621e-20
0.0004
-8.20419e-21
0.0004
-7.63399e-20
0.0004
-3.34397e-20
0.0004
-4.2589e-20
0.0004
-7.79253e-20
0.0004
-8.22974e-20
0.0004
-7.51297e-20
0.0004
-8.54572e-20
-1.76234e-19
0.0004
-2.48627e-21
0.0004
4.35364e-20
0.0004
8.85632e-20
0.0004
1.02999e-19
0.0004
3.15532e-20
0.0004
5.21818e-20
0.0004
5.0944e-20
0.0004
6.75141e-20
0.0004
1.15246e-19
0.0004
5.48028e-20
0.0004
8.9222e-21
0.0004
-5.02197e-20
0.0004
-7.69084e-20
0.0004
-5.13087e-20
0.0004
-3.54757e-20
0.0004
-5.9461e-20
0.0004
-8.79234e-20
0.0004
-6.67522e-20
0.0004
-1.22596e-19
-1.42912e-19
0.0004
-6.55075e-20
0.0004
4.76022e-20
0.0004
9.17249e-20
0.0004
1.02289e-19
0.0004
1.23984e-20
0.0004
-1.31649e-20
0.0004
3.77687e-20
0.0004
9.9731e-20
0.0004
7.71258e-20
0.0004
8.21027e-20
0.0004
5.88713e-21
0.0004
1.26967e-20
0.0004
-5.34066e-20
0.0004
-9.55685e-20
0.0004
-6.1859e-20
0.0004
-7.30402e-20
0.0004
-5.64522e-20
0.0004
-1.69666e-19
0.0004
-1.62652e-19
-1.99399e-19
0.0004
-6.18172e-20
0.0004
2.99585e-20
0.0004
7.1503e-20
0.0004
7.00786e-20
0.0004
6.1486e-20
0.0004
-3.42162e-20
0.0004
-3.67079e-20
0.0004
4.19105e-20
0.0004
4.22434e-20
0.0004
4.73952e-20
0.0004
3.70212e-21
0.0004
-2.5998e-20
0.0004
-1.843e-20
0.0004
-3.5118e-20
0.0004
-4.06354e-20
0.0004
-5.45213e-20
0.0004
-1.81304e-20
0.0004
-1.14408e-19
0.0004
-2.38549e-19
-1.92811e-19
0.0004
5.8662e-21
0.0004
2.10575e-20
0.0004
5.19946e-20
0.0004
1.79988e-20
0.0004
-3.1073e-20
0.0004
1.05255e-20
0.0004
-4.96577e-21
0.0004
-4.5157e-20
0.0004
3.50667e-20
0.0004
1.39964e-20
0.0004
-2.69172e-21
0.0004
-6.94898e-20
0.0004
2.33232e-20
0.0004
1.31565e-20
0.0004
-1.90035e-20
0.0004
-6.47555e-20
0.0004
-1.22382e-19
0.0004
-1.77901e-19
0.0004
-1.54093e-19
-1.80406e-19
0.0004
2.8401e-20
0.0004
8.67797e-20
0.0004
7.16056e-20
0.0004
-2.172e-20
0.0004
-4.38365e-21
0.0004
4.69366e-20
0.0004
-1.61823e-20
0.0004
-1.05898e-19
0.0004
-4.74067e-20
0.0004
-1.70684e-21
0.0004
-7.20891e-20
0.0004
-6.71888e-20
0.0004
2.71149e-20
0.0004
2.98615e-22
0.0004
-1.22448e-20
0.0004
-7.30778e-20
0.0004
-1.62663e-19
0.0004
-1.49128e-19
0.0004
-1.43167e-19
-1.65634e-19
0.0004
7.8663e-20
0.0004
4.06775e-20
0.0004
3.97723e-20
0.0004
4.97237e-20
0.0004
1.14687e-20
0.0004
-3.13487e-20
0.0004
-6.45881e-20
0.0004
-1.22459e-20
0.0004
-3.46616e-20
0.0004
-9.00436e-20
0.0004
-5.1372e-20
0.0004
-3.48252e-20
0.0004
-7.29705e-20
0.0004
-6.45484e-20
0.0004
-7.17112e-20
0.0004
-9.83067e-20
0.0004
-1.21386e-19
0.0004
-1.09323e-19
0.0004
-1.15161e-19
-1.2638e-19
0.0004
7.30699e-20
0.0004
2.43461e-20
0.0004
2.02452e-20
0.0004
2.58042e-20
0.0004
6.23152e-20
0.0004
3.59041e-21
0.0004
-5.2716e-20
0.0004
-6.6697e-20
0.0004
-1.04392e-19
0.0004
-1.25083e-19
0.0004
-8.14916e-20
0.0004
-2.7656e-20
0.0004
-8.26705e-20
0.0004
-6.63193e-20
0.0004
-1.03125e-19
0.0004
-6.71186e-20
0.0004
-9.32645e-20
0.0004
-1.142e-19
0.0004
-1.21333e-19
-7.82584e-20
0.0004
7.11512e-21
0.0004
6.27234e-20
0.0004
-2.92584e-20
0.0004
-3.63305e-20
0.0004
3.10247e-20
0.0004
1.41467e-20
0.0004
-1.20698e-20
0.0004
-6.18116e-20
0.0004
-1.13557e-19
0.0004
-1.18992e-19
0.0004
-3.40064e-20
0.0004
-3.69402e-20
0.0004
-7.90331e-20
0.0004
-1.17617e-19
0.0004
-1.0939e-19
0.0004
-9.37903e-20
0.0004
-8.33617e-20
0.0004
-9.62045e-20
0.0004
-5.53887e-20
-8.8666e-20
0.0004
2.71808e-20
0.0004
-2.97094e-20
0.0004
-6.29266e-20
0.0004
-1.23568e-20
0.0004
-4.05782e-20
0.0004
-2.23014e-20
0.0004
-2.62823e-20
0.0004
-6.87547e-20
0.0004
-1.09175e-19
0.0004
-7.7173e-20
0.0004
-4.26018e-20
0.0004
-4.66573e-20
0.0004
-8.453e-20
0.0004
-9.85858e-20
0.0004
-1.05867e-19
0.0004
-4.94891e-20
0.0004
-7.20648e-20
0.0004
-3.85378e-20
0.0004
-3.37407e-20
-5.54632e-20
0.0004
-2.5136e-20
0.0004
-8.31164e-20
0.0004
-6.14292e-20
0.0004
-3.12104e-20
0.0004
-5.16109e-21
0.0004
-2.99065e-20
0.0004
-7.69828e-20
0.0004
-1.16823e-19
0.0004
-1.15999e-19
0.0004
-8.68266e-20
0.0004
-9.08452e-20
0.0004
-4.5333e-20
0.0004
-1.77391e-20
0.0004
-4.8417e-20
0.0004
-3.58017e-20
0.0004
-2.17795e-20
0.0004
-5.09116e-20
0.0004
-7.28908e-20
0.0004
-2.70079e-20
-7.51249e-20
0.0004
-5.86266e-20
0.0004
-3.81149e-20
0.0004
-9.22907e-20
0.0004
-8.50412e-20
0.0004
-4.08398e-20
0.0004
-3.68044e-21
0.0004
-1.03414e-19
0.0004
-1.4325e-19
0.0004
-1.13462e-19
0.0004
-4.53427e-20
0.0004
-6.35611e-20
0.0004
-2.36408e-20
0.0004
9.28784e-22
0.0004
5.78256e-21
0.0004
-4.2011e-20
0.0004
-3.08839e-20
0.0004
-5.15376e-20
0.0004
-2.92709e-20
0.0004
-7.94517e-20
-7.74584e-20
0.0004
-1.26097e-19
0.0004
-7.05769e-20
0.0004
-4.26754e-20
0.0004
-5.70742e-20
0.0004
-8.55944e-20
0.0004
-8.77529e-20
0.0004
-9.47777e-20
0.0004
-1.16492e-19
0.0004
-1.07331e-19
0.0004
-7.51523e-20
0.0004
-6.08904e-20
0.0004
-3.54271e-20
0.0004
1.20641e-20
0.0004
8.38803e-21
0.0004
-2.41312e-21
0.0004
-6.20329e-20
0.0004
-6.41239e-20
0.0004
-4.59853e-20
0.0004
-4.77872e-20
-5.65831e-20
0.0004
-8.45357e-20
0.0004
-9.59432e-20
0.0004
-8.55878e-20
0.0004
-6.52811e-20
0.0004
-7.9282e-20
0.0004
-9.14936e-20
0.0004
-2.54922e-20
0.0004
-8.41234e-20
0.0004
-1.09884e-19
0.0004
-8.81046e-20
0.0004
-5.90629e-20
0.0004
-4.98413e-20
0.0004
6.18566e-22
0.0004
6.25813e-21
0.0004
-8.00641e-21
0.0004
-4.39086e-20
0.0004
-3.45605e-20
0.0004
-3.78163e-20
0.0004
-6.73026e-20
-2.83533e-20
0.0004
-7.98848e-21
0.0004
-9.29647e-20
0.0004
-6.55873e-20
0.0004
-1.06644e-19
0.0004
-1.29791e-19
0.0004
-1.51138e-19
0.0004
-9.19268e-20
0.0004
-4.94261e-20
0.0004
-3.62729e-20
0.0004
-7.49526e-20
0.0004
-3.97378e-20
0.0004
-2.74792e-20
0.0004
-3.57558e-20
0.0004
1.21573e-20
0.0004
-4.82804e-20
0.0004
-3.36049e-20
0.0004
-5.82602e-20
0.0004
-2.12108e-20
0.0004
-2.68848e-20
-5.97036e-20
0.0004
-1.44884e-20
0.0004
-8.91814e-20
0.0004
-1.39517e-19
0.0004
-1.32162e-19
0.0004
-1.51135e-19
0.0004
-1.45325e-19
0.0004
-6.24809e-20
0.0004
-2.1778e-20
0.0004
1.45585e-20
0.0004
-3.04199e-20
0.0004
-6.99249e-20
0.0004
-4.43718e-20
0.0004
-4.34793e-20
0.0004
-7.8881e-20
0.0004
-2.33251e-21
0.0004
-6.6177e-21
0.0004
-4.7536e-20
0.0004
-4.1599e-20
0.0004
-3.28835e-20
-1.57977e-20
0.0004
-1.45369e-21
0.0004
-4.54156e-20
0.0004
-1.57033e-19
0.0004
-1.64562e-19
0.0004
-1.48118e-19
0.0004
-1.50552e-19
0.0004
-1.07001e-19
0.0004
6.40454e-21
0.0004
2.77055e-20
0.0004
-5.68757e-20
0.0004
-3.71677e-20
0.0004
-3.04614e-20
0.0004
-5.35411e-20
0.0004
-4.75815e-20
0.0004
-7.77005e-21
0.0004
-2.57786e-20
0.0004
-7.53713e-20
0.0004
-5.59991e-20
0.0004
1.36007e-22
9.11759e-21
0.0004
2.50062e-21
0.0004
-3.75394e-20
0.0004
-9.02556e-20
0.0004
-1.60463e-19
0.0004
-1.75955e-19
0.0004
-1.21078e-19
0.0004
-1.32733e-19
0.0004
-5.44258e-20
0.0004
-1.59972e-20
0.0004
-2.96409e-20
0.0004
-3.90122e-20
0.0004
-4.42135e-20
0.0004
3.83686e-20
0.0004
-7.46717e-23
0.0004
-1.05347e-19
0.0004
-7.56236e-20
0.0004
-1.55315e-20
0.0004
-3.17755e-20
0.0004
5.63612e-21
8.85249e-21
0.0004
9.26044e-21
0.0004
3.9275e-21
0.0004
-1.17903e-19
0.0004
-1.72052e-19
0.0004
-1.32913e-19
0.0004
-1.15302e-19
0.0004
-1.37868e-19
0.0004
-1.1963e-19
0.0004
-6.92754e-20
0.0004
-2.52506e-20
0.0004
-4.46091e-20
0.0004
-3.34937e-20
0.0004
-9.30318e-21
0.0004
-3.99707e-21
0.0004
-2.95591e-20
0.0004
-3.48513e-20
0.0004
-3.00083e-20
0.0004
-4.76415e-20
0.0004
-2.18515e-20
4.33171e-20
0.0004
0.0004
0.0004
0.0004
0.0004
0.0004
0.0004
0.0004
0.0004
0.0004
0.0004
0.0004
0.0004
0.0004
0.0004
0.0004
0.0004
0.0004
0.0004
)
;

boundaryField
{
    inlet
    {
        type            calculated;
        value           nonuniform List<scalar> 
20
(
-0.0004
-0.0004
-0.0004
-0.0004
-0.0004
-0.0004
-0.0004
-0.0004
-0.0004
-0.0004
-0.0004
-0.0004
-0.0004
-0.0004
-0.0004
-0.0004
-0.0004
-0.0004
-0.0004
-0.0004
)
;
    }
    outlet
    {
        type            calculated;
        value           nonuniform List<scalar> 
20
(
0.0004
0.0004
0.0004
0.0004
0.0004
0.0004
0.0004
0.0004
0.0004
0.0004
0.0004
0.0004
0.0004
0.0004
0.0004
0.0004
0.0004
0.0004
0.0004
0.0004
)
;
    }
    up
    {
        type            calculated;
        value           nonuniform List<scalar> 
20
(
4.34257e-21
-1.56333e-20
-5.5806e-20
-1.12561e-19
-1.28357e-19
-1.01376e-19
-1.09947e-19
-1.13609e-19
-8.6285e-20
-8.39654e-20
-5.85518e-20
-2.25649e-20
-4.33103e-21
-6.42689e-21
-8.07674e-21
-2.2307e-20
-8.32163e-21
2.81502e-21
-2.70002e-21
9.50018e-21
)
;
    }
    down
    {
        type            calculated;
        value           nonuniform List<scalar> 
20
(
-5.23883e-21
-3.26943e-20
-4.84222e-20
-6.96127e-20
-4.17893e-20
-3.68921e-20
-7.11131e-20
-9.72465e-20
-9.86447e-20
-9.63727e-20
-8.12027e-20
-2.94268e-20
2.63746e-20
3.97694e-20
4.12671e-20
7.04034e-20
6.92973e-20
6.56797e-20
8.11848e-20
1.25696e-19
)
;
    }
    frontAndBack
    {
        type            empty;
        value           nonuniform List<scalar> 0();
    }
}


// ************************************************************************* //
