/*--------------------------------*- C++ -*----------------------------------*\
  =========                 |
  \\      /  F ield         | OpenFOAM: The Open Source CFD Toolbox
   \\    /   O peration     | Website:  https://openfoam.org
    \\  /    A nd           | Version:  8
     \\/     M anipulation  |
\*---------------------------------------------------------------------------*/
FoamFile
{
    version     2.0;
    format      ascii;
    class       volScalarField;
    location    "1.51";
    object      p;
}
// * * * * * * * * * * * * * * * * * * * * * * * * * * * * * * * * * * * * * //

dimensions      [0 2 -2 0 0 0 0];

internalField   nonuniform List<scalar> 
400
(
-4.53873e-15
-3.18312e-15
4.92002e-15
1.42691e-14
2.27552e-14
3.00702e-14
3.63255e-14
4.09664e-14
4.41659e-14
4.54391e-14
4.50044e-14
4.27898e-14
3.90585e-14
3.41744e-14
2.81585e-14
2.16131e-14
1.45303e-14
7.61665e-15
2.65303e-16
-5.36823e-15
8.33987e-16
3.40801e-15
9.32512e-15
1.62222e-14
2.26541e-14
2.88956e-14
3.39051e-14
3.8277e-14
4.09904e-14
4.28114e-14
4.2795e-14
4.15325e-14
3.90147e-14
3.53083e-14
3.08745e-14
2.51667e-14
1.94238e-14
1.31822e-14
7.56659e-15
2.45664e-15
8.48216e-15
9.74153e-15
1.30845e-14
1.73593e-14
2.25552e-14
2.73288e-14
3.22437e-14
3.59332e-14
3.9416e-14
4.12425e-14
4.23295e-14
4.19019e-14
4.02176e-14
3.7763e-14
3.39529e-14
2.96085e-14
2.39038e-14
1.90301e-14
1.39305e-14
1.04408e-14
1.43522e-14
1.43227e-14
1.55884e-14
1.85049e-14
2.19471e-14
2.6852e-14
3.08735e-14
3.5427e-14
3.84358e-14
4.13903e-14
4.2525e-14
4.31079e-14
4.21809e-14
4.00856e-14
3.73027e-14
3.28197e-14
2.84315e-14
2.32861e-14
1.9446e-14
1.58861e-14
1.7566e-14
1.71105e-14
1.73813e-14
1.90151e-14
2.24773e-14
2.62166e-14
3.12679e-14
3.48523e-14
3.91364e-14
4.16479e-14
4.3776e-14
4.43892e-14
4.37261e-14
4.21991e-14
3.90023e-14
3.56504e-14
3.06077e-14
2.65424e-14
2.21226e-14
1.95934e-14
1.92079e-14
1.84222e-14
1.85406e-14
2.0224e-14
2.30008e-14
2.74533e-14
3.13909e-14
3.63615e-14
3.96073e-14
4.28564e-14
4.43884e-14
4.53693e-14
4.47637e-14
4.27568e-14
4.01394e-14
3.57552e-14
3.19573e-14
2.72565e-14
2.39136e-14
2.04949e-14
1.94843e-14
1.95949e-14
1.99073e-14
2.15232e-14
2.49083e-14
2.85313e-14
3.32826e-14
3.70809e-14
4.10362e-14
4.28573e-14
4.52494e-14
4.51078e-14
4.44791e-14
4.23594e-14
3.87062e-14
3.52992e-14
3.04056e-14
2.7363e-14
2.30853e-14
2.12807e-14
2.01578e-14
2.0154e-14
2.13053e-14
2.35629e-14
2.65286e-14
3.11361e-14
3.44616e-14
3.8733e-14
4.12282e-14
4.3774e-14
4.43292e-14
4.42321e-14
4.27587e-14
4.01075e-14
3.69694e-14
3.24908e-14
2.88971e-14
2.48413e-14
2.27335e-14
2.03304e-14
2.00866e-14
2.13658e-14
2.31729e-14
2.57121e-14
2.92605e-14
3.27421e-14
3.66708e-14
3.88304e-14
4.17817e-14
4.28574e-14
4.33144e-14
4.19935e-14
3.99859e-14
3.6871e-14
3.33401e-14
2.95649e-14
2.5833e-14
2.34552e-14
2.10682e-14
2.06056e-14
2.10971e-14
2.25152e-14
2.50143e-14
2.77638e-14
3.14357e-14
3.47338e-14
3.71648e-14
3.95882e-14
4.07632e-14
4.18598e-14
4.09619e-14
3.95002e-14
3.6641e-14
3.36272e-14
2.99158e-14
2.64638e-14
2.40978e-14
2.13153e-14
2.06488e-14
1.9785e-14
2.14255e-14
2.40772e-14
2.60339e-14
2.97564e-14
3.29901e-14
3.55374e-14
3.7971e-14
3.83912e-14
3.98428e-14
3.93932e-14
3.86965e-14
3.6242e-14
3.39413e-14
3.01697e-14
2.69231e-14
2.39547e-14
2.15788e-14
2.07477e-14
1.99708e-14
2.02444e-14
2.25871e-14
2.44809e-14
2.72204e-14
3.04043e-14
3.34433e-14
3.56901e-14
3.71324e-14
3.75197e-14
3.75331e-14
3.72918e-14
3.55586e-14
3.36652e-14
3.10356e-14
2.85476e-14
2.51341e-14
2.24444e-14
2.0777e-14
2.01507e-14
2.06168e-14
2.09483e-14
2.29177e-14
2.56695e-14
2.74845e-14
3.03415e-14
3.28445e-14
3.5088e-14
3.50314e-14
3.50659e-14
3.57232e-14
3.46096e-14
3.33195e-14
3.0992e-14
2.92175e-14
2.69715e-14
2.45998e-14
2.26313e-14
2.08262e-14
2.03715e-14
2.10349e-14
2.26487e-14
2.42214e-14
2.55075e-14
2.81225e-14
2.97126e-14
3.19434e-14
3.31216e-14
3.29587e-14
3.3012e-14
3.25558e-14
3.21316e-14
3.05024e-14
2.91541e-14
2.69797e-14
2.56158e-14
2.38634e-14
2.28224e-14
2.21138e-14
2.20889e-14
2.26772e-14
2.33902e-14
2.50701e-14
2.61145e-14
2.73221e-14
2.85886e-14
2.94876e-14
3.06125e-14
3.06363e-14
3.06148e-14
3.01935e-14
2.92125e-14
2.86591e-14
2.69796e-14
2.62635e-14
2.47491e-14
2.40627e-14
2.35088e-14
2.31241e-14
2.33597e-14
2.36558e-14
2.51655e-14
2.5931e-14
2.57694e-14
2.66432e-14
2.65997e-14
2.77751e-14
2.78398e-14
2.88304e-14
2.85608e-14
2.80858e-14
2.7378e-14
2.63947e-14
2.60506e-14
2.51772e-14
2.45765e-14
2.40081e-14
2.4629e-14
2.37619e-14
2.35552e-14
2.41995e-14
2.50901e-14
2.54904e-14
2.54464e-14
2.51008e-14
2.45898e-14
2.51294e-14
2.69928e-14
2.73625e-14
2.68846e-14
2.62827e-14
2.51755e-14
2.62183e-14
2.52428e-14
2.48073e-14
2.4576e-14
2.4275e-14
2.43479e-14
2.39817e-14
2.41989e-14
2.42373e-14
2.50643e-14
2.43679e-14
2.42078e-14
2.44024e-14
2.41628e-14
2.4033e-14
2.56588e-14
2.6667e-14
2.573e-14
2.52526e-14
2.54902e-14
2.56687e-14
2.55997e-14
2.48198e-14
2.42411e-14
2.38664e-14
2.39428e-14
2.32787e-14
2.42747e-14
2.36988e-14
2.42875e-14
2.3486e-14
2.31798e-14
2.30981e-14
2.37722e-14
2.46935e-14
2.63239e-14
2.67994e-14
2.67184e-14
2.55781e-14
2.60505e-14
2.56163e-14
2.4958e-14
2.40559e-14
2.31749e-14
2.31254e-14
2.29903e-14
2.24034e-14
2.26052e-14
2.20173e-14
2.28671e-14
2.22605e-14
2.30222e-14
2.36078e-14
2.33401e-14
2.54354e-14
2.69369e-14
2.77006e-14
2.80485e-14
2.7037e-14
2.62331e-14
2.56333e-14
2.50523e-14
2.31539e-14
2.16702e-14
2.13509e-14
2.04713e-14
2.10455e-14
2.1525e-14
2.07973e-14
2.15522e-14
)
;

boundaryField
{
    movingWall
    {
        type            zeroGradient;
    }
    fixedWalls
    {
        type            zeroGradient;
    }
    left
    {
        type            cyclic;
    }
    right
    {
        type            cyclic;
    }
    frontAndBack
    {
        type            empty;
    }
}


// ************************************************************************* //
