/*--------------------------------*- C++ -*----------------------------------*\
  =========                 |
  \\      /  F ield         | OpenFOAM: The Open Source CFD Toolbox
   \\    /   O peration     | Website:  https://openfoam.org
    \\  /    A nd           | Version:  8
     \\/     M anipulation  |
\*---------------------------------------------------------------------------*/
FoamFile
{
    version     2.0;
    format      ascii;
    class       volScalarField;
    location    "8.5";
    object      p;
}
// * * * * * * * * * * * * * * * * * * * * * * * * * * * * * * * * * * * * * //

dimensions      [0 2 -2 0 0 0 0];

internalField   nonuniform List<scalar> 
11600
(
3.88223e-09
-2.51886e-07
2.24804e-07
1.04178e-06
2.3057e-06
3.99915e-06
6.11832e-06
8.66147e-06
1.16268e-05
1.50126e-05
1.88169e-05
2.30378e-05
2.76727e-05
3.27193e-05
3.81746e-05
4.40355e-05
5.02986e-05
5.69603e-05
6.40167e-05
7.14638e-05
7.92972e-05
8.75123e-05
9.61042e-05
0.000105068
0.000114398
0.000124088
0.000134132
0.000144525
0.000155259
0.000166327
0.000177724
0.00018944
0.00020147
0.000213805
0.000226436
0.000239357
0.000252558
0.00026603
0.000279766
0.000293756
0.000307993
0.000322466
0.000337169
0.000352092
0.000367229
0.000382572
0.000398114
0.000413852
0.000429781
0.000445901
0.000462212
0.000478721
0.000495439
0.000512386
0.000529592
0.000547132
0.000565119
0.000582925
0.000604759
0.000617998
1.5629e-07
-6.90252e-08
4.32092e-07
1.25522e-06
2.52156e-06
4.21505e-06
6.33286e-06
8.8739e-06
1.18367e-05
1.52195e-05
1.90205e-05
2.32377e-05
2.78687e-05
3.2911e-05
3.83617e-05
4.42178e-05
5.04757e-05
5.7132e-05
6.41828e-05
7.16241e-05
7.94515e-05
8.76604e-05
9.62461e-05
0.000105203
0.000114526
0.00012421
0.000134247
0.000144633
0.00015536
0.000166422
0.000177811
0.000189521
0.000201544
0.000213872
0.000226497
0.00023941
0.000252605
0.000266071
0.0002798
0.000293785
0.000308015
0.000322484
0.000337181
0.0003521
0.000367233
0.000382573
0.000398114
0.000413851
0.000429782
0.000445905
0.000462224
0.000478746
0.000495488
0.000512474
0.000529746
0.000547395
0.000565521
0.000583933
0.000605067
0.000622585
-3.89802e-07
-6.19108e-07
-1.10312e-07
7.15704e-07
1.98446e-06
3.67982e-06
5.79916e-06
8.34165e-06
1.13059e-05
1.46904e-05
1.84933e-05
2.27125e-05
2.73457e-05
3.23903e-05
3.78436e-05
4.37024e-05
4.99634e-05
5.6623e-05
6.36774e-05
7.11226e-05
7.89543e-05
8.71678e-05
9.57584e-05
0.000104721
0.00011405
0.000123739
0.000133783
0.000144175
0.000154909
0.000165979
0.000177376
0.000189094
0.000201125
0.000213462
0.000226096
0.000239019
0.000252223
0.000265699
0.000279438
0.000293432
0.000307673
0.000322151
0.000336858
0.000351786
0.000366928
0.000382275
0.000397822
0.000413562
0.000429493
0.000445612
0.00046192
0.000478421
0.000495124
0.000512044
0.000529202
0.00054664
0.000564385
0.000582382
0.000601621
0.000618978
-1.26261e-06
-1.49143e-06
-9.7655e-07
-1.47159e-07
1.12455e-06
2.8224e-06
4.94406e-06
7.48888e-06
1.04557e-05
1.38429e-05
1.76488e-05
2.18713e-05
2.65081e-05
3.15566e-05
3.70142e-05
4.28776e-05
4.91437e-05
5.5809e-05
6.28695e-05
7.03214e-05
7.81602e-05
8.63815e-05
9.49802e-05
0.000103951
0.000113289
0.000122989
0.000133043
0.000143446
0.000154192
0.000165274
0.000176684
0.000188415
0.00020046
0.000212811
0.00022546
0.000238398
0.000251617
0.000265109
0.000278865
0.000292875
0.000307132
0.000321626
0.000336349
0.000351292
0.000366447
0.000381806
0.000397363
0.000413111
0.000429044
0.00044516
0.000461457
0.000477936
0.000494602
0.000511464
0.000528538
0.000545844
0.000563397
0.000581204
0.00059955
0.000617153
-2.57972e-06
-2.80982e-06
-2.29169e-06
-1.45982e-06
-1.85222e-07
1.51575e-06
3.64084e-06
6.18951e-06
9.16061e-06
1.25527e-05
1.63639e-05
2.05922e-05
2.52355e-05
3.02911e-05
3.57563e-05
4.16281e-05
4.79033e-05
5.45785e-05
6.16497e-05
6.91131e-05
7.69643e-05
8.51987e-05
9.38114e-05
0.000102797
0.000112151
0.000121867
0.000131938
0.00014236
0.000153125
0.000164226
0.000175657
0.00018741
0.000199478
0.000211851
0.000224524
0.000237486
0.00025073
0.000264247
0.000278028
0.000292064
0.000306346
0.000320865
0.000335613
0.000350579
0.000365756
0.000381135
0.000396708
0.000412468
0.000428407
0.000444521
0.000460804
0.000477254
0.000493867
0.000510644
0.000527583
0.000544681
0.000561924
0.000579287
0.000596787
0.000613927
-4.32902e-06
-4.56082e-06
-4.04067e-06
-3.20664e-06
-1.92899e-06
-2.24287e-07
1.90524e-06
4.45906e-06
7.43606e-06
1.08348e-05
1.46534e-05
1.88899e-05
2.35422e-05
2.86077e-05
3.40837e-05
3.99674e-05
4.62555e-05
5.29446e-05
6.00309e-05
6.75104e-05
7.53787e-05
8.36313e-05
9.22633e-05
0.00010127
0.000110645
0.000120383
0.000130479
0.000140925
0.000151717
0.000162845
0.000174305
0.000186087
0.000198185
0.00021059
0.000223294
0.000236289
0.000249567
0.000263118
0.000276933
0.000291004
0.000305321
0.000319875
0.000334656
0.000349654
0.000364862
0.000380268
0.000395865
0.000411643
0.000427595
0.000443711
0.000459984
0.000476408
0.000492973
0.000509671
0.000526491
0.000543418
0.000560422
0.000577465
0.000594489
0.000611265
-6.51049e-06
-6.74427e-06
-6.2226e-06
-5.38651e-06
-4.10551e-06
-2.39643e-06
-2.61517e-07
2.29869e-06
5.28306e-06
8.69013e-06
1.25181e-05
1.67652e-05
2.1429e-05
2.65072e-05
3.19973e-05
3.78963e-05
4.4201e-05
5.0908e-05
5.80135e-05
6.55135e-05
7.34038e-05
8.16796e-05
9.03363e-05
9.93686e-05
0.000108771
0.000118539
0.000128665
0.000139143
0.000149967
0.000161131
0.000172626
0.000184445
0.000196581
0.000209026
0.000221771
0.000234808
0.000248129
0.000261723
0.000275582
0.000289697
0.000304058
0.000318656
0.00033348
0.00034852
0.000363767
0.00037921
0.00039484
0.000410646
0.000426617
0.000442744
0.000459015
0.00047542
0.000491945
0.000508576
0.000525294
0.000542074
0.000558879
0.00057566
0.000592344
0.00060879
-9.12605e-06
-9.36216e-06
-8.83911e-06
-8.00089e-06
-6.71618e-06
-5.00205e-06
-2.86082e-06
-2.93048e-07
2.70012e-06
6.11724e-06
9.95661e-06
1.42163e-05
1.88943e-05
2.39882e-05
2.94954e-05
3.54131e-05
4.1738e-05
4.84669e-05
5.55959e-05
6.31209e-05
7.10378e-05
7.9342e-05
8.80287e-05
9.70927e-05
0.000106529
0.000116331
0.000126494
0.000137011
0.000147876
0.000159081
0.00017062
0.000182484
0.000194667
0.00020716
0.000219954
0.000233042
0.000246414
0.000260061
0.000273974
0.000288143
0.000302558
0.00031721
0.000332087
0.000347179
0.000362476
0.000377966
0.000393638
0.000409482
0.000425483
0.000441632
0.000457913
0.000474313
0.000490815
0.000507399
0.000524042
0.000540713
0.000557373
0.000573969
0.000590432
0.000606662
-1.21775e-05
-1.24163e-05
-1.18918e-05
-1.10513e-05
-9.76246e-06
-8.04261e-06
-5.89414e-06
-3.31767e-06
-3.14304e-07
3.11453e-06
6.96722e-06
1.12419e-05
1.59366e-05
2.10489e-05
2.65764e-05
3.25162e-05
3.88651e-05
4.56197e-05
5.27762e-05
6.03308e-05
6.8279e-05
7.66166e-05
8.53385e-05
9.44399e-05
0.000103915
0.000113759
0.000123965
0.000134528
0.00014544
0.000156694
0.000168284
0.000180202
0.000192439
0.000204989
0.000217842
0.000230989
0.000244423
0.000258132
0.000272108
0.000286341
0.000300821
0.000315536
0.000330477
0.000345632
0.00036099
0.000376539
0.000392266
0.000408159
0.000424204
0.000440387
0.000456693
0.000473105
0.000489604
0.000506166
0.000522766
0.00053937
0.000555938
0.000572419
0.000588751
0.000604857
-1.56666e-05
-1.59085e-05
-1.53825e-05
-1.45394e-05
-1.32461e-05
-1.15198e-05
-9.36326e-06
-6.77694e-06
-3.76199e-06
-3.19746e-07
3.54823e-06
7.84019e-06
1.25541e-05
1.76878e-05
2.32386e-05
2.92038e-05
3.55801e-05
4.23643e-05
4.95525e-05
5.71409e-05
6.51253e-05
7.35011e-05
8.22638e-05
9.14082e-05
0.000100929
0.00011082
0.000121076
0.000131691
0.000142657
0.000153968
0.000165617
0.000177596
0.000189897
0.000202512
0.000215432
0.000228649
0.000242153
0.000255935
0.000269984
0.000284292
0.000298846
0.000313637
0.000328653
0.000343883
0.000359313
0.000374932
0.000390727
0.000406683
0.000422786
0.000439021
0.000455369
0.000471813
0.000488331
0.000504899
0.000521488
0.000538066
0.000554592
0.000571021
0.000587295
0.000603354
-1.95954e-05
-1.98409e-05
-1.93131e-05
-1.84673e-05
-1.7169e-05
-1.54357e-05
-1.32702e-05
-1.06729e-05
-7.64496e-06
-4.18761e-06
-3.02343e-07
4.00914e-06
8.74488e-06
1.39026e-05
1.94798e-05
2.54736e-05
3.18809e-05
3.86984e-05
4.59224e-05
5.3549e-05
6.15741e-05
6.99934e-05
7.8802e-05
8.7995e-05
9.75669e-05
0.000107512
0.000117825
0.000128498
0.000139526
0.000150901
0.000162617
0.000174665
0.000187038
0.000199727
0.000212724
0.000226019
0.000239603
0.000253467
0.000267601
0.000281994
0.000296635
0.000311512
0.000326615
0.000341931
0.000357447
0.00037315
0.000389027
0.000405061
0.000421238
0.00043754
0.000453951
0.000470448
0.00048701
0.000503612
0.000520225
0.000536816
0.000553347
0.000569776
0.000586054
0.000602128
-2.39661e-05
-2.42155e-05
-2.36859e-05
-2.28372e-05
-2.15335e-05
-1.97926e-05
-1.76172e-05
-1.50078e-05
-1.19655e-05
-8.49131e-06
-4.58677e-06
-2.53523e-07
4.50649e-06
9.69102e-06
1.52975e-05
2.13232e-05
2.77649e-05
3.46194e-05
4.18832e-05
4.95524e-05
5.7623e-05
6.60906e-05
7.49505e-05
8.41976e-05
9.38266e-05
0.000103832
0.000114207
0.000124946
0.000136043
0.00014749
0.00015928
0.000171406
0.000183859
0.000196631
0.000209714
0.000223097
0.000236772
0.000250729
0.000264957
0.000279446
0.000294185
0.000309161
0.000324363
0.000339779
0.000355394
0.000371195
0.000387168
0.000403296
0.000419564
0.000435953
0.000452445
0.000469019
0.000485651
0.000502315
0.000518985
0.000535627
0.000552206
0.000568682
0.000585014
0.000601154
-2.87811e-05
-2.90348e-05
-2.85034e-05
-2.76516e-05
-2.63421e-05
-2.4593e-05
-2.24069e-05
-1.97843e-05
-1.6726e-05
-1.32334e-05
-9.30761e-06
-4.95041e-06
-1.63716e-07
5.05023e-06
1.06889e-05
1.67495e-05
2.32291e-05
3.01244e-05
3.7432e-05
4.51482e-05
5.32689e-05
6.17897e-05
7.07061e-05
8.00129e-05
8.97048e-05
9.97762e-05
0.000110221
0.000121033
0.000132206
0.000143732
0.000155605
0.000167816
0.000180358
0.000193223
0.0002064
0.000219881
0.000233657
0.000247717
0.000262051
0.000276647
0.000291495
0.000306583
0.000321897
0.000337425
0.000353154
0.000369068
0.000385153
0.000401392
0.000417769
0.000434264
0.000450859
0.000467532
0.000484259
0.000501016
0.000517773
0.000534501
0.000551167
0.000567733
0.000584162
0.000600414
-3.4043e-05
-3.43015e-05
-3.37682e-05
-3.29132e-05
-3.15975e-05
-2.98396e-05
-2.76419e-05
-2.50049e-05
-2.19294e-05
-1.84166e-05
-1.44677e-05
-1.00845e-05
-5.26876e-06
-2.28281e-08
5.65084e-06
1.17495e-05
1.82704e-05
2.52102e-05
3.25656e-05
4.0333e-05
4.85084e-05
5.70875e-05
6.60655e-05
7.54376e-05
8.51982e-05
9.53419e-05
0.000105863
0.000116754
0.00012801
0.000139624
0.000151587
0.000163893
0.000176532
0.000189498
0.000202779
0.000216368
0.000230255
0.000244429
0.00025888
0.000273595
0.000288565
0.000303776
0.000319216
0.000334871
0.000350727
0.00036677
0.000382983
0.00039935
0.000415854
0.000432476
0.000449196
0.000465991
0.00048284
0.000499716
0.000516592
0.000533439
0.000550226
0.00056692
0.000583485
0.000599885
-3.9755e-05
-4.00186e-05
-3.94833e-05
-3.8625e-05
-3.73028e-05
-3.55354e-05
-3.33253e-05
-3.06727e-05
-2.75786e-05
-2.4044e-05
-2.00702e-05
-1.56589e-05
-1.0812e-05
-5.53153e-06
1.79923e-07
6.31979e-06
1.28853e-05
1.98733e-05
2.72805e-05
3.51034e-05
4.33381e-05
5.19801e-05
6.1025e-05
7.04677e-05
8.0303e-05
9.05252e-05
0.000101129
0.000112107
0.000123453
0.000135161
0.000147223
0.000159631
0.000172377
0.000185453
0.000198849
0.000212556
0.000226564
0.000240862
0.000255441
0.000270288
0.000285392
0.000300739
0.000316318
0.000332114
0.000348113
0.0003643
0.000380658
0.000397172
0.000413822
0.00043059
0.000447456
0.000464398
0.000481392
0.000498415
0.000515439
0.000532437
0.000549379
0.000566234
0.000582969
0.000599552
-4.592e-05
-4.61893e-05
-4.5652e-05
-4.47902e-05
-4.34611e-05
-4.16836e-05
-3.94601e-05
-3.6791e-05
-3.36769e-05
-3.01191e-05
-2.61186e-05
-2.16773e-05
-1.67969e-05
-1.14795e-05
-5.72753e-06
4.56568e-07
7.07003e-06
1.41099e-05
2.15729e-05
2.94555e-05
3.77539e-05
4.64637e-05
5.55805e-05
6.50993e-05
7.50149e-05
8.53219e-05
9.60143e-05
0.000107086
0.00011853
0.00013034
0.000142509
0.000155028
0.000167889
0.000181084
0.000194604
0.000208439
0.000222579
0.000237014
0.000251732
0.000266722
0.000281972
0.00029747
0.000313201
0.000329153
0.00034531
0.000361657
0.000378178
0.000394855
0.000411671
0.000428606
0.00044564
0.000462752
0.000479917
0.000497113
0.000514312
0.000531491
0.000548618
0.000565665
0.000582601
0.000599397
-5.25415e-05
-5.2817e-05
-5.22776e-05
-5.14122e-05
-5.00759e-05
-4.82876e-05
-4.605e-05
-4.33632e-05
-4.0228e-05
-3.66453e-05
-3.26167e-05
-2.81434e-05
-2.32274e-05
-1.78707e-05
-1.20754e-05
-5.84409e-06
8.20659e-07
7.91593e-06
1.54385e-05
2.3385e-05
3.17515e-05
4.05338e-05
4.97276e-05
5.93279e-05
6.93297e-05
7.97274e-05
9.05153e-05
0.000101687
0.000113237
0.000125157
0.00013744
0.000150078
0.000163064
0.000176388
0.000190041
0.000204014
0.000218297
0.000232878
0.000247748
0.000262894
0.000278303
0.000293964
0.000309863
0.000325985
0.000342316
0.000358839
0.00037554
0.0003924
0.0004094
0.000426523
0.000443746
0.00046105
0.000478411
0.000495806
0.00051321
0.000530594
0.000547935
0.000565203
0.00058237
0.000599408
-5.96232e-05
-5.99053e-05
-5.93638e-05
-5.84946e-05
-5.71506e-05
-5.53511e-05
-5.30985e-05
-5.03931e-05
-4.72355e-05
-4.36268e-05
-3.95682e-05
-3.50613e-05
-3.01076e-05
-2.47091e-05
-1.88679e-05
-1.25864e-05
-5.86717e-06
1.287e-06
8.87297e-06
1.68873e-05
2.53263e-05
3.41858e-05
4.34615e-05
5.31487e-05
6.32423e-05
7.37369e-05
8.46268e-05
9.59058e-05
0.000107567
0.000119605
0.000132011
0.000144777
0.000157896
0.000171358
0.000185155
0.000199276
0.000213712
0.000228452
0.000243485
0.000258799
0.000274381
0.000290219
0.000306299
0.000322607
0.000339127
0.000355844
0.000372741
0.000389802
0.000407007
0.000424337
0.000441772
0.000459291
0.000476871
0.000494489
0.00051212
0.00052974
0.000547322
0.000564839
0.000582265
0.000599572
-6.71688e-05
-6.74581e-05
-6.69143e-05
-6.60413e-05
-6.46893e-05
-6.28779e-05
-6.06096e-05
-5.78846e-05
-5.47036e-05
-5.10676e-05
-4.69776e-05
-4.24351e-05
-3.74417e-05
-3.19991e-05
-2.61095e-05
-1.9775e-05
-1.29981e-05
-5.78166e-06
1.87132e-06
9.9575e-06
1.84732e-05
2.74145e-05
3.67771e-05
4.65564e-05
5.67475e-05
6.73449e-05
7.83432e-05
8.9736e-05
0.000101517
0.00011368
0.000126216
0.000139119
0.00015238
0.00016599
0.00017994
0.00019422
0.00020882
0.00022373
0.000238938
0.000254432
0.0002702
0.000286229
0.000302505
0.000319013
0.000335739
0.000352666
0.000369778
0.000387058
0.000404486
0.000422044
0.000439712
0.000457468
0.00047529
0.000493156
0.000511041
0.000528921
0.00054677
0.000564563
0.000582273
0.000599876
-7.51823e-05
-7.54793e-05
-7.49333e-05
-7.40562e-05
-7.26959e-05
-7.08722e-05
-6.85876e-05
-6.58422e-05
-6.26367e-05
-5.8972e-05
-5.48491e-05
-5.02694e-05
-4.52343e-05
-3.97455e-05
-3.38049e-05
-2.74146e-05
-2.05772e-05
-1.32952e-05
-5.5716e-06
2.59028e-06
1.1187e-05
2.02146e-05
2.96689e-05
3.95456e-05
4.98397e-05
6.05459e-05
7.16588e-05
8.31723e-05
9.50801e-05
0.000107375
0.000120051
0.000133098
0.00014651
0.000160277
0.00017439
0.00018884
0.000203615
0.000218706
0.000234102
0.000249789
0.000265756
0.00028199
0.000298476
0.0003152
0.000332148
0.000349302
0.000366646
0.000384163
0.000401835
0.000419641
0.000437562
0.000455577
0.000473665
0.000491802
0.000509964
0.000528129
0.000546271
0.000564365
0.000582386
0.000600308
-8.36679e-05
-8.39731e-05
-8.34247e-05
-8.25437e-05
-8.11747e-05
-7.93382e-05
-7.70367e-05
-7.42702e-05
-7.10392e-05
-6.73447e-05
-6.31875e-05
-5.85689e-05
-5.34902e-05
-4.7953e-05
-4.19591e-05
-3.55105e-05
-2.86096e-05
-2.12589e-05
-1.34613e-05
-5.21997e-06
3.46175e-06
1.25801e-05
2.2131e-05
3.21101e-05
4.25127e-05
5.33336e-05
6.45675e-05
7.62083e-05
8.82499e-05
0.000100685
0.000113507
0.000126708
0.00014028
0.000154213
0.000168499
0.000183129
0.00019809
0.000213374
0.000228969
0.000244863
0.000261042
0.000277495
0.000294206
0.000311162
0.000328347
0.000345745
0.000363339
0.000381112
0.000399046
0.00041712
0.000435316
0.000453612
0.000471987
0.000490418
0.000508882
0.000527356
0.000545815
0.000564235
0.000582591
0.000600859
-9.26299e-05
-9.29438e-05
-9.23932e-05
-9.1508e-05
-9.01303e-05
-8.82807e-05
-8.59617e-05
-8.31732e-05
-7.99159e-05
-7.61904e-05
-7.19976e-05
-6.73385e-05
-6.22145e-05
-5.66269e-05
-5.05775e-05
-4.40681e-05
-3.7101e-05
-2.96786e-05
-2.18037e-05
-1.34792e-05
-4.70847e-06
4.50492e-06
1.4157e-05
2.42437e-05
3.47602e-05
4.57016e-05
5.70626e-05
6.88374e-05
8.10198e-05
9.36029e-05
0.00010658
0.000119942
0.000133682
0.000147792
0.000162261
0.00017708
0.000192239
0.000207728
0.000223534
0.000239646
0.000256052
0.000272737
0.000289688
0.000306891
0.00032433
0.000341989
0.000359851
0.000377898
0.000396113
0.000414476
0.000432967
0.000451565
0.000470249
0.000488997
0.000507787
0.000526594
0.000545394
0.000564165
0.000582881
0.000601518
-0.000102073
-0.000102396
-0.000101843
-0.000100954
-9.95672e-05
-9.77042e-05
-9.53673e-05
-9.25564e-05
-8.92718e-05
-8.55143e-05
-8.12846e-05
-7.65837e-05
-7.14126e-05
-6.57728e-05
-5.96657e-05
-5.30933e-05
-4.60574e-05
-3.85604e-05
-3.06049e-05
-2.21938e-05
-1.33302e-05
-4.01752e-06
5.74036e-06
1.59394e-05
2.65751e-05
3.76428e-05
4.91371e-05
6.10524e-05
7.33825e-05
8.61207e-05
9.92599e-05
0.000112792
0.00012671
0.000141004
0.000155666
0.000170686
0.000186054
0.000201758
0.000217788
0.000234132
0.000250777
0.00026771
0.000284916
0.000302381
0.00032009
0.000338026
0.000356174
0.000374514
0.000393029
0.0004117
0.000430506
0.000449428
0.000468443
0.000487531
0.000506669
0.000525833
0.000544999
0.000564144
0.000583244
0.000602274
-0.000112001
-0.000112335
-0.000111779
-0.000110886
-0.000109491
-0.000107614
-0.000105259
-0.000102425
-9.91121e-05
-9.53216e-05
-9.10539e-05
-8.63098e-05
-8.10902e-05
-7.53965e-05
-6.92298e-05
-6.2592e-05
-5.54849e-05
-4.79105e-05
-3.98714e-05
-3.13703e-05
-2.24101e-05
-1.29942e-05
-3.12611e-06
7.19017e-06
1.79504e-05
2.91499e-05
4.07835e-05
5.28456e-05
6.53302e-05
7.82307e-05
9.154e-05
0.000105251
0.000119355
0.000133843
0.000148708
0.000163939
0.000179526
0.000195458
0.000211725
0.000228313
0.000245211
0.000262404
0.00027988
0.000297623
0.000315619
0.00033385
0.0003523
0.000370951
0.000389785
0.000408784
0.000427926
0.000447193
0.000466561
0.000486012
0.00050552
0.000525064
0.00054462
0.000564164
0.000583672
0.000603119
-0.00012242
-0.000122764
-0.000122207
-0.00012131
-0.000119905
-0.000118015
-0.000115641
-0.000112783
-0.000109442
-0.000105618
-0.000101311
-9.65227e-05
-9.12533e-05
-8.5504e-05
-7.9276e-05
-7.25708e-05
-6.539e-05
-5.77357e-05
-4.96101e-05
-4.10157e-05
-3.19554e-05
-2.24323e-05
-1.24498e-05
-2.01162e-06
8.87811e-06
2.02149e-05
3.19936e-05
4.42088e-05
5.68547e-05
6.99246e-05
8.34117e-05
9.73086e-05
0.000111608
0.0001263
0.000141377
0.00015683
0.000172647
0.000188819
0.000205333
0.000222179
0.000239343
0.000256812
0.000274572
0.000292609
0.000310907
0.000329449
0.00034822
0.000367201
0.000386373
0.000405719
0.000425219
0.000444851
0.000464596
0.00048443
0.000504332
0.000524279
0.000544247
0.000564213
0.000584153
0.000604042
-0.000133335
-0.00013369
-0.000133131
-0.00013223
-0.000130816
-0.000128912
-0.000126519
-0.000123638
-0.000120267
-0.000116409
-0.000112062
-0.000107229
-0.000101908
-9.61017e-05
-8.98107e-05
-8.30361e-05
-7.57796e-05
-6.80429e-05
-5.98281e-05
-5.11374e-05
-4.19737e-05
-3.23397e-05
-2.22386e-05
-1.1674e-05
-6.49863e-07
1.08294e-05
2.27589e-05
3.51334e-05
4.79469e-05
6.11933e-05
7.48658e-05
8.89572e-05
0.00010346
0.000118365
0.000133665
0.000149349
0.000165408
0.000181831
0.000198606
0.000215721
0.000233165
0.000250924
0.000268983
0.000287329
0.000305945
0.000324816
0.000343924
0.000363253
0.000382783
0.000402497
0.000422373
0.000442392
0.000462533
0.000482774
0.000503092
0.000523466
0.00054387
0.000564283
0.000584678
0.000605033
-0.000144751
-0.000145117
-0.000144556
-0.000143652
-0.00014223
-0.000140311
-0.000137899
-0.000134994
-0.000131594
-0.0001277
-0.000123313
-0.000118433
-0.000113061
-0.000107196
-0.000100841
-9.39951e-05
-8.66608e-05
-7.88394e-05
-7.05328e-05
-6.17432e-05
-5.24728e-05
-4.27243e-05
-3.25007e-05
-2.18054e-05
-1.06422e-05
9.84594e-07
1.30704e-05
2.56099e-05
3.85976e-05
5.20274e-05
6.58928e-05
8.01867e-05
9.49015e-05
0.000110029
0.000125561
0.000141487
0.000157798
0.000174483
0.000191531
0.00020893
0.000226667
0.000244729
0.000263103
0.000281772
0.000300723
0.000319939
0.000339403
0.000359098
0.000379005
0.000399105
0.000419379
0.000439806
0.000460365
0.000481034
0.000501792
0.000522615
0.000543479
0.000564362
0.000585238
0.000606083
-0.000156672
-0.000157052
-0.000156489
-0.000155582
-0.00015415
-0.000152218
-0.000149787
-0.000146857
-0.000143428
-0.000139499
-0.000135071
-0.000130144
-0.000124718
-0.000118794
-0.000112373
-0.000105455
-9.8041e-05
-9.0133e-05
-8.17323e-05
-7.28409e-05
-6.34609e-05
-5.35946e-05
-4.32449e-05
-3.24149e-05
-2.11082e-05
-9.32895e-06
2.91837e-06
1.56288e-05
2.8797e-05
4.2417e-05
5.64826e-05
7.09869e-05
8.59225e-05
0.000101281
0.000117055
0.000133233
0.000149807
0.000166766
0.000184099
0.000201793
0.000219837
0.000238217
0.000256919
0.000275929
0.00029523
0.000314808
0.000334645
0.000354724
0.000375027
0.000395534
0.000416225
0.000437081
0.00045808
0.0004792
0.00050042
0.000521716
0.000543064
0.00056444
0.000585821
0.00060718
-0.000169105
-0.000169498
-0.000168934
-0.000168024
-0.000166584
-0.000164638
-0.000162188
-0.000159234
-0.000155775
-0.000151811
-0.000147341
-0.000142367
-0.000136888
-0.000130903
-0.000124415
-0.000117423
-0.000109928
-0.000101932
-9.34347e-05
-8.44392e-05
-7.49468e-05
-6.49596e-05
-5.44803e-05
-4.35117e-05
-3.20574e-05
-2.01211e-05
-7.70712e-06
5.17981e-06
1.85346e-05
3.23516e-05
4.66247e-05
6.13472e-05
7.65118e-05
9.21106e-05
0.000108135
0.000124576
0.000141424
0.000158668
0.000176297
0.0001943
0.000212664
0.000231375
0.000250421
0.000269786
0.000289454
0.000309411
0.000329639
0.000350121
0.000370838
0.000391771
0.0004129
0.000434206
0.000455667
0.00047726
0.000498965
0.000520756
0.000542612
0.000564507
0.000586416
0.000608315
-0.000182056
-0.000182463
-0.000181898
-0.000180985
-0.000179537
-0.000177578
-0.000175109
-0.000172131
-0.000168642
-0.000164642
-0.000160131
-0.000155109
-0.000149575
-0.00014353
-0.000136974
-0.000129907
-0.00012233
-0.000114243
-0.000105649
-9.65468e-05
-8.69395e-05
-7.68286e-05
-6.62165e-05
-5.51059e-05
-4.34999e-05
-3.14021e-05
-1.88166e-05
-5.74773e-06
7.79963e-06
2.18201e-05
3.63077e-05
5.12559e-05
6.66577e-05
8.25052e-05
9.87902e-05
0.000115504
0.000132636
0.000150176
0.000168114
0.000186438
0.000205135
0.000224192
0.000243596
0.000263331
0.000283383
0.000303736
0.000324372
0.000345275
0.000366425
0.000387804
0.000409392
0.000431169
0.000453113
0.000475202
0.000497414
0.000519725
0.000542112
0.000564549
0.000587013
0.000609477
-0.000195529
-0.000195951
-0.000195385
-0.000194471
-0.000193015
-0.000191042
-0.000188555
-0.000185553
-0.000182035
-0.000178
-0.000173447
-0.000168377
-0.000162789
-0.000156683
-0.000150058
-0.000142916
-0.000135255
-0.000127077
-0.000118383
-0.000109173
-9.94485e-05
-8.92114e-05
-7.84636e-05
-6.72076e-05
-5.54463e-05
-4.31829e-05
-3.04211e-05
-1.7165e-05
-3.41932e-06
1.08109e-05
2.55198e-05
4.07012e-05
5.63481e-05
7.24529e-05
8.90075e-05
0.000106003
0.00012343
0.000141278
0.000159537
0.000178194
0.000197237
0.000216654
0.00023643
0.000256552
0.000277003
0.000297768
0.000318831
0.000340173
0.000361776
0.000383621
0.000405688
0.000427957
0.000450406
0.000473013
0.000495755
0.00051861
0.000541552
0.000564557
0.0005876
0.000610654
-0.000209531
-0.000209969
-0.000209402
-0.000208487
-0.000207023
-0.000205038
-0.000202534
-0.000199508
-0.000195961
-0.000191891
-0.000187297
-0.000182179
-0.000176537
-0.000170369
-0.000163676
-0.000156457
-0.000148712
-0.000140442
-0.000131647
-0.000122327
-0.000112484
-0.000102118
-9.1232e-05
-7.98277e-05
-6.79076e-05
-5.54746e-05
-4.2532e-05
-2.90838e-05
-1.51342e-05
-6.88259e-07
1.42486e-05
2.96703e-05
4.55701e-05
6.19406e-05
7.87738e-05
9.60612e-05
0.000113793
0.00013196
0.000150551
0.000169554
0.000188957
0.000208747
0.000228911
0.000249434
0.000270301
0.000291496
0.000313001
0.000334801
0.000356875
0.000379206
0.000401773
0.000424555
0.000447531
0.000470679
0.000493975
0.000517397
0.000540919
0.000564516
0.000588164
0.000611835
-0.000224066
-0.000224521
-0.000223955
-0.000223039
-0.000221569
-0.000219572
-0.00021705
-0.000214002
-0.000210426
-0.000206322
-0.000201687
-0.000196522
-0.000190825
-0.000184596
-0.000177835
-0.000170539
-0.00016271
-0.000154347
-0.00014545
-0.000136019
-0.000126055
-0.000115559
-0.000104533
-9.29773e-05
-8.08952e-05
-6.82889e-05
-5.51615e-05
-4.15164e-05
-2.73578e-05
-1.26902e-05
2.4809e-06
1.81498e-05
3.431e-05
5.09544e-05
6.80753e-05
8.5664e-05
0.000103711
0.000122208
0.000141142
0.000160503
0.000180279
0.000200457
0.000221023
0.000241963
0.000263261
0.000284902
0.000306869
0.000329145
0.00035171
0.000374546
0.000397633
0.00042095
0.000444475
0.000468186
0.00049206
0.000516072
0.000540199
0.000564415
0.000588693
0.000613008
-0.000239142
-0.000239615
-0.000239049
-0.000238133
-0.000236658
-0.00023465
-0.000232112
-0.000229042
-0.000225438
-0.0002213
-0.000216625
-0.000211414
-0.000205664
-0.000199374
-0.000192544
-0.000185172
-0.000177258
-0.000168802
-0.000159802
-0.000150259
-0.000140174
-0.000129546
-0.000118377
-0.000106668
-9.44212e-05
-8.16383e-05
-6.8322e-05
-5.44757e-05
-4.01031e-05
-2.52086e-05
-9.7971e-06
6.12577e-06
2.25538e-05
3.94801e-05
5.68971e-05
7.47965e-05
9.31693e-05
0.000112006
0.000131295
0.000151027
0.000171189
0.000191768
0.00021275
0.000234122
0.000255869
0.000277973
0.000300419
0.000323189
0.000346264
0.000369625
0.000393253
0.000417126
0.000441222
0.000465519
0.000489994
0.000514622
0.000539379
0.000564238
0.000589175
0.00061416
-0.000254763
-0.000255255
-0.00025469
-0.000253775
-0.000252295
-0.000250278
-0.000247725
-0.000244634
-0.000241004
-0.000236833
-0.000232119
-0.000226862
-0.000221059
-0.000214709
-0.000207812
-0.000200364
-0.000192366
-0.000183816
-0.000174714
-0.000165059
-0.000154851
-0.00014409
-0.000132777
-0.000120912
-0.000108498
-9.55354e-05
-8.20269e-05
-6.79754e-05
-5.33842e-05
-3.82575e-05
-2.25998e-05
-6.41656e-06
1.02864e-05
2.75024e-05
4.5224e-05
6.34433e-05
8.21513e-05
0.000101339
0.000120995
0.000141109
0.000161669
0.000182663
0.000204077
0.000225897
0.000248107
0.000270691
0.000293634
0.000316916
0.000340521
0.000364427
0.000388617
0.000413067
0.000437756
0.000462663
0.000487762
0.000513031
0.000538443
0.000563973
0.000589594
0.000615277
-0.000270935
-0.000271447
-0.000270885
-0.000269972
-0.000268488
-0.000266462
-0.000263895
-0.000260785
-0.000257129
-0.000252927
-0.000248176
-0.000242874
-0.00023702
-0.000230612
-0.000223647
-0.000216125
-0.000208043
-0.000199401
-0.000190196
-0.000180429
-0.000170097
-0.000159203
-0.000147744
-0.000135723
-0.000123139
-0.000109994
-9.629e-05
-8.20295e-05
-6.72156e-05
-5.18518e-05
-3.59425e-05
-1.94926e-05
-2.5079e-06
1.50053e-05
3.30398e-05
5.15878e-05
7.06407e-05
9.01893e-05
0.000110224
0.000130732
0.000151704
0.000173127
0.000194986
0.000217268
0.000239958
0.00026304
0.000286496
0.00031031
0.000334463
0.000358935
0.000383706
0.000408756
0.000434062
0.000459601
0.000485349
0.000511283
0.000537376
0.000563603
0.000589935
0.000616346
-0.000287664
-0.000288197
-0.000287638
-0.000286728
-0.000285243
-0.000283209
-0.00028063
-0.000277501
-0.000273822
-0.00026959
-0.000264803
-0.000259459
-0.000253556
-0.00024709
-0.000240061
-0.000232465
-0.0002243
-0.000215566
-0.000206259
-0.00019638
-0.000185926
-0.000174897
-0.000163292
-0.000151112
-0.000138357
-0.000125028
-0.000111126
-9.6653e-05
-8.16124e-05
-6.6007e-05
-4.98408e-05
-3.31185e-05
-1.58455e-05
1.97203e-06
2.03274e-05
3.92129e-05
5.86204e-05
7.85407e-05
9.8964e-05
0.00011988
0.000141276
0.00016314
0.000185459
0.000208219
0.000231405
0.000255
0.000278988
0.000303352
0.000328072
0.00035313
0.000378505
0.000404175
0.00043012
0.000456315
0.000482737
0.000509361
0.000536162
0.000563112
0.000590184
0.00061735
-0.000304955
-0.000305511
-0.000304955
-0.000304051
-0.000302564
-0.000300525
-0.000297935
-0.00029479
-0.00029109
-0.00028683
-0.000282009
-0.000276625
-0.000270674
-0.000264153
-0.00025706
-0.000249393
-0.000241147
-0.000232322
-0.000222915
-0.000212925
-0.000202348
-0.000191185
-0.000179434
-0.000167095
-0.000154167
-0.000140652
-0.000126549
-0.000111861
-9.65904e-05
-8.07393e-05
-6.43114e-05
-4.73112e-05
-2.97438e-05
-1.16148e-05
7.06916e-06
2.63008e-05
4.60722e-05
6.63744e-05
8.71978e-05
0.000108532
0.000130365
0.000152685
0.000175478
0.000198731
0.000222428
0.000246554
0.000271091
0.000296023
0.00032133
0.000346994
0.000372993
0.000399307
0.000425913
0.000452788
0.000479908
0.000507248
0.000534783
0.000562484
0.000590323
0.000618273
-0.000322814
-0.000323394
-0.000322843
-0.000321944
-0.000320458
-0.000318415
-0.000315816
-0.000312658
-0.000308938
-0.000304654
-0.000299802
-0.000294379
-0.000288383
-0.00028181
-0.000274656
-0.000266919
-0.000258595
-0.000249682
-0.000240176
-0.000230075
-0.000219377
-0.000208081
-0.000196183
-0.000183685
-0.000170584
-0.000156881
-0.000142576
-0.000127671
-0.000112166
-9.60657e-05
-7.93717e-05
-6.20884e-05
-4.42206e-05
-2.57735e-05
-6.75339e-06
1.28328e-05
3.29772e-05
5.36714e-05
7.49056e-05
9.66695e-05
0.000118952
0.00014174
0.000165022
0.000188782
0.000213007
0.00023768
0.000262785
0.000288303
0.000314217
0.000340506
0.000367151
0.00039413
0.000421421
0.000449
0.000476843
0.000504925
0.00053322
0.000561699
0.000590336
0.000619099
-0.000341246
-0.000341851
-0.000341306
-0.000340415
-0.000338931
-0.000336886
-0.000334281
-0.000331111
-0.000327375
-0.000323068
-0.000318188
-0.000312731
-0.000306693
-0.00030007
-0.000292858
-0.000285055
-0.000276655
-0.000267655
-0.000258053
-0.000247844
-0.000237027
-0.000225597
-0.000213555
-0.000200897
-0.000187623
-0.000173731
-0.000159223
-0.000144098
-0.000128357
-0.000112004
-9.50397e-05
-7.74686e-05
-5.92947e-05
-4.05231e-05
-2.11596e-05
-1.21085e-06
1.93156e-05
4.04114e-05
6.20671e-05
8.42724e-05
0.000107016
0.000130287
0.000154071
0.000178354
0.000203122
0.000228359
0.000254048
0.000280172
0.000306711
0.000333647
0.000360959
0.000388625
0.000416624
0.000444931
0.000473522
0.000502372
0.000531454
0.00056074
0.000590202
0.000619809
-0.000360256