/*--------------------------------*- C++ -*----------------------------------*\
  =========                 |
  \\      /  F ield         | OpenFOAM: The Open Source CFD Toolbox
   \\    /   O peration     | Website:  https://openfoam.org
    \\  /    A nd           | Version:  8
     \\/     M anipulation  |
\*---------------------------------------------------------------------------*/
FoamFile
{
    version     2.0;
    format      ascii;
    class       surfaceScalarField;
    location    "8.5";
    object      phi;
}
// * * * * * * * * * * * * * * * * * * * * * * * * * * * * * * * * * * * * * //

dimensions      [0 3 -1 0 0 0 0];

internalField   nonuniform List<scalar> 
22960
(
-2.62516e-07
2.62512e-07
-6.62431e-07
3.99915e-07
-1.08099e-06
4.18555e-07
-1.50051e-06
4.1952e-07
-1.9187e-06
4.18194e-07
-2.33511e-06
4.16411e-07
-2.74941e-06
4.14301e-07
-3.16126e-06
4.11846e-07
-3.57029e-06
4.09035e-07
-3.97616e-06
4.05866e-07
-4.3785e-06
4.0234e-07
-4.77696e-06
3.98461e-07
-5.17119e-06
3.94231e-07
-5.56085e-06
3.89656e-07
-5.94559e-06
3.8474e-07
-6.32508e-06
3.7949e-07
-6.69899e-06
3.73911e-07
-7.067e-06
3.68009e-07
-7.42879e-06
3.61792e-07
-7.78406e-06
3.55268e-07
-8.1325e-06
3.48444e-07
-8.47383e-06
3.41329e-07
-8.80776e-06
3.33933e-07
-9.13403e-06
3.26266e-07
-9.45237e-06
3.18338e-07
-9.76253e-06
3.10162e-07
-1.00643e-05
3.0175e-07
-1.03574e-05
2.93116e-07
-1.06417e-05
2.84275e-07
-1.09169e-05
2.75243e-07
-1.11829e-05
2.66039e-07
-1.14396e-05
2.56683e-07
-1.16868e-05
2.47197e-07
-1.19244e-05
2.37606e-07
-1.21524e-05
2.27941e-07
-1.23706e-05
2.18232e-07
-1.25791e-05
2.08519e-07
-1.2778e-05
1.98845e-07
-1.29672e-05
1.89263e-07
-1.31471e-05
1.79836e-07
-1.33177e-05
1.70639e-07
-1.34795e-05
1.61764e-07
-1.36328e-05
1.53327e-07
-1.37783e-05
1.45471e-07
-1.39167e-05
1.38382e-07
-1.4049e-05
1.323e-07
-1.41765e-05
1.27546e-07
-1.43011e-05
1.24553e-07
-1.4425e-05
1.23926e-07
-1.45515e-05
1.26525e-07
-1.46851e-05
1.33603e-07
-1.48322e-05
1.4707e-07
-1.50021e-05
1.69943e-07
-1.52093e-05
2.07183e-07
-1.54768e-05
2.67496e-07
-1.58449e-05
3.68107e-07
-1.63823e-05
5.37414e-07
-1.71881e-05
8.05816e-07
-1.89149e-05
1.72677e-06
3.55464e-06
-2.24696e-05
-4.00883e-07
6.63395e-07
-9.72902e-07
9.71934e-07
-1.56902e-06
1.01468e-06
-2.16659e-06
1.01709e-06
-2.76255e-06
1.01415e-06
-3.35607e-06
1.00993e-06
-3.94656e-06
1.00479e-06
-4.53347e-06
9.98759e-07
-5.11627e-06
9.91835e-07
-5.69443e-06
9.84027e-07
-6.26743e-06
9.7534e-07
-6.83476e-06
9.65785e-07
-7.3959e-06
9.55372e-07
-7.95036e-06
9.44113e-07
-8.49764e-06
9.32022e-07
-9.03726e-06
9.19111e-07
-9.56875e-06
9.05399e-07
-1.00916e-05
8.90899e-07
-1.06055e-05
8.75632e-07
-1.11098e-05
8.59616e-07
-1.16043e-05
8.42871e-07
-1.20883e-05
8.25421e-07
-1.25617e-05
8.07288e-07
-1.30239e-05
7.88498e-07
-1.34747e-05
7.69078e-07
-1.39136e-05
7.49059e-07
-1.43403e-05
7.2847e-07
-1.47545e-05
7.07347e-07
-1.5156e-05
6.85727e-07
-1.55444e-05
6.63651e-07
-1.59195e-05
6.41162e-07
-1.62811e-05
6.18312e-07
-1.66291e-05
5.95154e-07
-1.69632e-05
5.71751e-07
-1.72835e-05
5.48173e-07
-1.75897e-05
5.24499e-07
-1.7882e-05
5.00821e-07
-1.81604e-05
4.77247e-07
-1.84251e-05
4.53902e-07
-1.86762e-05
4.30937e-07
-1.89141e-05
4.08533e-07
-1.91392e-05
3.8691e-07
-1.93522e-05
3.66343e-07
-1.95539e-05
3.47176e-07
-1.97454e-05
3.29847e-07
-1.9928e-05
3.14926e-07
-2.01037e-05
3.03169e-07
-2.02747e-05
2.95593e-07
-2.04444e-05
2.93606e-07
-2.0617e-05
2.99199e-07
-2.07987e-05
3.15253e-07
-2.09977e-05
3.4608e-07
-2.12261e-05
3.98343e-07
-2.15016e-05
4.82651e-07
-2.18508e-05
6.16697e-07
-2.23152e-05
8.32505e-07
-2.29559e-05
1.17814e-06
-2.38609e-05
1.71079e-06
-2.50867e-05
2.95262e-06
4.35099e-06
-2.58831e-05
-4.21014e-07
1.08441e-06
-1.01923e-06
1.57015e-06
-1.64194e-06
1.63739e-06
-2.26585e-06
1.64099e-06
-2.88794e-06
1.63624e-06
-3.50743e-06
1.62942e-06
-4.12374e-06
1.6211e-06
-4.73629e-06
1.61131e-06
-5.34452e-06
1.60007e-06
-5.94789e-06
1.5874e-06
-6.54585e-06
1.5733e-06
-7.13785e-06
1.55779e-06
-7.72338e-06
1.54089e-06
-8.30189e-06
1.52263e-06
-8.87288e-06
1.50301e-06
-9.43585e-06
1.48208e-06
-9.99029e-06
1.45984e-06
-1.05357e-05
1.43633e-06
-1.10717e-05
1.41158e-06
-1.15977e-05
1.38562e-06
-1.21133e-05
1.35848e-06
-1.2618e-05
1.3302e-06
-1.31116e-05
1.30082e-06
-1.35935e-05
1.27037e-06
-1.40633e-05
1.23892e-06
-1.45207e-05
1.20649e-06
-1.49654e-05
1.17315e-06
-1.5397e-05
1.13894e-06
-1.58152e-05
1.10393e-06
-1.62197e-05
1.06819e-06
-1.66103e-05
1.03178e-06
-1.69868e-05
9.94784e-07
-1.7349e-05
9.57293e-07
-1.76966e-05
9.19403e-07
-1.80297e-05
8.81225e-07
-1.8348e-05
8.42887e-07
-1.86518e-05
8.04533e-07
-1.89408e-05
7.66332e-07
-1.92154e-05
7.28482e-07
-1.94757e-05
6.91216e-07
-1.9722e-05
6.54818e-07
-1.99547e-05
6.19628e-07
-2.01744e-05
5.86069e-07
-2.03819e-05
5.54664e-07
-2.05782e-05
5.26081e-07
-2.07644e-05
5.01173e-07
-2.09423e-05
4.81058e-07
-2.11139e-05
4.67222e-07
-2.1282e-05
4.61677e-07
-2.145e-05
4.672e-07
-2.16224e-05
4.87691e-07
-2.18051e-05
5.2873e-07
-2.20052e-05
5.98492e-07
-2.22318e-05
7.09183e-07
-2.24947e-05
8.79633e-07
-2.28023e-05
1.14011e-06
-2.31567e-05
1.53249e-06
-2.35597e-05
2.11387e-06
-2.37846e-05
3.1775e-06
4.26129e-06
-2.36949e-05
-4.2397e-07
1.50838e-06
-1.02655e-06
2.17273e-06
-1.6535e-06
2.26434e-06
-2.28159e-06
2.26908e-06
-2.90784e-06
2.2625e-06
-3.53147e-06
2.25305e-06
-4.15189e-06
2.24151e-06
-4.76852e-06
2.22794e-06
-5.3808e-06
2.21236e-06
-5.98819e-06
2.19478e-06
-6.59011e-06
2.17522e-06
-7.18604e-06
2.15372e-06
-7.77544e-06
2.13029e-06
-8.35777e-06
2.10496e-06
-8.93252e-06
2.07776e-06
-9.49917e-06
2.04873e-06
-1.00572e-05
2.0179e-06
-1.06062e-05
1.98531e-06
-1.11456e-05
1.951e-06
-1.1675e-05
1.91501e-06
-1.21939e-05
1.87739e-06
-1.27019e-05
1.83819e-06
-1.31986e-05
1.79746e-06
-1.36835e-05
1.75527e-06
-1.41562e-05
1.71167e-06
-1.46165e-05
1.66673e-06
-1.50638e-05
1.62051e-06
-1.5498e-05
1.5731e-06
-1.59186e-05
1.52458e-06
-1.63255e-05
1.47503e-06
-1.67183e-05
1.42456e-06
-1.70968e-05
1.37327e-06
-1.74607e-05
1.32128e-06
-1.78101e-05
1.26873e-06
-1.81446e-05
1.21576e-06
-1.84643e-05
1.16254e-06
-1.8769e-05
1.10928e-06
-1.90589e-05
1.05619e-06
-1.93339e-05
1.00353e-06
-1.95943e-05
9.51616e-07
-1.98403e-05
9.00816e-07
-2.00722e-05
8.51574e-07
-2.02906e-05
8.04432e-07
-2.0496e-05
7.6006e-07
-2.06892e-05
7.19299e-07
-2.08713e-05
6.83215e-07
-2.10434e-05
6.53179e-07
-2.12071e-05
6.30979e-07
-2.13644e-05
6.18983e-07
-2.15176e-05
6.20369e-07
-2.16694e-05
6.39462e-07
-2.18229e-05
6.8222e-07
-2.19813e-05
7.56953e-07
-2.21475e-05
8.75361e-07
-2.23219e-05
1.05403e-06
-2.2498e-05
1.31622e-06
-2.26567e-05
1.69112e-06
-2.27623e-05
2.21948e-06
-2.25985e-05
3.01369e-06
3.81068e-06
-2.21479e-05
-4.25329e-07
1.93371e-06
-1.03025e-06
2.77764e-06
-1.65952e-06
2.89361e-06
-2.28992e-06
2.89949e-06
-2.91846e-06
2.89104e-06
-3.54436e-06
2.87896e-06
-4.16703e-06
2.86418e-06
-4.7859e-06
2.84681e-06
-5.40041e-06
2.82686e-06
-6.00998e-06
2.80435e-06
-6.61408e-06
2.77932e-06
-7.21215e-06
2.75179e-06
-7.80366e-06
2.7218e-06
-8.38807e-06
2.68937e-06
-8.96486e-06
2.65455e-06
-9.53352e-06
2.61739e-06
-1.00935e-05
2.57792e-06
-1.06444e-05
2.5362e-06
-1.11857e-05
2.49228e-06
-1.17169e-05
2.44621e-06
-1.22376e-05
2.39806e-06
-1.27473e-05
2.34789e-06
-1.32456e-05
2.29576e-06
-1.37321e-05
2.24175e-06
-1.42063e-05
2.18593e-06
-1.4668e-05
2.1284e-06
-1.51167e-05
2.06923e-06
-1.55521e-05
2.00853e-06
-1.59739e-05
1.94639e-06
-1.63819e-05
1.88294e-06
-1.67756e-05
1.81829e-06
-1.71549e-05
1.75258e-06
-1.75196e-05
1.68595e-06
-1.78694e-05
1.61858e-06
-1.82043e-05
1.55064e-06
-1.85241e-05
1.48234e-06
-1.88287e-05
1.41393e-06
-1.91182e-05
1.34568e-06
-1.93926e-05
1.2779e-06
-1.9652e-05
1.21096e-06
-1.98964e-05
1.1453e-06
-2.01263e-05
1.08144e-06
-2.03419e-05
1.02003e-06
-2.05437e-05
9.61819e-07
-2.07321e-05
9.07778e-07
-2.0908e-05
8.59097e-07
-2.10721e-05
8.17281e-07
-2.12254e-05
7.84252e-07
-2.13689e-05
7.62489e-07
-2.15037e-05
7.55214e-07
-2.16309e-05
7.66652e-07
-2.17511e-05
8.02366e-07
-2.18638e-05
8.69694e-07
-2.19667e-05
9.78269e-07
-2.20533e-05
1.14058e-06
-2.21092e-05
1.37216e-06
-2.21084e-05
1.69028e-06
-2.20035e-05
2.11458e-06
-2.16637e-05
2.67391e-06
3.25369e-06
-2.11067e-05
-4.26975e-07
2.36068e-06
-1.03448e-06
3.38515e-06
-1.66643e-06
3.52556e-06
-2.2995e-06
3.53256e-06
-2.93069e-06
3.52223e-06
-3.55923e-06
3.50749e-06
-4.18451e-06
3.48947e-06
-4.80598e-06
3.46827e-06
-5.42305e-06
3.44393e-06
-6.03517e-06
3.41647e-06
-6.64178e-06
3.38593e-06
-7.24233e-06
3.35234e-06
-7.83628e-06
3.31575e-06
-8.42309e-06
3.27618e-06
-9.00225e-06
3.23371e-06
-9.57322e-06
3.18837e-06
-1.01355e-05
3.14021e-06
-1.06886e-05
3.08931e-06
-1.12321e-05
3.03573e-06
-1.17654e-05
2.97952e-06
-1.22881e-05
2.92077e-06
-1.27997e-05
2.85955e-06
-1.32999e-05
2.79594e-06
-1.37882e-05
2.73003e-06
-1.42642e-05
2.66192e-06
-1.47275e-05
2.59171e-06
-1.51778e-05
2.51949e-06
-1.56146e-05
2.44539e-06
-1.60378e-05
2.36953e-06
-1.64469e-05
2.29205e-06
-1.68417e-05
2.21309e-06
-1.72219e-05
2.1328e-06
-1.75873e-05
2.05137e-06
-1.79377e-05
1.96899e-06
-1.8273e-05
1.88587e-06
-1.85929e-05
1.80226e-06
-1.88974e-05
1.71843e-06
-1.91864e-05
1.63469e-06
-1.94599e-05
1.55141e-06
-1.97179e-05
1.46899e-06
-1.99606e-05
1.38794e-06
-2.0188e-05
1.30882e-06
-2.04003e-05
1.23234e-06
-2.05978e-05
1.15932e-06
-2.07808e-05
1.09078e-06
-2.09496e-05
1.02795e-06
-2.11047e-05
9.7238e-07
-2.12464e-05
9.25972e-07
-2.13751e-05
8.91124e-07
-2.14907e-05
8.70846e-07
-2.1593e-05
8.68925e-07
-2.16807e-05
8.90115e-07
-2.17514e-05
9.40319e-07
-2.17998e-05
1.02672e-06
-2.1817e-05
1.15776e-06
-2.17874e-05
1.34256e-06
-2.16865e-05
1.58941e-06
-2.14759e-05
1.904e-06
-2.10865e-05
2.28445e-06
2.67653e-06
-2.05093e-05
-4.29045e-07
2.78973e-06
-1.03965e-06
3.99576e-06
-1.67481e-06
4.16072e-06
-2.31112e-06
4.16886e-06
-2.94552e-06
4.15664e-06
-3.57725e-06
4.13922e-06
-4.20571e-06
4.11793e-06
-4.83032e-06
4.09288e-06
-5.4505e-06
4.06412e-06
-6.06571e-06
4.03168e-06
-6.67536e-06
3.99559e-06
-7.27892e-06
3.9559e-06
-7.87583e-06
3.91266e-06
-8.46556e-06
3.86591e-06
-9.04758e-06
3.81572e-06
-9.62137e-06
3.76215e-06
-1.01864e-05
3.70525e-06
-1.07422e-05
3.64511e-06
-1.12883e-05
3.58179e-06
-1.18241e-05
3.51537e-06
-1.23493e-05
3.44594e-06
-1.28633e-05
3.37359e-06
-1.33658e-05
3.29842e-06
-1.38563e-05
3.22053e-06
-1.43344e-05
3.14002e-06
-1.47997e-05
3.05701e-06
-1.52519e-05
2.97163e-06
-1.56905e-05
2.88401e-06
-1.61152e-05
2.7943e-06
-1.65258e-05
2.70264e-06
-1.69219e-05
2.6092e-06
-1.73033e-05
2.51417e-06
-1.76697e-05
2.41774e-06
-1.80208e-05
2.32013e-06
-1.83565e-05
2.22159e-06
-1.86766e-05
2.12238e-06
-1.8981e-05
2.02281e-06
-1.92696e-05
1.92323e-06
-1.95422e-05
1.82402e-06
-1.97988e-05
1.72563e-06
-2.00395e-05
1.6286e-06
-2.02642e-05
1.53352e-06
-2.0473e-05
1.44112e-06
-2.06659e-05
1.35226e-06
-2.08431e-05
1.26794e-06
-2.10045e-05
1.18941e-06
-2.11503e-05
1.11812e-06
-2.12802e-05
1.05589e-06
-2.13939e-05
1.00489e-06
-2.14909e-05
9.67757e-07
-2.15696e-05
9.47669e-07
-2.16279e-05
9.48409e-07
-2.16619e-05
9.74372e-07
-2.16657e-05
1.03046e-06
-2.16297e-05
1.12177e-06
-2.15399e-05
1.2528e-06
-2.13765e-05
1.42598e-06
-2.11121e-05
1.63954e-06
-2.07099e-05
1.88234e-06
2.12233e-06
-2.01557e-05
-4.31523e-07
3.22125e-06
-1.04578e-06
4.61001e-06
-1.68474e-06
4.79968e-06
-2.32484e-06
4.80897e-06
-2.96304e-06
4.79484e-06
-3.59854e-06
4.77472e-06
-4.23074e-06
4.75013e-06
-4.85907e-06
4.7212e-06
-5.48293e-06
4.68799e-06
-6.10178e-06
4.65052e-06
-6.71503e-06
4.60884e-06
-7.32214e-06
4.56301e-06
-7.92256e-06
4.51307e-06
-8.51573e-06
4.45909e-06
-9.10113e-06
4.40113e-06
-9.67824e-06
4.33925e-06
-1.02465e-05
4.27354e-06
-1.08055e-05
4.20408e-06
-1.13546e-05
4.13094e-06
-1.18935e-05
4.05423e-06
-1.24216e-05
3.97404e-06
-1.29385e-05
3.89046e-06
-1.34437e-05
3.80362e-06
-1.39368e-05
3.71363e-06
-1.44174e-05
3.62061e-06
-1.4885e-05
3.52469e-06
-1.53394e-05
3.42601e-06
-1.57801e-05
3.32473e-06
-1.62068e-05
3.221e-06
-1.66192e-05
3.115e-06
-1.70169e-05
3.0069e-06
-1.73997e-05
2.89692e-06
-1.77672e-05
2.78527e-06
-1.81193e-05
2.6722e-06
-1.84556e-05
2.55796e-06
-1.87761e-05
2.44285e-06
-1.90805e-05
2.3272e-06
-1.93686e-05
2.21137e-06
-1.96404e-05
2.09578e-06
-1.98957e-05
1.98089e-06
-2.01343e-05
1.86726e-06
-2.03563e-05
1.75549e-06
-2.05615e-05
1.64631e-06
-2.07498e-05
1.54056e-06
-2.09211e-05
1.43923e-06
-2.10751e-05
1.34348e-06
-2.12117e-05
1.25467e-06
-2.13302e-05
1.17441e-06
-2.14299e-05
1.10459e-06
-2.15095e-05
1.0474e-06
-2.15673e-05
1.00538e-06
-2.16002e-05
9.81344e-07
-2.16041e-05
9.78333e-07
-2.15731e-05
9.99381e-07
-2.14984e-05
1.0471e-06
-2.13685e-05
1.12293e-06
-2.11685e-05
1.22594e-06
-2.088e-05
1.35107e-06
-2.04839e-05
1.48617e-06
1.60966e-06
-1.99712e-05
-4.34398e-07
3.65565e-06
-1.05286e-06
5.22847e-06
-1.6962e-06
5.44303e-06
-2.3407e-06
5.45347e-06
-2.98328e-06
5.43742e-06
-3.62313e-06
5.41457e-06
-4.25966e-06
5.38665e-06
-4.89227e-06
5.35381e-06
-5.52038e-06
5.31611e-06
-6.14343e-06
5.27357e-06
-6.76085e-06
5.22626e-06
-7.37206e-06
5.17422e-06
-7.97652e-06
5.11753e-06
-8.57367e-06
5.05624e-06
-9.16298e-06
4.99044e-06
-9.74392e-06
4.92019e-06
-1.0316e-05
4.84558e-06
-1.08786e-05
4.76671e-06
-1.14313e-05
4.68368e-06
-1.19737e-05
4.59657e-06
-1.25051e-05
4.5055e-06
-1.30253e-05
4.4106e-06
-1.35336e-05
4.31197e-06
-1.40298e-05
4.20976e-06
-1.45132e-05
4.10409e-06
-1.49837e-05
3.99512e-06
-1.54406e-05
3.883e-06
-1.58838e-05
3.76789e-06
-1.63128e-05
3.64997e-06
-1.67272e-05
3.52944e-06
-1.71268e-05
3.40649e-06
-1.75112e-05
3.28134e-06
-1.78802e-05
3.15423e-06
-1.82334e-05
3.02542e-06
-1.85706e-05
2.89519e-06
-1.88916e-05
2.76385e-06
-1.91962e-05
2.63175e-06
-1.94841e-05
2.49926e-06
-1.97551e-05
2.36681e-06
-2.00091e-05
2.23488e-06
-2.02458e-05
2.10401e-06
-2.04652e-05
1.97482e-06
-2.06669e-05
1.84801e-06
-2.08507e-05
1.72438e-06
-2.10163e-05
1.60486e-06
-2.11634e-05
1.49051e-06
-2.12912e-05
1.38255e-06
-2.13992e-05
1.28237e-06
-2.14861e-05
1.19153e-06
-2.15505e-05
1.11179e-06
-2.15902e-05
1.04505e-06
-2.16022e-05
9.93304e-07
-2.15823e-05
9.58472e-07
-2.15251e-05
9.42185e-07
-2.14234e-05
9.45363e-07
-2.1268e-05
9.67606e-07
-2.10484e-05
1.00631e-06
-2.07527e-05
1.05538e-06
-2.0371e-05
1.10447e-06
1.13765e-06
-1.9899e-05
-4.3767e-07
4.09332e-06
-1.0609e-06
5.8517e-06
-1.70922e-06
6.09135e-06
-2.35871e-06
6.10295e-06
-3.00625e-06
6.08496e-06
-3.65105e-06
6.05936e-06
-4.29248e-06
6.02808e-06
-4.92996e-06
5.99129e-06
-5.5629e-06
5.94905e-06
-6.19073e-06
5.90139e-06
-6.81286e-06
5.84839e-06
-7.42873e-06
5.79009e-06
-8.03778e-06
5.72658e-06
-8.63945e-06
5.65791e-06
-9.2332e-06
5.58418e-06
-9.81849e-06
5.50548e-06
-1.03948e-05
5.42189e-06
-1.09616e-05
5.33352e-06
-1.15184e-05
5.24047e-06
-1.20647e-05
5.14286e-06
-1.26e-05
5.04081e-06
-1.31239e-05
4.93445e-06
-1.36358e-05
4.82391e-06
-1.41354e-05
4.70934e-06
-1.46222e-05
4.59088e-06
-1.50957e-05
4.4687e-06
-1.55557e-05
4.34296e-06
-1.60017e-05
4.21385e-06
-1.64332e-05
4.08156e-06
-1.68501e-05
3.94629e-06
-1.72519e-05
3.80826e-06
-1.76382e-05
3.66771e-06
-1.80089e-05
3.52489e-06
-1.83635e-05
3.38006e-06
-1.87019e-05
3.23353e-06
-1.90236e-05
3.08561e-06
-1.93285e-05
2.93667e-06
-1.96164e-05
2.78709e-06
-1.98869e-05
2.6373e-06
-2.01398e-05
2.48777e-06
-2.03748e-05
2.33905e-06
-2.05917e-05
2.19173e-06
-2.07902e-05
2.04648e-06
-2.09698e-05
1.90404e-06
-2.11302e-05
1.76526e-06
-2.12708e-05
1.6311e-06
-2.13909e-05
1.50259e-06
-2.14894e-05
1.38091e-06
-2.15652e-05
1.26732e-06
-2.16166e-05
1.16315e-06
-2.16413e-05
1.06978e-06
-2.16365e-05
9.88496e-07
-2.15984e-05
9.20387e-07
-2.15223e-05
8.6609e-07
-2.14024e-05
8.25458e-07
-2.12319e-05
7.97098e-07
-2.10033e-05
7.77749e-07
-2.07096e-05
7.61617e-07
-2.03454e-05
7.40295e-07
7.01859e-07
-1.99096e-05
-4.4134e-07
4.53466e-06
-1.06992e-06
6.48028e-06
-1.72382e-06
6.74525e-06
-2.37889e-06
6.75802e-06
-3.03199e-06
6.73807e-06
-3.68232e-06
6.70969e-06
-4.32925e-06
6.67501e-06
-4.97219e-06
6.63423e-06
-5.61053e-06
6.5874e-06
-6.24371e-06
6.53457e-06
-6.87113e-06
6.47581e-06
-7.49222e-06
6.41118e-06
-8.10641e-06
6.34077e-06
-8.71314e-06
6.26465e-06
-9.31187e-06
6.18291e-06
-9.90204e-06
6.09565e-06
-1.04831e-05
6.00298e-06
-1.10546e-05
5.905e-06
-1.1616e-05
5.80183e-06
-1.21667e-05
5.6936e-06
-1.27063e-05
5.58043e-06
-1.32343e-05
5.46248e-06
-1.37503e-05
5.33988e-06
-1.42538e-05
5.21279e-06
-1.47443e-05
5.08138e-06
-1.52214e-05
4.94582e-06
-1.56847e-05
4.80629e-06
-1.61339e-05
4.66299e-06
-1.65684e-05
4.51612e-06
-1.69881e-05
4.3659e-06
-1.73923e-05
4.21256e-06
-1.7781e-05
4.05635e-06
-1.81536e-05
3.89753e-06
-1.851e-05
3.73639e-06
-1.88497e-05
3.57323e-06
-1.91724e-05
3.40839e-06
-1.9478e-05
3.24221e-06
-1.9766e-05
3.07511e-06
-2.00362e-05
2.9075e-06
-2.02883e-05
2.73985e-06
-2.05219e-05
2.57267e-06
-2.07367e-05
2.40655e-06
-2.09323e-05
2.24209e-06
-2.11083e-05
2.07999e-06
-2.1264e-05
1.92101e-06
-2.13989e-05
1.76597e-06
-2.15121e-05
1.61576e-06
-2.16025e-05
1.47134e-06
-2.16689e-05
1.33367e-06
-2.17095e-05
1.20375e-06
-2.17222e-05
1.08251e-06
-2.17044e-05
9.70705e-07
-2.16528e-05
8.68817e-07
-2.15636e-05
7.76831e-07
-2.14321e-05
6.93988e-07
-2.12535e-05
6.18448e-07
-2.10226e-05
5.46859e-07
-2.07353e-05
4.74341e-07
-2.0389e-05
3.94007e-07
2.97042e-07
-1.99842e-05
-4.4541e-07
4.98007e-06
-1.07992e-06
7.11479e-06
-1.74e-06
7.40533e-06
-2.40126e-06
7.41928e-06
-3.06053e-06
7.39735e-06
-3.71699e-06
7.36615e-06
-4.37002e-06
7.32804e-06
-5.019e-06
7.28321e-06
-5.66334e-06
7.23174e-06
-6.30244e-06
7.17367e-06
-6.93572e-06
7.10909e-06
-7.5626e-06
7.03806e-06
-8.1825e-06
6.96066e-06
-8.79484e-06
6.87699e-06
-9.39908e-06
6.78715e-06
-9.99467e-06
6.69124e-06
-1.05811e-05
6.58937e-06
-1.11577e-05
6.48166e-06
-1.17241e-05
6.36825e-06
-1.22798e-05
6.24926e-06
-1.28242e-05
6.12484e-06
-1.33569e-05
5.99515e-06
-1.38773e-05
5.86034e-06
-1.43851e-05
5.72057e-06
-1.48798e-05
5.57604e-06
-1.53609e-05
5.42691e-06
-1.5828e-05
5.2734e-06
-1.62807e-05
5.1157e-06
-1.67186e-05
4.95403e-06
-1.71413e-05
4.78862e-06
-1.75485e-05
4.61973e-06
-1.79397e-05
4.44759e-06
-1.83147e-05
4.2725e-06
-1.8673e-05
4.09473e-06
-1.90144e-05
3.91461e-06
-1.93385e-05
3.73248e-06
-1.9645e-05
3.54869e-06
-1.99335e-05
3.36363e-06
-2.02037e-05
3.17772e-06
-2.04553e-05
2.99142e-06
-2.06878e-05
2.80523e-06
-2.0901e-05
2.61967e-06
-2.10942e-05
2.43532e-06
-2.1267e-05
2.25281e-06
-2.14188e-05
2.0728e-06
-2.15488e-05
1.89599e-06
-2.16562e-05
1.72314e-06
-2.17398e-05
1.555e-06
-2.17985e-05
1.3923e-06
-2.18305e-05
1.23575e-06
-2.18339e-05
1.08592e-06
-2.18064e-05
9.43193e-07
-2.17452e-05
8.07638e-07
-2.16472e-05
6.78844e-07
-2.15089e-05
5.55743e-07
-2.13269e-05
4.36371e-07
-2.10977e-05
3.17719e-07
-2.08191e-05
1.95662e-07
-2.04899e-05
6.48533e-08
-8.16277e-08
-2.01112e-05
-4.49885e-07
5.42995e-06
-1.09091e-06
7.75581e-06
-1.75778e-06
8.0722e-06
-2.42584e-06
8.08735e-06
-3.0919e-06
8.0634e-06
-3.7551e-06
8.02935e-06
-4.41482e-06
7.98776e-06
-5.07045e-06
7.93884e-06
-5.72138e-06
7.88266e-06
-6.367e-06
7.8193e-06
-7.00672e-06
7.74881e-06
-7.63996e-06
7.67129e-06
-8.26613e-06
7.58683e-06
-8.88465e-06
7.49551e-06
-9.49496e-06
7.39746e-06
-1.00965e-05
7.29278e-06
-1.06887e-05
7.18159e-06
-1.12711e-05
7.06403e-06
-1.18431e-05
6.94023e-06
-1.24042e-05
6.81035e-06
-1.29539e-05
6.67453e-06
-1.34916e-05
6.53293e-06
-1.4017e-05
6.38574e-06
-1.45296e-05
6.23312e-06
-1.50288e-05
6.07528e-06
-1.55143e-05
5.91239e-06
-1.59856e-05
5.74469e-06
-1.64423e-05
5.57237e-06
-1.68839e-05
5.39567e-06
-1.73101e-05
5.21484e-06
-1.77205e-05
5.03012e-06
-1.81147e-05
4.84179e-06
-1.84923e-05
4.65012e-06
-1.8853e-05
4.45542e-06
-1.91964e-05
4.25801e-06
-1.95222e-05
4.05822e-06
-1.98299e-05
3.85642e-06
-2.01192e-05
3.65298e-06
-2.03898e-05
3.44833e-06
-2.06413e-05
3.24289e-06
-2.08732e-05
3.03713e-06
-2.10851e-05
2.83156e-06
-2.12765e-05
2.6267e-06
-2.14468e-05
2.4231e-06
-2.15953e-05
2.22136e-06
-2.17214e-05
2.02206e-06
-2.18241e-05
1.82582e-06
-2.19023e-05
1.63322e-06
-2.19548e-05
1.44482e-06
-2.19802e-05
1.26109e-06
-2.19766e-05
1.08234e-06
-2.19421e-05
9.08692e-07
-2.18744e-05
7.39949e-07
-2.17711e-05
5.7549e-07
-2.16294e-05
4.14137e-07
-2.14471e-05
2.54024e-07
-2.1222e-05
9.2645e-08
-2.09526e-05
-7.37183e-08
-2.06386e-05
-2.49163e-07
-4.38513e-07
-2.02817e-05
-4.54769e-07
5.88472e-06
-1.1029e-06
8.40394e-06
-1.77719e-06
8.74649e-06
-2.45268e-06
8.76284e-06
-3.12613e-06
8.73685e-06
-3.79669e-06
8.69991e-06
-4.46372e-06
8.65479e-06
-5.1266e-06
8.60172e-06
-5.78471e-06
8.54078e-06
-6.43745e-06
8.47204e-06
-7.08421e-06
8.39557e-06
-7.72439e-06
8.31147e-06
-8.3574e-06
8.21984e-06
-8.98266e-06
8.12077e-06
-9.59959e-06
8.01439e-06
-1.02076e-05
7.90082e-06
-1.08062e-05
7.78019e-06
-1.13948e-05
7.65263e-06
-1.19729e-05
7.51831e-06
-1.25399e-05
7.37737e-06
-1.30954e-05
7.22998e-06
-1.36388e-05
7.07632e-06
-1.41696e-05
6.91656e-06
-1.46874e-05
6.75091e-06
-1.51916e-05
6.57955e-06
-1.56819e-05
6.4027e-06
-1.61578e-05
6.22058e-06
-1.66189e-05
6.03341e-06
-1.70647e-05
5.84145e-06
-1.74947e-05
5.64493e-06
-1.79088e-05
5.44413e-06
-1.83063e-05
5.23931e-06
-1.86869e-05
5.03077e-06
-1.90503e-05
4.81882e-06
-1.93961e-05
4.60377e-06
-1.97238e-05
4.38597e-06
-2.00332e-05
4.16577e-06
-2.03238e-05
3.94355e-06
-2.05951e-05
3.7197e-06
-2.08469e-05
3.49466e-06
-2.10786e-05
3.26884e-06
-2.12898e-05
3.04273e-06
-2.14799e-05
2.8168e-06
-2.16483e-05
2.59154e-06
-2.17944e-05
2.36746e-06
-2.19175e-05
2.14507e-06
-2.20165e-05
1.92486e-06
-2.20906e-05
1.70728e-06
-2.21385e-05
1.49274e-06
-2.21589e-05
1.28152e-06
-2.21503e-05
1.07378e-06
-2.21111e-05
8.69442e-07
-2.20393e-05
6.68178e-07
-2.19331e-05
4.69273e-07
-2.17905e-05
2.7156e-07
-2.161e-05
7.34869e-08
-2.13899e-05
-1.2746e-07
-2.11297e-05
-3.33891e-07
-2.08297e-05
-5.49162e-07
-7.76856e-07
-2.04914e-05
-4.60067e-07
6.34479e-06
-1.11591e-06
9.05978e-06
-1.79824e-06
9.42882e-06
-2.48179e-06
9.44638e-06
-3.16326e-06
9.41832e-06
-3.8418e-06
9.37846e-06
-4.51676e-06
9.32975e-06
-5.18751e-06
9.27247e-06
-5.85343e-06
9.20669e-06
-6.51388e-06
9.13249e-06
-7.16827e-06
9.04996e-06
-7.81598e-06
8.95918e-06
-8.45642e-06
8.86028e-06
-9.08899e-06
8.75334e-06
-9.71311e-06
8.63852e-06
-1.03282e-05
8.51592e-06
-1.09337e-05
8.3857e-06
-1.15291e-05
8.24801e-06
-1.21138e-05
8.103e-06
-1.26873e-05
7.95084e-06
-1.3249e-05
7.79171e-06
-1.37985e-05
7.62579e-06
-1.43352e-05
7.45328e-06
-1.48587e-05
7.27438e-06
-1.53684e-05
7.08931e-06
-1.5864e-05
6.89827e-06
-1.63449e-05
6.70151e-06
-1.68108e-05
6.49926e-06
-1.72611e-05
6.29177e-06
-1.76955e-05
6.07931e-06
-1.81135e-05
5.86214e-06
-1.85147e-05
5.64055e-06
-1.88988e-05
5.41484e-06
-1.92653e-05
5.18531e-06
-1.96138e-05
4.95229e-06
-1.99439e-05
4.71611e-06
-2.02553e-05
4.47714e-06
-2.05475e-05
4.23573e-06
-2.08201e-05
3.99228e-06
-2.10726e-05
3.74718e-06
-2.13046e-05
3.50085e-06
-2.15156e-05
3.25372e-06
-2.1705e-05
3.00622e-06
-2.18723e-05
2.75879e-06
-2.20167e-05
2.51188e-06
-2.21375e-05
2.26591e-06
-2.22339e-05
2.02128e-06
-2.2305e-05
1.77835e-06
-2.23496e-05
1.53738e-06
-2.23667e-05
1.29855e-06
-2.23548e-05
1.0619e-06
-2.23126e-05
8.27253e-07
-2.22386e-05
5.94205e-07
-2.21314e-05
3.62034e-07
-2.19896e-05
1.29754e-07
-2.18118e-05
-1.04274e-07
-2.15975e-05
-3.41824e-07
-2.13462e-05
-5.85145e-07
-2.10586e-05
-8.36795e-07
-1.09945e-06
-2.0736e-05
-4.65785e-07
6.81057e-06
-1.12996e-06
9.72396e-06
-1.82097e-06
1.01198e-05
-2.51321e-06
1.01386e-05
-3.20334e-06
1.01085e-05
-3.8905e-06
1.00656e-05
-4.57402e-06
1.00133e-05
-5.25326e-06
9.95171e-06
-5.92759e-06
9.88102e-06
-6.59638e-06
9.80128e-06
-7.25901e-06
9.71258e-06
-7.91485e-06
9.61503e-06
-8.5633e-06
9.50873e-06
-9.20377e-06
9.39381e-06
-9.83566e-06
9.2704e-06
-1.04584e-05
9.13864e-06
-1.10714e-05
8.99868e-06
-1.1674e-05
8.85069e-06
-1.22659e-05
8.69483e-06
-1.28463e-05
8.53127e-06
-1.34148e-05
8.36022e-06
-1.39709e-05
8.18185e-06
-1.4514e-05
7.99639e-06
-1.50436e-05
7.80404e-06
-1.55594e-05
7.60502e-06
-1.60607e-05
7.39957e-06
-1.65471e-05
7.18792e-06
-1.70182e-05
6.97034e-06
-1.74734e-05
6.74707e-06
-1.79125e-05
6.51838e-06
-1.8335e-05
6.28457e-06
-1.87403e-05
6.04591e-06
-1.91282e-05
5.80271e-06
-1.94982e-05
5.55528e-06
-1.98498e-05
5.30395e-06
-2.01828e-05
5.04905e-06
-2.04966e-05
4.79094e-06
-2.07908e-05
4.52996e-06
-2.1065e-05
4.2665e-06
-2.13188e-05
4.00094e-06
-2.15516e-05
3.73366e-06
-2.17629e-05
3.46507e-06
-2.19523e-05
3.19557e-06
-2.2119e-05
2.92554e-06
-2.22625e-05
2.65537e-06
-2.2382e-05
2.38543e-06
-2.24768e-05
2.11604e-06
-2.25459e-05
1.84747e-06
-2.25885e-05
1.57992e-06
-2.26034e-05
1.31348e-06
-2.25896e-05
1.0481e-06
-2.25459e-05
7.83571e-07
-2.24712e-05
5.19472e-07
-2.23643e-05
2.55162e-07
-2.22242e-05
-1.03165e-08
-2.20501e-05
-2.7836e-07
-2.18417e-05
-5.50319e-07
-2.15988e-05
-8.28038e-07
-2.13221e-05
-1.11348e-06
-1.40864e-06
-2.10129e-05
-4.71929e-07
7.2825e-06
-1.14505e-06
1.03971e-05
-1.84539e-06
1.08202e-05
-2.54697e-06
1.08402e-05
-3.24642e-06
1.08079e-05
-3.94283e-06
1.0762e-05
-4.63555e-06
1.0706e-05
-5.32392e-06
1.06401e-05
-6.0073e-06
1.05644e-05
-6.68504e-06
1.0479e-05
-7.35652e-06
1.03841e-05
-8.0211e-06
1.02796e-05
-8.67817e-06
1.01658e-05
-9.32713e-06
1.00428e-05
-9.96736e-06
9.91063e-06
-1.05983e-05
9.76956e-06
-1.12193e-05
9.6197e-06
-1.18298e-05
9.46124e-06
-1.24294e-05
9.29435e-06
-1.30173e-05
9.11921e-06
-1.35931e-05
8.93603e-06
-1.41563e-05
8.74502e-06
-1.47063e-05
8.54638e-06
-1.52426e-05
8.34035e-06
-1.57647e-05
8.12716e-06
-1.62722e-05
7.90705e-06
-1.67646e-05
7.68028e-06
-1.72413e-05
7.44709e-06
-1.7702e-05
7.20777e-06
-1.81462e-05
6.96259e-06
-1.85735e-05
6.71184e-06
-1.89834e-05
6.45581e-06
-1.93755e-05
6.19481e-06
-1.97494e-05
5.92916e-06
-2.01046e-05
5.65918e-06
-2.04408e-05
5.38521e-06
-2.07574e-05
5.10759e-06
-2.10541e-05
4.82668e-06
-2.13305e-05
4.54283e-06
-2.15859e-05
4.25641e-06
-2.18201e-05
3.96779e-06
-2.20323e-05
3.67735e-06
-2.22222e-05
3.38544e-06
-2.23891e-05
3.09243e-06
-2.25324e-05
2.79865e-06
-2.26514e-05
2.50442e-06
-2.27453e-05
2.21e-06
-2.28135e-05
1.91562e-06
-2.28549e-05
1.6214e-06
-2.28689e-05
1.32739e-06
-2.28543e-05
1.03351e-06
-2.28102e-05
7.39544e-07
-2.27358e-05
4.4508e-07
-2.26303e-05
1.49635e-07
-2.24927e-05
-1.47916e-07
-2.23227e-05
-4.48377e-07
-2.212e-05
-7.53e-07
-2.18849e-05
-1.0632e-06
-2.16178e-05
-1.38049e-06
-1.70635e-06
-2.13201e-05
-4.78505e-07
7.76101e-06
-1.16121e-06
1.10798e-05
-1.87154e-06
1.15305e-05
-2.58312e-06
1.15518e-05
-3.29253e-06
1.15173e-05
-3.99886e-06
1.14684e-05
-4.70143e-06
1.14086e-05
-5.39957e-06
1.13382e-05
-6.09263e-06
1.12575e-05
-6.77996e-06
1.11664e-05
-7.46092e-06
1.1065e-05
-8.13486e-06
1.09536e-05
-8.80116e-06
1.08321e-05
-9.4592e-06
1.07008e-05
-1.01084e-05
1.05598e-05
-1.07481e-05
1.04093e-05
-1.13777e-05
1.02493e-05
-1.19967e-05
1.00802e-05
-1.26044e-05
9.9021e-06
-1.32004e-05
9.71519e-06
-1.3784e-05
9.51968e-06
-1.43548e-05
9.3158e-06
-1.49122e-05
9.10377e-06
-1.54557e-05
8.88383e-06
-1.59847e-05
8.65622e-06
-1.64989e-05
8.42121e-06
-1.69977e-05
8.17904e-06
-1.74806e-05
7.92999e-06
-1.79471e-05
7.67434e-06
-1.83969e-05
7.41237e-06
-1.88294e-05
7.14438e-06
-1.92443e-05
6.87067e-06
-1.96411e-05
6.59156e-06
-2.00193e-05
6.30736e-06
-2.03785e-05
6.0184e-06
-2.07183e-05
5.72501e-06
-2.10382e-05
5.42754e-06
-2.13379e-05
5.12632e-06
-2.16168e-05
4.82172e-06
-2.18744e-05
4.51408e-06
-2.21104e-05
4.20375e-06
-2.23241e-05
3.89109e-06
-2.25151e-05
3.57643e-06
-2.26828e-05
3.2601e-06
-2.28265e-05
2.9424e-06
-2.29457e-05
2.62361e-06
-2.30397e-05
2.30396e-06
-2.31077e-05
1.98362e-06
-2.3149e-05
1.6627e-06
-2.31628e-05
1.34122e-06
-2.31484e-05
1.01909e-06
-2.31049e-05
6.96084e-07
-2.30317e-05
3.71877e-07
-2.29281e-05
4.60654e-08
-2.27936e-05
-2.82494e-07
-2.26278e-05
-6.14163e-07
-2.24307e-05
-9.50069e-07
-2.22026e-05
-1.2913e-06
-2.19441e-05
-1.63898e-06
-1.99421e-06
-2.16563e-05
-4.85521e-07
8.24653e-06
-1.17845e-06
1.17727e-05
-1.89944e-06
1.22515e-05
-2.6217e-06
1.2274e-05
-3.34174e-06
1.22373e-05
-4.05865e-06
1.21853e-05
-4.77173e-06
1.21216e-05
-5.4803e-06
1.20468e-05
-6.1837e-06
1.19609e-05
-6.88126e-06
1.18639e-05
-7.57233e-06
1.17561e-05
-8.25626e-06
1.16375e-05
-8.93241e-06
1.15083e-05
-9.60015e-06
1.13685e-05
-1.02589e-05
1.12185e-05
-1.09079e-05
1.10583e-05
-1.15467e-05
1.08881e-05
-1.21747e-05
1.07082e-05
-1.27913e-05
1.05187e-05
-1.33958e-05
1.03198e-05
-1.39878e-05
1.01117e-05
-1.45668e-05
9.89472e-06
-1.51321e-05
9.66906e-06
-1.56832e-05
9.43497e-06
-1.62197e-05
9.19269e-06
-1.6741e-05
8.94251e-06
-1.72466e-05
8.68468e-06
-1.77361e-05
8.41948e-06
-1.8209e-05
8.14721e-06
-1.86648e-05
7.86816e-06
-1.9103e-05
7.58264e-06
-1.95233e-05
7.29094e-06
-1.99251e-05
6.9934e-06
-2.03081e-05
6.69032e-06
-2.06717e-05
6.38204e-06
-2.10156e-05
6.0689e-06
-2.13393e-05
5.75122e-06
-2.16424e-05
5.42936e-06
-2.19243e-05
5.10365e-06
-2.21846e-05
4.77443e-06
-2.24229e-05
4.44205e-06
-2.26387e-05
4.10683e-06
-2.28313e-05
3.76909e-06
-2.30004e-05
3.42914e-06
-2.31452e-05
3.08725e-06
-2.32653e-05
2.74368e-06
-2.336e-05
2.39862e-06
-2.34286e-05
2.05224e-06
-2.34705e-05
1.70461e-06
-2.3485e-05
1.35575e-06
-2.34715e-05
1.00558e-06
-2.34293e-05
6.53917e-07
-2.3358e-05
3.00525e-07
-2.32568e-05
-5.51518e-08
-2.31255e-05
-4.13726e-07
-2.2964e-05
-7.75671e-07
-2.27723e-05
-1.1418e-06
-2.25507e-05
-1.51295e-06
-2.22997e-05
-1.88996e-06
-2.27362e-06
-2.20203e-05
-4.92984e-07
8.73951e-06
-1.19679e-06
1.24765e-05
-1.92913e-06
1.29838e-05
-2.66275e-06
1.30077e-05
-3.39411e-06
1.29687e-05
-4.12227e-06
1.29134e-05
-4.84653e-06
1.28459e-05
-5.5662e-06
1.27665e-05
-6.28059e-06
1.26753e-05
-6.98904e-06
1.25724e-05
-7.69087e-06
1.24579e-05
-8.38543e-06
1.2332e-05
-9.07206e-06
1.21949e-05
-9.75012e-06
1.20466e-05
-1.0419e-05
1.18874e-05
-1.1078e-05
1.17173e-05
-1.17266e-05
1.15367e-05
-1.23642e-05
1.13457e-05
-1.29901e-05
1.11446e-05
-1.36038e-05
1.09335e-05
-1.42047e-05
1.07126e-05
-1.47923e-05
1.04823e-05
-1.53661e-05
1.02428e-05
-1.59254e-05
9.99428e-06
-1.64698e-05
9.73708e-06
-1.69987e-05
9.47145e-06
-1.75117e-05
9.19767e-06
-1.80083e-05
8.91605e-06
-1.84879e-05
8.62687e-06
-1.89502e-05
8.33044e-06
-1.93946e-05
8.02706e-06
-1.98207e-05
7.71706e-06
-2.02281e-05
7.40076e-06
-2.06163e-05
7.07848e-06
-2.09848e-05
6.75055e-06
-2.13332e-05
6.41731e-06
-2.16611e-05
6.0791e-06
-2.1968e-05
5.73624e-06
-2.22534e-05
5.38908e-06
-2.25169e-05
5.03796e-06
-2.27581e-05