/*--------------------------------*- C++ -*----------------------------------*\
  =========                 |
  \\      /  F ield         | OpenFOAM: The Open Source CFD Toolbox
   \\    /   O peration     | Website:  https://openfoam.org
    \\  /    A nd           | Version:  8
     \\/     M anipulation  |
\*---------------------------------------------------------------------------*/
FoamFile
{
    version     2.0;
    format      ascii;
    class       volVectorField;
    location    "8.5";
    object      U;
}
// * * * * * * * * * * * * * * * * * * * * * * * * * * * * * * * * * * * * * //

dimensions      [0 1 -1 0 0 0 0];

internalField   nonuniform List<vector> 
11600
(
(-9.89443e-06 9.87999e-06 0)
(-4.36717e-05 1.59752e-05 0)
(-8.77787e-05 1.67797e-05 0)
(-0.000129021 1.68133e-05 0)
(-0.000170967 1.67522e-05 0)
(-0.000212718 1.6678e-05 0)
(-0.000254259 1.65941e-05 0)
(-0.000295571 1.64979e-05 0)
(-0.00033662 1.63882e-05 0)
(-0.000377369 1.62647e-05 0)
(-0.000417785 1.61272e-05 0)
(-0.000457829 1.59758e-05 0)
(-0.000497469 1.58107e-05 0)
(-0.000536668 1.56319e-05 0)
(-0.000575392 1.54397e-05 0)
(-0.000613608 1.52342e-05 0)
(-0.000651283 1.50157e-05 0)
(-0.000688383 1.47844e-05 0)
(-0.000724877 1.45406e-05 0)
(-0.000760734 1.42845e-05 0)
(-0.000795923 1.40165e-05 0)
(-0.000830416 1.37368e-05 0)
(-0.000864182 1.34459e-05 0)
(-0.000897196 1.31441e-05 0)
(-0.000929429 1.28318e-05 0)
(-0.000960857 1.25095e-05 0)
(-0.000991456 1.21776e-05 0)
(-0.0010212 1.18366e-05 0)
(-0.00105007 1.14872e-05 0)
(-0.00107805 1.113e-05 0)
(-0.00110512 1.07657e-05 0)
(-0.00113125 1.03951e-05 0)
(-0.00115645 1.0019e-05 0)
(-0.00118069 9.63843e-06 0)
(-0.00120397 9.25455e-06 0)
(-0.00122628 8.86864e-06 0)
(-0.00124761 8.4822e-06 0)
(-0.00126798 8.09698e-06 0)
(-0.00128738 7.71505e-06 0)
(-0.00130584 7.33889e-06 0)
(-0.00132336 6.97148e-06 0)
(-0.00133997 6.6165e-06 0)
(-0.00135572 6.27848e-06 0)
(-0.00137065 5.96314e-06 0)
(-0.00138483 5.6778e-06 0)
(-0.00139835 5.43194e-06 0)
(-0.00141132 5.23814e-06 0)
(-0.0014239 5.11338e-06 0)
(-0.00143629 5.08118e-06 0)
(-0.00144876 5.17463e-06 0)
(-0.0014617 5.44164e-06 0)
(-0.00147562 5.95441e-06 0)
(-0.00149129 6.82635e-06 0)
(-0.00150985 8.24458e-06 0)
(-0.00153328 1.05467e-05 0)
(-0.00156379 1.44637e-05 0)
(-0.00160037 2.13593e-05 0)
(-0.00169258 3.32534e-05 0)
(-0.00171439 9.92334e-05 0)
(-0.00212562 0.000330454 0)
(-1.60319e-05 4.36872e-05 0)
(-6.54624e-05 6.53274e-05 0)
(-0.000127828 6.82989e-05 0)
(-0.000186722 6.84632e-05 0)
(-0.000246473 6.82576e-05 0)
(-0.000305976 6.79707e-05 0)
(-0.000365185 6.7626e-05 0)
(-0.000424063 6.72231e-05 0)
(-0.000482557 6.67612e-05 0)
(-0.000540613 6.62403e-05 0)
(-0.000598179 6.56608e-05 0)
(-0.000655203 6.50233e-05 0)
(-0.000711634 6.43284e-05 0)
(-0.000767422 6.35768e-05 0)
(-0.000822516 6.27694e-05 0)
(-0.000876869 6.19073e-05 0)
(-0.000930431 6.09912e-05 0)
(-0.000983157 6.00225e-05 0)
(-0.001035 5.90022e-05 0)
(-0.00108592 5.79316e-05 0)
(-0.00113586 5.6812e-05 0)
(-0.00118479 5.5645e-05 0)
(-0.00123267 5.4432e-05 0)
(-0.00127946 5.31749e-05 0)
(-0.00132511 5.18753e-05 0)
(-0.0013696 5.05352e-05 0)
(-0.00141288 4.91567e-05 0)
(-0.00145493 4.77422e-05 0)
(-0.00149572 4.6294e-05 0)
(-0.00153522 4.48149e-05 0)
(-0.0015734 4.33078e-05 0)
(-0.00161024 4.17762e-05 0)
(-0.00164572 4.02238e-05 0)
(-0.00167983 3.86545e-05 0)
(-0.00171255 3.70733e-05 0)
(-0.00174387 3.54854e-05 0)
(-0.0017738 3.38972e-05 0)
(-0.00180233 3.23158e-05 0)
(-0.00182948 3.07499e-05 0)
(-0.00185526 2.92097e-05 0)
(-0.00187971 2.77075e-05 0)
(-0.00190285 2.62586e-05 0)
(-0.00192475 2.48816e-05 0)
(-0.00194547 2.36003e-05 0)
(-0.00196511 2.2445e-05 0)
(-0.00198379 2.14554e-05 0)
(-0.00200167 2.06838e-05 0)
(-0.00201896 2.0202e-05 0)
(-0.00203594 2.01094e-05 0)
(-0.00205299 2.05484e-05 0)
(-0.00207061 2.17273e-05 0)
(-0.00208949 2.39642e-05 0)
(-0.00211063 2.77633e-05 0)
(-0.00213548 3.39538e-05 0)
(-0.00216633 4.39824e-05 0)
(-0.00220566 6.0641e-05 0)
(-0.00225532 8.83317e-05 0)
(-0.0023502 0.000131587 0)
(-0.002397 0.000251787 0)
(-0.00266526 0.000394991 0)
(-1.68951e-05 8.79547e-05 0)
(-6.86773e-05 0.00012777 0)
(-0.000133825 0.000133299 0)
(-0.000195331 0.000133608 0)
(-0.000257707 0.000133226 0)
(-0.000319817 0.000132673 0)
(-0.000381616 0.000131996 0)
(-0.000443067 0.000131201 0)
(-0.000504115 0.000130287 0)
(-0.000564704 0.000129257 0)
(-0.000624779 0.000128111 0)
(-0.000684286 0.000126851 0)
(-0.00074317 0.000125478 0)
(-0.000801381 0.000123993 0)
(-0.000858864 0.000122399 0)
(-0.00091557 0.000120697 0)
(-0.000971448 0.000118889 0)
(-0.00102645 0.000116978 0)
(-0.00108052 0.000114966 0)
(-0.00113363 0.000112855 0)
(-0.00118572 0.000110649 0)
(-0.00123674 0.000108349 0)
(-0.00128666 0.00010596 0)
(-0.00133544 0.000103485 0)
(-0.00138303 0.000100927 0)
(-0.0014294 9.82908e-05 0)
(-0.00147451 9.55796e-05 0)
(-0.00151833 9.27983e-05 0)
(-0.00156082 8.99518e-05 0)
(-0.00160196 8.70455e-05 0)
(-0.00164172 8.40853e-05 0)
(-0.00168008 8.10777e-05 0)
(-0.00171701 7.80299e-05 0)
(-0.0017525 7.49501e-05 0)
(-0.00178654 7.18473e-05 0)
(-0.00181911 6.87322e-05 0)
(-0.00185022 6.56167e-05 0)
(-0.00187985 6.25148e-05 0)
(-0.00190803 5.94429e-05 0)
(-0.00193477 5.64206e-05 0)
(-0.00196009 5.34716e-05 0)
(-0.00198404 5.06245e-05 0)
(-0.00200665 4.79148e-05 0)
(-0.00202799 4.53872e-05 0)
(-0.00204816 4.30984e-05 0)
(-0.00206726 4.11218e-05 0)
(-0.00208544 3.95545e-05 0)
(-0.00210288 3.85266e-05 0)
(-0.00211982 3.82172e-05 0)
(-0.00213657 3.88778e-05 0)
(-0.00215352 4.08692e-05 0)
(-0.00217117 4.47233e-05 0)
(-0.00219019 5.12479e-05 0)
(-0.00221137 6.16985e-05 0)
(-0.00223572 7.81035e-05 0)
(-0.00226386 0.000103951 0)
(-0.00229613 0.000144293 0)
(-0.00234332 0.000205779 0)
(-0.002352 0.000330386 0)
(-0.00243205 0.000461045 0)
(-1.70057e-05 0.000129541 0)
(-6.91691e-05 0.000187018 0)
(-0.000134782 0.000194958 0)
(-0.000196694 0.000195374 0)
(-0.00025949 0.000194807 0)
(-0.000322015 0.000193994 0)
(-0.000384226 0.000193001 0)
(-0.000446087 0.000191834 0)
(-0.000507542 0.000190494 0)
(-0.000568534 0.000188983 0)
(-0.000629008 0.000187302 0)
(-0.000688909 0.000185453 0)
(-0.000748184 0.000183438 0)
(-0.000806779 0.00018126 0)
(-0.000864641 0.000178922 0)
(-0.000921719 0.000176425 0)
(-0.000977963 0.000173774 0)
(-0.00103332 0.000170971 0)
(-0.00108775 0.000168021 0)
(-0.0011412 0.000164926 0)
(-0.00119362 0.000161691 0)
(-0.00124497 0.00015832 0)
(-0.00129521 0.000154817 0)
(-0.00134429 0.000151189 0)
(-0.00139218 0.000147439 0)
(-0.00143884 0.000143574 0)
(-0.00148422 0.0001396 0)
(-0.0015283 0.000135523 0)
(-0.00157105 0.00013135 0)
(-0.00161243 0.000127089 0)
(-0.00165241 0.00012275 0)
(-0.00169098 0.00011834 0)
(-0.0017281 0.00011387 0)
(-0.00176377 0.000109353 0)
(-0.00179796 0.000104801 0)
(-0.00183067 0.000100229 0)
(-0.00186189 9.56545e-05 0)
(-0.00189162 9.10968e-05 0)
(-0.00191986 8.65791e-05 0)
(-0.00194663 8.21291e-05 0)
(-0.00197195 7.77793e-05 0)
(-0.00199584 7.35698e-05 0)
(-0.00201834 6.95492e-05 0)
(-0.00203952 6.57782e-05 0)
(-0.00205944 6.23334e-05 0)
(-0.00207818 5.93125e-05 0)
(-0.00209587 5.68426e-05 0)
(-0.00211264 5.50909e-05 0)
(-0.00212866 5.42821e-05 0)
(-0.00214415 5.4722e-05 0)
(-0.00215935 5.6834e-05 0)
(-0.00217457 6.12128e-05 0)
(-0.00219013 6.87069e-05 0)
(-0.00220636 8.05408e-05 0)
(-0.00222344 9.85054e-05 0)
(-0.00224106 0.000125239 0)
(-0.00225848 0.000164173 0)
(-0.00227585 0.00022012 0)
(-0.00226685 0.000310443 0)
(-0.00226811 0.000398899 0)
(-1.70486e-05 0.000172067 0)
(-6.94055e-05 0.000247462 0)
(-0.000135276 0.000257839 0)
(-0.000197411 0.000258369 0)
(-0.000260438 0.000257617 0)
(-0.000323191 0.000256542 0)
(-0.000385628 0.000255226 0)
(-0.000447714 0.00025368 0)
(-0.000509391 0.000251903 0)
(-0.000570604 0.0002499 0)
(-0.000631297 0.000247671 0)
(-0.000691414 0.00024522 0)
(-0.000750901 0.00024255 0)
(-0.000809705 0.000239663 0)
(-0.000867774 0.000236563 0)
(-0.000925054 0.000233255 0)
(-0.000981496 0.000229741 0)
(-0.00103705 0.000226026 0)
(-0.00109167 0.000222116 0)
(-0.0011453 0.000218015 0)
(-0.0011979 0.000213727 0)
(-0.00124942 0.00020926 0)
(-0.00129983 0.000204619 0)
(-0.00134907 0.000199811 0)
(-0.00139712 0.000194841 0)
(-0.00144392 0.000189719 0)
(-0.00148944 0.000184452 0)
(-0.00153365 0.000179049 0)
(-0.00157652 0.000173518 0)
(-0.00161801 0.00016787 0)
(-0.0016581 0.000162117 0)
(-0.00169675 0.000156269 0)
(-0.00173395 0.000150341 0)
(-0.00176968 0.000144348 0)
(-0.00180392 0.000138306 0)
(-0.00183665 0.000132235 0)
(-0.00186788 0.000126155 0)
(-0.00189758 0.000120093 0)
(-0.00192578 0.000114077 0)
(-0.00195246 0.000108142 0)
(-0.00197765 0.000102328 0)
(-0.00200136 9.6685e-05 0)
(-0.00202362 9.12716e-05 0)
(-0.00204448 8.61614e-05 0)
(-0.00206399 8.14456e-05 0)
(-0.00208219 7.72392e-05 0)
(-0.00209918 7.36887e-05 0)
(-0.00211503 7.09834e-05 0)
(-0.00212985 6.9371e-05 0)
(-0.00214376 6.91787e-05 0)
(-0.00215685 7.08442e-05 0)
(-0.00216921 7.49575e-05 0)
(-0.00218088 8.23196e-05 0)
(-0.00219173 9.40218e-05 0)
(-0.00220137 0.000111548 0)
(-0.00220879 0.000136861 0)
(-0.00221225 0.000172318 0)
(-0.00220888 0.000221024 0)
(-0.00218653 0.000288502 0)
(-0.00215299 0.000357603 0)
(-1.71076e-05 0.000214694 0)
(-6.96826e-05 0.000308097 0)
(-0.000135839 0.000320912 0)
(-0.000198234 0.000321556 0)
(-0.000261528 0.000320618 0)
(-0.000324546 0.000319277 0)
(-0.000387246 0.000317637 0)
(-0.000449592 0.000315709 0)
(-0.000511528 0.000313495 0)
(-0.000572996 0.000310998 0)
(-0.000633942 0.000308219 0)
(-0.000694308 0.000305164 0)
(-0.000754042 0.000301835 0)
(-0.000813088 0.000298237 0)
(-0.000871395 0.000294373 0)
(-0.00092891 0.000290249 0)
(-0.000985581 0.000285869 0)
(-0.00104136 0.000281239 0)
(-0.00109619 0.000276364 0)
(-0.00115004 0.000271252 0)
(-0.00120285 0.000265908 0)
(-0.00125457 0.000260339 0)
(-0.00130517 0.000254554 0)
(-0.0013546 0.00024856 0)
(-0.00140282 0.000242365 0)
(-0.00144979 0.000235979 0)
(-0.00149547 0.000229412 0)
(-0.00153983 0.000222674 0)
(-0.00158284 0.000215776 0)
(-0.00162446 0.000208731 0)
(-0.00166466 0.000201553 0)
(-0.00170341 0.000194256 0)
(-0.0017407 0.000186856 0)
(-0.00177649 0.000179371 0)
(-0.00181077 0.000171822 0)
(-0.00184353 0.00016423 0)
(-0.00187475 0.000156623 0)
(-0.00190443 0.000149029 0)
(-0.00193255 0.000141482 0)
(-0.00195913 0.000134022 0)
(-0.00198416 0.000126696 0)
(-0.00200766 0.00011956 0)
(-0.00202964 0.00011268 0)
(-0.00205013 0.000106138 0)
(-0.00206915 0.000100034 0)
(-0.00208673 9.44909e-05 0)
(-0.00210292 8.96632e-05 0)
(-0.00211776 8.57454e-05 0)
(-0.00213128 8.29849e-05 0)
(-0.00214349 8.16978e-05 0)
(-0.0021544 8.22899e-05 0)
(-0.00216393 8.52824e-05 0)
(-0.00217191 9.13406e-05 0)
(-0.00217798 0.000101303 0)
(-0.00218147 0.000116197 0)
(-0.00218118 0.000137208 0)
(-0.00217524 0.00016552 0)
(-0.00216068 0.000202212 0)
(-0.00213137 0.000247969 0)
(-0.00208696 0.000295179 0)
(-1.71863e-05 0.000257489 0)
(-7.00253e-05 0.000368993 0)
(-0.000136522 0.000384258 0)
(-0.000199234 0.000385015 0)
(-0.000262851 0.000383888 0)
(-0.000326189 0.00038228 0)
(-0.000389207 0.000380315 0)
(-0.000451869 0.000378003 0)
(-0.000514118 0.000375348 0)
(-0.000575897 0.000372354 0)
(-0.000637148 0.000369023 0)
(-0.000697818 0.00036536 0)
(-0.00075785 0.000361369 0)
(-0.000817191 0.000357055 0)
(-0.000875786 0.000352423 0)
(-0.000933585 0.000347478 0)
(-0.000990534 0.000342227 0)
(-0.00104658 0.000336676 0)
(-0.00110168 0.000330832 0)
(-0.00115579 0.000324702 0)
(-0.00120884 0.000318294 0)
(-0.00126081 0.000311618 0)
(-0.00131165 0.00030468 0)
(-0.0013613 0.000297492 0)
(-0.00140974 0.000290063 0)
(-0.00145691 0.000282404 0)
(-0.00150279 0.000274526 0)
(-0.00154733 0.000266443 0)
(-0.00159051 0.000258166 0)
(-0.00163228 0.000249712 0)
(-0.00167262 0.000241094 0)
(-0.0017115 0.000232332 0)
(-0.00174889 0.000223442 0)
(-0.00178476 0.000214446 0)
(-0.00181911 0.000205367 0)
(-0.0018519 0.000196231 0)
(-0.00188313 0.000187066 0)
(-0.00191278 0.000177906 0)
(-0.00194083 0.000168788 0)
(-0.0019673 0.000159756 0)
(-0.00199216 0.000150862 0)
(-0.00201543 0.000142165 0)
(-0.0020371 0.000133737 0)
(-0.00205719 0.000125662 0)
(-0.00207569 0.000118044 0)
(-0.00209262 0.000111007 0)
(-0.00210798 0.000104704 0)
(-0.00212177 9.93213e-05 0)
(-0.00213396 9.50908e-05 0)
(-0.00214451 9.2297e-05 0)
(-0.00215332 9.12904e-05 0)
(-0.00216022 9.24985e-05 0)
(-0.00216492 9.64339e-05 0)
(-0.00216694 0.000103693 0)
(-0.00216552 0.000114931 0)
(-0.00215953 0.000130791 0)
(-0.00214731 0.000151742 0)
(-0.00212651 0.000177856 0)
(-0.00209364 0.000208321 0)
(-0.00204702 0.000239081 0)
(-1.72822e-05 0.000300511 0)
(-7.04333e-05 0.000430227 0)
(-0.000137329 0.000447954 0)
(-0.000200416 0.000448825 0)
(-0.000264414 0.000447509 0)
(-0.00032813 0.000445632 0)
(-0.000391524 0.000443338 0)
(-0.000454559 0.00044064 0)
(-0.000517178 0.000437542 0)
(-0.000579322 0.000434047 0)
(-0.000640936 0.00043016 0)
(-0.000701964 0.000425885 0)
(-0.000762348 0.000421227 0)
(-0.000822036 0.000416192 0)
(-0.000880974 0.000410785 0)
(-0.000939107 0.000405014 0)
(-0.000996385 0.000398885 0)
(-0.00105276 0.000392406 0)
(-0.00110817 0.000385585 0)
(-0.00116258 0.00037843 0)
(-0.00121593 0.000370951 0)
(-0.00126819 0.000363156 0)
(-0.0013193 0.000355058 0)
(-0.00136922 0.000346665 0)
(-0.00141791 0.000337991 0)
(-0.00146533 0.000329047 0)
(-0.00151144 0.000319847 0)
(-0.0015562 0.000310404 0)
(-0.00159957 0.000300735 0)
(-0.00164153 0.000290854 0)
(-0.00168204 0.000280781 0)
(-0.00172107 0.000270534 0)
(-0.00175858 0.000260134 0)
(-0.00179457 0.000249604 0)
(-0.00182899 0.000238969 0)
(-0.00186184 0.000228258 0)
(-0.00189308 0.000217503 0)
(-0.00192271 0.000206738 0)
(-0.00195071 0.000196005 0)
(-0.00197706 0.000185351 0)
(-0.00200176 0.000174827 0)
(-0.00202479 0.000164498 0)
(-0.00204615 0.000154434 0)
(-0.00206582 0.000144722 0)
(-0.0020838 0.000135464 0)
(-0.00210008 0.000126778 0)
(-0.00211461 0.000118808 0)
(-0.00212738 0.000111727 0)
(-0.0021383 0.000105738 0)
(-0.0021473 0.000101083 0)
(-0.0021542 9.80477e-05 0)
(-0.00215879 9.69601e-05 0)
(-0.00216072 9.81863e-05 0)
(-0.00215949 0.000102112 0)
(-0.00215437 0.000109102 0)
(-0.00214438 0.000119422 0)
(-0.00212818 0.000133102 0)
(-0.0021041 0.000149748 0)
(-0.00207014 0.000168194 0)
(-0.00202503 0.0001857 0)
(-1.73943e-05 0.000343802 0)
(-7.09061e-05 0.000491854 0)
(-0.000138263 0.00051206 0)
(-0.000201782 0.000513046 0)
(-0.000266218 0.000511538 0)
(-0.000330372 0.00050939 0)
(-0.000394199 0.000506765 0)
(-0.000457665 0.000503678 0)
(-0.000520711 0.000500132 0)
(-0.000583279 0.000496133 0)
(-0.000645311 0.000491684 0)
(-0.000706751 0.000486792 0)
(-0.000767543 0.000481462 0)
(-0.000827633 0.0004757 0)
(-0.000886964 0.000469512 0)
(-0.000945485 0.000462908 0)
(-0.00100314 0.000455894 0)
(-0.00105988 0.000448479 0)
(-0.00111566 0.000440672 0)
(-0.00117042 0.000432483 0)
(-0.00122412 0.000423922 0)
(-0.00127671 0.000415 0)
(-0.00132814 0.000405729 0)
(-0.00137837 0.000396121 0)
(-0.00142735 0.000386189 0)
(-0.00147506 0.000375947 0)
(-0.00152143 0.000365409 0)
(-0.00156645 0.000354593 0)
(-0.00161006 0.000343514 0)
(-0.00165223 0.00033219 0)
(-0.00169294 0.000320641 0)
(-0.00173214 0.000308889 0)
(-0.00176982 0.000296955 0)
(-0.00180593 0.000284865 0)
(-0.00184045 0.000272647 0)
(-0.00187337 0.000260329 0)
(-0.00190465 0.000247947 0)
(-0.00193427 0.000235538 0)
(-0.00196222 0.000223143 0)
(-0.00198848 0.000210811 0)
(-0.00201301 0.000198596 0)
(-0.00203582 0.00018656 0)
(-0.00205688 0.000174775 0)
(-0.00207616 0.000163324 0)
(-0.00209363 0.000152303 0)
(-0.00210927 0.000141823 0)
(-0.00212303 0.000132015 0)
(-0.00213484 0.000123028 0)
(-0.0021446 0.000115036 0)
(-0.0021522 0.000108236 0)
(-0.00215744 0.000102848 0)
(-0.00216008 9.91088e-05 0)
(-0.00215977 9.72602e-05 0)
(-0.00215602 9.75248e-05 0)
(-0.00214821 0.000100063 0)
(-0.00213553 0.000104905 0)
(-0.00211699 0.000111848 0)
(-0.00209142 0.000120323 0)
(-0.00205768 0.000129192 0)
(-0.00201505 0.000136546 0)
(-1.75221e-05 0.0003874 0)
(-7.14436e-05 0.000553929 0)
(-0.000139323 0.000576634 0)
(-0.000203333 0.000577736 0)
(-0.000268268 0.000576035 0)
(-0.000332917 0.000573613 0)
(-0.000397237 0.000570653 0)
(-0.000461192 0.000567173 0)
(-0.000524722 0.000563176 0)
(-0.00058777 0.000558668 0)
(-0.000650277 0.000553653 0)
(-0.000712186 0.000548138 0)
(-0.000773441 0.000542128 0)
(-0.000833986 0.000535632 0)
(-0.000893765 0.000528657 0)
(-0.000952726 0.000521211 0)
(-0.00101081 0.000513303 0)
(-0.00106798 0.000504943 0)
(-0.00112417 0.000496141 0)
(-0.00117933 0.000486907 0)
(-0.00123342 0.000477254 0)
(-0.00128638 0.000467192 0)
(-0.00133818 0.000456737 0)
(-0.00138876 0.0004459 0)
(-0.00143808 0.000434696 0)
(-0.00148611 0.000423141 0)
(-0.00153279 0.000411251 0)
(-0.00157809 0.000399044 0)
(-0.00162198 0.000386537 0)
(-0.0016644 0.00037375 0)
(-0.00170534 0.000360705 0)
(-0.00174475 0.000347424 0)
(-0.00178261 0.000333932 0)
(-0.00181888 0.000320254 0)
(-0.00185353 0.000306421 0)
(-0.00188654 0.000292464 0)
(-0.00191787 0.000278418 0)
(-0.00194751 0.000264321 0)
(-0.00197543 0.000250216 0)
(-0.00200161 0.000236152 0)
(-0.00202601 0.000222182 0)
(-0.00204861 0.000208368 0)
(-0.00206938 0.000194778 0)
(-0.00208829 0.00018149 0)
(-0.00210531 0.000168594 0)
(-0.00212036 0.00015619 0)
(-0.00213341 0.000144392 0)
(-0.00214435 0.000133327 0)
(-0.00215309 0.000123137 0)
(-0.00215948 0.000113975 0)
(-0.00216333 0.000106003 0)
(-0.00216438 9.93803e-05 0)
(-0.0021623 9.42525e-05 0)
(-0.00215668 9.07238e-05 0)
(-0.00214699 8.88213e-05 0)
(-0.00213259 8.84413e-05 0)
(-0.00211277 8.92802e-05 0)
(-0.00208676 9.07507e-05 0)
(-0.00205392 9.18702e-05 0)
(-0.0020139 9.1269e-05 0)
(-1.76656e-05 0.000431345 0)
(-7.20462e-05 0.000616511 0)
(-0.000140511 0.000641736 0)
(-0.000205071 0.000642954 0)
(-0.000270564 0.000641058 0)
(-0.000335768 0.000638359 0)
(-0.00040064 0.000635062 0)
(-0.000465143 0.000631184 0)
(-0.000529216 0.000626731 0)
(-0.000592802 0.000621708 0)
(-0.000655841 0.000616121 0)
(-0.000718276 0.000609977 0)
(-0.000780049 0.000603282 0)
(-0.000841104 0.000596044 0)
(-0.000901385 0.000588272 0)
(-0.000960839 0.000579976 0)
(-0.00101941 0.000571165 0)
(-0.00107705 0.000561849 0)
(-0.0011337 0.000552041 0)
(-0.00118931 0.000541751 0)
(-0.00124383 0.000530993 0)
(-0.00129722 0.00051978 0)
(-0.00134943 0.000508125 0)
(-0.00140041 0.000496045 0)
(-0.00145011 0.000483554 0)
(-0.0014985 0.00047067 0)
(-0.00154553 0.00045741 0)
(-0.00159116 0.000443793 0)
(-0.00163535 0.000429839 0)
(-0.00167806 0.000415568 0)
(-0.00171926 0.000401004 0)
(-0.00175892 0.00038617 0)
(-0.00179699 0.000371092 0)
(-0.00183344 0.000355799 0)
(-0.00186824 0.000340319 0)
(-0.00190137 0.000324687 0)
(-0.00193279 0.000308937 0)
(-0.00196248 0.00029311 0)
(-0.00199039 0.000277247 0)
(-0.00201651 0.000261396 0)
(-0.0020408 0.000245611 0)
(-0.00206323 0.000229949 0)
(-0.00208375 0.000214475 0)
(-0.00210234 0.000199262 0)
(-0.00211893 0.00018439 0)
(-0.00213348 0.000169948 0)
(-0.00214589 0.000156032 0)
(-0.00215609 0.000142749 0)
(-0.00216396 0.000130209 0)
(-0.00216933 0.000118528 0)
(-0.00217204 0.000107817 0)
(-0.00217183 9.8177e-05 0)
(-0.00216842 8.96807e-05 0)
(-0.00216145 8.23526e-05 0)
(-0.0021505 7.61395e-05 0)
(-0.00213508 7.08723e-05 0)
(-0.00211468 6.62212e-05 0)
(-0.00208883 6.16412e-05 0)
(-0.00205717 5.63446e-05 0)
(-0.00201956 4.932e-05 0)
(-1.78249e-05 0.000475677 0)
(-7.27145e-05 0.000679656 0)
(-0.000141829 0.000707425 0)
(-0.000206998 0.000708761 0)
(-0.00027311 0.000706667 0)
(-0.000338929 0.000703689 0)
(-0.000404413 0.00070005 0)
(-0.000469523 0.000695771 0)
(-0.000534198 0.000690856 0)
(-0.00059838 0.000685313 0)
(-0.000662009 0.000679147 0)
(-0.000725026 0.000672366 0)
(-0.000787374 0.000664977 0)
(-0.000848995 0.000656989 0)
(-0.000909833 0.000648412 0)
(-0.000969833 0.000639256 0)
(-0.00102894 0.000629531 0)
(-0.0010871 0.000619249 0)
(-0.00114426 0.000608422 0)
(-0.00120038 0.000597063 0)
(-0.00125539 0.000585187 0)
(-0.00130925 0.000572807 0)
(-0.00136191 0.00055994 0)
(-0.00141333 0.0005466 0)
(-0.00146346 0.000532806 0)
(-0.00151225 0.000518575 0)
(-0.00155967 0.000503926 0)
(-0.00160566 0.00048888 0)
(-0.0016502 0.000473457 0)
(-0.00169324 0.00045768 0)
(-0.00173474 0.000441572 0)
(-0.00177466 0.000425159 0)
(-0.00181298 0.000408468 0)
(-0.00184965 0.000391528 0)
(-0.00188464 0.00037437 0)
(-0.00191792 0.000357026 0)
(-0.00194945 0.000339534 0)
(-0.0019792 0.000321932 0)
(-0.00200715 0.000304264 0)
(-0.00203324 0.000286574 0)
(-0.00205745 0.000268914 0)
(-0.00207974 0.000251339 0)
(-0.00210007 0.000233909 0)
(-0.00211838 0.000216691 0)
(-0.00213462 0.000199754 0)
(-0.00214872 0.000183177 0)
(-0.00216061 0.00016704 0)
(-0.00217018 0.000151427 0)
(-0.00217732 0.000136425 0)
(-0.00218187 0.000122116 0)
(-0.00218368 0.000108574 0)
(-0.00218252 9.58517e-05 0)
(-0.00217813 8.39737e-05 0)
(-0.00217023 7.29139e-05 0)
(-0.00215847 6.25758e-05 0)
(-0.00214251 5.27666e-05 0)
(-0.002122 4.31671e-05 0)
(-0.00209664 3.3302e-05 0)
(-0.00206624 2.25632e-05 0)
(-0.0020308 1.02195e-05 0)
(-1.8e-05 0.000520436 0)
(-7.34492e-05 0.000743423 0)
(-0.000143277 0.000773763 0)
(-0.000209115 0.000775217 0)
(-0.000275908 0.000772923 0)
(-0.000342404 0.000769662 0)
(-0.000408559 0.000765678 0)
(-0.000474336 0.000760992 0)
(-0.000539674 0.00075561 0)
(-0.000604511 0.00074954 0)
(-0.000668788 0.000742788 0)
(-0.000732446 0.000735362 0)
(-0.000795425 0.000727271 0)
(-0.000857669 0.000718524 0)
(-0.000919119 0.000709131 0)
(-0.00097972 0.000699103 0)
(-0.00103942 0.000688453 0)
(-0.00109816 0.000677192 0)
(-0.00115588 0.000665334 0)
(-0.00121254 0.000652893 0)
(-0.00126809 0.000639884 0)
(-0.00132247 0.000626323 0)
(-0.00137564 0.000612226 0)
(-0.00142754 0.00059761 0)
(-0.00147814 0.000582494 0)
(-0.00152738 0.000566897 0)
(-0.00157523 0.00055084 0)
(-0.00162163 0.000534343 0)
(-0.00166655 0.000517429 0)
(-0.00170995 0.000500121 0)
(-0.00175179 0.000482445 0)
(-0.00179202 0.000464426 0)
(-0.00183062 0.000446093 0)
(-0.00186754 0.000427475 0)
(-0.00190275 0.000408604 0)
(-0.00193621 0.000389513 0)
(-0.00196789 0.00037024 0)
(-0.00199775 0.000350821 0)
(-0.00202575 0.0003313 0)
(-0.00205186 0.00031172 0)
(-0.00207603 0.000292131 0)
(-0.00209823 0.000272583 0)
(-0.0021184 0.000253131 0)
(-0.00213649 0.000233836 0)
(-0.00215245 0.000214759 0)
(-0.00216619 0.000195966 0)
(-0.00217764 0.000177523 0)
(-0.00218671 0.000159498 0)
(-0.00219327 0.000141954 0)
(-0.00219718 0.000124948 0)
(-0.0021983 0.000108523 0)
(-0.00219643 9.27031e-05 0)
(-0.00219136 7.74775e-05 0)
(-0.00218285 6.27919e-05 0)
(-0.00217064 4.85312e-05 0)
(-0.00215448 3.45026e-05 0)
(-0.00213414 2.04137e-05 0)
(-0.00210943 5.88829e-06 0)
(-0.00208025 -9.55017e-06 0)
(-0.00204666 -2.64438e-05 0)
(-1.81912e-05 0.000565663 0)
(-7.42511e-05 0.000807871 0)
(-0.000144857 0.000840811 0)
(-0.000211427 0.000842385 0)
(-0.000278961 0.000839889 0)
(-0.000346196 0.00083634 0)
(-0.000413085 0.000832005 0)
(-0.00047959 0.000826907 0)
(-0.00054565 0.000821053 0)
(-0.000611202 0.000814449 0)
(-0.000676187 0.000807103 0)
(-0.000740543 0.000799024 0)
(-0.000804212 0.000790221 0)
(-0.000867135 0.000780704 0)
(-0.000929254 0.000770484 0)
(-0.000990511 0.000759574 0)
(-0.00105085 0.000747986 0)
(-0.00111022 0.000735733 0)
(-0.00116856 0.000722829 0)
(-0.00122583 0.000709291 0)
(-0.00128196 0.000695134 0)
(-0.00133691 0.000680374 0)
(-0.00139062 0.00066503 0)
(-0.00144306 0.00064912 0)
(-0.00149417 0.000632663 0)
(-0.00154391 0.00061568 0)
(-0.00159222 0.000598193 0)
(-0.00163908 0.000580223 0)
(-0.00168442 0.000561794 0)
(-0.00172822 0.000542931 0)
(-0.00177043 0.000523659 0)
(-0.00181102 0.000504006 0)
(-0.00184993 0.000484001 0)
(-0.00188714 0.000463674 0)
(-0.0019226 0.000443057 0)
(-0.00195628 0.000422183 0)
(-0.00198814 0.000401089 0)
(-0.00201814 0.000379812 0)
(-0.00204625 0.000358394 0)
(-0.00207241 0.000336876 0)
(-0.00209659 0.000315305 0)
(-0.00211874 0.000293729 0)
(-0.00213882 0.000272197 0)
(-0.00215675 0.000250763 0)
(-0.00217249 0.00022948 0)
(-0.00218596 0.000208405 0)
(-0.00219708 0.000187591 0)
(-0.00220575 0.000167091 0)
(-0.00221187 0.00014695 0)
(-0.00221531 0.000127207 0)
(-0.00221592 0.000107882 0)
(-0.00221356 8.89783e-05 0)
(-0.00220804 7.04652e-05 0)
(-0.00219917 5.2275e-05 0)
(-0.00218676 3.42889e-05 0)
(-0.00217063 1.63239e-05 0)
(-0.00215061 -1.85893e-06 0)
(-0.0021266 -2.05673e-05 0)
(-0.00209858 -4.01764e-05 0)
(-0.00206662 -6.11058e-05 0)
(-1.83985e-05 0.000611399 0)
(-7.5121e-05 0.00087306 0)
(-0.000146572 0.000908632 0)
(-0.000213934 0.000910326 0)
(-0.000282274 0.000907625 0)
(-0.000350309 0.000903785 0)
(-0.000417994 0.000899095 0)
(-0.000485289 0.000893579 0)
(-0.000552133 0.000887244 0)
(-0.000618461 0.000880099 0)
(-0.000684213 0.000872151 0)
(-0.000749328 0.000863409 0)
(-0.000813745 0.000853884 0)
(-0.000877405 0.000843586 0)
(-0.000940249 0.000832528 0)
(-0.00100222 0.000820722 0)
(-0.00106326 0.000808182 0)
(-0.00112331 0.000794923 0)
(-0.00118232 0.000780959 0)
(-0.00124024 0.000766308 0)
(-0.00129701 0.000750985 0)
(-0.00135257 0.000735009 0)
(-0.00140689 0.0007184 0)
(-0.00145991 0.000701176 0)
(-0.00151158 0.000683358 0)
(-0.00156185 0.000664967 0)
(-0.00161068 0.000646027 0)
(-0.00165803 0.000626561 0)
(-0.00170384 0.000606593 0)
(-0.00174808 0.000586148 0)
(-0.00179071 0.000565254 0)
(-0.00183168 0.000543939 0)
(-0.00187095 0.000522232 0)
(-0.00190848 0.000500163 0)
(-0.00194424 0.000477765 0)
(-0.00197818 0.000455072 0)
(-0.00201026 0.000432119 0)
(-0.00204044 0.000408944 0)
(-0.00206869 0.000385586 0)
(-0.00209495 0.000362085 0)
(-0.00211918 0.000338485 0)
(-0.00214134 0.000314829 0)
(-0.00216137 0.000291164 0)
(-0.00217921 0.000267537 0)
(-0.00219481 0.000243995 0)
(-0.00220808 0.000220584 0)
(-0.00221896 0.000197349 0)
(-0.00222735 0.000174328 0)
(-0.00223315 0.000151556 0)
(-0.00223625 0.000129056 0)
(-0.00223653 0.000106834 0)
(-0.00223385 8.4878e-05 0)
(-0.00222807 6.31497e-05 0)
(-0.00221903 4.15762e-05 0)
(-0.0022066 2.00427e-05 0)
(-0.00219063 -1.60794e-06 0)
(-0.00217103 -2.35737e-05 0)
(-0.00214775 -4.61137e-05 0)
(-0.00212079 -6.95155e-05 0)
(-0.00209024 -9.40856e-05 0)
(-1.86223e-05 0.000657686 0)
(-7.60598e-05 0.000939052 0)
(-0.000148423 0.000977288 0)
(-0.000216641 0.000979105 0)
(-0.00028585 0.000976195 0)
(-0.000354749 0.00097206 0)
(-0.000423293 0.000967009 0)
(-0.000491441 0.000961068 0)
(-0.00055913 0.000954246 0)
(-0.000626296 0.000946551 0)
(-0.000692877 0.000937992 0)
(-0.00075881 0.000928577 0)
(-0.000824035 0.000918319 0)
(-0.00088849 0.000907229 0)
(-0.000952117 0.00089532 0)
(-0.00101486 0.000882605 0)
(-0.00107665 0.000869099 0)
(-0.00113744 0.000854817 0)
(-0.00119718 0.000839777 0)
(-0.0012558 0.000823995 0)
(-0.00131326 0.000807489 0)
(-0.00136949 0.000790279 0)
(-0.00142446 0.000772384 0)
(-0.0014781 0.000753825 0)
(-0.00153038 0.000734624 0)
(-0.00158124 0.000714804 0)
(-0.00163063 0.000694388 0)
(-0.00167851 0.000673401 0)
(-0.00172484 0.000651867 0)
(-0.00176956 0.000629815 0)
(-0.00181264 0.00060727 0)
(-0.00185404 0.000584263 0)
(-0.00189371 0.000560823 0)
(-0.0019316 0.00053698 0)
(-0.00196769 0.000512768 0)
(-0.00200193 0.000488221 0)
(-0.00203427 0.000463372 0)
(-0.00206468 0.000438259 0)
(-0.00209311 0.00041292 0)
(-0.00211951 0.000387393 0)
(-0.00214385 0.000361719 0)
(-0.00216606 0.000335939 0)
(-0.00218611 0.000310095 0)
(-0.00220392 0.000284228 0)
(-0.00221944 0.00025838 0)
(-0.0022326 0.00023259 0)
(-0.00224333 0.000206894 0)
(-0.00225154 0.000181322 0)
(-0.00225714 0.000155898 0)
(-0.00226003 0.000130634 0)
(-0.0022601 0.000105529 0)
(-0.00225725 8.05635e-05 0)
(-0.00225134 5.56944e-05 0)
(-0.00224228 3.08511e-05 0)
(-0.00222995 5.92809e-06 0)
(-0.00221425 -1.91997e-05 0)
(-0.00219512 -4.47096e-05 0)
(-0.00217254 -7.08005e-05 0)
(-0.00214655 -9.76949e-05 0)
(-0.00211723 -0.000125623 0)
(-1.88626e-05 0.000704565 0)
(-7.70687e-05 0.00100591 0)
(-0.000150411 0.00104685 0)
(-0.000219549 0.00104879 0)
(-0.000289692 0.00104566 0)
(-0.00035952 0.00104123 0)
(-0.000428987 0.00103581 0)
(-0.000498052 0.00102944 0)
(-0.00056665 0.00102212 0)
(-0.000634716 0.00101387 0)
(-0.000702187 0.00100469 0)
(-0.000769 0.000994589 0)
(-0.000835093 0.000983586 0)
(-0.000900404 0.00097169 0)
(-0.000964873 0.000958916 0)
(-0.00102844 0.000945277 0)
(-0.00109105 0.00093079 0)
(-0.00115263 0.00091547 0)
(-0.00121315 0.000899336 0)
(-0.00127253 0.000882405 0)
(-0.00133072 0.000864697 0)
(-0.00138768 0.000846232 0)
(-0.00144335 0.000827031 0)
(-0.00149767 0.000807116 0)
(-0.0015506 0.00078651 0)
(-0.00160209 0.000765236 0)
(-0.00165209 0.00074332 0)
(-0.00170055 0.000720786 0)
(-0.00174743 0.000697661 0)
(-0.00179268 0.000673973 0)
(-0.00183626 0.000649749 0)
(-0.00187813 0.00062502 0)
(-0.00191823 0.000599816 0)
(-0.00195654 0.000574167 0)
(-0.001993 0.000548107 0)
(-0.00202757 0.000521669 0)
(-0.00206022 0.000494889 0)
(-0.00209089 0.0004678 0)
(-0.00211955 0.000440441 0)
(-0.00214615 0.000412847 0)
(-0.00217064 0.000385059 0)
(-0.00219296 0.000357113 0)
(-0.00221308 0.000329048 0)
(-0.00223093 0.000300901 0)
(-0.00224644 0.000272709 0)
(-0.00225957 0.000244505 0)
(-0.00227023 0.000216318 0)
(-0.00227834 0.000188172 0)
(-0.00228384 0.000160085 0)
(-0.00228662 0.000132061 0)
(-0.0022866 0.000104094 0)
(-0.00228369 7.61627e-05 0)
(-0.00227778 4.82234e-05 0)
(-0.00226879 2.02114e-05 0)
(-0.00225665 -7.96139e-06 0)
(-0.00224127 -3.64047e-05 0)
(-0.00222263 -6.52601e-05 0)
(-0.00220073 -9.46849e-05 0)
(-0.00217561 -0.00012485 0)
(-0.00214735 -0.000155927 0)
(-1.91198e-05 0.000752081 0)
(-7.81486e-05 0.00107369 0)
(-0.00015254 0.00111737 0)
(-0.000222663 0.00111943 0)
(-0.000293806 0.00111609 0)
(-0.000364629 0.00111135 0)
(-0.000435084 0.00110556 0)
(-0.00050513 0.00109875 0)
(-0.000574701 0.00109093 0)
(-0.000643731 0.00108211 0)
(-0.000712156 0.0010723 0)
(-0.000779911 0.00106151 0)
(-0.000846933 0.00104974 0)
(-0.00091316 0.00103703 0)
(-0.000978531 0.00102338 0)
(-0.00104298 0.0010088 0)
(-0.00110646 0.000993313 0)
(-0.0011689 0.000976938 0)
(-0.00123024 0.000959691 0)
(-0.00129044 0.000941592 0)
(-0.00134943 0.000922662 0)
(-0.00140716 0.000902921 0)
(-0.00146357 0.000882392 0)
(-0.00151862 0.000861098 0)