/*--------------------------------*- C++ -*----------------------------------*\
  =========                 |
  \\      /  F ield         | OpenFOAM: The Open Source CFD Toolbox
   \\    /   O peration     | Website:  https://openfoam.org
    \\  /    A nd           | Version:  8
     \\/     M anipulation  |
\*---------------------------------------------------------------------------*/
FoamFile
{
    version     2.0;
    format      ascii;
    class       volVectorField;
    location    "60";
    object      U;
}
// * * * * * * * * * * * * * * * * * * * * * * * * * * * * * * * * * * * * * //

dimensions      [0 1 -1 0 0 0 0];

internalField   nonuniform List<vector> 
46400
(
(-2.09751e-07 -1.38855e-07 0)
(-5.37371e-06 2.48279e-06 0)
(-1.75429e-05 4.43925e-06 0)
(-3.36627e-05 5.64847e-06 0)
(-5.26585e-05 6.38567e-06 0)
(-7.36125e-05 6.81333e-06 0)
(-9.57973e-05 7.04148e-06 0)
(-0.00011871 7.14881e-06 0)
(-0.000142024 7.18841e-06 0)
(-0.00016554 7.19421e-06 0)
(-0.000189144 7.18652e-06 0)
(-0.000212778 7.17636e-06 0)
(-0.000236421 7.16902e-06 0)
(-0.000260066 7.16642e-06 0)
(-0.000283719 7.16881e-06 0)
(-0.000307384 7.17568e-06 0)
(-0.000331072 7.18626e-06 0)
(-0.000354789 7.19978e-06 0)
(-0.000378541 7.21563e-06 0)
(-0.000402333 7.23337e-06 0)
(-0.000426171 7.25269e-06 0)
(-0.000450058 7.2734e-06 0)
(-0.000473996 7.29534e-06 0)
(-0.00049799 7.31839e-06 0)
(-0.000522042 7.34247e-06 0)
(-0.000546155 7.36749e-06 0)
(-0.000570329 7.39342e-06 0)
(-0.000594569 7.42023e-06 0)
(-0.000618875 7.44785e-06 0)
(-0.00064325 7.47623e-06 0)
(-0.000667696 7.50533e-06 0)
(-0.000692213 7.53508e-06 0)
(-0.000716805 7.56547e-06 0)
(-0.000741471 7.59646e-06 0)
(-0.000766213 7.62801e-06 0)
(-0.000791033 7.66007e-06 0)
(-0.000815931 7.69257e-06 0)
(-0.000840909 7.72546e-06 0)
(-0.000865967 7.75869e-06 0)
(-0.000891106 7.79221e-06 0)
(-0.000916326 7.82598e-06 0)
(-0.000941628 7.85994e-06 0)
(-0.000967012 7.89402e-06 0)
(-0.000992477 7.92817e-06 0)
(-0.00101802 7.96232e-06 0)
(-0.00104365 7.9964e-06 0)
(-0.00106936 8.03036e-06 0)
(-0.00109515 8.0641e-06 0)
(-0.00112102 8.09756e-06 0)
(-0.00114697 8.13066e-06 0)
(-0.001173 8.16333e-06 0)
(-0.0011991 8.19551e-06 0)
(-0.00122527 8.22711e-06 0)
(-0.00125152 8.25805e-06 0)
(-0.00127784 8.28825e-06 0)
(-0.00130422 8.3176e-06 0)
(-0.00133067 8.34602e-06 0)
(-0.00135719 8.37342e-06 0)
(-0.00138376 8.39969e-06 0)
(-0.00141039 8.42477e-06 0)
(-0.00143707 8.44856e-06 0)
(-0.00146381 8.47098e-06 0)
(-0.00149058 8.4919e-06 0)
(-0.0015174 8.51123e-06 0)
(-0.00154426 8.52886e-06 0)
(-0.00157115 8.5447e-06 0)
(-0.00159806 8.55867e-06 0)
(-0.001625 8.57065e-06 0)
(-0.00165195 8.58053e-06 0)
(-0.00167892 8.58821e-06 0)
(-0.00170589 8.5936e-06 0)
(-0.00173286 8.59661e-06 0)
(-0.00175982 8.59715e-06 0)
(-0.00178677 8.59512e-06 0)
(-0.00181369 8.59042e-06 0)
(-0.00184059 8.58296e-06 0)
(-0.00186746 8.57265e-06 0)
(-0.00189428 8.55942e-06 0)
(-0.00192105 8.54321e-06 0)
(-0.00194777 8.52393e-06 0)
(-0.00197442 8.50153e-06 0)
(-0.002001 8.47595e-06 0)
(-0.0020275 8.44712e-06 0)
(-0.00205391 8.415e-06 0)
(-0.00208022 8.37954e-06 0)
(-0.00210644 8.34072e-06 0)
(-0.00213254 8.29853e-06 0)
(-0.00215853 8.25289e-06 0)
(-0.00218439 8.20375e-06 0)
(-0.00221012 8.15107e-06 0)
(-0.00223572 8.09486e-06 0)
(-0.00226117 8.03508e-06 0)
(-0.00228647 7.97156e-06 0)
(-0.00231161 7.90395e-06 0)
(-0.00233659 7.83185e-06 0)
(-0.00236139 7.75481e-06 0)
(-0.00238602 7.67223e-06 0)
(-0.00241047 7.58302e-06 0)
(-0.00243471 7.48549e-06 0)
(-0.00245874 7.37719e-06 0)
(-0.00248254 7.25488e-06 0)
(-0.00250608 7.11423e-06 0)
(-0.00252932 6.94935e-06 0)
(-0.00255222 6.75251e-06 0)
(-0.00257473 6.51395e-06 0)
(-0.00259679 6.22163e-06 0)
(-0.00261835 5.86065e-06 0)
(-0.00263937 5.41177e-06 0)
(-0.00265986 4.84799e-06 0)
(-0.00267992 4.12648e-06 0)
(-0.00269981 3.17177e-06 0)
(-0.00272002 1.85004e-06 0)
(-0.0027415 -3.92633e-08 0)
(-0.00276614 -2.62325e-06 0)
(-0.00279848 -5.14729e-06 0)
(-0.00285036 -2.53952e-06 0)
(-0.00295002 2.68926e-05 0)
(-0.00317157 0.00015942 0)
(-0.0038079 0.000649076 0)
(-0.00586522 0.00240098 0)
(-2.64298e-06 4.83943e-06 0)
(-1.70378e-05 1.67052e-05 0)
(-4.5072e-05 2.56685e-05 0)
(-8.1114e-05 3.20078e-05 0)
(-0.000123329 3.64129e-05 0)
(-0.000170135 3.93495e-05 0)
(-0.000220087 4.12033e-05 0)
(-0.000272074 4.23037e-05 0)
(-0.000325311 4.29117e-05 0)
(-0.00037927 4.32194e-05 0)
(-0.00043362 4.33589e-05 0)
(-0.000488169 4.34143e-05 0)
(-0.000542812 4.34358e-05 0)
(-0.000597503 4.34504e-05 0)
(-0.000652225 4.34712e-05 0)
(-0.000706976 4.35033e-05 0)
(-0.000761764 4.35477e-05 0)
(-0.000816599 4.36035e-05 0)
(-0.000871489 4.36691e-05 0)
(-0.000926442 4.37432e-05 0)
(-0.000981467 4.38244e-05 0)
(-0.00103657 4.39119e-05 0)
(-0.00109176 4.40049e-05 0)
(-0.00114703 4.41028e-05 0)
(-0.0012024 4.42053e-05 0)
(-0.00125787 4.43119e-05 0)
(-0.00131343 4.44224e-05 0)
(-0.0013691 4.45364e-05 0)
(-0.00142488 4.46539e-05 0)
(-0.00148077 4.47744e-05 0)
(-0.00153677 4.4898e-05 0)
(-0.00159288 4.50242e-05 0)
(-0.00164912 4.51529e-05 0)
(-0.00170547 4.5284e-05 0)
(-0.00176194 4.54171e-05 0)
(-0.00181853 4.55522e-05 0)
(-0.00187525 4.56888e-05 0)
(-0.00193209 4.58269e-05 0)
(-0.00198906 4.59661e-05 0)
(-0.00204615 4.61063e-05 0)
(-0.00210337 4.62471e-05 0)
(-0.00216071 4.63884e-05 0)
(-0.00221818 4.65298e-05 0)
(-0.00227578 4.6671e-05 0)
(-0.0023335 4.68118e-05 0)
(-0.00239134 4.69519e-05 0)
(-0.0024493 4.70908e-05 0)
(-0.00250738 4.72284e-05 0)
(-0.00256557 4.73643e-05 0)
(-0.00262389 4.74982e-05 0)
(-0.00268231 4.76296e-05 0)
(-0.00274084 4.77584e-05 0)
(-0.00279947 4.7884e-05 0)
(-0.00285821 4.80061e-05 0)
(-0.00291704 4.81244e-05 0)
(-0.00297596 4.82384e-05 0)
(-0.00303497 4.83477e-05 0)
(-0.00309405 4.84519e-05 0)
(-0.00315321 4.85507e-05 0)
(-0.00321244 4.86435e-05 0)
(-0.00327173 4.87301e-05 0)
(-0.00333107 4.88099e-05 0)
(-0.00339046 4.88826e-05 0)
(-0.00344988 4.89477e-05 0)
(-0.00350933 4.90047e-05 0)
(-0.0035688 4.90532e-05 0)
(-0.00362828 4.90928e-05 0)
(-0.00368776 4.91231e-05 0)
(-0.00374723 4.91437e-05 0)
(-0.00380668 4.91541e-05 0)
(-0.0038661 4.9154e-05 0)
(-0.00392547 4.91431e-05 0)
(-0.00398479 4.91208e-05 0)
(-0.00404404 4.90869e-05 0)
(-0.00410321 4.90411e-05 0)
(-0.00416229 4.89831e-05 0)
(-0.00422127 4.89126e-05 0)
(-0.00428013 4.88294e-05 0)
(-0.00433886 4.87333e-05 0)
(-0.00439744 4.86243e-05 0)
(-0.00445588 4.85022e-05 0)
(-0.00451414 4.8367e-05 0)
(-0.00457223 4.82188e-05 0)
(-0.00463012 4.80576e-05 0)
(-0.00468781 4.78836e-05 0)
(-0.00474528 4.76971e-05 0)
(-0.00480254 4.74985e-05 0)
(-0.00485956 4.72882e-05 0)
(-0.00491633 4.70665e-05 0)
(-0.00497286 4.68339e-05 0)
(-0.00502914 4.65909e-05 0)
(-0.00508516 4.63381e-05 0)
(-0.00514091 4.6076e-05 0)
(-0.0051964 4.58046e-05 0)
(-0.00525163 4.55235e-05 0)
(-0.00530659 4.52319e-05 0)
(-0.00536129 4.49282e-05 0)
(-0.00541573 4.46097e-05 0)
(-0.00546991 4.42718e-05 0)
(-0.00552383 4.3908e-05 0)
(-0.00557748 4.35095e-05 0)
(-0.00563086 4.30655e-05 0)
(-0.00568397 4.25643e-05 0)
(-0.0057368 4.19957e-05 0)
(-0.0057894 4.13556e-05 0)
(-0.00584183 4.06559e-05 0)
(-0.00589429 3.99386e-05 0)
(-0.00594715 3.92993e-05 0)
(-0.00600112 3.89222e-05 0)
(-0.0060575 3.91346e-05 0)
(-0.00611851 4.04993e-05 0)
(-0.00618797 4.39972e-05 0)
(-0.00627231 5.14633e-05 0)
(-0.00638258 6.67376e-05 0)
(-0.00653805 9.88201e-05 0)
(-0.00677207 0.000170483 0)
(-0.00713993 0.000339524 0)
(-0.00773826 0.000740935 0)
(-0.00874012 0.00165892 0)
(-0.0101773 0.00366617 0)
(-4.57193e-06 1.73237e-05 0)
(-2.61255e-05 4.48578e-05 0)
(-6.60247e-05 6.5345e-05 0)
(-0.000116373 8.05464e-05 0)
(-0.000174832 9.16267e-05 0)
(-0.000239501 9.93789e-05 0)
(-0.000308569 0.000104534 0)
(-0.000380596 0.000107779 0)
(-0.000454523 0.000109708 0)
(-0.000529609 0.000110785 0)
(-0.000605366 0.000111347 0)
(-0.000681494 0.000111623 0)
(-0.000757817 0.000111756 0)
(-0.000834242 0.000111831 0)
(-0.000910725 0.000111893 0)
(-0.00098725 0.000111964 0)
(-0.00106381 0.000112053 0)
(-0.00114042 0.000112162 0)
(-0.00121708 0.00011229 0)
(-0.0012938 0.000112435 0)
(-0.00137058 0.000112594 0)
(-0.00144743 0.000112767 0)
(-0.00152436 0.00011295 0)
(-0.00160137 0.000113144 0)
(-0.00167847 0.000113346 0)
(-0.00175565 0.000113557 0)
(-0.00183292 0.000113775 0)
(-0.00191029 0.000114 0)
(-0.00198776 0.000114231 0)
(-0.00206532 0.000114468 0)
(-0.00214299 0.000114711 0)
(-0.00222076 0.000114958 0)
(-0.00229863 0.00011521 0)
(-0.0023766 0.000115465 0)
(-0.00245468 0.000115724 0)
(-0.00253287 0.000115986 0)
(-0.00261116 0.00011625 0)
(-0.00268955 0.000116517 0)
(-0.00276805 0.000116784 0)
(-0.00284666 0.000117053 0)
(-0.00292537 0.000117322 0)
(-0.00300417 0.00011759 0)
(-0.00308308 0.000117858 0)
(-0.00316209 0.000118123 0)
(-0.00324119 0.000118387 0)
(-0.00332038 0.000118648 0)
(-0.00339966 0.000118905 0)
(-0.00347903 0.000119158 0)
(-0.00355847 0.000119406 0)
(-0.003638 0.000119649 0)
(-0.00371759 0.000119884 0)
(-0.00379726 0.000120113 0)
(-0.00387698 0.000120334 0)
(-0.00395675 0.000120545 0)
(-0.00403658 0.000120747 0)
(-0.00411644 0.000120938 0)
(-0.00419634 0.000121118 0)
(-0.00427627 0.000121286 0)
(-0.00435621 0.000121441 0)
(-0.00443615 0.000121581 0)
(-0.0045161 0.000121706 0)
(-0.00459604 0.000121816 0)
(-0.00467595 0.000121909 0)
(-0.00475583 0.000121984 0)
(-0.00483566 0.00012204 0)
(-0.00491544 0.000122077 0)
(-0.00499515 0.000122094 0)
(-0.00507478 0.00012209 0)
(-0.00515432 0.000122063 0)
(-0.00523374 0.000122014 0)
(-0.00531305 0.000121941 0)
(-0.00539222 0.000121844 0)
(-0.00547125 0.000121721 0)
(-0.00555011 0.000121574 0)
(-0.00562879 0.0001214 0)
(-0.00570727 0.000121199 0)
(-0.00578555 0.000120972 0)
(-0.00586361 0.000120718 0)
(-0.00594143 0.000120437 0)
(-0.00601899 0.000120128 0)
(-0.00609629 0.000119793 0)
(-0.00617331 0.000119431 0)
(-0.00625004 0.000119043 0)
(-0.00632647 0.000118629 0)
(-0.00640258 0.000118192 0)
(-0.00647837 0.000117732 0)
(-0.00655382 0.00011725 0)
(-0.00662893 0.000116748 0)
(-0.0067037 0.000116229 0)
(-0.00677813 0.000115694 0)
(-0.00685221 0.000115147 0)
(-0.00692594 0.000114589 0)
(-0.00699934 0.000114023 0)
(-0.00707241 0.000113452 0)
(-0.00714516 0.000112877 0)
(-0.00721762 0.000112301 0)
(-0.0072898 0.000111722 0)
(-0.00736172 0.00011114 0)
(-0.00743343 0.000110551 0)
(-0.00750495 0.00010995 0)
(-0.00757634 0.000109332 0)
(-0.00764764 0.000108693 0)
(-0.00771895 0.000108038 0)
(-0.00779041 0.000107393 0)
(-0.00786221 0.000106826 0)
(-0.00793471 0.000106482 0)
(-0.0080085 0.000106637 0)
(-0.00808453 0.000107793 0)
(-0.00816441 0.000110808 0)
(-0.00825069 0.000117116 0)
(-0.00834744 0.000129079 0)
(-0.00846106 0.000150595 0)
(-0.00860142 0.000188242 0)
(-0.0087836 0.000253522 0)
(-0.00903006 0.000367397 0)
(-0.00937193 0.000569188 0)
(-0.00984713 0.000931414 0)
(-0.0104943 0.00157693 0)
(-0.0113113 0.00268805 0)
(-0.0120402 0.0044766 0)
(-5.84175e-06 3.38277e-05 0)
(-3.2836e-05 8.13881e-05 0)
(-8.21294e-05 0.000115911 0)
(-0.000143594 0.000141671 0)
(-0.00021438 0.000160721 0)
(-0.000292341 0.000174314 0)
(-0.000375451 0.000183571 0)
(-0.000462094 0.000189565 0)
(-0.000551064 0.000193251 0)
(-0.000641501 0.0001954 0)
(-0.000732823 0.000196586 0)
(-0.000824655 0.000197209 0)
(-0.000916771 0.000197529 0)
(-0.00100904 0.000197704 0)
(-0.0011014 0.000197826 0)
(-0.00119381 0.000197941 0)
(-0.00128625 0.00019807 0)
(-0.00137874 0.000198222 0)
(-0.00147126 0.000198399 0)
(-0.00156383 0.000198599 0)
(-0.00165644 0.000198818 0)
(-0.00174911 0.000199056 0)
(-0.00184183 0.000199309 0)
(-0.00193461 0.000199576 0)
(-0.00202745 0.000199855 0)
(-0.00212035 0.000200145 0)
(-0.00221332 0.000200445 0)
(-0.00230635 0.000200753 0)
(-0.00239945 0.00020107 0)
(-0.00249262 0.000201393 0)
(-0.00258586 0.000201723 0)
(-0.00267916 0.000202058 0)
(-0.00277253 0.000202399 0)
(-0.00286597 0.000202743 0)
(-0.00295948 0.000203091 0)
(-0.00305305 0.00020344 0)
(-0.00314668 0.000203792 0)
(-0.00324038 0.000204144 0)
(-0.00333413 0.000204497 0)
(-0.00342795 0.000204848 0)
(-0.00352181 0.000205197 0)
(-0.00361573 0.000205544 0)
(-0.0037097 0.000205887 0)
(-0.0038037 0.000206225 0)
(-0.00389775 0.000206557 0)
(-0.00399183 0.000206882 0)
(-0.00408595 0.000207199 0)
(-0.00418008 0.000207508 0)
(-0.00427424 0.000207806 0)
(-0.0043684 0.000208092 0)
(-0.00446257 0.000208366 0)
(-0.00455674 0.000208626 0)
(-0.00465089 0.000208871 0)
(-0.00474503 0.0002091 0)
(-0.00483914 0.000209311 0)
(-0.00493321 0.000209503 0)
(-0.00502724 0.000209674 0)
(-0.00512121 0.000209824 0)
(-0.00521511 0.000209951 0)
(-0.00530893 0.000210053 0)
(-0.00540267 0.00021013 0)
(-0.0054963 0.000210179 0)
(-0.00558982 0.0002102 0)
(-0.00568321 0.00021019 0)
(-0.00577646 0.00021015 0)
(-0.00586955 0.000210076 0)
(-0.00596248 0.000209969 0)
(-0.00605522 0.000209826 0)
(-0.00614777 0.000209647 0)
(-0.0062401 0.000209431 0)
(-0.0063322 0.000209176 0)
(-0.00642405 0.000208882 0)
(-0.00651565 0.000208547 0)
(-0.00660697 0.000208171 0)
(-0.00669799 0.000207754 0)
(-0.00678871 0.000207294 0)
(-0.0068791 0.000206792 0)
(-0.00696915 0.000206248 0)
(-0.00705885 0.000205662 0)
(-0.00714818 0.000205034 0)
(-0.00723712 0.000204365 0)
(-0.00732567 0.000203657 0)
(-0.00741381 0.000202911 0)
(-0.00750153 0.000202129 0)
(-0.00758882 0.000201313 0)
(-0.00767567 0.000200466 0)
(-0.00776209 0.000199593 0)
(-0.00784806 0.000198696 0)
(-0.00793359 0.00019778 0)
(-0.00801868 0.000196851 0)
(-0.00810335 0.000195916 0)
(-0.00818759 0.000194979 0)
(-0.00827144 0.000194048 0)
(-0.0083549 0.00019313 0)
(-0.00843802 0.000192233 0)
(-0.00852084 0.000191363 0)
(-0.00860339 0.000190529 0)
(-0.00868574 0.000189735 0)
(-0.00876795 0.00018899 0)
(-0.00885012 0.000188302 0)
(-0.00893237 0.000187685 0)
(-0.00901484 0.00018717 0)
(-0.00909774 0.000186816 0)
(-0.00918137 0.000186738 0)
(-0.00926616 0.000187151 0)
(-0.00935277 0.000188441 0)
(-0.00944219 0.000191272 0)
(-0.00953592 0.000196748 0)
(-0.00963622 0.000206658 0)
(-0.00974646 0.000223837 0)
(-0.00987159 0.0002527 0)
(-0.0100187 0.000300081 0)
(-0.0101976 0.000376548 0)
(-0.0104214 0.000498554 0)
(-0.0107063 0.000691934 0)
(-0.0110683 0.000997043 0)
(-0.0115163 0.00147398 0)
(-0.0120371 0.00220238 0)
(-0.0125552 0.00326625 0)
(-0.012836 0.00469174 0)
(-6.6778e-06 5.34455e-05 0)
(-3.77519e-05 0.000124621 0)
(-9.43991e-05 0.000175235 0)
(-0.000164579 0.000212792 0)
(-0.000244921 0.000240644 0)
(-0.000333032 0.000260688 0)
(-0.00042672 0.000274517 0)
(-0.000524264 0.000283625 0)
(-0.000624381 0.000289346 0)
(-0.000726151 0.000292771 0)
(-0.000828943 0.000294725 0)
(-0.000932343 0.000295794 0)
(-0.00103609 0.000296364 0)
(-0.00114004 0.000296678 0)
(-0.00124409 0.000296878 0)
(-0.00134821 0.000297042 0)
(-0.00145237 0.000297208 0)
(-0.00155656 0.000297393 0)
(-0.00166078 0.000297604 0)
(-0.00176503 0.000297839 0)
(-0.0018693 0.000298098 0)
(-0.00197361 0.000298378 0)
(-0.00207795 0.000298675 0)
(-0.00218232 0.000298988 0)
(-0.00228673 0.000299315 0)
(-0.00239117 0.000299653 0)
(-0.00249565 0.000300003 0)
(-0.00260016 0.000300361 0)
(-0.00270471 0.000300728 0)
(-0.00280929 0.000301101 0)
(-0.0029139 0.00030148 0)
(-0.00301855 0.000301864 0)
(-0.00312322 0.000302251 0)
(-0.00322793 0.000302641 0)
(-0.00333266 0.000303032 0)
(-0.00343741 0.000303423 0)
(-0.00354217 0.000303813 0)
(-0.00364696 0.000304202 0)
(-0.00375176 0.000304587 0)
(-0.00385656 0.000304967 0)
(-0.00396137 0.000305342 0)
(-0.00406617 0.00030571 0)
(-0.00417097 0.000306069 0)
(-0.00427576 0.000306419 0)
(-0.00438053 0.000306757 0)
(-0.00448528 0.000307082 0)
(-0.00458999 0.000307393 0)
(-0.00469466 0.000307688 0)
(-0.00479929 0.000307966 0)
(-0.00490386 0.000308225 0)
(-0.00500837 0.000308463 0)
(-0.00511281 0.000308679 0)
(-0.00521716 0.000308871 0)
(-0.00532142 0.000309037 0)
(-0.00542558 0.000309175 0)
(-0.00552962 0.000309284 0)
(-0.00563354 0.000309361 0)
(-0.00573733 0.000309406 0)
(-0.00584096 0.000309415 0)
(-0.00594443 0.000309388 0)
(-0.00604772 0.000309322 0)
(-0.00615083 0.000309216 0)
(-0.00625373 0.000309068 0)
(-0.00635641 0.000308875 0)
(-0.00645886 0.000308636 0)
(-0.00656106 0.00030835 0)
(-0.006663 0.000308015 0)
(-0.00676466 0.000307628 0)
(-0.00686601 0.00030719 0)
(-0.00696706 0.000306698 0)
(-0.00706777 0.000306151 0)
(-0.00716814 0.000305548 0)
(-0.00726814 0.000304888 0)
(-0.00736776 0.00030417 0)
(-0.00746698 0.000303394 0)
(-0.00756579 0.00030256 0)
(-0.00766416 0.000301668 0)
(-0.00776209 0.000300719 0)
(-0.00785956 0.000299712 0)
(-0.00795655 0.000298649 0)
(-0.00805305 0.000297533 0)
(-0.00814905 0.000296365 0)
(-0.00824453 0.000295149 0)
(-0.0083395 0.000293888 0)
(-0.00843393 0.000292586 0)
(-0.00852784 0.00029125 0)
(-0.00862121 0.000289884 0)
(-0.00871405 0.000288497 0)
(-0.00880636 0.000287097 0)
(-0.00889816 0.000285694 0)
(-0.00898946 0.000284298 0)
(-0.00908028 0.000282921 0)
(-0.00917066 0.000281579 0)
(-0.00926063 0.000280284 0)
(-0.00935024 0.000279054 0)
(-0.00943954 0.000277907 0)
(-0.00952862 0.000276863 0)
(-0.00961757 0.000275945 0)
(-0.00970651 0.000275182 0)
(-0.00979557 0.000274612 0)
(-0.00988496 0.000274291 0)
(-0.00997493 0.00027431 0)
(-0.0100658 0.000274819 0)
(-0.010158 0.000276072 0)
(-0.0102523 0.000278492 0)
(-0.0103494 0.000282777 0)
(-0.0104507 0.00029005 0)
(-0.0105581 0.000302081 0)
(-0.0106739 0.000321591 0)
(-0.0108017 0.000352681 0)
(-0.0109461 0.000401397 0)
(-0.011113 0.0004765 0)
(-0.0113096 0.000590488 0)
(-0.0115439 0.000760912 0)
(-0.0118222 0.00101197 0)
(-0.0121457 0.00137579 0)
(-0.0125022 0.00189143 0)
(-0.0128546 0.00259791 0)
(-0.0131197 0.00351618 0)
(-0.0131422 0.00460272 0)
(-7.21459e-06 7.53293e-05 0)
(-4.1245e-05 0.000173066 0)
(-0.000103447 0.000241531 0)
(-0.000180293 0.000291907 0)
(-0.000267941 0.000329165 0)
(-0.00036375 0.000356048 0)
(-0.000465379 0.000374717 0)
(-0.000571026 0.000387139 0)
(-0.000679367 0.000395049 0)
(-0.000789455 0.000399868 0)
(-0.000900637 0.000402681 0)
(-0.00101248 0.00040426 0)
(-0.00112472 0.000405125 0)
(-0.00123718 0.000405605 0)
(-0.00134977 0.000405899 0)
(-0.00146242 0.000406117 0)
(-0.00157512 0.000406317 0)
(-0.00168785 0.000406528 0)
(-0.0018006 0.000406761 0)
(-0.00191336 0.000407017 0)
(-0.00202613 0.000407297 0)
(-0.00213892 0.000407598 0)
(-0.00225173 0.000407918 0)
(-0.00236454 0.000408253 0)
(-0.00247737 0.000408602 0)
(-0.00259021 0.000408962 0)
(-0.00270306 0.000409332 0)
(-0.00281592 0.000409711 0)
(-0.00292878 0.000410096 0)
(-0.00304165 0.000410486 0)
(-0.00315452 0.000410879 0)
(-0.00326739 0.000411276 0)
(-0.00338026 0.000411672 0)
(-0.00349312 0.000412069 0)
(-0.00360597 0.000412463 0)
(-0.0037188 0.000412855 0)
(-0.00383161 0.000413241 0)
(-0.0039444 0.000413621 0)
(-0.00405716 0.000413993 0)
(-0.00416989 0.000414355 0)
(-0.00428258 0.000414706 0)
(-0.00439522 0.000415044 0)
(-0.0045078 0.000415368 0)
(-0.00462033 0.000415675 0)
(-0.00473278 0.000415964 0)
(-0.00484517 0.000416232 0)
(-0.00495746 0.000416479 0)
(-0.00506967 0.000416701 0)
(-0.00518177 0.000416897 0)
(-0.00529376 0.000417065 0)
(-0.00540564 0.000417203 0)
(-0.00551737 0.000417308 0)
(-0.00562897 0.000417378 0)
(-0.00574041 0.000417411 0)
(-0.00585169 0.000417406 0)
(-0.00596279 0.000417359 0)
(-0.00607369 0.000417268 0)
(-0.00618439 0.000417131 0)
(-0.00629487 0.000416945 0)
(-0.00640512 0.000416709 0)
(-0.00651513 0.000416421 0)
(-0.00662487 0.000416076 0)
(-0.00673433 0.000415675 0)
(-0.00684349 0.000415213 0)
(-0.00695235 0.00041469 0)
(-0.00706088 0.000414103 0)
(-0.00716907 0.00041345 0)
(-0.00727689 0.00041273 0)
(-0.00738434 0.00041194 0)
(-0.00749139 0.000411079 0)
(-0.00759803 0.000410146 0)
(-0.00770423 0.000409139 0)
(-0.00780999 0.000408059 0)
(-0.00791527 0.000406903 0)
(-0.00802008 0.000405672 0)
(-0.00812438 0.000404367 0)
(-0.00822817 0.000402987 0)
(-0.00833142 0.000401534 0)
(-0.00843412 0.000400009 0)
(-0.00853626 0.000398415 0)
(-0.00863783 0.000396755 0)
(-0.0087388 0.000395033 0)
(-0.00883919 0.000393253 0)
(-0.00893897 0.000391422 0)
(-0.00903814 0.000389546 0)
(-0.0091367 0.000387633 0)
(-0.00923466 0.000385695 0)
(-0.00933201 0.000383741 0)
(-0.00942877 0.000381786 0)
(-0.00952496 0.000379844 0)
(-0.0096206 0.000377933 0)
(-0.00971572 0.000376073 0)
(-0.00981036 0.000374287 0)
(-0.00990457 0.000372601 0)
(-0.00999842 0.000371044 0)
(-0.010092 0.00036965 0)
(-0.0101854 0.000368459 0)
(-0.0102787 0.00036752 0)
(-0.0103721 0.000366893 0)
(-0.0104659 0.000366662 0)
(-0.0105602 0.000366942 0)
(-0.0106554 0.000367909 0)
(-0.0107519 0.000369829 0)
(-0.0108503 0.000373124 0)
(-0.0109514 0.00037845 0)
(-0.0110562 0.000386826 0)
(-0.0111661 0.000399815 0)
(-0.0112829 0.000419758 0)
(-0.0114088 0.000450088 0)
(-0.0115469 0.000495731 0)
(-0.0117005 0.000563563 0)
(-0.0118734 0.000662939 0)
(-0.0120691 0.000806208 0)
(-0.0122897 0.00100911 0)
(-0.0125335 0.00129078 0)
(-0.0127916 0.00167273 0)
(-0.0130421 0.00217537 0)
(-0.0132448 0.00281043 0)
(-0.013333 0.00356733 0)
(-0.0132162 0.0043875 0)
(-7.54401e-06 9.87544e-05 0)
(-4.36264e-05 0.000225284 0)
(-0.000109847 0.000313011 0)
(-0.000191606 0.000377024 0)
(-0.000284676 0.000424144 0)
(-0.000386188 0.000458112 0)
(-0.000493663 0.000481764 0)
(-0.00060523 0.00049759 0)
(-0.000719536 0.000507753 0)
(-0.00083562 0.000514018 0)
(-0.000952826 0.00051773 0)
(-0.00107072 0.000519852 0)
(-0.00118902 0.000521035 0)
(-0.00130755 0.000521699 0)
(-0.00142623 0.000522096 0)
(-0.00154498 0.000522373 0)
(-0.00166377 0.000522607 0)
(-0.00178258 0.000522838 0)
(-0.00190141 0.000523084 0)
(-0.00202025 0.00052335 0)
(-0.00213909 0.000523637 0)
(-0.00225793 0.000523944 0)
(-0.00237677 0.000524267 0)
(-0.0024956 0.000524605 0)
(-0.00261443 0.000524956 0)
(-0.00273325 0.000525315 0)
(-0.00285206 0.000525683 0)
(-0.00297086 0.000526057 0)
(-0.00308965 0.000526434 0)
(-0.00320841 0.000526814 0)
(-0.00332715 0.000527194 0)
(-0.00344587 0.000527574 0)
(-0.00356455 0.00052795 0)
(-0.00368321 0.000528322 0)
(-0.00380182 0.000528687 0)
(-0.00392038 0.000529044 0)
(-0.0040389 0.000529391 0)
(-0.00415736 0.000529726 0)
(-0.00427576 0.000530047 0)
(-0.0043941 0.000530353 0)
(-0.00451235 0.00053064 0)
(-0.00463053 0.000530908 0)
(-0.00474861 0.000531154 0)
(-0.0048666 0.000531375 0)
(-0.00498448 0.00053157 0)
(-0.00510224 0.000531735 0)
(-0.00521988 0.00053187 0)
(-0.00533739 0.000531971 0)
(-0.00545475 0.000532036 0)
(-0.00557195 0.000532062 0)
(-0.00568899 0.000532047 0)
(-0.00580586 0.000531989 0)
(-0.00592253 0.000531883 0)
(-0.006039 0.000531729 0)
(-0.00615525 0.000531522 0)
(-0.00627128 0.000531261 0)
(-0.00638706 0.000530942 0)
(-0.00650258 0.000530564 0)
(-0.00661784 0.000530122 0)
(-0.0067328 0.000529615 0)
(-0.00684747 0.000529039 0)
(-0.00696181 0.000528392 0)
(-0.00707582 0.000527671 0)
(-0.00718948 0.000526874 0)
(-0.00730277 0.000525999 0)
(-0.00741567 0.000525042 0)
(-0.00752817 0.000524001 0)
(-0.00764025 0.000522875 0)
(-0.00775188 0.000521662 0)
(-0.00786306 0.00052036 0)
(-0.00797376 0.000518968 0)
(-0.00808396 0.000517484 0)
(-0.00819365 0.000515908 0)
(-0.00830281 0.000514239 0)
(-0.00841142 0.000512478 0)
(-0.00851946 0.000510625 0)
(-0.00862692 0.000508682 0)
(-0.00873377 0.00050665 0)
(-0.00884002 0.000504532 0)
(-0.00894563 0.000502332 0)
(-0.00905061 0.000500054 0)
(-0.00915494 0.000497705 0)
(-0.0092586 0.00049529 0)
(-0.0093616 0.000492818 0)
(-0.00946393 0.0004903 0)
(-0.0095656 0.000487747 0)
(-0.0096666 0.000485173 0)
(-0.00976695 0.000482594 0)
(-0.00986665 0.00048003 0)
(-0.00996574 0.000477502 0)
(-0.0100642 0.000475036 0)
(-0.0101622 0.000472661 0)
(-0.0102596 0.000470412 0)
(-0.0103566 0.000468327 0)
(-0.0104532 0.000466452 0)
(-0.0105496 0.000464843 0)
(-0.0106458 0.000463563 0)
(-0.010742 0.000462693 0)
(-0.0108384 0.000462338 0)
(-0.0109352 0.000462631 0)
(-0.0110328 0.000463763 0)
(-0.0111315 0.000466003 0)
(-0.0112317 0.000469746 0)
(-0.0113342 0.000475579 0)
(-0.0114398 0.000484377 0)
(-0.0115494 0.000497435 0)
(-0.0116643 0.000516645 0)
(-0.011786 0.000544723 0)
(-0.0119164 0.000585476 0)
(-0.0120574 0.000644104 0)
(-0.0122108 0.000727496 0)
(-0.012378 0.000844456 0)
(-0.0125591 0.00100576 0)
(-0.0127516 0.00122387 0)
(-0.0129486 0.00151206 0)
(-0.0131366 0.00188249 0)
(-0.0132924 0.00234256 0)
(-0.0133814 0.00288905 0)
(-0.0133576 0.00349981 0)
(-0.0131718 0.00412222 0)
(-7.73458e-06 0.000123185 0)
(-4.51772e-05 0.000280113 0)
(-0.000114177 0.000388178 0)
(-0.000199413 0.000466476 0)
(-0.000296366 0.000523808 0)
(-0.000401978 0.000565035 0)
(-0.000513646 0.000593745 0)
(-0.000629436 0.000613005 0)
(-0.00074797 0.000625436 0)
(-0.000868281 0.000633156 0)
(-0.00098971 0.000637775 0)
(-0.00111183 0.000640449 0)
(-0.00123435 0.00064196 0)
(-0.00135712 0.000642813 0)
(-0.00148002 0.000643318 0)
(-0.00160301 0.000643654 0)
(-0.00172603 0.000643921 0)
(-0.00184907 0.000644168 0)
(-0.00197213 0.000644421 0)
(-0.00209518 0.000644688 0)
(-0.00221823 0.000644972 0)
(-0.00234127 0.000645272 0)
(-0.0024643 0.000645587 0)
(-0.00258731 0.000645913 0)
(-0.00271031 0.000646249 0)
(-0.00283328 0.000646592 0)
(-0.00295623 0.000646939 0)
(-0.00307915 0.000647289 0)
(-0.00320204 0.00064764 0)
(-0.00332489 0.000647989 0)
(-0.0034477 0.000648334 0)
(-0.00357046 0.000648674 0)
(-0.00369318 0.000649006 0)
(-0.00381584 0.000649329 0)
(-0.00393844 0.000649639 0)
(-0.00406097 0.000649936 0)
(-0.00418343 0.000650217 0)
(-0.00430581 0.00065048 0)
(-0.00442811 0.000650722 0)
(-0.00455031 0.000650941 0)
(-0.00467241 0.000651135 0)
(-0.00479441 0.000651301 0)
(-0.00491628 0.000651437 0)
(-0.00503803 0.000651539 0)
(-0.00515965 0.000651606 0)
(-0.00528112 0.000651635 0)
(-0.00540243 0.000651622 0)
(-0.00552358 0.000651566 0)
(-0.00564456 0.000651462 0)
(-0.00576534 0.000651309 0)
(-0.00588593 0.000651102 0)
(-0.00600631 0.000650839 0)
(-0.00612646 0.000650518 0)
(-0.00624637 0.000650133 0)
(-0.00636603 0.000649684 0)
(-0.00648543 0.000649165 0)
(-0.00660455 0.000648575 0)
(-0.00672337 0.00064791 0)
(-0.00684188 0.000647166 0)
(-0.00696006 0.00064634 0)
(-0.0070779 0.00064543 0)
(-0.00719539 0.000644433 0)
(-0.00731249 0.000643344 0)
(-0.00742921 0.000642162 0)
(-0.00754551 0.000640883 0)
(-0.00766138 0.000639505 0)
(-0.0077768 0.000638025 0)
(-0.00789175 0.000636442 0)
(-0.00800622 0.000634753 0)
(-0.00812019 0.000632956 0)
(-0.00823363 0.00063105 0)
(-0.00834653 0.000629034 0)
(-0.00845887 0.000626908 0)
(-0.00857063 0.000624671 0)
(-0.00868179 0.000622324 0)
(-0.00879234 0.000619868 0)
(-0.00890226 0.000617306 0)
(-0.00901153 0.000614639 0)
(-0.00912013 0.000611873 0)
(-0.00922806 0.000609011 0)
(-0.00933531 0.00060606 0)
(-0.00944185 0.000603028 0)
(-0.00954768 0.000599924 0)
(-0.00965281 0.000596759 0)
(-0.00975722 0.000593547 0)
(-0.00986091 0.000590303 0)
(-0.0099639 0.000587046 0)
(-0.0100662 0.000583797 0)
(-0.0101678 0.000580582 0)
(-0.0102687 0.000577429 0)
(-0.0103691 0.000574375 0)
(-0.0104688 0.000571457 0)
(-0.010568 0.000568723 0)
(-0.0106667 0.000566227 0)
(-0.0107651 0.000564035 0)
(-0.0108632 0.000562223 0)
(-0.0109611 0.000560884 0)
(-0.011059 0.000560137 0)
(-0.0111572 0.000560128 0)
(-0.0112558 0.000561052 0)
(-0.0113552 0.000563172 0)
(-0.0114558 0.000566851 0)
(-0.0115581 0.000572601 0)
(-0.0116627 0.000581154 0)
(-0.0117702 0.000593552 0)
(-0.0118817 0.000611276 0)
(-0.0119981 0.000636403 0)
(-0.0121204 0.000671787 0)
(-0.0122498 0.000721263 0)
(-0.0123872 0.000789827 0)
(-0.0125328 0.000883757 0)
(-0.0126861 0.0010106 0)
(-0.0128445 0.00117891 0)
(-0.0130028 0.0013976 0)
(-0.0131518 0.00167477 0)
(-0.013277 0.00201576 0)
(-0.0133581 0.00242017 0)
(-0.0133687 0.00287818 0)
(-0.0132793 0.0033662 0)
(-0.0130649 0.00384294 0)
(-7.83545e-06 0.00014824 0)
(-4.61351e-05 0.000336671 0)
(-0.000116971 0.000465866 0)
(-0.000204569 0.000558948 0)
(-0.000304203 0.000626769 0)
(-0.000412667 0.000675385 0)
(-0.000527257 0.000709201 0)
(-0.000645983 0.000731901 0)
(-0.000767441 0.000746589 0)
(-0.000890659 0.00075575 0)
(-0.00101498 0.000761267 0)
(-0.00113997 0.000764487 0)
(-0.00126537 0.000766322 0)
(-0.001391 0.000767364 0)
(-0.00151677 0.000767976 0)
(-0.00164261 0.000768372 0)
(-0.0017685 0.000768669 0)
(-0.0018944 0.000768929 0)
(-0.0020203 0.000769184 0)
(-0.00214621 0.000769446 0)
(-0.0022721 0.00076972 0)
(-0.00239798 0.000770006 0)
(-0.00252383 0.000770302 0)
(-0.00264967 0.000770606 0)
(-0.00277547 0.000770916 0)
(-0.00290125 0.00077123 0)
(-0.00302699 0.000771544 0)
(-0.00315269 0.000771857 0)
(-0.00327835 0.000772166 0)
(-0.00340395 0.000772469 0)
(-0.00352951 0.000772764 0)
(-0.003655 0.000773048 0)
(-0.00378044 0.000773319 0)
(-0.0039058 0.000773575 0)
(-0.00403108 0.000773813 0)
(-0.00415629 0.000774031 0)
(-0.00428141 0.000774227 0)
(-0.00440643 0.000774397 0)
(-0.00453134 0.000774539 0)
(-0.00465615 0.000774651 0)
(-0.00478084 0.000774729 0)
(-0.0049054 0.000774771 0)
(-0.00502982 0.000774774 0)
(-0.0051541 0.000774734 0)
(-0.00527822 0.000774649 0)
(-0.00540218 0.000774516 0)
(-0.00552597 0.00077433 0)
(-0.00564956 0.00077409 0)
(-0.00577296 0.000773791 0)
(-0.00589615 0.000773431 0)
(-0.00601911 0.000773005 0)
(-0.00614184 0.00077251 0)
(-0.00626432 0.000771943 0)
(-0.00638654 0.0007713 0)
(-0.00650849 0.000770577 0)
(-0.00663014 0.00076977 0)
(-0.00675149 0.000768877 0)
(-0.00687251 0.000767893 0)
(-0.0069932 0.000766815 0)
(-0.00711353 0.000765638 0)
(-0.0072335 0.00076436 0)
(-0.00735307 0.000762978 0)
(-0.00747225 0.000761487 0)
(-0.00759099 0.000759884 0)
(-0.0077093 0.000758167 0)
(-0.00782715 0.000756332 0)
(-0.00794452 0.000754376 0)
(-0.00806139 0.000752298 0)
(-0.00817774 0.000750095 0)
(-0.00829356 0.000747766 0)
(-0.00840882 0.000745308 0)
(-0.00852351 0.000742722 0)
(-0.0086376 0.000740006 0)
(-0.00875108 0.000737161 0)
(-0.00886393 0.000734189 0)
(-0.00897613 0.00073109 0)
(-0.00908767 0.000727868 0)
(-0.00919852 0.000724526 0)
(-0.00930867 0.000721069 0)
(-0.00941811 0.000717505 0)
(-0.00952683 0.00071384 0)
(-0.00963481 0.000710085 0)
(-0.00974205 0.00070625 0)
(-0.00984854 0.000702351 0)
(-0.00995427 0.000698404 0)
(-0.0100593 0.000694429 0)
(-0.0101635 0.000690448 0)
(-0.010267 0.00068649 0)
(-0.0103698 0.000682585 0)
(-0.0104719 0.000678771 0)
(-0.0105733 0.000675091 0)
(-0.0106741 0.000671597 0)
(-0.0107743 0.000668348 0)
(-0.010874 0.000665414 0)
(-0.0109733 0.000662879 0)