/*--------------------------------*- C++ -*----------------------------------*\
  =========                 |
  \\      /  F ield         | OpenFOAM: The Open Source CFD Toolbox
   \\    /   O peration     | Website:  https://openfoam.org
    \\  /    A nd           | Version:  8
     \\/     M anipulation  |
\*---------------------------------------------------------------------------*/
FoamFile
{
    version     2.0;
    format      ascii;
    class       volVectorField;
    location    "2";
    object      U;
}
// * * * * * * * * * * * * * * * * * * * * * * * * * * * * * * * * * * * * * //

dimensions      [0 1 -1 0 0 0 0];

internalField   nonuniform List<vector> 
2844
(
(0.995008 -0.00420018 -5.55622e-06)
(1.01314 -0.00974085 1.0184e-05)
(1.04089 -0.011932 -8.27169e-06)
(1.05647 -0.0135259 -1.41988e-06)
(1.06743 -0.00838825 1.14884e-05)
(1.06094 -0.00289509 1.38615e-06)
(1.04346 -0.00419639 -4.8078e-07)
(1.02984 -0.00314779 6.40297e-08)
(1.01977 -0.00107678 -4.09025e-07)
(1.01143 -0.00205602 -2.00865e-06)
(1.00577 -0.00571784 -4.7543e-06)
(1.00268 -0.00978817 -1.76372e-06)
(1.00129 -0.0122286 -1.37661e-07)
(1.00003 -0.0125318 2.78424e-08)
(0.999783 -0.0110481 1.74729e-07)
(0.998698 -0.00892977 3.69695e-07)
(0.999357 -0.0064855 3.09454e-07)
(0.997952 -0.00436384 3.39889e-07)
(0.998752 -0.0028066 4.91469e-07)
(0.996977 -0.000902375 3.4804e-07)
(0.994543 -0.00549627 -5.59432e-06)
(1.01636 -0.0217566 6.8584e-06)
(1.04255 -0.0222435 -7.11883e-06)
(1.0615 -0.00971645 -1.61756e-06)
(1.0807 0.0126843 1.24005e-05)
(1.07479 0.0265206 1.15695e-06)
(1.05756 0.0277872 -8.90969e-07)
(1.046 0.0233775 8.65798e-08)
(1.03076 0.0169853 -5.89861e-07)
(1.01387 0.0125014 -3.38665e-06)
(1.00287 0.0115415 -4.90253e-06)
(0.999087 0.0131932 -1.60164e-06)
(0.999884 0.0147102 -4.78562e-07)
(1.00134 0.014042 5.78849e-08)
(1.00283 0.0123788 6.28415e-07)
(1.00249 0.00956854 7.06063e-07)
(1.00296 0.00735105 6.37216e-07)
(1.00107 0.0050876 4.75911e-07)
(1.00128 0.00383611 5.11665e-07)
(0.998953 0.00251653 3.33372e-07)
(0.992868 -0.0189846 -2.98183e-06)
(1.02728 -0.0531386 1.08511e-05)
(1.06459 -0.0535192 -1.16732e-05)
(1.09565 -0.0526089 -1.11517e-06)
(1.11651 -0.0149046 1.22717e-05)
(1.10991 0.0179397 1.37216e-06)
(1.0881 0.00977224 -2.18326e-07)
(1.06381 0.015832 4.12863e-06)
(1.04145 0.0236587 4.9226e-06)
(1.0251 0.01742 -2.80056e-06)
(1.01534 0.00308553 1.03372e-07)
(1.00883 -0.00925644 1.58632e-06)
(1.00304 -0.0149485 7.72957e-07)
(0.998218 -0.0154727 6.13965e-07)
(0.996045 -0.0123832 5.7569e-07)
(0.994735 -0.00936546 7.81113e-07)
(0.995588 -0.00578568 5.78862e-07)
(0.995327 -0.00339828 4.73257e-07)
(0.996588 -0.0014376 6.43678e-07)
(0.996004 0.000808213 3.82436e-07)
(0.98981 -0.0210511 7.88747e-06)
(1.04188 -0.0633897 -1.19988e-05)
(1.0714 -0.0740338 -1.78574e-05)
(1.12176 -0.0399736 -2.52203e-06)
(1.17601 0.0149817 2.28671e-05)
(1.15982 0.0543511 1.22784e-05)
(1.14202 0.0674438 8.36771e-06)
(1.1395 0.0701434 1.46887e-05)
(1.09372 0.0510787 -1.94475e-07)
(1.03531 0.0322948 -6.2443e-06)
(1.00232 0.0256878 -3.07114e-06)
(0.995181 0.025838 -2.659e-06)
(0.999835 0.0251867 -1.93219e-06)
(1.00535 0.020939 -2.38836e-07)
(1.00839 0.0162636 6.06741e-07)
(1.00824 0.0108609 7.15898e-07)
(1.00748 0.00781258 8.61007e-07)
(1.005 0.00509972 6.76302e-07)
(1.00408 0.00407166 6.5685e-07)
(1.00161 0.00347927 3.76324e-07)
(0.991831 -0.0524683 9.43034e-05)
(1.04888 -0.144353 -0.000100688)
(1.10946 -0.13514 -6.41477e-05)
(1.24687 -0.150071 -2.89464e-05)
(1.27683 -0.0454266 4.70249e-05)
(1.26 0.052116 6.42976e-05)
(1.24103 -0.00666523 -2.09046e-05)
(1.18663 0.0557866 7.84809e-05)
(1.11884 0.104326 9.6634e-05)
(1.06514 0.0840557 6.25025e-05)
(1.03121 0.0289813 4.33772e-05)
(1.0093 -0.0117121 3.31384e-05)
(0.994428 -0.025321 2.1932e-05)
(0.987212 -0.0235341 1.21193e-05)
(0.986198 -0.0156688 5.65495e-06)
(0.98788 -0.00952108 3.41687e-06)
(0.990698 -0.00419584 1.43734e-06)
(0.992962 -0.00154531 9.68855e-07)
(0.99492 0.000484809 9.77568e-07)
(0.996202 0.00233708 4.85135e-07)
(1.00153 -0.0418508 0.000180203)
(1.05971 -0.125052 -0.000206652)
(1.13168 -0.226412 -0.000290195)
(1.38628 -0.115928 -0.000391086)
(1.51525 0.0180307 -0.000154197)
(1.37656 0.0814191 -6.1428e-05)
(1.4038 0.126138 -0.000112879)
(1.40997 0.204323 -0.000269681)
(1.20132 0.144496 -0.00015676)
(1.04464 0.097596 -4.94287e-06)
(1.00222 0.0780526 1.45049e-05)
(1.01513 0.0627685 -4.76131e-06)
(1.03139 0.0462496 -1.35623e-05)
(1.03497 0.0294573 -1.3721e-05)
(1.02948 0.0172902 -8.29613e-06)
(1.02155 0.00866017 -4.40023e-06)
(1.01457 0.00506805 -8.58478e-07)
(1.0096 0.0028406 2.62852e-08)
(1.00647 0.00256875 2.53999e-07)
(1.00411 0.00310608 1.96741e-07)
(1.06612 -0.12155 0.000638224)
(0.961248 -0.29955 0.000311332)
(1.31212 -0.450569 -0.00054071)
(1.63685 -0.524593 -0.000652066)
(1.74728 -0.085533 -0.000769321)
(1.60667 0.165911 1.13988e-05)
(1.58502 -0.116063 -0.000244952)
(1.62304 0.252995 -0.000107516)
(1.43291 0.388042 -0.000315958)
(1.2104 0.234412 -0.00047136)
(1.05609 0.0390304 -0.000289216)
(0.974539 -0.0435621 -4.52379e-05)
(0.950385 -0.0444633 4.27809e-05)
(0.955931 -0.0237407 4.05508e-05)
(0.968555 -0.00647432 2.24682e-05)
(0.979796 0.000933232 1.03151e-05)
(0.986857 0.00404256 4.10086e-06)
(0.992333 0.00383626 1.56766e-06)
(0.994762 0.00382293 8.52944e-07)
(0.997808 0.00359955 3.51629e-07)
(1.22436 -0.0179189 0.00102891)
(0.913247 -0.291334 -0.000582323)
(1.73821 -0.888381 -0.000316236)
(2.02634 -0.810611 -0.0010553)
(2.00374 0.0192835 -0.00499813)
(1.55387 0.225862 5.02457e-05)
(1.21156 0.106641 -0.000328078)
(1.59862 0.379197 0.000250303)
(1.59802 0.408362 0.000206419)
(1.6131 0.394804 8.4281e-05)
(1.50049 0.288154 8.18031e-05)
(1.32525 0.158122 5.43272e-05)
(1.18324 0.0647163 3.77771e-06)
(1.09633 0.018624 -1.50372e-05)
(1.04818 0.00207252 -1.45608e-05)
(1.0243 -0.0032004 -8.85653e-06)
(1.01216 -0.00305187 -3.95979e-06)
(1.00777 -0.00217817 -1.70231e-06)
(1.00469 -0.000745681 -9.26055e-07)
(1.00448 0.00122691 -3.64774e-07)
(1.60689 -0.260299 0.0122032)
(0.638054 -0.931621 0.00573662)
(1.59182 -1.87005 -0.00762572)
(-0.0802804 -0.476572 0.00221514)
(0.545802 0.0923296 0.000577924)
(0.503272 0.325498 0.000179072)
(0.750888 0.350033 0.000112701)
(0.849563 0.272965 3.92632e-05)
(0.924756 0.196254 -1.80726e-05)
(0.965428 0.131837 -3.03104e-05)
(0.982566 0.0823544 -2.72323e-05)
(0.988488 0.0487306 -1.82107e-05)
(0.992496 0.0273153 -1.12616e-05)
(0.994202 0.0155773 -6.91298e-06)
(0.997484 0.00867002 -4.03985e-06)
(0.997867 0.00548703 -2.24492e-06)
(1.0008 0.00319775 -7.80072e-07)
(0.95003 0.258116 -0.00551493)
(2.05193 -1.24619 0.0076336)
(0.222967 -0.485428 0.00439602)
(-0.196657 -0.282044 0.000621854)
(-0.349476 0.184951 1.23392e-05)
(-0.114055 0.163586 2.38741e-05)
(0.243335 0.148503 7.75488e-05)
(0.511018 0.115618 -6.36268e-06)
(0.719786 0.0743918 -2.26772e-05)
(0.853409 0.0362376 -9.96847e-06)
(0.931266 0.0111871 -5.83479e-06)
(0.970251 -0.000928543 -6.37806e-06)
(0.989058 -0.00527566 -6.7777e-06)
(0.995841 -0.00548018 -5.92629e-06)
(1.00039 -0.0042706 -4.14865e-06)
(1.00056 -0.00291366 -2.49021e-06)
(1.00305 -0.000933412 -8.41854e-07)
(0.950076 -0.258102 -0.00551762)
(-0.133886 -0.598273 -0.00550186)
(-0.103165 0.00281831 -0.000229979)
(-0.349479 -0.184956 1.07624e-05)
(-0.114057 -0.163584 1.34591e-05)
(0.243338 -0.148506 6.54009e-05)
(0.511017 -0.115618 -1.12512e-05)
(0.719786 -0.0743916 -2.46702e-05)
(0.853409 -0.0362377 -9.41147e-06)
(0.931266 -0.0111868 -3.2507e-06)
(0.970252 0.000928782 -2.94634e-06)
(0.989059 0.00527646 -3.66336e-06)
(0.995842 0.0054805 -3.69457e-06)
(1.0004 0.0042707 -2.8432e-06)
(1.00056 0.0029137 -1.80387e-06)
(1.00305 0.000933 -5.99143e-07)
(1.6069 0.260304 0.0122017)
(0.0162248 -0.197463 -0.00553356)
(0.638614 1.31319 0.00882804)
(0.220599 0.334101 0.00119751)
(0.545807 -0.0923381 0.000580253)
(0.503269 -0.325495 0.000174426)
(0.750885 -0.35003 0.000103959)
(0.849563 -0.272962 3.5053e-05)
(0.924755 -0.196253 -2.03459e-05)
(0.965429 -0.131839 -3.08809e-05)
(0.982567 -0.0823573 -2.60177e-05)
(0.98849 -0.0487345 -1.59135e-05)
(0.992497 -0.0273179 -8.89431e-06)
(0.994202 -0.0155792 -5.07733e-06)
(0.997484 -0.008671 -2.93366e-06)
(0.997866 -0.00548726 -1.64342e-06)
(1.0008 -0.00319807 -5.59964e-07)
(1.22437 0.0179271 0.00102746)
(0.913241 0.291322 -0.000581042)
(0.99483 0.664768 -0.014194)
(0.0855208 -0.162263 -0.000584857)
(1.21157 -0.106647 -0.000326222)
(1.59863 -0.3792 0.000251728)
(1.59802 -0.408361 0.000207026)
(1.61311 -0.3948 8.64529e-05)
(1.5005 -0.288151 8.38676e-05)
(1.32525 -0.158121 5.60138e-05)
(1.18325 -0.0647161 4.47618e-06)
(1.09633 -0.018623 -1.51754e-05)
(1.04819 -0.00207122 -1.50528e-05)
(1.0243 0.00320188 -9.33188e-06)
(1.01216 0.0030528 -4.22336e-06)
(1.00777 0.0021785 -1.86613e-06)
(1.00469 0.000745878 -1.00625e-06)
(1.00448 -0.0012271 -3.84861e-07)
(1.06612 0.121551 0.000638814)
(0.961251 0.299555 0.000310155)
(1.31211 0.450569 -0.000539883)
(1.76283 0.413464 -0.00155245)
(1.99786 0.018147 -0.00155107)
(1.60667 -0.165909 1.23518e-05)
(1.58502 0.116057 -0.000243764)
(1.62303 -0.252998 -0.000108308)
(1.4329 -0.388042 -0.000316729)
(1.2104 -0.234413 -0.000471048)
(1.05609 -0.0390301 -0.000288827)
(0.974539 0.043563 -4.52492e-05)
(0.950386 0.0444635 4.26145e-05)
(0.95593 0.0237404 4.04493e-05)
(0.968555 0.00647359 2.24317e-05)
(0.979796 -0.000933841 1.02716e-05)
(0.986856 -0.00404279 4.13972e-06)
(0.992333 -0.00383655 1.56319e-06)
(0.994761 -0.00382296 8.37851e-07)
(0.997807 -0.00359959 3.56128e-07)
(1.00152 0.0418501 0.000180451)
(1.05971 0.125052 -0.000206498)
(1.13168 0.22641 -0.000291249)
(1.38628 0.115928 -0.000393479)
(1.51525 -0.0180305 -0.000155836)
(1.37656 -0.0814204 -6.20534e-05)
(1.4038 -0.126142 -0.000113431)
(1.40997 -0.204324 -0.000270483)
(1.20131 -0.144497 -0.000158016)
(1.04464 -0.0975971 -6.11152e-06)
(1.00222 -0.0780529 1.40218e-05)
(1.01513 -0.0627686 -4.81131e-06)
(1.03139 -0.0462496 -1.35601e-05)
(1.03497 -0.029457 -1.37839e-05)
(1.02948 -0.0172897 -8.39266e-06)
(1.02155 -0.00865997 -4.55045e-06)
(1.01457 -0.00506752 -9.04971e-07)
(1.0096 -0.00284049 -2.37205e-09)
(1.00647 -0.00256876 2.13869e-07)
(1.00411 -0.00310601 1.89802e-07)
(0.991831 0.0524683 9.40631e-05)
(1.04888 0.144354 -0.000100168)
(1.10946 0.135141 -6.43881e-05)
(1.24687 0.150073 -2.97943e-05)
(1.27683 0.0454282 4.68636e-05)
(1.26 -0.0521148 6.44948e-05)
(1.24103 0.00666438 -2.13103e-05)
(1.18662 -0.0557873 7.76486e-05)
(1.11884 -0.104326 9.60777e-05)
(1.06514 -0.0840564 6.1952e-05)
(1.03121 -0.0289818 4.27468e-05)
(1.0093 0.0117117 3.2739e-05)
(0.994428 0.0253208 2.18669e-05)
(0.987211 0.0235341 1.22805e-05)
(0.986197 0.0156692 5.89384e-06)
(0.98788 0.00952096 3.55646e-06)
(0.990698 0.00419619 1.53379e-06)
(0.992962 0.00154538 1.0352e-06)
(0.99492 -0.000484847 9.86544e-07)
(0.996202 -0.00233695 4.89532e-07)
(0.98981 0.0210515 7.77847e-06)
(1.04188 0.0633887 -1.17649e-05)
(1.0714 0.0740326 -1.80359e-05)
(1.12176 0.0399732 -2.53783e-06)
(1.17601 -0.0149815 2.32832e-05)
(1.15982 -0.0543507 1.24453e-05)
(1.14202 -0.0674434 8.24574e-06)
(1.1395 -0.070143 1.45926e-05)
(1.09372 -0.0510787 -2.35992e-07)
(1.03531 -0.0322949 -6.37361e-06)
(1.00232 -0.0256878 -3.26089e-06)
(0.99518 -0.025838 -2.71747e-06)
(0.999834 -0.0251869 -1.83948e-06)
(1.00535 -0.0209393 -6.86397e-08)
(1.00839 -0.0162636 8.14998e-07)
(1.00824 -0.0108611 8.35128e-07)
(1.00748 -0.00781238 9.18267e-07)
(1.005 -0.00509968 7.30516e-07)
(1.00408 -0.00407157 6.64468e-07)
(1.00161 -0.00347909 3.77892e-07)
(0.992868 0.0189849 -2.98394e-06)
(1.02728 0.0531389 1.08437e-05)
(1.06459 0.0535191 -1.17253e-05)
(1.09565 0.0526091 -1.05594e-06)
(1.11651 0.0149052 1.23054e-05)
(1.10991 -0.0179391 1.37973e-06)
(1.0881 -0.00977189 -2.09157e-07)
(1.06381 -0.0158319 4.11098e-06)
(1.04145 -0.023659 4.8847e-06)
(1.0251 -0.0174209 -2.79561e-06)
(1.01534 -0.00308663 1.22757e-07)
(1.00883 0.00925555 1.60585e-06)
(1.00303 0.014948 7.65647e-07)
(0.998218 0.0154723 5.61845e-07)
(0.996044 0.0123834 5.59711e-07)
(0.994734 0.00936536 7.77446e-07)
(0.995588 0.00578579 5.49061e-07)
(0.995326 0.0033982 4.79777e-07)
(0.996587 0.00143769 6.3753e-07)
(0.996004 -0.000808057 3.78654e-07)
(0.994543 0.00549636 -5.59652e-06)
(1.01636 0.0217562 6.85072e-06)
(1.04255 0.0222429 -7.11621e-06)
(1.0615 0.00971592 -1.60638e-06)
(1.0807 -0.0126843 1.24143e-05)
(1.07479 -0.0265204 1.16161e-06)
(1.05756 -0.0277868 -8.94092e-07)
(1.046 -0.0233772 9.39166e-08)
(1.03076 -0.0169853 -5.85908e-07)
(1.01387 -0.0125012 -3.3682e-06)
(1.00287 -0.0115414 -4.88668e-06)
(0.999087 -0.0131932 -1.61958e-06)
(0.999882 -0.0147101 -4.53599e-07)
(1.00134 -0.0140422 4.43833e-08)
(1.00283 -0.0123787 6.17324e-07)
(1.00249 -0.0095685 7.35527e-07)
(1.00296 -0.00735096 6.23189e-07)
(1.00107 -0.00508759 4.81928e-07)
(1.00128 -0.00383598 5.09738e-07)
(0.998953 -0.0025164 3.28184e-07)
(0.995008 0.00420033 -5.55788e-06)
(1.01314 0.00974111 1.01851e-05)
(1.04089 0.0119322 -8.26964e-06)
(1.05647 0.013526 -1.42871e-06)
(1.06743 0.00838855 1.14899e-05)
(1.06094 0.00289545 1.39506e-06)
(1.04346 0.00419664 -4.73864e-07)
(1.02984 0.00314785 7.21443e-08)
(1.01977 0.00107654 -4.04282e-07)
(1.01143 0.00205559 -2.01857e-06)
(1.00577 0.00571725 -4.72114e-06)
(1.00268 0.00978761 -1.79847e-06)
(1.00129 0.0122283 -1.17731e-07)
(1.00003 0.0125316 3.58822e-08)
(0.999782 0.011048 1.43722e-07)
(0.998698 0.00892973 4.02042e-07)
(0.999357 0.00648544 3.05268e-07)
(0.997951 0.0043638 3.26922e-07)
(0.998752 0.0028066 5.01453e-07)
(0.996976 0.000902379 3.45264e-07)
(0.995009 -0.00420033 -3.07657e-09)
(1.01313 -0.00974174 -4.22326e-09)
(1.04089 -0.0119314 1.34627e-08)
(1.05647 -0.0135261 1.17422e-09)
(1.06743 -0.00838878 -1.9264e-09)
(1.06094 -0.00289538 -1.00042e-08)
(1.04346 -0.00419647 -1.26482e-08)
(1.02984 -0.00314812 -4.98963e-09)
(1.01977 -0.00107765 2.32565e-09)
(1.01144 -0.00205734 1.97193e-08)
(1.00578 -0.00571845 -2.69288e-08)
(1.00269 -0.00978827 4.8945e-08)
(1.00129 -0.0122285 -3.02643e-08)
(1.00003 -0.0125315 -3.66766e-09)
(0.999784 -0.0110476 2.78916e-08)
(0.998699 -0.00892944 -3.33884e-08)
(0.999358 -0.00648525 3.16616e-08)
(0.997953 -0.00436372 -4.57115e-09)
(0.998752 -0.00280656 -1.52559e-08)
(0.996977 -0.000902364 5.16353e-09)
(0.994543 -0.00549499 -8.50417e-09)
(1.01636 -0.0217561 8.97159e-09)
(1.04255 -0.022245 7.31781e-09)
(1.0615 -0.00971422 3.90302e-09)
(1.0807 0.0126857 -3.16896e-10)
(1.07479 0.0265201 -2.6735e-08)
(1.05756 0.0277864 -9.55808e-09)
(1.046 0.023377 -3.04998e-09)
(1.03076 0.0169843 2.13979e-08)
(1.01388 0.0124981 -2.26695e-08)
(1.00287 0.0115409 3.21607e-08)
(0.99909 0.0131931 1.76492e-08)
(0.999885 0.0147102 -4.26184e-08)
(1.00134 0.0140424 3.82275e-08)
(1.00283 0.0123793 -3.83676e-09)
(1.00249 0.00956896 -2.83885e-08)
(1.00296 0.00735132 4.64042e-08)
(1.00107 0.00508775 -3.72126e-08)
(1.00128 0.00383623 8.26977e-09)
(0.998953 0.00251657 9.38888e-09)
(0.992869 -0.0189813 -8.09505e-09)
(1.02728 -0.0531424 2.58489e-08)
(1.06458 -0.0535229 1.17347e-08)
(1.09565 -0.0526077 -1.05981e-08)
(1.11651 -0.014903 -3.4558e-08)
(1.10991 0.0179402 -4.19516e-08)
(1.0881 0.00977207 -2.26147e-09)
(1.06381 0.0158339 4.53135e-09)
(1.04145 0.0236559 2.10507e-08)
(1.0251 0.0174158 1.69052e-09)
(1.01534 0.00308224 4.4751e-08)
(1.00884 -0.00926075 -5.51021e-09)
(1.00304 -0.0149512 -8.99788e-09)
(0.998218 -0.0154724 4.719e-08)
(0.996045 -0.012381 -4.78061e-08)
(0.994735 -0.00936273 -1.36726e-08)
(0.995588 -0.00578336 5.26457e-08)
(0.995327 -0.00339678 -4.69066e-08)
(0.996588 -0.00143673 9.96727e-09)
(0.996004 0.000808535 8.47739e-09)
(0.989816 -0.0210237 2.2608e-08)
(1.04186 -0.0633958 -9.60678e-09)
(1.0714 -0.0740596 3.31322e-08)
(1.12177 -0.0399806 -3.71638e-08)
(1.17602 0.0149805 -3.66878e-08)
(1.15981 0.054352 -8.50502e-08)
(1.14201 0.0674447 -2.89531e-09)
(1.13947 0.0701796 -8.27858e-09)
(1.0937 0.0511218 1.29955e-08)
(1.03531 0.0323277 -5.33152e-09)
(1.00232 0.0257072 -5.05791e-09)
(0.995184 0.0258474 -6.8916e-09)
(0.999839 0.0251919 3.87225e-08)
(1.00536 0.0209434 4.95934e-08)
(1.0084 0.0162682 -2.33395e-08)
(1.00824 0.0108651 4.8501e-08)
(1.00748 0.0078155 4.98867e-08)
(1.005 0.00510152 -5.85505e-08)
(1.00408 0.00407267 1.72556e-08)
(1.00161 0.00347963 1.12446e-08)
(0.991846 -0.0523507 2.5001e-07)
(1.0488 -0.144431 -2.91267e-07)
(1.10951 -0.135324 -1.08198e-07)
(1.24693 -0.150085 -1.67754e-08)
(1.27676 -0.0453171 -4.30742e-08)
(1.25994 0.0522257 1.74344e-07)
(1.24096 -0.0064749 1.92031e-07)
(1.18656 0.0558382 4.58142e-07)
(1.11881 0.104318 5.30035e-07)
(1.06508 0.0840488 3.85531e-07)
(1.03113 0.0289567 2.30725e-07)
(1.00924 -0.0117445 7.04589e-08)
(0.994395 -0.025342 -1.20663e-08)
(0.987198 -0.0235418 -5.55228e-08)
(0.986193 -0.0156687 -9.71127e-08)
(0.987877 -0.00951806 8.4235e-09)
(0.990695 -0.00419158 -1.20157e-08)
(0.99296 -0.00154139 -6.09245e-08)
(0.994919 0.000488203 2.06216e-08)
(0.996201 0.00233883 8.29967e-09)
(1.00135 -0.0408257 3.20258e-07)
(1.05976 -0.126185 -2.32618e-07)
(1.13202 -0.226982 -3.68188e-07)
(1.38669 -0.116308 -2.33707e-07)
(1.51511 0.0184581 -6.64859e-07)
(1.37631 0.0820979 -1.1121e-07)
(1.40432 0.125996 1.09127e-07)
(1.40973 0.205002 1.84575e-09)
(1.20048 0.145508 1.65185e-07)
(1.04434 0.0982701 4.98967e-07)
(1.00234 0.0784577 2.60478e-07)
(1.01532 0.0630373 -1.35225e-08)
(1.03154 0.0464179 -3.91333e-08)
(1.03505 0.0295496 2.33386e-08)
(1.02952 0.0173363 6.3672e-08)
(1.02156 0.00868308 1.37392e-07)
(1.01457 0.00508071 1.67611e-08)
(1.00959 0.00284787 5.10693e-09)
(1.00647 0.00257311 4.72623e-08)
(1.00411 0.00310788 1.02542e-08)
(1.06461 -0.119635 -5.44516e-07)
(0.96294 -0.301999 -4.64894e-07)
(1.31436 -0.453614 2.0326e-07)
(1.63966 -0.529569 -0.000411928)
(1.74776 -0.0854108 -0.000636721)
(1.60905 0.164729 -6.61991e-07)
(1.58609 -0.116588 3.74605e-07)
(1.62539 0.251364 -2.17212e-07)
(1.43636 0.386585 -1.66129e-07)
(1.21213 0.233776 -5.20075e-07)
(1.05571 0.038764 -1.08849e-06)
(0.97367 -0.0436863 -8.06496e-07)
(0.949803 -0.04454 -2.83542e-07)
(0.955648 -0.0237985 -8.85162e-08)
(0.968438 -0.00651197 -8.81593e-08)
(0.979751 0.000915929 -8.35183e-08)
(0.986839 0.00403908 -1.33216e-07)
(0.992324 0.00383903 -4.31053e-08)
(0.994756 0.00382811 -1.77129e-08)
(0.997805 0.00360288 -1.91963e-08)
(1.21763 -0.0111799 -7.79914e-07)
(0.927668 -0.292981 1.09753e-06)
(1.75096 -0.890193 -0.000974718)
(2.03489 -0.832598 -0.000725047)
(2.00259 0.0157095 -0.000507214)
(1.5511 0.226096 0.000237462)
(1.21002 0.104351 2.94847e-07)
(1.59736 0.377258 2.43516e-06)
(1.59805 0.407064 1.29418e-06)
(1.61325 0.394106 5.90304e-07)
(1.50076 0.287865 6.45231e-07)
(1.32581 0.158122 1.25449e-06)
(1.18379 0.0648183 9.17261e-07)
(1.09667 0.0187047 2.34502e-07)
(1.04835 0.0021172 -4.60207e-08)
(1.02436 -0.00317552 -5.79705e-08)
(1.01218 -0.00303566 -7.09379e-08)
(1.00778 -0.00216733 3.49244e-08)
(1.00469 -0.000738463 1.41847e-08)
(1.00447 0.00123006 4.02059e-10)
(1.60416 -0.254963 -9.8267e-06)
(0.682625 -0.955475 0.00229327)
(1.60302 -1.90637 -0.0120127)
(-0.0843756 -0.482102 0.00232697)
(0.545525 0.0914229 -1.44574e-06)
(0.503475 0.324878 -5.25574e-06)
(0.751271 0.349865 -7.46113e-06)
(0.850088 0.273074 -3.01094e-06)
(0.925208 0.196422 -1.58339e-06)
(0.965704 0.131955 -4.30692e-07)
(0.982706 0.0824129 1.05517e-06)
(0.988556 0.0487571 2.06574e-06)
(0.992526 0.0273294 2.15342e-06)
(0.994211 0.0155872 1.63425e-06)
(0.997483 0.0086774 1.04397e-06)
(0.99786 0.00549266 5.35838e-07)
(1.00079 0.00320045 1.88289e-07)
(0.935343 0.286792 9.9169e-06)
(2.04609 -1.34458 0.00412177)
(0.272608 -0.530223 -0.0195263)
(-0.198594 -0.283328 -0.000245378)
(-0.348911 0.184653 -1.16728e-07)
(-0.114419 0.163511 -9.66239e-06)
(0.24343 0.148496 -1.08069e-05)
(0.511126 0.115636 -4.50853e-06)
(0.719863 0.0743995 -1.71219e-06)
(0.853454 0.0362303 5.22256e-07)
(0.931298 0.011173 2.27514e-06)
(0.97028 -0.000940509 3.0045e-06)
(0.989078 -0.00528111 2.71202e-06)
(0.995848 -0.00548056 1.92328e-06)
(1.00039 -0.0042691 1.15194e-06)
(1.00056 -0.00291251 5.77212e-07)
(1.00305 -0.000933157 2.02574e-07)
(0.935361 -0.286781 5.80308e-07)
(-0.144343 -0.661197 -0.00281667)
(-0.102918 0.00243515 0.000170813)
(-0.348913 -0.184655 -6.71897e-07)
(-0.11442 -0.163506 -1.6227e-06)
(0.243431 -0.148494 -3.48504e-07)
(0.511124 -0.115632 -1.22107e-07)
(0.719861 -0.0743976 2.38145e-08)
(0.853453 -0.0362301 2.23083e-07)
(0.931297 -0.0111735 4.45556e-07)
(0.97028 0.000939244 5.43582e-07)
(0.989079 0.00528041 4.81235e-07)
(0.995849 0.00547975 3.56381e-07)
(1.00039 0.00426847 2.24198e-07)
(1.00056 0.00291215 9.87886e-08)
(1.00305 0.000932607 3.66734e-08)
(1.60416 0.254969 -4.04962e-06)
(0.25315 -0.13695 -0.00500895)
(0.638548 1.33591 -0.00632322)
(0.223496 0.329056 0.000511003)
(0.545523 -0.0914274 8.62017e-07)
(0.503479 -0.324877 -4.18693e-07)
(0.751269 -0.349864 -7.50211e-07)
(0.850087 -0.273073 -7.8599e-08)
(0.925208 -0.196422 -1.93781e-08)
(0.965705 -0.131955 -1.99602e-07)
(0.982706 -0.0824139 -2.75055e-07)
(0.988557 -0.0487587 -2.56624e-07)
(0.992527 -0.0273302 -1.91796e-07)
(0.994211 -0.0155877 -9.68413e-08)
(0.997484 -0.00867761 -5.32967e-08)
(0.99786 -0.00549249 -4.01123e-08)
(1.00079 -0.00320063 -1.10297e-08)
(1.21764 0.0111811 4.90988e-07)
(0.927664 0.29298 7.27334e-07)
(1.01183 0.680802 -0.0101043)
(0.0677117 -0.157743 -0.000128148)
(1.21002 -0.104356 -1.96582e-06)
(1.59736 -0.37726 -9.47778e-07)
(1.59805 -0.407063 8.396e-08)
(1.61325 -0.394104 -1.84893e-07)
(1.50076 -0.287863 1.84852e-08)
(1.32582 -0.158122 2.61108e-07)
(1.1838 -0.0648191 1.26587e-07)
(1.09667 -0.0187045 -1.24843e-07)
(1.04835 -0.0021166 -2.21603e-07)
(1.02436 0.00317653 -1.69448e-07)
(1.01218 0.00303635 -6.54955e-08)
(1.00778 0.00216755 -4.74302e-08)
(1.00469 0.000738616 -2.66786e-08)
(1.00447 -0.00123026 -3.97153e-09)
(1.06461 0.119637 4.4275e-07)
(0.962941 0.302 -1.249e-06)
(1.31436 0.453618 6.91645e-07)
(1.76754 0.421631 -0.000286241)
(1.99826 0.0204736 -0.000860369)
(1.60905 -0.164729 3.6678e-07)
(1.58608 0.116585 -5.05713e-07)
(1.62539 -0.251366 -6.41286e-07)
(1.43636 -0.386586 -6.54441e-08)
(1.21213 -0.233776 4.26013e-07)
(1.05571 -0.0387635 -1.98319e-09)
(0.97367 0.043687 -1.20838e-07)
(0.949803 0.0445402 1.44887e-07)
(0.955647 0.0237984 3.34849e-07)
(0.968438 0.00651152 3.03411e-07)
(0.979751 -0.000916303 2.19353e-07)
(0.986838 -0.00403915 1.64069e-07)
(0.992325 -0.00383921 4.2287e-08)
(0.994756 -0.00382808 2.41311e-08)
(0.997804 -0.00360289 1.49845e-08)
(1.00135 0.0408273 -1.29716e-07)
(1.05976 0.126182 3.20022e-07)
(1.13202 0.226981 8.98356e-07)
(1.38669 0.116307 9.57259e-07)
(1.51511 -0.0184584 1.71725e-06)
(1.37631 -0.0820983 4.50068e-07)
(1.40432 -0.125997 -6.5273e-07)
(1.40973 -0.205001 2.43139e-07)
(1.20048 -0.145508 7.92891e-07)
(1.04434 -0.0982712 1.02086e-06)
(1.00234 -0.0784581 7.14574e-07)
(1.01532 -0.0630372 2.79666e-07)
(1.03154 -0.0464179 4.60303e-08)
(1.03505 -0.0295494 2.72197e-08)
(1.02952 -0.0173359 4.37118e-08)
(1.02156 -0.00868298 6.50667e-08)
(1.01457 -0.00508027 8.26595e-08)
(1.00959 -0.00284776 6.53789e-09)
(1.00647 -0.0025731 1.87257e-08)
(1.00411 -0.0031078 1.36359e-08)
(0.991846 0.0523518 -2.27039e-07)
(1.0488 0.144431 5.77414e-08)
(1.10951 0.135324 6.22082e-07)
(1.24693 0.150085 1.13e-06)
(1.27676 0.0453167 1.06562e-07)
(1.25994 -0.0522251 -2.69805e-07)
(1.24096 0.00647421 -1.39658e-07)
(1.18656 -0.0558392 3.47288e-07)
(1.11881 -0.104319 5.6774e-07)
(1.06508 -0.0840505 8.13584e-07)
(1.03113 -0.0289581 7.56679e-07)
(1.00923 0.0117436 3.72354e-07)
(0.994394 0.0253416 -1.91673e-08)
(0.987197 0.0235418 -1.92124e-07)
(0.986192 0.015669 -2.2177e-07)
(0.987876 0.00951794 -1.38699e-07)
(0.990694 0.0041919 -6.12961e-08)
(0.99296 0.00154148 -6.46299e-08)
(0.994918 -0.000488208 -7.8105e-09)
(0.996201 -0.00233869 3.32728e-09)
(0.989816 0.0210242 -1.29987e-07)
(1.04186 0.063395 -8.79765e-08)
(1.0714 0.0740584 4.19465e-07)
(1.12177 0.0399795 3.31918e-07)
(1.17602 -0.0149805 -7.39686e-08)
(1.15981 -0.0543514 -1.64603e-07)
(1.14201 -0.0674443 -1.39357e-08)
(1.13947 -0.0701794 5.20337e-08)
(1.0937 -0.0511218 1.55087e-07)
(1.0353 -0.0323277 3.53356e-07)
(1.00232 -0.0257072 3.92461e-07)
(0.995183 -0.0258475 2.06459e-07)
(0.999838 -0.0251922 -2.83968e-08)
(1.00536 -0.0209438 -1.51314e-07)
(1.00839 -0.0162681 -1.74181e-07)
(1.00824 -0.0108653 -1.16989e-07)
(1.00748 -0.00781531 -4.86932e-08)
(1.005 -0.00510147 -5.61804e-08)
(1.00408 -0.00407256 -4.95965e-09)
(1.00161 -0.00347943 3.04712e-09)
(0.992869 0.0189816 -3.70456e-08)
(1.02728 0.0531428 -2.35232e-08)
(1.06458 0.0535228 7.46172e-08)
(1.09565 0.0526077 7.72947e-08)
(1.11651 0.0149035 -3.98568e-08)
(1.10991 -0.0179396 -1.01155e-07)
(1.0881 -0.00977173 -1.94185e-08)
(1.06381 -0.0158339 3.72681e-08)
(1.04145 -0.0236563 2.13299e-08)
(1.0251 -0.0174167 -2.25763e-08)
(1.01534 -0.0030834 1.20555e-08)
(1.00884 0.00925982 1.80076e-08)
(1.00304 0.0149508 1.26741e-08)
(0.998219 0.0154721 2.59093e-08)
(0.996044 0.0123812 -1.86207e-08)
(0.994734 0.00936262 -1.44405e-09)
(0.995588 0.00578347 1.58954e-08)
(0.995326 0.00339669 -2.23455e-08)
(0.996587 0.00143682 3.6787e-09)
(0.996004 -0.00080837 4.26421e-09)
(0.994543 0.00549508 -6.07104e-09)
(1.01636 0.0217557 2.46654e-09)
(1.04255 0.0222444 5.63463e-09)
(1.0615 0.00971366 1.16721e-08)
(1.0807 -0.0126857 4.04278e-09)
(1.07479 -0.0265199 -2.10977e-08)
(1.05756 -0.0277861 -1.7044e-08)
(1.046 -0.0233767 5.2891e-09)
(1.03076 -0.0169843 2.09323e-08)
(1.01388 -0.012498 2.1889e-10)
(1.00287 -0.0115408 1.66506e-08)
(0.999089 -0.0131931 -1.9969e-08)
(0.999884 -0.0147101 8.51503e-09)
(1.00134 -0.0140426 2.53231e-08)
(1.00283 -0.0123792 7.20677e-09)
(1.00249 -0.00956892 1.91176e-08)
(1.00296 -0.00735123 2.47153e-08)
(1.00107 -0.00508775 -1.73019e-08)
(1.00128 -0.0038361 4.78977e-09)
(0.998952 -0.00251643 4.48385e-09)
(0.995009 0.00420049 5.17168e-10)
(1.01314 0.00974199 -3.74603e-09)
(1.04089 0.0119316 -1.02249e-09)
(1.05647 0.0135262 4.02469e-09)
(1.06743 0.00838908 1.40412e-09)
(1.06094 0.00289575 3.36451e-09)
(1.04346 0.00419673 1.03843e-09)
(1.02984 0.00314819 -1.74026e-09)
(1.01977 0.00107741 -1.10294e-09)
(1.01144 0.0020569 -1.60234e-09)
(1.00578 0.00571786 6.25503e-09)
(1.00269 0.0097877 -2.58834e-08)
(1.00129 0.0122282 9.99444e-09)
(1.00003 0.0125312 4.5788e-09)
(0.999783 0.0110475 -2.38102e-08)
(0.998698 0.00892939 9.98373e-09)
(0.999357 0.0064852 1.48359e-08)
(0.997952 0.00436368 -2.16263e-08)
(0.998752 0.00280656 5.96708e-09)
(0.996976 0.00090237 4.04259e-09)
(0.995008 -0.00420018 5.55855e-06)
(1.01314 -0.00974086 -1.01878e-05)
(1.04089 -0.011932 8.27021e-06)
(1.05647 -0.0135259 1.43255e-06)
(1.06743 -0.00838825 -1.14932e-05)
(1.06094 -0.00289507 -1.39534e-06)
(1.04346 -0.0041964 4.7516e-07)
(1.02984 -0.0031478 -7.55078e-08)
(1.01977 -0.00107679 4.0372e-07)
(1.01143 -0.00205605 2.01344e-06)
(1.00577 -0.00571782 4.71581e-06)
(1.00268 -0.00978819 1.81428e-06)
(1.00129 -0.0122286 1.04053e-07)
(1.00003 -0.0125318 -3.02629e-08)
(0.999783 -0.0110481 -1.45348e-07)
(0.998698 -0.00892977 -4.08814e-07)
(0.999357 -0.00648549 -2.77842e-07)
(0.997952 -0.00436385 -3.40389e-07)
(0.998752 -0.0028066 -5.06496e-07)
(0.996977 -0.000902374 -3.43871e-07)
(0.994543 -0.00549626 5.59545e-06)
(1.01636 -0.0217566 -6.86282e-06)
(1.04255 -0.0222435 7.127e-06)
(1.0615 -0.00971646 1.624e-06)
(1.0807 0.0126843 -1.24088e-05)
(1.07479 0.0265206 -1.16703e-06)
(1.05756 0.0277872 8.82362e-07)
(1.046 0.0233775 -1.03922e-07)
(1.03076 0.0169853 5.97952e-07)
(1.01387 0.0125013 3.34418e-06)
(1.00287 0.0115415 4.92803e-06)
(0.999087 0.0131931 1.62085e-06)
(0.999884 0.0147102 4.31099e-07)
(1.00134 0.014042 -1.80341e-08)
(1.00283 0.0123788 -6.33028e-07)
(1.00249 0.00956855 -7.35571e-07)
(1.00296 0.00735106 -5.87537e-07)
(1.00107 0.00508758 -5.12346e-07)
(1.00128 0.00383612 -5.06093e-07)
(0.998953 0.00251653 -3.2511e-07)
(0.992868 -0.0189846 2.97686e-06)
(1.02728 -0.0531385 -1.08428e-05)
(1.06459 -0.0535192 1.16893e-05)
(1.09565 -0.052609 1.11262e-06)
(1.11651 -0.0149047 -1.22965e-05)
(1.10991 0.0179396 -1.40167e-06)
(1.0881 0.00977222 2.01256e-07)
(1.06381 0.015832 -4.13559e-06)
(1.04145 0.0236587 -4.91813e-06)
(1.0251 0.01742 2.77709e-06)
(1.01534 0.00308553 -6.52299e-08)
(1.00883 -0.00925646 -1.59721e-06)
(1.00304 -0.0149485 -7.89723e-07)
(0.998218 -0.0154727 -5.63174e-07)
(0.996045 -0.0123832 -6.22247e-07)
(0.994735 -0.00936543 -7.94958e-07)
(0.995588 -0.00578567 -5.24258e-07)
(0.995327 -0.00339828 -5.18773e-07)
(0.996588 -0.0014376 -6.35312e-07)
(0.996004 0.000808214 -3.75405e-07)
(0.989811 -0.0210511 -7.91175e-06)
(1.04188 -0.0633895 1.2002e-05)
(1.0714 -0.0740337 1.78758e-05)
(1.12176 -0.0399737 2.58553e-06)
(1.17601 0.0149815 -2.28553e-05)
(1.15982 0.0543509 -1.23556e-05)
(1.14202 0.0674438 -8.46096e-06)
(1.1395 0.0701434 -1.47682e-05)
(1.09372 0.0510787 2.15458e-07)
(1.03531 0.0322949 6.28586e-06)
(1.00232 0.025688 3.10713e-06)
(0.995181 0.0258381 2.6509e-06)
(0.999835 0.0251867 1.95699e-06)
(1.00535 0.0209389 2.86845e-07)
(1.00839 0.0162636 -6.32848e-07)
(1.00824 0.0108608 -6.69936e-07)
(1.00748 0.00781255 -8.08081e-07)
(1.005 0.00509971 -7.31243e-07)
(1.00408 0.00407166 -6.39634e-07)
(1.00161 0.00347927 -3.65716e-07)
(0.991832 -0.0524683 -9.43198e-05)
(1.04888 -0.144353 0.000100677)
(1.10946 -0.13514 6.36989e-05)
(1.24687 -0.150071 2.94348e-05)
(1.27683 -0.045427 -4.65665e-05)
(1.26 0.0521154 -6.4823e-05)
(1.24103 -0.00666514 2.02638e-05)
(1.18663 0.0557865 -7.89554e-05)
(1.11884 0.104326 -9.72255e-05)
(1.06514 0.0840558 -6.29755e-05)
(1.03121 0.0289811 -4.35783e-05)
(1.0093 -0.0117121 -3.31462e-05)
(0.994428 -0.0253208 -2.18406e-05)
(0.987212 -0.0235338 -1.20535e-05)
(0.986198 -0.0156686 -5.68762e-06)
(0.98788 -0.00952092 -3.38631e-06)
(0.990698 -0.00419579 -1.44355e-06)
(0.992962 -0.00154527 -1.0331e-06)
(0.99492 0.00048483 -9.61748e-07)
(0.996202 0.00233709 -4.779e-07)
(1.00153 -0.0418494 -0.000180125)
(1.05971 -0.125054 0.000206303)
(1.13168 -0.226413 0.000289966)
(1.38627 -0.115927 0.000392576)
(1.51525 0.0180312 0.000155826)
(1.37656 0.0814185 6.23797e-05)
(1.40381 0.126138 0.000113272)
(1.40997 0.204324 0.000268875)
(1.20131 0.144497 0.000155988)
(1.04464 0.0975967 5.1163e-06)
(1.00222 0.0780532 -1.40511e-05)
(1.01513 0.062769 5.06341e-06)
(1.03139 0.0462496 1.3677e-05)
(1.03497 0.0294571 1.36823e-05)