/*--------------------------------*- C++ -*----------------------------------*\
  =========                 |
  \\      /  F ield         | OpenFOAM: The Open Source CFD Toolbox
   \\    /   O peration     | Website:  https://openfoam.org
    \\  /    A nd           | Version:  8
     \\/     M anipulation  |
\*---------------------------------------------------------------------------*/
FoamFile
{
    version     2.0;
    format      ascii;
    class       surfaceScalarField;
    location    "15";
    object      phi;
}
// * * * * * * * * * * * * * * * * * * * * * * * * * * * * * * * * * * * * * //

dimensions      [0 3 -1 0 0 0 0];

internalField   nonuniform List<scalar> 
760
(
0.0004
-5.10643e-11
0.0004
-2.28989e-10
0.0004
-5.24092e-10
0.0004
-9.61278e-10
0.000400001
-1.57183e-09
0.000400001
-2.39353e-09
0.000400001
-3.46559e-09
0.000400002
-4.82841e-09
0.000400002
-6.52074e-09
0.000400003
-8.57594e-09
0.000400003
-1.10173e-08
0.000400004
-1.38536e-08
0.000400005
-1.70733e-08
0.000400005
-2.06424e-08
0.000400006
-2.44939e-08
0.000400007
-2.85393e-08
0.000400008
-3.26242e-08
0.000400009
-3.66326e-08
0.00040001
-4.01709e-08
-4.32376e-08
0.0004
-7.90101e-11
0.0004
-3.08918e-10
0.0004
-6.55485e-10
0.0004
-1.14191e-09
0.000400001
-1.79991e-09
0.000400001
-2.66747e-09
0.000400001
-3.78461e-09
0.000400002
-5.19223e-09
0.000400002
-6.92974e-09
0.000400002
-9.03135e-09
0.000400003
-1.15217e-08
0.000400004
-1.44109e-08
0.000400004
-1.76895e-08
0.000400005
-2.13249e-08
0.000400006
-2.52534e-08
0.000400006
-2.93876e-08
0.000400007
-3.35746e-08
0.000400008
-3.76964e-08
0.00040001
-4.13586e-08
-4.46753e-08
0.0004
-9.87636e-11
0.0004
-3.72774e-10
0.0004
-7.64769e-10
0.0004
-1.29521e-09
0.000400001
-1.99531e-09
0.000400001
-2.90286e-09
0.000400001
-4.05834e-09
0.000400001
-5.50314e-09
0.000400002
-7.27738e-09
0.000400002
-9.41646e-09
0.000400003
-1.19469e-08
0.000400003
-1.48817e-08
0.000400004
-1.8215e-08
0.000400004
-2.1919e-08
0.000400005
-2.59358e-08
0.000400006
-3.01862e-08
0.000400007
-3.45259e-08
0.000400008
-3.88533e-08
0.000400009
-4.27861e-08
-4.66223e-08
0.0004
-1.12043e-10
0.0004
-4.19376e-10
0.0004
-8.47836e-10
0.0004
-1.41458e-09
0.0004
-2.14948e-09
0.000400001
-3.08946e-09
0.000400001
-4.27481e-09
0.000400001
-5.74718e-09
0.000400001
-7.54752e-09
0.000400002
-9.71296e-09
0.000400002
-1.22729e-08
0.000400002
-1.52451e-08
0.000400003
-1.86299e-08
0.000400003
-2.24079e-08
0.000400004
-2.6532e-08
0.000400005
-3.0937e-08
0.000400006
-3.54961e-08
0.000400007
-4.01306e-08
0.000400009
-4.44806e-08
-4.90302e-08
0.0004
-1.21402e-10
0.0004
-4.52642e-10
0.0004
-9.08009e-10
0.0004
-1.50187e-09
0.0004
-2.26236e-09
0.0004
-3.2252e-09
0.000400001
-4.43002e-09
0.000400001
-5.91854e-09
0.000400001
-7.73268e-09
0.000400001
-9.91189e-09
0.000400001
-1.24897e-08
0.000400002
-1.54903e-08
0.000400002
-1.89234e-08
0.000400002
-2.27816e-08
0.000400003
-2.70334e-08
0.000400003
-3.16329e-08
0.000400004
-3.64787e-08
0.000400006
-4.1518e-08
0.000400008
-4.64205e-08
-5.1865e-08
0.0004
-1.28068e-10
0.0004
-4.75863e-10
0.0004
-9.49634e-10
0.0004
-1.56141e-09
0.0004
-2.33776e-09
0.0004
-3.31306e-09
0.0004
-4.52606e-09
0.0004
-6.01849e-09
0.000400001
-7.8334e-09
0.000400001
-1.00132e-08
0.000400001
-1.25968e-08
0.000400001
-1.56166e-08
0.000400001
-1.90941e-08
0.000400001
-2.30379e-08
0.000400002
-2.74365e-08
0.000400002
-3.22675e-08
0.000400003
-3.74615e-08
0.000400005
-4.29935e-08
0.000400007
-4.85689e-08
-5.50709e-08
0.0004
-1.32582e-10
0.0004
-4.91442e-10
0.0004
-9.76547e-10
0.0004
-1.59795e-09
0.0004
-2.38093e-09
0.0004
-3.35851e-09
0.0004
-4.56857e-09
0.0004
-6.05286e-09
0.0004
-7.85581e-09
0.0004
-1.00234e-08
0.0004
-1.26009e-08
0.0004
-1.56306e-08
0.0004
-1.91482e-08
0.0004
-2.31811e-08
0.000400001
-2.7742e-08
0.000400001
-3.28352e-08
0.000400002
-3.84283e-08
0.000400004
-4.4526e-08
0.000400006
-5.08738e-08
-5.85664e-08
0.0004
-1.35237e-10
0.0004
-5.01028e-10
0.0004
-9.91663e-10
0.0004
-1.61561e-09
0.0004
-2.39696e-09
0.0004
-3.36762e-09
0.0004
-4.56461e-09
0.0004
-6.02981e-09
0.0004
-7.80921e-09
0.0004
-9.95276e-09
0.0004
-1.25132e-08
0.0004
-1.5544e-08
0.0004
-1.90965e-08
0.0004
-2.32195e-08
0.0004
-2.7953e-08
0.0004
-3.33304e-08
0.000400001
-3.93601e-08
0.000400003
-4.60774e-08
0.000400005
-5.32709e-08
-6.22535e-08
0.0004
-1.36263e-10
0.0004
-5.05615e-10
0.0004
-9.96977e-10
0.0004
-1.61744e-09
0.0004
-2.39011e-09
0.0004
-3.34595e-09
0.0004
-4.52123e-09
0.0004
-5.958e-09
0.0004
-7.70402e-09
0.0004
-9.81355e-09
0.000399999
-1.23473e-08
0.000399999
-1.53708e-08
0.000399999
-1.89525e-08
0.000399999
-2.31638e-08
0.000399999
-2.80739e-08
0.0004
-3.37477e-08
0.0004
-4.02359e-08
0.000400002
-4.7605e-08
0.000400004
-5.56892e-08
-6.60238e-08
0.0004
-1.35808e-10
0.0004
-5.05693e-10
0.0004
-9.93654e-10
0.0004
-1.60544e-09
0.0004
-2.36352e-09
0.0004
-3.29805e-09
0.0004
-4.44462e-09
0.0004
-5.8455e-09
0.0004
-7.55035e-09
0.000399999
-9.61789e-09
0.000399999
-1.2117e-08
0.000399999
-1.51258e-08
0.000399999
-1.87304e-08
0.000399999
-2.30254e-08
0.000399999
-2.811e-08
0.000399999
-3.40815e-08
0.0004
-4.10337e-08
0.000400001
-4.90648e-08
0.000400004
-5.80541e-08
-6.9763e-08
0.0004
-1.33882e-10
0.0004
-5.01396e-10
0.0004
-9.82144e-10
0.0004
-1.5807e-09
0.0004
-2.31922e-09
0.0004
-3.22723e-09
0.0004
-4.33968e-09
0.0004
-5.69912e-09
0.000399999
-7.35713e-09
0.000399999
-9.37687e-09
0.000399999
-1.18352e-08
0.000399999
-1.48231e-08
0.000399998
-1.84437e-08
0.000399998
-2.28152e-08
0.000399998
-2.80662e-08
0.000399998
-3.43264e-08
0.000399999
-4.17321e-08
0.0004
-5.04132e-08
0.000400003
-6.02924e-08
-7.33579e-08
0.0004
-1.30452e-10
0.0004
-4.92529e-10
0.0004
-9.62253e-10
0.0004
-1.54342e-09
0.0004
-2.25818e-09
0.0004
-3.1355e-09
0.0004
-4.20988e-09
0.000399999
-5.52411e-09
0.000399999
-7.13163e-09
0.000399999
-9.09987e-09
0.000399999
-1.15134e-08
0.000399998
-1.44751e-08
0.000399998
-1.81051e-08
0.000399998
-2.25437e-08
0.000399998
-2.79477e-08
0.000399998
-3.44782e-08
0.000399998
-4.2312e-08
0.0004
-5.16107e-08
0.000400002
-6.23363e-08
-7.67026e-08
0.0004
-1.25528e-10
0.0004
-4.78547e-10
0.0004
-9.33182e-10
0.0004
-1.49299e-09
0.0004
-2.18031e-09
0.0004
-3.02365e-09
0.0004
-4.05722e-09
0.000399999
-5.32407e-09
0.000399999
-6.87935e-09
0.000399999
-8.79443e-09
0.000399998
-1.11609e-08
0.000399998
-1.40928e-08
0.000399998
-1.77258e-08
0.000399997
-2.22207e-08
0.000399997
-2.77602e-08
0.000399997
-3.45347e-08
0.000399998
-4.27587e-08
0.000399999
-5.26248e-08
0.0004
-6.41284e-08
-7.97061e-08
0.0004
-1.19129e-10
0.0004
-4.58565e-10
0.0004
-8.93577e-10
0.0004
-1.42804e-09
0.0004
-2.08456e-09
0.0004
-2.89135e-09
0.000399999
-3.88246e-09
0.000399999
-5.10119e-09
0.000399999
-6.60423e-09
0.000399999
-8.46648e-09
0.000399998
-1.07858e-08
0.000399998
-1.3686e-08
0.000399997
-1.73165e-08
0.000399997
-2.18564e-08
0.000399997
-2.75115e-08
0.000399997
-3.44981e-08
0.000399997
-4.30647e-08
0.000399998
-5.3434e-08
0.000399999
-6.56269e-08
-8.22987e-08
0.0004
-1.11181e-10
0.0004
-4.31373e-10
0.0004
-8.41546e-10
0.0004
-1.34646e-09
0.0004
-1.96907e-09
0.0004
-2.73738e-09
0.000399999
-3.6854e-09
0.000399999
-4.85667e-09
0.000399999
-6.30918e-09
0.000399998
-8.12089e-09
0.000399998
-1.03951e-08
0.000399998
-1.32637e-08
0.000399997
-1.6888e-08
0.000399997
-2.14625e-08
0.000399997
-2.72126e-08
0.000399996
-3.43768e-08
0.000399997
-4.32323e-08
0.000399997
-5.40312e-08
0.000399998
-6.68103e-08
-8.44374e-08
0.0004
-1.01401e-10
0.0004
-3.95367e-10
0.0004
-7.74702e-10
0.0004
-1.24569e-09
0.0004
-1.83161e-09
0.000399999
-2.5603e-09
0.000399999
-3.46571e-09
0.000399999
-4.59153e-09
0.000399999
-5.99683e-09
0.000399998
-7.76219e-09
0.000399998
-9.99543e-09
0.000399997
-1.28352e-08
0.000399997
-1.64521e-08
0.000399997
-2.10524e-08
0.000399996
-2.68784e-08
0.000399996
-3.41863e-08
0.000399996
-4.32754e-08
0.000399997
-5.44262e-08
0.000399997
-6.76812e-08
-8.61104e-08
0.0004
-8.89128e-11
0.0004
-3.48385e-10
0.0004
-6.90398e-10
0.0004
-1.1234e-09
0.0004
-1.67055e-09
0.000399999
-2.35949e-09
0.000399999
-3.22391e-09
0.000399999
-4.30756e-09
0.000399999
-5.67036e-09
0.000399998
-7.39524e-09
0.000399998
-9.59388e-09
0.000399997
-1.241e-08
0.000399997
-1.6021e-08
0.000399996
-2.06416e-08
0.000399996
-2.65276e-08
0.000399996
-3.39492e-08
0.000399996
-4.32193e-08
0.000399996
-5.46452e-08
0.000399997
-6.8266e-08
-8.73397e-08
0.0004
-7.14132e-11
0.0004
-2.87838e-10
0.0004
-5.86777e-10
0.0004
-9.78908e-10
0.000399999
-1.48645e-09
0.000399999
-2.1366e-09
0.000399999
-2.9626e-09
0.000399999
-4.00811e-09
0.000399998
-5.3339e-09
0.000399998
-7.02516e-09
0.000399998
-9.1969e-09
0.000399997
-1.19964e-08
0.000399997
-1.5606e-08
0.000399996
-2.02455e-08
0.000399996
-2.61797e-08
0.000399996
-3.36909e-08
0.000399996
-4.30986e-08
0.000399996
-5.47297e-08
0.000399996
-6.86125e-08
-8.81747e-08
0.0004
-4.67509e-11
0.0004
-2.1428e-10
0.0004
-4.66774e-10
0.0004
-8.16643e-10
0.000399999
-1.28463e-09
0.000399999
-1.89785e-09
0.000399999
-2.68891e-09
0.000399999
-3.70019e-09
0.000399998
-4.99232e-09
0.000399998
-6.65399e-09
0.000399997
-8.80579e-09
0.000399997
-1.15968e-08
0.000399997
-1.52093e-08
0.000399996
-1.98686e-08
0.000399996
-2.58468e-08
0.000399996
-3.34328e-08
0.000399996
-4.29482e-08
0.000399996
-5.47285e-08
0.000399996
-6.87925e-08
-8.86767e-08
0.0004
0.0004
0.0004
0.0004
0.000399999
0.000399999
0.000399999
0.000399999
0.000399998
0.000399998
0.000399997
0.000399997
0.000399997
0.000399996
0.000399996
0.000399996
0.000399996
0.000399996
0.000399996
)
;

boundaryField
{
    inlet
    {
        type            calculated;
        value           nonuniform List<scalar> 
20
(
-0.0004
-0.0004
-0.0004
-0.0004
-0.0004
-0.0004
-0.0004
-0.0004
-0.0004
-0.0004
-0.0004
-0.0004
-0.0004
-0.0004
-0.0004
-0.0004
-0.0004
-0.0004
-0.0004
-0.0004
)
;
    }
    outlet
    {
        type            calculated;
        value           nonuniform List<scalar> 
20
(
0.000400011
0.000400011
0.000400011
0.000400011
0.000400011
0.00040001
0.00040001
0.000400009
0.000400008
0.000400007
0.000400006
0.000400005
0.000400003
0.000400002
0.000400001
0.000399999
0.000399998
0.000399997
0.000399996
0.000399996
)
;
    }
    up
    {
        type            calculated;
        value           nonuniform List<scalar> 
20
(
-1.50086e-11
-1.29098e-10
-3.38733e-10
-6.47378e-10
-1.0758e-09
-1.65121e-09
-2.40703e-09
-3.38663e-09
-4.65076e-09
-6.28754e-09
-8.41959e-09
-1.12033e-08
-1.48258e-08
-1.95092e-08
-2.55273e-08
-3.31828e-08
-4.27908e-08
-5.47043e-08
-6.88767e-08
-8.8972e-08
)
;
    }
    down
    {
        type            calculated;
        value           nonuniform List<scalar> 
20
(
1.38568e-11
1.33775e-10
3.81698e-10
7.70164e-10
1.33114e-09
2.10295e-09
3.12478e-09
4.43665e-09
6.07724e-09
8.07955e-09
1.04657e-08
1.32437e-08
1.64014e-08
1.99043e-08
2.36845e-08
2.7651e-08
3.16644e-08
3.55889e-08
3.91468e-08
4.22001e-08
)
;
    }
    frontAndBack
    {
        type            empty;
        value           nonuniform List<scalar> 0();
    }
}


// ************************************************************************* //
