/*--------------------------------*- C++ -*----------------------------------*\
  =========                 |
  \\      /  F ield         | OpenFOAM: The Open Source CFD Toolbox
   \\    /   O peration     | Website:  https://openfoam.org
    \\  /    A nd           | Version:  8
     \\/     M anipulation  |
\*---------------------------------------------------------------------------*/
FoamFile
{
    version     2.0;
    format      ascii;
    class       volScalarField;
    location    "0.679";
    object      T;
}
// * * * * * * * * * * * * * * * * * * * * * * * * * * * * * * * * * * * * * //

dimensions      [0 0 0 1 0 0 0];

internalField   nonuniform List<scalar> 
100
(
49.9968
4.8199
-4.75071
-1.56841
1.25878
0.978885
-0.118904
-0.797027
-0.450751
0.145726
95.1901
49.9459
11.1255
-4.50148
-3.78717
0.460854
1.95779
1.10804
-0.627938
-0.792592
104.763
88.9415
49.9498
13.4551
-4.35077
-4.96888
-0.627927
2.76774
2.19304
-0.264588
101.565
104.646
86.4239
49.8923
15.1719
-3.27888
-6.11031
-2.54736
2.16171
2.36305
98.6924
103.965
104.344
84.6525
49.7565
16.5118
-1.68162
-6.93604
-3.58253
0.477172
99.0366
99.037
105.383
103.999
84.1452
48.7401
17.5547
-1.85696
-6.88794
-1.34151
100.132
98.0172
100.604
106.133
101.775
82.411
49.974
22.4469
-0.998204
-8.33651
100.876
98.5279
97.3144
102.946
107.81
100.395
77.401
49.1906
24.1789
6.10341
100.443
101.582
96.9487
96.429
102.466
111.793
101.022
78.4133
45.183
8.61958
99.7964
101.172
100.104
97.1705
98.7611
102.98
108.467
95.3705
88.362
49.2834
)
;

boundaryField
{
    left
    {
        type            fixedValue;
        value           uniform 100;
    }
    right
    {
        type            zeroGradient;
    }
    up
    {
        type            zeroGradient;
    }
    down
    {
        type            fixedValue;
        value           uniform 0;
    }
    frontAndBack
    {
        type            empty;
    }
}


// ************************************************************************* //
