/*--------------------------------*- C++ -*----------------------------------*\
  =========                 |
  \\      /  F ield         | OpenFOAM: The Open Source CFD Toolbox
   \\    /   O peration     | Website:  https://openfoam.org
    \\  /    A nd           | Version:  8
     \\/     M anipulation  |
\*---------------------------------------------------------------------------*/
FoamFile
{
    version     2.0;
    format      ascii;
    class       volScalarField;
    location    "0.445";
    object      p;
}
// * * * * * * * * * * * * * * * * * * * * * * * * * * * * * * * * * * * * * //

dimensions      [0 2 -2 0 0 0 0];

internalField   nonuniform List<scalar> 
400
(
4.30783e-06
-0.00582246
-0.0129601
-0.0184123
-0.0204298
-0.0182361
-0.0117716
-0.00148155
0.0118393
0.0271509
0.043246
0.0588244
0.07258
0.0833097
0.0900541
0.0922683
0.0900272
0.0842455
0.0768824
0.071069
0.0057832
-0.000215769
-0.00580155
-0.0095402
-0.0105967
-0.00843052
-0.00296783
0.00547613
0.0163048
0.0287134
0.0417514
0.0543875
0.0655879
0.0744114
0.0801218
0.0823174
0.081079
0.0770566
0.071276
0.0653199
0.0133373
0.00503587
-0.000993103
-0.00442094
-0.00527082
-0.00326192
0.00160426
0.00902942
0.0185038
0.029351
0.0407671
0.0518712
0.0617701
0.069638
0.0748087
0.0768798
0.0758435
0.0720878
0.0658075
0.0575376
0.0201413
0.00869796
0.00122793
-0.00266646
-0.0037201
-0.00188339
0.0027331
0.00978632
0.0187821
0.0290967
0.0399937
0.0506557
0.0602346
0.0679176
0.0730049
0.0750033
0.0737677
0.0694581
0.0616051
0.0501048
0.0245037
0.00977502
0.000591773
-0.00398488
-0.00530022
-0.00350539
0.00117658
0.00833631
0.0174637
0.0279508
0.0390867
0.0500717
0.0600506
0.0681668
0.0736281
0.0757995
0.0743709
0.0692918
0.0595278
0.0445395
0.0251796
0.00715192
-0.00380003
-0.00905516
-0.0105101
-0.00849793
-0.00335484
0.00443129
0.0143151
0.0256808
0.0378156
0.0499051
0.0610499
0.070305
0.0767365
0.0795187
0.0781409
0.0723356
0.0605416
0.0418926
0.0210952
-0.000260429
-0.0129325
-0.0187072
-0.0200277
-0.0174117
-0.0113162
-0.00231761
0.00899242
0.0219781
0.0359116
0.0499463
0.0631141
0.0743473
0.0825238
0.0865714
0.0857227
0.0794492
0.0656227
0.0430743
0.0111447
-0.0136161
-0.0278729
-0.033852
-0.0346013
-0.0308552
-0.0232105
-0.0123428
0.00110711
0.0164861
0.0330546
0.0499357
0.0660855
0.080292
0.0912028
0.0974321
0.0978724
0.0916382
0.0758986
0.0491191
-0.00596505
-0.0342642
-0.0498677
-0.0555463
-0.0550878
-0.0495121
-0.039591
-0.0261107
-0.00975455
0.00882547
0.0289034
0.0495958
0.0697998
0.0881568
0.10305
0.112703
0.115553
0.110194
0.0928366
0.061414
-0.0318547
-0.0638737
-0.0804144
-0.0850047
-0.0824176
-0.0740757
-0.0609782
-0.0440338
-0.0239487
-0.00133412
0.0231483
0.0486636
0.0740981
0.0979747
0.118398
0.133128
0.139991
0.13682
0.118443
0.0819362
-0.0686646
-0.104601
-0.121342
-0.123587
-0.117513
-0.105124
-0.0877155
-0.0663226
-0.041634
-0.0141526
0.0156085
0.0469561
0.0788585
0.109796
0.137626
0.159588
0.172729
0.173781
0.155523
0.113573
-0.119399
-0.159354
-0.174912
-0.172754
-0.161145
-0.142926
-0.119756
-0.092774
-0.0625743
-0.0294444
0.00637636
0.0444767
0.0840582
0.123706
0.161139
0.193089
0.215671
0.22408
0.208053
0.160635
-0.188625
-0.232239
-0.243935
-0.233945
-0.213691
-0.187151
-0.156369
-0.122498
-0.0858946
-0.0464688
-0.00401099
0.0415423
0.0898455
0.139832
0.189322
0.234692
0.271077
0.291667
0.281745
0.229778
-0.28397
-0.329301
-0.331828
-0.308276
-0.274705
-0.236436
-0.195761
-0.153606
-0.109836
-0.0637415
-0.0144341
0.0388672
0.096558
0.15828
0.222378
0.285291
0.3414
0.381578
0.384917
0.331837
-0.419314
-0.459667
-0.442347
-0.395788
-0.342125
-0.287736
-0.234612
-0.182926
-0.131605
-0.0789808
-0.0232099
0.0374794
0.104557
0.178842
0.259865
0.344974
0.42862
0.499703
0.529678
0.485394
-0.620527
-0.636739
-0.578673
-0.494189
-0.411237
-0.335654
-0.267776
-0.205973
-0.147532
-0.0893784
-0.0284215
0.0383528
0.113811
0.200476
0.299979
0.412029
0.533033
0.651779
0.732775
0.722399
-0.935919
-0.87851
-0.741737
-0.597944
-0.474389
-0.372655
-0.288864
-0.217758
-0.153949
-0.092459
-0.0287124
0.0417005
0.123268
0.220723
0.33893
0.482159
0.652001
0.841346
1.01527
1.09751
-1.47642
-1.20663
-0.920499
-0.691384
-0.517301
-0.38754
-0.290057
-0.213333
-0.148119
-0.0872106
-0.0245726
0.0454625
0.128942
0.233076
0.367108
0.542683
0.771297
1.05932
1.40329
1.73014
-2.53964
-1.63054
-1.04443
-0.710955
-0.495746
-0.352089
-0.254527
-0.183579
-0.126165
-0.0735904
-0.0192641
0.0427919
0.119217
0.218788
0.354817
0.547988
0.826397
1.23659
1.91168
2.9242
-4.36666
-2.04463
-0.973538
-0.563177
-0.357842
-0.240143
-0.170115
-0.123779
-0.087477
-0.0535057
-0.0166496
0.0276657
0.0846126
0.161735
0.272416
0.442104
0.718224
1.22571
2.41104
4.84854
)
;

boundaryField
{
    movingWall
    {
        type            zeroGradient;
    }
    fixedWalls
    {
        type            zeroGradient;
    }
    frontAndBack
    {
        type            empty;
    }
}


// ************************************************************************* //
