/*--------------------------------*- C++ -*----------------------------------*\
  =========                 |
  \\      /  F ield         | OpenFOAM: The Open Source CFD Toolbox
   \\    /   O peration     | Website:  https://openfoam.org
    \\  /    A nd           | Version:  8
     \\/     M anipulation  |
\*---------------------------------------------------------------------------*/
FoamFile
{
    version     2.0;
    format      ascii;
    class       surfaceScalarField;
    location    "0.445";
    object      phi;
}
// * * * * * * * * * * * * * * * * * * * * * * * * * * * * * * * * * * * * * //

dimensions      [0 3 -1 0 0 0 0];

internalField   nonuniform List<scalar> 
760
(
1.42322e-08
-1.42684e-08
-2.22114e-08
3.64437e-08
-1.14274e-07
9.20625e-08
-2.45503e-07
1.31229e-07
-3.96114e-07
1.5061e-07
-5.47387e-07
1.51274e-07
-6.83216e-07
1.3583e-07
-7.90692e-07
1.07476e-07
-8.60238e-07
6.95459e-08
-8.85672e-07
2.54338e-08
-8.64349e-07
-2.1323e-08
-7.97415e-07
-6.69342e-08
-6.90107e-07
-1.07308e-07
-5.5199e-07
-1.38117e-07
-3.96955e-07
-1.55035e-07
-2.42756e-07
-1.54199e-07
-1.09736e-07
-1.3302e-07
-1.84166e-08
-9.13199e-08
1.56901e-08
-3.41068e-08
1.56901e-08
-3.42171e-08
1.99488e-08
-1.80383e-07
1.8261e-07
-4.3401e-07
3.4569e-07
-7.64472e-07
4.61691e-07
-1.13227e-06
5.18407e-07
-1.49732e-06
5.16324e-07
-1.82343e-06
4.61939e-07
-2.08064e-06
3.64686e-07
-2.24638e-06
2.35292e-07
-2.30615e-06
8.52e-08
-2.25401e-06
-7.34668e-08
-2.09315e-06
-2.27795e-07
-1.83634e-06
-3.6411e-07
-1.50611e-06
-4.68354e-07
-1.13413e-06
-5.27013e-07
-7.59552e-07
-5.28777e-07
-4.25417e-07
-4.67156e-07
-1.72699e-07
-3.44038e-07
-3.08032e-08
-1.76002e-07
-1.51131e-08
-9.22329e-08
1.12182e-07
-3.57014e-07
4.47391e-07
-7.64595e-07
7.53271e-07
-1.26855e-06
9.65643e-07
-1.81478e-06
1.06464e-06
-2.34916e-06
1.0507e-06
-2.82256e-06
9.35348e-07
-3.19409e-06
7.3621e-07
-3.43276e-06
4.73968e-07
-3.51867e-06
1.71105e-07
-3.44372e-06
-1.48412e-07
-3.21239e-06
-4.59124e-07
-2.84222e-06
-7.3428e-07
-2.3639e-06
-9.46679e-07
-1.82039e-06
-1.07053e-06
-1.26454e-06
-1.08463e-06
-7.54551e-07
-9.77141e-07
-3.46983e-07
-7.51606e-07
-8.73392e-08
-4.35646e-07
-1.02452e-07
-1.45217e-07
2.57399e-07
-5.25484e-07
8.27657e-07
-1.08168e-06
1.30946e-06
-1.74758e-06
1.63155e-06
-2.45443e-06
1.77149e-06
-3.1365e-06
1.73277e-06
-3.73543e-06
1.53429e-06
-4.20307e-06
1.20384e-06
-4.50309e-06
7.7399e-07
-4.6121e-06
2.80116e-07
-4.52042e-06
-2.40088e-07
-4.23289e-06
-7.46661e-07
-3.7695e-06
-1.19767e-06
-3.16575e-06
-1.55043e-06
-2.47196e-06
-1.76431e-06
-1.75113e-06
-1.80546e-06
-1.07454e-06
-1.65372e-06
-5.15155e-07
-1.31099e-06
-1.3932e-07
-8.11482e-07
-2.41772e-07
-1.93617e-07
4.51015e-07
-6.85024e-07
1.31906e-06
-1.38567e-06
2.01011e-06
-2.20731e-06
2.45319e-06
-3.06556e-06
2.62974e-06
-3.8839e-06
2.5511e-06
-4.59665e-06
2.24703e-06
-5.15074e-06
1.75794e-06
-5.50662e-06
1.12986e-06
-5.63869e-06
4.12193e-07
-5.53592e-06
-3.42863e-07
-5.20252e-06
-1.08006e-06
-4.65901e-06
-1.74118e-06
-3.94306e-06
-2.26638e-06
-3.10979e-06
-2.59759e-06
-2.23056e-06
-2.68469e-06
-1.38967e-06
-2.49461e-06
-6.78516e-07
-2.02215e-06
-1.87773e-07
-1.30223e-06
-4.29545e-07
-2.39948e-07
6.90963e-07
-8.40372e-07
1.91949e-06
-1.68333e-06
2.85307e-06
-2.65713e-06
3.42699e-06
-3.66093e-06
3.63355e-06
-4.60789e-06
3.49806e-06
-5.42649e-06
3.06564e-06
-6.06072e-06
2.39217e-06
-6.46952e-06
1.53866e-06
-6.62622e-06
5.68891e-07
-6.51848e-06
-4.506e-07
-6.14895e-06
-1.44959e-06
-5.53667e-06
-2.35346e-06
-4.71903e-06
-3.08402e-06
-3.75354e-06
-3.56308e-06
-2.71854e-06
-3.7197e-06
-1.71157e-06
-3.50157e-06
-8.4468e-07
-2.88905e-06
-2.36185e-07
-1.91072e-06
-6.65729e-07
-2.86752e-07
9.77714e-07
-9.97108e-07
2.62984e-06
-1.98212e-06
3.83808e-06
-3.10501e-06
4.54987e-06
-4.24804e-06
4.77658e-06
-5.31493e-06
4.56494e-06
-6.23025e-06
3.98095e-06
-6.93732e-06
3.09924e-06
-7.39564e-06
1.99698e-06
-7.57878e-06
7.52028e-07
-7.47331e-06
-5.56066e-07
-7.07925e-06
-1.84365e-06
-6.41201e-06
-3.0207e-06
-5.50569e-06
-3.99034e-06
-4.41714e-06
-4.65162e-06
-3.22943e-06
-4.90741e-06
-2.05299e-06
-4.67801e-06
-1.02256e-06
-3.91948e-06
-2.88287e-07
-2.64499e-06
-9.54016e-07
-3.36337e-07
1.31405e-06
-1.16039e-06
3.4539e-06
-2.28805e-06
4.96575e-06
-3.55505e-06
5.81687e-06
-4.8267e-06
6.04823e-06
-5.99916e-06
5.73741e-06
-6.99614e-06
4.97794e-06
-7.76364e-06
3.86674e-06
-8.26461e-06
2.49795e-06
-8.47474e-06
9.62159e-07
-8.38009e-06
-6.5072e-07
-7.97701e-06
-2.24672e-06
-7.27468e-06
-3.72303e-06
-6.30004e-06
-4.96498e-06
-5.10475e-06
-5.84692e-06
-3.77258e-06
-6.23957e-06
-2.42492e-06
-6.02567e-06
-1.22076e-06
-5.12364e-06
-3.47713e-07
-3.51804e-06
-1.30173e-06
-3.90961e-07
1.70501e-06
-1.3349e-06
4.39784e-06
-2.605e-06
6.23585e-06
-4.00598e-06
7.21785e-06
-5.38686e-06
7.42911e-06
-6.63981e-06
6.99035e-06
-7.69251e-06
6.03063e-06
-8.49855e-06
4.67278e-06
-9.0285e-06
3.02791e-06
-9.26301e-06
1.19667e-06
-9.18873e-06
-7.24995e-07
-8.79756e-06
-2.63789e-06
-8.08944e-06
-4.43115e-06
-7.07908e-06
-5.97533e-06
-5.80638e-06
-7.11963e-06
-4.34908e-06
-7.69686e-06
-2.83484e-06
-7.53992e-06
-1.44711e-06
-6.51137e-06
-4.18102e-07
-4.54704e-06
-1.71983e-06
-4.53455e-07
2.15847e-06
-1.52569e-06
5.47007e-06
-2.93489e-06
7.64505e-06
-4.45013e-06
8.73309e-06
-5.90635e-06
8.88533e-06
-7.19785e-06
8.28185e-06
-8.2637e-06
7.09649e-06
-9.07211e-06
5.4812e-06
-9.60693e-06
3.56272e-06
-9.85765e-06
1.44739e-06
-9.81348e-06
-7.69166e-07
-9.46143e-06
-2.98994e-06
-8.78916e-06
-5.10343e-06
-7.79305e-06
-6.97144e-06
-6.49224e-06
-8.42043e-06
-4.948e-06
-9.24111e-06
-3.28513e-06
-9.20278e-06
-1.70869e-06
-8.08781e-06
-5.0359e-07
-5.75214e-06
-2.22342e-06
-5.28334e-07
2.6868e-06
-1.73965e-06
6.68139e-06
-3.27796e-06
9.18336e-06
-4.87161e-06
1.03267e-05
-6.34699e-06
1.03607e-05
-7.6108e-06
9.54566e-06
-8.62433e-06
8.11002e-06
-9.37966e-06
6.23652e-06
-9.88097e-06
4.06402e-06
-1.01315e-05
1.69794e-06
-1.01258e-05
-7.74912e-07
-9.84632e-06
-3.26938e-06
-9.26598e-06
-5.68377e-06
-8.35632e-06
-7.8811e-06
-7.10469e-06
-9.67206e-06
-5.5407e-06
-1.08051e-05
-3.7707e-06
-1.09728e-05
-2.01217e-06
-9.84635e-06
-6.09688e-07
-7.15462e-06
-2.83311e-06
-6.2366e-07
3.31046e-06
-1.98737e-06
8.04509e-06
-3.63188e-06
1.08279e-05
-5.24188e-06
1.19367e-05
-6.64751e-06
1.17663e-05
-7.78441e-06
1.06826e-05
-8.65094e-06
8.97655e-06
-9.27423e-06
6.85981e-06
-9.68646e-06
4.47625e-06
-9.90974e-06
1.92122e-06
-9.94716e-06
-7.3749e-07
-9.77852e-06
-3.43802e-06
-9.36083e-06
-6.10146e-06
-8.63557e-06
-8.60636e-06
-7.54635e-06
-1.07613e-05
-6.07156e-06
-1.22799e-05
-4.27425e-06
-1.27701e-05
-2.36364e-06
-1.1757e-05
-7.44775e-07
-8.77348e-06
-3.57788e-06
-7.54068e-07
4.06453e-06
-2.28432e-06
9.57535e-06
-3.98696e-06
1.25305e-05
-5.50903e-06
1.34588e-05
-6.70952e-06
1.29668e-05
-7.57846e-06
1.15515e-05
-8.16994e-06
9.56803e-06
-8.55751e-06
7.24738e-06
-8.80761e-06
4.72635e-06
-8.96493e-06
2.07854e-06
-9.04426e-06
-6.58166e-07
-9.02565e-06
-3.45663e-06
-8.85251e-06
-6.2746e-06
-8.43475e-06
-9.02411e-06
-7.66286e-06
-1.15332e-05
-6.44197e-06
-1.35008e-05
-4.75623e-06
-1.44558e-05
-2.76674e-06
-1.37465e-05
-9.22431e-07
-1.06178e-05
-4.50031e-06
-9.45196e-07
5.00973e-06
-2.64846e-06
1.12786e-05
-4.31093e-06
1.4193e-05
-5.57321e-06
1.47211e-05
-6.37057e-06
1.37642e-05
-6.78313e-06
1.19641e-05
-6.94033e-06
9.72523e-06
-6.96954e-06
7.27659e-06
-6.97257e-06
4.72939e-06
-7.01629e-06
2.12226e-06
-7.1284e-06
-5.46058e-07
-7.29357e-06
-3.29146e-06
-7.44847e-06
-6.1197e-06
-7.47775e-06
-8.99484e-06
-7.21783e-06
-1.17931e-05
-6.48268e-06
-1.42359e-05
-5.13339e-06
-1.58051e-05
-3.21496e-06
-1.56649e-05
-1.16438e-06
-1.26684e-05
-5.66469e-06
-1.2373e-06
6.24703e-06
-3.08326e-06
1.31246e-05
-4.50764e-06
1.56174e-05
-5.23438e-06
1.54478e-05
-5.35508e-06
1.38849e-05
-5.08166e-06
1.16906e-05
-4.63069e-06
9.27426e-06
-4.17903e-06
6.82493e-06
-3.85411e-06
4.40447e-06
-3.73677e-06
2.00492e-06
-3.86488e-06
-4.17945e-07
-4.23241e-06
-2.92393e-06
-4.78188e-06
-5.57023e-06
-5.3909e-06
-8.38582e-06
-5.85836e-06
-1.13256e-05
-5.90648e-06
-1.41878e-05
-5.23276e-06
-1.64788e-05
-3.66624e-06
-1.72314e-05
-1.50007e-06
-1.48345e-05
-7.16477e-06
-1.6738e-06
7.92083e-06
-3.51333e-06
1.49641e-05
-4.31524e-06
1.64193e-05
-4.08877e-06
1.52214e-05
-3.19291e-06
1.2989e-05
-1.99856e-06
1.04963e-05
-7.94937e-07
8.07063e-06
2.19568e-07
5.81043e-06
9.18479e-07
3.70556e-06
1.22586e-06
1.69754e-06
1.10231e-06
-2.94398e-07
5.4129e-07
-2.36291e-06
-4.22726e-07
-4.60621e-06
-1.6924e-06
-7.11614e-06
-3.07228e-06
-9.94576e-06
-4.23073e-06
-1.30294e-05
-4.69559e-06
-1.6014e-05
-3.96715e-06
-1.79598e-05
-1.94492e-06
-1.68568e-05
-9.10968e-06
-2.23068e-06
1.01515e-05
-3.59027e-06
1.63237e-05
-3.07773e-06
1.59067e-05
-1.34379e-06
1.34874e-05
8.97152e-07
1.07481e-05
3.15512e-06
8.23833e-06
5.1383e-06
6.08745e-06
6.6889e-06
4.25983e-06
7.72605e-06
2.6684e-06
8.20678e-06
1.21682e-06
8.10411e-06
-1.91728e-07
7.39924e-06
-1.65804e-06
6.08704e-06
-3.29401e-06
4.19934e-06
-5.22844e-06
1.85427e-06
-7.60069e-06
-6.61629e-07
-1.05135e-05
-2.79212e-06
-1.38835e-05
-3.66206e-06
-1.70899e-05
-2.41153e-06
-1.81073e-05
-1.15212e-05
-2.57381e-06
1.27253e-05
-2.18344e-06
1.59333e-05
7.18102e-07
1.30052e-05
4.46962e-06
9.7359e-06
8.13337e-06
7.08433e-06
1.13017e-05
5.07002e-06
1.38292e-05
3.55991e-06
1.56882e-05
2.4008e-06
1.68918e-05
1.46481e-06
1.74551e-05
6.53607e-07
1.73765e-05
-1.13206e-07
1.66307e-05
-9.12165e-07
1.51673e-05
-1.83068e-06
1.29236e-05
-2.98475e-06
9.86184e-06
-4.5389e-06
6.06203e-06
-6.71365e-06
1.91238e-06
-9.73382e-06
-1.55961e-06
-1.36179e-05
-2.45833e-06
-1.72086e-05
-1.39795e-05
-7.85014e-07
1.35103e-05
4.0808e-06
1.10675e-05
1.02976e-05
6.78843e-06
1.57937e-05
4.2398e-06
2.01581e-05
2.71992e-06
2.34581e-05
1.76995e-06
2.58609e-05
1.15715e-06
2.75216e-05
7.40059e-07
2.85542e-05
4.32297e-07
2.90265e-05
1.81222e-07
2.89623e-05
-4.89831e-08
2.83389e-05
-2.88703e-07
2.70819e-05
-5.73746e-07
2.50551e-05
-9.57962e-07
2.20518e-05
-1.53553e-06
1.78155e-05
-2.47742e-06
1.21724e-05
-4.09069e-06
5.47773e-06
-6.92325e-06
-1.29167e-07
-1.16017e-05
-1.41087e-05
1.35103e-05
2.45778e-05
3.13663e-05
3.56061e-05
3.8326e-05
4.00959e-05
4.12531e-05
4.19932e-05
4.24254e-05
4.26067e-05
4.25577e-05
4.2269e-05
4.16952e-05
4.07373e-05
3.92017e-05
3.67243e-05
3.26336e-05
2.57104e-05
1.41087e-05
)
;

boundaryField
{
    movingWall
    {
        type            calculated;
        value           uniform 0;
    }
    fixedWalls
    {
        type            calculated;
        value           uniform 0;
    }
    frontAndBack
    {
        type            empty;
        value           nonuniform List<scalar> 0();
    }
}


// ************************************************************************* //
