/*--------------------------------*- C++ -*----------------------------------*\
  =========                 |
  \\      /  F ield         | OpenFOAM: The Open Source CFD Toolbox
   \\    /   O peration     | Website:  https://openfoam.org
    \\  /    A nd           | Version:  8
     \\/     M anipulation  |
\*---------------------------------------------------------------------------*/
FoamFile
{
    version     2.0;
    format      ascii;
    class       volVectorField;
    location    "0.445";
    object      U;
}
// * * * * * * * * * * * * * * * * * * * * * * * * * * * * * * * * * * * * * //

dimensions      [0 1 -1 0 0 0 0];

internalField   nonuniform List<vector> 
400
(
(0.000253401 -0.000250452 0)
(0.000141202 0.000111422 0)
(-0.00117703 0.000564614 0)
(-0.00348123 0.000885005 0)
(-0.00637771 0.00104573 0)
(-0.00946982 0.00106177 0)
(-0.0124034 0.000957875 0)
(-0.0148855 0.00076046 0)
(-0.0166902 0.000494659 0)
(-0.017659 0.000184565 0)
(-0.0177029 -0.000145276 0)
(-0.0168058 -0.000468385 0)
(-0.0150307 -0.000755442 0)
(-0.0125256 -0.0009743 0)
(-0.00952675 -0.00109123 0)
(-0.00635521 -0.00107405 0)
(-0.00340075 -0.000898153 0)
(-0.00108646 -0.000556407 0)
(0.00019644 -9.03661e-05 0)
(0.000267871 0.000262397 0)
(-7.74737e-05 -0.000169392 0)
(-0.00161164 0.00164488 0)
(-0.00569317 0.00361745 0)
(-0.0117194 0.00503504 0)
(-0.0188932 0.00574349 0)
(-0.0264021 0.00576047 0)
(-0.0334709 0.00517192 0)
(-0.0394289 0.00409271 0)
(-0.0437463 0.00264776 0)
(-0.0460496 0.000966965 0)
(-0.046132 -0.000813277 0)
(-0.0439637 -0.00254722 0)
(-0.0397033 -0.00407886 0)
(-0.0337045 -0.00524538 0)
(-0.0265147 -0.00588687 0)
(-0.0188555 -0.00586515 0)
(-0.0115672 -0.005095 0)
(-0.00551354 -0.00358958 0)
(-0.00149315 -0.00155919 0)
(-4.2578e-05 0.000227476 0)
(-0.000528638 0.00109167 0)
(-0.0037116 0.00573656 0)
(-0.0105895 0.010225 0)
(-0.0199928 0.0134083 0)
(-0.0307666 0.0149471 0)
(-0.0418247 0.0148396 0)
(-0.0521229 0.0132564 0)
(-0.0607478 0.0104567 0)
(-0.0669734 0.00674233 0)
(-0.0702869 0.00243896 0)
(-0.0704048 -0.0021067 0)
(-0.0672883 -0.00652586 0)
(-0.0611559 -0.0104298 0)
(-0.0524915 -0.0134218 0)
(-0.0420394 -0.0151243 0)
(-0.0307756 -0.0152264 0)
(-0.0198301 -0.0135567 0)
(-0.0103641 -0.0101794 0)
(-0.00354869 -0.00555132 0)
(-0.000476866 -0.000948863 0)
(-0.000928278 0.00348002 0)
(-0.00569182 0.0122213 0)
(-0.0153027 0.0199227 0)
(-0.0279184 0.0251991 0)
(-0.0419878 0.0275984 0)
(-0.0561823 0.0271389 0)
(-0.0692561 0.0241102 0)
(-0.0801304 0.0189548 0)
(-0.0879534 0.0121961 0)
(-0.0921242 0.00440523 0)
(-0.0923088 -0.00380827 0)
(-0.0884552 -0.0117973 0)
(-0.0808095 -0.0188832 0)
(-0.0699268 -0.0243776 0)
(-0.0566723 -0.0276291 0)
(-0.0421971 -0.0281032 0)
(-0.027858 -0.0254989 0)
(-0.0150944 -0.0198926 0)
(-0.00550531 -0.0119282 0)
(-0.000861641 -0.003225 0)
(-0.001279 0.00687814 0)
(-0.00753644 0.0209547 0)
(-0.0198059 0.032512 0)
(-0.0355368 0.0401052 0)
(-0.0527463 0.0432924 0)
(-0.0698624 0.0421948 0)
(-0.0854681 0.0372793 0)
(-0.0983659 0.0292144 0)
(-0.107626 0.018778 0)
(-0.112594 0.00681392 0)
(-0.112903 -0.00578083 0)
(-0.10848 -0.0180558 0)
(-0.0995673 -0.0290129 0)
(-0.0867436 -0.0376346 0)
(-0.0709392 -0.0429471 0)
(-0.0534329 -0.0441309 0)
(-0.0357863 -0.0406805 0)
(-0.019736 -0.0325938 0)
(-0.00737092 -0.0205914 0)
(-0.00120373 -0.00649841 0)
(-0.0016076 0.0112161 0)
(-0.00931843 0.0318759 0)
(-0.0242103 0.0479539 0)
(-0.0430045 0.0580744 0)
(-0.0632597 0.0619397 0)
(-0.0831565 0.0598836 0)
(-0.101128 0.0526304 0)
(-0.115897 0.0411274 0)
(-0.126493 0.026438 0)
(-0.132243 0.00969308 0)
(-0.132755 -0.00791688 0)
(-0.127928 -0.0251334 0)
(-0.117971 -0.0406268 0)
(-0.103438 -0.0530215 0)
(-0.085272 -0.0609686 0)
(-0.0648378 -0.0632824 0)
(-0.043887 -0.0591441 0)
(-0.0244785 -0.048346 0)
(-0.00925461 -0.0315586 0)
(-0.0015378 -0.0107289 0)
(-0.00194011 0.0164777 0)
(-0.0111215 0.0449757 0)
(-0.0286512 0.0662355 0)
(-0.0504812 0.079062 0)
(-0.0736869 0.083449 0)
(-0.0962063 0.0800767 0)
(-0.116355 0.0700265 0)
(-0.132818 0.0545865 0)
(-0.144635 0.0351326 0)
(-0.151145 0.0130849 0)
(-0.151953 -0.0100871 0)
(-0.146919 -0.0328339 0)
(-0.136184 -0.0535016 0)
(-0.120226 -0.0703392 0)
(-0.0999348 -0.0815678 0)
(-0.076703 -0.0855352 0)
(-0.0524412 -0.0809659 0)
(-0.0295454 -0.0672788 0)
(-0.0112838 -0.0449407 0)
(-0.00190012 -0.015952 0)
(-0.00230007 0.0226955 0)
(-0.0130252 0.0603024 0)
(-0.0332512 0.0873657 0)
(-0.0580804 0.102999 0)
(-0.0840757 0.107668 0)
(-0.108955 0.102564 0)
(-0.130969 0.0892462 0)
(-0.148836 0.0694124 0)
(-0.161668 0.0447725 0)
(-0.16887 0.01702 0)
(-0.170065 -0.0121342 0)
(-0.165073 -0.0408945 0)
(-0.153932 -0.0673162 0)
(-0.136971 -0.0892755 0)
(-0.114944 -0.104514 0)
(-0.0891767 -0.110799 0)
(-0.0616712 -0.106215 0)
(-0.0351487 -0.0895812 0)
(-0.013586 -0.0609506 0)
(-0.00232636 -0.022278 0)
(-0.00271165 0.0299475 0)
(-0.015108 0.0779578 0)
(-0.0381148 0.111358 0)
(-0.0658485 0.129752 0)
(-0.094327 0.134319 0)
(-0.121099 0.126976 0)
(-0.144444 0.109904 0)
(-0.163214 0.0852831 0)
(-0.176688 0.0551679 0)
(-0.184407 0.021487 0)
(-0.186058 -0.0138753 0)
(-0.181422 -0.0489578 0)
(-0.170395 -0.0815951 0)
(-0.153081 -0.109326 0)
(-0.129971 -0.129383 0)
(-0.102186 -0.13883 0)
(-0.0716896 -0.134889 0)
(-0.041467 -0.115471 0)
(-0.0162881 -0.0798964 0)
(-0.0028547 -0.02989 0)
(-0.00320765 0.03836 0)
(-0.0174662 0.0980903 0)
(-0.043341 0.13819 0)
(-0.0737565 0.159047 0)
(-0.10416 0.162903 0)
(-0.132032 0.152674 0)
(-0.155825 0.131343 0)
(-0.174679 0.101641 0)
(-0.188168 0.0659583 0)
(-0.196068 0.0263896 0)
(-0.198186 -0.0151132 0)
(-0.194284 -0.0565464 0)
(-0.184081 -0.0956435 0)
(-0.167366 -0.129691 0)
(-0.144215 -0.155425 0)
(-0.115339 -0.169099 0)
(-0.0824458 -0.166804 0)
(-0.0486361 -0.145125 0)
(-0.0195287 -0.102161 0)
(-0.00353357 -0.0390476 0)
(-0.00384395 0.0481289 0)
(-0.0202461 0.120894 0)
(-0.0490464 0.167753 0)
(-0.0816862 0.190368 0)
(-0.113053 0.192559 0)
(-0.140746 0.178616 0)
(-0.163621 0.152514 0)
(-0.181309 0.117594 0)
(-0.193846 0.0765356 0)
(-0.20136 0.0314945 0)
(-0.203857 -0.0156592 0)
(-0.201109 -0.0630513 0)
(-0.192648 -0.108492 0)
(-0.177857 -0.149172 0)
(-0.156224 -0.181417 0)
(-0.127779 -0.200608 0)
(-0.0936441 -0.201426 0)
(-0.056733 -0.178575 0)
(-0.0234798 -0.128173 0)
(-0.00443553 -0.0501047 0)
(-0.00472535 0.0595714 0)
(-0.0236946 0.146618 0)
(-0.0553828 0.199757 0)
(-0.0893761 0.222792 0)
(-0.120122 0.221893 0)
(-0.145675 0.203189 0)
(-0.16563 0.171841 0)
(-0.180371 0.131812 0)
(-0.190581 0.0859706 0)
(-0.196863 0.0363767 0)
(-0.199501 -0.0153709 0)
(-0.198335 -0.0677438 0)
(-0.192717 -0.118868 0)
(-0.181574 -0.16608 0)
(-0.163645 -0.20549 0)
(-0.137966 -0.231662 0)
(-0.104596 -0.237626 0)
(-0.0657334 -0.215526 0)
(-0.0283777 -0.158368 0)
(-0.00568207 -0.0635524 0)
(-0.00605155 0.0732284 0)
(-0.0282257 0.175564 0)
(-0.0625084 0.233571 0)
(-0.0962565 0.254748 0)
(-0.123856 0.248733 0)
(-0.144397 0.224028 0)
(-0.158669 0.187108 0)
(-0.168106 0.142463 0)
(-0.1742 0.0929696 0)
(-0.178117 0.0403794 0)
(-0.180484 -0.0141987 0)
(-0.181265 -0.0698218 0)
(-0.179695 -0.125212 0)
(-0.17427 -0.178181 0)
(-0.162894 -0.224974 0)
(-0.143316 -0.259589 0)
(-0.113937 -0.27333 0)
(-0.0753929 -0.255067 0)
(-0.0345562 -0.193091 0)
(-0.00748627 -0.0801044 0)
(-0.00819203 0.0900463 0)
(-0.0344826 0.208021 0)
(-0.0704118 0.267884 0)
(-0.101023 0.283607 0)
(-0.121573 0.269812 0)
(-0.133106 0.237842 0)
(-0.138161 0.195405 0)
(-0.139461 0.147234 0)
(-0.139365 0.0959098 0)
(-0.139593 0.0426198 0)
(-0.141107 -0.0122331 0)
(-0.144053 -0.0685076 0)
(-0.147667 -0.125795 0)
(-0.150168 -0.18277 0)
(-0.148719 -0.236325 0)
(-0.139643 -0.280448 0)
(-0.119094 -0.305026 0)
(-0.0849357 -0.295159 0)
(-0.0424404 -0.232377 0)
(-0.010216 -0.100837 0)
(-0.0117675 0.111635 0)
(-0.0432595 0.243961 0)
(-0.0782967 0.300034 0)
(-0.100627 0.305093 0)
(-0.10835 0.280461 0)
(-0.105729 0.240383 0)
(-0.0975267 0.193282 0)
(-0.0877678 0.14355 0)
(-0.0794976 0.0930363 0)
(-0.0747819 0.0420952 0)
(-0.0747996 -0.00972892 0)
(-0.0798876 -0.0632116 0)
(-0.08946 -0.118991 0)
(-0.101786 -0.176958 0)
(-0.113684 -0.235286 0)
(-0.120304 -0.288883 0)
(-0.115262 -0.327196 0)
(-0.092266 -0.331795 0)
(-0.0523155 -0.275404 0)
(-0.0144303 -0.127347 0)
(-0.0175493 0.140659 0)
(-0.0547643 0.282145 0)
(-0.0827856 0.324719 0)
(-0.0880793 0.312474 0)
(-0.0751068 0.274457 0)
(-0.0525887 0.226771 0)
(-0.0274557 0.177289 0)
(-0.00451129 0.129136 0)
(0.0131024 0.0829131 0)
(0.0234437 0.037947 0)
(0.0254023 -0.00707362 0)
(0.018511 -0.0537589 0)
(0.00298308 -0.103752 0)
(-0.0199941 -0.158321 0)
(-0.0476836 -0.217503 0)
(-0.074983 -0.278361 0)
(-0.0935456 -0.331791 0)
(-0.0920631 -0.357683 0)
(-0.0632803 -0.319294 0)
(-0.0206336 -0.161974 0)
(-0.0254497 0.181711 0)
(-0.0657744 0.317771 0)
(-0.0733325 0.331362 0)
(-0.048076 0.295401 0)
(-0.00557675 0.244212 0)
(0.0412206 0.192381 0)
(0.0846556 0.145048 0)
(0.12054 0.102972 0)
(0.146705 0.0651381 0)
(0.162051 0.0298915 0)
(0.165945 -0.00467168 0)
(0.157939 -0.0406288 0)
(0.137735 -0.080247 0)
(0.105443 -0.125918 0)
(0.0622642 -0.179727 0)
(0.0118072 -0.242021 0)
(-0.0378289 -0.307878 0)
(-0.0716789 -0.360143 0)
(-0.0700553 -0.356608 0)
(-0.0279122 -0.208375 0)
(-0.029649 0.239176 0)
(-0.0608412 0.335768 0)
(-0.0219421 0.300503 0)
(0.0505425 0.240127 0)
(0.127573 0.182949 0)
(0.197009 0.13539 0)
(0.254338 0.0973993 0)
(0.298253 0.0668514 0)
(0.328827 0.0413555 0)
(0.346469 0.0187786 0)
(0.351378 -0.00279424 0)
(0.343305 -0.0252653 0)
(0.321471 -0.050788 0)
(0.284644 -0.0820484 0)
(0.231573 -0.122446 0)
(0.162182 -0.175669 0)
(0.0799012 -0.243431 0)
(-0.00318954 -0.319136 0)
(-0.0546694 -0.368612 0)
(-0.0284594 -0.267618 0)
(0.00808309 0.281861 0)
(0.0197831 0.294972 0)
(0.139066 0.210973 0)
(0.26446 0.143477 0)
(0.364368 0.0971861 0)
(0.440365 0.0657776 0)
(0.496744 0.0442376 0)
(0.536875 0.0288861 0)
(0.563448 0.0171989 0)
(0.578307 0.0074848 0)
(0.582382 -0.00149416 0)
(0.575697 -0.0108453 0)
(0.55731 -0.0218472 0)
(0.525136 -0.036335 0)
(0.475778 -0.0572597 0)
(0.404538 -0.0893842 0)
(0.305176 -0.139741 0)
(0.173417 -0.216386 0)
(0.0411721 -0.311655 0)
(0.0184302 -0.299995 0)
(0.299604 0.146091 0)
(0.396272 0.127503 0)
(0.55742 0.0760895 0)
(0.674487 0.0437233 0)
(0.743889 0.0255721 0)
(0.787153 0.0152422 0)
(0.815486 0.00921235 0)
(0.833955 0.00550942 0)
(0.845385 0.00302718 0)
(0.851372 0.00114935 0)
(0.852666 -0.000499392 0)
(0.849383 -0.00221508 0)
(0.841 -0.00433858 0)
(0.826141 -0.00742409 0)
(0.802078 -0.0125323 0)
(0.763621 -0.0217728 0)
(0.699108 -0.0392829 0)
(0.583952 -0.0726601 0)
(0.415827 -0.127868 0)
(0.308819 -0.149468 0)
)
;

boundaryField
{
    movingWall
    {
        type            fixedValue;
        value           uniform (1 0 0);
    }
    fixedWalls
    {
        type            noSlip;
    }
    frontAndBack
    {
        type            empty;
    }
}


// ************************************************************************* //
