/*--------------------------------*- C++ -*----------------------------------*\
  =========                 |
  \\      /  F ield         | OpenFOAM: The Open Source CFD Toolbox
   \\    /   O peration     | Website:  https://openfoam.org
    \\  /    A nd           | Version:  8
     \\/     M anipulation  |
\*---------------------------------------------------------------------------*/
FoamFile
{
    version     2.0;
    format      ascii;
    class       surfaceScalarField;
    location    "38";
    object      phi;
}
// * * * * * * * * * * * * * * * * * * * * * * * * * * * * * * * * * * * * * //

dimensions      [0 3 -1 0 0 0 0];

internalField   nonuniform List<scalar> 
880
(
-1.55605e-05
1.55605e-05
-3.20663e-05
1.65058e-05
-4.79131e-05
1.58468e-05
-6.27443e-05
1.48312e-05
-7.62491e-05
1.35048e-05
-8.81376e-05
1.18886e-05
-9.81968e-05
1.00591e-05
-0.000106135
7.93824e-06
-0.000112141
6.00599e-06
-0.000115341
3.20033e-06
-0.000117744
2.40259e-06
-6.27601e-08
-0.000117681
-1.71677e-05
3.27281e-05
-3.53322e-05
3.46703e-05
-5.27676e-05
3.32823e-05
-6.90823e-05
3.11459e-05
-8.39433e-05
2.83658e-05
-9.70527e-05
2.4998e-05
-0.000108202
2.12083e-05
-0.000117132
1.68679e-05
-0.000124062
1.29365e-05
-0.000128312
7.45064e-06
-0.000131857
5.94687e-06
-1.52333e-06
-0.000130396
-1.78942e-05
5.06223e-05
-3.68256e-05
5.36018e-05
-5.49838e-05
5.14404e-05
-7.19438e-05
4.81059e-05
-8.73351e-05
4.37571e-05
-0.000100805
3.84682e-05
-0.000112017
3.24204e-05
-0.000120727
2.55779e-05
-0.000126518
1.87272e-05
-0.000129526
1.04585e-05
-0.000128514
4.93511e-06
-5.36808e-06
-0.000124669
-1.89694e-05
6.95917e-05
-3.90419e-05
7.36742e-05
-5.8298e-05
7.06966e-05
-7.62931e-05
6.61009e-05
-9.26587e-05
6.01227e-05
-0.000107072
5.28817e-05
-0.000119249
4.45974e-05
-0.000128923
3.52518e-05
-0.000135592
2.53964e-05
-0.000139274
1.41397e-05
-0.000138425
4.08636e-06
-9.24843e-06
-0.000134544
-2.04438e-05
9.00356e-05
-4.20761e-05
9.53065e-05
-6.2821e-05
9.14414e-05
-8.21794e-05
8.54593e-05
-9.97477e-05
7.7691e-05
-0.000115105
6.82388e-05
-0.000127873
5.73651e-05
-0.000137774
4.51535e-05
-0.000144481
3.21032e-05
-0.000148145
1.78039e-05
-0.000147939
3.88034e-06
-1.27169e-05
-0.000144471
-2.23756e-05
0.000112411
-4.60454e-05
0.000118976
-6.87458e-05
0.000114142
-8.99158e-05
0.000106629
-0.000109178
9.69529e-05
-0.000126147
8.52084e-05
-0.000140617
7.18346e-05
-0.000152224
5.67608e-05
-0.000160449
4.03285e-05
-0.000165048
2.24028e-05
-0.000164832
3.66431e-06
-1.63349e-05
-0.000161214
-2.47386e-05
0.00013715
-5.0927e-05
0.000145165
-7.60453e-05
0.00013926
-9.94409e-05
0.000130025
-0.000120672
0.000118184
-0.000139218
0.000103754
-0.000154682
8.72987e-05
-0.000166848
6.89264e-05
-0.000175608
4.90891e-05
-0.000180999
2.77935e-05
-0.00018294
5.60555e-06
-1.86384e-05
-0.000180637
-2.7841e-05
0.000164991
-5.71962e-05
0.00017452
-8.53267e-05
0.000167391
-0.000111343
0.000156042
-0.000135105
0.000141946
-0.000156091
0.00012474
-0.000174324
0.000105532
-0.000189231
8.38336e-05
-0.000200387
6.0245e-05
-0.000207325
3.47316e-05
-0.0002092
7.48064e-06
-2.11051e-05
-0.000206733
-3.10917e-05
0.000196083
-6.40524e-05
0.000207481
-9.56089e-05
0.000198947
-0.000124853
0.000185285
-0.00015143
0.000168523
-0.000174386
0.000147696
-0.000193546
0.000124692
-0.000208911
9.9198e-05
-0.000220596
7.19304e-05
-0.000228683
4.28181e-05
-0.000233571
1.23693e-05
-2.12298e-05
-0.000233446
-3.62331e-05
0.000232316
-7.39713e-05
0.000245219
-0.000110147
0.000235123
-0.000142815
0.000217953
-0.000172863
0.000198572
-0.000199288
0.000174121
-0.000222557
0.000147961
-0.000241819
0.000118459
-0.000257057
8.71686e-05
-0.000267726
5.34869e-05
-0.000273215
1.78586e-05
-2.12996e-05
-0.000273145
-3.98772e-05
0.000272193
-8.27823e-05
0.000288124
-0.000123161
0.000275501
-0.000160552
0.000255345
-0.000193797
0.000231817
-0.000222105
0.000202429
-0.000245929
0.000171786
-0.000265163
0.000137693
-0.000280421
0.000102426
-0.00029175
6.48168e-05
-0.000300977
2.7085e-05
-1.78267e-05
-0.00030445
-4.99666e-05
0.000322159
-9.93419e-05
0.000337499
-0.000147562
0.000323721
-0.000188329
0.000296111
-0.00022682
0.000270308
-0.000258682
0.00023429
-0.000287442
0.000200546
-0.000311195
0.000161446
-0.000331407
0.000122638
-0.00034693
8.03391e-05
-0.000358953
3.91084e-05
-1.29974e-05
-0.000363782
-4.92125e-05
0.000371372
-0.000109434
0.000397721
-0.000160462
0.000374749
-0.000211347
0.000346997
-0.00025172
0.000310681
-0.000287075
0.000269645
-0.000315182
0.000228653
-0.000337488
0.000183751
-0.000355779
0.00014093
-0.000369647
9.42075e-05
-0.000383622
5.30835e-05
-3.92248e-06
-0.000392697
-7.92953e-05
0.000450667
-0.000140278
0.000458703
-0.000206043
0.000440514
-0.000253514
0.000394468
-0.000299988
0.000357155
-0.000336248
0.000305905
-0.000369286
0.000261691
-0.000396445
0.00021091
-0.000421516
0.000166001
-0.000442465
0.000115157
-0.000463933
7.45517e-05
1.03226e-05
-0.000478178
-4.97849e-05
0.000500452
-0.000146938
0.000555856
-0.000216111
0.000509687
-0.000288768
0.000467125
-0.000337774
0.000406161
-0.000379052
0.000347183
-0.000407326
0.000289965
-0.000428996
0.00023258
-0.000446101
0.000183106
-0.00045948
0.000128536
-0.000474986
9.00572e-05
2.4357e-05
-0.00048902
-0.000160936
0.000661388
-0.000214653
0.000609573
-0.000297607
0.000592642
-0.000347558
0.000517075
-0.000395583
0.000454186
-0.00043443
0.000386031
-0.000466106
0.00032164
-0.000493792
0.000260266
-0.00051954
0.000208854
-0.000544015
0.00015301
-0.000574522
0.000120564
5.30106e-05
-0.000603175
-8.31426e-06
0.000669702
-0.000203537
0.000804796
-0.000319819
0.000708924
-0.000423006
0.000620262
-0.000479609
0.000510789
-0.000515113
0.000421535
-0.000533446
0.000339974
-0.000543311
0.000270131
-0.00054916
0.000214704
-0.000554372
0.000158222
-0.000561257
0.000127449
6.51735e-05
-0.00057342
-0.000199318
0.000869021
-0.000255709
0.000861187
-0.00035771
0.000810925
-0.000462838
0.00072539
-0.00050385
0.000551801
-0.000553867
0.000471552
-0.000575162
0.000361269
-0.000596753
0.000291721
-0.000612509
0.000230461
-0.000631088
0.000176801
-0.000658896
0.000155257
0.000102196
-0.000695919
-0.00113237
0.00200139
-0.00114557
0.000874383
-0.00120127
0.000866631
-0.00105804
0.00058216
-0.000959047
0.000452804
-0.000825632
0.000338137
-0.000724125
0.000259762
-0.000633281
0.000200878
-0.000559185
0.000156364
-0.000503549
0.000121165
-0.000446401
9.81093e-05
7.20266e-05
-0.000416231
0.00200139
0.00287578
0.00374241
0.00432457
0.00477737
0.00511551
0.00537527
0.00557615
0.00573251
0.00585368
0.00595179
0.00602381
-9.32178e-05
3.67763e-05
-6.12397e-05
-7.24194e-05
1.54063e-05
-3.62046e-05
-5.94253e-05
-3.25473e-06
-9.73935e-06
-4.70757e-05
-1.7453e-05
5.10338e-06
-3.54985e-05
-2.86486e-05
1.70714e-05
-2.35365e-05
-3.6834e-05
2.48721e-05
-1.144e-05
-4.21588e-05
3.00622e-05
-4.15146e-05
3.00746e-05
-0.00010298
9.3603e-06
-8.09669e-05
-6.60695e-06
-6.67096e-05
-1.75121e-05
-5.3061e-05
-3.11016e-05
-4.02219e-05
-4.14876e-05
-2.67938e-05
-5.02621e-05
-1.30504e-05
-5.59023e-05
-5.4565e-05
-0.00011085
-4.45875e-06
-9.7095e-05
-2.03624e-05
-8.24456e-05
-3.21615e-05
-6.7201e-05
-4.63461e-05
-5.10859e-05
-5.76028e-05
-3.41569e-05
-6.71911e-05
-1.66351e-05
-7.34241e-05
-7.12e-05
-0.000121312
-1.76908e-05
-0.000107758
-3.39167e-05
-9.24515e-05
-4.7468e-05
-7.60996e-05
-6.2698e-05
-5.83464e-05
-7.5356e-05
-3.92494e-05
-8.62881e-05
-1.92011e-05
-9.34724e-05
-9.04012e-05
-0.000135319
-2.68431e-05
-0.00012353
-4.57053e-05
-0.000108321
-6.26768e-05
-9.04138e-05
-8.06053e-05
-7.00877e-05
-9.5682e-05
-4.73616e-05
-0.000109014
-2.32928e-05
-0.000117541
-0.000113694
-0.0001521
-3.59574e-05
-0.000139957
-5.78479e-05
-0.00012393
-7.87039e-05
-0.000104308
-0.000100227
-8.16384e-05
-0.000118352
-5.54794e-05
-0.000135173
-2.74816e-05
-0.000145539
-0.000141176
-0.000173458
-4.31363e-05
-0.000161387
-6.99191e-05
-0.000145162
-9.49292e-05
-0.000123089
-0.0001223
-9.7789e-05
-0.000143652
-6.65608e-05
-0.000166401
-3.34942e-05
-0.000178606
-0.00017467
-0.000199636
-5.02338e-05
-0.000187164
-8.23909e-05
-0.000170119
-0.000111975
-0.000145684
-0.000146734
-0.000117131
-0.000172205
-8.03268e-05
-0.000203206
-4.09062e-05
-0.000218026
-0.000215576
-0.00022895
-5.47306e-05
-0.00021644
-9.49004e-05
-0.000200527
-0.000127888
-0.000172949
-0.000174312
-0.000142475
-0.000202679
-9.79417e-05
-0.000247739
-5.15069e-05
-0.000264461
-0.000267083
-0.000269472
-5.84039e-05
-0.00025763
-0.000106742
-0.000241609
-0.000143908
-0.000211795
-0.000204127
-0.000177148
-0.000237326
-0.000123709
-0.000301179
-6.63285e-05
-0.000321841
-0.000333411
-0.00030584
-5.70139e-05
-0.000294994
-0.000117588
-0.000283994
-0.000154908
-0.000251959
-0.000236162
-0.00021957
-0.000269714
-0.000155033
-0.000365716
-8.90711e-05
-0.000387803
-0.000422482
-0.000368024
-5.27725e-05
-0.000361403
-0.00012421
-0.000353398
-0.000162913
-0.000322096
-0.000267463
-0.000286519
-0.000305292
-0.000209039
-0.000443195
-0.000124535
-0.000472307
-0.000547017
-0.000404716
-4.07536e-05
-0.000401402
-0.000127524
-0.0004065
-0.000157815
-0.000379437
-0.000294526
-0.000361022
-0.000323708
-0.000273795
-0.000530422
-0.000186773
-0.00055933
-0.00073379
-0.000498124
-2.08075e-05
-0.00050758
-0.000118068
-0.000524887
-0.000140509
-0.000510078
-0.000309334
-0.000498633
-0.000335153
-0.000402678
-0.000626376
-0.000293451
-0.000668556
-0.00102724
-0.000514251
4.4236e-06
-0.000528238
-0.000104082
-0.00056837
-0.000100377
-0.000577015
-0.00030069
-0.000625995
-0.000286173
-0.000559174
-0.000693197
-0.000507405
-0.000720325
-0.00153465
-0.000648491
4.97395e-05
-0.000691313
-6.12594e-05
-0.000764542
-2.7148e-05
-0.000816573
-0.000248659
-0.000910167
-0.000192578
-0.000887131
-0.000716233
-0.000857748
-0.000749708
-0.00239239
-0.000596802
7.31214e-05
-0.000629071
-2.89904e-05
-0.00070708
5.08611e-05
-0.000800915
-0.000154824
-0.00101772
2.42237e-05
-0.00115419
-0.000579763
-0.00120928
-0.000694618
-0.00360167
-0.000759664
0.000136867
-0.000846659
5.80047e-05
-0.000985548
0.00018975
-0.00116603
2.56582e-05
-0.00134151
0.0001997
-0.00145494
-0.000466331
-0.000971973
-0.00117758
-0.00457365
-0.000348666
6.93012e-05
-0.000329024
3.83625e-05
-0.000191128
5.18546e-05
-0.000150113
-1.53576e-05
0.000168289
-0.000118702
0.000251647
-0.000549688
0.000609095
-0.00153503
-0.00396455
0.00609311
0.00613148
0.00618333
0.00616797
0.00604927
0.00549958
0.00396455
-1.54347e-06
1.54347e-06
-2.90719e-06
1.36372e-06
-3.73313e-06
8.25946e-07
-3.95569e-06
2.22556e-07
-3.55421e-06
-4.01479e-07
-2.63968e-06
-9.14534e-07
-1.35408e-06
-1.2856e-06
-1.35408e-06
-1.78348e-06
3.32695e-06
-3.33876e-06
2.919e-06
-4.25513e-06
1.74231e-06
-4.44854e-06
4.1597e-07
-3.96782e-06
-8.82197e-07
-2.93777e-06
-1.94458e-06
-1.50506e-06
-2.71831e-06
-2.85914e-06
-2.70283e-06
6.02978e-06
-4.94871e-06
5.16487e-06
-6.18284e-06
2.97644e-06
-6.4442e-06
6.77329e-07
-5.69696e-06
-1.62943e-06
-4.17972e-06
-3.46183e-06
-2.13179e-06
-4.76624e-06
-4.99093e-06
-3.22643e-06
9.25621e-06
-5.84324e-06
7.78168e-06
-7.18462e-06
4.31782e-06
-7.27697e-06
7.69683e-07
-6.3414e-06
-2.565e-06
-4.62424e-06
-5.17899e-06
-2.34743e-06
-7.04305e-06
-7.33836e-06
-6.19422e-06
1.54504e-05
-1.06252e-05
1.22126e-05
-1.24438e-05
6.13641e-06
-1.23939e-05
7.19798e-07
-1.05534e-05
-4.40547e-06
-7.55467e-06
-8.17775e-06
-3.80079e-06
-1.07969e-05
-1.11391e-05
-7.51306e-06
2.29635e-05
-1.27436e-05
1.74432e-05
-1.46867e-05
8.07957e-06
-1.42119e-05
2.44945e-07
-1.19769e-05
-6.64049e-06
-8.54379e-06
-1.16108e-05
-4.28356e-06
-1.50572e-05
-1.54227e-05
-1.71383e-05
4.01018e-05
-2.61689e-05
2.64737e-05
-2.71616e-05
9.07224e-06
-2.49259e-05
-1.99077e-06
-2.00896e-05
-1.14768e-05
-1.38799e-05
-1.78205e-05
-6.86098e-06
-2.20761e-05
-2.22837e-05
-2.11379e-05
-3.08688e-05
-3.15359e-05
-2.84233e-05
-2.28286e-05
-1.57771e-05
-7.79092e-06
)
;

boundaryField
{
    movingWall
    {
        type            calculated;
        value           uniform 0;
    }
    fixedWalls
    {
        type            calculated;
        value           uniform 0;
    }
    frontAndBack
    {
        type            empty;
        value           nonuniform List<scalar> 0();
    }
}


// ************************************************************************* //
