/*--------------------------------*- C++ -*----------------------------------*\
  =========                 |
  \\      /  F ield         | OpenFOAM: The Open Source CFD Toolbox
   \\    /   O peration     | Website:  https://openfoam.org
    \\  /    A nd           | Version:  8
     \\/     M anipulation  |
\*---------------------------------------------------------------------------*/
FoamFile
{
    version     2.0;
    format      ascii;
    class       volScalarField;
    location    "98";
    object      p;
}
// * * * * * * * * * * * * * * * * * * * * * * * * * * * * * * * * * * * * * //

dimensions      [0 2 -2 0 0 0 0];

internalField   nonuniform List<scalar> 
12504
(
0.14929
0.146536
0.140757
0.131967
0.120454
0.106592
0.0907964
0.0735341
0.0553241
0.0367075
0.018211
0.000315059
-0.0165726
-0.0321316
-0.0461323
-0.0584278
-0.0689398
-0.0776415
-0.0845418
-0.0896716
-0.0930724
-0.0947918
-0.0948792
-0.0933885
-0.0903833
-0.0859505
-0.0802079
-0.0733146
-0.0654711
-0.056921
-0.0479372
-0.0388124
-0.0298363
-0.0212806
-0.0133825
-0.00632136
-0.000241031
0.00482086
0.00879667
0.0118334
0.0138391
0.0152321
0.0156549
0.016011
0.0151812
0.0150214
0.0127538
0.012054
0.0072055
0.00517095
0.151273
0.148453
0.14253
0.133522
0.121731
0.107545
0.0913943
0.0737665
0.0552015
0.0362605
0.0174871
-0.000627729
-0.0176724
-0.0333301
-0.0473793
-0.0596844
-0.0701786
-0.0788456
-0.0857033
-0.0907902
-0.0941527
-0.095841
-0.0959044
-0.0943948
-0.0913717
-0.0869169
-0.0811435
-0.0742069
-0.0663058
-0.0576839
-0.048616
-0.0393987
-0.0303254
-0.0216722
-0.0136798
-0.00653012
-0.000369157
0.00476648
0.00880619
0.0119034
0.0139571
0.015403
0.0158572
0.0162653
0.0154407
0.0153373
0.0130196
0.0123756
0.00736079
0.00536337
0.155295
0.152335
0.146118
0.136669
0.124311
0.109462
0.0925856
0.0742112
0.0549219
0.0353208
0.0159861
-0.0025691
-0.0199264
-0.0357766
-0.0499167
-0.0622344
-0.0726869
-0.0812791
-0.0880477
-0.0930461
-0.0963312
-0.0979586
-0.0979766
-0.0964328
-0.0933781
-0.0888835
-0.083052
-0.0760311
-0.0680153
-0.0592488
-0.0500106
-0.0406045
-0.0313329
-0.0224804
-0.0142956
-0.0069653
-0.000639992
0.00464484
0.00881512
0.0120325
0.0141872
0.0157332
0.016263
0.016758
0.0159748
0.015942
0.0135895
0.0129638
0.00773636
0.00564225
0.161453
0.158277
0.151607
0.141475
0.128239
0.11236
0.0943585
0.0748252
0.0544133
0.0337934
0.013599
-0.00562223
-0.0234429
-0.0395688
-0.0538285
-0.0661478
-0.0765215
-0.0849881
-0.0916127
-0.0964723
-0.0996403
-0.10118
-0.101137
-0.099552
-0.0964617
-0.091919
-0.0860096
-0.0788682
-0.0706822
-0.0616961
-0.052196
-0.0424977
-0.032918
-0.0237555
-0.015272
-0.00766193
-0.00108315
0.00443098
0.00880106
0.0122014
0.0145108
0.0162075
0.0168569
0.0174786
0.0167736
0.0168342
0.0144621
0.0138262
0.00833569
0.0060131
0.169904
0.166428
0.159129
0.148048
0.133588
0.116271
0.0966936
0.0755379
0.0535582
0.0315237
0.0101489
-0.00996964
-0.0283956
-0.0448621
-0.0592474
-0.0715346
-0.0817721
-0.090045
-0.096458
-0.101121
-0.104131
-0.105562
-0.105452
-0.103834
-0.100721
-0.096137
-0.0901427
-0.0828526
-0.0744431
-0.065159
-0.0552966
-0.0451899
-0.0351776
-0.0255797
-0.0166772
-0.00867607
-0.00174516
0.00408581
0.00873003
0.0123798
0.0149011
0.0167997
0.0176199
0.0184059
0.0178334
0.0180012
0.0156574
0.014953
0.0091944
0.00644449
0.180865
0.176994
0.168868
0.156537
0.140457
0.121232
0.0995578
0.0762416
0.0521795
0.0282804
0.00537378
-0.0158784
-0.035035
-0.0518768
-0.0663592
-0.0785474
-0.0885619
-0.0965484
-0.102664
-0.107063
-0.109874
-0.111186
-0.111019
-0.109398
-0.1063
-0.101708
-0.0956415
-0.0881868
-0.0795039
-0.0698374
-0.0594986
-0.0488477
-0.0382558
-0.0280735
-0.0186103
-0.0100882
-0.00269195
0.00355458
0.00855488
0.0125253
0.0153204
0.0174735
0.0185239
0.0195104
0.019146
0.0194312
0.0172004
0.0163421
0.0103551
0.00690245
0.194622
0.190247
0.181068
0.167138
0.148978
0.12729
0.102897
0.0767763
0.0500187
0.0237299
-0.00110011
-0.0237238
-0.043707
-0.060912
-0.0754123
-0.0873874
-0.0970513
-0.104625
-0.110331
-0.114385
-0.116959
-0.118162
-0.117966
-0.116411
-0.113411
-0.108881
-0.102786
-0.0951689
-0.0861667
-0.0760233
-0.0650719
-0.0537106
-0.0423573
-0.0314067
-0.0212092
-0.012009
-0.00401274
0.00276374
0.00821296
0.0125818
0.0157188
0.01818
0.0195279
0.0207541
0.0206939
0.0211193
0.0191087
0.0180195
0.0118429
0.00739482
0.211537
0.206533
0.196041
0.180105
0.15932
0.1345
0.106628
0.0769074
0.0467008
0.0173925
-0.00980106
-0.034025
-0.0548783
-0.0723629
-0.0867296
-0.0983141
-0.107445
-0.114433
-0.119584
-0.123192
-0.125491
-0.126645
-0.126474
-0.125115
-0.122355
-0.118017
-0.111984
-0.104235
-0.094872
-0.0841398
-0.0724044
-0.0601188
-0.0477694
-0.0358138
-0.0246613
-0.0145866
-0.00582516
0.00161735
0.00762349
0.0124766
0.0160306
0.0188552
0.0205732
0.0220879
0.0224422
0.023065
0.0213784
0.0200384
0.0136453
0.00800562
0.232062
0.226283
0.214179
0.195758
0.171696
0.142921
0.110617
0.0762919
0.0416804
0.00857511
-0.0214801
-0.0475004
-0.0691747
-0.086743
-0.100723
-0.111655
-0.119998
-0.126166
-0.13057
-0.133606
-0.135569
-0.13655
-0.136772
-0.13585
-0.133571
-0.129643
-0.12383
-0.11602
-0.106263
-0.0948012
-0.0820535
-0.0685552
-0.054893
-0.0416169
-0.0292182
-0.0180161
-0.00828095
-7.05161e-06
0.00668432
0.0121181
0.0161713
0.019416
0.021577
0.0234473
0.0243317
0.0252492
0.0239594
0.0224218
0.0156858
0.00886723
0.256752
0.250031
0.235974
0.2145
0.186373
0.152615
0.114662
0.0744249
0.0341611
-0.0037281
-0.0372141
-0.0651558
-0.0874412
-0.104721
-0.117914
-0.127818
-0.135024
-0.140053
-0.143457
-0.14578
-0.147432
-0.1486
-0.14927
-0.149107
-0.147694
-0.144534
-0.139207
-0.131463
-0.121278
-0.108901
-0.0948238
-0.0797074
-0.0642891
-0.0492562
-0.0352166
-0.0225521
-0.0115735
-0.00226269
0.00526889
0.0113932
0.0160332
0.0197545
0.0224256
0.0247403
0.0262669
0.0275869
0.026705
0.0250402
0.0177586
0.0100179
0.286274
0.278424
0.262032
0.236837
0.203693
0.163634
0.118434
0.070537
0.0229557
-0.0209819
-0.0585381
-0.0883929
-0.110823
-0.127178
-0.138977
-0.147319
-0.152901
-0.156345
-0.158402
-0.159835
-0.161204
-0.162764
-0.164363
-0.165525
-0.165594
-0.163786
-0.159393
-0.151943
-0.141304
-0.127742
-0.111875
-0.0945556
-0.0767439
-0.0593347
-0.0431036
-0.0285226
-0.0159446
-0.0053369
0.00322408
0.0101659
0.0154809
0.0197321
0.0229727
0.0258328
0.0280812
0.0298558
0.0292829
0.0274785
0.0194812
0.0112349
0.321426
0.312247
0.293107
0.263415
0.224101
0.17602
0.121415
0.0633997
0.00619375
-0.0453919
-0.0876386
-0.119105
-0.140808
-0.155236
-0.164768
-0.170807
-0.174068
-0.175284
-0.175492
-0.175787
-0.176926
-0.179243
-0.18254
-0.185971
-0.188469
-0.188892
-0.186142
-0.179392
-0.168319
-0.153206
-0.134872
-0.114484
-0.0933491
-0.0726742
-0.0534745
-0.0363497
-0.0216948
-0.00945442
0.000369686
0.0082766
0.0143501
0.019175
0.0230372
0.0265305
0.0294833
0.0316142
0.0311017
0.0290289
0.0203928
0.0120913
0.363135
0.35244
0.330118
0.295064
0.248197
0.189821
0.122845
0.0510838
-0.019193
-0.0805281
-0.127811
-0.15984
-0.179179
-0.190171
-0.196266
-0.199001
-0.198934
-0.196956
-0.194567
-0.193347
-0.194326
-0.197871
-0.203853
-0.21106
-0.217643
-0.221729
-0.221714
-0.216312
-0.204925
-0.187834
-0.166122
-0.141421
-0.115598
-0.0903641
-0.0670931
-0.0465578
-0.0291871
-0.0148779
-0.00350022
0.00554107
0.0124463
0.0178802
0.0224014
0.0265431
0.0300182
0.0321853
0.0313652
0.0288957
0.0201203
0.0122315
0.412449
0.400111
0.374181
0.332873
0.276764
0.205089
0.121617
0.0307324
-0.0579989
-0.13228
-0.184461
-0.214354
-0.22807
-0.233209
-0.234306
-0.232415
-0.227576
-0.220957
-0.214831
-0.21145
-0.212286
-0.217718
-0.2275
-0.240033
-0.253146
-0.263339
-0.268069
-0.265333
-0.254101
-0.234655
-0.208472
-0.177843
-0.145463
-0.113844
-0.084939
-0.0597872
-0.0388413
-0.0218964
-0.00860639
0.00175745
0.009554
0.0156231
0.0207975
0.025462
0.0290773
0.0307806
0.0292815
0.0264589
0.0183693
0.0114986
0.470508
0.456545
0.426653
0.378284
0.310774
0.221785
0.115705
-0.00242777
-0.11707
-0.209124
-0.265701
-0.28808
-0.289989
-0.285185
-0.279055
-0.270766
-0.259146
-0.245842
-0.234321
-0.227665
-0.227926
-0.235731
-0.25037
-0.269995
-0.292083
-0.311395
-0.324009
-0.326685
-0.317462
-0.29624
-0.264816
-0.226451
-0.185165
-0.144772
-0.108154
-0.0767778
-0.0511287
-0.0308172
-0.0151754
-0.00328436
0.00545486
0.0121691
0.0179022
0.0227697
0.0259458
0.0265812
0.0242296
0.0213278
0.0148122
0.00983456
0.538479
0.523164
0.489259
0.433308
0.351535
0.239596
0.100861
-0.0587781
-0.206885
-0.320228
-0.37847
-0.384663
-0.365526
-0.344913
-0.328494
-0.311583
-0.290846
-0.268624
-0.249883
-0.238403
-0.236858
-0.246408
-0.266536
-0.295295
-0.327269
-0.358067
-0.382007
-0.394171
-0.39094
-0.371041
-0.335813
-0.289135
-0.236794
-0.184837
-0.137888
-0.0982451
-0.0664818
-0.0419081
-0.0234055
-0.00977556
-4.62558e-05
0.00728122
0.0133466
0.0179091
0.0199609
0.0190111
0.0158024
0.0132417
0.0091305
0.00721147
0.61742
0.601419
0.56431
0.500967
0.401594
0.258273
0.0696565
-0.156916
-0.34936
-0.474262
-0.518955
-0.49497
-0.445647
-0.404481
-0.375444
-0.348467
-0.317705
-0.286079
-0.259729
-0.242493
-0.238046
-0.24797
-0.272027
-0.30782
-0.350358
-0.393514
-0.430415
-0.455307
-0.462801
-0.449661
-0.415475
-0.363333
-0.300156
-0.234838
-0.174999
-0.124776
-0.0852294
-0.0553434
-0.0334235
-0.0178457
-0.00709171
0.000738206
0.00675947
0.0103655
0.0105925
0.00765662
0.00368875
0.00202477
0.0011375
0.00364924
0.707908
0.692507
0.654785
0.585911
0.466992
0.280792
0.0101468
-0.309978
-0.500621
-0.621811
-0.63572
-0.575729
-0.499577
-0.444598
-0.409126
-0.376166
-0.338659
-0.300824
-0.268846
-0.247404
-0.239809
-0.248289
-0.273351
-0.313048
-0.362758
-0.415881
-0.464956
-0.502419
-0.522346
-0.520013
-0.492566
-0.440616
-0.370302
-0.292587
-0.218813
-0.156249
-0.107352
-0.0710976
-0.0452211
-0.027511
-0.0157371
-0.0076286
-0.00216446
-0.00024017
-0.00246902
-0.00764743
-0.0121667
-0.0123544
-0.00917832
-0.000782982
0.809352
0.796832
0.763676
0.694349
0.559833
0.320769
-0.00194409
-0.389708
-0.68846
-0.789809
-0.768878
-0.639866
-0.526569
-0.461935
-0.419848
-0.3871
-0.351926
-0.316126
-0.284406
-0.261388
-0.251116
-0.256917
-0.280472
-0.320856
-0.373998
-0.43328
-0.490619
-0.537925
-0.56843
-0.576788
-0.558638
-0.511648
-0.439337
-0.352762
-0.26634
-0.191156
-0.132072
-0.0887342
-0.058538
-0.0386009
-0.0259048
-0.0178757
-0.0135837
-0.0140674
-0.0192655
-0.0268249
-0.0316444
-0.0297695
-0.0216807
-0.00598389
0.919097
0.91314
0.891879
0.833312
0.697044
0.43171
0.0187009
-0.426916
-0.770297
-0.540145
-0.464473
-0.426037
-0.396664
-0.369247
-0.339352
-0.31086
-0.287443
-0.274981
-0.2773
-0.297418
-0.335715
-0.388933
-0.450631
-0.51244
-0.565833
-0.603626
-0.620235
-0.610561
-0.570282
-0.499884
-0.408782
-0.31284
-0.226522
-0.157635
-0.107225
-0.0727369
-0.0506841
-0.0373319
-0.0298852
-0.0274398
-0.0309992
-0.0395494
-0.049548
-0.0543922
-0.0498954
-0.0360764
-0.0118104
1.03187
1.03708
1.03543
1.00882
0.878546
0.594067
0.133747
-0.457056
-0.423999
-0.40767
-0.390561
-0.369048
-0.346191
-0.323114
-0.309951
-0.308861
-0.324186
-0.357684
-0.40728
-0.467382
-0.529863
-0.585948
-0.628113
-0.650238
-0.647022
-0.613001
-0.546416
-0.454478
-0.352924
-0.258383
-0.18143
-0.124927
-0.0867446
-0.0630261
-0.04953
-0.0433135
-0.043405
-0.0506088
-0.0627641
-0.0752044
-0.079795
-0.0721667
-0.0518777
-0.0180543
1.13997
1.15921
1.188
1.20718
1.10905
0.836423
-0.417713
-0.419043
-0.417258
-0.403934
-0.387073
-0.369514
-0.356818
-0.353039
-0.362425
-0.387934
-0.428999
-0.482008
-0.540228
-0.595199
-0.638789
-0.664149
-0.665632
-0.63681
-0.574698
-0.484679
-0.381451
-0.282471
-0.200358
-0.139719
-0.0990914
-0.0746007
-0.0617688
-0.057557
-0.0608503
-0.0721473
-0.0880358
-0.102859
-0.106919
-0.0957255
-0.0683835
-0.0244347
1.23208
1.26698
1.32991
1.40286
1.35807
1.15803
-0.436999
-0.448376
-0.445092
-0.436813
-0.426973
-0.418281
-0.413505
-0.416202
-0.429879
-0.456471
-0.495351
-0.542492
-0.590897
-0.632145
-0.658681
-0.662824
-0.638249
-0.581029
-0.495202
-0.39407
-0.294878
-0.211328
-0.149297
-0.108097
-0.0841969
-0.0731122
-0.0717566
-0.0788534
-0.0945597
-0.114185
-0.131257
-0.134478
-0.1194
-0.0846954
-0.0306067
1.29628
1.34444
1.43794
1.56095
1.58475
1.49893
-0.458801
-0.491263
-0.49516
-0.498138
-0.498823
-0.497451
-0.493649
-0.489179
-0.487642
-0.493514
-0.510207
-0.537711
-0.572313
-0.605655
-0.629436
-0.634803
-0.613916
-0.562295
-0.482917
-0.387573
-0.292591
-0.211754
-0.151574
-0.112154
-0.0905853
-0.0824968
-0.0848464
-0.0962438
-0.116538
-0.139786
-0.158885
-0.160928
-0.141832
-0.0997984
-0.0361869
1.32213
1.37741
1.48765
1.63668
1.72749
-0.503272
-0.546297
-0.558243
-0.572923
-0.585173
-0.593929
-0.592876
-0.581211
-0.561994
-0.541893
-0.52877
-0.528032
-0.539923
-0.558869
-0.575493
-0.57956
-0.561845
-0.516781
-0.446242
-0.360356
-0.273953
-0.199983
-0.145041
-0.110011
-0.0926834
-0.0888375
-0.0956477
-0.111706
-0.136641
-0.163294
-0.18413
-0.185023
-0.161644
-0.112667
-0.0407965
1.30379
1.35773
1.46474
1.60731
1.72427
-0.580767
-0.610833
-0.630079
-0.656744
-0.680128
-0.701428
-0.703687
-0.684719
-0.646609
-0.597627
-0.549721
-0.513892
-0.495768
-0.493413
-0.498126
-0.498128
-0.482891
-0.445337
-0.38602
-0.313034
-0.239106
-0.175684
-0.129144
-0.101048
-0.0897376
-0.0911762
-0.103017
-0.123942
-0.153453
-0.183191
-0.205293
-0.204524
-0.177359
-0.122333
-0.044105
1.24225
1.28673
1.37113
1.47683
1.57712
-0.654809
-0.67472
-0.702343
-0.741977
-0.784828
-0.808555
-0.811649
-0.784472
-0.727248
-0.649352
-0.56606
-0.493099
-0.441191
-0.412859
-0.401543
-0.395241
-0.381308
-0.35225
-0.306003
-0.248527
-0.189981
-0.139969
-0.104476
-0.0854159
-0.081427
-0.0888105
-0.106003
-0.13185
-0.165773
-0.198211
-0.221055
-0.218447
-0.187859
-0.128041
-0.0458727
1.1447
1.17424
1.22375
1.27191
1.31578
1.22272
-0.716085
-0.727787
-0.763961
-0.813729
-0.863988
-0.896666
-0.899364
-0.862707
-0.786616
-0.681959
-0.566853
-0.460282
-0.37636
-0.321677
-0.292755
-0.278628
-0.265969
-0.245243
-0.212649
-0.171852
-0.130227
-0.0954222
-0.072737
-0.0639505
-0.067851
-0.0813763
-0.104003
-0.134718
-0.172791
-0.207469
-0.230435
-0.225805
-0.192331
-0.129299
-0.045977
1.02292
1.03582
1.04928
1.04051
1.03011
0.836459
-0.743238
-0.76204
-0.806897
-0.864833
-0.920664
-0.956102
-0.954874
-0.906874
-0.81268
-0.685063
-0.544404
-0.411574
-0.301939
-0.22508
-0.179893
-0.157664
-0.146186
-0.133667
-0.114259
-0.0899274
-0.0652659
-0.0460226
-0.0364885
-0.0379547
-0.049474
-0.0689289
-0.0969206
-0.132397
-0.174224
-0.210533
-0.232863
-0.226014
-0.190335
-0.125929
-0.0444267
0.889431
0.888257
0.871158
0.817292
0.761872
0.409606
0.0397158
-0.77407
-0.754716
-0.778726
-0.82973
-0.892705
-0.950003
-0.982764
-0.973839
-0.91332
-0.803162
-0.658039
-0.499804
-0.34978
-0.223755
-0.130837
-0.0724081
-0.0427221
-0.0308803
-0.0245676
-0.0185992
-0.00958684
-0.000614973
0.00426255
0.00184809
-0.0086982
-0.0270038
-0.0520385
-0.0853356
-0.125425
-0.170354
-0.207411
-0.228188
-0.218921
-0.181849
-0.11808
-0.0413627
0.755737
0.74386
0.708839
0.626245
0.452393
0.202745
-0.329195
-0.757798
-0.824603
-0.776079
-0.755064
-0.783687
-0.837233
-0.899862
-0.952877
-0.977416
-0.957226
-0.884138
-0.762187
-0.607424
-0.441734
-0.285247
-0.152094
-0.0501954
0.0179739
0.0552012
0.0694137
0.0711077
0.0680241
0.0646431
0.0604378
0.0532607
0.0409435
0.0228352
-0.00151763
-0.0320298
-0.0706389
-0.114983
-0.161915
-0.19844
-0.21659
-0.204758
-0.167256
-0.106227
-0.0370442
0.629242
0.611628
0.566907
0.478139
0.314104
0.0326605
-0.341349
-0.869721
-1.14096
-1.064
-0.913555
-0.83238
-0.766381
-0.757136
-0.784527
-0.834586
-0.890135
-0.931714
-0.942196
-0.907987
-0.824022
-0.696677
-0.542181
-0.380442
-0.228599
-0.0978796
0.00576146
0.0798363
0.124802
0.144899
0.147611
0.140621
0.129364
0.115734
0.0994802
0.0793878
0.0548719
0.0247616
-0.0113222
-0.0549558
-0.102576
-0.149787
-0.184083
-0.198475
-0.184088
-0.14734
-0.0911549
-0.0318189
0.514661
0.495138
0.447998
0.364149
0.222981
0.00764523
-0.300466
-0.661098
-0.986806
-1.15062
-1.1277
-1.01116
-0.878726
-0.808168
-0.77033
-0.760967
-0.781978
-0.820874
-0.860143
-0.883799
-0.876712
-0.829017
-0.739271
-0.615296
-0.471648
-0.324383
-0.186456
-0.0659585
0.033024
0.108478
0.159606
0.187616
0.196604
0.191948
0.178833
0.160719
0.138972
0.113328
0.0834532
0.0480137
0.00686395
-0.040507
-0.0894006
-0.134529
-0.164676
-0.1744
-0.157837
-0.123306
-0.0739387
-0.026083
0.414056
0.394801
0.350294
0.275552
0.160013
-0.00379886
-0.216915
-0.471582
-0.687855
-0.830052
-0.884559
-0.862035
-0.807797
-0.7618
-0.73803
-0.7347
-0.74957
-0.774541
-0.796678
-0.802389
-0.780821
-0.726388
-0.640058
-0.529156
-0.404951
-0.278958
-0.16019
-0.0542934
0.0358058
0.108427
0.162312
0.197172
0.214247
0.215943
0.206304
0.188701
0.16538
0.136892
0.10344
0.0642374
0.0199666
-0.0284783
-0.0756707
-0.11606
-0.140309
-0.145085
-0.127371
-0.0967793
-0.0558808
-0.020243
0.327422
0.30954
0.269974
0.205328
0.111842
-0.0148043
-0.17029
-0.348519
-0.513816
-0.641917
-0.710386
-0.721103
-0.702421
-0.683106
-0.674628
-0.677319
-0.688072
-0.700902
-0.708138
-0.701069
-0.672741
-0.620117
-0.544711
-0.452034
-0.349875
-0.246058
-0.146766
-0.0561189
0.0234667
0.0903873
0.143374
0.181685
0.204559
0.213207
0.209554
0.19592
0.174416
0.146083
0.111807
0.0717872
0.0277494
-0.0181443
-0.0603461
-0.0937822
-0.111173
-0.111711
-0.0946356
-0.0697755
-0.0383937
-0.0146784
0.253635
0.237646
0.203465
0.148445
0.0723276
-0.0273788
-0.145284
-0.276178
-0.403329
-0.506355
-0.571071
-0.598393
-0.603151
-0.601715
-0.602464
-0.607102
-0.613846
-0.619024
-0.617548
-0.604357
-0.575358
-0.528841
-0.466025
-0.390649
-0.307891
-0.223073
-0.140637
-0.0637735
0.00540233
0.0654819
0.115534
0.153749
0.179481
0.192563
0.194153
0.18544
0.167844
0.142387
0.110439
0.0731561
0.033095
-0.00683033
-0.0415398
-0.0671427
-0.0782613
-0.0765119
-0.0622571
-0.044481
-0.0227836
-0.00970567
0.191201
0.177277
0.14809
0.101701
0.0391635
-0.0403873
-0.132433
-0.232367
-0.329948
-0.411999
-0.470249
-0.504487
-0.521366
-0.529641
-0.53531
-0.540436
-0.544527
-0.545292
-0.539483
-0.524181
-0.497045
-0.457064
-0.405065
-0.343559
-0.276076
-0.206358
-0.137681
-0.0725543
-0.0127746
0.0404901
0.0867407
0.122668
0.149018
0.164839
0.170368
0.166125
0.153134
0.132341
0.105288
0.0736441
0.040298
0.00822336
-0.0183382
-0.036588
-0.0441704
-0.0427888
-0.0331544
-0.0228342
-0.00998867
-0.00554607
0.138623
0.126701
0.101892
0.062973
0.0112545
-0.0529374
-0.1262
-0.20444
-0.280939
-0.347747
-0.399427
-0.434722
-0.456408
-0.469333
-0.477617
-0.483084
-0.485686
-0.484143
-0.476532
-0.461074
-0.436387
-0.401933
-0.358356
-0.307423
-0.251612
-0.193604
-0.135845
-0.0803287
-0.0285985
0.0181605
0.0585508
0.0933313
0.119552
0.13703
0.145641
0.145528
0.137406
0.122168
0.101354
0.0767187
0.0509513
0.0265307
0.00668278
-0.00708056
-0.0132374
-0.014067
-0.00962695
-0.00596328
-0.00035865
-0.00228908
0.0945118
0.0843919
0.0633488
0.030729
-0.012252
-0.0646339
-0.123847
-0.186502
-0.248076
-0.303449
-0.348669
-0.382194
-0.405107
-0.420095
-0.429776
-0.435508
-0.437427
-0.43485
-0.426663
-0.411784
-0.38944
-0.35943
-0.322316
-0.279385
-0.232428
-0.183412
-0.134203
-0.0863989
-0.0413032
5.09758e-05
0.0367349
0.0684969
0.0938345
0.112149
0.123118
0.126686
0.123292
0.113678
0.0991757
0.0813229
0.0623442
0.0440756
0.0288745
0.0174802
0.0111065
0.00758164
0.00751181
0.00607353
0.00632889
0.000104223
0.0576198
0.0490545
0.0312122
0.00381144
-0.0320909
-0.0753191
-0.123867
-0.175054
-0.225636
-0.272052
-0.311373
-0.342167
-0.364698
-0.380343
-0.390637
-0.396497
-0.398105
-0.395117
-0.386926
-0.372913
-0.35269
-0.326264
-0.294137
-0.257296
-0.217083
-0.17499
-0.132469
-0.090813
-0.0511172
-0.014279
0.0189108
0.0481807
0.0723652
0.0909221
0.103497
0.109956
0.110528
0.105753
0.0966584
0.0844347
0.0708074
0.0570607
0.0449673
0.0348498
0.0278399
0.022176
0.0188672
0.0139846
0.0106152
0.00175413
0.0268644
0.0196058
0.00445221
-0.0186688
-0.048845
-0.0849117
-0.12525
-0.167753
-0.209966
-0.249295
-0.283547
-0.311461
-0.332855
-0.348318
-0.358674
-0.364497
-0.36595
-0.362881
-0.35498
-0.341928
-0.323574
-0.300043
-0.271801
-0.239646
-0.204626
-0.167905
-0.130638
-0.0938772
-0.0585444
-0.025429
0.00463622
0.0318356
0.0547769
0.0731572
0.0866483
0.0950868
0.09857
0.0974579
0.0924882
0.0845217
0.0748512
0.0643842
0.0545052
0.0453479
0.0379823
0.0310297
0.0257044
0.0187438
0.0131078
0.00281354
0.00132641
-0.00485141
-0.017772
-0.0374053
-0.0629603
-0.093377
-0.12732
-0.163113
-0.198849
-0.232565
-0.262566
-0.287739
-0.307667
-0.322482
-0.332565
-0.338233
-0.339603
-0.336615
-0.32913
-0.317014
-0.300264
-0.279078
-0.253899
-0.225397
-0.19442
-0.161904
-0.128787
-0.0959335
-0.0641111
-0.0339469
-0.00583131
0.0188531
0.0404815
0.0584224
0.0723087
0.0819604
0.0873923
0.0888283
0.0867875
0.0818781
0.0750814
0.0670401
0.0588744
0.0506097
0.0432726
0.0357495
0.0293337
0.021274
0.0143463
0.00343353
-0.0197609
-0.0250551
-0.0361412
-0.0529477
-0.0747858
-0.100726
-0.129651
-0.16021
-0.190886
-0.220139
-0.246606
-0.269296
-0.287686
-0.301649
-0.311285
-0.316727
-0.318034
-0.315185
-0.308139
-0.296875
-0.281482
-0.262203
-0.239458
-0.21383
-0.186029
-0.156827
-0.127003
-0.0972828
-0.0683245
-0.0406941
-0.0148835
0.00834268
0.0288621
0.0462615
0.0602162
0.0705427
0.0772069
0.0803385
0.0803105
0.0775544
0.0728332
0.0666013
0.0597935
0.0523891
0.0453483
0.0377334
0.0308418
0.0223223
0.0147583
0.00374498
-0.0370288
-0.0416081
-0.0512047
-0.0657363
-0.0846023
-0.106998
-0.131981
-0.158443
-0.185148
-0.210844
-0.234398
-0.254925
-0.271856
-0.284919
-0.294037
-0.299215
-0.300457
-0.297754
-0.291118
-0.280599
-0.266339
-0.248607
-0.227802
-0.204444
-0.179146
-0.152563
-0.125356
-0.0981486
-0.0715156
-0.045973
-0.021995
-8.49321e-05
0.0194559
0.036291
0.0501289
0.0607867
0.0682012
0.0724405
0.0737792
0.0725295
0.0693008
0.0644317
0.0587163
0.0521064
0.0454798
0.0380384
0.0310412
0.0224482
0.0146627
0.00385273
-0.0509904
-0.0549987
-0.0634032
-0.0761246
-0.0926377
-0.112246
-0.134146
-0.157409
-0.181004
-0.20388
-0.225068
-0.243766
-0.259396
-0.271604
-0.280202
-0.285105
-0.286274
-0.283702
-0.277426
-0.267535
-0.254206
-0.237716
-0.21845
-0.196881
-0.17355
-0.149029
-0.123893
-0.098687
-0.0739226
-0.0500653
-0.0275483
-0.00677877
0.0119089
0.0282041
0.0418356
0.0526206
0.0604778
0.065434
0.0676977
0.0675031
0.0653521
0.0615066
0.0566613
0.050752
0.0445558
0.0374074
0.0305066
0.0220524
0.014289
0.00383654
-0.0620565
-0.0656177
-0.073087
-0.0843938
-0.0990753
-0.116523
-0.136043
-0.156837
-0.178024
-0.198697
-0.218003
-0.235205
-0.249731
-0.26118
-0.269299
-0.273942
-0.275037
-0.272571
-0.266593
-0.257215
-0.244631
-0.229124
-0.211062
-0.190884
-0.169081
-0.146164
-0.122644
-0.0990092
-0.0757194
-0.0531979
-0.0318413
-0.0120142
0.00595308
0.0217656
0.0351633
0.0459633
0.0540722
0.0594899
0.0623796
0.0629234
0.0615489
0.0584631
0.0542831
0.0489579
0.0431632
0.0363453
0.0296341
0.0214149
0.0137987
0.00375493
-0.0705501
-0.0737714
-0.08053
-0.0907639
-0.10406
-0.11988
-0.137609
-0.156546
-0.175916
-0.194916
-0.212772
-0.2288
-0.242436
-0.253255
-0.260965
-0.265381
-0.266407
-0.264021
-0.258277
-0.249301
-0.237295
-0.222541
-0.205395
-0.186272
-0.165625
-0.143923
-0.121631
-0.0991926
-0.0770315
-0.0555378
-0.0350798
-0.0159973
0.00139044
0.0167989
0.0299757
0.0407374
0.0489831
0.0546946
0.0580042
0.0590588
0.0582342
0.0556978
0.0519984
0.047027
0.0416854
0.0351902
0.0286916
0.0207279
0.0133028
0.00364967
-0.0767166
-0.0796933
-0.0859398
-0.0954021
-0.107705
-0.122357
-0.138805
-0.156415
-0.174483
-0.192275
-0.209077
-0.224237
-0.237204
-0.247541
-0.254932
-0.259168
-0.260135
-0.257805
-0.252235
-0.243554
-0.231969
-0.217761
-0.201278
-0.182914
-0.163099
-0.142271
-0.120863
-0.0992906
-0.077948
-0.0572027
-0.0374044
-0.0188739
-0.00192128
0.0131756
0.0261695
0.0368772
0.0451926
0.051086
0.0546688
0.0560653
0.0556163
0.0534669
0.0501307
0.0455309
0.0404214
0.0341715
0.0278592
0.0201206
0.0128765
0.00355
-0.0807328
-0.0835519
-0.0894666
-0.0984296
-0.11009
-0.123991
-0.139613
-0.156366
-0.173592
-0.190601
-0.206715
-0.221304
-0.233825
-0.243837
-0.251009
-0.25512
-0.256045
-0.253751
-0.248294
-0.239807
-0.228498
-0.214646
-0.198592
-0.180722
-0.161445
-0.141183
-0.120349
-0.0993384
-0.078529
-0.0582727
-0.0389068
-0.0207412
-0.00407904
0.0108062
0.0236709
0.0343316
0.0426795
0.0486774
0.0524247
0.0540313
0.0538168
0.0519146
0.0488165
0.0444507
0.0395082
0.0334271
0.0272492
0.0196763
0.0125664
0.00347783
-0.0827101
-0.0854541
-0.0912059
-0.0999231
-0.111269
-0.124801
-0.140019
-0.156352
-0.173166
-0.18979
-0.205564
-0.21987
-0.232169
-0.242017
-0.249079
-0.253126
-0.254028
-0.251752
-0.246351
-0.23796
-0.226787
-0.21311
-0.197268
-0.179639
-0.160628
-0.140643
-0.120091
-0.0993573
-0.0788107
-0.0587959
-0.0396433
-0.021659
-0.00514249
0.00963579
0.0224339
0.0330682
0.0414284
0.0474741
0.0512983
0.0530054
0.0529031
0.051122
0.0481385
0.0438906
0.039031
0.0330412
0.0269239
0.0194507
0.012394
0.00345404
0.149289
0.146539
0.140759
0.131967
0.120454
0.106593
0.0907964
0.0735336
0.0553233
0.0367064
0.0182099
0.000313976
-0.0165735
-0.0321324
-0.0461328
-0.0584281
-0.0689401
-0.0776417
-0.0845419
-0.0896717
-0.0930726
-0.0947921
-0.0948797
-0.0933891
-0.0903839
-0.0859511
-0.0802084
-0.073315
-0.0654714
-0.0569212
-0.0479372
-0.0388123
-0.0298361
-0.0212803
-0.0133822
-0.00632101
-0.000240901
0.00482141
0.00879617
0.0118345
0.0138369
0.0152351
0.0156487
0.0160193
0.0151666
0.0150417
0.0127247
0.0120996
0.00715554
0.00525461
0.151272
0.148456
0.142532
0.133523
0.121732
0.107545
0.0913943
0.0737659
0.0552006
0.0362594
0.0174859
-0.000628879
-0.0176734
-0.0333308
-0.0473798
-0.0596848
-0.0701789
-0.0788458
-0.0857035
-0.0907904
-0.0941529
-0.0958413
-0.0959049
-0.0943954
-0.0913723
-0.0869176
-0.0811441
-0.0742074
-0.0663061
-0.0576841
-0.0486161
-0.0393987
-0.0303253
-0.021672
-0.0136796
-0.00652981
-0.000369047
0.00476703
0.00880569
0.0119045
0.0139549
0.015406
0.015851
0.0162735
0.0154262
0.0153576
0.0129907
0.012421
0.00731083
0.00544739
0.155294
0.152339
0.14612
0.13667
0.124311
0.109462
0.0925855
0.0742105
0.0549208
0.0353194
0.0159847
-0.00257042
-0.0199275
-0.0357773
-0.0499172
-0.0622348
-0.0726871
-0.0812793
-0.0880479
-0.0930462
-0.0963314
-0.0979589
-0.0979771
-0.0964335
-0.0933788
-0.0888843
-0.0830527
-0.0760318
-0.0680158
-0.059249
-0.0500106
-0.0406045
-0.0313328
-0.0224802
-0.0142954
-0.006965
-0.000639929
0.00464535
0.00881454
0.0120336
0.0141849
0.0157363
0.0162565
0.0167665
0.0159598
0.0159631
0.0135596
0.0130109
0.00768487
0.00572916
0.161452
0.158281
0.151609
0.141476
0.128239
0.112361
0.0943583
0.0748243
0.0544119
0.0337917
0.0135972
-0.00562376
-0.0234441
-0.0395696
-0.053829
-0.0661481
-0.0765217
-0.0849882
-0.0916128
-0.0964724
-0.0996404
-0.10118
-0.101137
-0.0995528
-0.0964626
-0.09192
-0.0860105
-0.0788691
-0.0706829
-0.0616965
-0.0521961
-0.0424976
-0.0329177
-0.0237553
-0.0152718
-0.00766163
-0.00108316
0.00443145
0.00880031
0.0122026
0.0145082
0.0162107
0.01685
0.0174875
0.016758
0.0168563
0.0144309
0.0138754
0.0082823
0.00610377
0.169903
0.166432
0.159131
0.148049
0.133588
0.116271
0.0966933
0.0755367
0.0535564
0.0315214
0.0101467
-0.00997146
-0.0283969
-0.0448628
-0.0592478
-0.0715349
-0.0817723
-0.0900451
-0.096458
-0.101121
-0.104131
-0.105562
-0.105453
-0.103835
-0.100722
-0.0961383
-0.0901439
-0.0828537
-0.074444
-0.0651596
-0.0552969
-0.0451899
-0.0351774
-0.0255794
-0.0166769
-0.00867574
-0.00174526
0.00408627
0.00872906
0.012381
0.0148981
0.0168032
0.0176127
0.018415
0.0178172
0.0180238
0.0156256
0.0150034
0.0091405
0.00653786
0.180864
0.176998
0.168871
0.156538
0.140457
0.121232
0.0995571
0.0762399
0.0521769
0.0282774
0.00537086
-0.0158806
-0.0350364
-0.0518774
-0.0663595
-0.0785475
-0.088562
-0.0965485
-0.102664
-0.107063
-0.109874
-0.111186
-0.11102
-0.109399
-0.106302
-0.10171
-0.0956432
-0.0881883
-0.0795051
-0.0698383
-0.0594991
-0.0488479
-0.0382557
-0.0280732
-0.01861
-0.0100878
-0.00269207
0.00355512
0.0085537
0.0125266
0.0153172
0.0174771
0.0185165
0.0195194
0.0191299
0.0194531
0.0171693
0.0163916
0.0103033
0.00699626
0.194621
0.190252
0.181072
0.167139
0.148978
0.12729
0.102896
0.0767738
0.0500149
0.0237255
-0.00110411
-0.0237266
-0.0437084
-0.0609124
-0.0754123
-0.0873875
-0.0970514
-0.104625
-0.110331
-0.114385
-0.116959
-0.118161
-0.117967
-0.116413
-0.113413
-0.108883
-0.102788
-0.0951711
-0.0861684
-0.0760246
-0.0650727
-0.053711
-0.0423574
-0.0314065
-0.021209
-0.0120086
-0.00401295
0.00276444
0.00821159
0.0125833
0.0157152
0.0181835
0.0195203
0.0207622
0.0206787
0.0211389
0.01908
0.0180653
0.0117958
0.00748693
0.211536
0.206538
0.196045
0.180106
0.159321
0.1345
0.106626
0.0769038
0.0466954
0.0173862
-0.00980658
-0.0340285
-0.0548797
-0.0723629
-0.0867293
-0.098314
-0.107445
-0.114433
-0.119584
-0.123192
-0.12549
-0.126639
-0.126475
-0.125117
-0.122358
-0.11802
-0.111987
-0.104238
-0.0948745
-0.0841416
-0.0724055
-0.0601194
-0.0477696
-0.0358138
-0.0246612
-0.0145861
-0.00582547
0.00161823
0.0076219
0.0124783
0.0160267
0.0188586
0.0205657
0.0220946
0.0224287
0.0230807
0.0213531
0.0200784
0.0136035
0.00809614
0.232061
0.226289
0.214184
0.19576
0.171697
0.142921
0.110615
0.0762863
0.0416721
0.00856605
-0.0214874
-0.0475044
-0.0691755
-0.0867421
-0.100722
-0.111654
-0.119998
-0.126165
-0.130569
-0.133605
-0.135569
-0.136557
-0.136774
-0.135854
-0.133575
-0.129647
-0.123835
-0.116025
-0.106266
-0.0948038
-0.0820551
-0.068556
-0.0548933
-0.0416168
-0.0292182
-0.0180155
-0.00828139
-6.00251e-06
0.0066825
0.01212
0.0161671
0.0194189
0.0215698
0.0234518
0.0243206
0.0252603
0.023938
0.0224572
0.0156474
0.00896031
0.25675
0.250037
0.23598
0.214502
0.186375
0.152615
0.114658
0.074416
0.0341476
-0.00374192
-0.0372235
-0.0651589
-0.0874394
-0.104718
-0.117913
-0.127818
-0.135024
-0.140051
-0.143454
-0.145778
-0.147431
-0.148601
-0.149272
-0.149111
-0.147699
-0.144539
-0.139212
-0.131468
-0.121283
-0.108905
-0.0948259
-0.0797084
-0.0642893
-0.0492558
-0.0352164
-0.0225514
-0.011574
-0.00226151
0.00526689
0.0113952
0.0160289
0.0197567
0.0224187
0.0247424
0.0262577
0.0275943
0.0266874
0.025075
0.0177202
0.0101206
0.286272
0.278431
0.262041
0.23684
0.203697
0.163635