/*--------------------------------*- C++ -*----------------------------------*\
  =========                 |
  \\      /  F ield         | OpenFOAM: The Open Source CFD Toolbox
   \\    /   O peration     | Website:  https://openfoam.org
    \\  /    A nd           | Version:  8
     \\/     M anipulation  |
\*---------------------------------------------------------------------------*/
FoamFile
{
    version     2.0;
    format      ascii;
    class       surfaceScalarField;
    location    "98";
    object      phi;
}
// * * * * * * * * * * * * * * * * * * * * * * * * * * * * * * * * * * * * * //

dimensions      [0 3 -1 0 0 0 0];

internalField   nonuniform List<scalar> 
34404
(
0.00534165
-8.31937e-06
4.51803e-09
0.00536652
-2.48573e-05
-8.69651e-09
0.00540717
-4.06452e-05
-1.19534e-08
0.00546224
-5.50567e-05
-6.4293e-09
0.00552983
-6.75869e-05
-3.19095e-09
0.00560765
-7.78204e-05
-2.54639e-09
0.00569311
-8.54557e-05
-1.29759e-09
0.00578344
-9.03304e-05
3.47011e-10
0.00587587
-9.24393e-05
2.7159e-09
0.0059678
-9.19342e-05
4.59975e-09
0.0060569
-8.91045e-05
5.91765e-09
0.00614123
-8.43382e-05
6.5354e-09
0.00621929
-7.80657e-05
6.4373e-09
0.00628999
-7.07004e-05
5.7762e-09
0.00635257
-6.25913e-05
4.78813e-09
0.00640656
-5.39926e-05
3.75134e-09
0.00645162
-4.50592e-05
2.84494e-09
0.00648747
-3.58551e-05
2.15384e-09
0.00651384
-2.63675e-05
1.72682e-09
0.00653037
-1.65303e-05
1.52572e-09
0.00653661
-6.24151e-06
1.46354e-09
0.00653202
4.5832e-06
2.03102e-09
0.00651599
1.60326e-05
2.87025e-09
0.00648786
2.81206e-05
3.58974e-09
0.00644708
4.07816e-05
4.02502e-09
0.00639321
5.38588e-05
4.29965e-09
0.00632611
6.70981e-05
4.13653e-09
0.00624593
8.01747e-05
3.78251e-09
0.00615323
9.26995e-05
2.88691e-09
0.00604895
0.000104278
2.07272e-09
0.00593445
0.000114502
7.59614e-10
0.0058114
0.000123045
1.10595e-10
0.00568183
0.000129576
-1.03052e-09
0.00554789
0.000133939
-1.39671e-09
0.00541202
0.000135875
-1.75498e-09
0.00527657
0.000135452
-2.04551e-09
0.00514424
0.000132327
-6.7756e-10
0.00501736
0.00012688
-2.80257e-09
0.00489902
0.000118341
3.45895e-09
0.00479135
0.000107678
-6.10136e-09
0.00469813
9.32001e-05
1.40193e-08
0.0046213
7.68472e-05
-1.77879e-08
0.00456532
5.59424e-05
3.84067e-08
0.00453268
3.2694e-05
-4.98723e-08
0.00452655
6.03743e-06
8.88999e-08
0.00455314
-2.64692e-05
-1.20461e-07
0.00460805
-5.50796e-05
1.73137e-07
0.0047083
-0.00010001
-2.43139e-07
0.00482947
-0.000121403
2.36432e-07
-0.000182232
-2.7668e-07
0.00534187
-1.68569e-05
4.25656e-09
0.00536734
-5.03172e-05
-8.98462e-09
0.00540898
-8.2277e-05
-1.20012e-08
0.00546539
-0.000111458
-6.51652e-09
0.00553461
-0.000136808
-3.40829e-09
0.00561428
-0.000157482
-2.67543e-09
0.00570169
-0.000172867
-1.28098e-09
0.00579399
-0.00018263
4.81113e-10
0.00588831
-0.000186761
2.99344e-09
0.00598195
-0.000185577
4.96177e-09
0.00607252
-0.000179682
6.31026e-09
0.00615806
-0.000169886
6.88622e-09
0.00623707
-0.000157084
6.68301e-09
0.0063085
-0.00014213
5.89301e-09
0.00637164
-0.000125739
4.80352e-09
0.00642607
-0.000108424
3.72019e-09
0.00647149
-9.04898e-05
2.81245e-09
0.00650769
-7.20576e-05
2.12318e-09
0.00653441
-5.30883e-05
1.68262e-09
0.00655132
-3.34365e-05
1.47808e-09
0.00655795
-1.28732e-05
1.38178e-09
0.00655375
8.77922e-06
1.97275e-09
0.00653806
3.17224e-05
2.91439e-09
0.00651018
5.59952e-05
3.71241e-09
0.00646948
8.14737e-05
4.20545e-09
0.0064155
0.000107841
4.53121e-09
0.00634801
0.000134579
4.41565e-09
0.00626716
0.00016102
4.10612e-09
0.00617349
0.000186364
3.22406e-09
0.00606797
0.0002098
2.399e-09
0.00595198
0.000230492
1.10685e-09
0.00582725
0.00024777
3.35622e-10
0.00569586
0.000260968
-7.54064e-10
0.00556003
0.00026977
-1.17218e-09
0.00542224
0.000273671
-1.5712e-09
0.00528488
0.000272809
-1.94062e-09
0.0051507
0.000266509
-6.21736e-10
0.00502203
0.000255558
-2.8415e-09
0.00490199
0.000238373
3.39883e-09
0.00479266
0.000217013
-6.3166e-09
0.004698
0.000187848
1.38078e-08
0.00461969
0.000155174
-1.81951e-08
0.00456266
0.000112935
3.81023e-08
0.00452891
6.64902e-05
-5.02367e-08
0.0045225
1.23661e-05
8.87386e-08
0.00454889
-5.27418e-05
-1.20834e-07
0.00460501
-0.000111369
1.73362e-07
0.00470669
-0.00020145
-2.4299e-07
0.00483107
-0.000246019
2.37366e-07
-0.000368422
-2.77043e-07
0.00534229
-2.58145e-05
4.3492e-09
0.00536902
-7.70414e-05
-9.51952e-09
0.00541272
-0.000125963
-1.25918e-08
0.00547189
-0.000170618
-6.91087e-09
0.00554446
-0.000209375
-3.69872e-09
0.0056279
-0.000240916
-2.82893e-09
0.00571932
-0.000264286
-1.16728e-09
0.00581564
-0.000278961
9.33028e-10
0.00591381
-0.000284928
3.76721e-09
0.00601092
-0.000282697
6.01708e-09
0.00610447
-0.000273242
7.49015e-09
0.00619244
-0.000257866
7.97976e-09
0.00627336
-0.000238004
7.50917e-09
0.00634623
-0.000215007
6.38538e-09
0.00641047
-0.000189986
5.01975e-09
0.00646576
-0.00016372
3.76358e-09
0.00651193
-0.000136657
2.7753e-09
0.00654882
-0.000108955
2.03225e-09
0.00657625
-8.05229e-05
1.57535e-09
0.00659392
-5.11034e-05
1.36971e-09
0.00660136
-2.03116e-05
1.37184e-09
0.00659795
1.218e-05
2.01909e-09
0.00658297
4.67052e-05
3.12292e-09
0.0065556
8.33632e-05
4.10981e-09
0.00651508
0.000121983
4.76326e-09
0.00646084
0.000162082
5.22353e-09
0.00639256
0.000202854
5.16913e-09
0.00631032
0.000243251
4.85084e-09
0.00621466
0.000282019
3.90326e-09
0.00610658
0.000317881
2.99876e-09
0.00598753
0.000349534
1.59995e-09
0.00585937
0.000375932
6.45531e-10
0.00572427
0.000396067
-5.18024e-10
0.00558459
0.000409454
-1.02062e-09
0.0054429
0.000415361
-1.4744e-09
0.0053017
0.000414016
-1.91957e-09
0.00516377
0.000404435
-5.33995e-10
0.00503149
0.000387847
-2.91967e-09
0.00490803
0.000361823
3.60694e-09
0.00479542
0.000329636
-6.67051e-09
0.00469778
0.000285465
1.44043e-08
0.00461662
0.000236357
-1.8986e-08
0.00455729
0.000172223
3.96953e-08
0.00452165
0.000102185
-5.22412e-08
0.00451422
1.97002e-05
9.2238e-08
0.00454101
-7.93988e-05
-1.25784e-07
0.00459883
-0.000169373
1.79935e-07
0.00470477
-0.000307141
-2.51618e-07
0.00483455
-0.000376039
2.44947e-07
-0.000563534
-2.86288e-07
0.00534294
-3.5427e-05
4.59784e-09
0.00537163
-0.000105714
-1.0344e-08
0.0054185
-0.000172824
-1.36677e-08
0.00548194
-0.000234053
-7.60129e-09
0.00555971
-0.000287132
-4.12192e-09
0.00564901
-0.000330215
-3.04632e-09
0.00574667
-0.000361943
-1.02401e-09
0.00584927
-0.000381567
1.6949e-09
0.00595341
-0.000389071
5.12632e-09
0.00605591
-0.000385203
7.8704e-09
0.00615405
-0.000371395
9.54279e-09
0.00624574
-0.000349566
9.84836e-09
0.00632954
-0.000321807
8.89035e-09
0.00640458
-0.000290059
7.18691e-09
0.00647046
-0.000255876
5.34468e-09
0.00652705
-0.000220309
3.79759e-09
0.00657432
-0.000183929
2.6747e-09
0.00661227
-0.000146905
1.87227e-09
0.0066408
-0.000109056
1.3666e-09
0.00665966
-6.99602e-05
1.17374e-09
0.00666836
-2.90166e-05
1.20525e-09
0.00666622
1.43165e-05
1.95435e-09
0.00665237
6.05564e-05
3.40833e-09
0.00662581
0.000109912
4.75613e-09
0.0065856
0.000162186
5.70026e-09
0.00653096
0.000216718
6.39148e-09
0.00646143
0.000272375
6.44858e-09
0.00637701
0.000327668
6.12623e-09
0.00627821
0.000380815
5.04509e-09
0.00616609
0.000429993
3.94952e-09
0.00604225
0.000473372
2.28342e-09
0.00590871
0.000509479
1.11005e-09
0.00576783
0.000536944
-1.87825e-10
0.00562217
0.000555113
-8.61554e-10
0.00547447
0.000563064
-1.37727e-09
0.00532736
0.000561131
-1.92648e-09
0.00518371
0.00054808
-3.70214e-10
0.00504594
0.00052562
-3.09817e-09
0.00491731
0.000490447
4.09956e-09
0.00479974
0.000447219
-7.12618e-09
0.00469764
0.000387548
1.56262e-08
0.0046122
0.000321818
-2.01234e-08
0.00454942
0.000234961
4.20849e-08
0.00451102
0.00014064
-5.50106e-08
0.00450219
2.84287e-05
9.67124e-08
0.00452983
-0.000106908
-1.32254e-07
0.00459075
-0.000230481
1.88389e-07
0.00470292
-0.000419041
-2.62964e-07
0.00484124
-0.000514614
2.53936e-07
-0.000769746
-2.98357e-07
0.00534385
-4.59493e-05
4.92436e-09
0.00537524
-0.00013709
-1.15207e-08
0.00542653
-0.000224097
-1.52701e-08
0.00549593
-0.000303447
-8.70314e-09
0.00558095
-0.000372148
-4.86403e-09
0.00567848
-0.000427737
-3.48373e-09
0.0057849
-0.000468366
-9.19784e-10
0.00589633
-0.000492996
2.79501e-09
0.00600885
-0.000501604
7.21728e-09
0.00611887
-0.000495233
1.07687e-08
0.00622338
-0.000475912
1.27319e-08
0.00632016
-0.00044636
1.26802e-08
0.00640785
-0.000409511
1.08971e-08
0.00648581
-0.000368023
8.27428e-09
0.00655388
-0.00032395
5.73634e-09
0.00661218
-0.000278614
3.82863e-09
0.00666093
-0.000232682
2.56712e-09
0.00670031
-0.000186288
1.69258e-09
0.00673036
-0.00013911
1.06984e-09
0.0067509
-9.04978e-05
9.04223e-10
0.00676141
-3.95319e-05
9.64205e-10
0.0067611
1.46281e-05
1.76173e-09
0.00674889
7.27572e-05
3.79588e-09
0.00672355
0.000135253
5.77351e-09
0.00668381
0.00020192
7.16038e-09
0.00662862
0.0002719
8.16054e-09
0.00655731
0.000343674
8.39378e-09
0.00646975
0.000415219
8.10228e-09
0.00636645
0.000484112
6.83389e-09
0.00624856
0.000547871
5.44634e-09
0.00611789
0.00060404
3.38213e-09
0.00597672
0.000650652
1.89289e-09
0.0058277
0.000685958
2.47811e-10
0.00567369
0.000709129
-6.15725e-10
0.00551764
0.000719115
-1.19334e-09
0.00536238
0.000716388
-1.95389e-09
0.00521091
0.000699548
-6.73888e-11
0.00506569
0.000670846
-3.40309e-09
0.00493007
0.000626059
4.86482e-09
0.00480584
0.000571461
-7.89187e-09
0.00469775
0.000495618
1.7162e-08
0.00460663
0.00041296
-2.14032e-08
0.00453919
0.00030236
4.44692e-08
0.0044973
0.000182583
-5.67243e-08
0.00448677
3.88605e-05
1.01004e-07
0.00451609
-0.000136096
-1.3576e-07
0.00458155
-0.000296131
1.93375e-07
0.0047013
-0.000538517
-2.69434e-07
0.00484977
-0.00066334
2.57142e-07
-0.000985178
-3.07737e-07
0.00534505
-5.7668e-05
5.35155e-09
0.00537999
-0.000172014
-1.29834e-08
0.00543709
-0.000281183
-1.73938e-08
0.00551437
-0.000380721
-1.0238e-08
0.00560903
-0.000466801
-5.98286e-09
0.00571753
-0.000536227
-4.20405e-09
0.00583568
-0.000586515
-8.49358e-10
0.00595892
-0.000616241
4.39511e-09
0.00608265
-0.00062535
1.04031e-08
0.00620266
-0.000615256
1.52753e-08
0.00631552
-0.000588789
1.76489e-08
0.0064189
-0.000549754
1.68859e-08
0.00651156
-0.000502189
1.36606e-08
0.00659318
-0.000449649
9.55766e-09
0.00666397
-0.000394751
6.05695e-09
0.00672442
-0.000339065
3.77946e-09
0.00677504
-0.000283305
2.44086e-09
0.00681627
-0.000227516
1.43429e-09
0.00684833
-0.000171171
5.23418e-10
0.00687112
-0.000113295
3.21236e-10
0.00688413
-5.25353e-05
6.67396e-10
0.00688633
1.24195e-05
1.45707e-09
0.00687644
8.26451e-05
4.34499e-09
0.0068528
0.000158885
7.19354e-09
0.00681375
0.000240968
9.21536e-09
0.00675783
0.000327806
1.06679e-08
0.00668408
0.000417408
1.11715e-08
0.00659221
0.00050708
1.0936e-08
0.00648272
0.000593596
9.42943e-09
0.00635694
0.000673644
7.60429e-09
0.00621696
0.000744013
5.00115e-09
0.00606546
0.000802145
3.04435e-09
0.00590553
0.000845896
8.4235e-10
0.00574039
0.000874263
-2.62381e-10
0.00557334
0.000886165
-9.21885e-10
0.00540746
0.00088227
-2.08542e-09
0.00524589
0.000861125
3.7442e-10
0.00509112
0.000825616
-3.94011e-09
0.00494662
0.000770553
5.98643e-09
0.00481399
0.000704097
-8.98928e-09
0.00469834
0.000611251
1.90531e-08
0.00460016
0.000511162
-2.24522e-08
0.00452675
0.000375726
4.62885e-08
0.00448081
0.000228577
-5.60732e-08
0.00446839
5.11837e-05
1.00971e-07
0.00450037
-0.000167941
-1.32632e-07
0.00457096
-0.000366915
1.9101e-07
0.00469747
-0.000664759
-2.64817e-07
0.00485281
-0.000818935
2.50436e-07
-0.00120121
-3.11248e-07
0.00534657
-7.09116e-05
5.92082e-09
0.00538602
-0.000211447
-1.46325e-08
0.00545055
-0.000345694
-2.01174e-08
0.00553795
-0.000468104
-1.2275e-08
0.00564505
-0.000573895
-7.62451e-09
0.00576779
-0.000658964
-5.35026e-09
0.00590124
-0.00071996
-8.29749e-10
0.00603992
-0.000754931
6.67833e-09
0.00617828
-0.000763722
1.5153e-08
0.00631121
-0.000748212
2.21585e-08
0.00643474
-0.000712341
2.5142e-08
0.00654638
-0.000661421
2.31061e-08
0.00664516
-0.000600984
1.74168e-08
0.00673121
-0.000535715
1.08977e-08
0.00680529
-0.000468836
5.71239e-09
0.00686834
-0.00040211
3.29187e-09
0.00692125
-0.000336218
2.16564e-09
0.00696478
-0.000271055
8.89413e-10
0.00699943
-0.000205816
-1.13284e-10
0.00702521
-0.000139069
-6.33782e-10
0.00704154
-6.88681e-05
-4.7126e-10
0.00704715
6.80866e-06
-6.76288e-10
0.00704044
8.93552e-05
4.62821e-09
0.00701916
0.000180147
9.09241e-09
0.00698108
0.000279036
1.21519e-08
0.00692422
0.000384658
1.42971e-08
0.00684719
0.000494423
1.51509e-08
0.00674949
0.000604767
1.49146e-08
0.00663164
0.000711426
1.30635e-08
0.00649526
0.000810019
1.06662e-08
0.00634286
0.000896402
7.31043e-09
0.00617771
0.000967294
4.56215e-09
0.00600346
0.00102015
1.70702e-09
0.00582391
0.00105381
6.32995e-11
0.00564277
0.0010673
-5.50433e-10
0.00546345
0.0010616
-2.36796e-09
0.00528924
0.00103533
1.04542e-09
0.00512267
0.00099219
-4.77442e-09
0.00496728
0.000925928
7.51073e-09
0.0048245
0.000846892
-1.04148e-08
0.00469962
0.000736105
2.12451e-08
0.004593
0.000617803
-2.28767e-08
0.00451224
0.000456439
4.70549e-08
0.00446177
0.0002791
-5.17259e-08
0.00444752
6.5346e-05
9.60847e-08
0.00448227
-0.000202573
-1.19835e-07
0.00455587
-0.000440699
1.80267e-07
0.00468328
-0.000791919
-2.46627e-07
0.00483326
-0.000969149
2.36324e-07
-0.00140275
-3.10119e-07
0.00534848
-8.60613e-05
6.67233e-09
0.00539353
-0.00025648
-1.62831e-08
0.00546736
-0.000419505
-2.36111e-08
0.00556749
-0.000568217
-1.48952e-08
0.0056904
-0.000696794
-1.00922e-08
0.0058314
-0.000799953
-7.11284e-09
0.00598456
-0.000873123
-5.98579e-10
0.00614322
-0.0009136
1.01053e-08
0.00630045
-0.000920972
2.23476e-08
0.0064499
-0.000897695
3.24997e-08
0.00658682
-0.000849304
3.61393e-08
0.00670862
-0.000783254
3.19201e-08
0.00681475
-0.000707128
2.22415e-08
0.00690605
-0.000627032
1.12345e-08
0.006984
-0.00054679
4.94957e-09
0.00705011
-0.000468222
2.54405e-09
0.00710577
-0.000391874
1.49613e-09
0.00715213
-0.000317424
2.13149e-10
0.00719003
-0.000243714
-1.78165e-09
0.00721967
-0.000168707
-2.40868e-09
0.00724041
-8.96043e-05
-2.65729e-09
0.00725053
-3.30173e-06
-9.14023e-09
0.00724814
9.17431e-05
3.96257e-09
0.00723011
0.000198169
1.09528e-08
0.00719341
0.000315723
1.56056e-08
0.00713532
0.000442726
1.91004e-08
0.00705391
0.000575813
2.07779e-08
0.00694839
0.00071026
2.06444e-08
0.00681938
0.000840422
1.82193e-08
0.00666887
0.000960514
1.49055e-08
0.00650006
0.0010652
1.04601e-08
0.00631702
0.00115033
6.57003e-09
0.00612423
0.00121293
2.90071e-09
0.00592625
0.00125178
3.16083e-10
0.00572736
0.0012662
-1.24744e-10
0.00553132
0.00125765
-2.92092e-09
0.00534164
0.00122501
1.79669e-09
0.0051608
0.00117303
-5.92636e-09
0.0049924
0.00109432
9.35977e-09
0.00483767
0.00100164
-1.19909e-08
0.0047018
0.000871953
2.353e-08
0.00458529
0.000734338
-2.21784e-08
0.00449587
0.000545811
4.64756e-08
0.00444032
0.000334689
-4.27612e-08
0.0044243
8.12784e-05
8.55254e-08
0.00445897
-0.000237139
-9.78391e-08
0.00452812
-0.00051002
1.64003e-07
0.00464224
-0.000905817
-2.21051e-07
0.00476538
-0.00109251
2.23478e-07
-0.00157471
-3.13079e-07
0.00535083
-0.000103561
7.66418e-09
0.00540271
-0.000308347
-1.75517e-08
0.00548805
-0.000504819
-2.81535e-08
0.00560401
-0.000684154
-1.81306e-08
0.00574682
-0.000839591
-1.40814e-08
0.00591105
-0.000964171
-9.93727e-09
0.00608952
-0.0010516
-2.65672e-10
0.00627398
-0.00109807
1.56473e-08
0.00645551
-0.00110253
3.42375e-08
0.00662596
-0.00106819
4.87208e-08
0.00677955
-0.00100295
5.18963e-08
0.00691363
-0.000917383
4.29958e-08
0.00702841
-0.000821932
2.64824e-08
0.00712581
-0.000724442
1.00939e-08
0.00720823
-0.000629213
3.38723e-09
0.00727788
-0.000537867
1.43367e-09
0.00733669
-0.000450692
6.02953e-10
0.00738638
-0.000367113
-1.93012e-09
0.00742822
-0.00028555
-5.11711e-09
0.00746268
-0.000203153
-6.25173e-09
0.00748904
-0.00011596
-4.51856e-09
0.00750524
-1.95088e-05
2.51115e-09
0.00750856
8.84238e-05
3.84379e-09
0.00749491
0.000211803
1.2491e-08
0.00746016
0.000350452
1.85977e-08
0.00740058
0.000502285
2.37656e-08
0.00731344
0.000662921
2.72187e-08
0.0071976
0.000826075
2.79189e-08
0.00705377
0.000984224
2.50271e-08
0.00688458
0.00112969
2.04337e-08
0.00669419
0.00125558
1.45041e-08
0.00648784
0.00135667
9.07616e-09
0.0062712
0.00142957
4.30703e-09
0.00604982
0.00147316
4.81516e-10
0.00582874
0.00148728
1.3381e-10
0.00561216
0.00147424
-3.79028e-09
0.00540378
0.00143338
2.50046e-09
0.00520599
0.00137082
-7.27992e-09
0.00502229
0.00127802
1.12327e-08
0.00485378
0.00117016
-1.33861e-08
0.00470502
0.00102069
2.54847e-08
0.00457703
0.000862351
-1.97674e-08
0.00447789
0.000644906
4.43383e-08
0.00441654
0.000396073
-2.93397e-08
0.00439753
0.000100218
6.98987e-08
0.0044235
-0.000263037
-7.22865e-08
0.00447335
-0.000560018
1.46417e-07
0.00455186
-0.000984122
-2.03557e-07
0.00462672
-0.0011676
2.18874e-07
-0.00171391
-3.35203e-07
0.00535369
-0.000123923
9.0063e-09
0.00541377
-0.000368412
-1.77369e-08
0.00551321
-0.000604221
-3.41129e-08
0.00564862
-0.000819549
-2.17442e-08
0.00581639
-0.00100734
-2.09477e-08
0.00601012
-0.00115788
-1.4969e-08
0.00622111
-0.00126259
-7.84056e-10
0.006439
-0.00131599
2.3553e-08
0.00665193
-0.00131552
5.4543e-08
0.00684907
-0.00126541
7.63203e-08
0.00702324
-0.00117719
7.61141e-08
0.00717193
-0.00106612
5.548e-08
0.00729664
-0.000946666
2.27317e-08
0.00740087
-0.000828684
5.38391e-09
0.00748821
-0.000716545
-2.00898e-09
0.00756159
-0.000611251
-1.92301e-09
0.00762364
-0.00051274
-2.14365e-09
0.00767677
-0.000420236
-6.91597e-09
0.00772292
-0.000331679
-1.27048e-08
0.00776294
-0.000243165
-1.4583e-08
0.00779606
-0.000149063
-1.10306e-08
0.00782002
-4.34668e-05
-4.5773e-09
0.00783078
7.76634e-05
-3.77526e-10
0.00782312
0.000219452
1.18623e-08
0.00779133
0.000382227
2.00938e-08
0.00773025
0.000563338
2.6351e-08
0.00763605
0.000757084
3.13421e-08
0.00750702
0.000955076
3.36354e-08
0.00734399
0.00114722
3.15752e-08
0.00715045
0.00132321
2.63815e-08
0.00693195
0.00147406
1.88581e-08
0.00669544
0.00159317
1.14443e-08
0.00644825
0.00167675
5.23334e-09
0.00619734
0.00172407
3.89565e-10
0.00594871
0.00173591
1.47305e-10
0.00570707
0.00171587
-4.89614e-09
0.00547631
0.00166415
2.99442e-09
0.00525862
0.00158851
-8.54672e-09
0.00505718
0.00147944
1.27029e-08
0.00487303
0.00135433
-1.4184e-08
0.00470937
0.00118432
2.67017e-08
0.00456827
0.00100346
-1.52369e-08
0.0044588
0.000754335
4.15232e-08
0.00439009
0.000464801
-1.48036e-08
0.00436301
0.000127241
5.76448e-08
0.00436436
-0.000264338
-5.13024e-08
0.00437417
-0.000569954
1.28731e-07
0.00439565
-0.00100539
-2.07861e-07
0.00441852
-0.00119069
2.24321e-07
-0.00183722
-3.83364e-07
0.00535712
-0.00014772
1.09297e-08
0.00542686
-0.00043813
-1.5747e-08
0.00554341
-0.00072073
-4.1825e-08
0.00570249
-0.000978603
-2.48025e-08
0.00590152
-0.00120634
-3.25663e-08
0.00613272
-0.00138906
-2.30492e-08
0.0063857
-0.00151556
-4.20107e-09
0.00664721
-0.00157753
3.1379e-08
0.00690088
-0.00156927
8.46341e-08
0.00713197
-0.00149662
1.20932e-07
0.0073313
-0.00137664
1.15787e-07
0.00749681
-0.00123171
6.98135e-08
0.00763224
-0.00108211
1.76009e-08
0.00774337
-0.0009398
-1.19872e-08
0.00783516
-0.000808308
-2.03095e-08
0.00791131
-0.000687391
-1.16464e-08
0.00797525
-0.000576672
-1.06963e-08
0.00803046
-0.00047543
-1.91321e-08
0.00807991
-0.000381093
-2.83665e-08
0.00812512
-0.000288345
-3.10915e-08
0.00816546
-0.000189379
-2.58317e-08
0.00819826
-7.62504e-05
-1.57166e-08
0.00821842
5.75082e-05
-1.06617e-08
0.00821902
0.000218851
-7.89557e-10
0.00819229
0.000408951
1.26612e-08
0.008131
0.000624604
2.33081e-08
0.00802955
0.000858501
3.05665e-08
0.00788517
0.00109943
3.35685e-08
0.00769867
0.00133368
3.25668e-08
0.00747457
0.00154728
2.86214e-08
0.00722036
0.00172824
2.12943e-08
0.00694542
0.0018681
1.22811e-08
0.00665952
0.00196264
4.51842e-09
0.00637159
0.00201201
-1.09774e-09
0.00608898
0.00201852
-1.00782e-09
0.00581706
0.00198781
-6.58778e-09
0.0055597
0.00192151
2.90792e-09
0.00531892
0.0018293
-9.45554e-09
0.00509724
0.00170111
1.33679e-08
0.00489543
0.00155615
-1.39392e-08
0.00471482
0.0013649
2.72371e-08
0.00455922
0.00115907
-9.12487e-09
0.00443908
0.000874441
3.83495e-08
0.00435966
0.000544219
-3.93041e-09
0.00431262
0.000174248
3.64271e-08
0.00426881
-0.000220487
-4.40433e-08
0.0042205
-0.000521758
1.10602e-07
0.00418081
-0.000965473
-2.27189e-07
0.00417682
-0.00118694
2.40392e-07
-0.00197456
-4.39389e-07
0.00536113
-0.000175527
1.39903e-08
0.00544201
-0.000518996
-9.93962e-09
0.00557909
-0.000857766
-5.13303e-08
0.00576652
-0.001166
-2.57394e-08
0.00600478
-0.00144455
-5.12591e-08
0.00628361
-0.00166786
-3.17689e-08
0.00659141
-0.00182335
-9.56383e-09
0.00691023
-0.00189639
4.02107e-08
0.00721677
-0.00187592
1.22191e-07
0.00749082
-0.00177085
1.75661e-07
0.00772004
-0.00160603
1.66548e-07
0.00790334
-0.00141509
8.15257e-08
0.00804814
-0.00122693
7.32785e-09
0.00816354
-0.00105515
-4.98641e-08
0.00825605
-0.000900766
-5.15534e-08
0.00833019
-0.000761502
-3.16571e-08
0.00839059
-0.000637042
-2.82735e-08
0.00844245
-0.000527251
-4.11709e-08
0.00849039
-0.000428978
-5.33511e-08
0.00853708
-0.000334981
-5.5002e-08
0.00858264
-0.000234892
-4.78388e-08
0.00862412
-0.00011769
-3.53885e-08
0.00865554
2.61205e-05
-3.43193e-08
0.0086676
0.000206831
-3.82502e-08
0.00865042
0.000426154
-2.79033e-08
0.00859384
0.000681195
-7.6752e-09
0.00848926
0.00096307
9.07677e-09
0.00833153
0.00125714
1.9472e-08
0.00812045
0.00154474
2.14407e-08
0.00786139
0.00180633
1.90419e-08
0.00756437
0.00202524
1.36182e-08
0.00724226
0.00219021
6.45697e-09
0.00690847
0.00229642
1.77681e-09
0.00657491
0.00234558
-4.74015e-09
0.00625089
0.00234254
-3.58491e-09
0.00594269
0.00229601
-9.02333e-09
0.00565407
0.00221013
1.86997e-09
0.00538679
0.00209659
-1.00182e-08
0.00514237
0.00194551
1.28629e-08
0.00492076
0.00177777
-1.24667e-08
0.00472135
0.00156428
2.75426e-08
0.00455054
0.00132988
-1.5938e-09
0.00441873
0.00100622
3.27092e-08
0.00432136
0.000641593
2.32313e-10
0.00423699
0.0002586
1.7626e-08
0.0041309
-0.000114348
-4.708e-08
0.00402216
-0.000413123
9.62609e-08
0.00394334
-0.000886414
-2.33136e-07
0.00395382
-0.00119768
2.601e-07
-0.00214801
-4.75033e-07
0.00536557
-0.00020778
1.95033e-08
0.00545911
-0.000612539
-4.07519e-10
0.00562026
-0.00101886
-6.13859e-08
0.00584103
-0.00138675
-2.45769e-08
0.00612864
-0.00173208
-8.19327e-08
0.00646784
-0.00200702
-3.48068e-08
0.00684811
-0.00220361
-1.68475e-08
0.00724341
-0.00229176
6.94246e-08
0.00761881
-0.00225151
1.79917e-07
0.00794567
-0.00209793
2.20042e-07
0.0082064
-0.00186694
1.79271e-07
0.00840238
-0.00161112
5.47978e-08
0.00854784
-0.00137234
-4.77839e-08
0.00865653
-0.00116372
-1.12278e-07
0.00873697
-0.000981115
-9.34255e-08
0.00879478
-0.000819261
-5.13699e-08
0.00883691
-0.000679118
-4.6048e-08
0.00887124
-0.000561523
-6.29823e-08
0.00890499
-0.000462653
-7.60931e-08
0.00894262
-0.000372533
-7.27665e-08
0.00898564
-0.000277844
-6.60328e-08
0.00903214
-0.000164144
-5.03446e-08
0.00907689
-1.86061e-05
-2.28359e-08
0.00910587
0.000177912
-6.27917e-08
0.00910803
0.000424091
-9.87702e-08
0.00906909
0.000720237
-9.6131e-08
0.00897582
0.00105641
-7.12757e-08
0.00881832
0.00141468
-4.42232e-08
0.00859258
0.0017705
-2.28488e-08
0.00830272
0.0020962
-1.09536e-08
0.00796113
0.00236684
-8.79009e-09
0.00758573
0.00256561
-1.19627e-08
0.00719573
0.00268643
-1.40401e-08
0.00680784
0.00273349
-1.5732e-08
0.00643454
0.00271584
-1.00226e-08
0.00608367
0.0026469
-1.26745e-08
0.00575888
0.00253492
7.19109e-11
0.00546167
0.00239381
-9.99791e-09
0.00519213
0.00221504
1.14551e-08
0.00494849
0.00202142
-9.64253e-09
0.00472903
0.00178371
2.79064e-08
0.00454305
0.00151586
5.37073e-09
0.00439655
0.00115269
2.3697e-08
0.00426968
0.000768471
-2.22843e-09
0.00413128
0.000396992
-4.15166e-10
0.00395966
5.73299e-05
-5.25638e-08
0.00380939
-0.000262945
9.05748e-08
0.00372733
-0.000804147
-2.07871e-07
0.00378148
-0.0012521
2.61721e-07
-0.00235707
-4.82912e-07
0.00537006
-0.00024453
3.01082e-08
0.00547793
-0.000720418
9.74642e-09
0.00566581
-0.00120667
-6.65415e-08
0.00592545
-0.00164637
-2.77594e-08
0.00627452
-0.00208101
-1.35983e-07
0.00668891
-0.00242136
-4.38428e-08
0.00716508
-0.00267973
-3.7376e-08
0.00766466
-0.00279147
1.27164e-07
0.00813009
-0.00271724
2.9781e-07
0.00851443
-0.00248252
2.59454e-07
0.00879271
-0.0021453
8.06474e-08
0.00897688
-0.00179518
-9.82858e-08
0.00909405
-0.00148927
-2.48604e-07
0.00916527
-0.00123471
-2.35443e-07
0.00920163
-0.00101735
-1.17843e-07
0.00921111
-0.000828697
-4.34757e-08
0.0092041
-0.000672066
-3.79417e-08
0.0091927
-0.000550066
-6.0995e-08
0.00918731
-0.000457193
-7.17795e-08
0.00919537
-0.000380534
-6.19503e-08
0.00922072
-0.000303134
-5.5847e-08
0.00926385
-0.000207217
-5.50501e-08
0.00931999
-7.47082e-05
-4.00453e-08
0.00937701
0.000120909
-1.59741e-08
0.0094185
0.00038268
-7.75405e-08
0.00942567
0.000713201
-1.33229e-07
0.00937825
0.00110398
-1.62828e-07
0.00925802
0.00153508
-1.64048e-07
0.00905228
0.00197638
-1.37641e-07
0.00875839
0.00239019
-9.81234e-08
0.00838758
0.00273771
-6.65954e-08
0.00796351
0.00298973
-5.03827e-08
0.00751474
0.00313524
-4.20978e-08
0.00706664
0.00318163
-3.64068e-08
0.00663755
0.00314496
-2.37714e-08
0.00623818
0.00304628
-2.03057e-08
0.00587264
0.00290047
-3.73853e-09
0.00554237
0.0027241
-1.02922e-08
0.0052455
0.0025119
9.31967e-09
0.0049779
0.00228902
-5.45414e-09
0.00473822
0.00202336
2.8412e-08
0.00453713
0.00171695
8.42138e-09
0.00436993
0.00131989
1.00153e-08
0.00420059
0.000937819
-1.07485e-08
0.00400084
0.000596752
-1.21892e-08
0.00377816
0.000280027
-1.65108e-08
0.00361577
-0.000100643
9.17555e-08
0.00355769
-0.000745903
-1.65785e-07
0.00365864
-0.00135328
2.32242e-07
-0.00258452
-4.70533e-07
0.00537407
-0.000285315
5.04297e-08
0.00549772
-0.000844094
2.42876e-08
0.00571236
-0.00142126
-5.03307e-08
0.00601784
-0.0019518
-4.96352e-08
0.00644058
-0.00250353
-2.23466e-07
0.00694788
-0.00292853
-1.28795e-07
0.00755393
-0.00328566
-1.21486e-07
0.00819244
-0.0034301
1.19559e-07
0.00876874
-0.00329398
4.43617e-07
0.0091866
-0.00290078
3.93521e-07
0.00942027
-0.00237903
5.67938e-08
0.00952011
-0.00189464
-3.82541e-07
0.00953879
-0.00150737
-5.70438e-07
0.00950558
-0.00120109
-4.0152e-07
0.00943573
-0.000947394
-1.13253e-07
0.0093412
-0.000734177
4.79519e-09
0.0092371
-0.000567993
3.23341e-08
0.00913853
-0.0004515
1.01024e-09
0.00905906
-0.000377713
-5.61122e-09
0.0090099
-0.00033139
9.3348e-09
0.00899933
-0.00029257
1.00512e-08
0.00903093
-0.000238813
-3.55053e-09
0.00910073
-0.000144497
-1.07046e-08
0.00920365
1.79504e-05
4.0598e-08
0.00931714
0.000269164
2.2101e-08
0.00941818
0.000612182
-2.1375e-08
0.00947751
0.00104473
-7.78889e-08
0.00946492
0.00154781
-1.43324e-07
0.00935339
0.0020881
-1.94855e-07
0.00912447
0.00261932
-2.07564e-07
0.00877783
0.00308454
-1.8189e-07
0.00833744
0.00343027
-1.41515e-07
0.00784391
0.00362887
-1.03318e-07
0.00733839
0.00368723
-7.35346e-08
0.00685151
0.00363189
-4.48206e-08
0.00640044
0.00349738
-3.05371e-08
0.0059914
0.00330951
-8.65008e-09
0.00562621
0.0030893
-1.08858e-08
0.00530055
0.00283756
7.00696e-09
0.00500808
0.00258149
-6.21977e-10
0.00474927
0.00228214
2.75805e-08
0.00453212
0.0019341
5.1313e-09
0.00433606
0.00151595
-9.68526e-09
0.00411607
0.00115784
-2.26388e-08
0.00386118
0.00085166
-2.1523e-08
0.00361082
0.000530396
-4.72894e-09
0.00346098
4.91155e-05
8.42675e-08
0.00343583
-0.000720631
-1.27345e-07
0.00357018
-0.00148781
1.86558e-07
-0.00281165
-4.40406e-07
0.0053773
-0.000329368
8.67927e-08
0.0055157
-0.000982553
6.16479e-08
0.00575294
-0.00165851
1.41763e-08
0.00611256
-0.00231133
-9.19338e-08
0.0066137
-0.00300435
-3.10354e-07
0.00723869
-0.00355318
-3.50579e-07
0.00803803
-0.00408458
-4.19661e-07
0.00882825
-0.00422032
2.11883e-11
0.00948529
-0.00395137
3.43216e-07
0.00981637
-0.00323243
5.69276e-07
0.00984368
-0.00240664
2.94385e-07
0.00970582
-0.00175663
-1.52474e-07
0.00949469
-0.00129564
-6.05424e-07
0.00924889
-0.00095487
-4.25708e-07
0.00899051
-0.000688989
-2.31158e-08
0.00873211
-0.000475968
1.91512e-07
0.00848931
-0.000325354
1.61857e-07
0.00827529
-0.000237578
9.29993e-08
0.00810384
-0.000206354
9.06057e-08
0.00799046
-0.000218118
1.09964e-07
0.00794891
-0.00025113
1.13364e-07
0.00798746
-0.00027747
1.07003e-07
0.00810523
-0.000262366
9.67135e-08
0.00829161
-0.000168501
7.09248e-08
0.00852688
3.37751e-05
1.18679e-07
0.00877902
0.000359905
1.40682e-07
0.0090131
0.000810511
1.37696e-07
0.00918906
0.00137178
7.67446e-08
0.00926713
0.00201005
-1.66441e-08
0.00920941
0.00267716
-1.16919e-07
0.00899065
0.00330349
-1.90261e-07
0.00861737
0.00380377
-2.16882e-07
0.00813251
0.00411392
-1.93793e-07
0.00759622
0.00422366
-1.43747e-07
0.0070615
0.0041667
-8.69961e-08
0.00656107
0.00399786
-4.99812e-08
0.00610877
0.00376183
-1.65989e-08
0.00570866
0.00348942
-1.23087e-08
0.00535405
0.00319216
5.2453e-09
0.00503761
0.00289792
4.88119e-09
0.00476172
0.00255801
2.33561e-08
0.00452615
0.00216968
-4.51236e-09
0.00429433
0.0017478
-3.31434e-08
0.00402391
0.00142829
-3.19886e-08
0.00372965
0.00114594
-2.34327e-08
0.00347458
0.000785455
1.58138e-08
0.00334985
0.000173765
7.37779e-08
0.00335443
-0.00072511
-9.51191e-08
0.00350687
-0.0016404
1.47033e-07
-0.00302629
-3.93475e-07
0.0053793
-0.000375472
1.4059e-07
0.00552425
-0.00112764
1.35191e-07
0.00577692
-0.00191133
1.38079e-07
0.00618836
-0.00272267
-1.01248e-07
0.00676016
-0.00357589
-2.59741e-07
0.00754834
-0.00434069
-6.68444e-07
0.00862804
-0.00516353
-7.55483e-07
0.0094963
-0.00508849
-9.69102e-08
0.00997105
-0.0011914
-1.41756e-07
-0.00102171
-0.00118993
-0.00102293
0.00988835
-0.000868785
2.03591e-07
-0.000706374
-0.000867826
-0.000706943
0.00940579
-0.00053082
9.09385e-07
-0.000431833
-0.000530361
-0.000431979
0.00878673
-0.000296843
3.28867e-07
-0.000271859
-0.000297261
-0.000271933
0.00817595
-0.000684732
-1.26463e-07
0.00763987
-0.000418593
-1.93739e-07
0.00718647
-0.000235798
2.08717e-07
0.0068003
-9.01335e-05
3.36212e-07
0.00647679
-1.9407e-06
9.31155e-08
0.00621675
2.25107e-05
-4.03766e-08
0.0060344
-2.39501e-05
-6.15896e-08
0.00594827
-0.000131963
-2.42353e-08
0.00597312
-0.00027597
-9.80769e-09
0.00611465
-0.000419003
9.0825e-09
0.00636649
-0.000514254
4.59602e-08
0.0067097
-0.000511801
9.48778e-08
0.00711512
-0.000371806
1.5659e-07
0.00754699
-7.21684e-05
1.99107e-07
0.00797601
0.000381214
2.80494e-07
0.00836371
0.000983786
2.93694e-07
0.00867073
0.00170279