/*--------------------------------*- C++ -*----------------------------------*\
  =========                 |
  \\      /  F ield         | OpenFOAM: The Open Source CFD Toolbox
   \\    /   O peration     | Website:  https://openfoam.org
    \\  /    A nd           | Version:  8
     \\/     M anipulation  |
\*---------------------------------------------------------------------------*/
FoamFile
{
    version     2.0;
    format      ascii;
    class       volScalarField;
    location    "0.245";
    object      p;
}
// * * * * * * * * * * * * * * * * * * * * * * * * * * * * * * * * * * * * * //

dimensions      [0 2 -2 0 0 0 0];

internalField   nonuniform List<scalar> 
400
(
2.738e-06
-0.00582345
-0.0129589
-0.018409
-0.0204251
-0.0182309
-0.0117668
-0.00147782
0.0118414
0.0271509
0.0432437
0.05882
0.0725738
0.0833024
0.0900465
0.0922614
0.0900219
0.0842422
0.0768813
0.0710693
0.00577899
-0.000218445
-0.0058024
-0.00953937
-0.0105947
-0.00842798
-0.00296537
0.00547802
0.0163057
0.0287131
0.0417497
0.0543844
0.0655838
0.0744066
0.080117
0.0823131
0.0810759
0.0770551
0.0712762
0.0653216
0.0133306
0.0050315
-0.000995574
-0.00442183
-0.00527058
-0.00326106
0.00160528
0.00903022
0.0185041
0.0293505
0.0407657
0.0518691
0.0617673
0.0696348
0.0748056
0.0768773
0.0758421
0.0720879
0.0658094
0.0575415
0.0201325
0.00869215
0.00122425
-0.00266853
-0.003721
-0.00188355
0.0027333
0.00978657
0.0187821
0.0290964
0.0399928
0.0506543
0.0602328
0.0679156
0.0730031
0.0750021
0.0737676
0.0694595
0.0616086
0.0501109
0.0244936
0.00976834
0.00058738
-0.00398765
-0.00530178
-0.00350613
0.00117637
0.00833639
0.0174638
0.0279508
0.0390864
0.0500711
0.0600497
0.0681658
0.0736274
0.0757994
0.0743718
0.0692944
0.0595325
0.0445473
0.0251693
0.00714519
-0.00380448
-0.00905805
-0.0105118
-0.00849875
-0.00335501
0.0044316
0.0143157
0.0256814
0.0378161
0.0499054
0.06105
0.0703049
0.0767366
0.0795194
0.0781426
0.0723389
0.0605471
0.0419013
0.021086
-0.000266319
-0.0129363
-0.0187096
-0.020029
-0.0174121
-0.0113159
-0.00231669
0.00899376
0.0219797
0.0359131
0.0499476
0.0631152
0.0743482
0.0825248
0.0865728
0.085725
0.0794529
0.0656285
0.0430831
0.0111379
-0.0136204
-0.0278755
-0.0338534
-0.0346017
-0.0308547
-0.0232093
-0.012341
0.00110949
0.0164887
0.0330574
0.0499383
0.0660877
0.0802939
0.0912046
0.0974341
0.097875
0.091642
0.0759041
0.0491271
-0.0059685
-0.0342661
-0.0498685
-0.0555462
-0.0550869
-0.0495105
-0.0395886
-0.0261077
-0.00975095
0.00882942
0.0289074
0.0495997
0.0698033
0.0881599
0.103052
0.112706
0.115556
0.110198
0.0928414
0.0614205
-0.0318542
-0.0638727
-0.0804131
-0.085003
-0.0824154
-0.0740728
-0.0609746
-0.0440295
-0.0239438
-0.00132891
0.0231536
0.0486687
0.0741028
0.0979788
0.118402
0.133131
0.139994
0.136823
0.118447
0.0819407
-0.0686598
-0.104597
-0.121338
-0.123584
-0.117509
-0.10512
-0.0877107
-0.0663171
-0.041628
-0.0141463
0.015615
0.0469623
0.0788642
0.109801
0.13763
0.159591
0.172732
0.173783
0.155525
0.113575
-0.119391
-0.159347
-0.174907
-0.172749
-0.16114
-0.142921
-0.11975
-0.0927677
-0.0625675
-0.0294373
0.00638352
0.0444835
0.0840645
0.123711
0.161143
0.193092
0.215673
0.224081
0.208054
0.160635
-0.188613
-0.23223
-0.243929
-0.233939
-0.213686
-0.187146
-0.156363
-0.122491
-0.0858875
-0.0464613
-0.0040035
0.0415494
0.0898519
0.139838
0.189326
0.234695
0.271079
0.291668
0.281745
0.229775
-0.283957
-0.329291
-0.331821
-0.308271
-0.2747
-0.236432
-0.195756
-0.1536
-0.10983
-0.0637342
-0.0144268
0.0388741
0.096564
0.158285
0.222381
0.285294
0.341402
0.381578
0.384915
0.331832
-0.419301
-0.459658
-0.44234
-0.395784
-0.342122
-0.287732
-0.234608
-0.182921
-0.131599
-0.0789743
-0.0232031
0.0374857
0.104563
0.178846
0.259868
0.344975
0.42862
0.499702
0.529675
0.485388
-0.620516
-0.636732
-0.578668
-0.494186
-0.411235
-0.335653
-0.267774
-0.20597
-0.147527
-0.089373
-0.0284157
0.0383583
0.113816
0.200479
0.299981
0.41203
0.533033
0.651777
0.732771
0.722391
-0.935911
-0.878505
-0.741735
-0.597944
-0.474389
-0.372656
-0.288864
-0.217757
-0.153946
-0.092455
-0.0287077
0.0417052
0.123272
0.220725
0.338932
0.482159
0.651999
0.841343
1.01527
1.0975
-1.47641
-1.20662
-0.920499
-0.691386
-0.517304
-0.387543
-0.290059
-0.213333
-0.148118
-0.0872078
-0.0245688
0.0454666
0.128946
0.233079
0.367109
0.542683
0.771296
1.05932
1.40329
1.73014
-2.53964
-1.63054
-1.04444
-0.710959
-0.495752
-0.352094
-0.254531
-0.183581
-0.126165
-0.0735885
-0.0192608
0.0427961
0.119222
0.218791
0.35482
0.54799
0.826397
1.23658
1.91168
2.92419
-4.36666
-2.04463
-0.973542
-0.563184
-0.357851
-0.240151
-0.170123
-0.123784
-0.0874789
-0.0535047
-0.0166463
0.0276708
0.0846185
0.161741
0.272421
0.442108
0.718226
1.22571
2.41104
4.84853
)
;

boundaryField
{
    movingWall
    {
        type            zeroGradient;
    }
    fixedWalls
    {
        type            zeroGradient;
    }
    frontAndBack
    {
        type            empty;
    }
}


// ************************************************************************* //
