/*--------------------------------*- C++ -*----------------------------------*\
  =========                 |
  \\      /  F ield         | OpenFOAM: The Open Source CFD Toolbox
   \\    /   O peration     | Website:  https://openfoam.org
    \\  /    A nd           | Version:  8
     \\/     M anipulation  |
\*---------------------------------------------------------------------------*/
FoamFile
{
    version     2.0;
    format      ascii;
    class       surfaceScalarField;
    location    "0.245";
    object      phi;
}
// * * * * * * * * * * * * * * * * * * * * * * * * * * * * * * * * * * * * * //

dimensions      [0 3 -1 0 0 0 0];

internalField   nonuniform List<scalar> 
760
(
1.42338e-08
-1.42567e-08
-2.22062e-08
3.64399e-08
-1.14249e-07
9.20425e-08
-2.45447e-07
1.31198e-07
-3.9602e-07
1.50574e-07
-5.47257e-07
1.51237e-07
-6.83053e-07
1.35796e-07
-7.90503e-07
1.07449e-07
-8.60033e-07
6.95297e-08
-8.85461e-07
2.54289e-08
-8.64145e-07
-2.13163e-08
-7.97229e-07
-6.69164e-08
-6.89949e-07
-1.0728e-07
-5.51867e-07
-1.38083e-07
-3.9687e-07
-1.54997e-07
-2.42707e-07
-1.54163e-07
-1.09717e-07
-1.3299e-07
-1.84167e-08
-9.13005e-08
1.56847e-08
-3.41013e-08
1.56848e-08
-3.42062e-08
1.99496e-08
-1.80337e-07
1.8257e-07
-4.33903e-07
3.45608e-07
-7.64282e-07
4.61578e-07
-1.13199e-06
5.18279e-07
-1.49695e-06
5.16196e-07
-1.82298e-06
4.61825e-07
-2.08013e-06
3.64597e-07
-2.24583e-06
2.35237e-07
-2.30559e-06
8.5184e-08
-2.25346e-06
-7.34426e-08
-2.09264e-06
-2.27733e-07
-1.83591e-06
-3.64015e-07
-1.50576e-06
-4.68235e-07
-1.13387e-06
-5.26883e-07
-7.59383e-07
-5.2865e-07
-4.25325e-07
-4.67048e-07
-1.72664e-07
-3.43962e-07
-3.07983e-08
-1.75967e-07
-1.51134e-08
-9.22081e-08
1.12157e-07
-3.56923e-07
4.47285e-07
-7.64403e-07
7.53087e-07
-1.26823e-06
9.65406e-07
-1.81433e-06
1.06438e-06
-2.34857e-06
1.05044e-06
-2.82187e-06
9.3512e-07
-3.19331e-06
7.36034e-07
-3.43193e-06
4.7386e-07
-3.51782e-06
1.71074e-07
-3.4429e-06
-1.48363e-07
-3.21163e-06
-4.58999e-07
-2.84156e-06
-7.3409e-07
-2.36335e-06
-9.46442e-07
-1.81997e-06
-1.07026e-06
-1.26425e-06
-1.08437e-06
-7.54383e-07
-9.76915e-07
-3.46908e-07
-7.51438e-07
-8.73205e-08
-4.35554e-07
-1.02434e-07
-1.4518e-07
2.57337e-07
-5.25354e-07
8.27458e-07
-1.08141e-06
1.30915e-06
-1.74716e-06
1.63115e-06
-2.45384e-06
1.77106e-06
-3.13576e-06
1.73235e-06
-3.73456e-06
1.53392e-06
-4.20209e-06
1.20356e-06
-4.50205e-06
7.73819e-07
-4.61104e-06
2.80068e-07
-4.5194e-06
-2.40008e-07
-4.23194e-06
-7.4646e-07
-3.76866e-06
-1.19736e-06
-3.16505e-06
-1.55005e-06
-2.47142e-06
-1.76389e-06
-1.75075e-06
-1.80504e-06
-1.07432e-06
-1.65335e-06
-5.15045e-07
-1.31071e-06
-1.3929e-07
-8.11309e-07
-2.41723e-07
-1.93572e-07
4.50907e-07
-6.84869e-07
1.31876e-06
-1.38536e-06
2.00964e-06
-2.20683e-06
2.45262e-06
-3.0649e-06
2.62914e-06
-3.88307e-06
2.55051e-06
-4.59567e-06
2.24652e-06
-5.14965e-06
1.75755e-06
-5.50546e-06
1.12963e-06
-5.63752e-06
4.12129e-07
-5.53478e-06
-3.42748e-07
-5.20147e-06
-1.07977e-06
-4.65808e-06
-1.74075e-06
-3.94228e-06
-2.26585e-06
-3.10918e-06
-2.597e-06
-2.23012e-06
-2.6841e-06
-1.38941e-06
-2.49407e-06
-6.78384e-07
-2.02173e-06
-1.87735e-07
-1.30196e-06
-4.29458e-07
-2.399e-07
6.90806e-07
-8.4021e-07
1.91907e-06
-1.68302e-06
2.85245e-06
-2.65663e-06
3.42624e-06
-3.66026e-06
3.63276e-06
-4.60704e-06
3.4973e-06
-5.4255e-06
3.06498e-06
-6.05963e-06
2.39167e-06
-6.46836e-06
1.53836e-06
-6.62504e-06
5.68812e-07
-6.51734e-06
-4.50452e-07
-6.14789e-06
-1.44923e-06
-5.53573e-06
-2.35291e-06
-4.71824e-06
-3.08334e-06
-3.75292e-06
-3.56232e-06
-2.71809e-06
-3.71893e-06
-1.7113e-06
-3.50086e-06
-8.44541e-07
-2.88848e-06
-2.36145e-07
-1.91035e-06
-6.65601e-07
-2.86707e-07
9.77512e-07
-9.96957e-07
2.62932e-06
-1.98183e-06
3.83732e-06
-3.10456e-06
4.54897e-06
-4.24743e-06
4.77563e-06
-5.31416e-06
4.56404e-06
-6.22935e-06
3.98017e-06
-6.93632e-06
3.09865e-06
-7.39459e-06
1.99662e-06
-7.57771e-06
7.51935e-07
-7.47227e-06
-5.55889e-07
-7.07829e-06
-1.84321e-06
-6.41115e-06
-3.02005e-06
-5.50496e-06
-3.98952e-06
-4.41657e-06
-4.65071e-06
-3.22902e-06
-4.90648e-06
-2.05273e-06
-4.67715e-06
-1.02243e-06
-3.91878e-06
-2.88249e-07
-2.64453e-06
-9.53849e-07
-3.363e-07
1.31381e-06
-1.16027e-06
3.45329e-06
-2.28782e-06
4.96487e-06
-3.55469e-06
5.81583e-06
-4.8262e-06
6.04714e-06
-5.99854e-06
5.73638e-06
-6.99542e-06
4.97705e-06
-7.76284e-06
3.86607e-06
-8.26377e-06
2.49755e-06
-8.47388e-06
9.62053e-07
-8.37925e-06
-6.50522e-07
-7.97623e-06
-2.24623e-06
-7.27398e-06
-3.7223e-06
-6.29945e-06
-4.96405e-06
-5.10428e-06
-5.84588e-06
-3.77224e-06
-6.23852e-06
-2.4247e-06
-6.02469e-06
-1.22065e-06
-5.12283e-06
-3.47681e-07
-3.5175e-06
-1.30153e-06
-3.90938e-07
1.70475e-06
-1.33482e-06
4.39717e-06
-2.60485e-06
6.2349e-06
-4.00575e-06
7.21673e-06
-5.38655e-06
7.42794e-06
-6.63941e-06
6.98924e-06
-7.69204e-06
6.02968e-06
-8.49803e-06
4.67206e-06
-9.02795e-06
3.02747e-06
-9.26245e-06
1.19655e-06
-9.18818e-06
-7.24784e-07
-8.79705e-06
-2.63737e-06
-8.08897e-06
-4.43037e-06
-7.07869e-06
-5.97434e-06
-5.80606e-06
-7.11851e-06
-4.34885e-06
-7.69572e-06
-2.83469e-06
-7.53885e-06
-1.44703e-06
-6.51049e-06
-4.1808e-07
-4.54645e-06
-1.71961e-06
-4.53448e-07
2.1582e-06
-1.52567e-06
5.46939e-06
-2.93485e-06
7.64408e-06
-4.45006e-06
8.73194e-06
-5.90625e-06
8.88413e-06
-7.19771e-06
8.28071e-06
-8.26354e-06
7.0955e-06
-9.07193e-06
5.48045e-06
-9.60673e-06
3.56226e-06
-9.85744e-06
1.44727e-06
-9.81327e-06
-7.68956e-07
-9.46123e-06
-2.98941e-06
-8.78897e-06
-5.10263e-06
-7.79288e-06
-6.97043e-06
-6.49211e-06
-8.41929e-06
-4.94789e-06
-9.23994e-06
-3.28506e-06
-9.20169e-06
-1.70865e-06
-8.0869e-06
-5.03578e-07
-5.75152e-06
-2.22319e-06
-5.28345e-07
2.68654e-06
-1.73969e-06
6.68073e-06
-3.27803e-06
9.18242e-06
-4.8717e-06
1.03256e-05
-6.34711e-06
1.03595e-05
-7.61095e-06
9.54454e-06
-8.62449e-06
8.10905e-06
-9.37983e-06
6.23579e-06
-9.88114e-06
4.06357e-06
-1.01317e-05
1.69781e-06
-1.01259e-05
-7.74715e-07
-9.84646e-06
-3.26887e-06
-9.26609e-06
-5.68299e-06
-8.35641e-06
-7.88011e-06
-7.10475e-06
-9.67095e-06
-5.54073e-06
-1.0804e-05
-3.77072e-06
-1.09717e-05
-2.01217e-06
-9.84545e-06
-6.09689e-07
-7.15401e-06
-2.83288e-06
-6.23688e-07
3.31023e-06
-1.98746e-06
8.0445e-06
-3.63205e-06
1.0827e-05
-5.24214e-06
1.19357e-05
-6.64785e-06
1.17653e-05
-7.78482e-06
1.06815e-05
-8.65141e-06
8.97564e-06
-9.27474e-06
6.85912e-06
-9.68699e-06
4.47582e-06
-9.91027e-06
1.92109e-06
-9.94767e-06
-7.37315e-07
-9.77898e-06
-3.43756e-06
-9.36124e-06
-6.10074e-06
-8.6359e-06
-8.60544e-06
-7.5466e-06
-1.07602e-05
-6.07173e-06
-1.22788e-05
-4.27436e-06
-1.27691e-05
-2.36369e-06
-1.17561e-05
-7.44788e-07
-8.77291e-06
-3.57766e-06
-7.5411e-07
4.06434e-06
-2.28446e-06
9.57485e-06
-3.98722e-06
1.25298e-05
-5.50942e-06
1.34579e-05
-6.71004e-06
1.29659e-05
-7.57909e-06
1.15506e-05
-8.17067e-06
9.56722e-06
-8.55831e-06
7.24675e-06
-8.80844e-06
4.72596e-06
-8.96577e-06
2.07842e-06
-9.04507e-06
-6.58021e-07
-9.0264e-06
-3.45623e-06
-8.85317e-06
-6.27397e-06
-8.4353e-06
-9.02331e-06
-7.66328e-06
-1.15323e-05
-6.44226e-06
-1.34998e-05
-4.75641e-06
-1.44549e-05
-2.76682e-06
-1.37457e-05
-9.22455e-07
-1.06173e-05
-4.50012e-06
-9.45246e-07
5.00959e-06
-2.64862e-06
1.12782e-05
-4.31124e-06
1.41924e-05
-5.57368e-06
1.47203e-05
-6.3712e-06
1.37634e-05
-6.78392e-06
1.19633e-05
-6.94124e-06
9.72454e-06
-6.97054e-06
7.27605e-06
-6.97363e-06
4.72905e-06
-7.01735e-06
2.12215e-06
-7.12943e-06
-5.45945e-07
-7.29453e-06
-3.29113e-06
-7.44932e-06
-6.11918e-06
-7.47846e-06
-8.99417e-06
-7.21838e-06
-1.17923e-05
-6.48307e-06
-1.42352e-05
-5.13363e-06
-1.58044e-05
-3.21508e-06
-1.56643e-05
-1.16441e-06
-1.26679e-05
-5.66453e-06
-1.23735e-06
6.24695e-06
-3.08343e-06
1.31243e-05
-4.50797e-06
1.56169e-05
-5.23488e-06
1.54473e-05
-5.35576e-06
1.38843e-05
-5.08251e-06
1.169e-05
-4.63168e-06
9.27371e-06
-4.18013e-06
6.8245e-06
-3.85528e-06
4.40419e-06
-3.73795e-06
2.00482e-06
-3.86603e-06
-4.17864e-07
-4.23349e-06
-2.92368e-06
-4.78283e-06
-5.56983e-06
-5.3917e-06
-8.3853e-06
-5.859e-06
-1.13251e-05
-5.90693e-06
-1.41872e-05
-5.23304e-06
-1.64783e-05
-3.66638e-06
-1.72309e-05
-1.50011e-06
-1.48342e-05
-7.16464e-06
-1.67384e-06
7.92079e-06
-3.51349e-06
1.49639e-05
-4.31554e-06
1.6419e-05
-4.08925e-06
1.5221e-05
-3.19357e-06
1.29886e-05
-1.99939e-06
1.04959e-05
-7.95916e-07
8.07023e-06
2.18474e-07
5.81011e-06
9.17313e-07
3.70535e-06
1.22467e-06
1.69747e-06
1.10115e-06
-2.94343e-07
5.40202e-07
-2.36273e-06
-4.23697e-07
-4.60593e-06
-1.69322e-06
-7.11579e-06
-3.07292e-06
-9.94535e-06
-4.23119e-06
-1.30289e-05
-4.69588e-06
-1.60136e-05
-3.9673e-06
-1.79595e-05
-1.94496e-06
-1.68565e-05
-9.1096e-06
-2.23071e-06
1.01515e-05
-3.59039e-06
1.63236e-05
-3.07797e-06
1.59066e-05
-1.34419e-06
1.34872e-05
8.96589e-07
1.07478e-05
3.15439e-06
8.23805e-06
5.13743e-06
6.0872e-06
6.68792e-06
4.25963e-06
7.725e-06
2.66827e-06
8.2057e-06
1.21677e-06
8.10305e-06
-1.91694e-07
7.39825e-06
-1.65793e-06
6.08615e-06
-3.29384e-06
4.19859e-06
-5.22822e-06
1.85368e-06
-7.60044e-06
-6.62056e-07
-1.05132e-05
-2.79239e-06
-1.38832e-05
-3.6622e-06
-1.70897e-05
-2.41157e-06
-1.81072e-05
-1.15212e-05
-2.57383e-06
1.27253e-05
-2.18351e-06
1.59333e-05
7.17941e-07
1.30051e-05
4.46934e-06
9.73579e-06
8.13295e-06
7.0842e-06
1.13011e-05
5.06987e-06
1.38285e-05
3.55978e-06
1.56875e-05
2.4007e-06
1.6891e-05
1.46475e-06
1.74542e-05
6.53583e-07
1.73757e-05
-1.13187e-07
1.66299e-05
-9.12109e-07
1.51666e-05
-1.83059e-06
1.2923e-05
-2.98464e-06
9.86137e-06
-4.53878e-06
6.06169e-06
-6.71353e-06
1.91217e-06
-9.7337e-06
-1.55971e-06
-1.36178e-05
-2.45836e-06
-1.72085e-05
-1.39795e-05
-7.85012e-07
1.35103e-05
4.08078e-06
1.10675e-05
1.02975e-05
6.78841e-06
1.57935e-05
4.23977e-06
2.01578e-05
2.71988e-06
2.34578e-05
1.76991e-06
2.58605e-05
1.15711e-06
2.75211e-05
7.40029e-07
2.85536e-05
4.32278e-07
2.9026e-05
1.81217e-07
2.89618e-05
-4.89763e-08
2.83383e-05
-2.88685e-07
2.70815e-05
-5.73719e-07
2.50548e-05
-9.5793e-07
2.20515e-05
-1.53549e-06
1.78153e-05
-2.47739e-06
1.21723e-05
-4.09066e-06
5.47767e-06
-6.92322e-06
-1.29182e-07
-1.16017e-05
-1.41087e-05
1.35103e-05
2.45779e-05
3.13663e-05
3.5606e-05
3.83259e-05
4.00958e-05
4.12529e-05
4.1993e-05
4.24252e-05
4.26065e-05
4.25575e-05
4.22688e-05
4.16951e-05
4.07371e-05
3.92016e-05
3.67243e-05
3.26336e-05
2.57104e-05
1.41087e-05
)
;

boundaryField
{
    movingWall
    {
        type            calculated;
        value           uniform 0;
    }
    fixedWalls
    {
        type            calculated;
        value           uniform 0;
    }
    frontAndBack
    {
        type            empty;
        value           nonuniform List<scalar> 0();
    }
}


// ************************************************************************* //
