/*--------------------------------*- C++ -*----------------------------------*\
  =========                 |
  \\      /  F ield         | OpenFOAM: The Open Source CFD Toolbox
   \\    /   O peration     | Website:  https://openfoam.org
    \\  /    A nd           | Version:  8
     \\/     M anipulation  |
\*---------------------------------------------------------------------------*/
FoamFile
{
    version     2.0;
    format      ascii;
    class       volScalarField;
    location    "0.135";
    object      p;
}
// * * * * * * * * * * * * * * * * * * * * * * * * * * * * * * * * * * * * * //

dimensions      [0 2 -2 0 0 0 0];

internalField   nonuniform List<scalar> 
400
(
1.31305e-07
-0.00580855
-0.0129187
-0.0183457
-0.0203465
-0.0181469
-0.0116883
-0.00141467
0.0118809
0.0271614
0.0432231
0.05877
0.0725
0.0832137
0.0899538
0.0921767
0.089956
0.0842021
0.0768675
0.0710736
0.00575447
-0.000224101
-0.0057885
-0.00950872
-0.0105521
-0.00837989
-0.00291875
0.00551643
0.0163301
0.0287195
0.0417365
0.0543527
0.0655371
0.074351
0.08006
0.0822631
0.0810403
0.0770388
0.0712806
0.065344
0.0132784
0.00500459
-0.00100269
-0.00441411
-0.00525183
-0.00323585
0.00163207
0.00905376
0.0185201
0.0293558
0.0407589
0.0518504
0.0617392
0.0696015
0.0747728
0.0768516
0.0758294
0.0720925
0.0658346
0.0575904
0.0200546
0.00864719
0.00120169
-0.00267589
-0.00371675
-0.00187134
0.00274956
0.00980307
0.0187954
0.0291038
0.0399928
0.0506466
0.0602189
0.0678987
0.0729879
0.0749944
0.0737729
0.0694821
0.061654
0.0501865
0.0243998
0.00971229
0.000555538
-0.00400371
-0.00530547
-0.00350043
0.00118829
0.00835155
0.0174794
0.0279642
0.0390958
0.0500755
0.06005
0.0681643
0.0736282
0.0758077
0.0743926
0.0693324
0.059595
0.0446444
0.0250729
0.00708768
-0.00383762
-0.00907547
-0.0105165
-0.00849296
-0.00334111
0.0044513
0.0143387
0.0257049
0.0378379
0.049924
0.0610655
0.070319
0.0767526
0.0795419
0.0781763
0.0723889
0.0606216
0.0420117
0.0210023
-0.000314511
-0.0129622
-0.0187208
-0.0200275
-0.0173996
-0.0112938
-0.00228685
0.00902891
0.0220173
0.0359504
0.0499827
0.0631474
0.0743783
0.0825554
0.0866079
0.0857691
0.0795111
0.0657091
0.0431977
0.0110808
-0.0136492
-0.0278862
-0.0338514
-0.034588
-0.0308298
-0.0231739
-0.0122965
0.00116078
0.0165438
0.0331131
0.049992
0.0661381
0.0803408
0.0912497
0.0974806
0.0979273
0.0917048
0.0759853
0.0492371
-0.00598748
-0.0342674
-0.0498578
-0.0555258
-0.0550564
-0.0494692
-0.0395365
-0.0260456
-0.00968105
0.008904
0.0289831
0.0496733
0.0698724
0.0882235
0.103111
0.112763
0.115614
0.110262
0.0929179
0.061518
-0.0318282
-0.0638417
-0.0803773
-0.0849613
-0.0823659
-0.0740138
-0.0609048
-0.0439493
-0.023855
-0.00123476
0.0232491
0.0487617
0.07419
0.0980582
0.118473
0.133197
0.140056
0.136886
0.118514
0.0820193
-0.0685876
-0.104533
-0.121277
-0.123522
-0.117442
-0.105045
-0.0876254
-0.0662212
-0.0415228
-0.0140351
0.0157277
0.0470719
0.0789665
0.109893
0.137712
0.159663
0.172796
0.173841
0.15558
0.11363
-0.119277
-0.159255
-0.174825
-0.172671
-0.16106
-0.142835
-0.119655
-0.0926615
-0.0624513
-0.0293143
0.00650835
0.0446047
0.0841771
0.123812
0.16123
0.193166
0.215735
0.224132
0.208093
0.160663
-0.18847
-0.232118
-0.243834
-0.233852
-0.213602
-0.187058
-0.156267
-0.122383
-0.085768
-0.0463338
-0.00387358
0.0416754
0.0899682
0.13994
0.189413
0.234766
0.271135
0.291708
0.281767
0.229777
-0.2838
-0.329172
-0.331725
-0.308188
-0.274623
-0.236353
-0.195668
-0.1535
-0.109716
-0.0636106
-0.0142997
0.0389973
0.0966767
0.158382
0.222461
0.285355
0.341446
0.381605
0.38492
0.331807
-0.419149
-0.459547
-0.442256
-0.395717
-0.342064
-0.287674
-0.23454
-0.182837
-0.1315
-0.0788626
-0.0230863
0.0375992
0.104665
0.178932
0.259935
0.345023
0.42865
0.499714
0.529662
0.485339
-0.620388
-0.636643
-0.578609
-0.494147
-0.411207
-0.335624
-0.267733
-0.205911
-0.147449
-0.0892793
-0.0283145
0.0384577
0.113905
0.200551
0.300032
0.41206
0.533045
0.651772
0.732743
0.722326
-0.935822
-0.878451
-0.74171
-0.597941
-0.474398
-0.372661
-0.288855
-0.217725
-0.153892
-0.0923822
-0.028624
0.0417898
0.123348
0.220785
0.33897
0.482176
0.651997
0.841325
1.01523
1.09743
-1.47637
-1.20661
-0.92051
-0.691419
-0.517347
-0.387581
-0.29008
-0.21333
-0.148088
-0.0871551
-0.0245007
0.0455403
0.129015
0.233134
0.367144
0.542696
0.771288
1.05929
1.40324
1.73007
-2.53964
-1.63056
-1.04448
-0.711024
-0.495828
-0.352166
-0.254584
-0.183607
-0.126159
-0.0735534
-0.0192025
0.0428678
0.119296
0.218857
0.354869
0.548018
0.826402
1.23657
1.91164
2.92413
-4.36667
-2.04466
-0.973608
-0.563281
-0.357965
-0.240264
-0.170216
-0.123845
-0.0874996
-0.0534846
-0.0165908
0.0277518
0.0847127
0.161835
0.272505
0.442171
0.718264
1.22572
2.41102
4.8485
)
;

boundaryField
{
    movingWall
    {
        type            zeroGradient;
    }
    fixedWalls
    {
        type            zeroGradient;
    }
    frontAndBack
    {
        type            empty;
    }
}


// ************************************************************************* //
