/*--------------------------------*- C++ -*----------------------------------*\
  =========                 |
  \\      /  F ield         | OpenFOAM: The Open Source CFD Toolbox
   \\    /   O peration     | Website:  https://openfoam.org
    \\  /    A nd           | Version:  8
     \\/     M anipulation  |
\*---------------------------------------------------------------------------*/
FoamFile
{
    version     2.0;
    format      ascii;
    class       volVectorField;
    location    "0.135";
    object      U;
}
// * * * * * * * * * * * * * * * * * * * * * * * * * * * * * * * * * * * * * //

dimensions      [0 1 -1 0 0 0 0];

internalField   nonuniform List<vector> 
400
(
(0.00025258 -0.000249255 0)
(0.000140658 0.000111317 0)
(-0.00117312 0.000562832 0)
(-0.00346917 0.000882048 0)
(-0.00635518 0.00104216 0)
(-0.00943601 0.00105811 0)
(-0.0123589 0.000954557 0)
(-0.0148319 0.000757837 0)
(-0.0166301 0.000492998 0)
(-0.0175957 0.000184043 0)
(-0.01764 -0.000144589 0)
(-0.0167468 -0.000466547 0)
(-0.0149789 -0.000752637 0)
(-0.0124835 -0.00097083 0)
(-0.00949575 -0.00108751 0)
(-0.00633544 -0.00107058 0)
(-0.00339093 -0.000895456 0)
(-0.00108395 -0.000554957 0)
(0.000195255 -9.04022e-05 0)
(0.000266878 0.000261408 0)
(-7.72534e-05 -0.000168223 0)
(-0.00160585 0.00163946 0)
(-0.00567256 0.00360461 0)
(-0.0116766 0.0050168 0)
(-0.0188237 0.00572243 0)
(-0.0263043 0.00573922 0)
(-0.0333465 0.00515282 0)
(-0.0392822 0.00407774 0)
(-0.0435839 0.00263843 0)
(-0.0458795 0.000964228 0)
(-0.0459629 -0.000809109 0)
(-0.0438046 -0.00253652 0)
(-0.0395618 -0.0040627 0)
(-0.0335867 -0.00522545 0)
(-0.0264243 -0.00586539 0)
(-0.0187929 -0.00584468 0)
(-0.01153 -0.00507811 0)
(-0.00549653 -0.00357844 0)
(-0.00148891 -0.00155491 0)
(-4.2639e-05 0.000226293 0)
(-0.000526796 0.00108816 0)
(-0.00369824 0.00571617 0)
(-0.0105514 0.0101878 0)
(-0.0199206 0.0133589 0)
(-0.030655 0.0148914 0)
(-0.0416723 0.0147841 0)
(-0.0519326 0.0132069 0)
(-0.0605259 0.0104182 0)
(-0.0667294 0.00671851 0)
(-0.0700322 0.00243223 0)
(-0.0701519 -0.00209563 0)
(-0.0670495 -0.00649802 0)
(-0.0609422 -0.0103879 0)
(-0.0523113 -0.0133702 0)
(-0.0418981 -0.0150684 0)
(-0.0306745 -0.0151725 0)
(-0.0197664 -0.0135107 0)
(-0.0103315 -0.0101465 0)
(-0.00353778 -0.00553434 0)
(-0.000475491 -0.00094644 0)
(-0.000925041 0.00346784 0)
(-0.00567214 0.0121778 0)
(-0.0152504 0.019851 0)
(-0.0278232 0.0251075 0)
(-0.0418445 0.0274972 0)
(-0.0559901 0.0270389 0)
(-0.0690188 0.0240215 0)
(-0.0798558 0.0188861 0)
(-0.0876529 0.012154 0)
(-0.0918114 0.00439362 0)
(-0.0919982 -0.00378819 0)
(-0.0881614 -0.0117474 0)
(-0.0805452 -0.0188083 0)
(-0.0697022 -0.0242852 0)
(-0.0564938 -0.0275285 0)
(-0.0420668 -0.028005 0)
(-0.0277736 -0.0254135 0)
(-0.0150493 -0.0198287 0)
(-0.00548894 -0.0118914 0)
(-0.000859095 -0.0032155 0)
(-0.00127487 0.00685441 0)
(-0.00751287 0.0208826 0)
(-0.0197451 0.0323992 0)
(-0.0354283 0.0399647 0)
(-0.0525854 0.0431395 0)
(-0.0696489 0.0420451 0)
(-0.0852066 0.0371473 0)
(-0.098065 0.0291126 0)
(-0.107297 0.0187158 0)
(-0.112253 0.00679707 0)
(-0.112564 -0.00575073 0)
(-0.108159 -0.0179815 0)
(-0.0992773 -0.0289016 0)
(-0.0864956 -0.0374969 0)
(-0.0707404 -0.0427965 0)
(-0.053286 -0.0439825 0)
(-0.0356895 -0.0405493 0)
(-0.0196832 -0.0324929 0)
(-0.00735116 -0.0205297 0)
(-0.00120046 -0.00647936 0)
(-0.00160319 0.0111794 0)
(-0.00929387 0.0317726 0)
(-0.0241479 0.0477974 0)
(-0.0428943 0.0578829 0)
(-0.0630976 0.0617335 0)
(-0.0829427 0.059683 0)
(-0.100868 0.0524543 0)
(-0.115598 0.040992 0)
(-0.126168 0.0263555 0)
(-0.131904 0.00967088 0)
(-0.132418 -0.00787678 0)
(-0.127608 -0.0250346 0)
(-0.117681 -0.0404786 0)
(-0.103189 -0.0528378 0)
(-0.085071 -0.0607668 0)
(-0.064688 -0.0630821 0)
(-0.0437873 -0.0589648 0)
(-0.0244235 -0.0482052 0)
(-0.00923374 -0.0314695 0)
(-0.00153428 -0.0106991 0)
(-0.00193601 0.0164282 0)
(-0.011099 0.0448421 0)
(-0.0285941 0.0660372 0)
(-0.050381 0.0788222 0)
(-0.07354 0.0831926 0)
(-0.0960132 0.0798284 0)
(-0.11612 0.0698092 0)
(-0.132549 0.0544196 0)
(-0.144341 0.035031 0)
(-0.15084 0.0130573 0)
(-0.151649 -0.0100382 0)
(-0.146629 -0.0327129 0)
(-0.135921 -0.0533195 0)
(-0.119998 -0.0701126 0)
(-0.0997496 -0.0813179 0)
(-0.076564 -0.0852854 0)
(-0.052348 -0.0807403 0)
(-0.0294935 -0.0670991 0)
(-0.011264 -0.0448245 0)
(-0.00189673 -0.0159114 0)
(-0.0022968 0.0226352 0)
(-0.0130073 0.0601428 0)
(-0.033206 0.0871317 0)
(-0.0580011 0.102718 0)
(-0.0839593 0.107369 0)
(-0.108802 0.102275 0)
(-0.130782 0.0889938 0)
(-0.148622 0.0692185 0)
(-0.161434 0.0446541 0)
(-0.168625 0.0169872 0)
(-0.16982 -0.0120785 0)
(-0.164839 -0.0407555 0)
(-0.153717 -0.0671061 0)
(-0.136784 -0.089013 0)
(-0.114791 -0.104224 0)
(-0.0890608 -0.110507 0)
(-0.0615928 -0.105948 0)
(-0.0351046 -0.089367 0)
(-0.013569 -0.0608102 0)
(-0.00232344 -0.0222277 0)
(-0.00270964 0.0298793 0)
(-0.0150969 0.0777797 0)
(-0.0380867 0.111098 0)
(-0.0657988 0.129441 0)
(-0.0942534 0.133989 0)
(-0.121002 0.126657 0)
(-0.144324 0.109625 0)
(-0.163074 0.0850686 0)
(-0.176534 0.0550361 0)
(-0.184245 0.0214492 0)
(-0.185895 -0.013816 0)
(-0.181264 -0.0488067 0)
(-0.170249 -0.0813653 0)
(-0.152952 -0.109037 0)
(-0.129864 -0.129062 0)
(-0.102103 -0.138506 0)
(-0.0716329 -0.134592 0)
(-0.0414347 -0.11523 0)
(-0.0162754 -0.0797367 0)
(-0.0028525 -0.0298318 0)
(-0.00320719 0.0382879 0)
(-0.0174634 0.0979031 0)
(-0.0433334 0.137918 0)
(-0.0737422 0.158721 0)
(-0.104137 0.162556 0)
(-0.132 0.152339 0)
(-0.155784 0.131049 0)
(-0.174628 0.101414 0)
(-0.18811 0.0658175 0)
(-0.196004 0.0263471 0)
(-0.198119 -0.0150539 0)
(-0.194217 -0.0563905 0)
(-0.184017 -0.0954043 0)
(-0.167307 -0.129389 0)
(-0.144164 -0.155088 0)
(-0.115297 -0.168756 0)
(-0.0824158 -0.166488 0)
(-0.0486183 -0.144867 0)
(-0.0195215 -0.101988 0)
(-0.00353223 -0.0389842 0)
(-0.00384514 0.0480577 0)
(-0.0202522 0.120709 0)
(-0.0490608 0.167482 0)
(-0.0817095 0.190042 0)
(-0.113084 0.192211 0)
(-0.140784 0.178279 0)
(-0.163663 0.152216 0)
(-0.181353 0.117363 0)
(-0.19389 0.0763907 0)
(-0.201402 0.031448 0)
(-0.203894 -0.0156036 0)
(-0.201141 -0.0628983 0)
(-0.192672 -0.108255 0)
(-0.177873 -0.148871 0)
(-0.156233 -0.181078 0)
(-0.127783 -0.200262 0)
(-0.0936439 -0.201105 0)
(-0.0567314 -0.178311 0)
(-0.0234786 -0.127996 0)
(-0.00443517 -0.050039 0)
(-0.00472812 0.0595058 0)
(-0.0237091 0.146445 0)
(-0.0554178 0.199502 0)
(-0.089435 0.222483 0)
(-0.120204 0.221561 0)
(-0.145779 0.202865 0)
(-0.165752 0.171554 0)
(-0.180506 0.131586 0)
(-0.190723 0.0858272 0)
(-0.197007 0.0363274 0)
(-0.19964 -0.015322 0)
(-0.198464 -0.0676011 0)
(-0.192829 -0.118644 0)
(-0.181666 -0.165793 0)
(-0.163716 -0.205165 0)
(-0.138016 -0.231329 0)
(-0.104626 -0.237315 0)
(-0.0657485 -0.215269 0)
(-0.0283826 -0.158194 0)
(-0.00568271 -0.0634876 0)
(-0.00605559 0.0731725 0)
(-0.028247 0.175412 0)
(-0.0625603 0.233345 0)
(-0.0963447 0.254469 0)
(-0.123981 0.24843 0)
(-0.144557 0.22373 0)
(-0.158859 0.186842 0)
(-0.168319 0.142252 0)
(-0.174428 0.0928334 0)
(-0.178351 0.0403292 0)
(-0.180713 -0.0141588 0)
(-0.18148 -0.0696957 0)
(-0.179887 -0.12501 0)
(-0.174432 -0.177922 0)
(-0.163022 -0.224679 0)
(-0.143408 -0.259284 0)
(-0.113996 -0.273043 0)
(-0.0754239 -0.254829 0)
(-0.0345672 -0.192929 0)
(-0.0074879 -0.0800436 0)
(-0.00819681 0.0900032 0)
(-0.034508 0.207898 0)
(-0.0704745 0.267695 0)
(-0.10113 0.283371 0)
(-0.121728 0.269552 0)
(-0.133305 0.237582 0)
(-0.1384 0.195171 0)
(-0.139732 0.147047 0)
(-0.139658 0.0957867 0)
(-0.139896 0.0425715 0)
(-0.141407 -0.012203 0)
(-0.144337 -0.0684023 0)
(-0.147924 -0.125624 0)
(-0.150387 -0.182548 0)
(-0.148895 -0.236071 0)
(-0.139771 -0.280183 0)
(-0.119178 -0.304777 0)
(-0.0849806 -0.29495 0)
(-0.0424566 -0.232235 0)
(-0.0102186 -0.100783 0)
(-0.0117723 0.111606 0)
(-0.0432858 0.243871 0)
(-0.0783623 0.299889 0)
(-0.100741 0.304906 0)
(-0.108516 0.28025 0)
(-0.105946 0.24017 0)
(-0.0977904 0.193087 0)
(-0.08807 0.143393 0)
(-0.079827 0.0929315 0)
(-0.0751252 0.0420517 0)
(-0.0751421 -0.00970798 0)
(-0.0802146 -0.0631289 0)
(-0.0897577 -0.118854 0)
(-0.102043 -0.17678 0)
(-0.113892 -0.235081 0)
(-0.120458 -0.288669 0)
(-0.115364 -0.326993 0)
(-0.0923212 -0.331624 0)
(-0.0523359 -0.275286 0)
(-0.0144336 -0.127303 0)
(-0.0175533 0.140643 0)
(-0.0547877 0.282087 0)
(-0.0828458 0.324617 0)
(-0.0881864 0.312338 0)
(-0.0752659 0.274299 0)
(-0.0528008 0.226609 0)
(-0.0277173 0.177139 0)
(-0.00481486 0.129014 0)
(0.012768 0.082831 0)
(0.0230924 0.0379116 0)
(0.0250493 -0.00706006 0)
(0.0181721 -0.0536986 0)
(0.00267265 -0.103652 0)
(-0.0202636 -0.158189 0)
(-0.0479031 -0.217351 0)
(-0.0751477 -0.278203 0)
(-0.0936553 -0.33164 0)
(-0.0921235 -0.357555 0)
(-0.063303 -0.319206 0)
(-0.0206374 -0.161941 0)
(-0.0254523 0.181706 0)
(-0.0657915 0.31774 0)
(-0.0733797 0.331301 0)
(-0.048164 0.295313 0)
(-0.00571224 0.244107 0)
(0.0410349 0.19227 0)
(0.0844217 0.144945 0)
(0.120264 0.102888 0)
(0.146398 0.065081 0)
(0.161725 0.0298664 0)
(0.165616 -0.00466327 0)
(0.157622 -0.0405888 0)
(0.137444 -0.08018 0)
(0.105189 -0.125831 0)
(0.0620563 -0.179627 0)
(0.0116503 -0.241917 0)
(-0.0379344 -0.307779 0)
(-0.0717374 -0.36006 0)
(-0.0700776 -0.356551 0)
(-0.0279161 -0.208354 0)
(-0.0296496 0.239178 0)
(-0.0608501 0.335756 0)
(-0.0219716 0.300473 0)
(0.0504819 0.24008 0)
(0.127474 0.18289 0)
(0.196866 0.135327 0)
(0.254154 0.0973403 0)
(0.298031 0.0668031 0)
(0.328577 0.041323 0)
(0.346203 0.0187646 0)
(0.351108 -0.00278915 0)
(0.343044 -0.0252425 0)
(0.321231 -0.0507504 0)
(0.284435 -0.0819999 0)
(0.231402 -0.122391 0)
(0.162053 -0.175613 0)
(0.0798141 -0.243378 0)
(-0.00323796 -0.319092 0)
(-0.0546878 -0.368583 0)
(-0.0284625 -0.267608 0)
(0.00808415 0.281865 0)
(0.0197821 0.294971 0)
(0.139054 0.210963 0)
(0.264429 0.143459 0)
(0.36431 0.0971632 0)
(0.440276 0.0657528 0)
(0.496624 0.0442144 0)
(0.536728 0.0288674 0)
(0.56328 0.0171867 0)
(0.578127 0.00748004 0)
(0.5822 -0.00149135 0)
(0.575522 -0.0108357 0)
(0.55715 -0.0218321 0)
(0.524998 -0.0363162 0)
(0.475666 -0.0572389 0)
(0.404454 -0.0893632 0)
(0.305121 -0.139722 0)
(0.173387 -0.216371 0)
(0.0411614 -0.311645 0)
(0.0184288 -0.299993 0)
(0.299606 0.146093 0)
(0.396275 0.127504 0)
(0.557421 0.0760886 0)
(0.674481 0.0437205 0)
(0.743871 0.0255681 0)
(0.787123 0.0152378 0)
(0.815442 0.00920829 0)
(0.833901 0.00550628 0)
(0.845322 0.00302532 0)
(0.851304 0.0011489 0)
(0.852599 -0.000498472 0)
(0.849318 -0.00221301 0)
(0.840942 -0.00433565 0)
(0.826092 -0.00742066 0)
(0.80204 -0.0125287 0)
(0.763594 -0.0217693 0)
(0.699091 -0.0392798 0)
(0.583945 -0.0726578 0)
(0.415825 -0.127867 0)
(0.30882 -0.149468 0)
)
;

boundaryField
{
    movingWall
    {
        type            fixedValue;
        value           uniform (1 0 0);
    }
    fixedWalls
    {
        type            noSlip;
    }
    frontAndBack
    {
        type            empty;
    }
}


// ************************************************************************* //
