/*--------------------------------*- C++ -*----------------------------------*\
  =========                 |
  \\      /  F ield         | OpenFOAM: The Open Source CFD Toolbox
   \\    /   O peration     | Website:  https://openfoam.org
    \\  /    A nd           | Version:  8
     \\/     M anipulation  |
\*---------------------------------------------------------------------------*/
FoamFile
{
    version     2.0;
    format      ascii;
    class       volScalarField;
    location    "53";
    object      p;
}
// * * * * * * * * * * * * * * * * * * * * * * * * * * * * * * * * * * * * * //

dimensions      [0 2 -2 0 0 0 0];

internalField   nonuniform List<scalar> 
2844
(
-0.0768115
-0.0884373
-0.110904
-0.140819
-0.159531
-0.163404
-0.151902
-0.133547
-0.111218
-0.087766
-0.0680628
-0.0517266
-0.0331149
-0.021833
-0.0138272
-0.00724667
-0.00408055
-0.000404149
0.000374168
-0.000127012
-0.0721702
-0.0855598
-0.111104
-0.14748
-0.166532
-0.169519
-0.155237
-0.13592
-0.111222
-0.0845829
-0.0670447
-0.0487533
-0.0288462
-0.019288
-0.0108576
-0.00579911
-0.00416235
-0.000800853
-0.00134086
-0.00110138
-0.0494417
-0.0691193
-0.105675
-0.163475
-0.190901
-0.190073
-0.165079
-0.144507
-0.112546
-0.0861904
-0.067159
-0.0492348
-0.0297573
-0.0202363
-0.0143526
-0.00880635
-0.00569971
0.000578985
0.00086856
9.48263e-07
-0.029918
-0.0565339
-0.104485
-0.185469
-0.21784
-0.211657
-0.1816
-0.154755
-0.112265
-0.0745731
-0.0635154
-0.0364572
-0.0120749
-0.0156407
-0.00680238
-0.00475566
-0.0066539
-0.0016733
-0.00668059
-0.00402931
0.0279019
-0.0171609
-0.0988287
-0.26643
-0.298337
-0.255029
-0.194832
-0.176339
-0.102622
-0.0804713
-0.0644003
-0.0312689
-0.0242065
-0.0239234
-0.0190885
-0.0164556
-0.0109522
0.00558593
0.00057014
0.000671272
0.092399
0.0192372
-0.0930699
-0.305551
-0.378566
-0.335801
-0.247675
-0.241437
-0.108534
-0.0429465
-0.0545222
-0.0212064
-0.0155285
-0.0155152
-0.0147562
-0.0324762
-0.0219318
-0.00273828
-0.0177136
-0.0118883
0.211472
0.10678
-0.16545
-0.552258
-0.596755
-0.392324
-0.307696
-0.288434
-0.0689277
-0.084776
-0.0501644
-0.0202279
-0.139039
-0.0914955
-0.0384108
-0.0475958
-0.0155374
0.00576175
-0.0231474
-0.0256149
0.40767
0.0935504
-0.049452
-0.900778
-1.02064
-0.574539
-0.468285
-0.453291
0.102234
0.085829
0.0290712
-0.0122838
-0.219334
-0.21994
-0.114942
-0.0922761
-0.0297134
0.0127484
-0.013156
-0.0182118
0.755726
0.330469
-0.146541
-0.447626
-0.492873
0.0192222
-0.175326
-0.0672611
-0.0596639
-0.207608
-0.25409
-0.0972003
-0.118134
-0.0162645
0.0315065
0.0534102
0.0597011
1.38474
0.684831
3.20087
-0.3852
-0.326324
-0.311866
-0.232707
-0.137856
-0.172014
-0.340882
-0.187349
-0.104445
-0.148429
0.0120051
0.0385827
0.00910514
0.00266798
1.34625
1.07253
-0.352889
-0.268119
-0.499457
-0.38808
-0.265543
-0.26754
-0.196349
-0.148219
-0.135859
-0.132642
-0.0339182
-0.0311152
-0.00833882
-0.0131984
0.790765
0.532503
0.730525
-0.394746
-0.355653
-0.670798
-0.334825
-0.253962
-0.210081
0.109314
0.00435992
0.0200196
-0.0424448
-0.070809
-0.121699
-0.093798
-0.0313854
0.531911
0.300962
-0.186834
-0.503047
-0.261688
-0.061721
-0.555499
-0.36606
-0.234561
-0.184886
0.0353938
0.053052
0.0915984
0.0808811
-0.0808833
-0.140415
-0.114921
-0.03837
0.234006
0.0304176
-0.298501
-0.646584
-0.835331
-0.382615
-0.290725
-0.23858
-0.332305
-0.254311
-0.160592
-0.133055
-0.0661186
-0.128189
-0.0445275
-0.0625976
-0.115451
-0.122442
-0.0906632
-0.0304629
0.148721
0.0882785
-0.0935674
-0.233813
-0.264903
-0.251537
-0.222014
-0.125482
-0.183913
-0.182586
-0.148814
-0.0992265
-0.0646066
-0.0519026
0.0265036
0.0226981
-0.035283
-0.040598
-0.0272968
-0.00780156
0.0399253
-0.0387556
-0.110613
-0.204621
-0.246201
-0.225844
-0.189702
-0.170878
-0.168462
-0.147153
-0.122074
-0.0745264
-0.0351619
-0.025017
0.0283529
0.0446293
-0.00171641
-0.0242782
-0.0187893
-0.00594456
0.0127033
-0.0129985
-0.0678054
-0.123596
-0.166124
-0.167472
-0.161866
-0.135185
-0.121498
-0.11978
-0.0970606
-0.0643103
-0.0333371
-0.0113272
0.0232333
0.044299
0.0292912
0.0177262
0.0111862
0.00525006
-0.0334784
-0.0638563
-0.0982086
-0.137923
-0.164981
-0.165843
-0.15119
-0.137764
-0.123282
-0.107055
-0.0871424
-0.0604068
-0.0349876
-0.0103735
0.0145314
0.029162
0.0224055
0.0105825
0.00327826
0.00039243
-0.0408046
-0.0539194
-0.0801267
-0.110202
-0.131791
-0.141647
-0.138805
-0.127069
-0.111452
-0.0985532
-0.0792538
-0.055699
-0.0329897
-0.0112884
0.00783569
0.0204966
0.021823
0.0158488
0.010008
0.00386119
-0.054025
-0.0674842
-0.0901756
-0.115287
-0.133182
-0.141336
-0.136681
-0.126265
-0.110317
-0.0963796
-0.0767535
-0.0554172
-0.0348028
-0.0130276
0.0051388
0.0162495
0.0181954
0.0134868
0.00700366
0.00220625
-0.0768095
-0.0884461
-0.110892
-0.140794
-0.159556
-0.163371
-0.151911
-0.133581
-0.111213
-0.0877925
-0.0680799
-0.0517794
-0.03318
-0.0217966
-0.0138517
-0.00726908
-0.00405847
-0.000415482
0.000357583
-0.000127357
-0.0721647
-0.0855714
-0.111033
-0.147411
-0.166584
-0.169937
-0.155224
-0.135966
-0.111228
-0.0846091
-0.0670023
-0.0487184
-0.0288378
-0.0192687
-0.011001
-0.00592942
-0.00416929
-0.000795401
-0.00137651
-0.00112485
-0.0494087
-0.0691448
-0.105573
-0.163163
-0.191181
-0.189996
-0.165025
-0.144667
-0.112484
-0.0863926
-0.0672938
-0.0494794
-0.0299177
-0.0201808
-0.0146236
-0.00881944
-0.0056312
0.000551724
0.000809848
3.05264e-05
-0.0297071
-0.0566199
-0.104121
-0.184842
-0.217407
-0.211835
-0.181437
-0.155036
-0.112279
-0.0750607
-0.0638352
-0.0370657
-0.0135111
-0.0156792
-0.00740466
-0.00503307
-0.00683711
-0.00180204
-0.00667549
-0.00400849
0.0280531
-0.0174984
-0.0992052
-0.263455
-0.297433
-0.254831
-0.196034
-0.177609
-0.104129
-0.0811631
-0.0643841
-0.0322069
-0.0269505
-0.0254744
-0.0198367
-0.017251
-0.0106366
0.00542765
0.000570436
0.000596925
0.091977
0.0181082
-0.094736
-0.326319
-0.368638
-0.332922
-0.249074
-0.24212
-0.108548
-0.0447528
-0.057626
-0.0318595
-0.0181049
-0.0165316
-0.0126591
-0.0334247
-0.0235894
-0.00249675
-0.0166013
-0.010504
0.207023
0.0884045
-0.21996
-0.577238
-0.604202
-0.388636
-0.308763
-0.294046
-0.0714301
-0.0830562
-0.0456025
-0.0260166
-0.153384
-0.104522
-0.044784
-0.0549165
-0.0203761
0.0052897
-0.0238426
-0.0259169
0.390187
0.0900452
-0.108672
-0.973115
-1.02241
-0.596893
-0.443427
-0.450442
0.127583
0.0862648
0.0144859
-0.0249616
-0.214473
-0.225514
-0.131501
-0.0973299
-0.026336
0.0105848
-0.0176763
-0.0202147
0.710738
0.331322
-0.0795036
-0.435214
-0.495265
0.0418141
-0.179418
-0.0806504
-0.0789903
-0.223831
-0.266725
-0.103618
-0.125859
-0.0170368
0.0294971
0.0539641
0.0608412
1.38996
0.512811
2.14373
-0.397709
-0.330315
-0.354842
-0.271019
-0.154315
-0.181184
-0.366319
-0.182865
-0.102673
-0.14257
0.0134322
0.0379912
0.00815937
0.00429822
1.40069
0.951899
-0.364469
-0.272651
-0.543193
-0.397289
-0.270043
-0.265665
-0.191304
-0.142431
-0.148935
-0.14273
-0.0365124
-0.0295537
-0.0106243
-0.0137224
0.758849
0.527319
0.665878
-0.410682
-0.353412
-0.721954
-0.339522
-0.223109
-0.2306
0.0869126
0.0191329
0.0224022
-0.0501283
-0.0773348
-0.121305
-0.0930127
-0.0317383
0.533388
0.308696
-0.151626
-0.515435
-0.267154
-0.0604168
-0.579787
-0.386592
-0.256485
-0.217439
-0.000739907
0.0241809
0.0886189
0.0839044
-0.0748433
-0.137511
-0.113199
-0.0386335
0.23217
0.0473411
-0.272657
-0.679498
-0.860145
-0.406878
-0.293014
-0.234574
-0.339553
-0.264065
-0.178771
-0.140934
-0.0574545
-0.138015
-0.0549955
-0.0698363
-0.119306
-0.126569
-0.091514
-0.030187
0.148519
0.0882361
-0.0963928
-0.230308
-0.296202
-0.2536
-0.220652
-0.123481
-0.190445
-0.185568
-0.145525
-0.102275
-0.0684325
-0.0487276
0.0271439
0.0196985
-0.0418383
-0.0452402
-0.0282628
-0.00730474
0.0396781
-0.0382617
-0.115596
-0.214193
-0.255167
-0.227493
-0.189557
-0.171178
-0.169178
-0.147048
-0.123287
-0.0745181
-0.036544
-0.0280501
0.0283604
0.044648
-0.00369765
-0.0250388
-0.0189879
-0.00611127
0.0127233
-0.0130532
-0.0693964
-0.124855
-0.167427
-0.167448
-0.161468
-0.135392
-0.121801
-0.120366
-0.0976648
-0.0644474
-0.0323671
-0.0101314
0.0235933
0.0443168
0.0292317
0.0171463
0.0108493
0.00510633
-0.0334722
-0.0638623
-0.0985822
-0.138369
-0.165207
-0.1657
-0.151168
-0.137879
-0.123311
-0.107219
-0.087111
-0.0603398
-0.0349567
-0.0104021
0.0147189
0.0297186
0.0226834
0.0114075
0.00322473
0.000357983
-0.0407925
-0.0539267
-0.0801843
-0.110267
-0.131844
-0.141659
-0.138806
-0.127103
-0.111462
-0.09859
-0.0792663
-0.0556479
-0.032912
-0.0112446
0.00786977
0.0205754
0.0218822
0.0158323
0.0100424
0.003859
-0.0540224
-0.06749
-0.0901904
-0.115297
-0.133182
-0.141329
-0.13667
-0.126273
-0.110323
-0.0963858
-0.0767531
-0.0554089
-0.0347957
-0.0130202
0.00515661
0.0162799
0.0182097
0.0135038
0.00701362
0.00220645
-0.0768103
-0.0884471
-0.110882
-0.140778
-0.159573
-0.163358
-0.151918
-0.133605
-0.111204
-0.0877789
-0.0680856
-0.051794
-0.0332331
-0.0217589
-0.0138623
-0.00728075
-0.00403739
-0.000418721
0.000349176
-0.000125395
-0.0721668
-0.0855495
-0.110965
-0.147365
-0.166621
-0.170142
-0.155213
-0.13599
-0.111243
-0.084549
-0.0669507
-0.0486933
-0.0287606
-0.0192257
-0.011065
-0.00598053
-0.00416371
-0.000781664
-0.00137992
-0.00114505
-0.0493761
-0.069053
-0.105439
-0.162952
-0.191614
-0.190096
-0.165015
-0.144774
-0.112415
-0.0864674
-0.0673616
-0.0496935
-0.0300229
-0.0200959
-0.0146524
-0.00874418
-0.00551604
0.000590348
0.000819271
0.000100076
-0.0296576
-0.056003
-0.103114
-0.184214
-0.217347
-0.212667
-0.181291
-0.155498
-0.111913
-0.0744485
-0.0633651
-0.0365117
-0.0135238
-0.0155846
-0.00744925
-0.00513179
-0.00680735
-0.00175999
-0.00675951
-0.004082
0.0285645
-0.0159461
-0.0961678
-0.258587
-0.297461
-0.257097
-0.197096
-0.178926
-0.104208
-0.0793024
-0.0636786
-0.0330653
-0.0287475
-0.0270753
-0.0195002
-0.0169011
-0.0101659
0.00558951
0.000810494
0.0010639
0.0924308
0.0269927
-0.0867231
-0.306871
-0.360367
-0.328545
-0.247543
-0.238791
-0.0993724
-0.0380195
-0.0558848
-0.0252311
-0.0186739
-0.015228
-0.0114757
-0.0356441
-0.0266624
-0.00173123
-0.0157444
-0.00974403
0.209217
0.0978241
-0.212914
-0.566972
-0.59654
-0.402206
-0.310101
-0.299221
-0.0659934
-0.082602
-0.0498536
-0.0159359
-0.151726
-0.112544
-0.0442876
-0.0570599
-0.0189342
0.00886356
-0.0249289
-0.0268196
0.404234
0.0776044
-0.105803
-0.942642
-1.0099
-0.585008
-0.434155
-0.446534
0.145978
0.102816
0.00500453
0.0098644
-0.187489
-0.215256
-0.118189
-0.102865
-0.0246094
0.0142508
-0.0209915
-0.0234762
0.736798
0.28458
0.110269
-0.41906
-0.490587
0.0222873
-0.149616
-0.0765346
-0.070265
-0.214158
-0.257248
-0.104397
-0.121826
-0.00965811
0.0305742
0.0552595
0.0616034
1.31694
0.478971
1.26389
-0.392633
-0.316485
-0.352898
-0.265232
-0.151287
-0.206074
-0.34375
-0.15968
-0.0947585
-0.128147
0.0146735
0.0360546
0.00491257
0.00538045
1.35966
0.981136
-0.388561
-0.240954
-0.504579
-0.386869
-0.26339
-0.261323
-0.184279
-0.120392
-0.135076
-0.133615
-0.0376169
-0.0247829
-0.0104902
-0.0125827
0.758631
0.493884
0.495857
-0.414422
-0.301354
-0.688089
-0.349311
-0.207389
-0.227406
0.0794333
0.00166266
0.0341381
-0.0425055
-0.0810182
-0.119894
-0.0907937
-0.030756
0.54675
0.352005
-0.166567
-0.430762
-0.261813
-0.0497976
-0.591696
-0.379309
-0.230412
-0.208846
0.0115482
0.0285786
0.0891673
0.0888446
-0.0700502
-0.135883
-0.113255
-0.0396812
0.231625
0.0508343
-0.265074
-0.621348
-0.847084
-0.391665
-0.285188
-0.225805
-0.338622
-0.257894
-0.176618
-0.131875
-0.0587251
-0.130845
-0.0579755
-0.0700501
-0.113173
-0.124222
-0.090272
-0.0294176
0.149122
0.0881011
-0.0967132
-0.217203
-0.312935
-0.252417
-0.217469
-0.116306
-0.183822
-0.182669
-0.142164
-0.0993829
-0.0689739
-0.0544268
0.0232351
0.0141903
-0.0442516
-0.048051
-0.0293182
-0.00709781
0.0398283
-0.038303
-0.114432
-0.217249
-0.259045
-0.226451
-0.188029
-0.170501
-0.169741
-0.144682
-0.120021
-0.0737807
-0.036527
-0.0294796
0.0277892
0.0431825
-0.00557269
-0.0248692
-0.0187461
-0.00602338
0.0127681
-0.0131142
-0.0697276
-0.125276
-0.168183
-0.167087
-0.16056
-0.134961
-0.121455
-0.120569
-0.0971745
-0.0641671
-0.0316589
-0.00927225
0.0248016
0.0454483
0.0299106
0.0170513
0.0109396
0.00530006
-0.0334547
-0.0638578
-0.0987341
-0.138647
-0.165203
-0.165311
-0.150928
-0.137846
-0.123387
-0.107282
-0.0869986
-0.0602268
-0.0347785
-0.010256
0.0152016
0.0311249
0.0235319
0.0121859
0.00342187
0.000380464
-0.0407785
-0.0539298
-0.0802152
-0.110301
-0.131871
-0.141661
-0.138792
-0.1271
-0.111437
-0.0986084
-0.0792583
-0.0555593
-0.0328488
-0.0111682
0.00798782
0.0208689
0.0221431
0.0158325
0.0100795
0.0038743
-0.0540213
-0.0674937
-0.0902067
-0.115301
-0.13317
-0.141305
-0.136656
-0.126274
-0.11033
-0.0963895
-0.0767527
-0.0553944
-0.0347853
-0.0129989
0.00520143
0.0163648
0.0182665
0.0135371
0.007037
0.00220821
-0.547275
-0.309445
-1.17392
-0.0783402
-0.560916
-0.390243
-1.21533
-1.11068
-0.967905
-1.11389
-0.701404
-1.03252
-0.706669
-0.495161
-0.59444
-0.489145
-0.596517
-0.49638
-0.59346
-0.488742
0.388391
0.419539
0.815816
0.3421
0.396882
0.468933
0.820317
0.140571
-0.143549
0.366926
-0.457677
-0.440087
-0.457175
-0.446224
-0.604432
-0.473276
-0.631678
-0.442344
-0.601454
-0.477033
-0.638461
1.77679
0.681808
1.16038
0.58836
1.42067
0.662672
1.09484
2.51251
-0.380574
-0.386431
-0.554064
-0.261192
-0.485014
-0.393202
-0.556323
-0.274658
-0.487266
1.14312
0.369198
1.3202
1.05625
1.14794
0.285383
1.20581
1.4157
1.46757
-0.365441
-0.36868
-0.426452
-0.364275
-0.375883
-0.358738
-0.431681
-0.367651
-0.377635
0.914326
0.571364
0.495902
0.499337
0.879885
0.545223
0.466684
0.0605491
0.694618
0.14852
-0.377624
-0.335552
-0.377537
-0.346354
-0.339377
-0.352405
-0.319851
-0.400506
-0.347628
-0.356634
-0.326945
-1.25256
-0.311837
-0.698813
-0.154255
-1.2512
-0.299237
-0.720291
-0.960366
-1.11336
-1.01864
-1.1285
-0.981547
-0.620153
-1.0105
-0.603546
-0.383301
-0.486148
-0.364949
-0.520716
-0.407441
-0.479774
-0.369917
-0.531667
-0.399128
-1.21614
-0.111091
-0.491064
-0.347508
-1.21297
-1.10904
-0.950229
-1.09725
-0.705901
-1.00914
-0.700753
-0.505778
-0.59111
-0.493658
-0.591799
-0.509689
-0.581655
-0.503095
0.446116
0.493932
0.784935
0.305908
0.484836
0.485021
0.860364
0.465822
0.0952716
0.81277
-0.459074
-0.449772
-0.471765
-0.44463
-0.594578
-0.482102
-0.644801
-0.426574
-0.584524
-0.484749
-0.649324
1.26216
0.691422
1.06811
0.468706
0.923417
0.757302
1.03164
1.24407
-0.389785
-0.394778
-0.560216
-0.288327
-0.495943
-0.398654
-0.557826
-0.339567
-0.500105
1.13368
0.317826
1.23898
0.96927
1.1897
0.4665
1.29623
1.57302
1.52798
-0.3708
-0.378384
-0.437557
-0.369927
-0.371136
-0.385931
-0.440426
-0.374809
-0.364083
0.817677
0.520906
0.468052
0.549253
0.73467
0.49798
0.433292
0.151271
0.530174
0.0665894
-0.37674
-0.352021
-0.375708
-0.354988
-0.34055
-0.372074
-0.338799
-0.411341
-0.337625
-0.370234
-0.342365
-1.23063
-0.260276
-0.685901
-0.160614
-1.21232
-0.254244
-0.671776
-1.00721
-1.1198
-0.972458
-1.10023
-1.0131
-0.596312
-1.00319
-0.556968
-0.416147
-0.469259
-0.37024
-0.447304
-0.40464
-0.45291
-0.374204
-0.474249
-0.328068
-1.21873
-0.0856315
-0.44057
-0.310144
-1.24058
-1.08997
-0.909231
-1.06251
-0.701108
-1.00032
-0.695639
-0.51482
-0.573732
-0.511956
-0.578319
-0.520816
-0.553122
-0.510263
0.539309
0.490176
0.858004
0.297117
0.550952
0.502164
0.830354
0.854584
0.128972
0.937
-0.475592
-0.444778
-0.47792
-0.439192
-0.579409
-0.480056
-0.640969
-0.41442
-0.576487
-0.467941
-0.625532
0.970216
0.780407
1.05974
0.589312
1.14767
0.801215
1.17711
1.39248
-0.393436
-0.384409
-0.547556
-0.348654
-0.501603
-0.375077
-0.53478
-0.326929
-0.491563
1.21572
0.521606
1.27832
0.970804
1.25754
0.492143
1.20698
1.53453
1.41774
-0.380828
-0.383891
-0.438586
-0.375433
-0.351621
-0.368965
-0.429978
-0.372313
-0.341363
0.664854
0.484377
0.37499
0.547367
0.68074
0.540406
0.434485
0.0157615
0.414021
-0.0935557
-0.374809
-0.352931
-0.374358
-0.345761
-0.32364
-0.368599
-0.342285
-0.412014
-0.315303
-0.365639
-0.33931
-1.22307
-0.222651
-0.670031
-0.155309
-1.19631
-0.203284
-0.641944
-0.968723
-1.09914
-0.926191
-1.08454
-0.994072
-0.548383
-0.963194
-0.539749
-0.39694
-0.442384
-0.374574
-0.409375
-0.395421
-0.430144
-0.369941
-0.660015
-0.584313
-0.850041
-0.556198
-0.661752
-0.623908
-0.851286
-0.530433
-0.896987
-0.719287
-0.599046
-0.532662
-0.89565
-0.709987
-1.33259
-1.02285
-1.13404
-0.931073
-1.03853
-1.16097
-1.32565
-1.20459
-0.910822
-1.47293
-1.031
-0.914699
-1.48456
-1.20254
-0.644775
-0.49173
0.0663496
-0.162771
-0.501479
0.0641855
-0.628473
-0.531554
-0.532559
3.20032
-0.411749
-0.42682
-0.360429
-0.38634
-0.427398
-0.361951
-0.410947
-0.418844
-0.426198
-0.377637
-0.35299
-0.426489
-0.377674
-0.418596
0.436406
0.705912
0.383622
-1.81655
-1.43497
-1.46299
-1.78579
-0.51391
-0.429894
-0.483885
-0.507388
-0.43477
-0.490305
-0.494048
-0.772112
-0.447658
-0.581092
-0.68629
-0.800669
-0.453949
-0.595351
-0.637495
-0.51961
-0.44283
-0.84979
-0.652137
-0.535342
-0.438507
-0.670164
-0.682837
-0.872069
-0.570098
-0.663965
-0.696809
-0.875642
-0.535042
-0.894946
-0.709956
-0.600752
-0.530552
-0.889119
-0.703248
-1.38645
-1.07954
-1.16037
-0.968071
-1.37378
-1.08241
-1.1438
-1.19288
-0.903601
-1.51169
-1.01467
-1.19847
-0.898729
-1.51876
-0.567756
-0.439416
0.157092
-0.0200491
-0.641213
-0.405702
0.183001
-0.546049
-0.551389
1.73522
-0.440398
-0.4433
-0.380332
-0.400711
-0.432038
-0.449067
-0.388312
-0.429648
-0.437921
-0.382947
-0.371855
-0.425881
-0.444101
-0.385748
0.291073
0.616722
0.274796
-1.75655
-1.43563
-1.78406
-1.41791
-0.505387
-0.442583
-0.513702
-0.496298
-0.506348
-0.431224
-0.497374
-0.811383
-0.457242
-0.597877
-0.650899
-0.804863
-0.46216
-0.58981
-0.647316
-0.545861
-0.450367
-0.852561
-0.61968
-0.548159
-0.453367
-0.681895
-0.707014
-0.872726
-0.564927
-0.662821
-0.708995
-0.86025
-0.523592
-0.884437
-0.702894
-0.588558
-0.52094
-0.878918
-0.703377
-1.40269
-1.07429
-1.10852
-0.92337
-1.4093
-1.06408
-1.0847
-1.16798
-0.897117
-1.52846
-1.00647
-1.17414
-0.898199
-1.52477
-0.440761
-0.358079
0.165415
0.11502
-0.419772
-0.348676
0.136196
-0.563816
-0.560991
1.35629
-0.447443
-0.456733
-0.397345
-0.386126
-0.454057
-0.452859
-0.391383
-0.4334
-0.457009
-0.387143
-0.385507
-0.436626
-0.454185
-0.382092
0.247762
0.452643
0.276855
-1.90467
-1.50631
-1.8581
-1.53555
-0.388811
-0.384002
-0.412356
-0.419491
-0.403812
-0.382213
-0.400846
-0.794682
-0.451836
-0.573758
-0.593046
-0.784763
-0.447301
-0.566646
-0.586586
-0.541778
-0.45506
-0.845673
-0.58355
-0.536155
-0.454536
-0.74903
-1.01143
-0.799366
-1.18788
-1.01179
-0.840923
-0.740375
-0.757597
-1.20133
-1.01889
-0.970159
-1.01421
-0.909263
-0.766757
-1.51153
-1.14393
-1.56703
-1.11788
-1.14807
-1.58057
-1.4919
-1.85283
-1.3938
-1.43879
-1.82798
-1.34219
-0.951799
-1.07121
-1.17807
-1.05196
-1.17032
-1.36259
-1.52773
-1.11572
-1.14545
-1.60487
-1.14229
-1.59244
-1.54337
-1.87919
-1.51299
-1.48705
-1.89517
-0.905825
-0.786025
-0.7496
-0.70626
-0.789371
-0.750704
-0.904472
-0.960909
-0.762642
-0.766813
-0.951065
-1.20485
-1.03458
-0.907534
-1.50379
-0.910406
-1.49364
-1.20302
-0.909826
-0.7065
-0.779139
-0.75548
-0.780211
-0.752454
-0.911812
-0.974707
-0.779073
-0.772504
-0.990854
-0.600886
-0.591204
-0.571774
-0.594841
-0.590539
-0.571974
-0.600509
-0.609976
-0.593383
-0.587929
-0.580043
-0.589054
-0.580074
-0.610314
-0.656931
-0.691379
0.347941
0.167861
0.356607
-0.662099
-0.150691
-0.475559
0.104973
-0.488534
0.0833358
-0.67061
-0.739409
-0.742076
0.241558
0.383634
0.362689
-0.466486
-0.479917
-0.453831
-0.457672
-0.480462
-0.453639
-0.466266
-0.437549
-0.440796
-0.437539
-0.540063
-0.536954
-0.466944
-0.455922
-0.479422
-0.45366
-0.478269
-0.453729
-0.468059
-0.444354
-0.43927
-0.439119
0.957233
0.825495
1.71315
1.71576
0.828708
1.68922
0.956389
0.725104
1.1141
0.862555
1.14728
1.09972
0.858244
0.72477
0.934102
1.58059
0.729407
1.5125
0.819629
1.59335
0.872546
0.757187
1.12518
1.06491
0.863489
1.08566
0.876235
0.763859
2.77683
-0.381369
-0.383464
-0.381326
-0.309656
-0.381901
-0.261814
-0.311036
-0.381538
-0.381128
-0.4161
-0.389315
-0.43611
-0.372168
-0.431012
-0.366035
-0.422819
-0.385156
-0.266314
-0.323694
-0.393638
-0.315627
-0.385786
-0.391947
0.697506
0.772868
1.10182
1.15257
0.781953
1.08415
0.731585
0.685351
1.34887
0.660664
1.2823
1.30838
0.607851
0.744298
0.667342
1.15673
0.834248
0.979652
0.833294
1.03183
0.645362
0.61404
1.23433
1.23409
0.586476
1.24517
0.591769
0.59084
1.39898
1.38561
-0.365868
-0.367067
-0.410223
-0.396961
-0.415139
-0.364357
-0.397027
-0.41523
-0.409357
-0.420161
-0.354941
-0.432897
-0.380521
-0.428759
-0.378717
-0.422731
-0.413129
-0.36585
-0.397737
-0.41876
-0.397401
-0.417384
-0.41593
-0.286173
0.194961
-0.245966
0.0815432
0.174971
-0.239274
-0.295038
-0.640925
-0.621299
0.724612
0.309941
0.347458
-0.235628
0.10366
0.13059
-0.223793
0.121593
-0.231465
-0.198132
-0.603643
-0.612797
-0.359294
-0.3778
-0.359799
-0.389547
-0.392849
-0.369293
-0.369622
-0.345451
-0.337575
-0.369761
-0.347916
-0.368219
-0.377373
-0.361019
-0.359716
-0.403096
-0.397818
-0.371714
-0.343722
-0.370197
-0.358942
-0.37143
-0.353512
-0.373492
-0.755661
-0.733501
-1.11806
-1.25573
-0.76105
-1.12049
-0.745966
-0.731515
-1.25675
-0.743262
-1.07152
-0.760037
-1.09736
-0.71291
-1.33283
-1.1715
-1.05732
-0.984033
-1.20253
-1.07524
-1.29916
-1.45566
-1.4726
-1.16419
-1.11962
-1.48366
-1.17144
-1.44111
-1.83484
-1.46456
-1.47339
-1.81897
-1.37983
-1.00068
-1.22945
-1.11172
-1.21673
-1.08962
-1.41144
-1.47437
-1.12268
-1.51175
-1.18214
-1.49916
-1.17586
-1.48342
-0.812039
-0.589766
-0.587097
-0.802496
-1.03901
-1.33755
-0.798188
-0.989681
-1.35094
-0.809734
-1.03556
-0.76333
-0.613897
-0.65302
-0.616264
-0.614723
-0.66051
-0.760508
-0.822465
-0.577653
-0.582501
-0.828037
-1.04619
-0.996268
-1.39561
-0.833571
-1.37258
-0.817413
-1.05818
-0.766175
-0.611626
-0.614468
-0.681573
-0.616069
-0.670331
-0.767799
-0.510079
-0.517425
-0.446636
-0.512821
-0.440119
-0.501547
-0.524633
-0.717095
-1.0044
-0.990746
-1.21708
-0.744
-0.989452
-0.984596
-0.684674
-1.21046
-0.949939
-0.884959
-0.971543
-0.945094
-0.64432
-1.55666
-1.14207
-1.61594
-1.10465
-1.55294
-1.1353
-1.62503
-1.90188
-1.51271
-1.9033
-1.49946
-1.40058
-0.958224
-1.07919
-1.11438
-1.08228
-1.12858
-1.40782
-1.55291
-1.10173
-1.11526
-1.62943
-1.12594
-1.63
-1.54176
-1.87897
-1.43758
-1.47217
-1.84161
-0.910481
-0.79259
-0.754804
-0.703226
-0.912285
-0.789584
-0.756248
-1.01454
-0.785811
-1.00486
-0.789956
-1.18668
-1.01247
-0.894207
-1.5284
-0.895544
-1.52498
-1.18124
-0.907176
-0.702938
-0.803665
-0.746374
-0.804349
-0.746838
-0.902717
-1.01971
-0.790656
-0.79132
-1.01503
-0.621799
-0.585407
-0.587678
-0.58963
-0.619408
-0.58187
-0.590174
-0.626957
-0.586882
-0.572711
-0.599807
-0.577512
-0.594854
-0.63113
-0.673917
-0.605533
0.359724
0.588897
0.336653
-0.440079
0.0389488
-0.358267
0.191758
-0.37336
0.193213
-0.389982
-0.584457
-0.561675
0.726093
0.358029
0.365801
-0.471918
-0.480359
-0.45465
-0.462541
-0.469706
-0.483505
-0.454871
-0.440996
-0.448655
-0.439461
-0.561657
-0.556742
-0.474818
-0.467731
-0.492075
-0.457433
-0.487753
-0.456408
-0.478432
-0.448927
-0.435957
-0.439413
0.845776
0.715733
1.43312
1.12137
0.831752
0.742867
1.37773
0.769745
1.04563
0.862455
1.04021
0.762366
1.04242
0.874306
0.871719
0.990268
0.858522
1.35043
0.805061
1.35208
0.880327
0.785935
1.02094
1.0626
0.912071
1.04842
0.88972
0.804385
1.4064
-0.392852
-0.394552
-0.410492
-0.334554
-0.404563
-0.305637
-0.400981
-0.345936
-0.417383
-0.449297
-0.401168
-0.456684
-0.398527
-0.454834
-0.395216
-0.452739
-0.420167
-0.324542
-0.364051
-0.442438
-0.356863
-0.431461
-0.426137
0.658243
0.828894
0.948609
1.13287
0.63809
0.838214
0.950197
0.736557
1.30102
0.64264
1.28283
0.645358
1.42112
0.680057
0.715589
1.1552
0.90108
1.0257
0.865824
0.982605
0.774974
0.89293
1.30572
1.62299
0.814275
1.57323
0.728452
1.0139
1.66638
1.73857
-0.37318
-0.375833
-0.421732
-0.397876
-0.421187
-0.37196
-0.41928
-0.397641
-0.422473
-0.43352
-0.379781
-0.454603
-0.388956
-0.450228
-0.388178
-0.435635
-0.423801
-0.373777
-0.395244
-0.424453
-0.39682
-0.424278
-0.424001
-0.189296
0.10449
-0.217949
0.132128
-0.17656
0.096746
-0.228118
-0.595878
-0.590613
0.541675
0.244495
0.250358
-0.243049
0.110864
0.0891802
-0.271904
0.101517
-0.241327
-0.307677
-0.624457
-0.60348
-0.361036
-0.376708
-0.362306
-0.405457
-0.406159
-0.375362
-0.37062
-0.365179
-0.353695
-0.375023
-0.368734
-0.369101
-0.375725
-0.363215
-0.36241
-0.397978
-0.402853
-0.374923
-0.355267
-0.365697
-0.375978
-0.367273
-0.372991
-0.374337
-0.681796
-0.717479
-1.04194
-1.21829
-0.690685
-0.703969
-1.03007
-0.690109
-1.20928
-0.738323
-1.05221
-0.705455
-1.03352
-0.721148
-1.41104
-1.2099
-1.10706
-0.992829
-1.41207
-1.19272
-1.10058
-1.46803
-1.51503
-1.16671
-1.11264
-1.4784
-1.5144
-1.15202
-1.74566
-1.45469
-1.4166
-1.78863
-1.41132
-0.981225
-1.19184
-1.09207
-1.18734
-1.09586
-1.41285
-1.46015
-1.10556
-1.52491
-1.13291
-1.51485
-1.13829
-1.46789
-0.821621
-0.57172
-0.827498
-0.560539
-1.08106
-1.41073
-0.84347
-1.01637
-1.07072
-1.41502
-0.85388
-0.77056
-0.611189
-0.686727
-0.584831
-0.768447
-0.600208
-0.690482
-0.815992
-0.529771
-0.545685
-0.813937
-1.08865
-1.01006
-1.41942
-0.861139
-1.4161
-0.857689
-1.09548
-0.771804
-0.57124
-0.572044
-0.689608
-0.586805
-0.689736
-0.774868
-0.457084
-0.470272
-0.393845
-0.432885
-0.40922
-0.46482
-0.428751
-0.60799
-0.93322
-0.83108
-1.21985
-0.624371
-0.919559
-0.784921
-0.5918
-1.2314
-0.884242
-0.70184
-0.901784
-0.74191
-0.58019
-1.51685
-1.1035
-1.62426
-1.08003
-1.52881
-1.09186
-1.61744
-1.76269
-1.40792
-1.79656
-1.38427
-1.39758
-0.915667
-1.0515
-1.06251
-1.0592
-1.07635
-1.38525
-1.50891
-1.07468
-1.07721
-1.60188
-1.08746
-1.61088
-1.50109
-1.73572
-1.35875
-1.36703
-1.72373
-0.892806
-0.808038
-0.735167
-0.698739
-0.898068
-0.807381
-0.727063
-0.998143
-0.786811
-1.00844
-0.781258
-1.16349
-1.00622
-0.899859
-1.50813
-0.90193
-1.51867
-1.15891
-0.888505
-0.699291
-0.806978
-0.715392
-0.808863
-0.72104
-0.886126
-0.99163
-0.769224
-0.774738
-0.985276
-0.637045
-0.569697
-0.601216
-0.564147
-0.63446
-0.565747
-0.600847
-0.633015
-0.557191
-0.563312
-0.591033
-0.56384
-0.592739
-0.63426
-0.646808
-0.70521
0.349879
0.918199
0.386314
-0.440067
0.120925
-0.274341
0.0844416
-0.329172
0.0882898
-0.406057
-0.799802
-0.765772
0.943857
0.460256
0.424629
-0.48641
-0.494954
-0.458871
-0.478104
-0.482765
-0.494935
-0.460441
-0.435412
-0.439677
-0.431684
-0.550754
-0.55427
-0.48831
-0.479657
-0.487885
-0.461129
-0.492122
-0.46093
-0.488513
-0.441423
-0.431328
-0.432545
0.963242
0.888738
1.35071
1.09033
0.885301
0.983855
1.348
0.857952
1.1008
0.94582
1.09376
0.836517
1.13995
0.960797
1.06647
1.13115
1.06986
1.3436
1.03524
1.34315
1.11512
0.885034
1.13844
1.16628
1.03619
1.15877
0.995483
0.905759
1.40193
-0.390195
-0.387085
-0.424816
-0.366587
-0.451273
-0.347654
-0.429999
-0.363299
-0.449019
-0.441514
-0.378025
-0.446747
-0.374692
-0.44898
-0.381723
-0.4362
-0.420803
-0.3377
-0.350478
-0.436798
-0.355991
-0.444006
-0.415774
0.837724
0.924701
1.04917
1.23008
0.81392
0.948137
1.07323
1.1027
1.64248
0.813934
1.29718
1.08309
1.68508
0.820238
0.848151
1.24339
0.992422
1.11378
0.973645
1.09879
0.853938
1.07858
1.2388
1.6535
0.868231
1.65519
0.81847
1.12357
1.50021
1.43713
-0.382603
-0.383646
-0.420164
-0.392651
-0.424995
-0.374733
-0.423498
-0.389263
-0.423488
-0.429995
-0.377283
-0.44279
-0.368718
-0.448918
-0.374456
-0.426214
-0.417311
-0.373357
-0.382939
-0.420869
-0.38545
-0.42228
-0.414668
-0.429236
0.100237
-0.318166
-0.0464966
-0.386594
0.10815
-0.344666
-0.660044
-0.683383
0.400952
0.385695
0.317297
-0.438151
-0.0853047
0.162239
-0.35209
0.128589
-0.357879
-0.405782
-0.684673
-0.687968
-0.363065
-0.374764
-0.363039
-0.393498
-0.389579
-0.373458
-0.362696
-0.378122
-0.350553
-0.373748
-0.362169
-0.377985
-0.374406
-0.362682
-0.362776
-0.383719
-0.386298
-0.3732
-0.34799
-0.36028
-0.375617
-0.360593
-0.37729
-0.373178
-0.755834
-0.777246
-1.0713
-1.21989
-0.743506
-0.788811
-1.08169
-0.775208
-1.21182
-0.712538
-1.11241
-0.77324
-1.10497
-0.753676
-1.38668
-1.19517
-1.09253
-0.967353
-1.40585
-1.19274
-1.09393
-1.50703
-1.5397
-1.1364
-1.09306
-1.48939
-1.54971
-1.14175
-1.92159
-1.51545
-1.54034
-1.90877
-1.36691
-0.95045
-1.14198
-1.08282
-1.1909
-1.09282
-1.34107
-1.51823
-1.09514
-1.54479
-1.15022
-1.55337
-1.15645
-1.51468
-0.816212
-0.517634
-0.815404
-0.511152
-1.10238
-1.42241
-0.863476
-0.982459
-1.10033
-1.42156
-0.864908
-0.775334
-0.564006
-0.688158
-0.543458
-0.776538
-0.563337
-0.689075
-0.817149
-0.503713
-0.50607
-0.814802
-1.1021
-0.972964
-1.40634
-0.862777
-1.41714
-0.866663
-1.09817
-0.773485
-0.541571
-0.564249
-0.692627
-0.561679
-0.695202
-0.772108
-0.378499
-0.41281
-0.37147
-0.393825
-0.374157
-0.396825
-0.373459
)
;

boundaryField
{
    inlet
    {
        type            zeroGradient;
    }
    outlet
    {
        type            fixedValue;
        value           uniform 0;
    }
    up
    {
        type            zeroGradient;
    }
    down
    {
        type            zeroGradient;
    }
    frontAndBack
    {
        type            zeroGradient;
    }
    cylinder
    {
        type            zeroGradient;
    }
}


// ************************************************************************* //
