/*--------------------------------*- C++ -*----------------------------------*\
  =========                 |
  \\      /  F ield         | OpenFOAM: The Open Source CFD Toolbox
   \\    /   O peration     | Website:  https://openfoam.org
    \\  /    A nd           | Version:  8
     \\/     M anipulation  |
\*---------------------------------------------------------------------------*/
FoamFile
{
    version     2.0;
    format      ascii;
    class       volScalarField;
    location    "0.02";
    object      p;
}
// * * * * * * * * * * * * * * * * * * * * * * * * * * * * * * * * * * * * * //

dimensions      [0 2 -2 0 0 0 0];

internalField   nonuniform List<scalar> 
400
(
2.17838e-08
-0.0670387
-0.164233
-0.250525
-0.313096
-0.360018
-0.395108
-0.420974
-0.439543
-0.45229
-0.460422
-0.465045
-0.467202
-0.467853
-0.467902
-0.468191
-0.46934
-0.471448
-0.473908
-0.474111
-0.0657509
-0.127083
-0.201829
-0.268927
-0.322678
-0.364874
-0.397482
-0.42229
-0.440771
-0.45404
-0.463027
-0.468661
-0.471844
-0.473349
-0.473834
-0.473896
-0.474003
-0.474304
-0.47495
-0.474971
-0.157294
-0.19941
-0.248952
-0.29777
-0.340694
-0.376317
-0.404837
-0.427125
-0.444157
-0.45668
-0.465343
-0.470943
-0.474335
-0.47619
-0.476966
-0.477054
-0.476827
-0.476573
-0.477214
-0.478857
-0.238671
-0.265178
-0.297771
-0.332093
-0.364544
-0.392843
-0.416208
-0.434835
-0.449284
-0.459951
-0.46721
-0.471795
-0.474631
-0.476385
-0.477355
-0.477707
-0.477695
-0.477692
-0.479167
-0.482781
-0.299073
-0.31959
-0.342782
-0.367075
-0.390905
-0.412321
-0.430281
-0.44467
-0.455822
-0.463857
-0.468887
-0.471618
-0.473142
-0.474242
-0.475131
-0.475771
-0.476231
-0.476841
-0.479414
-0.48494
-0.347853
-0.365899
-0.383881
-0.401517
-0.418735
-0.434172
-0.446879
-0.456715
-0.464031
-0.468807
-0.470887
-0.470907
-0.470168
-0.469701
-0.469787
-0.470274
-0.471057
-0.472352
-0.476215
-0.483857
-0.389522
-0.407212
-0.422532
-0.435831
-0.448064
-0.4584
-0.466106
-0.47118
-0.474218
-0.475241
-0.473819
-0.47038
-0.466363
-0.463138
-0.461253
-0.460641
-0.461155
-0.462944
-0.468326
-0.478649
-0.427189
-0.446256
-0.460641
-0.471083
-0.479376
-0.485176
-0.488
-0.488052
-0.486336
-0.483123
-0.477756
-0.470292
-0.46211
-0.454893
-0.449636
-0.446633
-0.445961
-0.447886
-0.455122
-0.469064
-0.463309
-0.485362
-0.500012
-0.50838
-0.513136
-0.514488
-0.512273
-0.506891
-0.499787
-0.491664
-0.481802
-0.469817
-0.456799
-0.444582
-0.434668
-0.427973
-0.425132
-0.426819
-0.43638
-0.455207
-0.499995
-0.526598
-0.54227
-0.548715
-0.549722
-0.546203
-0.53848
-0.527129
-0.513888
-0.499923
-0.484685
-0.467493
-0.449032
-0.431075
-0.415541
-0.40409
-0.398196
-0.399261
-0.411626
-0.43683
-0.539478
-0.572231
-0.589255
-0.593354
-0.589886
-0.58064
-0.566677
-0.548808
-0.528786
-0.508005
-0.486224
-0.462759
-0.438002
-0.413529
-0.391495
-0.374259
-0.364279
-0.363961
-0.379221
-0.41238
-0.584936
-0.625581
-0.643779
-0.644453
-0.635293
-0.61908
-0.597856
-0.572859
-0.545638
-0.51737
-0.487982
-0.456998
-0.424728
-0.392551
-0.362688
-0.338043
-0.322061
-0.318416
-0.335635
-0.378253
-0.641726
-0.692002
-0.710207
-0.705183
-0.688223
-0.663187
-0.633168
-0.600061
-0.565198
-0.529161
-0.491648
-0.452274
-0.411305
-0.369901
-0.330182
-0.295371
-0.269799
-0.258794
-0.275207
-0.32832
-0.719125
-0.77959
-0.794162
-0.778738
-0.750042
-0.71325
-0.672235
-0.629535
-0.586313
-0.542413
-0.49693
-0.449146
-0.398972
-0.347073
-0.295136
-0.246294
-0.205514
-0.180258
-0.189993
-0.252679
-0.833307
-0.899534
-0.901202
-0.866597
-0.819576
-0.766884
-0.712497
-0.658894
-0.606792
-0.555226
-0.50251
-0.447178
-0.388256
-0.325353
-0.259054
-0.1916
-0.127911
-0.0776223
-0.0687046
-0.133534
-1.01296
-1.06658
-1.0351
-0.967061
-0.892616
-0.819133
-0.749629
-0.685051
-0.624723
-0.566609
-0.508177
-0.446985
-0.380716
-0.307236
-0.225043
-0.134129
-0.037787
0.0538491
0.105332
0.0623177
-1.31001
-1.29884
-1.19521
-1.07294
-0.960555
-0.86182
-0.776732
-0.702877
-0.636854
-0.574982
-0.513739
-0.449601
-0.378625
-0.296351
-0.198079
-0.079585
0.0604427
0.216442
0.354419
0.393981
-1.84224
-1.6202
-1.36889
-1.1651
-1.00576
-0.881247
-0.783807
-0.705175
-0.638213
-0.577285
-0.517797
-0.455158
-0.383852
-0.29698
-0.185781
-0.0392128
0.153886
0.403558
0.709756
0.989373
-2.91217
-2.04439
-1.48578
-1.17799
-0.981528
-0.847256
-0.752693
-0.681538
-0.623209
-0.571072
-0.520349
-0.466285
-0.402926
-0.322178
-0.211724
-0.0516394
0.186863
0.556704
1.19801
2.16261
-4.74724
-2.44864
-1.39844
-1.01721
-0.837889
-0.736485
-0.67383
-0.629129
-0.592068
-0.557855
-0.523654
-0.486547
-0.442481
-0.385111
-0.302235
-0.168714
0.0650808
0.532309
1.68939
4.0919
)
;

boundaryField
{
    movingWall
    {
        type            zeroGradient;
    }
    fixedWalls
    {
        type            zeroGradient;
    }
    frontAndBack
    {
        type            empty;
    }
}


// ************************************************************************* //
