/*--------------------------------*- C++ -*----------------------------------*\
  =========                 |
  \\      /  F ield         | OpenFOAM: The Open Source CFD Toolbox
   \\    /   O peration     | Website:  https://openfoam.org
    \\  /    A nd           | Version:  8
     \\/     M anipulation  |
\*---------------------------------------------------------------------------*/
FoamFile
{
    version     2.0;
    format      ascii;
    class       surfaceScalarField;
    location    "0.02";
    object      phi;
}
// * * * * * * * * * * * * * * * * * * * * * * * * * * * * * * * * * * * * * //

dimensions      [0 3 -1 0 0 0 0];

internalField   nonuniform List<scalar> 
760
(
2.93581e-08
-2.93582e-08
9.88242e-08
-6.94665e-08
4.94959e-08
4.93287e-08
-2.7288e-08
7.67836e-08
-1.18045e-07
9.0757e-08
-2.07546e-07
8.95009e-08
-2.86039e-07
7.84935e-08
-3.47551e-07
6.15124e-08
-3.88385e-07
4.08334e-08
-4.06352e-07
1.79671e-08
-4.00506e-07
-5.84535e-09
-3.71187e-07
-2.93195e-08
-3.20183e-07
-5.10034e-08
-2.5104e-07
-6.91431e-08
-1.69632e-07
-8.14071e-08
-8.49611e-08
-8.46707e-08
-1.00819e-08
-7.48793e-08
3.64856e-08
-4.65673e-08
3.38659e-08
2.62079e-09
3.38662e-08
-7.08602e-08
4.15018e-08
-1.51735e-07
1.1409e-08
-2.8874e-07
1.86334e-07
-4.92302e-07
2.80346e-07
-7.13632e-07
3.12088e-07
-9.25356e-07
3.01224e-07
-1.10794e-06
2.61075e-07
-1.24755e-06
2.01121e-07
-1.3348e-06
1.28084e-07
-1.36418e-06
4.73499e-08
-1.33362e-06
-3.64039e-08
-1.24413e-06
-1.18809e-07
-1.10009e-06
-1.95049e-07
-9.10013e-07
-2.59214e-07
-6.87603e-07
-3.03816e-07
-4.52844e-07
-3.19431e-07
-2.3349e-07
-2.94233e-07
-6.67792e-08
-2.13278e-07
7.41672e-09
-7.15769e-08
4.12842e-08
-4.40802e-08
8.55824e-08
-2.49884e-07
2.17212e-07
-5.36925e-07
4.73374e-07
-8.77607e-07
6.21029e-07
-1.22718e-06
6.61664e-07
-1.55166e-06
6.257e-07
-1.82631e-06
5.35728e-07
-2.03374e-06
4.08551e-07
-2.16217e-06
2.56507e-07
-2.20465e-06
8.9831e-08
-2.15878e-06
-8.2273e-08
-2.02635e-06
-2.51234e-07
-1.81353e-06
-4.07872e-07
-1.53167e-06
-5.41071e-07
-1.1987e-06
-6.36787e-07
-8.40756e-07
-6.77373e-07
-4.94307e-07
-6.40683e-07
-2.08554e-07
-4.99032e-07
-3.99825e-08
-2.40147e-07
1.30154e-09
-7.57064e-08
1.61289e-07
-3.37976e-07
4.79483e-07
-7.23442e-07
8.5884e-07
-1.16741e-06
1.065e-06
-1.61507e-06
1.10932e-06
-2.02572e-06
1.03634e-06
-2.37043e-06
8.80439e-07
-2.62937e-06
6.67497e-07
-2.78947e-06
4.16608e-07
-2.84316e-06
1.43516e-07
-2.78783e-06
-1.37607e-07
-2.62553e-06
-4.13534e-07
-2.36323e-06
-6.70169e-07
-2.0138e-06
-8.90496e-07
-1.59766e-06
-1.05293e-06
-1.14499e-06
-1.13004e-06
-6.98651e-07
-1.08702e-06
-3.17764e-07
-8.79918e-07
-7.42255e-08
-4.83686e-07
-7.29244e-08
-9.64867e-08
2.57776e-07
-4.17523e-07
8.00519e-07
-8.87014e-07
1.32833e-06
-1.41989e-06
1.59788e-06
-1.95118e-06
1.64061e-06
-2.43436e-06
1.51953e-06
-2.83727e-06
1.28335e-06
-3.13865e-06
9.68875e-07
-3.32496e-06
6.02917e-07
-3.38845e-06
2.07005e-07
-3.32633e-06
-1.99724e-07
-3.14051e-06
-5.99354e-07
-2.83795e-06
-9.72728e-07
-2.43197e-06
-1.29648e-06
-1.9444e-06
-1.54051e-06
-1.40862e-06
-1.66583e-06
-8.73486e-07
-1.62215e-06
-4.08422e-07
-1.34498e-06
-1.00867e-07
-7.91241e-07
-1.73791e-07
-1.19945e-07
3.77721e-07
-5.01709e-07
1.18228e-06
-1.05609e-06
1.88271e-06
-1.6787e-06
2.22049e-06
-2.29296e-06
2.25487e-06
-2.8465e-06
2.07307e-06
-3.30464e-06
1.74149e-06
-3.64559e-06
1.30982e-06
-3.85624e-06
8.13573e-07
-3.9293e-06
2.80059e-07
-3.86188e-06
-2.67138e-07
-3.65536e-06
-8.05877e-07
-3.31591e-06
-1.31219e-06
-2.85623e-06
-1.75616e-06
-2.29855e-06
-2.09818e-06
-1.67884e-06
-2.28554e-06
-1.05218e-06
-2.24881e-06
-4.99673e-07
-1.89749e-06
-1.26483e-07
-1.16443e-06
-3.00274e-07
-1.4945e-07
5.27171e-07
-6.02465e-07
1.6353e-06
-1.25256e-06
2.53281e-06
-1.97425e-06
2.94218e-06
-2.67779e-06
2.95841e-06
-3.30478e-06
2.70006e-06
-3.81888e-06
2.25559e-06
-4.19889e-06
1.68984e-06
-4.43328e-06
1.04796e-06
-4.51604e-06
3.62821e-07
-4.44452e-06
-3.38664e-07
-4.21911e-06
-1.03128e-06
-3.84423e-06
-1.68707e-06
-3.33064e-06
-2.26974e-06
-2.69956e-06
-2.72926e-06
-1.98856e-06
-2.99654e-06
-1.25911e-06
-2.97827e-06
-6.05861e-07
-2.55074e-06
-1.55873e-07
-1.61442e-06
-4.56148e-07
-1.87677e-07
7.14848e-07
-7.29745e-07
2.17736e-06
-1.49369e-06
3.29675e-06
-2.32869e-06
3.77718e-06
-3.13026e-06
3.75997e-06
-3.83448e-06
3.40428e-06
-4.40489e-06
2.826e-06
-4.82276e-06
2.1077e-06
-5.07969e-06
1.30489e-06
-5.17211e-06
4.55245e-07
-5.09804e-06
-4.12739e-07
-4.85648e-06
-1.27284e-06
-4.44884e-06
-2.09471e-06
-3.88204e-06
-2.83654e-06
-3.17411e-06
-3.43719e-06
-2.36236e-06
-3.80829e-06
-1.51411e-06
-3.82652e-06
-7.39545e-07
-3.3253e-06
-1.93577e-07
-2.16039e-06
-6.49725e-07
-2.3795e-07
9.52798e-07
-8.93286e-07
2.8327e-06
-1.79433e-06
4.19779e-06
-2.75849e-06
4.74135e-06
-3.66514e-06
4.66662e-06
-4.4466e-06
4.18574e-06
-5.06936e-06
3.44876e-06
-5.52011e-06
2.55845e-06
-5.79593e-06
1.58071e-06
-5.8972e-06
5.56515e-07
-5.82321e-06
-4.86736e-07
-5.57111e-06
-1.52494e-06
-5.13766e-06
-2.52816e-06
-4.52331e-06
-3.45089e-06
-3.73951e-06
-4.22099e-06
-2.81988e-06
-4.72792e-06
-1.83557e-06
-4.81083e-06
-9.13853e-07
-4.24701e-06
-2.45121e-07
-2.82912e-06
-8.94847e-07
-3.05042e-07
1.25784e-06
-1.10432e-06
3.63198e-06
-2.16846e-06
5.26193e-06
-3.27497e-06
5.84786e-06
-4.28683e-06
5.67849e-06
-5.13652e-06
5.03542e-06
-5.79865e-06
4.11089e-06
-6.26997e-06
3.02978e-06
-6.55638e-06
1.86711e-06
-6.66411e-06
6.64248e-07
-6.59447e-06
-5.56372e-07
-6.34227e-06
-1.77714e-06
-5.89766e-06
-2.97277e-06
-5.2511e-06
-4.09744e-06
-4.40248e-06
-5.06962e-06
-3.37597e-06
-5.75442e-06
-2.24185e-06
-5.94496e-06
-1.14425e-06
-5.34461e-06
-3.17857e-07
-3.65552e-06
-1.2127e-06
-3.9633e-07
1.65417e-06
-1.37724e-06
4.61288e-06
-2.62951e-06
6.5142e-06
-3.88218e-06
7.10054e-06
-4.98485e-06
6.78115e-06
-5.87764e-06
5.92821e-06
-6.55136e-06
4.78462e-06
-7.01934e-06
3.49777e-06
-7.30056e-06
2.14833e-06
-7.40952e-06
7.73203e-07
-7.3504e-06
-6.15488e-07
-7.11523e-06
-2.01231e-06
-6.6855e-06
-3.4025e-06
-6.03743e-06
-4.74552e-06
-5.15259e-06
-5.95445e-06
-4.03681e-06
-6.87021e-06
-2.75023e-06
-7.23154e-06
-1.44937e-06
-6.64547e-06
-4.21435e-07
-4.68345e-06
-1.63414e-06
-5.2353e-07
2.1777e-06
-1.7309e-06
5.82025e-06
-3.18817e-06
7.97147e-06
-4.57003e-06
8.48239e-06
-5.72292e-06
7.93404e-06
-6.60807e-06
6.81336e-06
-7.244e-06
5.42055e-06
-7.66858e-06
3.92234e-06
-7.91857e-06
2.39832e-06
-8.01906e-06
8.73687e-07
-7.97809e-06
-6.56458e-07
-7.78487e-06
-2.20553e-06
-7.41067e-06
-3.7767e-06
-6.81336e-06
-5.34282e-06
-5.94815e-06
-6.81966e-06
-4.78971e-06
-8.02866e-06
-3.37199e-06
-8.64926e-06
-1.85064e-06
-8.16681e-06
-5.68841e-07
-5.96525e-06
-2.20298e-06
-7.05083e-07
2.88278e-06
-2.18808e-06
7.30325e-06
-3.84422e-06
9.62762e-06
-5.29819e-06
9.93636e-06
-6.41742e-06
9.05328e-06
-7.20639e-06
7.60233e-06
-7.72629e-06
5.94045e-06
-8.04749e-06
4.24355e-06
-8.22811e-06
2.57894e-06
-8.30499e-06
9.50566e-07
-8.29065e-06
-6.70791e-07
-8.17212e-06
-2.32406e-06
-7.9106e-06
-4.03823e-06
-7.44333e-06
-5.81009e-06
-6.69172e-06
-7.57127e-06
-5.58343e-06
-9.13695e-06
-4.10097e-06
-1.01317e-05
-2.37017e-06
-9.89762e-06
-7.79335e-07
-7.55608e-06
-2.98231e-06
-9.69288e-07
3.85207e-06
-2.7692e-06
9.10316e-06
-4.56457e-06
1.1423e-05
-5.96223e-06
1.1334e-05
-6.89774e-06
9.98879e-06
-7.4516e-06
8.15619e-06
-7.74346e-06
6.23231e-06
-7.88096e-06
4.38105e-06
-7.94287e-06
2.64085e-06
-7.976e-06
9.83699e-07
-7.9968e-06
-6.49992e-07
-7.99173e-06
-2.32914e-06
-7.91514e-06
-4.11481e-06
-7.68627e-06
-6.03896e-06
-7.18987e-06
-8.06766e-06
-6.29165e-06
-1.00352e-05
-4.88834e-06
-1.1535e-05
-3.02222e-06
-1.17637e-05
-1.08261e-06
-9.49569e-06
-4.06492e-06
-1.35623e-06
5.2083e-06
-3.46939e-06
1.12163e-05
-5.23157e-06
1.31852e-05
-6.32742e-06
1.24299e-05
-6.83969e-06
1.05011e-05
-6.96386e-06
8.28035e-06
-6.88637e-06
6.15482e-06
-6.74668e-06
4.24136e-06
-6.63514e-06
2.5293e-06
-6.60154e-06
9.50105e-07
-6.66372e-06
-5.87813e-07
-6.8104e-06
-2.18246e-06
-6.99721e-06
-3.928e-06
-7.1366e-06
-5.89957e-06
-7.08558e-06
-8.11868e-06
-6.6431e-06
-1.04776e-05
-5.58409e-06
-1.2594e-05
-3.78254e-06
-1.35653e-05
-1.51705e-06
-1.17612e-05
-5.58197e-06
-1.90238e-06
7.11069e-06
-4.18456e-06
1.34985e-05
-5.52686e-06
1.45275e-05
-5.90614e-06
1.28091e-05
-5.65973e-06
1.02547e-05
-5.12102e-06
7.74165e-06
-4.52759e-06
5.56139e-06
-4.02549e-06
3.73926e-06
-3.69464e-06
2.19845e-06
-3.57392e-06
8.2939e-07
-3.67748e-06
-4.84256e-07
-4.00031e-06
-1.85963e-06
-4.51297e-06
-3.41534e-06
-5.14458e-06
-5.26797e-06
-5.75402e-06
-7.50924e-06
-6.09638e-06
-1.01353e-05
-5.81047e-06
-1.288e-05
-4.49748e-06
-1.48783e-05
-2.09974e-06
-1.41589e-05
-7.68171e-06
-2.55944e-06
9.67012e-06
-4.49621e-06
1.54353e-05
-4.67421e-06
1.47055e-05
-3.73035e-06
1.18653e-05
-2.3423e-06
8.86661e-06
-9.39109e-07
6.33846e-06
2.57312e-07
4.36497e-06
1.15046e-06
2.84611e-06
1.70733e-06
1.64157e-06
1.91968e-06
6.17043e-07
1.78408e-06
-3.4866e-07
1.29518e-06
-1.37073e-06
4.50401e-07
-2.57056e-06
-7.30753e-07
-4.08682e-06
-2.166e-06
-6.07399e-06
-3.64112e-06
-8.66017e-06
-4.71671e-06
-1.18044e-05
-4.66193e-06
-1.49331e-05
-2.72788e-06
-1.6093e-05
-1.04096e-05
-2.90587e-06
1.2576e-05
-3.10263e-06
1.5632e-05
-8.9959e-07
1.25024e-05
2.02085e-06
8.94485e-06
4.77549e-06
6.11196e-06
7.03974e-06
4.07421e-06
8.74548e-06
2.65922e-06
9.92421e-06
1.66739e-06
1.06292e-05
9.36629e-07
1.09004e-05
3.45824e-07
1.07514e-05
-1.9967e-07
1.0165e-05
-7.84385e-07
9.09492e-06
-1.50044e-06
7.47606e-06
-2.46795e-06
5.25755e-06
-3.85549e-06
2.48276e-06
-5.88538e-06
-5.3917e-07
-8.78243e-06
-2.91718e-06
-1.25551e-05
-2.89868e-06
-1.61115e-05
-1.33083e-05
-9.70277e-07
1.35463e-05
3.60294e-06
1.10588e-05
9.38249e-06
6.72288e-06
1.42687e-05
4.05865e-06
1.79229e-05
2.4577e-06
2.05074e-05
1.48971e-06
2.22638e-05
9.02839e-07
2.33954e-05
5.35777e-07
2.4043e-05
2.89092e-07
2.42869e-05
1.01883e-07
2.41541e-05
-6.68715e-08
2.36203e-05
-2.50563e-07
2.26065e-05
-4.86658e-07
2.09708e-05
-8.32194e-07
1.85006e-05
-1.38534e-06
1.49305e-05
-2.31532e-06
1.00639e-05
-3.91581e-06
4.20261e-06
-6.69373e-06
-6.21784e-07
-1.12871e-05
-1.39301e-05
1.35463e-05
2.46051e-05
3.1328e-05
3.53866e-05
3.78443e-05
3.9334e-05
4.02369e-05
4.07726e-05
4.10617e-05
4.11636e-05
4.10967e-05
4.08462e-05
4.03595e-05
3.95273e-05
3.8142e-05
3.58267e-05
3.19109e-05
2.52171e-05
1.39301e-05
)
;

boundaryField
{
    movingWall
    {
        type            calculated;
        value           uniform 0;
    }
    fixedWalls
    {
        type            calculated;
        value           uniform 0;
    }
    frontAndBack
    {
        type            empty;
        value           nonuniform List<scalar> 0();
    }
}


// ************************************************************************* //
