/*--------------------------------*- C++ -*----------------------------------*\
  =========                 |
  \\      /  F ield         | OpenFOAM: The Open Source CFD Toolbox
   \\    /   O peration     | Website:  https://openfoam.org
    \\  /    A nd           | Version:  8
     \\/     M anipulation  |
\*---------------------------------------------------------------------------*/
FoamFile
{
    version     2.0;
    format      ascii;
    class       volVectorField;
    location    "0.02";
    object      U;
}
// * * * * * * * * * * * * * * * * * * * * * * * * * * * * * * * * * * * * * //

dimensions      [0 1 -1 0 0 0 0];

internalField   nonuniform List<vector> 
400
(
(-0.00134001 -0.0022686 0)
(0.00124153 -0.00257239 0)
(0.000757628 -0.00044714 0)
(0.00061363 0.000147758 0)
(-0.00131879 0.000419254 0)
(-0.00321957 0.000494811 0)
(-0.00495606 0.000465887 0)
(-0.0063913 0.000379109 0)
(-0.00743773 0.000257741 0)
(-0.00803738 0.000115319 0)
(-0.00816112 -3.77292e-05 0)
(-0.00780656 -0.000189768 0)
(-0.00699311 -0.000327767 0)
(-0.00576983 -0.000437028 0)
(-0.00422949 -0.000498291 0)
(-0.00252319 -0.000486115 0)
(-0.000868235 -0.000369448 0)
(0.000437313 -0.000109119 0)
(0.000899017 0.000313348 0)
(0.000527969 0.000509689 0)
(-0.00199551 -0.000281058 0)
(-0.00301781 -0.00229839 0)
(-0.00428841 0.00123363 0)
(-0.00759359 0.00270162 0)
(-0.0119903 0.00328663 0)
(-0.0164372 0.00327162 0)
(-0.0204691 0.00287774 0)
(-0.0237581 0.00224292 0)
(-0.0260734 0.00145439 0)
(-0.0272596 0.000575466 0)
(-0.0272486 -0.000341215 0)
(-0.0260389 -0.00124492 0)
(-0.0236782 -0.00207828 0)
(-0.0202844 -0.00277135 0)
(-0.016077 -0.00323542 0)
(-0.0113954 -0.00335771 0)
(-0.0067069 -0.00299601 0)
(-0.00262182 -0.00196751 0)
(-0.000103729 -0.000230681 0)
(0.000388731 0.000927949 0)
(-0.000612228 0.000228107 0)
(-0.00276966 0.00164543 0)
(-0.00770265 0.0057583 0)
(-0.0140757 0.00821948 0)
(-0.021109 0.00904281 0)
(-0.0279648 0.0086874 0)
(-0.034048 0.00750637 0)
(-0.0389434 0.00576192 0)
(-0.0423568 0.00364293 0)
(-0.0440868 0.00130223 0)
(-0.0440481 -0.00112524 0)
(-0.0422488 -0.0035134 0)
(-0.0387629 -0.00572569 0)
(-0.0337488 -0.00759582 0)
(-0.027491 -0.00891366 0)
(-0.0204311 -0.00941685 0)
(-0.0131799 -0.00877946 0)
(-0.00653509 -0.00659536 0)
(-0.00179862 -0.00272212 0)
(1.22354e-05 0.000581747 0)
(-0.000495914 0.00268112 0)
(-0.00349003 0.00676178 0)
(-0.0102827 0.0128532 0)
(-0.018864 0.0163376 0)
(-0.0279649 0.0172269 0)
(-0.036682 0.0162134 0)
(-0.0443322 0.0138438 0)
(-0.0504481 0.0105343 0)
(-0.0546979 0.00659671 0)
(-0.0568535 0.00229136 0)
(-0.0568255 -0.00214949 0)
(-0.0546298 -0.00651148 0)
(-0.0503494 -0.0105643 0)
(-0.0441592 -0.0140279 0)
(-0.0363781 -0.0165484 0)
(-0.0275098 -0.0176817 0)
(-0.0182661 -0.0168694 0)
(-0.00959032 -0.0134139 0)
(-0.00307817 -0.00696467 0)
(-0.000242363 -0.000614567 0)
(-0.000507837 0.00421741 0)
(-0.00423005 0.0126111 0)
(-0.0125605 0.0214962 0)
(-0.0230092 0.026193 0)
(-0.0338993 0.0270851 0)
(-0.0442069 0.0252063 0)
(-0.0531704 0.0213637 0)
(-0.060296 0.0161713 0)
(-0.0652371 0.0100837 0)
(-0.0677491 0.00347409 0)
(-0.0677431 -0.00332339 0)
(-0.0652426 -0.00999924 0)
(-0.0603292 -0.0162237 0)
(-0.0531728 -0.0215949 0)
(-0.0441029 -0.0255986 0)
(-0.0336648 -0.027577 0)
(-0.0226583 -0.0266924 0)
(-0.0121714 -0.0218813 0)
(-0.00410314 -0.0124855 0)
(-0.000427368 -0.00237315 0)
(-0.000614037 0.00631084 0)
(-0.00511258 0.0195962 0)
(-0.0149694 0.0317263 0)
(-0.0272747 0.0377491 0)
(-0.0399506 0.0385432 0)
(-0.0518206 0.0355769 0)
(-0.0620428 0.0299784 0)
(-0.0701161 0.022598 0)
(-0.0757023 0.014053 0)
(-0.0785516 0.00483325 0)
(-0.078579 -0.00462951 0)
(-0.0758161 -0.013933 0)
(-0.0703344 -0.0226473 0)
(-0.0622809 -0.0302429 0)
(-0.0519715 -0.0360273 0)
(-0.0399723 -0.0390918 0)
(-0.0271654 -0.0382559 0)
(-0.0147971 -0.0319963 0)
(-0.00511419 -0.0192411 0)
(-0.000597225 -0.00462328 0)
(-0.000800313 0.00894913 0)
(-0.00623425 0.02786 0)
(-0.0178406 0.0436979 0)
(-0.0322005 0.0511367 0)
(-0.0468138 0.0516832 0)
(-0.060337 0.0473581 0)
(-0.0718489 0.0396854 0)
(-0.0808643 0.0297957 0)
(-0.0870835 0.0184882 0)
(-0.0902688 0.00636715 0)
(-0.0903443 -0.00605245 0)
(-0.0873479 -0.0182887 0)
(-0.0813318 -0.0298195 0)
(-0.0723995 -0.0399851 0)
(-0.0608238 -0.0478958 0)
(-0.0471627 -0.0523465 0)
(-0.0323667 -0.0517333 0)
(-0.0178558 -0.0439506 0)
(-0.00629476 -0.0273781 0)
(-0.000796869 -0.00740311 0)
(-0.00107739 0.0122586 0)
(-0.00769912 0.0376946 0)
(-0.021443 0.0577251 0)
(-0.0381919 0.0666191 0)
(-0.0549688 0.0666836 0)
(-0.0702642 0.0606464 0)
(-0.0830967 0.0505228 0)
(-0.093033 0.0377727 0)
(-0.0998549 0.0233955 0)
(-0.103367 0.00809919 0)
(-0.103511 -0.0075474 0)
(-0.100325 -0.0230119 0)
(-0.0938303 -0.0377002 0)
(-0.0840584 -0.0508285 0)
(-0.0711987 -0.0612919 0)
(-0.055756 -0.0675337 0)
(-0.0387174 -0.0674211 0)
(-0.0216797 -0.0581048 0)
(-0.00781438 -0.0372177 0)
(-0.00107237 -0.0108419 0)
(-0.00147249 0.0164414 0)
(-0.00963076 0.0495292 0)
(-0.0260286 0.0742463 0)
(-0.0455772 0.0845311 0)
(-0.06474 0.0837413 0)
(-0.0818669 0.0755203 0)
(-0.0959665 0.0624935 0)
(-0.106716 0.0465033 0)
(-0.114041 0.0287603 0)
(-0.117835 0.0100552 0)
(-0.118072 -0.00903701 0)
(-0.114787 -0.0279874 0)
(-0.107944 -0.0461702 0)
(-0.0974673 -0.0626999 0)
(-0.0834037 -0.076245 0)
(-0.066133 -0.0848354 0)
(-0.046615 -0.0856733 0)
(-0.0266 -0.0749429 0)
(-0.00986393 -0.0492339 0)
(-0.00148128 -0.0151647 0)
(-0.0020325 0.0217845 0)
(-0.0121948 0.0639232 0)
(-0.0318678 0.0937827 0)
(-0.054633 0.105204 0)
(-0.0762987 0.102973 0)
(-0.095145 0.0919317 0)
(-0.110274 0.0754629 0)
(-0.121563 0.0558388 0)
(-0.129162 0.0344772 0)
(-0.133121 0.0122118 0)
(-0.133479 -0.0104426 0)
(-0.130254 -0.0330425 0)
(-0.123326 -0.0550033 0)
(-0.11246 -0.075386 0)
(-0.0974785 -0.092642 0)
(-0.0785259 -0.104329 0)
(-0.0564196 -0.106819 0)
(-0.0329837 -0.095022 0)
(-0.0126839 -0.0640399 0)
(-0.00210091 -0.0207121 0)
(-0.00283977 0.0286921 0)
(-0.0156332 0.0815671 0)
(-0.0392748 0.116873 0)
(-0.0655686 0.128847 0)
(-0.0895964 0.124271 0)
(-0.109723 0.109563 0)
(-0.125326 0.0890325 0)
(-0.136619 0.0654083 0)
(-0.144069 0.0402763 0)
(-0.147964 0.0144451 0)
(-0.148452 -0.0117186 0)
(-0.145536 -0.0379608 0)
(-0.138975 -0.0638474 0)
(-0.128311 -0.0884778 0)
(-0.113039 -0.110137 0)
(-0.0929104 -0.125879 0)
(-0.0684045 -0.131065 0)
(-0.0412347 -0.118922 0)
(-0.0165867 -0.0824055 0)
(-0.00303665 -0.027981 0)
(-0.00404211 0.0377485 0)
(-0.0203117 0.103286 0)
(-0.048609 0.143968 0)
(-0.0784337 0.155371 0)
(-0.104182 0.147115 0)
(-0.124602 0.127666 0)
(-0.139639 0.102421 0)
(-0.150024 0.0745489 0)
(-0.156646 0.045703 0)
(-0.160098 0.0165518 0)
(-0.160688 -0.0128004 0)
(-0.158413 -0.0424101 0)
(-0.152895 -0.0721306 0)
(-0.143394 -0.101242 0)
(-0.12896 -0.127983 0)
(-0.108751 -0.148939 0)
(-0.0825995 -0.158309 0)
(-0.0517475 -0.147138 0)
(-0.0219862 -0.105289 0)
(-0.00444625 -0.0376956 0)
(-0.00589639 0.0498305 0)
(-0.0267666 0.130032 0)
(-0.0601963 0.175241 0)
(-0.0928632 0.184122 0)
(-0.118809 0.170331 0)
(-0.137692 0.144887 0)
(-0.150442 0.114379 0)
(-0.158526 0.0822922 0)
(-0.163336 0.0501615 0)
(-0.165804 0.0183392 0)
(-0.166417 -0.0134752 0)
(-0.165192 -0.0457793 0)
(-0.161622 -0.078866 0)
(-0.154671 -0.112385 0)
(-0.142863 -0.144738 0)
(-0.124537 -0.172209 0)
(-0.0984593 -0.18779 0)
(-0.0647798 -0.17984 0)
(-0.0294408 -0.133821 0)
(-0.00659755 -0.050924 0)
(-0.00882617 0.0662967 0)
(-0.0357185 0.162801 0)
(-0.0740514 0.210213 0)
(-0.107486 0.213428 0)
(-0.130664 0.191732 0)
(-0.145004 0.159063 0)
(-0.152902 0.123085 0)
(-0.156763 0.0873065 0)
(-0.158484 0.052864 0)
(-0.159284 0.0195689 0)
(-0.159799 -0.0134355 0)
(-0.160079 -0.0472088 0)
(-0.159549 -0.0826301 0)
(-0.156952 -0.11994 0)
(-0.150306 -0.158023 0)
(-0.136983 -0.193225 0)
(-0.11421 -0.217566 0)
(-0.0801168 -0.216393 0)
(-0.0396517 -0.16913 0)
(-0.00994457 -0.0692608 0)
(-0.0134714 0.0892268 0)
(-0.047913 0.202256 0)
(-0.0890987 0.246953 0)
(-0.118681 0.239837 0)
(-0.133981 0.207567 0)
(-0.13936 0.166884 0)
(-0.139045 0.125944 0)
(-0.136367 0.0877452 0)
(-0.133559 0.0526517 0)
(-0.131949 0.0197175 0)
(-0.132203 -0.012577 0)
(-0.134405 -0.0459172 0)
(-0.138033 -0.0818639 0)
(-0.141819 -0.121463 0)
(-0.14351 -0.164493 0)
(-0.139614 -0.20801 0)
(-0.125505 -0.243793 0)
(-0.0961326 -0.254458 0)
(-0.0531636 -0.211739 0)
(-0.0151255 -0.0949904 0)
(-0.0205182 0.121707 0)
(-0.0632339 0.247547 0)
(-0.101139 0.280433 0)
(-0.118067 0.256926 0)
(-0.11771 0.21195 0)
(-0.108497 0.163827 0)
(-0.0962903 0.119825 0)
(-0.0848591 0.0815936 0)
(-0.0762887 0.0483195 0)
(-0.0716547 0.0181896 0)
(-0.0714541 -0.0109448 0)
(-0.0757872 -0.0413121 0)
(-0.0843547 -0.0751087 0)
(-0.0962567 -0.114289 0)
(-0.109531 -0.159941 0)
(-0.120434 -0.21074 0)
(-0.12279 -0.259698 0)
(-0.107449 -0.288305 0)
(-0.0690982 -0.260104 0)
(-0.0225953 -0.13123 0)
(-0.029554 0.16854 0)
(-0.0775372 0.293876 0)
(-0.0977505 0.29989 0)
(-0.0874592 0.254255 0)
(-0.0615166 0.197143 0)
(-0.0321915 0.144988 0)
(-0.00553071 0.102008 0)
(0.015607 0.0675297 0)
(0.0301791 0.039312 0)
(0.0378925 0.0148011 0)
(0.0386746 -0.00850374 0)
(0.0324458 -0.0330521 0)
(0.0190876 -0.0613719 0)
(-0.00136201 -0.096144 0)
(-0.0281329 -0.139933 0)
(-0.0586006 -0.193951 0)
(-0.0867021 -0.254682 0)
(-0.0998818 -0.306403 0)
(-0.0816474 -0.308163 0)
(-0.0311825 -0.182341 0)
(-0.0338412 0.233235 0)
(-0.0727724 0.324386 0)
(-0.0465785 0.284012 0)
(0.0104038 0.216339 0)
(0.0698233 0.154654 0)
(0.12069 0.106697 0)
(0.160376 0.071472 0)
(0.188994 0.0456719 0)
(0.207618 0.0260058 0)
(0.217257 0.00973172 0)
(0.21847 -0.00543766 0)
(0.211243 -0.0216065 0)
(0.194932 -0.041036 0)
(0.168322 -0.0665095 0)
(0.130033 -0.101559 0)
(0.07956 -0.150063 0)
(0.0191202 -0.214052 0)
(-0.0406923 -0.287299 0)
(-0.0708697 -0.337168 0)
(-0.0325575 -0.249564 0)
(0.00624596 0.281167 0)
(0.0144526 0.293349 0)
(0.126088 0.207014 0)
(0.240622 0.135655 0)
(0.327069 0.0867478 0)
(0.388415 0.0548224 0)
(0.430857 0.034295 0)
(0.459029 0.0208366 0)
(0.476366 0.0114637 0)
(0.485046 0.00418824 0)
(0.486128 -0.00241257 0)
(0.479662 -0.00954902 0)
(0.464644 -0.0185705 0)
(0.43885 -0.0313943 0)
(0.398742 -0.0510367 0)
(0.339477 -0.0821635 0)
(0.254466 -0.131452 0)
(0.139464 -0.206061 0)
(0.0254481 -0.299329 0)
(0.0146306 -0.291785 0)
(0.300137 0.146954 0)
(0.397706 0.129331 0)
(0.557746 0.0780709 0)
(0.672263 0.0448174 0)
(0.737058 0.0256716 0)
(0.774733 0.0147501 0)
(0.797579 0.00852056 0)
(0.81137 0.00487424 0)
(0.819284 0.00258476 0)
(0.823032 0.000946427 0)
(0.823358 -0.000479537 0)
(0.820302 -0.0020264 0)
(0.813221 -0.0040747 0)
(0.800546 -0.00724761 0)
(0.779292 -0.0126782 0)
(0.743908 -0.0224288 0)
(0.682579 -0.0403389 0)
(0.571255 -0.0732902 0)
(0.409814 -0.126977 0)
(0.307395 -0.148352 0)
)
;

boundaryField
{
    movingWall
    {
        type            fixedValue;
        value           uniform (1 0 0);
    }
    fixedWalls
    {
        type            noSlip;
    }
    frontAndBack
    {
        type            empty;
    }
}


// ************************************************************************* //
