/*--------------------------------*- C++ -*----------------------------------*\
  =========                 |
  \\      /  F ield         | OpenFOAM: The Open Source CFD Toolbox
   \\    /   O peration     | Website:  https://openfoam.org
    \\  /    A nd           | Version:  8
     \\/     M anipulation  |
\*---------------------------------------------------------------------------*/
FoamFile
{
    version     2.0;
    format      ascii;
    class       volScalarField;
    location    "1.99";
    object      p;
}
// * * * * * * * * * * * * * * * * * * * * * * * * * * * * * * * * * * * * * //

dimensions      [0 2 -2 0 0 0 0];

internalField   nonuniform List<scalar> 
400
(
8.29755e-16
1.63262e-15
2.27064e-15
2.75051e-15
3.14988e-15
3.4486e-15
3.635e-15
3.77166e-15
3.79867e-15
3.80852e-15
3.7764e-15
3.73105e-15
3.64947e-15
3.57313e-15
3.45215e-15
3.25132e-15
2.96757e-15
2.65135e-15
2.15139e-15
1.5122e-15
1.90852e-15
2.26735e-15
2.66266e-15
2.93845e-15
3.27497e-15
3.53754e-15
3.69413e-15
3.82702e-15
3.82956e-15
3.83312e-15
3.77317e-15
3.7469e-15
3.64118e-15
3.62645e-15
3.54635e-15
3.36525e-15
3.07296e-15
2.87132e-15
2.52064e-15
2.10792e-15
2.68629e-15
2.83826e-15
3.00239e-15
3.26183e-15
3.47738e-15
3.75462e-15
3.86055e-15
3.86257e-15
4.0007e-15
3.90336e-15
3.83548e-15
3.79282e-15
3.70576e-15
3.64332e-15
3.68975e-15
3.48128e-15
3.19092e-15
3.13337e-15
2.95239e-15
2.7216e-15
3.13279e-15
3.23342e-15
3.36295e-15
3.48926e-15
3.73395e-15
3.915e-15
4.02036e-15
4.07541e-15
4.14542e-15
4.064e-15
3.92543e-15
3.86744e-15
3.72902e-15
3.87246e-15
3.84281e-15
3.60798e-15
3.3936e-15
3.34917e-15
3.319e-15
3.13979e-15
3.47167e-15
3.42584e-15
3.54884e-15
3.70517e-15
3.96675e-15
3.98967e-15
4.07925e-15
4.13127e-15
4.22646e-15
4.23174e-15
4.04936e-15
3.98475e-15
4.02037e-15
4.13367e-15
4.03188e-15
3.89915e-15
3.66533e-15
3.52269e-15
3.37715e-15
3.38575e-15
3.6543e-15
3.78288e-15
3.72659e-15
3.86558e-15
4.32073e-15
4.13307e-15
4.00446e-15
4.20118e-15
4.3235e-15
4.31132e-15
4.12254e-15
4.24024e-15
4.27234e-15
4.38286e-15
4.18055e-15
4.10766e-15
3.80834e-15
3.67356e-15
3.62665e-15
3.5544e-15
3.80825e-15
3.92289e-15
3.9066e-15
4.26846e-15
4.60188e-15
4.32387e-15
4.23454e-15
4.27684e-15
4.33473e-15
4.38672e-15
4.26896e-15
4.35173e-15
4.41857e-15
4.50677e-15
4.34521e-15
4.33529e-15
4.0274e-15
3.97721e-15
3.78485e-15
3.5509e-15
4.10492e-15
3.92375e-15
3.77616e-15
4.49178e-15
4.63734e-15
4.54723e-15
4.48981e-15
4.41925e-15
4.2829e-15
4.33316e-15
4.25972e-15
4.54653e-15
4.93361e-15
4.69347e-15
4.71178e-15
4.64009e-15
4.19426e-15
4.26959e-15
4.23368e-15
4.20807e-15
4.47962e-15
4.29229e-15
3.89816e-15
4.28822e-15
4.81331e-15
4.62145e-15
4.6396e-15
4.45044e-15
4.40734e-15
4.62803e-15
4.62057e-15
4.87875e-15
4.97274e-15
4.6262e-15
4.63273e-15
4.68991e-15
4.70846e-15
4.51405e-15
4.46491e-15
4.36679e-15
4.57849e-15
4.42017e-15
4.40237e-15
4.54994e-15
4.74189e-15
4.58772e-15
4.53077e-15
4.49093e-15
4.43971e-15
4.73517e-15
5.02532e-15
5.36571e-15
5.14882e-15
4.85726e-15
4.58051e-15
4.73275e-15
5.05333e-15
4.97653e-15
4.5818e-15
4.31458e-15
5.09957e-15
4.82239e-15
4.44824e-15
4.83589e-15
5.12817e-15
4.93965e-15
4.81932e-15
4.45449e-15
4.60588e-15
4.94254e-15
5.2421e-15
5.55604e-15
5.40397e-15
5.26378e-15
4.66945e-15
5.01419e-15
5.28683e-15
4.8488e-15
4.95268e-15
4.8832e-15
4.96225e-15
5.0881e-15
4.71333e-15
4.92361e-15
5.1072e-15
5.07462e-15
5.09489e-15
4.68227e-15
4.86952e-15
5.24185e-15
5.55689e-15
5.76983e-15
6.07739e-15
5.51402e-15
5.02607e-15
5.01501e-15
5.01797e-15
5.36142e-15
5.0733e-15
4.58999e-15
5.07134e-15
4.71413e-15
4.64139e-15
5.32728e-15
5.07682e-15
4.97284e-15
5.33267e-15
4.99027e-15
5.30523e-15
5.86546e-15
6.44197e-15
5.99182e-15
5.88064e-15
5.7999e-15
5.37294e-15
5.82868e-15
5.19123e-15
5.04937e-15
5.01602e-15
5.16916e-15
4.28785e-15
4.2144e-15
4.87525e-15
5.12027e-15
5.08102e-15
5.32639e-15
5.68953e-15
5.3005e-15
5.4638e-15
5.95296e-15
6.39914e-15
6.00418e-15
6.3445e-15
6.13921e-15
5.38621e-15
5.43904e-15
5.53846e-15
4.99811e-15
4.93996e-15
4.84733e-15
4.17031e-15
3.99481e-15
5.21625e-15
5.84098e-15
5.05622e-15
5.37697e-15
6.20096e-15
5.67397e-15
5.34103e-15
5.83183e-15
6.6454e-15
6.79732e-15
6.25778e-15
6.13807e-15
5.71193e-15
5.48201e-15
5.09953e-15
4.70785e-15
4.80313e-15
4.99233e-15
4.55822e-15
4.43555e-15
4.90166e-15
5.43903e-15
5.65572e-15
5.89658e-15
6.28738e-15
6.44824e-15
5.64459e-15
6.27294e-15
6.93661e-15
6.36089e-15
5.90222e-15
5.72853e-15
5.93343e-15
6.2557e-15
5.64429e-15
4.23089e-15
4.43297e-15
4.99658e-15
4.63045e-15
4.22472e-15
4.72569e-15
5.56233e-15
5.93072e-15
6.30293e-15
7.23175e-15
6.58814e-15
5.87781e-15
6.41761e-15
6.66746e-15
5.97923e-15
6.16096e-15
6.1001e-15
5.67538e-15
5.89319e-15
5.51139e-15
4.70943e-15
4.82493e-15
4.85083e-15
4.88802e-15
4.37046e-15
4.66921e-15
5.5849e-15
6.09781e-15
6.36761e-15
7.03667e-15
6.5368e-15
6.41639e-15
6.84977e-15
6.7808e-15
5.79236e-15
5.85954e-15
5.95267e-15
5.83122e-15
5.72708e-15
5.16293e-15
4.4736e-15
4.39558e-15
4.95138e-15
4.44784e-15
3.96229e-15
4.50254e-15
5.46648e-15
6.59766e-15
6.35643e-15
6.70529e-15
7.215e-15
7.01788e-15
6.92092e-15
7.35871e-15
5.4861e-15
5.22041e-15
5.35477e-15
6.16393e-15
6.18369e-15
5.25475e-15
4.08347e-15
3.74244e-15
4.51911e-15
4.41919e-15
5.10104e-15
4.20958e-15
4.41371e-15
6.28724e-15
6.3908e-15
6.53278e-15
7.90495e-15
7.20223e-15
6.70553e-15
7.39113e-15
5.26692e-15
4.32077e-15
5.21519e-15
5.95359e-15
6.4569e-15
5.84255e-15
4.46214e-15
3.50494e-15
3.70532e-15
)
;

boundaryField
{
    movingWall
    {
        type            zeroGradient;
    }
    fixedWalls
    {
        type            zeroGradient;
    }
    left
    {
        type            cyclic;
    }
    right
    {
        type            cyclic;
    }
    frontAndBack
    {
        type            empty;
    }
}


// ************************************************************************* //
