/*--------------------------------*- C++ -*----------------------------------*\
  =========                 |
  \\      /  F ield         | OpenFOAM: The Open Source CFD Toolbox
   \\    /   O peration     | Website:  https://openfoam.org
    \\  /    A nd           | Version:  8
     \\/     M anipulation  |
\*---------------------------------------------------------------------------*/
FoamFile
{
    version     2.0;
    format      ascii;
    class       volScalarField;
    location    "0.08";
    object      p;
}
// * * * * * * * * * * * * * * * * * * * * * * * * * * * * * * * * * * * * * //

dimensions      [0 2 -2 0 0 0 0];

internalField   nonuniform List<scalar> 
400
(
3.72239e-08
-0.00553425
-0.0122836
-0.0173818
-0.0191583
-0.0168742
-0.0104829
-0.000416693
0.0125651
0.0274702
0.0431432
0.0583367
0.0717957
0.0823617
0.0891029
0.0914781
0.0895351
0.0841291
0.0771349
0.0715877
0.00550982
-0.000207822
-0.00549618
-0.00897464
-0.00984705
-0.0075963
-0.00215538
0.0061674
0.0167972
0.0289621
0.041747
0.0541571
0.0651942
0.0739463
0.0796934
0.082033
0.0810257
0.0772856
0.0717978
0.0661133
0.0126904
0.00474501
-0.000992386
-0.00419126
-0.00487199
-0.00276608
0.00212077
0.00949678
0.0188673
0.0295777
0.0408487
0.0518262
0.0616435
0.069496
0.0747292
0.0769425
0.0761164
0.0726187
0.0666393
0.0587262
0.0191119
0.00812098
0.000967974
-0.0026956
-0.00357042
-0.00161076
0.00307111
0.0101366
0.0191009
0.0293548
0.0401796
0.0507779
0.0603228
0.0680192
0.0731805
0.0753224
0.0742985
0.0702579
0.0627494
0.0517128
0.0231715
0.00897764
0.000134483
-0.00420595
-0.00532645
-0.00337688
0.00141699
0.00864717
0.0178077
0.0282982
0.0394183
0.0503826
0.0603545
0.0684953
0.0740303
0.076341
0.075125
0.0703273
0.0609472
0.0465122
0.023696
0.00624774
-0.00435491
-0.00937142
-0.0106176
-0.00842024
-0.00312061
0.00479025
0.0147646
0.0261861
0.0383453
0.0504391
0.061586
0.070862
0.0773555
0.0802637
0.0790889
0.0735637
0.062171
0.0441293
0.0196571
-0.00112743
-0.0134658
-0.0190081
-0.0201112
-0.0172843
-0.0109917
-0.00181936
0.00963059
0.0227136
0.036699
0.0507493
0.0639148
0.0751522
0.0833667
0.0875133
0.0868412
0.0808246
0.0673864
0.0454562
0.00996282
-0.0142943
-0.0282638
-0.0340294
-0.03456
-0.0305829
-0.0227062
-0.0116216
0.00201089
0.0175211
0.0341616
0.0510611
0.0671947
0.0813773
0.0922879
0.0985717
0.0991406
0.0931152
0.0777175
0.0515213
-0.00669914
-0.0346193
-0.050012
-0.0555088
-0.0548391
-0.0490197
-0.0388372
-0.0251018
-0.00852503
0.010216
0.0303813
0.0510899
0.0712569
0.0895521
0.104393
0.114038
0.116946
0.111724
0.094629
0.0637107
-0.032001
-0.0638116
-0.0802426
-0.084695
-0.0819136
-0.0733229
-0.0599405
-0.0427066
-0.0223651
0.000438756
0.0250227
0.0505499
0.0759229
0.0996936
0.120003
0.134647
0.141482
0.138356
0.120131
0.0840075
-0.0681623
-0.104088
-0.120837
-0.123
-0.116758
-0.104123
-0.0864121
-0.0646976
-0.0397164
-0.0120151
0.0178647
0.0492223
0.0810398
0.111827
0.139478
0.161272
0.174291
0.175281
0.157037
0.115312
-0.118289
-0.158435
-0.174127
-0.17195
-0.160212
-0.141759
-0.118271
-0.0909352
-0.0604027
-0.027016
0.00894731
0.0470616
0.0865395
0.125996
0.163188
0.194891
0.21726
0.225499
0.209331
0.16195
-0.187061
-0.231043
-0.242996
-0.233061
-0.212726
-0.185969
-0.154855
-0.120593
-0.0836096
-0.0438821
-0.00125053
0.0443266
0.0925122
0.142271
0.191467
0.236524
0.27262
0.292944
0.282728
0.230604
-0.282211
-0.328038
-0.330928
-0.307509
-0.273911
-0.235444
-0.194419
-0.15183
-0.107625
-0.0611757
-0.0116571
0.0416828
0.099246
0.16071
0.22447
0.287022
0.342792
0.382641
0.385564
0.332146
-0.417685
-0.458598
-0.44172
-0.395368
-0.34173
-0.287156
-0.233657
-0.181484
-0.129665
-0.0766278
-0.0206024
0.0401459
0.107092
0.181094
0.261746
0.346461
0.429745
0.500485
0.529981
0.485209
-0.619352
-0.636125
-0.578544
-0.494328
-0.411443
-0.335676
-0.267385
-0.205035
-0.146027
-0.0873967
-0.0261347
0.0407289
0.116062
0.202431
0.301537
0.413166
0.533794
0.652214
0.732742
0.721793
-0.935413
-0.87853
-0.742225
-0.598753
-0.475302
-0.373368
-0.289119
-0.217406
-0.152964
-0.0909314
-0.0268207
0.0437278
0.125201
0.222368
0.340166
0.482942
0.652358
0.841361
1.01492
1.09659
-1.47619
-1.20772
-0.921604
-0.692766
-0.518847
-0.388883
-0.29091
-0.213539
-0.147642
-0.086129
-0.0230577
0.0471852
0.130636
0.234529
0.368167
0.543253
0.771332
1.05904
1.40318
1.72854
-2.53683
-1.63464
-1.04631
-0.71268
-0.497758
-0.353963
-0.255927
-0.184314
-0.126163
-0.0728947
-0.0180223
0.0443713
0.120891
0.22032
0.356008
0.548673
0.826447
1.23673
1.91428
2.91918
-4.36113
-2.04858
-0.976009
-0.565678
-0.360758
-0.242963
-0.172418
-0.125301
-0.0880855
-0.0531975
-0.0155376
0.0293757
0.086671
0.163878
0.2744
0.443695
0.719206
1.22664
2.41339
4.84107
)
;

boundaryField
{
    movingWall
    {
        type            zeroGradient;
    }
    fixedWalls
    {
        type            zeroGradient;
    }
    frontAndBack
    {
        type            empty;
    }
}


// ************************************************************************* //
