/*--------------------------------*- C++ -*----------------------------------*\
  =========                 |
  \\      /  F ield         | OpenFOAM: The Open Source CFD Toolbox
   \\    /   O peration     | Website:  https://openfoam.org
    \\  /    A nd           | Version:  8
     \\/     M anipulation  |
\*---------------------------------------------------------------------------*/
FoamFile
{
    version     2.0;
    format      ascii;
    class       surfaceScalarField;
    location    "0.08";
    object      phi;
}
// * * * * * * * * * * * * * * * * * * * * * * * * * * * * * * * * * * * * * //

dimensions      [0 3 -1 0 0 0 0];

internalField   nonuniform List<scalar> 
760
(
1.35826e-08
-1.35828e-08
-2.12392e-08
3.48216e-08
-1.09083e-07
8.78441e-08
-2.34127e-07
1.25044e-07
-3.77484e-07
1.43357e-07
-5.21358e-07
1.43875e-07
-6.50488e-07
1.2913e-07
-7.52671e-07
1.02183e-07
-8.18877e-07
6.62057e-08
-8.4327e-07
2.43932e-08
-8.2333e-07
-1.99403e-08
-7.60089e-07
-6.32402e-08
-6.58424e-07
-1.01666e-07
-5.27286e-07
-1.31138e-07
-3.79747e-07
-1.47539e-07
-2.32618e-07
-1.47129e-07
-1.05314e-07
-1.27304e-07
-1.76463e-08
-8.76684e-08
1.50955e-08
-3.27416e-08
1.50957e-08
-3.27971e-08
1.92145e-08
-1.7229e-07
1.74315e-07
-4.13874e-07
3.29429e-07
-7.28217e-07
4.39387e-07
-1.07765e-06
4.92792e-07
-1.42412e-06
4.90336e-07
-1.73337e-06
4.38385e-07
-1.97719e-06
3.46005e-07
-2.13438e-06
2.2339e-07
-2.19131e-06
8.13231e-08
-2.1424e-06
-6.88441e-08
-1.99059e-06
-2.15051e-07
-1.74775e-06
-3.44508e-07
-1.4349e-06
-4.4399e-07
-1.0818e-06
-5.0064e-07
-7.25429e-07
-5.03499e-07
-4.06763e-07
-4.45969e-07
-1.65206e-07
-3.29225e-07
-2.94258e-08
-1.68521e-07
-1.43304e-08
-8.83425e-08
1.07557e-07
-3.41075e-07
4.27047e-07
-7.29358e-07
7.17712e-07
-1.20874e-06
9.18765e-07
-1.72766e-06
1.01172e-06
-2.23473e-06
9.97403e-07
-2.68351e-06
8.87165e-07
-3.03548e-06
6.97973e-07
-3.26161e-06
4.49521e-07
-3.34327e-06
1.62986e-07
-3.27289e-06
-1.39224e-07
-3.05457e-06
-4.33376e-07
-2.70459e-06
-6.94487e-07
-2.25159e-06
-8.96987e-07
-1.73588e-06
-1.01635e-06
-1.20735e-06
-1.03203e-06
-7.21334e-07
-9.31989e-07
-3.32062e-07
-7.18497e-07
-8.36676e-08
-4.16915e-07
-9.79981e-08
-1.39037e-07
2.46595e-07
-5.02394e-07
7.90405e-07
-1.03302e-06
1.24834e-06
-1.66749e-06
1.55324e-06
-2.34015e-06
1.68437e-06
-2.98846e-06
1.64571e-06
-3.55718e-06
1.45589e-06
-4.00093e-06
1.14172e-06
-4.28564e-06
7.34235e-07
-4.38943e-06
2.66769e-07
-4.3032e-06
-2.25449e-07
-4.03138e-06
-7.05194e-07
-3.59255e-06
-1.13332e-06
-3.01983e-06
-1.46971e-06
-2.36049e-06
-1.67568e-06
-1.67408e-06
-1.71845e-06
-1.02844e-06
-1.57762e-06
-4.93556e-07
-1.25339e-06
-1.33584e-07
-7.76888e-07
-2.31582e-07
-1.85697e-07
4.32292e-07
-6.56603e-07
1.26131e-06
-1.32723e-06
1.91896e-06
-2.11278e-06
2.33879e-06
-2.93235e-06
2.50394e-06
-3.71287e-06
2.42624e-06
-4.39196e-06
2.13498e-06
-4.9195e-06
1.66926e-06
-5.25831e-06
1.07304e-06
-5.3844e-06
3.92861e-07
-5.28738e-06
-3.22462e-07
-4.97111e-06
-1.02147e-06
-4.45461e-06
-1.64981e-06
-3.77315e-06
-2.15117e-06
-2.9786e-06
-2.47023e-06
-2.13865e-06
-2.5584e-06
-1.33378e-06
-2.38249e-06
-6.51825e-07
-1.93534e-06
-1.80501e-07
-1.24821e-06
-4.12083e-07
-2.31096e-07
6.63388e-07
-8.0925e-07
1.83946e-06
-1.62021e-06
2.72992e-06
-2.55602e-06
3.2746e-06
-3.51948e-06
3.4674e-06
-4.42719e-06
3.33395e-06
-5.21092e-06
2.91871e-06
-5.81757e-06
2.27591e-06
-6.20844e-06
1.46391e-06
-6.3585e-06
5.42918e-07
-6.25612e-06
-4.24836e-07
-5.90366e-06
-1.37393e-06
-5.31882e-06
-2.23466e-06
-4.53666e-06
-2.93333e-06
-3.61156e-06
-3.39533e-06
-2.61812e-06
-3.55184e-06
-1.64989e-06
-3.35072e-06
-8.14942e-07
-2.77029e-06
-2.28017e-07
-1.83514e-06
-6.401e-07
-2.77919e-07
9.41307e-07
-9.66425e-07
2.52797e-06
-1.92036e-06
3.68386e-06
-3.00658e-06
4.36082e-06
-4.11077e-06
4.57158e-06
-5.13985e-06
4.36304e-06
-6.02146e-06
3.80032e-06
-6.70162e-06
2.95608e-06
-7.14208e-06
1.90437e-06
-7.318e-06
7.18834e-07
-7.21673e-06
-5.2611e-07
-6.83813e-06
-1.75252e-06
-6.19654e-06
-2.87625e-06
-5.32403e-06
-3.80584e-06
-4.2746e-06
-4.44476e-06
-3.12779e-06
-4.69865e-06
-1.99006e-06
-4.48844e-06
-9.92034e-07
-3.76832e-06
-2.79877e-07
-2.54729e-06
-9.19978e-07
-3.28542e-07
1.26985e-06
-1.13351e-06
3.33294e-06
-2.23412e-06
4.78447e-06
-3.46916e-06
5.59586e-06
-4.7068e-06
5.80922e-06
-5.84592e-06
5.50216e-06
-6.81283e-06
4.76722e-06
-7.55589e-06
3.69914e-06
-8.04008e-06
2.38856e-06
-8.24255e-06
9.21307e-07
-8.15019e-06
-6.18475e-07
-7.75941e-06
-2.1433e-06
-7.07866e-06
-3.55701e-06
-6.13333e-06
-4.75117e-06
-4.97272e-06
-5.60537e-06
-3.67757e-06
-5.9938e-06
-2.36561e-06
-5.80041e-06
-1.19181e-06
-4.94212e-06
-3.39703e-07
-3.3994e-06
-1.25968e-06
-3.85199e-07
1.65505e-06
-1.3151e-06
4.26283e-06
-2.56519e-06
6.03456e-06
-3.94222e-06
6.97289e-06
-5.29717e-06
7.16417e-06
-6.52418e-06
6.72917e-06
-7.5529e-06
5.79594e-06
-8.33882e-06
4.48506e-06
-8.85417e-06
2.90391e-06
-9.08089e-06
1.14802e-06
-9.00645e-06
-6.92914e-07
-8.62302e-06
-2.52672e-06
-7.93024e-06
-4.24978e-06
-6.9419e-06
-5.73952e-06
-5.69626e-06
-6.851e-06
-4.26879e-06
-7.42127e-06
-2.7841e-06
-7.2851e-06
-1.42209e-06
-6.30413e-06
-4.11124e-07
-4.41036e-06
-1.6708e-06
-4.50587e-07
2.10563e-06
-1.51577e-06
5.32801e-06
-2.91456e-06
7.43336e-06
-4.41667e-06
8.475e-06
-5.85783e-06
8.60533e-06
-7.13338e-06
8.00472e-06
-8.18363e-06
6.84619e-06
-8.97803e-06
5.27947e-06
-9.50163e-06
3.42751e-06
-9.74496e-06
1.39135e-06
-9.69794e-06
-7.39931e-07
-9.34806e-06
-2.8766e-06
-8.68312e-06
-4.91473e-06
-7.69927e-06
-6.72336e-06
-6.41499e-06
-8.13528e-06
-4.89023e-06
-8.94604e-06
-3.24777e-06
-8.92755e-06
-1.6899e-06
-7.86201e-06
-4.98256e-07
-5.60201e-06
-2.16906e-06
-5.28966e-07
2.6346e-06
-1.74153e-06
6.54058e-06
-3.28075e-06
8.97257e-06
-4.87399e-06
1.00682e-05
-6.34717e-06
1.00785e-05
-7.60698e-06
9.26453e-06
-8.61507e-06
7.85428e-06
-9.36409e-06
6.02849e-06
-9.85883e-06
3.92225e-06
-1.01032e-05
1.63568e-06
-1.00921e-05
-7.50968e-07
-9.80886e-06
-3.15986e-06
-9.22674e-06
-5.49686e-06
-8.31785e-06
-7.63225e-06
-7.06989e-06
-9.38324e-06
-5.51243e-06
-1.05035e-05
-3.75109e-06
-1.06889e-05
-2.00171e-06
-9.61138e-06
-6.06562e-07
-6.99716e-06
-2.77562e-06
-6.27998e-07
3.2626e-06
-2.00163e-06
7.91421e-06
-3.65886e-06
1.06298e-05
-5.28183e-06
1.16912e-05
-6.69891e-06
1.14956e-05
-7.84472e-06
1.04103e-05
-8.71712e-06
8.72668e-06
-9.34299e-06
6.65436e-06
-9.75448e-06
4.33374e-06
-9.97377e-06
1.85497e-06
-1.00042e-05
-7.20517e-07
-9.82615e-06
-3.33793e-06
-9.39743e-06
-5.92558e-06
-8.66073e-06
-8.36895e-06
-7.56106e-06
-1.04829e-05
-6.07815e-06
-1.19864e-05
-4.27584e-06
-1.24912e-05
-2.36324e-06
-1.1524e-05
-7.44329e-07
-8.61607e-06
-3.51995e-06
-7.61767e-07
4.02437e-06
-2.30984e-06
9.46229e-06
-4.03602e-06
1.2356e-05
-5.58349e-06
1.32387e-05
-6.80846e-06
1.27206e-05
-7.69903e-06
1.13009e-05
-8.30791e-06
9.33556e-06
-8.70758e-06
7.05404e-06
-8.96369e-06
4.58984e-06
-9.12038e-06
2.01167e-06
-9.19228e-06
-6.48623e-07
-9.1598e-06
-3.37041e-06
-8.96735e-06
-6.11802e-06
-8.52657e-06
-8.80973e-06
-7.73026e-06
-1.12792e-05
-6.48623e-06
-1.32304e-05
-4.78108e-06
-1.41963e-05
-2.7775e-06
-1.35276e-05
-9.24987e-07
-1.04686e-05
-4.44494e-06
-9.55253e-07
4.97962e-06
-2.68219e-06
1.11892e-05
-4.37646e-06
1.40503e-05
-5.67406e-06
1.45363e-05
-6.50682e-06
1.35533e-05
-6.95224e-06
1.17463e-05
-7.13753e-06
9.52085e-06
-7.1882e-06
7.1047e-06
-7.20441e-06
4.60605e-06
-7.25181e-06
2.05907e-06
-7.35746e-06
-5.42977e-07
-7.50612e-06
-3.22175e-06
-7.63548e-06
-5.98867e-06
-7.6322e-06
-8.81301e-06
-7.33573e-06
-1.15757e-05
-6.56379e-06
-1.40024e-05
-5.18141e-06
-1.55787e-05
-3.23703e-06
-1.54719e-05
-1.16996e-06
-1.25356e-05
-5.6149e-06
-1.24798e-06
6.2276e-06
-3.12035e-06
1.30616e-05
-4.58096e-06
1.55109e-05
-5.34906e-06
1.53044e-05
-5.5127e-06
1.3717e-05
-5.28065e-06
1.15143e-05
-4.86654e-06
9.10674e-06
-4.44448e-06
6.68264e-06
-4.1395e-06
4.30107e-06
-4.03055e-06
1.95012e-06
-4.15438e-06
-4.19144e-07
-4.5048e-06
-2.87133e-06
-5.02528e-06
-5.46819e-06
-5.59555e-06
-8.24274e-06
-6.01784e-06
-1.11534e-05
-6.0188e-06
-1.40014e-05
-5.30097e-06
-1.62966e-05
-3.6983e-06
-1.70746e-05
-1.5082e-06
-1.47258e-05
-7.1231e-06
-1.68264e-06
7.91024e-06
-3.54769e-06
1.49266e-05
-4.38583e-06
1.6349e-05
-4.20216e-06
1.51207e-05
-3.3525e-06
1.28673e-05
-2.20433e-06
1.03661e-05
-1.04322e-06
7.94564e-06
-6.40869e-08
5.70351e-06
6.09693e-07
3.62729e-06
9.04579e-07
1.65523e-06
7.82607e-07
-2.97173e-07
2.37533e-07
-2.32626e-06
-6.97042e-07
-4.53362e-06
-1.92589e-06
-7.01389e-06
-3.25688e-06
-9.8224e-06
-4.36289e-06
-1.28954e-05
-4.77722e-06
-1.58822e-05
-4.00583e-06
-1.7846e-05
-1.95426e-06
-1.67773e-05
-9.07736e-06
-2.234e-06
1.01442e-05
-3.61565e-06
1.63083e-05
-3.13555e-06
1.58689e-05
-1.44124e-06
1.34264e-05
7.54919e-07
1.06712e-05
2.96648e-06
8.15454e-06
4.90573e-06
6.00638e-06
6.41893e-06
4.19031e-06
7.4287e-06
2.61752e-06
7.89467e-06
1.18926e-06
7.79136e-06
-1.93863e-07
7.10022e-06
-1.63512e-06
5.8152e-06
-3.24859e-06
3.96609e-06
-5.16478e-06
1.668e-06
-7.52431e-06
-7.96613e-07
-1.04308e-05
-2.87644e-06
-1.38024e-05
-3.70136e-06
-1.70211e-05
-2.41861e-06
-1.80601e-05
-1.1496e-05
-2.56331e-06
1.27076e-05
-2.19699e-06
1.5942e-05
6.79185e-07
1.29927e-05
4.39873e-06
9.70684e-06
8.02407e-06
7.04581e-06
1.11511e-05
5.02748e-06
1.36388e-05
3.51867e-06
1.54635e-05
2.36563e-06
1.66417e-05
1.43935e-06
1.71908e-05
6.40145e-07
1.71108e-05
-1.13812e-07
1.6376e-05
-9.00331e-07
1.49353e-05
-1.80792e-06
1.27239e-05
-2.95342e-06
9.70153e-06
-4.50189e-06
5.94486e-06
-6.67416e-06
1.83834e-06
-9.69587e-06
-1.59328e-06
-1.35895e-05
-2.45373e-06
-1.71996e-05
-1.39497e-05
-8.09859e-07
1.35174e-05
4.07035e-06
1.10617e-05
1.02782e-05
6.78492e-06
1.57536e-05
4.23138e-06
2.00911e-05
2.70839e-06
2.33612e-05
1.75734e-06
2.57347e-05
1.14513e-06
2.73703e-05
7.30056e-07
2.83843e-05
4.2532e-07
2.88467e-05
1.77829e-07
2.87815e-05
-4.86189e-08
2.8166e-05
-2.84883e-07
2.69251e-05
-5.66981e-07
2.49206e-05
-9.49e-07
2.1944e-05
-1.52521e-06
1.77364e-05
-2.46664e-06
1.21213e-05
-4.08077e-06
5.44715e-06
-6.91526e-06
-1.63494e-07
-1.1589e-05
-1.41132e-05
1.35174e-05
2.45792e-05
3.13641e-05
3.55955e-05
3.83039e-05
4.00612e-05
4.12063e-05
4.19364e-05
4.23617e-05
4.25395e-05
4.24909e-05
4.2206e-05
4.16391e-05
4.06901e-05
3.91648e-05
3.66982e-05
3.26174e-05
2.57022e-05
1.41132e-05
)
;

boundaryField
{
    movingWall
    {
        type            calculated;
        value           uniform 0;
    }
    fixedWalls
    {
        type            calculated;
        value           uniform 0;
    }
    frontAndBack
    {
        type            empty;
        value           nonuniform List<scalar> 0();
    }
}


// ************************************************************************* //
