/*--------------------------------*- C++ -*----------------------------------*\
  =========                 |
  \\      /  F ield         | OpenFOAM: The Open Source CFD Toolbox
   \\    /   O peration     | Website:  https://openfoam.org
    \\  /    A nd           | Version:  8
     \\/     M anipulation  |
\*---------------------------------------------------------------------------*/
FoamFile
{
    version     2.0;
    format      ascii;
    class       volVectorField;
    location    "0.08";
    object      U;
}
// * * * * * * * * * * * * * * * * * * * * * * * * * * * * * * * * * * * * * //

dimensions      [0 1 -1 0 0 0 0];

internalField   nonuniform List<vector> 
400
(
(0.000241632 -0.000238747 0)
(0.000133081 0.000108132 0)
(-0.00112479 0.000541812 0)
(-0.00332195 0.000847498 0)
(-0.00607996 0.00100003 0)
(-0.00902164 0.00101455 0)
(-0.011811 0.000915177 0)
(-0.0141705 0.000726983 0)
(-0.0158867 0.000473823 0)
(-0.0168106 0.000178356 0)
(-0.0168579 -0.000136321 0)
(-0.0160127 -0.00044508 0)
(-0.0143331 -0.000720044 0)
(-0.0119573 -0.000930677 0)
(-0.00910706 -0.00104483 0)
(-0.00608519 -0.00103142 0)
(-0.00326221 -0.000865987 0)
(-0.0010439 -0.000539808 0)
(0.000187995 -8.98229e-05 0)
(0.000257784 0.000252281 0)
(-7.78614e-05 -0.000159162 0)
(-0.00154387 0.00157232 0)
(-0.00543407 0.00345129 0)
(-0.0111706 0.00479727 0)
(-0.0179903 0.00546624 0)
(-0.0251199 0.00547757 0)
(-0.0318253 0.00491519 0)
(-0.0374735 0.00388935 0)
(-0.0415659 0.0025187 0)
(-0.043752 0.00092571 0)
(-0.0438382 -0.000761714 0)
(-0.0417957 -0.00240704 0)
(-0.0377711 -0.00386398 0)
(-0.032094 -0.00497912 0)
(-0.0252769 -0.00560023 0)
(-0.0179988 -0.00559349 0)
(-0.0110566 -0.00487267 0)
(-0.00527535 -0.00344237 0)
(-0.00142963 -0.00149591 0)
(-4.1252e-05 0.000219167 0)
(-0.000512293 0.0010481 0)
(-0.00355313 0.00547524 0)
(-0.0101107 0.00974197 0)
(-0.0190624 0.0127571 0)
(-0.0293038 0.0142041 0)
(-0.0398023 0.0140876 0)
(-0.0495686 0.012575 0)
(-0.0577408 0.00991566 0)
(-0.0636373 0.00639668 0)
(-0.0667784 0.00232494 0)
(-0.0668992 -0.00197521 0)
(-0.0639624 -0.00615965 0)
(-0.0581701 -0.00986513 0)
(-0.0499726 -0.0127186 0)
(-0.040066 -0.0143611 0)
(-0.0293681 -0.0144914 0)
(-0.0189489 -0.0129344 0)
(-0.00991623 -0.0097348 0)
(-0.00340044 -0.00531303 0)
(-0.000459685 -0.000905558 0)
(-0.000895807 0.00333415 0)
(-0.00544985 0.0116655 0)
(-0.0146243 0.0189822 0)
(-0.0266528 0.0239759 0)
(-0.0400498 0.0262263 0)
(-0.053549 0.0257615 0)
(-0.0659681 0.0228666 0)
(-0.0762888 0.0179684 0)
(-0.0837103 0.0115649 0)
(-0.0876705 0.00419425 0)
(-0.0878568 -0.00357371 0)
(-0.0842196 -0.0111361 0)
(-0.0769861 -0.0178596 0)
(-0.066673 -0.0230972 0)
(-0.05409 -0.0262293 0)
(-0.0403206 -0.026738 0)
(-0.0266517 -0.0243172 0)
(-0.0144579 -0.0190129 0)
(-0.00528061 -0.0114147 0)
(-0.000830353 -0.00308619 0)
(-0.00123392 0.00658827 0)
(-0.00723112 0.0200174 0)
(-0.0189801 0.0310052 0)
(-0.0340291 0.0381943 0)
(-0.0504727 0.0411785 0)
(-0.066807 0.0400893 0)
(-0.0816822 0.0353863 0)
(-0.0939646 0.0277154 0)
(-0.102778 0.0178184 0)
(-0.10751 0.00649032 0)
(-0.107816 -0.00543061 0)
(-0.103627 -0.0170591 0)
(-0.0951653 -0.0274637 0)
(-0.0829709 -0.0356872 0)
(-0.0679163 -0.0408029 0)
(-0.0512087 -0.0420165 0)
(-0.0343338 -0.0388184 0)
(-0.018955 -0.0311685 0)
(-0.00708852 -0.0197193 0)
(-0.00116264 -0.00622722 0)
(-0.0015555 0.0107548 0)
(-0.00897996 0.0305012 0)
(-0.0233115 0.0458138 0)
(-0.0413835 0.0554082 0)
(-0.0608369 0.0590209 0)
(-0.0799209 0.0569941 0)
(-0.097136 0.050041 0)
(-0.111267 0.0390791 0)
(-0.121398 0.0251242 0)
(-0.126896 0.00924306 0)
(-0.127394 -0.00745159 0)
(-0.122796 -0.0237874 0)
(-0.113293 -0.0385225 0)
(-0.0994029 -0.0503618 0)
(-0.0820135 -0.0580195 0)
(-0.0624179 -0.0603458 0)
(-0.0422902 -0.0565218 0)
(-0.0236108 -0.0462987 0)
(-0.00893813 -0.0302694 0)
(-0.00149163 -0.0103006 0)
(-0.00188758 0.0158353 0)
(-0.0107859 0.043149 0)
(-0.0277681 0.0634497 0)
(-0.0488991 0.0756328 0)
(-0.0713322 0.0797221 0)
(-0.0930694 0.0764023 0)
(-0.112488 0.0667394 0)
(-0.128332 0.0519848 0)
(-0.139692 0.0334566 0)
(-0.145946 0.0124961 0)
(-0.146722 -0.00952203 0)
(-0.141888 -0.0311542 0)
(-0.131572 -0.0508546 0)
(-0.116221 -0.0669721 0)
(-0.0966751 -0.0778078 0)
(-0.0742619 -0.0817579 0)
(-0.0508167 -0.0775543 0)
(-0.0286562 -0.0645758 0)
(-0.0109584 -0.0432062 0)
(-0.00185318 -0.0153548 0)
(-0.0022543 0.0218826 0)
(-0.012731 0.0580552 0)
(-0.0324793 0.0839835 0)
(-0.0567002 0.098867 0)
(-0.0820209 0.103196 0)
(-0.106213 0.0981633 0)
(-0.127581 0.0853091 0)
(-0.144891 0.0662886 0)
(-0.157302 0.0427452 0)
(-0.164254 0.0162819 0)
(-0.165394 -0.0115003 0)
(-0.16055 -0.0389289 0)
(-0.149753 -0.064185 0)
(-0.133311 -0.0852624 0)
(-0.111937 -0.0999997 0)
(-0.0869035 -0.106226 0)
(-0.0601445 -0.102043 0)
(-0.0343063 -0.0862377 0)
(-0.0132769 -0.058777 0)
(-0.00228249 -0.0215136 0)
(-0.00267964 0.028995 0)
(-0.014893 0.0753692 0)
(-0.0375464 0.107491 0)
(-0.0648281 0.125045 0)
(-0.0927971 0.129233 0)
(-0.11904 0.121969 0)
(-0.141876 0.105415 0)
(-0.160195 0.081705 0)
(-0.173315 0.0528214 0)
(-0.180806 0.020593 0)
(-0.182375 -0.0132176 0)
(-0.177815 -0.046785 0)
(-0.167022 -0.078084 0)
(-0.150088 -0.104786 0)
(-0.127479 -0.124235 0)
(-0.100275 -0.133572 0)
(-0.0703891 -0.13005 0)
(-0.040741 -0.111554 0)
(-0.0160206 -0.0773245 0)
(-0.0028176 -0.0289728 0)
(-0.00319552 0.037318 0)
(-0.0173629 0.0952829 0)
(-0.0430553 0.134009 0)
(-0.0732307 0.153959 0)
(-0.103347 0.157395 0)
(-0.130903 0.147237 0)
(-0.154374 0.126448 0)
(-0.172925 0.097714 0)
(-0.186156 0.063348 0)
(-0.193866 0.0253408 0)
(-0.19588 -0.014485 0)
(-0.191969 -0.0542702 0)
(-0.181863 -0.0918977 0)
(-0.165346 -0.124797 0)
(-0.142487 -0.149827 0)
(-0.113978 -0.163333 0)
(-0.0814961 -0.161451 0)
(-0.0480938 -0.140753 0)
(-0.0193274 -0.0992658 0)
(-0.00350698 -0.0380044 0)
(-0.0038562 0.0470629 0)
(-0.0202772 0.118025 0)
(-0.0490973 0.163471 0)
(-0.0817463 0.185137 0)
(-0.113088 0.186871 0)
(-0.140717 0.172973 0)
(-0.163495 0.147401 0)
(-0.181062 0.113456 0)
(-0.193468 0.0737416 0)
(-0.200852 0.0303051 0)
(-0.203231 -0.0151146 0)
(-0.20039 -0.0607909 0)
(-0.191871 -0.104687 0)
(-0.177067 -0.144141 0)
(-0.155477 -0.175607 0)
(-0.127136 -0.19457 0)
(-0.0931574 -0.195769 0)
(-0.0564358 -0.173914 0)
(-0.0233673 -0.125063 0)
(-0.00442312 -0.0489744 0)
(-0.0047638 0.0585553 0)
(-0.0238674 0.143861 0)
(-0.0557862 0.195612 0)
(-0.0900494 0.217687 0)
(-0.121046 0.216297 0)
(-0.146806 0.197592 0)
(-0.166909 0.166729 0)
(-0.181735 0.127632 0)
(-0.191964 0.0830977 0)
(-0.198198 0.0350795 0)
(-0.200726 -0.0149539 0)
(-0.199394 -0.0656196 0)
(-0.193566 -0.115193 0)
(-0.182191 -0.161154 0)
(-0.164036 -0.199744 0)
(-0.138166 -0.225634 0)
(-0.10466 -0.231926 0)
(-0.0657314 -0.210787 0)
(-0.0283731 -0.15518 0)
(-0.00568714 -0.0623846 0)
(-0.00611402 0.0723354 0)
(-0.0285275 0.173091 0)
(-0.0632324 0.229798 0)
(-0.0974905 0.250035 0)
(-0.1256 0.243502 0)
(-0.146609 0.21874 0)
(-0.161277 0.182229 0)
(-0.171013 0.138428 0)
(-0.177292 0.0901448 0)
(-0.181266 0.0390296 0)
(-0.183552 -0.0139336 0)
(-0.184118 -0.0679393 0)
(-0.182209 -0.121848 0)
(-0.176351 -0.173608 0)
(-0.164488 -0.219582 0)
(-0.144421 -0.253876 0)
(-0.114603 -0.267873 0)
(-0.0757171 -0.250487 0)
(-0.0346727 -0.189983 0)
(-0.00751132 -0.0789571 0)
(-0.00827095 0.0893364 0)
(-0.0348769 0.205975 0)
(-0.0713717 0.264679 0)
(-0.102679 0.279517 0)
(-0.123951 0.265193 0)
(-0.136177 0.233108 0)
(-0.14185 0.190987 0)
(-0.143654 0.143536 0)
(-0.143913 0.093275 0)
(-0.144315 0.0412953 0)
(-0.145804 -0.0121157 0)
(-0.148519 -0.0669408 0)
(-0.151706 -0.122894 0)
(-0.153613 -0.178768 0)
(-0.151456 -0.231558 0)
(-0.141625 -0.275346 0)
(-0.120355 -0.300104 0)
(-0.0855886 -0.290984 0)
(-0.0426797 -0.229519 0)
(-0.0102611 -0.099772 0)
(-0.011848 0.111142 0)
(-0.0436855 0.242432 0)
(-0.07936 0.29753 0)
(-0.102492 0.30179 0)
(-0.111074 0.276644 0)
(-0.109308 0.236406 0)
(-0.101902 0.189523 0)
(-0.0928203 0.140369 0)
(-0.085057 0.0907357 0)
(-0.0806333 0.0408899 0)
(-0.0806968 -0.00972539 0)
(-0.0855705 -0.0619928 0)
(-0.0946752 -0.116653 0)
(-0.106311 -0.17369 0)
(-0.11735 -0.23136 0)
(-0.123021 -0.284644 0)
(-0.117037 -0.323065 0)
(-0.0932087 -0.328253 0)
(-0.0526611 -0.272955 0)
(-0.0144904 -0.126424 0)
(-0.0176066 0.140371 0)
(-0.0551389 0.281151 0)
(-0.0837899 0.322957 0)
(-0.0898965 0.310033 0)
(-0.0778287 0.271551 0)
(-0.0562491 0.223688 0)
(-0.0320198 0.174341 0)
(-0.0098712 0.126619 0)
(0.00712287 0.0810729 0)
(0.0170772 0.0369553 0)
(0.0189206 -0.00713006 0)
(0.0122046 -0.0528792 0)
(-0.00286316 -0.102015 0)
(-0.0251249 -0.155872 0)
(-0.0518976 -0.214546 0)
(-0.0781577 -0.275151 0)
(-0.0956575 -0.328636 0)
(-0.0932025 -0.354953 0)
(-0.0636858 -0.317392 0)
(-0.0206926 -0.161234 0)
(-0.025437 0.18155 0)
(-0.0659949 0.317283 0)
(-0.0741238 0.330306 0)
(-0.0496004 0.293803 0)
(-0.00795555 0.242238 0)
(0.0379129 0.190247 0)
(0.0804246 0.142988 0)
(0.115476 0.101205 0)
(0.140978 0.0638416 0)
(0.15589 0.0291848 0)
(0.159624 -0.00473224 0)
(0.15175 -0.0400491 0)
(0.131961 -0.0790879 0)
(0.100338 -0.124285 0)
(0.0580333 -0.177758 0)
(0.00858251 -0.239883 0)
(-0.0400066 -0.305772 0)
(-0.0728637 -0.358332 0)
(-0.0704225 -0.355368 0)
(-0.027923 -0.207804 0)
(-0.0294454 0.238951 0)
(-0.0607646 0.335731 0)
(-0.0224471 0.300054 0)
(0.0494667 0.239274 0)
(0.125797 0.181839 0)
(0.194418 0.134169 0)
(0.250915 0.0962155 0)
(0.294068 0.0658373 0)
(0.32403 0.0406155 0)
(0.341267 0.0183796 0)
(0.346015 -0.00282429 0)
(0.338038 -0.0249357 0)
(0.316548 -0.0501391 0)
(0.280282 -0.0811449 0)
(0.227944 -0.12137 0)
(0.159396 -0.174512 0)
(0.0779839 -0.242309 0)
(-0.0042497 -0.318231 0)
(-0.0548029 -0.368083 0)
(-0.0282781 -0.267086 0)
(0.00869398 0.281526 0)
(0.0203356 0.295032 0)
(0.138786 0.210895 0)
(0.263852 0.143204 0)
(0.363321 0.0967907 0)
(0.438736 0.0653279 0)
(0.494504 0.0437973 0)
(0.534075 0.0285113 0)
(0.560201 0.0169314 0)
(0.574767 0.00734924 0)
(0.578729 -0.00149003 0)
(0.572116 -0.0107085 0)
(0.553975 -0.0215974 0)
(0.522193 -0.0360014 0)
(0.473338 -0.0568765 0)
(0.402662 -0.0889877 0)
(0.303834 -0.139376 0)
(0.172608 -0.21612 0)
(0.0415249 -0.311483 0)
(0.0190449 -0.299523 0)
(0.300203 0.145912 0)
(0.396913 0.127475 0)
(0.557407 0.0761024 0)
(0.674335 0.0437107 0)
(0.74357 0.0255341 0)
(0.78659 0.0151902 0)
(0.814667 0.0091585 0)
(0.83291 0.00546438 0)
(0.844167 0.00299839 0)
(0.850047 0.00114045 0)
(0.851311 -0.000488357 0)
(0.84807 -0.00218633 0)
(0.839795 -0.00429701 0)
(0.825097 -0.00737624 0)
(0.801232 -0.012485 0)
(0.762989 -0.0217318 0)
(0.698655 -0.0392522 0)
(0.583692 -0.0726336 0)
(0.416353 -0.127787 0)
(0.309418 -0.149277 0)
)
;

boundaryField
{
    movingWall
    {
        type            fixedValue;
        value           uniform (1 0 0);
    }
    fixedWalls
    {
        type            noSlip;
    }
    frontAndBack
    {
        type            empty;
    }
}


// ************************************************************************* //
