/*--------------------------------*- C++ -*----------------------------------*\
  =========                 |
  \\      /  F ield         | OpenFOAM: The Open Source CFD Toolbox
   \\    /   O peration     | Website:  https://openfoam.org
    \\  /    A nd           | Version:  8
     \\/     M anipulation  |
\*---------------------------------------------------------------------------*/
FoamFile
{
    version     2.0;
    format      ascii;
    class       surfaceScalarField;
    location    "58.5";
    object      phi;
}
// * * * * * * * * * * * * * * * * * * * * * * * * * * * * * * * * * * * * * //

dimensions      [0 3 -1 0 0 0 0];

internalField   nonuniform List<scalar> 
22960
(
-1.923e-07
1.92472e-07
-8.24853e-07
6.32553e-07
-1.67435e-06
8.49499e-07
-2.61567e-06
9.41318e-07
-3.58584e-06
9.70173e-07
-4.56207e-06
9.76226e-07
-5.53919e-06
9.7712e-07
-6.51735e-06
9.78164e-07
-7.49777e-06
9.80415e-07
-8.48155e-06
9.83786e-07
-9.46958e-06
9.88028e-07
-1.04625e-05
9.92967e-07
-1.14611e-05
9.98503e-07
-1.24656e-05
1.00458e-06
-1.34768e-05
1.01118e-06
-1.44951e-05
1.01828e-06
-1.5521e-05
1.02587e-06
-1.65549e-05
1.03393e-06
-1.75974e-05
1.04246e-06
-1.86488e-05
1.05145e-06
-1.97097e-05
1.0609e-06
-2.07805e-05
1.07079e-06
-2.18616e-05
1.08111e-06
-2.29535e-05
1.09185e-06
-2.40565e-05
1.103e-06
-2.5171e-05
1.11454e-06
-2.62975e-05
1.12647e-06
-2.74362e-05
1.13875e-06
-2.85876e-05
1.15138e-06
-2.97519e-05
1.16434e-06
-3.09295e-05
1.17759e-06
-3.21206e-05
1.19111e-06
-3.33255e-05
1.20487e-06
-3.45443e-05
1.21884e-06
-3.57773e-05
1.23298e-06
-3.70246e-05
1.24725e-06
-3.82862e-05
1.26159e-06
-3.95621e-05
1.27597e-06
-4.08524e-05
1.2903e-06
-4.21569e-05
1.30451e-06
-4.34755e-05
1.31851e-06
-4.48076e-05
1.33217e-06
-4.61529e-05
1.3453e-06
-4.75106e-05
1.35766e-06
-4.88794e-05
1.36886e-06
-5.02577e-05
1.37827e-06
-5.16425e-05
1.38479e-06
-5.3029e-05
1.38651e-06
-5.4409e-05
1.37993e-06
-5.57677e-05
1.35871e-06
-5.70795e-05
1.31186e-06
-5.83018e-05
1.22232e-06
-5.93716e-05
1.06975e-06
-6.02141e-05
8.42526e-07
-6.07898e-05
5.75675e-07
-6.13497e-05
5.59952e-07
-6.31351e-05
1.78536e-06
-6.79142e-05
4.77907e-06
-8.80603e-05
2.01461e-05
4.46906e-05
-0.000132751
-6.52869e-07
8.45341e-07
-2.05558e-06
2.03527e-06
-3.83898e-06
2.6329e-06
-5.79831e-06
2.90064e-06
-7.82946e-06
3.00132e-06
-9.88778e-06
3.03455e-06
-1.19568e-05
3.04611e-06
-1.40316e-05
3.05301e-06
-1.61117e-05
3.06045e-06
-1.81975e-05
3.06958e-06
-2.02898e-05
3.08041e-06
-2.23896e-05
3.09276e-06
-2.44976e-05
3.10649e-06
-2.66145e-05
3.12148e-06
-2.8741e-05
3.13767e-06
-3.08777e-05
3.155e-06
-3.30253e-05
3.17343e-06
-3.51843e-05
3.19292e-06
-3.73552e-05
3.21341e-06
-3.95387e-05
3.23488e-06
-4.1735e-05
3.25727e-06
-4.39448e-05
3.28054e-06
-4.61683e-05
3.30465e-06
-4.8406e-05
3.32953e-06
-5.06581e-05
3.35513e-06
-5.2925e-05
3.3814e-06
-5.52068e-05
3.40826e-06
-5.75037e-05
3.43566e-06
-5.98158e-05
3.4635e-06
-6.21432e-05
3.49173e-06
-6.44859e-05
3.52025e-06
-6.68437e-05
3.54899e-06
-6.92167e-05
3.57784e-06
-7.16046e-05
3.60674e-06
-7.40072e-05
3.63557e-06
-7.64242e-05
3.66425e-06
-7.88553e-05
3.69267e-06
-8.13001e-05
3.72075e-06
-8.37582e-05
3.74839e-06
-8.62291e-05
3.77548e-06
-8.87125e-05
3.80192e-06
-9.12079e-05
3.82757e-06
-9.37149e-05
3.85227e-06
-9.6233e-05
3.87573e-06
-9.87616e-05
3.89753e-06
-0.0001013
3.91688e-06
-0.000103848
3.9324e-06
-0.000106403
3.94161e-06
-0.000108963
3.94032e-06
-0.000111527
3.92204e-06
-0.000114094
3.87878e-06
-0.000116678
3.80673e-06
-0.000119333
3.72517e-06
-0.000122214
3.72334e-06
-0.000125709
4.07e-06
-0.000130611
5.46218e-06
-0.000138108
9.28258e-06
-0.000150396
1.70674e-05
-0.000166385
3.61346e-05
5.94288e-05
-0.000181123
-9.04213e-07
1.74955e-06
-2.73347e-06
3.86453e-06
-5.02259e-06
4.92202e-06
-7.51984e-06
5.39789e-06
-1.01041e-05
5.58557e-06
-1.27231e-05
5.65352e-06
-1.53565e-05
5.67957e-06
-1.79979e-05
5.69435e-06
-2.06455e-05
5.70814e-06
-2.32997e-05
5.72376e-06
-2.5961e-05
5.7417e-06
-2.86301e-05
5.76188e-06
-3.13078e-05
5.78415e-06
-3.39947e-05
5.80837e-06
-3.66914e-05
5.83442e-06
-3.93986e-05
5.86222e-06
-4.21169e-05
5.89167e-06
-4.48466e-05
5.9227e-06
-4.75884e-05
5.95521e-06
-5.03427e-05
5.98912e-06
-5.31098e-05
6.02434e-06
-5.589e-05
6.06077e-06
-5.86837e-05
6.09831e-06
-6.1491e-05
6.13685e-06
-6.43121e-05
6.17626e-06
-6.71471e-05
6.21644e-06
-6.99961e-05
6.25725e-06
-7.2859e-05
6.29855e-06
-7.57357e-05
6.34021e-06
-7.86261e-05
6.38207e-06
-8.15298e-05
6.424e-06
-8.44467e-05
6.46584e-06
-8.73763e-05
6.50744e-06
-9.03182e-05
6.54866e-06
-9.3272e-05
6.58935e-06
-9.62371e-05
6.6294e-06
-9.92132e-05
6.6687e-06
-0.0001022
6.70716e-06
-0.000105196
6.74473e-06
-0.000108202
6.78141e-06
-0.000111217
6.81723e-06
-0.000114242
6.85229e-06
-0.000117276
6.88676e-06
-0.000120321
6.92081e-06
-0.000123379
6.95465e-06
-0.00012645
6.98843e-06
-0.00012954
7.02211e-06
-0.000132654
7.05536e-06
-0.000135801
7.08776e-06
-0.000138999
7.12002e-06
-0.000142279
7.15863e-06
-0.000145701
7.22854e-06
-0.000149378
7.40301e-06
-0.000153521
7.8662e-06
-0.00015848
9.02905e-06
-0.000164696
1.16779e-05
-0.000172423
1.70099e-05
-0.000181931
2.65748e-05
-0.000189183
4.33873e-05
6.23097e-05
-0.000192064
-1.02499e-06
2.77454e-06
-3.071e-06
5.91054e-06
-5.61102e-06
7.46203e-06
-8.36847e-06
8.15535e-06
-1.12161e-05
8.43317e-06
-1.41001e-05
8.53755e-06
-1.69999e-05
8.57939e-06
-1.99085e-05
8.60296e-06
-2.2824e-05
8.62365e-06
-2.57463e-05
8.64601e-06
-2.86757e-05
8.67109e-06
-3.16128e-05
8.69897e-06
-3.45582e-05
8.72953e-06
-3.75124e-05
8.76263e-06
-4.04761e-05
8.79814e-06
-4.34498e-05
8.83591e-06
-4.6434e-05
8.87583e-06
-4.94291e-05
8.91776e-06
-5.24354e-05
8.96159e-06
-5.54535e-05
9.00716e-06
-5.84835e-05
9.05434e-06
-6.15257e-05
9.10296e-06
-6.45802e-05
9.15288e-06
-6.76473e-05
9.20392e-06
-7.07269e-05
9.25589e-06
-7.38191e-05
9.30861e-06
-7.69237e-05
9.36187e-06
-8.00406e-05
9.41548e-06
-8.31697e-05
9.46922e-06
-8.63104e-05
9.52287e-06
-8.94627e-05
9.57622e-06
-9.26259e-05
9.62905e-06
-9.57996e-05
9.68116e-06
-9.89833e-05
9.73236e-06
-0.000102176
9.78247e-06
-0.000105378
9.83137e-06
-0.000108589
9.87895e-06
-0.000111807
9.92521e-06
-0.000115032
9.9702e-06
-0.000118265
1.00141e-05
-0.000121505
1.00572e-05
-0.000124753
1.01001e-05
-0.000128009
1.01434e-05
-0.000131277
1.01883e-05
-0.000134558
1.02362e-05
-0.000137859
1.02891e-05
-0.000141187
1.035e-05
-0.000144555
1.0423e-05
-0.000147982
1.0515e-05
-0.0001515
1.06387e-05
-0.000155162
1.08198e-05
-0.000159045
1.11123e-05
-0.00016327
1.16278e-05
-0.000167991
1.25866e-05
-0.000173351
1.43894e-05
-0.000179346
1.7673e-05
-0.000185607
2.3271e-05
-0.000191145
3.21124e-05
-0.000192642
4.48844e-05
5.8377e-05
-0.000188709
-1.07127e-06
3.84581e-06
-3.21524e-06
8.05451e-06
-5.86965e-06
1.01164e-05
-8.74439e-06
1.10301e-05
-1.17088e-05
1.13976e-05
-1.4709e-05
1.15377e-05
-1.77246e-05
1.1595e-05
-2.0749e-05
1.16273e-05
-2.37803e-05
1.1655e-05
-2.68183e-05
1.16841e-05
-2.98634e-05
1.17162e-05
-3.2916e-05
1.17516e-05
-3.59767e-05
1.17902e-05
-3.9046e-05
1.18319e-05
-4.21243e-05
1.18765e-05
-4.52122e-05
1.19238e-05
-4.83101e-05
1.19737e-05
-5.14183e-05
1.2026e-05
-5.45374e-05
1.20806e-05
-5.76674e-05
1.21372e-05
-6.08088e-05
1.21957e-05
-6.39617e-05
1.22558e-05
-6.71262e-05
1.23174e-05
-7.03023e-05
1.23801e-05
-7.34902e-05
1.24437e-05
-7.66896e-05
1.25081e-05
-7.99005e-05
1.25728e-05
-8.31227e-05
1.26376e-05
-8.63558e-05
1.27023e-05
-8.95995e-05
1.27666e-05
-9.28534e-05
1.28301e-05
-9.6117e-05
1.28926e-05
-9.93897e-05
1.29538e-05
-0.000102671
1.30136e-05
-0.00010596
1.30716e-05
-0.000109256
1.31278e-05
-0.000112559
1.3182e-05
-0.000115869
1.32344e-05
-0.000119184
1.32852e-05
-0.000122504
1.33346e-05
-0.00012583
1.33834e-05
-0.000129163
1.34326e-05
-0.000132503
1.34835e-05
-0.000135853
1.35383e-05
-0.000139217
1.35998e-05
-0.0001426
1.36722e-05
-0.000146011
1.37615e-05
-0.000149465
1.38765e-05
-0.000152981
1.40312e-05
-0.00015659
1.42481e-05
-0.000160337
1.45663e-05
-0.000164278
1.50541e-05
-0.000168482
1.58319e-05
-0.000172999
1.71031e-05
-0.000177796
1.91864e-05
-0.00018264
2.25175e-05
-0.000186957
2.75875e-05
-0.000189641
3.47969e-05
-0.000188648
4.38912e-05
5.31729e-05
-0.000183444
-1.08437e-06
4.93019e-06
-3.26708e-06
1.02372e-05
-5.96829e-06
1.28177e-05
-8.89118e-06
1.3953e-05
-1.19029e-05
1.44093e-05
-1.49491e-05
1.4584e-05
-1.80102e-05
1.46561e-05
-2.10797e-05
1.46969e-05
-2.41561e-05
1.47313e-05
-2.72391e-05
1.47671e-05
-3.03291e-05
1.48062e-05
-3.34265e-05
1.48491e-05
-3.6532e-05
1.48956e-05
-3.96459e-05
1.49458e-05
-4.27687e-05
1.49993e-05
-4.59009e-05
1.5056e-05
-4.90429e-05
1.51157e-05
-5.21951e-05
1.51783e-05
-5.53579e-05
1.52433e-05
-5.85314e-05
1.53108e-05
-6.1716e-05
1.53803e-05
-6.49117e-05
1.54516e-05
-6.81188e-05
1.55244e-05
-7.13372e-05
1.55985e-05
-7.4567e-05
1.56735e-05
-7.7808e-05
1.5749e-05
-8.106e-05
1.58248e-05
-8.43229e-05
1.59005e-05
-8.75963e-05
1.59757e-05
-9.08798e-05
1.60501e-05
-9.41729e-05
1.61232e-05
-9.74751e-05
1.61948e-05
-0.000100786
1.62646e-05
-0.000104104
1.63321e-05
-0.00010743
1.63973e-05
-0.000110762
1.64599e-05
-0.0001141
1.652e-05
-0.000117443
1.65775e-05
-0.000120791
1.66328e-05
-0.000124143
1.66865e-05
-0.000127499
1.67395e-05
-0.00013086
1.67931e-05
-0.000134225
1.68495e-05
-0.000137599
1.69114e-05
-0.000140982
1.69831e-05
-0.00014438
1.70705e-05
-0.000147801
1.7182e-05
-0.000151254
1.73298e-05
-0.000154755
1.75323e-05
-0.000158325
1.78175e-05
-0.000161987
1.82289e-05
-0.000165769
1.88355e-05
-0.000169682
1.97448e-05
-0.000173696
2.11172e-05
-0.000177683
2.31733e-05
-0.000181341
2.61753e-05
-0.000184117
3.03643e-05
-0.000185134
3.58136e-05
-0.000183357
4.21144e-05
4.82692e-05
-0.000178454
-1.08523e-06
6.01541e-06
-3.27968e-06
1.24317e-05
-5.99642e-06
1.55344e-05
-8.9359e-06
1.68925e-05
-1.19637e-05
1.74371e-05
-1.50254e-05
1.76456e-05
-1.81013e-05
1.7732e-05
-2.11854e-05
1.7781e-05
-2.42762e-05
1.78221e-05
-2.73736e-05
1.78645e-05
-3.04781e-05
1.79106e-05
-3.359e-05
1.7961e-05
-3.67099e-05
1.80156e-05
-3.98384e-05
1.80742e-05
-4.29758e-05
1.81367e-05
-4.61226e-05
1.82029e-05
-4.92793e-05
1.82724e-05
-5.24462e-05
1.83452e-05
-5.56237e-05
1.84208e-05
-5.8812e-05
1.84991e-05
-6.20113e-05
1.85796e-05
-6.52219e-05
1.86622e-05
-6.84439e-05
1.87464e-05
-7.16773e-05
1.88319e-05
-7.4922e-05
1.89182e-05
-7.8178e-05
1.9005e-05
-8.1445e-05
1.90919e-05
-8.4723e-05
1.91785e-05
-8.80114e-05
1.92642e-05
-9.13099e-05
1.93486e-05
-9.46181e-05
1.94314e-05
-9.79353e-05
1.9512e-05
-0.000101261
1.95901e-05
-0.000104594
1.96654e-05
-0.000107934
1.97374e-05
-0.00011128
1.98062e-05
-0.000114632
1.98714e-05
-0.000117988
1.99334e-05
-0.000121347
1.99924e-05
-0.00012471
2.0049e-05
-0.000128075
2.01045e-05
-0.000131442
2.01603e-05
-0.000134811
2.0219e-05
-0.000138184
2.0284e-05
-0.000141561
2.03602e-05
-0.000144945
2.04545e-05
-0.00014834
2.05766e-05
-0.00015175
2.07404e-05
-0.000155183
2.09654e-05
-0.000158646
2.12803e-05
-0.000162144
2.17265e-05
-0.000165672
2.23639e-05
-0.000169204
2.3277e-05
-0.000172666
2.45791e-05
-0.000175901
2.64078e-05
-0.000178627
2.89013e-05
-0.000180409
3.21464e-05
-0.00018067
3.60747e-05
-0.000178878
4.0322e-05
4.42527e-05
-0.000174861
-1.08202e-06
7.09743e-06
-3.27684e-06
1.46265e-05
-5.99559e-06
1.82531e-05
-8.93798e-06
1.98348e-05
-1.19687e-05
2.04678e-05
-1.50329e-05
2.07099e-05
-1.81112e-05
2.08103e-05
-2.11974e-05
2.08672e-05
-2.42901e-05
2.09149e-05
-2.73896e-05
2.09639e-05
-3.04961e-05
2.10171e-05
-3.36102e-05
2.10751e-05
-3.67325e-05
2.11378e-05
-3.98634e-05
2.12051e-05
-4.30034e-05
2.12767e-05
-4.6153e-05
2.13525e-05
-4.93126e-05
2.1432e-05
-5.24826e-05
2.15152e-05
-5.56634e-05
2.16016e-05
-5.88553e-05
2.16909e-05
-6.20584e-05
2.17828e-05
-6.5273e-05
2.18768e-05
-6.84993e-05
2.19726e-05
-7.17372e-05
2.20697e-05
-7.49867e-05
2.21677e-05
-7.82478e-05
2.22661e-05
-8.15203e-05
2.23644e-05
-8.48039e-05
2.24621e-05
-8.80984e-05
2.25586e-05
-9.14032e-05
2.26534e-05
-9.47179e-05
2.27461e-05
-9.80419e-05
2.2836e-05
-0.000101374
2.29226e-05
-0.000104715
2.30057e-05
-0.000108062
2.30846e-05
-0.000111415
2.31593e-05
-0.000114773
2.32296e-05
-0.000118135
2.32954e-05
-0.0001215
2.33572e-05
-0.000124867
2.34155e-05
-0.000128234
2.34716e-05
-0.0001316
2.35271e-05
-0.000134966
2.35845e-05
-0.000138329
2.36474e-05
-0.00014169
2.37211e-05
-0.000145048
2.38124e-05
-0.000148403
2.39313e-05
-0.000151754
2.40912e-05
-0.000155099
2.43108e-05
-0.000158435
2.46157e-05
-0.000161749
2.50409e-05
-0.000165018
2.56331e-05
-0.000168194
2.64528e-05
-0.000171187
2.75725e-05
-0.000173848
2.90684e-05
-0.000175946
3.1e-05
-0.000177171
3.33712e-05
-0.000177166
3.60695e-05
-0.000175655
3.88112e-05
4.11689e-05
-0.000172571
-1.07754e-06
8.17497e-06
-3.26807e-06
1.6817e-05
-5.9832e-06
2.09683e-05
-8.92268e-06
2.27743e-05
-1.19507e-05
2.34958e-05
-1.50122e-05
2.37714e-05
-1.80876e-05
2.38856e-05
-2.11708e-05
2.39504e-05
-2.42607e-05
2.40047e-05
-2.73572e-05
2.40605e-05
-3.0461e-05
2.41209e-05
-3.35725e-05
2.41866e-05
-3.66922e-05
2.42576e-05
-3.98209e-05
2.43337e-05
-4.29588e-05
2.44147e-05
-4.61066e-05
2.45002e-05
-4.92647e-05
2.45901e-05
-5.24334e-05
2.4684e-05
-5.56133e-05
2.47814e-05
-5.88045e-05
2.48821e-05
-6.20073e-05
2.49856e-05
-6.5222e-05
2.50915e-05
-6.84487e-05
2.51993e-05
-7.16875e-05
2.53085e-05
-7.49383e-05
2.54186e-05
-7.82012e-05
2.5529e-05
-8.14759e-05
2.56391e-05
-8.47622e-05
2.57484e-05
-8.80598e-05
2.58562e-05
-9.13683e-05
2.59619e-05
-9.46871e-05
2.60648e-05
-9.80155e-05
2.61644e-05
-0.000101353
2.626e-05
-0.000104698
2.63511e-05
-0.000108051
2.64372e-05
-0.00011141
2.65179e-05
-0.000114773
2.65929e-05
-0.00011814
2.66623e-05
-0.000121509
2.67261e-05
-0.000124878
2.67849e-05
-0.000128246
2.68397e-05
-0.000131611
2.68921e-05
-0.000134971
2.69445e-05
-0.000138324
2.70001e-05
-0.000141667
2.70638e-05
-0.000144996
2.71422e-05
-0.000148309
2.7244e-05
-0.000151599
2.73812e-05
-0.000154858
2.75697e-05
-0.000158072
2.78302e-05
-0.000161221
2.81896e-05
-0.000164269
2.86811e-05
-0.00016716
2.93438e-05
-0.000169807
3.02191e-05
-0.00017208
3.13419e-05
-0.000173805
3.27252e-05
-0.000174768
3.43342e-05
-0.000174753
3.60543e-05
-0.000173614
3.76723e-05
3.88949e-05
-0.000171341
-1.07258e-06
9.24755e-06
-3.25679e-06
1.90012e-05
-5.96577e-06
2.36772e-05
-8.89968e-06
2.57082e-05
-1.19224e-05
2.65185e-05
-1.49788e-05
2.68278e-05
-1.8049e-05
2.69559e-05
-2.11272e-05
2.70286e-05
-2.4212e-05
2.70895e-05
-2.73036e-05
2.71521e-05
-3.04025e-05
2.72198e-05
-3.35093e-05
2.72934e-05
-3.66246e-05
2.73729e-05
-3.9749e-05
2.74581e-05
-4.2883e-05
2.75487e-05
-4.60272e-05
2.76444e-05
-4.91819e-05
2.77448e-05
-5.23476e-05
2.78497e-05
-5.55248e-05
2.79586e-05
-5.87138e-05
2.80711e-05
-6.19149e-05
2.81867e-05
-6.51282e-05
2.83049e-05
-6.83541e-05
2.84252e-05
-7.15925e-05
2.8547e-05
-7.48436e-05
2.86697e-05
-7.81072e-05
2.87926e-05
-8.13832e-05
2.89152e-05
-8.46715e-05
2.90367e-05
-8.79717e-05
2.91564e-05
-9.12833e-05
2.92735e-05
-9.46058e-05
2.93874e-05
-9.79386e-05
2.94972e-05
-0.000101281
2.96022e-05
-0.000104632
2.97019e-05
-0.00010799
2.97954e-05
-0.000111354
2.98823e-05
-0.000114723
2.99622e-05
-0.000118096
3.00347e-05
-0.00012147
3.01e-05
-0.000124843
3.01582e-05
-0.000128213
3.02101e-05
-0.000131578
3.02569e-05
-0.000134934
3.03006e-05
-0.000138278
3.0344e-05
-0.000141605
3.03911e-05
-0.000144911
3.04473e-05
-0.000148186
3.05198e-05
-0.000151424
3.06183e-05
-0.000154609
3.07548e-05
-0.000157723
3.09449e-05
-0.000160741
3.12068e-05
-0.000163621
3.15618e-05
-0.000166309
3.2032e-05
-0.000168727
3.26365e-05
-0.000170769
3.33843e-05
-0.000172307
3.42627e-05
-0.000173195
3.52226e-05
-0.000173303
3.61618e-05
-0.000172551
3.69209e-05
3.72956e-05
-0.000170952
-1.06725e-06
1.03148e-05
-3.244e-06
2.1178e-05
-5.94547e-06
2.63787e-05
-8.87236e-06
2.86351e-05
-1.18884e-05
2.95346e-05
-1.49383e-05
2.98777e-05
-1.80021e-05
3.00197e-05
-2.1074e-05
3.01004e-05
-2.41526e-05
3.01681e-05
-2.72381e-05
3.02376e-05
-3.03311e-05
3.03128e-05
-3.34322e-05
3.03945e-05
-3.65421e-05
3.04828e-05
-3.96612e-05
3.05773e-05
-4.27903e-05
3.06778e-05
-4.59299e-05
3.07839e-05
-4.90804e-05
3.08953e-05
-5.22423e-05
3.10117e-05
-5.54161e-05
3.11324e-05
-5.86022e-05
3.12571e-05
-6.18008e-05
3.13853e-05
-6.50123e-05
3.15163e-05
-6.82368e-05
3.16497e-05
-7.14745e-05
3.17846e-05
-7.47254e-05
3.19206e-05
-7.79896e-05
3.20568e-05
-8.12669e-05
3.21925e-05
-8.45571e-05
3.23269e-05
-8.78599e-05
3.24592e-05
-9.11749e-05
3.25885e-05
-9.45015e-05
3.2714e-05
-9.78391e-05
3.28348e-05
-0.000101187
3.295e-05
-0.000104544
3.30587e-05
-0.000107909
3.31602e-05
-0.00011128
3.32537e-05
-0.000114656
3.33386e-05
-0.000118036
3.34144e-05
-0.000121417
3.34807e-05
-0.000124796
3.35375e-05
-0.000128171
3.35852e-05
-0.000131539
3.36245e-05
-0.000134895
3.36566e-05
-0.000138234
3.36836e-05
-0.000141552
3.37084e-05
-0.000144839
3.3735e-05
-0.000148088
3.37687e-05
-0.000151286
3.38161e-05
-0.000154417
3.38857e-05
-0.00015746
3.39873e-05
-0.000160385
3.4132e-05
-0.000163154
3.43309e-05
-0.000165715
3.45935e-05
-0.000168002
3.49237e-05
-0.000169933
3.53148e-05
-0.000171412
3.57417e-05
-0.000172342
3.61525e-05
-0.000172641
3.64606e-05
-0.000172266
3.65458e-05
3.62641e-05
-0.000171234
-1.06149e-06
1.13763e-05
-3.22992e-06
2.33464e-05
-5.92289e-06
2.90717e-05
-8.84171e-06
3.15539e-05
-1.18501e-05
3.2543e-05
-1.48925e-05
3.29201e-05
-1.7949e-05
3.30763e-05
-2.10137e-05
3.31651e-05
-2.40852e-05
3.32396e-05
-2.71638e-05
3.33162e-05
-3.02501e-05
3.33991e-05
-3.33448e-05
3.34892e-05
-3.64484e-05
3.35864e-05
-3.95617e-05
3.36905e-05
-4.26852e-05
3.38013e-05
-4.58195e-05
3.39182e-05
-4.89652e-05
3.4041e-05
-5.21228e-05
3.41692e-05
-5.52927e-05
3.43023e-05
-5.84754e-05
3.44398e-05
-6.16711e-05
3.45811e-05
-6.48804e-05
3.47256e-05
-6.81033e-05
3.48726e-05
-7.13401e-05
3.50214e-05
-7.45908e-05
3.51713e-05
-7.78556e-05
3.53215e-05
-8.11342e-05
3.54711e-05
-8.44266e-05
3.56193e-05
-8.77324e-05
3.5765e-05
-9.10512e-05
3.59074e-05
-9.43826e-05
3.60454e-05
-9.77258e-05
3.61779e-05
-0.00010108
3.63041e-05
-0.000104444
3.64228e-05
-0.000107817
3.6533e-05
-0.000111197
3.66337e-05
-0.000114582
3.67241e-05
-0.000117971
3.68033e-05
-0.000121361
3.68707e-05
-0.000124749
3.69258e-05
-0.000128133
3.69685e-05
-0.000131507
3.69987e-05
-0.000134868
3.70172e-05
-0.000138209
3.70248e-05
-0.000141524
3.70234e-05
-0.000144804
3.70151e-05
-0.000148038
3.70031e-05
-0.000151214
3.69914e-05
-0.000154312
3.69845e-05
-0.000157312
3.69873e-05
-0.000160185
3.70047e-05
-0.000162894
3.704e-05
-0.000165394
3.70936e-05
-0.00016763
3.71595e-05
-0.000169537
3.7222e-05
-0.000171046
3.7251e-05
-0.000172091
3.71967e-05
-0.000172617
3.69873e-05
-0.000172602
3.65309e-05
3.57237e-05
-0.000172062
-1.05525e-06
1.24315e-05
-3.21454e-06
2.55057e-05
-5.89813e-06
3.17553e-05
-8.80798e-06
3.44638e-05
-1.18078e-05
3.55428e-05
-1.48419e-05
3.59541e-05
-1.78902e-05
3.61247e-05
-2.09469e-05
3.62217e-05
-2.40106e-05
3.63033e-05
-2.70816e-05
3.63872e-05
-3.01604e-05
3.6478e-05
-3.32479e-05
3.65766e-05
-3.63446e-05
3.66832e-05
-3.94513e-05
3.67972e-05
-4.25687e-05
3.69186e-05
-4.56972e-05
3.70468e-05
-4.88375e-05
3.71814e-05
-5.19902e-05
3.73219e-05
-5.51558e-05
3.74679e-05
-5.83347e-05
3.76187e-05
-6.15273e-05
3.77737e-05
-6.4734e-05
3.79323e-05
-6.79552e-05
3.80937e-05
-7.11909e-05
3.82572e-05
-7.44414e-05
3.84218e-05
-7.77068e-05
3.85869e-05
-8.09869e-05
3.87513e-05
-8.42817e-05
3.89141e-05
-8.75909e-05
3.90742e-05
-9.09141e-05
3.92306e-05
-9.42509e-05
3.93821e-05
-9.76005e-05
3.95275e-05
-0.000100962
3.96657e-05
-0.000104335
3.97953e-05
-0.000107717
3.99152e-05
-0.000111107
4.0024e-05
-0.000114504
4.01207e-05
-0.000117904
4.0204e-05
-0.000121306
4.02729e-05
-0.000124707
4.03264e-05
-0.000128102
4.03638e-05
-0.000131488
4.03845e-05
-0.000134859
4.03882e-05
-0.000138209
4.03749e-05
-0.000141531
4.03447e-05
-0.000144814
4.02985e-05
-0.000148048
4.02371e-05
-0.000151218
4.01618e-05
-0.000154308
4.00737e-05
-0.000157294
3.99737e-05
-0.000160151
3.98614e-05
-0.000162845
3.97343e-05
-0.000165338
3.95863e-05
-0.000167584
3.94055e-05
-0.000169533
3.91714e-05
-0.000171134
3.88522e-05
-0.00017234
3.84027e-05
-0.000173116
3.77631e-05
-0.000173447
3.68618e-05
3.56216e-05
-0.000173345
-1.04848e-06
1.348e-05
-3.19781e-06
2.76551e-05
-5.87113e-06
3.44286e-05
-8.77114e-06
3.73638e-05
-1.17615e-05
3.85331e-05
-1.47864e-05
3.89791e-05
-1.78258e-05
3.91641e-05
-2.08737e-05
3.92696e-05
-2.39288e-05
3.93584e-05
-2.69913e-05
3.94498e-05
-3.00621e-05
3.95487e-05
-3.31416e-05
3.96562e-05
-3.62308e-05
3.97723e-05
-3.93303e-05
3.98967e-05
-4.24408e-05
4.00291e-05
-4.55629e-05
4.01689e-05
-4.86973e-05
4.03158e-05
-5.18447e-05
4.04692e-05
-5.50054e-05
4.06286e-05
-5.81801e-05
4.07934e-05
-6.13692e-05
4.09628e-05
-6.45732e-05
4.11362e-05
-6.77923e-05
4.13128e-05
-7.10268e-05
4.14917e-05
-7.4277e-05
4.16721e-05
-7.7543e-05
4.18528e-05
-8.08247e-05
4.2033e-05
-8.41222e-05
4.22115e-05
-8.74352e-05
4.23872e-05
-9.07634e-05
4.25588e-05
-9.41062e-05
4.2725e-05
-9.74631e-05
4.28844e-05
-0.000100833
4.30358e-05
-0.000104215
4.31776e-05
-0.000107609
4.33083e-05
-0.000111011
4.34264e-05
-0.000114421
4.35305e-05
-0.000117836
4.36189e-05
-0.000121253
4.36903e-05
-0.00012467
4.3743e-05
-0.000128082
4.37758e-05
-0.000131484
4.37872e-05
-0.000134872
4.37762e-05
-0.000138239
4.37414e-05
-0.000141576
4.3682e-05
-0.000144875
4.35969e-05
-0.000148123
4.34851e-05
-0.000151306
4.33452e-05
-0.000154408
4.31756e-05
-0.000157408
4.29735e-05
-0.000160281
4.27347e-05
-0.000162999
4.24524e-05
-0.000165529
4.2116e-05
-0.000167833
4.17099e-05
-0.000169873
4.12114e-05
-0.00017161
4.05892e-05
-0.00017301
3.98025e-05
-0.000174048
3.88011e-05
-0.000174714
3.75279e-05
3.5923e-05
-0.000175016
-1.04117e-06
1.45212e-05
-3.17968e-06
2.97936e-05
-5.84183e-06
3.70907e-05
-8.73111e-06
4.02531e-05
-1.17111e-05
4.15131e-05
-1.4726e-05
4.1994e-05
-1.77557e-05
4.21937e-05
-2.07939e-05
4.23078e-05
-2.38396e-05
4.24041e-05
-2.6893e-05
4.25032e-05
-2.99548e-05
4.26105e-05
-3.30258e-05
4.27272e-05
-3.61066e-05
4.28532e-05
-3.91982e-05
4.29883e-05
-4.23012e-05
4.31321e-05
-4.54163e-05
4.3284e-05
-4.85443e-05
4.34437e-05
-5.16856e-05
4.36106e-05
-5.48411e-05
4.37841e-05
-5.80111e-05
4.39634e-05
-6.11963e-05
4.4148e-05
-6.43971e-05
4.4337e-05
-6.76139e-05
4.45296e-05
-7.0847e-05
4.47249e-05
-7.40968e-05
4.49218e-05
-7.73634e-05
4.51194e-05
-8.06469e-05
4.53165e-05
-8.39473e-05
4.55119e-05
-8.72643e-05
4.57043e-05
-9.05979e-05
4.58923e-05
-9.39475e-05
4.60746e-05
-9.73125e-05
4.62495e-05
-0.000100692
4.64155e-05
-0.000104086
4.65709e-05
-0.000107491
4.6714e-05
-0.000110908
4.68429e-05
-0.000114333
4.69559e-05
-0.000117765
4.7051e-05
-0.000121201
4.71262e-05
-0.000124638
4.71795e-05
-0.000128071
4.72089e-05
-0.000131496
4.72123e-05
-0.000134907
4.71877e-05
-0.000138299
4.71327e-05
-0.000141662
4.7045e-05
-0.000144987
4.69222e-05
-0.000148263
4.67613e-05
-0.000151477
4.65589e-05
-0.000154612
4.63108e-05
-0.00015765
4.60114e-05
-0.000160568
4.56534e-05
-0.000163343
4.52269e-05
-0.000165945
4.47186e-05
-0.000168346
4.41104e-05
-0.000170513
4.33789e-05
-0.000172418
4.2494e-05
-0.000174035
4.1419e-05
-0.000175344
4.01109e-05
-0.000176339
3.85226e-05
3.66061e-05
-0.000177022
-1.0333e-06
1.55545e-05
-3.1601e-06
3.19204e-05
-5.81016e-06
3.97408e-05
-8.68779e-06
4.31307e-05
-1.16566e-05
4.4482e-05
-1.46607e-05
4.4998e-05
-1.76796e-05
4.52127e-05
-2.07074e-05
4.53356e-05
-2.37429e-05
4.54395e-05
-2.67863e-05
4.55466e-05
-2.98384e-05
4.56626e-05
-3.28999e-05
4.57887e-05
-3.59718e-05
4.59251e-05
-3.90547e-05
4.60713e-05
-4.21495e-05
4.62269e-05
-4.5257e-05
4.63915e-05
-4.83777e-05
4.65645e-05
-5.15126e-05
4.67454e-05
-5.46621e-05
4.69336e-05
-5.7827e-05
4.71283e-05
-6.10078e-05
4.73288e-05
-6.4205e-05
4.75343e-05
-6.74192e-05
4.77438e-05
-7.06507e-05
4.79564e-05
-7.38999e-05
4.8171e-05
-7.7167e-05
4.83865e-05
-8.04522e-05
4.86017e-05
-8.37556e-05
4.88153e-05
-8.70771e-05
4.90258e-05
-9.04165e-05
4.92317e-05
-9.37734e-05
4.94315e-05
-9.71474e-05
4.96235e-05
-0.000100538
4.98058e-05
-0.000103943
4.99766e-05
-0.000107363
5.01338e-05
-0.000110796
5.02754e-05
-0.000114239
5.03992e-05
-0.000117691
5.05029e-05
-0.000121149
5.05839e-05
-0.000124609
5.06399e-05
-0.000128068
5.0668e-05
-0.000131521
5.06655e-05
-0.000134963
5.06295e-05
-0.000138387
5.05566e-05
-0.000141785
5.04433e-05
-0.000145149
5.02857e-05
-0.000148467
5.00793e-05
-0.000151727
4.98188e-05
-0.000154914
4.9498e-05
-0.000158012
4.91089e-05
-0.000161
4.86421e-05
-0.000163859
4.80854e-05
-0.000166564
4.74233e-05
-0.00016909
4.66369e-05
-0.000171414
4.57023e-05
-0.000173511
4.4591e-05
-0.000175361
4.32696e-05
-0.000176951
4.17004e-05
-0.000178271
3.98433e-05
3.76581e-05
-0.000179323
-1.02484e-06
1.65793e-05
-3.13904e-06
3.40346e-05
-5.77605e-06
4.23778e-05
-8.6411e-06
4.59957e-05
-1.15978e-05
4.74387e-05
-1.45901e-05
4.79903e-05
-1.75975e-05
4.82201e-05
-2.0614e-05
4.83521e-05
-2.36384e-05
4.84639e-05
-2.6671e-05
4.85791e-05
-2.97125e-05
4.87041e-05
-3.27639e-05
4.88401e-05
-3.58259e-05
4.89871e-05
-3.88994e-05
4.91448e-05
-4.19853e-05
4.93127e-05
-4.50843e-05
4.94905e-05
-4.81972e-05
4.96774e-05
-5.13248e-05
4.9873e-05
-5.44678e-05
5.00766e-05
-5.7627e-05
5.02874e-05
-6.08028e-05
5.05047e-05
-6.39961e-05
5.07275e-05
-6.72072e-05
5.09549e-05
-7.04367e-05
5.11859e-05
-7.36851e-05
5.14194e-05
-7.69526e-05
5.1654e-05
-8.02395e-05
5.18886e-05
-8.35459e-05
5.21218e-05
-8.6872e-05
5.23518e-05
-9.02176e-05
5.25773e-05
-9.35824e-05
5.27963e-05
-9.69661e-05
5.30071e-05
-0.000100368
5.32077e-05
-0.000103787
5.33958e-05
-0.000107223
5.35693e-05
-0.000110673
5.37258e-05
-0.000114137
5.38627e-05
-0.000117611
5.39774e-05
-0.000121094
5.40668e-05
-0.000124582
5.4128e-05
-0.000128072
5.41578e-05
-0.000131559
5.41524e-05
-0.000135038
5.41082e-05
-0.000138502
5.4021e-05
-0.000141945
5.38861e-05
-0.000145357
5.36983e-05
-0.00014873
5.34518e-05
-0.000152051
5.31398e-05
-0.000155307
5.27541e-05
-0.000158483
5.22854e-05
-0.000161563
5.17222e-05
-0.000164529
5.10507e-05
-0.00016736
5.02544e-05
-0.000170036
4.93134e-05
-0.000172538
4.82041e-05
-0.000174847
4.68994e-05
-0.000176945
4.53684e-05
-0.000178822
4.35772e-05
-0.000180469
4.14905e-05
3.9073e-05
-0.000181884
-1.0158e-06
1.75951e-05
-3.11645e-06
3.61352e-05
-5.73942e-06
4.50008e-05
-8.59092e-06
4.88473e-05
-1.15346e-05
5.03824e-05
-1.45142e-05
5.09698e-05
-1.75092e-05
5.12151e-05
-2.05135e-05
5.13564e-05
-2.35258e-05
5.14763e-05
-2.65467e-05
5.16e-05
-2.95768e-05
5.17342e-05
-3.26171e-05
5.18804e-05
-3.56685e-05
5.20384e-05
-3.87317e-05
5.22081e-05
-4.18079e-05
5.23889e-05
-4.48977e-05
5.25803e-05
-4.8002e-05
5.27818e-05
-5.11217e-05
5.29927e-05
-5.42575e-05
5.32124e-05
-5.74102e-05
5.34402e-05
-6.05806e-05
5.3675e-05
-6.37692e-05
5.39162e-05
-6.69768e-05
5.41625e-05
-7.0204e-05
5.4413e-05
-7.34511e-05
5.46665e-05
-7.67188e-05
5.49217e-05
-8.00072e-05
5.51771e-05
-8.33168e-05
5.54313e-05
-8.66475e-05
5.56826e-05
-8.99996e-05
5.59293e-05
-9.33727e-05
5.61695e-05
-9.67667e-05
5.64011e-05
-0.000100181
5.6622e-05
-0.000103615
5.68297e-05
-0.000107068
5.70219e-05
-0.000110538
5.71958e-05
-0.000114023
5.73486e-05
-0.000117523
5.74771e-05
-0.000121034
5.7578e-05
-0.000124554
5.76478e-05
-0.000128079
5.76826e-05
-0.000131605
5.76783e-05
-0.000135127
5.76302e-05
-0.000138639
5.75333e-05
-0.000142135
5.7382e-05
-0.000145607
5.717e-05
-0.000149045
5.68904e-05
-0.00015244
5.65348e-05
-0.00015578
5.60941e-05
-0.000159052
5.55572e-05
-0.000162242
5.49115e-05
-0.000165333
5.41421e-05
-0.00016831
5.32315e-05
-0.000171156
5.21594e-05
-0.000173855
5.09027e-05
-0.00017639
4.9435e-05
-0.000178749
4.77275e-05
-0.000180921
4.57489e-05
-0.000182897
4.3467e-05
4.08496e-05
-0.000184674
-1.00616e-06
1.86013e-05
-3.0923e-06
3.82213e-05
-5.70021e-06
4.76087e-05
-8.53717e-06
5.16842e-05
-1.14669e-05
5.33121e-05
-1.44328e-05
5.39358e-05
-1.74144e-05
5.41967e-05
-2.04055e-05
5.43475e-05
-2.3405e-05
5.44757e-05
-2.64132e-05
5.46082e-05
-2.9431e-05
5.4752e-05
-3.24593e-05
5.49087e-05
-3.54991e-05
5.50782e-05
-3.85513e-05
5.52602e-05
-4.16168e-05
5.54544e-05
-4.46966e-05
5.566e-05
-4.77915e-05
5.58767e-05
-5.09024e-05
5.61037e-05
-5.40303e-05
5.63403e-05
-5.71759e-05
5.65858e-05
-6.034e-05
5.68392e-05
-6.35235e-05
5.70996e-05
-6.6727e-05
5.7366e-05
-6.99512e-05
5.76373e-05
-7.31968e-05
5.79121e-05
-7.64642e-05
5.81891e-05
-7.97539e-05
5.84669e-05
-8.30664e-05
5.87438e-05
-8.64019e-05
5.90181e-05
-8.97605e-05
5.92879e-05
-9.31423e-05
5.95513e-05
-9.65471e-05
5.98059e-05
-9.99745e-05
6.00494e-05
-0.000103424
6.02793e-05
-0.000106895
6.04929e-05
-0.000110386
6.06871e-05
-0.000113897
6.08588e-05
-0.000117424
6.10045e-05
-0.000120966
6.11205e-05
-0.000124521
6.12027e-05
-0.000128085
6.12468e-05
-0.000131655
6.12481e-05
-0.000135226
6.12011e-05
-0.000138793
6.11002e-05
-0.00014235
6.09388e-05
-0.00014589
6.07099e-05
-0.000149405
6.04052e-05
-0.000152885
6.00157e-05
-0.000156322
5.95309e-05
-0.000159704
5.89388e-05
-0.000163018
5.82256e-05
-0.000166251
5.73757e-05
-0.000169391
5.6371e-05
-0.000172423
5.51911e-05
-0.000175333
5.38129e-05
-0.000178109
5.2211e-05
-0.000180739
5.03576e-05
-0.000183213
4.82234e-05
-0.000185524
4.57778e-05
4.29906e-05
-0.000187665
-9.95916e-07
1.95972e-05
-3.06656e-06
4.0292e-05
-5.65835e-06
5.02005e-05
-8.47974e-06
5.45056e-05
-1.13944e-05
5.62268e-05
-1.43457e-05
5.68871e-05
-1.7313e-05
5.7164e-05
-2.029e-05
5.73245e-05
-2.32756e-05
5.74613e-05
-2.62702e-05
5.76028e-05
-2.92747e-05
5.77565e-05
-3.22901e-05
5.79241e-05
-3.53174e-05
5.81055e-05
-3.83575e-05
5.83004e-05
-4.14115e-05
5.85084e-05
-4.44803e-05
5.87289e-05
-4.75649e-05
5.89613e-05
-5.06663e-05
5.92051e-05
-5.37854e-05
5.94594e-05
-5.6923e-05
5.97234e-05
-6.00802e-05
5.99964e-05
-6.32578e-05
6.02772e-05
-6.64565e-05
6.05648e-05
-6.96772e-05
6.08579e-05
-7.29206e-05
6.11555e-05
-7.61873e-05
6.14558e-05
-7.9478e-05
6.17576e-05
-8.27932e-05
6.20589e-05
-8.61332e-05
6.23581e-05
-8.94984e-05
6.26532e-05
-9.2889e-05
6.29418e-05
-9.63049e-05
6.32218e-05
-9.97461e-05
6.34906e-05
-0.000103212
6.37454e-05
-0.000106703
6.39833e-05
-0.000110216
6.4201e-05
-0.000113753
6.4395e-05
-0.00011731
6.45617e-05
-0.000120886
6.46968e-05
-0.000124479
6.47959e-05
-0.000128087
6.48541e-05
-0.000131705
6.48662e-05
-0.00013533
6.48262e-05