/*--------------------------------*- C++ -*----------------------------------*\
  =========                 |
  \\      /  F ield         | OpenFOAM: The Open Source CFD Toolbox
   \\    /   O peration     | Website:  https://openfoam.org
    \\  /    A nd           | Version:  8
     \\/     M anipulation  |
\*---------------------------------------------------------------------------*/
FoamFile
{
    version     2.0;
    format      ascii;
    class       surfaceScalarField;
    location    "0.82";
    object      phi;
}
// * * * * * * * * * * * * * * * * * * * * * * * * * * * * * * * * * * * * * //

dimensions      [0 3 -1 0 0 0 0];

internalField   nonuniform List<scalar> 
760
(
1.24825e-06
-1.99907e-12
1.24825e-06
1.20477e-12
1.24824e-06
2.90108e-12
1.24824e-06
3.57457e-12
1.24824e-06
3.67384e-12
1.24823e-06
3.53525e-12
1.24823e-06
3.19741e-12
1.24823e-06
2.82747e-12
1.24822e-06
2.45839e-12
1.24822e-06
2.02618e-12
1.24822e-06
1.54299e-12
1.24822e-06
1.05644e-12
1.24822e-06
5.26924e-13
1.24822e-06
-1.62322e-13
1.24822e-06
-1.13208e-12
1.24822e-06
-2.48007e-12
1.24823e-06
-4.26408e-12
1.24823e-06
-6.13529e-12
1.24824e-06
-6.99438e-12
-5.35802e-12
3.74476e-06
-4.13098e-12
3.74476e-06
3.49164e-12
3.74475e-06
7.91833e-12
3.74475e-06
9.63424e-12
3.74474e-06
9.8246e-12
3.74474e-06
9.29321e-12
3.74473e-06
8.39205e-12
3.74473e-06
7.33568e-12
3.74472e-06
6.20116e-12
3.74472e-06
4.96893e-12
3.74472e-06
3.62276e-12
3.74472e-06
2.14249e-12
3.74472e-06
4.36556e-13
3.74472e-06
-1.66163e-12
3.74472e-06
-4.33802e-12
3.74473e-06
-7.72661e-12
3.74473e-06
-1.17076e-11
3.74474e-06
-1.53478e-11
3.74475e-06
-1.62665e-11
-1.20825e-11
6.24139e-06
-5.34606e-12
6.24139e-06
5.54782e-12
6.24138e-06
1.2299e-11
6.24138e-06
1.49049e-11
6.24137e-06
1.52474e-11
6.24137e-06
1.44032e-11
6.24136e-06
1.29572e-11
6.24136e-06
1.12435e-11
6.24136e-06
9.37703e-12
6.24135e-06
7.34538e-12
6.24135e-06
5.11352e-12
6.24135e-06
2.62172e-12
6.24135e-06
-2.59007e-13
6.24135e-06
-3.71701e-12
6.24136e-06
-7.9285e-12
6.24136e-06
-1.29144e-11
6.24137e-06
-1.83106e-11
6.24138e-06
-2.27159e-11
6.24138e-06
-2.30875e-11
-1.67816e-11
8.73823e-06
-6.53363e-12
8.73823e-06
6.34003e-12
8.73822e-06
1.46705e-11
8.73822e-06
1.82148e-11
8.73822e-06
1.88639e-11
8.73821e-06
1.79684e-11
8.73821e-06
1.62427e-11
8.73821e-06
1.40852e-11
8.7382e-06
1.16727e-11
8.7382e-06
9.03486e-12
8.7382e-06
6.13003e-12
8.7382e-06
2.86627e-12
8.7382e-06
-8.99718e-13
8.7382e-06
-5.33221e-12
8.73821e-06
-1.05541e-11
8.73821e-06
-1.64693e-11
8.73821e-06
-2.25133e-11
8.73822e-06
-2.70853e-11
8.73822e-06
-2.70283e-11
-1.96734e-11
1.12354e-05
-7.77014e-12
1.12354e-05
5.73031e-12
1.12354e-05
1.48647e-11
1.12354e-05
1.91792e-11
1.12354e-05
2.02932e-11
1.12354e-05
1.96031e-11
1.12353e-05
1.78832e-11
1.12353e-05
1.55914e-11
1.12353e-05
1.29512e-11
1.12353e-05
1.002e-11
1.12353e-05
6.76509e-12
1.12353e-05
3.09537e-12
1.12353e-05
-1.12224e-12
1.12353e-05
-6.0161e-12
1.12353e-05
-1.16409e-11
1.12353e-05
-1.78297e-11
1.12353e-05
-2.39362e-11
1.12354e-05
-2.84017e-11
1.12354e-05
-2.82904e-11
-2.0969e-11
1.37328e-05
-8.79664e-12
1.37328e-05
4.02214e-12
1.37328e-05
1.31709e-11
1.37328e-05
1.7898e-11
1.37328e-05
1.94821e-11
1.37329e-05
1.91808e-11
1.37329e-05
1.77421e-11
1.37329e-05
1.56347e-11
1.37329e-05
1.3104e-11
1.37328e-05
1.02298e-11
1.37328e-05
6.99985e-12
1.37328e-05
3.34499e-12
1.37328e-05
-8.40469e-13
1.37328e-05
-5.64866e-12
1.37328e-05
-1.10914e-11
1.37328e-05
-1.69846e-11
1.37328e-05
-2.2713e-11
1.37328e-05
-2.69046e-11
1.37328e-05
-2.70821e-11
-2.07479e-11
1.62308e-05
-9.37344e-12
1.62308e-05
1.6441e-12
1.62308e-05
1.00196e-11
1.62308e-05
1.47297e-11
1.62308e-05
1.66683e-11
1.62308e-05
1.68401e-11
1.62308e-05
1.5886e-11
1.62308e-05
1.42332e-11
1.62308e-05
1.21216e-11
1.62308e-05
9.64399e-12
1.62308e-05
6.8101e-12
1.62308e-05
3.57667e-12
1.62308e-05
-1.28671e-13
1.62308e-05
-4.36344e-12
1.62308e-05
-9.11607e-12
1.62308e-05
-1.42275e-11
1.62308e-05
-1.92141e-11
1.62308e-05
-2.30049e-11
1.62308e-05
-2.36898e-11
-1.90555e-11
1.87292e-05
-9.34416e-12
1.87292e-05
-9.95072e-13
1.87292e-05
5.89867e-12
1.87292e-05
1.0158e-11
1.87292e-05
1.22591e-11
1.87292e-05
1.28993e-11
1.87292e-05
1.25505e-11
1.87292e-05
1.15526e-11
1.87292e-05
1.0111e-11
1.87292e-05
8.31566e-12
1.87292e-05
6.19279e-12
1.87292e-05
3.72479e-12
1.87292e-05
8.70243e-13
1.87292e-05
-2.39832e-12
1.87292e-05
-6.06493e-12
1.87292e-05
-1.0025e-11
1.87292e-05
-1.39734e-11
1.87292e-05
-1.72283e-11
1.87292e-05
-1.85006e-11
-1.60029e-11
2.12281e-05
-8.64259e-12
2.12281e-05
-3.56912e-12
2.12281e-05
1.27516e-12
2.12281e-05
4.69678e-12
2.12281e-05
6.74847e-12
2.12281e-05
7.79501e-12
2.12281e-05
8.10038e-12
2.12281e-05
7.88175e-12
2.12281e-05
7.2827e-12
2.12281e-05
6.37356e-12
2.12281e-05
5.18759e-12
2.12281e-05
3.7287e-12
2.12281e-05
1.98391e-12
2.12281e-05
-4.77494e-14
2.12281e-05
-2.3543e-12
2.12281e-05
-4.9039e-12
2.12281e-05
-7.58866e-12
2.12281e-05
-1.01557e-11
2.12281e-05
-1.19849e-11
-1.18072e-11
2.37275e-05
-7.30065e-12
2.37275e-05
-5.84543e-12
2.37275e-05
-3.44005e-12
2.37275e-05
-1.15431e-12
2.37275e-05
6.6354e-13
2.37275e-05
2.03187e-12
2.37275e-05
2.9863e-12
2.37275e-05
3.59743e-12
2.37275e-05
3.92653e-12
2.37275e-05
4.01022e-12
2.37275e-05
3.88021e-12
2.37275e-05
3.55755e-12
2.37275e-05
3.05592e-12
2.37275e-05
2.39834e-12
2.37275e-05
1.59176e-12
2.37275e-05
5.93523e-13
2.37275e-05
-6.8399e-13
2.37275e-05
-2.41238e-12
2.37275e-05
-4.67641e-12
-6.78006e-12
2.62275e-05
-5.44049e-12
2.62275e-05
-7.68681e-12
2.62275e-05
-7.90132e-12
2.62275e-05
-6.92673e-12
2.62275e-05
-5.4665e-12
2.62275e-05
-3.85489e-12
2.62275e-05
-2.29203e-12
2.62275e-05
-8.65948e-13
2.62276e-05
3.90682e-13
2.62276e-05
1.47254e-12
2.62276e-05
2.40415e-12
2.62276e-05
3.22066e-12
2.62276e-05
3.96201e-12
2.62276e-05
4.67584e-12
2.62275e-05
5.36853e-12
2.62275e-05
5.93612e-12
2.62275e-05
6.11727e-12
2.62275e-05
5.35195e-12
2.62275e-05
2.85015e-12
-1.31525e-12
2.87281e-05
-3.26486e-12
2.87281e-05
-9.04082e-12
2.87281e-05
-1.18259e-11
2.87281e-05
-1.21863e-11
2.87281e-05
-1.11245e-11
2.87281e-05
-9.32361e-12
2.87281e-05
-7.21585e-12
2.87281e-05
-5.04753e-12
2.87281e-05
-2.94641e-12
2.87281e-05
-9.6048e-13
2.87281e-05
9.26165e-13
2.87281e-05
2.76187e-12
2.87281e-05
4.61396e-12
2.87281e-05
6.55836e-12
2.87281e-05
8.61092e-12
2.87281e-05
1.06301e-11
2.87281e-05
1.22201e-11
2.87281e-05
1.24903e-11
2.87281e-05
9.99355e-12
4.13084e-12
3.12292e-05
-1.03535e-12
3.12292e-05
-9.91179e-12
3.12292e-05
-1.49804e-11
3.12292e-05
-1.65288e-11
3.12292e-05
-1.58122e-11
3.12292e-05
-1.38454e-11
3.12292e-05
-1.12762e-11
3.12292e-05
-8.49406e-12
3.12292e-05
-5.71061e-12
3.12292e-05
-3.00849e-12
3.12292e-05
-3.77044e-13
3.12292e-05
2.2465e-12
3.12292e-05
4.95812e-12
3.12292e-05
7.86635e-12
3.12292e-05
1.10095e-11
3.12292e-05
1.42391e-11
3.12292e-05
1.70779e-11
3.12292e-05
1.83802e-11
3.12292e-05
1.61417e-11
9.06092e-12
3.37308e-05
9.57798e-13
3.37308e-05
-1.032e-11
3.37308e-05
-1.71527e-11
3.37308e-05
-1.95684e-11
3.37308e-05
-1.90564e-11
3.37308e-05
-1.69265e-11
3.37308e-05
-1.40083e-11
3.37308e-05
-1.08006e-11
3.37308e-05
-7.57321e-12
3.37308e-05
-4.42626e-12
3.37308e-05
-1.34656e-12
3.37308e-05
1.74443e-12
3.37308e-05
4.96984e-12
3.37308e-05
8.47145e-12
3.37308e-05
1.2322e-11
3.37308e-05
1.63992e-11
3.37308e-05
2.02089e-11
3.37308e-05
2.24456e-11
3.37308e-05
2.06957e-11
1.2964e-11
3.62329e-05
2.42521e-12
3.62329e-05
-1.02575e-11
3.62329e-05
-1.81139e-11
3.62329e-05
-2.09273e-11
3.62329e-05
-2.04257e-11
3.62329e-05
-1.81468e-11
3.62329e-05
-1.5041e-11
3.62329e-05
-1.16632e-11
3.62329e-05
-8.30017e-12
3.62329e-05
-5.04499e-12
3.62329e-05
-1.87189e-12
3.62329e-05
1.31117e-12
3.62329e-05
4.64577e-12
3.62329e-05
8.3e-12
3.62329e-05
1.2387e-11
3.62329e-05
1.68425e-11
3.62329e-05
2.12247e-11
3.62329e-05
2.41933e-11
3.62329e-05
2.30981e-11
1.53646e-11
3.87354e-05
3.13843e-12
3.87354e-05
-9.65885e-12
3.87354e-05
-1.75976e-11
3.87354e-05
-2.02466e-11
3.87354e-05
-1.95662e-11
3.87354e-05
-1.72169e-11
3.87354e-05
-1.41655e-11
3.87354e-05
-1.09469e-11
3.87354e-05
-7.81123e-12
3.87354e-05
-4.81754e-12
3.87354e-05
-1.92216e-12
3.87354e-05
9.68659e-13
3.87354e-05
3.99612e-12
3.87354e-05
7.34062e-12
3.87354e-05
1.1153e-11
3.87354e-05
1.54442e-11
3.87354e-05
1.98887e-11
3.87354e-05
2.32712e-11
3.87354e-05
2.28809e-11
1.58676e-11
4.12383e-05
3.0359e-12
4.12383e-05
-8.36114e-12
4.12383e-05
-1.52839e-11
4.12383e-05
-1.72464e-11
4.12383e-05
-1.63097e-11
4.12383e-05
-1.40886e-11
4.12383e-05
-1.14278e-11
4.12382e-05
-8.75472e-12
4.12382e-05
-6.22855e-12
4.12382e-05
-3.85144e-12
4.12382e-05
-1.56717e-12
4.12382e-05
6.94273e-13
4.12382e-05
3.04618e-12
4.12382e-05
5.66706e-12
4.12383e-05
8.73108e-12
4.12383e-05
1.23005e-11
4.12383e-05
1.61968e-11
4.12383e-05
1.95179e-11
4.12383e-05
1.97736e-11
1.41561e-11
4.37414e-05
2.21901e-12
4.37414e-05
-6.06979e-12
4.37414e-05
-1.08626e-11
4.37414e-05
-1.18541e-11
4.37414e-05
-1.08379e-11
4.37414e-05
-9.11343e-12
4.37414e-05
-7.24503e-12
4.37414e-05
-5.48657e-12
4.37414e-05
-3.8928e-12
4.37414e-05
-2.41129e-12
4.37414e-05
-9.79514e-13
4.37414e-05
4.34655e-13
4.37414e-05
1.88552e-12
4.37414e-05
3.49927e-12
4.37414e-05
5.42652e-12
4.37414e-05
7.77285e-12
4.37414e-05
1.05207e-11
4.37414e-05
1.31098e-11
4.37414e-05
1.377e-11
1.01147e-11
4.62448e-05
9.2135e-13
4.62448e-05
-2.74001e-12
4.62448e-05
-4.66025e-12
4.62448e-05
-4.83972e-12
4.62448e-05
-4.19949e-12
4.62448e-05
-3.39245e-12
4.62447e-05
-2.61932e-12
4.62447e-05
-1.96577e-12
4.62447e-05
-1.41399e-12
4.62447e-05
-8.87357e-13
4.62447e-05
-3.45295e-13
4.62447e-05
1.80273e-13
4.62447e-05
6.81238e-13
4.62447e-05
1.24652e-12
4.62447e-05
1.95799e-12
4.62448e-05
2.83469e-12
4.62448e-05
3.94982e-12
4.62448e-05
5.17e-12
4.62448e-05
5.75105e-12
4.37079e-12
4.87483e-05
4.87483e-05
4.87482e-05
4.87482e-05
4.87482e-05
4.87482e-05
4.87482e-05
4.87482e-05
4.87482e-05
4.87482e-05
4.87482e-05
4.87482e-05
4.87482e-05
4.87482e-05
4.87482e-05
4.87482e-05
4.87482e-05
4.87482e-05
4.87482e-05
)
;

boundaryField
{
    movingWall
    {
        type            calculated;
        value           uniform 0;
    }
    fixedWalls
    {
        type            calculated;
        value           uniform 0;
    }
    left
    {
        type            cyclic;
        value           nonuniform List<scalar> 
20
(
-3.87354e-05
-3.62329e-05
-3.37308e-05
-3.12292e-05
-2.87281e-05
-2.62275e-05
-2.37275e-05
-2.12281e-05
-1.87292e-05
-1.62308e-05
-1.37328e-05
-1.12354e-05
-8.73823e-06
-6.24139e-06
-3.74476e-06
-1.24824e-06
-4.12383e-05
-4.37414e-05
-4.62448e-05
-4.87483e-05
)
;
    }
    right
    {
        type            cyclic;
        value           nonuniform List<scalar> 
20
(
3.87354e-05
3.62329e-05
3.37308e-05
3.12292e-05
2.87281e-05
2.62275e-05
2.37275e-05
2.12281e-05
1.87292e-05
1.62308e-05
1.37328e-05
1.12354e-05
8.73823e-06
6.24139e-06
3.74476e-06
1.24824e-06
4.12383e-05
4.37414e-05
4.62448e-05
4.87483e-05
)
;
    }
    frontAndBack
    {
        type            empty;
        value           nonuniform List<scalar> 0();
    }
}


// ************************************************************************* //
