/*--------------------------------*- C++ -*----------------------------------*\
  =========                 |
  \\      /  F ield         | OpenFOAM: The Open Source CFD Toolbox
   \\    /   O peration     | Website:  https://openfoam.org
    \\  /    A nd           | Version:  8
     \\/     M anipulation  |
\*---------------------------------------------------------------------------*/
FoamFile
{
    version     2.0;
    format      ascii;
    class       volVectorField;
    location    "0.82";
    object      U;
}
// * * * * * * * * * * * * * * * * * * * * * * * * * * * * * * * * * * * * * //

dimensions      [0 1 -1 0 0 0 0];

internalField   nonuniform List<vector> 
400
(
(0.0249649 -3.42107e-08 0)
(0.0249649 -2.49935e-09 0)
(0.0249649 1.48677e-08 0)
(0.0249648 2.29095e-08 0)
(0.0249647 2.59768e-08 0)
(0.0249647 2.71887e-08 0)
(0.0249646 2.59114e-08 0)
(0.0249645 2.3989e-08 0)
(0.0249645 2.18967e-08 0)
(0.0249644 1.86606e-08 0)
(0.0249644 1.45438e-08 0)
(0.0249644 1.05659e-08 0)
(0.0249644 6.45714e-09 0)
(0.0249644 5.30634e-10 0)
(0.0249644 -9.0853e-09 0)
(0.0249644 -2.39193e-08 0)
(0.0249645 -4.51646e-08 0)
(0.0249646 -6.89565e-08 0)
(0.0249647 -8.28406e-08 0)
(0.0249648 -6.95222e-08 0)
(0.0748952 -6.55529e-08 0)
(0.0748952 4.58963e-08 0)
(0.0748951 1.05303e-07 0)
(0.074895 1.30225e-07 0)
(0.0748949 1.32932e-07 0)
(0.0748948 1.26824e-07 0)
(0.0748947 1.15321e-07 0)
(0.0748946 1.01678e-07 0)
(0.0748945 8.71865e-08 0)
(0.0748944 7.12118e-08 0)
(0.0748944 5.37388e-08 0)
(0.0748943 3.50947e-08 0)
(0.0748943 1.39409e-08 0)
(0.0748943 -1.28508e-08 0)
(0.0748944 -4.88326e-08 0)
(0.0748945 -9.68952e-08 0)
(0.0748946 -1.56904e-07 0)
(0.0748948 -2.1575e-07 0)
(0.074895 -2.36835e-07 0)
(0.0748951 -1.7833e-07 0)
(0.124828 -9.76305e-08 0)
(0.124828 9.22585e-08 0)
(0.124828 2.07999e-07 0)
(0.124828 2.50788e-07 0)
(0.124828 2.56714e-07 0)
(0.124827 2.42585e-07 0)
(0.124827 2.18104e-07 0)
(0.124827 1.89733e-07 0)
(0.124827 1.59292e-07 0)
(0.124827 1.26142e-07 0)
(0.124827 8.98312e-08 0)
(0.124827 4.95818e-08 0)
(0.124827 2.97203e-09 0)
(0.124827 -5.37681e-08 0)
(0.124827 -1.24413e-07 0)
(0.124827 -2.10811e-07 0)
(0.124827 -3.07903e-07 0)
(0.124827 -3.91868e-07 0)
(0.124828 -4.05937e-07 0)
(0.124828 -2.97829e-07 0)
(0.174765 -1.21494e-07 0)
(0.174765 1.21507e-07 0)
(0.174765 2.7733e-07 0)
(0.174764 3.40714e-07 0)
(0.174764 3.50081e-07 0)
(0.174764 3.31397e-07 0)
(0.174764 2.98345e-07 0)
(0.174764 2.5821e-07 0)
(0.174764 2.14131e-07 0)
(0.174764 1.66427e-07 0)
(0.174764 1.13982e-07 0)
(0.174764 5.4807e-08 0)
(0.174764 -1.39492e-08 0)
(0.174764 -9.56239e-08 0)
(0.174764 -1.92918e-07 0)
(0.174764 -3.04835e-07 0)
(0.174764 -4.22134e-07 0)
(0.174764 -5.13318e-07 0)
(0.174764 -5.15518e-07 0)
(0.174764 -3.75536e-07 0)
(0.224707 -1.43112e-07 0)
(0.224707 1.27703e-07 0)
(0.224707 3.0638e-07 0)
(0.224707 3.86623e-07 0)
(0.224707 4.03635e-07 0)
(0.224707 3.86123e-07 0)
(0.224707 3.4992e-07 0)
(0.224707 3.03906e-07 0)
(0.224707 2.51912e-07 0)
(0.224707 1.94524e-07 0)
(0.224707 1.3089e-07 0)
(0.224707 5.92533e-08 0)
(0.224707 -2.30437e-08 0)
(0.224707 -1.18983e-07 0)
(0.224707 -2.3045e-07 0)
(0.224707 -3.54422e-07 0)
(0.224707 -4.78182e-07 0)
(0.224707 -5.69416e-07 0)
(0.224707 -5.65267e-07 0)
(0.224707 -4.13184e-07 0)
(0.274657 -1.65687e-07 0)
(0.274657 1.03671e-07 0)
(0.274657 2.90039e-07 0)
(0.274657 3.81952e-07 0)
(0.274657 4.0885e-07 0)
(0.274657 3.98211e-07 0)
(0.274657 3.65568e-07 0)
(0.274657 3.20168e-07 0)
(0.274657 2.6666e-07 0)
(0.274657 2.06504e-07 0)
(0.274657 1.39444e-07 0)
(0.274657 6.40181e-08 0)
(0.274657 -2.21225e-08 0)
(0.274657 -1.21292e-07 0)
(0.274657 -2.34312e-07 0)
(0.274657 -3.57714e-07 0)
(0.274657 -4.78065e-07 0)
(0.274657 -5.65302e-07 0)
(0.274657 -5.64354e-07 0)
(0.274657 -4.23072e-07 0)
(0.324615 -1.82722e-07 0)
(0.324615 6.02765e-08 0)
(0.324615 2.38804e-07 0)
(0.324615 3.34957e-07 0)
(0.324615 3.71006e-07 0)
(0.324615 3.69764e-07 0)
(0.324615 3.4516e-07 0)
(0.324616 3.06257e-07 0)
(0.324616 2.58124e-07 0)
(0.324616 2.02732e-07 0)
(0.324616 1.40232e-07 0)
(0.324616 6.9528e-08 0)
(0.324616 -1.1236e-08 0)
(0.324616 -1.03669e-07 0)
(0.324615 -2.07668e-07 0)
(0.324615 -3.19683e-07 0)
(0.324615 -4.28446e-07 0)
(0.324615 -5.08869e-07 0)
(0.324615 -5.16684e-07 0)
(0.324615 -4.03792e-07 0)
(0.374583 -1.89748e-07 0)
(0.374583 7.4272e-09 0)
(0.374583 1.63167e-07 0)
(0.374583 2.54924e-07 0)
(0.374583 2.96516e-07 0)
(0.374583 3.0492e-07 0)
(0.374583 2.9139e-07 0)
(0.374583 2.63866e-07 0)
(0.374584 2.27083e-07 0)
(0.374584 1.83042e-07 0)
(0.374584 1.32143e-07 0)
(0.374584 7.37321e-08 0)
(0.374584 6.61001e-09 0)
(0.374584 -7.01195e-08 0)
(0.374584 -1.56097e-07 0)
(0.374583 -2.48416e-07 0)
(0.374583 -3.38968e-07 0)
(0.374583 -4.09932e-07 0)
(0.374583 -4.29203e-07 0)
(0.374583 -3.56207e-07 0)
(0.424561 -1.83091e-07 0)
(0.424561 -4.66533e-08 0)
(0.424561 7.32104e-08 0)
(0.424561 1.51922e-07 0)
(0.424561 1.94504e-07 0)
(0.424562 2.11625e-07 0)
(0.424562 2.10878e-07 0)
(0.424562 1.98123e-07 0)
(0.424562 1.77055e-07 0)
(0.424562 1.49341e-07 0)
(0.424562 1.1552e-07 0)
(0.424562 7.53783e-08 0)
(0.424562 2.8357e-08 0)
(0.424562 -2.57576e-08 0)
(0.424562 -8.65984e-08 0)
(0.424562 -1.52684e-07 0)
(0.424562 -2.19809e-07 0)
(0.424561 -2.78581e-07 0)
(0.424561 -3.09809e-07 0)
(0.424561 -2.82816e-07 0)
(0.47455 -1.62085e-07 0)
(0.47455 -9.59054e-08 0)
(0.47455 -2.19722e-08 0)
(0.47455 3.63385e-08 0)
(0.47455 7.57104e-08 0)
(0.474551 1.00088e-07 0)
(0.474551 1.1267e-07 0)
(0.474551 1.16503e-07 0)
(0.474551 1.13723e-07 0)
(0.474551 1.05391e-07 0)
(0.474551 9.20964e-08 0)
(0.474551 7.40318e-08 0)
(0.474551 5.11994e-08 0)
(0.474551 2.3891e-08 0)
(0.474551 -7.63424e-09 0)
(0.474551 -4.35051e-08 0)
(0.474551 -8.36052e-08 0)
(0.474551 -1.27216e-07 0)
(0.47455 -1.68832e-07 0)
(0.47455 -1.88719e-07 0)
(0.52455 -1.29099e-07 0)
(0.52455 -1.37369e-07 0)
(0.52455 -1.15356e-07 0)
(0.52455 -8.24171e-08 0)
(0.524551 -4.93516e-08 0)
(0.524551 -1.92743e-08 0)
(0.524551 6.22355e-09 0)
(0.524551 2.69753e-08 0)
(0.524551 4.32368e-08 0)
(0.524551 5.52795e-08 0)
(0.524551 6.36439e-08 0)
(0.524551 6.88883e-08 0)
(0.524551 7.15599e-08 0)
(0.524551 7.23967e-08 0)
(0.524551 7.15446e-08 0)
(0.524551 6.74436e-08 0)
(0.524551 5.64059e-08 0)
(0.524551 3.0895e-08 0)
(0.524551 -1.77966e-08 0)
(0.52455 -8.17146e-08 0)
(0.574562 -8.79965e-08 0)
(0.574562 -1.69809e-07 0)
(0.574562 -2.00988e-07 0)
(0.574562 -1.95375e-07 0)
(0.574562 -1.70206e-07 0)
(0.574562 -1.35756e-07 0)
(0.574562 -9.8469e-08 0)
(0.574562 -6.18126e-08 0)
(0.574562 -2.74851e-08 0)
(0.574562 3.94032e-09 0)
(0.574562 3.2894e-08 0)
(0.574562 6.02584e-08 0)
(0.574562 8.7128e-08 0)
(0.574562 1.1472e-07 0)
(0.574562 1.43186e-07 0)
(0.574562 1.69913e-07 0)
(0.574562 1.88074e-07 0)
(0.574562 1.82833e-07 0)
(0.574562 1.31564e-07 0)
(0.574562 2.93141e-08 0)
(0.624584 -4.31713e-08 0)
(0.624584 -1.92484e-07 0)
(0.624584 -2.73212e-07 0)
(0.624584 -2.93557e-07 0)
(0.624584 -2.76145e-07 0)
(0.624584 -2.38178e-07 0)
(0.624584 -1.90711e-07 0)
(0.624584 -1.40306e-07 0)
(0.624584 -9.04629e-08 0)
(0.624584 -4.25042e-08 0)
(0.624584 3.88688e-09 0)
(0.624584 4.98752e-08 0)
(0.624584 9.70937e-08 0)
(0.624584 1.47317e-07 0)
(0.624584 2.00955e-07 0)
(0.624584 2.5492e-07 0)
(0.624584 3.00213e-07 0)
(0.624584 3.16063e-07 0)
(0.624584 2.67311e-07 0)
(0.624584 1.35151e-07 0)
(0.674616 2.53936e-10 0)
(0.674616 -2.0528e-07 0)
(0.674616 -3.27209e-07 0)
(0.674616 -3.68718e-07 0)
(0.674616 -3.57177e-07 0)
(0.674616 -3.16064e-07 0)
(0.674616 -2.60447e-07 0)
(0.674616 -1.99475e-07 0)
(0.674616 -1.38095e-07 0)
(0.674616 -7.81541e-08 0)
(0.674616 -1.93888e-08 0)
(0.674616 3.96162e-08 0)
(0.674616 1.01013e-07 0)
(0.674616 1.67234e-07 0)
(0.674616 2.39291e-07 0)
(0.674616 3.14338e-07 0)
(0.674616 3.82394e-07 0)
(0.674616 4.18401e-07 0)
(0.674616 3.77242e-07 0)
(0.674616 2.25927e-07 0)
(0.724658 3.6474e-08 0)
(0.724658 -2.08717e-07 0)
(0.724658 -3.59291e-07 0)
(0.724658 -4.13873e-07 0)
(0.724658 -4.04692e-07 0)
(0.724658 -3.60536e-07 0)
(0.724658 -2.99481e-07 0)
(0.724658 -2.32295e-07 0)
(0.724658 -1.64745e-07 0)
(0.724658 -9.88693e-08 0)
(0.724658 -3.43535e-08 0)
(0.724658 3.04497e-08 0)
(0.724658 9.81803e-08 0)
(0.724658 1.71988e-07 0)
(0.724658 2.5377e-07 0)
(0.724658 3.41565e-07 0)
(0.724658 4.25653e-07 0)
(0.724658 4.78815e-07 0)
(0.724658 4.4955e-07 0)
(0.724658 2.91287e-07 0)
(0.774708 5.98597e-08 0)
(0.774708 -2.02026e-07 0)
(0.774708 -3.64926e-07 0)
(0.774708 -4.2223e-07 0)
(0.774708 -4.11261e-07 0)
(0.774708 -3.64569e-07 0)
(0.774708 -3.01816e-07 0)
(0.774708 -2.34146e-07 0)
(0.774708 -1.67169e-07 0)
(0.774708 -1.02633e-07 0)
(0.774708 -3.99941e-08 0)
(0.774708 2.26076e-08 0)
(0.774708 8.81777e-08 0)
(0.774708 1.60438e-07 0)
(0.774708 2.42123e-07 0)
(0.774708 3.32491e-07 0)
(0.774708 4.23347e-07 0)
(0.774708 4.88426e-07 0)
(0.774708 4.73564e-07 0)
(0.774708 3.22115e-07 0)
(0.824765 6.58529e-08 0)
(0.824765 -1.82938e-07 0)
(0.824765 -3.37253e-07 0)
(0.824765 -3.86012e-07 0)
(0.824765 -3.7021e-07 0)
(0.824765 -3.23515e-07 0)
(0.824765 -2.64683e-07 0)
(0.824765 -2.0378e-07 0)
(0.824765 -1.45265e-07 0)
(0.824765 -9.00043e-08 0)
(0.824765 -3.6938e-08 0)
(0.824765 1.59356e-08 0)
(0.824765 7.14332e-08 0)
(0.824765 1.33036e-07 0)
(0.824765 2.03913e-07 0)
(0.824765 2.85135e-07 0)
(0.824765 3.71595e-07 0)
(0.824765 4.40975e-07 0)
(0.824765 4.3982e-07 0)
(0.824765 3.11257e-07 0)
(0.874828 5.61208e-08 0)
(0.874828 -1.47864e-07 0)
(0.874828 -2.69743e-07 0)
(0.874828 -3.00173e-07 0)
(0.874828 -2.79539e-07 0)
(0.874828 -2.38283e-07 0)
(0.874828 -1.91212e-07 0)
(0.874828 -1.4548e-07 0)
(0.874828 -1.03242e-07 0)
(0.874828 -6.38355e-08 0)
(0.874828 -2.59495e-08 0)
(0.874828 1.14263e-08 0)
(0.874828 5.00264e-08 0)
(0.874828 9.32373e-08 0)
(0.874828 1.44537e-07 0)
(0.874828 2.05356e-07 0)
(0.874828 2.73949e-07 0)
(0.874828 3.36383e-07 0)
(0.874828 3.47103e-07 0)
(0.874828 2.52863e-07 0)
(0.924896 3.36363e-08 0)
(0.924896 -8.93586e-08 0)
(0.924896 -1.57839e-07 0)
(0.924895 -1.68612e-07 0)
(0.924895 -1.49955e-07 0)
(0.924895 -1.23091e-07 0)
(0.924895 -9.59893e-08 0)
(0.924895 -7.19832e-08 0)
(0.924895 -5.11166e-08 0)
(0.924895 -3.1698e-08 0)
(0.924895 -1.24905e-08 0)
(0.924895 6.42959e-09 0)
(0.924895 2.53324e-08 0)
(0.924895 4.62598e-08 0)
(0.924895 7.17423e-08 0)
(0.924895 1.03698e-07 0)
(0.924895 1.43239e-07 0)
(0.924895 1.82991e-07 0)
(0.924895 1.98229e-07 0)
(0.924896 1.47987e-07 0)
(0.974965 6.56783e-09 0)
(0.974965 -3.13947e-08 0)
(0.974965 -4.92738e-08 0)
(0.974965 -4.85119e-08 0)
(0.974965 -4.00199e-08 0)
(0.974965 -3.08411e-08 0)
(0.974965 -2.31019e-08 0)
(0.974965 -1.73673e-08 0)
(0.974965 -1.28207e-08 0)
(0.974965 -8.12542e-09 0)
(0.974965 -2.92942e-09 0)
(0.974965 1.83242e-09 0)
(0.974965 5.75041e-09 0)
(0.974965 1.01669e-08 0)
(0.974965 1.64218e-08 0)
(0.974965 2.47443e-08 0)
(0.974965 3.61326e-08 0)
(0.974965 4.96462e-08 0)
(0.974965 5.69911e-08 0)
(0.974965 4.35387e-08 0)
)
;

boundaryField
{
    movingWall
    {
        type            fixedValue;
        value           uniform (1 0 0);
    }
    fixedWalls
    {
        type            noSlip;
    }
    left
    {
        type            cyclic;
    }
    right
    {
        type            cyclic;
    }
    frontAndBack
    {
        type            empty;
    }
}


// ************************************************************************* //
