/*--------------------------------*- C++ -*----------------------------------*\
  =========                 |
  \\      /  F ield         | OpenFOAM: The Open Source CFD Toolbox
   \\    /   O peration     | Website:  https://openfoam.org
    \\  /    A nd           | Version:  8
     \\/     M anipulation  |
\*---------------------------------------------------------------------------*/
FoamFile
{
    version     2.0;
    format      ascii;
    class       surfaceScalarField;
    location    "0.75";
    object      phi;
}
// * * * * * * * * * * * * * * * * * * * * * * * * * * * * * * * * * * * * * //

dimensions      [0 3 -1 0 0 0 0];

internalField   nonuniform List<scalar> 
760
(
1.2472e-06
3.2426e-12
1.24719e-06
6.87973e-12
1.24718e-06
7.77503e-12
1.24718e-06
6.80494e-12
1.24717e-06
5.35811e-12
1.24717e-06
3.93955e-12
1.24717e-06
2.70367e-12
1.24716e-06
1.68917e-12
1.24716e-06
8.17334e-13
1.24716e-06
-2.65546e-14
1.24716e-06
-8.48854e-13
1.24717e-06
-1.61733e-12
1.24717e-06
-2.38531e-12
1.24717e-06
-3.26871e-12
1.24718e-06
-4.32461e-12
1.24718e-06
-5.49158e-12
1.24719e-06
-6.59707e-12
1.24719e-06
-7.05496e-12
1.2472e-06
-5.72713e-12
-1.86802e-12
3.74164e-06
5.33175e-12
3.74163e-06
1.45072e-11
3.74162e-06
1.80729e-11
3.74161e-06
1.73297e-11
3.7416e-06
1.46994e-11
3.74159e-06
1.16209e-11
3.74159e-06
8.63979e-12
3.74158e-06
5.91848e-12
3.74158e-06
3.43892e-12
3.74158e-06
1.10716e-12
3.74158e-06
-1.15416e-12
3.74158e-06
-3.41319e-12
3.74159e-06
-5.78337e-12
3.74159e-06
-8.39805e-12
3.7416e-06
-1.13032e-11
3.74161e-06
-1.43398e-11
3.74162e-06
-1.70337e-11
3.74163e-06
-1.80494e-11
3.74164e-06
-1.49432e-11
-6.24798e-12
6.23627e-06
4.34636e-12
6.23626e-06
1.80496e-11
6.23626e-06
2.48386e-11
6.23625e-06
2.5589e-11
6.23624e-06
2.31199e-11
6.23623e-06
1.93042e-11
6.23623e-06
1.51007e-11
6.23622e-06
1.09796e-11
6.23622e-06
7.06948e-12
6.23622e-06
3.31508e-12
6.23622e-06
-3.7852e-13
6.23622e-06
-4.12054e-12
6.23622e-06
-8.0609e-12
6.23622e-06
-1.23424e-11
6.23623e-06
-1.69734e-11
6.23624e-06
-2.16988e-11
6.23624e-06
-2.57514e-11
6.23625e-06
-2.73339e-11
6.23626e-06
-2.33237e-11
-1.17291e-11
8.73123e-06
1.64645e-12
8.73123e-06
1.80797e-11
8.73123e-06
2.75732e-11
8.73122e-06
3.02095e-11
8.73122e-06
2.86414e-11
8.73121e-06
2.49372e-11
8.7312e-06
2.02884e-11
8.7312e-06
1.53678e-11
8.7312e-06
1.04832e-11
8.73119e-06
5.69509e-12
8.73119e-06
9.40074e-13
8.73119e-06
-3.90843e-12
8.73119e-06
-9.01686e-12
8.7312e-06
-1.45152e-11
8.7312e-06
-2.03535e-11
8.7312e-06
-2.61902e-11
8.73121e-06
-3.11169e-11
8.73122e-06
-3.31814e-11
8.73122e-06
-2.90632e-11
-1.65168e-11
1.12267e-05
-1.55513e-12
1.12267e-05
1.57813e-11
1.12267e-05
2.68431e-11
1.12267e-05
3.10886e-11
1.12267e-05
3.07111e-11
1.12266e-05
2.76597e-11
1.12266e-05
2.31916e-11
1.12266e-05
1.81143e-11
1.12266e-05
1.28668e-11
1.12266e-05
7.60334e-12
1.12266e-05
2.31394e-12
1.12266e-05
-3.10105e-12
1.12266e-05
-8.78543e-12
1.12266e-05
-1.48402e-11
1.12266e-05
-2.11942e-11
1.12266e-05
-2.74771e-11
1.12266e-05
-3.27754e-11
1.12266e-05
-3.51937e-11
1.12266e-05
-3.16055e-11
-1.96462e-11
1.37226e-05
-4.441e-12
1.37227e-05
1.20375e-11
1.37227e-05
2.34202e-11
1.37227e-05
2.8666e-11
1.37227e-05
2.93873e-11
1.37227e-05
2.72569e-11
1.37227e-05
2.3448e-11
1.37227e-05
1.87882e-11
1.37227e-05
1.37763e-11
1.37227e-05
8.63237e-12
1.37227e-05
3.40518e-12
1.37227e-05
-1.95928e-12
1.37227e-05
-7.56795e-12
1.37227e-05
-1.3488e-11
1.37227e-05
-1.9647e-11
1.37227e-05
-2.57077e-11
1.37226e-05
-3.08717e-11
1.37226e-05
-3.3506e-11
1.37226e-05
-3.09048e-11
-2.07244e-11
1.62193e-05
-6.52348e-12
1.62193e-05
7.6167e-12
1.62193e-05
1.80994e-11
1.62193e-05
2.36027e-11
1.62193e-05
2.51265e-11
1.62193e-05
2.39742e-11
1.62194e-05
2.11241e-11
1.62194e-05
1.73231e-11
1.62194e-05
1.30602e-11
1.62194e-05
8.58445e-12
1.62194e-05
3.99037e-12
1.62194e-05
-7.29175e-13
1.62193e-05
-5.63963e-12
1.62193e-05
-1.07817e-11
1.62193e-05
-1.61033e-11
1.62193e-05
-2.13561e-11
1.62193e-05
-2.5926e-11
1.62193e-05
-2.85807e-11
1.62193e-05
-2.72126e-11
-1.9649e-11
1.87168e-05
-7.51999e-12
1.87168e-05
3.11732e-12
1.87168e-05
1.16444e-11
1.87168e-05
1.66591e-11
1.87168e-05
1.85939e-11
1.87168e-05
1.83296e-11
1.87168e-05
1.65764e-11
1.87168e-05
1.39269e-11
1.87168e-05
1.0801e-11
1.87168e-05
7.43796e-12
1.87168e-05
3.95395e-12
1.87168e-05
3.76814e-13
1.87168e-05
-3.32032e-12
1.87168e-05
-7.15652e-12
1.87168e-05
-1.11117e-11
1.87168e-05
-1.5061e-11
1.87168e-05
-1.86349e-11
1.87168e-05
-2.10755e-11
1.87168e-05
-2.09965e-11
-1.65407e-11
2.1215e-05
-7.33731e-12
2.1215e-05
-1.02306e-12
2.1215e-05
4.73217e-12
2.1215e-05
8.60485e-12
2.1215e-05
1.05478e-11
2.12151e-05
1.09984e-11
2.12151e-05
1.03578e-11
2.12151e-05
9.01354e-12
2.12151e-05
7.27065e-12
2.12151e-05
5.32336e-12
2.12151e-05
3.28551e-12
2.12151e-05
1.20515e-12
2.12151e-05
-9.12363e-13
2.12151e-05
-3.06942e-12
2.12151e-05
-5.28377e-12
2.1215e-05
-7.5624e-12
2.1215e-05
-9.80938e-12
2.1215e-05
-1.17775e-11
2.1215e-05
-1.2869e-11
-1.16948e-11
2.37141e-05
-6.05503e-12
2.37141e-05
-4.52036e-12
2.37141e-05
-2.07341e-12
2.37142e-05
1.67527e-13
2.37142e-05
1.77093e-12
2.37142e-05
2.73717e-12
2.37142e-05
3.14172e-12
2.37142e-05
3.13738e-12
2.37142e-05
2.88244e-12
2.37142e-05
2.49911e-12
2.37142e-05
2.07877e-12
2.37142e-05
1.67698e-12
2.37142e-05
1.3257e-12
2.37142e-05
1.03956e-12
2.37142e-05
7.67434e-13
2.37142e-05
3.78746e-13
2.37142e-05
-3.01157e-13
2.37142e-05
-1.54158e-12
2.37141e-05
-3.55232e-12
-5.55935e-12
2.62141e-05
-3.89593e-12
2.62142e-05
-7.23047e-12
2.62142e-05
-8.32462e-12
2.62142e-05
-7.99389e-12
2.62142e-05
-6.97167e-12
2.62142e-05
-5.67123e-12
2.62142e-05
-4.33874e-12
2.62142e-05
-3.067e-12
2.62142e-05
-1.86089e-12
2.62142e-05
-6.86266e-13
2.62142e-05
5.12881e-13
2.62142e-05
1.79149e-12
2.62142e-05
3.20467e-12
2.62142e-05
4.78912e-12
2.62142e-05
6.47519e-12
2.62142e-05
8.03211e-12
2.62142e-05
9.04268e-12
2.62142e-05
8.74745e-12
2.62142e-05
6.14933e-12
1.29603e-12
2.8715e-05
-1.19211e-12
2.8715e-05
-9.12563e-12
2.8715e-05
-1.36768e-11
2.87151e-05
-1.52947e-11
2.87151e-05
-1.49554e-11
2.87151e-05
-1.34523e-11
2.87151e-05
-1.13331e-11
2.87151e-05
-8.92923e-12
2.87151e-05
-6.40855e-12
2.87151e-05
-3.82771e-12
2.87151e-05
-1.17058e-12
2.87151e-05
1.6156e-12
2.87151e-05
4.60773e-12
2.87151e-05
7.87207e-12
2.87151e-05
1.13419e-11
2.87151e-05
1.47228e-11
2.87151e-05
1.74064e-11
2.87151e-05
1.8203e-11
2.87151e-05
1.53859e-11
8.21098e-12
3.12168e-05
1.64647e-12
3.12168e-05
-1.02595e-11
3.12168e-05
-1.78633e-11
3.12168e-05
-2.12141e-11
3.12168e-05
-2.15029e-11
3.12168e-05
-1.98629e-11
3.12168e-05
-1.71097e-11
3.12168e-05
-1.37863e-11
3.12168e-05
-1.02062e-11
3.12168e-05
-6.50522e-12
3.12168e-05
-2.70032e-12
3.12168e-05
1.25962e-12
3.12168e-05
5.47714e-12
3.12168e-05
1.00537e-11
3.12168e-05
1.49489e-11
3.12168e-05
1.98512e-11
3.12168e-05
2.40325e-11
3.12168e-05
2.5969e-11
3.12168e-05
2.32998e-11
1.4472e-11
3.37194e-05
4.16549e-12
3.37194e-05
-1.07225e-11
3.37194e-05
-2.066e-11
3.37194e-05
-2.52767e-11
3.37194e-05
-2.59881e-11
3.37194e-05
-2.42185e-11
3.37194e-05
-2.1001e-11
3.37194e-05
-1.70394e-11
3.37194e-05
-1.27549e-11
3.37194e-05
-8.33651e-12
3.37194e-05
-3.82051e-12
3.37194e-05
8.48998e-13
3.37194e-05
5.79963e-12
3.37194e-05
1.11717e-11
3.37194e-05
1.6971e-11
3.37194e-05
2.29191e-11
3.37194e-05
2.82571e-11
3.37194e-05
3.12602e-11
3.37194e-05
2.9065e-11
1.93597e-11
3.62227e-05
5.91863e-12
3.62227e-05
-1.05918e-11
3.62227e-05
-2.18374e-11
3.62227e-05
-2.70356e-11
3.62227e-05
-2.78547e-11
3.62227e-05
-2.59401e-11
3.62227e-05
-2.24665e-11
3.62227e-05
-1.82241e-11
3.62227e-05
-1.3681e-11
3.62227e-05
-9.0398e-12
3.62227e-05
-4.33688e-12
3.62227e-05
4.9168e-13
3.62227e-05
5.5918e-12
3.62227e-05
1.1138e-11
3.62227e-05
1.71956e-11
3.62227e-05
2.35665e-11
3.62227e-05
2.95568e-11
3.62227e-05
3.34088e-11
3.62227e-05
3.1931e-11
2.22086e-11
3.87267e-05
6.553e-12
3.87267e-05
-9.8894e-12
3.87267e-05
-2.11222e-11
3.87267e-05
-2.60722e-11
3.87267e-05
-2.66497e-11
3.87267e-05
-2.46232e-11
3.87267e-05
-2.11835e-11
3.87267e-05
-1.71037e-11
3.87267e-05
-1.28185e-11
3.87267e-05
-8.49941e-12
3.87267e-05
-4.16648e-12
3.87267e-05
2.45223e-13
3.87267e-05
4.88367e-12
3.87267e-05
9.94599e-12
3.87267e-05
1.55576e-11
3.87267e-05
2.16285e-11
3.87267e-05
2.76197e-11
3.87267e-05
3.19346e-11
3.87267e-05
3.1285e-11
2.24744e-11
4.12313e-05
5.94661e-12
4.12313e-05
-8.50542e-12
4.12313e-05
-1.8194e-11
4.12313e-05
-2.20826e-11
4.12313e-05
-2.21665e-11
4.12313e-05
-2.01793e-11
4.12313e-05
-1.7167e-11
4.12313e-05
-1.37646e-11
4.12312e-05
-1.02839e-11
4.12312e-05
-6.81986e-12
4.12312e-05
-3.37308e-12
4.12312e-05
9.9013e-14
4.12312e-05
3.72227e-12
4.12313e-05
7.70512e-12
4.12313e-05
1.22117e-11
4.12313e-05
1.72306e-11
4.12313e-05
2.24371e-11
4.12313e-05
2.6634e-11
4.12313e-05
2.67933e-11
1.97564e-11
4.37363e-05
4.25427e-12
4.37363e-05
-6.14801e-12
4.37363e-05
-1.27659e-11
4.37363e-05
-1.50446e-11
4.37363e-05
-1.46765e-11
4.37363e-05
-1.30744e-11
4.37363e-05
-1.09567e-11
4.37363e-05
-8.72252e-12
4.37363e-05
-6.51885e-12
4.37363e-05
-4.34302e-12
4.37363e-05
-2.16921e-12
4.37363e-05
9.31848e-15
4.37363e-05
2.25492e-12
4.37363e-05
4.72386e-12
4.37363e-05
7.57358e-12
4.37363e-05
1.0878e-11
4.37363e-05
1.45348e-11
4.37363e-05
1.77862e-11
4.37363e-05
1.8493e-11
1.39115e-11
4.62417e-05
1.74183e-12
4.62417e-05
-2.78359e-12
4.62417e-05
-5.35738e-12
4.62416e-05
-6.05011e-12
4.62416e-05
-5.64232e-12
4.62416e-05
-4.86265e-12
4.62416e-05
-3.9939e-12
4.62416e-05
-3.17978e-12
4.62416e-05
-2.41847e-12
4.62416e-05
-1.63595e-12
4.62416e-05
-8.16426e-13
4.62416e-05
-2.12677e-14
4.62416e-05
7.55335e-13
4.62416e-05
1.63906e-12
4.62416e-05
2.70276e-12
4.62416e-05
3.94081e-12
4.62416e-05
5.42601e-12
4.62416e-05
6.96362e-12
4.62417e-05
7.67617e-12
5.91625e-12
4.87472e-05
4.87472e-05
4.87472e-05
4.87472e-05
4.87472e-05
4.87472e-05
4.87472e-05
4.87472e-05
4.87472e-05
4.87472e-05
4.87472e-05
4.87472e-05
4.87472e-05
4.87472e-05
4.87472e-05
4.87472e-05
4.87472e-05
4.87472e-05
4.87472e-05
)
;

boundaryField
{
    movingWall
    {
        type            calculated;
        value           uniform 0;
    }
    fixedWalls
    {
        type            calculated;
        value           uniform 0;
    }
    left
    {
        type            cyclic;
        value           nonuniform List<scalar> 
20
(
-3.87267e-05
-3.62227e-05
-3.37194e-05
-3.12168e-05
-2.8715e-05
-2.62141e-05
-2.37141e-05
-2.1215e-05
-1.87168e-05
-1.62193e-05
-1.37226e-05
-1.12266e-05
-8.73123e-06
-6.23627e-06
-3.74164e-06
-1.2472e-06
-4.12313e-05
-4.37363e-05
-4.62417e-05
-4.87472e-05
)
;
    }
    right
    {
        type            cyclic;
        value           nonuniform List<scalar> 
20
(
3.87267e-05
3.62227e-05
3.37194e-05
3.12168e-05
2.8715e-05
2.62141e-05
2.37141e-05
2.1215e-05
1.87168e-05
1.62193e-05
1.37226e-05
1.12266e-05
8.73123e-06
6.23627e-06
3.74164e-06
1.2472e-06
4.12313e-05
4.37363e-05
4.62417e-05
4.87472e-05
)
;
    }
    frontAndBack
    {
        type            empty;
        value           nonuniform List<scalar> 0();
    }
}


// ************************************************************************* //
