/*--------------------------------*- C++ -*----------------------------------*\
  =========                 |
  \\      /  F ield         | OpenFOAM: The Open Source CFD Toolbox
   \\    /   O peration     | Website:  https://openfoam.org
    \\  /    A nd           | Version:  8
     \\/     M anipulation  |
\*---------------------------------------------------------------------------*/
FoamFile
{
    version     2.0;
    format      ascii;
    class       surfaceScalarField;
    location    "1.95";
    object      phi;
}
// * * * * * * * * * * * * * * * * * * * * * * * * * * * * * * * * * * * * * //

dimensions      [0 3 -1 0 0 0 0];

internalField   nonuniform List<scalar> 
760
(
1.24972e-06
1.43116e-20
1.24972e-06
5.85179e-21
1.24972e-06
3.22573e-21
1.24972e-06
1.60377e-21
1.24972e-06
7.39544e-22
1.24972e-06
-6.18623e-23
1.24972e-06
-8.25157e-23
1.24972e-06
-2.31125e-22
1.24972e-06
-3.80966e-22
1.24972e-06
-2.3794e-22
1.24972e-06
-9.51098e-23
1.24972e-06
-1.74699e-22
1.24972e-06
-2.28625e-22
1.24972e-06
-4.17396e-22
1.24972e-06
-4.55468e-22
1.24972e-06
-3.54155e-22
1.24972e-06
2.42022e-22
1.24972e-06
1.38908e-21
1.24972e-06
3.37255e-21
6.0925e-21
3.74917e-06
9.94122e-21
3.74917e-06
7.62751e-21
3.74917e-06
4.7616e-21
3.74917e-06
2.45247e-21
3.74917e-06
2.47261e-22
3.74917e-06
-4.85762e-22
3.74917e-06
1.58507e-22
3.74917e-06
-1.02906e-22
3.74917e-06
-7.74906e-22
3.74917e-06
-2.27716e-22
3.74917e-06
-4.58334e-22
3.74917e-06
-9.3549e-22
3.74917e-06
-1.04011e-21
3.74917e-06
-5.70919e-22
3.74917e-06
-7.47625e-22
3.74917e-06
-7.34343e-22
3.74917e-06
6.4539e-22
3.74917e-06
1.87451e-21
3.74917e-06
4.61263e-21
7.72995e-21
6.24864e-06
9.25337e-21
6.24864e-06
7.59602e-21
6.24864e-06
4.88515e-21
6.24864e-06
2.95126e-21
6.24864e-06
1.05363e-21
6.24864e-06
2.26213e-22
6.24864e-06
-4.74902e-22
6.24864e-06
-1.43794e-21
6.24864e-06
-1.60387e-21
6.24864e-06
-1.8353e-21
6.24864e-06
3.13562e-23
6.24864e-06
-1.31067e-21
6.24864e-06
-2.1162e-21
6.24864e-06
-1.88437e-21
6.24864e-06
-1.06407e-21
6.24864e-06
-1.01346e-21
6.24864e-06
1.34115e-21
6.24864e-06
3.85633e-21
6.24864e-06
6.26261e-21
7.91563e-21
8.74815e-06
1.01471e-20
8.74815e-06
7.64671e-21
8.74815e-06
5.45405e-21
8.74815e-06
2.88905e-21
8.74815e-06
7.9521e-22
8.74815e-06
-1.26999e-22
8.74815e-06
-1.72622e-21
8.74815e-06
-1.30789e-21
8.74815e-06
-2.10425e-22
8.74815e-06
-9.48633e-22
8.74815e-06
-2.60434e-21
8.74815e-06
-3.06841e-21
8.74815e-06
-3.32817e-21
8.74815e-06
-3.68158e-21
8.74815e-06
-2.83511e-21
8.74815e-06
5.36096e-22
8.74815e-06
2.93929e-21
8.74815e-06
6.00487e-21
8.74815e-06
7.83583e-21
1.01094e-20
1.12477e-05
9.94858e-21
1.12477e-05
8.40385e-21
1.12477e-05
6.26938e-21
1.12477e-05
2.56702e-21
1.12477e-05
-2.43504e-23
1.12477e-05
-7.71994e-22
1.12477e-05
-2.19904e-21
1.12477e-05
-2.56246e-21
1.12477e-05
-2.22573e-21
1.12477e-05
-2.26133e-21
1.12477e-05
-2.27289e-21
1.12477e-05
-4.78327e-21
1.12477e-05
-5.06911e-21
1.12477e-05
-3.43599e-21
1.12477e-05
-1.32459e-21
1.12477e-05
1.66093e-21
1.12477e-05
5.13713e-21
1.12477e-05
7.53869e-21
1.12477e-05
9.84508e-21
1.13219e-20
1.37473e-05
8.70613e-21
1.37473e-05
8.95892e-21
1.37473e-05
7.06944e-21
1.37473e-05
3.13682e-21
1.37473e-05
9.59641e-22
1.37473e-05
-2.91981e-21
1.37473e-05
-3.80562e-21
1.37473e-05
-3.23408e-21
1.37473e-05
-2.1143e-21
1.37473e-05
-3.47293e-21
1.37473e-05
-5.18725e-21
1.37473e-05
-6.43782e-21
1.37473e-05
-4.56221e-21
1.37473e-05
-2.42436e-21
1.37473e-05
1.26978e-21
1.37473e-05
3.7956e-21
1.37473e-05
6.73563e-21
1.37473e-05
8.97781e-21
1.37473e-05
1.1138e-20
8.51989e-21
1.6247e-05
8.49551e-21
1.6247e-05
6.32438e-21
1.6247e-05
4.71424e-21
1.6247e-05
1.92229e-21
1.6247e-05
-8.87353e-22
1.6247e-05
-2.94872e-21
1.6247e-05
-3.06127e-21
1.6247e-05
-2.91438e-21
1.6247e-05
-2.52956e-21
1.6247e-05
-3.99673e-21
1.6247e-05
-5.55241e-21
1.6247e-05
-5.71023e-21
1.6247e-05
-6.2959e-21
1.6247e-05
-7.14911e-22
1.6247e-05
1.40671e-21
1.6247e-05
6.08158e-21
1.6247e-05
9.02904e-21
1.6247e-05
1.23175e-20
1.6247e-05
1.22313e-20
1.06965e-20
1.87467e-05
9.11561e-21
1.87467e-05
6.67233e-21
1.87467e-05
3.15815e-21
1.87467e-05
1.60334e-21
1.87467e-05
-2.06108e-21
1.87467e-05
-2.91751e-21
1.87467e-05
-4.12565e-21
1.87467e-05
-5.22432e-21
1.87467e-05
-6.80049e-21
1.87467e-05
-6.8185e-21
1.87467e-05
-8.59963e-21
1.87467e-05
-6.77177e-21
1.87467e-05
-2.62061e-21
1.87467e-05
4.4347e-22
1.87467e-05
7.63271e-21
1.87467e-05
8.23108e-21
1.87467e-05
9.23801e-21
1.87467e-05
1.16432e-20
1.87467e-05
1.19956e-20
1.24902e-20
2.12466e-05
1.35775e-20
2.12466e-05
7.13772e-21
2.12466e-05
3.20079e-21
2.12466e-05
-1.31377e-21
2.12466e-05
-3.72536e-21
2.12466e-05
-4.05026e-21
2.12466e-05
-3.47485e-21
2.12466e-05
-5.79447e-21
2.12466e-05
-7.99531e-21
2.12466e-05
-9.005e-21
2.12466e-05
-8.96205e-21
2.12466e-05
-5.2982e-21
2.12466e-05
-4.45717e-21
2.12466e-05
6.50778e-22
2.12466e-05
4.29924e-21
2.12466e-05
7.67308e-21
2.12466e-05
8.87056e-21
2.12466e-05
1.11239e-20
2.12466e-05
1.52031e-20
1.72716e-20
2.37465e-05
1.32076e-20
2.37465e-05
9.95964e-21
2.37465e-05
3.55231e-21
2.37465e-05
-1.86134e-21
2.37465e-05
-7.30172e-21
2.37465e-05
-6.88597e-21
2.37465e-05
-8.15501e-21
2.37465e-05
-8.36149e-21
2.37465e-05
-8.65508e-21
2.37465e-05
-8.87823e-21
2.37465e-05
-7.65989e-21
2.37465e-05
-5.92749e-21
2.37465e-05
-3.5546e-21
2.37465e-05
-1.07084e-21
2.37465e-05
3.46218e-21
2.37465e-05
7.13821e-21
2.37465e-05
8.84588e-21
2.37465e-05
1.12254e-20
2.37465e-05
1.68684e-20
1.53969e-20
2.62465e-05
1.43432e-20
2.62465e-05
9.39422e-21
2.62465e-05
5.06285e-21
2.62465e-05
-1.9233e-21
2.62465e-05
-3.95655e-21
2.62465e-05
-5.53929e-21
2.62465e-05
-8.90101e-21
2.62465e-05
-9.69275e-21
2.62465e-05
-1.32224e-20
2.62465e-05
-1.02549e-20
2.62465e-05
-7.63092e-21
2.62465e-05
-4.04289e-21
2.62465e-05
-2.15978e-21
2.62465e-05
-1.7293e-21
2.62465e-05
2.60903e-22
2.62465e-05
3.88859e-21
2.62465e-05
1.13671e-20
2.62465e-05
1.26735e-20
2.62465e-05
1.28895e-20
1.56629e-20
2.87466e-05
1.18376e-20
2.87466e-05
9.07185e-21
2.87466e-05
3.16255e-21
2.87466e-05
-2.42336e-21
2.87466e-05
-3.69355e-21
2.87466e-05
-8.68817e-21
2.87466e-05
-7.79593e-21
2.87466e-05
-7.5968e-21
2.87466e-05
-1.19653e-20
2.87466e-05
-1.48355e-20
2.87466e-05
-9.51036e-21
2.87466e-05
-1.69771e-21
2.87466e-05
3.59149e-21
2.87466e-05
4.52076e-21
2.87466e-05
2.77792e-21
2.87466e-05
1.61647e-21
2.87466e-05
6.40586e-21
2.87466e-05
1.43623e-20
2.87466e-05
1.24176e-20
9.40569e-21
3.12467e-05
7.76662e-21
3.12467e-05
6.36328e-21
3.12467e-05
8.21773e-22
3.12467e-05
-5.18726e-21
3.12467e-05
-5.89768e-21
3.12467e-05
-7.67313e-21
3.12467e-05
-1.08413e-20
3.12467e-05
-1.14739e-20
3.12467e-05
-1.14505e-20
3.12467e-05
-1.10311e-20
3.12467e-05
-6.9064e-21
3.12467e-05
1.11703e-21
3.12467e-05
6.79383e-21
3.12467e-05
8.28142e-21
3.12467e-05
9.45614e-21
3.12467e-05
1.12647e-20
3.12467e-05
5.9455e-21
3.12467e-05
3.53672e-21
3.12467e-05
4.35627e-21
5.48078e-21
3.3747e-05
-1.31448e-21
3.3747e-05
-2.12251e-22
3.3747e-05
-5.22722e-21
3.3747e-05
-4.08882e-21
3.3747e-05
-5.60138e-21
3.3747e-05
-6.34779e-21
3.3747e-05
-1.03054e-20
3.3747e-05
-9.56175e-21
3.3747e-05
-1.04113e-20
3.3747e-05
-5.72519e-21
3.3747e-05
-2.85629e-21
3.3747e-05
1.98639e-21
3.3747e-05
9.09548e-21
3.3747e-05
1.13919e-20
3.3747e-05
1.04036e-20
3.3747e-05
1.16675e-20
3.3747e-05
1.01866e-20
3.3747e-05
6.47655e-21
3.3747e-05
5.47275e-21
1.06918e-21
3.62473e-05
-1.21248e-21
3.62473e-05
4.2759e-22
3.62473e-05
-1.26233e-21
3.62473e-05
-5.59973e-21
3.62473e-05
-6.72829e-21
3.62473e-05
-7.84417e-21
3.62473e-05
-1.18454e-20
3.62473e-05
-1.66757e-20
3.62473e-05
-8.40977e-21
3.62473e-05
-1.2017e-21
3.62473e-05
3.1473e-21
3.62473e-05
4.57426e-21
3.62473e-05
1.16609e-20
3.62473e-05
1.23961e-20
3.62473e-05
1.11164e-20
3.62473e-05
1.12197e-20
3.62473e-05
9.72063e-21
3.62473e-05
7.60198e-21
3.62473e-05
5.92601e-21
2.55381e-21
3.87477e-05
7.40685e-22
3.87477e-05
-5.30439e-22
3.87477e-05
4.64132e-21
3.87477e-05
2.05997e-21
3.87477e-05
-1.99354e-21
3.87477e-05
-1.16685e-20
3.87477e-05
-1.54932e-20
3.87477e-05
-1.04473e-20
3.87477e-05
-4.85131e-21
3.87477e-05
-1.92457e-21
3.87477e-05
3.00493e-21
3.87477e-05
6.1869e-21
3.87477e-05
1.10552e-20
3.87477e-05
1.38127e-20
3.87477e-05
1.39365e-20
3.87477e-05
1.02872e-20
3.87477e-05
8.33258e-21
3.87477e-05
3.86916e-21
3.87477e-05
3.14972e-21
3.29128e-21
4.12481e-05
2.11689e-21
4.12481e-05
7.0474e-22
4.12481e-05
1.63852e-21
4.12481e-05
6.94764e-21
4.12481e-05
-1.26622e-21
4.12481e-05
-8.15702e-21
4.12481e-05
-9.1165e-21
4.12481e-05
-8.67684e-21
4.12481e-05
-3.61492e-21
4.12481e-05
-5.19337e-21
4.12481e-05
2.72026e-21
4.12481e-05
5.87222e-21
4.12481e-05
4.88739e-21
4.12481e-05
1.02015e-20
4.12481e-05
1.35793e-20
4.12481e-05
7.90196e-21
4.12481e-05
3.58193e-21
4.12481e-05
4.48687e-21
4.12481e-05
1.20922e-21
1.79825e-21
4.37486e-05
2.84815e-22
4.37486e-05
1.09609e-21
4.37486e-05
6.57986e-21
4.37486e-05
4.87839e-21
4.37486e-05
1.14981e-21
4.37486e-05
-4.98094e-21
4.37486e-05
-8.08986e-21
4.37486e-05
-1.02114e-20
4.37486e-05
-3.4275e-21
4.37486e-05
1.0619e-21
4.37486e-05
4.43594e-22
4.37486e-05
3.23326e-21
4.37486e-05
6.73321e-21
4.37486e-05
2.38463e-21
4.37486e-05
4.26854e-21
4.37486e-05
6.21389e-21
4.37486e-05
4.27568e-21
4.37486e-05
3.0552e-21
4.37486e-05
2.15461e-21
2.99298e-21
4.62492e-05
-2.47259e-21
4.62492e-05
-1.85561e-21
4.62492e-05
3.62565e-21
4.62492e-05
8.24196e-21
4.62492e-05
1.57337e-21
4.62492e-05
2.40185e-21
4.62492e-05
-2.70551e-21
4.62492e-05
-5.62247e-21
4.62492e-05
-2.61524e-21
4.62492e-05
2.30028e-21
4.62492e-05
1.0945e-21
4.62492e-05
3.06485e-22
4.62492e-05
-8.32915e-22
4.62492e-05
3.93587e-21
4.62492e-05
3.12951e-21
4.62492e-05
-1.5817e-21
4.62492e-05
7.28004e-22
4.62492e-05
2.74311e-21
4.62492e-05
1.14486e-21
-8.43037e-22
4.87497e-05
4.87497e-05
4.87497e-05
4.87497e-05
4.87497e-05
4.87497e-05
4.87497e-05
4.87497e-05
4.87497e-05
4.87497e-05
4.87497e-05
4.87497e-05
4.87497e-05
4.87497e-05
4.87497e-05
4.87497e-05
4.87497e-05
4.87497e-05
4.87497e-05
)
;

boundaryField
{
    movingWall
    {
        type            calculated;
        value           uniform 0;
    }
    fixedWalls
    {
        type            calculated;
        value           uniform 0;
    }
    left
    {
        type            cyclic;
        value           nonuniform List<scalar> 
20
(
-3.87477e-05
-3.62473e-05
-3.3747e-05
-3.12467e-05
-2.87466e-05
-2.62465e-05
-2.37465e-05
-2.12466e-05
-1.87467e-05
-1.6247e-05
-1.37473e-05
-1.12477e-05
-8.74815e-06
-6.24864e-06
-3.74917e-06
-1.24972e-06
-4.12481e-05
-4.37486e-05
-4.62492e-05
-4.87497e-05
)
;
    }
    right
    {
        type            cyclic;
        value           nonuniform List<scalar> 
20
(
3.87477e-05
3.62473e-05
3.3747e-05
3.12467e-05
2.87466e-05
2.62465e-05
2.37465e-05
2.12466e-05
1.87467e-05
1.6247e-05
1.37473e-05
1.12477e-05
8.74815e-06
6.24864e-06
3.74917e-06
1.24972e-06
4.12481e-05
4.37486e-05
4.62492e-05
4.87497e-05
)
;
    }
    frontAndBack
    {
        type            empty;
        value           nonuniform List<scalar> 0();
    }
}


// ************************************************************************* //
