/*--------------------------------*- C++ -*----------------------------------*\
  =========                 |
  \\      /  F ield         | OpenFOAM: The Open Source CFD Toolbox
   \\    /   O peration     | Website:  https://openfoam.org
    \\  /    A nd           | Version:  8
     \\/     M anipulation  |
\*---------------------------------------------------------------------------*/
FoamFile
{
    version     2.0;
    format      ascii;
    class       volVectorField;
    location    "1.95";
    object      U;
}
// * * * * * * * * * * * * * * * * * * * * * * * * * * * * * * * * * * * * * //

dimensions      [0 1 -1 0 0 0 0];

internalField   nonuniform List<vector> 
400
(
(0.0249944 1.23875e-16 0)
(0.0249944 5.4313e-17 0)
(0.0249944 3.67452e-17 0)
(0.0249944 1.93819e-17 0)
(0.0249944 9.28574e-18 0)
(0.0249944 1.14593e-18 0)
(0.0249944 -1.86158e-19 0)
(0.0249944 -2.18783e-18 0)
(0.0249944 -4.43452e-18 0)
(0.0249944 -2.86223e-18 0)
(0.0249944 -1.65108e-18 0)
(0.0249944 -2.3669e-18 0)
(0.0249944 -1.96907e-18 0)
(0.0249944 -4.2907e-18 0)
(0.0249944 -4.93935e-18 0)
(0.0249944 -2.22656e-18 0)
(0.0249944 3.87441e-18 0)
(0.0249944 1.63103e-17 0)
(0.0249944 3.54992e-17 0)
(0.0249944 5.4987e-17 0)
(0.0749834 2.55461e-16 0)
(0.0749834 1.33016e-16 0)
(0.0749834 8.11542e-17 0)
(0.0749834 4.16681e-17 0)
(0.0749834 9.9796e-18 0)
(0.0749834 -6.80592e-18 0)
(0.0749834 1.58972e-19 0)
(0.0749834 -3.67131e-18 0)
(0.0749834 -1.24143e-17 0)
(0.0749834 -5.36017e-18 0)
(0.0749834 -5.72031e-18 0)
(0.0749834 -9.06023e-18 0)
(0.0749834 -1.27506e-17 0)
(0.0749834 -9.48891e-18 0)
(0.0749834 -1.24047e-17 0)
(0.0749834 -1.25988e-17 0)
(0.0749834 7.2246e-18 0)
(0.0749834 3.15444e-17 0)
(0.0749834 7.79927e-17 0)
(0.0749834 1.35177e-16 0)
(0.124973 1.84185e-16 0)
(0.124973 1.5544e-16 0)
(0.124973 9.61451e-17 0)
(0.124973 5.32015e-17 0)
(0.124973 1.13595e-17 0)
(0.124973 -3.71239e-18 0)
(0.124973 -3.70842e-18 0)
(0.124973 -1.62958e-17 0)
(0.124973 -2.42525e-17 0)
(0.124973 -2.05892e-17 0)
(0.124973 -2.92231e-18 0)
(0.124973 -2.21484e-17 0)
(0.124973 -2.98313e-17 0)
(0.124973 -2.54236e-17 0)
(0.124973 -2.02379e-17 0)
(0.124973 -2.09091e-17 0)
(0.124973 1.65383e-17 0)
(0.124973 5.29914e-17 0)
(0.124973 1.06489e-16 0)
(0.124973 1.55784e-16 0)
(0.174963 2.00682e-16 0)
(0.174963 1.53846e-16 0)
(0.174963 1.04478e-16 0)
(0.174963 5.83131e-17 0)
(0.174963 1.86434e-17 0)
(0.174963 1.55595e-18 0)
(0.174963 -2.07568e-17 0)
(0.174963 -2.59792e-17 0)
(0.174963 -1.8188e-17 0)
(0.174963 -2.65385e-17 0)
(0.174963 -2.47683e-17 0)
(0.174963 -4.35464e-17 0)
(0.174963 -5.43956e-17 0)
(0.174963 -5.7018e-17 0)
(0.174963 -4.15766e-17 0)
(0.174963 -7.00558e-18 0)
(0.174963 4.00637e-17 0)
(0.174963 9.62766e-17 0)
(0.174963 1.39225e-16 0)
(0.174963 1.83254e-16 0)
(0.224954 2.04058e-16 0)
(0.224954 1.61004e-16 0)
(0.224954 1.16519e-16 0)
(0.224954 5.44382e-17 0)
(0.224954 7.55637e-18 0)
(0.224954 -6.80583e-18 0)
(0.224954 -3.78713e-17 0)
(0.224954 -3.80267e-17 0)
(0.224954 -2.22113e-17 0)
(0.224954 -3.21769e-17 0)
(0.224954 -4.89977e-17 0)
(0.224954 -7.92003e-17 0)
(0.224954 -8.91645e-17 0)
(0.224954 -7.41697e-17 0)
(0.224954 -4.33945e-17 0)
(0.224954 1.96063e-17 0)
(0.224954 7.67233e-17 0)
(0.224954 1.34897e-16 0)
(0.224954 1.76982e-16 0)
(0.224954 2.16568e-16 0)
(0.274946 1.88229e-16 0)
(0.274946 1.77368e-16 0)
(0.274946 1.33618e-16 0)
(0.274946 5.76604e-17 0)
(0.274946 1.2551e-17 0)
(0.274946 -3.70151e-17 0)
(0.274946 -6.00972e-17 0)
(0.274946 -5.65459e-17 0)
(0.274946 -4.13666e-17 0)
(0.274946 -5.51244e-17 0)
(0.274946 -7.47336e-17 0)
(0.274946 -1.16087e-16 0)
(0.274946 -9.83889e-17 0)
(0.274946 -6.3438e-17 0)
(0.274946 -5.14511e-18 0)
(0.274946 5.02433e-17 0)
(0.274946 1.19727e-16 0)
(0.274946 1.62821e-16 0)
(0.274946 2.12707e-16 0)
(0.274946 1.9968e-16 0)
(0.32494 1.71677e-16 0)
(0.32494 1.5086e-16 0)
(0.32494 1.21475e-16 0)
(0.32494 5.53467e-17 0)
(0.32494 2.70647e-18 0)
(0.32494 -5.77228e-17 0)
(0.32494 -6.90697e-17 0)
(0.32494 -6.17702e-17 0)
(0.32494 -4.52681e-17 0)
(0.32494 -7.29728e-17 0)
(0.32494 -1.06025e-16 0)
(0.32494 -1.2281e-16 0)
(0.32494 -1.11843e-16 0)
(0.32494 -3.40368e-17 0)
(0.32494 2.20642e-17 0)
(0.32494 9.77289e-17 0)
(0.32494 1.56328e-16 0)
(0.32494 2.15506e-16 0)
(0.32494 2.33544e-16 0)
(0.32494 1.90594e-16 0)
(0.374934 1.70038e-16 0)
(0.374934 1.26241e-16 0)
(0.374934 7.71354e-17 0)
(0.374934 3.61484e-17 0)
(0.374934 -2.71723e-17 0)
(0.374934 -5.56729e-17 0)
(0.374934 -6.94139e-17 0)
(0.374934 -8.05196e-17 0)
(0.374934 -9.26043e-17 0)
(0.374934 -1.064e-16 0)
(0.374934 -1.43065e-16 0)
(0.374934 -1.22736e-16 0)
(0.374934 -8.87977e-17 0)
(0.374934 -9.08364e-19 0)
(0.374934 9.31425e-17 0)
(0.374934 1.44578e-16 0)
(0.374934 1.82285e-16 0)
(0.374934 2.45021e-16 0)
(0.374934 2.40644e-16 0)
(0.374934 2.3051e-16 0)
(0.424931 2.22492e-16 0)
(0.424931 1.35073e-16 0)
(0.424931 5.93904e-17 0)
(0.424931 -3.96183e-18 0)
(0.424931 -5.91588e-17 0)
(0.424931 -6.95566e-17 0)
(0.424931 -7.56035e-17 0)
(0.424931 -1.07054e-16 0)
(0.424931 -1.45781e-16 0)
(0.424931 -1.58459e-16 0)
(0.424931 -1.75994e-16 0)
(0.424931 -1.21454e-16 0)
(0.424931 -6.7803e-17 0)
(0.424931 1.30447e-17 0)
(0.424931 1.27157e-16 0)
(0.424931 1.62431e-16 0)
(0.424931 1.89032e-16 0)
(0.424931 2.23844e-16 0)
(0.424931 2.73473e-16 0)
(0.424931 2.94869e-16 0)
(0.474929 2.70905e-16 0)
(0.474929 1.6799e-16 0)
(0.474929 6.36445e-17 0)
(0.474929 -3.25411e-17 0)
(0.474929 -1.19206e-16 0)
(0.474929 -1.15859e-16 0)
(0.474929 -1.18432e-16 0)
(0.474929 -1.44682e-16 0)
(0.474929 -1.67199e-16 0)
(0.474929 -1.81148e-16 0)
(0.474929 -1.65244e-16 0)
(0.474929 -1.19117e-16 0)
(0.474929 -8.43338e-17 0)
(0.474929 -3.50159e-18 0)
(0.474929 7.87764e-17 0)
(0.474929 1.56996e-16 0)
(0.474929 1.78643e-16 0)
(0.474929 2.26113e-16 0)
(0.474929 3.23446e-16 0)
(0.474929 3.30127e-16 0)
(0.524929 2.8388e-16 0)
(0.524929 2.0264e-16 0)
(0.524929 8.86442e-17 0)
(0.524929 -3.8465e-17 0)
(0.524929 -1.14259e-16 0)
(0.524929 -1.30447e-16 0)
(0.524929 -1.78178e-16 0)
(0.524929 -1.85862e-16 0)
(0.524929 -2.27757e-16 0)
(0.524929 -1.95675e-16 0)
(0.524929 -1.61968e-16 0)
(0.524929 -1.01451e-16 0)
(0.524929 -7.1718e-17 0)
(0.524929 -3.82442e-17 0)
(0.524929 3.09803e-17 0)
(0.524929 1.10838e-16 0)
(0.524929 2.06895e-16 0)
(0.524929 2.5002e-16 0)
(0.524929 3.0784e-16 0)
(0.524929 3.18894e-16 0)
(0.574931 2.73336e-16 0)
(0.574931 1.91948e-16 0)
(0.574931 9.52351e-17 0)
(0.574931 -3.96908e-17 0)
(0.574931 -7.42097e-17 0)
(0.574931 -1.43054e-16 0)
(0.574931 -1.71945e-16 0)
(0.574931 -1.78892e-16 0)
(0.574931 -2.59322e-16 0)
(0.574931 -2.63832e-16 0)
(0.574931 -1.82036e-16 0)
(0.574931 -6.93543e-17 0)
(0.574931 1.34728e-17 0)
(0.574931 1.62489e-17 0)
(0.574931 1.83452e-17 0)
(0.574931 4.24044e-17 0)
(0.574931 1.77797e-16 0)
(0.574931 2.76077e-16 0)
(0.574931 2.60107e-16 0)
(0.574931 2.63234e-16 0)
(0.624935 1.99812e-16 0)
(0.624935 1.62664e-16 0)
(0.624935 4.18712e-17 0)
(0.624935 -7.10691e-17 0)
(0.624935 -9.30482e-17 0)
(0.624935 -1.59573e-16 0)
(0.624935 -1.77921e-16 0)
(0.624935 -1.91017e-16 0)
(0.624935 -2.35749e-16 0)
(0.624935 -2.68567e-16 0)
(0.624935 -1.70146e-16 0)
(0.624935 -7.2605e-18 0)
(0.624935 1.06863e-16 0)
(0.624935 1.3014e-16 0)
(0.624935 1.18755e-16 0)
(0.624935 1.21119e-16 0)
(0.624935 1.14891e-16 0)
(0.624935 1.70111e-16 0)
(0.624935 1.6677e-16 0)
(0.624935 1.50631e-16 0)
(0.67494 6.26945e-17 0)
(0.67494 6.081e-17 0)
(0.67494 -4.82271e-17 0)
(0.67494 -1.00053e-16 0)
(0.67494 -1.15607e-16 0)
(0.67494 -1.31427e-16 0)
(0.67494 -2.0477e-16 0)
(0.67494 -1.96537e-16 0)
(0.67494 -2.16236e-16 0)
(0.67494 -1.60511e-16 0)
(0.67494 -9.54812e-17 0)
(0.67494 3.92597e-17 0)
(0.67494 1.62203e-16 0)
(0.67494 2.11651e-16 0)
(0.67494 2.08576e-16 0)
(0.67494 2.34276e-16 0)
(0.67494 1.58255e-16 0)
(0.67494 9.75472e-17 0)
(0.67494 9.13818e-17 0)
(0.67494 5.51196e-17 0)
(0.724946 -3.08231e-17 0)
(0.724946 -5.45346e-18 0)
(0.724946 -7.69992e-17 0)
(0.724946 -1.03923e-16 0)
(0.724946 -1.3046e-16 0)
(0.724946 -1.47548e-16 0)
(0.724946 -2.20553e-16 0)
(0.724946 -2.64113e-16 0)
(0.724946 -1.81587e-16 0)
(0.724946 -5.96625e-17 0)
(0.724946 1.21752e-17 0)
(0.724946 6.99831e-17 0)
(0.724946 2.21656e-16 0)
(0.724946 2.45991e-16 0)
(0.724946 2.26406e-16 0)
(0.724946 2.42397e-16 0)
(0.724946 2.05004e-16 0)
(0.724946 1.43663e-16 0)
(0.724946 1.12347e-16 0)
(0.724946 3.77745e-17 0)
(0.774954 -7.04061e-18 0)
(0.774954 -6.18268e-18 0)
(0.774954 3.39331e-17 0)
(0.774954 -4.39089e-17 0)
(0.774954 -9.04644e-17 0)
(0.774954 -2.06961e-16 0)
(0.774954 -2.83995e-16 0)
(0.774954 -2.8487e-16 0)
(0.774954 -1.35978e-16 0)
(0.774954 -3.20529e-17 0)
(0.774954 7.20974e-17 0)
(0.774954 1.19362e-16 0)
(0.774954 2.29844e-16 0)
(0.774954 2.67753e-16 0)
(0.774954 2.64239e-16 0)
(0.774954 2.23033e-16 0)
(0.774954 1.95058e-16 0)
(0.774954 1.117e-16 0)
(0.774954 9.0296e-17 0)
(0.774954 5.97191e-17 0)
(0.824963 2.66908e-17 0)
(0.824963 3.05142e-19 0)
(0.824963 6.69198e-17 0)
(0.824963 9.75003e-17 0)
(0.824963 -3.6815e-17 0)
(0.824963 -1.96232e-16 0)
(0.824963 -2.60048e-16 0)
(0.824963 -1.94358e-16 0)
(0.824963 -9.44664e-17 0)
(0.824963 -7.22767e-17 0)
(0.824963 5.6004e-17 0)
(0.824963 1.21357e-16 0)
(0.824963 1.6934e-16 0)
(0.824963 2.49468e-16 0)
(0.824963 2.76671e-16 0)
(0.824963 1.88702e-16 0)
(0.824963 1.18799e-16 0)
(0.824963 9.13361e-17 0)
(0.824963 4.16566e-17 0)
(0.824963 3.91136e-17 0)
(0.874973 1.7216e-17 0)
(0.874973 1.94047e-17 0)
(0.874973 8.02679e-17 0)
(0.874973 1.28699e-16 0)
(0.874973 6.89003e-18 0)
(0.874973 -1.34334e-16 0)
(0.874973 -1.72069e-16 0)
(0.874973 -1.95088e-16 0)
(0.874973 -6.85124e-17 0)
(0.874973 -4.60323e-17 0)
(0.874973 2.67786e-17 0)
(0.874973 9.22571e-17 0)
(0.874973 1.15374e-16 0)
(0.874973 1.23998e-16 0)
(0.874973 1.77247e-16 0)
(0.874973 1.39863e-16 0)
(0.874973 7.34232e-17 0)
(0.874973 7.3374e-17 0)
(0.874973 3.29672e-17 0)
(0.874973 4.71889e-17 0)
(0.924983 -2.32026e-17 0)
(0.924983 -1.29122e-17 0)
(0.924983 1.13104e-16 0)
(0.924983 1.40807e-16 0)
(0.924983 3.68954e-17 0)
(0.924983 -2.38152e-17 0)
(0.924983 -1.08408e-16 0)
(0.924983 -1.64017e-16 0)
(0.924983 -6.50742e-17 0)
(0.924983 4.04934e-17 0)
(0.924983 2.00884e-17 0)
(0.924983 3.31614e-17 0)
(0.924983 5.11496e-17 0)
(0.924983 6.10263e-17 0)
(0.924983 6.97054e-17 0)
(0.924983 3.09744e-17 0)
(0.924983 4.83593e-17 0)
(0.924983 5.52271e-17 0)
(0.924983 3.36178e-17 0)
(0.924983 2.64657e-17 0)
(0.974994 -1.86967e-17 0)
(0.974994 -1.32991e-17 0)
(0.974994 3.53006e-17 0)
(0.974994 8.41977e-17 0)
(0.974994 1.50473e-17 0)
(0.974994 2.45753e-17 0)
(0.974994 -3.69046e-17 0)
(0.974994 -6.09719e-17 0)
(0.974994 -2.41193e-17 0)
(0.974994 2.87273e-17 0)
(0.974994 1.64437e-17 0)
(0.974994 1.00584e-18 0)
(0.974994 -9.80707e-18 0)
(0.974994 3.33012e-17 0)
(0.974994 2.88565e-17 0)
(0.974994 -1.23132e-17 0)
(0.974994 -1.44009e-18 0)
(0.974994 2.58755e-17 0)
(0.974994 1.82468e-17 0)
(0.974994 -6.06553e-18 0)
)
;

boundaryField
{
    movingWall
    {
        type            fixedValue;
        value           uniform (1 0 0);
    }
    fixedWalls
    {
        type            noSlip;
    }
    left
    {
        type            cyclic;
    }
    right
    {
        type            cyclic;
    }
    frontAndBack
    {
        type            empty;
    }
}


// ************************************************************************* //
