/*--------------------------------*- C++ -*----------------------------------*\
  =========                 |
  \\      /  F ield         | OpenFOAM: The Open Source CFD Toolbox
   \\    /   O peration     | Website:  https://openfoam.org
    \\  /    A nd           | Version:  8
     \\/     M anipulation  |
\*---------------------------------------------------------------------------*/
FoamFile
{
    version     2.0;
    format      ascii;
    class       volVectorField;
    location    "52.5";
    object      U;
}
// * * * * * * * * * * * * * * * * * * * * * * * * * * * * * * * * * * * * * //

dimensions      [0 1 -1 0 0 0 0];

internalField   nonuniform List<vector> 
11600
(
(2.31088e-07 -4.46191e-07 0)
(-3.99696e-05 1.4277e-05 0)
(-0.000119427 2.08148e-05 0)
(-0.000203714 2.30474e-05 0)
(-0.000294555 2.33187e-05 0)
(-0.000385728 2.30746e-05 0)
(-0.000476885 2.2862e-05 0)
(-0.000567995 2.27603e-05 0)
(-0.000659121 2.27409e-05 0)
(-0.000750348 2.27698e-05 0)
(-0.000841739 2.28256e-05 0)
(-0.000933337 2.28972e-05 0)
(-0.00102517 2.29794e-05 0)
(-0.00111726 2.30698e-05 0)
(-0.00120963 2.31669e-05 0)
(-0.00130229 2.32697e-05 0)
(-0.00139526 2.33776e-05 0)
(-0.00148855 2.34899e-05 0)
(-0.00158216 2.36059e-05 0)
(-0.0016761 2.37248e-05 0)
(-0.00177037 2.3846e-05 0)
(-0.00186498 2.39686e-05 0)
(-0.00195992 2.40919e-05 0)
(-0.00205518 2.4215e-05 0)
(-0.00215075 2.43369e-05 0)
(-0.00224663 2.44568e-05 0)
(-0.00234279 2.45735e-05 0)
(-0.00243922 2.46861e-05 0)
(-0.00253588 2.47933e-05 0)
(-0.00263276 2.48941e-05 0)
(-0.00272982 2.4987e-05 0)
(-0.00282703 2.50708e-05 0)
(-0.00292433 2.51441e-05 0)
(-0.0030217 2.52052e-05 0)
(-0.00311907 2.52525e-05 0)
(-0.0032164 2.52843e-05 0)
(-0.00331362 2.52985e-05 0)
(-0.00341068 2.52928e-05 0)
(-0.00350751 2.52646e-05 0)
(-0.00360404 2.52106e-05 0)
(-0.00370018 2.51269e-05 0)
(-0.00379588 2.50082e-05 0)
(-0.00389104 2.48474e-05 0)
(-0.00398557 2.46345e-05 0)
(-0.00407936 2.43541e-05 0)
(-0.00417231 2.3982e-05 0)
(-0.00426424 2.3477e-05 0)
(-0.00435495 2.27655e-05 0)
(-0.00444408 2.17077e-05 0)
(-0.00453105 2.00276e-05 0)
(-0.00461479 1.71704e-05 0)
(-0.00469338 1.20635e-05 0)
(-0.00476332 2.79126e-06 0)
(-0.00481862 -1.39043e-05 0)
(-0.00485711 -4.28838e-05 0)
(-0.00488939 -7.99967e-05 0)
(-0.00482545 -8.18041e-05 0)
(-0.00522244 -1.97736e-05 0)
(-0.00516284 0.000882968 0)
(-0.00862034 0.00305383 0)
(-1.52882e-05 4.02151e-05 0)
(-0.000112489 0.000110031 0)
(-0.000275891 0.00014307 0)
(-0.000449612 0.000156802 0)
(-0.000635884 0.00016124 0)
(-0.000824584 0.000162285 0)
(-0.00101421 0.000162452 0)
(-0.00120427 0.000162525 0)
(-0.00139459 0.000162683 0)
(-0.00158518 0.000162936 0)
(-0.00177607 0.000163261 0)
(-0.00196731 0.000163641 0)
(-0.00215892 0.000164062 0)
(-0.00235094 0.000164518 0)
(-0.0025434 0.000165001 0)
(-0.0027363 0.000165508 0)
(-0.00292968 0.000166033 0)
(-0.00312352 0.000166573 0)
(-0.00331785 0.000167124 0)
(-0.00351267 0.000167679 0)
(-0.00370796 0.000168235 0)
(-0.00390371 0.000168787 0)
(-0.00409992 0.000169328 0)
(-0.00429655 0.000169854 0)
(-0.00449359 0.000170359 0)
(-0.00469098 0.000170835 0)
(-0.0048887 0.000171278 0)
(-0.00508669 0.000171679 0)
(-0.00528489 0.000172032 0)
(-0.00548324 0.000172331 0)
(-0.00568168 0.000172567 0)
(-0.00588011 0.000172733 0)
(-0.00607845 0.000172823 0)
(-0.00627661 0.000172829 0)
(-0.0064745 0.000172743 0)
(-0.006672 0.00017256 0)
(-0.00686901 0.000172272 0)
(-0.00706542 0.000171874 0)
(-0.00726112 0.00017136 0)
(-0.00745599 0.000170725 0)
(-0.00764994 0.000169966 0)
(-0.00784286 0.000169078 0)
(-0.00803467 0.000168056 0)
(-0.00822531 0.000166892 0)
(-0.00841474 0.000165574 0)
(-0.00860296 0.000164075 0)
(-0.00879 0.000162341 0)
(-0.00897595 0.000160268 0)
(-0.00916097 0.000157641 0)
(-0.00934531 0.000154049 0)
(-0.00952945 0.000148737 0)
(-0.0097143 0.000140516 0)
(-0.00990223 0.000128024 0)
(-0.0101 0.000111077 0)
(-0.0103244 9.57746e-05 0)
(-0.0106035 0.000115869 0)
(-0.0109858 0.000267743 0)
(-0.0117628 0.000655471 0)
(-0.0124745 0.00206138 0)
(-0.0144131 0.00392755 0)
(-2.29529e-05 0.000122739 0)
(-0.00014984 0.000275039 0)
(-0.000356899 0.000348002 0)
(-0.000575665 0.000379488 0)
(-0.000809202 0.000391117 0)
(-0.00104582 0.000394878 0)
(-0.00128367 0.000396056 0)
(-0.00152213 0.000396591 0)
(-0.00176093 0.000397082 0)
(-0.00200002 0.000397667 0)
(-0.00223943 0.000398356 0)
(-0.00247918 0.000399134 0)
(-0.00271929 0.000399986 0)
(-0.0029598 0.000400899 0)
(-0.00320071 0.000401861 0)
(-0.00344204 0.000402862 0)
(-0.00368379 0.000403892 0)
(-0.00392597 0.000404942 0)
(-0.00416858 0.000406 0)
(-0.00441161 0.000407057 0)
(-0.00465504 0.000408101 0)
(-0.00489885 0.000409119 0)
(-0.005143 0.0004101 0)
(-0.00538748 0.00041103 0)
(-0.00563223 0.000411895 0)
(-0.0058772 0.000412682 0)
(-0.00612233 0.000413375 0)
(-0.00636755 0.000413959 0)
(-0.0066128 0.000414419 0)
(-0.00685799 0.000414739 0)
(-0.00710302 0.000414903 0)
(-0.00734779 0.000414896 0)
(-0.00759221 0.000414703 0)
(-0.00783615 0.00041431 0)
(-0.00807949 0.000413704 0)
(-0.00832212 0.000412875 0)
(-0.00856392 0.000411813 0)
(-0.00880475 0.000410515 0)
(-0.0090445 0.000408978 0)
(-0.00928306 0.000407206 0)
(-0.00952034 0.00040521 0)
(-0.00975627 0.000403007 0)
(-0.00999081 0.000400624 0)
(-0.010224 0.000398096 0)
(-0.0104559 0.00039547 0)
(-0.0106866 0.000392799 0)
(-0.0109165 0.00039014 0)
(-0.0111461 0.000387548 0)
(-0.0113761 0.000385062 0)
(-0.0116076 0.000382725 0)
(-0.0118426 0.000380715 0)
(-0.0120843 0.000379846 0)
(-0.0123386 0.000383046 0)
(-0.0126165 0.000399253 0)
(-0.0129368 0.000452573 0)
(-0.0133246 0.0005989 0)
(-0.0138188 0.00094108 0)
(-0.014491 0.00163892 0)
(-0.0150017 0.00306281 0)
(-0.0158002 0.00486713 0)
(-2.60682e-05 0.000212814 0)
(-0.000167098 0.000454176 0)
(-0.000395162 0.000568772 0)
(-0.000634624 0.000617866 0)
(-0.00088959 0.000636411 0)
(-0.00114767 0.000642744 0)
(-0.00140705 0.000644895 0)
(-0.00166709 0.000645888 0)
(-0.00192751 0.000646695 0)
(-0.00218823 0.000647573 0)
(-0.00244925 0.000648567 0)
(-0.00271059 0.000649668 0)
(-0.00297225 0.00065086 0)
(-0.00323425 0.000652126 0)
(-0.00349661 0.000653452 0)
(-0.00375931 0.000654822 0)
(-0.00402237 0.000656221 0)
(-0.00428577 0.000657635 0)
(-0.00454952 0.000659046 0)
(-0.00481359 0.000660439 0)
(-0.00507796 0.000661795 0)
(-0.0053426 0.000663096 0)
(-0.00560747 0.000664322 0)
(-0.00587253 0.000665453 0)
(-0.00613773 0.000666467 0)
(-0.006403 0.000667342 0)
(-0.00666829 0.000668055 0)
(-0.00693351 0.000668583 0)
(-0.00719857 0.000668902 0)
(-0.00746338 0.000668988 0)
(-0.00772785 0.000668818 0)
(-0.00799186 0.000668369 0)
(-0.00825529 0.00066762 0)
(-0.00851802 0.000666551 0)
(-0.00877992 0.000665147 0)
(-0.00904087 0.000663395 0)
(-0.00930073 0.000661287 0)
(-0.00955937 0.000658823 0)
(-0.00981668 0.000656013 0)
(-0.0100725 0.000652877 0)
(-0.0103269 0.000649449 0)
(-0.0105796 0.000645785 0)
(-0.0108308 0.000641961 0)
(-0.0110805 0.000638088 0)
(-0.0113287 0.000634311 0)
(-0.0115759 0.000630828 0)
(-0.0118225 0.000627903 0)
(-0.0120692 0.000625894 0)
(-0.0123171 0.000625306 0)
(-0.0125682 0.000626926 0)
(-0.0128251 0.00063214 0)
(-0.0130924 0.000643714 0)
(-0.0133767 0.000667547 0)
(-0.013688 0.000716454 0)
(-0.0140384 0.000817161 0)
(-0.0144379 0.00101902 0)
(-0.0148871 0.00139868 0)
(-0.0153418 0.00206383 0)
(-0.0155978 0.00315672 0)
(-0.0156664 0.00439975 0)
(-2.68329e-05 0.000311084 0)
(-0.00017364 0.000648144 0)
(-0.000410935 0.00080663 0)
(-0.000659216 0.000874003 0)
(-0.000923264 0.000899696 0)
(-0.00119027 0.000908717 0)
(-0.00145851 0.00091192 0)
(-0.0017274 0.00091342 0)
(-0.00199667 0.000914571 0)
(-0.00226623 0.000915753 0)
(-0.00253608 0.000917046 0)
(-0.00280622 0.000918454 0)
(-0.00307667 0.000919963 0)
(-0.00334743 0.000921553 0)
(-0.0036185 0.000923207 0)
(-0.00388989 0.000924906 0)
(-0.00416159 0.000926629 0)
(-0.00443359 0.000928356 0)
(-0.00470588 0.000930065 0)
(-0.00497844 0.000931733 0)
(-0.00525125 0.000933336 0)
(-0.00552426 0.000934847 0)
(-0.00579744 0.00093624 0)
(-0.00607074 0.000937487 0)
(-0.00634411 0.000938558 0)
(-0.00661747 0.000939422 0)
(-0.00689076 0.000940048 0)
(-0.0071639 0.000940404 0)
(-0.00743679 0.000940458 0)
(-0.00770934 0.000940178 0)
(-0.00798143 0.000939531 0)
(-0.00825296 0.000938489 0)
(-0.00852379 0.000937022 0)
(-0.0087938 0.000935107 0)
(-0.00906286 0.000932723 0)
(-0.00933083 0.000929857 0)
(-0.00959757 0.000926503 0)
(-0.00986294 0.000922668 0)
(-0.0101268 0.000918371 0)
(-0.0103891 0.000913652 0)
(-0.0106496 0.000908576 0)
(-0.0109084 0.000903237 0)
(-0.0111655 0.000897775 0)
(-0.0114207 0.000892381 0)
(-0.0116744 0.000887325 0)
(-0.0119268 0.000882974 0)
(-0.0121782 0.000879845 0)
(-0.0124296 0.000878664 0)
(-0.0126818 0.000880496 0)
(-0.0129365 0.000886966 0)
(-0.013196 0.000900705 0)
(-0.0134637 0.000926195 0)
(-0.013744 0.000971364 0)
(-0.0140417 0.00105032 0)
(-0.01436 0.00118719 0)
(-0.0146951 0.00141928 0)
(-0.0150267 0.00179645 0)
(-0.0152902 0.00237397 0)
(-0.0153615 0.00317285 0)
(-0.0151748 0.0040388 0)
(-2.67843e-05 0.000410536 0)
(-0.000175581 0.000845838 0)
(-0.000416508 0.00104896 0)
(-0.000668201 0.00113465 0)
(-0.00093579 0.00116734 0)
(-0.00120619 0.00117891 0)
(-0.00147775 0.00118308 0)
(-0.00174993 0.00118506 0)
(-0.00202246 0.00118653 0)
(-0.00229529 0.00118801 0)
(-0.0025684 0.00118959 0)
(-0.00284181 0.00119129 0)
(-0.00311552 0.0011931 0)
(-0.00338954 0.001195 0)
(-0.00366386 0.00119696 0)
(-0.0039385 0.00119896 0)
(-0.00421343 0.00120098 0)
(-0.00448867 0.00120299 0)
(-0.00476418 0.00120497 0)
(-0.00503995 0.00120688 0)
(-0.00531594 0.00120869 0)
(-0.00559214 0.00121037 0)
(-0.00586849 0.0012119 0)
(-0.00614495 0.00121322 0)
(-0.00642145 0.0012143 0)
(-0.00669794 0.00121511 0)
(-0.00697433 0.0012156 0)
(-0.00725055 0.00121573 0)
(-0.0075265 0.00121547 0)
(-0.00780209 0.00121476 0)
(-0.00807719 0.00121358 0)
(-0.00835169 0.00121187 0)
(-0.00862546 0.00120962 0)
(-0.00889837 0.00120678 0)
(-0.00917027 0.00120333 0)
(-0.00944103 0.00119926 0)
(-0.00971048 0.00119456 0)
(-0.00997848 0.00118923 0)
(-0.0102449 0.00118332 0)
(-0.0105096 0.00117687 0)
(-0.0107724 0.00116998 0)
(-0.0110333 0.00116277 0)
(-0.0112921 0.00115543 0)
(-0.011549 0.00114824 0)
(-0.0118039 0.00114154 0)
(-0.012057 0.00113586 0)
(-0.0123085 0.0011319 0)
(-0.0125591 0.00113065 0)
(-0.0128092 0.00113353 0)
(-0.0130601 0.00114261 0)
(-0.0133129 0.00116103 0)
(-0.0135693 0.00119364 0)
(-0.0138308 0.00124807 0)
(-0.0140976 0.00133627 0)
(-0.0143664 0.00147609 0)
(-0.0146259 0.00169161 0)
(-0.0148488 0.00201049 0)
(-0.014981 0.00245444 0)
(-0.0149476 0.00300784 0)
(-0.0146864 0.00358388 0)
(-2.65907e-05 0.000510201 0)
(-0.000175868 0.00104483 0)
(-0.000417961 0.00129291 0)
(-0.000670772 0.00139697 0)
(-0.000939569 0.00143659 0)
(-0.00121109 0.00145064 0)
(-0.00148373 0.00145574 0)
(-0.00175696 0.00145816 0)
(-0.00203054 0.00145996 0)
(-0.00230441 0.00146172 0)
(-0.00257858 0.0014636 0)
(-0.00285305 0.0014656 0)
(-0.00312783 0.00146772 0)
(-0.00340293 0.00146992 0)
(-0.00367835 0.0014722 0)
(-0.0039541 0.00147451 0)
(-0.00423016 0.00147683 0)
(-0.00450653 0.00147913 0)
(-0.0047832 0.00148138 0)
(-0.00506014 0.00148354 0)
(-0.00533733 0.00148557 0)
(-0.00561474 0.00148744 0)
(-0.00589232 0.00148909 0)
(-0.00617003 0.00149049 0)
(-0.0064478 0.0014916 0)
(-0.00672558 0.00149235 0)
(-0.0070033 0.00149271 0)
(-0.00728085 0.00149263 0)
(-0.00755817 0.00149205 0)
(-0.00783513 0.00149092 0)
(-0.00811162 0.0014892 0)
(-0.00838753 0.00148683 0)
(-0.00866272 0.00148377 0)
(-0.00893706 0.00147999 0)
(-0.00921038 0.00147546 0)
(-0.00948253 0.00147014 0)
(-0.00975335 0.00146404 0)
(-0.0100227 0.00145716 0)
(-0.0102903 0.00144954 0)
(-0.0105562 0.00144124 0)
(-0.01082 0.00143236 0)
(-0.0110817 0.00142306 0)
(-0.0113411 0.00141356 0)
(-0.0115981 0.00140418 0)
(-0.0118527 0.00139534 0)
(-0.0121049 0.00138763 0)
(-0.0123547 0.00138189 0)
(-0.0126021 0.00137922 0)
(-0.0128476 0.00138121 0)
(-0.0130911 0.00139006 0)
(-0.0133331 0.00140893 0)
(-0.0135734 0.00144235 0)
(-0.0138111 0.00149682 0)
(-0.0140433 0.00158144 0)
(-0.0142635 0.00170821 0)
(-0.0144581 0.00189106 0)
(-0.0146026 0.00214271 0)
(-0.0146582 0.00246638 0)
(-0.0145798 0.00283967 0)
(-0.0143277 0.00320917 0)
(-2.64185e-05 0.000609735 0)
(-0.000175631 0.00124416 0)
(-0.000417897 0.00153736 0)
(-0.00067092 0.00165987 0)
(-0.000939998 0.00170642 0)
(-0.00121177 0.0017229 0)
(-0.00148465 0.00172891 0)
(-0.0017581 0.00173176 0)
(-0.0020319 0.00173388 0)
(-0.00230599 0.00173595 0)
(-0.0025804 0.00173813 0)
(-0.00285512 0.00174044 0)
(-0.00313017 0.00174288 0)
(-0.00340556 0.00174542 0)
(-0.0036813 0.00174802 0)
(-0.00395739 0.00175067 0)
(-0.00423382 0.00175332 0)
(-0.00451059 0.00175593 0)
(-0.00478769 0.00175848 0)
(-0.00506509 0.00176092 0)
(-0.00534279 0.0017632 0)
(-0.00562073 0.00176527 0)
(-0.00589889 0.0017671 0)
(-0.00617722 0.00176861 0)
(-0.00645566 0.00176977 0)
(-0.00673415 0.00177052 0)
(-0.00701261 0.00177078 0)
(-0.00729097 0.00177052 0)
(-0.00756913 0.00176966 0)
(-0.00784698 0.00176814 0)
(-0.00812441 0.00176591 0)
(-0.0084013 0.0017629 0)
(-0.0086775 0.00175907 0)
(-0.00895287 0.00175436 0)
(-0.00922725 0.00174874 0)
(-0.00950047 0.00174217 0)
(-0.00977235 0.00173464 0)
(-0.0100427 0.00172615 0)
(-0.0103113 0.00171674 0)
(-0.010578 0.00170647 0)
(-0.0108426 0.00169543 0)
(-0.0111048 0.00168381 0)
(-0.0113645 0.00167182 0)
(-0.0116213 0.0016598 0)
(-0.0118753 0.0016482 0)
(-0.012126 0.00163764 0)
(-0.0123734 0.00162896 0)
(-0.0126172 0.0016233 0)
(-0.012857 0.00162218 0)
(-0.0130925 0.00162768 0)
(-0.0133229 0.00164261 0)
(-0.0135469 0.00167075 0)
(-0.0137621 0.00171705 0)
(-0.013964 0.00178778 0)
(-0.014145 0.00189019 0)
(-0.0142926 0.00203133 0)
(-0.0143874 0.00221528 0)
(-0.0144033 0.00243771 0)
(-0.0143134 0.00267868 0)
(-0.0140965 0.00290226 0)
(-2.62834e-05 0.000709017 0)
(-0.000175245 0.00144334 0)
(-0.000417303 0.00178176 0)
(-0.000670191 0.00192278 0)
(-0.00093919 0.00197627 0)
(-0.00121089 0.0019952 0)
(-0.00148368 0.0020021 0)
(-0.00175706 0.00200538 0)
(-0.00203078 0.00200783 0)
(-0.00230481 0.0020102 0)
(-0.00257917 0.00201271 0)
(-0.00285387 0.00201536 0)
(-0.00312892 0.00201814 0)
(-0.00340434 0.00202103 0)
(-0.00368013 0.002024 0)
(-0.0039563 0.00202701 0)
(-0.00423286 0.00203002 0)
(-0.00450979 0.00203298 0)
(-0.00478709 0.00203587 0)
(-0.00506475 0.00203862 0)
(-0.00534273 0.00204119 0)
(-0.00562102 0.00204353 0)
(-0.00589958 0.00204557 0)
(-0.00617836 0.00204725 0)
(-0.00645731 0.00204852 0)
(-0.00673637 0.0020493 0)
(-0.00701546 0.00204953 0)
(-0.00729451 0.00204914 0)
(-0.00757343 0.00204806 0)
(-0.00785209 0.00204621 0)
(-0.0081304 0.00204352 0)
(-0.00840823 0.00203992 0)
(-0.00868542 0.00203535 0)
(-0.00896183 0.00202975 0)
(-0.00923728 0.00202307 0)
(-0.0095116 0.00201525 0)
(-0.00978458 0.00200628 0)
(-0.010056 0.00199615 0)
(-0.0103257 0.00198487 0)
(-0.0105933 0.00197251 0)
(-0.0108587 0.00195914 0)
(-0.0111216 0.00194494 0)
(-0.0113815 0.00193012 0)
(-0.0116384 0.00191499 0)
(-0.0118917 0.00189999 0)
(-0.0121412 0.00188571 0)
(-0.0123863 0.00187293 0)
(-0.0126265 0.0018627 0)
(-0.0128611 0.00185636 0)
(-0.0130892 0.0018557 0)
(-0.0133092 0.00186299 0)
(-0.0135192 0.00188109 0)
(-0.0137159 0.00191347 0)
(-0.0138945 0.00196406 0)
(-0.0140476 0.00203673 0)
(-0.0141646 0.00213423 0)
(-0.0142312 0.00225618 0)
(-0.0142305 0.00239589 0)
(-0.0141463 0.00253739 0)
(-0.0139683 0.00265589 0)
(-2.61704e-05 0.000808029 0)
(-0.000174811 0.00164222 0)
(-0.000416508 0.00202589 0)
(-0.00066912 0.00218549 0)
(-0.000937887 0.00224595 0)
(-0.00120937 0.00226732 0)
(-0.00148197 0.00227512 0)
(-0.00175515 0.00227885 0)
(-0.00202869 0.00228163 0)
(-0.00230255 0.00228433 0)
(-0.00257676 0.00228718 0)
(-0.00285134 0.00229019 0)
(-0.00312629 0.00229334 0)
(-0.00340165 0.00229662 0)
(-0.00367741 0.00229998 0)
(-0.00395359 0.00230339 0)
(-0.0042302 0.0023068 0)
(-0.00450722 0.00231016 0)
(-0.00478467 0.00231343 0)
(-0.00506252 0.00231656 0)
(-0.00534076 0.00231947 0)
(-0.00561936 0.00232212 0)
(-0.00589829 0.00232443 0)
(-0.0061775 0.00232635 0)
(-0.00645696 0.00232779 0)
(-0.0067366 0.00232868 0)
(-0.00701634 0.00232894 0)
(-0.00729612 0.00232849 0)
(-0.00757584 0.00232725 0)
(-0.00785538 0.00232513 0)
(-0.00813465 0.00232206 0)
(-0.0084135 0.00231794 0)
(-0.00869179 0.00231269 0)
(-0.00896936 0.00230624 0)
(-0.00924602 0.00229853 0)
(-0.00952159 0.00228949 0)
(-0.00979585 0.00227908 0)
(-0.0100686 0.00226728 0)
(-0.0103395 0.00225408 0)
(-0.0106083 0.00223952 0)
(-0.0108748 0.00222367 0)
(-0.0111385 0.00220666 0)
(-0.0113991 0.00218867 0)
(-0.0116562 0.00216999 0)
(-0.0119094 0.00215098 0)
(-0.012158 0.00213218 0)
(-0.0124014 0.00211424 0)
(-0.0126387 0.00209804 0)
(-0.0128691 0.00208471 0)
(-0.0130911 0.00207562 0)
(-0.013303 0.00207247 0)
(-0.0135022 0.00207727 0)
(-0.0136854 0.0020922 0)
(-0.0138478 0.00211944 0)
(-0.0139829 0.00216063 0)
(-0.0140823 0.00221605 0)
(-0.0141356 0.00228327 0)
(-0.0141319 0.0023555 0)
(-0.0140616 0.00242043 0)
(-0.0139199 0.0024608 0)
(-2.60643e-05 0.000906763 0)
(-0.000174343 0.00184072 0)
(-0.0004156 0.00226966 0)
(-0.000667864 0.0024479 0)
(-0.000936321 0.00251536 0)
(-0.00120752 0.0025392 0)
(-0.00147985 0.00254791 0)
(-0.00175278 0.00255209 0)
(-0.00202609 0.00255522 0)
(-0.00229974 0.00255827 0)
(-0.00257375 0.00256148 0)
(-0.00284816 0.00256488 0)
(-0.00312298 0.00256844 0)
(-0.00339823 0.00257214 0)
(-0.00367394 0.00257594 0)
(-0.0039501 0.00257979 0)
(-0.00422673 0.00258364 0)
(-0.00450384 0.00258745 0)
(-0.00478142 0.00259116 0)
(-0.00505947 0.00259471 0)
(-0.00533796 0.00259803 0)
(-0.00561688 0.00260105 0)
(-0.00589621 0.00260371 0)
(-0.00617589 0.00260593 0)
(-0.0064559 0.00260762 0)
(-0.00673616 0.00260869 0)
(-0.00701663 0.00260906 0)
(-0.00729721 0.00260864 0)
(-0.00757781 0.00260733 0)
(-0.00785834 0.00260503 0)
(-0.00813868 0.00260164 0)
(-0.00841869 0.00259708 0)
(-0.00869823 0.00259123 0)
(-0.00897712 0.002584 0)
(-0.00925519 0.00257532 0)
(-0.00953222 0.0025651 0)
(-0.00980798 0.00255328 0)
(-0.0100822 0.0025398 0)
(-0.0103547 0.00252464 0)
(-0.010625 0.00250781 0)
(-0.0108928 0.00248934 0)
(-0.0111578 0.00246931 0)
(-0.0114195 0.00244788 0)
(-0.0116773 0.00242524 0)
(-0.0119308 0.00240171 0)
(-0.0121792 0.00237769 0)
(-0.0124217 0.00235371 0)
(-0.0126574 0.00233043 0)
(-0.0128849 0.00230871 0)
(-0.0131028 0.00228953 0)
(-0.013309 0.00227404 0)
(-0.013501 0.0022635 0)
(-0.0136754 0.0022591 0)
(-0.013828 0.00226179 0)
(-0.0139531 0.00227181 0)
(-0.0140444 0.00228811 0)
(-0.0140944 0.00230757 0)
(-0.0140958 0.00232411 0)
(-0.014043 0.00232836 0)
(-0.0139339 0.00230821 0)
(-2.59551e-05 0.00100521 0)
(-0.000173834 0.00203878 0)
(-0.000414594 0.00251301 0)
(-0.000666458 0.00270994 0)
(-0.00093455 0.00278444 0)
(-0.00120542 0.00281078 0)
(-0.00147743 0.00282041 0)
(-0.00175007 0.00282507 0)
(-0.0020231 0.00282856 0)
(-0.0022965 0.00283199 0)
(-0.00257029 0.00283559 0)
(-0.0028445 0.0028394 0)
(-0.00311916 0.00284341 0)
(-0.00339429 0.00284757 0)
(-0.00366991 0.00285184 0)
(-0.00394604 0.00285618 0)
(-0.0042227 0.00286053 0)
(-0.00449988 0.00286484 0)
(-0.0047776 0.00286905 0)
(-0.00505585 0.00287309 0)
(-0.00533461 0.00287688 0)
(-0.00561388 0.00288036 0)
(-0.00589363 0.00288344 0)
(-0.00617383 0.00288604 0)
(-0.00645444 0.00288806 0)
(-0.00673539 0.00288941 0)
(-0.00701664 0.00288998 0)
(-0.00729811 0.00288968 0)
(-0.00757971 0.0028884 0)
(-0.00786134 0.00288601 0)
(-0.00814288 0.00288242 0)
(-0.0084242 0.0028775 0)
(-0.00870515 0.00287114 0)
(-0.00898555 0.00286322 0)
(-0.00926522 0.00285364 0)
(-0.00954394 0.0028423 0)
(-0.00982146 0.00282911 0)
(-0.0100975 0.00281398 0)
(-0.0103718 0.00279686 0)
(-0.0106439 0.00277771 0)
(-0.0109136 0.00275653 0)
(-0.0111803 0.00273334 0)
(-0.0114435 0.00270824 0)
(-0.0117027 0.00268135 0)
(-0.0119572 0.00265288 0)
(-0.0122063 0.0026231 0)
(-0.0124489 0.0025924 0)
(-0.0126841 0.00256122 0)
(-0.0129104 0.00253013 0)
(-0.0131262 0.00249975 0)
(-0.0133294 0.00247076 0)
(-0.0135176 0.00244381 0)
(-0.0136876 0.00241936 0)
(-0.0138356 0.00239752 0)
(-0.0139571 0.00237773 0)
(-0.0140471 0.00235831 0)
(-0.0141003 0.00233607 0)
(-0.0141117 0.00230586 0)
(-0.014078 0.00226058 0)
(-0.0139982 0.00219163 0)
(-2.58378e-05 0.00110333 0)
(-0.000173277 0.00223635 0)
(-0.000413485 0.0027559 0)
(-0.000664901 0.00297157 0)
(-0.000932578 0.00305315 0)
(-0.00120307 0.00308201 0)
(-0.00147473 0.00309259 0)
(-0.00174703 0.00309774 0)
(-0.00201974 0.00310163 0)
(-0.00229285 0.00310544 0)
(-0.00256639 0.00310947 0)
(-0.00284037 0.00311373 0)
(-0.00311485 0.00311822 0)
(-0.00338983 0.00312288 0)
(-0.00366536 0.00312768 0)
(-0.00394145 0.00313256 0)
(-0.00421811 0.00313747 0)
(-0.00449537 0.00314234 0)
(-0.00477322 0.00314711 0)
(-0.00505168 0.00315171 0)
(-0.00533074 0.00315606 0)
(-0.00561038 0.00316007 0)
(-0.00589058 0.00316366 0)
(-0.00617133 0.00316673 0)
(-0.00645259 0.00316918 0)
(-0.0067343 0.0031709 0)
(-0.00701641 0.00317178 0)
(-0.00729886 0.00317171 0)
(-0.00758155 0.00317056 0)
(-0.00786439 0.00316821 0)
(-0.00814726 0.00316452 0)
(-0.00843004 0.00315936 0)
(-0.00871257 0.00315259 0)
(-0.00899468 0.0031441 0)
(-0.00927618 0.00313373 0)
(-0.00955682 0.00312136 0)
(-0.00983638 0.00310687 0)
(-0.0101145 0.00309015 0)
(-0.010391 0.00307109 0)
(-0.0106654 0.00304963 0)
(-0.0109373 0.0030257 0)
(-0.0112062 0.00299927 0)
(-0.0114716 0.00297036 0)
(-0.0117328 0.00293901 0)
(-0.0119891 0.00290531 0)
(-0.0122398 0.00286942 0)
(-0.0124837 0.00283153 0)
(-0.0127197 0.00279191 0)
(-0.0129465 0.00275084 0)
(-0.0131622 0.00270863 0)
(-0.0133651 0.00266557 0)
(-0.0135525 0.00262184 0)
(-0.0137218 0.00257738 0)
(-0.0138697 0.00253177 0)
(-0.0139925 0.00248399 0)
(-0.0140862 0.00243216 0)
(-0.014147 0.00237328 0)
(-0.0141714 0.0023031 0)
(-0.0141574 0.00221621 0)
(-0.0141044 0.00210643 0)
(-2.57096e-05 0.00120111 0)
(-0.000172665 0.0024334 0)
(-0.000412265 0.00299827 0)
(-0.000663182 0.00323274 0)
(-0.000930395 0.00332145 0)
(-0.00120046 0.00335285 0)
(-0.00147172 0.00336441 0)
(-0.00174364 0.00337007 0)
(-0.002016 0.00337437 0)
(-0.00228879 0.00337861 0)
(-0.00256203 0.00338309 0)
(-0.00283576 0.00338785 0)
(-0.00311002 0.00339285 0)
(-0.00338483 0.00339807 0)
(-0.00366024 0.00340344 0)
(-0.00393626 0.00340892 0)
(-0.00421293 0.00341444 0)
(-0.00449025 0.00341995 0)
(-0.00476824 0.00342536 0)
(-0.00504691 0.00343059 0)
(-0.00532627 0.00343557 0)
(-0.0056063 0.00344021 0)
(-0.00588699 0.0034444 0)
(-0.00616833 0.00344804 0)
(-0.00645028 0.00345102 0)
(-0.0067328 0.00345323 0)
(-0.00701585 0.00345454 0)
(-0.00729935 0.00345482 0)
(-0.00758323 0.00345393 0)
(-0.0078674 0.00345174 0)
(-0.00815174 0.00344808 0)
(-0.00843614 0.00344282 0)
(-0.00872042 0.00343579 0)
(-0.00900444 0.00342684 0)
(-0.00928798 0.0034158 0)
(-0.00957081 0.00340253 0)
(-0.00985269 0.00338685 0)
(-0.0101333 0.00336863 0)
(-0.0104123 0.00334773 0)
(-0.0106893 0.003324 0)
(-0.0109639 0.00329735 0)
(-0.0112356 0.00326767 0)
(-0.0115038 0.0032349 0)
(-0.0117678 0.00319898 0)
(-0.0120268 0.00315992 0)
(-0.0122801 0.00311771 0)
(-0.0125265 0.0030724 0)
(-0.0127648 0.00302405 0)
(-0.0129937 0.00297272 0)
(-0.0132114 0.00291844 0)
(-0.0134162 0.00286119 0)
(-0.0136058 0.00280079 0)
(-0.0137776 0.00273685 0)
(-0.013929 0.00266859 0)
(-0.0140568 0.00259479 0)
(-0.0141579 0.00251354 0)
(-0.0142294 0.00242218 0)
(-0.0142688 0.00231721 0)
(-0.0142747 0.00219447 0)
(-0.0142467 0.00204944 0)
(-2.55691e-05 0.0012985 0)
(-0.000171994 0.00262986 0)
(-0.000410923 0.00324007 0)
(-0.00066129 0.00349339 0)
(-0.000927988 0.00358927 0)
(-0.00119758 0.00362326 0)
(-0.00146839 0.00363581 0)
(-0.00173989 0.00364201 0)
(-0.00201185 0.00364676 0)
(-0.00228427 0.00365146 0)
(-0.00255718 0.00365642 0)
(-0.00283062 0.00366171 0)
(-0.00310463 0.00366728 0)
(-0.00337925 0.00367309 0)
(-0.00365451 0.0036791 0)
(-0.00393045 0.00368524 0)
(-0.00420709 0.00369144 0)
(-0.00448446 0.00369765 0)
(-0.00476258 0.00370377 0)
(-0.00504147 0.00370973 0)
(-0.00532112 0.00371543 0)
(-0.00560156 0.00372079 0)
(-0.00588276 0.00372568 0)
(-0.00616471 0.00373001 0)
(-0.0064474 0.00373365 0)
(-0.00673079 0.00373647 0)
(-0.00701483 0.00373833 0)
(-0.00729947 0.0037391 0)
(-0.00758463 0.00373862 0)
(-0.00787024 0.00373673 0)
(-0.00815618 0.00373326 0)
(-0.00844234 0.00372805 0)
(-0.00872856 0.00372091 0)
(-0.00901468 0.00371166 0)
(-0.00930049 0.00370012 0)
(-0.00958578 0.00368609 0)
(-0.00987027 0.00366938 0)
(-0.0101537 0.0036498 0)
(-0.0104356 0.00362717 0)
(-0.0107158 0.0036013 0)
(-0.0109936 0.00357201 0)
(-0.0112686 0.00353915 0)
(-0.0115402 0.00350257 0)
(-0.0118078 0.00346211 0)
(-0.0120704 0.00341766 0)
(-0.0123273 0.0033691 0)
(-0.0125774 0.00331631 0)
(-0.0128194 0.00325919 0)
(-0.0130521 0.00319759 0)
(-0.0132738 0.00313131 0)
(-0.0134827 0.00306009 0)
(-0.0136769 0.00298348 0)
(-0.013854 0.00290085 0)
(-0.0140118 0.00281125 0)
(-0.0141475 0.00271336 0)
(-0.0142588 0.00260535 0)
(-0.0143433 0.00248488 0)
(-0.0143991 0.0023491 0)
(-0.0144251 0.00219476 0)
(-0.014421 0.00201851 0)
(-2.54153e-05 0.00139548 0)
(-0.000171259 0.00282567 0)
(-0.000409452 0.00348125 0)
(-0.000659213 0.00375348 0)
(-0.000925341 0.00385658 0)
(-0.0011944 0.00389317 0)
(-0.00146472 0.00390675 0)
(-0.00173574 0.00391351 0)
(-0.00200727 0.00391874 0)
(-0.00227927 0.00392393 0)
(-0.00255181 0.00392942 0)
(-0.00282491 0.00393528 0)
(-0.00309863 0.00394146 0)
(-0.00337301 0.00394793 0)
(-0.0036481 0.00395463 0)
(-0.00392392 0.00396149 0)
(-0.00420052 0.00396845 0)
(-0.00447792 0.00397543 0)
(-0.00475616 0.00398235 0)
(-0.00503525 0.00398912 0)
(-0.00531521 0.00399565 0)
(-0.00559605 0.00400183 0)
(-0.00587777 0.00400755 0)
(-0.00616037 0.00401268 0)
(-0.00644382 0.00401709 0)
(-0.00672812 0.00402066 0)
(-0.00701322 0.00402322 0)
(-0.00729907 0.00402463 0)
(-0.00758561 0.00402471 0)
(-0.00787276 0.00402329 0)
(-0.00816042 0.00402019 0)
(-0.00844849 0.00401521 0)
(-0.00873681 0.00400814 0)
(-0.00902523 0.00399879 0)
(-0.00931355 0.00398693 0)
(-0.00960156 0.00397233 0)
(-0.00988898 0.00395477 0)
(-0.0101755 0.00393402 0)
(-0.0104608 0.00390984 0)
(-0.0107445 0.003882 0)
(-0.0110261 0.00385025 0)
(-0.0113051 0.00381436 0)
(-0.0115808 0.0037741 0)
(-0.0118527 0.00372923 0)
(-0.0121199 0.00367951 0)
(-0.0123814 0.00362472 0)
(-0.0126364 0.00356458 0)
(-0.0128835 0.00349884 0)
(-0.0131215 0.00342718 0)
(-0.0133489 0.00334922 0)
(-0.0135641 0.00326447 0)
(-0.013765 0.00317233 0)
(-0.0139499 0.003072 0)
(-0.0141165 0.00296242 0)
(-0.0142627 0.00284225 0)
(-0.0143863 0.00270978 0)
(-0.0144856 0.00256299 0)
(-0.0145589 0.00239951 0)
(-0.0146052 0.00221678 0)
(-0.0146243 0.00201224 0)
(-2.52473e-05 0.001492 0)
(-0.000170455 0.00302079 0)
(-0.000407843 0.00372173 0)
(-0.000656938 0.00401295 0)
(-0.000922437 0.00412331 0)
(-0.00119092 0.00416255 0)
(-0.00146068 0.00417718 0)
(-0.00173118 0.00418454 0)
(-0.00200221 0.00419027 0)
(-0.00227375 0.00419598 0)
(-0.00254586 0.00420205 0)
(-0.00281859 0.00420852 0)
(-0.00309198 0.00421537 0)
(-0.00336608 0.00422254 0)
(-0.00364095 0.00422999 0)
(-0.00391663 0.00423765 0)
(-0.00419315 0.00424543 0)
(-0.00447056 0.00425327 0)
(-0.00474889 0.00426108 0)
(-0.00502817 0.00426877 0)
(-0.00530842 0.00427622 0)
(-0.00558966 0.00428334 0)
(-0.00587191 0.00428999 0)
(-0.00615516 0.00429606 0)
(-0.00643942 0.0043014 0)
(-0.00672466 0.00430586 0)
(-0.00701086 0.00430928 0)
(-0.00729798 0.00431149 0)
(-0.00758597 0.00431231 0)
(-0.00787476 0.00431155 0)
(-0.00816427 0.004309 0)
(-0.00845439 0.00430445 0)
(-0.00874498 0.00429767 0)
(-0.0090359 0.00428842 0)
(-0.00932695 0.00427646 0)
(-0.00961793 0.00426153 0)
(-0.00990858 0.00424336 0)
(-0.0101986 0.00422168 0)
(-0.0104877 0.00419619 0)
(-0.0107754 0.00416661 0)
(-0.0110612 0.00413263 0)
(-0.0113448 0.00409395 0)
(-0.0116254 0.00405024 0)
(-0.0119024 0.00400119 0)
(-0.0121749 0.00394646 0)
(-0.0124422 0.00388569 0)
(-0.0127032 0.00381849 0)
(-0.0129568 0.00374446 0)
(-0.0132017 0.00366313 0)
(-0.0134365 0.00357397 0)
(-0.0136596 0.00347634 0)
(-0.0138694 0.0033695 0)
(-0.014064 0.00325253 0)
(-0.0142415 0.00312433 0)
(-0.0144002 0.00298356 0)
(-0.0145381 0.00282866 0)
(-0.0146536 0.00265783 0)
(-0.0147453 0.00246911 0)
(-0.0148124 0.00226043 0)
(-0.0148542 0.0020298 0)
(-2.50643e-05 0.00158802 0)
(-0.000169579 0.00321513 0)
(-0.000406088 0.00396146 0)
(-0.000654453 0.00427172 0)
(-0.000919261 0.00438941 0)
(-0.0011871 0.00443134 0)
(-0.00145625 0.00444705 0)
(-0.00172617 0.00445502 0)
(-0.00199664 0.00446129 0)
(-0.00226767 0.00446757 0)
(-0.0025393 0.00447424 0)
(-0.0028116 0.00448138 0)
(-0.00308461 0.00448894 0)
(-0.00335839 0.00449689 0)
(-0.003633 0.00450515 0)
(-0.00390848 0.00451367 0)
(-0.00418489 0.00452237 0)
(-0.00446227 0.00453116 0)
(-0.00474067 0.00453995 0)
(-0.00502011 0.00454864 0)
(-0.00530064 0.00455714 0)
(-0.00558228 0.00456531 0)
(-0.00586505 0.00457304 0)
(-0.00614896 0.00458018 0)
(-0.00643403 0.00458658 0)
(-0.00672024 0.00459209 0)
(-0.00700759 0.00459654 0)
(-0.00729603 0.00459974 0)
(-0.00758555 0.0046015 0)
(-0.00787607 0.0046016 0)
(-0.00816752 0.00459982 0)
(-0.00845982 0.00459592 0)
(-0.00875284 0.00458966 0)
(-0.00904644 0.00458078 0)
(-0.00934045 0.00456898 0)
(-0.00963466 0.00455398 0)
(-0.00992883 0.00453547 0)
(-0.0102227 0.00451314 0)
(-0.0105159 0.00448663 0)
(-0.0108081 0.00445561 0)
(-0.0110988 0.00441971 0)
(-0.0113875 0.00437856 0)
(-0.0116736 0.00433174 0)
(-0.0119565 0.00427886 0)
(-0.0122354 0.00421946 0)
(-0.0125094 0.0041531 0)
(-0.0127776 0.00407926 0)
(-0.0130389 0.00399742 0)
(-0.013292 0.00390697 0)
(-0.0135357 0.00380725 0)
(-0.0137685 0.00369751 0)
(-0.0139888 0.00357689 0)
(-0.0141951 0.0034444 0)
(-0.0143854 0.00329889 0)
(-0.0145583 0.00313908 0)
(-0.0147121 0.00296351 0)
(-0.0148451 0.00277057 0)
(-0.0149563 0.00255859 0)
(-0.0150445 0.00232588 0)
(-0.0151092 0.00207085 0)
(-2.48656e-05 0.0016835 0)
(-0.000168628 0.00340864 0)
(-0.000404179 0.00420036 0)
(-0.000651745 0.00452975 0)
(-0.000915796 0.00465482 0)
(-0.00118293 0.00469946 0)
(-0.0014514 0.00471628 0)
(-0.00172067 0.00472491 0)
(-0.00199054 0.00473175 0)
(-0.00226099 0.00473862 0)
(-0.00253209 0.00474595 0)
(-0.00280389 0.0047538 0)
(-0.00307647 0.00476214 0)