/*--------------------------------*- C++ -*----------------------------------*\
  =========                 |
  \\      /  F ield         | OpenFOAM: The Open Source CFD Toolbox
   \\    /   O peration     | Website:  https://openfoam.org
    \\  /    A nd           | Version:  8
     \\/     M anipulation  |
\*---------------------------------------------------------------------------*/
FoamFile
{
    version     2.0;
    format      ascii;
    class       volScalarField;
    location    "51.5";
    object      p;
}
// * * * * * * * * * * * * * * * * * * * * * * * * * * * * * * * * * * * * * //

dimensions      [0 2 -2 0 0 0 0];

internalField   nonuniform List<scalar> 
464
(
-2.98824e-08
1.11225e-06
5.50022e-06
1.20508e-05
2.13768e-05
3.33376e-05
4.82935e-05
6.53242e-05
8.68827e-05
0.000107524
0.000137142
0.000156661
-1.48334e-06
-3.68443e-07
3.98932e-06
1.05319e-05
2.00022e-05
3.23515e-05
4.79418e-05
6.59472e-05
8.86567e-05
0.000111215
0.000142745
0.000166909
-6.52812e-06
-5.54688e-06
-1.3981e-06
4.7291e-06
1.3428e-05
2.45623e-05
3.84353e-05
5.48046e-05
7.49176e-05
9.60872e-05
0.000123116
0.000147352
-1.38803e-05
-1.30455e-05
-8.98502e-06
-2.79862e-06
6.67535e-06
1.93968e-05
3.55358e-05
5.49139e-05
7.8461e-05
0.000104096
0.000135446
0.000165846
-2.4022e-05
-2.35069e-05
-1.98759e-05
-1.47727e-05
-7.54974e-06
2.02729e-06
1.45075e-05
3.02064e-05
4.95546e-05
7.21497e-05
9.91944e-05
0.000128051
-3.67503e-05
-3.6619e-05
-3.31096e-05
-2.72895e-05
-1.78702e-05
-5.13225e-06
1.12606e-05
3.16474e-05
5.64549e-05
8.558e-05
0.000119795
0.000158045
-5.18114e-05
-5.27433e-05
-5.07235e-05
-4.92455e-05
-4.48459e-05
-3.80811e-05
-2.77285e-05
-1.33715e-05
5.5656e-06
2.95578e-05
5.85466e-05
9.35933e-05
-6.62564e-05
-6.61201e-05
-6.33369e-05
-5.85562e-05
-5.11236e-05
-4.03299e-05
-2.56731e-05
-6.04192e-06
1.91355e-05
5.09934e-05
8.89246e-05
0.000138599
-9.87102e-05
-0.000103065
-0.000101231
-0.000106034
-0.000103165
-0.000101716
-9.45175e-05
-8.29653e-05
-6.60082e-05
-4.02664e-05
-1.30951e-05
3.51998e-05
-9.04953e-05
-9.18567e-05
-9.34553e-05
-9.25537e-05
-9.17326e-05
-8.61741e-05
-7.78298e-05
-6.22391e-05
-4.1567e-05
-7.09939e-06
2.73754e-05
9.20252e-05
-0.000159851
-0.000171487
-0.000167573
-0.000187197
-0.00018325
-0.000195486
-0.000191406
-0.000186734
-0.000177756
-0.000148651
-0.000135681
-6.70404e-05
-0.000108978
-0.000112092
-0.000123073
-0.000127139
-0.000140866
-0.000143252
-0.000150894
-0.000140939
-0.00013802
-9.89473e-05
-8.45617e-05
2.21396e-06
-0.00022261
-0.000251578
-0.000241839
-0.000293461
-0.000285095
-0.000325143
-0.00032382
-0.000334395
-0.0003397
-0.000310308
-0.000323924
-0.000239948
-0.000115378
-0.00012155
-0.000147842
-0.000159523
-0.000197889
-0.000212352
-0.000250709
-0.000247475
-0.000282085
-0.000236125
-0.000270682
-0.000156783
-0.000256526
-0.000331168
-0.000309489
-0.000427487
-0.000409777
-0.000498013
-0.000498753
-0.000533929
-0.000558862
-0.000535009
-0.000591253
-0.000502137
-9.97722e-05
-0.000116681
-0.00016114
-0.000186687
-0.000258118
-0.000295803
-0.000380232
-0.000387579
-0.000478865
-0.000424951
-0.000531589
-0.000398481
-0.000175022
-0.000383
-0.000354416
-0.000604047
-0.000571462
-0.000727891
-0.000729112
-0.000789571
-0.000835325
-0.000815553
-0.000913951
-0.000841379
-5.10686e-05
-0.000118786
-0.00016401
-0.00020874
-0.000307085
-0.000398591
-0.000545685
-0.000568839
-0.000730472
-0.000660959
-0.000835418
-0.000690926
0.000320832
-0.000464594
-0.000394884
-0.000888565
-0.00080573
-0.0010354
-0.00104092
-0.00110449
-0.00116925
-0.00113179
-0.00122087
-0.00120234
-0.00101788
0.000184881
4.9472e-05
-0.000267454
-0.00043449
-0.000600452
-0.000865066
-0.000863951
-0.00109146
-0.000962271
-0.00116004
-0.000991713
0.000197589
0.000216882
0.000238649
0.00025377
0.000268623
0.000279008
0.000286875
0.000289883
0.000212111
0.000232673
0.000257655
0.000274297
0.000290494
0.00030188
0.00031039
0.000313696
0.000180461
0.000206532
0.000234944
0.000259292
0.000281359
0.000298783
0.000311063
0.00031646
0.000202637
0.000233051
0.000265087
0.000292606
0.000317318
0.000337239
0.000351143
0.000357536
0.000162617
0.000198842
0.000235263
0.000273143
0.000304436
0.000334733
0.000353315
0.000363769
0.000198774
0.000241035
0.000283163
0.000327186
0.000363502
0.000399935
0.000421871
0.000435319
0.000132673
0.000185941
0.000229585
0.000294698
0.000335468
0.000395573
0.000421645
0.000446929
0.00018628
0.00024949
0.000302918
0.00037917
0.000430232
0.000503677
0.000537427
0.000571423
6.97269e-05
0.000154051
0.000199492
0.000316237
0.00036668
0.000492259
0.000530859
0.000598188
0.000145474
0.000243012
0.000303656
0.000440118
0.000509239
0.000664804
0.000720685
0.000817981
-5.53591e-05
7.55262e-05
0.000108226
0.000311865
0.00036743
0.000631723
0.000697528
0.000897493
3.43808e-05
0.000187961
0.000233261
0.000472482
0.000551783
0.000883373
0.00098912
0.00130166
-0.000261151
-9.52805e-05
-0.000111165
0.000208748
0.000233706
0.000763934
0.000891428
0.00153226
-0.000195841
2.97808e-05
-2.06582e-05
0.000364333
0.000362993
0.00102517
0.00119444
0.00223586
-0.000599218
-0.000413197
-0.000566678
-0.000154997
-0.000368105
0.000555751
0.000479482
0.00232772
-0.000548194
-0.000304061
-0.00056801
-0.000100346
-0.000659666
0.000397577
-0.000870665
0.0019323
-0.00102588
-0.000877898
-0.00133267
-0.000905952
-0.00205526
-0.00082983
-0.00342406
9.36843e-05
-0.00091432
-0.000715867
-0.00113365
-0.000884535
-0.00192301
-0.00151955
-0.00315145
0.00111271
-0.00128273
-0.00133963
-0.00176819
-0.00168772
-0.00338731
-0.00356476
-0.00446189
0.00123635
-0.00116175
-0.00104911
-0.00133259
-0.00131968
-0.00159484
-0.000438074
0.0031392
0.0153002
0.000261477
0.000261824
0.000262744
0.000263808
0.000265053
0.000266086
0.000266929
0.000267242
0.000262811
0.000263176
0.000264123
0.000265216
0.00026643
0.000267425
0.000268229
0.00026852
0.000258461
0.000259025
0.000260491
0.000262085
0.00026403
0.000265588
0.000266877
0.00026735
0.000262317
0.000263025
0.000264674
0.00026652
0.000268458
0.00027001
0.000271244
0.000271683
0.000251868
0.000253294
0.000256494
0.000259689
0.000263547
0.000266454
0.000268858
0.000269727
0.000258639
0.000260548
0.000264165
0.000267971
0.000271811
0.000274792
0.00027714
0.000277977
0.000236851
0.000241529
0.000249461
0.000256463
0.000264335
0.000269959
0.000274474
0.000276115
0.000246569
0.000253244
0.000261948
0.000270026
0.00027802
0.000283942
0.000288533
0.000290205
)
;

boundaryField
{
    movingWall
    {
        type            zeroGradient;
    }
    fixedWalls
    {
        type            zeroGradient;
    }
    frontAndBack
    {
        type            empty;
    }
}


// ************************************************************************* //
