/*--------------------------------*- C++ -*----------------------------------*\
  =========                 |
  \\      /  F ield         | OpenFOAM: The Open Source CFD Toolbox
   \\    /   O peration     | Website:  https://openfoam.org
    \\  /    A nd           | Version:  8
     \\/     M anipulation  |
\*---------------------------------------------------------------------------*/
FoamFile
{
    version     2.0;
    format      ascii;
    class       volVectorField;
    location    "51.5";
    object      U;
}
// * * * * * * * * * * * * * * * * * * * * * * * * * * * * * * * * * * * * * //

dimensions      [0 1 -1 0 0 0 0];

internalField   nonuniform List<vector> 
464
(
(-0.000166688 0.000165241 0)
(-0.000546012 0.000182293 0)
(-0.000942164 0.000176573 0)
(-0.00130808 0.000166909 0)
(-0.00165588 0.000153212 0)
(-0.00197555 0.000134547 0)
(-0.0022483 0.000110648 0)
(-0.00250956 7.89841e-05 0)
(-0.00265711 4.21084e-05 0)
(-0.0028825 -9.83457e-06 0)
(-0.00282319 -5.27181e-05 0)
(-0.00311223 2.19185e-06 0)
(-0.000190126 0.00054754 0)
(-0.000620136 0.000601489 0)
(-0.00106809 0.000583302 0)
(-0.00148275 0.000553672 0)
(-0.00187774 0.000514757 0)
(-0.00224161 0.000467688 0)
(-0.00255593 0.00041653 0)
(-0.00285484 0.000353764 0)
(-0.00303792 0.000308472 0)
(-0.00329689 0.000219904 0)
(-0.00328514 0.000234479 0)
(-0.00360858 8.35831e-05 0)
(-0.000196868 0.00096688 0)
(-0.000642434 0.00105992 0)
(-0.00110633 0.00102715 0)
(-0.00153411 0.00097327 0)
(-0.00193894 0.000900188 0)
(-0.00230595 0.000807279 0)
(-0.00262385 0.000698295 0)
(-0.00290435 0.000564904 0)
(-0.00309282 0.000439424 0)
(-0.00327674 0.000261958 0)
(-0.00328564 0.000189091 0)
(-0.0033398 -3.92711e-05 0)
(-0.000206367 0.0013891 0)
(-0.000674213 0.00152285 0)
(-0.00116271 0.00147592 0)
(-0.00161621 0.00139945 0)
(-0.00205173 0.00129845 0)
(-0.00245276 0.00117443 0)
(-0.00280868 0.00103042 0)
(-0.00312471 0.000862468 0)
(-0.00335237 0.000687787 0)
(-0.00355891 0.000466209 0)
(-0.00359682 0.000286466 0)
(-0.00363272 -1.61667e-05 0)
(-0.00021883 0.00184223 0)
(-0.000715841 0.00201991 0)
(-0.00123446 0.00195784 0)
(-0.00171182 0.00185541 0)
(-0.00216414 0.0017157 0)
(-0.00257408 0.0015393 0)
(-0.00293588 0.00132929 0)
(-0.00324687 0.00108325 0)
(-0.00348909 0.000815755 0)
(-0.00367797 0.000497129 0)
(-0.00376802 0.000201778 0)
(-0.00380764 -0.000196491 0)
(-0.000235181 0.00231785 0)
(-0.000770899 0.00254474 0)
(-0.00133321 0.00246948 0)
(-0.00185849 0.00234987 0)
(-0.00236801 0.00218859 0)
(-0.00283948 0.00198808 0)
(-0.00326528 0.00174979 0)
(-0.00363886 0.00147262 0)
(-0.00393937 0.00116217 0)
(-0.00417337 0.000807297 0)
(-0.00429094 0.000432216 0)
(-0.00431021 -1.83204e-05 0)
(-0.000252817 0.0028479 0)
(-0.000832213 0.00312342 0)
(-0.00143665 0.00302555 0)
(-0.00199265 0.00286264 0)
(-0.00252563 0.0026488 0)
(-0.00301234 0.00238005 0)
(-0.00345054 0.00206247 0)
(-0.00383341 0.00169213 0)
(-0.00415331 0.00127412 0)
(-0.00440677 0.000798984 0)
(-0.00459307 0.000286187 0)
(-0.00469897 -0.000311199 0)
(-0.000281546 0.00341404 0)
(-0.000923754 0.00376677 0)
(-0.00160304 0.00365403 0)
(-0.00223568 0.00350578 0)
(-0.00285115 0.00327388 0)
(-0.00342676 0.0029968 0)
(-0.00395456 0.00265907 0)
(-0.00442896 0.00226743 0)
(-0.00483452 0.00182559 0)
(-0.0051629 0.00132247 0)
(-0.00540203 0.000791324 0)
(-0.00548936 0.000133014 0)
(-0.000285694 0.00398848 0)
(-0.00098764 0.00437552 0)
(-0.00170739 0.00425179 0)
(-0.00237222 0.00401429 0)
(-0.00303363 0.003737 0)
(-0.0036257 0.003369 0)
(-0.00417782 0.00295169 0)
(-0.0046643 0.00245581 0)
(-0.00509532 0.00190015 0)
(-0.00543843 0.00125313 0)
(-0.00577983 0.000570439 0)
(-0.00594895 -0.000296672 0)
(-0.000359406 0.00479298 0)
(-0.00113686 0.0053412 0)
(-0.00197737 0.00513471 0)
(-0.00275195 0.00500816 0)
(-0.00349802 0.00464127 0)
(-0.00421469 0.0043079 0)
(-0.00487095 0.00384172 0)
(-0.00548483 0.0033283 0)
(-0.00604174 0.00276549 0)
(-0.0064974 0.00208493 0)
(-0.00695377 0.00147721 0)
(-0.00714966 0.000522624 0)
(-0.000276193 0.00531303 0)
(-0.00119728 0.00579799 0)
(-0.00205067 0.00570153 0)
(-0.0028633 0.0053154 0)
(-0.00373121 0.00503027 0)
(-0.00442177 0.00452375 0)
(-0.00515282 0.00405049 0)
(-0.00573513 0.00341703 0)
(-0.00633196 0.00278191 0)
(-0.00672141 0.00194087 0)
(-0.00733374 0.00118423 0)
(-0.00749363 -6.7673e-06 0)
(-0.000525611 0.00647899 0)
(-0.00141207 0.00741465 0)
(-0.00248045 0.00697649 0)
(-0.00342769 0.00702552 0)
(-0.00429316 0.00636759 0)
(-0.00520055 0.00604619 0)
(-0.00598356 0.00535227 0)
(-0.00676274 0.00472062 0)
(-0.00752658 0.00404202 0)
(-0.00810728 0.00316241 0)
(-0.0089063 0.00257984 0)
(-0.00923337 0.00131043 0)
(-6.37414e-05 0.00696894 0)
(-0.00144131 0.00739512 0)
(-0.0024427 0.00746001 0)
(-0.00346517 0.00673609 0)
(-0.00470517 0.00656064 0)
(-0.00543004 0.00583326 0)
(-0.00647036 0.00539648 0)
(-0.00703596 0.00458748 0)
(-0.00787732 0.00398598 0)
(-0.00817431 0.00293033 0)
(-0.00916681 0.00228826 0)
(-0.00917581 0.00073056 0)
(-0.00103034 0.00831002 0)
(-0.00184744 0.0102768 0)
(-0.00317758 0.00925656 0)
(-0.00433772 0.00984377 0)
(-0.00520009 0.00856075 0)
(-0.0063773 0.00833098 0)
(-0.007237 0.00721236 0)
(-0.00819065 0.00645861 0)
(-0.00919658 0.0056132 0)
(-0.00983003 0.00454825 0)
(-0.0111183 0.00408994 0)
(-0.0114397 0.00261272 0)
(0.00100524 0.00945249 0)
(-0.00142168 0.0089956 0)
(-0.0028501 0.00959213 0)
(-0.00414373 0.00814396 0)
(-0.00621653 0.00826604 0)
(-0.00676537 0.00727034 0)
(-0.00833327 0.00694347 0)
(-0.00861943 0.00595939 0)
(-0.00976847 0.00548388 0)
(-0.00968371 0.00423647 0)
(-0.011076 0.0039157 0)
(-0.0105542 0.00209901 0)
(-0.00287397 0.00914974 0)
(-0.00297174 0.0148216 0)
(-0.00402583 0.0123055 0)
(-0.00567218 0.014065 0)
(-0.00606596 0.0114775 0)
(-0.00772758 0.0112386 0)
(-0.00855608 0.00938714 0)
(-0.00967903 0.00838326 0)
(-0.0109328 0.00726659 0)
(-0.0114376 0.00599013 0)
(-0.0132776 0.00567298 0)
(-0.0132534 0.00416714 0)
(0.00364592 0.0148683 0)
(-0.000172959 0.00940677 0)
(-0.0043522 0.0118276 0)
(-0.00522033 0.00928528 0)
(-0.00920541 0.00984545 0)
(-0.00885458 0.00889192 0)
(-0.0111868 0.00855536 0)
(-0.0107021 0.00749606 0)
(-0.012134 0.00710199 0)
(-0.0112572 0.00571492 0)
(-0.012892 0.00579163 0)
(-0.0111707 0.00396797 0)
(0.0033681 0.00580631 0)
(-0.000603647 0.0238058 0)
(0.00251626 0.0177209 0)
(-0.00459597 0.0202078 0)
(-0.00470301 0.0154924 0)
(-0.00816392 0.0143643 0)
(-0.00955829 0.0116422 0)
(-0.0110268 0.00999404 0)
(-0.0126981 0.00857806 0)
(-0.0128187 0.00692893 0)
(-0.0150726 0.00646667 0)
(-0.0141952 0.00506887 0)
(-0.0355745 0.0125004 0)
(-0.0195466 0.00934673 0)
(-0.0383739 0.0150644 0)
(-0.0258228 0.015249 0)
(-0.0311875 0.0126397 0)
(-0.0232824 0.0125884 0)
(-0.0237228 0.0109693 0)
(-0.018739 0.00953234 0)
(-0.0180613 0.00876775 0)
(-0.0137586 0.00699656 0)
(-0.0140318 0.00728105 0)
(-0.00888031 0.00551599 0)
(0.0278694 0.0587932 0)
(0.0454282 0.0289962 0)
(0.0639045 0.0236393 0)
(0.0839575 0.0153195 0)
(0.094834 0.0129422 0)
(0.108825 0.00846067 0)
(0.114809 0.00739561 0)
(0.12828 0.00496191 0)
(0.127427 0.00443147 0)
(0.143098 0.00301363 0)
(0.135281 0.00234584 0)
(0.154605 0.00198601 0)
(-0.00283927 0.00163604 0)
(-0.00201052 0.000894365 0)
(-0.00177473 0.000175567 0)
(-0.00139294 -0.000231855 0)
(-0.00112907 -0.000577175 0)
(-0.000798613 -0.000804329 0)
(-0.000475735 -0.000955782 0)
(-0.000143696 -0.000929085 0)
(-0.00318204 0.00044829 0)
(-0.00227391 3.43343e-05 0)
(-0.00200779 -0.000271677 0)
(-0.00157244 -0.000633894 0)
(-0.00127464 -0.000911363 0)
(-0.000906382 -0.00114914 0)
(-0.000539442 -0.00129837 0)
(-0.000164189 -0.00124551 0)
(-0.00313572 0.000183337 0)
(-0.00272958 -0.000266734 0)
(-0.00244237 -0.000580222 0)
(-0.00203201 -0.000989019 0)
(-0.0016439 -0.00130559 0)
(-0.00119015 -0.00158352 0)
(-0.00070569 -0.00175781 0)
(-0.000219523 -0.00168095 0)
(-0.00341816 -0.000179607 0)
(-0.00303504 -0.000598486 0)
(-0.00273072 -0.000939368 0)
(-0.00229766 -0.00135894 0)
(-0.00187035 -0.00169478 0)
(-0.00136612 -0.00201434 0)
(-0.000812662 -0.00220663 0)
(-0.000255923 -0.00210241 0)
(-0.00371737 -0.000475272 0)
(-0.00348878 -0.000978768 0)
(-0.00320296 -0.00140673 0)
(-0.00278671 -0.00191533 0)
(-0.002299 -0.00232759 0)
(-0.00171062 -0.00272723 0)
(-0.00101968 -0.00296438 0)
(-0.000332289 -0.00283265 0)
(-0.0042006 -0.000459824 0)
(-0.00396643 -0.00103729 0)
(-0.00366796 -0.00153787 0)
(-0.00321957 -0.00218482 0)
(-0.00268354 -0.00263617 0)
(-0.00201641 -0.00319976 0)
(-0.00120946 -0.00345976 0)
(-0.00040308 -0.00334681 0)
(-0.00473554 -0.000891853 0)
(-0.00456598 -0.00161029 0)
(-0.00434828 -0.00225171 0)
(-0.00388434 -0.00305925 0)
(-0.0033118 -0.00364252 0)
(-0.00254917 -0.00437279 0)
(-0.00152486 -0.0047144 0)
(-0.000561933 -0.00459426 0)
(-0.00550035 -0.000459535 0)
(-0.00532965 -0.00137408 0)
(-0.00511714 -0.00199609 0)
(-0.00461621 -0.00313926 0)
(-0.00399797 -0.00371247 0)
(-0.00311516 -0.00486566 0)
(-0.00189421 -0.00521201 0)
(-0.00072478 -0.00526618 0)
(-0.00623768 -0.00108527 0)
(-0.00610234 -0.00220992 0)
(-0.00610349 -0.00305717 0)
(-0.00560189 -0.00447092 0)
(-0.0050269 -0.00528219 0)
(-0.00407666 -0.00678758 0)
(-0.00247873 -0.00730139 0)
(-0.0011422 -0.00746966 0)
(-0.00741343 -6.85167e-05 0)
(-0.00731349 -0.00149215 0)
(-0.00737426 -0.00211502 0)
(-0.00686251 -0.00414001 0)
(-0.00630795 -0.00478351 0)
(-0.00520039 -0.00726252 0)
(-0.0033118 -0.00773007 0)
(-0.00159722 -0.0086307 0)
(-0.00823598 -0.000885804 0)
(-0.00815122 -0.00260954 0)
(-0.00871602 -0.00356701 0)
(-0.00828236 -0.00603689 0)
(-0.00809578 -0.00709018 0)
(-0.00709625 -0.0103324 0)
(-0.00470683 -0.0111677 0)
(-0.00287679 -0.0128202 0)
(-0.0100149 0.000893657 0)
(-0.0100257 -0.00107652 0)
(-0.0107856 -0.00139859 0)
(-0.0104507 -0.00473015 0)
(-0.0105505 -0.0052105 0)
(-0.00949541 -0.0104962 0)
(-0.00698194 -0.011198 0)
(-0.00454251 -0.0158391 0)
(-0.0105807 0.000115289 0)
(-0.0104451 -0.00239129 0)
(-0.0122636 -0.00305905 0)
(-0.012134 -0.0070864 0)
(-0.0136308 -0.00810196 0)
(-0.0133729 -0.0148714 0)
(-0.0112404 -0.016374 0)
(-0.00938093 -0.0251429 0)
(-0.0131482 0.00269432 0)
(-0.0132624 0.000389164 0)
(-0.0154678 0.00105368 0)
(-0.0156349 -0.00349094 0)
(-0.0181404 -0.00278624 0)
(-0.0185479 -0.0128622 0)
(-0.0182581 -0.0137259 0)
(-0.0173254 -0.0358767 0)
(-0.0127342 0.00216998 0)
(-0.0120361 -0.000798555 0)
(-0.0158958 -0.000197127 0)
(-0.015936 -0.00566291 0)
(-0.0222482 -0.00481027 0)
(-0.0249492 -0.0164883 0)
(-0.0303362 -0.0172491 0)
(-0.030854 -0.0621635 0)
(-0.0161134 0.00502316 0)
(-0.0157434 0.00308046 0)
(-0.0205015 0.00600395 0)
(-0.0203026 0.00225441 0)
(-0.0287224 0.00787276 0)
(-0.0291001 -0.00556663 0)
(-0.0402779 -0.00533068 0)
(-0.0249479 -0.0969273 0)
(-0.0138424 0.00493011 0)
(-0.0108335 0.0024268 0)
(-0.0164805 0.00492927 0)
(-0.0126868 0.000840786 0)
(-0.0263343 0.00528012 0)
(-0.0227513 -0.00819982 0)
(-0.0437046 -0.0194171 0)
(0.00545254 -0.132006 0)
(-0.017802 0.00577102 0)
(-0.0159362 0.00537069 0)
(-0.0226434 0.00956951 0)
(-0.0188765 0.0111141 0)
(-0.0320985 0.0210964 0)
(-0.0172673 0.00919812 0)
(-0.0396861 -0.0286315 0)
(0.0311404 -0.132151 0)
(-0.0107819 0.00696335 0)
(-0.00203413 0.00579891 0)
(-0.00735266 0.00824195 0)
(0.0129677 0.00806582 0)
(0.00264948 0.0040302 0)
(0.0426942 -0.00357653 0)
(0.0230975 -0.0689094 0)
(0.0426466 -0.147959 0)
(0.140561 -0.000398489 0)
(0.163085 0.00210347 0)
(0.146128 -0.00440482 0)
(0.16882 0.00105634 0)
(0.152326 -0.00636572 0)
(0.16671 -0.0122444 0)
(0.133834 -0.0200799 0)
(0.0826694 -0.0584479 0)
(-1.90408e-05 -2.28819e-05 0)
(-5.93654e-05 -2.57356e-05 0)
(-8.9554e-05 -2.84272e-05 0)
(-0.000103268 -3.18519e-05 0)
(-0.000100886 -3.37834e-05 0)
(-8.30198e-05 -3.54674e-05 0)
(-5.26269e-05 -3.63284e-05 0)
(-1.64543e-05 -3.38648e-05 0)
(-2.2787e-05 0.000102644 0)
(-6.9877e-05 9.86521e-05 0)
(-0.000104838 7.28188e-05 0)
(-0.000119197 4.45239e-05 0)
(-0.000114816 1.35766e-05 0)
(-9.41537e-05 -1.12152e-05 0)
(-5.94522e-05 -2.98315e-05 0)
(-1.86599e-05 -3.38257e-05 0)
(-3.47852e-05 6.44019e-05 0)
(-0.000105466 5.24437e-05 0)
(-0.000153453 1.68466e-05 0)
(-0.000173389 -2.31739e-05 0)
(-0.000167223 -6.18254e-05 0)
(-0.000135315 -9.34771e-05 0)
(-8.52991e-05 -0.000116174 0)
(-2.65844e-05 -0.000115204 0)
(-4.27346e-05 0.000251722 0)
(-0.00012586 0.000227457 0)
(-0.000181132 0.000145601 0)
(-0.000198311 6.29983e-05 0)
(-0.000185571 -2.17726e-05 0)
(-0.000149261 -8.62263e-05 0)
(-9.30844e-05 -0.000133376 0)
(-2.9046e-05 -0.000139023 0)
(-8.3772e-05 0.000218051 0)
(-0.0002371 0.000178937 0)
(-0.000318715 7.89851e-05 0)
(-0.000340688 -2.24526e-05 0)
(-0.000316339 -0.000118608 0)
(-0.000247342 -0.000193732 0)
(-0.00015364 -0.000247193 0)
(-4.72866e-05 -0.000246283 0)
(-0.000105659 0.000593948 0)
(-0.000289579 0.000485055 0)
(-0.000383614 0.000259157 0)
(-0.000396135 6.94467e-05 0)
(-0.000357164 -0.000108768 0)
(-0.000278957 -0.000233926 0)
(-0.000171461 -0.000322165 0)
(-5.29737e-05 -0.000326018 0)
(-0.000253111 0.000581556 0)
(-0.000633263 0.000430579 0)
(-0.000735944 0.000165629 0)
(-0.000707976 -5.25045e-05 0)
(-0.000619185 -0.000252187 0)
(-0.000461514 -0.000394439 0)
(-0.000280948 -0.000493659 0)
(-8.52918e-05 -0.00048756 0)
(-0.000352809 0.00153203 0)
(-0.000771129 0.00101043 0)
(-0.000871386 0.000347892 0)
(-0.000814895 -3.23027e-05 0)
(-0.000700109 -0.000342595 0)
(-0.000522895 -0.000544097 0)
(-0.000316287 -0.000678252 0)
(-9.64959e-05 -0.000667545 0)
)
;

boundaryField
{
    movingWall
    {
        type            fixedValue;
        value           uniform (1 0 0);
    }
    fixedWalls
    {
        type            noSlip;
    }
    frontAndBack
    {
        type            empty;
    }
}


// ************************************************************************* //
