/*--------------------------------*- C++ -*----------------------------------*\
  =========                 |
  \\      /  F ield         | OpenFOAM: The Open Source CFD Toolbox
   \\    /   O peration     | Website:  https://openfoam.org
    \\  /    A nd           | Version:  8
     \\/     M anipulation  |
\*---------------------------------------------------------------------------*/
FoamFile
{
    version     2.0;
    format      ascii;
    class       volScalarField;
    location    "27.5";
    object      p;
}
// * * * * * * * * * * * * * * * * * * * * * * * * * * * * * * * * * * * * * //

dimensions      [0 2 -2 0 0 0 0];

internalField   nonuniform List<scalar> 
11600
(
-5.97813e-08
-2.50468e-07
2.75352e-07
1.17421e-06
2.59319e-06
4.50318e-06
6.90363e-06
9.79554e-06
1.31802e-05
1.70596e-05
2.1436e-05
2.63122e-05
3.1691e-05
3.75754e-05
4.39687e-05
5.08744e-05
5.82962e-05
6.62377e-05
7.4703e-05
8.36962e-05
9.32216e-05
0.000103283
0.000113886
0.000125035
0.000136733
0.000148987
0.000161801
0.000175179
0.000189126
0.000203648
0.000218748
0.000234432
0.000250704
0.000267569
0.000285031
0.000303094
0.000321762
0.00034104
0.000360932
0.00038144
0.00040257
0.000424325
0.000446709
0.000469725
0.000493379
0.000517674
0.000542617
0.000568213
0.000594471
0.000621402
0.000649017
0.000677333
0.00070637
0.000736146
0.000766681
0.000798043
0.000830392
0.000861474
0.000902725
0.000918095
2.60976e-07
3.15152e-08
6.12435e-07
1.53497e-06
2.96681e-06
4.88154e-06
7.28226e-06
1.01727e-05
1.35551e-05
1.74316e-05
2.18049e-05
2.66775e-05
3.20524e-05
3.79327e-05
4.43215e-05
5.12223e-05
5.86389e-05
6.65749e-05
7.50343e-05
8.40212e-05
9.354e-05
0.000103595
0.00011419
0.000125331
0.000137022
0.000149268
0.000162073
0.000175442
0.00018938
0.000203892
0.000218983
0.000234657
0.000250919
0.000267773
0.000285225
0.000303277
0.000321935
0.000341202
0.000361083
0.000381581
0.0004027
0.000424445
0.000446819
0.000469827
0.000493472
0.000517761
0.000542699
0.000568293
0.000594554
0.000621492
0.000649126
0.000677476
0.000706575
0.000736469
0.000767231
0.000799017
0.00083197
0.000865854
0.000905648
0.000938539
-1.96042e-07
-5.08184e-07
6.34841e-08
9.72178e-07
2.39779e-06
4.30788e-06
6.70441e-06
9.59067e-06
1.29686e-05
1.68403e-05
2.12084e-05
2.60753e-05
3.14441e-05
3.73177e-05
4.36995e-05
5.05929e-05
5.80015e-05
6.59293e-05
7.438e-05
8.33579e-05
9.28673e-05
0.000102913
0.000113498
0.000124629
0.000136309
0.000148544
0.000161338
0.000174697
0.000188624
0.000203125
0.000218205
0.000233868
0.000250119
0.000266963
0.000284403
0.000302445
0.000321092
0.000340349
0.000360219
0.000380707
0.000401817
0.000423552
0.000445916
0.000468913
0.000492547
0.000516825
0.00054175
0.00056733
0.000593574
0.000620491
0.000648097
0.00067641
0.000705455
0.000735266
0.000765896
0.000797429
0.000829935
0.000863489
0.000900172
0.000933705
-1.07527e-06
-1.42312e-06
-8.50282e-07
5.21547e-08
1.47457e-06
3.38073e-06
5.77239e-06
8.65293e-06
1.20244e-05
1.58889e-05
2.02489e-05
2.51072e-05
3.04666e-05
3.63301e-05
4.27012e-05
4.95831e-05
5.69797e-05
6.48948e-05
7.33323e-05
8.22964e-05
9.17915e-05
0.000101822
0.000112392
0.000123508
0.000135172
0.000147391
0.000160169
0.000173511
0.000187422
0.000201906
0.000216969
0.000232616
0.00024885
0.000265677
0.000283102
0.000301127
0.000319758
0.000338999
0.000358854
0.000379327
0.000400421
0.000422141
0.00044449
0.000467472
0.000491091
0.000515351
0.000540258
0.000565817
0.000592037
0.000618927
0.0006465
0.000674773
0.000703771
0.000733527
0.000764093
0.000795539
0.000827943
0.000861467
0.000896627
0.000931488
-2.5166e-06
-2.88443e-06
-2.31499e-06
-1.42114e-06
-5.07472e-09
1.89443e-06
4.27894e-06
7.15167e-06
1.05145e-05
1.43696e-05
1.87193e-05
2.35664e-05
2.89137e-05
3.47644e-05
4.11216e-05
4.7989e-05
5.53702e-05
6.32692e-05
7.16898e-05
8.06365e-05
9.01135e-05
0.000100125
0.000110677
0.000121772
0.000133417
0.000145616
0.000158374
0.000171695
0.000185586
0.00020005
0.000215093
0.000230719
0.000246933
0.000263741
0.000281145
0.000299152
0.000317764
0.000336987
0.000356824
0.000377278
0.000398355
0.000420057
0.000442388
0.000465351
0.00048895
0.000513189
0.000538071
0.000563602
0.000589787
0.000616633
0.000644149
0.000672347
0.000701241
0.000730851
0.000761203
0.000792327
0.000824252
0.000857034
0.000890718
0.000924618
-4.48596e-06
-4.86397e-06
-4.29834e-06
-3.41219e-06
-2.00312e-06
-1.1141e-07
2.26445e-06
5.1276e-06
8.47984e-06
1.23232e-05
1.66602e-05
2.14935e-05
2.68259e-05
3.26605e-05
3.90007e-05
4.58501e-05
5.32123e-05
6.10913e-05
6.94913e-05
7.84164e-05
8.78712e-05
9.78603e-05
0.000108388
0.00011946
0.000131081
0.000143255
0.000155988
0.000169285
0.00018315
0.00019759
0.000212608
0.00022821
0.0002444
0.000261184
0.000278565
0.000296549
0.000315139
0.00033434
0.000354155
0.000374589
0.000395645
0.000417327
0.000439637
0.000462579
0.000486155
0.000510368
0.000535222
0.000560719
0.000586862
0.000613656
0.000641105
0.000669214
0.000697991
0.000727442
0.000757575
0.000788392
0.000819885
0.000852035
0.000884747
0.000917711
-6.97823e-06
-7.3615e-06
-6.79985e-06
-5.92079e-06
-4.51933e-06
-2.63647e-06
-2.7067e-07
2.58117e-06
5.92082e-06
9.75033e-06
1.40721e-05
1.88888e-05
2.42034e-05
3.0019e-05
3.63389e-05
4.31668e-05
5.05064e-05
5.83618e-05
6.67371e-05
7.56366e-05
8.50651e-05
9.5027e-05
0.000105527
0.000116571
0.000128163
0.000140308
0.000153012
0.00016628
0.000180116
0.000194526
0.000209515
0.000225089
0.000241251
0.000258007
0.000275361
0.000293318
0.000311883
0.000331059
0.00035085
0.00037126
0.000392293
0.000413952
0.000436239
0.000459157
0.000482708
0.000506893
0.000531716
0.000557175
0.000583274
0.000610011
0.000637387
0.000665402
0.000694053
0.000723336
0.000753241
0.00078375
0.000814827
0.000846415
0.000878391
0.000910531
-9.99005e-06
-1.03769e-05
-9.81954e-06
-8.94748e-06
-7.55428e-06
-5.68132e-06
-3.32698e-06
-4.88134e-07
2.83696e-06
6.65035e-06
1.09545e-05
1.5752e-05
2.10459e-05
2.68393e-05
3.31356e-05
3.99385e-05
4.72518e-05
5.50797e-05
6.34263e-05
7.22963e-05
8.16941e-05
9.16246e-05
0.000102093
0.000113104
0.000124662
0.000136774
0.000149444
0.000162678
0.000176481
0.000190857
0.000205813
0.000221354
0.000237483
0.000254208
0.000271531
0.000289458
0.000307994
0.000327141
0.000346906
0.00036729
0.000388298
0.000409931
0.000432194
0.000455086
0.000478611
0.000502768
0.000527559
0.000552981
0.000579035
0.000605716
0.000633022
0.000660946
0.000689478
0.000718604
0.000748304
0.000778544
0.000809273
0.000840417
0.000871851
0.000903399
-1.35182e-05
-1.39083e-05
-1.33555e-05
-1.24906e-05
-1.11065e-05
-9.24447e-06
-6.90298e-06
-4.07885e-06
-7.70302e-07
3.02472e-06
7.30867e-06
1.20843e-05
1.73545e-05
2.31225e-05
2.93918e-05
3.61662e-05
4.34495e-05
5.1246e-05
5.956e-05
6.8396e-05
7.7759e-05
8.76537e-05
9.80853e-05
0.000109059
0.00012058
0.000132653
0.000145285
0.00015848
0.000172244
0.000186583
0.000201501
0.000217004
0.000233097
0.000249785
0.000267074
0.000284967
0.00030347
0.000322587
0.000342322
0.000362678
0.000383658
0.000405265
0.000427502
0.000450369
0.000473867
0.000497997
0.000522757
0.000548145
0.000574157
0.000600789
0.000628032
0.000655875
0.000684305
0.000713299
0.000742829
0.000772855
0.000803317
0.000834137
0.0008652
0.000896358
-1.75601e-05
-1.79532e-05
-1.74054e-05
-1.65482e-05
-1.51739e-05
-1.3324e-05
-1.09968e-05
-8.18916e-06
-4.89918e-06
-1.12482e-06
3.13641e-06
7.88727e-06
1.31308e-05
1.88702e-05
2.51091e-05
3.18513e-05
3.91008e-05
4.68618e-05
5.5139e-05
6.39369e-05
7.32605e-05
8.31149e-05
9.35052e-05
0.000104437
0.000115915
0.000127946
0.000140534
0.000153686
0.000167406
0.000181702
0.000196577
0.000212038
0.00022809
0.000244739
0.000261988
0.000279845
0.000298312
0.000317395
0.000337097
0.000357422
0.000378373
0.000399953
0.000422163
0.000445004
0.000468478
0.000492582
0.000517315
0.000542673
0.000568651
0.000595242
0.000622435
0.000650216
0.000678566
0.00070746
0.000736865
0.000766736
0.000797014
0.00082762
0.000858454
0.000889392
-2.21129e-05
-2.25094e-05
-2.19669e-05
-2.11181e-05
-1.97545e-05
-1.79179e-05
-1.56065e-05
-1.28171e-05
-9.54778e-06
-5.79643e-06
-1.56053e-06
3.16273e-06
8.37643e-06
1.40839e-05
2.02889e-05
2.69951e-05
3.42069e-05
4.19284e-05
5.01645e-05
5.89199e-05
6.81996e-05
7.80089e-05
8.83531e-05
9.92377e-05
0.000110668
0.000122651
0.000135191
0.000148294
0.000161966
0.000176213
0.000191041
0.000206456
0.000222462
0.000239066
0.000256273
0.000274088
0.000292516
0.000311562
0.000331229
0.000351521
0.000372441
0.000393993
0.000416176
0.000438993
0.000462444
0.000486525
0.000511236
0.000536572
0.000562525
0.000589087
0.000616245
0.000643984
0.000672282
0.000701113
0.000730439
0.000760217
0.000790388
0.00082088
0.000851605
0.000882457
-2.71741e-05
-2.75741e-05
-2.70374e-05
-2.61976e-05
-2.48458e-05
-2.30238e-05
-2.07298e-05
-1.79605e-05
-1.47139e-05
-1.0988e-05
-6.78015e-06
-2.08742e-06
3.09331e-06
8.76547e-06
1.49328e-05
2.15993e-05
2.87692e-05
3.64471e-05
4.46377e-05
5.3346e-05
6.25771e-05
7.23365e-05
8.26296e-05
9.34623e-05
0.00010484
0.000116769
0.000129255
0.000142305
0.000155923
0.000170117
0.000184892
0.000200255
0.000216211
0.000232766
0.000249926
0.000267696
0.000286081
0.000305086
0.000324715
0.000344972
0.00036586
0.000387383
0.00040954
0.000432334
0.000455763
0.000479827
0.000504522
0.000529842
0.000555781
0.000582329
0.000609471
0.000637191
0.000665467
0.000694271
0.000723566
0.00075331
0.000783447
0.000813911
0.000844626
0.000875503
-3.27407e-05
-3.31446e-05
-3.26142e-05
-3.17842e-05
-3.04452e-05
-2.86391e-05
-2.63641e-05
-2.36168e-05
-2.03953e-05
-1.66973e-05
-1.25202e-05
-7.86102e-06
-2.71654e-06
2.91678e-06
9.04277e-06
1.56656e-05
2.27895e-05
3.04193e-05
3.85599e-05
4.72163e-05
5.6394e-05
6.60984e-05
7.63354e-05
8.71107e-05
9.84304e-05
0.000110301
0.000122728
0.000135717
0.000149277
0.000163412
0.000178129
0.000193435
0.000209335
0.000225836
0.000242944
0.000260665
0.000279003
0.000297964
0.000317552
0.000337772
0.000358627
0.000380119
0.000402251
0.000425023
0.000448435
0.000472485
0.00049717
0.000522485
0.000548421
0.000574969
0.000602115
0.000629841
0.000658125
0.000686939
0.000716248
0.000746012
0.00077618
0.000806693
0.000837484
0.000868475
-3.88096e-05
-3.92178e-05
-3.86941e-05
-3.78749e-05
-3.65497e-05
-3.4761e-05
-3.25067e-05
-2.97834e-05
-2.65892e-05
-2.29217e-05
-1.87782e-05
-1.41557e-05
-9.05081e-06
-3.45996e-06
2.62084e-06
9.19583e-06
1.62695e-05
2.38468e-05
3.19326e-05
4.05323e-05
4.96514e-05
5.92957e-05
6.9471e-05
8.01835e-05
9.14393e-05
0.000103245
0.000115607
0.000128532
0.000142026
0.000156096
0.00017075
0.000185993
0.000201833
0.000218275
0.000235326
0.000252992
0.000271279
0.000290193
0.000309737
0.000329917
0.000350736
0.000372198
0.000394304
0.000417056
0.000440454
0.000464495
0.000489177
0.000514495
0.000540441
0.000567005
0.000594174
0.000621929
0.00065025
0.000679111
0.000708478
0.000738313
0.00076857
0.000799197
0.000830135
0.000861317
-4.53777e-05
-4.57904e-05
-4.52741e-05
-4.44663e-05
-4.31562e-05
-4.13863e-05
-3.91544e-05
-3.64572e-05
-3.32926e-05
-2.96583e-05
-2.55514e-05
-2.09687e-05
-1.5907e-05
-1.03623e-05
-4.3307e-06
2.19227e-06
9.21127e-06
1.67312e-05
2.47574e-05
3.32953e-05
4.23506e-05
5.19292e-05
6.20373e-05
7.26811e-05
8.38672e-05
9.56023e-05
0.000107893
0.000120747
0.00013417
0.00014817
0.000162753
0.000177928
0.000193701
0.000210078
0.000227067
0.000244674
0.000262906
0.000281767
0.000301265
0.000321402
0.000342184
0.000363614
0.000385694
0.000408427
0.000431813
0.00045585
0.000480536
0.000505867
0.000531834
0.000558429
0.000585639
0.000613448
0.000641834
0.000670774
0.000700238
0.00073019
0.000760589
0.000791388
0.000822535
0.000853974
-5.24412e-05
-5.28588e-05
-5.23504e-05
-5.15551e-05
-5.02612e-05
-4.85116e-05
-4.63041e-05
-4.36351e-05
-4.05026e-05
-3.69041e-05
-3.28367e-05
-2.82973e-05
-2.32822e-05
-1.77877e-05
-1.18093e-05
-5.34275e-06
1.61691e-06
9.07478e-06
1.70363e-05
2.5507e-05
3.44929e-05
4.40001e-05
5.4035e-05
6.46042e-05
7.57144e-05
8.73726e-05
9.95859e-05
0.000112362
0.000125707
0.00013963
0.000154137
0.000169237
0.000184937
0.000201244
0.000218165
0.000235708
0.000253879
0.000272684
0.000292129
0.00031222
0.000332962
0.000354359
0.000376414
0.000399129
0.000422505
0.000446542
0.000471239
0.00049659
0.00052259
0.00054923
0.000576499
0.000604382
0.00063286
0.000661911
0.000691507
0.000721616
0.000752203
0.000783225
0.000814637
0.000846387
-5.99964e-05
-6.04192e-05
-5.99194e-05
-5.91374e-05
-5.78611e-05
-5.61333e-05
-5.3952e-05
-5.13134e-05
-4.82155e-05
-4.46557e-05
-4.06311e-05
-3.61383e-05
-3.11736e-05
-2.5733e-05
-1.98123e-05
-1.34066e-05
-6.51111e-06
8.79592e-07
8.77104e-06
1.71691e-05
2.60799e-05
3.55097e-05
4.54653e-05
5.59534e-05
6.69811e-05
7.85558e-05
9.06848e-05
0.000103376
0.000116637
0.000130476
0.0001449
0.000159919
0.000175539
0.000191769
0.000208616
0.000226088
0.000244192
0.000262936
0.000282325
0.000302366
0.000323065
0.000344426
0.000366453
0.000389151
0.000412519
0.00043656
0.000461272
0.000486651
0.000512694
0.000539393
0.000566737
0.000594714
0.000623307
0.000652496
0.000682256
0.000712561
0.000743376
0.000774665
0.000806389
0.000838501
-6.80392e-05
-6.84676e-05
-6.79769e-05
-6.72093e-05
-6.59517e-05
-6.42475e-05
-6.20943e-05
-5.94884e-05
-5.64277e-05
-5.29095e-05
-4.89308e-05
-4.44881e-05
-3.95777e-05
-3.41953e-05
-2.83365e-05
-2.19965e-05
-1.51701e-05
-7.85187e-06
-3.59763e-08
8.28359e-06
1.71132e-05
2.64594e-05
3.63291e-05
4.67295e-05
5.76679e-05
6.91521e-05
8.11898e-05
9.37891e-05
0.000106958
0.000120706
0.00013504
0.00014997
0.000165503
0.000181649
0.000198415
0.000215809
0.000233841
0.000252517
0.000271845
0.000291831
0.000312483
0.000333805
0.000355804
0.000378482
0.000401844
0.00042589
0.000450622
0.000476036
0.00050213
0.000528898
0.000556332
0.00058442
0.000613149
0.000642501
0.000672454
0.000702985
0.000734065
0.000765661
0.000797738
0.000830256
-7.65653e-05
-7.69995e-05
-7.65186e-05
-7.57663e-05
-7.45289e-05
-7.28499e-05
-7.07268e-05
-6.8156e-05
-6.51351e-05
-6.16616e-05
-5.77321e-05
-5.33432e-05
-4.8491e-05
-4.3171e-05
-3.73788e-05
-3.11093e-05
-2.43573e-05
-1.71169e-05
-9.38236e-06
-1.14733e-06
7.59476e-06
1.68508e-05
2.66278e-05
3.69335e-05
4.77754e-05
5.91616e-05
7.11004e-05
8.36003e-05
9.66701e-05
0.000110319
0.000124555
0.000139387
0.000154826
0.00017088
0.000187557
0.000204867
0.000222819
0.000241421
0.000260681
0.000280607
0.000301206
0.000322486
0.000344453
0.000367111
0.000390465
0.000414518
0.000439272
0.000464726
0.000490878
0.000517725
0.00054526
0.000573474
0.000602357
0.000631893
0.000662064
0.00069285
0.000724225
0.000756163
0.00078863
0.000821593
-8.55698e-05
-8.60103e-05
-8.55399e-05
-8.4804e-05
-8.35881e-05
-8.19359e-05
-7.9845e-05
-7.73117e-05
-7.43335e-05
-7.09076e-05
-6.70308e-05
-6.26995e-05
-5.79095e-05
-5.26565e-05
-4.69356e-05
-4.07417e-05
-3.40693e-05
-2.69126e-05
-1.92654e-05
-1.11213e-05
-2.47329e-06
6.6856e-06
1.63629e-05
2.65664e-05
3.73042e-05
4.85847e-05
6.04167e-05
7.28091e-05
8.57711e-05
9.93121e-05
0.000113442
0.000128169
0.000143505
0.000159458
0.000176038
0.000193256
0.00021112
0.00022964
0.000248825
0.000268684
0.000289226
0.000310458
0.000332388
0.000355023
0.000378368
0.000402427
0.000427204
0.0004527
0.000478915
0.000505848
0.000533494
0.000561847
0.000590898
0.000620636
0.000651046
0.000682111
0.000713809
0.000746117
0.000779007
0.000812449
-9.5048e-05
-9.54951e-05
-9.50357e-05
-9.43173e-05
-9.31243e-05
-9.15008e-05
-8.94442e-05
-8.69508e-05
-8.40181e-05
-8.06431e-05
-7.68226e-05
-7.25526e-05
-6.78292e-05
-6.26476e-05
-5.70029e-05
-5.08899e-05
-4.43029e-05
-3.72357e-05
-2.96822e-05
-2.16355e-05
-1.30886e-05
-4.03402e-06
5.536e-06
1.56296e-05
2.62553e-05
3.74219e-05
4.91387e-05
6.14149e-05
7.42604e-05
8.7685e-05
0.000101699
0.000116312
0.000131535
0.000147379
0.000163853
0.000180969
0.000198736
0.000217166
0.000236268
0.000256053
0.000276529
0.000297708
0.000319596
0.000342203
0.000365535
0.000389598
0.000414397
0.000439936
0.000466216
0.000493239
0.000521003
0.000549504
0.000578736
0.000608691
0.000639357
0.00067072
0.000702764
0.000735468
0.000768809
0.00080276
-0.000104994
-0.000105448
-0.000105001
-0.000104301
-0.000103132
-0.000101539
-9.95193e-05
-9.70683e-05
-9.4184e-05
-9.08632e-05
-8.71025e-05
-8.2898e-05
-7.82454e-05
-7.314e-05
-6.75767e-05
-6.155e-05
-5.50541e-05
-4.80828e-05
-4.06295e-05
-3.26871e-05
-2.42485e-05
-1.53058e-05
-5.85089e-06
4.12471e-06
1.46299e-05
2.5674e-05
3.72665e-05
4.94175e-05
6.2137e-05
7.54357e-05
8.93242e-05
0.000103813
0.000118914
0.000134638
0.000150996
0.000168
0.000185661
0.000203991
0.000223001
0.000242702
0.000263106
0.000284222
0.000306062
0.000328634
0.000351947
0.000376009
0.000400828
0.000426408
0.000452755
0.00047987
0.000507756
0.000536411
0.000565832
0.000596014
0.00062695
0.000658629
0.000691037
0.000724158
0.000757974
0.000792461
-0.000115403
-0.000115865
-0.00011543
-0.000114749
-0.000113607
-0.000112046
-0.000110065
-0.000107659
-0.000104826
-0.000101563
-9.78655e-05
-9.37305e-05
-8.91533e-05
-8.4129e-05
-7.86523e-05
-7.27177e-05
-6.6319e-05
-5.94499e-05
-5.21036e-05
-4.42729e-05
-3.595e-05
-2.71271e-05
-1.77955e-05
-7.94647e-06
2.42938e-06
1.33417e-05
2.48007e-05
3.68166e-05
4.94003e-05
6.25628e-05
7.63154e-05
9.06697e-05
0.000105637
0.000121231
0.000137462
0.000154343
0.000171887
0.000190106
0.000209013
0.000228621
0.000248941
0.000269986
0.000291768
0.000314298
0.000337585
0.000361641
0.000386474
0.000412092
0.000438502
0.000465709
0.000493717
0.000522529
0.000552144
0.000582562
0.000613777
0.000645783
0.00067857
0.000712126
0.000746436
0.000781481
-0.000126269
-0.000126738
-0.000126316
-0.000125657
-0.000124541
-0.000123015
-0.000121075
-0.000118716
-0.000115938
-0.000112736
-0.000109106
-0.000105045
-0.000100548
-9.56096e-05
-9.02251e-05
-8.43883e-05
-7.80932e-05
-7.1333e-05
-6.41008e-05
-5.63891e-05
-4.81899e-05
-3.94949e-05
-3.02953e-05
-2.05818e-05
-1.03446e-05
4.26443e-07
1.17418e-05
2.36124e-05
3.60496e-05
4.9065e-05
6.26706e-05
7.68786e-05
9.17016e-05
0.000107153
0.000123245
0.000139991
0.000157406
0.000175503
0.000194295
0.000213797
0.000234023
0.000254986
0.000276699
0.000299176
0.000322429
0.000346469
0.000371309
0.000396958
0.000423425
0.00045072
0.00047885
0.000507818
0.00053763
0.000568286
0.000599786
0.000632127
0.000665304
0.000699308
0.000734128
0.00076975
-0.000137585
-0.000138062
-0.000137654
-0.000137016
-0.00013593
-0.000134439
-0.000132543
-0.000130235
-0.000127514
-0.000124377
-0.000120818
-0.000116836
-0.000112423
-0.000107576
-0.00010229
-9.65568e-05
-9.03717e-05
-8.37274e-05
-7.66167e-05
-6.90318e-05
-6.09644e-05
-5.2406e-05
-4.33473e-05
-3.37786e-05
-2.36898e-05
-1.30703e-05
-1.90912e-06
9.80527e-06
2.20847e-05
3.49413e-05
4.83879e-05
6.24373e-05
7.7103e-05
9.23989e-05
0.000108339
0.000124938
0.00014221
0.000160171
0.000178836
0.00019822
0.000218338
0.000239205
0.000260838
0.00028325
0.000306455
0.000330469
0.000355305
0.000380976
0.000407494
0.00043487
0.000463115
0.000492236
0.000522241
0.000553136
0.000584923
0.000617603
0.000651176
0.000685637
0.000720979
0.000757193
-0.000149344
-0.00014983
-0.000149436
-0.000148822
-0.000147766
-0.000146314
-0.000144463
-0.000142209
-0.000139548
-0.000136479
-0.000132996
-0.000129096
-0.000124774
-0.000120024
-0.00011484
-0.000109218
-0.000103149
-9.66282e-05
-8.96466e-05
-8.21965e-05
-7.42696e-05
-6.58566e-05
-5.69482e-05
-4.75342e-05
-3.7604e-05
-2.71467e-05
-1.61508e-05
-4.60415e-06
7.50549e-06
2.0191e-05
3.34658e-05
4.73435e-05
6.18385e-05
7.69654e-05
9.27395e-05
0.000109176
0.000126292
0.000144103
0.000162625
0.000181875
0.000201871
0.000222628
0.000244165
0.000266497
0.000289642
0.000313617
0.000338436
0.000364117
0.000390673
0.00041812
0.000446471
0.000475738
0.000505931
0.000537059
0.000569131
0.00060215
0.000636121
0.000671043
0.000706915
0.00074373
-0.00016154
-0.000162034
-0.000161656
-0.000161066
-0.000160042
-0.00015863
-0.000156827
-0.00015463
-0.000152034
-0.000149036
-0.000145633
-0.00014182
-0.000137593
-0.000132945
-0.000127871
-0.000122366
-0.000116421
-0.00011003
-0.000103185
-9.58786e-05
-8.81008e-05
-7.98426e-05
-7.10942e-05
-6.18451e-05
-5.20843e-05
-4.18004e-05
-3.09814e-05
-1.96147e-05
-7.68754e-06
4.81373e-06
1.79031e-05
3.15951e-05
4.59049e-05
6.08482e-05
7.64411e-05
9.27005e-05
0.000109643
0.000127287
0.000145651
0.000164751
0.000184607
0.000205238
0.000226662
0.000248899
0.000271967
0.000295885
0.000320672
0.000346347
0.000372928
0.000400433
0.000428877
0.000458278
0.000488648
0.000520002
0.000552351
0.000585705
0.000620071
0.000655454
0.000691857
0.000729279
-0.000174165
-0.000174668
-0.000174306
-0.000173742
-0.000172751
-0.000171381
-0.00016963
-0.000167491
-0.000164962
-0.000162041
-0.000158722
-0.000155001
-0.000150873
-0.000146334
-0.000141376
-0.000135994
-0.00013018
-0.000123927
-0.000117228
-0.000110073
-0.000102453
-9.43593e-05
-8.57811e-05
-7.67076e-05
-6.71274e-05
-5.70286e-05
-4.63988e-05
-3.5225e-05
-2.34936e-05
-1.11905e-05
1.69907e-06
1.51905e-05
2.92997e-05
4.40434e-05
5.94389e-05
7.5504e-05
9.2257e-05
0.000109717
0.000127903
0.000146835
0.000166534
0.000187019
0.000208311
0.000230433
0.000253404
0.000277248
0.000301984
0.000327636
0.000354223
0.000381768
0.000410289
0.000439808
0.000470341
0.000501908
0.000534523
0.000568201
0.000602954
0.000638794
0.000675726
0.000713756
-0.00018721
-0.000187723
-0.000187378
-0.00018684
-0.000185885
-0.00018456
-0.000182861
-0.000180785
-0.000178327
-0.000175485
-0.000172255
-0.000168631
-0.000164609
-0.000160183
-0.000155347
-0.000150095
-0.00014442
-0.000138313
-0.000131767
-0.000124773
-0.000117321
-0.000109402
-0.000101004
-9.21173e-05
-8.27293e-05
-7.2828e-05
-6.24003e-05
-5.14328e-05
-3.99113e-05
-2.7821e-05
-1.51465e-05
-1.87159e-06
1.20207e-05
2.65479e-05
4.17283e-05
5.75811e-05
7.41256e-05
9.13822e-05
0.000109372
0.000128115
0.000147635
0.000167953
0.000189093
0.000211078
0.000233931
0.000257678
0.000282342
0.000307948
0.00033452
0.000362084
0.000390662
0.000420279
0.000450957
0.000482718
0.000515582
0.00054957
0.000584699
0.000620983
0.000658437
0.00069707
-0.000200669
-0.000201191
-0.000200864
-0.000200354
-0.000199436
-0.000198157
-0.000196514
-0.000194503
-0.00019212
-0.000189362
-0.000186224
-0.000182702
-0.000178791
-0.000174485
-0.000169778
-0.000164663
-0.000159134
-0.000153181
-0.000146797
-0.000139973
-0.000132699
-0.000124964
-0.000116758
-0.000108069
-9.88859e-05
-8.91947e-05
-7.89826e-05
-6.82355e-05
-5.69387e-05
-4.50767e-05
-3.26333e-05
-1.95916e-05
-5.93372e-06
8.35891e-06
2.33056e-05
3.89265e-05
5.52424e-05
7.22749e-05
9.00461e-05
0.000108579
0.000127897
0.000148026
0.000168989
0.000190813
0.000213524
0.000237149
0.000261715
0.000287251
0.000313783
0.000341341
0.000369951
0.000399641
0.00043044
0.000462372
0.000495465
0.000529743
0.000565228
0.000601942
0.000639903
0.000679128
-0.000214531
-0.000215063
-0.000214755
-0.000214274
-0.000213394
-0.000212164
-0.00021058
-0.000208637
-0.000206332
-0.000203662
-0.000200622
-0.000197207
-0.000193412
-0.000189232
-0.000184661
-0.00017969
-0.000174314
-0.000168524
-0.000162311
-0.000155666
-0.000148579
-0.00014104
-0.000133037
-0.000124558
-0.000115592
-0.000106124
-9.61419e-05
-8.56299e-05
-7.45732e-05
-6.29557e-05
-5.07604e-05
-3.79695e-05
-2.45644e-05
-1.05255e-05
4.16744e-06
1.95357e-05
3.56014e-05
5.23872e-05
6.9917e-05
8.82153e-05
0.000107308
0.00012722
0.000147981
0.000169617
0.000192158
0.000215633
0.000240074
0.00026551
0.000291973
0.000319495
0.000348108
0.000377844
0.000408734
0.000440811
0.000474105
0.000508646
0.000544463
0.000581584
0.000620033
0.000659832
-0.000228787
-0.00022933
-0.000229041
-0.000228591
-0.000227752
-0.000226572
-0.000225049
-0.000223178
-0.000220955
-0.000218376
-0.000215438
-0.000212136
-0.000208463
-0.000204416
-0.000199986
-0.000195168
-0.000189953
-0.000184333
-0.0001783
-0.000171845
-0.000164956
-0.000157623
-0.000149834
-0.000141578
-0.000132842
-0.000123612
-0.000113873
-0.000103612
-9.28116e-05
-8.14554e-05
-6.95259e-05
-5.70044e-05
-4.38715e-05
-3.01067e-05
-1.56887e-05
-5.95206e-07
1.5197e-05
3.17122e-05
4.89755e-05
6.70132e-05
8.58525e-05
0.000105522
0.000126051
0.00014747
0.000169811
0.000193106
0.000217388
0.000242692
0.000269054
0.000296507
0.000325089
0.000354835
0.000385784
0.000417971
0.000451433
0.000486206
0.000522325
0.000559823
0.000598733
0.000639083
-0.000243429
-0.000243982
-0.000243714
-0.000243295
-0.000242498
-0.000241372
-0.000239913
-0.000238116
-0.000235978
-0.000233496
-0.000230665
-0.00022748
-0.000223935
-0.000220026
-0.000215746
-0.000211087
-0.000206041
-0.000200601
-0.000194758
-0.000188501
-0.00018182
-0.000174705
-0.000167143
-0.000159122
-0.00015063
-0.000141651
-0.000132172
-0.000122177
-0.00011165
-0.000100572
-8.89272e-05
-7.66946e-05
-6.38543e-05
-5.03851e-05
-3.62645e-05
-2.14693e-05
-5.97504e-06
1.02437e-05
2.72138e-05
4.49629e-05
6.35202e-05
8.29162e-05
0.000103183
0.000124352
0.000146459
0.000169539
0.000193629
0.000218765
0.000244987
0.000272333
0.000300845
0.000330564
0.000361532
0.00039379
0.000427381
0.000462347
0.00049873
0.00053657
0.000575906
0.000616775
-0.000258445
-0.000259009
-0.000258762
-0.000258376
-0.000257623
-0.000256552
-0.00025516
-0.000253441
-0.000251392
-0.000249011
-0.000246291
-0.000243229
-0.000239819
-0.000236054
-0.00023193
-0.000227438
-0.00022257
-0.000217318
-0.000211673
-0.000205625
-0.000199164
-0.000192278
-0.000184955
-0.000177183
-0.000168948
-0.000160235
-0.000151031
-0.000141319
-0.000131082
-0.000120302
-0.000108961
-9.70375e-05
-8.45112e-05
-7.136e-05
-5.75605e-05
-4.30885e-05
-2.79183e-05
-1.20232e-05
4.62501e-06
2.20558e-05
4.03001e-05
5.93904e-05
7.93605e-05
0.000100246
0.000122083
0.00014491
0.000168767
0.000193695
0.000219736
0.000246933
0.000275332
0.000304979
0.00033592
0.000368204
0.000401879
0.000436994
0.000473596
0.000511733
0.000551453
0.000592801
-0.000273826
-0.000274401
-0.000274176
-0.000273824
-0.000273117
-0.000272104
-0.00027078
-0.000269143
-0.000267187
-0.00026491
-0.000262307
-0.000259373
-0.000256103
-0.00025249
-0.000248528
-0.000244211
-0.000239529
-0.000234475
-0.000229038
-0.00022321
-0.000216979
-0.000210333
-0.000203262
-0.000195751
-0.000187788
-0.000179358
-0.000170445
-0.000161032
-0.000151104
-0.00014064
-0.000129622
-0.000118029
-0.000105839
-9.30298e-05
-7.95762e-05
-6.54535e-05
-5.06349e-05
-3.50923e-05
-1.87962e-05
-1.71547e-06
1.61826e-05
3.49325e-05
5.45701e-05
7.51331e-05
9.66609e-05
0.000119195
0.000142777
0.000167452
0.000193266
0.000220267
0.000248504
0.000278029
0.000308893
0.000341152
0.000374858
0.000410067
0.000446836
0.000485218
0.000525271
0.000567047
-0.000289559
-0.000290146
-0.000289943
-0.000289628
-0.000288968
-0.000288014
-0.000286763
-0.00028521
-0.000283351
-0.000281183
-0.000278701
-0.000275901
-0.000272777
-0.000269322
-0.000265531
-0.000261396
-0.000256908
-0.00025206
-0.000246842
-0.000241243
-0.000235253
-0.000228861
-0.000222054
-0.000214819
-0.000207142
-0.000199009
-0.000190403
-0.000181309
-0.000171707
-0.000161579
-0.000150906
-0.000139665
-0.000127835
-0.000115392
-0.00010231
-8.85638e-05
-7.41256e-05
-5.89659e-05
-4.30539e-05
-2.63567e-05
-8.84e-06
9.53247e-06
2.87988e-05
4.8999e-05
7.01749e-05
9.23703e-05
0.000115631
0.000140005
0.000165542
0.000192295
0.000220317
0.000249664
0.000280395
0.000312569
0.000346246
0.00038149
0.000418364
0.000456931
0.000497256
0.000539401
-0.000305634
-0.000306233
-0.000306054
-0.000305775
-0.000305164
-0.000304273
-0.000303097
-0.000301631
-0.000299873
-0.000297818
-0.000295463
-0.000292802
-0.000289829
-0.000286539
-0.000282926
-0.000278981
-0.000274696
-0.000270063
-0.000265073
-0.000259715
-0.000253978
-0.000247851
-0.000241322
-0.000234376
-0.000227001
-0.00021918
-0.000210899
-0.00020214
-0.000192884
-0.000183113
-0.000172805
-0.000161939
-0.000150493
-0.000138441
-0.000125758
-0.000112417
-9.83897e-05
-8.36447e-05
-6.81502e-05
-5.18719e-05
-3.47739e-05
-1.6818e-05
2.03584e-06
2.18298e-05
4.26082e-05
6.44176e-05
8.7307e-05
0.000111328
0.000136534
0.000162981
0.000190728
0.000219837
0.00025037
0.000282394
0.000315976
0.000351186
0.000388095
0.000426776
0.000467302
0.000509746
-0.000322039
-0.00032265
-0.000322495
-0.000322255
-0.000321695
-0.000320868
-0.000319769
-0.000318395
-0.000316741
-0.000314804
-0.00031258
-0.000310063
-0.000307248
-0.00030413
-0.000300701
-0.000296954
-0.000292881
-0.000288473
-0.00028372
-0.000278614
-0.000273141
-0.000267292
-0.000261053
-0.000254411
-0.000247353
-0.000239861
-0.000231922
-0.000223516
-0.000214625
-0.000205231
-0.000195311
-0.000184844
-0.000173806
-0.000162172
-0.000149916
-0.00013701
-0.000123425
-0.000109128
-9.40856e-05
-7.82633e-05
-6.16231e-05
-4.41251e-05
-2.57275e-05
-6.38586e-06
1.39465e-05
3.53189e-05
5.77832e-05
8.13942e-05
0.000106209
0.000132289
0.000159697
0.0001885
0.000218766
0.000250567
0.000283979
0.000319078
0.000355943
0.000394657
0.000435303
0.000477964
-0.000338761
-0.000339385
-0.000339255
-0.000339054
-0.000338547
-0.000337786
-0.000336768
-0.000335488
-0.000333942
-0.000332127
-0.000330039
-0.000327672
-0.000325022
-0.000322081
-0.000318844
-0.000315303
-0.00031145
-0.000307276
-0.000302772
-0.000297927
-0.000292731
-0.000287171
-0.000281237
-0.000274913
-0.000268186
-0.00026104
-0.00025346
-0.000245426
-0.000236921
-0.000227924
-0.000218415
-0.00020837
-0.000197766
-0.000186578
-0.000174778
-0.000162337
-0.000149226
-0.000135411
-0.000120858
-0.000105531
-8.93894e-05
-7.23929e-05
-5.44974e-05
-3.56568e-05
-1.5822e-05
5.05896e-06
2.70409e-05
5.01818e-05
7.45429e-05
0.000100189
0.000127188
0.000155611
0.000185532
0.000217031
0.000250189
0.00028509
0.000321823
0.000360479
0.000401151
0.000443935
-0.000355787
-0.000356424
-0.00035632
-0.000356159
-0.000355707
-0.000355015
-0.00035408
-0.000352897
-0.000351464
-0.000349775
-0.000347828
-0.000345616
-0.000343136
-0.00034038
-0.000337342
-0.000334015
-0.00033039
-0.000326459
-0.000322213
-0.000317641
-0.000312733
-0.000307476
-0.000301859
-0.000295868
-0.000289488
-0.000282705
-0.000275501
-0.000267858
-0.000259759
-0.000251182
-0.000242106
-0.000232508
-0.000222365
-0.000211649
-0.000200334
-0.000188391
-0.000175787
-0.000162491
-0.000148465
-0.000133672
-0.000118072
-0.000101622
-8.42775e-05
-6.59891e-05
-4.6706e-05
-2.6374e-05
-4.93539e-06
1.76711e-05
4.15101e-05