/*--------------------------------*- C++ -*----------------------------------*\
  =========                 |
  \\      /  F ield         | OpenFOAM: The Open Source CFD Toolbox
   \\    /   O peration     | Website:  https://openfoam.org
    \\  /    A nd           | Version:  8
     \\/     M anipulation  |
\*---------------------------------------------------------------------------*/
FoamFile
{
    version     2.0;
    format      ascii;
    class       volScalarField;
    location    "9";
    object      p;
}
// * * * * * * * * * * * * * * * * * * * * * * * * * * * * * * * * * * * * * //

dimensions      [0 2 -2 0 0 0 0];

internalField   nonuniform List<scalar> 
116
(
-4.08968e-10
1.79473e-05
0.000149546
0.000320874
0.000859001
0.000725254
1.46825e-05
3.59479e-05
0.000147164
0.000332584
0.000660503
0.000990725
-0.000359399
-0.000395159
-0.000375955
-0.000381025
-0.000396918
-0.000518568
-0.000628779
-0.00067554
-0.000758974
-0.000878327
-0.00125259
-0.00157325
-0.00117048
-0.00131162
-0.00148758
-0.00177315
-0.00254124
-0.00305651
-0.00159327
-0.00164774
-0.00191149
-0.00211399
-0.0030556
-0.00378769
-0.00162062
-0.00203
-0.00232033
-0.00272552
-0.0036906
-0.00451108
-0.00282183
-0.00245552
-0.00251895
-0.00235087
-0.00277639
-0.0035026
-0.00110872
-0.00312995
-0.00278686
-0.00332675
-0.00305795
-0.00387901
-0.00842452
-0.00154677
-0.00125865
-0.00096673
-0.000817434
-0.000877207
0.00341607
0.00565909
0.00725131
0.0110464
0.00236577
0.00389427
0.00443426
0.00951557
-0.000841321
0.000182201
-0.00363653
0.00304614
-0.00335472
-0.00292987
-0.00768623
-0.00304806
-0.005703
-0.00652128
-0.0099521
-0.007021
-0.00682185
-0.00861874
-0.0131383
-0.00960557
-0.00764844
-0.0102268
-0.0152947
-0.00798612
-0.00507005
-0.00719499
-0.00964618
0.00101373
-0.00509791
-0.00520203
-0.00815934
0.0113471
-0.00073275
0.00411232
0.0114113
0.0490785
0.0080107
0.00821554
0.00848041
0.00879658
0.00796918
0.00828994
0.00859857
0.00903795
0.00724212
0.00777551
0.00836969
0.00934107
0.00650764
0.00789989
0.00863913
0.0104777
)
;

boundaryField
{
    movingWall
    {
        type            zeroGradient;
    }
    fixedWalls
    {
        type            zeroGradient;
    }
    frontAndBack
    {
        type            empty;
    }
}


// ************************************************************************* //
