/*--------------------------------*- C++ -*----------------------------------*\
  =========                 |
  \\      /  F ield         | OpenFOAM: The Open Source CFD Toolbox
   \\    /   O peration     | Website:  https://openfoam.org
    \\  /    A nd           | Version:  8
     \\/     M anipulation  |
\*---------------------------------------------------------------------------*/
FoamFile
{
    version     2.0;
    format      ascii;
    class       volVectorField;
    location    "9";
    object      U;
}
// * * * * * * * * * * * * * * * * * * * * * * * * * * * * * * * * * * * * * //

dimensions      [0 1 -1 0 0 0 0];

internalField   nonuniform List<vector> 
116
(
(-0.00169221 0.000992177 0)
(-0.00660886 0.00140117 0)
(-0.0128164 0.00158776 0)
(-0.0201618 0.00184699 0)
(-0.0264923 0.00390893 0)
(-0.0438049 0.0097637 0)
(-0.00268031 0.00745554 0)
(-0.00981187 0.0103614 0)
(-0.0185733 0.0117509 0)
(-0.0280207 0.0138213 0)
(-0.0383757 0.0169421 0)
(-0.0526298 0.019287 0)
(-0.00193737 0.0125815 0)
(-0.00834174 0.0165169 0)
(-0.0164371 0.0184013 0)
(-0.0249761 0.0207925 0)
(-0.0350888 0.0252439 0)
(-0.0472192 0.0298118 0)
(-0.00257708 0.0185964 0)
(-0.00887282 0.0265504 0)
(-0.0162825 0.0294291 0)
(-0.0234987 0.0344891 0)
(-0.0322141 0.0410351 0)
(-0.0397099 0.0468687 0)
(0.000690767 0.0228212 0)
(-0.00312078 0.0285844 0)
(-0.00924811 0.0317613 0)
(-0.0136015 0.0335534 0)
(-0.0230695 0.0411398 0)
(-0.025329 0.0461313 0)
(-0.00363947 0.0211584 0)
(-0.00700183 0.0384583 0)
(-0.010232 0.0418965 0)
(-0.0123721 0.0496357 0)
(-0.0168392 0.0582977 0)
(-0.0154046 0.0669777 0)
(0.0046988 0.0354986 0)
(0.00157139 0.0334636 0)
(-0.00764864 0.0367378 0)
(-0.00380972 0.0357568 0)
(-0.0097709 0.0429343 0)
(0.00531623 0.0495813 0)
(0.00523661 0.0109769 0)
(0.00959582 0.0524152 0)
(0.0173711 0.0488355 0)
(0.0166452 0.054715 0)
(0.0158264 0.0547913 0)
(0.025241 0.0632203 0)
(-0.0630719 0.0265677 0)
(-0.0403021 0.0173496 0)
(-0.0591031 0.0285438 0)
(-0.0351781 0.0306612 0)
(-0.0266808 0.030226 0)
(0.000259879 0.0321172 0)
(0.0506334 0.100583 0)
(0.0904782 0.0592523 0)
(0.112219 0.0432747 0)
(0.167211 0.0318434 0)
(0.169171 0.0222642 0)
(0.216506 0.0218491 0)
(-0.0494193 0.0360081 0)
(-0.0455341 0.0120723 0)
(-0.0516917 -0.00709261 0)
(-0.0377722 -0.0546271 0)
(-0.0583258 0.0304507 0)
(-0.0603804 0.0146728 0)
(-0.0779402 -0.00316693 0)
(-0.0491626 -0.115853 0)
(-0.0617308 0.0392684 0)
(-0.0644868 0.0233673 0)
(-0.0889256 -0.0116294 0)
(-0.0162364 -0.196107 0)
(-0.0557835 0.0568039 0)
(-0.0488362 0.0326522 0)
(-0.0734671 -0.0346508 0)
(0.0212416 -0.227816 0)
(-0.0444966 0.0533855 0)
(-0.0346159 0.0273217 0)
(-0.0579752 -0.068549 0)
(0.0120461 -0.247095 0)
(-0.0271954 0.0753273 0)
(-0.0102843 0.0413094 0)
(-0.0368664 -0.0765818 0)
(0.0122156 -0.281009 0)
(-0.00216344 0.0472058 0)
(0.0208024 0.0276944 0)
(-0.0172742 -0.089749 0)
(0.0300991 -0.278461 0)
(0.0260814 0.0686422 0)
(0.0473001 0.0599523 0)
(0.0183659 -0.0699397 0)
(0.0479071 -0.25566 0)
(0.0208134 0.0173966 0)
(0.0724053 0.0233095 0)
(0.0750699 -0.0957829 0)
(0.0734611 -0.242922 0)
(0.215793 0.00602587 0)
(0.247443 7.07609e-05 0)
(0.21491 -0.0286609 0)
(0.153911 -0.078414 0)
(-0.00171292 7.71576e-05 0)
(-0.00400536 -0.000803205 0)
(-0.00434392 -0.00137545 0)
(-0.0020608 -0.00197649 0)
(-0.00289126 0.00607358 0)
(-0.00622267 0.00355838 0)
(-0.00659238 -0.000253527 0)
(-0.00334263 -0.00450124 0)
(-0.00549164 0.00866368 0)
(-0.0122725 0.00184462 0)
(-0.0138365 -0.00415064 0)
(-0.00760612 -0.012973 0)
(-0.00872248 0.0261215 0)
(-0.0213457 0.0124782 0)
(-0.0237558 -0.00279211 0)
(-0.0163812 -0.0251428 0)
)
;

boundaryField
{
    movingWall
    {
        type            fixedValue;
        value           uniform (1 0 0);
    }
    fixedWalls
    {
        type            noSlip;
    }
    frontAndBack
    {
        type            empty;
    }
}


// ************************************************************************* //
