/*--------------------------------*- C++ -*----------------------------------*\
  =========                 |
  \\      /  F ield         | OpenFOAM: The Open Source CFD Toolbox
   \\    /   O peration     | Website:  https://openfoam.org
    \\  /    A nd           | Version:  8
     \\/     M anipulation  |
\*---------------------------------------------------------------------------*/
FoamFile
{
    version     2.0;
    format      ascii;
    class       volScalarField;
    location    "0.328";
    object      T;
}
// * * * * * * * * * * * * * * * * * * * * * * * * * * * * * * * * * * * * * //

dimensions      [0 0 0 1 0 0 0];

internalField   nonuniform List<scalar> 
2500
(
49.9995
4.67808
-4.67261
-1.23733
1.21193
0.544643
-0.472114
-0.351647
0.199924
0.282544
-0.0350631
-0.221514
-0.0897539
0.118947
0.152213
0.0175227
-0.110527
-0.112184
-0.0145046
0.0788019
0.0963784
0.0431413
-0.0287535
-0.0710245
-0.0679731
-0.0335666
0.00750147
0.0365383
0.0471396
0.0426827
0.0305353
0.0173454
0.00696973
0.000544989
-0.00247657
-0.00325875
-0.00289776
-0.00214818
-0.00141403
-0.000849996
-0.00047364
-0.000246782
-0.000120825
-5.57124e-05
-2.4187e-05
-9.85643e-06
-3.73872e-06
-1.30209e-06
-4.01417e-07
-8.15068e-08
95.3227
49.9978
10.5853
-4.65522
-2.99057
1.15247
1.36841
-0.337703
-0.842761
-0.0311107
0.559848
0.271184
-0.278468
-0.377835
-0.034409
0.279371
0.256314
-0.0039498
-0.216218
-0.214959
-0.050039
0.122025
0.185704
0.129425
0.0156481
-0.0828446
-0.126333
-0.114988
-0.0721855
-0.0241558
0.0121465
0.0313128
0.0359025
0.0315972
0.0237415
0.0158592
0.00959824
0.00530795
0.00268526
0.00123409
0.000504629
0.00017367
4.12132e-05
-2.59548e-06
-1.18233e-05
-1.0143e-05
-6.5528e-06
-3.63062e-06
-1.93978e-06
-7.32121e-07
104.675
89.4151
49.9944
12.339
-4.61988
-3.82158
1.04925
1.88255
-0.134836
-1.16435
-0.33133
0.673118
0.594729
-0.160419
-0.575846
-0.300334
0.223654
0.443622
0.234638
-0.131383
-0.335011
-0.268229
-0.0403249
0.170184
0.251389
0.198271
0.0743514
-0.0476685
-0.12386
-0.145902
-0.128514
-0.0930507
-0.0565594
-0.0280979
-0.00992143
-0.000407518
0.00334154
0.00396402
0.00327498
0.00228184
0.00142254
0.000814959
0.000435276
0.000218613
0.00010379
4.67221e-05
1.99738e-05
8.07918e-06
3.17437e-06
9.2644e-07
101.235
104.665
87.6604
49.9895
13.1768
-4.56093
-4.36118
0.894057
2.26032
0.138366
-1.36213
-0.681545
0.632765
0.886556
0.100392
-0.629229
-0.590955
-0.00559058
0.480446
0.487807
0.122799
-0.264953
-0.413966
-0.294238
-0.0426538
0.178493
0.279034
0.25743
0.164506
0.0583616
-0.0228933
-0.0666175
-0.0779866
-0.0693418
-0.0524799
-0.0352763
-0.021483
-0.0119626
-0.00610315
-0.00283724
-0.00118099
-0.000420454
-0.000110258
-3.73731e-06
2.16994e-05
2.04526e-05
1.36575e-05
7.69762e-06
4.16324e-06
1.58351e-06
98.7829
102.991
104.639
86.8207
49.9831
13.7336
-4.47317
-4.79079
0.680759
2.55582
0.477969
-1.44423
-1.05337
0.446404
1.09527
0.45377
-0.5083
-0.810598
-0.346059
0.318766
0.623823
0.437342
0.00297394
-0.353517
-0.455896
-0.323629
-0.0857566
0.127902
0.247892
0.269347
0.224902
0.154622
0.0879005
0.0387482
0.00920484
-0.00490869
-0.00934749
-0.00893025
-0.00677525
-0.00449575
-0.00270988
-0.00151235
-0.000790042
-0.000388889
-0.000181086
-7.99253e-05
-3.34454e-05
-1.3212e-05
-5.02722e-06
-1.41457e-06
99.4568
98.833
103.828
104.592
86.2608
49.9751
14.1962
-4.35134
-5.17393
0.404386
2.78306
0.875777
-1.40633
-1.41291
0.127811
1.17474
0.83529
-0.214587
-0.875538
-0.698802
-0.0242174
0.545169
0.660932
0.36989
-0.0587616
-0.372562
-0.465349
-0.371621
-0.191422
-0.0178864
0.0980239
0.147587
0.147147
0.120026
0.0853563
0.0543796
0.0314179
0.0165098
0.00784172
0.0032955
0.00115489
0.000270045
-3.0409e-05
-9.41391e-05
-8.05459e-05
-5.25833e-05
-2.99932e-05
-1.54577e-05
-7.81835e-06
-2.84701e-06
100.48
98.6252
98.9257
104.376
104.519
85.7938
49.9657
14.6336
-4.19099
-5.53359
0.0629117
2.94023
1.31713
-1.24371
-1.72141
-0.2948
1.09233
1.16859
0.209886
-0.735006
-0.945699
-0.455837
0.235282
0.658564
0.653239
0.342851
-0.0421164
-0.322871
-0.434061
-0.402787
-0.295651
-0.174621
-0.0768488
-0.0144187
0.0165794
0.0262979
0.0247012
0.0188491
0.0126562
0.00773056
0.00437033
0.0023096
0.00114774
0.000538061
0.000238187
9.94414e-05
3.89663e-05
1.42051e-05
4.77174e-06
1.13192e-06
100.353
100.354
98.0982
99.07
104.818
104.414
85.35
49.9544
15.0758
-3.98672
-5.87637
-0.345212
3.01774
1.78373
-0.952849
-1.93863
-0.782352
0.830921
1.37661
0.692827
-0.379973
-0.980889
-0.838816
-0.236424
0.369186
0.67567
0.636784
0.381389
0.0794272
-0.15037
-0.266049
-0.282734
-0.239614
-0.174576
-0.112635
-0.0650678
-0.0335878
-0.0151981
-0.00568149
-0.0013911
0.000197031
0.000576034
0.00051434
0.000351781
0.000209587
0.000113783
5.76156e-05
2.72879e-05
1.28187e-05
4.42237e-06
99.7906
100.859
100.157
97.7026
99.2737
105.218
104.271
84.8995
49.9418
15.5372
-3.73477
-6.20197
-0.8179
3.00553
2.25254
-0.539836
-2.02937
-1.28214
0.40233
1.39811
1.13581
0.135159
-0.754231
-1.02902
-0.709405
-0.125599
0.381439
0.634201
0.63175
0.472371
0.268167
0.0954586
-0.0154238
-0.0673873
-0.0783879
-0.0678303
-0.0500267
-0.0330006
-0.0199241
-0.0111492
-0.0058238
-0.00284969
-0.00130688
-0.000560101
-0.000222554
-8.06063e-05
-2.55162e-05
-6.38523e-06
-4.54731e-07
5.30625e-07
99.7103
100.02
101.201
99.8856
97.3839
99.5422
105.6
104.087
84.4276
49.9268
16.0246
-3.42967
-6.50384
-1.35164
2.88979
2.6947
-0.016736
-1.9595
-1.72984
-0.158617
1.18813
1.42618
0.705598
-0.276395
-0.908455
-0.979683
-0.631681
-0.142975
0.258559
0.472396
0.508376
0.431105
0.310168
0.194066
0.10555
0.0483884
0.0166567
0.00182138
-0.00349103
-0.0042981
-0.00345489
-0.00231859
-0.00139107
-0.00076845
-0.000397027
-0.000193614
-8.97368e-05
-3.94247e-05
-1.71574e-05
-5.55394e-06
100.042
99.4125
100.327
101.423
99.5397
97.1288
99.8803
105.97
103.855
83.9259
49.9102
16.5434
-3.06692
-6.77626
-1.94195
2.66091
3.08317
0.595694
-1.71035
-2.06467
-0.79279
0.744704
1.47765
1.19992
0.35623
-0.467664
-0.912291
-0.927913
-0.664232
-0.316752
-0.0260411
0.150197
0.217561
0.211209
0.169175
0.119107
0.0758055
0.0442442
0.0238501
0.0118974
0.00547388
0.00229725
0.000856089
0.000263773
5.01793e-05
-1.14124e-05
-2.04747e-05
-1.51722e-05
-9.57525e-06
-3.96634e-06
100.235
99.7234
99.2793
100.695
101.529
99.1271
96.9404
100.29
106.329
103.572
83.3911
49.8912
17.094
-2.64298
-7.0081
-2.57736
2.31098
3.38259
1.2601
-1.27671
-2.2193
-1.4065
0.114248
1.23153
1.45871
0.954631
0.175005
-0.476497
-0.81123
-0.840761
-0.679961
-0.4543
-0.249796
-0.103927
-0.0189371
0.0199347
0.0307694
0.0280384
0.0208156
0.0136432
0.00816283
0.00453625
0.00236542
0.00116471
0.000543653
0.00024107
0.000101634
4.05736e-05
1.57124e-05
4.52316e-06
100.092
100.307
99.3742
99.3054
101.097
101.513
98.6593
96.8281
100.771
106.671
103.231
82.8181
49.8685
17.6799
-2.14988
-7.18797
-3.25028
1.8299
3.55961
1.93928
-0.661638
-2.13844
-1.90535
-0.629567
0.677378
1.36396
1.32826
0.833429
0.227234
-0.245652
-0.494984
-0.54587
-0.473379
-0.352049
-0.232327
-0.138067
-0.0741366
-0.0356861
-0.0149863
-0.00506482
-0.000944261
0.000416358
0.000647696
0.000517202
0.000332979
0.000189897
9.97285e-05
4.86111e-05
2.34862e-05
8.28872e-06
99.8668
100.408
100.191
99.0468
99.49
101.498
101.364
98.1545
96.807
101.323
106.989
102.827
82.2064
49.8446
18.3022
-1.58623
-7.30754
-3.94596
1.22203
3.58847
2.58172
0.0954459
-1.80234
-2.19453
-1.3537
-0.0876418
0.906045
1.32997
1.24438
0.87841
0.458913
0.125667
-0.0754736
-0.160244
-0.168653
-0.139669
-0.100374
-0.0650686
-0.0387998
-0.021517
-0.0111683
-0.00544291
-0.00249186
-0.00106895
-0.000426647
-0.000156112
-5.05371e-05
-1.33831e-05
-1.606e-06
7.05379e-07
99.8329
100.028
100.639
99.9123
98.7976
99.8231
101.856
101.077
97.6356
96.8894
101.94
107.274
102.356
81.554
49.8151
18.9582
-0.945301
-7.34687
-4.64149
0.489202
3.43014
3.11697
0.937993
-1.19747
-2.16445
-1.883
-0.901714
0.142661
0.851699
1.12473
1.05902
0.81792
0.540484
0.307486
0.146432
0.0519609
0.00553593
-0.0120062
-0.0150496
-0.0124005
-0.00853573
-0.00525138
-0.00297358
-0.00157418
-0.000786475
-0.000373025
-0.000168776
-7.2605e-05
-3.09325e-05
-9.83869e-06
99.9846
99.6798
100.325
100.718
99.5175
98.681
100.284
102.128
100.65
97.1283
97.091
102.619
107.517
101.81
80.8551
49.7807
19.6552
-0.216372
-7.29381
-5.32586
-0.368063
3.06094
3.49422
1.80944
-0.345615
-1.76647
-2.09315
-1.59818
-0.775091
-0.027315
0.449495
0.639957
0.624745
0.504601
0.357862
0.228811
0.133608
0.0716145
0.0351842
0.0156862
0.00617983
0.00200053
0.00039217
-0.000104841
-0.00018592
-0.00014548
-9.06617e-05
-4.93175e-05
-2.6067e-05
-9.79416e-06
100.13
99.7099
99.73
100.666
100.602
99.0746
98.7426
100.832
102.269
100.09
96.6676
97.4253
103.347
107.7
101.182
80.1137
49.7452
20.3905
0.596605
-7.13966
-5.97058
-1.31739
2.48167
3.65417
2.59821
0.640914
-1.04058
-1.89385
-1.94087
-1.49618
-0.901948
-0.387351
-0.0451372
0.128656
0.182135
0.168994
0.12985
0.088399
0.0549318
0.0316595
0.0170843
0.00868199
0.00416891
0.00189409
0.000813734
0.000329593
0.000124928
4.37782e-05
1.38162e-05
2.96822e-06
100.13
100.014
99.4781
99.986
100.944
100.282
98.6661
99.0067
101.415
102.241
99.4187
96.2852
97.8982
104.115
107.818
100.471
79.3234
49.6971
21.1578
1.50528
-6.85039
-6.53074
-2.33152
1.66786
3.50371
3.16276
1.63067
-0.0324859
-1.18402
-1.66028
-1.6063
-1.26957
-0.862514
-0.511046
-0.261296
-0.109289
-0.0299281
0.00419352
0.0143449
0.0140119
0.0104036
0.00669979
0.00392028
0.00213115
0.00108999
0.000528542
0.000244517
0.000107565
4.70811e-05
1.53706e-05
100.014
100.266
99.7284
99.4121
100.393
101.054
99.7881
98.3816
99.4785
101.968
102.01
98.6595
96.0187
98.5235
104.912
107.851
99.6587
78.4735
49.6402
21.974
2.5304
-6.40861
-6.99321
-3.40287
0.611908
3.00471
3.42653
2.52024
1.15879
-0.0199369
-0.740894
-1.00962
-0.966919
-0.772247
-0.54405
-0.346807
-0.202605
-0.109085
-0.0541221
-0.0245731
-0.0100191
-0.0034969
-0.000892887
-1.74446e-05
0.000184717
0.000170292
0.000112841
6.34127e-05
3.43281e-05
1.31027e-05
99.8997
100.263
100.175
99.4053
99.5877
100.838
100.918
99.1992
98.3088
100.128
102.409
101.555
97.8601
95.9134
99.302
105.709
107.775
98.7407
77.5761
49.5854
22.8352
3.65648
-5.81962
-7.32759
-4.46057
-0.605525
2.19005
3.31741
3.10384
2.20629
1.19677
0.401319
-0.0830243
-0.298288
-0.337306
-0.288058
-0.21128
-0.139438
-0.0847016
-0.0479701
-0.0255289
-0.0128292
-0.00610504
-0.00275398
-0.00117672
-0.000474835
-0.000179664
-6.3003e-05
-2.00087e-05
-4.36898e-06
99.8775
100.056
100.431
99.8623
99.2059
100
101.18
100.515
98.627
98.5052
100.892
102.663
100.884
97.0734
95.9972
100.222
106.49
107.587
97.7204
76.6203
49.5052
23.7153
4.88573
-5.03243
-7.43499
-5.3881
-1.90639
1.03452
2.65774
3.03721
2.62521
1.89679
1.1796
0.628634
0.273177
0.0780258
-0.0102357
-0.0384716
-0.0388312
-0.0296597
-0.0196153
-0.0117753
-0.00656323
-0.0034402
-0.00170949
-0.00080951
-0.000367019
-0.000158707
-6.83278e-05
-2.20222e-05
99.946
99.8317
100.348
100.364
99.4407
99.268
100.563
101.281
99.8769
98.1995
99.0012
101.686
102.661
100.005
96.3522
96.3086
101.293
107.242
107.262
96.5602
75.5722
49.3909
24.6431
6.27727
-3.97759
-7.25587
-6.15145
-3.29577
-0.520295
1.32329
2.12585
2.15937
1.7835
1.28525
0.832392
0.491233
0.265467
0.131021
0.058292
0.0225795
0.00686717
0.00090246
-0.00083298
-0.00100133
-0.000738339
-0.000452355
-0.00024926
-0.000125934
-6.29936e-05
-2.28681e-05
100.043
99.7442
100.044
100.568
100.016
99.1068
99.6537
101.106
101.034
99.1148
98.059
99.7803
102.386
102.329
98.9627
95.7879
96.8982
102.496
107.908
106.744
95.2396
74.4523
49.2873
25.6551
7.83326
-2.68657
-6.82397
-6.74088
-4.68532
-2.30053
-0.449192
0.629623
1.05148
1.05432
0.859009
0.615172
0.40033
0.240892
0.135399
0.0715235
0.0356287
0.0167573
0.00743392
0.00309842
0.00120286
0.000427441
0.000133333
3.30496e-05
2.45784e-06
-2.62015e-06
100.103
99.8201
99.7479
100.407
100.516
99.5003
99.0628
100.291
101.421
100.431
98.4099
98.3034
100.745
102.849
101.649
97.8522
95.4669
97.7668
103.774
108.439
106.035
93.7925
73.2851
49.1737
26.6801
9.46389
-1.2077
-6.07918
-6.93908
-5.68861
-3.77954
-2.05156
-0.830983
-0.126155
0.193351
0.280028
0.25394
0.190165
0.126615
0.0773561
0.0441005
0.0236986
0.0120836
0.00587242
0.00272859
0.00121461
0.000518924
0.000211924
8.55435e-05
2.59863e-05
100.101
99.9854
99.6205
100.044
100.68
100.119
99.0474
99.4181
100.994
101.344
99.5669
97.9509
98.9597
101.761
102.967
100.639
96.7566
95.4389
98.9121
105.115
108.844
105.14
92.1837
71.982
48.9377
27.6392
11.1808
0.600514
-4.73547
-6.32526
-5.78039
-4.37206
-2.88831
-1.69587
-0.882844
-0.396789
-0.140837
-0.0246378
0.0173646
0.0254972
0.0212703
0.014512
0.00881543
0.00493422
0.00259019
0.00128825
0.000612063
0.000276768
0.000125396
4.23425e-05
100.051
100.14
99.6896
99.7001
100.499
100.609
99.4907
98.9285
100.144
101.497
100.777
98.6245
97.9322
100.007
102.657
102.615
99.3162
95.7805
95.8093
100.392
106.518
109.061
103.943
90.2781
70.4464
48.5751
28.641
13.1881
2.99683
-2.52099
-4.64177
-4.72785
-3.87002
-2.77305
-1.79883
-1.07345
-0.593918
-0.305421
-0.145631
-0.0638053
-0.025137
-0.00843639
-0.00200425
6.64013e-05
0.000501077
0.000434456
0.000281105
0.000156009
8.3863e-05
3.19405e-05
99.9846
100.217
99.8819
99.5223
100.129
100.785
100.096
98.9497
99.3388
101.002
101.501
99.7825
97.9174
98.5139
101.288
103.163
101.686
97.8027
95.1439
96.7218
102.194
107.841
108.903
102.308
88.049
68.7726
48.2616
29.8692
15.5995
5.97276
0.422763
-2.13552
-2.834
-2.58124
-1.97938
-1.35836
-0.857098
-0.504517
-0.27945
-0.14644
-0.072841
-0.0344509
-0.0154971
-0.00662124
-0.00267739
-0.00101758
-0.000358263
-0.000114082
-3.01204e-05
-4.31112e-06
99.9318
100.206
100.095
99.54
99.7551
100.653
100.593
99.3521
98.8752
100.203
101.584
100.865
98.6632
97.7767
99.6576
102.476
103.04
100.248
96.3687
95.0593
98.1763
104.143
108.887
108.283
100.295
85.6558
67.1176
48.0468
31.193
18.079
9.01093
3.4569
0.50845
-0.758863
-1.08798
-0.983205
-0.737809
-0.494467
-0.305205
-0.176341
-0.0963083
-0.0500373
-0.0248408
-0.0118209
-0.00540427
-0.0023773
-0.00100788
-0.000410062
-0.000165746
-5.06539e-05
99.9062
100.133
100.254
99.6978
99.5001
100.335
100.849
99.9067
98.8144
99.4395
101.168
101.544
99.7239
97.8232
98.3597
101.127
103.251
102.217
98.4937
95.2361
95.5809
100.066
106.12
109.649
107.316
98.0414
83.1203
65.2935
47.5072
31.987
19.8684
11.2995
5.78676
2.56668
0.878822
0.109784
-0.167702
-0.216452
-0.179553
-0.124657
-0.077745
-0.0448861
-0.0243736
-0.0125674
-0.00619203
-0.00292765
-0.00133428
-0.000583252
-0.000256243
-8.46212e-05
99.9068
100.035
100.332
99.9118
99.3992
99.9711
100.864
100.418
99.0543
98.9073
100.514
101.757
100.719
98.4012
97.6382
99.6835
102.631
103.347
100.657
96.5582
94.5522
96.8001
102.468
108.233
110.231
105.991
95.3139
79.9545
62.6045
45.8377
31.4411
20.2295
12.2122
6.9078
3.64708
1.78256
0.793021
0.309139
0.0947542
0.0120247
-0.0127232
-0.015384
-0.0116369
-0.00735884
-0.00419115
-0.00221652
-0.00110834
-0.000523609
-0.000248309
-8.71418e-05
99.9247
99.9444
100.337
100.113
99.4238
99.6625
100.716
100.782
99.4372
98.6504
99.8545
101.615
101.443
99.1936
97.454
98.506
101.619
103.693
102.36
98.2933
94.6979
94.7282
99.1081
105.624
110.484
110.339
103.72
91.3078
75.2659
58.2125
42.3615
29.0871
18.894
11.6352
6.80395
3.78203
1.99888
1.0038
0.477992
0.21494
0.0905707
0.0352407
0.0122775
0.00353836
0.000601195
-0.000182303
-0.000274768
-0.000195389
-0.000120423
-4.9374e-05
99.9495
99.8763
100.297
100.265
99.5201
99.4506
100.5
100.982
99.8288
98.6131
99.3256
101.288
101.858
99.9552
97.6288
97.7225
100.575
103.508
103.46
99.9243
95.4813
93.7257
96.5624
102.902
109.369
112.194
108.967
99.4002
85.0347
68.3309
51.7241
37.0012
25.0925
16.178
9.94196
5.83644
3.27925
1.76617
0.912971
0.453357
0.216376
0.0992666
0.0437548
0.0185083
0.0074965
0.00289647
0.00106025
0.000363704
0.000115197
2.59456e-05
99.9733
99.834
100.239
100.361
99.638
99.3332
100.286
101.052
100.151
98.7051
98.9691
100.919
102.023
100.557
97.9683
97.3007
99.709
103.071
104.031
101.2
96.456
93.461
94.8972
100.623
107.808
112.576
111.905
104.743
92.0385
76.0002
59.1332
43.4949
30.3436
20.1405
12.7549
7.72671
4.48746
2.5036
1.34416
0.695554
0.347364
0.167616
0.0782246
0.035336
0.0154599
0.00655326
0.00269348
0.00106857
0.000422956
0.000127585
99.9923
99.8128
100.183
100.41
99.7452
99.2858
100.113
101.043
100.379
98.8461
98.7656
100.597
102.032
100.969
98.329
97.1369
99.088
102.587
104.239
102.071
97.3479
93.5976
93.9478
98.9617
106.33
112.248
113.345
108.021
96.7385
81.4382
64.6044
48.4507
34.4666
23.3317
15.074
9.31961
5.5271
3.15106
1.73025
0.916636
0.469233
0.232424
0.111535
0.0519109
0.0234563
0.0102976
0.00439966
0.00181963
0.000758388
0.000240618
100.005
99.8054
100.138
100.428
99.8274
99.2801
99.9912
100.999
100.52
98.9837
98.6711
100.356
101.967
101.217
98.6331
97.1219
98.6934
102.17
104.244
102.601
98.0395
93.8868
93.4858
97.8726
105.161
111.691
113.919
109.891
99.7052
85.0689
68.4037
52.0003
37.4977
25.7323
16.8552
10.567
6.35618
3.67645
2.04884
1.10206
0.573092
0.288529
0.140824
0.0667112
0.0307075
0.0137457
0.00599558
0.00253291
0.00108245
0.00035147
100.014
99.8053
100.107
100.429
99.8831
99.2932
99.9149
100.948
100.597
99.0937
98.6411
100.195
101.882
101.348
98.8555
97.1725
98.4688
101.86
104.163
102.888
98.5175
94.1833
93.3087
97.2199
104.338
111.152
114.056
110.879
101.474
87.3632
70.8991
54.4014
39.5985
27.4317
18.1401
11.4826
6.9747
4.07447
2.29376
1.24665
0.655199
0.333485
0.164604
0.0788856
0.0367495
0.0166557
0.00735991
0.00315027
0.00136684
0.000449928
100.018
99.8082
100.087
100.423
99.9171
99.3113
99.8718
100.905
100.633
99.1707
98.6427
100.098
101.807
101.407
99.0017
97.2389
98.3553
101.654
104.065
103.025
98.8189
94.424
93.2746
96.8606
103.807
110.729
114.009
111.359
102.471
88.7414
72.4578
55.9452
40.9811
28.5726
19.0184
12.1185
7.41082
4.35911
2.47129
1.35281
0.716239
0.367313
0.182711
0.0882637
0.0414574
0.0189489
0.0084472
0.00364758
0.0015987
0.000531038
100.02
99.8116
100.075
100.416
99.936
99.3272
99.8499
100.873
100.647
99.2195
98.6552
100.045
101.751
101.428
99.0895
97.2968
98.3053
101.528
103.982
103.08
98.9942
94.5939
93.2972
96.6788
103.49
110.436
113.912
111.569
103.004
89.5297
73.3852
56.8899
41.8464
29.3003
19.5878
12.5372
7.70191
4.55157
2.59281
1.42634
0.758999
0.391271
0.195673
0.0950474
0.0448979
0.0206416
0.00925792
0.00402195
0.0017751
0.000593313
100.021
99.8143
100.07
100.41
99.9455
99.339
99.84
100.853
100.65
99.2479
98.6689
100.018
101.714
101.431
99.1384
97.3393
98.2878
101.456
103.922
103.096
99.0894
94.7033
93.3336
96.595
103.311
110.249
113.82
111.647
103.275
89.9617
73.9148
57.4449
42.366
29.7453
19.9417
12.8011
7.88785
4.67602
2.6723
1.47497
0.787578
0.407448
0.204511
0.099718
0.0472891
0.021829
0.00983183
0.00428928
0.00190229
0.000638587
100.022
99.8163
100.067
100.406
99.9499
99.3467
99.8363
100.841
100.649
99.2633
98.6796
100.006
101.692
101.427
99.1635
97.3668
98.2845
101.419
103.883
103.096
99.1372
94.7682
93.3656
96.5608
103.217
110.139
113.752
111.669
103.404
90.1874
74.2037
57.7563
42.6639
30.0051
20.1515
12.9597
8.00104
4.75268
2.72181
1.50557
0.805744
0.417829
0.210237
0.102771
0.0488659
0.0226188
0.0102168
0.00447007
0.00198908
0.000669721
100.022
99.8175
100.065
100.403
99.9517
99.3513
99.8354
100.834
100.647
99.271
98.6868
100.001
101.679
101.423
99.1756
97.3833
98.2862
101.4
103.86
103.091
99.1598
94.8044
93.3884
96.549
103.17
110.077
113.708
111.669
103.463
90.3011
74.3559
57.9253
42.829
30.1516
20.2716
13.0517
8.06746
4.79816
2.75149
1.5241
0.816846
0.424232
0.213799
0.104686
0.0498635
0.0231225
0.0104644
0.00458717
0.00204577
0.000690203
100.022
99.8182
100.065
100.402
99.9523
99.3538
99.8354
100.831
100.646
99.2746
98.6912
99.9999
101.672
101.42
99.1809
97.3924
98.2887
101.392
103.847
103.086
99.1697
94.8235
93.4028
96.5463
103.148
110.045
113.681
111.664
103.488
90.3559
74.4329
58.0132
42.9169
30.2309
20.3376
13.1029
8.10485
4.82404
2.76854
1.53485
0.823344
0.428012
0.215919
0.105836
0.0504668
0.0234295
0.0106164
0.00465959
0.00208111
0.000703058
100.022
99.8185
100.065
100.401
99.9524
99.3551
99.8357
100.829
100.644
99.2761
98.6937
99.9996
101.669
101.418
99.183
97.3973
98.2909
101.388
103.84
103.083
99.1736
94.833
93.4112
96.5468
103.138
110.028
113.666
111.658
103.498
90.3812
74.4706
58.0577
42.9623
30.2726
20.3727
13.1306
8.12528
4.83833
2.77805
1.5409
0.827035
0.430177
0.217143
0.106505
0.0508206
0.0236108
0.0107068
0.00470299
0.00210244
0.000710868
100.022
99.8187
100.065
100.401
99.9523
99.3557
99.8359
100.828
100.644
99.2767
98.6949
99.9997
101.667
101.416
99.1837
97.3996
98.2923
101.387
103.837
103.081
99.1749
94.8374
93.4157
96.5477
103.134
110.02
113.658
111.655
103.501
90.3924
74.4882
58.0791
42.9846
30.2934
20.3906
13.1447
8.13587
4.84581
2.78308
1.54413
0.829021
0.431351
0.217813
0.106873
0.051017
0.0237122
0.0107578
0.00472758
0.00211463
0.000715358
100.022
99.8188
100.065
100.4
99.9523
99.356
99.8361
100.828
100.643
99.2769
98.6956
99.9999
101.667
101.415
99.184
97.4007
98.2931
101.386
103.835
103.079
99.1754
94.8396
93.4181
96.5486
103.132
110.017
113.654
111.653
103.502
90.3974
74.4965
58.0895
42.9957
30.304
20.3997
13.1521
8.14145
4.84979
2.78578
1.54587
0.8301
0.431994
0.218181
0.107078
0.0511266
0.0237691
0.0107865
0.00474154
0.00212158
0.000717934
100.021
99.8188
100.065
100.4
99.9522
99.3561
99.8362
100.828
100.643
99.277
98.6959
100
101.666
101.415
99.184
97.4012
98.2935
101.386
103.835
103.079
99.1754
94.8404
93.4192
96.5491
103.132
110.015
113.653
111.651
103.502
90.3992
74.4999
58.094
43.0006
30.3087
20.4039
13.1555
8.14405
4.85167
2.78707
1.54671
0.830628
0.432311
0.218365
0.10718
0.0511821
0.0237982
0.0108013
0.0047488
0.00212523
0.000719295
100.021
99.8189
100.065
100.4
99.9522
99.3562
99.8363
100.828
100.643
99.277
98.696
100
101.666
101.415
99.184
97.4014
98.2938
101.386
103.834
103.078
99.1754
94.8408
93.4197
96.5495
103.132
110.014
113.652
111.651
103.502
90.4001
74.5016
58.0962
43.003
30.3111
20.406
13.1573
8.1454
4.85265
2.78774
1.54716
0.830906
0.432479
0.218463
0.107235
0.0512119
0.0238139
0.0108093
0.00475274
0.00212722
0.000720039
100.021
99.8189
100.065
100.4
99.9522
99.3562
99.8363
100.828
100.643
99.277
98.6961
100
101.666
101.415
99.184
97.4015
98.2939
101.386
103.834
103.078
99.1753
94.8409
93.4199
96.5496
103.132
110.014
113.651
111.65
103.502
90.4003
74.5021
58.097
43.0039
30.312
20.4069
13.158
8.14595
4.85305
2.78802
1.54734
0.831025
0.432552
0.218506
0.10726
0.0512253
0.023821
0.010813
0.00475456
0.00212815
0.000720391
100.021
99.8189
100.065
100.4
99.9522
99.3562
99.8363
100.828
100.643
99.277
98.6961
100
101.666
101.415
99.1839
97.4015
98.2939
101.386
103.834
103.078
99.1753
94.841
93.4201
96.5497
103.132
110.014
113.651
111.65
103.502
90.4005
74.5025
58.0975
43.0046
30.3126
20.4074
13.1584
8.1463
4.85331
2.7882
1.54746
0.8311
0.432597
0.218532
0.107274
0.0512334
0.0238253
0.0108152
0.00475564
0.0021287
0.000720599
100.021
99.8189
100.065
100.4
99.9522
99.3562
99.8363
100.828
100.643
99.277
98.6961
100
101.666
101.415
99.1839
97.4015
98.294
101.386
103.834
103.078
99.1753
94.841
93.4201
96.5498
103.132
110.014
113.651
111.65
103.502
90.4005
74.5026
58.0977
43.0048
30.3129
20.4076
13.1586
8.14646
4.85343
2.78829
1.54752
0.831139
0.432622
0.218547
0.107283
0.0512381
0.0238278
0.0108165
0.0047563
0.00212904
0.000720727
)
;

boundaryField
{
    left
    {
        type            fixedValue;
        value           uniform 100;
    }
    right
    {
        type            zeroGradient;
    }
    up
    {
        type            zeroGradient;
    }
    down
    {
        type            fixedValue;
        value           uniform 0;
    }
    frontAndBack
    {
        type            empty;
    }
}


// ************************************************************************* //
