/*--------------------------------*- C++ -*----------------------------------*\
  =========                 |
  \\      /  F ield         | OpenFOAM: The Open Source CFD Toolbox
   \\    /   O peration     | Website:  https://openfoam.org
    \\  /    A nd           | Version:  8
     \\/     M anipulation  |
\*---------------------------------------------------------------------------*/
FoamFile
{
    version     2.0;
    format      ascii;
    class       volVectorField;
    location    "16";
    object      U;
}
// * * * * * * * * * * * * * * * * * * * * * * * * * * * * * * * * * * * * * //

dimensions      [0 1 -1 0 0 0 0];

internalField   nonuniform List<vector> 
2844
(
(1.0054 -0.00216356 4.92185e-06)
(1.00885 -0.0100705 5.37955e-05)
(1.05774 -0.0164168 -6.34189e-05)
(1.07704 -0.0140374 -0.00015019)
(1.10988 -0.0129498 1.85307e-05)
(1.12868 -0.020176 0.000244284)
(1.16917 -0.0199117 0.000260906)
(1.17964 -0.0205584 0.000143619)
(1.18668 -0.0143949 -6.24546e-05)
(1.1659 -0.0109022 -0.000199508)
(1.17027 -0.0125329 -0.000165399)
(1.14033 -0.00827643 -2.26557e-05)
(1.13148 -0.0122363 0.000107719)
(1.0699 -0.00592277 0.000149825)
(1.04818 -0.00465476 0.000109583)
(0.98861 -0.00920261 1.67304e-05)
(0.96468 -0.00743947 -6.29075e-05)
(0.918308 -0.000747879 -7.43708e-05)
(0.904731 0.0108899 -2.83912e-05)
(0.880022 0.00453929 1.96979e-06)
(1.00447 -0.0111241 2.30432e-05)
(1.01093 -0.0334045 7.16e-05)
(1.06264 -0.0388432 -5.65453e-05)
(1.08699 -0.0250665 -0.000340883)
(1.11625 -0.0234336 -0.00019895)
(1.14072 -0.0263744 0.000575875)
(1.18879 -0.024483 0.000890706)
(1.18997 0.00472413 0.000129568)
(1.20427 0.0256178 -0.00014294)
(1.18335 0.0305772 -0.00049551)
(1.18474 0.0370231 -0.000534243)
(1.15336 0.0398108 -2.95349e-05)
(1.14924 0.0695329 1.84365e-05)
(1.08543 0.0733743 8.55288e-05)
(1.0534 0.06684 8.95289e-05)
(1.0003 0.0769725 0.00039753)
(0.98208 0.0647151 0.000391111)
(0.941183 0.0478628 0.000109255)
(0.920032 0.0201025 -9.97633e-05)
(0.885664 0.0150891 -5.94834e-05)
(1.00202 -0.0154106 8.79857e-05)
(1.0217 -0.0598458 -0.000608023)
(1.08551 -0.0827095 0.000345097)
(1.10402 -0.0547057 0.000877358)
(1.15298 -0.0496798 -0.000290101)
(1.19195 -0.0845167 -0.00110317)
(1.22232 -0.0728177 0.00127146)
(1.22994 -0.0355342 0.00314479)
(1.23779 -0.0114466 -0.000360768)
(1.21766 0.013495 -0.00251026)
(1.21959 0.0182817 -0.00197944)
(1.20594 0.0185236 -0.00120607)
(1.18341 0.0373367 0.00113392)
(1.09439 0.0675293 0.00209912)
(1.07908 0.0572345 0.00143252)
(1.01187 0.0435923 0.000161179)
(0.955602 0.0350898 -0.000211039)
(0.9035 0.0480435 -0.000876214)
(0.907925 0.060247 -0.00111456)
(0.90485 0.0342346 -0.000148404)
(1.00059 -0.0346295 -0.000266179)
(1.02854 -0.087693 -0.00190425)
(1.09207 -0.116093 0.000873792)
(1.1489 -0.0789751 0.00301423)
(1.2089 -0.0750266 0.0033142)
(1.22241 -0.0621945 -0.00128175)
(1.26314 -0.070145 -0.00692462)
(1.29531 -0.0339993 -0.00129614)
(1.29517 0.0415886 0.00991314)
(1.27201 0.0846551 0.00313972)
(1.27831 0.065367 -0.00830765)
(1.25731 0.0873797 -0.00102923)
(1.2459 0.171597 0.00336819)
(1.17875 0.148087 0.00370804)
(1.14832 0.120093 0.00622336)
(1.00468 0.174028 0.00333002)
(0.986645 0.149395 0.00075866)
(0.993469 0.0874427 -0.000770219)
(0.957528 0.0232334 -0.000114349)
(0.929603 0.0148489 0.00119997)
(0.992721 -0.0324975 -0.0012868)
(1.04033 -0.120232 -0.00337297)
(1.13834 -0.214006 -0.000722665)
(1.2699 -0.183159 0.00757724)
(1.32961 -0.115299 0.00383833)
(1.28978 -0.104355 -0.00203858)
(1.29674 -0.0674336 0.00496614)
(1.33253 -0.039563 -0.00422869)
(1.50129 -0.0959182 -0.000814102)
(1.42762 0.0151279 0.0233255)
(1.35361 0.109398 0.0187864)
(1.37825 0.0476781 -0.0138479)
(1.39777 0.0639801 -0.0106196)
(1.27363 0.114023 0.0128336)
(1.20235 0.162406 0.0141262)
(1.1118 0.177257 0.0106118)
(1.04874 0.0538721 0.0110072)
(0.982932 0.0959635 0.00192162)
(0.970721 0.136244 -0.00650178)
(1.0378 0.0542985 -0.0032773)
(0.980458 -0.052955 -0.000216928)
(1.02438 -0.142126 -0.00264798)
(1.20678 -0.327052 -0.022473)
(1.45867 -0.280498 0.00748505)
(1.45524 -0.13178 0.030077)
(1.38148 -0.00297851 0.0114615)
(1.47209 -0.106001 0.0110523)
(1.54952 -0.0798557 0.0345352)
(1.54923 0.0195846 0.01713)
(1.65885 0.0238934 0.00829197)
(1.66866 -0.0687552 0.0222291)
(1.60441 0.20296 0.0112092)
(1.40897 0.391614 -0.0112149)
(1.39746 0.177908 -0.0271236)
(1.43032 0.119111 -0.00598714)
(1.17574 0.199273 0.0181918)
(1.10462 0.168469 0.02711)
(0.838674 0.159999 0.0204208)
(0.829938 0.0430339 -0.013872)
(1.0239 -0.0136036 -0.0177341)
(0.976009 -0.0281117 0.0147244)
(1.14661 -0.312305 -0.0324653)
(1.26457 -0.411965 -0.0070873)
(1.44189 -0.358691 0.01981)
(1.83109 -0.462394 0.0286406)
(1.65665 -0.20636 0.0319052)
(1.63357 -0.224747 0.0314593)
(1.51897 -0.28967 0.0216486)
(1.51087 -0.274627 -0.0171155)
(1.6781 -0.0918632 -0.0282881)
(1.5676 -0.133575 -0.0220535)
(1.62424 0.155019 -0.00434136)
(1.49821 0.357732 -0.0146566)
(1.52061 0.278501 -0.0511232)
(1.77506 0.346254 -0.019663)
(1.62614 0.266796 0.0215421)
(1.36847 0.0629422 0.0218177)
(1.26972 0.112597 0.0107276)
(1.23463 0.107675 0.0202498)
(1.26605 0.044487 0.0118424)
(0.956039 -0.230803 -0.0108885)
(1.25428 -0.112971 0.00362065)
(1.4178 -0.755195 0.0719514)
(1.89869 -1.18015 -0.00248776)
(1.60306 -0.404464 -0.0374535)
(0.818919 -0.382219 0.00286056)
(0.20288 -0.160628 -0.00305266)
(0.411686 -0.221546 -0.058885)
(0.561772 -0.067258 -0.0699406)
(0.858772 0.169441 -0.0223993)
(0.764591 0.0490815 0.000153426)
(0.874724 0.30588 -0.0384908)
(1.24401 0.535254 -0.0278239)
(1.11049 0.321421 -0.0144404)
(1.35897 0.322913 -0.0449895)
(1.61933 0.341529 -0.000640082)
(1.38368 0.25632 0.0254238)
(1.39556 0.214298 0.041772)
(0.965896 -0.0654805 0.0360875)
(0.942445 -0.110332 0.00470371)
(1.13593 -0.0314184 -0.0645522)
(1.59632 -0.293781 0.0624678)
(1.08698 -1.80618 0.0173928)
(-0.353769 -0.292584 -0.00276138)
(0.136623 -0.269832 -0.0284324)
(0.0246573 -0.213192 0.0225157)
(0.157918 -0.0205587 0.025544)
(0.116652 -0.102306 -0.0119846)
(0.398702 0.0938924 0.00297479)
(0.637643 0.379204 0.0158285)
(0.45473 0.25289 -0.00986054)
(0.886289 0.336907 0.0221156)
(0.525723 0.265632 0.0296051)
(0.545239 0.158759 -0.000389111)
(0.70938 0.134442 0.0074558)
(0.360191 0.0355647 -0.0359851)
(0.631151 -0.0467567 -0.0333301)
(0.941077 0.0601641 -0.00393958)
(1.45111 -0.64705 -0.00523603)
(-0.142989 -0.102029 -0.217667)
(-0.157005 -0.0129632 -0.00753914)
(-0.57563 -0.322485 0.0210456)
(-0.404239 -0.19985 -0.00721654)
(-0.47875 -0.0103357 -0.00189347)
(-0.533504 -0.0465052 0.0205787)
(-0.58557 -0.0482215 0.0202819)
(-0.330757 0.273035 0.0115769)
(-0.216461 0.101576 0.0127947)
(0.0262319 0.183518 0.0208236)
(-0.164377 0.231072 -0.0273992)
(0.064323 0.0237513 -0.0161695)
(0.197619 0.232505 -0.0119677)
(0.27249 0.20444 -0.0408908)
(0.54568 -0.0691132 -0.0115807)
(1.2509 -0.0174389 -0.0273675)
(0.510283 0.170509 0.0270076)
(0.0438895 0.127841 -0.00320511)
(-0.208795 0.032267 0.0194398)
(-0.457462 -0.196971 0.0116424)
(-0.733995 0.0808787 -0.0422587)
(-0.487876 -0.246367 -0.00105103)
(-0.867582 -0.208782 0.0115768)
(-0.375358 -0.0218107 -0.0224335)
(-0.280158 -0.116257 0.00567035)
(-0.19832 0.118585 -0.00352029)
(-0.0394978 0.356077 -0.0454612)
(0.343513 -0.0307354 -0.0187217)
(0.292205 0.0425989 0.0013094)
(0.577364 0.0935088 -0.010216)
(0.889329 -0.131461 -0.0112808)
(1.61368 0.210538 -0.033479)
(0.0315346 0.812993 0.00275394)
(0.30247 0.836784 -0.168908)
(0.353609 -0.0816567 -0.0169566)
(0.216003 -0.125816 0.0149508)
(0.14844 0.0626968 0.018539)
(-0.272724 0.279528 0.0144828)
(0.13399 0.0478964 -0.0238289)
(-0.106715 -0.193532 0.0106541)
(0.0615385 -0.0670184 -0.00313687)
(0.227993 -0.0663906 -0.00991879)
(0.398832 -0.0356433 0.00539951)
(0.480859 0.121184 0.00794845)
(0.804931 -0.101938 -0.0033952)
(0.829618 -0.00921514 -0.00918853)
(1.12931 -0.106963 0.00218886)
(1.32906 -0.209576 -0.00144505)
(1.08092 0.354223 -0.000516991)
(1.2226 0.548336 0.078847)
(0.329626 1.60577 -0.0489148)
(-0.229951 0.062602 -0.00131141)
(1.1203 0.115812 -0.0684527)
(0.758085 0.0113582 -0.0330177)
(1.09764 0.0321326 -0.0647028)
(1.13844 0.074999 -0.0179704)
(1.25191 -0.12324 -0.00584607)
(1.25107 -0.214257 0.00284554)
(1.05579 -0.185552 0.0142321)
(1.16214 -0.216404 0.00289373)
(1.1795 -0.186905 -0.000642823)
(1.18021 -0.0517726 0.00221401)
(1.44541 -0.244449 0.00256495)
(1.29204 -0.221882 0.00208566)
(1.5401 -0.304678 -0.00634283)
(1.55049 -0.30491 -0.00572987)
(0.924777 0.0187172 0.0206327)
(1.20945 0.466246 -0.00938371)
(1.38051 0.545391 0.0295281)
(1.67923 0.653601 0.0437206)
(1.76581 0.24102 0.0448168)
(1.58095 0.105105 0.0172948)
(1.63571 0.110934 -0.0106717)
(1.60036 0.0751897 0.0114584)
(1.60432 0.0858316 0.00826084)
(1.67436 0.126552 0.00107314)
(1.69587 -0.0429317 0.0163511)
(1.56679 -0.127955 -0.000554936)
(1.56652 -0.12819 -0.0206884)
(1.65172 -0.117423 -0.00964037)
(1.52899 -0.0593678 -0.00524745)
(1.56201 -0.0975118 0.017167)
(1.44711 -0.173307 0.0217169)
(1.31292 -0.174346 -0.0193371)
(1.48801 -0.237689 -0.0215907)
(1.28312 -0.176602 -0.00256372)
(0.955885 0.0864764 -0.00361381)
(1.10016 0.222733 0.00858704)
(1.24049 0.302382 0.0119352)
(1.3859 0.0464101 0.00551454)
(1.48499 0.0746226 -0.0445971)
(1.50257 0.176311 -0.0132017)
(1.53956 0.116003 0.0150241)
(1.39147 -0.0882521 0.0330254)
(1.26914 -0.146233 0.0162481)
(1.38559 -0.0566255 0.00777841)
(1.48693 -0.176259 0.0013516)
(1.47424 -0.183918 -0.0149388)
(1.53762 -0.116679 -0.0195341)
(1.54979 -0.104127 0.00831235)
(1.3484 -0.140415 0.0372458)
(1.12891 -0.151992 0.016623)
(1.148 -0.190431 -0.0096259)
(1.11521 -0.147459 -0.0111828)
(1.09649 -0.122958 -0.000470083)
(1.00367 -0.126627 0.00493788)
(1.01699 0.0544675 -0.000995833)
(1.04163 0.104623 0.00300307)
(1.15016 0.137531 0.000634196)
(1.24748 0.172615 -0.0110903)
(1.35636 0.189875 -0.00876612)
(1.38907 0.174221 0.00979323)
(1.32919 0.062319 0.0183087)
(1.2887 -0.0210247 0.0104799)
(1.20841 -0.064296 0.00138629)
(1.25133 -0.0729209 -0.0166192)
(1.39967 -0.0361339 -0.0331308)
(1.4501 0.00445114 -0.0177034)
(1.38202 -0.0378705 0.0113877)
(1.2393 -0.102442 0.0209827)
(1.15178 -0.103364 0.00843574)
(1.11031 -0.078358 -0.00715423)
(1.16674 -0.0654282 -0.00734131)
(1.13492 -0.0307676 0.00515141)
(1.07353 -0.111787 0.006725)
(0.99783 -0.129847 0.000879401)
(1.01132 0.0500433 0.0021824)
(1.02244 0.0671051 -0.00139902)
(1.08711 0.119304 -0.00494699)
(1.13452 0.068378 -0.00307736)
(1.25238 0.0850632 0.00437036)
(1.27236 0.087198 0.0112669)
(1.24268 0.0178415 0.00961484)
(1.19793 -0.0256431 0.003755)
(1.20954 -0.0630704 -0.00880101)
(1.23047 -0.0273221 -0.0160594)
(1.29174 -0.00456545 -0.00648643)
(1.2718 -0.0462914 0.00698485)
(1.2076 -0.0843959 0.00961245)
(1.13995 -0.0987319 -0.000108957)
(1.13327 -0.123021 -0.00459147)
(1.10396 -0.103828 0.000452284)
(1.06595 -0.125359 0.00251184)
(1.03081 -0.122365 0.00096195)
(1.05182 -0.0834397 0.000284713)
(0.963794 -0.075335 0.000236628)
(1.00814 0.0172885 0.00103161)
(1.01589 0.0510566 -0.00112749)
(1.08133 0.0796683 -0.00280406)
(1.12304 0.0556942 0.000621356)
(1.15936 0.0527511 0.00469286)
(1.17945 0.0619483 0.00511969)
(1.19231 0.0421301 0.00199144)
(1.17044 -0.00518804 -0.00177552)
(1.19556 -0.0102152 -0.00403359)
(1.18323 -0.00261387 -0.00212496)
(1.20353 -0.00540622 0.00222616)
(1.18589 0.002467 0.00388984)
(1.15011 -0.0184952 0.00190324)
(1.11654 -0.0305393 0.000835049)
(1.09035 -0.0262249 -1.7764e-05)
(1.0452 -0.0272259 -0.00104405)
(1.04385 -0.0266546 -0.00046317)
(0.976622 -0.0234735 0.000400046)
(0.965498 -0.0509652 0.000771772)
(0.919165 -0.0499247 0.000492564)
(1.0052 0.0142147 0.000315685)
(1.00934 0.0276813 -0.000460015)
(1.06418 0.0449896 -0.000681025)
(1.08711 0.0198061 0.000396554)
(1.1151 0.0124883 0.00125592)
(1.12254 0.0236621 0.0009364)
(1.16753 0.0123813 -0.000229202)
(1.15851 -0.00319338 -0.000913219)
(1.15969 -0.0208338 -0.000760809)
(1.14893 -0.0187007 0.000107865)
(1.14545 -0.015495 0.000743452)
(1.13029 -0.0305323 0.000538812)
(1.12899 -0.0433233 0.000306946)
(1.08598 -0.0519694 1.71293e-05)
(1.07264 -0.0607429 -3.96289e-05)
(1.03414 -0.0553568 0.000164975)
(1.01914 -0.0614367 1.52922e-05)
(0.978643 -0.056134 -8.19867e-05)
(0.975463 -0.0485315 -4.04635e-05)
(0.911109 -0.0463592 -5.24827e-05)
(1.00543 0.00143816 7.52141e-05)
(1.00872 0.0096523 -0.000145307)
(1.05772 0.014859 -0.000173797)
(1.07726 0.0114135 0.000196565)
(1.10223 0.0134781 0.000374239)
(1.10883 0.0120358 0.000154432)
(1.14962 0.0131276 -0.000201487)
(1.1466 0.00688505 -0.000328542)
(1.15277 0.00351297 -0.00015568)
(1.13043 0.00495083 0.000101951)
(1.13545 0.00689305 0.000229419)
(1.11979 0.0113308 0.000180662)
(1.11288 0.0116247 3.45909e-05)
(1.07972 0.0115239 -7.05884e-05)
(1.06259 0.0126814 -8.31162e-05)
(1.02119 0.0123449 -4.89554e-05)
(1.0102 0.0135633 2.18791e-05)
(0.959756 0.0109584 5.59692e-05)
(0.955966 0.0025842 3.46858e-05)
(0.900657 0.00308885 1.79481e-05)
(1.00542 -0.00215843 5.57906e-06)
(1.0088 -0.0100006 0.000115584)
(1.05771 -0.0164828 -8.69442e-05)
(1.07712 -0.0141958 -0.000303736)
(1.10997 -0.0129617 -5.21158e-05)
(1.12867 -0.0199649 0.000394458)
(1.16909 -0.0196305 0.000526578)
(1.1795 -0.0204631 0.000344985)
(1.18658 -0.0143736 -0.000145181)
(1.16595 -0.0109901 -0.000534387)
(1.17042 -0.012651 -0.000491169)
(1.14043 -0.00832359 -0.000181708)
(1.13145 -0.0123886 0.000116366)
(1.0698 -0.00611336 0.000246604)
(1.04812 -0.00475057 0.000175907)
(0.988616 -0.00905204 -2.5573e-05)
(0.964754 -0.00718947 -0.000157468)
(0.91838 -0.000649923 -0.000124914)
(0.904749 0.0108059 -1.84144e-05)
(0.880024 0.00449065 8.28614e-06)
(1.00461 -0.0110305 1.02287e-05)
(1.01046 -0.0329247 0.000151019)
(1.06243 -0.0394812 6.12961e-05)
(1.08798 -0.0263414 -0.000648322)
(1.11685 -0.0231765 -0.000694376)
(1.13966 -0.0242608 0.000837426)
(1.18755 -0.0223216 0.00166262)
(1.18953 0.0059853 0.00042411)
(1.20442 0.0249614 -0.000318355)
(1.18413 0.0286262 -0.00138616)
(1.18543 0.03561 -0.00172296)
(1.15341 0.0398171 -0.00061372)
(1.14885 0.0708199 -7.8234e-05)
(1.0848 0.0749293 0.000113728)
(1.05316 0.0678637 0.00013055)
(1.00046 0.0768309 0.000689526)
(0.982062 0.0638988 0.000610549)
(0.941099 0.0471636 -9.02208e-05)
(0.920114 0.0199606 -0.00049157)
(0.885688 0.0151611 -0.000222967)
(1.00236 -0.0149205 -3.38612e-05)
(1.02085 -0.0588151 -0.00127939)
(1.08419 -0.0844976 0.00159128)
(1.10564 -0.0586424 0.00199397)
(1.15748 -0.049791 -0.00170435)
(1.19106 -0.0773502 -0.00395873)
(1.21444 -0.0646788 0.0013718)
(1.22707 -0.0353158 0.0059381)
(1.24217 -0.0134775 -0.00079238)
(1.22371 0.00914764 -0.00582348)
(1.22525 0.0142256 -0.00532049)
(1.2058 0.0191413 -0.00468463)
(1.17819 0.0377537 -0.000445967)
(1.09175 0.0679378 0.00254081)
(1.07612 0.0572293 0.00251368)
(1.00869 0.0472054 0.0009606)
(0.956417 0.0391312 0.000147491)
(0.905721 0.048997 -0.000229161)
(0.90837 0.0590997 -0.000798416)
(0.904351 0.0336968 -0.000103037)
(1.00011 -0.0332437 -0.000971263)
(1.02998 -0.0915098 -0.00490336)
(1.09208 -0.116016 0.00499928)
(1.14427 -0.0768719 0.00855221)
(1.2085 -0.0751109 0.00453177)
(1.23371 -0.0601857 -0.00766718)
(1.25853 -0.0539407 -0.0196669)
(1.26904 -0.0133586 -0.00493657)
(1.30057 0.0300031 0.0205741)
(1.30132 0.0587172 0.00303137)
(1.29087 0.0526189 -0.0205503)
(1.25779 0.0860525 -0.00395145)
(1.24436 0.184772 0.00686716)
(1.15208 0.166682 0.00297355)
(1.13317 0.134879 0.00281828)
(1.01994 0.172974 -0.000912375)
(0.992675 0.143214 -0.00453589)
(0.99505 0.0793475 -0.00751462)
(0.952864 0.014951 -0.00471049)
(0.919072 0.0143654 -9.82197e-05)
(0.994827 -0.0354593 -0.00202844)
(1.04248 -0.13545 -0.011265)
(1.13689 -0.205551 0.00632488)
(1.26723 -0.162212 0.0254515)
(1.31581 -0.0955154 0.00587277)
(1.27556 -0.101255 -0.0124685)
(1.33497 -0.0885233 -0.00844892)
(1.36468 -0.055362 -0.0339182)
(1.4214 -0.0488957 -0.0167694)
(1.39815 0.0291518 0.0464684)
(1.42544 0.053204 0.0307756)
(1.37594 0.0534935 -0.0323497)
(1.29171 0.119931 -0.0231418)
(1.19956 0.158065 0.0252666)
(1.17914 0.18304 0.0275853)
(1.0902 0.193251 0.0199049)
(1.07452 0.078075 0.0151418)
(1.02911 0.102602 -0.00587657)
(0.969006 0.146722 -0.018025)
(0.998934 0.0697595 -0.00760707)
(1.00492 -0.0687398 0.00318874)
(1.00535 -0.168936 -0.00961352)
(1.20774 -0.335913 -0.0344825)
(1.45084 -0.210554 0.023476)
(1.47998 -0.0921118 0.0729126)
(1.38772 -0.060264 0.0090846)
(1.43084 -0.0788556 -0.0128887)
(1.50904 -0.00490167 0.0275658)
(1.58674 0.0507945 0.00140795)
(1.5974 0.101262 0.00322739)
(1.62308 0.0562259 0.0593991)
(1.60587 0.224043 0.0218377)
(1.38367 0.371413 -0.0374206)
(1.26024 0.254271 -0.0425062)
(1.20179 0.217724 0.00819525)
(1.03539 0.244655 0.0382664)
(1.03968 0.18376 0.0525265)
(0.956932 0.17338 0.0452969)
(1.02925 0.0481863 -0.0236244)
(1.08315 -0.00576056 -0.0343439)
(1.06182 -0.0428402 0.00932371)
(1.00994 -0.320431 -0.0412883)
(1.36956 -0.623298 -0.00704532)
(1.59878 -0.5135 -0.0231782)
(1.75431 -0.189505 0.0376344)
(1.62291 -0.0623725 0.0608542)
(1.61827 -0.117741 0.037612)
(1.6887 -0.0463039 0.0560187)
(1.68588 -0.0547565 0.0171564)
(1.81055 0.0679469 -0.0209587)
(1.68528 -0.0199429 -0.0237598)
(1.7333 0.222914 0.0105532)
(1.70337 0.413741 -0.00192078)
(1.52687 0.258343 -0.0982328)
(1.48525 0.326201 -0.0627487)
(1.33245 0.320525 0.0325558)
(1.29932 0.12879 0.0441397)
(1.25252 0.0918693 0.0146095)
(1.24634 0.036931 0.016187)
(1.29468 0.0100335 0.00951876)
(1.06815 -0.0478573 -0.0228824)
(1.06557 -0.51604 -0.0119915)
(1.84674 -0.852534 0.13213)
(1.84313 -0.68739 0.0230486)
(1.69746 0.055355 -0.109232)
(1.44674 -0.155351 0.0675087)
(0.776449 -0.0415989 0.0251246)
(1.0924 -0.0682496 -0.0368888)
(0.961646 -0.135764 -0.0647926)
(1.0997 0.0719626 -0.0497336)
(1.04884 0.000857379 -0.0337171)
(1.21198 0.228084 -0.0465071)
(1.40121 0.496398 -0.0401143)
(1.35353 0.351324 -0.0239428)
(1.42043 0.434315 -0.0671323)
(1.51276 0.379201 -0.0179813)
(1.41464 0.232198 0.0107988)
(1.44136 0.244393 0.0474242)
(1.28458 0.0630268 0.100103)
(1.23981 -0.0257528 0.0395836)
(1.22065 -0.0178064 -0.048711)
(1.08365 -1.00455 0.151752)
(2.04047 -1.06126 0.048139)
(-0.481617 -0.33792 -0.025588)
(0.0378534 -0.298762 -0.0634024)
(-0.0966625 -0.252145 0.0243248)
(0.289125 -0.0180967 0.0135445)
(0.211815 -0.103701 -0.0334609)
(0.360885 -0.0184858 -0.00160475)
(0.739491 0.28617 0.0456716)
(0.577745 0.206649 -0.0076569)
(0.913524 0.257705 0.0182136)
(0.97169 0.315135 0.0725593)
(0.870944 0.277421 0.025214)
(1.09831 0.240637 0.0454395)
(0.807147 0.156179 -0.034343)
(0.770003 0.0100381 -0.0595889)
(0.457276 0.166832 0.0881988)
(2.49818 -0.63108 -0.106864)
(0.268025 -0.502364 -0.0846195)
(-0.219367 -0.0430819 -0.0308806)
(-0.552002 -0.329084 0.0337313)
(-0.310865 -0.221602 -0.0209215)
(-0.54605 -0.0188927 0.00920929)
(-0.486488 -0.0478921 0.040473)
(-0.517169 -0.0783319 0.0398929)
(-0.214789 0.296567 0.0270797)
(-0.212729 0.104351 0.0109705)
(0.228061 0.216703 0.0464157)
(0.0976401 0.343661 -0.00819345)
(0.152176 0.101918 -0.0111484)
(0.415756 0.286701 -0.0185908)
(0.262833 0.219291 -0.0796317)
(0.487042 -0.0623852 -0.0280716)
(1.48747 -0.152236 -0.0518184)
(0.332149 -0.0150587 0.275606)
(0.0535338 0.0731182 -0.0236925)
(-0.343394 0.0342372 0.0234426)
(-0.238968 -0.224193 0.0238232)
(-0.688803 0.0910727 -0.0477054)
(-0.627035 -0.188768 0.000445163)
(-0.790017 -0.18894 0.0182896)
(-0.350758 0.0393315 -0.038466)
(-0.334584 -0.10484 0.007905)
(-0.0196567 0.0735625 0.00670294)
(0.00148298 0.293758 -0.0664072)
(0.242798 -0.0324329 -0.0240428)
(0.247911 0.105264 0.0079345)
(0.586177 0.070147 -0.0321359)
(0.816063 -0.142946 -0.028627)
(1.55196 0.104681 -0.0583126)
(0.153448 0.700026 0.144898)
(0.682488 0.898782 -0.530877)
(0.0908807 0.155561 -0.0627604)
(0.213768 -0.171355 0.019683)
(0.00842627 0.0581014 0.0351613)
(-0.0884701 0.230083 0.00212022)
(0.076743 0.0125787 -0.0539956)
(-0.133256 -0.238407 0.000508613)
(0.129573 -0.127249 -0.0376264)
(0.252255 -0.126486 -0.0399432)
(0.41752 -0.0922996 0.00858793)
(0.506802 0.0725842 0.0262584)
(0.883164 -0.131595 -0.00468221)
(0.837835 -0.0198717 -0.0116578)
(1.14969 -0.151067 0.0104649)
(1.31262 -0.242236 -0.00138671)
(0.946708 0.103833 0.0130446)
(1.20658 0.793095 0.0962119)
(0.729129 0.551798 0.0714418)
(-0.00840812 0.0136348 -0.0307728)
(1.22609 0.0570426 -0.0776994)
(1.11709 -0.0910605 -0.039601)
(1.04727 0.0152856 -0.0685813)
(0.941537 0.112318 0.0213087)
(1.02711 -0.11921 0.0302452)
(0.964969 -0.189611 0.0278426)
(0.89158 -0.183283 0.0204173)
(1.07369 -0.259959 -0.00429465)
(1.12806 -0.214798 -0.00630231)
(1.21204 -0.0868381 -0.000946543)
(1.44838 -0.263476 0.00977203)
(1.36097 -0.20548 0.013787)
(1.57133 -0.285916 -0.00254588)
(1.50221 -0.297134 -0.0058693)
(0.930201 0.012178 0.033804)
(1.13465 0.410163 -0.0195812)
(1.58107 0.61471 0.0453586)
(1.71965 0.236251 -0.0289014)
(1.7498 -0.147794 0.109057)
(1.61119 0.021831 0.00226478)
(1.63751 -0.00387041 0.00471787)
(1.63284 -0.0683599 0.0468642)
(1.66143 0.0306937 0.0199941)
(1.65009 0.133119 0.0201738)
(1.65054 -0.0374902 0.0507703)
(1.57805 -0.168973 0.00447011)
(1.47878 -0.200461 -0.0298001)
(1.54169 -0.239543 -0.00163822)
(1.45568 -0.207962 -0.00118849)
(1.47025 -0.168754 0.0343607)
(1.55189 -0.220405 0.0398193)
(1.44254 -0.193838 -0.0312858)
(1.44487 -0.239302 -0.0337276)
(1.24975 -0.190804 -0.00270791)
(0.948985 0.0686556 -0.0130886)
(1.08945 0.246701 0.0200667)
(1.25128 0.34231 0.0421784)
(1.47563 0.076983 0.00990102)
(1.50402 0.0149192 -0.113624)
(1.44917 0.0360561 -0.0432214)
(1.48856 0.0190372 0.0379996)
(1.44902 -0.0799138 0.0665752)
(1.39384 -0.0515746 0.0203845)
(1.43562 0.0587771 -0.00355146)
(1.55991 -0.0684564 -0.0231338)
(1.50865 -0.146456 -0.0456446)
(1.44349 -0.195411 -0.0323278)
(1.34307 -0.205408 0.0348592)
(1.22831 -0.187991 0.0832418)
(1.1828 -0.139802 0.0292371)
(1.14843 -0.162477 -0.0229298)
(1.04034 -0.156385 -0.0285066)
(0.992673 -0.140517 -0.00671466)
(0.936412 -0.132468 0.00904053)
(1.00421 0.0258286 -0.00509908)
(1.03778 0.140163 0.0114179)
(1.18316 0.19778 0.00430951)
(1.27107 0.160374 -0.0342103)
(1.33352 0.107618 -0.0256675)
(1.32759 0.0711731 0.0215804)
(1.30879 0.00968938 0.0368308)
(1.31539 -0.0183821 0.00976825)
(1.26611 0.00469754 -0.0168797)
(1.3569 0.0123204 -0.0493598)
(1.40694 -0.0328861 -0.0656945)
(1.35918 -0.0591596 -0.0247875)
(1.29441 -0.0811117 0.0300688)
(1.22065 -0.0871819 0.042109)
(1.18438 -0.0783635 0.0167631)
(1.1191 -0.086029 -0.0132245)
(1.12848 -0.088517 -0.0140046)
(1.09476 -0.0508236 0.0117538)
(1.08634 -0.117644 0.0128781)
(1.0161 -0.127119 0.000667963)
(1.0066 0.0380062 0.00277465)
(1.01975 0.0836885 -0.000785348)
(1.10406 0.147777 -0.00996469)
(1.14049 0.0519888 -0.00724898)
(1.23076 0.0324768 0.00796802)
(1.24993 0.0453868 0.0214738)
(1.23424 0.0110798 0.014695)
(1.21113 -0.00401322 -8.14127e-05)
(1.241 -0.0338523 -0.0239313)
(1.23957 -0.0239257 -0.033597)
(1.26476 -0.0320535 -0.0109023)
(1.22665 -0.0774185 0.014677)
(1.19106 -0.0978349 0.0155584)
(1.1536 -0.102409 -0.0052728)
(1.13609 -0.121162 -0.0136762)
(1.09991 -0.0981861 -0.00173055)
(1.06847 -0.123757 0.00267113)
(1.02805 -0.124628 -0.00143026)
(1.03971 -0.0891676 -0.00245685)
(0.957725 -0.0798515 -0.00112992)
(1.00696 0.013966 0.00167883)
(1.01513 0.0565319 -0.00205972)
(1.08607 0.0864062 -0.00529094)
(1.12479 0.049752 0.00144362)
(1.15284 0.0392813 0.00845377)
(1.17233 0.0544529 0.00828197)
(1.19247 0.0462818 0.00153464)
(1.17619 0.00314007 -0.00639463)
(1.2007 -0.00549648 -0.00983953)
(1.18055 -0.00546965 -0.00462327)
(1.19299 -0.0122468 0.00402319)
(1.17979 -0.00100533 0.00653223)
(1.14841 -0.0201839 0.00256633)
(1.11599 -0.0309318 0.000734969)
(1.0931 -0.0265502 -0.000566274)
(1.0464 -0.0289822 -0.00267625)
(1.04145 -0.0267673 -0.00132032)
(0.974978 -0.0227217 0.000828598)
(0.965457 -0.0505249 0.00191052)
(0.91904 -0.0493238 0.00123936)
(1.00494 0.0135253 0.000547096)
(1.00923 0.0289866 -0.000893146)
(1.06516 0.0464801 -0.00125687)
(1.08731 0.0180231 0.000879974)
(1.11386 0.00922675 0.00222605)
(1.12146 0.022534 0.00132343)
(1.16786 0.0141076 -0.000962494)
(1.1599 -0.000714299 -0.00223161)
(1.16042 -0.0197153 -0.00180042)
(1.14804 -0.0198177 -8.35897e-05)
(1.14387 -0.017605 0.00108914)
(1.12929 -0.0321295 0.000809034)
(1.12905 -0.0434231 0.000411537)
(1.0865 -0.0510954 -0.000139263)
(1.07275 -0.0598779 -0.000186817)
(1.03403 -0.054933 0.000326504)
(1.01909 -0.0618752 1.68135e-05)
(0.978477 -0.0567603 -0.000291214)
(0.975318 -0.0488278 -0.000246958)
(0.911125 -0.0465222 -0.00018696)
(1.00539 0.00132635 0.000139155)
(1.00868 0.00984819 -0.000279703)
(1.05788 0.0150596 -0.000322852)
(1.07738 0.0111876 0.000400191)
(1.1021 0.0130826 0.000689158)
(1.10864 0.0119271 0.000174872)
(1.1496 0.0133907 -0.000515861)
(1.14677 0.00720532 -0.000747178)
(1.15293 0.00367516 -0.000410571)
(1.13042 0.00489499 0.000124624)
(1.13533 0.00676583 0.000395033)
(1.11967 0.0113012 0.000305167)
(1.11284 0.0115314 2.6454e-05)
(1.07977 0.0113576 -0.000173712)
(1.06266 0.0125507 -0.000195457)
(1.02123 0.0122758 -0.000125617)
(1.01016 0.0136876 2.80923e-05)
(0.959697 0.0110893 0.000103602)
(0.955945 0.00258655 8.01121e-05)
(0.900648 0.0030971 3.9438e-05)
(1.00545 -0.00216742 7.9154e-07)
(1.00876 -0.00992526 6.17685e-05)
(1.05764 -0.0164908 -2.39206e-05)
(1.07717 -0.0143627 -0.000153579)
(1.11006 -0.0130854 -7.02566e-05)
(1.12872 -0.0198091 0.000150538)
(1.16903 -0.01934 0.000266076)
(1.17929 -0.0203058 0.000201687)
(1.18643 -0.0143746 -8.36143e-05)
(1.16603 -0.0111968 -0.00033755)
(1.17063 -0.0129043 -0.000327891)
(1.14057 -0.00846556 -0.000159411)
(1.13144 -0.0125256 9.03273e-06)
(1.06971 -0.00630937 9.70739e-05)
(1.04806 -0.00479668 6.59405e-05)
(0.988647 -0.00882269 -4.32138e-05)
(0.964868 -0.00692319 -9.54138e-05)
(0.918471 -0.000625266 -5.10179e-05)
(0.904761 0.0106327 9.85558e-06)
(0.880019 0.00441964 6.32261e-06)
(1.0048 -0.0110354 -1.12637e-05)
(1.01005 -0.0323919 8.06817e-05)
(1.06203 -0.0397232 0.000112052)
(1.08878 -0.0276826 -0.000310611)
(1.11775 -0.0236938 -0.000487921)
(1.13908 -0.0229302 0.000267999)
(1.18617 -0.0200323 0.000775563)
(1.18856 0.00763981 0.00030323)
(1.20438 0.0238964 -0.000186847)
(1.18543 0.0254431 -0.000925646)
(1.18696 0.0327835 -0.00121891)
(1.15408 0.0386486 -0.000595678)
(1.14867 0.0711872 -9.71242e-05)
(1.08429 0.0760548 3.51159e-05)
(1.05308 0.0684171 6.36212e-05)
(1.00072 0.0761251 0.000319975)
(0.982017 0.0626888 0.000234543)
(0.941004 0.0467832 -0.000196653)
(0.920314 0.0203442 -0.000393781)
(0.88581 0.0153072 -0.000163401)
(1.00294 -0.0148819 -0.00012056)
(1.02012 -0.0576205 -0.00065841)
(1.08181 -0.0843639 0.00124594)
(1.10702 -0.062708 0.00107091)
(1.16312 -0.0533123 -0.00140304)
(1.19182 -0.0730104 -0.00277449)
(1.20669 -0.0571172 3.19742e-05)
(1.22139 -0.0336365 0.00280018)
(1.24526 -0.0168446 -0.000174709)
(1.23333 -0.000363349 -0.00338998)
(1.23557 0.00356509 -0.00359348)
(1.21005 0.0150684 -0.00339809)
(1.17533 0.0377559 -0.00134967)
(1.08906 0.0679832 0.000513142)
(1.07325 0.0568992 0.000874763)
(1.00507 0.0501851 0.000477866)
(0.956519 0.0416047 0.000169764)
(0.907096 0.0468642 0.000629586)
(0.908012 0.0551652 0.000343956)
(0.903649 0.0321793 5.4107e-05)
(1.00054 -0.0342088 -0.000693467)
(1.03204 -0.0950794 -0.00303016)
(1.08816 -0.106147 0.00428542)
(1.13908 -0.0742071 0.00564135)
(1.21355 -0.0879415 0.000722321)
(1.24769 -0.0742483 -0.00650449)
(1.25969 -0.0473757 -0.0123113)
(1.242 0.00428694 -0.00468563)
(1.29745 0.0132448 0.0103117)
(1.33384 0.0173335 0.00247755)
(1.32443 0.0206178 -0.0108137)
(1.27459 0.0631214 -0.00384009)
(1.25682 0.177125 0.00265031)
(1.14935 0.172054 -0.000308527)
(1.13838 0.14523 -0.00250201)
(1.0452 0.175482 -0.00396199)
(1.01018 0.139698 -0.00584229)
(1.00077 0.0855622 -0.00813858)
(0.950949 0.0205067 -0.00559649)
(0.914727 0.0152313 -0.00143363)
(0.99452 -0.0433218 -0.000363612)
(1.05592 -0.160252 -0.0080835)
(1.13011 -0.158224 0.00781005)
(1.2445 -0.121745 0.0191728)
(1.31649 -0.104732 0.00370855)
(1.29159 -0.154352 -0.0119886)
(1.38886 -0.165378 -0.0133626)
(1.41671 -0.0914966 -0.0250399)
(1.3444 -0.00627553 -0.0169825)
(1.39166 0.00784906 0.0230493)
(1.54308 -0.0514011 0.0180915)
(1.43083 0.0337034 -0.0160466)
(1.22022 0.160654 -0.0136845)
(1.14822 0.159256 0.0132819)
(1.18763 0.133174 0.0169189)
(1.10596 0.150496 0.0139106)
(1.15643 0.0455361 0.0114451)
(1.13771 0.0451731 -0.000894479)
(1.02399 0.10219 -0.0113159)
(0.995523 0.0575405 -0.00658522)
(0.983269 -0.0832292 0.00493966)
(1.06388 -0.244654 -0.00704996)
(1.18776 -0.227391 -0.0159396)
(1.3541 -0.0381755 0.0294202)
(1.49847 -0.110711 0.0480485)
(1.50284 -0.2258 0.00730865)
(1.49702 -0.224197 -0.0199048)
(1.54633 -0.130124 -0.00417869)
(1.69964 -0.0711335 -0.0106229)
(1.55477 0.096764 -0.00596719)
(1.56697 0.112473 0.0338806)
(1.68644 0.188369 0.0152412)
(1.41974 0.323644 -0.0205682)
(1.13921 0.300929 -0.0168022)
(1.04446 0.309736 0.0113099)
(0.979674 0.296354 0.022351)
(1.04172 0.185987 0.0301404)
(1.10292 0.172766 0.029466)
(1.22677 0.0383474 -0.00376919)
(1.17484 -0.012865 -0.0136539)
(1.01612 -0.0379974 -0.00974611)
(1.00124 -0.423962 0.00955963)
(1.32644 -0.562976 -0.0540139)
(1.71057 -0.430718 -0.0379368)
(1.516 0.134199 0.0100418)
(1.79735 -0.124863 0.0356521)
(1.7531 -0.338901 0.0188204)
(1.73679 -0.18515 0.0188595)
(1.76023 -0.0713942 0.0155199)
(1.84916 0.124387 0.00179095)
(1.71521 0.0793515 -0.00408464)
(1.75094 0.254195 0.00972287)
(1.85739 0.406334 0.00427202)
(1.60725 0.261527 -0.0377119)
(1.23458 0.328484 -0.0211584)
(1.10646 0.332259 0.0263025)
(1.24884 0.173689 0.0312975)
(1.31737 0.120512 0.01284)
(1.35612 -0.0301381 0.00595105)
(1.3334 -0.0549843 0.00317088)
(1.15237 -0.101955 -0.0332449)
(0.752401 -0.549244 0.015971)
(1.49972 -1.0421 0.021104)
(1.74048 -0.729091 -0.0477219)
(1.70164 0.144492 -0.0499281)
(1.57842 -0.012326 0.0566487)
(1.12995 0.0589294 0.0067464)
(1.32985 0.067846 -0.0117902)
(1.20147 -0.0453199 -0.010168)
(1.37972 0.133053 -0.00998538)
(1.2351 0.0397504 -0.0233463)
(1.32475 0.199659 -0.0262256)
(1.47681 0.456739 -0.0164484)
(1.39302 0.307863 -0.0185583)
(1.35466 0.484118 -0.0328372)
(1.29876 0.438825 -0.00319104)
(1.35587 0.239217 0.00840242)
(1.28242 0.195643 0.0159034)
(1.34805 0.086541 0.0520298)