/*--------------------------------*- C++ -*----------------------------------*\
  =========                 |
  \\      /  F ield         | OpenFOAM: The Open Source CFD Toolbox
   \\    /   O peration     | Website:  https://openfoam.org
    \\  /    A nd           | Version:  8
     \\/     M anipulation  |
\*---------------------------------------------------------------------------*/
FoamFile
{
    version     2.0;
    format      ascii;
    class       volVectorField;
    location    "95";
    object      U;
}
// * * * * * * * * * * * * * * * * * * * * * * * * * * * * * * * * * * * * * //

dimensions      [0 1 -1 0 0 0 0];

internalField   nonuniform List<vector> 
2844
(
(0.987252 -0.00720006 -0.000165042)
(1.04728 0.00177794 0.000288005)
(1.01342 -0.0129526 -9.62528e-05)
(1.07618 -0.0154248 -0.000414271)
(1.06846 -0.0145714 0.000232945)
(1.10731 -0.0260573 -3.18497e-05)
(1.07539 0.000764687 0.000490831)
(1.06613 -0.00281762 -0.000229306)
(1.04709 -0.00521721 3.0089e-05)
(1.01746 0.00430825 0.000109385)
(0.972956 0.0035782 -0.000262715)
(0.924593 0.00208406 0.000150781)
(0.882063 -0.00780222 -0.000160319)
(0.864324 -0.0124616 -0.000409422)
(0.868926 -0.0228093 -0.00011543)
(0.909081 -0.0376944 -0.000423734)
(0.984645 -0.0274812 -0.000424173)
(0.994967 -0.0278192 -0.000257871)
(1.02839 -0.00926492 -0.000221728)
(1.01151 0.00462003 -0.000109823)
(0.992347 -0.0224888 -0.00028032)
(1.04698 -0.0229632 0.000443508)
(1.01144 -0.0127926 0.000107896)
(1.10059 -0.0190594 -0.000814192)
(1.05707 -0.0128128 -6.9833e-05)
(1.12737 0.0284045 0.000206556)
(1.10848 0.0263253 0.00115362)
(1.05752 0.0291885 -8.94576e-05)
(1.06485 0.042719 3.28631e-05)
(1.04139 0.0563705 -1.85861e-05)
(0.976063 0.0722879 -7.19325e-05)
(0.91982 0.0715267 9.11277e-05)
(0.884939 0.0602151 -0.000389548)
(0.859263 0.0249678 -0.00106078)
(0.851073 -0.010563 -0.00125984)
(0.918666 -0.0531997 -0.0014724)
(1.00612 -0.0344295 -0.00122123)
(1.01447 -0.000235205 -0.000629435)
(1.06566 -0.001828 0.000137162)
(1.03294 0.00809032 -1.55968e-05)
(0.969811 -0.0383219 0.000220313)
(1.05536 -0.0233906 -0.000174582)
(1.09342 -0.0609091 -0.00074609)
(1.09383 -0.0475359 -0.00020387)
(1.10571 -0.0334137 0.000247621)
(1.17616 -0.0682052 0.00208029)
(1.10308 0.0446408 0.00496881)
(1.09647 0.0315983 0.00183554)
(1.10598 0.00185241 -0.000398748)
(1.0579 0.0755075 0.000868701)
(0.986842 0.0963663 -0.00117459)
(0.966734 0.0748104 0.000270223)
(0.877095 0.0417713 0.000987006)
(0.805662 0.0219033 -0.0028767)
(0.852022 -0.0569467 -0.00626542)
(0.943663 -0.153371 -0.00706826)
(1.04518 -0.0868954 -0.00239992)
(1.05127 -0.0630372 0.000553142)
(1.04837 -0.0239999 -0.00185427)
(1.02249 0.0302343 -0.00227146)
(0.966831 -0.0479589 0.00310001)
(1.06019 -0.100912 0.0015054)
(1.1164 -0.045267 -0.00890467)
(1.14386 -0.00916077 -0.00436741)
(1.17394 -0.0684767 0.00643176)
(1.16888 0.0230984 0.0042672)
(1.22367 0.0449042 0.00524237)
(1.21018 0.0169243 0.00859293)
(1.1598 0.0808601 0.0069795)
(1.09343 0.147916 -0.00264568)
(1.00057 0.170873 -0.00212954)
(0.996069 0.159518 0.00339537)
(0.835503 0.185355 -0.00154862)
(0.776607 0.0771075 -0.00714984)
(0.816617 -0.0525373 -0.0131313)
(0.967789 -0.136335 -0.00625965)
(1.0594 -0.0791944 -0.00020176)
(1.08762 0.0107086 -0.0145642)
(1.22128 0.0481108 -0.00985891)
(1.15965 0.0527137 -0.000304479)
(1.03013 -0.0902131 0.00623307)
(1.06287 -0.179099 0.00120625)
(1.11053 -0.0641532 -0.0123117)
(1.29164 -0.0712073 -0.0126396)
(1.29196 -0.085159 -0.000845875)
(1.26578 -0.155627 0.00334657)
(1.38372 -0.0254635 0.00817099)
(1.31861 0.00161423 0.0256158)
(1.24319 0.0348603 0.0111874)
(1.16986 0.223038 -0.00133255)
(1.07586 0.180105 0.000192471)
(1.03995 0.182011 0.000937108)
(0.936453 0.229942 0.00208779)
(0.807618 0.109071 -0.0106208)
(0.646785 -0.0999543 -0.00400971)
(0.822857 -0.327386 -0.00497264)
(1.2281 -0.158292 -0.00467143)
(1.31685 -0.0439447 0.0152958)
(1.26071 0.0105972 0.0152114)
(1.07049 0.0848981 -0.00239065)
(1.03472 -0.185361 0.000108579)
(1.02466 -0.0721995 0.00363959)
(1.17647 -0.186687 0.0101601)
(1.39221 -0.018981 0.0022097)
(1.44673 -0.0194552 0.00397709)
(1.59015 -0.0290583 -0.0021878)
(1.50391 -0.0164378 0.0146155)
(1.46406 -0.0948025 -0.00705302)
(1.52117 0.0881735 -0.0051764)
(1.27893 0.307772 0.0272822)
(1.09255 0.331678 0.00276671)
(1.1019 0.285883 -0.0113204)
(0.793697 0.35321 0.000953201)
(0.601192 0.411251 -0.0156968)
(0.687513 -0.0148418 0.00914921)
(0.609494 -0.591635 0.00997624)
(1.10336 -0.443548 0.00620572)
(1.29808 -0.142145 0.0210285)
(1.38012 0.115408 0.0116274)
(1.28534 0.221301 8.06402e-05)
(0.994332 -0.175368 -0.000823176)
(1.13026 -0.279616 -0.00562545)
(1.27597 -0.499554 0.0998279)
(1.48761 -0.481865 0.0605587)
(1.67741 -0.375926 0.00696675)
(1.62549 -0.105593 -0.000876293)
(1.523 0.160733 -0.00359816)
(1.52109 -0.00825013 -0.0358091)
(1.80211 0.311566 0.0507307)
(0.990432 0.426336 0.0434172)
(0.740609 0.20545 -0.0918897)
(1.35431 0.402957 -0.0144778)
(1.10558 0.596757 0.0178975)
(1.06635 0.381918 0.0398932)
(0.9932 -0.145701 0.0810118)
(0.464742 -0.761958 0.0381413)
(0.683523 -0.811387 -0.0314528)
(0.980561 -0.480886 -0.0261536)
(1.16032 -0.0255511 0.00370983)
(1.10121 0.196025 0.00831915)
(1.02417 -0.232463 0.0170229)
(1.17503 -0.102504 -0.0108657)
(1.12992 -1.51852 0.0515257)
(1.61793 -1.37799 -0.0348549)
(1.57775 -0.0851371 -0.0240945)
(1.45225 0.13177 0.00841956)
(1.38095 0.290534 -0.0407743)
(1.35173 0.163995 -0.0866956)
(1.65221 0.212156 0.0280306)
(1.50763 0.697333 -0.0506595)
(1.79037 0.781195 0.0467692)
(1.04904 0.432478 0.0563349)
(0.838641 0.425162 -0.0315428)
(1.23186 0.179286 0.0787167)
(1.05585 -0.0258796 0.093377)
(0.641491 -0.550077 0.00987086)
(0.521358 -0.634216 -0.0580649)
(0.80956 -0.352438 -0.0699574)
(1.12511 0.0147416 -0.0294379)
(0.982251 0.236385 -0.0042813)
(1.22188 -0.191354 0.0210903)
(1.17107 -0.535543 0.0161647)
(1.43564 -1.96045 -0.0338287)
(-0.0919147 -0.25611 -0.035219)
(0.63667 0.114005 0.0646234)
(0.396102 -0.216671 0.0237671)
(1.33203 0.493949 -0.00289979)
(1.1599 0.51265 0.0706735)
(1.21264 0.661272 -0.0447603)
(1.28213 0.5163 0.0248175)
(0.737019 -0.0147171 0.0307624)
(0.615987 -0.254565 -0.0765542)
(0.744815 -0.680045 -0.0522051)
(0.49082 -0.697998 0.00331577)
(0.489879 -0.511457 -0.00430633)
(0.924358 0.0404359 -0.00347756)
(0.951807 0.31163 0.00224459)
(0.293527 -0.00907822 0.00075606)
(1.48478 -0.655976 -0.00486934)
(0.00661132 -0.161922 -0.262678)
(-0.0454586 -0.271186 -0.00392935)
(-0.267061 -0.692637 0.0442717)
(-0.108052 -0.582439 -0.071622)
(0.933097 0.404516 0.0295378)
(0.405027 0.295168 -0.0678441)
(1.42938 0.304877 -0.0178168)
(1.21489 0.828362 0.0528788)
(0.959639 0.668661 -0.0206544)
(1.15794 0.334502 -0.028414)
(1.35533 -0.180366 0.00717908)
(1.09117 -0.508966 0.0284464)
(0.696442 -0.713618 0.0185001)
(0.910975 -0.389079 0.0247204)
(1.07028 0.157212 0.0169674)
(0.766746 0.0685384 0.0360524)
(-1.00762 0.103696 -0.0692731)
(-0.0097435 0.0712161 -0.0283973)
(-0.105033 -0.0459941 -0.0114845)
(-0.055125 -0.613968 0.0359071)
(0.191471 0.0857592 0.0133383)
(0.444401 0.335019 -0.142543)
(0.616674 0.438648 0.0303185)
(0.437548 0.914281 0.0370996)
(0.852992 0.141121 0.0193751)
(1.01538 -0.362197 0.0444074)
(1.19803 -0.622062 0.0124582)
(1.5054 -0.499785 -0.0264791)
(1.22234 -0.506247 -0.00664908)
(0.814574 -0.415553 0.0219984)
(0.901691 0.0933843 0.0135883)
(1.59763 0.143633 -0.0457045)
(1.15131 0.253442 0.0644007)
(0.233731 0.655085 -0.106269)
(0.388027 -0.088632 -0.00924847)
(0.237593 -0.325471 0.0157376)
(0.30301 -0.66451 -0.0502833)
(0.12977 0.0348849 0.101506)
(-0.0660899 0.593093 0.0523539)
(-0.0917998 0.372302 -0.033485)
(0.54862 0.468153 -0.0178741)
(1.19044 0.032602 0.00567947)
(1.11719 -0.193083 0.0346929)
(0.824602 -0.604327 -0.00378287)
(1.01668 -0.31981 -0.0635824)
(1.19711 -0.115654 -0.0283581)
(0.882893 -0.270839 0.0107542)
(0.933736 0.0339335 0.0124789)
(1.145 0.366938 0.0112263)
(1.00415 0.388865 0.0735143)
(0.506497 1.45247 -0.000479159)
(0.263042 -0.128654 0.00785125)
(1.45915 -0.237654 -0.025927)
(1.45818 -0.342203 0.0387287)
(1.28349 -0.375763 -0.0922076)
(1.55295 -0.382134 -0.0722757)
(0.982598 0.0439488 0.110813)
(0.572381 0.311756 0.0212407)
(0.989724 0.142342 -0.0646764)
(1.51694 -0.289145 -0.0413336)
(1.65004 -0.298301 0.0285034)
(1.15067 -0.500346 0.045385)
(0.803071 -0.441099 -0.031434)
(1.12666 -0.292696 -0.0396113)
(1.35998 -0.347236 -0.0165523)
(1.25805 -0.0745499 -0.0087464)
(0.997053 0.0564759 0.0180791)
(1.14603 0.443083 -0.0227747)
(1.38979 0.446464 0.0357464)
(1.69751 0.246523 0.0468475)
(2.05039 0.220465 0.0619725)
(1.61908 -0.363207 -0.0477328)
(1.63956 0.103845 -0.0406888)
(1.54757 -0.207281 -0.0224418)
(1.30786 -0.225781 0.0460348)
(1.25673 0.237171 -0.0150117)
(1.28714 0.278464 -0.014627)
(1.33295 0.295854 0.00545239)
(1.55455 0.263759 0.0201824)
(1.46896 -0.115929 -0.0151083)
(1.48245 -0.252948 -0.0336556)
(1.38818 -0.248246 0.0124109)
(0.935085 -0.127208 0.0235547)
(0.930176 -0.328873 0.0136213)
(0.831112 -0.255991 0.00181448)
(0.830469 0.151162 -0.0124218)
(0.950882 0.0961976 -0.000391873)
(1.11073 0.274949 0.0122756)
(1.21833 0.142759 0.00432016)
(1.32266 -0.0644483 -0.00733675)
(1.62848 -0.007337 -0.0522329)
(1.341 -0.0875566 -0.0342454)
(1.42172 0.00507174 0.0143742)
(1.36423 -0.12647 0.0389145)
(0.951417 -0.265673 0.0203834)
(0.988214 -0.117311 -0.00546017)
(1.18483 0.0740082 -0.0168486)
(1.41478 0.0655447 -0.0125792)
(1.56928 0.0137779 0.0186683)
(1.45015 -0.0774843 0.0227916)
(1.25986 -0.0886209 -0.0114493)
(1.29207 -0.21476 -0.0264212)
(1.27555 -0.210077 -0.0143301)
(1.32014 -0.313091 -0.0048356)
(1.06799 -0.288321 0.0129908)
(0.935194 0.0476005 0.0129943)
(0.983989 0.0240494 -0.000299806)
(1.05986 0.130809 0.0132191)
(1.18844 0.16946 -0.00686107)
(1.15222 -9.86952e-05 -0.0167991)
(1.32581 0.106575 -0.0252024)
(1.38333 0.037403 0.00464877)
(1.18114 -0.0539559 0.0224705)
(1.20172 -0.0966087 0.00517613)
(1.10655 -0.109857 -0.000516077)
(1.05631 0.109083 -0.0146704)
(1.16497 0.0726687 0.00483903)
(1.19358 0.0519055 0.0129334)
(1.19724 0.0331942 0.00529413)
(1.16059 -0.0616681 0.00157414)
(1.24534 0.0204924 0.00745206)
(1.0476 -0.063022 0.0110845)
(0.900369 -0.0821085 0.00791042)
(0.862312 -0.145777 -0.00258626)
(0.742796 -0.0452061 -0.01621)
(0.851892 0.143433 -0.00573809)
(1.00572 0.0403501 0.00283293)
(0.982714 0.0320714 0.000874353)
(1.12878 0.117153 -0.00464707)
(1.13231 0.0296735 -0.00642819)
(1.16786 0.0425212 -0.0017054)
(1.19938 -0.0177433 0.00598432)
(1.16677 -0.0504894 0.00293217)
(1.11632 -0.0697457 0.00399589)
(1.05907 -0.13006 -0.00253345)
(1.04633 -0.00657981 -0.0011709)
(1.07967 -0.044865 0.0029632)
(1.08593 -0.048127 -0.000942259)
(1.14151 -0.0107196 0.00230635)
(1.06017 -0.134668 0.00622043)
(1.03973 -0.0679862 0.0048546)
(1.04613 -0.0385165 0.000892195)
(0.99137 -0.111023 0.000914477)
(0.972419 -0.189748 0.00157515)
(0.824542 -0.117937 -0.000993522)
(0.907422 0.0335306 -0.000236453)
(1.00135 0.00782254 0.000815855)
(1.01687 0.0373336 -0.00117051)
(1.05121 0.0657609 -0.00056388)
(1.12108 0.0355976 -0.00335844)
(1.11755 0.0698948 0.00246762)
(1.14594 -0.0152958 0.00266589)
(1.08556 -0.0256193 0.00134892)
(1.10634 -0.0179092 0.00190251)
(1.0484 -0.0369412 -0.00176497)
(1.03174 0.0845318 0.000598857)
(1.06177 0.0158876 0.000835692)
(1.0214 0.0152684 0.000718123)
(1.05281 0.0307038 0.00215902)
(1.01685 -0.0219483 -0.00172726)
(0.986762 -0.00281816 -0.00163508)
(0.993261 -0.0401769 0.000985263)
(0.973241 -0.0226615 0.000612926)
(0.934712 -0.0298282 -0.000711083)
(0.836004 0.0111877 -0.0015467)
(0.888843 0.0748178 0.000167489)
(0.993881 0.0104539 0.000188561)
(1.01264 0.0139472 -0.00062897)
(1.03487 0.0306437 0.000294834)
(1.06712 0.0172135 -0.000560521)
(1.07634 0.0115502 0.000897785)
(1.12529 -0.0124047 0.000174124)
(1.04967 -0.0375845 0.00024472)
(1.0752 -0.0442405 0.0006964)
(1.01092 -0.0583657 -0.00117104)
(1.01437 -0.0114147 0.00205022)
(1.05085 -0.0407393 -0.00168908)
(1.01066 -0.033044 0.000371574)
(1.03915 -0.0306809 0.00110875)
(1.00067 -0.0619663 -0.00066142)
(0.996023 -0.030474 0.000880531)
(0.969548 -0.0405811 0.000916803)
(0.922177 -0.0582706 -0.000427741)
(0.920236 -0.0748191 1.86416e-06)
(0.851437 -0.0566454 0.000967297)
(0.887743 -0.00792906 0.000971466)
(0.994824 -5.54652e-05 -6.41106e-05)
(1.01549 0.00926144 -0.000110151)
(1.02493 0.0112409 0.000138491)
(1.06365 0.0080622 -0.000125178)
(1.06141 0.017321 0.000367926)
(1.10321 0.0070461 7.41378e-05)
(1.05774 0.0064052 -0.000154664)
(1.06425 0.0140519 0.000561553)
(1.01704 0.0150583 -0.00064536)
(1.01524 0.0299045 0.000895588)
(1.03003 0.0303076 -0.000494829)
(1.00393 0.0229756 0.000299941)
(1.02415 0.0236883 0.000350207)
(0.985959 0.0182238 -0.000356478)
(0.976191 0.0140518 0.000403976)
(0.963551 0.0081289 0.000364946)
(0.929552 0.0192406 -0.000165125)
(0.920341 0.0205807 2.89104e-05)
(0.860566 0.0286903 0.000542768)
(0.884288 0.033438 0.000617771)
(0.987252 -0.00714499 -0.000360071)
(1.04736 0.00166937 0.000593346)
(1.01307 -0.012859 -0.000163791)
(1.07663 -0.0156776 -0.000887344)
(1.06839 -0.0146855 0.000466477)
(1.10716 -0.0254964 -0.000174055)
(1.07567 0.000125785 0.0010242)
(1.06601 -0.00233611 -0.000519904)
(1.04741 -0.0052304 1.72197e-07)
(1.01728 0.00408716 0.000198271)
(0.972683 0.00395002 -0.000603308)
(0.924837 0.0019854 0.000275857)
(0.881991 -0.0076985 -0.000316019)
(0.864175 -0.0126149 -0.000886181)
(0.868903 -0.023166 -0.000418716)
(0.909058 -0.0380771 -0.00126847)
(0.984718 -0.0277132 -0.00117608)
(0.995189 -0.0279332 -0.0007928)
(1.02869 -0.00933085 -0.000668767)
(1.01162 0.00452806 -0.000305203)
(0.992691 -0.0240673 -0.00059854)
(1.04625 -0.0199624 0.000806466)
(1.01048 -0.014079 0.000338697)
(1.10194 -0.0227581 -0.00171275)
(1.05872 -0.0100749 -0.000327844)
(1.12537 0.0271961 0.000256202)
(1.10844 0.0312538 0.00228035)
(1.0581 0.0267185 -0.000473594)
(1.0658 0.0429739 -4.93061e-05)
(1.0408 0.0581124 9.54286e-06)
(0.974961 0.0693611 -0.000223746)
(0.921353 0.072718 9.81803e-05)
(0.885386 0.0589808 -0.000594016)
(0.857646 0.0214596 -0.0024803)
(0.851085 -0.0113212 -0.00340215)
(0.918581 -0.0565878 -0.00444577)
(1.00617 -0.0379491 -0.0038386)
(1.01519 -0.00254066 -0.00205517)
(1.06571 -0.00357236 -0.00010823)
(1.03316 0.00741629 -0.000377011)
(0.970418 -0.0404707 0.000486919)
(1.05687 -0.0179609 -0.00104296)
(1.08522 -0.0615345 -0.00118539)
(1.09645 -0.0576453 -0.000435257)
(1.1163 -0.0311604 -0.000809974)
(1.16792 -0.0645582 0.00246979)
(1.10127 0.0524613 0.00942815)
(1.09517 0.0307985 0.00373608)
(1.10538 0.00300484 -0.00156193)
(1.05783 0.0765354 0.000899206)
(0.98059 0.0947781 -0.00340193)
(0.968412 0.074052 -0.000114332)
(0.877806 0.0409014 0.00205625)
(0.799288 0.0132183 -0.00653348)
(0.845839 -0.0696304 -0.0140333)
(0.942567 -0.165483 -0.0176488)
(1.04108 -0.0974374 -0.00828497)
(1.05472 -0.0679724 -0.00385151)
(1.06422 -0.0221355 -0.00870191)
(1.02846 0.0299252 -0.00651609)
(0.966083 -0.0491725 0.00652649)
(1.064 -0.0924836 -0.000190006)
(1.11053 -0.0538506 -0.0156776)
(1.13805 -0.0286824 -0.00677157)
(1.17977 -0.0554039 0.010249)
(1.16609 0.049999 0.00428147)
(1.2092 0.0902404 0.00682256)
(1.17917 0.0311192 0.015257)
(1.16191 0.0769187 0.0105197)
(1.10295 0.16248 -0.00313629)
(0.98619 0.156748 -0.00333407)
(1.0077 0.157211 0.00597414)
(0.858264 0.199408 -0.00382265)
(0.75764 0.0534663 -0.0174923)
(0.778115 -0.113231 -0.0235443)
(0.940853 -0.206218 -0.00837383)
(1.10004 -0.106623 -0.00378753)
(1.1241 6.18484e-05 -0.0341904)
(1.19745 0.0306225 -0.0217479)
(1.15035 0.0407206 -0.0036973)
(1.02578 -0.0663431 0.0139146)
(1.04264 -0.153643 -0.010919)
(1.12597 -0.142158 -0.0122053)
(1.3184 -0.134155 -0.0115444)
(1.2933 -0.0272889 -0.00593488)
(1.24048 -0.0950285 -0.0114778)
(1.29905 0.0505851 0.00213652)
(1.23903 0.0636818 0.0468738)
(1.25183 0.068745 0.0240016)
(1.17614 0.212691 -0.00358448)
(1.02928 0.159599 -0.0132825)
(1.01576 0.182819 -0.009336)
(0.923273 0.239849 0.00393217)
(0.741184 0.090548 -0.0196737)
(0.613114 -0.224778 -0.00894768)
(0.799639 -0.470557 -0.00268065)
(1.15993 -0.23559 -0.000721638)
(1.22286 -0.128921 0.0243977)
(1.3279 -0.0384831 0.0229617)
(1.12717 0.0704396 -0.00457297)
(1.06851 -0.114124 0.0108995)
(0.938316 -0.0632151 -0.0291866)
(1.19288 -0.323825 0.0323548)
(1.51537 -0.133716 0.0268671)
(1.51765 0.0280038 0.023512)
(1.47208 0.0816819 -0.0602673)
(1.40867 0.136817 -0.0276945)
(1.39905 0.0871428 -0.0111341)
(1.41232 0.130231 -0.0278749)
(1.22624 0.357626 0.0203931)
(1.14287 0.344561 0.0251212)
(1.21991 0.261741 0.0222952)
(0.89654 0.406411 -0.00441585)
(0.627237 0.307375 -0.0420387)
(0.703994 -0.129368 -0.0110466)
(0.536921 -0.677778 0.00802241)
(0.987048 -0.491989 0.0237416)
(1.21158 -0.175958 0.0472871)
(1.35615 0.10323 0.00398867)
(1.23893 0.207303 -0.0134958)
(1.10559 -0.112763 -0.0188971)
(0.979623 -0.234584 -0.0194531)
(1.36992 -0.512219 0.12435)
(1.73831 -0.506516 0.197733)
(1.69279 0.00116896 -0.0789772)
(1.6676 0.0627538 0.00021825)
(1.61782 0.299064 -0.0617267)
(1.56804 0.0319734 -0.142758)
(1.71146 0.26665 0.0392583)
(1.50301 0.51771 0.106215)
(1.13461 0.116571 -0.179783)
(1.07784 0.316128 -0.138774)
(0.884005 0.69702 0.0426556)
(0.983805 0.316121 0.0761394)
(1.04407 -0.135313 0.0846697)
(0.623807 -0.69534 0.0576926)
(0.680211 -0.818686 -0.0325849)
(0.926507 -0.495233 -0.0231856)
(1.18238 -0.0727163 0.00422419)
(1.1759 0.16825 0.000599199)
(0.949436 -0.206979 -0.0581138)
(1.17876 -0.191636 0.0363697)
(1.84166 -0.742163 0.036218)
(1.79437 -0.614202 -0.0578209)
(1.88372 0.141708 -0.0647492)
(1.59816 0.196047 -0.0330069)
(1.65466 0.369245 0.0147632)
(1.1845 0.123508 -0.0624583)
(1.55972 0.183458 0.114939)
(1.60508 0.699766 0.0108888)
(1.7069 0.643116 -0.0453909)
(1.26735 0.609181 0.121271)
(1.00181 0.504672 0.00909467)
(1.25654 0.204203 -0.0154338)
(1.3707 0.347279 0.0905627)
(1.16402 -0.168973 0.0736406)
(0.777013 -0.722513 -0.0435796)
(0.750193 -0.60674 -0.091942)
(1.03029 -0.0954347 -0.0347122)
(1.0036 0.211542 0.00374517)
(1.19735 -0.190814 -0.00975813)
(1.23357 -0.764463 0.193966)
(1.4621 -0.616096 -0.222693)
(-0.102738 -0.258533 -0.0526304)
(0.242307 -0.297717 0.122834)
(0.647158 -0.0793406 0.0729236)
(1.09032 0.373863 -0.0769079)
(1.40649 0.476947 0.0639936)
(1.4749 0.818415 0.0804361)
(1.38311 0.567774 -0.0729234)
(1.10998 0.295353 -0.0216368)
(0.974771 0.171216 -0.0318447)
(0.964681 -0.369568 -0.0226733)
(0.757804 -0.69553 0.0443811)
(0.544031 -0.803937 0.0216951)
(0.903622 -0.309294 0.0180385)
(1.01178 0.141539 0.0134302)
(0.727144 0.00506294 0.115023)
(0.702682 -1.12592 -0.120971)
(0.328312 -0.308021 0.312412)
(-0.0667003 -0.218646 -0.0271898)
(-0.0836703 -0.448964 -0.0863671)
(-0.232188 -0.423821 -0.121916)
(0.705235 0.344502 -0.0279722)
(0.231446 0.358957 -0.0316145)
(1.2129 0.457752 -0.079081)
(1.07922 0.885278 -0.0622912)
(0.729963 0.642094 -0.0209004)
(0.839484 0.224387 -0.0257225)
(1.24543 -0.212162 0.00505166)
(1.37058 -0.400296 0.0537733)
(0.927742 -0.69953 0.0132714)
(0.919102 -0.485006 0.012106)
(1.01923 0.0997164 0.0180715)
(0.521075 0.0875689 0.0140344)
(0.447064 0.0608267 -0.0503043)
(-0.115769 0.0678902 -0.164652)
(-0.133259 -0.174377 -0.0780823)
(-0.214295 -0.743998 -0.0666518)
(0.175525 0.084932 -0.0350462)
(-0.158204 -0.174715 -0.0599966)
(0.412462 0.396811 -0.0577774)
(0.378902 1.02453 0.0265925)
(0.676412 0.220506 0.0188702)
(0.912513 -0.336191 0.0279475)
(1.19419 -0.712443 -0.00747107)
(1.25991 -0.46627 -0.0379421)
(0.876833 -0.388185 0.00888683)
(0.62342 -0.328087 0.0306214)
(0.828714 0.10908 0.0163807)
(1.50415 0.073382 -0.135394)
(0.437755 0.466356 0.189046)
(0.707312 1.14326 -0.441766)
(0.0516954 0.0764969 -0.0318393)
(0.500635 -0.521897 0.0654185)
(-0.00520308 -0.279901 -0.00602309)
(-0.14283 0.328318 0.142511)
(0.113702 -0.0130323 0.104264)
(-0.120263 0.297938 -0.115732)
(0.43821 0.578486 -0.0626751)
(1.08802 0.140271 -0.00439019)
(1.16924 -0.102118 0.0417692)
(1.23806 -0.503777 0.00262184)
(1.07779 -0.208104 -0.0657212)
(1.08019 -0.144007 -0.0118178)
(0.825713 -0.305726 0.022762)
(0.895234 0.0329342 0.0138846)
(1.13359 0.191499 0.00387537)
(1.05701 0.472254 0.108928)
(0.805425 0.438166 -0.0281704)
(0.413895 -0.193973 0.0969697)
(1.37669 -0.18694 -0.00656078)
(1.60095 -0.321222 0.00827789)
(1.63516 -0.575089 -0.103929)
(1.07722 -0.11615 0.0589934)
(0.974039 0.020303 0.230758)
(0.809323 0.259337 0.00291868)
(1.03583 0.130526 -0.143346)
(1.34518 -0.302737 -0.0753759)
(1.38753 -0.359517 0.0706052)
(1.30507 -0.63234 0.0734029)
(1.08355 -0.50179 -0.0354701)
(1.19622 -0.285181 -0.035407)
(1.36428 -0.193517 -0.00306233)
(1.20232 0.0450592 -0.00943359)
(1.09083 0.0239885 0.0275035)
(1.05275 0.309539 -0.0344815)
(1.38299 0.503125 0.0202503)
(1.7157 0.209539 0.0954045)
(1.8694 -0.0485938 0.2732)
(1.51542 -0.255941 -0.105189)
(1.52945 -0.123001 -0.0170658)
(1.28658 -0.451835 0.0444214)
(1.16255 -0.262684 -0.0119141)
(1.2253 0.188146 -0.0540554)
(1.22666 0.22185 0.000408584)
(1.18727 0.264464 0.00587436)
(1.6114 0.154333 0.00517307)
(1.66065 -0.137429 -0.0296966)
(1.47046 -0.17086 -0.0275193)
(1.1858 -0.154806 0.026165)
(0.870538 -0.159954 0.0292759)
(0.894777 -0.40893 0.0184134)
(0.910568 -0.260285 0.00121667)
(0.872253 0.142423 -0.017825)
(0.987407 0.0983893 0.00243406)
(1.04172 0.164429 0.0151682)
(1.22455 0.214553 0.0128273)
(1.35578 0.125349 -0.0286063)
(1.66811 0.042002 -0.114216)
(1.35944 -0.148217 -0.0506697)
(1.30449 -0.139784 0.0199394)
(1.30537 -0.183059 0.0621333)
(1.02655 -0.25432 0.0340521)
(1.05274 -0.0571792 -0.0287212)
(1.17041 0.0118126 -0.0347264)
(1.28665 -0.0695579 -0.0154906)
(1.41272 -0.0750327 0.0387916)
(1.40483 -0.115199 0.035256)
(1.3396 -0.123104 -0.0318658)
(1.29849 -0.207484 -0.0443604)
(1.23604 -0.20874 -0.0119194)
(1.15392 -0.303353 0.000892016)
(0.896176 -0.185479 0.0127391)
(0.902476 0.0825884 0.0167224)
(0.967914 0.00793848 0.00171463)
(1.08036 0.124906 0.0190363)
(1.16367 0.205773 -0.0170109)
(1.21924 0.0589027 -0.0362007)
(1.33225 0.0743328 -0.0555678)
(1.29631 -0.0127353 0.00555723)
(1.19783 -0.0630697 0.0386088)
(1.21424 -0.121062 0.0017228)
(1.129 -0.0843179 -0.0106878)
(1.04623 0.0840027 -0.0329502)
(1.13823 0.0666538 0.000157221)
(1.15305 0.0449447 0.0204872)
(1.15228 0.00187588 0.0129596)
(1.10865 -0.0977921 0.00957155)
(1.16209 -0.0341478 0.0153605)
(1.03663 -0.0933634 0.0182599)
(0.962157 -0.0918005 0.0150485)
(0.948781 -0.15199 0.000445899)
(0.792717 -0.0386465 -0.0289105)
(0.873938 0.134999 -0.0145829)
(0.996245 0.0366211 0.00630724)
(1.0046 0.0421146 -0.00104094)
(1.11511 0.117647 -0.0102451)
(1.15607 0.0611759 -0.0124103)
(1.15174 0.010443 -0.00154399)
(1.17441 -0.0399396 0.0120808)
(1.15249 -0.0629271 0.00437552)
(1.11619 -0.0887669 0.00620529)
(1.07369 -0.103696 -0.00733968)
(1.03161 -0.0264239 -0.00112742)
(1.08205 -0.0458993 0.00424543)
(1.08092 -0.0578789 -0.00284168)
(1.12708 -0.0311135 0.000585132)
(1.05853 -0.116661 0.00722004)
(1.03877 -0.0617321 0.00840694)
(1.03927 -0.046846 0.00100469)
(0.978619 -0.113736 -0.00181829)
(0.953667 -0.186981 0.00187893)
(0.819042 -0.111669 -0.00317389)
(0.904205 0.0244215 -0.00361448)
(0.998144 0.00642986 0.0018336)
(1.02364 0.0432304 -0.00333292)
(1.04737 0.0620108 -0.00141825)
(1.12477 0.0402472 -0.00501491)
(1.11351 0.0613794 0.00485292)
(1.14327 -0.0159291 0.00460771)
(1.08492 -0.0279117 0.00192)
(1.10181 -0.0247692 0.00235924)
(1.05341 -0.0261337 -0.00445489)
(1.03022 0.0650319 0.000451018)
(1.05971 0.0309503 0.000416288)
(1.01923 0.0113452 0.00133887)
(1.05135 0.0196608 0.00426724)
(1.02032 -0.013568 -0.0030935)
(0.983932 -0.0113782 -0.00322703)
(0.992153 -0.050761 0.00185811)
(0.976935 -0.0167305 0.000588373)
(0.934698 -0.0281118 -0.000717305)
(0.835591 0.000143429 -0.00258601)
(0.886166 0.0634406 -0.000795595)
(0.993729 0.0112933 0.000403878)
(1.01342 0.014438 -0.001282)
(1.03466 0.029387 0.00042504)
(1.06693 0.0188625 -0.000809482)
(1.07607 0.00752713 0.00159847)
(1.12401 -0.0122197 0.000492508)
(1.05156 -0.0362552 0.000335954)
(1.07351 -0.0500298 0.00112908)
(1.01146 -0.0512318 -0.00201622)
(1.01429 -0.0204535 0.00352899)
(1.05035 -0.0355733 -0.00301419)
(1.01274 -0.0356196 0.000629527)
(1.03732 -0.0346001 0.00172408)
(1.00037 -0.0580071 -0.00126663)
(0.997869 -0.0341025 0.00162914)
(0.968406 -0.0442472 0.00157272)
(0.921147 -0.0562971 -0.000754761)
(0.922137 -0.0744931 0.000124737)
(0.852904 -0.0614567 0.00176082)
(0.887179 -0.0134662 0.00156097)
(0.994867 -0.000228504 -0.000107795)
(1.01557 0.00970917 -0.000212655)
(1.02491 0.0110505 0.00019086)
(1.06354 0.00771333 -0.00017008)
(1.06158 0.0177634 0.000680578)
(1.10276 0.00659943 0.000149322)
(1.05837 0.00629979 -0.000293357)
(1.06355 0.0145199 0.000915382)
(1.0174 0.0143026 -0.00113522)
(1.0152 0.0303907 0.00147849)
(1.02971 0.0300638 -0.000836877)
(1.00442 0.0228922 0.000460143)
(1.02378 0.0237537 0.000580561)
(0.985937 0.0179482 -0.000618632)
(0.976445 0.0138662 0.000631694)
(0.963268 0.00817478 0.00057746)
(0.9294 0.019098 -0.000318758)
(0.920534 0.0203811 8.34237e-06)
(0.860828 0.0283735 0.000843996)
(0.884225 0.0330201 0.000970498)
(0.987236 -0.00709878 -0.000196543)
(1.04746 0.00151618 0.000307009)
(1.01268 -0.0127183 -6.75892e-05)
(1.07711 -0.0160036 -0.00047484)
(1.06831 -0.0148886 0.000235564)
(1.107 -0.0248831 -0.000145325)
(1.076 -0.000606532 0.000537779)
(1.06581 -0.00192996 -0.000294324)
(1.04778 -0.00525498 -2.97611e-05)
(1.01711 0.00385006 9.00069e-05)
(0.972365 0.00431974 -0.0003447)
(0.925151 0.00186601 0.000128009)
(0.881907 -0.00756722 -0.000156353)
(0.863898 -0.0129482 -0.000481694)
(0.868766 -0.023763 -0.000302561)
(0.909048 -0.0388916 -0.000852683)
(0.984853 -0.0283546 -0.000762421)
(0.99548 -0.0282173 -0.000539461)
(1.02912 -0.00949531 -0.000446952)
(1.01181 0.00430959 -0.000195789)
(0.993003 -0.0259939 -0.000324248)
(1.04557 -0.0168272 0.000374662)
(1.00943 -0.0151802 0.000224485)
(1.10321 -0.0269673 -0.000901249)
(1.06057 -0.00735879 -0.000256439)
(1.12322 0.0248683 5.35285e-05)
(1.10833 0.0367709 0.00114339)
(1.05856 0.0237051 -0.000395002)
(1.06697 0.0425779 -8.43223e-05)
(1.04032 0.0597595 2.73813e-05)
(0.973418 0.0655142 -0.000170492)
(0.923326 0.0737587 1.37873e-05)
(0.885761 0.0578785 -0.000204803)
(0.854863 0.0172998 -0.00144768)
(0.850524 -0.0137389 -0.00216974)
(0.918778 -0.0642111 -0.00306931)
(1.00679 -0.0446305 -0.0027076)
(1.01676 -0.00758811 -0.00148618)
(1.06617 -0.00756838 -0.000297533)
(1.03333 0.0060263 -0.000382672)
(0.971148 -0.0430853 0.000264425)
(1.05852 -0.0135945 -0.000821365)
(1.07617 -0.0609001 -0.000464349)
(1.09963 -0.0688786 -0.000272499)
(1.12819 -0.0308353 -0.000936507)
(1.15833 -0.0617879 0.000437888)
(1.10057 0.0595532 0.00457329)
(1.09332 0.0267995 0.00192262)
(1.10638 0.00293051 -0.00120392)
(1.05865 0.0784989 0.000128957)
(0.973691 0.0922518 -0.00233678)
(0.971332 0.0725284 -0.000299017)
(0.878431 0.0429113 0.00105383)
(0.790138 0.000472121 -0.00388591)
(0.832134 -0.0927664 -0.00786796)
(0.937605 -0.194814 -0.0100926)
(1.04093 -0.123324 -0.00591829)
(1.06543 -0.0814562 -0.00517229)
(1.08415 -0.0239203 -0.00705098)
(1.0358 0.0264031 -0.00423817)
(0.968362 -0.0505729 0.00344326)
(1.06539 -0.0902283 -0.00171363)
(1.1019 -0.0603258 -0.00663774)
(1.13911 -0.0508722 -0.00279542)
(1.19061 -0.051634 0.00410742)
(1.16468 0.0601947 0.000972035)
(1.19955 0.129711 0.00215097)
(1.15476 0.0437674 0.00721277)
(1.16813 0.0628785 0.00331512)
(1.11005 0.171309 -0.000783327)
(0.970108 0.12994 -0.00183559)
(1.02158 0.147811 0.00215373)
(0.880021 0.217374 -0.00196917)
(0.739545 0.0251262 -0.0110893)
(0.722034 -0.190394 -0.012081)
(0.885453 -0.32072 7.31262e-05)
(1.12049 -0.179869 0.000698995)
(1.14165 -0.0674311 -0.0154563)
(1.20485 -0.035193 -0.0111205)
(1.16481 0.00992992 -0.00334074)
(1.02122 -0.0398942 0.00800229)
(1.02618 -0.157227 -0.0125275)
(1.13024 -0.201525 -0.00451958)
(1.33374 -0.186997 -0.000842707)
(1.29909 0.00983516 -0.00616735)
(1.24779 -0.0681157 -0.012631)
(1.22252 0.0891639 -0.000823797)
(1.15242 0.107999 0.0236831)
(1.27779 0.0713476 0.0110113)
(1.22113 0.223776 -0.00295995)
(1.02695 0.144833 -0.0118361)
(1.00225 0.175465 -0.0077348)
(0.902784 0.248161 0.00460274)
(0.710658 0.0398252 -0.0109767)
(0.580913 -0.329024 -0.00989262)
(0.689106 -0.565353 0.00458783)
(1.02745 -0.326548 0.016719)
(1.13871 -0.2989 0.0294336)
(1.39877 -0.145071 0.0141148)
(1.16916 0.0293421 -0.00421789)
(1.0318 -0.0303776 0.0127183)
(0.978481 -0.18445 -0.0217393)
(1.16831 -0.380537 -0.0189779)
(1.49658 -0.149562 0.0133405)
(1.57926 -0.0149426 0.0187061)
(1.46632 0.032872 -0.0447534)
(1.30428 0.230006 -0.0343573)
(1.36791 0.213501 -0.0131486)
(1.38835 0.114473 -0.0137297)
(1.24232 0.364783 -0.00339758)
(1.17832 0.236005 0.00684379)
(1.39421 0.170309 0.0127411)
(1.08795 0.46885 -0.0082814)
(0.707186 0.213477 -0.0263723)
(0.717672 -0.208531 -0.0145235)
(0.447869 -0.674449 -0.00572176)
(0.865205 -0.467154 0.0197871)
(1.13267 -0.204055 0.0419995)
(1.34126 0.0389003 0.0169321)
(1.24567 0.166068 -0.00162102)
(1.01368 0.0349029 0.00633167)
(1.09887 -0.502665 -7.11299e-05)
(1.2316 -0.596847 -0.0718097)
(1.82259 -0.487683 0.0748107)
(1.80304 -0.0385748 -0.0453931)
(1.74905 -0.247829 0.0197653)
(1.9974 0.00477447 -0.0361111)
(1.56767 -0.0774734 -0.0767017)
(1.37621 0.0638998 0.0536638)
(1.9131 0.443338 0.0986862)
(1.7331 0.130592 -0.0542929)
(0.786533 0.374547 -0.066354)
(0.560423 0.721668 0.0285571)
(0.874549 0.139451 0.0420846)
(0.996055 -0.258144 0.0294401)
(0.711315 -0.726857 0.00634022)
(0.735881 -0.764257 -0.021093)
(0.914567 -0.442271 -0.0106304)
(1.22332 -0.172989 0.0124997)
(1.27619 0.0582788 0.00775255)
(0.903367 -0.179594 0.0243481)
(1.06199 -0.267785 -0.0839314)
(1.68912 -0.811708 -0.16557)
(1.9093 -0.633236 -0.116885)
(1.93561 -0.00386211 -0.0366598)
(1.70445 0.0265346 -0.0203662)
(1.48203 0.118579 0.0750583)
(0.958659 0.00199607 0.0255252)
(1.37608 0.110706 0.0665571)
(1.78239 0.695957 -0.0215325)
(1.4416 0.350378 0.00142493)
(1.23703 0.435685 0.112472)
(1.57047 0.649547 0.0247811)
(1.41103 0.251401 -0.0218351)
(1.27324 0.269048 0.0362027)
(1.22517 -0.18442 0.0481041)
(0.906536 -0.757317 -0.00767011)
(0.764982 -0.676441 -0.0411143)
(0.952888 -0.174297 -0.00864138)