/*--------------------------------*- C++ -*----------------------------------*\
  =========                 |
  \\      /  F ield         | OpenFOAM: The Open Source CFD Toolbox
   \\    /   O peration     | Website:  https://openfoam.org
    \\  /    A nd           | Version:  8
     \\/     M anipulation  |
\*---------------------------------------------------------------------------*/
FoamFile
{
    version     2.0;
    format      ascii;
    class       volScalarField;
    location    "22";
    object      p;
}
// * * * * * * * * * * * * * * * * * * * * * * * * * * * * * * * * * * * * * //

dimensions      [0 2 -2 0 0 0 0];

internalField   nonuniform List<scalar> 
464
(
1.46201e-08
4.10949e-06
1.3198e-05
2.66414e-05
4.43413e-05
6.58458e-05
9.08298e-05
0.000118494
0.000149228
0.00017963
0.000215371
0.000243306
-4.1215e-06
3.72536e-08
9.28598e-06
2.29708e-05
4.09943e-05
6.2908e-05
8.83793e-05
0.000116633
0.000148041
0.000179315
0.00021609
0.000245627
-1.34251e-05
-9.10761e-06
5.04189e-07
1.47267e-05
3.34469e-05
5.61983e-05
8.25782e-05
0.000111854
0.00014382
0.000176608
0.000211908
0.0002441
-2.77582e-05
-2.31897e-05
-1.30119e-05
2.05691e-06
2.18947e-05
4.60311e-05
7.40295e-05
0.000105199
0.000139234
0.000174484
0.000212325
0.000247315
-4.75305e-05
-4.2616e-05
-3.1663e-05
-1.54353e-05
5.91804e-06
3.19053e-05
6.20137e-05
9.55319e-05
0.000131868
0.000169882
0.000209269
0.000248232
-7.31589e-05
-6.77879e-05
-5.58294e-05
-3.80854e-05
-1.47529e-05
1.36734e-05
4.66143e-05
8.33756e-05
0.000123285
0.000165289
0.000208973
0.000252206
-0.000105112
-9.91804e-05
-8.59974e-05
-6.63839e-05
-4.0621e-05
-9.18854e-06
2.72193e-05
6.78883e-05
0.000112005
0.000158545
0.000206668
0.000255299
-0.000144471
-0.000137812
-0.000123116
-0.000101113
-7.23483e-05
-3.7197e-05
3.46765e-06
4.89584e-05
9.83603e-05
0.000150735
0.000205296
0.000260165
-0.000190305
-0.000183008
-0.000166795
-0.000142339
-0.00011029
-7.08675e-05
-2.52339e-05
2.58891e-05
8.13591e-05
0.000140106
0.000200911
0.000263406
-0.000249603
-0.000240704
-0.000222104
-0.000193343
-0.000156682
-0.000111504
-5.98073e-05
-1.82296e-06
6.11494e-05
0.000128632
0.000199387
0.000271061
-0.000309986
-0.000300866
-0.000280629
-0.000249233
-0.000208677
-0.000158137
-0.000100193
-3.49419e-05
3.56404e-05
0.000110045
0.00018737
0.000267925
-0.000398747
-0.000385902
-0.000363128
-0.000322972
-0.000276656
-0.000216294
-0.000149579
-7.42344e-05
7.30221e-06
9.50835e-05
0.00018769
0.00028223
-0.000475101
-0.000464457
-0.000439153
-0.000397355
-0.000345837
-0.000278975
-0.000204775
-0.000120641
-3.12158e-05
6.29046e-05
0.000160822
0.000263284
-0.000607443
-0.000585382
-0.000560098
-0.000499441
-0.000442401
-0.000358115
-0.000273209
-0.000174077
-6.87004e-05
4.4198e-05
0.000162915
0.000287336
-0.00070204
-0.000696439
-0.000662735
-0.00060399
-0.000536763
-0.000443571
-0.00034776
-0.000237508
-0.000125045
-7.00162e-06
0.00011391
0.000243352
-0.000903612
-0.000850631
-0.000833747
-0.000733146
-0.00066613
-0.000543658
-0.000435107
-0.000302084
-0.000169523
-2.7996e-05
0.000118477
0.000277463
-0.00102155
-0.00107739
-0.000994819
-0.000924117
-0.00080913
-0.000677524
-0.000541088
-0.000394208
-0.000250198
-0.000102209
4.06968e-05
0.000202262
-0.00136593
-0.00113353
-0.00121195
-0.00100488
-0.000936859
-0.000757232
-0.000621349
-0.000450751
-0.000290235
-0.00012087
4.63116e-05
0.000236045
-0.00151495
-0.00180948
-0.00152267
-0.00148031
-0.00119781
-0.000993991
-0.000782945
-0.000579659
-0.00039385
-0.000210884
-4.78797e-05
0.000145175
-0.00279697
-0.00159196
-0.00170358
-0.0014243
-0.0012382
-0.0010165
-0.000811259
-0.000606708
-0.000411625
-0.00022106
-4.33004e-05
0.000155878
0.000285647
0.000305198
0.000327129
0.000341531
0.000354743
0.000363838
0.000370291
0.000373107
0.000289995
0.000311073
0.000334963
0.000350923
0.000365449
0.000375632
0.000382802
0.000385951
0.000279691
0.000307149
0.000334069
0.00035525
0.000373394
0.000386763
0.000395934
0.000400083
0.000285613
0.000316008
0.000345639
0.00036949
0.000389849
0.000405124
0.000415562
0.000420307
0.000287092
0.0003226
0.000355643
0.000384171
0.000408208
0.000426646
0.000439218
0.000445025
0.000295381
0.000335443
0.000372801
0.000405556
0.000433256
0.000454833
0.000469628
0.000476558
0.000303442
0.000349424
0.000392354
0.000430811
0.000463396
0.000489201
0.000506787
0.0005152
0.000314788
0.000367535
0.00041712
0.000462335
0.000500826
0.000532152
0.000553324
0.000563856
0.00032575
0.000386604
0.000443879
0.000497045
0.000541948
0.000579863
0.000604816
0.000618008
0.000343159
0.000414673
0.000482676
0.000548018
0.000602914
0.000651996
0.000683171
0.00070116
0.000349054
0.000430663
0.00050708
0.000584799
0.000644981
0.000707821
0.000741562
0.000767156
0.000378433
0.000477932
0.000570715
0.000671553
0.000748639
0.000834883
0.00088094
0.000918093
0.000365934
0.000478472
0.000571846
0.00069575
0.000767529
0.00088676
0.000927247
0.00098939
0.000412018
0.000553654
0.000674704
0.000838529
0.000944745
0.00111061
0.00118214
0.00127455
0.000361174
0.000521171
0.000616111
0.000823591
0.000885826
0.00113115
0.0011661
0.00134604
0.000427071
0.000625591
0.000769583
0.00103742
0.00117416
0.00151086
0.0016328
0.00190691
0.00031914
0.00054242
0.000597089
0.000938242
0.000919016
0.00142345
0.00139968
0.00196991
0.000395378
0.000654383
0.000788065
0.00120152
0.00132314
0.00200144
0.00218266
0.00310811
0.000240911
0.000525932
0.000467255
0.000971526
0.000651166
0.00158396
0.00112172
0.00278702
0.000290873
0.000581884
0.000622128
0.00115615
0.00115334
0.00233393
0.00291792
0.00614258
0.000341997
0.000342427
0.000343307
0.000344385
0.000345562
0.000346588
0.000347372
0.000347743
0.000342655
0.000343104
0.000344012
0.000345139
0.000346325
0.000347369
0.000348155
0.000348529
0.000339581
0.000340296
0.000341727
0.000343386
0.000345202
0.000346733
0.000347901
0.000348442
0.000341443
0.000342254
0.000343835
0.000345714
0.000347621
0.000349266
0.000350483
0.000351056
0.000333853
0.000335588
0.000338722
0.000342052
0.000345566
0.000348385
0.000350494
0.000351453
0.000336995
0.000338943
0.000342439
0.000346229
0.000349969
0.000353052
0.000355304
0.000356337
0.000320437
0.000325718
0.000333565
0.000340683
0.000347726
0.000353016
0.000356854
0.000358565
0.000324909
0.000330622
0.000339235
0.000347173
0.000354752
0.00036058
0.00036476
0.00036663
)
;

boundaryField
{
    movingWall
    {
        type            zeroGradient;
    }
    fixedWalls
    {
        type            zeroGradient;
    }
    frontAndBack
    {
        type            empty;
    }
}


// ************************************************************************* //
