/*--------------------------------*- C++ -*----------------------------------*\
  =========                 |
  \\      /  F ield         | OpenFOAM: The Open Source CFD Toolbox
   \\    /   O peration     | Website:  https://openfoam.org
    \\  /    A nd           | Version:  8
     \\/     M anipulation  |
\*---------------------------------------------------------------------------*/
FoamFile
{
    version     2.0;
    format      ascii;
    class       surfaceScalarField;
    location    "22";
    object      phi;
}
// * * * * * * * * * * * * * * * * * * * * * * * * * * * * * * * * * * * * * //

dimensions      [0 3 -1 0 0 0 0];

internalField   nonuniform List<scalar> 
880
(
-1.05781e-05
1.0578e-05
-2.13798e-05
1.08017e-05
-3.16697e-05
1.02899e-05
-4.12027e-05
9.533e-06
-4.97643e-05
8.56158e-06
-5.71689e-05
7.40463e-06
-6.32808e-05
6.11192e-06
-6.79701e-05
4.68931e-06
-7.13184e-05
3.34823e-06
-7.29626e-05
1.64425e-06
-7.39905e-05
1.02787e-06
-8.70791e-07
-7.31197e-05
-1.13058e-05
2.18838e-05
-2.28386e-05
2.23345e-05
-3.382e-05
2.12713e-05
-4.39877e-05
1.97007e-05
-5.31171e-05
1.7691e-05
-6.10185e-05
1.53061e-05
-6.75572e-05
1.26507e-05
-7.26189e-05
9.75097e-06
-7.63018e-05
7.03117e-06
-7.83147e-05
3.65713e-06
-7.97874e-05
2.50054e-06
-1.92351e-06
-7.87347e-05
-1.18408e-05
3.37246e-05
-2.39123e-05
3.44061e-05
-3.53918e-05
3.27509e-05
-4.5995e-05
3.03038e-05
-5.54734e-05
2.71693e-05
-6.36098e-05
2.34424e-05
-7.02164e-05
1.92573e-05
-7.51468e-05
1.46814e-05
-7.81786e-05
1.00629e-05
-7.94406e-05
4.91913e-06
-7.81469e-05
1.20687e-06
-4.89747e-06
-7.51729e-05
-1.26604e-05
4.6385e-05
-2.55567e-05
4.73024e-05
-3.78041e-05
4.49983e-05
-4.90943e-05
4.1594e-05
-5.91722e-05
3.72473e-05
-6.78199e-05
3.20901e-05
-7.48677e-05
2.63051e-05
-8.0186e-05
1.99997e-05
-8.35554e-05
1.34323e-05
-8.50517e-05
6.41542e-06
-8.38125e-05
-3.23524e-08
-7.79348e-06
-8.09165e-05
-1.38027e-05
6.01877e-05
-2.7844e-05
6.13437e-05
-4.11519e-05
5.83062e-05
-5.33762e-05
5.38182e-05
-6.42444e-05
4.81156e-05
-7.35143e-05
4.13599e-05
-8.09857e-05
3.37765e-05
-8.65039e-05
2.55179e-05
-8.99104e-05
1.68388e-05
-9.12137e-05
7.71873e-06
-9.00699e-05
-1.17607e-06
-1.10124e-05
-8.68511e-05
-1.53148e-05
7.55026e-05
-3.08629e-05
7.68918e-05
-4.5564e-05
7.30073e-05
-5.90083e-05
6.72625e-05
-7.09225e-05
6.00297e-05
-8.10515e-05
5.1489e-05
-8.92257e-05
4.19507e-05
-9.53133e-05
3.16056e-05
-9.91883e-05
2.07137e-05
-0.000100769
9.29961e-06
-9.96772e-05
-2.26805e-06
-1.4252e-05
-9.64375e-05
-1.72504e-05
9.27529e-05
-3.47142e-05
9.43556e-05
-5.11789e-05
8.9472e-05
-6.61398e-05
8.22233e-05
-7.93368e-05
7.32268e-05
-9.04872e-05
6.26394e-05
-9.94512e-05
5.09147e-05
-0.000106103
3.82578e-05
-0.000110337
2.49477e-05
-0.000112147
1.11092e-05
-0.000111434
-2.98134e-06
-1.75303e-05
-0.000108155
-1.97339e-05
0.000112487
-3.96038e-05
0.000114226
-5.82685e-05
0.000108137
-7.50493e-05
9.90041e-05
-8.97753e-05
8.79527e-05
-0.000102121
7.4985e-05
-0.000112022
6.08158e-05
-0.000119389
4.56248e-05
-0.000124185
2.9744e-05
-0.000126388
1.33115e-05
-0.000125796
-3.5731e-06
-2.07491e-05
-0.000122577
-2.27303e-05
0.000135217
-4.55391e-05
0.000137034
-6.68952e-05
0.000129493
-8.58908e-05
0.000118
-0.000102447
0.000104509
-0.000116152
8.86897e-05
-0.000127076
7.17403e-05
-0.000135183
5.37319e-05
-0.000140507
3.50671e-05
-0.000143062
1.58672e-05
-0.000142941
-3.69421e-06
-2.38541e-05
-0.000139836
-2.70551e-05
0.000162272
-5.35473e-05
0.000163527
-7.83339e-05
0.000154279
-9.96008e-05
0.000139267
-0.000118077
0.000122986
-0.000133069
0.000103682
-0.000144997
8.36684e-05
-0.000153855
6.259e-05
-0.000159871
4.10828e-05
-0.000163021
1.9017e-05
-0.000163047
-3.66808e-06
-2.66311e-05
-0.00016027
-3.13001e-05
0.000193572
-6.20791e-05
0.000194306
-9.07373e-05
0.000182937
-0.000115033
0.000163562
-0.000135995
0.000143947
-0.000152611
0.000120298
-0.000165676
9.67334e-05
-0.000175198
7.21118e-05
-0.000181445
4.733e-05
-0.000184813
2.23852e-05
-0.00018569
-2.79099e-06
-2.90472e-05
-0.000183274
-4.01902e-05
0.000233763
-7.66867e-05
0.000230802
-0.000110889
0.00021714
-0.000137311
0.000189984
-0.000160145
0.000166781
-0.000177142
0.000137295
-0.000190618
0.000110209
-0.000200446
8.19401e-05
-0.00020759
5.4474e-05
-0.00021188
2.66751e-05
-0.00021296
-1.711e-06
-3.0366e-05
-0.000211642
-4.52376e-05
0.000279
-8.83008e-05
0.000273865
-0.000127835
0.000256674
-0.00015842
0.000220569
-0.000184257
0.000192619
-0.000202816
0.000155854
-0.000217201
0.000124594
-0.000227054
9.17928e-05
-0.000233407
6.08276e-05
-0.000237307
3.05754e-05
-0.000239679
6.6027e-07
-3.11823e-05
-0.000238862
-6.78262e-05
0.000346826
-0.000118728
0.000324767
-0.000166603
0.000304549
-0.000197008
0.000250975
-0.000222552
0.000218163
-0.000238876
0.000172177
-0.000251483
0.000137201
-0.000260301
0.000100611
-0.000267385
6.79114e-05
-0.000272554
3.57441e-05
-0.000275564
3.67047e-06
-2.91563e-05
-0.00027759
-6.91697e-05
0.000415996
-0.000133168
0.000388765
-0.000189311
0.000360692
-0.000225772
0.000287436
-0.000254576
0.000246966
-0.000271444
0.000189045
-0.000283591
0.000149349
-0.000290379
0.000107399
-0.000294915
7.24469e-05
-0.000298283
3.91121e-05
-0.000302083
7.47073e-06
-2.68634e-05
-0.000304376
-0.000142804
0.0005588
-0.000206125
0.000452085
-0.000268143
0.000422711
-0.000294794
0.000314086
-0.000314061
0.000266234
-0.000323054
0.000198037
-0.000328153
0.000154448
-0.000331615
0.000110861
-0.00033524
7.6072e-05
-0.000339795
4.36669e-05
-0.000345945
1.36213e-05
-1.84357e-05
-0.000354373
-0.000111303
0.000670103
-0.0002209
0.000561682
-0.000300945
0.000502756
-0.000339823
0.000352965
-0.000359432
0.000285843
-0.000364959
0.000203564
-0.000364896
0.000154386
-0.00036262
0.000108585
-0.000360845
7.42963e-05
-0.000360954
4.37762e-05
-0.000364553
1.72204e-05
-1.16753e-05
-0.000371313
-0.000372919
0.00104302
-0.000405966
0.000594729
-0.000447769
0.00054456
-0.000452997
0.000358193
-0.000437478
0.000270324
-0.000428039
0.000194124
-0.000412239
0.000138586
-0.000403652
9.99981e-05
-0.000398255
6.88987e-05
-0.000399103
4.46247e-05
-0.000406858
2.49749e-05
4.96688e-06
-0.0004235
-0.000680715
0.00172374
-0.000665465
0.000579478
-0.00066385
0.000542945
-0.000585796
0.000280139
-0.000515042
0.00019957
-0.000455134
0.000134217
-0.000406239
8.96908e-05
-0.000371297
6.50554e-05
-0.000346162
4.37647e-05
-0.000330711
2.91734e-05
-0.000322292
1.65554e-05
7.23508e-06
-0.00032456
0.00172374
0.00230322
0.00284616
0.0031263
0.00332587
0.00346009
0.00354978
0.00361483
0.0036586
0.00368777
0.00370433
0.00371156
-5.68371e-05
2.12117e-05
-3.74944e-05
-4.37642e-05
8.39178e-06
-2.14647e-05
-3.56159e-05
-2.46576e-06
-5.68253e-06
-2.80793e-05
-1.0794e-05
3.25738e-06
-2.10791e-05
-1.72216e-05
1.02214e-05
-1.39999e-05
-2.19232e-05
1.4844e-05
-6.88406e-06
-2.49783e-05
1.78624e-05
-2.53404e-05
1.84563e-05
-6.17973e-05
4.27439e-06
-4.84152e-05
-4.99038e-06
-3.96419e-05
-1.12391e-05
-3.14545e-05
-1.89814e-05
-2.37713e-05
-2.49048e-05
-1.58918e-05
-2.98027e-05
-7.84143e-06
-3.30287e-05
-3.31818e-05
-6.6374e-05
-4.52457e-06
-5.78084e-05
-1.35559e-05
-4.86923e-05
-2.03552e-05
-3.94635e-05
-2.82101e-05
-2.98515e-05
-3.45169e-05
-1.99669e-05
-3.96873e-05
-9.83151e-06
-4.3164e-05
-4.30133e-05
-7.24356e-05
-1.30055e-05
-6.38948e-05
-2.20967e-05
-5.44017e-05
-2.98484e-05
-4.4524e-05
-3.80878e-05
-3.39818e-05
-4.5059e-05
-2.28785e-05
-5.07906e-05
-1.13183e-05
-5.47242e-05
-5.43316e-05
-8.042e-05
-1.94365e-05
-7.25907e-05
-2.9926e-05
-6.29479e-05
-3.94912e-05
-5.20748e-05
-4.89609e-05
-4.00149e-05
-5.7119e-05
-2.7026e-05
-6.37795e-05
-1.34e-05
-6.83501e-05
-6.77317e-05
-9.00304e-05
-2.58437e-05
-8.18841e-05
-3.80722e-05
-7.16639e-05
-4.97114e-05
-5.97677e-05
-6.08571e-05
-4.63131e-05
-7.05736e-05
-3.1459e-05
-7.86336e-05
-1.56614e-05
-8.41477e-05
-8.3393e-05
-0.000102099
-3.19004e-05
-9.36101e-05
-4.65608e-05
-8.26769e-05
-6.06446e-05
-6.94387e-05
-7.40953e-05
-5.41551e-05
-8.58572e-05
-3.69344e-05
-9.58542e-05
-1.8467e-05
-0.000102615
-0.00010186
-0.000116448
-3.80296e-05
-0.000107533
-5.54754e-05
-9.57807e-05
-7.23971e-05
-8.10572e-05
-8.88188e-05
-6.37653e-05
-0.000103149
-4.37052e-05
-0.000115914
-2.20123e-05
-0.000124308
-0.000123872
-0.000133649
-4.42165e-05
-0.000124224
-6.49007e-05
-0.000111533
-8.50883e-05
-9.50035e-05
-0.000105348
-7.54551e-05
-0.000122698
-5.18914e-05
-0.000139478
-2.64308e-05
-0.000149769
-0.000150303
-0.000154348
-5.01388e-05
-0.000144793
-7.44551e-05
-0.000131606
-9.82751e-05
-0.000113285
-0.00012367
-9.14396e-05
-0.000144542
-6.33563e-05
-0.000167561
-3.28397e-05
-0.000180285
-0.000183143
-0.000177504
-5.59087e-05
-0.000167435
-8.45242e-05
-0.000153828
-0.000111882
-0.000133262
-0.000144236
-0.000109348
-0.000168457
-7.60371e-05
-0.000200872
-4.04302e-05
-0.000215892
-0.000223573
-0.000207486
-6.00639e-05
-0.000198674
-9.33361e-05
-0.00018638
-0.000124176
-0.000164819
-0.000165797
-0.00013895
-0.000194327
-9.84952e-05
-0.000241326
-5.41151e-05
-0.000260272
-0.000277688
-0.000235627
-6.32993e-05
-0.000226733
-0.00010223
-0.000215648
-0.00013526
-0.000192301
-0.000189144
-0.000166685
-0.000219943
-0.000119247
-0.000288765
-6.95845e-05
-0.000309934
-0.000347273
-0.000279014
-6.18754e-05
-0.000275658
-0.000105586
-0.000270671
-0.000140247
-0.000251001
-0.000208814
-0.00022696
-0.000243985
-0.000169704
-0.000346021
-0.000104941
-0.000374697
-0.000452214
-0.000306996
-5.9256e-05
-0.000304189
-0.000108392
-0.000303342
-0.000141094
-0.000284796
-0.00022736
-0.000269543
-0.000259238
-0.000207561
-0.000408004
-0.000146013
-0.000436245
-0.000598226
-0.000367052
-4.65773e-05
-0.000379641
-9.58032e-05
-0.000396715
-0.000124021
-0.000398686
-0.000225388
-0.000400842
-0.000257082
-0.000337311
-0.000471535
-0.000257776
-0.00051578
-0.000856003
-0.000382041
-3.58499e-05
-0.000393636
-8.42075e-05
-0.000414523
-0.000103134
-0.000423006
-0.000216906
-0.000454242
-0.000225846
-0.000413444
-0.000512332
-0.000391519
-0.000537705
-0.00124752
-0.000451305
-8.04482e-06
-0.000494723
-4.07891e-05
-0.000556623
-4.12345e-05
-0.000632759
-0.000140769
-0.000727363
-0.000131243
-0.000755239
-0.000484456
-0.00069788
-0.000595063
-0.0019454
-0.000326248
-6.3566e-06
-0.000345656
-2.13812e-05
-0.000349435
-3.7455e-05
-0.000381671
-0.000108533
-0.000371953
-0.00014096
-0.000374927
-0.000481482
-0.000281563
-0.000688427
-0.00222696
0.0037052
0.00368382
0.00364637
0.00353783
0.00339687
0.00291539
0.00222696
-9.84044e-07
9.84044e-07
-1.81844e-06
8.34395e-07
-2.32587e-06
5.07431e-07
-2.46005e-06
1.34179e-07
-2.21479e-06
-2.45258e-07
-1.65213e-06
-5.62656e-07
-8.62984e-07
-7.8915e-07
-8.62984e-07
-1.11423e-06
2.09827e-06
-2.04678e-06
1.76694e-06
-2.59644e-06
1.05709e-06
-2.70259e-06
2.40325e-07
-2.41309e-06
-5.34758e-07
-1.79406e-06
-1.18169e-06
-9.35784e-07
-1.64742e-06
-1.79877e-06
-1.6719e-06
3.77017e-06
-3.00101e-06
3.09606e-06
-3.73606e-06
1.79215e-06
-3.89021e-06
3.94469e-07
-3.44554e-06
-9.79421e-07
-2.5371e-06
-2.09013e-06
-1.31545e-06
-2.86908e-06
-3.11422e-06
-2.01163e-06
5.7818e-06
-3.57558e-06
4.66e-06
-4.376e-06
2.59257e-06
-4.40684e-06
4.25306e-07
-3.84311e-06
-1.54315e-06
-2.81434e-06
-3.11891e-06
-1.4544e-06
-4.22901e-06
-4.56862e-06
-3.82642e-06
9.60822e-06
-6.43297e-06
7.26656e-06
-7.50826e-06
3.66786e-06
-7.46191e-06
3.78958e-07
-6.36425e-06
-2.64081e-06
-4.56564e-06
-4.91752e-06
-2.3331e-06
-6.46156e-06
-6.90172e-06
-4.6314e-06
1.42396e-05
-7.73844e-06
1.03736e-05
-8.88396e-06
4.81338e-06
-8.54734e-06
4.23299e-08
-7.20981e-06
-3.97834e-06
-5.16497e-06
-6.96235e-06
-2.63404e-06
-8.99248e-06
-9.53576e-06
-1.05524e-05
2.4792e-05
-1.58305e-05
1.56517e-05
-1.63289e-05
5.31175e-06
-1.49469e-05
-1.33962e-06
-1.20346e-05
-6.8907e-06
-8.33246e-06
-1.06644e-05
-4.17617e-06
-1.31488e-05
-1.37119e-05
-1.27024e-05
-1.85153e-05
-1.88861e-05
-1.69683e-05
-1.36376e-05
-9.45804e-06
-4.74437e-06
)
;

boundaryField
{
    movingWall
    {
        type            calculated;
        value           uniform 0;
    }
    fixedWalls
    {
        type            calculated;
        value           uniform 0;
    }
    frontAndBack
    {
        type            empty;
        value           nonuniform List<scalar> 0();
    }
}


// ************************************************************************* //
