/*--------------------------------*- C++ -*----------------------------------*\
  =========                 |
  \\      /  F ield         | OpenFOAM: The Open Source CFD Toolbox
   \\    /   O peration     | Website:  https://openfoam.org
    \\  /    A nd           | Version:  8
     \\/     M anipulation  |
\*---------------------------------------------------------------------------*/
FoamFile
{
    version     2.0;
    format      ascii;
    class       volScalarField;
    location    "0.934";
    object      T;
}
// * * * * * * * * * * * * * * * * * * * * * * * * * * * * * * * * * * * * * //

dimensions      [0 0 0 1 0 0 0];

internalField   nonuniform List<scalar> 
2500
(
49.987
4.66924
-4.66852
-1.1615
1.16234
0.469612
-0.460476
-0.2202
0.221821
0.120298
-0.0966638
-0.126759
0.108403
0.0403085
-0.0119422
-0.086421
0.0284174
0.0622175
-0.015568
-0.0297525
-0.0333106
0.0494838
0.0239595
-0.0273702
-0.021975
-0.00833969
0.0398387
0.0114793
-0.0265374
-0.0158571
-0.00146772
0.0284129
0.0122503
-0.0205802
-0.0154648
-0.00306734
0.0187393
0.0167236
-0.00990501
-0.0150589
-0.00959099
0.00719994
0.0189121
0.00270789
-0.00782479
-0.0113901
-0.00937829
0.0107498
0.0125013
0.000831779
95.3693
49.9708
10.5129
-4.68434
-2.78278
1.1472
1.14881
-0.455047
-0.578585
0.22367
0.313448
-0.0487164
-0.304037
0.103568
0.128366
0.0422023
-0.165628
-0.0359448
0.130816
0.0298365
-0.0422404
-0.102318
0.0436072
0.0905132
-0.0124428
-0.0524944
-0.0529317
0.0478028
0.0663527
-0.0192274
-0.0486175
-0.0315231
0.0323014
0.0546518
-0.00408907
-0.04364
-0.0299108
0.0154721
0.0413175
0.0186337
-0.0242891
-0.0389189
-0.00353397
0.0253695
0.0239595
0.0107484
-0.0257471
-0.0310282
0.00816176
0.0136036
104.627
89.5507
49.9646
12.1588
-4.68935
-3.44829
1.14153
1.49857
-0.436192
-0.808857
0.225828
0.440935
0.0025304
-0.435046
0.0756608
0.209199
0.0879304
-0.208544
-0.118434
0.1809
0.0852822
-0.0443105
-0.155596
0.00372492
0.154457
0.0209642
-0.0737301
-0.0949528
0.0226868
0.124574
0.0109627
-0.076356
-0.0620793
0.0070536
0.0954581
0.0391378
-0.0677128
-0.0565531
-0.00870008
0.0505336
0.0726919
-0.0224833
-0.0702557
-0.020417
0.0071363
0.0521061
0.0539871
-0.042696
-0.0537838
-0.00437285
101.214
104.604
87.9313
49.9414
12.8487
-4.70498
-3.79196
1.13104
1.7083
-0.403565
-0.991327
0.237973
0.515178
0.080408
-0.556862
0.0428863
0.271421
0.139057
-0.22173
-0.220836
0.217039
0.139727
-0.0227576
-0.197696
-0.0669183
0.208754
0.0669816
-0.0696779
-0.137205
-0.0358782
0.175255
0.059566
-0.0777526
-0.0941493
-0.0537632
0.12446
0.100188
-0.0625828
-0.0737863
-0.0682378
0.0342062
0.137777
0.00722356
-0.0727714
-0.0536932
-0.0565452
0.0702188
0.116553
-0.0238455
-0.0485727
98.7813
102.871
104.59
87.2814
49.9252
13.2209
-4.71002
-4.00561
1.12624
1.84637
-0.353033
-1.1468
0.244875
0.567979
0.163929
-0.648085
-0.0162465
0.327137
0.189771
-0.208084
-0.321545
0.215592
0.200901
0.0138006
-0.218504
-0.149645
0.222882
0.128205
-0.0397879
-0.167106
-0.107473
0.181712
0.118332
-0.0389722
-0.116153
-0.124264
0.109162
0.14561
-0.00768809
-0.0628046
-0.134026
-0.0151072
0.152968
0.0567937
-0.0123393
-0.068482
-0.135042
0.0354827
0.124784
0.0311088
99.5931
98.7524
103.563
104.556
86.9525
49.896
13.4552
-4.71284
-4.16546
1.12937
1.92901
-0.274955
-1.30072
0.25986
0.593756
0.253378
-0.70861
-0.100858
0.384639
0.223216
-0.165578
-0.409065
0.177194
0.268585
0.0432237
-0.207835
-0.224243
0.191174
0.198054
-0.00829265
-0.171424
-0.159819
0.13465
0.172895
0.0138265
-0.123174
-0.155479
0.0524228
0.149456
0.0659596
-0.0415626
-0.153713
-0.0516044
0.0969779
0.0829253
0.0610168
-0.0573308
-0.141776
-0.00359786
0.0494811
100.398
98.9528
98.7383
103.95
104.526
86.7691
49.873
13.6262
-4.7062
-4.30039
1.14661
1.97616
-0.177534
-1.45428
0.278736
0.610093
0.33548
-0.740042
-0.209795
0.452904
0.240519
-0.109653
-0.480742
0.109923
0.351783
0.0559037
-0.179394
-0.286387
0.12927
0.284654
0.00758057
-0.165592
-0.188825
0.0570479
0.238636
0.0574227
-0.140956
-0.14813
-0.0189454
0.147564
0.144617
-0.0573658
-0.149174
-0.0575477
0.0278263
0.122044
0.102002
-0.0912177
-0.107612
-0.00899127
100.281
100.355
98.6218
98.7048
104.199
104.479
86.6439
49.8497
13.7584
-4.69127
-4.43825
1.18057
1.9977
-0.059302
-1.61723
0.293702
0.630009
0.414151
-0.749313
-0.348358
0.527141
0.261208
-0.0428371
-0.548082
0.01127
0.446868
0.0779491
-0.138713
-0.356813
0.0383669
0.38596
0.0386506
-0.148604
-0.231976
-0.0515825
0.320181
0.122044
-0.146743
-0.152401
-0.132252
0.154214
0.257585
-0.0583915
-0.144235
-0.112895
-0.0708901
0.207213
0.182664
-0.109367
-0.0986967
99.7233
100.671
100.325
98.4458
98.6827
104.401
104.436
86.5486
49.8347
13.87
-4.65586
-4.58869
1.22181
2.00671
0.0783758
-1.77386
0.277135
0.66213
0.491408
-0.725675
-0.510523
0.569561
0.306257
0.0366605
-0.592162
-0.125011
0.506429
0.140951
-0.0743488
-0.418667
-0.0909072
0.437988
0.118503
-0.0842728
-0.279527
-0.194144
0.335486
0.211243
-0.0639086
-0.147076
-0.283774
0.0899283
0.329938
0.0356563
-0.0506823
-0.191602
-0.240282
0.191549
0.250075
0.0177122
99.9242
99.6972
100.908
100.268
98.3252
98.6471
104.567
104.391
86.4611
49.8227
13.9553
-4.58998
-4.75512
1.26935
1.99288
0.232989
-1.90171
0.219392
0.705456
0.542716
-0.647698
-0.672817
0.559727
0.36659
0.102292
-0.567614
-0.275929
0.494027
0.227296
-0.0101314
-0.410571
-0.220688
0.384
0.213957
0.00351612
-0.267666
-0.289545
0.224952
0.251326
0.0708511
-0.0914448
-0.334601
-0.0327244
0.239531
0.129221
0.106878
-0.157518
-0.3008
0.0421205
0.124784
100.068
99.7415
99.6981
101.1
100.216
98.2533
98.6154
104.719
104.349
86.3859
49.8189
14.0148
-4.5034
-4.92826
1.33278
1.95324
0.387283
-1.99973
0.141625
0.766773
0.543992
-0.529899
-0.819356
0.52932
0.434581
0.111933
-0.479788
-0.410616
0.450709
0.316144
-0.00930835
-0.334176
-0.303131
0.280586
0.306294
0.0194813
-0.21988
-0.273186
0.0758764
0.261573
0.138856
-0.0877443
-0.240645
-0.0834497
0.0986798
0.166789
0.122916
-0.120019
-0.15737
-0.0200987
100.141
100.02
99.6027
99.6896
101.245
100.147
98.1996
98.5886
104.855
104.297
86.3146
49.8304
14.0624
-4.41811
-5.11022
1.41285
1.91463
0.52929
-2.09511
0.0547315
0.858003
0.524215
-0.412415
-0.973239
0.505466
0.531084
0.0887556
-0.390204
-0.555323
0.426295
0.437195
-0.0528106
-0.26448
-0.391989
0.200119
0.452271
-0.0146309
-0.208718
-0.260146
-0.0587266
0.362006
0.196934
-0.175412
-0.177553
-0.143911
0.0520477
0.321743
0.0694619
-0.206212
-0.0921931
99.8925
100.309
99.9854
99.512
99.704
101.376
100.071
98.1536
98.5783
104.989
104.239
86.2298
49.8551
14.122
-4.33539
-5.30724
1.47714
1.91199
0.669736
-2.1914
-0.0689363
0.956651
0.548283
-0.301989
-1.14419
0.442065
0.648482
0.124437
-0.315934
-0.738023
0.366702
0.57962
-0.0143477
-0.202956
-0.551306
0.082533
0.610721
0.0502471
-0.152893
-0.346599
-0.273254
0.459728
0.34184
-0.12695
-0.149806
-0.37285
-0.0767764
0.510144
0.186638
-0.113528
99.9447
99.9149
100.421
99.9326
99.4283
99.7256
101.498
99.9882
98.1017
98.572
105.132
104.189
86.1229
49.8763
14.1904
-4.22786
-5.51031
1.49352
1.93561
0.815678
-2.23709
-0.251293
1.01668
0.617929
-0.174434
-1.26302
0.282213
0.72433
0.236816
-0.215259
-0.870352
0.196423
0.636837
0.13661
-0.0871838
-0.66362
-0.119007
0.593741
0.204647
0.0415409
-0.377829
-0.500956
0.324257
0.389598
0.122498
0.0357541
-0.521986
-0.323808
0.356676
0.238548
100.037
99.833
99.9627
100.514
99.8841
99.3528
99.7527
101.614
99.9069
98.0549
98.5511
105.281
104.149
86.0193
49.8821
14.2388
-4.08608
-5.6988
1.48714
1.93889
0.942286
-2.19696
-0.45912
1.04647
0.654575
-0.0449691
-1.25914
0.0644915
0.74828
0.317336
-0.108768
-0.836749
-0.0273827
0.585018
0.262259
0.0108832
-0.576019
-0.27611
0.389354
0.292171
0.186859
-0.257332
-0.480101
0.0603368
0.22479
0.262503
0.200471
-0.343486
-0.308806
0.0141553
100.061
100.003
99.7359
100.021
100.578
99.8409
99.2862
99.788
101.712
99.8259
98.0302
98.5195
105.424
104.093
85.9518
49.8834
14.2642
-3.95007
-5.87472
1.51789
1.91262
1.03013
-2.13052
-0.649568
1.11867
0.625069
0.0421083
-1.19617
-0.132982
0.819151
0.307413
-0.0741778
-0.708694
-0.214023
0.585897
0.30793
-0.0446004
-0.394525
-0.33299
0.248148
0.371727
0.0923779
-0.191421
-0.281399
-0.0783433
0.175605
0.255352
0.0226231
-0.173017
-0.0797158
99.9922
100.129
99.9634
99.6571
100.095
100.611
99.7933
99.2303
99.8461
101.782
99.7301
98.0215
98.5071
105.566
103.993
85.9074
49.8978
14.3148
-3.86038
-6.068
1.58319
1.90844
1.12043
-2.12697
-0.840458
1.24664
0.61326
0.115333
-1.21055
-0.326276
0.97766
0.31366
-0.0650737
-0.674176
-0.424491
0.71646
0.403025
-0.136626
-0.316679
-0.494709
0.235164
0.613291
-0.00973878
-0.224823
-0.286029
-0.261404
0.388452
0.439065
-0.168892
-0.197081
99.924
100.062
100.173
99.9168
99.5986
100.193
100.625
99.7297
99.1802
99.9358
101.847
99.6084
98.0007
98.5286
105.728
103.866
85.8303
49.9189
14.4272
-3.78716
-6.28788
1.59465
1.96116
1.2711
-2.16241
-1.07194
1.31338
0.697104
0.263104
-1.29273
-0.576407
1.06458
0.428554
0.0781352
-0.728361
-0.729176
0.759084
0.564013
0.00749565
-0.259612
-0.829607
0.0954287
0.80859
0.14946
-0.0229349
-0.441151
-0.688943
0.398258
0.647017
0.0761563
100.018
99.8582
100.138
100.193
99.8545
99.5438
100.308
100.632
99.6514
99.1205
100.04
101.934
99.4706
97.9567
98.5477
105.922
103.766
85.6996
49.9215
14.5538
-3.65441
-6.49551
1.49962
2.02635
1.44881
-2.10741
-1.31598
1.21994
0.819106
0.465255
-1.26726
-0.827305
0.917328
0.561931
0.334153
-0.669576
-0.958841
0.51682
0.591193
0.327889
-0.0549555
-0.980864
-0.206027
0.591629
0.331953
0.421896
-0.32273
-0.912837
0.0250393
0.338341
100.039
99.9587
99.821
100.225
100.205
99.7927
99.491
100.431
100.635
99.5864
99.0462
100.137
102.032
99.3455
97.9181
98.5178
106.133
103.7
85.5771
49.9
14.6088
-3.44831
-6.65965
1.38569
2.04182
1.54121
-1.91263
-1.5085
1.06604
0.876841
0.556213
-1.05525
-0.96326
0.654554
0.615534
0.433012
-0.456843
-0.909287
0.166045
0.472935
0.453546
0.110285
-0.706598
-0.343856
0.16615
0.278684
0.541572
-0.0529688
-0.53262
-0.178853
100.018
100.069
99.8871
99.8045
100.298
100.205
99.7364
99.4539
100.543
100.612
99.5526
98.9748
100.232
102.087
99.2496
97.9161
98.4601
106.322
103.608
85.5342
49.8846
14.5976
-3.25592
-6.82168
1.38372
2.02608
1.52497
-1.70514
-1.67708
1.04906
0.894981
0.469203
-0.815418
-1.0479
0.545784
0.696359
0.260671
-0.28912
-0.758696
-0.029183
0.540912
0.327075
-0.0225361
-0.365858
-0.31961
0.0728909
0.337051
0.188769
-0.122771
-0.112782
99.9639
100.077
100.08
99.8176
99.823
100.354
100.184
99.6798
99.4598
100.641
100.551
99.5248
98.9355
100.358
102.067
99.1586
97.9332
98.462
106.474
103.439
85.5371
49.9032
14.6413
-3.15528
-7.0507
1.46827
2.0535
1.55032
-1.62269
-1.92968
1.16577
0.976347
0.414069
-0.706875
-1.29289
0.595742
0.917754
0.120116
-0.214556
-0.889386
-0.18013
0.897
0.31506
-0.162205
-0.331346
-0.612216
0.212836
0.775432
0.0297286
-0.239437
99.9655
99.9752
100.129
100.064
99.7493
99.88
100.407
100.133
99.6088
99.5127
100.75
100.46
99.4576
98.9321
100.532
102.021
99.0246
97.9184
98.5649
106.628
103.236
85.4622
49.9379
14.8209
-3.09375
-7.32741
1.44946
2.13408
1.75769
-1.60713
-2.26167
1.16263
1.09744
0.626845
-0.640517
-1.68615
0.511738
1.08657
0.319407
0.00482173
-1.24235
-0.523704
1.05647
0.507908
0.191338
-0.312791
-1.22257
0.0106618
0.970454
0.316294
100.031
99.8978
100.014
100.174
100.023
99.6728
99.9639
100.467
100.062
99.5159
99.5786
100.893
100.364
99.351
98.9192
100.739
102.025
98.8412
97.8536
98.6829
106.838
103.097
85.2591
49.9428
15.0354
-2.93773
-7.53725
1.22048
2.19048
2.03923
-1.4738
-2.48596
0.873903
1.12007
0.981736
-0.444598
-1.87461
0.161038
0.923118
0.670966
0.411777
-1.29821
-0.857032
0.632282
0.506994
0.798946
0.0444576
-1.36419
-0.414
0.348695
100.029
100.006
99.8411
100.074
100.216
99.976
99.5899
100.06
100.523
100.005
99.4104
99.6289
101.049
100.28
99.2653
98.8467
100.946
102.072
98.6794
97.7798
98.6948
107.105
103.036
85.0525
49.9066
15.1018
-2.65269
-7.62715
0.941358
2.1842
2.12308
-1.17758
-2.48152
0.487538
1.05463
1.08646
-0.182542
-1.63643
-0.212771
0.593028
0.759271
0.591822
-0.870208
-0.79825
0.0404046
0.243201
0.884973
0.3208
-0.717851
-0.385921
99.9969
100.074
99.9592
99.8014
100.133
100.243
99.932
99.5227
100.154
100.542
99.9823
99.3138
99.684
101.15
100.212
99.2446
98.7428
101.131
102.058
98.6176
97.746
98.6194
107.345
102.944
85.008
49.8745
15.011
-2.37284
-7.72028
0.86556
2.19284
1.94754
-0.884692
-2.44285
0.31499
1.12454
0.830125
-0.0538364
-1.30377
-0.40505
0.61542
0.605319
0.29186
-0.435545
-0.588272
-0.0925378
0.322571
0.407893
0.023377
-0.131414
99.968
100.035
100.103
99.9035
99.7994
100.181
100.245
99.8791
99.5086
100.243
100.508
99.9598
99.2544
99.7934
101.153
100.138
99.2494
98.7171
101.293
101.913
98.6216
97.7516
98.6302
107.481
102.719
85.0973
49.893
14.993
-2.24032
-7.98235
0.9902
2.28957
1.82148
-0.72916
-2.68638
0.352256
1.41572
0.605049
0.00771473
-1.38689
-0.610794
1.07357
0.607919
0.018767
-0.357813
-0.915531
0.0413266
0.96571
0.192895
-0.236405
99.9838
99.9608
100.079
100.098
99.8415
99.8411
100.234
100.209
99.7998
99.5558
100.347
100.441
99.8783
99.2416
99.9724
101.117
100.014
99.202
98.8314
101.459
101.712
98.5437
97.7543
98.8416
107.556
102.42
85.0825
49.9447
15.2428
-2.2062
-8.36963
1.00567
2.39326
2.06499
-0.61415
-3.17166
0.2723
1.61242
0.797894
0.317355
-1.81537
-1.05198
1.31616
0.801204
0.437046
-0.274188
-1.72762
-0.208957
1.27439
0.485764
100.027
99.929
99.985
100.127
100.06
99.7667
99.9149
100.306
100.141
99.6913
99.624
100.495
100.368
99.7341
99.2322
100.189
101.143
99.8216
99.0874
98.988
101.681
101.591
98.3003
97.72
99.126
107.717
102.211
84.8025
49.9635
15.6243
-2.06708
-8.61975
0.673491
2.35584
2.53947
-0.371311
-3.42564
-0.108768
1.35656
1.22796
0.881577
-1.94039
-1.44718
0.808462
0.730305
1.26764
0.200649
-1.99274
-0.699916
0.4698
100.024
100.01
99.8757
100.036
100.177
100.01
99.6791
100.005
100.384
100.081
99.5647
99.6746
100.671
100.305
99.6031
99.1575
100.41
101.232
99.6341
98.963
99.0232
101.978
101.568
98.0251
97.6452
99.2387
108.045
102.149
84.4254
49.9192
15.7778
-1.72009
-8.57941
0.172634
2.21283
2.73572
-0.0425878
-3.12451
-0.566459
0.850767
1.37753
1.17693
-1.42534
-1.346
-0.0154774
0.319615
1.4952
0.59781
-1.1686
-0.644754
99.992
100.07
99.9681
99.8353
100.088
100.219
99.9615
99.6029
100.093
100.426
100.061
99.4407
99.7269
100.79
100.266
99.5465
99.03
100.613
101.257
99.5713
98.8746
98.9343
102.269
101.512
97.9521
97.551
99.1388
108.409
102.089
84.2988
49.862
15.5761
-1.3166
-8.4745
-0.0743478
2.21037
2.41443
0.175193
-2.62735
-0.813571
0.763888
1.12909
0.837428
-0.759591
-0.992234
-0.283693
0.277062
0.834958
0.274975
-0.200067
99.9736
100.022
100.1
99.9169
99.8303
100.125
100.237
99.9066
99.5871
100.163
100.412
100.051
99.3625
99.8304
100.781
100.243
99.5272
98.986
100.767
101.125
99.6323
98.8224
98.9278
102.41
101.312
98.1057
97.4832
99.0915
108.573
101.848
84.5087
49.8654
15.3655
-1.09389
-8.69789
0.0639249
2.47039
1.99781
0.279687
-2.63953
-0.94359
1.34076
0.920708
0.38573
-0.564809
-1.24932
0.0483278
1.03201
0.24352
-0.203959
99.989
99.9647
100.059
100.093
99.8682
99.8714
100.16
100.207
99.8337
99.6536
100.229
100.354
99.9769
99.3724
99.9963
100.696
100.169
99.4729
99.1367
100.869
100.906
99.6276
98.807
99.1713
102.386
101.018
98.197
97.4995
99.3636
108.495
101.447
84.6911
49.9309
15.6021
-1.07179
-9.28332
0.207288
2.71764
2.11535
0.545685
-3.28279
-1.26268
1.87322
1.05167
0.751543
-0.677671
-2.32161
0.132423
1.67767
0.488658
100.018
99.9481
99.9895
100.097
100.043
99.8179
99.9534
100.214
100.12
99.7411
99.7636
100.34
100.264
99.8177
99.4346
100.206
100.664
99.9686
99.3755
99.392
101.01
100.735
99.3877
98.8307
99.5534
102.409
100.761
97.9436
97.5996
99.8582
108.454
101.113
84.4181
49.9792
16.2461
-1.00049
-9.74036
-0.103258
2.54706
2.78386
1.103
-3.78248
-1.7269
1.46022
1.19694
1.93505
-0.447059
-3.06646
-0.417315
0.920322
100.023
99.9923
99.9106
100.047
100.135
99.9674
99.755
100.065
100.28
100.019
99.6227
99.8707
100.505
100.16
99.6458
99.4367
100.461
100.709
99.7132
99.2587
99.5441
101.302
100.634
99.032
98.8227
99.8012
102.705
100.585
97.4713
97.6641
100.18
108.768
101.004
83.7674
49.9446
16.6903
-0.654236
-9.59341
-0.812365
2.01603
3.28173
1.58727
-3.34887
-1.90884
0.266279
0.963562
2.67634
0.137967
-2.2955
-0.859055
99.9985
100.059
99.9397
99.886
100.11
100.173
99.8879
99.6957
100.175
100.327
99.9606
99.4822
99.9766
100.631
100.108
99.5202
99.3491
100.728
100.719
99.6035
99.1021
99.5481
101.662
100.526
98.8866
98.6679
99.8316
103.169
100.427
97.2446
97.5433
100.115
109.362
100.996
83.3469
49.8614
16.4453
-0.124102
-9.06167
-1.35799
1.75643
2.99153
1.52459
-2.25357
-1.7104
-0.445779
0.688875
1.94337
0.325603
-0.612315
99.9763
100.035
100.079
99.8837
99.8878
100.149
100.199
99.8137
99.6918
100.232
100.342
99.9343
99.3889
100.089
100.617
100.142
99.4246
99.322
100.876
100.624
99.707
98.9204
99.5932
101.805
100.392
99.0672
98.4087
99.861
103.379
100.245
97.5091
97.2745
99.9392
109.741
100.806
83.609
49.8284
15.8339
0.266833
-8.96622
-1.33645
2.24992
2.22422
1.11321
-1.6541
-1.78175
0.171762
1.07351
0.484398
-0.0560913
99.9874
99.9725
100.07
100.063
99.8545
99.9227
100.165
100.172
99.7633
99.7716
100.235
100.313
99.8726
99.4439
100.183
100.498
100.153
99.3657
99.5031
100.824
100.476
99.7997
98.87
99.8318
101.591
100.266
99.2742
98.3278
100.112
103.084
100.055
97.9082
97.1513
100.134
109.533
100.343
84.2037
49.8893
15.7683
0.350706
-9.77277
-1.03448
3.04014
1.93655
1.26644
-2.20039
-2.7404
1.3114
1.88439
0.186542
100.009
99.9613
100.001
100.086
100.003
99.8553
99.9993
100.173
100.063
99.7477
99.9091
100.257
100.192
99.7627
99.6286
100.282
100.382
99.9761
99.4022
99.8186
100.737
100.296
99.6344
99.0815
100.177
101.308
100.075
99.1472
98.6413
100.53
102.631
99.8165
97.8386
97.4296
100.786
109.037
99.841
84.2336
49.9735
16.6842
0.339434
-10.8346
-1.13451
3.01686
2.57834
2.50564
-3.10785
-3.98588
1.30647
1.70076
100.019
99.9737
99.9549
100.064
100.078
99.9113
99.8636
100.127
100.167
99.9114
99.7237
100.084
100.337
99.9864
99.6449
99.7924
100.494
100.274
99.6617
99.4736
100.096
100.878
100.008
99.2993
99.3645
100.487
101.376
99.6772
98.7475
99.1004
100.902
102.651
99.419
97.2064
97.9236
101.423
109.034
99.5961
83.2992
49.9758
17.8293
0.59185
-10.9186
-1.89295
1.75619
3.46237
3.91983
-2.98499
-3.92528
-0.292756
100.012
100.027
99.9137
99.9727
100.137
100.066
99.801
99.8784
100.267
100.156
99.7797
99.6489
100.292
100.401
99.8352
99.4956
99.8743
100.799
100.135
99.4613
99.3745
100.329
101.195
99.67
99.1009
99.3288
100.797
101.762
99.1751
98.4884
99.1409
101.176
103.262
98.9006
96.6438
98.0545
101.55
109.884
99.5995
82.1656
49.8846
17.9223
1.18065
-9.68671
-2.78264
0.413645
3.51595
3.79635
-1.54686
-1.96157
99.9849
100.056
100.013
99.8571
100.002
100.19
100.059
99.6987
99.9215
100.334
100.177
99.6723
99.5968
100.447
100.394
99.8411
99.2925
99.9828
100.946
100.069
99.4623
99.0945
100.599
101.301
99.5678
99.1167
98.9449
101.169
101.941
98.9826
98.5815
98.6039
101.465
103.771
98.577
96.8049
97.505
101.271
110.901
99.5216
82.0899
49.802
16.6859
1.78258
-8.46399
-3.08287
0.77925
2.58755
1.7364
-0.0953022
99.9804
99.9971
100.09
99.9799
99.8455
100.023
100.212
100.026
99.6743
99.9789
100.311
100.197
99.594
99.6843
100.429
100.365
99.8785
99.204
100.15
100.77
100.16
99.4794
98.9993
100.786
101.005
99.8102
99.1402
98.748
101.404
101.558
99.3044
98.7846
98.1384
101.751
103.418
98.7164
97.5242
96.7996
101.225
110.923
99.0943
83.3206
49.8258
15.5313
2.04795
-9.08183
-2.7516
3.08913
1.70985
-0.031834
100
99.9668
100.024
100.08
99.9431
99.888
100.053
100.178
99.947
99.7634
100.035
100.254
100.097
99.6244
99.8789
100.311
100.292
99.7872
99.4295
100.253
100.483
100.173
99.4275
99.3744
100.717
100.594
99.9693
99.1139
99.1991
101.268
100.927
99.6399
98.8176
98.5489
101.829
102.378
99.0199
97.9129
96.9422
101.837
109.695
98.4463
84.4484
49.93
16.2972
2.02511
-11.6598
-2.52111
4.94531
1.91192
100.008
99.9741
99.9923
100.057
100.015
99.9091
99.9711
100.119
100.058
99.8596
99.8939
100.153
100.161
99.8717
99.7577
100.081
100.309
100.021
99.6562
99.812
100.342
100.353
99.7941
99.4789
99.937
100.627
100.377
99.5379
99.2563
99.99
101.036
100.595
99.2133
98.7893
99.7043
101.739
101.714
98.7034
97.3955
98.2186
102.771
108.539
97.9732
83.6605
49.9896
19.0366
2.12484
-13.6921
-3.05254
2.95666
100.016
99.9818
99.9464
100.061
100.08
99.9281
99.8567
100.099
100.189
99.9127
99.7615
100.006
100.364
99.9991
99.6779
99.8005
100.348
100.405
99.6186
99.6014
99.9862
100.684
100.266
99.2233
99.6218
100.196
100.994
100.203
98.7464
99.5449
100.378
101.383
100.58
98.0637
98.9212
100.458
101.997
102.146
97.4326
96.4754
99.4742
103.277
109.209
97.8726
80.9195
49.9266
21.197
2.64424
-11.8165
-4.13032
100.008
100.038
99.9249
99.9367
100.133
100.1
99.8392
99.8052
100.236
100.218
99.8392
99.6134
100.145
100.507
99.897
99.5574
99.6915
100.704
100.376
99.4624
99.4523
99.9665
101.205
100.035
99.045
99.469
100.195
101.721
99.8505
98.4384
99.4678
100.201
102.398
100.431
97.323
98.9942
99.9592
102.99
103.059
96.1269
96.2253
99.0434
103.08
111.779
97.892
78.766
49.8061
19.4422
3.40452
-4.87804
99.9813
100.045
100.042
99.8717
99.9523
100.165
100.121
99.757
99.8245
100.276
100.24
99.8067
99.5191
100.277
100.455
99.9884
99.4039
99.6932
100.85
100.26
99.6576
99.125
100.097
101.332
99.8994
99.353
98.9443
100.361
101.97
99.6208
98.9314
98.785
100.084
103.062
100.057
97.9528
98.5684
98.8653
104.092
103.099
96.3333
97.0103
96.7706
102.748
113.776
97.6076
80.5157
49.7645
12.6687
3.94424
99.9876
99.9841
100.073
100.015
99.8745
99.9728
100.164
100.088
99.7523
99.9067
100.209
100.244
99.7516
99.6533
100.244
100.339
100.068
99.3518
99.9252
100.565
100.279
99.7895
99.0652
100.346
100.817
100.113
99.5786
98.7622
100.658
101.266
99.9013
99.4994
98.2986
100.437
102.333
99.9285
99.3277
97.9312
98.7621
103.909
101.797
98.3359
97.9726
94.9975
103.058
111.901
96.9252
87.271
49.8495
4.05917
100.002
99.9789
100.01
100.05
99.9724
99.9328
100.015
100.115
99.9759
99.8685
99.9924
100.15
100.083
99.7807
99.9259
100.128
100.224
99.8878
99.6695
100.114
100.219
100.218
99.6536
99.6427
100.338
100.263
100.196
99.4685
99.5264
100.597
100.343
100.188
99.4231
99.0883
100.801
100.733
100.126
99.6879
98.2823
100.247
101.996
100.266
99.9796
97.9857
97.0143
104.066
105.001
96.2087
95.8647
49.9596
)
;

boundaryField
{
    left
    {
        type            fixedValue;
        value           uniform 100;
    }
    right
    {
        type            zeroGradient;
    }
    up
    {
        type            zeroGradient;
    }
    down
    {
        type            fixedValue;
        value           uniform 0;
    }
    frontAndBack
    {
        type            empty;
    }
}


// ************************************************************************* //
