/*--------------------------------*- C++ -*----------------------------------*\
  =========                 |
  \\      /  F ield         | OpenFOAM: The Open Source CFD Toolbox
   \\    /   O peration     | Website:  https://openfoam.org
    \\  /    A nd           | Version:  8
     \\/     M anipulation  |
\*---------------------------------------------------------------------------*/
FoamFile
{
    version     2.0;
    format      ascii;
    class       volScalarField;
    location    "55.5";
    object      p;
}
// * * * * * * * * * * * * * * * * * * * * * * * * * * * * * * * * * * * * * //

dimensions      [0 2 -2 0 0 0 0];

internalField   nonuniform List<scalar> 
464
(
-5.88398e-08
1.054e-06
5.45759e-06
1.19891e-05
2.13911e-05
3.35345e-05
4.89354e-05
6.66359e-05
8.93599e-05
0.000111335
0.000143231
0.000164446
-1.4306e-06
-3.43132e-07
4.0837e-06
1.07472e-05
2.05208e-05
3.32671e-05
4.94541e-05
6.82267e-05
9.21286e-05
0.000116101
0.000149964
0.000176362
-6.56717e-06
-5.70739e-06
-1.73108e-06
3.98348e-06
1.22475e-05
2.31295e-05
3.7057e-05
5.3799e-05
7.48393e-05
9.72977e-05
0.000126445
0.000152895
-1.38708e-05
-1.31179e-05
-8.9487e-06
-2.39152e-06
7.46628e-06
2.04639e-05
3.69184e-05
5.67175e-05
8.10204e-05
0.000107805
0.000140879
0.000173986
-2.40492e-05
-2.394e-05
-2.1228e-05
-1.76486e-05
-1.14649e-05
-2.6636e-06
9.41409e-06
2.50627e-05
4.49032e-05
6.85337e-05
9.74156e-05
0.000128416
-3.59589e-05
-3.53261e-05
-3.11986e-05
-2.50801e-05
-1.60261e-05
-3.93758e-06
1.1765e-05
3.15684e-05
5.60768e-05
8.54751e-05
0.000120613
0.00016184
-5.67158e-05
-5.84394e-05
-5.70292e-05
-5.67949e-05
-5.30814e-05
-4.75489e-05
-3.81362e-05
-2.45481e-05
-5.89673e-06
1.87238e-05
4.89112e-05
8.77769e-05
-5.81752e-05
-5.85469e-05
-5.6745e-05
-5.33166e-05
-4.78184e-05
-3.91731e-05
-2.70349e-05
-9.79197e-06
1.2899e-05
4.34501e-05
7.89721e-05
0.000129798
-0.000105295
-0.000110299
-0.000109218
-0.000116096
-0.000114253
-0.000115816
-0.000110684
-0.000101579
-8.74096e-05
-6.13538e-05
-3.71073e-05
1.75281e-05
-7.88251e-05
-8.08204e-05
-8.39282e-05
-8.49388e-05
-8.75133e-05
-8.53934e-05
-8.23367e-05
-7.09055e-05
-5.77612e-05
-2.5645e-05
1.12009e-06
6.76548e-05
-0.000162588
-0.000174851
-0.000172911
-0.000195322
-0.00019454
-0.000211949
-0.000212399
-0.000213493
-0.000211405
-0.000185309
-0.000179188
-0.000109481
-9.38622e-05
-9.77624e-05
-0.000110125
-0.000116449
-0.000134978
-0.000141315
-0.000159224
-0.000154405
-0.000167554
-0.000133587
-0.00013936
-5.28666e-05
-0.000214672
-0.000243274
-0.000238485
-0.000292356
-0.000291526
-0.000338202
-0.00034667
-0.000367656
-0.000385618
-0.000367661
-0.000395292
-0.00031929
-9.61623e-05
-0.000103671
-0.000129768
-0.000142881
-0.000186393
-0.000204569
-0.000258264
-0.000262598
-0.000322451
-0.000289411
-0.000356317
-0.000258602
-0.00022883
-0.000298159
-0.000289105
-0.000405087
-0.000402455
-0.000496833
-0.000515311
-0.000566529
-0.000611677
-0.00061256
-0.000691017
-0.000628608
-7.66473e-05
-9.83606e-05
-0.000135636
-0.000159007
-0.000231942
-0.000271461
-0.000374544
-0.000394169
-0.000517509
-0.000491711
-0.000636626
-0.000547073
-0.000105064
-0.00030828
-0.000307024
-0.000542255
-0.000536312
-0.000693518
-0.000723117
-0.000807005
-0.000879221
-0.000906566
-0.0010223
-0.0010101
-3.37821e-05
-0.000120507
-0.000134302
-0.000159923
-0.000248244
-0.000334085
-0.00050238
-0.000545819
-0.000742742
-0.000726845
-0.000925367
-0.000867551
0.000406398
-0.000351861
-0.000320885
-0.00076488
-0.000710322
-0.000932411
-0.000980433
-0.00108362
-0.00117729
-0.00123181
-0.00130104
-0.00141866
-0.0010226
0.000259938
0.000141345
-0.000115232
-0.000307412
-0.000442371
-0.000758271
-0.000795133
-0.001062
-0.0010315
-0.00121148
-0.00119111
0.00020932
0.000231015
0.000255028
0.00027231
0.000289052
0.000301104
0.000310131
0.000313734
0.000226295
0.000249934
0.000278124
0.000297555
0.000316218
0.000329756
0.000339719
0.000343792
0.000188976
0.000217903
0.000249641
0.000277619
0.000302804
0.000323371
0.000337696
0.000344383
0.000214376
0.000248983
0.000285093
0.000317284
0.000345958
0.000370138
0.000386572
0.000394673
0.000166214
0.000206749
0.000247446
0.000292065
0.000327608
0.000365133
0.000386717
0.000400574
0.000205854
0.000253668
0.000300981
0.000353419
0.000395363
0.00044115
0.000467136
0.000485321
0.000127423
0.000188487
0.00023599
0.000314076
0.00036109
0.000436635
0.000468336
0.000502332
0.000181314
0.00025355
0.000311632
0.000403893
0.000462832
0.000557202
0.000598758
0.000646549
4.88292e-05
0.000144371
0.000193137
0.000332053
0.000392
0.000550463
0.000601117
0.000694435
0.000118939
0.000226867
0.000287951
0.000451811
0.000530588
0.000732551
0.00080613
0.00094879
-0.000100537
3.84417e-05
7.23679e-05
0.000308445
0.000374128
0.000707054
0.000801078
0.00108815
-4.50027e-05
0.000129444
0.000156667
0.000435924
0.000517464
0.000943297
0.00109462
0.00156425
-0.000353712
-0.000177729
-0.00021474
0.000143027
0.000143849
0.000805084
0.000979581
0.0019076
-0.000342111
-0.000134292
-0.000235167
0.000190768
0.000124375
0.000925022
0.0010975
0.00260031
-0.000766761
-0.000577443
-0.000836212
-0.000346436
-0.00080148
0.000307642
-0.000304667
0.0020866
-0.000751998
-0.000557519
-0.000943995
-0.000526842
-0.00143667
-0.000325466
-0.00283552
0.000754557
-0.00123532
-0.00111013
-0.00171881
-0.00123549
-0.00266209
-0.00146724
-0.00426308
-0.000949359
-0.00110382
-0.00101847
-0.00145667
-0.00141387
-0.00240744
-0.00267347
-0.00402424
0.000300561
-0.00146476
-0.00158708
-0.00221502
-0.00196338
-0.00401125
-0.00462728
-0.00543792
0.0011487
-0.001313
-0.00131151
-0.00160007
-0.00160597
-0.00180975
-0.000608935
0.00313288
0.0169901
0.000282223
0.000282625
0.000283676
0.000284886
0.000286311
0.000287492
0.000288459
0.000288825
0.000283883
0.000284318
0.000285412
0.000286678
0.00028808
0.00028923
0.000290158
0.000290503
0.000278612
0.000279258
0.000280916
0.000282719
0.000284937
0.000286712
0.000288189
0.00028874
0.000283437
0.000284287
0.000286194
0.000288352
0.000290602
0.000292409
0.000293844
0.000294372
0.000270921
0.000272543
0.000276133
0.000279755
0.000284127
0.000287451
0.000290197
0.000291211
0.00027931
0.00028159
0.000285748
0.000290205
0.000294656
0.000298156
0.000300892
0.000301905
0.000253705
0.000258998
0.00026782
0.000275794
0.000284675
0.00029114
0.000296291
0.000298223
0.000265436
0.000273361
0.000283267
0.000292726
0.000301958
0.000308952
0.000314307
0.000316345
)
;

boundaryField
{
    movingWall
    {
        type            zeroGradient;
    }
    fixedWalls
    {
        type            zeroGradient;
    }
    frontAndBack
    {
        type            empty;
    }
}


// ************************************************************************* //
