/*--------------------------------*- C++ -*----------------------------------*\
  =========                 |
  \\      /  F ield         | OpenFOAM: The Open Source CFD Toolbox
   \\    /   O peration     | Website:  https://openfoam.org
    \\  /    A nd           | Version:  8
     \\/     M anipulation  |
\*---------------------------------------------------------------------------*/
FoamFile
{
    version     2.0;
    format      ascii;
    class       volVectorField;
    location    "55.5";
    object      U;
}
// * * * * * * * * * * * * * * * * * * * * * * * * * * * * * * * * * * * * * //

dimensions      [0 1 -1 0 0 0 0];

internalField   nonuniform List<vector> 
464
(
(-0.000169633 0.00016811 0)
(-0.000561576 0.000187546 0)
(-0.00097379 0.000182004 0)
(-0.00135476 0.00017215 0)
(-0.00171967 0.000157462 0)
(-0.00205759 0.000136863 0)
(-0.00234774 0.000110175 0)
(-0.00263102 7.45921e-05 0)
(-0.00279371 3.32393e-05 0)
(-0.00304464 -2.57937e-05 0)
(-0.00298918 -7.31605e-05 0)
(-0.00331201 -6.53556e-06 0)
(-0.000195434 0.000563246 0)
(-0.000643725 0.000625436 0)
(-0.00111406 0.000608927 0)
(-0.00155033 0.000581682 0)
(-0.00196941 0.000546254 0)
(-0.00235806 0.000503355 0)
(-0.00269586 0.000457051 0)
(-0.00302219 0.000397797 0)
(-0.00322614 0.000357509 0)
(-0.00351649 0.000268846 0)
(-0.00351872 0.000289817 0)
(-0.00388359 0.000131649 0)
(-0.000201703 0.000997979 0)
(-0.000664733 0.00110527 0)
(-0.00114954 0.00107439 0)
(-0.00159606 0.00102159 0)
(-0.00202175 0.000948294 0)
(-0.00241062 0.000854219 0)
(-0.00275084 0.000743557 0)
(-0.00305701 0.000606044 0)
(-0.00326665 0.000477463 0)
(-0.00347784 0.000290858 0)
(-0.0035007 0.000216893 0)
(-0.00357865 -2.84589e-05 0)
(-0.000210739 0.00143251 0)
(-0.000696084 0.00158699 0)
(-0.00120751 0.00154415 0)
(-0.0016845 0.00147411 0)
(-0.00214673 0.0013804 0)
(-0.00257434 0.00126367 0)
(-0.00295696 0.00112594 0)
(-0.003302 0.000961511 0)
(-0.00355564 0.000789857 0)
(-0.0037916 0.000563855 0)
(-0.00385113 0.000382146 0)
(-0.00390662 6.27805e-05 0)
(-0.000221713 0.00189752 0)
(-0.000733019 0.00210155 0)
(-0.00126813 0.00204151 0)
(-0.00176009 0.00193999 0)
(-0.00223235 0.00180183 0)
(-0.00266513 0.00162727 0)
(-0.00305302 0.00141832 0)
(-0.00339286 0.00117062 0)
(-0.00366422 0.000899873 0)
(-0.00388532 0.00057027 0)
(-0.00400167 0.000263508 0)
(-0.00407211 -0.000163197 0)
(-0.000237964 0.00239076 0)
(-0.000790348 0.00265585 0)
(-0.00137635 0.00258906 0)
(-0.00192447 0.0024837 0)
(-0.0024598 0.0023328 0)
(-0.00295841 0.00214407 0)
(-0.0034145 0.00191486 0)
(-0.00382142 0.00164392 0)
(-0.0041573 0.00133572 0)
(-0.00442877 0.000975392 0)
(-0.00458535 0.000591684 0)
(-0.0046332 0.000113103 0)
(-0.000248447 0.00289218 0)
(-0.000835086 0.003207 0)
(-0.00144897 0.00311763 0)
(-0.00201611 0.00296301 0)
(-0.00257141 0.00276072 0)
(-0.00308216 0.00250314 0)
(-0.00355191 0.00219633 0)
(-0.00397037 0.00183285 0)
(-0.00433108 0.00141748 0)
(-0.00462759 0.000935032 0)
(-0.00486284 0.000413126 0)
(-0.00500933 -0.000226415 0)
(-0.000282471 0.00353705 0)
(-0.00093466 0.00394711 0)
(-0.00163144 0.00383768 0)
(-0.00228218 0.00371475 0)
(-0.0029207 0.00348919 0)
(-0.00352436 0.00323595 0)
(-0.0040869 0.00291198 0)
(-0.00460287 0.00253357 0)
(-0.00505801 0.00210221 0)
(-0.00543563 0.00159116 0)
(-0.00574815 0.00106915 0)
(-0.00588463 0.000351254 0)
(-0.000269027 0.00399597 0)
(-0.000976873 0.00443953 0)
(-0.00169274 0.0043367 0)
(-0.00236348 0.00411616 0)
(-0.00304864 0.00386843 0)
(-0.00365705 0.00352437 0)
(-0.00425125 0.00313759 0)
(-0.00477644 0.00266188 0)
(-0.00526922 0.00213295 0)
(-0.00565689 0.00147904 0)
(-0.00609835 0.000816657 0)
(-0.00630601 -0.000104525 0)
(-0.000354498 0.00492949 0)
(-0.00112345 0.00556571 0)
(-0.00197103 0.00535925 0)
(-0.00275272 0.0052885 0)
(-0.00351511 0.00492311 0)
(-0.004259 0.00464607 0)
(-0.004954 0.00419514 0)
(-0.00561358 0.0037146 0)
(-0.00624708 0.00318625 0)
(-0.006759 0.00249911 0)
(-0.00733455 0.00193985 0)
(-0.00761449 0.000918369 0)
(-0.000232902 0.00526689 0)
(-0.00116277 0.00582311 0)
(-0.00198169 0.00576545 0)
(-0.00279603 0.00540175 0)
(-0.00368743 0.00517695 0)
(-0.00437985 0.00470524 0)
(-0.0051766 0.00430456 0)
(-0.00577797 0.00369748 0)
(-0.00647543 0.00314463 0)
(-0.00689599 0.00229546 0)
(-0.00766668 0.00162954 0)
(-0.00787239 0.000363687 0)
(-0.000514563 0.00656766 0)
(-0.0013565 0.0076431 0)
(-0.00241787 0.0072028 0)
(-0.00334694 0.00736373 0)
(-0.00421682 0.0067049 0)
(-0.00513931 0.00648933 0)
(-0.00596981 0.00581576 0)
(-0.00678584 0.00525487 0)
(-0.00766052 0.00463411 0)
(-0.00829086 0.00378064 0)
(-0.00927379 0.00328979 0)
(-0.009671 0.00200262 0)
(4.1887e-05 0.00683384 0)
(-0.0013511 0.00734665 0)
(-0.00226411 0.00747013 0)
(-0.00328418 0.00677846 0)
(-0.00455555 0.00670303 0)
(-0.00525916 0.00603051 0)
(-0.00640141 0.00572438 0)
(-0.00694715 0.00495469 0)
(-0.00793313 0.00450754 0)
(-0.00822771 0.00345293 0)
(-0.00941915 0.00299309 0)
(-0.00946144 0.0013819 0)
(-0.00101768 0.00821734 0)
(-0.00173453 0.010439 0)
(-0.00303295 0.00942095 0)
(-0.00412633 0.0102261 0)
(-0.00497114 0.00894206 0)
(-0.0061329 0.00888363 0)
(-0.00705582 0.00779228 0)
(-0.00802442 0.00715195 0)
(-0.00917868 0.00638578 0)
(-0.00983765 0.00539541 0)
(-0.0113627 0.00507822 0)
(-0.0117129 0.00367539 0)
(0.00127668 0.00919067 0)
(-0.00115814 0.00882224 0)
(-0.00244995 0.00948853 0)
(-0.00373911 0.00808737 0)
(-0.00589931 0.00835703 0)
(-0.00639223 0.00746999 0)
(-0.00812348 0.00733671 0)
(-0.00833298 0.00642459 0)
(-0.00966696 0.00616756 0)
(-0.00951653 0.00495114 0)
(-0.0111089 0.00487471 0)
(-0.0105137 0.00309777 0)
(-0.00283728 0.00850939 0)
(-0.00278471 0.0148104 0)
(-0.00373951 0.0123515 0)
(-0.00525482 0.0145128 0)
(-0.00557981 0.0119304 0)
(-0.00718271 0.0119123 0)
(-0.00811151 0.0100996 0)
(-0.00922795 0.00922495 0)
(-0.0106683 0.00819461 0)
(-0.0111795 0.0070288 0)
(-0.0132454 0.00682962 0)
(-0.0131614 0.00556731 0)
(0.00402857 0.0144277 0)
(0.000402045 0.00906943 0)
(-0.0038354 0.0114972 0)
(-0.00457717 0.00904294 0)
(-0.00877025 0.00979455 0)
(-0.00825784 0.00909555 0)
(-0.0108278 0.00901946 0)
(-0.0101934 0.00807978 0)
(-0.011833 0.00794282 0)
(-0.0108555 0.00660151 0)
(-0.0125736 0.00687302 0)
(-0.0106359 0.0051792 0)
(0.00452717 0.00401461 0)
(0.00105254 0.0235395 0)
(0.00465454 0.0177055 0)
(-0.00262035 0.0206699 0)
(-0.00293894 0.0160427 0)
(-0.00653603 0.0151046 0)
(-0.00836532 0.0125037 0)
(-0.0100082 0.0109512 0)
(-0.0120178 0.00962812 0)
(-0.0123042 0.00806448 0)
(-0.0147148 0.00748887 0)
(-0.0138866 0.00654565 0)
(-0.0368815 0.00931644 0)
(-0.0203971 0.00823413 0)
(-0.0409295 0.0144191 0)
(-0.0273116 0.0154245 0)
(-0.0338184 0.0129173 0)
(-0.0250078 0.0133368 0)
(-0.0261418 0.0119951 0)
(-0.020445 0.0105799 0)
(-0.01997 0.0100335 0)
(-0.0152211 0.00817561 0)
(-0.0151264 0.00845912 0)
(-0.00992354 0.00678692 0)
(0.0261574 0.0591825 0)
(0.0443739 0.0298513 0)
(0.0619376 0.0242851 0)
(0.0830281 0.0158043 0)
(0.0932646 0.0137803 0)
(0.109504 0.00899367 0)
(0.114066 0.00830025 0)
(0.130979 0.00551428 0)
(0.128246 0.00517619 0)
(0.147662 0.00361599 0)
(0.138135 0.00264295 0)
(0.160186 0.00305065 0)
(-0.00303843 0.00176998 0)
(-0.00216372 0.000964748 0)
(-0.00191794 0.000186225 0)
(-0.00151449 -0.000256557 0)
(-0.0012321 -0.0006345 0)
(-0.000874447 -0.000884941 0)
(-0.000521115 -0.00105177 0)
(-0.000156788 -0.00101778 0)
(-0.00343317 0.00053042 0)
(-0.00246112 8.03898e-05 0)
(-0.0021806 -0.000259233 0)
(-0.00171368 -0.000660883 0)
(-0.00139339 -0.00097006 0)
(-0.000993323 -0.00123834 0)
(-0.000591284 -0.00140563 0)
(-0.000179395 -0.00134417 0)
(-0.00337663 0.000216719 0)
(-0.0029511 -0.000274892 0)
(-0.0026585 -0.000619388 0)
(-0.00222455 -0.00107368 0)
(-0.00180897 -0.00142642 0)
(-0.00131563 -0.00174161 0)
(-0.000781143 -0.00193726 0)
(-0.000243417 -0.00184771 0)
(-0.00369061 -0.00010916 0)
(-0.00329434 -0.000572422 0)
(-0.00298019 -0.000949466 0)
(-0.00252067 -0.00142933 0)
(-0.00206294 -0.00180526 0)
(-0.0015138 -0.00218403 0)
(-0.000901938 -0.00240131 0)
(-0.000285262 -0.00228761 0)
(-0.00401087 -0.000462432 0)
(-0.00379072 -0.00101622 0)
(-0.00351539 -0.00148849 0)
(-0.0030794 -0.00207056 0)
(-0.00256306 -0.00253215 0)
(-0.00192246 -0.00300859 0)
(-0.00114667 -0.00327674 0)
(-0.000380406 -0.00313393 0)
(-0.00454383 -0.00034645 0)
(-0.00432065 -0.000999844 0)
(-0.00403531 -0.00153399 0)
(-0.00356624 -0.00230238 0)
(-0.00300271 -0.00280009 0)
(-0.00227626 -0.0034997 0)
(-0.00136847 -0.00379215 0)
(-0.000467576 -0.00369367 0)
(-0.00512241 -0.000836585 0)
(-0.0049774 -0.00164707 0)
(-0.00481432 -0.00233558 0)
(-0.00434479 -0.00328948 0)
(-0.00375667 -0.00393741 0)
(-0.00293365 -0.00484449 0)
(-0.00175887 -0.00523293 0)
(-0.000680206 -0.00514132 0)
(-0.00596494 -0.000228475 0)
(-0.00582482 -0.00126997 0)
(-0.00567738 -0.00191474 0)
(-0.00517732 -0.00328249 0)
(-0.00455832 -0.00391619 0)
(-0.00360917 -0.00537291 0)
(-0.00221329 -0.00577819 0)
(-0.000896057 -0.00595069 0)
(-0.0067362 -0.000906521 0)
(-0.00666412 -0.00217529 0)
(-0.00681171 -0.00305779 0)
(-0.00634895 -0.0047395 0)
(-0.00582863 -0.00563475 0)
(-0.00483392 -0.00754349 0)
(-0.00299081 -0.00814642 0)
(-0.0014723 -0.00853657 0)
(-0.00803465 0.000371789 0)
(-0.0079928 -0.00120543 0)
(-0.00823456 -0.00181766 0)
(-0.0077863 -0.00421053 0)
(-0.00734928 -0.00492776 0)
(-0.00621975 -0.00807221 0)
(-0.00408924 -0.00867363 0)
(-0.00213489 -0.0101489 0)
(-0.00883661 -0.00040842 0)
(-0.00885776 -0.00236152 0)
(-0.00976613 -0.00327307 0)
(-0.00947867 -0.00617709 0)
(-0.00960595 -0.00730262 0)
(-0.00869292 -0.0114194 0)
(-0.00609404 -0.0124686 0)
(-0.00397904 -0.0152509 0)
(-0.0107588 0.001693 0)
(-0.0108965 -0.000387491 0)
(-0.0120269 -0.000595863 0)
(-0.0119063 -0.00440157 0)
(-0.0125044 -0.00488506 0)
(-0.0117308 -0.01149 0)
(-0.00932122 -0.0125307 0)
(-0.00668315 -0.0198538 0)
(-0.0111703 0.000994301 0)
(-0.0111451 -0.00166979 0)
(-0.0136386 -0.00205049 0)
(-0.013821 -0.00657835 0)
(-0.0163636 -0.00740862 0)
(-0.0168058 -0.0156818 0)
(-0.0156113 -0.0176316 0)
(-0.0142541 -0.0321455 0)
(-0.0138313 0.00399842 0)
(-0.0140086 0.00170424 0)
(-0.0169291 0.0028231 0)
(-0.0174197 -0.00197483 0)
(-0.0213542 -0.000622417 0)
(-0.0230412 -0.0124455 0)
(-0.025433 -0.0133126 0)
(-0.0263041 -0.0490813 0)
(-0.0130603 0.00350825 0)
(-0.0122327 0.000655775 0)
(-0.0170191 0.00191902 0)
(-0.0171405 -0.00343691 0)
(-0.0259242 -0.001038 0)
(-0.029472 -0.0135325 0)
(-0.0393707 -0.0135816 0)
(-0.0358412 -0.0858934 0)
(-0.0163642 0.00667556 0)
(-0.0157046 0.00521697 0)
(-0.0212574 0.00909046 0)
(-0.0201669 0.00593103 0)
(-0.0307987 0.0137141 0)
(-0.0277786 -0.000695842 0)
(-0.0446887 -0.00449563 0)
(-0.0125519 -0.125351 0)
(-0.0135011 0.00628133 0)
(-0.00954669 0.00423817 0)
(-0.0161548 0.00692724 0)
(-0.0103181 0.00419435 0)
(-0.026401 0.00806367 0)
(-0.0192154 -0.00307173 0)
(-0.044468 -0.0251696 0)
(0.0208129 -0.146942 0)
(-0.0175051 0.00674004 0)
(-0.015341 0.00755293 0)
(-0.0218332 0.0117804 0)
(-0.0174017 0.0151686 0)
(-0.029367 0.0259808 0)
(-0.0138844 0.0146504 0)
(-0.0362122 -0.0402777 0)
(0.0298322 -0.145719 0)
(-0.0109442 0.00788584 0)
(-0.00174282 0.00714883 0)
(-0.00676273 0.00903816 0)
(0.0162021 0.00983046 0)
(0.00772267 0.00415561 0)
(0.0487476 0.000908195 0)
(0.0379101 -0.0705727 0)
(0.0409431 -0.160954 0)
(0.146262 -0.000960133 0)
(0.168504 0.00354754 0)
(0.154938 -0.00484872 0)
(0.174321 0.000288507 0)
(0.162289 -0.00422048 0)
(0.174468 -0.0163943 0)
(0.143807 -0.0228569 0)
(0.0866902 -0.0584856 0)
(-2.0271e-05 -2.70362e-05 0)
(-6.38022e-05 -3.03164e-05 0)
(-9.65033e-05 -3.32898e-05 0)
(-0.000111376 -3.70042e-05 0)
(-0.000108891 -3.90378e-05 0)
(-8.96069e-05 -4.07399e-05 0)
(-5.66899e-05 -4.15543e-05 0)
(-1.75689e-05 -3.85734e-05 0)
(-2.4459e-05 0.000112683 0)
(-7.56276e-05 0.000109272 0)
(-0.000113682 8.14123e-05 0)
(-0.00012923 5.09868e-05 0)
(-0.000124439 1.73127e-05 0)
(-0.000101966 -9.57279e-06 0)
(-6.42426e-05 -2.99062e-05 0)
(-1.99904e-05 -3.40302e-05 0)
(-3.71782e-05 6.6902e-05 0)
(-0.000113787 5.4366e-05 0)
(-0.000166022 1.56506e-05 0)
(-0.000187956 -2.78202e-05 0)
(-0.000181609 -6.98529e-05 0)
(-0.000147029 -0.000104107 0)
(-9.25804e-05 -0.000128708 0)
(-2.86086e-05 -0.000126763 0)
(-4.60598e-05 0.000273798 0)
(-0.000136482 0.000249738 0)
(-0.000196703 0.00016129 0)
(-0.000215282 7.20621e-05 0)
(-0.000201288 -2.03218e-05 0)
(-0.00016176 -9.03779e-05 0)
(-0.000100675 -0.000141908 0)
(-3.11416e-05 -0.000147141 0)
(-8.95803e-05 0.000232399 0)
(-0.000255605 0.000191143 0)
(-0.000344683 8.25893e-05 0)
(-0.000369476 -2.77431e-05 0)
(-0.000343916 -0.000132471 0)
(-0.000269135 -0.000214102 0)
(-0.000167101 -0.000272309 0)
(-5.0998e-05 -0.000269553 0)
(-0.00011451 0.000643377 0)
(-0.000314512 0.000530674 0)
(-0.000416939 0.000287013 0)
(-0.000430632 8.14456e-05 0)
(-0.000388044 -0.00011283 0)
(-0.000302982 -0.000249432 0)
(-0.00018594 -0.000346022 0)
(-5.69731e-05 -0.000348299 0)
(-0.0002714 0.000625633 0)
(-0.000682326 0.000463039 0)
(-0.000795898 0.000176095 0)
(-0.000768534 -6.14677e-05 0)
(-0.000674143 -0.000279209 0)
(-0.000503278 -0.00043459 0)
(-0.000306355 -0.000543053 0)
(-9.23514e-05 -0.000533288 0)
(-0.000382515 0.00165537 0)
(-0.000839279 0.00110323 0)
(-0.00094719 0.000390467 0)
(-0.000887106 -2.37595e-05 0)
(-0.000762436 -0.00036225 0)
(-0.000569907 -0.000584081 0)
(-0.000344402 -0.000731647 0)
(-0.000104374 -0.000716785 0)
)
;

boundaryField
{
    movingWall
    {
        type            fixedValue;
        value           uniform (1 0 0);
    }
    fixedWalls
    {
        type            noSlip;
    }
    frontAndBack
    {
        type            empty;
    }
}


// ************************************************************************* //
