/*--------------------------------*- C++ -*----------------------------------*\
  =========                 |
  \\      /  F ield         | OpenFOAM: The Open Source CFD Toolbox
   \\    /   O peration     | Website:  https://openfoam.org
    \\  /    A nd           | Version:  8
     \\/     M anipulation  |
\*---------------------------------------------------------------------------*/
FoamFile
{
    version     2.0;
    format      ascii;
    class       volVectorField;
    location    "0.29";
    object      U;
}
// * * * * * * * * * * * * * * * * * * * * * * * * * * * * * * * * * * * * * //

dimensions      [0 1 -1 0 0 0 0];

internalField   nonuniform List<vector> 
400
(
(0.0217128 1.00693e-07 0)
(0.0217126 1.60423e-07 0)
(0.0217123 1.74175e-07 0)
(0.021712 1.52564e-07 0)
(0.0217118 1.24639e-07 0)
(0.0217115 9.76934e-08 0)
(0.0217113 7.42727e-08 0)
(0.0217112 5.41277e-08 0)
(0.0217111 3.3355e-08 0)
(0.021711 8.54935e-09 0)
(0.021711 -1.85237e-08 0)
(0.021711 -4.39807e-08 0)
(0.0217111 -6.6737e-08 0)
(0.0217113 -8.84363e-08 0)
(0.0217115 -1.09641e-07 0)
(0.0217118 -1.27286e-07 0)
(0.0217121 -1.35419e-07 0)
(0.0217124 -1.25671e-07 0)
(0.0217126 -7.96643e-08 0)
(0.0217128 3.66652e-09 0)
(0.0652176 1.58785e-07 0)
(0.0652175 3.911e-07 0)
(0.0652172 4.94509e-07 0)
(0.0652168 4.91721e-07 0)
(0.0652163 4.46385e-07 0)
(0.065216 3.85635e-07 0)
(0.0652156 3.1902e-07 0)
(0.0652153 2.47212e-07 0)
(0.0652151 1.67489e-07 0)
(0.0652149 7.81033e-08 0)
(0.0652148 -1.81292e-08 0)
(0.0652149 -1.16715e-07 0)
(0.065215 -2.15757e-07 0)
(0.0652152 -3.14877e-07 0)
(0.0652155 -4.10221e-07 0)
(0.0652158 -4.9114e-07 0)
(0.0652163 -5.41761e-07 0)
(0.0652168 -5.28225e-07 0)
(0.0652172 -4.01199e-07 0)
(0.0652175 -1.50413e-07 0)
(0.108962 1.1161e-07 0)
(0.108962 5.51932e-07 0)
(0.108962 7.88345e-07 0)
(0.108961 8.61459e-07 0)
(0.108961 8.38711e-07 0)
(0.108961 7.64758e-07 0)
(0.10896 6.61054e-07 0)
(0.10896 5.36475e-07 0)
(0.10896 3.92414e-07 0)
(0.10896 2.29849e-07 0)
(0.10896 5.28162e-08 0)
(0.108959 -1.34084e-07 0)
(0.108959 -3.27941e-07 0)
(0.10896 -5.25057e-07 0)
(0.10896 -7.15757e-07 0)
(0.10896 -8.80691e-07 0)
(0.10896 -9.90709e-07 0)
(0.108961 -9.91714e-07 0)
(0.108961 -8.05764e-07 0)
(0.108961 -3.99094e-07 0)
(0.153099 -3.67428e-08 0)
(0.1531 5.3039e-07 0)
(0.1531 8.98592e-07 0)
(0.153099 1.06345e-06 0)
(0.153099 1.09526e-06 0)
(0.153099 1.04431e-06 0)
(0.153099 9.36676e-07 0)
(0.153099 7.87191e-07 0)
(0.153099 6.05493e-07 0)
(0.153098 3.97493e-07 0)
(0.153098 1.67164e-07 0)
(0.153098 -8.20959e-08 0)
(0.153098 -3.46395e-07 0)
(0.153098 -6.18584e-07 0)
(0.153098 -8.84166e-07 0)
(0.153098 -1.11969e-06 0)
(0.153098 -1.28537e-06 0)
(0.153099 -1.31874e-06 0)
(0.153099 -1.12523e-06 0)
(0.153099 -6.62567e-07 0)
(0.197775 -2.18607e-07 0)
(0.197775 4.06352e-07 0)
(0.197775 8.48474e-07 0)
(0.197775 1.09037e-06 0)
(0.197775 1.18306e-06 0)
(0.197775 1.17093e-06 0)
(0.197775 1.08283e-06 0)
(0.197775 9.39182e-07 0)
(0.197775 7.52882e-07 0)
(0.197775 5.31075e-07 0)
(0.197775 2.78757e-07 0)
(0.197775 5.04127e-10 0)
(0.197775 -2.98743e-07 0)
(0.197775 -6.1058e-07 0)
(0.197775 -9.18333e-07 0)
(0.197775 -1.19684e-06 0)
(0.197775 -1.4042e-06 0)
(0.197775 -1.47275e-06 0)
(0.197775 -1.30954e-06 0)
(0.197775 -8.60864e-07 0)
(0.243119 -3.67252e-07 0)
(0.24312 2.33897e-07 0)
(0.24312 6.93717e-07 0)
(0.24312 9.74839e-07 0)
(0.24312 1.11147e-06 0)
(0.24312 1.14037e-06 0)
(0.24312 1.08741e-06 0)
(0.24312 9.72307e-07 0)
(0.24312 8.08344e-07 0)
(0.24312 6.03597e-07 0)
(0.24312 3.63925e-07 0)
(0.24312 9.41733e-08 0)
(0.24312 -2.009e-07 0)
(0.24312 -5.13204e-07 0)
(0.24312 -8.26841e-07 0)
(0.24312 -1.11612e-06 0)
(0.24312 -1.34254e-06 0)
(0.243119 -1.4432e-06 0)
(0.243119 -1.33248e-06 0)
(0.243119 -9.51886e-07 0)
(0.289247 -4.60509e-07 0)
(0.289247 5.23225e-08 0)
(0.289248 4.71125e-07 0)
(0.289248 7.49943e-07 0)
(0.289248 9.07434e-07 0)
(0.289248 9.6959e-07 0)
(0.289249 9.56e-07 0)
(0.289249 8.8286e-07 0)
(0.289249 7.61759e-07 0)
(0.289249 6.00182e-07 0)
(0.289249 4.03638e-07 0)
(0.289249 1.76255e-07 0)
(0.289249 -7.81916e-08 0)
(0.289249 -3.52911e-07 0)
(0.289249 -6.35492e-07 0)
(0.289248 -9.04717e-07 0)
(0.289248 -1.12719e-06 0)
(0.289248 -1.25119e-06 0)
(0.289248 -1.20471e-06 0)
(0.289247 -9.29357e-07 0)
(0.336254 -4.87652e-07 0)
(0.336255 -1.12603e-07 0)
(0.336255 2.15907e-07 0)
(0.336255 4.54637e-07 0)
(0.336255 6.07536e-07 0)
(0.336256 6.89532e-07 0)
(0.336256 7.12628e-07 0)
(0.336256 6.87694e-07 0)
(0.336256 6.22812e-07 0)
(0.336257 5.23309e-07 0)
(0.336257 3.93116e-07 0)
(0.336257 2.34754e-07 0)
(0.336257 5.01903e-08 0)
(0.336256 -1.56148e-07 0)
(0.336256 -3.76168e-07 0)
(0.336256 -5.96208e-07 0)
(0.336256 -7.92431e-07 0)
(0.336255 -9.27766e-07 0)
(0.336255 -9.48633e-07 0)
(0.336254 -7.99761e-07 0)
(0.384215 -4.48101e-07 0)
(0.384215 -2.44275e-07 0)
(0.384215 -4.11357e-08 0)
(0.384215 1.26296e-07 0)
(0.384215 2.50499e-07 0)
(0.384216 3.36633e-07 0)
(0.384216 3.88958e-07 0)
(0.384217 4.12071e-07 0)
(0.384217 4.09289e-07 0)
(0.384217 3.82544e-07 0)
(0.384217 3.33159e-07 0)
(0.384217 2.6143e-07 0)
(0.384217 1.67138e-07 0)
(0.384217 5.14521e-08 0)
(0.384217 -8.29566e-08 0)
(0.384216 -2.30894e-07 0)
(0.384216 -3.80465e-07 0)
(0.384216 -5.11921e-07 0)
(0.384215 -5.94404e-07 0)
(0.384215 -5.79847e-07 0)
(0.433178 -3.47517e-07 0)
(0.433178 -3.31866e-07 0)
(0.433179 -2.7533e-07 0)
(0.433179 -2.02603e-07 0)
(0.433179 -1.27593e-07 0)
(0.43318 -5.32894e-08 0)
(0.43318 1.74153e-08 0)
(0.43318 8.27742e-08 0)
(0.433181 1.40891e-07 0)
(0.433181 1.89663e-07 0)
(0.433181 2.27091e-07 0)
(0.433181 2.50677e-07 0)
(0.433181 2.57782e-07 0)
(0.433181 2.46199e-07 0)
(0.433181 2.12714e-07 0)
(0.43318 1.53476e-07 0)
(0.43318 6.73024e-08 0)
(0.43318 -4.47525e-08 0)
(0.433179 -1.76457e-07 0)
(0.433179 -2.92297e-07 0)
(0.483172 -1.96519e-07 0)
(0.483172 -3.70037e-07 0)
(0.483172 -4.68273e-07 0)
(0.483172 -5.03486e-07 0)
(0.483173 -4.91516e-07 0)
(0.483173 -4.4211e-07 0)
(0.483173 -3.64382e-07 0)
(0.483174 -2.65948e-07 0)
(0.483174 -1.53727e-07 0)
(0.483174 -3.38988e-08 0)
(0.483174 8.80196e-08 0)
(0.483175 2.06463e-07 0)
(0.483175 3.16148e-07 0)
(0.483174 4.11598e-07 0)
(0.483174 4.84131e-07 0)
(0.483174 5.21328e-07 0)
(0.483174 5.09339e-07 0)
(0.483173 4.30753e-07 0)
(0.483173 2.67262e-07 0)
(0.483172 3.68567e-08 0)
(0.534196 -1.31281e-08 0)
(0.534196 -3.6182e-07 0)
(0.534196 -6.0931e-07 0)
(0.534196 -7.53329e-07 0)
(0.534196 -8.09191e-07 0)
(0.534196 -7.92267e-07 0)
(0.534197 -7.1691e-07 0)
(0.534197 -5.95883e-07 0)
(0.534197 -4.40541e-07 0)
(0.534198 -2.60719e-07 0)
(0.534198 -6.51398e-08 0)
(0.534198 1.37823e-07 0)
(0.534198 3.40464e-07 0)
(0.534198 5.34572e-07 0)
(0.534198 7.07193e-07 0)
(0.534198 8.38982e-07 0)
(0.534197 9.05205e-07 0)
(0.534197 8.7148e-07 0)
(0.534196 6.96261e-07 0)
(0.534196 3.76479e-07 0)
(0.586225 1.77282e-07 0)
(0.586225 -3.19257e-07 0)
(0.586225 -6.9642e-07 0)
(0.586225 -9.37359e-07 0)
(0.586225 -1.05628e-06 0)
(0.586226 -1.07308e-06 0)
(0.586226 -1.00634e-06 0)
(0.586226 -8.73037e-07 0)
(0.586226 -6.88082e-07 0)
(0.586226 -4.64173e-07 0)
(0.586227 -2.12549e-07 0)
(0.586227 5.6289e-08 0)
(0.586227 3.3291e-07 0)
(0.586227 6.07353e-07 0)
(0.586227 8.64121e-07 0)
(0.586227 1.07937e-06 0)
(0.586226 1.22023e-06 0)
(0.586226 1.23783e-06 0)
(0.586226 1.06991e-06 0)
(0.586225 6.90385e-07 0)
(0.63921 3.45855e-07 0)
(0.63921 -2.59461e-07 0)
(0.63921 -7.33683e-07 0)
(0.63921 -1.04783e-06 0)
(0.63921 -1.21599e-06 0)
(0.639211 -1.26145e-06 0)
(0.639211 -1.20576e-06 0)
(0.639211 -1.06896e-06 0)
(0.639211 -8.68504e-07 0)
(0.639211 -6.18998e-07 0)
(0.639211 -3.33289e-07 0)
(0.639211 -2.31031e-08 0)
(0.639211 3.01384e-07 0)
(0.639211 6.29764e-07 0)
(0.639211 9.45982e-07 0)
(0.639211 1.22448e-06 0)
(0.639211 1.4276e-06 0)
(0.639211 1.4957e-06 0)
(0.639211 1.34986e-06 0)
(0.639211 9.41205e-07 0)
(0.693078 4.64247e-07 0)
(0.693078 -1.99641e-07 0)
(0.693078 -7.27623e-07 0)
(0.693078 -1.0806e-06 0)
(0.693078 -1.27565e-06 0)
(0.693078 -1.33874e-06 0)
(0.693078 -1.29318e-06 0)
(0.693078 -1.16024e-06 0)
(0.693078 -9.58574e-07 0)
(0.693078 -7.03643e-07 0)
(0.693078 -4.0887e-07 0)
(0.693078 -8.61161e-08 0)
(0.693078 2.54882e-07 0)
(0.693079 6.04671e-07 0)
(0.693079 9.48524e-07 0)
(0.693079 1.26182e-06 0)
(0.693079 1.50587e-06 0)
(0.693079 1.61576e-06 0)
(0.693079 1.50155e-06 0)
(0.693078 1.09433e-06 0)
(0.747734 5.10346e-07 0)
(0.747734 -1.51044e-07 0)
(0.747734 -6.81676e-07 0)
(0.747734 -1.03202e-06 0)
(0.747734 -1.22568e-06 0)
(0.747733 -1.29108e-06 0)
(0.747733 -1.2522e-06 0)
(0.747733 -1.1299e-06 0)
(0.747733 -9.42029e-07 0)
(0.747733 -7.03297e-07 0)
(0.747733 -4.26327e-07 0)
(0.747733 -1.21913e-07 0)
(0.747733 2.01682e-07 0)
(0.747733 5.3696e-07 0)
(0.747733 8.71804e-07 0)
(0.747733 1.18481e-06 0)
(0.747734 1.44055e-06 0)
(0.747734 1.57685e-06 0)
(0.747734 1.49853e-06 0)
(0.747734 1.12311e-06 0)
(0.803062 4.70694e-07 0)
(0.803062 -1.17236e-07 0)
(0.803062 -5.91113e-07 0)
(0.803062 -8.94544e-07 0)
(0.803062 -1.05728e-06 0)
(0.803062 -1.10983e-06 0)
(0.803061 -1.07464e-06 0)
(0.803061 -9.70397e-07 0)
(0.803061 -8.12036e-07 0)
(0.803061 -6.11371e-07 0)
(0.803061 -3.78435e-07 0)
(0.803061 -1.22025e-07 0)
(0.803061 1.50986e-07 0)
(0.803061 4.34769e-07 0)
(0.803061 7.20961e-07 0)
(0.803061 9.94843e-07 0)
(0.803061 1.22914e-06 0)
(0.803062 1.37073e-06 0)
(0.803062 1.32458e-06 0)
(0.803062 1.01545e-06 0)
(0.858932 3.4997e-07 0)
(0.858932 -9.98251e-08 0)
(0.858932 -4.53183e-07 0)
(0.858932 -6.68266e-07 0)
(0.858931 -7.75858e-07 0)
(0.858931 -8.05397e-07 0)
(0.858931 -7.75081e-07 0)
(0.85893 -6.9839e-07 0)
(0.85893 -5.84357e-07 0)
(0.85893 -4.3961e-07 0)
(0.85893 -2.71484e-07 0)
(0.85893 -8.82892e-08 0)
(0.85893 1.04424e-07 0)
(0.85893 3.05046e-07 0)
(0.85893 5.0993e-07 0)
(0.85893 7.0876e-07 0)
(0.858931 8.85695e-07 0)
(0.858931 1.00708e-06 0)
(0.858931 9.9139e-07 0)
(0.858932 7.70023e-07 0)
(0.915198 1.8771e-07 0)
(0.915198 -7.34006e-08 0)
(0.915198 -2.5798e-07 0)
(0.915198 -3.62787e-07 0)
(0.915198 -4.07637e-07 0)
(0.915197 -4.14802e-07 0)
(0.915197 -3.95081e-07 0)
(0.915197 -3.55115e-07 0)
(0.915196 -2.97324e-07 0)
(0.915196 -2.22599e-07 0)
(0.915196 -1.34687e-07 0)
(0.915196 -4.03593e-08 0)
(0.915196 5.61167e-08 0)
(0.915196 1.55396e-07 0)
(0.915196 2.57538e-07 0)
(0.915196 3.59368e-07 0)
(0.915197 4.56086e-07 0)
(0.915197 5.28476e-07 0)
(0.915198 5.37098e-07 0)
(0.915198 4.1427e-07 0)
(0.971706 4.0172e-08 0)
(0.971706 -3.4084e-08 0)
(0.971706 -7.91882e-08 0)
(0.971706 -1.00426e-07 0)
(0.971706 -1.05694e-07 0)
(0.971705 -1.03243e-07 0)
(0.971705 -9.64818e-08 0)
(0.971705 -8.65601e-08 0)
(0.971705 -7.21971e-08 0)
(0.971705 -5.20596e-08 0)
(0.971705 -2.80367e-08 0)
(0.971704 -4.49297e-09 0)
(0.971704 1.71117e-08 0)
(0.971705 3.98669e-08 0)
(0.971705 6.50256e-08 0)
(0.971705 9.01689e-08 0)
(0.971705 1.15686e-07 0)
(0.971705 1.38831e-07 0)
(0.971706 1.46326e-07 0)
(0.971706 1.12661e-07 0)
)
;

boundaryField
{
    movingWall
    {
        type            fixedValue;
        value           uniform (1 0 0);
    }
    fixedWalls
    {
        type            noSlip;
    }
    left
    {
        type            cyclic;
    }
    right
    {
        type            cyclic;
    }
    frontAndBack
    {
        type            empty;
    }
}


// ************************************************************************* //
