/*--------------------------------*- C++ -*----------------------------------*\
  =========                 |
  \\      /  F ield         | OpenFOAM: The Open Source CFD Toolbox
   \\    /   O peration     | Website:  https://openfoam.org
    \\  /    A nd           | Version:  8
     \\/     M anipulation  |
\*---------------------------------------------------------------------------*/
FoamFile
{
    version     2.0;
    format      ascii;
    class       volScalarField;
    location    "0.52";
    object      p;
}
// * * * * * * * * * * * * * * * * * * * * * * * * * * * * * * * * * * * * * //

dimensions      [0 2 -2 0 0 0 0];

internalField   nonuniform List<scalar> 
400
(
-1.70111e-12
-2.23848e-06
-4.74279e-06
-6.74974e-06
-8.0565e-06
-8.80843e-06
-9.12467e-06
-9.13692e-06
-8.951e-06
-8.60402e-06
-8.07308e-06
-7.31725e-06
-6.31712e-06
-5.09385e-06
-3.70884e-06
-2.25346e-06
-8.32399e-07
4.24404e-07
1.30821e-06
1.32142e-06
-1.29863e-06
-3.1738e-06
-5.05676e-06
-6.56097e-06
-7.64805e-06
-8.32413e-06
-8.64055e-06
-8.70391e-06
-8.60873e-06
-8.38339e-06
-7.99697e-06
-7.4023e-06
-6.57768e-06
-5.54545e-06
-4.36856e-06
-3.1332e-06
-1.91678e-06
-8.22035e-07
-1.13583e-07
-2.00569e-07
-2.89555e-06
-4.45829e-06
-5.75647e-06
-6.79737e-06
-7.62424e-06
-8.17735e-06
-8.44585e-06
-8.50959e-06
-8.45327e-06
-8.29938e-06
-8.00935e-06
-7.52742e-06
-6.82635e-06
-5.92841e-06
-4.89849e-06
-3.81738e-06
-2.73969e-06
-1.75859e-06
-1.23124e-06
-1.63542e-06
-4.20987e-06
-5.58802e-06
-6.50976e-06
-7.19522e-06
-7.79754e-06
-8.22709e-06
-8.4266e-06
-8.45766e-06
-8.40346e-06
-8.28717e-06
-8.06516e-06
-7.67165e-06
-7.07098e-06
-6.28382e-06
-5.37756e-06
-4.42789e-06
-3.46323e-06
-2.55926e-06
-2.1376e-06
-2.75073e-06
-5.14278e-06
-6.48159e-06
-7.17689e-06
-7.61148e-06
-8.03928e-06
-8.35748e-06
-8.48046e-06
-8.46348e-06
-8.39462e-06
-8.30101e-06
-8.13513e-06
-7.8203e-06
-7.31009e-06
-6.62187e-06
-5.8256e-06
-4.9924e-06
-4.12285e-06
-3.26197e-06
-2.87259e-06
-3.58369e-06
-5.85258e-06
-7.20665e-06
-7.7672e-06
-8.01915e-06
-8.30315e-06
-8.51719e-06
-8.56093e-06
-8.48993e-06
-8.39884e-06
-8.31883e-06
-8.19878e-06
-7.95129e-06
-7.51883e-06
-6.91456e-06
-6.21066e-06
-5.4742e-06
-4.67936e-06
-3.83705e-06
-3.4379e-06
-4.19915e-06
-6.39337e-06
-7.80201e-06
-8.28914e-06
-8.40294e-06
-8.56391e-06
-8.68296e-06
-8.6528e-06
-8.53079e-06
-8.41666e-06
-8.34422e-06
-8.25884e-06
-8.06382e-06
-7.6918e-06
-7.15219e-06
-6.51935e-06
-5.85708e-06
-5.11723e-06
-4.27963e-06
-3.85342e-06
-4.6415e-06
-6.80655e-06
-8.28336e-06
-8.73369e-06
-8.74152e-06
-8.79976e-06
-8.8395e-06
-8.75017e-06
-8.58914e-06
-8.4579e-06
-8.3911e-06
-8.33128e-06
-8.1745e-06
-7.84556e-06
-7.35126e-06
-6.76883e-06
-6.16053e-06
-5.46119e-06
-4.62525e-06
-4.17058e-06
-4.96945e-06
-7.13475e-06
-8.67175e-06
-9.10457e-06
-9.0325e-06
-9.00931e-06
-8.98892e-06
-8.85891e-06
-8.67383e-06
-8.53332e-06
-8.47139e-06
-8.4288e-06
-8.29693e-06
-7.9952e-06
-7.52934e-06
-6.98053e-06
-6.41152e-06
-5.74546e-06
-4.91701e-06
-4.4423e-06
-5.23971e-06
-7.40987e-06
-8.98768e-06
-9.41407e-06
-9.28623e-06
-9.20313e-06
-9.14103e-06
-8.98706e-06
-8.79067e-06
-8.64669e-06
-8.58739e-06
-8.55303e-06
-8.43317e-06
-8.14472e-06
-7.69408e-06
-7.16704e-06
-6.62849e-06
-5.99502e-06
-5.1861e-06
-4.70494e-06
-5.49059e-06
-7.65028e-06
-9.24562e-06
-9.6748e-06
-9.51535e-06
-9.39238e-06
-9.30288e-06
-9.13627e-06
-8.93617e-06
-8.7906e-06
-8.72938e-06
-8.69381e-06
-8.57439e-06
-8.28829e-06
-7.84383e-06
-7.33152e-06
-6.81942e-06
-6.22225e-06
-5.44864e-06
-4.97717e-06
-5.74175e-06
-7.86469e-06
-9.45457e-06
-9.89612e-06
-9.72919e-06
-9.58381e-06
-9.47587e-06
-9.30127e-06
-9.09884e-06
-8.9491e-06
-8.87946e-06
-8.83368e-06
-8.70561e-06
-8.41464e-06
-7.97155e-06
-7.47082e-06
-6.98421e-06
-6.42928e-06
-5.70818e-06
-5.26371e-06
-5.99968e-06
-8.05419e-06
-9.61843e-06
-1.00822e-05
-9.9311e-06
-9.77869e-06
-9.65713e-06
-9.47363e-06
-9.26478e-06
-9.10443e-06
-9.01831e-06
-8.95412e-06
-8.8108e-06
-8.51101e-06
-8.06756e-06
-7.57753e-06
-7.11666e-06
-6.60976e-06
-5.95719e-06
-5.55692e-06
-6.26032e-06
-8.21134e-06
-9.73499e-06
-1.02312e-05
-1.01191e-05
-9.97495e-06
-9.84351e-06
-9.64773e-06
-9.42528e-06
-9.24531e-06
-9.13338e-06
-9.04263e-06
-8.87838e-06
-8.56694e-06
-8.12206e-06
-7.64147e-06
-7.2047e-06
-6.74803e-06
-6.17537e-06
-5.835e-06
-6.50788e-06
-8.32003e-06
-9.79658e-06
-1.03392e-05
-1.02919e-05
-1.01746e-05
-1.00398e-05
-9.82996e-06
-9.58701e-06
-9.37771e-06
-9.22931e-06
-9.10201e-06
-8.90887e-06
-8.58034e-06
-8.12939e-06
-7.6519e-06
-7.23074e-06
-6.81784e-06
-6.32778e-06
-6.06044e-06
-6.71332e-06
-8.36067e-06
-9.79494e-06
-1.04043e-05
-1.04533e-05
-1.03873e-05
-1.02614e-05
-1.00407e-05
-9.77368e-06
-9.52671e-06
-9.33031e-06
-9.15348e-06
-8.91875e-06
-8.56104e-06
-8.09137e-06
-7.6012e-06
-7.17615e-06
-6.78863e-06
-6.37374e-06
-6.18943e-06
-6.83998e-06
-8.32556e-06
-9.73224e-06
-1.04289e-05
-1.06033e-05
-1.06129e-05
-1.05111e-05
-1.02868e-05
-9.99649e-06
-9.70734e-06
-9.45372e-06
-9.21421e-06
-8.92226e-06
-8.51848e-06
-8.01138e-06
-7.48667e-06
-7.03335e-06
-6.64918e-06
-6.29906e-06
-6.20472e-06
-6.871e-06
-8.24544e-06
-9.65361e-06
-1.04551e-05
-1.07677e-05
-1.08627e-05
-1.07915e-05
-1.05669e-05
-1.02528e-05
-9.91703e-06
-9.59714e-06
-9.28067e-06
-8.91257e-06
-8.44111e-06
-7.87445e-06
-7.29427e-06
-6.7949e-06
-6.40222e-06
-6.11223e-06
-6.11421e-06
-6.81805e-06
-8.12775e-06
-9.63069e-06
-1.05855e-05
-1.10502e-05
-1.12277e-05
-1.11791e-05
-1.09435e-05
-1.05916e-05
-1.01915e-05
-9.78327e-06
-9.36227e-06
-8.88518e-06
-8.31059e-06
-7.65048e-06
-6.98535e-06
-6.41483e-06
-5.99212e-06
-5.74451e-06
-5.84561e-06
-6.64173e-06
-7.92141e-06
-9.73848e-06
-1.09835e-05
-1.16263e-05
-1.18755e-05
-1.18213e-05
-1.15354e-05
-1.10995e-05
-1.05871e-05
-1.00439e-05
-9.47361e-06
-8.84342e-06
-8.12057e-06
-7.31893e-06
-6.51458e-06
-5.80806e-06
-5.28027e-06
-5.00509e-06
-5.20518e-06
-6.19843e-06
)
;

boundaryField
{
    movingWall
    {
        type            zeroGradient;
    }
    fixedWalls
    {
        type            zeroGradient;
    }
    left
    {
        type            cyclic;
    }
    right
    {
        type            cyclic;
    }
    frontAndBack
    {
        type            empty;
    }
}


// ************************************************************************* //
