/*--------------------------------*- C++ -*----------------------------------*\
  =========                 |
  \\      /  F ield         | OpenFOAM: The Open Source CFD Toolbox
   \\    /   O peration     | Website:  https://openfoam.org
    \\  /    A nd           | Version:  8
     \\/     M anipulation  |
\*---------------------------------------------------------------------------*/
FoamFile
{
    version     2.0;
    format      ascii;
    class       volVectorField;
    location    "0.52";
    object      U;
}
// * * * * * * * * * * * * * * * * * * * * * * * * * * * * * * * * * * * * * //

dimensions      [0 1 -1 0 0 0 0];

internalField   nonuniform List<vector> 
400
(
(0.02461 -6.8906e-08 0)
(0.02461 1.52443e-08 0)
(0.0246099 7.91944e-08 0)
(0.0246097 9.34236e-08 0)
(0.0246095 9.38127e-08 0)
(0.0246093 8.68283e-08 0)
(0.0246091 7.55343e-08 0)
(0.0246089 6.27937e-08 0)
(0.0246088 5.02237e-08 0)
(0.0246087 3.76764e-08 0)
(0.0246086 2.4022e-08 0)
(0.0246086 8.06487e-09 0)
(0.0246086 -1.0978e-08 0)
(0.0246087 -3.35161e-08 0)
(0.0246088 -5.97185e-08 0)
(0.0246089 -8.92552e-08 0)
(0.0246091 -1.2029e-07 0)
(0.0246094 -1.44702e-07 0)
(0.0246097 -1.4489e-07 0)
(0.0246099 -1.26583e-07 0)
(0.0738385 -8.85667e-08 0)
(0.0738385 1.37335e-07 0)
(0.0738383 3.05998e-07 0)
(0.073838 3.60574e-07 0)
(0.0738377 3.65184e-07 0)
(0.0738374 3.41803e-07 0)
(0.0738371 3.017e-07 0)
(0.0738368 2.53373e-07 0)
(0.0738366 2.01571e-07 0)
(0.0738364 1.46855e-07 0)
(0.0738363 8.71673e-08 0)
(0.0738363 1.98103e-08 0)
(0.0738363 -5.71864e-08 0)
(0.0738364 -1.44456e-07 0)
(0.0738366 -2.40781e-07 0)
(0.0738369 -3.41619e-07 0)
(0.0738372 -4.35708e-07 0)
(0.0738377 -4.93207e-07 0)
(0.0738381 -4.61657e-07 0)
(0.0738384 -3.33538e-07 0)
(0.123095 -1.5827e-07 0)
(0.123095 2.67203e-07 0)
(0.123095 5.31268e-07 0)
(0.123095 6.50242e-07 0)
(0.123094 6.76989e-07 0)
(0.123094 6.47012e-07 0)
(0.123094 5.81348e-07 0)
(0.123094 4.9454e-07 0)
(0.123093 3.94887e-07 0)
(0.123093 2.8504e-07 0)
(0.123093 1.6388e-07 0)
(0.123093 2.88276e-08 0)
(0.123093 -1.22199e-07 0)
(0.123093 -2.89268e-07 0)
(0.123093 -4.68657e-07 0)
(0.123094 -6.49457e-07 0)
(0.123094 -8.0752e-07 0)
(0.123094 -8.92329e-07 0)
(0.123095 -8.23204e-07 0)
(0.123095 -5.51278e-07 0)
(0.172398 -2.18988e-07 0)
(0.172398 2.91766e-07 0)
(0.172398 6.47033e-07 0)
(0.172398 8.29864e-07 0)
(0.172398 8.90955e-07 0)
(0.172398 8.71477e-07 0)
(0.172398 7.97967e-07 0)
(0.172397 6.88931e-07 0)
(0.172397 5.55984e-07 0)
(0.172397 4.04636e-07 0)
(0.172397 2.35932e-07 0)
(0.172397 4.86407e-08 0)
(0.172397 -1.58509e-07 0)
(0.172397 -3.84543e-07 0)
(0.172397 -6.23301e-07 0)
(0.172397 -8.58851e-07 0)
(0.172397 -1.05833e-06 0)
(0.172398 -1.15983e-06 0)
(0.172398 -1.07216e-06 0)
(0.172398 -7.34338e-07 0)
(0.221765 -3.16635e-07 0)
(0.221765 2.37857e-07 0)
(0.221766 6.46967e-07 0)
(0.221766 8.80395e-07 0)
(0.221766 9.79463e-07 0)
(0.221766 9.83254e-07 0)
(0.221765 9.1918e-07 0)
(0.221765 8.07717e-07 0)
(0.221765 6.62761e-07 0)
(0.221765 4.92146e-07 0)
(0.221765 2.99059e-07 0)
(0.221765 8.39999e-08 0)
(0.221765 -1.53023e-07 0)
(0.221765 -4.09899e-07 0)
(0.221765 -6.7895e-07 0)
(0.221765 -9.41942e-07 0)
(0.221765 -1.16302e-06 0)
(0.221765 -1.27876e-06 0)
(0.221765 -1.19762e-06 0)
(0.221765 -8.56374e-07 0)
(0.271212 -3.99278e-07 0)
(0.271212 1.36031e-07 0)
(0.271213 5.54222e-07 0)
(0.271213 8.13947e-07 0)
(0.271213 9.43249e-07 0)
(0.271213 9.7452e-07 0)
(0.271213 9.32339e-07 0)
(0.271213 8.3636e-07 0)
(0.271213 7.00913e-07 0)
(0.271213 5.35058e-07 0)
(0.271213 3.43541e-07 0)
(0.271213 1.28292e-07 0)
(0.271213 -1.09642e-07 0)
(0.271213 -3.67548e-07 0)
(0.271213 -6.37589e-07 0)
(0.271213 -9.01985e-07 0)
(0.271213 -1.12666e-06 0)
(0.271212 -1.2535e-06 0)
(0.271212 -1.19882e-06 0)
(0.271212 -8.99124e-07 0)
(0.320753 -4.50597e-07 0)
(0.320753 1.49057e-08 0)
(0.320753 3.99688e-07 0)
(0.320753 6.57068e-07 0)
(0.320753 8.01773e-07 0)
(0.320754 8.57345e-07 0)
(0.320754 8.42906e-07 0)
(0.320754 7.75007e-07 0)
(0.320754 6.66595e-07 0)
(0.320754 5.26576e-07 0)
(0.320754 3.6026e-07 0)
(0.320754 1.7036e-07 0)
(0.320754 -4.1508e-08 0)
(0.320754 -2.72698e-07 0)
(0.320754 -5.16624e-07 0)
(0.320754 -7.58512e-07 0)
(0.320753 -9.69835e-07 0)
(0.320753 -1.10263e-06 0)
(0.320753 -1.08694e-06 0)
(0.320753 -8.61552e-07 0)
(0.370398 -4.59974e-07 0)
(0.370398 -1.04846e-07 0)
(0.370398 2.09427e-07 0)
(0.370398 4.36129e-07 0)
(0.370399 5.7854e-07 0)
(0.370399 6.50641e-07 0)
(0.370399 6.64659e-07 0)
(0.370399 6.3237e-07 0)
(0.370399 5.63737e-07 0)
(0.370399 4.6613e-07 0)
(0.3704 3.44355e-07 0)
(0.3704 2.01147e-07 0)
(0.3704 3.80792e-08 0)
(0.370399 -1.4297e-07 0)
(0.370399 -3.37747e-07 0)
(0.370399 -5.36304e-07 0)
(0.370399 -7.18349e-07 0)
(0.370398 -8.4942e-07 0)
(0.370398 -8.77448e-07 0)
(0.370398 -7.4723e-07 0)
(0.420156 -4.22439e-07 0)
(0.420156 -2.06546e-07 0)
(0.420157 7.89462e-09 0)
(0.420157 1.79091e-07 0)
(0.420157 3.01489e-07 0)
(0.420157 3.79849e-07 0)
(0.420158 4.18981e-07 0)
(0.420158 4.24868e-07 0)
(0.420158 4.03295e-07 0)
(0.420158 3.58957e-07 0)
(0.420158 2.95209e-07 0)
(0.420158 2.14074e-07 0)
(0.420158 1.16512e-07 0)
(0.420158 3.07308e-09 0)
(0.420158 -1.2499e-07 0)
(0.420158 -2.63544e-07 0)
(0.420158 -4.02092e-07 0)
(0.420157 -5.21727e-07 0)
(0.420157 -5.91063e-07 0)
(0.420157 -5.64988e-07 0)
(0.470034 -3.39805e-07 0)
(0.470034 -2.79425e-07 0)
(0.470034 -1.84598e-07 0)
(0.470035 -8.77463e-08 0)
(0.470035 -5.38572e-10 0)
(0.470035 7.34818e-08 0)
(0.470036 1.31824e-07 0)
(0.470036 1.74263e-07 0)
(0.470036 2.01717e-07 0)
(0.470036 2.15437e-07 0)
(0.470036 2.16604e-07 0)
(0.470036 2.05952e-07 0)
(0.470036 1.83425e-07 0)
(0.470036 1.47991e-07 0)
(0.470036 9.77102e-08 0)
(0.470036 3.06716e-08 0)
(0.470036 -5.29399e-08 0)
(0.470035 -1.50654e-07 0)
(0.470035 -2.53345e-07 0)
(0.470035 -3.2976e-07 0)
(0.520035 -2.20489e-07 0)
(0.520035 -3.19256e-07 0)
(0.520035 -3.5319e-07 0)
(0.520035 -3.41673e-07 0)
(0.520035 -3.00175e-07 0)
(0.520035 -2.39419e-07 0)
(0.520036 -1.68665e-07 0)
(0.520036 -9.42647e-08 0)
(0.520036 -2.03861e-08 0)
(0.520037 5.04007e-08 0)
(0.520037 1.16706e-07 0)
(0.520037 1.77657e-07 0)
(0.520037 2.32026e-07 0)
(0.520037 2.77266e-07 0)
(0.520037 3.08546e-07 0)
(0.520036 3.18384e-07 0)
(0.520036 2.97112e-07 0)
(0.520036 2.31022e-07 0)
(0.520035 1.06573e-07 0)
(0.520035 -6.19328e-08 0)
(0.570157 -7.84518e-08 0)
(0.570157 -3.27925e-07 0)
(0.570157 -4.88484e-07 0)
(0.570158 -5.64265e-07 0)
(0.570158 -5.72844e-07 0)
(0.570158 -5.31031e-07 0)
(0.570158 -4.54077e-07 0)
(0.570159 -3.54024e-07 0)
(0.570159 -2.39937e-07 0)
(0.570159 -1.1818e-07 0)
(0.570159 7.24172e-09 0)
(0.570159 1.3384e-07 0)
(0.570159 2.59341e-07 0)
(0.570159 3.80066e-07 0)
(0.570159 4.89024e-07 0)
(0.570159 5.74249e-07 0)
(0.570159 6.17563e-07 0)
(0.570158 5.90475e-07 0)
(0.570158 4.57587e-07 0)
(0.570158 2.13935e-07 0)
(0.620399 6.83491e-08 0)
(0.620399 -3.12075e-07 0)
(0.620399 -5.85706e-07 0)
(0.620399 -7.41169e-07 0)
(0.6204 -7.97173e-07 0)
(0.6204 -7.75719e-07 0)
(0.6204 -6.97152e-07 0)
(0.6204 -5.78471e-07 0)
(0.6204 -4.33073e-07 0)
(0.620401 -2.70707e-07 0)
(0.620401 -9.76834e-08 0)
(0.620401 8.21781e-08 0)
(0.620401 2.65953e-07 0)
(0.620401 4.4947e-07 0)
(0.620401 6.24636e-07 0)
(0.6204 7.76591e-07 0)
(0.6204 8.80742e-07 0)
(0.6204 8.96312e-07 0)
(0.6204 7.68186e-07 0)
(0.620399 4.70756e-07 0)
(0.670755 1.99839e-07 0)
(0.670754 -2.81252e-07 0)
(0.670755 -6.43465e-07 0)
(0.670755 -8.61485e-07 0)
(0.670755 -9.55059e-07 0)
(0.670755 -9.50791e-07 0)
(0.670755 -8.73114e-07 0)
(0.670755 -7.42939e-07 0)
(0.670755 -5.77062e-07 0)
(0.670755 -3.87833e-07 0)
(0.670755 -1.83256e-07 0)
(0.670755 3.2056e-08 0)
(0.670755 2.55122e-07 0)
(0.670755 4.82087e-07 0)
(0.670755 7.05015e-07 0)
(0.670755 9.08065e-07 0)
(0.670755 1.06291e-06 0)
(0.670755 1.12004e-06 0)
(0.670755 1.0081e-06 0)
(0.670755 6.80907e-07 0)
(0.721214 2.96169e-07 0)
(0.721214 -2.45652e-07 0)
(0.721214 -6.62097e-07 0)
(0.721214 -9.1695e-07 0)
(0.721214 -1.03184e-06 0)
(0.721214 -1.03763e-06 0)
(0.721214 -9.61605e-07 0)
(0.721214 -8.27159e-07 0)
(0.721214 -6.53126e-07 0)
(0.721215 -4.5335e-07 0)
(0.721215 -2.36661e-07 0)
(0.721215 -7.75563e-09 0)
(0.721215 2.31014e-07 0)
(0.721215 4.76971e-07 0)
(0.721215 7.2359e-07 0)
(0.721215 9.56043e-07 0)
(0.721215 1.14535e-06 0)
(0.721215 1.23769e-06 0)
(0.721215 1.15021e-06 0)
(0.721214 8.18654e-07 0)
(0.771767 3.40975e-07 0)
(0.771767 -2.13226e-07 0)
(0.771767 -6.41029e-07 0)
(0.771767 -9.00434e-07 0)
(0.771767 -1.01618e-06 0)
(0.771767 -1.02275e-06 0)
(0.771767 -9.48628e-07 0)
(0.771767 -8.17738e-07 0)
(0.771767 -6.49196e-07 0)
(0.771767 -4.56953e-07 0)
(0.771767 -2.49639e-07 0)
(0.771767 -3.12413e-08 0)
(0.771767 1.97177e-07 0)
(0.771767 4.3481e-07 0)
(0.771767 6.77535e-07 0)
(0.771767 9.13294e-07 0)
(0.771767 1.11562e-06 0)
(0.771767 1.23148e-06 0)
(0.771767 1.17291e-06 0)
(0.771767 8.62907e-07 0)
(0.8224 3.24926e-07 0)
(0.8224 -1.8553e-07 0)
(0.8224 -5.74083e-07 0)
(0.8224 -8.01611e-07 0)
(0.822399 -8.96566e-07 0)
(0.822399 -8.9534e-07 0)
(0.822399 -8.24896e-07 0)
(0.822399 -7.07135e-07 0)
(0.822399 -5.59336e-07 0)
(0.822399 -3.93968e-07 0)
(0.822399 -2.18357e-07 0)
(0.822399 -3.50722e-08 0)
(0.822399 1.56555e-07 0)
(0.822399 3.57883e-07 0)
(0.822399 5.67627e-07 0)
(0.822399 7.77694e-07 0)
(0.822399 9.67039e-07 0)
(0.822399 1.08895e-06 0)
(0.8224 1.0596e-06 0)
(0.8224 7.97142e-07 0)
(0.873096 2.44109e-07 0)
(0.873096 -1.59541e-07 0)
(0.873096 -4.55382e-07 0)
(0.873096 -6.15827e-07 0)
(0.873096 -6.72624e-07 0)
(0.873095 -6.59621e-07 0)
(0.873095 -5.98372e-07 0)
(0.873095 -5.05455e-07 0)
(0.873095 -3.93955e-07 0)
(0.873095 -2.73409e-07 0)
(0.873094 -1.49059e-07 0)
(0.873094 -2.1691e-08 0)
(0.873094 1.111e-07 0)
(0.873095 2.52412e-07 0)
(0.873095 4.03083e-07 0)
(0.873095 5.58858e-07 0)
(0.873095 7.06407e-07 0)
(0.873095 8.11862e-07 0)
(0.873096 8.07686e-07 0)
(0.873096 6.16568e-07 0)
(0.923839 1.28236e-07 0)
(0.923839 -1.09151e-07 0)
(0.923839 -2.6931e-07 0)
(0.923839 -3.45225e-07 0)
(0.923839 -3.62236e-07 0)
(0.923838 -3.44794e-07 0)
(0.923838 -3.04926e-07 0)
(0.923838 -2.51311e-07 0)
(0.923837 -1.9081e-07 0)
(0.923837 -1.28554e-07 0)
(0.923837 -6.71296e-08 0)
(0.923837 -6.05609e-09 0)
(0.923837 5.75115e-08 0)
(0.923837 1.26727e-07 0)
(0.923837 2.02793e-07 0)
(0.923838 2.84197e-07 0)
(0.923838 3.66101e-07 0)
(0.923838 4.31453e-07 0)
(0.923839 4.43337e-07 0)
(0.923839 3.40123e-07 0)
(0.97461 2.74447e-08 0)
(0.97461 -4.38286e-08 0)
(0.97461 -8.4093e-08 0)
(0.97461 -9.76836e-08 0)
(0.97461 -9.58453e-08 0)
(0.97461 -8.68093e-08 0)
(0.974609 -7.35578e-08 0)
(0.974609 -5.7955e-08 0)
(0.974609 -4.16028e-08 0)
(0.974609 -2.58826e-08 0)
(0.974609 -1.14477e-08 0)
(0.974609 2.18957e-09 0)
(0.974609 1.64177e-08 0)
(0.974609 3.26196e-08 0)
(0.974609 5.12527e-08 0)
(0.974609 7.20057e-08 0)
(0.974609 9.44999e-08 0)
(0.97461 1.15206e-07 0)
(0.97461 1.23567e-07 0)
(0.97461 9.69315e-08 0)
)
;

boundaryField
{
    movingWall
    {
        type            fixedValue;
        value           uniform (1 0 0);
    }
    fixedWalls
    {
        type            noSlip;
    }
    left
    {
        type            cyclic;
    }
    right
    {
        type            cyclic;
    }
    frontAndBack
    {
        type            empty;
    }
}


// ************************************************************************* //
