/*--------------------------------*- C++ -*----------------------------------*\
  =========                 |
  \\      /  F ield         | OpenFOAM: The Open Source CFD Toolbox
   \\    /   O peration     | Website:  https://openfoam.org
    \\  /    A nd           | Version:  8
     \\/     M anipulation  |
\*---------------------------------------------------------------------------*/
FoamFile
{
    version     2.0;
    format      ascii;
    class       volScalarField;
    location    "10";
    object      p;
}
// * * * * * * * * * * * * * * * * * * * * * * * * * * * * * * * * * * * * * //

dimensions      [0 2 -2 0 0 0 0];

internalField   nonuniform List<scalar> 
116
(
3.926e-09
-2.96762e-05
3.45507e-05
-4.11026e-05
0.000497472
-0.000744199
7.22225e-05
6.32857e-05
0.000110721
0.000158328
0.00033304
0.000155581
-0.000267952
-0.000330832
-0.00037854
-0.000513644
-0.000721208
-0.0013097
-0.000499542
-0.000565777
-0.000698182
-0.000896232
-0.00142138
-0.00201362
-0.000943114
-0.00108573
-0.0013049
-0.00161982
-0.00250702
-0.00327883
-0.001371
-0.00139351
-0.00166327
-0.00184114
-0.00282916
-0.00338041
-0.00125751
-0.00165656
-0.00190491
-0.00232487
-0.00308695
-0.00363968
-0.00243384
-0.00204422
-0.00200014
-0.00171995
-0.00195433
-0.00217592
-0.000747218
-0.00269535
-0.00213518
-0.00287241
-0.00254916
-0.00267051
-0.00803934
-0.00115088
-0.000643086
-0.000498222
-0.000456885
-6.54552e-05
0.00268214
0.00548446
0.00648335
0.0112698
0.00104076
0.00205866
-0.000487151
0.005533
-0.00220685
-0.00192654
-0.00504116
-0.00111558
-0.00410232
-0.00491121
-0.00689701
-0.00517473
-0.00620719
-0.0080671
-0.0111225
-0.00838321
-0.00670687
-0.00762403
-0.0122101
-0.0081672
-0.00639261
-0.0075568
-0.0109517
-0.0038544
-0.0033745
-0.00390762
-0.00582097
0.00436741
-0.00442545
-0.00318552
-0.00516946
0.0125853
-0.000190497
0.00531802
0.0134283
0.0487692
0.00974084
0.0100334
0.0104187
0.0109645
0.00961813
0.0100995
0.0105236
0.0113077
0.00861569
0.00934592
0.010134
0.0117359
0.00697646
0.00918044
0.00996942
0.0130292
)
;

boundaryField
{
    movingWall
    {
        type            zeroGradient;
    }
    fixedWalls
    {
        type            zeroGradient;
    }
    frontAndBack
    {
        type            empty;
    }
}


// ************************************************************************* //
