/*--------------------------------*- C++ -*----------------------------------*\
  =========                 |
  \\      /  F ield         | OpenFOAM: The Open Source CFD Toolbox
   \\    /   O peration     | Website:  https://openfoam.org
    \\  /    A nd           | Version:  8
     \\/     M anipulation  |
\*---------------------------------------------------------------------------*/
FoamFile
{
    version     2.0;
    format      ascii;
    class       volVectorField;
    location    "10";
    object      U;
}
// * * * * * * * * * * * * * * * * * * * * * * * * * * * * * * * * * * * * * //

dimensions      [0 1 -1 0 0 0 0];

internalField   nonuniform List<vector> 
116
(
(-0.00171979 0.000825708 0)
(-0.00695813 0.00121237 0)
(-0.0134773 0.00147588 0)
(-0.0224633 0.00186441 0)
(-0.0287254 0.00636326 0)
(-0.0560291 0.0171681 0)
(-0.0029821 0.00801367 0)
(-0.0110525 0.0114118 0)
(-0.0211806 0.0134387 0)
(-0.0327132 0.0165012 0)
(-0.0453312 0.0226942 0)
(-0.0641172 0.0284655 0)
(-0.00206732 0.013882 0)
(-0.00903028 0.0186026 0)
(-0.0179713 0.0214168 0)
(-0.0276087 0.0254086 0)
(-0.0387355 0.0331328 0)
(-0.0526062 0.0417721 0)
(-0.00266039 0.0199922 0)
(-0.00931277 0.0290757 0)
(-0.0171225 0.0332172 0)
(-0.0244085 0.0399806 0)
(-0.0329511 0.0496565 0)
(-0.0391203 0.0580307 0)
(0.000859981 0.0248169 0)
(-0.00252637 0.0315146 0)
(-0.00867493 0.035352 0)
(-0.0121878 0.0379399 0)
(-0.0206408 0.0472668 0)
(-0.0196435 0.0530566 0)
(-0.00334702 0.0213833 0)
(-0.0058868 0.040167 0)
(-0.00813511 0.044763 0)
(-0.00880549 0.0532122 0)
(-0.0118348 0.0623113 0)
(-0.00621233 0.0708763 0)
(0.00454495 0.0365663 0)
(0.0011561 0.0354023 0)
(-0.00831628 0.038293 0)
(-0.00375067 0.0373006 0)
(-0.0076193 0.0435154 0)
(0.0113627 0.0493312 0)
(0.00522719 0.0115819 0)
(0.0112167 0.053864 0)
(0.0196927 0.0507095 0)
(0.0201396 0.0560886 0)
(0.0186897 0.0524966 0)
(0.0310541 0.0593966 0)
(-0.0630877 0.0260818 0)
(-0.0393204 0.017125 0)
(-0.0571667 0.0283959 0)
(-0.033537 0.0309441 0)
(-0.0246298 0.0286281 0)
(0.0028578 0.0297789 0)
(0.0510417 0.100268 0)
(0.0891615 0.0588845 0)
(0.112426 0.0437849 0)
(0.16454 0.0337052 0)
(0.173022 0.020632 0)
(0.213169 0.0210079 0)
(-0.065142 0.0567642 0)
(-0.064063 0.0254027 0)
(-0.077082 0.000164131 0)
(-0.0484922 -0.100375 0)
(-0.0704714 0.0516752 0)
(-0.0684026 0.0305379 0)
(-0.0885295 -0.00786687 0)
(-0.0171938 -0.180713 0)
(-0.0664606 0.0566925 0)
(-0.0583375 0.0307949 0)
(-0.0751969 -0.0380689 0)
(0.0183355 -0.216034 0)
(-0.0521158 0.0683001 0)
(-0.0407362 0.0324309 0)
(-0.052541 -0.0697495 0)
(0.00859058 -0.232935 0)
(-0.0331245 0.058992 0)
(-0.0211882 0.0215841 0)
(-0.0357254 -0.0893603 0)
(0.00375706 -0.268537 0)
(-0.0150899 0.077368 0)
(0.00940442 0.0346829 0)
(-0.015674 -0.0862742 0)
(0.0211402 -0.268685 0)
(0.00746037 0.0421461 0)
(0.0383079 0.0153716 0)
(-0.00902882 -0.099592 0)
(0.0242058 -0.261718 0)
(0.0293344 0.0602382 0)
(0.0552406 0.0514616 0)
(0.0146885 -0.0583095 0)
(0.0433232 -0.246655 0)
(0.0174467 0.0128838 0)
(0.0652872 0.0157072 0)
(0.0634 -0.0920079 0)
(0.0767284 -0.234124 0)
(0.212668 0.00926596 0)
(0.246663 -0.000163303 0)
(0.203503 -0.0301097 0)
(0.152991 -0.076775 0)
(-0.00276533 0.000551597 0)
(-0.00643143 -0.000880218 0)
(-0.00744515 -0.00177596 0)
(-0.00382415 -0.00317901 0)
(-0.00474606 0.00925638 0)
(-0.0100965 0.00558471 0)
(-0.0115129 -0.000147996 0)
(-0.00655675 -0.00826937 0)
(-0.00841346 0.0150022 0)
(-0.0189054 0.00414118 0)
(-0.0233935 -0.00465114 0)
(-0.0152504 -0.0229285 0)
(-0.0113005 0.0392183 0)
(-0.0335637 0.021226 0)
(-0.0405671 -0.000516485 0)
(-0.0335107 -0.0452104 0)
)
;

boundaryField
{
    movingWall
    {
        type            fixedValue;
        value           uniform (1 0 0);
    }
    fixedWalls
    {
        type            noSlip;
    }
    frontAndBack
    {
        type            empty;
    }
}


// ************************************************************************* //
