/*--------------------------------*- C++ -*----------------------------------*\
  =========                 |
  \\      /  F ield         | OpenFOAM: The Open Source CFD Toolbox
   \\    /   O peration     | Website:  https://openfoam.org
    \\  /    A nd           | Version:  8
     \\/     M anipulation  |
\*---------------------------------------------------------------------------*/
FoamFile
{
    version     2.0;
    format      ascii;
    class       volScalarField;
    location    "14";
    object      p;
}
// * * * * * * * * * * * * * * * * * * * * * * * * * * * * * * * * * * * * * //

dimensions      [0 2 -2 0 0 0 0];

internalField   nonuniform List<scalar> 
12504
(
0.141312
0.138245
0.131796
0.121952
0.108982
0.0932335
0.075089
0.0549809
0.0333934
0.0108371
-0.0121855
-0.0352096
-0.0578321
-0.0797244
-0.100635
-0.120383
-0.138842
-0.155931
-0.171598
-0.185815
-0.198567
-0.209849
-0.219662
-0.22801
-0.234896
-0.240326
-0.244302
-0.246829
-0.247906
-0.247541
-0.245734
-0.242502
-0.237848
-0.231809
-0.224394
-0.215673
-0.205659
-0.194475
-0.182128
-0.168814
-0.154509
-0.139522
-0.123736
-0.107647
-0.0909248
-0.0743968
-0.0572871
-0.0410542
-0.0240132
-0.00887463
0.143518
0.140385
0.133792
0.12373
0.11048
0.0944061
0.0759057
0.0554308
0.0334866
0.010603
-0.0127013
-0.0359519
-0.0587428
-0.0807496
-0.101729
-0.12151
-0.139978
-0.157059
-0.172707
-0.186899
-0.199623
-0.210878
-0.220666
-0.228992
-0.23586
-0.241276
-0.245241
-0.24776
-0.248831
-0.248463
-0.246654
-0.24342
-0.238762
-0.232717
-0.225292
-0.216557
-0.206523
-0.195312
-0.18293
-0.169575
-0.155218
-0.140176
-0.124322
-0.108167
-0.091362
-0.0747629
-0.0575587
-0.0412614
-0.0241148
-0.00893608
0.147988
0.144715
0.137826
0.12732
0.113501
0.0967616
0.0775338
0.0563101
0.0336386
0.01009
-0.0137843
-0.0374897
-0.0606151
-0.0828454
-0.103956
-0.123799
-0.142278
-0.159337
-0.174943
-0.189082
-0.20175
-0.21295
-0.222688
-0.23097
-0.237801
-0.243187
-0.24713
-0.249634
-0.250695
-0.250321
-0.248507
-0.24527
-0.240605
-0.234549
-0.227105
-0.218342
-0.208267
-0.197003
-0.184552
-0.171114
-0.156656
-0.141499
-0.125513
-0.109216
-0.0922538
-0.0754974
-0.0581209
-0.0416656
-0.0243442
-0.00902729
0.15482
0.151329
0.143984
0.132791
0.118089
0.100316
0.0799594
0.0575739
0.0337765
0.00920347
-0.0155411
-0.0399315
-0.063551
-0.0861021
-0.107393
-0.12731
-0.145792
-0.162807
-0.178342
-0.192395
-0.204974
-0.216088
-0.225747
-0.233961
-0.240736
-0.246078
-0.249989
-0.252471
-0.253519
-0.253138
-0.25132
-0.248078
-0.243406
-0.237335
-0.229865
-0.221061
-0.210927
-0.199584
-0.18703
-0.173466
-0.158854
-0.143524
-0.127336
-0.110824
-0.0936219
-0.0766239
-0.058985
-0.0422845
-0.0247002
-0.00916137
0.16417
0.160376
0.152398
0.140249
0.124315
0.105097
0.0831595
0.0591487
0.0337814
0.00778989
-0.0181445
-0.0434522
-0.0677134
-0.0906622
-0.112158
-0.132144
-0.150603
-0.167538
-0.182959
-0.196886
-0.209336
-0.220329
-0.22988
-0.238001
-0.2447
-0.249984
-0.253852
-0.256306
-0.257339
-0.256952
-0.255132
-0.251889
-0.247211
-0.241125
-0.233622
-0.224769
-0.214558
-0.203112
-0.190419
-0.176688
-0.161869
-0.146304
-0.129842
-0.113036
-0.0955054
-0.0781759
-0.0601766
-0.043138
-0.0251919
-0.00934613
0.176259
0.172065
0.163251
0.14984
0.132273
0.111137
0.0870953
0.0609216
0.0334732
0.005619
-0.0218505
-0.0483077
-0.0733369
-0.0967274
-0.11842
-0.138436
-0.156821
-0.173621
-0.188875
-0.202622
-0.214897
-0.22573
-0.235139
-0.24314
-0.249742
-0.254953
-0.258769
-0.261193
-0.262211
-0.261821
-0.260005
-0.256768
-0.252089
-0.24599
-0.238455
-0.229544
-0.219242
-0.20767
-0.194806
-0.180862
-0.165781
-0.149915
-0.133102
-0.115917
-0.0979619
-0.0802021
-0.0617343
-0.0442544
-0.0258356
-0.00958861
0.191374
0.186669
0.176788
0.161758
0.142092
0.118475
0.0917045
0.0627247
0.0325885
0.00235737
-0.027025
-0.0548575
-0.0807445
-0.10457
-0.1264
-0.146367
-0.164596
-0.18118
-0.196192
-0.209696
-0.221741
-0.232366
-0.241596
-0.249448
-0.255932
-0.261055
-0.264813
-0.267204
-0.268211
-0.267828
-0.266027
-0.262807
-0.258137
-0.252034
-0.24447
-0.235499
-0.225094
-0.213374
-0.200305
-0.186105
-0.170703
-0.154465
-0.137216
-0.11956
-0.101073
-0.0827715
-0.0637128
-0.0456736
-0.0266552
-0.0098979
0.209883
0.204537
0.193322
0.176255
0.153932
0.127155
0.0968893
0.0643109
0.0307437
-0.00247538
-0.0341862
-0.0635979
-0.0903705
-0.114548
-0.136385
-0.156169
-0.174116
-0.190374
-0.205049
-0.218228
-0.229977
-0.240343
-0.249352
-0.257023
-0.263366
-0.268388
-0.272081
-0.274441
-0.275446
-0.275083
-0.273315
-0.270131
-0.265488
-0.259397
-0.251813
-0.242785
-0.23227
-0.220384
-0.207077
-0.192574
-0.176787
-0.160102
-0.142322
-0.124088
-0.104948
-0.0859786
-0.0661877
-0.0474512
-0.0276841
-0.0102858
0.232245
0.226108
0.213247
0.193647
0.167995
0.137221
0.102499
0.0653174
0.0273789
-0.00957572
-0.0440721
-0.0752163
-0.102794
-0.12712
-0.148736
-0.16813
-0.185623
-0.201408
-0.215623
-0.22838
-0.239756
-0.249802
-0.258543
-0.265999
-0.272176
-0.277082
-0.280706
-0.283041
-0.284057
-0.283736
-0.282028
-0.278906
-0.274316
-0.26826
-0.260676
-0.251602
-0.240975
-0.228907
-0.215331
-0.200475
-0.184236
-0.167017
-0.148601
-0.129669
-0.109736
-0.0899493
-0.0692613
-0.049662
-0.0289688
-0.010767
0.259029
0.251922
0.237058
0.214331
0.184537
0.14871
0.108297
0.0652088
0.0216742
-0.0199563
-0.0577416
-0.0906733
-0.118792
-0.142876
-0.163902
-0.182611
-0.199416
-0.214539
-0.228143
-0.240359
-0.251273
-0.260928
-0.269347
-0.276546
-0.28253
-0.287305
-0.290856
-0.293174
-0.29422
-0.293972
-0.292356
-0.289331
-0.284831
-0.278846
-0.271291
-0.26219
-0.251457
-0.239197
-0.225321
-0.210063
-0.193296
-0.175448
-0.156277
-0.136508
-0.115623
-0.0948437
-0.0730659
-0.0524028
-0.0305713
-0.0113582
0.29092
0.282644
0.265369
0.238807
0.203878
0.161639
0.113912
0.0631657
0.0124035
-0.0350932
-0.0767015
-0.111302
-0.139409
-0.162581
-0.182449
-0.200055
-0.21586
-0.230079
-0.242885
-0.254421
-0.264764
-0.273944
-0.281972
-0.288861
-0.294615
-0.299236
-0.302706
-0.305012
-0.306114
-0.30598
-0.304495
-0.30161
-0.297246
-0.291381
-0.283897
-0.274801
-0.263977
-0.251523
-0.237322
-0.221611
-0.20424
-0.185659
-0.165602
-0.14484
-0.122824
-0.100849
-0.0777604
-0.0557907
-0.0325699
-0.0120758
0.328744
0.31908
0.298943
0.267712
0.226435
0.175994
0.11875
0.0578769
-0.00237275
-0.0572143
-0.103091
-0.138878
-0.165966
-0.18718
-0.205075
-0.220999
-0.235376
-0.248367
-0.260138
-0.27082
-0.280456
-0.289047
-0.296591
-0.303095
-0.308561
-0.312986
-0.31635
-0.31863
-0.319802
-0.319836
-0.318525
-0.315829
-0.311665
-0.305981
-0.298626
-0.289583
-0.278703
-0.266068
-0.251531
-0.235328
-0.217285
-0.19787
-0.176798
-0.15488
-0.131544
-0.108151
-0.0835103
-0.0599495
-0.0350533
-0.0129317
0.373469
0.362206
0.338716
0.301873
0.252767
0.191742
0.121939
0.0472793
-0.0258424
-0.089936
-0.140131
-0.175754
-0.199963
-0.217632
-0.232469
-0.245959
-0.258331
-0.269652
-0.280067
-0.289657
-0.298394
-0.306235
-0.313154
-0.319157
-0.32424
-0.328402
-0.331613
-0.333849
-0.33505
-0.335284
-0.33418
-0.331743
-0.327857
-0.322435
-0.315288
-0.306372
-0.295499
-0.28273
-0.267881
-0.251182
-0.232432
-0.212113
-0.189925
-0.166709
-0.141887
-0.116857
-0.0904338
-0.0649742
-0.0381023
-0.0139261
0.426202
0.413181
0.385829
0.342368
0.283597
0.208819
0.122197
0.0282985
-0.0629931
-0.139221
-0.193102
-0.225341
-0.243034
-0.254585
-0.264887
-0.274992
-0.284617
-0.293698
-0.302338
-0.31051
-0.318074
-0.324927
-0.331024
-0.336363
-0.340933
-0.344732
-0.347729
-0.349926
-0.351291
-0.351476
-0.350586
-0.348491
-0.344972
-0.339909
-0.333075
-0.324399
-0.313643
-0.300841
-0.285767
-0.268635
-0.249221
-0.228002
-0.204677
-0.180093
-0.153696
-0.126871
-0.0985009
-0.0708611
-0.0417502
-0.0150417
0.488166
0.473363
0.441672
0.390633
0.31979
0.227
0.11721
-0.00422112
-0.12097
-0.213621
-0.269848
-0.29244
-0.296825
-0.297893
-0.301367
-0.306726
-0.312678
-0.318901
-0.325332
-0.331731
-0.337815
-0.343424
-0.348495
-0.353011
-0.356954
-0.360313
-0.363048
-0.365126
-0.366384
-0.366753
-0.366176
-0.364482
-0.361411
-0.356815
-0.350426
-0.342135
-0.331658
-0.318988
-0.303858
-0.286454
-0.266526
-0.244532
-0.220181
-0.194292
-0.166375
-0.137729
-0.107396
-0.0774051
-0.0459177
-0.0162369
0.560654
0.544281
0.508035
0.44866
0.362479
0.245644
0.102171
-0.0613189
-0.21064
-0.322271
-0.376894
-0.379939
-0.360869
-0.345115
-0.338263
-0.336866
-0.33812
-0.341112
-0.345223
-0.349799
-0.354377
-0.358743
-0.362809
-0.366535
-0.36989
-0.372851
-0.375356
-0.377291
-0.378601
-0.379249
-0.379047
-0.377808
-0.375264
-0.371236
-0.36542
-0.357664
-0.347639
-0.335299
-0.320334
-0.302888
-0.282691
-0.26016
-0.235032
-0.20805
-0.178847
-0.148535
-0.116436
-0.0841231
-0.0503473
-0.017437
0.644904
0.627534
0.587359
0.519464
0.41399
0.263899
0.0685583
-0.162579
-0.354244
-0.473146
-0.509625
-0.478389
-0.42585
-0.388056
-0.368052
-0.358573
-0.355096
-0.355472
-0.358005
-0.361442
-0.36511
-0.368729
-0.372183
-0.375423
-0.378418
-0.381143
-0.383541
-0.385545
-0.387031
-0.387962
-0.388134
-0.38736
-0.385363
-0.381935
-0.376743
-0.369595
-0.360131
-0.348256
-0.333632
-0.31635
-0.296132
-0.273328
-0.247728
-0.219956
-0.189822
-0.158154
-0.124683
-0.0903093
-0.0546148
-0.018529
0.741733
0.724544
0.682856
0.60778
0.480255
0.28394
0.00268497
-0.322716
-0.509151
-0.618836
-0.619056
-0.549881
-0.466766
-0.41283
-0.38523
-0.37098
-0.364829
-0.36368
-0.365133
-0.367728
-0.370772
-0.373944
-0.377082
-0.380108
-0.382973
-0.385641
-0.388066
-0.390207
-0.391979
-0.393199
-0.393703
-0.393335
-0.391815
-0.388909
-0.384272
-0.377674
-0.368742
-0.35733
-0.343092
-0.326055
-0.305955
-0.283058
-0.257229
-0.228946
-0.198233
-0.165582
-0.131225
-0.0952321
-0.0582402
-0.0193595
0.850822
0.836041
0.797874
0.720187
0.573721
0.31863
-0.0168751
-0.411791
-0.702826
-0.786838
-0.746715
-0.608193
-0.491869
-0.42657
-0.386544
-0.371724
-0.366201
-0.365652
-0.367448
-0.37019
-0.373272
-0.376427
-0.379528
-0.38252
-0.38537
-0.388055
-0.390535
-0.392756
-0.394616
-0.396007
-0.396768
-0.39668
-0.395473
-0.392913
-0.388656
-0.382436
-0.373884
-0.362806
-0.348861
-0.332018
-0.312035
-0.289101
-0.263155
-0.234548
-0.203502
-0.170211
-0.135408
-0.0983194
-0.0607931
-0.0197031
0.969801
0.961178
0.933755
0.86457
0.712103
0.427343
-0.00585212
-0.459429
-0.793534
-0.50207
-0.428169
-0.391426
-0.372319
-0.367573
-0.367112
-0.36888
-0.371547
-0.374545
-0.377627
-0.380673
-0.383628
-0.386461
-0.389145
-0.391642
-0.393897
-0.395819
-0.397288
-0.398135
-0.398157
-0.397112
-0.394712
-0.390629
-0.384577
-0.376201
-0.365266
-0.35145
-0.334666
-0.314706
-0.291696
-0.265634
-0.236792
-0.205529
-0.171866
-0.136904
-0.0992398
-0.0618965
-0.0191923
1.09369
1.09597
1.08725
1.0482
0.900225
0.588196
0.102457
-0.422164
-0.389046
-0.37321
-0.366671
-0.366732
-0.368657
-0.371387
-0.374429
-0.377552
-0.38064
-0.383635
-0.386505
-0.389219
-0.391741
-0.394012
-0.395946
-0.39742
-0.398269
-0.398291
-0.397233
-0.394826
-0.390752
-0.384672
-0.376275
-0.365297
-0.351437
-0.334564
-0.314506
-0.291341
-0.26511
-0.236056
-0.204587
-0.170729
-0.135701
-0.0979175
-0.0611816
-0.017256
1.21495
1.23124
1.2529
1.25897
1.14071
0.835754
-0.385833
-0.369075
-0.363409
-0.364305
-0.366665
-0.369715
-0.37301
-0.376339
-0.379596
-0.382727
-0.3857
-0.388488
-0.391053
-0.393338
-0.395257
-0.396689
-0.397471
-0.397402
-0.396234
-0.393689
-0.38945
-0.383253
-0.374676
-0.363511
-0.349469
-0.332391
-0.312133
-0.288743
-0.262286
-0.233006
-0.201297
-0.167313
-0.132163
-0.0945257
-0.0583972
-0.0132392
1.3222
1.35459
1.41123
1.47245
1.40545
1.17088
-0.362083
-0.358391
-0.360324
-0.363419
-0.367023
-0.370743
-0.374403
-0.377919
-0.381248
-0.384368
-0.387257
-0.389879
-0.392179
-0.394072
-0.395439
-0.396118
-0.39591
-0.394573
-0.391833
-0.387376
-0.380881
-0.372106
-0.360687
-0.34639
-0.329048
-0.308539
-0.284888
-0.258179
-0.228653
-0.196672
-0.162534
-0.127158
-0.0894457
-0.0540517
-0.0069431
1.40324
1.44971
1.53899
1.65389
1.65722
1.54087
-0.357534
-0.352961
-0.356103
-0.360042
-0.364257
-0.368431
-0.372437
-0.376214
-0.379741
-0.383005
-0.385991
-0.388667
-0.39098
-0.392847
-0.394148
-0.394726
-0.394381
-0.392878
-0.389944
-0.385277
-0.378557
-0.369501
-0.357833
-0.343289
-0.325699
-0.304955
-0.281068
-0.254129
-0.22437
-0.192121
-0.157741
-0.121785
-0.0844113
-0.0491014
0.00100106
1.447
1.50173
1.61064
1.75696
1.83427
-0.343978
-0.349527
-0.353429
-0.357901
-0.362509
-0.366977
-0.371202
-0.375145
-0.378795
-0.382148
-0.385193
-0.387902
-0.390223
-0.392073
-0.393334
-0.393849
-0.393419
-0.391811
-0.388756
-0.383959
-0.377103
-0.367869
-0.356024
-0.341328
-0.323589
-0.302701
-0.27867
-0.251589
-0.221678
-0.189255
-0.154675
-0.118324
-0.0810773
-0.0454243
0.00157769
1.447
1.50173
1.61064
1.75696
1.87075
-0.340178
-0.349527
-0.353429
-0.3579
-0.362509
-0.366977
-0.371202
-0.375146
-0.378797
-0.382151
-0.385197
-0.387907
-0.390229
-0.392081
-0.393343
-0.393858
-0.393429
-0.39182
-0.388764
-0.383965
-0.377106
-0.367868
-0.356023
-0.341325
-0.323583
-0.302692
-0.278659
-0.251576
-0.221664
-0.189241
-0.154662
-0.118312
-0.0810677
-0.0454153
0.00159087
1.40324
1.44971
1.53899
1.65389
1.76039
-0.346036
-0.352959
-0.356102
-0.36004
-0.364255
-0.368431
-0.372438
-0.376218
-0.379747
-0.383014
-0.386003
-0.388682
-0.390999
-0.392869
-0.394173
-0.394752
-0.394408
-0.392903
-0.389967
-0.385295
-0.378568
-0.369507
-0.357831
-0.343279
-0.325681
-0.304929
-0.281036
-0.254092
-0.22433
-0.192081
-0.157704
-0.121753
-0.0843835
-0.0490743
0.00106706
1.3222
1.35459
1.41123
1.47245
1.52989
1.46323
-0.357818
-0.358388
-0.36032
-0.363416
-0.367021
-0.370742
-0.374405
-0.377924
-0.381258
-0.384383
-0.387276
-0.389904
-0.39221
-0.394108
-0.395478
-0.39616
-0.395952
-0.394614
-0.391869
-0.387404
-0.3809
-0.37211
-0.360682
-0.346373
-0.329019
-0.308498
-0.284838
-0.258121
-0.228593
-0.196611
-0.162479
-0.127111
-0.0894047
-0.0540218
-0.00691623
1.21496
1.23124
1.2529
1.25897
1.26488
1.10413
-0.365763
-0.363404
-0.3643
-0.36666
-0.369712
-0.373009
-0.376342
-0.379603
-0.382739
-0.385719
-0.388514
-0.391086
-0.393378
-0.395304
-0.396741
-0.397526
-0.397456
-0.396286
-0.393735
-0.389487
-0.383275
-0.374684
-0.363505
-0.349447
-0.332353
-0.312081
-0.288679
-0.262214
-0.23293
-0.201223
-0.167244
-0.132105
-0.0944795
-0.0583657
-0.0132232
1.09369
1.09597
1.08725
1.0482
1.00928
0.696832
0.359159
-0.383356
-0.37227
-0.366664
-0.366726
-0.368651
-0.371383
-0.374427
-0.377554
-0.380648
-0.383651
-0.386528
-0.389251
-0.391781
-0.394061
-0.396002
-0.397481
-0.398333
-0.398355
-0.397293
-0.394878
-0.390793
-0.384698
-0.376284
-0.365289
-0.35141
-0.33452
-0.314445
-0.291268
-0.265028
-0.23597
-0.204504
-0.170653
-0.135637
-0.0978686
-0.0611501
-0.0172437
0.969802
0.96118
0.933756
0.864571
0.712105
0.491515
0.00466384
-0.390827
-0.426674
-0.392527
-0.372311
-0.367564
-0.367103
-0.368872
-0.371542
-0.374543
-0.37763
-0.380682
-0.383645
-0.386487
-0.389181
-0.391688
-0.393952
-0.395881
-0.397356
-0.398205
-0.398227
-0.397177
-0.394768
-0.390672
-0.384604
-0.37621
-0.365255
-0.351419
-0.334616
-0.31464
-0.291617
-0.265547
-0.236702
-0.205442
-0.171787
-0.136838
-0.0991906
-0.061866
-0.0191817
0.850823
0.836042
0.797875
0.720189
0.573723
0.318632
-0.0191991
-0.49952
-0.73693
-0.626734
-0.496852
-0.432866
-0.386535
-0.371715
-0.366192
-0.365643
-0.36744
-0.370184
-0.37327
-0.376431
-0.379539
-0.38254
-0.385399
-0.388094
-0.390584
-0.392814
-0.394683
-0.396079
-0.396841
-0.396752
-0.39554
-0.39297
-0.388699
-0.382462
-0.373891
-0.362792
-0.348828
-0.331965
-0.311966
-0.28902
-0.263066
-0.234458
-0.203416
-0.170134
-0.135344
-0.0982721
-0.0607643
-0.0196935
0.741735
0.724545
0.682857
0.607782
0.480257
0.283943
0.00268776
-0.322712
-0.605353
-0.733318
-0.691657
-0.580784
-0.466757
-0.412821
-0.385222
-0.370971
-0.364819
-0.363671
-0.365125
-0.367723
-0.370771
-0.373949
-0.377095
-0.38013
-0.383004
-0.385683
-0.388118
-0.390268
-0.392046
-0.393271
-0.393776
-0.393407
-0.39188
-0.388963
-0.384313
-0.377697
-0.368745
-0.357314
-0.343056
-0.326002
-0.305886
-0.282979
-0.257143
-0.22886
-0.198151
-0.165509
-0.131165
-0.0951884
-0.058214
-0.0193508
0.644905
0.627535
0.58736
0.519466
0.413991
0.263901
0.068561
-0.162575
-0.35424
-0.473141
-0.509619
-0.478382
-0.425842
-0.388049
-0.368045
-0.358565
-0.355087
-0.355464
-0.357999
-0.361439
-0.365112
-0.368736
-0.372197
-0.375447
-0.378451
-0.381186
-0.383593
-0.385606
-0.387097
-0.388032
-0.388204
-0.387427
-0.385423
-0.381984
-0.376778
-0.369613
-0.360131
-0.348237
-0.333596
-0.316297
-0.296066
-0.273252
-0.247648
-0.219877
-0.189747
-0.158089
-0.12463
-0.0902707
-0.0545919
-0.0185213
0.560656
0.544282
0.508037
0.448662
0.362481
0.245647
0.102174
-0.0613158
-0.210637
-0.322267
-0.376888
-0.379933
-0.360863
-0.345109
-0.338256
-0.33686
-0.338114
-0.341106
-0.34522
-0.349798
-0.354381
-0.358753
-0.362825
-0.36656
-0.369923
-0.372893
-0.375406
-0.377348
-0.378662
-0.379314
-0.379111
-0.377868
-0.375317
-0.371278
-0.365449
-0.357677
-0.347636
-0.335279
-0.320298
-0.302838
-0.282631
-0.260092
-0.234961
-0.20798
-0.178783
-0.148479
-0.116391
-0.0840903
-0.050328
-0.0174304
0.488168
0.473365
0.441674
0.390635
0.319792
0.227002
0.117213
-0.00421829
-0.120967
-0.213617
-0.269844
-0.292436
-0.29682
-0.297888
-0.301362
-0.306721
-0.312674
-0.318898
-0.325331
-0.331733
-0.337821
-0.343436
-0.348512
-0.353036
-0.356986
-0.360353
-0.363094
-0.365177
-0.366439
-0.36681
-0.366232
-0.364533
-0.361456
-0.35685
-0.350449
-0.342145
-0.331653
-0.318968
-0.303826
-0.28641
-0.266473
-0.244474
-0.220121
-0.194233
-0.166321
-0.137682
-0.107359
-0.0773783
-0.045902
-0.0162313
0.426204
0.413183
0.38583
0.342369
0.283599
0.208821
0.1222
0.028301
-0.0629904
-0.139218
-0.193098
-0.225337
-0.24303
-0.254581
-0.264883
-0.274989
-0.284615
-0.293697
-0.302339
-0.310514
-0.318082
-0.324939
-0.331041
-0.336386
-0.340962
-0.344767
-0.347769
-0.34997
-0.351337
-0.351524
-0.350633
-0.348534
-0.345008
-0.339937
-0.333094
-0.324406
-0.313638
-0.300824
-0.285739
-0.268599
-0.249178
-0.227955
-0.204629
-0.180046
-0.153653
-0.126834
-0.0984716
-0.0708399
-0.0417379
-0.0150372
0.373471
0.362208
0.338718
0.301874
0.252769
0.191744
0.121941
0.0472816
-0.02584
-0.0899333
-0.140129
-0.175751
-0.19996
-0.217629
-0.232466
-0.245958
-0.258331
-0.269653
-0.28007
-0.289662
-0.298402
-0.306246
-0.31317
-0.319178
-0.324266
-0.328432
-0.331647
-0.333887
-0.335091
-0.335324
-0.334218
-0.331778
-0.327887
-0.322458
-0.315302
-0.306378
-0.295496
-0.282717
-0.267859
-0.251153
-0.232399
-0.212076
-0.189887
-0.166673
-0.141854
-0.116829
-0.0904112
-0.0649579
-0.0380929
-0.0139225
0.328746
0.319082
0.298944
0.267714
0.226437
0.175996
0.118752
0.0578789
-0.00237065
-0.0572121
-0.103088
-0.138876
-0.165964
-0.187178
-0.205074
-0.220998
-0.235376
-0.248369
-0.260142
-0.270825
-0.280464
-0.289059
-0.296606
-0.303114
-0.308583
-0.313012
-0.316379
-0.318662
-0.319835
-0.319869
-0.318556
-0.315858
-0.31169
-0.306001
-0.298639
-0.289588
-0.278701
-0.266059
-0.251515
-0.235307
-0.21726
-0.197842
-0.176769
-0.154853
-0.131519
-0.108129
-0.0834932
-0.0599371
-0.0350462
-0.0129288
0.290922
0.282645
0.26537
0.238808
0.20388
0.16164
0.113914
0.0631675
0.0124053
-0.0350914
-0.0766997
-0.1113
-0.139408
-0.16258
-0.182449
-0.200055
-0.215861
-0.230081
-0.242889
-0.254427
-0.264772
-0.273955
-0.281986
-0.288878
-0.294636
-0.299259
-0.302731
-0.305039
-0.306143
-0.306008
-0.304522
-0.301634
-0.297267
-0.291397
-0.283908
-0.274806
-0.263977
-0.251517
-0.237311
-0.221595
-0.204221
-0.185638
-0.165581
-0.14482
-0.122805
-0.100833
-0.0777477
-0.0557814
-0.0325647
-0.0120737
0.25903
0.251923
0.237059
0.214332
0.184539
0.148711
0.108299
0.0652104
0.0216757
-0.0199549
-0.0577402
-0.0906721
-0.118791
-0.142875
-0.163902
-0.182612
-0.199418
-0.214542
-0.228148
-0.240366
-0.251281
-0.260939
-0.26936
-0.276561
-0.282548
-0.287325
-0.290879
-0.293198
-0.294245
-0.293996
-0.292379
-0.289352
-0.284849
-0.27886
-0.271302
-0.262196
-0.251458
-0.239193
-0.225313
-0.210051
-0.193282
-0.175432
-0.156261
-0.136492
-0.115609
-0.0948316
-0.0730565
-0.052396
-0.0305675
-0.0113565
0.232247
0.226109
0.213248
0.193649
0.167997
0.137222
0.1025
0.0653188
0.0273801
-0.00957457
-0.0440711
-0.0752154
-0.102793
-0.12712
-0.148737
-0.168132
-0.185625
-0.201411
-0.215628
-0.228386
-0.239764
-0.249812
-0.258555
-0.266013
-0.272192
-0.277101
-0.280726
-0.283062
-0.284078
-0.283757
-0.282048
-0.278924
-0.274332
-0.268273
-0.260685
-0.251607
-0.240976
-0.228905
-0.215325
-0.200467
-0.184226
-0.167005
-0.148589
-0.129657
-0.109726
-0.0899403
-0.0692544
-0.049657
-0.028966
-0.0107658
0.209884
0.204539
0.193323
0.176257
0.153933
0.127156
0.0968907
0.0643122
0.0307448
-0.00247444
-0.0341855
-0.0635974
-0.0903704
-0.114548
-0.136386
-0.15617
-0.174119
-0.190378
-0.205054
-0.218234
-0.229985
-0.240353
-0.249363
-0.257037
-0.263381
-0.268404
-0.272098
-0.27446
-0.275465
-0.275102
-0.273333
-0.270147
-0.265502
-0.259408
-0.251822
-0.242791
-0.232272
-0.220383
-0.207074
-0.192568
-0.17678
-0.160094
-0.142314
-0.12408
-0.104941
-0.085972
-0.0661826
-0.0474475
-0.0276821
-0.0102849
0.191375
0.18667
0.17679
0.16176
0.142093
0.118476
0.0917059
0.0627259
0.0325895
0.00235814
-0.0270245
-0.0548572
-0.0807447
-0.104571
-0.126401
-0.146369
-0.164599
-0.181184
-0.196197
-0.209702
-0.221749
-0.232376
-0.241607
-0.249461
-0.255946
-0.26107
-0.264829
-0.267221
-0.268228
-0.267845
-0.266043
-0.262822
-0.25815
-0.252045
-0.244478
-0.235504
-0.225097
-0.213374
-0.200303
-0.186101
-0.170698
-0.154459
-0.13721
-0.119553
-0.101067
-0.0827666
-0.0637091
-0.0456709
-0.0266538
-0.0098972
0.17626
0.172067
0.163252
0.149841
0.132275
0.111138
0.0870966
0.0609227
0.033474
0.00561963
-0.0218501
-0.0483077
-0.0733373
-0.0967283
-0.118422
-0.138439
-0.156825
-0.173625
-0.18888
-0.202629
-0.214906
-0.225739
-0.235149
-0.243152
-0.249756
-0.254967
-0.258785
-0.261208
-0.262227
-0.261837
-0.26002
-0.256782
-0.252101
-0.246
-0.238463
-0.229549
-0.219245
-0.207671
-0.194805
-0.180859
-0.165778
-0.14991
-0.133097
-0.115913
-0.0979577
-0.0801985
-0.0617317
-0.0442524
-0.0258347
-0.00958809
0.164172
0.160378
0.152399
0.14025
0.124316
0.105098
0.0831607
0.0591497
0.0337821
0.00779038
-0.0181443
-0.0434524
-0.067714
-0.0906633
-0.11216
-0.132146
-0.150606
-0.167542
-0.182965
-0.196893
-0.209344
-0.220338
-0.22989
-0.238013
-0.244713
-0.249998
-0.253866
-0.256321
-0.257354
-0.256966
-0.255145
-0.251902
-0.247222
-0.241134
-0.23363
-0.224774
-0.214561
-0.203114
-0.190419
-0.176686
-0.161867
-0.1463
-0.129838
-0.113033
-0.0955022
-0.0781732
-0.0601747
-0.0431367
-0.0251913
-0.00934574
0.154821
0.15133
0.143985
0.132793
0.11809
0.100318
0.0799605
0.0575748
0.0337772
0.00920384
-0.0155411
-0.0399318
-0.0635518
-0.0861034
-0.107395
-0.127313
-0.145796
-0.162812
-0.178347
-0.192402
-0.204982
-0.216097
-0.225757
-0.233972
-0.240748
-0.246091
-0.250002
-0.252484
-0.253532
-0.253151
-0.251332
-0.24809
-0.243416
-0.237344
-0.229871
-0.221066
-0.210931
-0.199586
-0.18703
-0.173465
-0.158853
-0.143522
-0.127334
-0.110822
-0.0936195
-0.0766219
-0.0589836
-0.0422835
-0.0246998
-0.00916108
0.14799
0.144716
0.137828
0.127322
0.113502
0.0967627
0.0775349
0.056311
0.0336391
0.0100902
-0.0137844
-0.0374901
-0.060616
-0.0828469
-0.103958
-0.123801
-0.142281
-0.159341
-0.174949
-0.189089
-0.201758
-0.212959
-0.222698
-0.230981
-0.237812
-0.2432
-0.247143
-0.249647
-0.250708
-0.250334
-0.248519
-0.245281
-0.240615
-0.234558
-0.227112
-0.218347
-0.208271
-0.197006
-0.184553
-0.171114
-0.156655
-0.141497
-0.125511
-0.109214
-0.092252
-0.0754959
-0.0581199
-0.0416649
-0.024344
-0.00902706
0.14352
0.140386
0.133793
0.123731
0.110481
0.0944072
0.0759067
0.0554316
0.0334871
0.0106032
-0.0127014
-0.0359524
-0.0587438
-0.0807511
-0.101731
-0.121513
-0.139982
-0.157063
-0.172713
-0.186905
-0.199631
-0.210887
-0.220676
-0.229003
-0.235872
-0.241288
-0.245253
-0.247773
-0.248844
-0.248476
-0.246665
-0.24343
-0.238772
-0.232726
-0.225299
-0.216562
-0.206526
-0.195314
-0.18293
-0.169575
-0.155217
-0.140175
-0.124321
-0.108165
-0.0913605
-0.0747617
-0.057558
-0.0412609
-0.0241147
-0.0089359
0.141313
0.138246
0.131797
0.121953
0.108983
0.0932345
0.07509
0.0549816
0.0333939
0.0108372
-0.0121856
-0.0352101
-0.0578331
-0.079726
-0.100637
-0.120386
-0.138846
-0.155936
-0.171604
-0.185822
-0.198575
-0.209858
-0.219671
-0.22802
-0.234908
-0.240339
-0.244315
-0.246842
-0.247918
-0.247553
-0.245745
-0.242512
-0.237857
-0.231817
-0.2244
-0.215678
-0.205663
-0.194477
-0.182129
-0.168814
-0.154508
-0.139521
-0.123735
-0.107645
-0.0909235
-0.0743958
-0.0572865
-0.0410538
-0.0240132
-0.00887447
0.14131
0.138248
0.131798
0.121952
0.108982
0.0932336
0.075089
0.0549804
0.0333926
0.0108361
-0.0121866
-0.0352107
-0.057833
-0.0797251
-0.100636
-0.120383
-0.138842
-0.155931
-0.171599
-0.185815
-0.198567
-0.209849
-0.219662
-0.22801
-0.234896
-0.240326
-0.244302
-0.246829
-0.247906
-0.247541
-0.245734
-0.242502
-0.237848
-0.23181
-0.224394
-0.215673
-0.205659
-0.194476
-0.182127
-0.168815
-0.154508
-0.139524
-0.123734
-0.107651
-0.09092
-0.0744037
-0.0572773
-0.0410678
-0.023992
-0.00890284
0.143517
0.140388
0.133794
0.12373
0.11048
0.0944063
0.0759057
0.0554303
0.0334857
0.010602
-0.0127024
-0.035953
-0.0587438
-0.0807503
-0.10173
-0.121511
-0.139978
-0.157059
-0.172707
-0.186899
-0.199623
-0.210878
-0.220666
-0.228993
-0.23586
-0.241276
-0.245241
-0.24776
-0.248832
-0.248464
-0.246654
-0.24342
-0.238762
-0.232718
-0.225292
-0.216557
-0.206522
-0.195313
-0.182929
-0.169576
-0.155217
-0.140178
-0.12432
-0.10817
-0.0913573
-0.0747695
-0.0575491
-0.0412747
-0.024094
-0.00896398
0.147987
0.144718
0.137829
0.127321
0.113501
0.0967618
0.0775337
0.0563095
0.0336375
0.0100887
-0.0137857
-0.0374909
-0.0606161
-0.0828461
-0.103957
-0.123799
-0.142278
-0.159337
-0.174943
-0.189082
-0.20175
-0.21295
-0.222688
-0.23097
-0.237801
-0.243187
-0.24713
-0.249634
-0.250695
-0.250322
-0.248508
-0.24527
-0.240605
-0.23455
-0.227105
-0.218342
-0.208267
-0.197004
-0.184552
-0.171115
-0.156655
-0.141501
-0.125511
-0.10922
-0.0922491
-0.0755041
-0.0581113
-0.0416789
-0.0243233
-0.00905535
0.154819
0.151332
0.143987
0.132792
0.118089
0.100317
0.0799592
0.057573
0.0337751
0.00920184
-0.0155428
-0.0399329
-0.063552
-0.0861028
-0.107393
-0.12731
-0.145792
-0.162807
-0.178342
-0.192395
-0.204974
-0.216088
-0.225747
-0.233961
-0.240736
-0.246079
-0.249989
-0.252471
-0.253519
-0.253138
-0.25132
-0.248078
-0.243406
-0.237336
-0.229865
-0.221062
-0.210927
-0.199585
-0.187029
-0.173467
-0.158853
-0.143526
-0.127334
-0.110828
-0.0936171
-0.0766308
-0.0589751
-0.0422981
-0.0246788
-0.00918987
0.164169
0.16038
0.1524
0.140249
0.124315
0.105097
0.0831591
0.0591475
0.0337795
0.00778772
-0.0181466
-0.0434539
-0.0677145
-0.0906628
-0.112159
-0.132144
-0.150603
-0.167538
-0.18296
-0.196886
-0.209336
-0.220329
-0.22988
-0.238001
-0.2447
-0.249984
-0.253852
-0.256307
-0.257339
-0.256952
-0.255132
-0.25189
-0.247211
-0.241125
-0.233623
-0.224769
-0.214558
-0.203113
-0.190419
-0.176689
-0.161868
-0.146306
-0.12984
-0.11304
-0.0955004
-0.0781831
-0.0601665
-0.0431521
-0.0251699
-0.00937522
0.176258
0.17207
0.163254
0.14984
0.132273
0.111137
0.0870946
0.0609198
0.0334705
0.00561597
-0.0218533
-0.0483098
-0.073338
-0.0967278
-0.11842
-0.138436
-0.156822
-0.173621
-0.188875
-0.202622
-0.214898
-0.22573
-0.235139
-0.24314
-0.249743
-0.254953
-0.25877
-0.261193
-0.262211
-0.261822
-0.260006
-0.256769
-0.252089
-0.245991
-0.238455
-0.229545
-0.219242
-0.207671
-0.194805
-0.180863
-0.16578
-0.149917
-0.133099
-0.115922
-0.0979568
-0.0802096
-0.0617239
-0.0442689
-0.025813
-0.00961847
0.191373
0.186674
0.176792
0.161759
0.142092
0.118475
0.0917034
0.0627222
0.0325847
0.00235301
-0.0270289
-0.05486
-0.0807456
-0.10457
-0.1264
-0.146367
-0.164596
-0.18118
-0.196192
-0.209696
-0.221741
-0.232366
-0.241596
-0.249449
-0.255932
-0.261055
-0.264813
-0.267204
-0.268211
-0.267828
-0.266027
-0.262808
-0.258138
-0.252035
-0.24447
-0.2355
-0.225094
-0.213375
-0.200305
-0.186106
-0.170702
-0.154468
-0.137214
-0.119564
-0.101067
-0.0827794
-0.0637019
-0.0456887
-0.0266316
-0.00992873
0.209881
0.204543
0.193326
0.176257
0.153932
0.127155
0.0968876
0.0643071
0.0307382
-0.00248167
-0.0341916
-0.0636011
-0.0903714
-0.114547
-0.136384
-0.156168
-0.174116
-0.190374
-0.205049
-0.218228
-0.229977
-0.240343
-0.249352
-0.257024
-0.263366
-0.268388
-0.272081
-0.274441
-0.275446
-0.275084
-0.273315
-0.270132
-0.265489
-0.259397
-0.251813
-0.242786
-0.23227
-0.220385
-0.207077
-0.192575
-0.176786
-0.160105
-0.14232
-0.124093
-0.104943
-0.0859869
-0.0661763
-0.047467
-0.0276593
-0.0103178
0.232244
0.226114
0.213252
0.193649
0.167997
0.137221
0.102496
0.0653116
0.0273704
-0.0095848
-0.0440791
-0.0752197
-0.102794
-0.127118
-0.148734
-0.16813
-0.185623
-0.201408
-0.215623
-0.22838
-0.239756
-0.249802
-0.258543
-0.265998
-0.272176
-0.277082
-0.280706
-0.283041
-0.284057
-0.283736
-0.282027
-0.278906
-0.274316
-0.26826
-0.260676
-0.251602
-0.240974
-0.228908
-0.21533
-0.200477
-0.184234
-0.167019
-0.148598
-0.129673
-0.10973
-0.089958
-0.0692493
-0.0496786
-0.0289426
-0.0108004
0.259027
0.251929
0.237064
0.214333
0.184539
0.14871
0.108293
0.0651993
0.0216603
-0.0199703
-0.0577505
-0.0906753
-0.118788
-0.142871
-0.163899
-0.182611
-0.199417
-0.214539
-0.228143
-0.240359
-0.251272
-0.260928
-0.269346
-0.276545
-0.282529
-0.287304
-0.290856
-0.293174
-0.294219
-0.293971
-0.292355
-0.28933
-0.28483
-0.278845
-0.27129
-0.26219
-0.251456
-0.239197
-0.22532
-0.210064
-0.193294
-0.17545
-0.156273
-0.136512
-0.115617
-0.0948527
-0.0730531
-0.0524202
-0.0305437
-0.011393
0.290918
0.282651
0.265378
0.23881
0.203882
0.161639
0.113906
0.0631513
0.0123805
-0.0351161
-0.0767144
-0.111301
-0.139396
-0.16257
-0.182444
-0.200055
-0.21586
-0.230078
-0.242884
-0.25442
-0.264762
-0.273942
-0.28197
-0.288859
-0.294613
-0.299234
-0.302704
-0.30501
-0.306113
-0.305978
-0.304492
-0.301606
-0.297243
-0.291378
-0.283894
-0.274799
-0.263974
-0.251522
-0.237319
-0.22161
-0.204236
-0.18566
-0.165597
-0.144844
-0.122816
-0.100858
-0.0777468
-0.0558087
-0.032541
-0.0121119
0.328741
0.319088
0.298954
0.267716
0.226443
0.175995
0.118743
0.0578564
-0.00240626
-0.057248
-0.10311