/*--------------------------------*- C++ -*----------------------------------*\
  =========                 |
  \\      /  F ield         | OpenFOAM: The Open Source CFD Toolbox
   \\    /   O peration     | Website:  https://openfoam.org
    \\  /    A nd           | Version:  8
     \\/     M anipulation  |
\*---------------------------------------------------------------------------*/
FoamFile
{
    version     2.0;
    format      ascii;
    class       surfaceScalarField;
    location    "44";
    object      phi;
}
// * * * * * * * * * * * * * * * * * * * * * * * * * * * * * * * * * * * * * //

dimensions      [0 3 -1 0 0 0 0];

internalField   nonuniform List<scalar> 
880
(
-1.67209e-05
1.67209e-05
-3.47379e-05
1.8017e-05
-5.21036e-05
1.73657e-05
-6.84404e-05
1.63368e-05
-8.342e-05
1.49796e-05
-9.67244e-05
1.33044e-05
-0.000108124
1.14e-05
-0.000117247
9.12272e-06
-0.00012434
7.09254e-06
-0.000128294
3.95439e-06
-0.000131468
3.17427e-06
6.88134e-07
-0.000132156
-1.86903e-05
3.54112e-05
-3.87597e-05
3.80865e-05
-5.81009e-05
3.67068e-05
-7.6297e-05
3.45329e-05
-9.30002e-05
3.16828e-05
-0.000107893
2.81975e-05
-0.000120743
2.42498e-05
-0.000131205
1.9585e-05
-0.00013954
1.54275e-05
-0.000144922
9.33623e-06
-0.000149556
7.80799e-06
-6.86286e-07
-0.000148181
-1.94357e-05
5.48469e-05
-4.03081e-05
5.89588e-05
-6.04077e-05
5.68065e-05
-7.92789e-05
5.34042e-05
-9.6517e-05
4.89208e-05
-0.000111717
4.33978e-05
-0.000124502
3.70347e-05
-0.000134636
2.9719e-05
-0.000141636
2.24273e-05
-0.000145602
1.33025e-05
-0.000145147
7.35289e-06
-4.27457e-06
-0.000141559
-2.05153e-05
7.53622e-05
-4.25633e-05
8.10068e-05
-6.38156e-05
7.80588e-05
-8.38146e-05
7.34031e-05
-0.000102203
6.73092e-05
-0.000118664
5.98585e-05
-0.000132805
5.11757e-05
-0.000144298
4.12124e-05
-0.000152491
3.06205e-05
-0.000157348
1.81596e-05
-0.000157095
7.09908e-06
-8.17463e-06
-0.000153194
-2.19803e-05
9.73425e-05
-4.56167e-05
0.000104643
-6.83958e-05
0.000100838
-8.97989e-05
9.48062e-05
-0.000109359
8.68692e-05
-0.000126575
7.70748e-05
-0.000141094
6.56941e-05
-0.000152671
5.27894e-05
-0.000160895
3.88445e-05
-0.000165956
2.32212e-05
-0.000166765
7.9076e-06
-1.08254e-05
-0.000164114
-2.38888e-05
0.000121231
-4.96004e-05
0.000130355
-7.441e-05
0.000125647
-9.77818e-05
0.000118178
-0.000119382
0.00010847
-0.000138918
9.66108e-05
-0.000155905
8.26811e-05
-0.000169843
6.67274e-05
-0.000180101
4.91016e-05
-0.000186402
2.95226e-05
-0.000187291
8.79683e-06
-1.40218e-05
-0.000184095
-2.61701e-05
0.000147401
-5.43966e-05
0.000158581
-8.16314e-05
0.000152882
-0.000107263
0.00014381
-0.000130674
0.000131881
-0.000151273
0.00011721
-0.000168889
0.000100297
-0.000183306
8.11441e-05
-0.000194306
6.0102e-05
-0.000201851
3.70674e-05
-0.000205768
1.2714e-05
-1.45733e-05
-0.000205217
-2.91925e-05
0.000176594
-6.06135e-05
0.000190002
-9.09186e-05
0.000183187
-0.000119466
0.000172357
-0.000146246
0.000158661
-0.00017055
0.000141514
-0.000192013
0.00012176
-0.000210044
9.9175e-05
-0.000224174
7.42319e-05
-0.000233802
4.66957e-05
-0.000238036
1.69477e-05
-1.59184e-05
-0.000236691
-3.21541e-05
0.000208748
-6.70948e-05
0.000224943
-0.00010058
0.000216672
-0.000132205
0.000203983
-0.000160893
0.000187348
-0.000186444
0.000167065
-0.000208623
0.000143938
-0.000227212
0.000117765
-0.000242235
8.92551e-05
-0.000253491
5.79514e-05
-0.000261989
2.54462e-05
-1.29721e-05
-0.000264936
-3.71396e-05
0.000245888
-7.68254e-05
0.000264629
-0.000115403
0.00025525
-0.000151089
0.000239669
-0.000184967
0.000221226
-0.00021515
0.000197248
-0.000242547
0.000171335
-0.000266028
0.000141246
-0.000285727
0.000108954
-0.000300529
7.27528e-05
-0.0003108
3.57175e-05
-1.05627e-05
-0.00031321
-3.91041e-05
0.000284992
-8.42189e-05
0.000309744
-0.000125047
0.000296078
-0.00016618
0.000280802
-0.000201496
0.000256542
-0.000234117
0.000229869
-0.000261882
0.0001991
-0.00028546
0.000164824
-0.000305508
0.000129002
-0.000321046
8.82915e-05
-0.00033577
5.04411e-05
-1.74264e-06
-0.00034459
-5.0614e-05
0.000335606
-0.000100167
0.000359297
-0.000151114
0.000347025
-0.00019423
0.000323917
-0.000236881
0.000299194
-0.000273475
0.000266463
-0.00030797
0.000233595
-0.000337553
0.000194407
-0.000364728
0.000156178
-0.000386442
0.000110005
-0.000406578
7.0577e-05
8.26966e-06
-0.00041659
-4.47242e-05
0.00038033
-0.000107034
0.000421606
-0.000157685
0.000397676
-0.000213875
0.000380108
-0.000257453
0.000342771
-0.00029902
0.000308029
-0.000331803
0.000266378
-0.000359919
0.000222523
-0.000384154
0.000180413
-0.000403458
0.000129309
-0.00042443
9.15497e-05
2.41245e-05
-0.000440285
-7.74636e-05
0.000457793
-0.000135587
0.00047973
-0.000202298
0.000464387
-0.000251851
0.00042966
-0.000303149
0.00039407
-0.000346087
0.000350967
-0.000387095
0.000307387
-0.0004226
0.000258028
-0.000457275
0.000215088
-0.000486771
0.000158804
-0.000519812
0.000124591
4.80084e-05
-0.000543696
-3.33026e-05
0.000491096
-0.000134248
0.000580675
-0.000202353
0.000532492
-0.000284726
0.000512034
-0.000339855
0.000449199
-0.00039
0.000401111
-0.00042517
0.000342556
-0.000453912
0.00028677
-0.000477306
0.000238482
-0.000496437
0.000177936
-0.000518637
0.000146791
6.86622e-05
-0.000539291
-0.000156234
0.00064733
-0.000197628
0.000622068
-0.000277323
0.000612187
-0.000329457
0.000564168
-0.000383879
0.000503621
-0.000433847
0.00045108
-0.000477234
0.000385943
-0.000517098
0.000326635
-0.000555178
0.000276562
-0.000590242
0.000213
-0.00063361
0.000190159
0.00010908
-0.000674028
3.77885e-05
0.000609542
-0.00016792
0.000827776
-0.000287931
0.000732199
-0.00040793
0.000684166
-0.000478771
0.000574463
-0.00052658
0.000498889
-0.000555752
0.000415115
-0.000572739
0.000343621
-0.000584719
0.000288542
-0.000592747
0.000221028
-0.000601877
0.000199289
0.000120784
-0.00061358
-7.87217e-05
0.000688264
-0.00012839
0.000877444
-0.000236491
0.0008403
-0.000380723
0.000828398
-0.000447707
0.000641446
-0.000529372
0.000580554
-0.000575561
0.000461305
-0.000617503
0.000385562
-0.000649563
0.000320603
-0.000679344
0.000250809
-0.000717244
0.000237189
0.000164496
-0.000760957
-0.00124696
0.00193523
-0.00129522
0.000925699
-0.00138341
0.000928493
-0.00123238
0.000677363
-0.00113653
0.000545599
-0.000982708
0.000426733
-0.000867353
0.000345949
-0.000752224
0.000270434
-0.000657528
0.000225906
-0.000579155
0.000172436
-0.000496989
0.000155023
0.00011066
-0.000443153
0.00193523
0.00286093
0.00378942
0.00446678
0.00501238
0.00543911
0.00578506
0.0060555
0.0062814
0.00645384
0.00660886
0.00671952
-0.000105475
4.28361e-05
-6.95177e-05
-8.23545e-05
1.83646e-05
-4.14849e-05
-6.79109e-05
-3.15552e-06
-1.12881e-05
-5.40081e-05
-1.95897e-05
5.6869e-06
-4.08459e-05
-3.26509e-05
1.94887e-05
-2.70913e-05
-4.22446e-05
2.849e-05
-1.31185e-05
-4.84717e-05
3.44989e-05
-4.72447e-05
3.41262e-05
-0.000117326
1.19811e-05
-9.2477e-05
-6.4849e-06
-7.6411e-05
-1.92215e-05
-6.08948e-05
-3.51059e-05
-4.62496e-05
-4.7296e-05
-3.07935e-05
-5.77007e-05
-1.49398e-05
-6.43254e-05
-6.21845e-05
-0.000126441
-3.13631e-06
-0.000111227
-2.16989e-05
-9.4953e-05
-3.54959e-05
-7.77117e-05
-5.23473e-05
-5.93158e-05
-6.56919e-05
-3.96897e-05
-7.73268e-05
-1.92812e-05
-8.4734e-05
-8.14657e-05
-0.000138619
-1.77115e-05
-0.000123607
-3.67109e-05
-0.000106521
-5.25818e-05
-8.79846e-05
-7.08841e-05
-6.77125e-05
-8.59639e-05
-4.55635e-05
-9.94758e-05
-2.22424e-05
-0.000108055
-0.000103708
-0.00015489
-2.69357e-05
-0.000142367
-4.92335e-05
-0.000125848
-6.91011e-05
-0.000105563
-9.11692e-05
-8.24502e-05
-0.000109077
-5.57459e-05
-0.00012618
-2.74594e-05
-0.000136342
-0.000131167
-0.00017471
-3.63199e-05
-0.000161708
-6.22359e-05
-0.000144255
-8.65538e-05
-0.000121989
-0.000113436
-9.62338e-05
-0.000134832
-6.54349e-05
-0.000156979
-3.25247e-05
-0.000169252
-0.000163692
-0.00019939
-4.2147e-05
-0.00018698
-7.46452e-05
-0.000170505
-0.000103029
-0.000145484
-0.000138458
-0.00011722
-0.000163096
-7.9856e-05
-0.000194343
-4.06152e-05
-0.000208493
-0.000204307
-0.000230778
-4.806e-05
-0.000218014
-8.74086e-05
-0.000200643
-0.0001204
-0.000173126
-0.000165975
-0.000141135
-0.000195086
-9.70946e-05
-0.000238383
-5.00644e-05
-0.000255523
-0.000254372
-0.000264254
-4.87414e-05
-0.000252665
-9.89976e-05
-0.000238583
-0.000134482
-0.000208178
-0.00019638
-0.000175218
-0.000228046
-0.000121321
-0.00029228
-6.53488e-05
-0.000311495
-0.000319721
-0.000313178
-4.87733e-05
-0.000302763
-0.000109412
-0.000288914
-0.000148331
-0.000256647
-0.000228648
-0.000219404
-0.000265289
-0.000154938
-0.000356746
-8.566e-05
-0.000380773
-0.000405381
-0.000353326
-4.00369e-05
-0.000346493
-0.000116245
-0.000342073
-0.000152752
-0.000310069
-0.000260652
-0.000279035
-0.000296323
-0.000201472
-0.000434309
-0.000121716
-0.000460528
-0.000527097
-0.000428444
-2.8183e-05
-0.00042706
-0.000117629
-0.000427355
-0.000152456
-0.000398143
-0.000289864
-0.000366212
-0.000328254
-0.000275325
-0.000525196
-0.000175128
-0.000560725
-0.000702225
-0.000464175
-4.29312e-06
-0.000471117
-0.000110687
-0.000492406
-0.000131167
-0.000476675
-0.000305596
-0.000475037
-0.000329892
-0.00038043
-0.000619804
-0.000283914
-0.00065724
-0.000986139
-0.000577359
2.93697e-05
-0.000597936
-9.01092e-05
-0.000635681
-9.34227e-05
-0.000637903
-0.000303374
-0.000654714
-0.000313081
-0.000565071
-0.000709447
-0.000463931
-0.000758381
-0.00145007
-0.000575485
6.55634e-05
-0.000607065
-5.85295e-05
-0.000677093
-2.33947e-05
-0.000725261
-0.000255205
-0.00083839
-0.000199952
-0.000827334
-0.000720503
-0.000847822
-0.000737893
-0.00229789
-0.000737561
0.000129096
-0.000796431
3.40629e-07
-0.000902579
8.27527e-05
-0.00100097
-0.000156815
-0.00117614
-2.47809e-05
-0.00124947
-0.000647177
-0.00130113
-0.000686226
-0.00359902
-0.000636881
0.000152398
-0.000678848
4.23078e-05
-0.000770617
0.000174521
-0.000925222
-2.2098e-06
-0.00122028
0.000270277
-0.0014821
-0.000385356
-0.0013892
-0.000779132
-0.00498822
-0.000830638
0.000222079
-0.000927496
0.000139166
-0.00106579
0.000312816
-0.00127203
0.000204034
-0.00139824
0.000396482
-0.0015261
-0.000257499
-0.000673105
-0.00163212
-0.00566132
-0.000336203
0.000115129
-0.000284947
8.79094e-05
-5.37566e-05
8.16259e-05
6.19873e-05
8.82896e-05
0.000573376
-0.000114907
0.000796486
-0.000480608
0.00109454
-0.00193018
-0.00456679
0.00683465
0.00692256
0.00700419
0.00709248
0.00697757
0.00649696
0.00456679
-1.72379e-06
1.72379e-06
-3.27026e-06
1.54646e-06
-4.20677e-06
9.36513e-07
-4.46186e-06
2.55092e-07
-4.00692e-06
-4.5494e-07
-2.9712e-06
-1.03573e-06
-1.51381e-06
-1.45738e-06
-1.51381e-06
-2.01121e-06
3.73501e-06
-3.79001e-06
3.32526e-06
-4.83823e-06
1.98473e-06
-5.06284e-06
4.79699e-07
-4.51309e-06
-1.00469e-06
-3.33614e-06
-2.21267e-06
-1.69789e-06
-3.09564e-06
-3.2117e-06
-3.05105e-06
6.78605e-06
-5.62491e-06
5.89912e-06
-7.03983e-06
3.39965e-06
-7.3489e-06
7.88776e-07
-6.49405e-06
-1.85955e-06
-4.76013e-06
-3.94659e-06
-2.41294e-06
-5.44283e-06
-5.62464e-06
-3.64717e-06
1.04332e-05
-6.64262e-06
8.89457e-06
-8.17969e-06
4.93672e-06
-8.29193e-06
9.01007e-07
-7.22129e-06
-2.93018e-06
-5.25775e-06
-5.91013e-06
-2.65174e-06
-8.04884e-06
-8.27638e-06
-6.99032e-06
1.74235e-05
-1.20811e-05
1.39854e-05
-1.41839e-05
7.03952e-06
-1.41545e-05
8.71596e-07
-1.20561e-05
-5.02861e-06
-8.62402e-06
-9.34219e-06
-4.31439e-06
-1.23585e-05
-1.25908e-05
-8.53176e-06
2.59553e-05
-1.45237e-05
1.99773e-05
-1.67576e-05
9.27337e-06
-1.62278e-05
3.41787e-07
-1.36671e-05
-7.58929e-06
-9.73761e-06
-1.32717e-05
-4.85227e-06
-1.72438e-05
-1.7443e-05
-1.93785e-05
4.53338e-05
-2.97644e-05
3.03633e-05
-3.10056e-05
1.05145e-05
-2.85235e-05
-2.14029e-06
-2.30207e-05
-1.30921e-05
-1.58974e-05
-2.0395e-05
-7.82054e-06
-2.53206e-05
-2.52636e-05
-2.41839e-05
-3.53055e-05
-3.60791e-05
-3.25325e-05
-2.61359e-05
-1.80409e-05
-8.86259e-06
)
;

boundaryField
{
    movingWall
    {
        type            calculated;
        value           uniform 0;
    }
    fixedWalls
    {
        type            calculated;
        value           uniform 0;
    }
    frontAndBack
    {
        type            empty;
        value           nonuniform List<scalar> 0();
    }
}


// ************************************************************************* //
