/*--------------------------------*- C++ -*----------------------------------*\
  =========                 |
  \\      /  F ield         | OpenFOAM: The Open Source CFD Toolbox
   \\    /   O peration     | Website:  https://openfoam.org
    \\  /    A nd           | Version:  8
     \\/     M anipulation  |
\*---------------------------------------------------------------------------*/
FoamFile
{
    version     2.0;
    format      ascii;
    class       volScalarField;
    location    "0.75";
    object      T;
}
// * * * * * * * * * * * * * * * * * * * * * * * * * * * * * * * * * * * * * //

dimensions      [0 0 0 1 0 0 0];

internalField   nonuniform List<scalar> 
10000
(
50
4.64934
-4.64928
-1.17654
1.17627
0.445948
-0.445166
-0.213845
0.212094
0.120773
-0.117465
-0.0776611
0.0720971
0.0557985
-0.0472176
-0.0440571
0.0317161
0.0374322
-0.0207205
-0.0333386
0.0119291
0.0302461
-0.00427176
-0.0271454
-0.0026251
0.0233481
0.00868384
-0.0184547
-0.0135125
0.0123789
0.0165586
-0.00542548
-0.0172525
-0.00172764
0.0152744
0.00802068
-0.0106884
-0.0123175
0.00425976
0.0135381
0.00275229
-0.01133
-0.00848259
0.00603615
0.011364
0.000708718
-0.0102531
-0.00680456
0.0055687
0.00986511
0.00102327
-0.00865498
-0.0067206
0.00366639
0.00884096
0.00280473
-0.00641545
-0.00726194
0.000590309
0.00739655
0.00504778
-0.00295745
-0.00719353
-0.00297251
0.00432615
0.00640107
0.00139555
-0.00491052
-0.00551556
-0.000330525
0.00491101
0.00482492
-0.000248517
-0.00464097
-0.00425849
0.00026082
0.00432983
0.00384553
-1.01495e-05
-0.00369258
-0.00383377
-0.000284346
0.00291101
0.00361147
0.00115567
-0.00239194
-0.00313258
-0.00177521
0.00105527
0.00317723
0.00186267
6.09901e-05
-0.00193882
-0.00280759
-0.000438165
0.000860543
0.00181039
0.00220737
-0.000521888
-0.00117773
95.3507
50
10.4751
-4.64909
-2.79869
1.17561
1.10487
-0.443588
-0.546612
0.209015
0.315806
-0.11219
-0.205492
0.0638641
0.147064
-0.0352754
-0.113281
0.0154345
0.0916806
0.000261707
-0.0758384
-0.0136696
0.0621294
0.0252366
-0.0484585
-0.0345744
0.0337816
0.0408062
-0.0179711
-0.0428695
0.00176376
0.0399016
0.0132917
-0.0316144
-0.0251264
0.0187564
0.0315248
-0.00322603
-0.0309515
-0.0118402
0.0230806
0.0229104
-0.0096982
-0.0267086
-0.00568481
0.021974
0.0180722
-0.00993838
-0.023127
-0.00498737
0.0186695
0.016823
-0.00646603
-0.0203165
-0.00785382
0.013637
0.0172503
-0.000353223
-0.0165293
-0.0122125
0.00627847
0.0163918
0.00718907
-0.00975761
-0.0147147
-0.00313933
0.0112338
0.0126748
0.00036159
-0.0114402
-0.0107824
0.00101679
0.0111058
0.0092497
-0.00133489
-0.0102293
-0.00857451
0.00123426
0.00881549
0.00831395
-0.0001537
-0.00780873
-0.00756718
-0.00165703
0.00614122
0.00771851
0.00238116
-0.00323554
-0.00730996
-0.0043192
0.00206678
0.00464498
0.00575212
0.00103895
-0.00435571
-0.0037605
-0.00372178
0.000695951
0.00511137
0.00214871
104.649
89.5249
49.9999
12.0972
-4.6487
-3.45757
1.17442
1.43761
-0.441008
-0.741665
0.204349
0.44375
-0.10466
-0.297011
0.0526845
0.216732
-0.0197599
-0.168204
-0.00485883
0.135105
0.0253532
-0.108879
-0.0429707
0.0847642
0.0573929
-0.0602468
-0.0673969
0.0344917
0.0713659
-0.00815581
-0.0678137
-0.0167813
0.0560353
0.0372969
-0.0366782
-0.0500238
0.0122819
0.0521048
0.0128502
-0.0425478
-0.0330741
0.0229808
0.0431321
0.00158494
-0.0396428
-0.024006
0.0234612
0.036537
0.000126372
-0.0344325
-0.022002
0.0182574
0.0328597
0.00502279
-0.0276754
-0.0241274
0.00879788
0.0293095
0.0134081
-0.0175434
-0.0261741
-0.00391758
0.0216215
0.0211994
-0.00305276
-0.0224444
-0.0162777
0.00727651
0.0216305
0.0122437
-0.00913585
-0.0201447
-0.00970941
0.00962613
0.0181439
0.00883231
-0.00900403
-0.0164972
-0.00836863
0.00664304
0.015455
0.00860857
-0.00434774
-0.0127337
-0.0105622
0.00215941
0.010202
0.0101442
0.00287166
-0.00857657
-0.00942003
-0.00467405
0.00216885
0.0102738
0.00594748
0.000138833
-0.00363899
-0.00955808
-0.00284656
0.00268774
101.177
104.649
87.9028
49.9999
12.7561
-4.64803
-3.79032
1.17255
1.63274
-0.437226
-0.869815
0.197852
0.535676
-0.0946142
-0.367362
0.0383242
0.272677
-0.000527035
-0.213027
-0.0291369
0.169906
0.0542656
-0.13355
-0.075341
0.0986844
0.0911706
-0.0629106
-0.0996949
0.026101
0.098724
0.00985587
-0.0867277
-0.0414318
0.0637488
0.0640894
-0.032085
-0.0735162
-0.00327412
0.0670054
0.0352927
-0.0452477
-0.0560961
0.0130108
0.0597402
0.0207241
-0.0444349
-0.0453622
0.014966
0.0518514
0.0181521
-0.0374347
-0.0414518
0.00791906
0.04449
0.0232666
-0.0257897
-0.0403748
-0.00518876
0.0344181
0.0308569
-0.008752
-0.0359976
-0.0204283
0.017563
0.0336326
0.0115281
-0.0218928
-0.0298638
-0.00519959
0.0232412
0.0259387
0.00183644
-0.022987
-0.0226758
-0.000610305
0.0210891
0.0211281
0.000482315
-0.0180785
-0.0199554
-0.00284115
0.0158911
0.0178032
0.00629048
-0.0116216
-0.0178706
-0.00732684
0.00520069
0.015841
0.0115317
-0.0028335
-0.00948603
-0.013391
-0.00449558
0.0086973
0.00844759
0.00914444
0.000427142
-0.0110374
-0.00544123
98.8237
102.799
104.649
87.2439
49.9998
13.0889
-4.64701
-3.98553
1.16986
1.76111
-0.432049
-0.962202
0.189294
0.606823
-0.0818184
-0.424532
0.020595
0.319219
0.022496
-0.250056
-0.0572729
0.197238
0.0865853
-0.150377
-0.110011
0.104177
0.125427
-0.0568327
-0.130023
0.00938238
0.121322
0.0346817
-0.0982577
-0.0701205
0.0623071
0.0910628
-0.0181323
-0.0928737
-0.0263224
0.0740295
0.0612932
-0.0381359
-0.077414
-0.00590152
0.0695481
0.044894
-0.0393849
-0.0657499
-0.0028087
0.0602624
0.0409603
-0.0303174
-0.0588039
-0.0110796
0.0478832
0.0442093
-0.013683
-0.0516746
-0.0255728
0.0296227
0.0468562
0.00874192
-0.0373177
-0.0384918
0.00374297
0.0392434
0.0299257
-0.0113727
-0.0381437
-0.0228395
0.0149109
0.0355967
0.0184248
-0.0160178
-0.0320868
-0.016737
0.014894
0.0293073
0.0156575
-0.0107178
-0.0273096
-0.0161005
0.00690574
0.0221968
0.0194005
-0.00294219
-0.0178102
-0.0181957
-0.0059849
0.0146855
0.0169404
0.00872139
-0.00309315
-0.0180883
-0.0110867
-0.000630958
0.00595222
0.0170524
0.00570938
-0.00451823
99.5541
98.8242
103.458
104.648
86.9111
49.9997
13.2841
-4.64558
-4.11409
1.16623
1.85393
-0.425291
-1.03414
0.17846
0.665276
-0.0660672
-0.472954
-0.000642305
0.358778
0.0493079
-0.280533
-0.0890397
0.21766
0.121779
-0.159587
-0.146095
0.101448
0.15894
-0.0424811
-0.156943
-0.0146899
0.137753
0.0646963
-0.101391
-0.100603
0.0515069
0.115632
0.00423128
-0.105708
-0.0546631
0.0716989
0.0877042
-0.0213103
-0.0937126
-0.0317663
0.0701832
0.0705669
-0.0241413
-0.0812246
-0.0277
0.0590337
0.0644594
-0.0130242
-0.0697323
-0.0357293
0.0407259
0.0630081
0.00740374
-0.0539657
-0.0478988
0.0142617
0.0562775
0.0314321
-0.027836
-0.0524779
-0.0174774
0.034483
0.0464589
0.00766992
-0.0365587
-0.0402319
-0.00247518
0.0360856
0.0351785
0.000529793
-0.033032
-0.0328127
-0.000377341
0.0283847
0.0309429
0.00416489
-0.0250182
-0.0276581
-0.00952556
0.0182922
0.0278956
0.0111813
-0.00832138
-0.0247271
-0.0178891
0.00465512
0.0148851
0.0208243
0.00688669
-0.01373
-0.013183
-0.0141999
-0.000541755
0.0173001
0.00847038
100.445
98.8952
98.8253
103.79
104.648
86.7158
49.9996
13.4128
-4.64366
-4.20724
1.16153
1.92656
-0.416776
-1.09381
0.165153
0.715575
-0.0471866
-0.515162
-0.0254759
0.392699
0.0798324
-0.305081
-0.124113
0.231389
0.159206
-0.161273
-0.182609
0.0907233
0.190446
-0.020469
-0.179082
-0.0449231
0.146832
0.0980643
-0.0955193
-0.130547
0.0317016
0.135369
0.0334541
-0.110128
-0.085635
0.059364
0.111297
0.00412488
-0.102159
-0.0617347
0.0603391
0.0939079
0.000254698
-0.0883933
-0.0563745
0.0468449
0.084225
0.0127337
-0.0708368
-0.0617482
0.0226428
0.0749199
0.0342139
-0.0449036
-0.0668638
-0.00988299
0.0552323
0.0540835
-0.00787552
-0.0573425
-0.0413994
0.0185745
0.0552471
0.0311152
-0.0233888
-0.0512981
-0.0247774
0.0247181
0.0461676
0.0224586
-0.0229621
-0.0421553
-0.021137
0.016896
0.0394181
0.0219558
-0.0112652
-0.032336
-0.026975
0.00553789
0.026137
0.0257081
0.00741018
-0.0219187
-0.0241181
-0.0117799
0.00541884
0.0262715
0.0152663
0.000264005
-0.00920206
-0.0244642
-0.00737298
0.006872
100.214
100.444
98.5624
98.827
103.986
104.646
86.5872
49.9995
13.5061
-4.64119
-4.28039
1.15563
1.98725
-0.406335
-1.14583
0.149193
0.760363
-0.0250347
-0.552612
-0.0539419
0.421692
0.113919
-0.323952
-0.162075
0.238461
0.198128
-0.155485
-0.218503
0.0723153
0.21868
0.00841322
-0.195187
-0.0799136
0.147654
0.132796
-0.0804755
-0.157636
0.00379371
0.148144
0.0674685
-0.104865
-0.116304
0.0372567
0.129022
0.0361544
-0.100668
-0.0923803
0.0399228
0.111196
0.031489
-0.0848547
-0.0847387
0.0239799
0.0961512
0.0436952
-0.0602012
-0.0842605
-0.00471214
0.0762105
0.0619709
-0.0242971
-0.0774684
-0.0387944
0.0419272
0.0708743
0.019647
-0.0500473
-0.0618713
-0.00638144
0.0520276
0.0530795
-0.000457887
-0.0508813
-0.0460539
0.00267026
0.0466169
0.0428742
-0.0025516
-0.0401715
-0.0408163
-0.0027132
0.0355713
0.0367835
0.0105274
-0.0268524
-0.0374369
-0.0132794
0.0132292
0.0341047
0.0226266
-0.00808546
-0.0210824
-0.0278263
-0.00736232
0.0197291
0.0178888
0.0185355
-0.00111237
-0.0239525
-0.0109356
99.7878
100.547
100.441
98.3672
98.8294
104.114
104.645
86.4938
49.9993
13.5796
-4.6381
-4.34183
1.1484
2.04071
-0.393808
-1.19295
0.130418
0.801204
0.000497402
-0.586116
-0.0860246
0.446078
0.151346
-0.337181
-0.202425
0.238825
0.237728
-0.142307
-0.252683
0.0466624
0.242419
0.0431876
-0.204174
-0.118073
0.139636
0.166813
-0.0565575
-0.179674
-0.0308016
0.152237
0.103811
-0.0893605
-0.143665
0.00648017
0.138261
0.0720212
-0.0881093
-0.120022
0.0100715
0.119248
0.0662111
-0.0695026
-0.108458
-0.00767588
0.0970555
0.0754627
-0.0376885
-0.0986383
-0.0377837
0.0647646
0.0852775
0.00571974
-0.0760382
-0.0668687
0.0169941
0.0768831
0.0495215
-0.0301971
-0.0728301
-0.0358319
0.0356063
0.0670637
0.0275433
-0.0366053
-0.060146
-0.0249185
0.0340703
0.054798
0.0238656
-0.0259878
-0.0517147
-0.0252866
0.0181617
0.0432648
0.0326208
-0.0107821
-0.0353503
-0.0323181
-0.00637868
0.0307398
0.0306628
0.0133654
-0.00975775
-0.0349369
-0.0179805
0.00136564
0.0137891
0.0317347
0.00726011
-0.0100015
99.8793
99.7907
100.742
100.438
98.2387
98.8328
104.207
104.642
86.4203
49.9992
13.6414
-4.63433
-4.39631
1.13973
2.08974
-0.379044
-1.23682
0.108686
0.839021
0.0294858
-0.61609
-0.121656
0.465937
0.191819
-0.344676
-0.244581
0.232407
0.277125
-0.121893
-0.284039
0.0143519
0.260519
0.0826911
-0.20517
-0.157663
0.122559
0.198026
-0.0245256
-0.19469
-0.0702187
0.146446
0.139763
-0.0638131
-0.16485
-0.0310643
0.137043
0.108443
-0.0644177
-0.14108
-0.0269296
0.115772
0.100381
-0.0426785
-0.123529
-0.0447815
0.0850898
0.103174
-0.00511055
-0.101185
-0.0716454
0.0405056
0.0991387
0.0408146
-0.0608109
-0.0881604
-0.0163321
0.0691328
0.0752069
-9.85105e-05
-0.0700642
-0.0634035
0.00813598
0.0676735
0.0543111
-0.0101348
-0.0619751
-0.0505315
0.00940592
0.0536289
0.0488573
-0.00242064
-0.0479427
-0.0445853
-0.00847598
0.037756
0.0462175
0.012832
-0.0204147
-0.0439724
-0.0251684
0.0137294
0.0282214
0.0341687
0.005333
-0.0270514
-0.0224976
-0.0219123
0.00505296
0.0311775
0.0126971
100.118
99.6842
99.7952
100.87
100.433
98.1458
98.8372
104.281
104.64
86.3585
49.999
13.6965
-4.62982
-4.44672
1.1295
2.1361
-0.361901
-1.27849
0.0838705
0.874329
0.0619722
-0.642691
-0.160716
0.481196
0.234978
-0.346287
-0.28789
0.219157
0.315385
-0.0944991
-0.311474
-0.0238668
0.271951
0.125589
-0.197557
-0.196846
0.0965824
0.224415
0.0144141
-0.201035
-0.112226
0.130166
0.172509
-0.0291823
-0.177337
-0.0727935
0.12422
0.141875
-0.0306327
-0.152435
-0.0678188
0.0996164
0.129742
-0.00624797
-0.126728
-0.0829677
0.0601017
0.122154
0.0339121
-0.0896867
-0.100843
0.00568653
0.0997028
0.0752304
-0.0324471
-0.0975742
-0.0525379
0.0471354
0.0903862
0.0354016
-0.0523269
-0.0821311
-0.0254466
0.0524211
0.0732361
0.0229298
-0.048775
-0.0667171
-0.0226397
0.0384833
0.0638244
0.0251261
-0.0282709
-0.0546922
-0.0355937
0.019377
0.045461
0.0374033
0.00225567
-0.0414077
-0.0362157
-0.0129055
0.0164947
0.0440545
0.0187771
-0.0046255
-0.0199303
-0.0387404
-0.0049576
0.0140748
100.078
100.113
99.5561
99.8014
100.962
100.426
98.0731
98.8428
104.342
104.636
86.3034
49.9988
13.7476
-4.6245
-4.49486
1.1176
2.1809
-0.342245
-1.31855
0.0558683
0.907387
0.097962
-0.66591
-0.203029
0.491693
0.280394
-0.341842
-0.331635
0.199082
0.351545
-0.0605082
-0.333931
-0.0670786
0.275838
0.170395
-0.181001
-0.233735
0.0622615
0.244109
0.0586476
-0.197476
-0.154329
0.103442
0.199302
0.0128481
-0.179138
-0.115607
0.0995793
0.168824
0.0111239
-0.151712
-0.108685
0.0709938
0.150244
0.0365702
-0.116067
-0.117364
0.0238104
0.128506
0.0744768
-0.063957
-0.120144
-0.0353629
0.0849897
0.102796
0.00579309
-0.0918052
-0.0848143
0.0131694
0.090459
0.069603
-0.0217247
-0.0860954
-0.0585096
0.0229194
0.0787011
0.0544993
-0.0211413
-0.0684871
-0.0538926
0.0121314
0.062025
0.0501042
0.00244948
-0.0510781
-0.0534928
-0.00898443
0.0301968
0.0538615
0.0246959
-0.0220056
-0.0361766
-0.0392489
-0.000167721
0.0357174
0.0267145
0.0238417
-0.0117245
-0.0387614
-0.0134657
99.9277
100.206
100.105
99.464
99.8098
101.035
100.418
98.0122
98.8497
104.397
104.632
86.2522
49.9986
13.7967
-4.61832
-4.54189
1.10392
2.22485
-0.319951
-1.35738
0.0245958
0.938276
0.137424
-0.685628
-0.248368
0.497214
0.327577
-0.331183
-0.375046
0.172268
0.38463
-0.0204388
-0.350422
-0.114209
0.271494
0.215511
-0.15548
-0.266462
0.0205408
0.255475
0.106212
-0.183271
-0.193896
0.0669858
0.217653
0.0599454
-0.168956
-0.156122
0.0639295
0.186121
0.0578214
-0.137573
-0.145309
0.0315228
0.158502
0.0815349
-0.091159
-0.143135
-0.0203731
0.119773
0.110989
-0.0259944
-0.125388
-0.0768124
0.0553844
0.118011
0.0484013
-0.0700647
-0.10634
-0.0279858
0.0738133
0.0950081
0.0167803
-0.0721952
-0.0840631
-0.0149672
0.0671523
0.0765756
0.016163
-0.054638
-0.0745725
-0.0201996
0.0418732
0.0658556
0.0345656
-0.0317679
-0.0559019
-0.0399648
0.00580412
0.0535937
0.0399012
0.00968337
-0.0259523
-0.0528861
-0.0168467
0.00981231
0.0276518
0.0446438
-0.000175953
-0.0190347
99.9442
99.9358
100.297
100.095
99.3927
99.8203
101.094
100.408
97.9586
98.8581
104.447
104.627
86.203
49.9984
13.8449
-4.6112
-4.5886
1.08835
2.2684
-0.294908
-1.39516
-0.0100086
0.966962
0.180291
-0.701658
-0.296455
0.497528
0.37598
-0.314193
-0.417315
0.138899
0.413678
0.0250484
-0.360064
-0.164041
0.25845
0.259263
-0.121303
-0.293248
-0.0272688
0.257204
0.154872
-0.158227
-0.228305
0.0221753
0.22548
0.109279
-0.146325
-0.190907
0.0190595
0.191232
0.105743
-0.109906
-0.173572
-0.0158897
0.152255
0.123776
-0.0533184
-0.156159
-0.0676368
0.0953201
0.137996
0.0201048
-0.114168
-0.112213
0.0137374
0.11717
0.0882669
-0.0341512
-0.111968
-0.0695071
0.042252
0.104816
0.0566219
-0.0417592
-0.0956781
-0.0527711
0.038361
0.0837809
0.0541947
-0.0273062
-0.0768669
-0.0519152
0.00856028
0.0663706
0.0577343
0.000865941
-0.0426235
-0.0626431
-0.0199128
0.0329761
0.0444231
0.041887
-0.00894452
-0.0451754
-0.0298713
-0.0233955
0.0215694
0.0458163
0.0126404
100.047
99.8528
99.9467
100.368
100.083
99.334
99.8334
101.147
100.396
97.9093
98.8679
104.496
104.621
86.1548
49.9981
13.8931
-4.60309
-4.63551
1.0708
2.31184
-0.267013
-1.43196
-0.0479836
0.993331
0.226458
-0.713771
-0.346962
0.492407
0.425009
-0.29081
-0.45761
0.0992677
0.437763
0.0751544
-0.362106
-0.215239
0.236486
0.299958
-0.0791087
-0.312474
-0.0795273
0.248374
0.202229
-0.122735
-0.255084
-0.0290209
0.22128
0.157676
-0.111668
-0.216749
-0.0323568
0.182508
0.150781
-0.0698746
-0.189905
-0.0672354
0.130609
0.15841
-0.00559567
-0.1535
-0.112409
0.0566051
0.150978
0.0685383
-0.0861427
-0.13579
-0.0345812
0.09878
0.118112
0.0116368
-0.0995822
-0.103223
0.000157762
0.0951753
0.0904805
-0.000587535
-0.0884911
-0.0823217
-0.0030753
0.0741279
0.082005
0.00912279
-0.0587613
-0.075348
-0.0278634
0.0479987
0.0655084
0.0386406
-0.0185887
-0.0663601
-0.0404201
-0.00292154
0.038196
0.0600895
0.0111886
-0.0170983
-0.0366902
-0.0480789
0.00881001
0.0246036
100.044
100.036
99.7828
99.9609
100.425
100.067
99.2834
99.8491
101.194
100.381
97.8627
98.8794
104.543
104.615
86.1065
49.9979
13.9418
-4.59393
-4.68299
1.05116
2.35533
-0.236175
-1.46776
-0.0893465
1.01722
0.275784
-0.721716
-0.399517
0.481642
0.474029
-0.26104
-0.495091
0.0537796
0.456017
0.128951
-0.355954
-0.266376
0.205638
0.335933
-0.0298569
-0.322745
-0.134328
0.228507
0.245816
-0.0777568
-0.27206
-0.0841261
0.204229
0.201833
-0.0663024
-0.230918
-0.0869173
0.159327
0.188835
-0.0199369
-0.191584
-0.117867
0.0943109
0.181007
0.0475287
-0.133806
-0.149165
0.00732986
0.146729
0.112905
-0.0435398
-0.14321
-0.0823686
0.0636468
0.132338
0.0604138
-0.0700548
-0.121495
-0.0463384
0.0668482
0.110791
0.0431351
-0.0611636
-0.0977375
-0.0476794
0.0483096
0.090867
0.048201
-0.0252704
-0.0824988
-0.0570805
0.0123047
0.0572242
0.068709
0.0095617
-0.0463797
-0.0520184
-0.0406886
0.0225566
0.0545444
0.0310919
0.0195963
-0.0347184
-0.0512
-0.00962135
99.9681
100.114
100.02
99.7266
99.9784
100.474
100.049
99.2382
99.8676
101.238
100.365
97.8176
98.8927
104.59
104.607
86.0577
49.9976
13.9914
-4.58367
-4.73127
1.02934
2.39895
-0.202315
-1.50249
-0.134093
1.03841
0.328097
-0.725235
-0.453709
0.465056
0.522374
-0.224965
-0.528922
0.00295159
0.467649
0.185393
-0.341184
-0.31597
0.166214
0.365602
0.0251974
-0.322946
-0.189558
0.197597
0.283221
-0.024807
-0.277478
-0.14028
0.174249
0.238539
-0.012412
-0.231334
-0.140793
0.122271
0.216082
0.0363978
-0.177085
-0.162921
0.045804
0.187966
0.100814
-0.0978447
-0.172818
-0.0471698
0.123978
0.147169
0.00870358
-0.13182
-0.122229
0.0153861
0.127872
0.103586
-0.0266421
-0.11962
-0.0895763
0.0248308
0.111171
0.0813588
-0.0177476
-0.0956356
-0.0837359
0.00930152
0.0780453
0.0811
0.0140325
-0.0675901
-0.0725961
-0.0319269
0.036339
0.078325
0.0363266
-0.00798796
-0.0527513
-0.0641127
-0.000954463
0.0264273
0.04642
0.0476522
-0.0212955
-0.030362
99.9625
99.9842
100.169
100.001
99.6797
99.9995
100.517
100.027
99.197
99.8891
101.28
100.345
97.7733
98.9078
104.637
104.599
86.008
49.9973
14.0422
-4.57225
-4.78052
1.00526
2.44274
-0.165359
-1.53603
-0.1822
1.05668
0.38319
-0.724067
-0.509085
0.442509
0.569349
-0.182748
-0.558285
-0.0525874
0.47196
0.243334
-0.317568
-0.36251
0.118784
0.387509
0.0845305
-0.312292
-0.242973
0.156129
0.312193
0.0340966
-0.270094
-0.194411
0.132082
0.264829
0.0471213
-0.216805
-0.189939
0.0731024
0.229298
0.0948931
-0.146413
-0.197594
-0.0111567
0.177171
0.148629
-0.0484698
-0.179276
-0.100771
0.0840611
0.166102
0.0638126
-0.10124
-0.147931
-0.0394807
0.104163
0.132818
0.0252304
-0.0971984
-0.120903
-0.0235212
0.0887935
0.107544
0.0323081
-0.0746321
-0.101651
-0.0369238
0.0476595
0.0975045
0.0494983
-0.0309259
-0.0727372
-0.0700582
0.00727927
0.0614253
0.057527
0.0342425
-0.0406722
-0.0625447
-0.0293533
-0.0116086
0.0507541
0.0535627
0.0039268
100.021
99.9079
100.004
100.214
99.9783
99.6397
100.024
100.555
100.001
99.1587
99.9136
101.321
100.323
97.7294
98.9249
104.685
104.589
85.9571
49.997
14.0945
-4.5596
-4.83084
0.978826
2.48667
-0.125247
-1.56822
-0.23362
1.07178
0.440824
-0.717964
-0.565157
0.413908
0.614244
-0.134638
-0.582386
-0.1121
0.468361
0.30154
-0.285076
-0.404495
0.0641839
0.400374
0.146385
-0.290359
-0.292287
0.105087
0.330733
0.096534
-0.249292
-0.24335
0.0792467
0.278215
0.108861
-0.187178
-0.230331
0.0145908
0.226295
0.150753
-0.101038
-0.217725
-0.0717658
0.148358
0.185401
0.00979743
-0.166216
-0.147142
0.030915
0.165861
0.114352
-0.0539218
-0.155218
-0.0922948
0.0629795
0.142266
0.0779343
-0.0579148
-0.132206
-0.0706074
0.0466129
0.116591
0.0768414
-0.0356211
-0.0977171
-0.0804052
0.00800011
0.0890189
0.0748158
0.0183853
-0.0584885
-0.0872556
-0.0261095
0.0232199
0.0683489
0.0629059
-0.0143504
-0.037265
-0.0556197
-0.041721
0.0374255
0.0355178
100.033
100
99.8641
100.029
100.251
99.9515
99.6053
100.053
100.589
99.9724
99.1229
99.9414
101.36
100.299
97.6855
98.9441
104.733
104.578
85.9047
49.9967
14.1483
-4.54568
-4.88231
0.94995
2.53069
-0.0819285
-1.59889
-0.288286
1.08345
0.500723
-0.706691
-0.621402
0.379214
0.656331
-0.0809763
-0.600481
-0.174741
0.456391
0.358711
-0.243894
-0.440472
0.00351092
0.403132
0.208827
-0.257135
-0.335237
0.0459259
0.337217
0.159754
-0.215141
-0.284008
0.0179754
0.276909
0.168943
-0.143315
-0.258367
-0.0495381
0.206085
0.199057
-0.0438541
-0.22027
-0.130527
0.103218
0.206243
0.0712403
-0.133604
-0.180399
-0.0293114
0.144484
0.153596
0.00443214
-0.141921
-0.134043
0.0084247
0.130188
0.121776
-0.00771454
-0.118797
-0.109464
-0.00631218
0.104357
0.105692
0.0163228
-0.0746867
-0.108191
-0.032843
0.054424
0.086932
0.0640769
-0.0308914
-0.0762649
-0.0589604
-0.0210392
0.0623391
0.0670579
0.0234935
-0.00126649
-0.068268
-0.0509437
0.00477505
99.9879
100.076
99.975
99.8289
100.057
100.282
99.921
99.5758
100.085
100.619
99.94
99.0892
99.9725
101.399
100.271
97.6415
98.9655
104.783
104.566
85.8508
49.9964
14.2038
-4.53043
-4.93496
0.918555
2.57472
-0.0353661
-1.62783
-0.346103
1.09142
0.562581
-0.690039
-0.677268
0.338451
0.694885
-0.0221996
-0.611881
-0.23957
0.435737
0.413506
-0.194438
-0.46907
-0.0619046
0.394993
0.269786
-0.213031
-0.369687
-0.0194635
0.330496
0.220784
-0.168401
-0.313593
-0.0488189
0.259909
0.223397
-0.0871818
-0.271096
-0.11491
0.1691
0.235125
0.021062
-0.203751
-0.181701
0.0453226
0.207482
0.129735
-0.0842303
-0.195344
-0.0895455
0.102851
0.176269
0.0652887
-0.107672
-0.158009
-0.0522038
0.0985026
0.146815
0.0470034
-0.0823922
-0.132947
-0.0580111
0.0690147
0.114402
0.0700626
-0.0385148
-0.109192
-0.0692782
0.00305254
0.0832685
0.0898119
0.00851629
-0.0422181
-0.0826305
-0.053851
0.0344844
0.0483621
0.0622549
0.0284014
-0.0560472
-0.0387194
99.9696
100.013
100.11
99.946
99.801
100.089
100.308
99.8868
99.5508
100.12
100.646
99.904
99.0577
100.007
101.436
100.24
97.5974
98.9891
104.834
104.553
85.7952
49.996
14.261
-4.51378
-4.98879
0.884565
2.61865
0.0144637
-1.65485
-0.406956
1.09543
0.626058
-0.667834
-0.732177
0.291712
0.729191
0.0411617
-0.615976
-0.305562
0.406247
0.464566
-0.137344
-0.489052
-0.130519
0.375474
0.327132
-0.158887
-0.393736
-0.0887965
0.309949
0.276607
-0.110577
-0.329727
-0.11777
0.227211
0.268293
-0.0216354
-0.266616
-0.17669
0.117142
0.254995
0.0888166
-0.168694
-0.219528
-0.0206586
0.187767
0.178854
-0.0231527
-0.188217
-0.143109
0.0456705
0.178163
0.119597
-0.0548536
-0.161095
-0.108334
0.0507989
0.146748
0.099064
-0.0310797
-0.133623
-0.0986766
0.0145746
0.103765
0.110188
0.00549384
-0.0808878
-0.0964731
-0.0479381
0.0603459
0.0879241
0.0539096
-7.07867e-05
-0.0852668
-0.0652988
-0.0124442
0.0192207
0.0846298
0.0410863
-0.0164266
100.004
99.9372
100.043
100.135
99.9135
99.7801
100.124
100.327
99.8491
99.5304
100.16
100.67
99.8645
99.0284
100.045
101.472
100.207
97.553
99.015
104.885
104.538
85.7378
49.9956
14.3201
-4.4957
-5.04379
0.84791
2.66237
0.0675717
-1.6797
-0.470705
1.09525
0.690788
-0.639935
-0.78554
0.239157
0.758556
0.108489
-0.612248
-0.371623
0.367941
0.510558
-0.0734704
-0.499354
-0.200613
0.344425
0.378756
-0.0959777
-0.405769
-0.15953
0.275604
0.32423
-0.0437601
-0.33073
-0.185092
0.179704
0.300157
0.0496378
-0.244263
-0.229842
0.0530594
0.256218
0.153587
-0.117123
-0.239308
-0.0891262
0.14845
0.21208
0.043698
-0.158363
-0.183671
-0.0194099
0.156496
0.160286
0.00985208
-0.142748
-0.148817
-0.00836802
0.121909
0.139136
0.0246012
-0.106776
-0.123372
-0.0469753
0.0761085
0.12357
0.0529955
-0.0324375
-0.107309
-0.0821348
0.016942
0.0633277
0.0921607
0.0345249
-0.0581156
-0.0577217
-0.0636893
-0.00632194
0.0748881
0.0383007
100.027
99.9748
99.9142
100.076
100.152
99.878
99.7659
100.162
100.341
99.8084
99.5145
100.202
100.691
99.8216
99.0013
100.086
101.508
100.17
97.5085
99.0434
104.939
104.522
85.6785
49.9953
14.3811
-4.47612
-5.09994
0.808526
2.70576
0.123957
-1.70219
-0.537192
1.09062
0.75638
-0.606242
-0.836754
0.181017
0.782321
0.179081
-0.600279
-0.436612
0.321015
0.550196
-0.00387967
-0.499108
-0.270359
0.302072
0.422606
-0.0259138
-0.40462
-0.228855
0.22803
0.360972
0.0293163
-0.315624
-0.246863
0.11915
0.316337
0.122113
-0.204363
-0.26996
-0.0189969
0.237787
0.209268
-0.0522962
-0.238396
-0.153378
0.0927647
0.224189
0.110013
-0.108923
-0.205011
-0.0841591
0.111708
0.182773
0.0757842
-0.103489
-0.166176
-0.0719456
0.0784467
0.15654
0.0762589
-0.0551045
-0.130278
-0.0986762
0.0327808
0.106724
0.0971041
0.0195783
-0.0929904
-0.0925162
-0.0400138
0.0290531
0.105727
0.0543888
-0.0043378
-0.0414016
-0.0961494
-0.0221825
0.0303218
100.003
100.049
99.9423
99.8998
100.111
100.162
99.8401
99.7584
100.203
100.349
99.7648
99.5034
100.248
100.707
99.7752
98.9766
100.131
101.542
100.13
97.4638
99.0743
104.993
104.505
85.6174
49.9948
14.444
-4.455
-5.1572
0.766348
2.74868
0.183608
-1.72206
-0.606241
1.08133
0.822424
-0.566693
-0.885213
0.117587
0.799869
0.25216
-0.579757
-0.499366
0.265849
0.582257
0.0702027
-0.487708
-0.337808
0.248947
0.456838
0.0492926
-0.389514
-0.293921
0.168437
0.384545
0.105392
-0.284132
-0.299423
0.0483698
0.314894
0.19101
-0.14848
-0.293546
-0.0937358
0.199974
0.25046
0.0210887
-0.216277
-0.206182
0.0250554
0.212786
0.168811
-0.0458453
-0.201953
-0.141624
0.0491909
0.183697
0.131431
-0.0453943
-0.159145
-0.128781
0.0241592
0.143708
0.118857
0.0093122
-0.11695
-0.126427
-0.0236904
0.0679266
0.125542
0.0606084
-0.0492713
-0.0834243
-0.0927327
-0.00357853
0.0824285
0.062632
0.057082
-0.0245829
-0.0904541
-0.0325607
99.9763
100.035
100.061
99.9081
99.894
100.147
100.164
99.8006
99.7576
100.246
100.351
99.7188
99.4972
100.296
100.72
99.7256
98.9547
100.179
101.575
100.087
97.419
99.1078
105.048
104.486
85.5543
49.9944
14.5088
-4.43228
-5.21555
0.721314
2.79098
0.246502
-1.73911
-0.677658
1.06717
0.888487
-0.521267
-0.930311
0.0492335
0.810624
0.326888
-0.550496
-0.558688
0.202977
0.605649
0.147353
-0.464756
-0.401026
0.18598
0.479796
0.127365
-0.36016
-0.35193
0.0986795
0.393075
0.180965
-0.2369
-0.339404
-0.0290243
0.294825
0.251648
-0.0794979
-0.298144
-0.165221
0.144341
0.273219
0.0967809
-0.174093
-0.241044
-0.0494024
0.179043
0.212204
0.0242389
-0.172674
-0.186046
-0.0211496
0.159942
0.168771
0.0251997
-0.131109
-0.165303
-0.0352193
0.101828
0.147523
0.0692859
-0.0797127
-0.126345
-0.0842526
0.0213018
0.123845
0.0855759
0.0156966
-0.0639312
-0.118411
-0.031987
0.0263069
0.0654229
0.0981591
-0.00642858
-0.0447935
99.9913
99.9656
100.068
100.064
99.8733
99.8964
100.184
100.158
99.7603
99.7636
100.29
100.347
99.671
99.4963
100.347
100.729
99.6729
98.9356
100.231
101.607
100.041
97.3743
99.144
105.105
104.465
85.4893
49.994
14.5756
-4.40792
-5.27492
0.673363
2.83253
0.312607
-1.75308
-0.751228
1.04794
0.954116
-0.46999
-0.971437
-0.0236209
0.814078
0.402345
-0.512409
-0.61341
0.133136
0.61937
0.226037
-0.430157
-0.458069
0.114432
0.490094
0.205823
-0.316819
-0.400192
0.0211327
0.385297
0.25237
-0.175446
-0.363973
-0.108766
0.256106
0.29987
-0.0016985
-0.28224
-0.227697
0.0740335
0.275317
0.167254
-0.113932
-0.254026
-0.123566
0.126598
0.232725
0.095391
-0.120877
-0.2111
-0.0885528
0.110524
0.185129
0.0958059
-0.0856908
-0.17161
-0.095107
0.0422594
0.154075
0.111428
-0.0189268
-0.105094
-0.131261
-0.022887
0.0850704
0.0977887
0.0797944
-0.0382415
-0.102644
-0.0598626
-0.0398443
0.0621873
0.0978489
0.020071
100.019
99.9587
99.9646
100.101
100.058
99.8391
99.907
100.221
100.145
99.7201
99.7766
100.334
100.337
99.6219
99.5009
100.401
100.733
99.6173
98.9196
100.285
101.637
99.9911
97.3298
99.1829
105.163
104.443
85.4223
49.9935
14.6443
-4.38187
-5.33525
0.622435
2.87316
0.381871
-1.76374
-0.826717
1.02347
1.01884
-0.41293
-1.00799
-0.100473
0.809773
0.477571
-0.465559
-0.662364
0.0572156
0.622591
0.304586
-0.384092
-0.507076
0.0358961
0.486687
0.282033
-0.260283
-0.436293
-0.0613054
0.360547
0.316085
-0.102326
-0.370766
-0.186459
0.200088
0.332083
0.079582
-0.245293
-0.27654
-0.00553978
0.25544
0.22541
-0.0393945
-0.244305
-0.188284
0.0594024
0.226557
0.161082
-0.0547727
-0.209728
-0.145645
0.0407442
0.180317
0.150948
-0.0246885
-0.147678
-0.147215
-0.019526
0.129326
0.132453
0.0540754
-0.0720295
-0.145265
-0.0629507
0.0188852
0.100047
0.116666
-0.00268534
-0.0512252
-0.08696
-0.0854699
0.0433003
0.0569407
100.014
100.018
99.9276
99.9729
100.132
100.044
99.8069
99.9254
100.256
100.125
99.681
99.7965
100.379
100.32
99.5719
99.5112
100.456
100.733
99.5591
98.9071
100.344
101.665
99.9381
97.2855
99.2246
105.222
104.42
85.3533
49.993
14.7151
-4.35407
-5.39647
0.568475
2.91272
0.454232
-1.77087
-0.903867
0.993612
1.08217
-0.350219
-1.03938
-0.180769
0.797347
0.551535
-0.410127
-0.704446
-0.0237089
0.614644
0.381261
-0.327051
-0.546313
-0.0477099
0.468871
0.353377
-0.192009
-0.458026
-0.145551
0.319115
0.368622
-0.0207893
-0.358215
-0.257873
0.129779
0.344946
0.159108
-0.188761
-0.307922
-0.0873716
0.213002
0.266415
0.0428877
-0.21248
-0.234636
-0.0184042
0.195504
0.21215
0.0172466
-0.177997
-0.188637
-0.036467
0.152476
0.179823
0.0481132
-0.103058
-0.177351
-0.0732174
0.0717637
0.136501
0.117054
-0.0304841
-0.117974
-0.10045
-0.049615
0.0868691
0.112178
0.0462988
0.0106168
-0.101316
-0.0913518
-0.000319598
99.9873
100.044
100.009
99.8996
99.9898
100.16
100.022
99.7778
99.9513
100.288
100.098
99.6439
99.8233
100.422
100.297
99.5219
99.5273
100.512
100.727
99.4985
98.8983
100.405
101.69
99.8817
97.2417
99.2692
105.282
104.394
85.2823
49.9925
14.7879
-4.32449
-5.45851
0.511428
2.95105
0.529605
-1.77422
-0.982405
0.958244
1.1436
-0.282036
-1.06504
-0.263882
0.776514
0.623187
-0.34645
-0.738614
-0.108411
0.595061
0.454301
-0.259878
-0.574163
-0.134317
0.43651
0.417136
-0.11385
-0.463747
-0.228281
0.262213
0.406608
0.0656847
-0.326215
-0.31854
0.0490757
0.336087
0.232089
-0.116624
-0.318073
-0.164842
0.149693
0.287412
0.123538
-0.159069
-0.257526
-0.0999881
0.144864
0.23819
0.0897324
-0.119962
-0.213147
-0.105669
0.0987459
0.181718
0.121048
-0.0489473
-0.171499
-0.117196
-0.00523176
0.125688
0.1478
0.0223483
-0.0606896
-0.129712
-0.0939563
0.047527
0.0747666
0.0998742
0.0539185
-0.0839124
-0.0628344
99.9832
99.998
100.069
99.9905
99.8763
100.014
100.182
99.9926
99.7532
99.9839
100.317
100.063
99.6098
99.8569
100.463
100.267
99.4725
99.5496
100.569
100.716
99.4359
98.8934
100.469
101.714
99.822
97.1984
99.3166
105.343
104.367
85.2094
49.9919
14.8627
-4.29309
-5.52127
0.451247
2.98798
0.607896
-1.77357
-1.06203