/*--------------------------------*- C++ -*----------------------------------*\
  =========                 |
  \\      /  F ield         | OpenFOAM: The Open Source CFD Toolbox
   \\    /   O peration     | Website:  https://openfoam.org
    \\  /    A nd           | Version:  8
     \\/     M anipulation  |
\*---------------------------------------------------------------------------*/
FoamFile
{
    version     2.0;
    format      ascii;
    class       volScalarField;
    location    "17";
    object      p;
}
// * * * * * * * * * * * * * * * * * * * * * * * * * * * * * * * * * * * * * //

dimensions      [0 2 -2 0 0 0 0];

internalField   nonuniform List<scalar> 
464
(
-7.08186e-09
4.52402e-06
1.42174e-05
2.85531e-05
4.73165e-05
7.0033e-05
9.62881e-05
0.000125261
0.000157146
0.000188927
0.000225445
0.000254727
-4.53936e-06
8.27574e-08
9.97307e-06
2.45993e-05
4.3742e-05
6.69263e-05
9.37317e-05
0.00012335
0.000155953
0.000188623
0.000226176
0.000256886
-1.44475e-05
-9.62351e-06
6.99162e-07
1.59612e-05
3.59221e-05
6.00762e-05
8.79153e-05
0.000118683
0.000151979
0.000186222
0.000222462
0.000255801
-2.96783e-05
-2.45404e-05
-1.35483e-05
2.70274e-06
2.39475e-05
4.96592e-05
7.9294e-05
0.000112102
0.000147609
0.000184386
0.000223184
0.000259347
-5.06796e-05
-4.51052e-05
-3.31872e-05
-1.55677e-05
7.44211e-06
3.52728e-05
6.72917e-05
0.000102718
0.000140813
0.000180464
0.000221194
0.000261192
-7.79233e-05
-7.17712e-05
-5.86424e-05
-3.92236e-05
-1.38996e-05
1.67217e-05
5.19231e-05
9.0894e-05
0.000132824
0.000176636
0.000221697
0.00026608
-0.000112032
-0.000105149
-9.05043e-05
-6.88128e-05
-4.05889e-05
-6.47247e-06
3.26805e-05
7.60021e-05
0.000122551
0.000171228
0.000221107
0.000270925
-0.000154025
-0.000146174
-0.00012963
-0.000105057
-7.32432e-05
-3.47932e-05
9.21838e-06
5.78881e-05
0.000110153
0.000164913
0.000221117
0.000277404
-0.000204061
-0.000195185
-0.000176512
-0.000148565
-0.00011249
-6.88113e-05
-1.89968e-05
3.6044e-05
9.50785e-05
0.000156958
0.000220524
0.000284567
-0.00026681
-0.000255953
-0.000234156
-0.000201147
-0.000159652
-0.000109426
-5.26235e-05
1.00067e-05
7.70167e-05
0.000147268
0.000219658
0.000292618
-0.000333812
-0.00032195
-0.000297626
-0.000260444
-0.000213556
-0.000156374
-9.18885e-05
-2.06382e-05
5.54741e-05
0.000135113
0.000216833
0.000299976
-0.00043101
-0.000414079
-0.000385516
-0.000337529
-0.000282563
-0.000213895
-0.00013904
-5.6861e-05
3.01194e-05
0.000121384
0.000215824
0.000311465
-0.000514628
-0.000498399
-0.00046641
-0.000414152
-0.000352535
-0.000275068
-0.000190764
-9.78436e-05
9.30938e-08
0.000101721
0.000205751
0.000312439
-0.000669291
-0.000636574
-0.000601176
-0.000523901
-0.000452284
-0.000353596
-0.000255873
-0.0001466
-3.398e-05
8.40199e-05
0.000206006
0.000330132
-0.000768706
-0.000746879
-0.000703302
-0.000624814
-0.000541412
-0.000431717
-0.000321557
-0.000199004
-7.41567e-05
5.33126e-05
0.000182912
0.000316643
-0.00102869
-0.000944742
-0.000907992
-0.000770505
-0.000677687
-0.000530914
-0.000404348
-0.000258735
-0.000116072
3.25158e-05
0.000184677
0.000341148
-0.00114044
-0.00111386
-0.00104791
-0.000919471
-0.000794843
-0.000632676
-0.000485127
-0.000322736
-0.000167724
-1.06005e-05
0.000145758
0.000307579
-0.00164114
-0.00134691
-0.00133888
-0.0010715
-0.000952302
-0.000736259
-0.000571606
-0.000383307
-0.000208691
-3.11474e-05
0.000146241
0.000331682
-0.00180548
-0.00179233
-0.00159388
-0.00137517
-0.00112819
-0.000888474
-0.000673618
-0.000461753
-0.000270184
-8.30157e-05
9.54265e-05
0.000280939
-0.00325826
-0.00184129
-0.00187136
-0.00142157
-0.00121043
-0.000936124
-0.000712469
-0.000494627
-0.000290311
-9.45932e-05
9.4808e-05
0.000288554
0.000297385
0.000317412
0.000339515
0.000354266
0.000367547
0.000376837
0.000383311
0.000386261
0.000301557
0.000323275
0.000347276
0.000363595
0.000378141
0.000388504
0.000395669
0.000398964
0.000291845
0.000319947
0.000347027
0.000368504
0.000386647
0.000400137
0.000409288
0.000413566
0.000298106
0.000329141
0.000358859
0.000382945
0.000403238
0.00041852
0.000428886
0.000433746
0.000300688
0.000336704
0.00036985
0.000398389
0.000422257
0.000440508
0.00045292
0.000458785
0.000309932
0.000350411
0.000387777
0.000420354
0.000447711
0.000468957
0.000483448
0.000490366
0.000319771
0.000366018
0.000408777
0.000446688
0.000478671
0.000503753
0.000520875
0.00052915
0.000332784
0.000385662
0.00043488
0.000479099
0.000516592
0.000546504
0.00056688
0.000576968
0.000347778
0.000408712
0.000465715
0.000517555
0.000561548
0.000597323
0.000621429
0.000633702
0.000365088
0.000435732
0.000502479
0.000564628
0.000617594
0.000662557
0.000692358
0.000708545
0.000382668
0.000463724
0.0005402
0.00061294
0.000673611
0.000728361
0.00076226
0.000783274
0.00040764
0.000503875
0.000595725
0.000687881
0.000762749
0.000837894
0.00088154
0.000912673
0.000419406
0.000527926
0.000627789
0.000736268
0.000815017
0.000910617
0.000955062
0.00100053
0.00045616
0.000589388
0.000711308
0.000856575
0.000960643
0.00110045
0.00116645
0.00123955
0.000448806
0.000595915
0.000714065
0.000886101
0.000974684
0.0011613
0.00121081
0.00133346
0.000497273
0.000680564
0.00083322
0.00106688
0.00120644
0.00148641
0.00159434
0.00180331
0.000456372
0.000653472
0.000768568
0.00104406
0.00110447
0.0014858
0.00150944
0.00189287
0.000508773
0.000743973
0.000911924
0.00127067
0.00143138
0.00199997
0.00218358
0.00288907
0.00043339
0.000677043
0.000746063
0.00115341
0.00106149
0.00179746
0.00158869
0.00277457
0.000464461
0.000719136
0.000851962
0.00131203
0.00141216
0.00243023
0.0028148
0.005459
0.000354307
0.000354759
0.000355655
0.000356765
0.000357962
0.000359017
0.000359816
0.00036021
0.00035488
0.000355358
0.000356288
0.000357457
0.000358668
0.000359746
0.000360551
0.000360948
0.000351902
0.000352658
0.000354113
0.000355822
0.000357671
0.000359248
0.000360438
0.000361017
0.000353546
0.000354413
0.000356028
0.000357983
0.000359923
0.000361623
0.000362864
0.000363474
0.000346115
0.000347943
0.000351116
0.00035454
0.000358108
0.000361006
0.000363147
0.000364167
0.000348923
0.00035099
0.00035455
0.000358488
0.000362269
0.000365447
0.000367727
0.00036883
0.00033251
0.000338012
0.000345919
0.000353244
0.000360355
0.000365785
0.00036966
0.000371465
0.000336629
0.000342552
0.000351317
0.000359476
0.000367148
0.000373109
0.000377329
0.000379306
)
;

boundaryField
{
    movingWall
    {
        type            zeroGradient;
    }
    fixedWalls
    {
        type            zeroGradient;
    }
    frontAndBack
    {
        type            empty;
    }
}


// ************************************************************************* //
