/*--------------------------------*- C++ -*----------------------------------*\
  =========                 |
  \\      /  F ield         | OpenFOAM: The Open Source CFD Toolbox
   \\    /   O peration     | Website:  https://openfoam.org
    \\  /    A nd           | Version:  8
     \\/     M anipulation  |
\*---------------------------------------------------------------------------*/
FoamFile
{
    version     2.0;
    format      ascii;
    class       surfaceScalarField;
    location    "48";
    object      phi;
}
// * * * * * * * * * * * * * * * * * * * * * * * * * * * * * * * * * * * * * //

dimensions      [0 3 -1 0 0 0 0];

internalField   nonuniform List<scalar> 
208
(
1.83093e-05
-1.83093e-05
3.20454e-05
-1.37361e-05
3.23046e-05
-2.59195e-07
8.81881e-06
2.34858e-05
-6.97308e-05
7.85496e-05
7.18461e-05
-0.000141577
1.94888e-06
-2.02581e-05
-1.29897e-05
1.20245e-06
-5.5475e-05
4.22261e-05
-0.000108837
7.68479e-05
-0.000137195
0.000106907
7.17421e-05
-0.000137091
-1.62722e-05
-3.98595e-06
-4.57195e-05
3.06498e-05
-7.93358e-05
7.58424e-05
-0.000106934
0.000104446
-0.0001137
0.000113673
5.59109e-05
-9.7869e-05
-2.15131e-05
1.75272e-05
-4.49294e-05
5.40661e-05
-6.84142e-05
9.93271e-05
-8.03007e-05
0.000116333
-7.22269e-05
0.000105599
3.54025e-05
-5.17186e-05
-1.53764e-05
3.29035e-05
-3.38111e-05
7.25008e-05
-4.51612e-05
0.000110677
-4.48322e-05
0.000116004
-3.4199e-05
9.4966e-05
2.93875e-05
-2.81841e-05
-6.94829e-06
3.98518e-05
-9.61677e-06
7.51693e-05
-8.11694e-06
0.000109177
-5.69478e-06
0.000113582
-5.7749e-07
8.98488e-05
3.42309e-05
-5.42081e-06
1.89312e-06
3.79587e-05
3.37045e-06
7.3692e-05
1.25488e-05
9.99991e-05
2.56964e-05
0.000100434
3.90045e-05
7.65406e-05
3.62232e-05
3.70122e-05
1.00909e-05
2.78678e-05
2.53334e-05
5.84495e-05
5.14593e-05
7.38732e-05
7.12724e-05
8.06211e-05
8.58501e-05
6.19628e-05
3.92604e-05
8.28129e-05
-3.72696e-05
6.51374e-05
-1.66492e-05
3.78291e-05
1.38204e-05
4.34036e-05
4.93387e-05
4.51028e-05
7.60406e-05
3.52609e-05
2.61859e-05
8.91151e-05
6.51374e-05
0.000102966
0.00014637
0.000191473
0.000226734
0.00025292
-0.000115848
9.77064e-05
-0.000123435
-6.6869e-05
-4.80148e-05
-9.64053e-07
-1.96381e-05
-3.90165e-05
-8.21447e-06
-0.000152252
0.000132614
-0.000112018
7.2634e-05
-9.59991e-05
-6.40339e-05
-4.1142e-05
-9.38735e-05
-0.000193394
-6.70533e-05
4.18183e-05
-6.48357e-05
-6.62516e-05
-3.82762e-05
-0.000120433
-0.00023167
-2.74267e-05
1.75264e-05
-2.72233e-05
-6.6455e-05
-1.9822e-05
-0.000127834
-0.000251492
-1.30346e-05
2.37692e-06
-1.5809e-05
-6.36805e-05
-1.49301e-05
-0.000128713
-0.000266422
7.60876e-06
-1.06527e-05
3.21458e-06
-5.92863e-05
-3.77067e-06
-0.000121728
-0.000270193
3.69826e-05
-1.06231e-05
1.59421e-05
-3.82458e-05
1.7317e-06
-0.000107518
-0.000268461
6.99241e-05
2.26571e-06
4.16937e-05
-1.00153e-05
2.68414e-05
-9.26653e-05
-0.00024162
8.52912e-05
6.08961e-06
8.30597e-05
-7.78379e-06
6.85866e-05
-7.81923e-05
-0.000173033
0.000259009
0.000251226
0.000173033
-3.93453e-05
3.93453e-05
-6.5171e-05
2.58258e-05
-6.14493e-05
-3.72179e-06
-6.14493e-05
-3.4435e-05
7.37803e-05
-4.38635e-05
3.52543e-05
-4.43534e-05
-3.23191e-06
-0.000105803
-2.17608e-05
9.5541e-05
-1.00762e-05
2.35697e-05
-2.37814e-05
1.04733e-05
-0.000129584
-2.78944e-05
-5.28877e-06
-3.02989e-06
)
;

boundaryField
{
    movingWall
    {
        type            calculated;
        value           uniform 0;
    }
    fixedWalls
    {
        type            calculated;
        value           uniform 0;
    }
    frontAndBack
    {
        type            empty;
        value           nonuniform List<scalar> 0();
    }
}


// ************************************************************************* //
