/*--------------------------------*- C++ -*----------------------------------*\
  =========                 |
  \\      /  F ield         | OpenFOAM: The Open Source CFD Toolbox
   \\    /   O peration     | Website:  https://openfoam.org
    \\  /    A nd           | Version:  8
     \\/     M anipulation  |
\*---------------------------------------------------------------------------*/
FoamFile
{
    version     2.0;
    format      ascii;
    class       volScalarField;
    location    "0.325";
    object      p;
}
// * * * * * * * * * * * * * * * * * * * * * * * * * * * * * * * * * * * * * //

dimensions      [0 2 -2 0 0 0 0];

internalField   nonuniform List<scalar> 
400
(
4.051e-06
-0.00582234
-0.0129592
-0.0184107
-0.0204277
-0.0182339
-0.0117696
-0.00148
0.0118402
0.0271509
0.0432452
0.0588228
0.0725776
0.0833068
0.090051
0.0922655
0.0900251
0.0842441
0.0768817
0.0710688
0.00578222
-0.000216207
-0.00580144
-0.00953959
-0.0105957
-0.00842932
-0.00296667
0.00547701
0.0163052
0.0287133
0.0417508
0.0543864
0.0655864
0.0744096
0.0801199
0.0823156
0.0810776
0.0770558
0.0712758
0.0653202
0.0133355
0.00503487
-0.000993535
-0.00442095
-0.00527051
-0.00326138
0.00160486
0.00902991
0.018504
0.0293508
0.0407666
0.0518704
0.0617691
0.0696368
0.0748075
0.0768787
0.0758427
0.0720875
0.0658079
0.0575387
0.0201388
0.00869646
0.00122709
-0.00266687
-0.00372019
-0.00188323
0.0027334
0.00978663
0.0187823
0.0290967
0.0399933
0.0506551
0.0602339
0.0679169
0.0730043
0.0750028
0.0737674
0.0694583
0.061606
0.0501066
0.0245007
0.0097732
0.000590689
-0.00398552
-0.00530053
-0.00350544
0.00117673
0.00833657
0.017464
0.0279509
0.0390867
0.0500714
0.0600502
0.0681664
0.0736279
0.0757995
0.0743711
0.0692924
0.059529
0.0445418
0.0251765
0.00715005
-0.00380115
-0.00905583
-0.0105104
-0.00849801
-0.00335469
0.00443163
0.0143156
0.0256812
0.0378159
0.0499053
0.06105
0.070305
0.0767366
0.0795191
0.0781415
0.0723366
0.0605431
0.0418951
0.0210925
-0.000262043
-0.0129334
-0.0187077
-0.0200278
-0.0174116
-0.0113159
-0.00231706
0.00899314
0.0219789
0.0359123
0.049947
0.0631146
0.0743476
0.0825243
0.0865721
0.0857236
0.0794505
0.0656245
0.043077
0.0111428
-0.0136172
-0.0278734
-0.0338522
-0.0346011
-0.0308547
-0.0232098
-0.012342
0.00110819
0.0164873
0.0330559
0.0499369
0.0660865
0.0802929
0.0912036
0.097433
0.0978735
0.0916396
0.0759005
0.0491216
-0.00596587
-0.0342646
-0.0498677
-0.0555459
-0.0550871
-0.0495112
-0.0395898
-0.0261094
-0.00975305
0.00882713
0.0289051
0.0495975
0.0698013
0.0881582
0.103051
0.112705
0.115554
0.110195
0.0928383
0.0614162
-0.0318542
-0.0638731
-0.0804137
-0.0850038
-0.0824164
-0.0740743
-0.0609766
-0.0440321
-0.0239468
-0.00133204
0.0231504
0.0486657
0.0741001
0.0979765
0.1184
0.133129
0.139992
0.136822
0.118445
0.081938
-0.0686627
-0.104599
-0.12134
-0.123586
-0.117511
-0.105122
-0.0877134
-0.0663204
-0.0416316
-0.0141501
0.0156111
0.0469586
0.0788609
0.109798
0.137628
0.15959
0.172731
0.173782
0.155524
0.113574
-0.119396
-0.159352
-0.17491
-0.172752
-0.161143
-0.142924
-0.119754
-0.0927714
-0.0625716
-0.0294417
0.00637912
0.0444794
0.0840607
0.123708
0.161141
0.19309
0.215672
0.22408
0.208054
0.160635
-0.188621
-0.232236
-0.243933
-0.233943
-0.213689
-0.187149
-0.156367
-0.122495
-0.0858917
-0.0464658
-0.00400809
0.041545
0.089848
0.139835
0.189324
0.234694
0.271078
0.291668
0.281745
0.229778
-0.283966
-0.329298
-0.331826
-0.308274
-0.274703
-0.236434
-0.195759
-0.153604
-0.109834
-0.0637385
-0.0144312
0.0388699
0.0965604
0.158282
0.222379
0.285292
0.341401
0.381578
0.384916
0.331835
-0.41931
-0.459664
-0.442344
-0.395787
-0.342124
-0.287734
-0.23461
-0.182924
-0.131603
-0.0789781
-0.0232071
0.037482
0.104559
0.178843
0.259866
0.344975
0.42862
0.499703
0.529677
0.485392
-0.620523
-0.636737
-0.578671
-0.494188
-0.411236
-0.335653
-0.267775
-0.205972
-0.14753
-0.0893762
-0.028419
0.0383552
0.113813
0.200477
0.29998
0.41203
0.533033
0.651778
0.732774
0.722397
-0.935916
-0.878509
-0.741737
-0.597944
-0.474389
-0.372655
-0.288864
-0.217757
-0.153947
-0.0924574
-0.0287104
0.0417026
0.12327
0.220724
0.338931
0.482159
0.652001
0.841345
1.01527
1.0975
-1.47642
-1.20663
-0.920499
-0.691385
-0.517302
-0.387541
-0.290057
-0.213333
-0.148119
-0.0872095
-0.0245711
0.0454643
0.128944
0.233077
0.367109
0.542683
0.771297
1.05932
1.40329
1.73014
-2.53964
-1.63054
-1.04443
-0.710956
-0.495749
-0.352091
-0.254528
-0.183579
-0.126165
-0.0735895
-0.0192628
0.0427936
0.119219
0.218789
0.354818
0.547989
0.826397
1.23658
1.91168
2.9242
-4.36666
-2.04463
-0.97354
-0.563179
-0.357846
-0.240146
-0.170118
-0.123781
-0.0874775
-0.0535051
-0.0166482
0.0276678
0.084615
0.161737
0.272419
0.442106
0.718225
1.22571
2.41104
4.84853
)
;

boundaryField
{
    movingWall
    {
        type            zeroGradient;
    }
    fixedWalls
    {
        type            zeroGradient;
    }
    frontAndBack
    {
        type            empty;
    }
}


// ************************************************************************* //
