/*--------------------------------*- C++ -*----------------------------------*\
  =========                 |
  \\      /  F ield         | OpenFOAM: The Open Source CFD Toolbox
   \\    /   O peration     | Website:  https://openfoam.org
    \\  /    A nd           | Version:  8
     \\/     M anipulation  |
\*---------------------------------------------------------------------------*/
FoamFile
{
    version     2.0;
    format      ascii;
    class       volVectorField;
    location    "0.325";
    object      U;
}
// * * * * * * * * * * * * * * * * * * * * * * * * * * * * * * * * * * * * * //

dimensions      [0 1 -1 0 0 0 0];

internalField   nonuniform List<vector> 
400
(
(0.000253386 -0.000250414 0)
(0.000141194 0.000111425 0)
(-0.00117694 0.000564572 0)
(-0.00348095 0.000884932 0)
(-0.00637717 0.00104565 0)
(-0.009469 0.00106168 0)
(-0.0124023 0.000957789 0)
(-0.0148842 0.000760392 0)
(-0.0166887 0.000494617 0)
(-0.0176575 0.000184555 0)
(-0.0177013 -0.000145255 0)
(-0.0168043 -0.000468339 0)
(-0.0150294 -0.000755376 0)
(-0.0125246 -0.000974219 0)
(-0.009526 -0.00109114 0)
(-0.00635474 -0.00107396 0)
(-0.00340053 -0.000898081 0)
(-0.00108641 -0.000556368 0)
(0.000196404 -9.03694e-05 0)
(0.000267846 0.000262367 0)
(-7.74635e-05 -0.000169347 0)
(-0.00161149 0.00164476 0)
(-0.00569267 0.00361714 0)
(-0.0117184 0.0050346 0)
(-0.0188916 0.00574298 0)
(-0.0263998 0.00575996 0)
(-0.0334679 0.00517145 0)
(-0.0394254 0.00409234 0)
(-0.0437424 0.00264754 0)
(-0.0460456 0.000966905 0)
(-0.0461279 -0.000813168 0)
(-0.0439599 -0.00254695 0)
(-0.0396999 -0.00407847 0)
(-0.0337016 -0.00524491 0)
(-0.0265126 -0.00588636 0)
(-0.018854 -0.00586465 0)
(-0.0115663 -0.00509459 0)
(-0.00551315 -0.00358931 0)
(-0.00149306 -0.0015591 0)
(-4.2582e-05 0.000227435 0)
(-0.00052859 0.00109159 0)
(-0.00371127 0.00573608 0)
(-0.0105886 0.0102241 0)
(-0.0199911 0.0134072 0)
(-0.0307639 0.0149457 0)
(-0.041821 0.0148383 0)
(-0.0521183 0.0132552 0)
(-0.0607425 0.0104558 0)
(-0.0669676 0.00674176 0)
(-0.0702808 0.00243881 0)
(-0.0703988 -0.00210643 0)
(-0.0672826 -0.00652519 0)
(-0.0611508 -0.0104288 0)
(-0.0524872 -0.0134206 0)
(-0.042036 -0.015123 0)
(-0.0307732 -0.0152251 0)
(-0.0198286 -0.0135556 0)
(-0.0103633 -0.0101786 0)
(-0.00354844 -0.00555092 0)
(-0.000476836 -0.000948818 0)
(-0.000928198 0.00347972 0)
(-0.00569134 0.0122202 0)
(-0.0153014 0.019921 0)
(-0.0279162 0.0251969 0)
(-0.0419844 0.027596 0)
(-0.0561777 0.0271365 0)
(-0.0692505 0.0241081 0)
(-0.0801239 0.0189532 0)
(-0.0879462 0.0121951 0)
(-0.0921168 0.00440496 0)
(-0.0923014 -0.00380779 0)
(-0.0884483 -0.0117961 0)
(-0.0808033 -0.0188814 0)
(-0.0699215 -0.0243754 0)
(-0.0566681 -0.0276267 0)
(-0.042194 -0.0281008 0)
(-0.027856 -0.0254969 0)
(-0.0150934 -0.0198911 0)
(-0.00550493 -0.0119273 0)
(-0.000861584 -0.00322478 0)
(-0.0012789 0.00687756 0)
(-0.00753588 0.020953 0)
(-0.0198044 0.0325093 0)
(-0.0355342 0.0401018 0)
(-0.0527424 0.0432888 0)
(-0.0698573 0.0421913 0)
(-0.0854619 0.0372762 0)
(-0.0983588 0.029212 0)
(-0.107618 0.0187766 0)
(-0.112586 0.00681354 0)
(-0.112895 -0.00578011 0)
(-0.108472 -0.018054 0)
(-0.0995605 -0.0290103 0)
(-0.0867378 -0.0376314 0)
(-0.0709346 -0.0429435 0)
(-0.0534294 -0.0441274 0)
(-0.035784 -0.0406774 0)
(-0.0197348 -0.0325915 0)
(-0.00737046 -0.02059 0)
(-0.00120365 -0.00649796 0)
(-0.00160749 0.0112152 0)
(-0.00931784 0.0318734 0)
(-0.0242088 0.0479501 0)
(-0.0430018 0.0580698 0)
(-0.0632559 0.0619348 0)
(-0.0831514 0.0598789 0)
(-0.101122 0.0526262 0)
(-0.11589 0.0411242 0)
(-0.126486 0.0264361 0)
(-0.132235 0.0096926 0)
(-0.132747 -0.0079159 0)
(-0.127921 -0.025131 0)
(-0.117964 -0.0406233 0)
(-0.103432 -0.0530172 0)
(-0.0852673 -0.0609638 0)
(-0.0648343 -0.0632777 0)
(-0.0438846 -0.0591398 0)
(-0.0244772 -0.0483427 0)
(-0.00925412 -0.0315565 0)
(-0.00153772 -0.0107282 0)
(-0.00194001 0.0164765 0)
(-0.011121 0.0449725 0)
(-0.0286498 0.0662308 0)
(-0.0504788 0.0790562 0)
(-0.0736834 0.0834429 0)
(-0.0962017 0.0800708 0)
(-0.116349 0.0700214 0)
(-0.132812 0.0545826 0)
(-0.144628 0.0351303 0)
(-0.151138 0.0130843 0)
(-0.151946 -0.0100859 0)
(-0.146912 -0.0328311 0)
(-0.136178 -0.0534973 0)
(-0.120221 -0.0703338 0)
(-0.0999306 -0.0815619 0)
(-0.0766998 -0.0855293 0)
(-0.0524391 -0.0809606 0)
(-0.0295442 -0.0672745 0)
(-0.0112834 -0.044938 0)
(-0.00190003 -0.015951 0)
(-0.00229999 0.0226941 0)
(-0.0130248 0.0602985 0)
(-0.0332502 0.0873601 0)
(-0.0580785 0.102992 0)
(-0.0840729 0.107661 0)
(-0.108951 0.102557 0)
(-0.130965 0.0892403 0)
(-0.148831 0.0694079 0)
(-0.161663 0.0447698 0)
(-0.168864 0.0170193 0)
(-0.170059 -0.0121328 0)
(-0.165068 -0.0408912 0)
(-0.153927 -0.0673113 0)
(-0.136967 -0.0892693 0)
(-0.11494 -0.104508 0)
(-0.0891741 -0.110792 0)
(-0.0616695 -0.106208 0)
(-0.0351477 -0.0895762 0)
(-0.0135856 -0.0609474 0)
(-0.00232629 -0.0222768 0)
(-0.0027116 0.0299458 0)
(-0.0151078 0.0779535 0)
(-0.0381142 0.111352 0)
(-0.0658473 0.129744 0)
(-0.0943253 0.134312 0)
(-0.121097 0.126968 0)
(-0.144441 0.109897 0)
(-0.16321 0.0852781 0)
(-0.176684 0.0551649 0)
(-0.184403 0.0214863 0)
(-0.186054 -0.0138738 0)
(-0.181419 -0.0489542 0)
(-0.170392 -0.0815897 0)
(-0.153078 -0.109319 0)
(-0.129969 -0.129376 0)
(-0.102184 -0.138823 0)
(-0.0716884 -0.134882 0)
(-0.0414663 -0.115465 0)
(-0.0162878 -0.0798927 0)
(-0.00285465 -0.0298886 0)
(-0.00320764 0.0383582 0)
(-0.0174661 0.0980858 0)
(-0.0433408 0.138184 0)
(-0.0737561 0.15904 0)
(-0.104159 0.162894 0)
(-0.132031 0.152667 0)
(-0.155824 0.131336 0)
(-0.174677 0.101636 0)
(-0.188167 0.0659552 0)
(-0.196067 0.0263888 0)
(-0.198185 -0.0151116 0)
(-0.194282 -0.0565426 0)
(-0.18408 -0.0956378 0)
(-0.167365 -0.129684 0)
(-0.144214 -0.155418 0)
(-0.115338 -0.169091 0)
(-0.0824452 -0.166797 0)
(-0.0486358 -0.14512 0)
(-0.0195286 -0.102157 0)
(-0.00353354 -0.0390461 0)
(-0.00384397 0.0481272 0)
(-0.0202462 0.12089 0)
(-0.0490468 0.167747 0)
(-0.0816867 0.19036 0)
(-0.113054 0.192551 0)
(-0.140747 0.178609 0)
(-0.163622 0.152507 0)
(-0.18131 0.117589 0)
(-0.193847 0.0765324 0)
(-0.201362 0.0314936 0)
(-0.203858 -0.0156577 0)
(-0.20111 -0.0630476 0)
(-0.192649 -0.108487 0)
(-0.177857 -0.149165 0)
(-0.156224 -0.181409 0)
(-0.12778 -0.2006 0)
(-0.0936443 -0.201419 0)
(-0.056733 -0.178569 0)
(-0.0234798 -0.128169 0)
(-0.00443553 -0.0501032 0)
(-0.00472542 0.0595698 0)
(-0.0236949 0.146614 0)
(-0.0553836 0.199751 0)
(-0.0893775 0.222785 0)
(-0.120124 0.221885 0)
(-0.145678 0.203182 0)
(-0.165633 0.171835 0)
(-0.180374 0.131807 0)
(-0.190584 0.0859675 0)
(-0.196866 0.0363758 0)
(-0.199505 -0.0153695 0)
(-0.198339 -0.0677402 0)
(-0.19272 -0.118863 0)
(-0.181576 -0.166073 0)
(-0.163647 -0.205482 0)
(-0.137968 -0.231655 0)
(-0.104596 -0.237619 0)
(-0.0657339 -0.21552 0)
(-0.0283778 -0.158364 0)
(-0.0056821 -0.0635509 0)
(-0.00605166 0.0732271 0)
(-0.0282262 0.17556 0)
(-0.0625097 0.233566 0)
(-0.0962586 0.254741 0)
(-0.123859 0.248725 0)
(-0.144401 0.224021 0)
(-0.158674 0.187102 0)
(-0.168111 0.142458 0)
(-0.174205 0.0929667 0)
(-0.178123 0.0403785 0)
(-0.180489 -0.0141975 0)
(-0.18127 -0.0698187 0)
(-0.179699 -0.125207 0)
(-0.174274 -0.178175 0)
(-0.162897 -0.224968 0)
(-0.143318 -0.259582 0)
(-0.113939 -0.273324 0)
(-0.0753937 -0.255062 0)
(-0.0345565 -0.193087 0)
(-0.00748632 -0.080103 0)
(-0.00819215 0.0900453 0)
(-0.0344832 0.208018 0)
(-0.0704133 0.26788 0)
(-0.101025 0.283601 0)
(-0.121577 0.269806 0)
(-0.133111 0.237836 0)
(-0.138167 0.1954 0)
(-0.139467 0.14723 0)
(-0.139372 0.0959072 0)
(-0.1396 0.042619 0)
(-0.141114 -0.0122322 0)
(-0.14406 -0.068505 0)
(-0.147673 -0.125791 0)
(-0.150173 -0.182765 0)
(-0.148723 -0.23632 0)
(-0.139646 -0.280442 0)
(-0.119096 -0.305021 0)
(-0.0849368 -0.295155 0)
(-0.0424408 -0.232374 0)
(-0.0102161 -0.100836 0)
(-0.0117676 0.111635 0)
(-0.0432602 0.243959 0)
(-0.0782983 0.300031 0)
(-0.10063 0.305089 0)
(-0.108354 0.280456 0)
(-0.105734 0.240379 0)
(-0.097533 0.193278 0)
(-0.0877749 0.143546 0)
(-0.0795053 0.0930341 0)
(-0.0747899 0.0420944 0)
(-0.0748075 -0.00972821 0)
(-0.0798951 -0.0632095 0)
(-0.0894668 -0.118988 0)
(-0.101792 -0.176954 0)
(-0.113689 -0.235281 0)
(-0.120307 -0.288878 0)
(-0.115265 -0.327192 0)
(-0.0922672 -0.331791 0)
(-0.052316 -0.275401 0)
(-0.0144304 -0.127346 0)
(-0.0175494 0.140659 0)
(-0.0547649 0.282144 0)
(-0.0827871 0.324716 0)
(-0.0880819 0.312471 0)
(-0.0751106 0.274453 0)
(-0.0525937 0.226767 0)
(-0.0274618 0.177286 0)
(-0.0045184 0.129133 0)
(0.0130946 0.0829114 0)
(0.0234356 0.0379464 0)
(0.0253942 -0.00707311 0)
(0.0185033 -0.0537574 0)
(0.00297607 -0.10375 0)
(-0.0200001 -0.158318 0)
(-0.0476885 -0.217499 0)
(-0.0749867 -0.278358 0)
(-0.093548 -0.331788 0)
(-0.0920645 -0.35768 0)
(-0.0632808 -0.319292 0)
(-0.0206336 -0.161973 0)
(-0.0254498 0.181711 0)
(-0.0657748 0.31777 0)
(-0.0733337 0.331361 0)
(-0.0480782 0.295399 0)
(-0.00558002 0.24421 0)
(0.0412162 0.192378 0)
(0.0846501 0.145045 0)
(0.120533 0.10297 0)
(0.146698 0.0651369 0)
(0.162043 0.0298911 0)
(0.165937 -0.00467134 0)
(0.157932 -0.0406277 0)
(0.137728 -0.0802454 0)
(0.105437 -0.125916 0)
(0.0622596 -0.179725 0)
(0.0118038 -0.242019 0)
(-0.0378312 -0.307876 0)
(-0.0716801 -0.360141 0)
(-0.0700558 -0.356607 0)
(-0.0279123 -0.208375 0)
(-0.029649 0.239176 0)
(-0.0608414 0.335767 0)
(-0.0219428 0.300502 0)
(0.050541 0.240126 0)
(0.127571 0.182948 0)
(0.197006 0.135388 0)
(0.254334 0.097398 0)
(0.298248 0.0668503 0)
(0.328821 0.0413548 0)
(0.346463 0.0187784 0)
(0.351372 -0.00279404 0)
(0.343299 -0.0252647 0)
(0.321465 -0.0507871 0)
(0.28464 -0.0820473 0)
(0.23157 -0.122445 0)
(0.162179 -0.175668 0)
(0.0798994 -0.24343 0)
(-0.00319057 -0.319135 0)
(-0.0546698 -0.368612 0)
(-0.0284594 -0.267618 0)
(0.00808311 0.281861 0)
(0.019783 0.294972 0)
(0.139066 0.210972 0)
(0.264459 0.143477 0)
(0.364367 0.0971855 0)
(0.440362 0.065777 0)
(0.496741 0.0442371 0)
(0.536871 0.0288857 0)
(0.563444 0.0171987 0)
(0.578303 0.0074847 0)
(0.582377 -0.00149407 0)
(0.575693 -0.0108451 0)
(0.557306 -0.0218468 0)
(0.525133 -0.0363346 0)
(0.475775 -0.0572592 0)
(0.404536 -0.0893837 0)
(0.305175 -0.139741 0)
(0.173416 -0.216386 0)
(0.0411719 -0.311655 0)
(0.0184302 -0.299995 0)
(0.299604 0.146091 0)
(0.396272 0.127503 0)
(0.55742 0.0760895 0)
(0.674487 0.0437232 0)
(0.743888 0.025572 0)
(0.787153 0.0152421 0)
(0.815484 0.00921226 0)
(0.833954 0.00550936 0)
(0.845384 0.00302714 0)
(0.85137 0.00114933 0)
(0.852665 -0.00049937 0)
(0.849381 -0.00221503 0)
(0.840998 -0.0043385 0)
(0.82614 -0.00742401 0)
(0.802077 -0.0125322 0)
(0.76362 -0.0217728 0)
(0.699108 -0.0392829 0)
(0.583952 -0.0726601 0)
(0.415827 -0.127868 0)
(0.308819 -0.149468 0)
)
;

boundaryField
{
    movingWall
    {
        type            fixedValue;
        value           uniform (1 0 0);
    }
    fixedWalls
    {
        type            noSlip;
    }
    frontAndBack
    {
        type            empty;
    }
}


// ************************************************************************* //
