/*--------------------------------*- C++ -*----------------------------------*\
  =========                 |
  \\      /  F ield         | OpenFOAM: The Open Source CFD Toolbox
   \\    /   O peration     | Website:  https://openfoam.org
    \\  /    A nd           | Version:  8
     \\/     M anipulation  |
\*---------------------------------------------------------------------------*/
FoamFile
{
    version     2.0;
    format      ascii;
    class       volVectorField;
    location    "1.5";
    object      U;
}
// * * * * * * * * * * * * * * * * * * * * * * * * * * * * * * * * * * * * * //

dimensions      [0 1 -1 0 0 0 0];

internalField   nonuniform List<vector> 
400
(
(0.0249907 -4.27669e-16 0)
(0.0249907 -3.42567e-16 0)
(0.0249907 -1.91007e-16 0)
(0.0249907 -3.80684e-17 0)
(0.0249907 7.10202e-17 0)
(0.0249907 1.61849e-17 0)
(0.0249907 -2.40838e-17 0)
(0.0249907 -1.44575e-16 0)
(0.0249907 -1.83258e-16 0)
(0.0249907 -2.60326e-16 0)
(0.0249907 -2.64706e-16 0)
(0.0249907 -2.44442e-16 0)
(0.0249907 -1.8935e-16 0)
(0.0249907 -8.16106e-17 0)
(0.0249907 -1.20341e-17 0)
(0.0249907 1.10162e-16 0)
(0.0249907 1.02903e-16 0)
(0.0249907 9.06661e-17 0)
(0.0249907 -8.19864e-17 0)
(0.0249907 -2.56314e-16 0)
(0.0749725 -9.26375e-18 0)
(0.0749725 -4.8552e-16 0)
(0.0749725 -8.09086e-16 0)
(0.0749725 -1.01091e-15 0)
(0.0749725 -1.33768e-15 0)
(0.0749725 -1.65636e-15 0)
(0.0749725 -2.01634e-15 0)
(0.0749725 -2.11923e-15 0)
(0.0749725 -2.10038e-15 0)
(0.0749725 -1.75897e-15 0)
(0.0749725 -1.24092e-15 0)
(0.0749725 -5.07362e-16 0)
(0.0749725 3.44824e-16 0)
(0.0749725 1.19285e-15 0)
(0.0749725 2.00232e-15 0)
(0.0749725 2.52045e-15 0)
(0.0749725 2.78648e-15 0)
(0.0749725 2.50677e-15 0)
(0.0749725 1.89168e-15 0)
(0.0749725 9.18752e-16 0)
(0.124955 9.53064e-16 0)
(0.124955 -1.50734e-15 0)
(0.124955 -3.59999e-15 0)
(0.124955 -5.32135e-15 0)
(0.124955 -6.67162e-15 0)
(0.124955 -7.74428e-15 0)
(0.124955 -8.16023e-15 0)
(0.124955 -7.9382e-15 0)
(0.124955 -6.85695e-15 0)
(0.124955 -5.11044e-15 0)
(0.124955 -2.70013e-15 0)
(0.124955 2.91194e-17 0)
(0.124955 2.8762e-15 0)
(0.124955 5.56586e-15 0)
(0.124955 7.6996e-15 0)
(0.124955 9.09676e-15 0)
(0.124955 9.38768e-15 0)
(0.124955 8.54277e-15 0)
(0.124955 6.50519e-15 0)
(0.124955 3.88856e-15 0)
(0.174938 1.95483e-15 0)
(0.174938 -3.88386e-15 0)
(0.174938 -8.99236e-15 0)
(0.174938 -1.31573e-14 0)
(0.174938 -1.63154e-14 0)
(0.174938 -1.81042e-14 0)
(0.174938 -1.8397e-14 0)
(0.174938 -1.69255e-14 0)
(0.174938 -1.38878e-14 0)
(0.174938 -9.36822e-15 0)
(0.174938 -3.87129e-15 0)
(0.174938 2.18944e-15 0)
(0.174938 8.12832e-15 0)
(0.174938 1.33825e-14 0)
(0.174938 1.73966e-14 0)
(0.174938 1.95928e-14 0)
(0.174938 1.97537e-14 0)
(0.174938 1.76282e-14 0)
(0.174938 1.35344e-14 0)
(0.174938 7.96702e-15 0)
(0.224923 2.4297e-15 0)
(0.224923 -7.43938e-15 0)
(0.224923 -1.63074e-14 0)
(0.224923 -2.35221e-14 0)
(0.224923 -2.86123e-14 0)
(0.224923 -3.11402e-14 0)
(0.224923 -3.0791e-14 0)
(0.224923 -2.75914e-14 0)
(0.224923 -2.16733e-14 0)
(0.224923 -1.36574e-14 0)
(0.224923 -4.13867e-15 0)
(0.224923 5.87501e-15 0)
(0.224923 1.55107e-14 0)
(0.224923 2.3692e-14 0)
(0.224923 2.95907e-14 0)
(0.224923 3.25669e-14 0)
(0.224923 3.20943e-14 0)
(0.224923 2.83117e-14 0)
(0.224923 2.14725e-14 0)
(0.224923 1.24678e-14 0)
(0.27491 2.26785e-15 0)
(0.27491 -1.16542e-14 0)
(0.27491 -2.41736e-14 0)
(0.27491 -3.43068e-14 0)
(0.27491 -4.11439e-14 0)
(0.27491 -4.41486e-14 0)
(0.27491 -4.29993e-14 0)
(0.27491 -3.77514e-14 0)
(0.27491 -2.88503e-14 0)
(0.27491 -1.71185e-14 0)
(0.27491 -3.64087e-15 0)
(0.27491 1.03494e-14 0)
(0.27491 2.34305e-14 0)
(0.27491 3.43559e-14 0)
(0.27491 4.19157e-14 0)
(0.27491 4.533e-14 0)
(0.27491 4.41031e-14 0)
(0.27491 3.83589e-14 0)
(0.27491 2.87423e-14 0)
(0.27491 1.61799e-14 0)
(0.3249 1.52918e-15 0)
(0.3249 -1.53881e-14 0)
(0.3249 -3.07148e-14 0)
(0.3249 -4.29442e-14 0)
(0.3249 -5.10558e-14 0)
(0.3249 -5.42678e-14 0)
(0.3249 -5.23076e-14 0)
(0.3249 -4.5304e-14 0)
(0.3249 -3.3941e-14 0)
(0.3249 -1.92548e-14 0)
(0.3249 -2.6004e-15 0)
(0.3249 1.43384e-14 0)
(0.3249 3.00616e-14 0)
(0.3249 4.29001e-14 0)
(0.3249 5.16137e-14 0)
(0.3249 5.51432e-14 0)
(0.3249 5.31635e-14 0)
(0.3249 4.58196e-14 0)
(0.3249 3.38261e-14 0)
(0.3249 1.85563e-14 0)
(0.374891 6.5184e-16 0)
(0.374891 -1.77634e-14 0)
(0.374891 -3.42906e-14 0)
(0.374891 -4.75027e-14 0)
(0.374891 -5.60178e-14 0)
(0.374891 -5.91977e-14 0)
(0.374891 -5.6631e-14 0)
(0.374891 -4.86266e-14 0)
(0.374891 -3.59054e-14 0)
(0.374891 -1.96796e-14 0)
(0.374891 -1.53066e-15 0)
(0.374891 1.69293e-14 0)
(0.374891 3.37514e-14 0)
(0.374891 4.7433e-14 0)
(0.374891 5.64019e-14 0)
(0.374891 5.98392e-14 0)
(0.374891 5.72873e-14 0)
(0.374891 4.90199e-14 0)
(0.374891 3.58134e-14 0)
(0.374891 1.91463e-14 0)
(0.424885 -1.55992e-16 0)
(0.424885 -1.80879e-14 0)
(0.424885 -3.42209e-14 0)
(0.424885 -4.68933e-14 0)
(0.424885 -5.5068e-14 0)
(0.424885 -5.77895e-14 0)
(0.424885 -5.5034e-14 0)
(0.424885 -4.69132e-14 0)
(0.424885 -3.42699e-14 0)
(0.424885 -1.82894e-14 0)
(0.424885 -4.69014e-16 0)
(0.424885 1.74739e-14 0)
(0.424885 3.38041e-14 0)
(0.424885 4.68124e-14 0)
(0.424885 5.5328e-14 0)
(0.424885 5.82725e-14 0)
(0.424885 5.55277e-14 0)
(0.424885 4.71948e-14 0)
(0.424885 3.42604e-14 0)
(0.424885 1.79206e-14 0)
(0.474883 -8.63133e-16 0)
(0.474883 -1.65581e-14 0)
(0.474883 -3.05354e-14 0)
(0.474883 -4.15504e-14 0)
(0.474883 -4.84064e-14 0)
(0.474883 -5.05942e-14 0)
(0.474883 -4.7835e-14 0)
(0.474883 -4.05305e-14 0)
(0.474883 -2.93002e-14 0)
(0.474883 -1.51676e-14 0)
(0.474883 4.98177e-16 0)
(0.474883 1.613e-14 0)
(0.474883 3.02158e-14 0)
(0.474883 4.14333e-14 0)
(0.474883 4.85494e-14 0)
(0.474883 5.0946e-14 0)
(0.474883 4.81622e-14 0)
(0.474883 4.07364e-14 0)
(0.474883 2.92655e-14 0)
(0.474883 1.4938e-14 0)
(0.524883 -1.62533e-15 0)
(0.524883 -1.3733e-14 0)
(0.524883 -2.44336e-14 0)
(0.524883 -3.26924e-14 0)
(0.524883 -3.77609e-14 0)
(0.524883 -3.90826e-14 0)
(0.524883 -3.67197e-14 0)
(0.524883 -3.0746e-14 0)
(0.524883 -2.19106e-14 0)
(0.524883 -1.0808e-14 0)
(0.524883 1.33546e-15 0)
(0.524883 1.34269e-14 0)
(0.524883 2.41631e-14 0)
(0.524883 3.25553e-14 0)
(0.524883 3.78377e-14 0)
(0.524883 3.93068e-14 0)
(0.524883 3.69995e-14 0)
(0.524883 3.08719e-14 0)
(0.524883 2.18188e-14 0)
(0.524883 1.05969e-14 0)
(0.574886 -2.44227e-15 0)
(0.574886 -1.03819e-14 0)
(0.574886 -1.72624e-14 0)
(0.574886 -2.24827e-14 0)
(0.574886 -2.53757e-14 0)
(0.574886 -2.58894e-14 0)
(0.574886 -2.3848e-14 0)
(0.574886 -1.96192e-14 0)
(0.574886 -1.3433e-14 0)
(0.574886 -5.96914e-15 0)
(0.574886 2.17993e-15 0)
(0.574886 1.01642e-14 0)
(0.574886 1.71122e-14 0)
(0.574886 2.23702e-14 0)
(0.574886 2.54034e-14 0)
(0.574886 2.6013e-14 0)
(0.574886 2.40329e-14 0)
(0.574886 1.96746e-14 0)
(0.574886 1.33295e-14 0)
(0.574886 5.72379e-15 0)
(0.624891 -3.16203e-15 0)
(0.624891 -7.13774e-15 0)
(0.624891 -1.04505e-14 0)
(0.624891 -1.27335e-14 0)
(0.624891 -1.37959e-14 0)
(0.624891 -1.34364e-14 0)
(0.624891 -1.1844e-14 0)
(0.624891 -9.07384e-15 0)
(0.624891 -5.51786e-15 0)
(0.624891 -1.3427e-15 0)
(0.624891 2.98964e-15 0)
(0.624891 7.08658e-15 0)
(0.624891 1.04647e-14 0)
(0.624891 1.27756e-14 0)
(0.624891 1.37901e-14 0)
(0.624891 1.34123e-14 0)
(0.624891 1.18099e-14 0)
(0.624891 9.02125e-15 0)
(0.624891 5.3616e-15 0)
(0.624891 1.12367e-15 0)
(0.6749 -3.63312e-15 0)
(0.6749 -4.53871e-15 0)
(0.6749 -5.02159e-15 0)
(0.6749 -5.02554e-15 0)
(0.6749 -4.57506e-15 0)
(0.6749 -3.6788e-15 0)
(0.6749 -2.42091e-15 0)
(0.6749 -9.42085e-16 0)
(0.6749 6.89792e-16 0)
(0.6749 2.20835e-15 0)
(0.6749 3.58543e-15 0)
(0.6749 4.55631e-15 0)
(0.6749 5.14588e-15 0)
(0.6749 5.14962e-15 0)
(0.6749 4.58798e-15 0)
(0.6749 3.63262e-15 0)
(0.6749 2.23661e-15 0)
(0.6749 7.69831e-16 0)
(0.6749 -8.46474e-16 0)
(0.6749 -2.31914e-15 0)
(0.72491 -3.59662e-15 0)
(0.72491 -2.62724e-15 0)
(0.72491 -1.38508e-15 0)
(0.72491 -1.75838e-17 0)
(0.72491 1.28355e-15 0)
(0.72491 2.40306e-15 0)
(0.72491 3.26451e-15 0)
(0.72491 3.93821e-15 0)
(0.72491 4.25919e-15 0)
(0.72491 4.18734e-15 0)
(0.72491 3.59034e-15 0)
(0.72491 2.72053e-15 0)
(0.72491 1.55972e-15 0)
(0.72491 1.68025e-16 0)
(0.72491 -1.24767e-15 0)
(0.72491 -2.52248e-15 0)
(0.72491 -3.54937e-15 0)
(0.72491 -4.22174e-15 0)
(0.72491 -4.41289e-15 0)
(0.72491 -4.2351e-15 0)
(0.774924 -3.00773e-15 0)
(0.774924 -1.19512e-15 0)
(0.774924 6.18675e-16 0)
(0.774924 2.42146e-15 0)
(0.774924 3.83304e-15 0)
(0.774924 4.79885e-15 0)
(0.774924 5.42569e-15 0)
(0.774924 5.57421e-15 0)
(0.774924 5.29077e-15 0)
(0.774924 4.40803e-15 0)
(0.774924 3.07315e-15 0)
(0.774924 1.44566e-15 0)
(0.774924 -3.63858e-16 0)
(0.774924 -2.16119e-15 0)
(0.774924 -3.77747e-15 0)
(0.774924 -5.06744e-15 0)
(0.774924 -5.77148e-15 0)
(0.774924 -5.88026e-15 0)
(0.774924 -5.47423e-15 0)
(0.774924 -4.45884e-15 0)
(0.824938 -2.0179e-15 0)
(0.824938 -3.73149e-16 0)
(0.824938 1.29779e-15 0)
(0.824938 2.70267e-15 0)
(0.824938 3.84745e-15 0)
(0.824938 4.55282e-15 0)
(0.824938 4.90343e-15 0)
(0.824938 4.8937e-15 0)
(0.824938 4.42898e-15 0)
(0.824938 3.46131e-15 0)
(0.824938 2.14961e-15 0)
(0.824938 5.91575e-16 0)
(0.824938 -1.05683e-15 0)
(0.824938 -2.49831e-15 0)
(0.824938 -3.83152e-15 0)
(0.824938 -4.78934e-15 0)
(0.824938 -5.22598e-15 0)
(0.824938 -5.18957e-15 0)
(0.824938 -4.5592e-15 0)
(0.824938 -3.50811e-15 0)
(0.874955 -1.03189e-15 0)
(0.874955 6.42692e-17 0)
(0.874955 1.01917e-15 0)
(0.874955 1.8699e-15 0)
(0.874955 2.4588e-15 0)
(0.874955 2.8539e-15 0)
(0.874955 3.02045e-15 0)
(0.874955 2.94859e-15 0)
(0.874955 2.69818e-15 0)
(0.874955 2.0339e-15 0)
(0.874955 1.16287e-15 0)
(0.874955 1.42865e-16 0)
(0.874955 -8.67662e-16 0)
(0.874955 -1.79798e-15 0)
(0.874955 -2.5907e-15 0)
(0.874955 -3.13163e-15 0)
(0.874955 -3.25964e-15 0)
(0.874955 -3.1787e-15 0)
(0.874955 -2.74084e-15 0)
(0.874955 -1.98895e-15 0)
(0.924973 -2.78432e-16 0)
(0.924973 7.82708e-17 0)
(0.924973 4.99154e-16 0)
(0.924973 8.30208e-16 0)
(0.924973 9.32037e-16 0)
(0.924973 1.08071e-15 0)
(0.924973 1.16117e-15 0)
(0.924973 1.04755e-15 0)
(0.924973 1.00873e-15 0)
(0.924973 8.23379e-16 0)
(0.924973 4.02376e-16 0)
(0.924973 2.24358e-17 0)
(0.924973 -3.98732e-16 0)
(0.924973 -8.00002e-16 0)
(0.924973 -1.1579e-15 0)
(0.924973 -1.22744e-15 0)
(0.924973 -1.30407e-15 0)
(0.924973 -1.13958e-15 0)
(0.924973 -9.98599e-16 0)
(0.924973 -6.91383e-16 0)
(0.974991 -2.39694e-17 0)
(0.974991 5.01199e-18 0)
(0.974991 1.00001e-16 0)
(0.974991 1.89046e-16 0)
(0.974991 9.40917e-17 0)
(0.974991 1.72159e-16 0)
(0.974991 1.40788e-16 0)
(0.974991 1.14869e-16 0)
(0.974991 1.37138e-16 0)
(0.974991 1.3634e-16 0)
(0.974991 7.52824e-17 0)
(0.974991 -4.79787e-17 0)
(0.974991 -7.90234e-17 0)
(0.974991 -1.88138e-16 0)
(0.974991 -2.12338e-16 0)
(0.974991 -1.94591e-16 0)
(0.974991 -2.01651e-16 0)
(0.974991 -1.64325e-16 0)
(0.974991 -1.33548e-16 0)
(0.974991 -8.17549e-17 0)
)
;

boundaryField
{
    movingWall
    {
        type            fixedValue;
        value           uniform (1 0 0);
    }
    fixedWalls
    {
        type            noSlip;
    }
    left
    {
        type            cyclic;
    }
    right
    {
        type            cyclic;
    }
    frontAndBack
    {
        type            empty;
    }
}


// ************************************************************************* //
