/*--------------------------------*- C++ -*----------------------------------*\
  =========                 |
  \\      /  F ield         | OpenFOAM: The Open Source CFD Toolbox
   \\    /   O peration     | Website:  https://openfoam.org
    \\  /    A nd           | Version:  8
     \\/     M anipulation  |
\*---------------------------------------------------------------------------*/
FoamFile
{
    version     2.0;
    format      ascii;
    class       volScalarField;
    location    "0.356";
    object      T;
}
// * * * * * * * * * * * * * * * * * * * * * * * * * * * * * * * * * * * * * //

dimensions      [0 0 0 1 0 0 0];

internalField   nonuniform List<scalar> 
10000
(
50
4.65429
-4.65375
-1.18676
1.18425
0.462196
-0.454888
-0.237009
0.220847
0.151369
-0.121554
-0.115084
0.0671002
0.0974599
-0.0287979
-0.0846807
-0.0028579
0.0690396
0.0290418
-0.0466028
-0.0464156
0.0176642
0.0500163
0.0124304
-0.0369949
-0.0341509
0.0106961
0.037927
0.0175136
-0.02107
-0.0320613
-0.00673064
0.0233006
0.0260551
0.00209319
-0.0215259
-0.022103
-0.002046
0.0177498
0.0198904
0.00494774
-0.0123611
-0.0178754
-0.0090767
0.00531116
0.0140837
0.0120883
0.00246452
-0.00730598
-0.0112063
-0.0080559
-0.00101966
0.00531522
0.00784346
0.00618251
0.00209732
-0.00199258
-0.00435002
-0.00449195
-0.00299284
-0.000889825
0.000894887
0.00187033
0.00200099
0.00154632
0.000854962
0.000211542
-0.000229363
-0.00043656
-0.000457821
-0.000370267
-0.000244571
-0.000128066
-4.29554e-05
7.28597e-06
2.9404e-05
3.33665e-05
2.81364e-05
1.99627e-05
1.2314e-05
6.57543e-06
2.89257e-06
8.51079e-07
-9.48779e-08
-4.13095e-07
-4.28318e-07
-3.32263e-07
-2.20564e-07
-1.30572e-07
-6.9777e-08
-3.34657e-08
-1.39804e-08
-4.62488e-09
-7.21719e-10
5.64442e-10
7.60884e-10
6.04964e-10
3.86953e-10
2.36138e-10
9.73278e-11
95.3458
49.9998
10.4945
-4.652
-2.83267
1.17816
1.1535
-0.440466
-0.608842
0.193302
0.388187
-0.0762253
-0.280771
0.00109102
0.213299
0.0567583
-0.154426
-0.10048
0.090776
0.12384
-0.0213811
-0.118158
-0.0435408
0.0797605
0.0858126
-0.0174489
-0.0880487
-0.0446907
0.0470655
0.0752007
0.0157966
-0.0550521
-0.0599259
-0.0018316
0.0523193
0.0493935
-0.000588526
-0.0448552
-0.0439679
-0.00470991
0.0342176
0.0407182
0.01424
-0.0199349
-0.0351931
-0.0235499
0.00257848
0.0233806
0.0264984
0.0132357
-0.00551178
-0.0181129
-0.0190541
-0.0103633
0.00152597
0.010298
0.012813
0.00962199
0.00356082
-0.00222392
-0.00569493
-0.00635995
-0.00490992
-0.00252445
-0.000261023
0.00126488
0.00190846
0.00184757
0.00138919
0.000819073
0.000326333
-6.83091e-06
-0.000177999
-0.000226773
-0.000203422
-0.000150263
-9.47943e-05
-5.04714e-05
-2.08494e-05
-4.10385e-06
3.5308e-06
5.74716e-06
5.31564e-06
3.95959e-06
2.56673e-06
1.48307e-06
7.63708e-07
3.41686e-07
1.21836e-07
2.23047e-08
-1.39181e-08
-2.12097e-08
-1.78108e-08
-1.21176e-08
-7.26158e-09
-3.95102e-09
-1.96668e-09
-8.95075e-10
-3.71886e-10
-1.01232e-10
104.654
89.5056
49.9994
12.1402
-4.64837
-3.52394
1.16725
1.52594
-0.417315
-0.847533
0.152794
0.55763
-0.0145815
-0.402595
-0.0818864
0.290938
0.15513
-0.184579
-0.200472
0.0719496
0.204928
0.0385294
-0.158803
-0.122727
0.0678697
0.151364
0.0384956
-0.109046
-0.112436
0.0142907
0.112161
0.0770502
-0.0370348
-0.101128
-0.0562035
0.03963
0.0876862
0.0491599
-0.0296795
-0.0740696
-0.0508389
0.0114052
0.0573785
0.0540144
0.0113122
-0.0339053
-0.0499754
-0.0311213
0.00450654
0.0320165
0.0367797
0.0206074
-0.00348371
-0.0214049
-0.0257547
-0.0176982
-0.0038889
0.00832444
0.0144393
0.0138343
0.00872806
0.00230315
-0.0028719
-0.00557508
-0.00585888
-0.00453279
-0.00258598
-0.000791112
0.000447021
0.00105442
0.00116155
0.000971634
0.000669151
0.000378069
0.000158294
2.21037e-05
-4.45544e-05
-6.46771e-05
-5.96567e-05
-4.48625e-05
-2.92265e-05
-1.67207e-05
-8.25917e-06
-3.27318e-06
-7.32748e-07
3.25951e-07
6.09377e-07
5.56979e-07
4.03998e-07
2.55461e-07
1.45307e-07
7.49731e-08
3.48215e-08
1.41106e-08
4.5231e-09
6.74583e-10
-5.51899e-10
-6.87979e-10
-5.79287e-10
-2.85697e-10
101.187
104.653
87.8598
49.9989
12.8316
-4.64225
-3.89727
1.15036
1.76715
-0.383995
-1.02209
0.098123
0.687864
0.0634702
-0.491846
-0.179705
0.334376
0.261019
-0.177372
-0.294388
0.0173306
0.262683
0.122817
-0.161914
-0.20405
0.0165949
0.192537
0.116877
-0.0889645
-0.171008
-0.0521886
0.11196
0.139824
0.019169
-0.108773
-0.116448
-0.011733
0.0930112
0.10273
0.0215466
-0.0689191
-0.0926911
-0.0403512
0.0365056
0.0769387
0.0576493
0.00167366
-0.0475952
-0.0598589
-0.0343288
0.00683741
0.0373931
0.0430853
0.0263424
0.000429563
-0.0203722
-0.0280545
-0.0227493
-0.0101178
0.00290277
0.0114275
0.0138785
0.0114136
0.00648549
0.00146581
-0.00214747
-0.00388126
-0.00401642
-0.00317811
-0.00199421
-0.000907514
-0.000132754
0.000296588
0.000450234
0.000431538
0.000333326
0.000219295
0.000123088
5.59439e-05
1.61382e-05
-3.38717e-06
-1.02901e-05
-1.06348e-05
-8.3695e-06
-5.64219e-06
-3.37761e-06
-1.8089e-06
-8.54323e-07
-3.37269e-07
-9.06609e-08
7.9773e-09
3.5482e-08
3.42555e-08
2.48095e-08
1.54741e-08
8.68856e-09
4.45323e-09
2.08767e-09
9.05569e-10
2.61815e-10
98.8153
102.833
104.65
87.1683
49.9983
13.2056
-4.63302
-4.14076
1.12641
1.94693
-0.339249
-1.16169
0.0284978
0.791116
0.157299
-0.552866
-0.289232
0.344954
0.368181
-0.135027
-0.373657
-0.0666317
0.289214
0.219246
-0.125275
-0.27177
-0.066025
0.197187
0.199657
-0.0283516
-0.201034
-0.135499
0.0683424
0.180361
0.0981388
-0.0724622
-0.156047
-0.0857362
0.0544769
0.13187
0.0890429
-0.021837
-0.102491
-0.0951821
-0.0187376
0.0611207
0.0886503
0.0543688
-0.00901571
-0.0573586
-0.0651046
-0.0359108
0.00690608
0.0384085
0.0456934
0.0310606
0.00643798
-0.0151452
-0.0257937
-0.0245142
-0.0153177
-0.00387408
0.00527707
0.0100039
0.0104342
0.00802632
0.00454279
0.00135134
-0.000837856
-0.00190185
-0.0020782
-0.00173067
-0.00118739
-0.000667762
-0.000276982
-3.57643e-05
8.161e-05
0.000116406
0.000106783
8.00537e-05
5.20299e-05
2.96994e-05
1.46287e-05
5.76825e-06
1.26553e-06
-6.02921e-07
-1.09647e-06
-9.96681e-07
-7.20937e-07
-4.54962e-07
-2.58298e-07
-1.32981e-07
-6.15674e-08
-2.48054e-08
-7.83532e-09
-1.05927e-09
1.07375e-09
1.28014e-09
1.06817e-09
5.26769e-10
99.5381
98.8203
103.524
104.646
86.7942
49.9974
13.4505
-4.62009
-4.32479
1.09436
2.09533
-0.28202
-1.27955
-0.0564471
0.872447
0.265554
-0.586825
-0.40644
0.323233
0.46976
-0.0607238
-0.430224
-0.171617
0.279181
0.314416
-0.0513144
-0.311938
-0.167067
0.159296
0.267564
0.0636222
-0.189091
-0.213745
-0.0132805
0.180136
0.176091
0.00378841
-0.15394
-0.15596
-0.0213976
0.116328
0.143125
0.0535673
-0.066077
-0.122183
-0.0844926
0.00568882
0.0795698
0.092821
0.0483503
-0.0167862
-0.0618725
-0.0667877
-0.0376526
0.00358132
0.034785
0.0445318
0.0342306
0.0134674
-0.00680932
-0.0193209
-0.0221147
-0.0174174
-0.00926279
-0.00135366
0.0040953
0.00650154
0.0064277
0.00491697
0.00296434
0.00124285
5.69966e-05
-0.000569629
-0.000765636
-0.000702347
-0.000527202
-0.000337919
-0.000183734
-7.90055e-05
-1.86854e-05
9.65814e-06
1.86453e-05
1.79338e-05
1.3638e-05
8.97791e-06
5.26311e-06
2.75558e-06
1.26235e-06
4.71503e-07
1.05196e-07
-3.39972e-08
-6.70652e-08
-5.92858e-08
-4.13712e-08
-2.52341e-08
-1.39403e-08
-7.05038e-09
-3.26616e-09
-1.3985e-09
-3.99825e-10
100.456
98.8464
98.8299
103.898
104.638
86.5491
49.9965
13.637
-4.6029
-4.48007
1.05328
2.22649
-0.211454
-1.38167
-0.156639
0.933442
0.386191
-0.593519
-0.52655
0.269984
0.558664
0.0409427
-0.45719
-0.287642
0.23042
0.394817
0.0529491
-0.314009
-0.270287
0.0799528
0.303204
0.170677
-0.130491
-0.264693
-0.11684
0.130801
0.227292
0.102251
-0.101596
-0.194363
-0.112281
0.0523341
0.156231
0.128316
0.00948199
-0.1007
-0.12752
-0.0672204
0.0264422
0.0900029
0.0918288
0.0430794
-0.0196099
-0.0610326
-0.0656654
-0.040005
-0.00294815
0.0268469
0.0393159
0.0345768
0.0194698
0.00248228
-0.0101249
-0.0158318
-0.0153441
-0.0110857
-0.00569253
-0.001069
0.00190042
0.00317553
0.00319407
0.00252582
0.00165015
0.000867855
0.000308165
-1.896e-05
-0.000164161
-0.000194055
-0.000166023
-0.00011907
-7.45094e-05
-4.08091e-05
-1.89591e-05
-6.62058e-06
-6.72768e-07
1.56421e-06
1.95714e-06
1.6181e-06
1.11389e-06
6.78777e-07
3.73905e-07
1.86642e-07
8.3207e-08
3.16223e-08
8.71926e-09
1.11321e-10
-2.23697e-09
-2.14228e-09
-1.64113e-09
-7.72488e-10
100.237
100.442
98.4733
98.8453
104.142
104.627
86.3622
49.9953
13.7962
-4.5809
-4.62143
1.00229
2.34735
-0.126917
-1.47044
-0.271561
0.973942
0.516512
-0.572336
-0.644212
0.186757
0.627971
0.163823
-0.449385
-0.403553
0.144323
0.44803
0.176453
-0.272202
-0.35818
-0.032593
0.294009
0.272165
-0.0305423
-0.270637
-0.218977
0.0368367
0.231138
0.196032
-0.00652633
-0.180848
-0.187153
-0.0447238
0.114561
0.169634
0.097441
-0.0313969
-0.121709
-0.122589
-0.0497779
0.0400057
0.0929304
0.0881302
0.040489
-0.0170054
-0.0551652
-0.0617645
-0.0421511
-0.0113276
0.0156902
0.030148
0.0309045
0.0221537
0.00989593
-0.000906329
-0.0076444
-0.00999081
-0.00906087
-0.00644797
-0.00352849
-0.00115088
0.000366815
0.00107701
0.00120998
0.00102451
0.000725516
0.000438805
0.000220615
8.07487e-05
5.46827e-06
-2.60671e-05
-3.27334e-05
-2.80302e-05
-1.99971e-05
-1.25468e-05
-7.03114e-06
-3.49542e-06
-1.48504e-06
-4.73572e-07
-3.77634e-08
1.0544e-07
1.21167e-07
9.40599e-08
6.13107e-08
3.55933e-08
1.88162e-08
9.06835e-09
3.97053e-09
1.53156e-09
3.59204e-10
99.7781
100.609
100.421
98.2311
98.8675
104.327
104.612
86.2027
49.9941
13.9433
-4.55354
-4.75658
0.940588
2.46123
-0.0279926
-1.54631
-0.400255
0.99295
0.653229
-0.522815
-0.753717
0.0761827
0.671345
0.300297
-0.403864
-0.507711
0.0259324
0.463941
0.305097
-0.186392
-0.414303
-0.163875
0.234546
0.346649
0.0960004
-0.222529
-0.29415
-0.0847762
0.178198
0.25639
0.108881
-0.110702
-0.216792
-0.144565
0.0249198
0.154759
0.161769
0.0620598
-0.0620162
-0.130021
-0.112651
-0.036523
0.0453396
0.0896666
0.0831762
0.0408549
-0.00963667
-0.0447932
-0.0545764
-0.0424114
-0.0192508
0.00342748
0.0182453
0.0231633
0.0201862
0.0130853
0.00542288
-0.000517123
-0.00390315
-0.00497556
-0.00449529
-0.00328555
-0.00197116
-0.000902563
-0.000196753
0.000176125
0.0003097
0.000304216
0.000237955
0.0001599
9.40585e-05
4.77908e-05
1.96311e-05
4.81658e-06
-1.60575e-06
-3.4781e-06
-3.29425e-06
-2.4424e-06
-1.57079e-06
-9.06095e-07
-4.72952e-07
-2.21532e-07
-9.00051e-08
-2.84369e-08
-3.49631e-09
4.30253e-09
5.26754e-09
3.95296e-09
2.70872e-09
1.21164e-09
99.8487
99.8043
100.849
100.389
98.05
98.8976
104.483
104.592
86.0551
49.9926
14.0865
-4.52031
-4.88967
0.867454
2.56951
0.0855045
-1.60872
-0.541326
0.989147
0.79254
-0.44499
-0.849226
-0.0578819
0.683439
0.441531
-0.320271
-0.588817
-0.116283
0.435831
0.423135
-0.0624051
-0.425578
-0.29507
0.127833
0.375788
0.227278
-0.122525
-0.320479
-0.207917
0.0736602
0.260967
0.213082
0.00247616
-0.184292
-0.212034
-0.0860631
0.0815028
0.17234
0.14195
0.0310354
-0.0800376
-0.128817
-0.101914
-0.0294112
0.0429267
0.0813552
0.0771235
0.0430208
0.000863103
-0.0308925
-0.0437238
-0.0390293
-0.0240473
-0.00700972
0.00619084
0.0131292
0.0142646
0.0115981
0.00738835
0.00335106
0.000393854
-0.00127434
-0.00187365
-0.00178665
-0.0013759
-0.000898807
-0.000495297
-0.000213879
-4.84046e-05
3.0631e-05
5.59237e-05
5.36489e-05
4.09283e-05
2.704e-05
1.58797e-05
8.29341e-06
3.75388e-06
1.34721e-06
2.39939e-07
-1.69233e-07
-2.52905e-07
-2.13586e-07
-1.467e-07
-8.89153e-08
-4.89567e-08
-2.47547e-08
-1.14433e-08
-4.79792e-09
-1.7419e-09
-3.73836e-10
100.123
99.6105
99.8435
101.026
100.346
97.8999
98.9366
104.626
104.568
85.9113
49.9911
14.2303
-4.48069
-5.02292
0.782246
2.67245
0.213528
-1.65647
-0.692963
0.961209
0.930229
-0.339614
-0.925017
-0.210339
0.660266
0.577867
-0.201037
-0.636772
-0.270956
0.361227
0.514816
0.0883564
-0.384293
-0.405579
-0.014596
0.347896
0.338144
0.0156134
-0.28512
-0.303096
-0.0628036
0.200785
0.274228
0.129534
-0.0921019
-0.219634
-0.180474
-0.0288862
0.118678
0.172613
0.119021
0.00924157
-0.0861801
-0.121361
-0.0926071
-0.0283646
0.0340679
0.0687228
0.0691302
0.0448133
0.0119684
-0.0153377
-0.0298403
-0.031276
-0.0238204
-0.0129062
-0.00289895
0.00387573
0.00699492
0.00723694
0.00581349
0.00382206
0.00199168
0.000660418
-0.000122993
-0.000466582
-0.000526913
-0.000444038
-0.000315407
-0.000195088
-0.00010469
-4.65101e-05
-1.41034e-05
1.04713e-06
6.2618e-06
6.64059e-06
5.20941e-06
3.48979e-06
2.08592e-06
1.12822e-06
5.50625e-07
2.37018e-07
8.39226e-08
1.82222e-08
-4.84783e-09
-9.69491e-09
-8.25854e-09
-5.41842e-09
-3.33307e-09
-1.36462e-09
100.115
100.079
99.439
99.897
101.167
100.29
97.7665
98.9855
104.763
104.537
85.7668
49.9894
14.3775
-4.43418
-5.15748
0.684398
2.76965
0.355794
-1.68808
-0.852955
0.908022
1.06177
-0.208292
-0.975741
-0.374929
0.599522
0.699323
-0.0514158
-0.643538
-0.424642
0.242407
0.566145
0.249963
-0.289533
-0.476023
-0.173986
0.260564
0.404845
0.168491
-0.187981
-0.344447
-0.200954
0.0840086
0.269783
0.233718
0.0369992
-0.158251
-0.222696
-0.138248
0.0162334
0.136841
0.162527
0.0990385
-0.00189442
-0.082459
-0.109845
-0.084952
-0.0317697
0.0206561
0.0524454
0.0581017
0.0437462
0.0206127
-0.00101075
-0.0151117
-0.0203637
-0.0186853
-0.0132776
-0.00707517
-0.00197005
0.00128123
0.00275447
0.00294571
0.00243358
0.00168398
0.000984589
0.000462321
0.000135405
-3.30979e-05
-9.61639e-05
-0.000101017
-8.09873e-05
-5.55249e-05
-3.36875e-05
-1.81785e-05
-8.55442e-06
-3.26994e-06
-7.38984e-07
2.55757e-07
5.03654e-07
4.51498e-07
3.19232e-07
1.96727e-07
1.09215e-07
5.50986e-08
2.51291e-08
9.97752e-09
3.24589e-09
4.17522e-10
-3.19796e-10
99.9315
100.283
100.018
99.3063
99.9657
101.288
100.221
97.643
99.045
104.898
104.501
85.6187
49.9875
14.5298
-4.38029
-5.29384
0.573427
2.86025
0.511784
-1.70191
-1.01872
0.828829
1.18245
-0.0535577
-0.996671
-0.544401
0.500835
0.796158
0.120693
-0.603895
-0.562874
0.0864959
0.566566
0.403617
-0.1478
-0.491257
-0.326874
0.121857
0.409768
0.30718
-0.0428741
-0.316364
-0.306943
-0.0647685
0.194124
0.281685
0.165763
-0.0420968
-0.193191
-0.205453
-0.0980461
0.0450925
0.139764
0.147835
0.0847933
-0.00326818
-0.0710828
-0.0951787
-0.0776354
-0.0369208
0.00527529
0.0338413
0.0437254
0.038112
0.0241586
0.00896842
-0.00276103
-0.00926247
-0.0110079
-0.00958874
-0.00674567
-0.00379999
-0.00148071
-9.85755e-06
0.000707823
0.00090064
0.000803117
0.000593524
0.00037958
0.000210416
9.71566e-05
3.17363e-05
-1.21383e-07
-1.1855e-05
-1.33629e-05
-1.07889e-05
-7.36663e-06
-4.46318e-06
-2.43437e-06
-1.1895e-06
-5.05341e-07
-1.69338e-07
-2.59092e-08
2.26036e-08
3.05073e-08
2.45759e-08
1.64e-08
9.5964e-09
5.51286e-09
2.20422e-09
99.9017
99.997
100.408
99.94
99.2
100.05
101.393
100.138
97.5259
99.116
105.034
104.458
85.4653
49.9855
14.6883
-4.31854
-5.43206
0.448932
2.94312
0.680739
-1.69633
-1.18735
0.723346
1.2875
0.121105
-0.983949
-0.710748
0.36593
0.859467
0.305098
-0.516051
-0.671378
-0.0949021
0.510396
0.529759
0.0272866
-0.442986
-0.448548
-0.0502366
0.345381
0.402775
0.124358
-0.218217
-0.351777
-0.209861
0.0617356
0.254351
0.253724
0.0943606
-0.0972439
-0.20265
-0.179739
-0.067221
0.0579884
0.131813
0.131892
0.076292
0.00281943
-0.0541669
-0.0775067
-0.0686304
-0.0405698
-0.00880401
0.0153856
0.0273616
0.0281388
0.0217747
0.0128017
0.00460747
-0.00109432
-0.00402101
-0.00474642
-0.00413855
-0.00298147
-0.0018073
-0.000883584
-0.000280275
4.45119e-05
0.000174403
0.000191533
0.000157442
0.000109911
6.76026e-05
3.68159e-05
1.73573e-05
6.52174e-06
1.28575e-06
-7.68128e-07
-1.25229e-06
-1.10012e-06
-7.80071e-07
-4.86859e-07
-2.75916e-07
-1.43641e-07
-6.87071e-08
-2.98975e-08
-1.14359e-08
-3.61652e-09
-5.50265e-10
2.2e-10
100.03
99.7831
100.08
100.5
99.8458
99.1153
100.15
101.486
100.039
97.414
99.1991
105.171
104.407
85.3056
49.9833
14.8537
-4.24844
-5.57193
0.310596
3.01698
0.861664
-1.66977
-1.35563
0.591841
1.37224
0.311283
-0.934807
-0.865512
0.198695
0.881791
0.489863
-0.382035
-0.737367
-0.286527
0.397839
0.610433
0.216266
-0.331575
-0.516966
-0.230129
0.216573
0.432408
0.280547
-0.0658446
-0.319239
-0.313371
-0.0952957
0.154123
0.270477
0.20702
0.0351211
-0.127356
-0.195206
-0.153991
-0.0483111
0.0574888
0.116437
0.115667
0.0715471
0.013155
-0.0340516
-0.0571645
-0.0563232
-0.039869
-0.0182556
0.00038206
0.0120091
0.0162993
0.0151632
0.0111949
0.00660243
0.00275212
0.00018184
-0.001148
-0.00156042
-0.00143542
-0.00108349
-0.000703761
-0.000394059
-0.000182079
-5.75728e-05
3.74389e-06
2.63155e-05
2.88365e-05
2.32367e-05
1.59438e-05
9.73883e-06
5.37068e-06
2.66518e-06
1.16167e-06
4.12734e-07
8.60143e-08
-2.97907e-08
-5.36452e-08
-4.50091e-08
-2.98559e-08
-1.71858e-08
-8.82892e-09
-4.18961e-09
-1.30168e-09
100.086
99.9439
99.7025
100.179
100.564
99.7362
99.0505
100.266
101.566
99.9262
97.3069
99.295
105.311
104.349
85.1388
49.981
15.0265
-4.16953
-5.71306
0.158189
3.0804
1.05333
-1.62081
-1.5201
0.435192
1.43222
0.511701
-0.847765
-1.00013
0.0051369
0.857674
0.662016
-0.20782
-0.750803
-0.470703
0.235445
0.631632
0.395984
-0.166749
-0.516581
-0.388489
0.0408196
0.38452
0.391949
0.110783
-0.211188
-0.345443
-0.235252
0.00589825
0.206637
0.257096
0.158716
-0.0051123
-0.136456
-0.17844
-0.132452
-0.0404426
0.0469551
0.0958893
0.0984893
0.0674597
0.0239108
-0.0137504
-0.0356447
-0.0407193
-0.0336692
-0.0210658
-0.0084658
0.000892773
0.00606134
0.00763723
0.00688515
0.00507178
0.00312013
0.0015326
0.000470959
-0.000110549
-0.000345216
-0.000374166
-0.000307601
-0.000215293
-0.000132692
-7.22253e-05
-3.38299e-05
-1.24102e-05
-2.09806e-06
1.87435e-06
2.72219e-06
2.31972e-06
1.60936e-06
9.79631e-07
5.35807e-07
2.6363e-07
1.14263e-07
4.06105e-08
8.75041e-09
-2.79566e-09
-5.00208e-09
-4.82647e-09
-2.61356e-09
100.002
100.159
99.8437
99.6562
100.291
100.602
99.6134
99.0061
100.396
101.633
99.798
97.2051
99.4042
105.453
104.283
84.9644
49.9784
15.2069
-4.08134
-5.8549
-0.00843304
3.13189
1.25427
-1.54824
-1.67712
0.254931
1.46336
0.716323
-0.722785
-1.10634
-0.206777
0.784157
0.808376
-0.00316931
-0.705525
-0.62892
0.0359101
0.585367
0.54242
0.0330412
-0.44143
-0.497085
-0.154039
0.262257
0.43173
0.273533
-0.0486196
-0.293168
-0.318305
-0.149026
0.0785265
0.225306
0.229311
0.119146
-0.0258278
-0.130013
-0.157238
-0.11575
-0.0406304
0.0300026
0.0718215
0.0792418
0.0608973
0.0312271
0.00312872
-0.0158805
-0.0240053
-0.0233894
-0.0177781
-0.0106889
-0.00448055
-0.000209241
0.00205501
0.00277449
0.00255998
0.0019374
0.00125701
0.000697339
0.000312608
8.7105e-05
-2.22479e-05
-6.01179e-05
-6.12113e-05
-4.78713e-05
-3.21494e-05
-1.9182e-05
-1.02263e-05
-4.78612e-06
-1.84483e-06
-4.47685e-07
1.04233e-07
2.49835e-07
2.3194e-07
1.68359e-07
1.07161e-07
6.22708e-08
3.37393e-08
1.70119e-08
8.50897e-09
3.07301e-09
99.9289
100.102
100.191
99.7349
99.6431
100.412
100.611
99.4797
98.9832
100.54
101.685
99.6549
97.1094
99.5272
105.597
104.208
84.7822
49.9758
15.3952
-3.98339
-5.9968
-0.189322
3.16991
1.46281
-1.45109
-1.82291
0.053264
1.4621
0.918494
-0.561395
-1.17653
-0.427395
0.661158
0.916474
0.218846
-0.600119
-0.743617
-0.182815
0.471177
0.633867
0.242589
-0.296956
-0.533868
-0.334221
0.0841026
0.386547
0.384589
0.13218
-0.165507
-0.318447
-0.264806
-0.0755672
0.119992
0.220512
0.198247
0.0922812
-0.029996
-0.112896
-0.133755
-0.102039
-0.044706
0.0105663
0.0462518
0.057727
0.0500383
0.0324001
0.0134634
-0.00123121
-0.00966
-0.0123974
-0.0112884
-0.00834145
-0.00509382
-0.00242033
-0.000626153
0.000347073
0.000720371
0.000737083
0.000590923
0.000405759
0.000244454
0.000128277
5.57666e-05
1.63768e-05
-1.61797e-06
-7.6337e-06
-7.96215e-06
-6.22181e-06
-4.18414e-06
-2.53252e-06
-1.40437e-06
-7.17281e-07
-3.36111e-07
-1.42253e-07
-5.23016e-08
-1.48902e-08
-1.6069e-09
1.75764e-09
2.01326e-09
9.53312e-10
99.9707
99.9051
100.205
100.186
99.6236
99.6631
100.536
100.593
99.3386
98.9834
100.695
101.722
99.4973
97.0209
99.6643
105.743
104.124
84.5918
49.9729
15.5915
-3.87523
-6.13803
-0.384438
3.19292
1.67704
-1.32871
-1.9536
-0.166922
1.42557
1.11111
-0.366741
-1.20422
-0.645769
0.491709
0.975493
0.442612
-0.438459
-0.800042
-0.399071
0.296848
0.654097
0.433087
-0.100136
-0.487425
-0.465968
-0.118641
0.260688
0.415607
0.287832
0.00754175
-0.232224
-0.305319
-0.207004
-0.0243325
0.134757
0.201879
0.169833
0.0774748
-0.0220702
-0.0888861
-0.108381
-0.0883736
-0.048133
-0.00706925
0.0222235
0.0356364
0.0355088
0.0272204
0.0162331
0.00640924
-0.000405482
-0.0039859
-0.0050314
-0.0045337
-0.00337116
-0.00213793
-0.00113814
-0.000461346
-7.47449e-05
0.00010236
0.000152632
0.000139878
0.000104763
6.87428e-05
4.04407e-05
2.13777e-05
9.98171e-06
3.89296e-06
1.02758e-06
-9.83705e-08
-4.00112e-07
-3.7601e-07
-2.63506e-07
-1.5698e-07
-8.20778e-08
-3.75772e-08
-1.40215e-08
-3.61143e-09
8.78225e-10
1.48823e-09
100.049
99.8724
99.9232
100.304
100.144
99.5169
99.7157
100.66
100.545
99.1938
99.0081
100.86
101.741
99.326
96.9411
99.8159
105.89
104.03
84.3932
49.9699
15.7959
-3.75639
-6.2778
-0.593648
3.19937
1.89485
-1.18074
-2.06533
-0.402069
1.35167
1.28682
-0.143602
-1.1844
-0.850138
0.282033
0.977182
0.651012
-0.229815
-0.787985
-0.589594
0.0781869
0.595061
0.576119
0.122271
-0.359942
-0.522072
-0.307316
0.0765536
0.355367
0.378665
0.181826
-0.0813124
-0.256357
-0.272849
-0.158263
0.00357344
0.129603
0.17599
0.145494
0.0712469
-0.00706353
-0.0612274
-0.0812267
-0.0722591
-0.0471444
-0.0189645
0.0033724
0.0162658
0.0202937
0.0182239
0.0132293
0.00780145
0.00337944
0.000464927
-0.00105133
-0.00155549
-0.00147104
-0.00113371
-0.00075569
-0.000441268
-0.000221563
-8.84079e-05
-1.88679e-05
1.07058e-05
1.86791e-05
1.70028e-05
1.23347e-05
7.76751e-06
4.35371e-06
2.16734e-06
9.27102e-07
3.02578e-07
3.09574e-08
-6.12899e-08
-7.46536e-08
-6.024e-08
-4.14082e-08
-2.51337e-08
-1.53833e-08
-6.6222e-09
100.048
100.024
99.787
99.9788
100.388
100.068
99.4223
99.7998
100.775
100.467
99.0496
99.0587
101.031
101.74
99.1418
96.8713
99.9822
106.038
103.926
84.1862
49.9666
16.0084
-3.62641
-6.41525
-0.81672
3.18776
2.11392
-1.00722
-2.15431
-0.647979
1.23924
1.43827
0.101672
-1.11391
-1.02851
0.0414218
0.91667
0.826681
0.011511
-0.703225
-0.731994
-0.162229
0.458729
0.647967
0.337264
-0.167993
-0.487723
-0.44344
-0.128991
0.213839
0.379452
0.310577
0.0924754
-0.131495
-0.251022
-0.235088
-0.123805
0.0117438
0.110936
0.146275
0.123699
0.0687236
0.00973934
-0.033483
-0.0535501
-0.0531624
-0.0401819
-0.0229944
-0.00769221
0.0027595
0.00799453
0.00916312
0.00790511
0.00567343
0.00344253
0.00169619
0.00055567
-6.13338e-05
-0.000312134
-0.000350219
-0.000290579
-0.000204084
-0.000126078
-6.88367e-05
-3.24024e-05
-1.19837e-05
-2.06294e-06
1.83542e-06
2.73168e-06
2.39532e-06
1.7271e-06
1.10911e-06
6.54858e-07
3.61054e-07
1.87501e-07
9.2121e-08
4.30411e-08
1.9027e-08
8.36813e-09
2.79758e-09
99.9809
100.124
99.9619
99.7249
100.066
100.449
99.9632
99.3471
99.913
100.878
100.361
98.9107
99.1362
101.206
101.718
98.9458
96.8132
100.163
106.186
103.812
83.9707
49.9632
16.2292
-3.48481
-6.54947
-1.05332
3.15663
2.33175
-0.808582
-2.21689
-0.899853
1.08814
1.55832
0.361284
-0.991752
-1.16928
-0.218075
0.793116
0.953393
0.267033
-0.548506
-0.807372
-0.39727
0.257726
0.633632
0.510518
0.0592144
-0.364461
-0.496914
-0.311966
0.0212864
0.287158
0.357649
0.238851
0.0309289
-0.148973
-0.228359
-0.199574
-0.10298
0.00584195
0.0840666
0.114216
0.101827
0.0649953
0.0232275
-0.00976807
-0.0282862
-0.0331533
-0.0287125
-0.019996
-0.0109542
-0.00383103
0.000657518
0.00278563
0.00326118
0.00282669
0.00205393
0.00129091
0.000695747
0.00030144
7.71907e-05
-2.83579e-05
-6.32293e-05
-6.27881e-05
-4.89734e-05
-3.32634e-05
-2.03964e-05
-1.14508e-05
-5.90198e-06
-2.7732e-06
-1.1629e-06
-4.12147e-07
-1.02982e-07
2.11352e-09
2.46028e-08
2.05231e-08
1.14529e-08
4.91492e-09
8.89186e-10
-6.33549e-10
99.9474
100.045
100.168
99.8736
99.6948
100.176
100.481
99.835
99.2982
100.052
100.961
100.227
98.7819
99.2412
101.382
101.673
98.7395
96.7682
100.359
106.333
103.686
83.7468
49.9595
16.4582
-3.33112
-6.67949
-1.30302
3.10457
2.54568
-0.585655
-2.24964
-1.15236
0.899356
1.64032
0.626177
-0.819314
-1.26195
-0.48217
0.610137
1.0175
0.515399
-0.333892
-0.802806
-0.598269
0.014526
0.529903
0.612019
0.284094
-0.171215
-0.453163
-0.430983
-0.177897
0.123225
0.30867
0.31428
0.17947
-0.00212588
-0.142496
-0.19672
-0.168311
-0.0916428
-0.00773786
0.0537126
0.0810889
0.0781349
0.0567146
0.0296604
0.00628825
-0.00898987
-0.0158592
-0.0163715
-0.0132868
-0.00898363
-0.00500284
-0.00205269
-0.000242824
0.000637885
0.000901971
0.000833234
0.000634007
0.000422013
0.000250239
0.000131656
5.9567e-05
2.08687e-05
2.9868e-06
-3.50362e-06
-4.62841e-06
-3.74549e-06
-2.46381e-06
-1.40104e-06
-6.92875e-07
-2.85844e-07
-8.19037e-08
4.528e-09
3.10486e-08
3.25719e-08
2.44047e-08
1.78062e-08
8.66709e-09
99.9874
99.9149
100.128
100.173
99.7712
99.7029
100.299
100.476
99.6913
99.2814
100.211
101.018
100.068
98.6683
99.3737
101.556
101.604
98.5245
96.7381
100.57
106.478
103.549
83.5142
49.9557
16.6956
-3.16486
-6.80431
-1.56528
3.03025
2.75287
-0.339724
-2.24943
-1.3997
0.675064
1.67842
0.886299
-0.600531
-1.29774
-0.735044
0.37596
1.00929
0.734105
-0.0764134
-0.713394
-0.738546
-0.24081
0.346906
0.621522
0.466924
0.058082
-0.317526
-0.457206
-0.335539
-0.0707806
0.176509
0.296095
0.266502
0.138118
-0.011666
-0.120252
-0.160631
-0.139823
-0.084146
-0.0225221
0.0247015
0.0493494
0.0532422
0.0435126
0.028169
0.0133265
0.00227721
-0.00415096
-0.00667175
-0.00661293
-0.00526878
-0.00358509
-0.00209921
-0.00101999
-0.000351619
-3.64897e-06
0.000135143
0.000158785
0.000131911
9.18262e-05
5.60528e-05
3.02091e-05
1.40239e-05
5.09412e-06
8.20662e-07
-8.309e-07
-1.19724e-06
-1.04446e-06
-7.55383e-07
-4.89622e-07
-2.93773e-07
-1.65737e-07
-8.91456e-08
-4.52958e-08
-2.34485e-08
-8.93695e-09
100.04
99.9094
99.9262
100.216
100.136
99.6688
99.752
100.423
100.431
99.5409
99.3014
100.384
101.045
99.8866
98.5748
99.5329
101.722
101.509
98.3027
96.7245
100.795
106.62
103.4
83.2729
49.9515
16.9412
-2.98555
-6.92289
-1.83943
2.93245
2.95034
-0.0725296
-2.21353
-1.63572
0.418668
1.66776
1.13092
-0.341921
-1.27034
-0.960226
0.103254
0.924173
0.901497
0.201068
-0.543582
-0.797045
-0.474243
0.107704
0.532877
0.573116
0.280228
-0.115588
-0.382176
-0.411939
-0.243603
-0.00118904
0.190725
0.264803
0.222994
0.113356
-0.00499958
-0.0890213
-0.122359
-0.111576
-0.0752106
-0.0328338
0.00178103
0.022646
0.0301137
0.0280271
0.0210579
0.0130163
0.006209
0.00154045
-0.0010387
-0.00204306
-0.00208618
-0.00167766
-0.00115452
-0.000693826
-0.000358973
-0.000148744
-3.4629e-05
1.65862e-05
3.22735e-05
3.10878e-05
2.39338e-05
1.62154e-05
1.00224e-05
5.74626e-06
3.08113e-06
1.5504e-06
7.32434e-07
3.24208e-07
1.34175e-07
5.17797e-08
1.90664e-08
6.86019e-09
3.10265e-09
1.50162e-09
100.036
100.02
99.8384
99.9798
100.29
100.059
99.5807
99.8414
100.536
100.346
99.3942
99.3612
100.564
101.037
99.6878
98.5063
99.7176
101.879
101.389
98.076
96.7289
101.035
106.759
103.238
83.0229
49.9471
17.1952
-2.7927
-7.03412
-2.12473
2.81003
3.13501
0.213719
-2.13967
-1.85402
0.134815
1.60481
1.34901
-0.0525159
-1.17641
-1.1416
-0.191389
0.763583
0.998908
0.47173
-0.307518
-0.761613
-0.652316
-0.154231
0.356312
0.580243
0.450998
0.111108
-0.221268
-0.386897
-0.348385
-0.172392
0.0326586
0.177722
0.224825
0.185618
0.0997436
0.0099113
-0.0547963
-0.0840097
-0.0823331
-0.0618654
-0.0352982
-0.0117787
0.0042733
0.0123423
0.0141858
0.0122952
0.00888247
0.00544031
0.00272009
0.000921412
-7.01509e-05
-0.000488862
-0.000568071
-0.000485631
-0.000353457
-0.00022924
-0.000134673
-7.17704e-05
-3.42604e-05
-1.41038e-05
-4.45534e-06
-5.0087e-07
7.20203e-07
8.25025e-07
5.92054e-07
3.38042e-07
1.57307e-07
5.33446e-08
4.27872e-09
-1.42652e-08
-1.61732e-08
-1.48981e-08
-8.2607e-09
99.988
100.095
99.9602
99.7924
100.068
100.335
99.9476
99.5204
99.9664
100.627
100.221
99.2616
99.4617
100.742
100.991
99.4766
98.4673
99.9258
102.02
101.241
97.8469
96.753
101.288
106.894
103.064
82.7641
49.9425
17.4576
-2.58579
-7.13687
-2.42028
2.662
3.30368
0.51633
-2.02613
-2.04805
-0.170623
1.48758
1.52969
0.256337
-1.01612
-1.2645
-0.488309
0.535412
1.01274
0.707288
-0.0282745
-0.631448
-0.747125
-0.39951
0.118007
0.483362
0.534417
0.313479
-0.0114003
-0.266273
-0.356518
-0.286417
-0.126343
0.0384854
0.147771
0.181267
0.152246
0.0904313
0.0253922
-0.023394
-0.0488762
-0.0535624
-0.0447278
-0.0302002
-0.0158645
-0.00490067
0.00182208
0.00487513
0.00541986
0.00461862
0.00334471
0.00211884
0.00117071
0.000541936
0.000180103
3.97738e-06
-6.11022e-05
-6.97757e-05
-5.59362e-05
-3.74444e-05
-2.18591e-05
-1.1133e-05
-4.73526e-06
-1.39898e-06
7.56575e-08
5.60617e-07
5.95426e-07
4.71352e-07
3.24034e-07
2.03164e-07
1.1962e-07
6.55526e-08
3.6692e-08
1.48313e-08
99.9589
100.048
100.119
99.8753
99.7852
100.178
100.341
99.8144
99.4995
100.119
100.682
100.063
99.1538
99.6016
100.91
100.905
99.2592
98.4617
100.155
102.144
101.066
97.6178
96.7983
101.556
107.022
102.875
82.4965
49.9375
17.7283
-2.36432
-7.22995
-2.72508
2.48751
3.45308
0.832128
-1.87182
-2.2113
-0.490601
1.31585
1.66267
0.571309
-0.793461
-1.31684
-0.765967
0.254001
0.936284
0.880939
0.264083
-0.418287
-0.740992
-0.588773
-0.143268
0.297407
0.511122
0.44586
0.196997
-0.0817956
-0.266941
-0.310147
-0.234613
-0.101771
0.0259231
0.108904
0.136501
0.119803
0.0794933
0.0352939
0.000148516
-0.0208674
-0.0286461
-0.0271466
-0.0208965
-0.0134983
-0.00711493
-0.00261175
1.66461e-05
0.00120168
0.00147376
0.00128191
0.000930907
0.000589141
0.000325959
0.000152334
5.2417e-05
3.17738e-06
-1.58728e-05
-1.94247e-05
-1.65084e-05
-1.19145e-05
-7.75089e-06
-4.66346e-06
-2.62945e-06
-1.39954e-06
-7.06038e-07
-3.3842e-07
-1.5426e-07
-6.7142e-08
-2.77967e-08
-1.15649e-08
-3.81415e-09
99.9813
99.9479
100.122
100.099
99.7841
99.8242
100.291
100.298
99.6737
99.5258
100.286
100.695
99.879
99.0807
99.7773
101.058
100.777
99.0425
98.493
100.401
102.244
100.865
97.3914
96.8661
101.836
107.145
102.673
82.2199
49.9322
18.0076
-2.12776
-7.31213
-3.03798
2.28584
3.57991
1.15746
-1.67639
-2.33743
-0.817003
1.09135
1.73882
0.877566
-0.516436
-1.29021
-1.00243
-0.060468
0.771122
0.97051
0.53556
-0.145991
-0.630141
-0.689338
-0.382245
0.0557834
0.383911
0.477241
0.352312
0.116528
-0.107657
-0.239465
-0.258793
-0.19324
-0.0908404
0.00478805
0.0680018
0.0928041
0.0869712
0.0639732
0.0364852
0.0129958
-0.00276732