/*--------------------------------*- C++ -*----------------------------------*\
  =========                 |
  \\      /  F ield         | OpenFOAM: The Open Source CFD Toolbox
   \\    /   O peration     | Website:  https://openfoam.org
    \\  /    A nd           | Version:  8
     \\/     M anipulation  |
\*---------------------------------------------------------------------------*/
FoamFile
{
    version     2.0;
    format      ascii;
    class       volScalarField;
    location    "0.183";
    object      T;
}
// * * * * * * * * * * * * * * * * * * * * * * * * * * * * * * * * * * * * * //

dimensions      [0 0 0 1 0 0 0];

internalField   nonuniform List<scalar> 
100
(
49.7642
6.37535
-4.00834
-3.41372
-1.55299
-0.529822
-0.148658
-0.0358145
-0.0076338
-0.0012665
93.007
49.351
18.3218
4.91152
0.882775
0.0510737
-0.034284
-0.0174562
-0.00539734
-0.00111602
105.491
83.4794
47.6485
20.9656
7.4822
2.24529
0.581553
0.13257
0.0271095
0.00436748
107.321
101.007
66.9765
33.1458
12.9989
4.21952
1.1695
0.283126
0.0611917
0.0103196
106.989
107.858
75.8823
39.2535
15.9272
5.31332
1.50667
0.372003
0.0818289
0.0139966
106.651
110.042
79.0922
41.5905
17.0938
5.76274
1.64873
0.410258
0.0908816
0.0156339
106.51
110.632
80.0506
42.3218
17.4708
5.91168
1.69682
0.423449
0.0940558
0.0162158
106.468
110.772
80.2954
42.5145
17.5721
5.95219
1.71002
0.42709
0.0949356
0.0163774
106.457
110.8
80.352
42.5634
17.6
5.96428
1.71426
0.42835
0.0952626
0.0164414
106.455
110.808
80.361
42.5667
17.5994
5.96306
1.71352
0.428043
0.0951622
0.0164174
)
;

boundaryField
{
    left
    {
        type            fixedValue;
        value           uniform 100;
    }
    right
    {
        type            zeroGradient;
    }
    up
    {
        type            zeroGradient;
    }
    down
    {
        type            fixedValue;
        value           uniform 0;
    }
    frontAndBack
    {
        type            empty;
    }
}


// ************************************************************************* //
