/*--------------------------------*- C++ -*----------------------------------*\
  =========                 |
  \\      /  F ield         | OpenFOAM: The Open Source CFD Toolbox
   \\    /   O peration     | Website:  https://openfoam.org
    \\  /    A nd           | Version:  8
     \\/     M anipulation  |
\*---------------------------------------------------------------------------*/
FoamFile
{
    version     2.0;
    format      ascii;
    class       volScalarField;
    location    "7";
    object      p;
}
// * * * * * * * * * * * * * * * * * * * * * * * * * * * * * * * * * * * * * //

dimensions      [0 2 -2 0 0 0 0];

internalField   nonuniform List<scalar> 
12504
(
-0.0323833
-0.0354329
-0.0418447
-0.0516283
-0.0645125
-0.0801429
-0.0981313
-0.118036
-0.139361
-0.161582
-0.184178
-0.206663
-0.228606
-0.249645
-0.269487
-0.2879
-0.304699
-0.31973
-0.332862
-0.343978
-0.35297
-0.359742
-0.36421
-0.366309
-0.365997
-0.363265
-0.358141
-0.350693
-0.341032
-0.329317
-0.315746
-0.300557
-0.284011
-0.266393
-0.24799
-0.229092
-0.20996
-0.190856
-0.171973
-0.153524
-0.1356
-0.118378
-0.101814
-0.0861079
-0.0710056
-0.056887
-0.0430948
-0.0305416
-0.0176616
-0.0067539
-0.0301888
-0.033305
-0.0398622
-0.0498653
-0.0630302
-0.0789885
-0.0973358
-0.117611
-0.139298
-0.161853
-0.18474
-0.207463
-0.229591
-0.250765
-0.270703
-0.289182
-0.306029
-0.321097
-0.334262
-0.345409
-0.354431
-0.361234
-0.36573
-0.367851
-0.367549
-0.364817
-0.359678
-0.352196
-0.342482
-0.330695
-0.317034
-0.301738
-0.285073
-0.267327
-0.248791
-0.22976
-0.2105
-0.191276
-0.172284
-0.15374
-0.135737
-0.118453
-0.101839
-0.0861025
-0.0709774
-0.0568553
-0.0430558
-0.0305217
-0.017633
-0.0067691
-0.0257431
-0.0289999
-0.0358537
-0.046303
-0.0600406
-0.0766691
-0.0957495
-0.116781
-0.139206
-0.162439
-0.185915
-0.209117
-0.231612
-0.253051
-0.273173
-0.291779
-0.308717
-0.323857
-0.337086
-0.348294
-0.35738
-0.364244
-0.368797
-0.370964
-0.370688
-0.367957
-0.362788
-0.355239
-0.34542
-0.333488
-0.319644
-0.304132
-0.287225
-0.269219
-0.250412
-0.231111
-0.21159
-0.192121
-0.172909
-0.154172
-0.136008
-0.118595
-0.101885
-0.086083
-0.0709179
-0.0567811
-0.0429813
-0.0304654
-0.0175942
-0.00676522
-0.0189474
-0.022423
-0.0297349
-0.0408741
-0.0554993
-0.0731673
-0.0933854
-0.11559
-0.139156
-0.163434
-0.187807
-0.211731
-0.234767
-0.25659
-0.276972
-0.295754
-0.312817
-0.328057
-0.341377
-0.352678
-0.36186
-0.368823
-0.373467
-0.375708
-0.375477
-0.372753
-0.367543
-0.359897
-0.349919
-0.337765
-0.323642
-0.307799
-0.290519
-0.272111
-0.252888
-0.23317
-0.213246
-0.1934
-0.173847
-0.154815
-0.136403
-0.118795
-0.101938
-0.0860369
-0.0708128
-0.056655
-0.0428584
-0.030371
-0.0175332
-0.00675182
-0.00964369
-0.0134237
-0.0213721
-0.0334715
-0.0493349
-0.0684557
-0.0902652
-0.11411
-0.139265
-0.164988
-0.190587
-0.215476
-0.239218
-0.261523
-0.282218
-0.301205
-0.318412
-0.333771
-0.347206
-0.35863
-0.367947
-0.375049
-0.379827
-0.382182
-0.382022
-0.379319
-0.374062
-0.36629
-0.356098
-0.343645
-0.329138
-0.312839
-0.295043
-0.276079
-0.256277
-0.235981
-0.215497
-0.195129
-0.175105
-0.155664
-0.136911
-0.119034
-0.101977
-0.0859427
-0.0706414
-0.0564589
-0.0426718
-0.0302281
-0.0174422
-0.00673
0.00238791
-0.00179319
-0.01058
-0.0239472
-0.0414498
-0.0624995
-0.0864262
-0.112452
-0.139712
-0.16733
-0.194507
-0.220605
-0.245194
-0.268046
-0.289076
-0.308268
-0.325618
-0.341101
-0.354669
-0.366249
-0.375743
-0.383038
-0.388006
-0.390526
-0.390476
-0.387819
-0.382519
-0.374595
-0.364135
-0.351296
-0.336292
-0.319397
-0.300925
-0.281228
-0.260665
-0.239606
-0.218384
-0.197329
-0.176686
-0.15671
-0.137513
-0.119287
-0.101973
-0.0857701
-0.0703744
-0.0561665
-0.0423999
-0.0300209
-0.0173116
-0.00669731
0.0174368
0.0127431
0.00288598
-0.0121052
-0.0317163
-0.0552577
-0.0819286
-0.11078
-0.140756
-0.170788
-0.19993
-0.227473
-0.253014
-0.276428
-0.297762
-0.31712
-0.334584
-0.350182
-0.363896
-0.375665
-0.385393
-0.392949
-0.39818
-0.400934
-0.401054
-0.398487
-0.393157
-0.385061
-0.374276
-0.360959
-0.34533
-0.327678
-0.308344
-0.28771
-0.26617
-0.244134
-0.221968
-0.200033
-0.1786
-0.157943
-0.138184
-0.11952
-0.101885
-0.085477
-0.0699715
-0.055742
-0.0420132
-0.0297278
-0.0171283
-0.00664979
0.035872
0.0305359
0.0193401
0.00230584
-0.0199717
-0.0466855
-0.0768685
-0.109342
-0.142779
-0.175842
-0.207369
-0.23657
-0.263106
-0.287018
-0.308555
-0.327988
-0.345503
-0.361187
-0.375053
-0.387055
-0.397088
-0.404995
-0.410588
-0.413647
-0.414062
-0.411649
-0.406317
-0.398034
-0.386868
-0.372968
-0.356565
-0.337968
-0.317549
-0.295732
-0.272959
-0.249686
-0.226327
-0.203284
-0.180858
-0.159349
-0.13889
-0.119685
-0.101661
-0.0850076
-0.0693788
-0.0551373
-0.041472
-0.0293196
-0.0168746
-0.00658179
0.0581547
0.0520241
0.0391787
0.019604
-0.00601148
-0.0367369
-0.0713952
-0.108496
-0.146339
-0.183183
-0.217559
-0.24858
-0.276039
-0.300264
-0.321806
-0.341154
-0.358614
-0.374332
-0.388355
-0.400646
-0.411084
-0.41947
-0.425571
-0.429132
-0.429932
-0.427757
-0.422464
-0.413991
-0.402384
-0.387784
-0.370431
-0.350659
-0.328882
-0.305581
-0.281257
-0.25643
-0.231572
-0.20714
-0.183476
-0.160909
-0.139587
-0.119721
-0.101228
-0.0842872
-0.0685249
-0.0542884
-0.0407235
-0.0287573
-0.0165267
-0.00648548
0.0848527
0.0777509
0.0628974
0.0401881
0.0104198
-0.0253733
-0.0657421
-0.108778
-0.152253
-0.193823
-0.231555
-0.264455
-0.292583
-0.316744
-0.337945
-0.356958
-0.374206
-0.389885
-0.404073
-0.416734
-0.427716
-0.436762
-0.443568
-0.44782
-0.449199
-0.447401
-0.442223
-0.433572
-0.421464
-0.406028
-0.387509
-0.366279
-0.342806
-0.317642
-0.291368
-0.264586
-0.237848
-0.211678
-0.186472
-0.162595
-0.140214
-0.119544
-0.10049
-0.0832173
-0.0673152
-0.0531109
-0.039698
-0.0279889
-0.0160532
-0.00634995
0.116656
0.108382
0.0911125
0.06456
0.0296444
-0.0125769
-0.0602826
-0.111006
-0.161749
-0.209237
-0.250863
-0.285525
-0.313771
-0.337202
-0.357512
-0.375813
-0.392621
-0.408159
-0.422527
-0.435679
-0.4474
-0.45735
-0.46513
-0.470336
-0.47256
-0.471342
-0.46639
-0.457592
-0.444928
-0.428497
-0.408553
-0.385514
-0.35992
-0.332414
-0.303684
-0.274442
-0.245341
-0.216995
-0.189866
-0.164368
-0.140686
-0.119042
-0.0993207
-0.081667
-0.0656251
-0.0514932
-0.0383034
-0.0269453
-0.0154122
-0.0061598
0.154389
0.144725
0.124588
0.0933584
0.0520814
0.00163981
-0.0556081
-0.116492
-0.176767
-0.231658
-0.277624
-0.313562
-0.340907
-0.362552
-0.381158
-0.3982
-0.414226
-0.429467
-0.444035
-0.457842
-0.470558
-0.481726
-0.490827
-0.497365
-0.500792
-0.500423
-0.495866
-0.486989
-0.473719
-0.456116
-0.434444
-0.409172
-0.380934
-0.350494
-0.318677
-0.286339
-0.254269
-0.223196
-0.193671
-0.166165
-0.140887
-0.118063
-0.0975503
-0.0794635
-0.0632903
-0.0492885
-0.0364187
-0.0255348
-0.0145479
-0.00589326
0.199023
0.187757
0.164263
0.127409
0.0782899
0.017243
-0.0525939
-0.127305
-0.200505
-0.264712
-0.315069
-0.350918
-0.375471
-0.393702
-0.409483
-0.424516
-0.439258
-0.453945
-0.468706
-0.48335
-0.497357
-0.510099
-0.520885
-0.52919
-0.534273
-0.535116
-0.531235
-0.522443
-0.508586
-0.48967
-0.465966
-0.438007
-0.406535
-0.37247
-0.336814
-0.300614
-0.264837
-0.230365
-0.197863
-0.167878
-0.140649
-0.116401
-0.0949537
-0.0763795
-0.0600967
-0.0463051
-0.0338856
-0.0236361
-0.0133864
-0.00551937
0.251667
0.23864
0.211277
0.167795
0.108994
0.0341683
-0.0525231
-0.146524
-0.237964
-0.314389
-0.368508
-0.401022
-0.419079
-0.431218
-0.442587
-0.454581
-0.467314
-0.481053
-0.495927
-0.511539
-0.527114
-0.541782
-0.554652
-0.56504
-0.572168
-0.574635
-0.571871
-0.56351
-0.549257
-0.52906
-0.503178
-0.472196
-0.436976
-0.398614
-0.35834
-0.317444
-0.27713
-0.238488
-0.202338
-0.169325
-0.139731
-0.113776
-0.0912377
-0.0721239
-0.0557715
-0.0422987
-0.030502
-0.0210918
-0.0118318
-0.00499429
0.313547
0.298734
0.267026
0.215952
0.14506
0.0521892
-0.0577181
-0.179321
-0.296316
-0.389284
-0.445852
-0.468739
-0.473393
-0.47488
-0.479291
-0.486628
-0.496293
-0.508543
-0.523344
-0.539922
-0.557184
-0.574053
-0.58947
-0.602224
-0.611411
-0.615888
-0.614821
-0.607439
-0.593272
-0.572178
-0.544363
-0.510417
-0.471291
-0.42826
-0.382806
-0.336516
-0.290898
-0.247322
-0.206825
-0.1702
-0.137793
-0.109829
-0.0860355
-0.0663379
-0.0499813
-0.0369691
-0.0260192
-0.017704
-0.00976261
-0.00425738
0.385955
0.36957
0.3333
0.273877
0.187624
0.0706643
-0.072995
-0.236768
-0.386482
-0.498604
-0.553702
-0.557043
-0.538026
-0.522262
-0.515798
-0.515934
-0.521096
-0.531313
-0.545878
-0.563328
-0.58221
-0.601265
-0.619248
-0.634788
-0.646305
-0.653222
-0.654356
-0.648623
-0.635328
-0.614163
-0.585206
-0.548978
-0.506449
-0.459022
-0.408408
-0.356507
-0.305185
-0.256161
-0.210773
-0.17003
-0.134402
-0.10414
-0.0789402
-0.0586281
-0.0423599
-0.0299807
-0.0201545
-0.0132398
-0.00703388
-0.00322807
0.470133
0.452749
0.412542
0.344589
0.239016
0.0887472
-0.106875
-0.338508
-0.530839
-0.650473
-0.687526
-0.656513
-0.603733
-0.565304
-0.544731
-0.535713
-0.535768
-0.544163
-0.558809
-0.5773
-0.597818
-0.618933
-0.639254
-0.657367
-0.671843
-0.681389
-0.684941
-0.68132
-0.669601
-0.64926
-0.620189
-0.582763
-0.537881
-0.486984
-0.431935
-0.374906
-0.318106
-0.263644
-0.213218
-0.168129
-0.129044
-0.0962958
-0.0695918
-0.0486587
-0.0325925
-0.0210315
-0.0126439
-0.00746402
-0.00349487
-0.00181044
0.566899
0.549697
0.50797
0.43283
0.305177
0.108633
-0.173045
-0.499257
-0.686505
-0.797236
-0.798136
-0.72894
-0.645217
-0.590099
-0.560916
-0.54594
-0.542931
-0.550368
-0.565016
-0.584067
-0.605652
-0.628257
-0.650401
-0.670629
-0.687473
-0.699624
-0.705388
-0.703787
-0.693756
-0.674587
-0.645988
-0.608171
-0.561911
-0.508605
-0.45017
-0.388955
-0.327444
-0.268099
-0.21298
-0.16372
-0.121239
-0.0860074
-0.0578103
-0.0362931
-0.0205549
-0.00997846
-0.00334338
-0.000214761
0.000967358
8.45924e-05
0.675936
0.661141
0.622934
0.545181
0.398572
0.143217
-0.192751
-0.588608
-0.88099
-0.966164
-0.926791
-0.787814
-0.670467
-0.604235
-0.561832
-0.546021
-0.543738
-0.5522
-0.567753
-0.587664
-0.610194
-0.633877
-0.657255
-0.678859
-0.697161
-0.710642
-0.718007
-0.717783
-0.708912
-0.69059
-0.662388
-0.624377
-0.57721
-0.522212
-0.461289
-0.396874
-0.331626
-0.268277
-0.209186
-0.156296
-0.110788
-0.0733043
-0.0437646
-0.0217565
-0.00647091
0.00301114
0.00763889
0.00848891
0.00636003
0.00249959
0.794874
0.786237
0.758778
0.689526
0.536933
0.25196
-0.181778
-0.636376
-0.971721
-0.680752
-0.605886
-0.568086
-0.547944
-0.546884
-0.555697
-0.571391
-0.591369
-0.614019
-0.637935
-0.661685
-0.683779
-0.702667
-0.716808
-0.724743
-0.72507
-0.716633
-0.698563
-0.670346
-0.631963
-0.583986
-0.527676
-0.464906
-0.398138
-0.33012
-0.26376
-0.201621
-0.145891
-0.0979718
-0.0586732
-0.0280773
-0.00573132
0.0089929
0.017354
0.0198409
0.0183477
0.0125168
0.00539599
0.918737
0.920997
0.912252
0.873147
0.725099
0.412862
-0.0733718
-0.599819
-0.567281
-0.551313
-0.548835
-0.558012
-0.573551
-0.593226
-0.615599
-0.639317
-0.662958
-0.685016
-0.703922
-0.718106
-0.726058
-0.726355
-0.717788
-0.699466
-0.670855
-0.63189
-0.583111
-0.525737
-0.461623
-0.393232
-0.323351
-0.254979
-0.190796
-0.133145
-0.0835842
-0.0430559
-0.0117929
0.0106832
0.0247654
0.0320624
0.0324419
0.0287499
0.0190696
0.00864612
1.03998
1.05625
1.07789
1.08393
0.965621
0.660513
-0.566493
-0.548997
-0.546884
-0.556486
-0.571955
-0.591421
-0.613545
-0.637004
-0.660387
-0.682183
-0.700819
-0.714715
-0.722341
-0.72224
-0.713268
-0.694391
-0.665174
-0.625546
-0.576036
-0.517846
-0.452854
-0.383507
-0.312604
-0.243159
-0.177909
-0.119268
-0.0688701
-0.02775
0.0037526
0.0261223
0.0395255
0.0458783
0.0443701
0.0388258
0.0254851
0.0120517
1.14721
1.1796
1.23621
1.29742
1.2304
0.995748
-0.541909
-0.540149
-0.550449
-0.566291
-0.585943
-0.608095
-0.63145
-0.654623
-0.676126
-0.694403
-0.707885
-0.71503
-0.714392
-0.704891
-0.685322
-0.655457
-0.6152
-0.56511
-0.506402
-0.44096
-0.371237
-0.300023
-0.230264
-0.164779
-0.105941
-0.0554103
-0.0142596
0.017109
0.0391672
0.0519205
0.0574914
0.0544877
0.0475726
0.0311446
0.0153435
1.22825
1.27471
1.36398
1.47888
1.4822
1.36583
-0.536153
-0.530482
-0.542145
-0.558853
-0.579046
-0.601472
-0.624887
-0.647956
-0.669229
-0.687179
-0.700259
-0.706934
-0.70573
-0.695358
-0.675444
-0.645089
-0.604362
-0.553881
-0.494909
-0.429338
-0.359616
-0.288529
-0.218997
-0.153763
-0.0951978
-0.0449601
-0.00411164
0.0269183
0.0485833
0.0608069
0.0658021
0.0618049
0.0540307
0.0354247
0.0181113
1.272
1.32673
1.43563
1.58195
1.65927
-0.513989
-0.523488
-0.536208
-0.553612
-0.574265
-0.596945
-0.620451
-0.643485
-0.66463
-0.682383
-0.695217
-0.701618
-0.700113
-0.689434
-0.668969
-0.638283
-0.597303
-0.54664
-0.487578
-0.422022
-0.352417
-0.281536
-0.212283
-0.147362
-0.0891191
-0.0391885
0.00136765
0.0321176
0.0535056
0.0654256
0.0701098
0.0656345
0.0574603
0.0377569
0.0197589
1.272
1.32673
1.43563
1.58195
1.69575
-0.506827
-0.523488
-0.536208
-0.553612
-0.574265
-0.596945
-0.62045
-0.643484
-0.664628
-0.682381
-0.695215
-0.701615
-0.700111
-0.689432
-0.668967
-0.638281
-0.597301
-0.546639
-0.487578
-0.422022
-0.352417
-0.281537
-0.212284
-0.147364
-0.0891209
-0.0391904
0.00136587
0.032116
0.0535042
0.0654244
0.0701088
0.0656337
0.0574597
0.0377564
0.0197587
1.22825
1.27471
1.36398
1.47888
1.58537
-0.517906
-0.530483
-0.542145
-0.558853
-0.579045
-0.60147
-0.624885
-0.647953
-0.669224
-0.687174
-0.700253
-0.706927
-0.705723
-0.695351
-0.675437
-0.645082
-0.604357
-0.553878
-0.494907
-0.429337
-0.359618
-0.288532
-0.219001
-0.153768
-0.0952032
-0.0449655
-0.00411669
0.0269138
0.0485793
0.0608035
0.0657993
0.0618027
0.0540289
0.0354236
0.0181107
1.14721
1.1796
1.23621
1.29742
1.35485
1.28817
-0.536626
-0.540149
-0.550449
-0.56629
-0.585942
-0.608092
-0.631446
-0.654618
-0.67612
-0.694395
-0.707876
-0.71502
-0.714382
-0.704881
-0.685312
-0.655448
-0.615193
-0.565105
-0.5064
-0.440961
-0.37124
-0.300028
-0.23027
-0.164787
-0.10595
-0.0554184
-0.0142673
0.017102
0.0391612
0.0519154
0.0574871
0.0544844
0.04757
0.031143
0.0153427
1.03998
1.05625
1.07789
1.08393
1.08981
0.928984
-0.546171
-0.546885
-0.556487
-0.571955
-0.591419
-0.613542
-0.637
-0.660381
-0.682175
-0.700809
-0.714704
-0.722329
-0.722227
-0.713256
-0.694379
-0.665163
-0.625538
-0.57603
-0.517844
-0.452855
-0.383511
-0.312611
-0.243167
-0.177919
-0.119278
-0.0688802
-0.0277595
0.00374409
0.0261149
0.0395193
0.0458731
0.0443661
0.0388227
0.0254833
0.0120508
0.918736
0.920997
0.912251
0.873147
0.834169
0.521538
0.183585
-0.563332
-0.551517
-0.548836
-0.558012
-0.57355
-0.593225
-0.615596
-0.639312
-0.662951
-0.685007
-0.703911
-0.718094
-0.726045
-0.726341
-0.717774
-0.699453
-0.670844
-0.631881
-0.583105
-0.525735
-0.461625
-0.393237
-0.323359
-0.254989
-0.190807
-0.133157
-0.0835954
-0.0430663
-0.0118021
0.0106752
0.0247586
0.0320569
0.0324376
0.0287466
0.0190677
0.00864525
0.794874
0.786237
0.758778
0.689526
0.536933
0.316137
-0.171253
-0.567472
-0.60436
-0.569848
-0.547946
-0.546886
-0.555699
-0.571391
-0.591367
-0.614016
-0.63793
-0.661678
-0.683769
-0.702655
-0.716795
-0.724728
-0.725056
-0.716619
-0.69855
-0.670335
-0.631954
-0.583981
-0.527675
-0.464909
-0.398144
-0.330129
-0.26377
-0.201633
-0.145902
-0.0979831
-0.0586836
-0.0280866
-0.00573928
0.00898624
0.0173485
0.0198367
0.0183446
0.0125149
0.00539519
0.675936
0.661141
0.622934
0.54518
0.398571
0.143217
-0.19513
-0.67654
-0.915196
-0.806373
-0.675473
-0.610649
-0.561833
-0.546023
-0.54374
-0.552202
-0.567753
-0.587663
-0.61019
-0.633871
-0.657248
-0.678849
-0.697149
-0.710629
-0.717993
-0.717769
-0.708898
-0.690578
-0.662378
-0.62437
-0.577206
-0.522211
-0.461292
-0.39688
-0.331635
-0.268287
-0.209197
-0.156307
-0.110799
-0.073314
-0.0437731
-0.0217638
-0.00647703
0.00300613
0.00763504
0.00848606
0.00635839
0.00249889
0.566899
0.549696
0.507969
0.432829
0.305177
0.108633
-0.173045
-0.499258
-0.783145
-0.912439
-0.871469
-0.760181
-0.645219
-0.590101
-0.560918
-0.545942
-0.542932
-0.55037
-0.565016
-0.584066
-0.605648
-0.628252
-0.650393
-0.67062
-0.687462
-0.699611
-0.705374
-0.703773
-0.693743
-0.674575
-0.645979
-0.608165
-0.561908
-0.508605
-0.450173
-0.388961
-0.327452
-0.268108
-0.21299
-0.16373
-0.121248
-0.0860159
-0.0578177
-0.0362995
-0.0205602
-0.00998276
-0.00334668
-0.00021718
0.000965974
8.40059e-05
0.470132
0.452749
0.412542
0.344589
0.239015
0.0887468
-0.106875
-0.338509
-0.53084
-0.650474
-0.687528
-0.656514
-0.603734
-0.565305
-0.544732
-0.535714
-0.535769
-0.544164
-0.558808
-0.577298
-0.597814
-0.618928
-0.639246
-0.657358
-0.671832
-0.681377
-0.684928
-0.681307
-0.66959
-0.649251
-0.620181
-0.582758
-0.537879
-0.486985
-0.431939
-0.374911
-0.318113
-0.263652
-0.213226
-0.168138
-0.129052
-0.0963027
-0.0695979
-0.0486639
-0.0325968
-0.021035
-0.0126465
-0.00746595
-0.00349597
-0.00181091
0.385955
0.369569
0.3333
0.273877
0.187624
0.0706639
-0.0729954
-0.236768
-0.386483
-0.498605
-0.553703
-0.557044
-0.538027
-0.522263
-0.515799
-0.515935
-0.521096
-0.531313
-0.545877
-0.563326
-0.582206
-0.601259
-0.619241
-0.63478
-0.646295
-0.653212
-0.654345
-0.648613
-0.635319
-0.614155
-0.5852
-0.548974
-0.506448
-0.459023
-0.40841
-0.356512
-0.305191
-0.256168
-0.21078
-0.170037
-0.134408
-0.104145
-0.078945
-0.0586321
-0.0423632
-0.0299834
-0.0201566
-0.0132412
-0.00703469
-0.00322843
0.313546
0.298734
0.267026
0.215952
0.14506
0.0521889
-0.0577185
-0.179321
-0.296317
-0.389285
-0.445852
-0.46874
-0.473394
-0.474881
-0.479292
-0.486629
-0.496293
-0.508542
-0.523343
-0.53992
-0.557181
-0.574048
-0.589464
-0.602217
-0.611402
-0.615879
-0.614812
-0.607431
-0.593264
-0.572171
-0.544358
-0.510414
-0.471289
-0.428261
-0.382808
-0.336519
-0.290903
-0.247327
-0.20683
-0.170204
-0.137798
-0.109833
-0.0860391
-0.0663409
-0.0499838
-0.0369712
-0.0260207
-0.0177051
-0.00976319
-0.00425764
0.251667
0.23864
0.211277
0.167795
0.108994
0.034168
-0.0525235
-0.146525
-0.237965
-0.314389
-0.368509
-0.401023
-0.419079
-0.431218
-0.442588
-0.454581
-0.467314
-0.481053
-0.495926
-0.511537
-0.52711
-0.541778
-0.554646
-0.565033
-0.572161
-0.574628
-0.571863
-0.563503
-0.549251
-0.529055
-0.503174
-0.472194
-0.436975
-0.398615
-0.358342
-0.317447
-0.277133
-0.238492
-0.202341
-0.169329
-0.139734
-0.113779
-0.0912403
-0.0721261
-0.0557733
-0.0423001
-0.0305031
-0.0210926
-0.0118322
-0.00499449
0.199023
0.187757
0.164262
0.127409
0.0782896
0.0172427
-0.0525942
-0.127305
-0.200505
-0.264713
-0.315069
-0.350919
-0.375472
-0.393702
-0.409483
-0.424516
-0.439257
-0.453944
-0.468705
-0.483348
-0.497355
-0.510095
-0.520881
-0.529184
-0.534267
-0.53511
-0.531229
-0.522438
-0.50858
-0.489666
-0.465963
-0.438004
-0.406534
-0.37247
-0.336815
-0.300616
-0.264839
-0.230367
-0.197865
-0.167881
-0.140651
-0.116403
-0.0949555
-0.0763811
-0.0600979
-0.0463061
-0.0338863
-0.0236366
-0.0133867
-0.00551953
0.154389
0.144725
0.124588
0.0933581
0.0520811
0.00163953
-0.0556084
-0.116493
-0.176768
-0.231658
-0.277624
-0.313563
-0.340907
-0.362552
-0.381158
-0.3982
-0.414226
-0.429466
-0.444033
-0.45784
-0.470555
-0.481723
-0.490823
-0.497361
-0.500787
-0.500418
-0.495861
-0.486984
-0.473715
-0.456113
-0.434441
-0.40917
-0.380933
-0.350494
-0.318677
-0.28634
-0.25427
-0.223198
-0.193672
-0.166166
-0.140888
-0.118065
-0.0975515
-0.0794645
-0.0632911
-0.0492891
-0.0364192
-0.0255352
-0.0145481
-0.00589339
0.116655
0.108381
0.0911123
0.0645598
0.0296441
-0.0125772
-0.0602828
-0.111006
-0.161749
-0.209238
-0.250864
-0.285526
-0.313771
-0.337202
-0.357512
-0.375813
-0.39262
-0.408158
-0.422525
-0.435677
-0.447397
-0.457347
-0.465126
-0.470333
-0.472555
-0.471337
-0.466386
-0.457588
-0.444924
-0.428494
-0.408551
-0.385512
-0.359919
-0.332414
-0.303684
-0.274443
-0.245342
-0.216996
-0.189867
-0.164369
-0.140687
-0.119043
-0.0993215
-0.0816677
-0.0656256
-0.0514936
-0.0383038
-0.0269456
-0.0154124
-0.00615989
0.0848525
0.0777507
0.0628972
0.0401879
0.0104195
-0.0253735
-0.0657423
-0.108778
-0.152254
-0.193823
-0.231556
-0.264456
-0.292583
-0.316744
-0.337945
-0.356957
-0.374205
-0.389884
-0.404071
-0.416732
-0.427714
-0.436759
-0.443565
-0.447817
-0.449195
-0.447398
-0.44222
-0.433569
-0.421461
-0.406025
-0.387507
-0.366277
-0.342805
-0.317641
-0.291367
-0.264586
-0.237849
-0.211679
-0.186472
-0.162596
-0.140214
-0.119545
-0.10049
-0.0832177
-0.0673155
-0.0531111
-0.0396982
-0.0279891
-0.0160533
-0.00635001
0.0581545
0.0520239
0.0391785
0.0196037
-0.00601173
-0.0367371
-0.0713954
-0.108497
-0.146339
-0.183183
-0.217559
-0.24858
-0.276039
-0.300264
-0.321805
-0.341153
-0.358613
-0.374331
-0.388354
-0.400644
-0.411082
-0.419468
-0.425569
-0.429129
-0.429929
-0.427754
-0.422461
-0.413989
-0.402381
-0.387782
-0.370429
-0.350657
-0.328881
-0.30558
-0.281257
-0.256429
-0.231572
-0.20714
-0.183476
-0.160909
-0.139587
-0.119722
-0.101228
-0.0842874
-0.068525
-0.0542884
-0.0407235
-0.0287573
-0.0165267
-0.00648552
0.0358717
0.0305356
0.0193398
0.00230557
-0.0199719
-0.0466857
-0.0768687
-0.109342
-0.142779
-0.175842
-0.207369
-0.23657
-0.263106
-0.287017
-0.308555
-0.327988
-0.345502
-0.361186
-0.375052
-0.387053
-0.397086
-0.404993
-0.410586
-0.413644
-0.414059
-0.411647
-0.406314
-0.398032
-0.386865
-0.372966
-0.356564
-0.337967
-0.317548
-0.295731
-0.272959
-0.249686
-0.226327
-0.203284
-0.180858
-0.159349
-0.13889
-0.119685
-0.101661
-0.0850076
-0.0693788
-0.0551372
-0.0414719
-0.0293195
-0.0168745
-0.00658179
0.0174365
0.0127428
0.00288568
-0.0121055
-0.0317166
-0.055258
-0.0819288
-0.110781
-0.140756
-0.170789
-0.19993
-0.227473
-0.253014
-0.276428
-0.297761
-0.31712
-0.334583
-0.350181
-0.363895
-0.375664
-0.385392
-0.392947
-0.398178
-0.400932
-0.401052
-0.398485
-0.393155
-0.385059
-0.374274
-0.360957
-0.345328
-0.327677
-0.308343
-0.287709
-0.26617
-0.244133
-0.221967
-0.200033
-0.1786
-0.157943
-0.138184
-0.11952
-0.101885
-0.0854769
-0.0699713
-0.0557418
-0.042013
-0.0297276
-0.0171282
-0.00664976
0.00238752
-0.00179355
-0.0105804
-0.0239475
-0.0414501
-0.0624997
-0.0864263
-0.112452
-0.139712
-0.16733
-0.194507
-0.220605
-0.245194
-0.268046
-0.289075
-0.308267
-0.325617
-0.3411
-0.354668
-0.366247
-0.375742
-0.383037
-0.388004
-0.390524
-0.390473
-0.387817
-0.382517
-0.374593
-0.364133
-0.351294
-0.336291
-0.319396
-0.300924
-0.281227
-0.260664
-0.239605
-0.218384
-0.197329
-0.176686
-0.15671
-0.137513
-0.119287
-0.101972
-0.0857698
-0.0703741
-0.0561662
-0.0423997
-0.0300207
-0.0173114
-0.00669726
-0.00964411
-0.0134241
-0.0213725
-0.0334719
-0.0493352
-0.068456
-0.0902654
-0.11411
-0.139265
-0.164988
-0.190586
-0.215476
-0.239218
-0.261522
-0.282218
-0.301204
-0.318411
-0.33377
-0.347204
-0.358629
-0.367945
-0.375047
-0.379825
-0.38218
-0.38202
-0.379317
-0.37406
-0.366288
-0.356097
-0.343643
-0.329137
-0.312838
-0.295042
-0.276078
-0.256277
-0.23598
-0.215496
-0.195129
-0.175104
-0.155663
-0.136911
-0.119034
-0.101976
-0.0859424
-0.0706411
-0.0564586
-0.0426715
-0.0302279
-0.017442
-0.00672994
-0.0189478
-0.0224235
-0.0297353
-0.0408744
-0.0554996
-0.0731676
-0.0933856
-0.11559
-0.139156
-0.163434
-0.187807
-0.21173
-0.234767
-0.25659
-0.276972
-0.295753
-0.312816
-0.328056
-0.341376
-0.352677
-0.361859
-0.368821
-0.373465
-0.375706
-0.375475
-0.372751
-0.367541
-0.359895
-0.349917
-0.337764
-0.323641
-0.307798
-0.290518
-0.272111
-0.252887
-0.23317
-0.213245
-0.1934
-0.173847
-0.154815
-0.136403
-0.118794
-0.101937
-0.0860365
-0.0708124
-0.0566547
-0.0428581
-0.0303708
-0.017533
-0.00675176
-0.0257435
-0.0290004
-0.0358541
-0.0463034
-0.0600409
-0.0766693
-0.0957496
-0.116781
-0.139206
-0.162439
-0.185914
-0.209117
-0.231611
-0.253051
-0.273172
-0.291779
-0.308716
-0.323856
-0.337085
-0.348293
-0.357379
-0.364243
-0.368796
-0.370962
-0.370686
-0.367955
-0.362786
-0.355238
-0.345419
-0.333486
-0.319642
-0.304131
-0.287224
-0.269218
-0.250411
-0.231111
-0.211589
-0.192121
-0.172908
-0.154172
-0.136007
-0.118595
-0.101885
-0.0860826
-0.0709176
-0.0567808
-0.042981
-0.0304652
-0.0175941
-0.00676518
-0.0301893
-0.0333054
-0.0398626
-0.0498657
-0.0630304
-0.0789887
-0.0973359
-0.117611
-0.139298
-0.161853
-0.18474
-0.207463
-0.229591
-0.250765
-0.270702
-0.289182
-0.306028
-0.321096
-0.334261
-0.345407
-0.35443
-0.361232
-0.365728
-0.367849
-0.367547
-0.364815
-0.359676
-0.352194
-0.342481
-0.330694
-0.317033
-0.301737
-0.285072
-0.267327
-0.24879
-0.22976
-0.2105
-0.191276
-0.172284
-0.15374
-0.135737
-0.118452
-0.101839
-0.0861021
-0.070977
-0.056855
-0.0430555
-0.0305215
-0.0176329
-0.00676907
-0.0323837
-0.0354334
-0.0418451
-0.0516287
-0.0645127
-0.0801431
-0.0981314
-0.118036
-0.139361
-0.161582
-0.184178
-0.206662
-0.228605
-0.249644
-0.269487
-0.2879
-0.304698
-0.319729
-0.332861
-0.343976
-0.352968
-0.35974
-0.364209
-0.366308
-0.365995
-0.363263
-0.35814
-0.350692
-0.341031
-0.329316
-0.315745
-0.300556
-0.28401
-0.266393
-0.247989
-0.229091
-0.20996
-0.190856
-0.171973
-0.153523
-0.1356
-0.118378
-0.101813
-0.0861075
-0.0710052
-0.0568867
-0.0430946
-0.0305414
-0.0176615
-0.00675386
-0.0323844
-0.03543
-0.0418425
-0.051628
-0.0645124
-0.0801428
-0.0981313
-0.118036
-0.139362
-0.161583
-0.184179
-0.206664
-0.228607
-0.249646
-0.269488
-0.287901
-0.304699
-0.31973
-0.332862
-0.343978
-0.35297
-0.359742
-0.364211
-0.36631
-0.365997
-0.363266
-0.358142
-0.350694
-0.341033
-0.329318
-0.315746
-0.300557
-0.284011
-0.266393
-0.247989
-0.229092
-0.20996
-0.190856
-0.171973
-0.153524
-0.135599
-0.118379
-0.101812
-0.0861096
-0.0710025
-0.0568915
-0.0430875
-0.0305528
-0.0176433
-0.00678284
-0.0301898
-0.0333019
-0.03986
-0.049865
-0.0630301
-0.0789883
-0.0973358
-0.117612
-0.139299
-0.161854
-0.184741
-0.207465
-0.229592
-0.250766
-0.270703
-0.289183
-0.306029
-0.321097
-0.334262
-0.345409
-0.354432
-0.361234
-0.36573
-0.367851
-0.36755
-0.364818
-0.359678
-0.352197
-0.342483
-0.330696
-0.317034
-0.301738
-0.285073
-0.267327
-0.248791
-0.22976
-0.2105
-0.191276
-0.172284
-0.153741
-0.135736
-0.118453
-0.101838
-0.0861041
-0.0709744
-0.0568596
-0.0430487
-0.0305326
-0.0176151
-0.00679755
-0.025744
-0.0289967
-0.0358514
-0.0463027
-0.0600406
-0.0766689
-0.0957495
-0.116782
-0.139207
-0.162441
-0.185916
-0.209118
-0.231612
-0.253052
-0.273173
-0.29178
-0.308717
-0.323857
-0.337086
-0.348295
-0.35738
-0.364245
-0.368798
-0.370964
-0.370689
-0.367958
-0.362788
-0.35524
-0.345421
-0.333488
-0.319644
-0.304133
-0.287225
-0.269219
-0.250412
-0.231111
-0.211589
-0.192121
-0.172908
-0.154172
-0.136007
-0.118596
-0.101884
-0.0860847
-0.0709149
-0.0567854
-0.0429742
-0.0304762
-0.0175764
-0.00679364
-0.0189484
-0.0224196
-0.0297324
-0.0408737
-0.0554992
-0.0731672
-0.0933856
-0.115591
-0.139157
-0.163436
-0.187808
-0.211732
-0.234768
-0.256591
-0.276972
-0.295754
-0.312817
-0.328057
-0.341377
-0.352679
-0.361861
-0.368823
-0.373467
-0.375708
-0.375478
-0.372754
-0.367544
-0.359898
-0.34992
-0.337766
-0.323642
-0.3078
-0.290519
-0.272111
-0.252888
-0.23317
-0.213245
-0.1934
-0.173847
-0.154815
-0.136402
-0.118795
-0.101936
-0.0860385
-0.0708098
-0.0566594
-0.0428513
-0.030382
-0.0175153
-0.0067804
-0.00964474
-0.0134199
-0.0213694
-0.033471
-0.0493348
-0.0684556
-0.0902656
-0.114111
-0.139267
-0.16499
-0.190589
-0.215478
-0.239219
-0.261523
-0.282219
-0.301205
-0.318412
-0.333771
-0.347206
-0.358631
-0.367947
-0.375049
-0.379828
-0.382182
-0.382023
-0.37932
-0.374063
-0.366291
-0.356099
-0.343645
-0.329139
-0.31284
-0.295044
-0.276079
-0.256277
-0.235981
-0.215496
-0.195129
-0.175104
-0.155664
-0.13691
-0.119035
-0.101975
-0.0859444
-0.0706383
-0.0564633
-0.0426646
-0.0302392
-0.0174242
-0.0067588
0.0023868
-0.00178889
-0.0105769
-0.0239465
-0.0414496
-0.0624994
-0.0864268
-0.112453
-0.139714
-0.167333
-0.19451
-0.220607
-0.245196
-0.268047
-0.289076
-0.308268
-0.325618
-0.341101
-0.354669
-0.366249
-0.375744
-0.383039
-0.388006
-0.390526
-0.390477
-0.38782
-0.38252
-0.374596
-0.364136
-0.351297
-0.336293
-0.319398
-0.300925
-0.281228
-0.260665
-0.239606
-0.218384
-0.197329
-0.176686
-0.15671
-0.137512
-0.119288
-0.101971
-0.0857717
-0.0703712
-0.0561709
-0.0423927
-0.0300321
-0.0172935
-0.00672639
0.0174356
0.012748
0.00288962
-0.0121044
-0.031716
-0.0552576
-0.0819297
-0.110783
-0.14076
-0.170793
-0.199934
-0.227475
-0.253015
-0.276428
-0.297761
-0.31712
-0.334584
-0.350182
-0.363896
-0.375666
-0.385394
-0.392949
-0.398181
-0.400934
-0.401055
-0.398489
-0.393159
-0.385062
-0.374278
-0.36096
-0.345331
-0.327679
-0.308344
-0.28771
-0.266171
-0.244134
-0.221967
-0.200033
-0.1786
-0.157943
-0.138183
-0.11952
-0.101884
-0.0854786
-0.0699682
-0.0557465
-0.0420059
-0.0297391
-0.0171101
-0.00667918
0.0358707
0.0305414
0.0193445
0.00230699
-0.0199711
-0.0466853
-0.0768702
-0.109346
-0.142785
-0.175848
-0.207374
-0.236574
-0.263107
-0.287017
-0.308554
-0.327988
-0.345503
-0.361187
-0.375053
-0.387055
-0.397089
-0.404996
-0.410589
-0.413648
-0.414063
-0.411651
-0.406319
-0.398036
-0.386869
-0.37297
-0.356567
-0.337969
-0.317549
-0.295732
-0.272959
-0.249686
-0.226326
-0.203283
-0.180857
-0.159349
-0.138889
-0.119686
-0.101659
-0.0850092
-0.0693755
-0.0551417
-0.0414645
-0.0293311
-0.0168563
-0.00661158
0.0581532
0.0520304
0.0391841
0.0196055
-0.00601038
-0.0367368
-0.071398
-0.108502
-0.146347
-0.183192
-0.217566
-0.248583
-0.276039
-0.300262
-0.321804
-0.341153
-0.358614
-0.374332
-0.388355
-0.400646
-0.411085
-0.419471
-0.425572
-0.429133
-0.429933
-0.427759
-0.422466
-0.413993
-0.402385
-0.387786
-0.370432
-0.35066
-0.328883
-0.305581
-0.281257
-0.256429
-0.231571
-0.207139
-0.183475
-0.160908
-0.139586
-0.119721
-0.101226
-0.0842888
-0.0685215
-0.0542929
-0.0407159
-0.028769
-0.0165083
-0.00651573
0.0848508
0.0777578
0.0629042
0.0401902
0.010422
-0.0253731
-0.0657464
-0.108787
-0.152267
-0.193837
-0.231564
-0.264457
-0.292579
-0.316738
-0.337942
-0.356957
-0.374205
-0.389884
-0.404072
-0.416734
-0.427716
-0.436762
-0.443568
-0.447821
-0.449199
-0.447402
-0.442224
-0.433573
-0.421465
-0.406029
-0.38751
-0.36628
-0.342806
-0.317642
-0.291367
-0.264585
-0.237847
-0.211678
-0.18647
-0.162595
-0.140212
-0.119544
-0.100488
-0.0832188
-0.0673117
-0.0531155
-0.0396903
-0.0280008
-0.0160348
-0.0063807
0.116653
0.108389
0.0911213
0.0645628
0.0296488
-0.0125763
-0.0602883
-0.11102
-0.161772
-0.20926
-0.250876
-0.285524
-0.313757
-0.33719