/*--------------------------------*- C++ -*----------------------------------*\
  =========                 |
  \\      /  F ield         | OpenFOAM: The Open Source CFD Toolbox
   \\    /   O peration     | Website:  https://openfoam.org
    \\  /    A nd           | Version:  8
     \\/     M anipulation  |
\*---------------------------------------------------------------------------*/
FoamFile
{
    version     2.0;
    format      ascii;
    class       surfaceScalarField;
    location    "7";
    object      phi;
}
// * * * * * * * * * * * * * * * * * * * * * * * * * * * * * * * * * * * * * //

dimensions      [0 3 -1 0 0 0 0];

internalField   nonuniform List<scalar> 
34404
(
0.00534253
-9.19707e-06
5.29902e-09
0.00537002
-2.74796e-05
-8.74179e-09
0.00541503
-4.49994e-05
-1.2339e-08
0.00547616
-6.11257e-05
-6.41105e-09
0.00555151
-7.535e-05
-3.01009e-09
0.00563877
-8.72517e-05
-2.50944e-09
0.00573529
-9.65237e-05
-1.43801e-09
0.00583829
-0.000102998
2.07888e-10
0.00594495
-0.000106659
2.44703e-09
0.00605259
-0.000107648
4.24607e-09
0.00615882
-0.000106236
5.47129e-09
0.0062616
-0.000102787
5.9985e-09
0.0063593
-9.77055e-05
5.82733e-09
0.00645067
-9.13766e-05
5.12626e-09
0.00653479
-8.41253e-05
4.17583e-09
0.00661098
-7.61945e-05
3.23786e-09
0.00667873
-6.77454e-05
2.49059e-09
0.0067376
-5.8873e-05
2.01231e-09
0.00678722
-4.96262e-05
1.79047e-09
0.00682725
-4.00252e-05
1.78698e-09
0.00685732
-3.00786e-05
1.9354e-09
0.00687712
-1.97946e-05
2.18136e-09
0.00688631
-9.19586e-06
2.45088e-09
0.00688463
1.6779e-06
2.67103e-09
0.0068719
1.27279e-05
3.22309e-09
0.00684801
2.38805e-05
3.70471e-09
0.006813
3.50063e-05
3.94409e-09
0.00676704
4.59549e-05
3.992e-09
0.00671048
5.65601e-05
3.75625e-09
0.00664383
6.66458e-05
3.46032e-09
0.00656779
7.60408e-05
2.8468e-09
0.0064832
8.45802e-05
2.36553e-09
0.00639108
9.21248e-05
1.41972e-09
0.00629252
9.85568e-05
9.71672e-10
0.00618872
0.000103802
-1.19053e-10
0.00608091
0.000107814
-7.81781e-11
0.00597031
0.000110601
-1.72707e-09
0.00585811
0.000112196
-4.96125e-10
0.00574543
0.00011268
-3.19245e-09
0.00563328
0.000112151
3.358e-10
0.00552254
0.000110751
-5.21331e-09
0.00541394
0.000108595
3.25027e-09
0.00530805
0.000105894
-9.40261e-09
0.00520537
0.000102674
1.04993e-08
0.00510608
9.93142e-05
-1.94675e-08
0.00501053
9.55173e-05
2.72319e-08
0.00491843
9.21455e-05
-4.35019e-08
0.00483038
8.79828e-05
6.26229e-08
0.00474512
8.53511e-05
-8.81289e-08
8.0316e-05
8.96152e-08
0.00534275
-1.86161e-05
5.01455e-09
0.00537085
-5.55712e-05
-9.11519e-09
0.00541687
-9.10039e-05
-1.24372e-08
0.00547937
-0.000123625
-6.54744e-09
0.0055564
-0.000152375
-3.29985e-09
0.00564555
-0.000176395
-2.68781e-09
0.00574409
-0.000195063
-1.42749e-09
0.00584913
-0.000208035
3.13823e-10
0.00595775
-0.000215284
2.73845e-09
0.0060672
-0.000217101
4.6435e-09
0.00617501
-0.000214057
5.9051e-09
0.00627913
-0.000206913
6.38508e-09
0.00637793
-0.000196509
6.11165e-09
0.00647019
-0.000183642
5.29729e-09
0.00655503
-0.000168974
4.25536e-09
0.00663183
-0.00015299
3.27319e-09
0.00670009
-0.000136008
2.53264e-09
0.00675942
-0.000118205
2.09349e-09
0.00680946
-9.96715e-05
1.9098e-09
0.00684987
-8.04359e-05
1.931e-09
0.00688029
-6.05073e-05
2.09517e-09
0.00690039
-3.98943e-05
2.35426e-09
0.00690983
-1.86369e-05
2.61281e-09
0.00690831
3.19253e-06
2.76275e-09
0.00689565
2.53843e-05
3.40698e-09
0.00687173
4.78028e-05
3.95284e-09
0.00683655
7.0183e-05
4.21992e-09
0.00679028
9.22192e-05
4.28261e-09
0.00673326
0.000113573
4.05385e-09
0.00666602
0.000133887
3.76438e-09
0.00658924
0.000152811
3.14977e-09
0.00650381
0.000170008
2.66671e-09
0.00641074
0.000185197
1.70802e-09
0.00631116
0.000198133
1.24835e-09
0.00620629
0.000208671
8.57094e-11
0.00609739
0.000216711
1.01821e-10
0.00598572
0.000222277
-1.55345e-09
0.00587249
0.000225424
-3.84477e-10
0.00575883
0.00022634
-3.0497e-09
0.00564579
0.000225194
3.4693e-10
0.00553423
0.000222321
-5.10442e-09
0.00542493
0.000217889
3.16998e-09
0.00531841
0.000212423
-9.18152e-09
0.00521524
0.000205832
1.02471e-08
0.00511547
0.000199106
-1.90462e-08
0.00501965
0.000191311
2.66024e-08
0.00492715
0.000184683
-4.2526e-08
0.00483903
0.00017604
6.12153e-08
0.00475336
0.00017111
-8.62307e-08
0.00016059
8.79498e-08
0.00534317
-2.84593e-05
5.08946e-09
0.00537256
-8.49478e-05
-9.68019e-09
0.00542067
-0.000139103
-1.30332e-08
0.005486
-0.000188946
-6.93151e-09
0.00556646
-0.000232827
-3.56921e-09
0.00565948
-0.000269413
-2.81146e-09
0.00576215
-0.000297732
-1.22616e-09
0.00587136
-0.000317246
8.0376e-10
0.00598399
-0.000327918
3.58584e-09
0.0060971
-0.000330224
5.74917e-09
0.00620812
-0.000325085
7.10114e-09
0.00631494
-0.000313732
7.46545e-09
0.00641593
-0.000297512
6.90172e-09
0.00650997
-0.000277682
5.72731e-09
0.00659625
-0.000255265
4.3798e-09
0.00667425
-0.00023099
3.2327e-09
0.00674355
-0.00020531
2.45749e-09
0.00680381
-0.000178469
2.04335e-09
0.00685471
-0.000150571
1.88746e-09
0.00689591
-0.000121636
1.94405e-09
0.00692705
-9.16556e-05
2.16012e-09
0.00694778
-6.06219e-05
2.47065e-09
0.00695772
-2.85829e-05
2.74327e-09
0.00695654
4.36875e-06
2.84476e-09
0.00694403
3.78946e-05
3.6083e-09
0.00692002
7.18121e-05
4.28988e-09
0.00688448
0.000105712
4.63164e-09
0.00683757
0.000139122
4.74251e-09
0.00677962
0.000171521
4.52948e-09
0.00671115
0.000202353
4.21933e-09
0.00663288
0.000231079
3.58145e-09
0.00654571
0.000257177
3.04923e-09
0.00645069
0.000280209
2.02263e-09
0.00634903
0.0002998
1.4979e-09
0.00624197
0.000315722
2.11325e-10
0.00613086
0.000327823
1.79041e-10
0.006017
0.000336142
-1.48249e-09
0.00590166
0.000340765
-3.67615e-10
0.00578601
0.000341989
-3.09972e-09
0.00567114
0.000340067
2.73046e-10
0.00555793
0.000335536
-5.15685e-09
0.00544719
0.000328629
3.1062e-09
0.00533942
0.000320199
-9.23891e-09
0.0052352
0.000310041
1.0144e-08
0.00513456
0.000299765
-1.90502e-08
0.00503803
0.000287817
2.64823e-08
0.00494497
0.000277781
-4.24133e-08
0.00485636
0.000264593
6.10065e-08
0.00477034
0.000257213
-8.57353e-08
0.000241273
8.77626e-08
0.00534384
-3.89655e-05
5.34423e-09
0.00537521
-0.000116307
-1.05163e-08
0.00542656
-0.000190442
-1.41192e-08
0.00549626
-0.000258637
-7.61203e-09
0.00558203
-0.000318597
-3.95515e-09
0.00568108
-0.000368452
-2.97906e-09
0.00579017
-0.000406824
-1.01986e-09
0.00590587
-0.000432947
1.64696e-09
0.00602472
-0.000446779
5.00676e-09
0.00614351
-0.000449023
7.63497e-09
0.00625947
-0.000441045
9.14791e-09
0.00637039
-0.000424665
9.28392e-09
0.00647472
-0.00040185
8.17265e-09
0.00657143
-0.000374402
6.35395e-09
0.0066599
-0.000343737
4.49472e-09
0.00673973
-0.000310817
3.08732e-09
0.00681062
-0.000276205
2.25215e-09
0.00687232
-0.000240171
1.86292e-09
0.00692455
-0.000202803
1.75225e-09
0.00696699
-0.000164079
1.88033e-09
0.00699927
-0.000123943
2.19168e-09
0.007021
-8.235e-05
2.58478e-09
0.00703175
-3.93399e-05
2.89911e-09
0.00703112
4.99649e-06
2.94006e-09
0.00701886
5.01564e-05
3.89796e-09
0.00699472
9.59403e-05
4.80844e-09
0.00695865
0.000141779
5.29529e-09
0.00691075
0.000187015
5.42558e-09
0.00685135
0.000230922
5.20905e-09
0.00678096
0.00027273
4.893e-09
0.00670035
0.000311688
4.21146e-09
0.00661046
0.000347067
3.5966e-09
0.00651241
0.000378257
2.46313e-09
0.00640747
0.000404734
1.84367e-09
0.00629701
0.000426181
4.05933e-10
0.00618244
0.000442391
3.06413e-10
0.00606517
0.000453421
-1.47287e-09
0.00594654
0.000459394
-4.36792e-10
0.0058278
0.000460731
-3.23496e-09
0.00571008
0.000457781
1.57379e-10
0.00559432
0.000451306
-5.34413e-09
0.00548134
0.00044161
2.99569e-09
0.00537164
0.000429903
-9.47899e-09
0.0052658
0.000415871
1.01236e-08
0.00516382
0.000401764
-1.93262e-08
0.0050662
0.000385412
2.6613e-08
0.00497227
0.000371758
-4.27615e-08
0.00488293
0.000353868
6.13796e-08
0.00479631
0.000343919
-8.59662e-08
0.00032249
8.80958e-08
0.00534476
-5.03942e-05
5.67843e-09
0.00537888
-0.000150418
-1.17204e-08
0.00543474
-0.000246287
-1.57617e-08
0.00551054
-0.000334427
-8.72003e-09
0.00560375
-0.000411805
-4.6616e-09
0.00571124
-0.000475931
-3.34933e-09
0.00582935
-0.000524934
-8.55579e-10
0.00595416
-0.000557759
2.85936e-09
0.00608173
-0.000574358
7.20227e-09
0.00620842
-0.000575728
1.06153e-08
0.00633118
-0.000563819
1.23692e-08
0.00644773
-0.000541224
1.20617e-08
0.00655658
-0.00051071
1.00139e-08
0.00665691
-0.000474735
7.18545e-09
0.00674832
-0.000435151
4.5952e-09
0.00683063
-0.00039313
2.86312e-09
0.00690371
-0.00034929
2.00017e-09
0.00696742
-0.000303878
1.67972e-09
0.00702153
-0.000256914
1.65226e-09
0.00706574
-0.000208293
1.88616e-09
0.00709966
-0.000157869
2.33036e-09
0.00712284
-0.000105528
2.83508e-09
0.00713477
-5.12813e-05
3.18703e-09
0.00713495
4.81916e-06
3.02588e-09
0.00712307
6.2033e-05
4.35705e-09
0.00709879
0.00012021
5.62402e-09
0.00706198
0.000178588
6.30551e-09
0.00701269
0.000236293
6.5295e-09
0.00695124
0.000292372
6.32502e-09
0.00687815
0.000345807
5.97635e-09
0.00679423
0.000395608
5.20148e-09
0.00670048
0.000440807
4.45823e-09
0.00659814
0.000480596
3.17732e-09
0.00648859
0.000514284
2.41705e-09
0.00637332
0.000541452
7.26972e-10
0.00625387
0.000561833
4.76035e-10
0.00613179
0.000575507
-1.44342e-09
0.00600854
0.000582646
-4.88118e-10
0.00588546
0.000583815
-3.40405e-09
0.00576376
0.000579477
1.21872e-11
0.00564443
0.000570645
-5.64579e-09
0.00552832
0.000557718
2.82699e-09
0.00541594
0.000542293
-9.80911e-09
0.00530785
0.000523952
1.00862e-08
0.00520401
0.000505621
-1.97127e-08
0.00510488
0.000484512
2.67854e-08
0.00500973
0.00046695
-4.32227e-08
0.00491941
0.000444125
6.18498e-08
0.00483195
0.000431465
-8.62614e-08
0.000404422
8.85316e-08
0.00534597
-6.30388e-05
6.11229e-09
0.00538372
-0.00018815
-1.32285e-08
0.00544553
-0.000308077
-1.79554e-08
0.0055294
-0.000418286
-1.0263e-08
0.00563249
-0.000514893
-5.73583e-09
0.00575123
-0.000594665
-3.97485e-09
0.00588139
-0.000655093
-6.78236e-10
0.00601837
-0.000694749
4.63699e-09
0.00615756
-0.00071356
1.05662e-08
0.00629472
-0.0007129
1.52772e-08
0.0064264
-0.000695514
1.73623e-08
0.00655021
-0.000665053
1.62e-08
0.00666483
-0.000625342
1.25364e-08
0.00676974
-0.000579656
8.08763e-09
0.0068649
-0.000530314
4.20347e-09
0.00695041
-0.000478644
2.21218e-09
0.00702636
-0.000425241
1.65768e-09
0.00709273
-0.00037025
1.4876e-09
0.00714938
-0.000313561
1.56568e-09
0.007196
-0.000254922
1.92478e-09
0.00723218
-0.000194046
2.54771e-09
0.00725736
-0.000130709
3.15441e-09
0.00727094
-6.48693e-05
3.47952e-09
0.00727224
3.52056e-06
2.94785e-09
0.00726092
7.33483e-05
4.88725e-09
0.00723647
0.000144646
6.74705e-09
0.00719867
0.000216383
7.73484e-09
0.00714752
0.000287436
7.99215e-09
0.0070833
0.000356586
7.76214e-09
0.00700656
0.000422533
7.39368e-09
0.00691816
0.000484001
6.54633e-09
0.00681922
0.000539747
5.64927e-09
0.00671108
0.000588727
4.14595e-09
0.00659531
0.000630055
3.16117e-09
0.00647356
0.000663198
1.18337e-09
0.00634757
0.000687822
7.16252e-10
0.00621905
0.000704036
-1.38841e-09
0.00608961
0.000712081
-5.7256e-10
0.00596074
0.000712689
-3.66985e-09
0.00583375
0.000706469
-2.59151e-10
0.00570967
0.000694725
-6.04248e-09
0.00558942
0.000677965
2.59714e-09
0.0054735
0.000658229
-1.02365e-08
0.00536244
0.000634996
1.00081e-08
0.00525616
0.000611921
-2.01975e-08
0.00515507
0.000585575
2.69609e-08
0.00505833
0.000563733
-4.37878e-08
0.00496675
0.000535649
6.23722e-08
0.0048782
0.000520103
-8.65658e-08
0.000487277
8.90439e-08
0.00534753
-7.72378e-05
6.6764e-09
0.00538988
-0.00023049
-1.49446e-08
0.0054593
-0.000377476
-2.07918e-08
0.00555354
-0.000512512
-1.23042e-08
0.0056694
-0.00063074
-7.32412e-09
0.00580275
-0.000728014
-4.98209e-09
0.00594861
-0.000800955
-4.53156e-10
0.00610148
-0.000847627
7.18025e-09
0.00625579
-0.000867879
1.55869e-08
0.00640643
-0.000863566
2.24108e-08
0.00654944
-0.000838551
2.49967e-08
0.00668234
-0.00079797
2.23613e-08
0.00680407
-0.000747086
1.59342e-08
0.0069146
-0.000690197
8.25915e-09
0.00701438
-0.0006301
3.28651e-09
0.0071039
-0.000568168
1.3326e-09
0.0071835
-0.000504844
9.86993e-10
0.00725333
-0.000440078
1.12306e-09
0.00731331
-0.000373539
1.32614e-09
0.00736314
-0.000304755
1.84704e-09
0.00740231
-0.000233223
2.73021e-09
0.00743017
-0.000158574
3.43253e-09
0.00744596
-8.06587e-05
3.70962e-09
0.00744875
7.29508e-07
2.60529e-09
0.00743819
8.39025e-05
5.32955e-09
0.00741352
0.00016931
8.07446e-09
0.00737439
0.000255498
9.2934e-09
0.00732076
0.000341059
9.60351e-09
0.00725287
0.00042447
9.48844e-09
0.0071713
0.000504092
9.14756e-09
0.00707698
0.000578311
8.19135e-09
0.00697117
0.000645549
7.09753e-09
0.00685541
0.000704484
5.31701e-09
0.00673146
0.000754002
4.03349e-09
0.00660122
0.000793431
1.73501e-09
0.00646668
0.000822369
9.66531e-10
0.00632975
0.000840968
-1.38414e-09
0.00619227
0.000849554
-7.51986e-10
0.00605589
0.000849073
-4.05579e-09
0.00592206
0.000840308
-6.25329e-10
0.00579188
0.000824911
-6.5593e-09
0.00566631
0.00080353
2.27216e-09
0.00554584
0.000778707
-1.07993e-08
0.00543101
0.00074982
9.86202e-09
0.00532162
0.000721327
-2.0816e-08
0.00521805
0.000689124
2.71345e-08
0.0051193
0.000662524
-4.44805e-08
0.00502613
0.000628757
6.29762e-08
0.00493621
0.000610107
-8.691e-08
0.000571281
8.96629e-08
0.00534948
-9.33868e-05
7.40247e-09
0.00539758
-0.000278571
-1.66859e-08
0.00547656
-0.000456432
-2.44718e-08
0.00558387
-0.000619813
-1.49186e-08
0.00571596
-0.000762815
-9.73854e-09
0.00586804
-0.00088009
-6.52708e-09
0.00603413
-0.00096704
5.26467e-11
0.00620751
-0.00102102
1.1014e-08
0.00638125
-0.00104165
2.32206e-08
0.00654905
-0.0010314
3.31593e-08
0.00670623
-0.000995764
3.62074e-08
0.00685024
-0.000942008
3.1057e-08
0.00698051
-0.000877384
2.01465e-08
0.00709777
-0.000807465
7.82758e-09
0.00720315
-0.000735475
2.09805e-09
0.0072976
-0.000662621
2.13427e-11
0.00738178
-0.00058902
-1.78761e-10
0.007456
-0.000514297
7.43503e-11
0.00752025
-0.000437793
3.65734e-10
0.00757421
-0.000358718
1.09613e-09
0.00761724
-0.000276255
2.44873e-09
0.00764854
-0.000189874
3.40809e-09
0.00766712
-9.92469e-05
4.13054e-09
0.0076718
-3.94807e-06
3.96297e-09
0.00766213
9.35627e-05
5.44845e-09
0.00763705
0.00019438
9.05687e-09
0.00759611
0.000296433
1.05083e-08
0.00753916
0.000397997
1.08526e-08
0.00746642
0.000497195
1.08358e-08
0.00737852
0.000591985
1.06386e-08
0.00727649
0.000680334
9.65947e-09
0.00716176
0.000760265
8.40987e-09
0.00703612
0.000830118
6.38991e-09
0.00690161
0.000888504
4.8256e-09
0.00676045
0.000934591
2.13835e-09
0.00661492
0.000967903
1.08034e-09
0.00646724
0.00098865
-1.56226e-09
0.00631951
0.000997281
-1.10256e-09
0.00617359
0.000995001
-4.62007e-09
0.00603108
0.000982819
-1.15206e-09
0.00589319
0.000962806
-7.25703e-09
0.00576094
0.00093578
1.81569e-09
0.00563478
0.000904873
-1.15177e-08
0.00551523
0.00086936
9.65106e-09
0.00540199
0.000834594
-2.15696e-08
0.00529534
0.000795743
2.7315e-08
0.00519413
0.000763786
-4.52989e-08
0.00509903
0.000723795
6.3669e-08
0.00500745
0.000701769
-8.72879e-08
0.000656677
9.04004e-08
0.00535189
-0.000111951
8.3441e-09
0.00540702
-0.000333683
-1.80715e-08
0.00549787
-0.00054725
-2.93253e-08
0.00562148
-0.000743402
-1.81216e-08
0.00577403
-0.000915353
-1.37111e-08
0.00594996
-0.00105601
-8.99164e-09
0.00614199
-0.00115907
8.08631e-10
0.00634181
-0.00122085
1.72187e-08
0.00654051
-0.00124038
3.59007e-08
0.00673002
-0.00122096
5.01195e-08
0.0069047
-0.0011705
5.22371e-08
0.00706208
-0.00109942
4.16732e-08
0.00720243
-0.00101776
2.15094e-08
0.00732758
-0.000932624
6.31341e-09
0.00743958
-0.000847471
-7.26396e-10
0.00753995
-0.000762992
-3.17183e-09
0.00762967
-0.000678738
-2.42506e-09
0.00770925
-0.000593872
-2.26018e-09
0.00777873
-0.000507269
-2.16565e-09
0.0078377
-0.000417694
-1.09214e-09
0.00788536
-0.000323911
2.28817e-10
0.00792069
-0.000225208
1.77065e-09
0.00794241
-0.000120972
3.59989e-09
0.00794938
-1.09214e-05
4.57311e-09
0.00794042
0.000102514
5.14212e-09
0.00791449
0.000220306
8.56115e-09
0.00787095
0.000339966
9.89763e-09
0.00780956
0.000459374
1.02313e-08
0.0077305
0.000576245
1.05044e-08
0.00763443
0.000688041
1.05587e-08
0.00752253
0.000792222
9.70992e-09
0.00739647
0.000886323
8.5345e-09
0.00725831
0.00096827
6.49381e-09
0.00711046
0.00103635
4.82219e-09
0.00695552
0.00108953
1.7776e-09
0.00679618
0.00112725
7.66245e-10
0.00663501
0.00114981
-2.20121e-09
0.00647447
0.00115783
-1.81167e-09
0.00631665
0.00115283
-5.51019e-09
0.00616337
0.0011361
-1.95324e-09
0.00601595
0.00111024
-8.20546e-09
0.00587545
0.00107627
1.19219e-09
0.00574232
0.00103802
-1.24123e-08
0.005617
0.000994662
9.36796e-09
0.00549906
0.000952555
-2.24633e-08
0.00538871
0.000906071
2.74946e-08
0.00528452
0.000868018
-4.62432e-08
0.00518713
0.000821126
6.44365e-08
0.00509359
0.00079539
-8.7662e-08
0.000743715
9.12416e-08
0.00535485
-0.000133474
9.6097e-09
0.00541845
-0.000397265
-1.84065e-08
0.0055239
-0.000652664
-3.57903e-08
0.0056676
-0.000887079
-2.16449e-08
0.00584587
-0.00109361
-2.06772e-08
0.00605212
-0.00126224
-1.35464e-08
0.00627747
-0.00138442
9.20974e-10
0.0065115
-0.00145492
2.61417e-08
0.00674235
-0.00147128
5.75678e-08
0.00695929
-0.00143799
7.91321e-08
0.00715543
-0.00136672
7.69069e-08
0.00732856
-0.00127261
5.29813e-08
0.00748042
-0.00116963
1.79027e-08
0.00761448
-0.00106669
-6.10837e-10
0.00773394
-0.000966922
-1.10786e-08
0.00784094
-0.000869976
-9.50764e-09
0.00793678
-0.000774577
-7.47856e-09
0.0080222
-0.000679279
-8.28056e-09
0.00809727
-0.000582334
-9.07336e-09
0.00816149
-0.000481905
-8.00325e-09
0.00821383
-0.000376251
-5.27829e-09
0.00825308
-0.000264449
-3.14603e-09
0.0082777
-0.000145592
-1.10563e-09
0.00828645
-1.96709e-05
5.99826e-10
0.00827756
0.000111403
1.65473e-09
0.00824988
0.000247981
3.13327e-09
0.00820263
0.000387208
3.88728e-09
0.00813545
0.000526549
4.78787e-09
0.00804845
0.000663246
5.79498e-09
0.00794231
0.00079417
6.46536e-09
0.00781836
0.000916169
6.09889e-09
0.00767849
0.00102619
5.43563e-09
0.00752512
0.00112164
3.78496e-09
0.00736106
0.0012004
2.22068e-09
0.00718939
0.0012612
2.64712e-10
0.00701326
0.00130338
-7.5589e-10
0.00683572
0.00132735
-3.92948e-09
0.00665963
0.00133392
-3.31255e-09
0.00648741
0.00132506
-6.9915e-09
0.00632112
0.00130239
-3.17036e-09
0.0061622
0.00126917
-9.46601e-09
0.00601181
0.00122666
3.76756e-10
0.00587033
0.00117952
-1.34675e-08
0.00573816
0.00112682
9.03343e-09
0.00561467
0.00107607
-2.34683e-08
0.00549996
0.00102075
2.76773e-08
0.00539231
0.000975713
-4.72813e-08
0.00529227
0.000921096
6.52448e-08
0.0051965
0.000891248
-8.79648e-08
0.000832619
9.21327e-08
0.00535842
-0.000158568
1.1436e-08
0.00543206
-0.000470886
-1.66274e-08
0.00555534
-0.000775907
-4.42607e-08
0.00572356
-0.00105527
-2.44948e-08
0.00593417
-0.00130419
-3.26418e-08
0.00617897
-0.00150702
-2.09642e-08
0.00644736
-0.00165282
-1.71212e-09
0.00672597
-0.00173356
3.54403e-08
0.00699834
-0.00174375
8.96982e-08
0.00724997
-0.00168973
1.25917e-07
0.00747207
-0.00158893
1.17367e-07
0.00766309
-0.00146369
6.16645e-08
0.00782715
-0.00133371
1.30841e-08
0.00797016
-0.00120967
-2.63024e-08
0.00809665
-0.00109338
-3.40662e-08
0.00820938
-0.000982679
-2.50889e-08
0.00831009
-0.000875268
-2.07556e-08
0.00839979
-0.000768963
-2.26248e-08
0.00847869
-0.000661204
-2.43902e-08
0.00854616
-0.00054935
-2.32419e-08
0.0086011
-0.000431177
-2.07124e-08
0.00864213
-0.000305458
-1.76626e-08
0.00866766
-0.000171101
-1.36776e-08
0.00867639
-2.8399e-05
-9.76892e-09
0.00866586
0.000121942
-9.91103e-09
0.00863498
0.000278877
-1.45451e-08
0.00858283
0.000439382
-1.58325e-08
0.0085088
0.000600588
-1.32419e-08
0.00841286
0.0007592
-1.01169e-08
0.00829563
0.000911408
-7.56751e-09
0.00815845
0.00105335
-6.02986e-09
0.0080034
0.00118124
-4.68999e-09
0.00783317
0.00129188
-4.49015e-09
0.00765099
0.00138258
-4.16208e-09
0.00746045
0.00145175
-5.48167e-09
0.00726525
0.00149858
-5.43194e-09
0.007069
0.00152361
-7.61388e-09
0.00687506
0.00152787
-6.21485e-09
0.00668625
0.00151387
-9.39777e-09
0.00650497
0.00148368
-4.93542e-09
0.00633281
0.00144133
-1.10374e-08
0.00617105
0.00138842
-5.23591e-10
0.00601999
0.0013306
-1.45766e-08
0.00588001
0.00126679
8.7378e-09
0.00575022
0.00120589
-2.44667e-08
0.00563063
0.00114032
2.7898e-08
0.00551913
0.00108726
-4.83116e-08
0.00541622
0.00102394
6.60324e-08
0.00531803
0.000989519
-8.80565e-08
0.000923529
9.29559e-08
0.00536261
-0.000187857
1.43838e-08
0.00544795
-0.000556213
-1.12788e-08
0.00559279
-0.000920695
-5.47767e-08
0.00579051
-0.00125296
-2.50431e-08
0.00604188
-0.00155551
-5.20343e-08
0.00633578
-0.00180089
-2.83617e-08
0.00666041
-0.00197743
-7.44106e-09
0.00699747
-0.00207067
4.66287e-08
0.00732352
-0.00206993
1.30143e-07
0.00761862
-0.00198502
1.82869e-07
0.007871
-0.00184148
1.68469e-07
0.0080802
-0.00167297
7.43234e-08
0.00825428
-0.00150778
-3.57519e-09
0.00840257
-0.00135788
-6.98763e-08
0.00853119
-0.00122192
-7.37087e-08
0.00864368
-0.00109512
-5.55315e-08
0.00874259
-0.000974129
-4.81304e-08
0.00882954
-0.000855859
-5.00598e-08
0.00890503
-0.000736649
-5.09015e-08
0.00896858
-0.000612854
-4.77159e-08
0.00901935
-0.000481895
-4.41364e-08
0.00905599
-0.000342063
-3.86344e-08
0.00907731
-0.000192392
-3.32888e-08
0.00908218
-3.32431e-05
-2.54815e-08
0.00906716
0.000136994
-2.78796e-08
0.00903158
0.000314496
-4.4413e-08
0.00897429
0.000496733
-5.21272e-08
0.00889424
0.000680684
-4.94179e-08
0.00879101
0.000862477
-4.41553e-08
0.00866486
0.00103759
-3.87791e-08
0.00851685
0.00120139
-3.36175e-08
0.0083489
0.00134923
-2.80757e-08
0.00816375
0.00147705
-2.36404e-08
0.0079649
0.00158145
-1.93713e-08
0.00775636
0.00166031
-1.72889e-08
0.00754242
0.00171254
-1.44138e-08
0.00732731
0.00173873
-1.44451e-08
0.00711503
0.00174017
-1.12238e-08
0.00690893
0.00171998
-1.31202e-08
0.00671186
0.00168076
-7.40708e-09
0.00652568
0.00162753
-1.28928e-08
0.00635184
0.00156227
-1.45183e-09
0.00619062
0.00149183
-1.5501e-08
0.00604238
0.00141502
8.68211e-09
0.00590599
0.0013423
-2.51772e-08
0.00578137
0.00126491
2.82733e-08
0.00566596
0.00120271
-4.90607e-08
0.00556021
0.00112963
6.67297e-08
0.00545968
0.00109013
-8.76351e-08
0.00101638
9.34852e-08
0.00536729
-0.000221828
1.97932e-08
0.00546613
-0.000655057
-2.23012e-09
0.00563642
-0.00109092
-6.60309e-08
0.0058691
-0.00148561
-2.35345e-08
0.00617205
-0.00185838
-8.36823e-08
0.00652829
-0.00215711
-2.74959e-08
0.00692726
-0.00237638
-1.30016e-08
0.0073422
-0.00248569
7.95968e-08
0.00773782
-0.00246574
1.91877e-07
0.00808552
-0.00233294
2.28432e-07
0.00836827
-0.00212441
1.773e-07
0.00858822
-0.00189297
4.88095e-08
0.00876059
-0.00168009
-6.51087e-08
0.00889957
-0.00149673
-1.34412e-07
0.00901352
-0.00133575
-1.20256e-07
0.00910753
-0.00118904
-8.96728e-08
0.00918606
-0.00105257
-8.10178e-08
0.00925194
-0.000921659
-8.21603e-08
0.00930649
-0.000791127
-7.76396e-08
0.00934993
-0.00065622
-6.80301e-08
0.00938219
-0.000514096
-5.97987e-08
0.00940247
-0.000362298
-4.88864e-08
0.00941054
-0.000200416
-3.65732e-08
0.00940593
-2.86078e-05
-2.45438e-08
0.00938367
0.00015928
-2.59011e-08
0.00934403
0.000354181
-5.43919e-08
0.00928517
0.000555674
-7.2597e-08
0.00920522
0.000760705
-7.68246e-08
0.00910289
0.000964888
-7.63422e-08
0.00897745
0.0011631
-7.36874e-08
0.00882902
0.00134989
-6.8895e-08
0.00865869
0.00151961
-6.14079e-08
0.0084687
0.0016671
-5.32561e-08
0.00826232
0.00178787
-4.41357e-08
0.00804369
0.00187897
-3.69531e-08
0.00781757
0.00193869
-2.91917e-08
0.00758883
0.00196749
-2.50907e-08
0.00736222
0.00196679
-1.84272e-08
0.00714185
0.00194037
-1.78854e-08
0.00693123
0.0018914
-1.01467e-08
0.00673267
0.0018261
-1.44928e-08
0.00654801
0.00174693
-1.60299e-09
0.00637762
0.00166224
-1.57226e-08
0.00622198
0.00157065
9.23755e-09
0.00607972
0.00148459
-2.50954e-08
0.00595078
0.00139382
2.89966e-08
0.00583211
0.00132143
-4.90222e-08
0.00572417
0.0012375
6.72043e-08
0.00562191
0.00119248
-8.61533e-08
0.00111066
9.33031e-08
0.00537208
-0.000260606
3.04618e-08
0.00548654
-0.000769521
7.4073e-09
0.00568533
-0.00128963
-7.22476e-08
0.00595929
-0.00175955
-2.76475e-08
0.00632685
-0.0022258
-1.38992e-07
0.00676083
-0.00259105
-3.61756e-08
0.00725825
-0.00287377
-3.23206e-08
0.00777927
-0.00300685
1.42891e-07
0.0082649
-0.00295169
3.14905e-07
0.00866716
-0.00273546
2.65503e-07
0.00896171
-0.00241904
7.6547e-08
0.00916171
-0.00209286
-1.12238e-07
0.00929595
-0.00181407
-2.60772e-07
0.00938638
-0.00158692
-2.43391e-07
0.00944486
-0.00139409
-1.41648e-07
0.00948035
-0.00122444
-8.06481e-08
0.00950043
-0.00107257
-8.21248e-08
0.00951039
-0.000931544
-8.26346e-08
0.00951292
-0.000793586
-7.00241e-08
0.00950983
-0.00065307
-5.3327e-08
0.00950237
-0.000506602
-4.14406e-08
0.00949089
-0.000350786
-3.03623e-08
0.00947541
-0.000184916
-1.5569e-08
0.00945741
-1.06083e-05
-7.86849e-09
0.00942985
0.000186854
-1.21063e-08
0.0093936
0.000390468
-3.61871e-08
0.00934534
0.00060399
-5.27942e-08
0.00928193
0.000824172
-6.18163e-08
0.00920035
0.00104654
-6.8429e-08
0.00909799
0.00126554
-7.32762e-08
0.008973
0.00147496
-7.59134e-08
0.00882469
0.00166799
-7.49099e-08
0.00865377
0.00183809
-7.13547e-08
0.00846245
0.00197926
-6.42416e-08
0.00825433
0.00208715
-5.65359e-08
0.00803413
0.00215893
-4.60936e-08
0.0078072
0.00219447
-3.8203e-08
0.0075791
0.00219492
-2.73333e-08
0.00735487
0.00216462
-2.31447e-08
0.00713903
0.00210726
-1.22564e-08
0.00693472
0.00203041
-1.46046e-08
0.00674453
0.00193712
-6.15395e-10
0.00656919
0.00183759
-1.37662e-08
0.00640961
0.00173022
1.14625e-08
0.00626431
0.00162991
-2.30588e-08
0.00613348
0.00152462
3.05662e-08
0.00601362
0.00144135
-4.72229e-08
0.00590532
0.00134572
6.72613e-08
0.00580294
0.00129494
-8.26704e-08
0.00120504
9.16986e-08
0.00537655
-0.000303872
5.12988e-08
0.00550864
-0.000901627
1.8602e-08
0.00573636
-0.0015173
-5.62043e-08
0.00606002
-0.00208314
-5.44159e-08
0.00650518
-0.00267074
-2.28845e-07
0.00703535
-0.0031211
-1.17072e-07
0.00766669
-0.003505
-1.13479e-07
0.00832826
-0.00366857
1.44563e-07
0.00892129
-0.00354519
4.66867e-07
0.00934612
-0.00316069
3.95242e-07
0.00957938
-0.00265234
4.48444e-08
0.0096745
-0.00218759
-3.93739e-07
0.00968661
-0.00182561
-5.66193e-07
0.00964638
-0.00154631
-3.76248e-07
0.00957335
-0.00132096
-1.01583e-07
0.00948357
-0.00113464
-9.96227e-09
0.00938915
-0.000978172
1.28578e-08
0.00929701
-0.000839419
1.34478e-08
0.00921174
-0.000708343
2.83916e-08
0.0091368
-0.000578171
3.88003e-08
0.00907442
-0.000444258
3.77014e-08
0.00902588
-0.000302273
3.08542e-08
0.00899059
-0.000149648
2.13765e-08
0.00896465
1.53124e-05
1.9659e-08
0.00894912
0.000202374
4.57348e-09
0.00893784
0.000401737
1.37722e-08
0.00892644
0.000615374
1.51083e-08
0.00890972
0.000840889
9.25709e-09
0.00888226
0.00107399
2.17572e-10
0.00883894
0.00130887
-1.05998e-08
0.00877533
0.0015386
-2.2391e-08
0.00868812
0.00175524
-3.3218e-08
0.00857555
0.0019507
-4.27189e-08
0.00843772
0.00211713
-4.80567e-08
0.00827663
0.0022483
-5.06708e-08
0.00809609
0.00233952
-4.71984e-08
0.00790118
0.00238942
-4.28608e-08
0.00769791
0.00239822
-3.2411e-08
0.00749219
0.00237037
-2.66719e-08
0.00728977
0.0023097
-1.30074e-08
0.00709497
0.00222523
-1.27664e-08
0.00691163
0.00212045
2.4608e-09
0.00674136
0.00200788
-8.66281e-09
0.00658597
0.00188559
1.60783e-08
0.00644427
0.00177162
-1.77143e-08
0.00631707
0.00165179
3.35299e-08
0.00620061
0.00155784
-4.21271e-08
0.00609586
0.00145041
6.65984e-08
0.00599679
0.00139409
-7.5631e-08
0.00129676
8.75751e-08
0.00538053
-0.000351151
8.88172e-08
0.00552967
-0.00105082
5.20495e-08
0.00578301
-0.00177065
1.08419e-08
0.00616662
-0.00246665
-1.0725e-07
0.00669426
-0.00319805
-3.19521e-07
0.00734748
-0.00377396
-3.55628e-07
0.00817816
-0.00433528
-4.08049e-07
0.00898872
-0.00447916
2.8084e-08
0.00964768
-0.00420452
3.72565e-07
0.00995815
-0.00347174
5.79631e-07
0.00995002
-0.00264449
2.86304e-07
0.00976806
-0.00200546
-1.58647e-07
0.00950909
-0.00156605
-5.9638e-07
0.00921256
-0.00124941
-3.69157e-07
0.00891308
-0.00102149
1.7465e-09
0.00863308
-0.000854811
1.73771e-07
0.00838537
-0.000730649
1.86647e-07
0.00817509
-0.000629318
1.80223e-07
0.00800485
-0.000538291
1.84744e-07
0.00787616
-0.00044965
1.71794e-07
0.00778814
-0.00035639
1.45563e-07
0.00773835
-0.000252598
1.15647e-07
0.00772176
-0.000133144
8.42967e-08
0.00773177
5.25823e-06
5.00024e-08
0.00776727
0.000166815
5.34969e-08
0.00781935
0.000349571
8.60739e-08
0.00788135
0.000553271
1.05439e-07
0.00794656
0.000775568
1.07309e-07
0.00800814
0.00101232
1.00005e-07
0.0080594
0.00125752
8.81257e-08
0.00809409
0.00150383
7.19916e-08
0.00810683
0.00174245
5.33533e-08
0.00809346
0.00196404
3.25901e-08
0.00805157
0.002159
1.35309e-08
0.00798073
0.00231914
-3.92377e-09
0.00788271
0.00243755
-1.46427e-08
0.00776112
0.00251103
-2.23199e-08
0.00762127
0.00253809
-2.04349e-08
0.00746902
0.00252264
-1.95981e-08
0.00731084
0.00246788
-7.11956e-09
0.00715209
0.00238399
-6.6988e-09
0.00699806
0.00227447
7.97858e-09
0.00685152
0.00215442
-1.56478e-09
0.0067158
0.00202129
2.23889e-08
0.00659041
0.00189702
-8.64115e-09
0.00647737
0.00176479
3.73097e-08
0.00637313
0.00166212
-3.23441e-08
0.00627929
0.00154418
6.41379e-08
0.00619
0.00148344
-6.30093e-08
0.00138058
7.91916e-08
0.00538364
-0.000401595
1.44668e-07
0.00554188
-0.0012092
1.26068e-07
0.00581542
-0.00204432
1.27074e-07
0.00625778
-0.00290888
-1.28256e-07
0.00686097
-0.00380097
-2.71237e-07
0.00768766
-0.00459994
-7.01556e-07
0.00880202
-0.00544889
-7.54463e-07
0.00967201
-0.00534906
-8.3345e-08
0.0101095
-0.00124736
-1.18452e-07
-0.00107371
-0.00124591
-0.00107491
0.0099572
-0.000911938
2.41615e-07
-0.000748108
-0.000911024
-0.000748631
0.00938407
-0.000566542
9.37606e-07
-0.000469753
-0.000566141
-0.000469861
0.00866534
-0.000332489
3.54467e-07
-0.000310832
-0.000332935
-0.000310832
0.00796247
-0.000863082
-9.54646e-08
0.00733639
-0.000623231
-9.5516e-08
0.00681933
-0.000504622
1.91667e-07
0.00641447
-0.000450121
1.73881e-07
0.00611613
-0.000432362
5.34128e-08
0.00591141
-0.000424648
4.93994e-08
0.00578726
-0.000414209
6.91044e-08
0.00573066
-0.000393121
7.11625e-08
0.0057292
-0.000355
6.47888e-08
0.00577187
-0.000295326
5.90113e-08
0.00584919
-0.000210511
5.10719e-08
0.00595284
-9.84388e-05
4.65399e-08
0.00607738
4.22181e-05
5.24637e-08
0.00621754
0.000209324
8.69267e-08
0.00636745
0.00040324
1.18265e-07
0.00652215
0.000620738
1.32901e-07
0.00667663
0.000857703
1.3552e-07
0.00682558
0.00110844
1.32233e-07
0.00696343
0.00136586