/*--------------------------------*- C++ -*----------------------------------*\
  =========                 |
  \\      /  F ield         | OpenFOAM: The Open Source CFD Toolbox
   \\    /   O peration     | Website:  https://openfoam.org
    \\  /    A nd           | Version:  8
     \\/     M anipulation  |
\*---------------------------------------------------------------------------*/
FoamFile
{
    version     2.0;
    format      ascii;
    class       volScalarField;
    location    "0.06";
    object      p;
}
// * * * * * * * * * * * * * * * * * * * * * * * * * * * * * * * * * * * * * //

dimensions      [0 2 -2 0 0 0 0];

internalField   nonuniform List<scalar> 
400
(
-6.23271e-08
-0.00521429
-0.011578
-0.0164216
-0.0181262
-0.015929
-0.00975459
-5.6852e-07
0.01261
0.0271231
0.0424344
0.0573481
0.0706422
0.0811698
0.0880057
0.0906262
0.0890902
0.0842101
0.0777311
0.0725373
0.00518706
-0.000334857
-0.00539641
-0.00873534
-0.00957142
-0.00737001
-0.00204318
0.00611337
0.0165469
0.0285189
0.041148
0.0534656
0.0644831
0.0732843
0.0791541
0.0817187
0.0810627
0.0777662
0.0727203
0.0673918
0.0118873
0.00413806
-0.00142908
-0.00453811
-0.00518526
-0.00308548
0.00176678
0.00909355
0.0184093
0.0290756
0.0403357
0.0513471
0.0612366
0.0691916
0.0745734
0.0770223
0.0765446
0.0734768
0.0679484
0.0604748
0.0176939
0.00698738
2.27343e-05
-0.00354178
-0.00435219
-0.00233013
0.00241125
0.00953506
0.0185588
0.0288804
0.0397915
0.050497
0.0601628
0.0679956
0.0733358
0.0757405
0.0750789
0.0714738
0.0644611
0.0539848
0.0211335
0.00735266
-0.00125679
-0.00546073
-0.00645008
-0.00435333
0.000599352
0.0079954
0.0173187
0.027964
0.0392347
0.0503491
0.0604701
0.0687683
0.0744995
0.0770818
0.0762223
0.0718553
0.0630147
0.0492601
0.0211668
0.00425218
-0.00605835
-0.010886
-0.0119264
-0.00948795
-0.00392511
0.00425167
0.0144723
0.0261099
0.0384585
0.0507215
0.062022
0.0714491
0.0781218
0.0812725
0.0804196
0.0753064
0.0644839
0.0472235
0.0168719
-0.00330386
-0.0153043
-0.0206064
-0.0214341
-0.0182769
-0.0116273
-0.00210647
0.00965413
0.0229964
0.0371898
0.0514034
0.0646982
0.0760489
0.0843916
0.0887193
0.0883133
0.0826779
0.0698204
0.0487392
0.00722768
-0.0164153
-0.0300312
-0.0355237
-0.0357268
-0.0313514
-0.0230455
-0.0115472
0.00244676
0.0182457
0.0350963
0.0521348
0.0683531
0.0825892
0.0935545
0.0999402
0.100707
0.0950145
0.0801769
0.054841
-0.00904315
-0.0364294
-0.0514989
-0.0567194
-0.0556969
-0.0494376
-0.0387739
-0.0245728
-0.00759414
0.0114552
0.0318257
0.0526441
0.0728438
0.0911197
0.105926
0.115578
0.118594
0.113623
0.0970181
0.0668938
-0.0336323
-0.065078
-0.0812691
-0.085473
-0.0823403
-0.0732917
-0.0593936
-0.0416535
-0.0208771
0.00225153
0.0270373
0.0526484
0.0780011
0.10167
0.121841
0.136377
0.143197
0.14019
0.12232
0.0868477
-0.0688444
-0.104651
-0.121289
-0.123261
-0.116695
-0.103604
-0.0853593
-0.0631092
-0.0376633
-0.00961577
0.0204717
0.051895
0.0836419
0.114243
0.141645
0.163199
0.176047
0.176984
0.158901
0.117612
-0.117931
-0.158257
-0.174
-0.171722
-0.159712
-0.140824
-0.116798
-0.0889008
-0.0578673
-0.0240976
0.0120964
0.0502716
0.0896375
0.128832
0.165669
0.196994
0.219021
0.227017
0.210778
0.163539
-0.185768
-0.230247
-0.242437
-0.232516
-0.21199
-0.184835
-0.153178
-0.11832
-0.0807784
-0.0406072
0.00229842
0.0479459
0.0959896
0.145422
0.194165
0.238712
0.274306
0.294204
0.283668
0.231325
-0.2803
-0.326912
-0.330232
-0.306967
-0.273277
-0.234455
-0.19287
-0.149624
-0.104775
-0.0577967
-0.00794408
0.0454869
0.102889
0.163973
0.227194
0.289123
0.344268
0.383538
0.385899
0.33188
-0.415643
-0.457553
-0.441283
-0.395232
-0.341606
-0.286711
-0.232615
-0.179694
-0.127119
-0.0734505
-0.0170223
0.0438466
0.110623
0.184201
0.264242
0.34825
0.430831
0.500901
0.529647
0.483919
-0.617734
-0.635593
-0.57876
-0.494984
-0.412194
-0.336116
-0.267169
-0.203964
-0.144079
-0.0847101
-0.0229765
0.0440494
0.119217
0.205129
0.303564
0.414424
0.534305
0.652036
0.731732
0.719572
-0.934695
-0.878838
-0.743354
-0.600422
-0.477107
-0.37484
-0.289865
-0.2172
-0.151782
-0.0889223
-0.0242586
0.0465039
0.127833
0.224528
0.341612
0.483566
0.652196
0.840529
1.01328
1.09369
-1.47661
-1.20898
-0.923665
-0.695398
-0.521617
-0.39129
-0.292543
-0.214162
-0.147223
-0.0848083
-0.0210996
0.0494397
0.132813
0.236272
0.369195
0.543418
0.770654
1.05768
1.4011
1.72537
-2.53825
-1.63667
-1.0491
-0.716084
-0.501347
-0.357221
-0.258412
-0.185753
-0.126478
-0.0721803
-0.0165066
0.0463602
0.122971
0.22211
0.357186
0.549013
0.825888
1.23539
1.91223
2.91627
-4.36305
-2.05099
-0.979269
-0.569757
-0.36523
-0.247245
-0.175966
-0.127728
-0.0892095
-0.0530333
-0.0142662
0.0314405
0.0891284
0.166302
0.276402
0.444967
0.719567
1.22607
2.41198
4.83886
)
;

boundaryField
{
    movingWall
    {
        type            zeroGradient;
    }
    fixedWalls
    {
        type            zeroGradient;
    }
    frontAndBack
    {
        type            empty;
    }
}


// ************************************************************************* //
