/*--------------------------------*- C++ -*----------------------------------*\
  =========                 |
  \\      /  F ield         | OpenFOAM: The Open Source CFD Toolbox
   \\    /   O peration     | Website:  https://openfoam.org
    \\  /    A nd           | Version:  8
     \\/     M anipulation  |
\*---------------------------------------------------------------------------*/
FoamFile
{
    version     2.0;
    format      ascii;
    class       surfaceScalarField;
    location    "0.06";
    object      phi;
}
// * * * * * * * * * * * * * * * * * * * * * * * * * * * * * * * * * * * * * //

dimensions      [0 3 -1 0 0 0 0];

internalField   nonuniform List<scalar> 
760
(
1.29926e-08
-1.29926e-08
-1.95737e-08
3.25666e-08
-1.02145e-07
8.25708e-08
-2.20117e-07
1.17971e-07
-3.55724e-07
1.35607e-07
-4.92033e-07
1.36309e-07
-6.14531e-07
1.22498e-07
-7.11625e-07
9.70936e-08
-7.74764e-07
6.314e-08
-7.98426e-07
2.36615e-08
-7.80213e-07
-1.82126e-08
-7.21061e-07
-5.91522e-08
-6.25462e-07
-9.55988e-08
-5.01731e-07
-1.23731e-07
-3.62109e-07
-1.39621e-07
-2.22438e-07
-1.39671e-07
-1.01135e-07
-1.21303e-07
-1.72207e-08
-8.39145e-08
1.43254e-08
-3.15465e-08
1.43247e-08
-3.19829e-08
1.89903e-08
-1.64994e-07
1.65578e-07
-3.94226e-07
3.11804e-07
-6.92057e-07
4.15803e-07
-1.02277e-06
4.66322e-07
-1.35031e-06
4.63844e-07
-1.64233e-06
4.14525e-07
-1.87234e-06
3.27101e-07
-2.02054e-06
2.11345e-07
-2.07437e-06
7.74864e-08
-2.02869e-06
-6.38883e-08
-1.8862e-06
-2.01641e-07
-1.65784e-06
-3.23958e-07
-1.36306e-06
-4.18518e-07
-1.02951e-06
-4.73169e-07
-6.91845e-07
-4.77335e-07
-3.88838e-07
-4.24311e-07
-1.58272e-07
-3.14481e-07
-2.83031e-08
-1.61517e-07
-1.3978e-08
-8.55533e-08
1.04543e-07
-3.27152e-07
4.07177e-07
-6.96416e-07
6.81069e-07
-1.15109e-06
8.70479e-07
-1.64219e-06
9.57419e-07
-2.121e-06
9.42659e-07
-2.54383e-06
8.37347e-07
-2.87476e-06
6.58033e-07
-3.08699e-06
4.23581e-07
-3.16343e-06
1.53927e-07
-3.0972e-06
-1.30123e-07
-2.89212e-06
-4.06722e-07
-2.56317e-06
-6.52905e-07
-2.13673e-06
-8.44963e-07
-1.65012e-06
-9.5978e-07
-1.14994e-06
-9.77515e-07
-6.88438e-07
-8.85811e-07
-3.17518e-07
-6.854e-07
-8.01939e-08
-3.98842e-07
-9.41714e-08
-1.33413e-07
2.37957e-07
-4.79909e-07
7.53672e-07
-9.84215e-07
1.18537e-06
-1.58578e-06
1.47204e-06
-2.2221e-06
1.59374e-06
-2.83401e-06
1.55456e-06
-3.36965e-06
1.37298e-06
-3.78672e-06
1.07511e-06
-4.05381e-06
6.90668e-07
-4.1509e-06
2.51018e-07
-4.06979e-06
-2.11237e-07
-3.81456e-06
-6.61951e-07
-3.40225e-06
-1.06522e-06
-2.86332e-06
-1.38389e-06
-2.24152e-06
-1.58158e-06
-1.59241e-06
-1.62662e-06
-9.79977e-07
-1.49825e-06
-4.71008e-07
-1.19437e-06
-1.27626e-07
-7.42223e-07
-2.21798e-07
-1.77183e-07
4.15139e-07
-6.25661e-07
1.20215e-06
-1.26316e-06
1.82287e-06
-2.00844e-06
2.21732e-06
-2.78438e-06
2.36968e-06
-3.52175e-06
2.29194e-06
-4.16192e-06
2.01315e-06
-4.65825e-06
1.57144e-06
-4.97646e-06
1.00887e-06
-5.09463e-06
3.69194e-07
-5.00335e-06
-3.02522e-07
-4.70615e-06
-9.59149e-07
-4.22047e-06
-1.55089e-06
-3.57871e-06
-2.02565e-06
-2.82889e-06
-2.3314e-06
-2.03419e-06
-2.42132e-06
-1.27052e-06
-2.26192e-06
-6.21674e-07
-1.84322e-06
-1.72246e-07
-1.19165e-06
-3.94044e-07
-2.20307e-07
6.35447e-07
-7.71754e-07
1.7536e-06
-1.54457e-06
2.59569e-06
-2.4348e-06
3.10756e-06
-3.34937e-06
3.28425e-06
-4.20907e-06
3.15164e-06
-4.94969e-06
2.75377e-06
-5.52176e-06
2.14351e-06
-5.88965e-06
1.37676e-06
-6.03049e-06
5.10036e-07
-5.93376e-06
-3.99247e-07
-5.60162e-06
-1.29129e-06
-5.05024e-06
-2.10227e-06
-4.31181e-06
-2.76408e-06
-3.4367e-06
-3.20652e-06
-2.49468e-06
-3.36334e-06
-1.57419e-06
-3.18241e-06
-7.78409e-07
-2.639e-06
-2.17905e-07
-1.75216e-06
-6.11948e-07
-2.65858e-07
9.01305e-07
-9.25579e-07
2.41332e-06
-1.83912e-06
3.50923e-06
-2.87748e-06
4.14592e-06
-3.93057e-06
4.33734e-06
-4.90954e-06
4.13061e-06
-5.74604e-06
3.59027e-06
-6.38979e-06
2.78727e-06
-6.80563e-06
1.79259e-06
-6.97095e-06
6.75361e-07
-6.87434e-06
-4.95858e-07
-6.51566e-06
-1.64997e-06
-5.90789e-06
-2.71004e-06
-5.08047e-06
-3.5915e-06
-4.08348e-06
-4.2035e-06
-2.99158e-06
-4.45524e-06
-1.90575e-06
-4.26823e-06
-9.51012e-07
-3.59374e-06
-2.68493e-07
-2.43468e-06
-8.8044e-07
-3.16492e-07
1.2178e-06
-1.09339e-06
3.19022e-06
-2.15495e-06
4.57078e-06
-3.34379e-06
5.33476e-06
-4.532e-06
5.52554e-06
-5.62239e-06
5.221e-06
-6.54508e-06
4.51297e-06
-7.25197e-06
3.49415e-06
-7.71099e-06
2.25161e-06
-7.90156e-06
8.65937e-07
-7.81189e-06
-5.85527e-07
-7.43865e-06
-2.02321e-06
-6.7893e-06
-3.35939e-06
-5.887e-06
-4.49379e-06
-4.77759e-06
-5.31292e-06
-3.53716e-06
-5.69568e-06
-2.27789e-06
-5.52749e-06
-1.1488e-06
-4.72284e-06
-3.27687e-07
-3.25578e-06
-1.20813e-06
-3.74665e-07
1.59246e-06
-1.28038e-06
4.09593e-06
-2.49684e-06
5.78724e-06
-3.83382e-06
6.67174e-06
-5.14547e-06
6.83719e-06
-6.32923e-06
6.40477e-06
-7.3181e-06
5.50183e-06
-8.07066e-06
4.24671e-06
-8.56185e-06
2.74281e-06
-8.77574e-06
1.07982e-06
-8.70118e-06
-6.60088e-07
-8.33085e-06
-2.39354e-06
-7.66391e-06
-4.02632e-06
-6.7126e-06
-5.4451e-06
-5.51245e-06
-6.51307e-06
-4.13494e-06
-7.07319e-06
-2.69955e-06
-6.96289e-06
-1.38024e-06
-6.04215e-06
-3.99285e-07
-4.23673e-06
-1.60741e-06
-4.43095e-07
2.03556e-06
-1.49122e-06
5.14406e-06
-2.86602e-06
7.16204e-06
-4.33886e-06
8.14458e-06
-5.74752e-06
8.24584e-06
-6.9897e-06
7.64695e-06
-8.00824e-06
6.52037e-06
-8.77511e-06
5.01358e-06
-9.27756e-06
3.24526e-06
-9.50794e-06
1.3102e-06
-9.4575e-06
-7.10527e-07
-9.11446e-06
-2.73658e-06
-8.46671e-06
-4.67408e-06
-7.50972e-06
-6.40209e-06
-6.26031e-06
-7.76248e-06
-4.7756e-06
-8.55791e-06
-3.17416e-06
-8.56432e-06
-1.65297e-06
-7.56334e-06
-4.8768e-07
-5.40203e-06
-2.09509e-06
-5.25875e-07
2.56143e-06
-1.73143e-06
6.34962e-06
-3.26006e-06
8.69067e-06
-4.83905e-06
9.72356e-06
-6.29485e-06
9.70164e-06
-7.53533e-06
8.88744e-06
-8.5237e-06
7.50873e-06
-9.2542e-06
5.74408e-06
-9.73316e-06
3.72422e-06
-9.96576e-06
1.5428e-06
-9.94809e-06
-7.28191e-07
-9.66416e-06
-3.02051e-06
-9.08795e-06
-5.25029e-06
-8.19187e-06
-7.29817e-06
-6.96332e-06
-8.99102e-06
-5.43066e-06
-1.00906e-05
-3.6969e-06
-1.02981e-05
-1.9738e-06
-9.28644e-06
-5.98413e-07
-6.77741e-06
-2.69351e-06
-6.3027e-07
3.1917e-06
-2.00896e-06
7.72831e-06
-3.6717e-06
1.03534e-05
-5.29849e-06
1.13504e-05
-6.71664e-06
1.11198e-05
-7.86059e-06
1.00314e-05
-8.72855e-06
8.3767e-06
-9.34799e-06
6.36352e-06
-9.75162e-06
4.12785e-06
-9.96219e-06
1.75337e-06
-9.98364e-06
-7.06742e-07
-9.79706e-06
-3.20708e-06
-9.36137e-06
-5.68598e-06
-8.62052e-06
-8.03903e-06
-7.52078e-06
-1.00908e-05
-6.04262e-06
-1.15687e-05
-4.24953e-06
-1.20912e-05
-2.34844e-06
-1.11875e-05
-7.39665e-07
-8.38618e-06
-3.43317e-06
-7.6968e-07
3.96138e-06
-2.33543e-06
9.29405e-06
-4.08402e-06
1.2102e-05
-5.65457e-06
1.29209e-05
-6.90063e-06
1.23659e-05
-7.80878e-06
1.09395e-05
-8.43083e-06
8.99874e-06
-8.83858e-06
6.77128e-06
-9.09713e-06
4.3864e-06
-9.25021e-06
1.90644e-06
-9.31232e-06
-6.44626e-07
-9.26438e-06
-3.25503e-06
-9.05203e-06
-5.89833e-06
-8.58899e-06
-8.50207e-06
-7.77081e-06
-1.09089e-05
-6.5082e-06
-1.28313e-05
-4.79002e-06
-1.38093e-05
-2.77957e-06
-1.3198e-05
-9.24874e-07
-1.02409e-05
-4.35804e-06
-9.68101e-07
4.92948e-06
-2.72382e-06
1.10498e-05
-4.45576e-06
1.38339e-05
-5.79432e-06
1.42595e-05
-6.66746e-06
1.3239e-05
-7.1499e-06
1.1422e-05
-7.36664e-06
9.21549e-06
-7.44117e-06
6.84581e-06
-7.47181e-06
4.41703e-06
-7.52264e-06
1.95728e-06
-7.61983e-06
-5.47445e-07
-7.74812e-06
-3.12673e-06
-7.84642e-06
-5.80003e-06
-7.804e-06
-8.5445e-06
-7.4642e-06
-1.12487e-05
-6.64967e-06
-1.36459e-05
-5.23042e-06
-1.52286e-05
-3.25867e-06
-1.51697e-05
-1.17531e-06
-1.23242e-05
-5.53335e-06
-1.26391e-06
6.19339e-06
-3.1724e-06
1.29583e-05
-4.6815e-06
1.5343e-05
-5.50431e-06
1.50823e-05
-5.72424e-06
1.34589e-05
-5.54626e-06
1.1244e-05
-5.18044e-06
8.84967e-06
-4.79747e-06
6.46284e-06
-4.51916e-06
4.13872e-06
-4.42181e-06
1.85992e-06
-4.54047e-06
-4.28784e-07
-4.86843e-06
-2.79878e-06
-5.35018e-06
-5.31827e-06
-5.86825e-06
-8.02643e-06
-6.22947e-06
-1.08875e-05
-6.1668e-06
-1.37085e-05
-5.39002e-06
-1.60054e-05
-3.74006e-06
-1.68197e-05
-1.51931e-06
-1.4545e-05
-7.05266e-06
-1.69876e-06
7.89215e-06
-3.60155e-06
1.48611e-05
-4.49226e-06
1.62338e-05
-4.37046e-06
1.49605e-05
-3.58718e-06
1.26756e-05
-2.50518e-06
1.0162e-05
-1.40522e-06
7.74971e-06
-4.77369e-07
5.53499e-06
1.59374e-07
3.50198e-06
4.34998e-07
1.5843e-06
3.13943e-07
-3.07729e-07
-2.09321e-07
-2.27552e-06
-1.10209e-06
-4.42551e-06
-2.27183e-06
-6.85668e-06
-3.53114e-06
-9.6282e-06
-4.55963e-06
-1.26801e-05
-4.89911e-06
-1.56659e-05
-4.06485e-06
-1.7654e-05
-1.9706e-06
-1.66392e-05
-9.02326e-06
-2.24698e-06
1.01391e-05
-3.66149e-06
1.62756e-05
-3.2302e-06
1.58025e-05
-1.59687e-06
1.33271e-05
5.30671e-07
1.05481e-05
2.6714e-06
8.02127e-06
4.54355e-06
5.87756e-06
5.99925e-06
4.07929e-06
6.96631e-06
2.53492e-06
7.40832e-06
1.14229e-06
7.30219e-06
-2.01603e-07
6.63019e-06
-1.60351e-06
5.38533e-06
-3.18065e-06
3.59479e-06
-5.06615e-06
1.36929e-06
-7.4027e-06
-1.01489e-06
-1.02959e-05
-3.01477e-06
-1.3666e-05
-3.77008e-06
-1.68986e-05
-2.43829e-06
-1.7971e-05
-1.14616e-05
-2.57046e-06
1.27096e-05
-2.22667e-06
1.59318e-05
6.11593e-07
1.29642e-05
4.27945e-06
9.65928e-06
7.84333e-06
6.98422e-06
1.09049e-05
4.95973e-06
1.33294e-05
3.45301e-06
1.50994e-05
2.30927e-06
1.62366e-05
1.39777e-06
1.6762e-05
6.16855e-07
1.66777e-05
-1.17249e-07
1.59583e-05
-8.84198e-07
1.45518e-05
-1.77412e-06
1.23908e-05
-2.9051e-06
9.43111e-06
-4.44305e-06
5.7447e-06
-6.60946e-06
1.7093e-06
-9.63062e-06
-1.65878e-06
-1.35306e-05
-2.47303e-06
-1.71568e-05
-1.39346e-05
-8.10527e-07
1.35201e-05
4.05979e-06
1.10615e-05
1.02454e-05
6.77859e-06
1.56862e-05
4.21849e-06
1.99796e-05
2.69077e-06
2.32016e-05
1.73777e-06
2.55283e-05
1.12634e-06
2.71233e-05
7.14224e-07
2.81071e-05
4.13975e-07
2.85521e-05
1.71882e-07
2.84837e-05
-4.88552e-08
2.78792e-05
-2.79684e-07
2.66621e-05
-5.57076e-07
2.46925e-05
-9.3542e-07
2.17586e-05
-1.50919e-06
1.75987e-05
-2.44954e-06
1.2032e-05
-4.06391e-06
5.4016e-06
-6.90021e-06
-1.76663e-07
-1.15785e-05
-1.41112e-05
1.35201e-05
2.45816e-05
3.13602e-05
3.55787e-05
3.82694e-05
4.00072e-05
4.11336e-05
4.18478e-05
4.22617e-05
4.24336e-05
4.23848e-05
4.21051e-05
4.1548e-05
4.06126e-05
3.91034e-05
3.66539e-05
3.259e-05
2.56898e-05
1.41112e-05
)
;

boundaryField
{
    movingWall
    {
        type            calculated;
        value           uniform 0;
    }
    fixedWalls
    {
        type            calculated;
        value           uniform 0;
    }
    frontAndBack
    {
        type            empty;
        value           nonuniform List<scalar> 0();
    }
}


// ************************************************************************* //
