/*--------------------------------*- C++ -*----------------------------------*\
  =========                 |
  \\      /  F ield         | OpenFOAM: The Open Source CFD Toolbox
   \\    /   O peration     | Website:  https://openfoam.org
    \\  /    A nd           | Version:  8
     \\/     M anipulation  |
\*---------------------------------------------------------------------------*/
FoamFile
{
    version     2.0;
    format      ascii;
    class       volVectorField;
    location    "0.06";
    object      U;
}
// * * * * * * * * * * * * * * * * * * * * * * * * * * * * * * * * * * * * * //

dimensions      [0 1 -1 0 0 0 0];

internalField   nonuniform List<vector> 
400
(
(0.000229009 -0.000232435 0)
(0.000131831 8.77468e-05 0)
(-0.00104793 0.000495336 0)
(-0.0031182 0.000788189 0)
(-0.00572379 0.000938128 0)
(-0.00850827 0.000957447 0)
(-0.0111528 0.000868754 0)
(-0.0133922 0.000693816 0)
(-0.0150251 0.000455747 0)
(-0.0159104 0.000176545 0)
(-0.0159671 -0.000121434 0)
(-0.0151806 -0.000414276 0)
(-0.0136048 -0.000676311 0)
(-0.0113677 -0.000878908 0)
(-0.00867538 -0.000990851 0)
(-0.00581164 -0.000981614 0)
(-0.0031262 -0.000827064 0)
(-0.00100627 -0.000517658 0)
(0.00017471 -8.74387e-05 0)
(0.000246755 0.000241308 0)
(-8.94665e-05 -0.000147545 0)
(-0.00149093 0.00148353 0)
(-0.00518876 0.00325463 0)
(-0.0106286 0.00453182 0)
(-0.0170863 0.0051721 0)
(-0.0238294 0.00518672 0)
(-0.030164 0.00465684 0)
(-0.0354946 0.00368801 0)
(-0.0393528 0.00239374 0)
(-0.0414141 0.000890792 0)
(-0.0415005 -0.000700881 0)
(-0.0395859 -0.00225451 0)
(-0.0358055 -0.00363458 0)
(-0.0304639 -0.00469755 0)
(-0.0240349 -0.00529887 0)
(-0.0171503 -0.0053092 0)
(-0.0105594 -0.00464198 0)
(-0.00504982 -0.00329327 0)
(-0.00137288 -0.00143819 0)
(-4.10171e-05 0.000205746 0)
(-0.000513525 0.00102585 0)
(-0.00342686 0.00521478 0)
(-0.00967723 0.00923586 0)
(-0.0181795 0.0120821 0)
(-0.0278814 0.0134426 0)
(-0.0378061 0.0133211 0)
(-0.0470165 0.0118791 0)
(-0.0547062 0.0093598 0)
(-0.0602442 0.00603824 0)
(-0.0631884 0.00220377 0)
(-0.0632967 -0.00184153 0)
(-0.0605372 -0.00578024 0)
(-0.0550971 -0.00927785 0)
(-0.04739 -0.0119876 0)
(-0.0380564 -0.0135703 0)
(-0.0279482 -0.0137348 0)
(-0.01807 -0.0123023 0)
(-0.0094757 -0.00929453 0)
(-0.00325736 -0.00508811 0)
(-0.000443007 -0.000873841 0)
(-0.000876023 0.00322973 0)
(-0.00522183 0.0111266 0)
(-0.0139537 0.0180209 0)
(-0.0253744 0.0227198 0)
(-0.0380612 0.024816 0)
(-0.0508156 0.0243389 0)
(-0.0625236 0.021571 0)
(-0.0722321 0.0169271 0)
(-0.0791992 0.0108851 0)
(-0.082909 0.00395147 0)
(-0.0830777 -0.00334594 0)
(-0.0796621 -0.0104535 0)
(-0.072871 -0.0167891 0)
(-0.0631777 -0.0217532 0)
(-0.0513272 -0.0247623 0)
(-0.0383251 -0.0253166 0)
(-0.0253789 -0.0231027 0)
(-0.0137914 -0.0181277 0)
(-0.00504553 -0.0109128 0)
(-0.000795427 -0.00295976 0)
(-0.00119035 0.00634096 0)
(-0.00689961 0.0190822 0)
(-0.0180792 0.0294439 0)
(-0.0323728 0.0361993 0)
(-0.0479565 0.0389618 0)
(-0.0634043 0.0378645 0)
(-0.0774401 0.0333645 0)
(-0.0890047 0.0260913 0)
(-0.0972875 0.0167551 0)
(-0.101727 0.00610258 0)
(-0.102009 -0.00509079 0)
(-0.0980724 -0.0160133 0)
(-0.0901219 -0.0258111 0)
(-0.0786506 -0.0335986 0)
(-0.0644614 -0.0385044 0)
(-0.0486756 -0.0397625 0)
(-0.0326877 -0.036855 0)
(-0.0180729 -0.0296898 0)
(-0.0067667 -0.0188306 0)
(-0.00111158 -0.0059581 0)
(-0.00149308 0.010311 0)
(-0.00856674 0.0290658 0)
(-0.0222333 0.0435287 0)
(-0.0394436 0.0525427 0)
(-0.0579291 0.055866 0)
(-0.0760235 0.0538465 0)
(-0.0923077 0.0471903 0)
(-0.105644 0.0367914 0)
(-0.115187 0.0236223 0)
(-0.120355 0.00868491 0)
(-0.120815 -0.00699327 0)
(-0.116481 -0.0223396 0)
(-0.107527 -0.0362171 0)
(-0.0944273 -0.0474281 0)
(-0.0779971 -0.0547635 0)
(-0.0594403 -0.0571159 0)
(-0.0403306 -0.0536618 0)
(-0.0225467 -0.0440918 0)
(-0.00854432 -0.0288946 0)
(-0.00142866 -0.00984664 0)
(-0.00181283 0.0151581 0)
(-0.010329 0.0411468 0)
(-0.0266017 0.0603635 0)
(-0.0468243 0.0718157 0)
(-0.0682441 0.0755507 0)
(-0.088948 0.0722582 0)
(-0.107395 0.0629938 0)
(-0.122407 0.048978 0)
(-0.133143 0.0314737 0)
(-0.139036 0.0117399 0)
(-0.13975 -0.008956 0)
(-0.135165 -0.0292956 0)
(-0.125397 -0.0478647 0)
(-0.110852 -0.0631364 0)
(-0.0923038 -0.0735127 0)
(-0.0709902 -0.0774501 0)
(-0.0486417 -0.0736846 0)
(-0.0274641 -0.0615332 0)
(-0.0105139 -0.0412634 0)
(-0.00178278 -0.0146828 0)
(-0.00217672 0.020958 0)
(-0.0122781 0.05547 0)
(-0.0313384 0.0800842 0)
(-0.0546825 0.0940884 0)
(-0.0790245 0.0979984 0)
(-0.102215 0.0930113 0)
(-0.122635 0.0806541 0)
(-0.139125 0.062544 0)
(-0.15091 0.0402577 0)
(-0.157482 0.0152997 0)
(-0.158526 -0.0108563 0)
(-0.153887 -0.036686 0)
(-0.143587 -0.0605279 0)
(-0.127905 -0.0805267 0)
(-0.107494 -0.0946472 0)
(-0.0835446 -0.1008 0)
(-0.057889 -0.0971069 0)
(-0.0330592 -0.082298 0)
(-0.0128083 -0.0562151 0)
(-0.00220819 -0.020603 0)
(-0.00261083 0.0278384 0)
(-0.0144993 0.0722468 0)
(-0.0365615 0.102845 0)
(-0.0630867 0.119382 0)
(-0.0902031 0.123085 0)
(-0.115564 0.115876 0)
(-0.137552 0.099901 0)
(-0.155125 0.0772516 0)
(-0.167657 0.0498326 0)
(-0.17477 0.0193613 0)
(-0.176205 -0.0125434 0)
(-0.171775 -0.0442246 0)
(-0.161377 -0.0738371 0)
(-0.145083 -0.0992269 0)
(-0.123316 -0.11789 0)
(-0.0970892 -0.127074 0)
(-0.0682239 -0.124069 0)
(-0.0395305 -0.106721 0)
(-0.0155612 -0.0741398 0)
(-0.00274385 -0.0278196 0)
(-0.00314702 0.0359752 0)
(-0.0170847 0.0917338 0)
(-0.0423599 0.128767 0)
(-0.0719903 0.14758 0)
(-0.101475 0.150467 0)
(-0.128359 0.140358 0)
(-0.151166 0.120201 0)
(-0.169113 0.0926371 0)
(-0.181848 0.0598964 0)
(-0.18921 0.0238475 0)
(-0.191055 -0.0138437 0)
(-0.187177 -0.051501 0)
(-0.177313 -0.0872043 0)
(-0.161243 -0.118577 0)
(-0.139013 -0.142654 0)
(-0.111269 -0.155907 0)
(-0.0796225 -0.154542 0)
(-0.0470297 -0.135107 0)
(-0.0189181 -0.0955056 0)
(-0.00344102 -0.0366222 0)
(-0.00383807 0.0456096 0)
(-0.0201647 0.114223 0)
(-0.0488107 0.157867 0)
(-0.0812089 0.178306 0)
(-0.112227 0.179426 0)
(-0.139481 0.165548 0)
(-0.16186 0.140622 0)
(-0.179037 0.107904 0)
(-0.191094 0.0699088 0)
(-0.198198 0.0285579 0)
(-0.200389 -0.014575 0)
(-0.197472 -0.0579547 0)
(-0.189003 -0.0997505 0)
(-0.174387 -0.137506 0)
(-0.153123 -0.167866 0)
(-0.125232 -0.186468 0)
(-0.091794 -0.188148 0)
(-0.0556382 -0.167615 0)
(-0.023052 -0.120826 0)
(-0.00437216 -0.0473989 0)
(-0.0047831 0.0570914 0)
(-0.0239559 0.140034 0)
(-0.0559921 0.189949 0)
(-0.0903578 0.210741 0)
(-0.121403 0.208677 0)
(-0.147153 0.189942 0)
(-0.167191 0.159694 0)
(-0.181905 0.121815 0)
(-0.191989 0.0790159 0)
(-0.198056 0.0331178 0)
(-0.200404 -0.0145764 0)
(-0.198892 -0.0628756 0)
(-0.192905 -0.110261 0)
(-0.181413 -0.15442 0)
(-0.16321 -0.191791 0)
(-0.137385 -0.217214 0)
(-0.104024 -0.223912 0)
(-0.0653194 -0.204087 0)
(-0.0281954 -0.150627 0)
(-0.00565656 -0.0606761 0)
(-0.00617287 0.070974 0)
(-0.0288266 0.169492 0)
(-0.063954 0.224415 0)
(-0.0986875 0.243356 0)
(-0.127247 0.236099 0)
(-0.148646 0.21124 0)
(-0.163624 0.175272 0)
(-0.173576 0.132617 0)
(-0.179964 0.0859971 0)
(-0.183928 0.036933 0)
(-0.186081 -0.0137539 0)
(-0.186391 -0.0654428 0)
(-0.184122 -0.11719 0)
(-0.17783 -0.167138 0)
(-0.165511 -0.211843 0)
(-0.145024 -0.245583 0)
(-0.114882 -0.259883 0)
(-0.075798 -0.243726 0)
(-0.0346745 -0.18534 0)
(-0.0075083 -0.0771962 0)
(-0.00836414 0.0881872 0)
(-0.03536 0.202852 0)
(-0.0725487 0.25991 0)
(-0.104671 0.27349 0)
(-0.126771 0.258413 0)
(-0.13978 0.226156 0)
(-0.146147 0.184474 0)
(-0.148514 0.13804 0)
(-0.149165 0.0892883 0)
(-0.149753 0.0391865 0)
(-0.151196 -0.0121312 0)
(-0.153621 -0.0648174 0)
(-0.156286 -0.118761 0)
(-0.157475 -0.172927 0)
(-0.154471 -0.224482 0)
(-0.143754 -0.267671 0)
(-0.121665 -0.292611 0)
(-0.0862377 -0.284561 0)
(-0.0428927 -0.225056 0)
(-0.0102931 -0.0980611 0)
(-0.0119613 0.110289 0)
(-0.0442843 0.239979 0)
(-0.0808375 0.293647 0)
(-0.105035 0.296744 0)
(-0.114744 0.270849 0)
(-0.114097 0.23038 0)
(-0.10773 0.183818 0)
(-0.0995391 0.135508 0)
(-0.0924493 0.0871601 0)
(-0.0884208 0.0389262 0)
(-0.0885562 -0.00988893 0)
(-0.0931543 -0.060316 0)
(-0.101639 -0.113242 0)
(-0.112347 -0.168792 0)
(-0.122227 -0.225358 0)
(-0.126615 -0.278059 0)
(-0.119364 -0.316552 0)
(-0.0944359 -0.322588 0)
(-0.0530961 -0.268965 0)
(-0.0145604 -0.124879 0)
(-0.0177175 0.139852 0)
(-0.055749 0.279465 0)
(-0.085332 0.320118 0)
(-0.0926136 0.306185 0)
(-0.0818476 0.267012 0)
(-0.0616136 0.21889 0)
(-0.0386801 0.169752 0)
(-0.0176793 0.122679 0)
(-0.00158994 0.0781467 0)
(0.00778574 0.0353048 0)
(0.00943587 -0.00735939 0)
(0.00294418 -0.0516612 0)
(-0.01148 -0.0994372 0)
(-0.0327152 -0.152127 0)
(-0.0581523 -0.209921 0)
(-0.0828809 -0.270028 0)
(-0.0988062 -0.323508 0)
(-0.094916 -0.350424 0)
(-0.0643179 -0.314155 0)
(-0.0207981 -0.159969 0)
(-0.0255197 0.181333 0)
(-0.0664965 0.316333 0)
(-0.0754606 0.328519 0)
(-0.0520573 0.291224 0)
(-0.0117283 0.239092 0)
(0.0327207 0.186864 0)
(0.0738246 0.139726 0)
(0.107601 0.0983927 0)
(0.132076 0.0617443 0)
(0.146304 0.0279868 0)
(0.149761 -0.00493596 0)
(0.142048 -0.0392495 0)
(0.122859 -0.0773554 0)
(0.0922395 -0.121759 0)
(0.0512716 -0.174634 0)
(0.00338671 -0.236409 0)
(-0.0435468 -0.302264 0)
(-0.0748405 -0.355191 0)
(-0.0711737 -0.35309 0)
(-0.0280525 -0.206912 0)
(-0.0294793 0.238942 0)
(-0.0610602 0.335354 0)
(-0.0233517 0.299168 0)
(0.0476545 0.237873 0)
(0.122834 0.180059 0)
(0.190157 0.132222 0)
(0.245337 0.0943274 0)
(0.287282 0.0642105 0)
(0.316263 0.0394067 0)
(0.332837 0.0176925 0)
(0.337298 -0.00294115 0)
(0.329433 -0.024486 0)
(0.308447 -0.0491729 0)
(0.273039 -0.0797485 0)
(0.221851 -0.119656 0)
(0.154661 -0.172618 0)
(0.0747037 -0.240394 0)
(-0.0061197 -0.316503 0)
(-0.0555279 -0.366818 0)
(-0.0284038 -0.266609 0)
(0.00871019 0.281598 0)
(0.0202721 0.294989 0)
(0.138407 0.210634 0)
(0.262901 0.142709 0)
(0.361568 0.0961214 0)
(0.436037 0.0645822 0)
(0.49083 0.0430748 0)
(0.529504 0.0278953 0)
(0.554904 0.0164831 0)
(0.568984 0.00710621 0)
(0.572736 -0.00151319 0)
(0.566202 -0.0105186 0)
(0.548416 -0.0212191 0)
(0.517232 -0.0354728 0)
(0.469166 -0.0562438 0)
(0.39941 -0.0883026 0)
(0.301564 -0.138692 0)
(0.171303 -0.215507 0)
(0.0410245 -0.311043 0)
(0.0189667 -0.299391 0)
(0.300237 0.145951 0)
(0.396984 0.127511 0)
(0.557415 0.0760997 0)
(0.674151 0.0436586 0)
(0.743074 0.0254452 0)
(0.785712 0.0150856 0)
(0.813394 0.009058 0)
(0.831282 0.00538258 0)
(0.84226 0.00294449 0)
(0.847964 0.00111952 0)
(0.849165 -0.000475274 0)
(0.845975 -0.00214254 0)
(0.837854 -0.00422853 0)
(0.823395 -0.00729011 0)
(0.799832 -0.012389 0)
(0.761926 -0.0216336 0)
(0.697937 -0.0391588 0)
(0.583306 -0.0725508 0)
(0.416243 -0.127735 0)
(0.309419 -0.149279 0)
)
;

boundaryField
{
    movingWall
    {
        type            fixedValue;
        value           uniform (1 0 0);
    }
    fixedWalls
    {
        type            noSlip;
    }
    frontAndBack
    {
        type            empty;
    }
}


// ************************************************************************* //
