/*--------------------------------*- C++ -*----------------------------------*\
  =========                 |
  \\      /  F ield         | OpenFOAM: The Open Source CFD Toolbox
   \\    /   O peration     | Website:  https://openfoam.org
    \\  /    A nd           | Version:  8
     \\/     M anipulation  |
\*---------------------------------------------------------------------------*/
FoamFile
{
    version     2.0;
    format      ascii;
    class       volScalarField;
    location    "0.2";
    object      p;
}
// * * * * * * * * * * * * * * * * * * * * * * * * * * * * * * * * * * * * * //

dimensions      [0 2 -2 0 0 0 0];

internalField   nonuniform List<scalar> 
400
(
4.73769e-06
-0.0058119
-0.012942
-0.0183894
-0.0204027
-0.0182069
-0.0117427
-0.00145506
0.0118618
0.0271683
0.0432578
0.0588311
0.0725825
0.0833096
0.0900535
0.0922698
0.0900326
0.0842547
0.0768997
0.0710934
0.00577886
-0.000210891
-0.00579563
-0.00953218
-0.0105863
-0.00841823
-0.00295429
0.00549034
0.0163192
0.0287278
0.0417656
0.0544016
0.0656022
0.0744264
0.0801379
0.0823351
0.0810988
0.0770781
0.071298
0.0653492
0.0133274
0.00504056
-0.000987749
-0.00441276
-0.00525951
-0.00324845
0.00161901
0.00904474
0.0185192
0.029366
0.0407815
0.0518853
0.0617839
0.0696521
0.0748238
0.0768969
0.0758634
0.0721104
0.0658306
0.0575744
0.0201268
0.00870207
0.0012313
-0.0026604
-0.00371065
-0.00187154
0.00274659
0.00980089
0.0187973
0.0291121
0.0400091
0.0506711
0.0602502
0.0679337
0.0730222
0.0750226
0.0737902
0.0694832
0.0616293
0.0501469
0.0244848
0.00977927
0.000593486
-0.00398085
-0.00529265
-0.00349521
0.00118885
0.00835031
0.017479
0.0279671
0.0391037
0.0500892
0.0600687
0.0681857
0.0736483
0.0758218
0.0743964
0.0693195
0.0595527
0.0445869
0.0251585
0.00715824
-0.00379831
-0.00905154
-0.0105028
-0.00848784
-0.00334233
0.00444601
0.0143317
0.0256988
0.0378347
0.0499249
0.0610704
0.0703263
0.0767591
0.0795433
0.0781687
0.0723651
0.0605659
0.041944
0.0210747
-0.000249921
-0.0129291
-0.0187026
-0.0200193
-0.0174004
-0.0113022
-0.00230112
0.00901113
0.0219986
0.0359333
0.0499688
0.0631372
0.0743711
0.0825487
0.0865981
0.0857525
0.0794798
0.0656449
0.0431282
0.0111274
-0.0135993
-0.0278665
-0.0338451
-0.0345906
-0.0308416
-0.0231941
-0.0123238
0.00112863
0.0165095
0.0330794
0.0499612
0.0661115
0.0803185
0.09123
0.0974607
0.0979039
0.0916695
0.0759174
0.0491743
-0.00597763
-0.0342394
-0.0498574
-0.0555363
-0.0550741
-0.0494955
-0.0395716
-0.0260886
-0.00972991
0.00885209
0.0289313
0.0496244
0.0698286
0.0881859
0.103079
0.112734
0.115586
0.110226
0.0928507
0.0614703
-0.0318625
-0.0638399
-0.0803998
-0.0849916
-0.0824008
-0.0740561
-0.0609558
-0.0440087
-0.023921
-0.00130454
0.0231791
0.0486949
0.0741294
0.098006
0.11843
0.13316
0.140026
0.136853
0.118452
0.0819946
-0.0686695
-0.104558
-0.121324
-0.123572
-0.117493
-0.105102
-0.0876905
-0.0662949
-0.0416039
-0.0141206
0.0156415
0.0469893
0.0788916
0.109829
0.137659
0.159622
0.172767
0.173814
0.155526
0.113636
-0.119406
-0.159304
-0.174892
-0.172737
-0.161124
-0.142902
-0.119729
-0.0927447
-0.0625426
-0.0294111
0.00641044
0.0445107
0.0840917
0.123739
0.161172
0.193123
0.21571
0.224116
0.208051
0.160708
-0.188641
-0.232184
-0.243917
-0.233929
-0.21367
-0.187127
-0.156342
-0.122468
-0.0858626
-0.0464353
-0.00397715
0.0415756
0.0898778
0.139864
0.189353
0.234725
0.271118
0.291706
0.281741
0.22987
-0.284006
-0.329249
-0.331814
-0.308263
-0.274685
-0.236413
-0.195735
-0.153578
-0.109806
-0.0637093
-0.014402
0.0388981
0.0965871
0.158308
0.222404
0.285321
0.34144
0.381622
0.384917
0.331958
-0.419376
-0.45963
-0.442344
-0.395777
-0.342106
-0.287714
-0.234588
-0.182899
-0.131576
-0.0789511
-0.0231807
0.0375065
0.104581
0.178863
0.259884
0.344995
0.428655
0.499754
0.529698
0.485552
-0.620608
-0.636727
-0.57868
-0.494178
-0.411218
-0.335634
-0.267755
-0.20595
-0.147506
-0.089352
-0.028396
0.0383754
0.11383
0.20049
0.299989
0.412039
0.533053
0.651822
0.732816
0.722589
-0.935972
-0.878511
-0.741718
-0.597914
-0.474372
-0.372642
-0.288849
-0.21774
-0.153928
-0.0924371
-0.0286906
0.0417195
0.123283
0.220732
0.338935
0.482157
0.651977
0.841316
1.0153
1.09769
-1.47596
-1.20703
-0.920438
-0.691255
-0.517253
-0.387515
-0.290033
-0.21331
-0.148097
-0.08719
-0.0245548
0.0454751
0.128947
0.23307
0.367094
0.542643
0.771164
1.05923
1.40375
1.72973
-2.53596
-1.63341
-1.04461
-0.710598
-0.495563
-0.351979
-0.254439
-0.183512
-0.126117
-0.073558
-0.0192495
0.0427896
0.119191
0.218732
0.35473
0.547834
0.82609
1.23681
1.91476
2.92016
-4.35993
-2.04704
-0.973915
-0.563061
-0.357895
-0.24023
-0.170173
-0.123811
-0.0874891
-0.0535009
-0.0166277
0.0276991
0.0846585
0.161797
0.272499
0.442173
0.718185
1.22616
2.41345
4.84161
)
;

boundaryField
{
    movingWall
    {
        type            zeroGradient;
    }
    fixedWalls
    {
        type            zeroGradient;
    }
    frontAndBack
    {
        type            empty;
    }
}


// ************************************************************************* //
