/*--------------------------------*- C++ -*----------------------------------*\
  =========                 |
  \\      /  F ield         | OpenFOAM: The Open Source CFD Toolbox
   \\    /   O peration     | Website:  https://openfoam.org
    \\  /    A nd           | Version:  8
     \\/     M anipulation  |
\*---------------------------------------------------------------------------*/
FoamFile
{
    version     2.0;
    format      ascii;
    class       surfaceScalarField;
    location    "0.2";
    object      phi;
}
// * * * * * * * * * * * * * * * * * * * * * * * * * * * * * * * * * * * * * //

dimensions      [0 3 -1 0 0 0 0];

internalField   nonuniform List<scalar> 
760
(
1.42151e-08
-1.42563e-08
-2.21939e-08
3.64101e-08
-1.14217e-07
9.20231e-08
-2.45379e-07
1.31162e-07
-3.95907e-07
1.50528e-07
-5.47095e-07
1.51189e-07
-6.82848e-07
1.35753e-07
-7.90264e-07
1.07415e-07
-8.59771e-07
6.95078e-08
-8.85193e-07
2.54216e-08
-8.63884e-07
-2.13084e-08
-7.96991e-07
-6.68939e-08
-6.89746e-07
-1.07245e-07
-5.51707e-07
-1.38039e-07
-3.96758e-07
-1.54949e-07
-2.4264e-07
-1.54118e-07
-1.09682e-07
-1.32958e-07
-1.83958e-08
-9.12857e-08
1.56719e-08
-3.40677e-08
1.56718e-08
-3.41851e-08
1.9928e-08
-1.80275e-07
1.82499e-07
-4.33749e-07
3.45498e-07
-7.64021e-07
4.61435e-07
-1.13161e-06
5.18117e-07
-1.49646e-06
5.16033e-07
-1.82238e-06
4.61678e-07
-2.07945e-06
3.64481e-07
-2.2451e-06
2.35164e-07
-2.30484e-06
8.51602e-08
-2.25273e-06
-7.34141e-08
-2.09197e-06
-2.27655e-07
-1.83532e-06
-3.63894e-07
-1.50528e-06
-4.68086e-07
-1.1335e-06
-5.2672e-07
-7.59129e-07
-5.28493e-07
-4.25172e-07
-4.66914e-07
-1.72596e-07
-3.43862e-07
-3.07644e-08
-1.759e-07
-1.50927e-08
-9.21894e-08
1.12118e-07
-3.56803e-07
4.47114e-07
-7.64139e-07
7.52833e-07
-1.26779e-06
9.65091e-07
-1.81371e-06
1.06403e-06
-2.34777e-06
1.05009e-06
-2.8209e-06
9.34812e-07
-3.19222e-06
7.35792e-07
-3.43076e-06
4.73707e-07
-3.51662e-06
1.71026e-07
-3.44174e-06
-1.48301e-07
-3.21056e-06
-4.58833e-07
-2.84062e-06
-7.33836e-07
-2.36258e-06
-9.46127e-07
-1.81937e-06
-1.06992e-06
-1.26383e-06
-1.08403e-06
-7.5413e-07
-9.76618e-07
-3.4679e-07
-7.51201e-07
-8.72997e-08
-4.3539e-07
-1.02392e-07
-1.45136e-07
2.57254e-07
-5.25181e-07
8.2716e-07
-1.08106e-06
1.30871e-06
-1.74659e-06
1.63062e-06
-2.45304e-06
1.77049e-06
-3.13473e-06
1.73178e-06
-3.73333e-06
1.53342e-06
-4.20071e-06
1.20317e-06
-4.50058e-06
7.73572e-07
-4.60954e-06
2.79993e-07
-4.51794e-06
-2.39904e-07
-4.23059e-06
-7.46186e-07
-3.76748e-06
-1.19695e-06
-3.16407e-06
-1.54954e-06
-2.47066e-06
-1.76333e-06
-1.75021e-06
-1.80448e-06
-1.07398e-06
-1.65285e-06
-5.14884e-07
-1.3103e-06
-1.39249e-07
-8.11025e-07
-2.41641e-07
-1.93512e-07
4.50765e-07
-6.84663e-07
1.31831e-06
-1.38495e-06
2.009e-06
-2.20619e-06
2.45186e-06
-3.06401e-06
2.62831e-06
-3.88194e-06
2.54971e-06
-4.59433e-06
2.24581e-06
-5.14815e-06
1.75699e-06
-5.50386e-06
1.12928e-06
-5.63589e-06
4.12026e-07
-5.5332e-06
-3.42598e-07
-5.2e-06
-1.07938e-06
-4.65678e-06
-1.74016e-06
-3.94121e-06
-2.26511e-06
-3.10834e-06
-2.59619e-06
-2.22953e-06
-2.6833e-06
-1.38903e-06
-2.49334e-06
-6.78199e-07
-2.02113e-06
-1.87683e-07
-1.30154e-06
-4.29324e-07
-2.39837e-07
6.90602e-07
-8.40002e-07
1.91848e-06
-1.68261e-06
2.85161e-06
-2.656e-06
3.42525e-06
-3.65938e-06
3.6317e-06
-4.60594e-06
3.49626e-06
-5.4242e-06
3.06407e-06
-6.05817e-06
2.39096e-06
-6.4668e-06
1.53791e-06
-6.62346e-06
5.68682e-07
-6.5158e-06
-4.50257e-07
-6.14646e-06
-1.44872e-06
-5.53447e-06
-2.35215e-06
-4.71719e-06
-3.08239e-06
-3.75211e-06
-3.56128e-06
-2.71751e-06
-3.71789e-06
-1.71093e-06
-3.49993e-06
-8.44358e-07
-2.88771e-06
-2.36092e-07
-1.90981e-06
-6.65416e-07
-2.86653e-07
9.77255e-07
-9.96778e-07
2.6286e-06
-1.98148e-06
3.83631e-06
-3.10402e-06
4.54778e-06
-4.24668e-06
4.77436e-06
-5.31321e-06
4.5628e-06
-6.22822e-06
3.97908e-06
-6.93506e-06
3.0978e-06
-7.39324e-06
1.9961e-06
-7.57634e-06
7.5178e-07
-7.47094e-06
-5.55654e-07
-7.07705e-06
-1.84261e-06
-6.41006e-06
-3.01914e-06
-5.50406e-06
-3.98839e-06
-4.41588e-06
-4.64946e-06
-3.22853e-06
-4.90524e-06
-2.05242e-06
-4.67603e-06
-1.02227e-06
-3.91786e-06
-2.88207e-07
-2.64387e-06
-9.53623e-07
-3.36266e-07
1.31352e-06
-1.16015e-06
3.45248e-06
-2.28758e-06
4.96375e-06
-3.55431e-06
5.81451e-06
-4.82567e-06
6.04572e-06
-5.99786e-06
5.73498e-06
-6.9946e-06
4.97582e-06
-7.76191e-06
3.86511e-06
-8.26277e-06
2.49695e-06
-8.47286e-06
9.61876e-07
-8.37826e-06
-6.50258e-07
-7.97532e-06
-2.24555e-06
-7.27319e-06
-3.72127e-06
-6.2988e-06
-4.96277e-06
-5.10379e-06
-5.84448e-06
-3.77191e-06
-6.23713e-06
-2.4245e-06
-6.02343e-06
-1.22056e-06
-5.1218e-06
-3.47658e-07
-3.51677e-06
-1.30128e-06
-3.90933e-07
1.70445e-06
-1.33479e-06
4.39634e-06
-2.60477e-06
6.23373e-06
-4.0056e-06
7.21534e-06
-5.38632e-06
7.42644e-06
-6.63909e-06
6.98776e-06
-7.69163e-06
6.02835e-06
-8.49754e-06
4.67102e-06
-9.02741e-06
3.02682e-06
-9.26189e-06
1.19635e-06
-9.18764e-06
-7.24504e-07
-8.79655e-06
-2.63664e-06
-8.08856e-06
-4.42926e-06
-7.07837e-06
-5.97296e-06
-5.80584e-06
-7.11701e-06
-4.34873e-06
-7.69424e-06
-2.83463e-06
-7.53753e-06
-1.44701e-06
-6.50942e-06
-4.18085e-07
-4.5457e-06
-1.71937e-06
-4.5348e-07
2.15793e-06
-1.52574e-06
5.46859e-06
-2.93495e-06
7.64295e-06
-4.45018e-06
8.73057e-06
-5.90636e-06
8.88262e-06
-7.1978e-06
8.2792e-06
-8.26359e-06
7.09414e-06
-9.07195e-06
5.47937e-06
-9.60671e-06
3.56158e-06
-9.85741e-06
1.44706e-06
-9.81324e-06
-7.68674e-07
-9.46122e-06
-2.98866e-06
-8.789e-06
-5.10149e-06
-7.79295e-06
-6.96901e-06
-6.49222e-06
-8.41774e-06
-4.94802e-06
-9.23844e-06
-3.28518e-06
-9.20037e-06
-1.70874e-06
-8.08586e-06
-5.03621e-07
-5.75081e-06
-2.22299e-06
-5.28418e-07
2.68635e-06
-1.73988e-06
6.68005e-06
-3.27834e-06
9.18141e-06
-4.87211e-06
1.03243e-05
-6.34759e-06
1.03581e-05
-7.61146e-06
9.54307e-06
-8.62502e-06
8.1077e-06
-9.38035e-06
6.23471e-06
-9.88165e-06
4.06288e-06
-1.01322e-05
1.69758e-06
-1.01264e-05
-7.74444e-07
-9.84694e-06
-3.26813e-06
-9.26657e-06
-5.68186e-06
-8.35688e-06
-7.8787e-06
-7.1052e-06
-9.66942e-06
-5.54114e-06
-1.08025e-05
-3.77105e-06
-1.09705e-05
-2.01238e-06
-9.84453e-06
-6.09777e-07
-7.15342e-06
-2.83276e-06
-6.23802e-07
3.31015e-06
-1.98776e-06
8.04401e-06
-3.63256e-06
1.08262e-05
-5.24282e-06
1.19346e-05
-6.64865e-06
1.17639e-05
-7.78571e-06
1.06801e-05
-8.65236e-06
8.97435e-06
-9.27572e-06
6.85807e-06
-9.68798e-06
4.47515e-06
-9.91126e-06
1.92086e-06
-9.94864e-06
-7.37064e-07
-9.77992e-06
-3.43685e-06
-9.36213e-06
-6.09965e-06
-8.63674e-06
-8.60409e-06
-7.54737e-06
-1.07588e-05
-6.07241e-06
-1.22775e-05
-4.27489e-06
-1.2768e-05
-2.36403e-06
-1.17554e-05
-7.4492e-07
-8.77253e-06
-3.57768e-06
-7.5424e-07
4.06439e-06
-2.28486e-06
9.57463e-06
-3.98789e-06
1.25292e-05
-5.5103e-06
1.3457e-05
-6.71109e-06
1.29647e-05
-7.58027e-06
1.15493e-05
-8.17194e-06
9.56602e-06
-8.55964e-06
7.24577e-06
-8.80981e-06
4.72532e-06
-8.96714e-06
2.07819e-06
-9.04641e-06
-6.57798e-07
-9.02769e-06
-3.45557e-06
-8.85438e-06
-6.27295e-06
-8.43642e-06
-9.02205e-06
-7.66429e-06
-1.15309e-05
-6.44315e-06
-1.34986e-05
-4.75712e-06
-1.4454e-05
-2.76727e-06
-1.37452e-05
-9.22604e-07
-1.06172e-05
-4.50029e-06
-9.45307e-07
5.0097e-06
-2.64904e-06
1.12784e-05
-4.312e-06
1.41922e-05
-5.57467e-06
1.47197e-05
-6.37237e-06
1.37624e-05
-6.78523e-06
1.19622e-05
-6.94267e-06
9.72346e-06
-6.97207e-06
7.27517e-06
-6.97521e-06
4.72846e-06
-7.01895e-06
2.12193e-06
-7.131e-06
-5.45754e-07
-7.29602e-06
-3.29055e-06
-7.45071e-06
-6.11827e-06
-7.47972e-06
-8.99304e-06
-7.21951e-06
-1.17911e-05
-6.48404e-06
-1.42341e-05
-5.1344e-06
-1.58036e-05
-3.21553e-06
-1.56641e-05
-1.16447e-06
-1.26682e-05
-5.66476e-06
-1.2371e-06
6.2468e-06
-3.08367e-06
1.31249e-05
-4.50866e-06
1.56172e-05
-5.23581e-06
1.54468e-05
-5.35687e-06
1.38835e-05
-5.08378e-06
1.16891e-05
-4.63311e-06
9.27279e-06
-4.18167e-06
6.82374e-06
-3.8569e-06
4.40368e-06
-3.7396e-06
2.00463e-06
-3.86764e-06
-4.17707e-07
-4.23501e-06
-2.92319e-06
-4.78422e-06
-5.56905e-06
-5.39292e-06
-8.38434e-06
-5.86003e-06
-1.1324e-05
-5.90778e-06
-1.41863e-05
-5.23367e-06
-1.64778e-05
-3.66657e-06
-1.72312e-05
-1.49976e-06
-1.4835e-05
-7.16452e-06
-1.67267e-06
7.91947e-06
-3.5131e-06
1.49654e-05
-4.3159e-06
1.642e-05
-4.08989e-06
1.52208e-05
-3.1944e-06
1.2988e-05
-2.00042e-06
1.04951e-05
-7.97125e-07
8.06949e-06
2.17115e-07
5.8095e-06
9.15852e-07
3.70495e-06
1.22317e-06
1.69732e-06
1.09968e-06
-2.94222e-07
5.38848e-07
-2.36235e-06
-4.24882e-07
-4.60532e-06
-1.69418e-06
-7.11504e-06
-3.07363e-06
-9.94458e-06
-4.23162e-06
-1.30283e-05
-4.69595e-06
-1.60134e-05
-3.96659e-06
-1.79606e-05
-1.9435e-06
-1.68581e-05
-9.10802e-06
-2.22672e-06
1.01462e-05
-3.58848e-06
1.63271e-05
-3.0777e-06
1.59092e-05
-1.34432e-06
1.34874e-05
8.96225e-07
1.07474e-05
3.15379e-06
8.23754e-06
5.1366e-06
6.08668e-06
6.6869e-06
4.2592e-06
7.72386e-06
2.66799e-06
8.20451e-06
1.21667e-06
8.1019e-06
-1.91614e-07
7.39722e-06
-1.65767e-06
6.08533e-06
-3.29343e-06
4.19803e-06
-5.22774e-06
1.85346e-06
-7.60002e-06
-6.61852e-07
-1.0513e-05
-2.79152e-06
-1.38838e-05
-3.65946e-06
-1.70926e-05
-2.40679e-06
-1.81108e-05
-1.15148e-05
-2.55979e-06
1.2706e-05
-2.18059e-06
1.59479e-05
7.18358e-07
1.30103e-05
4.46961e-06
9.73619e-06
8.13309e-06
7.08395e-06
1.1301e-05
5.0696e-06
1.38282e-05
3.5595e-06
1.56869e-05
2.40047e-06
1.68903e-05
1.4646e-06
1.74535e-05
6.53533e-07
1.7375e-05
-1.13144e-07
1.66293e-05
-9.11969e-07
1.51663e-05
-1.83038e-06
1.29229e-05
-2.98442e-06
9.86157e-06
-4.53865e-06
6.06221e-06
-6.71365e-06
1.91323e-06
-9.73478e-06
-1.55571e-06
-1.36237e-05
-2.44286e-06
-1.72237e-05
-1.39577e-05
-8.09822e-07
1.35158e-05
4.07603e-06
1.10621e-05
1.02972e-05
6.78907e-06
1.57938e-05
4.23959e-06
2.01582e-05
2.71955e-06
2.34581e-05
1.76973e-06
2.58606e-05
1.15702e-06
2.75211e-05
7.39982e-07
2.85534e-05
4.32254e-07
2.90257e-05
1.812e-07
2.89615e-05
-4.89442e-08
2.83382e-05
-2.88665e-07
2.70815e-05
-5.73688e-07
2.5055e-05
-9.5789e-07
2.20518e-05
-1.53543e-06
1.78155e-05
-2.47735e-06
1.21718e-05
-4.09111e-06
5.47235e-06
-6.92422e-06
-1.56434e-07
-1.15949e-05
-1.41141e-05
1.35158e-05
2.45779e-05
3.13669e-05
3.56065e-05
3.83261e-05
4.00958e-05
4.12528e-05
4.19928e-05
4.24251e-05
4.26063e-05
4.25573e-05
4.22687e-05
4.1695e-05
4.07371e-05
3.92017e-05
3.67243e-05
3.26332e-05
2.5709e-05
1.41141e-05
)
;

boundaryField
{
    movingWall
    {
        type            calculated;
        value           uniform 0;
    }
    fixedWalls
    {
        type            calculated;
        value           uniform 0;
    }
    frontAndBack
    {
        type            empty;
        value           nonuniform List<scalar> 0();
    }
}


// ************************************************************************* //
