/*--------------------------------*- C++ -*----------------------------------*\
  =========                 |
  \\      /  F ield         | OpenFOAM: The Open Source CFD Toolbox
   \\    /   O peration     | Website:  https://openfoam.org
    \\  /    A nd           | Version:  8
     \\/     M anipulation  |
\*---------------------------------------------------------------------------*/
FoamFile
{
    version     2.0;
    format      ascii;
    class       volVectorField;
    location    "0.2";
    object      U;
}
// * * * * * * * * * * * * * * * * * * * * * * * * * * * * * * * * * * * * * //

dimensions      [0 1 -1 0 0 0 0];

internalField   nonuniform List<vector> 
400
(
(0.000252777 -0.000250036 0)
(0.000140383 0.000111905 0)
(-0.00117669 0.00056532 0)
(-0.00347949 0.000885791 0)
(-0.00637442 0.00104657 0)
(-0.00946481 0.00106262 0)
(-0.0123968 0.000958644 0)
(-0.0148775 0.000761085 0)
(-0.0166811 0.000495085 0)
(-0.0176494 0.000184751 0)
(-0.0176933 -0.00014535 0)
(-0.0167968 -0.000468715 0)
(-0.0150228 -0.000755994 0)
(-0.0125191 -0.000975015 0)
(-0.00952194 -0.00109204 0)
(-0.00635209 -0.00107487 0)
(-0.00339912 -0.000898946 0)
(-0.00108621 -0.000557104 0)
(0.000195704 -9.0713e-05 0)
(0.000267369 0.000262071 0)
(-7.81454e-05 -0.000168889 0)
(-0.00161141 0.00164445 0)
(-0.0056897 0.00361649 0)
(-0.0117124 0.00503356 0)
(-0.0188822 0.00574172 0)
(-0.0263869 0.00575868 0)
(-0.0334517 0.00517032 0)
(-0.0394063 0.00409147 0)
(-0.0437213 0.00264702 0)
(-0.0460234 0.000966782 0)
(-0.0461058 -0.00081288 0)
(-0.043939 -0.00254628 0)
(-0.0396811 -0.00407746 0)
(-0.0336858 -0.00524367 0)
(-0.0265001 -0.00588502 0)
(-0.0188451 -0.00586342 0)
(-0.0115606 -0.00509365 0)
(-0.00551031 -0.00358875 0)
(-0.00149286 -0.00155869 0)
(-4.31351e-05 0.000227014 0)
(-0.000529479 0.00109121 0)
(-0.00371055 0.005733 0)
(-0.0105831 0.0102191 0)
(-0.0199809 0.0134007 0)
(-0.0307484 0.0149385 0)
(-0.0418 0.014831 0)
(-0.0520922 0.0132487 0)
(-0.0607121 0.0104507 0)
(-0.0669342 0.00673857 0)
(-0.0702459 0.0024378 0)
(-0.070364 -0.00210515 0)
(-0.0672497 -0.00652174 0)
(-0.0611211 -0.0104235 0)
(-0.0524619 -0.013414 0)
(-0.042016 -0.0151157 0)
(-0.0307585 -0.015218 0)
(-0.019819 -0.0135494 0)
(-0.0103582 -0.0101739 0)
(-0.00354778 -0.005548 0)
(-0.000477664 -0.000948464 0)
(-0.000929262 0.00347804 0)
(-0.00569003 0.0122137 0)
(-0.0152938 0.019911 0)
(-0.0279024 0.0251846 0)
(-0.0419641 0.0275825 0)
(-0.0561507 0.0271232 0)
(-0.0692171 0.0240962 0)
(-0.0800854 0.018944 0)
(-0.0879041 0.0121894 0)
(-0.0920729 0.0044032 0)
(-0.0922578 -0.00380536 0)
(-0.0884069 -0.0117897 0)
(-0.0807658 -0.0188717 0)
(-0.0698895 -0.0243633 0)
(-0.0566424 -0.0276133 0)
(-0.042175 -0.0280876 0)
(-0.0278434 -0.0254851 0)
(-0.0150864 -0.0198818 0)
(-0.00550386 -0.0119212 0)
(-0.00086265 -0.00322319 0)
(-0.00128027 0.00687424 0)
(-0.00753438 0.0209423 0)
(-0.0197954 0.0324935 0)
(-0.0355185 0.0400827 0)
(-0.0527195 0.0432681 0)
(-0.069827 0.0421711 0)
(-0.0854249 0.0372584 0)
(-0.0983164 0.0291982 0)
(-0.107572 0.018768 0)
(-0.112538 0.00681102 0)
(-0.112847 -0.00577636 0)
(-0.108427 -0.0180443 0)
(-0.0995194 -0.0289956 0)
(-0.0867025 -0.037613 0)
(-0.0709061 -0.0429233 0)
(-0.0534082 -0.0441072 0)
(-0.0357697 -0.0406592 0)
(-0.0197267 -0.0325768 0)
(-0.00736939 -0.0205801 0)
(-0.00120511 -0.00649492 0)
(-0.00160932 0.01121 0)
(-0.00931672 0.0318582 0)
(-0.0241996 0.0479281 0)
(-0.042986 0.0580435 0)
(-0.063233 0.0619067 0)
(-0.0831214 0.0598516 0)
(-0.101086 0.0526023 0)
(-0.115848 0.0411057 0)
(-0.12644 0.0264247 0)
(-0.132187 0.00968931 0)
(-0.1327 -0.00791077 0)
(-0.127876 -0.0251179 0)
(-0.117924 -0.0406034 0)
(-0.103397 -0.0529924 0)
(-0.0852392 -0.0609365 0)
(-0.0648133 -0.0632503 0)
(-0.0438703 -0.0591149 0)
(-0.024469 -0.0483223 0)
(-0.0092536 -0.0315425 0)
(-0.00153975 -0.0107235 0)
(-0.00194247 0.0164694 0)
(-0.0111208 0.044953 0)
(-0.0286416 0.0662029 0)
(-0.0504648 0.0790233 0)
(-0.0736633 0.0834079 0)
(-0.0961753 0.080037 0)
(-0.116317 0.0699918 0)
(-0.132775 0.0545597 0)
(-0.144588 0.0351162 0)
(-0.151096 0.0130803 0)
(-0.151904 -0.0100795 0)
(-0.146873 -0.0328148 0)
(-0.136143 -0.0534726 0)
(-0.12019 -0.0703031 0)
(-0.0999058 -0.0815278 0)
(-0.0766814 -0.0854951 0)
(-0.0524264 -0.0809294 0)
(-0.029537 -0.0672489 0)
(-0.0112839 -0.0449201 0)
(-0.00190283 -0.0159448 0)
(-0.00230325 0.0226855 0)
(-0.0130262 0.0602754 0)
(-0.0332441 0.0873276 0)
(-0.0580682 0.102954 0)
(-0.0840581 0.10762 0)
(-0.108932 0.102518 0)
(-0.130941 0.0892058 0)
(-0.148803 0.0693813 0)
(-0.161632 0.0447535 0)
(-0.168832 0.0170146 0)
(-0.170028 -0.0121253 0)
(-0.165038 -0.0408723 0)
(-0.153899 -0.0672826 0)
(-0.136944 -0.0892335 0)
(-0.114922 -0.104468 0)
(-0.0891604 -0.110752 0)
(-0.0616602 -0.106172 0)
(-0.0351424 -0.0895462 0)
(-0.0135878 -0.0609264 0)
(-0.00233008 -0.0222695 0)
(-0.00271587 0.0299365 0)
(-0.0151112 0.0779283 0)
(-0.0381113 0.111316 0)
(-0.0658422 0.129702 0)
(-0.0943179 0.134267 0)
(-0.121087 0.126925 0)
(-0.144428 0.109859 0)
(-0.163195 0.0852488 0)
(-0.176666 0.0551468 0)
(-0.184385 0.0214811 0)
(-0.186036 -0.0138656 0)
(-0.181401 -0.0489334 0)
(-0.170376 -0.0815581 0)
(-0.153065 -0.109279 0)
(-0.129959 -0.129332 0)
(-0.102177 -0.138779 0)
(-0.0716837 -0.134842 0)
(-0.0414638 -0.115432 0)
(-0.0162923 -0.0798698 0)
(-0.00285975 -0.0298807 0)
(-0.00321317 0.0383488 0)
(-0.0174722 0.0980601 0)
(-0.0433417 0.138148 0)
(-0.0737574 0.158996 0)
(-0.104161 0.162848 0)
(-0.132031 0.152621 0)
(-0.155824 0.131296 0)
(-0.174676 0.101605 0)
(-0.188164 0.0659359 0)
(-0.196063 0.0263831 0)
(-0.198181 -0.0151032 0)
(-0.194279 -0.0565208 0)
(-0.184078 -0.0956046 0)
(-0.167364 -0.129642 0)
(-0.144214 -0.155372 0)
(-0.115339 -0.169046 0)
(-0.0824462 -0.166756 0)
(-0.0486367 -0.145086 0)
(-0.019536 -0.102133 0)
(-0.00354031 -0.0390384 0)
(-0.00385106 0.0481189 0)
(-0.0202554 0.120866 0)
(-0.0490519 0.167712 0)
(-0.0816947 0.190318 0)
(-0.113064 0.192505 0)
(-0.140759 0.178563 0)
(-0.163635 0.152467 0)
(-0.181323 0.117557 0)
(-0.19386 0.0765127 0)
(-0.201374 0.0314876 0)
(-0.20387 -0.0156495 0)
(-0.201122 -0.0630258 0)
(-0.192661 -0.108453 0)
(-0.177868 -0.149124 0)
(-0.156234 -0.181363 0)
(-0.127789 -0.200555 0)
(-0.0936515 -0.201378 0)
(-0.056738 -0.178537 0)
(-0.0234909 -0.128148 0)
(-0.00444442 -0.0500967 0)
(-0.00473435 0.0595637 0)
(-0.0237074 0.146593 0)
(-0.0553928 0.19972 0)
(-0.0893918 0.222746 0)
(-0.120143 0.221842 0)
(-0.1457 0.203139 0)
(-0.165657 0.171796 0)
(-0.1804 0.131776 0)
(-0.190611 0.085948 0)
(-0.196893 0.0363695 0)
(-0.199531 -0.0153618 0)
(-0.198364 -0.0677193 0)
(-0.192744 -0.11883 0)
(-0.181598 -0.166032 0)
(-0.163667 -0.205438 0)
(-0.137985 -0.231611 0)
(-0.10461 -0.237582 0)
(-0.0657429 -0.215491 0)
(-0.0283929 -0.158346 0)
(-0.00569354 -0.0635468 0)
(-0.00606247 0.073224 0)
(-0.0282417 0.175545 0)
(-0.0625222 0.233542 0)
(-0.0962781 0.254708 0)
(-0.123885 0.248687 0)
(-0.144431 0.223981 0)
(-0.158708 0.187066 0)
(-0.168148 0.142429 0)
(-0.174244 0.092948 0)
(-0.178162 0.0403722 0)
(-0.180528 -0.0141907 0)
(-0.181307 -0.0697993 0)
(-0.179734 -0.125177 0)
(-0.174305 -0.178138 0)
(-0.162925 -0.224926 0)
(-0.143342 -0.259543 0)
(-0.113957 -0.27329 0)
(-0.0754061 -0.255039 0)
(-0.0345755 -0.193075 0)
(-0.00750036 -0.0801022 0)
(-0.00820389 0.0900453 0)
(-0.0344999 0.208011 0)
(-0.0704273 0.267863 0)
(-0.101047 0.283575 0)
(-0.121606 0.269773 0)
(-0.133146 0.237801 0)
(-0.138206 0.195367 0)
(-0.13951 0.147203 0)
(-0.139417 0.09589 0)
(-0.139647 0.0426129 0)
(-0.141161 -0.0122264 0)
(-0.144104 -0.0684879 0)
(-0.147714 -0.125764 0)
(-0.15021 -0.182731 0)
(-0.148756 -0.236283 0)
(-0.139673 -0.280407 0)
(-0.119117 -0.304993 0)
(-0.0849503 -0.295139 0)
(-0.042461 -0.23237 0)
(-0.0102313 -0.100838 0)
(-0.0117764 0.111635 0)
(-0.0432721 0.243961 0)
(-0.07831 0.300024 0)
(-0.100651 0.305069 0)
(-0.108382 0.280429 0)
(-0.105768 0.240349 0)
(-0.0975724 0.19325 0)
(-0.0878188 0.143523 0)
(-0.0795524 0.0930191 0)
(-0.0748386 0.0420889 0)
(-0.074856 -0.00972354 0)
(-0.0799417 -0.063195 0)
(-0.0895098 -0.118965 0)
(-0.10183 -0.176925 0)
(-0.113721 -0.23525 0)
(-0.120334 -0.288849 0)
(-0.115284 -0.32717 0)
(-0.0922768 -0.331783 0)
(-0.0523292 -0.275406 0)
(-0.0144417 -0.127348 0)
(-0.0175441 0.140649 0)
(-0.0547567 0.282159 0)
(-0.0827895 0.32472 0)
(-0.0880978 0.312458 0)
(-0.0751332 0.274432 0)
(-0.0526222 0.226744 0)
(-0.0274963 0.177263 0)
(-0.00455816 0.129114 0)
(0.013051 0.0828991 0)
(0.0233899 0.0379418 0)
(0.0253485 -0.00706953 0)
(0.0184597 -0.0537459 0)
(0.00293656 -0.103732 0)
(-0.0200339 -0.158295 0)
(-0.0477153 -0.217475 0)
(-0.0750059 -0.278335 0)
(-0.0935584 -0.331773 0)
(-0.0920605 -0.357684 0)
(-0.0632671 -0.319311 0)
(-0.0206275 -0.161962 0)
(-0.0253971 0.181649 0)
(-0.0657079 0.317833 0)
(-0.0733202 0.331391 0)
(-0.0480847 0.295392 0)
(-0.00559124 0.244193 0)
(0.0411982 0.192359 0)
(0.084625 0.145027 0)
(0.120502 0.102956 0)
(0.146663 0.0651273 0)
(0.162006 0.0298874 0)
(0.165899 -0.00466873 0)
(0.157896 -0.0406191 0)
(0.137697 -0.0802316 0)
(0.105412 -0.125899 0)
(0.0622428 -0.179707 0)
(0.011797 -0.242004 0)
(-0.0378291 -0.307872 0)
(-0.0716548 -0.360177 0)
(-0.0699681 -0.356677 0)
(-0.0278492 -0.208298 0)
(-0.0294353 0.238941 0)
(-0.0606117 0.335947 0)
(-0.0219354 0.30059 0)
(0.0505304 0.240132 0)
(0.127572 0.182937 0)
(0.197001 0.135376 0)
(0.254322 0.0973863 0)
(0.298229 0.0668408 0)
(0.328798 0.0413486 0)
(0.346438 0.018776 0)
(0.351346 -0.00279236 0)
(0.343275 -0.0252595 0)
(0.321446 -0.0507788 0)
(0.284626 -0.0820374 0)
(0.231565 -0.122436 0)
(0.162183 -0.175664 0)
(0.0798948 -0.243447 0)
(-0.00317241 -0.319233 0)
(-0.0543912 -0.368793 0)
(-0.0282105 -0.267342 0)
(0.0086795 0.281481 0)
(0.0203622 0.295062 0)
(0.139 0.211061 0)
(0.264412 0.143515 0)
(0.364372 0.0972104 0)
(0.440369 0.0657961 0)
(0.49674 0.0442506 0)
(0.536865 0.0288946 0)
(0.563434 0.0172042 0)
(0.578291 0.00748772 0)
(0.582365 -0.00149341 0)
(0.575682 -0.0108468 0)
(0.557299 -0.021852 0)
(0.52513 -0.036345 0)
(0.47578 -0.0572773 0)
(0.40454 -0.0894124 0)
(0.305123 -0.139789 0)
(0.173336 -0.21648 0)
(0.0417967 -0.311729 0)
(0.0190845 -0.29959 0)
(0.300182 0.14589 0)
(0.396872 0.12746 0)
(0.55741 0.0761135 0)
(0.67446 0.0437533 0)
(0.743894 0.0255996 0)
(0.787155 0.0152651 0)
(0.815482 0.00922963 0)
(0.833949 0.00552141 0)
(0.845378 0.00303477 0)
(0.851364 0.00115319 0)
(0.852659 -0.000499183 0)
(0.849376 -0.00221829 0)
(0.840994 -0.00434595 0)
(0.826136 -0.00743688 0)
(0.802077 -0.0125517 0)
(0.763621 -0.0217998 0)
(0.699072 -0.039317 0)
(0.583908 -0.0726889 0)
(0.416411 -0.127821 0)
(0.309416 -0.149275 0)
)
;

boundaryField
{
    movingWall
    {
        type            fixedValue;
        value           uniform (1 0 0);
    }
    fixedWalls
    {
        type            noSlip;
    }
    frontAndBack
    {
        type            empty;
    }
}


// ************************************************************************* //
