/*--------------------------------*- C++ -*----------------------------------*\
  =========                 |
  \\      /  F ield         | OpenFOAM: The Open Source CFD Toolbox
   \\    /   O peration     | Website:  https://openfoam.org
    \\  /    A nd           | Version:  8
     \\/     M anipulation  |
\*---------------------------------------------------------------------------*/
FoamFile
{
    version     2.0;
    format      ascii;
    class       surfaceScalarField;
    location    "1.46";
    object      phi;
}
// * * * * * * * * * * * * * * * * * * * * * * * * * * * * * * * * * * * * * //

dimensions      [0 3 -1 0 0 0 0];

internalField   nonuniform List<scalar> 
760
(
1.24952e-06
-4.70152e-21
1.24952e-06
-6.71521e-20
1.24952e-06
-1.01202e-19
1.24952e-06
-1.26578e-19
1.24952e-06
-1.50628e-19
1.24952e-06
-1.85707e-19
1.24952e-06
-2.02962e-19
1.24952e-06
-2.09211e-19
1.24952e-06
-1.85136e-19
1.24952e-06
-1.47135e-19
1.24952e-06
-8.62787e-20
1.24952e-06
-1.168e-20
1.24952e-06
6.79522e-20
1.24952e-06
1.50683e-19
1.24952e-06
2.14138e-19
1.24952e-06
2.64929e-19
1.24952e-06
2.7037e-19
1.24952e-06
2.44052e-19
1.24952e-06
1.68459e-19
7.90506e-20
3.74856e-06
-1.26e-20
3.74856e-06
-3.11038e-19
3.74856e-06
-5.52465e-19
3.74856e-06
-7.24423e-19
3.74856e-06
-8.69461e-19
3.74856e-06
-9.47888e-19
3.74856e-06
-9.72384e-19
3.74856e-06
-8.85262e-19
3.74856e-06
-7.27965e-19
3.74856e-06
-4.77612e-19
3.74856e-06
-1.7919e-19
3.74856e-06
1.51817e-19
3.74856e-06
4.85512e-19
3.74856e-06
7.71916e-19
3.74856e-06
1.00347e-18
3.74856e-06
1.11278e-18
3.74856e-06
1.1191e-18
3.74856e-06
9.6145e-19
3.74856e-06
6.95553e-19
3.40187e-19
6.24764e-06
-1.33982e-19
6.24764e-06
-8.85797e-19
6.24764e-06
-1.50255e-18
6.24764e-06
-1.97863e-18
6.24764e-06
-2.27837e-18
6.24764e-06
-2.423e-18
6.24764e-06
-2.32553e-18
6.24764e-06
-2.03793e-18
6.24764e-06
-1.52128e-18
6.24764e-06
-8.68238e-19
6.24764e-06
-1.01033e-19
6.24764e-06
6.8592e-19
6.24764e-06
1.41734e-18
6.24764e-06
2.03738e-18
6.24764e-06
2.44356e-18
6.24764e-06
2.63068e-18
6.24764e-06
2.5087e-18
6.24764e-06
2.13363e-18
6.24764e-06
1.48114e-18
6.9952e-19
8.74678e-06
-4.6351e-19
8.74678e-06
-1.81403e-18
8.74678e-06
-2.9448e-18
8.74678e-06
-3.77116e-18
8.74678e-06
-4.28389e-18
8.74678e-06
-4.38532e-18
8.74678e-06
-4.11838e-18
8.74678e-06
-3.42184e-18
8.74678e-06
-2.42291e-18
8.74678e-06
-1.14953e-18
8.74678e-06
2.29926e-19
8.74678e-06
1.61369e-18
8.74678e-06
2.85991e-18
8.74678e-06
3.82525e-18
8.74678e-06
4.4465e-18
8.74678e-06
4.59205e-18
8.74678e-06
4.30073e-18
8.74678e-06
3.51873e-18
8.74678e-06
2.38639e-18
9.81945e-19
1.1246e-05
-9.90766e-19
1.1246e-05
-2.96513e-18
1.1246e-05
-4.60987e-18
1.1246e-05
-5.81588e-18
1.1246e-05
-6.45413e-18
1.1246e-05
-6.524e-18
1.1246e-05
-5.94139e-18
1.1246e-05
-4.82842e-18
1.1246e-05
-3.20336e-18
1.1246e-05
-1.29056e-18
1.1246e-05
7.87165e-19
1.1246e-05
2.7891e-18
1.1246e-05
4.53589e-18
1.1246e-05
5.86461e-18
1.1246e-05
6.59591e-18
1.1246e-05
6.70756e-18
1.1246e-05
6.1039e-18
1.1246e-05
4.90888e-18
1.1246e-05
3.1692e-18
1.14183e-18
1.37453e-05
-1.56401e-18
1.37453e-05
-4.07469e-18
1.37453e-05
-6.15332e-18
1.37453e-05
-7.61747e-18
1.37453e-05
-8.37932e-18
1.37453e-05
-8.3132e-18
1.37453e-05
-7.48946e-18
1.37453e-05
-5.9007e-18
1.37453e-05
-3.77789e-18
1.37453e-05
-1.24105e-18
1.37453e-05
1.39815e-18
1.37453e-05
3.93395e-18
1.37453e-05
6.09133e-18
1.37453e-05
7.65423e-18
1.37453e-05
8.49412e-18
1.37453e-05
8.46333e-18
1.37453e-05
7.62128e-18
1.37453e-05
5.9667e-18
1.37453e-05
3.74711e-18
1.11886e-18
1.62447e-05
-2.0513e-18
1.62447e-05
-4.85996e-18
1.62447e-05
-7.18385e-18
1.62447e-05
-8.80864e-18
1.62447e-05
-9.56219e-18
1.62447e-05
-9.43069e-18
1.62447e-05
-8.34892e-18
1.62447e-05
-6.49885e-18
1.62447e-05
-3.9726e-18
1.62447e-05
-1.0943e-18
1.62447e-05
1.93022e-18
1.62447e-05
4.75316e-18
1.62447e-05
7.13439e-18
1.62447e-05
8.83116e-18
1.62447e-05
9.64706e-18
1.62447e-05
9.54002e-18
1.62447e-05
8.44898e-18
1.62447e-05
6.55137e-18
1.62447e-05
3.95225e-18
1.00612e-18
1.87443e-05
-2.29354e-18
1.87443e-05
-5.15102e-18
1.87443e-05
-7.48016e-18
1.87443e-05
-9.07594e-18
1.87443e-05
-9.80023e-18
1.87443e-05
-9.5512e-18
1.87443e-05
-8.40562e-18
1.87443e-05
-6.40851e-18
1.87443e-05
-3.82981e-18
1.87443e-05
-8.36845e-19
1.87443e-05
2.21081e-18
1.87443e-05
5.07456e-18
1.87443e-05
7.438e-18
1.87443e-05
9.08252e-18
1.87443e-05
9.85187e-18
1.87443e-05
9.62775e-18
1.87443e-05
8.47861e-18
1.87443e-05
6.45158e-18
1.87443e-05
3.82251e-18
7.80268e-19
2.1244e-05
-2.30484e-18
2.1244e-05
-4.87809e-18
2.1244e-05
-6.99016e-18
2.1244e-05
-8.4069e-18
2.1244e-05
-8.99826e-18
2.1244e-05
-8.71967e-18
2.1244e-05
-7.5715e-18
2.1244e-05
-5.72237e-18
2.1244e-05
-3.27985e-18
2.1244e-05
-5.56273e-19
2.1244e-05
2.25752e-18
2.1244e-05
4.83026e-18
2.1244e-05
6.9532e-18
2.1244e-05
8.39506e-18
2.1244e-05
9.01536e-18
2.1244e-05
8.76005e-18
2.1244e-05
7.61918e-18
2.1244e-05
5.7558e-18
2.1244e-05
3.28352e-18
5.33177e-19
2.37439e-05
-2.07916e-18
2.37439e-05
-4.18444e-18
2.37439e-05
-5.85336e-18
2.37439e-05
-6.96244e-18
2.37439e-05
-7.37998e-18
2.37439e-05
-7.06746e-18
2.37439e-05
-6.08566e-18
2.37439e-05
-4.48645e-18
2.37439e-05
-2.48328e-18
2.37439e-05
-2.06119e-19
2.37439e-05
2.05854e-18
2.37439e-05
4.1533e-18
2.37439e-05
5.82365e-18
2.37439e-05
6.94225e-18
2.37439e-05
7.37952e-18
2.37439e-05
7.08644e-18
2.37439e-05
6.11322e-18
2.37439e-05
4.51076e-18
2.37439e-05
2.49634e-18
2.02427e-19
2.62439e-05
-1.76352e-18
2.62439e-05
-3.21274e-18
2.62439e-05
-4.36758e-18
2.62439e-05
-5.07413e-18
2.62439e-05
-5.28722e-18
2.62439e-05
-4.98183e-18
2.62439e-05
-4.1881e-18
2.62439e-05
-3.00322e-18
2.62439e-05
-1.50014e-18
2.62439e-05
1.19098e-19
2.62439e-05
1.75812e-18
2.62439e-05
3.19708e-18
2.62439e-05
4.34862e-18
2.62439e-05
5.05371e-18
2.62439e-05
5.27977e-18
2.62439e-05
4.9916e-18
2.62439e-05
4.20306e-18
2.62439e-05
3.01706e-18
2.62439e-05
1.50791e-18
-1.17905e-19
2.8744e-05
-1.39037e-18
2.8744e-05
-2.21959e-18
2.8744e-05
-2.80981e-18
2.8744e-05
-3.1468e-18
2.8744e-05
-3.15046e-18
2.8744e-05
-2.85451e-18
2.8744e-05
-2.28493e-18
2.8744e-05
-1.48607e-18
2.8744e-05
-5.62196e-19
2.8744e-05
4.42919e-19
2.8744e-05
1.38263e-18
2.8744e-05
2.22169e-18
2.8744e-05
2.80816e-18
2.8744e-05
3.13694e-18
2.8744e-05
3.14432e-18
2.8744e-05
2.8556e-18
2.8744e-05
2.29046e-18
2.8744e-05
1.48827e-18
2.8744e-05
5.59161e-19
-4.53876e-19
3.12443e-05
-1.06609e-18
3.12443e-05
-1.32608e-18
3.12443e-05
-1.48889e-18
3.12443e-05
-1.47382e-18
3.12443e-05
-1.34115e-18
3.12443e-05
-1.06144e-18
3.12443e-05
-6.87088e-19
3.12443e-05
-2.49142e-19
3.12443e-05
2.22112e-19
3.12443e-05
6.6181e-19
3.12443e-05
1.06296e-18
3.12443e-05
1.33237e-18
3.12443e-05
1.4996e-18
3.12443e-05
1.48752e-18
3.12443e-05
1.34788e-18
3.12443e-05
1.06145e-18
3.12443e-05
6.77134e-19
3.12443e-05
2.29319e-19
3.12443e-05
-2.4503e-19
-6.7342e-19
3.37448e-05
-7.61827e-19
3.37448e-05
-6.80579e-19
3.37448e-05
-5.02762e-19
3.37448e-05
-3.04572e-19
3.37448e-05
-5.59498e-20
3.37448e-05
1.71845e-19
3.37448e-05
3.90403e-19
3.37448e-05
5.71702e-19
3.37448e-05
6.98222e-19
3.37448e-05
7.72248e-19
3.37448e-05
7.53955e-19
3.37448e-05
6.8514e-19
3.37448e-05
5.23795e-19
3.37448e-05
3.32263e-19
3.37448e-05
8.14993e-20
3.37448e-05
-1.63886e-19
3.37448e-05
-4.06655e-19
3.37448e-05
-5.96701e-19
3.37448e-05
-7.25344e-19
-7.95707e-19
3.62453e-05
-5.27091e-19
3.62453e-05
-2.39965e-19
3.62453e-05
5.12843e-20
3.62453e-05
3.57231e-19
3.62453e-05
5.97472e-19
3.62453e-05
7.88055e-19
3.62453e-05
8.89197e-19
3.62453e-05
9.16324e-19
3.62453e-05
8.54805e-19
3.62453e-05
7.10418e-19
3.62453e-05
5.13948e-19
3.62453e-05
2.4839e-19
3.62453e-05
-2.26918e-20
3.62453e-05
-3.17041e-19
3.62453e-05
-5.70839e-19
3.62453e-05
-7.82268e-19
3.62453e-05
-9.06967e-19
3.62453e-05
-9.4797e-19
3.62453e-05
-8.90681e-19
-7.37698e-19
3.8746e-05
-3.0716e-19
3.8746e-05
-1.99737e-20
3.8746e-05
2.86034e-19
3.8746e-05
5.44748e-19
3.8746e-05
7.60244e-19
3.8746e-05
8.76388e-19
3.8746e-05
9.1798e-19
3.8746e-05
8.63939e-19
3.8746e-05
7.41345e-19
3.8746e-05
5.45563e-19
3.8746e-05
2.93837e-19
3.8746e-05
3.1301e-20
3.8746e-05
-2.55959e-19
3.8746e-05
-5.05369e-19
3.8746e-05
-7.29816e-19
3.8746e-05
-8.69395e-19
3.8746e-05
-9.35707e-19
3.8746e-05
-9.0149e-19
3.8746e-05
-7.74996e-19
-5.73885e-19
4.12468e-05
-1.54465e-19
4.12468e-05
6.57427e-20
4.12468e-05
2.69458e-19
4.12468e-05
4.60872e-19
4.12468e-05
5.82104e-19
4.12468e-05
6.556e-19
4.12468e-05
6.52763e-19
4.12468e-05
5.95416e-19
4.12468e-05
4.83389e-19
4.12468e-05
3.26372e-19
4.12468e-05
1.48222e-19
4.12468e-05
-6.2143e-20
4.12468e-05
-2.47525e-19
4.12468e-05
-4.22422e-19
4.12468e-05
-5.56607e-19
4.12468e-05
-6.54564e-19
4.12468e-05
-6.6963e-19
4.12468e-05
-6.29153e-19
4.12468e-05
-5.159e-19
-3.51001e-19
4.37476e-05
-4.86765e-20
4.37476e-05
5.51756e-20
4.37476e-05
1.66484e-19
4.37476e-05
2.44192e-19
4.37476e-05
3.07097e-19
4.37476e-05
3.2332e-19
4.37476e-05
3.23428e-19
4.37476e-05
2.83485e-19
4.37476e-05
2.24273e-19
4.37476e-05
1.46599e-19
4.37476e-05
4.15358e-20
4.37476e-05
-4.53025e-20
4.37476e-05
-1.44928e-19
4.37476e-05
-2.26259e-19
4.37476e-05
-2.96934e-19
4.37476e-05
-3.3088e-19
4.37476e-05
-3.36199e-19
4.37476e-05
-2.98369e-19
4.37476e-05
-2.41078e-19
-1.57019e-19
4.62486e-05
-1.09016e-20
4.62486e-05
1.98882e-20
4.62486e-05
4.80068e-20
4.62486e-05
8.23906e-20
4.62486e-05
8.55859e-20
4.62486e-05
8.88734e-20
4.62486e-05
8.03824e-20
4.62486e-05
6.82864e-20
4.62486e-05
5.13787e-20
4.62486e-05
3.11275e-20
4.62486e-05
8.08521e-21
4.62486e-05
-2.11451e-20
4.62486e-05
-4.21944e-20
4.62486e-05
-6.49569e-20
4.62486e-05
-7.93363e-20
4.62486e-05
-8.78783e-20
4.62486e-05
-8.58509e-20
4.62486e-05
-7.74485e-20
4.62486e-05
-6.19216e-20
-3.3886e-20
4.87495e-05
4.87495e-05
4.87495e-05
4.87495e-05
4.87495e-05
4.87495e-05
4.87495e-05
4.87495e-05
4.87495e-05
4.87495e-05
4.87495e-05
4.87495e-05
4.87495e-05
4.87495e-05
4.87495e-05
4.87495e-05
4.87495e-05
4.87495e-05
4.87495e-05
)
;

boundaryField
{
    movingWall
    {
        type            calculated;
        value           uniform 0;
    }
    fixedWalls
    {
        type            calculated;
        value           uniform 0;
    }
    left
    {
        type            cyclic;
        value           nonuniform List<scalar> 
20
(
-3.8746e-05
-3.62453e-05
-3.37448e-05
-3.12443e-05
-2.8744e-05
-2.62439e-05
-2.37439e-05
-2.1244e-05
-1.87443e-05
-1.62447e-05
-1.37453e-05
-1.1246e-05
-8.74678e-06
-6.24764e-06
-3.74856e-06
-1.24952e-06
-4.12468e-05
-4.37476e-05
-4.62486e-05
-4.87495e-05
)
;
    }
    right
    {
        type            cyclic;
        value           nonuniform List<scalar> 
20
(
3.8746e-05
3.62453e-05
3.37448e-05
3.12443e-05
2.8744e-05
2.62439e-05
2.37439e-05
2.1244e-05
1.87443e-05
1.62447e-05
1.37453e-05
1.1246e-05
8.74678e-06
6.24764e-06
3.74856e-06
1.24952e-06
4.12468e-05
4.37476e-05
4.62486e-05
4.87495e-05
)
;
    }
    frontAndBack
    {
        type            empty;
        value           nonuniform List<scalar> 0();
    }
}


// ************************************************************************* //
