/*--------------------------------*- C++ -*----------------------------------*\
  =========                 |
  \\      /  F ield         | OpenFOAM: The Open Source CFD Toolbox
   \\    /   O peration     | Website:  https://openfoam.org
    \\  /    A nd           | Version:  8
     \\/     M anipulation  |
\*---------------------------------------------------------------------------*/
FoamFile
{
    version     2.0;
    format      ascii;
    class       volScalarField;
    location    "49";
    object      p;
}
// * * * * * * * * * * * * * * * * * * * * * * * * * * * * * * * * * * * * * //

dimensions      [0 2 -2 0 0 0 0];

internalField   nonuniform List<scalar> 
12504
(
0.320718
0.317653
0.311209
0.301374
0.288417
0.272688
0.254572
0.234502
0.212967
0.190478
0.167542
0.144625
0.122132
0.100392
0.0796552
0.0601
0.0418449
0.0249621
0.00948836
-0.00456742
-0.0172173
-0.0284907
-0.0384292
-0.0470857
-0.0545197
-0.0607983
-0.0659906
-0.0701705
-0.0734085
-0.0757777
-0.0773413
-0.0781653
-0.0782973
-0.0777929
-0.0766777
-0.074999
-0.0727566
-0.0699995
-0.0666991
-0.0629246
-0.0586138
-0.0538865
-0.0486318
-0.0430642
-0.0369861
-0.030771
-0.0240588
-0.0174813
-0.0103789
-0.00380714
0.322923
0.319792
0.313203
0.303149
0.289912
0.273857
0.255383
0.234946
0.213052
0.190235
0.167016
0.143872
0.12121
0.0993568
0.0785531
0.0589675
0.0407094
0.0238432
0.00839987
-0.00561595
-0.0182194
-0.0294421
-0.0393272
-0.0479285
-0.0553067
-0.0615294
-0.0666668
-0.0707937
-0.0739813
-0.076304
-0.0778254
-0.0786125
-0.0787129
-0.0781829
-0.0770472
-0.0753534
-0.0730993
-0.0703342
-0.0670261
-0.0632452
-0.0589241
-0.0541859
-0.0489123
-0.0433247
-0.0372147
-0.0309699
-0.0242123
-0.0175998
-0.0104414
-0.00383895
0.32739
0.324119
0.317234
0.306735
0.292927
0.276204
0.257001
0.235812
0.213189
0.189704
0.165913
0.142313
0.119316
0.0972404
0.0763088
0.0566687
0.03841
0.0215815
0.00620254
-0.00773048
-0.0202388
-0.0313582
-0.0411348
-0.0496245
-0.0568894
-0.0629992
-0.0680255
-0.0720451
-0.0751311
-0.0773597
-0.078796
-0.0795086
-0.0795457
-0.0789644
-0.0777884
-0.0760649
-0.0737889
-0.0710082
-0.0676867
-0.0638931
-0.059554
-0.054793
-0.0494844
-0.0438538
-0.037684
-0.031373
-0.0245312
-0.0178357
-0.0105783
-0.00389197
0.334218
0.330728
0.323386
0.312198
0.297505
0.279746
0.25941
0.237056
0.213303
0.188791
0.164126
0.139838
0.116347
0.0939515
0.0728449
0.0531393
0.0348934
0.0181326
0.00285928
-0.0109425
-0.0233026
-0.0342627
-0.0438728
-0.0521915
-0.0592834
-0.0652206
-0.0700773
-0.0739332
-0.076864
-0.0789491
-0.0802559
-0.0808556
-0.0807975
-0.0801395
-0.0789043
-0.0771381
-0.0748318
-0.0720309
-0.0686924
-0.064883
-0.0605199
-0.0557269
-0.0503674
-0.0446727
-0.0384125
-0.0319998
-0.0250287
-0.0182033
-0.0107939
-0.00397291
0.343563
0.339769
0.331792
0.319646
0.303717
0.28451
0.262589
0.238605
0.213277
0.18734
0.161481
0.136273
0.112138
0.0893461
0.0680397
0.0482779
0.0300756
0.0134262
-0.00168969
-0.0153035
-0.0274557
-0.0381952
-0.0475761
-0.0556604
-0.0625154
-0.0682163
-0.0728409
-0.0764726
-0.0791912
-0.0810804
-0.0822111
-0.082658
-0.0824719
-0.0817125
-0.0804006
-0.0785815
-0.0762399
-0.0734179
-0.0700633
-0.0662393
-0.0618499
-0.0570193
-0.0515947
-0.0458155
-0.039433
-0.0328805
-0.0257299
-0.0187227
-0.0110993
-0.00408797
0.355646
0.351452
0.342637
0.329226
0.311661
0.290529
0.266499
0.240345
0.212929
0.185123
0.157722
0.131359
0.106453
0.0832199
0.0617231
0.0419444
0.02384
0.00736444
-0.00752774
-0.0208856
-0.0327619
-0.0432123
-0.0522953
-0.0600759
-0.0666243
-0.0720196
-0.0763437
-0.0796853
-0.0821295
-0.0837659
-0.0846702
-0.0849221
-0.0845746
-0.0836896
-0.0822859
-0.0804074
-0.078031
-0.0751932
-0.0718296
-0.0679986
-0.0635866
-0.0587173
-0.0532165
-0.0473334
-0.040795
-0.0340608
-0.0266735
-0.0194239
-0.0115127
-0.00424488
0.370756
0.36605
0.356166
0.341132
0.321462
0.297844
0.271077
0.242109
0.211996
0.181804
0.152481
0.124735
0.0989665
0.0752974
0.0536688
0.0339536
0.0160334
-0.000182289
-0.0147664
-0.0277871
-0.0393087
-0.0493932
-0.0581017
-0.0655014
-0.0716656
-0.0766777
-0.0806248
-0.0836024
-0.0857026
-0.0870228
-0.0876454
-0.0876569
-0.0871133
-0.0860798
-0.0845724
-0.0826336
-0.0802304
-0.0773906
-0.0740346
-0.0702137
-0.0657912
-0.0608889
-0.0553053
-0.0493003
-0.0425702
-0.0356069
-0.0279157
-0.0203506
-0.0120614
-0.00445441
0.389261
0.383913
0.372692
0.355617
0.333283
0.306498
0.276227
0.243649
0.210094
0.176902
0.145239
0.115904
0.0892416
0.0652174
0.043585
0.0240677
0.00645746
-0.0093826
-0.0235526
-0.0361386
-0.0472147
-0.056846
-0.0650934
-0.072025
-0.0777166
-0.0822566
-0.0857387
-0.0882671
-0.0899431
-0.0908746
-0.091153
-0.0908737
-0.0900975
-0.0888939
-0.0872756
-0.085283
-0.0828723
-0.0800564
-0.0767381
-0.0729572
-0.0685485
-0.0636287
-0.0579621
-0.0518193
-0.0448592
-0.0376113
-0.0295362
-0.0215643
-0.0127847
-0.00473108
0.411623
0.40548
0.39261
0.372996
0.347328
0.316535
0.281796
0.244603
0.206662
0.16972
0.135257
0.104174
0.0766955
0.0525155
0.0311042
0.0119875
-0.0051395
-0.0204537
-0.0340779
-0.0461135
-0.0566393
-0.0657173
-0.0734042
-0.0797665
-0.0848822
-0.0888455
-0.0917583
-0.0937361
-0.0948925
-0.0953496
-0.0952108
-0.0945839
-0.093536
-0.0921427
-0.0904124
-0.0883809
-0.0859854
-0.0832486
-0.0800163
-0.0763227
-0.0719689
-0.06706
-0.0613196
-0.0550258
-0.0477956
-0.0401967
-0.0316423
-0.0231477
-0.0137367
-0.00509298
0.438408
0.431294
0.416417
0.39367
0.363851
0.327994
0.287552
0.244435
0.20088
0.159243
0.121471
0.088582
0.0605456
0.036595
0.0157686
-0.00265709
-0.0190714
-0.0336703
-0.0465894
-0.0579388
-0.0677928
-0.0762015
-0.0832108
-0.0888834
-0.0932988
-0.0965581
-0.0987738
-0.100077
-0.100597
-0.100475
-0.0998316
-0.0987902
-0.097427
-0.0958264
-0.0939912
-0.0919539
-0.0896352
-0.0870316
-0.0839539
-0.0804176
-0.0761812
-0.0713282
-0.0655366
-0.059083
-0.051542
-0.0435133
-0.0343675
-0.0252029
-0.0149871
-0.00555997
0.470306
0.46202
0.444727
0.418138
0.383173
0.340891
0.293118
0.242325
0.191521
0.143993
0.102373
0.0677902
0.0397411
0.0166822
-0.00299998
-0.0203251
-0.0357229
-0.0493683
-0.0613913
-0.0718966
-0.0809377
-0.0885389
-0.0947288
-0.0995636
-0.103124
-0.105521
-0.106879
-0.107352
-0.10709
-0.10626
-0.105004
-0.103467
-0.101738
-0.0999117
-0.0979855
-0.09599
-0.0938152
-0.0914305
-0.0886075
-0.0853282
-0.0812985
-0.0765676
-0.0707658
-0.0641515
-0.0562642
-0.0477158
-0.0378553
-0.0278395
-0.0166143
-0.00614924
0.508142
0.498467
0.478306
0.44704
0.405715
0.355215
0.297905
0.236961
0.176641
0.121738
0.0758174
0.0400149
0.0129533
-0.00817677
-0.025913
-0.041575
-0.055546
-0.0679266
-0.0788175
-0.0882903
-0.0963486
-0.102973
-0.108167
-0.111979
-0.114491
-0.115825
-0.116127
-0.115576
-0.114353
-0.112655
-0.110655
-0.108523
-0.106369
-0.104293
-0.102293
-0.100394
-0.0984555
-0.0963826
-0.0939367
-0.0910401
-0.0873348
-0.0828173
-0.0770721
-0.0703129
-0.0620613
-0.0529043
-0.0422107
-0.0311392
-0.0186866
-0.00686744
0.552888
0.541611
0.518091
0.481201
0.432034
0.370931
0.301038
0.226278
0.153052
0.088858
0.0385768
0.00289642
-0.0213281
-0.038956
-0.0536797
-0.0669543
-0.0789516
-0.0896516
-0.099104
-0.107304
-0.114165
-0.1196
-0.123581
-0.126144
-0.127376
-0.127413
-0.126426
-0.124629
-0.122239
-0.119492
-0.116594
-0.113752
-0.111102
-0.108747
-0.106681
-0.104928
-0.103281
-0.101638
-0.0997051
-0.0973286
-0.0940832
-0.0898933
-0.0843013
-0.0774422
-0.0688458
-0.0590182
-0.0474126
-0.0350918
-0.0212211
-0.00770017
0.605651
0.592613
0.565224
0.521705
0.462855
0.387977
0.301236
0.2072
0.115761
0.0393828
-0.0146365
-0.0469853
-0.0647469
-0.0763159
-0.0865776
-0.0965556
-0.10589
-0.114389
-0.122021
-0.128647
-0.13404
-0.138034
-0.140558
-0.141637
-0.141356
-0.139869
-0.137375
-0.134126
-0.130383
-0.126419
-0.122479
-0.118812
-0.115586
-0.112915
-0.110784
-0.109156
-0.107848
-0.106728
-0.105411
-0.103668
-0.10101
-0.0972701
-0.091952
-0.085078
-0.0762147
-0.0657195
-0.0532081
-0.0395146
-0.0241299
-0.00860161
0.667658
0.652834
0.621098
0.569987
0.499046
0.406127
0.296182
0.174569
0.057617
-0.0352476
-0.0916794
-0.114442
-0.11895
-0.120105
-0.123648
-0.129035
-0.134858
-0.140613
-0.146061
-0.150823
-0.154505
-0.156856
-0.157763
-0.157223
-0.155314
-0.152206
-0.148124
-0.143343
-0.138178
-0.132926
-0.127882
-0.123331
-0.119432
-0.116357
-0.114084
-0.112581
-0.111629
-0.111036
-0.110359
-0.109299
-0.107308
-0.104118
-0.099194
-0.092426
-0.0834326
-0.072368
-0.0590734
-0.0440199
-0.0271863
-0.00949205
0.740204
0.723805
0.687506
0.628044
0.541741
0.424744
0.281069
0.117337
-0.0322537
-0.144178
-0.199084
-0.202359
-0.183453
-0.167841
-0.161185
-0.160041
-0.161423
-0.164146
-0.167385
-0.170339
-0.172412
-0.173267
-0.172747
-0.17081
-0.167492
-0.16298
-0.157536
-0.151434
-0.144976
-0.138551
-0.132477
-0.127061
-0.122505
-0.118984
-0.116502
-0.115025
-0.11431
-0.114124
-0.113993
-0.113557
-0.112216
-0.109605
-0.105147
-0.0986046
-0.0896387
-0.0781885
-0.0643322
-0.048099
-0.0300634
-0.0102725
0.824529
0.807129
0.76689
0.698892
0.593268
0.442975
0.247378
0.015915
-0.176114
-0.295408
-0.332244
-0.301267
-0.248884
-0.211216
-0.191494
-0.182497
-0.179428
-0.179762
-0.181585
-0.183506
-0.184703
-0.184753
-0.183451
-0.180734
-0.1766
-0.171214
-0.164876
-0.157869
-0.150525
-0.143232
-0.136348
-0.130207
-0.12505
-0.121066
-0.118284
-0.116681
-0.116014
-0.116032
-0.116248
-0.116246
-0.115404
-0.113281
-0.109261
-0.102999
-0.0941718
-0.0825485
-0.0683808
-0.0512899
-0.0324311
-0.0108455
0.921454
0.904231
0.862468
0.787272
0.659567
0.463007
0.181432
-0.144394
-0.331207
-0.441376
-0.442027
-0.373085
-0.290088
-0.236168
-0.20886
-0.195245
-0.189684
-0.188632
-0.189522
-0.190758
-0.191477
-0.191197
-0.189644
-0.186702
-0.182379
-0.176786
-0.170141
-0.162757
-0.154991
-0.147231
-0.139852
-0.133207
-0.127569
-0.123141
-0.119987
-0.118102
-0.117253
-0.117205
-0.117486
-0.117638
-0.11703
-0.115171
-0.111431
-0.105395
-0.0967233
-0.0850978
-0.0708283
-0.0532806
-0.034016
-0.0111164
1.03066
1.01584
0.977592
0.899768
0.753092
0.497719
0.161893
-0.233472
-0.525074
-0.609607
-0.569964
-0.4316
-0.315234
-0.249873
-0.210097
-0.195862
-0.190895
-0.190439
-0.191729
-0.193228
-0.194152
-0.194066
-0.192713
-0.189976
-0.185851
-0.180447
-0.173924
-0.166597
-0.158821
-0.15097
-0.143414
-0.136509
-0.13054
-0.125724
-0.122153
-0.119816
-0.118589
-0.118189
-0.118195
-0.118146
-0.117437
-0.115528
-0.111806
-0.105829
-0.0972384
-0.0857012
-0.0714791
-0.0538902
-0.0345964
-0.0109887
1.14978
1.14112
1.11361
1.04427
0.891572
0.606542
0.172976
-0.281066
-0.615709
-0.325511
-0.251447
-0.214682
-0.195957
-0.191576
-0.191088
-0.192322
-0.193805
-0.194794
-0.194872
-0.193781
-0.191391
-0.187671
-0.182694
-0.17666
-0.169738
-0.162311
-0.154709
-0.147281
-0.140362
-0.134228
-0.129106
-0.12511
-0.12225
-0.12042
-0.119387
-0.118777
-0.118147
-0.116932
-0.114602
-0.110581
-0.104427
-0.0957798
-0.0843398
-0.070277
-0.0530244
-0.0340191
-0.0104012
1.27385
1.27608
1.26728
1.22807
1.07987
0.767532
0.281424
-0.245493
-0.211996
-0.19608
-0.18958
-0.189479
-0.190813
-0.192396
-0.193568
-0.193937
-0.193255
-0.191384
-0.188278
-0.183987
-0.178632
-0.172455
-0.165686
-0.158629
-0.151598
-0.144879
-0.138754
-0.133418
-0.128997
-0.125523
-0.122917
-0.120993
-0.119434
-0.117846
-0.115734
-0.112605
-0.107941
-0.101334
-0.0924939
-0.0810989
-0.0672987
-0.0506881
-0.0322933
-0.00937372
1.39531
1.41155
1.43313
1.43905
1.32056
1.01531
-0.208446
-0.191074
-0.185115
-0.185733
-0.187455
-0.18939
-0.19095
-0.191782
-0.191664
-0.190465
-0.188139
-0.184722
-0.180285
-0.175041
-0.169161
-0.162885
-0.156466
-0.15016
-0.144187
-0.138725
-0.133891
-0.12973
-0.126193
-0.12314
-0.120326
-0.117428
-0.114042
-0.109748
-0.104116
-0.0967965
-0.0875079
-0.0762083
-0.0628009
-0.0470205
-0.0296637
-0.00796164
1.50278
1.53514
1.5917
1.65279
1.58557
1.35071
-0.183123
-0.179039
-0.180608
-0.183022
-0.185534
-0.187641
-0.189056
-0.189601
-0.189174
-0.18773
-0.185288
-0.18194
-0.177781
-0.172958
-0.167644
-0.162022
-0.156279
-0.15058
-0.145065
-0.139832
-0.134922
-0.130317
-0.125928
-0.121588
-0.117067
-0.112073
-0.106295
-0.0994187
-0.0911892
-0.0814196
-0.0700359
-0.0570763
-0.0424415
-0.0261
-0.00671861
1.58407
1.63052
1.71975
1.83456
1.83769
1.72108
-0.177677
-0.172751
-0.175452
-0.17866
-0.181795
-0.184465
-0.186472
-0.18768
-0.188034
-0.187512
-0.186123
-0.183909
-0.180933
-0.177279
-0.17305
-0.16835
-0.163279
-0.157942
-0.15243
-0.146802
-0.141093
-0.135307
-0.12941
-0.123323
-0.116926
-0.110062
-0.102553
-0.0942248
-0.084935
-0.0745863
-0.0631445
-0.05066
-0.0371434
-0.022099
-0.00536234
1.62808
1.68281
1.7917
1.93799
2.01515
-0.1636
-0.168459
-0.171867
-0.175566
-0.179105
-0.182174
-0.184636
-0.186432
-0.187516
-0.187876
-0.187512
-0.186441
-0.184678
-0.182243
-0.179159
-0.175444
-0.171113
-0.166178
-0.160697
-0.154672
-0.148123
-0.141076
-0.133552
-0.125566
-0.117124
-0.108215
-0.0988203
-0.0889124
-0.0784695
-0.0674755
-0.0559361
-0.0439317
-0.0314731
-0.0179494
-0.00396028
1.62834
1.68309
1.79201
1.93836
2.05209
-0.158913
-0.167405
-0.170785
-0.174462
-0.178029
-0.181224
-0.183948
-0.186161
-0.187848
-0.188999
-0.1896
-0.18963
-0.189054
-0.187824
-0.185879
-0.183149
-0.17956
-0.175038
-0.169592
-0.163157
-0.155742
-0.147392
-0.138186
-0.128238
-0.11768
-0.106659
-0.0953182
-0.0837827
-0.0721502
-0.0604803
-0.0488094
-0.0372304
-0.0257774
-0.0139591
-0.00265649
1.58484
1.63134
1.72066
1.83566
1.94216
-0.163276
-0.169534
-0.172161
-0.175304
-0.178531
-0.181578
-0.184358
-0.186836
-0.189002
-0.190838
-0.192313
-0.193366
-0.193906
-0.193815
-0.192951
-0.191154
-0.188262
-0.184114
-0.178679
-0.171813
-0.163523
-0.153875
-0.143007
-0.131125
-0.118491
-0.1054
-0.0921524
-0.0790211
-0.0662187
-0.0538819
-0.0420756
-0.0308876
-0.0203959
-0.0103705
-0.00152287
1.50404
1.53647
1.59318
1.65454
1.71206
1.64558
-0.173332
-0.173611
-0.175023
-0.177332
-0.180013
-0.182764
-0.185479
-0.188123
-0.190676
-0.19311
-0.195368
-0.197346
-0.198902
-0.199848
-0.199962
-0.199003
-0.196726
-0.192914
-0.187401
-0.180076
-0.170923
-0.160028
-0.147587
-0.133895
-0.119331
-0.104325
-0.0893157
-0.0747081
-0.0608215
-0.0478726
-0.035962
-0.0251741
-0.0156078
-0.00731579
-0.000518001
1.39701
1.41334
1.43509
1.44133
1.44737
1.28686
-0.180186
-0.177472
-0.177798
-0.179364
-0.181554
-0.184037
-0.186697
-0.189494
-0.192403
-0.195379
-0.198342
-0.201146
-0.2036
-0.20545
-0.206405
-0.206146
-0.204359
-0.200787
-0.195125
-0.187321
-0.17734
-0.165296
-0.151439
-0.136148
-0.1199
-0.103241
-0.0867197
-0.0708525
-0.0560464
-0.0425945
-0.0306393
-0.0202801
-0.0115916
-0.00483118
0.000656194
1.27595
1.27826
1.26965
1.23078
1.19203
0.879946
0.542661
-0.196687
-0.185957
-0.179855
-0.179271
-0.180378
-0.182303
-0.184684
-0.187402
-0.190416
-0.193698
-0.19719
-0.200798
-0.204323
-0.207537
-0.210132
-0.211752
-0.212016
-0.210551
-0.207051
-0.201212
-0.192926
-0.182183
-0.169131
-0.154077
-0.137471
-0.119875
-0.101919
-0.0842378
-0.0674237
-0.0519476
-0.0381639
-0.0262527
-0.0163428
-0.00845866
-0.00288417
0.0006692
1.15221
1.14364
1.11632
1.04731
0.895131
0.674844
0.188572
-0.20627
-0.239439
-0.205661
-0.185402
-0.180129
-0.178927
-0.17986
-0.18178
-0.184268
-0.187196
-0.190522
-0.194217
-0.198211
-0.202376
-0.206502
-0.210312
-0.213454
-0.215525
-0.216096
-0.214769
-0.211198
-0.205096
-0.19633
-0.184917
-0.171046
-0.155073
-0.137511
-0.118978
-0.100166
-0.0817557
-0.0643862
-0.0485625
-0.0346737
-0.022927
-0.0134654
-0.00629612
-0.00163958
0.000809034
1.03336
1.01862
0.980557
0.903036
0.756839
0.502138
0.164817
-0.314603
-0.551013
-0.438895
-0.30928
-0.245605
-0.199482
-0.184445
-0.178301
-0.176954
-0.177931
-0.180012
-0.182746
-0.185989
-0.189688
-0.193799
-0.198237
-0.20285
-0.207406
-0.211598
-0.215046
-0.217306
-0.217939
-0.216542
-0.212751
-0.206305
-0.197083
-0.185133
-0.170686
-0.154137
-0.136042
-0.117051
-0.0978817
-0.07923
-0.0617427
-0.0459355
-0.0321947
-0.0207532
-0.011722
-0.00514179
-0.00107468
0.000757916
0.924369
0.907219
0.865622
0.790695
0.663404
0.46743
0.186669
-0.137983
-0.419651
-0.546519
-0.504073
-0.393101
-0.279319
-0.225634
-0.198074
-0.18349
-0.176679
-0.174752
-0.175471
-0.177546
-0.180434
-0.183929
-0.187934
-0.192366
-0.19711
-0.201986
-0.206738
-0.21104
-0.2145
-0.216672
-0.217124
-0.215451
-0.21132
-0.204496
-0.194898
-0.182611
-0.1679
-0.151187
-0.133043
-0.11412
-0.0951246
-0.0767379
-0.0595739
-0.0441432
-0.030788
-0.0197768
-0.0111351
-0.00498748
-0.00117009
0.000449836
0.827608
0.810274
0.770177
0.702411
0.597129
0.447318
0.252354
0.0217502
-0.169276
-0.287473
-0.323327
-0.291686
-0.239004
-0.20124
-0.181133
-0.171284
-0.167212
-0.166929
-0.168889
-0.171988
-0.175694
-0.179828
-0.184326
-0.189123
-0.194108
-0.199101
-0.203851
-0.208028
-0.211224
-0.213044
-0.213127
-0.211079
-0.206585
-0.199464
-0.189683
-0.177363
-0.162789
-0.14639
-0.12872
-0.110409
-0.0921093
-0.0744656
-0.0580215
-0.043276
-0.0304909
-0.0199828
-0.0116578
-0.00575326
-0.00186284
-8.00251e-05
0.743403
0.727061
0.69088
0.631613
0.545586
0.42897
0.285779
0.122654
-0.0262307
-0.13736
-0.191497
-0.194181
-0.174921
-0.159076
-0.152058
-0.150339
-0.151142
-0.15366
-0.157403
-0.161844
-0.16664
-0.171663
-0.176862
-0.182175
-0.187487
-0.192624
-0.197349
-0.201359
-0.204269
-0.205711
-0.205424
-0.20307
-0.198376
-0.191213
-0.18159
-0.169654
-0.155694
-0.140124
-0.123451
-0.106255
-0.0891087
-0.0726034
-0.0571883
-0.0433463
-0.0312445
-0.0212454
-0.0131403
-0.00727182
-0.00303156
-0.000747285
0.670939
0.656161
0.624523
0.573571
0.502849
0.410224
0.300643
0.179469
0.0630253
-0.0292847
-0.0851822
-0.107513
-0.111733
-0.112697
-0.116048
-0.121214
-0.126912
-0.132893
-0.139194
-0.145675
-0.152147
-0.158514
-0.164744
-0.170795
-0.176579
-0.181953
-0.186715
-0.190621
-0.193373
-0.194662
-0.194155
-0.191711
-0.18712
-0.180282
-0.17123
-0.160125
-0.147236
-0.132945
-0.117692
-0.101993
-0.0863228
-0.0712143
-0.057016
-0.0441873
-0.0328105
-0.0232751
-0.0152943
-0.00927786
-0.00449824
-0.00145144
0.608981
0.59598
0.56867
0.525276
0.466599
0.391942
0.305471
0.211752
0.120665
0.0446557
-0.00901881
-0.0410924
-0.0586785
-0.0701714
-0.080431
-0.0904801
-0.100042
-0.1091
-0.117831
-0.126283
-0.134384
-0.142078
-0.149344
-0.156157
-0.162455
-0.168123
-0.17301
-0.176911
-0.179648
-0.181038
-0.180591
-0.178323
-0.174115
-0.167912
-0.15975
-0.14979
-0.138265
-0.125515
-0.111902
-0.0978764
-0.0838161
-0.0701901
-0.0572594
-0.0454484
-0.0347811
-0.0256433
-0.0177216
-0.0114382
-0.00604555
-0.0021031
0.55624
0.544992
0.521535
0.484742
0.435705
0.374767
0.305068
0.230527
0.157533
0.0935676
0.0434858
0.00794436
-0.0162282
-0.0339069
-0.0487884
-0.0623454
-0.0748131
-0.0862923
-0.0969813
-0.107014
-0.116413
-0.125168
-0.133273
-0.140715
-0.147451
-0.153397
-0.15844
-0.162425
-0.165202
-0.166591
-0.166507
-0.164626
-0.160966
-0.155544
-0.148402
-0.139684
-0.129586
-0.118404
-0.106425
-0.0940373
-0.0815337
-0.06932
-0.0575905
-0.0467229
-0.0367121
-0.0279109
-0.0200248
-0.0134393
-0.00746795
-0.00264189
0.511496
0.501843
0.481729
0.450535
0.409306
0.358922
0.301745
0.240941
0.18076
0.125979
0.0801426
0.0443641
0.0172424
-0.00405191
-0.0220737
-0.0381687
-0.0527714
-0.0660667
-0.0782582
-0.0895156
-0.0999196
-0.109497
-0.118257
-0.126198
-0.133291
-0.139481
-0.144681
-0.148787
-0.151674
-0.15324
-0.15338
-0.15193
-0.148858
-0.144212
-0.138047
-0.130493
-0.121708
-0.111946
-0.101437
-0.0905071
-0.0793859
-0.0684179
-0.0577517
-0.0477118
-0.0382858
-0.029776
-0.0219327
-0.0150788
-0.00863188
-0.00304685
0.473645
0.465376
0.448117
0.421578
0.386679
0.344473
0.296781
0.246066
0.195325
0.147834
0.106207
0.0715537
0.0433495
0.0200304
-3.9009e-05
-0.017906
-0.0340422
-0.0486822
-0.0620273
-0.0742497
-0.0854541
-0.0956909
-0.104981
-0.113333
-0.12073
-0.127139
-0.132497
-0.136733
-0.139759
-0.141502
-0.14189
-0.140841
-0.138311
-0.134359
-0.129045
-0.12249
-0.114822
-0.10626
-0.0969875
-0.0872799
-0.0773204
-0.0673982
-0.0576318
-0.0482934
-0.0393744
-0.0311239
-0.0233432
-0.0162911
-0.00949472
-0.00332905
0.441721
0.434619
0.419763
0.397049
0.367269
0.331455
0.29105
0.24796
0.204409
0.16274
0.124887
0.0918498
0.0635791
0.0392883
0.0179939
-0.00105367
-0.0182776
-0.0339172
-0.0481572
-0.061153
-0.0730112
-0.0837929
-0.0935286
-0.102233
-0.109902
-0.116516
-0.122034
-0.126411
-0.129587
-0.131513
-0.132145
-0.131443
-0.129384
-0.12602
-0.121414
-0.115677
-0.108921
-0.101333
-0.0930645
-0.0843486
-0.0753348
-0.0662661
-0.0572404
-0.0484851
-0.0399971
-0.0319812
-0.0242817
-0.0171088
-0.0100799
-0.00351383
0.414903
0.408767
0.395908
0.376311
0.35066
0.31988
0.285144
0.247935
0.209949
0.172919
0.138314
0.10702
0.0792416
0.0546559
0.0327127
0.0129146
-0.0050703
-0.0214509
-0.0363836
-0.0499991
-0.0623943
-0.0736321
-0.0837479
-0.0927622
-0.100678
-0.107489
-0.11317
-0.117694
-0.121024
-0.123133
-0.123987
-0.123581
-0.121919
-0.119044
-0.115015
-0.109938
-0.103913
-0.0971024
-0.0896361
-0.081712
-0.0734561
-0.065074
-0.0566489
-0.0483729
-0.0402465
-0.0324433
-0.0248367
-0.0176099
-0.0104417
-0.00362756
0.392503
0.387157
0.375939
0.358867
0.336532
0.309735
0.279437
0.246808
0.213167
0.179843
0.14799
0.11839
0.0913748
0.0668922
0.0446775
0.0244345
0.0059331
-0.0109867
-0.0264476
-0.0405536
-0.0533865
-0.0650049
-0.0754452
-0.0847308
-0.0928707
-0.0998661
-0.105706
-0.110376
-0.113857
-0.116136
-0.117195
-0.117049
-0.115715
-0.113241
-0.109679
-0.105131
-0.0996891
-0.0934967
-0.0866668
-0.0793714
-0.0717182
-0.0638852
-0.055943
-0.0480589
-0.0402329
-0.0326208
-0.0251113
-0.01788
-0.0106402
-0.00369226
0.373959
0.369251
0.359363
0.34432
0.324633
0.300983
0.274165
0.245116
0.214884
0.184523
0.154969
0.126917
0.100752
0.0765827
0.0543325
0.0338582
0.0150241
-0.0022771
-0.0181329
-0.0326209
-0.045806
-0.0577384
-0.0684525
-0.0779725
-0.086311
-0.0934755
-0.0994636
-0.104273
-0.107894
-0.110329
-0.111575
-0.111653
-0.11059
-0.108441
-0.105256
-0.101132
-0.0961541
-0.0904514
-0.084125
-0.0773269
-0.0701513
-0.0627553
-0.0551993
-0.0476339
-0.0400555
-0.0326123
-0.0251979
-0.0179942
-0.0107284
-0.00372457
0.358811
0.354612
0.345787
0.332356
0.31476
0.293581
0.269478
0.24322
0.215658
0.187653
0.15999
0.133286
0.10795
0.0841833
0.0620345
0.0414718
0.0224381
0.00487576
-0.0112692
-0.0260495
-0.0395128
-0.0516996
-0.0626403
-0.0723583
-0.0808683
-0.0881821
-0.0943038
-0.0992388
-0.102988
-0.105562
-0.106969
-0.107237
-0.106399
-0.104512
-0.10163
-0.0978433
-0.0932318
-0.0879152
-0.0819848
-0.075578
-0.0687783
-0.061728
-0.0544783
-0.0471699
-0.0397934
-0.032496
-0.0251704
-0.0180115
-0.0107481
-0.00373648
0.346692
0.342892
0.334898
0.322726
0.306755
0.287486
0.265477
0.241369
0.215873
0.189715
0.163567
0.137992
0.113401
0.090049
0.0680675
0.0475034
0.0283613
0.0106265
-0.00572517
-0.020724
-0.0344019
-0.0467898
-0.057913
-0.0677934
-0.0764467
-0.0838873
-0.0901242
-0.0951686
-0.0990287
-0.101722
-0.103264
-0.103688
-0.103033
-0.101356
-0.0987126
-0.0951901
-0.0908651
-0.085849
-0.0802262
-0.0741235
-0.0676156
-0.060835
-0.053825
-0.0467202
-0.0395055
-0.0323305
-0.0250837
-0.0179754
-0.01073
-0.0037365
0.337317
0.333818
0.326456
0.315235
0.300492
0.28266
0.262224
0.239731
0.215794
0.191041
0.166068
0.141394
0.117425
0.0944507
0.0726519
0.0521308
0.0329385
0.0150944
-0.00140024
-0.0165573
-0.0303954
-0.0429366
-0.0542014
-0.0642097
-0.0729775
-0.0805208
-0.086852
-0.0919864
-0.0959377
-0.0987277
-0.100379
-0.100927
-0.100414
-0.0988997
-0.0964402
-0.0931199
-0.0890127
-0.0842245
-0.0788345
-0.0729618
-0.0666748
-0.060099
-0.0532714
-0.0463232
-0.0392343
-0.0321575
-0.0249768
-0.017917
-0.0106956
-0.00373059
0.330465
0.327184
0.320276
0.309739
0.295874
0.279071
0.259757
0.23842
0.2156
0.191862
0.167748
0.143747
0.120259
0.0975894
0.0759534
0.055489
0.0362795
0.0183701
0.00178112
-0.013485
-0.0274363
-0.0400879
-0.0514561
-0.061559
-0.0704124
-0.0780333
-0.0844364
-0.0896398
-0.0936607
-0.0965244
-0.0982571
-0.0988985
-0.0984908
-0.0970952
-0.0947693
-0.0915955
-0.0876456
-0.0830217
-0.077799
-0.0720917
-0.0659635
-0.0595353
-0.0528395
-0.0460055
-0.0390088
-0.032006
-0.0248768
-0.0178574
-0.0106595
-0.00372285
0.325982
0.32284
0.316226
0.306131
0.292833
0.276692
0.258102
0.237508
0.21541
0.192331
0.16878
0.145225
0.122063
0.0996069
0.0780911
0.0576755
0.0384641
0.020519
0.00387325
-0.0114609
-0.0254844
-0.0382073
-0.0496432
-0.0598084
-0.0687187
-0.0763916
-0.082843
-0.088093
-0.0921609
-0.0950742
-0.0968615
-0.0975644
-0.0972263
-0.0959089
-0.0936702
-0.0905918
-0.0867441
-0.0822267
-0.0771124
-0.0715122
-0.0654868
-0.0591543
-0.0525442
-0.0457847
-0.0388488
-0.0318953
-0.0248013
-0.0178105
-0.0106311
-0.00371558
0.323768
0.320692
0.314222
0.304345
0.291325
0.275508
0.257271
0.237042
0.215298
0.192543
0.169271
0.145938
0.122939
0.100593
0.0791404
0.0587524
0.0395429
0.0215822
0.00490995
-0.0104568
-0.0245153
-0.0372732
-0.0487425
-0.0589386
-0.0678773
-0.0755761
-0.0820519
-0.0873252
-0.0914168
-0.094355
-0.0961696
-0.0969032
-0.0965997
-0.095321
-0.0931254
-0.0900939
-0.0862966
-0.0818314
-0.0767705
-0.0712227
-0.065248
-0.0589623
-0.0523947
-0.0456715
-0.0387665
-0.0318366
-0.024762
-0.0177838
-0.0106174
-0.00370882
0.320717
0.317656
0.311212
0.301375
0.288417
0.272689
0.254572
0.234502
0.212966
0.190477
0.167541
0.144624
0.122131
0.100391
0.0796547
0.0600996
0.0418446
0.0249619
0.00948816
-0.00456758
-0.0172175
-0.0284908
-0.0384293
-0.0470858
-0.0545198
-0.0607983
-0.0659906
-0.0701705
-0.0734084
-0.0757777
-0.0773412
-0.0781653
-0.0782972
-0.077793
-0.0766776
-0.0749992
-0.0727564
-0.0699998
-0.0666988
-0.0629253
-0.0586132
-0.0538876
-0.0486307
-0.0430661
-0.0369839
-0.0307742
-0.0240547
-0.017487
-0.0103708
-0.00381731
0.322922
0.319795
0.313205
0.303149
0.289912
0.273857
0.255383
0.234945
0.213051
0.190234
0.167015
0.143871
0.12121
0.0993561
0.0785525
0.0589671
0.0407091
0.023843
0.00839965
-0.00561613
-0.0182196
-0.0294422
-0.0393273
-0.0479286
-0.0553067
-0.0615294
-0.0666668
-0.0707937
-0.0739813
-0.076304
-0.0778253
-0.0786125
-0.0787128
-0.0781829
-0.0770471
-0.0753536
-0.0730992
-0.0703345
-0.0670259
-0.0632459
-0.0589236
-0.054187
-0.0489112
-0.0433266
-0.0372126
-0.030973
-0.0242083
-0.0176054
-0.0104334
-0.00384905
0.327389
0.324122
0.317236
0.306735
0.292927
0.276204
0.257
0.235811
0.213187
0.189703
0.165912
0.142312
0.119315
0.0972397
0.0763083
0.0566684
0.0384097
0.0215812
0.00620232
-0.00773067
-0.020239
-0.0313584
-0.0411349
-0.0496246
-0.0568895
-0.0629992
-0.0680255
-0.0720452
-0.0751311
-0.0773597
-0.0787959
-0.0795086
-0.0795457
-0.0789644
-0.0777883
-0.0760651
-0.0737887
-0.0710086
-0.0676865
-0.0638938
-0.0595535
-0.0547941
-0.0494833
-0.0438557
-0.0376819
-0.0313762
-0.0245271
-0.0178414
-0.0105703
-0.00390217
0.334217
0.330731
0.323388
0.312199
0.297505
0.279746
0.25941
0.237055
0.213302
0.188789
0.164124
0.139837
0.116346
0.0939508
0.0728445
0.053139
0.0348932
0.0181324
0.00285905
-0.0109427
-0.0233028
-0.0342629
-0.0438729
-0.0521916
-0.0592835
-0.0652207
-0.0700773
-0.0739332
-0.076864
-0.0789491
-0.0802558
-0.0808556
-0.0807974
-0.0801395
-0.0789041
-0.0771383
-0.0748316
-0.0720313
-0.0686922
-0.0648837
-0.0605194
-0.0557282
-0.0503663
-0.0446747
-0.0384104
-0.0320031
-0.0250245
-0.0182092
-0.0107856
-0.00398334
0.343562
0.339773
0.331795
0.319646
0.303717
0.28451
0.262589
0.238604
0.213275
0.187338
0.161479
0.136271
0.112137
0.0893455
0.0680394
0.0482777
0.0300753
0.0134259
-0.00168993
-0.0153037
-0.0274559
-0.0381954
-0.0475763
-0.0556605
-0.0625155
-0.0682164
-0.0728409
-0.0764726
-0.0791912
-0.0810804
-0.082211
-0.082658
-0.0824718
-0.0817125
-0.0804004
-0.0785817
-0.0762397
-0.0734184
-0.0700631
-0.0662401
-0.0618494
-0.0570206
-0.0515936
-0.0458176
-0.0394308
-0.032884
-0.0257256
-0.0187289
-0.0110906
-0.00409876
0.355645
0.351456
0.34264
0.329226
0.311661
0.290529
0.266498
0.240343
0.212926
0.18512
0.157719
0.131357
0.106452
0.0832195
0.0617229
0.0419442
0.0238398
0.00736413
-0.00752803
-0.0208859
-0.0327621
-0.0432126
-0.0522956
-0.0600761
-0.0666244
-0.0720197
-0.0763437
-0.0796853
-0.0821295
-0.0837659
-0.0846701
-0.0849221
-0.0845745
-0.0836897
-0.0822857
-0.0804076
-0.0780308
-0.0751937
-0.0718293
-0.0679995
-0.0635861
-0.0587187
-0.0532154
-0.0473357
-0.0407926
-0.0340646
-0.026669
-0.0194304
-0.0115035
-0.00425615
0.370755
0.366055
0.35617
0.341133
0.321462
0.297844
0.271076
0.242106
0.211992
0.181799
0.152477
0.124733
0.0989654
0.0752973
0.053669
0.0339536
0.0160331
-0.000182663
-0.0147668
-0.0277874
-0.039309
-0.0493935
-0.058102
-0.0655016
-0.0716658
-0.0766778
-0.0806248
-0.0836025
-0.0857026
-0.0870228
-0.0876453
-0.0876568
-0.0871131
-0.0860798
-0.0845722
-0.0826338
-0.08023
-0.0773912
-0.0740344
-0.0702147
-0.0657907
-0.0608905
-0.0553041
-0.0493028
-0.0425677
-0.035611
-0.0279109
-0.0203575
-0.0120516
-0.00446633
0.38926
0.383919
0.372696
0.355618
0.333284
0.306498
0.276225
0.243646
0.210088
0.176896
0.145234
0.1159
0.0892407
0.065218
0.0435858
0.0240679
0.00645713
-0.00938304
-0.0235529
-0.0361389
-0.0472151
-0.0568463
-0.0650937
-0.0720252
-0.0777167
-0.0822567
-0.0857387
-0.0882671
-0.0899429
-0.0908744
-0.0911527
-0.0908736
-0.0900972
-0.0888938
-0.0872753
-0.0852831
-0.0828717
-0.0800568
-0.0767376
-0.0729581
-0.0685478
-0.0636303
-0.0579607
-0.0518219
-0.0448565
-0.0376156
-0.0295309
-0.0215718
-0.012774
-0.00474383
0.411621
0.405487
0.392615
0.372998
0.347329
0.316535
0.281793
0.244598
0.206654
0.169711
0.13525
0.104171
0.0766956
0.0525175
0.0311059
0.0119878
-0.00513998
-0.0204541
-0.0340782
-0.0461137
-0.0566396
-0.0657177
-0.0734044
-0.0797666
-0.0848822
-0.0888455
-0.0917581
-0.0937358
-0.0948921
-0.0953493
-0.0952103
-0.0945836
-0.0935355
-0.0921425
-0.0904119
-0.088381
-0.0859852
-0.0832488
-0.0800155
-0.0763234
-0.0719679
-0.0670614
-0.0613178
-0.0550284
-0.0477925
-0.0402013
-0.0316365
-0.0231557
-0.0137251
-0.00510671
0.438406
0.431301
0.416423
0.393672
0.363853
0.327994
0.287547
0.244426
0.200866
0.159229
0.121462
0.0885801
0.0605494
0.0366002
0.0157712
-0.00265705
-0.019072
-0.0336705
-0.0465893
-0.0579386
-0.0677928
-0.0762014
-0.0832106
-0.0888831
-0.0932984
-0.0965577
-0.0987733
-0.100076
-0.100596
-0.100475
-0.0998308
-0.0987895
-0.0974261
-0.0958258
-0.0939904
-0.0919538
-0.0896346
-0.0870311
-0.0839523