/*--------------------------------*- C++ -*----------------------------------*\
  =========                 |
  \\      /  F ield         | OpenFOAM: The Open Source CFD Toolbox
   \\    /   O peration     | Website:  https://openfoam.org
    \\  /    A nd           | Version:  8
     \\/     M anipulation  |
\*---------------------------------------------------------------------------*/
FoamFile
{
    version     2.0;
    format      ascii;
    class       volScalarField;
    location    "0.4";
    object      p;
}
// * * * * * * * * * * * * * * * * * * * * * * * * * * * * * * * * * * * * * //

dimensions      [0 2 -2 0 0 0 0];

internalField   nonuniform List<scalar> 
400
(
-6.63628e-12
-1.5278e-06
-2.83065e-06
-3.86761e-06
-4.58226e-06
-4.96334e-06
-5.03107e-06
-4.80776e-06
-4.32879e-06
-3.6483e-06
-2.86277e-06
-2.06736e-06
-1.28902e-06
-5.03855e-07
2.9135e-07
1.05205e-06
1.71445e-06
2.17307e-06
2.1553e-06
1.38723e-06
-6.51375e-07
-1.82784e-06
-2.79123e-06
-3.53728e-06
-4.09218e-06
-4.3916e-06
-4.42946e-06
-4.24384e-06
-3.84996e-06
-3.28274e-06
-2.64153e-06
-2.02351e-06
-1.44692e-06
-8.78794e-07
-3.10182e-07
2.26489e-07
7.08181e-07
1.08342e-06
1.10541e-06
4.78069e-07
-1.26331e-06
-2.31652e-06
-3.03003e-06
-3.53519e-06
-3.90835e-06
-4.09881e-06
-4.09568e-06
-3.91611e-06
-3.55875e-06
-3.05504e-06
-2.50354e-06
-1.99783e-06
-1.55186e-06
-1.12558e-06
-6.96364e-07
-2.75786e-07
1.42075e-07
5.20419e-07
5.72386e-07
-7.77718e-08
-1.84423e-06
-2.91509e-06
-3.41353e-06
-3.67252e-06
-3.86039e-06
-3.94277e-06
-3.8962e-06
-3.71282e-06
-3.3762e-06
-2.91428e-06
-2.42634e-06
-2.00523e-06
-1.65844e-06
-1.33054e-06
-9.79025e-07
-6.02699e-07
-1.86081e-07
2.34088e-07
2.87132e-07
-4.91805e-07
-2.28676e-06
-3.41103e-06
-3.74503e-06
-3.77963e-06
-3.81715e-06
-3.82329e-06
-3.74117e-06
-3.54791e-06
-3.22656e-06
-2.80719e-06
-2.38519e-06
-2.04259e-06
-1.77308e-06
-1.5084e-06
-1.19574e-06
-8.28186e-07
-3.92353e-07
7.50483e-08
1.44456e-07
-7.55635e-07
-2.47866e-06
-3.65772e-06
-3.90827e-06
-3.80141e-06
-3.74307e-06
-3.69623e-06
-3.58082e-06
-3.37847e-06
-3.08381e-06
-2.72498e-06
-2.37803e-06
-2.10193e-06
-1.8769e-06
-1.63305e-06
-1.32471e-06
-9.49298e-07
-4.87563e-07
3.02867e-08
1.46218e-07
-8.04856e-07
-2.42005e-06
-3.6822e-06
-3.93309e-06
-3.77189e-06
-3.6608e-06
-3.57159e-06
-3.42997e-06
-3.23469e-06
-2.98628e-06
-2.69714e-06
-2.41486e-06
-2.17845e-06
-1.96653e-06
-1.71776e-06
-1.39398e-06
-9.96947e-07
-4.982e-07
8.44831e-08
2.74403e-07
-6.61978e-07
-2.21326e-06
-3.57982e-06
-3.89036e-06
-3.73053e-06
-3.59472e-06
-3.48177e-06
-3.3367e-06
-3.16994e-06
-2.97593e-06
-2.74471e-06
-2.50007e-06
-2.27394e-06
-2.05567e-06
-1.79553e-06
-1.45626e-06
-1.03232e-06
-4.83363e-07
1.82589e-07
4.71785e-07
-4.07138e-07
-1.97577e-06
-3.45204e-06
-3.85025e-06
-3.7174e-06
-3.58108e-06
-3.47222e-06
-3.34829e-06
-3.22028e-06
-3.07055e-06
-2.87036e-06
-2.63133e-06
-2.39109e-06
-2.15553e-06
-1.88339e-06
-1.53098e-06
-1.07899e-06
-4.75224e-07
2.77484e-07
6.7114e-07
-1.38031e-07
-1.77927e-06
-3.35611e-06
-3.84966e-06
-3.76129e-06
-3.65024e-06
-3.56998e-06
-3.47867e-06
-3.38277e-06
-3.25511e-06
-3.05588e-06
-2.79373e-06
-2.51886e-06
-2.25474e-06
-1.96465e-06
-1.5957e-06
-1.11761e-06
-4.72241e-07
3.41988e-07
8.1741e-07
7.34003e-08
-1.6617e-06
-3.31399e-06
-3.90483e-06
-3.88239e-06
-3.81824e-06
-3.77598e-06
-3.71091e-06
-3.62828e-06
-3.49817e-06
-3.27572e-06
-2.96984e-06
-2.64371e-06
-2.33766e-06
-2.01963e-06
-1.63089e-06
-1.13696e-06
-4.79759e-07
3.49341e-07
8.6511e-07
1.78901e-07
-1.65102e-06
-3.3447e-06
-4.03071e-06
-4.09067e-06
-4.07977e-06
-4.06622e-06
-4.00884e-06
-3.9185e-06
-3.76757e-06
-3.50792e-06
-3.14707e-06
-2.75838e-06
-2.39836e-06
-2.04343e-06
-1.63624e-06
-1.14383e-06
-5.0954e-07
2.85083e-07
7.9333e-07
1.51071e-07
-1.75389e-06
-3.45365e-06
-4.21792e-06
-4.35753e-06
-4.38914e-06
-4.38584e-06
-4.31874e-06
-4.20829e-06
-4.02903e-06
-3.72726e-06
-3.30634e-06
-2.84784e-06
-2.42516e-06
-2.02834e-06
-1.60819e-06
-1.13572e-06
-5.53323e-07
1.66962e-07
6.21063e-07
-2.32692e-09
-1.93959e-06
-3.61061e-06
-4.41608e-06
-4.61352e-06
-4.6729e-06
-4.66979e-06
-4.58903e-06
-4.45808e-06
-4.25024e-06
-3.90413e-06
-3.41901e-06
-2.88589e-06
-2.39673e-06
-1.95801e-06
-1.53157e-06
-1.09252e-06
-5.81971e-07
3.31744e-08
3.92094e-07
-2.40709e-07
-2.15048e-06
-3.76269e-06
-4.56986e-06
-4.80169e-06
-4.88471e-06
-4.88915e-06
-4.80494e-06
-4.65849e-06
-4.41995e-06
-4.02371e-06
-3.46994e-06
-2.86146e-06
-2.30748e-06
-1.82872e-06
-1.39737e-06
-9.94958e-07
-5.6897e-07
-8.59682e-08
1.46446e-07
-5.16954e-07
-2.32248e-06
-3.85273e-06
-4.65137e-06
-4.9186e-06
-5.03771e-06
-5.06647e-06
-4.99079e-06
-4.83005e-06
-4.55406e-06
-4.10152e-06
-3.47946e-06
-2.80067e-06
-2.18469e-06
-1.6616e-06
-1.21502e-06
-8.40988e-07
-5.0607e-07
-1.75937e-07
-8.78264e-08
-7.89763e-07
-2.41354e-06
-3.83675e-06
-4.65102e-06
-4.99206e-06
-5.17514e-06
-5.24287e-06
-5.17753e-06
-4.99694e-06
-4.67861e-06
-4.17172e-06
-3.48899e-06
-2.74482e-06
-2.06233e-06
-1.48278e-06
-1.00731e-06
-6.5018e-07
-3.98915e-07
-2.21885e-07
-2.82316e-07
-1.003e-06
-2.39353e-06
-3.73152e-06
-4.60569e-06
-5.07297e-06
-5.34724e-06
-5.45845e-06
-5.39721e-06
-5.19035e-06
-4.82723e-06
-4.26517e-06
-3.51845e-06
-2.70116e-06
-1.94063e-06
-1.29054e-06
-7.70846e-07
-4.12832e-07
-2.1406e-07
-1.52674e-07
-3.44149e-07
-1.07195e-06
-2.2257e-06
-3.61822e-06
-4.64501e-06
-5.28721e-06
-5.66999e-06
-5.81842e-06
-5.74809e-06
-5.50198e-06
-5.07733e-06
-4.43483e-06
-3.59363e-06
-2.67546e-06
-1.81386e-06
-1.0664e-06
-4.61743e-07
-4.73434e-08
1.65307e-07
1.86152e-07
-9.70391e-08
-8.98321e-07
-1.93867e-06
-3.63331e-06
-4.95946e-06
-5.82717e-06
-6.32717e-06
-6.50117e-06
-6.39889e-06
-6.07728e-06
-5.54154e-06
-4.76341e-06
-3.77305e-06
-2.69626e-06
-1.67139e-06
-7.6837e-07
-1.44353e-08
5.57008e-07
9.0296e-07
9.73042e-07
6.24555e-07
-3.69093e-07
)
;

boundaryField
{
    movingWall
    {
        type            zeroGradient;
    }
    fixedWalls
    {
        type            zeroGradient;
    }
    left
    {
        type            cyclic;
    }
    right
    {
        type            cyclic;
    }
    frontAndBack
    {
        type            empty;
    }
}


// ************************************************************************* //
