/*--------------------------------*- C++ -*----------------------------------*\
  =========                 |
  \\      /  F ield         | OpenFOAM: The Open Source CFD Toolbox
   \\    /   O peration     | Website:  https://openfoam.org
    \\  /    A nd           | Version:  8
     \\/     M anipulation  |
\*---------------------------------------------------------------------------*/
FoamFile
{
    version     2.0;
    format      ascii;
    class       volScalarField;
    location    "3.5";
    object      p;
}
// * * * * * * * * * * * * * * * * * * * * * * * * * * * * * * * * * * * * * //

dimensions      [0 2 -2 0 0 0 0];

internalField   nonuniform List<scalar> 
116
(
4.21619e-09
1.67258e-05
0.000107715
0.000258117
0.00047549
0.000731512
-2.88941e-05
-1.70325e-05
7.04353e-05
0.000224438
0.000454631
0.000749248
-0.000137239
-0.000140315
-6.63688e-05
6.54816e-05
0.000272367
0.000560283
-0.000327058
-0.000342545
-0.000270505
-0.000106861
0.000157243
0.000549183
-0.00055396
-0.000651737
-0.000628919
-0.000583971
-0.000409852
-7.99857e-05
-0.000877663
-0.000865071
-0.000917174
-0.000806738
-0.000602975
-0.000150906
-0.00125112
-0.00191157
-0.00187243
-0.00215741
-0.0021522
-0.00178958
-0.00181041
-0.00140248
-0.00198604
-0.00202623
-0.00231219
-0.00199791
-0.00138373
-0.00414594
-0.00405535
-0.00511829
-0.00562829
-0.00552239
-0.00704769
-0.0021459
-0.00322142
-0.00379362
-0.00472183
-0.00453912
0.00110891
0.00134312
0.00153699
0.00163353
0.00116072
0.00145421
0.00169299
0.00184719
0.000940699
0.00140603
0.00178889
0.00214197
0.00105579
0.00164524
0.00213776
0.0027499
0.000343925
0.00135788
0.00204312
0.00356001
0.000491976
0.00178308
0.00270718
0.00509868
-0.00175089
0.000110797
0.000389516
0.00591253
-0.00230522
-3.06664e-05
-0.000442978
0.00742214
-0.00788105
-0.00544646
-0.00863538
0.00506895
-0.00520991
-0.0014946
0.00704358
0.0320779
0.00146843
0.0014797
0.00149842
0.00150688
0.0014908
0.00150323
0.0015206
0.00152823
0.00139928
0.0014401
0.00149202
0.00151681
0.0014662
0.00151781
0.00157265
0.00160212
)
;

boundaryField
{
    movingWall
    {
        type            zeroGradient;
    }
    fixedWalls
    {
        type            zeroGradient;
    }
    frontAndBack
    {
        type            empty;
    }
}


// ************************************************************************* //
