/*--------------------------------*- C++ -*----------------------------------*\
  =========                 |
  \\      /  F ield         | OpenFOAM: The Open Source CFD Toolbox
   \\    /   O peration     | Website:  https://openfoam.org
    \\  /    A nd           | Version:  8
     \\/     M anipulation  |
\*---------------------------------------------------------------------------*/
FoamFile
{
    version     2.0;
    format      ascii;
    class       surfaceScalarField;
    location    "0.43";
    object      phi;
}
// * * * * * * * * * * * * * * * * * * * * * * * * * * * * * * * * * * * * * //

dimensions      [0 3 -1 0 0 0 0];

internalField   nonuniform List<scalar> 
760
(
1.20539e-06
1.29739e-14
1.20539e-06
7.4301e-12
1.20538e-06
1.09081e-11
1.20536e-06
1.23816e-11
1.20535e-06
1.23012e-11
1.20534e-06
1.14041e-11
1.20533e-06
9.96423e-12
1.20532e-06
8.26472e-12
1.20532e-06
6.48721e-12
1.20531e-06
4.64887e-12
1.20531e-06
2.65526e-12
1.20531e-06
3.8047e-13
1.20531e-06
-2.26936e-12
1.20532e-06
-5.31548e-12
1.20532e-06
-8.68938e-12
1.20534e-06
-1.21972e-11
1.20535e-06
-1.54459e-11
1.20537e-06
-1.73401e-11
1.20539e-06
-1.61608e-11
-9.42064e-12
3.61721e-06
-4.0185e-12
3.6172e-06
1.42111e-11
3.61719e-06
2.51617e-11
3.61717e-06
3.01548e-11
3.61715e-06
3.11401e-11
3.61714e-06
2.97153e-11
3.61712e-06
2.67376e-11
3.6171e-06
2.28038e-11
3.61709e-06
1.82623e-11
3.61708e-06
1.32179e-11
3.61708e-06
7.60404e-12
3.61708e-06
1.28441e-12
3.61708e-06
-5.84583e-12
3.61709e-06
-1.37742e-11
3.6171e-06
-2.22872e-11
3.61712e-06
-3.08289e-11
3.61714e-06
-3.82677e-11
3.61717e-06
-4.21847e-11
3.61719e-06
-3.86011e-11
-2.44847e-11
6.03225e-06
-1.01554e-11
6.03225e-06
1.57325e-11
6.03225e-06
3.32914e-11
6.03223e-06
4.23959e-11
6.03222e-06
4.5558e-11
6.0322e-06
4.47853e-11
6.03219e-06
4.1317e-11
6.03218e-06
3.60102e-11
6.03216e-06
2.93944e-11
6.03216e-06
2.17136e-11
6.03215e-06
1.30053e-11
6.03215e-06
3.2038e-12
6.03215e-06
-7.74327e-12
6.03216e-06
-1.97557e-11
6.03217e-06
-3.24756e-11
6.03218e-06
-4.50312e-11
6.0322e-06
-5.56834e-11
6.03222e-06
-6.11399e-11
6.03224e-06
-5.6407e-11
-3.80154e-11
8.45265e-06
-1.72201e-11
8.45266e-06
1.28822e-11
8.45265e-06
3.47696e-11
8.45265e-06
4.73738e-11
8.45264e-06
5.29734e-11
8.45263e-06
5.36092e-11
8.45262e-06
5.06472e-11
8.45261e-06
4.50767e-11
8.45261e-06
3.75549e-11
8.4526e-06
2.84505e-11
8.45259e-06
1.79141e-11
8.45259e-06
5.97252e-12
8.45259e-06
-7.35448e-12
8.45259e-06
-2.19146e-11
8.4526e-06
-3.72401e-11
8.45261e-06
-5.22642e-11
8.45261e-06
-6.49232e-11
8.45263e-06
-7.16013e-11
8.45264e-06
-6.70717e-11
-4.76342e-11
1.08804e-05
-2.33988e-11
1.08804e-05
7.19776e-12
1.08804e-05
3.07975e-11
1.08804e-05
4.55688e-11
1.08804e-05
5.32106e-11
1.08804e-05
5.55119e-11
1.08804e-05
5.37466e-11
1.08804e-05
4.88986e-11
1.08804e-05
4.16682e-11
1.08804e-05
3.24937e-11
1.08804e-05
2.16054e-11
1.08804e-05
9.10641e-12
1.08804e-05
-4.92039e-12
1.08804e-05
-2.02755e-11
1.08804e-05
-3.64532e-11
1.08804e-05
-5.23521e-11
1.08804e-05
-6.58768e-11
1.08804e-05
-7.35254e-11
1.08804e-05
-7.03645e-11
-5.26387e-11
1.33172e-05
-2.76307e-11
1.33172e-05
1.848e-13
1.33172e-05
2.28985e-11
1.33172e-05
3.81701e-11
1.33172e-05
4.70268e-11
1.33172e-05
5.08343e-11
1.33172e-05
5.0617e-11
1.33172e-05
4.72296e-11
1.33172e-05
4.13212e-11
1.33172e-05
3.33299e-11
1.33172e-05
2.35162e-11
1.33172e-05
1.20239e-11
1.33172e-05
-1.03174e-12
1.33172e-05
-1.54504e-11
1.33172e-05
-3.07722e-11
1.33172e-05
-4.60189e-11
1.33172e-05
-5.93206e-11
1.33172e-05
-6.76207e-11
1.33172e-05
-6.66269e-11
-5.268e-11
1.57647e-05
-2.92314e-11
1.57647e-05
-6.84269e-12
1.57647e-05
1.26582e-11
1.57647e-05
2.67153e-11
1.57647e-05
3.57362e-11
1.57647e-05
4.05889e-11
1.57647e-05
4.19554e-11
1.57648e-05
4.04674e-11
1.57648e-05
3.66394e-11
1.57648e-05
3.08401e-11
1.57648e-05
2.33051e-11
1.57648e-05
1.41754e-11
1.57648e-05
3.55604e-12
1.57647e-05
-8.3981e-12
1.57647e-05
-2.1353e-11
1.57647e-05
-3.45773e-11
1.57647e-05
-4.66212e-11
1.57647e-05
-5.51137e-11
1.57647e-05
-5.66494e-11
-4.78507e-11
1.82241e-05
-2.78872e-11
1.82241e-05
-1.28577e-11
1.82242e-05
1.53517e-12
1.82242e-05
1.2828e-11
1.82242e-05
2.09218e-11
1.82242e-05
2.61865e-11
1.82242e-05
2.89239e-11
1.82242e-05
2.94836e-11
1.82242e-05
2.8183e-11
1.82242e-05
2.52629e-11
1.82242e-05
2.08836e-11
1.82242e-05
1.51398e-11
1.82242e-05
8.08933e-12
1.82242e-05
-2.01536e-13
1.82242e-05
-9.57823e-12
1.82242e-05
-1.96395e-11
1.82242e-05
-2.94813e-11
1.82242e-05
-3.75779e-11
1.82241e-05
-4.15888e-11
-3.86258e-11
2.06965e-05
-2.36591e-11
2.06965e-05
-1.71796e-11
2.06966e-05
-9.25506e-12
2.06966e-05
-1.95687e-12
2.06966e-05
4.23333e-12
2.06966e-05
9.23387e-12
2.06966e-05
1.29693e-11
2.06966e-05
1.54819e-11
2.06966e-05
1.68529e-11
2.06967e-05
1.71533e-11
2.06967e-05
1.64291e-11
2.06967e-05
1.46957e-11
2.06967e-05
1.19352e-11
2.06966e-05
8.10062e-12
2.06966e-05
3.14052e-12
2.06966e-05
-2.91071e-12
2.06966e-05
-9.75457e-12
2.06966e-05
-1.67966e-11
2.06966e-05
-2.2887e-11
-2.58266e-11
2.31826e-05
-1.69646e-11
2.31826e-05
-1.94948e-11
2.31826e-05
-1.87945e-11
2.31826e-05
-1.6298e-11
2.31826e-05
-1.27482e-11
2.31826e-05
-8.61411e-12
2.31827e-05
-4.31792e-12
2.31827e-05
-1.23439e-13
2.31827e-05
3.79959e-12
2.31827e-05
7.32943e-12
2.31827e-05
1.0375e-11
2.31827e-05
1.28533e-11
2.31827e-05
1.4658e-11
2.31827e-05
1.56241e-11
2.31827e-05
1.5498e-11
2.31827e-05
1.39546e-11
2.31826e-05
1.0687e-11
2.31826e-05
5.34272e-12
2.31826e-05
-2.18996e-12
-1.05765e-11
2.56826e-05
-8.53603e-12
2.56826e-05
-1.98365e-11
2.56826e-05
-2.64794e-11
2.56826e-05
-2.90988e-11
2.56826e-05
-2.85945e-11
2.56826e-05
-2.57586e-11
2.56827e-05
-2.13151e-11
2.56827e-05
-1.58123e-11
2.56827e-05
-9.66596e-12
2.56827e-05
-3.19219e-12
2.56827e-05
3.3756e-12
2.56827e-05
9.85303e-12
2.56827e-05
1.60498e-11
2.56827e-05
2.16992e-11
2.56827e-05
2.63777e-11
2.56827e-05
2.94477e-11
2.56827e-05
3.00511e-11
2.56826e-05
2.69388e-11
2.56826e-05
1.87347e-11
5.76169e-12
2.81966e-05
6.44214e-13
2.81966e-05
-1.85344e-11
2.81966e-05
-3.19988e-11
2.81966e-05
-3.95185e-11
2.81966e-05
-4.20736e-11
2.81966e-05
-4.07267e-11
2.81966e-05
-3.64542e-11
2.81967e-05
-3.00539e-11
2.81967e-05
-2.21631e-11
2.81967e-05
-1.32755e-11
2.81967e-05
-3.75382e-12
2.81967e-05
6.12993e-12
2.81967e-05
1.61224e-11
2.81967e-05
2.58899e-11
2.81967e-05
3.48945e-11
2.81967e-05
4.22667e-11
2.81966e-05
4.66994e-11
2.81966e-05
4.61588e-11
2.81966e-05
3.80795e-11
2.16672e-11
3.07242e-05
9.43363e-12
3.07242e-05
-1.61314e-11
3.07242e-05
-3.52788e-11
3.07242e-05
-4.69466e-11
3.07242e-05
-5.21602e-11
3.07242e-05
-5.22161e-11
3.07242e-05
-4.82947e-11
3.07243e-05
-4.13966e-11
3.07243e-05
-3.23395e-11
3.07243e-05
-2.17598e-11
3.07243e-05
-1.01195e-11
3.07243e-05
2.25012e-12
3.07243e-05
1.5067e-11
3.07243e-05
2.7979e-11
3.07243e-05
4.04061e-11
3.07243e-05
5.13525e-11
3.07243e-05
5.92037e-11
3.07242e-05
6.13124e-11
3.07242e-05
5.4081e-11
3.5558e-11
3.32648e-05
1.66461e-11
3.32648e-05
-1.32737e-11
3.32648e-05
-3.63926e-11
3.32648e-05
-5.0948e-11
3.32648e-05
-5.80233e-11
3.32648e-05
-5.9127e-11
3.32648e-05
-5.55925e-11
3.32648e-05
-4.85642e-11
3.32648e-05
-3.89819e-11
3.32648e-05
-2.7573e-11
3.32648e-05
-1.48552e-11
3.32648e-05
-1.17847e-12
3.32648e-05
1.31888e-11
3.32648e-05
2.79312e-11
3.32648e-05
4.25059e-11
3.32648e-05
5.59108e-11
3.32648e-05
6.63944e-11
3.32648e-05
7.0924e-11
3.32648e-05
6.51071e-11
4.5902e-11
3.58173e-05
2.12013e-11
3.58173e-05
-1.05746e-11
3.58173e-05
-3.54428e-11
3.58173e-05
-5.11906e-11
3.58173e-05
-5.90095e-11
3.58173e-05
-6.06007e-11
3.58173e-05
-5.73853e-11
3.58173e-05
-5.05732e-11
3.58173e-05
-4.115e-11
3.58173e-05
-2.98691e-11
3.58173e-05
-1.72498e-11
3.58173e-05
-3.61494e-12
3.58173e-05
1.08257e-11
3.58173e-05
2.5845e-11
3.58173e-05
4.10121e-11
3.58173e-05
5.54369e-11
3.58173e-05
6.74184e-11
3.58173e-05
7.38164e-11
3.58173e-05
6.97656e-11
5.13396e-11
3.83805e-05
2.23043e-11
3.83805e-05
-8.44502e-12
3.83805e-05
-3.24289e-11
3.83805e-05
-4.73801e-11
3.83805e-05
-5.46547e-11
3.83804e-05
-5.60979e-11
3.83804e-05
-5.31208e-11
3.83804e-05
-4.68918e-11
3.83804e-05
-3.83483e-11
3.83804e-05
-2.81952e-11
3.83804e-05
-1.68978e-11
3.83804e-05
-4.70714e-12
3.83804e-05
8.26325e-12
3.83804e-05
2.19125e-11
3.83804e-05
3.59746e-11
3.83805e-05
4.97692e-11
3.83805e-05
6.18325e-11
3.83805e-05
6.92301e-11
3.83805e-05
6.7055e-11
5.08264e-11
4.09527e-05
1.9628e-11
4.09527e-05
-6.88134e-12
4.09527e-05
-2.71226e-11
4.09527e-05
-3.92463e-11
4.09527e-05
-4.47805e-11
4.09527e-05
-4.55705e-11
4.09527e-05
-4.28674e-11
4.09527e-05
-3.76636e-11
4.09527e-05
-3.07428e-11
4.09527e-05
-2.26879e-11
4.09527e-05
-1.38609e-11
4.09527e-05
-4.40824e-12
4.09527e-05
5.67399e-12
4.09527e-05
1.64201e-11
4.09527e-05
2.77374e-11
4.09527e-05
3.92061e-11
4.09527e-05
4.97619e-11
4.09527e-05
5.70059e-11
4.09527e-05
5.65649e-11
4.3834e-11
4.35323e-05
1.36083e-11
4.35323e-05
-5.24225e-12
4.35323e-05
-1.90009e-11
4.35323e-05
-2.66574e-11
4.35323e-05
-2.97279e-11
4.35323e-05
-2.97489e-11
4.35322e-05
-2.76107e-11
4.35322e-05
-2.39905e-11
4.35322e-05
-1.94187e-11
4.35322e-05
-1.42873e-11
4.35322e-05
-8.81687e-12
4.35322e-05
-3.04204e-12
4.35322e-05
3.13836e-12
4.35322e-05
9.84911e-12
4.35322e-05
1.7112e-11
4.35322e-05
2.4742e-11
4.35323e-05
3.21746e-11
4.35323e-05
3.78364e-11
4.35323e-05
3.86261e-11
3.04565e-11
4.61172e-05
5.43883e-12
4.61172e-05
-2.76298e-12
4.61172e-05
-8.13465e-12
4.61172e-05
-1.08439e-11
4.61172e-05
-1.16573e-11
4.61172e-05
-1.13653e-11
4.61172e-05
-1.03245e-11
4.61171e-05
-8.80867e-12
4.61171e-05
-7.03363e-12
4.61171e-05
-5.1556e-12
4.61171e-05
-3.2428e-12
4.61171e-05
-1.25714e-12
4.61171e-05
9.12291e-13
4.61171e-05
3.36254e-12
4.61171e-05
6.09858e-12
4.61172e-05
9.05197e-12
4.61172e-05
1.21295e-11
4.61172e-05
1.48096e-11
4.61172e-05
1.59065e-11
1.28768e-11
4.87054e-05
4.87054e-05
4.87054e-05
4.87054e-05
4.87054e-05
4.87054e-05
4.87053e-05
4.87053e-05
4.87053e-05
4.87053e-05
4.87053e-05
4.87053e-05
4.87053e-05
4.87053e-05
4.87053e-05
4.87053e-05
4.87054e-05
4.87054e-05
4.87054e-05
)
;

boundaryField
{
    movingWall
    {
        type            calculated;
        value           uniform 0;
    }
    fixedWalls
    {
        type            calculated;
        value           uniform 0;
    }
    left
    {
        type            cyclic;
        value           nonuniform List<scalar> 
20
(
-3.83805e-05
-3.58173e-05
-3.32648e-05
-3.07242e-05
-2.81966e-05
-2.56826e-05
-2.31826e-05
-2.06965e-05
-1.82241e-05
-1.57647e-05
-1.33172e-05
-1.08804e-05
-8.45265e-06
-6.03225e-06
-3.61721e-06
-1.20539e-06
-4.09527e-05
-4.35323e-05
-4.61172e-05
-4.87054e-05
)
;
    }
    right
    {
        type            cyclic;
        value           nonuniform List<scalar> 
20
(
3.83805e-05
3.58173e-05
3.32648e-05
3.07242e-05
2.81966e-05
2.56826e-05
2.31826e-05
2.06965e-05
1.82241e-05
1.57647e-05
1.33172e-05
1.08804e-05
8.45265e-06
6.03225e-06
3.61721e-06
1.20539e-06
4.09527e-05
4.35323e-05
4.61172e-05
4.87054e-05
)
;
    }
    frontAndBack
    {
        type            empty;
        value           nonuniform List<scalar> 0();
    }
}


// ************************************************************************* //
