/*--------------------------------*- C++ -*----------------------------------*\
  =========                 |
  \\      /  F ield         | OpenFOAM: The Open Source CFD Toolbox
   \\    /   O peration     | Website:  https://openfoam.org
    \\  /    A nd           | Version:  8
     \\/     M anipulation  |
\*---------------------------------------------------------------------------*/
FoamFile
{
    version     2.0;
    format      ascii;
    class       volScalarField;
    location    "0.265";
    object      p;
}
// * * * * * * * * * * * * * * * * * * * * * * * * * * * * * * * * * * * * * //

dimensions      [0 2 -2 0 0 0 0];

internalField   nonuniform List<scalar> 
400
(
3.33925e-06
-0.00582292
-0.0129589
-0.0184096
-0.020426
-0.018232
-0.0117678
-0.00147857
0.011841
0.0271508
0.0432441
0.0588208
0.0725749
0.0833038
0.0900479
0.0922625
0.0900226
0.0842424
0.0768811
0.0710688
0.0057804
-0.000217464
-0.00580191
-0.00953931
-0.0105949
-0.00842841
-0.00296582
0.00547766
0.0163055
0.0287131
0.0417499
0.0543849
0.0655844
0.0744074
0.0801177
0.0823137
0.0810761
0.077055
0.0712757
0.0653207
0.0133326
0.00503286
-0.000994759
-0.00442146
-0.0052705
-0.00326114
0.00160514
0.0090301
0.0185041
0.0293506
0.0407659
0.0518694
0.0617677
0.0696353
0.074806
0.0768776
0.0758421
0.0720875
0.0658084
0.05754
0.0201351
0.00869385
0.00122531
-0.00266795
-0.00372071
-0.00188342
0.00273335
0.0097866
0.0187822
0.0290965
0.0399929
0.0506545
0.060233
0.0679159
0.0730033
0.0750022
0.0737674
0.0694589
0.0616073
0.0501088
0.0244965
0.00977025
0.000588613
-0.00398693
-0.00530137
-0.00350588
0.00117652
0.00833648
0.0174639
0.0279508
0.0390865
0.0500712
0.0600499
0.068166
0.0736275
0.0757994
0.0743715
0.0692935
0.059531
0.0445448
0.0251722
0.00714711
-0.00380322
-0.00905727
-0.0105113
-0.00849846
-0.00335485
0.00443167
0.0143157
0.0256814
0.0378161
0.0499054
0.0610501
0.070305
0.0767367
0.0795194
0.0781422
0.072338
0.0605454
0.0418986
0.0210887
-0.000264612
-0.0129352
-0.0187089
-0.0200285
-0.0174119
-0.0113158
-0.00231671
0.00899367
0.0219795
0.035913
0.0499475
0.0631152
0.0743482
0.0825248
0.0865727
0.0857246
0.079452
0.0656269
0.0430805
0.0111399
-0.0136191
-0.0278746
-0.0338529
-0.0346014
-0.0308546
-0.0232093
-0.0123411
0.00110923
0.0164884
0.0330571
0.049938
0.0660875
0.0802938
0.0912045
0.097434
0.0978747
0.0916412
0.0759028
0.0491249
-0.00596743
-0.0342654
-0.0498681
-0.055546
-0.0550868
-0.0495105
-0.0395888
-0.026108
-0.00975144
0.00882888
0.0289069
0.0495992
0.0698029
0.0881596
0.103052
0.112706
0.115555
0.110197
0.0928403
0.0614188
-0.0318542
-0.0638728
-0.0804132
-0.0850031
-0.0824155
-0.0740731
-0.060975
-0.0440301
-0.0239446
-0.0013297
0.0231528
0.048668
0.0741022
0.0979784
0.118402
0.133131
0.139994
0.136823
0.118446
0.0819398
-0.068661
-0.104598
-0.121339
-0.123585
-0.11751
-0.10512
-0.0877113
-0.0663179
-0.041629
-0.0141473
0.0156139
0.0469613
0.0788634
0.109801
0.13763
0.159591
0.172732
0.173783
0.155525
0.113575
-0.119393
-0.159349
-0.174908
-0.17275
-0.161141
-0.142922
-0.119751
-0.0927687
-0.0625686
-0.0294385
0.00638231
0.0444824
0.0840635
0.123711
0.161143
0.193092
0.215673
0.224081
0.208054
0.160635
-0.188616
-0.232232
-0.24393
-0.23394
-0.213687
-0.187147
-0.156364
-0.122493
-0.0858887
-0.0464625
-0.00400478
0.0415482
0.0898509
0.139837
0.189326
0.234695
0.271079
0.291668
0.281745
0.229777
-0.283961
-0.329294
-0.331823
-0.308272
-0.274701
-0.236432
-0.195757
-0.153601
-0.109831
-0.0637354
-0.0144281
0.0388729
0.0965631
0.158284
0.222381
0.285294
0.341402
0.381578
0.384916
0.331834
-0.419305
-0.45966
-0.442342
-0.395785
-0.342122
-0.287733
-0.234609
-0.182922
-0.1316
-0.0789754
-0.0232043
0.0374847
0.104562
0.178845
0.259868
0.344975
0.42862
0.499703
0.529676
0.48539
-0.620519
-0.636734
-0.578669
-0.494187
-0.411235
-0.335653
-0.267774
-0.20597
-0.147528
-0.0893739
-0.0284167
0.0383575
0.113815
0.200479
0.299981
0.41203
0.533033
0.651777
0.732772
0.722394
-0.935914
-0.878507
-0.741736
-0.597944
-0.474389
-0.372656
-0.288864
-0.217757
-0.153946
-0.0924557
-0.0287085
0.0417045
0.123272
0.220725
0.338932
0.482159
0.652
0.841344
1.01527
1.0975
-1.47642
-1.20662
-0.920499
-0.691386
-0.517303
-0.387542
-0.290058
-0.213333
-0.148118
-0.0872083
-0.0245695
0.045466
0.128946
0.233078
0.367109
0.542683
0.771296
1.05932
1.40329
1.73014
-2.53964
-1.63054
-1.04444
-0.710959
-0.495751
-0.352093
-0.25453
-0.183581
-0.126165
-0.0735889
-0.0192614
0.0427954
0.119221
0.218791
0.354819
0.54799
0.826397
1.23658
1.91168
2.92419
-4.36666
-2.04463
-0.973542
-0.563183
-0.357849
-0.240149
-0.170121
-0.123783
-0.0874783
-0.0535048
-0.0166468
0.0276699
0.0846175
0.16174
0.27242
0.442107
0.718225
1.22571
2.41104
4.84853
)
;

boundaryField
{
    movingWall
    {
        type            zeroGradient;
    }
    fixedWalls
    {
        type            zeroGradient;
    }
    frontAndBack
    {
        type            empty;
    }
}


// ************************************************************************* //
