/*--------------------------------*- C++ -*----------------------------------*\
  =========                 |
  \\      /  F ield         | OpenFOAM: The Open Source CFD Toolbox
   \\    /   O peration     | Website:  https://openfoam.org
    \\  /    A nd           | Version:  8
     \\/     M anipulation  |
\*---------------------------------------------------------------------------*/
FoamFile
{
    version     2.0;
    format      ascii;
    class       surfaceScalarField;
    location    "0.265";
    object      phi;
}
// * * * * * * * * * * * * * * * * * * * * * * * * * * * * * * * * * * * * * //

dimensions      [0 3 -1 0 0 0 0];

internalField   nonuniform List<scalar> 
760
(
1.42328e-08
-1.42607e-08
-2.22074e-08
3.64395e-08
-1.14254e-07
9.20457e-08
-2.45458e-07
1.31204e-07
-3.96039e-07
1.5058e-07
-5.47283e-07
1.51243e-07
-6.83085e-07
1.35802e-07
-7.9054e-07
1.07454e-07
-8.60073e-07
6.95328e-08
-8.85503e-07
2.543e-08
-8.64185e-07
-2.13173e-08
-7.97266e-07
-6.69192e-08
-6.89981e-07
-1.07285e-07
-5.51891e-07
-1.38089e-07
-3.96887e-07
-1.55004e-07
-2.42717e-07
-1.5417e-07
-1.09721e-07
-1.32996e-07
-1.84165e-08
-9.13044e-08
1.56859e-08
-3.41022e-08
1.56862e-08
-3.42087e-08
1.99484e-08
-1.80347e-07
1.82578e-07
-4.33925e-07
3.45624e-07
-7.64321e-07
4.616e-07
-1.13205e-06
5.18304e-07
-1.49702e-06
5.16222e-07
-1.82307e-06
4.61848e-07
-2.08023e-06
3.64615e-07
-2.24594e-06
2.35248e-07
-2.3057e-06
8.51871e-08
-2.25357e-06
-7.34474e-08
-2.09275e-06
-2.27745e-07
-1.836e-06
-3.64034e-07
-1.50583e-06
-4.68259e-07
-1.13392e-06
-5.26909e-07
-7.59419e-07
-5.28676e-07
-4.25345e-07
-4.6707e-07
-1.72671e-07
-3.43979e-07
-3.07993e-08
-1.75975e-07
-1.51129e-08
-9.22132e-08
1.12162e-07
-3.56943e-07
4.47306e-07
-7.64445e-07
7.53125e-07
-1.2683e-06
9.65454e-07
-1.81443e-06
1.06443e-06
-2.3487e-06
1.05049e-06
-2.82202e-06
9.35166e-07
-3.19347e-06
7.36069e-07
-3.4321e-06
4.73881e-07
-3.518e-06
1.7108e-07
-3.44307e-06
-1.48373e-07
-3.21179e-06
-4.59024e-07
-2.8417e-06
-7.34128e-07
-2.36347e-06
-9.4649e-07
-1.82006e-06
-1.07032e-06
-1.26431e-06
-1.08442e-06
-7.5442e-07
-9.76964e-07
-3.46924e-07
-7.51475e-07
-8.73245e-08
-4.35574e-07
-1.02438e-07
-1.45188e-07
2.5735e-07
-5.25383e-07
8.27501e-07
-1.08147e-06
1.30921e-06
-1.74725e-06
1.63124e-06
-2.45397e-06
1.77115e-06
-3.13592e-06
1.73244e-06
-3.73475e-06
1.534e-06
-4.2023e-06
1.20362e-06
-4.50227e-06
7.73854e-07
-4.61127e-06
2.80078e-07
-4.51962e-06
-2.40024e-07
-4.23214e-06
-7.46501e-07
-3.76885e-06
-1.19743e-06
-3.16521e-06
-1.55013e-06
-2.47154e-06
-1.76398e-06
-1.75084e-06
-1.80513e-06
-1.07437e-06
-1.65343e-06
-5.15071e-07
-1.31077e-06
-1.39296e-07
-8.11348e-07
-2.41734e-07
-1.93581e-07
4.50931e-07
-6.84905e-07
1.31882e-06
-1.38543e-06
2.00974e-06
-2.20694e-06
2.45275e-06
-3.06505e-06
2.62926e-06
-3.88326e-06
2.55064e-06
-4.59589e-06
2.24663e-06
-5.1499e-06
1.75763e-06
-5.50572e-06
1.12968e-06
-5.63778e-06
4.12143e-07
-5.53503e-06
-3.42771e-07
-5.2017e-06
-1.07983e-06
-4.65829e-06
-1.74084e-06
-3.94246e-06
-2.26596e-06
-3.10932e-06
-2.59712e-06
-2.23022e-06
-2.68423e-06
-1.38947e-06
-2.49419e-06
-6.78415e-07
-2.02182e-06
-1.87743e-07
-1.30202e-06
-4.29478e-07
-2.39911e-07
6.90842e-07
-8.40249e-07
1.91916e-06
-1.68309e-06
2.85258e-06
-2.65675e-06
3.4264e-06
-3.66041e-06
3.63293e-06
-4.60724e-06
3.49746e-06
-5.42573e-06
3.06512e-06
-6.05988e-06
2.39178e-06
-6.46862e-06
1.53842e-06
-6.62531e-06
5.68829e-07
-6.5176e-06
-4.50483e-07
-6.14813e-06
-1.4493e-06
-5.53595e-06
-2.35302e-06
-4.71842e-06
-3.08348e-06
-3.75307e-06
-3.56248e-06
-2.7182e-06
-3.7191e-06
-1.71136e-06
-3.50102e-06
-8.44574e-07
-2.88861e-06
-2.36154e-07
-1.91044e-06
-6.65632e-07
-2.86717e-07
9.77559e-07
-9.96994e-07
2.62944e-06
-1.9819e-06
3.83749e-06
-3.10467e-06
4.54917e-06
-4.24757e-06
4.77584e-06
-5.31434e-06
4.56423e-06
-6.22956e-06
3.98034e-06
-6.93655e-06
3.09877e-06
-7.39483e-06
1.9967e-06
-7.57796e-06
7.51955e-07
-7.47251e-06
-5.55926e-07
-7.07851e-06
-1.8433e-06
-6.41135e-06
-3.02019e-06
-5.50513e-06
-3.98969e-06
-4.41671e-06
-4.65091e-06
-3.22912e-06
-4.90669e-06
-2.05279e-06
-4.67735e-06
-1.02246e-06
-3.91895e-06
-2.88257e-07
-2.64464e-06
-9.5389e-07
-3.36309e-07
1.31387e-06
-1.1603e-06
3.45343e-06
-2.28788e-06
4.96507e-06
-3.55477e-06
5.81606e-06
-4.82632e-06
6.04738e-06
-5.99869e-06
5.7366e-06
-6.99559e-06
4.97724e-06
-7.76303e-06
3.86621e-06
-8.26396e-06
2.49763e-06
-8.47408e-06
9.62076e-07
-8.37945e-06
-6.50563e-07
-7.97642e-06
-2.24634e-06
-7.27415e-06
-3.72245e-06
-6.29959e-06
-4.96425e-06
-5.10439e-06
-5.84611e-06
-3.77232e-06
-6.23875e-06
-2.42476e-06
-6.02491e-06
-1.22068e-06
-5.12302e-06
-3.47688e-07
-3.51763e-06
-1.30158e-06
-3.90944e-07
1.70481e-06
-1.33484e-06
4.39732e-06
-2.60489e-06
6.23511e-06
-4.00581e-06
7.21698e-06
-5.38662e-06
7.4282e-06
-6.63951e-06
6.98949e-06
-7.69215e-06
6.02988e-06
-8.49815e-06
4.67221e-06
-9.02808e-06
3.02756e-06
-9.26258e-06
1.19658e-06
-9.18831e-06
-7.24827e-07
-8.79717e-06
-2.63748e-06
-8.08908e-06
-4.43054e-06
-7.07878e-06
-5.97455e-06
-5.80613e-06
-7.11876e-06
-4.34891e-06
-7.69598e-06
-2.83472e-06
-7.5391e-06
-1.44705e-06
-6.5107e-06
-4.18085e-07
-4.54659e-06
-1.71966e-06
-4.5345e-07
2.15826e-06
-1.52567e-06
5.46955e-06
-2.93486e-06
7.6443e-06
-4.45008e-06
8.7322e-06
-5.90627e-06
8.88439e-06
-7.19775e-06
8.28096e-06
-8.26358e-06
7.09571e-06
-9.07197e-06
5.48061e-06
-9.60677e-06
3.56236e-06
-9.85749e-06
1.4473e-06
-9.81332e-06
-7.68999e-07
-9.46128e-06
-2.98952e-06
-8.78902e-06
-5.1028e-06
-7.79292e-06
-6.97065e-06
-6.49214e-06
-8.41954e-06
-4.94792e-06
-9.2402e-06
-3.28507e-06
-9.20194e-06
-1.70866e-06
-8.08711e-06
-5.03581e-07
-5.75167e-06
-2.22324e-06
-5.28342e-07
2.6866e-06
-1.73968e-06
6.68088e-06
-3.27801e-06
9.18263e-06
-4.87168e-06
1.03259e-05
-6.34709e-06
1.03598e-05
-7.61091e-06
9.54479e-06
-8.62446e-06
8.10926e-06
-9.37979e-06
6.23595e-06
-9.8811e-06
4.06367e-06
-1.01316e-05
1.69784e-06
-1.01259e-05
-7.74755e-07
-9.84642e-06
-3.26898e-06
-9.26606e-06
-5.68316e-06
-8.35639e-06
-7.88032e-06
-7.10473e-06
-9.67119e-06
-5.54072e-06
-1.08042e-05
-3.77072e-06
-1.09719e-05
-2.01217e-06
-9.84566e-06
-6.09689e-07
-7.15415e-06
-2.83293e-06
-6.23682e-07
3.31029e-06
-1.98743e-06
8.04464e-06
-3.63201e-06
1.08272e-05
-5.24208e-06
1.19359e-05
-6.64777e-06
1.17655e-05
-7.78472e-06
1.06817e-05
-8.6513e-06
8.97583e-06
-9.27462e-06
6.85927e-06
-9.68686e-06
4.47591e-06
-9.91014e-06
1.92112e-06
-9.94755e-06
-7.3735e-07
-9.77887e-06
-3.43765e-06
-9.36114e-06
-6.10089e-06
-8.63582e-06
-8.60564e-06
-7.54654e-06
-1.07605e-05
-6.07169e-06
-1.22791e-05
-4.27433e-06
-1.27693e-05
-2.36368e-06
-1.17563e-05
-7.44785e-07
-8.77304e-06
-3.57772e-06
-7.541e-07
4.06439e-06
-2.28443e-06
9.57496e-06
-3.98716e-06
1.25299e-05
-5.50932e-06
1.34581e-05
-6.70992e-06
1.29661e-05
-7.57894e-06
1.15508e-05
-8.1705e-06
9.56739e-06
-8.55812e-06
7.24689e-06
-8.80825e-06
4.72604e-06
-8.96558e-06
2.07845e-06
-9.04488e-06
-6.58049e-07
-9.02622e-06
-3.45631e-06
-8.85301e-06
-6.2741e-06
-8.43517e-06
-9.02348e-06
-7.66317e-06
-1.15325e-05
-6.44219e-06
-1.35e-05
-4.75637e-06
-1.44551e-05
-2.7668e-06
-1.37459e-05
-9.22449e-07
-1.06174e-05
-4.50016e-06
-9.45235e-07
5.00962e-06
-2.64858e-06
1.12783e-05
-4.31117e-06
1.41925e-05
-5.57357e-06
1.47205e-05
-6.37105e-06
1.37636e-05
-6.78373e-06
1.19634e-05
-6.94102e-06
9.72468e-06
-6.97031e-06
7.27617e-06
-6.97338e-06
4.72912e-06
-7.01711e-06
2.12217e-06
-7.12919e-06
-5.45967e-07
-7.2943e-06
-3.2912e-06
-7.44912e-06
-6.11929e-06
-7.47829e-06
-8.99431e-06
-7.21825e-06
-1.17925e-05
-6.48297e-06
-1.42353e-05
-5.13357e-06
-1.58045e-05
-3.21505e-06
-1.56644e-05
-1.1644e-06
-1.2668e-05
-5.66457e-06
-1.23734e-06
6.24696e-06
-3.08339e-06
1.31244e-05
-4.50789e-06
1.5617e-05
-5.23477e-06
1.54474e-05
-5.3556e-06
1.38844e-05
-5.08231e-06
1.16902e-05
-4.63145e-06
9.27382e-06
-4.17988e-06
6.82459e-06
-3.85501e-06
4.40425e-06
-3.73768e-06
2.00484e-06
-3.86577e-06
-4.17879e-07
-4.23324e-06
-2.92373e-06
-4.78261e-06
-5.56991e-06
-5.39151e-06
-8.38541e-06
-5.85884e-06
-1.13252e-05
-5.90683e-06
-1.41873e-05
-5.23298e-06
-1.64784e-05
-3.66635e-06
-1.7231e-05
-1.5001e-06
-1.48343e-05
-7.16467e-06
-1.67383e-06
7.9208e-06
-3.51345e-06
1.4964e-05
-4.31547e-06
1.64191e-05
-4.08914e-06
1.52211e-05
-3.19342e-06
1.29887e-05
-1.9992e-06
1.04959e-05
-7.95695e-07
8.07032e-06
2.1872e-07
5.81018e-06
9.17575e-07
3.7054e-06
1.22493e-06
1.69749e-06
1.10141e-06
-2.94353e-07
5.40448e-07
-2.36277e-06
-4.23475e-07
-4.60599e-06
-1.69303e-06
-7.11586e-06
-3.07277e-06
-9.94543e-06
-4.23108e-06
-1.3029e-05
-4.69581e-06
-1.60136e-05
-3.96726e-06
-1.79596e-05
-1.94495e-06
-1.68566e-05
-9.10962e-06
-2.23071e-06
1.01515e-05
-3.59036e-06
1.63236e-05
-3.07792e-06
1.59066e-05
-1.3441e-06
1.34872e-05
8.96715e-07
1.07479e-05
3.15455e-06
8.2381e-06
5.13762e-06
6.08725e-06
6.68813e-06
4.25967e-06
7.72523e-06
2.6683e-06
8.20593e-06
1.21678e-06
8.10328e-06
-1.917e-07
7.39847e-06
-1.65795e-06
6.08635e-06
-3.29387e-06
4.19876e-06
-5.22826e-06
1.85381e-06
-7.60049e-06
-6.61958e-07
-1.05133e-05
-2.79233e-06
-1.38833e-05
-3.66217e-06
-1.70897e-05
-2.41156e-06
-1.81072e-05
-1.15212e-05
-2.57382e-06
1.27253e-05
-2.1835e-06
1.59333e-05
7.17976e-07
1.30051e-05
4.4694e-06
9.73581e-06
8.13304e-06
7.08423e-06
1.13012e-05
5.0699e-06
1.38287e-05
3.5598e-06
1.56876e-05
2.40072e-06
1.68912e-05
1.46476e-06
1.74544e-05
6.53589e-07
1.73759e-05
-1.1319e-07
1.663e-05
-9.12119e-07
1.51668e-05
-1.83061e-06
1.29232e-05
-2.98466e-06
9.86147e-06
-4.5388e-06
6.06177e-06
-6.71355e-06
1.91222e-06
-9.73373e-06
-1.55969e-06
-1.36178e-05
-2.45836e-06
-1.72085e-05
-1.39795e-05
-7.85012e-07
1.35103e-05
4.08078e-06
1.10675e-05
1.02975e-05
6.78841e-06
1.57935e-05
4.23977e-06
2.01579e-05
2.71988e-06
2.34579e-05
1.76992e-06
2.58606e-05
1.15711e-06
2.75212e-05
7.40034e-07
2.85537e-05
4.32281e-07
2.90261e-05
1.81217e-07
2.89619e-05
-4.89776e-08
2.83384e-05
-2.88688e-07
2.70816e-05
-5.73724e-07
2.50548e-05
-9.57936e-07
2.20515e-05
-1.5355e-06
1.78154e-05
-2.47739e-06
1.21723e-05
-4.09066e-06
5.47768e-06
-6.92323e-06
-1.29179e-07
-1.16017e-05
-1.41087e-05
1.35103e-05
2.45779e-05
3.13663e-05
3.5606e-05
3.83259e-05
4.00958e-05
4.1253e-05
4.1993e-05
4.24253e-05
4.26065e-05
4.25575e-05
4.22688e-05
4.16951e-05
4.07372e-05
3.92017e-05
3.67243e-05
3.26336e-05
2.57104e-05
1.41087e-05
)
;

boundaryField
{
    movingWall
    {
        type            calculated;
        value           uniform 0;
    }
    fixedWalls
    {
        type            calculated;
        value           uniform 0;
    }
    frontAndBack
    {
        type            empty;
        value           nonuniform List<scalar> 0();
    }
}


// ************************************************************************* //
