/*--------------------------------*- C++ -*----------------------------------*\
  =========                 |
  \\      /  F ield         | OpenFOAM: The Open Source CFD Toolbox
   \\    /   O peration     | Website:  https://openfoam.org
    \\  /    A nd           | Version:  8
     \\/     M anipulation  |
\*---------------------------------------------------------------------------*/
FoamFile
{
    version     2.0;
    format      ascii;
    class       volScalarField;
    location    "66";
    object      p;
}
// * * * * * * * * * * * * * * * * * * * * * * * * * * * * * * * * * * * * * //

dimensions      [0 2 -2 0 0 0 0];

internalField   nonuniform List<scalar> 
2844
(
0.0260444
0.0113013
-0.0110997
-0.0381902
-0.0553563
-0.0670409
-0.0603924
-0.0530993
-0.0446262
-0.0321832
-0.0181699
-0.00506771
0.0034653
0.0083778
0.0103896
0.0107741
0.00758523
0.00419321
0.00403665
0.00229293
0.0333955
0.0168319
-0.009481
-0.0428232
-0.0620025
-0.0716353
-0.0676469
-0.057107
-0.0475832
-0.0351513
-0.0195786
-0.00101133
0.00996484
0.0124748
0.0139667
0.0134413
0.00894443
0.00558721
0.00588743
0.00368768
0.0509738
0.028793
-0.00652491
-0.0573889
-0.0775495
-0.0848751
-0.067547
-0.0602614
-0.0544271
-0.0380526
-0.0216258
-0.00554633
0.00263884
0.00444821
0.00566762
0.0110859
0.000697281
-0.000439243
0.00678025
0.00362891
0.0780968
0.050573
-0.000872231
-0.0721507
-0.107059
-0.106777
-0.091633
-0.0760109
-0.0649576
-0.0513759
-0.0378149
0.0100853
0.017494
0.000146546
0.0108291
0.0148933
-0.00820951
-0.000335751
0.0135493
0.00999349
0.124321
0.0794765
0.00427771
-0.138032
-0.139434
-0.127851
-0.102902
-0.0874765
-0.0857358
-0.0648419
-0.032326
-0.0172117
-0.0348293
-0.0612107
-0.0210997
0.00159174
-0.0394717
-0.00635768
0.00924819
0.00310015
0.194485
0.142351
0.0301991
-0.211872
-0.267903
-0.185028
-0.150488
-0.105675
-0.125213
-0.118975
-0.107459
-0.0373877
-0.062339
-0.114868
-0.0308802
-0.0560371
-0.0749268
-0.00202689
0.0206555
0.0126893
0.28288
0.19043
-0.0929125
-0.401374
-0.487403
-0.268558
-0.214211
-0.18303
-0.210849
-0.178803
-0.102954
-0.0694413
-0.288053
-0.398968
-0.361255
-0.283086
-0.106238
-0.00645911
-0.0114476
-0.00610646
0.391238
0.435664
-0.00980431
-0.756578
-0.79708
-0.258858
-0.307907
-0.215713
-0.434439
-0.356661
-0.163275
-0.160985
-0.30381
-0.376028
-0.251461
-0.122452
0.013962
0.0508385
0.0567236
0.0168173
0.738708
0.596147
0.156999
-0.276758
-0.31401
-0.535948
-0.37961
-0.135239
-0.239989
-0.0598239
-0.112185
-0.166097
-0.157249
-0.0635863
0.00119991
0.0259492
0.0071284
1.00911
0.747031
1.40554
-0.349864
-0.497678
-0.552802
-0.326418
-0.0908249
-0.24115
-0.0650592
-0.0851376
-0.0856224
-0.0831359
-0.0564425
-0.0109196
0.00925258
-0.00911787
1.21992
0.743991
-0.468699
-0.620899
-0.267086
-0.320563
-0.121423
-0.167676
-0.00123066
0.0238982
-0.00579636
-0.0584191
-0.0273581
-0.00433919
-0.00679246
-0.00568181
0.478476
0.438061
0.742937
-0.545824
-0.659566
-0.0998349
0.0843766
-0.0087495
-0.0305685
0.0440229
0.010812
-0.0291486
-0.0666564
-0.035488
-0.0119074
-0.00424197
0.0152631
0.328267
0.325936
-0.392811
-0.672298
-0.550328
-0.404256
0.0884023
0.0344035
-0.0650525
0.0110078
0.0642312
-0.0100629
0.0110698
0.0354485
0.0153713
-0.0719443
-0.178483
-0.0690248
0.103238
-0.0356546
-0.250649
-0.776031
-1.04149
-0.461904
-0.353519
-0.328553
-0.073061
-0.0244201
-0.0602094
-0.0566965
0.0280638
0.014361
0.0158231
0.024476
-0.0149911
-0.114798
-0.216039
-0.0955171
0.0529065
-0.00279077
-0.123842
-0.344774
-0.441531
-0.391462
-0.312002
-0.261716
-0.123398
-0.0442542
-0.0132675
0.0234681
0.06561
0.0727805
0.0369029
0.0219942
0.0295215
-0.0266577
-0.0755856
-0.0348896
-0.0365688
-0.082982
-0.152217
-0.313478
-0.340961
-0.305152
-0.232578
-0.213457
-0.115149
-0.0639105
-0.0332893
-0.0172203
0.0221541
0.0250715
0.047335
0.0728042
0.0441487
0.0104872
-0.0675551
-0.0176297
-0.0739434
-0.102173
-0.142962
-0.217069
-0.255065
-0.240207
-0.213211
-0.179437
-0.119542
-0.0736726
-0.0391795
-0.00687928
0.0291323
0.0465128
0.0429356
0.0504196
0.0552096
0.066775
0.0358107
0.0112837
-0.0993982
-0.121897
-0.154424
-0.208144
-0.230812
-0.224203
-0.193423
-0.16215
-0.117746
-0.0795311
-0.045276
-0.0175084
0.00831873
0.0279855
0.0438083
0.0519845
0.0534467
0.0553016
0.0355611
0.0145072
-0.116185
-0.130896
-0.151829
-0.183574
-0.199132
-0.197412
-0.178804
-0.152042
-0.113566
-0.0788382
-0.048757
-0.0202941
0.00709547
0.0254814
0.0378183
0.0465624
0.0512392
0.0501472
0.0383407
0.0151477
-0.122466
-0.135826
-0.154583
-0.181133
-0.194571
-0.192694
-0.175232
-0.147849
-0.114112
-0.0810289
-0.0499721
-0.0223503
0.0024435
0.0227776
0.0371504
0.0446886
0.0478137
0.0450678
0.0351322
0.0143243
0.0260459
0.0112987
-0.0110994
-0.0382012
-0.0553577
-0.0671156
-0.0603839
-0.0531103
-0.0446273
-0.0321776
-0.0181648
-0.0050541
0.00342655
0.00844381
0.0104488
0.0107695
0.00757893
0.00419603
0.00403518
0.00229073
0.0334015
0.016824
-0.00949988
-0.0429108
-0.0620127
-0.071556
-0.0676602
-0.0571228
-0.0475754
-0.0351573
-0.019592
-0.000921345
0.00993302
0.0126152
0.0141305
0.01343
0.00876918
0.00560309
0.00586858
0.00366432
0.0509753
0.0287791
-0.00657161
-0.057697
-0.0777081
-0.0848493
-0.0675119
-0.0603143
-0.0545147
-0.0380838
-0.0212587
-0.00525017
0.00332974
0.0048738
0.00596818
0.010591
0.000402737
-0.000417572
0.00672559
0.00364412
0.0781308
0.0504477
-0.00117351
-0.0737497
-0.108117
-0.106727
-0.0918912
-0.0764901
-0.0651002
-0.0512822
-0.038457
0.0108401
0.0178074
0.00160104
0.011072
0.0126026
-0.0102634
-0.000912488
0.0129342
0.0098312
0.12448
0.0789378
0.00268935
-0.143824
-0.142345
-0.129121
-0.103345
-0.0880258
-0.0878086
-0.0676252
-0.0331446
-0.0159092
-0.0392835
-0.0675842
-0.0275852
-0.00323857
-0.0404887
-0.0074571
0.0077955
0.00314884
0.19444
0.138424
0.0290282
-0.207239
-0.274997
-0.192692
-0.154754
-0.107507
-0.129139
-0.120797
-0.110124
-0.0543012
-0.0763695
-0.100637
-0.0313308
-0.0608832
-0.0804598
-0.00421101
0.0182783
0.0112324
0.28244
0.170973
-0.106366
-0.389695
-0.488148
-0.281076
-0.219991
-0.190461
-0.213566
-0.189945
-0.10942
-0.0845198
-0.299682
-0.405227
-0.370151
-0.297527
-0.11397
-0.00717951
-0.0120452
-0.00531866
0.392369
0.404779
-0.0380482
-0.769429
-0.828518
-0.31441
-0.273298
-0.21951
-0.444963
-0.34978
-0.160604
-0.172947
-0.317438
-0.385841
-0.252627
-0.120821
0.0147971
0.0544505
0.0605199
0.0190912
0.71893
0.539536
0.167019
-0.265295
-0.329432
-0.557584
-0.367544
-0.133663
-0.245359
-0.0661865
-0.110288
-0.170908
-0.161515
-0.0659222
0.00352888
0.0250304
0.00585887
1.02974
0.79415
1.49622
-0.351762
-0.533671
-0.565291
-0.323738
-0.108248
-0.250905
-0.0736265
-0.0916775
-0.0973068
-0.0923607
-0.0551152
-0.00868904
0.0102382
-0.00833198
1.25849
0.736484
-0.467909
-0.654692
-0.283995
-0.290218
-0.128348
-0.169945
-0.00541704
0.0156133
-0.014148
-0.0642209
-0.0301689
-0.00563854
-0.00475647
-0.00265037
0.515876
0.35857
0.693312
-0.52925
-0.774177
-0.122288
0.132453
-0.0086774
-0.0264915
0.0323701
0.000837998
-0.029507
-0.0629136
-0.0357406
-0.0158133
-0.0121364
0.0131069
0.336198
0.267419
-0.407298
-0.672186
-0.561768
-0.483839
0.0352897
0.0462887
-0.0595485
0.0131836
0.0582942
-0.0155999
0.00980486
0.0336447
0.0164046
-0.0746843
-0.191354
-0.0733172
0.103145
-0.0366362
-0.275014
-0.760086
-1.03386
-0.461006
-0.355791
-0.34448
-0.0959269
-0.0512689
-0.0558925
-0.051821
0.0254125
0.011491
0.0137836
0.0210244
-0.0135112
-0.118739
-0.233588
-0.101427
0.0535821
-0.00495141
-0.122915
-0.318406
-0.458466
-0.396091
-0.316341
-0.267689
-0.126764
-0.0489064
-0.0135197
0.0225715
0.0646315
0.0749418
0.0357224
0.0183756
0.0258082
-0.0281868
-0.0787934
-0.0362441
-0.0360698
-0.0857581
-0.150672
-0.312362
-0.343147
-0.311663
-0.232503
-0.212246
-0.114429
-0.0645527
-0.0342924
-0.0176241
0.0214482
0.0259751
0.0472947
0.0707209
0.0436292
0.0104767
-0.0721549
-0.0172237
-0.0738971
-0.102409
-0.142389
-0.216706
-0.256156
-0.240072
-0.213231
-0.179758
-0.11962
-0.0749936
-0.0402751
-0.00722249
0.0281263
0.0454127
0.0427163
0.0506427
0.0555607
0.0672171
0.0324037
0.00993942
-0.0993882
-0.122044
-0.154379
-0.208308
-0.23072
-0.224342
-0.19354
-0.162118
-0.117748
-0.0795574
-0.0453553
-0.0176229
0.00828999
0.0276577
0.0437379
0.0522545
0.0535808
0.054948
0.034164
0.0135352
-0.116176
-0.130929
-0.15182
-0.183574
-0.199161
-0.197395
-0.178797
-0.152083
-0.113527
-0.0788768
-0.0488286
-0.020367
0.00704509
0.0254012
0.0378385
0.0466729
0.051113
0.0499786
0.0382043
0.0149736
-0.122464
-0.135836
-0.154583
-0.181135
-0.194569
-0.192705
-0.17524
-0.147859
-0.114108
-0.0810345
-0.0499701
-0.0223564
0.00244186
0.0227814
0.0370994
0.0447105
0.0478168
0.045067
0.0351928
0.0143572
0.0260486
0.0112951
-0.0111074
-0.0381929
-0.0553418
-0.0671216
-0.0603754
-0.0530964
-0.0446345
-0.0321812
-0.0181584
-0.00501943
0.00333888
0.00864332
0.0105845
0.0108253
0.00759597
0.00421605
0.00403417
0.00229163
0.0334119
0.0168198
-0.0095198
-0.0428994
-0.0619767
-0.071504
-0.0676647
-0.0570459
-0.0475333
-0.0351529
-0.0195026
-0.000619673
0.0102123
0.0133248
0.0144882
0.0135771
0.00871257
0.00564497
0.00584881
0.00364302
0.0509887
0.028785
-0.00661103
-0.0576746
-0.0776397
-0.0847295
-0.0673944
-0.0602853
-0.0546024
-0.0381628
-0.0205299
-0.00430562
0.00526714
0.00717322
0.00621277
0.0103191
0.000710312
-0.000236409
0.00673887
0.00372753
0.0782201
0.0507351
-0.00154344
-0.0739134
-0.107613
-0.106146
-0.0916927
-0.0756456
-0.063954
-0.0512897
-0.0370289
0.0161945
0.0260091
0.00440134
0.00969922
0.0108321
-0.00923817
0.000621729
0.0127583
0.00965221
0.12466
0.0804841
0.00264446
-0.144776
-0.141407
-0.130122
-0.100945
-0.0850252
-0.0887079
-0.0681189
-0.0250835
-0.0125131
-0.0475512
-0.0724881
-0.0314845
-0.00335193
-0.0365114
-0.00601169
0.00838583
0.0035166
0.196209
0.140494
0.0205507
-0.204994
-0.252639
-0.186019
-0.148673
-0.0989178
-0.128703
-0.12071
-0.106331
-0.0457496
-0.0695433
-0.0944852
-0.0344861
-0.0628004
-0.0777231
-0.00208317
0.0182839
0.0111398
0.289253
0.177286
-0.0645006
-0.389312
-0.469995
-0.300324
-0.217068
-0.183069
-0.214669
-0.185483
-0.113652
-0.0860118
-0.287396
-0.411121
-0.377463
-0.295682
-0.109447
-0.00509836
-0.0104014
-0.00382767
0.403383
0.438026
-0.0409679
-0.782907
-0.870917
-0.360423
-0.271414
-0.228344
-0.43409
-0.327648
-0.150246
-0.179984
-0.306568
-0.376388
-0.244662
-0.115129
0.0199958
0.0606877
0.0639113
0.0206988
0.749172
0.51648
0.202283
-0.245778
-0.334644
-0.538199
-0.352519
-0.14201
-0.237685
-0.0271199
-0.0706455
-0.155589
-0.15742
-0.0544791
0.00804482
0.0223638
0.004037
1.06712
0.901115
1.21254
-0.351082
-0.537864
-0.539471
-0.315249
-0.116146
-0.226696
-0.0504807
-0.08783
-0.0878508
-0.0902075
-0.0523984
-0.00306854
0.0101378
-0.0104068
1.26414
0.752231
-0.466764
-0.641161
-0.228062
-0.251733
-0.122989
-0.153634
-0.00975059
0.012872
-0.0100041
-0.0604584
-0.0324822
-0.00643332
-0.00729397
-0.00442382
0.528352
0.151114
0.704363
-0.512429
-0.698944
-0.0648915
0.11111
0.0046967
-0.00914796
0.0229993
-0.00311937
-0.0259021
-0.0614629
-0.0367044
-0.0143587
-0.00542175
0.0127613
0.362142
0.282342
-0.335705
-0.692046
-0.557006
-0.538823
0.0598567
0.0492875
-0.0411768
0.0113355
0.0531525
-0.0138026
0.0107879
0.0343469
0.0168619
-0.0717178
-0.18106
-0.0661315
0.104233
-0.0330313
-0.254905
-0.711176
-1.04987
-0.472477
-0.340855
-0.334566
-0.0897256
-0.0474879
-0.0520428
-0.0450806
0.0243428
0.0102732
0.01187
0.0222441
-0.01118
-0.126508
-0.237095
-0.0965811
0.0538312
-0.00204844
-0.120767
-0.309731
-0.483884
-0.392603
-0.312223
-0.262429
-0.123684
-0.0486211
-0.0127064
0.0230414
0.0635226
0.0755078
0.036591
0.0170485
0.0268038
-0.025506
-0.0678307
-0.02975
-0.0359208
-0.0857719
-0.1506
-0.313749
-0.345333
-0.309765
-0.231282
-0.208633
-0.111327
-0.0625211
-0.0348094
-0.0173501
0.0227119
0.0283113
0.0490003
0.0716595
0.0443465
0.0114751
-0.0702856
-0.0138879
-0.073895
-0.102117
-0.142755
-0.217596
-0.256447
-0.239267
-0.212983
-0.179644
-0.119361
-0.07459
-0.0406037
-0.00739068
0.0275273
0.0466414
0.042873
0.0509733
0.0558111
0.0668871
0.032688
0.0105278
-0.0993811
-0.122201
-0.154495
-0.208572
-0.230283
-0.22412
-0.193431
-0.162103
-0.1178
-0.0794017
-0.0453749
-0.0174138
0.00842432
0.0278021
0.0435753
0.052106
0.0532185
0.0537108
0.0328966
0.0130339
-0.11616
-0.130963
-0.151862
-0.183596
-0.199107
-0.197327
-0.178796
-0.152088
-0.113474
-0.0788432
-0.0488458
-0.0204454
0.00698453
0.0253756
0.0378729
0.0466173
0.0511308
0.0497501
0.0380095
0.0148451
-0.122462
-0.135849
-0.154587
-0.181133
-0.194545
-0.192689
-0.175235
-0.147866
-0.114107
-0.0810372
-0.0499646
-0.0223533
0.00244302
0.0227892
0.0370816
0.0447052
0.0478017
0.0450139
0.0349684
0.0142723
-0.416184
-0.0949866
-1.02343
-0.0419621
-0.423512
-0.102337
-1.01017
-0.881562
-0.766397
-0.893633
-0.435958
-0.821093
-0.454631
-0.282419
-0.270877
-0.308693
-0.289965
-0.280243
-0.282521
-0.306872
0.492927
0.542132
1.03179
0.575636
0.449028
0.56065
1.03533
0.689752
0.167254
0.760558
-0.259136
-0.309155
-0.253887
-0.309353
-0.267141
-0.341422
-0.313287
-0.273828
-0.265306
-0.343068
-0.316327
1.34653
0.832075
1.32327
0.773607
1.18139
0.780179
1.14539
1.42079
-0.335783
-0.336986
-0.392098
-0.431341
-0.394715
-0.351123
-0.392297
-0.432163
-0.397351
1.33259
0.892988
1.39342
0.781167
1.21156
0.938969
1.3313
1.45326
1.52084
-0.524627
-0.519696
-0.548647
-0.519975
-0.453943
-0.467579
-0.555706
-0.519519
-0.461561
0.95018
0.454857
0.230793
0.312628
0.971537
0.379867
0.144143
-0.185689
0.650285
-0.246395
-0.540628
-0.582457
-0.536331
-0.577074
-0.627092
-0.614026
-0.542688
-0.540097
-0.630331
-0.612424
-0.545012
-1.27191
-0.23942
-0.468809
-0.411156
-1.2876
-0.238806
-0.506444
-1.01823
-1.19044
-1.01423
-1.20979
-1.15707
-0.876174
-1.17619
-0.901761
-0.621506
-0.713903
-0.64809
-0.672365
-0.609081
-0.723342
-0.630832
-0.394694
-0.0770558
-0.998529
-0.0422046
-0.378157
-0.041903
-0.952837
-0.895908
-0.781371
-0.915487
-0.459658
-0.858446
-0.484872
-0.278572
-0.290562
-0.30445
-0.341649
-0.272929
-0.335744
-0.278438
0.371967
0.490737
0.999453
0.523916
0.281902
0.536747
0.990094
0.777125
0.181421
0.85894
-0.251201
-0.30846
-0.242785
-0.309465
-0.257064
-0.342219
-0.317847
-0.255988
-0.249069
-0.339592
-0.318599
1.1495
0.800455
1.09033
0.876327
1.00256
0.788828
1.07195
1.41076
-0.337397
-0.336739
-0.396864
-0.432855
-0.399842
-0.351421
-0.400692
-0.43322
-0.402286
1.18428
0.894933
1.26278
0.710803
1.14598
0.833758
0.98927
1.65978
1.39054
-0.518339
-0.517828
-0.565884
-0.518501
-0.473406
-0.467373
-0.56206
-0.517058
-0.471001
1.03623
0.342822
-0.0127198
0.229397
0.991173
0.381139
-0.102846
-0.259951
0.676122
-0.268741
-0.534962
-0.575959
-0.533261
-0.576305
-0.641473
-0.604125
-0.545284
-0.526637
-0.629633
-0.603009
-0.544998
-1.29244
-0.263094
-0.554602
-0.393579
-1.34077
-0.274002
-0.60094
-1.00638
-1.2127
-0.970402
-1.17621
-1.17185
-0.902542
-1.14035
-0.871097
-0.615743
-0.716416
-0.633516
-0.683129
-0.601713
-0.71288
-0.619534
-0.376916
-0.00794887
-0.945294
-0.0269368
-0.382402
0.0264362
-0.94572
-0.923956
-0.742903
-0.923828
-0.493455
-0.84092
-0.490558
-0.2643
-0.344652
-0.256478
-0.331712
-0.253817
-0.338244
-0.254595
0.21141
0.458176
0.968587
0.544394
0.205962
0.490695
0.932843
0.890172
0.241684
0.977716
-0.24061
-0.309559
-0.240513
-0.308718
-0.241237
-0.3354
-0.32139
-0.241195
-0.234572
-0.334596
-0.31712
0.891094
0.833449
1.11702
0.916167
0.914406
0.862245
1.31984
1.24396
-0.336262
-0.333965
-0.410256
-0.432532
-0.404103
-0.350226
-0.409864
-0.429529
-0.401533
1.16781
0.950081
1.00482
0.804683
1.22944
1.02466
1.04144
1.30666
1.41877
-0.517787
-0.519745
-0.569998
-0.516283
-0.475104
-0.464419
-0.564919
-0.51566
-0.467022
0.912879
0.411379
-0.260769
0.166974
0.839913
0.444704
-0.257108
-0.275745
0.92313
-0.294902
-0.532071
-0.581803
-0.530576
-0.582319
-0.629381
-0.602185
-0.557337
-0.507729
-0.609206
-0.600959
-0.558595
-1.35884
-0.255694
-0.633076
-0.240061
-1.34058
-0.220998
-0.633711
-0.956327
-1.16189
-0.920267
-1.12758
-1.11338
-0.854146
-1.07818
-0.823412
-0.592137
-0.701973
-0.606014
-0.692769
-0.588825
-0.682022
-0.60763
-0.493595
-0.525786
-0.70879
-0.39274
-0.497158
-0.534659
-0.712656
-0.374991
-0.760519
-0.558845
-0.492405
-0.394335
-0.766029
-0.557052
-1.19079
-0.843531
-0.954379
-0.763753
-0.85609
-0.959782
-1.17836
-0.9722
-0.710638
-1.30633
-0.807223
-0.721169
-1.31716
-0.967206
-0.213019
-0.136737
0.395842
0.147344
-0.130961
0.380553
-0.202781
-0.229135
-0.231661
1.44497
-0.413133
-0.379298
-0.379158
-0.349856
-0.378999
-0.378793
-0.413321
-0.483398
-0.46796
-0.484143
-0.468292
-0.468379
-0.484003
-0.482987
0.369561
0.714183
0.341183
-1.96158
-1.51155
-1.51434
-1.95889
-0.746475
-0.695132
-0.690281
-0.672782
-0.692766
-0.689654
-0.749555
-0.978422
-0.621784
-0.707949
-0.77205
-0.977066
-0.628082
-0.716611
-0.7731
-0.654011
-0.578756
-1.03008
-0.779807
-0.654141
-0.58507
-0.496449
-0.539473
-0.713336
-0.391495
-0.494173
-0.547012
-0.717703
-0.386443
-0.767337
-0.554761
-0.480454
-0.383325
-0.76649
-0.552208
-1.17175
-0.88645
-0.929362
-0.779295
-1.18088
-0.896449
-0.92577
-0.992962
-0.743831
-1.3238
-0.839206
-0.989947
-0.751534
-1.32324
-0.129035
-0.0652703
0.328843
0.164721
-0.153414
-0.0620267
0.299432
-0.25618
-0.263753
1.5708
-0.408173
-0.375816
-0.377904
-0.351805
-0.409438
-0.374258
-0.377438
-0.489688
-0.472099
-0.483948
-0.467981
-0.48855
-0.471984
-0.484198
0.299459
0.675419
0.26584
-1.93885
-1.52204
-1.94842
-1.51863
-0.721137
-0.67996
-0.680683
-0.674062
-0.726858
-0.673173
-0.683453
-0.976661
-0.627853
-0.722069
-0.729869
-0.949115
-0.614538
-0.714641
-0.796862
-0.655625
-0.587708
-1.05169
-0.806143
-0.656
-0.592813
-0.492381
-0.545733
-0.731823
-0.383812
-0.485163
-0.52168
-0.732
-0.381594
-0.784605
-0.555795
-0.460624
-0.37484
-0.788098
-0.572102
-1.14717
-0.909701
-0.895833
-0.789555
-1.14114
-0.912613
-0.910209
-0.980733
-0.757793
-1.30582
-0.867529
-0.986693
-0.751064
-1.29377
-0.0563824
-0.0756618
0.272706
0.218472
-0.0563682
-0.0641459
0.280201
-0.258839
-0.253706
1.10873
-0.405255
-0.372493
-0.37507
-0.35067
-0.406275
-0.371483
-0.374001
-0.494825
-0.47112
-0.48513
-0.46595
-0.494293
-0.470402
-0.485252
0.302579
0.747019
0.358904
-1.81994
-1.46337
-1.85727
-1.42966
-0.717146
-0.663716
-0.699541
-0.694678
-0.707925
-0.667701
-0.701784
-0.956981
-0.617703
-0.708414
-0.705777
-0.965506
-0.626293
-0.703923
-0.800937
-0.652875
-0.598137
-1.05089
-0.78922
-0.645914
-0.598555
-0.474294
-0.74422
-0.591117
-1.0305
-0.75302
-0.608433
-0.465333
-0.466342
-1.02132
-0.765702
-0.593541
-0.758405
-0.605669
-0.460304
-1.30347
-0.87975
-1.36076
-0.88804
-0.887037
-1.37117
-1.3
-1.58694
-1.20382
-1.20623
-1.59546
-1.19294
-0.766105
-0.877958
-0.939237
-0.8669
-0.950908
-1.19027
-1.30292
-0.889931
-0.901085
-1.38163
-0.892825
-1.37753
-1.30415
-1.56554
-1.19414
-1.19908
-1.54861
-0.688233
-0.575484
-0.451115
-0.440236
-0.579957
-0.454735
-0.683126
-0.777194
-0.466917
-0.474445
-0.765489
-0.979356
-0.810848
-0.739521
-1.32556
-0.727134
-1.32128
-0.984927
-0.696269
-0.444036
-0.580778
-0.472982
-0.575722
-0.464945
-0.707249
-0.787907
-0.502419
-0.487863
-0.804757
-0.202512
-0.26937
-0.206386
-0.27251
-0.270385
-0.208364
-0.200671
-0.207501
-0.276186
-0.278943
-0.2243
-0.269816
-0.215434
-0.216291
-0.493076
-0.477059
0.575998
0.684311
0.549538
-0.189217
0.158269
-0.0759532
0.367413
-0.103255
0.376417
-0.181087
-0.430467
-0.445794
0.749285
0.572444
0.563784
-0.266577
-0.246568
-0.280006
-0.258196
-0.247862
-0.280011
-0.266495
-0.292058
-0.309682
-0.292172
-0.246085
-0.23713
-0.266637
-0.256255
-0.253269
-0.279986
-0.249931
-0.280422
-0.266415
-0.308634
-0.290832
-0.29117
1.01046
1.1265
1.4189
1.32341
1.17512
1.39206
0.969936
0.59562
0.958363
1.00536
1.28369
0.935905
1.03114
0.590673
0.963255
1.29416
1.06972
1.28759
1.15346
1.34896
0.917291
0.58758
1.20907
0.908718
0.918783
0.919808
1.00876
0.570692
1.41668
-0.33601
-0.336575
-0.42396
-0.401123
-0.441683
-0.431436
-0.401286
-0.441719
-0.423895
-0.411684
-0.350636
-0.377069
-0.37828
-0.378065
-0.378555
-0.411022
-0.423865
-0.431704
-0.40245
-0.441639
-0.401736
-0.441619
-0.424268
0.662972
0.701034
1.02777
1.30008
0.738356
1.03087
0.657839
0.830308
1.22357
1.34133
1.36483
1.18809
1.21486
0.927326
0.690259
1.24612
0.87869
1.04345
0.821155
1.03549
0.709222
0.80628
1.36932
1.15336
1.15815
1.17242
1.16025
0.834998
1.45065
1.46573
-0.523742
-0.521439
-0.493223
-0.487582
-0.510999
-0.520383
-0.487347
-0.511275
-0.493188
-0.484459
-0.467831
-0.469964
-0.483695
-0.469408
-0.483834
-0.485083
-0.493759
-0.519662
-0.48595
-0.50974
-0.486702
-0.510918
-0.493154
-0.500621
0.00934768
-0.471557
-0.211269
-0.0353952
-0.491066
-0.547843
-1.02469
-1.02415
0.68769
0.304682
0.322043
-0.442587
-0.235658
-0.0833034
-0.541635
-0.0591159
-0.512721
-0.373224
-0.96
-0.99455
-0.55214
-0.541252
-0.552823
-0.670829
-0.669608
-0.579332
-0.563559
-0.602424
-0.582545
-0.563459
-0.602568
-0.579185
-0.536927
-0.548542
-0.548861
-0.664365
-0.668177
-0.579509
-0.577804
-0.561732
-0.599798
-0.561606
-0.601028
-0.579588
-0.756705
-0.85411
-1.13047
-1.27812
-0.858759
-1.13344
-0.753866
-0.757546
-1.28303
-0.860511
-1.13183
-0.858085
-1.13952
-0.745395
-1.41494
-1.08257
-1.15099
-1.02682
-1.10569
-1.15561
-1.39771
-1.71567
-1.82467
-1.18208
-1.20075
-1.82261
-1.18803
-1.71795
-1.95921
-1.5207
-1.51863
-1.95531
-1.42907
-1.02408
-1.13903
-1.1524
-1.12455
-1.15537
-1.44444
-1.70324
-1.20589
-1.79691
-1.19094
-1.81158
-1.18845
-1.68488
-1.24475
-0.925513
-0.934153
-1.23366
-1.38672
-1.72213
-1.04409
-1.16796
-1.73054
-1.05316
-1.37262
-1.10062
-0.896293
-0.945546
-0.884918
-0.904314
-0.959951
-1.08897
-1.25547
-0.96526
-0.949347
-1.26596
-1.4044
-1.17446
-1.73774
-1.07591
-1.73395
-1.06224
-1.41797
-1.11674
-0.893372
-0.937315
-0.967601
-0.921736
-0.954247
-1.13665
-0.742607
-0.670912
-0.686593
-0.684562
-0.692547
-0.682994
-0.736207
-0.45207
-0.762485
-0.577477
-0.984371
-0.448058
-0.765891
-0.566801
-0.44947
-0.969433
-0.778293
-0.552755
-0.770321
-0.559959
-0.450196
-1.31315
-0.907452
-1.38339
-0.901697
-1.30721
-0.916591
-1.38402
-1.55403
-1.19209
-1.54917
-1.19477
-1.15665
-0.78012
-0.906777
-0.899774
-0.90116
-0.910977
-1.14639
-1.318
-0.906145
-0.935464
-1.38135
-0.924575
-1.38295
-1.32215
-1.56334
-1.19361
-1.19557
-1.56667
-0.721716
-0.579946
-0.480981
-0.468484
-0.715421
-0.585245
-0.486644
-0.825186
-0.517251
-0.814676
-0.528028
-0.993652
-0.848931
-0.756888
-1.31255
-0.75535
-1.31836
-0.99229
-0.724466
-0.476348
-0.593335
-0.494572
-0.589564
-0.490488
-0.722873
-0.829492
-0.535666
-0.53487
-0.828769
-0.24542
-0.283181
-0.241544
-0.305297
-0.230817
-0.294646
-0.260537
-0.260732
-0.320681
-0.310717
-0.295826
-0.303528
-0.282552
-0.272475
-0.439006
-0.444023
0.587996
0.78763
0.588348
-0.100614
0.162209
-0.0742473
0.265216
-0.0697553
0.26527
-0.063576
-0.449695
-0.452223
0.821017
0.593194
0.589763
-0.265511
-0.253862
-0.280102
-0.248956
-0.266249
-0.252692
-0.27902
-0.289059
-0.309177
-0.288023
-0.264298
-0.266931
-0.264466
-0.245491
-0.240934
-0.275422
-0.247068
-0.277285
-0.263529
-0.309257
-0.287106
-0.287655
0.803683
1.02207
1.22748
1.16806
0.870138
0.944957
1.13402
0.566901
0.911962
0.825482
1.05895
0.557758
0.934928
0.762436
0.788893
1.12237
0.80845
0.974238
0.873804
1.03664
0.812593
0.531189
1.05298
0.988293
0.666716
0.968942
0.682376
0.50895
1.61985
-0.337117
-0.336998
-0.425759
-0.403381
-0.442117
-0.433334
-0.425287
-0.404079
-0.441953
-0.407232
-0.351713
-0.371951
-0.376043
-0.373402
-0.376843
-0.405991
-0.426425
-0.4335
-0.404131
-0.441476
-0.40441
-0.44221
-0.425879
0.69286
0.899121
1.0425
1.16204
0.716442
0.83631
1.03253
0.688897
1.11334
1.03235
1.11176
0.801087
0.992349
0.800805
0.668952
1.1432
0.753311
1.02269
0.748473
1.0173
0.696544
0.614609
0.992625
0.883138
0.557067
0.88035
0.63445
0.617779
1.66097
1.52735
-0.51763
-0.517755
-0.49443
-0.485297
-0.508154
-0.517872
-0.494364
-0.484834
-0.506445
-0.491936
-0.467784
-0.471844
-0.484838
-0.472425
-0.48449
-0.493246
-0.493809
-0.517177
-0.484337
-0.502202
-0.484501
-0.502896
-0.494093
-0.19508
-0.117033
-0.550717
-0.270302
-0.278016
-0.108365
-0.532606
-0.912912
-0.85009
0.655163
0.276342
0.251618
-0.219527
-0.279957
-0.078318
-0.519373
-0.103099
-0.520535
-0.217485
-0.837622
-0.845364
-0.547271
-0.5335
-0.546622
-0.660103
-0.656078
-0.578846
-0.561409
-0.598593
-0.57623
-0.57956
-0.56169
-0.59704
-0.534028
-0.547862
-0.547482
-0.651061
-0.653147
-0.577297
-0.57664
-0.562725
-0.591917
-0.562314
-0.594727
-0.575255
-0.736627
-0.87536
-1.12304
-1.29982
-0.742345
-0.902821
-1.09814
-0.728907
-1.32108
-0.879432
-1.04202
-0.90252
-1.07149
-0.718409
-1.47417
-1.15739
-1.1495
-0.997816
-1.46264
-1.17268
-1.14108
-1.64395
-1.7818
-1.19994
-1.20293
-1.6646
-1.76493
-1.19857
-1.91853
-1.48953
-1.50964
-1.89048
-1.47991
-0.986737
-1.18473
-1.11195
-1.18408
-1.12826
-1.47628
-1.62479
-1.19091
-1.71625
-1.18682
-1.74326
-1.19569
-1.6062
-1.26964
-0.980076
-1.26908
-0.988649
-1.4278
-1.73896
-1.08706
-1.16168
-1.42689
-1.73625
-1.09419
-1.16654
-0.949368
-0.978601
-0.896855
-1.15402
-0.953971
-0.987832
-1.26531
-0.988019
-0.992205
-1.25805
-1.42129
-1.1386
-1.70489
-1.09766
-1.72645
-1.09644
-1.40878
-1.17239
-0.88556
-0.944653
-0.998125
-0.951807
-0.994353
-1.17169
-0.714881
-0.676965
-0.668242
-0.694616
-0.668411
-0.687529
-0.715438
-0.461881
-0.786796
-0.547715
-0.943576
-0.45361
-0.792817
-0.5495
-0.479121
-0.954073
-0.812803
-0.547161
-0.806316
-0.565202
-0.465193
-1.31917
-0.946346
-1.37671
-0.929628
-1.32301
-0.958731
-1.36885
-1.55858
-1.18731
-1.56563
-1.17332
-1.16283
-0.788558
-0.896625
-0.910548
-0.920332
-0.944692
-1.14779
-1.31146
-0.937021
-0.980915
-1.34043
-0.983583
-1.3576
-1.29636
-1.5387
-1.12094
-1.15232
-1.52303
-0.707643
-0.597109
-0.493651
-0.495392
-0.717683
-0.599978
-0.490047
-0.810445
-0.529495
-0.826704
-0.519956
-0.974266
-0.859699
-0.731751
-1.26636
-0.747594
-1.28146
-0.971265
-0.698882
-0.500508
-0.611795
-0.480039
-0.61983
-0.482273
-0.693665
-0.7989
-0.503585
-0.509545
-0.779857
-0.288159
-0.316663
-0.298411
-0.344156
-0.283108
-0.319689
-0.289514
-0.288106
-0.340651
-0.328672
-0.264812
-0.326014
-0.272818
-0.286788
-0.447324
-0.438368
0.58957
0.919158
0.599143
-0.0994285
0.227938
-0.0188733
0.321067
-0.0404982
0.296047
-0.117346
-0.430085
-0.421713
0.934569
0.652663
0.609593
-0.261401
-0.235095
-0.273849
-0.239752
-0.26231
-0.231461
-0.272345
-0.286504
-0.309509
-0.286011
-0.248981
-0.25036
-0.260747
-0.240894
-0.228996
-0.271192
-0.230016
-0.27173
-0.260228
-0.309056
-0.286184
-0.286154
0.882331
0.750877
0.991932
0.8661
0.840317
0.751088
1.0347
0.589646
1.00677
0.702316
1.18372
0.539438
1.03282
0.740269
0.869189
0.846495
0.728457
1.13433
0.728375
1.0816
0.877959
0.65388
1.2564
1.11418
0.784638
1.07063
0.779522
0.700245
1.14234
-0.335538
-0.334606
-0.423812
-0.403344
-0.441046
-0.431464
-0.425362
-0.402142
-0.439827
-0.405668
-0.350176
-0.371771
-0.372655
-0.372191
-0.373019
-0.404937
-0.422788
-0.430289
-0.400212
-0.438093
-0.400933
-0.439379
-0.421084
0.780751
0.797926
1.05089
1.19747
0.742056
0.853862
1.0886
0.682447
0.946323
0.470329
0.999649
0.632489
1.02074
0.473842
0.816618
1.21836
0.938242
1.12936
0.926362
1.11681
0.821757
0.717189
0.970958
1.11312
0.435397
1.08109
0.357888
0.73706
1.27565
1.28289
-0.518084
-0.519598
-0.490796
-0.484054
-0.49718
-0.516241
-0.491917
-0.483979
-0.495038
-0.495279
-0.465037
-0.469105
-0.484685
-0.470096
-0.485068
-0.494649
-0.490139
-0.516787
-0.483175
-0.492582
-0.483809
-0.494151
-0.48898
-0.258806
-0.0481003
-0.524831
-0.29065
-0.242509
-0.00781545
-0.507783
-0.822654
-0.799593
0.780647
0.57569
0.430004
-0.285774
-0.306502
0.140353
-0.407087
0.0560931
-0.4678
-0.296476
-0.769256
-0.772387
-0.548176
-0.530833
-0.548198
-0.645564
-0.644622
-0.568967
-0.5646
-0.58906
-0.579573
-0.572318
-0.564288
-0.585451
-0.532169
-0.547808
-0.549199
-0.641243
-0.64183
-0.566232
-0.58221
-0.563621
-0.582298
-0.563776
-0.583569
-0.564597
-0.702403
-0.857289
-1.02438
-1.36155
-0.712635
-0.830085
-1.01433
-0.697407
-1.35868
-0.786008
-1.02007
-0.812677
-1.01714
-0.684836
-1.46515
-1.18789
-1.09405
-0.947698
-1.4704
-1.1924
-1.08176
-1.5718
-1.68885
-1.17837
-1.14871
-1.58881
-1.66419
-1.16997
-1.78728
-1.37546
-1.40079
-1.76612
-1.46318
-0.939084
-1.18345
-1.05946
-1.19803
-1.07213
-1.45157
-1.56124
-1.14029
-1.63793
-1.15869
-1.64778
-1.16647
-1.55354
-1.23761
-0.978868
-1.24711
-0.967599
-1.37542
-1.67829
-1.09338
-1.10342
-1.39322
-1.65365
-1.09389
-1.1556
-0.935945
-0.997451
-0.837967
-1.16496
-0.927211
-0.992419
-1.23691
-0.952835
-0.957921
-1.22588
-1.36026
-1.0902
-1.62556
-1.09193
-1.63864
-1.09502
-1.35302
-1.14843
-0.829389
-0.916558
-0.99775
-0.920389
-0.996975
-1.14357
-0.711226
-0.694252
-0.664053
-0.702249
-0.664429
-0.702865
-0.709748
)
;

boundaryField
{
    inlet
    {
        type            zeroGradient;
    }
    outlet
    {
        type            fixedValue;
        value           uniform 0;
    }
    up
    {
        type            zeroGradient;
    }
    down
    {
        type            zeroGradient;
    }
    frontAndBack
    {
        type            zeroGradient;
    }
    cylinder
    {
        type            zeroGradient;
    }
}


// ************************************************************************* //
