/*--------------------------------*- C++ -*----------------------------------*\
  =========                 |
  \\      /  F ield         | OpenFOAM: The Open Source CFD Toolbox
   \\    /   O peration     | Website:  https://openfoam.org
    \\  /    A nd           | Version:  8
     \\/     M anipulation  |
\*---------------------------------------------------------------------------*/
FoamFile
{
    version     2.0;
    format      ascii;
    class       surfaceScalarField;
    location    "0.1";
    object      phi;
}
// * * * * * * * * * * * * * * * * * * * * * * * * * * * * * * * * * * * * * //

dimensions      [0 3 -1 0 0 0 0];

internalField   nonuniform List<scalar> 
760
(
3.59869e-07
-2.37257e-12
3.59863e-07
6.26029e-12
3.5985e-07
1.27663e-11
3.59836e-07
1.42355e-11
3.59822e-07
1.43628e-11
3.59808e-07
1.34763e-11
3.59796e-07
1.18601e-11
3.59787e-07
9.80599e-12
3.59779e-07
7.49778e-12
3.59774e-07
4.98169e-12
3.59772e-07
2.22795e-12
3.59773e-07
-7.84716e-13
3.59777e-07
-4.03108e-12
3.59784e-07
-7.42449e-12
3.59795e-07
-1.08127e-11
3.59809e-07
-1.39407e-11
3.59825e-07
-1.6378e-11
3.59842e-07
-1.71501e-11
3.59857e-07
-1.44932e-11
-1.00872e-11
1.09556e-06
-1.5614e-12
1.09555e-06
1.77221e-11
1.09553e-06
3.0642e-11
1.09551e-06
3.60557e-11
1.09548e-06
3.70933e-11
1.09546e-06
3.5268e-11
1.09544e-06
3.1408e-11
1.09543e-06
2.61334e-11
1.09541e-06
1.98525e-11
1.09541e-06
1.27681e-11
1.0954e-06
4.96414e-12
1.09541e-06
-3.47436e-12
1.09541e-06
-1.23721e-11
1.09543e-06
-2.14192e-11
1.09545e-06
-3.01299e-11
1.09547e-06
-3.77407e-11
1.0955e-06
-4.30089e-11
1.09552e-06
-4.36996e-11
1.09555e-06
-3.66842e-11
-2.18174e-11
1.87938e-06
-2.33191e-12
1.87937e-06
2.62108e-11
1.87936e-06
4.50003e-11
1.87934e-06
5.42622e-11
1.87932e-06
5.68618e-11
1.8793e-06
5.47914e-11
1.87928e-06
4.93132e-11
1.87927e-06
4.13374e-11
1.87926e-06
3.14856e-11
1.87925e-06
2.01451e-11
1.87925e-06
7.57608e-12
1.87925e-06
-5.96022e-12
1.87926e-06
-2.00893e-11
1.87927e-06
-3.42418e-11
1.87929e-06
-4.75593e-11
1.87931e-06
-5.87482e-11
1.87933e-06
-6.58528e-11
1.87935e-06
-6.57886e-11
1.87937e-06
-5.47347e-11
-3.16778e-11
2.74376e-06
-4.25973e-12
2.74376e-06
2.92547e-11
2.74375e-06
5.26778e-11
2.74374e-06
6.53815e-11
2.74373e-06
6.99361e-11
2.74372e-06
6.84561e-11
2.7437e-06
6.24138e-11
2.74369e-06
5.29056e-11
2.74368e-06
4.0721e-11
2.74368e-06
2.6417e-11
2.74367e-06
1.04287e-11
2.74367e-06
-6.81056e-12
2.74368e-06
-2.47405e-11
2.74369e-06
-4.25695e-11
2.7437e-06
-5.91401e-11
2.74371e-06
-7.27718e-11
2.74373e-06
-8.10567e-11
2.74374e-06
-8.05121e-11
2.74375e-06
-6.7076e-11
-3.96563e-11
3.72141e-06
-8.01014e-12
3.72141e-06
2.74583e-11
3.72141e-06
5.3391e-11
3.72141e-06
6.85886e-11
3.7214e-06
7.50935e-11
3.7214e-06
7.48459e-11
3.72139e-06
6.93039e-11
3.72138e-06
5.96168e-11
3.72138e-06
4.66605e-11
3.72137e-06
3.11009e-11
3.72137e-06
1.34951e-11
3.72137e-06
-5.59383e-12
3.72137e-06
-2.54767e-11
3.72137e-06
-4.52187e-11
3.72138e-06
-6.35003e-11
3.72138e-06
-7.84615e-11
3.72139e-06
-8.75309e-11
3.72139e-06
-8.71881e-11
3.7214e-06
-7.34359e-11
-4.51394e-11
4.8452e-06
-1.274e-11
4.84521e-06
2.15815e-11
4.84521e-06
4.77619e-11
4.84522e-06
6.4192e-11
4.84522e-06
7.2286e-11
4.84522e-06
7.36251e-11
4.84522e-06
6.94752e-11
4.84522e-06
6.08998e-11
4.84522e-06
4.87567e-11
4.84522e-06
3.37368e-11
4.84521e-06
1.6446e-11
4.84521e-06
-2.49653e-12
4.84521e-06
-2.2354e-11
4.8452e-06
-4.21574e-11
4.8452e-06
-6.05786e-11
4.8452e-06
-7.57868e-11
4.8452e-06
-8.53039e-11
4.84519e-06
-8.58509e-11
4.84519e-06
-7.37518e-11
-4.77419e-11
6.14789e-06
-1.74808e-11
6.1479e-06
1.27905e-11
6.14791e-06
3.69918e-11
6.14792e-06
5.32356e-11
6.14793e-06
6.22941e-11
6.14794e-06
6.52824e-11
6.14795e-06
6.31462e-11
6.14795e-06
5.67441e-11
6.14795e-06
4.6812e-11
6.14795e-06
3.39767e-11
6.14795e-06
1.8812e-11
6.14795e-06
1.91144e-12
6.14794e-06
-1.60299e-11
6.14793e-06
-3.41216e-11
6.14792e-06
-5.11735e-11
6.14791e-06
-6.55711e-11
6.1479e-06
-7.51455e-11
6.14789e-06
-7.70856e-11
6.14789e-06
-6.82357e-11
-4.71536e-11
7.66152e-06
-2.13524e-11
7.66153e-06
2.40049e-12
7.66154e-06
2.25991e-11
7.66156e-06
3.72291e-11
7.66157e-06
4.64693e-11
7.66159e-06
5.09146e-11
7.6616e-06
5.11102e-11
7.66161e-06
4.76202e-11
7.66162e-06
4.09725e-11
7.66162e-06
3.16492e-11
7.66162e-06
2.01163e-11
7.66161e-06
6.86749e-12
7.6616e-06
-7.52442e-12
7.66159e-06
-2.23443e-11
7.66158e-06
-3.66609e-11
7.66156e-06
-4.92269e-11
7.66154e-06
-5.83602e-11
7.66153e-06
-6.1902e-11
7.66152e-06
-5.73798e-11
-4.31978e-11
9.41653e-06
-2.36257e-11
9.41654e-06
-8.27927e-12
9.41656e-06
6.23818e-12
9.41658e-06
1.79588e-11
9.4166e-06
2.65438e-11
9.41662e-06
3.20589e-11
9.41663e-06
3.46095e-11
9.41664e-06
3.44091e-11
9.41665e-06
3.17154e-11
9.41666e-06
2.68044e-11
9.41666e-06
1.99762e-11
9.41665e-06
1.15678e-11
9.41664e-06
1.97067e-12
9.41663e-06
-8.34378e-12
9.41661e-06
-1.8787e-11
9.41659e-06
-2.85835e-11
9.41657e-06
-3.66678e-11
9.41655e-06
-4.16814e-11
9.41654e-06
-4.19792e-11
-3.59049e-11
1.14406e-05
-2.37928e-11
1.14407e-05
-1.80522e-11
1.14407e-05
-1.04278e-11
1.14407e-05
-2.65737e-12
1.14407e-05
4.48577e-12
1.14407e-05
1.05625e-11
1.14408e-05
1.52349e-11
1.14408e-05
1.83414e-11
1.14408e-05
1.98356e-11
1.14408e-05
1.9751e-11
1.14408e-05
1.81869e-11
1.14408e-05
1.52927e-11
1.14408e-05
1.12478e-11
1.14408e-05
6.24755e-12
1.14407e-05
4.99264e-13
1.14407e-05
-5.74516e-12
1.14407e-05
-1.21118e-11
1.14407e-05
-1.81463e-11
1.14407e-05
-2.31609e-11
-2.5591e-11
1.37574e-05
-2.16441e-11
1.37574e-05
-2.5934e-11
1.37575e-05
-2.58386e-11
1.37575e-05
-2.26938e-11
1.37575e-05
-1.7626e-11
1.37575e-05
-1.15314e-11
1.37575e-05
-5.16644e-12
1.37576e-05
9.37997e-13
1.37576e-05
6.42578e-12
1.37576e-05
1.1079e-11
1.37576e-05
1.47889e-11
1.37576e-05
1.75131e-11
1.37576e-05
1.92212e-11
1.37576e-05
1.98393e-11
1.37575e-05
1.9202e-11
1.37575e-05
1.70436e-11
1.37575e-05
1.30336e-11
1.37575e-05
6.67562e-12
1.37574e-05
-2.40047e-12
-1.29249e-11
1.63847e-05
-1.73371e-11
1.63847e-05
-3.12472e-11
1.63847e-05
-3.86447e-11
1.63847e-05
-4.03377e-11
1.63847e-05
-3.7725e-11
1.63848e-05
-3.21006e-11
1.63848e-05
-2.45915e-11
1.63848e-05
-1.60658e-11
1.63848e-05
-7.16572e-12
1.63848e-05
1.65811e-12
1.63848e-05
1.01077e-11
1.63848e-05
1.79725e-11
1.63848e-05
2.50447e-11
1.63848e-05
3.10248e-11
1.63848e-05
3.54313e-11
1.63848e-05
3.75429e-11
1.63847e-05
3.63797e-11
1.63847e-05
3.05218e-11
1.63847e-05
1.84958e-11
1.03619e-12
1.93328e-05
-1.14344e-11
1.93328e-05
-3.36875e-11
1.93328e-05
-4.78023e-11
1.93328e-05
-5.40012e-11
1.93328e-05
-5.38821e-11
1.93328e-05
-4.90739e-11
1.93328e-05
-4.10074e-11
1.93328e-05
-3.08286e-11
1.93329e-05
-1.94157e-11
1.93329e-05
-7.40768e-12
1.93329e-05
4.75099e-12
1.93329e-05
1.67289e-11
1.93329e-05
2.8198e-11
1.93329e-05
3.87076e-11
1.93328e-05
4.75555e-11
1.93328e-05
5.36808e-11
1.93328e-05
5.55774e-11
1.93328e-05
5.10174e-11
1.93328e-05
3.74598e-11
1.48648e-11
2.26029e-05
-4.87946e-12
2.26029e-05
-3.33401e-11
2.26029e-05
-5.26356e-11
2.26029e-05
-6.24174e-11
2.26029e-05
-6.44336e-11
2.26029e-05
-6.05831e-11
2.2603e-05
-5.25121e-11
2.2603e-05
-4.15593e-11
2.2603e-05
-2.87629e-11
2.2603e-05
-1.48839e-11
2.2603e-05
-4.51853e-13
2.2603e-05
1.41441e-11
2.2603e-05
2.85302e-11
2.2603e-05
4.21978e-11
2.2603e-05
5.43461e-11
2.2603e-05
6.37313e-11
2.2603e-05
6.85086e-11
2.26029e-05
6.5854e-11
2.26029e-05
5.22941e-11
2.68537e-11
2.61859e-05
1.12428e-12
2.61859e-05
-3.06268e-11
2.61859e-05
-5.28416e-11
2.61859e-05
-6.47098e-11
2.61859e-05
-6.81117e-11
2.61859e-05
-6.51402e-11
2.6186e-05
-5.75408e-11
2.6186e-05
-4.67312e-11
2.6186e-05
-3.38105e-11
2.6186e-05
-1.95794e-11
2.6186e-05
-4.58142e-12
2.6186e-05
1.08078e-11
2.6186e-05
2.62476e-11
2.6186e-05
4.12693e-11
2.6186e-05
5.51037e-11
2.6186e-05
6.65009e-11
2.6186e-05
7.35143e-11
2.6186e-05
7.30265e-11
2.6186e-05
6.08914e-11
3.5188e-11
3.00612e-05
5.35047e-12
3.00612e-05
-2.61583e-11
3.00612e-05
-4.8428e-11
3.00612e-05
-6.04384e-11
3.00612e-05
-6.41882e-11
3.00612e-05
-6.18558e-11
3.00612e-05
-5.51311e-11
3.00612e-05
-4.53661e-11
3.00612e-05
-3.3604e-11
3.00612e-05
-2.05971e-11
3.00612e-05
-6.83299e-12
3.00612e-05
7.39231e-12
3.00612e-05
2.18421e-11
3.00612e-05
3.61736e-11
3.00612e-05
4.97623e-11
3.00612e-05
6.15205e-11
3.00612e-05
6.96578e-11
3.00612e-05
7.11366e-11
3.00612e-05
6.15551e-11
3.82095e-11
3.41963e-05
6.8745e-12
3.41963e-05
-2.047e-11
3.41963e-05
-3.95992e-11
3.41963e-05
-4.96519e-11
3.41963e-05
-5.26721e-11
3.41963e-05
-5.07297e-11
3.41963e-05
-4.52625e-11
3.41963e-05
-3.73909e-11
3.41963e-05
-2.79803e-11
3.41963e-05
-1.76535e-11
3.41963e-05
-6.78569e-12
3.41963e-05
4.45364e-12
3.41963e-05
1.59801e-11
3.41963e-05
2.7628e-11
3.41963e-05
3.89858e-11
3.41963e-05
4.92507e-11
3.41963e-05
5.70286e-11
3.41963e-05
5.97677e-11
3.41963e-05
5.34168e-11
3.48098e-11
3.85476e-05
5.58308e-12
3.85476e-05
-1.3666e-11
3.85476e-05
-2.66503e-11
3.85475e-05
-3.30099e-11
3.85475e-05
-3.45858e-11
3.85475e-05
-3.30101e-11
3.85475e-05
-2.92513e-11
3.85475e-05
-2.40443e-11
3.85475e-05
-1.79681e-11
3.85475e-05
-1.14439e-11
3.85475e-05
-4.69764e-12
3.85475e-05
2.23473e-12
3.85475e-05
9.41132e-12
3.85475e-05
1.68301e-11
3.85475e-05
2.42899e-11
3.85475e-05
3.13209e-11
3.85475e-05
3.70963e-11
3.85476e-05
3.99119e-11
3.85476e-05
3.68386e-11
2.48106e-11
4.30613e-05
2.24304e-12
4.30612e-05
-5.9139e-12
4.30612e-05
-1.08706e-11
4.30612e-05
-1.30345e-11
4.30612e-05
-1.32951e-11
4.30612e-05
-1.24458e-11
4.30611e-05
-1.08507e-11
4.30611e-05
-8.78902e-12
4.30611e-05
-6.48785e-12
4.30611e-05
-4.11618e-12
4.30611e-05
-1.74713e-12
4.30611e-05
6.5825e-13
4.30611e-05
3.19882e-12
4.30611e-05
5.93263e-12
4.30611e-05
8.7828e-12
4.30612e-05
1.15586e-11
4.30612e-05
1.40265e-11
4.30612e-05
1.55849e-11
4.30612e-05
1.50813e-11
1.0484e-11
4.76757e-05
4.76757e-05
4.76757e-05
4.76757e-05
4.76757e-05
4.76757e-05
4.76756e-05
4.76756e-05
4.76756e-05
4.76756e-05
4.76756e-05
4.76756e-05
4.76756e-05
4.76756e-05
4.76756e-05
4.76757e-05
4.76757e-05
4.76757e-05
4.76757e-05
)
;

boundaryField
{
    movingWall
    {
        type            calculated;
        value           uniform 0;
    }
    fixedWalls
    {
        type            calculated;
        value           uniform 0;
    }
    left
    {
        type            cyclic;
        value           nonuniform List<scalar> 
20
(
-3.00612e-05
-2.61859e-05
-2.26029e-05
-1.93328e-05
-1.63847e-05
-1.37574e-05
-1.14406e-05
-9.41653e-06
-7.66151e-06
-6.14789e-06
-4.8452e-06
-3.72141e-06
-2.74376e-06
-1.87938e-06
-1.09556e-06
-3.59867e-07
-3.41963e-05
-3.85476e-05
-4.30613e-05
-4.76757e-05
)
;
    }
    right
    {
        type            cyclic;
        value           nonuniform List<scalar> 
20
(
3.00612e-05
2.61859e-05
2.26029e-05
1.93328e-05
1.63847e-05
1.37574e-05
1.14406e-05
9.41653e-06
7.66151e-06
6.14789e-06
4.8452e-06
3.72141e-06
2.74376e-06
1.87938e-06
1.09556e-06
3.59867e-07
3.41963e-05
3.85476e-05
4.30613e-05
4.76757e-05
)
;
    }
    frontAndBack
    {
        type            empty;
        value           nonuniform List<scalar> 0();
    }
}


// ************************************************************************* //
