/*--------------------------------*- C++ -*----------------------------------*\
  =========                 |
  \\      /  F ield         | OpenFOAM: The Open Source CFD Toolbox
   \\    /   O peration     | Website:  https://openfoam.org
    \\  /    A nd           | Version:  8
     \\/     M anipulation  |
\*---------------------------------------------------------------------------*/
FoamFile
{
    version     2.0;
    format      ascii;
    class       volVectorField;
    location    "0.1";
    object      U;
}
// * * * * * * * * * * * * * * * * * * * * * * * * * * * * * * * * * * * * * //

dimensions      [0 1 -1 0 0 0 0];

internalField   nonuniform List<vector> 
400
(
(0.00719739 -9.25281e-08 0)
(0.00719734 1.1776e-08 0)
(0.00719712 1.00416e-07 0)
(0.00719687 1.23472e-07 0)
(0.00719658 1.28456e-07 0)
(0.0071963 1.2204e-07 0)
(0.00719604 1.07936e-07 0)
(0.00719582 8.96095e-08 0)
(0.00719564 6.92104e-08 0)
(0.00719552 4.71385e-08 0)
(0.00719544 2.28726e-08 0)
(0.00719543 -4.09808e-09 0)
(0.00719548 -3.3741e-08 0)
(0.00719559 -6.55434e-08 0)
(0.00719578 -9.86535e-08 0)
(0.00719603 -1.31561e-07 0)
(0.00719633 -1.61192e-07 0)
(0.00719668 -1.78895e-07 0)
(0.00719704 -1.6813e-07 0)
(0.00719727 -1.51391e-07 0)
(0.0219112 -5.70301e-08 0)
(0.021911 2.07039e-07 0)
(0.0219108 4.21632e-07 0)
(0.0219103 4.9527e-07 0)
(0.0219099 5.07527e-07 0)
(0.0219094 4.80107e-07 0)
(0.021909 4.25229e-07 0)
(0.0219087 3.52586e-07 0)
(0.0219084 2.68362e-07 0)
(0.0219082 1.74926e-07 0)
(0.0219081 7.25049e-08 0)
(0.0219081 -3.87347e-08 0)
(0.0219082 -1.57228e-07 0)
(0.0219084 -2.79467e-07 0)
(0.0219087 -3.99597e-07 0)
(0.0219092 -5.08084e-07 0)
(0.0219097 -5.88988e-07 0)
(0.0219102 -6.10223e-07 0)
(0.0219108 -5.22973e-07 0)
(0.0219111 -3.52962e-07 0)
(0.0375876 -5.92561e-08 0)
(0.0375876 4.57676e-07 0)
(0.0375873 7.76156e-07 0)
(0.037587 9.24855e-07 0)
(0.0375866 9.60322e-07 0)
(0.0375862 9.18335e-07 0)
(0.0375858 8.21102e-07 0)
(0.0375855 6.8472e-07 0)
(0.0375852 5.1966e-07 0)
(0.037585 3.31725e-07 0)
(0.0375849 1.24187e-07 0)
(0.0375849 -9.9661e-08 0)
(0.037585 -3.34461e-07 0)
(0.0375852 -5.71492e-07 0)
(0.0375855 -7.97213e-07 0)
(0.0375859 -9.90542e-07 0)
(0.0375864 -1.11842e-06 0)
(0.0375869 -1.12598e-06 0)
(0.0375873 -9.40818e-07 0)
(0.0375875 -5.44873e-07 0)
(0.0548753 -4.42874e-08 0)
(0.0548753 5.82972e-07 0)
(0.0548752 1.01135e-06 0)
(0.054875 1.23289e-06 0)
(0.0548747 1.30272e-06 0)
(0.0548745 1.26328e-06 0)
(0.0548742 1.14284e-06 0)
(0.0548739 9.61828e-07 0)
(0.0548737 7.34567e-07 0)
(0.0548736 4.7066e-07 0)
(0.0548735 1.77175e-07 0)
(0.0548734 -1.38771e-07 0)
(0.0548735 -4.67693e-07 0)
(0.0548736 -7.95688e-07 0)
(0.0548738 -1.10211e-06 0)
(0.0548741 -1.35632e-06 0)
(0.0548744 -1.51301e-06 0)
(0.0548747 -1.5039e-06 0)
(0.054875 -1.24768e-06 0)
(0.0548752 -7.21148e-07 0)
(0.0744281 -1.12531e-07 0)
(0.0744282 5.92759e-07 0)
(0.0744283 1.09594e-06 0)
(0.0744282 1.3793e-06 0)
(0.0744281 1.49023e-06 0)
(0.074428 1.47029e-06 0)
(0.0744279 1.34951e-06 0)
(0.0744277 1.15087e-06 0)
(0.0744276 8.91441e-07 0)
(0.0744275 5.83739e-07 0)
(0.0744274 2.37969e-07 0)
(0.0744274 -1.3548e-07 0)
(0.0744274 -5.23679e-07 0)
(0.0744274 -9.08763e-07 0)
(0.0744275 -1.26523e-06 0)
(0.0744276 -1.55671e-06 0)
(0.0744277 -1.73204e-06 0)
(0.0744278 -1.71927e-06 0)
(0.074428 -1.43589e-06 0)
(0.074428 -8.60244e-07 0)
(0.096904 -2.03771e-07 0)
(0.0969041 5.08651e-07 0)
(0.0969042 1.0402e-06 0)
(0.0969043 1.3627e-06 0)
(0.0969044 1.51115e-06 0)
(0.0969044 1.5213e-06 0)
(0.0969045 1.42096e-06 0)
(0.0969044 1.23275e-06 0)
(0.0969044 9.7443e-07 0)
(0.0969043 6.5996e-07 0)
(0.0969043 3.01391e-07 0)
(0.0969042 -8.89854e-08 0)
(0.0969042 -4.96398e-07 0)
(0.0969041 -9.01178e-07 0)
(0.096904 -1.27601e-06 0)
(0.096904 -1.58294e-06 0)
(0.0969039 -1.77028e-06 0)
(0.0969039 -1.76868e-06 0)
(0.0969039 -1.50033e-06 0)
(0.0969039 -9.42235e-07 0)
(0.122958 -3.02763e-07 0)
(0.122958 3.5581e-07 0)
(0.122958 8.69584e-07 0)
(0.122958 1.2032e-06 0)
(0.122959 1.37832e-06 0)
(0.122959 1.42214e-06 0)
(0.122959 1.35718e-06 0)
(0.122959 1.20308e-06 0)
(0.122959 9.76191e-07 0)
(0.122959 6.90137e-07 0)
(0.122959 3.57147e-07 0)
(0.122959 -1.02166e-08 0)
(0.122959 -3.97157e-07 0)
(0.122959 -7.84514e-07 0)
(0.122959 -1.14639e-06 0)
(0.122958 -1.44744e-06 0)
(0.122958 -1.64015e-06 0)
(0.122958 -1.66263e-06 0)
(0.122958 -1.44581e-06 0)
(0.122958 -9.63087e-07 0)
(0.15323 -3.93148e-07 0)
(0.15323 1.57497e-07 0)
(0.153231 6.10365e-07 0)
(0.153231 9.25805e-07 0)
(0.153231 1.11289e-06 0)
(0.153232 1.18875e-06 0)
(0.153232 1.1685e-06 0)
(0.153232 1.06674e-06 0)
(0.153232 8.96481e-07 0)
(0.153232 6.69204e-07 0)
(0.153232 3.95668e-07 0)
(0.153232 8.70924e-08 0)
(0.153232 -2.43478e-07 0)
(0.153232 -5.79547e-07 0)
(0.153232 -8.99377e-07 0)
(0.153231 -1.1737e-06 0)
(0.153231 -1.36321e-06 0)
(0.153231 -1.41742e-06 0)
(0.15323 -1.27938e-06 0)
(0.15323 -9.18601e-07 0)
(0.18833 -4.58377e-07 0)
(0.188331 -5.98167e-08 0)
(0.188331 2.94507e-07 0)
(0.188331 5.63888e-07 0)
(0.188332 7.46205e-07 0)
(0.188332 8.47972e-07 0)
(0.188332 8.75815e-07 0)
(0.188333 8.37753e-07 0)
(0.188333 7.41921e-07 0)
(0.188333 5.9617e-07 0)
(0.188333 4.08411e-07 0)
(0.188333 1.87172e-07 0)
(0.188333 -5.76924e-08 0)
(0.188333 -3.14075e-07 0)
(0.188332 -5.6648e-07 0)
(0.188332 -7.94284e-07 0)
(0.188332 -9.6947e-07 0)
(0.188331 -1.05624e-06 0)
(0.188331 -1.01283e-06 0)
(0.188331 -8.06175e-07 0)
(0.228813 -4.85215e-07 0)
(0.228813 -2.70238e-07 0)
(0.228813 -4.40486e-08 0)
(0.228814 1.55248e-07 0)
(0.228814 3.16035e-07 0)
(0.228815 4.3442e-07 0)
(0.228815 5.0809e-07 0)
(0.228815 5.37675e-07 0)
(0.228816 5.25433e-07 0)
(0.228816 4.74592e-07 0)
(0.228816 3.89254e-07 0)
(0.228816 2.74351e-07 0)
(0.228816 1.35639e-07 0)
(0.228815 -2.01874e-08 0)
(0.228815 -1.85129e-07 0)
(0.228815 -3.48788e-07 0)
(0.228814 -4.96523e-07 0)
(0.228814 -6.09809e-07 0)
(0.228813 -6.64786e-07 0)
(0.228813 -6.28404e-07 0)
(0.275148 -4.6595e-07 0)
(0.275149 -4.51261e-07 0)
(0.275149 -3.72392e-07 0)
(0.275149 -2.6094e-07 0)
(0.27515 -1.36341e-07 0)
(0.27515 -1.21969e-08 0)
(0.275151 1.00426e-07 0)
(0.275151 1.94571e-07 0)
(0.275151 2.66224e-07 0)
(0.275151 3.13541e-07 0)
(0.275152 3.36391e-07 0)
(0.275152 3.3576e-07 0)
(0.275151 3.13014e-07 0)
(0.275151 2.69195e-07 0)
(0.275151 2.04514e-07 0)
(0.275151 1.18658e-07 0)
(0.27515 1.19753e-08 0)
(0.27515 -1.15868e-07 0)
(0.275149 -2.61285e-07 0)
(0.275149 -3.94786e-07 0)
(0.327694 -3.99882e-07 0)
(0.327694 -5.85929e-07 0)
(0.327694 -6.60906e-07 0)
(0.327694 -6.46637e-07 0)
(0.327694 -5.68759e-07 0)
(0.327695 -4.49517e-07 0)
(0.327695 -3.08021e-07 0)
(0.327696 -1.5845e-07 0)
(0.327696 -1.09115e-08 0)
(0.327696 1.2778e-07 0)
(0.327696 2.53398e-07 0)
(0.327696 3.63207e-07 0)
(0.327696 4.54553e-07 0)
(0.327696 5.23357e-07 0)
(0.327696 5.62723e-07 0)
(0.327696 5.62313e-07 0)
(0.327695 5.08583e-07 0)
(0.327695 3.82076e-07 0)
(0.327694 1.64535e-07 0)
(0.327694 -1.22645e-07 0)
(0.386655 -2.94251e-07 0)
(0.386655 -6.64241e-07 0)
(0.386655 -8.85116e-07 0)
(0.386655 -9.67094e-07 0)
(0.386656 -9.40439e-07 0)
(0.386656 -8.34773e-07 0)
(0.386656 -6.76092e-07 0)
(0.386657 -4.84893e-07 0)
(0.386657 -2.76658e-07 0)
(0.386657 -6.25292e-08 0)
(0.386657 1.49814e-07 0)
(0.386657 3.54663e-07 0)
(0.386657 5.46288e-07 0)
(0.386657 7.16716e-07 0)
(0.386657 8.53512e-07 0)
(0.386657 9.38144e-07 0)
(0.386656 9.44989e-07 0)
(0.386656 8.36845e-07 0)
(0.386656 5.73388e-07 0)
(0.386655 1.62797e-07 0)
(0.452058 -1.64382e-07 0)
(0.452058 -6.83968e-07 0)
(0.452058 -1.02744e-06 0)
(0.452058 -1.19311e-06 0)
(0.452059 -1.21462e-06 0)
(0.452059 -1.12764e-06 0)
(0.452059 -9.63465e-07 0)
(0.452059 -7.47481e-07 0)
(0.452059 -4.99286e-07 0)
(0.45206 -2.33239e-07 0)
(0.45206 4.05894e-08 0)
(0.45206 3.1466e-07 0)
(0.45206 5.81541e-07 0)
(0.45206 8.3112e-07 0)
(0.45206 1.0477e-06 0)
(0.452059 1.20739e-06 0)
(0.452059 1.27562e-06 0)
(0.452059 1.20073e-06 0)
(0.452059 9.21894e-07 0)
(0.452058 4.29562e-07 0)
(0.523719 -3.24219e-08 0)
(0.523719 -6.50546e-07 0)
(0.523719 -1.07837e-06 0)
(0.523719 -1.30337e-06 0)
(0.523719 -1.36187e-06 0)
(0.523719 -1.29425e-06 0)
(0.523719 -1.1351e-06 0)
(0.523719 -9.12666e-07 0)
(0.523719 -6.48882e-07 0)
(0.523719 -3.59833e-07 0)
(0.523719 -5.66441e-08 0)
(0.52372 2.52691e-07 0)
(0.52372 5.60643e-07 0)
(0.52372 8.56996e-07 0)
(0.52372 1.12544e-06 0)
(0.52372 1.34017e-06 0)
(0.523719 1.462e-06 0)
(0.523719 1.42991e-06 0)
(0.523719 1.16628e-06 0)
(0.523719 6.41746e-07 0)
(0.601224 7.64566e-08 0)
(0.601224 -5.74932e-07 0)
(0.601224 -1.03558e-06 0)
(0.601224 -1.28521e-06 0)
(0.601224 -1.36258e-06 0)
(0.601224 -1.31101e-06 0)
(0.601224 -1.16578e-06 0)
(0.601224 -9.55406e-07 0)
(0.601224 -7.01983e-07 0)
(0.601224 -4.21574e-07 0)
(0.601224 -1.24896e-07 0)
(0.601224 1.81024e-07 0)
(0.601224 4.90155e-07 0)
(0.601224 7.94102e-07 0)
(0.601224 1.07851e-06 0)
(0.601224 1.31923e-06 0)
(0.601224 1.47751e-06 0)
(0.601224 1.48972e-06 0)
(0.601224 1.26772e-06 0)
(0.601224 7.64175e-07 0)
(0.683927 1.39674e-07 0)
(0.683927 -4.68364e-07 0)
(0.683926 -8.98799e-07 0)
(0.683926 -1.13062e-06 0)
(0.683926 -1.20418e-06 0)
(0.683926 -1.16302e-06 0)
(0.683926 -1.03951e-06 0)
(0.683925 -8.59307e-07 0)
(0.683925 -6.42191e-07 0)
(0.683925 -4.02344e-07 0)
(0.683925 -1.48649e-07 0)
(0.683925 1.14075e-07 0)
(0.683925 3.82521e-07 0)
(0.683925 6.51578e-07 0)
(0.683926 9.1083e-07 0)
(0.683926 1.14096e-06 0)
(0.683926 1.30883e-06 0)
(0.683926 1.35605e-06 0)
(0.683927 1.19464e-06 0)
(0.683927 7.64707e-07 0)
(0.770952 1.36855e-07 0)
(0.770952 -3.43998e-07 0)
(0.770951 -6.76745e-07 0)
(0.770951 -8.47219e-07 0)
(0.770951 -8.95526e-07 0)
(0.77095 -8.60149e-07 0)
(0.77095 -7.66104e-07 0)
(0.77095 -6.32539e-07 0)
(0.77095 -4.74353e-07 0)
(0.770949 -3.02312e-07 0)
(0.770949 -1.22539e-07 0)
(0.770949 6.30245e-08 0)
(0.770949 2.5439e-07 0)
(0.77095 4.50188e-07 0)
(0.77095 6.44471e-07 0)
(0.77095 8.24385e-07 0)
(0.770951 9.67109e-07 0)
(0.770951 1.02883e-06 0)
(0.770951 9.36429e-07 0)
(0.770952 6.25372e-07 0)
(0.861225 8.44485e-08 0)
(0.861225 -1.95496e-07 0)
(0.861225 -3.75909e-07 0)
(0.861224 -4.59046e-07 0)
(0.861224 -4.74403e-07 0)
(0.861224 -4.48268e-07 0)
(0.861223 -3.94125e-07 0)
(0.861223 -3.21894e-07 0)
(0.861223 -2.39429e-07 0)
(0.861222 -1.52512e-07 0)
(0.861222 -6.39995e-08 0)
(0.861222 2.63987e-08 0)
(0.861222 1.20717e-07 0)
(0.861223 2.19979e-07 0)
(0.861223 3.21776e-07 0)
(0.861223 4.19906e-07 0)
(0.861224 5.04451e-07 0)
(0.861224 5.52441e-07 0)
(0.861225 5.23051e-07 0)
(0.861225 3.57746e-07 0)
(0.953514 1.77113e-08 0)
(0.953514 -6.48214e-08 0)
(0.953514 -1.0978e-07 0)
(0.953514 -1.25215e-07 0)
(0.953513 -1.23385e-07 0)
(0.953513 -1.12741e-07 0)
(0.953513 -9.64601e-08 0)
(0.953513 -7.66642e-08 0)
(0.953513 -5.52394e-08 0)
(0.953513 -3.37798e-08 0)
(0.953512 -1.29616e-08 0)
(0.953512 7.81869e-09 0)
(0.953513 2.99339e-08 0)
(0.953513 5.4272e-08 0)
(0.953513 8.0262e-08 0)
(0.953513 1.0627e-07 0)
(0.953513 1.30625e-07 0)
(0.953514 1.48175e-07 0)
(0.953514 1.46912e-07 0)
(0.953514 1.04409e-07 0)
)
;

boundaryField
{
    movingWall
    {
        type            fixedValue;
        value           uniform (1 0 0);
    }
    fixedWalls
    {
        type            noSlip;
    }
    left
    {
        type            cyclic;
    }
    right
    {
        type            cyclic;
    }
    frontAndBack
    {
        type            empty;
    }
}


// ************************************************************************* //
