/*--------------------------------*- C++ -*----------------------------------*\
  =========                 |
  \\      /  F ield         | OpenFOAM: The Open Source CFD Toolbox
   \\    /   O peration     | Website:  https://openfoam.org
    \\  /    A nd           | Version:  8
     \\/     M anipulation  |
\*---------------------------------------------------------------------------*/
FoamFile
{
    version     2.0;
    format      ascii;
    class       volScalarField;
    location    "9.5";
    object      p;
}
// * * * * * * * * * * * * * * * * * * * * * * * * * * * * * * * * * * * * * //

dimensions      [0 2 -2 0 0 0 0];

internalField   nonuniform List<scalar> 
11600
(
5.84718e-08
-1.41063e-07
2.98977e-07
9.9557e-07
2.07835e-06
3.53053e-06
5.35119e-06
7.54064e-06
1.00986e-05
1.30244e-05
1.63174e-05
1.99765e-05
2.40003e-05
2.83875e-05
3.31364e-05
3.82451e-05
4.37116e-05
4.95336e-05
5.57085e-05
6.22337e-05
6.91064e-05
7.63232e-05
8.38809e-05
9.17758e-05
0.000100004
0.000108562
0.000117444
0.000126647
0.000136166
0.000145996
0.00015613
0.000166564
0.000177293
0.000188309
0.000199607
0.000211181
0.000223024
0.000235128
0.000247488
0.000260096
0.000272946
0.00028603
0.000299341
0.000312874
0.000326621
0.000340577
0.000354737
0.000369096
0.000383652
0.000398404
0.000413354
0.000428506
0.000443871
0.000459465
0.000475315
0.000491488
0.000508092
0.000524459
0.000544816
0.000556368
3.93745e-07
1.52731e-07
5.94889e-07
1.28822e-06
2.36898e-06
3.81866e-06
5.63629e-06
7.82236e-06
1.03766e-05
1.32985e-05
1.65871e-05
2.02414e-05
2.42602e-05
2.86421e-05
3.33853e-05
3.8488e-05
4.39482e-05
4.97635e-05
5.59316e-05
6.24497e-05
6.93149e-05
7.65241e-05
8.40739e-05
9.19608e-05
0.000100181
0.00010873
0.000117604
0.000126799
0.000136309
0.00014613
0.000156255
0.000166681
0.0001774
0.000188408
0.000199698
0.000211263
0.000223097
0.000235193
0.000247545
0.000260145
0.000272987
0.000286064
0.00029937
0.000312896
0.000326638
0.00034059
0.000354747
0.000369105
0.000383662
0.000398418
0.000413376
0.000428545
0.000443937
0.000459578
0.000475509
0.000491815
0.000508594
0.000525657
0.000545389
0.000561608
2.93442e-08
-2.4395e-07
1.87683e-07
8.72579e-07
1.94899e-06
3.39612e-06
5.2121e-06
7.39705e-06
9.95055e-06
1.28719e-05
1.61602e-05
1.98144e-05
2.38333e-05
2.82153e-05
3.29588e-05
3.80621e-05
4.35229e-05
4.93391e-05
5.55083e-05
6.20277e-05
6.88944e-05
7.61054e-05
8.36572e-05
9.15464e-05
9.9769e-05
0.000108321
0.000117198
0.000126396
0.00013591
0.000145735
0.000155865
0.000166295
0.00017702
0.000188033
0.000199328
0.000210899
0.000222739
0.000234842
0.000247201
0.000259808
0.000272657
0.000285741
0.000299053
0.000312586
0.000326334
0.000340291
0.000354451
0.000368812
0.000383368
0.00039812
0.000413068
0.000428217
0.000443575
0.000459155
0.000474982
0.000491094
0.00050752
0.000524205
0.000542147
0.000558259
-6.23921e-07
-9.07944e-07
-4.80874e-07
1.98665e-07
1.27163e-06
2.71634e-06
4.53059e-06
6.71431e-06
9.26698e-06
1.21878e-05
1.54759e-05
1.91302e-05
2.31493e-05
2.75319e-05
3.22763e-05
3.73807e-05
4.28429e-05
4.86609e-05
5.4832e-05
6.13538e-05
6.82233e-05
7.54373e-05
8.29927e-05
9.08858e-05
9.91129e-05
0.00010767
0.000116552
0.000125756
0.000135276
0.000145108
0.000155245
0.000165683
0.000176416
0.000187438
0.000198743
0.000210323
0.000222174
0.000234287
0.000246657
0.000259275
0.000272136
0.000285231
0.000298554
0.000312097
0.000325855
0.000339821
0.000353989
0.000368353
0.000382911
0.00039766
0.000412598
0.000427728
0.000443056
0.00045859
0.000474348
0.000490353
0.000506618
0.000523157
0.000540259
0.000556681
-1.68537e-06
-1.97613e-06
-1.55245e-06
-8.77065e-07
1.93078e-07
1.63591e-06
3.4491e-06
5.63244e-06
8.18531e-06
1.11069e-05
1.43962e-05
1.80522e-05
2.20736e-05
2.64588e-05
3.12064e-05
3.63144e-05
4.17809e-05
4.76035e-05
5.378e-05
6.03076e-05
6.71836e-05
7.44048e-05
8.19679e-05
8.98695e-05
9.81056e-05
0.000106672
0.000115566
0.000124781
0.000134313
0.000144157
0.000154308
0.000164761
0.000175509
0.000186546
0.000197867
0.000209465
0.000221334
0.000233465
0.000245853
0.000258491
0.00027137
0.000284484
0.000297826
0.000311387
0.000325161
0.000339142
0.000353322
0.000367695
0.000382257
0.000397001
0.000411926
0.000427029
0.000442308
0.000457764
0.000473397
0.000489208
0.000505185
0.000521309
0.000537605
0.000553591
-3.13372e-06
-3.42914e-06
-3.00778e-06
-2.33532e-06
-1.26714e-06
1.74541e-07
1.98738e-06
4.17114e-06
6.72515e-06
9.64856e-06
1.29404e-05
1.65995e-05
2.06247e-05
2.50145e-05
2.97673e-05
3.48812e-05
4.03543e-05
4.61843e-05
5.2369e-05
5.89056e-05
6.57914e-05
7.30233e-05
8.0598e-05
8.8512e-05
9.67616e-05
0.000105343
0.000114251
0.000123483
0.000133032
0.000142895
0.000153065
0.000163538
0.000174308
0.000185368
0.000196712
0.000208334
0.000220227
0.000232384
0.000244798
0.000257462
0.000270368
0.000283508
0.000296876
0.000310462
0.00032426
0.000338262
0.00035246
0.000366848
0.000381417
0.000396162
0.000411076
0.000426153
0.000441387
0.00045677
0.000472295
0.000487947
0.000503703
0.000519528
0.000535373
0.000551016
-4.96588e-06
-5.26513e-06
-4.84538e-06
-4.17496e-06
-3.10798e-06
-1.66671e-06
1.46532e-07
2.33155e-06
4.88765e-06
7.81398e-06
1.11096e-05
1.47733e-05
1.88039e-05
2.32e-05
2.79599e-05
3.3082e-05
3.85641e-05
4.44042e-05
5.05998e-05
5.71485e-05
6.40473e-05
7.12934e-05
7.88834e-05
8.68139e-05
9.50812e-05
0.000103681
0.00011261
0.000121863
0.000131435
0.000141321
0.000151517
0.000162016
0.000172813
0.000183902
0.000195276
0.000206929
0.000218854
0.000231044
0.000243492
0.00025619
0.00026913
0.000282304
0.000295705
0.000309325
0.000323154
0.000337185
0.000351409
0.000365817
0.000380402
0.000395153
0.000410063
0.000425121
0.000440316
0.000455636
0.000471064
0.000486578
0.000502146
0.000517722
0.00053324
0.000548564
-7.18179e-06
-7.48475e-06
-7.06616e-06
-6.39722e-06
-5.3308e-06
-3.88926e-06
-2.07485e-06
1.12264e-07
2.67142e-06
5.60177e-06
8.90236e-06
1.25721e-05
1.66098e-05
2.10139e-05
2.5783e-05
3.09153e-05
3.64088e-05
4.22615e-05
4.84709e-05
5.50346e-05
6.19499e-05
6.92136e-05
7.68227e-05
8.47736e-05
9.30627e-05
0.000101686
0.00011064
0.000119919
0.000129519
0.000139435
0.000149661
0.000160193
0.000171024
0.000182148
0.000193559
0.00020525
0.000217214
0.000229444
0.000241933
0.000254673
0.000267655
0.000280872
0.000294316
0.000307976
0.000321846
0.000335914
0.000350172
0.000364611
0.000379219
0.000393987
0.000408902
0.000423952
0.000439123
0.000454397
0.000469754
0.000485164
0.000500593
0.000515993
0.000531296
0.00054641
-9.78173e-06
-1.00886e-05
-9.67083e-06
-9.00297e-06
-7.9366e-06
-6.49416e-06
-4.67787e-06
-2.48783e-06
7.5318e-08
3.01078e-06
6.31762e-06
9.99477e-06
1.4041e-05
1.8455e-05
2.32352e-05
2.83799e-05
3.38872e-05
3.9755e-05
4.5981e-05
5.25627e-05
5.94975e-05
6.67824e-05
7.44142e-05
8.23895e-05
9.07047e-05
9.93559e-05
0.000108339
0.000117649
0.000127282
0.000137233
0.000147496
0.000158067
0.000168938
0.000180104
0.000191558
0.000203295
0.000215306
0.000227584
0.000240122
0.000252912
0.000265945
0.000279213
0.000292707
0.000306418
0.000320337
0.000334453
0.000348755
0.000363234
0.000377878
0.000392673
0.000407607
0.000422665
0.000437829
0.00045308
0.000468393
0.000483738
0.000499077
0.000514365
0.000529541
0.000544532
-1.27663e-05
-1.30773e-05
-1.26602e-05
-1.19932e-05
-1.09264e-05
-9.48253e-06
-7.66369e-06
-5.46994e-06
-2.90187e-06
3.97592e-08
3.35405e-06
7.03999e-06
1.10964e-05
1.55219e-05
2.03151e-05
2.54743e-05
3.09976e-05
3.68831e-05
4.31284e-05
4.97311e-05
5.66886e-05
6.3998e-05
7.16562e-05
7.96598e-05
8.80053e-05
9.66887e-05
0.000105706
0.000115053
0.000124724
0.000134715
0.000145021
0.000155636
0.000166554
0.000177768
0.000189273
0.000201062
0.000213127
0.000225461
0.000238057
0.000250905
0.000263998
0.000277326
0.000290881
0.000304652
0.00031863
0.000332804
0.000347162
0.000361693
0.000376384
0.000391221
0.00040619
0.000421273
0.000436451
0.000451703
0.000467003
0.00048232
0.000497617
0.000512851
0.000527968
0.00054291
-1.61363e-05
-1.64519e-05
-1.60353e-05
-1.53689e-05
-1.43014e-05
-1.28556e-05
-1.10336e-05
-8.8354e-06
-6.26153e-06
-3.31271e-06
1.02046e-08
3.70625e-06
7.77429e-06
1.22131e-05
1.70211e-05
2.21968e-05
2.77384e-05
3.3644e-05
3.99112e-05
4.65378e-05
5.35212e-05
6.08585e-05
6.85467e-05
7.65825e-05
8.49623e-05
9.36823e-05
0.000102738
0.000112126
0.000121841
0.000131879
0.000142233
0.000152898
0.000163869
0.000175139
0.000186702
0.00019855
0.000210678
0.000223076
0.000235737
0.000248652
0.000261814
0.000275212
0.000288837
0.000302678
0.000316726
0.000330969
0.000345395
0.000359992
0.000374744
0.000389639
0.000404659
0.000419787
0.000435002
0.000450281
0.000465599
0.000480924
0.000496223
0.000511453
0.00052657
0.000541522
-1.9893e-05
-2.02135e-05
-1.97974e-05
-1.91315e-05
-1.8063e-05
-1.66148e-05
-1.47891e-05
-1.25857e-05
-1.00052e-05
-7.04824e-06
-3.71557e-06
-8.1381e-09
4.07299e-06
8.52659e-06
1.33513e-05
1.85456e-05
2.41077e-05
3.00357e-05
3.63275e-05
4.29808e-05
4.99931e-05
5.73617e-05
6.50834e-05
7.31551e-05
8.15734e-05
9.03343e-05
9.9434e-05
0.000108868
0.000118632
0.00012872
0.000139129
0.000149851
0.000160881
0.000172214
0.000183841
0.000195757
0.000207954
0.000220424
0.00023316
0.000246152
0.000259391
0.000272869
0.000286574
0.000300497
0.000314627
0.000328952
0.000343458
0.000358134
0.000372963
0.000387932
0.000403022
0.000418214
0.000433489
0.000448823
0.000464188
0.000479558
0.000494897
0.000510169
0.000525332
0.000540344
-2.40376e-05
-2.43636e-05
-2.39479e-05
-2.32824e-05
-2.22126e-05
-2.07617e-05
-1.89317e-05
-1.67226e-05
-1.41346e-05
-1.11686e-05
-7.82509e-06
-4.10504e-06
-9.43755e-09
4.46057e-06
9.30367e-06
1.45184e-05
2.01031e-05
2.60559e-05
3.23749e-05
3.90577e-05
4.61019e-05
5.35049e-05
6.12637e-05
6.93752e-05
7.78358e-05
8.66421e-05
9.57898e-05
0.000105275
0.000115093
0.000125238
0.000135707
0.000146492
0.000157588
0.00016899
0.000180689
0.00019268
0.000204955
0.000217505
0.000230324
0.000243401
0.000256728
0.000270296
0.000284093
0.000298109
0.000312332
0.000326751
0.000341352
0.000356121
0.000371043
0.000386103
0.000401282
0.000416561
0.000431919
0.000447332
0.000462776
0.000478221
0.000493638
0.000508991
0.000524244
0.000539359
-2.85717e-05
-2.89035e-05
-2.84882e-05
-2.78231e-05
-2.67519e-05
-2.52979e-05
-2.34633e-05
-2.12477e-05
-1.86517e-05
-1.56757e-05
-1.23203e-05
-8.58652e-06
-4.47512e-06
1.27835e-08
4.87595e-06
1.0113e-05
1.57224e-05
2.17023e-05
2.80508e-05
3.47658e-05
4.18449e-05
4.92855e-05
5.70848e-05
6.52396e-05
7.37467e-05
8.26024e-05
9.18029e-05
0.000101344
0.000111221
0.000121429
0.000131963
0.000142817
0.000153986
0.000165463
0.000177242
0.000189316
0.000201676
0.000214316
0.000227227
0.000240399
0.000253824
0.000267491
0.000281391
0.000295512
0.000309841
0.000324367
0.000339077
0.000353955
0.000368987
0.000384155
0.000399442
0.000414829
0.000430293
0.000445813
0.000461362
0.000476913
0.000492441
0.000507912
0.000523291
0.000538544
-3.34969e-05
-3.38351e-05
-3.34202e-05
-3.27555e-05
-3.16826e-05
-3.02254e-05
-2.83856e-05
-2.61632e-05
-2.35584e-05
-2.05716e-05
-1.72035e-05
-1.34548e-05
-9.32636e-06
-4.81915e-06
6.56744e-08
5.32682e-06
1.09628e-05
1.6972e-05
2.33525e-05
3.01022e-05
3.7219e-05
4.47004e-05
5.25434e-05
6.07453e-05
6.93027e-05
7.82121e-05
8.74697e-05
9.70712e-05
0.000107012
0.000117288
0.000127894
0.000138824
0.000150072
0.000161632
0.000173497
0.000185661
0.000198116
0.000210853
0.000223865
0.000237142
0.000250675
0.000264453
0.000278467
0.000292704
0.000307152
0.0003218
0.000336632
0.000351635
0.000366792
0.000382088
0.000397503
0.000413018
0.000428613
0.000444263
0.000459945
0.000475626
0.000491304
0.000506923
0.00052246
0.000537884
-3.8815e-05
-3.91602e-05
-3.87457e-05
-3.80814e-05
-3.70069e-05
-3.55461e-05
-3.37009e-05
-3.14711e-05
-2.88569e-05
-2.58586e-05
-2.24769e-05
-1.87123e-05
-1.45657e-05
-1.00378e-05
-5.12984e-06
1.57081e-07
5.82156e-06
1.18621e-05
1.82768e-05
2.50639e-05
3.22211e-05
3.97462e-05
4.76363e-05
5.58887e-05
6.45002e-05
7.34674e-05
8.27865e-05
9.24534e-05
0.000102464
0.000112813
0.000123496
0.000134507
0.000145841
0.000157491
0.00016945
0.000181712
0.000194269
0.000207113
0.000220235
0.000233626
0.000247277
0.000261178
0.000275317
0.000289683
0.000304263
0.000319046
0.000334016
0.000349159
0.00036446
0.0003799
0.000395463
0.000411128
0.000426875
0.000442683
0.000458528
0.000474391
0.000490221
0.000506014
0.000521738
0.000537362
-4.45281e-05
-4.48807e-05
-4.44667e-05
-4.3803e-05
-4.27267e-05
-4.12622e-05
-3.94113e-05
-3.71737e-05
-3.45496e-05
-3.15392e-05
-2.81431e-05
-2.43617e-05
-2.01957e-05
-1.5646e-05
-1.07135e-05
-5.39919e-06
2.95569e-07
6.36936e-06
1.28206e-05
1.96474e-05
2.68477e-05
3.44193e-05
4.23597e-05
5.06661e-05
5.93354e-05
6.83643e-05
7.77492e-05
8.74862e-05
9.75709e-05
0.000107999
0.000118765
0.000129864
0.000141289
0.000153036
0.000165097
0.000177464
0.000190132
0.000203091
0.000216333
0.000229848
0.000243628
0.000257661
0.000271938
0.000286445
0.000301171
0.000316103
0.000331226
0.000346525
0.000361986
0.00037759
0.000393319
0.000409155
0.000425077
0.000441063
0.000457091
0.000473138
0.000489172
0.000505172
0.000521112
0.000536963
-5.06383e-05
-5.09987e-05
-5.05853e-05
-4.99223e-05
-4.88443e-05
-4.73759e-05
-4.55191e-05
-4.32735e-05
-4.0639e-05
-3.76159e-05
-3.42047e-05
-3.04056e-05
-2.62194e-05
-2.16467e-05
-1.66883e-05
-1.13452e-05
-5.61849e-06
4.90456e-07
6.98017e-06
1.3849e-05
2.10949e-05
2.87159e-05
3.67095e-05
4.50731e-05
5.38039e-05
6.28985e-05
7.23535e-05
8.2165e-05
9.23289e-05
0.000102841
0.000113695
0.000124888
0.000136412
0.000148262
0.000160432
0.000172913
0.000185699
0.000198782
0.000212153
0.000225803
0.000239722
0.0002539
0.000268325
0.000282986
0.000297871
0.000312966
0.000328257
0.000343729
0.000359367
0.000375152
0.000391068
0.000407094
0.000423212
0.0004394
0.000455637
0.000471896
0.000488155
0.000504387
0.000520569
0.000536674
-5.71477e-05
-5.75167e-05
-5.7104e-05
-5.64418e-05
-5.5362e-05
-5.38898e-05
-5.20269e-05
-4.97729e-05
-4.71277e-05
-4.40915e-05
-4.06645e-05
-3.68471e-05
-3.26398e-05
-2.8043e-05
-2.30576e-05
-1.76843e-05
-1.19241e-05
-5.77831e-06
7.51841e-07
7.66478e-06
1.49587e-05
2.26317e-05
3.06815e-05
3.91056e-05
4.79012e-05
5.70652e-05
6.65944e-05
7.64849e-05
8.67328e-05
9.73336e-05
0.000108283
0.000119575
0.000131204
0.000143164
0.00015545
0.000168053
0.000180966
0.000194182
0.000207691
0.000221485
0.000235554
0.000249887
0.000264474
0.000279302
0.000294359
0.000309631
0.000325105
0.000340766
0.000356597
0.000372582
0.000388703
0.000404941
0.000421276
0.000437687
0.000454154
0.000470653
0.000487159
0.000503649
0.000520098
0.000536483
-6.40587e-05
-6.44368e-05
-6.40249e-05
-6.33638e-05
-6.22824e-05
-6.08063e-05
-5.89373e-05
-5.66747e-05
-5.40185e-05
-5.09688e-05
-4.75256e-05
-4.36892e-05
-3.946e-05
-3.48383e-05
-2.98248e-05
-2.44201e-05
-1.86251e-05
-1.24408e-05
-5.86846e-06
1.09064e-06
8.43484e-06
1.61623e-05
2.4271e-05
3.27585e-05
4.16223e-05
5.08595e-05
6.04668e-05
7.04407e-05
8.07772e-05
9.14722e-05
0.000102521
0.000113918
0.000125659
0.000137737
0.000150145
0.000162878
0.000175926
0.000189284
0.000202941
0.000216889
0.000231119
0.000245619
0.000260378
0.000275385
0.000290628
0.000306092
0.000321765
0.00033763
0.000353672
0.000369875
0.00038622
0.000402688
0.000419261
0.000435914
0.000452638
0.000469399
0.000486176
0.000502947
0.000519688
0.000536375
-7.13738e-05
-7.17615e-05
-7.13507e-05
-7.06908e-05
-6.9608e-05
-6.81281e-05
-6.62529e-05
-6.39817e-05
-6.13144e-05
-5.82508e-05
-5.47911e-05
-5.09352e-05
-4.66835e-05
-4.20362e-05
-3.69937e-05
-3.15565e-05
-2.57254e-05
-1.95012e-05
-1.2885e-05
-5.87791e-06
1.51862e-06
9.30292e-06
1.74731e-05
2.6027e-05
3.49622e-05
4.42759e-05
5.39652e-05
6.40266e-05
7.44563e-05
8.52503e-05
9.64041e-05
0.000107913
0.000119771
0.000131972
0.000144511
0.000157381
0.000170573
0.000184081
0.000197896
0.000212008
0.000226409
0.000241087
0.000256031
0.00027123
0.000286672
0.000302343
0.000318228
0.000334314
0.000350584
0.000367022
0.00038361
0.000400329
0.000417162
0.00043409
0.000451081
0.000468125
0.000485196
0.000502271
0.000519327
0.00053634
-7.90954e-05
-7.94935e-05
-7.90838e-05
-7.84256e-05
-7.73415e-05
-7.58579e-05
-7.39767e-05
-7.16969e-05
-6.90183e-05
-6.59408e-05
-6.24642e-05
-5.85885e-05
-5.43138e-05
-4.96402e-05
-4.4568e-05
-3.90975e-05
-3.32292e-05
-2.69639e-05
-2.03023e-05
-1.32456e-05
-5.79481e-06
2.04846e-06
1.02826e-05
1.89055e-05
2.79151e-05
3.73087e-05
4.70836e-05
5.72365e-05
6.77639e-05
7.86618e-05
8.99258e-05
0.000101551
0.000113533
0.000125865
0.000138541
0.000151556
0.0001649
0.000178567
0.000192548
0.000206835
0.000221417
0.000236284
0.000251425
0.000266829
0.000282484
0.000298375
0.000314489
0.000330811
0.000347325
0.000364015
0.000380864
0.000397854
0.000414965
0.000432177
0.000449468
0.000466818
0.000484206
0.000501609
0.000519003
0.000536365
-8.72262e-05
-8.76353e-05
-8.72271e-05
-8.65708e-05
-8.54856e-05
-8.39987e-05
-8.21115e-05
-7.98232e-05
-7.71335e-05
-7.40419e-05
-7.05484e-05
-6.66527e-05
-6.23547e-05
-5.76543e-05
-5.25518e-05
-4.70472e-05
-4.11409e-05
-3.48334e-05
-2.81252e-05
-2.10173e-05
-1.35106e-05
-5.60641e-06
2.69382e-06
1.13883e-05
2.04751e-05
2.99518e-05
3.98158e-05
5.00641e-05
6.06932e-05
7.16996e-05
8.3079e-05
9.48268e-05
0.000106938
0.000119407
0.000132228
0.000145394
0.000158898
0.000172733
0.00018689
0.000201361
0.000216135
0.000231203
0.000246553
0.000262174
0.000278054
0.00029418
0.000310537
0.000327111
0.000343886
0.000360847
0.000377975
0.000395253
0.000412662
0.000430181
0.000447791
0.00046547
0.000483197
0.000500949
0.000518704
0.000536439
-9.57689e-05
-9.61897e-05
-9.57832e-05
-9.51292e-05
-9.40434e-05
-9.25532e-05
-9.06604e-05
-8.83639e-05
-8.56631e-05
-8.25577e-05
-7.90472e-05
-7.51314e-05
-7.08099e-05
-6.60826e-05
-6.09493e-05
-5.54101e-05
-4.94651e-05
-4.31145e-05
-3.63587e-05
-2.91983e-05
-2.16342e-05
-1.36673e-05
-5.29898e-06
3.46939e-06
1.2636e-05
2.21986e-05
3.2155e-05
4.25023e-05
5.32373e-05
6.43566e-05
7.58562e-05
8.77317e-05
9.99783e-05
0.000112591
0.000125563
0.000138888
0.00015256
0.000166572
0.000180913
0.000195578
0.000210554
0.000225833
0.000241404
0.000257256
0.000273375
0.000289749
0.000306364
0.000323206
0.000340258
0.000357506
0.000374931
0.000392516
0.000410243
0.00042809
0.000446039
0.000464068
0.000482156
0.000500281
0.00051842
0.000536549
-0.000104726
-0.000105159
-0.000104755
-0.000104104
-0.000103018
-0.000101525
-9.96266e-05
-9.73221e-05
-9.46106e-05
-9.14915e-05
-8.79643e-05
-8.40285e-05
-7.96836e-05
-7.49292e-05
-6.9765e-05
-6.41908e-05
-5.82066e-05
-5.18122e-05
-4.5008e-05
-3.77942e-05
-3.01714e-05
-2.21403e-05
-1.3702e-05
-4.85775e-06
4.39098e-06
1.40423e-05
2.40941e-05
3.45438e-05
4.53886e-05
5.6625e-05
6.82495e-05
8.02578e-05
9.26454e-05
0.000105407
0.000118537
0.000132029
0.000145877
0.000160073
0.000174609
0.000189476
0.000204665
0.000220167
0.00023597
0.000252064
0.000268435
0.000285072
0.00030196
0.000319084
0.000336431
0.000353983
0.000371723
0.000389634
0.000407697
0.000425893
0.000444201
0.000462602
0.000481072
0.000499592
0.000518137
0.000536684
-0.000114101
-0.000114547
-0.000114145
-0.000113497
-0.000112411
-0.000110916
-0.000109013
-0.000106701
-0.000103979
-0.000100847
-9.73034e-05
-9.33479e-05
-8.89797e-05
-8.41984e-05
-7.90034e-05
-7.33942e-05
-6.73704e-05
-6.09319e-05
-5.40786e-05
-4.68105e-05
-3.9128e-05
-3.10316e-05
-2.25218e-05
-1.35998e-05
-4.26682e-06
5.47564e-06
1.56257e-05
2.6181e-05
3.7139e-05
4.84966e-05
6.02504e-05
7.23965e-05
8.49304e-05
9.78472e-05
0.000111142
0.000124807
0.000138838
0.000153227
0.000167965
0.000183045
0.000198458
0.000214193
0.00023024
0.000246588
0.000263225
0.000280138
0.000297313
0.000314736
0.000332392
0.000350265
0.000368338
0.000386593
0.000405013
0.000423577
0.000442265
0.000461058
0.000479933
0.000498869
0.000517843
0.000536832
-0.000123896
-0.000124356
-0.000123956
-0.000123312
-0.000122227
-0.00012073
-0.000118823
-0.000116504
-0.000113773
-0.000110628
-0.000107068
-0.000103094
-9.87028e-05
-9.38948e-05
-8.86692e-05
-8.3025e-05
-7.69618e-05
-7.0479e-05
-6.35763e-05
-5.62535e-05
-4.85105e-05
-4.03476e-05
-3.17652e-05
-2.2764e-05
-1.33448e-05
-3.50907e-06
6.74171e-06
1.74056e-05
2.84801e-05
3.99627e-05
5.185e-05
6.41384e-05
7.68239e-05
8.99017e-05
0.000103367
0.000117213
0.000131434
0.000146024
0.000160974
0.000176276
0.000191921
0.0002079
0.000224203
0.000240817
0.000257732
0.000274935
0.000292412
0.000310149
0.00032813
0.000346341
0.000364764
0.000383382
0.000402177
0.000421129
0.000440218
0.000459425
0.000478726
0.000498101
0.000517526
0.000536979
-0.000134113
-0.000134588
-0.000134192
-0.000133552
-0.000132469
-0.000130971
-0.00012906
-0.000126735
-0.000123995
-0.000120838
-0.000117263
-0.00011327
-0.000108857
-0.000104023
-9.87672e-05
-9.30885e-05
-8.69861e-05
-8.04592e-05
-7.3507e-05
-6.61292e-05
-5.83254e-05
-5.00954e-05
-4.14393e-05
-3.23576e-05
-2.28508e-05
-1.29198e-05
-2.56607e-06
8.20892e-06
1.94031e-05
3.1014e-05
4.30388e-05
5.5474e-05
6.83159e-05
8.15601e-05
9.52015e-05
0.000109235
0.000123654
0.000138452
0.000153622
0.000169155
0.000185043
0.000201277
0.000217846
0.000234739
0.000251945
0.000269451
0.000287244
0.00030531
0.000323633
0.000342198
0.000360989
0.000379988
0.000399176
0.000418536
0.000438047
0.000457688
0.000477437
0.000497273
0.000517173
0.000537113
-0.000144757
-0.000145247
-0.000144855
-0.00014422
-0.000143139
-0.000141641
-0.000139728
-0.000137397
-0.000134649
-0.000131481
-0.000127892
-0.000123881
-0.000119447
-0.000114588
-0.000109303
-0.00010359
-9.7449e-05
-9.08783e-05
-8.3877e-05
-7.64443e-05
-6.85794e-05
-6.02819e-05
-5.15516e-05
-4.23885e-05
-3.27928e-05
-2.27651e-05
-1.23064e-05
-1.418e-06
9.8985e-06
2.16409e-05
3.38068e-05
4.63929e-05
5.93959e-05
7.28116e-05
8.66353e-05
0.000100862
0.000115486
0.0001305
0.000145898
0.000161671
0.000177812
0.00019431
0.000211157
0.000228341
0.00024585
0.000263673
0.000281796
0.000300205
0.000318886
0.000337822
0.000356998
0.000376395
0.000395996
0.000415784
0.000435737
0.000455833
0.000476053
0.000496372
0.00051677
0.000537221
-0.000155829
-0.000156336
-0.000155947
-0.000155319
-0.00015424
-0.000152743
-0.000150828
-0.000148494
-0.000145738
-0.000142561
-0.000138959
-0.000134931
-0.000130477
-0.000125594
-0.00012028
-0.000114535
-0.000108356
-0.000101743
-9.46927e-05
-8.72054e-05
-7.92798e-05
-7.09148e-05
-6.211e-05
-5.28649e-05
-4.31794e-05
-3.30538e-05
-2.24886e-05
-1.14847e-05
-4.35405e-08
1.18333e-05
2.41434e-05
3.68843e-05
5.00527e-05
6.36447e-05
7.76562e-05
9.20822e-05
0.000106917
0.000122155
0.000137789
0.000153811
0.000170213
0.000186987
0.000204122
0.000221608
0.000239433
0.000257586
0.000276054
0.000294821
0.000313875
0.000333199
0.000352776
0.00037259
0.000392622
0.000412858
0.000433273
0.000453847
0.000474558
0.000495384
0.000516302
0.000537288
-0.000167332
-0.000167856
-0.000167472
-0.000166851
-0.000165777
-0.000164281
-0.000162366
-0.000160028
-0.000157267
-0.000154081
-0.000150468
-0.000146425
-0.000141952
-0.000137046
-0.000131706
-0.000125929
-0.000119714
-0.000113058
-0.000105961
-9.84197e-05
-9.04338e-05
-8.20017e-05
-7.31224e-05
-6.37952e-05
-5.40195e-05
-4.37951e-05
-3.31222e-05
-2.20013e-05
-1.04334e-05
1.58023e-06
1.40377e-05
2.69367e-05
4.02745e-05
5.40475e-05
6.82519e-05
8.2883e-05
9.79357e-05
0.000113404
0.000129282
0.000145561
0.000162234
0.000179293
0.000196727
0.000214527
0.00023268
0.000251176
0.000270001
0.000289142
0.000308584
0.000328312
0.000348309
0.000368557
0.000389035
0.000409742
0.000430641
0.000451713
0.000472938
0.000494293
0.000515755
0.0005373
-0.000179269
-0.000179812
-0.000179433
-0.000178819
-0.00017775
-0.000176258
-0.000174343
-0.000172004
-0.000169239
-0.000166046
-0.000162423
-0.000158367
-0.000153877
-0.00014895
-0.000143585
-0.000137778
-0.000131528
-0.000124832
-0.000117688
-0.000110094
-0.000102049
-9.35506e-05
-8.45974e-05
-7.51883e-05
-6.53222e-05
-5.49986e-05
-4.42173e-05
-3.29782e-05
-2.12819e-05
-9.12937e-06
3.47799e-06
1.65383e-05
3.0049e-05
4.40072e-05
5.84093e-05
7.3251e-05
8.85274e-05
0.000104233
0.000120362
0.000136907
0.00015386
0.000171213
0.000188957
0.000207081
0.000225575
0.000244427
0.000263624
0.000283152
0.000302998
0.000323146
0.00034358
0.000364282
0.000385236
0.000406423
0.000427824
0.000449415
0.000471175
0.000493082
0.000515112
0.000537241
-0.000191642
-0.000192204
-0.000191831
-0.000191227
-0.000190164
-0.000188676
-0.000186764
-0.000184425
-0.000181658
-0.000178459
-0.000174828
-0.000170761
-0.000166256
-0.000161311
-0.000155922
-0.000150087
-0.000143804
-0.00013707
-0.000129881
-0.000122237
-0.000114134
-0.00010557
-9.65438e-05
-8.70534e-05
-7.70974e-05
-6.66746e-05
-5.57844e-05
-4.44263e-05
-3.26005e-05
-2.03073e-05
-7.54793e-06
5.67631e-06
1.93633e-05
3.35105e-05
4.81147e-05
6.3172e-05
7.8678e-05
9.46275e-05
0.000111015
0.000127833
0.000145074
0.000162731
0.000180795
0.000199255
0.000218101
0.000237321
0.000256903
0.000276834
0.0002971
0.000317684
0.000338571
0.000359745
0.000381187
0.00040288
0.000424804
0.000446936
0.000469254
0.000491736
0.000514358
0.000537095
-0.000204453
-0.000205036
-0.00020467
-0.000204076
-0.000203021
-0.000201538
-0.00019963
-0.000197294
-0.000194526
-0.000191325
-0.000187688
-0.000183612
-0.000179095
-0.000174133
-0.000168724
-0.000162864
-0.00015655
-0.000149779
-0.000142548
-0.000134855
-0.000126696
-0.000118069
-0.000108971
-9.94002e-05
-8.9355e-05
-7.88335e-05
-6.78345e-05
-5.63571e-05
-4.44009e-05
-3.1966e-05
-1.90528e-05
-5.66234e-06
8.20379e-06
2.25434e-05
3.73538e-05
5.26315e-05
6.83724e-05
8.45717e-05
0.000101224
0.000118323
0.000135861
0.000153831
0.000172224
0.000191031
0.00021024
0.000229842
0.000249822
0.00027017
0.00029087
0.000311907
0.000333265
0.000354927
0.000376873
0.000399095
0.000421563
0.000444257
0.000467156
0.000490236
0.000513474
0.000536845
-0.000217706
-0.00021831
-0.000217952
-0.000217369
-0.000216323
-0.000214848
-0.000212946
-0.000210614
-0.000207848
-0.000204647
-0.000201007
-0.000196925
-0.000192398
-0.000187423
-0.000181995
-0.000176113
-0.000169771
-0.000162966
-0.000155696
-0.000147956
-0.000139744
-0.000131055
-0.000121888
-0.000112239
-0.000102105
-9.14862e-05
-8.0379e-05
-6.87825e-05
-5.66958e-05
-4.41182e-05
-3.105e-05
-1.74914e-05
-3.44379e-06
1.10913e-05
2.61115e-05
4.16138e-05
5.75946e-05
7.40495e-05
9.09733e-05
0.00010836
0.000126203
0.000144495
0.000163227
0.000182391
0.000201975
0.00022197
0.000242362
0.00026314
0.00028429
0.000305795
0.000327642
0.00034981
0.000372276
0.00039505
0.000418083
0.00044136
0.000464861
0.000488563
0.000512442
0.000536473
-0.000231401
-0.000232028
-0.000231679
-0.000231109
-0.000230073
-0.000228608
-0.000226715
-0.000224389
-0.000221628
-0.000218429
-0.000214788
-0.000210703
-0.00020617
-0.000201184
-0.000195742
-0.00018984
-0.000183474
-0.00017664
-0.000169333
-0.00016155
-0.000153286
-0.000144539
-0.000135304
-0.000125579
-0.00011536
-0.000104644
-9.34299e-05
-8.1715e-05
-6.94979e-05
-5.67775e-05
-4.35534e-05
-2.98254e-05
-1.55943e-05
-8.61222e-07
1.4372e-05
3.01029e-05
4.63282e-05
6.30439e-05
8.02453e-05
9.7927e-05
0.000116082
0.000134705
0.000153785
0.000173316
0.000193286
0.000213686
0.000234503
0.000255726
0.000277339
0.00029933
0.000321682
0.000344382
0.00036742
0.000390732
0.000414343
0.000438223
0.00046235
0.000486698
0.000511243
0.000535959
-0.000245541
-0.000246193
-0.000245853
-0.000245297
-0.000244274
-0.000242821
-0.000240938
-0.000238621
-0.000235867
-0.000232674
-0.000229037
-0.000224952
-0.000220416
-0.000215424
-0.000209971
-0.000204054
-0.000197667
-0.000190806
-0.000183466
-0.000175643
-0.000167332
-0.000158529
-0.000149231
-0.000139432
-0.000129129
-0.000118319
-0.000107
-9.51675e-05
-8.28208e-05
-6.99578e-05
-5.65776e-05
-4.26794e-05
-2.82634e-05
-1.33302e-05
2.11886e-06
1.80817e-05
3.45556e-05
5.15371e-05
6.90219e-05
8.70048e-05
0.00010548
0.00012444
0.000143879
0.000163786
0.000184154
0.00020497
0.000226224
0.000247904
0.000269997
0.000292487
0.00031536
0.0003386
0.00036219
0.000386098
0.000410316
0.000434825
0.0004596
0.000484618
0.000509854
0.000535283
-0.000260128
-0.000260804
-0.000260475
-0.000259936
-0.000258927
-0.000257488
-0.000255618
-0.000253313
-0.000250571
-0.000247386
-0.000243756
-0.000239675
-0.00023514
-0.000230146
-0.000224687
-0.000218758
-0.000212355
-0.000205472
-0.000198104
-0.000190245
-0.000181891
-0.000173037
-0.000163677
-0.000153808
-0.000143425
-0.000132524
-0.000121101
-0.000109153
-9.66785e-05
-8.36739e-05
-7.01377e-05
-5.6069e-05
-4.14672e-05
-2.63323e-05
-1.06653e-05
5.53252e-06
2.22588e-05
3.95105e-05
5.72838e-05
7.5574e-05
9.43757e-05
0.000113682
0.000133487
0.000153781
0.000174555
0.0001958
0.000217504
0.000239655
0.00026224
0.000285245
0.000308654
0.000332452
0.00035662
0.000381136
0.000405983
0.000431142
0.000456589
0.000482302
0.000508255
0.000534422
-0.000275161
-0.000275865
-0.000275547
-0.000275026
-0.000274034
-0.000272611
-0.000270758
-0.000268468
-0.00026574
-0.000262569
-0.000258949
-0.000254878
-0.000250348
-0.000245356
-0.000239896
-0.000233961
-0.000227547
-0.000220646
-0.000213254
-0.000205365
-0.000196973
-0.000188071
-0.000178655
-0.00016872
-0.00015826
-0.00014727
-0.000135747
-0.000123687
-0.000111086
-9.79408e-05
-8.42497e-05
-7.00108e-05
-5.52228e-05
-3.98852e-05
-2.39984e-05
-7.56324e-06
9.41855e-06
2.69445e-05
4.50111e-05
6.36143e-05
8.27491e-05
0.000102409
0.000122588
0.000143278
0.00016447
0.000186154
0.000208319
0.000230954
0.000254046
0.00027758
0.000301543
0.000325916
0.000350684
0.000375824
0.00040132
0.000427151
0.000453294
0.000479726
0.000506422
0.000533355
-0.000290643
-0.000291375
-0.000291071
-0.00029057
-0.000289597
-0.000288194
-0.000286359
-0.000284089
-0.000281379
-0.000278225
-0.000274621
-0.000270563
-0.000266045
-0.00026106
-0.000255603
-0.000249668
-0.000243248
-0.000236336
-0.000228926
-0.000221012
-0.000212586
-0.000203643
-0.000194175
-0.000184178
-0.000173646
-0.000162572
-0.000150953
-0.000138783
-0.000126058
-0.000112775
-9.893e-05
-8.45217e-05
-6.95478e-05
-5.40071e-05
-3.78994e-05
-2.12249e-05
-3.98491e-06
1.38187e-05
3.2183e-05
5.11044e-05
7.05783e-05
9.0599e-05
0.00011116
0.000132254
0.000153873
0.000176007
0.000198646
0.000221778
0.00024539
0.00026947
0.000294001
0.000318968
0.000344353
0.000370138
0.000396303
0.000422828
0.00044969
0.000476866
0.00050433