# Probe 0 (0 1 0)
# Probe 1 (0.1 0.9 0)
# Probe 2 (0.2 0.8 0)
# Probe 3 (0.3 0.7 0)
# Probe 4 (0.4 0.6 0)
# Probe 5 (0.5 0.5 0)
# Probe 6 (0.6 0.4 0)
# Probe 7 (0.7 0.3 0)
# Probe 8 (0.8 0.2 0)
# Probe 9 (0.9 0.1 0)
# Probe 10 (1 0 0)
# Time        0             1             2             3             4             5             6             7             8             9             10           
0             0             0             0             0             0             0             0             0             0             0             0            
0.001         18.0196       1.62131e-08   -1.94002e-19  -1.94204e-27  -1.45207e-36  -7.75903e-46  -3.47286e-55  -1.38553e-64  -5.09472e-74  -1.28589e-83  9.06548e-100 
0.002         34.0973       1.80637e-07   4.22996e-17   1.14687e-26   1.94259e-36   -1.07697e-45  -1.46751e-54  -1.0732e-63   -6.29356e-73  -2.67303e-82  -1.12271e-94 
0.003         48.2892       1.04868e-06   4.34199e-16   1.8711e-25    8.62408e-35   3.35278e-44   9.07334e-54   1.10431e-64   -2.06941e-72  -1.7194e-81   -2.54539e-93 
0.004         60.668        4.39285e-06   3.00507e-15   1.60492e-24   9.08944e-34   4.76807e-43   2.19115e-52   8.65362e-62   2.71355e-71   2.90235e-82   -7.62231e-93 
0.005         71.3207       1.48565e-05   1.65239e-14   1.07452e-23   6.89932e-33   4.22031e-42   2.34228e-51   1.18227e-60   5.43397e-70   1.29372e-79   6.09109e-92  
0.006         80.3473       4.30828e-05   7.74176e-14   6.28103e-23   4.52255e-32   3.10188e-41   1.95625e-50   1.13586e-59   6.12654e-69   1.78498e-78   7.82607e-91  
0.007         87.8583       0.000110932   3.16759e-13   3.2376e-22    2.60046e-31   1.95121e-40   1.35454e-49   8.68537e-59   5.18915e-68   1.57963e-77   4.17614e-90  
0.008         93.9729       0.000260064   1.16942e-12   1.5449e-21    1.42004e-30   1.17019e-39   8.89238e-49   6.24008e-58   4.07235e-67   1.24209e-76   1.77527e-89  
0.009         98.8162       0.000564158   3.93147e-12   6.75278e-21   7.1883e-30    6.50733e-39   5.37212e-48   4.08453e-57   2.87524e-66   8.47135e-76   3.50333e-89  
0.01          102.518       0.0011468     1.21948e-11   2.72979e-20   3.40161e-29   3.39637e-38   3.03512e-47   2.485e-56     1.87169e-65   5.17843e-75   -1.87809e-88 
0.011         105.208       0.00220546    3.52539e-11   1.02775e-19   1.51093e-28   1.67207e-37   1.61477e-46   1.41731e-55   1.13485e-64   2.87116e-74   -2.7671e-87  
0.012         107.017       0.00404359    9.59088e-11   3.64382e-19   6.38759e-28   7.9233e-37    8.31467e-46   7.83634e-55   6.66429e-64   1.5211e-73    -2.06284e-86 
0.013         108.073       0.00710916    2.46815e-10   1.21684e-18   2.54994e-27   3.56043e-36   4.0639e-45    4.10444e-54   3.68938e-63   7.41106e-73   -1.26103e-85 
0.014         108.501       0.0120446     6.04539e-10   3.85244e-18   9.67415e-27   1.52843e-35   1.90346e-44   2.06052e-53   1.9514e-62    3.37584e-72   -6.57357e-85 
0.015         108.416       0.0197446     1.41623e-09   1.16159e-17   3.50028e-26   6.2858e-35    8.57221e-44   9.9572e-53    9.90835e-62   1.44496e-71   -2.91328e-84 
0.016         107.93        0.0314226     3.18635e-09   3.34888e-17   1.21145e-25   2.48187e-34   3.72007e-43   4.64474e-52   4.84483e-61   5.82802e-71   -1.00036e-83 
0.017         107.144       0.048687      6.90939e-09   9.26344e-17   4.02164e-25   9.42584e-34   1.5583e-42    2.09581e-51   2.28644e-60   2.21822e-70   -1.41655e-83 
0.018         106.15        0.0736227     1.44846e-08   2.46603e-16   1.28375e-24   3.4493e-33    6.30949e-42   9.16197e-51   1.04319e-59   7.96885e-70   1.62933e-82  
0.019         105.029       0.108838      2.93018e-08   6.2341e-16    3.80141e-24   1.13306e-32   2.19876e-41   3.28397e-50   3.63026e-59   1.48671e-69   7.42217e-82  
0.02          103.852       0.157663      5.76746e-08   1.53146e-15   1.09826e-23   3.66125e-32   7.60743e-41   1.17654e-49   1.25091e-58   2.09412e-69   4.14845e-81  
0.021         102.68        0.224148      1.10648e-07   3.6602e-15    3.09526e-23   1.16195e-31   2.60826e-40   4.20917e-49   4.26024e-58   2.66557e-70   2.71935e-80  
0.022         101.562       0.313172      2.07249e-07   8.52169e-15   8.51225e-23   3.61832e-31   8.84751e-40   1.50231e-48   1.43211e-57   -1.52213e-68  1.883e-79    
0.023         100.536       0.430559      3.8032e-07    1.95116e-14   2.33431e-22   1.15385e-30   3.20238e-39   6.04109e-48   6.01365e-57   -6.68035e-68  2.39838e-78  
0.024         99.633        0.583012      6.82786e-07   4.35101e-14   6.2145e-22    3.56399e-30   1.12118e-38   2.34854e-47   2.43125e-56   -2.72107e-67  1.7062e-77   
0.025         98.8712       0.778285      1.20088e-06   9.46509e-14   1.60908e-21   1.06838e-29   3.80473e-38   8.84582e-47   9.48341e-56   -1.02249e-66  9.98989e-77  
0.026         98.2622       1.02516       2.07173e-06   2.01155e-13   4.05857e-21   3.11359e-29   1.25371e-37   3.23378e-46   3.57474e-55   -3.49532e-66  5.2058e-76   
0.027         97.8097       1.33346       3.50971e-06   4.18197e-13   9.98681e-21   8.83526e-29   4.01771e-37   1.14919e-45   1.30383e-54   -1.05009e-65  2.48729e-75  
0.028         97.5108       1.71396       5.84468e-06   8.51524e-13   2.40054e-20   2.44455e-28   1.25394e-36   3.97535e-45   4.6061e-54    -2.50645e-65  1.10567e-74  
0.029         97.3571       2.17839       9.57642e-06   1.70002e-12   5.6434e-20    6.60315e-28   3.81636e-36   1.3403e-44    1.57735e-53   -2.70506e-65  4.60785e-74  
0.03          97.3358       2.73925       1.54514e-05   3.33108e-12   1.29897e-19   1.74331e-27   1.13397e-35   4.40925e-44   5.23916e-53   1.79459e-64   1.80636e-73  
0.031         97.4307       3.40945       2.45412e-05   6.38504e-12   2.90072e-19   4.41432e-27   3.18136e-35   1.34159e-43   1.46008e-52   1.83165e-63   7.0362e-73   
0.032         97.6234       4.20287       3.84508e-05   1.20435e-11   6.36682e-19   1.09878e-26   8.78583e-35   4.02849e-43   3.94709e-52   1.18067e-62   2.66975e-72  
0.033         97.8939       5.13338       5.9465e-05    2.23679e-11   1.37431e-18   2.68935e-26   2.38831e-34   1.19326e-42   1.02966e-51   6.30645e-62   9.7715e-72   
0.034         98.2219       6.2148        9.08267e-05   4.09312e-11   2.91894e-18   6.4749e-26    6.391e-34     3.48552e-42   2.57202e-51   2.99749e-61   3.40964e-71  
0.035         98.5872       7.46066       0.000137087   7.38402e-11   6.10361e-18   1.53407e-25   1.68378e-33   1.00384e-41   6.07578e-51   1.30592e-60   1.11878e-70  
0.036         98.9707       8.88382       0.000204563   1.31399e-10   1.25721e-17   3.57833e-25   4.36881e-33   2.85057e-41   1.32683e-50   5.2969e-60    3.38514e-70  
0.037         99.355        10.4961       0.00030194    2.3078e-10    2.55244e-17   8.22227e-25   1.11687e-32   7.98347e-41   2.551e-50     2.01914e-59   9.11263e-70  
0.038         99.7244       12.3082       0.000441066   4.00348e-10   5.1125e-17    1.86321e-24   2.81682e-32   2.20829e-40   3.75921e-50   7.27571e-59   2.00195e-69  
0.039         100.066       14.3287       0.00063794    6.86905e-10   1.01383e-16   4.19508e-24   7.10682e-32   6.17713e-40   6.61064e-50   2.36857e-58   -2.50471e-70 
0.04          100.369       16.5641       0.000913682   1.16436e-09   1.98243e-16   9.29829e-24   1.76247e-31   1.69583e-39   5.41492e-50   7.41302e-58   -2.16671e-68 
0.041         100.625       19.0189       0.00129631    1.95077e-09   3.82443e-16   2.03009e-23   4.29926e-31   4.57276e-39   -2.50582e-49  2.23276e-57   -1.30967e-67 
0.042         100.83        21.6943       0.00182171    3.22598e-09   7.25005e-16   4.32978e-23   1.01636e-30   1.18206e-38   -2.87234e-48  6.74116e-57   -5.42317e-67 
0.043         100.98        24.5891       0.00253795    5.27904e-09   1.35828e-15   9.11891e-23   2.3718e-30    3.0165e-38    -1.30601e-47  1.93944e-56   -2.12199e-66 
0.044         101.075       27.6986       0.00350628    8.55117e-09   2.51566e-15   1.89697e-22   5.46471e-30   7.59932e-38   -4.73504e-47  5.30503e-56   -7.81529e-66 
0.045         101.117       31.0148       0.00480495    1.37156e-08   4.60752e-15   3.89896e-22   1.24341e-29   1.89019e-37   -1.53376e-46  1.37292e-55   -2.71839e-65 
0.046         101.11        34.526        0.00653316    2.17898e-08   8.34787e-15   7.9203e-22    2.7947e-29    4.64265e-37   -4.62299e-46  3.33021e-55   -8.96614e-65 
0.047         101.058       38.2171       0.00881571    3.42985e-08   1.49664e-14   1.59064e-21   6.20644e-29   1.12626e-36   -1.3218e-45   7.433e-55     -2.81286e-64 
0.048         100.968       42.0695       0.0118085     5.35057e-08   2.65595e-14   3.15915e-21   1.36226e-28   2.69903e-36   -3.62296e-45  1.46597e-54   -8.40665e-64 
0.049         100.848       46.0613       0.0157046     8.27464e-08   4.66677e-14   6.20679e-21   2.956e-28     6.39104e-36   -9.58019e-45  2.27522e-54   -2.39326e-63 
0.05          100.704       50.1672       0.0207421     1.26892e-07   8.12135e-14   1.20667e-20   6.34306e-28   1.49563e-35   -2.45384e-44  1.32759e-54   -6.47624e-63 
0.051         100.545       54.3595       0.0272117     1.93002e-07   1.40015e-13   2.32197e-20   1.34637e-27   3.4599e-35    -6.10411e-44  -9.22173e-54  -1.65753e-62 
0.052         100.379       58.6076       0.0354666     2.91232e-07   2.39208e-13   4.42378e-20   2.8276e-27    7.91399e-35   -1.47719e-43  -5.65998e-53  -3.97361e-62 
0.053         100.213       62.8792       0.0459329     4.3608e-07    4.05081e-13   8.34687e-20   5.87743e-27   1.79032e-34   -3.48129e-43  -2.25378e-52  -8.75349e-62 
0.054         100.052       67.1402       0.0591212     6.48099e-07   6.80127e-13   1.56017e-19   1.2095e-26    4.00677e-34   -7.99381e-43  -7.59105e-52  -1.69862e-61 
0.055         99.9043       71.3559       0.0756402     9.56235e-07   1.13251e-12   2.88988e-19   2.46509e-26   8.87465e-34   -1.78872e-42  -2.31916e-51  -2.56995e-61 
0.056         99.7729       75.491        0.0962117     1.40104e-06   1.87091e-12   5.30696e-19   4.97861e-26   1.94662e-33   -3.90072e-42  -6.61427e-51  -1.32705e-61 
0.057         99.6619       79.5105       0.121676      2.03885e-06   3.06837e-12   9.67813e-19   9.99812e-26   4.25529e-33   -8.3108e-42   -1.75512e-50  1.40836e-60  
0.058         99.574        83.3805       0.15302       2.94683e-06   4.9924e-12    1.74922e-18   1.98804e-25   9.19804e-33   -1.7243e-41   -4.46282e-50  7.67332e-60  
0.059         99.5105       87.0685       0.191389      4.23095e-06   8.06032e-12   3.13409e-18   3.91518e-25   1.96653e-32   -3.47292e-41  -1.09166e-49  2.85227e-59  
0.06          99.4719       90.5444       0.238105      6.03543e-06   1.29159e-11   5.56793e-18   7.63851e-25   4.15969e-32   -6.75902e-41  -2.57376e-49  9.07543e-59  
0.061         99.4575       93.781        0.294639      8.5495e-06    2.05098e-11   9.77715e-18   1.46815e-24   8.62397e-32   -1.22913e-40  -5.92734e-49  2.63454e-58  
0.062         99.4659       96.7539       0.362756      1.20381e-05   3.23458e-11   1.70396e-17   2.79924e-24   1.77196e-31   -2.091e-40    -1.30982e-48  7.24086e-58  
0.063         99.4948       99.4427       0.444411      1.68503e-05   5.06688e-11   2.94764e-17   5.29468e-24   3.6081e-31    -3.20906e-40  -2.76908e-48  1.89667e-57  
0.064         99.5415       101.832       0.541808      2.34501e-05   7.88474e-11   5.06186e-17   9.93616e-24   7.28121e-31   -4.0357e-40   -5.56633e-48  4.75089e-57  
0.065         99.6025       103.909       0.657412      3.24506e-05   1.21904e-10   8.63036e-17   1.85027e-23   1.45634e-30   -2.56992e-40  -1.05162e-47  1.13928e-56  
0.066         99.6744       105.667       0.79397       4.46579e-05   1.87281e-10   1.46116e-16   3.41947e-23   2.88736e-30   6.96413e-40   -1.82475e-47  2.61335e-56  
0.067         99.7534       107.106       0.954518      6.11258e-05   2.85944e-10   2.4569e-16    6.27289e-23   5.67525e-30   3.94322e-39   -2.75787e-47  5.71609e-56  
0.068         99.8359       108.227       1.1424        8.32266e-05   4.33969e-10   4.10393e-16   1.14257e-22   1.10621e-29   1.30404e-38   -3.06167e-47  1.18446e-55  
0.069         99.9184       109.038       1.36129       0.000112759   6.55204e-10   6.82116e-16   2.07258e-22   2.14981e-29   3.52212e-38   -8.40136e-49  2.1948e-55   
0.07          99.9977       109.553       1.61499       0.000151921   9.82212e-10   1.12354e-15   3.71672e-22   4.11135e-29   8.94112e-38   1.44412e-46   3.86855e-55  
0.071         100.071       109.786       1.90788       0.000203683   1.46427e-09   1.8394e-15    6.62192e-22   7.80142e-29   2.12263e-37   6.12181e-46   5.7705e-55   
0.072         100.136       109.76        2.2445        0.000271756   2.17085e-09   2.99291e-15   1.17197e-21   1.46832e-28   4.8007e-37    1.90564e-45   5.61401e-55  
0.073         100.19        109.497       2.62971       0.000360852   3.20084e-09   4.84033e-15   2.06059e-21   2.74103e-28   1.04468e-36   5.17439e-45   -4.64548e-55 
0.074         100.233       109.024       3.06862       0.000476918   4.69429e-09   7.78155e-15   3.59957e-21   5.07539e-28   2.20027e-36   1.29271e-44   -4.85152e-54 
0.075         100.263       108.372       3.56659       0.000627423   6.84843e-09   1.2437e-14    6.24803e-21   9.32188e-28   4.50182e-36   3.04162e-44   -1.87947e-53 
0.076         100.281       107.57        4.12921       0.000821706   9.93966e-09   1.97638e-14   1.07775e-20   1.69838e-27   8.96857e-36   6.82143e-44   -5.74979e-53 
0.077         100.287       106.65        4.7622        0.00107139    1.43533e-08   3.12303e-14   1.84767e-20   3.06958e-27   1.7421e-35    1.46779e-43   -1.56244e-52 
0.078         100.28        105.644       5.47143       0.00139088    2.06242e-08   4.90771e-14   3.14857e-20   5.50366e-27   3.30148e-35   3.04077e-43   -3.93056e-52 
0.079         100.263       104.584       6.26284       0.00179795    2.94907e-08   7.67052e-14   5.33371e-20   9.78961e-27   6.10391e-35   6.07323e-43   -9.32955e-52 
0.08          100.237       103.5         7.14236       0.00231441    4.19677e-08   1.1925e-13    8.98296e-20   1.72754e-26   1.10017e-34   1.16891e-42   -2.10993e-51 
0.081         100.204       102.421       8.11584       0.00296697    5.94437e-08   1.84424e-13   1.50428e-19   3.02446e-26   1.93017e-34   2.16289e-42   -4.56945e-51 
0.082         100.165       101.374       9.18899       0.00378813    8.38096e-08   2.83757e-13   2.50498e-19   5.25321e-26   3.28764e-34   3.82819e-42   -9.49563e-51 
0.083         100.122       100.383       10.3673       0.00481733    1.17629e-07   4.34398e-13   4.14847e-19   9.0523e-26    5.41359e-34   6.42087e-42   -1.89264e-50 
0.084         100.078       99.4698       11.6559       0.00610218    1.64363e-07   6.61727e-13   6.83318e-19   1.54755e-25   8.55835e-34   1.00248e-41   -3.60739e-50 
0.085         100.034       98.6509       13.0595       0.00769998    2.28663e-07   1.00313e-12   1.11957e-18   2.62466e-25   1.28358e-33   1.40219e-41   -6.53164e-50 
0.086         99.9914       97.9409       14.5824       0.00967937    3.16756e-07   1.51344e-12   1.82479e-18   4.41602e-25   1.78564e-33   1.58117e-41   -1.10907e-49 
0.087         99.9523       97.3499       16.228        0.0121223     4.36939e-07   2.27269e-12   2.95906e-18   7.37056e-25   2.19098e-33   7.97184e-42   -1.72018e-49 
0.088         99.9178       96.8845       17.9994       0.015126      6.00232e-07   3.39717e-12   4.77436e-18   1.22028e-24   2.02727e-33   -2.76573e-41  -2.28724e-49 
0.089         99.8889       96.5476       19.8985       0.018806      8.21206e-07   5.05518e-12   7.66548e-18   2.00394e-24   1.89201e-34   -1.31705e-40  -2.07396e-49 
0.09          99.8664       96.3384       21.9264       0.0232983     1.11906e-06   7.48929e-12   1.22483e-17   3.26403e-24   -5.68575e-33  -3.89563e-40  9.76593e-50  
0.091         99.8507       96.2527       24.0833       0.0287628     1.51899e-06   1.10478e-11   1.94796e-17   5.27286e-24   -2.0351e-32   -9.72107e-40  1.19069e-48  
0.092         99.8418       96.2834       26.3682       0.0353872     2.05399e-06   1.62288e-11   3.08402e-17   8.44806e-24   -5.29479e-32  -2.20731e-39  4.20978e-48  
0.093         99.8398       96.4208       28.779        0.0433903     2.76708e-06   2.37431e-11   4.86136e-17   1.34242e-23   -1.20433e-31  -4.70163e-39  1.15714e-47  
0.094         99.8441       96.653        31.3118       0.0530183     3.71286e-06   3.45818e-11   7.62613e-17   2.1151e-23    -2.52413e-31  -9.50461e-39  2.85886e-47  
0.095         99.8543       96.9661       33.9623       0.0645672     4.9633e-06    5.01582e-11   1.1908e-16    3.30092e-23   -5.01854e-31  -1.84441e-38  6.47696e-47  
0.096         99.8694       97.3449       36.7247       0.0783808     6.61163e-06   7.24672e-11   1.8512e-16    5.09683e-23   -9.61442e-31  -3.46566e-38  1.37733e-46  
0.097         99.8886       97.7737       39.5913       0.0948346     8.77376e-06   1.04239e-10   2.86343e-16   7.77944e-23   -1.78019e-30  -6.2908e-38   2.81051e-46  
0.098         99.9108       98.2363       42.5535       0.114371      1.16002e-05   1.49317e-10   4.40833e-16   1.17361e-22   -3.19846e-30  -1.10268e-37  5.51441e-46  
0.099         99.9351       98.7166       45.6014       0.137495      1.52825e-05   2.13035e-10   6.7565e-16    1.74933e-22   -5.59066e-30  -1.86292e-37  1.04118e-45  
0.1           99.9602       99.199        48.7238       0.164778      2.00638e-05   3.02766e-10   1.03109e-15   2.57436e-22   -9.52099e-30  -3.02116e-37  1.89055e-45  
0.101         99.9853       99.669        51.9081       0.196868      2.6251e-05    4.28662e-10   1.5669e-15    3.73635e-22   -1.58069e-29  -4.66736e-37  3.29224e-45  
0.102         100.009       100.113       55.1409       0.234494      3.42309e-05   6.04652e-10   2.37133e-15   5.34021e-22   -2.55756e-29  -6.77147e-37  5.46614e-45  
0.103         100.031       100.521       58.4075       0.278472      4.44888e-05   8.49775e-10   3.57417e-15   7.50091e-22   -4.02793e-29  -8.9611e-37   8.5553e-45   
0.104         100.051       100.881       61.6924       0.329719      5.76322e-05   1.18997e-09   5.3656e-15    1.03247e-21   -6.15973e-29  -1.00646e-36  1.2341e-44   
0.105         100.067       101.187       64.9794       0.389252      7.44183e-05   1.66044e-09   8.02309e-15   1.38695e-21   -9.10891e-29  -7.2301e-37   1.55766e-44  
0.106         100.079       101.434       68.2517       0.458203      9.57887e-05   2.30881e-09   1.195e-14     1.80703e-21   -1.29355e-28  5.69065e-37   1.45671e-44  
0.107         100.088       101.616       71.4919       0.537822      0.00012291    3.19928e-09   1.77304e-14   2.26059e-21   -1.74287e-28  4.09824e-36   3.29696e-46  
0.108         100.092       101.735       74.6827       0.629487      0.000157222   4.41809e-09   2.62065e-14   2.66727e-21   -2.17719e-28  1.21867e-35   -4.67977e-44 
0.109         100.093       101.789       77.8067       0.734707      0.000200499   6.08075e-09   3.85888e-14   2.86122e-21   -2.39375e-28  2.90307e-35   -1.66948e-43 
0.11          100.09        101.783       80.8465       0.855133      0.000254918   8.3414e-09    5.66099e-14   2.53144e-21   -1.96416e-28  6.19204e-35   -4.37774e-43 
0.111         100.084       101.72        83.7854       0.992562      0.000323141   1.14051e-08   8.27405e-14   1.12837e-21   -6.0215e-30   1.23062e-34   -1.00292e-42 
0.112         100.075       101.607       86.6073       1.14894       0.000408418   1.55437e-08   1.20491e-13   -2.27931e-21  4.8267e-28    2.32155e-34   -2.11743e-42 
0.113         100.063       101.45        89.2968       1.32637       0.0005147     2.11165e-08   1.74831e-13   -9.22033e-21  1.53242e-27   4.19795e-34   -4.21653e-42 
0.114         100.05        101.257       91.8399       1.52711       0.000646775   2.85972e-08   2.52767e-13   -2.21399e-20  3.58442e-27   7.31478e-34   -8.01288e-42 
0.115         100.036       101.037       94.2236       1.75358       0.000810435   3.86077e-08   3.64148e-13   -4.48641e-20  7.35612e-27   1.2314e-33    -1.46212e-41 
0.116         100.021       100.799       96.4364       2.00834       0.00101266    5.19625e-08   5.22761e-13   -8.32642e-20  1.39804e-26   2.00397e-33   -2.56913e-41 
0.117         100.006       100.551       98.4687       2.29415       0.00126183    6.9725e-08    7.47838e-13   -1.46193e-19  2.51961e-26   3.14879e-33   -4.34923e-41 
0.118         99.9923       100.302       100.312       2.61386       0.00156799    9.32793e-08   1.06611e-12   -2.46778e-19  4.3597e-26    4.76065e-33   -7.08069e-41 
0.119         99.9794       100.061       101.961       2.97053       0.00194316    1.24421e-07   1.5146e-12    -4.04189e-19  7.29383e-26   6.87971e-33   -1.10347e-40 
0.12          99.9682       99.8345       103.412       3.3673        0.00240163    1.65476e-07   2.1444e-12    -6.4598e-19   1.18478e-25   9.38616e-33   -1.6312e-40  
0.121         99.9589       99.6288       104.661       3.80746       0.00296038    2.1944e-07    3.02576e-12   -1.01117e-18  1.87301e-25   1.17973e-32   -2.24715e-40 
0.122         99.9517       99.4493       105.711       4.29442       0.00363954    2.90173e-07   4.25491e-12   -1.55414e-18  2.88494e-25   1.29007e-32   -2.77691e-40 
0.123         99.9469       99.3003       106.562       4.83165       0.00446286    3.8262e-07    5.96321e-12   -2.3495e-18   4.32966e-25   1.01231e-32   -2.77037e-40 
0.124         99.9444       99.1845       107.219       5.42274       0.00545834    5.03111e-07   8.32936e-12   -3.49785e-18  6.32483e-25   -1.51065e-33  -1.23865e-40 
0.125         99.9443       99.1036       107.688       6.07128       0.00665884    6.59716e-07   1.15955e-11   -5.13237e-18  8.97296e-25   -3.10311e-32  3.8015e-40   
0.126         99.9463       99.058        107.978       6.78091       0.00810286    8.62701e-07   1.60886e-11   -7.42574e-18  1.2313e-24    -9.40509e-32  1.60842e-39  
0.127         99.9502       99.047        108.099       7.55526       0.00983535    1.12509e-06   2.22485e-11   -1.05966e-17  1.62312e-24   -2.1648e-31   4.23015e-39  
0.128         99.9559       99.0687       108.063       8.39791       0.0119087     1.46335e-06   3.0665e-11    -1.49141e-17  2.03083e-24   -4.39753e-31  9.39488e-39  
0.129         99.9629       99.1202       107.883       9.31239       0.0143838     1.89827e-06   4.21258e-11   -2.06977e-17  2.35688e-24   -8.27804e-31  1.90015e-38  
0.13          99.971        99.1979       107.572       10.3021       0.017331      2.456e-06     5.76794e-11   -2.8309e-17   2.40867e-24   -1.47575e-30  3.60679e-38  
0.131         99.9797       99.2977       107.148       11.3703       0.0208318     3.16936e-06   7.87161e-11   -3.81285e-17  1.83848e-24   -2.51959e-30  6.52001e-38  
0.132         99.9886       99.4147       106.625       12.5199       0.0249802     4.07945e-06   1.07073e-10   -5.05097e-17  5.50593e-26   -4.145e-30    1.13113e-37  
0.133         99.9975       99.5439       106.021       13.754        0.0298838     5.23754e-06   1.45168e-10   -6.5697e-17   -3.90296e-24  -6.59097e-30  1.89065e-37  
0.134         100.006       99.6803       105.352       15.0749       0.0356663     6.70754e-06   1.96172e-10   -8.36905e-17  -1.15423e-23  -1.01404e-29  3.04878e-37  
0.135         100.014       99.8187       104.636       16.4848       0.0424689     8.56879e-06   2.64229e-10   -1.04033e-16  -2.515e-23    -1.50833e-29  4.73908e-37  
0.136         100.02        99.9545       103.89        17.9856       0.0504527     1.09196e-05   3.54732e-10   -1.25487e-16  -4.80956e-23  -2.16295e-29  7.07783e-37  
0.137         100.026       100.083       103.129       19.5787       0.0598007     1.38815e-05   4.74675e-10   -1.45563e-16  -8.52036e-23  -2.97327e-29  1.00883e-36  
0.138         100.03        100.201       102.369       21.2649       0.0707204     1.76044e-05   6.3309e-10    -1.59836e-16  -1.43181e-22  -3.87694e-29  1.35482e-36  
0.139         100.033       100.304       101.625       23.0447       0.0834466     2.22724e-05   8.416e-10     -1.61002e-16  -2.31065e-22  -4.69874e-29  1.67049e-36  
0.14          100.034       100.39        100.909       24.9178       0.0982437     2.81117e-05   1.1151e-09    -1.37567e-16  -3.60609e-22  -5.06068e-29  1.77776e-36  
0.141         100.034       100.458       100.234       26.8835       0.115409      3.53988e-05   1.47259e-09   -7.20983e-17  -5.46463e-22  -4.24097e-29  1.31229e-36  
0.142         100.033       100.505       99.6107       28.9403       0.135278      4.44717e-05   1.93825e-09   6.10784e-17   -8.05903e-22  -9.61521e-30  -4.10354e-37 
0.143         100.03        100.532       99.0472       31.0863       0.158222      5.57416e-05   2.54267e-09   2.98858e-16   -1.15772e-21  6.92112e-29   -4.60119e-36 
0.144         100.027       100.539       98.5509       33.3185       0.184658      6.97086e-05   3.3244e-09    6.93107e-16   -1.61967e-21  2.28481e-28   -1.33041e-35 
0.145         100.022       100.527       98.127        35.6335       0.21505       8.69785e-05   4.33185e-09   1.31529e-15   -2.20365e-21  5.21384e-28   -2.9831e-35  
0.146         100.017       100.498       97.7793       38.0271       0.249912      0.000108284   5.6255e-09    2.26202e-15   -2.90733e-21  1.02727e-27   -5.93498e-35 
0.147         100.012       100.453       97.5095       40.4943       0.289812      0.00013451    7.28062e-09   3.66148e-15   -3.70063e-21  1.86048e-27   -1.09629e-34 
0.148         100.006       100.395       97.3178       43.0294       0.335378      0.000166721   9.39036e-09   5.68062e-15   -4.50478e-21  3.1798e-27    -1.91893e-34 
0.149         100.001       100.326       97.2027       45.626        0.387301      0.000206195   1.20696e-08   8.53268e-15   -5.16118e-21  5.19682e-27   -3.21655e-34 
0.15          99.9957       100.251       97.1613       48.2769       0.446338      0.000254464   1.54591e-08   1.24844e-14   -5.38663e-21  8.17983e-27   -5.19202e-34 
0.151         99.991        100.172       97.1891       50.9743       0.513318      0.000313358   1.97307e-08   1.7862e-14    -4.71094e-21  1.24471e-26   -8.09138e-34 
0.152         99.9869       100.091       97.2807       53.7098       0.589144      0.000385063   2.5093e-08    2.5054e-14    -2.39264e-21  1.83394e-26   -1.21789e-33 
0.153         99.9835       100.012       97.4295       56.4744       0.6748        0.000472178   3.17979e-08   3.45087e-14   2.69131e-21   2.61573e-26   -1.76737e-33 
0.154         99.981        99.9373       97.6281       59.2584       0.771351      0.000577789   4.01475e-08   4.67229e-14   1.21849e-20   3.60376e-26   -2.46183e-33 
0.155         99.9794       99.8694       97.8684       62.0518       0.879952      0.000705552   5.05026e-08   6.2217e-14    2.84215e-20   4.77381e-26   -3.26357e-33 
0.156         99.9786       99.8102       98.1419       64.8442       1.00184       0.00085979    6.32906e-08   8.1491e-14    5.46187e-20   6.02818e-26   -4.05072e-33 
0.157         99.9787       99.7612       98.4399       67.6248       1.13836       0.0010456     7.90152e-08   1.04952e-13   9.50849e-20   7.13998e-26   -4.54803e-33 
0.158         99.9797       99.7235       98.7537       70.3825       1.29094       0.00126898    9.82653e-08   1.32806e-13   1.55416e-19   7.66924e-26   -4.21786e-33 
0.159         99.9813       99.6978       99.0748       73.1062       1.4611        0.00153698    1.21724e-07   1.64895e-13   2.42638e-19   6.84146e-26   -2.0955e-33  
0.16          99.9836       99.6843       99.3949       75.7848       1.65048       0.00185784    1.50179e-07   2.00476e-13   3.65229e-19   3.3778e-26    3.45066e-33  
0.161         99.9864       99.6827       99.7065       78.4072       1.86079       0.00224122    1.84526e-07   2.37909e-13   5.32909e-19   -4.73347e-26  1.50546e-32  
0.162         99.9896       99.6924       100.003       80.9623       2.09386       0.00269836    2.25777e-07   2.74247e-13   7.56063e-19   -2.05324e-25  3.68018e-32  
0.163         99.993        99.7125       100.277       83.4396       2.35161       0.00324237    2.75064e-07   3.04703e-13   1.04456e-18   -4.84507e-25  7.47998e-32  
0.164         99.9965       99.7415       100.524       85.8289       2.63605       0.00388845    3.33629e-07   3.21963e-13   1.40569e-18   -9.47316e-25  1.37853e-31  
0.165         99.9999       99.778        100.74        88.1203       2.9493        0.00465423    4.02824e-07   3.15338e-13   1.84089e-18   -1.6787e-24   2.38175e-31  
0.166         100.003       99.8203       100.921       90.3047       3.29354       0.00556008    4.84085e-07   2.69731e-13   2.34066e-18   -2.79003e-24  3.92001e-31  
0.167         100.006       99.8664       101.066       92.3738       3.67106       0.00662952    5.78908e-07   1.64402e-13   2.87723e-18   -4.42111e-24  6.19796e-31  
0.168         100.009       99.9147       101.172       94.32         4.0842        0.00788959    6.88802e-07   -2.84409e-14  3.39423e-18   -6.73826e-24  9.45592e-31  
0.169         100.011       99.9631       101.24        96.1365       4.53538       0.00937139    8.1523e-07    -3.45234e-13  3.79257e-18   -9.925e-24    1.39461e-30  
0.17          100.012       100.01        101.271       97.8176       5.02706       0.0111105     9.59522e-07   -8.32748e-13  3.91187e-18   -1.41603e-23  1.98794e-30  
0.171         100.013       100.054       101.266       99.3586       5.56177       0.0131477     1.12277e-06   -1.5498e-12   3.50668e-18   -1.95777e-23  2.73231e-30  
0.172         100.014       100.093       101.227       100.756       6.14204       0.0155295     1.30567e-06   -2.56884e-12  2.21704e-18   -2.61944e-23  3.60237e-30  
0.173         100.013       100.127       101.159       102.008       6.77045       0.0183086     1.50837e-06   -3.97717e-12  -4.66555e-19  -3.37994e-23  4.51158e-30  
0.174         100.013       100.154       101.064       103.112       7.44955       0.0215453     1.73019e-06   -5.87755e-12  -5.24305e-18  -4.17822e-23  5.26685e-30  
0.175         100.012       100.175       100.947       104.069       8.18188       0.0253076     1.96941e-06   -8.38771e-12  -1.30435e-17  -4.8884e-23   5.50071e-30  