/*--------------------------------*- C++ -*----------------------------------*\
  =========                 |
  \\      /  F ield         | OpenFOAM: The Open Source CFD Toolbox
   \\    /   O peration     | Website:  https://openfoam.org
    \\  /    A nd           | Version:  8
     \\/     M anipulation  |
\*---------------------------------------------------------------------------*/
FoamFile
{
    version     2.0;
    format      ascii;
    class       volScalarField;
    location    "36";
    object      p;
}
// * * * * * * * * * * * * * * * * * * * * * * * * * * * * * * * * * * * * * //

dimensions      [0 2 -2 0 0 0 0];

internalField   nonuniform List<scalar> 
11600
(
-2.43214e-07
-8.60085e-07
-5.26087e-07
2.72378e-07
1.6917e-06
3.68236e-06
6.23798e-06
9.35567e-06
1.3033e-05
1.72696e-05
2.20672e-05
2.74288e-05
3.33579e-05
3.9858e-05
4.69329e-05
5.45868e-05
6.28245e-05
7.16511e-05
8.10718e-05
9.10924e-05
0.000101719
0.000112957
0.000124813
0.000137294
0.000150405
0.000164154
0.000178547
0.000193591
0.000209295
0.000225663
0.000242705
0.000260425
0.000278832
0.000297931
0.000317729
0.000338234
0.00035945
0.000381385
0.000404045
0.000427435
0.000451561
0.000476428
0.000502039
0.000528399
0.000555514
0.000583385
0.000612017
0.000641413
0.000671576
0.000702507
0.000734205
0.000766666
0.000799876
0.000833793
0.000868323
0.000903403
0.000939307
0.000970607
0.00101889
0.00101777
-1.17104e-07
-5.85509e-07
-1.08145e-07
7.55022e-07
2.21093e-06
4.22007e-06
6.78252e-06
9.90167e-06
1.3579e-05
1.78156e-05
2.26129e-05
2.79736e-05
3.39012e-05
4.03994e-05
4.74722e-05
5.51239e-05
6.33591e-05
7.21829e-05
8.16006e-05
9.1618e-05
0.000102241
0.000113475
0.000125328
0.000137804
0.00015091
0.000164654
0.000179043
0.000194082
0.00020978
0.000226143
0.000243178
0.000260893
0.000279293
0.000298385
0.000318177
0.000338674
0.000359884
0.000381812
0.000404466
0.00042785
0.00045197
0.000476831
0.000502438
0.000528795
0.000555909
0.000583782
0.000612419
0.000641826
0.000672008
0.000702969
0.000734717
0.000767262
0.000800614
0.000834791
0.000869834
0.000905893
0.000943053
0.000980518
0.00102714
0.00106181
-7.6486e-07
-1.27259e-06
-7.56245e-07
1.17342e-07
1.58228e-06
3.59769e-06
6.1635e-06
9.28284e-06
1.29579e-05
1.71909e-05
2.19839e-05
2.73397e-05
3.32615e-05
3.9753e-05
4.68184e-05
5.44621e-05
6.26887e-05
7.15034e-05
8.09116e-05
9.0919e-05
0.000101531
0.000112755
0.000124596
0.00013706
0.000150155
0.000163887
0.000178263
0.00019329
0.000208975
0.000225325
0.000242347
0.000260048
0.000278435
0.000297515
0.000317293
0.000337778
0.000358976
0.000380893
0.000403536
0.000426909
0.000451019
0.00047587
0.000501468
0.000527819
0.000554925
0.000582794
0.000611428
0.000640833
0.000671016
0.000701981
0.000733737
0.000766293
0.000799663
0.000833861
0.000868928
0.000904956
0.000941995
0.000980097
0.00102334
0.00106075
-1.8262e-06
-2.35737e-06
-1.80673e-06
-9.17642e-07
5.58999e-07
2.58088e-06
5.14959e-06
8.26875e-06
1.19408e-05
1.61684e-05
2.09546e-05
2.63022e-05
3.22147e-05
3.86959e-05
4.57499e-05
5.33812e-05
6.15947e-05
7.03956e-05
7.97891e-05
8.9781e-05
0.000100377
0.000111584
0.000123408
0.000135854
0.000148931
0.000162644
0.000177001
0.000192009
0.000207674
0.000224004
0.000241006
0.000258687
0.000277054
0.000296114
0.000315873
0.00033634
0.00035752
0.000379419
0.000402044
0.000425401
0.000449495
0.000474333
0.000499918
0.000526257
0.000553354
0.000581214
0.000609843
0.000639247
0.000669431
0.000700406
0.000732183
0.000764779
0.000798219
0.000832544
0.000867825
0.000904174
0.00094173
0.000980861
0.00102267
0.00106412
-3.5093e-06
-4.05885e-06
-3.49336e-06
-2.59771e-06
-1.11575e-06
9.07483e-07
3.47487e-06
6.59057e-06
1.02569e-05
1.44767e-05
1.92529e-05
2.45889e-05
3.04884e-05
3.69551e-05
4.39935e-05
5.1608e-05
5.98036e-05
6.85854e-05
7.79589e-05
8.79298e-05
9.85042e-05
0.000109688
0.000121488
0.000133911
0.000146963
0.000160651
0.000174983
0.000189964
0.000205603
0.000221907
0.000238882
0.000256537
0.000274878
0.000293912
0.000313647
0.000334089
0.000355245
0.000377121
0.000399724
0.00042306
0.000447135
0.000471953
0.000497521
0.000523844
0.000550927
0.000578773
0.00060739
0.000636783
0.000666958
0.000697924
0.000729692
0.000762277
0.000795701
0.000829997
0.000865215
0.000901426
0.000938727
0.000977341
0.0010175
0.00105828
-5.78701e-06
-6.34648e-06
-5.77579e-06
-4.87805e-06
-3.39402e-06
-1.37199e-06
1.19131e-06
4.30058e-06
7.95828e-06
1.21671e-05
1.69303e-05
2.22513e-05
2.81338e-05
3.45821e-05
4.16004e-05
4.91935e-05
5.73663e-05
6.61239e-05
7.54719e-05
8.54162e-05
9.59627e-05
0.000107118
0.000118888
0.000131281
0.000144302
0.000157958
0.000172258
0.000187206
0.000202812
0.000219083
0.000236025
0.000253646
0.000271955
0.000290957
0.000310661
0.000331072
0.000352199
0.000374047
0.000396623
0.000419932
0.000443982
0.000468778
0.000494324
0.000520627
0.00054769
0.000575519
0.000604118
0.000633493
0.00066365
0.000694597
0.000726342
0.000758897
0.00079228
0.000826515
0.000861635
0.000897681
0.000934711
0.000972796
0.0010119
0.00105172
-8.662e-06
-9.22427e-06
-8.65307e-06
-7.75676e-06
-6.27413e-06
-4.25594e-06
-1.69928e-06
1.40069e-06
5.04665e-06
9.24137e-06
1.39881e-05
1.92904e-05
2.51522e-05
3.15778e-05
3.85718e-05
4.61387e-05
5.42837e-05
6.30119e-05
7.2329e-05
8.22408e-05
9.27537e-05
0.000103874
0.000115608
0.000127964
0.000140947
0.000154566
0.000168826
0.000183735
0.000199301
0.000215531
0.000232434
0.000250016
0.000268285
0.000287249
0.000306915
0.000327291
0.000348382
0.000370196
0.000392739
0.000416018
0.000440038
0.000464806
0.000490327
0.000516604
0.000543644
0.000571451
0.000600028
0.000629381
0.000659513
0.000690431
0.000722139
0.000754646
0.00078796
0.000822094
0.000857061
0.000892873
0.000929539
0.00096705
0.00100531
0.0010441
-1.21345e-05
-1.26966e-05
-1.21266e-05
-1.1234e-05
-9.7559e-06
-7.74433e-06
-5.19694e-06
-2.10906e-06
1.52208e-06
5.69935e-06
1.04261e-05
1.5706e-05
2.15432e-05
2.79419e-05
3.49069e-05
4.2443e-05
5.0555e-05
5.92485e-05
6.8529e-05
7.84027e-05
8.88758e-05
9.9955e-05
0.000111647
0.000123959
0.000136898
0.000150471
0.000164685
0.000179548
0.000195067
0.000211251
0.000228107
0.000245642
0.000263866
0.000282786
0.000302408
0.00032274
0.00034379
0.000365564
0.00038807
0.000411313
0.0004353
0.000460035
0.000485526
0.000511775
0.000538789
0.000566569
0.000595122
0.000624448
0.000654552
0.000685436
0.000717102
0.000749552
0.000782787
0.000816809
0.000851613
0.000887189
0.000923515
0.000960538
0.000998143
0.00103614
-1.6202e-05
-1.67638e-05
-1.61958e-05
-1.53081e-05
-1.38369e-05
-1.18347e-05
-9.29923e-06
-6.22625e-06
-2.61299e-06
1.54352e-06
6.24673e-06
1.15004e-05
1.73089e-05
2.36764e-05
3.06079e-05
3.8108e-05
4.61819e-05
5.48352e-05
6.40734e-05
7.39029e-05
8.43302e-05
9.5362e-05
0.000107005
0.000119267
0.000132155
0.000145675
0.000159836
0.000174646
0.000190111
0.000206241
0.000223043
0.000240526
0.000258697
0.000277565
0.000297136
0.00031742
0.000338422
0.000360151
0.000382613
0.000405816
0.000429764
0.000454464
0.00047992
0.000506138
0.000533123
0.000560876
0.000589402
0.000618701
0.000648776
0.000679626
0.00071125
0.000743645
0.000776805
0.000810722
0.00084538
0.000880754
0.0009168
0.000953449
0.000990585
0.00102804
-2.08612e-05
-2.14238e-05
-2.08588e-05
-1.9977e-05
-1.85147e-05
-1.65241e-05
-1.40033e-05
-1.0948e-05
-7.35572e-06
-3.2233e-06
1.45278e-06
6.67645e-06
1.2452e-05
1.87839e-05
2.56769e-05
3.3136e-05
4.11665e-05
4.97738e-05
5.89639e-05
6.87432e-05
7.91183e-05
9.00962e-05
0.000101684
0.000113888
0.000126718
0.000140179
0.000154279
0.000169028
0.000184432
0.000200501
0.000217242
0.000234665
0.000252776
0.000271585
0.000291099
0.000311327
0.000332276
0.000353953
0.000376367
0.000399523
0.000423428
0.000448088
0.000473508
0.000499693
0.000526646
0.000554371
0.00058287
0.000612144
0.000642193
0.000673013
0.000704601
0.00073695
0.000770049
0.000803883
0.000838427
0.000873648
0.000909492
0.000945884
0.000982715
0.00101984
-2.61096e-05
-2.66737e-05
-2.6113e-05
-2.52384e-05
-2.37865e-05
-2.18097e-05
-1.93061e-05
-1.62715e-05
-1.27032e-05
-8.59819e-06
-3.95286e-06
1.23681e-06
6.97516e-06
1.32668e-05
2.01165e-05
2.75293e-05
3.55108e-05
4.40664e-05
5.32025e-05
6.29254e-05
7.32418e-05
8.4159e-05
9.56839e-05
0.000107824
0.000120588
0.000133982
0.000148015
0.000162695
0.000178031
0.000194031
0.000210703
0.000228058
0.000246102
0.000264844
0.000284294
0.000304459
0.000325348
0.000346969
0.000369328
0.000392433
0.000416291
0.000440907
0.000466287
0.000492435
0.000519357
0.000547054
0.000575528
0.000604779
0.000634806
0.000665604
0.000697168
0.000729487
0.000762546
0.000796327
0.000830799
0.000865924
0.000901646
0.000937891
0.000974558
0.00101152
-3.19448e-05
-3.25105e-05
-3.19554e-05
-3.10892e-05
-2.96494e-05
-2.76885e-05
-2.52045e-05
-2.21933e-05
-1.86521e-05
-1.4578e-05
-9.96706e-06
-4.8154e-06
8.81392e-07
7.12799e-06
1.39293e-05
2.12906e-05
2.92173e-05
3.77154e-05
4.67912e-05
5.64512e-05
6.67024e-05
7.75519e-05
8.90071e-05
0.000101076
0.000113766
0.000127085
0.000141043
0.000155647
0.000170906
0.000186829
0.000203425
0.000220703
0.000238672
0.000257341
0.000276719
0.000296815
0.000317637
0.000339193
0.000361492
0.000384541
0.000408346
0.000432914
0.000458252
0.000484363
0.000511252
0.000538922
0.000567373
0.000596606
0.000626619
0.000657405
0.000688958
0.000721266
0.000754311
0.000788073
0.000822518
0.000857608
0.000893286
0.000929483
0.00096611
0.00100306
-3.83637e-05
-3.89309e-05
-3.83822e-05
-3.7526e-05
-3.60999e-05
-3.4157e-05
-3.16951e-05
-2.871e-05
-2.51991e-05
-2.11591e-05
-1.65864e-05
-1.14769e-05
-5.82612e-06
3.70629e-07
7.1184e-06
1.44226e-05
2.22889e-05
3.07234e-05
3.97325e-05
4.9323e-05
5.9502e-05
7.02766e-05
8.16546e-05
9.3644e-05
0.000106253
0.00011949
0.000133364
0.000147883
0.000163058
0.000178896
0.000195407
0.0002126
0.000230486
0.000249073
0.000268371
0.00028839
0.000309137
0.000330623
0.000352855
0.000375842
0.00039959
0.000424107
0.000449398
0.00047547
0.000502326
0.000529969
0.000558401
0.000587622
0.000617628
0.000648414
0.000679973
0.00071229
0.00074535
0.000779128
0.000813593
0.000848706
0.000884414
0.000920652
0.000957341
0.000994388
-4.53626e-05
-4.59314e-05
-4.53898e-05
-4.45447e-05
-4.31342e-05
-4.12113e-05
-3.87739e-05
-3.58178e-05
-3.23402e-05
-2.83379e-05
-2.38073e-05
-1.87441e-05
-1.31439e-05
-7.00188e-06
-3.12917e-07
6.92857e-06
1.47285e-05
2.30931e-05
3.20291e-05
4.15432e-05
5.16428e-05
6.23352e-05
7.36284e-05
8.55306e-05
9.80504e-05
0.000111197
0.000124978
0.000139405
0.000154485
0.000170229
0.000186647
0.000203747
0.000221541
0.000240038
0.000259248
0.000279181
0.000299846
0.000321254
0.000343412
0.00036633
0.000390016
0.000414476
0.000439719
0.000465749
0.000492571
0.00052019
0.000548605
0.000577819
0.000607827
0.000638626
0.000670206
0.000702556
0.000735658
0.000769488
0.000804018
0.000839209
0.000875013
0.00091137
0.000948212
0.000985455
-5.2937e-05
-5.35078e-05
-5.29739e-05
-5.21412e-05
-5.0748e-05
-4.88471e-05
-4.64367e-05
-4.35123e-05
-4.00713e-05
-3.61102e-05
-3.16255e-05
-2.66129e-05
-2.1068e-05
-1.49858e-05
-8.36096e-06
-1.18785e-06
6.53966e-06
1.4828e-05
2.3684e-05
3.31146e-05
4.31273e-05
5.37298e-05
6.49302e-05
7.67371e-05
8.91594e-05
0.000102206
0.000115887
0.000130211
0.000145188
0.000160829
0.000177143
0.000194141
0.000211834
0.000230231
0.000249344
0.000269183
0.000289758
0.000311079
0.000333157
0.000355999
0.000379616
0.000404016
0.000429205
0.000455191
0.000481979
0.000509572
0.000537975
0.000567187
0.000597206
0.000628029
0.000659648
0.000692051
0.000725222
0.000759139
0.000793775
0.000829095
0.000865053
0.000901599
0.000938669
0.000976194
-6.10822e-05
-6.16552e-05
-6.11299e-05
-6.03108e-05
-5.89365e-05
-5.70598e-05
-5.46787e-05
-5.1789e-05
-4.83877e-05
-4.44715e-05
-4.00367e-05
-3.50792e-05
-2.95942e-05
-2.35768e-05
-1.70217e-05
-9.92279e-06
-2.27397e-06
5.93143e-06
1.47004e-05
2.40401e-05
3.39583e-05
4.44629e-05
5.55623e-05
6.72653e-05
7.95812e-05
9.25193e-05
0.00010609
0.000120302
0.000135167
0.000150694
0.000166896
0.000183782
0.000201363
0.000219652
0.000238658
0.000258393
0.000278868
0.000300094
0.000322082
0.000344842
0.000368384
0.000392716
0.000417847
0.000443785
0.000470536
0.000498105
0.000526497
0.000555712
0.00058575
0.000616608
0.00064828
0.000680756
0.000714022
0.000748057
0.000782837
0.00081833
0.000854497
0.000891291
0.000928658
0.000966535
-6.9793e-05
-7.03686e-05
-6.98527e-05
-6.90483e-05
-6.76945e-05
-6.5844e-05
-6.34949e-05
-6.06426e-05
-5.72843e-05
-5.34167e-05
-4.9036e-05
-4.41379e-05
-3.87178e-05
-3.27706e-05
-2.62906e-05
-1.9272e-05
-1.17084e-05
-3.59279e-06
5.08183e-06
1.4323e-05
2.41387e-05
3.45371e-05
4.55269e-05
5.71172e-05
6.93174e-05
8.21374e-05
9.55875e-05
0.000109678
0.00012442
0.000139825
0.000155903
0.000172666
0.000190126
0.000208295
0.000227184
0.000246805
0.000267171
0.000288292
0.000310181
0.00033285
0.000356308
0.000380566
0.000405633
0.000431519
0.00045823
0.000485773
0.000514154
0.000543376
0.000573439
0.000604342
0.000636081
0.000668648
0.00070203
0.000736211
0.000771169
0.000806876
0.000843297
0.000880392
0.000918113
0.000956405
-7.90639e-05
-7.96423e-05
-7.91366e-05
-7.83482e-05
-7.70165e-05
-7.51943e-05
-7.28795e-05
-7.00677e-05
-6.67558e-05
-6.29406e-05
-5.86181e-05
-5.37841e-05
-4.84337e-05
-4.2562e-05
-3.61631e-05
-2.9231e-05
-2.17592e-05
-1.37405e-05
-5.16772e-06
3.96705e-06
1.3672e-05
2.39555e-05
3.48267e-05
4.62949e-05
5.83699e-05
7.10619e-05
8.43816e-05
9.834e-05
0.000112949
0.000128219
0.000144163
0.000160792
0.000178119
0.000196157
0.000214917
0.000234414
0.000254659
0.000275665
0.000297445
0.000320013
0.000343378
0.000367554
0.00039255
0.000418377
0.000445044
0.000472559
0.000500928
0.000530157
0.000560249
0.000591205
0.000623021
0.000655694
0.000689212
0.000723563
0.000758728
0.000794684
0.0008314
0.000868842
0.000906968
0.00094573
-8.88891e-05
-8.94703e-05
-8.89757e-05
-8.82044e-05
-8.68964e-05
-8.51046e-05
-8.28267e-05
-8.00582e-05
-7.67961e-05
-7.30371e-05
-6.87771e-05
-6.40119e-05
-5.87365e-05
-5.29458e-05
-4.66339e-05
-3.97948e-05
-3.24217e-05
-2.45073e-05
-1.6044e-05
-7.02385e-06
2.56173e-06
1.27215e-05
2.34647e-05
3.4801e-05
4.67407e-05
5.92942e-05
7.24729e-05
8.62882e-05
0.000100752
0.000115876
0.000131674
0.000148158
0.00016534
0.000183234
0.000201854
0.000221214
0.000241326
0.000262205
0.000283866
0.00030632
0.000329583
0.000353666
0.000378582
0.000404343
0.000430959
0.000458441
0.000486796
0.000516033
0.000546156
0.000577168
0.00060907
0.000641859
0.000675529
0.00071007
0.000745467
0.000781701
0.000818747
0.000856575
0.00089515
0.000934429
-9.92619e-05
-9.98463e-05
-9.93634e-05
-9.86104e-05
-9.73278e-05
-9.55683e-05
-9.33298e-05
-9.06077e-05
-8.7399e-05
-8.37001e-05
-7.9507e-05
-7.48153e-05
-6.96202e-05
-6.39162e-05
-5.76977e-05
-5.09582e-05
-4.36908e-05
-3.58882e-05
-2.75425e-05
-1.86453e-05
-9.18792e-06
8.38731e-07
1.14442e-05
2.26386e-05
3.44323e-05
4.68366e-05
5.9863e-05
7.35235e-05
8.78306e-05
0.000102797
0.000118436
0.000134761
0.000151785
0.000169523
0.00018799
0.000207199
0.000227165
0.000247905
0.000269432
0.000291762
0.00031491
0.000338889
0.000363715
0.0003894
0.000415957
0.000443398
0.000471734
0.000500974
0.000531127
0.000562198
0.00059419
0.000627104
0.000660937
0.000695683
0.000731332
0.000767868
0.000805272
0.00084352
0.000882581
0.000922419
-0.000110176
-0.000110763
-0.000110293
-0.000109559
-0.000108304
-0.000106579
-0.000104382
-0.000101709
-9.85576e-05
-9.49228e-05
-9.08011e-05
-8.6188e-05
-8.10785e-05
-7.54673e-05
-6.93484e-05
-6.27153e-05
-5.55611e-05
-4.7878e-05
-3.9658e-05
-3.08925e-05
-2.15725e-05
-1.16887e-05
-1.23101e-06
9.81081e-06
2.14478e-05
3.36914e-05
4.65536e-05
6.00471e-05
7.41849e-05
8.89802e-05
0.000104447
0.000120599
0.000137452
0.00015502
0.000173318
0.000192362
0.000212169
0.000232754
0.000254134
0.000276326
0.000299345
0.000323208
0.00034793
0.000373527
0.000400014
0.000427405
0.000455714
0.000484952
0.000515131
0.000546258
0.000578341
0.000611384
0.000645387
0.000680349
0.000716263
0.00075312
0.000790906
0.000829601
0.00086918
0.000909613
-0.000121623
-0.000122214
-0.000121756
-0.000121043
-0.000119816
-0.000118128
-0.000115976
-0.000113356
-0.000110265
-0.000106698
-0.000102652
-9.8123e-05
-9.31048e-05
-8.75924e-05
-8.15798e-05
-7.50602e-05
-6.80265e-05
-6.04709e-05
-5.23851e-05
-4.37602e-05
-3.45872e-05
-2.48561e-05
-1.45568e-05
-3.67841e-06
7.79031e-06
1.98613e-05
3.25471e-05
4.58607e-05
5.98157e-05
7.44261e-05
8.97066e-05
0.000105672
0.000122338
0.00013972
0.000157835
0.000176699
0.00019633
0.000216745
0.000237962
0.000259999
0.000282874
0.000306605
0.000331209
0.000356704
0.000383108
0.000410438
0.000438708
0.000467935
0.000498131
0.000529309
0.00056148
0.00059465
0.000628826
0.000664009
0.000700199
0.00073739
0.000775574
0.000814737
0.000854859
0.000895916
-0.000133595
-0.000134189
-0.000133746
-0.000133055
-0.000131859
-0.000130209
-0.000128104
-0.00012554
-0.000122513
-0.000119018
-0.000115053
-0.000110613
-0.000105692
-0.000100285
-9.43849e-05
-8.7986e-05
-8.10805e-05
-7.36606e-05
-6.57177e-05
-5.72428e-05
-4.82264e-05
-3.86585e-05
-2.85283e-05
-1.78248e-05
-6.53627e-06
5.34966e-06
1.78459e-05
3.0966e-05
4.47242e-05
5.91353e-05
7.42144e-05
8.99773e-05
0.00010644
0.000123621
0.000141535
0.000160202
0.00017964
0.000199867
0.000220904
0.000242769
0.000265482
0.000289063
0.000313532
0.000338909
0.000365214
0.000392467
0.000420685
0.000449887
0.00048009
0.000511309
0.000543559
0.000576852
0.000611198
0.000646603
0.000683071
0.000720604
0.000759197
0.000798842
0.000839527
0.000881232
-0.000146084
-0.000146682
-0.000146254
-0.000145586
-0.000144421
-0.000142813
-0.000140758
-0.000138253
-0.000135293
-0.000131876
-0.000127996
-0.00012365
-0.000118832
-0.000113536
-0.000107756
-0.000101485
-9.47162e-05
-8.74404e-05
-7.96494e-05
-7.13341e-05
-6.24845e-05
-5.30903e-05
-4.31405e-05
-3.26237e-05
-2.15277e-05
-9.83992e-06
2.45316e-06
1.53656e-05
2.89123e-05
4.31085e-05
5.79703e-05
7.35143e-05
8.97577e-05
0.000106718
0.000124415
0.000142866
0.000162092
0.000182113
0.000202949
0.000224622
0.000247154
0.000270566
0.00029488
0.00032012
0.000346307
0.000373464
0.000401612
0.000430772
0.000460966
0.000492213
0.00052453
0.000557935
0.000592442
0.000628063
0.000664808
0.000702683
0.00074169
0.000781827
0.000823087
0.000865457
-0.000159081
-0.000159683
-0.000159271
-0.000158627
-0.000157496
-0.000155931
-0.000153929
-0.000151486
-0.000148598
-0.000145262
-0.000141473
-0.000137226
-0.000132517
-0.000127339
-0.000121686
-0.000115551
-0.000108926
-0.000101803
-9.41732e-05
-8.60271e-05
-7.73547e-05
-6.81453e-05
-5.83876e-05
-4.80697e-05
-3.71793e-05
-2.57032e-05
-1.36276e-05
-9.37594e-07
1.2382e-05
2.63473e-05
4.0975e-05
5.62826e-05
7.22881e-05
8.90104e-05
0.000106469
0.000124685
0.000143679
0.000163472
0.000184087
0.000205547
0.000227875
0.000251095
0.000275233
0.000300313
0.00032636
0.000353399
0.000381455
0.000410554
0.000440718
0.000471973
0.000504341
0.000537842
0.000572497
0.000608323
0.000645336
0.000683547
0.000722965
0.000763595
0.000805436
0.000848482
-0.000172577
-0.000173183
-0.000172787
-0.000172169
-0.000171073
-0.000169554
-0.000167608
-0.00016523
-0.000162418
-0.000159167
-0.000155473
-0.000151332
-0.000146738
-0.000141684
-0.000136165
-0.000130174
-0.000123701
-0.00011674
-0.000109281
-0.000101315
-9.28301e-05
-8.38168e-05
-7.42632e-05
-6.41571e-05
-5.34857e-05
-4.22355e-05
-3.0392e-05
-1.79401e-05
-4.86376e-06
8.85364e-06
2.32295e-05
3.82821e-05
5.40305e-05
7.04947e-05
8.76954e-05
0.000105654
0.000124394
0.000143936
0.000164306
0.000185529
0.000207629
0.000230634
0.00025457
0.000279464
0.000305345
0.000332241
0.000360181
0.000389192
0.000419303
0.000450542
0.000482936
0.000516513
0.000551296
0.000587309
0.000624574
0.000663109
0.00070293
0.000744046
0.000786466
0.000830191
-0.000186561
-0.000187171
-0.000186792
-0.000186201
-0.000185143
-0.000183672
-0.000181784
-0.000179475
-0.000176742
-0.000173582
-0.000169989
-0.000165958
-0.000161485
-0.000156563
-0.000151186
-0.000145345
-0.000139034
-0.000132244
-0.000124965
-0.000117188
-0.000108903
-0.000100097
-9.07603e-05
-8.08792e-05
-7.04408e-05
-5.94312e-05
-4.78353e-05
-3.56376e-05
-2.28216e-05
-9.36992e-06
4.73548e-06
1.95137e-05
3.49847e-05
5.11696e-05
6.80902e-05
8.57692e-05
0.00010423
0.000123498
0.000143598
0.000164557
0.000186403
0.000209164
0.00023287
0.00025755
0.000283237
0.00030996
0.000337753
0.000366647
0.000396675
0.000427869
0.000460262
0.000493886
0.000528771
0.000564947
0.000602442
0.000641281
0.000681486
0.000723076
0.000766065
0.000810463
-0.000201024
-0.000201638
-0.000201277
-0.000200714
-0.000199696
-0.000198274
-0.000196448
-0.000194212
-0.000191562
-0.000188496
-0.000185008
-0.000181095
-0.000176749
-0.000171965
-0.000166736
-0.000161055
-0.000154914
-0.000148304
-0.000141216
-0.00013364
-0.000125564
-0.000116979
-0.000107871
-9.82288e-05
-8.80379e-05
-7.7284e-05
-6.59518e-05
-5.40252e-05
-4.14872e-05
-2.83199e-05
-1.45045e-05
-2.11376e-08
1.51512e-05
3.10344e-05
4.76514e-05
6.50262e-05
8.31836e-05
0.00010215
0.000121952
0.00014262
0.000164182
0.000186669
0.000210114
0.000234548
0.000260007
0.000286524
0.000314136
0.000342879
0.000372789
0.000403904
0.000436261
0.000469899
0.000504853
0.00054116
0.000578855
0.000617969
0.000658533
0.000700573
0.000744113
0.000789171
-0.000215953
-0.000216572
-0.00021623
-0.000215696
-0.000214719
-0.000213351
-0.000211588
-0.000209428
-0.000206866
-0.000203899
-0.000200522
-0.000196731
-0.000192519
-0.00018788
-0.000182807
-0.000177294
-0.000171332
-0.000164911
-0.000158024
-0.000150659
-0.000142805
-0.000134452
-0.000125588
-0.000116198
-0.000106269
-9.57868e-05
-8.47349e-05
-7.30969e-05
-6.08554e-05
-4.7992e-05
-3.4487e-05
-2.03198e-05
-5.46866e-06
1.00892e-05
2.63779e-05
4.34223e-05
6.1249e-05
7.98856e-05
9.93612e-05
0.000119706
0.000140953
0.000163133
0.000186282
0.000210435
0.000235629
0.000261903
0.000289296
0.000317848
0.0003476
0.000378595
0.000410877
0.000444487
0.000479471
0.000515869
0.000553724
0.000593076
0.000633964
0.000676423
0.000720486
0.000766179
-0.000231339
-0.000231961
-0.000231639
-0.000231136
-0.000230202
-0.000228889
-0.000227194
-0.000225113
-0.000222643
-0.00021978
-0.000216519
-0.000212855
-0.000208783
-0.000204296
-0.000199388
-0.00019405
-0.000188276
-0.000182055
-0.000175378
-0.000168235
-0.000160616
-0.000152508
-0.0001439
-0.000134777
-0.000125126
-0.000114931
-0.000104177
-9.28457e-05
-8.09199e-05
-6.83804e-05
-5.52071e-05
-4.13785e-05
-2.68723e-05
-1.16646e-05
4.26937e-06
2.09561e-05
3.84232e-05
5.67e-05
7.58172e-05
9.58069e-05
0.000116703
0.00013854
0.000161356
0.000185188
0.000210078
0.000236066
0.000263197
0.000291513
0.000321063
0.000351892
0.00038405
0.000417586
0.00045255
0.000488992
0.00052696
0.000566504
0.000607672
0.000650507
0.000695053
0.000741346
-0.000247167
-0.000247795
-0.000247493
-0.000247022
-0.000246133
-0.000244877
-0.000243253
-0.000241255
-0.000238881
-0.000236126
-0.000232986
-0.000229456
-0.000225531
-0.000221203
-0.000216466
-0.000211313
-0.000205735
-0.000199723
-0.000193267
-0.000186359
-0.000178985
-0.000171136
-0.000162798
-0.000153957
-0.000144599
-0.000134708
-0.000124269
-0.000113263
-0.000101673
-8.94785e-05
-7.6659e-05
-6.31925e-05
-4.90559e-05
-3.42246e-05
-1.86728e-05
-2.37278e-06
1.47044e-05
3.25894e-05
5.13145e-05
7.09133e-05
9.14215e-05
0.000112877
0.000135318
0.000158788
0.000183329
0.000208986
0.000235806
0.000263838
0.000293132
0.000323743
0.000355724
0.000389131
0.000424019
0.000460447
0.000498472
0.000538152
0.000579543
0.000622701
0.000667678
0.000714524
-0.000263427
-0.000264059
-0.000263779
-0.000263341
-0.000262499
-0.000261303
-0.000259752
-0.000257841
-0.000255567
-0.000252925
-0.000249912
-0.000246521
-0.000242749
-0.000238587
-0.00023403
-0.000229069
-0.000223697
-0.000217904
-0.00021168
-0.000205017
-0.000197902
-0.000190324
-0.00018227
-0.000173726
-0.000164677
-0.000155108
-0.000145002
-0.000134341
-0.000123106
-0.000111278
-9.88353e-05
-8.57553e-05
-7.20142e-05
-5.75866e-05
-4.24457e-05
-2.65628e-05
-9.90759e-06
7.5517e-06
2.58487e-05
4.50188e-05
6.50998e-05
8.61312e-05
0.000108155
0.000131216
0.000155359
0.000180634
0.00020709
0.000234783
0.000263766
0.000294099
0.000325842
0.000359055
0.000393804
0.000430152
0.000468167
0.000507915
0.000549464
0.000592878
0.000638223
0.00068556
-0.000280105
-0.000280741
-0.000280483
-0.000280081
-0.000279287
-0.000278154
-0.000276679
-0.000274858
-0.000272688
-0.000270164
-0.000267282
-0.000264037
-0.000260424
-0.000256436
-0.000252065
-0.000247306
-0.000242148
-0.000236584
-0.000230604
-0.000224197
-0.000217354
-0.00021006
-0.000202304
-0.000194072
-0.000185349
-0.000176118
-0.000166364
-0.000156067
-0.000145209
-0.00013377
-0.000121728
-0.000109059
-9.57404e-05
-8.17448e-05
-6.70448e-05
-5.16106e-05
-3.54112e-05
-1.84134e-05
-5.82339e-07
1.81191e-05
3.77305e-05
5.82936e-05
7.98527e-05
0.000102454
0.000126148
0.000150985
0.000177022
0.000204314
0.000232923
0.000262913
0.000294348
0.000327297
0.000361832
0.000398025
0.000435953
0.000475691
0.000517317
0.000560909
0.000606543
0.000654295
-0.000297186
-0.000297828
-0.000297593
-0.000297226
-0.000296483
-0.000295415
-0.00029402
-0.000292293
-0.00029023
-0.000287829
-0.000285084
-0.00028199
-0.000278543
-0.000274735
-0.00027056
-0.00026601
-0.000261076
-0.000255751
-0.000250025
-0.000243887
-0.000237326
-0.000230331
-0.000222888
-0.000214983
-0.000206601
-0.000197727
-0.000188343
-0.00017843
-0.000167971
-0.000156943
-0.000145326
-0.000133095
-0.000120226
-0.000106692
-9.24635e-05
-7.75113e-05
-6.18028e-05
-4.5304e-05
-2.79786e-05
-9.78793e-06
9.30918e-06
2.93565e-05
5.04005e-05
7.24902e-05
9.56778e-05
0.000120019
0.000145572
0.000172399
0.000200564
0.000230137
0.000261188
0.000293794
0.000328033
0.000363986
0.000401738
0.000441375
0.000482986
0.000526661
0.000572491
0.000620565
-0.000314658
-0.000315304
-0.000315093
-0.000314764
-0.000314073
-0.000313072
-0.00031176
-0.00031013
-0.000308179
-0.000305905
-0.000303302
-0.000300366
-0.00029709
-0.00029347
-0.000289498
-0.000285166
-0.000280466
-0.00027539
-0.000269929
-0.000264071
-0.000257806
-0.000251122
-0.000244006
-0.000236444
-0.000228421
-0.000219921
-0.000210926
-0.000201418
-0.000191379
-0.000180786
-0.000169618
-0.000157852
-0.00014546
-0.000132417
-0.000118693
-0.000104257
-8.90765e-05
-7.31157e-05
-5.63375e-05
-3.87018e-05
-2.01659e-05
-6.84471e-07
1.9791e-05
4.13121e-05
6.39339e-05
8.77151e-05
0.000112718
0.000139007
0.000166654
0.00019573
0.000226315
0.000258489
0.000292339
0.000327955
0.000365431
0.000404864
0.000446353
0.000490003
0.000535917
0.000584202
-0.000332504
-0.000333155
-0.000332969
-0.000332679
-0.000332042
-0.000331111
-0.000329884
-0.000328354
-0.00032652
-0.000324377
-0.000321921
-0.000319148
-0.000316051
-0.000312626
-0.000308864
-0.000304759
-0.000300302
-0.000295486
-0.000290299
-0.000284734
-0.000278778
-0.000272419
-0.000265644
-0.000258441
-0.000250793
-0.000242684
-0.000234098
-0.000225016
-0.000215418
-0.000205284
-0.000194591
-0.000183316
-0.000171432
-0.000158911
-0.000145724
-0.000131839
-0.000117224
-0.000101842
-8.56537e-05
-6.8619e-05
-5.06936e-05
-3.18306e-05
-1.19796e-05
8.91322e-06
3.09057e-05
5.40592e-05
7.84392e-05
0.000104115
0.000131161
0.000159655
0.00018968
0.000221327
0.000254687
0.000289859
0.000326947
0.000366057
0.000407304
0.000450802
0.000496673
0.000545037
-0.000350711
-0.000351367
-0.000351206
-0.000350956
-0.000350375
-0.000349516
-0.000348376
-0.000346951
-0.000345236
-0.000343229
-0.000340926
-0.000338321
-0.00033541
-0.000332186
-0.000328643
-0.000324773
-0.000320568
-0.000316021
-0.000311121
-0.000305859
-0.000300224
-0.000294204
-0.000287785
-0.000280956
-0.0002737
-0.000266001
-0.000257843
-0.000249207
-0.000240074
-0.000230422
-0.00022023
-0.000209473
-0.000198125
-0.000186158
-0.000173542
-0.000160246
-0.000146235
-0.000131472
-0.000115919
-9.95328e-05
-8.22692e-05
-6.40794e-05
-4.49115e-05
-2.47095e-05
-3.41345e-06
1.90408e-05
4.27214e-05
6.77013e-05
9.40587e-05
0.000121877
0.000151245
0.000182259
0.000215017
0.000249627
0.000286202
0.00032486
0.000365726
0.00040893
0.000454608
0.000502899
-0.000369261
-0.000369922
-0.000369788
-0.000369579
-0.000369056
-0.000368271
-0.000367222
-0.000365903
-0.000364312
-0.000362446
-0.0003603
-0.00035787
-0.00035515
-0.000352135
-0.000348817
-0.000345191
-0.000341247
-0.000336979
-0.000332376
-0.000327429
-0.000322127
-0.000316459
-0.000310412
-0.000303972
-0.000297124
-0.000289853
-0.000282143
-0.000273974
-0.000265328
-0.000256183
-0.000246517
-0.000236306
-0.000225524
-0.000214143
-0.000202133
-0.000189461
-0.000176094
-0.000161994
-0.000147121
-0.000131433
-0.000114884
-9.74245e-05
-7.90005e-05
-5.95546e-05
-3.90252e-05
-1.73459e-05
5.55422e-06
2.97514e-05
5.53277e-05
8.2371e-05
0.000110975
0.000141241
0.000173276
0.000207195
0.00024312
0.00028118
0.000321513
0.000364262
0.000409578
0.00045762
-0.00038814
-0.000388806
-0.000388699
-0.000388532
-0.000388068
-0.000387359
-0.000386403
-0.000385194
-0.000383731
-0.00038201
-0.000380026
-0.000377776
-0.000375253
-0.000372453
-0.000369369
-0.000365994
-0.000362321
-0.000358341
-0.000354046
-0.000349425
-0.000344469
-0.000339166
-0.000333504
-0.000327469
-0.000321047
-0.000314222
-0.000306978
-0.000299298
-0.000291161
-0.000282547
-0.000273434
-0.000263797
-0.000253611
-0.000242847
-0.000231477
-0.000219468
-0.000206785
-0.000193391
-0.000179246
-0.000164306
-0.000148526
-0.000131855
-0.000114237
-9.56157e-05
-7.59261e-05
-5.51007e-05
-3.30659e-05
-9.74281e-06
1.49541e-05
4.11164e-05
6.88428e-05
9.82394e-05
0.00012942
0.000162507
0.000197632
0.000234935
0.000274564
0.000316677
0.000361443
0.000409037
-0.00040733
-0.000408001
-0.000407921
-0.000407797
-0.000407395
-0.000406764
-0.000405903
-0.000404808
-0.000403476
-0.000401903
-0.000400087
-0.000398022
-0.000395703
-0.000393124
-0.000390281
-0.000387165
-0.00038377
-0.000380089
-0.000376111
-0.000371828
-0.00036723
-0.000362306
-0.000357043
-0.000351428
-0.000345448
-0.000339087
-0.000332329
-0.000325157
-0.000317552
-0.000309492
-0.000300957
-0.000291922
-0.000282362
-0.00027225
-0.000261555
-0.000250246
-0.000238288
-0.000225644
-0.000212274
-0.000198134
-0.000183178
-0.000167355
-0.000150609
-0.000132881
-0.000114107
-9.42171e-05
-7.31361e-05