/*--------------------------------*- C++ -*----------------------------------*\
  =========                 |
  \\      /  F ield         | OpenFOAM: The Open Source CFD Toolbox
   \\    /   O peration     | Website:  https://openfoam.org
    \\  /    A nd           | Version:  8
     \\/     M anipulation  |
\*---------------------------------------------------------------------------*/
FoamFile
{
    version     2.0;
    format      ascii;
    class       volVectorField;
    location    "7";
    object      U;
}
// * * * * * * * * * * * * * * * * * * * * * * * * * * * * * * * * * * * * * //

dimensions      [0 1 -1 0 0 0 0];

internalField   nonuniform List<vector> 
464
(
(-3.74908e-05 3.71015e-05 0)
(-0.000112299 3.66826e-05 0)
(-0.000184842 3.48176e-05 0)
(-0.000252586 3.21094e-05 0)
(-0.000314095 2.8664e-05 0)
(-0.000367979 2.46068e-05 0)
(-0.000413074 2.00787e-05 0)
(-0.000449087 1.51696e-05 0)
(-0.000473559 1.00431e-05 0)
(-0.000496398 4.23086e-06 0)
(-0.000486394 -4.96321e-07 0)
(-0.000523487 -6.56039e-06 0)
(-3.89607e-05 0.000113142 0)
(-0.000116686 0.000111844 0)
(-0.00019201 0.000106128 0)
(-0.00026228 9.78343e-05 0)
(-0.000325999 8.7297e-05 0)
(-0.000381719 7.49228e-05 0)
(-0.000428297 6.12006e-05 0)
(-0.000465409 4.66529e-05 0)
(-0.000491136 3.24085e-05 0)
(-0.000513881 1.80106e-05 0)
(-0.000505986 1.30664e-05 0)
(-0.000539974 -7.2833e-06 0)
(-4.091e-05 0.000192685 0)
(-0.000122496 0.000190415 0)
(-0.000201464 0.000180582 0)
(-0.000274975 0.000166326 0)
(-0.000341429 0.000148226 0)
(-0.000399255 0.000126964 0)
(-0.000447156 0.000103315 0)
(-0.000484195 7.80882e-05 0)
(-0.000508871 5.25816e-05 0)
(-0.000522706 2.67254e-05 0)
(-0.000518577 9.25379e-06 0)
(-0.000509669 -2.12807e-05 0)
(-4.39369e-05 0.000276944 0)
(-0.000131511 0.000273562 0)
(-0.000216123 0.000259217 0)
(-0.000294654 0.000238453 0)
(-0.000365382 0.000212132 0)
(-0.000426655 0.00018123 0)
(-0.0004772 0.000146779 0)
(-0.000516173 0.000109763 0)
(-0.000542531 7.12419e-05 0)
(-0.000557242 3.17237e-05 0)
(-0.000554022 -6.01853e-06 0)
(-0.000543205 -4.72952e-05 0)
(-4.81772e-05 0.000368428 0)
(-0.000144125 0.000363702 0)
(-0.00023659 0.000344233 0)
(-0.000322059 0.000316134 0)
(-0.000398652 0.000280643 0)
(-0.000464608 0.000239099 0)
(-0.000518623 0.00019288 0)
(-0.000559732 0.000143293 0)
(-0.00058691 9.17025e-05 0)
(-0.000599966 3.90311e-05 0)
(-0.000597596 -1.22449e-05 0)
(-0.000581459 -6.61487e-05 0)
(-5.38292e-05 0.000469648 0)
(-0.000160896 0.000463223 0)
(-0.000263714 0.000437756 0)
(-0.000358244 0.000401151 0)
(-0.000442417 0.000355187 0)
(-0.000514418 0.000301646 0)
(-0.000573006 0.000242304 0)
(-0.00061735 0.000178743 0)
(-0.000646793 0.000112379 0)
(-0.000661189 4.41407e-05 0)
(-0.000659203 -2.45858e-05 0)
(-0.00064209 -9.3859e-05 0)
(-6.11875e-05 0.000583659 0)
(-0.000182631 0.000574966 0)
(-0.000298691 0.000542262 0)
(-0.000404628 0.000495506 0)
(-0.000498157 0.000437331 0)
(-0.000577491 0.000370077 0)
(-0.000641526 0.000296057 0)
(-0.000689658 0.000217213 0)
(-0.000721513 0.00013519 0)
(-0.00073693 5.12398e-05 0)
(-0.000735596 -3.32846e-05 0)
(-0.000717802 -0.000118443 0)
(-7.07055e-05 0.000714128 0)
(-0.000210512 0.000702243 0)
(-0.00034321 0.00066056 0)
(-0.000463174 0.000601317 0)
(-0.000567846 0.000528605 0)
(-0.000655693 0.000445404 0)
(-0.000725871 0.000354753 0)
(-0.000778216 0.000258964 0)
(-0.000812766 0.000159861 0)
(-0.000829664 5.8768e-05 0)
(-0.000828886 -4.32435e-05 0)
(-0.000810559 -0.000145456 0)
(-8.30842e-05 0.000865968 0)
(-0.000246256 0.000849189 0)
(-0.000399661 0.000796005 0)
(-0.000536583 0.000720828 0)
(-0.000654069 0.000630457 0)
(-0.000751343 0.000528426 0)
(-0.000827967 0.000418794 0)
(-0.00088455 0.00030422 0)
(-0.000921708 0.000186663 0)
(-0.000940035 6.73841e-05 0)
(-0.00093982 -5.27406e-05 0)
(-0.000921101 -0.000173136 0)
(-9.96234e-05 0.00104434 0)
(-0.000292667 0.00102016 0)
(-0.000471624 0.000952162 0)
(-0.000628722 0.000856137 0)
(-0.000760248 0.000744042 0)
(-0.000867356 0.00061947 0)
(-0.000950077 0.000488085 0)
(-0.00101035 0.000352717 0)
(-0.0010496 0.000215333 0)
(-0.00106907 7.6917e-05 0)
(-0.00106941 -6.21109e-05 0)
(-0.00105061 -0.000201606 0)
(-0.000121909 0.001263 0)
(-0.000353138 0.00122393 0)
(-0.000563742 0.00113547 0)
(-0.000744704 0.00100972 0)
(-0.000890736 0.000870177 0)
(-0.0010073 0.000718129 0)
(-0.00109472 0.000561708 0)
(-0.0011573 0.000403447 0)
(-0.00119751 0.000245156 0)
(-0.00121748 8.71202e-05 0)
(-0.00121834 -7.11031e-05 0)
(-0.00120013 -0.000230194 0)
(-0.000156372 0.0015048 0)
(-0.000437956 0.00145012 0)
(-0.000685904 0.00133981 0)
(-0.00089402 0.00117837 0)
(-0.00105184 0.00100709 0)
(-0.00117583 0.00082218 0)
(-0.00126476 0.000637434 0)
(-0.0013269 0.000454611 0)
(-0.00136593 0.00027496 0)
(-0.00138533 9.75691e-05 0)
(-0.00138672 -7.93184e-05 0)
(-0.00137014 -0.000257741 0)
(-0.000197823 0.00189898 0)
(-0.000539465 0.00177492 0)
(-0.000835561 0.00162333 0)
(-0.00107744 0.00138161 0)
(-0.00124692 0.00116169 0)
(-0.00137696 0.000930582 0)
(-0.00146229 0.000712535 0)
(-0.00151978 0.000503621 0)
(-0.00155455 0.000303003 0)
(-0.00157176 0.000107655 0)
(-0.00157365 -8.61412e-05 0)
(-0.00156032 -0.000282444 0)
(-0.000306806 0.00217533 0)
(-0.000740106 0.00201905 0)
(-0.00107925 0.00184353 0)
(-0.00135568 0.00154668 0)
(-0.00150283 0.00129382 0)
(-0.00162498 0.00102328 0)
(-0.00169171 0.000776629 0)
(-0.00173643 0.000544305 0)
(-0.00176189 0.000325839 0)
(-0.00177447 0.000116276 0)
(-0.00177682 -9.04173e-05 0)
(-0.00176914 -0.000300645 0)
(-0.000384834 0.0030782 0)
(-0.000902539 0.00260907 0)
(-0.00130791 0.00235704 0)
(-0.00162736 0.00182244 0)
(-0.00177031 0.00149465 0)
(-0.0018942 0.00112924 0)
(-0.00194127 0.00083743 0)
(-0.00197057 0.000576263 0)
(-0.00198258 0.00034146 0)
(-0.00198801 0.000122327 0)
(-0.00199057 -9.18989e-05 0)
(-0.00199044 -0.000311709 0)
(-0.000818524 0.00329646 0)
(-0.00150437 0.00277501 0)
(-0.00186545 0.00249341 0)
(-0.00221819 0.00189033 0)
(-0.00219571 0.00154012 0)
(-0.00228217 0.00114275 0)
(-0.00224464 0.000841253 0)
(-0.00223239 0.000573947 0)
(-0.00221582 0.000338953 0)
(-0.00220783 0.000123077 0)
(-0.00221086 -8.58305e-05 0)
(-0.00222555 -0.000300698 0)
(-0.0009492 0.0057284 0)
(-0.00175709 0.00374195 0)
(-0.00219193 0.00334006 0)
(-0.00258222 0.00214898 0)
(-0.00251795 0.00170724 0)
(-0.00259334 0.00116917 0)
(-0.00251012 0.000836914 0)
(-0.00247291 0.000552366 0)
(-0.00243346 0.000321639 0)
(-0.0024128 0.000117375 0)
(-0.00241434 -7.78837e-05 0)
(-0.00243853 -0.000281302 0)
(-0.00287762 0.00562378 0)
(-0.00397531 0.00369328 0)
(-0.00345202 0.00321075 0)
(-0.00385081 0.00200125 0)
(-0.00317341 0.0015476 0)
(-0.00315181 0.00102717 0)
(-0.00286059 0.000721811 0)
(-0.0027469 0.000468672 0)
(-0.00265 0.000272294 0)
(-0.00260649 0.000103384 0)
(-0.00260862 -5.5142e-05 0)
(-0.00265767 -0.000220393 0)
(-0.00352091 0.0134398 0)
(-0.00441653 0.00426399 0)
(-0.00390649 0.00374257 0)
(-0.00415397 0.00175157 0)
(-0.00336507 0.00125294 0)
(-0.00326683 0.000794737 0)
(-0.00290115 0.000513854 0)
(-0.00274566 0.000329164 0)
(-0.00261531 0.00018888 0)
(-0.00255149 7.42151e-05 0)
(-0.00254448 -3.14437e-05 0)
(-0.00259295 -0.000142306 0)
(0.0142937 0.0125938 0)
(0.0130884 0.00350625 0)
(0.0209381 0.00291749 0)
(0.0209447 0.00115306 0)
(0.0231316 0.000738891 0)
(0.0234859 0.000421645 0)
(0.0240648 0.000239627 0)
(0.0243469 0.000144024 0)
(0.0245304 7.97061e-05 0)
(0.0246231 3.28267e-05 0)
(0.0246392 -9.07609e-06 0)
(0.0245807 -5.40499e-05 0)
(-0.000450751 0.000241407 0)
(-0.000306754 0.000122581 0)
(-0.000261955 2.36238e-05 0)
(-0.00020328 -3.74615e-05 0)
(-0.00015926 -8.37479e-05 0)
(-0.000112822 -0.000115593 0)
(-6.73464e-05 -0.000136153 0)
(-2.22608e-05 -0.000144143 0)
(-0.000471247 3.60152e-05 0)
(-0.000337 -1.93802e-05 0)
(-0.000289003 -5.84794e-05 0)
(-0.000228713 -0.000103766 0)
(-0.00018089 -0.000139333 0)
(-0.00013046 -0.000167462 0)
(-7.89409e-05 -0.000186558 0)
(-2.6345e-05 -0.000193558 0)
(-0.000466854 6.07471e-06 0)
(-0.00040127 -5.28061e-05 0)
(-0.00034634 -9.76046e-05 0)
(-0.00028413 -0.000148062 0)
(-0.000222955 -0.000189351 0)
(-0.000160059 -0.000221891 0)
(-9.61674e-05 -0.000243949 0)
(-3.1973e-05 -0.000251401 0)
(-0.00050279 -7.78065e-05 0)
(-0.00044067 -0.000127176 0)
(-0.000384261 -0.000172942 0)
(-0.000320459 -0.000218542 0)
(-0.000254721 -0.000258562 0)
(-0.000185076 -0.00029102 0)
(-0.000111992 -0.000313797 0)
(-3.73211e-05 -0.000320888 0)
(-0.000546734 -0.00011113 0)
(-0.000496403 -0.000170744 0)
(-0.000437707 -0.000227307 0)
(-0.000369749 -0.000281921 0)
(-0.000295432 -0.00032943 0)
(-0.000215316 -0.000367283 0)
(-0.000130551 -0.000393553 0)
(-4.35573e-05 -0.000401295 0)
(-0.000607386 -0.00016093 0)
(-0.000556846 -0.000229922 0)
(-0.000495439 -0.000295972 0)
(-0.000422582 -0.000357821 0)
(-0.000340084 -0.000411984 0)
(-0.000249226 -0.000455679 0)
(-0.00015165 -0.000486301 0)
(-5.06819e-05 -0.000495051 0)
(-0.000682798 -0.000201754 0)
(-0.000631443 -0.00028539 0)
(-0.000565605 -0.000365285 0)
(-0.000485762 -0.000439275 0)
(-0.00039329 -0.000504049 0)
(-0.000289666 -0.000556554 0)
(-0.000176887 -0.000593475 0)
(-5.92372e-05 -0.000604115 0)
(-0.000774333 -0.000246542 0)
(-0.000720377 -0.000346136 0)
(-0.000649324 -0.000441602 0)
(-0.000561345 -0.000530337 0)
(-0.000457363 -0.000608586 0)
(-0.000338693 -0.000672772 0)
(-0.000207707 -0.00071813 0)
(-6.97765e-05 -0.000731797 0)
(-0.000883478 -0.000292794 0)
(-0.000826503 -0.0004108 0)
(-0.000749806 -0.000524805 0)
(-0.000652746 -0.000631865 0)
(-0.000535726 -0.000727366 0)
(-0.000399261 -0.000807306 0)
(-0.0002462 -0.000864059 0)
(-8.31426e-05 -0.000882744 0)
(-0.001012 -0.000341143 0)
(-0.000952389 -0.000479827 0)
(-0.000870389 -0.000615464 0)
(-0.000763906 -0.000745041 0)
(-0.000632804 -0.000862385 0)
(-0.000475449 -0.000963629 0)
(-0.000295552 -0.00103552 0)
(-0.000100807 -0.00106216 0)
(-0.0011617 -0.000390635 0)
(-0.00110082 -0.000552199 0)
(-0.00101502 -0.00071303 0)
(-0.000899666 -0.000870498 0)
(-0.000754313 -0.0010159 0)
(-0.000572473 -0.00114816 0)
(-0.000359659 -0.00124134 0)
(-0.000124637 -0.00128407 0)
(-0.001334 -0.000439502 0)
(-0.00127478 -0.000625641 0)
(-0.00118869 -0.000814993 0)
(-0.00106678 -0.00100597 0)
(-0.000910461 -0.00118385 0)
(-0.000700987 -0.00135425 0)
(-0.000449475 -0.00147021 0)
(-0.000161461 -0.00153209 0)
(-0.0015296 -0.000485139 0)
(-0.00147632 -0.000697612 0)
(-0.00139534 -0.000921019 0)
(-0.00126853 -0.00116014 0)
(-0.00110258 -0.00138858 0)
(-0.00085897 -0.00164377 0)
(-0.000559161 -0.00180362 0)
(-0.000208086 -0.0019384 0)
(-0.00174917 -0.000520542 0)
(-0.00171067 -0.000755268 0)
(-0.00165122 -0.0010058 0)
(-0.00153438 -0.00128449 0)
(-0.00139407 -0.00154331 0)
(-0.00111624 -0.00186247 0)
(-0.00077097 -0.00204386 0)
(-0.000323004 -0.00223062 0)
(-0.00198421 -0.000548299 0)
(-0.00196156 -0.000813058 0)
(-0.00192451 -0.00111041 0)
(-0.00180605 -0.00148912 0)
(-0.00168031 -0.00182896 0)
(-0.00135986 -0.00239536 0)
(-0.000958857 -0.00266664 0)
(-0.000426696 -0.00317332 0)
(-0.00225053 -0.000533936 0)
(-0.00227285 -0.000799778 0)
(-0.00232731 -0.00109729 0)
(-0.00225329 -0.00150579 0)
(-0.00230017 -0.00184597 0)
(-0.00195483 -0.00250751 0)
(-0.00159215 -0.00277782 0)
(-0.000873433 -0.00344259 0)
(-0.00248325 -0.000510964 0)
(-0.00252485 -0.000796085 0)
(-0.0026302 -0.00112843 0)
(-0.00255464 -0.00168498 0)
(-0.00268024 -0.00214021 0)
(-0.00229293 -0.0034004 0)
(-0.0019376 -0.0038632 0)
(-0.00114447 -0.00599358 0)
(-0.00276431 -0.000408453 0)
(-0.0028894 -0.000650929 0)
(-0.00321511 -0.000928214 0)
(-0.0032654 -0.00145398 0)
(-0.00401372 -0.00182389 0)
(-0.00368167 -0.00314614 0)
(-0.00425777 -0.00349373 0)
(-0.00307522 -0.00612238 0)
(-0.00270836 -0.000273987 0)
(-0.00282997 -0.00044881 0)
(-0.0032038 -0.000704064 0)
(-0.00319431 -0.0011724 0)
(-0.00408053 -0.00164686 0)
(-0.00354958 -0.0037484 0)
(-0.00442305 -0.00451217 0)
(-0.00288273 -0.0142799 0)
(0.02443 -0.000114517 0)
(0.0242181 -0.00020282 0)
(0.0236225 -0.000371228 0)
(0.0234846 -0.000683475 0)
(0.0211322 -0.00103781 0)
(0.0215639 -0.00281574 0)
(0.0132959 -0.00335107 0)
(0.0148312 -0.0124063 0)
(-3.55425e-06 9.54956e-07 0)
(-9.96076e-06 4.99226e-07 0)
(-1.45436e-05 -2.23035e-07 0)
(-1.67252e-05 -1.19284e-06 0)
(-1.63041e-05 -1.82193e-06 0)
(-1.34899e-05 -2.41211e-06 0)
(-8.80781e-06 -2.82791e-06 0)
(-3.03389e-06 -3.02614e-06 0)
(-4.08702e-06 1.30734e-05 0)
(-1.13052e-05 1.09416e-05 0)
(-1.64384e-05 7.28586e-06 0)
(-1.85571e-05 3.09609e-06 0)
(-1.77503e-05 -1.29301e-06 0)
(-1.46837e-05 -4.9296e-06 0)
(-9.58575e-06 -7.5315e-06 0)
(-3.31558e-06 -8.71566e-06 0)
(-5.90518e-06 1.50877e-05 0)
(-1.60578e-05 1.17235e-05 0)
(-2.25933e-05 6.25057e-06 0)
(-2.55381e-05 -3.22827e-07 0)
(-2.45577e-05 -6.14943e-06 0)
(-1.99174e-05 -1.12176e-05 0)
(-1.28422e-05 -1.48069e-05 0)
(-4.38522e-06 -1.64558e-05 0)
(-7.68056e-06 3.77016e-05 0)
(-2.03732e-05 2.98799e-05 0)
(-2.84869e-05 1.82577e-05 0)
(-3.09583e-05 5.78025e-06 0)
(-2.86463e-05 -6.16085e-06 0)
(-2.33432e-05 -1.56443e-05 0)
(-1.50552e-05 -2.22401e-05 0)
(-5.19424e-06 -2.5182e-05 0)
(-1.42371e-05 3.93235e-05 0)
(-3.60142e-05 2.91972e-05 0)
(-4.66951e-05 1.4656e-05 0)
(-4.99565e-05 -1.25069e-06 0)
(-4.5982e-05 -1.50021e-05 0)
(-3.59981e-05 -2.64907e-05 0)
(-2.27373e-05 -3.4456e-05 0)
(-7.68286e-06 -3.8008e-05 0)
(-1.83819e-05 9.47698e-05 0)
(-4.56193e-05 6.75194e-05 0)
(-5.89381e-05 3.53422e-05 0)
(-6.06171e-05 6.21548e-06 0)
(-5.3887e-05 -1.84315e-05 0)
(-4.28001e-05 -3.6737e-05 0)
(-2.71079e-05 -4.88581e-05 0)
(-9.27893e-06 -5.40597e-05 0)
(-4.28057e-05 9.42458e-05 0)
(-9.67582e-05 6.23872e-05 0)
(-0.000108003 2.53161e-05 0)
(-0.000103729 -7.57113e-06 0)
(-8.8933e-05 -3.53899e-05 0)
(-6.64273e-05 -5.64347e-05 0)
(-4.08232e-05 -7.06249e-05 0)
(-1.36445e-05 -7.65996e-05 0)
(-5.34258e-05 0.000251521 0)
(-0.00011593 0.000143162 0)
(-0.000128911 4.69239e-05 0)
(-0.000121327 -1.08005e-05 0)
(-0.000102753 -5.26436e-05 0)
(-7.80418e-05 -8.11333e-05 0)
(-4.83547e-05 -9.9034e-05 0)
(-1.633e-05 -0.000106161 0)
)
;

boundaryField
{
    movingWall
    {
        type            fixedValue;
        value           uniform (1 0 0);
    }
    fixedWalls
    {
        type            noSlip;
    }
    frontAndBack
    {
        type            empty;
    }
}


// ************************************************************************* //
