0 	0 	0 	0
1.57135 	-0.000459728 	-0.00665836 	0
3.1427 	-0.018717 	0.01548 	0
4.71405 	-0.0318164 	0.0625024 	0
6.28539 	-0.0115385 	0.0939133 	0
7.85674 	0.0227077 	0.0709911 	0
9.42809 	0.0411032 	0.0288546 	0
10.9994 	0.0380494 	-0.0149831 	0
12.5708 	0.111422 	-0.0992151 	0
14.1421 	0.5 	0 	0
