/*--------------------------------*- C++ -*----------------------------------*\
  =========                 |
  \\      /  F ield         | OpenFOAM: The Open Source CFD Toolbox
   \\    /   O peration     | Website:  https://openfoam.org
    \\  /    A nd           | Version:  8
     \\/     M anipulation  |
\*---------------------------------------------------------------------------*/
FoamFile
{
    version     2.0;
    format      ascii;
    class       surfaceScalarField;
    location    "0.74";
    object      phi;
}
// * * * * * * * * * * * * * * * * * * * * * * * * * * * * * * * * * * * * * //

dimensions      [0 3 -1 0 0 0 0];

internalField   nonuniform List<scalar> 
760
(
1.24699e-06
-6.20497e-13
1.24698e-06
4.13048e-12
1.24698e-06
6.89787e-12
1.24697e-06
6.73863e-12
1.24696e-06
6.01798e-12
1.24696e-06
5.13391e-12
1.24695e-06
4.22192e-12
1.24695e-06
3.36335e-12
1.24695e-06
2.57249e-12
1.24695e-06
1.80665e-12
1.24694e-06
1.00678e-12
1.24694e-06
1.10343e-13
1.24695e-06
-9.36773e-13
1.24695e-06
-2.18873e-12
1.24695e-06
-3.6914e-12
1.24696e-06
-5.43312e-12
1.24696e-06
-7.26801e-12
1.24697e-06
-8.55426e-12
1.24698e-06
-7.90066e-12
-5.40697e-12
3.741e-06
-3.31676e-13
3.74099e-06
1.03167e-11
3.74098e-06
1.60523e-11
3.74097e-06
1.69702e-11
3.74096e-06
1.57324e-11
3.74095e-06
1.37039e-11
3.74095e-06
1.14251e-11
3.74094e-06
9.13276e-12
3.74094e-06
6.88417e-12
3.74093e-06
4.62955e-12
3.74093e-06
2.27122e-12
3.74093e-06
-3.03572e-13
3.74094e-06
-3.2086e-12
3.74094e-06
-6.55493e-12
3.74095e-06
-1.04083e-11
3.74096e-06
-1.46577e-11
3.74097e-06
-1.87883e-11
3.74098e-06
-2.13245e-11
3.74099e-06
-1.95341e-11
-1.20068e-11
6.23521e-06
-1.47625e-12
6.23521e-06
1.40989e-11
6.2352e-06
2.28309e-11
6.23519e-06
2.53021e-11
6.23518e-06
2.42703e-11
6.23518e-06
2.16038e-11
6.23517e-06
1.82422e-11
6.23516e-06
1.46523e-11
6.23516e-06
1.10061e-11
6.23516e-06
7.30013e-12
6.23516e-06
3.43704e-12
6.23516e-06
-7.23717e-13
6.23516e-06
-5.33346e-12
6.23516e-06
-1.05232e-11
6.23517e-06
-1.63239e-11
6.23518e-06
-2.2482e-11
6.23518e-06
-2.81625e-11
6.23519e-06
-3.13498e-11
6.2352e-06
-2.86519e-11
-1.77171e-11
8.72978e-06
-3.33081e-12
8.72978e-06
1.47331e-11
8.72978e-06
2.59223e-11
8.72977e-06
3.00945e-11
8.72977e-06
2.98302e-11
8.72976e-06
2.71798e-11
8.72976e-06
2.33263e-11
8.72975e-06
1.89357e-11
8.72975e-06
1.43181e-11
8.72975e-06
9.55193e-12
8.72975e-06
4.57633e-12
8.72975e-06
-7.42977e-13
8.72975e-06
-6.56059e-12
8.72975e-06
-1.29953e-11
8.72975e-06
-2.00279e-11
8.72976e-06
-2.73011e-11
8.72977e-06
-3.38029e-11
8.72977e-06
-3.73268e-11
8.72978e-06
-3.43029e-11
-2.20769e-11
1.12249e-05
-5.72222e-12
1.12249e-05
1.30317e-11
1.12249e-05
2.55572e-11
1.12249e-05
3.11145e-11
1.12249e-05
3.18512e-11
1.12248e-05
2.97244e-11
1.12248e-05
2.59777e-11
1.12248e-05
2.13906e-11
1.12248e-05
1.63827e-11
1.12248e-05
1.11168e-11
1.12248e-05
5.58925e-12
1.12248e-05
-2.97873e-13
1.12248e-05
-6.67293e-12
1.12248e-05
-1.36277e-11
1.12248e-05
-2.11084e-11
1.12248e-05
-2.87229e-11
1.12248e-05
-3.54403e-11
1.12248e-05
-3.91412e-11
1.12248e-05
-3.64251e-11
-2.45774e-11
1.37205e-05
-7.98708e-12
1.37205e-05
9.72542e-12
1.37206e-05
2.23633e-11
1.37206e-05
2.87174e-11
1.37206e-05
3.03964e-11
1.37206e-05
2.90799e-11
1.37206e-05
2.59179e-11
1.37206e-05
2.17002e-11
1.37206e-05
1.6901e-11
1.37206e-05
1.1747e-11
1.37206e-05
6.2922e-12
1.37206e-05
4.88253e-13
1.37206e-05
-5.75212e-12
1.37206e-05
-1.24902e-11
1.37205e-05
-1.96624e-11
1.37205e-05
-2.69107e-11
1.37205e-05
-3.33191e-11
1.37205e-05
-3.70563e-11
1.37205e-05
-3.51535e-11
-2.49977e-11
1.6217e-05
-9.5877e-12
1.6217e-05
5.56785e-12
1.6217e-05
1.71249e-11
1.6217e-05
2.35579e-11
1.6217e-05
2.5917e-11
1.6217e-05
2.54933e-11
1.6217e-05
2.32293e-11
1.6217e-05
1.98328e-11
1.6217e-05
1.57699e-11
1.6217e-05
1.1296e-11
1.6217e-05
6.50909e-12
1.6217e-05
1.40857e-12
1.6217e-05
-4.04998e-12
1.6217e-05
-9.90132e-12
1.6217e-05
-1.60957e-11
1.6217e-05
-2.23627e-11
1.6217e-05
-2.79983e-11
1.6217e-05
-3.16002e-11
1.6217e-05
-3.08186e-11
-2.32923e-11
1.87142e-05
-1.01918e-11
1.87142e-05
1.2078e-12
1.87142e-05
1.06282e-11
1.87142e-05
1.64146e-11
1.87142e-05
1.90846e-11
1.87142e-05
1.94842e-11
1.87142e-05
1.82753e-11
1.87142e-05
1.60106e-11
1.87142e-05
1.30895e-11
1.87142e-05
9.75658e-12
1.87142e-05
6.13146e-12
1.87142e-05
2.25229e-12
1.87142e-05
-1.88914e-12
1.87142e-05
-6.30648e-12
1.87142e-05
-1.09814e-11
1.87142e-05
-1.57659e-11
1.87142e-05
-2.0226e-11
1.87142e-05
-2.34765e-11
1.87142e-05
-2.39171e-11
-1.95809e-11
2.12123e-05
-9.6675e-12
2.12123e-05
-2.8645e-12
2.12123e-05
3.58074e-12
2.12123e-05
8.08349e-12
2.12124e-05
1.06745e-11
2.12124e-05
1.17386e-11
2.12124e-05
1.16169e-11
2.12124e-05
1.0655e-11
2.12124e-05
9.13834e-12
2.12124e-05
7.26425e-12
2.12124e-05
5.15033e-12
2.12124e-05
2.85805e-12
2.12124e-05
4.12093e-13
2.12124e-05
-2.18927e-12
2.12124e-05
-4.96352e-12
2.12124e-05
-7.89762e-12
2.12124e-05
-1.08531e-11
2.12123e-05
-1.35033e-11
2.12123e-05
-1.50831e-11
-1.41504e-11
2.37114e-05
-8.06706e-12
2.37114e-05
-6.3279e-12
2.37114e-05
-3.42299e-12
2.37114e-05
-6.82903e-13
2.37114e-05
1.49081e-12
2.37114e-05
3.03077e-12
2.37114e-05
3.94174e-12
2.37114e-05
4.33151e-12
2.37114e-05
4.33761e-12
2.37114e-05
4.08197e-12
2.37114e-05
3.65976e-12
2.37114e-05
3.1437e-12
2.37114e-05
2.58352e-12
2.37114e-05
1.99043e-12
2.37114e-05
1.31547e-12
2.37114e-05
4.4476e-13
2.37114e-05
-7.72957e-13
2.37114e-05
-2.57106e-12
2.37114e-05
-5.06215e-12
-7.44512e-12
2.62114e-05
-5.60498e-12
2.62114e-05
-9.02062e-12
2.62114e-05
-9.90889e-12
2.62114e-05
-9.20217e-12
2.62114e-05
-7.67843e-12
2.62114e-05
-5.83176e-12
2.62114e-05
-3.99208e-12
2.62114e-05
-2.30199e-12
2.62114e-05
-7.89724e-13
2.62114e-05
5.73985e-13
2.62114e-05
1.84847e-12
2.62114e-05
3.10889e-12
2.62114e-05
4.42709e-12
2.62114e-05
5.83238e-12
2.62114e-05
7.25882e-12
2.62114e-05
8.49126e-12
2.62114e-05
9.1223e-12
2.62114e-05
8.39319e-12
2.62114e-05
5.3173e-12
-4.31137e-14
2.87124e-05
-2.62965e-12
2.87124e-05
-1.09139e-11
2.87124e-05
-1.5512e-11
2.87124e-05
-1.68696e-11
2.87124e-05
-1.60833e-11
2.87124e-05
-1.40454e-11
2.87124e-05
-1.14032e-11
2.87124e-05
-8.54421e-12
2.87124e-05
-5.66412e-12
2.87124e-05
-2.83057e-12
2.87124e-05
-2.52365e-14
2.87124e-05
2.82693e-12
2.87124e-05
5.82052e-12
2.87124e-05
9.01235e-12
2.87124e-05
1.23417e-11
2.87124e-05
1.55318e-11
2.87124e-05
1.79753e-11
2.87124e-05
1.84597e-11
2.87124e-05
1.51754e-11
7.3774e-12
3.12142e-05
4.18174e-13
3.12142e-05
-1.20748e-11
3.12142e-05
-1.99512e-11
3.12143e-05
-2.31453e-11
3.12143e-05
-2.30216e-11
3.12143e-05
-2.08384e-11
3.12143e-05
-1.75287e-11
3.12143e-05
-1.37009e-11
3.12143e-05
-9.70117e-12
3.12143e-05
-5.68473e-12
3.12143e-05
-1.66962e-12
3.12143e-05
2.42077e-12
3.12143e-05
6.70756e-12
3.12143e-05
1.12861e-11
3.12143e-05
1.6127e-11
3.12143e-05
2.09402e-11
3.12143e-05
2.49948e-11
3.12143e-05
2.67294e-11
3.12143e-05
2.36153e-11
1.40773e-11
3.3717e-05
3.06171e-12
3.3717e-05
-1.26166e-11
3.3717e-05
-2.29889e-11
3.3717e-05
-2.75335e-11
3.3717e-05
-2.78419e-11
3.3717e-05
-2.54983e-11
3.3717e-05
-2.16708e-11
3.3717e-05
-1.71418e-11
3.3717e-05
-1.23721e-11
3.3717e-05
-7.58021e-12
3.3717e-05
-2.80782e-12
3.3717e-05
2.02811e-12
3.3717e-05
7.07838e-12
3.3717e-05
1.24856e-11
3.3717e-05
1.8276e-11
3.3717e-05
2.4198e-11
3.3717e-05
2.94872e-11
3.3717e-05
3.23704e-11
3.3717e-05
2.97652e-11
1.93015e-11
3.62206e-05
4.85752e-12
3.62206e-05
-1.26314e-11
3.62206e-05
-2.43806e-11
3.62206e-05
-2.95606e-11
3.62206e-05
-2.99547e-11
3.62206e-05
-2.74133e-11
3.62206e-05
-2.3259e-11
3.62206e-05
-1.83751e-11
3.62206e-05
-1.32793e-11
3.62206e-05
-8.21711e-12
3.62206e-05
-3.23562e-12
3.62206e-05
1.75905e-12
3.62206e-05
6.94536e-12
3.62206e-05
1.25144e-11
3.62206e-05
1.85637e-11
3.62206e-05
2.49265e-11
3.62206e-05
3.0901e-11
3.62206e-05
3.46702e-11
3.62206e-05
3.28321e-11
2.2337e-11
3.87249e-05
5.47674e-12
3.87249e-05
-1.21008e-11
3.87249e-05
-2.38224e-11
3.87249e-05
-2.87678e-11
3.87249e-05
-2.88733e-11
3.87249e-05
-2.61481e-11
3.87249e-05
-2.19466e-11
3.87249e-05
-1.71484e-11
3.87249e-05
-1.22531e-11
3.87249e-05
-7.4879e-12
3.87249e-05
-2.88831e-12
3.87249e-05
1.64903e-12
3.87249e-05
6.31903e-12
3.87249e-05
1.13491e-11
3.87249e-05
1.69068e-11
3.87249e-05
2.29396e-11
3.87249e-05
2.88994e-11
3.87249e-05
3.31179e-11
3.87249e-05
3.21831e-11
2.25962e-11
4.12298e-05
4.80825e-12
4.12298e-05
-1.07977e-11
4.12298e-05
-2.09092e-11
4.12298e-05
-2.47476e-11
4.12298e-05
-2.43164e-11
4.12298e-05
-2.15824e-11
4.12298e-05
-1.77555e-11
4.12298e-05
-1.35836e-11
4.12298e-05
-9.46637e-12
4.12298e-05
-5.57126e-12
4.12298e-05
-1.91248e-12
4.12298e-05
1.6108e-12
4.12298e-05
5.18707e-12
4.12298e-05
9.05162e-12
4.12298e-05
1.34144e-11
4.12298e-05
1.83334e-11
4.12298e-05
2.34799e-11
4.12298e-05
2.75381e-11
4.12298e-05
2.74794e-11
1.97397e-11
4.37353e-05
3.14632e-12
4.37352e-05
-8.17698e-12
4.37352e-05
-1.5133e-11
4.37352e-05
-1.72761e-11
4.37352e-05
-1.64104e-11
4.37352e-05
-1.4125e-11
4.37352e-05
-1.12681e-11
4.37352e-05
-8.33157e-12
4.37352e-05
-5.55577e-12
4.37352e-05
-3.02673e-12
4.37352e-05
-7.38601e-13
4.37352e-05
1.38948e-12
4.37352e-05
3.50518e-12
4.37352e-05
5.80406e-12
4.37352e-05
8.47496e-12
4.37352e-05
1.1629e-11
4.37352e-05
1.51696e-11
4.37352e-05
1.8297e-11
4.37352e-05
1.88505e-11
1.3776e-11
4.6241e-05
1.08525e-12
4.6241e-05
-3.90344e-12
4.6241e-05
-6.61561e-12
4.6241e-05
-7.17143e-12
4.6241e-05
-6.47853e-12
4.6241e-05
-5.33361e-12
4.6241e-05
-4.06179e-12
4.6241e-05
-2.84503e-12
4.6241e-05
-1.76133e-12
4.6241e-05
-8.27551e-13
4.6241e-05
-2.88535e-14
4.6241e-05
6.81301e-13
4.6241e-05
1.37425e-12
4.6241e-05
2.14939e-12
4.6241e-05
3.08794e-12
4.6241e-05
4.2468e-12
4.6241e-05
5.66672e-12
4.6241e-05
7.12147e-12
4.6241e-05
7.76886e-12
5.84517e-12
4.8747e-05
4.8747e-05
4.8747e-05
4.8747e-05
4.8747e-05
4.8747e-05
4.8747e-05
4.8747e-05
4.8747e-05
4.8747e-05
4.8747e-05
4.8747e-05
4.8747e-05
4.8747e-05
4.8747e-05
4.8747e-05
4.8747e-05
4.8747e-05
4.8747e-05
)
;

boundaryField
{
    movingWall
    {
        type            calculated;
        value           uniform 0;
    }
    fixedWalls
    {
        type            calculated;
        value           uniform 0;
    }
    left
    {
        type            cyclic;
        value           nonuniform List<scalar> 
20
(
-3.87249e-05
-3.62206e-05
-3.3717e-05
-3.12142e-05
-2.87124e-05
-2.62114e-05
-2.37114e-05
-2.12123e-05
-1.87142e-05
-1.6217e-05
-1.37205e-05
-1.12249e-05
-8.72978e-06
-6.23521e-06
-3.741e-06
-1.24699e-06
-4.12298e-05
-4.37352e-05
-4.6241e-05
-4.8747e-05
)
;
    }
    right
    {
        type            cyclic;
        value           nonuniform List<scalar> 
20
(
3.87249e-05
3.62206e-05
3.3717e-05
3.12142e-05
2.87124e-05
2.62114e-05
2.37114e-05
2.12123e-05
1.87142e-05
1.6217e-05
1.37205e-05
1.12249e-05
8.72978e-06
6.23521e-06
3.741e-06
1.24699e-06
4.12298e-05
4.37352e-05
4.6241e-05
4.8747e-05
)
;
    }
    frontAndBack
    {
        type            empty;
        value           nonuniform List<scalar> 0();
    }
}


// ************************************************************************* //
