/*--------------------------------*- C++ -*----------------------------------*\
  =========                 |
  \\      /  F ield         | OpenFOAM: The Open Source CFD Toolbox
   \\    /   O peration     | Website:  https://openfoam.org
    \\  /    A nd           | Version:  8
     \\/     M anipulation  |
\*---------------------------------------------------------------------------*/
FoamFile
{
    version     2.0;
    format      ascii;
    class       volVectorField;
    location    "0.2";
    object      U;
}
// * * * * * * * * * * * * * * * * * * * * * * * * * * * * * * * * * * * * * //

dimensions      [0 1 -1 0 0 0 0];

internalField   nonuniform List<vector> 
400
(
(0.017419 -5.72886e-08 0)
(0.017419 1.36011e-08 0)
(0.0174189 6.24977e-08 0)
(0.0174187 8.94095e-08 0)
(0.0174185 1.01978e-07 0)
(0.0174182 1.06627e-07 0)
(0.017418 1.01441e-07 0)
(0.0174178 9.04901e-08 0)
(0.0174176 7.51753e-08 0)
(0.0174174 5.43892e-08 0)
(0.0174173 2.98162e-08 0)
(0.0174173 4.63275e-09 0)
(0.0174173 -2.04363e-08 0)
(0.0174173 -4.69739e-08 0)
(0.0174175 -7.64207e-08 0)
(0.0174176 -1.0884e-07 0)
(0.0174179 -1.42992e-07 0)
(0.0174182 -1.70361e-07 0)
(0.0174186 -1.73017e-07 0)
(0.0174188 -1.32516e-07 0)
(0.0524374 -1.42857e-07 0)
(0.0524374 1.1098e-07 0)
(0.0524373 2.79852e-07 0)
(0.052437 3.82927e-07 0)
(0.0524366 4.28184e-07 0)
(0.0524362 4.37254e-07 0)
(0.0524358 4.15419e-07 0)
(0.0524355 3.70535e-07 0)
(0.0524352 3.076e-07 0)
(0.0524349 2.28511e-07 0)
(0.0524348 1.37124e-07 0)
(0.0524347 3.82838e-08 0)
(0.0524347 -6.5937e-08 0)
(0.0524348 -1.75688e-07 0)
(0.052435 -2.90167e-07 0)
(0.0524353 -4.05366e-07 0)
(0.0524358 -5.10889e-07 0)
(0.0524363 -5.79159e-07 0)
(0.0524368 -5.56361e-07 0)
(0.0524372 -3.93508e-07 0)
(0.0879963 -2.66365e-07 0)
(0.0879964 1.74678e-07 0)
(0.0879963 5.00065e-07 0)
(0.087996 6.89067e-07 0)
(0.0879958 7.87161e-07 0)
(0.0879955 8.11149e-07 0)
(0.0879951 7.77091e-07 0)
(0.0879948 6.99736e-07 0)
(0.0879946 5.86856e-07 0)
(0.0879944 4.42726e-07 0)
(0.0879942 2.7295e-07 0)
(0.0879941 8.33254e-08 0)
(0.0879941 -1.22198e-07 0)
(0.0879942 -3.40082e-07 0)
(0.0879943 -5.63877e-07 0)
(0.0879946 -7.80874e-07 0)
(0.087995 -9.65829e-07 0)
(0.0879954 -1.06839e-06 0)
(0.0879958 -1.00365e-06 0)
(0.0879961 -7.12422e-07 0)
(0.124444 -3.85152e-07 0)
(0.124444 1.74916e-07 0)
(0.124444 6.07207e-07 0)
(0.124444 8.75292e-07 0)
(0.124444 1.01861e-06 0)
(0.124444 1.06495e-06 0)
(0.124443 1.03486e-06 0)
(0.124443 9.43681e-07 0)
(0.124443 8.02067e-07 0)
(0.124443 6.17065e-07 0)
(0.124443 3.944e-07 0)
(0.124443 1.39442e-07 0)
(0.124443 -1.42214e-07 0)
(0.124443 -4.4303e-07 0)
(0.124443 -7.50671e-07 0)
(0.124443 -1.04306e-06 0)
(0.124443 -1.28384e-06 0)
(0.124443 -1.4068e-06 0)
(0.124444 -1.3148e-06 0)
(0.124444 -9.52186e-07 0)
(0.162108 -4.94061e-07 0)
(0.162109 1.21045e-07 0)
(0.162109 6.03311e-07 0)
(0.162109 9.222e-07 0)
(0.162109 1.10346e-06 0)
(0.162109 1.17712e-06 0)
(0.162109 1.16384e-06 0)
(0.162109 1.07941e-06 0)
(0.162108 9.34462e-07 0)
(0.162108 7.36287e-07 0)
(0.162108 4.9135e-07 0)
(0.162108 2.05978e-07 0)
(0.162108 -1.13049e-07 0)
(0.162108 -4.56322e-07 0)
(0.162108 -8.0859e-07 0)
(0.162108 -1.14281e-06 0)
(0.162108 -1.41487e-06 0)
(0.162108 -1.55574e-06 0)
(0.162108 -1.46551e-06 0)
(0.162108 -1.08624e-06 0)
(0.20129 -5.78468e-07 0)
(0.201291 1.27511e-08 0)
(0.201291 4.944e-07 0)
(0.201291 8.30044e-07 0)
(0.201291 1.03617e-06 0)
(0.201291 1.13794e-06 0)
(0.201291 1.15186e-06 0)
(0.201291 1.09129e-06 0)
(0.201291 9.66138e-07 0)
(0.201291 7.83879e-07 0)
(0.201291 5.51075e-07 0)
(0.201291 2.73716e-07 0)
(0.201291 -4.17042e-08 0)
(0.201291 -3.85423e-07 0)
(0.201291 -7.41202e-07 0)
(0.201291 -1.08233e-06 0)
(0.201291 -1.36419e-06 0)
(0.201291 -1.52061e-06 0)
(0.201291 -1.4621e-06 0)
(0.20129 -1.1268e-06 0)
(0.242256 -6.25811e-07 0)
(0.242257 -1.2173e-07 0)
(0.242257 3.11039e-07 0)
(0.242257 6.29461e-07 0)
(0.242257 8.42359e-07 0)
(0.242258 9.65134e-07 0)
(0.242258 1.00898e-06 0)
(0.242258 9.84066e-07 0)
(0.242258 8.98372e-07 0)
(0.242258 7.5804e-07 0)
(0.242258 5.68263e-07 0)
(0.242258 3.33509e-07 0)
(0.242258 5.87907e-08 0)
(0.242258 -2.47499e-07 0)
(0.242258 -5.70463e-07 0)
(0.242258 -8.86318e-07 0)
(0.242257 -1.15701e-06 0)
(0.242257 -1.32526e-06 0)
(0.242257 -1.31712e-06 0)
(0.242257 -1.07071e-06 0)
(0.285232 -6.26959e-07 0)
(0.285232 -2.56892e-07 0)
(0.285232 8.41348e-08 0)
(0.285232 3.53855e-07 0)
(0.285233 5.51496e-07 0)
(0.285233 6.83425e-07 0)
(0.285233 7.55131e-07 0)
(0.285234 7.72414e-07 0)
(0.285234 7.39885e-07 0)
(0.285234 6.60884e-07 0)
(0.285234 5.38108e-07 0)
(0.285234 3.73701e-07 0)
(0.285234 1.70439e-07 0)
(0.285234 -6.59211e-08 0)
(0.285234 -3.24601e-07 0)
(0.285233 -5.87889e-07 0)
(0.285233 -8.27612e-07 0)
(0.285233 -1.0009e-06 0)
(0.285232 -1.05187e-06 0)
(0.285232 -9.23592e-07 0)
(0.330395 -5.73459e-07 0)
(0.330396 -3.71226e-07 0)
(0.330396 -1.54798e-07 0)
(0.330396 3.86235e-08 0)
(0.330396 1.99466e-07 0)
(0.330397 3.27029e-07 0)
(0.330397 4.20771e-07 0)
(0.330397 4.81144e-07 0)
(0.330398 5.08316e-07 0)
(0.330398 5.01971e-07 0)
(0.330398 4.61707e-07 0)
(0.330398 3.86815e-07 0)
(0.330398 2.77166e-07 0)
(0.330398 1.35022e-07 0)
(0.330398 -3.44424e-08 0)
(0.330397 -2.22319e-07 0)
(0.330397 -4.12979e-07 0)
(0.330397 -5.81407e-07 0)
(0.330396 -6.91283e-07 0)
(0.330396 -6.95318e-07 0)
(0.377874 -4.65185e-07 0)
(0.377874 -4.48171e-07 0)
(0.377874 -3.77609e-07 0)
(0.377875 -2.81741e-07 0)
(0.377875 -1.75525e-07 0)
(0.377875 -6.55499e-08 0)
(0.377876 4.16605e-08 0)
(0.377876 1.40843e-07 0)
(0.377877 2.2727e-07 0)
(0.377877 2.96624e-07 0)
(0.377877 3.45183e-07 0)
(0.377877 3.69178e-07 0)
(0.377877 3.65195e-07 0)
(0.377877 3.31327e-07 0)
(0.377877 2.66435e-07 0)
(0.377876 1.69648e-07 0)
(0.377876 4.28489e-08 0)
(0.377875 -1.08166e-07 0)
(0.377875 -2.68656e-07 0)
(0.377874 -4.0318e-07 0)
(0.42774 -3.12319e-07 0)
(0.42774 -4.81546e-07 0)
(0.42774 -5.65484e-07 0)
(0.42774 -5.78783e-07 0)
(0.42774 -5.3865e-07 0)
(0.427741 -4.56987e-07 0)
(0.427741 -3.45804e-07 0)
(0.427741 -2.15783e-07 0)
(0.427742 -7.64421e-08 0)
(0.427742 6.39427e-08 0)
(0.427742 1.98377e-07 0)
(0.427742 3.2014e-07 0)
(0.427742 4.22681e-07 0)
(0.427742 4.9998e-07 0)
(0.427742 5.44696e-07 0)
(0.427742 5.46583e-07 0)
(0.427741 4.94145e-07 0)
(0.427741 3.74244e-07 0)
(0.42774 1.77886e-07 0)
(0.42774 -7.30016e-08 0)
(0.480005 -1.3151e-07 0)
(0.480005 -4.73282e-07 0)
(0.480005 -7.06204e-07 0)
(0.480005 -8.2865e-07 0)
(0.480005 -8.58117e-07 0)
(0.480005 -8.11307e-07 0)
(0.480006 -7.04894e-07 0)
(0.480006 -5.5419e-07 0)
(0.480006 -3.72891e-07 0)
(0.480007 -1.72757e-07 0)
(0.480007 3.63085e-08 0)
(0.480007 2.45049e-07 0)
(0.480007 4.4436e-07 0)
(0.480007 6.24819e-07 0)
(0.480007 7.73822e-07 0)
(0.480007 8.7318e-07 0)
(0.480006 8.99695e-07 0)
(0.480006 8.22964e-07 0)
(0.480005 6.09402e-07 0)
(0.480005 2.65057e-07 0)
(0.534623 5.71162e-08 0)
(0.534623 -4.30061e-07 0)
(0.534623 -7.91776e-07 0)
(0.534623 -1.01142e-06 0)
(0.534623 -1.10558e-06 0)
(0.534624 -1.09502e-06 0)
(0.534624 -1.00005e-06 0)
(0.534624 -8.39533e-07 0)
(0.534624 -6.30346e-07 0)
(0.534625 -3.86873e-07 0)
(0.534625 -1.21261e-07 0)
(0.534625 1.55352e-07 0)
(0.534625 4.3215e-07 0)
(0.534625 6.97489e-07 0)
(0.534625 9.35181e-07 0)
(0.534625 1.12143e-06 0)
(0.534625 1.22409e-06 0)
(0.534624 1.19813e-06 0)
(0.534624 9.8714e-07 0)
(0.534624 5.78826e-07 0)
(0.591489 2.2999e-07 0)
(0.591489 -3.635e-07 0)
(0.591489 -8.20625e-07 0)
(0.591489 -1.11425e-06 0)
(0.59149 -1.25988e-06 0)
(0.59149 -1.28138e-06 0)
(0.59149 -1.20141e-06 0)
(0.59149 -1.0411e-06 0)
(0.59149 -8.19391e-07 0)
(0.59149 -5.52255e-07 0)
(0.59149 -2.53217e-07 0)
(0.59149 6.55484e-08 0)
(0.591491 3.92571e-07 0)
(0.591491 7.15492e-07 0)
(0.591491 1.01677e-06 0)
(0.59149 1.27e-06 0)
(0.59149 1.43759e-06 0)
(0.59149 1.46327e-06 0)
(0.59149 1.27317e-06 0)
(0.59149 8.34217e-07 0)
(0.65044 3.61191e-07 0)
(0.65044 -2.89531e-07 0)
(0.65044 -7.98731e-07 0)
(0.65044 -1.13292e-06 0)
(0.65044 -1.30862e-06 0)
(0.65044 -1.35208e-06 0)
(0.65044 -1.28711e-06 0)
(0.65044 -1.13552e-06 0)
(0.65044 -9.1684e-07 0)
(0.65044 -6.47509e-07 0)
(0.65044 -3.41439e-07 0)
(0.65044 -1.08118e-08 0)
(0.65044 3.33506e-07 0)
(0.65044 6.80125e-07 0)
(0.650441 1.01249e-06 0)
(0.650441 1.30465e-06 0)
(0.650441 1.51742e-06 0)
(0.650441 1.58814e-06 0)
(0.65044 1.43338e-06 0)
(0.65044 9.97382e-07 0)
(0.711258 4.27504e-07 0)
(0.711258 -2.20694e-07 0)
(0.711258 -7.3203e-07 0)
(0.711258 -1.06645e-06 0)
(0.711258 -1.24511e-06 0)
(0.711258 -1.29612e-06 0)
(0.711258 -1.24327e-06 0)
(0.711257 -1.10759e-06 0)
(0.711257 -9.0745e-07 0)
(0.711257 -6.5826e-07 0)
(0.711257 -3.72989e-07 0)
(0.711257 -6.26184e-08 0)
(0.711257 2.63767e-07 0)
(0.711257 5.97091e-07 0)
(0.711258 9.23556e-07 0)
(0.711258 1.22023e-06 0)
(0.711258 1.45052e-06 0)
(0.711258 1.55314e-06 0)
(0.711258 1.44116e-06 0)
(0.711258 1.04208e-06 0)
(0.773677 4.10569e-07 0)
(0.773677 -1.64562e-07 0)
(0.773677 -6.21049e-07 0)
(0.773677 -9.12108e-07 0)
(0.773676 -1.06492e-06 0)
(0.773676 -1.10862e-06 0)
(0.773676 -1.06498e-06 0)
(0.773676 -9.52502e-07 0)
(0.773675 -7.86537e-07 0)
(0.773675 -5.79543e-07 0)
(0.773675 -3.41817e-07 0)
(0.773675 -8.20583e-08 0)
(0.773675 1.92609e-07 0)
(0.773675 4.75341e-07 0)
(0.773675 7.56251e-07 0)
(0.773676 1.01886e-06 0)
(0.773676 1.23437e-06 0)
(0.773676 1.35041e-06 0)
(0.773677 1.27914e-06 0)
(0.773677 9.54915e-07 0)
(0.837387 3.18272e-07 0)
(0.837387 -1.23494e-07 0)
(0.837387 -4.64842e-07 0)
(0.837387 -6.71841e-07 0)
(0.837387 -7.74419e-07 0)
(0.837386 -7.99709e-07 0)
(0.837386 -7.65223e-07 0)
(0.837386 -6.84311e-07 0)
(0.837385 -5.66617e-07 0)
(0.837385 -4.19335e-07 0)
(0.837385 -2.49635e-07 0)
(0.837385 -6.52432e-08 0)
(0.837385 1.28209e-07 0)
(0.837385 3.28177e-07 0)
(0.837385 5.3018e-07 0)
(0.837386 7.22901e-07 0)
(0.837386 8.88377e-07 0)
(0.837386 9.92903e-07 0)
(0.837387 9.60664e-07 0)
(0.837387 7.30334e-07 0)
(0.902046 1.72303e-07 0)
(0.902046 -7.87731e-08 0)
(0.902046 -2.59878e-07 0)
(0.902046 -3.61193e-07 0)
(0.902046 -4.04794e-07 0)
(0.902045 -4.10751e-07 0)
(0.902045 -3.89246e-07 0)
(0.902044 -3.47172e-07 0)
(0.902044 -2.87839e-07 0)
(0.902044 -2.12685e-07 0)
(0.902044 -1.24986e-07 0)
(0.902044 -3.06329e-08 0)
(0.902044 6.61847e-08 0)
(0.902044 1.65397e-07 0)
(0.902044 2.66532e-07 0)
(0.902044 3.65749e-07 0)
(0.902045 4.57203e-07 0)
(0.902045 5.20365e-07 0)
(0.902046 5.19781e-07 0)
(0.902046 3.96208e-07 0)
(0.967284 3.7328e-08 0)
(0.967284 -3.39943e-08 0)
(0.967284 -8.03186e-08 0)
(0.967284 -1.01645e-07 0)
(0.967284 -1.07451e-07 0)
(0.967283 -1.05164e-07 0)
(0.967283 -9.79987e-08 0)
(0.967283 -8.74662e-08 0)
(0.967283 -7.28725e-08 0)
(0.967283 -5.30212e-08 0)
(0.967283 -2.92162e-08 0)
(0.967283 -5.2518e-09 0)
(0.967283 1.70316e-08 0)
(0.967283 3.99225e-08 0)
(0.967283 6.48356e-08 0)
(0.967283 8.97406e-08 0)
(0.967283 1.14401e-07 0)
(0.967283 1.34934e-07 0)
(0.967284 1.38408e-07 0)
(0.967284 1.06235e-07 0)
)
;

boundaryField
{
    movingWall
    {
        type            fixedValue;
        value           uniform (1 0 0);
    }
    fixedWalls
    {
        type            noSlip;
    }
    left
    {
        type            cyclic;
    }
    right
    {
        type            cyclic;
    }
    frontAndBack
    {
        type            empty;
    }
}


// ************************************************************************* //
