0 	-1.72388e-07
1.57135 	-9.14063e-06
3.1427 	-7.7744e-05
4.71405 	-0.000314421
6.28539 	-0.000929832
7.85674 	-0.00186388
9.42809 	-0.00274676
10.9994 	-0.00352023
12.5708 	-0.00314003
14.1421 	0.252023
