/*--------------------------------*- C++ -*----------------------------------*\
  =========                 |
  \\      /  F ield         | OpenFOAM: The Open Source CFD Toolbox
   \\    /   O peration     | Website:  https://openfoam.org
    \\  /    A nd           | Version:  8
     \\/     M anipulation  |
\*---------------------------------------------------------------------------*/
FoamFile
{
    version     2.0;
    format      ascii;
    class       volScalarField;
    location    "24";
    object      p;
}
// * * * * * * * * * * * * * * * * * * * * * * * * * * * * * * * * * * * * * //

dimensions      [0 2 -2 0 0 0 0];

internalField   nonuniform List<scalar> 
11600
(
-2.82513e-07
-5.50995e-07
-1.31647e-07
6.34056e-07
1.87594e-06
3.56192e-06
5.68991e-06
8.26001e-06
1.12729e-05
1.47299e-05
1.86323e-05
2.29817e-05
2.77802e-05
3.30297e-05
3.87327e-05
4.48916e-05
5.1509e-05
5.85878e-05
6.61308e-05
7.41409e-05
8.26215e-05
9.15754e-05
0.000101006
0.000110917
0.00012131
0.00013219
0.000143559
0.000155421
0.000167778
0.000180634
0.000193991
0.000207853
0.000222221
0.0002371
0.00025249
0.000268394
0.000284815
0.000301754
0.000319213
0.000337193
0.000355697
0.000374726
0.000394281
0.000414365
0.000434979
0.000456126
0.000477809
0.000500033
0.000522804
0.00054613
0.000570021
0.000594494
0.000619568
0.000645266
0.000671616
0.000698695
0.000726636
0.000753895
0.00078903
0.000804987
-7.25787e-08
-3.21811e-07
1.62942e-07
9.54191e-07
2.20867e-06
3.89933e-06
6.02809e-06
8.59723e-06
1.1608e-05
1.5062e-05
1.8961e-05
2.33066e-05
2.81009e-05
3.33459e-05
3.90439e-05
4.51975e-05
5.18093e-05
5.8882e-05
6.64186e-05
7.44221e-05
8.28956e-05
9.18422e-05
0.000101265
0.000111168
0.000121553
0.000132424
0.000143784
0.000155636
0.000167984
0.00018083
0.000194177
0.000208029
0.000222387
0.000237255
0.000252634
0.000268528
0.000284938
0.000301866
0.000319314
0.000337283
0.000355777
0.000374795
0.000394341
0.000414416
0.000435022
0.000456161
0.000477839
0.00050006
0.00052283
0.000546161
0.000570064
0.000594562
0.000619681
0.000645464
0.000671977
0.000699356
0.000727735
0.000756975
0.000790878
0.000819496
-5.31283e-07
-8.35159e-07
-3.46341e-07
4.40183e-07
1.69332e-06
3.38209e-06
5.50855e-06
8.07514e-06
1.10829e-05
1.45334e-05
1.84281e-05
2.27691e-05
2.75583e-05
3.27978e-05
3.84901e-05
4.46375e-05
5.12429e-05
5.83089e-05
6.58386e-05
7.38349e-05
8.2301e-05
9.12399e-05
0.000100655
0.000110549
0.000120926
0.000131789
0.000143141
0.000154985
0.000167324
0.000180161
0.0001935
0.000207343
0.000221693
0.000236553
0.000251924
0.00026781
0.000284213
0.000301133
0.000318574
0.000336537
0.000355024
0.000374035
0.000393574
0.000413642
0.00043424
0.000455371
0.000477039
0.000499248
0.000522004
0.000545315
0.000569193
0.000593653
0.000618718
0.000644417
0.000670796
0.000697929
0.000725875
0.000754696
0.000785946
0.000814804
-1.34573e-06
-1.67242e-06
-1.17571e-06
-3.88977e-07
8.65456e-07
2.55343e-06
4.6773e-06
7.24008e-06
1.02432e-05
1.3688e-05
1.75764e-05
2.19103e-05
2.66917e-05
3.19229e-05
3.76063e-05
4.37445e-05
5.034e-05
5.73959e-05
6.4915e-05
7.29003e-05
8.13551e-05
9.02824e-05
9.96855e-05
0.000109568
0.000119932
0.000130782
0.000142121
0.000153952
0.000166278
0.000179103
0.000192429
0.000206259
0.000220597
0.000235444
0.000250804
0.000266678
0.000283069
0.000299979
0.000317409
0.000335362
0.000353838
0.00037284
0.000392369
0.000412425
0.000433012
0.000454131
0.000475785
0.000497978
0.000520713
0.000544
0.000567847
0.000592267
0.00061728
0.000642913
0.000669206
0.000696214
0.000723992
0.000752652
0.000782568
0.0008122
-2.65243e-06
-2.99224e-06
-2.49469e-06
-1.7116e-06
-4.59299e-07
1.22561e-06
3.3453e-06
5.90281e-06
8.89964e-06
1.23374e-05
1.62178e-05
2.05428e-05
2.53147e-05
3.05357e-05
3.62082e-05
4.2335e-05
4.89186e-05
5.59621e-05
6.34683e-05
7.14404e-05
7.98815e-05
8.87948e-05
9.81837e-05
0.000108051
0.000118401
0.000129236
0.00014056
0.000152376
0.000164687
0.000177497
0.000190808
0.000204625
0.000218948
0.000233782
0.000249129
0.00026499
0.000281369
0.000298268
0.000315687
0.000333629
0.000352094
0.000371086
0.000390603
0.000410648
0.000431223
0.000452327
0.000473963
0.000496134
0.000518842
0.000542092
0.000565889
0.000590241
0.000615158
0.000640654
0.000666746
0.000693454
0.000720789
0.00074878
0.000777439
0.000806194
-4.42163e-06
-4.76789e-06
-4.27108e-06
-3.49207e-06
-2.24329e-06
-5.62801e-07
1.55142e-06
4.1023e-06
7.09136e-06
1.05202e-05
1.43908e-05
1.87051e-05
2.34653e-05
2.86739e-05
3.43333e-05
4.04461e-05
4.70153e-05
5.40438e-05
6.15344e-05
6.94905e-05
7.79151e-05
8.68115e-05
9.61831e-05
0.000106033
0.000116365
0.000127183
0.000138489
0.000150287
0.00016258
0.000175373
0.000188667
0.000202467
0.000216774
0.000231593
0.000246924
0.000262772
0.000279137
0.000296023
0.00031343
0.00033136
0.000349814
0.000368794
0.0003883
0.000408333
0.000428893
0.000449982
0.000471599
0.000493745
0.000516422
0.00053963
0.00056337
0.000587646
0.000612459
0.000637812
0.000663706
0.000690135
0.000717083
0.000744519
0.000772351
0.000800305
-6.65083e-06
-7.0006e-06
-6.50532e-06
-5.73049e-06
-4.48633e-06
-2.81155e-06
-7.04185e-07
1.83863e-06
4.81837e-06
8.23673e-06
1.20956e-05
1.63972e-05
2.11437e-05
2.63376e-05
3.19815e-05
3.8078e-05
4.46302e-05
5.16409e-05
5.91132e-05
6.70504e-05
7.54556e-05
8.43322e-05
9.36837e-05
0.000103513
0.000113825
0.000124621
0.000135907
0.000147685
0.000159958
0.00017273
0.000186005
0.000199786
0.000214075
0.000228876
0.000244191
0.000260023
0.000276373
0.000293245
0.000310638
0.000328556
0.000346998
0.000365966
0.00038546
0.000405481
0.000426028
0.0004471
0.000468698
0.000490819
0.000513463
0.000536628
0.000560311
0.000584508
0.000609214
0.000634421
0.000660116
0.000686277
0.000712866
0.000739823
0.000767038
0.000794312
-9.33815e-06
-9.69094e-06
-9.19803e-06
-8.42773e-06
-7.18908e-06
-5.52119e-06
-3.42203e-06
-8.88755e-07
2.0801e-06
5.48623e-06
9.33163e-06
1.36185e-05
1.83491e-05
2.35261e-05
2.91521e-05
3.52298e-05
4.17623e-05
4.87525e-05
5.62037e-05
6.4119e-05
7.25019e-05
8.13557e-05
9.0684e-05
0.00010049
0.000110778
0.000121551
0.000132813
0.000144567
0.000156818
0.000169568
0.00018282
0.00019658
0.000210848
0.00022563
0.000240926
0.000256741
0.000273075
0.000289931
0.000307311
0.000325215
0.000343645
0.000362602
0.000382085
0.000402093
0.000422627
0.000443685
0.000465265
0.000487364
0.000509978
0.000533103
0.000556732
0.000580857
0.000605466
0.000630543
0.000656065
0.000681999
0.000708296
0.000734884
0.000761654
0.00078845
-1.24818e-05
-1.28377e-05
-1.23479e-05
-1.15827e-05
-1.03505e-05
-8.69056e-06
-6.60091e-06
-4.07865e-06
-1.1223e-06
2.26986e-06
6.09988e-06
1.037e-05
1.50826e-05
2.02404e-05
2.5846e-05
3.19023e-05
3.84123e-05
4.53792e-05
5.28062e-05
6.06967e-05
6.90541e-05
7.7882e-05
8.71839e-05
9.69637e-05
0.000107225
0.000117971
0.000129207
0.000140935
0.000153159
0.000165884
0.000179112
0.000192847
0.000207093
0.000221853
0.000237129
0.000252925
0.000269241
0.000286081
0.000303446
0.000321337
0.000339755
0.000358701
0.000378173
0.000398172
0.000418695
0.000439741
0.000461307
0.000483388
0.000505978
0.00052907
0.000552655
0.00057672
0.00060125
0.000626222
0.000651607
0.000677366
0.000703445
0.000729771
0.000756244
0.000782736
-1.60803e-05
-1.64393e-05
-1.59533e-05
-1.5194e-05
-1.39691e-05
-1.23183e-05
-1.02394e-05
-7.72967e-06
-4.78746e-06
-1.41105e-06
2.40166e-06
6.65297e-06
1.13454e-05
1.64815e-05
2.20641e-05
2.80963e-05
3.45811e-05
4.15216e-05
4.89214e-05
5.67839e-05
6.51126e-05
7.39113e-05
8.31837e-05
9.29336e-05
0.000103165
0.000113881
0.000125087
0.000136786
0.000148981
0.000161678
0.000174879
0.000188588
0.000202809
0.000217545
0.000232799
0.000248573
0.000264871
0.000281694
0.000299043
0.000316921
0.000335327
0.000354262
0.000373726
0.000393716
0.000414233
0.000435271
0.000456827
0.000478896
0.00050147
0.000524541
0.000548095
0.000572119
0.000596592
0.00062149
0.00064678
0.00067242
0.000698355
0.000724517
0.000750815
0.000777144
-2.01321e-05
-2.04945e-05
-2.00127e-05
-1.92601e-05
-1.80435e-05
-1.64029e-05
-1.43361e-05
-1.18404e-05
-8.91397e-06
-5.55513e-06
-1.76171e-06
2.46863e-06
7.13844e-06
1.22504e-05
1.78075e-05
2.38127e-05
3.02693e-05
3.71805e-05
4.45499e-05
5.2381e-05
6.06778e-05
6.94439e-05
7.86833e-05
8.84e-05
9.8598e-05
0.000109281
0.000120454
0.00013212
0.000144284
0.000156949
0.00017012
0.0001838
0.000197993
0.000212703
0.000227932
0.000243684
0.000259961
0.000276766
0.0002941
0.000311964
0.000330359
0.000349285
0.000368742
0.000388727
0.00040924
0.000430275
0.000451829
0.000473894
0.000496463
0.000519525
0.000543065
0.000567068
0.000591512
0.00061637
0.000641608
0.000667184
0.000693045
0.000719128
0.000745354
0.000771634
-2.46354e-05
-2.50016e-05
-2.45244e-05
-2.37792e-05
-2.25718e-05
-2.09426e-05
-1.88894e-05
-1.64092e-05
-1.35003e-05
-1.01609e-05
-6.38883e-06
-2.18167e-06
2.46316e-06
7.54847e-06
1.30772e-05
1.90525e-05
2.54778e-05
3.23564e-05
3.96921e-05
4.74886e-05
5.57499e-05
6.44799e-05
7.36827e-05
8.33626e-05
9.35236e-05
0.00010417
0.000115306
0.000126936
0.000139065
0.000151695
0.000164833
0.000178481
0.000192644
0.000207325
0.000222528
0.000238255
0.000254511
0.000271296
0.000288613
0.000306464
0.000324848
0.000343767
0.000363219
0.000383203
0.000403716
0.000424755
0.000446313
0.000468384
0.000490959
0.000514027
0.000537572
0.000561576
0.000586019
0.000610872
0.000636101
0.000661666
0.000687518
0.000713597
0.000739836
0.00076616
-2.95883e-05
-2.99586e-05
-2.94865e-05
-2.87494e-05
-2.75524e-05
-2.59358e-05
-2.38974e-05
-2.14343e-05
-1.85447e-05
-1.52267e-05
-1.14781e-05
-7.29647e-06
-2.67912e-06
2.3768e-06
7.87435e-06
1.38168e-05
2.02076e-05
2.70503e-05
3.43488e-05
4.21071e-05
5.03293e-05
5.90195e-05
6.8182e-05
7.78213e-05
8.79416e-05
9.85474e-05
0.000109643
0.000121234
0.000133323
0.000145916
0.000159016
0.000172629
0.000186759
0.000201409
0.000216582
0.000232284
0.000248515
0.00026528
0.00028258
0.000300417
0.000318792
0.000337705
0.000357155
0.00037714
0.000397659
0.000418707
0.000440278
0.000462365
0.000484959
0.000508048
0.000531616
0.000555647
0.000580117
0.000604999
0.000630261
0.000655865
0.000681764
0.000707906
0.000734232
0.000760676
-3.49884e-05
-3.53633e-05
-3.4897e-05
-3.41688e-05
-3.2983e-05
-3.13802e-05
-2.93582e-05
-2.69138e-05
-2.40453e-05
-2.07507e-05
-1.70278e-05
-1.28741e-05
-8.2869e-06
-3.26317e-06
2.2002e-06
8.10659e-06
1.44596e-05
2.1263e-05
2.85208e-05
3.62372e-05
4.44165e-05
5.3063e-05
6.21813e-05
7.17759e-05
8.18514e-05
9.24126e-05
0.000103464
0.000115011
0.000127057
0.000139608
0.000152669
0.000166243
0.000180336
0.000194951
0.000210094
0.000225766
0.000241973
0.000258716
0.000275998
0.000293821
0.000312186
0.000331094
0.000350545
0.000370536
0.000391065
0.000412128
0.00043372
0.000455834
0.00047846
0.000501586
0.000525197
0.000549276
0.000573801
0.000598747
0.000624081
0.000649769
0.000675768
0.000702031
0.000728505
0.000755134
-4.08336e-05
-4.12136e-05
-4.07534e-05
-4.0035e-05
-3.88614e-05
-3.72737e-05
-3.52695e-05
-3.28455e-05
-3e-05
-2.6731e-05
-2.30361e-05
-1.89129e-05
-1.43585e-05
-9.36992e-06
-3.94383e-06
1.92324e-06
8.23504e-06
1.49956e-05
2.22089e-05
2.98796e-05
3.80119e-05
4.66107e-05
5.56805e-05
6.52262e-05
7.52527e-05
8.57649e-05
9.67678e-05
0.000108266
0.000120266
0.000132771
0.000145788
0.00015932
0.000173372
0.00018795
0.000203058
0.000218699
0.000234878
0.000251597
0.00026886
0.000286669
0.000305026
0.00032393
0.000343383
0.000363383
0.000383927
0.000405013
0.000426634
0.000448785
0.000471455
0.000494634
0.000518307
0.000542458
0.000567065
0.000592105
0.000617547
0.00064336
0.000669505
0.00069594
0.000722618
0.000749488
-4.71214e-05
-4.75068e-05
-4.70534e-05
-4.63455e-05
-4.51852e-05
-4.36139e-05
-4.16289e-05
-3.9227e-05
-3.64065e-05
-3.31653e-05
-2.9501e-05
-2.54109e-05
-2.08922e-05
-1.59418e-05
-1.05562e-05
-4.73187e-06
1.53517e-06
8.24904e-06
1.54141e-05
2.3035e-05
3.11163e-05
3.96629e-05
4.86799e-05
5.81722e-05
6.8145e-05
7.86037e-05
8.95534e-05
0.000101
0.000112948
0.000125403
0.000138371
0.000151856
0.000165865
0.000180401
0.000195471
0.000211078
0.000227226
0.00024392
0.000261163
0.000278957
0.000297304
0.000316206
0.000335663
0.000355675
0.000376239
0.000397353
0.000419011
0.000441208
0.000463936
0.000487183
0.000510936
0.00053518
0.000559894
0.000585057
0.000610641
0.000636617
0.00066295
0.000689602
0.000716531
0.000743692
-5.3849e-05
-5.42402e-05
-5.3794e-05
-5.30975e-05
-5.19516e-05
-5.03979e-05
-4.84338e-05
-4.60559e-05
-4.32625e-05
-4.00514e-05
-3.64201e-05
-3.2366e-05
-2.7886e-05
-2.29769e-05
-1.76352e-05
-1.18572e-05
-5.63864e-06
1.02469e-06
8.13738e-06
1.57042e-05
2.373e-05
3.22201e-05
4.11795e-05
5.06136e-05
6.0528e-05
7.09282e-05
8.18198e-05
9.32086e-05
0.0001051
0.0001175
0.000130415
0.000143849
0.00015781
0.000172301
0.000187329
0.000202898
0.000219013
0.000235679
0.000252899
0.000270677
0.000289014
0.000307914
0.000327377
0.000347403
0.000367991
0.000389138
0.000410841
0.000433094
0.00045589
0.000479219
0.000503069
0.000527426
0.000552271
0.000577584
0.00060334
0.000629513
0.000656071
0.00068298
0.000710203
0.000737698
-6.10135e-05
-6.14109e-05
-6.09725e-05
-6.02882e-05
-5.91578e-05
-5.76231e-05
-5.56814e-05
-5.33294e-05
-5.05652e-05
-4.73866e-05
-4.37911e-05
-3.97758e-05
-3.53376e-05
-3.04733e-05
-2.5179e-05
-1.9451e-05
-1.32848e-05
-6.67613e-06
3.79896e-07
7.88821e-06
1.5854e-05
2.42826e-05
3.31795e-05
4.25505e-05
5.24012e-05
6.27377e-05
7.3566e-05
8.4892e-05
9.67219e-05
0.000109062
0.000121918
0.000135296
0.000149203
0.000163645
0.000178626
0.000194154
0.000210232
0.000226867
0.000244062
0.000261821
0.000280148
0.000299046
0.000318515
0.000338557
0.000359172
0.000380357
0.000402111
0.000424429
0.000447304
0.000470728
0.00049469
0.000519177
0.000544174
0.000569661
0.000595617
0.000622017
0.000648834
0.000676036
0.00070359
0.000731461
-6.86115e-05
-6.90155e-05
-6.85855e-05
-6.79143e-05
-6.68005e-05
-6.52862e-05
-6.33687e-05
-6.10445e-05
-5.83118e-05
-5.51683e-05
-5.16112e-05
-4.76378e-05
-4.32448e-05
-3.84286e-05
-3.31855e-05
-2.75113e-05
-2.14017e-05
-1.48519e-05
-7.85707e-06
-4.11938e-07
7.48887e-06
1.5851e-05
2.46802e-05
3.39826e-05
4.37643e-05
5.40315e-05
6.47907e-05
7.60483e-05
8.78108e-05
0.000100085
0.000112877
0.000126194
0.000140042
0.000154428
0.000169359
0.00018484
0.000200877
0.000217477
0.000234644
0.000252382
0.000270697
0.00028959
0.000309066
0.000329125
0.000349769
0.000370997
0.000392808
0.000415197
0.00043816
0.00046169
0.000485778
0.000510412
0.000535578
0.000561261
0.000587441
0.000614096
0.000641202
0.00066873
0.00069665
0.00072493
-7.66398e-05
-7.70508e-05
-7.66297e-05
-7.59725e-05
-7.48763e-05
-7.33839e-05
-7.14923e-05
-6.91981e-05
-6.64992e-05
-6.33933e-05
-5.98777e-05
-5.59493e-05
-5.16048e-05
-4.68405e-05
-4.16524e-05
-3.60362e-05
-2.99874e-05
-2.3501e-05
-1.65721e-05
-9.19509e-06
-1.36439e-06
6.92591e-06
1.5682e-05
2.49101e-05
3.46169e-05
4.48089e-05
5.54929e-05
6.6676e-05
7.83649e-05
9.05667e-05
0.000103289
0.000116538
0.000130322
0.000144647
0.000159521
0.00017495
0.000190942
0.000207502
0.000224636
0.00024235
0.000260649
0.000279537
0.000299018
0.000319095
0.00033977
0.000361042
0.000382913
0.00040538
0.000428438
0.000452084
0.000476309
0.000501104
0.000526458
0.000552355
0.000578781
0.000605715
0.000633136
0.000661019
0.000689336
0.000718058
-8.50944e-05
-8.55129e-05
-8.51012e-05
-8.44589e-05
-8.33817e-05
-8.19126e-05
-8.00487e-05
-7.77866e-05
-7.5124e-05
-7.20585e-05
-6.85874e-05
-6.47073e-05
-6.04148e-05
-5.57061e-05
-5.05771e-05
-4.50232e-05
-3.90397e-05
-3.26216e-05
-2.57635e-05
-1.84599e-05
-1.07048e-05
-2.49191e-06
6.18512e-06
1.5333e-05
2.49586e-05
3.50691e-05
4.56716e-05
5.67734e-05
6.8382e-05
8.0505e-05
9.315e-05
0.000106325
0.000120037
0.000134295
0.000149106
0.000164478
0.000180418
0.000196933
0.00021403
0.000231715
0.000249995
0.000268875
0.000288359
0.000308452
0.000329157
0.000350476
0.00037241
0.000394958
0.000418118
0.000441887
0.000466259
0.000491227
0.000516781
0.000542911
0.000569601
0.000596835
0.000624595
0.000652858
0.0006816
0.000710794
-9.39715e-05
-9.43977e-05
-9.39962e-05
-9.33697e-05
-9.23126e-05
-9.08685e-05
-8.90343e-05
-8.68064e-05
-8.41826e-05
-8.11604e-05
-7.77368e-05
-7.39085e-05
-6.96718e-05
-6.50227e-05
-5.99569e-05
-5.44698e-05
-4.85564e-05
-4.22115e-05
-3.54297e-05
-2.82049e-05
-2.0531e-05
-1.24016e-05
-3.80975e-06
5.25149e-06
1.47894e-05
2.48115e-05
3.53254e-05
4.63389e-05
5.78601e-05
6.98969e-05
8.24577e-05
9.5551e-05
0.000109185
0.000123368
0.00013811
0.000153417
0.000169298
0.000185762
0.000202816
0.000220467
0.000238723
0.00025759
0.000277075
0.000297182
0.000317916
0.000339281
0.000361278
0.00038391
0.000407175
0.000431073
0.0004556
0.00048075
0.000506517
0.000532892
0.000559863
0.000587416
0.000615534
0.0006442
0.000673392
0.000703085
-0.000103267
-0.000103701
-0.00010331
-0.000102701
-0.000101665
-0.000100247
-9.84448e-05
-9.62535e-05
-9.36711e-05
-9.06951e-05
-8.73224e-05
-8.35494e-05
-7.93723e-05
-7.47869e-05
-6.97888e-05
-6.43732e-05
-5.85349e-05
-5.22686e-05
-4.55684e-05
-3.84283e-05
-3.08418e-05
-2.2802e-05
-1.43019e-05
-5.33412e-06
4.1091e-06
1.40356e-05
2.44535e-05
3.53711e-05
4.6797e-05
5.87398e-05
7.12085e-05
8.42122e-05
9.77599e-05
0.000111861
0.000126524
0.000141759
0.000157575
0.00017398
0.000190983
0.000208594
0.00022682
0.00024567
0.00026515
0.000285267
0.000306027
0.000327435
0.000349496
0.000372212
0.000395585
0.000419615
0.000444302
0.000469642
0.000495631
0.000522262
0.000549527
0.000577413
0.000605909
0.000634997
0.00066466
0.000694877
-0.000112975
-0.000113418
-0.000113039
-0.000112447
-0.000111434
-0.000110045
-0.000108276
-0.000106124
-0.000103586
-0.000100659
-9.73401e-05
-9.36261e-05
-8.95125e-05
-8.49952e-05
-8.00695e-05
-7.47303e-05
-6.89724e-05
-6.27901e-05
-5.61775e-05
-4.91281e-05
-4.16353e-05
-3.36919e-05
-2.52905e-05
-1.64234e-05
-7.08233e-06
2.74086e-06
1.30548e-05
2.38684e-05
3.51907e-05
4.70311e-05
5.93991e-05
7.23045e-05
8.5757e-05
9.97667e-05
0.000114343
0.000129497
0.000145238
0.000161577
0.000178522
0.000196085
0.000214274
0.000233099
0.000252568
0.00027269
0.000293471
0.00031492
0.000337041
0.00035984
0.00038332
0.000407484
0.000432333
0.000457868
0.000484085
0.000510981
0.00053855
0.000566783
0.000595669
0.000625197
0.000655351
0.000686112
-0.000123093
-0.000123545
-0.000123177
-0.000122605
-0.000121616
-0.000120257
-0.000118524
-0.000116413
-0.000113921
-0.000111047
-0.000107786
-0.000104135
-0.000100089
-9.56439e-05
-9.07953e-05
-8.55377e-05
-7.98657e-05
-7.37733e-05
-6.72543e-05
-6.03022e-05
-5.29099e-05
-4.50699e-05
-3.67745e-05
-2.80156e-05
-1.87847e-05
-9.07297e-06
1.1286e-06
1.18295e-05
2.30393e-05
3.47682e-05
4.70262e-05
5.98238e-05
7.31717e-05
8.70804e-05
0.000101561
0.000116624
0.000132281
0.000148543
0.000165421
0.000182927
0.00020107
0.000219862
0.000239313
0.000259432
0.000280229
0.000301712
0.000323888
0.000346766
0.000370351
0.000394649
0.000419661
0.000445392
0.000471841
0.000499007
0.000526887
0.000555476
0.000584766
0.000614747
0.000645407
0.000676731
-0.000133614
-0.000134075
-0.00013372
-0.000133168
-0.000132205
-0.000130877
-0.000129182
-0.000127115
-0.000124674
-0.000121855
-0.000118655
-0.00011507
-0.000111096
-0.000106729
-0.000101962
-9.67918e-05
-9.12114e-05
-8.5215e-05
-7.87961e-05
-7.19479e-05
-6.46631e-05
-5.6934e-05
-4.87524e-05
-4.01098e-05
-3.09974e-05
-2.1406e-05
-1.13258e-05
-7.46915e-07
1.0341e-05
2.19485e-05
3.40866e-05
4.67663e-05
5.9999e-05
7.37962e-05
8.81697e-05
0.000103132
0.000118694
0.000134869
0.000151669
0.000169107
0.000187195
0.000205944
0.000225367
0.000245475
0.000266278
0.000287788
0.000310013
0.000332965
0.00035665
0.000381077
0.00040625
0.000432177
0.000458858
0.000486297
0.000514493
0.000543443
0.000573144
0.000603589
0.000634769
0.000666672
-0.000144533
-0.000145004
-0.000144663
-0.000144131
-0.000143196
-0.000141902
-0.000140247
-0.000138226
-0.000135837
-0.000133077
-0.000129942
-0.000126429
-0.000122531
-0.000118246
-0.000113567
-0.000108489
-0.000103006
-9.71116e-05
-9.07996e-05
-8.40625e-05
-7.68927e-05
-6.92822e-05
-6.12226e-05
-5.2705e-05
-4.372e-05
-3.4258e-05
-2.43087e-05
-1.38617e-05
-2.90587e-06
8.56991e-06
2.05772e-05
3.3128e-05
4.62342e-05
5.99085e-05
7.41634e-05
8.90121e-05
0.000104468
0.000120544
0.000137255
0.000154614
0.000172634
0.000191329
0.000210712
0.000230797
0.000251597
0.000273124
0.000295389
0.000318406
0.000342184
0.000366734
0.000392064
0.000418182
0.000445093
0.000472804
0.000501316
0.000530632
0.00056075
0.000591666
0.000623376
0.00065587
-0.000155844
-0.000156326
-0.000155998
-0.000155489
-0.000154582
-0.000153324
-0.000151712
-0.00014974
-0.000147407
-0.00014471
-0.000141643
-0.000138204
-0.000134388
-0.000130189
-0.000125603
-0.000120623
-0.000115244
-0.000109459
-0.000103261
-9.66426e-05
-8.95957e-05
-8.21122e-05
-7.41832e-05
-6.57995e-05
-5.69513e-05
-4.76284e-05
-3.78202e-05
-2.75154e-05
-1.67026e-05
-5.36974e-06
6.4953e-06
1.89052e-05
3.18728e-05
4.54116e-05
5.95352e-05
7.42579e-05
8.95941e-05
0.000105559
0.000122166
0.000139432
0.000157371
0.000175999
0.00019533
0.00021538
0.000236163
0.000257695
0.000279989
0.000303061
0.000326922
0.000351585
0.000377063
0.000403366
0.000430502
0.000458481
0.000487308
0.000516988
0.000547524
0.000578916
0.000611162
0.000644257
-0.000167541
-0.000168034
-0.000167722
-0.000167236
-0.000166359
-0.000165139
-0.000163571
-0.000161652
-0.000159378
-0.000156745
-0.000153752
-0.000150392
-0.000146661
-0.000142555
-0.000138067
-0.000133192
-0.000127923
-0.000122254
-0.000116177
-0.000109685
-0.000102769
-9.5421e-05
-8.76316e-05
-7.93913e-05
-7.06898e-05
-6.15164e-05
-5.18599e-05
-4.17085e-05
-3.10501e-05
-1.98722e-05
-8.1618e-06
4.09442e-06
1.69103e-05
3.03002e-05
4.42788e-05
5.88614e-05
7.40638e-05
8.99018e-05
0.000106392
0.00012355
0.000141393
0.000159938
0.000179202
0.000199201
0.000219954
0.000241476
0.000263785
0.000286898
0.000310829
0.000335595
0.000361209
0.000387686
0.000415038
0.000443277
0.000472413
0.000502454
0.000533406
0.000565274
0.00059806
0.000631762
-0.000179618
-0.000180122
-0.000179826
-0.000179365
-0.00017852
-0.000177339
-0.000175819
-0.000173954
-0.000171742
-0.000169179
-0.000166262
-0.000162986
-0.000159346
-0.000155337
-0.000150953
-0.000146189
-0.000141037
-0.000135491
-0.000129543
-0.000123185
-0.000116409
-0.000109205
-0.000101565
-9.34782e-05
-8.49338e-05
-7.59206e-05
-6.64271e-05
-5.64408e-05
-4.59491e-05
-3.49388e-05
-2.33963e-05
-1.13074e-05
1.34266e-06
1.45691e-05
2.83878e-05
4.28152e-05
5.7868e-05
7.35636e-05
8.99194e-05
0.000106953
0.000124684
0.000143129
0.000162308
0.000182241
0.000202945
0.000224442
0.000246749
0.000269886
0.000293872
0.000318724
0.000344461
0.000371099
0.000398654
0.000427142
0.000456577
0.000486971
0.000518333
0.000550673
0.000583997
0.000618306
-0.000192068
-0.000192583
-0.000192304
-0.000191869
-0.000191058
-0.000189919
-0.000188448
-0.00018664
-0.000184494
-0.000182004
-0.000179167
-0.000175979
-0.000172435
-0.000168529
-0.000164256
-0.000159609
-0.000154581
-0.000149165
-0.000143354
-0.000137139
-0.000130511
-0.000123462
-0.000115981
-0.000108057
-9.96807e-05
-9.08392e-05
-8.15205e-05
-7.17118e-05
-6.13997e-05
-5.05706e-05
-3.92101e-05
-2.7303e-05
-1.48338e-05
-1.78629e-06
1.18565e-05
2.61121e-05
4.09985e-05
5.6534e-05
7.27378e-05
8.96291e-05
0.000107228
0.000125555
0.000144631
0.000164477
0.000185114
0.000206565
0.000228851
0.000251994
0.000276015
0.000300935
0.000326776
0.000353558
0.0003813
0.000410023
0.000439743
0.000470478
0.00050224
0.000535044
0.000568899
0.000603813
-0.000204884
-0.000205411
-0.000205149
-0.000204741
-0.000203965
-0.00020287
-0.000201451
-0.000199704
-0.000197626
-0.000195213
-0.000192461
-0.000189366
-0.000185923
-0.000182126
-0.000177969
-0.000173445
-0.000168548
-0.000163271
-0.000157605
-0.000151541
-0.000145071
-0.000138186
-0.000130874
-0.000123125
-0.000114928
-0.00010627
-9.71384e-05
-8.75203e-05
-7.74017e-05
-6.67681e-05
-5.56043e-05
-4.38946e-05
-3.16224e-05
-1.87704e-05
-5.32062e-06
8.74538e-06
2.34468e-05
3.88034e-05
5.48356e-05
7.15643e-05
8.90113e-05
0.000107199
0.00012615
0.000145888
0.000166437
0.00018782
0.000210063
0.000233189
0.000257223
0.000282189
0.000308113
0.000335018
0.000362927
0.000391865
0.000421853
0.000452911
0.000485059
0.000518314
0.000552691
0.000588203
-0.000218057
-0.000218597
-0.000218353
-0.000217974
-0.000217235
-0.000216185
-0.000214821
-0.000213137
-0.000211131
-0.000208799
-0.000206137
-0.000203139
-0.000199802
-0.000196119
-0.000192085
-0.000187692
-0.000182934
-0.000177803
-0.00017229
-0.000166387
-0.000160084
-0.000153373
-0.000146241
-0.000138678
-0.000130671
-0.000122209
-0.000113278
-0.000103865
-9.39541e-05
-8.35311e-05
-7.25799e-05
-6.10839e-05
-4.90256e-05
-3.63868e-05
-2.31485e-05
-9.29121e-06
5.2055e-06
2.03627e-05
3.62021e-05
5.27464e-05
7.00191e-05
8.80445e-05
0.000106847
0.000126454
0.000146889
0.00016818
0.000190354
0.000213438
0.00023746
0.000262447
0.000288428
0.000315431
0.000343483
0.000372613
0.000402845
0.000434206
0.00046672
0.000500408
0.000535292
0.000571389
-0.000231581
-0.000232134
-0.000231908
-0.00023156
-0.000230859
-0.000229857
-0.00022855
-0.000226933
-0.000225002
-0.000222754
-0.000220186
-0.000217291
-0.000214066
-0.000210503
-0.000206598
-0.000202343
-0.000197731
-0.000192754
-0.000187403
-0.00018167
-0.000175545
-0.000169017
-0.000162076
-0.00015471
-0.000146908
-0.000138655
-0.000129938
-0.000120743
-0.000111055
-0.000100859
-9.01367e-05
-7.88717e-05
-6.70454e-05
-5.46386e-05
-4.16315e-05
-2.80033e-05
-1.37325e-05
1.20314e-06
1.6827e-05
3.31635e-05
5.02377e-05
6.80759e-05
8.67052e-05
0.000106153
0.000126448
0.000147619
0.000169696
0.000192709
0.000216689
0.000241668
0.000267677
0.00029475
0.000322916
0.000352209
0.000382659
0.000414297
0.000447151
0.00048125
0.000516619
0.000553283
-0.000245446
-0.000246012
-0.000245807
-0.000245489
-0.000244829
-0.000243877
-0.00024263
-0.000241082
-0.00023923
-0.000237071
-0.000234601
-0.000231814
-0.000228706
-0.00022527
-0.0002215
-0.00021739
-0.000212932
-0.000208117
-0.000202937
-0.000197383
-0.000191446
-0.000185113
-0.000178375
-0.000171218
-0.000163632
-0.000155601
-0.000147113
-0.000138152
-0.000128703
-0.00011875
-0.000108274
-9.72582e-05
-8.56829e-05
-7.35281e-05
-6.07729e-05
-4.73955e-05
-3.33734e-05
-1.86828e-05
-3.2989e-06
1.28043e-05
2.96539e-05
4.72779e-05
6.57053e-05
8.49658e-05
0.00010509
0.00012611
0.000148059
0.000170969
0.000194875
0.000219813
0.000245818
0.000272926
0.000301174
0.000330597
0.000361231
0.000393113
0.000426277
0.000460757
0.000496585
0.000533791
-0.000259645
-0.000260224
-0.000260039
-0.000259754
-0.000259135
-0.000258236
-0.000257051
-0.000255575
-0.000253806
-0.00025174
-0.000249373
-0.000246699
-0.000243714
-0.000240411
-0.000236784
-0.000232826
-0.000228529
-0.000223885
-0.000218886
-0.000213521
-0.000207781
-0.000201654
-0.00019513
-0.000188195
-0.000180838
-0.000173044
-0.000164799
-0.000156088
-0.000146894
-0.000137201
-0.00012699
-0.000116243
-0.000104938
-9.30565e-05
-8.05753e-05
-6.74719e-05
-5.37225e-05
-3.93021e-05
-2.41841e-05
-8.3412e-06
8.25553e-06
2.56359e-05
4.38309e-05
6.28726e-05
8.2794e-05
0.00010363
0.000125415
0.000148187
0.000171984
0.000196843
0.000222806
0.000249912
0.000278202
0.000307717
0.000338498
0.000370587
0.000404024
0.000438849
0.000475102
0.000512819
-0.000274166
-0.00027476
-0.000274597
-0.000274345
-0.00027377
-0.000272925
-0.000271805
-0.000270405
-0.000268722
-0.000266753
-0.000264493
-0.000261938
-0.000259081
-0.000255917
-0.000252439
-0.000248641
-0.000244514
-0.00024005
-0.00023524
-0.000230074
-0.000224542
-0.000218633
-0.000212335
-0.000205635
-0.000198521
-0.000190978
-0.000182992
-0.000174547
-0.000165625
-0.00015621
-0.000146283
-0.000135824
-0.000124811
-0.000113224
-0.00010104
-8.82352e-05
-7.4784e-05
-6.06602e-05
-4.5836e-05
-3.02823e-05
-1.39687e-05
3.13653e-06
2.10663e-05
3.98549e-05
5.95378e-05
8.01524e-05
0.000101737
0.000124332
0.000147979
0.000172719
0.000198598
0.000225659
0.000253948
0.00028351
0.000314394
0.000346646
0.000380313
0.000415441
0.000452078
0.000490266
-0.000289002
-0.000289611
-0.000289469
-0.000289252
-0.000288722
-0.000287933
-0.000286881
-0.00028556
-0.000283968
-0.0002821
-0.000279953
-0.00027752
-0.000274798
-0.00027178
-0.000268458
-0.000264827
-0.000260878
-0.000256602
-0.000251991
-0.000247034
-0.000241722
-0.000236042
-0.000229982
-0.000223531
-0.000216673
-0.000209397
-0.000201685
-0.000193522
-0.000184891
-0.000175773
-0.000166149
-0.000155998
-0.0001453
-0.000134031
-0.000122168
-0.000109687
-9.65608e-05
-8.27617e-05
-6.82607e-05
-5.3027e-05
-3.70287e-05
-2.02324e-05
-2.60312e-06
1.58956e-05
3.53019e-05
5.56558e-05
7.69989e-05
9.93744e-05
0.000122827
0.000147404
0.000173151
0.000200119
0.000228358
0.000257919
0.000288855
0.000321219
0.000355065
0.000390447
0.000427418
0.000466031
-0.000304141
-0.000304765
-0.000304646
-0.000304465
-0.000303982
-0.000303252
-0.000302271
-0.000301032
-0.000299534
-0.000297771
-0.000295741
-0.000293437
-0.000290855
-0.000287989
-0.000284831
-0.000281375
-0.000277611
-0.000273533
-0.000269131
-0.000264393
-0.000259311
-0.000253871
-0.000248063
-0.000241873
-0.000235288
-0.000228293
-0.000220872
-0.000213008
-0.000204685
-0.000195883
-0.000186583
-0.000176763
-0.000166401
-0.000155474
-0.000143959
-0.000131828
-0.000119054
-0.00010561
-9.14627e-05
-7.65817e-05
-6.0933e-05
-4.44815e-05
-2.71903e-05
-9.02068e-06
1.00681e-05
3.01187e-05
5.11757e-05
7.32855e-05
9.64965e-05
0.000120859
0.000146424
0.000173246
0.00020138
0.000230884
0.000261815
0.000294235
0.000328202
0.000363779
0.000401028
0.000440008
-0.000319573
-0.000320212
-0.000320117
-0.000319974
-0.00031954
-0.000318871
-0.000317963
-0.000316809
-0.000315408
-0.000313756
-0.000311848
-0.000309678
-0.000307243
-0.000304534
-0.000301547
-0.000298273
-0.000294704
-0.000290833
-0.000286648
-0.000282141
-0.0002773
-0.000272113
-0.000266569
-0.000260655
-0.000254356
-0.000247657
-0.000240544
-0.000232998
-0.000225001
-0.000216535
-0.000207579
-0.000198112
-0.00018811
-0.000177551
-0.000166409
-0.000154656
-0.000142265
-0.000129206
-0.000115445
-0.000100951
-8.56884e-05
-6.96197e-05
-5.27064e-05
-3.49076e-05
-1.61801e-05
3.52147e-06
2.42446e-05
4.60388e-05
6.89558e-05
9.30496e-05
0.000118376
0.000144994
0.000172964