/*--------------------------------*- C++ -*----------------------------------*\
  =========                 |
  \\      /  F ield         | OpenFOAM: The Open Source CFD Toolbox
   \\    /   O peration     | Website:  https://openfoam.org
    \\  /    A nd           | Version:  8
     \\/     M anipulation  |
\*---------------------------------------------------------------------------*/
FoamFile
{
    version     2.0;
    format      ascii;
    class       volVectorField;
    location    "0.25";
    object      U;
}
// * * * * * * * * * * * * * * * * * * * * * * * * * * * * * * * * * * * * * //

dimensions      [0 1 -1 0 0 0 0];

internalField   nonuniform List<vector> 
400
(
(0.0202269 1.64571e-07 0)
(0.0202266 2.12451e-07 0)
(0.0202263 2.09936e-07 0)
(0.020226 1.65175e-07 0)
(0.0202257 1.19047e-07 0)
(0.0202255 7.97182e-08 0)
(0.0202254 5.25769e-08 0)
(0.0202253 3.38364e-08 0)
(0.0202252 1.62154e-08 0)
(0.0202252 -4.23055e-09 0)
(0.0202252 -2.59514e-08 0)
(0.0202253 -4.64202e-08 0)
(0.0202254 -6.61682e-08 0)
(0.0202255 -8.71941e-08 0)
(0.0202258 -1.09035e-07 0)
(0.020226 -1.25808e-07 0)
(0.0202263 -1.272e-07 0)
(0.0202266 -1.02417e-07 0)
(0.0202269 -3.12734e-08 0)
(0.0202269 6.79976e-08 0)
(0.0607958 2.73984e-07 0)
(0.0607956 4.73108e-07 0)
(0.0607953 5.39017e-07 0)
(0.0607949 4.83735e-07 0)
(0.0607945 4.00118e-07 0)
(0.0607941 3.15833e-07 0)
(0.0607938 2.41633e-07 0)
(0.0607936 1.72968e-07 0)
(0.0607934 1.0228e-07 0)
(0.0607933 2.57532e-08 0)
(0.0607932 -5.58618e-08 0)
(0.0607933 -1.41348e-07 0)
(0.0607934 -2.31666e-07 0)
(0.0607936 -3.26844e-07 0)
(0.0607939 -4.2046e-07 0)
(0.0607943 -4.96371e-07 0)
(0.0607947 -5.33056e-07 0)
(0.0607952 -4.89575e-07 0)
(0.0607955 -3.17417e-07 0)
(0.0607958 -4.15809e-08 0)
(0.101711 2.54352e-07 0)
(0.101711 6.61156e-07 0)
(0.101711 8.35827e-07 0)
(0.101711 8.49704e-07 0)
(0.10171 7.76068e-07 0)
(0.10171 6.71052e-07 0)
(0.10171 5.5586e-07 0)
(0.101709 4.33122e-07 0)
(0.101709 2.99347e-07 0)
(0.101709 1.52913e-07 0)
(0.101709 -5.06798e-09 0)
(0.101709 -1.73664e-07 0)
(0.101709 -3.52795e-07 0)
(0.101709 -5.39183e-07 0)
(0.101709 -7.2006e-07 0)
(0.101709 -8.70318e-07 0)
(0.10171 -9.55468e-07 0)
(0.10171 -9.17555e-07 0)
(0.10171 -6.84326e-07 0)
(0.101711 -2.45182e-07 0)
(0.143195 1.01795e-07 0)
(0.143195 6.28254e-07 0)
(0.143195 9.37174e-07 0)
(0.143195 1.04459e-06 0)
(0.143195 1.03098e-06 0)
(0.143195 9.51949e-07 0)
(0.143195 8.31865e-07 0)
(0.143194 6.81845e-07 0)
(0.143194 5.08564e-07 0)
(0.143194 3.1544e-07 0)
(0.143194 1.0356e-07 0)
(0.143194 -1.267e-07 0)
(0.143194 -3.73535e-07 0)
(0.143194 -6.29768e-07 0)
(0.143194 -8.77848e-07 0)
(0.143194 -1.09119e-06 0)
(0.143194 -1.22533e-06 0)
(0.143194 -1.22078e-06 0)
(0.143195 -9.89212e-07 0)
(0.143195 -5.05538e-07 0)
(0.185457 -1.05899e-07 0)
(0.185457 4.7604e-07 0)
(0.185457 8.6752e-07 0)
(0.185457 1.06211e-06 0)
(0.185457 1.11903e-06 0)
(0.185457 1.08383e-06 0)
(0.185457 9.84536e-07 0)
(0.185457 8.39624e-07 0)
(0.185457 6.60158e-07 0)
(0.185457 4.51341e-07 0)
(0.185457 2.15789e-07 0)
(0.185457 -4.43467e-08 0)
(0.185457 -3.25775e-07 0)
(0.185457 -6.19948e-07 0)
(0.185457 -9.07553e-07 0)
(0.185457 -1.16133e-06 0)
(0.185457 -1.33813e-06 0)
(0.185457 -1.37198e-06 0)
(0.185457 -1.18135e-06 0)
(0.185457 -7.25064e-07 0)
(0.228687 -2.75274e-07 0)
(0.228687 2.83889e-07 0)
(0.228687 7.02572e-07 0)
(0.228687 9.45687e-07 0)
(0.228687 1.05368e-06 0)
(0.228688 1.06335e-06 0)
(0.228688 1.0006e-06 0)
(0.228688 8.84218e-07 0)
(0.228688 7.26118e-07 0)
(0.228688 5.32643e-07 0)
(0.228688 3.07606e-07 0)
(0.228687 5.39707e-08 0)
(0.228687 -2.24542e-07 0)
(0.228687 -5.19495e-07 0)
(0.228687 -8.13607e-07 0)
(0.228687 -1.07896e-06 0)
(0.228687 -1.27777e-06 0)
(0.228687 -1.34966e-06 0)
(0.228687 -1.21784e-06 0)
(0.228687 -8.37601e-07 0)
(0.273051 -3.85284e-07 0)
(0.273051 9.22998e-08 0)
(0.273051 4.75688e-07 0)
(0.273052 7.23771e-07 0)
(0.273052 8.57236e-07 0)
(0.273052 9.03157e-07 0)
(0.273052 8.81407e-07 0)
(0.273052 8.07382e-07 0)
(0.273053 6.91349e-07 0)
(0.273053 5.39296e-07 0)
(0.273053 3.5513e-07 0)
(0.273053 1.41581e-07 0)
(0.273052 -9.81682e-08 0)
(0.273052 -3.56653e-07 0)
(0.273052 -6.20989e-07 0)
(0.273052 -8.69254e-07 0)
(0.273052 -1.06831e-06 0)
(0.273051 -1.16943e-06 0)
(0.273051 -1.10667e-06 0)
(0.273051 -8.33047e-07 0)
(0.318689 -4.2311e-07 0)
(0.318689 -7.6135e-08 0)
(0.318689 2.21089e-07 0)
(0.31869 4.34217e-07 0)
(0.31869 5.66693e-07 0)
(0.31869 6.35024e-07 0)
(0.318691 6.51259e-07 0)
(0.318691 6.25388e-07 0)
(0.318691 5.6434e-07 0)
(0.318691 4.72408e-07 0)
(0.318691 3.52476e-07 0)
(0.318691 2.06034e-07 0)
(0.318691 3.44372e-08 0)
(0.318691 -1.57582e-07 0)
(0.318691 -3.61589e-07 0)
(0.318691 -5.64063e-07 0)
(0.31869 -7.41455e-07 0)
(0.31869 -8.59132e-07 0)
(0.318689 -8.67753e-07 0)
(0.318689 -7.18814e-07 0)
(0.36571 -3.93142e-07 0)
(0.36571 -2.09847e-07 0)
(0.36571 -3.25488e-08 0)
(0.36571 1.13741e-07 0)
(0.365711 2.20995e-07 0)
(0.365711 2.95567e-07 0)
(0.365711 3.41649e-07 0)
(0.365712 3.631e-07 0)
(0.365712 3.62448e-07 0)
(0.365712 3.41054e-07 0)
(0.365712 2.99603e-07 0)
(0.365712 2.3767e-07 0)
(0.365712 1.54479e-07 0)
(0.365712 5.08731e-08 0)
(0.365712 -7.06943e-08 0)
(0.365711 -2.0521e-07 0)
(0.365711 -3.40707e-07 0)
(0.365711 -4.58631e-07 0)
(0.36571 -5.319e-07 0)
(0.36571 -5.14552e-07 0)
(0.414188 -3.04176e-07 0)
(0.414188 -3.01108e-07 0)
(0.414188 -2.62864e-07 0)
(0.414188 -2.06525e-07 0)
(0.414188 -1.4514e-07 0)
(0.414189 -8.09476e-08 0)
(0.414189 -1.66499e-08 0)
(0.41419 4.56765e-08 0)
(0.41419 1.03847e-07 0)
(0.41419 1.55577e-07 0)
(0.41419 1.98438e-07 0)
(0.41419 2.29355e-07 0)
(0.41419 2.45267e-07 0)
(0.41419 2.43392e-07 0)
(0.41419 2.19739e-07 0)
(0.41419 1.70172e-07 0)
(0.414189 9.38077e-08 0)
(0.414189 -8.38651e-09 0)
(0.414188 -1.33178e-07 0)
(0.414188 -2.44912e-07 0)
(0.464162 -1.64638e-07 0)
(0.464162 -3.42513e-07 0)
(0.464162 -4.50366e-07 0)
(0.464162 -4.96933e-07 0)
(0.464163 -4.95786e-07 0)
(0.464163 -4.5582e-07 0)
(0.464164 -3.85444e-07 0)
(0.464164 -2.92052e-07 0)
(0.464164 -1.82296e-07 0)
(0.464164 -6.21497e-08 0)
(0.464165 6.26095e-08 0)
(0.464165 1.85909e-07 0)
(0.464165 3.02098e-07 0)
(0.464165 4.05034e-07 0)
(0.464164 4.84861e-07 0)
(0.464164 5.28588e-07 0)
(0.464164 5.22621e-07 0)
(0.464163 4.50111e-07 0)
(0.464163 2.91879e-07 0)
(0.464162 6.63886e-08 0)
(0.515636 1.06398e-08 0)
(0.515636 -3.33814e-07 0)
(0.515636 -5.82606e-07 0)
(0.515636 -7.33103e-07 0)
(0.515636 -7.97636e-07 0)
(0.515636 -7.90131e-07 0)
(0.515637 -7.23671e-07 0)
(0.515637 -6.10231e-07 0)
(0.515637 -4.60377e-07 0)
(0.515638 -2.83343e-07 0)
(0.515638 -8.79108e-08 0)
(0.515638 1.17124e-07 0)
(0.515638 3.2371e-07 0)
(0.515638 5.22915e-07 0)
(0.515638 7.0043e-07 0)
(0.515638 8.36078e-07 0)
(0.515637 9.0521e-07 0)
(0.515637 8.74249e-07 0)
(0.515636 7.03655e-07 0)
(0.515636 3.91041e-07 0)
(0.568574 1.9676e-07 0)
(0.568574 -2.86785e-07 0)
(0.568574 -6.58239e-07 0)
(0.568574 -9.01357e-07 0)
(0.568574 -1.02732e-06 0)
(0.568574 -1.05391e-06 0)
(0.568575 -9.97967e-07 0)
(0.568575 -8.75175e-07 0)
(0.568575 -6.99223e-07 0)
(0.568575 -4.81839e-07 0)
(0.568575 -2.34029e-07 0)
(0.568575 3.34725e-08 0)
(0.568576 3.10995e-07 0)
(0.568576 5.87902e-07 0)
(0.568575 8.47323e-07 0)
(0.568575 1.06442e-06 0)
(0.568575 1.20621e-06 0)
(0.568575 1.22469e-06 0)
(0.568575 1.06194e-06 0)
(0.568574 6.93599e-07 0)
(0.622906 3.63801e-07 0)
(0.622906 -2.20296e-07 0)
(0.622906 -6.83004e-07 0)
(0.622906 -9.95847e-07 0)
(0.622906 -1.1698e-06 0)
(0.622906 -1.22553e-06 0)
(0.622906 -1.18267e-06 0)
(0.622906 -1.05956e-06 0)
(0.622906 -8.72065e-07 0)
(0.622906 -6.33436e-07 0)
(0.622907 -3.55899e-07 0)
(0.622907 -5.10441e-08 0)
(0.622907 2.70983e-07 0)
(0.622907 5.99253e-07 0)
(0.622907 9.16398e-07 0)
(0.622907 1.19573e-06 0)
(0.622907 1.39923e-06 0)
(0.622906 1.46824e-06 0)
(0.622906 1.32899e-06 0)
(0.622906 9.36434e-07 0)
(0.678526 4.82874e-07 0)
(0.678526 -1.52825e-07 0)
(0.678526 -6.63997e-07 0)
(0.678526 -1.013e-06 0)
(0.678526 -1.21309e-06 0)
(0.678526 -1.28708e-06 0)
(0.678526 -1.25634e-06 0)
(0.678526 -1.14036e-06 0)
(0.678526 -9.55884e-07 0)
(0.678526 -7.16617e-07 0)
(0.678526 -4.34842e-07 0)
(0.678526 -1.21747e-07 0)
(0.678526 2.13357e-07 0)
(0.678526 5.60729e-07 0)
(0.678526 9.04419e-07 0)
(0.678526 1.21856e-06 0)
(0.678526 1.46382e-06 0)
(0.678526 1.57644e-06 0)
(0.678526 1.4711e-06 0)
(0.678526 1.08486e-06 0)
(0.735296 5.32595e-07 0)
(0.735296 -9.66463e-08 0)
(0.735296 -6.05882e-07 0)
(0.735296 -9.5026e-07 0)
(0.735296 -1.1485e-06 0)
(0.735296 -1.22563e-06 0)
(0.735295 -1.20345e-06 0)
(0.735295 -1.1011e-06 0)
(0.735295 -9.34364e-07 0)
(0.735295 -7.1587e-07 0)
(0.735295 -4.56612e-07 0)
(0.735295 -1.66144e-07 0)
(0.735295 1.48194e-07 0)
(0.735295 4.79006e-07 0)
(0.735295 8.13165e-07 0)
(0.735296 1.12795e-06 0)
(0.735296 1.38705e-06 0)
(0.735296 1.52906e-06 0)
(0.735296 1.46316e-06 0)
(0.735296 1.11203e-06 0)
(0.79305 4.99599e-07 0)
(0.79305 -5.63672e-08 0)
(0.79305 -5.07746e-07 0)
(0.79305 -8.04324e-07 0)
(0.793049 -9.7144e-07 0)
(0.793049 -1.03609e-06 0)
(0.793049 -1.01861e-06 0)
(0.793049 -9.3604e-07 0)
(0.793048 -8.01332e-07 0)
(0.793048 -6.2413e-07 0)
(0.793048 -4.12489e-07 0)
(0.793048 -1.73437e-07 0)
(0.793048 8.75845e-08 0)
(0.793048 3.65309e-07 0)
(0.793048 6.50865e-07 0)
(0.793049 9.28491e-07 0)
(0.793049 1.16961e-06 0)
(0.793049 1.32053e-06 0)
(0.793049 1.29069e-06 0)
(0.79305 1.00679e-06 0)
(0.851595 3.84514e-07 0)
(0.851596 -3.54482e-08 0)
(0.851595 -3.72343e-07 0)
(0.851595 -5.82463e-07 0)
(0.851595 -6.94602e-07 0)
(0.851595 -7.35486e-07 0)
(0.851594 -7.2181e-07 0)
(0.851594 -6.65824e-07 0)
(0.851594 -5.74815e-07 0)
(0.851593 -4.53468e-07 0)
(0.851593 -3.07345e-07 0)
(0.851593 -1.42923e-07 0)
(0.851593 3.64117e-08 0)
(0.851593 2.30643e-07 0)
(0.851593 4.3603e-07 0)
(0.851594 6.4103e-07 0)
(0.851594 8.28468e-07 0)
(0.851594 9.63054e-07 0)
(0.851595 9.65418e-07 0)
(0.851595 7.6855e-07 0)
(0.910721 2.15633e-07 0)
(0.910722 -2.23438e-08 0)
(0.910721 -2.00198e-07 0)
(0.910721 -3.03568e-07 0)
(0.910721 -3.52522e-07 0)
(0.910721 -3.67691e-07 0)
(0.91072 -3.59412e-07 0)
(0.91072 -3.33738e-07 0)
(0.91072 -2.91999e-07 0)
(0.910719 -2.33849e-07 0)
(0.910719 -1.6198e-07 0)
(0.910719 -8.18698e-08 0)
(0.910719 4.15812e-09 0)
(0.910719 9.84501e-08 0)
(0.910719 2.01576e-07 0)
(0.910719 3.09803e-07 0)
(0.91072 4.16662e-07 0)
(0.91072 5.01893e-07 0)
(0.910721 5.22629e-07 0)
(0.910721 4.21575e-07 0)
(0.970201 5.52453e-08 0)
(0.970201 -1.25145e-08 0)
(0.970201 -5.74791e-08 0)
(0.970201 -7.9514e-08 0)
(0.970201 -8.66168e-08 0)
(0.970201 -8.70091e-08 0)
(0.9702 -8.42912e-08 0)
(0.9702 -7.94383e-08 0)
(0.9702 -7.0694e-08 0)
(0.9702 -5.62492e-08 0)
(0.9702 -3.78306e-08 0)
(0.9702 -1.95252e-08 0)
(0.9702 -1.81867e-09 0)
(0.9702 1.93999e-08 0)
(0.9702 4.55828e-08 0)
(0.9702 7.39824e-08 0)
(0.9702 1.0419e-07 0)
(0.9702 1.32843e-07 0)
(0.970201 1.44604e-07 0)
(0.970201 1.17113e-07 0)
)
;

boundaryField
{
    movingWall
    {
        type            fixedValue;
        value           uniform (1 0 0);
    }
    fixedWalls
    {
        type            noSlip;
    }
    left
    {
        type            cyclic;
    }
    right
    {
        type            cyclic;
    }
    frontAndBack
    {
        type            empty;
    }
}


// ************************************************************************* //
