/*--------------------------------*- C++ -*----------------------------------*\
  =========                 |
  \\      /  F ield         | OpenFOAM: The Open Source CFD Toolbox
   \\    /   O peration     | Website:  https://openfoam.org
    \\  /    A nd           | Version:  8
     \\/     M anipulation  |
\*---------------------------------------------------------------------------*/
FoamFile
{
    version     2.0;
    format      ascii;
    class       volScalarField;
    location    "0.244";
    object      T;
}
// * * * * * * * * * * * * * * * * * * * * * * * * * * * * * * * * * * * * * //

dimensions      [0 0 0 1 0 0 0];

internalField   nonuniform List<scalar> 
10000
(
49.9999
4.66157
-4.65989
-1.20206
1.19423
0.486985
-0.464322
-0.272385
0.223105
0.196031
-0.108392
-0.162836
0.0312858
0.135495
0.0306654
-0.0952495
-0.0743292
0.0374119
0.085756
0.025008
-0.0557229
-0.0635173
-0.00253954
0.0527944
0.0487131
-0.000774926
-0.0428145
-0.0421192
-0.00691902
0.0285583
0.0375276
0.0187789
-0.00932595
-0.0267966
-0.0254558
-0.0104762
0.0067752
0.0170662
0.0174872
0.0107336
0.00180101
-0.00515199
-0.00828996
-0.0079323
-0.00553412
-0.00264806
-0.000316755
0.00105867
0.00155213
0.00145913
0.0010943
0.000686202
0.000355029
0.000136176
1.68322e-05
-3.34698e-05
-4.45382e-05
-3.8019e-05
-2.6623e-05
-1.62925e-05
-8.89153e-06
-4.32246e-06
-1.82565e-06
-6.16757e-07
-1.11106e-07
5.61752e-08
8.36872e-08
6.6165e-08
4.21324e-08
2.36007e-08
1.20041e-08
5.6105e-09
2.41122e-09
9.42886e-10
3.25476e-10
9.09513e-11
1.3591e-11
-6.00593e-12
-7.56564e-12
-5.1459e-12
-2.84719e-12
-1.39904e-12
-6.30666e-13
-2.64438e-13
-1.036e-13
-3.78284e-14
-1.2732e-14
-3.84418e-15
-9.69478e-16
-1.53198e-16
2.77599e-17
4.21753e-17
2.67107e-17
1.3409e-17
5.95175e-18
2.42752e-18
9.25353e-19
3.31504e-19
1.13915e-19
2.96236e-20
95.3387
49.9993
10.5226
-4.65446
-2.88184
1.17549
1.22257
-0.420593
-0.691927
0.142206
0.470593
0.0167127
-0.336784
-0.131409
0.210271
0.202817
-0.0679222
-0.207206
-0.070237
0.129475
0.151808
0.00310559
-0.128416
-0.110477
0.0137194
0.108132
0.0920447
-0.00113307
-0.0801493
-0.0850331
-0.0261769
0.0418029
0.0709949
0.0509802
0.00483101
-0.0350954
-0.0490185
-0.036745
-0.0112539
0.0124005
0.0250542
0.0254232
0.0176179
0.0072792
-0.00129157
-0.00619021
-0.00754232
-0.00653435
-0.00451707
-0.00248879
-0.000957831
-3.80803e-05
0.000378441
0.000471856
0.000404526
0.000286593
0.000176358
9.52607e-05
4.4365e-05
1.65572e-05
3.49951e-06
-1.42796e-06
-2.51957e-06
-2.15632e-06
-1.46293e-06
-8.6575e-07
-4.61976e-07
-2.24833e-07
-9.96289e-08
-3.95339e-08
-1.33901e-08
-3.28893e-09
-2.39417e-11
6.79011e-10
5.99441e-10
3.81234e-10
2.07689e-10
1.02135e-10
4.63093e-11
1.95168e-11
7.64396e-12
2.75793e-12
8.95457e-13
2.46219e-13
4.59155e-14
-3.95211e-15
-1.02554e-14
-7.18415e-15
-3.85766e-15
-1.81173e-15
-7.77606e-16
-3.10781e-16
-1.16578e-16
-4.11e-17
-1.35547e-17
-4.12702e-18
-1.12419e-18
-2.53716e-19
-3.03516e-20
6.79339e-21
104.661
89.4776
49.9983
12.2021
-4.64333
-3.61829
1.14231
1.64626
-0.351842
-0.976218
0.0277099
0.661022
0.175408
-0.432713
-0.311556
0.201626
0.357206
0.0345699
-0.278326
-0.213329
0.0864351
0.247964
0.123037
-0.110704
-0.2037
-0.0919835
0.0873317
0.166373
0.0975379
-0.0373821
-0.124207
-0.110333
-0.0257571
0.0602942
0.0955403
0.0718726
0.0164794
-0.0346333
-0.0586708
-0.0529762
-0.0290765
-0.00213947
0.0170287
0.0247203
0.0228555
0.0158456
0.00788891
0.00160298
-0.00211211
-0.00353574
-0.00345396
-0.00266311
-0.00173008
-0.000952757
-0.000424235
-0.000122193
1.88961e-05
6.50899e-05
6.53784e-05
4.94049e-05
3.18776e-05
1.8277e-05
9.42335e-06
4.34419e-06
1.73829e-06
5.4907e-07
8.16861e-08
-6.03317e-08
-7.71635e-08
-5.77129e-08
-3.53397e-08
-1.91643e-08
-9.47577e-09
-4.31975e-09
-1.81703e-09
-6.98583e-10
-2.3897e-10
-6.75445e-11
-1.15533e-11
2.84135e-12
4.38978e-12
3.04884e-12
1.68525e-12
8.22206e-13
3.6734e-13
1.52671e-13
5.93742e-14
2.15865e-14
7.27562e-15
2.22595e-15
5.86709e-16
1.11937e-16
-9.56226e-19
-1.60825e-17
-1.13375e-17
-5.87989e-18
-2.64378e-18
-1.0807e-18
-4.22338e-19
-1.22982e-19
101.201
104.657
87.7979
49.9967
12.9397
-4.62464
-4.04686
1.09151
1.94275
-0.255028
-1.18889
-0.120353
0.788308
0.360593
-0.456692
-0.492297
0.117596
0.470593
0.189528
-0.271606
-0.35271
-0.0327332
0.276732
0.259984
-0.00990556
-0.233241
-0.215299
-0.0144731
0.169448
0.194054
0.071217
-0.0821782
-0.156021
-0.120061
-0.0205594
0.0710414
0.107808
0.0856378
0.0311733
-0.0222511
-0.0529906
-0.0566102
-0.0411654
-0.0188638
0.000489509
0.0121796
0.0160447
0.0144582
0.010342
0.00595627
0.0025211
0.000376519
-0.000657719
-0.000952067
-0.000859479
-0.000628745
-0.000397476
-0.000220927
-0.000106899
-4.27665e-05
-1.15045e-05
1.09562e-06
4.55945e-06
4.3309e-06
3.07814e-06
1.87745e-06
1.02661e-06
5.11459e-07
2.32643e-07
9.55583e-08
3.42624e-08
9.67684e-09
1.19401e-09
-1.00184e-09
-1.12482e-09
-7.70482e-10
-4.36871e-10
-2.20911e-10
-1.02493e-10
-4.41419e-11
-1.76932e-11
-6.56534e-12
-2.21814e-12
-6.54611e-13
-1.48756e-13
-1.0175e-14
1.55922e-14
1.34185e-14
7.74428e-15
3.78613e-15
1.6713e-15
6.83394e-16
2.61781e-16
9.42897e-17
3.18646e-17
1.00116e-17
2.86027e-18
7.07414e-19
1.22112e-19
4.78173e-22
98.8042
102.882
104.649
87.0599
49.9947
13.3716
-4.59659
-4.35431
1.02023
2.17867
-0.128089
-1.35359
-0.299906
0.858422
0.562281
-0.411192
-0.655017
-0.030279
0.523137
0.368559
-0.182903
-0.450575
-0.20089
0.218688
0.364721
0.146998
-0.172629
-0.298333
-0.161123
0.0815097
0.226801
0.190237
0.0339321
-0.116489
-0.17159
-0.122481
-0.0211325
0.0681167
0.10677
0.0926256
0.0478042
-0.000401138
-0.0333786
-0.0454372
-0.0407093
-0.0273814
-0.0129309
-0.00184331
0.0044883
0.00672059
0.00633777
0.00478078
0.00304637
0.00163963
0.000702425
0.000178267
-5.87556e-05
-0.000130023
-0.000123382
-9.08774e-05
-5.7656e-05
-3.25985e-05
-1.65747e-05
-7.51389e-06
-2.93105e-06
-8.75409e-07
-8.87348e-08
1.36037e-07
1.50602e-07
1.08305e-07
6.49909e-08
3.47634e-08
1.69985e-08
7.66898e-09
3.1901e-09
1.2096e-09
4.05238e-10
1.09775e-10
1.56215e-11
-7.22177e-12
-8.69628e-12
-5.76152e-12
-3.11647e-12
-1.5e-12
-6.63377e-13
-2.73311e-13
-1.054e-13
-3.79732e-14
-1.26566e-14
-3.81047e-15
-9.75201e-16
-1.70327e-16
1.29928e-17
3.27702e-17
2.16111e-17
1.09283e-17
4.8437e-18
1.96045e-18
7.59727e-19
2.19773e-19
99.5138
98.8199
103.619
104.635
86.6273
49.9922
13.6858
-4.5575
-4.60958
0.925961
2.38061
0.0300132
-1.47807
-0.506859
0.871564
0.768121
-0.299398
-0.780957
-0.225517
0.501052
0.539758
-0.0213989
-0.476358
-0.378959
0.0761721
0.394979
0.312801
-0.0266387
-0.29475
-0.293012
-0.0747142
0.161229
0.251594
0.169859
0.0039305
-0.132194
-0.173304
-0.123641
-0.0315055
0.0503001
0.0913674
0.089196
0.0594971
0.0224002
-0.00733986
-0.0236267
-0.0274088
-0.0231395
-0.0156405
-0.00836591
-0.00300207
0.000142307
0.00150743
0.00175591
0.00146616
0.00102171
0.000620243
0.00033036
0.00015101
5.43853e-05
9.82247e-06
-6.44632e-06
-9.59789e-06
-7.9279e-06
-5.28809e-06
-3.09509e-06
-1.63731e-06
-7.90516e-07
-3.47308e-07
-1.36294e-07
-4.53069e-08
-1.05703e-08
4.17838e-10
2.62093e-09
2.20847e-09
1.38085e-09
7.45154e-10
3.64064e-10
1.64221e-10
6.88925e-11
2.6858e-11
9.63864e-12
3.10634e-12
8.42598e-13
1.50365e-13
-1.8748e-14
-3.80412e-14
-2.60229e-14
-1.38413e-14
-6.46555e-15
-2.76489e-15
-1.10193e-15
-4.12373e-16
-1.45064e-16
-4.77325e-17
-1.44935e-17
-3.93214e-18
-8.80402e-19
-1.01152e-19
2.57499e-20
100.467
98.7765
98.8493
104.05
104.611
86.3121
49.9892
13.9526
-4.50573
-4.84185
0.806553
2.5591
0.219255
-1.56312
-0.7352
0.826297
0.964068
-0.127294
-0.852941
-0.446774
0.398764
0.671079
0.190892
-0.412106
-0.523029
-0.126418
0.326508
0.432868
0.16883
-0.187066
-0.349584
-0.241431
0.00824589
0.209426
0.25176
0.148673
-0.00885954
-0.127878
-0.163285
-0.123962
-0.0491253
0.0208342
0.062326
0.0715979
0.058005
0.0348629
0.012873
-0.00241029
-0.0100246
-0.0116937
-0.00995774
-0.0069899
-0.00415052
-0.00203348
-0.000720566
-4.6171e-05
0.000216561
0.000260031
0.000212656
0.00014477
8.67397e-05
4.65842e-05
2.24042e-05
9.43762e-06
3.2428e-06
6.66643e-07
-1.95776e-07
-3.56566e-07
-2.89768e-07
-1.85865e-07
-1.04324e-07
-5.31199e-08
-2.48867e-08
-1.07584e-08
-4.26126e-09
-1.51251e-09
-4.53302e-10
-9.22151e-11
8.04637e-12
2.35471e-11
1.77928e-11
1.02544e-11
5.15137e-12
2.35755e-12
1.00136e-12
3.97684e-13
1.47727e-13
5.09851e-14
1.60605e-14
4.42212e-15
9.32727e-16
5.20809e-17
-9.28276e-17
-7.39319e-17
-4.01804e-17
-1.85955e-17
-7.79808e-18
-3.03002e-18
-1.13188e-18
-3.17777e-19
100.272
100.427
98.3499
98.8958
104.36
104.578
86.044
49.9858
14.2026
-4.4397
-5.06434
0.660216
2.71734
0.438532
-1.60642
-0.977164
0.721649
1.13519
0.0953729
-0.857082
-0.668958
0.22028
0.734293
0.421581
-0.256302
-0.59288
-0.346947
0.160497
0.460613
0.356249
0.00483289
-0.293406
-0.348086
-0.176947
0.0659918
0.226038
0.238522
0.135789
-0.00229663
-0.104942
-0.141005
-0.118374
-0.0654696
-0.0112751
0.0263374
0.0426048
0.0418065
0.031659
0.0191234
0.00852544
0.00151465
-0.00207145
-0.00321389
-0.00299473
-0.00224075
-0.00144136
-0.000811224
-0.000394725
-0.000156391
-3.8919e-05
8.41504e-06
2.08585e-05
1.90933e-05
1.34656e-05
8.20934e-06
4.49542e-06
2.24146e-06
1.01752e-06
4.14452e-07
1.45093e-07
3.79272e-08
1.8899e-09
-6.59667e-09
-6.25202e-09
-4.10787e-09
-2.29084e-09
-1.14911e-09
-5.30583e-10
-2.27575e-10
-9.07287e-11
-3.33618e-11
-1.10759e-11
-3.14348e-12
-6.31759e-13
2.06798e-14
1.17459e-13
8.6903e-14
4.79522e-14
2.29708e-14
1.00264e-14
4.06971e-15
1.5497e-15
5.54717e-16
1.85928e-16
5.76631e-17
1.60973e-17
3.76168e-18
5.60316e-19
-1.07567e-19
-1.05538e-19
99.7737
100.695
100.361
98.0492
98.9625
104.619
104.532
85.7923
49.9819
14.4507
-4.35787
-5.28305
0.485532
2.85483
0.685651
-1.60442
-1.22345
0.558318
1.26658
0.354855
-0.784346
-0.865099
-0.0204237
0.708941
0.632126
-0.0252986
-0.56048
-0.533989
-0.0746879
0.371862
0.473291
0.227336
-0.127287
-0.340708
-0.316435
-0.124507
0.0912564
0.216935
0.218667
0.131884
0.0194704
-0.0670485
-0.105422
-0.10014
-0.0695911
-0.0331778
-0.0038528
0.0134396
0.0196589
0.0185112
0.0139345
0.00879378
0.00460271
0.00181511
0.00027909
-0.000382392
-0.000541895
-0.000472189
-0.000335088
-0.000207527
-0.000114754
-5.67405e-05
-2.46011e-05
-8.76522e-06
-1.96022e-06
4.19897e-07
9.20302e-07
7.7822e-07
5.1175e-07
2.93035e-07
1.51856e-07
7.23056e-08
3.17384e-08
1.27572e-08
4.59409e-09
1.39768e-09
2.89918e-10
-2.36623e-11
-7.41629e-11
-5.69229e-11
-3.32226e-11
-1.68838e-11
-7.8121e-12
-3.3532e-12
-1.34524e-12
-5.04596e-13
-1.75777e-13
-5.58544e-14
-1.5497e-14
-3.28302e-15
-1.73649e-16
3.41097e-16
2.7185e-16
1.48656e-16
6.92974e-17
2.92716e-17
1.1488e-17
4.22748e-18
1.49667e-18
4.00677e-19
99.8032
99.8516
100.985
100.268
97.8077
99.052
104.856
104.473
85.542
49.9775
14.7048
-4.25874
-5.50032
0.28147
2.96913
0.957338
-1.55346
-1.46353
0.339377
1.3443
0.633688
-0.631834
-1.00872
-0.300126
0.585729
0.783374
0.248142
-0.416857
-0.638031
-0.328371
0.174184
0.472624
0.408781
0.10248
-0.206976
-0.343677
-0.277977
-0.0956876
0.085835
0.18748
0.192336
0.130153
0.0464348
-0.0226304
-0.060565
-0.0683759
-0.0564698
-0.0367657
-0.018012
-0.00450304
0.00304753
0.00589963
0.0058892
0.00459844
0.00305585
0.00176723
0.000880392
0.000356033
8.99526e-05
-2.03984e-05
-5.05919e-05
-4.69547e-05
-3.35775e-05
-2.07392e-05
-1.14919e-05
-5.78878e-06
-2.64845e-06
-1.08267e-06
-3.76796e-07
-9.45395e-08
-7.00611e-11
2.11825e-08
1.90425e-08
1.23813e-08
6.89832e-09
3.46825e-09
1.60671e-09
6.91271e-10
2.76092e-10
1.01418e-10
3.34289e-11
9.26706e-12
1.6883e-12
-2.1597e-13
-4.45864e-13
-3.11003e-13
-1.68629e-13
-8.02673e-14
-3.49633e-14
-1.41875e-14
-5.4034e-15
-1.93352e-15
-6.468e-16
-1.9949e-16
-5.49293e-17
-1.23745e-17
-1.5089e-18
5.23262e-19
5.85608e-19
2.57214e-19
100.112
99.5229
99.9642
101.204
100.143
97.5985
99.1668
105.085
104.399
85.2851
49.9726
14.9693
-4.14085
-5.7165
0.0473962
3.05673
1.24926
-1.45036
-1.68596
0.0706884
1.3564
0.911411
-0.403671
-1.07651
-0.588229
0.368831
0.841768
0.519279
-0.175869
-0.62333
-0.538555
-0.0918636
0.338962
0.483068
0.319384
0.0138462
-0.235818
-0.319924
-0.245062
-0.0903771
0.0562665
0.141355
0.155538
0.119791
0.064605
0.014446
-0.0184035
-0.0325488
-0.0328425
-0.0258148
-0.0168169
-0.00901314
-0.00359919
-0.00051445
0.000853761
0.00119524
0.00104932
0.000751756
0.000469548
0.000261156
0.000129242
5.5515e-05
1.90485e-05
3.46664e-06
-1.8137e-06
-2.7274e-06
-2.18678e-06
-1.41286e-06
-8.03091e-07
-4.1454e-07
-1.96665e-07
-8.58317e-08
-3.41182e-08
-1.20003e-08
-3.44191e-09
-5.54944e-10
2.03322e-10
2.78469e-10
1.94521e-10
1.09686e-10
5.4799e-11
2.50962e-11
1.06901e-11
4.25719e-12
1.58228e-12
5.4359e-13
1.68554e-13
4.4394e-14
7.97088e-15
-6.29595e-16
-1.62339e-15
-1.09904e-15
-5.70419e-16
-2.59298e-16
-1.07914e-16
-4.19109e-17
-1.53187e-17
-5.27528e-18
-1.73423e-18
-4.30996e-19
100.165
99.9877
99.3251
100.112
101.377
99.9866
97.4113
99.309
105.311
104.308
85.0172
49.9673
15.2467
-4.00273
-5.93075
-0.216916
3.11356
1.55605
-1.29292
-1.87883
-0.238925
1.29385
1.16566
-0.111387
-1.05095
-0.849689
0.0766542
0.785344
0.738409
0.126219
-0.477897
-0.647018
-0.360836
0.0977563
0.413968
0.443286
0.242042
-0.0289732
-0.224167
-0.280627
-0.218203
-0.0995864
0.0132938
0.0844201
0.107092
0.0938981
0.0636653
0.032119
0.00811023
-0.00590478
-0.0114571
-0.0115786
-0.00913736
-0.00611288
-0.00353533
-0.0017384
-0.000669507
-0.000129656
8.75213e-05
0.000138272
0.000119986
8.37001e-05
5.1027e-05
2.79934e-05
1.39393e-05
6.26493e-06
2.47783e-06
7.99611e-07
1.50804e-07
-4.92181e-08
-8.02415e-08
-6.19759e-08
-3.81453e-08
-2.06542e-08
-1.01918e-08
-4.65013e-09
-1.96996e-09
-7.71718e-10
-2.75393e-10
-8.61876e-11
-2.11402e-11
-2.00935e-12
2.00994e-12
1.92687e-12
1.17986e-12
6.0566e-13
2.79524e-13
1.19221e-13
4.75655e-14
1.78263e-14
6.26474e-15
2.04664e-15
6.08747e-16
1.56701e-16
2.95903e-17
1.44015e-19
-3.76276e-18
-2.6156e-18
-1.38345e-18
-4.85289e-19
99.9658
100.347
99.8271
99.1895
100.294
101.511
99.797
97.2427
99.4801
105.537
104.199
84.7358
49.9613
15.5385
-3.84294
-6.14146
-0.511267
3.13527
1.87137
-1.08028
-2.03016
-0.577697
1.15144
1.37354
0.226287
-0.922805
-1.04881
-0.259216
0.608617
0.85957
0.43579
-0.219152
-0.615219
-0.558746
-0.188286
0.211603
0.421618
0.387507
0.192915
-0.0304619
-0.182738
-0.229043
-0.189338
-0.108244
-0.0273407
0.0291164
0.0552571
0.0572511
0.0456201
0.0297764
0.0156654
0.00574913
0.000107373
-0.00231313
-0.00278885
-0.00235039
-0.00165049
-0.00101489
-0.000553973
-0.000266025
-0.00010764
-3.13494e-05
-4.66069e-07
8.53511e-06
8.70588e-06
6.32195e-06
3.8985e-06
2.15182e-06
1.08489e-06
5.02623e-07
2.12982e-07
8.09826e-08
2.62314e-08
6.04874e-09
-1.33948e-10
-1.33707e-09
-1.11719e-09
-6.87544e-10
-3.65072e-10
-1.75745e-10
-7.82931e-11
-3.25475e-11
-1.26372e-11
-4.5539e-12
-1.49688e-12
-4.30213e-13
-9.50794e-14
-6.0399e-15
9.80482e-15
8.20808e-15
4.64235e-15
2.23004e-15
9.69097e-16
3.90834e-16
1.47972e-16
5.28168e-17
1.77511e-17
5.57879e-18
1.62352e-18
3.46867e-19
99.8599
100.132
100.45
99.6368
99.1108
100.506
101.607
99.5752
97.0935
99.6816
105.764
104.069
84.4391
49.9548
15.8458
-3.66005
-6.34653
-0.835018
3.11753
2.18799
-0.813146
-2.12841
-0.931124
0.928533
1.51326
0.584272
-0.692954
-1.15358
-0.597024
0.325437
0.849654
0.691185
0.106644
-0.437024
-0.624043
-0.435437
-0.0659036
0.253336
0.387988
0.333663
0.170941
-0.00278983
-0.121657
-0.16564
-0.149388
-0.101901
-0.0497981
-0.00924892
0.0144829
0.023461
0.0228127
0.0176421
0.0115637
0.00647887
0.00298943
0.000962495
-1.41188e-05
-0.000361299
-0.000395166
-0.00031029
-0.000205911
-0.00012127
-6.44685e-05
-3.09464e-05
-1.31894e-05
-4.73664e-06
-1.1859e-06
5.54102e-08
3.42959e-07
3.07528e-07
2.0449e-07
1.17112e-07
6.05743e-08
2.88456e-08
1.27324e-08
5.19994e-09
1.94194e-09
6.43197e-10
1.7353e-10
2.56493e-11
-1.00771e-11
-1.26305e-11
-8.37828e-12
-4.51762e-12
-2.16667e-12
-9.55667e-13
-3.9337e-13
-1.51964e-13
-5.50702e-14
-1.85904e-14
-5.74426e-15
-1.55816e-15
-3.27521e-16
-2.16261e-17
2.87633e-17
2.32051e-17
1.25325e-17
5.71958e-18
2.43864e-18
7.57282e-19
99.9699
99.7785
100.319
100.481
99.4264
99.0897
100.742
101.661
99.3231
96.9661
99.9144
105.991
103.919
84.1261
49.9477
16.1691
-3.45261
-6.54345
-1.18707
3.05609
2.49783
-0.494047
-2.16301
-1.28234
0.629636
1.56587
0.932647
-0.373544
-1.14012
-0.889662
-0.0309111
0.69632
0.834966
0.431952
-0.144397
-0.527657
-0.564389
-0.32846
-0.00533103
0.239224
0.330314
0.283507
0.16305
0.0360806
-0.0547671
-0.0967764
-0.0984818
-0.0770686
-0.0486478
-0.0236486
-0.00642517
0.0029531
0.00648988
0.00659259
0.00519181
0.00349003
0.00206151
0.00107066
0.000474892
0.000161881
2.15984e-05
-2.71269e-05
-3.45529e-05
-2.74786e-05
-1.80245e-05
-1.04614e-05
-5.51465e-06
-2.6635e-06
-1.17556e-06
-4.66372e-07
-1.58859e-07
-3.99524e-08
-1.21734e-09
7.41213e-09
6.74791e-09
4.34639e-09
2.39039e-09
1.18662e-09
5.4382e-10
2.32245e-10
9.25642e-11
3.42345e-11
1.15577e-11
3.42165e-12
7.88207e-13
6.26945e-14
-7.56479e-14
-6.71682e-14
-3.91704e-14
-1.92836e-14
-8.56737e-15
-3.52803e-15
-1.3629e-15
-4.96152e-16
-1.70064e-16
-5.45183e-17
-1.60749e-17
-4.21085e-18
-8.61425e-19
-7.32181e-20
100.101
99.7896
99.7833
100.511
100.439
99.2083
99.1287
100.996
101.669
99.0434
96.8644
100.179
106.216
103.745
83.7961
49.9399
16.5089
-3.21914
-6.72939
-1.56585
2.947
2.79212
-0.127456
-2.1249
-1.61268
0.264765
1.51704
1.23878
0.0119308
-0.996766
-1.09093
-0.410827
0.413087
0.827016
0.681835
0.19661
-0.285842
-0.527716
-0.484381
-0.258543
0.00173429
0.186508
0.256121
0.229128
0.150911
0.0652996
-0.000371815
-0.0371133
-0.0486428
-0.0440849
-0.0324983
-0.0202204
-0.0104588
-0.00406154
-0.000573788
0.00091247
0.00126108
0.00109418
0.000777507
0.000483974
0.000270065
0.000135541
6.02887e-05
2.26284e-05
6.00961e-06
-1.29133e-07
-1.69026e-06
-1.59333e-06
-1.09745e-06
-6.47959e-07
-3.44605e-07
-1.68401e-07
-7.61427e-08
-3.17917e-08
-1.21057e-08
-4.06897e-09
-1.10005e-09
-1.49308e-10
8.12615e-11
9.44714e-11
6.26876e-11
3.41732e-11
1.66214e-11
7.4424e-12
3.11014e-12
1.21925e-12
4.47925e-13
1.53013e-13
4.76787e-14
1.29379e-14
2.64459e-15
9.46497e-17
-3.00984e-16
-2.29557e-16
-1.23158e-16
-5.6685e-17
-2.37223e-17
-9.21887e-18
-3.45233e-18
-9.73075e-19
100.077
100.075
99.624
99.8678
100.687
100.327
98.9971
99.2299
101.258
101.627
98.7402
96.7926
100.476
106.437
103.548
83.4486
49.9314
16.8654
-2.95818
-6.90129
-1.96927
2.7867
3.06146
0.280069
-2.00706
-1.90236
-0.150509
1.35879
1.47003
0.429722
-0.727204
-1.16256
-0.75473
0.0401579
0.655769
0.791766
0.50009
0.0394408
-0.32994
-0.475425
-0.407819
-0.22249
-0.0258034
0.112534
0.171303
0.164866
0.122338
0.0709387
0.0279423
6.53323e-06
-0.0136099
-0.0170715
-0.0149884
-0.0108903
-0.00685493
-0.00376478
-0.0017595
-0.000633831
-9.59811e-05
0.000105635
0.00014387
0.000119145
8.08495e-05
4.83622e-05
2.61924e-05
1.29545e-05
5.82974e-06
2.34147e-06
7.94726e-07
1.87339e-07
-1.04838e-08
-5.15731e-08
-4.40756e-08
-2.81663e-08
-1.55712e-08
-7.80422e-09
-3.61578e-09
-1.56045e-09
-6.2734e-10
-2.33133e-10
-7.84609e-11
-2.2715e-11
-4.76671e-12
2.35248e-14
7.98312e-13
6.15385e-13
3.47266e-13
1.69426e-13
7.52465e-14
3.10883e-14
1.20651e-14
4.41191e-15
1.51671e-15
4.85916e-16
1.4217e-16
3.6197e-17
6.86836e-18
1.72561e-19
-8.11397e-19
-4.36218e-19
99.9586
100.221
99.9688
99.4984
100.022
100.827
100.15
98.8086
99.3939
101.516
101.531
98.4186
96.7556
100.804
106.652
103.324
83.0831
49.9221
17.239
-2.66819
-7.0558
-2.39472
2.57216
3.29603
0.719828
-1.80507
-2.13143
-0.595317
1.09091
1.5968
0.838203
-0.352113
-1.08123
-1.00215
-0.359975
0.344695
0.725538
0.682501
0.355048
-0.0315022
-0.302982
-0.39475
-0.336439
-0.201974
-0.0625512
0.0385374
0.0889187
0.097271
0.0806228
0.054961
0.0308767
0.0131795
0.00252931
-0.00253595
-0.00404553
-0.00374017
-0.00278309
-0.00179856
-0.00103512
-0.000532013
-0.000239766
-8.90528e-05
-2.11736e-05
3.93062e-06
9.83006e-06
8.68459e-06
5.92205e-06
3.50913e-06
1.8809e-06
9.26759e-07
4.21612e-07
1.76224e-07
6.64742e-08
2.1591e-08
5.18067e-09
1.34785e-10
-9.02876e-10
-7.89395e-10
-4.90924e-10
-2.61482e-10
-1.2606e-10
-5.6274e-11
-2.34915e-11
-9.19427e-12
-3.36189e-12
-1.1351e-12
-3.44261e-13
-8.72876e-14
-1.38576e-14
2.56258e-15
3.90379e-15
2.4949e-15
1.26586e-15
5.68639e-16
2.35066e-16
9.09688e-17
3.32133e-17
1.14506e-17
3.78057e-18
9.46137e-19
99.9077
100.073
100.302
99.803
99.4352
100.23
100.913
99.9155
98.6589
99.6186
101.76
101.378
98.0847
96.758
101.164
106.857
103.073
82.6992
49.9119
17.6297
-2.34761
-7.18937
-2.83904
2.30095
3.4857
1.18096
-1.51765
-2.28068
-1.04413
0.722153
1.59586
1.19151
0.0911416
-0.844302
-1.10247
-0.712228
-0.048335
0.488597
0.687752
0.563923
0.267726
-0.0328189
-0.230257
-0.296668
-0.26133
-0.17537
-0.0840388
-0.0140379
0.0264922
0.0415931
0.0402357
0.0311824
0.0205963
0.0117161
0.00557425
0.00195546
0.000164578
-0.000515279
-0.000628283
-0.000514344
-0.000351004
-0.000211976
-0.00011579
-5.74979e-05
-2.57318e-05
-1.00668e-05
-3.14015e-06
-4.85252e-07
3.07233e-07
4.02694e-07
3.00939e-07
1.839e-07
9.97497e-08
4.95282e-08
2.28051e-08
9.77347e-09
3.88376e-09
1.41147e-09
4.53428e-10
1.16911e-10
1.4619e-11
-8.58378e-12
-9.36296e-12
-5.97897e-12
-3.15428e-12
-1.48954e-12
-6.49292e-13
-2.64881e-13
-1.01697e-13
-3.6745e-14
-1.24233e-14
-3.87372e-15
-1.07748e-15
-2.44178e-16
-2.90574e-17
1.17594e-17
1.20415e-17
6.82986e-18
3.31494e-18
1.11453e-18
99.9741
99.857
100.229
100.3
99.607
99.4513
100.471
100.928
99.6379
98.5636
99.8991
101.976
101.166
97.7457
96.8046
101.553
107.051
102.792
82.2965
49.9007
18.0378
-1.99484
-7.29819
-3.29844
1.97143
3.62026
1.6505
-1.14717
-2.33291
-1.46776
0.270784
1.45362
1.44429
0.551144
-0.473414
-1.02578
-0.942989
-0.44017
0.132096
0.507765
0.597912
0.462773
0.227851
0.00701692
-0.136412
-0.191225
-0.179206
-0.13274
-0.079327
-0.0353226
-0.00650225
0.00826188
0.0130913
0.0123679
0.00941095
0.00619484
0.00360594
0.00185151
0.000812677
0.000273046
3.35649e-05
-4.85882e-05
-6.04195e-05
-4.78209e-05
-3.13746e-05
-1.82701e-05
-9.6911e-06
-4.72694e-06
-2.11817e-06
-8.61273e-07
-3.07113e-07
-8.68653e-08
-1.11879e-08
8.49451e-09
9.76079e-09
6.74443e-09
3.85571e-09
1.96925e-09
9.255e-10
4.05458e-10
1.66328e-10
6.37763e-11
2.26486e-11
7.28499e-12
2.00766e-12
3.91662e-13
-1.39007e-14
-7.0739e-14
-5.11934e-14
-2.7753e-14
-1.31004e-14
-5.65089e-15
-2.27407e-15
-8.61938e-16
-3.08725e-16
-1.04342e-16
-3.30349e-17
-9.6514e-18
-2.50366e-18
-4.43906e-19
100.062
99.8342
99.9007
100.385
100.208
99.4148
99.5552
100.717
100.86
99.3344
98.5366
100.227
102.151
100.894
97.4097
96.9001
101.97
107.23
102.481
81.8748
49.8884
18.4635
-1.60818
-7.37821
-3.76853
1.58285
3.68962
2.11346
-0.700051
-2.27407
-1.83487
-0.235441
1.16899
1.55728
0.967537
-0.0146456
-0.771728
-0.996502
-0.739607
-0.255549
0.190871
0.4453
0.485277
0.375787
0.207863
0.0540461
-0.0488628
-0.0959015
-0.100627
-0.0819679
-0.0558656
-0.0321407
-0.0148949
-0.00442672
0.000776566
0.00263197
0.00273646
0.00214839
0.00144296
0.00086316
0.000466004
0.000226469
9.6934e-05
3.41833e-05
7.54528e-06
-1.68684e-06
-3.60799e-06
-3.04933e-06
-2.01346e-06
-1.16193e-06
-6.09271e-07
-2.95034e-07
-1.32655e-07
-5.52455e-08
-2.10534e-08
-7.11915e-09
-1.96158e-09
-2.96123e-10
1.19047e-10
1.5249e-10
1.0345e-10
5.7078e-11
2.80297e-11
1.26698e-11
5.35083e-12
2.12458e-12
7.93472e-13
2.77295e-13
8.94519e-14
2.5817e-14
6.13258e-15
8.23561e-16
-2.57662e-16
-2.98256e-16
-1.78104e-16
-8.65353e-17
-3.75605e-17
-1.50257e-17
-5.78965e-18
-1.67329e-18
100.07
99.9992
99.724
100.031
100.499
100.033
99.2619
99.745
100.941
100.704
99.0265
98.5894
100.592
102.274
100.565
97.0857
97.0486
102.414
107.39
102.137
81.4334
49.8748
18.907
-1.18589
-7.42514
-4.24421
1.13547
3.6841
2.55304
-0.187158
-2.09464
-2.11377
-0.760129
0.755609
1.50321
1.27843
0.465403
-0.374316
-0.850336
-0.869981
-0.569755
-0.167437
0.161151
0.335278
0.360288
0.288569
0.180395
0.0801266
0.00937848
-0.0287358
-0.0413888
-0.0387401
-0.0295214
-0.0194033
-0.0111478
-0.00550694
-0.00217629
-0.000487513
0.000207506
0.00038796
0.000350332
0.000250687
0.00015655
8.82744e-05
4.55205e-05
2.14831e-05
9.17414e-06
3.42898e-06
1.01611e-06
1.388e-07
-1.05735e-07
-1.27439e-07
-9.16264e-08
-5.43729e-08
-2.87782e-08
-1.39958e-08
-6.33598e-09
-2.68176e-09
-1.05903e-09
-3.86365e-10
-1.27128e-10
-3.54882e-11
-6.72901e-12
5.90325e-13
1.56119e-12
1.11683e-12
6.13377e-13
2.95161e-13
1.30076e-13
5.35204e-14
2.07419e-14
7.59335e-15
2.62079e-15
8.46279e-16
2.51229e-16
6.58595e-17
1.35407e-17
1.05241e-18
-1.07926e-18
-6.53261e-19
100.002
100.146
99.8649
99.6863
100.219
100.536
99.7968
99.181
100.008
101.111
100.462
98.7382
98.7292
100.978
102.33
100.181
96.7834
97.2541
102.881
107.528
101.758
80.972
49.8599
19.3685
-0.726107
-7.43438
-4.71965
0.630738
3.59468
2.95089
0.375962
-1.79088
-2.27471
-1.26002
0.242891
1.27242
1.42956
0.888049
0.0995836
-0.525814
-0.792048
-0.719975
-0.452657
-0.148672
0.0845746
0.207749
0.233037
0.196562
0.13556
0.0763353
0.0318104
0.00457712
-0.00846345
-0.0122285
-0.011156
-0.00831759
-0.00541343
-0.00314392
-0.00163124
-0.000741291
-0.000276249
-6.40652e-05
1.53152e-05
3.40143e-05
3.00201e-05
2.0668e-05
1.24112e-05
6.75711e-06
3.38886e-06
1.5733e-06
6.73705e-07
2.62211e-07
8.93249e-08
2.38073e-08
2.45601e-09
-2.65864e-09
-2.7578e-09
-1.8249e-09
-1.01138e-09
-5.03571e-10
-2.31602e-10
-9.9628e-11
-4.02749e-11
-1.52873e-11
-5.41042e-12
-1.75518e-12
-5.01427e-13
-1.12197e-13
-9.12494e-15
9.73672e-15
8.51964e-15
4.85965e-15
2.34114e-15
1.01979e-15
4.12827e-16
1.57307e-16
5.67424e-17
1.93705e-17
6.3398e-18
1.57574e-18
99.9392
100.125
100.129
99.7066
99.7464
100.425
100.473
99.5337
99.1975
100.321
101.201
100.144
98.495
98.9592
101.368
102.31
99.7482
96.5133
97.5198
103.368
107.639
101.343
80.4898
49.8433
19.8484
-0.226893
-7.40103
-5.18822
0.0714722
3.41337
3.28749
0.968985
-1.36617
-2.29249
-1.68779
-0.324413
0.877335
1.38439
1.17523
0.559343
-0.089578
-0.520865
-0.661593
-0.572592
-0.369174
-0.155916
0.00474779
0.093994
0.12214
0.111421
0.0834885
0.0534763
0.0291646
0.0127776
0.00341929
-0.000958045
-0.00237781
-0.00234728
-0.00179186
-0.00118158
-0.000698707
-0.000375517
-0.000183392
-8.01895e-05
-3.00454e-05
-8.34192e-06
-3.63617e-07
1.74656e-06
1.74766e-06
1.22361e-06
7.28734e-07
3.90873e-07
1.93264e-07
8.89596e-08
3.82013e-08
1.52309e-08
5.55634e-09
1.7901e-09
4.60465e-10
5.45564e-11
-3.73846e-11
-3.97422e-11
-2.54428e-11
-1.35293e-11
-6.45568e-12
-2.84862e-12
-1.17847e-12
-4.59784e-13
-1.69302e-13
-5.85877e-14
-1.88404e-14
-5.49037e-15
-1.36215e-15
-2.29321e-16
1.94158e-17
4.40013e-17
2.8367e-17
1.4047e-17
6.33812e-18
2.04658e-18
99.9441
99.9822
100.235
100.016
99.5803
99.9057
100.597
100.302
99.2864
99.3255
100.651
101.188
99.7691
98.3221
99.2768
101.743
102.204
99.2749
96.2861
97.8485
103.871
107.719
100.889
79.9863
49.8249
20.347
0.313825
-7.31986
-5.64239
-0.537971
3.13362
3.54263
1.56688
-0.832143
-2.14935
-1.99585
-0.888487
0.35506
1.13361
1.26498
0.907112
0.356476
-0.129555
-0.417713
-0.496425
-0.427167
-0.290746
-0.151769
-0.0457378
0.0177731
0.0451187
0.048686
0.0403221
0.0284235
0.0176031
0.00960912
0.0045144
0.00167375
0.000310332
-0.000214004
-0.000328785
-0.000281878
-0.000195802
-0.0001198
-6.65874e-05
-3.40338e-05
-1.60235e-05
-6.89247e-06
-2.64361e-06
-8.46268e-07
-1.74556e-07
2.98918e-08
6.48414e-08
5.12926e-08
3.16474e-08
1.71301e-08
8.4724e-09
3.89749e-09
1.68039e-09
6.79957e-10
2.57095e-10
8.96988e-11
2.80483e-11
7.28069e-12
1.13607e-12
-2.80386e-13
-3.93019e-13
-2.56033e-13
-1.33878e-13
-6.22064e-14
-2.66509e-14
-1.0705e-14
-4.06286e-15
-1.4606e-15
-4.96479e-16
-1.58472e-16
-4.67503e-17
-1.2346e-17
-2.60761e-18
-2.61506e-19
100.002
99.8724
100.106
100.275
99.8324
99.537
100.14
100.689
100.04
99.1007
99.5642
100.959
101.059
99.3626
98.2425
99.6735
102.081
102.006
98.7714
96.1133
98.242
104.385
107.763
100.394
79.4605
49.8044
20.8645
0.898257
-7.18525
-6.07368
-1.19147
2.75071
3.69605
2.14022
-0.209567
-1.83789
-2.14111
-1.38296
-0.233288
0.701997
1.1272
1.06022
0.698284
0.266686
-0.0771763
-0.270426
-0.32398
-0.285126
-0.205471
-0.123151
-0.0582916
-0.0164166
0.00549344
0.0136492
0.0140922
0.0112434
0.00771569
0.00471971
0.00260206
0.00128656
0.000555574
0.000192968
3.63575e-05
-1.79271e-05
-2.81183e-05
-2.3122e-05
-1.53333e-05
-8.97578e-06
-4.79538e-06
-2.37172e-06
-1.09098e-06
-4.65516e-07
-1.82098e-07
-6.34136e-08
-1.81546e-08
-3.0115e-09
9.73472e-10
1.39893e-09
9.88975e-10
5.63428e-10
2.84991e-10
1.32625e-10
5.76991e-11
2.36352e-11
9.1309e-12
3.316e-12
1.12102e-12
3.45127e-13
9.17717e-14
1.76881e-14
-1.75064e-16
-2.6357e-15
-1.88977e-15
-1.00012e-15
-4.59992e-16
-1.9352e-16
-7.61454e-17
-2.82505e-17
-1.01659e-17
-2.77995e-18
100.051
99.891
99.894
100.255
100.208
99.6323
99.6095
100.403
100.663
99.7196
99.018
99.8966
101.203
100.811
98.9573
98.275
100.135
102.358
101.711
98.2503
96.0061
98.7015
104.906
107.768
99.8562
78.9117
49.7813
21.4015
1.52877
-6.99117
-6.47253
-1.88088
2.26234
3.72823
2.65587
0.47108
-1.36408
-2.09074
-1.73997
-0.807315
0.150726
0.776869
0.976264
0.843677
0.547438
0.237578
0.00304459
-0.129248
-0.173616
-0.16135
-0.12316
-0.0807854
-0.0456888
-0.0214596
-0.00716084
-8.41617e-05
0.0025669
0.00293825
0.00238995
0.00164483
0.00100948
0.000563832
0.00028829
0.000134236
5.57517e-05
1.94964e-05
4.6462e-06
-4.10893e-07
-1.52106e-06
-1.32852e-06
-8.79151e-07
-5.05567e-07
-2.64365e-07
-1.28168e-07
-5.80968e-08
-2.46652e-08
-9.76635e-09
-3.56116e-09
-1.16077e-09
-3.12484e-10
-4.93227e-11
1.43861e-11
1.98989e-11
1.33709e-11
7.24394e-12
3.49061e-12
1.55094e-12
6.45904e-13
2.54056e-13
9.46121e-14
3.32988e-14
1.09993e-14
3.3575e-15
9.14817e-16
2.02436e-16
2.26684e-17
-1.03484e-17
-9.98834e-18
-5.84446e-18
-2.15094e-18
100.051
100.002
99.7982
100.015
100.361
100.036
99.4803
99.8018
100.635
100.503
99.3927
99.0684
100.29
101.344
100.452
98.5903
98.4323
100.639
102.553
101.321
97.727
95.9761
99.2269
105.428
107.726
99.2719
78.3385
49.7554
21.9583
2.2079
-6.73109
-6.82822
-2.59577
1.66924
3.62144
3.07794
1.16949
-0.749927
-1.82846
-1.89935
-1.27641
-0.426565
0.28065
0.673861
0.757615
0.63345
0.421991
0.215064
0.0606791
-0.0301823
-0.0683947
-0.0725347
-0.0598142
-0.0422431
-0.0263535
-0.0145946
-0.00704721
-0.00278109
-0.00068117
0.000171636
0.000400992
0.000371761