/*--------------------------------*- C++ -*----------------------------------*\
  =========                 |
  \\      /  F ield         | OpenFOAM: The Open Source CFD Toolbox
   \\    /   O peration     | Website:  https://openfoam.org
    \\  /    A nd           | Version:  8
     \\/     M anipulation  |
\*---------------------------------------------------------------------------*/
FoamFile
{
    version     2.0;
    format      ascii;
    class       volScalarField;
    location    "1.53";
    object      p;
}
// * * * * * * * * * * * * * * * * * * * * * * * * * * * * * * * * * * * * * //

dimensions      [0 2 -2 0 0 0 0];

internalField   nonuniform List<scalar> 
400
(
1.37559e-16
1.21832e-15
3.63458e-15
6.73104e-15
1.01867e-14
1.34079e-14
1.64155e-14
1.88042e-14
2.06177e-14
2.14975e-14
2.15975e-14
2.08261e-14
1.934e-14
1.72504e-14
1.45051e-14
1.14347e-14
8.17745e-15
5.19474e-15
2.46578e-15
6.44107e-16
3.83216e-15
4.36194e-15
5.73152e-15
7.76793e-15
1.00529e-14
1.25969e-14
1.47786e-14
1.70124e-14
1.85134e-14
1.96747e-14
1.98891e-14
1.96393e-14
1.8756e-14
1.72825e-14
1.54736e-14
1.29304e-14
1.0572e-14
7.99724e-15
6.01248e-15
4.36138e-15
6.40387e-15
6.38787e-15
6.92379e-15
7.96987e-15
9.80263e-15
1.14861e-14
1.37273e-14
1.54684e-14
1.74532e-14
1.85896e-14
1.93446e-14
1.95314e-14
1.91683e-14
1.8331e-14
1.68189e-14
1.52064e-14
1.28663e-14
1.09354e-14
8.68913e-15
7.32275e-15
8.07274e-15
7.51768e-15
7.25273e-15
7.98611e-15
9.11945e-15
1.11259e-14
1.27714e-14
1.52053e-14
1.67988e-14
1.87012e-14
1.94589e-14
2.01819e-14
2.03244e-14
1.9659e-14
1.86793e-14
1.69494e-14
1.53536e-14
1.29266e-14
1.10783e-14
8.97262e-15
8.8208e-15
8.08396e-15
7.54266e-15
7.83902e-15
9.25168e-15
1.06593e-14
1.30804e-14
1.4717e-14
1.71112e-14
1.88498e-14
2.04561e-14
2.11695e-14
2.16439e-14
2.12103e-14
1.99578e-14
1.86094e-14
1.63034e-14
1.43629e-14
1.18679e-14
1.02806e-14
9.13389e-15
8.3443e-15
7.76047e-15
8.18443e-15
9.46342e-15
1.13208e-14
1.31214e-14
1.55789e-14
1.73292e-14
1.99128e-14
2.11554e-14
2.23836e-14
2.24929e-14
2.18092e-14
2.06866e-14
1.86667e-14
1.68556e-14
1.42749e-14
1.23685e-14
1.00213e-14
9.06119e-15
8.61211e-15
8.24548e-15
8.6397e-15
1.05327e-14
1.19962e-14
1.4203e-14
1.62817e-14
1.88653e-14
2.02596e-14
2.20635e-14
2.27673e-14
2.28709e-14
2.20124e-14
1.99075e-14
1.84167e-14
1.60069e-14
1.41023e-14
1.16146e-14
1.0318e-14
9.33274e-15
8.86704e-15
9.18378e-15
1.03174e-14
1.16415e-14
1.35233e-14
1.52115e-14
1.77788e-14
1.97229e-14
2.14538e-14
2.22104e-14
2.28471e-14
2.2583e-14
2.10135e-14
1.93836e-14
1.72373e-14
1.5072e-14
1.2703e-14
1.1578e-14
9.99898e-15
9.97973e-15
9.99312e-15
1.04672e-14
1.17269e-14
1.33071e-14
1.49107e-14
1.70781e-14
1.85988e-14
2.10536e-14
2.19796e-14
2.27943e-14
2.2154e-14
2.17779e-14
1.9726e-14
1.77634e-14
1.58729e-14
1.36523e-14
1.19975e-14
1.04331e-14
1.04952e-14
1.06739e-14
1.07315e-14
1.19981e-14
1.33848e-14
1.50643e-14
1.68432e-14
1.81647e-14
1.99202e-14
2.14144e-14
2.27994e-14
2.23926e-14
2.16279e-14
2.03488e-14
1.85522e-14
1.62423e-14
1.46125e-14
1.30201e-14
1.12814e-14
1.07937e-14
9.84084e-15
1.09916e-14
1.17502e-14
1.29585e-14
1.48748e-14
1.67762e-14
1.80789e-14
1.96845e-14
1.9965e-14
2.13046e-14
2.2333e-14
2.23064e-14
2.0798e-14
1.95457e-14
1.76692e-14
1.55406e-14
1.37309e-14
1.20518e-14
1.14476e-14
1.05412e-14
1.08565e-14
1.18378e-14
1.25428e-14
1.39821e-14
1.58808e-14
1.74272e-14
1.84388e-14
1.95478e-14
2.04081e-14
2.0846e-14
2.15483e-14
2.12544e-14
2.046e-14
1.87177e-14
1.72617e-14
1.50097e-14
1.34771e-14
1.19469e-14
1.12722e-14
1.10562e-14
1.09002e-14
1.23407e-14
1.33792e-14
1.44553e-14
1.69363e-14
1.71913e-14
1.8568e-14
1.89422e-14
1.91305e-14
2.04674e-14
2.0598e-14
2.04312e-14
1.92162e-14
1.8208e-14
1.69183e-14
1.48115e-14
1.37316e-14
1.29736e-14
1.18715e-14
1.15049e-14
1.21544e-14
1.31432e-14
1.34004e-14
1.52015e-14
1.67482e-14
1.74574e-14
1.76042e-14
1.79172e-14
1.84596e-14
1.92427e-14
1.97625e-14
1.92554e-14
1.88229e-14
1.7241e-14
1.6223e-14
1.50499e-14
1.47841e-14
1.43482e-14
1.35138e-14
1.29093e-14
1.27198e-14
1.41121e-14
1.49281e-14
1.55463e-14
1.68914e-14
1.70285e-14
1.70213e-14
1.70393e-14
1.74043e-14
1.82257e-14
1.7975e-14
1.82742e-14
1.82006e-14
1.76156e-14
1.65534e-14
1.54374e-14
1.55085e-14
1.59135e-14
1.48596e-14
1.38748e-14
1.38243e-14
1.57046e-14
1.56239e-14
1.62073e-14
1.67535e-14
1.73329e-14
1.67968e-14
1.72293e-14
1.70272e-14
1.73485e-14
1.73018e-14
1.71903e-14
1.77832e-14
1.66973e-14
1.68197e-14
1.63957e-14
1.65642e-14
1.62455e-14
1.58305e-14
1.50899e-14
1.45905e-14
1.61878e-14
1.64568e-14
1.64651e-14
1.6574e-14
1.67311e-14
1.78261e-14
1.79338e-14
1.74301e-14
1.65938e-14
1.67347e-14
1.74709e-14
1.75368e-14
1.70778e-14
1.73712e-14
1.6386e-14
1.66162e-14
1.65519e-14
1.65658e-14
1.56956e-14
1.48953e-14
1.65427e-14
1.66456e-14
1.68289e-14
1.68764e-14
1.70458e-14
1.85048e-14
1.85448e-14
1.76294e-14
1.73184e-14
1.75434e-14
1.72866e-14
1.71784e-14
1.76009e-14
1.70746e-14
1.62562e-14
1.64761e-14
1.60118e-14
1.60256e-14
1.55805e-14
1.54114e-14
1.67738e-14
1.70137e-14
1.68021e-14
1.72894e-14
1.84482e-14
1.99489e-14
1.97402e-14
1.91081e-14
1.81212e-14
1.75782e-14
1.7452e-14
1.66873e-14
1.68677e-14
1.70992e-14
1.64726e-14
1.56937e-14
1.5099e-14
1.49944e-14
1.51203e-14
1.5779e-14
1.65904e-14
1.71621e-14
1.64767e-14
1.68506e-14
1.95801e-14
2.07285e-14
2.13254e-14
2.08478e-14
1.94686e-14
1.81722e-14
1.75398e-14
1.70056e-14
1.68271e-14
1.66031e-14
1.58248e-14
1.43223e-14
1.41333e-14
1.42878e-14
1.50757e-14
1.58137e-14
)
;

boundaryField
{
    movingWall
    {
        type            zeroGradient;
    }
    fixedWalls
    {
        type            zeroGradient;
    }
    left
    {
        type            cyclic;
    }
    right
    {
        type            cyclic;
    }
    frontAndBack
    {
        type            empty;
    }
}


// ************************************************************************* //
