/*--------------------------------*- C++ -*----------------------------------*\
  =========                 |
  \\      /  F ield         | OpenFOAM: The Open Source CFD Toolbox
   \\    /   O peration     | Website:  https://openfoam.org
    \\  /    A nd           | Version:  8
     \\/     M anipulation  |
\*---------------------------------------------------------------------------*/
FoamFile
{
    version     2.0;
    format      ascii;
    class       volVectorField;
    location    "62";
    object      U;
}
// * * * * * * * * * * * * * * * * * * * * * * * * * * * * * * * * * * * * * //

dimensions      [0 1 -1 0 0 0 0];

internalField   nonuniform List<vector> 
400
(
(1 8.04445e-17 0)
(1 8.77681e-17 0)
(1 9.76818e-17 0)
(1 4.02888e-17 0)
(1 4.57237e-17 0)
(1 7.8846e-17 0)
(1 8.7308e-17 0)
(1 7.97558e-17 0)
(1 3.86905e-18 0)
(1 -1.75317e-16 0)
(1 -2.4328e-16 0)
(1 -3.78613e-16 0)
(1 -4.16058e-16 0)
(1 -5.22548e-16 0)
(1 -6.93579e-16 0)
(1 -8.79695e-16 0)
(1 -1.0888e-15 0)
(1 -1.22078e-15 0)
(1 -1.41621e-15 0)
(1 -1.67541e-15 0)
(1 7.84667e-17 0)
(1 1.28854e-16 0)
(1 1.33696e-16 0)
(1 4.77424e-17 0)
(1 3.35989e-17 0)
(1 9.05886e-17 0)
(1 9.50998e-17 0)
(1 6.37936e-17 0)
(1 -3.69076e-17 0)
(1 -1.79451e-16 0)
(1 -2.51716e-16 0)
(1 -4.17177e-16 0)
(1 -4.06687e-16 0)
(1 -5.44151e-16 0)
(1 -6.73264e-16 0)
(1 -9.41508e-16 0)
(1 -1.12538e-15 0)
(1 -1.28046e-15 0)
(1 -1.48749e-15 0)
(1 -1.75107e-15 0)
(1 -2.95445e-17 0)
(1 1.47868e-16 0)
(1 2.22617e-16 0)
(1 1.5588e-16 0)
(1 1.8585e-18 0)
(1 -3.62203e-17 0)
(1 1.48605e-17 0)
(1 -2.39164e-17 0)
(1 -3.41547e-17 0)
(1 -9.85714e-17 0)
(1 -2.76338e-16 0)
(1 -3.94389e-16 0)
(1 -3.78913e-16 0)
(1 -6.09153e-16 0)
(1 -7.04617e-16 0)
(1 -8.95408e-16 0)
(1 -1.09729e-15 0)
(1 -1.33631e-15 0)
(1 -1.51487e-15 0)
(1 -1.78037e-15 0)
(1 -9.38117e-17 0)
(1 8.29877e-17 0)
(1 2.46049e-16 0)
(1 1.77788e-16 0)
(1 1.08801e-17 0)
(1 -1.68198e-16 0)
(1 -1.46513e-16 0)
(1 -1.50069e-16 0)
(1 -8.42414e-17 0)
(1 -1.28082e-16 0)
(1 -2.48238e-16 0)
(1 -2.76309e-16 0)
(1 -3.49591e-16 0)
(1 -6.0717e-16 0)
(1 -7.25352e-16 0)
(1 -8.51999e-16 0)
(1 -1.07049e-15 0)
(1 -1.38807e-15 0)
(1 -1.53875e-15 0)
(1 -1.79407e-15 0)
(1 -7.62761e-17 0)
(1 4.53333e-17 0)
(1 1.47106e-16 0)
(1 7.17023e-17 0)
(1 2.22646e-17 0)
(1 -1.55267e-16 0)
(1 -2.23187e-16 0)
(1 -1.89467e-16 0)
(1 -2.0997e-16 0)
(1 -1.74367e-16 0)
(1 -1.77182e-16 0)
(1 -2.81296e-16 0)
(1 -4.057e-16 0)
(1 -5.66294e-16 0)
(1 -6.87478e-16 0)
(1 -9.15244e-16 0)
(1 -1.18819e-15 0)
(1 -1.39174e-15 0)
(1 -1.56979e-15 0)
(1 -1.88948e-15 0)
(1 -1.62259e-17 0)
(1 4.65891e-17 0)
(1 8.43666e-17 0)
(1 5.43051e-17 0)
(1 -7.08852e-18 0)
(1 -1.1144e-16 0)
(1 -2.03243e-16 0)
(1 -1.87888e-16 0)
(1 -2.26366e-16 0)
(1 -2.50272e-16 0)
(1 -2.85347e-16 0)
(1 -4.12745e-16 0)
(1 -5.19102e-16 0)
(1 -5.56958e-16 0)
(1 -7.80114e-16 0)
(1 -9.88334e-16 0)
(1 -1.24329e-15 0)
(1 -1.34562e-15 0)
(1 -1.62112e-15 0)
(1 -1.94528e-15 0)
(1 8.91128e-17 0)
(1 -5.23772e-18 0)
(1 5.5825e-18 0)
(1 9.93011e-17 0)
(1 1.84523e-18 0)
(1 -1.67399e-17 0)
(1 -1.65604e-16 0)
(1 -2.38501e-16 0)
(1 -2.54579e-16 0)
(1 -4.20108e-16 0)
(1 -4.64826e-16 0)
(1 -4.55576e-16 0)
(1 -6.33844e-16 0)
(1 -6.69189e-16 0)
(1 -8.70196e-16 0)
(1 -1.06179e-15 0)
(1 -1.13667e-15 0)
(1 -1.29394e-15 0)
(1 -1.66563e-15 0)
(1 -1.94338e-15 0)
(1 1.34003e-16 0)
(1 -4.04845e-17 0)
(1 -1.05022e-16 0)
(1 8.87708e-17 0)
(1 7.22685e-17 0)
(1 7.89023e-17 0)
(1 -1.26607e-16 0)
(1 -2.64488e-16 0)
(1 -3.99866e-16 0)
(1 -5.54936e-16 0)
(1 -5.38886e-16 0)
(1 -5.20748e-16 0)
(1 -6.94973e-16 0)
(1 -8.17234e-16 0)
(1 -9.46867e-16 0)
(1 -1.0309e-15 0)
(1 -1.1003e-15 0)
(1 -1.36034e-15 0)
(1 -1.57302e-15 0)
(1 -1.84869e-15 0)
(1 8.08398e-17 0)
(1 2.96882e-17 0)
(1 -1.37836e-16 0)
(1 -6.87844e-18 0)
(1 1.32225e-16 0)
(1 6.06859e-17 0)
(1 -7.55139e-17 0)
(1 -3.15544e-16 0)
(1 -5.27293e-16 0)
(1 -5.83263e-16 0)
(1 -5.75751e-16 0)
(1 -5.76895e-16 0)
(1 -7.03393e-16 0)
(1 -8.62711e-16 0)
(1 -1.01283e-15 0)
(1 -9.8224e-16 0)
(1 -1.08895e-15 0)
(1 -1.31576e-15 0)
(1 -1.49836e-15 0)
(1 -1.84239e-15 0)
(1 -2.93269e-17 0)
(1 3.45441e-17 0)
(1 -5.17576e-17 0)
(1 -3.55561e-17 0)
(1 5.19379e-17 0)
(1 -1.98026e-17 0)
(1 -1.2174e-16 0)
(1 -3.67379e-16 0)
(1 -5.32596e-16 0)
(1 -5.33167e-16 0)
(1 -5.69851e-16 0)
(1 -5.77328e-16 0)
(1 -7.2032e-16 0)
(1 -8.79844e-16 0)
(1 -9.75445e-16 0)
(1 -9.81641e-16 0)
(1 -1.06478e-15 0)
(1 -1.21649e-15 0)
(1 -1.48441e-15 0)
(1 -1.85412e-15 0)
(1 -6.92076e-17 0)
(1 -2.56962e-17 0)
(1 2.05734e-17 0)
(1 -1.88176e-17 0)
(1 -6.91534e-17 0)
(1 -1.1446e-16 0)
(1 -1.99189e-16 0)
(1 -3.80175e-16 0)
(1 -5.14161e-16 0)
(1 -5.54285e-16 0)
(1 -4.99058e-16 0)
(1 -5.94038e-16 0)
(1 -7.50207e-16 0)
(1 -8.31889e-16 0)
(1 -8.97004e-16 0)
(1 -9.69427e-16 0)
(1 -1.07692e-15 0)
(1 -1.23409e-15 0)
(1 -1.47748e-15 0)
(1 -1.86799e-15 0)
(1 -3.67236e-17 0)
(1 7.76564e-18 0)
(1 -2.91996e-17 0)
(1 -1.17511e-16 0)
(1 -1.70858e-16 0)
(1 -1.76488e-16 0)
(1 -2.93284e-16 0)
(1 -4.13813e-16 0)
(1 -4.2924e-16 0)
(1 -4.47293e-16 0)
(1 -5.29314e-16 0)
(1 -6.20918e-16 0)
(1 -6.69834e-16 0)
(1 -6.93418e-16 0)
(1 -8.49519e-16 0)
(1 -9.8299e-16 0)
(1 -1.12608e-15 0)
(1 -1.22978e-15 0)
(1 -1.47751e-15 0)
(1 -1.90158e-15 0)
(1 -3.08999e-17 0)
(1 2.84959e-17 0)
(1 -3.71649e-17 0)
(1 -2.08032e-16 0)
(1 -2.54292e-16 0)
(1 -2.34168e-16 0)
(1 -3.85954e-16 0)
(1 -4.81734e-16 0)
(1 -3.56469e-16 0)
(1 -3.42324e-16 0)
(1 -5.64373e-16 0)
(1 -6.25446e-16 0)
(1 -5.47942e-16 0)
(1 -6.41218e-16 0)
(1 -7.70776e-16 0)
(1 -9.50722e-16 0)
(1 -1.1385e-15 0)
(1 -1.29752e-15 0)
(1 -1.49469e-15 0)
(1 -1.87063e-15 0)
(1 -3.60236e-17 0)
(1 1.51154e-18 0)
(1 -6.03596e-17 0)
(1 -1.56686e-16 0)
(1 -2.30669e-16 0)
(1 -3.48227e-16 0)
(1 -4.02862e-16 0)
(1 -4.44323e-16 0)
(1 -3.71906e-16 0)
(1 -4.06307e-16 0)
(1 -5.3843e-16 0)
(1 -5.625e-16 0)
(1 -5.43365e-16 0)
(1 -6.43456e-16 0)
(1 -7.04626e-16 0)
(1 -9.03203e-16 0)
(1 -1.0959e-15 0)
(1 -1.34075e-15 0)
(1 -1.55684e-15 0)
(1 -1.83954e-15 0)
(1 1.20712e-17 0)
(1 9.55489e-19 0)
(1 -1.12138e-16 0)
(1 -1.82705e-16 0)
(1 -2.97198e-16 0)
(1 -3.91113e-16 0)
(1 -3.43879e-16 0)
(1 -2.74158e-16 0)
(1 -3.39571e-16 0)
(1 -4.54776e-16 0)
(1 -5.02577e-16 0)
(1 -5.04773e-16 0)
(1 -5.6662e-16 0)
(1 -6.3138e-16 0)
(1 -7.30379e-16 0)
(1 -8.42874e-16 0)
(1 -1.08382e-15 0)
(1 -1.29669e-15 0)
(1 -1.51426e-15 0)
(1 -1.79999e-15 0)
(1 3.07246e-17 0)
(1 -6.81104e-17 0)
(1 -1.45481e-16 0)
(1 -2.84442e-16 0)
(1 -3.83474e-16 0)
(1 -3.62485e-16 0)
(1 -2.51763e-16 0)
(1 -9.62872e-17 0)
(1 -2.7827e-16 0)
(1 -4.40293e-16 0)
(1 -4.78289e-16 0)
(1 -5.04002e-16 0)
(1 -5.27738e-16 0)
(1 -6.31898e-16 0)
(1 -7.21455e-16 0)
(1 -8.07131e-16 0)
(1 -1.03391e-15 0)
(1 -1.20731e-15 0)
(1 -1.38143e-15 0)
(1 -1.73235e-15 0)
(1 -2.85855e-17 0)
(1 -1.94576e-16 0)
(1 -2.6052e-16 0)
(1 -3.04988e-16 0)
(1 -3.34774e-16 0)
(1 -3.20414e-16 0)
(1 -1.5176e-16 0)
(1 -4.33154e-17 0)
(1 -2.4023e-16 0)
(1 -3.88507e-16 0)
(1 -4.6746e-16 0)
(1 -5.01518e-16 0)
(1 -4.7532e-16 0)
(1 -5.82556e-16 0)
(1 -6.42771e-16 0)
(1 -7.87301e-16 0)
(1 -9.02104e-16 0)
(1 -1.11564e-15 0)
(1 -1.36425e-15 0)
(1 -1.67722e-15 0)
(1 -7.13938e-17 0)
(1 -2.44288e-16 0)
(1 -3.20005e-16 0)
(1 -2.82597e-16 0)
(1 -2.64699e-16 0)
(1 -2.48209e-16 0)
(1 -1.76634e-16 0)
(1 -2.09568e-16 0)
(1 -1.79495e-16 0)
(1 -3.15271e-16 0)
(1 -3.67775e-16 0)
(1 -4.55602e-16 0)
(1 -4.43564e-16 0)
(1 -4.69872e-16 0)
(1 -5.75018e-16 0)
(1 -6.92061e-16 0)
(1 -8.63031e-16 0)
(1 -1.09232e-15 0)
(1 -1.35115e-15 0)
(1 -1.61639e-15 0)
(1 -7.93619e-17 0)
(1 -2.32416e-16 0)
(1 -2.49804e-16 0)
(1 -2.4535e-16 0)
(1 -2.45831e-16 0)
(1 -2.07007e-16 0)
(1 -2.66024e-16 0)
(1 -3.1947e-16 0)
(1 -2.24304e-16 0)
(1 -2.63204e-16 0)
(1 -2.75177e-16 0)
(1 -3.94157e-16 0)
(1 -3.9711e-16 0)
(1 -4.33212e-16 0)
(1 -6.03253e-16 0)
(1 -7.14349e-16 0)
(1 -8.49991e-16 0)
(1 -1.07808e-15 0)
(1 -1.26283e-15 0)
(1 -1.53459e-15 0)
(1 -5.04963e-17 0)
(1 -1.80891e-16 0)
(1 -1.87323e-16 0)
(1 -2.10428e-16 0)
(1 -2.42376e-16 0)
(1 -2.09101e-16 0)
(1 -2.52e-16 0)
(1 -3.06228e-16 0)
(1 -3.12695e-16 0)
(1 -2.68732e-16 0)
(1 -2.68773e-16 0)
(1 -3.5237e-16 0)
(1 -3.78193e-16 0)
(1 -4.76324e-16 0)
(1 -6.11773e-16 0)
(1 -7.41892e-16 0)
(1 -8.18957e-16 0)
(1 -1.04906e-15 0)
(1 -1.21459e-15 0)
(1 -1.49622e-15 0)
)
;

boundaryField
{
    inlet
    {
        type            fixedValue;
        value           uniform (1 0 0);
    }
    outlet
    {
        type            zeroGradient;
    }
    up
    {
        type            zeroGradient;
    }
    down
    {
        type            zeroGradient;
    }
    frontAndBack
    {
        type            empty;
    }
}


// ************************************************************************* //
