/*--------------------------------*- C++ -*----------------------------------*\
  =========                 |
  \\      /  F ield         | OpenFOAM: The Open Source CFD Toolbox
   \\    /   O peration     | Website:  https://openfoam.org
    \\  /    A nd           | Version:  8
     \\/     M anipulation  |
\*---------------------------------------------------------------------------*/
FoamFile
{
    version     2.0;
    format      ascii;
    class       surfaceScalarField;
    location    "31";
    object      phi;
}
// * * * * * * * * * * * * * * * * * * * * * * * * * * * * * * * * * * * * * //

dimensions      [0 3 -1 0 0 0 0];

internalField   nonuniform List<scalar> 
880
(
-1.37174e-05
1.37174e-05
-2.80193e-05
1.43019e-05
-4.1697e-05
1.36777e-05
-5.44335e-05
1.27365e-05
-6.59513e-05
1.15178e-05
-7.60013e-05
1.005e-05
-8.43994e-05
8.39809e-06
-9.0938e-05
6.53858e-06
-9.57503e-05
4.81237e-06
-9.82048e-05
2.45445e-06
-9.99016e-05
1.69684e-06
-6.29799e-07
-9.92718e-05
-1.49186e-05
2.8636e-05
-3.04461e-05
2.98294e-05
-4.52918e-05
2.85235e-05
-5.91114e-05
2.6556e-05
-7.16094e-05
2.40158e-05
-8.25277e-05
2.09683e-05
-9.16843e-05
1.75547e-05
-9.88966e-05
1.37508e-05
-0.000104332
1.0248e-05
-0.000107483
5.60564e-06
-0.000110002
4.21544e-06
-1.9828e-06
-0.000108649
-1.5586e-05
4.4222e-05
-3.18027e-05
4.60461e-05
-4.72921e-05
4.40129e-05
-6.16809e-05
4.09449e-05
-7.4644e-05
3.69789e-05
-8.58853e-05
3.22096e-05
-9.51382e-05
2.68076e-05
-0.000102189
2.08013e-05
-0.000106704
1.47636e-05
-0.000108829
7.73041e-06
-0.000107504
2.89032e-06
-5.6764e-06
-0.00010381
-1.65929e-05
6.08148e-05
-3.38514e-05
6.33047e-05
-5.03277e-05
6.04892e-05
-6.56225e-05
5.62396e-05
-7.94049e-05
5.07613e-05
-9.138e-05
4.41847e-05
-0.000101316
3.67435e-05
-0.000109
2.84855e-05
-0.000114093
1.98564e-05
-0.000116666
1.03034e-05
-0.000115471
1.69528e-06
-9.2746e-06
-0.000111873
-1.79856e-05
7.88004e-05
-3.66805e-05
8.19996e-05
-5.45091e-05
7.83178e-05
-7.10198e-05
7.27503e-05
-8.58593e-05
6.56008e-05
-9.86896e-05
5.7015e-05
-0.00010921
4.72643e-05
-0.0001172
3.64753e-05
-0.000122367
2.50235e-05
-0.000124791
1.27273e-05
-0.000123899
8.03455e-07
-1.29991e-05
-0.000120175
-1.98192e-05
9.86196e-05
-4.03959e-05
0.000102576
-5.99999e-05
9.79218e-05
-7.81068e-05
9.08572e-05
-9.43697e-05
8.18637e-05
-0.000108435
7.10801e-05
-0.000120061
5.88907e-05
-0.000129076
4.54901e-05
-0.000135194
3.11419e-05
-0.000138233
1.57656e-05
-0.000137301
-1.28177e-07
-1.66752e-05
-0.000133625
-2.21179e-05
0.000120738
-4.50591e-05
0.000125517
-6.68926e-05
0.000119755
-8.69779e-05
0.000110943
-0.000104974
9.98598e-05
-0.000120475
8.65812e-05
-0.00013324
7.16556e-05
-0.000142992
5.52418e-05
-0.000149566
3.77164e-05
-0.000153032
1.92311e-05
-0.000153462
3.01764e-07
-2.00183e-05
-0.000150119
-2.50965e-05
0.000145834
-5.09926e-05
0.000151414
-7.55884e-05
0.000144351
-9.80256e-05
0.00013338
-0.000118121
0.000119955
-0.000135376
0.000103836
-0.000149709
8.59883e-05
-0.000161026
6.65593e-05
-0.000169095
4.57852e-05
-0.000173571
2.3707e-05
-0.000173728
4.59151e-07
-2.31819e-05
-0.000170565
-2.84317e-05
0.000174266
-5.78122e-05
0.000180794
-8.56914e-05
0.00017223
-0.000111029
0.000158717
-0.000133659
0.000142585
-0.000152929
0.000123106
-0.000168729
0.000101789
-0.000180795
7.86249e-05
-0.000189279
5.42692e-05
-0.000194391
2.88192e-05
-0.000196509
2.57733e-06
-2.54393e-05
-0.000194252
-3.35236e-05
0.000207789
-6.74202e-05
0.000214691
-9.96534e-05
0.000204464
-0.000127936
0.000187
-0.000153299
0.000167948
-0.000174524
0.000144331
-0.0001924
0.000119665
-0.000206794
9.30185e-05
-0.000217529
6.50052e-05
-0.000224255
3.55449e-05
-0.000226282
4.60389e-06
-2.71951e-05
-0.000224526
-3.77642e-05
0.000245553
-7.66431e-05
0.00025357
-0.000113328
0.000241148
-0.000145687
0.000219359
-0.000174473
0.000196734
-0.000198157
0.000168016
-0.000217451
0.000138958
-0.000231936
0.000107503
-0.000242547
7.56156e-05
-0.000249698
4.26964e-05
-0.000254173
9.07902e-06
-2.74964e-05
-0.000253872
-4.77643e-05
0.000293318
-9.34491e-05
0.000299254
-0.00013699
0.000284689
-0.00017248
0.000254849
-0.000204257
0.000228511
-0.000229446
0.000193205
-0.000251181
0.000160693
-0.000268468
0.000124791
-0.000282066
8.92135e-05
-0.000291735
5.23653e-05
-0.000297116
1.44601e-05
-2.63065e-05
-0.000298306
-5.11828e-05
0.000344501
-0.000105076
0.000353147
-0.000154308
0.000333922
-0.000196109
0.000296649
-0.000232057
0.000264459
-0.000259559
0.000220707
-0.000281534
0.000182668
-0.000297639
0.000140895
-0.0003098
0.000101374
-0.000318625
6.11904e-05
-0.000326183
2.20186e-05
-2.32139e-05
-0.000329276
-7.65431e-05
0.000421044
-0.000137858
0.000414462
-0.000197774
0.000393837
-0.000239898
0.000338774
-0.000278051
0.000302612
-0.000305265
0.000247921
-0.000328681
0.000206084
-0.000346629
0.000158844
-0.000362072
0.000116817
-0.000374557
7.36751e-05
-0.000385529
3.29904e-05
-1.58851e-05
-0.000392857
-6.57896e-05
0.000486833
-0.000150891
0.000499563
-0.000217275
0.000460221
-0.000274849
0.000396348
-0.000315034
0.000342798
-0.000344697
0.000277584
-0.00036548
0.000226867
-0.000379551
0.000172915
-0.000390233
0.000127499
-0.000398391
8.18333e-05
-0.000407717
4.23167e-05
-8.00539e-06
-0.000415597
-0.000158376
0.000645209
-0.000223098
0.000564286
-0.000302682
0.000539805
-0.000344526
0.000438193
-0.000380951
0.000379222
-0.000405117
0.00030175
-0.000423288
0.000245038
-0.000437833
0.000187459
-0.000451339
0.000141005
-0.000465126
9.56206e-05
-0.000482397
5.95874e-05
9.83045e-06
-0.000500232
-6.36294e-05
0.000708839
-0.000229933
0.000730589
-0.000333212
0.000643084
-0.000409705
0.000514686
-0.000447442
0.000416959
-0.000468505
0.000322813
-0.000476237
0.00025277
-0.000478824
0.000190047
-0.000479956
0.000142137
-0.000481989
9.76533e-05
-0.000487049
6.46477e-05
2.04205e-05
-0.000497639
-0.000313646
0.00102248
-0.000364492
0.000781435
-0.000445067
0.000723659
-0.000501488
0.000571108
-0.000512226
0.000427696
-0.000529717
0.000340305
-0.000528467
0.000251519
-0.00053182
0.000193399
-0.0005343
0.000144617
-0.000542841
0.000106194
-0.000560205
8.20124e-05
4.85458e-05
-0.000588331
-0.000960621
0.0019831
-0.000949052
0.000769867
-0.00096991
0.000744517
-0.000848884
0.000450081
-0.000755471
0.000334284
-0.000653905
0.000238738
-0.000574019
0.000171633
-0.000510618
0.000129999
-0.000460792
9.47907e-05
-0.000426381
7.17836e-05
-0.000395433
5.10646e-05
3.74933e-05
-0.000384381
0.0019831
0.00275297
0.00349749
0.00394757
0.00428185
0.00452059
0.00469223
0.00482222
0.00491701
0.0049888
0.00503986
0.00507736
-7.79862e-05
2.99392e-05
-5.12249e-05
-6.03141e-05
1.22348e-05
-2.99069e-05
-4.92875e-05
-3.05872e-06
-7.96787e-06
-3.89373e-05
-1.47015e-05
4.35125e-06
-2.92976e-05
-2.37996e-05
1.41599e-05
-1.94351e-05
-3.04429e-05
2.05804e-05
-9.49446e-06
-3.4766e-05
2.48254e-05
-3.46771e-05
2.51827e-05
-8.55686e-05
6.85882e-06
-6.713e-05
-6.2037e-06
-5.51422e-05
-1.50466e-05
-4.37852e-05
-2.60585e-05
-3.31323e-05
-3.44524e-05
-2.20936e-05
-4.14816e-05
-1.08179e-05
-4.60417e-05
-4.5495e-05
-9.19516e-05
-4.9999e-06
-8.02753e-05
-1.78801e-05
-6.78696e-05
-2.74523e-05
-5.5148e-05
-3.87801e-05
-4.18063e-05
-4.77941e-05
-2.79507e-05
-5.53371e-05
-1.36731e-05
-6.03193e-05
-5.91682e-05
-0.000100526
-1.63468e-05
-8.89771e-05
-2.94287e-05
-7.60381e-05
-4.03913e-05
-6.23952e-05
-5.2423e-05
-4.77051e-05
-6.24842e-05
-3.20946e-05
-7.09476e-05
-1.57666e-05
-7.66474e-05
-7.49348e-05
-0.000111844
-2.46777e-05
-0.000101484
-3.97886e-05
-8.84292e-05
-5.34461e-05
-7.34679e-05
-6.73842e-05
-5.66583e-05
-7.92938e-05
-3.8264e-05
-8.9342e-05
-1.886e-05
-9.60513e-05
-9.37948e-05
-0.000125414
-3.28884e-05
-0.000114755
-5.04477e-05
-0.000100991
-6.72104e-05
-8.46102e-05
-8.37649e-05
-6.58413e-05
-9.80627e-05
-4.47243e-05
-0.000110459
-2.2177e-05
-0.000118599
-0.000115972
-0.000142787
-4.02204e-05
-0.000131843
-6.13912e-05
-0.000117329
-8.17246e-05
-9.90255e-05
-0.000102068
-7.77647e-05
-0.000119324
-5.29985e-05
-0.000135225
-2.64729e-05
-0.000145124
-0.000142445
-0.000163386
-4.73988e-05
-0.000152116
-7.26614e-05
-0.000136781
-9.70601e-05
-0.000116457
-0.000122392
-9.25289e-05
-0.000143251
-6.3423e-05
-0.000164331
-3.2042e-05
-0.000176505
-0.000174487
-0.00018768
-5.39707e-05
-0.000175844
-8.44969e-05
-0.000160049
-0.000112855
-0.000137008
-0.000145433
-0.00011064
-0.00016962
-7.59264e-05
-0.000199044
-3.91841e-05
-0.000213248
-0.000213671
-0.000218783
-5.97133e-05
-0.00020721
-9.60704e-05
-0.000191294
-0.000128771
-0.000166042
-0.000170685
-0.000136317
-0.000199345
-9.46506e-05
-0.000240711
-4.96966e-05
-0.000258202
-0.000263367
-0.000250041
-6.35447e-05
-0.000238173
-0.000107938
-0.000223722
-0.000143222
-0.00019561
-0.000198797
-0.000165219
-0.000229736
-0.000115289
-0.00029064
-6.349e-05
-0.000310001
-0.000326857
-0.000297151
-6.46991e-05
-0.000288119
-0.000116971
-0.000275898
-0.000155443
-0.00024733
-0.000227365
-0.000213823
-0.000263244
-0.000153149
-0.000351313
-8.68881e-05
-0.000376262
-0.000413745
-0.00033172
-6.22551e-05
-0.000323407
-0.000125284
-0.000317215
-0.000161634
-0.000288144
-0.000256436
-0.000261715
-0.000289673
-0.000191228
-0.0004218
-0.000120398
-0.000447091
-0.000534144
-0.00040212
-5.29928e-05
-0.000403536
-0.000123868
-0.000406638
-0.000158532
-0.000385251
-0.000277824
-0.000361161
-0.000313762
-0.000278258
-0.000504704
-0.000184049
-0.0005413
-0.000718193
-0.000427996
-4.05933e-05
-0.0004307
-0.000121165
-0.000446409
-0.000142823
-0.000433307
-0.000290926
-0.00044024
-0.000306829
-0.000361364
-0.00058358
-0.000290029
-0.000612635
-0.00100822
-0.000527949
-1.28764e-05
-0.000555298
-9.38159e-05
-0.000598294
-9.98267e-05
-0.000619102
-0.000270118
-0.000653318
-0.000272612
-0.000585997
-0.000650901
-0.000501274
-0.000697358
-0.0015095
-0.000516885
6.36944e-06
-0.000538365
-7.23363e-05
-0.000588025
-5.01661e-05
-0.000628814
-0.00022933
-0.000744134
-0.000157292
-0.000762661
-0.000632374
-0.000804005
-0.000656014
-0.0023135
-0.000636527
5.45653e-05
-0.000705467
-3.39569e-06
-0.000815889
6.02552e-05
-0.000951475
-9.37439e-05
-0.00111052
1.75786e-06
-0.00118722
-0.000555677
-0.000986191
-0.000857045
-0.00329969
-0.000355448
2.56328e-05
-0.000362506
3.66223e-06
-0.000307196
4.94531e-06
-0.000314885
-8.60553e-05
-0.000182866
-0.000130261
-0.000169511
-0.000569032
8.12823e-05
-0.00110784
-0.00321841
0.00510299
0.00510665
0.0051116
0.00502554
0.00489528
0.00432625
0.00321841
-1.31532e-06
1.31532e-06
-2.45672e-06
1.1414e-06
-3.14875e-06
6.92036e-07
-3.33363e-06
1.84881e-07
-2.99773e-06
-3.35908e-07
-2.23069e-06
-7.67041e-07
-1.15347e-06
-1.07722e-06
-1.15347e-06
-1.50429e-06
2.81961e-06
-2.79382e-06
2.43093e-06
-3.55333e-06
1.45155e-06
-3.7086e-06
3.40151e-07
-3.30948e-06
-7.35029e-07
-2.45476e-06
-1.62176e-06
-1.26751e-06
-2.26447e-06
-2.42098e-06
-2.27358e-06
5.09319e-06
-4.1281e-06
4.28544e-06
-5.14884e-06
2.47229e-06
-5.36232e-06
5.5363e-07
-4.74408e-06
-1.35327e-06
-3.48594e-06
-2.87989e-06
-1.79088e-06
-3.95953e-06
-4.21186e-06
-2.71713e-06
7.81032e-06
-4.88333e-06
6.45164e-06
-5.99251e-06
3.58148e-06
-6.05665e-06
6.17767e-07
-5.2798e-06
-2.13012e-06
-3.85698e-06
-4.30271e-06
-1.97313e-06
-5.84338e-06
-6.18499e-06
-5.20887e-06
1.30192e-05
-8.85735e-06
1.01001e-05
-1.0354e-05
5.07816e-06
-1.02992e-05
5.62888e-07
-8.77502e-06
-3.65426e-06
-6.28743e-06
-6.7903e-06
-3.18522e-06
-8.94559e-06
-9.37021e-06
-6.29424e-06
1.93134e-05
-1.06166e-05
1.44225e-05
-1.22158e-05
6.67737e-06
-1.17957e-05
1.42743e-07
-9.94531e-06
-5.50461e-06
-7.10537e-06
-9.63024e-06
-3.58858e-06
-1.24624e-05
-1.29588e-05
-1.43827e-05
3.36961e-05
-2.18032e-05
2.1843e-05
-2.25591e-05
7.43327e-06
-2.0672e-05
-1.7443e-06
-1.66495e-05
-9.52717e-06
-1.15149e-05
-1.47648e-05
-5.7263e-06
-1.8251e-05
-1.86851e-05
-1.75288e-05
-2.55926e-05
-2.61273e-05
-2.35203e-05
-1.88876e-05
-1.3072e-05
-6.49759e-06
)
;

boundaryField
{
    movingWall
    {
        type            calculated;
        value           uniform 0;
    }
    fixedWalls
    {
        type            calculated;
        value           uniform 0;
    }
    frontAndBack
    {
        type            empty;
        value           nonuniform List<scalar> 0();
    }
}


// ************************************************************************* //
