0 	-1.44727e-09
1.57135 	-1.03601e-06
3.1427 	-4.61863e-06
4.71405 	-1.16429e-05
6.28539 	-2.12237e-05
7.85674 	-2.93105e-05
9.42809 	-5.49549e-05
10.9994 	-0.000318614
12.5708 	-0.00200311
14.1421 	0.013839
