/*--------------------------------*- C++ -*----------------------------------*\
  =========                 |
  \\      /  F ield         | OpenFOAM: The Open Source CFD Toolbox
   \\    /   O peration     | Website:  https://openfoam.org
    \\  /    A nd           | Version:  8
     \\/     M anipulation  |
\*---------------------------------------------------------------------------*/
FoamFile
{
    version     2.0;
    format      ascii;
    class       volVectorField;
    location    "40";
    object      U;
}
// * * * * * * * * * * * * * * * * * * * * * * * * * * * * * * * * * * * * * //

dimensions      [0 1 -1 0 0 0 0];

internalField   nonuniform List<vector> 
11600
(
(-3.07369e-06 2.92835e-06 0)
(-4.28493e-05 1.54254e-05 0)
(-0.000113987 2.0377e-05 0)
(-0.000187321 2.19285e-05 0)
(-0.000265212 2.20755e-05 0)
(-0.000343154 2.19202e-05 0)
(-0.000421049 2.1818e-05 0)
(-0.000498954 2.1797e-05 0)
(-0.000576921 2.18295e-05 0)
(-0.000655004 2.18933e-05 0)
(-0.000733242 2.1976e-05 0)
(-0.000811661 2.20716e-05 0)
(-0.000890281 2.21773e-05 0)
(-0.000969117 2.22918e-05 0)
(-0.00104819 2.24143e-05 0)
(-0.0011275 2.25441e-05 0)
(-0.00120706 2.26807e-05 0)
(-0.00128689 2.28234e-05 0)
(-0.00136699 2.29719e-05 0)
(-0.00144737 2.31253e-05 0)
(-0.00152803 2.32832e-05 0)
(-0.00160898 2.34449e-05 0)
(-0.00169021 2.36096e-05 0)
(-0.00177172 2.37766e-05 0)
(-0.00185351 2.39451e-05 0)
(-0.00193557 2.41143e-05 0)
(-0.0020179 2.42833e-05 0)
(-0.00210048 2.44513e-05 0)
(-0.00218331 2.46171e-05 0)
(-0.00226636 2.478e-05 0)
(-0.00234962 2.49389e-05 0)
(-0.00243307 2.50927e-05 0)
(-0.00251669 2.52407e-05 0)
(-0.00260045 2.53817e-05 0)
(-0.00268433 2.5515e-05 0)
(-0.00276831 2.56395e-05 0)
(-0.00285236 2.57548e-05 0)
(-0.00293645 2.58601e-05 0)
(-0.00302056 2.59551e-05 0)
(-0.00310467 2.60396e-05 0)
(-0.00318877 2.61139e-05 0)
(-0.00327285 2.61784e-05 0)
(-0.00335692 2.6234e-05 0)
(-0.003441 2.62819e-05 0)
(-0.00352512 2.6323e-05 0)
(-0.00360937 2.63579e-05 0)
(-0.00369384 2.63842e-05 0)
(-0.00377868 2.6393e-05 0)
(-0.00386409 2.63593e-05 0)
(-0.00395034 2.62202e-05 0)
(-0.00403773 2.58288e-05 0)
(-0.00412654 2.48608e-05 0)
(-0.00421685 2.26423e-05 0)
(-0.00430865 1.78395e-05 0)
(-0.00440403 8.43603e-06 0)
(-0.00450611 -4.17989e-06 0)
(-0.00457663 -2.87578e-06 0)
(-0.00492418 3.72577e-05 0)
(-0.00492676 0.00058701 0)
(-0.00723271 0.0020901 0)
(-1.60303e-05 4.30085e-05 0)
(-0.000101247 9.98865e-05 0)
(-0.000237427 0.000124135 0)
(-0.000378835 0.000133306 0)
(-0.000528574 0.000135931 0)
(-0.000679468 0.000136464 0)
(-0.000830763 0.000136566 0)
(-0.000982276 0.000136662 0)
(-0.00113392 0.000136823 0)
(-0.0012857 0.000137041 0)
(-0.00143763 0.000137301 0)
(-0.00158971 0.000137594 0)
(-0.00174197 0.000137914 0)
(-0.00189441 0.000138255 0)
(-0.00204705 0.000138616 0)
(-0.00219987 0.000138992 0)
(-0.00235289 0.000139383 0)
(-0.00250611 0.000139784 0)
(-0.00265952 0.000140194 0)
(-0.00281311 0.000140609 0)
(-0.00296688 0.000141026 0)
(-0.00312082 0.000141442 0)
(-0.00327491 0.000141854 0)
(-0.00342913 0.000142259 0)
(-0.00358347 0.000142652 0)
(-0.00373789 0.00014303 0)
(-0.00389237 0.000143389 0)
(-0.00404688 0.000143726 0)
(-0.00420139 0.000144036 0)
(-0.00435585 0.000144317 0)
(-0.00451022 0.000144564 0)
(-0.00466447 0.000144773 0)
(-0.00481855 0.000144944 0)
(-0.00497241 0.000145072 0)
(-0.00512601 0.000145158 0)
(-0.00527929 0.0001452 0)
(-0.00543223 0.0001452 0)
(-0.00558478 0.000145161 0)
(-0.00573691 0.00014509 0)
(-0.0058886 0.000144995 0)
(-0.00603986 0.00014489 0)
(-0.00619072 0.000144795 0)
(-0.00634121 0.000144735 0)
(-0.00649145 0.000144747 0)
(-0.0066416 0.00014488 0)
(-0.00679188 0.000145198 0)
(-0.00694265 0.000145788 0)
(-0.00709441 0.000146762 0)
(-0.00724786 0.000148266 0)
(-0.00740404 0.000150486 0)
(-0.00756441 0.000153645 0)
(-0.00773119 0.000158024 0)
(-0.00790785 0.000164035 0)
(-0.00810059 0.000172618 0)
(-0.0083203 0.000187303 0)
(-0.00858127 0.000222729 0)
(-0.00891296 0.000319977 0)
(-0.0094775 0.000541885 0)
(-0.00995403 0.00137104 0)
(-0.0112886 0.00255398 0)
(-2.15272e-05 0.000115828 0)
(-0.000127542 0.000236891 0)
(-0.000293745 0.000289421 0)
(-0.000465614 0.000309973 0)
(-0.000646994 0.000316726 0)
(-0.000829744 0.000318641 0)
(-0.00101296 0.000319195 0)
(-0.00119641 0.000319475 0)
(-0.00137996 0.000319756 0)
(-0.00156358 0.000320088 0)
(-0.00174728 0.000320468 0)
(-0.00193104 0.000320887 0)
(-0.00211487 0.000321336 0)
(-0.00229878 0.00032181 0)
(-0.00248274 0.000322302 0)
(-0.00266676 0.000322807 0)
(-0.00285083 0.000323319 0)
(-0.00303493 0.000323834 0)
(-0.00321905 0.000324344 0)
(-0.00340317 0.000324845 0)
(-0.00358728 0.00032533 0)
(-0.00377133 0.000325793 0)
(-0.00395532 0.000326226 0)
(-0.0041392 0.000326623 0)
(-0.00432295 0.000326976 0)
(-0.00450652 0.000327278 0)
(-0.00468988 0.000327521 0)
(-0.00487298 0.000327699 0)
(-0.00505578 0.000327803 0)
(-0.00523821 0.000327828 0)
(-0.00542024 0.000327766 0)
(-0.00560179 0.000327614 0)
(-0.00578283 0.000327365 0)
(-0.00596328 0.00032702 0)
(-0.00614309 0.000326577 0)
(-0.00632222 0.000326039 0)
(-0.0065006 0.000325415 0)
(-0.00667819 0.000324715 0)
(-0.00685497 0.000323961 0)
(-0.00703093 0.00032318 0)
(-0.00720606 0.000322411 0)
(-0.0073804 0.000321711 0)
(-0.00755404 0.000321155 0)
(-0.0077271 0.000320844 0)
(-0.00789979 0.000320916 0)
(-0.00807242 0.000321557 0)
(-0.00824543 0.00032302 0)
(-0.00841943 0.000325652 0)
(-0.00859531 0.000329936 0)
(-0.00877429 0.00033656 0)
(-0.00895814 0.000346542 0)
(-0.0091494 0.00036148 0)
(-0.00935191 0.000384107 0)
(-0.00957182 0.000419688 0)
(-0.00981824 0.000479707 0)
(-0.0101026 0.000589403 0)
(-0.0104461 0.000797215 0)
(-0.0108923 0.00119715 0)
(-0.0112217 0.00204009 0)
(-0.0117863 0.00317114 0)
(-2.34428e-05 0.000192026 0)
(-0.000138159 0.000380761 0)
(-0.000317073 0.000462149 0)
(-0.000501184 0.000493666 0)
(-0.000695133 0.000504183 0)
(-0.000890383 0.000507281 0)
(-0.00108609 0.000508192 0)
(-0.00128202 0.000508595 0)
(-0.00147803 0.000508935 0)
(-0.00167409 0.000509307 0)
(-0.00187018 0.000509719 0)
(-0.00206627 0.000510163 0)
(-0.00226238 0.000510631 0)
(-0.00245848 0.000511113 0)
(-0.00265456 0.000511603 0)
(-0.00285061 0.000512093 0)
(-0.00304662 0.000512574 0)
(-0.00324255 0.00051304 0)
(-0.0034384 0.00051348 0)
(-0.00363413 0.000513888 0)
(-0.00382972 0.000514252 0)
(-0.00402514 0.000514564 0)
(-0.00422035 0.000514813 0)
(-0.00441532 0.00051499 0)
(-0.00461001 0.000515083 0)
(-0.00480437 0.000515082 0)
(-0.00499835 0.000514976 0)
(-0.00519191 0.000514754 0)
(-0.00538499 0.000514407 0)
(-0.00557753 0.000513924 0)
(-0.00576947 0.000513297 0)
(-0.00596075 0.000512519 0)
(-0.00615132 0.000511587 0)
(-0.00634109 0.000510496 0)
(-0.00653001 0.000509251 0)
(-0.00671803 0.000507857 0)
(-0.00690508 0.000506328 0)
(-0.00709111 0.000504687 0)
(-0.0072761 0.000502966 0)
(-0.00746001 0.000501214 0)
(-0.00764285 0.000499496 0)
(-0.00782465 0.000497905 0)
(-0.00800547 0.000496563 0)
(-0.00818544 0.000495638 0)
(-0.00836476 0.000495353 0)
(-0.00854372 0.00049601 0)
(-0.00872273 0.000498019 0)
(-0.00890238 0.000501942 0)
(-0.00908351 0.000508558 0)
(-0.00926729 0.000518967 0)
(-0.00945534 0.000534772 0)
(-0.00964997 0.000558401 0)
(-0.00985443 0.000593726 0)
(-0.0100731 0.000647399 0)
(-0.0103113 0.000731645 0)
(-0.0105731 0.00086866 0)
(-0.0108611 0.00109549 0)
(-0.0111559 0.00147605 0)
(-0.0113338 0.00211736 0)
(-0.0114311 0.00288638 0)
(-2.37385e-05 0.000273363 0)
(-0.000141464 0.000533782 0)
(-0.000325218 0.000645235 0)
(-0.000513784 0.000688029 0)
(-0.000712299 0.000702404 0)
(-0.000911993 0.000706726 0)
(-0.00111209 0.000708022 0)
(-0.0013124 0.000708557 0)
(-0.00151277 0.000708952 0)
(-0.00171317 0.000709347 0)
(-0.00191358 0.000709765 0)
(-0.00211399 0.000710202 0)
(-0.00231437 0.000710648 0)
(-0.00251472 0.000711096 0)
(-0.00271502 0.000711535 0)
(-0.00291526 0.000711957 0)
(-0.00311541 0.00071235 0)
(-0.00331545 0.000712704 0)
(-0.00351536 0.000713009 0)
(-0.0037151 0.000713253 0)
(-0.00391466 0.000713422 0)
(-0.004114 0.000713505 0)
(-0.00431308 0.000713487 0)
(-0.00451186 0.000713356 0)
(-0.0047103 0.000713098 0)
(-0.00490836 0.000712697 0)
(-0.00510597 0.000712139 0)
(-0.00530309 0.000711412 0)
(-0.00549967 0.0007105 0)
(-0.00569563 0.000709392 0)
(-0.00589092 0.000708078 0)
(-0.00608548 0.000706547 0)
(-0.00627922 0.000704795 0)
(-0.00647209 0.000702819 0)
(-0.00666402 0.000700623 0)
(-0.00685493 0.000698217 0)
(-0.00704477 0.00069562 0)
(-0.00723347 0.000692863 0)
(-0.00742099 0.000689992 0)
(-0.00760729 0.000687072 0)
(-0.00779234 0.000684193 0)
(-0.00797615 0.00068148 0)
(-0.00815876 0.0006791 0)
(-0.00834024 0.000677276 0)
(-0.00852073 0.000676311 0)
(-0.00870042 0.000676608 0)
(-0.00887962 0.000678715 0)
(-0.00905874 0.000683379 0)
(-0.00923836 0.000691628 0)
(-0.00941923 0.000704907 0)
(-0.00960238 0.000725282 0)
(-0.00978905 0.000755786 0)
(-0.00998077 0.000800994 0)
(-0.010179 0.000868049 0)
(-0.0103842 0.000968294 0)
(-0.0105941 0.00111919 0)
(-0.0107995 0.0013461 0)
(-0.0109693 0.00168428 0)
(-0.0110322 0.00216223 0)
(-0.0109576 0.00271056 0)
(-2.35856e-05 0.000354955 0)
(-0.000142123 0.000688346 0)
(-0.000327502 0.000830158 0)
(-0.000517517 0.000884188 0)
(-0.000717545 0.000902307 0)
(-0.000918662 0.000907766 0)
(-0.00112014 0.000909396 0)
(-0.00132181 0.00091004 0)
(-0.00152355 0.000910476 0)
(-0.0017253 0.000910886 0)
(-0.00192706 0.000911302 0)
(-0.00212881 0.000911721 0)
(-0.00233053 0.000912135 0)
(-0.00253222 0.000912536 0)
(-0.00273386 0.000912911 0)
(-0.00293542 0.000913249 0)
(-0.00313689 0.000913538 0)
(-0.00333825 0.000913764 0)
(-0.00353946 0.000913915 0)
(-0.00374051 0.000913975 0)
(-0.00394137 0.00091393 0)
(-0.00414199 0.000913762 0)
(-0.00434235 0.000913457 0)
(-0.0045424 0.000912995 0)
(-0.0047421 0.00091236 0)
(-0.00494139 0.000911534 0)
(-0.00514024 0.000910499 0)
(-0.00533859 0.000909237 0)
(-0.00553637 0.000907731 0)
(-0.00573352 0.000905966 0)
(-0.00592999 0.000903928 0)
(-0.00612569 0.000901605 0)
(-0.00632056 0.00089899 0)
(-0.00651452 0.000896079 0)
(-0.00670749 0.000892877 0)
(-0.00689941 0.000889393 0)
(-0.00709019 0.000885652 0)
(-0.00727976 0.000881689 0)
(-0.00746806 0.000877558 0)
(-0.00765502 0.000873337 0)
(-0.00784059 0.000869133 0)
(-0.00802474 0.000865092 0)
(-0.00820745 0.000861413 0)
(-0.00838872 0.000858357 0)
(-0.00856861 0.000856275 0)
(-0.00874718 0.000855636 0)
(-0.00892457 0.000857064 0)
(-0.00910096 0.000861399 0)
(-0.00927658 0.000869776 0)
(-0.00945172 0.000883744 0)
(-0.00962667 0.00090544 0)
(-0.00980165 0.000937845 0)
(-0.00997661 0.000985163 0)
(-0.0101507 0.00105339 0)
(-0.0103213 0.00115099 0)
(-0.0104824 0.0012894 0)
(-0.0106209 0.001483 0)
(-0.0107091 0.00174698 0)
(-0.0107046 0.0020824 0)
(-0.0105702 0.00245113 0)
(-2.34071e-05 0.000436439 0)
(-0.000142039 0.000843327 0)
(-0.000327851 0.00101563 0)
(-0.000518268 0.00108092 0)
(-0.000718754 0.00110275 0)
(-0.000920285 0.0011093 0)
(-0.00112216 0.00111125 0)
(-0.00132421 0.00111199 0)
(-0.00152632 0.00111246 0)
(-0.00172845 0.00111289 0)
(-0.00193059 0.0011133 0)
(-0.00213273 0.00111371 0)
(-0.00233485 0.00111409 0)
(-0.00253694 0.00111445 0)
(-0.00273898 0.00111476 0)
(-0.00294096 0.00111502 0)
(-0.00314285 0.00111521 0)
(-0.00334464 0.00111531 0)
(-0.00354629 0.00111531 0)
(-0.0037478 0.0011152 0)
(-0.00394911 0.00111494 0)
(-0.0041502 0.00111453 0)
(-0.00435104 0.00111394 0)
(-0.00455159 0.00111315 0)
(-0.00475179 0.00111214 0)
(-0.0049516 0.0011109 0)
(-0.00515098 0.00110939 0)
(-0.00534986 0.00110759 0)
(-0.00554819 0.00110549 0)
(-0.0057459 0.00110307 0)
(-0.00594292 0.00110031 0)
(-0.00613918 0.00109718 0)
(-0.00633461 0.00109369 0)
(-0.00652911 0.00108983 0)
(-0.00672262 0.00108559 0)
(-0.00691504 0.00108099 0)
(-0.00710628 0.00107605 0)
(-0.00729626 0.00107081 0)
(-0.00748489 0.00106533 0)
(-0.00767207 0.00105968 0)
(-0.00785772 0.00105399 0)
(-0.00804176 0.00104841 0)
(-0.00822411 0.00104316 0)
(-0.0084047 0.0010385 0)
(-0.00858348 0.00103482 0)
(-0.00876037 0.00103261 0)
(-0.00893534 0.0010325 0)
(-0.0091083 0.00103535 0)
(-0.00927916 0.00104229 0)
(-0.00944774 0.00105481 0)
(-0.00961371 0.00107488 0)
(-0.00977642 0.00110514 0)
(-0.00993465 0.00114907 0)
(-0.0100861 0.00121123 0)
(-0.0102267 0.00129737 0)
(-0.0103491 0.00141426 0)
(-0.0104409 0.00156879 0)
(-0.0104816 0.00176483 0)
(-0.0104448 0.00199502 0)
(-0.0103051 0.00223458 0)
(-2.32694e-05 0.000517745 0)
(-0.000141791 0.000998381 0)
(-0.000327641 0.00120128 0)
(-0.000518132 0.00127787 0)
(-0.000718741 0.00130341 0)
(-0.000920382 0.00131105 0)
(-0.00112236 0.0013133 0)
(-0.00132451 0.00131413 0)
(-0.00152672 0.00131465 0)
(-0.00172895 0.00131509 0)
(-0.0019312 0.00131551 0)
(-0.00213345 0.00131591 0)
(-0.0023357 0.00131628 0)
(-0.00253793 0.0013166 0)
(-0.00274012 0.00131686 0)
(-0.00294226 0.00131705 0)
(-0.00314433 0.00131715 0)
(-0.00334631 0.00131714 0)
(-0.00354818 0.00131701 0)
(-0.00374991 0.00131673 0)
(-0.00395147 0.00131628 0)
(-0.00415283 0.00131564 0)
(-0.00435395 0.00131478 0)
(-0.0045548 0.00131368 0)
(-0.00475533 0.00131232 0)
(-0.0049555 0.00131067 0)
(-0.00515524 0.00130871 0)
(-0.00535452 0.0013064 0)
(-0.00555325 0.00130372 0)
(-0.00575139 0.00130065 0)
(-0.00594886 0.00129717 0)
(-0.00614558 0.00129325 0)
(-0.00634146 0.00128888 0)
(-0.00653644 0.00128406 0)
(-0.0067304 0.00127877 0)
(-0.00692326 0.00127303 0)
(-0.00711491 0.00126685 0)
(-0.00730525 0.00126027 0)
(-0.00749416 0.00125334 0)
(-0.00768152 0.00124615 0)
(-0.00786721 0.0012388 0)
(-0.00805111 0.00123146 0)
(-0.00823306 0.00122434 0)
(-0.00841293 0.0012177 0)
(-0.00859054 0.00121191 0)
(-0.00876572 0.00120746 0)
(-0.00893822 0.00120494 0)
(-0.00910776 0.00120516 0)
(-0.00927395 0.00120914 0)
(-0.00943623 0.00121819 0)
(-0.00959379 0.00123398 0)
(-0.00974539 0.00125864 0)
(-0.00988913 0.00129476 0)
(-0.0100221 0.00134548 0)
(-0.0101396 0.00141428 0)
(-0.0102348 0.00150456 0)
(-0.0102974 0.00161862 0)
(-0.0103132 0.00175525 0)
(-0.0102657 0.0019057 0)
(-0.0101402 0.00205172 0)
(-2.31597e-05 0.000598855 0)
(-0.000141516 0.00115334 0)
(-0.000327281 0.00138691 0)
(-0.000517752 0.00147487 0)
(-0.000718382 0.00150412 0)
(-0.000920046 0.00151285 0)
(-0.00112205 0.0015154 0)
(-0.00132422 0.00151633 0)
(-0.00152646 0.00151688 0)
(-0.00172873 0.00151735 0)
(-0.00193102 0.00151779 0)
(-0.00213333 0.00151819 0)
(-0.00233565 0.00151855 0)
(-0.00253795 0.00151885 0)
(-0.00274024 0.00151908 0)
(-0.00294249 0.00151922 0)
(-0.00314469 0.00151925 0)
(-0.00334682 0.00151915 0)
(-0.00354886 0.0015189 0)
(-0.00375078 0.00151847 0)
(-0.00395256 0.00151785 0)
(-0.00415416 0.001517 0)
(-0.00435554 0.0015159 0)
(-0.00455668 0.00151452 0)
(-0.00475753 0.00151283 0)
(-0.00495804 0.0015108 0)
(-0.00515816 0.0015084 0)
(-0.00535784 0.0015056 0)
(-0.005557 0.00150237 0)
(-0.00575559 0.00149867 0)
(-0.00595353 0.00149449 0)
(-0.00615074 0.00148979 0)
(-0.00634714 0.00148456 0)
(-0.00654263 0.00147877 0)
(-0.00673711 0.00147242 0)
(-0.00693048 0.00146552 0)
(-0.00712261 0.00145806 0)
(-0.00731339 0.00145008 0)
(-0.00750267 0.00144162 0)
(-0.00769031 0.00143276 0)
(-0.00787615 0.0014236 0)
(-0.00806001 0.00141429 0)
(-0.00824169 0.001405 0)
(-0.00842098 0.00139601 0)
(-0.00859761 0.00138764 0)
(-0.00877128 0.00138031 0)
(-0.00894161 0.00137456 0)
(-0.00910812 0.0013711 0)
(-0.0092702 0.00137078 0)
(-0.00942704 0.00137467 0)
(-0.00957749 0.00138408 0)
(-0.00971999 0.00140056 0)
(-0.00985234 0.0014259 0)
(-0.00997141 0.001462 0)
(-0.0100728 0.00151067 0)
(-0.0101506 0.00157313 0)
(-0.0101969 0.00164916 0)
(-0.0102019 0.00173559 0)
(-0.0101557 0.00182441 0)
(-0.0100502 0.00190209 0)
(-2.3061e-05 0.000679775 0)
(-0.000141233 0.00130815 0)
(-0.000326872 0.00157247 0)
(-0.000517295 0.00167183 0)
(-0.000717914 0.00170483 0)
(-0.000919578 0.00171466 0)
(-0.00112159 0.00171751 0)
(-0.00132377 0.00171853 0)
(-0.00152603 0.00171914 0)
(-0.00172832 0.00171964 0)
(-0.00193065 0.0017201 0)
(-0.002133 0.00172052 0)
(-0.00233538 0.00172088 0)
(-0.00253776 0.00172118 0)
(-0.00274014 0.00172139 0)
(-0.00294251 0.0017215 0)
(-0.00314484 0.00172147 0)
(-0.00334713 0.0017213 0)
(-0.00354934 0.00172096 0)
(-0.00375147 0.00172042 0)
(-0.00395348 0.00171965 0)
(-0.00415533 0.00171862 0)
(-0.00435701 0.00171731 0)
(-0.00455847 0.00171567 0)
(-0.00475967 0.00171368 0)
(-0.00496057 0.0017113 0)
(-0.0051611 0.0017085 0)
(-0.00536123 0.00170524 0)
(-0.00556088 0.00170148 0)
(-0.00575998 0.00169719 0)
(-0.00595846 0.00169233 0)
(-0.00615625 0.00168687 0)
(-0.00635324 0.00168078 0)
(-0.00654934 0.00167405 0)
(-0.00674444 0.00166664 0)
(-0.00693842 0.00165855 0)
(-0.00713115 0.00164978 0)
(-0.0073225 0.00164035 0)
(-0.00751229 0.00163029 0)
(-0.00770037 0.00161966 0)
(-0.00788652 0.00160854 0)
(-0.00807055 0.00159705 0)
(-0.00825219 0.00158535 0)
(-0.00843115 0.00157366 0)
(-0.00860711 0.00156226 0)
(-0.00877966 0.0015515 0)
(-0.0089483 0.00154184 0)
(-0.00911243 0.00153382 0)
(-0.00927127 0.00152813 0)
(-0.00942384 0.00152557 0)
(-0.00956883 0.00152707 0)
(-0.00970454 0.00153367 0)
(-0.0098287 0.00154645 0)
(-0.00993835 0.0015664 0)
(-0.0100296 0.00159416 0)
(-0.0100976 0.00162965 0)
(-0.0101365 0.00167142 0)
(-0.0101395 0.00171581 0)
(-0.0101008 0.00175609 0)
(-0.0100161 0.00178232 0)
(-2.29623e-05 0.000760504 0)
(-0.000140935 0.00146279 0)
(-0.00032643 0.00175793 0)
(-0.000516794 0.00186877 0)
(-0.000717391 0.00190553 0)
(-0.000919048 0.00191646 0)
(-0.00112106 0.00191962 0)
(-0.00132325 0.00192075 0)
(-0.00152552 0.00192141 0)
(-0.00172784 0.00192196 0)
(-0.00193021 0.00192246 0)
(-0.00213261 0.0019229 0)
(-0.00233506 0.00192329 0)
(-0.00253752 0.0019236 0)
(-0.00274001 0.00192381 0)
(-0.0029425 0.0019239 0)
(-0.00314498 0.00192385 0)
(-0.00334744 0.00192364 0)
(-0.00354985 0.00192323 0)
(-0.0037522 0.00192259 0)
(-0.00395447 0.0019217 0)
(-0.00415662 0.00192053 0)
(-0.00435862 0.00191903 0)
(-0.00456043 0.00191717 0)
(-0.00476203 0.00191492 0)
(-0.00496336 0.00191223 0)
(-0.00516437 0.00190906 0)
(-0.005365 0.00190537 0)
(-0.0055652 0.00190112 0)
(-0.00576489 0.00189627 0)
(-0.005964 0.00189076 0)
(-0.00616244 0.00188457 0)
(-0.00636012 0.00187766 0)
(-0.00655694 0.00186998 0)
(-0.00675277 0.00186152 0)
(-0.0069475 0.00185225 0)
(-0.00714098 0.00184216 0)
(-0.00733305 0.00183124 0)
(-0.00752353 0.00181952 0)
(-0.00771223 0.00180703 0)
(-0.00789893 0.00179382 0)
(-0.00808337 0.00177999 0)
(-0.00826525 0.00176566 0)
(-0.00844425 0.00175099 0)
(-0.00861995 0.0017362 0)
(-0.00879188 0.00172157 0)
(-0.00895947 0.00170742 0)
(-0.00912201 0.00169418 0)
(-0.00927864 0.00168231 0)
(-0.00942828 0.00167238 0)
(-0.00956958 0.00166498 0)
(-0.0097008 0.0016607 0)
(-0.00981981 0.00166007 0)
(-0.00992392 0.00166342 0)
(-0.0100098 0.00167064 0)
(-0.0100737 0.00168092 0)
(-0.0101111 0.00169232 0)
(-0.0101176 0.00170134 0)
(-0.0100895 0.00170252 0)
(-0.0100248 0.00168858 0)
(-2.28577e-05 0.00084103 0)
(-0.000140614 0.00161724 0)
(-0.000325953 0.00194328 0)
(-0.000516252 0.00206565 0)
(-0.00071682 0.00210621 0)
(-0.000918465 0.00211826 0)
(-0.00112047 0.00212174 0)
(-0.00132267 0.00212298 0)
(-0.00152496 0.00212371 0)
(-0.00172731 0.00212431 0)
(-0.00192972 0.00212486 0)
(-0.00213218 0.00212535 0)
(-0.0023347 0.00212578 0)
(-0.00253726 0.00212612 0)
(-0.00273986 0.00212635 0)
(-0.00294248 0.00212645 0)
(-0.00314513 0.0021264 0)
(-0.00334778 0.00212616 0)
(-0.00355041 0.00212572 0)
(-0.00375301 0.00212502 0)
(-0.00395556 0.00212405 0)
(-0.00415803 0.00212276 0)
(-0.00436039 0.00212112 0)
(-0.00456261 0.00211908 0)
(-0.00476464 0.0021166 0)
(-0.00496645 0.00211364 0)
(-0.00516799 0.00211014 0)
(-0.00536919 0.00210607 0)
(-0.00557001 0.00210137 0)
(-0.00577037 0.00209599 0)
(-0.00597019 0.00208989 0)
(-0.00616938 0.002083 0)
(-0.00636786 0.00207529 0)
(-0.00656551 0.00206671 0)
(-0.0067622 0.00205721 0)
(-0.00695782 0.00204677 0)
(-0.00715219 0.00203535 0)
(-0.00734517 0.00202293 0)
(-0.00753654 0.00200951 0)
(-0.0077261 0.00199509 0)
(-0.00791359 0.00197971 0)
(-0.00809874 0.00196342 0)
(-0.00828122 0.00194628 0)
(-0.00846064 0.00192842 0)
(-0.00863657 0.00190996 0)
(-0.00880847 0.00189111 0)
(-0.00897573 0.00187207 0)
(-0.00913757 0.00185313 0)
(-0.0092931 0.00183456 0)
(-0.00944121 0.00181669 0)
(-0.00958055 0.00179983 0)
(-0.00970948 0.00178421 0)
(-0.00982602 0.00176996 0)
(-0.00992783 0.00175694 0)
(-0.0100122 0.00174459 0)
(-0.010076 0.00173174 0)
(-0.0101161 0.00171636 0)
(-0.0101294 0.00169531 0)
(-0.0101136 0.00166427 0)
(-0.0100677 0.00161787 0)
(-2.27447e-05 0.000921339 0)
(-0.000140266 0.00177149 0)
(-0.000325433 0.00212853 0)
(-0.000515661 0.00226249 0)
(-0.000716195 0.00230687 0)
(-0.000917824 0.00232005 0)
(-0.00111983 0.00232386 0)
(-0.00132204 0.00232523 0)
(-0.00152434 0.00232603 0)
(-0.00172672 0.0023267 0)
(-0.00192917 0.00232731 0)
(-0.0021317 0.00232787 0)
(-0.00233429 0.00232835 0)
(-0.00253695 0.00232874 0)
(-0.00273968 0.00232902 0)
(-0.00294245 0.00232916 0)
(-0.00314527 0.00232913 0)
(-0.00334813 0.00232891 0)
(-0.003551 0.00232845 0)
(-0.00375388 0.00232773 0)
(-0.00395673 0.00232671 0)
(-0.00415955 0.00232535 0)
(-0.0043623 0.0023236 0)
(-0.00456496 0.00232142 0)
(-0.00476748 0.00231876 0)
(-0.00496982 0.00231557 0)
(-0.00517194 0.0023118 0)
(-0.00537378 0.0023074 0)
(-0.00557528 0.0023023 0)
(-0.00577638 0.00229645 0)
(-0.005977 0.00228979 0)
(-0.00617705 0.00228225 0)
(-0.00637642 0.00227379 0)
(-0.00657502 0.00226434 0)
(-0.00677272 0.00225385 0)
(-0.00696937 0.00224226 0)
(-0.00716482 0.00222953 0)
(-0.00735889 0.00221561 0)
(-0.00755137 0.00220048 0)
(-0.00774203 0.00218412 0)
(-0.00793061 0.00216651 0)
(-0.00811681 0.00214767 0)
(-0.00830026 0.00212762 0)
(-0.00848057 0.00210641 0)
(-0.00865726 0.00208411 0)
(-0.00882977 0.00206082 0)
(-0.00899746 0.00203663 0)
(-0.00915953 0.00201169 0)
(-0.00931509 0.00198612 0)
(-0.00946302 0.00196003 0)
(-0.00960206 0.0019335 0)
(-0.00973067 0.00190649 0)
(-0.0098471 0.00187883 0)
(-0.0099493 0.00185007 0)
(-0.010035 0.0018194 0)
(-0.0101019 0.00178553 0)
(-0.0101475 0.00174649 0)
(-0.0101697 0.00169958 0)
(-0.010167 0.00164138 0)
(-0.0101388 0.00156791 0)
(-2.26218e-05 0.00100141 0)
(-0.000139887 0.00192553 0)
(-0.000324867 0.00231365 0)
(-0.000515015 0.00245926 0)
(-0.00071551 0.0025075 0)
(-0.00091712 0.00252183 0)
(-0.00111911 0.00252598 0)
(-0.00132133 0.00252748 0)
(-0.00152365 0.00252837 0)
(-0.00172606 0.00252912 0)
(-0.00192855 0.00252982 0)
(-0.00213114 0.00253045 0)
(-0.00233382 0.00253102 0)
(-0.00253659 0.00253149 0)
(-0.00273944 0.00253183 0)
(-0.00294237 0.00253204 0)
(-0.00314538 0.00253206 0)
(-0.00334846 0.00253188 0)
(-0.00355159 0.00253145 0)
(-0.00375476 0.00253074 0)
(-0.00395795 0.00252971 0)
(-0.00416114 0.00252832 0)
(-0.00436432 0.00252651 0)
(-0.00456745 0.00252424 0)
(-0.00477049 0.00252145 0)
(-0.00497341 0.00251809 0)
(-0.00517616 0.0025141 0)
(-0.0053787 0.00250942 0)
(-0.00558096 0.00250398 0)
(-0.00578288 0.00249771 0)
(-0.00598438 0.00249055 0)
(-0.00618538 0.00248243 0)
(-0.00638577 0.00247328 0)
(-0.00658545 0.00246302 0)
(-0.00678429 0.00245158 0)
(-0.00698214 0.00243889 0)
(-0.00717884 0.00242489 0)
(-0.00737421 0.00240951 0)
(-0.00756803 0.00239269 0)
(-0.00776007 0.00237438 0)
(-0.00795004 0.00235453 0)
(-0.00813763 0.00233312 0)
(-0.00832248 0.00231011 0)
(-0.00850415 0.00228549 0)
(-0.00868217 0.00225925 0)
(-0.00885595 0.00223141 0)
(-0.00902485 0.00220196 0)
(-0.00918809 0.0021709 0)
(-0.00934476 0.00213822 0)
(-0.00949383 0.00210387 0)
(-0.00963409 0.00206773 0)
(-0.00976415 0.00202955 0)
(-0.00988245 0.00198895 0)
(-0.00998726 0.00194531 0)
(-0.0100767 0.00189769 0)
(-0.0101489 0.00184476 0)
(-0.010202 0.00178472 0)
(-0.0102345 0.0017153 0)
(-0.0102453 0.00163374 0)
(-0.010234 0.00153702 0)
(-2.24883e-05 0.00108123 0)
(-0.000139474 0.00207932 0)
(-0.00032425 0.00249864 0)
(-0.000514309 0.00265597 0)
(-0.000714757 0.0027081 0)
(-0.000916341 0.00272359 0)
(-0.00111832 0.00272809 0)
(-0.00132054 0.00272974 0)
(-0.00152287 0.00273074 0)
(-0.0017253 0.00273159 0)
(-0.00192785 0.00273238 0)
(-0.0021305 0.00273312 0)
(-0.00233326 0.00273378 0)
(-0.00253614 0.00273435 0)
(-0.00273913 0.00273479 0)
(-0.00294222 0.00273509 0)
(-0.00314543 0.0027352 0)
(-0.00334874 0.00273509 0)
(-0.00355213 0.00273474 0)
(-0.00375561 0.00273408 0)
(-0.00395916 0.00273309 0)
(-0.00416276 0.0027317 0)
(-0.00436639 0.00272989 0)
(-0.00457002 0.00272757 0)
(-0.00477362 0.00272471 0)
(-0.00497717 0.00272124 0)
(-0.00518061 0.00271709 0)
(-0.0053839 0.00271219 0)
(-0.00558699 0.00270648 0)
(-0.00578981 0.00269987 0)
(-0.00599228 0.00269228 0)
(-0.00619432 0.00268365 0)
(-0.00639584 0.00267387 0)
(-0.00659673 0.00266287 0)
(-0.00679685 0.00265055 0)
(-0.00699606 0.00263683 0)
(-0.00719421 0.00262162 0)
(-0.00739109 0.00260483 0)
(-0.0075865 0.00258638 0)
(-0.00778019 0.00256617 0)
(-0.00797187 0.00254412 0)
(-0.00816123 0.00252016 0)
(-0.00834789 0.0024942 0)
(-0.00853143 0.00246618 0)
(-0.00871134 0.00243601 0)
(-0.00888707 0.00240361 0)
(-0.00905796 0.00236889 0)
(-0.00922326 0.00233175 0)
(-0.00938211 0.00229204 0)
(-0.00953352 0.00224956 0)
(-0.00967639 0.00220406 0)
(-0.00980945 0.00215513 0)
(-0.00993134 0.00210226 0)
(-0.0100406 0.0020447 0)
(-0.0101356 0.00198147 0)
(-0.0102149 0.00191128 0)
(-0.010277 0.00183251 0)
(-0.0103207 0.00174321 0)
(-0.0103453 0.00164118 0)
(-0.0103503 0.00152407 0)
(-2.23437e-05 0.00116076 0)
(-0.000139026 0.00223285 0)
(-0.000323577 0.00268348 0)
(-0.000513536 0.00285261 0)
(-0.000713929 0.00290866 0)
(-0.000915479 0.00292533 0)
(-0.00111744 0.0029302 0)
(-0.00131965 0.00293201 0)
(-0.00152199 0.00293312 0)
(-0.00172445 0.00293408 0)
(-0.00192703 0.00293499 0)
(-0.00212974 0.00293585 0)
(-0.00233259 0.00293664 0)
(-0.00253558 0.00293733 0)
(-0.0027387 0.0029379 0)
(-0.00294197 0.00293832 0)
(-0.00314538 0.00293856 0)
(-0.00334892 0.00293857 0)
(-0.0035526 0.00293831 0)
(-0.00375641 0.00293776 0)
(-0.00396033 0.00293685 0)
(-0.00416435 0.00293553 0)
(-0.00436845 0.00293376 0)
(-0.00457262 0.00293146 0)
(-0.00477682 0.00292859 0)
(-0.00498103 0.00292507 0)
(-0.00518521 0.00292083 0)
(-0.00538931 0.00291579 0)
(-0.00559329 0.00290987 0)
(-0.00579708 0.002903 0)
(-0.00600061 0.00289507 0)
(-0.0062038 0.002886 0)
(-0.00640655 0.00287569 0)
(-0.00660877 0.00286403 0)
(-0.00681032 0.00285093 0)
(-0.00701107 0.00283627 0)
(-0.00721084 0.00281994 0)
(-0.00740946 0.00280183 0)
(-0.0076067 0.00278182 0)
(-0.00780233 0.00275979 0)
(-0.00799605 0.00273563 0)
(-0.00818755 0.00270919 0)
(-0.00837646 0.00268037 0)
(-0.00856235 0.00264902 0)
(-0.00874474 0.00261499 0)
(-0.00892307 0.00257813 0)
(-0.00909671 0.00253827 0)
(-0.00926494 0.00249519 0)
(-0.00942695 0.00244865 0)
(-0.00958182 0.00239834 0)
(-0.00972852 0.00234387 0)
(-0.00986595 0.00228475 0)
(-0.00999289 0.00222036 0)
(-0.0101081 0.00214988 0)
(-0.0102101 0.00207234 0)
(-0.0102979 0.0019865 0)
(-0.0103701 0.0018909 0)
(-0.0104258 0.00178389 0)
(-0.0104644 0.00166364 0)
(-0.0104856 0.00152828 0)
(-2.21874e-05 0.00123999 0)
(-0.00013854 0.0023861 0)
(-0.000322844 0.00286816 0)
(-0.000512689 0.00304916 0)
(-0.000713016 0.00310917 0)
(-0.000914525 0.00312704 0)
(-0.00111646 0.00313229 0)
(-0.00131865 0.00313427 0)
(-0.00152099 0.00313551 0)
(-0.00172347 0.00313661 0)
(-0.00192608 0.00313766 0)
(-0.00212885 0.00313866 0)
(-0.00233178 0.00313959 0)
(-0.00253487 0.00314044 0)
(-0.00273814 0.00314117 0)
(-0.00294157 0.00314175 0)
(-0.00314519 0.00314214 0)
(-0.00334898 0.0031423 0)
(-0.00355295 0.0031422 0)
(-0.00375708 0.00314179 0)
(-0.00396139 0.00314101 0)
(-0.00416585 0.00313982 0)
(-0.00437045 0.00313814 0)
(-0.00457518 0.00313593 0)
(-0.00478002 0.00313312 0)
(-0.00498493 0.00312962 0)
(-0.00518989 0.00312536 0)
(-0.00539486 0.00312026 0)
(-0.00559978 0.00311423 0)
(-0.00580461 0.00310718 0)
(-0.00600928 0.003099 0)
(-0.00621371 0.0030896 0)
(-0.00641781 0.00307885 0)
(-0.00662149 0.00306664 0)
(-0.00682461 0.00305286 0)
(-0.00702705 0.00303737 0)
(-0.00722865 0.00302003 0)
(-0.00742921 0.00300072 0)
(-0.00762854 0.00297928 0)
(-0.00782638 0.00295556 0)
(-0.00802247 0.00292939 0)
(-0.00821649 0.00290063 0)
(-0.00840807 0.00286907 0)
(-0.00859681 0.00283453 0)
(-0.00878223 0.00279681 0)
(-0.00896379 0.00275568 0)
(-0.00914091 0.00271088 0)
(-0.00931289 0.00266213 0)
(-0.00947897 0.00260907 0)
(-0.00963831 0.00255132 0)
(-0.00978997 0.0024884 0)
(-0.00993296 0.00241973 0)
(-0.0100662 0.00234462 0)
(-0.0101886 0.00226224 0)
(-0.010299 0.0021716 0)
(-0.0103963 0.00207154 0)
(-0.0104796 0.00196076 0)
(-0.010548 0.00183781 0)
(-0.0106009 0.00170114 0)
(-0.0106379 0.00154923 0)
(-2.2019e-05 0.00131889 0)
(-0.000138014 0.00253904 0)
(-0.000322046 0.00305265 0)
(-0.000511763 0.00324561 0)
(-0.000712012 0.00330962 0)
(-0.000913467 0.00332871 0)
(-0.00111536 0.00333435 0)
(-0.00131753 0.00333652 0)
(-0.00151986 0.00333791 0)
(-0.00172234 0.00333916 0)
(-0.00192499 0.00334036 0)
(-0.0021278 0.00334153 0)
(-0.00233081 0.00334264 0)
(-0.002534 0.00334367 0)
(-0.0027374 0.00334459 0)
(-0.002941 0.00334536 0)
(-0.00314482 0.00334594 0)
(-0.00334886 0.00334631 0)
(-0.00355312 0.0033464 0)
(-0.0037576 0.00334618 0)
(-0.0039623 0.00334559 0)
(-0.00416721 0.00334458 0)
(-0.00437233 0.00334308 0)
(-0.00457765 0.00334101 0)
(-0.00478314 0.00333833 0)
(-0.00498879 0.00333493 0)
(-0.00519457 0.00333074 0)
(-0.00540044 0.00332567 0)
(-0.00560637 0.00331962 0)
(-0.00581231 0.00331249 0)
(-0.00601819 0.00330417 0)
(-0.00622395 0.00329453 0)
(-0.00642951 0.00328347 0)
(-0.00663476 0.00327084 0)
(-0.0068396 0.0032565 0)
(-0.00704389 0.00324031 0)
(-0.00724749 0.00322211 0)
(-0.00745022 0.00320174 0)
(-0.00765187 0.00317902 0)
(-0.00785221 0.00315376 0)
(-0.00805098 0.00312578 0)
(-0.00824788 0.00309485 0)
(-0.00844255 0.00306075 0)
(-0.00863461 0.00302324 0)
(-0.00882359 0.00298206 0)
(-0.009009 0.00293692 0)
(-0.00919027 0.00288748 0)
(-0.00936676 0.00283338 0)
(-0.00953776 0.00277422 0)
(-0.00970249 0.00270952 0)
(-0.00986012 0.00263872 0)
(-0.0100097 0.0025612 0)
(-0.0101504 0.00247621 0)
(-0.0102811 0.00238291 0)
(-0.0104008 0.00228033 0)
(-0.0105087 0.00216737 0)
(-0.0106038 0.00204283 0)
(-0.0106855 0.00190542 0)
(-0.010753 0.00175382 0)
(-0.010806 0.00158674 0)
(-2.18382e-05 0.00139744 0)