/*--------------------------------*- C++ -*----------------------------------*\
  =========                 |
  \\      /  F ield         | OpenFOAM: The Open Source CFD Toolbox
   \\    /   O peration     | Website:  https://openfoam.org
    \\  /    A nd           | Version:  8
     \\/     M anipulation  |
\*---------------------------------------------------------------------------*/
FoamFile
{
    version     2.0;
    format      ascii;
    class       surfaceScalarField;
    location    "14.5";
    object      phi;
}
// * * * * * * * * * * * * * * * * * * * * * * * * * * * * * * * * * * * * * //

dimensions      [0 3 -1 0 0 0 0];

internalField   nonuniform List<scalar> 
208
(
1.60116e-07
-1.60106e-07
1.34861e-06
-1.1885e-06
-1.61594e-06
2.96455e-06
-2.95114e-06
1.3352e-06
-3.93085e-05
3.63573e-05
6.41163e-05
-0.000103425
-7.94046e-06
7.78036e-06
-2.01648e-05
1.10358e-05
-3.50586e-05
1.78583e-05
-5.69283e-05
2.32049e-05
-7.7341e-05
5.677e-05
7.88657e-05
-9.20904e-05
-6.31141e-06
1.40918e-05
-1.76275e-05
2.2352e-05
-3.08139e-05
3.10446e-05
-4.83121e-05
4.07031e-05
-5.97108e-05
6.81687e-05
8.32721e-05
-6.41172e-05
-7.65809e-06
2.17499e-05
-1.74065e-05
3.21003e-05
-2.71111e-05
4.07493e-05
-3.5429e-05
4.9021e-05
-3.87658e-05
7.15055e-05
7.63948e-05
-3.18886e-05
-1.44757e-06
2.31974e-05
-7.86498e-06
3.85178e-05
-1.3482e-05
4.63663e-05
-1.62382e-05
5.17773e-05
-1.19372e-05
6.72045e-05
6.47408e-05
-2.83272e-07
-2.89762e-06
2.6095e-05
-3.05095e-06
3.86711e-05
-2.09275e-06
4.54081e-05
-9.99301e-07
5.06838e-05
6.07146e-06
6.01337e-05
5.65911e-05
1.42212e-05
1.4102e-06
2.46848e-05
-5.94324e-06
4.60245e-05
-6.68661e-06
4.61515e-05
-3.04725e-06
4.70444e-05
9.77219e-06
4.73143e-05
4.64449e-05
1.99184e-05
6.96289e-06
1.7722e-05
1.4248e-05
3.87394e-05
1.90984e-05
4.13011e-05
2.00091e-05
4.61338e-05
2.61536e-05
4.11698e-05
4.43261e-05
2.82723e-05
-4.84452e-05
6.61671e-05
-4.6435e-05
3.67292e-05
-3.94474e-05
3.43135e-05
-2.49671e-05
3.16535e-05
-8.00596e-06
2.42086e-05
2.50255e-05
1.12946e-05
6.61671e-05
0.000102896
0.00013721
0.000168863
0.000193072
0.000218098
-0.000108681
0.00013681
-0.000131553
-7.14814e-05
1.99035e-05
-5.71034e-05
-3.30817e-05
-8.89517e-05
5.0552e-05
-0.000171186
0.000138105
-7.98839e-05
0.000124603
-5.0847e-05
-9.13342e-06
-3.09897e-05
-0.000108809
-0.000202176
-4.15524e-05
0.000102039
-2.77372e-05
-2.29487e-05
-1.9195e-05
-0.000117351
-0.000221371
-1.14467e-05
8.15967e-05
-7.22167e-06
-2.71737e-05
-1.30286e-05
-0.000111544
-0.0002344
1.49659e-05
6.63475e-05
4.77235e-06
-1.69802e-05
-5.85498e-06
-0.000100917
-0.000240255
2.61933e-05
5.43754e-05
1.57835e-05
-6.57041e-06
1.58433e-06
-8.67176e-05
-0.00023867
3.48957e-05
3.93982e-05
1.67833e-05
1.1542e-05
-2.47841e-06
-6.74559e-05
-0.000241149
3.45089e-05
3.31616e-05
2.01661e-05
2.58847e-05
1.6408e-05
-6.36978e-05
-0.000224741
3.29735e-05
1.14827e-05
5.43061e-05
4.55215e-06
5.73537e-05
-6.67454e-05
-0.000167387
0.00022958
0.000234132
0.000167387
-1.66851e-05
1.66851e-05
-3.13305e-05
1.46453e-05
-3.45525e-05
3.22205e-06
-3.45525e-05
-2.79831e-05
4.46682e-05
-4.41424e-05
3.08046e-05
-4.44558e-05
3.53548e-06
-7.90083e-05
-4.05833e-05
8.52516e-05
-5.63473e-05
4.65686e-05
-3.8621e-05
-1.41909e-05
-0.000117629
-4.63017e-05
-5.68364e-05
-2.04754e-05
)
;

boundaryField
{
    movingWall
    {
        type            calculated;
        value           uniform 0;
    }
    fixedWalls
    {
        type            calculated;
        value           uniform 0;
    }
    frontAndBack
    {
        type            empty;
        value           nonuniform List<scalar> 0();
    }
}


// ************************************************************************* //
