0 	3.35931e-08
1.57135 	-4.74906e-07
3.1427 	-1.38269e-06
4.71405 	1.1389e-06
6.28539 	1.66092e-05
7.85674 	6.34813e-05
9.42809 	0.000159824
10.9994 	0.000253554
12.5708 	-0.000415537
14.1421 	0.0109218
