0 	0 	0 	0
1.57135 	-0.000846568 	0.000782744 	0
3.1427 	-0.00188446 	0.00141993 	0
4.71405 	-0.00320796 	0.00167133 	0
6.28539 	-0.00490224 	0.00132379 	0
7.85674 	-0.00705466 	0.000169673 	0
9.42809 	-0.0100877 	-0.00178094 	0
10.9994 	-0.0161825 	-0.00361244 	0
12.5708 	-0.01402 	-0.0147672 	0
14.1421 	0.5 	0 	0
