/*--------------------------------*- C++ -*----------------------------------*\
  =========                 |
  \\      /  F ield         | OpenFOAM: The Open Source CFD Toolbox
   \\    /   O peration     | Website:  https://openfoam.org
    \\  /    A nd           | Version:  8
     \\/     M anipulation  |
\*---------------------------------------------------------------------------*/
FoamFile
{
    version     2.0;
    format      ascii;
    class       volScalarField;
    location    "0.115";
    object      p;
}
// * * * * * * * * * * * * * * * * * * * * * * * * * * * * * * * * * * * * * //

dimensions      [0 2 -2 0 0 0 0];

internalField   nonuniform List<scalar> 
400
(
-1.73966e-08
-0.00578966
-0.0128746
-0.0182775
-0.020262
-0.0180598
-0.0116133
-0.00136614
0.011891
0.0271247
0.0431366
0.0586369
0.0723294
0.0830194
0.0897529
0.091987
0.0897928
0.0840753
0.0767775
0.071009
0.00571523
-0.00024264
-0.00578682
-0.00948949
-0.010521
-0.00834563
-0.00289099
0.00552812
0.0163173
0.0286762
0.0416603
0.0542456
0.0654056
0.074205
0.0799113
0.0821238
0.0809208
0.0769459
0.0712165
0.0653055
0.0131849
0.00494475
-0.00103812
-0.0044323
-0.00525823
-0.00323677
0.00162954
0.0090426
0.018494
0.02931
0.0406911
0.0517619
0.0616345
0.0694879
0.0746592
0.0767473
0.0757425
0.0720293
0.0658007
0.0575905
0.0199117
0.00855116
0.00113622
-0.00272168
-0.00374858
-0.00189469
0.00272898
0.00977967
0.018764
0.02906
0.0399341
0.0505735
0.0601345
0.0678087
0.0728995
0.0749156
0.0737114
0.0694449
0.06165
0.0502268
0.0242234
0.00959109
0.000468885
-0.00406882
-0.00535454
-0.00353805
0.00115757
0.00832306
0.0174484
0.0279267
0.0390491
0.050019
0.0599856
0.0680961
0.073562
0.0757509
0.0743532
0.0693178
0.0596168
0.044718
0.024884
0.00695596
-0.0039342
-0.00914992
-0.0105734
-0.00853592
-0.00337372
0.00442503
0.0143145
0.025679
0.037807
0.0498866
0.0610219
0.0702721
0.0767071
0.0795048
0.0781555
0.0723923
0.0606621
0.0421067
0.020823
-0.000440881
-0.013056
-0.0187935
-0.0200824
-0.0174388
-0.0113199
-0.00230322
0.00901848
0.0220088
0.03594
0.0499676
0.0631267
0.0743533
0.0825301
0.0865884
0.0857631
0.0795268
0.0657596
0.0433003
0.0109326
-0.0137548
-0.0279652
-0.033912
-0.0346316
-0.0308569
-0.0231859
-0.012296
0.00117017
0.0165579
0.0331273
0.0500023
0.0661421
0.0803387
0.0912441
0.0974769
0.0979325
0.0917269
0.0760365
0.0493334
-0.00608696
-0.0343396
-0.0499121
-0.055566
-0.0550817
-0.0494783
-0.0395293
-0.0260239
-0.00964802
0.00894383
0.0290244
0.0497107
0.0699024
0.0882447
0.103125
0.112773
0.115627
0.110284
0.0929612
0.0615953
-0.0318675
-0.0638726
-0.080401
-0.0849765
-0.0823693
-0.0740023
-0.0608768
-0.0439054
-0.0237979
-0.00116911
0.0233171
0.0488257
0.074245
0.0981014
0.118504
0.133218
0.140073
0.136904
0.118542
0.082067
-0.0685635
-0.104521
-0.12127
-0.123512
-0.117425
-0.105015
-0.0875794
-0.0661582
-0.0414449
-0.0139471
0.0158189
0.0471589
0.079043
0.109955
0.137757
0.159692
0.172813
0.17385
0.155588
0.113641
-0.119196
-0.159205
-0.174791
-0.172642
-0.161029
-0.142794
-0.119599
-0.0925873
-0.0623603
-0.0292114
0.00661558
0.0447077
0.084268
0.123885
0.161283
0.193197
0.215748
0.224129
0.208077
0.160632
-0.188348
-0.232044
-0.243787
-0.233817
-0.21357
-0.187019
-0.156213
-0.122309
-0.0856751
-0.0462267
-0.00376066
0.0417843
0.0900638
0.140016
0.189464
0.234793
0.271138
0.291689
0.281724
0.229702
-0.283662
-0.329093
-0.331681
-0.308163
-0.274606
-0.236331
-0.195631
-0.153441
-0.109634
-0.0635117
-0.0141928
0.0391009
0.0967661
0.15845
0.222502
0.285369
0.341433
0.381566
0.384848
0.33169
-0.419023
-0.459484
-0.442234
-0.395721
-0.34208
-0.287687
-0.234535
-0.182807
-0.131443
-0.0787836
-0.022996
0.0376877
0.104739
0.178982
0.259956
0.345015
0.428615
0.499652
0.529564
0.485186
-0.620302
-0.636619
-0.578629
-0.494198
-0.411272
-0.335685
-0.267774
-0.205921
-0.147426
-0.089229
-0.0282484
0.0385246
0.113958
0.200579
0.300031
0.412028
0.532985
0.651686
0.73262
0.722145
-0.935799
-0.87848
-0.741784
-0.598048
-0.47452
-0.372777
-0.288946
-0.217781
-0.153908
-0.092365
-0.0285855
0.0418338
0.123381
0.220795
0.338949
0.482122
0.651915
0.841217
1.01509
1.09723
-1.47642
-1.20669
-0.92064
-0.691582
-0.517524
-0.38775
-0.290221
-0.21343
-0.148143
-0.0871703
-0.0244872
0.0455666
0.129037
0.233137
0.367118
0.542636
0.771197
1.05918
1.4031
1.72988
-2.53974
-1.63069
-1.04466
-0.711238
-0.496058
-0.352388
-0.254776
-0.183753
-0.126253
-0.0735967
-0.0192052
0.0428903
0.119326
0.218877
0.354866
0.547982
0.826332
1.23647
1.91151
2.92397
-4.3668
-2.04483
-0.973823
-0.563544
-0.358255
-0.24055
-0.170471
-0.124046
-0.0876348
-0.0535522
-0.0165985
0.0277882
0.0847734
0.161899
0.272554
0.442191
0.718245
1.22566
2.41092
4.84836
)
;

boundaryField
{
    movingWall
    {
        type            zeroGradient;
    }
    fixedWalls
    {
        type            zeroGradient;
    }
    frontAndBack
    {
        type            empty;
    }
}


// ************************************************************************* //
