/*--------------------------------*- C++ -*----------------------------------*\
  =========                 |
  \\      /  F ield         | OpenFOAM: The Open Source CFD Toolbox
   \\    /   O peration     | Website:  https://openfoam.org
    \\  /    A nd           | Version:  8
     \\/     M anipulation  |
\*---------------------------------------------------------------------------*/
FoamFile
{
    version     2.0;
    format      ascii;
    class       surfaceScalarField;
    location    "0.115";
    object      phi;
}
// * * * * * * * * * * * * * * * * * * * * * * * * * * * * * * * * * * * * * //

dimensions      [0 3 -1 0 0 0 0];

internalField   nonuniform List<scalar> 
760
(
1.4107e-08
-1.41066e-08
-2.20648e-08
3.61725e-08
-1.13387e-07
9.13233e-08
-2.43524e-07
1.30137e-07
-3.92852e-07
1.49329e-07
-5.42822e-07
1.49969e-07
-6.77473e-07
1.34651e-07
-7.84018e-07
1.06546e-07
-8.5298e-07
6.89615e-08
-8.78236e-07
2.52562e-08
-8.57163e-07
-2.10724e-08
-7.90887e-07
-6.6277e-08
-6.84577e-07
-1.06309e-07
-5.47692e-07
-1.36885e-07
-3.93983e-07
-1.53709e-07
-2.4104e-07
-1.52942e-07
-1.09042e-07
-1.31997e-07
-1.83696e-08
-9.06717e-08
1.55392e-08
-3.39081e-08
1.55399e-08
-3.39409e-08
1.98333e-08
-1.78872e-07
1.81103e-07
-4.30324e-07
3.42773e-07
-7.57913e-07
4.57724e-07
-1.12247e-06
5.13888e-07
-1.48428e-06
5.11777e-07
-1.80749e-06
4.57856e-07
-2.06242e-06
3.61486e-07
-2.22676e-06
2.33298e-07
-2.28612e-06
8.46141e-08
-2.23461e-06
-7.25779e-08
-2.07538e-06
-2.25512e-07
-1.82103e-06
-3.6066e-07
-1.49382e-06
-4.64097e-07
-1.12511e-06
-5.22413e-07
-7.53695e-07
-5.24359e-07
-4.22254e-07
-4.63439e-07
-1.71475e-07
-3.41453e-07
-3.06095e-08
-1.74775e-07
-1.50694e-08
-9.14377e-08
1.11271e-07
-3.53973e-07
4.43641e-07
-7.58086e-07
7.46886e-07
-1.25771e-06
9.57351e-07
-1.79922e-06
1.05539e-06
-2.32893e-06
1.04149e-06
-2.79821e-06
9.27135e-07
-3.16653e-06
7.29808e-07
-3.40323e-06
4.70005e-07
-3.48859e-06
1.69971e-07
-3.41457e-06
-1.46595e-07
-3.18556e-06
-4.54523e-07
-2.81888e-06
-7.27345e-07
-2.34486e-06
-9.38113e-07
-1.80605e-06
-1.06123e-06
-1.25481e-06
-1.0756e-06
-7.48884e-07
-9.69363e-07
-3.44433e-07
-7.45903e-07
-8.67091e-08
-4.325e-07
-1.01779e-07
-1.4401e-07
2.5528e-07
-5.21207e-07
8.20838e-07
-1.07293e-06
1.29861e-06
-1.73345e-06
1.61788e-06
-2.43455e-06
1.75649e-06
-3.11103e-06
1.71797e-06
-3.70507e-06
1.52117e-06
-4.16893e-06
1.19367e-06
-4.46665e-06
7.67723e-07
-4.57503e-06
2.78356e-07
-4.48447e-06
-2.37162e-07
-4.19967e-06
-7.39318e-07
-3.74041e-06
-1.18661e-06
-3.14177e-06
-1.53675e-06
-2.45362e-06
-1.74938e-06
-1.73839e-06
-1.79082e-06
-1.06687e-06
-1.64089e-06
-5.1152e-07
-1.30125e-06
-1.38335e-07
-8.05686e-07
-2.40114e-07
-1.92156e-07
4.47435e-07
-6.79999e-07
1.30868e-06
-1.3756e-06
1.99421e-06
-2.1913e-06
2.43358e-06
-3.0433e-06
2.60848e-06
-3.85563e-06
2.5303e-06
-4.56314e-06
2.22868e-06
-5.11322e-06
1.74375e-06
-5.46665e-06
1.12115e-06
-5.59807e-06
4.09768e-07
-5.49646e-06
-3.38769e-07
-5.16596e-06
-1.06981e-06
-4.62683e-06
-1.72575e-06
-3.91634e-06
-2.24723e-06
-3.08913e-06
-2.57659e-06
-2.21602e-06
-2.66393e-06
-1.38076e-06
-2.47615e-06
-6.74195e-07
-2.00782e-06
-1.86565e-07
-1.29332e-06
-4.26679e-07
-2.38416e-07
6.85851e-07
-8.3517e-07
1.90544e-06
-1.67302e-06
2.83205e-06
-2.64086e-06
3.40143e-06
-3.63846e-06
3.60608e-06
-4.57949e-06
3.47133e-06
-5.39295e-06
3.04215e-06
-6.02325e-06
2.37405e-06
-6.42963e-06
1.52754e-06
-6.58565e-06
5.65785e-07
-6.47901e-06
-4.45406e-07
-6.11227e-06
-1.43656e-06
-5.50424e-06
-2.33378e-06
-4.69194e-06
-3.05953e-06
-3.73244e-06
-3.53609e-06
-2.70355e-06
-3.69282e-06
-1.70228e-06
-3.47742e-06
-8.40125e-07
-2.86997e-06
-2.34895e-07
-1.89855e-06
-6.61573e-07
-2.85333e-07
9.71184e-07
-9.92318e-07
2.61242e-06
-1.97267e-06
3.8124e-06
-3.09016e-06
4.51892e-06
-4.22758e-06
4.7435e-06
-5.28911e-06
4.53287e-06
-6.19978e-06
3.95282e-06
-6.90328e-06
3.07754e-06
-7.35939e-06
1.98365e-06
-7.54184e-06
7.48238e-07
-7.43728e-06
-5.49968e-07
-7.04564e-06
-1.82819e-06
-6.38214e-06
-2.99728e-06
-5.48059e-06
-3.96108e-06
-4.39746e-06
-4.61923e-06
-3.21534e-06
-4.87494e-06
-2.04419e-06
-4.64857e-06
-1.01821e-06
-3.89595e-06
-2.87048e-07
-2.62971e-06
-9.48622e-07
-3.35198e-07
1.30638e-06
-1.15655e-06
3.43378e-06
-2.28049e-06
4.93633e-06
-3.54316e-06
5.78159e-06
-4.81029e-06
6.01063e-06
-5.97843e-06
5.70101e-06
-6.97163e-06
4.94601e-06
-7.73617e-06
3.84209e-06
-8.23526e-06
2.48273e-06
-8.44472e-06
9.57697e-07
-8.35066e-06
-6.44028e-07
-7.9494e-06
-2.22945e-06
-7.24998e-06
-3.6967e-06
-6.27913e-06
-4.93193e-06
-5.08821e-06
-5.81016e-06
-3.76064e-06
-6.2025e-06
-2.41739e-06
-5.99182e-06
-1.21702e-06
-5.09633e-06
-3.46639e-07
-3.50009e-06
-1.29526e-06
-3.90244e-07
1.69663e-06
-1.33247e-06
4.376e-06
-2.60018e-06
6.20404e-06
-3.99834e-06
7.17975e-06
-5.37622e-06
7.38852e-06
-6.62624e-06
6.95103e-06
-7.67632e-06
5.99608e-06
-8.48025e-06
4.64602e-06
-9.00877e-06
3.01125e-06
-9.24264e-06
1.19156e-06
-9.16856e-06
-7.18099e-07
-8.77843e-06
-2.61958e-06
-8.07211e-06
-4.40302e-06
-7.06422e-06
-5.93983e-06
-5.79445e-06
-7.07993e-06
-4.34034e-06
-7.6566e-06
-2.82925e-06
-7.50291e-06
-1.44429e-06
-6.48129e-06
-4.17286e-07
-4.52709e-06
-1.71255e-06
-4.53255e-07
2.14988e-06
-1.52498e-06
5.44773e-06
-2.9334e-06
7.61246e-06
-4.44761e-06
8.69396e-06
-5.90264e-06
8.84354e-06
-7.19287e-06
8.24126e-06
-8.25748e-06
7.0607e-06
-9.06479e-06
5.45333e-06
-9.59873e-06
3.54519e-06
-9.84889e-06
1.44172e-06
-9.80449e-06
-7.62494e-07
-9.45259e-06
-2.97148e-06
-8.78084e-06
-5.07477e-06
-7.78561e-06
-6.93505e-06
-6.48603e-06
-8.37951e-06
-4.94326e-06
-9.19938e-06
-3.28198e-06
-9.16419e-06
-1.70704e-06
-8.05623e-06
-5.03097e-07
-5.73104e-06
-2.21564e-06
-5.28694e-07
2.67858e-06
-1.74079e-06
6.65982e-06
-3.28003e-06
9.1517e-06
-4.87458e-06
1.02885e-05
-6.3507e-06
1.03197e-05
-7.61502e-06
9.50558e-06
-8.62881e-06
8.07449e-06
-9.38415e-06
6.20867e-06
-9.88522e-06
4.04627e-06
-1.01353e-05
1.69182e-06
-1.0129e-05
-7.68867e-07
-9.84875e-06
-3.25169e-06
-9.26759e-06
-5.65593e-06
-8.35715e-06
-7.84549e-06
-7.10487e-06
-9.63179e-06
-5.54046e-06
-1.07638e-05
-3.77031e-06
-1.09343e-05
-2.01185e-06
-9.81469e-06
-6.09562e-07
-7.13333e-06
-2.82521e-06
-6.24557e-07
3.30313e-06
-1.99026e-06
8.02553e-06
-3.63736e-06
1.07988e-05
-5.25011e-06
1.19013e-05
-6.65835e-06
1.17279e-05
-7.79751e-06
1.06447e-05
-8.6658e-06
8.94278e-06
-9.29024e-06
6.83312e-06
-9.70295e-06
4.45898e-06
-9.926e-06
1.91487e-06
-9.96248e-06
-7.32382e-07
-9.79226e-06
-3.4219e-06
-9.37249e-06
-6.0757e-06
-8.64482e-06
-8.57316e-06
-7.55311e-06
-1.07235e-05
-6.07599e-06
-1.22409e-05
-4.27674e-06
-1.27336e-05
-2.36472e-06
-1.17267e-05
-7.45034e-07
-8.75301e-06
-3.57024e-06
-7.55406e-07
4.05854e-06
-2.28868e-06
9.5588e-06
-3.99527e-06
1.25054e-05
-5.52166e-06
1.34276e-05
-6.7264e-06
1.29326e-05
-7.59917e-06
1.15175e-05
-8.19381e-06
9.53742e-06
-8.58364e-06
7.22294e-06
-8.83494e-06
4.71029e-06
-8.99233e-06
2.07226e-06
-9.07054e-06
-6.54165e-07
-9.04973e-06
-3.44272e-06
-8.87345e-06
-6.25199e-06
-8.45187e-06
-8.99473e-06
-7.67582e-06
-1.14996e-05
-6.45085e-06
-1.34659e-05
-4.7615e-06
-1.44229e-05
-2.76917e-06
-1.3719e-05
-9.23069e-07
-1.05991e-05
-4.49331e-06
-9.4681e-07
5.00535e-06
-2.65375e-06
1.12657e-05
-4.32111e-06
1.41728e-05
-5.58885e-06
1.46954e-05
-6.3917e-06
1.37355e-05
-6.80935e-06
1.19352e-05
-6.97086e-06
9.69893e-06
-7.00331e-06
7.25539e-06
-7.00826e-06
4.71523e-06
-7.05241e-06
2.1164e-06
-7.16341e-06
-5.43165e-07
-7.32599e-06
-3.28014e-06
-7.47701e-06
-6.10097e-06
-7.50141e-06
-8.97033e-06
-7.23605e-06
-1.17649e-05
-6.4954e-06
-1.42065e-05
-5.14109e-06
-1.57772e-05
-3.21861e-06
-1.56415e-05
-1.16536e-06
-1.26524e-05
-5.65867e-06
-1.23897e-06
6.24432e-06
-3.0888e-06
1.31156e-05
-4.51845e-06
1.56024e-05
-5.25122e-06
1.54281e-05
-5.37815e-06
1.38624e-05
-5.11064e-06
1.16677e-05
-4.66484e-06
9.25312e-06
-4.21718e-06
6.80773e-06
-3.89478e-06
4.39284e-06
-3.77827e-06
1.99989e-06
-3.90543e-06
-4.16008e-07
-4.27027e-06
-2.9153e-06
-4.81549e-06
-5.55574e-06
-5.41905e-06
-8.36677e-06
-5.88029e-06
-1.13037e-05
-5.92199e-06
-1.41648e-05
-5.24228e-06
-1.6457e-05
-3.67083e-06
-1.7213e-05
-1.50133e-06
-1.48219e-05
-7.16001e-06
-1.67527e-06
7.91959e-06
-3.51839e-06
1.49587e-05
-4.32534e-06
1.64094e-05
-4.10487e-06
1.52077e-05
-3.21539e-06
1.29729e-05
-2.0273e-06
1.04796e-05
-8.29265e-07
8.05509e-06
1.80774e-07
5.79769e-06
8.76736e-07
3.69688e-06
1.18294e-06
1.69369e-06
1.0601e-06
-2.93172e-07
5.0164e-07
-2.35684e-06
-4.58162e-07
-4.59594e-06
-1.7223e-06
-7.10264e-06
-3.09577e-06
-9.93019e-06
-4.24752e-06
-1.30131e-05
-4.70602e-06
-1.59984e-05
-3.97225e-06
-1.79467e-05
-1.94635e-06
-1.68478e-05
-9.10636e-06
-2.23174e-06
1.01513e-05
-3.59416e-06
1.63211e-05
-3.08592e-06
1.59011e-05
-1.35736e-06
1.34791e-05
8.776e-07
1.0738e-05
3.12953e-06
8.22764e-06
5.10717e-06
6.07745e-06
6.65325e-06
4.25161e-06
7.68733e-06
2.6628e-06
8.1667e-06
1.21433e-06
8.06449e-06
-1.90969e-07
7.36188e-06
-1.65422e-06
6.05352e-06
-3.28759e-06
4.17093e-06
-5.22005e-06
1.83182e-06
-7.59108e-06
-6.77794e-07
-1.05035e-05
-2.80226e-06
-1.3874e-05
-3.66708e-06
-1.70819e-05
-2.41296e-06
-1.81019e-05
-1.15193e-05
-2.57431e-06
1.27256e-05
-2.18576e-06
1.59325e-05
7.12624e-07
1.30027e-05
4.45984e-06
9.7319e-06
8.11856e-06
7.07927e-06
1.12816e-05
5.06458e-06
1.38043e-05
3.5548e-06
1.56592e-05
2.39663e-06
1.686e-05
1.462e-06
1.7422e-05
6.52405e-07
1.73438e-05
-1.12756e-07
1.65997e-05
-9.10191e-07
1.51396e-05
-1.82744e-06
1.29001e-05
-2.9806e-06
9.84325e-06
-4.53422e-06
6.04863e-06
-6.70885e-06
1.90395e-06
-9.72931e-06
-1.56379e-06
-1.36142e-05
-2.45953e-06
-1.72061e-05
-1.39789e-05
-7.84979e-07
1.35106e-05
4.08006e-06
1.10675e-05
1.0295e-05
6.78784e-06
1.57882e-05
4.23866e-06
2.01491e-05
2.71842e-06
2.34453e-05
1.76833e-06
2.58445e-05
1.15563e-06
2.75023e-05
7.38847e-07
2.85327e-05
4.31514e-07
2.90042e-05
1.80929e-07
2.89403e-05
-4.87869e-08
2.83181e-05
-2.88071e-07
2.70635e-05
-5.72769e-07
2.50396e-05
-9.56755e-07
2.20396e-05
-1.53421e-06
1.78069e-05
-2.47611e-06
1.2167e-05
-4.08948e-06
5.47516e-06
-6.92228e-06
-1.29847e-07
-1.16011e-05
-1.41087e-05
1.35106e-05
2.45781e-05
3.1366e-05
3.56046e-05
3.8323e-05
4.00914e-05
4.1247e-05
4.19859e-05
4.24174e-05
4.25983e-05
4.25495e-05
4.22614e-05
4.16887e-05
4.07319e-05
3.91977e-05
3.67216e-05
3.26321e-05
2.57098e-05
1.41087e-05
)
;

boundaryField
{
    movingWall
    {
        type            calculated;
        value           uniform 0;
    }
    fixedWalls
    {
        type            calculated;
        value           uniform 0;
    }
    frontAndBack
    {
        type            empty;
        value           nonuniform List<scalar> 0();
    }
}


// ************************************************************************* //
