/*--------------------------------*- C++ -*----------------------------------*\
  =========                 |
  \\      /  F ield         | OpenFOAM: The Open Source CFD Toolbox
   \\    /   O peration     | Website:  https://openfoam.org
    \\  /    A nd           | Version:  8
     \\/     M anipulation  |
\*---------------------------------------------------------------------------*/
FoamFile
{
    version     2.0;
    format      ascii;
    class       volVectorField;
    location    "0.115";
    object      U;
}
// * * * * * * * * * * * * * * * * * * * * * * * * * * * * * * * * * * * * * //

dimensions      [0 1 -1 0 0 0 0];

internalField   nonuniform List<vector> 
400
(
(0.000250932 -0.000248104 0)
(0.000139474 0.000110906 0)
(-0.00116848 0.000560579 0)
(-0.00345364 0.000878196 0)
(-0.0063257 0.0010374 0)
(-0.00939127 0.00105315 0)
(-0.0122994 0.000950012 0)
(-0.01476 0.0007542 0)
(-0.0165491 0.000490656 0)
(-0.0175102 0.000183254 0)
(-0.0175548 -0.000143726 0)
(-0.016667 -0.0004641 0)
(-0.0149088 -0.000748852 0)
(-0.0124266 -0.000966138 0)
(-0.00945395 -0.00108249 0)
(-0.00630892 -0.00106592 0)
(-0.00337788 -0.000891873 0)
(-0.00108071 -0.000553081 0)
(0.000193622 -9.05132e-05 0)
(0.00026554 0.000260074 0)
(-7.73201e-05 -0.000166888 0)
(-0.00159865 0.00163187 0)
(-0.0056453 0.00358767 0)
(-0.0116195 0.0049925 0)
(-0.0187305 0.00569407 0)
(-0.0261729 0.00571028 0)
(-0.0331786 0.00512659 0)
(-0.0390836 0.00405701 0)
(-0.0433634 0.00262534 0)
(-0.045648 0.000960152 0)
(-0.0457327 -0.000803678 0)
(-0.0435877 -0.00252206 0)
(-0.039369 -0.00404068 0)
(-0.0334264 -0.00519824 0)
(-0.0263013 -0.0058361 0)
(-0.0187081 -0.00581684 0)
(-0.0114799 -0.00505526 0)
(-0.00547377 -0.0035635 0)
(-0.00148333 -0.00154927 0)
(-4.27523e-05 0.000224644 0)
(-0.000524275 0.00108316 0)
(-0.00368004 0.00568849 0)
(-0.0104996 0.010138 0)
(-0.0198226 0.0132925 0)
(-0.0305034 0.0148162 0)
(-0.0414652 0.0147084 0)
(-0.0516733 0.0131389 0)
(-0.0602232 0.0103648 0)
(-0.0663959 0.00668515 0)
(-0.0696836 0.00242229 0)
(-0.0698054 -0.00208103 0)
(-0.0667221 -0.00646021 0)
(-0.0606491 -0.0103307 0)
(-0.0520645 -0.0132995 0)
(-0.0417048 -0.0149919 0)
(-0.0305364 -0.0150987 0)
(-0.0196799 -0.0134481 0)
(-0.0102875 -0.0101021 0)
(-0.00352315 -0.0055116 0)
(-0.000473676 -0.000943311 0)
(-0.000920597 0.00345113 0)
(-0.00564521 0.0121187 0)
(-0.0151788 0.0197542 0)
(-0.027693 0.0249835 0)
(-0.0416483 0.0273597 0)
(-0.0557267 0.0269023 0)
(-0.0686932 0.0238997 0)
(-0.0794788 0.018791 0)
(-0.0872396 0.012095 0)
(-0.0913805 0.00437652 0)
(-0.09157 -0.00376153 0)
(-0.0877559 -0.0116794 0)
(-0.0801804 -0.0187057 0)
(-0.0693923 -0.0241581 0)
(-0.0562478 -0.0273903 0)
(-0.0418877 -0.0278703 0)
(-0.0276579 -0.0252967 0)
(-0.0149878 -0.0197419 0)
(-0.00546676 -0.0118417 0)
(-0.000855688 -0.00320289 0)
(-0.00126926 0.00682181 0)
(-0.00748059 0.0207841 0)
(-0.0196616 0.032246 0)
(-0.0352791 0.0397737 0)
(-0.0523637 0.0429308 0)
(-0.0693544 0.0418398 0)
(-0.0848452 0.0369653 0)
(-0.0976486 0.0289712 0)
(-0.106842 0.0186285 0)
(-0.111779 0.00677216 0)
(-0.112093 -0.00571066 0)
(-0.107712 -0.0178801 0)
(-0.0988735 -0.0287484 0)
(-0.0861503 -0.0373069 0)
(-0.0704638 -0.0425887 0)
(-0.053082 -0.0437781 0)
(-0.0355556 -0.0403692 0)
(-0.0196105 -0.0323548 0)
(-0.00732409 -0.0204458 0)
(-0.00119605 -0.00645379 0)
(-0.0015972 0.0111291 0)
(-0.0092601 0.0316311 0)
(-0.0240616 0.0475837 0)
(-0.0427415 0.0576213 0)
(-0.0628722 0.0614508 0)
(-0.082645 0.0594068 0)
(-0.100504 0.0522105 0)
(-0.11518 0.0408032 0)
(-0.125711 0.0262392 0)
(-0.131429 0.00963782 0)
(-0.131946 -0.00782334 0)
(-0.127159 -0.0248994 0)
(-0.117273 -0.0402741 0)
(-0.102838 -0.0525834 0)
(-0.0847881 -0.0604872 0)
(-0.0644776 -0.0628047 0)
(-0.0436476 -0.0587171 0)
(-0.0243466 -0.0480115 0)
(-0.00920476 -0.0313477 0)
(-0.00152945 -0.0106587 0)
(-0.00193041 0.0163604 0)
(-0.0110676 0.0446586 0)
(-0.0285145 0.0657651 0)
(-0.0502405 0.0784927 0)
(-0.0733335 0.0828393 0)
(-0.095741 0.0794848 0)
(-0.115788 0.0695069 0)
(-0.132167 0.0541858 0)
(-0.143925 0.0348869 0)
(-0.150405 0.0130159 0)
(-0.151215 -0.00997285 0)
(-0.146215 -0.0325466 0)
(-0.135544 -0.0530672 0)
(-0.119672 -0.0697977 0)
(-0.099485 -0.0809699 0)
(-0.0763656 -0.0849378 0)
(-0.0522152 -0.0804267 0)
(-0.0294199 -0.0668503 0)
(-0.011236 -0.0446646 0)
(-0.00189202 -0.015856 0)
(-0.00229228 0.022552 0)
(-0.012982 0.0599228 0)
(-0.0331419 0.0868091 0)
(-0.0578879 0.10233 0)
(-0.0837927 0.106955 0)
(-0.108582 0.101873 0)
(-0.130513 0.0886406 0)
(-0.148312 0.0689454 0)
(-0.161094 0.0444851 0)
(-0.16827 0.0169375 0)
(-0.169464 -0.0120043 0)
(-0.164497 -0.0405637 0)
(-0.153404 -0.0668136 0)
(-0.136512 -0.0886464 0)
(-0.114567 -0.103817 0)
(-0.0888918 -0.110097 0)
(-0.0614786 -0.105576 0)
(-0.0350407 -0.0890685 0)
(-0.0135445 -0.0606155 0)
(-0.00231928 -0.0221584 0)
(-0.00270678 0.0297849 0)
(-0.0150808 0.077533 0)
(-0.0380455 0.110738 0)
(-0.0657254 0.12901 0)
(-0.0941444 0.133529 0)
(-0.120856 0.126211 0)
(-0.144144 0.109233 0)
(-0.162865 0.0847645 0)
(-0.176303 0.0548468 0)
(-0.184002 0.0213913 0)
(-0.185648 -0.0137371 0)
(-0.181025 -0.0485976 0)
(-0.170027 -0.0810441 0)
(-0.152757 -0.108633 0)
(-0.129701 -0.12861 0)
(-0.101979 -0.138049 0)
(-0.0715473 -0.134173 0)
(-0.0413862 -0.114891 0)
(-0.0162566 -0.0795135 0)
(-0.00284924 -0.0297511 0)
(-0.00320641 0.0381879 0)
(-0.0174586 0.0976426 0)
(-0.0433204 0.137538 0)
(-0.0737174 0.158266 0)
(-0.104098 0.16207 0)
(-0.131945 0.151867 0)
(-0.155713 0.130632 0)
(-0.174542 0.10109 0)
(-0.188011 0.0656138 0)
(-0.195897 0.0262817 0)
(-0.198007 -0.0149751 0)
(-0.194103 -0.056174 0)
(-0.183908 -0.0950686 0)
(-0.167207 -0.128963 0)
(-0.144078 -0.15461 0)
(-0.115228 -0.16827 0)
(-0.0823668 -0.16604 0)
(-0.0485894 -0.144502 0)
(-0.0195098 -0.101746 0)
(-0.00353013 -0.0388953 0)
(-0.00384665 0.0479584 0)
(-0.0202597 0.120449 0)
(-0.0490782 0.167102 0)
(-0.0817372 0.189585 0)
(-0.113121 0.191721 0)
(-0.140826 0.177801 0)
(-0.163709 0.151793 0)
(-0.181399 0.117031 0)
(-0.193935 0.0761797 0)
(-0.201442 0.031376 0)
(-0.203928 -0.01553 0)
(-0.201166 -0.0626852 0)
(-0.192689 -0.10792 0)
(-0.177881 -0.148444 0)
(-0.156233 -0.180595 0)
(-0.127778 -0.199768 0)
(-0.0936365 -0.200647 0)
(-0.0567251 -0.177935 0)
(-0.0234753 -0.127745 0)
(-0.00443438 -0.0499461 0)
(-0.00473184 0.0594137 0)
(-0.0237284 0.146201 0)
(-0.0554644 0.199142 0)
(-0.0895131 0.222046 0)
(-0.120313 0.22109 0)
(-0.145917 0.202402 0)
(-0.165912 0.171141 0)
(-0.180682 0.131261 0)
(-0.190909 0.0856169 0)
(-0.197194 0.0362509 0)
(-0.19982 -0.0152579 0)
(-0.198629 -0.0674017 0)
(-0.192973 -0.118326 0)
(-0.181784 -0.165384 0)
(-0.163805 -0.2047 0)
(-0.138077 -0.23085 0)
(-0.104662 -0.236868 0)
(-0.0657661 -0.214899 0)
(-0.0283881 -0.157946 0)
(-0.00568334 -0.0633951 0)
(-0.00606111 0.0730937 0)
(-0.0282761 0.175198 0)
(-0.0626314 0.233023 0)
(-0.0964653 0.254074 0)
(-0.124153 0.247999 0)
(-0.144776 0.223303 0)
(-0.159119 0.186458 0)
(-0.168611 0.141946 0)
(-0.17474 0.0926326 0)
(-0.17867 0.0402513 0)
(-0.181026 -0.0141071 0)
(-0.181774 -0.0695189 0)
(-0.180149 -0.124723 0)
(-0.174653 -0.177549 0)
(-0.163196 -0.224253 0)
(-0.143533 -0.258842 0)
(-0.114075 -0.272628 0)
(-0.0754649 -0.254484 0)
(-0.0345815 -0.192695 0)
(-0.00748997 -0.0799562 0)
(-0.00820342 0.0899419 0)
(-0.0345434 0.207724 0)
(-0.0705616 0.267427 0)
(-0.101279 0.283034 0)
(-0.121942 0.269178 0)
(-0.133583 0.237208 0)
(-0.138733 0.194831 0)
(-0.140109 0.146773 0)
(-0.140067 0.0956042 0)
(-0.140319 0.0424963 0)
(-0.141826 -0.0121647 0)
(-0.144735 -0.0682542 0)
(-0.148283 -0.125379 0)
(-0.150694 -0.182227 0)
(-0.14914 -0.235702 0)
(-0.139951 -0.279799 0)
(-0.119294 -0.304413 0)
(-0.0850426 -0.294646 0)
(-0.042479 -0.232027 0)
(-0.010222 -0.100705 0)
(-0.011779 0.111565 0)
(-0.0433226 0.243743 0)
(-0.0784545 0.299682 0)
(-0.100901 0.304638 0)
(-0.108749 0.279947 0)
(-0.106252 0.239862 0)
(-0.0981626 0.192804 0)
(-0.0884971 0.143162 0)
(-0.0802936 0.0927756 0)
(-0.0756124 0.0419841 0)
(-0.0756291 -0.00968194 0)
(-0.0806801 -0.0630125 0)
(-0.090182 -0.118658 0)
(-0.102409 -0.176521 0)
(-0.114188 -0.234782 0)
(-0.120677 -0.288356 0)
(-0.115509 -0.326696 0)
(-0.0923995 -0.331373 0)
(-0.0523647 -0.275114 0)
(-0.0144383 -0.127238 0)
(-0.017559 0.140621 0)
(-0.0548207 0.282003 0)
(-0.082931 0.324472 0)
(-0.0883383 0.312142 0)
(-0.075492 0.274071 0)
(-0.0531026 0.226373 0)
(-0.0280904 0.176921 0)
(-0.00524875 0.128835 0)
(0.0122891 0.0827082 0)
(0.022588 0.0378565 0)
(0.0245415 -0.00704364 0)
(0.0176834 -0.0536135 0)
(0.00222436 -0.103506 0)
(-0.0206533 -0.157997 0)
(-0.0482208 -0.217129 0)
(-0.0753859 -0.27797 0)
(-0.0938141 -0.331418 0)
(-0.0922106 -0.357367 0)
(-0.0633357 -0.319077 0)
(-0.0206429 -0.161893 0)
(-0.0254559 0.181699 0)
(-0.0658159 0.317695 0)
(-0.0734471 0.331212 0)
(-0.0482897 0.295185 0)
(-0.00590626 0.243953 0)
(0.0407683 0.192109 0)
(0.084085 0.144793 0)
(0.119866 0.102763 0)
(0.145954 0.0649953 0)
(0.161254 0.0298274 0)
(0.165139 -0.00465327 0)
(0.157161 -0.0405321 0)
(0.137019 -0.0800831 0)
(0.104818 -0.125703 0)
(0.0617522 -0.17948 0)
(0.0114206 -0.241763 0)
(-0.0380889 -0.307632 0)
(-0.0718231 -0.359935 0)
(-0.0701102 -0.356466 0)
(-0.0279217 -0.208324 0)
(-0.0296506 0.23918 0)
(-0.0608629 0.335738 0)
(-0.0220142 0.300428 0)
(0.0503944 0.240011 0)
(0.12733 0.182804 0)
(0.19666 0.135235 0)
(0.253886 0.0972536 0)
(0.297708 0.0667317 0)
(0.328212 0.0412742 0)
(0.345813 0.0187428 0)
(0.350712 -0.00278296 0)
(0.34266 -0.0252101 0)
(0.320878 -0.0506959 0)
(0.284127 -0.081929 0)
(0.23115 -0.122311 0)
(0.161862 -0.175529 0)
(0.0796852 -0.243299 0)
(-0.0033097 -0.319026 0)
(-0.054715 -0.368538 0)
(-0.0284671 -0.267594 0)
(0.00808558 0.281869 0)
(0.0197805 0.294969 0)
(0.139037 0.210949 0)
(0.264384 0.143434 0)
(0.364225 0.0971298 0)
(0.440146 0.0657165 0)
(0.496449 0.0441803 0)
(0.536513 0.0288396 0)
(0.563035 0.0171683 0)
(0.577864 0.0074726 0)
(0.581932 -0.00148771 0)
(0.575263 -0.010822 0)
(0.556913 -0.0218102 0)
(0.524793 -0.0362885 0)
(0.475499 -0.0572081 0)
(0.404329 -0.0893321 0)
(0.305038 -0.139693 0)
(0.173341 -0.216347 0)
(0.0411454 -0.311631 0)
(0.0184266 -0.29999 0)
(0.299608 0.146095 0)
(0.396279 0.127505 0)
(0.557421 0.0760873 0)
(0.674472 0.0437166 0)
(0.743846 0.0255624 0)
(0.787078 0.0152314 0)
(0.815378 0.00920235 0)
(0.83382 0.00550165 0)
(0.84523 0.00302254 0)
(0.851205 0.00114818 0)
(0.852499 -0.000497199 0)
(0.849223 -0.00221003 0)
(0.840857 -0.0043314 0)
(0.82602 -0.00741562 0)
(0.801984 -0.0125233 0)
(0.763553 -0.0217641 0)
(0.699066 -0.0392752 0)
(0.583933 -0.0726542 0)
(0.415823 -0.127865 0)
(0.308821 -0.149469 0)
)
;

boundaryField
{
    movingWall
    {
        type            fixedValue;
        value           uniform (1 0 0);
    }
    fixedWalls
    {
        type            noSlip;
    }
    frontAndBack
    {
        type            empty;
    }
}


// ************************************************************************* //
