/*--------------------------------*- C++ -*----------------------------------*\
  =========                 |
  \\      /  F ield         | OpenFOAM: The Open Source CFD Toolbox
   \\    /   O peration     | Website:  https://openfoam.org
    \\  /    A nd           | Version:  8
     \\/     M anipulation  |
\*---------------------------------------------------------------------------*/
FoamFile
{
    version     2.0;
    format      ascii;
    class       surfaceScalarField;
    location    "13";
    object      phi;
}
// * * * * * * * * * * * * * * * * * * * * * * * * * * * * * * * * * * * * * //

dimensions      [0 3 -1 0 0 0 0];

internalField   nonuniform List<scalar> 
880
(
-6.68825e-06
6.68826e-06
-1.33845e-05
6.69625e-06
-1.97461e-05
6.3616e-06
-2.56191e-05
5.87305e-06
-3.08693e-05
5.25015e-06
-3.53843e-05
4.51501e-06
-3.90807e-05
3.69641e-06
-4.18915e-05
2.81078e-06
-4.38435e-05
1.95199e-06
-4.481e-05
9.66487e-07
-4.53662e-05
5.56223e-07
-6.70743e-07
-4.46954e-05
-7.02879e-06
1.3717e-05
-1.40616e-05
1.37291e-05
-2.07386e-05
1.30385e-05
-2.68969e-05
1.20313e-05
-3.23962e-05
1.07495e-05
-3.7124e-05
9.24286e-06
-4.1001e-05
7.5734e-06
-4.39668e-05
5.77661e-06
-4.60468e-05
4.03196e-06
-4.71592e-05
2.07886e-06
-4.78414e-05
1.23846e-06
-1.30487e-06
-4.72073e-05
-7.37414e-06
2.10912e-05
-1.47469e-05
2.11019e-05
-2.17357e-05
2.00273e-05
-2.81653e-05
1.8461e-05
-3.38837e-05
1.64678e-05
-3.87592e-05
1.41184e-05
-4.2679e-05
1.14932e-05
-4.55617e-05
8.6593e-06
-4.72955e-05
5.76578e-06
-4.79274e-05
2.71067e-06
-4.7026e-05
3.3712e-07
-3.19801e-06
-4.51329e-05
-7.90849e-06
2.89997e-05
-1.58066e-05
2.9e-05
-2.32781e-05
2.74988e-05
-3.01316e-05
2.53145e-05
-3.62075e-05
2.25437e-05
-4.13741e-05
1.92851e-05
-4.55308e-05
1.56499e-05
-4.86111e-05
1.17397e-05
-5.05174e-05
7.67199e-06
-5.12378e-05
3.4311e-06
-5.03384e-05
-5.62245e-07
-5.06363e-06
-4.84728e-05
-8.65588e-06
3.76556e-05
-1.72859e-05
3.763e-05
-2.54265e-05
3.56394e-05
-3.28616e-05
3.27497e-05
-3.94199e-05
2.91019e-05
-4.49601e-05
2.48253e-05
-4.93714e-05
2.00611e-05
-5.25618e-05
1.49301e-05
-5.44569e-05
9.56707e-06
-5.50519e-05
4.02615e-06
-5.41951e-05
-1.41907e-06
-7.2092e-06
-5.20496e-05
-9.64901e-06
4.73046e-05
-1.92457e-05
4.72267e-05
-2.82656e-05
4.46592e-05
-3.64576e-05
4.09417e-05
-4.36443e-05
3.62887e-05
-4.96816e-05
3.08626e-05
-5.44727e-05
2.48521e-05
-5.79493e-05
1.84068e-05
-6.00565e-05
1.16743e-05
-6.07571e-05
4.72676e-06
-5.98984e-05
-2.27781e-06
-9.41025e-06
-5.76973e-05
-1.09343e-05
5.82389e-05
-2.17699e-05
5.80623e-05
-3.19072e-05
5.47965e-05
-4.10412e-05
5.00757e-05
-4.89981e-05
4.42456e-05
-5.56302e-05
3.74947e-05
-6.08592e-05
3.00812e-05
-6.46325e-05
2.21801e-05
-6.69105e-05
1.39522e-05
-6.76872e-05
5.50348e-06
-6.69267e-05
-3.03832e-06
-1.16948e-05
-6.46422e-05
-1.25865e-05
7.08254e-05
-2.49832e-05
7.0459e-05
-3.65148e-05
6.6328e-05
-4.67854e-05
6.03464e-05
-5.56549e-05
5.3115e-05
-6.29732e-05
4.4813e-05
-6.87033e-05
3.58113e-05
-7.28251e-05
2.63018e-05
-7.53372e-05
1.64643e-05
-7.62418e-05
6.40813e-06
-7.55094e-05
-3.77075e-06
-1.40341e-05
-7.317e-05
-1.4695e-05
8.55203e-05
-2.90375e-05
8.48016e-05
-4.22925e-05
7.9583e-05
-5.39049e-05
7.19588e-05
-6.38237e-05
6.30338e-05
-7.18908e-05
5.28801e-05
-7.81466e-05
4.20671e-05
-8.26199e-05
3.07751e-05
-8.53594e-05
1.92038e-05
-8.63987e-05
7.44747e-06
-8.57355e-05
-4.43395e-06
-1.6418e-05
-8.33516e-05
-1.75042e-05
0.000103025
-3.42534e-05
0.000101551
-4.96391e-05
9.49687e-05
-6.275e-05
8.50697e-05
-7.38074e-05
7.40912e-05
-8.26194e-05
6.16921e-05
-8.93709e-05
4.88185e-05
-9.41571e-05
3.55614e-05
-9.70987e-05
2.21454e-05
-9.82703e-05
8.61913e-06
-9.76907e-05
-5.01357e-06
-1.8788e-05
-9.53208e-05
-2.08496e-05
0.000123874
-4.05482e-05
0.000121249
-5.85632e-05
0.000112984
-7.34551e-05
9.99616e-05
-8.58311e-05
8.64672e-05
-9.53812e-05
7.12422e-05
-0.000102551
5.59888e-05
-0.000107555
4.05652e-05
-0.000110631
2.5221e-05
-0.000111915
9.90306e-06
-0.00011146
-5.46798e-06
-2.1048e-05
-0.0001092
-2.66282e-05
0.000150502
-5.0012e-05
0.000144633
-7.13779e-05
0.00013435
-8.7539e-05
0.000116123
-0.000100932
9.98603e-05
-0.000110708
8.10182e-05
-0.000117946
6.32265e-05
-0.000122917
4.55361e-05
-0.000125989
2.82929e-05
-0.00012736
1.1274e-05
-0.000127083
-5.74468e-06
-2.29999e-05
-0.000125131
-3.16543e-05
0.000182157
-5.9409e-05
0.000172388
-8.4519e-05
0.00015946
-0.000102822
0.000134426
-0.000117734
0.000114771
-0.000127978
9.12624e-05
-0.00013533
7.05786e-05
-0.00014015
5.03564e-05
-0.000143067
3.12095e-05
-0.000144391
1.25987e-05
-0.000144357
-5.77867e-06
-2.46049e-05
-0.000142752
-4.66847e-05
0.000228841
-7.98602e-05
0.000205563
-0.000109963
0.000189563
-0.000127735
0.000152198
-0.000141987
0.000129023
-0.00015028
9.95554e-05
-0.000156169
7.64678e-05
-0.000159755
5.3942e-05
-0.000162006
3.34611e-05
-0.000163354
1.39468e-05
-0.000163737
-5.39626e-06
-2.50304e-05
-0.000163311
-5.33065e-05
0.000282148
-9.33632e-05
0.00024562
-0.000128479
0.000224678
-0.000148588
0.000172307
-0.000163956
0.000144391
-0.000171902
0.000107502
-0.000177138
8.17038e-05
-0.000179831
5.66343e-05
-0.000181359
3.49893e-05
-0.000182146
1.47343e-05
-0.000182839
-4.7035e-06
-2.49348e-05
-0.000182935
-0.000102422
0.00038457
-0.000144834
0.000288031
-0.000183077
0.000262922
-0.000195264
0.000184495
-0.000203168
0.000152295
-0.000204411
0.000108744
-0.000204205
8.14982e-05
-0.000203223
5.5652e-05
-0.000202854
3.46202e-05
-0.000203486
1.5367e-05
-0.000205023
-3.16683e-06
-2.20062e-05
-0.000207952
-0.000105313
0.000489883
-0.00016318
0.000345898
-0.000208742
0.000308484
-0.000222972
0.000198724
-0.000230221
0.000159544
-0.000229136
0.00010766
-0.000226546
7.89082e-05
-0.000223349
5.24553e-05
-0.000221137
3.24074e-05
-0.00022045
1.46803e-05
-0.000222053
-1.56338e-06
-1.87728e-05
-0.000225287
-0.000295316
0.000785199
-0.000310174
0.000360757
-0.000322338
0.000320647
-0.000307491
0.000183877
-0.000286282
0.000138335
-0.000271049
9.24264e-05
-0.000256183
6.4042e-05
-0.000246799
4.30717e-05
-0.000241185
2.6793e-05
-0.000239926
1.34217e-05
-0.000242769
1.27934e-06
-1.07381e-05
-0.000250803
-0.000384154
0.00116935
-0.000380409
0.000357011
-0.000380253
0.000320492
-0.000339494
0.000143118
-0.000303385
0.000102226
-0.000274121
6.31625e-05
-0.000250154
4.00749e-05
-0.000234145
2.70633e-05
-0.000223648
1.62957e-05
-0.000218709
8.48287e-06
-0.000219035
1.60482e-06
-5.38397e-06
-0.000224389
0.00116935
0.00152636
0.00184686
0.00198997
0.0020922
0.00215536
0.00219544
0.0022225
0.0022388
0.00224728
0.00224888
0.0022435
-3.4318e-05
1.25183e-05
-2.28958e-05
-2.63329e-05
4.76724e-06
-1.27523e-05
-2.13365e-05
-1.60543e-06
-3.39091e-06
-1.68049e-05
-6.56995e-06
2.03828e-06
-1.25789e-05
-1.0355e-05
6.12899e-06
-8.36416e-06
-1.3123e-05
8.90822e-06
-4.13797e-06
-1.49247e-05
1.06985e-05
-1.5403e-05
1.12651e-05
-3.69327e-05
2.24376e-06
-2.89866e-05
-3.17888e-06
-2.36847e-05
-6.90735e-06
-1.88282e-05
-1.14265e-05
-1.42333e-05
-1.49498e-05
-9.55455e-06
-1.78017e-05
-4.75587e-06
-1.97234e-05
-2.01589e-05
-3.97536e-05
-3.13554e-06
-3.45754e-05
-8.35703e-06
-2.90389e-05
-1.24438e-05
-2.34873e-05
-1.69781e-05
-1.7744e-05
-2.06931e-05
-1.18665e-05
-2.36793e-05
-5.87991e-06
-2.57099e-05
-2.60388e-05
-4.32928e-05
-8.31551e-06
-3.81288e-05
-1.3521e-05
-3.24137e-05
-1.8159e-05
-2.65076e-05
-2.28842e-05
-2.02393e-05
-2.69613e-05
-1.36582e-05
-3.02604e-05
-6.81699e-06
-3.25512e-05
-3.28558e-05
-4.80559e-05
-1.23092e-05
-4.32099e-05
-1.8367e-05
-3.73635e-05
-2.40054e-05
-3.08164e-05
-2.94313e-05
-2.36519e-05
-3.41258e-05
-1.5998e-05
-3.79143e-05
-7.99001e-06
-4.05591e-05
-4.08458e-05
-5.37046e-05
-1.6302e-05
-4.86504e-05
-2.34212e-05
-4.24567e-05
-3.01991e-05
-3.53188e-05
-3.65691e-05
-2.73086e-05
-4.21361e-05
-1.85606e-05
-4.66623e-05
-9.29946e-06
-4.98203e-05
-5.01453e-05
-6.07361e-05
-2.0208e-05
-5.54323e-05
-2.87251e-05
-4.8754e-05
-3.68775e-05
-4.08134e-05
-4.45097e-05
-3.17357e-05
-5.12137e-05
-2.16604e-05
-5.67376e-05
-1.0889e-05
-6.05917e-05
-6.10342e-05
-6.91393e-05
-2.42388e-05
-6.34993e-05
-3.4365e-05
-5.62389e-05
-4.41379e-05
-4.73942e-05
-5.33544e-05
-3.70976e-05
-6.15104e-05
-2.54387e-05
-6.83965e-05
-1.28531e-05
-7.31774e-05
-7.38873e-05
-7.91777e-05
-2.84127e-05
-7.31764e-05
-4.03663e-05
-6.52841e-05
-5.20301e-05
-5.54136e-05
-6.32249e-05
-4.3713e-05
-7.32109e-05
-3.01295e-05
-8.198e-05
-1.53278e-05
-8.7979e-05
-8.92152e-05
-9.10526e-05
-3.26809e-05
-8.47482e-05
-4.66708e-05
-7.62679e-05
-6.05104e-05
-6.53109e-05
-7.41818e-05
-5.20924e-05
-8.64295e-05
-3.61394e-05
-9.79329e-05
-1.86226e-05
-0.000105496
-0.000107838
-0.000104961
-3.69206e-05
-9.84513e-05
-5.318e-05
-8.94297e-05
-6.9532e-05
-7.72195e-05
-8.6392e-05
-6.23207e-05
-0.000101328
-4.34379e-05
-0.000116816
-2.27087e-05
-0.000126225
-0.000130547
-0.000121275
-4.07768e-05
-0.000115071
-5.93844e-05
-0.000106228
-7.8375e-05
-9.31843e-05
-9.94353e-05
-7.71475e-05
-0.000117365
-5.45466e-05
-0.000139417
-2.95336e-05
-0.000151238
-0.00016008
-0.000139276
-4.42534e-05
-0.000133185
-6.54755e-05
-0.000124401
-8.71585e-05
-0.000110131
-0.000113706
-9.27323e-05
-0.000134763
-6.60244e-05
-0.000166124
-3.67848e-05
-0.000180478
-0.000196865
-0.000161751
-4.58139e-05
-0.000157887
-6.93399e-05
-0.000151977
-9.30675e-05
-0.000139059
-0.000126625
-0.000122669
-0.000151153
-9.06044e-05
-0.000198189
-5.44421e-05
-0.00021664
-0.000251307
-0.000182283
-4.6466e-05
-0.000179182
-7.24409e-05
-0.000174546
-9.77034e-05
-0.000161384
-0.000139787
-0.000145701
-0.000166836
-0.000109117
-0.000234774
-6.96085e-05
-0.000256148
-0.000320916
-0.00021222
-4.21977e-05
-0.000216258
-6.84029e-05
-0.000220645
-9.33159e-05
-0.000217297
-0.000143135
-0.000211429
-0.000172704
-0.000172537
-0.000273666
-0.000125878
-0.000302807
-0.000446793
-0.000230359
-3.71256e-05
-0.000235666
-6.30962e-05
-0.000242361
-8.66204e-05
-0.00024121
-0.000144287
-0.000241693
-0.00017222
-0.000203748
-0.000311611
-0.000166502
-0.000340054
-0.000613295
-0.000264192
-2.37368e-05
-0.000285204
-4.20839e-05
-0.000312294
-5.95305e-05
-0.000346449
-0.000110132
-0.000385396
-0.000133272
-0.000388326
-0.000308681
-0.000371869
-0.000356511
-0.000985164
-0.000233643
-1.44821e-05
-0.000250963
-2.47646e-05
-0.000268446
-4.20473e-05
-0.000296385
-8.21927e-05
-0.000317271
-0.000112387
-0.000318276
-0.000307676
-0.000295
-0.000379787
-0.00128016
0.00222902
0.00220425
0.00216221
0.00208001
0.00196763
0.00165995
0.00128016
-6.11446e-07
6.11446e-07
-1.11727e-06
5.05821e-07
-1.42645e-06
3.09188e-07
-1.50754e-06
8.10887e-08
-1.35883e-06
-1.48709e-07
-1.01607e-06
-3.42766e-07
-5.35795e-07
-4.80274e-07
-5.35795e-07
-6.89851e-07
1.3013e-06
-1.25253e-06
1.06849e-06
-1.5846e-06
6.41262e-07
-1.64414e-06
1.40631e-07
-1.46878e-06
-3.24068e-07
-1.09495e-06
-7.16598e-07
-5.76888e-07
-9.98338e-07
-1.11268e-06
-1.01646e-06
2.31776e-06
-1.8034e-06
1.85543e-06
-2.24233e-06
1.08019e-06
-2.3358e-06
2.34099e-07
-2.07126e-06
-5.88607e-07
-1.52781e-06
-1.26004e-06
-7.99033e-07
-1.72712e-06
-1.91172e-06
-1.24923e-06
3.56699e-06
-2.19249e-06
2.79869e-06
-2.67617e-06
1.56387e-06
-2.68284e-06
2.40773e-07
-2.34124e-06
-9.30205e-07
-1.7198e-06
-1.88148e-06
-8.98317e-07
-2.5486e-06
-2.81003e-06
-2.32685e-06
5.89384e-06
-3.86209e-06
4.33392e-06
-4.50183e-06
2.20361e-06
-4.47483e-06
2.13776e-07
-3.81859e-06
-1.58645e-06
-2.74247e-06
-2.9576e-06
-1.41282e-06
-3.87825e-06
-4.22286e-06
-2.86236e-06
8.7562e-06
-4.7194e-06
6.19097e-06
-5.40617e-06
2.89038e-06
-5.1776e-06
-1.47941e-08
-4.37284e-06
-2.39121e-06
-3.14353e-06
-4.18691e-06
-1.62073e-06
-5.40105e-06
-5.84359e-06
-6.43173e-06
1.51879e-05
-9.51881e-06
9.27804e-06
-9.80108e-06
3.17265e-06
-8.95807e-06
-8.57797e-07
-7.21287e-06
-4.13641e-06
-4.99417e-06
-6.40561e-06
-2.52124e-06
-7.87398e-06
-8.36483e-06
-7.70791e-06
-1.11822e-05
-1.14004e-05
-1.02199e-05
-8.22736e-06
-5.72474e-06
-2.90023e-06
)
;

boundaryField
{
    movingWall
    {
        type            calculated;
        value           uniform 0;
    }
    fixedWalls
    {
        type            calculated;
        value           uniform 0;
    }
    frontAndBack
    {
        type            empty;
        value           nonuniform List<scalar> 0();
    }
}


// ************************************************************************* //
