/*--------------------------------*- C++ -*----------------------------------*\
  =========                 |
  \\      /  F ield         | OpenFOAM: The Open Source CFD Toolbox
   \\    /   O peration     | Website:  https://openfoam.org
    \\  /    A nd           | Version:  8
     \\/     M anipulation  |
\*---------------------------------------------------------------------------*/
FoamFile
{
    version     2.0;
    format      ascii;
    class       volVectorField;
    location    "13";
    object      U;
}
// * * * * * * * * * * * * * * * * * * * * * * * * * * * * * * * * * * * * * //

dimensions      [0 1 -1 0 0 0 0];

internalField   nonuniform List<vector> 
464
(
(-6.6759e-05 6.58622e-05 0)
(-0.000201403 6.59523e-05 0)
(-0.000333016 6.26669e-05 0)
(-0.000455795 5.78663e-05 0)
(-0.000567505 5.1734e-05 0)
(-0.000665633 4.44658e-05 0)
(-0.000747565 3.62912e-05 0)
(-0.000814626 2.71756e-05 0)
(-0.00085669 1.76152e-05 0)
(-0.000902654 6.33733e-06 0)
(-0.000880154 -3.91414e-06 0)
(-0.000947438 -1.18955e-05 0)
(-7.01678e-05 0.000202569 0)
(-0.000211637 0.000202787 0)
(-0.000349829 0.000192642 0)
(-0.000478637 0.000177837 0)
(-0.000595719 0.000158977 0)
(-0.000698433 0.000136763 0)
(-0.000784339 0.000112157 0)
(-0.000854495 8.58531e-05 0)
(-0.00089986 6.11661e-05 0)
(-0.00094768 3.28692e-05 0)
(-0.000928959 2.68845e-05 0)
(-0.00099807 -1.41342e-05 0)
(-7.36274e-05 0.000346534 0)
(-0.000222017 0.000346785 0)
(-0.000366802 0.000329268 0)
(-0.000501478 0.00030372 0)
(-0.000623525 0.000271191 0)
(-0.000729965 0.00023286 0)
(-0.000818131 0.000190187 0)
(-0.000886994 0.000144358 0)
(-0.0009322 9.88517e-05 0)
(-0.000960553 4.92967e-05 0)
(-0.000950449 2.1232e-05 0)
(-0.000936975 -3.94326e-05 0)
(-7.89829e-05 0.000498402 0)
(-0.000238074 0.000498556 0)
(-0.000393048 0.000473015 0)
(-0.000536824 0.000435806 0)
(-0.000666713 0.0003885 0)
(-0.000779594 0.000332765 0)
(-0.000873017 0.000270456 0)
(-0.000946019 0.000203046 0)
(-0.000995123 0.000133141 0)
(-0.00102551 6.02203e-05 0)
(-0.00101787 -7.09352e-06 0)
(-0.00100194 -8.65848e-05 0)
(-8.64815e-05 0.000663217 0)
(-0.000260518 0.000663039 0)
(-0.000429659 0.000628426 0)
(-0.000585994 0.000578107 0)
(-0.000726567 0.00051438 0)
(-0.00084801 0.000439511 0)
(-0.000947851 0.000355999 0)
(-0.00102431 0.000266015 0)
(-0.00107503 0.000172558 0)
(-0.00110079 7.5916e-05 0)
(-0.00109726 -1.61078e-05 0)
(-0.00106961 -0.000118021 0)
(-9.64638e-05 0.000845179 0)
(-0.000290307 0.000844286 0)
(-0.000478121 0.000799141 0)
(-0.000650871 0.00073367 0)
(-0.000805309 0.000651268 0)
(-0.000937975 0.00055484 0)
(-0.00104651 0.00044761 0)
(-0.00112946 0.000332245 0)
(-0.00118523 0.000211302 0)
(-0.00121417 8.61314e-05 0)
(-0.00121181 -3.97505e-05 0)
(-0.00118265 -0.000168463 0)
(-0.000109422 0.00104985 0)
(-0.00032878 0.00104753 0)
(-0.000540453 0.000989771 0)
(-0.000733867 0.000906229 0)
(-0.000905397 0.000802194 0)
(-0.00105167 0.000681217 0)
(-0.00117045 0.000547653 0)
(-0.00126062 0.000404767 0)
(-0.00132114 0.000255651 0)
(-0.00135184 0.000102289 0)
(-0.00135185 -5.21266e-05 0)
(-0.00132188 -0.000209473 0)
(-0.00012617 0.00128286 0)
(-0.000377984 0.00127809 0)
(-0.000619637 0.00120504 0)
(-0.000838449 0.00109943 0)
(-0.00103032 0.000969922 0)
(-0.00119252 0.00082045 0)
(-0.00132296 0.000657099 0)
(-0.00142146 0.000483598 0)
(-0.0014877 0.000303344 0)
(-0.00152195 0.00011851 0)
(-0.00152358 -6.87449e-05 0)
(-0.00149309 -0.000257327 0)
(-0.000147674 0.0015556 0)
(-0.000440339 0.00154523 0)
(-0.000719379 0.00145258 0)
(-0.000968989 0.00131799 0)
(-0.00118437 0.00115759 0)
(-0.00136449 0.000974283 0)
(-0.0015073 0.000777039 0)
(-0.00161437 0.000569681 0)
(-0.00168623 0.000356013 0)
(-0.00172393 0.000138158 0)
(-0.00172769 -8.21592e-05 0)
(-0.00169744 -0.000304329 0)
(-0.000177122 0.00186095 0)
(-0.000521896 0.0018448 0)
(-0.000847182 0.00173042 0)
(-0.00113344 0.0015619 0)
(-0.00137403 0.001366 0)
(-0.00157307 0.00114304 0)
(-0.00172756 0.000907414 0)
(-0.00184249 0.000662632 0)
(-0.00191923 0.000413062 0)
(-0.00196012 0.000160298 0)
(-0.00196607 -9.47553e-05 0)
(-0.0019369 -0.000352048 0)
(-0.00021259 0.00227952 0)
(-0.000619998 0.00223413 0)
(-0.00100263 0.00208338 0)
(-0.00133343 0.00185112 0)
(-0.00160322 0.00160482 0)
(-0.00182309 0.00132853 0)
(-0.00198771 0.00104756 0)
(-0.00210872 0.000761103 0)
(-0.00218856 0.000473613 0)
(-0.00223174 0.000185007 0)
(-0.00224003 -0.000105483 0)
(-0.00221336 -0.000399045 0)
(-0.00028175 0.00264577 0)
(-0.000777685 0.00259031 0)
(-0.00123057 0.00241306 0)
(-0.00161203 0.00213143 0)
(-0.00189657 0.00184268 0)
(-0.00213034 0.00151518 0)
(-0.00229498 0.00118975 0)
(-0.00241643 0.000860957 0)
(-0.00249532 0.000535473 0)
(-0.00253922 0.0002118 0)
(-0.00255012 -0.000112044 0)
(-0.00252835 -0.000440294 0)
(-0.000337793 0.00342385 0)
(-0.000923061 0.00323653 0)
(-0.00146185 0.00299946 0)
(-0.00190402 0.00253991 0)
(-0.00221943 0.00217299 0)
(-0.00247609 0.00173831 0)
(-0.00264195 0.0013473 0)
(-0.00276302 0.000964132 0)
(-0.00283772 0.000597234 0)
(-0.00287926 0.000238679 0)
(-0.00289212 -0.000119732 0)
(-0.00287654 -0.000484532 0)
(-0.000558018 0.00379357 0)
(-0.00129158 0.00360356 0)
(-0.00192739 0.00332612 0)
(-0.00243871 0.00280203 0)
(-0.00269774 0.00238805 0)
(-0.00295603 0.00189373 0)
(-0.00306903 0.00146341 0)
(-0.00316647 0.00104324 0)
(-0.00322076 0.000648534 0)
(-0.00325619 0.00026748 0)
(-0.00327334 -0.000108011 0)
(-0.00327327 -0.000490821 0)
(-0.000626827 0.00546496 0)
(-0.00149251 0.00469561 0)
(-0.0022628 0.00433152 0)
(-0.00284374 0.00333129 0)
(-0.0031276 0.00281281 0)
(-0.00340132 0.00211134 0)
(-0.0034925 0.00161151 0)
(-0.00357801 0.00112262 0)
(-0.00361351 0.000692453 0)
(-0.0036358 0.000286572 0)
(-0.00365039 -0.000112177 0)
(-0.00365887 -0.000522111 0)
(-0.00147176 0.00567874 0)
(-0.00257006 0.00503613 0)
(-0.00328936 0.00455947 0)
(-0.00395826 0.00350875 0)
(-0.00391526 0.00291346 0)
(-0.00415727 0.00216195 0)
(-0.00405708 0.00163589 0)
(-0.00408543 0.00113195 0)
(-0.00405674 0.000702994 0)
(-0.00406083 0.000307985 0)
(-0.00408208 -7.07946e-05 0)
(-0.00412298 -0.000460223 0)
(-0.00139766 0.0099277 0)
(-0.0027851 0.00659633 0)
(-0.00378493 0.00608115 0)
(-0.00449933 0.00392315 0)
(-0.00447459 0.00323186 0)
(-0.00468093 0.00221174 0)
(-0.00452275 0.00164313 0)
(-0.00451125 0.00110185 0)
(-0.00443751 0.000680708 0)
(-0.00440956 0.000299698 0)
(-0.00441848 -6.0807e-05 0)
(-0.00445918 -0.000436092 0)
(-0.00494836 0.00936662 0)
(-0.00667014 0.00713884 0)
(-0.00592024 0.00611236 0)
(-0.00680917 0.00399157 0)
(-0.00561526 0.00309383 0)
(-0.00574396 0.0020748 0)
(-0.00516263 0.00149367 0)
(-0.00504416 0.000988971 0)
(-0.00485442 0.000616921 0)
(-0.00479734 0.000295137 0)
(-0.00481224 2.09035e-06 0)
(-0.00490048 -0.000298253 0)
(-0.00753927 0.0225892 0)
(-0.00770833 0.00724081 0)
(-0.00760004 0.00685649 0)
(-0.00749438 0.00329488 0)
(-0.00616899 0.0024643 0)
(-0.00589477 0.00159508 0)
(-0.0051251 0.00105398 0)
(-0.00484677 0.000721468 0)
(-0.00454533 0.000443999 0)
(-0.00440387 0.000232681 0)
(-0.00436027 4.55514e-05 0)
(-0.00438743 -0.000143923 0)
(0.0241424 0.0233391 0)
(0.0234848 0.00694804 0)
(0.0367791 0.00577943 0)
(0.0376541 0.00242174 0)
(0.041537 0.00158482 0)
(0.0424097 0.000919128 0)
(0.0436317 0.000541424 0)
(0.0442182 0.000354327 0)
(0.0446357 0.000208737 0)
(0.0448789 0.000110386 0)
(0.0449731 2.12358e-05 0)
(0.0449573 -6.50717e-05 0)
(-0.00082294 0.00044403 0)
(-0.000562466 0.000232642 0)
(-0.000484173 4.53368e-05 0)
(-0.000373954 -6.60247e-05 0)
(-0.000295695 -0.000152508 0)
(-0.000208844 -0.000211224 0)
(-0.000124956 -0.00024917 0)
(-4.10562e-05 -0.000260632 0)
(-0.00087215 6.8487e-05 0)
(-0.000618322 -3.58768e-05 0)
(-0.000534061 -0.000106661 0)
(-0.00041816 -0.000191997 0)
(-0.000332446 -0.000257002 0)
(-0.000238058 -0.000309602 0)
(-0.00014336 -0.000344551 0)
(-4.7394e-05 -0.000352808 0)
(-0.00085919 1.76905e-05 0)
(-0.000737738 -9.48916e-05 0)
(-0.000640288 -0.000174692 0)
(-0.000524279 -0.000270401 0)
(-0.000413292 -0.000346063 0)
(-0.000296468 -0.000406847 0)
(-0.0001774 -0.000448033 0)
(-5.84715e-05 -0.000456753 0)
(-0.000927726 -0.000139716 0)
(-0.000810646 -0.00023473 0)
(-0.000709586 -0.000317736 0)
(-0.000589527 -0.000403772 0)
(-0.000468904 -0.000477424 0)
(-0.000340141 -0.000537263 0)
(-0.000205264 -0.000579022 0)
(-6.8002e-05 -0.000585103 0)
(-0.00100733 -0.000196814 0)
(-0.000915745 -0.000310406 0)
(-0.000809338 -0.00041346 0)
(-0.000683961 -0.000516104 0)
(-0.000546782 -0.000605053 0)
(-0.000398203 -0.000676617 0)
(-0.000240571 -0.000725995 0)
(-7.97438e-05 -0.000731932 0)
(-0.00112012 -0.000292027 0)
(-0.00102728 -0.000420776 0)
(-0.00091529 -0.000543112 0)
(-0.000781119 -0.000658464 0)
(-0.00062942 -0.000759433 0)
(-0.000461259 -0.000841375 0)
(-0.00027976 -0.000898543 0)
(-9.29432e-05 -0.000904336 0)
(-0.00125965 -0.000362561 0)
(-0.00116682 -0.000518772 0)
(-0.00104702 -0.000667774 0)
(-0.00090028 -0.00080714 0)
(-0.000729695 -0.000928902 0)
(-0.000537533 -0.0010283 0)
(-0.000327213 -0.00109766 0)
(-0.000108998 -0.00110497 0)
(-0.00142942 -0.000444306 0)
(-0.00133249 -0.000629824 0)
(-0.00120366 -0.000808064 0)
(-0.00104225 -0.000975072 0)
(-0.000850585 -0.00112217 0)
(-0.000630287 -0.00124438 0)
(-0.000385351 -0.00132952 0)
(-0.000128908 -0.00134009 0)
(-0.00163214 -0.00052597 0)
(-0.00153058 -0.00074603 0)
(-0.00139227 -0.000959366 0)
(-0.00121439 -0.00116197 0)
(-0.000999003 -0.00134195 0)
(-0.000745217 -0.00149649 0)
(-0.000458001 -0.00160322 0)
(-0.00015431 -0.00162179 0)
(-0.00187112 -0.000610677 0)
(-0.00176589 -0.000869409 0)
(-0.0016196 -0.00112286 0)
(-0.00142484 -0.00136799 0)
(-0.0011851 -0.00158616 0)
(-0.000891969 -0.00178062 0)
(-0.000553033 -0.00191197 0)
(-0.00018945 -0.0019415 0)
(-0.0021495 -0.000696933 0)
(-0.00204276 -0.000999882 0)
(-0.00189084 -0.00130298 0)
(-0.0016777 -0.00160923 0)
(-0.00141162 -0.0018847 0)
(-0.00107156 -0.00215564 0)
(-0.00066986 -0.00232926 0)
(-0.000234324 -0.00239583 0)
(-0.00247196 -0.000775231 0)
(-0.00237195 -0.00111942 0)
(-0.00222895 -0.00146571 0)
(-0.00200664 -0.0018283 0)
(-0.00173146 -0.0021441 0)
(-0.00133725 -0.00248661 0)
(-0.00085527 -0.0026851 0)
(-0.00031744 -0.00278912 0)
(-0.0028286 -0.000864613 0)
(-0.00273322 -0.00127057 0)
(-0.00259957 -0.0016904 0)
(-0.00235613 -0.00217994 0)
(-0.0020696 -0.00258992 0)
(-0.00161356 -0.00314083 0)
(-0.001046 -0.00342189 0)
(-0.000411383 -0.00367733 0)
(-0.00325806 -0.000890412 0)
(-0.00319794 -0.00132536 0)
(-0.00313834 -0.00176301 0)
(-0.00290677 -0.00232287 0)
(-0.00269205 -0.00274254 0)
(-0.00217093 -0.00343154 0)
(-0.00148571 -0.00371409 0)
(-0.00066624 -0.00410769 0)
(-0.00366294 -0.000961723 0)
(-0.00360569 -0.00147851 0)
(-0.00359619 -0.00200294 0)
(-0.00333585 -0.00280335 0)
(-0.00317569 -0.00338265 0)
(-0.00258801 -0.00460036 0)
(-0.00182888 -0.00507262 0)
(-0.000914171 -0.00608425 0)
(-0.00421468 -0.000871325 0)
(-0.00424016 -0.00137983 0)
(-0.00446344 -0.00184828 0)
(-0.00428982 -0.00270771 0)
(-0.00448783 -0.00318431 0)
(-0.00386783 -0.00464935 0)
(-0.00312029 -0.00500549 0)
(-0.00183583 -0.00655886 0)
(-0.0045819 -0.00084442 0)
(-0.00458204 -0.00139901 0)
(-0.00492094 -0.00194847 0)
(-0.00467121 -0.00311102 0)
(-0.00510223 -0.00385235 0)
(-0.00441933 -0.00648287 0)
(-0.00386803 -0.00733511 0)
(-0.00266426 -0.0116194 0)
(-0.00517071 -0.000610858 0)
(-0.00533829 -0.00107825 0)
(-0.00616691 -0.00144367 0)
(-0.00619407 -0.00255108 0)
(-0.0078417 -0.00287897 0)
(-0.00735207 -0.00574125 0)
(-0.0084219 -0.00595783 0)
(-0.00617908 -0.0124653 0)
(-0.00463568 -0.000363255 0)
(-0.00463328 -0.000642246 0)
(-0.0055254 -0.00100113 0)
(-0.00504742 -0.00195107 0)
(-0.00703312 -0.0026053 0)
(-0.00538116 -0.00687249 0)
(-0.00766814 -0.00868392 0)
(-0.00380376 -0.0277303 0)
(0.0446828 -0.000200881 0)
(0.0446426 -0.000326526 0)
(0.0431994 -0.000636646 0)
(0.0437232 -0.0012637 0)
(0.0388522 -0.00176517 0)
(0.0405696 -0.00516568 0)
(0.024901 -0.00611094 0)
(0.0273529 -0.0223927 0)
(-6.35634e-06 -1.02272e-06 0)
(-1.80328e-05 -1.71157e-06 0)
(-2.64486e-05 -2.74874e-06 0)
(-3.04079e-05 -4.20951e-06 0)
(-2.96483e-05 -5.04024e-06 0)
(-2.4522e-05 -5.8564e-06 0)
(-1.59572e-05 -6.3585e-06 0)
(-5.44774e-06 -6.49579e-06 0)
(-7.24304e-06 2.61575e-05 0)
(-2.02592e-05 2.25419e-05 0)
(-2.96323e-05 1.55538e-05 0)
(-3.34873e-05 7.6625e-06 0)
(-3.20632e-05 -6.58439e-07 0)
(-2.64768e-05 -7.51905e-06 0)
(-1.71636e-05 -1.25045e-05 0)
(-5.87881e-06 -1.45956e-05 0)
(-1.07671e-05 2.45021e-05 0)
(-2.97413e-05 1.89711e-05 0)
(-4.20237e-05 9.20283e-06 0)
(-4.74143e-05 -2.43096e-06 0)
(-4.56037e-05 -1.28342e-05 0)
(-3.70117e-05 -2.18495e-05 0)
(-2.38569e-05 -2.81684e-05 0)
(-8.08436e-06 -3.0642e-05 0)
(-1.34787e-05 7.06287e-05 0)
(-3.62725e-05 5.73243e-05 0)
(-5.10474e-05 3.54705e-05 0)
(-5.55321e-05 1.24261e-05 0)
(-5.14896e-05 -9.8417e-06 0)
(-4.18243e-05 -2.7438e-05 0)
(-2.67507e-05 -3.97818e-05 0)
(-9.13745e-06 -4.47264e-05 0)
(-2.58514e-05 6.84734e-05 0)
(-6.66943e-05 5.15939e-05 0)
(-8.69361e-05 2.49973e-05 0)
(-9.27253e-05 -3.55135e-06 0)
(-8.54657e-05 -2.86518e-05 0)
(-6.69602e-05 -4.94273e-05 0)
(-4.23371e-05 -6.37944e-05 0)
(-1.42112e-05 -6.92595e-05 0)
(-3.22171e-05 0.000173004 0)
(-8.16283e-05 0.000126315 0)
(-0.000106213 6.60358e-05 0)
(-0.000109186 1.29105e-05 0)
(-9.73702e-05 -3.29672e-05 0)
(-7.69863e-05 -6.67375e-05 0)
(-4.83985e-05 -8.92693e-05 0)
(-1.64008e-05 -9.77077e-05 0)
(-7.70387e-05 0.000169101 0)
(-0.000178155 0.000115059 0)
(-0.000200369 4.58183e-05 0)
(-0.000191717 -1.37412e-05 0)
(-0.000165103 -6.51956e-05 0)
(-0.000123277 -0.000103562 0)
(-7.58777e-05 -0.000129481 0)
(-2.52006e-05 -0.000138588 0)
(-9.64505e-05 0.000452112 0)
(-0.000209577 0.000265212 0)
(-0.000235106 8.54153e-05 0)
(-0.000220221 -1.86584e-05 0)
(-0.000187208 -9.69293e-05 0)
(-0.000141315 -0.000149288 0)
(-8.70785e-05 -0.000182472 0)
(-2.9125e-05 -0.000193307 0)
)
;

boundaryField
{
    movingWall
    {
        type            fixedValue;
        value           uniform (1 0 0);
    }
    fixedWalls
    {
        type            noSlip;
    }
    frontAndBack
    {
        type            empty;
    }
}


// ************************************************************************* //
