0 	7.63398e-11
1.57135 	6.2259e-07
3.1427 	8.31105e-06
4.71405 	3.98295e-05
6.28539 	0.000120883
7.85674 	0.000285211
9.42809 	0.000570267
10.9994 	0.00103239
12.5708 	0.00185289
14.1421 	0.00519832
