0 	0 	0 	0
1.57135 	-0.000358745 	0.000326131 	0
3.1427 	-0.000796533 	0.000562633 	0
4.71405 	-0.00134614 	0.000596516 	0
6.28539 	-0.00199117 	0.000322576 	0
7.85674 	-0.00268948 	-0.00032908 	0
9.42809 	-0.00349759 	-0.00139902 	0
10.9994 	-0.00485178 	-0.00311577 	0
12.5708 	-0.00776653 	-0.00704532 	0
14.1421 	0.5 	0 	0
