0 	0 	0 	0
1.57135 	-0.00121254 	0.00117562 	0
3.1427 	-0.00264989 	0.00232051 	0
4.71405 	-0.00439733 	0.00322923 	0
6.28539 	-0.00671181 	0.00395074 	0
7.85674 	-0.00995764 	0.00516174 	0
9.42809 	-0.01401 	0.00983417 	0
10.9994 	-0.0073421 	0.0254048 	0
12.5708 	0.0170322 	0.00650396 	0
14.1421 	0.5 	0 	0
