/*--------------------------------*- C++ -*----------------------------------*\
  =========                 |
  \\      /  F ield         | OpenFOAM: The Open Source CFD Toolbox
   \\    /   O peration     | Website:  https://openfoam.org
    \\  /    A nd           | Version:  8
     \\/     M anipulation  |
\*---------------------------------------------------------------------------*/
FoamFile
{
    version     2.0;
    format      ascii;
    class       volScalarField;
    location    "4";
    object      p;
}
// * * * * * * * * * * * * * * * * * * * * * * * * * * * * * * * * * * * * * //

dimensions      [0 2 -2 0 0 0 0];

internalField   nonuniform List<scalar> 
11600
(
3.70873e-10
3.12386e-07
1.53795e-06
3.47853e-06
6.16378e-06
9.59218e-06
1.37598e-05
1.86626e-05
2.42961e-05
3.06551e-05
3.77336e-05
4.5525e-05
5.40219e-05
6.32163e-05
7.30997e-05
8.3663e-05
9.48962e-05
0.000106789
0.00011933
0.000132508
0.000146311
0.000160726
0.000175739
0.000191338
0.000207508
0.000224234
0.0002415
0.000259293
0.000277595
0.00029639
0.000315662
0.000335395
0.000355569
0.00037617
0.000397178
0.000418577
0.000440348
0.000462474
0.000484938
0.000507721
0.000530808
0.000554181
0.000577824
0.000601722
0.000625861
0.000650228
0.000674812
0.000699603
0.000724597
0.000749792
0.000775191
0.000800807
0.000826661
0.000852791
0.00087926
0.000906177
0.000933704
0.000961527
0.000993506
0.0010185
-3.12917e-07
-9.79904e-10
1.2286e-06
3.17044e-06
5.85661e-06
9.28604e-06
1.34551e-05
1.83598e-05
2.39954e-05
3.03566e-05
3.74375e-05
4.52316e-05
5.37315e-05
6.29292e-05
7.28162e-05
8.33832e-05
9.46204e-05
0.000106517
0.000119063
0.000132246
0.000146054
0.000160474
0.000175493
0.000191097
0.000207272
0.000224004
0.000241277
0.000259076
0.000277384
0.000296186
0.000315465
0.000335204
0.000355386
0.000375994
0.000397009
0.000418415
0.000440193
0.000462327
0.000484798
0.000507588
0.000530682
0.000554061
0.000577711
0.000601615
0.00062576
0.000650132
0.000674719
0.000699514
0.000724509
0.000749703
0.000775098
0.000800705
0.000826545
0.000852652
0.000879082
0.000905929
0.000933328
0.000961182
0.000991806
0.00101874
-1.54138e-06
-1.23272e-06
-1.30636e-09
1.94349e-06
4.63384e-06
8.0684e-06
1.22437e-05
1.71558e-05
2.28001e-05
2.9171e-05
3.62628e-05
4.40688e-05
5.25816e-05
6.17934e-05
7.16954e-05
8.22785e-05
9.35328e-05
0.000105448
0.000118012
0.000131215
0.000145044
0.000159485
0.000174527
0.000190154
0.000206354
0.00022311
0.000240409
0.000258234
0.000276569
0.000295398
0.000314705
0.000334472
0.000354682
0.000375318
0.000396363
0.000417797
0.000439605
0.000461767
0.000484266
0.000507085
0.000530206
0.000553612
0.000577286
0.000601214
0.000625379
0.000649769
0.000674371
0.000699174
0.000724172
0.000749358
0.000774733
0.0008003
0.000826072
0.000852066
0.000878314
0.000904856
0.000931733
0.000958942
0.000987159
0.00101359
-3.49067e-06
-3.18206e-06
-1.94774e-06
1.72442e-09
2.69874e-06
6.14171e-06
1.03271e-05
1.52511e-05
2.0909e-05
2.72954e-05
3.44044e-05
4.22293e-05
5.07627e-05
5.99967e-05
6.99226e-05
8.05312e-05
9.18125e-05
0.000103756
0.000116351
0.000129585
0.000143447
0.000157923
0.000173
0.000188664
0.000204902
0.000221698
0.000239036
0.000256903
0.00027528
0.000294152
0.000313503
0.000333315
0.00035357
0.000374252
0.000395342
0.000416823
0.000438676
0.000460884
0.000483429
0.000506292
0.000529457
0.000552905
0.00057662
0.000600585
0.000624785
0.000649205
0.000673831
0.000698651
0.000723656
0.000748837
0.000774188
0.000799708
0.000825399
0.000851265
0.000877317
0.000903563
0.000930007
0.000956642
0.000983613
0.00100975
-6.19403e-06
-5.88456e-06
-4.64624e-06
-2.69044e-06
1.56088e-08
3.47024e-06
7.66977e-06
1.26103e-05
1.82872e-05
2.46951e-05
3.1828e-05
3.96791e-05
4.82412e-05
5.75061e-05
6.74653e-05
7.81093e-05
8.94283e-05
0.000101412
0.000114048
0.000127326
0.000141234
0.000155757
0.000170884
0.0001866
0.00020289
0.000219741
0.000237136
0.000255059
0.000273496
0.000292428
0.00031184
0.000331713
0.000352031
0.000372777
0.000393931
0.000415475
0.000437393
0.000459665
0.000482273
0.000505198
0.000528424
0.000551931
0.000575702
0.000599721
0.00062397
0.000648433
0.000673095
0.000697943
0.000722962
0.000748141
0.000773471
0.000798941
0.000824543
0.000850269
0.000876109
0.000902044
0.000928043
0.000954048
0.000979992
0.0010054
-9.65457e-06
-9.3438e-06
-8.10011e-06
-6.13606e-06
-3.41849e-06
5.09868e-08
4.26862e-06
9.23041e-06
1.49317e-05
2.13672e-05
2.85307e-05
3.64156e-05
4.50143e-05
5.4319e-05
6.43207e-05
7.50102e-05
8.63774e-05
9.84118e-05
0.000111102
0.000124436
0.000138403
0.000152987
0.000168178
0.000183959
0.000200318
0.000217238
0.000234705
0.000252702
0.000271214
0.000290223
0.000309713
0.000329666
0.000350065
0.000370891
0.000392127
0.000413755
0.000435754
0.000458108
0.000480798
0.000503804
0.000527108
0.000550692
0.000574537
0.000598626
0.000622939
0.000647461
0.000672174
0.000697061
0.000722107
0.000747296
0.000772613
0.000798042
0.000823566
0.000849167
0.000874818
0.000900487
0.000926122
0.000951646
0.000976946
0.00100177
-1.38749e-05
-1.35627e-05
-1.23124e-05
-1.03381e-05
-7.60643e-06
-4.11885e-06
1.20843e-07
5.10861e-06
1.08398e-05
1.73089e-05
2.45098e-05
3.24358e-05
4.10795e-05
5.04326e-05
6.04863e-05
7.12313e-05
8.26575e-05
9.47541e-05
0.00010751
0.000120913
0.000134951
0.00014961
0.000164878
0.00018074
0.000197182
0.000214187
0.000231742
0.000249829
0.000268433
0.000287536
0.000307122
0.000327172
0.00034767
0.000368596
0.000389932
0.00041166
0.000433761
0.000456216
0.000479006
0.000502111
0.000525513
0.000549192
0.000573129
0.000597305
0.000621701
0.000646298
0.000671078
0.000696021
0.000721109
0.000746323
0.000771644
0.000797049
0.000822516
0.000848017
0.000873517
0.000898973
0.000924324
0.000949488
0.000974353
0.000998747
-1.88589e-05
-1.85452e-05
-1.72872e-05
-1.53007e-05
-1.25522e-05
-9.04322e-06
-4.77744e-06
2.41039e-07
6.00746e-06
1.25164e-05
1.97616e-05
2.77363e-05
3.6433e-05
4.58434e-05
5.59587e-05
6.67693e-05
7.82652e-05
9.04355e-05
0.000103269
0.000116753
0.000130876
0.000145624
0.000160983
0.00017694
0.00019348
0.000210587
0.000228245
0.000246439
0.000265152
0.000284366
0.000304065
0.000324231
0.000344845
0.000365889
0.000387345
0.000409192
0.000431414
0.000453989
0.000476898
0.000500121
0.00052364
0.000547433
0.000571481
0.000595764
0.000620261
0.000644952
0.000669817
0.000694836
0.000719985
0.000745245
0.00077059
0.000795997
0.000821435
0.000846872
0.000872268
0.000897574
0.000922726
0.000947646
0.000972231
0.000996353
-2.46115e-05
-2.42958e-05
-2.30291e-05
-2.10286e-05
-1.82606e-05
-1.47268e-05
-1.04309e-05
-5.37692e-06
4.30276e-07
6.98518e-06
1.42816e-05
2.23126e-05
3.10705e-05
4.05472e-05
5.07336e-05
6.16201e-05
7.31965e-05
8.54519e-05
9.83747e-05
0.000111953
0.000126174
0.000141024
0.00015649
0.000172556
0.000189209
0.000206433
0.000224212
0.000242529
0.000261368
0.000280711
0.000300541
0.00032084
0.000341589
0.00036277
0.000384364
0.000406351
0.000428712
0.000451426
0.000474475
0.000497837
0.000521492
0.000545419
0.000569598
0.000594008
0.000618627
0.000643433
0.000668405
0.000693519
0.000718753
0.000744081
0.000769478
0.000794915
0.000820358
0.000845773
0.000871116
0.000896335
0.00092137
0.000946147
0.000970576
0.000994556
-3.11382e-05
-3.08202e-05
-2.95435e-05
-2.75271e-05
-2.47371e-05
-2.11751e-05
-1.68449e-05
-1.17506e-05
-5.89706e-06
7.10096e-07
8.06462e-06
1.61595e-05
2.49871e-05
3.4539e-05
4.48062e-05
5.57789e-05
6.74468e-05
7.97989e-05
9.28235e-05
0.000106508
0.000120841
0.000135807
0.000151393
0.000167585
0.000184366
0.000201723
0.000219638
0.000238096
0.000257078
0.000276568
0.000296547
0.000316998
0.000337901
0.000359238
0.000380989
0.000403135
0.000425655
0.000448529
0.000471737
0.000495258
0.000519071
0.000543153
0.000567485
0.000592043
0.000616805
0.000641748
0.000666849
0.000692084
0.000717426
0.000742851
0.000768328
0.000793827
0.000819313
0.000844749
0.00087009
0.000895286
0.000920278
0.000944998
0.00096937
0.000993311
-3.84452e-05
-3.81246e-05
-3.68366e-05
-3.48024e-05
-3.19877e-05
-2.83941e-05
-2.40255e-05
-1.8886e-05
-1.29805e-05
-6.3148e-06
1.10488e-06
9.27144e-06
1.81771e-05
2.78134e-05
3.81711e-05
4.92405e-05
6.10109e-05
7.34714e-05
8.66101e-05
0.000100414
0.000114872
0.000129968
0.000145689
0.000162021
0.000178948
0.000196453
0.000214522
0.000233136
0.000252279
0.000271934
0.000292081
0.000312702
0.000333778
0.000355291
0.000377219
0.000399544
0.000422244
0.000445298
0.000468687
0.000492388
0.000516379
0.000540639
0.000565145
0.000589873
0.000614802
0.000639906
0.000665161
0.000690541
0.000716019
0.000741568
0.000767157
0.000792753
0.000818322
0.000843823
0.000869213
0.000894444
0.000919459
0.000944199
0.000968596
0.00099258
-4.65396e-05
-4.62161e-05
-4.49156e-05
-4.28616e-05
-4.00195e-05
-3.63908e-05
-3.19795e-05
-2.67899e-05
-2.08269e-05
-1.40961e-05
-6.60418e-06
1.64186e-06
1.06341e-05
2.0364e-05
3.08221e-05
4.19987e-05
5.3883e-05
6.64637e-05
7.97289e-05
9.3666e-05
0.000108262
0.000123503
0.000139374
0.000155861
0.000172948
0.000190619
0.000208858
0.000227647
0.000246969
0.000266806
0.000287139
0.00030795
0.000329219
0.000350926
0.000373052
0.000395576
0.000418477
0.000441733
0.000465324
0.000489226
0.000513419
0.000537878
0.000562581
0.000587504
0.000612623
0.000637912
0.000663347
0.0006889
0.000714543
0.000740246
0.00076598
0.000791709
0.000817399
0.00084301
0.000868499
0.000893818
0.000918918
0.000943742
0.000968233
0.00099233
-5.5429e-05
-5.51023e-05
-5.3788e-05
-5.17123e-05
-4.884e-05
-4.51728e-05
-4.07146e-05
-3.54698e-05
-2.94435e-05
-2.26413e-05
-1.50698e-05
-6.73637e-06
2.3511e-06
1.21839e-05
2.27525e-05
3.4047e-05
4.60564e-05
5.87694e-05
7.21738e-05
8.62568e-05
0.000101005
0.000116405
0.000132441
0.000149099
0.000166363
0.000184216
0.000202642
0.000221623
0.000241142
0.00026118
0.000281719
0.000302739
0.00032422
0.000346143
0.000368487
0.000391231
0.000414353
0.000437833
0.000461648
0.000485775
0.000510191
0.000534873
0.000559797
0.000584939
0.000610273
0.000635774
0.000661415
0.000687169
0.000713006
0.000738896
0.000764807
0.000790706
0.000816557
0.00084232
0.000867954
0.000893414
0.000918653
0.00094362
0.000968263
0.000992529
-6.51219e-05
-6.47918e-05
-6.34625e-05
-6.1363e-05
-5.84577e-05
-5.47484e-05
-5.02391e-05
-4.49341e-05
-3.88385e-05
-3.19583e-05
-2.43001e-05
-1.58711e-05
-6.67968e-06
3.26548e-06
1.39548e-05
2.5378e-05
3.75241e-05
5.03815e-05
6.39379e-05
7.81804e-05
9.30953e-05
0.000108668
0.000124885
0.00014173
0.000159186
0.000177239
0.000195869
0.000215061
0.000234795
0.000255053
0.000275816
0.000297065
0.000318779
0.000340938
0.000363521
0.000386506
0.000409873
0.000433598
0.000457659
0.000482033
0.000506697
0.000531626
0.000556796
0.000582182
0.000607757
0.000633497
0.000659372
0.000685355
0.000711416
0.000737524
0.000763648
0.000789753
0.000815803
0.00084176
0.000867584
0.000893232
0.00091866
0.000943821
0.000968667
0.000993153
-7.56277e-05
-7.52939e-05
-7.39483e-05
-7.1823e-05
-6.88819e-05
-6.51269e-05
-6.0562e-05
-5.51916e-05
-4.9021e-05
-4.20561e-05
-3.43036e-05
-2.5771e-05
-1.64667e-05
-6.39953e-06
4.42074e-06
1.59837e-05
2.82782e-05
4.12924e-05
5.50138e-05
6.94294e-05
8.45251e-05
0.000100287
0.000116699
0.000133747
0.000151413
0.000169681
0.000188534
0.000207954
0.000227922
0.00024842
0.000269427
0.000290924
0.000312892
0.000335307
0.000358151
0.0003814
0.000405032
0.000429025
0.000453356
0.000478002
0.000502937
0.000528137
0.000553578
0.000579234
0.000605078
0.000631083
0.00065722
0.000683463
0.000709779
0.000736138
0.000762508
0.000788855
0.000815143
0.000841334
0.000867391
0.000893271
0.000918933
0.000944335
0.000969431
0.00099418
-8.69565e-05
-8.66186e-05
-8.52554e-05
-8.31023e-05
-8.01226e-05
-7.63182e-05
-7.16933e-05
-6.62523e-05
-6.00006e-05
-5.29441e-05
-4.50899e-05
-3.64454e-05
-2.70191e-05
-1.68202e-05
-5.85848e-06
5.85542e-06
1.83102e-05
3.14938e-05
4.53935e-05
5.99959e-05
7.52871e-05
9.12522e-05
0.000107876
0.000125143
0.000143035
0.000161537
0.000180631
0.000200297
0.000220519
0.000241275
0.000262546
0.000284313
0.000306554
0.000329249
0.000352374
0.000375909
0.00039983
0.000424115
0.000448739
0.000473679
0.000498911
0.000524408
0.000550146
0.000576098
0.000602237
0.000628535
0.000654965
0.000681496
0.000708099
0.000734742
0.000761392
0.000788016
0.000814579
0.000841044
0.000867373
0.000893527
0.000919467
0.000945152
0.000970541
0.000995595
-9.91193e-05
-9.8777e-05
-9.73949e-05
-9.52117e-05
-9.21906e-05
-8.83331e-05
-8.36436e-05
-7.81267e-05
-7.17877e-05
-6.46329e-05
-5.66692e-05
-4.79043e-05
-3.83469e-05
-2.80063e-05
-1.68925e-05
-5.01621e-06
7.61091e-06
2.09767e-05
3.50681e-05
4.98716e-05
6.53729e-05
8.1557e-05
9.84083e-05
0.000115911
0.000134047
0.0001528
0.000172153
0.000192085
0.000212578
0.000233613
0.000255169
0.000277226
0.000299763
0.000322757
0.000346187
0.00037003
0.000394264
0.000418863
0.000443805
0.000469065
0.000494618
0.000520438
0.000546499
0.000572774
0.000599236
0.000625857
0.000652608
0.000679458
0.000706379
0.000733338
0.000760302
0.000787239
0.000814113
0.000840888
0.000867529
0.000893998
0.000920255
0.000946264
0.000971985
0.000997381
-0.000112128
-0.000111781
-0.000110378
-0.000108163
-0.000105097
-0.000101183
-9.64244e-05
-9.08261e-05
-8.43937e-05
-7.71334e-05
-6.90525e-05
-6.01587e-05
-5.04608e-05
-3.99683e-05
-2.86915e-05
-1.66413e-05
-3.82953e-06
9.7314e-06
2.40283e-05
3.90472e-05
5.47737e-05
7.11924e-05
8.82875e-05
0.000106042
0.00012444
0.000143463
0.000163092
0.000183309
0.000204095
0.000225429
0.00024729
0.000269659
0.000292512
0.000315829
0.000339586
0.000363761
0.00038833
0.000413269
0.000438553
0.000464158
0.000490058
0.000516226
0.000542637
0.000569263
0.000596076
0.000623048
0.00065015
0.000677351
0.000704621
0.000731928
0.00075924
0.000786524
0.000813745
0.000840868
0.000867858
0.000894678
0.000921291
0.000947661
0.000973752
0.000999526
-0.000125994
-0.000125642
-0.000124218
-0.000121969
-0.000118856
-0.000114881
-0.000110048
-0.000104363
-9.78306e-05
-9.04578e-05
-8.22516e-05
-7.32201e-05
-6.33722e-05
-5.27176e-05
-4.12667e-05
-2.90307e-05
-1.60217e-05
-2.25238e-06
1.22639e-05
2.75129e-05
4.34798e-05
6.01491e-05
7.75046e-05
9.55294e-05
0.000114206
0.000133517
0.000153442
0.000173964
0.000195062
0.000216715
0.000238903
0.000261604
0.000284797
0.000308459
0.000332567
0.000357097
0.000382025
0.000407328
0.000432979
0.000458955
0.000485228
0.000511772
0.00053856
0.000565564
0.000592757
0.00062011
0.000647592
0.000675174
0.000702825
0.000730513
0.000758206
0.000785871
0.000813474
0.00084098
0.000868355
0.000895564
0.000922569
0.000949337
0.000975832
0.00100202
-0.000140733
-0.000140375
-0.000138928
-0.000136642
-0.000133478
-0.000129439
-0.000124528
-0.00011875
-0.000112111
-0.000104619
-9.6279e-05
-8.71009e-05
-7.70933e-05
-6.6266e-05
-5.46298e-05
-4.2196e-05
-2.8977e-05
-1.49857e-05
-2.35866e-07
1.52581e-05
3.14811e-05
4.84173e-05
6.60501e-05
8.43623e-05
0.000103336
0.000122953
0.000143195
0.000164041
0.000185471
0.000207465
0.000230001
0.000253057
0.000276612
0.000300642
0.000325123
0.000350032
0.000375345
0.000401036
0.000427081
0.000453453
0.000480125
0.000507072
0.000534265
0.000561677
0.000589278
0.00061704
0.000644934
0.000672927
0.000700991
0.000729092
0.000757199
0.000785279
0.000813299
0.000841223
0.000869019
0.000896651
0.000924084
0.000951285
0.000978218
0.00100485
-0.000156357
-0.000155994
-0.000154523
-0.000152198
-0.00014898
-0.000144872
-0.000139877
-0.000134001
-0.00012725
-0.00011963
-0.000111148
-0.000101814
-9.16371e-05
-8.06264e-05
-6.87934e-05
-5.61495e-05
-4.27075e-05
-2.84805e-05
-1.34825e-05
2.27177e-06
1.87668e-05
3.59863e-05
5.39137e-05
7.25312e-05
9.18208e-05
0.000111764
0.00013234
0.000153531
0.000175315
0.00019767
0.000220576
0.00024401
0.00026795
0.000292371
0.00031725
0.000342563
0.000368285
0.000394391
0.000420854
0.000447649
0.000474748
0.000502125
0.000529751
0.000557598
0.000585637
0.000613839
0.000642174
0.000670611
0.000699118
0.000727665
0.00075622
0.000784748
0.000813217
0.000841594
0.000869845
0.000897935
0.000925831
0.000953498
0.000980904
0.00100801
-0.000172883
-0.000172514
-0.000171016
-0.00016865
-0.000165376
-0.000161194
-0.000156111
-0.000150131
-0.00014326
-0.000135505
-0.000126874
-0.000117375
-0.000107018
-9.58125e-05
-8.37708e-05
-7.09043e-05
-5.72259e-05
-4.27491e-05
-2.74881e-05
-1.14581e-05
5.32511e-06
2.28451e-05
4.10845e-05
6.00256e-05
7.96498e-05
9.99379e-05
0.00012087
0.000142426
0.000164584
0.000187324
0.000210622
0.000234456
0.000258804
0.000283641
0.000308942
0.000334684
0.000360841
0.000387386
0.000414295
0.000441539
0.000469093
0.000496927
0.000525015
0.000553327
0.000581833
0.000610505
0.000639311
0.000668222
0.000697206
0.000726231
0.000755264
0.000784274
0.000813228
0.000842091
0.00087083
0.000899412
0.000927804
0.000955971
0.000983881
0.0010115
-0.000190326
-0.000189951
-0.000188425
-0.000186016
-0.000182681
-0.000178423
-0.000173246
-0.000167156
-0.000160158
-0.00015226
-0.00014347
-0.000133797
-0.000123249
-0.000111839
-9.95762e-05
-8.64743e-05
-7.25459e-05
-5.78048e-05
-4.22658e-05
-2.59441e-05
-8.85608e-06
8.98154e-06
2.75511e-05
4.68344e-05
6.68124e-05
8.74656e-05
0.000108774
0.000130716
0.000153271
0.000176416
0.000200129
0.000224388
0.000249167
0.000274444
0.000300192
0.000326388
0.000353005
0.000380017
0.000407398
0.00043512
0.000463155
0.000491476
0.000520054
0.000548859
0.000577863
0.000607034
0.000636344
0.00066576
0.000695251
0.000724786
0.000754332
0.000783856
0.000813327
0.000842709
0.000871971
0.000901079
0.00093
0.0009587
0.000987147
0.00101531
-0.000208703
-0.000208321
-0.000206767
-0.000204312
-0.000200913
-0.000196574
-0.000191298
-0.000185091
-0.00017796
-0.000169912
-0.000160954
-0.000151096
-0.000140348
-0.00012872
-0.000116225
-0.000102874
-8.86817e-05
-7.36618e-05
-5.78291e-05
-4.11996e-05
-2.37898e-05
-5.61684e-06
1.33012e-05
3.29457e-05
5.32973e-05
7.43359e-05
9.60409e-05
0.000118391
0.000141364
0.000164938
0.00018909
0.000213796
0.000239031
0.000264773
0.000290994
0.000317669
0.000344773
0.000372278
0.000400158
0.000428385
0.00045693
0.000485766
0.000514863
0.000544192
0.000573723
0.000603425
0.000633268
0.000663221
0.000693252
0.000723329
0.00075342
0.000783491
0.000813512
0.000843447
0.000873265
0.000902931
0.000932414
0.000961679
0.000990695
0.00101943
-0.000228033
-0.000227644
-0.00022606
-0.000223556
-0.00022009
-0.000215665
-0.000210285
-0.000203956
-0.000196683
-0.000188476
-0.000179341
-0.000169289
-0.000158329
-0.000146473
-0.000133732
-0.000120119
-0.000105649
-9.03347e-05
-7.41927e-05
-5.72387e-05
-3.94897e-05
-2.09634e-05
-1.67806e-06
1.83471e-05
3.90923e-05
6.05371e-05
8.26603e-05
0.00010544
0.000128855
0.00015288
0.000177494
0.000202672
0.000228388
0.000254619
0.000281339
0.00030852
0.000336137
0.000364163
0.00039257
0.00042133
0.000450414
0.000479794
0.000509439
0.000539322
0.00056941
0.000599673
0.000630082
0.000660603
0.000691205
0.000721857
0.000752525
0.000783177
0.00081378
0.000844301
0.000874708
0.000904966
0.000935043
0.000964906
0.000994523
0.00102386
-0.000248334
-0.000247938
-0.000246321
-0.000243767
-0.000240231
-0.000235715
-0.000230225
-0.000223767
-0.000216346
-0.000207971
-0.000198651
-0.000188394
-0.000177211
-0.000165114
-0.000152114
-0.000138226
-0.000123463
-0.000107839
-9.13716e-05
-7.40761e-05
-5.59703e-05
-3.7072e-05
-1.74003e-05
3.02538e-06
2.41848e-05
4.60569e-05
6.86203e-05
9.18526e-05
0.000115731
0.000140232
0.000165332
0.000191006
0.000217229
0.000243975
0.000271219
0.000298933
0.000327091
0.000355665
0.000384627
0.000413948
0.0004436
0.000473553
0.000503778
0.000534243
0.00056492
0.000595776
0.00062678
0.000657902
0.000689108
0.000720366
0.000751644
0.000782909
0.000814129
0.000845269
0.000876297
0.00090718
0.000937884
0.000968377
0.000998627
0.0010286
-0.000269627
-0.000269223
-0.000267573
-0.000264965
-0.000261354
-0.000256744
-0.000251138
-0.000244544
-0.000236968
-0.000228417
-0.0002189
-0.000208428
-0.000197011
-0.000184661
-0.00017139
-0.000157211
-0.00014214
-0.000126192
-0.000109382
-9.17276e-05
-7.32466e-05
-5.39576e-05
-3.38798e-05
-1.30332e-05
8.56137e-06
3.08826e-05
5.39083e-05
7.76159e-05
0.000101982
0.000126983
0.000152593
0.000178789
0.000205544
0.000232832
0.000260627
0.000288901
0.000317627
0.000346777
0.000376323
0.000406234
0.000436483
0.00046704
0.000497873
0.000528953
0.000560248
0.000591728
0.000623361
0.000655114
0.000686956
0.000718854
0.000750775
0.000782686
0.000814554
0.000846346
0.000878029
0.000909569
0.000940934
0.000972089
0.001003
0.00103364
-0.000291933
-0.000291521
-0.000289835
-0.00028717
-0.000283482
-0.000278771
-0.000273045
-0.000266308
-0.000258568
-0.000249832
-0.00024011
-0.000229412
-0.000217749
-0.000205133
-0.000191577
-0.000177094
-0.0001617
-0.00014541
-0.00012824
-0.000110209
-9.13347e-05
-7.16356e-05
-5.11316e-05
-2.98433e-05
-7.79198e-06
1.50005e-05
3.85114e-05
6.27177e-05
8.75953e-05
0.00011312
0.000139266
0.000166009
0.000193322
0.000221179
0.000249552
0.000278414
0.000307737
0.000337491
0.000367649
0.000398181
0.000429057
0.000460247
0.000491719
0.000523445
0.000555391
0.000587526
0.000619819
0.000652236
0.000684746
0.000717316
0.000749913
0.000782503
0.000815054
0.000847531
0.000879902
0.000912133
0.00094419
0.000976041
0.00100765
0.00103899
-0.000315273
-0.000314853
-0.000313129
-0.000310406
-0.000306635
-0.00030182
-0.000295967
-0.00028908
-0.000281168
-0.000272239
-0.000262301
-0.000251366
-0.000239445
-0.00022655
-0.000212694
-0.000197892
-0.000182159
-0.000165511
-0.000147965
-0.000129539
-0.000110251
-9.01221e-05
-6.91713e-05
-4.742e-05
-2.489e-05
-1.60363e-06
2.24159e-05
4.71447e-05
7.25586e-05
9.86324e-05
0.000125341
0.000152657
0.000180555
0.000209007
0.000237986
0.000267464
0.000297412
0.0003278
0.0003586
0.000389782
0.000421315
0.000453168
0.000485312
0.000517713
0.000550341
0.000583164
0.000616149
0.000649264
0.000682475
0.00071575
0.000749056
0.000782358
0.000815624
0.00084882
0.000881912
0.000914867
0.00094765
0.000980229
0.00101257
0.00104464
-0.000339671
-0.000339242
-0.000337479
-0.000334694
-0.000330838
-0.000325913
-0.000319926
-0.000312883
-0.00030479
-0.000295658
-0.000285494
-0.000274311
-0.000262119
-0.000248932
-0.000234762
-0.000219626
-0.000203537
-0.000186514
-0.000168573
-0.000149734
-0.000130014
-0.000109434
-8.80155e-05
-6.57793e-05
-4.2748e-05
-1.89445e-05
5.60738e-06
3.08834e-05
5.68585e-05
8.35071e-05
0.000110803
0.00013872
0.00016723
0.000196306
0.000225919
0.000256041
0.000286643
0.000317695
0.000349167
0.000381028
0.000413249
0.000445798
0.000478643
0.000511753
0.000545095
0.000578637
0.000612347
0.000646192
0.000680137
0.000714151
0.000748199
0.000782247
0.000816263
0.000850211
0.000884057
0.000917769
0.000951312
0.000984651
0.00101775
0.00105059
-0.000365151
-0.000364713
-0.00036291
-0.00036006
-0.000356113
-0.000351074
-0.000344947
-0.000337739
-0.000329458
-0.000320113
-0.000309713
-0.000298269
-0.000285794
-0.0002723
-0.000257803
-0.000242316
-0.000225856
-0.00020844
-0.000190086
-0.000170813
-0.000150641
-0.00012959
-0.000107681
-8.49379e-05
-6.13822e-05
-3.70378e-05
-1.1929e-05
1.39192e-05
4.04812e-05
6.77309e-05
9.56415e-05
0.000124186
0.000153336
0.000183063
0.00021334
0.000244135
0.000275421
0.000307166
0.00033934
0.000371913
0.000404853
0.000438128
0.000471707
0.000505557
0.000539646
0.000573941
0.000608409
0.000643016
0.000677729
0.000712515
0.000747339
0.000782167
0.000816965
0.000851699
0.000886335
0.000920837
0.000955173
0.000989307
0.00102321
0.00105684
-0.000391739
-0.000391292
-0.000389445
-0.000386528
-0.000382487
-0.000377328
-0.000371055
-0.000363675
-0.000355196
-0.000345628
-0.00033498
-0.000323264
-0.000310492
-0.000296679
-0.000281837
-0.000265984
-0.000249135
-0.000231308
-0.000212522
-0.000192796
-0.000172151
-0.000150607
-0.000128187
-0.000104913
-8.08092e-05
-5.58995e-05
-3.02089e-05
-3.76283e-06
2.34124e-05
5.129e-05
7.98426e-05
0.000109042
0.000138861
0.000169269
0.000200237
0.000231736
0.000263736
0.000296205
0.000329113
0.000362428
0.000396118
0.000430152
0.000464497
0.00049912
0.000533988
0.000569068
0.000604327
0.000639731
0.000675246
0.000710837
0.000746471
0.000782113
0.000817729
0.000853283
0.000888742
0.000924069
0.000959232
0.000994195
0.00102892
0.00106338
-0.000419462
-0.000419005
-0.000417114
-0.000414125
-0.000409986
-0.000404701
-0.000398274
-0.000390715
-0.000382029
-0.000372228
-0.000361321
-0.00034932
-0.000336239
-0.00032209
-0.000306889
-0.000290652
-0.000273397
-0.000255141
-0.000235903
-0.000215704
-0.000194564
-0.000172505
-0.000149551
-0.000125723
-0.000101047
-7.55467e-05
-4.92484e-05
-2.21783e-05
5.63704e-06
3.417e-05
6.33926e-05
9.32763e-05
0.000123792
0.00015491
0.000186601
0.000218834
0.000251578
0.000284802
0.000318474
0.000352563
0.000387036
0.000421861
0.000457005
0.000492434
0.000528115
0.000564014
0.000600098
0.000636333
0.000672683
0.000709114
0.000745593
0.000782083
0.00081855
0.000854959
0.000891276
0.000927463
0.000963488
0.000999314
0.00103491
0.00107023
-0.000448348
-0.00044788
-0.000445942
-0.000442879
-0.000438637
-0.00043322
-0.000426634
-0.000418886
-0.000409985
-0.00039994
-0.000388762
-0.000376464
-0.000363058
-0.000348559
-0.000332982
-0.000316345
-0.000298665
-0.00027996
-0.000260251
-0.000239557
-0.000217901
-0.000195305
-0.000171792
-0.000147386
-0.000122113
-9.59967e-05
-6.90646e-05
-4.13433e-05
-1.28604e-05
1.6356e-05
4.62772e-05
7.6874e-05
0.000108117
0.000139975
0.000172418
0.000205416
0.000238936
0.000272947
0.000307416
0.000342311
0.0003776
0.000413248
0.000449224
0.000485492
0.00052202
0.000558772
0.000595715
0.000632814
0.000670035
0.000707341
0.000744699
0.000782072
0.000819426
0.000856725
0.000893934
0.000931017
0.000967938
0.00100466
0.00104115
0.00107738
-0.000478425
-0.000477947
-0.00047596
-0.000472819
-0.00046847
-0.000462916
-0.000456162
-0.000448218
-0.000439091
-0.000428791
-0.00041733
-0.00040472
-0.000390976
-0.000376111
-0.000360143
-0.000343088
-0.000324964
-0.000305791
-0.000285589
-0.000264379
-0.000242184
-0.000219027
-0.000194932
-0.000169923
-0.000144026
-0.000117268
-8.96749e-05
-6.12749e-05
-3.20961e-05
-2.16744e-06
2.84817e-05
5.98215e-05
9.18214e-05
0.000124451
0.000157678
0.000191471
0.000225799
0.000260629
0.000295927
0.000331662
0.000367799
0.000404305
0.000441146
0.000478288
0.000515696
0.000553336
0.000591173
0.000629171
0.000667297
0.000705513
0.000743785
0.000782077
0.000820353
0.000858578
0.000896715
0.000934728
0.000972581
0.00101024
0.00104766
0.00108482
-0.000509725
-0.000509235
-0.000507197
-0.000503976
-0.000499515
-0.000493816
-0.000486888
-0.000478738
-0.000469375
-0.00045881
-0.000447053
-0.000434119
-0.000420021
-0.000404774
-0.000388396
-0.000370905
-0.000352318
-0.000332656
-0.00031194
-0.000290192
-0.000267435
-0.000243693
-0.000218991
-0.000193353
-0.000166807
-0.000139379
-0.000111097
-8.19903e-05
-5.20868e-05
-2.14164e-05
9.99075e-06
4.21039e-05
7.4892e-05
0.000108323
0.000142366
0.000176988
0.000212156
0.000247838
0.000283999
0.000320606
0.000357625
0.000395023
0.000432764
0.000470813
0.000509137
0.000547699
0.000586464
0.000625398
0.000664463
0.000703625
0.000742847
0.000782094
0.000821328
0.000860514
0.000899615
0.000938594
0.000977416
0.00101604
0.00105444
0.00109257
-0.00054228
-0.000541778
-0.000539687
-0.000536381
-0.000531803
-0.000525954
-0.000518844
-0.000510479
-0.00050087
-0.000490027
-0.000477962
-0.000464688
-0.000450221
-0.000434576
-0.000417771
-0.000399823
-0.000380753
-0.000360582
-0.00033933
-0.000317021
-0.000293678
-0.000269326
-0.00024399
-0.000217698
-0.000190475
-0.00016235
-0.000133351
-0.000103508
-7.28497e-05
-4.14073e-05
-9.21152e-06
2.37063e-05
5.73142e-05
9.15799e-05
0.000126471
0.000161954
0.000197995
0.000234562
0.000271619
0.000309133
0.000347069
0.000385393
0.000424068
0.00046306
0.000502334
0.000541854
0.000581584
0.000621488
0.000661529
0.000701673
0.000741881
0.000782118
0.000822347
0.00086253
0.000902632
0.000942614
0.000982441
0.00102207
0.00106148
0.00110061
-0.000576123
-0.000575609
-0.000573462
-0.000570068
-0.000565367
-0.000559362
-0.000552061
-0.000543473
-0.000533606
-0.000522473
-0.000510086
-0.000496458
-0.000481606
-0.000465545
-0.000448294
-0.000429871
-0.000410298
-0.000389594
-0.000367784
-0.00034489
-0.000320936
-0.000295949
-0.000269954
-0.000242979
-0.000215052
-0.0001862
-0.000156455
-0.000125846
-9.44027e-05
-6.21574e-05
-2.91414e-05
4.61301e-06
3.90732e-05
7.4206e-05
0.000109978
0.000146356
0.000183304
0.00022079
0.000258778
0.000297234
0.000336121
0.000375405
0.000415051
0.000455021
0.000495281
0.000535795
0.000576525
0.000617435
0.000658489
0.00069965
0.000740882
0.000782146
0.000823406
0.000864624
0.000905763
0.000946786
0.000987654
0.00102833
0.00106878
0.00110895
-0.000611288
-0.000610763
-0.000608558
-0.000605071
-0.000600242
-0.000594074
-0.000586574
-0.000577752
-0.000567617
-0.000556182
-0.000543458
-0.000529461
-0.000514207
-0.000497712
-0.000479996
-0.000461078
-0.000440979
-0.000419722
-0.000397329
-0.000373825
-0.000349235
-0.000323586
-0.000296905
-0.000269219
-0.000240558
-0.000210952
-0.00018043
-0.000149024
-0.000116764
-8.36841e-05
-4.98156e-05
-1.51919e-05
2.01536e-05
5.61871e-05
9.28743e-05
0.000130181
0.000168071
0.000206511
0.000245465
0.000284897
0.000324771
0.000365052
0.000405703
0.000446688
0.00048797
0.000529513
0.00057128
0.000613234
0.000655337
0.000697553
0.000739844
0.000782173
0.000824501
0.000866791
0.000909006
0.000951106
0.000993054
0.00103481
0.00107634
0.0011176
-0.000647814
-0.000647275
-0.00064501
-0.000641427
-0.000636465
-0.000630126
-0.000622419
-0.000613353
-0.000602938
-0.000591186
-0.000578112
-0.00056373
-0.000548056
-0.00053111
-0.000512909
-0.000493474
-0.000472827
-0.000450992
-0.000427992
-0.000403853
-0.000378601
-0.000352263
-0.000324867
-0.000296442
-0.000267018
-0.000236626
-0.000205296
-0.000173061
-0.000139953
-0.000106006
-7.12516e-05
-3.57249e-05
5.39992e-07
3.75084e-05
7.51453e-05
0.000113415
0.000152283
0.000191712
0.000231667
0.000272112
0.000313009
0.000354323
0.000396016
0.000438052
0.000480393
0.000523002
0.000565843
0.000608877
0.000652067
0.000695375
0.000738764
0.000782194
0.000825629
0.000869029
0.000912357
0.000955573
0.000998639
0.00104152
0.00108416
0.00112654
-0.000685737
-0.000685185
-0.000682856
-0.000679174
-0.000674072
-0.000667555