/*--------------------------------*- C++ -*----------------------------------*\
  =========                 |
  \\      /  F ield         | OpenFOAM: The Open Source CFD Toolbox
   \\    /   O peration     | Website:  https://openfoam.org
    \\  /    A nd           | Version:  8
     \\/     M anipulation  |
\*---------------------------------------------------------------------------*/
FoamFile
{
    version     2.0;
    format      ascii;
    class       surfaceScalarField;
    location    "80";
    object      phi;
}
// * * * * * * * * * * * * * * * * * * * * * * * * * * * * * * * * * * * * * //

dimensions      [0 3 -1 0 0 0 0];

internalField   nonuniform List<scalar> 
7966
(
0.0134924
-0.000166279
7.26775e-06
0.0136467
-0.000146215
-8.11865e-06
0.0139554
-0.000316495
7.77177e-06
0.0141478
-0.000204817
1.24584e-05
0.0141915
-3.47489e-05
-9.03294e-06
0.0141657
3.36357e-05
-7.79015e-06
0.0141628
1.24123e-05
-9.55301e-06
0.0139044
0.000255435
2.99176e-06
0.0133902
0.000506015
8.21978e-06
0.0130045
0.000384763
8.70412e-07
0.0126105
0.000390442
3.6414e-06
0.0123089
0.000311288
-9.71046e-06
0.012477
-0.000205872
3.77589e-05
0.0124458
7.90397e-05
-4.78e-05
0.0124491
-6.58977e-05
6.25789e-05
0.0125736
-2.92163e-05
-9.52775e-05
0.0126889
-0.000302095
0.000186755
0.0122226
0.000570021
-0.000103749
0.0116589
0.000689104
-0.000125367
-0.000906289
0.000582579
0.0135543
-0.000391605
4.39833e-06
0.0136314
-0.000208818
-1.44941e-05
0.0139692
-0.000687197
3.28777e-05
0.0143753
-0.000633576
2.26748e-05
0.0143656
8.97156e-06
-3.40301e-05
0.0142834
9.12274e-05
2.46335e-05
0.0144609
-0.000148361
-1.67992e-05
0.0140024
0.000723799
-9.85594e-06
0.0133899
0.00111471
3.78442e-06
0.0131072
0.000609142
5.83428e-05
0.0125957
0.000888621
1.33701e-05
0.0122125
0.000793717
-9.92299e-05
0.0123634
-0.000519769
0.000163019
0.0123902
0.000106804
-5.46091e-05
0.0126266
-0.000268207
-3.40467e-05
0.0127713
-0.00013322
-4.07495e-05
0.0128828
-0.000786641
0.000373094
0.0125106
0.00147226
-0.000530042
0.0114955
0.00183365
-0.00012951
-0.00165722
0.00098092
0.0136408
-0.000719804
2.17486e-05
0.0137759
-0.000277255
-6.66553e-05
0.0143592
-0.00135228
8.17851e-05
0.0145908
-0.000985003
0.000119773
0.0148353
-0.000344502
0.000109001
0.0149812
-2.69096e-05
-2.7797e-05
0.0146765
0.000192767
-3.63717e-05
0.0142323
0.000980843
0.000187154
0.0138752
0.0014787
-6.89473e-06
0.0134581
0.0010162
9.99986e-06
0.0128147
0.00150481
2.72517e-05
0.0121567
0.0013907
6.09803e-05
0.0127953
-0.00116659
8.23291e-06
0.0129817
0.000103525
-0.000183088
0.0128691
-0.000133014
-2.26399e-05
0.0127321
-0.000149545
0.000153398
0.0128307
-0.00111122
0.000225988
0.0130051
0.00145763
-0.000159853
0.011308
0.00286787
0.000662956
-0.00118228
0.000898354
0.0137735
-0.00135575
0.000197825
0.0138838
-7.39583e-05
-0.000313673
0.0145776
-0.00186372
-0.000182367
0.0153127
-0.00251372
0.000793621
0.0159417
-0.0016907
0.000717276
0.0158754
-0.000266462
0.00030578
0.0151788
0.000810873
7.85679e-05
0.0150076
0.00133595
-0.000183939
0.0143586
0.0018999
0.000227767
0.0133185
0.00161355
0.000442824
0.0128216
0.00238428
-0.000382566
0.0124653
0.00181076
-6.38183e-05
0.012462
-0.00128408
0.000120751
0.012474
0.000406982
-0.000315442
0.0132165
-0.000738214
-0.00013727
0.0139627
-0.00119165
0.000295925
0.0146543
-0.00097501
-0.000827839
0.0155606
0.00197289
-0.00142152
0.0136781
0.00456409
0.000186219
0.00045284
0.000583923
0.0140917
-0.00233268
0.000223754
0.0135768
0.00100452
-0.000563606
0.0154812
-0.00297035
-0.00079781
0.0170096
-0.00518587
0.00114374
0.0171556
-0.00469639
0.00285977
0.0175884
-0.00158912
0.00088981
0.0173482
0.000669668
0.000381449
0.0154639
0.00170377
0.00151646
0.0147181
0.00273196
-8.62964e-05
0.0147814
0.00215413
-0.000603907
0.0132505
0.00257892
0.0013363
0.0120915
0.00238971
0.000580055
0.0133235
-0.000927423
-0.00158866
0.0144469
-0.000385923
-0.000330517
0.0153765
-0.00136324
-0.000304545
0.0152328
-0.00123044
0.000182486
0.0136383
0.000386272
0.000233196
0.0120678
0.00256573
0.000977635
0.0105502
0.00513264
0.000949084
0.00208169
-0.000732124
0.0137903
-0.00245892
-0.000319442
0.0152452
0.000917655
-0.00136807
0.0182103
-0.00546006
-0.00047534
0.0207005
-0.00242337
0.000654157
-0.00207323
-0.00215867
-0.00167502
0.0211545
-0.00207398
0.00174982
-0.00258148
-0.00123712
-0.00100761
0.0197677
-0.0026328
0.00243044
0.0186988
0.000684075
0.00105451
0.0183805
0.00260616
-0.000584059
0.0160714
0.00416871
0.000872368
0.013736
0.00390539
0.000584087
0.0113975
0.00563877
-0.000721314
0.0108374
0.00609368
-0.0031439
0.0130061
-2.80959e-05
-0.00306803
0.0145371
-0.0010241
-0.000892772
0.0154944
-0.000723903
-0.00159671
0.0145095
-0.000779119
0.000533571
0.01291
0.00252239
-0.000536602
0.014991
0.00122938
-0.00074463
0.016226
0.00309444
0.00080319
0.00319892
-0.000279929
0.0144535
-0.0017975
-0.00176212
0.0156194
0.000383682
-0.000631998
0.0055901
-0.00357227
0.000897408
-0.00373826
-0.00316227
-0.00285628
0.00561138
0.00574527
0.00564432
0.00612921
-0.00345785
0.000495371
-0.00641677
0.00667899
-0.00202843
-0.000307769
0.0214239
-0.000898914
0.000508962
0.000591839
-0.00050259
0.000861834
-0.00644094
-0.00639972
-0.00569165
-0.00608553
0.0207422
0.000494259
0.000871544
0.0207297
0.00185527
0.000763405
0.0198081
0.00879782
-0.00370752
0.0179159
0.00599038
-0.000192819
0.0146712
0.00608592
0.00279753
0.0146489
0.0066994
-0.000583428
0.0143808
-0.000135124
0.000375117
0.0125572
-0.000546777
0.00134628
0.0148727
-0.00158923
-0.00145018
0.0184224
-0.00455195
0.000223187
0.0179012
0.00121915
0.0018244
0.0180645
-0.000146601
0.00121272
0.0174204
0.00375918
-2.07116e-05
0.00549101
-0.000449005
0.0145724
-0.00238488
-0.000628596
0.00474169
-0.000399564
0.000157209
0.0034649
0.00541246
0.0039838
-0.000593224
-0.00136095
-0.000450237
0.00449608
-0.00492348
0.00159681
-0.00132463
0.00123782
0.00147259
-0.00128142
-0.000104358
-0.00138856
0.000418275
0.00144316
-0.000207807
-0.000265067
-0.00145564
0.00573292
-0.000744539
-0.00139212
-0.0015348
-0.00149384
-4.3461e-05
4.53959e-05
4.22079e-05
-5.50383e-05
0.016396
0.000249706
0.00217
-0.00579222
-0.00255297
-0.00624078
-0.00318504
-0.000729988
0.000542421
-0.000362902
0.0219582
-0.00745271
0.00374584
0.0228428
0.00669784
0.00121531
0.0163039
0.0085626
0.0039667
0.0144041
0.00653229
0.00145344
0.017738
0.00819943
-0.00483394
0.0183844
0.00175778
-0.00253924
0.0148641
0.00184769
0.00112581
0.0124726
-0.00254788
0.00335008
0.0158674
-0.00670154
-0.00124519
0.0182618
-0.000364137
-0.000811134
0.0189925
-0.000708286
-0.000168994
0.0179279
0.00604324
-0.00121947
0.0070262
-8.17423e-05
0.00426979
-0.00248495
-0.00150782
0.00328693
0.00417613
0.00319378
0.0053725
-0.00169343
0.00019116
0.00156389
-0.00133362
0.0012277
-0.00156301
0.000105036
-4.2659e-05
-0.00066573
-9.04846e-05
0.00104042
1.43443e-05
-2.41271e-05
1.79399e-05
0.00550879
-0.0218208
0.00890146
0.00065882
-0.000796364
0.000409562
-0.000314136
0.0110231
0.00260515
-0.0014216
0.0143486
0.00851086
-0.00327374
0.0163008
0.00998984
-0.00540975
0.0112421
0.0153563
-0.00209818
0.00622088
0.00294348
0.0038355
0.00566354
-0.000676108
0.00308114
0.0062689
-0.00684132
0.0036881
0.01022
-0.00945385
-0.00119881
0.0151244
-0.00279205
-0.0024765
0.019174
-0.00204264
-0.00271527
0.020426
0.00619914
-0.0014079
0.007344
0.000643387
0.0022758
0.000929046
0.00324477
-0.000183957
0.00429427
0.000241118
0.00349682
-0.000770336
-0.000449062
-0.000190477
-0.000219919
0.000694016
-0.000285239
0.000144942
0.000397871
-0.000542812
0.000315333
0.00017523
8.16964e-05
-0.000366763
-0.000205497
0.00322531
-0.0212255
-0.00252998
-4.77418e-05
-0.000961565
0.00016203
-0.00044339
0.00882165
-0.00105952
-0.00193167
0.0114583
0.0060519
-0.00017772
0.0104755
0.0105202
0.000452537
0.00717724
0.0152734
0.00338115
0.00836883
-0.000249347
0.00200124
0.0117103
-0.00610987
0.00209226
0.0118344
-0.0108579
0.00389248
0.0107454
-0.0112754
0.00291058
0.0129138
-0.00491914
-4.12954e-05
0.0159904
-0.00433837
-0.000780904
0.0171264
0.00620769
-0.00114454
0.00883086
-0.000951616
-0.00150093
0.00170274
0.00375381
0.00221844
9.4049e-05
0.00794695
0.000123671
0.00126377
-0.000243196
-0.000571692
-0.000787113
-0.000775596
-0.000510781
-3.67111e-05
7.77823e-05
0.000212692
-0.000253764
0.00460462
-0.0142022
-0.0101555
-0.000541617
-0.000633522
-1.13814e-05
-0.000285877
0.00732536
-0.00699089
0.00321062
0.00520375
0.00723341
0.000940104
0.00479733
0.0110869
-0.000160336
0.00810239
0.00743792
0.00453039
0.0111564
-0.0044724
0.00116909
0.0152645
-0.00872962
-0.0014884
0.0176513
-0.0134749
0.000230302
0.0151265
-0.0112382
0.00248759
0.0136159
-0.00416174
0.000753189
0.0150299
-0.00545481
-0.000297555
0.0163063
0.00639734
-0.00146603
0.00936994
-0.000989738
0.000547162
0.00169265
0.00180335
0.00222529
0.00381336
0.00493966
-0.00335968
0.000385503
0.00342085
0.000100497
-0.000731494
-0.000416948
0.00122575
-7.73066e-05
-0.00026065
-5.7696e-05
0.000296363
0.00127269
-0.000437773
-0.000186472
-0.00026604
-0.000150209
-6.79838e-05
-6.30131e-05
-7.92162e-05
0.00568059
-0.0101513
-0.00739919
5.65465e-05
-0.000769496
-0.000156717
-0.00146265
0.00679153
-0.00636029
-0.00174154
0.00499874
0.00593823
0.00308797
0.0101396
0.00813626
-0.00219022
0.0162908
-0.000659517
0.00194623
0.0151774
-0.00896982
0.00561085
0.0136612
-0.00757696
0.000363534
0.0157718
-0.0109305
-0.00465509
0.0177686
-0.0111463
-0.00208866
0.0161921
-0.0051194
0.00253414
0.0155661
-0.00605242
0.00122359
0.0161799
0.00528282
0.000500738
0.00864456
0.000589332
0.0124193
0.00122402
0.00140572
0.00370196
0.00818064
-0.00273177
-0.0042763
-0.00184061
-0.003978
-0.00184219
0.00580892
0.00334999
0.00604671
-0.00120135
0.00205259
0.000411233
-0.000801013
-0.00116739
-0.000820005
0.00139655
0.00119978
0.00126364
0.00136792
9.40795e-05
-8.29193e-05
-1.11602e-05
0.0167146
-0.00188223
0.00329555
-0.000788276
-0.000143594
-0.000502596
7.60806e-05
-0.00227389
-0.00572595
-0.00278762
-0.00598207
0.0164525
-0.0082155
-0.00167368
0.0164688
-0.000393877
-0.00598267
0.0149438
0.00671841
0.000744808
0.0166867
0.00568599
0.000707365
0.0204141
-0.0037744
-0.000612483
0.0206603
-0.0100633
0.000847333
0.0175322
-0.00550277
0.00105383
0.014872
-0.00729306
-0.000977174
0.0130013
-0.00753762
-0.00173804
0.0117212
-0.00230236
-0.00153692
0.012533
-0.00419615
-0.00266801
0.0139462
0.00457006
-0.000700456
0.00824962
3.90139e-05
0.0133771
0.000666589
0.000533065
0.0177305
0.00537503
-0.00154776
0.00629543
0.00390611
-0.000847175
-0.00227433
-0.00157926
-0.00288264
-0.00138116
0.00517856
0.00615315
0.00516181
-0.000627909
0.00693666
0.00185705
7.24287e-05
-0.000682185
-0.000611888
-0.000648729
-0.00025952
-0.00710824
0.00672248
0.000401479
0.000776062
-0.000147872
-0.000246459
-0.000137935
0.021136
-0.00328294
0.00115956
0.00116435
0.0014174
0.00110513
0.00155526
-0.00629795
-0.00582908
-0.00632839
-0.00579936
0.0232494
-0.00116953
-0.00282608
0.0200024
-0.00489558
-7.29572e-05
0.0163579
0.00197698
0.00127372
0.0189423
0.00441054
-0.000276531
0.0208391
0.00315203
0.000637141
0.0181824
-0.00290754
0.0017898
0.0149305
-0.00768839
0.000876976
0.0140165
-0.00331116
-0.00127767
0.0124663
-0.00629692
0.000554144
0.00858434
-0.00499575
0.00134005
0.00751706
0.000516755
-0.00175183
0.00824379
0.000436774
-0.00535966
0.00988804
0.00805932
-0.00513351
0.00788065
-0.000979243
0.0138544
0.000275905
-0.000119142
0.0152148
0.00406965
-5.49817e-05
0.0168336
0.00271831
-0.000431038
0.0189848
0.000417422
0.000564485
-0.00113067
-0.000436359
-0.00106333
-0.00050278
0.0190982
-0.000479984
-0.00013432
-9.5904e-05
0.000419311
-0.000162989
0.000340576
0.0186014
-0.00122809
-0.00155805
0.0180263
-0.00111523
0.000520784
0.0153047
-0.00272913
0.000555075
0.016241
0.00142915
-0.000388419
0.0168481
0.00117308
0.00263033
0.0180163
0.0004676
0.00151626
0.019214
-0.00173389
-0.00237133
0.0161522
-0.00440214
-0.000224448
0.013648
-0.00103191
0.000224925
0.0122868
-0.00451402
-0.000421709
0.00969452
-0.00352519
0.00112172
0.0084665
0.000453255
0.00129152
0.00668956
0.00178362
0.0004301
0.00753206
0.00917555
-0.00195873
0.00632104
-0.000743742
0.0139713
-0.000277881
-7.90143e-05
0.0150235
0.00272911
0.00028831
0.0157139
0.0022205
-0.000192534
0.0163478
9.58055e-05
-0.000312327
0.0168775
-0.000183196
-0.000826507
0.0166743
-7.80988e-05
-0.00094678
0.0160585
-0.000379573
-0.000119798
0.0148761
-0.00235272
0.000805948
0.0150825
0.000593709
0.000629044
0.0160002
0.000820301
-0.000564914
0.0157396
-4.9215e-05
0.000777438
0.014581
-0.00115818
0.00058284
0.0133292
-0.00236699
-0.000783278
0.0138697
-0.00102548
-0.000546935
0.0142568
-0.00381055
-0.00109056
0.011546
-0.0017176
0.000903192
0.00959805
0.000683154
0.00171802
0.0087399
0.000237348
0.00240442
0.00975132
0.00550923
0.00265489
0.00364469
0.00108657
0.0132903
-0.000111688
-0.000121181
0.0144826
0.00138835
0.000148497
0.01462
0.00162021
0.000462882
0.0148175
0.000249164
-0.000350891
0.0158772
-0.000109246
-0.00113367
0.0156362
-1.8958e-05
0.000181897
0.0148154
-9.31095e-05
0.000534351
0.0140353
-0.00112549
-0.000447126
0.0146395
-0.000266627
0.000256087
0.0149401
0.000235855
0.000283905
0.0150281
0.000202766
-0.000340025
0.0148052
-0.000630758
-0.000304535
0.0140047
-0.00174017
0.000173698
0.0131206
-0.00136655
0.00122522
0.011836
-0.00221529
-0.000310726
0.0113233
-0.00097134
-0.00023355
0.0110089
0.000103408
0.000894153
0.0104891
-0.000328739
0.00108591
0.0118371
0.00212354
0.00203769
0.00155765
0.000967255
0.0133067
-8.95808e-05
5.57871e-06
0.0137372
0.000853042
0.000104805
0.0146767
0.000689539
-8.83315e-06
0.0148629
0.000306105
-0.000243225
0.0149256
-8.37993e-05
-8.80687e-05
0.0148449
-1.98325e-05
8.15755e-05
0.0145633
0.000170406
1.80995e-05
0.0140921
-0.000708148
5.38607e-05
0.0140928
-0.000223226
-4.41883e-05
0.0143062
1.34325e-05
9.05774e-06
0.0143827
-5.83009e-05
0.000184595
0.014069
-0.000307171
-9.9282e-06
0.0134286
-0.000941638
-0.000158066
0.0129284
-0.000833455
-3.29303e-05
0.0120771
-0.00107687
-0.000287111
0.0116559
-0.000678286
0.000128154
0.0117837
-0.000489605
0.000465224
0.0113916
-0.000292678
0.000355982
0.0117593
0.00094583
0.000809997
0.000700974
0.000345589
0.0132698
-4.09886e-05
1.4951e-05
0.0137369
0.000388312
-2.36912e-06
0.0140775
0.000391442
-4.25196e-05
0.0142969
7.95249e-05
7.16778e-06
0.014225
-4.14757e-06
-7.69162e-06
0.0141977
-4.19365e-05
4.94081e-05
0.0143482
7.46923e-05
-5.47747e-05
0.0138946
-0.000249803
-4.82849e-06
0.0138473
-0.000181648
5.79234e-06
0.0138467
-3.61479e-05
5.01593e-05
0.0139208
-4.77498e-05
-8.46863e-05
0.0137134
-0.000182575
8.28394e-05
0.0131955
-0.000428314
4.53836e-06
0.0128259
-0.00041423
-4.95669e-05
0.0120795
-0.000550316
0.00021983
0.0118388
-0.000315071
-0.000122494
0.0116107
-0.000210373
-5.12137e-05
0.011392
-0.000214116
0.000140218
0.0118854
0.000331046
0.000121347
0.00032147
-1.61806e-05
0.0132879
4.40289e-06
0.0136869
-1.0674e-05
0.0140803
-1.9033e-06
0.0141515
8.30881e-06
0.0141507
-3.33537e-06
0.0141053
3.39714e-06
0.0142054
-2.53446e-05
0.0139404
1.51728e-05
0.0137846
-2.57872e-05
0.0137157
3.27477e-05
0.0137053
-3.74057e-05
0.0135048
1.79558e-05
0.0130759
5.16752e-07
0.0127304
-6.86489e-05
0.0120639
0.000116104
0.0118869
-0.000137988
0.0116896
-1.31338e-05
0.0113863
8.92428e-05
0.0117246
-7.27229e-06
-4.41537e-05
0.0134919
-0.000158629
7.26952e-06
0.0136457
-0.000153847
-8.07192e-06
0.013955
-0.000310169
8.69325e-06
0.0141456
-0.000188503
1.03284e-05
0.014191
-4.27098e-05
-1.16831e-05
0.0141672
2.6014e-05
-1.00272e-05
0.0141627
5.69701e-06
-1.07132e-05
0.0139064
0.000257235
2.07943e-06
0.0133909
0.000514592
9.05166e-06
0.0130029
0.000388524
3.62941e-07
0.0126124
0.000392152
1.97921e-06
0.0123108
0.000297565
-5.62142e-06
0.0124732
-0.000151288
2.66288e-05
0.0124489
1.84741e-05
-4.2003e-05
0.0124453
1.94556e-05
4.67459e-05
0.0125847
-0.000163318
-7.13402e-05
0.0126854
-4.58223e-05
0.00013188
0.0121992
0.000459843
-7.74722e-05
0.0117359
0.000434742
-9.6778e-05
-0.000218114
0.000430936
0.0135537
-0.000377997
3.40763e-06
0.0136234
-0.000225125
-1.29074e-05
0.0139701
-0.000659773
3.5778e-05
0.014373
-0.000586484
1.77531e-05
0.0143613
-1.98048e-05
-4.52704e-05
0.0142894
0.000106861
1.57334e-05
0.0144652
-0.000170451
-1.64766e-05
0.013999
0.00073218
-1.86053e-05
0.0133851
0.00112564
6.6514e-06
0.0131054
0.000675439
5.11072e-05
0.0125919
0.000903875
1.51853e-05
0.0122203
0.00066011
-9.02183e-05
0.0123519
-0.000254841
0.000134955
0.012405
-5.24117e-05
-3.67582e-05
0.0125944
-0.000168228
-3.58526e-05
0.0128086
-0.000372592
-4.56465e-05
0.0129262
-0.000114717
0.000324385
0.012353
0.000941497
-0.000438469
0.0117352
0.00111719
-0.000194212
-0.000217229
0.00079853
0.0136402
-0.000669187
6.74022e-06
0.0137507
-0.00035903
-4.3284e-05
0.0143515
-0.00128016
0.000101385
0.0145742
-0.000742344
5.29131e-05
0.0148688
-0.000238861
3.34736e-05
0.0150047
-3.06214e-06
-5.37566e-05
0.0146397
0.000221445
-6.32457e-05
0.0142363
0.00115244
0.000170236
0.0138625
0.00148898
3.62041e-06
0.0133918
0.0011601
-3.96019e-06
0.0128326
0.00146159
2.87079e-05
0.0122079
0.00129224
5.35796e-05
0.0127304
-0.000750971
-1.82077e-05
0.0129597
-0.000226669
-0.000238063
0.0128156
-3.63789e-05
-1.04473e-05
0.0128706
-0.000345316
7.11205e-05
0.0129303
-0.000156038
0.000207668
0.012756
0.00118611
-0.000230186
0.0117183
0.00226979
0.000548
0.000368486
0.00101081
0.0138041
-0.00110138
0.000161266
0.0138498
-0.000442502
-0.000275951
0.0144876
-0.00202793
-7.23453e-05
0.0152902
-0.0014451
0.000693736
0.0159616
-0.000587377
0.000394415
0.0159212
0.000271734
7.13369e-05
0.0151142
0.00107669
3.03143e-05
0.014806
0.0014581
-0.000181315
0.0143315
0.00207285
0.000118329
0.0134292
0.00214136
0.000363879
0.012886
0.00197765
-0.000355371
0.0124492
0.00178187
-0.000116668
0.0124834
-0.000796099
0.000131695
0.0125318
-0.000274797
-0.000315747
0.0132766
-0.000736148
-0.000182266
0.0141458
-0.000943934
2.53078e-05
0.014113
-0.000459551
-0.000491499
0.0138681
0.001222
-0.00121249
0.0125879
0.00401634
-0.000280158
0.00169875
0.000566859
0.0139781
-0.00164402
0.000126792
0.0137774
-0.000276378
-0.000529041
0.0157125
-0.00441696
-0.000343874
0.0166283
-0.0022961
0.0010789
0.0169602
-0.000206504
0.00214701
0.0171372
0.000347121
0.000637377
0.0165426
0.00197807
7.47293e-05
0.0155106
0.00279301
0.00121357
0.0147202
0.00277573
1.1642e-06
0.0141448
0.00234076
-0.000227853
0.0130459
0.00310544
0.00130732
0.0122325
0.00304058
0.000134799
0.0132984
-0.00162395
-0.00182673
0.0142465
-0.000985226
-0.000568164
0.0150162
-0.00123319
-0.000577215
0.0148825
-0.000782203
0.000154438
0.013488
0.000797519
0.00037068
0.0133621
0.0017104
0.000615095
0.0129852
0.00462624
0.000716139
0.0025157
-0.000429518
0.0135764
-0.00184775
-0.000347634
0.0151868
-0.00137045
-0.00188442
0.0188368
-0.00910874
0.000566392
0.0200814
-0.00197107
0.00289221
-0.00119971
-0.00167625
-0.000931709
0.0187948
0.000164971
0.00122354
0.000377612
0.000251293
0.000812501
0.0184818
0.00251056
0.000580004
0.0185191
0.00350784
-0.000512522
0.0179156
0.00349941
-0.00068694
0.0159652
0.00498491
0.000613505
0.0151684
0.00433004
-0.000608381
0.0140884
0.0047973
-0.00133317
0.0124913
0.0037275
-0.00223369
0.0134978
-0.00324913
-0.0024493
0.0144625
-0.00224506
-0.000597701
0.0150301
-0.00198161
-0.00141583
0.0146263
-0.000539921
0.000695022
0.0136326
0.00220045
-0.000945855
0.0155523
0.000309035
-0.00126297
0.0155305
0.00381846
0.00163284
0.00353163
0.000409095
0.0136266
-0.00167576
-0.00220776
0.0159703
-0.00440656
6.04861e-05
0.00608789
-0.00384748
-0.00197491
-0.00308666
-0.0038514
-0.00279107
0.00583054
0.00588267
0.00550935
-0.000264393
0.00649828
-0.00244104
0.000323971
0.000377078
-0.00602224
0.00529631
0.000348258
0.00016556
0.0194013
0.000670113
-0.00107165
0.00178039
0.000923567
0.00185217
-0.00507609
-0.00540628
-0.00483551
-0.00521847
0.0201111
0.00298939
0.000680138
0.0207797
0.00366552
-7.12751e-05
0.0186627
0.00882672
-0.00543229
0.0149894
0.0077716
3.88778e-05
0.0112256
0.00753047
0.00382818
0.0109487
0.00594324
-0.00252228
0.0115267
-0.00130523
-0.00214674
0.0115929
-0.00172039
0.000755327
0.0140708
-0.00503601
-0.000873671
0.0176416
-0.00481269
0.000925215
0.0182816
0.00186344
0.00152133
0.0184185
0.000866484
0.000518429
0.0164634
0.00550205
0.000250793
0.00584717
-0.00036531
0.0145581
-0.00239839
-0.00110701
0.00542258
-0.0030731
0.000381439
0.00398624
0.00511214
0.0039791
-0.0012364
-0.00349409
-0.000769201
-0.00188796
0.00541092
-0.00291407
0.000966214
0.000317167
-0.0015222
0.000746301
0.00169379
-0.000799741
-0.000435321
0.000647367
-0.00171268
-5.01272e-05
0.00173311
1.84918e-05
-0.000636166
0.00138928
-0.00148362
0.00620159
-0.00132544
-0.00158891
-0.00145696
-0.00159393
0.000113535
0.000154672
0.000112429
0.000147473
0.0206295
0.00107651
0.000873951
-0.00630556
-0.00337083
-0.00624041
-0.00306266
0.00028299
0.000874521
0.000401353
0.0244968
0.00163984
0.0019042
0.0221609
0.00799175
0.00438626
0.0196357
0.00837945
0.00588398
0.0208107
0.00901161
-0.0012027
0.0200826
0.00991231
-0.00807487
0.0152317
0.00175409
-0.000747634
0.0107835
0.000413649
0.00343993
0.0105161
-0.00561245
0.00419395
0.0142265
-0.00916378
-0.000604514
0.0166259
-0.000912253
-0.000434861
0.017015
0.000440397
-0.000132011
0.0157057
0.00704111
-0.00144926
0.00702733
-0.000271592
0.00416603
-0.00276683
-0.00258402
0.00369082
0.00331971
0.00358671
4.85151e-05
0.0048264
-0.00302912
-0.000752868
-0.000259524
0.000965089
-0.00148308
0.00161661
-0.00123868
0.00039958
-0.00139524
-9.6196e-05
0.00135243
0.000874171
0.000657788
-0.000141786
-6.98244e-05
-0.000104827
0.0104877
-0.00674907
0.00937234
-0.000893171
-0.000390984
-0.00122324
-6.22345e-05
0.0124379
0.00689817
-0.00227821
0.0131716
0.00607865
-0.00170664
0.0136391
0.00968725
-0.00655295
0.0080431
0.0137343
-0.000324167
0.00515044
0.00113226
0.00734999
0.00654628
-0.00196735
0.00406629
0.00807812
-0.00700164
0.00354546
0.010246
-0.0112802
-0.00125029
0.0138831
-0.00476277
-0.00226308
0.0175187
-0.00442231
-0.00148816
0.0186711
0.00534372
-0.000862843
0.0077282
0.000460216
0.00471585
0.00116093
0.00308819
-0.000645815
0.0060906
-0.000646092
-0.000477482
0.00307065
-0.000534101
0.00113588
0.000483728
0.000365162
0.000139835
0.000532175
0.000245484
0.000157034
-8.45375e-05
-0.00031798
0.0004635
-3.14104e-05
8.02066e-05
2.91484e-05
-6.86569e-05
-0.000472788
0.00375813
-0.0111836
-0.00268142
0.000332966
-0.000151281
0.000628894
1.72296e-05
0.00610713
0.00375789
-0.00114038
0.00503616
0.00460194
0.00236995
0.00490511
0.0102949
-2.40384e-05
0.00486058
0.0131739
0.00398613
0.00850249
-0.00220943
0.00170101
0.0122302
-0.00566042
0.00205763
0.0136804
-0.00792329
0.00336389
0.0130105
-0.0100183
0.00231863
0.0139938
-0.00534402
-0.000443379
0.0159615
-0.0069025
-0.000268429
0.0170036
0.00348534
-0.000328265
0.00779007
-0.000850494
0.00167315
0.00246781
0.00308599
0.00499781
0.000824534
0.00515117
-0.000982355
-0.000174212
0.00075227
0.00311088
-0.000190181
-0.000355378
-0.000224986
-0.000262891
0.000578207
-6.49071e-06
-0.000155363
0.000174727
-0.00059108
0.000472636
-0.0126666
-0.0124106
0.000690619
0.000543805
0.000915884
0.00111513
0.00358636
0.00103306
0.00282172
0.00114825
0.00678642
0.00119374
0.0031912
0.00934361
-0.00125201
0.00897168
0.00720739
0.00471639
0.0121792
-0.00574834
0.00150052
0.0138974
-0.007606
-0.00126112
0.0164335
-0.0102934
6.44068e-05
0.0170507
-0.00998645
0.00183845
0.0164519
-0.00489612
0.000904128
0.0166644
-0.00689503
-0.000517512
0.0172977
0.00261128
-0.00122533
0.00703749
-0.000445302
0.00381065
0.00173356
-0.00177135
0.00543176
0.00378291
0.00460224
0.00048099
-0.00245393
0.00332832
0.00322914
-0.000773859
-0.000320503
-0.000449784
-0.000684064
0.00102323
0.000431125
0.000810875
-0.000255175
-3.65464e-05
0.00031577
0.000944271
-0.00136225
-3.34262e-05
-0.000243825
7.34254e-06
-5.36352e-05
-3.68927e-05
-5.65092e-05
0.00302097
-0.0131953
-0.00487915
-0.000660239
-0.00215002
-0.00023933
-0.00196275
0.00304594
-0.000784198
5.07497e-05
0.00364494
0.00710283
0.00217255
0.00736097
0.00712473
-0.00368737
0.0145679
0.000224191
0.00172247
0.0178193
-0.00863921
0.00525034
0.0172395
-0.00696795
0.000305271
0.0157913
-0.00957175
-0.00392851
0.0167613
-0.0110704
-0.00197474
0.0174504
-0.00528063
0.00222952
0.017059
-0.00617075
0.000890776
0.0162981
0.00328133
0.000591561
0.00743325
0.000693626
0.014247
0.00172341
0.000525858
0.00284502
0.00587883
-0.00160615
-0.00387107
-0.00122136
-0.00373365
-0.000677325
0.00579137
0.00289654
0.00521305
-0.000243125
-0.000902674
0.00219682
-0.000461926
-0.000686534
-0.000813598
-0.000645717
0.00108539
0.00110951
0.00111227
0.00109461
-1.16871e-05
0.000152249
-0.000189011
4.84486e-05
0.0214448
-0.00263199
0.00219415
-0.000312944
0.000489857
0.000480881
0.000621537
-0.00329993
-0.00607361
-0.0036526
-0.00596462
0.0200914
-0.0107749
-0.00274055
0.0153932
7.75153e-05
-0.00214621
0.0138605
0.00732274
0.00205755
0.0160753
0.00599767
-0.00038037
0.0187746
-0.00241378
-0.000673799
0.0199172
-0.00976124
0.000826789
0.0192824
-0.00553949
0.000260112
0.016953
-0.00668168
-0.00153784
0.0142962
-0.00828567
-0.00186592
0.0125143
-0.00374097
-0.00129469
0.0114844
-0.00571678
-0.00209205
0.0118776
0.00345348
-0.00126578
0.00741412
-0.000642533
0.0139473
0.00163915
2.30121e-05
0.016657
0.00332692
-0.00170554
0.00575673
0.00440155
-0.000326181
-0.00305237
-0.00157073
-0.0028824
-0.00227323
0.00495313
0.00568089
0.00512244
-0.000451601
0.000345679
0.00640836
0.00162977
-0.000867492
-0.000414895
-0.000471382
-0.000421708
-3.03608e-05
-0.00110602
-0.00694947
0.00668104
0.000414445
0.000852167
4.1992e-05
1.24621e-05
8.37425e-05
0.0212404
-0.00203322
-0.00014034
0.00105571
0.00157335
0.00109297
0.00152837
-0.00608308
-0.00563442
-0.00583888
-0.00560132
0.0203779
-0.00249181
-0.0021037
0.0155236
-0.00551981
-0.000473861
0.0135768
0.00205445
0.00124364
0.0166213
0.00396209
3.96245e-05
0.0204574
0.00308676
-0.000288047
0.0204123
-0.00170976
0.00113083
0.0170866
-0.00706661
0.00150803
0.0146232
-0.00369761
-0.000656144
0.0131307
-0.00471436
7.92904e-05
0.01135
-0.00548084
0.000315964
0.0106622
-0.00336009
-0.00144487
0.00819667
-0.00459095
-0.00401999
0.00817253
0.00369792
-0.00535381
0.00589992
-0.00149123
0.01403
0.0007279
0.000106572
0.0148959
0.00290732
-0.000501295
0.0165339
0.00232875
3.76594e-06
0.019344
0.00184549
0.000416644
-0.00118643
-0.000860353
-0.00139062
-0.00107039
0.0198908
0.00161642
-0.000724315
-0.000575072
2.91125e-05
-0.000853228
-0.000174028
0.0184964
-0.000863385
-0.00133346
0.0174963
-0.00158163
0.00061071
0.0147336
-0.00328518
0.00108313
0.0153973
0.000971622
3.07083e-05
0.0173595
0.00124685
0.00338336
0.0188991
0.00038279
0.00268067
0.018415
-0.00173914
-0.0018579
0.0162596
-0.00412099
-0.00101464
0.0152661
-0.00251345
3.42363e-05
0.0137957
-0.00376004
9.44689e-05
0.0119439
-0.00305744
0.000550076
0.0117664
-0.00231779
0.000426717
0.00958508
-0.00313955
0.00116003
0.00892539
0.00297984
-0.000580962
0.00367959
-0.000335664
0.0140892
-0.000147916
4.60334e-05
0.0146941
0.00235156
0.000239229
0.0153672
0.00182932
-0.000366278
0.0168709
0.000796773
-0.00076724
0.0174758
0.000746855
-0.000561877
0.0165186
-0.000358497
-0.000494489
0.0156427
-0.00070567
-0.000119816
0.0149274
-0.00229073
0.000526786
0.0151976
0.000439099
0.000891335
0.0155511
0.000594472
-0.000266026
0.016028
8.7665e-05
0.000595719
0.015551
-0.00123659
0.000557248
0.0137521
-0.0022957
-0.000809642
0.0133689
-0.00198261
-0.00069462
0.013429
-0.00382488
-0.00108576
0.0118873
-0.00116306
0.000550456
0.010883
-0.00052159
0.000926144
0.0104684
-0.00218572
0.00186521
0.0112818
0.00150344
0.0033179
0.0019667
0.00158647
0.0132848
-0.000133138
-8.54819e-05
0.0143292
0.00131335
0.000142334
0.0146821
0.00164209
0.000297246
0.0150436
0.000447334
-0.000363014
0.0157585
-3.83855e-05
-0.00106328
0.0155919
-0.000152942
0.000142894
0.0149308
-2.63153e-05
0.000516089
0.0138761
-0.00121254
-0.000470589
0.014577
-0.000244802
0.000239133
0.0150668
0.000130503
0.00025809
0.014954
0.000179529
-0.000319087
0.0146192
-0.000746198
-0.000460203
0.0140111
-0.00161747
0.000103568
0.0133673
-0.00126898
0.00115544
0.0120011
-0.00233201
-0.000437424
0.0115716
-0.000723013
-0.000244142
0.0114884
-0.000317166
0.000772984
0.0110367
-0.00115759
0.000509452
0.0122523
0.000836926
0.00148867
0.0011766
0.000795845
0.0133008
-0.000105601
1.12072e-05
0.0137608
0.000869188
8.9015e-05
0.0146787
0.000723538
-8.19356e-06
0.0148467
0.000282939
-0.000246881
0.014902
-6.92982e-05
-0.000112432
0.0148202
-6.54861e-05
7.58971e-05
0.0145853
0.000234266
-7.58077e-06
0.0141098
-0.000720783
3.76208e-05
0.014065
-0.0002113
-3.28687e-05
0.0142737
-6.54858e-05
-3.70987e-06
0.0143977
6.63084e-05
0.000173909
0.0141014
-0.000433662
-2.61594e-05
0.0134181
-0.000937977
-0.000154354
0.0128957
-0.000704752
-7.46742e-05
0.0120341
-0.00145973
-0.000297818
0.0116928
-0.000414588
0.000161064
0.0118537
-0.000430555
0.000417669
0.0113878
-0.000576974
0.000241305
0.0117267
0.00077143
0.000536579
0.000745263
0.000230509
0.0132711
-4.46967e-05
1.62374e-05
0.0137436
0.000398516
-4.13827e-06
0.0140754
0.000391938
-4.2791e-05
0.0142857
7.14968e-05
8.33048e-06
0.014223
-1.95073e-06
-1.23447e-05
0.0142079
-4.4654e-05
4.36877e-05
0.0143523
9.72763e-05
-6.21586e-05
0.0138922
-0.000264793
-7.4959e-07
0.0138428
-0.000157785
1.67539e-06
0.0138482
-6.84391e-05
4.77503e-05
0.0139275
-1.27383e-05
-8.49856e-05
0.013702
-0.00020272
7.73876e-05
0.0132029
-0.000429248
-5.09486e-06
0.0128414
-0.000348574
-4.41631e-05
0.0120576
-0.000667246
0.000211127
0.0118433
-0.000181389
-0.000141417
0.0116241
-0.000195347
-6.71816e-05
0.0113731
-0.000316251
0.000130414
0.0118636
0.000319334
8.29913e-05
0.0003577
-3.60761e-05
0.0132882
4.80412e-06
0.0136875
-1.1442e-05
0.0140791
-1.52762e-06
0.0141501
8.81711e-06
0.0141504
-5.67774e-06
0.0141066
2.5905e-06
0.014207
-2.84565e-05
0.0139406
1.67576e-05
0.0137853
-2.82623e-05
0.0137143
3.5301e-05
0.0137079
-4.37471e-05
0.013504
1.91971e-05
0.0130755
-3.27192e-07
0.0127339
-7.55873e-05
0.0120578
0.000124928
0.0118884
-0.000149922
0.0116979
-1.803e-05
0.0113824
8.85203e-05
0.0117177
-2.31961e-05
-5.69499e-05
0.0134924
-0.000151805
0.0136442
-0.000159833
0.0139552
-0.000302294