/*--------------------------------*- C++ -*----------------------------------*\
  =========                 |
  \\      /  F ield         | OpenFOAM: The Open Source CFD Toolbox
   \\    /   O peration     | Website:  https://openfoam.org
    \\  /    A nd           | Version:  8
     \\/     M anipulation  |
\*---------------------------------------------------------------------------*/
FoamFile
{
    version     2.0;
    format      ascii;
    class       volVectorField;
    location    "80";
    object      U;
}
// * * * * * * * * * * * * * * * * * * * * * * * * * * * * * * * * * * * * * //

dimensions      [0 1 -1 0 0 0 0];

internalField   nonuniform List<vector> 
2844
(
(0.995299 -0.00742309 9.61339e-05)
(1.02159 -0.00391581 -0.000110193)
(1.02937 -0.00803272 9.29822e-05)
(1.05702 -0.0129081 0.000185881)
(1.06126 -0.00471605 -9.7533e-05)
(1.06484 0.000356702 -8.01168e-05)
(1.06543 -0.0094824 -0.000112239)
(1.06074 0.0035172 5.42778e-05)
(1.02641 0.00726401 0.000100877)
(0.98577 -0.0034863 1.87622e-05)
(0.965532 -0.00603097 7.04054e-05)
(0.923465 -0.0154773 -0.000193409)
(0.926841 -0.0187606 0.000640792)
(0.945116 -0.0325797 -0.000746921)
(0.91656 -0.0433408 0.00104142)
(0.955735 -0.0307104 -0.00159922)
(0.929845 -0.0343064 0.00323385)
(0.974191 -0.0245034 -0.00192017)
(0.858689 -0.0226519 -0.00212612)
(0.894875 -0.0421612 0.00959645)
(1.0017 -0.0111673 7.01357e-05)
(1.02583 -0.0119509 -0.000219447)
(1.02 -0.0282722 0.000416384)
(1.06965 -0.0102385 0.00036931)
(1.08111 0.00108425 -0.000339708)
(1.06899 0.0035773 0.000423969)
(1.08231 0.0109737 -0.000232007)
(1.08292 0.0269807 -4.63001e-06)
(1.01841 0.0522803 -1.19566e-05)
(0.99443 0.0489259 0.000901533)
(0.972051 0.0535982 0.000132209)
(0.916318 0.0540825 -0.0014182)
(0.919122 -0.00464283 0.0024945)
(0.939159 0.0429554 -0.000976204)
(0.912719 0.0361943 -0.000603366)
(0.986604 0.0276796 -0.000223511)
(0.928875 -0.000580635 0.00556025)
(0.999976 0.0943849 -0.00891385)
(0.883472 0.10748 -0.000361426)
(0.840519 -0.0640656 0.0142913)
(1.00382 -0.0390005 0.000480119)
(1.02771 -0.0161231 -0.00120604)
(1.05307 -0.0578778 0.000883574)
(1.08632 -0.0692814 0.00241015)
(1.09706 -0.000395963 0.00236745)
(1.13693 0.00771185 -4.3388e-05)
(1.11655 -0.0285978 -0.000100055)
(1.07731 0.0606362 0.0025573)
(1.06383 0.0840123 -0.000167104)
(1.01847 0.0254028 0.000366145)
(0.999718 0.0513307 0.000190818)
(0.91839 0.0382517 0.00109354)
(0.911142 -0.0608147 0.000158248)
(1.00439 -0.0316309 -0.00162078)
(0.93678 -0.0705576 -0.000665865)
(1.00055 -0.0451366 0.00416174)
(0.907014 -0.0969311 0.000848215)
(1.01875 0.0793836 -0.000585824)
(0.936549 0.108218 0.0116898)
(0.74968 -0.139703 0.00705219)
(1.02563 -0.0418011 0.00312205)
(1.03429 -0.0123363 -0.00492785)
(1.04655 -0.0979239 -0.00377937)
(1.13002 -0.0422202 0.0122293)
(1.15327 -0.0383688 0.0136415)
(1.24689 -0.0115522 0.0069564)
(1.14747 0.0520483 0.00178719)
(1.11745 0.0586007 -0.00246994)
(1.13722 0.0898013 0.00471395)
(1.02269 0.0951528 0.0060773)
(0.973517 0.132786 -0.00564598)
(0.949539 0.133529 -9.05931e-06)
(0.92768 -0.0732426 0.000491012)
(0.937859 0.0459677 -0.00406196)
(0.924712 0.0564906 -0.000405139)
(1.0677 0.0292581 0.00759874)
(1.02216 -0.0312264 -0.0181836)
(1.1671 0.0993089 -0.0195545)
(1.18134 0.243078 0.00834631)
(0.860512 0.00274547 0.00453506)
(1.0538 -0.130371 0.00437416)
(1.03055 0.000662119 -0.00932724)
(1.0374 -0.133619 -0.014493)
(1.2467 -0.271158 0.0167017)
(1.31266 -0.159887 0.0459331)
(1.28528 -0.0185742 0.0166731)
(1.33539 0.0436146 0.0093013)
(1.24838 0.0968015 0.0229067)
(1.08843 0.143366 -0.00321921)
(1.1093 0.0999492 -0.0127249)
(1.10731 0.147536 0.0185156)
(0.885742 0.0765006 0.0128284)
(0.935964 -0.0885219 -0.0196203)
(1.05234 -0.00151572 -0.000161549)
(1.11813 -0.150762 0.00050826)
(1.1963 -0.179446 0.000266682)
(1.08192 -0.0913395 0.00465301)
(0.971413 0.131488 0.0202375)
(0.83973 0.292712 0.00699516)
(0.730741 0.0486504 -0.018025)
(1.04739 -0.13552 -0.00275)
(1.01461 0.134017 -0.0165354)
(1.27405 -0.208367 -0.0133426)
(1.42241 -0.321714 -0.0123781)
(1.63187 -0.420206 0.0289997)
(1.58843 -0.179382 0.0518157)
(1.35629 0.0415441 0.0337486)
(1.42801 0.116063 -0.0067579)
(1.32946 0.178707 0.0116902)
(1.09187 0.161417 0.0202348)
(0.958033 0.170898 -0.00839814)
(0.763891 0.222087 -0.0636415)
(0.861221 -0.0129883 -0.0510851)
(1.07551 -0.0394911 -0.0136352)
(1.11741 -0.00323565 -0.0258677)
(1.21485 0.0401969 0.00175523)
(0.945085 0.141886 -1.36841e-05)
(1.0017 0.185129 -0.00193143)
(1.26105 0.337852 0.00296761)
(1.15765 0.207588 -0.0102469)
(1.06573 -0.173034 -0.0151145)
(1.05266 -0.0385269 -0.0289324)
(1.34528 -0.433174 0.0650248)
(1.78342 -0.724476 0.044692)
(1.93205 -0.510696 -0.0143162)
(1.62891 -0.128888 0.0262093)
(1.51701 0.0288901 0.0213811)
(1.59319 0.178555 0.00729529)
(1.53135 0.336579 -0.0314408)
(1.42934 0.311186 0.0038937)
(1.24228 0.490796 0.0126546)
(0.982297 0.484853 0.00230539)
(1.18555 0.00700346 0.0514055)
(0.993772 -0.0938756 0.0386624)
(0.899655 -0.0919137 -0.0239117)
(1.32612 -0.14009 -0.00503834)
(1.41539 0.152365 0.0273228)
(1.28621 -0.044037 0.0191165)
(1.42705 0.0232651 -0.00548933)
(1.17253 0.170574 -0.00721641)
(0.809903 -0.031968 -0.0176786)
(1.41729 0.0942695 0.0248886)
(1.42226 -1.03893 0.0800158)
(1.73764 -1.33266 -0.0124933)
(1.47444 -0.281627 -0.0494858)
(1.39594 -0.282644 -0.0374227)
(1.23151 0.0395772 0.0231921)
(1.18747 0.0611313 0.117228)
(2.02749 0.676426 0.0278951)
(1.4639 0.391277 0.0379049)
(0.946748 0.252041 0.035823)
(1.24803 0.345309 0.00279061)
(1.38097 -0.0188327 -0.00852147)
(1.3668 0.0363674 0.000893792)
(0.886869 -0.0842453 0.0311147)
(0.969187 -0.389618 -0.0259767)
(1.37791 -0.010746 -0.0146057)
(1.3993 0.0282937 -0.00445265)
(1.43097 0.438024 -0.0154183)
(1.24282 0.492147 0.0015816)
(0.777745 -0.254598 -0.0292217)
(1.58369 -0.149302 0.0218557)
(1.48193 -1.6397 0.0357066)
(-0.00463549 0.0564607 0.0411975)
(0.087294 -0.996941 0.10311)
(0.775396 0.134335 -0.0108666)
(0.888206 0.648269 -0.0537767)
(1.22652 0.520566 -0.0435239)
(1.24968 0.631213 -0.015819)
(0.463814 0.240544 0.0228349)
(0.440188 0.174343 0.0307638)
(0.42821 -0.23618 0.0428193)
(0.505921 -0.432596 -0.0279183)
(1.02667 -0.0300786 -0.0429974)
(1.25461 -0.114326 -0.0568196)
(1.60112 0.278258 -0.0255596)
(1.46499 0.352161 0.0117684)
(1.19496 -0.0103528 0.0759699)
(0.424582 -0.839291 -0.0891532)
(0.100722 0.0689939 -0.308478)
(-0.0901216 -0.44222 -0.0303749)
(-0.0479539 -1.58413 -0.0512042)
(0.575168 0.192011 0.0152808)
(0.704237 0.345032 -0.0225916)
(1.02944 0.652889 0.0275861)
(0.536653 1.17067 0.0480509)
(0.557291 0.0971229 0.0417962)
(0.699914 -0.251527 0.0403693)
(1.03683 -0.592645 0.0577722)
(0.751908 -0.704745 0.0325454)
(0.878354 -0.308621 -0.00525891)
(1.03769 -0.136131 -0.0236425)
(1.34106 0.453 -0.0282086)
(1.24623 0.522434 -0.0157886)
(0.87297 0.116103 0.0339962)
(-1.15693 -0.501607 -0.0201903)
(0.0610695 0.0894763 -0.0524432)
(0.164664 -0.922725 -0.150167)
(0.562425 -0.330242 0.0718907)
(0.501808 0.39683 0.0074946)
(0.296347 0.6376 0.0180186)
(0.406787 0.686331 0.0607803)
(0.793678 -0.131899 0.00672012)
(0.910147 -0.497485 -0.0221212)
(1.35218 -0.703847 0.0145284)
(1.31157 -0.631973 0.0358285)
(0.977879 -0.272262 -0.00640401)
(1.03804 -0.373958 -0.0118574)
(1.20858 0.312621 -0.0256014)
(1.25335 0.548425 -0.0186647)
(1.31131 0.0574429 0.0588946)
(-0.427548 0.414496 -0.0291116)
(0.485543 1.29241 -0.00890752)
(0.356536 0.161627 -0.0306553)
(0.361653 -0.717544 -0.173703)
(0.533502 -0.461415 -0.0790886)
(0.433266 0.477118 0.0549234)
(0.339625 0.670826 -0.00251779)
(1.15895 0.195623 0.0418817)
(1.28312 -0.389655 0.0856573)
(1.03015 -0.53012 0.00152614)
(0.999381 -0.914515 -0.06962)
(1.34716 -0.734841 -0.0199974)
(1.34266 -0.241736 0.0290799)
(1.06353 -0.296631 0.0129741)
(1.24424 0.431589 0.000403369)
(1.21472 0.562956 0.000583969)
(0.933634 0.144093 0.0277342)
(0.9592 0.559165 -0.0766612)
(1.17145 0.40879 -0.00421714)
(-0.00766557 -0.101234 -0.00178928)
(1.03891 -0.240311 0.0600332)
(1.37727 -0.530718 -0.0116944)
(1.18284 -0.290679 -0.161948)
(1.20395 0.251441 -0.0204464)
(1.07187 0.32185 0.0229869)
(1.40407 -0.272344 -0.00838643)
(1.65159 -0.701674 0.02084)
(1.47853 -0.396966 0.0345369)
(1.17463 -0.396601 0.00661307)
(1.02114 -0.615022 -0.012484)
(0.955776 -0.362097 -0.0234708)
(0.784418 -0.420154 -0.0505265)
(1.06587 0.199752 -0.0118308)
(1.06091 0.480829 0.0047776)
(0.925366 0.00664472 0.0176208)
(1.10651 0.415903 -0.0297638)
(1.5192 0.301994 -0.0238203)
(2.0134 0.457302 0.0113483)
(1.97536 0.158886 0.0311168)
(1.51961 -0.236207 0.0376698)
(1.61704 0.00802263 -0.0447807)
(1.84626 -0.415602 0.0053836)
(1.19768 0.235922 0.0107655)
(1.21734 0.525993 -0.0104139)
(1.64116 0.343356 0.0189572)
(1.48087 -0.169544 0.0271284)
(1.23073 -0.483659 0.00190815)
(1.01698 -0.249821 -0.0237607)
(1.11552 -0.464254 0.0204709)
(0.730049 -0.272593 0.0286118)
(0.561282 0.0802723 -0.0471508)
(0.557737 -0.0797338 -0.106201)
(0.668557 0.366057 -0.070117)
(0.834303 0.516205 -0.0050342)
(0.952879 0.0685734 -0.00235434)
(1.14062 0.236937 0.00084197)
(1.11824 0.179688 -0.0111426)
(1.36729 0.0124099 0.00743284)
(1.49793 -0.0575928 0.00715536)
(1.34238 -0.16475 -0.019101)
(1.46457 -0.143678 0.00931371)
(1.22293 -0.16607 0.00712251)
(1.11186 0.0228808 -0.00881962)
(1.28556 0.0251405 0.020763)
(1.25848 0.0501495 0.00444175)
(1.44601 -0.169003 -0.0360984)
(1.42351 -0.43156 0.0113057)
(0.993283 -0.145371 -0.000381514)
(1.07217 -0.304755 -0.015428)
(0.76507 -0.321501 0.0255169)
(0.681321 -0.013754 0.0165076)
(0.578003 0.133494 -0.0247564)
(0.417073 0.584466 -0.0458985)
(0.730362 0.424048 -0.0106676)
(0.968091 -0.0330783 -0.00231098)
(1.1179 0.244549 0.00362344)
(1.14544 0.133492 -0.000631796)
(1.17845 0.0287814 0.000440828)
(1.28709 -0.00543877 -0.0146593)
(1.25978 0.0146374 -0.0186507)
(1.24226 0.00474444 -0.00214839)
(1.17413 -0.17088 0.0123062)
(1.06942 0.135798 0.00369501)
(1.17819 0.106903 -0.00985704)
(1.22862 0.00118704 0.0132067)
(1.13828 -0.0479952 0.00548049)
(1.04185 -0.108135 -0.0116968)
(0.944981 0.0167064 -0.00511621)
(1.15401 -0.235252 -0.015602)
(0.972248 -0.109092 0.0153469)
(0.760629 0.0654347 0.0301457)
(0.688385 0.0879313 0.0303747)
(0.611521 0.528599 0.0189147)
(0.853987 0.332871 0.00756689)
(0.963306 -0.0021389 -0.00198081)
(1.03381 0.0897604 0.00194157)
(1.13113 0.140095 0.00778828)
(1.04527 -0.0152555 -0.00518147)
(1.18026 -0.012944 -0.0159509)
(1.20677 -0.0223477 0.00247526)
(1.13943 -0.046542 0.00716701)
(1.08006 -0.10386 -0.005621)
(1.04469 -0.0572887 0.00346233)
(1.1351 -0.00231627 0.0036049)
(1.10386 -0.00581386 -0.00509381)
(1.15777 -0.0863366 -0.00196001)
(1.05693 -0.169806 0.0028015)
(1.04301 -0.13493 0.0163969)
(0.932897 -0.218846 -0.00268892)
(0.837703 -0.0939034 -0.00290019)
(0.857335 0.0181066 0.0135554)
(0.790696 -0.0616621 0.0226378)
(0.793866 0.140861 0.0329456)
(0.972063 0.109878 0.0151123)
(1.00611 -0.0101922 1.17109e-05)
(0.987875 0.073849 0.00155837)
(1.07369 0.0485711 -0.000164746)
(1.1117 0.0415632 -0.00323498)
(1.12056 -0.00223244 -0.000926496)
(1.12333 0.0195521 0.00122992)
(1.10942 0.0338276 0.000572861)
(1.08138 -0.0361001 0.000838901)
(1.03467 0.0218464 -0.000722651)
(1.07726 0.0278044 0.000238887)
(1.06359 0.028185 0.00254997)
(1.09919 0.00702685 -3.75469e-05)
(1.00615 -0.044967 -0.00220742)
(1.00819 -0.034192 0.000150708)
(0.937811 -0.0499083 -0.00392272)
(0.867009 -0.025063 0.00118648)
(0.884005 -0.00663703 0.00671827)
(0.877744 0.0208799 0.00634268)
(0.839245 0.107139 0.0139647)
(0.919161 0.0739555 0.00599197)
(0.991869 -0.00113628 0.000187039)
(1.00225 0.0306946 -1.31622e-05)
(1.05117 0.0369574 -0.000564844)
(1.05465 -0.00204704 6.2108e-05)
(1.0862 -0.00638162 -4.25343e-05)
(1.04998 -0.0214278 0.000704702)
(1.08336 -0.0115007 -0.0006456)
(1.07276 -0.0455737 -0.000127292)
(1.01915 -0.0461241 0.000143609)
(1.05465 -0.0256528 0.00067029)
(1.01754 -0.034229 -0.00107357)
(1.07505 -0.0417685 0.00113285)
(0.978089 -0.0644649 0.000177755)
(1.00307 -0.0627949 -0.000665614)
(0.921363 -0.0772265 0.00285765)
(0.88979 -0.054411 -0.001418)
(0.884913 -0.0506729 -0.000486853)
(0.85245 -0.0551322 0.00197964)
(0.8621 0.00810839 0.00209592)
(0.919105 0.0110568 6.72183e-05)
(0.997302 -0.00349383 5.43531e-05)
(0.996729 0.0149389 -0.000132346)
(1.05171 0.0085431 -3.13278e-05)
(1.05206 0.010519 0.000103647)
(1.06795 0.00567407 -2.4642e-05)
(1.0537 0.0157998 5.73461e-05)
(1.06644 0.0195987 -0.000295476)
(1.06994 0.0141388 0.000181736)
(1.02403 0.0228164 -0.000313586)
(1.04613 0.0206894 0.000399392)
(1.00667 0.0278814 -0.00043848)
(1.05337 0.0186604 0.000222135)
(0.968573 0.0112818 1.39251e-05)
(0.995006 0.0114541 -0.000820333)
(0.914308 0.00985236 0.00141926)
(0.893644 0.0155697 -0.00169164)
(0.890734 0.0246796 -0.000116228)
(0.858512 0.0288741 0.00116598)
(0.853911 0.0309681 9.195e-05)
(0.9049 0.0270267 -0.000441138)
(0.995522 -0.00752386 0.000191898)
(1.02138 -0.0038923 -0.000213654)
(1.0294 -0.00790827 0.000216333)
(1.05699 -0.012739 0.00030024)
(1.06105 -0.00458459 -0.000276309)
(1.06504 5.80818e-05 -0.000237962)
(1.06538 -0.00950308 -0.000268706)
(1.06071 0.00358274 6.79762e-05)
(1.02666 0.0068731 0.00023265)
(0.985573 -0.00317093 1.71713e-05)
(0.96552 -0.00570981 7.26195e-05)
(0.923801 -0.0164266 -0.000201252)
(0.926683 -0.0179189 0.000841245)
(0.944863 -0.03228 -0.00118386)
(0.917298 -0.0436799 0.00144937)
(0.954432 -0.0320154 -0.00217799)
(0.932901 -0.0312305 0.00413072)
(0.970329 -0.0263498 -0.00234867)
(0.859642 -0.0267233 -0.003002)
(0.904448 -0.0291273 0.0133005)
(1.00273 -0.0101794 0.000103388)
(1.02482 -0.0128493 -0.000365799)
(1.01974 -0.027657 0.000915402)
(1.0701 -0.00849453 0.000532462)
(1.08042 5.80224e-05 -0.00106384)
(1.06915 0.00297787 0.000535622)
(1.08297 0.0101908 -0.000435931)
(1.08293 0.0271348 -0.00039151)
(1.01783 0.0536932 0.000158988)
(0.994273 0.0490573 0.00144926)
(0.971864 0.053478 0.000391788)
(0.916073 0.0533656 -0.00251492)
(0.920402 0.000888178 0.00395375)
(0.936148 0.0349303 -0.00126367)
(0.918078 0.0464219 -0.000779362)
(0.976248 0.0135151 -0.00142382)
(0.9452 0.0262405 0.00951091)
(0.990176 0.0829125 -0.0125408)
(0.869303 0.0805812 -0.0049701)
(0.889542 0.00417094 0.0243651)
(1.00693 -0.038339 0.000367207)
(1.02458 -0.0172502 -0.00144102)
(1.0524 -0.0551515 0.00245422)
(1.08573 -0.0653281 0.00220736)
(1.0957 -0.00292714 0.00182749)
(1.14338 0.0102722 -0.00109573)
(1.11347 -0.0304213 -0.00135867)
(1.07498 0.061475 0.00484204)
(1.06672 0.083918 -9.79978e-05)
(1.01367 0.0333211 6.2198e-05)
(0.994513 0.0532817 0.000867101)
(0.926363 0.0231469 0.00127486)
(0.910695 -0.033655 0.000144545)
(0.995488 -0.0422253 -0.00559214)
(0.942095 -0.0683453 -0.000214301)
(0.987614 -0.0606285 0.00205753)
(0.939692 -0.0411806 0.00794161)
(1.00109 0.0275305 -0.00616802)
(0.917249 0.0500762 0.0145874)
(0.830852 -0.0319205 0.0289892)
(1.02738 -0.0365498 0.0047086)
(1.03686 -0.0203931 -0.00788181)
(1.04022 -0.0923187 -0.00318678)
(1.12222 -0.0179297 0.0192858)
(1.15715 -0.0236292 0.0140905)
(1.24682 -0.0109013 0.00476053)
(1.15441 0.0573313 0.00123923)
(1.1008 0.0787466 -0.00486781)
(1.12367 0.0911799 0.00432113)
(1.03176 0.104346 0.0113066)
(0.981274 0.125685 -0.00995831)
(0.951544 0.136819 -0.00239879)
(0.922899 -0.0515999 0.00418472)
(0.946207 0.0176871 -0.00861899)
(0.925376 0.0649603 -0.00495469)
(1.07547 0.0222552 0.00415868)
(1.04314 0.0243825 -0.0145229)
(1.0646 0.118409 -0.0377539)
(1.02919 0.228735 -0.00120538)
(0.848236 0.0785057 0.0178389)
(1.04934 -0.104145 0.00439884)
(1.01791 -0.0399913 -0.0136384)
(1.08104 -0.159064 -0.0157484)
(1.23689 -0.164471 0.0297926)
(1.26527 -0.0443976 0.0662537)
(1.3031 0.0456611 0.0179052)
(1.25107 0.0713282 0.00551984)
(1.21153 0.0908915 0.036321)
(1.1326 0.16289 -0.000513816)
(1.06583 0.154959 -0.0112107)
(1.05423 0.106313 0.0336512)
(0.908064 0.069272 0.00948511)
(0.934915 -0.0502277 -0.0456536)
(1.04981 -0.0542044 -0.0131672)
(1.09194 -0.158873 -0.0126057)
(1.16714 -0.141822 0.00674758)
(1.0597 -0.083324 0.00454756)
(0.970318 0.0234971 0.0189305)
(1.03628 0.241664 0.0299996)
(0.897688 0.119288 -0.0125279)
(1.04871 -0.0812837 -0.0102355)
(0.978323 0.0145523 -0.0392358)
(1.3095 -0.352464 -0.0039906)
(1.48085 -0.090056 0.0418816)
(1.47484 0.014889 0.0388197)
(1.38923 -0.00822244 0.041675)
(1.35809 0.174071 0.00640455)
(1.39983 0.255438 -0.017421)
(1.28842 0.165183 0.0222923)
(1.11218 0.127982 0.0017589)
(1.15208 0.27609 -0.0223364)
(0.977359 0.309682 -0.0597936)
(0.89219 -0.131286 -0.069643)
(1.11646 -0.0556742 -0.02279)
(1.06748 0.01985 -0.0378448)
(1.19276 0.0545294 0.018796)
(0.984391 0.18465 -0.0227788)
(1.07179 0.188963 -0.0273504)
(1.27574 0.328167 0.0304271)
(1.03913 0.190292 -0.000352746)
(1.11126 -0.152048 -0.0574728)
(0.886297 -0.197532 0.00502691)
(1.55787 -0.7502 -0.0341141)
(1.90426 -0.664961 0.0175514)
(1.63676 0.0580081 -0.0149004)
(1.46325 0.31742 -0.00810038)
(1.38341 0.225053 0.0121497)
(1.61846 0.143664 0.021014)
(1.51578 0.446977 -0.120853)
(1.2748 0.396314 -0.0122569)
(0.957669 0.285627 0.098351)
(0.748255 0.118976 -0.0271113)
(0.866815 -0.282766 -0.0388042)
(0.884229 -0.229173 0.0134235)
(0.865093 -0.270912 -0.0338516)
(1.23687 -0.124521 0.0134888)
(1.39036 0.0717737 0.0441889)
(1.36785 -0.155341 0.0276436)
(1.39741 0.118091 0.00442455)
(1.05891 0.226791 -0.0110161)
(0.872867 -0.0367976 -0.00937816)
(1.35127 -0.295399 -0.0170576)
(1.71579 -0.98084 0.131339)
(1.93736 -0.806882 -0.122905)
(1.95007 0.0560076 -0.206982)
(1.54968 0.0590238 -0.119046)
(1.40737 0.152779 0.0559692)
(1.63414 0.319623 0.0275687)
(1.96967 0.574173 0.0258944)
(1.41097 0.520468 0.117249)
(1.50107 0.63494 0.0197924)
(1.6523 0.616155 -0.209099)
(1.33458 0.138323 -0.0994023)
(0.945453 0.0373714 0.0462939)
(0.689353 -0.308401 0.0999413)
(0.875537 -0.436274 -0.0253505)
(1.22805 0.146295 -0.0170658)
(1.30138 0.264833 -0.00261852)
(1.23218 0.553797 -0.0353145)
(1.11036 0.479315 -0.00503355)
(0.920312 -0.254363 -0.0381506)
(1.44604 -0.880191 -0.0175118)
(1.8988 -1.1633 0.096479)
(0.743687 0.276431 0.107362)
(0.520598 -0.15573 0.23583)
(1.10285 0.387829 -0.0496171)
(0.759088 0.489604 -0.0841535)
(1.1819 0.426213 -0.18557)
(0.891457 0.581935 -0.0731619)
(0.341078 0.0847035 0.136763)
(0.403706 0.00742987 0.0918722)
(0.597403 -0.387016 0.100274)
(0.614407 -0.684591 -0.0227712)
(0.922943 -0.251095 -0.056265)
(1.17156 -0.213483 -0.0493561)
(1.43535 0.282696 -0.0302856)
(1.36736 0.364751 0.0131945)
(0.307068 -0.0419869 0.0474946)
(1.92994 -0.718216 0.0289445)
(-0.0858811 0.179339 -0.207314)
(-0.0891311 -0.0301148 -0.126202)
(-0.0635577 -0.636825 -0.0571469)
(0.671055 0.454333 -0.0990203)
(0.210701 0.218341 0.0143256)
(0.555405 0.714231 -0.0124229)
(0.169695 1.02549 0.0802692)
(0.575829 0.0404616 0.0350738)
(0.706125 -0.235956 0.043336)
(1.10421 -0.457207 0.0931716)
(0.965733 -0.667875 0.0810953)
(1.00403 -0.32493 0.00316377)
(1.0745 -0.324858 -0.00600211)
(1.30009 0.347382 -0.0154124)
(1.26703 0.556169 -0.022585)
(1.09843 0.17885 0.119573)
(0.175234 -0.338749 0.162381)
(-0.206085 0.0966424 -0.221054)
(-0.336521 -0.697203 -0.280867)
(0.417227 -0.0318051 0.0466967)
(0.0969806 0.349093 0.0316359)
(0.083961 0.552253 -0.0237158)
(0.378785 0.581558 0.116337)
(0.953796 -0.315661 0.0384323)
(0.904173 -0.459669 -0.0397394)
(1.15354 -0.493276 -0.00711034)
(1.3299 -0.521408 0.0599)
(1.248 -0.307671 0.0346659)
(1.19255 -0.489963 0.000190172)
(1.2993 0.086606 -0.0319088)
(1.31038 0.389227 -0.021213)
(1.35047 0.077008 0.00748433)
(0.988602 0.397909 -0.116689)
(0.75479 0.932875 0.184628)
(0.064647 0.203047 -0.104308)
(0.413815 -0.758564 -0.133969)
(0.0734569 0.174666 0.0147192)
(0.347459 0.462102 0.0657572)
(0.220105 0.543899 -0.0897776)
(0.865615 0.272358 0.0343507)
(1.32138 -0.357161 0.134537)
(1.39022 -0.43481 0.0121079)
(1.1761 -0.738659 -0.121837)
(1.17421 -0.693593 -0.0650905)
(1.36313 -0.295868 0.0686079)
(1.23054 -0.356747 0.0335178)
(1.30026 0.210739 0.0180302)
(1.1763 0.443228 0.0217037)
(1.14895 0.130055 0.0227434)
(1.02301 0.42369 -0.0349653)
(0.766142 0.217794 -0.0164203)
(0.0397435 -0.145842 0.013479)
(1.17819 -0.178894 0.0706621)
(1.9364 -0.85386 -0.0495494)
(1.17554 -0.270574 -0.0720285)
(1.0535 0.407366 0.0482406)
(1.05954 0.327649 0.00259826)
(1.32634 -0.24568 -0.0182911)
(1.48114 -0.696832 0.0104261)
(1.5397 -0.416805 0.00713895)
(1.37615 -0.403013 -0.0444286)
(1.13017 -0.643393 -0.0546746)
(1.04217 -0.325102 -0.0360896)
(0.814661 -0.373338 -0.0592568)
(0.880796 0.184693 -0.017512)
(0.932639 0.455015 -0.00350686)
(1.04652 0.081757 0.00270522)
(1.07005 0.270507 -0.0354286)
(1.39645 0.361683 -0.00894719)
(1.83119 0.37243 -0.0557089)
(2.03023 0.0626818 0.0850646)
(1.51385 -0.147897 0.0114523)
(1.63654 -0.141569 -0.064934)
(1.40131 -0.399302 -0.008063)
(0.962113 0.276034 0.0356939)
(1.04249 0.441742 -0.00176926)
(1.46477 0.374522 0.00523925)
(1.60015 -0.0347554 0.0421578)
(1.44577 -0.450632 0.0325424)
(1.12583 -0.235287 -0.0279994)
(1.0981 -0.386505 0.000907662)
(0.846578 -0.334964 0.0236188)
(0.859695 -0.13241 -0.0253153)
(0.73185 -0.305798 -0.109202)
(0.486574 0.245104 -0.139109)
(0.757091 0.441771 -0.0357074)
(0.983287 0.107203 -0.00239358)
(1.13398 0.135004 -0.00350625)
(1.08124 0.179205 -0.00503562)
(1.35549 0.112401 0.0130103)
(1.56664 0.0796678 -0.0117475)
(1.39036 -0.101402 -0.0424744)
(1.39707 -0.158268 0.0101755)
(1.21774 -0.253463 0.0167589)
(1.0307 -0.00630077 -0.00523994)
(1.23936 0.0542854 0.0818335)
(1.38426 0.0111306 0.0551563)
(1.45216 -0.16229 -0.0616659)
(1.29847 -0.391418 -0.020561)
(1.13436 -0.206985 0.00893678)
(1.17512 -0.190861 -0.00203638)
(0.888167 -0.316442 0.0178837)
(0.891994 -0.260701 0.0323945)
(0.865417 -0.24331 0.0412861)
(0.560894 0.186509 -0.0345236)
(0.797447 0.261887 -0.0192685)
(0.979008 -0.0160139 -0.000830749)
(1.12425 0.208264 0.00739858)
(1.08963 0.0876458 -0.00730207)
(1.18256 0.0925819 -0.0135344)
(1.36162 0.10207 -0.0184166)
(1.27422 -0.00424083 -0.0185371)
(1.20454 -0.0370328 -0.00241981)
(1.14933 -0.151857 0.0190791)
(1.10169 0.111664 0.0210559)
(1.16324 0.0863028 -0.0130795)
(1.17621 0.0305451 0.0173406)
(1.23359 -0.0552025 0.0173437)
(1.09132 -0.114473 -0.0206156)
(0.961798 -0.101233 -0.0161848)
(1.06129 -0.256405 -0.0286087)
(0.940655 -0.0576828 0.0192381)
(0.844498 -0.0218186 0.0363982)
(0.796499 -0.125692 0.0624399)
(0.761706 0.177792 0.083392)
(0.938208 0.177692 0.0360264)
(0.967436 -0.00312633 -0.00278388)
(1.02854 0.0800691 0.00380543)
(1.11356 0.138488 0.010372)
(1.07211 0.00955563 -0.00926073)
(1.18793 -0.0049007 -0.0289907)
(1.18083 -0.035401 0.00449369)
(1.1583 -0.042939 0.0139163)
(1.07884 -0.115199 -0.0125303)
(1.02204 -0.0526418 0.00665909)
(1.14824 -0.0097375 0.00755692)
(1.1097 -0.0187203 -0.00876738)
(1.14065 -0.0884299 -0.0104204)
(1.04645 -0.154822 0.00390558)
(1.05409 -0.130544 0.0316964)
(0.958408 -0.200374 -0.0102442)
(0.839336 -0.0789042 -0.00645691)
(0.892489 -0.0391487 0.0218485)
(0.826223 -0.14121 0.0196179)
(0.839984 0.00785454 0.0462603)
(0.989952 0.0624113 0.0233473)
(1.00446 -0.0117164 0.000223695)
(0.988347 0.0745899 0.0025421)
(1.07694 0.0528219 -0.000195012)
(1.10895 0.0393428 -0.00641311)
(1.12052 -0.000896396 -0.00263482)
(1.1199 0.0150981 0.00214195)
(1.10903 0.0390675 0.000110084)
(1.08516 -0.0354059 0.00128812)
(1.03341 0.0199533 -0.00108201)
(1.07445 0.0233062 0.000103316)
(1.06159 0.0384535 0.00475269)
(1.1034 -0.00505226 -0.000390112)
(1.00674 -0.0450255 -0.00423429)
(1.00622 -0.0265148 -0.00153683)
(0.934814 -0.082142 -0.00761446)
(0.86339 -0.0101308 0.00377595)
(0.893633 -0.000644521 0.0115967)
(0.87905 -0.000512832 0.00755567)
(0.835974 0.0880272 0.0172678)
(0.919101 0.0759345 0.0074606)
(0.991566 -0.00153858 0.000416475)
(1.00274 0.0318784 -8.73907e-05)
(1.05178 0.0368315 -0.00112976)
(1.05373 -0.0026898 0.000210774)
(1.08559 -0.00614361 -0.000266798)
(1.05024 -0.0219448 0.00122939)
(1.08452 -0.00876095 -0.00156761)
(1.07224 -0.0477602 -6.81241e-05)
(1.0192 -0.0428581 8.10476e-05)
(1.05398 -0.0299747 0.00132147)
(1.01847 -0.0295602 -0.00231769)
(1.07506 -0.0444682 0.00215509)
(0.976373 -0.0640009 -2.40059e-06)
(1.00595 -0.0552829 -0.00131534)
(0.920676 -0.0906991 0.00584921)
(0.88737 -0.038118 -0.00361541)
(0.887909 -0.0495975 -0.00160964)
(0.851687 -0.0674503 0.0036474)
(0.859787 0.00652061 0.00263811)
(0.918366 0.0146497 -0.000749439)
(0.99725 -0.00352429 0.000122469)
(0.996837 0.0149607 -0.00029282)
(1.05175 0.00873105 -4.55452e-05)
(1.05192 0.0102569 0.000231059)
(1.06795 0.00576226 -0.00012061)
(1.0537 0.0159651 8.07798e-05)
(1.06656 0.0194456 -0.000711822)
(1.06999 0.0144836 0.000430452)
(1.02393 0.0225156 -0.000722406)
(1.04634 0.0209022 0.000911639)
(1.00627 0.0277087 -0.00107761)
(1.05414 0.018876 0.000501007)
(0.967685 0.010712 5.70188e-06)
(0.995785 0.0119465 -0.00194003)
(0.914234 0.00918246 0.0032656)
(0.892642 0.0155795 -0.00386877)
(0.891998 0.0254131 -0.00041705)
(0.858595 0.0287424 0.00237297)
(0.853111 0.0309394 -0.000414251)
(0.904749 0.0276935 -0.00135654)
(0.995766 -0.00763099 9.58261e-05)
(1.02115 -0.00385938 -0.000104179)
(1.02939 -0.00776819 0.000124278)
(1.05695 -0.0125684 0.000114314)
(1.06082 -0.00455646 -0.00017973)
(1.06526 -0.000354769 -0.00015702)
(1.06534 -0.00950419 -0.000157628)
(1.0607 0.00357383 1.47275e-05)
(1.02692 0.00642257 0.000131417)
(0.985342 -0.0028212 -2.27463e-06)
(0.965554 -0.0054682 7.76123e-06)
(0.924098 -0.0172901 -2.25922e-05)
(0.926449 -0.0172902 0.000227596)
(0.944745 -0.0317856 -0.000459983)
(0.917705 -0.0445114 0.000446717)
(0.953925 -0.0321855 -0.000690055)
(0.933923 -0.0300377 0.00116992)
(0.968828 -0.0276533 -0.000687144)
(0.860432 -0.0281137 -0.000889607)
(0.907609 -0.0256375 0.0041731)
(1.00385 -0.00928073 3.31527e-05)
(1.02373 -0.0135696 -0.00014939)
(1.01945 -0.0268697 0.000504447)
(1.07047 -0.00752475 0.000163791)
(1.07973 -0.00180753 -0.000724312)
(1.06955 0.00191628 0.000113145)
(1.08379 0.00896263 -0.000221288)
(1.08281 0.027032 -0.00034491)
(1.01736 0.0554887 0.000116977)
(0.994041 0.0487846 0.000612917)
(0.971638 0.0529013 0.000219126)
(0.916044 0.0542781 -0.00110078)
(0.921034 0.00237199 0.00149197)
(0.934248 0.029534 -0.000231909)
(0.920585 0.0516309 -0.000640679)
(0.972219 0.00763314 -0.000388172)
(0.949596 0.0349007 0.00349187)
(0.986373 0.078631 -0.00476754)
(0.863842 0.0695127 -0.00271433)
(0.91157 0.0317792 0.00804329)
(1.01061 -0.0381537 -9.3341e-05)
(1.02092 -0.0174731 -0.000240094)
(1.05074 -0.0515014 0.00152806)
(1.08576 -0.0632129 -6.58511e-05)
(1.09521 -0.0103192 -0.000429428)
(1.152 0.00946486 -0.00108664)
(1.10993 -0.0320181 -0.00114335)
(1.07328 0.0593347 0.00205752)
(1.07141 0.0847127 0.00023968)
(1.00746 0.038576 -0.000231537)
(0.989668 0.0555545 0.000299304)
(0.933233 0.011988 0.000925398)
(0.91203 -0.0180779 -0.000814203)
(0.98381 -0.0459773 -0.00378147)
(0.951403 -0.0722275 -0.00023004)
(0.97243 -0.0687544 0.000882098)
(0.970801 -0.00813468 0.000506526)
(0.996221 -0.00705012 -0.0028466)
(0.880763 -0.00153518 0.00693504)
(0.886701 0.0228087 0.0121487)
(1.03126 -0.03671 0.00172979)
(1.03844 -0.0192876 -0.0029841)
(1.02737 -0.0804599 0.000183517)
(1.11919 -0.0194434 0.008038)
(1.17269 -0.036316 0.00208181)
(1.24895 -0.0195298 -0.00175456)
(1.16745 0.0533213 4.07628e-05)
(1.09065 0.0903953 -0.0023384)
(1.10702 0.0981977 0.000509244)
(1.04423 0.109724 0.00360227)
(0.997722 0.11842 -0.00386568)
(0.945866 0.138021 -0.00242777)
(0.910435 -0.041865 0.00132608)
(0.970028 -0.0275508 -0.0038718)
(0.941727 0.0732794 -0.00228345)
(1.06166 -0.00140696 -0.00313724)
(1.04981 0.0488844 -0.00455518)
(1.01905 0.132155 -0.00979883)
(0.877346 0.220747 -0.00973856)
(0.837955 0.167637 0.0057234)
(1.04759 -0.0929814 0.000837546)
(1.0028 -0.0563833 -0.00654065)
(1.11338 -0.146488 0.00125998)
(1.20954 -0.111627 0.0126071)
(1.25761 -0.0478074 0.0205996)
(1.35576 0.0262355 0.00711729)
(1.18434 0.0769655 -0.00243382)
(1.17665 0.0915254 0.013337)
(1.17439 0.146298 0.000607952)
(1.00872 0.164932 0.0019582)
(1.00984 0.0841122 0.0195825)
(0.962738 0.0613418 -0.00373924)
(0.95797 -0.0405289 -0.0254506)
(1.02607 -0.124119 -0.00926617)
(1.0448 -0.159259 -0.00975641)
(1.12158 -0.172837 -0.000192229)
(1.08906 -0.0434628 0.0106244)
(0.981351 -0.00499761 0.00541145)
(1.19518 0.0767797 -0.00050778)
(1.13 0.12162 -0.00371364)
(1.01056 -0.0651131 -0.00335282)
(1.00637 -0.0637736 -0.0339275)
(1.26263 -0.320435 0.025187)
(1.47005 0.05017 0.0655385)
(1.41878 0.109036 0.0124637)
(1.3385 0.0785834 -0.0170238)
(1.34837 0.212392 -0.0258304)
(1.34151 0.289924 -0.0098698)
(1.30911 0.201414 0.00342484)
(1.1692 0.224031 -0.0244634)
(1.18244 0.335778 -0.0283454)
(0.984103 0.216946 -0.0274357)
(0.781786 -0.304408 -0.0270271)
(1.04041 -0.131541 -0.00127475)
(0.993804 -0.0566845 -0.0181975)
(1.21933 -0.010208 0.00855061)
(1.14798 0.223079 -0.0134917)
(1.0347 0.12958 -0.0239562)
(1.17539 0.192557 0.0339917)
(1.0259 0.207778 0.0163878)
(0.953087 -0.17298 -0.0277266)
(1.0274 -0.524234 -0.00303339)
(1.49981 -0.498031 -0.0363093)
(1.50828 -0.141964 0.014572)
(1.48646 0.170488 0.0189748)
(1.67561 0.108795 -0.0352685)
(1.39594 -0.0087672 0.0164969)
(2.0036 0.0294726 -0.023366)
(1.54206 0.377195 -0.0916913)
(0.800828 0.175989 0.0147196)
(0.933089 0.0699047 0.0515783)
(0.831662 0.0695198 -0.0701722)
(0.49544 -0.438151 -0.0406249)
(0.724509 -0.371885 0.017925)
(0.783428 -0.512763 -0.000332219)
(1.17099 -0.247786 0.021956)
(1.38582 -0.00491179 0.0170864)
(1.32217 -0.182131 -0.00574916)
(1.23977 0.234126 0.00634668)
(0.90427 0.289786 -0.00328538)
(0.985113 -0.320805 -0.0315636)
(0.940185 -0.321981 0.0330626)
(1.42447 -0.928422 -0.0688255)
(1.83159 -0.632881 -0.219469)
(1.81491 0.356298 -0.126237)
(1.55882 0.119419 -0.0785375)
(1.49963 0.0858368 -0.0209344)
(1.01529 0.231782 0.0424889)
(1.56259 0.444225 0.144438)
(1.58275 0.688617 0.123896)
(2.09572 0.841663 -0.0633315)
(1.1071 0.260331 -0.0969)
(0.462254 -0.391277 0.0725986)
(0.40897 -0.226341 0.0858148)
(0.594696 -0.487733 0.0643977)
(0.859689 -0.358307 -1.81606e-05)
(1.05366 0.312154 -0.000748847)
(1.19219 0.307332 -0.00228798)
(1.12769 0.567759 -0.0206702)
(1.06011 0.462554 -0.00533825)
(1.06101 -0.241441 -0.056829)
(1.02341 -1.03901 -0.115172)
(1.61954 -0.967936 0.303166)