/*--------------------------------*- C++ -*----------------------------------*\
  =========                 |
  \\      /  F ield         | OpenFOAM: The Open Source CFD Toolbox
   \\    /   O peration     | Website:  https://openfoam.org
    \\  /    A nd           | Version:  8
     \\/     M anipulation  |
\*---------------------------------------------------------------------------*/
FoamFile
{
    version     2.0;
    format      ascii;
    class       volScalarField;
    location    "0.626";
    object      T;
}
// * * * * * * * * * * * * * * * * * * * * * * * * * * * * * * * * * * * * * //

dimensions      [0 0 0 1 0 0 0];

internalField   nonuniform List<scalar> 
100
(
49.9902
4.84731
-4.7433
-1.61813
1.20496
1.03294
-0.0367983
-0.706572
-0.50998
0.0045708
95.1524
49.9829
11.2205
-4.50276
-4.03643
0.421123
2.06192
1.48918
-0.426228
-1.05405
104.821
88.8058
49.8384
13.6418
-3.92737
-5.13771
-1.02763
2.08962
2.23645
0.50127
101.629
104.565
86.2679
49.9406
15.6052
-3.26193
-6.34603
-3.21698
1.90283
2.88386
98.6994
104.066
104.282
84.3947
49.7514
16.8298
-1.36976
-6.88694
-4.11294
0.0443883
98.7984
99.4321
105.909
103.619
82.4817
48.9632
18.6993
0.750792
-6.32192
-3.75778
100.154
97.8951
100.599
106.362
101.976
82.1316
49.6121
22.099
-0.673323
-7.68949
100.824
98.4413
97.5013
103.278
107.527
99.9446
77.12
49.5715
25.0973
6.34619
100.936
100.692
95.8926
97.3855
105.945
111.117
98.4335
72.9316
44.3396
13.962
99.8867
101.188
99.8305
96.9282
99.3025
103.384
108.538
94.5843
87.4046
49.413
)
;

boundaryField
{
    left
    {
        type            fixedValue;
        value           uniform 100;
    }
    right
    {
        type            zeroGradient;
    }
    up
    {
        type            zeroGradient;
    }
    down
    {
        type            fixedValue;
        value           uniform 0;
    }
    frontAndBack
    {
        type            empty;
    }
}


// ************************************************************************* //
