/*--------------------------------*- C++ -*----------------------------------*\
  =========                 |
  \\      /  F ield         | OpenFOAM: The Open Source CFD Toolbox
   \\    /   O peration     | Website:  https://openfoam.org
    \\  /    A nd           | Version:  8
     \\/     M anipulation  |
\*---------------------------------------------------------------------------*/
FoamFile
{
    version     2.0;
    format      ascii;
    class       volVectorField;
    location    "8";
    object      U;
}
// * * * * * * * * * * * * * * * * * * * * * * * * * * * * * * * * * * * * * //

dimensions      [0 1 -1 0 0 0 0];

internalField   nonuniform List<vector> 
2844
(
(0.998836 -0.00517643 7.26737e-06)
(1.01997 -0.00573124 -8.25757e-06)
(1.03801 -0.0135161 -4.63322e-05)
(1.0712 -0.00650452 1.54549e-05)
(1.08877 -0.0108191 5.30785e-05)
(1.10992 -0.00357486 3.14402e-05)
(1.10986 -0.00513821 -1.68981e-05)
(1.10644 -0.00202985 -2.66137e-05)
(1.09354 -0.000590322 -1.45419e-05)
(1.08047 0.00253243 7.59748e-07)
(1.06958 -0.00094426 8.86981e-06)
(1.04583 -0.00867119 1.61683e-05)
(1.03115 -0.0154076 8.96918e-06)
(0.993237 -0.01856 1.35131e-06)
(0.977015 -0.0229919 -6.74378e-06)
(0.943272 -0.0184971 -6.89579e-06)
(0.936848 -0.0176476 -4.28817e-06)
(0.910821 -0.0226563 2.658e-07)
(0.910696 -0.034671 1.13096e-06)
(0.873799 -0.0360396 1.15562e-06)
(0.998535 -0.0145743 4.48521e-05)
(1.02149 -0.0162777 -4.34128e-05)
(1.04624 -0.0346553 -0.000195784)
(1.08161 -0.0307488 6.13121e-06)
(1.10023 -0.0182448 0.000214989)
(1.12493 -0.00692628 0.000160736)
(1.11747 0.00707424 -4.40536e-05)
(1.11721 0.015787 -0.000120428)
(1.10677 0.0219813 -4.77464e-05)
(1.09097 0.0182932 4.24985e-05)
(1.07717 0.0280763 1.25776e-05)
(1.05762 0.0407111 -2.97125e-05)
(1.04601 0.0589401 2.08666e-05)
(0.99998 0.0632399 6.74608e-05)
(0.98957 0.063131 3.47447e-05)
(0.963722 0.0513075 -1.98209e-05)
(0.956425 0.0435125 -1.5305e-05)
(0.92083 0.0432155 1.4139e-05)
(0.930532 0.0635569 3.06627e-05)
(0.900358 0.0663138 2.1532e-05)
(1.00088 -0.0291211 0.000152845)
(1.02591 -0.0378514 3.57554e-06)
(1.06081 -0.0750548 -0.000816229)
(1.11569 -0.0477964 -0.000472155)
(1.13661 -0.0532779 0.000807982)
(1.1518 -0.0114883 0.000780906)
(1.16467 -0.00760265 4.17238e-05)
(1.15421 0.0122209 -0.000351251)
(1.12654 0.0154188 -0.000386692)
(1.11348 0.0218051 -0.00020139)
(1.11215 0.0230194 0.000191847)
(1.07979 0.0121655 0.000435606)
(1.05225 0.0292916 0.000232172)
(1.02462 0.0236116 -4.54411e-05)
(0.997798 0.00268278 -9.53082e-05)
(0.951037 0.00553893 -1.01154e-05)
(0.934752 0.0138832 1.28869e-05)
(0.923181 -0.00148695 -2.90141e-05)
(0.914438 -0.0190575 -5.30927e-05)
(0.865947 -0.0117903 -2.77981e-05)
(1.00477 -0.0407192 -5.34807e-05)
(1.02161 -0.0408025 0.00100774)
(1.08856 -0.109197 -0.00183814)
(1.15626 -0.0723353 -0.00387342)
(1.19163 -0.037969 0.000149858)
(1.21661 -0.0274135 0.00355966)
(1.20755 -0.0031629 0.0023575)
(1.18832 0.058874 -0.000856642)
(1.1585 0.0644128 -0.00127705)
(1.16935 0.0366181 0.000522588)
(1.14594 0.0563742 0.000873525)
(1.1064 0.095159 -0.000218519)
(1.11185 0.107305 -0.000177291)
(1.06144 0.110934 0.000367822)
(1.03859 0.124951 1.80865e-05)
(1.01488 0.106095 -0.000511926)
(1.02664 0.0681831 -0.000356955)
(0.978989 0.0569997 -3.16867e-05)
(0.985094 0.107466 -0.000236019)
(0.962118 0.106889 -0.000219662)
(1.02264 -0.0635399 -0.000655586)
(1.02337 -0.118107 0.00450402)
(1.10701 -0.200038 -0.00396113)
(1.22464 -0.0985575 -0.0103229)
(1.33268 -0.104166 -0.00578155)
(1.32302 -0.0481333 -0.00181671)
(1.30444 -0.0234894 0.00773112)
(1.25893 0.0743813 0.00754004)
(1.25783 0.0156536 0.000286602)
(1.22248 0.0281386 -0.00599443)
(1.18183 0.0658426 -0.00300877)
(1.16049 0.0271545 0.0031327)
(1.14938 0.0643681 0.00366919)
(1.09973 0.0774116 0.000754663)
(1.06337 0.0359471 -0.000463247)
(1.0268 0.0119337 0.000165333)
(0.982519 0.0396042 0.000390647)
(0.950469 0.0349751 0.00033546)
(0.984524 -0.0036153 0.000940325)
(0.952601 0.00924783 0.000588519)
(1.00233 -0.0637242 0.00140221)
(1.04741 -0.104212 0.0137928)
(1.18392 -0.270762 -0.0262428)
(1.29866 -0.0978877 -0.0261132)
(1.52251 -0.0268473 0.0235117)
(1.49279 0.00897994 0.0269404)
(1.47661 -0.0167062 0.0168707)
(1.39761 0.093471 0.0202192)
(1.36271 0.102747 0.0196612)
(1.31189 0.158298 0.00884836)
(1.27289 0.142376 -0.00390029)
(1.28979 0.123953 -0.00568892)
(1.23678 0.143693 0.00367393)
(1.27736 0.173101 0.00941396)
(1.21133 0.188313 0.00762152)
(1.11294 0.174886 0.00231473)
(1.00856 0.123131 -0.00088987)
(0.966807 0.0468948 -0.00262289)
(0.940274 0.0954957 -0.00538708)
(0.886897 0.127283 -0.00301405)
(1.01553 -0.130648 0.0173121)
(1.08531 -0.391924 0.0153621)
(1.24424 -0.322931 -0.0177522)
(1.42855 -0.192678 -0.0216236)
(1.78148 -0.262329 -0.0116254)
(1.74191 -0.146719 0.0273278)
(1.66655 -0.0569389 0.0163628)
(1.69252 0.0185112 0.00740824)
(1.60777 -0.116698 0.00787767)
(1.58691 0.0674704 0.00687338)
(1.57907 0.08829 0.00114918)
(1.52274 0.0710778 -0.00270683)
(1.51317 0.0542016 -0.00131973)
(1.48721 0.0236571 0.00415776)
(1.44948 0.104569 0.00503525)
(1.43265 0.137146 0.000548987)
(1.42505 0.155787 -0.00179599)
(1.29461 0.120777 -0.00510736)
(1.18613 0.100191 -0.000492716)
(1.07494 0.0830375 0.00316873)
(1.19332 -0.283997 -0.00727217)
(0.963772 -0.260487 0.0309348)
(1.55822 -0.798283 0.0549018)
(1.71394 -0.369936 0.0075955)
(1.90938 0.00645867 -0.0159162)
(1.07183 -0.0665817 0.0206304)
(0.831204 -0.0479439 -0.038952)
(1.12648 0.0901883 -0.0262119)
(0.891391 0.0339817 -0.0275721)
(1.15775 0.179903 -0.0170152)
(1.30165 0.205844 -0.00451951)
(1.3395 0.215907 0.000665365)
(1.44568 0.197605 0.00391894)
(1.34349 0.195822 0.00422811)
(1.34152 0.215177 -0.000456182)
(1.355 0.196413 -0.000165124)
(1.3644 0.253063 0.00217466)
(1.38836 0.235124 0.00162061)
(1.3702 0.226466 0.00111985)
(1.37525 0.191044 -0.000168118)
(1.45177 -0.263249 -0.0437345)
(1.02512 -0.78772 0.0724828)
(0.845269 -2.13705 -0.0298487)
(-0.190726 -0.423223 -0.00538944)
(-0.0900087 0.0638275 -0.0175527)
(-0.34378 -0.111913 0.0179601)
(0.337348 -0.0627159 0.00994209)
(0.357164 -0.0686595 0.00219456)
(0.417493 -0.00154552 -0.000575694)
(0.522597 0.0396076 -0.000177429)
(0.552455 0.0673554 -0.00297296)
(0.683678 0.109188 -0.00370435)
(0.750579 0.112215 -0.00229111)
(0.859338 0.131913 -0.00213054)
(1.01438 0.120669 -0.00119705)
(1.05577 0.110386 -0.00428357)
(1.23888 0.0835142 -0.00379389)
(0.66825 -0.161748 -0.0314554)
(1.80532 -0.387693 0.0482285)
(-0.527204 -0.191459 -0.189864)
(-0.658111 -0.363209 0.00932131)
(0.294141 0.48297 -0.0445826)
(0.0957744 -0.158578 0.011694)
(-0.18207 -0.268349 -0.00921422)
(-0.26326 0.123336 -0.0051397)
(-0.164199 0.0900243 -0.000470003)
(-0.158171 0.0550921 -0.00049466)
(-0.0832513 0.0755098 -0.00096967)
(0.0358077 0.0799424 -0.000580371)
(0.197155 0.0575191 -0.00124291)
(0.302532 0.076043 -0.000711675)
(0.538478 0.0714002 -0.00123637)
(0.596725 0.0604057 -0.0015087)
(0.806353 0.0598099 0.000167751)
(0.854104 0.159774 0.0864312)
(-0.391104 0.666774 -0.0692168)
(-0.118021 0.503284 -0.00711444)
(0.109338 -0.170507 0.0443537)
(-0.00568829 0.235295 0.0377161)
(-0.14047 0.269416 0.00508047)
(-0.204083 -0.0349661 0.0135023)
(-0.118777 -0.0641563 0.00504202)
(-0.104171 -0.0334548 0.00102415)
(-0.0208225 -0.0784802 0.000267917)
(0.106328 -0.110602 0.00142336)
(0.257519 -0.0999246 0.000819219)
(0.361846 -0.12059 0.0020797)
(0.579287 -0.106642 0.00110606)
(0.635305 -0.0877266 0.00104332)
(0.830097 -0.0740091 0.00248094)
(1.27651 0.163964 -0.0513505)
(0.0373547 0.726785 0.0273921)
(0.732049 1.25382 0.00613681)
(-0.0681619 0.241941 0.0319501)
(0.19253 -0.179957 -0.0661691)
(0.211976 -0.221483 -0.0115086)
(0.456586 -0.14386 0.0244499)
(0.566965 -0.0335651 0.00433512)
(0.604947 -0.0092685 0.00638529)
(0.70639 -0.0364327 0.00463664)
(0.75972 -0.0901691 0.000764165)
(0.89831 -0.152188 0.00141252)
(0.946134 -0.16267 0.00283639)
(1.02303 -0.18512 0.00322133)
(1.13259 -0.16209 0.00326683)
(1.15595 -0.149003 0.000205614)
(1.2982 -0.108947 -0.000385815)
(0.913992 0.432609 -0.0211084)
(1.25893 0.259683 -0.0491491)
(1.01108 1.25891 0.000383179)
(-0.0583595 0.0331518 0.0111249)
(0.969311 -0.0576737 -0.0308644)
(1.24134 -0.16596 -0.0294559)
(1.1561 -0.119606 -0.0717021)
(1.33066 -0.189212 -0.0564485)
(1.45339 -0.203955 -0.0358414)
(1.46892 -0.229776 -0.00335884)
(1.57034 -0.233981 0.00788933)
(1.51584 -0.25798 0.00879129)
(1.50746 -0.295317 0.0031262)
(1.52075 -0.259917 -0.00135288)
(1.49183 -0.292598 -0.000709067)
(1.4745 -0.263063 -0.0024932)
(1.43079 -0.245632 -0.0019326)
(1.40372 -0.203139 -0.00143483)
(0.907666 0.157474 0.0233794)
(1.21767 0.264256 -0.0391971)
(1.45338 0.205338 -0.00760602)
(1.8358 0.458648 0.0690563)
(2.00711 0.228578 0.0107034)
(1.66673 0.137331 0.0136242)
(1.58681 0.190168 -0.000431378)
(1.63633 -0.0372886 -0.0128004)
(1.60282 0.0645895 -0.0145636)
(1.60094 -0.0117003 -4.81559e-05)
(1.56288 0.0211753 0.00246292)
(1.49535 -0.01624 -0.0039468)
(1.47964 -0.0940847 -0.00507703)
(1.44911 -0.114637 0.00034786)
(1.39806 -0.185587 0.00325868)
(1.35645 -0.181527 0.00562953)
(1.29682 -0.155468 0.00491053)
(1.15606 -0.0936616 -0.00482671)
(1.07151 -0.0702791 -0.00524839)
(1.01361 -0.0675313 -0.000519553)
(0.99296 0.110742 0.00363717)
(1.08456 0.202912 0.0117503)
(1.20789 0.255661 -0.0281761)
(1.3342 0.112677 -0.045456)
(1.49861 0.0629213 0.00862659)
(1.4413 0.0103077 0.0231935)
(1.44278 0.022565 0.0144352)
(1.45888 -0.0500502 0.00447993)
(1.48228 -0.034618 0.0124348)
(1.42828 -0.0920068 0.0235827)
(1.34779 -0.0936051 0.0176356)
(1.32696 -0.108467 0.00595467)
(1.235 -0.162056 0.00153654)
(1.26113 -0.210602 -0.00227773)
(1.21588 -0.225584 -0.00640849)
(1.15198 -0.206761 -0.00772481)
(1.082 -0.155004 -0.00245591)
(1.03945 -0.0676107 0.0016401)
(1.01467 -0.108372 0.00115167)
(0.930243 -0.135919 0.00149559)
(1.01279 0.0464307 -0.000953961)
(1.04773 0.112296 0.00436451)
(1.1556 0.181205 -0.00858952)
(1.25041 0.0623009 -0.00379582)
(1.30735 0.0532476 0.00422951)
(1.27226 0.029211 -0.00561819)
(1.30434 0.061689 -0.00547991)
(1.31526 -0.0366552 0.00449572)
(1.3228 -4.13969e-05 0.0103571)
(1.26429 -0.0204896 0.00611375)
(1.19937 -0.0609511 0.00312706)
(1.16992 -0.0181087 0.00175979)
(1.17053 -0.0477941 -0.00153044)
(1.12193 -0.0649364 -0.00297103)
(1.0758 -0.033214 -0.00169881)
(1.02704 -0.0153668 -0.000389827)
(0.975423 -0.0452197 -0.00146621)
(0.943849 -0.0406542 -0.00133476)
(0.976225 -0.00101216 -0.000203639)
(0.948357 -0.0114947 -0.000232545)
(1.00434 0.0507721 -0.00127782)
(1.03024 0.0762047 0.00179619)
(1.10556 0.125737 0.00126846)
(1.14693 0.0549294 -0.00146384)
(1.15941 0.0144056 -0.00452278)
(1.19732 0.0273075 -0.00427237)
(1.2238 0.0273556 0.000688074)
(1.22152 -0.0401545 0.00274734)
(1.1864 -0.0620997 0.00228366)
(1.18759 -0.0410221 0.00182144)
(1.1656 -0.0560698 0.000533573)
(1.1287 -0.0917545 -0.000635819)
(1.13874 -0.105824 0.000174747)
(1.09218 -0.114422 0.00109439)
(1.06731 -0.13539 0.000630811)
(1.03847 -0.119521 -0.000156442)
(1.04668 -0.0795545 -5.45319e-05)
(0.994562 -0.0639723 0.000207389)
(0.99762 -0.113286 4.21807e-05)
(0.970643 -0.111115 -2.84834e-05)
(0.999622 0.0266351 -0.000455186)
(1.0332 0.0371141 0.000749492)
(1.0728 0.0659075 0.000680492)
(1.11658 0.0330874 -0.00110227)
(1.12833 0.0497398 -0.0015184)
(1.14448 0.0225632 -0.000609524)
(1.16842 0.0229429 0.000514713)
(1.16905 -0.000308205 0.000721574)
(1.14248 -0.00878415 0.000572638)
(1.12474 -0.0156522 0.00032657)
(1.12183 -0.0150204 0.000287614)
(1.09203 -0.0029065 0.000253512)
(1.06738 -0.0217323 -9.18006e-05)
(1.04195 -0.0194899 -0.000336456)
(1.01471 -0.000671995 -0.000238212)
(0.964177 -0.00557099 -3.66809e-05)
(0.943939 -0.0162205 5.23481e-06)
(0.930115 -0.00109553 -1.58832e-05)
(0.920947 0.0172929 -1.86636e-05)
(0.870845 0.0108152 -1.22188e-05)
(0.999055 0.0183547 -0.000100806)
(1.02499 0.0223164 0.000179733)
(1.04947 0.0343994 9.40084e-05)
(1.07854 0.0261623 -0.000231895)
(1.09313 0.0159887 -0.000242589)
(1.1225 0.00888172 -5.21379e-05)
(1.12297 -0.00190159 7.66236e-05)
(1.12788 -0.0140243 9.85835e-05)
(1.11987 -0.0256149 8.22859e-05)
(1.10372 -0.0238767 7.19254e-05)
(1.09085 -0.0318838 1.03962e-05)
(1.07391 -0.0423178 -5.31544e-06)
(1.0656 -0.0603685 7.42662e-05)
(1.02013 -0.0664779 0.000119011)
(1.00868 -0.0688256 6.08588e-05)
(0.981107 -0.0577464 -1.7075e-05)
(0.971622 -0.0492131 -2.19761e-05)
(0.93258 -0.0471004 5.96184e-06)
(0.940542 -0.0670545 2.23875e-05)
(0.90804 -0.0687873 1.821e-05)
(0.99904 0.00450316 -2.22807e-05)
(1.02306 0.00515304 3.90634e-05)
(1.04083 0.0118575 1.00951e-05)
(1.07058 0.00530748 -4.84426e-05)
(1.08543 0.0121278 -4.99882e-05)
(1.1084 0.00709522 -7.10417e-06)
(1.11366 0.00900112 1.50942e-05)
(1.11536 0.00669076 2.3088e-05)
(1.10464 0.00593595 2.4312e-05)
(1.09114 0.00347137 1.99334e-05)
(1.08082 0.00697325 1.06125e-05)
(1.05902 0.0140773 9.61382e-06)
(1.04691 0.0201923 1.00017e-06)
(1.0104 0.0228614 -3.90873e-06)
(0.993842 0.0268927 -8.64633e-06)
(0.958111 0.0214421 -6.59776e-06)
(0.949445 0.0194907 -4.17243e-06)
(0.920946 0.0235174 4.07208e-07)
(0.919801 0.0354354 1.51291e-06)
(0.880736 0.0366774 1.47706e-06)
(0.998831 -0.00516113 1.39408e-05)
(1.01996 -0.00575463 -1.47678e-05)
(1.03802 -0.0135608 -5.44934e-05)
(1.07121 -0.00648254 4.19802e-06)
(1.08876 -0.0107646 4.95353e-05)
(1.1099 -0.00354845 1.86164e-05)
(1.10986 -0.00515412 -2.10981e-05)
(1.10645 -0.00205587 -3.43403e-05)
(1.09355 -0.000598216 -2.74535e-05)
(1.08047 0.00254059 -1.39609e-05)
(1.06958 -0.000950986 -1.5337e-06)
(1.04583 -0.00868969 4.94114e-06)
(1.03115 -0.0154019 6.77075e-06)
(0.99324 -0.0185331 4.29691e-06)
(0.977018 -0.0229719 1.38797e-06)
(0.943275 -0.0184965 -3.15251e-07)
(0.936851 -0.0176497 -6.31841e-07)
(0.910823 -0.0226526 -2.85485e-07)
(0.910698 -0.0346612 -3.14467e-07)
(0.8738 -0.0360322 -3.04157e-07)
(0.998485 -0.0144578 5.99445e-05)
(1.02147 -0.0164417 -5.11471e-05)
(1.04641 -0.034985 -0.000279644)
(1.08162 -0.0306037 -3.21616e-05)
(1.10002 -0.0177739 0.000219348)
(1.12483 -0.00678364 0.000132277)
(1.11758 0.00687741 -6.62983e-05)
(1.11738 0.0155646 -0.000145057)
(1.10684 0.0218655 -9.1746e-05)
(1.09093 0.0182955 -2.09159e-05)
(1.07712 0.0281888 5.0537e-06)
(1.05759 0.0408605 -2.09122e-05)
(1.046 0.0590099 -4.87614e-05)
(0.999949 0.0632199 -4.43388e-05)
(0.989544 0.063077 -2.25074e-05)
(0.963713 0.0512695 -4.41849e-07)
(0.956434 0.0434995 1.15293e-05)
(0.920834 0.0432169 1.58822e-05)
(0.930531 0.0635466 1.6563e-05)
(0.900356 0.0663016 7.72776e-06)
(1.00063 -0.0285732 0.000185024)
(1.02578 -0.0385568 0.000173663)
(1.06166 -0.0768814 -0.00142652)
(1.11595 -0.0474372 -0.000777895)
(1.13527 -0.0510225 0.000938178)
(1.15087 -0.0102926 0.000724724)
(1.16524 -0.00821112 -0.000235916)
(1.15528 0.0111529 -0.000688998)
(1.12708 0.0151417 -0.00068169)
(1.11319 0.0222915 -0.000435324)
(1.11152 0.0231468 -0.000137019)
(1.07952 0.0118085 0.00010852)
(1.05235 0.0294521 0.000269204)
(1.02478 0.0242748 0.000250193)
(0.997933 0.00303604 0.000127213)
(0.951156 0.00538268 2.14531e-05)
(0.934823 0.013757 -1.89692e-05)
(0.923204 -0.0013469 -4.19036e-05)
(0.914413 -0.0187657 -5.95813e-05)
(0.865922 -0.0115982 -2.7604e-05)
(1.0042 -0.038863 -0.000549532)
(1.02149 -0.0418232 0.00283553)
(1.09001 -0.117397 -0.00324063)
(1.1584 -0.0747102 -0.0080581)
(1.187 -0.0292826 -0.000404689)
(1.21074 -0.0220323 0.00448215)
(1.20864 -0.00426388 0.0015742)
(1.19321 0.055514 -0.00165242)
(1.16074 0.0618726 -0.00206752)
(1.16875 0.0356991 -0.000754885)
(1.14459 0.0582462 0.00042476)
(1.10423 0.0986574 0.000346724)
(1.11024 0.109267 -0.000478949)
(1.06163 0.110515 -0.000906808)
(1.03906 0.124074 -0.00073363)
(1.01435 0.105981 -0.000298343)
(1.02595 0.0684146 -9.18904e-05)
(0.978961 0.0568603 -2.83075e-05)
(0.98559 0.106996 -0.000107513)
(0.962614 0.106593 -0.000121123)
(1.02436 -0.0622077 -0.00379885)
(1.02316 -0.111554 0.0106069)
(1.10634 -0.222179 0.00226066)
(1.23603 -0.12944 -0.0224022)
(1.32865 -0.0918653 -0.0196922)
(1.30556 -0.0173109 -0.00406397)
(1.29306 -0.0106835 0.0111974)
(1.27035 0.0655482 0.00355225)
(1.27741 0.00873092 -0.00452641)
(1.22336 0.0364029 -0.00816331)
(1.16667 0.0750974 -0.00577162)
(1.15368 0.0246862 -0.000289928)
(1.15477 0.060519 0.00328711)
(1.10447 0.0798005 0.00297882)
(1.06655 0.0373897 0.00128219)
(1.03111 0.00826781 0.000316471)
(0.98596 0.0358088 0.00118556)
(0.949229 0.0338076 0.00100488)
(0.983342 -0.00603392 0.000767302)
(0.953525 0.00734847 0.000713606)
(1.02797 -0.0636735 0.0026106)
(1.02048 -0.0706678 0.00996519)
(1.20196 -0.325429 -0.0176352)
(1.35246 -0.185644 -0.0207733)
(1.53666 -0.0348871 0.0115336)
(1.45506 0.000933129 0.00181996)
(1.41589 0.0264926 0.0119353)
(1.35022 0.130364 0.0365024)
(1.34547 0.111154 0.0294576)
(1.33378 0.131626 0.0045868)
(1.29594 0.124004 -0.00739593)
(1.26348 0.140894 -0.00400325)
(1.17835 0.171513 0.00527235)
(1.24621 0.182126 0.0116234)
(1.21931 0.183247 0.0125941)
(1.14074 0.176152 0.00934543)
(1.03213 0.132218 0.0014097)
(0.994433 0.0542612 -0.00439531)
(0.954137 0.102538 -0.0073705)
(0.879207 0.131014 -0.00516021)
(1.07674 -0.0914327 0.0373816)
(0.985621 -0.286922 0.00655303)
(1.41444 -0.633152 -0.00686234)
(1.61289 -0.50454 -0.0687636)
(1.68601 -0.163241 -0.054259)
(1.59867 0.197159 0.0315659)
(1.62926 0.118518 0.0154987)
(1.65103 0.155317 0.0265284)
(1.60604 -0.00904879 0.0312225)
(1.59574 0.121392 0.0120716)
(1.57524 0.0990077 -0.00481215)
(1.49348 0.0783307 -0.00738261)
(1.47585 0.0860035 -0.00378551)
(1.45406 0.0599031 -0.00022934)
(1.43577 0.128552 0.000845798)
(1.4149 0.140116 -0.00457484)
(1.41245 0.138846 -0.0063322)
(1.28074 0.0994524 0.0012034)
(1.14618 0.073894 0.00862556)
(1.06818 0.0689726 0.00631961)
(1.17322 -0.0584825 0.00771954)
(1.0145 -0.304774 0.0362021)
(1.82442 -1.00727 6.78938e-06)
(1.85992 -0.555411 0.0631566)
(1.84263 -0.0660113 0.0243366)
(1.2202 0.0277732 -0.00719023)
(1.15684 0.0974277 -0.0490435)
(1.37937 0.167045 -0.00659325)
(1.0732 0.0675858 -0.00568001)
(1.22822 0.191554 -0.0337111)
(1.31626 0.208597 -0.0163022)
(1.33992 0.22428 -0.00688353)
(1.47431 0.212839 0.00283946)
(1.42591 0.222459 0.0066979)
(1.44348 0.24548 0.00479506)
(1.43896 0.212573 0.00273233)
(1.43489 0.256365 0.000931925)
(1.45002 0.228242 0.00202972)
(1.4147 0.229136 0.00305285)
(1.402 0.199169 0.00195939)
(1.61688 -0.316738 -0.00884445)
(0.513069 -0.933258 0.193081)
(1.44719 -1.10656 -0.107964)
(-0.157473 -0.438417 -0.0490353)
(-0.115163 0.067083 -0.0108779)
(-0.357853 -0.124494 -0.05999)
(0.40289 -0.0119705 -0.0380936)
(0.449823 -0.0365275 0.00238768)
(0.50073 0.00686061 0.00457365)
(0.608619 0.0466385 0.00514297)
(0.643953 0.0809165 0.00257795)
(0.756936 0.119734 -0.00288172)
(0.818938 0.125373 -0.00437398)
(0.910342 0.142223 -0.00529798)
(1.05486 0.132818 -0.00448111)
(1.08687 0.124824 -0.00478792)
(1.24091 0.0854094 -0.00403075)
(0.895505 0.00225711 -0.0617025)
(1.82616 -0.778006 0.0283737)
(0.240155 -0.431662 -0.378833)
(-0.562412 -0.365875 0.0774576)
(0.167935 0.308083 -0.112247)
(0.110644 -0.169048 -0.0110259)
(-0.182418 -0.262261 -0.00461423)
(-0.23276 0.118389 -0.0174422)
(-0.147083 0.097794 -0.00300166)
(-0.142833 0.0587418 -0.000614576)
(-0.0682988 0.0791923 -0.000832536)
(0.0493497 0.0852873 -0.00174863)
(0.208775 0.0627071 -0.00186253)
(0.307489 0.0800803 -0.00311559)
(0.542869 0.0738764 -0.00286093)
(0.592544 0.0612608 -0.00351439)
(0.797042 0.0596607 -0.00295054)
(0.810448 0.222027 0.0325406)
(0.680494 0.300983 -0.0966748)
(0.127131 0.337303 -0.144732)
(0.0199765 -0.286195 0.129936)
(0.0966098 0.24085 0.0412746)
(-0.203107 0.244862 0.0105964)
(-0.253334 -0.0682247 0.0232195)
(-0.15913 -0.0470467 0.00546729)
(-0.137963 -0.0285598 0.00179531)
(-0.0563075 -0.0745774 0.00144917)
(0.0717684 -0.102654 0.00216188)
(0.229446 -0.0909559 0.00223852)
(0.328977 -0.109306 0.00279375)
(0.557772 -0.0961434 0.00209936)
(0.60509 -0.0764641 0.00223809)
(0.804605 -0.0668513 0.0020576)
(1.37103 0.196951 0.0230156)
(0.304221 0.166298 -0.063784)
(0.699215 1.39164 0.143185)
(-0.193036 0.144733 0.0787393)
(-0.140766 -0.0852079 -0.0231716)
(-0.273661 0.0730354 0.064507)
(0.360814 0.0152257 0.043628)
(0.414489 0.0759602 0.0132686)
(0.476515 0.0366052 0.0160847)
(0.606847 -0.0265209 0.0113619)
(0.664796 -0.0837956 0.0091787)
(0.793423 -0.139539 0.0107185)
(0.858258 -0.152001 0.00951644)
(0.94562 -0.167914 0.0077656)
(1.08066 -0.150814 0.00503229)
(1.10571 -0.136622 0.00354655)
(1.25073 -0.0905149 0.00255575)
(1.11912 0.129471 -0.00176285)
(0.913684 0.548434 -0.0399468)
(1.16828 0.600983 0.0904236)
(0.0372809 -0.0765488 0.0731529)
(1.10053 -0.0844565 -0.021343)
(1.4355 -0.19967 -0.0528716)
(1.16893 -0.13793 -0.0781062)
(1.26036 -0.202647 -0.0527505)
(1.29676 -0.175969 -0.0471161)
(1.32517 -0.19521 -0.0134252)
(1.46731 -0.20738 0.00478963)
(1.42732 -0.239342 0.0141611)
(1.44931 -0.276235 0.0171609)
(1.44645 -0.243173 0.0126092)
(1.43376 -0.281063 0.00746238)
(1.43966 -0.243875 0.00191125)
(1.39428 -0.236909 -0.00155665)
(1.38515 -0.201902 -0.0018033)
(1.06079 0.119748 0.0438551)
(1.00146 0.118006 -0.0932963)
(1.45528 0.503572 0.0243473)
(1.78202 0.327684 0.148973)
(1.9602 -0.104197 0.0196147)
(1.63012 -0.0681388 -0.000848012)
(1.61741 -0.0216834 -0.00688558)
(1.61128 -0.186642 -0.0127034)
(1.5619 -0.0627662 -0.0160399)
(1.574 -0.152176 -0.00661641)
(1.60367 -0.0852902 -0.0121024)
(1.56435 -0.0548337 -0.0131469)
(1.53143 -0.0859608 -0.00735767)
(1.48734 -0.0863516 -0.00317829)
(1.44828 -0.169783 -0.00337335)
(1.41499 -0.182535 -0.00042224)
(1.39894 -0.171918 0.000813726)
(1.25607 -0.119501 -0.00414982)
(1.1197 -0.0893602 -0.00825399)
(1.0499 -0.0788516 -0.00509204)
(1.03603 0.127653 0.0161036)
(1.0233 0.137022 -0.0143798)
(1.21381 0.325706 -0.0358222)
(1.38503 0.188714 -0.0501457)
(1.52064 0.0589939 0.00809517)
(1.45739 0.0345637 0.0187026)
(1.45488 0.0129475 0.0132253)
(1.4028 -0.103244 -0.0031237)
(1.37863 -0.11999 -9.77449e-05)
(1.36557 -0.142805 0.0197437)
(1.34985 -0.109724 0.0285644)
(1.34574 -0.109054 0.0204389)
(1.259 -0.150343 0.00445317)
(1.31161 -0.189804 -0.00928172)
(1.26192 -0.204269 -0.0145714)
(1.15906 -0.193005 -0.012458)
(1.0425 -0.140937 -0.00477816)
(1.00579 -0.0579698 0.00141278)
(0.97033 -0.106038 0.00500135)
(0.890268 -0.134382 0.0039773)
(1.0205 0.0600577 -0.000237549)
(1.04469 0.0845754 0.00201436)
(1.13983 0.175002 -0.0126892)
(1.25124 0.0970927 -0.00413819)
(1.3355 0.0955963 0.00582703)
(1.30235 0.0549624 -0.00577627)
(1.29141 0.0448761 -0.0111646)
(1.28285 -0.0626063 -0.00278891)
(1.30573 -0.0181608 0.0093147)
(1.25587 -0.0336688 0.014031)
(1.19258 -0.0650219 0.0113978)
(1.17719 -0.013343 0.00388588)
(1.18165 -0.0490025 -0.00239587)
(1.12487 -0.0749964 -0.00314935)
(1.07733 -0.0406335 -0.00101641)
(1.03514 -0.0154386 4.5803e-05)
(0.988669 -0.0448276 -0.00100634)
(0.950929 -0.0422946 -0.00104575)
(0.984806 -0.00119648 -0.000841432)
(0.955638 -0.0111264 -0.000723731)
(1.00705 0.055254 -0.00206139)
(1.02914 0.0674514 0.00186983)
(1.09716 0.120645 0.00212164)
(1.15119 0.0675435 -0.000289779)
(1.17137 0.0277683 -0.00452)
(1.20207 0.0311865 -0.00810259)
(1.21997 0.0217478 -0.00344543)
(1.21672 -0.0467981 0.00117041)
(1.18192 -0.0679715 0.00219038)
(1.18556 -0.0445328 0.000765004)
(1.16538 -0.0584852 -0.000429383)
(1.12775 -0.0932135 -0.000424869)
(1.13744 -0.104604 0.000481658)
(1.09227 -0.111424 0.00106038)
(1.06765 -0.133408 0.000940036)
(1.03761 -0.119257 0.000506889)
(1.04522 -0.0796262 0.00026691)
(0.993714 -0.0637964 0.000126862)
(0.996949 -0.113111 0.000155616)
(0.970337 -0.110958 0.000131499)
(1.00009 0.0275804 -0.000770509)
(1.03294 0.0352692 0.000687805)
(1.07157 0.0651398 0.00154103)
(1.11739 0.035622 -0.000578003)
(1.12967 0.0519808 -0.00260532)
(1.14473 0.023077 -0.00246409)
(1.16794 0.0220382 -0.000745368)
(1.16855 -0.00122495 0.00042637)
(1.142 -0.00954742 0.000912913)
(1.12408 -0.0162939 0.000795815)
(1.12116 -0.0150862 0.000424964)
(1.09187 -0.002806 4.5658e-05)
(1.06773 -0.0224418 -0.000264837)
(1.04232 -0.0206695 -0.000347793)
(1.0149 -0.00127537 -0.000223423)
(0.964229 -0.00542789 -9.04732e-05)
(0.943932 -0.0160373 -3.41918e-05)
(0.930105 -0.00116488 1.16567e-05)
(0.920934 0.0170718 3.76821e-05)
(0.87083 0.010649 1.62718e-05)
(0.999099 0.0185008 -0.000190203)
(1.025 0.0220369 0.000183545)
(1.04935 0.0342641 0.000362073)
(1.07857 0.0265945 -0.000179722)
(1.09321 0.0163749 -0.000532634)
(1.12255 0.00901694 -0.000438498)
(1.12299 -0.0020293 -8.65401e-05)
(1.12786 -0.0142361 8.28714e-05)
(1.1198 -0.0258467 6.51762e-05)
(1.10363 -0.024054 -2.36536e-06)
(1.09081 -0.0320003 -1.83684e-05)
(1.07391 -0.0423864 2.20325e-05)
(1.06559 -0.0603396 6.93529e-05)
(1.02008 -0.0663905 7.90259e-05)
(1.00865 -0.0687486 5.57607e-05)
(0.981094 -0.0577135 2.26808e-05)
(0.971634 -0.0492044 1.52485e-06)
(0.932588 -0.0471046 -8.02767e-06)
(0.940545 -0.0670523 -1.13636e-05)
(0.90804 -0.0687793 -5.2759e-06)
(0.999045 0.00452596 -3.76767e-05)
(1.02307 0.00511288 3.88958e-05)
(1.04081 0.0118361 7.62387e-05)
(1.07056 0.00535563 -5.04029e-05)
(1.08544 0.0121799 -0.000135954)
(1.10842 0.00711288 -0.000101884)
(1.11367 0.00898887 -1.92559e-05)
(1.11536 0.00666998 2.65418e-05)
(1.10463 0.00592313 3.66505e-05)
(1.09113 0.00346394 2.58198e-05)
(1.08082 0.00697802 1.04682e-05)
(1.05902 0.0140786 6.8191e-08)
(1.04692 0.0201628 -6.69554e-06)
(1.0104 0.0228164 -6.47067e-06)
(0.993846 0.026866 -2.63948e-06)
(0.958114 0.0214431 -5.35332e-07)
(0.949447 0.0194966 -2.05672e-07)
(0.920948 0.0235174 -4.17574e-08)
(0.919803 0.0354286 2.99292e-07)
(0.880736 0.0366711 2.06264e-07)
(0.998834 -0.00516016 6.70722e-06)
(1.01995 -0.00574994 -6.53017e-06)
(1.03802 -0.0135829 -8.26448e-06)
(1.07122 -0.00650298 -1.11964e-05)
(1.08877 -0.0107654 -3.37205e-06)
(1.1099 -0.00354751 -1.27305e-05)
(1.10986 -0.00515555 -4.16062e-06)
(1.10644 -0.00206179 -7.7024e-06)
(1.09355 -0.000606254 -1.28847e-05)
(1.08047 0.00253085 -1.46873e-05)
(1.06958 -0.000947035 -1.03785e-05)
(1.04583 -0.00868629 -1.12151e-05)
(1.03115 -0.015428 -2.19234e-06)
(0.993235 -0.0185738 2.94915e-06)
(0.977015 -0.0229961 8.13336e-06)
(0.943272 -0.0184938 6.58133e-06)
(0.936849 -0.0176415 3.65704e-06)
(0.910822 -0.0226501 -5.50365e-07)
(0.910696 -0.0346655 -1.44398e-06)
(0.873799 -0.0360371 -1.45896e-06)
(0.998492 -0.0144544 1.55022e-05)
(1.02146 -0.0163865 -7.48948e-06)
(1.04637 -0.0351281 -8.62383e-05)
(1.08161 -0.0307043 -3.87387e-05)
(1.10008 -0.0178214 7.97609e-06)
(1.12484 -0.00679 -2.61343e-05)
(1.11755 0.00686046 -2.16814e-05)
(1.11736 0.0154897 -2.44727e-05)
(1.10687 0.0217447 -4.3753e-05)
(1.091 0.018172 -6.29906e-05)
(1.07716 0.0280708 -7.13078e-06)
(1.0576 0.040775 9.08897e-06)
(1.04601 0.0590247 -6.93782e-05)
(0.99999 0.0632933 -0.000111654)
(0.98958 0.0631464 -5.71926e-05)
(0.963726 0.0513002 1.94381e-05)
(0.956423 0.0435018 2.6857e-05)
(0.920825 0.0432087 1.70965e-06)
(0.930528 0.0635468 -1.41722e-05)
(0.900356 0.0663081 -1.38493e-05)
(1.00052 -0.0285068 2.7043e-05)
(1.02599 -0.0384517 0.000184741)
(1.06185 -0.0777622 -0.000622448)
(1.11536 -0.0479278 -0.000342754)
(1.13509 -0.0510493 0.000149831)
(1.15119 -0.0103916 -2.2158e-05)
(1.16542 -0.00855324 -0.000270484)
(1.15532 0.0109237 -0.000340503)
(1.12731 0.014709 -0.000296468)
(1.11377 0.0217219 -0.000229243)
(1.11215 0.023107 -0.000322326)
(1.07968 0.0119488 -0.000324715)
(1.05206 0.0288118 3.7601e-05)
(1.02448 0.0231777 0.000297385)
(0.997787 0.00247272 0.000224187)
(0.951146 0.00554887 3.22784e-05)
(0.934877 0.0139926 -3.17805e-05)
(0.923256 -0.00134424 -1.28747e-05)
(0.914463 -0.0189008 -6.34162e-06)
(0.865954 -0.0117209 3.55425e-07)
(1.00354 -0.0388491 -0.000665485)
(1.02195 -0.0401117 0.00205414)
(1.09295 -0.12243 -0.00126039)
(1.15733 -0.0775851 -0.0045992)
(1.18324 -0.0289943 -0.000790785)
(1.21068 -0.0227697 0.00109554)
(1.21156 -0.00649953 -0.00060806)
(1.19567 0.0522513 -0.00085941)
(1.164 0.058498 -0.000879619)
(1.17074 0.0330404 -0.0013462)
(1.14488 0.0554206 -0.000445248)
(1.10531 0.0963764 0.000602351)
(1.11175 0.109906 -0.000256215)
(1.06191 0.113156 -0.00124456)
(1.03889 0.125918 -0.00074507)
(1.01496 0.106179 0.000219806)
(1.02698 0.0680749 0.000280076)
(0.97949 0.0567352 1.79113e-05)
(0.986027 0.106963 0.000139894)
(0.962809 0.106655 0.000103788)
(1.02825 -0.0678725 -0.00484248)
(1.01895 -0.0959811 0.00849216)
(1.10521 -0.232262 0.00644833)
(1.25786 -0.167271 -0.0129251)
(1.33132 -0.0986823 -0.015848)
(1.29521 -0.0140599 -0.00301066)
(1.30401 -0.0207633 0.0046747)
(1.28799 0.0575253 -0.00242911)
(1.28541 0.0017496 -0.00415805)
(1.2362 0.0265798 -0.00225608)
(1.18414 0.0717904 -0.0030515)
(1.15613 0.0293054 -0.0037388)
(1.14887 0.0584443 -0.00051516)
(1.10363 0.068515 0.00227588)
(1.06752 0.0294754 0.00179224)
(1.02687 0.00939562 5.02653e-05)
(0.976458 0.038468 0.000565296)
(0.944297 0.034313 0.00047255)
(0.975944 -0.00457183 -0.000355107)
(0.946808 0.00837615 3.452e-05)
(1.05048 -0.101955 -0.00659776)
(1.00488 0.00288845 0.0118039)
(1.17126 -0.292373 -0.00227348)
(1.41216 -0.303544 0.00112478)
(1.62547 -0.152245 -0.00679741)
(1.47933 -0.0317982 -0.0239724)
(1.38781 0.0400189 -0.00393626)
(1.36654 0.101267 0.0189536)
(1.40774 0.0680908 0.012618)
(1.37021 0.0979995 -0.00256318)
(1.29283 0.1023 -0.00189946)
(1.25732 0.124087 0.00284113)
(1.16546 0.169525 0.00217717)
(1.19932 0.198601 0.00252909)
(1.16265 0.203648 0.00544011)
(1.1167 0.185224 0.00816837)
(1.05971 0.138419 0.00404886)
(1.02417 0.0572836 -0.000233787)
(0.999132 0.10095 -0.000887487)
(0.919677 0.131206 -0.00165404)
(1.09268 -0.14259 0.00525734)
(0.978948 -0.166929 0.0224236)
(1.36786 -0.668138 -0.0316679)
(1.59189 -0.617389 -0.0437034)
(1.70115 -0.129462 -0.00642534)
(1.68305 0.0719056 -0.000581263)
(1.60626 0.0650165 -0.00913446)
(1.56827 0.230406 0.0178588)
(1.56442 0.066986 0.0290304)
(1.59921 0.135422 0.0145708)
(1.56743 0.105859 0.00071842)
(1.47623 0.11209 -0.001286)
(1.47052 0.13299 -0.000953006)
(1.46206 0.104239 -0.00385912)
(1.43064 0.149298 -0.00576253)
(1.39182 0.145393 -0.00905684)
(1.32 0.12995 -0.00836066)
(1.16827 0.0780837 0.00348936)
(1.07934 0.0549372 0.00654868)
(1.02167 0.0568579 0.00187477)
(0.956707 -0.0152016 0.0222317)
(1.26525 -0.0726488 -0.0279523)
(1.81339 -0.953727 -0.122489)