/*--------------------------------*- C++ -*----------------------------------*\
  =========                 |
  \\      /  F ield         | OpenFOAM: The Open Source CFD Toolbox
   \\    /   O peration     | Website:  https://openfoam.org
    \\  /    A nd           | Version:  8
     \\/     M anipulation  |
\*---------------------------------------------------------------------------*/
FoamFile
{
    version     2.0;
    format      ascii;
    class       surfaceScalarField;
    location    "50.5";
    object      phi;
}
// * * * * * * * * * * * * * * * * * * * * * * * * * * * * * * * * * * * * * //

dimensions      [0 3 -1 0 0 0 0];

internalField   nonuniform List<scalar> 
22960
(
-2.02541e-07
2.02488e-07
-8.14373e-07
6.11832e-07
-1.6137e-06
7.99326e-07
-2.48734e-06
8.73646e-07
-3.38236e-06
8.95018e-07
-4.28078e-06
8.98417e-07
-5.17888e-06
8.98103e-07
-6.07684e-06
8.97959e-07
-6.97545e-06
8.98607e-07
-7.87535e-06
8.99907e-07
-8.77701e-06
9.01651e-07
-9.68071e-06
9.03701e-07
-1.05867e-05
9.05976e-07
-1.14951e-05
9.08428e-07
-1.24061e-05
9.11022e-07
-1.33199e-05
9.13728e-07
-1.42364e-05
9.1652e-07
-1.51558e-05
9.19372e-07
-1.6078e-05
9.22256e-07
-1.70032e-05
9.25143e-07
-1.79312e-05
9.28004e-07
-1.8862e-05
9.30805e-07
-1.97955e-05
9.33514e-07
-2.07316e-05
9.36096e-07
-2.16701e-05
9.38511e-07
-2.26108e-05
9.40721e-07
-2.35535e-05
9.42685e-07
-2.44978e-05
9.44359e-07
-2.54435e-05
9.45699e-07
-2.63902e-05
9.46659e-07
-2.73374e-05
9.47191e-07
-2.82846e-05
9.47248e-07
-2.92314e-05
9.4678e-07
-3.01772e-05
9.45738e-07
-3.11212e-05
9.44075e-07
-3.2063e-05
9.41742e-07
-3.30017e-05
9.38693e-07
-3.39366e-05
9.34884e-07
-3.48668e-05
9.30273e-07
-3.57916e-05
9.24822e-07
-3.67101e-05
9.18491e-07
-3.76214e-05
9.11244e-07
-3.85244e-05
9.03038e-07
-3.94182e-05
8.93814e-07
-4.03017e-05
8.83481e-07
-4.11736e-05
8.7187e-07
-4.20322e-05
8.58653e-07
-4.28754e-05
8.43177e-07
-4.36995e-05
8.2411e-07
-4.44983e-05
7.98758e-07
-4.52601e-05
7.6183e-07
-4.59639e-05
7.0382e-07
-4.65742e-05
6.10251e-07
-4.70384e-05
4.64245e-07
-4.73049e-05
2.66491e-07
-4.74821e-05
1.77161e-07
-4.8281e-05
7.98966e-07
-5.10116e-05
2.73057e-06
-6.42916e-05
1.328e-05
3.17996e-05
-9.60912e-05
-6.28e-07
8.30488e-07
-1.93482e-06
1.91866e-06
-3.56424e-06
2.42875e-06
-5.33405e-06
2.64345e-06
-7.15772e-06
2.71869e-06
-9.00019e-06
2.74089e-06
-1.08491e-05
2.74704e-06
-1.2701e-05
2.74986e-06
-1.45553e-05
2.75289e-06
-1.64122e-05
2.75677e-06
-1.8272e-05
2.76144e-06
-2.0135e-05
2.76675e-06
-2.20016e-05
2.77255e-06
-2.38719e-05
2.77875e-06
-2.57462e-05
2.78527e-06
-2.76245e-05
2.79203e-06
-2.95069e-05
2.79896e-06
-3.13935e-05
2.80598e-06
-3.32843e-05
2.81303e-06
-3.51791e-05
2.82e-06
-3.7078e-05
2.82684e-06
-3.89806e-05
2.83343e-06
-4.08868e-05
2.8397e-06
-4.27962e-05
2.84553e-06
-4.47086e-05
2.85084e-06
-4.66233e-05
2.8555e-06
-4.85401e-05
2.85941e-06
-5.04581e-05
2.86244e-06
-5.23769e-05
2.86449e-06
-5.42957e-05
2.86542e-06
-5.62136e-05
2.86512e-06
-5.81298e-05
2.86346e-06
-6.00434e-05
2.86033e-06
-6.19532e-05
2.8556e-06
-6.38583e-05
2.84918e-06
-6.57576e-05
2.84096e-06
-6.76498e-05
2.83088e-06
-6.95337e-05
2.81886e-06
-7.14083e-05
2.80488e-06
-7.32725e-05
2.78895e-06
-7.51251e-05
2.77109e-06
-7.69652e-05
2.75141e-06
-7.87923e-05
2.73007e-06
-8.06057e-05
2.70727e-06
-8.24055e-05
2.6833e-06
-8.41922e-05
2.6585e-06
-8.59667e-05
2.6332e-06
-8.77312e-05
2.60766e-06
-8.94889e-05
2.58183e-06
-9.12453e-05
2.55515e-06
-9.301e-05
2.52653e-06
-9.48021e-05
2.49596e-06
-9.66633e-05
2.47144e-06
-9.86898e-05
2.49068e-06
-0.000101107
2.6837e-06
-0.000104375
3.44474e-06
-0.000109236
5.66078e-06
-0.000117116
1.06103e-05
-0.000127515
2.36791e-05
4.13089e-05
-0.000137025
-8.39841e-07
1.67033e-06
-2.50103e-06
3.57985e-06
-4.5462e-06
4.47392e-06
-6.75492e-06
4.85217e-06
-9.02767e-06
4.99144e-06
-1.13239e-05
5.03711e-06
-1.36287e-05
5.05186e-06
-1.59375e-05
5.0586e-06
-1.8249e-05
5.06438e-06
-2.05631e-05
5.07092e-06
-2.28801e-05
5.07842e-06
-2.52001e-05
5.08675e-06
-2.75233e-05
5.09578e-06
-2.98499e-05
5.10534e-06
-3.218e-05
5.11533e-06
-3.45135e-05
5.1256e-06
-3.68506e-05
5.13605e-06
-3.91912e-05
5.14654e-06
-4.15351e-05
5.15694e-06
-4.38822e-05
5.16712e-06
-4.62323e-05
5.17692e-06
-4.85851e-05
5.1862e-06
-5.09401e-05
5.19478e-06
-5.32971e-05
5.2025e-06
-5.56554e-05
5.20918e-06
-5.80146e-05
5.21463e-06
-6.03738e-05
5.21866e-06
-6.27324e-05
5.22107e-06
-6.50896e-05
5.22166e-06
-6.74444e-05
5.22022e-06
-6.97959e-05
5.21656e-06
-7.21429e-05
5.21048e-06
-7.44843e-05
5.20179e-06
-7.68191e-05
5.19032e-06
-7.91458e-05
5.17591e-06
-8.14633e-05
5.15844e-06
-8.37702e-05
5.13783e-06
-8.60654e-05
5.11405e-06
-8.83477e-05
5.08713e-06
-9.06159e-05
5.05721e-06
-9.28694e-05
5.02453e-06
-9.51074e-05
4.98947e-06
-9.733e-05
4.9526e-06
-9.95374e-05
4.91473e-06
-0.000101731
4.87694e-06
-0.000103913
4.8407e-06
-0.000106088
4.80793e-06
-0.000108261
4.78115e-06
-0.000110443
4.76377e-06
-0.000112649
4.76078e-06
-0.000114903
4.78063e-06
-0.000117248
4.84048e-06
-0.000119756
4.97936e-06
-0.000122556
5.29062e-06
-0.000125865
5.99283e-06
-0.000129964
7.54428e-06
-0.000135047
1.07437e-05
-0.000141282
1.68449e-05
-0.000145932
2.83291e-05
4.24124e-05
-0.000147035
-9.33537e-07
2.60387e-06
-2.76162e-06
5.40793e-06
-4.99792e-06
6.71022e-06
-7.40337e-06
7.25762e-06
-9.87429e-06
7.46235e-06
-1.23694e-05
7.53218e-06
-1.48736e-05
7.5561e-06
-1.73821e-05
7.56713e-06
-1.98935e-05
7.57578e-06
-2.24075e-05
7.58487e-06
-2.4924e-05
7.59492e-06
-2.74431e-05
7.60588e-06
-2.99649e-05
7.61762e-06
-3.24896e-05
7.62996e-06
-3.5017e-05
7.64273e-06
-3.75471e-05
7.65578e-06
-4.008e-05
7.66894e-06
-4.26155e-05
7.68201e-06
-4.51534e-05
7.69482e-06
-4.76934e-05
7.70716e-06
-5.02353e-05
7.71883e-06
-5.27787e-05
7.7296e-06
-5.53232e-05
7.73924e-06
-5.78682e-05
7.7475e-06
-6.04132e-05
7.75413e-06
-6.29574e-05
7.75885e-06
-6.55001e-05
7.7614e-06
-6.80406e-05
7.7615e-06
-7.05778e-05
7.75885e-06
-7.31107e-05
7.75317e-06
-7.56383e-05
7.74419e-06
-7.81595e-05
7.73162e-06
-8.06729e-05
7.71522e-06
-8.31773e-05
7.69476e-06
-8.56715e-05
7.67005e-06
-8.8154e-05
7.64094e-06
-9.06235e-05
7.60736e-06
-9.30788e-05
7.56934e-06
-9.55187e-05
7.52701e-06
-9.79421e-05
7.48066e-06
-0.000100348
7.43079e-06
-0.000102737
7.37816e-06
-0.000105108
7.32387e-06
-0.000107463
7.26947e-06
-0.000109803
7.2171e-06
-0.000112132
7.16972e-06
-0.000114456
7.13139e-06
-0.000116782
7.10779e-06
-0.000119126
7.10708e-06
-0.000121506
7.14153e-06
-0.000123957
7.23085e-06
-0.000126525
7.40903e-06
-0.000129284
7.73846e-06
-0.000132331
8.33778e-06
-0.000135768
9.42988e-06
-0.000139622
1.13983e-05
-0.000143697
1.48184e-05
-0.000147328
2.04756e-05
-0.000148169
2.91698e-05
3.90746e-05
-0.000144831
-9.66035e-07
3.5699e-06
-2.86403e-06
7.30592e-06
-5.1811e-06
9.02729e-06
-7.66865e-06
9.74517e-06
-1.02209e-05
1.00146e-05
-1.27965e-05
1.01078e-05
-1.53809e-05
1.01405e-05
-1.79694e-05
1.01557e-05
-2.05608e-05
1.01671e-05
-2.31546e-05
1.01787e-05
-2.57508e-05
1.01911e-05
-2.83494e-05
1.02045e-05
-3.09504e-05
1.02187e-05
-3.35539e-05
1.02335e-05
-3.61598e-05
1.02487e-05
-3.87682e-05
1.02641e-05
-4.13787e-05
1.02795e-05
-4.39914e-05
1.02947e-05
-4.6606e-05
1.03094e-05
-4.92223e-05
1.03234e-05
-5.18398e-05
1.03364e-05
-5.44582e-05
1.0348e-05
-5.7077e-05
1.03581e-05
-5.96957e-05
1.03662e-05
-6.23137e-05
1.03721e-05
-6.49301e-05
1.03753e-05
-6.75443e-05
1.03756e-05
-7.01553e-05
1.03725e-05
-7.27622e-05
1.03657e-05
-7.53639e-05
1.03549e-05
-7.79593e-05
1.03396e-05
-8.05472e-05
1.03195e-05
-8.31263e-05
1.02943e-05
-8.56952e-05
1.02637e-05
-8.82527e-05
1.02275e-05
-9.07972e-05
1.01854e-05
-9.33274e-05
1.01375e-05
-9.58418e-05
1.00838e-05
-9.83393e-05
1.00245e-05
-0.000100819
9.96007e-06
-0.000103279
9.89122e-06
-0.00010572
9.81908e-06
-0.000108141
9.74524e-06
-0.000110544
9.67196e-06
-0.000112929
9.60237e-06
-0.0001153
9.5408e-06
-0.000117662
9.49324e-06
-0.000120022
9.4681e-06
-0.000122393
9.47738e-06
-0.00012479
9.5387e-06
-0.000127238
9.67885e-06
-0.000129769
9.94021e-06
-0.000132423
1.03919e-05
-0.000135233
1.11485e-05
-0.000138198
1.23942e-05
-0.000141201
1.44015e-05
-0.000143908
1.75258e-05
-0.000145582
2.21496e-05
-0.000144734
2.8322e-05
3.50389e-05
-0.000140699
-9.73877e-07
4.54378e-06
-2.89747e-06
9.22951e-06
-5.24519e-06
1.1375e-05
-7.76404e-06
1.2264e-05
-1.03468e-05
1.25973e-05
-1.2952e-05
1.2713e-05
-1.55656e-05
1.27541e-05
-1.81831e-05
1.27732e-05
-2.08033e-05
1.27873e-05
-2.34259e-05
1.28013e-05
-2.60509e-05
1.28161e-05
-2.86783e-05
1.28319e-05
-3.13081e-05
1.28485e-05
-3.39404e-05
1.28657e-05
-3.6575e-05
1.28833e-05
-3.92119e-05
1.2901e-05
-4.1851e-05
1.29187e-05
-4.44922e-05
1.29359e-05
-4.71352e-05
1.29524e-05
-4.97797e-05
1.29679e-05
-5.24255e-05
1.29821e-05
-5.5072e-05
1.29945e-05
-5.77188e-05
1.30049e-05
-6.03654e-05
1.30128e-05
-6.30111e-05
1.30177e-05
-6.56552e-05
1.30194e-05
-6.82968e-05
1.30172e-05
-7.09352e-05
1.30108e-05
-7.35692e-05
1.29998e-05
-7.61979e-05
1.29835e-05
-7.882e-05
1.29617e-05
-8.14343e-05
1.29338e-05
-8.40395e-05
1.28995e-05
-8.66342e-05
1.28584e-05
-8.92169e-05
1.28102e-05
-9.17861e-05
1.27546e-05
-9.43403e-05
1.26917e-05
-9.6878e-05
1.26215e-05
-9.93976e-05
1.25442e-05
-0.000101898
1.24604e-05
-0.000104378
1.23709e-05
-0.000106836
1.22773e-05
-0.000109272
1.21813e-05
-0.000111686
1.20859e-05
-0.000114078
1.19948e-05
-0.000116451
1.19133e-05
-0.000118806
1.18488e-05
-0.000121149
1.18112e-05
-0.000123487
1.18149e-05
-0.000125828
1.18798e-05
-0.000128184
1.2035e-05
-0.000130567
1.23232e-05
-0.000132983
1.28079e-05
-0.000135417
1.35829e-05
-0.000137804
1.47804e-05
-0.000139973
1.65708e-05
-0.000141589
1.91416e-05
-0.000142059
2.262e-05
-0.000140588
2.68513e-05
3.12372e-05
-0.000136787
-9.73883e-07
5.51766e-06
-2.90469e-06
1.11603e-05
-5.26199e-06
1.37323e-05
-7.79111e-06
1.47931e-05
-1.03838e-05
1.519e-05
-1.29985e-05
1.53278e-05
-1.56213e-05
1.53768e-05
-1.82478e-05
1.53997e-05
-2.0877e-05
1.54165e-05
-2.35086e-05
1.54329e-05
-2.61427e-05
1.54502e-05
-2.87794e-05
1.54685e-05
-3.14185e-05
1.54876e-05
-3.40602e-05
1.55074e-05
-3.67044e-05
1.55275e-05
-3.93511e-05
1.55477e-05
-4.20002e-05
1.55677e-05
-4.46514e-05
1.55871e-05
-4.73047e-05
1.56057e-05
-4.99597e-05
1.56229e-05
-5.26161e-05
1.56385e-05
-5.52734e-05
1.56519e-05
-5.79314e-05
1.56628e-05
-6.05893e-05
1.56707e-05
-6.32465e-05
1.5675e-05
-6.59024e-05
1.56753e-05
-6.85561e-05
1.56709e-05
-7.12067e-05
1.56615e-05
-7.38533e-05
1.56463e-05
-7.64947e-05
1.5625e-05
-7.91298e-05
1.55968e-05
-8.17572e-05
1.55613e-05
-8.43756e-05
1.55179e-05
-8.69836e-05
1.54663e-05
-8.95795e-05
1.54061e-05
-9.21617e-05
1.53369e-05
-9.47286e-05
1.52586e-05
-9.72785e-05
1.51713e-05
-9.98095e-05
1.50752e-05
-0.00010232
1.49709e-05
-0.000104808
1.48593e-05
-0.000107273
1.47419e-05
-0.000109713
1.46209e-05
-0.000112126
1.44993e-05
-0.000114512
1.43812e-05
-0.000116872
1.42724e-05
-0.000119203
1.41807e-05
-0.000121509
1.41167e-05
-0.000123789
1.40948e-05
-0.000126044
1.41349e-05
-0.000128273
1.42643e-05
-0.000130471
1.45206e-05
-0.000132618
1.49552e-05
-0.000134672
1.56365e-05
-0.000136541
1.66502e-05
-0.000138062
1.80911e-05
-0.000138959
2.00391e-05
-0.000138836
2.2497e-05
-0.000137269
2.52839e-05
2.80075e-05
-0.000134039
-9.71845e-07
6.48951e-06
-2.90294e-06
1.30914e-05
-5.26166e-06
1.6091e-05
-7.79291e-06
1.73244e-05
-1.03878e-05
1.77848e-05
-1.30046e-05
1.79446e-05
-1.56292e-05
1.80014e-05
-1.82575e-05
1.8028e-05
-2.08886e-05
1.80476e-05
-2.35222e-05
1.80666e-05
-2.61585e-05
1.80865e-05
-2.87974e-05
1.81074e-05
-3.1439e-05
1.81293e-05
-3.40834e-05
1.81518e-05
-3.67306e-05
1.81747e-05
-3.93805e-05
1.81976e-05
-4.20331e-05
1.82202e-05
-4.46881e-05
1.82422e-05
-4.73455e-05
1.82631e-05
-5.0005e-05
1.82824e-05
-5.26662e-05
1.82997e-05
-5.53289e-05
1.83146e-05
-5.79924e-05
1.83264e-05
-6.06564e-05
1.83347e-05
-6.33202e-05
1.83388e-05
-6.59831e-05
1.83381e-05
-6.86443e-05
1.83321e-05
-7.13029e-05
1.83201e-05
-7.39579e-05
1.83013e-05
-7.66082e-05
1.82753e-05
-7.92526e-05
1.82412e-05
-8.18898e-05
1.81984e-05
-8.45183e-05
1.81465e-05
-8.71366e-05
1.80846e-05
-8.9743e-05
1.80125e-05
-9.23359e-05
1.79297e-05
-9.49132e-05
1.7836e-05
-9.74731e-05
1.77312e-05
-0.000100014
1.76156e-05
-0.000102532
1.74897e-05
-0.000105027
1.73543e-05
-0.000107496
1.7211e-05
-0.000109937
1.70617e-05
-0.000112347
1.69095e-05
-0.000114725
1.67586e-05
-0.000117067
1.66144e-05
-0.000119371
1.64847e-05
-0.000121633
1.63793e-05
-0.00012385
1.63118e-05
-0.000126015
1.62997e-05
-0.000128117
1.63662e-05
-0.000130138
1.65413e-05
-0.000132045
1.68627e-05
-0.000133785
1.7376e-05
-0.000135266
1.8131e-05
-0.000136347
1.91724e-05
-0.000136827
2.05191e-05
-0.000136455
2.21251e-05
-0.000135004
2.3833e-05
2.53702e-05
-0.000132367
-9.69414e-07
7.45892e-06
-2.8983e-06
1.50203e-05
-5.25542e-06
1.84482e-05
-7.78574e-06
1.98547e-05
-1.03799e-05
2.0379e-05
-1.2996e-05
2.05607e-05
-1.562e-05
2.06254e-05
-1.82477e-05
2.06558e-05
-2.08783e-05
2.06781e-05
-2.35115e-05
2.06998e-05
-2.61475e-05
2.07225e-05
-2.87864e-05
2.07463e-05
-3.14283e-05
2.07712e-05
-3.40732e-05
2.07967e-05
-3.67212e-05
2.08227e-05
-3.93723e-05
2.08487e-05
-4.20264e-05
2.08743e-05
-4.46834e-05
2.08992e-05
-4.73431e-05
2.09228e-05
-5.00054e-05
2.09447e-05
-5.26699e-05
2.09642e-05
-5.53363e-05
2.0981e-05
-5.80042e-05
2.09943e-05
-6.06731e-05
2.10035e-05
-6.33424e-05
2.1008e-05
-6.60113e-05
2.10071e-05
-6.86792e-05
2.1e-05
-7.13451e-05
2.0986e-05
-7.4008e-05
2.09643e-05
-7.66669e-05
2.09341e-05
-7.93204e-05
2.08947e-05
-8.19674e-05
2.08454e-05
-8.46062e-05
2.07852e-05
-8.72352e-05
2.07137e-05
-8.98527e-05
2.063e-05
-9.24568e-05
2.05338e-05
-9.50454e-05
2.04246e-05
-9.76163e-05
2.03021e-05
-0.000100167
2.01665e-05
-0.000102696
2.0018e-05
-0.000105199
1.98573e-05
-0.000107673
1.96857e-05
-0.000110117
1.95051e-05
-0.000112525
1.93181e-05
-0.000114895
1.91284e-05
-0.000117222
1.89412e-05
-0.0001195
1.87631e-05
-0.000121724
1.86028e-05
-0.000123884
1.84717e-05
-0.000125968
1.83842e-05
-0.00012796
1.83583e-05
-0.000129835
1.8416e-05
-0.000131555
1.85825e-05
-0.000133064
1.88851e-05
-0.000134282
1.93487e-05
-0.000135096
1.99871e-05
-0.000135366
2.07888e-05
-0.000134935
2.16946e-05
-0.000133681
2.25784e-05
2.32489e-05
-0.00013156
-9.66908e-07
8.42583e-06
-2.8926e-06
1.6946e-05
-5.24694e-06
2.08025e-05
-7.77506e-06
2.23828e-05
-1.03673e-05
2.29713e-05
-1.29817e-05
2.31751e-05
-1.56041e-05
2.32478e-05
-1.82303e-05
2.3282e-05
-2.08594e-05
2.33072e-05
-2.34914e-05
2.33318e-05
-2.61264e-05
2.33575e-05
-2.87646e-05
2.33845e-05
-3.1406e-05
2.34126e-05
-3.40508e-05
2.34415e-05
-3.6699e-05
2.34709e-05
-3.93507e-05
2.35004e-05
-4.20058e-05
2.35294e-05
-4.46643e-05
2.35577e-05
-4.7326e-05
2.35845e-05
-4.99908e-05
2.36094e-05
-5.26583e-05
2.36318e-05
-5.53284e-05
2.36511e-05
-5.80006e-05
2.36665e-05
-6.06744e-05
2.36774e-05
-6.33493e-05
2.36829e-05
-6.60246e-05
2.36824e-05
-6.86995e-05
2.36749e-05
-7.13733e-05
2.36597e-05
-7.40448e-05
2.36358e-05
-7.6713e-05
2.36024e-05
-7.93767e-05
2.35584e-05
-8.20345e-05
2.35031e-05
-8.46848e-05
2.34355e-05
-8.73259e-05
2.33548e-05
-8.99561e-05
2.32602e-05
-9.25732e-05
2.31509e-05
-9.5175e-05
2.30264e-05
-9.77591e-05
2.28862e-05
-0.000100323
2.27302e-05
-0.000102863
2.25583e-05
-0.000105377
2.2371e-05
-0.00010786
2.21693e-05
-0.00011031
2.19544e-05
-0.00011272
2.17287e-05
-0.000115087
2.14952e-05
-0.000117404
2.1258e-05
-0.000119663
2.10225e-05
-0.000121856
2.07959e-05
-0.000123971
2.05868e-05
-0.000125993
2.04061e-05
-0.000127902
2.02666e-05
-0.000129668
2.01829e-05
-0.000131256
2.01701e-05
-0.000132613
2.0242e-05
-0.000133671
2.04072e-05
-0.000134347
2.06621e-05
-0.00013454
2.09821e-05
-0.000134155
2.13097e-05
-0.000133124
2.1547e-05
2.15594e-05
-0.000131434
-9.64289e-07
9.39012e-06
-2.88627e-06
1.8868e-05
-5.23721e-06
2.31534e-05
-7.76248e-06
2.49081e-05
-1.03523e-05
2.55611e-05
-1.29644e-05
2.57872e-05
-1.55846e-05
2.5868e-05
-1.82089e-05
2.59062e-05
-2.08362e-05
2.59346e-05
-2.34666e-05
2.59622e-05
-2.61002e-05
2.59911e-05
-2.87373e-05
2.60216e-05
-3.1378e-05
2.60533e-05
-3.40224e-05
2.60859e-05
-3.66707e-05
2.61192e-05
-3.93228e-05
2.61525e-05
-4.19788e-05
2.61855e-05
-4.46387e-05
2.62176e-05
-4.73024e-05
2.62482e-05
-4.99698e-05
2.62768e-05
-5.26406e-05
2.63026e-05
-5.53146e-05
2.6325e-05
-5.79913e-05
2.63433e-05
-6.06705e-05
2.63565e-05
-6.33515e-05
2.63639e-05
-6.60338e-05
2.63647e-05
-6.87166e-05
2.63577e-05
-7.1399e-05
2.63421e-05
-7.40802e-05
2.6317e-05
-7.67589e-05
2.62811e-05
-7.9434e-05
2.62335e-05
-8.2104e-05
2.61732e-05
-8.47675e-05
2.6099e-05
-8.74225e-05
2.60099e-05
-9.00673e-05
2.59049e-05
-9.26996e-05
2.57832e-05
-9.53169e-05
2.56438e-05
-9.79168e-05
2.5486e-05
-0.000100496
2.53094e-05
-0.000103052
2.51137e-05
-0.000105579
2.48989e-05
-0.000108076
2.46655e-05
-0.000110535
2.44143e-05
-0.000112953
2.41467e-05
-0.000115323
2.38651e-05
-0.000117638
2.35724e-05
-0.000119888
2.32725e-05
-0.000122063
2.29706e-05
-0.000124149
2.26729e-05
-0.000126129
2.23865e-05
-0.000127982
2.21196e-05
-0.00012968
2.18806e-05
-0.000131187
2.16769e-05
-0.000132458
2.15129e-05
-0.000133437
2.1387e-05
-0.000134062
2.12869e-05
-0.000134264
2.11839e-05
-0.000133982
2.10275e-05
-0.000133177
2.07425e-05
2.02341e-05
-0.000131852
-9.61473e-07
1.03516e-05
-2.87931e-06
2.07858e-05
-5.22638e-06
2.55005e-05
-7.74835e-06
2.74301e-05
-1.03352e-05
2.8148e-05
-1.29447e-05
2.83967e-05
-1.55624e-05
2.84857e-05
-1.81843e-05
2.85281e-05
-2.08095e-05
2.85598e-05
-2.34381e-05
2.85908e-05
-2.60701e-05
2.86232e-05
-2.87059e-05
2.86574e-05
-3.13457e-05
2.8693e-05
-3.39896e-05
2.87298e-05
-3.66377e-05
2.87673e-05
-3.92902e-05
2.8805e-05
-4.19472e-05
2.88424e-05
-4.46086e-05
2.8879e-05
-4.72744e-05
2.8914e-05
-4.99445e-05
2.89469e-05
-5.26188e-05
2.89769e-05
-5.52969e-05
2.90032e-05
-5.79787e-05
2.90251e-05
-6.06638e-05
2.90415e-05
-6.33515e-05
2.90517e-05
-6.60415e-05
2.90546e-05
-6.87329e-05
2.90491e-05
-7.1425e-05
2.90342e-05
-7.41168e-05
2.90088e-05
-7.68072e-05
2.89716e-05
-7.94951e-05
2.89214e-05
-8.2179e-05
2.88571e-05
-8.48573e-05
2.87773e-05
-8.75282e-05
2.86808e-05
-9.01897e-05
2.85665e-05
-9.28396e-05
2.8433e-05
-9.54752e-05
2.82794e-05
-9.80937e-05
2.81046e-05
-0.000100692
2.79077e-05
-0.000103266
2.76881e-05
-0.000105813
2.74453e-05
-0.000108326
2.71792e-05
-0.000110802
2.689e-05
-0.000113234
2.65785e-05
-0.000115615
2.62457e-05
-0.000117936
2.58935e-05
-0.000120187
2.55242e-05
-0.000122358
2.5141e-05
-0.000124432
2.47475e-05
-0.000126393
2.43477e-05
-0.00012822
2.39458e-05
-0.000129884
2.35452e-05
-0.000131355
2.31476e-05
-0.000132593
2.27514e-05
-0.000133555
2.23489e-05
-0.000134192
2.1924e-05
-0.000134457
2.14485e-05
-0.000134309
2.08798e-05
-0.000133727
2.01605e-05
1.92229e-05
-0.000132716
-9.58395e-07
1.131e-05
-2.87164e-06
2.26991e-05
-5.21442e-06
2.78433e-05
-7.73265e-06
2.99483e-05
-1.03162e-05
3.07315e-05
-1.29226e-05
3.10031e-05
-1.55375e-05
3.11006e-05
-1.81567e-05
3.11474e-05
-2.07795e-05
3.11826e-05
-2.34059e-05
3.12171e-05
-2.60362e-05
3.12534e-05
-2.86705e-05
3.12917e-05
-3.13091e-05
3.13317e-05
-3.39523e-05
3.1373e-05
-3.66003e-05
3.14153e-05
-3.92531e-05
3.14579e-05
-4.1911e-05
3.15003e-05
-4.45739e-05
3.15419e-05
-4.72419e-05
3.1582e-05
-4.99149e-05
3.16199e-05
-5.25928e-05
3.16548e-05
-5.52755e-05
3.16859e-05
-5.79627e-05
3.17123e-05
-6.0654e-05
3.17329e-05
-6.33491e-05
3.17468e-05
-6.60474e-05
3.17529e-05
-6.87483e-05
3.175e-05
-7.1451e-05
3.17369e-05
-7.41545e-05
3.17123e-05
-7.6858e-05
3.1675e-05
-7.956e-05
3.16235e-05
-8.22593e-05
3.15564e-05
-8.49543e-05
3.14722e-05
-8.76431e-05
3.13696e-05
-9.03236e-05
3.1247e-05
-9.29936e-05
3.1103e-05
-9.56504e-05
3.09362e-05
-9.82909e-05
3.07451e-05
-0.000100912
3.05286e-05
-0.000103509
3.02855e-05
-0.000106079
3.00148e-05
-0.000108615
2.97158e-05
-0.000111113
2.9388e-05
-0.000113566
2.90312e-05
-0.000115966
2.86455e-05
-0.000118304
2.82313e-05
-0.000120569
2.77897e-05
-0.00012275
2.73216e-05
-0.000124831
2.68285e-05
-0.000126795
2.63117e-05
-0.000128621
2.57719e-05
-0.000130284
2.52088e-05
-0.000131757
2.46202e-05
-0.000133006
2.40003e-05
-0.000133996
2.33386e-05
-0.00013469
2.26177e-05
-0.000135053
2.18117e-05
-0.000135058
2.08853e-05
-0.000134692
1.97947e-05
1.84909e-05
-0.000133961
-9.55013e-07
1.2265e-05
-2.8632e-06
2.46072e-05
-5.20122e-06
3.01813e-05
-7.71529e-06
3.24624e-05
-1.02951e-05
3.33113e-05
-1.2898e-05
3.3606e-05
-1.55097e-05
3.37122e-05
-1.8126e-05
3.37636e-05
-2.0746e-05
3.38027e-05
-2.337e-05
3.38411e-05
-2.59981e-05
3.38815e-05
-2.86306e-05
3.39242e-05
-3.1268e-05
3.3969e-05
-3.39103e-05
3.40154e-05
-3.65579e-05
3.40629e-05
-3.9211e-05
3.41109e-05
-4.18696e-05
3.41589e-05
-4.4534e-05
3.42063e-05
-4.72043e-05
3.42522e-05
-4.98803e-05
3.42959e-05
-5.25621e-05
3.43366e-05
-5.52495e-05
3.43734e-05
-5.79425e-05
3.44052e-05
-6.06406e-05
3.4431e-05
-6.33435e-05
3.44498e-05
-6.60508e-05
3.44602e-05
-6.87619e-05
3.44611e-05
-7.14761e-05
3.44511e-05
-7.41924e-05
3.44287e-05
-7.691e-05
3.43926e-05
-7.96277e-05
3.43411e-05
-8.2344e-05
3.42727e-05
-8.50575e-05
3.41857e-05
-8.77662e-05
3.40783e-05
-9.04682e-05
3.3949e-05
-9.3161e-05
3.37958e-05
-9.58419e-05
3.36171e-05
-9.85078e-05
3.3411e-05
-0.000101155
3.3176e-05
-0.00010378
3.29104e-05
-0.000106378
3.26126e-05
-0.000108943
3.22812e-05
-0.00011147
3.19149e-05
-0.000113951
3.15127e-05
-0.000116379
3.10735e-05
-0.000118745
3.05967e-05
-0.000121037
3.00815e-05
-0.000123243
2.95275e-05
-0.000125348
2.89338e-05
-0.000127336
2.82994e-05
-0.000129186
2.76224e-05
-0.000130877
2.68999e-05
-0.000132383
2.61266e-05
-0.000133678
2.52944e-05
-0.00013473
2.43914e-05
-0.000135513
2.34003e-05
-0.000135999
2.22983e-05
-0.00013617
2.10561e-05
-0.000136016
1.96401e-05
1.80142e-05
-0.000135539
-9.51297e-07
1.32163e-05
-2.85392e-06
2.65099e-05
-5.18668e-06
3.25141e-05
-7.69612e-06
3.49718e-05
-1.02718e-05
3.5887e-05
-1.28708e-05
3.62051e-05
-1.54789e-05
3.63203e-05
-1.80918e-05
3.63765e-05
-2.07087e-05
3.64196e-05
-2.33299e-05
3.64622e-05
-2.59555e-05
3.65072e-05
-2.85861e-05
3.65548e-05
-3.12218e-05
3.66047e-05
-3.3863e-05
3.66566e-05
-3.65101e-05
3.67099e-05
-3.91632e-05
3.6764e-05
-4.18226e-05
3.68183e-05
-4.44884e-05
3.68721e-05
-4.71609e-05
3.69246e-05
-4.984e-05
3.6975e-05
-5.25257e-05
3.70224e-05
-5.52181e-05
3.70658e-05
-5.79171e-05
3.71041e-05
-6.06223e-05
3.71363e-05
-6.33336e-05
3.7161e-05
-6.60505e-05
3.71771e-05
-6.87725e-05
3.71831e-05
-7.1499e-05
3.71775e-05
-7.42292e-05
3.71589e-05
-7.69621e-05
3.71256e-05
-7.96968e-05
3.70757e-05
-8.24317e-05
3.70077e-05
-8.51655e-05
3.69194e-05
-8.78963e-05
3.68091e-05
-9.0622e-05
3.66747e-05
-9.33404e-05
3.65141e-05
-9.60485e-05
3.63252e-05
-9.87434e-05
3.61059e-05
-0.000101421
3.5854e-05
-0.000104078
3.55674e-05
-0.00010671
3.52438e-05
-0.00010931
3.48813e-05
-0.000111873
3.44777e-05
-0.000114391
3.4031e-05
-0.000116857
3.35392e-05
-0.00011926
3.30004e-05
-0.000121591
3.24125e-05
-0.000123837
3.17733e-05
-0.000125984
3.10802e-05
-0.000128015
3.03304e-05
-0.000129912
2.95198e-05
-0.000131655
2.86432e-05
-0.000133222
2.76937e-05
-0.00013459
2.66617e-05
-0.000135733
2.55347e-05
-0.000136629
2.42963e-05
-0.000137257
2.29264e-05
-0.000137602
2.1401e-05
-0.000137656
1.96936e-05
1.77773e-05
-0.000137419
-9.47219e-07
1.41635e-05
-2.84374e-06
2.84064e-05
-5.17071e-06
3.4841e-05
-7.67503e-06
3.74761e-05
-1.0246e-05
3.8458e-05
-1.28408e-05
3.87998e-05
-1.54448e-05
3.89243e-05
-1.80539e-05
3.89856e-05
-2.06673e-05
3.90331e-05
-2.32853e-05
3.90802e-05
-2.59082e-05
3.913e-05
-2.85363e-05
3.91829e-05
-3.11701e-05
3.92385e-05
-3.381e-05
3.92965e-05
-3.64562e-05
3.93562e-05
-3.91092e-05
3.9417e-05
-4.17691e-05
3.94783e-05
-4.44363e-05
3.95393e-05
-4.71108e-05
3.95992e-05
-4.9793e-05
3.96572e-05
-5.24828e-05
3.97122e-05
-5.51803e-05
3.97633e-05
-5.78854e-05
3.98092e-05
-6.05981e-05
3.98489e-05
-6.33181e-05
3.9881e-05
-6.60451e-05
3.99041e-05
-6.87786e-05
3.99167e-05
-7.15183e-05
3.99172e-05
-7.42632e-05
3.99039e-05
-7.70127e-05
3.9875e-05
-7.97656e-05
3.98286e-05
-8.25207e-05
3.97628e-05
-8.52766e-05
3.96753e-05
-8.80315e-05
3.9564e-05
-9.07834e-05
3.94267e-05
-9.35301e-05
3.92607e-05
-9.62687e-05
3.90638e-05
-9.89962e-05
3.88334e-05
-0.000101709
3.85667e-05
-0.000104403
3.82612e-05
-0.000107073
3.79141e-05
-0.000109714
3.75225e-05
-0.00011232
3.70836e-05
-0.000114884
3.65945e-05
-0.000117396
3.60521e-05
-0.000119849
3.54534e-05
-0.000122232
3.47949e-05
-0.000124532
3.40732e-05
-0.000126736
3.3284e-05
-0.000128828
3.24228e-05
-0.000130792
3.1484e-05
-0.00013261
3.04608e-05
-0.000134261
2.93448e-05
-0.000135725
2.81258e-05
-0.000136981
2.6791e-05
-0.00013801
2.53253e-05
-0.000138795
2.37108e-05
-0.000139321
2.19276e-05
-0.000139582
1.99546e-05
1.7771e-05
-0.000139576
-9.42757e-07
1.51063e-05
-2.83259e-06
3.02962e-05
-5.1532e-06
3.71616e-05
-7.65187e-06
3.99748e-05
-1.02177e-05
4.10239e-05
-1.28077e-05
4.13898e-05
-1.54071e-05
4.15237e-05
-1.8012e-05
4.15905e-05
-2.06215e-05
4.16426e-05
-2.32359e-05
4.16946e-05
-2.58555e-05
4.17497e-05
-2.84809e-05
4.18083e-05
-3.11124e-05
4.18701e-05
-3.37505e-05
4.19346e-05
-3.63957e-05
4.20013e-05
-3.90482e-05
4.20695e-05
-4.17084e-05
4.21385e-05
-4.43767e-05
4.22075e-05
-4.70533e-05
4.22758e-05
-4.97384e-05
4.23423e-05
-5.24322e-05
4.2406e-05
-5.51348e-05
4.24659e-05
-5.78462e-05
4.25207e-05
-6.05666e-05
4.25692e-05
-6.32956e-05
4.261e-05
-6.60331e-05
4.26416e-05
-6.87788e-05
4.26624e-05
-7.15323e-05
4.26706e-05
-7.42929e-05
4.26645e-05
-7.70598e-05
4.2642e-05
-7.98323e-05
4.26011e-05
-8.2609e-05
4.25396e-05
-8.53888e-05
4.24551e-05
-8.81698e-05
4.23451e-05
-9.09503e-05
4.22071e-05
-9.3728e-05
4.20384e-05
-9.65002e-05
4.1836e-05
-9.92639e-05
4.15971e-05
-0.000102016
4.13184e-05
-0.000104751
4.09967e-05
-0.000107466
4.06288e-05
-0.000110154
4.0211e-05
-0.00011281
3.97398e-05
-0.000115427
3.92112e-05
-0.000117997
3.86215e-05
-0.00012051
3.79662e-05
-0.000122956
3.7241e-05
-0.000125323
3.64409e-05
-0.0001276
3.55604e-05
-0.00012977
3.45936e-05
-0.00013182
3.35335e-05
-0.000133731
3.23721e-05
-0.000135486
3.11001e-05
-0.000137067
2.97067e-05
-0.000138456
2.81794e-05
-0.000139634
2.65038e-05
-0.000140588
2.46642e-05
-0.000141304
2.26436e-05
-0.000141774
2.04247e-05
1.79913e-05
-0.000141994
-9.37888e-07
1.60442e-05
-2.82042e-06
3.21788e-05
-5.13406e-06
3.94753e-05
-7.62651e-06
4.24673e-05
-1.01867e-05
4.35841e-05
-1.27713e-05
4.39744e-05
-1.53657e-05
4.41181e-05
-1.79658e-05
4.41906e-05
-2.05709e-05
4.42477e-05
-2.31812e-05
4.43049e-05
-2.57971e-05
4.43656e-05
-2.84193e-05
4.44304e-05
-3.10481e-05
4.44989e-05
-3.36841e-05
4.45706e-05
-3.63278e-05
4.46449e-05
-3.89795e-05
4.47212e-05
-4.16397e-05
4.47987e-05
-4.43088e-05
4.48766e-05
-4.69872e-05
4.49541e-05
-4.96751e-05
4.50301e-05
-5.23727e-05
4.51037e-05
-5.50804e-05
4.51736e-05
-5.77983e-05
4.52386e-05
-6.05264e-05
4.52973e-05
-6.32646e-05
4.53483e-05
-6.6013e-05
4.539e-05
-6.87713e-05
4.54207e-05
-7.15392e-05
4.54385e-05
-7.43162e-05
4.54414e-05
-7.71016e-05
4.54274e-05
-7.98947e-05
4.53942e-05
-8.26945e-05
4.53393e-05
-8.54998e-05
4.52603e-05
-8.83089e-05
4.51543e-05
-9.11202e-05
4.50184e-05
-9.39316e-05
4.48497e-05
-9.67404e-05
4.46449e-05
-9.95439e-05
4.44005e-05
-0.000102339
4.41131e-05
-0.00010512
4.37787e-05
-0.000107885
4.33934e-05
-0.000110627
4.29531e-05
-0.000113341
4.24533e-05
-0.000116019
4.18894e-05
-0.000118654
4.12565e-05
-0.000121237
4.05493e-05
-0.000123758
3.97623e-05
-0.000126207
3.88893e-05
-0.00012857
3.79237e-05
-0.000130835
3.68582e-05
-0.000132986
3.56849e-05
-0.000135009
3.43947e-05
-0.000136886
3.29776e-05
-0.000138602
3.14223e-05
-0.000140139
2.97166e-05
-0.000141482
2.78468e-05
-0.000142616
2.57986e-05
-0.00014353
2.35572e-05
-0.000144213
2.11081e-05
1.84383e-05
-0.00014466
-9.32589e-07
1.69768e-05
-2.80716e-06
3.40533e-05
-5.11318e-06
4.17813e-05
-7.5988e-06
4.49529e-05
-1.01527e-05
4.6138e-05
-1.27315e-05
4.65532e-05
-1.53203e-05
4.67069e-05
-1.79151e-05
4.67853e-05
-2.05151e-05
4.68477e-05
-2.31208e-05
4.69105e-05
-2.57326e-05
4.69774e-05
-2.8351e-05
4.70488e-05
-3.09766e-05
4.71246e-05
-3.36101e-05
4.7204e-05
-3.62518e-05
4.72867e-05
-3.89023e-05
4.73718e-05
-4.15622e-05
4.74586e-05
-4.42318e-05
4.75463e-05
-4.69116e-05
4.76339e-05
-4.9602e-05
4.77206e-05
-5.23034e-05
4.7805e-05
-5.5016e-05
4.78862e-05
-5.77401e-05
4.79627e-05
-6.0476e-05
4.80332e-05
-6.32236e-05
4.8096e-05
-6.59831e-05
4.81495e-05
-6.87543e-05
4.81919e-05
-7.15371e-05
4.82213e-05
-7.43311e-05
4.82354e-05
-7.71358e-05
4.82322e-05
-7.99506e-05
4.8209e-05
-8.27747e-05
4.81634e-05
-8.56069e-05
4.80925e-05
-8.8446e-05
4.79933e-05
-9.12902e-05
4.78627e-05
-9.41378e-05
4.76973e-05
-9.69863e-05
4.74934e-05
-9.98329e-05
4.72472e-05
-0.000102675
4.69547e-05
-0.000105507
4.66116e-05
-0.000108327
4.62132e-05
-0.000111129
4.57548e-05
-0.000113907
4.52311e-05
-0.000116654
4.46368e-05
-0.000119364
4.3966e-05
-0.000122027
4.32126e-05
-0.000124634
4.23698e-05
-0.000127176
4.14306e-05
-0.000129639
4.03872e-05
-0.000132012
3.92313e-05
-0.000134281
3.79538e-05
-0.000136431
3.65449e-05
-0.000138448
3.49938e-05
-0.000140314
3.3289e-05
-0.000142016
3.14182e-05
-0.000143537
2.93682e-05
-0.000144865
2.71258e-05
-0.000145985
2.46777e-05
-0.000146888
2.20112e-05
1.91153e-05
-0.000147565
-9.26837e-07
1.79036e-05
-2.79275e-06
3.59192e-05
-5.09046e-06
4.4079e-05
-7.56861e-06
4.7431e-05
-1.01157e-05
4.86851e-05
-1.26879e-05
4.91254e-05
-1.52705e-05
4.92895e-05
-1.78594e-05
4.93742e-05
-2.04539e-05
4.94423e-05
-2.30544e-05
4.9511e-05
-2.56614e-05
4.95844e-05
-2.82755e-05
4.9663e-05
-3.08974e-05
4.97465e-05
-3.35277e-05
4.98343e-05
-3.6167e-05
4.99259e-05
-3.88158e-05
5.00206e-05
-4.14748e-05
5.01175e-05
-4.41445e-05
5.02159e-05
-4.68254e-05
5.03148e-05
-4.9518e-05
5.04131e-05
-5.22227e-05
5.05098e-05
-5.494e-05
5.06035e-05
-5.76703e-05
5.0693e-05
-6.04138e-05
5.07767e-05
-6.31708e-05
5.0853e-05
-6.59415e-05
5.09201e-05
-6.87258e-05
5.09763e-05
-7.15238e-05
5.10193e-05
-7.43353e-05
5.10469e-05
-7.716e-05
5.10568e-05
-7.99974e-05
5.10464e-05
-8.28468e-05
5.10128e-05
-8.57074e-05
5.09531e-05
-8.8578e-05
5.08639e-05
-9.14572e-05
5.07419e-05
-9.43432e-05
5.05833e-05
-9.72341e-05
5.03842e-05
-0.000100127
5.01403e-05
-0.00010302
4.98471e-05
-0.000105908
4.94998e-05
-0.000108788
4.90932e-05
-0.000111655
4.86218e-05
-0.000114504
4.80798e-05
-0.000117328