/*--------------------------------*- C++ -*----------------------------------*\
  =========                 |
  \\      /  F ield         | OpenFOAM: The Open Source CFD Toolbox
   \\    /   O peration     | Website:  https://openfoam.org
    \\  /    A nd           | Version:  8
     \\/     M anipulation  |
\*---------------------------------------------------------------------------*/
FoamFile
{
    version     2.0;
    format      ascii;
    class       volVectorField;
    location    "29.5";
    object      U;
}
// * * * * * * * * * * * * * * * * * * * * * * * * * * * * * * * * * * * * * //

dimensions      [0 1 -1 0 0 0 0];

internalField   nonuniform List<vector> 
116
(
(0.0118372 -0.00804889 0)
(0.00699878 -0.0139081 0)
(0.0350204 -0.020069 0)
(0.00299874 -0.0110787 0)
(-0.00650516 0.0595733 0)
(-0.145574 0.0731563 0)
(0.00406345 -0.0108873 0)
(-0.0138805 -0.00690366 0)
(-0.0275124 0.0209527 0)
(-0.0923927 0.0551793 0)
(-0.10435 0.0769199 0)
(-0.151247 0.0490775 0)
(-0.00121498 0.00111033 0)
(-0.0249181 0.0185719 0)
(-0.046772 0.0512282 0)
(-0.0883322 0.0796799 0)
(-0.0992838 0.103805 0)
(-0.114165 0.0626329 0)
(-0.00494453 0.0148702 0)
(-0.0239013 0.0422907 0)
(-0.0416196 0.081122 0)
(-0.0681261 0.104668 0)
(-0.0743312 0.10626 0)
(-0.0704609 0.0413312 0)
(-0.00176355 0.0299341 0)
(-0.0116367 0.0547988 0)
(-0.0232926 0.0929394 0)
(-0.0318373 0.107643 0)
(-0.0355489 0.101926 0)
(-0.0247028 0.0318287 0)
(-0.00290388 0.0277657 0)
(-0.000150175 0.0632577 0)
(0.006037 0.101112 0)
(0.0148556 0.117108 0)
(0.0136544 0.108565 0)
(0.0210805 0.0456133 0)
(0.00362566 0.0360699 0)
(0.00673026 0.0475418 0)
(0.00643386 0.0807732 0)
(0.0374522 0.0944098 0)
(0.0454992 0.0947899 0)
(0.0709099 0.0480611 0)
(0.00196211 0.0139238 0)
(0.0123681 0.0615079 0)
(0.0232016 0.0727028 0)
(0.055086 0.0793143 0)
(0.0688357 0.080193 0)
(0.101121 0.0600332 0)
(-0.0640042 0.02746 0)
(-0.0319713 0.0212787 0)
(-0.0443607 0.035916 0)
(0.00163889 0.038271 0)
(0.0119473 0.0414485 0)
(0.0630097 0.0399487 0)
(0.0496381 0.097045 0)
(0.0883359 0.0531409 0)
(0.109007 0.0401472 0)
(0.168378 0.0304752 0)
(0.174758 0.0222914 0)
(0.226226 0.0182094 0)
(-0.102106 0.103255 0)
(-0.0979373 -0.0177207 0)
(-0.0242165 0.00233642 0)
(-0.0061622 -0.134279 0)
(-0.0973777 0.066582 0)
(-0.0974711 -0.0537991 0)
(-0.0695251 -0.0606015 0)
(0.00200312 -0.165719 0)
(-0.0751452 0.0408957 0)
(-0.052604 -0.0530752 0)
(-0.0644877 -0.0959026 0)
(0.000924675 -0.203896 0)
(-0.0484997 0.0106878 0)
(-0.0187421 -0.0623915 0)
(-0.0445667 -0.106956 0)
(0.00695013 -0.225719 0)
(-0.0361308 -0.0109106 0)
(0.00253282 -0.066833 0)
(-0.0389515 -0.119475 0)
(0.0117063 -0.246976 0)
(-0.00817872 -0.0128044 0)
(0.0326511 -0.0583711 0)
(-0.0258926 -0.105717 0)
(0.0200554 -0.253321 0)
(0.0385063 -0.022501 0)
(0.0607006 -0.0585427 0)
(-0.0253193 -0.11421 0)
(0.0285474 -0.258564 0)
(0.0698103 0.00801921 0)
(0.0698667 0.00435126 0)
(-0.00221796 -0.0554322 0)
(0.0519765 -0.235861 0)
(0.0581406 0.00937674 0)
(0.071089 -0.000428278 0)
(0.0531856 -0.1044 0)
(0.078769 -0.242992 0)
(0.225413 0.0106354 0)
(0.256516 0.000609587 0)
(0.206233 -0.024965 0)
(0.152677 -0.0696101 0)
(-0.0173059 0.00107745 0)
(-0.0446006 0.00516971 0)
(-0.0668064 0.00470604 0)
(-0.0409225 -0.0319456 0)
(-0.0183045 0.0611448 0)
(-0.042693 0.0428653 0)
(-0.0486673 -0.00169887 0)
(-0.0352148 -0.0824889 0)
(-0.0324409 0.0608889 0)
(-0.00683744 0.0256166 0)
(-0.022751 0.00433978 0)
(-0.0263528 -0.12237 0)
(-0.0108818 0.107452 0)
(-0.0353291 0.0372309 0)
(0.0194956 0.0230716 0)
(-0.0285378 -0.12201 0)
)
;

boundaryField
{
    movingWall
    {
        type            fixedValue;
        value           uniform (1 0 0);
    }
    fixedWalls
    {
        type            noSlip;
    }
    frontAndBack
    {
        type            empty;
    }
}


// ************************************************************************* //
