0 	-1.16456e-07
1.57135 	-0.000360993
3.1427 	-0.000548511
4.71405 	-0.00261845
6.28539 	-0.00658146
7.85674 	-0.00974245
9.42809 	-0.00897692
10.9994 	-0.00505271
12.5708 	0.0177798
14.1421 	0.0542523
