0 	0 	0 	0
1.57135 	0.00348786 	-0.0114355 	0
3.1427 	-0.0386595 	0.0327511 	0
4.71405 	-0.0672951 	0.0879989 	0
6.28539 	-0.0410225 	0.086493 	0
7.85674 	-0.00157695 	0.0395881 	0
9.42809 	0.0408645 	-0.00905184 	0
10.9994 	0.0562876 	-0.0457183 	0
12.5708 	0.119796 	-0.108075 	0
14.1421 	0.5 	0 	0
