/*--------------------------------*- C++ -*----------------------------------*\
  =========                 |
  \\      /  F ield         | OpenFOAM: The Open Source CFD Toolbox
   \\    /   O peration     | Website:  https://openfoam.org
    \\  /    A nd           | Version:  8
     \\/     M anipulation  |
\*---------------------------------------------------------------------------*/
FoamFile
{
    version     2.0;
    format      ascii;
    class       volScalarField;
    location    "53.5";
    object      p;
}
// * * * * * * * * * * * * * * * * * * * * * * * * * * * * * * * * * * * * * //

dimensions      [0 2 -2 0 0 0 0];

internalField   nonuniform List<scalar> 
464
(
-8.51922e-09
1.13014e-06
5.48732e-06
1.19438e-05
2.11765e-05
3.30521e-05
4.80079e-05
6.51116e-05
8.69519e-05
0.000107933
0.000138315
0.000158346
-1.35172e-06
-2.6516e-07
4.07196e-06
1.05668e-05
2.00437e-05
3.24167e-05
4.80948e-05
6.62387e-05
8.92668e-05
0.000112234
0.000144599
0.000169552
-6.34884e-06
-5.43308e-06
-1.39447e-06
4.47502e-06
1.28231e-05
2.36376e-05
3.72884e-05
5.35473e-05
7.37757e-05
9.51856e-05
0.000122788
0.000147423
-1.35906e-05
-1.27978e-05
-8.77053e-06
-2.56254e-06
6.98443e-06
1.96933e-05
3.57986e-05
5.5163e-05
7.88481e-05
0.000104821
0.000136832
0.000168538
-2.36375e-05
-2.31745e-05
-1.98513e-05
-1.56029e-05
-9.1315e-06
-1.93755e-07
1.17874e-05
2.71071e-05
4.62714e-05
6.88798e-05
9.63145e-05
0.000125797
-3.61836e-05
-3.58235e-05
-3.19547e-05
-2.58736e-05
-1.66725e-05
-4.37963e-06
1.14941e-05
3.13857e-05
5.58272e-05
8.48514e-05
0.000119224
0.000158443
-5.24354e-05
-5.39847e-05
-5.25561e-05
-5.19878e-05
-4.81733e-05
-4.22834e-05
-3.27405e-05
-1.91925e-05
-9.43113e-07
2.26697e-05
5.15553e-05
8.7328e-05
-6.05693e-05
-6.07797e-05
-5.86355e-05
-5.46777e-05
-4.83692e-05
-3.88366e-05
-2.56352e-05
-7.42013e-06
1.63218e-05
4.71336e-05
8.31593e-05
0.000132848
-0.000100132
-0.000104901
-0.000103553
-0.000109611
-0.000107375
-0.000107706
-0.000101872
-9.19238e-05
-7.67424e-05
-5.12823e-05
-2.55302e-05
2.62998e-05
-8.21362e-05
-8.38788e-05
-8.63333e-05
-8.65174e-05
-8.75417e-05
-8.39226e-05
-7.83744e-05
-6.52238e-05
-4.85339e-05
-1.58346e-05
1.40127e-05
7.76367e-05
-0.000158872
-0.000170907
-0.000167992
-0.000189222
-0.000186881
-0.000202048
-0.00020037
-0.000198899
-0.000193656
-0.000166005
-0.00015639
-8.67352e-05
-9.78956e-05
-0.000101506
-0.000113208
-0.000118535
-0.000134741
-0.000139367
-0.000152275
-0.000145243
-0.000150707
-0.000114863
-0.000111667
-2.66372e-05
-0.000215554
-0.000244594
-0.000237184
-0.000290114
-0.000285463
-0.000329212
-0.000332857
-0.000348915
-0.000360699
-0.000336896
-0.000357239
-0.000277109
-0.000100967
-0.000108122
-0.000134239
-0.000146701
-0.00018769
-0.000204291
-0.000250595
-0.000251232
-0.000298993
-0.000259418
-0.00031091
-0.000205134
-0.000238415
-0.000312166
-0.000295642
-0.000412553
-0.000402294
-0.000494042
-0.000503833
-0.000547232
-0.00058245
-0.000570573
-0.000636803
-0.000561089
-8.14698e-05
-0.000101712
-0.000142667
-0.000166292
-0.000238846
-0.000278023
-0.000372586
-0.000385852
-0.000494191
-0.000453437
-0.00057954
-0.000467437
-0.000137457
-0.000341665
-0.000327213
-0.000567216
-0.000548621
-0.00070629
-0.000722523
-0.000794871
-0.000854638
-0.000857732
-0.000963827
-0.000923167
-3.46571e-05
-0.000113333
-0.000146694
-0.00017022
-0.000268545
-0.000359387
-0.000519047
-0.00055186
-0.000733506
-0.000688864
-0.000876377
-0.000774647
0.000369829
-0.000400843
-0.000350615
-0.000818374
-0.000750894
-0.000979015
-0.00100808
-0.00109118
-0.00117271
-0.00117903
-0.00125521
-0.00131067
-0.00101181
0.000231476
0.000106071
-0.000180898
-0.000360813
-0.000516743
-0.000808933
-0.000825116
-0.00107719
-0.000992591
-0.00118407
-0.00108954
0.000200876
0.000221151
0.00024383
0.000259867
0.000275529
0.000286635
0.00029501
0.000298275
0.000216612
0.000238482
0.000264864
0.000282712
0.000299977
0.000312284
0.000321424
0.000325058
0.000182014
0.00020934
0.000239201
0.000265135
0.000288561
0.000307348
0.000320541
0.000326509
0.000206455
0.000238458
0.00027217
0.000301688
0.000328117
0.00034987
0.000364884
0.000372028
0.000161707
0.000199717
0.000238042
0.000278928
0.000312079
0.000345648
0.000365574
0.000377571
0.000200421
0.000244944
0.000289323
0.00033698
0.000375727
0.000416303
0.000439998
0.000455551
0.000127024
0.000183781
0.000229035
0.000300186
0.000343708
0.000410945
0.000439528
0.000468776
0.000181455
0.000249097
0.000304502
0.000388066
0.000442639
0.000525553
0.000562742
0.000602886
5.8614e-05
0.000146704
0.00019303
0.000319927
0.000374561
0.000515189
0.000559139
0.000638168
0.000126799
0.000231151
0.000292422
0.000442101
0.000515749
0.000692834
0.000756456
0.000874266
-7.20212e-05
5.65232e-05
8.8789e-05
0.000306811
0.000367918
0.000663265
0.000741607
0.000980478
-1.18383e-05
0.000153537
0.000192042
0.000451894
0.000531507
0.000908184
0.00103267
0.00141785
-0.000304204
-0.000139651
-0.000167544
0.000172303
0.00019276
0.00078339
0.00093165
0.00170409
-0.000265901
-5.00572e-05
-0.000114262
0.000285978
0.000251246
0.000983149
0.00116066
0.00242578
-0.000673713
-0.000485434
-0.000690541
-0.000260275
-0.000563686
0.000455496
0.000149913
0.00229287
-0.000643369
-0.000421713
-0.00074227
-0.00028546
-0.00101733
5.31159e-05
-0.00176968
0.00140709
-0.00112313
-0.000992553
-0.00151939
-0.0010682
-0.00237746
-0.00113547
-0.00393474
-0.000440233
-0.00100311
-0.000863209
-0.00128445
-0.00114181
-0.0021475
-0.00207822
-0.00353686
0.000725033
-0.00136529
-0.00147366
-0.00197246
-0.00183087
-0.00370855
-0.0040978
-0.00494827
0.00117424
-0.00123058
-0.0011842
-0.00145681
-0.00147163
-0.00171435
-0.000550876
0.00313071
0.0161577
0.000268706
0.000269076
0.000270051
0.000271175
0.000272496
0.000273591
0.000274487
0.000274821
0.000270194
0.000270588
0.000271597
0.000272762
0.000274054
0.000275112
0.000275967
0.000276279
0.000265419
0.000266016
0.000267562
0.000269241
0.000271304
0.000272955
0.000274326
0.000274831
0.000269737
0.000270505
0.000272263
0.00027424
0.000276308
0.000277964
0.00027928
0.000279755
0.00025833
0.000259834
0.000263198
0.00026657
0.000270651
0.000273738
0.000276292
0.000277222
0.000265893
0.000267959
0.000271805
0.000275888
0.000279983
0.00028318
0.000285689
0.000286598
0.000242339
0.000247267
0.000255569
0.000262979
0.000271287
0.000277272
0.000282066
0.000283831
0.000253072
0.000260287
0.000269503
0.000278174
0.000286693
0.000293068
0.000297984
0.000299809
)
;

boundaryField
{
    movingWall
    {
        type            zeroGradient;
    }
    fixedWalls
    {
        type            zeroGradient;
    }
    frontAndBack
    {
        type            empty;
    }
}


// ************************************************************************* //
