/*--------------------------------*- C++ -*----------------------------------*\
  =========                 |
  \\      /  F ield         | OpenFOAM: The Open Source CFD Toolbox
   \\    /   O peration     | Website:  https://openfoam.org
    \\  /    A nd           | Version:  8
     \\/     M anipulation  |
\*---------------------------------------------------------------------------*/
FoamFile
{
    version     2.0;
    format      ascii;
    class       volVectorField;
    location    "30.5";
    object      U;
}
// * * * * * * * * * * * * * * * * * * * * * * * * * * * * * * * * * * * * * //

dimensions      [0 1 -1 0 0 0 0];

internalField   nonuniform List<vector> 
464
(
(-0.000132264 0.000130874 0)
(-0.000412189 0.000136393 0)
(-0.000693448 0.000130409 0)
(-0.000954133 0.00012137 0)
(-0.00119473 0.000109588 0)
(-0.00140916 9.52225e-05 0)
(-0.00158928 7.86007e-05 0)
(-0.00174694 5.92553e-05 0)
(-0.00183513 3.81774e-05 0)
(-0.00195548 1.19226e-05 0)
(-0.00190354 -1.35226e-05 0)
(-0.00206008 -6.42154e-06 0)
(-0.000143816 0.000413601 0)
(-0.000447667 0.000430552 0)
(-0.000752643 0.000411672 0)
(-0.00103529 0.00038327 0)
(-0.00129611 0.000346615 0)
(-0.00152849 0.000302704 0)
(-0.00172455 0.000253822 0)
(-0.00189578 0.000199567 0)
(-0.00199646 0.000152473 0)
(-0.00212896 8.5466e-05 0)
(-0.00209132 8.11383e-05 0)
(-0.00226629 -1.87966e-05 0)
(-0.000150285 0.00071724 0)
(-0.000467755 0.000746078 0)
(-0.000786225 0.000713128 0)
(-0.00108088 0.000663509 0)
(-0.0013522 0.000599425 0)
(-0.00159223 0.000522509 0)
(-0.00179386 0.000435969 0)
(-0.00195897 0.000339664 0)
(-0.00206554 0.000247449 0)
(-0.00214946 0.000131843 0)
(-0.00212984 8.00742e-05 0)
(-0.00212014 -6.32269e-05 0)
(-0.000160064 0.00103263 0)
(-0.000498084 0.00107384 0)
(-0.000837056 0.00102605 0)
(-0.00115039 0.000954017 0)
(-0.00143883 0.000860978 0)
(-0.00169394 0.000749145 0)
(-0.00190961 0.000622127 0)
(-0.00208666 0.000481285 0)
(-0.00220677 0.000335408 0)
(-0.00229889 0.000173121 0)
(-0.00228861 3.32999e-05 0)
(-0.0022748 -0.000159786 0)
(-0.000173622 0.00137335 0)
(-0.000540032 0.00142765 0)
(-0.000907236 0.00136353 0)
(-0.00124599 0.00126682 0)
(-0.0015571 0.00114241 0)
(-0.0018311 0.000993133 0)
(-0.00206175 0.000823776 0)
(-0.0022457 0.000636735 0)
(-0.00237374 0.000440312 0)
(-0.00245159 0.000225913 0)
(-0.00246279 2.73451e-05 0)
(-0.00242457 -0.000214187 0)
(-0.000191554 0.00174381 0)
(-0.00059519 0.00181236 0)
(-0.000999413 0.00173029 0)
(-0.00137152 0.00160617 0)
(-0.00171252 0.00144717 0)
(-0.00201257 0.00125641 0)
(-0.00226603 0.00104002 0)
(-0.00247014 0.000800972 0)
(-0.00261765 0.000545933 0)
(-0.00271185 0.000274837 0)
(-0.00272875 -2.58912e-07 0)
(-0.00268719 -0.000297554 0)
(-0.000214109 0.00216072 0)
(-0.000664445 0.00224344 0)
(-0.00111534 0.00213999 0)
(-0.00152914 0.001983 0)
(-0.00190686 0.00178475 0)
(-0.00223825 0.00154734 0)
(-0.00251717 0.00127979 0)
(-0.00273975 0.000985241 0)
(-0.00289985 0.000669709 0)
(-0.00299773 0.000333291 0)
(-0.00303521 -1.34097e-05 0)
(-0.00300772 -0.000375688 0)
(-0.000243943 0.00260755 0)
(-0.000753278 0.00270874 0)
(-0.00126217 0.00258426 0)
(-0.00172679 0.00239405 0)
(-0.00214817 0.00215471 0)
(-0.00251755 0.00186713 0)
(-0.00282814 0.00154455 0)
(-0.00308025 0.00119124 0)
(-0.00326967 0.000816519 0)
(-0.003395 0.000422841 0)
(-0.00343776 1.53587e-05 0)
(-0.00340586 -0.000412347 0)
(-0.000276804 0.00317585 0)
(-0.000854244 0.00328696 0)
(-0.00143271 0.00312901 0)
(-0.00195872 0.0028805 0)
(-0.00243375 0.00258465 0)
(-0.00284844 0.00222994 0)
(-0.00319304 0.00184203 0)
(-0.00346774 0.00141805 0)
(-0.00366815 0.000965914 0)
(-0.0037988 0.000487372 0)
(-0.00387036 -1.27619e-05 0)
(-0.00386855 -0.00053052 0)
(-0.000331791 0.00370122 0)
(-0.0010021 0.00384034 0)
(-0.00167179 0.003658 0)
(-0.00227123 0.00337243 0)
(-0.00279861 0.00302953 0)
(-0.0032602 0.00261602 0)
(-0.00364001 0.00216767 0)
(-0.00395648 0.00168042 0)
(-0.00420054 0.00117356 0)
(-0.00437385 0.000646236 0)
(-0.00445575 0.000100572 0)
(-0.00445247 -0.000470801 0)
(-0.000371512 0.00455259 0)
(-0.00113465 0.00467203 0)
(-0.00190383 0.00444502 0)
(-0.00258743 0.00402882 0)
(-0.00319003 0.00361075 0)
(-0.00371051 0.00307957 0)
(-0.00412857 0.00254184 0)
(-0.00446172 0.00195564 0)
(-0.00470199 0.00134782 0)
(-0.00487149 0.000711264 0)
(-0.00498716 4.72135e-05 0)
(-0.0050233 -0.000650307 0)
(-0.000500488 0.00514156 0)
(-0.00140137 0.00532931 0)
(-0.00231913 0.00505893 0)
(-0.00310604 0.00461428 0)
(-0.00374709 0.00413196 0)
(-0.00432928 0.0035315 0)
(-0.00476365 0.00292892 0)
(-0.00515088 0.00228401 0)
(-0.00544548 0.00163472 0)
(-0.00567503 0.000968974 0)
(-0.00581768 0.000292313 0)
(-0.00586622 -0.000434149 0)
(-0.000508499 0.00652459 0)
(-0.00154627 0.00653439 0)
(-0.00262074 0.00623088 0)
(-0.00351597 0.00546189 0)
(-0.00427204 0.00490088 0)
(-0.00491491 0.00407499 0)
(-0.00537569 0.00337032 0)
(-0.00575575 0.0025752 0)
(-0.00601614 0.00181065 0)
(-0.00621315 0.00102157 0)
(-0.00638935 0.00021225 0)
(-0.00643834 -0.000676059 0)
(-0.000917523 0.00710867 0)
(-0.00212265 0.007492 0)
(-0.00339668 0.00695658 0)
(-0.00443855 0.00630004 0)
(-0.00513019 0.00554164 0)
(-0.00586103 0.00465339 0)
(-0.00626189 0.00384408 0)
(-0.00671175 0.00299021 0)
(-0.00700012 0.00218982 0)
(-0.00727499 0.00138752 0)
(-0.00751627 0.000631712 0)
(-0.00761963 -0.000250673 0)
(-0.000558979 0.00963801 0)
(-0.00214803 0.008799 0)
(-0.00380421 0.00863521 0)
(-0.00493944 0.00696066 0)
(-0.00591615 0.0063253 0)
(-0.00661724 0.00501835 0)
(-0.00703747 0.00417661 0)
(-0.00741026 0.00315828 0)
(-0.00761695 0.00229661 0)
(-0.00777003 0.00140242 0)
(-0.00802505 0.000553276 0)
(-0.00797904 -0.00047136 0)
(-0.00246757 0.0097483 0)
(-0.00377946 0.0111987 0)
(-0.00523133 0.00967676 0)
(-0.00675713 0.00885437 0)
(-0.00705636 0.00729824 0)
(-0.00801488 0.0060033 0)
(-0.00811721 0.00480957 0)
(-0.00859479 0.00368216 0)
(-0.00875685 0.00273489 0)
(-0.00902163 0.00181944 0)
(-0.00939196 0.00108544 0)
(-0.00952152 0.000111708 0)
(0.000154556 0.0159241 0)
(-0.00293281 0.0108667 0)
(-0.0061401 0.0115701 0)
(-0.00735912 0.00815408 0)
(-0.00876584 0.00748323 0)
(-0.00911371 0.00565805 0)
(-0.00935556 0.00465887 0)
(-0.00948511 0.0035207 0)
(-0.00947664 0.00264647 0)
(-0.0094179 0.0017887 0)
(-0.00972856 0.00109063 0)
(-0.00935089 0.000161146 0)
(-0.00466274 0.0123972 0)
(-0.00797487 0.0185521 0)
(-0.00702149 0.0141411 0)
(-0.0107553 0.012461 0)
(-0.00945442 0.00911977 0)
(-0.0108589 0.00718446 0)
(-0.0102573 0.00535692 0)
(-0.0106132 0.00399065 0)
(-0.0104759 0.00295318 0)
(-0.0105529 0.00204701 0)
(-0.0109784 0.00142487 0)
(-0.0109611 0.000593791 0)
(-0.023581 0.0292648 0)
(-0.0148413 0.011761 0)
(-0.0219841 0.0141524 0)
(-0.016602 0.00945296 0)
(-0.0163832 0.00736199 0)
(-0.0135192 0.00581303 0)
(-0.0120063 0.00425141 0)
(-0.010627 0.00336159 0)
(-0.00951007 0.00251762 0)
(-0.00857338 0.00194178 0)
(-0.00840148 0.00160274 0)
(-0.0070918 0.00115689 0)
(0.0359309 0.0488681 0)
(0.0440451 0.0192102 0)
(0.0645795 0.0154736 0)
(0.0745323 0.00849509 0)
(0.0820816 0.00585087 0)
(0.0874316 0.00363825 0)
(0.0913529 0.00249004 0)
(0.0942039 0.00174096 0)
(0.0961432 0.00118998 0)
(0.0981822 0.000859366 0)
(0.0982814 0.000383087 0)
(0.101093 0.000299766 0)
(-0.0018282 0.00101117 0)
(-0.00126554 0.000550314 0)
(-0.00110047 0.000110855 0)
(-0.000849436 -0.000140009 0)
(-0.000679371 -0.000344282 0)
(-0.000477832 -0.000478544 0)
(-0.000285431 -0.000567245 0)
(-9.01708e-05 -0.000572701 0)
(-0.0019867 0.000185634 0)
(-0.0014058 -5.96293e-05 0)
(-0.00122665 -0.000227952 0)
(-0.000953946 -0.00043188 0)
(-0.000765082 -0.000585144 0)
(-0.000542963 -0.000712655 0)
(-0.000324685 -0.000794748 0)
(-0.000103159 -0.000787675 0)
(-0.00195474 7.56109e-05 0)
(-0.00167996 -0.000192115 0)
(-0.00147261 -0.000374459 0)
(-0.00120647 -0.000604621 0)
(-0.000960071 -0.000781589 0)
(-0.000688397 -0.000929787 0)
(-0.000409365 -0.00102645 0)
(-0.00013098 -0.00101297 0)
(-0.00211728 -0.000270784 0)
(-0.00185523 -0.000506574 0)
(-0.00163931 -0.00069934 0)
(-0.00136098 -0.000914534 0)
(-0.00109043 -0.00109248 0)
(-0.000789289 -0.00124169 0)
(-0.000471229 -0.00134203 0)
(-0.000151601 -0.00131311 0)
(-0.00230144 -0.000385006 0)
(-0.0021084 -0.00066497 0)
(-0.0018807 -0.000904802 0)
(-0.00159952 -0.00116185 0)
(-0.00128726 -0.00137891 0)
(-0.000939752 -0.00156089 0)
(-0.000562388 -0.00168361 0)
(-0.000181845 -0.00164686 0)
(-0.00256809 -0.000583501 0)
(-0.00237485 -0.000896064 0)
(-0.00213626 -0.00119204 0)
(-0.00183506 -0.00148239 0)
(-0.00148958 -0.00173336 0)
(-0.00109637 -0.0019465 0)
(-0.000659626 -0.00208844 0)
(-0.000214916 -0.00204049 0)
(-0.00289999 -0.000732036 0)
(-0.00271682 -0.0011122 0)
(-0.00246699 -0.00147706 0)
(-0.00214079 -0.00183709 0)
(-0.00175138 -0.00214849 0)
(-0.00129781 -0.00242088 0)
(-0.00078351 -0.00259899 0)
(-0.000258042 -0.00254622 0)
(-0.0033047 -0.000845606 0)
(-0.00311995 -0.00129326 0)
(-0.00286124 -0.00172411 0)
(-0.00250665 -0.0021587 0)
(-0.00207349 -0.00252207 0)
(-0.00155076 -0.00286971 0)
(-0.000941644 -0.00307851 0)
(-0.000315024 -0.00302986 0)
(-0.0037807 -0.00105915 0)
(-0.00359515 -0.00161028 0)
(-0.00333205 -0.002145 0)
(-0.0029387 -0.00270548 0)
(-0.00246208 -0.00316806 0)
(-0.00185902 -0.00364323 0)
(-0.00113357 -0.00391719 0)
(-0.000394563 -0.003887 0)
(-0.00438476 -0.00105452 0)
(-0.00420646 -0.00169124 0)
(-0.00395659 -0.00226443 0)
(-0.00353075 -0.00296845 0)
(-0.00301123 -0.00344977 0)
(-0.00230685 -0.00411423 0)
(-0.00142086 -0.00439391 0)
(-0.000514211 -0.00444194 0)
(-0.00500017 -0.00136553 0)
(-0.00480473 -0.00216552 0)
(-0.00460713 -0.00289889 0)
(-0.00412444 -0.00383588 0)
(-0.0036052 -0.0045013 0)
(-0.00281162 -0.0054444 0)
(-0.00174043 -0.00586581 0)
(-0.00071407 -0.00601215 0)
(-0.00590066 -0.00112338 0)
(-0.00574276 -0.00204208 0)
(-0.00562663 -0.00268581 0)
(-0.0051381 -0.00389799 0)
(-0.00461771 -0.00443566 0)
(-0.00368695 -0.00584357 0)
(-0.00234664 -0.00617144 0)
(-0.00101048 -0.00667335 0)
(-0.00660447 -0.00153766 0)
(-0.0063669 -0.00268207 0)
(-0.00645371 -0.003598 0)
(-0.00587729 -0.0051981 0)
(-0.005535 -0.0061192 0)
(-0.00456815 -0.00812924 0)
(-0.00298342 -0.00881499 0)
(-0.00162152 -0.00974272 0)
(-0.00790817 -0.000910319 0)
(-0.00781333 -0.00219721 0)
(-0.00814123 -0.00270165 0)
(-0.00767879 -0.00476159 0)
(-0.00753534 -0.00512705 0)
(-0.00643218 -0.00820799 0)
(-0.00452024 -0.00848677 0)
(-0.00252408 -0.0108838 0)
(-0.00854141 -0.00133987 0)
(-0.00815627 -0.00285387 0)
(-0.00898652 -0.00380148 0)
(-0.00831072 -0.00641659 0)
(-0.00889738 -0.0075653 0)
(-0.00800499 -0.0119144 0)
(-0.00623688 -0.0131453 0)
(-0.00473191 -0.0175112 0)
(-0.0102963 -0.00029141 0)
(-0.0103048 -0.00187447 0)
(-0.0117121 -0.00179198 0)
(-0.011513 -0.00489284 0)
(-0.0129887 -0.00436554 0)
(-0.0122034 -0.0106777 0)
(-0.0108331 -0.010521 0)
(-0.0081892 -0.0211564 0)
(-0.0105121 -0.000397591 0)
(-0.00963491 -0.00203809 0)
(-0.011929 -0.0024965 0)
(-0.0108364 -0.00612344 0)
(-0.014287 -0.00694441 0)
(-0.0142199 -0.0154815 0)
(-0.0158617 -0.01762 0)
(-0.0145976 -0.038084 0)
(-0.0124367 0.000535307 0)
(-0.0123569 -0.000819828 0)
(-0.0157539 0.000411384 0)
(-0.0158924 -0.00287401 0)
(-0.0219943 0.000620012 0)
(-0.0209782 -0.00917329 0)
(-0.0263724 -0.00776891 0)
(-0.0118599 -0.0502454 0)
(-0.00841483 0.00136413 0)
(-0.00550723 0.000528611 0)
(-0.00938775 0.00154277 0)
(-0.00274784 -0.00126553 0)
(-0.0106631 -0.00106115 0)
(0.00304155 -0.0136941 0)
(-0.0111018 -0.0269414 0)
(0.0133947 -0.0806202 0)
(0.0983378 -0.000392195 0)
(0.103767 -0.000446411 0)
(0.0962573 -0.00144528 0)
(0.106318 -0.00216973 0)
(0.0898407 -0.00391848 0)
(0.103942 -0.00842515 0)
(0.0640516 -0.0149618 0)
(0.0647598 -0.0432324 0)
(-1.31852e-05 -9.81093e-06 0)
(-3.88766e-05 -1.12718e-05 0)
(-5.76725e-05 -1.30648e-05 0)
(-6.63485e-05 -1.55789e-05 0)
(-6.47231e-05 -1.69737e-05 0)
(-5.33591e-05 -1.83614e-05 0)
(-3.43421e-05 -1.9125e-05 0)
(-1.13387e-05 -1.85815e-05 0)
(-1.52171e-05 6.28277e-05 0)
(-4.42599e-05 5.72666e-05 0)
(-6.54997e-05 4.10841e-05 0)
(-7.43063e-05 2.32215e-05 0)
(-7.14542e-05 4.16902e-06 0)
(-5.87891e-05 -1.12774e-05 0)
(-3.76678e-05 -2.26868e-05 0)
(-1.24825e-05 -2.62941e-05 0)
(-2.31542e-05 4.61879e-05 0)
(-6.66837e-05 3.64983e-05 0)
(-9.53697e-05 1.46281e-05 0)
(-0.000107384 -1.05219e-05 0)
(-0.000103237 -3.40633e-05 0)
(-8.35684e-05 -5.39164e-05 0)
(-5.33669e-05 -6.79555e-05 0)
(-1.7492e-05 -7.06271e-05 0)
(-2.81216e-05 0.000158609 0)
(-7.91378e-05 0.000135782 0)
(-0.000112673 8.52329e-05 0)
(-0.000123095 3.33977e-05 0)
(-0.000114948 -1.77338e-05 0)
(-9.28481e-05 -5.75387e-05 0)
(-5.87064e-05 -8.58765e-05 0)
(-1.93616e-05 -9.33536e-05 0)
(-5.53939e-05 0.000143845 0)
(-0.000149656 0.000113431 0)
(-0.000197934 5.24301e-05 0)
(-0.000210333 -1.04523e-05 0)
(-0.000194146 -6.84285e-05 0)
(-0.000151807 -0.000114895 0)
(-9.51773e-05 -0.000147447 0)
(-3.08536e-05 -0.000153671 0)
(-6.77313e-05 0.000378589 0)
(-0.000179961 0.000291792 0)
(-0.000236803 0.00015235 0)
(-0.000244007 3.39721e-05 0)
(-0.000219455 -7.23502e-05 0)
(-0.000172111 -0.000148767 0)
(-0.000107045 -0.00020096 0)
(-3.49311e-05 -0.00021197 0)
(-0.00016546 0.000370655 0)
(-0.000399244 0.000266255 0)
(-0.000456115 0.00010461 0)
(-0.000434886 -2.9317e-05 0)
(-0.000376759 -0.00014881 0)
(-0.000280585 -0.000235723 0)
(-0.000171666 -0.000295137 0)
(-5.49146e-05 -0.000304079 0)
(-0.000217064 0.000978844 0)
(-0.000470608 0.000608523 0)
(-0.000533482 0.000195019 0)
(-0.000497657 -3.66869e-05 0)
(-0.000426082 -0.000220837 0)
(-0.000318976 -0.000339752 0)
(-0.000194509 -0.000417781 0)
(-6.25295e-05 -0.000426996 0)
)
;

boundaryField
{
    movingWall
    {
        type            fixedValue;
        value           uniform (1 0 0);
    }
    fixedWalls
    {
        type            noSlip;
    }
    frontAndBack
    {
        type            empty;
    }
}


// ************************************************************************* //
