/*--------------------------------*- C++ -*----------------------------------*\
  =========                 |
  \\      /  F ield         | OpenFOAM: The Open Source CFD Toolbox
   \\    /   O peration     | Website:  https://openfoam.org
    \\  /    A nd           | Version:  8
     \\/     M anipulation  |
\*---------------------------------------------------------------------------*/
FoamFile
{
    version     2.0;
    format      ascii;
    class       volVectorField;
    location    "4";
    object      U;
}
// * * * * * * * * * * * * * * * * * * * * * * * * * * * * * * * * * * * * * //

dimensions      [0 1 -1 0 0 0 0];

internalField   nonuniform List<vector> 
116
(
(-0.00105206 0.00102014 0)
(-0.00356118 0.00119099 0)
(-0.00619353 0.00104884 0)
(-0.00833326 0.000775015 0)
(-0.00979563 0.000411596 0)
(-0.0110547 0.000318246 0)
(-0.00138568 0.00358936 0)
(-0.00462307 0.0041695 0)
(-0.0080082 0.00375099 0)
(-0.0108048 0.00304835 0)
(-0.0128674 0.0021131 0)
(-0.014353 0.000852165 0)
(-0.00152977 0.00686988 0)
(-0.00511283 0.00782417 0)
(-0.00884002 0.00694268 0)
(-0.0118747 0.00542023 0)
(-0.0141904 0.00338477 0)
(-0.01576 0.000711567 0)
(-0.00187359 0.0100208 0)
(-0.00611337 0.011883 0)
(-0.010618 0.0107916 0)
(-0.0145375 0.00906269 0)
(-0.0177621 0.00655177 0)
(-0.0198819 0.00309224 0)
(-0.00168941 0.0148768 0)
(-0.00643005 0.015982 0)
(-0.0117197 0.014514 0)
(-0.0160631 0.0114691 0)
(-0.0200944 0.00785086 0)
(-0.0233692 0.00274656 0)
(-0.00404114 0.0178178 0)
(-0.00985663 0.0240528 0)
(-0.0153363 0.0213847 0)
(-0.0213784 0.0194624 0)
(-0.0266383 0.0159031 0)
(-0.0316415 0.0107815 0)
(0.000416028 0.029189 0)
(-0.00643654 0.0237096 0)
(-0.016373 0.0242234 0)
(-0.0212653 0.0191159 0)
(-0.0284168 0.0161187 0)
(-0.0329184 0.00990279 0)
(-0.00326849 0.0219689 0)
(-0.0159495 0.0467808 0)
(-0.0172934 0.0382098 0)
(-0.0297265 0.0365484 0)
(-0.0363345 0.0327613 0)
(-0.0437125 0.0289629 0)
(-0.0579373 0.0542179 0)
(-0.0355338 0.0291038 0)
(-0.0524081 0.034937 0)
(-0.0375889 0.029443 0)
(-0.0355767 0.0274443 0)
(-0.0159663 0.0214836 0)
(0.0695005 0.101307 0)
(0.0997309 0.0551673 0)
(0.137121 0.0412066 0)
(0.181954 0.0282975 0)
(0.185728 0.0192232 0)
(0.23384 0.016783 0)
(-0.0102929 0.0038548 0)
(-0.00727555 -3.04042e-06 0)
(-0.00472346 -0.00286352 0)
(-0.00155489 -0.00382854 0)
(-0.0129155 -4.36731e-05 0)
(-0.00956264 -0.00367228 0)
(-0.00648945 -0.00645511 0)
(-0.00235277 -0.00775329 0)
(-0.0158968 -0.00196368 0)
(-0.0138407 -0.00680345 0)
(-0.0103609 -0.0106641 0)
(-0.00431824 -0.0133809 0)
(-0.0204887 -0.00109306 0)
(-0.0186138 -0.00872765 0)
(-0.0157077 -0.0141987 0)
(-0.00773087 -0.0221612 0)
(-0.0275877 -0.00372133 0)
(-0.0275696 -0.0141044 0)
(-0.0274261 -0.0220519 0)
(-0.0166911 -0.0387025 0)
(-0.0373006 0.00598753 0)
(-0.0384964 -0.00917404 0)
(-0.0432937 -0.0183149 0)
(-0.0282374 -0.0652738 0)
(-0.0462403 0.00428935 0)
(-0.0509666 -0.015165 0)
(-0.0690278 -0.0316562 0)
(-0.0328651 -0.118269 0)
(-0.0586454 0.0327279 0)
(-0.0538002 0.00828856 0)
(-0.0715243 -0.0194576 0)
(0.00842784 -0.165906 0)
(-0.022163 0.0158618 0)
(0.0241115 -0.0170187 0)
(-0.013377 -0.0928158 0)
(0.0616183 -0.210387 0)
(0.209922 0.00192707 0)
(0.255825 0.00129461 0)
(0.180789 -0.0275392 0)
(0.154458 -0.082734 0)
(-0.000190504 -0.000150445 0)
(-0.000453889 -0.000226745 0)
(-0.000405532 -0.00026438 0)
(-0.000142164 -0.000247598 0)
(-0.000292452 0.000851434 0)
(-0.000641743 0.000481482 0)
(-0.000541018 -4.59096e-05 0)
(-0.000191199 -0.000267387 0)
(-0.000760332 0.000638951 0)
(-0.00159767 -5.30109e-05 0)
(-0.00130451 -0.000827879 0)
(-0.000452875 -0.00107043 0)
(-0.00147649 0.00361236 0)
(-0.00234594 0.00120218 0)
(-0.00180165 -0.00107628 0)
(-0.000635374 -0.00183977 0)
)
;

boundaryField
{
    movingWall
    {
        type            fixedValue;
        value           uniform (1 0 0);
    }
    fixedWalls
    {
        type            noSlip;
    }
    frontAndBack
    {
        type            empty;
    }
}


// ************************************************************************* //
