0 	1.65053e-07
1.57135 	-6.82324e-06
3.1427 	-5.12727e-05
4.71405 	-0.000185625
6.28539 	-0.000497284
7.85674 	-0.00110463
9.42809 	-0.0033186
10.9994 	-0.00426401
12.5708 	-0.00381297
14.1421 	0.251117
