0 	3.70873e-10
1.57135 	1.4223e-06
3.1427 	2.62361e-05
4.71405 	0.000137343
6.28539 	0.000436369
7.85674 	0.00104866
9.42809 	0.00211107
10.9994 	0.00383948
12.5708 	0.00693916
14.1421 	0.0623164
