/*--------------------------------*- C++ -*----------------------------------*\
  =========                 |
  \\      /  F ield         | OpenFOAM: The Open Source CFD Toolbox
   \\    /   O peration     | Website:  https://openfoam.org
    \\  /    A nd           | Version:  8
     \\/     M anipulation  |
\*---------------------------------------------------------------------------*/
FoamFile
{
    version     2.0;
    format      ascii;
    class       volScalarField;
    location    "0.03";
    object      p;
}
// * * * * * * * * * * * * * * * * * * * * * * * * * * * * * * * * * * * * * //

dimensions      [0 2 -2 0 0 0 0];

internalField   nonuniform List<scalar> 
400
(
1.53723e-07
-0.00386189
-0.00169199
0.0127182
0.0345285
0.0590009
0.0843878
0.109904
0.134896
0.158679
0.18058
0.200205
0.217263
0.231142
0.241282
0.247453
0.249404
0.246977
0.241085
0.234557
0.00772612
0.0132988
0.0210159
0.0358574
0.0548312
0.0752374
0.0962852
0.117585
0.138735
0.158928
0.177502
0.194371
0.209344
0.221765
0.231145
0.237371
0.240188
0.23925
0.234842
0.22849
0.0212542
0.0292578
0.0385561
0.0524856
0.0691386
0.0867415
0.104962
0.12352
0.142111
0.160089
0.176775
0.19208
0.205941
0.217728
0.226825
0.232983
0.235858
0.235039
0.230369
0.222506
0.0424218
0.0472501
0.0542338
0.0652393
0.0790464
0.0941601
0.110283
0.12704
0.144055
0.16084
0.17679
0.191667
0.205281
0.216993
0.226173
0.232415
0.235182
0.233925
0.228086
0.218058
0.0641236
0.0632276
0.0664371
0.0741827
0.085112
0.0981289
0.112658
0.128162
0.144394
0.160934
0.177063
0.192272
0.206198
0.21827
0.227921
0.234564
0.237382
0.235641
0.228393
0.215966
0.0809665
0.0738953
0.0731622
0.0779917
0.0866965
0.098167
0.111661
0.126682
0.143085
0.16035
0.17751
0.193771
0.208615
0.221562
0.232127
0.239559
0.242751
0.240665
0.231927
0.216768
0.0910905
0.0781412
0.0737647
0.0762613
0.0834373
0.093991
0.107219
0.122768
0.140399
0.159291
0.178235
0.196286
0.212809
0.227329
0.239368
0.248006
0.251844
0.249505
0.23917
0.220822
0.0935
0.0750683
0.0674911
0.0682945
0.0746491
0.085201
0.0992273
0.116346
0.136138
0.157492
0.179003
0.19968
0.218824
0.235867
0.25017
0.260551
0.265322
0.262841
0.2508
0.228751
0.0869881
0.0633467
0.0530621
0.0529257
0.0594252
0.0711796
0.0871928
0.106821
0.129523
0.154125
0.179133
0.203482
0.226406
0.24719
0.264891
0.277931
0.284316
0.282158
0.26844
0.242104
0.0698577
0.041001
0.028671
0.0287287
0.0366945
0.0509749
0.0701667
0.0932479
0.11962
0.148294
0.177865
0.207141
0.235208
0.26118
0.283765
0.300927
0.310319
0.309647
0.294674
0.263386
0.0397864
0.00559789
-0.00774571
-0.00578764
0.00533582
0.0235381
0.0471574
0.0748296
0.105886
0.139582
0.17478
0.210239
0.244876
0.277619
0.306868
0.330191
0.344822
0.34769
0.332556
0.295741
-0.00630077
-0.0457755
-0.0584678
-0.0521777
-0.03566
-0.0118253
0.017671
0.0513097
0.0883276
0.128145
0.169944
0.212645
0.255157
0.296314
0.33434
0.366534
0.389613
0.399198
0.385975
0.343402
-0.0729499
-0.117062
-0.126238
-0.112086
-0.087026
-0.0551196
-0.0179213
0.0232203
0.0675287
0.114547
0.163762
0.21446
0.265873
0.317061
0.366367
0.410998
0.447039
0.46824
0.46068
0.412965
-0.168031
-0.214365
-0.214614
-0.187059
-0.148878
-0.105366
-0.0580954
-0.00789185
0.0447581
0.0996393
0.15662
0.215585
0.276514
0.339196
0.402597
0.464159
0.519422
0.559894
0.565073
0.515346
-0.306172
-0.347434
-0.327997
-0.277825
-0.219849
-0.160072
-0.0998669
-0.0392616
0.0221197
0.0847212
0.14906
0.215923
0.286446
0.361704
0.441939
0.525574
0.608371
0.679896
0.711336
0.669285
-0.514151
-0.530681
-0.47064
-0.383009
-0.295917
-0.21448
-0.138546
-0.0667237
0.00286309
0.0719902
0.142358
0.215994
0.29546
0.383537
0.482584
0.593484
0.714155
0.833973
0.91633
0.906777
-0.840286
-0.782668
-0.64435
-0.497814
-0.369835
-0.26125
-0.167997
-0.0854801
-0.00933081
0.0641824
0.138384
0.216763
0.303419
0.403221
0.521737
0.664519
0.834761
1.02578
1.20092
1.2823
-1.39308
-1.12437
-0.837313
-0.605667
-0.426529
-0.28855
-0.179941
-0.0901804
-0.0111338
0.0632652
0.137948
0.217683
0.30802
0.41616
0.551929
0.728096
0.957491
1.247
1.5916
1.91457
-2.46391
-1.56383
-0.976733
-0.641348
-0.42088
-0.267875
-0.157553
-0.0716265
0.00179319
0.0702708
0.139307
0.213928
0.300167
0.406649
0.547045
0.742726
1.02232
1.43285
2.10782
3.10707
-4.29575
-1.98925
-0.921678
-0.511902
-0.302001
-0.174125
-0.0894362
-0.0254371
0.0301161
0.0836483
0.139181
0.200233
0.271303
0.359762
0.479184
0.655024
0.934079
1.44042
2.62001
5.03705
)
;

boundaryField
{
    movingWall
    {
        type            zeroGradient;
    }
    fixedWalls
    {
        type            zeroGradient;
    }
    frontAndBack
    {
        type            empty;
    }
}


// ************************************************************************* //
