/*--------------------------------*- C++ -*----------------------------------*\
  =========                 |
  \\      /  F ield         | OpenFOAM: The Open Source CFD Toolbox
   \\    /   O peration     | Website:  https://openfoam.org
    \\  /    A nd           | Version:  8
     \\/     M anipulation  |
\*---------------------------------------------------------------------------*/
FoamFile
{
    version     2.0;
    format      ascii;
    class       surfaceScalarField;
    location    "0.03";
    object      phi;
}
// * * * * * * * * * * * * * * * * * * * * * * * * * * * * * * * * * * * * * //

dimensions      [0 3 -1 0 0 0 0];

internalField   nonuniform List<scalar> 
760
(
3.0302e-09
-3.03046e-09
-1.17339e-07
1.20369e-07
-3.46233e-07
2.28895e-07
-5.78648e-07
2.32415e-07
-7.71521e-07
1.92873e-07
-9.17058e-07
1.45537e-07
-1.01627e-06
9.921e-08
-1.07167e-06
5.54024e-08
-1.08516e-06
1.34952e-08
-1.05889e-06
-2.62708e-08
-9.95746e-07
-6.31467e-08
-8.98694e-07
-9.70521e-08
-7.72242e-07
-1.26453e-07
-6.24282e-07
-1.4796e-07
-4.65068e-07
-1.59214e-07
-3.06853e-07
-1.58215e-07
-1.64988e-07
-1.41865e-07
-5.72269e-08
-1.07761e-07
-8.44912e-10
-5.6382e-08
-8.44086e-10
2.94575e-08
-3.24883e-08
-1.10697e-07
2.60524e-07
-4.38801e-07
5.57e-07
-8.38564e-07
6.3218e-07
-1.23014e-06
5.8445e-07
-1.57044e-06
4.85836e-07
-1.83838e-06
3.67144e-07
-2.02305e-06
2.4008e-07
-2.11976e-06
1.10205e-07
-2.12733e-06
-1.87034e-08
-2.04813e-06
-1.42348e-07
-1.8886e-06
-2.56579e-07
-1.65916e-06
-3.55899e-07
-1.37465e-06
-4.32469e-07
-1.05636e-06
-4.77501e-07
-7.32293e-07
-4.82285e-07
-4.34998e-07
-4.39161e-07
-1.97694e-07
-3.45065e-07
-4.77961e-08
-2.0628e-07
-4.86402e-08
4.72024e-08
-7.96901e-08
-7.0984e-08
3.78708e-07
-3.96505e-07
8.8252e-07
-8.43897e-07
1.07957e-06
-1.32698e-06
1.06754e-06
-1.78313e-06
9.41988e-07
-2.17023e-06
7.5424e-07
-2.46194e-06
5.31796e-07
-2.64315e-06
2.91411e-07
-2.70724e-06
4.53897e-08
-2.65357e-06
-1.96022e-07
-2.48725e-06
-4.229e-07
-2.2203e-06
-6.22846e-07
-1.87202e-06
-7.80749e-07
-1.46938e-06
-8.80146e-07
-1.04726e-06
-9.04404e-07
-6.47064e-07
-8.39355e-07
-3.13465e-07
-6.78664e-07
-8.63655e-08
-4.33379e-07
-1.35005e-07
-1.32748e-08
-6.64144e-08
-1.89551e-07
5.54986e-07
-5.53631e-07
1.2466e-06
-1.04674e-06
1.57268e-06
-1.59155e-06
1.61235e-06
-2.1209e-06
1.47133e-06
-2.58291e-06
1.21625e-06
-2.94242e-06
8.91313e-07
-3.17726e-06
5.26245e-07
-3.27497e-06
1.43097e-07
-3.23195e-06
-2.3904e-07
-3.05268e-06
-6.02163e-07
-2.749e-06
-9.26536e-07
-2.34111e-06
-1.18863e-06
-1.85919e-06
-1.36207e-06
-1.34376e-06
-1.41984e-06
-8.44647e-07
-1.33847e-06
-4.17663e-07
-1.10565e-06
-1.18233e-07
-7.32809e-07
-2.53238e-07
-9.49752e-08
2.85612e-08
-3.73526e-07
8.33536e-07
-8.19416e-07
1.69249e-06
-1.38265e-06
2.13592e-06
-1.99371e-06
2.2234e-06
-2.58571e-06
2.06334e-06
-3.1047e-06
1.73523e-06
-3.51133e-06
1.29795e-06
-3.77972e-06
7.94636e-07
-3.89475e-06
2.5812e-07
-3.85028e-06
-2.83504e-07
-3.64884e-06
-8.03609e-07
-3.30147e-06
-1.27391e-06
-2.82898e-06
-1.66112e-06
-2.26354e-06
-1.9275e-06
-1.64997e-06
-2.0334e-06
-1.0463e-06
-1.94214e-06
-5.21012e-07
-1.63094e-06
-1.48139e-07
-1.10568e-06
-4.01377e-07
-1.69777e-07
1.98337e-07
-5.66587e-07
1.23035e-06
-1.12313e-06
2.24904e-06
-1.78234e-06
2.79512e-06
-2.47556e-06
2.91662e-06
-3.13614e-06
2.72392e-06
-3.71005e-06
2.30914e-06
-4.15757e-06
1.74547e-06
-4.45189e-06
1.08896e-06
-4.57689e-06
3.83116e-07
-4.52513e-06
-3.35264e-07
-4.2974e-06
-1.03133e-06
-3.90309e-06
-1.66822e-06
-3.36198e-06
-2.20223e-06
-2.707e-06
-2.58248e-06
-1.98708e-06
-2.75332e-06
-1.26902e-06
-2.66019e-06
-6.35693e-07
-2.26427e-06
-1.81177e-07
-1.5602e-06
-5.82554e-07
-2.36815e-07
4.35154e-07
-7.57694e-07
1.75122e-06
-1.44542e-06
2.93677e-06
-2.22396e-06
3.57367e-06
-3.01692e-06
3.70958e-06
-3.75644e-06
3.46344e-06
-4.38926e-06
2.94197e-06
-4.87749e-06
2.2337e-06
-5.19592e-06
1.40738e-06
-5.32923e-06
5.16422e-07
-5.26948e-06
-3.95005e-07
-5.01554e-06
-1.28528e-06
-4.57413e-06
-2.10963e-06
-3.96258e-06
-2.81378e-06
-3.21301e-06
-3.33205e-06
-2.37738e-06
-3.58895e-06
-1.53114e-06
-3.50643e-06
-7.73651e-07
-3.02176e-06
-2.21996e-07
-2.11185e-06
-8.04551e-07
-3.00719e-07
7.35874e-07
-9.53279e-07
2.40378e-06
-1.78977e-06
3.77326e-06
-2.7064e-06
4.4903e-06
-3.6136e-06
4.61677e-06
-4.44007e-06
4.28991e-06
-5.13462e-06
3.63652e-06
-5.6634e-06
2.76247e-06
-6.00524e-06
1.74922e-06
-6.14737e-06
6.58554e-07
-6.08233e-06
-4.60046e-07
-5.80674e-06
-1.56087e-06
-5.32327e-06
-2.5931e-06
-4.64443e-06
-3.49262e-06
-3.79879e-06
-4.17769e-06
-2.83901e-06
-4.54874e-06
-1.84863e-06
-4.4968e-06
-9.45553e-07
-3.92484e-06
-2.75041e-07
-2.78237e-06
-1.07959e-06
-3.68076e-07
1.10395e-06
-1.16453e-06
3.20024e-06
-2.16667e-06
4.7754e-06
-3.23515e-06
5.55878e-06
-4.26382e-06
5.64544e-06
-5.17743e-06
5.20352e-06
-5.92936e-06
4.38844e-06
-6.49308e-06
3.32619e-06
-6.85462e-06
2.11076e-06
-7.00586e-06
8.09796e-07
-6.94072e-06
-5.25186e-07
-6.65325e-06
-1.84834e-06
-6.14007e-06
-3.10628e-06
-5.40551e-06
-4.22718e-06
-4.47027e-06
-5.11292e-06
-3.38336e-06
-5.63565e-06
-2.23416e-06
-5.646e-06
-1.1604e-06
-4.99861e-06
-3.4383e-07
-3.59893e-06
-1.42342e-06
-4.4492e-07
1.54887e-06
-1.40331e-06
4.15862e-06
-2.58679e-06
5.95888e-06
-3.81308e-06
6.78507e-06
-4.95782e-06
6.79018e-06
-5.94478e-06
6.19049e-06
-6.73659e-06
5.18025e-06
-7.31912e-06
3.90872e-06
-7.68969e-06
2.48133e-06
-7.8477e-06
9.67805e-07
-7.78954e-06
-5.83342e-07
-7.50636e-06
-2.13152e-06
-6.98637e-06
-3.62626e-06
-6.22116e-06
-4.99239e-06
-5.21716e-06
-6.11692e-06
-4.01243e-06
-6.84038e-06
-2.69657e-06
-6.96186e-06
-1.42672e-06
-6.26845e-06
-4.31585e-07
-4.59407e-06
-1.85501e-06
-5.37347e-07
2.08622e-06
-1.68109e-06
5.30237e-06
-3.05746e-06
7.33525e-06
-4.43312e-06
8.16072e-06
-5.6678e-06
8.02486e-06
-6.69224e-06
7.21493e-06
-7.48633e-06
5.97434e-06
-8.05569e-06
4.47808e-06
-8.41404e-06
2.83968e-06
-8.57174e-06
1.1255e-06
-8.5291e-06
-6.25984e-07
-8.27416e-06
-2.38647e-06
-7.78434e-06
-4.11608e-06
-7.03324e-06
-5.74349e-06
-6.00443e-06
-7.14573e-06
-4.71379e-06
-8.13102e-06
-3.2398e-06
-8.43585e-06
-1.75455e-06
-7.7537e-06
-5.43855e-07
-5.80477e-06
-2.39886e-06
-6.54433e-07
2.74065e-06
-2.01039e-06
6.65832e-06
-3.57871e-06
8.90357e-06
-5.0689e-06
9.65091e-06
-6.33451e-06
9.29047e-06
-7.32809e-06
8.20851e-06
-8.05919e-06
6.70544e-06
-8.56237e-06
4.98126e-06
-8.87337e-06
3.15068e-06
-9.01676e-06
1.26889e-06
-8.99849e-06
-6.44251e-07
-8.80388e-06
-2.58108e-06
-8.39813e-06
-4.52182e-06
-7.73204e-06
-6.40959e-06
-6.75637e-06
-8.1214e-06
-5.449e-06
-9.43839e-06
-3.8576e-06
-1.00273e-05
-2.15521e-06
-9.45609e-06
-6.90398e-07
-7.26958e-06
-3.08926e-06
-8.10625e-07
3.55128e-06
-2.40437e-06
8.25207e-06
-4.13498e-06
1.06342e-05
-5.65881e-06
1.11747e-05
-6.84659e-06
1.04782e-05
-7.69639e-06
9.05831e-06
-8.26454e-06
7.27359e-06
-8.62354e-06
5.34027e-06
-8.83585e-06
3.36299e-06
-8.94227e-06
1.37531e-06
-8.95606e-06
-6.30462e-07
-8.86109e-06
-2.67605e-06
-8.61092e-06
-4.77199e-06
-8.13134e-06
-6.88917e-06
-7.33157e-06
-8.92116e-06
-6.13227e-06
-1.06377e-05
-4.52024e-06
-1.16393e-05
-2.63731e-06
-1.1339e-05
-8.86129e-07
-9.02076e-06
-3.97539e-06
-1.02896e-06
4.58024e-06
-2.87192e-06
1.0095e-05
-4.67628e-06
1.24385e-05
-6.0762e-06
1.25747e-05
-7.00642e-06
1.14085e-05
-7.54441e-06
9.59631e-06
-7.81235e-06
7.54154e-06
-7.92624e-06
5.45415e-06
-7.97505e-06
3.4118e-06
-8.01404e-06
1.41429e-06
-8.06392e-06
-5.80576e-07
-8.11002e-06
-2.62995e-06
-8.09907e-06
-4.78295e-06
-7.93588e-06
-7.05236e-06
-7.48564e-06
-9.3714e-06
-6.59425e-06
-1.15291e-05
-5.14802e-06
-1.30855e-05
-3.19707e-06
-1.329e-05
-1.15377e-06
-1.10641e-05
-5.12916e-06
-1.3436e-06
5.92384e-06
-3.39852e-06
1.21499e-05
-5.07393e-06
1.4114e-05
-6.07336e-06
1.35741e-05
-6.47645e-06
1.18116e-05
-6.48064e-06
9.6005e-06
-6.28414e-06
7.34503e-06
-6.04127e-06
5.21128e-06
-5.85766e-06
3.2282e-06
-5.79531e-06
1.35194e-06
-5.87957e-06
-4.96316e-07
-6.10094e-06
-2.40857e-06
-6.40986e-06
-4.47403e-06
-6.70509e-06
-6.75714e-06
-6.82023e-06
-9.25626e-06
-6.52273e-06
-1.18266e-05
-5.55814e-06
-1.40501e-05
-3.79036e-06
-1.50578e-05
-1.52246e-06
-1.3332e-05
-6.65161e-06
-1.78837e-06
7.71222e-06
-3.88246e-06
1.4244e-05
-5.0205e-06
1.5252e-05
-5.18149e-06
1.37351e-05
-4.70078e-06
1.13309e-05
-3.92278e-06
8.8225e-06
-3.10625e-06
6.5285e-06
-2.41705e-06
4.52207e-06
-1.95162e-06
2.76278e-06
-1.76176e-06
1.16208e-06
-1.87079e-06
-3.8729e-07
-2.27876e-06
-2.0006e-06
-2.95615e-06
-3.79664e-06
-3.82431e-06
-5.88897e-06
-4.72227e-06
-8.3583e-06
-5.36928e-06
-1.11796e-05
-5.35717e-06
-1.40622e-05
-4.25195e-06
-1.6163e-05
-2.00573e-06
-1.55782e-05
-8.65734e-06
-2.32893e-06
1.00411e-05
-3.95025e-06
1.58654e-05
-3.8154e-06
1.51171e-05
-2.53951e-06
1.24592e-05
-8.03765e-07
9.59512e-06
9.40627e-07
7.0781e-06
2.44433e-06
5.0248e-06
3.58934e-06
3.37706e-06
4.32856e-06
2.02356e-06
4.64427e-06
8.46367e-07
4.52568e-06
-2.68692e-07
3.96101e-06
-1.43593e-06
2.94246e-06
-2.7781e-06
1.48783e-06
-4.43434e-06
-3.1303e-07
-6.55744e-06
-2.22072e-06
-9.27188e-06
-3.74607e-06
-1.25369e-05
-4.09884e-06
-1.58102e-05
-2.51107e-06
-1.7166e-05
-1.11684e-05
-2.62854e-06
1.26697e-05
-2.47286e-06
1.57097e-05
6.55329e-08
1.25787e-05
3.35477e-06
9.16995e-06
6.49743e-06
6.45246e-06
9.13411e-06
4.44143e-06
1.11671e-05
2.99183e-06
1.26095e-05
1.93465e-06
1.35057e-05
1.12731e-06
1.3892e-05
4.60107e-07
1.37792e-05
-1.5588e-07
1.31465e-05
-8.03255e-07
1.19418e-05
-1.57338e-06
1.00925e-05
-2.58506e-06
7.54147e-06
-4.0064e-06
4.33547e-06
-6.06588e-06
8.08533e-07
-9.00992e-06
-2.0951e-06
-1.29066e-05
-2.5848e-06
-1.66763e-05
-1.37532e-05
-8.45949e-07
1.35156e-05
3.87478e-06
1.09889e-05
9.80525e-06
6.64828e-06
1.49201e-05
4.05513e-06
1.88541e-05
2.51841e-06
2.17205e-05
1.57505e-06
2.37264e-05
9.85951e-07
2.50578e-05
6.03211e-07
2.58495e-05
3.35627e-07
2.6182e-05
1.27576e-07
2.60851e-05
-5.89307e-08
2.55377e-05
-2.55844e-07
2.44634e-05
-4.99148e-07
2.27211e-05
-8.42716e-07
2.00952e-05
-1.38048e-06
1.63131e-05
-2.28385e-06
1.11692e-05
-3.86604e-06
4.95477e-06
-6.6921e-06
-3.06406e-07
-1.14151e-05
-1.40596e-05
1.35156e-05
2.45046e-05
3.11528e-05
3.5208e-05
3.77264e-05
3.93014e-05
4.02874e-05
4.08906e-05
4.12262e-05
4.13538e-05
4.12949e-05
4.1039e-05
4.05399e-05
3.96972e-05
3.83167e-05
3.60328e-05
3.21668e-05
2.54747e-05
1.40596e-05
)
;

boundaryField
{
    movingWall
    {
        type            calculated;
        value           uniform 0;
    }
    fixedWalls
    {
        type            calculated;
        value           uniform 0;
    }
    frontAndBack
    {
        type            empty;
        value           nonuniform List<scalar> 0();
    }
}


// ************************************************************************* //
