/*--------------------------------*- C++ -*----------------------------------*\
  =========                 |
  \\      /  F ield         | OpenFOAM: The Open Source CFD Toolbox
   \\    /   O peration     | Website:  https://openfoam.org
    \\  /    A nd           | Version:  8
     \\/     M anipulation  |
\*---------------------------------------------------------------------------*/
FoamFile
{
    version     2.0;
    format      ascii;
    class       volVectorField;
    location    "0.03";
    object      U;
}
// * * * * * * * * * * * * * * * * * * * * * * * * * * * * * * * * * * * * * //

dimensions      [0 1 -1 0 0 0 0];

internalField   nonuniform List<vector> 
400
(
(0.000315106 0.000104321 0)
(-0.000635615 0.0017655 0)
(-0.00440061 0.00276965 0)
(-0.00923831 0.00251833 0)
(-0.0136701 0.00188838 0)
(-0.0170991 0.00128222 0)
(-0.0195399 0.000762363 0)
(-0.0210752 0.000334785 0)
(-0.0217554 -3.79211e-05 0)
(-0.0216162 -0.00037403 0)
(-0.0207182 -0.000670162 0)
(-0.0190953 -0.000935895 0)
(-0.016821 -0.00115766 0)
(-0.01404 -0.00130349 0)
(-0.0109183 -0.00136335 0)
(-0.00767086 -0.00133156 0)
(-0.00459543 -0.00117723 0)
(-0.0020488 -0.000868669 0)
(-0.000380355 -0.000411451 0)
(5.8176e-05 5.73579e-05 0)
(0.00120924 -0.000192793 0)
(8.14703e-05 0.0039096 0)
(-0.00486021 0.00774629 0)
(-0.0125348 0.00825216 0)
(-0.0208426 0.00714992 0)
(-0.0283097 0.0056002 0)
(-0.0344788 0.00397216 0)
(-0.0390274 0.00235783 0)
(-0.0418432 0.000791741 0)
(-0.0429048 -0.00072004 0)
(-0.04218 -0.00214358 0)
(-0.0397305 -0.00344317 0)
(-0.0357724 -0.00455922 0)
(-0.0305627 -0.00539524 0)
(-0.0244144 -0.00585178 0)
(-0.0178231 -0.0058331 0)
(-0.0114477 -0.00524104 0)
(-0.00596811 -0.00402652 0)
(-0.00203274 -0.00224619 0)
(-0.000296405 -0.000334293 0)
(0.00143472 -0.00119423 0)
(0.000751281 0.00632107 0)
(-0.00381363 0.0143138 0)
(-0.0119518 0.0168632 0)
(-0.0217044 0.0161253 0)
(-0.0313545 0.0137899 0)
(-0.0399511 0.0107182 0)
(-0.0468366 0.00728233 0)
(-0.0516002 0.00367187 0)
(-0.0540832 4.87411e-05 0)
(-0.0541983 -0.0034562 0)
(-0.0519377 -0.00672241 0)
(-0.0475128 -0.00957244 0)
(-0.0412614 -0.0117836 0)
(-0.0336033 -0.0131216 0)
(-0.0251501 -0.0133479 0)
(-0.0167149 -0.0122531 0)
(-0.00915513 -0.00975342 0)
(-0.00342168 -0.00603484 0)
(-0.00060395 -0.00168675 0)
(0.000646091 -0.00167584 0)
(-0.0011088 0.00904938 0)
(-0.00659766 0.0210631 0)
(-0.015488 0.0262994 0)
(-0.0263015 0.0265318 0)
(-0.0373457 0.0238447 0)
(-0.0474674 0.0194226 0)
(-0.0558247 0.0139858 0)
(-0.0618417 0.00799368 0)
(-0.0652116 0.00178135 0)
(-0.0657703 -0.00435535 0)
(-0.063493 -0.0101416 0)
(-0.0585745 -0.0152715 0)
(-0.0513469 -0.0193693 0)
(-0.042273 -0.0220093 0)
(-0.0320621 -0.0227637 0)
(-0.0216546 -0.0212767 0)
(-0.0120931 -0.0173801 0)
(-0.0046341 -0.0113285 0)
(-0.00083563 -0.00375248 0)
(-0.00029742 -0.000704114 0)
(-0.00382186 0.0133551 0)
(-0.0111497 0.0289185 0)
(-0.0215526 0.0366817 0)
(-0.0336957 0.037996 0)
(-0.0460223 0.0350349 0)
(-0.0573748 0.0292518 0)
(-0.0667971 0.0216791 0)
(-0.0736307 0.0130595 0)
(-0.0775151 0.00394527 0)
(-0.0782421 -0.00519944 0)
(-0.0757438 -0.0139358 0)
(-0.0701733 -0.0217842 0)
(-0.061851 -0.0281763 0)
(-0.0512733 -0.0324784 0)
(-0.0392199 -0.0340408 0)
(-0.0267345 -0.0322838 0)
(-0.0150554 -0.0268797 0)
(-0.0058007 -0.0180274 0)
(-0.00104439 -0.00640596 0)
(-0.00108662 0.00194526 0)
(-0.00645388 0.0200626 0)
(-0.0161648 0.0388243 0)
(-0.0286614 0.0487805 0)
(-0.0425713 0.0509617 0)
(-0.0564105 0.0475153 0)
(-0.0690062 0.0401621 0)
(-0.0793856 0.0302297 0)
(-0.0868864 0.0187113 0)
(-0.0911327 0.00636916 0)
(-0.0918936 -0.00614469 0)
(-0.0890764 -0.0182133 0)
(-0.0827878 -0.0291863 0)
(-0.073306 -0.0382944 0)
(-0.0611291 -0.0446561 0)
(-0.0470858 -0.047333 0)
(-0.0323354 -0.0454379 0)
(-0.0183375 -0.0383924 0)
(-0.00709933 -0.0262327 0)
(-0.00127757 -0.00966823 0)
(-0.00173352 0.00604277 0)
(-0.0089063 0.0292136 0)
(-0.0213001 0.0511885 0)
(-0.0363841 0.0630692 0)
(-0.0525005 0.0657455 0)
(-0.0681371 0.0614657 0)
(-0.0820992 0.05221 0)
(-0.0934548 0.0395933 0)
(-0.101596 0.0248584 0)
(-0.106171 0.00897097 0)
(-0.106941 -0.00725181 0)
(-0.103796 -0.0230309 0)
(-0.0967927 -0.0375439 0)
(-0.086142 -0.0498111 0)
(-0.072307 -0.0586739 0)
(-0.0561313 -0.0628387 0)
(-0.038882 -0.061011 0)
(-0.0222483 -0.052221 0)
(-0.0086918 -0.0362175 0)
(-0.00157253 -0.0136644 0)
(-0.00228592 0.0114266 0)
(-0.0113152 0.0409219 0)
(-0.0266677 0.0663639 0)
(-0.0447501 0.07995 0)
(-0.0634272 0.0826927 0)
(-0.0810756 0.0771082 0)
(-0.0965037 0.0654967 0)
(-0.108853 0.0497881 0)
(-0.117616 0.0314808 0)
(-0.122512 0.0117318 0)
(-0.123324 -0.00851152 0)
(-0.119923 -0.0283554 0)
(-0.112307 -0.0468287 0)
(-0.100583 -0.0627425 0)
(-0.0851235 -0.0746303 0)
(-0.0667284 -0.080764 0)
(-0.0467341 -0.0793139 0)
(-0.0270658 -0.0687383 0)
(-0.0107249 -0.0483534 0)
(-0.00196722 -0.0185914 0)
(-0.0028311 0.0180942 0)
(-0.0138737 0.0553532 0)
(-0.0325145 0.0846786 0)
(-0.0539359 0.0997496 0)
(-0.0753876 0.102043 0)
(-0.0951067 0.094544 0)
(-0.111951 0.0800183 0)
(-0.125186 0.0607647 0)
(-0.134465 0.0385406 0)
(-0.139634 0.0146598 0)
(-0.140539 -0.00985 0)
(-0.13704 -0.0340517 0)
(-0.129041 -0.0568797 0)
(-0.116501 -0.0769595 0)
(-0.0996228 -0.0924938 0)
(-0.0790683 -0.101234 0)
(-0.0561524 -0.100648 0)
(-0.0330243 -0.0883863 0)
(-0.0133242 -0.0630953 0)
(-0.0024944 -0.0247123 0)
(-0.00344574 0.0261798 0)
(-0.0167873 0.0728079 0)
(-0.039095 0.106466 0)
(-0.0640991 0.122694 0)
(-0.0883263 0.123844 0)
(-0.109902 0.11366 0)
(-0.127827 0.095578 0)
(-0.141596 0.0723301 0)
(-0.151107 0.0459222 0)
(-0.1564 0.0177569 0)
(-0.15744 -0.0111333 0)
(-0.154085 -0.0398593 0)
(-0.146111 -0.0673532 0)
(-0.133261 -0.0921179 0)
(-0.115459 -0.11203 0)
(-0.0930837 -0.124233 0)
(-0.0672731 -0.125283 0)
(-0.0403245 -0.111703 0)
(-0.0166199 -0.0810482 0)
(-0.00318528 -0.0323783 0)
(-0.00419914 0.0359292 0)
(-0.0202653 0.0937208 0)
(-0.0466416 0.132034 0)
(-0.0752761 0.148808 0)
(-0.101919 0.147829 0)
(-0.124691 0.134005 0)
(-0.142915 0.111665 0)
(-0.156492 0.084037 0)
(-0.165686 0.0533347 0)
(-0.170809 0.0209513 0)
(-0.17199 -0.0121988 0)
(-0.169109 -0.0453891 0)
(-0.161788 -0.077679 0)
(-0.149483 -0.107564 0)
(-0.131695 -0.132654 0)
(-0.108311 -0.149431 0)
(-0.0800507 -0.153301 0)
(-0.0491526 -0.139216 0)
(-0.020804 -0.102957 0)
(-0.00410164 -0.0420324 0)
(-0.00519965 0.0477489 0)
(-0.0245849 0.118626 0)
(-0.0553535 0.161553 0)
(-0.0872516 0.177729 0)
(-0.115322 0.173217 0)
(-0.137953 0.154598 0)
(-0.155076 0.127291 0)
(-0.16724 0.0950576 0)
(-0.175216 0.0602212 0)
(-0.179671 0.0240396 0)
(-0.180937 -0.0128585 0)
(-0.178937 -0.0500684 0)
(-0.173144 -0.0869466 0)
(-0.162668 -0.122157 0)
(-0.146444 -0.153182 0)
(-0.123605 -0.175871 0)
(-0.0940832 -0.184278 0)
(-0.0596417 -0.171186 0)
(-0.0261648 -0.129593 0)
(-0.00536901 -0.054251 0)
(-0.00664041 0.0622742 0)
(-0.0301402 0.148096 0)
(-0.0653189 0.19482 0)
(-0.099308 0.20841 0)
(-0.126791 0.198414 0)
(-0.14697 0.173685 0)
(-0.160799 0.140836 0)
(-0.169732 0.104099 0)
(-0.175181 0.0657275 0)
(-0.178224 0.0266625 0)
(-0.179426 -0.0129353 0)
(-0.17877 -0.053167 0)
(-0.175613 -0.0938921 0)
(-0.168718 -0.134182 0)
(-0.156359 -0.171649 0)
(-0.136657 -0.201698 0)
(-0.108246 -0.216957 0)
(-0.0716983 -0.207374 0)
(-0.0330895 -0.161714 0)
(-0.00720833 -0.0698629 0)
(-0.00886684 0.080512 0)
(-0.0374703 0.182602 0)
(-0.076273 0.230827 0)
(-0.109706 0.238629 0)
(-0.13301 0.220632 0)
(-0.14714 0.188492 0)
(-0.154579 0.149924 0)
(-0.157882 0.109341 0)
(-0.159155 0.0686604 0)
(-0.159842 0.0282667 0)
(-0.160715 -0.0123198 0)
(-0.161841 -0.0538706 0)
(-0.162545 -0.0969485 0)
(-0.161351 -0.14132 0)
(-0.155923 -0.185128 0)
(-0.143222 -0.223781 0)
(-0.120021 -0.248714 0)
(-0.0846235 -0.246543 0)
(-0.0420403 -0.199875 0)
(-0.00999425 -0.0900873 0)
(-0.0124582 0.104041 0)
(-0.0471511 0.222102 0)
(-0.0869245 0.266979 0)
(-0.114597 0.264272 0)
(-0.127958 0.235456 0)
(-0.131005 0.195063 0)
(-0.12821 0.151447 0)
(-0.123175 0.108569 0)
(-0.118505 0.0676134 0)
(-0.115838 0.028172 0)
(-0.116026 -0.0109789 0)
(-0.119227 -0.0513557 0)
(-0.124875 -0.0943513 0)
(-0.131531 -0.140704 0)
(-0.136572 -0.189611 0)
(-0.135971 -0.237269 0)
(-0.124289 -0.27472 0)
(-0.0962407 -0.285411 0)
(-0.0532925 -0.243741 0)
(-0.0142854 -0.116681 0)
(-0.0181331 0.135336 0)
(-0.0590597 0.265055 0)
(-0.0931837 0.297684 0)
(-0.105873 0.278385 0)
(-0.101058 0.23655 0)
(-0.0869712 0.188496 0)
(-0.0700188 0.141969 0)
(-0.0543443 0.0995811 0)
(-0.0424494 0.061286 0)
(-0.0357248 0.025739 0)
(-0.0348739 -0.00898446 0)
(-0.0401165 -0.0450399 0)
(-0.0512051 -0.0845933 0)
(-0.0671849 -0.129482 0)
(-0.0858398 -0.180457 0)
(-0.102917 -0.235575 0)
(-0.111192 -0.28715 0)
(-0.100815 -0.317123 0)
(-0.0658674 -0.290847 0)
(-0.0205953 -0.152116 0)
(-0.025746 0.178591 0)
(-0.0696536 0.306026 0)
(-0.0838314 0.311656 0)
(-0.067107 0.269974 0)
(-0.03441 0.215734 0)
(0.00201951 0.163658 0)
(0.0353261 0.118648 0)
(0.0621776 0.0809609 0)
(0.0811631 0.0490112 0)
(0.0917709 0.0206176 0)
(0.093782 -0.00655925 0)
(0.0869896 -0.0349509 0)
(0.0711482 -0.067129 0)
(0.0462057 -0.10579 0)
(0.0129655 -0.153407 0)
(-0.02568 -0.210943 0)
(-0.0627357 -0.274544 0)
(-0.0848293 -0.328882 0)
(-0.0742605 -0.333951 0)
(-0.0280127 -0.200124 0)
(-0.0294564 0.237615 0)
(-0.0634982 0.329111 0)
(-0.0308094 0.288496 0)
(0.0332489 0.224323 0)
(0.100239 0.16525 0)
(0.158935 0.117682 0)
(0.20578 0.081289 0)
(0.240399 0.0535429 0)
(0.263603 0.0316556 0)
(0.276319 0.0131676 0)
(0.279063 -0.0040856 0)
(0.271757 -0.0221925 0)
(0.253654 -0.0434355 0)
(0.223408 -0.0706116 0)
(0.179501 -0.107269 0)
(0.121361 -0.157352 0)
(0.0516156 -0.223199 0)
(-0.0189784 -0.299503 0)
(-0.0600254 -0.353926 0)
(-0.0286646 -0.261776 0)
(0.00881908 0.281273 0)
(0.0186149 0.292261 0)
(0.132566 0.20584 0)
(0.251103 0.136672 0)
(0.342729 0.0896767 0)
(0.409894 0.0584144 0)
(0.457789 0.0376787 0)
(0.490527 0.0235743 0)
(0.511316 0.013398 0)
(0.522323 0.00533299 0)
(0.524645 -0.0019489 0)
(0.518381 -0.00961525 0)
(0.502588 -0.0189724 0)
(0.4751 -0.0318653 0)
(0.432414 -0.0512516 0)
(0.369603 -0.0819573 0)
(0.279965 -0.131264 0)
(0.158454 -0.207843 0)
(0.0360328 -0.305041 0)
(0.0183699 -0.297215 0)
(0.300325 0.145902 0)
(0.396423 0.126863 0)
(0.554758 0.0749615 0)
(0.66847 0.0422679 0)
(0.733946 0.0240246 0)
(0.773166 0.0137925 0)
(0.79777 0.00798349 0)
(0.813117 0.00456153 0)
(0.822189 0.00238525 0)
(0.826662 0.000823633 0)
(0.827316 -0.000512223 0)
(0.824255 -0.00192516 0)
(0.816939 -0.00374556 0)
(0.80398 -0.00651381 0)
(0.782635 -0.0112792 0)
(0.747686 -0.0201478 0)
(0.687407 -0.0373131 0)
(0.576972 -0.0705571 0)
(0.41387 -0.126144 0)
(0.309119 -0.148801 0)
)
;

boundaryField
{
    movingWall
    {
        type            fixedValue;
        value           uniform (1 0 0);
    }
    fixedWalls
    {
        type            noSlip;
    }
    frontAndBack
    {
        type            empty;
    }
}


// ************************************************************************* //
