0 	5.84718e-08
1.57135 	-2.99038e-09
3.1427 	2.51207e-06
4.71405 	2.20285e-05
6.28539 	9.18851e-05
7.85674 	0.000283876
9.42809 	0.00072768
10.9994 	0.0015587
12.5708 	0.001377
14.1421 	0.160779
