/*--------------------------------*- C++ -*----------------------------------*\
  =========                 |
  \\      /  F ield         | OpenFOAM: The Open Source CFD Toolbox
   \\    /   O peration     | Website:  https://openfoam.org
    \\  /    A nd           | Version:  8
     \\/     M anipulation  |
\*---------------------------------------------------------------------------*/
FoamFile
{
    version     2.0;
    format      ascii;
    class       volScalarField;
    location    "0.07";
    object      p;
}
// * * * * * * * * * * * * * * * * * * * * * * * * * * * * * * * * * * * * * //

dimensions      [0 2 -2 0 0 0 0];

internalField   nonuniform List<scalar> 
400
(
-3.13151e-08
-0.00547693
-0.0121251
-0.0170407
-0.0185759
-0.0160348
-0.0094033
0.000857404
0.0139573
0.028887
0.0445006
0.0595828
0.072921
0.0833973
0.0901085
0.0925229
0.0906784
0.0854056
0.07854
0.0730858
0.00537913
-0.000219821
-0.00537946
-0.00867698
-0.0093247
-0.00683159
-0.00115606
0.00736856
0.0181393
0.0303655
0.0431373
0.0554855
0.0664471
0.0751439
0.080879
0.0832562
0.0823273
0.0786895
0.0733058
0.0677067
0.0124035
0.00466734
-0.000888781
-0.00388358
-0.00433261
-0.00198485
0.00313534
0.0107139
0.0202313
0.0310156
0.042291
0.0532257
0.0629862
0.0708002
0.0760341
0.0782909
0.0775416
0.0741406
0.0682704
0.0604663
0.0187332
0.00803759
0.00112706
-0.002305
-0.00293894
-0.000740564
0.00416289
0.0114174
0.0205192
0.0308441
0.0416749
0.0522362
0.0617335
0.0694039
0.0745795
0.0767776
0.0758409
0.071908
0.0645343
0.0536552
0.022808
0.0089663
0.000407069
-0.00368302
-0.00456124
-0.00238476
0.00261095
0.0100091
0.0192911
0.0298449
0.0409717
0.0519058
0.0618409
0.0699683
0.0755306
0.0779112
0.0767974
0.0721256
0.0629121
0.04869
0.0234509
0.00637963
-0.00392395
-0.00868495
-0.00969359
-0.00728542
-0.00180653
0.00624916
0.0163284
0.0278077
0.039979
0.0520538
0.0631762
0.0724481
0.0789748
0.0819592
0.0808987
0.0755183
0.0643229
0.0465444
0.0196202
-0.000795271
-0.012838
-0.0181289
-0.0190031
-0.0159802
-0.00952692
-0.000228081
0.0113152
0.0244557
0.038462
0.0525052
0.0656545
0.0768878
0.0851273
0.0893414
0.0887835
0.0829222
0.0697017
0.0480701
0.0102138
-0.0137098
-0.0274016
-0.0329276
-0.0332409
-0.0290786
-0.0210514
-0.00984921
0.00387325
0.0194456
0.0361165
0.0530168
0.0691337
0.0832991
0.09421
0.100534
0.1012
0.0953237
0.0801456
0.0542615
-0.00608153
-0.0337281
-0.048878
-0.0541579
-0.053287
-0.0472906
-0.0369611
-0.0231087
-0.00643817
0.0123734
0.0325783
0.0532912
0.0734328
0.091686
0.106488
0.116132
0.119102
0.114003
0.0971065
0.0664863
-0.0309475
-0.06257
-0.0788124
-0.0830822
-0.0801214
-0.0713632
-0.0578343
-0.0404784
-0.0200344
0.00285099
0.0274831
0.0530148
0.0783483
0.102045
0.12227
0.136861
0.143709
0.140662
0.122592
0.0867239
-0.0666387
-0.102485
-0.119115
-0.121138
-0.114744
-0.101954
-0.0840966
-0.0622523
-0.0371566
-0.00936204
0.0205727
0.0519315
0.0836921
0.114372
0.141891
0.163578
0.176555
0.177568
0.15942
0.117881
-0.116316
-0.156503
-0.172153
-0.169883
-0.158024
-0.139434
-0.115803
-0.0883292
-0.0576687
-0.0241771
0.0118459
0.0499559
0.0893586
0.128677
0.165698
0.197247
0.219521
0.227727
0.211586
0.164301
-0.184718
-0.228858
-0.240845
-0.230867
-0.21045
-0.18358
-0.152332
-0.117924
-0.0807968
-0.0409496
0.0017489
0.0473185
0.095415
0.145014
0.19401
0.23888
0.27484
0.295083
0.28482
0.232677
-0.279636
-0.325715
-0.328708
-0.305303
-0.271671
-0.233122
-0.191972
-0.149226
-0.104854
-0.0582613
-0.00865871
0.044679
0.102147
0.163437
0.226979
0.289322
0.344928
0.384657
0.387459
0.333895
-0.415065
-0.456289
-0.439574
-0.393298
-0.339679
-0.285053
-0.231433
-0.179083
-0.127062
-0.0738431
-0.0177025
0.0430612
0.109915
0.183735
0.264157
0.348646
0.431746
0.502338
0.531649
0.486608
-0.616904
-0.634003
-0.576635
-0.492557
-0.409737
-0.333938
-0.265518
-0.20296
-0.143706
-0.084844
-0.0234216
0.0434898
0.118747
0.204935
0.303802
0.415191
0.535619
0.653873
0.734178
0.722868
-0.933336
-0.876751
-0.740694
-0.597412
-0.474057
-0.372097
-0.287702
-0.215746
-0.151009
-0.0886876
-0.0243576
0.0462906
0.127722
0.224725
0.342286
0.484812
0.654011
0.842837
1.01616
1.09743
-1.47459
-1.20637
-0.920514
-0.6919
-0.518097
-0.388108
-0.289973
-0.212327
-0.146085
-0.0842176
-0.0208519
0.0495648
0.133036
0.236809
0.370236
0.545076
0.772915
1.06042
1.40432
1.72932
-2.53566
-1.63367
-1.04563
-0.712268
-0.497502
-0.353703
-0.255499
-0.183575
-0.12501
-0.0712956
-0.0160196
0.0466603
0.123306
0.222708
0.358258
0.55071
0.828227
1.23825
1.91552
2.9201
-4.36018
-2.04784
-0.975653
-0.565708
-0.361042
-0.243303
-0.172595
-0.125112
-0.0873791
-0.0519017
-0.0136756
0.0316918
0.089275
0.166601
0.277101
0.446251
0.721508
1.2286
2.41498
4.8423
)
;

boundaryField
{
    movingWall
    {
        type            zeroGradient;
    }
    fixedWalls
    {
        type            zeroGradient;
    }
    frontAndBack
    {
        type            empty;
    }
}


// ************************************************************************* //
