/*--------------------------------*- C++ -*----------------------------------*\
  =========                 |
  \\      /  F ield         | OpenFOAM: The Open Source CFD Toolbox
   \\    /   O peration     | Website:  https://openfoam.org
    \\  /    A nd           | Version:  8
     \\/     M anipulation  |
\*---------------------------------------------------------------------------*/
FoamFile
{
    version     2.0;
    format      ascii;
    class       surfaceScalarField;
    location    "0.07";
    object      phi;
}
// * * * * * * * * * * * * * * * * * * * * * * * * * * * * * * * * * * * * * //

dimensions      [0 3 -1 0 0 0 0];

internalField   nonuniform List<scalar> 
760
(
1.35194e-08
-1.35194e-08
-2.08425e-08
3.43616e-08
-1.07737e-07
8.6894e-08
-2.31123e-07
1.23387e-07
-3.72164e-07
1.4104e-07
-5.13317e-07
1.41154e-07
-6.39621e-07
1.26304e-07
-7.39203e-07
9.95821e-08
-8.03374e-07
6.41713e-08
-8.26602e-07
2.32284e-08
-8.06574e-07
-2.00281e-08
-7.4438e-07
-6.21941e-08
-6.44778e-07
-9.96027e-08
-5.16438e-07
-1.28339e-07
-3.72034e-07
-1.44404e-07
-2.27922e-07
-1.44113e-07
-1.03092e-07
-1.2483e-07
-1.70508e-08
-8.60414e-08
1.49982e-08
-3.20484e-08
1.49985e-08
-3.17881e-08
1.82695e-08
-1.68444e-07
1.71017e-07
-4.05607e-07
3.24057e-07
-7.13978e-07
4.31757e-07
-1.05631e-06
4.83377e-07
-1.39525e-06
4.8009e-07
-1.69735e-06
4.28406e-07
-1.93518e-06
3.37409e-07
-2.08823e-06
2.17217e-07
-2.1434e-06
7.83993e-08
-2.09539e-06
-6.8039e-08
-1.94709e-06
-2.10488e-07
-1.71004e-06
-3.36655e-07
-1.4046e-06
-4.33783e-07
-1.05963e-06
-4.89369e-07
-7.11128e-07
-4.92616e-07
-3.99108e-07
-4.36849e-07
-1.62263e-07
-3.22886e-07
-2.89671e-08
-1.65345e-07
-1.39687e-08
-8.60315e-08
1.04301e-07
-3.332e-07
4.18185e-07
-7.13351e-07
7.04208e-07
-1.18247e-06
9.00876e-07
-1.6899e-06
9.90807e-07
-2.18532e-06
9.7551e-07
-2.62347e-06
8.66552e-07
-2.9669e-06
6.80843e-07
-3.18749e-06
4.37808e-07
-3.26723e-06
1.58136e-07
-3.19881e-06
-1.36459e-07
-2.9862e-06
-4.23093e-07
-2.64516e-06
-6.77694e-07
-2.20341e-06
-8.75539e-07
-1.70003e-06
-9.92742e-07
-1.18357e-06
-1.00908e-06
-7.08017e-07
-9.124e-07
-3.26522e-07
-7.04381e-07
-8.25515e-08
-4.09315e-07
-9.65201e-08
-1.35676e-07
2.39976e-07
-4.91058e-07
7.73568e-07
-1.01025e-06
1.22341e-06
-1.63081e-06
1.52143e-06
-2.28828e-06
1.64828e-06
-2.92154e-06
1.60877e-06
-3.47673e-06
1.42175e-06
-3.90976e-06
1.11387e-06
-4.18761e-06
7.15654e-07
-4.28909e-06
2.59618e-07
-4.20543e-06
-2.2012e-07
-3.94087e-06
-6.87653e-07
-3.51334e-06
-1.10522e-06
-2.9549e-06
-1.43398e-06
-2.31138e-06
-1.63626e-06
-1.6407e-06
-1.67976e-06
-1.00908e-06
-1.54402e-06
-4.85033e-07
-1.22843e-06
-1.3162e-07
-7.62728e-07
-2.2814e-07
-1.81615e-07
4.21591e-07
-6.42644e-07
1.2346e-06
-1.29917e-06
1.87993e-06
-2.06786e-06
2.29012e-06
-2.86934e-06
2.44976e-06
-3.63213e-06
2.37156e-06
-4.29541e-06
2.08503e-06
-4.81045e-06
1.62891e-06
-5.1412e-06
1.04641e-06
-5.26449e-06
3.82902e-07
-5.17025e-06
-3.14362e-07
-4.86216e-06
-9.95739e-07
-4.3586e-06
-1.60878e-06
-3.69365e-06
-2.09893e-06
-2.91766e-06
-2.41226e-06
-2.09647e-06
-2.50095e-06
-1.30869e-06
-2.3318e-06
-6.40358e-07
-1.89677e-06
-1.77655e-07
-1.22543e-06
-4.05795e-07
-2.26658e-07
6.48249e-07
-7.93716e-07
1.80165e-06
-1.5888e-06
2.67502e-06
-2.5058e-06
3.20712e-06
-3.44927e-06
3.39322e-06
-4.33751e-06
3.25981e-06
-5.10391e-06
2.85142e-06
-5.69679e-06
2.2218e-06
-6.07868e-06
1.42829e-06
-6.22535e-06
5.29579e-07
-6.1256e-06
-4.14117e-07
-5.78164e-06
-1.3397e-06
-5.21055e-06
-2.17987e-06
-4.44623e-06
-2.86324e-06
-3.54146e-06
-3.31703e-06
-2.56892e-06
-3.47349e-06
-1.62009e-06
-3.28063e-06
-8.00965e-07
-2.7159e-06
-2.24379e-07
-1.80202e-06
-6.30175e-07
-2.73484e-07
9.21733e-07
-9.50586e-07
2.47876e-06
-1.8881e-06
3.61254e-06
-2.95491e-06
4.27393e-06
-4.03853e-06
4.47684e-06
-5.0476e-06
4.26888e-06
-5.91132e-06
3.71514e-06
-6.57716e-06
2.88764e-06
-7.00805e-06
1.85918e-06
-7.18e-06
7.01535e-07
-7.08082e-06
-5.13298e-07
-6.71034e-06
-1.71018e-06
-6.08233e-06
-2.80788e-06
-5.22782e-06
-3.71775e-06
-4.19927e-06
-4.34558e-06
-3.0743e-06
-4.59846e-06
-1.95721e-06
-4.39772e-06
-9.76318e-07
-3.69678e-06
-2.7565e-07
-2.50268e-06
-9.05825e-07
-3.24484e-07
1.24622e-06
-1.11883e-06
3.2731e-06
-2.20397e-06
4.69768e-06
-3.42066e-06
5.49061e-06
-4.63879e-06
5.69497e-06
-5.75882e-06
5.3889e-06
-6.7085e-06
4.66482e-06
-7.43755e-06
3.61669e-06
-7.91207e-06
2.3337e-06
-8.11007e-06
8.9953e-07
-8.0189e-06
-6.04466e-07
-7.63507e-06
-2.09401e-06
-6.9666e-06
-3.47634e-06
-6.03804e-06
-4.64632e-06
-4.89733e-06
-5.48629e-06
-3.62342e-06
-5.87237e-06
-2.3319e-06
-5.68924e-06
-1.17542e-06
-4.85327e-06
-3.35187e-07
-3.34292e-06
-1.24101e-06
-3.81969e-07
1.62819e-06
-1.30319e-06
4.19433e-06
-2.54041e-06
5.9349e-06
-3.90198e-06
6.85218e-06
-5.24029e-06
7.03329e-06
-6.45078e-06
6.59939e-06
-7.46434e-06
5.67838e-06
-8.23761e-06
4.38997e-06
-8.74384e-06
2.83992e-06
-8.96573e-06
1.12142e-06
-8.89128e-06
-6.78915e-07
-8.51283e-06
-2.47246e-06
-7.82983e-06
-4.15935e-06
-6.85546e-06
-5.62069e-06
-5.62698e-06
-6.71478e-06
-4.21833e-06
-7.28101e-06
-2.75224e-06
-7.15534e-06
-1.40634e-06
-6.19916e-06
-4.06694e-07
-4.34257e-06
-1.64771e-06
-4.48657e-07
2.07684e-06
-1.50827e-06
5.25394e-06
-2.89841e-06
7.32503e-06
-4.38976e-06
8.34353e-06
-5.81897e-06
8.46251e-06
-7.08228e-06
7.8627e-06
-8.12089e-06
6.71698e-06
-8.90516e-06
5.17424e-06
-9.42095e-06
3.35571e-06
-9.65944e-06
1.35991e-06
-9.61104e-06
-7.27313e-07
-9.26351e-06
-2.81999e-06
-8.60466e-06
-4.81819e-06
-7.63044e-06
-6.59491e-06
-6.3587e-06
-7.98651e-06
-4.84839e-06
-8.79132e-06
-3.2208e-06
-8.78292e-06
-1.67629e-06
-7.74367e-06
-4.94334e-07
-5.52452e-06
-2.14204e-06
-5.28742e-07
2.60559e-06
-1.73983e-06
6.46502e-06
-3.27598e-06
8.86118e-06
-4.86472e-06
9.93228e-06
-6.33224e-06
9.93002e-06
-7.58561e-06
9.11607e-06
-8.587e-06
7.71837e-06
-9.32959e-06
5.91684e-06
-9.81872e-06
3.84484e-06
-1.00587e-05
1.5999e-06
-1.0045e-05
-7.41034e-07
-9.76102e-06
-3.10396e-06
-9.1804e-06
-5.39881e-06
-8.27538e-06
-7.49993e-06
-7.03361e-06
-9.22829e-06
-5.48429e-06
-1.03406e-05
-3.73219e-06
-1.0535e-05
-1.9918e-06
-9.48406e-06
-6.03589e-07
-6.91274e-06
-2.74563e-06
-6.29734e-07
3.23532e-06
-2.00658e-06
7.84187e-06
-3.6672e-06
1.05218e-05
-5.29294e-06
1.1558e-05
-6.71175e-06
1.13488e-05
-7.85809e-06
1.02624e-05
-8.72986e-06
8.59014e-06
-9.35409e-06
6.54107e-06
-9.76309e-06
4.25384e-06
-9.97922e-06
1.81603e-06
-1.0006e-05
-7.14213e-07
-9.82416e-06
-3.28584e-06
-9.39186e-06
-5.83111e-06
-8.65234e-06
-8.23946e-06
-7.55115e-06
-1.03295e-05
-6.06843e-06
-1.18234e-05
-4.26805e-06
-1.23354e-05
-2.35853e-06
-1.13936e-05
-7.42721e-07
-8.52855e-06
-3.48835e-06
-7.65481e-07
4.0008e-06
-2.32149e-06
9.39788e-06
-4.05756e-06
1.22579e-05
-5.61526e-06
1.31157e-05
-6.84972e-06
1.25833e-05
-7.74833e-06
1.1161e-05
-8.36336e-06
9.20517e-06
-8.76697e-06
6.94467e-06
-9.02452e-06
4.51139e-06
-9.18e-06
1.97151e-06
-9.24795e-06
-6.46258e-07
-9.209e-06
-3.3248e-06
-9.00803e-06
-6.03208e-06
-8.5575e-06
-8.68999e-06
-7.75134e-06
-1.11356e-05
-6.49858e-06
-1.30761e-05
-4.78682e-06
-1.40472e-05
-2.77925e-06
-1.34012e-05
-9.25102e-07
-1.03827e-05
-4.41345e-06
-9.60623e-07
4.96142e-06
-2.69945e-06
1.11367e-05
-4.40922e-06
1.39676e-05
-5.72369e-06
1.44302e-05
-6.57313e-06
1.34327e-05
-7.03384e-06
1.16217e-05
-7.23212e-06
9.40345e-06
-7.29261e-06
7.00516e-06
-7.31474e-06
4.53353e-06
-7.36357e-06
2.02033e-06
-7.46578e-06
-5.44048e-07
-7.60616e-06
-3.18442e-06
-7.72287e-06
-5.91537e-06
-7.70361e-06
-8.70925e-06
-7.38937e-06
-1.14499e-05
-6.59982e-06
-1.38657e-05
-5.20201e-06
-1.5445e-05
-3.24602e-06
-1.53571e-05
-1.17207e-06
-1.24566e-05
-5.58553e-06
-1.25428e-06
6.21571e-06
-3.14093e-06
1.30234e-05
-4.62072e-06
1.54474e-05
-5.4105e-06
1.522e-05
-5.59646e-06
1.36187e-05
-5.38583e-06
1.14111e-05
-4.99079e-06
9.00841e-06
-4.58409e-06
6.59847e-06
-4.28951e-06
4.23895e-06
-4.18499e-06
1.91581e-06
-4.30664e-06
-4.22402e-07
-4.64809e-06
-2.84297e-06
-5.15323e-06
-5.41023e-06
-5.7029e-06
-8.15957e-06
-6.10115e-06
-1.10516e-05
-6.07703e-06
-1.38898e-05
-5.33592e-06
-1.61861e-05
-3.71453e-06
-1.69785e-05
-1.51239e-06
-1.46588e-05
-7.09792e-06
-1.68878e-06
7.90449e-06
-3.56826e-06
1.49028e-05
-4.4266e-06
1.63058e-05
-4.26679e-06
1.50602e-05
-3.44276e-06
1.27947e-05
-2.32012e-06
1.02885e-05
-1.18254e-06
7.87083e-06
-2.23072e-07
5.639e-06
4.36608e-07
3.57927e-06
7.24299e-07
1.62812e-06
6.02901e-07
-3.01004e-07
6.64406e-08
-2.30651e-06
-8.51874e-07
-4.49192e-06
-2.0579e-06
-6.95355e-06
-3.36135e-06
-9.74816e-06
-4.43768e-06
-1.28135e-05
-4.82341e-06
-1.58003e-05
-4.02801e-06
-1.77739e-05
-1.96029e-06
-1.67265e-05
-9.05821e-06
-2.23872e-06
1.01432e-05
-3.63257e-06
1.62967e-05
-3.17081e-06
1.5844e-05
-1.49956e-06
1.33889e-05
6.7059e-07
1.06245e-05
2.85529e-06
8.10376e-06
4.76912e-06
5.957e-06
6.2606e-06
4.14753e-06
7.25432e-06
2.58555e-06
7.7114e-06
1.17104e-06
7.60728e-06
-1.96887e-07
6.92367e-06
-1.6229e-06
5.65411e-06
-3.22235e-06
3.82732e-06
-5.12676e-06
1.5567e-06
-7.47754e-06
-8.77678e-07
-1.03791e-05
-2.92759e-06
-1.37504e-05
-3.72656e-06
-1.6975e-05
-2.4257e-06
-1.80274e-05
-1.14839e-05
-2.56568e-06
1.27089e-05
-2.20748e-06
1.59385e-05
6.54621e-07
1.29819e-05
4.35482e-06
9.68871e-06
7.95708e-06
7.02225e-06
1.10595e-05
5.00136e-06
1.35234e-05
3.49309e-06
1.53275e-05
2.34343e-06
1.64902e-05
1.42279e-06
1.70306e-05
6.30723e-07
1.69491e-05
-1.15398e-07
1.62203e-05
-8.94175e-07
1.47928e-05
-1.79479e-06
1.26006e-05
-2.93454e-06
9.60181e-06
-4.4788e-06
5.87143e-06
-6.64871e-06
1.79131e-06
-9.67032e-06
-1.61691e-06
-1.35667e-05
-2.46057e-06
-1.71837e-05
-1.39445e-05
-8.09786e-07
1.35187e-05
4.06696e-06
1.10617e-05
1.02664e-05
6.78242e-06
1.57288e-05
4.22635e-06
2.00496e-05
2.7015e-06
2.33013e-05
1.74957e-06
2.56569e-05
1.13751e-06
2.72769e-05
7.23472e-07
2.82792e-05
4.20469e-07
2.87348e-05
1.75155e-07
2.86683e-05
-4.89437e-08
2.80571e-05
-2.8295e-07
2.68254e-05
-5.63092e-07
2.48344e-05
-9.43559e-07
2.18743e-05
-1.51865e-06
1.7685e-05
-2.45948e-06
1.20884e-05
-4.07366e-06
5.43069e-06
-6.90904e-06
-1.68108e-07
-1.15849e-05
-1.41126e-05
1.35187e-05
2.45804e-05
3.13628e-05
3.55892e-05
3.82907e-05
4.00403e-05
4.11778e-05
4.19012e-05
4.23217e-05
4.24969e-05
4.24479e-05
4.2165e-05
4.16019e-05
4.06583e-05
3.91397e-05
3.66802e-05
3.26065e-05
2.56975e-05
1.41126e-05
)
;

boundaryField
{
    movingWall
    {
        type            calculated;
        value           uniform 0;
    }
    fixedWalls
    {
        type            calculated;
        value           uniform 0;
    }
    frontAndBack
    {
        type            empty;
        value           nonuniform List<scalar> 0();
    }
}


// ************************************************************************* //
