/*--------------------------------*- C++ -*----------------------------------*\
  =========                 |
  \\      /  F ield         | OpenFOAM: The Open Source CFD Toolbox
   \\    /   O peration     | Website:  https://openfoam.org
    \\  /    A nd           | Version:  8
     \\/     M anipulation  |
\*---------------------------------------------------------------------------*/
FoamFile
{
    version     2.0;
    format      ascii;
    class       volVectorField;
    location    "0.07";
    object      U;
}
// * * * * * * * * * * * * * * * * * * * * * * * * * * * * * * * * * * * * * //

dimensions      [0 1 -1 0 0 0 0];

internalField   nonuniform List<vector> 
400
(
(0.000239447 -0.000236322 0)
(0.000133196 0.000111137 0)
(-0.00111044 0.000544889 0)
(-0.00328127 0.000845859 0)
(-0.00599858 0.000992701 0)
(-0.00888877 0.00100268 0)
(-0.011621 0.000900116 0)
(-0.0139245 0.000710717 0)
(-0.0155933 0.000458942 0)
(-0.0164845 0.000167633 0)
(-0.0165189 -0.000140608 0)
(-0.0156834 -0.000441827 0)
(-0.0140358 -0.000709674 0)
(-0.0117101 -0.000915039 0)
(-0.0089209 -0.00102674 0)
(-0.00596239 -0.00101406 0)
(-0.00319594 -0.00085224 0)
(-0.0010192 -0.000531628 0)
(0.000188722 -8.73074e-05 0)
(0.000255358 0.000250585 0)
(-7.15542e-05 -0.000163157 0)
(-0.00150468 0.00154677 0)
(-0.00532141 0.00340531 0)
(-0.010952 0.00472583 0)
(-0.0176379 0.00537186 0)
(-0.0246174 0.00537011 0)
(-0.0311719 0.00480651 0)
(-0.0366848 0.00379195 0)
(-0.0406732 0.00244501 0)
(-0.042799 0.000886245 0)
(-0.0428763 -0.000760193 0)
(-0.0408789 -0.00236317 0)
(-0.0369498 -0.00378256 0)
(-0.0314082 -0.00487067 0)
(-0.024751 -0.00547962 0)
(-0.0176376 -0.00547749 0)
(-0.0108447 -0.004777 0)
(-0.00517953 -0.00337824 0)
(-0.00140634 -0.00146668 0)
(-4.29011e-05 0.000218528 0)
(-0.000495014 0.00101013 0)
(-0.00346628 0.00536573 0)
(-0.00988519 0.00957098 0)
(-0.0186479 0.0125225 0)
(-0.0286667 0.0139221 0)
(-0.0389279 0.0137864 0)
(-0.0484654 0.0122864 0)
(-0.0564409 0.00967148 0)
(-0.0621932 0.00622559 0)
(-0.0652579 0.00224905 0)
(-0.0653791 -0.00194374 0)
(-0.0625209 -0.00602118 0)
(-0.0568787 -0.00963364 0)
(-0.0488881 -0.0124208 0)
(-0.0392235 -0.0140333 0)
(-0.0287761 -0.0141743 0)
(-0.0185886 -0.0126671 0)
(-0.00974328 -0.00954646 0)
(-0.00335096 -0.00521567 0)
(-0.000458681 -0.000890543 0)
(-0.000870603 0.00323967 0)
(-0.00532314 0.0114192 0)
(-0.0142999 0.0186135 0)
(-0.0260679 0.0234964 0)
(-0.0391667 0.0256736 0)
(-0.0523565 0.0251892 0)
(-0.0644829 0.0223328 0)
(-0.074555 0.017529 0)
(-0.0817966 0.0112686 0)
(-0.085663 0.00407663 0)
(-0.0858521 -0.00349492 0)
(-0.0823153 -0.0108645 0)
(-0.0752717 -0.0174213 0)
(-0.0652204 -0.0225393 0)
(-0.0529456 -0.0256151 0)
(-0.0394999 -0.0261388 0)
(-0.0261367 -0.0238021 0)
(-0.0141988 -0.018637 0)
(-0.00519855 -0.0112076 0)
(-0.000824023 -0.00304083 0)
(-0.00120428 0.00641791 0)
(-0.00707599 0.0195903 0)
(-0.0185791 0.0303771 0)
(-0.0333092 0.0374023 0)
(-0.0493952 0.0402881 0)
(-0.0653635 0.0391844 0)
(-0.0798958 0.0345549 0)
(-0.0918883 0.0270408 0)
(-0.100492 0.0173712 0)
(-0.105113 0.00632127 0)
(-0.105419 -0.00529724 0)
(-0.101341 -0.0166303 0)
(-0.093095 -0.0267792 0)
(-0.0812017 -0.0348171 0)
(-0.0665061 -0.0398407 0)
(-0.0501808 -0.0410684 0)
(-0.0336741 -0.0379889 0)
(-0.0186122 -0.0305454 0)
(-0.00697302 -0.0193588 0)
(-0.00115011 -0.00613331 0)
(-0.00152524 0.0104975 0)
(-0.00880909 0.0298603 0)
(-0.0228633 0.0448806 0)
(-0.0405773 0.0542535 0)
(-0.059634 0.0577438 0)
(-0.0783151 0.0557118 0)
(-0.0951544 0.0488737 0)
(-0.108967 0.0381387 0)
(-0.118866 0.024505 0)
(-0.124237 0.00901223 0)
(-0.124728 -0.00726244 0)
(-0.120243 -0.0231882 0)
(-0.110967 -0.0375665 0)
(-0.0973993 -0.0491427 0)
(-0.0804002 -0.056663 0)
(-0.0612269 -0.0589958 0)
(-0.0415129 -0.0553229 0)
(-0.0231976 -0.0453775 0)
(-0.00879318 -0.0297169 0)
(-0.00147308 -0.0101411 0)
(-0.00185922 0.0154873 0)
(-0.0106137 0.0422776 0)
(-0.027309 0.0621867 0)
(-0.0480697 0.0740883 0)
(-0.0700944 0.078032 0)
(-0.0914177 0.0747186 0)
(-0.11045 0.0652147 0)
(-0.125965 0.0507601 0)
(-0.13708 0.0326503 0)
(-0.143196 0.0121925 0)
(-0.143953 -0.00928311 0)
(-0.139222 -0.0303844 0)
(-0.129128 -0.0496195 0)
(-0.114098 -0.0653879 0)
(-0.0949502 -0.076032 0)
(-0.0729742 -0.0799736 0)
(-0.0499648 -0.0759491 0)
(-0.0281952 -0.0633202 0)
(-0.010792 -0.0424325 0)
(-0.00182972 -0.0151157 0)
(-0.00222952 0.0214475 0)
(-0.0125729 0.0569579 0)
(-0.0320516 0.0823938 0)
(-0.0559231 0.0969361 0)
(-0.0808574 0.101097 0)
(-0.104656 0.0960809 0)
(-0.125653 0.0834272 0)
(-0.142646 0.0647763 0)
(-0.154815 0.0417445 0)
(-0.161621 0.0158941 0)
(-0.162727 -0.0112261 0)
(-0.157966 -0.0380041 0)
(-0.147364 -0.0626847 0)
(-0.131219 -0.0833227 0)
(-0.11022 -0.0978078 0)
(-0.0856065 -0.104002 0)
(-0.0592752 -0.10002 0)
(-0.0338286 -0.0846313 0)
(-0.0131006 -0.0577657 0)
(-0.00225602 -0.0211857 0)
(-0.00266075 0.0284853 0)
(-0.0147666 0.0740737 0)
(-0.0371976 0.10561 0)
(-0.0641868 0.122767 0)
(-0.0918283 0.126764 0)
(-0.117734 0.119522 0)
(-0.140247 0.103202 0)
(-0.158283 0.0799209 0)
(-0.171179 0.0516295 0)
(-0.178527 0.0201113 0)
(-0.180047 -0.0129299 0)
(-0.175537 -0.0457368 0)
(-0.164894 -0.0763565 0)
(-0.148202 -0.10253 0)
(-0.12591 -0.121663 0)
(-0.0990743 -0.130938 0)
(-0.069572 -0.127626 0)
(-0.0402848 -0.109606 0)
(-0.0158487 -0.0760764 0)
(-0.00279048 -0.0285537 0)
(-0.00318531 0.0367551 0)
(-0.0172861 0.09384 0)
(-0.0428323 0.131905 0)
(-0.072808 0.15141 0)
(-0.102693 0.154631 0)
(-0.130002 0.144495 0)
(-0.15323 0.12396 0)
(-0.171559 0.0956963 0)
(-0.184607 0.0619826 0)
(-0.192188 0.0247607 0)
(-0.194137 -0.0142106 0)
(-0.190236 -0.0531455 0)
(-0.180215 -0.0900056 0)
(-0.163857 -0.122297 0)
(-0.141225 -0.146949 0)
(-0.112991 -0.160356 0)
(-0.0808098 -0.158683 0)
(-0.0477023 -0.138502 0)
(-0.0191761 -0.0978024 0)
(-0.00348176 -0.0374999 0)
(-0.00385713 0.046477 0)
(-0.0202655 0.116507 0)
(-0.0490401 0.161244 0)
(-0.0816123 0.182429 0)
(-0.11285 0.183924 0)
(-0.140356 0.170036 0)
(-0.163 0.144723 0)
(-0.180433 0.111267 0)
(-0.192716 0.0722375 0)
(-0.199998 0.0296303 0)
(-0.202306 -0.0148817 0)
(-0.19943 -0.0596486 0)
(-0.190918 -0.102715 0)
(-0.176168 -0.1415 0)
(-0.15468 -0.172533 0)
(-0.126484 -0.191357 0)
(-0.0926839 -0.192751 0)
(-0.0561543 -0.171432 0)
(-0.0232537 -0.123428 0)
(-0.00440237 -0.0483988 0)
(-0.00477741 0.0579837 0)
(-0.0239305 0.142359 0)
(-0.0559195 0.193386 0)
(-0.0902481 0.214959 0)
(-0.121291 0.213307 0)
(-0.147073 0.194593 0)
(-0.167176 0.163973 0)
(-0.181978 0.125357 0)
(-0.192164 0.081508 0)
(-0.198341 0.0343256 0)
(-0.2008 -0.0147873 0)
(-0.199392 -0.0645239 0)
(-0.193488 -0.113241 0)
(-0.182048 -0.1585 0)
(-0.163847 -0.196618 0)
(-0.137961 -0.222331 0)
(-0.104477 -0.228788 0)
(-0.0656032 -0.208176 0)
(-0.0283135 -0.153439 0)
(-0.00567335 -0.0617611 0)
(-0.0061403 0.0718189 0)
(-0.0286657 0.171702 0)
(-0.0635573 0.227706 0)
(-0.0980251 0.247438 0)
(-0.126336 0.240624 0)
(-0.147523 0.215825 0)
(-0.162334 0.179526 0)
(-0.172172 0.136173 0)
(-0.178506 0.0885403 0)
(-0.182483 0.0382272 0)
(-0.184718 -0.0138471 0)
(-0.185178 -0.0669505 0)
(-0.183117 -0.120021 0)
(-0.177072 -0.171081 0)
(-0.165008 -0.21657 0)
(-0.144747 -0.250656 0)
(-0.114771 -0.264778 0)
(-0.0757782 -0.247881 0)
(-0.034681 -0.188224 0)
(-0.00750694 -0.078317 0)
(-0.00830757 0.088913 0)
(-0.0350777 0.20479 0)
(-0.0718579 0.262849 0)
(-0.103501 0.277197 0)
(-0.125115 0.262582 0)
(-0.137665 0.230429 0)
(-0.143625 0.188475 0)
(-0.145661 0.141417 0)
(-0.14608 0.091742 0)
(-0.146559 0.0404914 0)
(-0.148029 -0.0121076 0)
(-0.150626 -0.0661051 0)
(-0.153601 -0.121285 0)
(-0.155216 -0.176505 0)
(-0.152712 -0.228827 0)
(-0.142517 -0.272393 0)
(-0.120905 -0.29723 0)
(-0.0858603 -0.288533 0)
(-0.042766 -0.227843 0)
(-0.0102687 -0.0991538 0)
(-0.0118897 0.110839 0)
(-0.0439216 0.241517 0)
(-0.0799435 0.296057 0)
(-0.103497 0.299867 0)
(-0.112527 0.274431 0)
(-0.111206 0.234101 0)
(-0.10421 0.187338 0)
(-0.0954795 0.138506 0)
(-0.0879794 0.0893672 0)
(-0.0837086 0.0401436 0)
(-0.0837974 -0.00977688 0)
(-0.0885598 -0.0613358 0)
(-0.0974186 -0.115332 0)
(-0.108688 -0.171804 0)
(-0.11927 -0.229059 0)
(-0.124435 -0.28213 0)
(-0.117951 -0.320588 0)
(-0.0936881 -0.326112 0)
(-0.0528274 -0.271472 0)
(-0.0145117 -0.125869 0)
(-0.0176451 0.140198 0)
(-0.0553704 0.280535 0)
(-0.0843791 0.32189 0)
(-0.0909381 0.308578 0)
(-0.0793737 0.269829 0)
(-0.0583142 0.221863 0)
(-0.0345847 0.17259 0)
(-0.0128766 0.125113 0)
(0.0037724 0.0799547 0)
(0.0135079 0.0363275 0)
(0.0152814 -0.00721067 0)
(0.00865627 -0.0524039 0)
(-0.00616012 -0.10102 0)
(-0.0280243 -0.154435 0)
(-0.0542821 -0.212779 0)
(-0.0799545 -0.273203 0)
(-0.0968519 -0.326696 0)
(-0.0938497 -0.353253 0)
(-0.0639205 -0.316199 0)
(-0.0207269 -0.160784 0)
(-0.025463 0.181488 0)
(-0.0661772 0.316943 0)
(-0.074619 0.329637 0)
(-0.0505183 0.29283 0)
(-0.00937243 0.241047 0)
(0.035957 0.188961 0)
(0.0779348 0.141742 0)
(0.112504 0.100127 0)
(0.13762 0.0630355 0)
(0.152277 0.0287245 0)
(0.15591 -0.00480857 0)
(0.148102 -0.0397385 0)
(0.128546 -0.0784194 0)
(0.0973069 -0.123314 0)
(0.0555102 -0.176562 0)
(0.00665055 -0.238559 0)
(-0.0413178 -0.304443 0)
(-0.0735918 -0.357154 0)
(-0.0706953 -0.354532 0)
(-0.0279658 -0.20749 0)
(-0.0294519 0.238962 0)
(-0.0608644 0.3356 0)
(-0.0227711 0.29972 0)
(0.0488037 0.238743 0)
(0.124702 0.181162 0)
(0.192834 0.133423 0)
(0.248835 0.0954863 0)
(0.291534 0.0652039 0)
(0.321127 0.0401415 0)
(0.338116 0.018108 0)
(0.342759 -0.00287291 0)
(0.334828 -0.0247626 0)
(0.313532 -0.0497643 0)
(0.277594 -0.0806028 0)
(0.225693 -0.120704 0)
(0.157655 -0.173777 0)
(0.0767851 -0.241571 0)
(-0.00492775 -0.317574 0)
(-0.0550621 -0.367617 0)
(-0.0283198 -0.26692 0)
(0.0087058 0.28156 0)
(0.0203225 0.295019 0)
(0.138656 0.210792 0)
(0.263506 0.143011 0)
(0.362671 0.0965295 0)
(0.437726 0.0650338 0)
(0.493121 0.0435079 0)
(0.532349 0.0282601 0)
(0.558195 0.0167449 0)
(0.572573 0.00724468 0)
(0.576453 -0.00150545 0)
(0.56987 -0.0106371 0)
(0.551865 -0.0214491 0)
(0.520314 -0.0357908 0)
(0.471766 -0.0566209 0)
(0.401445 -0.0887077 0)
(0.302992 -0.139096 0)
(0.172131 -0.215873 0)
(0.0413473 -0.311315 0)
(0.0190189 -0.299478 0)
(0.300219 0.145928 0)
(0.396946 0.127486 0)
(0.557417 0.0760942 0)
(0.674269 0.043682 0)
(0.743382 0.0254898 0)
(0.786251 0.0151381 0)
(0.814169 0.00910666 0)
(0.832268 0.00541964 0)
(0.843407 0.00296595 0)
(0.849211 0.00112349 0)
(0.850444 -0.00048884 0)
(0.847219 -0.00217145 0)
(0.839003 -0.0042692 0)
(0.8244 -0.00733806 0)
(0.800659 -0.0124387 0)
(0.762555 -0.0216805 0)
(0.698367 -0.0392011 0)
(0.583542 -0.0725893 0)
(0.416313 -0.12776 0)
(0.30942 -0.149277 0)
)
;

boundaryField
{
    movingWall
    {
        type            fixedValue;
        value           uniform (1 0 0);
    }
    fixedWalls
    {
        type            noSlip;
    }
    frontAndBack
    {
        type            empty;
    }
}


// ************************************************************************* //
