/*--------------------------------*- C++ -*----------------------------------*\
  =========                 |
  \\      /  F ield         | OpenFOAM: The Open Source CFD Toolbox
   \\    /   O peration     | Website:  https://openfoam.org
    \\  /    A nd           | Version:  8
     \\/     M anipulation  |
\*---------------------------------------------------------------------------*/
FoamFile
{
    version     2.0;
    format      ascii;
    class       volScalarField;
    location    "0.13";
    object      p;
}
// * * * * * * * * * * * * * * * * * * * * * * * * * * * * * * * * * * * * * //

dimensions      [0 2 -2 0 0 0 0];

internalField   nonuniform List<scalar> 
400
(
-5.91957e-08
-0.00578444
-0.0128728
-0.0182883
-0.0202861
-0.0180934
-0.011651
-0.00140185
0.0118637
0.027111
0.0431396
0.058657
0.0723641
0.0830646
0.0898031
0.092036
0.0898348
0.0841047
0.0767974
0.0710272
0.00573213
-0.000229461
-0.00578527
-0.00950094
-0.010544
-0.00837641
-0.00292522
0.00549541
0.0162914
0.0286618
0.0416603
0.0542606
0.065434
0.074243
0.0799541
0.0821662
0.080958
0.0769738
0.0712328
0.0653208
0.0132265
0.00497641
-0.00102406
-0.00443159
-0.00526794
-0.0032541
0.00160747
0.00901927
0.0184733
0.0292958
0.0406863
0.0517674
0.0616494
0.0695097
0.0746844
0.0767722
0.0757643
0.0720445
0.0658047
0.0575951
0.0199708
0.00859622
0.00115803
-0.0027143
-0.003752
-0.00190642
0.0027116
0.00975955
0.0187444
0.0290446
0.0399257
0.0505731
0.0601414
0.0678209
0.0729141
0.0749298
0.0737227
0.0694495
0.0616403
0.0502162
0.0242881
0.00964345
0.000494873
-0.00405786
-0.00535438
-0.00354663
0.00114252
0.0083042
0.0174291
0.0279102
0.039038
0.0500141
0.0599863
0.0681007
0.0735684
0.0757567
0.0743561
0.0693133
0.0595945
0.0446955
0.0249462
0.00701114
-0.00390656
-0.00913691
-0.0105707
-0.00854226
-0.0033871
0.00440731
0.0142957
0.0256619
0.0377937
0.0498777
0.0610172
0.0702703
0.0767067
0.0795037
0.0781519
0.072381
0.0606302
0.042078
0.0208757
-0.000387352
-0.01303
-0.0187811
-0.0200795
-0.0174448
-0.011333
-0.00232082
0.00899927
0.0219903
0.0359239
0.0499547
0.063117
0.0743463
0.0825244
0.0865827
0.0857559
0.0795122
0.0657225
0.0432722
0.0109683
-0.0137079
-0.027945
-0.0339039
-0.0346316
-0.0308651
-0.0232009
-0.0123154
0.00114893
0.0165367
0.0331077
0.0499854
0.0661282
0.0803277
0.0912352
0.0974692
0.0979249
0.0917128
0.0759985
0.049313
-0.00607552
-0.0343048
-0.0499024
-0.0555661
-0.0550878
-0.0494913
-0.0395483
-0.0260468
-0.00967278
0.00891894
0.0290009
0.0496899
0.0698848
0.0882307
0.103114
0.112765
0.115622
0.110274
0.092926
0.0615892
-0.0318866
-0.0638542
-0.080406
-0.0849883
-0.0823842
-0.0740219
-0.060901
-0.0439328
-0.0238269
-0.00119808
0.0232898
0.0488013
0.0742244
0.0980853
0.118493
0.133212
0.140072
0.136901
0.118512
0.0820811
-0.0686177
-0.104521
-0.121292
-0.123537
-0.117449
-0.105042
-0.0876092
-0.0661903
-0.0414781
-0.0139799
0.0157881
0.0471315
0.0790202
0.109938
0.137746
0.159689
0.172818
0.173855
0.155564
0.11368
-0.119287
-0.159223
-0.174831
-0.172681
-0.161063
-0.142828
-0.119633
-0.0926232
-0.0623968
-0.0292472
0.00658224
0.0446783
0.0842439
0.123868
0.161273
0.193197
0.215759
0.224143
0.208059
0.1607
-0.188476
-0.232077
-0.243841
-0.233866
-0.213609
-0.187056
-0.15625
-0.122347
-0.0857134
-0.0462641
-0.00379546
0.0417536
0.0900389
0.139998
0.189455
0.234794
0.271155
0.291713
0.281714
0.229806
-0.283825
-0.329138
-0.331745
-0.308216
-0.274647
-0.236368
-0.195667
-0.153478
-0.109672
-0.0635494
-0.0142286
0.0390687
0.0967396
0.15843
0.222491
0.28537
0.341454
0.3816
0.384852
0.331836
-0.419215
-0.459544
-0.442307
-0.395771
-0.342114
-0.287716
-0.234566
-0.18284
-0.131478
-0.0788209
-0.0230334
0.0376526
0.104709
0.178958
0.259941
0.345012
0.428634
0.499697
0.529593
0.485376
-0.620502
-0.636692
-0.578699
-0.494234
-0.411293
-0.335703
-0.267794
-0.205946
-0.147457
-0.0892654
-0.0282877
0.0384854
0.113922
0.200549
0.300007
0.412015
0.532992
0.651727
0.732673
0.722368
-0.935947
-0.878546
-0.741808
-0.598045
-0.474522
-0.372783
-0.288956
-0.217799
-0.153935
-0.0924003
-0.028626
0.041791
0.12334
0.220757
0.338918
0.482096
0.651878
0.841184
1.01513
1.09744
-1.47602
-1.20714
-0.920598
-0.691457
-0.517473
-0.387724
-0.290205
-0.213429
-0.148159
-0.0872006
-0.0245297
0.0455153
0.12898
0.233078
0.367062
0.542565
0.771043
1.05908
1.40356
1.72948
-2.53609
-1.63358
-1.04482
-0.710861
-0.495847
-0.352253
-0.254676
-0.183692
-0.126231
-0.07361
-0.0192521
0.0428172
0.119227
0.218754
0.35472
0.547781
0.82599
1.23667
1.91458
2.91993
-4.3601
-2.04724
-0.974173
-0.56338
-0.358249
-0.240582
-0.170489
-0.124062
-0.0876604
-0.0535898
-0.0166438
0.027737
0.0847263
0.161869
0.272552
0.442188
0.71815
1.22607
2.41331
4.84143
)
;

boundaryField
{
    movingWall
    {
        type            zeroGradient;
    }
    fixedWalls
    {
        type            zeroGradient;
    }
    frontAndBack
    {
        type            empty;
    }
}


// ************************************************************************* //
