/*--------------------------------*- C++ -*----------------------------------*\
  =========                 |
  \\      /  F ield         | OpenFOAM: The Open Source CFD Toolbox
   \\    /   O peration     | Website:  https://openfoam.org
    \\  /    A nd           | Version:  8
     \\/     M anipulation  |
\*---------------------------------------------------------------------------*/
FoamFile
{
    version     2.0;
    format      ascii;
    class       surfaceScalarField;
    location    "0.13";
    object      phi;
}
// * * * * * * * * * * * * * * * * * * * * * * * * * * * * * * * * * * * * * //

dimensions      [0 3 -1 0 0 0 0];

internalField   nonuniform List<scalar> 
760
(
1.41637e-08
-1.41636e-08
-2.19599e-08
3.6124e-08
-1.13306e-07
9.13464e-08
-2.43551e-07
1.30245e-07
-3.9306e-07
1.49509e-07
-5.43248e-07
1.50187e-07
-6.78118e-07
1.3487e-07
-7.84852e-07
1.06734e-07
-8.53944e-07
6.90921e-08
-8.79255e-07
2.53118e-08
-8.58157e-07
-2.10981e-08
-7.91778e-07
-6.63791e-08
-6.85303e-07
-1.06474e-07
-5.48211e-07
-1.37092e-07
-3.9428e-07
-1.53931e-07
-2.4113e-07
-1.5315e-07
-1.08971e-07
-1.3216e-07
-1.8218e-08
-9.07527e-08
1.56217e-08
-3.38398e-08
1.56217e-08
-3.39814e-08
1.9818e-08
-1.79091e-07
1.81233e-07
-4.30807e-07
3.43062e-07
-7.58779e-07
4.58217e-07
-1.12381e-06
5.14538e-07
-1.48611e-06
5.12494e-07
-1.80978e-06
4.58537e-07
-2.06509e-06
3.6204e-07
-2.22965e-06
2.33653e-07
-2.28906e-06
8.47272e-08
-2.23744e-06
-7.27199e-08
-2.07793e-06
-2.25892e-07
-1.82317e-06
-3.61232e-07
-1.49547e-06
-4.64797e-07
-1.12624e-06
-5.2316e-07
-7.54325e-07
-5.25061e-07
-4.22484e-07
-4.64001e-07
-1.71466e-07
-3.41771e-07
-3.05312e-08
-1.74775e-07
-1.49091e-08
-9.16775e-08
1.11495e-07
-3.54645e-07
4.44201e-07
-7.59312e-07
7.47728e-07
-1.25959e-06
9.58491e-07
-1.80179e-06
1.05674e-06
-2.33217e-06
1.04288e-06
-2.80204e-06
9.28401e-07
-3.17079e-06
7.30794e-07
-3.40773e-06
4.70595e-07
-3.4931e-06
1.70099e-07
-3.41888e-06
-1.46943e-07
-3.18946e-06
-4.55309e-07
-2.82221e-06
-7.28484e-07
-2.34753e-06
-9.39485e-07
-1.808e-06
-1.06269e-06
-1.25608e-06
-1.07698e-06
-7.49573e-07
-9.70507e-07
-3.44704e-07
-7.4664e-07
-8.67662e-08
-4.32713e-07
-1.01675e-07
-1.44319e-07
2.55815e-07
-5.22128e-07
8.22009e-07
-1.07461e-06
1.30022e-06
-1.73598e-06
1.61986e-06
-2.43794e-06
1.75869e-06
-3.11522e-06
1.72016e-06
-3.70992e-06
1.5231e-06
-4.17425e-06
1.19512e-06
-4.4722e-06
7.68549e-07
-4.58057e-06
2.78468e-07
-4.48974e-06
-2.37773e-07
-4.20446e-06
-7.40584e-07
-3.74454e-06
-1.1884e-06
-3.14514e-06
-1.53889e-06
-2.45617e-06
-1.75166e-06
-1.74015e-06
-1.793e-06
-1.06792e-06
-1.64274e-06
-5.12015e-07
-1.30255e-06
-1.38473e-07
-8.06255e-07
-2.40148e-07
-1.92479e-07
4.48293e-07
-6.81007e-07
1.31054e-06
-1.37748e-06
1.99668e-06
-2.19413e-06
2.43652e-06
-3.04707e-06
2.61162e-06
-3.86024e-06
2.53334e-06
-4.56844e-06
2.2313e-06
-5.119e-06
1.74568e-06
-5.47265e-06
1.1222e-06
-5.60402e-06
4.0984e-07
-5.50213e-06
-3.39669e-07
-5.17112e-06
-1.07159e-06
-4.63131e-06
-1.72822e-06
-3.92003e-06
-2.25017e-06
-3.09197e-06
-2.57971e-06
-2.21803e-06
-2.66694e-06
-1.38201e-06
-2.47876e-06
-6.74825e-07
-2.00973e-06
-1.86754e-07
-1.29433e-06
-4.26903e-07
-2.38724e-07
6.87018e-07
-8.36156e-07
1.90797e-06
-1.67488e-06
2.8354e-06
-2.64367e-06
3.40531e-06
-3.6422e-06
3.61015e-06
-4.58406e-06
3.4752e-06
-5.39818e-06
3.04542e-06
-6.02891e-06
2.37641e-06
-6.43549e-06
1.52878e-06
-6.59144e-06
5.65794e-07
-6.48451e-06
-4.46603e-07
-6.11727e-06
-1.43883e-06
-5.50858e-06
-2.3369e-06
-4.69554e-06
-3.06321e-06
-3.73525e-06
-3.54001e-06
-2.70557e-06
-3.69662e-06
-1.70358e-06
-3.48075e-06
-8.40799e-07
-2.87251e-06
-2.35109e-07
-1.90002e-06
-6.62012e-07
-2.85601e-07
9.72619e-07
-9.93192e-07
2.61556e-06
-1.97434e-06
3.81655e-06
-3.0927e-06
4.52367e-06
-4.23095e-06
4.74841e-06
-5.29323e-06
4.53747e-06
-6.20446e-06
3.95665e-06
-6.90832e-06
3.08027e-06
-7.36456e-06
1.98502e-06
-7.54693e-06
7.48162e-07
-7.44208e-06
-5.51449e-07
-7.04999e-06
-1.83091e-06
-6.38593e-06
-3.00097e-06
-5.48374e-06
-3.9654e-06
-4.39993e-06
-4.62381e-06
-3.21715e-06
-4.8794e-06
-2.04537e-06
-4.65253e-06
-1.01884e-06
-3.89903e-06
-2.87259e-07
-2.6316e-06
-9.4927e-07
-3.35409e-07
1.30803e-06
-1.15725e-06
3.4374e-06
-2.28183e-06
4.94113e-06
-3.54521e-06
5.78705e-06
-4.81302e-06
6.01622e-06
-5.98174e-06
5.70618e-06
-6.97536e-06
4.95028e-06
-7.74016e-06
3.84507e-06
-8.23931e-06
2.48417e-06
-8.44866e-06
9.57513e-07
-8.35434e-06
-6.45765e-07
-7.95272e-06
-2.23254e-06
-7.25286e-06
-3.70083e-06
-6.28152e-06
-4.93674e-06
-5.0901e-06
-5.81524e-06
-3.76205e-06
-6.20745e-06
-2.41834e-06
-5.99624e-06
-1.21754e-06
-5.09983e-06
-3.46823e-07
-3.50232e-06
-1.29609e-06
-3.90382e-07
1.69841e-06
-1.33294e-06
4.37995e-06
-2.6011e-06
6.20929e-06
-3.99975e-06
7.1857e-06
-5.3781e-06
7.39457e-06
-6.62849e-06
6.95658e-06
-7.67881e-06
6.0006e-06
-8.48286e-06
4.64912e-06
-9.01137e-06
3.01268e-06
-9.24512e-06
1.19126e-06
-9.17084e-06
-7.20044e-07
-8.78044e-06
-2.62293e-06
-8.07384e-06
-4.40743e-06
-7.06565e-06
-5.94492e-06
-5.7956e-06
-7.08529e-06
-4.34124e-06
-7.66182e-06
-2.82988e-06
-7.50759e-06
-1.44466e-06
-6.48505e-06
-4.17429e-07
-4.52956e-06
-1.71352e-06
-4.53313e-07
2.15172e-06
-1.52519e-06
5.45183e-06
-2.93383e-06
7.61794e-06
-4.4483e-06
8.70017e-06
-5.90353e-06
8.8498e-06
-7.1939e-06
8.24694e-06
-8.25857e-06
7.06527e-06
-9.06586e-06
5.45641e-06
-9.59972e-06
3.54654e-06
-9.84975e-06
1.44129e-06
-9.80521e-06
-7.64583e-07
-9.45318e-06
-2.97497e-06
-8.78131e-06
-5.0793e-06
-7.78602e-06
-6.94022e-06
-6.48639e-06
-8.38491e-06
-4.94359e-06
-9.20462e-06
-3.28227e-06
-9.16891e-06
-1.70725e-06
-8.06006e-06
-5.03196e-07
-5.73362e-06
-2.21672e-06
-5.28671e-07
2.68039e-06
-1.74074e-06
6.66389e-06
-3.27998e-06
9.15718e-06
-4.8745e-06
1.02947e-05
-6.35056e-06
1.03259e-05
-7.61478e-06
9.51116e-06
-8.62843e-06
8.07893e-06
-9.38362e-06
6.21159e-06
-9.88456e-06
4.04747e-06
-1.01345e-05
1.69128e-06
-1.01281e-05
-7.71015e-07
-9.84792e-06
-3.25517e-06
-9.26683e-06
-5.66038e-06
-8.35654e-06
-7.85051e-06
-7.10445e-06
-9.637e-06
-5.54025e-06
-1.07688e-05
-3.77028e-06
-1.09389e-05
-2.01191e-06
-9.81843e-06
-6.09621e-07
-7.13591e-06
-2.82634e-06
-6.24458e-07
3.30485e-06
-1.98997e-06
8.02941e-06
-3.63684e-06
1.0804e-05
-5.2493e-06
1.19072e-05
-6.65722e-06
1.17338e-05
-7.79604e-06
1.065e-05
-8.66401e-06
8.9469e-06
-9.28819e-06
6.83577e-06
-9.70071e-06
4.46e-06
-9.92368e-06
1.91424e-06
-9.9602e-06
-7.34493e-07
-9.79014e-06
-3.42523e-06
-9.37063e-06
-6.07989e-06
-8.64331e-06
-8.57782e-06
-7.55201e-06
-1.07283e-05
-6.07532e-06
-1.22455e-05
-4.27644e-06
-1.27378e-05
-2.36466e-06
-1.17302e-05
-7.45058e-07
-8.75551e-06
-3.5714e-06
-7.55228e-07
4.06008e-06
-2.28817e-06
9.56235e-06
-3.99435e-06
1.25102e-05
-5.52021e-06
1.3433e-05
-6.72438e-06
1.29379e-05
-7.59659e-06
1.15222e-05
-8.19075e-06
9.54106e-06
-8.58022e-06
7.22524e-06
-8.83132e-06
4.7111e-06
-8.98868e-06
2.0716e-06
-9.06704e-06
-6.56133e-07
-9.04652e-06
-3.44574e-06
-8.87068e-06
-6.25573e-06
-8.44964e-06
-8.99886e-06
-7.67419e-06
-1.15037e-05
-6.44982e-06
-1.34699e-05
-4.76099e-06
-1.44266e-05
-2.76902e-06
-1.37222e-05
-9.23045e-07
-1.06015e-05
-4.49444e-06
-9.46499e-07
5.00658e-06
-2.65305e-06
1.12689e-05
-4.31986e-06
1.4177e-05
-5.58686e-06
1.47e-05
-6.38892e-06
1.374e-05
-6.80584e-06
1.19391e-05
-6.96676e-06
9.70197e-06
-6.99879e-06
7.25727e-06
-7.00354e-06
4.71585e-06
-7.04772e-06
2.11578e-06
-7.15896e-06
-5.44889e-07
-7.32197e-06
-3.28273e-06
-7.47357e-06
-6.10414e-06
-7.49865e-06
-8.97378e-06
-7.23403e-06
-1.17684e-05
-6.4941e-06
-1.42098e-05
-5.14041e-06
-1.57803e-05
-3.21832e-06
-1.56443e-05
-1.1652e-06
-1.26546e-05
-5.65964e-06
-1.23832e-06
6.2449e-06
-3.08784e-06
1.31184e-05
-4.51693e-06
1.56061e-05
-5.24881e-06
1.54319e-05
-5.3748e-06
1.3866e-05
-5.10646e-06
1.16708e-05
-4.65998e-06
9.25549e-06
-4.21189e-06
6.80918e-06
-3.88932e-06
4.39328e-06
-3.7729e-06
1.99935e-06
-3.90038e-06
-4.17408e-07
-4.26573e-06
-2.91737e-06
-4.81163e-06
-5.55825e-06
-5.41594e-06
-8.36946e-06
-5.87797e-06
-1.13063e-05
-5.92043e-06
-1.41674e-05
-5.24137e-06
-1.64593e-05
-3.67023e-06
-1.72154e-05
-1.50075e-06
-1.48241e-05
-7.16039e-06
-1.67373e-06
7.91864e-06
-3.51684e-06
1.49615e-05
-4.32351e-06
1.64128e-05
-4.10215e-06
1.52105e-05
-3.2117e-06
1.29755e-05
-2.02274e-06
1.04818e-05
-8.24043e-07
8.05679e-06
1.86418e-07
5.79872e-06
8.82522e-07
3.69718e-06
1.1886e-06
1.69328e-06
1.06539e-06
-2.94207e-07
5.06375e-07
-2.35835e-06
-4.54119e-07
-4.59775e-06
-1.71901e-06
-7.10458e-06
-3.09322e-06
-9.93213e-06
-4.24564e-06
-1.30149e-05
-4.70464e-06
-1.60003e-05
-3.9708e-06
-1.79493e-05
-1.94466e-06
-1.68502e-05
-9.10505e-06
-2.22746e-06
1.01461e-05
-3.59129e-06
1.63254e-05
-3.08373e-06
1.59052e-05
-1.35448e-06
1.34813e-05
8.81371e-07
1.07397e-05
3.13408e-06
8.22911e-06
5.11232e-06
6.07855e-06
6.65878e-06
4.25227e-06
7.69297e-06
2.66299e-06
8.17219e-06
1.21406e-06
8.06963e-06
-1.91646e-07
7.36647e-06
-1.6552e-06
6.05748e-06
-3.28875e-06
4.17421e-06
-5.22131e-06
1.83449e-06
-7.5924e-06
-6.756e-07
-1.05049e-05
-2.80016e-06
-1.38758e-05
-3.66373e-06
-1.70857e-05
-2.40799e-06
-1.8106e-05
-1.1513e-05
-2.56011e-06
1.27062e-05
-2.18219e-06
1.59474e-05
7.14449e-07
1.30086e-05
4.46246e-06
9.73329e-06
8.12202e-06
7.08013e-06
1.12858e-05
5.06536e-06
1.38089e-05
3.5554e-06
1.56642e-05
2.39699e-06
1.68651e-05
1.46211e-06
1.74269e-05
6.52266e-07
1.73483e-05
-1.13118e-07
1.66038e-05
-9.10712e-07
1.51432e-05
-1.82807e-06
1.29031e-05
-2.98129e-06
9.84573e-06
-4.53499e-06
6.05065e-06
-6.70978e-06
1.90589e-06
-9.73101e-06
-1.55937e-06
-1.36204e-05
-2.44391e-06
-1.72214e-05
-1.3957e-05
-8.09782e-07
1.3516e-05
4.07556e-06
1.10621e-05
1.02955e-05
6.7887e-06
1.579e-05
4.23879e-06
2.01516e-05
2.71844e-06
2.34485e-05
1.7685e-06
2.58481e-05
1.15583e-06
2.75061e-05
7.38992e-07
2.85366e-05
4.31571e-07
2.9008e-05
1.80883e-07
2.89438e-05
-4.88869e-08
2.83213e-05
-2.88264e-07
2.70663e-05
-5.73004e-07
2.5042e-05
-9.57002e-07
2.20414e-05
-1.53442e-06
1.78079e-05
-2.47631e-06
1.2167e-05
-4.09012e-06
5.46999e-06
-6.92338e-06
-1.57082e-07
-1.15944e-05
-1.4114e-05
1.3516e-05
2.45781e-05
3.13668e-05
3.56056e-05
3.8324e-05
4.00925e-05
4.12483e-05
4.19873e-05
4.24189e-05
4.25998e-05
4.25509e-05
4.22626e-05
4.16896e-05
4.07326e-05
3.91982e-05
3.67219e-05
3.26318e-05
2.57084e-05
1.4114e-05
)
;

boundaryField
{
    movingWall
    {
        type            calculated;
        value           uniform 0;
    }
    fixedWalls
    {
        type            calculated;
        value           uniform 0;
    }
    frontAndBack
    {
        type            empty;
        value           nonuniform List<scalar> 0();
    }
}


// ************************************************************************* //
