/*--------------------------------*- C++ -*----------------------------------*\
  =========                 |
  \\      /  F ield         | OpenFOAM: The Open Source CFD Toolbox
   \\    /   O peration     | Website:  https://openfoam.org
    \\  /    A nd           | Version:  8
     \\/     M anipulation  |
\*---------------------------------------------------------------------------*/
FoamFile
{
    version     2.0;
    format      ascii;
    class       volVectorField;
    location    "0.13";
    object      U;
}
// * * * * * * * * * * * * * * * * * * * * * * * * * * * * * * * * * * * * * //

dimensions      [0 1 -1 0 0 0 0];

internalField   nonuniform List<vector> 
400
(
(0.000251442 -0.000248563 0)
(0.000140558 0.000110369 0)
(-0.00116652 0.000560748 0)
(-0.00345284 0.000879594 0)
(-0.00632783 0.00103983 0)
(-0.00939754 0.00105611 0)
(-0.0123102 0.000953013 0)
(-0.014775 0.00075681 0)
(-0.0165674 0.000492519 0)
(-0.0175303 0.00018412 0)
(-0.0175753 -0.000143963 0)
(-0.0166861 -0.000465395 0)
(-0.0149252 -0.000751046 0)
(-0.0124392 -0.000968965 0)
(-0.00946213 -0.00108559 0)
(-0.00631266 -0.00106887 0)
(-0.00337781 -0.000894245 0)
(-0.00107847 -0.000554377 0)
(0.000195662 -9.01102e-05 0)
(0.000266336 0.000261061 0)
(-7.84892e-05 -0.000167775 0)
(-0.00160146 0.00163226 0)
(-0.00565172 0.00359032 0)
(-0.0116325 0.00499831 0)
(-0.0187523 0.00570247 0)
(-0.0262046 0.00571995 0)
(-0.0332203 0.00513606 0)
(-0.0391338 0.00406494 0)
(-0.0434196 0.0026307 0)
(-0.0457072 0.000962284 0)
(-0.0457912 -0.000805017 0)
(-0.0436421 -0.00252667 0)
(-0.0394164 -0.00404799 0)
(-0.0334645 -0.00520738 0)
(-0.026329 -0.00584594 0)
(-0.0187253 -0.00582609 0)
(-0.0114879 -0.00506257 0)
(-0.00547515 -0.00356738 0)
(-0.0014825 -0.00154844 0)
(-4.24471e-05 0.000227038 0)
(-0.000527694 0.00108513 0)
(-0.00368933 0.00569435 0)
(-0.0105179 0.010148 0)
(-0.0198532 0.0133075 0)
(-0.0305477 0.014835 0)
(-0.0415236 0.0147286 0)
(-0.0517447 0.0131577 0)
(-0.060305 0.0103798 0)
(-0.0664845 0.00669448 0)
(-0.0697748 0.00242485 0)
(-0.0698946 -0.00208553 0)
(-0.066805 -0.00647125 0)
(-0.0607221 -0.010347 0)
(-0.0521249 -0.0133193 0)
(-0.041751 -0.015013 0)
(-0.0305684 -0.0151186 0)
(-0.0196988 -0.0134643 0)
(-0.0102961 -0.0101118 0)
(-0.00352644 -0.00551296 0)
(-0.000474873 -0.000940554 0)
(-0.000924972 0.00345846 0)
(-0.00565792 0.0121353 0)
(-0.0152041 0.0197778 0)
(-0.0277348 0.0250139 0)
(-0.0417076 0.0273944 0)
(-0.0558029 0.0269375 0)
(-0.0687843 0.0239312 0)
(-0.0795815 0.0188152 0)
(-0.0873495 0.0121091 0)
(-0.0914926 0.004379 0)
(-0.0916792 -0.00377092 0)
(-0.0878575 -0.0116996 0)
(-0.0802704 -0.0187346 0)
(-0.0694678 -0.0241929 0)
(-0.0563072 -0.0274272 0)
(-0.0419305 -0.0279055 0)
(-0.0276853 -0.0253262 0)
(-0.0150022 -0.0197616 0)
(-0.00547348 -0.011849 0)
(-0.000858133 -0.00320192 0)
(-0.00127411 0.00683571 0)
(-0.00749456 0.0208142 0)
(-0.0196895 0.0322866 0)
(-0.0353259 0.0398227 0)
(-0.0524299 0.0429841 0)
(-0.0694388 0.0418919 0)
(-0.0849453 0.0370107 0)
(-0.0977606 0.0290051 0)
(-0.106961 0.0186474 0)
(-0.1119 0.00677414 0)
(-0.112211 -0.00572566 0)
(-0.107821 -0.0179104 0)
(-0.0989706 -0.0287911 0)
(-0.0862324 -0.0373577 0)
(-0.0705292 -0.0426428 0)
(-0.0531303 -0.0438301 0)
(-0.0355876 -0.0404137 0)
(-0.0196283 -0.0323868 0)
(-0.00733321 -0.0204614 0)
(-0.00119956 -0.00645621 0)
(-0.00160233 0.0111495 0)
(-0.00927414 0.0316752 0)
(-0.024089 0.0476423 0)
(-0.0427879 0.0576898 0)
(-0.0629381 0.0615232 0)
(-0.0827289 0.0594761 0)
(-0.100603 0.0522697 0)
(-0.11529 0.0408465 0)
(-0.125828 0.0262623 0)
(-0.131547 0.00963878 0)
(-0.13206 -0.00784431 0)
(-0.127264 -0.02494 0)
(-0.117367 -0.0403304 0)
(-0.102918 -0.05265 0)
(-0.0848523 -0.060558 0)
(-0.0645257 -0.0628732 0)
(-0.0436802 -0.0587769 0)
(-0.0243654 -0.0480563 0)
(-0.00921526 -0.0313726 0)
(-0.00153385 -0.0106653 0)
(-0.00193568 0.0163866 0)
(-0.0110808 0.0447158 0)
(-0.0285389 0.0658407 0)
(-0.0502823 0.0785798 0)
(-0.0733931 0.0829298 0)
(-0.0958166 0.07957 0)
(-0.115876 0.0695786 0)
(-0.132265 0.0542372 0)
(-0.144028 0.0349133 0)
(-0.150509 0.0130154 0)
(-0.151315 -0.00999974 0)
(-0.146308 -0.0325968 0)
(-0.135626 -0.0531358 0)
(-0.119742 -0.0698784 0)
(-0.0995412 -0.0810556 0)
(-0.0764082 -0.0850212 0)
(-0.0522445 -0.0805004 0)
(-0.0294372 -0.066907 0)
(-0.0112469 -0.0446985 0)
(-0.00189716 -0.0158669 0)
(-0.00229762 0.0225831 0)
(-0.0129936 0.0599912 0)
(-0.0331613 0.0868995 0)
(-0.0579215 0.102433 0)
(-0.0838409 0.107061 0)
(-0.108643 0.101972 0)
(-0.130584 0.0887224 0)
(-0.14839 0.0690029 0)
(-0.161176 0.0445136 0)
(-0.16835 0.016935 0)
(-0.169541 -0.0120367 0)
(-0.164567 -0.0406222 0)
(-0.153466 -0.0668926 0)
(-0.136564 -0.0887386 0)
(-0.11461 -0.103914 0)
(-0.0889247 -0.110192 0)
(-0.0615016 -0.105661 0)
(-0.0350548 -0.0891351 0)
(-0.0135552 -0.0606572 0)
(-0.00232509 -0.0221733 0)
(-0.00271222 0.0298196 0)
(-0.0150904 0.0776096 0)
(-0.0380585 0.11084 0)
(-0.0657484 0.129125 0)
(-0.0941776 0.133647 0)
(-0.120898 0.126319 0)
(-0.144192 0.109322 0)
(-0.162917 0.0848258 0)
(-0.176356 0.0548758 0)
(-0.184053 0.0213865 0)
(-0.185696 -0.0137742 0)
(-0.181068 -0.0486625 0)
(-0.170065 -0.0811305 0)
(-0.152788 -0.108733 0)
(-0.129727 -0.128716 0)
(-0.101999 -0.138152 0)
(-0.0715622 -0.134265 0)
(-0.0413958 -0.114965 0)
(-0.0162667 -0.0795611 0)
(-0.00285578 -0.0297694 0)
(-0.00321205 0.0382245 0)
(-0.017466 0.0977239 0)
(-0.0433261 0.137647 0)
(-0.0737284 0.158389 0)
(-0.104114 0.162194 0)
(-0.131964 0.15198 0)
(-0.155734 0.130724 0)
(-0.174564 0.101152 0)
(-0.188032 0.0656418 0)
(-0.195915 0.0262742 0)
(-0.198023 -0.0150159 0)
(-0.194116 -0.056243 0)
(-0.183919 -0.095159 0)
(-0.167216 -0.129067 0)
(-0.144085 -0.154719 0)
(-0.115235 -0.168376 0)
(-0.0823726 -0.166135 0)
(-0.0485941 -0.144579 0)
(-0.0195195 -0.101797 0)
(-0.00353765 -0.038916 0)
(-0.00385273 0.0479954 0)
(-0.0202651 0.120532 0)
(-0.0490765 0.167213 0)
(-0.0817356 0.18971 0)
(-0.113119 0.191847 0)
(-0.140823 0.177915 0)
(-0.163703 0.151884 0)
(-0.181391 0.117092 0)
(-0.193923 0.0762054 0)
(-0.201427 0.0313661 0)
(-0.203911 -0.0155728 0)
(-0.201149 -0.0627556 0)
(-0.192673 -0.108011 0)
(-0.177867 -0.148547 0)
(-0.156222 -0.180703 0)
(-0.127771 -0.199872 0)
(-0.0936338 -0.20074 0)
(-0.0567252 -0.178011 0)
(-0.023485 -0.127797 0)
(-0.00444328 -0.0499684 0)
(-0.00473871 0.0594494 0)
(-0.0237324 0.146281 0)
(-0.0554559 0.199251 0)
(-0.0894996 0.222168 0)
(-0.120294 0.221212 0)
(-0.145891 0.202511 0)
(-0.165879 0.171228 0)
(-0.180643 0.131317 0)
(-0.190866 0.0856392 0)
(-0.197147 0.036239 0)
(-0.199774 -0.015301 0)
(-0.198584 -0.0674705 0)
(-0.192933 -0.118413 0)
(-0.18175 -0.165481 0)
(-0.163779 -0.204801 0)
(-0.138059 -0.230947 0)
(-0.104652 -0.236956 0)
(-0.0657624 -0.214972 0)
(-0.0283987 -0.157997 0)
(-0.00569408 -0.0634183 0)
(-0.00606902 0.0731267 0)
(-0.0282793 0.175273 0)
(-0.0626168 0.233125 0)
(-0.0964413 0.254188 0)
(-0.124118 0.248112 0)
(-0.144729 0.223403 0)
(-0.159062 0.186536 0)
(-0.168545 0.141996 0)
(-0.174669 0.0926509 0)
(-0.178597 0.0402382 0)
(-0.180954 -0.0141485 0)
(-0.181706 -0.069583 0)
(-0.180089 -0.124803 0)
(-0.174602 -0.177638 0)
(-0.163157 -0.224343 0)
(-0.143507 -0.258929 0)
(-0.11406 -0.272707 0)
(-0.0754582 -0.254551 0)
(-0.0345931 -0.192744 0)
(-0.00750269 -0.0799795 0)
(-0.00821173 0.0899704 0)
(-0.0345452 0.207792 0)
(-0.0705419 0.267519 0)
(-0.101247 0.283135 0)
(-0.121894 0.269277 0)
(-0.133519 0.237295 0)
(-0.138656 0.194898 0)
(-0.140022 0.146815 0)
(-0.139973 0.0956184 0)
(-0.140223 0.0424831 0)
(-0.141734 -0.0122021 0)
(-0.144649 -0.0683109 0)
(-0.148208 -0.125449 0)
(-0.150632 -0.182304 0)
(-0.149092 -0.235779 0)
(-0.139918 -0.279872 0)
(-0.119274 -0.30448 0)
(-0.0850328 -0.294705 0)
(-0.04249 -0.232073 0)
(-0.0102355 -0.100727 0)
(-0.0117843 0.111585 0)
(-0.0433187 0.243802 0)
(-0.0784296 0.299761 0)
(-0.100862 0.304722 0)
(-0.108692 0.280028 0)
(-0.106176 0.239933 0)
(-0.0980712 0.192858 0)
(-0.0883945 0.143196 0)
(-0.0801848 0.092786 0)
(-0.0755027 0.0419722 0)
(-0.0755236 -0.00971354 0)
(-0.0805834 -0.0630594 0)
(-0.0900974 -0.118715 0)
(-0.102339 -0.176583 0)
(-0.114134 -0.234844 0)
(-0.120639 -0.288414 0)
(-0.115484 -0.326749 0)
(-0.092384 -0.331424 0)
(-0.0523679 -0.275157 0)
(-0.0144475 -0.127255 0)
(-0.0175507 0.140623 0)
(-0.0547977 0.282058 0)
(-0.0828979 0.324539 0)
(-0.0882939 0.312207 0)
(-0.075428 0.274133 0)
(-0.0530194 0.226427 0)
(-0.0279916 0.176961 0)
(-0.00513892 0.128859 0)
(0.0124046 0.0827155 0)
(0.0227037 0.0378468 0)
(0.0246521 -0.00706811 0)
(0.0177845 -0.0536493 0)
(0.00231262 -0.103549 0)
(-0.0205799 -0.158043 0)
(-0.0481627 -0.217174 0)
(-0.0753425 -0.278012 0)
(-0.0937826 -0.331458 0)
(-0.0921828 -0.357412 0)
(-0.0633122 -0.319121 0)
(-0.0206346 -0.161891 0)
(-0.025401 0.181641 0)
(-0.0657371 0.31778 0)
(-0.0734035 0.331283 0)
(-0.0482432 0.295231 0)
(-0.00583952 0.243993 0)
(0.0408525 0.192144 0)
(0.084183 0.14482 0)
(0.119974 0.102779 0)
(0.146067 0.0649995 0)
(0.161366 0.0298203 0)
(0.165246 -0.00467009 0)
(0.157259 -0.0405563 0)
(0.137104 -0.0801118 0)
(0.10489 -0.125734 0)
(0.0618115 -0.17951 0)
(0.0114688 -0.241792 0)
(-0.0380508 -0.307665 0)
(-0.0717777 -0.359997 0)
(-0.0700144 -0.35655 0)
(-0.0278568 -0.208251 0)
(-0.0294359 0.238944 0)
(-0.060626 0.335928 0)
(-0.0219858 0.300538 0)
(0.0504237 0.240047 0)
(0.127392 0.182827 0)
(0.196738 0.135254 0)
(0.253974 0.0972684 0)
(0.297805 0.0667404 0)
(0.328313 0.0412764 0)
(0.345913 0.0187385 0)
(0.350807 -0.00279277 0)
(0.342748 -0.0252242 0)
(0.320955 -0.0507126 0)
(0.284193 -0.081947 0)
(0.231205 -0.12233 0)
(0.161908 -0.175551 0)
(0.0797072 -0.243337 0)
(-0.00327764 -0.319137 0)
(-0.0544312 -0.368726 0)
(-0.028217 -0.267319 0)
(0.00868144 0.281486 0)
(0.020361 0.295061 0)
(0.138981 0.211046 0)
(0.264358 0.143485 0)
(0.36427 0.0971687 0)
(0.440208 0.0657493 0)
(0.496518 0.0442052 0)
(0.536588 0.0288564 0)
(0.563113 0.0171774 0)
(0.577941 0.0074747 0)
(0.582006 -0.00149206 0)
(0.575331 -0.010832 0)
(0.556973 -0.0218259 0)
(0.524844 -0.0363106 0)
(0.475543 -0.0572377 0)
(0.404359 -0.089371 0)
(0.305001 -0.13975 0)
(0.173268 -0.216446 0)
(0.0417716 -0.311707 0)
(0.019081 -0.299584 0)
(0.300185 0.145893 0)
(0.396877 0.127462 0)
(0.557411 0.0761127 0)
(0.67445 0.0437492 0)
(0.743864 0.0255931 0)
(0.787102 0.0152575 0)
(0.815403 0.00922236 0)
(0.833848 0.00551557 0)
(0.84526 0.00303106 0)
(0.851235 0.00115193 0)
(0.852528 -0.000498041 0)
(0.849249 -0.00221504 0)
(0.840879 -0.00434107 0)
(0.826037 -0.00743091 0)
(0.801997 -0.0125452 0)
(0.763562 -0.0217933 0)
(0.699033 -0.0393109 0)
(0.583889 -0.0726838 0)
(0.416407 -0.127818 0)
(0.309416 -0.149276 0)
)
;

boundaryField
{
    movingWall
    {
        type            fixedValue;
        value           uniform (1 0 0);
    }
    fixedWalls
    {
        type            noSlip;
    }
    frontAndBack
    {
        type            empty;
    }
}


// ************************************************************************* //
