/*--------------------------------*- C++ -*----------------------------------*\
  =========                 |
  \\      /  F ield         | OpenFOAM: The Open Source CFD Toolbox
   \\    /   O peration     | Website:  https://openfoam.org
    \\  /    A nd           | Version:  8
     \\/     M anipulation  |
\*---------------------------------------------------------------------------*/
FoamFile
{
    version     2.0;
    format      ascii;
    class       volScalarField;
    location    "13.5";
    object      p;
}
// * * * * * * * * * * * * * * * * * * * * * * * * * * * * * * * * * * * * * //

dimensions      [0 2 -2 0 0 0 0];

internalField   nonuniform List<scalar> 
116
(
-1.65952e-07
-0.000520501
-0.000138944
-0.00225341
-0.000730184
-0.00748868
0.000393861
0.000185753
0.000292201
-0.000608815
-0.00039508
-0.00138488
0.000215914
3.68562e-05
2.30383e-05
-0.000583649
-0.000963126
-0.00279951
0.000281207
0.000199658
5.99158e-05
-0.00025312
-0.000995088
-0.00201324
9.67744e-05
-4.69709e-06
-0.000226816
-0.000436614
-0.00155646
-0.00216622
-0.00025779
-0.00015657
-0.000430435
-0.000266939
-0.00129525
-0.00130006
8.74415e-05
-0.000238487
-0.000483957
-0.000619456
-0.00144069
-0.00124424
-0.00103648
-0.000476712
-0.000433445
0.000218256
-9.8152e-05
0.000282337
0.000649504
-0.0010933
-0.000399024
-0.000805723
-0.000941676
-0.000837298
-0.00653437
0.000558131
0.000952211
0.00150773
0.00119185
0.00154948
-0.00194821
0.00336907
0.00464034
0.00631352
-0.00262645
-0.00258756
-0.00144491
0.00077462
-0.00491997
-0.00671475
-0.00628581
-0.00307025
-0.00545086
-0.00672241
-0.00689757
-0.00415946
-0.00540778
-0.00634358
-0.00725506
-0.00402571
-0.00392288
-0.00335151
-0.00553624
-0.00190592
-0.00343241
-0.00251073
-0.00480866
0.00153713
-0.000452001
0.000192913
-0.00110248
0.00779035
-0.0028204
-0.00207012
-0.00314628
0.0122532
0.00129364
0.00597862
0.0151445
0.0496379
0.0153407
0.0156248
0.0161914
0.0180637
0.0149489
0.0156654
0.0158162
0.0178145
0.0124245
0.0125676
0.0125218
0.014969
0.00640463
0.0112124
0.00940602
0.011181
)
;

boundaryField
{
    movingWall
    {
        type            zeroGradient;
    }
    fixedWalls
    {
        type            zeroGradient;
    }
    frontAndBack
    {
        type            empty;
    }
}


// ************************************************************************* //
