/*--------------------------------*- C++ -*----------------------------------*\
  =========                 |
  \\      /  F ield         | OpenFOAM: The Open Source CFD Toolbox
   \\    /   O peration     | Website:  https://openfoam.org
    \\  /    A nd           | Version:  8
     \\/     M anipulation  |
\*---------------------------------------------------------------------------*/
FoamFile
{
    version     2.0;
    format      ascii;
    class       surfaceScalarField;
    location    "13.5";
    object      phi;
}
// * * * * * * * * * * * * * * * * * * * * * * * * * * * * * * * * * * * * * //

dimensions      [0 3 -1 0 0 0 0];

internalField   nonuniform List<scalar> 
208
(
-1.27858e-06
1.2786e-06
-2.89414e-06
1.61556e-06
-7.34627e-06
4.45213e-06
-1.16326e-05
4.28637e-06
-4.20826e-05
3.045e-05
5.50822e-05
-9.71648e-05
-8.15028e-06
9.42888e-06
-2.02336e-05
1.36989e-05
-3.48288e-05
1.90474e-05
-5.50527e-05
2.45103e-05
-7.43863e-05
4.97836e-05
6.98297e-05
-8.91339e-05
-6.19819e-06
1.56271e-05
-1.66811e-05
2.41818e-05
-2.90266e-05
3.13929e-05
-4.50894e-05
4.05731e-05
-5.76084e-05
6.23026e-05
7.63102e-05
-6.40889e-05
-7.19967e-06
2.28267e-05
-1.61444e-05
3.31265e-05
-2.52614e-05
4.05099e-05
-3.2838e-05
4.81497e-05
-3.77181e-05
6.71827e-05
7.21668e-05
-3.35747e-05
-9.17604e-07
2.37443e-05
-6.48066e-06
3.86895e-05
-1.16286e-05
4.56578e-05
-1.43971e-05
5.09181e-05
-1.16996e-05
6.44852e-05
6.34718e-05
-3.00454e-06
-3.00449e-06
2.67488e-05
-3.17839e-06
3.88634e-05
-2.27044e-06
4.47499e-05
-1.26976e-06
4.99175e-05
4.8263e-06
5.83892e-05
5.72586e-05
1.10395e-05
1.6655e-06
2.50833e-05
-5.64493e-06
4.61739e-05
-6.70708e-06
4.5812e-05
-3.39933e-06
4.66097e-05
8.73075e-06
4.62591e-05
4.71542e-05
1.88351e-05
7.43128e-06
1.76521e-05
1.50454e-05
3.85598e-05
1.97953e-05
4.10621e-05
2.03578e-05
4.60472e-05
2.55799e-05
4.10369e-05
4.47588e-05
2.79753e-05
-4.85249e-05
6.6177e-05
-4.67443e-05
3.67792e-05
-3.98177e-05
3.41354e-05
-2.5412e-05
3.16415e-05
-8.31732e-06
2.39423e-05
2.53767e-05
1.10648e-05
6.6177e-05
0.000102956
0.000137092
0.000168733
0.000192675
0.000218052
-0.000102144
0.000125862
-0.000120882
-7.43339e-05
3.25879e-05
-6.03985e-05
-2.9539e-05
-7.99254e-05
3.51304e-05
-0.000175689
0.00014615
-7.77425e-05
0.00011447
-5.3749e-05
8.59447e-06
-3.18188e-05
-0.000101856
-0.000207508
-4.46841e-05
9.50657e-05
-2.90645e-05
-7.02522e-06
-1.80203e-05
-0.0001129
-0.000225528
-1.6385e-05
7.7876e-05
-8.09488e-06
-1.53153e-05
-9.55685e-06
-0.000111438
-0.000235085
8.79568e-06
6.60758e-05
2.22725e-06
-8.74688e-06
-7.44557e-06
-0.000101765
-0.000242531
2.22543e-05
5.4861e-05
1.59808e-05
-2.47343e-06
3.79847e-06
-8.95826e-05
-0.000238732
3.42785e-05
3.94176e-05
1.94323e-05
1.23728e-05
-5.06067e-07
-6.96442e-05
-0.000239238
3.43589e-05
3.30339e-05
2.13521e-05
2.53796e-05
1.53229e-05
-6.3615e-05
-0.000223915
3.25863e-05
1.15124e-05
5.37123e-05
4.2536e-06
5.72381e-05
-6.71408e-05
-0.000166677
0.000229565
0.000233818
0.000166677
-1.42127e-05
1.42127e-05
-2.49471e-05
1.07345e-05
-2.68869e-05
1.93975e-06
-2.68869e-05
-2.41147e-05
3.83273e-05
-3.7897e-05
2.45168e-05
-4.19944e-05
6.03714e-06
-6.88813e-05
-3.7795e-05
7.61223e-05
-5.68429e-05
4.35647e-05
-4.92199e-05
-1.58593e-06
-0.000118101
-4.47599e-05
-6.15936e-05
-2.80491e-05
)
;

boundaryField
{
    movingWall
    {
        type            calculated;
        value           uniform 0;
    }
    fixedWalls
    {
        type            calculated;
        value           uniform 0;
    }
    frontAndBack
    {
        type            empty;
        value           nonuniform List<scalar> 0();
    }
}


// ************************************************************************* //
