0 	0 	0 	0
1.57135 	-0.0048092 	-0.00090394 	0
3.1427 	-0.0209996 	0.0172325 	0
4.71405 	-0.0301318 	0.0449323 	0
6.28539 	-0.0167698 	0.065799 	0
7.85674 	0.00916302 	0.0611688 	0
9.42809 	0.0307593 	0.0357058 	0
10.9994 	0.0355092 	-0.011428 	0
12.5708 	0.111155 	-0.0985268 	0
14.1421 	0.5 	0 	0
