/*--------------------------------*- C++ -*----------------------------------*\
  =========                 |
  \\      /  F ield         | OpenFOAM: The Open Source CFD Toolbox
   \\    /   O peration     | Website:  https://openfoam.org
    \\  /    A nd           | Version:  8
     \\/     M anipulation  |
\*---------------------------------------------------------------------------*/
FoamFile
{
    version     2.0;
    format      ascii;
    class       surfaceScalarField;
    location    "24";
    object      phi;
}
// * * * * * * * * * * * * * * * * * * * * * * * * * * * * * * * * * * * * * //

dimensions      [0 3 -1 0 0 0 0];

internalField   nonuniform List<scalar> 
208
(
6.55685e-06
-6.55687e-06
1.72244e-05
-1.06675e-05
1.63959e-05
8.2854e-07
3.9318e-06
1.24641e-05
-6.30778e-05
6.70096e-05
7.88767e-05
-0.000141954
-2.15654e-06
-4.40033e-06
-1.09771e-05
-1.84695e-06
-3.68503e-05
2.67017e-05
-8.17942e-05
5.74079e-05
-0.000119248
0.000104463
8.9959e-05
-0.00013033
-6.75066e-06
2.35033e-06
-2.29588e-05
1.43612e-05
-4.53225e-05
4.90654e-05
-7.18017e-05
8.38871e-05
-9.10645e-05
0.000123726
8.97742e-05
-9.08797e-05
-9.40609e-06
1.17564e-05
-2.19211e-05
2.68763e-05
-3.52033e-05
6.23475e-05
-4.57872e-05
9.4471e-05
-5.15129e-05
0.000129452
8.2031e-05
-4.37697e-05
-5.0586e-06
1.6815e-05
-1.32841e-05
3.51017e-05
-1.43621e-05
6.34255e-05
-9.48643e-06
8.95954e-05
-1.75559e-06
0.000121721
7.38635e-05
6.41191e-06
-4.41773e-06
2.12327e-05
-4.90971e-06
3.55937e-05
3.14934e-06
5.53665e-05
1.73389e-05
7.54059e-05
2.95439e-05
0.000109516
7.17165e-05
3.16909e-05
1.10153e-06
2.01312e-05
-6.05072e-06
4.2746e-05
-1.37928e-07
4.94537e-05
1.62279e-05
5.904e-05
4.10176e-05
8.47263e-05
6.06669e-05
5.20672e-05
4.10607e-06
1.60252e-05
1.00397e-05
3.68123e-05
1.7432e-05
4.20614e-05
2.66646e-05
4.98074e-05
4.8742e-05
6.26489e-05
5.32582e-05
5.61508e-05
-4.96514e-05
6.56765e-05
-4.81669e-05
3.53278e-05
-3.99345e-05
3.3829e-05
-2.08737e-05
3.07466e-05
1.11478e-05
3.06274e-05
2.8074e-05
3.6332e-05
6.56765e-05
0.000101004
0.000134833
0.00016558
0.000196207
0.000224281
-0.000120379
8.70069e-05
-0.000108583
-7.66392e-05
-5.32066e-05
9.46731e-06
-2.6032e-05
-3.63749e-05
-1.42324e-05
-0.00013938
0.000113348
-0.000107813
6.44894e-05
-9.37071e-05
-6.73123e-05
-4.43011e-05
-8.57808e-05
-0.000183681
-6.24907e-05
3.61004e-05
-5.56242e-05
-7.41788e-05
-3.33409e-05
-0.000108064
-0.000217022
-2.30333e-05
1.53639e-05
-2.57421e-05
-7.14699e-05
-1.94072e-05
-0.000114399
-0.000236429
1.38219e-05
7.95393e-06
-1.90151e-06
-5.57464e-05
-9.62596e-06
-0.000106675
-0.000246055
3.22605e-05
7.38435e-06
1.36503e-05
-3.71362e-05
4.8833e-07
-9.35127e-05
-0.000245567
4.87082e-05
1.07434e-05
1.83972e-05
-6.82526e-06
-1.15881e-06
-7.39567e-05
-0.000246726
4.84823e-05
1.84118e-05
2.53959e-05
1.62611e-05
1.88064e-05
-6.73671e-05
-0.000227919
4.42893e-05
1.04544e-05
5.81822e-05
2.36823e-06
5.94748e-05
-6.86596e-05
-0.000168444
0.000234736
0.000237104
0.000168444
-2.18222e-05
2.18222e-05
-3.52729e-05
1.34506e-05
-3.84938e-05
3.22097e-06
-3.84938e-05
-2.36623e-05
4.54846e-05
-3.21029e-05
2.18912e-05
-4.11497e-05
1.22678e-05
-7.96435e-05
-2.54726e-05
7.09571e-05
-1.54792e-05
1.18979e-05
-2.86769e-05
2.54655e-05
-0.00010832
-3.76257e-05
-1.62605e-05
-5.02741e-06
)
;

boundaryField
{
    movingWall
    {
        type            calculated;
        value           uniform 0;
    }
    fixedWalls
    {
        type            calculated;
        value           uniform 0;
    }
    frontAndBack
    {
        type            empty;
        value           nonuniform List<scalar> 0();
    }
}


// ************************************************************************* //
