/*--------------------------------*- C++ -*----------------------------------*\
  =========                 |
  \\      /  F ield         | OpenFOAM: The Open Source CFD Toolbox
   \\    /   O peration     | Website:  https://openfoam.org
    \\  /    A nd           | Version:  8
     \\/     M anipulation  |
\*---------------------------------------------------------------------------*/
FoamFile
{
    version     2.0;
    format      ascii;
    class       volScalarField;
    location    "33.5";
    object      p;
}
// * * * * * * * * * * * * * * * * * * * * * * * * * * * * * * * * * * * * * //

dimensions      [0 2 -2 0 0 0 0];

internalField   nonuniform List<scalar> 
116
(
-2.89827e-09
-0.000839502
-0.00151292
-0.00314856
0.000372071
-0.00819001
0.000348553
-0.000146069
-0.00046605
-0.00352303
-0.0015085
-0.00259101
0.00100643
0.000438154
-7.44219e-05
-0.00245935
-0.00456092
-0.00674516
0.00127799
0.000854699
-0.000184284
-0.00281423
-0.00583974
-0.00751133
0.00115298
0.000735809
-0.000737726
-0.00394352
-0.00786697
-0.00961916
0.000408327
0.000179948
-0.00127255
-0.00414328
-0.00839951
-0.0105105
0.000387918
1.32307e-05
-0.00113309
-0.00381974
-0.00793672
-0.0108985
-0.000676501
-0.000131208
-0.000397382
-0.00156076
-0.00402244
-0.00596413
0.000534953
-0.000535639
0.000874354
-8.94169e-05
-0.00211529
-0.00451577
-0.0053508
0.00231933
0.00297804
0.00208268
-0.000478464
-0.0020671
0.000697934
0.00967122
0.00802441
0.012366
-0.00160093
0.00208756
0.00384189
0.00689419
-0.00677902
-0.00465616
-0.00208986
0.000818811
-0.00842361
-0.00707459
-0.00602029
-0.00319092
-0.0103105
-0.00885282
-0.00848008
-0.00561294
-0.0113722
-0.00889561
-0.00898514
-0.00568394
-0.0118645
-0.00870558
-0.010052
-0.00267549
-0.00585567
-0.00319298
-0.00290664
0.00686128
-0.0064205
-0.00426838
-0.00344879
0.0126086
-0.00222446
0.00436509
0.01658
0.0522964
0.0166645
0.0159104
0.0156565
0.0188502
0.0148317
0.0148385
0.0131054
0.0153573
0.0111522
0.0117562
0.0102141
0.0114158
0.00735032
0.014849
0.00932229
0.012871
)
;

boundaryField
{
    movingWall
    {
        type            zeroGradient;
    }
    fixedWalls
    {
        type            zeroGradient;
    }
    frontAndBack
    {
        type            empty;
    }
}


// ************************************************************************* //
