/*--------------------------------*- C++ -*----------------------------------*\
  =========                 |
  \\      /  F ield         | OpenFOAM: The Open Source CFD Toolbox
   \\    /   O peration     | Website:  https://openfoam.org
    \\  /    A nd           | Version:  8
     \\/     M anipulation  |
\*---------------------------------------------------------------------------*/
FoamFile
{
    version     2.0;
    format      ascii;
    class       volVectorField;
    location    "1.01";
    object      U;
}
// * * * * * * * * * * * * * * * * * * * * * * * * * * * * * * * * * * * * * //

dimensions      [0 1 -1 0 0 0 0];

internalField   nonuniform List<vector> 
400
(
(0.0249837 1.44359e-08 0)
(0.0249837 2.04918e-08 0)
(0.0249837 1.59739e-08 0)
(0.0249836 1.14757e-08 0)
(0.0249836 8.11948e-09 0)
(0.0249836 6.01406e-09 0)
(0.0249836 4.53691e-09 0)
(0.0249836 3.44077e-09 0)
(0.0249836 2.56543e-09 0)
(0.0249836 1.75824e-09 0)
(0.0249836 8.9696e-10 0)
(0.0249836 -1.11596e-10 0)
(0.0249836 -1.35458e-09 0)
(0.0249836 -2.96924e-09 0)
(0.0249836 -5.1825e-09 0)
(0.0249836 -8.39152e-09 0)
(0.0249836 -1.32093e-08 0)
(0.0249837 -1.83601e-08 0)
(0.0249837 -1.84631e-08 0)
(0.0249837 -4.13707e-09 0)
(0.0749515 1.98366e-08 0)
(0.0749515 5.21314e-08 0)
(0.0749514 5.23733e-08 0)
(0.0749514 4.35648e-08 0)
(0.0749513 3.40315e-08 0)
(0.0749513 2.67672e-08 0)
(0.0749513 2.11477e-08 0)
(0.0749513 1.65987e-08 0)
(0.0749513 1.25927e-08 0)
(0.0749512 8.66423e-09 0)
(0.0749512 4.4473e-09 0)
(0.0749512 -3.63122e-10 0)
(0.0749512 -6.09289e-09 0)
(0.0749512 -1.32067e-08 0)
(0.0749513 -2.23737e-08 0)
(0.0749513 -3.44654e-08 0)
(0.0749513 -5.03027e-08 0)
(0.0749514 -6.52725e-08 0)
(0.0749514 -6.41536e-08 0)
(0.0749515 -2.82521e-08 0)
(0.12492 1.90194e-08 0)
(0.12492 7.47819e-08 0)
(0.12492 9.12938e-08 0)
(0.12492 8.37324e-08 0)
(0.12492 7.03607e-08 0)
(0.12492 5.80348e-08 0)
(0.12492 4.74753e-08 0)
(0.12492 3.82497e-08 0)
(0.12492 2.96067e-08 0)
(0.12492 2.08415e-08 0)
(0.12492 1.13867e-08 0)
(0.12492 7.47687e-10 0)
(0.12492 -1.1625e-08 0)
(0.12492 -2.64695e-08 0)
(0.12492 -4.4721e-08 0)
(0.12492 -6.72249e-08 0)
(0.12492 -9.38195e-08 0)
(0.12492 -1.17322e-07 0)
(0.12492 -1.14598e-07 0)
(0.12492 -6.37503e-08 0)
(0.174891 3.75144e-09 0)
(0.174891 8.25286e-08 0)
(0.174891 1.14365e-07 0)
(0.174891 1.12821e-07 0)
(0.174891 9.99881e-08 0)
(0.174891 8.56879e-08 0)
(0.174891 7.20346e-08 0)
(0.174891 5.91318e-08 0)
(0.174891 4.6403e-08 0)
(0.174891 3.31623e-08 0)
(0.174891 1.87904e-08 0)
(0.174891 2.71443e-09 0)
(0.174891 -1.57014e-08 0)
(0.174891 -3.72544e-08 0)
(0.174891 -6.28242e-08 0)
(0.174891 -9.28355e-08 0)
(0.174891 -1.25956e-07 0)
(0.174891 -1.53383e-07 0)
(0.174891 -1.50627e-07 0)
(0.174891 -9.24359e-08 0)
(0.224865 -1.11316e-08 0)
(0.224865 7.8277e-08 0)
(0.224865 1.2139e-07 0)
(0.224865 1.27222e-07 0)
(0.224865 1.17839e-07 0)
(0.224865 1.04314e-07 0)
(0.224865 8.97285e-08 0)
(0.224865 7.48259e-08 0)
(0.224865 5.94129e-08 0)
(0.224865 4.30019e-08 0)
(0.224865 2.50742e-08 0)
(0.224865 5.12211e-09 0)
(0.224865 -1.74201e-08 0)
(0.224865 -4.32414e-08 0)
(0.224865 -7.3017e-08 0)
(0.224865 -1.06769e-07 0)
(0.224865 -1.42416e-07 0)
(0.224865 -1.71018e-07 0)
(0.224865 -1.69232e-07 0)
(0.224865 -1.11663e-07 0)
(0.274841 -2.58671e-08 0)
(0.274841 6.49728e-08 0)
(0.274841 1.1468e-07 0)
(0.274841 1.27164e-07 0)
(0.274841 1.22404e-07 0)
(0.274841 1.11478e-07 0)
(0.274841 9.79065e-08 0)
(0.274841 8.28953e-08 0)
(0.274841 6.6625e-08 0)
(0.274841 4.8879e-08 0)
(0.274841 2.93405e-08 0)
(0.274841 7.68004e-09 0)
(0.274841 -1.64828e-08 0)
(0.274841 -4.3634e-08 0)
(0.274841 -7.42248e-08 0)
(0.274841 -1.08035e-07 0)
(0.274841 -1.42817e-07 0)
(0.274841 -1.70639e-07 0)
(0.274841 -1.71249e-07 0)
(0.274841 -1.20559e-07 0)
(0.324822 -3.77953e-08 0)
(0.324822 4.65297e-08 0)
(0.324822 9.76764e-08 0)
(0.324822 1.14825e-07 0)
(0.324822 1.14634e-07 0)
(0.324822 1.07231e-07 0)
(0.324822 9.6076e-08 0)
(0.324822 8.25867e-08 0)
(0.324822 6.72275e-08 0)
(0.324822 5.00524e-08 0)
(0.324822 3.09856e-08 0)
(0.324822 9.92159e-09 0)
(0.324822 -1.33017e-08 0)
(0.324822 -3.89583e-08 0)
(0.324822 -6.73179e-08 0)
(0.324822 -9.80902e-08 0)
(0.324822 -1.2929e-07 0)
(0.324822 -1.54774e-07 0)
(0.324822 -1.58573e-07 0)
(0.324822 -1.19091e-07 0)
(0.374807 -4.56087e-08 0)
(0.374807 2.57198e-08 0)
(0.374807 7.34536e-08 0)
(0.374807 9.28249e-08 0)
(0.374807 9.64529e-08 0)
(0.374807 9.28507e-08 0)
(0.374807 8.5009e-08 0)
(0.374807 7.43196e-08 0)
(0.374808 6.14123e-08 0)
(0.374808 4.65659e-08 0)
(0.374808 2.9926e-08 0)
(0.374808 1.15915e-08 0)
(0.374808 -8.40534e-09 0)
(0.374808 -3.01541e-08 0)
(0.374807 -5.37906e-08 0)
(0.374807 -7.90778e-08 0)
(0.374807 -1.04574e-07 0)
(0.374807 -1.26361e-07 0)
(0.374807 -1.33533e-07 0)
(0.374807 -1.07979e-07 0)
(0.424797 -4.88285e-08 0)
(0.424797 4.52615e-09 0)
(0.424797 4.47199e-08 0)
(0.424797 6.39211e-08 0)
(0.424797 7.03376e-08 0)
(0.424797 7.04072e-08 0)
(0.424797 6.63665e-08 0)
(0.424797 5.93862e-08 0)
(0.424797 5.01405e-08 0)
(0.424797 3.90541e-08 0)
(0.424797 2.6434e-08 0)
(0.424797 1.25319e-08 0)
(0.424797 -2.46723e-09 0)
(0.424797 -1.84987e-08 0)
(0.424797 -3.55954e-08 0)
(0.424797 -5.36352e-08 0)
(0.424797 -7.18561e-08 0)
(0.424797 -8.87503e-08 0)
(0.424797 -9.88945e-08 0)
(0.424797 -8.85928e-08 0)
(0.474792 -4.75795e-08 0)
(0.474792 -1.56717e-08 0)
(0.474792 1.37802e-08 0)
(0.474792 3.07841e-08 0)
(0.474792 3.8977e-08 0)
(0.474792 4.2411e-08 0)
(0.474792 4.23797e-08 0)
(0.474792 3.96836e-08 0)
(0.474792 3.49254e-08 0)
(0.474792 2.85858e-08 0)
(0.474792 2.10638e-08 0)
(0.474792 1.27114e-08 0)
(0.474792 3.83194e-09 0)
(0.474792 -5.37255e-09 0)
(0.474792 -1.48364e-08 0)
(0.474792 -2.45557e-08 0)
(0.474792 -3.44663e-08 0)
(0.474792 -4.5453e-08 0)
(0.474792 -5.76991e-08 0)
(0.474792 -6.27443e-08 0)
(0.524792 -4.24669e-08 0)
(0.524792 -3.39718e-08 0)
(0.524792 -1.74264e-08 0)
(0.524792 -4.07615e-09 0)
(0.524792 5.11261e-09 0)
(0.524792 1.15984e-08 0)
(0.524792 1.56126e-08 0)
(0.524792 1.7476e-08 0)
(0.524793 1.76221e-08 0)
(0.524793 1.6509e-08 0)
(0.524793 1.4572e-08 0)
(0.524793 1.22297e-08 0)
(0.524793 9.88719e-09 0)
(0.524793 7.88603e-09 0)
(0.524793 6.41315e-09 0)
(0.524792 5.40013e-09 0)
(0.524792 4.29007e-09 0)
(0.524792 -1.54814e-11 0)
(0.524792 -1.31707e-08 0)
(0.524792 -3.25942e-08 0)
(0.574797 -3.44725e-08 0)
(0.574798 -4.9827e-08 0)
(0.574798 -4.72227e-08 0)
(0.574798 -3.82783e-08 0)
(0.574798 -2.85123e-08 0)
(0.574798 -1.91944e-08 0)
(0.574798 -1.12175e-08 0)
(0.574798 -4.80667e-09 0)
(0.574798 2.37825e-10 0)
(0.574798 4.30074e-09 0)
(0.574798 7.82404e-09 0)
(0.574798 1.12824e-08 0)
(0.574798 1.51878e-08 0)
(0.574798 2.00406e-08 0)
(0.574798 2.61921e-08 0)
(0.574798 3.35865e-08 0)
(0.574798 4.1199e-08 0)
(0.574798 4.40364e-08 0)
(0.574798 3.13435e-08 0)
(0.574798 -5.8228e-10 0)
(0.624808 -2.48393e-08 0)
(0.624808 -6.29039e-08 0)
(0.624808 -7.40478e-08 0)
(0.624808 -6.94819e-08 0)
(0.624808 -5.9148e-08 0)
(0.624808 -4.71085e-08 0)
(0.624808 -3.53789e-08 0)
(0.624808 -2.47388e-08 0)
(0.624808 -1.52381e-08 0)
(0.624808 -6.57862e-09 0)
(0.624808 1.68807e-09 0)
(0.624808 1.0105e-08 0)
(0.624808 1.93096e-08 0)
(0.624808 2.99874e-08 0)
(0.624808 4.27048e-08 0)
(0.624808 5.75288e-08 0)
(0.624808 7.31844e-08 0)
(0.624808 8.3233e-08 0)
(0.624808 7.2424e-08 0)
(0.624808 3.06474e-08 0)
(0.674823 -1.4937e-08 0)
(0.674823 -7.29165e-08 0)
(0.674823 -9.62804e-08 0)
(0.674823 -9.5269e-08 0)
(0.674823 -8.40077e-08 0)
(0.674823 -6.93176e-08 0)
(0.674823 -5.42454e-08 0)
(0.674823 -4.00542e-08 0)
(0.674823 -2.69975e-08 0)
(0.674823 -1.48312e-08 0)
(0.674823 -3.07354e-09 0)
(0.674823 8.91e-09 0)
(0.674823 2.18978e-08 0)
(0.674823 3.67744e-08 0)
(0.674823 5.43624e-08 0)
(0.674823 7.49713e-08 0)
(0.674823 9.73481e-08 0)
(0.674823 1.14187e-07 0)
(0.674823 1.06617e-07 0)
(0.674823 5.83256e-08 0)
(0.724842 -6.09072e-09 0)
(0.724842 -7.94412e-08 0)
(0.724842 -1.12065e-07 0)
(0.724842 -1.13044e-07 0)
(0.724842 -1.00282e-07 0)
(0.724842 -8.31457e-08 0)
(0.724842 -6.54786e-08 0)
(0.724842 -4.88551e-08 0)
(0.724842 -3.36137e-08 0)
(0.724842 -1.94896e-08 0)
(0.724842 -5.92554e-09 0)
(0.724842 7.81708e-09 0)
(0.724842 2.26459e-08 0)
(0.724842 3.9625e-08 0)
(0.724842 5.98432e-08 0)
(0.724842 8.39617e-08 0)
(0.724842 1.11056e-07 0)
(0.724842 1.33658e-07 0)
(0.724842 1.30496e-07 0)
(0.724842 7.96437e-08 0)
(0.774865 6.35183e-10 0)
(0.774865 -8.16698e-08 0)
(0.774865 -1.19173e-07 0)
(0.774865 -1.20002e-07 0)
(0.774865 -1.05253e-07 0)
(0.774865 -8.63047e-08 0)
(0.774865 -6.7329e-08 0)
(0.774865 -4.99107e-08 0)
(0.774865 -3.42962e-08 0)
(0.774865 -2.01067e-08 0)
(0.774865 -6.68325e-09 0)
(0.774865 6.79285e-09 0)
(0.774865 2.13008e-08 0)
(0.774865 3.80131e-08 0)
(0.774865 5.82396e-08 0)
(0.774865 8.30496e-08 0)
(0.774865 1.12143e-07 0)
(0.774865 1.38723e-07 0)
(0.774865 1.40755e-07 0)
(0.774865 9.18657e-08 0)
(0.824892 4.68616e-09 0)
(0.824892 -7.78355e-08 0)
(0.824892 -1.1457e-07 0)
(0.824892 -1.1301e-07 0)
(0.824892 -9.63974e-08 0)
(0.824892 -7.71251e-08 0)
(0.824892 -5.88942e-08 0)
(0.824892 -4.28777e-08 0)
(0.824891 -2.90414e-08 0)
(0.824891 -1.68408e-08 0)
(0.824891 -5.54338e-09 0)
(0.824891 5.66906e-09 0)
(0.824891 1.77328e-08 0)
(0.824891 3.17927e-08 0)
(0.824892 4.92449e-08 0)
(0.824892 7.15009e-08 0)
(0.824892 9.90799e-08 0)
(0.824892 1.26755e-07 0)
(0.824892 1.33988e-07 0)
(0.824892 9.21703e-08 0)
(0.874921 5.5296e-09 0)
(0.874921 -6.54956e-08 0)
(0.874921 -9.53705e-08 0)
(0.874921 -9.0111e-08 0)
(0.874921 -7.31738e-08 0)
(0.874921 -5.61562e-08 0)
(0.874921 -4.13829e-08 0)
(0.874921 -2.92028e-08 0)
(0.874921 -1.92216e-08 0)
(0.874921 -1.07762e-08 0)
(0.874921 -3.16411e-09 0)
(0.874921 4.30389e-09 0)
(0.874921 1.23675e-08 0)
(0.874921 2.19383e-08 0)
(0.874921 3.42079e-08 0)
(0.874921 5.06111e-08 0)
(0.874921 7.24166e-08 0)
(0.874921 9.68589e-08 0)
(0.874921 1.07865e-07 0)
(0.874921 7.80144e-08 0)
(0.924952 4.05921e-09 0)
(0.924952 -4.09669e-08 0)
(0.924952 -5.81819e-08 0)
(0.924952 -5.20156e-08 0)
(0.924952 -3.90992e-08 0)
(0.924952 -2.81435e-08 0)
(0.924952 -1.96118e-08 0)
(0.924952 -1.31558e-08 0)
(0.924952 -8.25872e-09 0)
(0.924951 -4.38256e-09 0)
(0.924951 -1.03534e-09 0)
(0.924951 2.21704e-09 0)
(0.924951 5.80042e-09 0)
(0.924952 1.02113e-08 0)
(0.924952 1.61026e-08 0)
(0.924952 2.44018e-08 0)
(0.924952 3.65566e-08 0)
(0.924952 5.21919e-08 0)
(0.924952 6.25727e-08 0)
(0.924952 4.76681e-08 0)
(0.974984 2.23737e-10 0)
(0.974984 -1.4492e-08 0)
(0.974984 -1.85104e-08 0)
(0.974984 -1.48623e-08 0)
(0.974984 -9.8833e-09 0)
(0.974984 -6.36214e-09 0)
(0.974984 -3.9874e-09 0)
(0.974984 -2.40315e-09 0)
(0.974984 -1.34197e-09 0)
(0.974984 -5.9152e-10 0)
(0.974984 1.87562e-11 0)
(0.974984 6.22087e-10 0)
(0.974984 1.33321e-09 0)
(0.974984 2.26882e-09 0)
(0.974984 3.5811e-09 0)
(0.974984 5.55229e-09 0)
(0.974984 8.86046e-09 0)
(0.974984 1.40172e-08 0)
(0.974984 1.8713e-08 0)
(0.974984 1.54353e-08 0)
)
;

boundaryField
{
    movingWall
    {
        type            fixedValue;
        value           uniform (1 0 0);
    }
    fixedWalls
    {
        type            noSlip;
    }
    left
    {
        type            cyclic;
    }
    right
    {
        type            cyclic;
    }
    frontAndBack
    {
        type            empty;
    }
}


// ************************************************************************* //
