/*--------------------------------*- C++ -*----------------------------------*\
  =========                 |
  \\      /  F ield         | OpenFOAM: The Open Source CFD Toolbox
   \\    /   O peration     | Website:  https://openfoam.org
    \\  /    A nd           | Version:  8
     \\/     M anipulation  |
\*---------------------------------------------------------------------------*/
FoamFile
{
    version     2.0;
    format      ascii;
    class       surfaceScalarField;
    location    "0.07";
    object      phi;
}
// * * * * * * * * * * * * * * * * * * * * * * * * * * * * * * * * * * * * * //

dimensions      [0 3 -1 0 0 0 0];

internalField   nonuniform List<scalar> 
760
(
1.74266e-07
1.17381e-11
1.74249e-07
1.76291e-11
1.7423e-07
1.84802e-11
1.74214e-07
1.64297e-11
1.742e-07
1.32577e-11
1.7419e-07
1.01204e-11
1.74183e-07
7.24881e-12
1.74179e-07
4.41551e-12
1.74177e-07
1.4609e-12
1.74179e-07
-1.53135e-12
1.74183e-07
-4.45463e-12
1.74191e-07
-7.34996e-12
1.74201e-07
-1.02169e-11
1.74214e-07
-1.287e-11
1.74229e-07
-1.49678e-11
1.74245e-07
-1.60866e-11
1.7426e-07
-1.56481e-11
1.74273e-07
-1.2859e-11
1.7428e-07
-7.02342e-12
2.2273e-12
5.35994e-07
2.25538e-11
5.35973e-07
3.852e-11
5.35947e-07
4.41941e-11
5.35921e-07
4.24828e-11
5.35897e-07
3.72649e-11
5.35876e-07
3.07706e-11
5.3586e-07
2.3601e-11
5.35849e-07
1.59663e-11
5.35842e-07
7.96085e-12
5.35841e-07
-3.24659e-13
5.35845e-07
-8.76657e-12
5.35855e-07
-1.72036e-11
5.3587e-07
-2.53415e-11
5.3589e-07
-3.26965e-11
5.35914e-07
-3.85796e-11
5.35939e-07
-4.19662e-11
5.35965e-07
-4.15697e-11
5.35988e-07
-3.54403e-11
5.36002e-07
-2.14141e-11
-1.17528e-14
9.37955e-07
2.50753e-11
9.37943e-07
5.03038e-11
9.37925e-07
6.28362e-11
9.37902e-07
6.47879e-11
9.37879e-07
6.03455e-11
9.37858e-07
5.23203e-11
9.37839e-07
4.21351e-11
9.37825e-07
3.04998e-11
9.37815e-07
1.78112e-11
9.3781e-07
4.38638e-12
9.37811e-07
-9.45479e-12
9.37817e-07
-2.3341e-11
9.37828e-07
-3.67419e-11
9.37845e-07
-4.89022e-11
9.37865e-07
-5.88011e-11
9.37888e-07
-6.4859e-11
9.37911e-07
-6.51985e-11
9.37933e-07
-5.7159e-11
9.3795e-07
-3.79511e-11
-8.09305e-12
1.40875e-06
2.21152e-11
1.40874e-06
5.44534e-11
1.40873e-06
7.32116e-11
1.40872e-06
7.95158e-11
1.4087e-06
7.73234e-11
1.40868e-06
6.95268e-11
1.40867e-06
5.79358e-11
1.40865e-06
4.37492e-11
1.40864e-06
2.7746e-11
1.40864e-06
1.04817e-11
1.40864e-06
-7.53658e-12
1.40864e-06
-2.57381e-11
1.40864e-06
-4.33858e-11
1.40866e-06
-5.94865e-11
1.40867e-06
-7.26892e-11
1.40869e-06
-8.11629e-11
1.4087e-06
-8.26055e-11
1.40872e-06
-7.39891e-11
1.40873e-06
-5.20972e-11
-1.73687e-11
1.97943e-06
1.65163e-11
1.97943e-06
5.27874e-11
1.97943e-06
7.5815e-11
1.97942e-06
8.59799e-11
1.97941e-06
8.64189e-11
1.9794e-06
7.98902e-11
1.97939e-06
6.83703e-11
1.97938e-06
5.331e-11
1.97937e-06
3.57113e-11
1.97937e-06
1.63262e-11
1.97936e-06
-4.15077e-12
1.97936e-06
-2.49709e-11
1.97936e-06
-4.52568e-11
1.97937e-06
-6.39134e-11
1.97938e-06
-7.9389e-11
1.97938e-06
-8.96814e-11
1.97939e-06
-9.22762e-11
1.9794e-06
-8.40698e-11
1.97941e-06
-6.18027e-11
-2.56148e-11
2.68429e-06
9.58893e-12
2.6843e-06
4.65126e-11
2.6843e-06
7.15951e-11
2.6843e-06
8.43614e-11
2.6843e-06
8.72299e-11
2.6843e-06
8.25928e-11
2.68429e-06
7.23456e-11
2.68429e-06
5.79755e-11
2.68429e-06
4.05597e-11
2.68428e-06
2.09548e-11
2.68428e-06
-3.58455e-14
2.68427e-06
-2.15701e-11
2.68427e-06
-4.26964e-11
2.68427e-06
-6.22697e-11
2.68427e-06
-7.87065e-11
2.68427e-06
-9.00111e-11
2.68427e-06
-9.37557e-11
2.68427e-06
-8.68634e-11
2.68428e-06
-6.61714e-11
-3.16365e-11
3.56136e-06
2.24523e-12
3.56137e-06
3.67329e-11
3.56138e-06
6.15602e-11
3.56138e-06
7.54537e-11
3.56139e-06
8.02359e-11
3.5614e-06
7.77778e-11
3.5614e-06
6.9698e-11
3.5614e-06
5.73436e-11
3.5614e-06
4.17368e-11
3.5614e-06
2.37385e-11
3.56139e-06
4.17005e-12
3.56139e-06
-1.61339e-11
3.56138e-06
-3.6256e-11
3.56137e-06
-5.50914e-11
3.56136e-06
-7.11562e-11
3.56136e-06
-8.25981e-11
3.56135e-06
-8.72539e-11
3.56135e-06
-8.23644e-11
3.56134e-06
-6.49662e-11
-3.48726e-11
4.65248e-06
-4.80764e-12
4.65249e-06
2.45286e-11
4.65251e-06
4.68816e-11
4.65252e-06
6.04607e-11
4.65254e-06
6.6481e-11
4.65255e-06
6.62278e-11
4.65256e-06
6.0911e-11
4.65256e-06
5.1603e-11
4.65257e-06
3.91564e-11
4.65256e-06
2.43382e-11
4.65256e-06
7.89826e-12
4.65255e-06
-9.41872e-12
4.65255e-06
-2.68139e-11
4.65253e-06
-4.33157e-11
4.65252e-06
-5.76688e-11
4.65251e-06
-6.83534e-11
4.65249e-06
-7.35881e-11
4.65248e-06
-7.11236e-11
4.65247e-06
-5.84058e-11
-3.49905e-11
6.00295e-06
-1.09066e-11
6.00297e-06
1.10123e-11
6.00298e-06
2.89508e-11
6.003e-06
4.08994e-11
6.00302e-06
4.74192e-11
6.00304e-06
4.91912e-11
6.00305e-06
4.69408e-11
6.00306e-06
4.13707e-11
6.00307e-06
3.30762e-11
6.00307e-06
2.26475e-11
6.00307e-06
1.06872e-11
6.00306e-06
-2.21882e-12
6.00305e-06
-1.54569e-11
6.00304e-06
-2.8265e-11
6.00302e-06
-3.96971e-11
6.003e-06
-4.86979e-11
6.00298e-06
-5.40178e-11
6.00296e-06
-5.40828e-11
6.00295e-06
-4.69584e-11
-3.18939e-11
7.6604e-06
-1.54054e-11
7.66041e-06
-2.63082e-12
7.66043e-06
9.36165e-12
7.66045e-06
1.85537e-11
7.66047e-06
2.48356e-11
7.66049e-06
2.82864e-11
7.66051e-06
2.91153e-11
7.66053e-06
2.75995e-11
7.66054e-06
2.40198e-11
7.66054e-06
1.87326e-11
7.66054e-06
1.21407e-11
7.66053e-06
4.62823e-12
7.66052e-06
-3.41551e-12
7.6605e-06
-1.149e-11
7.66048e-06
-1.90104e-11
7.66046e-06
-2.545e-11
7.66043e-06
-3.02172e-11
7.66041e-06
-3.25713e-11
7.6604e-06
-3.13887e-11
-2.56938e-11
9.67288e-06
-1.77862e-11
9.67289e-06
-1.51793e-11
9.67291e-06
-1.01681e-11
9.67293e-06
-4.58785e-12
9.67296e-06
7.819e-13
9.67298e-06
5.44221e-12
9.673e-06
9.08934e-12
9.67301e-06
1.15588e-11
9.67303e-06
1.27919e-11
9.67303e-06
1.28835e-11
9.67303e-06
1.20122e-11
9.67303e-06
1.03474e-11
9.67301e-06
8.04438e-12
9.673e-06
5.32405e-12
9.67298e-06
2.39096e-12
9.67295e-06
-7.69292e-13
9.67293e-06
-4.28298e-12
9.6729e-06
-8.34328e-12
9.67288e-06
-1.28344e-11
-1.67149e-11
1.20861e-05
-1.77751e-11
1.20861e-05
-2.54917e-11
1.20861e-05
-2.79022e-11
1.20861e-05
-2.64271e-11
1.20862e-05
-2.25065e-11
1.20862e-05
-1.717e-11
1.20862e-05
-1.12008e-11
1.20862e-05
-5.18266e-12
1.20862e-05
4.94535e-13
1.20862e-05
5.66504e-12
1.20862e-05
1.02874e-11
1.20862e-05
1.43304e-11
1.20862e-05
1.77375e-11
1.20862e-05
2.04698e-11
1.20862e-05
2.23768e-11
1.20862e-05
2.29425e-11
1.20861e-05
2.13448e-11
1.20861e-05
1.64438e-11
1.20861e-05
7.16082e-12
-5.59687e-12
1.49396e-05
-1.5424e-11
1.49396e-05
-3.26557e-11
1.49396e-05
-4.22078e-11
1.49396e-05
-4.48828e-11
1.49397e-05
-4.27279e-11
1.49397e-05
-3.72417e-11
1.49397e-05
-2.96262e-11
1.49397e-05
-2.08231e-11
1.49397e-05
-1.15104e-11
1.49397e-05
-2.08437e-12
1.49397e-05
7.22338e-12
1.49397e-05
1.62192e-11
1.49397e-05
2.46837e-11
1.49397e-05
3.23747e-11
1.49397e-05
3.88596e-11
1.49397e-05
4.32169e-11
1.49397e-05
4.40342e-11
1.49396e-05
3.93035e-11
1.49396e-05
2.66566e-11
6.61239e-12
1.82623e-05
-1.11829e-11
1.82623e-05
-3.61195e-11
1.82623e-05
-5.16849e-11
1.82623e-05
-5.80295e-11
1.82624e-05
-5.76604e-11
1.82624e-05
-5.2476e-11
1.82624e-05
-4.40037e-11
1.82624e-05
-3.34497e-11
1.82624e-05
-2.16953e-11
1.82624e-05
-9.30769e-12
1.82624e-05
3.34538e-12
1.82624e-05
1.59635e-11
1.82624e-05
2.82298e-11
1.82624e-05
3.97805e-11
1.82624e-05
5.00104e-11
1.82624e-05
5.77428e-11
1.82624e-05
6.11606e-11
1.82623e-05
5.75584e-11
1.82623e-05
4.33809e-11
1.84369e-11
2.20674e-05
-5.91811e-12
2.20674e-05
-3.57718e-11
2.20674e-05
-5.5308e-11
2.20674e-05
-6.42559e-11
2.20674e-05
-6.53524e-11
2.20674e-05
-6.08115e-11
2.20674e-05
-5.23308e-11
2.20674e-05
-4.12486e-11
2.20675e-05
-2.85332e-11
2.20675e-05
-1.4836e-11
2.20675e-05
-5.89588e-13
2.20675e-05
1.38606e-11
2.20675e-05
2.81652e-11
2.20675e-05
4.19271e-11
2.20675e-05
5.44994e-11
2.20675e-05
6.46398e-11
2.20674e-05
7.03786e-11
2.20674e-05
6.85899e-11
2.20674e-05
5.48802e-11
2.80147e-11
2.63474e-05
-7.69637e-13
2.63474e-05
-3.19146e-11
2.63474e-05
-5.25707e-11
2.63474e-05
-6.25082e-11
2.63474e-05
-6.44247e-11
2.63474e-05
-6.07198e-11
2.63474e-05
-5.30742e-11
2.63474e-05
-4.27785e-11
2.63474e-05
-3.07383e-11
2.63474e-05
-1.75738e-11
2.63474e-05
-3.70545e-12
2.63474e-05
1.05242e-11
2.63474e-05
2.4773e-11
2.63474e-05
3.86871e-11
2.63474e-05
5.1722e-11
2.63474e-05
6.27769e-11
2.63474e-05
6.99952e-11
2.63474e-05
7.02333e-11
2.63474e-05
5.88e-11
3.32655e-11
3.10701e-05
2.90062e-12
3.107e-05
-2.51064e-11
3.107e-05
-4.35026e-11
3.107e-05
-5.24496e-11
3.107e-05
-5.44098e-11
3.107e-05
-5.16577e-11
3.107e-05
-4.56239e-11
3.107e-05
-3.73613e-11
3.107e-05
-2.7585e-11
3.107e-05
-1.6764e-11
3.107e-05
-5.22005e-12
3.107e-05
6.73789e-12
3.107e-05
1.87737e-11
3.107e-05
3.06259e-11
3.107e-05
4.20085e-11
3.107e-05
5.2149e-11
3.107e-05
5.9466e-11
3.10701e-05
6.12802e-11
3.10701e-05
5.33749e-11
3.23638e-11
3.6176e-05
3.81575e-12
3.6176e-05
-1.6034e-11
3.6176e-05
-2.89037e-11
3.6176e-05
-3.49076e-11
3.6176e-05
-3.62238e-11
3.6176e-05
-3.45301e-11
3.61759e-05
-3.07422e-11
3.61759e-05
-2.55012e-11
3.61759e-05
-1.92542e-11
3.61759e-05
-1.22667e-11
3.61759e-05
-4.69923e-12
3.61759e-05
3.23497e-12
3.61759e-05
1.12464e-11
3.61759e-05
1.91654e-11
3.6176e-05
2.69176e-11
3.6176e-05
3.41125e-11
3.6176e-05
3.97991e-11
3.6176e-05
4.21955e-11
3.6176e-05
3.8129e-11
2.44465e-11
4.15794e-05
2.01293e-12
4.15794e-05
-6.20831e-12
4.15794e-05
-1.14218e-11
4.15794e-05
-1.35369e-11
4.15794e-05
-1.39305e-11
4.15793e-05
-1.32871e-11
4.15793e-05
-1.18705e-11
4.15793e-05
-9.93993e-12
4.15793e-05
-7.69626e-12
4.15793e-05
-5.17348e-12
4.15793e-05
-2.30361e-12
4.15793e-05
8.21309e-13
4.15793e-05
3.90632e-12
4.15793e-05
6.86814e-12
4.15793e-05
9.92778e-12
4.15793e-05
1.29721e-11
4.15794e-05
1.54838e-11
4.15794e-05
1.6874e-11
4.15794e-05
1.57968e-11
1.07052e-11
4.71716e-05
4.71716e-05
4.71716e-05
4.71716e-05
4.71715e-05
4.71715e-05
4.71715e-05
4.71715e-05
4.71715e-05
4.71715e-05
4.71715e-05
4.71715e-05
4.71715e-05
4.71715e-05
4.71715e-05
4.71715e-05
4.71715e-05
4.71716e-05
4.71716e-05
)
;

boundaryField
{
    movingWall
    {
        type            calculated;
        value           uniform 0;
    }
    fixedWalls
    {
        type            calculated;
        value           uniform 0;
    }
    left
    {
        type            cyclic;
        value           nonuniform List<scalar> 
20
(
-2.63474e-05
-2.20674e-05
-1.82623e-05
-1.49396e-05
-1.20861e-05
-9.67287e-06
-7.66039e-06
-6.00295e-06
-4.65247e-06
-3.56135e-06
-2.68428e-06
-1.97942e-06
-1.40874e-06
-9.37958e-07
-5.36005e-07
-1.74278e-07
-3.10701e-05
-3.6176e-05
-4.15794e-05
-4.71716e-05
)
;
    }
    right
    {
        type            cyclic;
        value           nonuniform List<scalar> 
20
(
2.63474e-05
2.20674e-05
1.82623e-05
1.49396e-05
1.20861e-05
9.67287e-06
7.66039e-06
6.00295e-06
4.65247e-06
3.56135e-06
2.68428e-06
1.97942e-06
1.40874e-06
9.37958e-07
5.36005e-07
1.74278e-07
3.10701e-05
3.6176e-05
4.15794e-05
4.71716e-05
)
;
    }
    frontAndBack
    {
        type            empty;
        value           nonuniform List<scalar> 0();
    }
}


// ************************************************************************* //
