/*--------------------------------*- C++ -*----------------------------------*\
  =========                 |
  \\      /  F ield         | OpenFOAM: The Open Source CFD Toolbox
   \\    /   O peration     | Website:  https://openfoam.org
    \\  /    A nd           | Version:  8
     \\/     M anipulation  |
\*---------------------------------------------------------------------------*/
FoamFile
{
    version     2.0;
    format      ascii;
    class       volVectorField;
    location    "15";
    object      U;
}
// * * * * * * * * * * * * * * * * * * * * * * * * * * * * * * * * * * * * * //

dimensions      [0 1 -1 0 0 0 0];

internalField   nonuniform List<vector> 
11600
(
(-3.54376e-06 3.4992e-06 0)
(-3.13911e-05 1.14082e-05 0)
(-7.53444e-05 1.33722e-05 0)
(-0.000116599 1.36625e-05 0)
(-0.000159533 1.36159e-05 0)
(-0.000202081 1.35494e-05 0)
(-0.000244451 1.34983e-05 0)
(-0.000286664 1.34518e-05 0)
(-0.000328698 1.34032e-05 0)
(-0.000370528 1.33498e-05 0)
(-0.000412129 1.32903e-05 0)
(-0.000453475 1.32242e-05 0)
(-0.00049454 1.31511e-05 0)
(-0.000535298 1.30709e-05 0)
(-0.000575722 1.29835e-05 0)
(-0.000615785 1.28889e-05 0)
(-0.000655461 1.27868e-05 0)
(-0.000694725 1.26773e-05 0)
(-0.000733548 1.25603e-05 0)
(-0.000771906 1.24358e-05 0)
(-0.000809771 1.23035e-05 0)
(-0.000847119 1.21636e-05 0)
(-0.000883923 1.2016e-05 0)
(-0.000920157 1.18607e-05 0)
(-0.000955798 1.16976e-05 0)
(-0.000990819 1.15268e-05 0)
(-0.0010252 1.13484e-05 0)
(-0.00105891 1.11623e-05 0)
(-0.00109193 1.09687e-05 0)
(-0.00112424 1.07678e-05 0)
(-0.00115581 1.05598e-05 0)
(-0.00118663 1.03449e-05 0)
(-0.00121668 1.01235e-05 0)
(-0.00124594 9.89615e-06 0)
(-0.0012744 9.66333e-06 0)
(-0.00130204 9.42581e-06 0)
(-0.00132885 9.1845e-06 0)
(-0.00135483 8.94053e-06 0)
(-0.00137998 8.69533e-06 0)
(-0.00140429 8.45068e-06 0)
(-0.00142779 8.20881e-06 0)
(-0.00145049 7.97252e-06 0)
(-0.00147241 7.74537e-06 0)
(-0.00149361 7.53187e-06 0)
(-0.00151413 7.33781e-06 0)
(-0.00153407 7.17063e-06 0)
(-0.00155354 7.03998e-06 0)
(-0.00157268 6.95847e-06 0)
(-0.00159169 6.94261e-06 0)
(-0.00161087 7.01391e-06 0)
(-0.00163059 7.20037e-06 0)
(-0.00165139 7.53897e-06 0)
(-0.00167404 8.08097e-06 0)
(-0.00169973 8.90407e-06 0)
(-0.00173059 1.01642e-05 0)
(-0.00176874 1.2447e-05 0)
(-0.00181256 1.79412e-05 0)
(-0.00192137 3.31945e-05 0)
(-0.00195914 0.000145016 0)
(-0.0025102 0.000522075 0)
(-1.15412e-05 3.14215e-05 0)
(-6.37183e-05 6.34407e-05 0)
(-0.000138797 7.15665e-05 0)
(-0.000210324 7.29911e-05 0)
(-0.000284226 7.29971e-05 0)
(-0.0003577 7.27794e-05 0)
(-0.000430894 7.25172e-05 0)
(-0.0005038 7.22174e-05 0)
(-0.000576357 7.18757e-05 0)
(-0.000648507 7.14892e-05 0)
(-0.000720201 7.10568e-05 0)
(-0.000791386 7.05779e-05 0)
(-0.000862012 7.00523e-05 0)
(-0.000932027 6.94799e-05 0)
(-0.00100138 6.88608e-05 0)
(-0.00107002 6.81951e-05 0)
(-0.00113791 6.74829e-05 0)
(-0.00120498 6.67244e-05 0)
(-0.00127119 6.59199e-05 0)
(-0.00133649 6.50698e-05 0)
(-0.00140084 6.41743e-05 0)
(-0.00146418 6.3234e-05 0)
(-0.00152648 6.22493e-05 0)
(-0.00158768 6.12209e-05 0)
(-0.00164774 6.01495e-05 0)
(-0.00170662 5.90359e-05 0)
(-0.00176427 5.78812e-05 0)
(-0.00182066 5.66866e-05 0)
(-0.00187574 5.54534e-05 0)
(-0.00192949 5.41833e-05 0)
(-0.00198185 5.28784e-05 0)
(-0.00203281 5.15408e-05 0)
(-0.00208232 5.01734e-05 0)
(-0.00213038 4.87795e-05 0)
(-0.00217694 4.73631e-05 0)
(-0.00222199 4.59288e-05 0)
(-0.00226553 4.44825e-05 0)
(-0.00230755 4.3031e-05 0)
(-0.00234804 4.1583e-05 0)
(-0.00238702 4.01489e-05 0)
(-0.00242451 3.87417e-05 0)
(-0.00246055 3.73776e-05 0)
(-0.0024952 3.60771e-05 0)
(-0.00252854 3.48666e-05 0)
(-0.00256066 3.37799e-05 0)
(-0.00259173 3.28617e-05 0)
(-0.00262194 3.21717e-05 0)
(-0.00265155 3.17915e-05 0)
(-0.00268093 3.18349e-05 0)
(-0.00271055 3.24649e-05 0)
(-0.00274111 3.39213e-05 0)
(-0.00277356 3.65711e-05 0)
(-0.00280926 4.09962e-05 0)
(-0.00285033 4.81532e-05 0)
(-0.00290011 5.9743e-05 0)
(-0.00296212 7.92055e-05 0)
(-0.0030418 0.000112792 0)
(-0.0031793 0.000171505 0)
(-0.00327813 0.000349787 0)
(-0.00361816 0.000626844 0)
(-1.35767e-05 7.5701e-05 0)
(-7.21753e-05 0.000138665 0)
(-0.000155447 0.000154659 0)
(-0.000234717 0.000157519 0)
(-0.000316454 0.000157614 0)
(-0.000397707 0.000157194 0)
(-0.000478634 0.00015662 0)
(-0.000559229 0.000155935 0)
(-0.000639423 0.000155142 0)
(-0.000719153 0.000154244 0)
(-0.000798362 0.000153237 0)
(-0.000876991 0.000152124 0)
(-0.000954982 0.000150904 0)
(-0.00103228 0.000149578 0)
(-0.00110882 0.000148145 0)
(-0.00118456 0.000146607 0)
(-0.00125942 0.000144965 0)
(-0.00133337 0.000143218 0)
(-0.00140634 0.000141369 0)
(-0.00147828 0.000139417 0)
(-0.00154914 0.000137366 0)
(-0.00161886 0.000135215 0)
(-0.0016874 0.000132966 0)
(-0.00175469 0.000130621 0)
(-0.00182069 0.000128183 0)
(-0.00188536 0.000125653 0)
(-0.00194865 0.000123034 0)
(-0.0020105 0.00012033 0)
(-0.00207089 0.000117543 0)
(-0.00212976 0.000114678 0)
(-0.00218708 0.00011174 0)
(-0.00224282 0.000108733 0)
(-0.00229693 0.000105665 0)
(-0.00234939 0.000102543 0)
(-0.00240018 9.93762e-05 0)
(-0.00244927 9.61744e-05 0)
(-0.00249666 9.29509e-05 0)
(-0.00254233 8.97207e-05 0)
(-0.00258628 8.65024e-05 0)
(-0.00262854 8.33186e-05 0)
(-0.00266911 8.01972e-05 0)
(-0.00270803 7.71729e-05 0)
(-0.00274537 7.42892e-05 0)
(-0.00278121 7.16015e-05 0)
(-0.00281564 6.91814e-05 0)
(-0.00284882 6.71223e-05 0)
(-0.00288093 6.55485e-05 0)
(-0.00291222 6.46285e-05 0)
(-0.00294303 6.4595e-05 0)
(-0.0029738 6.57772e-05 0)
(-0.00300509 6.86515e-05 0)
(-0.00303767 7.39283e-05 0)
(-0.00307255 8.26975e-05 0)
(-0.00311109 9.66808e-05 0)
(-0.00315511 0.000118766 0)
(-0.00320595 0.000154058 0)
(-0.0032662 0.00021026 0)
(-0.00334943 0.000301708 0)
(-0.00339283 0.000486085 0)
(-0.00351056 0.000725801 0)
(-1.39139e-05 0.000117444 0)
(-7.38883e-05 0.000210637 0)
(-0.000158944 0.000234093 0)
(-0.00023977 0.000238183 0)
(-0.000323106 0.000238282 0)
(-0.000405934 0.000237634 0)
(-0.000488427 0.000236749 0)
(-0.000570582 0.000235692 0)
(-0.000652327 0.00023447 0)
(-0.000733597 0.000233083 0)
(-0.000814333 0.00023153 0)
(-0.000894475 0.000229813 0)
(-0.000973962 0.000227932 0)
(-0.00105274 0.000225887 0)
(-0.00113074 0.000223679 0)
(-0.00120791 0.000221311 0)
(-0.0012842 0.000218781 0)
(-0.00135954 0.000216094 0)
(-0.00143388 0.000213249 0)
(-0.00150716 0.000210248 0)
(-0.00157934 0.000207095 0)
(-0.00165035 0.00020379 0)
(-0.00172014 0.000200337 0)
(-0.00178866 0.000196738 0)
(-0.00185586 0.000192997 0)
(-0.00192169 0.000189117 0)
(-0.0019861 0.000185103 0)
(-0.00204905 0.000180959 0)
(-0.00211049 0.00017669 0)
(-0.00217038 0.000172304 0)
(-0.00222867 0.000167806 0)
(-0.00228534 0.000163206 0)
(-0.00234034 0.000158513 0)
(-0.00239365 0.000153739 0)
(-0.00244524 0.000148896 0)
(-0.00249509 0.000144 0)
(-0.00254317 0.000139071 0)
(-0.00258949 0.00013413 0)
(-0.00263403 0.000129205 0)
(-0.0026768 0.000124329 0)
(-0.00271782 0.000119541 0)
(-0.00275712 0.000114892 0)
(-0.00279474 0.000110443 0)
(-0.00283076 0.000106274 0)
(-0.00286525 0.000102484 0)
(-0.00289833 9.92023e-05 0)
(-0.00293016 9.65993e-05 0)
(-0.00296093 9.49001e-05 0)
(-0.0029909 9.44092e-05 0)
(-0.00302039 9.55447e-05 0)
(-0.00304979 9.88903e-05 0)
(-0.0030796 0.000105276 0)
(-0.0031104 0.000115903 0)
(-0.00314285 0.00013254 0)
(-0.0031775 0.000157879 0)
(-0.0032142 0.000196049 0)
(-0.00325259 0.00025264 0)
(-0.00329185 0.000337266 0)
(-0.00329798 0.000475567 0)
(-0.00330277 0.000633331 0)
(-1.39119e-05 0.000161031 0)
(-7.42181e-05 0.000285295 0)
(-0.00015979 0.000316337 0)
(-0.000241022 0.000321695 0)
(-0.000324795 0.000321812 0)
(-0.000408043 0.000320934 0)
(-0.000490953 0.000319732 0)
(-0.000573521 0.000318291 0)
(-0.000655676 0.000316622 0)
(-0.000737355 0.000314725 0)
(-0.000818497 0.000312603 0)
(-0.000899041 0.000310255 0)
(-0.000978928 0.000307683 0)
(-0.0010581 0.000304888 0)
(-0.00113649 0.000301872 0)
(-0.00121405 0.000298636 0)
(-0.00129072 0.000295181 0)
(-0.00136643 0.000291511 0)
(-0.00144115 0.000287628 0)
(-0.00151479 0.000283533 0)
(-0.00158732 0.00027923 0)
(-0.00165868 0.000274721 0)
(-0.00172882 0.000270012 0)
(-0.00179767 0.000265105 0)
(-0.0018652 0.000260005 0)
(-0.00193134 0.000254717 0)
(-0.00199606 0.000249246 0)
(-0.00205931 0.0002436 0)
(-0.00212103 0.000237785 0)
(-0.00218119 0.00023181 0)
(-0.00223974 0.000225685 0)
(-0.00229664 0.00021942 0)
(-0.00235187 0.000213028 0)
(-0.00240538 0.000206525 0)
(-0.00245715 0.000199927 0)
(-0.00250715 0.000193255 0)
(-0.00255536 0.000186534 0)
(-0.00260177 0.000179792 0)
(-0.00264636 0.000173065 0)
(-0.00268914 0.000166394 0)
(-0.00273011 0.00015983 0)
(-0.00276928 0.000153435 0)
(-0.0028067 0.000147289 0)
(-0.00284241 0.000141487 0)
(-0.00287645 0.000136152 0)
(-0.00290892 0.00013144 0)
(-0.00293991 0.000127554 0)
(-0.00296955 0.000124756 0)
(-0.00299799 0.000123395 0)
(-0.0030254 0.000123937 0)
(-0.00305196 0.000127013 0)
(-0.00307785 0.000133491 0)
(-0.00310318 0.000144566 0)
(-0.00312791 0.000161905 0)
(-0.00315161 0.000187837 0)
(-0.00317299 0.000225525 0)
(-0.00318985 0.00027888 0)
(-0.00319744 0.000353527 0)
(-0.00317826 0.000457684 0)
(-0.00313704 0.000572554 0)
(-1.38979e-05 0.000204436 0)
(-7.44006e-05 0.000359938 0)
(-0.000160307 0.000398568 0)
(-0.000241819 0.000405184 0)
(-0.000325894 0.000405305 0)
(-0.000409435 0.000404192 0)
(-0.000492633 0.000402669 0)
(-0.000575487 0.000400844 0)
(-0.000657928 0.000398728 0)
(-0.000739891 0.000396324 0)
(-0.000821315 0.000393633 0)
(-0.000902141 0.000390657 0)
(-0.000982306 0.000387396 0)
(-0.00106175 0.000383854 0)
(-0.00114042 0.000380031 0)
(-0.00121825 0.000375929 0)
(-0.00129519 0.000371552 0)
(-0.00137118 0.000366902 0)
(-0.00144615 0.000361982 0)
(-0.00152006 0.000356795 0)
(-0.00159285 0.000351344 0)
(-0.00166446 0.000345634 0)
(-0.00173484 0.00033967 0)
(-0.00180393 0.000333455 0)
(-0.00187169 0.000326997 0)
(-0.00193807 0.000320301 0)
(-0.00200301 0.000313374 0)
(-0.00206647 0.000306225 0)
(-0.00212839 0.000298862 0)
(-0.00218874 0.000291296 0)
(-0.00224747 0.000283538 0)
(-0.00230455 0.000275602 0)
(-0.00235992 0.000267503 0)
(-0.00241357 0.00025926 0)
(-0.00246545 0.000250893 0)
(-0.00251553 0.000242428 0)
(-0.0025638 0.000233892 0)
(-0.00261022 0.000225321 0)
(-0.00265479 0.000216756 0)
(-0.00269749 0.000208244 0)
(-0.00273832 0.000199846 0)
(-0.00277728 0.000191633 0)
(-0.00281439 0.000183695 0)
(-0.00284966 0.000176139 0)
(-0.00288313 0.000169102 0)
(-0.00291483 0.000162754 0)
(-0.00294481 0.000157311 0)
(-0.00297312 0.00015305 0)
(-0.00299982 0.000150323 0)
(-0.00302494 0.000149589 0)
(-0.00304848 0.000151446 0)
(-0.00307038 0.00015667 0)
(-0.00309043 0.000166272 0)
(-0.00310816 0.000181554 0)
(-0.00312265 0.000204165 0)
(-0.00313222 0.000236078 0)
(-0.00313414 0.000279387 0)
(-0.00312359 0.000336384 0)
(-0.00309105 0.000408275 0)
(-0.00303334 0.000485387 0)
(-1.39129e-05 0.000247907 0)
(-7.46314e-05 0.000434795 0)
(-0.000160883 0.000481037 0)
(-0.000242709 0.000488914 0)
(-0.000327119 0.000489038 0)
(-0.000410987 0.000487686 0)
(-0.000494511 0.000485842 0)
(-0.000577689 0.00048363 0)
(-0.000660452 0.000481067 0)
(-0.000742736 0.000478154 0)
(-0.00082448 0.000474894 0)
(-0.000905622 0.000471288 0)
(-0.000986104 0.000467338 0)
(-0.00106586 0.000463046 0)
(-0.00114485 0.000458414 0)
(-0.00122299 0.000453446 0)
(-0.00130023 0.000448144 0)
(-0.00137652 0.000442512 0)
(-0.00145179 0.000436552 0)
(-0.00152599 0.00043027 0)
(-0.00159907 0.000423668 0)
(-0.00167097 0.000416753 0)
(-0.00174163 0.000409529 0)
(-0.001811 0.000402003 0)
(-0.00187903 0.000394181 0)
(-0.00194567 0.000386071 0)
(-0.00201086 0.000377681 0)
(-0.00207456 0.000369021 0)
(-0.00213672 0.0003601 0)
(-0.00219729 0.000350931 0)
(-0.00225623 0.000341528 0)
(-0.00231349 0.000331907 0)
(-0.00236904 0.000322084 0)
(-0.00242284 0.000312082 0)
(-0.00247484 0.000301923 0)
(-0.00252503 0.000291636 0)
(-0.00257335 0.000281253 0)
(-0.0026198 0.000270812 0)
(-0.00266435 0.00026036 0)
(-0.00270697 0.000249949 0)
(-0.00274765 0.000239646 0)
(-0.00278637 0.000229526 0)
(-0.00282315 0.000219686 0)
(-0.00285796 0.000210239 0)
(-0.0028908 0.000201326 0)
(-0.00292168 0.000193122 0)
(-0.0029506 0.000185842 0)
(-0.00297753 0.000179754 0)
(-0.00300245 0.000175193 0)
(-0.00302528 0.000172578 0)
(-0.00304589 0.000172433 0)
(-0.00306405 0.000175408 0)
(-0.00307933 0.000182298 0)
(-0.00309107 0.000194051 0)
(-0.00309816 0.000211749 0)
(-0.00309889 0.000236503 0)
(-0.00309074 0.000269242 0)
(-0.00306989 0.000310431 0)
(-0.00303078 0.000358908 0)
(-0.00296995 0.00040889 0)
(-1.39463e-05 0.000291522 0)
(-7.49204e-05 0.00050997 0)
(-0.000161569 0.000563863 0)
(-0.000243766 0.000573012 0)
(-0.000328566 0.000573138 0)
(-0.00041282 0.000571546 0)
(-0.000496727 0.000569378 0)
(-0.000580289 0.000566779 0)
(-0.000663432 0.000563766 0)
(-0.000746095 0.000560343 0)
(-0.000828216 0.000556512 0)
(-0.000909734 0.000552274 0)
(-0.000990589 0.000547632 0)
(-0.00107072 0.000542588 0)
(-0.00115007 0.000537146 0)
(-0.00122857 0.000531307 0)
(-0.00130618 0.000525077 0)
(-0.00138282 0.000518458 0)
(-0.00145845 0.000511455 0)
(-0.001533 0.000504073 0)
(-0.00160643 0.000496315 0)
(-0.00167866 0.000488189 0)
(-0.00174965 0.0004797 0)
(-0.00181935 0.000470855 0)
(-0.0018877 0.000461662 0)
(-0.00195465 0.000452129 0)
(-0.00202014 0.000442266 0)
(-0.00208413 0.000432083 0)
(-0.00214656 0.000421592 0)
(-0.0022074 0.000410807 0)
(-0.00226658 0.000399744 0)
(-0.00232408 0.000388418 0)
(-0.00237984 0.000376851 0)
(-0.00243382 0.000365064 0)
(-0.00248598 0.000353084 0)
(-0.00253629 0.000340942 0)
(-0.00258471 0.000328672 0)
(-0.00263121 0.000316316 0)
(-0.00267575 0.000303922 0)
(-0.0027183 0.000291547 0)
(-0.00275884 0.000279258 0)
(-0.00279734 0.000267136 0)
(-0.00283378 0.000255276 0)
(-0.00286813 0.000243794 0)
(-0.00290035 0.000232829 0)
(-0.00293042 0.000222549 0)
(-0.00295829 0.000213157 0)
(-0.00298388 0.000204901 0)
(-0.0030071 0.000198079 0)
(-0.0030278 0.000193051 0)
(-0.00304576 0.000190249 0)
(-0.00306062 0.000190178 0)
(-0.00307189 0.000193415 0)
(-0.00307882 0.000200589 0)
(-0.00308031 0.000212327 0)
(-0.00307485 0.000229133 0)
(-0.00306035 0.000251192 0)
(-0.00303408 0.000278072 0)
(-0.00299275 0.000308039 0)
(-0.00293402 0.00033702 0)
(-1.39917e-05 0.000335314 0)
(-7.52637e-05 0.000585506 0)
(-0.000162369 0.000647098 0)
(-0.000244997 0.000657528 0)
(-0.000330247 0.000657657 0)
(-0.000414948 0.000655823 0)
(-0.0004993 0.00065333 0)
(-0.000583305 0.000650342 0)
(-0.000666891 0.000646878 0)
(-0.000749994 0.000642943 0)
(-0.000832552 0.000638538 0)
(-0.000914506 0.000633666 0)
(-0.000995794 0.000628329 0)
(-0.00107636 0.000622531 0)
(-0.00115613 0.000616275 0)
(-0.00123506 0.000609563 0)
(-0.00131308 0.0006024 0)
(-0.00139014 0.000594791 0)
(-0.00146618 0.00058674 0)
(-0.00154114 0.000578252 0)
(-0.00161496 0.000569333 0)
(-0.00168759 0.00055999 0)
(-0.00175897 0.000550228 0)
(-0.00182905 0.000540057 0)
(-0.00189776 0.000529484 0)
(-0.00196507 0.000518518 0)
(-0.00203091 0.000507171 0)
(-0.00209524 0.000495454 0)
(-0.002158 0.00048338 0)
(-0.00221914 0.000470963 0)
(-0.00227863 0.000458221 0)
(-0.00233639 0.000445172 0)
(-0.0023924 0.000431836 0)
(-0.00244661 0.000418239 0)
(-0.00249897 0.000404408 0)
(-0.00254945 0.000390375 0)
(-0.00259799 0.000376177 0)
(-0.00264456 0.000361856 0)
(-0.00268912 0.000347463 0)
(-0.00273164 0.000333054 0)
(-0.00277207 0.000318698 0)
(-0.00281037 0.000304476 0)
(-0.0028465 0.00029048 0)
(-0.00288041 0.000276822 0)
(-0.00291206 0.000263633 0)
(-0.00294136 0.00025107 0)
(-0.00296825 0.000239317 0)
(-0.00299262 0.00022859 0)
(-0.0030143 0.000219144 0)
(-0.00303312 0.000211274 0)
(-0.00304877 0.000205313 0)
(-0.00306089 0.000201632 0)
(-0.00306893 0.000200619 0)
(-0.00307217 0.00020265 0)
(-0.00306963 0.000208022 0)
(-0.00306004 0.000216853 0)
(-0.00304181 0.000228921 0)
(-0.00301306 0.000243446 0)
(-0.00297185 0.000258727 0)
(-0.00291683 0.000271826 0)
(-1.40464e-05 0.000379312 0)
(-7.5659e-05 0.000661454 0)
(-0.000163283 0.000730798 0)
(-0.000246402 0.00074252 0)
(-0.000332165 0.000742653 0)
(-0.000417374 0.000740577 0)
(-0.000502233 0.000737757 0)
(-0.000586743 0.000734378 0)
(-0.000670832 0.000730461 0)
(-0.000754436 0.000726012 0)
(-0.000837493 0.000721031 0)
(-0.000919943 0.000715522 0)
(-0.00100172 0.000709488 0)
(-0.00108278 0.000702932 0)
(-0.00116304 0.000695858 0)
(-0.00124245 0.000688269 0)
(-0.00132095 0.00068017 0)
(-0.00139848 0.000671565 0)
(-0.00147499 0.000662461 0)
(-0.00155041 0.000652862 0)
(-0.00162469 0.000642775 0)
(-0.00169777 0.000632207 0)
(-0.00176959 0.000621166 0)
(-0.0018401 0.000609659 0)
(-0.00190924 0.000597697 0)
(-0.00197696 0.000585289 0)
(-0.0020432 0.000572446 0)
(-0.00210792 0.000559182 0)
(-0.00217105 0.000545509 0)
(-0.00223256 0.000531444 0)
(-0.00229238 0.000517004 0)
(-0.00235046 0.00050221 0)
(-0.00240677 0.000487082 0)
(-0.00246125 0.000471646 0)
(-0.00251385 0.000455931 0)
(-0.00256453 0.000439971 0)
(-0.00261323 0.000423801 0)
(-0.00265992 0.000407466 0)
(-0.00270455 0.000391014 0)
(-0.00274706 0.000374504 0)
(-0.00278742 0.000358001 0)
(-0.00282556 0.000341582 0)
(-0.00286143 0.000325338 0)
(-0.00289497 0.000309371 0)
(-0.0029261 0.000293802 0)
(-0.00295474 0.00027877 0)
(-0.00298077 0.000264437 0)
(-0.00300405 0.000250985 0)
(-0.00302442 0.000238622 0)
(-0.00304163 0.000227577 0)
(-0.0030554 0.000218097 0)
(-0.00306532 0.000210435 0)
(-0.00307088 0.000204828 0)
(-0.00307142 0.000201464 0)
(-0.00306611 0.000200423 0)
(-0.00305395 0.000201598 0)
(-0.00303376 0.000204577 0)
(-0.00300428 0.00020851 0)
(-0.00296438 0.000211922 0)
(-0.00291337 0.000212675 0)
(-1.41094e-05 0.000423545 0)
(-7.61052e-05 0.000737868 0)
(-0.000164312 0.000815024 0)
(-0.000247982 0.000828051 0)
(-0.000334319 0.000828188 0)
(-0.000420098 0.000825869 0)
(-0.000505526 0.00082272 0)
(-0.000590603 0.000818948 0)
(-0.000675257 0.000814577 0)
(-0.000759424 0.000809611 0)
(-0.000843042 0.000804052 0)
(-0.000926049 0.000797904 0)
(-0.00100838 0.000791169 0)
(-0.00108999 0.000783852 0)
(-0.00117079 0.000775955 0)
(-0.00125075 0.000767485 0)
(-0.00132979 0.000758444 0)
(-0.00140785 0.000748839 0)
(-0.00148488 0.000738676 0)
(-0.00156083 0.00072796 0)
(-0.00163562 0.000716698 0)
(-0.0017092 0.000704898 0)
(-0.00178152 0.000692568 0)
(-0.00185252 0.000679717 0)
(-0.00192213 0.000666355 0)
(-0.00199032 0.000652493 0)
(-0.00205702 0.000638142 0)
(-0.00212218 0.000623316 0)
(-0.00218574 0.00060803 0)
(-0.00224765 0.000592299 0)
(-0.00230786 0.000576142 0)
(-0.00236632 0.000559579 0)
(-0.00242297 0.000542633 0)
(-0.00247776 0.000525331 0)
(-0.00253065 0.000507699 0)
(-0.00258158 0.000489773 0)
(-0.00263049 0.000471588 0)
(-0.00267735 0.000453188 0)
(-0.00272209 0.000434621 0)
(-0.00276465 0.000415941 0)
(-0.00280499 0.000397214 0)
(-0.00284303 0.00037851 0)
(-0.00287871 0.000359912 0)
(-0.00291195 0.000341515 0)
(-0.00294266 0.000323425 0)
(-0.00297073 0.000305764 0)
(-0.00299604 0.000288667 0)
(-0.00301843 0.000272284 0)
(-0.00303771 0.000256777 0)
(-0.00305364 0.000242318 0)
(-0.00306592 0.000229077 0)
(-0.00307416 0.000217212 0)
(-0.0030779 0.000206849 0)
(-0.00307658 0.000198046 0)
(-0.0030695 0.000190748 0)
(-0.00305589 0.00018473 0)
(-0.0030349 0.000179522 0)
(-0.00300572 0.00017432 0)
(-0.00296769 0.000167925 0)
(-0.00292051 0.000158773 0)
(-1.418e-05 0.000468043 0)
(-7.66017e-05 0.000814801 0)
(-0.000165456 0.000899838 0)
(-0.000249737 0.000914181 0)
(-0.000336712 0.000914324 0)
(-0.000423123 0.000911761 0)
(-0.000509182 0.000908283 0)
(-0.000594888 0.000904116 0)
(-0.000680169 0.000899288 0)
(-0.000764961 0.000893803 0)
(-0.0008492 0.000887663 0)
(-0.000932826 0.000880871 0)
(-0.00101578 0.000873432 0)
(-0.00109799 0.00086535 0)
(-0.0011794 0.000856627 0)
(-0.00125996 0.00084727 0)
(-0.0013396 0.000837283 0)
(-0.00141825 0.000826672 0)
(-0.00149587 0.000815443 0)
(-0.00157239 0.000803603 0)
(-0.00164775 0.000791159 0)
(-0.0017219 0.000778119 0)
(-0.00179477 0.000764491 0)
(-0.00186631 0.000750286 0)
(-0.00193646 0.000735514 0)
(-0.00200517 0.000720185 0)
(-0.00207238 0.000704313 0)
(-0.00213803 0.000687911 0)
(-0.00220207 0.000670994 0)
(-0.00226444 0.000653579 0)
(-0.0023251 0.000635684 0)
(-0.00238397 0.000617331 0)
(-0.00244102 0.000598541 0)
(-0.00249618 0.000579342 0)
(-0.00254941 0.000559761 0)
(-0.00260064 0.000539831 0)
(-0.00264982 0.000519589 0)
(-0.00269689 0.000499075 0)
(-0.0027418 0.000478336 0)
(-0.00278447 0.000457425 0)
(-0.00282485 0.000436399 0)
(-0.00286286 0.000415326 0)
(-0.00289843 0.000394281 0)
(-0.00293146 0.000373346 0)
(-0.00296185 0.000352615 0)
(-0.0029895 0.000332189 0)
(-0.00301425 0.00031218 0)
(-0.00303594 0.000292706 0)
(-0.00305438 0.000273889 0)
(-0.00306933 0.00025585 0)
(-0.0030805 0.000238699 0)
(-0.00308754 0.000222523 0)
(-0.00309004 0.000207365 0)
(-0.00308752 0.000193201 0)
(-0.00307943 0.000179901 0)
(-0.00306517 0.000167191 0)
(-0.00304417 0.000154604 0)
(-0.00301587 0.000141438 0)
(-0.00297992 0.000126751 0)
(-0.00293623 0.000109385 0)
(-1.42579e-05 0.000512834 0)
(-7.71483e-05 0.000892309 0)
(-0.000166713 0.000985301 0)
(-0.000251668 0.00100097 0)
(-0.000339343 0.00100112 0)
(-0.00042645 0.000998316 0)
(-0.000513202 0.000994506 0)
(-0.0005996 0.000989944 0)
(-0.000685571 0.000984656 0)
(-0.000771049 0.000978648 0)
(-0.000855973 0.000971924 0)
(-0.000940279 0.000964487 0)
(-0.00102391 0.000956339 0)
(-0.00110679 0.000947487 0)
(-0.00118887 0.000937933 0)
(-0.00127009 0.000927684 0)
(-0.00135039 0.000916745 0)
(-0.00142969 0.000905122 0)
(-0.00150795 0.000892821 0)
(-0.00158511 0.000879849 0)
(-0.0016611 0.000866215 0)
(-0.00173587 0.000851926 0)
(-0.00180935 0.000836992 0)
(-0.00188149 0.000821422 0)
(-0.00195224 0.000805228 0)
(-0.00202152 0.000788421 0)
(-0.00208929 0.000771013 0)
(-0.0021555 0.00075302 0)
(-0.00222007 0.000734455 0)
(-0.00228296 0.000715338 0)
(-0.00234411 0.000695685 0)
(-0.00240346 0.000675517 0)
(-0.00246096 0.000654858 0)
(-0.00251654 0.000633733 0)
(-0.00257016 0.00061217 0)
(-0.00262175 0.0005902 0)
(-0.00267125 0.000567858 0)
(-0.0027186 0.000545185 0)
(-0.00276374 0.000522222 0)
(-0.00280659 0.000499019 0)
(-0.00284709 0.000475629 0)
(-0.00288515 0.000452113 0)
(-0.00292069 0.000428536 0)
(-0.00295361 0.000404971 0)
(-0.00298381 0.000381496 0)
(-0.00301116 0.000358196 0)
(-0.00303552 0.000335159 0)
(-0.00305672 0.000312474 0)
(-0.00307457 0.000290231 0)
(-0.00308883 0.000268507 0)
(-0.00309924 0.000247368 0)
(-0.00310549 0.000226848 0)
(-0.00310723 0.000206935 0)
(-0.00310404 0.000187556 0)
(-0.00309551 0.000168544 0)
(-0.00308118 0.000149617 0)
(-0.00306065 0.000130345 0)
(-0.00303357 0.000110146 0)
(-0.00299974 8.8279e-05 0)
(-0.00295918 6.38837e-05 0)
(-1.43431e-05 0.000557946 0)
(-7.7745e-05 0.000970446 0)
(-0.000168086 0.00107147 0)
(-0.000253774 0.00108849 0)
(-0.000342214 0.00108865 0)
(-0.00043008 0.0010856 0)
(-0.000517589 0.00108145 0)
(-0.000604742 0.00107649 0)
(-0.000691465 0.00107074 0)
(-0.000777693 0.00106421 0)
(-0.000863362 0.0010569 0)
(-0.000948411 0.00104881 0)
(-0.00103278 0.00103995 0)
(-0.0011164 0.00103032 0)
(-0.00119921 0.00101994 0)
(-0.00128115 0.00100879 0)
(-0.00136216 0.000996891 0)
(-0.00144218 0.000984249 0)
(-0.00152114 0.000970869 0)
(-0.001599 0.000956758 0)
(-0.00167567 0.000941925 0)
(-0.00175112 0.000926378 0)
(-0.00182527 0.000910127 0)
(-0.00189807 0.000893182 0)
(-0.00196946 0.000875554 0)
(-0.00203939 0.000857255 0)
(-0.00210778 0.000838299 0)
(-0.00217459 0.000818698 0)
(-0.00223975 0.00079847 0)
(-0.00230322 0.00077763 0)
(-0.00236492 0.000756198 0)
(-0.0024248 0.000734194 0)
(-0.0024828 0.00071164 0)
(-0.00253887 0.000688561 0)
(-0.00259294 0.000664984 0)
(-0.00264495 0.000640939 0)
(-0.00269483 0.000616459 0)
(-0.00274253 0.000591581 0)
(-0.00278796 0.000566346 0)
(-0.00283106 0.000540797 0)
(-0.00287176 0.000514983 0)
(-0.00290996 0.000488957 0)
(-0.00294557 0.000462777 0)
(-0.0029785 0.000436504 0)
(-0.00300863 0.000410202 0)
(-0.00303583 0.000383941 0)
(-0.00305997 0.000357787 0)
(-0.00308087 0.000331807 0)
(-0.00309835 0.00030606 0)
(-0.0031122 0.000280595 0)
(-0.00312216 0.00025544 0)
(-0.00312798 0.000230594 0)
(-0.00312933 0.000206012 0)
(-0.00312591 0.000181592 0)
(-0.00311737 0.000157158 0)
(-0.00310337 0.00013244 0)
(-0.00308364 0.000107066 0)
(-0.00305794 8.05559e-05 0)
(-0.00302618 5.23326e-05 0)
(-0.00298845 2.17495e-05 0)
(-1.44354e-05 0.000603406 0)
(-7.83918e-05 0.00104927 0)
(-0.000169574 0.00115842 0)
(-0.000256058 0.0011768 0)
(-0.000345326 0.00117697 0)
(-0.000434015 0.00117367 0)
(-0.000522344 0.00116919 0)
(-0.000610315 0.00116383 0)
(-0.000697853 0.00115761 0)
(-0.000784894 0.00115055 0)
(-0.000871373 0.00114265 0)
(-0.000957226 0.00113391 0)
(-0.00104239 0.00112433 0)
(-0.00112681 0.00111392 0)
(-0.00121041 0.00110269 0)
(-0.00129314 0.00109064 0)
(-0.00137493 0.00107778 0)
(-0.00145572 0.00106411 0)
(-0.00153545 0.00104965 0)
(-0.00161405 0.00103439 0)
(-0.00169148 0.00101835 0)
(-0.00176766 0.00100153 0)
(-0.00184255 0.000983956 0)
(-0.00191607 0.000965625 0)
(-0.00198816 0.000946551 0)
(-0.00205878 0.000926748 0)
(-0.00212785 0.000906227 0)
(-0.00219532 0.000885005 0)
(-0.00226114 0.000863095 0)
(-0.00232523 0.000840515 0)
(-0.00238754 0.000817284 0)
(-0.00244802 0.00079342 0)
(-0.00250659 0.000768946 0)
(-0.0025632 0.000743885 0)
(-0.00261778 0.000718264 0)
(-0.00267027 0.000692111 0)
(-0.00272061 0.000665456 0)
(-0.00276871 0.000638334 0)
(-0.00281452 0.000610782 0)
(-0.00285795 0.000582839 0)
(-0.00289893 0.000554548 0)
(-0.00293735 0.000525955 0)
(-0.00297314 0.00049711 0)
(-0.00300619 0.000468064 0)
(-0.00303638 0.000438869 0)
(-0.00306358 0.000409579 0)
(-0.00308766 0.000380244 0)
(-0.00310845 0.000350911 0)
(-0.00312578 0.000321617 0)
(-0.00313945 0.000292387 0)
(-0.00314925 0.000263222 0)
(-0.00315492 0.0002341 0)
(-0.00315623 0.000204956 0)
(-0.00315289 0.000175677 0)
(-0.00314466 0.000146091 0)
(-0.00313128 0.000115955 0)
(-0.00311254 8.49525e-05 0)
(-0.00308831 5.26936e-05 0)
(-0.00305855 1.87268e-05 0)
(-0.00302331 -1.73913e-05 0)
(-1.45347e-05 0.000649244 0)
(-7.90888e-05 0.00112883 0)
(-0.000171178 0.00124621 0)
(-0.00025852 0.00126596 0)
(-0.000348681 0.00126614 0)
(-0.000438256 0.00126259 0)
(-0.000527469 0.00125778 0)
(-0.000616322 0.00125201 0)
(-0.00070474 0.00124533 0)
(-0.000792656 0.00123774 0)
(-0.000880007 0.00122924 0)
(-0.000966729 0.00121984 0)
(-0.00105276 0.00120954 0)
(-0.00113803 0.00119835 0)
(-0.00122249 0.00118627 0)
(-0.00130606 0.00117331 0)
(-0.00138869 0.00115948 0)
(-0.00147031 0.00114478 0)
(-0.00155087 0.00112922 0)
(-0.00163029 0.0011128 0)
(-0.00170853 0.00109555 0)
(-0.00178551 0.00107745 0)
(-0.00186118 0.00105854 0)
(-0.00193548 0.00103881 0)
(-0.00200834 0.00101828 0)
(-0.00207971 0.000996956 0)
(-0.00214952 0.000974858 0)
(-0.00221772 0.000951998 0)
(-0.00228424 0.00092839 0)
(-0.00234903 0.000904051 0)
(-0.00241201 0.000879 0)
(-0.00247314 0.000853255 0)
(-0.00253234 0.000826837 0)
(-0.00258955 0.00079977 0)
(-0.00264471 0.000772076 0)
(-0.00269776 0.000743783 0)
(-0.00274861 0.00071492 0)
(-0.0027972 0.000685517 0)
(-0.00284346 0.000655607 0)
(-0.0028873 0.000625227 0)
(-0.00292864 0.000594413 0)
(-0.00296739 0.000563205 0)
(-0.00300346 0.000531644 0)
(-0.00303674 0.000499773 0)
(-0.00306711 0.000467633 0)
(-0.00309446 0.000435264 0)
(-0.00311864 0.000402704 0)
(-0.0031395 0.000369982 0)
(-0.00315688 0.00033712 0)
(-0.00317059 0.000304123 0)
(-0.00318045 0.000270978 0)
(-0.00318624 0.000237647 0)
(-0.00318776 0.000204056 0)
(-0.00318477 0.000170094 0)
(-0.00317709 0.000135599 0)
(-0.00316451 0.000100361 0)
(-0.0031469 6.41143e-05 0)
(-0.00312417 2.65423e-05 0)
(-0.00309627 -1.26783e-05 0)
(-0.00306331 -5.39008e-05 0)
(-1.4641e-05 0.000695488 0)
(-7.9836e-05 0.00120919 0)
(-0.000172899 0.00133489 0)
(-0.00026116 0.00135604 0)
(-0.00035228 0.00135623 0)
(-0.000442806 0.00135243 0)
(-0.000532967 0.00134728 0)
(-0.000622767 0.0013411 0)
(-0.000712128 0.00133395 0)
(-0.000800984 0.00132582 0)
(-0.000889271 0.00131673 0)
(-0.000976925 0.00130666 0)
(-0.00106388 0.00129564 0)
(-0.00115008 0.00128366 0)
(-0.00123545 0.00127073 0)
(-0.00131993 0.00125685 0)
(-0.00140346 0.00124204 0)
(-0.00148598 0.0012263 0)
(-0.00156742 0.00120964 0)
(-0.00164772 0.00119206 0)
(-0.00172683 0.00117358 0)
(-0.00180467 0.0011542 0)
(-0.00188119 0.00113393 0)
(-0.00195633 0.00111279 0)
(-0.00203002 0.00109079 0)
(-0.0021022 0.00106794 0)
(-0.00217281 0.00104425 0)
(-0.00224179 0.00101974 0)
(-0.00230908 0.000994415 0)
(-0.00237462 0.0009683 0)
(-0.00243834 0.000941409 0)
(-0.00250018 0.000913762 0)
(-0.00256008 0.000885378 0)
(-0.00261796 0.000856279 0)
(-0.00267377 0.000826486 0)
(-0.00272743 0.000796025 0)
(-0.00277887 0.000764922 0)
(-0.00282803 0.000733205 0)
(-0.00287481 0.000700903 0)
(-0.00291915 0.000668048 0)
(-0.00296095 0.000634671 0)
(-0.00300012 0.000600807 0)
(-0.00303657 0.000566489 0)
(-0.0030702 0.000531751 0)
(-0.00310089 0.000496626 0)
(-0.00312851 0.000461144 0)
(-0.00315294 0.000425329 0)
(-0.00317403 0.0003892 0)
(-0.00319164 0.000352765 0)
(-0.00320559 0.000316017 0)
(-0.00321572 0.000278934 0)
(-0.00322184 0.000241468 0)
(-0.00322378 0.000203546 0)
(-0.00322135 0.000165061 0)
(-0.00321439 0.00012587 0)
(-0.00320276 8.5792e-05 0)
(-0.00318636 4.46102e-05 0)
(-0.0031651 2.07516e-06 0)
(-0.00313899 -4.20585e-05 0)
(-0.00310814 -8.80969e-05 0)
(-1.47542e-05 0.000742165 0)
(-8.06335e-05 0.00129039 0)
(-0.000174736 0.00142453 0)
(-0.00026398 0.0014471 0)
(-0.000356124 0.0014473 0)
(-0.000447666 0.00144325 0)
(-0.000538841 0.00143776 0)
(-0.000629651 0.00143118 0)
(-0.00072002 0.00142355 0)
(-0.000809881 0.00141488 0)
(-0.000899168 0.00140518 0)
(-0.000987817 0.00139445 0)
(-0.00107576 0.0013827 0)
(-0.00116294 0.00136992 0)
(-0.00124929 0.00135613 0)
(-0.00133475 0.00134133 0)
(-0.00141924 0.00132554 0)
(-0.00150272 0.00130875 0)
(-0.00158511 0.00129097 0)
(-0.00166636 0.00127222 0)
(-0.00174639 0.0012525 0)
(-0.00182515 0.00123183 0)
(-0.00190258 0.0012102 0)
(-0.00197862 0.00118764 0)
(-0.0020532 0.00116416 0)
(-0.00212625 0.00113976 0)
(-0.00219773 0.00111447 0)
(-0.00226756 0.00108828 0)
(-0.00233568 0.00106123 0)
(-0.00240203 0.00103332 0)