0 	2.19381e-09
1.57135 	2.02606e-07
3.1427 	1.17854e-05
4.71405 	6.95546e-05
6.28539 	0.00023865
7.85674 	0.000622386
9.42809 	0.00136248
10.9994 	0.00264906
12.5708 	0.00463821
14.1421 	0.116195
