/*--------------------------------*- C++ -*----------------------------------*\
  =========                 |
  \\      /  F ield         | OpenFOAM: The Open Source CFD Toolbox
   \\    /   O peration     | Website:  https://openfoam.org
    \\  /    A nd           | Version:  8
     \\/     M anipulation  |
\*---------------------------------------------------------------------------*/
FoamFile
{
    version     2.0;
    format      ascii;
    class       volScalarField;
    location    "0.86";
    object      p;
}
// * * * * * * * * * * * * * * * * * * * * * * * * * * * * * * * * * * * * * //

dimensions      [0 2 -2 0 0 0 0];

internalField   nonuniform List<scalar> 
400
(
8.37927e-13
-5.13494e-07
-8.44568e-07
-1.01314e-06
-1.07483e-06
-1.06427e-06
-1.0227e-06
-9.83789e-07
-9.52823e-07
-9.29345e-07
-9.10357e-07
-8.71228e-07
-7.80589e-07
-6.29313e-07
-4.25258e-07
-1.66512e-07
1.6058e-07
5.16275e-07
7.10408e-07
5.20911e-07
-2.26785e-07
-6.41882e-07
-8.39377e-07
-9.06669e-07
-9.18687e-07
-8.93484e-07
-8.68997e-07
-8.6182e-07
-8.60915e-07
-8.66763e-07
-8.80433e-07
-8.7709e-07
-8.27057e-07
-7.26153e-07
-5.85101e-07
-3.99078e-07
-1.36904e-07
1.89224e-07
3.94503e-07
2.30714e-07
-4.45997e-07
-8.44207e-07
-9.33247e-07
-8.91269e-07
-8.43529e-07
-8.04787e-07
-7.91188e-07
-8.05199e-07
-8.28521e-07
-8.56841e-07
-8.90571e-07
-9.08308e-07
-8.83774e-07
-8.12838e-07
-7.03814e-07
-5.48462e-07
-3.03886e-07
3.55356e-08
2.56857e-07
6.10282e-08
-6.17755e-07
-1.02627e-06
-1.04915e-06
-9.2016e-07
-8.23756e-07
-7.78153e-07
-7.77677e-07
-8.10938e-07
-8.52294e-07
-8.95206e-07
-9.41203e-07
-9.69743e-07
-9.53525e-07
-8.87559e-07
-7.82267e-07
-6.31473e-07
-3.82668e-07
-2.09471e-08
2.16594e-07
-2.13345e-08
-6.87904e-07
-1.14206e-06
-1.12964e-06
-9.43436e-07
-8.23275e-07
-7.8153e-07
-7.96376e-07
-8.49309e-07
-9.09841e-07
-9.67579e-07
-1.021e-06
-1.04828e-06
-1.02368e-06
-9.45652e-07
-8.28373e-07
-6.67984e-07
-4.02541e-07
-2.07863e-09
2.68755e-07
-7.79423e-10
-6.75836e-07
-1.20349e-06
-1.17882e-06
-9.56033e-07
-8.25289e-07
-7.93526e-07
-8.26985e-07
-9.02617e-07
-9.84214e-07
-1.05338e-06
-1.10374e-06
-1.11622e-06
-1.07294e-06
-9.78609e-07
-8.47912e-07
-6.72708e-07
-3.81096e-07
7.1883e-08
3.94826e-07
1.03966e-07
-6.38774e-07
-1.24726e-06
-1.22286e-06
-9.71845e-07
-8.33777e-07
-8.15421e-07
-8.70694e-07
-9.67891e-07
-1.06305e-06
-1.1312e-06
-1.16557e-06
-1.15548e-06
-1.0936e-06
-9.8811e-07
-8.49169e-07
-6.6149e-07
-3.44447e-07
1.58309e-07
5.35525e-07
2.32124e-07
-6.06069e-07
-1.28884e-06
-1.27321e-06
-1.00067e-06
-8.58719e-07
-8.55496e-07
-9.29055e-07
-1.03743e-06
-1.13187e-06
-1.18551e-06
-1.19493e-06
-1.16012e-06
-1.0846e-06
-9.76798e-07
-8.37119e-07
-6.41933e-07
-3.06577e-07
2.32181e-07
6.52737e-07
3.43726e-07
-5.81088e-07
-1.32948e-06
-1.33308e-06
-1.05085e-06
-9.09448e-07
-9.17495e-07
-9.97525e-07
-1.10107e-06
-1.18067e-06
-1.21175e-06
-1.19405e-06
-1.13594e-06
-1.05044e-06
-9.45762e-07
-8.11131e-07
-6.13903e-07
-2.69291e-07
2.88579e-07
7.37018e-07
4.27853e-07
-5.66608e-07
-1.3713e-06
-1.40365e-06
-1.12481e-06
-9.86582e-07
-9.97269e-07
-1.06868e-06
-1.15216e-06
-1.20759e-06
-1.21491e-06
-1.17436e-06
-1.09784e-06
-1.00504e-06
-9.04678e-07
-7.76993e-07
-5.81766e-07
-2.36406e-07
3.2488e-07
7.86025e-07
4.80649e-07
-5.74039e-07
-1.42252e-06
-1.4875e-06
-1.22057e-06
-1.08516e-06
-1.08937e-06
-1.13995e-06
-1.19334e-06
-1.2207e-06
-1.20747e-06
-1.15147e-06
-1.06318e-06
-9.65446e-07
-8.67679e-07
-7.44529e-07
-5.51981e-07
-2.12838e-07
3.36572e-07
7.94154e-07
4.9294e-07
-6.10944e-07
-1.4868e-06
-1.58261e-06
-1.33157e-06
-1.19821e-06
-1.19089e-06
-1.21516e-06
-1.23495e-06
-1.23419e-06
-1.20399e-06
-1.13806e-06
-1.04204e-06
-9.38907e-07
-8.38763e-07
-7.14194e-07
-5.22565e-07
-1.96761e-07
3.23058e-07
7.57541e-07
4.57527e-07
-6.69217e-07
-1.55359e-06
-1.67795e-06
-1.44727e-06
-1.31829e-06
-1.30061e-06
-1.30054e-06
-1.28939e-06
-1.26294e-06
-1.21749e-06
-1.14218e-06
-1.03666e-06
-9.22775e-07
-8.12057e-07
-6.78657e-07
-4.86169e-07
-1.81594e-07
2.89995e-07
6.80929e-07
3.79268e-07
-7.29014e-07
-1.60185e-06
-1.75679e-06
-1.55568e-06
-1.43739e-06
-1.41534e-06
-1.39858e-06
-1.36403e-06
-1.31651e-06
-1.25594e-06
-1.16732e-06
-1.04533e-06
-9.11646e-07
-7.81151e-07
-6.32654e-07
-4.38577e-07
-1.61306e-07
2.47686e-07
5.7766e-07
2.7437e-07
-7.74684e-07
-1.61413e-06
-1.80513e-06
-1.64805e-06
-1.54949e-06
-1.53021e-06
-1.50594e-06
-1.45723e-06
-1.39366e-06
-1.31664e-06
-1.20836e-06
-1.06134e-06
-8.99619e-07
-7.43196e-07
-5.76647e-07
-3.80618e-07
-1.31907e-07
2.07485e-07
4.63654e-07
1.60693e-07
-8.07158e-07
-1.59308e-06
-1.82159e-06
-1.72315e-06
-1.65487e-06
-1.64474e-06
-1.61917e-06
-1.56186e-06
-1.48357e-06
-1.38603e-06
-1.25148e-06
-1.074e-06
-8.81322e-07
-6.97919e-07
-5.12755e-07
-3.12792e-07
-8.89656e-08
1.80028e-07
3.54646e-07
5.03024e-08
-8.35576e-07
-1.56178e-06
-1.82064e-06
-1.78571e-06
-1.75563e-06
-1.75975e-06
-1.73494e-06
-1.66789e-06
-1.57045e-06
-1.44683e-06
-1.28319e-06
-1.07658e-06
-8.55541e-07
-6.45528e-07
-4.39989e-07
-2.33818e-07
-3.17575e-08
1.70812e-07
2.63434e-07
-5.35532e-08
-8.59563e-07
-1.5378e-06
-1.8258e-06
-1.85223e-06
-1.85948e-06
-1.87441e-06
-1.84466e-06
-1.76041e-06
-1.63765e-06
-1.48596e-06
-1.29552e-06
-1.06351e-06
-8.16136e-07
-5.78816e-07
-3.50368e-07
-1.36003e-07
4.46463e-08
1.85332e-07
1.97628e-07
-1.45846e-07
-8.78241e-07
-1.54001e-06
-1.87485e-06
-1.96819e-06
-2.00283e-06
-2.0105e-06
-1.95728e-06
-1.84235e-06
-1.68837e-06
-1.50873e-06
-1.29278e-06
-1.03427e-06
-7.57712e-07
-4.90694e-07
-2.35934e-07
-5.03448e-09
1.66645e-07
2.55338e-07
1.89835e-07
-1.89798e-07
-8.86091e-07
-1.6297e-06
-2.05717e-06
-2.20765e-06
-2.24135e-06
-2.2101e-06
-2.10901e-06
-1.94865e-06
-1.75477e-06
-1.54037e-06
-1.29363e-06
-1.00503e-06
-6.93029e-07
-3.844e-07
-9.14416e-08
1.70611e-07
3.68123e-07
4.56032e-07
3.40901e-07
-1.15847e-07
)
;

boundaryField
{
    movingWall
    {
        type            zeroGradient;
    }
    fixedWalls
    {
        type            zeroGradient;
    }
    left
    {
        type            cyclic;
    }
    right
    {
        type            cyclic;
    }
    frontAndBack
    {
        type            empty;
    }
}


// ************************************************************************* //
