/*--------------------------------*- C++ -*----------------------------------*\
  =========                 |
  \\      /  F ield         | OpenFOAM: The Open Source CFD Toolbox
   \\    /   O peration     | Website:  https://openfoam.org
    \\  /    A nd           | Version:  8
     \\/     M anipulation  |
\*---------------------------------------------------------------------------*/
FoamFile
{
    version     2.0;
    format      ascii;
    class       surfaceScalarField;
    location    "0.86";
    object      phi;
}
// * * * * * * * * * * * * * * * * * * * * * * * * * * * * * * * * * * * * * //

dimensions      [0 3 -1 0 0 0 0];

internalField   nonuniform List<scalar> 
760
(
1.2486e-06
-5.00714e-13
1.24859e-06
2.02929e-12
1.24859e-06
3.13471e-12
1.24859e-06
3.18901e-12
1.24858e-06
2.89831e-12
1.24858e-06
2.4702e-12
1.24858e-06
2.08301e-12
1.24858e-06
1.76681e-12
1.24858e-06
1.43654e-12
1.24858e-06
1.09995e-12
1.24857e-06
7.95174e-13
1.24857e-06
4.7804e-13
1.24857e-06
7.05923e-14
1.24857e-06
-4.72186e-13
1.24858e-06
-1.18824e-12
1.24858e-06
-2.15344e-12
1.24858e-06
-3.46159e-12
1.24859e-06
-4.82513e-12
1.24859e-06
-5.2209e-12
-3.62951e-12
3.74581e-06
-1.32158e-12
3.7458e-06
4.86567e-12
3.7458e-06
7.84668e-12
3.74579e-06
8.35795e-12
3.74579e-06
7.80831e-12
3.74578e-06
6.87988e-12
3.74578e-06
5.88203e-12
3.74578e-06
4.92114e-12
3.74577e-06
3.97702e-12
3.74577e-06
3.02069e-12
3.74577e-06
2.02972e-12
3.74577e-06
9.41318e-13
3.74577e-06
-3.42703e-13
3.74577e-06
-1.93171e-12
3.74577e-06
-3.94377e-12
3.74578e-06
-6.48198e-12
3.74578e-06
-9.48241e-12
3.74579e-06
-1.21675e-11
3.7458e-06
-1.24353e-11
-8.42337e-12
6.24311e-06
-2.29354e-12
6.2431e-06
6.76628e-12
6.2431e-06
1.15351e-11
6.2431e-06
1.27975e-11
6.24309e-06
1.22477e-11
6.24309e-06
1.09859e-11
6.24308e-06
9.50372e-12
6.24308e-06
7.97542e-12
6.24308e-06
6.41756e-12
6.24308e-06
4.81304e-12
6.24308e-06
3.11948e-12
6.24307e-06
1.24305e-12
6.24308e-06
-9.48372e-13
6.24308e-06
-3.59395e-12
6.24308e-06
-6.80881e-12
6.24308e-06
-1.06295e-11
6.24309e-06
-1.47857e-11
6.2431e-06
-1.81058e-11
6.2431e-06
-1.80466e-11
-1.21925e-11
8.74057e-06
-3.53635e-12
8.74057e-06
7.20525e-12
8.74057e-06
1.34209e-11
8.74057e-06
1.55025e-11
8.74057e-06
1.52658e-11
8.74056e-06
1.39872e-11
8.74056e-06
1.2255e-11
8.74056e-06
1.0349e-11
8.74056e-06
8.35678e-12
8.74055e-06
6.27073e-12
8.74055e-06
4.02954e-12
8.74055e-06
1.52682e-12
8.74055e-06
-1.37248e-12
8.74055e-06
-4.80068e-12
8.74056e-06
-8.84115e-12
8.74056e-06
-1.34371e-11
8.74056e-06
-1.81785e-11
8.74057e-06
-2.17278e-11
8.74057e-06
-2.14413e-11
-1.48343e-11
1.12383e-05
-4.88219e-12
1.12383e-05
6.35477e-12
1.12383e-05
1.34659e-11
1.12383e-05
1.62667e-11
1.12383e-05
1.65021e-11
1.12383e-05
1.54448e-11
1.12383e-05
1.37478e-11
1.12383e-05
1.17473e-11
1.12383e-05
9.57234e-12
1.12383e-05
7.23924e-12
1.12383e-05
4.69851e-12
1.12383e-05
1.85049e-12
1.12383e-05
-1.42894e-12
1.12383e-05
-5.24615e-12
1.12383e-05
-9.64255e-12
1.12383e-05
-1.45009e-11
1.12383e-05
-1.936e-11
1.12383e-05
-2.29195e-11
1.12383e-05
-2.26552e-11
-1.62546e-11
1.37363e-05
-6.08876e-12
1.37363e-05
4.61591e-12
1.37363e-05
1.19088e-11
1.37363e-05
1.51868e-11
1.37363e-05
1.59189e-11
1.37363e-05
1.52525e-11
1.37363e-05
1.38279e-11
1.37363e-05
1.19966e-11
1.37363e-05
9.9092e-12
1.37363e-05
7.60723e-12
1.37363e-05
5.06529e-12
1.37363e-05
2.20316e-12
1.37363e-05
-1.0844e-12
1.37363e-05
-4.87557e-12
1.37363e-05
-9.17195e-12
1.37363e-05
-1.38318e-11
1.37363e-05
-1.84162e-11
1.37363e-05
-2.1817e-11
1.37363e-05
-2.18361e-11
-1.63705e-11
1.62346e-05
-6.92221e-12
1.62346e-05
2.3662e-12
1.62346e-05
9.14733e-12
1.62346e-05
1.25792e-11
1.62346e-05
1.37172e-11
1.62346e-05
1.35128e-11
1.62346e-05
1.25263e-11
1.62346e-05
1.1084e-11
1.62346e-05
9.3352e-12
1.62346e-05
7.33614e-12
1.62346e-05
5.08489e-12
1.62346e-05
2.5272e-12
1.62346e-05
-4.15386e-13
1.62346e-05
-3.79312e-12
1.62346e-05
-7.58178e-12
1.62346e-05
-1.16524e-11
1.62346e-05
-1.56536e-11
1.62346e-05
-1.87497e-11
1.62346e-05
-1.92272e-11
-1.52211e-11
1.87333e-05
-7.21822e-12
1.87333e-05
-7.29795e-14
1.87333e-05
5.60513e-12
1.87333e-05
8.83289e-12
1.87333e-05
1.02254e-11
1.87333e-05
1.04795e-11
1.87333e-05
1.00275e-11
1.87333e-05
9.1352e-12
1.87333e-05
7.92656e-12
1.87333e-05
6.4582e-12
1.87333e-05
4.74604e-12
1.87333e-05
2.76248e-12
1.87333e-05
4.58097e-13
1.87333e-05
-2.19173e-12
1.87333e-05
-5.1499e-12
1.87333e-05
-8.32236e-12
1.87333e-05
-1.1491e-11
1.87333e-05
-1.41424e-11
1.87333e-05
-1.51366e-11
-1.29318e-11
2.12324e-05
-6.9151e-12
2.12324e-05
-2.44513e-12
2.12324e-05
1.66455e-12
2.12324e-05
4.35712e-12
2.12324e-05
5.83656e-12
2.12325e-05
6.50178e-12
2.12325e-05
6.62372e-12
2.12325e-05
6.37883e-12
2.12325e-05
5.84591e-12
2.12325e-05
5.06882e-12
2.12325e-05
4.07427e-12
2.12325e-05
2.85942e-12
2.12325e-05
1.40367e-12
2.12325e-05
-2.94635e-13
2.12325e-05
-2.19607e-12
2.12325e-05
-4.2546e-12
2.12324e-05
-6.40366e-12
2.12324e-05
-8.47517e-12
2.12324e-05
-9.94223e-12
-9.68802e-12
2.3732e-05
-6.04388e-12
2.3732e-05
-4.56354e-12
2.3732e-05
-2.34942e-12
2.3732e-05
-4.46252e-13
2.3732e-05
9.70821e-13
2.3732e-05
1.98202e-12
2.3732e-05
2.67409e-12
2.3732e-05
3.11444e-12
2.3732e-05
3.32289e-12
2.3732e-05
3.32118e-12
2.3732e-05
3.13997e-12
2.3732e-05
2.7979e-12
2.3732e-05
2.30189e-12
2.3732e-05
1.67205e-12
2.3732e-05
9.46515e-13
2.3732e-05
1.19777e-13
2.3732e-05
-8.89887e-13
2.3732e-05
-2.25717e-12
2.3732e-05
-4.07321e-12
-5.74009e-12
2.6232e-05
-4.71293e-12
2.6232e-05
-6.31685e-12
2.6232e-05
-6.16783e-12
2.6232e-05
-5.19949e-12
2.6232e-05
-3.94746e-12
2.6232e-05
-2.65256e-12
2.6232e-05
-1.42364e-12
2.6232e-05
-3.13014e-13
2.6232e-05
6.33997e-13
2.6232e-05
1.41228e-12
2.6232e-05
2.05163e-12
2.6232e-05
2.58877e-12
2.6232e-05
3.05735e-12
2.6232e-05
3.50028e-12
2.6232e-05
3.9574e-12
2.6232e-05
4.37994e-12
2.6232e-05
4.55645e-12
2.6232e-05
3.99483e-12
2.6232e-05
2.00519e-12
-1.40423e-12
2.87324e-05
-3.09618e-12
2.87324e-05
-7.65618e-12
2.87325e-05
-9.56696e-12
2.87325e-05
-9.55306e-12
2.87325e-05
-8.50314e-12
2.87325e-05
-6.97021e-12
2.87325e-05
-5.25822e-12
2.87325e-05
-3.53903e-12
2.87325e-05
-1.9212e-12
2.87325e-05
-4.35917e-13
2.87325e-05
9.43871e-13
2.87325e-05
2.27065e-12
2.87325e-05
3.60465e-12
2.87325e-05
5.01449e-12
2.87325e-05
6.54955e-12
2.87325e-05
8.13516e-12
2.87325e-05
9.46183e-12
2.87325e-05
9.76806e-12
2.87325e-05
7.80168e-12
2.95029e-12
3.12333e-05
-1.41514e-12
3.12333e-05
-8.57209e-12
3.12333e-05
-1.23499e-11
3.12333e-05
-1.31795e-11
3.12333e-05
-1.22972e-11
3.12333e-05
-1.05515e-11
3.12334e-05
-8.42816e-12
3.12334e-05
-6.20641e-12
3.12334e-05
-4.04667e-12
3.12334e-05
-1.99991e-12
3.12334e-05
-4.01647e-14
3.12334e-05
1.89962e-12
3.12334e-05
3.90598e-12
3.12334e-05
6.07636e-12
3.12334e-05
8.47932e-12
3.12334e-05
1.10372e-11
3.12333e-05
1.33847e-11
3.12333e-05
1.45635e-11
3.12333e-05
1.2814e-11
6.92614e-12
3.37346e-05
9.2974e-14
3.37346e-05
-9.07286e-12
3.37346e-05
-1.43235e-11
3.37346e-05
-1.57612e-11
3.37346e-05
-1.49493e-11
3.37346e-05
-1.30056e-11
3.37346e-05
-1.05674e-11
3.37346e-05
-7.99597e-12
3.37346e-05
-5.48214e-12
3.37346e-05
-3.08467e-12
3.37346e-05
-7.73858e-13
3.37346e-05
1.53144e-12
3.37346e-05
3.94182e-12
3.37346e-05
6.58396e-12
3.37346e-05
9.55339e-12
3.37346e-05
1.27934e-11
3.37346e-05
1.59338e-11
3.37346e-05
1.79109e-11
3.37346e-05
1.65539e-11
1.0121e-11
3.62363e-05
1.22647e-12
3.62363e-05
-9.15636e-12
3.62363e-05
-1.52726e-11
3.62363e-05
-1.6979e-11
3.62363e-05
-1.6105e-11
3.62363e-05
-1.39952e-11
3.62363e-05
-1.13826e-11
3.62363e-05
-8.66865e-12
3.62363e-05
-6.04432e-12
3.62363e-05
-3.55979e-12
3.62363e-05
-1.17505e-12
3.62363e-05
1.20361e-12
3.62363e-05
3.70392e-12
3.62363e-05
6.47528e-12
3.62363e-05
9.64186e-12
3.62363e-05
1.31882e-11
3.62363e-05
1.67941e-11
3.62363e-05
1.9392e-11
3.62363e-05
1.85756e-11
1.21374e-11
3.87383e-05
1.85767e-12
3.87383e-05
-8.75169e-12
3.87383e-05
-1.49398e-11
3.87383e-05
-1.6526e-11
3.87383e-05
-1.54783e-11
3.87383e-05
-1.32901e-11
3.87383e-05
-1.07096e-11
3.87383e-05
-8.119e-12
3.87383e-05
-5.67368e-12
3.87383e-05
-3.39616e-12
3.87383e-05
-1.22988e-12
3.87383e-05
9.25358e-13
3.87383e-05
3.19702e-12
3.87383e-05
5.73901e-12
3.87383e-05
8.69939e-12
3.87383e-05
1.21181e-11
3.87383e-05
1.57695e-11
3.87383e-05
1.86936e-11
3.87383e-05
1.85056e-11
1.26089e-11
4.12406e-05
1.90049e-12
4.12406e-05
-7.67229e-12
4.12406e-05
-1.30388e-11
4.12406e-05
-1.41365e-11
4.12406e-05
-1.29212e-11
4.12406e-05
-1.08612e-11
4.12406e-05
-8.60385e-12
4.12406e-05
-6.44543e-12
4.12406e-05
-4.48041e-12
4.12406e-05
-2.69193e-12
4.12406e-05
-1.00411e-12
4.12406e-05
6.76825e-13
4.12406e-05
2.44572e-12
4.12406e-05
4.42935e-12
4.12406e-05
6.79621e-12
4.12406e-05
9.65314e-12
4.12406e-05
1.28708e-11
4.12406e-05
1.56992e-11
4.12406e-05
1.60767e-11
1.13071e-11
4.37431e-05
1.38838e-12
4.37431e-05
-5.59428e-12
4.37431e-05
-9.3231e-12
4.37431e-05
-9.73387e-12
4.37431e-05
-8.5703e-12
4.37431e-05
-6.99672e-12
4.37431e-05
-5.42122e-12
4.37431e-05
-3.99614e-12
4.37431e-05
-2.75377e-12
4.37431e-05
-1.6573e-12
4.37431e-05
-6.29621e-13
4.37431e-05
4.04457e-13
4.37431e-05
1.49481e-12
4.37431e-05
2.7181e-12
4.37431e-05
4.21233e-12
4.37431e-05
6.09663e-12
4.37431e-05
8.35925e-12
4.37431e-05
1.05882e-11
4.37431e-05
1.12539e-11
8.16017e-12
4.62458e-05
5.52303e-13
4.62458e-05
-2.51969e-12
4.62458e-05
-4.01527e-12
4.62458e-05
-3.95716e-12
4.62458e-05
-3.29787e-12
4.62458e-05
-2.59833e-12
4.62458e-05
-1.95717e-12
4.62458e-05
-1.4077e-12
4.62458e-05
-9.6564e-13
4.62458e-05
-6.06019e-13
4.62458e-05
-2.57062e-13
4.62458e-05
1.31586e-13
4.62458e-05
5.32142e-13
4.62458e-05
9.44152e-13
4.62458e-05
1.48313e-12
4.62458e-05
2.23871e-12
4.62458e-05
3.18924e-12
4.62458e-05
4.22129e-12
4.62458e-05
4.71476e-12
3.57457e-12
4.87486e-05
4.87486e-05
4.87486e-05
4.87486e-05
4.87486e-05
4.87486e-05
4.87486e-05
4.87486e-05
4.87486e-05
4.87486e-05
4.87486e-05
4.87486e-05
4.87486e-05
4.87486e-05
4.87486e-05
4.87486e-05
4.87486e-05
4.87486e-05
4.87486e-05
)
;

boundaryField
{
    movingWall
    {
        type            calculated;
        value           uniform 0;
    }
    fixedWalls
    {
        type            calculated;
        value           uniform 0;
    }
    left
    {
        type            cyclic;
        value           nonuniform List<scalar> 
20
(
-3.87383e-05
-3.62363e-05
-3.37346e-05
-3.12333e-05
-2.87324e-05
-2.6232e-05
-2.3732e-05
-2.12324e-05
-1.87333e-05
-1.62346e-05
-1.37363e-05
-1.12383e-05
-8.74057e-06
-6.2431e-06
-3.7458e-06
-1.2486e-06
-4.12406e-05
-4.37431e-05
-4.62458e-05
-4.87486e-05
)
;
    }
    right
    {
        type            cyclic;
        value           nonuniform List<scalar> 
20
(
3.87383e-05
3.62363e-05
3.37346e-05
3.12333e-05
2.87324e-05
2.6232e-05
2.3732e-05
2.12324e-05
1.87333e-05
1.62346e-05
1.37363e-05
1.12383e-05
8.74057e-06
6.2431e-06
3.7458e-06
1.2486e-06
4.12406e-05
4.37431e-05
4.62458e-05
4.87486e-05
)
;
    }
    frontAndBack
    {
        type            empty;
        value           nonuniform List<scalar> 0();
    }
}


// ************************************************************************* //
