/*--------------------------------*- C++ -*----------------------------------*\
  =========                 |
  \\      /  F ield         | OpenFOAM: The Open Source CFD Toolbox
   \\    /   O peration     | Website:  https://openfoam.org
    \\  /    A nd           | Version:  8
     \\/     M anipulation  |
\*---------------------------------------------------------------------------*/
FoamFile
{
    version     2.0;
    format      ascii;
    class       surfaceScalarField;
    location    "0.305";
    object      phi;
}
// * * * * * * * * * * * * * * * * * * * * * * * * * * * * * * * * * * * * * //

dimensions      [0 3 -1 0 0 0 0];

internalField   nonuniform List<scalar> 
760
(
1.42317e-08
-1.42642e-08
-2.22091e-08
3.6441e-08
-1.14262e-07
9.20525e-08
-2.45476e-07
1.31214e-07
-3.96069e-07
1.50593e-07
-5.47324e-07
1.51256e-07
-6.83137e-07
1.35813e-07
-7.906e-07
1.07463e-07
-8.60138e-07
6.9538e-08
-8.8557e-07
2.54316e-08
-8.6425e-07
-2.13194e-08
-7.97325e-07
-6.69252e-08
-6.90031e-07
-1.07294e-07
-5.51931e-07
-1.38101e-07
-3.96915e-07
-1.55017e-07
-2.42733e-07
-1.54182e-07
-1.09727e-07
-1.33006e-07
-1.84165e-08
-9.13108e-08
1.56878e-08
-3.41043e-08
1.56876e-08
-3.42127e-08
1.99481e-08
-1.80362e-07
1.8259e-07
-4.33959e-07
3.4565e-07
-7.64382e-07
4.61636e-07
-1.13214e-06
5.18345e-07
-1.49714e-06
5.16262e-07
-1.82321e-06
4.61884e-07
-2.08039e-06
3.64643e-07
-2.24612e-06
2.35266e-07
-2.30588e-06
8.51927e-08
-2.25375e-06
-7.34543e-08
-2.09291e-06
-2.27764e-07
-1.83614e-06
-3.64063e-07
-1.50594e-06
-4.68297e-07
-1.13401e-06
-5.26951e-07
-7.59474e-07
-5.28717e-07
-4.25375e-07
-4.67105e-07
-1.72683e-07
-3.44003e-07
-3.08008e-08
-1.75986e-07
-1.51131e-08
-9.22218e-08
1.12169e-07
-3.56972e-07
4.4734e-07
-7.64506e-07
7.53184e-07
-1.2684e-06
9.6553e-07
-1.81457e-06
1.06452e-06
-2.34888e-06
1.05057e-06
-2.82224e-06
9.35239e-07
-3.19372e-06
7.36125e-07
-3.43237e-06
4.73916e-07
-3.51827e-06
1.71091e-07
-3.44334e-06
-1.48387e-07
-3.21204e-06
-4.59062e-07
-2.84191e-06
-7.34187e-07
-2.36365e-06
-9.46564e-07
-1.82019e-06
-1.0704e-06
-1.26441e-06
-1.08451e-06
-7.54475e-07
-9.77036e-07
-3.46949e-07
-7.51528e-07
-8.73308e-08
-4.35604e-07
-1.02444e-07
-1.45201e-07
2.5737e-07
-5.25425e-07
8.27565e-07
-1.08156e-06
1.30932e-06
-1.74739e-06
1.63136e-06
-2.45416e-06
1.77129e-06
-3.13616e-06
1.73257e-06
-3.73503e-06
1.53411e-06
-4.20261e-06
1.20371e-06
-4.50261e-06
7.73909e-07
-4.61161e-06
2.80094e-07
-4.51995e-06
-2.40048e-07
-4.23245e-06
-7.46563e-07
-3.76912e-06
-1.19752e-06
-3.16543e-06
-1.55025e-06
-2.47172e-06
-1.76411e-06
-1.75096e-06
-1.80527e-06
-1.07444e-06
-1.65355e-06
-5.15107e-07
-1.31086e-06
-1.39307e-07
-8.11404e-07
-2.4175e-07
-1.93597e-07
4.50966e-07
-6.84955e-07
1.31892e-06
-1.38553e-06
2.00989e-06
-2.2071e-06
2.45293e-06
-3.06527e-06
2.62946e-06
-3.88352e-06
2.55082e-06
-4.5962e-06
2.24679e-06
-5.15025e-06
1.75775e-06
-5.50609e-06
1.12975e-06
-5.63816e-06
4.12164e-07
-5.5354e-06
-3.42806e-07
-5.20204e-06
-1.07992e-06
-4.65859e-06
-1.74097e-06
-3.94271e-06
-2.26613e-06
-3.10952e-06
-2.59731e-06
-2.23036e-06
-2.68442e-06
-1.38956e-06
-2.49436e-06
-6.78458e-07
-2.02196e-06
-1.87756e-07
-1.30211e-06
-4.29506e-07
-2.39927e-07
6.90892e-07
-8.40302e-07
1.9193e-06
-1.68319e-06
2.85278e-06
-2.65691e-06
3.42664e-06
-3.66063e-06
3.63318e-06
-4.60751e-06
3.4977e-06
-5.42605e-06
3.06533e-06
-6.06023e-06
2.39194e-06
-6.469e-06
1.53852e-06
-6.62569e-06
5.68855e-07
-6.51797e-06
-4.50528e-07
-6.14847e-06
-1.44941e-06
-5.53625e-06
-2.3532e-06
-4.71868e-06
-3.0837e-06
-3.75327e-06
-3.56272e-06
-2.71834e-06
-3.71934e-06
-1.71145e-06
-3.50125e-06
-8.4462e-07
-2.88879e-06
-2.36167e-07
-1.91056e-06
-6.65673e-07
-2.86732e-07
9.77624e-07
-9.97043e-07
2.62961e-06
-1.982e-06
3.83774e-06
-3.10481e-06
4.54946e-06
-4.24777e-06
4.77614e-06
-5.31459e-06
4.56452e-06
-6.22985e-06
3.98059e-06
-6.93688e-06
3.09896e-06
-7.39517e-06
1.99682e-06
-7.5783e-06
7.51986e-07
-7.47285e-06
-5.5598e-07
-7.07883e-06
-1.84344e-06
-6.41163e-06
-3.02039e-06
-5.50537e-06
-3.98996e-06
-4.41689e-06
-4.6512e-06
-3.22925e-06
-4.90699e-06
-2.05288e-06
-4.67762e-06
-1.0225e-06
-3.91917e-06
-2.8827e-07
-2.64479e-06
-9.53944e-07
-3.36321e-07
1.31395e-06
-1.16034e-06
3.45362e-06
-2.28795e-06
4.96535e-06
-3.55489e-06
5.8164e-06
-4.82648e-06
6.04773e-06
-5.99889e-06
5.73693e-06
-6.99583e-06
4.97752e-06
-7.76329e-06
3.86643e-06
-8.26424e-06
2.49776e-06
-8.47436e-06
9.62112e-07
-8.37972e-06
-6.50624e-07
-7.97667e-06
-2.24649e-06
-7.27438e-06
-3.72269e-06
-6.29979e-06
-4.96455e-06
-5.10454e-06
-5.84644e-06
-3.77244e-06
-6.23909e-06
-2.42483e-06
-6.02523e-06
-1.22072e-06
-5.12328e-06
-3.47699e-07
-3.51781e-06
-1.30164e-06
-3.90951e-07
1.7049e-06
-1.33487e-06
4.39754e-06
-2.60494e-06
6.23542e-06
-4.00588e-06
7.21734e-06
-5.38673e-06
7.42857e-06
-6.63964e-06
6.98984e-06
-7.6923e-06
6.03019e-06
-8.49832e-06
4.67245e-06
-9.02826e-06
3.0277e-06
-9.26276e-06
1.19662e-06
-9.18849e-06
-7.24893e-07
-8.79734e-06
-2.63765e-06
-8.08924e-06
-4.43079e-06
-7.07891e-06
-5.97487e-06
-5.80624e-06
-7.11912e-06
-4.34898e-06
-7.69635e-06
-2.83477e-06
-7.53944e-06
-1.44707e-06
-6.51098e-06
-4.18093e-07
-4.54679e-06
-1.71973e-06
-4.53452e-07
2.15835e-06
-1.52568e-06
5.46977e-06
-2.93487e-06
7.64462e-06
-4.4501e-06
8.73257e-06
-5.90631e-06
8.88478e-06
-7.19779e-06
8.28133e-06
-8.26363e-06
7.09603e-06
-9.07204e-06
5.48085e-06
-9.60684e-06
3.56251e-06
-9.85756e-06
1.44734e-06
-9.81339e-06
-7.69064e-07
-9.46135e-06
-2.98969e-06
-8.78908e-06
-5.10305e-06
-7.79297e-06
-6.97097e-06
-6.49219e-06
-8.4199e-06
-4.94795e-06
-9.24058e-06
-3.2851e-06
-9.20229e-06
-1.70867e-06
-8.08741e-06
-5.03585e-07
-5.75187e-06
-2.22332e-06
-5.28338e-07
2.68669e-06
-1.73967e-06
6.6811e-06
-3.27799e-06
9.18294e-06
-4.87165e-06
1.03262e-05
-6.34705e-06
1.03602e-05
-7.61087e-06
9.54515e-06
-8.6244e-06
8.10957e-06
-9.37974e-06
6.23618e-06
-9.88104e-06
4.06381e-06
-1.01316e-05
1.69788e-06
-1.01258e-05
-7.74816e-07
-9.84638e-06
-3.26914e-06
-9.26603e-06
-5.68341e-06
-8.35636e-06
-7.88064e-06
-7.10471e-06
-9.67155e-06
-5.54071e-06
-1.08046e-05
-3.77071e-06
-1.09723e-05
-2.01217e-06
-9.84595e-06
-6.09689e-07
-7.15435e-06
-2.83301e-06
-6.23673e-07
3.31036e-06
-1.98741e-06
8.04483e-06
-3.63195e-06
1.08275e-05
-5.242e-06
1.19363e-05
-6.64766e-06
1.17658e-05
-7.78459e-06
1.06821e-05
-8.65115e-06
8.97613e-06
-9.27445e-06
6.85949e-06
-9.68669e-06
4.47605e-06
-9.90997e-06
1.92116e-06
-9.94738e-06
-7.37405e-07
-9.77872e-06
-3.4378e-06
-9.36101e-06
-6.10112e-06
-8.63571e-06
-8.60593e-06
-7.54646e-06
-1.07608e-05
-6.07163e-06
-1.22794e-05
-4.2743e-06
-1.27696e-05
-2.36366e-06
-1.17566e-05
-7.4478e-07
-8.77323e-06
-3.57779e-06
-7.54086e-07
4.06445e-06
-2.28438e-06
9.57513e-06
-3.98708e-06
1.25302e-05
-5.5092e-06
1.34584e-05
-6.70975e-06
1.29664e-05
-7.57874e-06
1.15511e-05
-8.17027e-06
9.56765e-06
-8.55786e-06
7.24709e-06
-8.80798e-06
4.72617e-06
-8.9653e-06
2.07849e-06
-9.04461e-06
-6.58095e-07
-9.02598e-06
-3.45644e-06
-8.8528e-06
-6.2743e-06
-8.43499e-06
-9.02374e-06
-7.66304e-06
-1.15328e-05
-6.44209e-06
-1.35004e-05
-4.75631e-06
-1.44554e-05
-2.76677e-06
-1.37461e-05
-9.22441e-07
-1.06176e-05
-4.50023e-06
-9.45218e-07
5.00967e-06
-2.64853e-06
1.12784e-05
-4.31107e-06
1.41927e-05
-5.57342e-06
1.47207e-05
-6.37085e-06
1.37638e-05
-6.78348e-06
1.19637e-05
-6.94073e-06
9.7249e-06
-6.96998e-06
7.27634e-06
-6.97304e-06
4.72923e-06
-7.01676e-06
2.12221e-06
-7.12886e-06
-5.46002e-07
-7.29399e-06
-3.2913e-06
-7.44884e-06
-6.11945e-06
-7.47806e-06
-8.99452e-06
-7.21807e-06
-1.17927e-05
-6.48285e-06
-1.42356e-05
-5.13349e-06
-1.58048e-05
-3.21501e-06
-1.56646e-05
-1.16439e-06
-1.26682e-05
-5.66462e-06
-1.23733e-06
6.24699e-06
-3.08333e-06
1.31244e-05
-4.50778e-06
1.56172e-05
-5.2346e-06
1.54476e-05
-5.35538e-06
1.38846e-05
-5.08204e-06
1.16904e-05
-4.63114e-06
9.274e-06
-4.17952e-06
6.82473e-06
-3.85463e-06
4.40434e-06
-3.7373e-06
2.00488e-06
-3.8654e-06
-4.17905e-07
-4.23289e-06
-2.92381e-06
-4.7823e-06
-5.57004e-06
-5.39126e-06
-8.38557e-06
-5.85864e-06
-1.13254e-05
-5.90668e-06
-1.41875e-05
-5.23288e-06
-1.64786e-05
-3.6663e-06
-1.72312e-05
-1.50009e-06
-1.48344e-05
-7.16471e-06
-1.67382e-06
7.92081e-06
-3.5134e-06
1.4964e-05
-4.31537e-06
1.64191e-05
-4.08899e-06
1.52212e-05
-3.19321e-06
1.29888e-05
-1.99894e-06
1.04961e-05
-7.95381e-07
8.07044e-06
2.1907e-07
5.81028e-06
9.17948e-07
3.70546e-06
1.22531e-06
1.69751e-06
1.10178e-06
-2.9437e-07
5.40797e-07
-2.36282e-06
-4.23164e-07
-4.60608e-06
-1.69276e-06
-7.11597e-06
-3.07256e-06
-9.94556e-06
-4.23093e-06
-1.30292e-05
-4.69572e-06
-1.60138e-05
-3.96722e-06
-1.79597e-05
-1.94493e-06
-1.68567e-05
-9.10964e-06
-2.2307e-06
1.01515e-05
-3.59032e-06
1.63237e-05
-3.07784e-06
1.59067e-05
-1.34398e-06
1.34873e-05
8.96894e-07
1.0748e-05
3.15479e-06
8.23819e-06
5.1379e-06
6.08733e-06
6.68844e-06
4.25973e-06
7.72557e-06
2.66834e-06
8.20628e-06
1.2168e-06
8.10362e-06
-1.9171e-07
7.39878e-06
-1.65799e-06
6.08664e-06
-3.29393e-06
4.199e-06
-5.22833e-06
1.854e-06
-7.60057e-06
-6.61822e-07
-1.05133e-05
-2.79224e-06
-1.38834e-05
-3.66212e-06
-1.70898e-05
-2.41155e-06
-1.81072e-05
-1.15212e-05
-2.57382e-06
1.27253e-05
-2.18348e-06
1.59333e-05
7.18028e-07
1.30052e-05
4.46949e-06
9.73585e-06
8.13318e-06
7.08427e-06
1.13014e-05
5.06995e-06
1.38289e-05
3.55985e-06
1.56879e-05
2.40076e-06
1.68914e-05
1.46478e-06
1.74546e-05
6.53596e-07
1.73761e-05
-1.13196e-07
1.66303e-05
-9.12137e-07
1.5167e-05
-1.83063e-06
1.29234e-05
-2.9847e-06
9.86162e-06
-4.53884e-06
6.06187e-06
-6.71359e-06
1.91228e-06
-9.73376e-06
-1.55965e-06
-1.36179e-05
-2.45835e-06
-1.72086e-05
-1.39795e-05
-7.85014e-07
1.35103e-05
4.08079e-06
1.10675e-05
1.02975e-05
6.78842e-06
1.57936e-05
4.23978e-06
2.0158e-05
2.7199e-06
2.3458e-05
1.76993e-06
2.58607e-05
1.15713e-06
2.75214e-05
7.40044e-07
2.85539e-05
4.32288e-07
2.90263e-05
1.81219e-07
2.89621e-05
-4.89798e-08
2.83386e-05
-2.88694e-07
2.70817e-05
-5.73733e-07
2.5055e-05
-9.57946e-07
2.20516e-05
-1.53551e-06
1.78154e-05
-2.47741e-06
1.21723e-05
-4.09067e-06
5.4777e-06
-6.92323e-06
-1.29174e-07
-1.16017e-05
-1.41087e-05
1.35103e-05
2.45779e-05
3.13663e-05
3.56061e-05
3.8326e-05
4.00959e-05
4.1253e-05
4.19931e-05
4.24253e-05
4.26066e-05
4.25576e-05
4.22689e-05
4.16952e-05
4.07372e-05
3.92017e-05
3.67243e-05
3.26336e-05
2.57104e-05
1.41087e-05
)
;

boundaryField
{
    movingWall
    {
        type            calculated;
        value           uniform 0;
    }
    fixedWalls
    {
        type            calculated;
        value           uniform 0;
    }
    frontAndBack
    {
        type            empty;
        value           nonuniform List<scalar> 0();
    }
}


// ************************************************************************* //
