/*--------------------------------*- C++ -*----------------------------------*\
  =========                 |
  \\      /  F ield         | OpenFOAM: The Open Source CFD Toolbox
   \\    /   O peration     | Website:  https://openfoam.org
    \\  /    A nd           | Version:  8
     \\/     M anipulation  |
\*---------------------------------------------------------------------------*/
FoamFile
{
    version     2.0;
    format      ascii;
    class       volVectorField;
    location    "0.305";
    object      U;
}
// * * * * * * * * * * * * * * * * * * * * * * * * * * * * * * * * * * * * * //

dimensions      [0 1 -1 0 0 0 0];

internalField   nonuniform List<vector> 
400
(
(0.000253384 -0.000250396 0)
(0.000141196 0.000111431 0)
(-0.0011769 0.000564559 0)
(-0.00348086 0.000884906 0)
(-0.00637699 0.00104561 0)
(-0.00946873 0.00106165 0)
(-0.012402 0.00095776 0)
(-0.0148838 0.000760369 0)
(-0.0166882 0.000494602 0)
(-0.017657 0.000184548 0)
(-0.0177008 -0.000145251 0)
(-0.0168039 -0.000468324 0)
(-0.015029 -0.00075535 0)
(-0.0125243 -0.000974186 0)
(-0.00952576 -0.00109111 0)
(-0.00635458 -0.00107393 0)
(-0.00340045 -0.000898059 0)
(-0.00108639 -0.000556357 0)
(0.000196394 -9.03699e-05 0)
(0.000267836 0.00026236 0)
(-7.74579e-05 -0.000169325 0)
(-0.00161144 0.00164473 0)
(-0.0056925 0.00361704 0)
(-0.011718 0.00503445 0)
(-0.018891 0.0057428 0)
(-0.026399 0.00575978 0)
(-0.033467 0.0051713 0)
(-0.0394243 0.00409222 0)
(-0.0437412 0.00264746 0)
(-0.0460442 0.000966879 0)
(-0.0461266 -0.000813139 0)
(-0.0439587 -0.00254687 0)
(-0.0396988 -0.00407834 0)
(-0.0337007 -0.00524474 0)
(-0.0265119 -0.00588618 0)
(-0.0188535 -0.00586448 0)
(-0.011566 -0.00509445 0)
(-0.00551302 -0.00358922 0)
(-0.00149302 -0.00155907 0)
(-4.25822e-05 0.000227426 0)
(-0.00052857 0.00109157 0)
(-0.00371116 0.00573592 0)
(-0.0105883 0.0102238 0)
(-0.0199905 0.0134068 0)
(-0.030763 0.0149453 0)
(-0.0418198 0.0148378 0)
(-0.0521169 0.0132548 0)
(-0.0607408 0.0104555 0)
(-0.0669657 0.00674157 0)
(-0.0702788 0.00243875 0)
(-0.0703968 -0.00210634 0)
(-0.0672808 -0.00652498 0)
(-0.0611491 -0.0104285 0)
(-0.0524858 -0.0134202 0)
(-0.0420349 -0.0151225 0)
(-0.0307724 -0.0152247 0)
(-0.0198281 -0.0135552 0)
(-0.0103631 -0.0101783 0)
(-0.00354835 -0.00555078 0)
(-0.000476822 -0.000948799 0)
(-0.000928166 0.00347962 0)
(-0.00569117 0.0122199 0)
(-0.015301 0.0199204 0)
(-0.0279154 0.0251962 0)
(-0.0419833 0.0275952 0)
(-0.0561762 0.0271357 0)
(-0.0692486 0.0241074 0)
(-0.0801217 0.0189527 0)
(-0.0879439 0.0121948 0)
(-0.0921143 0.00440487 0)
(-0.092299 -0.00380763 0)
(-0.088446 -0.0117957 0)
(-0.0808012 -0.0188809 0)
(-0.0699197 -0.0243747 0)
(-0.0566667 -0.0276259 0)
(-0.0421929 -0.0281001 0)
(-0.0278554 -0.0254962 0)
(-0.015093 -0.0198906 0)
(-0.00550479 -0.011927 0)
(-0.000861559 -0.0032247 0)
(-0.00127886 0.00687737 0)
(-0.00753567 0.0209524 0)
(-0.0198039 0.0325084 0)
(-0.0355333 0.0401007 0)
(-0.0527412 0.0432875 0)
(-0.0698556 0.0421901 0)
(-0.0854598 0.0372752 0)
(-0.0983564 0.0292112 0)
(-0.107615 0.0187761 0)
(-0.112584 0.00681341 0)
(-0.112893 -0.00577987 0)
(-0.10847 -0.0180534 0)
(-0.0995583 -0.0290094 0)
(-0.0867358 -0.0376303 0)
(-0.070933 -0.0429423 0)
(-0.0534282 -0.0441262 0)
(-0.0357832 -0.0406763 0)
(-0.0197344 -0.0325906 0)
(-0.00737029 -0.0205895 0)
(-0.00120362 -0.0064978 0)
(-0.00160745 0.0112149 0)
(-0.00931763 0.0318726 0)
(-0.0242083 0.0479488 0)
(-0.0430009 0.0580683 0)
(-0.0632545 0.0619332 0)
(-0.0831497 0.0598773 0)
(-0.10112 0.0526249 0)
(-0.115888 0.0411232 0)
(-0.126483 0.0264354 0)
(-0.132232 0.00969244 0)
(-0.132744 -0.00791559 0)
(-0.127918 -0.0251302 0)
(-0.117962 -0.0406221 0)
(-0.10343 -0.0530158 0)
(-0.0852657 -0.0609623 0)
(-0.0648331 -0.0632761 0)
(-0.0438838 -0.0591384 0)
(-0.0244767 -0.0483415 0)
(-0.00925395 -0.0315558 0)
(-0.00153768 -0.0107279 0)
(-0.00193997 0.016476 0)
(-0.0111208 0.0449714 0)
(-0.0286493 0.0662292 0)
(-0.050478 0.0790543 0)
(-0.0736822 0.0834409 0)
(-0.0962002 0.0800689 0)
(-0.116347 0.0700198 0)
(-0.13281 0.0545813 0)
(-0.144626 0.0351295 0)
(-0.151136 0.0130841 0)
(-0.151944 -0.0100855 0)
(-0.14691 -0.0328301 0)
(-0.136176 -0.0534959 0)
(-0.120219 -0.0703321 0)
(-0.0999291 -0.0815599 0)
(-0.0766987 -0.0855273 0)
(-0.0524383 -0.0809588 0)
(-0.0295438 -0.0672731 0)
(-0.0112832 -0.044937 0)
(-0.0019 -0.0159507 0)
(-0.00229996 0.0226936 0)
(-0.0130246 0.0602972 0)
(-0.0332498 0.0873582 0)
(-0.0580779 0.10299 0)
(-0.0840719 0.107658 0)
(-0.10895 0.102555 0)
(-0.130963 0.0892384 0)
(-0.14883 0.0694064 0)
(-0.161661 0.0447689 0)
(-0.168862 0.0170191 0)
(-0.170058 -0.0121323 0)
(-0.165066 -0.0408901 0)
(-0.153925 -0.0673096 0)
(-0.136966 -0.0892673 0)
(-0.114939 -0.104505 0)
(-0.0891732 -0.11079 0)
(-0.0616689 -0.106206 0)
(-0.0351473 -0.0895745 0)
(-0.0135854 -0.0609462 0)
(-0.00232626 -0.0222764 0)
(-0.00271158 0.0299453 0)
(-0.0151077 0.0779521 0)
(-0.0381139 0.111349 0)
(-0.0658469 0.129742 0)
(-0.0943247 0.134309 0)
(-0.121096 0.126966 0)
(-0.14444 0.109895 0)
(-0.163209 0.0852765 0)
(-0.176683 0.0551639 0)
(-0.184402 0.021486 0)
(-0.186053 -0.0138733 0)
(-0.181418 -0.048953 0)
(-0.170391 -0.0815879 0)
(-0.153077 -0.109317 0)
(-0.129968 -0.129373 0)
(-0.102184 -0.13882 0)
(-0.071688 -0.13488 0)
(-0.0414661 -0.115463 0)
(-0.0162877 -0.0798914 0)
(-0.00285463 -0.0298881 0)
(-0.00320763 0.0383576 0)
(-0.0174661 0.0980843 0)
(-0.0433407 0.138182 0)
(-0.073756 0.159037 0)
(-0.104159 0.162892 0)
(-0.132031 0.152664 0)
(-0.155824 0.131334 0)
(-0.174677 0.101634 0)
(-0.188166 0.0659541 0)
(-0.196066 0.0263886 0)
(-0.198184 -0.0151111 0)
(-0.194282 -0.0565414 0)
(-0.18408 -0.0956359 0)
(-0.167365 -0.129681 0)
(-0.144214 -0.155415 0)
(-0.115338 -0.169089 0)
(-0.082445 -0.166794 0)
(-0.0486356 -0.145117 0)
(-0.0195285 -0.102155 0)
(-0.00353353 -0.0390456 0)
(-0.00384398 0.0481266 0)
(-0.0202463 0.120888 0)
(-0.0490469 0.167744 0)
(-0.0816869 0.190357 0)
(-0.113054 0.192548 0)
(-0.140747 0.178606 0)
(-0.163623 0.152504 0)
(-0.18131 0.117587 0)
(-0.193848 0.0765314 0)
(-0.201362 0.0314933 0)
(-0.203858 -0.0156572 0)
(-0.201111 -0.0630464 0)
(-0.192649 -0.108485 0)
(-0.177858 -0.149163 0)
(-0.156224 -0.181406 0)
(-0.12778 -0.200597 0)
(-0.0936443 -0.201416 0)
(-0.0567331 -0.178567 0)
(-0.0234798 -0.128168 0)
(-0.00443553 -0.0501026 0)
(-0.00472544 0.0595692 0)
(-0.023695 0.146612 0)
(-0.0553839 0.199749 0)
(-0.089378 0.222782 0)
(-0.120124 0.221883 0)
(-0.145679 0.203179 0)
(-0.165634 0.171833 0)
(-0.180375 0.131805 0)
(-0.190585 0.0859665 0)
(-0.196867 0.0363755 0)
(-0.199506 -0.015369 0)
(-0.19834 -0.0677391 0)
(-0.192721 -0.118861 0)
(-0.181577 -0.166071 0)
(-0.163647 -0.20548 0)
(-0.137968 -0.231652 0)
(-0.104597 -0.237617 0)
(-0.065734 -0.215518 0)
(-0.0283779 -0.158363 0)
(-0.00568211 -0.0635504 0)
(-0.00605169 0.0732266 0)
(-0.0282264 0.175559 0)
(-0.0625101 0.233564 0)
(-0.0962593 0.254739 0)
(-0.12386 0.248723 0)
(-0.144402 0.224018 0)
(-0.158675 0.1871 0)
(-0.168113 0.142457 0)
(-0.174207 0.0929657 0)
(-0.178125 0.0403782 0)
(-0.180491 -0.0141971 0)
(-0.181272 -0.0698176 0)
(-0.179701 -0.125205 0)
(-0.174275 -0.178173 0)
(-0.162898 -0.224965 0)
(-0.143319 -0.25958 0)
(-0.113939 -0.273321 0)
(-0.075394 -0.25506 0)
(-0.0345566 -0.193086 0)
(-0.00748634 -0.0801026 0)
(-0.00819219 0.0900449 0)
(-0.0344834 0.208017 0)
(-0.0704138 0.267878 0)
(-0.101026 0.2836 0)
(-0.121578 0.269804 0)
(-0.133113 0.237834 0)
(-0.138169 0.195398 0)
(-0.139469 0.147228 0)
(-0.139375 0.0959064 0)
(-0.139603 0.0426187 0)
(-0.141117 -0.0122318 0)
(-0.144062 -0.0685041 0)
(-0.147675 -0.125789 0)
(-0.150175 -0.182763 0)
(-0.148725 -0.236318 0)
(-0.139647 -0.28044 0)
(-0.119097 -0.305019 0)
(-0.0849372 -0.295153 0)
(-0.0424409 -0.232373 0)
(-0.0102161 -0.100835 0)
(-0.0117676 0.111634 0)
(-0.0432604 0.243958 0)
(-0.0782989 0.30003 0)
(-0.100631 0.305087 0)
(-0.108355 0.280454 0)
(-0.105736 0.240377 0)
(-0.0975351 0.193276 0)
(-0.0877773 0.143545 0)
(-0.0795079 0.0930334 0)
(-0.0747926 0.0420942 0)
(-0.0748102 -0.00972797 0)
(-0.0798976 -0.0632088 0)
(-0.0894691 -0.118987 0)
(-0.101794 -0.176952 0)
(-0.113691 -0.235279 0)
(-0.120308 -0.288876 0)
(-0.115265 -0.32719 0)
(-0.0922677 -0.33179 0)
(-0.0523161 -0.2754 0)
(-0.0144304 -0.127346 0)
(-0.0175494 0.140658 0)
(-0.0547651 0.282144 0)
(-0.0827876 0.324715 0)
(-0.0880828 0.31247 0)
(-0.0751119 0.274452 0)
(-0.0525955 0.226766 0)
(-0.0274639 0.177285 0)
(-0.0045208 0.129132 0)
(0.013092 0.0829109 0)
(0.0234329 0.0379462 0)
(0.0253914 -0.00707295 0)
(0.0185007 -0.0537569 0)
(0.00297369 -0.103749 0)
(-0.0200022 -0.158317 0)
(-0.0476901 -0.217498 0)
(-0.074988 -0.278357 0)
(-0.0935488 -0.331787 0)
(-0.0920649 -0.357679 0)
(-0.063281 -0.319292 0)
(-0.0206337 -0.161973 0)
(-0.0254498 0.181711 0)
(-0.065775 0.31777 0)
(-0.0733341 0.33136 0)
(-0.0480789 0.295398 0)
(-0.00558111 0.244209 0)
(0.0412147 0.192377 0)
(0.0846483 0.145045 0)
(0.120531 0.10297 0)
(0.146696 0.0651366 0)
(0.162041 0.0298909 0)
(0.165935 -0.00467124 0)
(0.157929 -0.0406274 0)
(0.137726 -0.0802448 0)
(0.105435 -0.125916 0)
(0.062258 -0.179724 0)
(0.0118026 -0.242018 0)
(-0.037832 -0.307875 0)
(-0.0716806 -0.360141 0)
(-0.070056 -0.356607 0)
(-0.0279123 -0.208375 0)
(-0.029649 0.239176 0)
(-0.0608415 0.335767 0)
(-0.0219431 0.300502 0)
(0.0505405 0.240126 0)
(0.12757 0.182947 0)
(0.197004 0.135388 0)
(0.254333 0.0973976 0)
(0.298246 0.0668499 0)
(0.328819 0.0413546 0)
(0.346461 0.0187783 0)
(0.35137 -0.00279398 0)
(0.343297 -0.0252646 0)
(0.321464 -0.0507868 0)
(0.284638 -0.0820469 0)
(0.231568 -0.122445 0)
(0.162178 -0.175668 0)
(0.0798987 -0.24343 0)
(-0.00319092 -0.319135 0)
(-0.05467 -0.368612 0)
(-0.0284594 -0.267618 0)
(0.00808312 0.281861 0)
(0.019783 0.294972 0)
(0.139066 0.210972 0)
(0.264459 0.143476 0)
(0.364366 0.0971854 0)
(0.440362 0.0657768 0)
(0.49674 0.0442369 0)
(0.53687 0.0288855 0)
(0.563443 0.0171986 0)
(0.578301 0.00748468 0)
(0.582376 -0.00149404 0)
(0.575691 -0.010845 0)
(0.557305 -0.0218467 0)
(0.525132 -0.0363344 0)
(0.475774 -0.057259 0)
(0.404535 -0.0893835 0)
(0.305175 -0.139741 0)
(0.173416 -0.216386 0)
(0.0411718 -0.311655 0)
(0.0184302 -0.299995 0)
(0.299604 0.146091 0)
(0.396272 0.127503 0)
(0.55742 0.0760895 0)
(0.674487 0.0437232 0)
(0.743888 0.025572 0)
(0.787152 0.0152421 0)
(0.815484 0.00921223 0)
(0.833954 0.00550933 0)
(0.845383 0.00302713 0)
(0.85137 0.00114933 0)
(0.852664 -0.00049936 0)
(0.849381 -0.00221501 0)
(0.840998 -0.00433848 0)
(0.826139 -0.00742398 0)
(0.802077 -0.0125321 0)
(0.76362 -0.0217727 0)
(0.699108 -0.0392828 0)
(0.583952 -0.0726601 0)
(0.415827 -0.127868 0)
(0.308819 -0.149468 0)
)
;

boundaryField
{
    movingWall
    {
        type            fixedValue;
        value           uniform (1 0 0);
    }
    fixedWalls
    {
        type            noSlip;
    }
    frontAndBack
    {
        type            empty;
    }
}


// ************************************************************************* //
