/*--------------------------------*- C++ -*----------------------------------*\
  =========                 |
  \\      /  F ield         | OpenFOAM: The Open Source CFD Toolbox
   \\    /   O peration     | Website:  https://openfoam.org
    \\  /    A nd           | Version:  8
     \\/     M anipulation  |
\*---------------------------------------------------------------------------*/
FoamFile
{
    version     2.0;
    format      ascii;
    class       volVectorField;
    location    "50";
    object      U;
}
// * * * * * * * * * * * * * * * * * * * * * * * * * * * * * * * * * * * * * //

dimensions      [0 1 -1 0 0 0 0];

internalField   nonuniform List<vector> 
464
(
(-0.000165496 0.000164062 0)
(-0.000539967 0.00018021 0)
(-0.000929976 0.000174385 0)
(-0.00129018 0.00016469 0)
(-0.00163162 0.000151167 0)
(-0.00194465 0.000133016 0)
(-0.00221122 0.000109993 0)
(-0.00246475 7.9676e-05 0)
(-0.00260723 4.44023e-05 0)
(-0.00282386 -5.00107e-06 0)
(-0.00276362 -4.62526e-05 0)
(-0.00304124 4.57703e-06 0)
(-0.000188068 0.000541474 0)
(-0.000611183 0.000592405 0)
(-0.00105077 0.000573732 0)
(-0.00145747 0.000543522 0)
(-0.00184366 0.000503794 0)
(-0.00219846 0.000455623 0)
(-0.00250431 0.000403075 0)
(-0.00279343 0.000339362 0)
(-0.00296936 0.000292471 0)
(-0.00321755 0.000204129 0)
(-0.00320151 0.000216428 0)
(-0.0035112 6.81623e-05 0)
(-0.000194929 0.000954906 0)
(-0.000633745 0.00104268 0)
(-0.00108949 0.00100923 0)
(-0.00150987 0.000954797 0)
(-0.00190685 0.000881669 0)
(-0.002266 0.000789282 0)
(-0.00257604 0.000681184 0)
(-0.00284766 0.000549695 0)
(-0.00302904 0.000425782 0)
(-0.00320378 0.000252078 0)
(-0.00320843 0.000180173 0)
(-0.00325534 -4.18636e-05 0)
(-0.00020463 0.00137231 0)
(-0.000665883 0.00149846 0)
(-0.00114601 0.00145045 0)
(-0.001591 0.00137264 0)
(-0.0020165 0.0012697 0)
(-0.00240743 0.00114359 0)
(-0.0027534 0.000997772 0)
(-0.00305892 0.000829001 0)
(-0.00327753 0.000653686 0)
(-0.00347388 0.000434183 0)
(-0.00350501 0.000255542 0)
(-0.00353428 -4.05517e-05 0)
(-0.000217515 0.00182059 0)
(-0.000708528 0.00198811 0)
(-0.0012197 0.00192469 0)
(-0.00169083 0.00182144 0)
(-0.00213607 0.00168171 0)
(-0.00253804 0.00150551 0)
(-0.00289071 0.00129612 0)
(-0.00319166 0.00105173 0)
(-0.00342389 0.000786516 0)
(-0.00360187 0.000472906 0)
(-0.00368319 0.000182512 0)
(-0.00371279 -0.000205192 0)
(-0.000234376 0.00229232 0)
(-0.000764441 0.00250589 0)
(-0.00131826 0.002428 0)
(-0.00183409 0.00230345 0)
(-0.00233255 0.00213802 0)
(-0.00279326 0.00193358 0)
(-0.00320762 0.00169247 0)
(-0.00356903 0.00141373 0)
(-0.00385711 0.00110326 0)
(-0.00407827 0.000751005 0)
(-0.00418353 0.000379875 0)
(-0.00419403 -6.09665e-05 0)
(-0.000253291 0.00282158 0)
(-0.000828826 0.00308292 0)
(-0.00142895 0.0029837 0)
(-0.00198079 0.00281997 0)
(-0.00250572 0.00260378 0)
(-0.00298318 0.0023326 0)
(-0.00340991 0.00201297 0)
(-0.00377997 0.001642 0)
(-0.00408569 0.00122512 0)
(-0.00432429 0.000754359 0)
(-0.00449474 0.00024795 0)
(-0.00458613 -0.000333064 0)
(-0.000280831 0.00336959 0)
(-0.000918114 0.00370049 0)
(-0.00158957 0.00358644 0)
(-0.00221434 0.00342912 0)
(-0.00282032 0.00319496 0)
(-0.00338482 0.00291072 0)
(-0.00389935 0.00256897 0)
(-0.00435836 0.00217406 0)
(-0.00474646 0.0017306 0)
(-0.00505677 0.00123093 0)
(-0.00527172 0.000700026 0)
(-0.0053447 6.14804e-05 0)
(-0.00029132 0.0039802 0)
(-0.000990015 0.0043461 0)
(-0.00170947 0.00421517 0)
(-0.00237186 0.00397191 0)
(-0.00302333 0.0036851 0)
(-0.00360799 0.00330958 0)
(-0.0041448 0.0028836 0)
(-0.00461613 0.0023823 0)
(-0.00502628 0.0018215 0)
(-0.00535263 0.00117851 0)
(-0.005662 0.000493001 0)
(-0.0058181 -0.000352769 0)
(-0.000360496 0.00473638 0)
(-0.00113939 0.00525167 0)
(-0.00197577 0.00504663 0)
(-0.00274563 0.00489955 0)
(-0.0034839 0.00453443 0)
(-0.00418853 0.00418216 0)
(-0.00482936 0.00371245 0)
(-0.00542421 0.00319026 0)
(-0.00595422 0.00261846 0)
(-0.00638932 0.00194348 0)
(-0.00680467 0.00132083 0)
(-0.00697302 0.000395638 0)
(-0.000291901 0.00532583 0)
(-0.00120729 0.00578358 0)
(-0.00207129 0.00567237 0)
(-0.00288214 0.0052783 0)
(-0.00373839 0.00497183 0)
(-0.00442706 0.00445307 0)
(-0.00513264 0.00395741 0)
(-0.00570539 0.00331532 0)
(-0.00626718 0.00265757 0)
(-0.00664561 0.001823 0)
(-0.00720274 0.00104441 0)
(-0.00735563 -0.000114127 0)
(-0.000528782 0.00643314 0)
(-0.00143051 0.00731513 0)
(-0.00249979 0.00688139 0)
(-0.00345018 0.00688724 0)
(-0.004312 0.00623476 0)
(-0.00520836 0.00587479 0)
(-0.00597221 0.00517874 0)
(-0.00673231 0.00452546 0)
(-0.00745428 0.00383036 0)
(-0.00801311 0.00295017 0)
(-0.00874595 0.00233847 0)
(-0.00904124 0.00108784 0)
(-0.000103948 0.0070155 0)
(-0.00146981 0.00740835 0)
(-0.00250207 0.00744955 0)
(-0.00352276 0.00671253 0)
(-0.00474583 0.00649988 0)
(-0.00547707 0.00575207 0)
(-0.0064746 0.0052714 0)
(-0.00704546 0.00445044 0)
(-0.007831 0.00379994 0)
(-0.00812931 0.00275206 0)
(-0.00904851 0.00205211 0)
(-0.00904692 0.000530157 0)
(-0.00103364 0.00832403 0)
(-0.00188919 0.0101898 0)
(-0.0032305 0.0091769 0)
(-0.00440987 0.00967658 0)
(-0.00527566 0.00840302 0)
(-0.00644849 0.00810757 0)
(-0.00728051 0.00698755 0)
(-0.00821953 0.00619684 0)
(-0.00916423 0.00532913 0)
(-0.00978326 0.00425005 0)
(-0.0109783 0.00374454 0)
(-0.0112844 0.00226003 0)
(0.000897372 0.00954838 0)
(-0.00151142 0.00905929 0)
(-0.0029905 0.00962244 0)
(-0.00428186 0.00815154 0)
(-0.00631262 0.00821524 0)
(-0.00688108 0.00717795 0)
(-0.00837614 0.00678233 0)
(-0.00869005 0.00577681 0)
(-0.00976013 0.00522627 0)
(-0.00970172 0.00398304 0)
(-0.0110143 0.00357512 0)
(-0.010514 0.00177341 0)
(-0.00287987 0.00936017 0)
(-0.00304451 0.0147795 0)
(-0.00414085 0.0122628 0)
(-0.00582804 0.0138545 0)
(-0.00624117 0.01128 0)
(-0.00790797 0.0109512 0)
(-0.00868872 0.00909776 0)
(-0.00980211 0.00805229 0)
(-0.0109702 0.00691088 0)
(-0.01147 0.00561559 0)
(-0.0132071 0.00525099 0)
(-0.0131984 0.00369305 0)
(0.0034835 0.0150358 0)
(-0.00038811 0.00955431 0)
(-0.00455101 0.0119461 0)
(-0.00546588 0.00935116 0)
(-0.00934727 0.00982971 0)
(-0.00905486 0.00877725 0)
(-0.0112693 0.00834567 0)
(-0.0108427 0.00725086 0)
(-0.0121711 0.00676472 0)
(-0.0113439 0.00538581 0)
(-0.0129278 0.0053786 0)
(-0.0112741 0.00354938 0)
(0.00286344 0.00646149 0)
(-0.00122759 0.0238384 0)
(0.00170228 0.0177004 0)
(-0.00530551 0.0199595 0)
(-0.00532001 0.0152265 0)
(-0.00870692 0.0140139 0)
(-0.00992104 0.0112651 0)
(-0.0113241 0.00959629 0)
(-0.012842 0.00815148 0)
(-0.0129234 0.00651115 0)
(-0.0150846 0.00605876 0)
(-0.0142095 0.00456552 0)
(-0.0350428 0.0137667 0)
(-0.0192334 0.00973371 0)
(-0.0373794 0.0152757 0)
(-0.0252415 0.0151016 0)
(-0.0301742 0.0124707 0)
(-0.0226157 0.0122397 0)
(-0.0228077 0.0105286 0)
(-0.0181088 0.00910226 0)
(-0.01734 0.00826086 0)
(-0.0132638 0.00656175 0)
(-0.013606 0.00681034 0)
(-0.00856855 0.00507138 0)
(0.0285508 0.0585961 0)
(0.0458054 0.0286075 0)
(0.0645829 0.023343 0)
(0.084219 0.0150608 0)
(0.095174 0.0125695 0)
(0.10839 0.00819897 0)
(0.11472 0.00702036 0)
(0.126962 0.00473494 0)
(0.126744 0.00413116 0)
(0.140972 0.00282249 0)
(0.133941 0.0021717 0)
(0.151943 0.00171169 0)
(-0.00276864 0.00158969 0)
(-0.00195646 0.00086988 0)
(-0.00172452 0.000171957 0)
(-0.00135077 -0.00022335 0)
(-0.00109348 -0.00055746 0)
(-0.00077263 -0.000776819 0)
(-0.000460247 -0.00092308 0)
(-0.000139313 -0.000899159 0)
(-0.00309377 0.000420161 0)
(-0.00220864 1.95025e-05 0)
(-0.00194796 -0.000274821 0)
(-0.00152398 -0.000623591 0)
(-0.00123414 -0.000890315 0)
(-0.000876978 -0.00111799 0)
(-0.000521993 -0.00126123 0)
(-0.000159185 -0.00121187 0)
(-0.00305039 0.000173966 0)
(-0.00265093 -0.000262333 0)
(-0.00236708 -0.000565265 0)
(-0.0019657 -0.000958793 0)
(-0.00158751 -0.00126318 0)
(-0.00114771 -0.00152905 0)
(-0.000680388 -0.00169625 0)
(-0.000211722 -0.00162442 0)
(-0.00332212 -0.00020027 0)
(-0.00294561 -0.000604487 0)
(-0.00264501 -0.000933205 0)
(-0.00222173 -0.0013332 0)
(-0.00180547 -0.00165517 0)
(-0.00131686 -0.00195641 0)
(-0.00078308 -0.00214018 0)
(-0.000246512 -0.00204074 0)
(-0.00361375 -0.00047686 0)
(-0.00338334 -0.000962118 0)
(-0.00309597 -0.00137452 0)
(-0.00268703 -0.00185905 0)
(-0.0022105 -0.00225434 0)
(-0.0016406 -0.00263011 0)
(-0.000977976 -0.00285681 0)
(-0.000317373 -0.00273095 0)
(-0.0040792 -0.000494104 0)
(-0.00384312 -0.00104653 0)
(-0.00354256 -0.00153431 0)
(-0.00310238 -0.00214178 0)
(-0.00257766 -0.00257791 0)
(-0.00193146 -0.00309854 0)
(-0.001158 -0.00334867 0)
(-0.000383416 -0.00323394 0)
(-0.00459869 -0.000901783 0)
(-0.00442275 -0.00158921 0)
(-0.00418941 -0.00221245 0)
(-0.00372999 -0.00297257 0)
(-0.00316555 -0.00353402 0)
(-0.00242497 -0.00420943 0)
(-0.00145063 -0.00453654 0)
(-0.000525818 -0.00441233 0)
(-0.00533602 -0.00053279 0)
(-0.0051566 -0.0014027 0)
(-0.00492626 -0.00201627 0)
(-0.00442878 -0.00308419 0)
(-0.00381542 -0.00363893 0)
(-0.0029577 -0.00469583 0)
(-0.0017952 -0.00502577 0)
(-0.00067416 -0.00504987 0)
(-0.00605867 -0.00113136 0)
(-0.00590588 -0.00220347 0)
(-0.00586247 -0.00303495 0)
(-0.00535347 -0.00435972 0)
(-0.00476787 -0.00514296 0)
(-0.00383673 -0.0065236 0)
(-0.00232368 -0.00701209 0)
(-0.00104424 -0.00712617 0)
(-0.00718681 -0.000217638 0)
(-0.00707056 -0.00157561 0)
(-0.00707948 -0.00220271 0)
(-0.00655487 -0.00410024 0)
(-0.00597416 -0.00472254 0)
(-0.00488358 -0.00698912 0)
(-0.00308369 -0.00742141 0)
(-0.00144497 -0.0081678 0)
(-0.00801564 -0.00101176 0)
(-0.00789279 -0.00265714 0)
(-0.00835659 -0.00362109 0)
(-0.00788318 -0.00594184 0)
(-0.00761183 -0.00696807 0)
(-0.00659798 -0.00993565 0)
(-0.00430513 -0.0107161 0)
(-0.00256446 -0.0120774 0)
(-0.00972878 0.000644051 0)
(-0.00970786 -0.00128199 0)
(-0.0103504 -0.00164054 0)
(-0.00995855 -0.00480084 0)
(-0.00992446 -0.00527504 0)
(-0.00881411 -0.0101297 0)
(-0.00632705 -0.0107384 0)
(-0.00397413 -0.0146652 0)
(-0.0103481 -0.000161245 0)
(-0.0101794 -0.00257614 0)
(-0.0117816 -0.00332664 0)
(-0.0115527 -0.0071579 0)
(-0.0127417 -0.00820762 0)
(-0.0123019 -0.014463 0)
(-0.00999118 -0.0158446 0)
(-0.00809491 -0.0231401 0)
(-0.0128438 0.00226328 0)
(-0.0129322 -3.11644e-05 0)
(-0.0149185 0.000511697 0)
(-0.0149714 -0.00391991 0)
(-0.0170572 -0.00335062 0)
(-0.0171201 -0.0127992 0)
(-0.0161809 -0.0135599 0)
(-0.0147325 -0.0321837 0)
(-0.0125745 0.00172316 0)
(-0.0118915 -0.00124222 0)
(-0.0154436 -0.000846103 0)
(-0.0153966 -0.00625068 0)
(-0.0209325 -0.00581683 0)
(-0.0231641 -0.0170213 0)
(-0.0271003 -0.0180848 0)
(-0.0278776 -0.0554398 0)
(-0.0159184 0.00445899 0)
(-0.0156129 0.00237729 0)
(-0.0200709 0.00500477 0)
(-0.0200493 0.00106785 0)
(-0.0276296 0.00592202 0)
(-0.0285831 -0.00718359 0)
(-0.0378803 -0.00632698 0)
(-0.0268492 -0.0867062 0)
(-0.0138957 0.0044266 0)
(-0.0111447 0.00181597 0)
(-0.0164965 0.00416505 0)
(-0.0133389 -0.000295117 0)
(-0.0260524 0.00400801 0)
(-0.023773 -0.00993196 0)
(-0.0428654 -0.0183234 0)
(-0.000723818 -0.1247 0)
(-0.0177744 0.00539562 0)
(-0.0160276 0.00460448 0)
(-0.0227094 0.00882667 0)
(-0.0192838 0.00959137 0)
(-0.0325671 0.01934 0)
(-0.0185226 0.00733259 0)
(-0.0402507 -0.0245354 0)
(0.0293695 -0.127483 0)
(-0.0107079 0.00658289 0)
(-0.00215629 0.00527781 0)
(-0.00762475 0.00790245 0)
(0.0117148 0.00726555 0)
(0.00100824 0.00386832 0)
(0.0400521 -0.00530889 0)
(0.0180783 -0.0669085 0)
(0.0435668 -0.142869 0)
(0.138359 -0.000277864 0)
(0.160353 0.00162739 0)
(0.142762 -0.00409432 0)
(0.166243 0.000998937 0)
(0.147976 -0.00683704 0)
(0.163702 -0.0108169 0)
(0.129165 -0.0199871 0)
(0.0815038 -0.0580932 0)
(-1.8624e-05 -2.15801e-05 0)
(-5.78464e-05 -2.42975e-05 0)
(-8.71632e-05 -2.6901e-05 0)
(-0.000100483 -3.02426e-05 0)
(-9.8141e-05 -3.21448e-05 0)
(-8.0763e-05 -3.38279e-05 0)
(-5.1243e-05 -3.47064e-05 0)
(-1.60791e-05 -3.24243e-05 0)
(-2.22216e-05 9.93403e-05 0)
(-6.79096e-05 9.51387e-05 0)
(-0.000101802 7.00177e-05 0)
(-0.000115751 4.24717e-05 0)
(-0.000111505 1.24691e-05 0)
(-9.14654e-05 -1.15972e-05 0)
(-5.78108e-05 -2.9624e-05 0)
(-1.82088e-05 -3.35891e-05 0)
(-3.39573e-05 6.3413e-05 0)
(-0.000102576 5.16194e-05 0)
(-0.000149079 1.70944e-05 0)
(-0.000168338 -2.17546e-05 0)
(-0.000162251 -5.92475e-05 0)
(-0.000131274 -9.00112e-05 0)
(-8.27992e-05 -0.000112059 0)
(-2.58937e-05 -0.000111447 0)
(-4.1613e-05 0.000244288 0)
(-0.00012223 0.00021992 0)
(-0.000175798 0.000140384 0)
(-0.000192499 6.00801e-05 0)
(-0.000180177 -2.20396e-05 0)
(-0.000144973 -8.4565e-05 0)
(-9.04925e-05 -0.000130199 0)
(-2.83387e-05 -0.000136032 0)
(-8.17566e-05 0.000212981 0)
(-0.000230642 0.000174523 0)
(-0.000309658 7.7557e-05 0)
(-0.000330693 -2.08419e-05 0)
(-0.000306796 -0.000114047 0)
(-0.000239823 -0.000186963 0)
(-0.000149013 -0.000238802 0)
(-4.60227e-05 -0.000238586 0)
(-0.000102662 0.000577086 0)
(-0.000281025 0.000469425 0)
(-0.000372168 0.00024981 0)
(-0.000384314 6.55786e-05 0)
(-0.000346584 -0.000107031 0)
(-0.000270749 -0.000228269 0)
(-0.000166532 -0.000313622 0)
(-5.1632e-05 -0.000318118 0)
(-0.000246755 0.000566271 0)
(-0.000616078 0.000419089 0)
(-0.000714998 0.000161854 0)
(-0.000686946 -4.96362e-05 0)
(-0.000600158 -0.000243088 0)
(-0.000447127 -0.00038091 0)
(-0.000272221 -0.000476979 0)
(-8.29003e-05 -0.000472269 0)
(-0.000342452 0.00148948 0)
(-0.000747612 0.000978318 0)
(-0.000845221 0.000333623 0)
(-0.000790127 -3.48319e-05 0)
(-0.000678782 -0.000335301 0)
(-0.0005069 -0.000529911 0)
(-0.000306754 -0.000659479 0)
(-9.38733e-05 -0.000650427 0)
)
;

boundaryField
{
    movingWall
    {
        type            fixedValue;
        value           uniform (1 0 0);
    }
    fixedWalls
    {
        type            noSlip;
    }
    frontAndBack
    {
        type            empty;
    }
}


// ************************************************************************* //
