/*--------------------------------*- C++ -*----------------------------------*\
  =========                 |
  \\      /  F ield         | OpenFOAM: The Open Source CFD Toolbox
   \\    /   O peration     | Website:  https://openfoam.org
    \\  /    A nd           | Version:  8
     \\/     M anipulation  |
\*---------------------------------------------------------------------------*/
FoamFile
{
    version     2.0;
    format      ascii;
    class       surfaceScalarField;
    location    "25";
    object      phi;
}
// * * * * * * * * * * * * * * * * * * * * * * * * * * * * * * * * * * * * * //

dimensions      [0 3 -1 0 0 0 0];

internalField   nonuniform List<scalar> 
34404
(
0.0053426
-9.26626e-06
5.40708e-09
0.00537031
-2.76999e-05
-8.66093e-09
0.00541571
-4.53892e-05
-1.22789e-08
0.00547742
-6.17102e-05
-6.31274e-09
0.00555359
-7.61619e-05
-2.85738e-09
0.00564192
-8.83323e-05
-2.38459e-09
0.00573985
-9.79243e-05
-1.25066e-09
0.00584463
-0.000104781
3.4925e-10
0.00595353
-0.000108902
2.66756e-09
0.00606397
-0.000110445
4.51155e-09
0.00617366
-0.0001097
5.79086e-09
0.00628072
-0.00010706
6.38895e-09
0.00638367
-0.000102957
6.28743e-09
0.00648148
-9.7815e-05
5.64681e-09
0.00657348
-9.2004e-05
4.7148e-09
0.00665929
-8.58171e-05
3.76648e-09
0.00673876
-7.94715e-05
2.93735e-09
0.00681188
-7.312e-05
2.2983e-09
0.00687874
-6.68677e-05
1.78523e-09
0.00693952
-6.07829e-05
1.41612e-09
0.00699443
-5.49094e-05
1.10351e-09
0.0070437
-4.92701e-05
9.16853e-10
0.00708758
-4.38779e-05
7.30593e-10
0.00712631
-3.8735e-05
6.69821e-10
0.00716015
-3.38428e-05
5.29758e-10
0.00718935
-2.91952e-05
5.41396e-10
0.00721414
-2.47903e-05
3.8895e-10
0.00723476
-2.06185e-05
4.79888e-10
0.00725143
-1.66783e-05
2.73407e-10
0.00726439
-1.29581e-05
4.62496e-10
0.00727385
-9.45943e-06
1.46467e-10
0.00728002
-6.16812e-06
4.9417e-10
0.00728311
-3.0903e-06
-3.72058e-11
0.00728332
-2.06938e-07
5.52741e-10
0.00728085
2.46398e-06
-2.96977e-10
0.0072759
4.95003e-06
8.30158e-10
0.00726867
7.23143e-06
-6.52561e-10
0.00725933
9.33796e-06
1.28115e-09
0.00724809
1.124e-05
-1.30969e-09
0.00723511
1.29793e-05
2.06649e-09
0.0072206
1.45124e-05
-2.45016e-09
0.0072047
1.58976e-05
3.47985e-09
0.00718763
1.70734e-05
-4.42732e-09
0.00716951
1.81185e-05
5.98745e-09
0.00715056
1.89502e-05
-7.80741e-09
0.00713089
1.96691e-05
1.0268e-08
0.00711072
2.01743e-05
-1.30494e-08
0.00709013
2.05766e-05
1.63577e-08
0.00706937
2.07823e-05
-1.83277e-08
2.08497e-05
1.4497e-08
0.00534282
-1.87534e-05
5.12113e-09
0.00537113
-5.60079e-05
-9.03866e-09
0.00541753
-9.17766e-05
-1.23802e-08
0.00548062
-0.000124784
-6.45471e-09
0.00555844
-0.000153984
-3.17933e-09
0.00564865
-0.000178537
-2.57324e-09
0.00574857
-0.00019784
-1.28421e-09
0.00585535
-0.00021157
4.40443e-10
0.00596618
-0.00021973
2.91813e-09
0.00607837
-0.000222643
4.86032e-09
0.00618959
-0.000220922
6.17555e-09
0.0062979
-0.000215377
6.73079e-09
0.00640184
-0.00020691
6.52498e-09
0.00650042
-0.000196393
5.76614e-09
0.00659299
-0.000184579
4.75113e-09
0.00667922
-0.000172054
3.77676e-09
0.006759
-0.00015925
2.96585e-09
0.00683234
-0.000146464
2.36249e-09
0.00689937
-0.000133899
1.88276e-09
0.00696027
-0.000121688
1.53877e-09
0.00701527
-0.000109911
1.24313e-09
0.00706461
-9.86121e-05
1.06842e-09
0.00710855
-8.78128e-05
8.91054e-10
0.00714733
-7.75161e-05
8.34192e-10
0.00718121
-6.7723e-05
6.91752e-10
0.00721043
-5.84211e-05
6.98402e-10
0.00723524
-4.96052e-05
5.43564e-10
0.00725588
-4.12563e-05
6.26257e-10
0.00727257
-3.33706e-05
4.12624e-10
0.00728554
-2.59258e-05
5.92723e-10
0.007295
-1.8923e-05
2.7284e-10
0.00730117
-1.23367e-05
6.0165e-10
0.00730426
-6.17535e-06
4.6275e-11
0.00730445
-4.0392e-07
6.06403e-10
0.00730198
4.94286e-06
-2.21623e-10
0.00729701
9.91682e-06
9.02159e-10
0.00728975
1.44874e-05
-5.5529e-10
0.00728039
1.86996e-05
1.34137e-09
0.00726912
2.25135e-05
-1.21161e-09
0.00725611
2.59869e-05
2.0996e-09
0.00724155
2.90673e-05
-2.34073e-09
0.00722562
3.18254e-05
3.46626e-09
0.0072085
3.41984e-05
-4.29183e-09
0.00719035
3.62646e-05
5.89878e-09
0.00717135
3.79626e-05
-7.60678e-09
0.00715165
3.9358e-05
1.00621e-08
0.00713141
4.04241e-05
-1.2749e-08
0.00711081
4.11598e-05
1.60191e-08
0.00708996
4.16537e-05
-1.79608e-08
4.17147e-05
1.42397e-08
0.00534324
-2.86622e-05
5.19419e-09
0.00537283
-8.55931e-05
-9.60883e-09
0.00542132
-0.000140245
-1.29812e-08
0.0054872
-0.000190658
-6.8441e-09
0.00556842
-0.000235205
-3.45531e-09
0.00566246
-0.000272579
-2.70545e-09
0.00576646
-0.000301836
-1.12892e-09
0.00587736
-0.00032247
9.45053e-10
0.00599212
-0.000334488
3.73778e-09
0.00610788
-0.000338411
5.94681e-09
0.00622217
-0.000335222
7.3588e-09
0.00633301
-0.000326226
7.79655e-09
0.00643895
-0.000312861
7.29903e-09
0.00653905
-0.000296496
6.19333e-09
0.00663276
-0.000278292
4.89951e-09
0.00671983
-0.000259132
3.77926e-09
0.00680023
-0.000239647
2.93553e-09
0.00687403
-0.000220264
2.35323e-09
0.0069414
-0.000201273
1.89858e-09
0.00700256
-0.000182853
1.5743e-09
0.00705777
-0.000165117
1.29475e-09
0.00710727
-0.000148118
1.14198e-09
0.00715134
-0.000131882
9.79633e-10
0.00719023
-0.000116409
9.34301e-10
0.0072242
-0.000101698
7.92116e-10
0.00725351
-8.77264e-05
8.04415e-10
0.00727839
-7.44863e-05
6.43182e-10
0.00729908
-6.19482e-05
7.24859e-10
0.00731582
-5.01055e-05
4.98771e-10
0.00732881
-3.89246e-05
6.84133e-10
0.0073383
-2.84069e-05
3.4596e-10
0.00734447
-1.8514e-05
6.75586e-10
0.00734756
-9.25838e-06
8.74833e-11
0.00734774
-5.86122e-07
6.476e-10
0.00734524
7.44527e-06
-1.97797e-10
0.00734023
1.49183e-05
9.69159e-10
0.00733293
2.17869e-05
-5.16449e-10
0.00732352
2.81157e-05
1.41475e-09
0.00731218
3.38483e-05
-1.18621e-09
0.0072991
3.90662e-05
2.1712e-09
0.00728447
4.36979e-05
-2.33155e-09
0.00726846
4.7839e-05
3.53501e-09
0.00725125
5.14097e-05
-4.30012e-09
0.007233
5.45078e-05
5.96044e-09
0.0072139
5.70669e-05
-7.61251e-09
0.0071941
5.91531e-05
1.00941e-08
0.00717377
6.07662e-05
-1.27604e-08
0.00715305
6.18605e-05
1.59906e-08
0.00713211
6.26142e-05
-1.78752e-08
6.27069e-05
1.42058e-08
0.0053439
-3.92302e-05
5.44401e-09
0.00537546
-0.000117149
-1.04481e-08
0.00542717
-0.000191932
-1.40675e-08
0.00549739
-0.000260873
-7.52661e-09
0.00558389
-0.000321704
-3.84748e-09
0.0056839
-0.000372587
-2.88077e-09
0.00579425
-0.000412184
-9.45868e-10
0.00591155
-0.00043977
1.7604e-09
0.00603241
-0.000455356
5.13783e-09
0.0061537
-0.000459708
7.81461e-09
0.00627274
-0.000454269
9.38562e-09
0.00638746
-0.000440954
9.59263e-09
0.00649644
-0.000421853
8.56139e-09
0.00659885
-0.000398913
6.84304e-09
0.00669429
-0.000373737
5.07597e-09
0.00678265
-0.000347499
3.72684e-09
0.00686401
-0.000321007
2.84531e-09
0.00693854
-0.000294793
2.3016e-09
0.00700647
-0.000269206
1.88195e-09
0.00706808
-0.000244462
1.5847e-09
0.00712364
-0.000220684
1.32966e-09
0.00717345
-0.000197925
1.21167e-09
0.00721777
-0.000176208
1.07204e-09
0.00725689
-0.000155524
1.04492e-09
0.00729105
-0.000135864
9.00676e-10
0.00732052
-0.000117198
9.20066e-10
0.00734555
-9.95101e-05
7.46621e-10
0.00736636
-8.27598e-05
8.34034e-10
0.00738319
-6.69384e-05
5.89314e-10
0.00739626
-5.19994e-05
7.85265e-10
0.0074058
-3.79455e-05
4.13424e-10
0.00741201
-2.47239e-05
7.55914e-10
0.00741511
-1.23531e-05
1.17803e-10
0.00741528
-7.56212e-07
7.01123e-10
0.00741274
9.97816e-06
-1.91401e-10
0.00740769
1.99719e-05
1.05282e-09
0.00740032
2.91564e-05
-5.04371e-10
0.00739081
3.76224e-05
1.51784e-09
0.00737937
4.52885e-05
-1.20509e-09
0.00736617
5.22702e-05
2.28805e-09
0.0073514
5.84636e-05
-2.38817e-09
0.00733523
6.40059e-05
3.68144e-09
0.00731787
6.8779e-05
-4.39659e-09
0.00729944
7.29267e-05
6.14259e-09
0.00728017
7.63451e-05
-7.76291e-09
0.00726017
7.91406e-05
1.03015e-08
0.00723966
8.12921e-05
-1.29384e-08
0.00721874
8.2766e-05
1.61748e-08
0.0071976
8.37677e-05
-1.79738e-08
8.39158e-05
1.42154e-08
0.00534482
-5.0716e-05
5.76965e-09
0.00537912
-0.000151442
-1.16558e-08
0.0054353
-0.000248099
-1.57129e-08
0.00551159
-0.000337147
-8.6423e-09
0.00560547
-0.000415586
-4.57087e-09
0.00571385
-0.000480965
-3.26659e-09
0.00583313
-0.000531458
-8.06832e-10
0.00595942
-0.000566064
2.94196e-09
0.00608885
-0.000584796
7.30017e-09
0.00621786
-0.000588725
1.07554e-08
0.00634347
-0.000579894
1.25612e-08
0.00646352
-0.000561011
1.23314e-08
0.00657664
-0.000534989
1.03931e-08
0.00668219
-0.000504472
7.70298e-09
0.00677999
-0.000471542
5.25199e-09
0.00687014
-0.000437647
3.63911e-09
0.00695285
-0.000403728
2.77523e-09
0.00702844
-0.00037038
2.31769e-09
0.00709722
-0.000337987
1.94485e-09
0.00715952
-0.000306769
1.67769e-09
0.00721568
-0.000276843
1.45808e-09
0.007266
-0.000248245
1.38749e-09
0.00731077
-0.000220984
1.27212e-09
0.00735028
-0.000195035
1.25932e-09
0.0073848
-0.000170381
1.10248e-09
0.00741458
-0.000146976
1.12452e-09
0.00743986
-0.000124799
9.28102e-10
0.0074609
-0.000103796
1.01871e-09
0.00747792
-8.39562e-05
7.4222e-10
0.00749113
-6.52188e-05
9.45854e-10
0.00750078
-4.75892e-05
5.22666e-10
0.00750705
-3.09985e-05
8.80784e-10
0.00751017
-1.54737e-05
1.75566e-10
0.00751032
-9.09121e-07
7.79025e-10
0.00750774
1.25624e-05
-1.73313e-10
0.00750259
2.51158e-05
1.18231e-09
0.0074951
3.66502e-05
-4.88405e-10
0.00748543
4.72897e-05
1.66681e-09
0.0074738
5.69174e-05
-1.23511e-09
0.00746038
6.56964e-05
2.46241e-09
0.00744537
7.34732e-05
-2.47792e-09
0.00742892
8.04474e-05
3.89746e-09
0.00741127
8.64362e-05
-4.55531e-09
0.00739253
9.16618e-05
6.41628e-09
0.00737294
9.5943e-05
-8.01305e-09
0.00735259
9.94752e-05
1.06196e-08
0.00733174
0.000102159
-1.32378e-08
0.00731045
0.000104041
1.64994e-08
0.00728895
0.000105281
-1.81958e-08
0.000105514
1.42684e-08
0.00534603
-6.34119e-05
6.19332e-09
0.00538393
-0.000189337
-1.31683e-08
0.00544603
-0.00031018
-1.79128e-08
0.00553034
-0.000421443
-1.01961e-08
0.00563404
-0.000519282
-5.66428e-09
0.00575359
-0.000600511
-3.91284e-09
0.00588481
-0.000662673
-6.50874e-10
0.00602314
-0.000704399
4.67897e-09
0.00616402
-0.000725686
1.06148e-08
0.00630327
-0.000727993
1.53557e-08
0.00643752
-0.000714166
1.74899e-08
0.00656449
-0.000687989
1.64183e-08
0.00668294
-0.000653455
1.28971e-08
0.00679252
-0.000614058
8.63179e-09
0.00689336
-0.000572395
5.18705e-09
0.00698585
-0.000530137
3.38527e-09
0.00707041
-0.000488288
2.68695e-09
0.00714748
-0.000447452
2.3893e-09
0.00721749
-0.000408002
2.07173e-09
0.00728085
-0.000370133
1.82686e-09
0.00733794
-0.000333927
1.64456e-09
0.00738908
-0.000299385
1.62775e-09
0.00743458
-0.00026649
1.52847e-09
0.00747474
-0.000235196
1.51884e-09
0.00750983
-0.000205471
1.33412e-09
0.0075401
-0.000177254
1.35049e-09
0.00756582
-0.000150515
1.11682e-09
0.00758721
-0.000125186
1.20549e-09
0.00760451
-0.000101255
8.82168e-10
0.00761793
-7.86472e-05
1.09481e-09
0.00762771
-5.73705e-05
6.09839e-10
0.00763405
-3.73391e-05
9.90548e-10
0.00763717
-1.85897e-05
1.65911e-10
0.00763725
-9.85395e-07
8.25143e-10
0.00763452
1.52848e-05
-1.98169e-10
0.00762917
3.04644e-05
1.31805e-09
0.00762142
4.44079e-05
-5.11767e-10
0.00761142
5.728e-05
1.81769e-09
0.00759942
6.89196e-05
-1.33033e-09
0.00758557
7.9549e-05
2.65594e-09
0.00757009
8.89488e-05
-2.64628e-09
0.00755314
9.74015e-05
4.16298e-09
0.00753494
0.000104633
-4.8201e-09
0.00751562
0.000110978
6.79124e-09
0.00749544
0.000116135
-8.39166e-09
0.00747446
0.00012044
1.10905e-08
0.00745298
0.000123656
-1.37297e-08
0.00743102
0.00012598
1.70188e-08
0.00740887
0.000127449
-1.86214e-08
0.000127806
1.44348e-08
0.00534757
-7.76556e-05
6.74737e-09
0.00539007
-0.00023182
-1.48892e-08
0.00545974
-0.000379833
-2.07577e-08
0.00555436
-0.000516051
-1.22481e-08
0.00567075
-0.000635665
-7.27316e-09
0.00580483
-0.000734577
-4.94827e-09
0.00595162
-0.00080947
-4.52076e-10
0.00610569
-0.000858469
7.17085e-09
0.00626149
-0.000881504
1.55694e-08
0.00641399
-0.000880517
2.24101e-08
0.00655928
-0.000859481
2.50389e-08
0.00669494
-0.000823675
2.24995e-08
0.00682002
-0.000778544
1.62582e-08
0.00693459
-0.000728638
9.18489e-09
0.00703926
-0.000677073
4.12777e-09
0.00713476
-0.000625638
2.53165e-09
0.00722176
-0.00057529
2.48219e-09
0.00730087
-0.000526565
2.42763e-09
0.00737264
-0.000479774
2.16265e-09
0.00743755
-0.000435043
1.93696e-09
0.00749601
-0.000392387
1.79966e-09
0.00754837
-0.000351751
1.83423e-09
0.00759496
-0.000313084
1.72535e-09
0.00763607
-0.00027631
1.6907e-09
0.00767198
-0.000241383
1.45264e-09
0.00770295
-0.000208222
1.45065e-09
0.00772922
-0.00017679
1.16375e-09
0.00775104
-0.000147006
1.24523e-09
0.00776864
-0.000118855
8.63808e-10
0.00778224
-9.22497e-05
1.09235e-09
0.00779207
-6.7201e-05
5.54234e-10
0.00779834
-4.36111e-05
9.85814e-10
0.00780127
-2.1515e-05
8.87643e-11
0.00780104
-7.55826e-07
7.48851e-10
0.00779791
1.84146e-05
-4.19049e-10
0.00779205
3.63245e-05
1.30462e-09
0.00778368
5.27712e-05
-7.12739e-10
0.007773
6.79636e-05
1.86792e-09
0.00776023
8.16942e-05
-1.58434e-09
0.00774552
9.42484e-05
2.79487e-09
0.00772914
0.000105334
-2.97705e-09
0.00771121
0.000115326
4.43349e-09
0.00769201
0.000123846
-5.26823e-09
0.00767162
0.000131358
7.24299e-09
0.00765034
0.000137417
-9.00595e-09
0.00762824
0.000142535
1.17515e-08
0.00760562
0.000146289
-1.45156e-08
0.00758249
0.000149088
1.78238e-08
0.00755918
0.000150779
-1.93848e-08
0.000151292
1.4807e-08
0.00534951
-9.38418e-05
7.46392e-09
0.00539773
-0.00028002
-1.66357e-08
0.00547693
-0.000459002
-2.4447e-08
0.00558456
-0.000623674
-1.48718e-08
0.0057171
-0.000768194
-9.71199e-09
0.0058698
-0.000887265
-6.52933e-09
0.00603668
-0.000976357
1.16666e-11
0.00621109
-0.00103289
1.09452e-08
0.00638614
-0.00105657
2.31193e-08
0.00655555
-0.00104996
3.30584e-08
0.0067147
-0.00101866
3.6119e-08
0.00686108
-0.000970092
3.10694e-08
0.0069942
-0.000911682
2.04077e-08
0.00711484
-0.000849284
8.42038e-09
0.00722423
-0.000786474
2.92108e-09
0.00732355
-0.000724958
1.29788e-09
0.00741374
-0.000665478
1.90025e-09
0.00749558
-0.000608409
2.13141e-09
0.00756974
-0.000553938
1.87215e-09
0.00763677
-0.00050207
1.67411e-09
0.00769709
-0.000452715
1.61314e-09
0.00775109
-0.000405745
1.69378e-09
0.00779907
-0.000361068
1.53344e-09
0.00784134
-0.00031858
1.42898e-09
0.00787817
-0.000278215
1.10594e-09
0.00790982
-0.000239877
1.0726e-09
0.00793655
-0.000203522
7.23798e-10
0.00795861
-0.000169059
8.03488e-10
0.00797622
-0.00013647
3.67199e-10
0.00798963
-0.000105662
6.36249e-10
0.00799907
-7.66406e-05
6.30351e-11
0.00800477
-4.93061e-05
6.37224e-10
0.00800695
-2.36985e-05
-2.24574e-10
0.00800579
4.0399e-07
6.30557e-10
0.00800159
2.26161e-05
-8.4434e-10
0.00799451
4.34003e-05
9.63104e-10
0.00798481
6.24762e-05
-1.29195e-09
0.00797267
8.0099e-05
1.63653e-09
0.00795834
9.60259e-05
-2.16089e-09
0.007942
0.00011059
2.72731e-09
0.00792389
0.000123442
-3.61332e-09
0.00790418
0.000135036
4.58773e-09
0.00788313
0.000144901
-6.02244e-09
0.00786086
0.000153621
7.71613e-09
0.00783767
0.000160617
-9.94457e-09
0.00781362
0.000166567
1.26017e-08
0.00778906
0.000170874
-1.57065e-08
0.00776397
0.000174154
1.89989e-08
0.00773871
0.000176062
-2.06404e-08
0.000176729
1.54794e-08
0.00535192
-0.000112435
8.39506e-09
0.00540714
-0.000335224
-1.80287e-08
0.00549816
-0.000549988
-2.93103e-08
0.00562202
-0.000747519
-1.80829e-08
0.00577494
-0.000921097
-1.37145e-08
0.00595137
-0.00106368
-9.03389e-09
0.00614406
-0.00116905
7.22859e-10
0.00634474
-0.00123358
1.70847e-08
0.00654453
-0.0012564
3.56953e-08
0.00673541
-0.00124089
4.98906e-08
0.00691177
-0.00119508
5.19592e-08
0.00707115
-0.00112951
4.14923e-08
0.00721385
-0.0010544
2.18644e-08
0.00734172
-0.00097716
6.75259e-09
0.00745685
-0.000901596
5.29097e-10
0.00756087
-0.000828984
-7.98144e-10
0.00765503
-0.000759632
3.23625e-10
0.00774027
-0.000693652
8.33282e-10
0.00781737
-0.000631034
4.03518e-10
0.0078869
-0.000571601
1.43053e-10
0.00794931
-0.000515124
1.52618e-10
0.00800496
-0.000461398
3.14318e-10
0.00805418
-0.000410287
7.23535e-11
0.00809727
-0.000361668
-6.76684e-11
0.00813451
-0.000315457
-4.82688e-10
0.00816618
-0.000271552
-5.27098e-10
0.00819256
-0.0002299
-9.1461e-10
0.00821392
-0.000190412
-7.84626e-10
0.00823051
-0.000153059
-1.22165e-09
0.0082426
-0.00011775
-8.22692e-10
0.00825044
-8.44845e-05
-1.35809e-09
0.00825429
-5.31526e-05
-4.80093e-10
0.00825438
-2.37886e-05
-1.2686e-09
0.00825102
3.76307e-06
3.01788e-10
0.00824436
2.92812e-05
-1.50665e-09
0.0082347
5.30567e-05
5.07409e-11
0.00822228
7.49001e-05
-2.51683e-09
0.00820733
9.50514e-05
8.36366e-10
0.00819008
0.000113274
-3.29757e-09
0.00817076
0.000129904
2.21945e-09
0.00814962
0.000144594
-4.72067e-09
0.00812684
0.000157808
4.46373e-09
0.00810268
0.000169068
-7.19133e-09
0.00807731
0.000178983
8.06892e-09
0.00805099
0.000186947
-1.12979e-08
0.00802386
0.000193689
1.35627e-08
0.00799619
0.00019856
-1.73796e-08
0.00796807
0.000202254
2.05482e-08
0.00793977
0.000204378
-2.24931e-08
0.000205111
1.65153e-08
0.00535487
-0.000133978
9.64819e-09
0.00541853
-0.000398871
-1.83761e-08
0.0055241
-0.000655522
-3.57832e-08
0.00566799
-0.000891379
-2.16156e-08
0.00584653
-0.00109962
-2.07175e-08
0.00605315
-0.00127029
-1.36156e-08
0.00627901
-0.00139491
7.89452e-10
0.00651374
-0.00146834
2.59433e-08
0.00674548
-0.0014882
5.72389e-08
0.00696357
-0.00145906
7.87332e-08
0.00716112
-0.00139271
7.63353e-08
0.00733593
-0.00130438
5.2463e-08
0.00748971
-0.00120819
1.77508e-08
0.00762586
-0.00111332
-6.52534e-11
0.00774753
-0.00102326
-9.10772e-09
0.00785685
-0.000938297
-5.81511e-09
0.00795528
-0.000858064
-2.50428e-09
0.00804395
-0.000782318
-2.31766e-09
0.0081237
-0.000710773
-3.79969e-09
0.00819511
-0.000643013
-4.13261e-09
0.00825864
-0.000578651
-3.96384e-09
0.00831467
-0.000517418
-3.81659e-09
0.00836354
-0.000459154
-4.15706e-09
0.0084056
-0.000403726
-4.36347e-09
0.00844119
-0.000351042
-4.72867e-09
0.00847064
-0.000301002
-4.6295e-09
0.00849429
-0.000253545
-4.88531e-09
0.00851247
-0.000208587
-4.52371e-09
0.0085255
-0.000166086
-4.74205e-09
0.00853372
-0.000125958
-3.98776e-09
0.00853741
-8.81717e-05
-4.18357e-09
0.00853689
-5.26304e-05
-2.84678e-09
0.00853245
-1.93429e-05
-3.30478e-09
0.00852439
1.18251e-05
-1.73719e-09
0.00851294
4.07355e-05
-3.95687e-09
0.00849844
6.75588e-05
-2.11637e-09
0.00848112
9.22185e-05
-4.74982e-09
0.00846128
0.000114892
-8.52145e-10
0.00843914
0.000135424
-5.23729e-09
0.00841498
0.000154065
9.89103e-10
0.00838899
0.000170587
-6.45309e-09
0.00836147
0.000185328
3.82457e-09
0.00833258
0.000197968
-8.83531e-09
0.0083026
0.000208947
8.1051e-09
0.0082717
0.000217868
-1.30484e-08
0.00824014
0.000225233
1.44529e-08
0.00820805
0.000230665
-1.94584e-08
0.00817571
0.000234568
2.23339e-08
0.00814321
0.000236909
-2.48787e-08
0.000237469
1.78762e-08
0.00535843
-0.000159082
1.14611e-08
0.0054321
-0.000472527
-1.66174e-08
0.00555546
-0.000778832
-4.42547e-08
0.00572377
-0.00105967
-2.44792e-08
0.00593455
-0.00131037
-3.2722e-08
0.00617959
-0.0015153
-2.10457e-08
0.00644835
-0.00166367
-1.89378e-09
0.00672746
-0.00174748
3.51966e-08
0.00700054
-0.00176138
8.92499e-08
0.0072531
-0.00171175
1.25292e-07
0.00747641
-0.00161613
1.1628e-07
0.00766886
-0.00149689
6.03145e-08
0.00783449
-0.00137383
1.24218e-08
0.00797901
-0.00125781
-2.57643e-08
0.00810673
-0.00115095
-3.11595e-08
0.00822022
-0.00105176
-1.8723e-08
0.00832116
-0.000958995
-1.10097e-08
0.00841086
-0.000872004
-1.23791e-08
0.00849025
-0.000790146
-1.38397e-08
0.00855997
-0.000712718
-1.39105e-08
0.00862053
-0.000639202
-1.33648e-08
0.00867243
-0.000569303
-1.29863e-08
0.00871615
-0.000502857
-1.31116e-08
0.00875217
-0.000439737
-1.29188e-08
0.00878098
-0.000379842
-1.27622e-08
0.00880307
-0.000323073
-1.20205e-08
0.00881889
-0.000269355
-1.16423e-08
0.00882891
-0.000218602
-1.05438e-08
0.00883357
-0.000170737
-1.00124e-08
0.00883331
-0.000125686
-8.3461e-09
0.00882849
-8.33464e-05
-7.57979e-09
0.00881951
-4.36441e-05
-5.42834e-09
0.0088067
-6.5278e-06
-5.54018e-09
0.00879038
2.81477e-05
-4.85018e-09
0.00877088
6.02467e-05
-7.30623e-09
0.00874855
8.98986e-05
-4.97939e-09
0.0087236
0.000117168
-7.52575e-09
0.0086964
0.000142094
-3.17874e-09
0.00866712
0.00016472
-7.63548e-09
0.0086361
0.000185081
-6.82138e-10
0.00860346
0.000203236
-8.50597e-09
0.00856959
0.000219195
2.73311e-09
0.00853451
0.000233057
-1.06434e-08
0.00849868
0.000244774
7.75611e-09
0.00846201
0.000254545
-1.48534e-08
0.00842505
0.000262181
1.50399e-08
0.00838761
0.000268128
-2.15428e-08
0.0083503
0.00027185
2.39839e-08
0.00831283
0.000274407
-2.73952e-08
0.000274357
1.93294e-08
0.00536261
-0.000188369
1.43974e-08
0.00544795
-0.000557859
-1.13122e-08
0.0055928
-0.000923627
-5.47557e-08
0.00579054
-0.00125738
-2.50512e-08
0.00604197
-0.00156174
-5.21339e-08
0.00633596
-0.00180927
-2.84563e-08
0.00666077
-0.00198847
-7.61127e-09
0.00699814
-0.0020849
4.6379e-08
0.00732471
-0.00208807
1.29615e-07
0.00762057
-0.00200779
1.81964e-07
0.00787399
-0.00186972
1.6655e-07
0.00808444
-0.00170741
7.19589e-08
0.00825976
-0.00154915
-5.47331e-09
0.00840891
-0.00140689
-7.0215e-08
0.00853752
-0.00127949
-7.02952e-08
0.00864863
-0.00116282
-4.6988e-08
0.00874437
-0.0010547
-3.47634e-08
0.00882645
-0.000954043
-3.35864e-08
0.00889604
-0.000859707
-3.31601e-08
0.00895405
-0.000770693
-3.07517e-08
0.00900128
-0.000686406
-2.82636e-08
0.00903857
-0.000606568
-2.65244e-08
0.00906675
-0.000531009
-2.5361e-08
0.00908662
-0.000459586
-2.36994e-08
0.00909896
-0.000392162
-2.20075e-08
0.00910452
-0.000328608
-1.96849e-08
0.00910397
-0.000268794
-1.78114e-08
0.00909797
-0.000212588
-1.51491e-08
0.00908711
-0.000159859
-1.31854e-08
0.00907192
-0.00011049
-9.91034e-09
0.00905287
-6.42845e-05
-7.75308e-09
0.00903041
-2.11787e-05
-4.86893e-09
0.0090048
1.9093e-05
-6.92658e-09
0.00897648
5.6468e-05
-7.03839e-09
0.00894575
9.09868e-05
-9.33311e-09
0.00891295
0.000122711
-6.64709e-09
0.00887824
0.000151886
-9.15543e-09
0.00884198
0.000178352
-4.66876e-09
0.00880426
0.000202453
-9.10589e-09
0.00876546
0.000223884
-1.9378e-09
0.00872554
0.000243163
-9.74236e-09
0.00868498
0.000259751
1.86152e-09
0.0086436
0.00027445
-1.16864e-08
0.00860201
0.000286359
7.28769e-09
0.00855984
0.000296732
-1.58452e-08
0.0085179
0.000304107
1.51358e-08
0.00847559
0.000310457
-2.27222e-08
0.00843397
0.000313449
2.48611e-08
0.00839219
0.000316217
-2.9116e-08
0.000314975
2.03429e-08
0.00536727
-0.000222325
1.97978e-08
0.00546609
-0.000656677
-2.32151e-09
0.00563633
-0.00109379
-6.5971e-08
0.00586893
-0.00148997
-2.35946e-08
0.0061718
-0.00186453
-8.37265e-08
0.00652798
-0.00216542
-2.75266e-08
0.00692692
-0.0023874
-1.31688e-08
0.00734194
-0.0025
7.94294e-08
0.00773784
-0.00248416
1.91259e-07
0.0080861
-0.00235627
2.27137e-07
0.00836972
-0.00215351
1.73875e-07
0.00859063
-0.00192837
4.59127e-08
0.00876372
-0.00172217
-7.05145e-08
0.00890249
-0.00154553
-1.37626e-07
0.00901446
-0.00139134
-1.1966e-07
0.00910372
-0.001252
-8.30141e-08
0.00917383
-0.00112474
-6.72601e-08
0.00922734
-0.00100749
-6.31868e-08
0.00926616
-0.000898473
-5.70604e-08
0.00929189
-0.000796372
-4.81832e-08
0.00930607
-0.000700541
-4.08911e-08
0.00931021
-0.000610671
-3.57751e-08
0.00930572
-0.000526491
-3.17915e-08
0.0092939
-0.000447741
-2.76169e-08
0.00927592
-0.000374151
-2.37638e-08
0.00925279
-0.000305458
-1.95594e-08
0.00922542
-0.000241409
-1.60396e-08
0.00919456
-0.000181718
-1.16623e-08
0.0091609
-0.000126189
-8.36885e-09
0.00912496
-7.45533e-05
-3.53129e-09
0.00908718
-2.64992e-05
-1.91045e-09
0.00904788
1.8125e-05
-2.97663e-09
0.00900719
5.9792e-05
-7.7974e-09
0.00896564
9.80274e-05
-7.28043e-09
0.00892324
0.000133388
-8.43091e-09
0.00888026
0.000165704
-5.42222e-09
0.00883671
0.000195438
-7.82888e-09
0.00879285
0.000222214
-3.57863e-09
0.00874861
0.000246707
-7.88557e-09
0.00870428
0.000268215
-1.11974e-09
0.00865967
0.000287784
-8.65526e-09
0.00861521
0.000304208
2.27221e-09
0.00857052
0.000319147
-1.06701e-08
0.00852627
0.000330606
7.2257e-09
0.0084818
0.000341212
-1.47984e-08
0.00843811
0.000347777
1.461e-08
0.00839422
0.000354376
-2.16536e-08
0.00835152
0.000356118
2.40494e-08
0.00830866
0.000359108
-2.8588e-08
0.000356158
1.99716e-08
0.00537205
-0.000261073
3.0455e-08
0.00548646
-0.000771088
7.27332e-09
0.00568511
-0.00129237
-7.21321e-08
0.00595891
-0.00176374
-2.78329e-08
0.00632624
-0.00223172
-1.38863e-07
0.00675995
-0.00259909
-3.60618e-08
0.00725708
-0.0028845
-3.2279e-08
0.00777786
-0.00302092
1.43059e-07
0.00826346
-0.00297007
3.14183e-07
0.00866589
-0.00275897
2.63007e-07
0.00896076
-0.00244846
7.38421e-08
0.00916091
-0.00212841
-1.18614e-07
0.00929456
-0.00185555
-2.68086e-07
0.00938264
-0.00163336
-2.51274e-07
0.00943576
-0.00144431
-1.4943e-07
0.00946128
-0.00127744
-7.86931e-08
0.00946517
-0.00112856
-7.38619e-08
0.00945206
-0.000994314
-6.9092e-08
0.00942511
-0.00087146
-5.66957e-08
0.00938715
-0.00075837
-4.1261e-08
0.0093408
-0.00065417
-2.98053e-08
0.0092884
-0.00055824
-2.21664e-08
0.00923186
-0.000469944
-1.64106e-08
0.00917283
-0.00038869
-1.13404e-08
0.00911256
-0.000313881
-7.28267e-09
0.00905208
-0.000244976
-3.55401e-09
0.00899213
-0.000181453
-6.95145e-10
0.00893325
-0.000122841
2.64654e-09
0.00887583
-6.87736e-05
5.14258e-09
0.00882021
-1.89415e-05
7.38685e-09
0.00876608
2.76273e-05
1.4889e-09
0.00871355
7.06579e-05
-3.12616e-09
0.00866285
0.000110502
-5.24819e-09
0.00861372
0.000147155
-2.20654e-09
0.00856604
0.000181078
-2.39607e-09
0.00851971
0.00021203
2.07496e-10
0.00847454
0.000240611
-2.17076e-09
0.00843048
0.000266269
1.27256e-09
0.00838729
0.0002899
-2.95138e-09
0.00834502
0.000310482
2.53977e-09
0.00830335
0.00032946
-4.45836e-09
0.00826249
0.000345059
4.51352e-09
0.00822199
0.000359662
-6.92483e-09
0.00818231
0.000370274
7.79573e-09
0.00814274
0.000380796
-1.09602e-08
0.00810417
0.000386329
1.31736e-08
0.00806548
0.000393082
-1.7207e-08
0.00802814
0.00039344
2.03972e-08
0.00799055
0.000396723
-2.41865e-08
0.000392004
1.68129e-08
0.00537651
-0.000304295
5.12688e-08
0.00550851
-0.000903112
1.8331e-08
0.00573601
-0.00151982
-5.60615e-08
0.00605941
-0.00208708
-5.48493e-08
0.00650415
-0.00267623
-2.285e-07
0.00703379
-0.00312862
-1.16553e-07
0.00766451
-0.00351511
-1.12957e-07
0.00832544
-0.00368199
1.4596e-07
0.00891774
-0.00356285
4.66965e-07
0.00934156
-0.00318317
3.91118e-07
0.00957349
-0.00268043
3.98039e-08
0.00966658
-0.00222109
-4.00302e-07
0.00967517
-0.00186356
-5.74491e-07
0.00962874
-0.00158654
-3.87807e-07
0.00954542
-0.00136088
-1.12946e-07
0.00943887
-0.00117087
-2.16872e-08
0.00931881
-0.00100851
7.86946e-09
0.00919119
-0.000866701
1.31943e-08
0.00906069
-0.000740982
2.15743e-08
0.00893097
-0.00062868
2.95512e-08
0.00880498
-0.000528217
3.16571e-08
0.00868483
-0.00043812
3.09026e-08
0.00857188
-0.000357018
2.96837e-08
0.00846691
-0.000283752
2.83272e-08
0.00837024
-0.000217239
2.63778e-08
0.00828185
-0.000156609
2.40272e-08
0.00820139
-0.000101011
2.14968e-08
0.0081284
-4.98738e-05
1.99205e-08
0.00806275
-3.14033e-06
1.75477e-08
0.00800284
4.09548e-05
9.72149e-09
0.00794872
8.17458e-05
4.04965e-09
0.00789965
0.000119725
5.37148e-09
0.00785497
0.000155173
6.17151e-09
0.00781408
0.000188037
8.78189e-09
0.00777642
0.000218728
7.80146e-09
0.00774151
0.000246935
9.14898e-09
0.00770888
0.000273227
6.19905e-09
0.00767818
0.000296969
8.19331e-09
0.00764902
0.000319058
3.9068e-09
0.00762114
0.000338353
7.50794e-09
0.00759422
0.000356375
1.23821e-09
0.00756814
0.00037113
7.41658e-09
0.00754256
0.000385243
-1.66314e-09
0.00751757
0.000395261
8.23249e-09
0.00749269
0.000405684
-5.14239e-09
0.00746836
0.000410641
1.02347e-08
0.00744381
0.000417643
-9.47029e-09
0.00742006
0.000417183
1.28607e-08
0.00739586
0.000420935
-1.48299e-08
0.00041513
9.1386e-09
0.00538048
-0.000351522
8.87313e-08
0.0055295
-0.00105219
5.1646e-08
0.00578254
-0.00177287
1.08392e-08
0.0061658
-0.00247023
-1.07995e-07
0.00669276
-0.00320287
-3.19194e-07
0.00734514
-0.00378064
-3.55538e-07
0.00817473
-0.0043443
-4.06076e-07
0.00898397
-0.00449126
3.08765e-08
0.00964047
-0.00421972
3.75765e-07
0.00994705
-0.00349033
5.79076e-07
0.00993385
-0.00266751
2.82283e-07
0.00974527
-0.00203235
-1.64953e-07
0.00947779
-0.00159548
-6.0757e-07
0.00917007
-0.00127843
-3.82801e-07
0.00885581
-0.00104661
-1.86018e-08
0.00855378
-0.000868986
1.48641e-07
0.00827333
-0.000728238
1.71927e-07
0.00801811
-0.00061164
1.58285e-07
0.00778966
-0.000512674
1.46023e-07
0.00758846
-0.000427609
1.2548e-07
0.00741362
-0.000353474
1.01074e-07
0.00726336
-0.000287943
8.01982e-08
0.00713545
-0.000229172
6.47653e-08
0.00702746
-0.000175818
5.32685e-08
0.00693697
-0.000126787
4.41475e-08
0.00686167
-8.13444e-05
3.58941e-08
0.00679938
-3.8753e-05
2.7987e-08
0.00674814
1.34459e-06
2.04003e-08
0.00670621
3.87764e-05
1.43041e-08
0.00667245
7.47026e-05
1.51024e-08
0.00664533
0.000108846
1.58213e-08
0.00662383
0.00014121
1.69697e-08
0.00660696
0.000172027
1.6438e-08
0.00659385
0.000201126
1.67359e-08
0.00658383
0.00022874
1.44257e-08
0.00657622
0.000254526
1.42947e-08
0.00657056
0.000278877
1.10808e-08
0.00656632
0.000301197
1.17928e-08
0.00656319
0.000322179
7.85019e-09
0.00656073
0.000340804
9.81296e-09
0.00655878
0.000358321
4.79048e-09
0.00655693
0.000372971
8.33221e-09
0.00655516
0.000387011
2.08471e-09
0.00655309
0.000397323
7.11699e-09
0.00655079
0.000407984
2.60953e-10
0.006548
0.000413428
5.42579e-09
0.00654472
0.000420923
-1.02415e-10
0.00654108
0.000420823
1.33602e-09
0.00653675
0.00042526
-4.36126e-10
0.0004196
-4.73136e-09
0.00538359
-0.000401916
1.44475e-07
0.00554166
-0.00121039
1.25812e-07
0.00581487
-0.0020462
1.26349e-07
0.00625674
-0.00291198
-1.2906e-07
0.00685901
-0.00380486
-2.71873e-07
0.00768462
-0.00460556
-7.02385e-07
0.00879701
-0.00545593
-7.52323e-07
0.00966375
-0.00535792
-8.03722e-08
0.0100951
-0.00124946
-1.12724e-07
-0.00107615
-0.00124802
-0.00107735
0.00993418
-0.000914237
2.50077e-07
-0.000750786
-0.00091333
-0.000751301
0.00934993
-0.000569304
9.38652e-07
-0.000472939
-0.000568907
-0.000473043
0.00861822
-0.000335899
3.52455e-07
-0.000314379
-0.00033634
-0.00031437
0.00790257
-0.000879729
-1.04494e-07
0.0072634
-0.000639146
-1.16181e-07
0.00673364
-0.000516995
1.49346e-07
0.0063098
-0.000445304
1.57928e-07
0.00597858
-0.000397094
7.32525e-08
0.00572352
-0.000356633
5.21266e-08
0.00552961
-0.00031882
5.59917e-08
0.00538366
-0.000281708
5.26316e-08
0.00527486
-0.00024472
4.59673e-08
0.00519476
-0.000207887
3.99824e-08
0.00513695
-0.000171389
3.46887e-08