/*--------------------------------*- C++ -*----------------------------------*\
  =========                 |
  \\      /  F ield         | OpenFOAM: The Open Source CFD Toolbox
   \\    /   O peration     | Website:  https://openfoam.org
    \\  /    A nd           | Version:  8
     \\/     M anipulation  |
\*---------------------------------------------------------------------------*/
FoamFile
{
    version     2.0;
    format      ascii;
    class       volScalarField;
    location    "0.311";
    object      T;
}
// * * * * * * * * * * * * * * * * * * * * * * * * * * * * * * * * * * * * * //

dimensions      [0 0 0 1 0 0 0];

internalField   nonuniform List<scalar> 
100
(
49.9116
5.42006
-4.63625
-2.63392
0.0462835
0.942521
0.795391
0.439259
0.196842
0.0589732
94.5826
49.9418
13.2306
-3.19352
-6.03049
-4.13035
-2.02262
-0.800615
-0.272968
-0.0665589
105.274
86.7741
48.8505
16.8987
0.841726
-3.50477
-2.9991
-1.63953
-0.727546
-0.216677
103.177
103.429
81.1141
48.9118
23.0771
8.56533
2.41662
0.4353
-0.0229211
-0.0429588
99.4461
106.307
100.955
77.9202
48.9597
25.652
11.4844
4.47655
1.57151
0.402131
97.1925
104.224
110.222
97.0295
68.8307
40.1183
19.7355
8.36891
3.18553
0.869414
96.2587
101.861
113.65
107.075
80.5142
49.1961
25.1573
11.0191
4.31892
1.20498
95.9654
100.43
114.662
111.512
86.1497
53.7875
27.99
12.4379
4.93843
1.39111
95.8974
99.7821
114.886
113.191
88.4488
55.7379
29.2283
13.0724
5.22123
1.47742
95.8897
99.506
114.912
113.811
89.3586
56.5344
29.744
13.3402
5.3419
1.51441
)
;

boundaryField
{
    left
    {
        type            fixedValue;
        value           uniform 100;
    }
    right
    {
        type            zeroGradient;
    }
    up
    {
        type            zeroGradient;
    }
    down
    {
        type            fixedValue;
        value           uniform 0;
    }
    frontAndBack
    {
        type            empty;
    }
}


// ************************************************************************* //
