/*--------------------------------*- C++ -*----------------------------------*\
  =========                 |
  \\      /  F ield         | OpenFOAM: The Open Source CFD Toolbox
   \\    /   O peration     | Website:  https://openfoam.org
    \\  /    A nd           | Version:  8
     \\/     M anipulation  |
\*---------------------------------------------------------------------------*/
FoamFile
{
    version     2.0;
    format      ascii;
    class       surfaceScalarField;
    location    "11";
    object      phi;
}
// * * * * * * * * * * * * * * * * * * * * * * * * * * * * * * * * * * * * * //

dimensions      [0 3 -1 0 0 0 0];

internalField   nonuniform List<scalar> 
7966
(
0.0134309
-9.48244e-05
-2.77908e-06
0.0136519
-0.000226533
5.61302e-06
0.0140924
-0.00044472
4.21171e-06
0.014596
-0.000494259
-9.37548e-06
0.0149114
-0.00030403
-1.13723e-05
0.0150014
-8.4086e-05
-5.89841e-06
0.015008
-8.10214e-06
1.52876e-06
0.0149574
4.51654e-05
5.43988e-06
0.0147951
0.000155725
6.51783e-06
0.0145923
0.000197151
5.67202e-06
0.0144015
0.000187728
3.09495e-06
0.0141959
0.000204753
8.24644e-07
0.0139685
0.000227318
8.78295e-08
0.0137234
0.000245118
-3.58837e-08
0.0134474
0.000276037
-7.56588e-08
0.0131949
0.000252562
3.29279e-08
0.0128898
0.000305138
-5.57811e-08
0.0125707
0.000318943
7.57091e-08
0.0122844
0.00028667
-2.85378e-07
0.000272556
-2.4915e-07
0.0134174
-0.000165528
-1.33855e-05
0.0136485
-0.000479457
2.18288e-05
0.0141324
-0.000955536
2.69775e-05
0.0147283
-0.00105916
-3.10515e-05
0.0151034
-0.000638294
-4.08419e-05
0.0152144
-0.000180556
-1.45259e-05
0.0152299
-3.62923e-05
1.2754e-05
0.0152153
3.1519e-05
2.81801e-05
0.0150744
0.000269254
2.74199e-05
0.0147759
0.000474607
2.10153e-05
0.0145465
0.000402051
1.50582e-05
0.0143595
0.000383515
8.2426e-06
0.0140396
0.000547997
-7.55214e-07
0.0137524
0.000535486
-3.14111e-06
0.0135369
0.000491087
4.3229e-07
0.0132486
0.000540056
7.91072e-07
0.0129004
0.000654997
-1.67503e-06
0.0126665
0.000553298
-4.05766e-07
0.0124363
0.000510667
6.12629e-06
0.000538685
4.88242e-06
0.0135043
-0.000262721
-7.27247e-05
0.0137837
-0.00084773
8.87884e-05
0.0145731
-0.00194414
0.000199206
0.0153193
-0.00170681
-9.85517e-05
0.0155298
-0.000506199
-0.000342566
0.0155311
8.25705e-05
-0.000264445
0.0156633
-0.000201925
3.34231e-05
0.015603
-0.000101904
0.000193753
0.0151826
0.000500835
0.000188874
0.0149136
0.000598592
0.000144939
0.0148301
0.000414775
7.08524e-05
0.014623
0.000570846
1.96972e-05
0.0144442
0.000704918
2.19131e-05
0.0142656
0.000689711
2.43868e-05
0.0138692
0.000883547
3.92666e-06
0.0135627
0.000845031
1.55312e-06
0.0133156
0.000893268
8.78978e-06
0.0129119
0.00094932
7.72878e-06
0.0125274
0.000907987
-1.28412e-05
0.000847113
-1.4867e-05
0.0133966
-0.000185461
-0.000138492
0.0139101
-0.00152496
0.000163739
0.0149423
-0.00320842
0.000232012
0.015859
-0.00268613
6.26897e-05
0.0161194
-0.000311722
-0.000454907
0.0163775
0.000750504
-0.000926028
0.0167967
-8.72537e-05
-0.000533921
0.0167127
-0.000444935
0.000427119
0.0163167
-1.12425e-05
0.000908068
0.0160963
0.000107323
0.000711681
0.0156854
0.000314378
0.000511242
0.0152314
0.000680786
0.000344088
0.0148074
0.0010474
8.15112e-05
0.0142304
0.00136559
-9.88823e-05
0.0139917
0.00116075
-3.85042e-05
0.0139272
0.000906615
2.91303e-06
0.0135275
0.00132567
-3.26604e-05
0.0131749
0.00129931
2.59631e-06
0.0129847
0.00102228
7.58564e-05
0.00103915
6.14708e-05
0.0135456
-0.000156086
-0.000236425
0.0145208
-0.0032944
0.000794198
0.0163376
-0.00530959
0.000284402
0.017011
-0.0024806
-0.000878974
0.0166214
0.000931463
-0.000853558
0.0166911
0.00176689
-0.00108609
0.0178029
0.000711821
-0.00191092
0.0187083
0.000336099
-0.00168638
0.018861
-0.000509449
0.000345434
0.0180737
-0.000980227
0.00187486
0.0171041
-3.35963e-05
0.00131758
0.0165021
0.000708103
0.000574701
0.0158428
0.00117402
0.000532718
0.0154467
0.00124743
0.000514232
0.0152026
0.00124934
0.00015545
0.0147547
0.00144205
-8.7508e-05
0.014108
0.00190037
7.20371e-05
0.0138073
0.00163361
-3.36338e-05
0.0138075
0.00118176
-0.000159653
0.001251
-4.61182e-05
0.0136827
-0.000536147
4.19123e-05
0.0150736
-0.00444911
-0.000236139
0.0169169
-0.00791674
0.000763856
0.0188318
-0.00172263
0.00114329
-0.000828165
-0.00209023
-0.000897784
0.0188284
0.000289898
-0.00261513
0.00178062
0.000227013
0.00125247
0.0188662
0.00294394
-0.00121488
0.0192693
-0.00047643
0.00078516
0.0205456
-0.000599747
-0.000340415
0.022324
-0.000483573
-0.00180427
0.0220511
-0.000217636
-0.000489715
0.0195807
0.000802473
0.00163433
0.0175346
0.00167048
0.00108367
0.0168684
0.00216309
-0.000322805
0.0167089
0.00170141
-0.000294534
0.0158715
0.00177729
0.000309491
0.0148272
0.0018196
0.000666687
0.0142915
0.00222228
0.000213857
0.0132732
0.00224847
0.000403414
0.0118908
0.00216275
0.000401393
0.00208994
-0.000197828
0.0144717
-0.00340263
0.00174755
0.0158988
-0.00275186
-0.00312435
0.00466713
-0.00296428
0.000472934
-0.00425154
-0.0022676
-0.00332579
0.00526669
0.00490601
0.0054785
0.00521034
-0.00302237
0.000756529
-0.00531594
0.00469498
-0.000133794
0.00104465
0.0203648
0.000246251
0.00122001
8.17495e-05
0.000240723
0.000383849
-0.00439602
-0.00531442
-0.00463353
-0.00524947
0.0205141
-0.00259451
0.00196874
0.0218684
-0.00283649
0.00088244
0.0234448
-0.000937701
-0.00112228
0.0231
0.00161419
-0.00148694
0.021701
0.00262374
-0.000422261
0.0206819
0.00290119
-0.000211613
0.0200472
0.00336108
-0.000563368
0.0201317
0.0023716
-0.000754685
0.020243
0.00195662
-0.000290579
0.0205584
0.00135091
0.000153317
0.0202441
0.00224682
0.000289773
0.0193828
0.00249934
0.000610344
0.0184695
0.00332433
-0.000248241
0.00329291
-0.000464046
0.0140936
-0.00428234
0.000142513
0.00423035
0.000203038
-0.00301555
0.00378708
0.00453361
0.00461678
-0.00162027
-0.000793614
-0.000599649
0.00447506
-0.00402403
0.000815048
-0.00155236
0.00137448
0.00168318
-0.00155893
5.36365e-05
-0.00138991
0.000142283
0.00139375
-0.000113886
-3.22422e-05
-0.00140385
0.00395983
0.00137223
-0.00094233
-0.00140724
-0.000944835
-0.000186355
-6.95749e-06
1.25436e-06
-0.000195499
0.0106229
-0.00136652
-0.00331484
-0.00269035
0.000747898
-0.00361126
-2.13777e-05
-0.000978893
-0.00106249
-0.000919571
0.013384
-0.000671134
-0.00492648
0.0150443
-0.000476819
-0.00212116
0.0153215
0.00207654
-0.00073957
0.0157697
0.00223766
-6.20494e-05
0.0157445
0.00229457
0.000631757
0.015684
0.00236138
0.00106025
0.0157066
0.00091675
0.00143218
0.015868
0.00105992
0.000735366
0.0166615
0.000579073
-2.17004e-05
0.017255
0.0016696
-1.63082e-05
0.0178109
0.00216172
-0.000218188
0.0181785
0.00305757
-0.000100851
0.00296494
0.000319853
0.00376628
-0.00202284
-0.00340999
0.00425937
0.00304796
0.00339562
0.00372856
-0.000396417
0.00063717
0.00168952
-0.00120407
0.00119651
-0.00164399
-3.79633e-05
0.000606245
-0.00100267
-0.000863011
-0.00151768
0.000435911
0.000548874
0.000425803
0.00217132
-0.000667574
-0.00199378
-0.000132094
6.83522e-05
0.00016323
-0.000280595
0.00131509
-0.00150214
0.00188156
0.00065731
0.0016284
0.00110592
-0.000217266
0.00112954
0.00198269
0.0019596
0.000222298
-0.000104591
0.00392566
0.00118717
-0.00079185
0.00476076
0.000319586
-0.000237933
0.00639116
-0.000112634
-0.00045786
0.00816967
-0.00100705
-0.00019239
0.00980392
3.87373e-05
-3.38314e-06
0.0113718
0.000301183
0.000292673
0.0127484
0.00107299
0.000607994
0.00160214
0.000248594
0.00459536
-8.86901e-05
-0.00251431
0.00394481
0.00509451
0.000231495
0.00267795
-0.000781191
-0.00315965
0.00116295
0.00147902
0.00149014
0.00172615
0.00066868
-0.00112915
0.000460475
0.00010887
3.11035e-05
9.92285e-05
-0.000128622
-0.00011058
-0.00606206
3.78205e-05
0.00340471
-0.000318708
0.00106408
3.9995e-05
0.00116659
-0.00822244
-0.000128688
0.000786927
-0.00633984
0.000400731
-0.000654937
-0.00534872
-0.000560325
0.000698748
-0.00476831
6.47561e-05
-0.000422872
-0.00257447
0.000783525
-0.00179018
-0.00149572
-0.000112965
-0.000646196
0.000286052
-0.00139016
-0.000504252
0.00152858
-0.00227542
2.58504e-05
0.00294962
-0.00145521
7.29067e-05
0.00456763
-0.00153984
0.000223015
0.0058623
-0.000239074
1.73912e-05
0.000623829
-0.000285683
0.00169229
0.00178346
-0.00339237
0.00344614
0.00362821
0.0060396
-0.000539718
0.000475196
0.000230611
0.000205631
0.00052693
0.000660027
0.000133612
-0.000108199
4.80047e-05
9.8124e-05
-3.79302e-05
-0.00349082
0.00142001
0.00114077
0.000119296
0.000286135
0.000203989
0.000358434
-0.00487196
0.000185835
0.00106662
-0.00353453
-0.00159346
0.000656768
-0.00121921
-0.00203576
-0.000839892
-0.00069261
-0.000247184
-0.000214657
0.000417933
-0.000790695
0.000463677
0.00200897
-0.00157971
-0.000124292
0.00349867
-0.00284457
-3.52966e-05
0.00390111
-0.00343331
0.000755451
0.00446627
-0.00289025
0.00086988
0.00487392
-0.0027704
0.000822912
0.0053181
-0.00139614
0.000712884
-0.000670575
0.000107252
0.00301016
0.00215756
-0.00298349
0.00489813
0.00367459
0.00434526
-0.00236833
0.00107208
0.00152878
0.00277763
-0.000503506
2.80875e-05
0.00102094
-0.000545522
2.61329e-05
-0.000127912
0.000989064
-0.000365859
-3.39207e-05
-5.7887e-05
1.2238e-05
-6.32309e-05
-0.000146788
-0.000107019
-0.000124819
0.00431235
-0.000870815
-0.00141856
-0.000710904
0.000331815
-0.000624107
0.000400237
0.00448393
-0.00164096
0.00165522
0.00500057
-0.00247631
0.000366198
0.00644135
-0.00199809
-0.00147844
0.00764192
-0.00157889
0.000131133
0.00952343
-0.00276223
9.00293e-05
0.0112216
-0.00244577
-0.000832126
0.0131226
-0.00369902
-0.00104657
0.0144318
-0.00385825
-0.000884213
0.01476
-0.00317504
-4.34653e-05
0.0147317
-0.00276815
2.61017e-05
0.0140236
-0.00133355
0.000645496
-0.00102234
0.000476313
0.0152371
0.0020281
-0.00175119
0.00387563
0.00462839
-0.00251355
-0.00143443
-0.00199073
-0.00185364
-0.00156337
0.005906
0.00402983
0.00615294
-0.00137456
0.00283445
0.000675649
-0.000835219
-0.00136838
-0.00086198
0.00132433
0.00107605
0.00108734
0.00131795
0.000415741
-0.000282665
-0.000133076
0.0157921
-0.000819027
-0.000353148
-4.17064e-06
-0.00049096
-4.54752e-05
-0.00054735
-0.00185767
-0.00470446
-0.00187423
-0.0050956
0.0163305
-0.00242791
0.00101868
0.0161384
-0.00189788
0.000449057
0.0158475
-0.00169608
-0.000489341
0.0165106
-0.00170492
-0.000956236
0.0169428
-0.00159557
-0.000415521
0.017224
-0.00289131
-0.00015221
0.0180586
-0.00265163
-0.00062874
0.0182198
-0.00331216
-0.000548004
0.0184249
-0.00343204
-0.000631349
0.0187271
-0.00303283
-0.000444409
0.0189295
-0.00243952
-0.000531045
0.0190385
-0.0013962
-4.63115e-05
-0.00128
0.000266784
0.0144647
0.0011893
-0.000273079
0.0172514
0.00291596
-0.00107428
0.00556081
0.00638947
-0.00203518
-0.00258359
-0.00229158
-0.00267967
-0.00208633
0.00571413
0.00567811
0.00558519
-0.000870142
0.00630933
0.0030314
-0.000424915
-0.000821907
-0.000856399
-0.000806561
-0.00027908
-0.00634193
0.00549046
0.000237834
0.00143312
-0.000124493
-0.000282159
-0.000133743
0.0212612
0.00202718
-0.00181811
-0.000604025
-9.39959e-05
-0.000399677
5.80521e-05
-0.0051614
-0.00491242
-0.00523463
-0.00512216
0.0215602
-0.000678848
-0.000439183
0.0220747
-0.00219294
-0.000749497
0.0219354
-0.001634
-0.000124626
0.0209638
-0.00116117
0.000436732
0.020655
-0.00138571
-1.04511e-05
0.0212528
-0.00139855
-0.000794753
0.0213302
-0.00230911
-0.000659625
0.0213688
-0.00264409
-4.60999e-05
0.0200813
-0.0028365
0.000811751
0.0184459
-0.00268358
0.000886963
0.0172342
-0.00222781
0.000406659
0.0159201
-0.0018141
0.000688684
0.0158503
-0.00151249
0.000186117
-0.0014209
-0.000260359
0.0135985
0.00110562
-0.000170194
0.0153572
0.00145835
-0.000301141
0.0176277
0.00443318
-0.000314162
0.0193544
0.0045284
0.00178179
-0.00261942
-0.00146424
-0.00231316
-0.00164014
0.0191955
0.00285998
-0.00133588
-0.000171257
-0.000547406
-0.000344014
-0.000302515
0.0201205
0.00114994
-4.7751e-05
0.019946
0.000107556
-0.000611918
0.0194752
-0.000471306
-0.00125085
0.0192527
-0.000894818
-0.000516658
0.0188916
-0.00108077
0.00028065
0.0188258
-0.00141835
9.84815e-05
0.0188619
-0.00121834
-0.00021628
0.0181623
-0.00150304
-0.000106514
0.0169002
-0.00193813
0.000556158
0.0148731
-0.00190555
0.00109614
0.0132848
-0.00184161
0.000746354
0.0126773
-0.00189025
0.000269951
0.0126264
-0.00153393
-0.000229272
0.0132721
-0.000865956
-0.00129219
-0.000847257
-0.000914976
0.0136722
0.000828074
-5.61415e-05
0.0146944
0.000898715
-0.000462524
0.0162132
0.00249055
0.000423811
0.0169141
0.00296737
0.000860096
0.0174314
0.00189011
0.000452553
0.0178895
0.000967784
-0.000275957
0.017703
0.000713755
-0.000419648
0.0170404
4.1854e-05
0.00014944
0.0169295
-0.0011005
0.000316535
0.0171463
-0.00123301
-6.45086e-05
0.0170083
-0.00117829
-0.000102057
0.0167388
-0.00118408
0.000235268
0.016003
-0.00113495
0.000367653
0.0152396
-0.00135116
0.000176484
0.0147207
-0.00144681
6.01471e-05
0.0142774
-0.00149694
9.86462e-05
0.0141029
-0.00163094
-8.48289e-05
0.0140817
-0.00142848
-8.42983e-05
0.0137982
-0.000744253
0.000161857
-0.000620429
0.000103622
0.013571
0.000591279
1.12507e-06
0.0140101
0.000652302
-0.000192648
0.0148286
0.00147497
0.000197063
0.0157738
0.00174885
0.000273304
0.0163733
0.0011688
0.000121854
0.0166228
0.000549274
0.000168992
0.0167302
0.000469915
0.00013644
0.0165816
0.000265801
-7.54066e-05
0.0162089
-0.000563881
-0.0001639
0.0160176
-0.000955823
-8.58234e-05
0.015724
-0.000783511
-0.000101194
0.0154722
-0.000790319
-0.000142036
0.0152631
-0.000925636
-1.89468e-07
0.0147095
-0.000949547
0.000151966
0.0142521
-0.00110522
0.000115852
0.0137945
-0.00109758
5.82325e-05
0.0130747
-0.000977712
6.65513e-05
0.012556
-0.000976133
6.63492e-05
0.0125998
-0.000739224
-4.88326e-05
-0.000591285
-7.18168e-05
0.0136011
0.000304792
1.97082e-05
0.0138666
0.000445173
-5.8391e-05
0.0145429
0.000800526
-1.853e-06
0.0152479
0.000969491
7.44075e-05
0.0155137
0.000766466
0.000136492
0.0155513
0.00040234
0.000109338
0.0157602
0.000253009
7.98917e-06
0.0159239
0.000152256
-5.01601e-05
0.0156446
-0.00021756
-6.69653e-05
0.0153415
-0.000570897
-8.18536e-05
0.0151581
-0.000549576
-5.04728e-05
0.0148296
-0.000483196
2.13408e-05
0.0144803
-0.000624246
4.79388e-05
0.0141582
-0.000665645
3.81411e-05
0.0136749
-0.000650705
2.88056e-05
0.0133164
-0.000743911
4.87383e-06
0.0131351
-0.000774718
-2.1722e-05
0.0128123
-0.000622225
-3.11565e-05
0.0124941
-0.00041193
-9.08533e-06
-0.000371133
6.21195e-06
0.0134826
0.00014847
7.04954e-06
0.0137229
0.000217108
-1.22533e-05
0.0141528
0.00038075
-1.01237e-05
0.0146554
0.000450823
1.6111e-05
0.015052
0.000341995
2.78915e-05
0.0152512
0.000179627
2.35141e-05
0.0153722
0.000124592
7.37468e-06
0.0154647
7.00464e-05
-1.03192e-05
0.0153739
-0.00010638
-2.03148e-05
0.0150528
-0.000231581
-1.82129e-05
0.0147739
-0.000260991
-9.68283e-06
0.014569
-0.000275038
-3.30377e-06
0.0142368
-0.000296921
4.93266e-06
0.0138874
-0.000323148
6.86528e-06
0.0135798
-0.000347952
4.79241e-06
0.0131558
-0.000324956
5.08286e-06
0.0127023
-0.000327865
6.66184e-06
0.0124011
-0.000329162
8.15441e-06
0.0122375
-0.000246634
-1.74165e-06
-0.000204842
-4.92741e-06
0.0134803
1.53147e-06
0.0136995
-2.14447e-06
0.0140832
-2.9635e-06
0.0145313
2.77067e-06
0.0148653
7.95078e-06
0.0150364
8.59832e-06
0.0151576
3.39668e-06
0.0152305
-2.86569e-06
0.0151303
-6.17102e-06
0.0149046
-5.90271e-06
0.0146462
-2.62684e-06
0.0143698
1.36066e-06
0.0140699
2.99493e-06
0.013744
2.73441e-06
0.0133946
1.49966e-06
0.0130696
4.73582e-08
0.0127426
-8.42763e-07
0.0124142
-7.9409e-07
0.012168
-4.88153e-07
-1.31442e-07
0.0134308
-9.78974e-05
-2.39292e-06
0.013652
-0.000222892
7.37865e-06
0.0140912
-0.00043601
9.32967e-07
0.0145951
-0.000498249
-1.49407e-05
0.0149111
-0.000314422
-1.2999e-05
0.0150024
-9.29014e-05
-4.3338e-06
0.015009
-8.10616e-06
3.06001e-06
0.0149579
5.25948e-05
3.96078e-06
0.014795
0.000166205
3.23541e-06
0.0145921
0.000206267
2.2402e-06
0.0144015
0.000192991
7.02037e-07
0.0141962
0.00020667
-5.06435e-07
0.0139688
0.000227829
-3.79508e-07
0.0137238
0.00024526
-2.31755e-07
0.0134477
0.00027622
-2.34237e-07
0.0131951
0.000252814
-1.68809e-07
0.0128897
0.000305286
5.25811e-08
0.0125707
0.000319041
4.96344e-08
0.0122842
0.000286453
-2.62945e-07
0.000272367
-3.01724e-07
0.0134177
-0.000182815
-1.28647e-05
0.0136474
-0.000460367
2.96679e-05
0.0141299
-0.00090529
1.36994e-05
0.0147285
-0.00107292
-5.49726e-05
0.0151043
-0.000680128
-5.09624e-05
0.0152158
-0.000207823
-1.10775e-05
0.0152309
-2.46422e-05
1.42326e-05
0.0152146
7.45656e-05
2.25097e-05
0.0150725
0.000317947
1.77654e-05
0.0147734
0.000518453
7.90426e-06
0.014545
0.000432738
3.75345e-06
0.0143594
0.000398767
1.72089e-06
0.0140401
0.000551277
-4.89728e-06
0.0137529
0.000535533
-6.2276e-06
0.0135371
0.000493116
-6.26432e-07
0.0132489
0.000540703
1.06513e-06
0.0129003
0.000653602
-1.44824e-06
0.0126663
0.000553863
-1.20007e-06
0.012436
0.000517216
5.67488e-06
0.00054356
4.82468e-06
0.013518
-0.000368605
-7.09871e-05
0.0137723
-0.000755553
0.000129698
0.0145343
-0.00159863
0.000130595
0.0153257
-0.00174306
-0.000219894
0.0155631
-0.000855908
-0.000404166
0.0155371
-0.000214147
-0.000232059
0.015636
-0.000166785
7.65888e-05
0.0155707
0.000171534
0.000162098
0.0151476
0.000821501
0.000108476
0.0148806
0.000869913
6.04353e-05
0.0148089
0.0005627
1.2597e-05
0.0146155
0.000624749
-1.28764e-05
0.0144429
0.0007357
1.0133e-05
0.0142638
0.000715733
2.32033e-05
0.0138655
0.000892464
2.92576e-06
0.0135605
0.000849545
-2.34371e-06
0.0133196
0.000897228
6.11345e-06
0.0129179
0.00095596
7.34462e-06
0.0125314
0.000902718
-1.18508e-05
0.000837164
-1.43727e-05
0.013478
-0.000512627
-0.000137155
0.0138593
-0.00120021
0.000227123
0.0147149
-0.00233196
0.000109739
0.015829
-0.00256263
-0.000231836
0.0163441
-0.00109753
-0.000728405
0.0165304
-0.000380968
-0.000945469
0.0166545
-0.000500607
-0.000324281
0.0163975
0.000275775
0.000579879
0.0159768
0.00139605
0.000754217
0.0158183
0.00133205
0.000408067
0.015529
0.00112726
0.000236008
0.0151616
0.00118411
0.000152081
0.0147729
0.00124633
-4.03346e-05
0.0142153
0.00135215
-0.000177725
0.0139985
0.00115557
-8.47824e-05
0.0139339
0.000929138
-1.21144e-05
0.0134937
0.00133918
-3.44079e-05
0.0131348
0.00131477
2.7054e-06
0.0129676
0.00107882
6.69034e-05
0.00109608
4.90015e-05
0.0137448
-0.00101299
-0.000142366
0.0145374
-0.00194136
0.000742733
0.015856
-0.00325025
-0.000115892
0.0168231
-0.00340898
-0.0009998
0.0173363
-0.00122219
-0.00124211
0.0178281
-0.000537172
-0.00142166
0.0181154
-0.000810159
-0.0018887
0.0176046
0.000182624
-0.00108239
0.0170058
0.00143396
0.000906334
0.0164787
0.00197686
0.00175719
0.0160153
0.00203309
0.000875074
0.0159045
0.00164478
0.000224875
0.0157205
0.00162445
0.000338556
0.0155256
0.00162652
0.000434796
0.0151987
0.00150878
0.000129176
0.0146453
0.00153455
-0.000139592
0.0141059
0.00194183
8.81894e-06
0.0138386
0.00165026
-0.000101816
0.0137197
0.00124903
-0.000210964
0.00130938
-5.07243e-05
0.0138312
-0.00163519
0.000177409
0.0146136
-0.00222201
-0.000737933
0.0168281
-0.00463122
-6.96311e-05
0.0196748
-0.00194664
0.00166686
-0.00136277
-0.00193962
-0.00153024
0.0197492
-0.000466904
-0.00177881
3.4251e-05
-0.000868921
-0.00083139
0.0198947
-0.000899084
-0.000998417
0.0203101
-0.00106446
0.000624053
0.0202158
0.000309962
-0.000373504
0.0196106
0.00137878
-0.00114385
0.0182223
0.00264259
0.000232856
0.0168502
0.00338571
0.00165377
0.0160887
0.00299493
0.000495002
0.0157111
0.00265976
-0.000980517
0.0157872
0.00197359
-0.000717687
0.015552
0.00196414
8.93449e-05
0.0150766
0.00213137
0.000545319
0.0147151
0.00243854
7.85952e-05
0.0140555
0.00239389
0.000319348
0.0131095
0.00209863
0.000497878
0.00183756
-0.000113761
0.0147618
-0.00255901
0.0012626
0.0158066
-0.00273164
-0.00365956
0.00473575
-0.002021
0.000197636
-0.00240503
-0.00228275
-0.00193253
0.00537462
0.00477556
0.00520607
-0.00144403
0.00537454
-0.00267931
0.00153791
-0.00204897
-0.00568933
0.00549384
-0.000800902
0.00257846
0.0222428
-0.000130766
0.000683271
9.63932e-05
-0.000355413
0.00016853
-0.00525023
-0.00549981
-0.00578127
-0.00585262
0.021699
-0.000259365
0.0017075
0.0221656
-0.000185916
0.000911725
0.0228817
0.00030414
-0.00076371
0.0221606
0.00247024
-0.000593579
0.0207719
0.00429759
5.45965e-05
0.0195392
0.00451535
-0.000499298
0.0184591
0.00432047
-0.00114401
0.0181408
0.00278403
-0.00124678
0.0182965
0.00207626
-0.00055843
0.0189226
0.00156267
9.59417e-05
0.0190542
0.00229213
0.000304565
0.0189401
0.00238152
0.00073681
0.0180799
0.00296705
-0.00025645
0.00302526
-0.000607117
0.0142
-0.00261523
-0.000644253
0.00485676
-0.00192886
-0.00315947
0.00467215
0.0049385
0.00416446
-0.00100499
-0.00257926
-0.00150649
-0.000804214
0.00526402
-0.00269296
0.00106891
-0.000210747
-0.00169134
0.00101603
0.00186892
-0.00124908
0.00026622
-6.3682e-05
-0.00168107
0.000288781
0.00159219
-0.000205929
6.97078e-05
-0.00193571
-0.00141726
0.00483402
0.00163617
-0.000953561
-0.00141403
-0.000966347
3.90466e-05
3.40338e-05
-2.45158e-05
3.73877e-05
0.0165263
-0.000608158
-0.00384072
-0.00464287
-0.0014102
-0.00531931
-0.0025759
-0.00063357
-0.000435293
-0.000634509
0.0168821
-0.00108092
-0.00438725
0.0174432
-0.000373889
-0.00200424
0.0176882
0.00246672
-0.000981066
0.0187466
0.00368085
-0.000503722
0.0190749
0.00402963
0.000789198
0.0186459
0.00393761
0.00187214
0.0183607
0.00217014
0.00233127
0.0180415
0.00172065
0.0014101
0.0183693
0.000885496
0.000327713
0.0186472
0.00172812
0.000269752
0.0188796
0.00200591
-7.49407e-05
0.0188766
0.00305691
-0.000187707
0.00326876
0.000261926
0.00267172
-0.00141073
-0.00408855
0.00327416
0.00316989
0.0036769
-0.000171468
0.00304469
-0.00120076
-0.0009296
-0.000158175
0.00134062
-0.00165543
0.00167459
-0.00153774
0.000336126
0.00233965
0.000180399
-0.000714436
-0.000512752
-0.00233036
0.000183804
9.76953e-05
0.000147839
0.00172811
-0.00378062
-0.00147362
0.000446353
-0.000162292
0.000430254
-0.000262881
0.00358987
-0.00116491
0.000810815
0.00530053
0.0015992
0.000262769
0.00591424
0.00279581
0.00225403
0.00659096
0.00198477
0.00126355
0.00740176
0.00196138
0.000373584
0.00777598
0.00113432
0.000423662
0.00864109
0.000604309
-0.000206625
0.0100778
-0.000567153
-0.000176481
0.0114782
0.000331638
-7.23288e-06
0.013009
0.000527583
0.000240171
0.0145368
0.00146639
0.000670737
0.00205469
0.000378896
0.00365444
0.00129524
-1.06883e-05
-0.000475714
0.00450724
0.000390148
0.00503298
0.000487483
-0.000562192
-0.00467871
0.00114079
0.000421417
0.0010399
0.000772777
-0.000619662
0.000475609
-0.000750356
0.000894409
0.000338073
0.000155028
5.89151e-05
-3.25639e-06
-0.000203541
-0.000345219
-0.00541568
-0.000647778
0.000842905
0.000737248
0.0016515
0.000837185
0.00161871
-0.0054081
-0.000997731
0.000612173
-0.00479526
9.86115e-06
0.000321567
-0.00377127
0.00108707
0.0013835
-0.00326205
0.00160997
-0.000557299
-0.00170615
0.000660032
-0.00204474
-0.000722276
0.00012738
-0.000623132
0.000846383
-0.000850521
-0.000618081
0.00227003
-0.00187188
-9.30679e-05
0.00377331
-0.00110118
2.44307e-06
0.00554141
-0.00122331
0.00020581
0.00697237
-4.77275e-06
5.75901e-05
0.000852643
-0.00025057
0.00376194
0.00281606
-0.00569524
0.0072431
-0.000539328
0.00360205
-0.0024747
4.33618e-05
0.00105569
0.00298907
0.000303768
0.00076881
0.000364418
0.000711524
0.000137561
-0.000105931
1.63548e-05
0.000106604
-0.000154589
-0.0053295
0.00349685
-0.00125185
0.000746685
0.000930023
0.000860116
0.00104068
-0.00532269
-0.000533307
0.000595384
-0.00537708
-0.00112444
0.00184546
-0.0040799
-0.000429577
-0.000620419
-0.00292134
0.00106091
-0.000824155
-0.00108615
-0.000766353
5.48726e-05
0.000167022
-0.00125611
6.0207e-06
0.00167567
-0.00242986
3.53967e-05
0.002339
-0.00268299
0.000903228
0.00334869
-0.00218073
0.000939742
0.00419129
-0.00213072
0.000887717
0.00499685
-0.000836885
0.000739444
-0.000443083
0.000107284
0.0046233
0.00234532
-0.00324987
0.00391363
0.00258825
0.00293056
-0.00337563
-0.00160416
0.00363746
0.00139514
0.00457049
0.000988423
-0.000535435
-0.000582399
0.00108168
-0.000952272
9.48488e-05
-0.000117953
-2.15008e-05
0.000478192
7.3467e-05
-4.90284e-05
-0.000141854
-0.000129005
-0.000142402
-2.21365e-05
-1.18273e-05
-1.07994e-05
0.000808778
0.000234936
-0.000855893
-9.76667e-05
0.000875205
0.000160451
0.000952473
0.00250983
-0.00114497
0.00056583
0.00337926
-0.0021144
0.000486729
0.00410469
-0.00160025
-0.00103319
0.00610236
-0.00139122
0.000585591
0.00846251
-0.00312509
8.8616e-05
0.00984225
-0.00271426
-0.000753718
0.0113798
-0.00409896
-0.000914973
0.0121779
-0.00372882
-0.000636495
0.012538
-0.00290111
0.000316791
0.0126877
-0.00254353
0.000289216
0.0126473
-0.00106436
0.000913388
-0.00103151
0.000660117
0.0130656
0.00247793
-0.00159237
0.00303512
0.00614661
-0.00183742
-0.00213574
-0.00192298
-0.00250441
-0.00195458
0.0045608
0.00286569
0.00429898
-0.00146974
-0.00144843
0.00365712
0.00143429
-0.00103477
-0.00149117
-0.00110088
0.00120297
0.00104135
0.00121465
0.00102973
0.000436746
0.000190546
-0.000185856
-0.000441436
0.014968
0.000341486
-0.00100109
-0.000150435
-0.000696227
-0.000219094
-0.000784683
-0.00157201
-0.00516213
-0.00110774
-0.00496928
0.0163192
-0.0009554
0.000857859
0.0173073
-0.0016018
-8.21639e-05
0.0172467
-0.00260142
5.82122e-05
0.0177539
-0.00295421
-0.000109423
0.0183077
-0.00278311
0.00042254
0.0186775
-0.00401915
0.000372071
0.0193029
-0.00364637
-0.000322033
0.0192498
-0.00419579
-0.000398107
0.019371
-0.00370123
-0.000780152
0.0194404
-0.00296862
-0.000446307
0.0194948
-0.00247703
-0.000651935
0.0195513
-0.00108985
-7.73205e-05
-0.00111555
0.000432996
0.0137325
0.00179859
2.67484e-05
0.0160352
0.00468747
-0.00191782
0.00569532
0.00544139
-0.000963851
-0.00327557
-0.00265825
-0.00373706
-0.00271533
0.0054152
0.00558661
0.00521152
-0.000776299
0.000954857
0.00645879
0.00166859
-0.000696284
-0.000621628
-0.000741995
-0.000550713
4.29024e-05
-0.00269198
-0.00655251
0.00593582
-0.000140038
0.00308331
4.13431e-05
0.000160882
0.000120281
0.0225612
0.00244619
-0.00268436
-0.000564697
-1.58704e-05
-0.00077819
-0.000120774
-0.0056268
-0.00539836
-0.00596055
-0.00567594
0.0222896
0.000910044
-0.000736076
0.0220655
-0.000812569
-0.000668218
0.0219566
-0.00160028
-1.72909e-05
0.0213297
-0.00210642
0.000568596
0.0210569
-0.00259907
-9.27617e-05
0.0212223
-0.00271828
-0.00102499
0.0207402
-0.00337766
-0.00081904
0.0204628
-0.00329608
-0.000118937
0.0195991
-0.00322157
0.00070117
0.0188678
-0.00271933
0.000636379
0.0181536
-0.00195207
0.000104326
0.0174514
-0.00152451
0.000438346
0.0174454
-0.000990245
9.25113e-05
-0.00108435
-0.000304158
0.013779
0.00129752
-0.000103656
0.0154505
0.00280572
-9.0915e-05
0.0173406
0.00296151
0.000275622
0.0187365
0.00194095
0.00109038
-0.00123097
-0.000594031
-0.000741911
-7.85589e-05
0.0195083
0.00156088
-0.0028988
2.40478e-05
2.43214e-05
-0.000242035
-0.000576066
0.0211565
0.00142346
-0.000673204
0.0207683
0.00077647
-9.01742e-05
0.0195489
-0.000342969
-0.000500978
0.0188854
-0.00113165
-0.00032187
0.0185548
-0.00124548
-0.000249642
0.0182764
-0.00156865
-0.000653551
0.0176992
-0.00158498
-0.000772389
0.0166019
-0.00195115
-0.000435684
0.0158365
-0.00222534
0.000250848
0.0149739
-0.00205696
0.000794116
0.0143357
-0.00200172
0.000666933
0.0142502
-0.00193207
0.000335475
0.0140771
-0.00150821
-7.24874e-05
0.0138248
-0.00081139
-0.0012188
-0.00077832
-0.000966919
0.0137743
0.000816755
-1.12016e-05
0.0148485
0.00137093
-0.000101989
0.0159993
0.00205354
0.00018103
0.0166455
0.00223274
-7.78873e-05
0.0174384
0.00148055
-0.000260037
0.0180389
0.000788674
-0.000241674
0.017784
0.000701226
-8.94964e-05
0.0171015
0.000213487
0.00027553
0.0170363
-0.000882294
0.000132339
0.0171581
-0.00110232
-0.000329499
0.0168442
-0.00113171
-0.000225116
0.0164824
-0.00120737
0.000219463
0.0157909
-0.00127282
0.000380847
0.0150735
-0.00154436
0.000212954
0.0145412
-0.00157526
0.000110726
0.014075
-0.00156329
0.000126429
0.0138073
-0.00167364
-7.55566e-05
0.0137925
-0.00147818
-9.95887e-05
0.0137507
-0.000736931
0.000129218
-0.00059108
9.02004e-05
0.0135791
0.000564536
9.5576e-06
0.0140541
0.000774406
-7.11502e-05
0.0148095
0.00142629
6.892e-05
0.015701
0.0015669
4.7711e-05
0.016298
0.000976818
2.85486e-05
0.0165708
0.000435707
0.000249189
0.0167293
0.000468809
0.00021031
0.016636
0.00033915
-0.000107791
0.0162854
-0.000464664
-0.000230851
0.0160777
-0.000867614
-0.000112833
0.0157165
-0.000756239
-0.000115555
0.0153856
-0.000841994
-0.000176472
0.0151622
-0.000995615
-5.39516e-05
0.0146638
-0.000995386
0.000101347
0.014261
-0.00113053
7.38757e-05
0.0138273
-0.00109562
2.43473e-05
0.0131311
-0.000957121
4.61704e-05
0.0126117
-0.000952614
6.02534e-05
0.0126165
-0.000729359
-6.12984e-05
-0.00059355
-8.82073e-05
0.0135975
0.000295581
2.51176e-05
0.0138797
0.00046669
-3.28374e-05
0.0145531
0.000805362
-5.43242e-05
0.0152384
0.00094052
1.55151e-05
0.0154904
0.000727513
0.000133749
0.0155292
0.000369443
0.000136767
0.0157511
0.000241986
1.29934e-05
0.0159376
0.000167543
-6.50431e-05
0.015674
-0.000189151
-7.88989e-05
0.0153614
-0.000549099
-8.78333e-05
0.0151559
-0.000543163
-5.8029e-05
0.0148137
-0.000485981
7.56542e-06
0.0144615
-0.000635361
3.9867e-05
0.0141412
-0.000676941
3.99707e-05
0.0136639
-0.000658442
3.40153e-05
0.0133125
-0.00075031
1.09452e-05
0.0131324
-0.000782007
-1.67045e-05
0.0128089
-0.000630365
-2.9908e-05
0.0124912
-0.000409481
-1.12595e-05
-0.000366165
4.29843e-06
0.0134809
0.000146823
8.25739e-06
0.0137241
0.000220163
-9.00392e-06
0.014155
0.000382318
-1.79203e-05
0.0146548
0.000446727
1.00513e-05
0.0150487
0.000333385
2.81201e-05
0.0152466
0.000170872
2.42085e-05
0.0153696
0.000121096
5.27499e-06
0.0154668
7.32899e-05
-1.33038e-05
0.0153788
-9.98807e-05
-2.1562e-05
0.0150567
-0.000225798
-1.94352e-05
0.0147745
-0.000259196
-1.14471e-05
0.0145675
-0.000277543
-4.68923e-06
0.0142349
-0.000300507
2.71463e-06
0.0138867
-0.00032589
3.94816e-06
0.0135799
-0.00034931
2.4705e-06
0.0131562
-0.000324738
3.25342e-06
0.0127021
-0.000326944
5.62459e-06
0.0124007
-0.000328412
7.627e-06
0.0122376
-0.000246301
-1.76074e-06
-0.000204823
-5.04788e-06
0.0134797
1.97754e-06
0.0136994
-1.6594e-06
0.0140833
-4.56621e-06
0.0145313
1.49348e-06
0.0148648
7.87939e-06
0.015036
8.23557e-06
0.0151573
3.15462e-06
0.0152308
-3.08394e-06
0.0151311
-6.29747e-06
0.0149056
-6.19148e-06
0.0146469
-3.12708e-06
0.0143701
6.18169e-07
0.01407