/*--------------------------------*- C++ -*----------------------------------*\
  =========                 |
  \\      /  F ield         | OpenFOAM: The Open Source CFD Toolbox
   \\    /   O peration     | Website:  https://openfoam.org
    \\  /    A nd           | Version:  8
     \\/     M anipulation  |
\*---------------------------------------------------------------------------*/
FoamFile
{
    version     2.0;
    format      ascii;
    class       surfaceScalarField;
    location    "19.5";
    object      phi;
}
// * * * * * * * * * * * * * * * * * * * * * * * * * * * * * * * * * * * * * //

dimensions      [0 3 -1 0 0 0 0];

internalField   nonuniform List<scalar> 
208
(
5.78972e-06
-5.78974e-06
1.58756e-05
-1.00858e-05
1.75005e-05
-1.62498e-06
1.56955e-05
1.80503e-06
-4.04571e-05
5.61527e-05
9.07597e-05
-0.000131217
-3.80339e-06
-1.98635e-06
-1.16166e-05
-2.27265e-06
-2.80422e-05
1.48006e-05
-6.04134e-05
3.41763e-05
-9.68974e-05
9.26366e-05
0.000108132
-0.000114269
-6.15173e-06
4.16538e-06
-1.959e-05
1.11656e-05
-3.58684e-05
3.1079e-05
-5.72614e-05
5.55694e-05
-7.37744e-05
0.00010915
0.000109968
-7.56106e-05
-8.94916e-06
1.31145e-05
-2.08613e-05
2.30777e-05
-3.1167e-05
4.13848e-05
-3.83453e-05
6.27476e-05
-3.85989e-05
0.000109403
0.000101796
-3.04272e-05
-4.89812e-06
1.80127e-05
-1.50726e-05
3.32522e-05
-2.04851e-05
4.67973e-05
-1.83824e-05
6.06449e-05
-3.61895e-06
9.46396e-05
8.31705e-05
1.50068e-05
-4.4762e-06
2.24889e-05
-7.05962e-06
3.58356e-05
-7.15229e-06
4.689e-05
-3.25339e-06
5.6746e-05
1.34079e-05
7.79783e-05
6.58065e-05
3.07719e-05
4.86966e-07
2.20019e-05
-7.87022e-06
4.41928e-05
-8.22719e-06
4.72469e-05
-2.3949e-06
5.09137e-05
1.70696e-05
5.85138e-05
4.93892e-05
3.3487e-05
4.97211e-06
1.70298e-05
1.10455e-05
3.81194e-05
1.60125e-05
4.228e-05
1.88623e-05
4.80639e-05
3.07371e-05
4.6639e-05
4.37944e-05
3.63318e-05
-4.8972e-05
6.60018e-05
-4.71252e-05
3.62727e-05
-3.96106e-05
3.47653e-05
-2.34205e-05
3.18738e-05
-2.82954e-06
2.6048e-05
2.46378e-05
1.63271e-05
6.60018e-05
0.000102274
0.00013704
0.000168914
0.000194962
0.000219599
-0.000124966
0.000129774
-0.000136025
-8.10114e-05
-4.65806e-05
2.62646e-06
-3.51777e-05
-7.21888e-05
2.63551e-05
-0.000142221
0.000107044
-9.667e-05
0.000112175
-8.21607e-05
-6.10899e-05
-4.84317e-05
-0.000105918
-0.000190653
-4.9001e-05
8.5565e-05
-4.36192e-05
-6.64716e-05
-3.19721e-05
-0.000117565
-0.000222625
-1.00601e-05
6.51979e-05
-1.595e-05
-6.05817e-05
-1.61908e-05
-0.000117324
-0.000238816
2.71567e-05
5.3048e-05
7.21821e-06
-4.06433e-05
-6.79846e-06
-0.000103307
-0.000245615
3.99841e-05
4.38358e-05
2.00457e-05
-2.07049e-05
3.48137e-06
-8.67431e-05
-0.000242133
4.38175e-05
3.35053e-05
1.74737e-05
5.63891e-06
-1.30121e-06
-6.79682e-05
-0.000243434
3.94964e-05
3.03407e-05
2.23599e-05
2.27754e-05
1.78009e-05
-6.34092e-05
-0.000225633
3.43814e-05
1.22864e-05
5.49159e-05
2.24098e-06
5.82595e-05
-6.67528e-05
-0.000167374
0.000231886
0.000234127
0.000167374
-2.20348e-05
2.20348e-05
-3.86368e-05
1.6602e-05
-3.43808e-05
-4.25605e-06
-3.43808e-05
-2.58132e-05
4.7848e-05
-3.41026e-05
2.48915e-05
-2.93838e-05
-8.9749e-06
-6.37646e-05
-3.50053e-05
8.28533e-05
-2.66972e-05
1.65834e-05
-2.8542e-05
-7.13014e-06
-9.23065e-05
-5.3172e-05
-3.39621e-05
-1.47372e-05
)
;

boundaryField
{
    movingWall
    {
        type            calculated;
        value           uniform 0;
    }
    fixedWalls
    {
        type            calculated;
        value           uniform 0;
    }
    frontAndBack
    {
        type            empty;
        value           nonuniform List<scalar> 0();
    }
}


// ************************************************************************* //
