/*--------------------------------*- C++ -*----------------------------------*\
  =========                 |
  \\      /  F ield         | OpenFOAM: The Open Source CFD Toolbox
   \\    /   O peration     | Website:  https://openfoam.org
    \\  /    A nd           | Version:  8
     \\/     M anipulation  |
\*---------------------------------------------------------------------------*/
FoamFile
{
    version     2.0;
    format      ascii;
    class       volScalarField;
    location    "1";
    object      T;
}
// * * * * * * * * * * * * * * * * * * * * * * * * * * * * * * * * * * * * * //

dimensions      [0 0 0 1 0 0 0];

internalField   nonuniform List<scalar> 
100
(
49.6361
5.24608
-4.78835
-1.74565
1.52218
0.367005
0.823255
-1.03393
-0.935401
0.20064
95.9409
49.0087
11.0352
-3.91518
-3.99008
1.58853
-0.350231
1.08468
0.733755
-0.445543
103.891
90.5332
49.3235
12.1557
-3.43342
-5.34118
3.12474
0.600509
-1.35016
-0.108775
102.188
103.121
88.5704
49.7957
13.1334
-3.401
-8.09593
3.65708
3.32318
-0.525164
98.2302
104.435
103.034
87.0843
49.9397
15.1308
-2.89259
-9.96733
1.764
3.16829
99.72
98.165
105.694
103.169
84.9922
49.8719
16.4343
-1.5132
-9.22968
-1.59805
100.185
98.7267
98.0449
107.557
103.213
83.5175
49.2632
15.7011
1.11973
-4.63405
100.193
100.466
97.9486
97.1512
109.523
102.028
85.3569
49.1634
9.84475
2.89384
100.236
100.361
100.617
96.9883
98.0425
109.186
99.9394
89.5481
49.6056
3.46687
99.9913
100.052
100.538
100.266
96.9694
101.384
104.431
97.6489
96.6113
49.8995
)
;

boundaryField
{
    left
    {
        type            fixedValue;
        value           uniform 100;
    }
    right
    {
        type            zeroGradient;
    }
    up
    {
        type            zeroGradient;
    }
    down
    {
        type            fixedValue;
        value           uniform 0;
    }
    frontAndBack
    {
        type            empty;
    }
}


// ************************************************************************* //
