/*--------------------------------*- C++ -*----------------------------------*\
  =========                 |
  \\      /  F ield         | OpenFOAM: The Open Source CFD Toolbox
   \\    /   O peration     | Website:  https://openfoam.org
    \\  /    A nd           | Version:  8
     \\/     M anipulation  |
\*---------------------------------------------------------------------------*/
FoamFile
{
    version     2.0;
    format      ascii;
    class       surfaceScalarField;
    location    "54.5";
    object      phi;
}
// * * * * * * * * * * * * * * * * * * * * * * * * * * * * * * * * * * * * * //

dimensions      [0 3 -1 0 0 0 0];

internalField   nonuniform List<scalar> 
208
(
1.96958e-05
-1.96959e-05
3.41048e-05
-1.44089e-05
3.41588e-05
-5.40172e-08
1.07565e-05
2.34023e-05
-6.90873e-05
7.98438e-05
7.41181e-05
-0.000143205
2.83087e-06
-2.25267e-05
-1.10805e-05
-4.97575e-07
-5.38611e-05
4.27266e-05
-0.000109174
7.87148e-05
-0.00013879
0.00010946
7.36912e-05
-0.000138363
-1.72059e-05
-5.32085e-06
-4.71813e-05
2.94778e-05
-8.06852e-05
7.62305e-05
-0.000108086
0.000106116
-0.000114537
0.000115911
5.6836e-05
-9.76814e-05
-2.24368e-05
1.71159e-05
-4.64817e-05
5.35228e-05
-6.9787e-05
9.95358e-05
-8.12071e-05
0.000117536
-7.21899e-05
0.000106893
3.61811e-05
-5.15351e-05
-1.60695e-05
3.31854e-05
-3.52805e-05
7.27338e-05
-4.62433e-05
0.000110499
-4.49274e-05
0.00011622
-3.29265e-05
9.48925e-05
3.03628e-05
-2.71082e-05
-7.23361e-06
4.0419e-05
-1.0524e-05
7.60242e-05
-8.93328e-06
0.000108908
-5.93925e-06
0.000113226
-4.35847e-07
8.93891e-05
3.53951e-05
-5.46811e-06
2.1018e-06
3.83172e-05
2.50137e-06
7.56246e-05
1.07142e-05
0.000100695
2.37997e-05
0.00010014
3.66242e-05
7.65647e-05
3.76441e-05
3.43751e-05
1.05203e-05
2.77969e-05
2.61289e-05
6.0016e-05
5.16477e-05
7.51762e-05
7.1071e-05
8.07169e-05
8.58911e-05
6.17446e-05
4.03259e-05
8.32094e-05
-3.69712e-05
6.47681e-05
-1.48469e-05
3.78917e-05
1.61899e-05
4.41394e-05
5.15175e-05
4.53893e-05
7.79636e-05
3.52985e-05
2.65334e-05
9.17561e-05
6.47681e-05
0.00010266
0.000146799
0.000192188
0.000227487
0.00025402
-0.000117243
9.70727e-05
-0.000123035
-6.86568e-05
-5.0893e-05
2.30645e-06
-1.99156e-05
-3.69627e-05
-1.17785e-05
-0.000152423
0.000132507
-0.00011351
7.22201e-05
-9.88821e-05
-6.5521e-05
-4.19328e-05
-9.39119e-05
-0.000194355
-6.69811e-05
4.15198e-05
-6.57573e-05
-6.67448e-05
-3.86742e-05
-0.000120995
-0.00023303
-2.82967e-05
1.82814e-05
-2.85152e-05
-6.65263e-05
-2.01118e-05
-0.000129398
-0.000253141
-1.36234e-05
4.79659e-06
-1.67952e-05
-6.33544e-05
-1.53069e-05
-0.000130887
-0.000268448
7.3709e-06
-8.04241e-06
3.03383e-06
-5.90174e-05
-3.56157e-06
-0.000124291
-0.00027201
3.52527e-05
-8.91999e-06
1.55387e-05
-3.93034e-05
1.9437e-06
-0.000110696
-0.000270066
7.14359e-05
2.85347e-06
4.36593e-05
-1.15268e-05
2.78e-05
-9.48371e-05
-0.000242266
8.85333e-05
6.07627e-06
8.54591e-05
-8.45263e-06
6.94838e-05
-7.88617e-05
-0.000172782
0.000260097
0.000251644
0.000172782
-3.92762e-05
3.92762e-05
-6.38184e-05
2.45421e-05
-6.03217e-05
-3.49668e-06
-6.03217e-05
-3.385e-05
7.31262e-05
-4.28094e-05
3.35016e-05
-4.49655e-05
-1.34058e-06
-0.000105287
-2.15461e-05
9.46723e-05
-8.84343e-06
2.07989e-05
-2.40917e-05
1.39076e-05
-0.000129379
-2.83626e-05
-5.25716e-06
-3.12806e-06
)
;

boundaryField
{
    movingWall
    {
        type            calculated;
        value           uniform 0;
    }
    fixedWalls
    {
        type            calculated;
        value           uniform 0;
    }
    frontAndBack
    {
        type            empty;
        value           nonuniform List<scalar> 0();
    }
}


// ************************************************************************* //
