/*--------------------------------*- C++ -*----------------------------------*\
  =========                 |
  \\      /  F ield         | OpenFOAM: The Open Source CFD Toolbox
   \\    /   O peration     | Website:  https://openfoam.org
    \\  /    A nd           | Version:  8
     \\/     M anipulation  |
\*---------------------------------------------------------------------------*/
FoamFile
{
    version     2.0;
    format      ascii;
    class       volScalarField;
    location    "1.13";
    object      p;
}
// * * * * * * * * * * * * * * * * * * * * * * * * * * * * * * * * * * * * * //

dimensions      [0 2 -2 0 0 0 0];

internalField   nonuniform List<scalar> 
400
(
5.11133e-15
-3.13736e-10
-9.73209e-10
-1.84052e-09
-2.73464e-09
-3.53781e-09
-4.21863e-09
-4.76195e-09
-5.13745e-09
-5.31729e-09
-5.29381e-09
-5.07307e-09
-4.67609e-09
-4.12929e-09
-3.47088e-09
-2.72646e-09
-1.943e-09
-1.17373e-09
-5.17995e-10
-8.62363e-11
-1.36201e-09
-1.51346e-09
-1.8693e-09
-2.34374e-09
-2.8652e-09
-3.37356e-09
-3.84309e-09
-4.24511e-09
-4.5414e-09
-4.70725e-09
-4.73357e-09
-4.62049e-09
-4.37301e-09
-4.01896e-09
-3.57695e-09
-3.08456e-09
-2.56282e-09
-2.07245e-09
-1.6673e-09
-1.42123e-09
-2.41125e-09
-2.42231e-09
-2.50927e-09
-2.69508e-09
-2.94212e-09
-3.24218e-09
-3.56719e-09
-3.87518e-09
-4.12522e-09
-4.30433e-09
-4.39998e-09
-4.39515e-09
-4.29371e-09
-4.10185e-09
-3.84901e-09
-3.54576e-09
-3.2331e-09
-2.92304e-09
-2.67019e-09
-2.49926e-09
-3.13299e-09
-3.00626e-09
-2.93534e-09
-2.93758e-09
-3.0386e-09
-3.22601e-09
-3.47237e-09
-3.72103e-09
-3.9524e-09
-4.15406e-09
-4.30602e-09
-4.38907e-09
-4.39077e-09
-4.32448e-09
-4.19198e-09
-4.02434e-09
-3.82071e-09
-3.61738e-09
-3.42365e-09
-3.25798e-09
-3.47847e-09
-3.30737e-09
-3.16264e-09
-3.10691e-09
-3.15864e-09
-3.31276e-09
-3.5155e-09
-3.73873e-09
-3.96487e-09
-4.18468e-09
-4.37289e-09
-4.50339e-09
-4.57072e-09
-4.56378e-09
-4.49586e-09
-4.37509e-09
-4.22609e-09
-4.03953e-09
-3.84476e-09
-3.65842e-09
-3.52723e-09
-3.35872e-09
-3.24183e-09
-3.2085e-09
-3.28542e-09
-3.43604e-09
-3.63432e-09
-3.8546e-09
-4.09153e-09
-4.3238e-09
-4.52336e-09
-4.67007e-09
-4.74715e-09
-4.7504e-09
-4.67413e-09
-4.54812e-09
-4.38066e-09
-4.17814e-09
-3.94618e-09
-3.72783e-09
-3.4329e-09
-3.30213e-09
-3.24572e-09
-3.27948e-09
-3.39143e-09
-3.5672e-09
-3.78124e-09
-4.02609e-09
-4.28036e-09
-4.51616e-09
-4.70728e-09
-4.83834e-09
-4.89748e-09
-4.86456e-09
-4.74887e-09
-4.5714e-09
-4.36417e-09
-4.12728e-09
-3.87659e-09
-3.63618e-09
-3.31073e-09
-3.21317e-09
-3.2261e-09
-3.32071e-09
-3.48346e-09
-3.69772e-09
-3.95502e-09
-4.23515e-09
-4.50708e-09
-4.73154e-09
-4.8904e-09
-4.98321e-09
-4.99881e-09
-4.92027e-09
-4.74726e-09
-4.51622e-09
-4.25498e-09
-3.99165e-09
-3.73646e-09
-3.49804e-09
-3.18502e-09
-3.12691e-09
-3.19662e-09
-3.35474e-09
-3.57282e-09
-3.84229e-09
-4.14526e-09
-4.45748e-09
-4.7324e-09
-4.92982e-09
-5.04062e-09
-5.0763e-09
-5.03711e-09
-4.90727e-09
-4.69142e-09
-4.41676e-09
-4.11993e-09
-3.8316e-09
-3.577e-09
-3.35111e-09
-3.08141e-09
-3.07001e-09
-3.19402e-09
-3.40758e-09
-3.6806e-09
-3.99199e-09
-4.32213e-09
-4.63882e-09
-4.89593e-09
-5.05593e-09
-5.11805e-09
-5.10036e-09
-5.00977e-09
-4.8426e-09
-4.60404e-09
-4.31731e-09
-4.0065e-09
-3.70416e-09
-3.43893e-09
-3.22192e-09
-3.0636e-09
-3.10041e-09
-3.26627e-09
-3.51725e-09
-3.81679e-09
-4.13813e-09
-4.45593e-09
-4.74369e-09
-4.96187e-09
-5.0849e-09
-5.11465e-09
-5.06686e-09
-4.94991e-09
-4.76845e-09
-4.53341e-09
-4.25791e-09
-3.95714e-09
-3.65264e-09
-3.37999e-09
-3.17116e-09
-3.19463e-09
-3.26262e-09
-3.4415e-09
-3.69129e-09
-3.97641e-09
-4.26494e-09
-4.53482e-09
-4.76488e-09
-4.93349e-09
-5.0257e-09
-5.04529e-09
-4.9963e-09
-4.88232e-09
-4.71197e-09
-4.49858e-09
-4.2518e-09
-3.9787e-09
-3.69831e-09
-3.44353e-09
-3.26276e-09
-3.47727e-09
-3.54434e-09
-3.69213e-09
-3.89492e-09
-4.12305e-09
-4.34669e-09
-4.54357e-09
-4.70496e-09
-4.8201e-09
-4.89007e-09
-4.91272e-09
-4.88253e-09
-4.79279e-09
-4.65255e-09
-4.4764e-09
-4.27295e-09
-4.05176e-09
-3.82782e-09
-3.63236e-09
-3.50474e-09
-3.83755e-09
-3.87737e-09
-3.95322e-09
-4.07196e-09
-4.21569e-09
-4.35506e-09
-4.47527e-09
-4.56735e-09
-4.63733e-09
-4.68701e-09
-4.717e-09
-4.70876e-09
-4.65304e-09
-4.55503e-09
-4.42948e-09
-4.28858e-09
-4.14216e-09
-4.00584e-09
-3.89494e-09
-3.83795e-09
-4.16676e-09
-4.16473e-09
-4.16069e-09
-4.18558e-09
-4.23829e-09
-4.29812e-09
-4.34815e-09
-4.38976e-09
-4.42259e-09
-4.45861e-09
-4.48732e-09
-4.49575e-09
-4.47029e-09
-4.41781e-09
-4.35016e-09
-4.27987e-09
-4.22046e-09
-4.17426e-09
-4.15145e-09
-4.15292e-09
-4.35565e-09
-4.3261e-09
-4.26785e-09
-4.22898e-09
-4.21654e-09
-4.21674e-09
-4.22536e-09
-4.23343e-09
-4.2503e-09
-4.27116e-09
-4.29496e-09
-4.30454e-09
-4.2992e-09
-4.28107e-09
-4.25914e-09
-4.24582e-09
-4.24899e-09
-4.27097e-09
-4.30182e-09
-4.34237e-09
-4.35054e-09
-4.31828e-09
-4.26044e-09
-4.21213e-09
-4.18219e-09
-4.16742e-09
-4.16169e-09
-4.16837e-09
-4.17865e-09
-4.19575e-09
-4.20483e-09
-4.20677e-09
-4.19971e-09
-4.18968e-09
-4.17923e-09
-4.17824e-09
-4.1995e-09
-4.23523e-09
-4.27858e-09
-4.32051e-09
-4.13491e-09
-4.15379e-09
-4.14204e-09
-4.1384e-09
-4.14656e-09
-4.16e-09
-4.18358e-09
-4.21007e-09
-4.24017e-09
-4.25669e-09
-4.25658e-09
-4.23478e-09
-4.20207e-09
-4.15935e-09
-4.11172e-09
-4.07365e-09
-4.05638e-09
-4.05789e-09
-4.06191e-09
-4.09026e-09
-3.76681e-09
-3.85477e-09
-3.92855e-09
-4.004e-09
-4.09152e-09
-4.18333e-09
-4.27429e-09
-4.36359e-09
-4.43386e-09
-4.47217e-09
-4.46126e-09
-4.4073e-09
-4.318e-09
-4.204e-09
-4.0757e-09
-3.95394e-09
-3.8563e-09
-3.77618e-09
-3.71985e-09
-3.70999e-09
-3.37817e-09
-3.51429e-09
-3.67025e-09
-3.83888e-09
-4.02404e-09
-4.21572e-09
-4.40653e-09
-4.58031e-09
-4.71684e-09
-4.78669e-09
-4.7756e-09
-4.68383e-09
-4.52818e-09
-4.32604e-09
-4.09979e-09
-3.8775e-09
-3.67996e-09
-3.50764e-09
-3.36938e-09
-3.31678e-09
)
;

boundaryField
{
    movingWall
    {
        type            zeroGradient;
    }
    fixedWalls
    {
        type            zeroGradient;
    }
    left
    {
        type            cyclic;
    }
    right
    {
        type            cyclic;
    }
    frontAndBack
    {
        type            empty;
    }
}


// ************************************************************************* //
