/*--------------------------------*- C++ -*----------------------------------*\
  =========                 |
  \\      /  F ield         | OpenFOAM: The Open Source CFD Toolbox
   \\    /   O peration     | Website:  https://openfoam.org
    \\  /    A nd           | Version:  8
     \\/     M anipulation  |
\*---------------------------------------------------------------------------*/
FoamFile
{
    version     2.0;
    format      ascii;
    class       volScalarField;
    location    "0.345";
    object      p;
}
// * * * * * * * * * * * * * * * * * * * * * * * * * * * * * * * * * * * * * //

dimensions      [0 2 -2 0 0 0 0];

internalField   nonuniform List<scalar> 
400
(
4.15071e-06
-0.00582237
-0.0129594
-0.0184111
-0.0204282
-0.0182344
-0.0117701
-0.00148041
0.01184
0.027151
0.0432455
0.0588234
0.0725784
0.0833078
0.090052
0.0922664
0.0900258
0.0842446
0.0768821
0.071069
0.00578257
-0.000216047
-0.00580142
-0.00953968
-0.0105958
-0.00842954
-0.0029669
0.00547683
0.0163051
0.0287134
0.041751
0.0543868
0.0655869
0.0744102
0.0801205
0.0823161
0.081078
0.0770562
0.071276
0.0653202
0.0133361
0.00503518
-0.000993382
-0.00442089
-0.0052705
-0.00326142
0.00160482
0.00902987
0.018504
0.0293509
0.0407667
0.0518707
0.0617694
0.0696372
0.0748079
0.0768791
0.075843
0.0720877
0.0658079
0.0575385
0.0201396
0.00869689
0.00122734
-0.00266673
-0.00372011
-0.00188319
0.00273342
0.00978665
0.0187823
0.0290967
0.0399934
0.0506553
0.0602342
0.0679172
0.0730045
0.075003
0.0737676
0.0694583
0.0616058
0.0501062
0.0245016
0.0097737
0.000590984
-0.00398534
-0.00530042
-0.00350539
0.00117675
0.00833658
0.017464
0.0279509
0.0390867
0.0500715
0.0600504
0.0681666
0.0736281
0.0757996
0.0743712
0.0692924
0.0595288
0.0445412
0.0251774
0.00715057
-0.00380086
-0.00905565
-0.0105103
-0.00849797
-0.0033547
0.00443159
0.0143155
0.0256812
0.0378159
0.0499053
0.06105
0.070305
0.0767367
0.0795191
0.0781415
0.0723365
0.0605428
0.0418944
0.0210933
-0.000261595
-0.0129331
-0.0187076
-0.0200278
-0.0174117
-0.011316
-0.00231719
0.00899299
0.0219788
0.0359122
0.0499468
0.0631145
0.0743476
0.0825242
0.086572
0.0857235
0.0794503
0.0656241
0.0430762
0.0111434
-0.0136169
-0.0278733
-0.0338521
-0.0346011
-0.0308548
-0.02321
-0.0123422
0.00110792
0.016487
0.0330556
0.0499366
0.0660863
0.0802927
0.0912034
0.0974328
0.0978733
0.0916394
0.0759001
0.0491209
-0.00596559
-0.0342645
-0.0498677
-0.055546
-0.0550872
-0.0495114
-0.0395902
-0.0261098
-0.00975347
0.00882669
0.0289047
0.0495971
0.069801
0.0881578
0.103051
0.112704
0.115554
0.110195
0.092838
0.0614156
-0.0318543
-0.0638732
-0.0804139
-0.085004
-0.0824167
-0.0740747
-0.060977
-0.0440326
-0.0239473
-0.00133262
0.0231499
0.0486652
0.0740996
0.0979761
0.1184
0.133129
0.139992
0.136821
0.118444
0.0819376
-0.0686632
-0.104599
-0.121341
-0.123586
-0.117512
-0.105123
-0.0877139
-0.0663209
-0.0416323
-0.0141508
0.0156104
0.0469579
0.0788603
0.109798
0.137628
0.159589
0.17273
0.173781
0.155524
0.113574
-0.119397
-0.159352
-0.17491
-0.172753
-0.161144
-0.142924
-0.119754
-0.092772
-0.0625723
-0.0294424
0.00637834
0.0444786
0.0840601
0.123708
0.16114
0.19309
0.215672
0.22408
0.208054
0.160635
-0.188622
-0.232236
-0.243934
-0.233943
-0.21369
-0.18715
-0.156367
-0.122496
-0.0858924
-0.0464666
-0.00400888
0.0415443
0.0898474
0.139834
0.189323
0.234693
0.271078
0.291667
0.281745
0.229778
-0.283968
-0.329299
-0.331826
-0.308275
-0.274704
-0.236435
-0.195759
-0.153605
-0.109834
-0.0637392
-0.014432
0.0388692
0.0965597
0.158282
0.222379
0.285292
0.341401
0.381578
0.384917
0.331836
-0.419311
-0.459665
-0.442345
-0.395787
-0.342124
-0.287735
-0.234611
-0.182924
-0.131603
-0.0789788
-0.0232077
0.0374814
0.104559
0.178843
0.259866
0.344975
0.42862
0.499703
0.529678
0.485393
-0.620525
-0.636738
-0.578672
-0.494188
-0.411236
-0.335654
-0.267776
-0.205972
-0.147531
-0.0893768
-0.0284196
0.0383547
0.113813
0.200477
0.29998
0.41203
0.533033
0.651779
0.732774
0.722397
-0.935917
-0.878509
-0.741737
-0.597944
-0.474389
-0.372655
-0.288864
-0.217758
-0.153948
-0.0924579
-0.0287109
0.0417021
0.12327
0.220724
0.338931
0.482159
0.652001
0.841345
1.01527
1.09751
-1.47642
-1.20663
-0.920499
-0.691384
-0.517302
-0.38754
-0.290057
-0.213333
-0.148119
-0.0872098
-0.0245715
0.0454638
0.128944
0.233077
0.367108
0.542683
0.771297
1.05932
1.40329
1.73014
-2.53964
-1.63054
-1.04443
-0.710956
-0.495748
-0.352091
-0.254528
-0.183579
-0.126165
-0.0735897
-0.0192631
0.0427932
0.119219
0.218789
0.354818
0.547989
0.826397
1.23658
1.91168
2.9242
-4.36666
-2.04463
-0.973539
-0.563179
-0.357845
-0.240145
-0.170117
-0.12378
-0.0874772
-0.0535052
-0.0166485
0.0276672
0.0846144
0.161737
0.272418
0.442105
0.718224
1.22571
2.41104
4.84853
)
;

boundaryField
{
    movingWall
    {
        type            zeroGradient;
    }
    fixedWalls
    {
        type            zeroGradient;
    }
    frontAndBack
    {
        type            empty;
    }
}


// ************************************************************************* //
