/*--------------------------------*- C++ -*----------------------------------*\
  =========                 |
  \\      /  F ield         | OpenFOAM: The Open Source CFD Toolbox
   \\    /   O peration     | Website:  https://openfoam.org
    \\  /    A nd           | Version:  8
     \\/     M anipulation  |
\*---------------------------------------------------------------------------*/
FoamFile
{
    version     2.0;
    format      ascii;
    class       volVectorField;
    location    "0.345";
    object      U;
}
// * * * * * * * * * * * * * * * * * * * * * * * * * * * * * * * * * * * * * //

dimensions      [0 1 -1 0 0 0 0];

internalField   nonuniform List<vector> 
400
(
(0.00025339 -0.000250427 0)
(0.000141196 0.000111422 0)
(-0.00117696 0.000564581 0)
(-0.00348103 0.000884948 0)
(-0.00637731 0.00104567 0)
(-0.00946921 0.0010617 0)
(-0.0124026 0.000957808 0)
(-0.0148846 0.000760407 0)
(-0.0166891 0.000494628 0)
(-0.0176579 0.000184559 0)
(-0.0177018 -0.000145258 0)
(-0.0168047 -0.000468349 0)
(-0.0150298 -0.000755391 0)
(-0.0125249 -0.000974238 0)
(-0.0095262 -0.00109116 0)
(-0.00635487 -0.00107398 0)
(-0.00340059 -0.000898096 0)
(-0.00108642 -0.000556376 0)
(0.000196417 -9.03673e-05 0)
(0.000267854 0.000262376 0)
(-7.74644e-05 -0.000169363 0)
(-0.00161153 0.00164479 0)
(-0.0056928 0.00361722 0)
(-0.0117187 0.00503471 0)
(-0.018892 0.00574311 0)
(-0.0264004 0.00576009 0)
(-0.0334687 0.00517157 0)
(-0.0394263 0.00409244 0)
(-0.0437435 0.00264759 0)
(-0.0460466 0.000966922 0)
(-0.046129 -0.000813193 0)
(-0.0439609 -0.00254702 0)
(-0.0397008 -0.00407857 0)
(-0.0337024 -0.00524503 0)
(-0.0265132 -0.00588649 0)
(-0.0188544 -0.00586478 0)
(-0.0115666 -0.00509469 0)
(-0.00551326 -0.00358938 0)
(-0.00149308 -0.00155912 0)
(-4.25803e-05 0.000227448 0)
(-0.0005286 0.00109161 0)
(-0.00371135 0.00573621 0)
(-0.0105888 0.0102243 0)
(-0.0199916 0.0134075 0)
(-0.0307646 0.0149461 0)
(-0.041822 0.0148386 0)
(-0.0521196 0.0132555 0)
(-0.0607439 0.0104561 0)
(-0.0669692 0.00674191 0)
(-0.0702824 0.00243885 0)
(-0.0704004 -0.0021065 0)
(-0.0672841 -0.00652537 0)
(-0.0611522 -0.0104291 0)
(-0.0524883 -0.0134209 0)
(-0.0420369 -0.0151233 0)
(-0.0307738 -0.0152255 0)
(-0.019829 -0.0135559 0)
(-0.0103635 -0.0101788 0)
(-0.00354851 -0.00555103 0)
(-0.000476844 -0.000948828 0)
(-0.000928215 0.0034798 0)
(-0.00569146 0.0122205 0)
(-0.0153017 0.0199215 0)
(-0.0279168 0.0251975 0)
(-0.0419853 0.0275966 0)
(-0.056179 0.0271372 0)
(-0.069252 0.0241086 0)
(-0.0801256 0.0189536 0)
(-0.0879481 0.0121954 0)
(-0.0921188 0.00440503 0)
(-0.0923034 -0.00380792 0)
(-0.0884502 -0.0117964 0)
(-0.080805 -0.0188819 0)
(-0.0699229 -0.024376 0)
(-0.0566692 -0.0276273 0)
(-0.0421948 -0.0281015 0)
(-0.0278566 -0.0254974 0)
(-0.0150936 -0.0198915 0)
(-0.00550503 -0.0119276 0)
(-0.000861598 -0.00322484 0)
(-0.00127892 0.00687772 0)
(-0.00753602 0.0209534 0)
(-0.0198048 0.03251 0)
(-0.0355349 0.0401027 0)
(-0.0527435 0.0432897 0)
(-0.0698586 0.0421922 0)
(-0.0854635 0.0372771 0)
(-0.0983607 0.0292127 0)
(-0.10762 0.018777 0)
(-0.112589 0.00681364 0)
(-0.112897 -0.0057803 0)
(-0.108474 -0.0180545 0)
(-0.0995624 -0.029011 0)
(-0.0867394 -0.0376322 0)
(-0.0709358 -0.0429445 0)
(-0.0534303 -0.0441283 0)
(-0.0357846 -0.0406782 0)
(-0.0197351 -0.0325921 0)
(-0.00737058 -0.0205904 0)
(-0.00120367 -0.00649808 0)
(-0.00160751 0.0112155 0)
(-0.009318 0.0318741 0)
(-0.0242092 0.0479511 0)
(-0.0430026 0.058071 0)
(-0.0632569 0.0619361 0)
(-0.0831528 0.0598801 0)
(-0.101124 0.0526274 0)
(-0.115892 0.0411251 0)
(-0.126488 0.0264366 0)
(-0.132237 0.00969273 0)
(-0.132749 -0.00791616 0)
(-0.127923 -0.0251316 0)
(-0.117966 -0.0406242 0)
(-0.103433 -0.0530184 0)
(-0.0852686 -0.0609651 0)
(-0.0648353 -0.063279 0)
(-0.0438853 -0.059141 0)
(-0.0244775 -0.0483436 0)
(-0.00925425 -0.0315571 0)
(-0.00153774 -0.0107284 0)
(-0.00194003 0.0164768 0)
(-0.0111211 0.0449734 0)
(-0.0286502 0.066232 0)
(-0.0504794 0.0790578 0)
(-0.0736844 0.0834445 0)
(-0.096203 0.0800724 0)
(-0.116351 0.0700228 0)
(-0.132813 0.0545836 0)
(-0.14463 0.0351309 0)
(-0.15114 0.0130844 0)
(-0.151948 -0.0100862 0)
(-0.146914 -0.0328318 0)
(-0.13618 -0.0534984 0)
(-0.120222 -0.0703353 0)
(-0.0999317 -0.0815635 0)
(-0.0767007 -0.0855309 0)
(-0.0524397 -0.080962 0)
(-0.0295446 -0.0672757 0)
(-0.0112835 -0.0449387 0)
(-0.00190005 -0.0159513 0)
(-0.00230001 0.0226945 0)
(-0.0130249 0.0602995 0)
(-0.0332505 0.0873616 0)
(-0.0580791 0.102994 0)
(-0.0840737 0.107663 0)
(-0.108952 0.102559 0)
(-0.130966 0.0892419 0)
(-0.148833 0.0694091 0)
(-0.161664 0.0447706 0)
(-0.168866 0.0170195 0)
(-0.170061 -0.0121331 0)
(-0.165069 -0.0408921 0)
(-0.153928 -0.0673126 0)
(-0.136968 -0.089271 0)
(-0.114941 -0.104509 0)
(-0.0891748 -0.110794 0)
(-0.06167 -0.10621 0)
(-0.0351479 -0.0895775 0)
(-0.0135857 -0.0609483 0)
(-0.0023263 -0.0222771 0)
(-0.00271161 0.0299463 0)
(-0.0151078 0.0779547 0)
(-0.0381143 0.111353 0)
(-0.0658477 0.129746 0)
(-0.0943258 0.134314 0)
(-0.121098 0.12697 0)
(-0.144442 0.109899 0)
(-0.163211 0.0852795 0)
(-0.176685 0.0551657 0)
(-0.184404 0.0214865 0)
(-0.186055 -0.0138742 0)
(-0.18142 -0.0489552 0)
(-0.170393 -0.0815911 0)
(-0.153079 -0.109321 0)
(-0.12997 -0.129378 0)
(-0.102185 -0.138825 0)
(-0.0716888 -0.134884 0)
(-0.0414665 -0.115467 0)
(-0.0162879 -0.0798937 0)
(-0.00285466 -0.029889 0)
(-0.00320764 0.0383587 0)
(-0.0174661 0.098087 0)
(-0.0433408 0.138186 0)
(-0.0737562 0.159042 0)
(-0.104159 0.162897 0)
(-0.132031 0.152669 0)
(-0.155825 0.131338 0)
(-0.174678 0.101638 0)
(-0.188167 0.065956 0)
(-0.196067 0.0263891 0)
(-0.198185 -0.015112 0)
(-0.194283 -0.0565436 0)
(-0.184081 -0.0956393 0)
(-0.167366 -0.129686 0)
(-0.144215 -0.15542 0)
(-0.115338 -0.169093 0)
(-0.0824454 -0.166799 0)
(-0.0486359 -0.145121 0)
(-0.0195286 -0.102158 0)
(-0.00353354 -0.0390465 0)
(-0.00384396 0.0481277 0)
(-0.0202462 0.120891 0)
(-0.0490467 0.167748 0)
(-0.0816866 0.190362 0)
(-0.113053 0.192553 0)
(-0.140747 0.178611 0)
(-0.163622 0.152509 0)
(-0.18131 0.11759 0)
(-0.193847 0.0765333 0)
(-0.201361 0.0314939 0)
(-0.203857 -0.0156581 0)
(-0.20111 -0.0630486 0)
(-0.192649 -0.108488 0)
(-0.177857 -0.149167 0)
(-0.156224 -0.181411 0)
(-0.12778 -0.200602 0)
(-0.0936442 -0.201421 0)
(-0.056733 -0.17857 0)
(-0.0234798 -0.128171 0)
(-0.00443553 -0.0501036 0)
(-0.0047254 0.0595702 0)
(-0.0236948 0.146615 0)
(-0.0553833 0.199753 0)
(-0.0893771 0.222787 0)
(-0.120123 0.221888 0)
(-0.145677 0.203184 0)
(-0.165632 0.171837 0)
(-0.180373 0.131808 0)
(-0.190583 0.0859683 0)
(-0.196865 0.036376 0)
(-0.199504 -0.0153698 0)
(-0.198338 -0.0677412 0)
(-0.192719 -0.118864 0)
(-0.181575 -0.166075 0)
(-0.163646 -0.205484 0)
(-0.137967 -0.231657 0)
(-0.104596 -0.237621 0)
(-0.0657337 -0.215522 0)
(-0.0283778 -0.158365 0)
(-0.00568209 -0.0635513 0)
(-0.00605163 0.0732274 0)
(-0.0282261 0.175561 0)
(-0.0625093 0.233567 0)
(-0.096258 0.254743 0)
(-0.123858 0.248727 0)
(-0.1444 0.224023 0)
(-0.158673 0.187104 0)
(-0.16811 0.142459 0)
(-0.174204 0.0929674 0)
(-0.178122 0.0403787 0)
(-0.180488 -0.0141978 0)
(-0.181269 -0.0698195 0)
(-0.179698 -0.125208 0)
(-0.174272 -0.178177 0)
(-0.162897 -0.224969 0)
(-0.143318 -0.259584 0)
(-0.113938 -0.273325 0)
(-0.0753935 -0.255063 0)
(-0.0345564 -0.193088 0)
(-0.00748631 -0.0801034 0)
(-0.00819213 0.0900456 0)
(-0.034483 0.208018 0)
(-0.0704129 0.267881 0)
(-0.101024 0.283603 0)
(-0.121576 0.269808 0)
(-0.13311 0.237837 0)
(-0.138165 0.195402 0)
(-0.139465 0.147231 0)
(-0.13937 0.0959079 0)
(-0.139598 0.0426192 0)
(-0.141113 -0.0122324 0)
(-0.144058 -0.0685057 0)
(-0.147671 -0.125792 0)
(-0.150172 -0.182767 0)
(-0.148722 -0.236321 0)
(-0.139645 -0.280443 0)
(-0.119096 -0.305022 0)
(-0.0849365 -0.295156 0)
(-0.0424407 -0.232375 0)
(-0.0102161 -0.100836 0)
(-0.0117676 0.111635 0)
(-0.04326 0.24396 0)
(-0.0782979 0.300032 0)
(-0.100629 0.30509 0)
(-0.108353 0.280457 0)
(-0.105733 0.24038 0)
(-0.0975313 0.193279 0)
(-0.087773 0.143547 0)
(-0.0795033 0.0930347 0)
(-0.0747877 0.0420946 0)
(-0.0748053 -0.00972839 0)
(-0.079893 -0.06321 0)
(-0.089465 -0.118989 0)
(-0.10179 -0.176955 0)
(-0.113688 -0.235282 0)
(-0.120306 -0.288879 0)
(-0.115264 -0.327193 0)
(-0.0922669 -0.331792 0)
(-0.0523158 -0.275402 0)
(-0.0144304 -0.127346 0)
(-0.0175494 0.140659 0)
(-0.0547648 0.282144 0)
(-0.0827867 0.324717 0)
(-0.0880812 0.312472 0)
(-0.0751096 0.274454 0)
(-0.0525924 0.226768 0)
(-0.0274601 0.177287 0)
(-0.00451648 0.129134 0)
(0.0130967 0.0829119 0)
(0.0234378 0.0379466 0)
(0.0253964 -0.00707324 0)
(0.0185054 -0.0537578 0)
(0.00297797 -0.103751 0)
(-0.0199985 -0.158319 0)
(-0.0476871 -0.2175 0)
(-0.0749857 -0.278359 0)
(-0.0935473 -0.331789 0)
(-0.0920641 -0.357681 0)
(-0.0632807 -0.319293 0)
(-0.0206336 -0.161973 0)
(-0.0254498 0.181711 0)
(-0.0657747 0.317771 0)
(-0.0733334 0.331361 0)
(-0.0480776 0.2954 0)
(-0.00557914 0.24421 0)
(0.0412173 0.192379 0)
(0.0846516 0.145046 0)
(0.120535 0.102971 0)
(0.1467 0.0651373 0)
(0.162045 0.0298912 0)
(0.165939 -0.00467143 0)
(0.157934 -0.040628 0)
(0.13773 -0.0802458 0)
(0.105439 -0.125917 0)
(0.0622608 -0.179725 0)
(0.0118047 -0.242019 0)
(-0.0378306 -0.307876 0)
(-0.0716798 -0.360142 0)
(-0.0700557 -0.356608 0)
(-0.0279123 -0.208375 0)
(-0.029649 0.239176 0)
(-0.0608414 0.335767 0)
(-0.0219426 0.300502 0)
(0.0505414 0.240127 0)
(0.127572 0.182948 0)
(0.197007 0.135389 0)
(0.254335 0.0973984 0)
(0.298249 0.0668506 0)
(0.328823 0.041355 0)
(0.346465 0.0187784 0)
(0.351374 -0.00279409 0)
(0.343301 -0.0252649 0)
(0.321467 -0.0507873 0)
(0.284641 -0.0820476 0)
(0.231571 -0.122445 0)
(0.16218 -0.175668 0)
(0.0798999 -0.243431 0)
(-0.00319029 -0.319135 0)
(-0.0546697 -0.368612 0)
(-0.0284594 -0.267618 0)
(0.00808311 0.281861 0)
(0.019783 0.294972 0)
(0.139066 0.210972 0)
(0.26446 0.143477 0)
(0.364367 0.0971857 0)
(0.440363 0.0657772 0)
(0.496742 0.0442372 0)
(0.536872 0.0288858 0)
(0.563445 0.0171987 0)
(0.578304 0.00748472 0)
(0.582378 -0.0014941 0)
(0.575694 -0.0108451 0)
(0.557307 -0.0218469 0)
(0.525133 -0.0363347 0)
(0.475776 -0.0572593 0)
(0.404536 -0.0893838 0)
(0.305176 -0.139741 0)
(0.173416 -0.216386 0)
(0.0411719 -0.311655 0)
(0.0184302 -0.299995 0)
(0.299604 0.146091 0)
(0.396272 0.127503 0)
(0.55742 0.0760895 0)
(0.674487 0.0437232 0)
(0.743888 0.025572 0)
(0.787153 0.0152421 0)
(0.815485 0.00921228 0)
(0.833954 0.00550937 0)
(0.845384 0.00302715 0)
(0.851371 0.00114933 0)
(0.852665 -0.000499379 0)
(0.849381 -0.00221504 0)
(0.840999 -0.00433852 0)
(0.82614 -0.00742403 0)
(0.802078 -0.0125322 0)
(0.76362 -0.0217728 0)
(0.699108 -0.0392829 0)
(0.583952 -0.0726601 0)
(0.415827 -0.127868 0)
(0.308819 -0.149468 0)
)
;

boundaryField
{
    movingWall
    {
        type            fixedValue;
        value           uniform (1 0 0);
    }
    fixedWalls
    {
        type            noSlip;
    }
    frontAndBack
    {
        type            empty;
    }
}


// ************************************************************************* //
