/*--------------------------------*- C++ -*----------------------------------*\
  =========                 |
  \\      /  F ield         | OpenFOAM: The Open Source CFD Toolbox
   \\    /   O peration     | Website:  https://openfoam.org
    \\  /    A nd           | Version:  8
     \\/     M anipulation  |
\*---------------------------------------------------------------------------*/
FoamFile
{
    version     2.0;
    format      ascii;
    class       surfaceScalarField;
    location    "45";
    object      phi;
}
// * * * * * * * * * * * * * * * * * * * * * * * * * * * * * * * * * * * * * //

dimensions      [0 3 -1 0 0 0 0];

internalField   nonuniform List<scalar> 
208
(
1.77099e-05
-1.77099e-05
3.08934e-05
-1.31835e-05
3.0563e-05
3.30402e-07
7.07767e-06
2.34853e-05
-7.05601e-05
7.76377e-05
7.03506e-05
-0.000140911
2.13123e-06
-1.98411e-05
-1.23015e-05
1.24924e-06
-5.43388e-05
4.23677e-05
-0.000107555
7.6701e-05
-0.000136314
0.000106397
7.09296e-05
-0.000136893
-1.56672e-05
-4.17388e-06
-4.41598e-05
2.97418e-05
-7.74786e-05
7.56865e-05
-0.000105594
0.000104816
-0.000113318
0.000114121
5.6072e-05
-9.84602e-05
-2.15375e-05
1.73636e-05
-4.46337e-05
5.2838e-05
-6.77479e-05
9.88006e-05
-7.98e-05
0.000116868
-7.28297e-05
0.000107151
3.59701e-05
-5.27279e-05
-1.55009e-05
3.28645e-05
-3.36493e-05
7.09864e-05
-4.4229e-05
0.00010938
-4.35867e-05
0.000116226
-3.2583e-05
9.61474e-05
2.97457e-05
-2.63586e-05
-7.20849e-06
4.0073e-05
-9.71472e-06
7.34927e-05
-7.17178e-06
0.000106837
-3.79057e-06
0.000112845
2.44617e-06
8.99107e-05
3.47905e-05
-2.59858e-06
1.38357e-06
3.86894e-05
2.33151e-06
7.25447e-05
1.23784e-05
9.67905e-05
2.68081e-05
9.8415e-05
4.10239e-05
7.56949e-05
3.68541e-05
3.89603e-05
1.00742e-05
2.86152e-05
2.40855e-05
5.85334e-05
4.91558e-05
7.17203e-05
6.8999e-05
7.85718e-05
8.41185e-05
6.05754e-05
3.9344e-05
8.16286e-05
-3.69001e-05
6.55153e-05
-1.6808e-05
3.84413e-05
1.19248e-05
4.29875e-05
4.62549e-05
4.42416e-05
7.24447e-05
3.43856e-05
2.59753e-05
8.58134e-05
6.55153e-05
0.000103957
0.000146944
0.000191186
0.000225571
0.000251547
-0.000115162
9.48529e-05
-0.000120601
-6.64828e-05
-4.63291e-05
-2.35017e-06
-1.89281e-05
-3.65289e-05
-1.10257e-05
-0.000152905
0.000133977
-0.00011219
7.01496e-05
-9.57955e-05
-6.27233e-05
-4.02969e-05
-9.20276e-05
-0.000193202
-6.85382e-05
4.02276e-05
-6.58525e-05
-6.54091e-05
-3.79716e-05
-0.000119908
-0.000231174
-2.88247e-05
1.63245e-05
-2.85263e-05
-6.57075e-05
-2.0283e-05
-0.000128152
-0.000251457
-1.23912e-05
2.35708e-06
-1.52837e-05
-6.2815e-05
-1.45858e-05
-0.00012885
-0.000266043
8.9047e-06
-9.14619e-06
3.97184e-06
-5.78821e-05
-3.47541e-06
-0.000121402
-0.000269518
3.81632e-05
-8.3491e-06
1.68071e-05
-3.6526e-05
1.92916e-06
-0.000106525
-0.000267589
6.92851e-05
3.99442e-06
4.16123e-05
-8.8533e-06
2.67402e-05
-9.16524e-05
-0.000240849
8.33579e-05
6.44993e-06
8.1899e-05
-7.39437e-06
6.79695e-05
-7.77229e-05
-0.000172879
0.000257997
0.000250602
0.000172879
-3.74478e-05
3.74478e-05
-6.24858e-05
2.50379e-05
-6.07203e-05
-1.76544e-06
-6.07203e-05
-3.38141e-05
7.12619e-05
-4.39081e-05
3.51319e-05
-4.52024e-05
-4.71127e-07
-0.000105923
-2.14059e-05
9.26678e-05
-1.05739e-05
2.43e-05
-2.45288e-05
1.34837e-05
-0.000130452
-2.79336e-05
-5.98381e-06
-3.5258e-06
)
;

boundaryField
{
    movingWall
    {
        type            calculated;
        value           uniform 0;
    }
    fixedWalls
    {
        type            calculated;
        value           uniform 0;
    }
    frontAndBack
    {
        type            empty;
        value           nonuniform List<scalar> 0();
    }
}


// ************************************************************************* //
