0 	0 	0 	0
1.57135 	-0.000698041 	0.00065058 	0
3.1427 	-0.00156143 	0.00116242 	0
4.71405 	-0.0026716 	0.00130666 	0
6.28539 	-0.00405897 	0.000848576 	0
7.85674 	-0.00568806 	-0.00040091 	0
9.42809 	-0.0076785 	-0.00254553 	0
10.9994 	-0.0112087 	-0.00571284 	0
12.5708 	-0.0243736 	-0.00626246 	0
14.1421 	0.5 	0 	0
