/*--------------------------------*- C++ -*----------------------------------*\
  =========                 |
  \\      /  F ield         | OpenFOAM: The Open Source CFD Toolbox
   \\    /   O peration     | Website:  https://openfoam.org
    \\  /    A nd           | Version:  8
     \\/     M anipulation  |
\*---------------------------------------------------------------------------*/
FoamFile
{
    version     2.0;
    format      ascii;
    class       surfaceScalarField;
    location    "0.27";
    object      phi;
}
// * * * * * * * * * * * * * * * * * * * * * * * * * * * * * * * * * * * * * //

dimensions      [0 3 -1 0 0 0 0];

internalField   nonuniform List<scalar> 
760
(
1.42318e-08
-1.4262e-08
-2.22075e-08
3.64394e-08
-1.14254e-07
9.20467e-08
-2.4546e-07
1.31205e-07
-3.96043e-07
1.50582e-07
-5.47289e-07
1.51245e-07
-6.83093e-07
1.35804e-07
-7.90549e-07
1.07456e-07
-8.60082e-07
6.95337e-08
-8.85513e-07
2.54302e-08
-8.64195e-07
-2.13177e-08
-7.97275e-07
-6.69202e-08
-6.89988e-07
-1.07286e-07
-5.51897e-07
-1.38091e-07
-3.96891e-07
-1.55006e-07
-2.42719e-07
-1.54172e-07
-1.09721e-07
-1.32998e-07
-1.8416e-08
-9.13051e-08
1.56865e-08
-3.41022e-08
1.56866e-08
-3.42096e-08
1.99476e-08
-1.80349e-07
1.82579e-07
-4.3393e-07
3.45627e-07
-7.6433e-07
4.61605e-07
-1.13206e-06
5.1831e-07
-1.49704e-06
5.16227e-07
-1.82309e-06
4.61853e-07
-2.08025e-06
3.64619e-07
-2.24597e-06
2.35251e-07
-2.30573e-06
8.5188e-08
-2.2536e-06
-7.34481e-08
-2.09277e-06
-2.27748e-07
-1.83602e-06
-3.64037e-07
-1.50585e-06
-4.68264e-07
-1.13394e-06
-5.26915e-07
-7.59426e-07
-5.28682e-07
-4.25349e-07
-4.67075e-07
-1.72672e-07
-3.43982e-07
-3.07993e-08
-1.75976e-07
-1.51126e-08
-9.22147e-08
1.12162e-07
-3.56946e-07
4.47311e-07
-7.64453e-07
7.53133e-07
-1.26831e-06
9.65465e-07
-1.81445e-06
1.06445e-06
-2.34872e-06
1.0505e-06
-2.82205e-06
9.35176e-07
-3.19351e-06
7.36077e-07
-3.43214e-06
4.73887e-07
-3.51804e-06
1.71082e-07
-3.44311e-06
-1.48374e-07
-3.21183e-06
-4.59029e-07
-2.84173e-06
-7.34136e-07
-2.3635e-06
-9.465e-07
-1.82008e-06
-1.07033e-06
-1.26433e-06
-1.08444e-06
-7.54428e-07
-9.76974e-07
-3.46927e-07
-7.51482e-07
-8.73254e-08
-4.35578e-07
-1.02438e-07
-1.4519e-07
2.57353e-07
-5.25389e-07
8.2751e-07
-1.08149e-06
1.30923e-06
-1.74727e-06
1.63125e-06
-2.454e-06
1.77117e-06
-3.13595e-06
1.73245e-06
-3.73479e-06
1.53401e-06
-4.20235e-06
1.20363e-06
-4.50232e-06
7.73862e-07
-4.61132e-06
2.80081e-07
-4.51967e-06
-2.40027e-07
-4.23219e-06
-7.46509e-07
-3.76889e-06
-1.19744e-06
-3.16524e-06
-1.55015e-06
-2.47157e-06
-1.764e-06
-1.75085e-06
-1.80515e-06
-1.07438e-06
-1.65345e-06
-5.15076e-07
-1.31078e-06
-1.39298e-07
-8.11356e-07
-2.41736e-07
-1.93584e-07
4.50937e-07
-6.84912e-07
1.31884e-06
-1.38545e-06
2.00976e-06
-2.20697e-06
2.45277e-06
-3.06509e-06
2.62929e-06
-3.8833e-06
2.55066e-06
-4.59594e-06
2.24665e-06
-5.14995e-06
1.75765e-06
-5.50577e-06
1.12969e-06
-5.63784e-06
4.12146e-07
-5.53509e-06
-3.42776e-07
-5.20175e-06
-1.07984e-06
-4.65833e-06
-1.74086e-06
-3.9425e-06
-2.26598e-06
-3.10935e-06
-2.59715e-06
-2.23025e-06
-2.68425e-06
-1.38948e-06
-2.49421e-06
-6.78421e-07
-2.02184e-06
-1.87746e-07
-1.30203e-06
-4.29482e-07
-2.39913e-07
6.9085e-07
-8.40256e-07
1.91918e-06
-1.68311e-06
2.85261e-06
-2.65677e-06
3.42644e-06
-3.66045e-06
3.63297e-06
-4.60728e-06
3.4975e-06
-5.42578e-06
3.06515e-06
-6.05993e-06
2.3918e-06
-6.46868e-06
1.53844e-06
-6.62537e-06
5.68833e-07
-6.51766e-06
-4.50489e-07
-6.14818e-06
-1.44932e-06
-5.53599e-06
-2.35305e-06
-4.71846e-06
-3.08351e-06
-3.7531e-06
-3.56252e-06
-2.71822e-06
-3.71913e-06
-1.71138e-06
-3.50106e-06
-8.44581e-07
-2.88864e-06
-2.36156e-07
-1.91046e-06
-6.65638e-07
-2.8672e-07
9.7757e-07
-9.97001e-07
2.62946e-06
-1.98192e-06
3.83753e-06
-3.10469e-06
4.54921e-06
-4.2476e-06
4.77588e-06
-5.31438e-06
4.56427e-06
-6.2296e-06
3.98037e-06
-6.9366e-06
3.0988e-06
-7.39488e-06
1.99672e-06
-7.57801e-06
7.5196e-07
-7.47257e-06
-5.55933e-07
-7.07856e-06
-1.84332e-06
-6.41139e-06
-3.02022e-06
-5.50517e-06
-3.98973e-06
-4.41674e-06
-4.65095e-06
-3.22914e-06
-4.90673e-06
-2.0528e-06
-4.67739e-06
-1.02246e-06
-3.91898e-06
-2.88259e-07
-2.64466e-06
-9.53898e-07
-3.36311e-07
1.31388e-06
-1.1603e-06
3.45346e-06
-2.28789e-06
4.96511e-06
-3.55479e-06
5.81612e-06
-4.82634e-06
6.04743e-06
-5.99872e-06
5.73665e-06
-6.99563e-06
4.97728e-06
-7.76307e-06
3.86624e-06
-8.26401e-06
2.49765e-06
-8.47413e-06
9.62082e-07
-8.37949e-06
-6.50571e-07
-7.97645e-06
-2.24636e-06
-7.27419e-06
-3.72249e-06
-6.29962e-06
-4.96429e-06
-5.10441e-06
-5.84616e-06
-3.77234e-06
-6.2388e-06
-2.42477e-06
-6.02496e-06
-1.22069e-06
-5.12306e-06
-3.4769e-07
-3.51766e-06
-1.30159e-06
-3.90945e-07
1.70483e-06
-1.33485e-06
4.39736e-06
-2.6049e-06
6.23516e-06
-4.00582e-06
7.21704e-06
-5.38664e-06
7.42825e-06
-6.63953e-06
6.98954e-06
-7.69217e-06
6.02993e-06
-8.49818e-06
4.67225e-06
-9.02811e-06
3.02758e-06
-9.26261e-06
1.19658e-06
-9.18834e-06
-7.24837e-07
-8.79719e-06
-2.63751e-06
-8.08911e-06
-4.43057e-06
-7.0788e-06
-5.9746e-06
-5.80615e-06
-7.11881e-06
-4.34892e-06
-7.69603e-06
-2.83473e-06
-7.53915e-06
-1.44705e-06
-6.51074e-06
-4.18086e-07
-4.54662e-06
-1.71967e-06
-4.5345e-07
2.15828e-06
-1.52567e-06
5.46958e-06
-2.93486e-06
7.64435e-06
-4.45008e-06
8.73226e-06
-5.90628e-06
8.88445e-06
-7.19775e-06
8.28101e-06
-8.26359e-06
7.09576e-06
-9.07198e-06
5.48065e-06
-9.60678e-06
3.56238e-06
-9.8575e-06
1.4473e-06
-9.81333e-06
-7.69008e-07
-9.46129e-06
-2.98955e-06
-8.78903e-06
-5.10284e-06
-7.79293e-06
-6.9707e-06
-6.49215e-06
-8.41959e-06
-4.94792e-06
-9.24026e-06
-3.28508e-06
-9.20199e-06
-1.70866e-06
-8.08716e-06
-5.03581e-07
-5.7517e-06
-2.22326e-06
-5.28342e-07
2.68662e-06
-1.73968e-06
6.68092e-06
-3.27801e-06
9.18268e-06
-4.87168e-06
1.03259e-05
-6.34708e-06
1.03599e-05
-7.6109e-06
9.54484e-06
-8.62445e-06
8.1093e-06
-9.37978e-06
6.23598e-06
-9.88109e-06
4.06369e-06
-1.01316e-05
1.69784e-06
-1.01259e-05
-7.74764e-07
-9.84642e-06
-3.269e-06
-9.26606e-06
-5.6832e-06
-8.35638e-06
-7.88037e-06
-7.10473e-06
-9.67125e-06
-5.54072e-06
-1.08043e-05
-3.77071e-06
-1.0972e-05
-2.01217e-06
-9.8457e-06
-6.09689e-07
-7.15418e-06
-2.83294e-06
-6.2368e-07
3.3103e-06
-1.98743e-06
8.04467e-06
-3.632e-06
1.08273e-05
-5.24207e-06
1.1936e-05
-6.64776e-06
1.17655e-05
-7.7847e-06
1.06818e-05
-8.65128e-06
8.97588e-06
-9.27459e-06
6.8593e-06
-9.68684e-06
4.47594e-06
-9.91012e-06
1.92112e-06
-9.94752e-06
-7.37358e-07
-9.77885e-06
-3.43768e-06
-9.36112e-06
-6.10093e-06
-8.63581e-06
-8.60568e-06
-7.54653e-06
-1.07605e-05
-6.07168e-06
-1.22791e-05
-4.27433e-06
-1.27694e-05
-2.36367e-06
-1.17564e-05
-7.44784e-07
-8.77307e-06
-3.57773e-06
-7.54098e-07
4.0644e-06
-2.28442e-06
9.57499e-06
-3.98715e-06
1.253e-05
-5.5093e-06
1.34582e-05
-6.70989e-06
1.29661e-05
-7.57891e-06
1.15508e-05
-8.17046e-06
9.56743e-06
-8.55808e-06
7.24691e-06
-8.80821e-06
4.72606e-06
-8.96553e-06
2.07845e-06
-9.04484e-06
-6.58056e-07
-9.02618e-06
-3.45633e-06
-8.85298e-06
-6.27413e-06
-8.43514e-06
-9.02352e-06
-7.66315e-06
-1.15325e-05
-6.44217e-06
-1.35001e-05
-4.75636e-06
-1.44552e-05
-2.7668e-06
-1.37459e-05
-9.22448e-07
-1.06174e-05
-4.50018e-06
-9.45232e-07
5.00963e-06
-2.64858e-06
1.12783e-05
-4.31115e-06
1.41926e-05
-5.57355e-06
1.47205e-05
-6.37102e-06
1.37636e-05
-6.78369e-06
1.19635e-05
-6.94098e-06
9.72471e-06
-6.97026e-06
7.27619e-06
-6.97333e-06
4.72913e-06
-7.01706e-06
2.12218e-06
-7.12914e-06
-5.45972e-07
-7.29425e-06
-3.29121e-06
-7.44908e-06
-6.11931e-06
-7.47825e-06
-8.99434e-06
-7.21822e-06
-1.17925e-05
-6.48296e-06
-1.42354e-05
-5.13356e-06
-1.58046e-05
-3.21504e-06
-1.56644e-05
-1.1644e-06
-1.26681e-05
-5.66458e-06
-1.23734e-06
6.24697e-06
-3.08338e-06
1.31244e-05
-4.50787e-06
1.56171e-05
-5.23474e-06
1.54474e-05
-5.35557e-06
1.38844e-05
-5.08227e-06
1.16902e-05
-4.63141e-06
9.27385e-06
-4.17982e-06
6.82461e-06
-3.85495e-06
4.40426e-06
-3.73762e-06
2.00485e-06
-3.86571e-06
-4.17883e-07
-4.23319e-06
-2.92374e-06
-4.78257e-06
-5.56993e-06
-5.39147e-06
-8.38544e-06
-5.85881e-06
-1.13252e-05
-5.9068e-06
-1.41874e-05
-5.23296e-06
-1.64784e-05
-3.66634e-06
-1.72311e-05
-1.5001e-06
-1.48343e-05
-7.16468e-06
-1.67383e-06
7.9208e-06
-3.51345e-06
1.4964e-05
-4.31546e-06
1.64191e-05
-4.08912e-06
1.52211e-05
-3.19339e-06
1.29887e-05
-1.99916e-06
1.0496e-05
-7.95647e-07
8.07033e-06
2.18773e-07
5.81019e-06
9.17631e-07
3.7054e-06
1.22499e-06
1.69749e-06
1.10146e-06
-2.94356e-07
5.40501e-07
-2.36278e-06
-4.23429e-07
-4.606e-06
-1.69299e-06
-7.11588e-06
-3.07274e-06
-9.94545e-06
-4.23106e-06
-1.30291e-05
-4.6958e-06
-1.60137e-05
-3.96725e-06
-1.79596e-05
-1.94494e-06
-1.68566e-05
-9.10962e-06
-2.23071e-06
1.01515e-05
-3.59036e-06
1.63236e-05
-3.07791e-06
1.59066e-05
-1.34408e-06
1.34872e-05
8.96742e-07
1.07479e-05
3.15459e-06
8.23812e-06
5.13766e-06
6.08726e-06
6.68818e-06
4.25968e-06
7.72528e-06
2.6683e-06
8.20599e-06
1.21678e-06
8.10333e-06
-1.91702e-07
7.39851e-06
-1.65796e-06
6.08639e-06
-3.29388e-06
4.19879e-06
-5.22827e-06
1.85384e-06
-7.6005e-06
-6.61938e-07
-1.05133e-05
-2.79232e-06
-1.38833e-05
-3.66216e-06
-1.70898e-05
-2.41156e-06
-1.81072e-05
-1.15212e-05
-2.57382e-06
1.27253e-05
-2.1835e-06
1.59333e-05
7.17983e-07
1.30051e-05
4.46941e-06
9.73582e-06
8.13306e-06
7.08423e-06
1.13013e-05
5.06991e-06
1.38287e-05
3.55981e-06
1.56877e-05
2.40073e-06
1.68912e-05
1.46476e-06
1.74544e-05
6.53589e-07
1.73759e-05
-1.13191e-07
1.66301e-05
-9.12122e-07
1.51668e-05
-1.83061e-06
1.29232e-05
-2.98467e-06
9.86149e-06
-4.53881e-06
6.06178e-06
-6.71356e-06
1.91222e-06
-9.73373e-06
-1.55968e-06
-1.36179e-05
-2.45835e-06
-1.72085e-05
-1.39795e-05
-7.85012e-07
1.35103e-05
4.08078e-06
1.10675e-05
1.02975e-05
6.78842e-06
1.57935e-05
4.23978e-06
2.01579e-05
2.71989e-06
2.34579e-05
1.76992e-06
2.58606e-05
1.15712e-06
2.75213e-05
7.40036e-07
2.85537e-05
4.32283e-07
2.90261e-05
1.81218e-07
2.89619e-05
-4.8978e-08
2.83385e-05
-2.88689e-07
2.70816e-05
-5.73726e-07
2.50549e-05
-9.57938e-07
2.20515e-05
-1.5355e-06
1.78154e-05
-2.4774e-06
1.21723e-05
-4.09066e-06
5.47769e-06
-6.92323e-06
-1.29178e-07
-1.16017e-05
-1.41087e-05
1.35103e-05
2.45779e-05
3.13663e-05
3.5606e-05
3.83259e-05
4.00959e-05
4.1253e-05
4.1993e-05
4.24253e-05
4.26065e-05
4.25575e-05
4.22688e-05
4.16951e-05
4.07372e-05
3.92017e-05
3.67243e-05
3.26336e-05
2.57104e-05
1.41087e-05
)
;

boundaryField
{
    movingWall
    {
        type            calculated;
        value           uniform 0;
    }
    fixedWalls
    {
        type            calculated;
        value           uniform 0;
    }
    frontAndBack
    {
        type            empty;
        value           nonuniform List<scalar> 0();
    }
}


// ************************************************************************* //
