/*--------------------------------*- C++ -*----------------------------------*\
  =========                 |
  \\      /  F ield         | OpenFOAM: The Open Source CFD Toolbox
   \\    /   O peration     | Website:  https://openfoam.org
    \\  /    A nd           | Version:  8
     \\/     M anipulation  |
\*---------------------------------------------------------------------------*/
FoamFile
{
    version     2.0;
    format      ascii;
    class       volVectorField;
    location    "0.27";
    object      U;
}
// * * * * * * * * * * * * * * * * * * * * * * * * * * * * * * * * * * * * * //

dimensions      [0 1 -1 0 0 0 0];

internalField   nonuniform List<vector> 
400
(
(0.000253379 -0.000250363 0)
(0.000141199 0.000111436 0)
(-0.00117683 0.000564528 0)
(-0.00348063 0.000884847 0)
(-0.00637658 0.00104554 0)
(-0.00946812 0.00106157 0)
(-0.0124012 0.000957696 0)
(-0.0148828 0.000760321 0)
(-0.0166871 0.000494572 0)
(-0.0176558 0.000184538 0)
(-0.0176997 -0.000145239 0)
(-0.0168028 -0.000468289 0)
(-0.0150281 -0.000755295 0)
(-0.0125235 -0.000974117 0)
(-0.00952518 -0.00109103 0)
(-0.0063542 -0.00107386 0)
(-0.00340026 -0.000898004 0)
(-0.00108634 -0.000556323 0)
(0.00019637 -9.03653e-05 0)
(0.000267815 0.000262342 0)
(-7.74423e-05 -0.00016929 0)
(-0.00161131 0.00164464 0)
(-0.00569211 0.00361681 0)
(-0.0117172 0.00503411 0)
(-0.0188897 0.00574241 0)
(-0.0263972 0.00575938 0)
(-0.0334647 0.00517094 0)
(-0.0394216 0.00409195 0)
(-0.0437382 0.00264729 0)
(-0.0460412 0.000966826 0)
(-0.0461235 -0.000813072 0)
(-0.0439558 -0.00254669 0)
(-0.0396962 -0.00407805 0)
(-0.0336985 -0.00524438 0)
(-0.0265102 -0.00588578 0)
(-0.0188523 -0.0058641 0)
(-0.0115653 -0.00509413 0)
(-0.00551268 -0.003589 0)
(-0.00149294 -0.00155898 0)
(-4.25857e-05 0.000227407 0)
(-0.000528525 0.00109151 0)
(-0.00371088 0.00573555 0)
(-0.0105875 0.0102231 0)
(-0.0199891 0.0134059 0)
(-0.0307609 0.0149443 0)
(-0.041817 0.0148368 0)
(-0.0521133 0.0132539 0)
(-0.0607367 0.0104548 0)
(-0.0669613 0.00674114 0)
(-0.0702742 0.00243862 0)
(-0.0703922 -0.00210616 0)
(-0.0672764 -0.0065245 0)
(-0.0611452 -0.0104277 0)
(-0.0524824 -0.0134193 0)
(-0.0420323 -0.0151215 0)
(-0.0307705 -0.0152237 0)
(-0.0198269 -0.0135543 0)
(-0.0103624 -0.0101777 0)
(-0.00354813 -0.00555046 0)
(-0.000476793 -0.000948752 0)
(-0.000928094 0.00347939 0)
(-0.00569077 0.0122191 0)
(-0.0152999 0.0199191 0)
(-0.0279135 0.0251945 0)
(-0.0419805 0.0275933 0)
(-0.0561726 0.0271339 0)
(-0.0692441 0.0241058 0)
(-0.0801166 0.0189514 0)
(-0.0879383 0.0121941 0)
(-0.0921086 0.00440465 0)
(-0.0922932 -0.0038073 0)
(-0.0884405 -0.0117949 0)
(-0.0807963 -0.0188796 0)
(-0.0699155 -0.0243731 0)
(-0.0566633 -0.0276241 0)
(-0.0421904 -0.0280982 0)
(-0.0278537 -0.0254946 0)
(-0.0150921 -0.0198893 0)
(-0.00550445 -0.0119263 0)
(-0.000861501 -0.00322452 0)
(-0.00127877 0.00687691 0)
(-0.00753519 0.020951 0)
(-0.0198027 0.0325062 0)
(-0.0355312 0.0400981 0)
(-0.052738 0.0432847 0)
(-0.0698515 0.0421874 0)
(-0.0854548 0.0372728 0)
(-0.0983507 0.0292094 0)
(-0.107609 0.018775 0)
(-0.112577 0.0068131 0)
(-0.112886 -0.00577936 0)
(-0.108464 -0.0180521 0)
(-0.0995528 -0.0290075 0)
(-0.0867311 -0.0376278 0)
(-0.0709291 -0.0429396 0)
(-0.0534254 -0.0441234 0)
(-0.0357813 -0.0406739 0)
(-0.0197333 -0.0325887 0)
(-0.00736988 -0.0205883 0)
(-0.00120355 -0.00649743 0)
(-0.00160735 0.0112142 0)
(-0.00931712 0.0318706 0)
(-0.024207 0.0479459 0)
(-0.0429987 0.0580647 0)
(-0.0632513 0.0619293 0)
(-0.0831455 0.0598736 0)
(-0.101115 0.0526217 0)
(-0.115882 0.0411208 0)
(-0.126477 0.026434 0)
(-0.132226 0.00969203 0)
(-0.132738 -0.00791489 0)
(-0.127912 -0.0251285 0)
(-0.117956 -0.0406195 0)
(-0.103425 -0.0530125 0)
(-0.0852618 -0.0609586 0)
(-0.0648302 -0.0632723 0)
(-0.0438818 -0.059135 0)
(-0.0244756 -0.0483388 0)
(-0.00925351 -0.031554 0)
(-0.0015376 -0.0107274 0)
(-0.00193988 0.0164751 0)
(-0.0111203 0.0449688 0)
(-0.0286481 0.0662254 0)
(-0.0504759 0.0790498 0)
(-0.0736792 0.0834361 0)
(-0.0961963 0.0800643 0)
(-0.116343 0.0700158 0)
(-0.132804 0.0545783 0)
(-0.14462 0.0351277 0)
(-0.15113 0.0130836 0)
(-0.151938 -0.0100847 0)
(-0.146904 -0.032828 0)
(-0.136171 -0.0534926 0)
(-0.120214 -0.0703279 0)
(-0.0999255 -0.0815553 0)
(-0.076696 -0.0855226 0)
(-0.0524365 -0.0809545 0)
(-0.0295428 -0.0672696 0)
(-0.0112828 -0.0449347 0)
(-0.00189993 -0.0159499 0)
(-0.00229988 0.0226924 0)
(-0.0130242 0.0602941 0)
(-0.0332488 0.0873537 0)
(-0.0580762 0.102985 0)
(-0.0840696 0.107653 0)
(-0.108947 0.102549 0)
(-0.13096 0.0892338 0)
(-0.148825 0.0694029 0)
(-0.161657 0.0447668 0)
(-0.168857 0.0170185 0)
(-0.170053 -0.0121313 0)
(-0.165062 -0.0408876 0)
(-0.153921 -0.0673058 0)
(-0.136962 -0.0892625 0)
(-0.114936 -0.1045 0)
(-0.089171 -0.110784 0)
(-0.0616673 -0.106201 0)
(-0.0351464 -0.0895703 0)
(-0.0135851 -0.0609435 0)
(-0.0023262 -0.0222754 0)
(-0.00271154 0.0299439 0)
(-0.0151074 0.0779486 0)
(-0.0381133 0.111344 0)
(-0.0658458 0.129736 0)
(-0.0943231 0.134303 0)
(-0.121094 0.12696 0)
(-0.144438 0.10989 0)
(-0.163206 0.0852727 0)
(-0.17668 0.0551616 0)
(-0.184399 0.0214854 0)
(-0.18605 -0.0138722 0)
(-0.181415 -0.0489502 0)
(-0.170388 -0.0815837 0)
(-0.153075 -0.109311 0)
(-0.129966 -0.129367 0)
(-0.102182 -0.138814 0)
(-0.0716869 -0.134874 0)
(-0.0414655 -0.115459 0)
(-0.0162875 -0.0798883 0)
(-0.00285459 -0.029887 0)
(-0.00320762 0.0383561 0)
(-0.017466 0.0980805 0)
(-0.0433405 0.138176 0)
(-0.0737557 0.159031 0)
(-0.104159 0.162885 0)
(-0.13203 0.152658 0)
(-0.155823 0.131328 0)
(-0.174676 0.10163 0)
(-0.188165 0.0659517 0)
(-0.196065 0.0263879 0)
(-0.198183 -0.01511 0)
(-0.194281 -0.0565385 0)
(-0.184079 -0.0956316 0)
(-0.167364 -0.129676 0)
(-0.144213 -0.155409 0)
(-0.115337 -0.169082 0)
(-0.0824446 -0.166788 0)
(-0.0486353 -0.145112 0)
(-0.0195284 -0.102152 0)
(-0.0035335 -0.0390443 0)
(-0.00384401 0.0481251 0)
(-0.0202464 0.120884 0)
(-0.0490472 0.167739 0)
(-0.0816874 0.190351 0)
(-0.113054 0.192541 0)
(-0.140748 0.1786 0)
(-0.163624 0.152499 0)
(-0.181311 0.117583 0)
(-0.193849 0.0765289 0)
(-0.201363 0.0314926 0)
(-0.203859 -0.0156561 0)
(-0.201112 -0.0630435 0)
(-0.19265 -0.10848 0)
(-0.177858 -0.149157 0)
(-0.156225 -0.1814 0)
(-0.12778 -0.200591 0)
(-0.0936445 -0.20141 0)
(-0.0567331 -0.178562 0)
(-0.0234798 -0.128165 0)
(-0.00443553 -0.0501014 0)
(-0.0047255 0.0595679 0)
(-0.0236953 0.146609 0)
(-0.0553846 0.199744 0)
(-0.0893791 0.222776 0)
(-0.120126 0.221877 0)
(-0.145681 0.203173 0)
(-0.165636 0.171827 0)
(-0.180378 0.131801 0)
(-0.190588 0.0859641 0)
(-0.19687 0.0363748 0)
(-0.199509 -0.015368 0)
(-0.198342 -0.0677364 0)
(-0.192723 -0.118857 0)
(-0.181579 -0.166065 0)
(-0.163649 -0.205474 0)
(-0.137969 -0.231646 0)
(-0.104598 -0.237611 0)
(-0.0657344 -0.215513 0)
(-0.028378 -0.15836 0)
(-0.00568213 -0.0635492 0)
(-0.00605178 0.0732254 0)
(-0.0282268 0.175556 0)
(-0.0625111 0.23356 0)
(-0.0962611 0.254733 0)
(-0.123863 0.248717 0)
(-0.144405 0.224013 0)
(-0.158679 0.187096 0)
(-0.168117 0.142453 0)
(-0.174212 0.0929635 0)
(-0.17813 0.0403775 0)
(-0.180496 -0.0141962 0)
(-0.181276 -0.0698153 0)
(-0.179705 -0.125202 0)
(-0.174278 -0.178168 0)
(-0.162901 -0.22496 0)
(-0.143321 -0.259574 0)
(-0.11394 -0.273316 0)
(-0.0753947 -0.255056 0)
(-0.0345569 -0.193083 0)
(-0.00748638 -0.0801014 0)
(-0.00819229 0.090044 0)
(-0.0344839 0.208014 0)
(-0.0704151 0.267874 0)
(-0.101028 0.283595 0)
(-0.121581 0.269799 0)
(-0.133117 0.237829 0)
(-0.138173 0.195394 0)
(-0.139474 0.147225 0)
(-0.13938 0.0959044 0)
(-0.139608 0.042618 0)
(-0.141123 -0.0122311 0)
(-0.144068 -0.0685021 0)
(-0.14768 -0.125786 0)
(-0.150179 -0.182759 0)
(-0.148728 -0.236313 0)
(-0.139649 -0.280435 0)
(-0.119099 -0.305014 0)
(-0.0849381 -0.295149 0)
(-0.0424413 -0.232371 0)
(-0.0102162 -0.100834 0)
(-0.0117677 0.111634 0)
(-0.0432609 0.243957 0)
(-0.0783002 0.300027 0)
(-0.100633 0.305084 0)
(-0.108358 0.280451 0)
(-0.10574 0.240373 0)
(-0.0975401 0.193273 0)
(-0.0877831 0.143542 0)
(-0.0795142 0.0930317 0)
(-0.0747991 0.0420936 0)
(-0.0748166 -0.00972746 0)
(-0.0799038 -0.0632072 0)
(-0.0894748 -0.118984 0)
(-0.101799 -0.176949 0)
(-0.113695 -0.235276 0)
(-0.120311 -0.288873 0)
(-0.115267 -0.327187 0)
(-0.0922688 -0.331787 0)
(-0.0523166 -0.275398 0)
(-0.0144305 -0.127345 0)
(-0.0175495 0.140658 0)
(-0.0547656 0.282142 0)
(-0.0827888 0.324713 0)
(-0.0880849 0.312467 0)
(-0.075115 0.274449 0)
(-0.0525995 0.226763 0)
(-0.0274689 0.177282 0)
(-0.00452648 0.12913 0)
(0.0130858 0.0829096 0)
(0.0234264 0.0379457 0)
(0.025385 -0.0070726 0)
(0.0184945 -0.0537557 0)
(0.00296802 -0.103747 0)
(-0.0200071 -0.158314 0)
(-0.0476942 -0.217495 0)
(-0.074991 -0.278354 0)
(-0.0935509 -0.331784 0)
(-0.0920661 -0.357677 0)
(-0.0632814 -0.31929 0)
(-0.0206338 -0.161972 0)
(-0.0254499 0.181711 0)
(-0.0657753 0.31777 0)
(-0.073335 0.331359 0)
(-0.0480806 0.295397 0)
(-0.00558371 0.244207 0)
(0.0412112 0.192376 0)
(0.0846439 0.145043 0)
(0.120526 0.102968 0)
(0.14669 0.0651356 0)
(0.162035 0.0298906 0)
(0.165929 -0.00467102 0)
(0.157924 -0.0406266 0)
(0.137721 -0.0802436 0)
(0.105431 -0.125914 0)
(0.0622544 -0.179722 0)
(0.0117998 -0.242016 0)
(-0.0378339 -0.307873 0)
(-0.0716816 -0.360139 0)
(-0.0700564 -0.356606 0)
(-0.0279124 -0.208374 0)
(-0.029649 0.239176 0)
(-0.0608417 0.335767 0)
(-0.0219437 0.300501 0)
(0.0505393 0.240125 0)
(0.127568 0.182946 0)
(0.197002 0.135387 0)
(0.254329 0.0973965 0)
(0.298242 0.0668491 0)
(0.328815 0.0413541 0)
(0.346457 0.0187781 0)
(0.351365 -0.00279386 0)
(0.343292 -0.0252641 0)
(0.321459 -0.0507861 0)
(0.284634 -0.082046 0)
(0.231565 -0.122444 0)
(0.162176 -0.175667 0)
(0.0798972 -0.243429 0)
(-0.00319175 -0.319134 0)
(-0.0546703 -0.368611 0)
(-0.0284595 -0.267617 0)
(0.00808315 0.281862 0)
(0.019783 0.294972 0)
(0.139065 0.210972 0)
(0.264459 0.143476 0)
(0.364365 0.0971849 0)
(0.44036 0.0657764 0)
(0.496738 0.0442365 0)
(0.536868 0.0288852 0)
(0.56344 0.0171984 0)
(0.578298 0.00748462 0)
(0.582373 -0.00149397 0)
(0.575688 -0.0108448 0)
(0.557302 -0.0218464 0)
(0.525129 -0.0363341 0)
(0.475772 -0.0572586 0)
(0.404534 -0.0893831 0)
(0.305174 -0.13974 0)
(0.173416 -0.216385 0)
(0.0411716 -0.311654 0)
(0.0184302 -0.299995 0)
(0.299604 0.146091 0)
(0.396272 0.127503 0)
(0.55742 0.0760894 0)
(0.674487 0.0437231 0)
(0.743888 0.0255719 0)
(0.787152 0.015242 0)
(0.815483 0.00921215 0)
(0.833953 0.00550927 0)
(0.845382 0.00302709 0)
(0.851368 0.00114933 0)
(0.852663 -0.000499343 0)
(0.849379 -0.00221497 0)
(0.840997 -0.00433843 0)
(0.826138 -0.00742392 0)
(0.802076 -0.0125321 0)
(0.76362 -0.0217727 0)
(0.699107 -0.0392828 0)
(0.583952 -0.07266 0)
(0.415827 -0.127868 0)
(0.308819 -0.149468 0)
)
;

boundaryField
{
    movingWall
    {
        type            fixedValue;
        value           uniform (1 0 0);
    }
    fixedWalls
    {
        type            noSlip;
    }
    frontAndBack
    {
        type            empty;
    }
}


// ************************************************************************* //
