0 	2.82099e-07
1.57135 	-1.37199e-06
3.1427 	-1.45798e-05
4.71405 	-6.02969e-05
6.28539 	-0.000185916
7.85674 	-0.000534061
9.42809 	-0.00165883
10.9994 	-0.00506635
12.5708 	-0.00525238
14.1421 	0.250164
