/*--------------------------------*- C++ -*----------------------------------*\
  =========                 |
  \\      /  F ield         | OpenFOAM: The Open Source CFD Toolbox
   \\    /   O peration     | Website:  https://openfoam.org
    \\  /    A nd           | Version:  8
     \\/     M anipulation  |
\*---------------------------------------------------------------------------*/
FoamFile
{
    version     2.0;
    format      ascii;
    class       volScalarField;
    location    "11";
    object      p;
}
// * * * * * * * * * * * * * * * * * * * * * * * * * * * * * * * * * * * * * //

dimensions      [0 2 -2 0 0 0 0];

internalField   nonuniform List<scalar> 
12504
(
0.0282399
0.0251737
0.0187261
0.00888477
-0.00408224
-0.0198254
-0.0379628
-0.0580609
-0.0796345
-0.102171
-0.125167
-0.148153
-0.170722
-0.19254
-0.213347
-0.232953
-0.251218
-0.268044
-0.28336
-0.297112
-0.309257
-0.319757
-0.328578
-0.335683
-0.341036
-0.344602
-0.346345
-0.346237
-0.344254
-0.340386
-0.33463
-0.327013
-0.317564
-0.306358
-0.293467
-0.279024
-0.263134
-0.245998
-0.227731
-0.208608
-0.188712
-0.168411
-0.147672
-0.127029
-0.106182
-0.0860008
-0.0656219
-0.0466624
-0.0270558
-0.0100984
0.0304462
0.0273138
0.0207213
0.0106614
-0.00258485
-0.018654
-0.0371478
-0.0576134
-0.0795447
-0.10241
-0.125689
-0.148904
-0.171645
-0.193581
-0.214463
-0.23411
-0.252393
-0.269222
-0.284533
-0.298277
-0.310414
-0.32091
-0.329729
-0.336838
-0.342198
-0.345775
-0.347532
-0.347439
-0.345468
-0.34161
-0.335859
-0.32824
-0.318781
-0.307555
-0.294633
-0.280149
-0.264206
-0.247007
-0.228667
-0.209466
-0.189482
-0.169094
-0.148262
-0.127532
-0.106589
-0.0863316
-0.0658579
-0.0468427
-0.0271356
-0.0101599
0.0349154
0.0316428
0.0247551
0.0142509
0.000434599
-0.016301
-0.0355231
-0.0567387
-0.0793991
-0.102932
-0.126784
-0.150459
-0.173541
-0.195709
-0.216734
-0.236456
-0.25477
-0.271601
-0.286898
-0.300623
-0.312744
-0.323228
-0.332046
-0.339162
-0.344538
-0.348139
-0.349924
-0.34986
-0.347917
-0.34408
-0.338341
-0.330719
-0.32124
-0.309975
-0.296991
-0.282423
-0.266374
-0.249048
-0.230562
-0.2112
-0.191042
-0.170475
-0.149456
-0.128545
-0.107419
-0.0869917
-0.0663474
-0.0471875
-0.0273256
-0.010241
0.0417458
0.0382553
0.0309113
0.0197201
0.00502011
-0.0127497
-0.0331023
-0.0554816
-0.0792705
-0.103832
-0.128559
-0.152926
-0.176511
-0.199013
-0.220235
-0.240054
-0.258399
-0.275221
-0.29049
-0.304181
-0.316272
-0.326739
-0.335552
-0.34268
-0.348083
-0.351722
-0.353552
-0.353537
-0.351638
-0.347838
-0.342119
-0.334497
-0.32499
-0.313668
-0.300592
-0.285898
-0.269687
-0.252168
-0.233459
-0.213851
-0.193427
-0.172584
-0.151281
-0.13009
-0.108684
-0.0879973
-0.0670943
-0.0477107
-0.0276188
-0.0103568
0.0510949
0.0473011
0.0393228
0.027175
0.0112421
-0.0079734
-0.0299081
-0.0539151
-0.0792772
-0.105261
-0.131185
-0.156478
-0.180717
-0.203634
-0.225084
-0.245001
-0.26336
-0.28015
-0.295365
-0.308999
-0.321044
-0.331483
-0.340291
-0.347437
-0.352878
-0.356573
-0.35847
-0.358527
-0.356696
-0.352952
-0.347268
-0.339651
-0.330113
-0.318716
-0.305519
-0.290655
-0.274225
-0.256443
-0.237428
-0.217483
-0.196693
-0.175472
-0.153777
-0.132203
-0.110413
-0.0893698
-0.0681133
-0.0484234
-0.0280186
-0.010514
0.0631818
0.0589881
0.0501742
0.0367631
0.0191973
-0.00193853
-0.0259791
-0.0521516
-0.0795987
-0.107451
-0.134918
-0.16137
-0.186393
-0.209772
-0.231445
-0.251429
-0.269761
-0.286476
-0.301598
-0.315144
-0.327121
-0.33752
-0.346322
-0.353493
-0.35899
-0.362763
-0.364757
-0.364916
-0.363183
-0.359522
-0.353895
-0.346295
-0.336725
-0.325241
-0.311894
-0.296815
-0.280105
-0.261983
-0.242573
-0.222189
-0.200924
-0.179209
-0.157005
-0.134933
-0.112644
-0.0911393
-0.0694259
-0.0493403
-0.028533
-0.0107166
0.0782948
0.0735901
0.0637091
0.0486792
0.0290122
0.00539454
-0.0213769
-0.0503585
-0.0804975
-0.110733
-0.140121
-0.167961
-0.193858
-0.217695
-0.239538
-0.259516
-0.277748
-0.294321
-0.309294
-0.322708
-0.334588
-0.344935
-0.353729
-0.360937
-0.366511
-0.370394
-0.372521
-0.372824
-0.371231
-0.367692
-0.362151
-0.354589
-0.344994
-0.333413
-0.319888
-0.304548
-0.287491
-0.268945
-0.249037
-0.228101
-0.206235
-0.183898
-0.161051
-0.138349
-0.115433
-0.0933478
-0.0710622
-0.0504817
-0.0291729
-0.0109695
0.096802
0.0914566
0.0802406
0.0631734
0.0408484
0.0140695
-0.0161991
-0.0487822
-0.0823564
-0.115586
-0.147311
-0.176743
-0.203544
-0.227759
-0.249645
-0.269488
-0.287505
-0.303839
-0.318584
-0.331812
-0.34356
-0.353839
-0.362627
-0.369889
-0.375569
-0.379604
-0.381914
-0.382417
-0.38102
-0.377655
-0.372244
-0.364752
-0.355148
-0.343466
-0.329737
-0.314086
-0.296608
-0.277541
-0.257019
-0.235398
-0.212785
-0.189673
-0.166028
-0.142545
-0.118853
-0.0960511
-0.0730622
-0.0518749
-0.0299533
-0.0112783
0.119163
0.113025
0.100164
0.0805626
0.0549089
0.0241309
-0.0105963
-0.0477849
-0.0857345
-0.122705
-0.157225
-0.188403
-0.216027
-0.240417
-0.26212
-0.281629
-0.299266
-0.315227
-0.329644
-0.342614
-0.35419
-0.364383
-0.373171
-0.38051
-0.386338
-0.390579
-0.393137
-0.393914
-0.392793
-0.389674
-0.384454
-0.377077
-0.367492
-0.355714
-0.341755
-0.325738
-0.307755
-0.288056
-0.266782
-0.244317
-0.220784
-0.196716
-0.172086
-0.147643
-0.123
-0.0993221
-0.0754785
-0.0535546
-0.0308942
-0.0116493
0.145945
0.138838
0.123973
0.101244
0.0714479
0.0356162
-0.00480268
-0.0479012
-0.0914505
-0.133103
-0.170919
-0.203896
-0.232079
-0.256254
-0.277406
-0.296288
-0.31332
-0.328733
-0.342692
-0.355318
-0.366674
-0.376766
-0.385561
-0.39301
-0.399039
-0.403557
-0.406448
-0.407595
-0.406857
-0.404079
-0.399131
-0.391936
-0.382412
-0.370551
-0.356342
-0.339901
-0.321316
-0.300851
-0.278659
-0.255161
-0.230497
-0.205253
-0.179416
-0.153796
-0.127995
-0.103252
-0.0783767
-0.0555638
-0.0320208
-0.0120885
0.177836
0.169559
0.152283
0.125719
0.0907867
0.0485423
0.00080783
-0.04995
-0.10073
-0.148252
-0.189898
-0.224553
-0.252741
-0.276028
-0.29606
-0.313895
-0.330014
-0.34465
-0.357989
-0.37017
-0.381248
-0.391216
-0.400028
-0.407624
-0.413916
-0.418799
-0.422132
-0.423775
-0.423551
-0.421233
-0.416664
-0.409743
-0.400345
-0.388427
-0.373952
-0.357027
-0.337731
-0.316348
-0.293044
-0.268285
-0.242238
-0.215554
-0.188241
-0.161184
-0.133977
-0.107944
-0.0818333
-0.0579515
-0.0333632
-0.0125992
0.21566
0.205995
0.185856
0.154624
0.113343
0.0628963
0.00564428
-0.0552417
-0.11551
-0.17038
-0.216297
-0.252146
-0.279324
-0.300671
-0.318762
-0.334967
-0.349747
-0.363293
-0.375799
-0.3874
-0.398122
-0.407926
-0.416751
-0.424523
-0.431138
-0.436473
-0.440365
-0.442647
-0.443092
-0.441385
-0.437339
-0.430815
-0.421636
-0.409716
-0.39498
-0.37752
-0.357406
-0.334941
-0.31031
-0.284033
-0.256314
-0.227883
-0.198782
-0.169985
-0.141086
-0.113502
-0.0859243
-0.0607642
-0.0349528
-0.0131779
0.260384
0.24912
0.22563
0.188784
0.139675
0.078644
0.00883285
-0.0658391
-0.138979
-0.2031
-0.253336
-0.28902
-0.313321
-0.331129
-0.346179
-0.359991
-0.372843
-0.38486
-0.396234
-0.407057
-0.417289
-0.426844
-0.435638
-0.44358
-0.450553
-0.456406
-0.460971
-0.464054
-0.465279
-0.464343
-0.461002
-0.455045
-0.446224
-0.434403
-0.419459
-0.401462
-0.380464
-0.356785
-0.330631
-0.302586
-0.272901
-0.242401
-0.211176
-0.180308
-0.149409
-0.119988
-0.0906987
-0.0640282
-0.036813
-0.0138076
0.313117
0.300096
0.272742
0.229279
0.170506
0.0957223
0.0090937
-0.084816
-0.176124
-0.252374
-0.30629
-0.33858
-0.356354
-0.368031
-0.378537
-0.388972
-0.39913
-0.409038
-0.418869
-0.428614
-0.438124
-0.447252
-0.455893
-0.463941
-0.471256
-0.477652
-0.482936
-0.486899
-0.488999
-0.489002
-0.486572
-0.481391
-0.473129
-0.461591
-0.446591
-0.428162
-0.406324
-0.381411
-0.353642
-0.323666
-0.291793
-0.258956
-0.225316
-0.192072
-0.158884
-0.12735
-0.0961254
-0.0677123
-0.03894
-0.01445
0.375082
0.360278
0.328587
0.277546
0.206701
0.113907
0.00411177
-0.117328
-0.234087
-0.326752
-0.383001
-0.405627
-0.410066
-0.411221
-0.414846
-0.420486
-0.426969
-0.434117
-0.441955
-0.450261
-0.458736
-0.467186
-0.475483
-0.48351
-0.491102
-0.498047
-0.504061
-0.508798
-0.511877
-0.512997
-0.511683
-0.507511
-0.500069
-0.489092
-0.474315
-0.45572
-0.433274
-0.407307
-0.378037
-0.346175
-0.312084
-0.276812
-0.240611
-0.204804
-0.169148
-0.135303
-0.102008
-0.0716724
-0.0412718
-0.0150399
0.44757
0.431197
0.394951
0.335575
0.249392
0.132556
-0.0109195
-0.174412
-0.323735
-0.435368
-0.489994
-0.493052
-0.474003
-0.458278
-0.451473
-0.450223
-0.451926
-0.455884
-0.461569
-0.468325
-0.475669
-0.483356
-0.491238
-0.499177
-0.506985
-0.514431
-0.521163
-0.526727
-0.530915
-0.53327
-0.533215
-0.530256
-0.523899
-0.513799
-0.499605
-0.481231
-0.458576
-0.431943
-0.401529
-0.368086
-0.332017
-0.294477
-0.255821
-0.217492
-0.179392
-0.143211
-0.107886
-0.0755776
-0.0436424
-0.015489
0.531821
0.514451
0.474276
0.406381
0.300906
0.150817
-0.0445216
-0.27565
-0.467302
-0.586189
-0.622658
-0.591423
-0.538889
-0.501079
-0.480998
-0.471471
-0.468295
-0.469624
-0.473835
-0.479635
-0.486327
-0.493602
-0.501295
-0.509259
-0.517309
-0.525214
-0.532644
-0.539196
-0.54444
-0.547944
-0.54912
-0.547416
-0.542255
-0.533216
-0.519863
-0.50204
-0.479564
-0.452702
-0.421601
-0.387036
-0.349428
-0.310014
-0.269253
-0.228681
-0.18841
-0.150084
-0.113002
-0.0788729
-0.0457427
-0.0156923
0.628651
0.611462
0.569774
0.494699
0.367175
0.170864
-0.110382
-0.435759
-0.62217
-0.73182
-0.732021
-0.662858
-0.579778
-0.525827
-0.498048
-0.483566
-0.4776
-0.477401
-0.480581
-0.48563
-0.491831
-0.498847
-0.506472
-0.514539
-0.522855
-0.531182
-0.539201
-0.546562
-0.552792
-0.557266
-0.559482
-0.558856
-0.55476
-0.546705
-0.534192
-0.516997
-0.494874
-0.468038
-0.43659
-0.4013
-0.362593
-0.321754
-0.279344
-0.236947
-0.194938
-0.154828
-0.116463
-0.0808647
-0.047152
-0.0155344
0.737741
0.72296
0.684793
0.607107
0.460644
0.205558
-0.129934
-0.524819
-0.815805
-0.899774
-0.859629
-0.721145
-0.604895
-0.539623
-0.499356
-0.484275
-0.478945
-0.479383
-0.48295
-0.488193
-0.494497
-0.501583
-0.50929
-0.517485
-0.526001
-0.534615
-0.54302
-0.550832
-0.557557
-0.562704
-0.565631
-0.565719
-0.562343
-0.554966
-0.54305
-0.526312
-0.504467
-0.477674
-0.446006
-0.410205
-0.370706
-0.328804
-0.285161
-0.241357
-0.198073
-0.156596
-0.117507
-0.0809064
-0.0474463
-0.0148782
0.85672
0.848098
0.820675
0.751491
0.599026
0.314271
-0.118908
-0.572448
-0.90651
-0.615083
-0.541242
-0.504457
-0.485119
-0.480661
-0.48126
-0.484847
-0.490042
-0.49628
-0.503306
-0.51098
-0.519176
-0.527736
-0.53644
-0.544984
-0.552984
-0.559962
-0.565376
-0.568606
-0.569043
-0.565994
-0.558918
-0.547264
-0.530698
-0.508924
-0.482046
-0.450137
-0.413895
-0.373778
-0.331062
-0.286504
-0.241651
-0.197484
-0.155031
-0.115714
-0.0785742
-0.0463057
-0.0135198
0.980614
0.982887
0.974173
0.935121
0.787148
0.475124
-0.0106008
-0.535211
-0.502305
-0.486465
-0.480342
-0.481491
-0.485249
-0.490493
-0.496749
-0.503773
-0.51144
-0.519625
-0.528169
-0.536855
-0.545382
-0.553368
-0.56034
-0.565751
-0.568988
-0.569409
-0.56639
-0.559283
-0.54758
-0.530916
-0.509001
-0.481887
-0.449679
-0.413009
-0.372385
-0.329034
-0.283805
-0.238201
-0.193433
-0.150348
-0.11111
-0.073796
-0.0435598
-0.011127
1.10187
1.11816
1.13982
1.14589
1.02764
0.722679
-0.499445
-0.482715
-0.477475
-0.47947
-0.483649
-0.489184
-0.495643
-0.502814
-0.51057
-0.518789
-0.527316
-0.535936
-0.544356
-0.552198
-0.558995
-0.564208
-0.56723
-0.56742
-0.564132
-0.5568
-0.544823
-0.527866
-0.505655
-0.478211
-0.445662
-0.408592
-0.367562
-0.323734
-0.278036
-0.231943
-0.186762
-0.143326
-0.104217
-0.0669678
-0.0392069
-0.00723679
1.20912
1.24151
1.29815
1.35937
1.29237
1.0578
-0.475839
-0.472383
-0.475422
-0.480335
-0.486415
-0.493274
-0.50073
-0.508668
-0.516975
-0.525507
-0.534054
-0.54233
-0.549966
-0.556504
-0.561414
-0.564104
-0.563935
-0.560266
-0.552597
-0.54019
-0.522844
-0.500269
-0.472462
-0.439593
-0.402178
-0.360854
-0.316699
-0.270724
-0.224338
-0.17887
-0.13528
-0.096162
-0.0590637
-0.0335537
-0.00155393
1.29017
1.33664
1.42591
1.54081
1.54414
1.42779
-0.471216
-0.466453
-0.470759
-0.47655
-0.483268
-0.490587
-0.498368
-0.506516
-0.514934
-0.523486
-0.531973
-0.540116
-0.547554
-0.553838
-0.558448
-0.560802
-0.560276
-0.556215
-0.547976
-0.535321
-0.517643
-0.494746
-0.46663
-0.433495
-0.395835
-0.354324
-0.309979
-0.26386
-0.217339
-0.171669
-0.127981
-0.0887976
-0.0516661
-0.0277443
0.00515562
1.33392
1.38866
1.49756
1.64388
1.72119
-0.456459
-0.462561
-0.467681
-0.474043
-0.481184
-0.488812
-0.496809
-0.505097
-0.513591
-0.522161
-0.530613
-0.538675
-0.54599
-0.552117
-0.55654
-0.558684
-0.557936
-0.553652
-0.545214
-0.532225
-0.514313
-0.491219
-0.462925
-0.42964
-0.391853
-0.350253
-0.305829
-0.259656
-0.213067
-0.167295
-0.123626
-0.0841988
-0.0468981
-0.0240558
0.0102143
1.33392
1.38866
1.49756
1.64388
1.75767
-0.452171
-0.46256
-0.46768
-0.474042
-0.481183
-0.48881
-0.496807
-0.505095
-0.513589
-0.522158
-0.53061
-0.538672
-0.545988
-0.552115
-0.556538
-0.558683
-0.557936
-0.553653
-0.545216
-0.532228
-0.514318
-0.491224
-0.462931
-0.429647
-0.39186
-0.350261
-0.305836
-0.259662
-0.213073
-0.1673
-0.123629
-0.0842007
-0.0468991
-0.0240557
0.0102142
1.29017
1.33664
1.42591
1.54081
1.64731
-0.458784
-0.466451
-0.470757
-0.476547
-0.483264
-0.490583
-0.498362
-0.506509
-0.514927
-0.523478
-0.531964
-0.540107
-0.547545
-0.553831
-0.558442
-0.560798
-0.560275
-0.556217
-0.547976
-0.535329
-0.517656
-0.494763
-0.466649
-0.433515
-0.395856
-0.354345
-0.309999
-0.263878
-0.217355
-0.171681
-0.12799
-0.0888022
-0.0516688
-0.0277442
0.00515584
1.20913
1.24152
1.29815
1.35937
1.41681
1.35015
-0.47149
-0.47238
-0.475419
-0.48033
-0.48641
-0.493267
-0.500721
-0.508657
-0.516964
-0.525494
-0.53404
-0.542316
-0.549953
-0.556493
-0.561406
-0.564099
-0.563935
-0.560272
-0.552613
-0.540207
-0.522864
-0.500295
-0.472491
-0.439624
-0.40221
-0.360885
-0.316728
-0.27075
-0.22436
-0.178887
-0.135292
-0.0961691
-0.0590671
-0.0335535
-0.00155337
1.10188
1.11816
1.13982
1.1459
1.15181
0.991061
-0.479543
-0.477471
-0.479466
-0.483643
-0.489176
-0.495634
-0.502803
-0.510557
-0.518773
-0.527299
-0.535918
-0.544338
-0.552181
-0.558981
-0.564197
-0.567224
-0.567419
-0.564139
-0.556815
-0.544844
-0.527893
-0.505687
-0.478248
-0.445701
-0.408632
-0.367601
-0.32377
-0.278068
-0.231969
-0.186782
-0.14334
-0.104225
-0.0669714
-0.0392066
-0.007236
0.980616
0.982889
0.974175
0.935124
0.896208
0.583761
0.246098
-0.496896
-0.485739
-0.480338
-0.481486
-0.485242
-0.490484
-0.496738
-0.503759
-0.511424
-0.519606
-0.528149
-0.536833
-0.545361
-0.553349
-0.560324
-0.565739
-0.568982
-0.56941
-0.566398
-0.5593
-0.547604
-0.530947
-0.509038
-0.481928
-0.449723
-0.413053
-0.372428
-0.329074
-0.283839
-0.238229
-0.193454
-0.150362
-0.111118
-0.0737994
-0.0435596
-0.0111262
0.856723
0.848101
0.820678
0.751495
0.599031
0.378447
-0.108387
-0.503854
-0.539722
-0.505641
-0.485116
-0.480657
-0.481254
-0.48484
-0.490032
-0.496267
-0.50329
-0.510961
-0.519155
-0.527714
-0.536417
-0.544961
-0.552963
-0.559944
-0.565363
-0.5686
-0.569045
-0.566004
-0.558937
-0.54729
-0.530731
-0.508964
-0.48209
-0.450183
-0.413941
-0.373822
-0.331102
-0.286539
-0.241679
-0.197504
-0.155045
-0.115722
-0.0785773
-0.0463056
-0.0135191
0.737744
0.722963
0.684796
0.607111
0.460648
0.205563
-0.132252
-0.612536
-0.849902
-0.739691
-0.609883
-0.545937
-0.499353
-0.484272
-0.478941
-0.479377
-0.482942
-0.488183
-0.494484
-0.501566
-0.50927
-0.517462
-0.525977
-0.53459
-0.542996
-0.55081
-0.557539
-0.562692
-0.565626
-0.565722
-0.562354
-0.554985
-0.543077
-0.526347
-0.504508
-0.477719
-0.446052
-0.410251
-0.370749
-0.328843
-0.285194
-0.241383
-0.198092
-0.156608
-0.117514
-0.0809093
-0.0474464
-0.0148778
0.628655
0.611465
0.569777
0.494702
0.367179
0.170868
-0.110377
-0.435754
-0.71835
-0.846267
-0.804587
-0.69375
-0.579774
-0.525824
-0.498045
-0.483563
-0.477596
-0.477395
-0.480573
-0.485618
-0.491817
-0.498829
-0.506452
-0.514516
-0.522831
-0.531157
-0.539178
-0.546541
-0.552775
-0.557255
-0.559478
-0.55886
-0.554772
-0.546725
-0.53422
-0.517032
-0.494914
-0.468081
-0.436635
-0.401343
-0.362633
-0.32179
-0.279374
-0.236971
-0.194955
-0.154839
-0.116469
-0.0808675
-0.0471524
-0.0155343
0.531824
0.514454
0.474279
0.406384
0.30091
0.150821
-0.0445171
-0.275646
-0.467297
-0.586184
-0.622653
-0.591419
-0.538885
-0.501075
-0.480995
-0.471467
-0.46829
-0.469617
-0.473826
-0.479623
-0.486312
-0.493584
-0.501275
-0.509236
-0.517286
-0.52519
-0.532622
-0.539177
-0.544425
-0.547934
-0.549118
-0.547421
-0.542268
-0.533236
-0.519891
-0.502073
-0.479602
-0.452742
-0.421642
-0.387075
-0.349465
-0.310046
-0.269279
-0.228702
-0.188425
-0.150094
-0.113008
-0.0788757
-0.0457435
-0.0156925
0.447574
0.4312
0.394955
0.335579
0.249396
0.13256
-0.0109152
-0.174407
-0.323731
-0.435363
-0.48999
-0.493048
-0.473999
-0.458274
-0.451468
-0.450218
-0.45192
-0.455876
-0.46156
-0.468313
-0.475654
-0.483339
-0.491219
-0.499156
-0.506964
-0.51441
-0.521144
-0.526711
-0.530903
-0.533263
-0.533214
-0.530262
-0.523912
-0.513819
-0.499631
-0.481262
-0.45861
-0.431979
-0.401565
-0.36812
-0.332049
-0.294505
-0.255844
-0.217509
-0.179405
-0.14322
-0.107891
-0.0755804
-0.0436435
-0.0154894
0.375085
0.360282
0.32859
0.27755
0.206704
0.113911
0.00411598
-0.117323
-0.234083
-0.326748
-0.382997
-0.405623
-0.410062
-0.411217
-0.414842
-0.420481
-0.426963
-0.434109
-0.441946
-0.450249
-0.458723
-0.46717
-0.475466
-0.483492
-0.491083
-0.498029
-0.504045
-0.508784
-0.511867
-0.512993
-0.511683
-0.507517
-0.500082
-0.48911
-0.474338
-0.455747
-0.433303
-0.407337
-0.378067
-0.346204
-0.31211
-0.276834
-0.240629
-0.204819
-0.169159
-0.13531
-0.102013
-0.0716752
-0.0412731
-0.0150404
0.313121
0.3001
0.272746
0.229283
0.17051
0.0957264
0.00909786
-0.0848118
-0.176119
-0.25237
-0.306285
-0.338576
-0.356349
-0.368027
-0.378532
-0.388967
-0.399124
-0.409031
-0.41886
-0.428604
-0.438112
-0.447238
-0.455878
-0.463926
-0.47124
-0.477637
-0.482923
-0.486888
-0.488992
-0.488998
-0.486573
-0.481397
-0.47314
-0.461606
-0.44661
-0.428184
-0.406349
-0.381436
-0.353666
-0.32369
-0.291814
-0.258974
-0.225331
-0.192084
-0.158893
-0.127356
-0.0961298
-0.067715
-0.0389414
-0.0144506
0.260388
0.249124
0.225633
0.188788
0.139679
0.0786481
0.008837
-0.0658348
-0.138975
-0.203096
-0.253332
-0.289015
-0.313316
-0.331124
-0.346174
-0.359985
-0.372837
-0.384853
-0.396225
-0.407047
-0.417279
-0.426832
-0.435625
-0.443567
-0.45054
-0.456394
-0.46096
-0.464045
-0.465273
-0.464341
-0.461004
-0.45505
-0.446233
-0.434415
-0.419475
-0.40148
-0.380483
-0.356805
-0.330651
-0.302605
-0.272917
-0.242415
-0.211189
-0.180318
-0.149417
-0.119994
-0.0907026
-0.0640307
-0.0368143
-0.0138082
0.215663
0.205999
0.18586
0.154628
0.113347
0.0629003
0.00564842
-0.0552375
-0.115506
-0.170375
-0.216293
-0.252141
-0.27932
-0.300666
-0.318756
-0.334962
-0.34974
-0.363286
-0.375791
-0.387391
-0.398112
-0.407916
-0.416741
-0.424512
-0.431127
-0.436463
-0.440357
-0.44264
-0.443087
-0.441383
-0.43734
-0.430819
-0.421643
-0.409726
-0.394992
-0.377534
-0.357421
-0.334957
-0.310325
-0.284048
-0.256327
-0.227895
-0.198792
-0.169993
-0.141092
-0.113507
-0.0859276
-0.0607665
-0.034954
-0.0131784
0.17784
0.169563
0.152287
0.125723
0.0907907
0.0485464
0.00081199
-0.0499458
-0.100725
-0.148248
-0.189894
-0.224549
-0.252736
-0.276023
-0.296054
-0.313889
-0.330008
-0.344644
-0.357982
-0.370162
-0.38124
-0.391207
-0.400019
-0.407615
-0.413907
-0.41879
-0.422125
-0.423769
-0.423547
-0.421231
-0.416665
-0.409746
-0.40035
-0.388435
-0.373962
-0.357038
-0.337743
-0.31636
-0.293056
-0.268296
-0.242248
-0.215563
-0.188249
-0.161191
-0.133982
-0.107948
-0.0818361
-0.0579534
-0.0333643
-0.0125997
0.145949
0.138842
0.123977
0.101248
0.0714519
0.0356203
-0.00479851
-0.0478969
-0.0914462
-0.133098
-0.170915
-0.203892
-0.232074
-0.256249
-0.277401
-0.296282
-0.313314
-0.328726
-0.342685
-0.355311
-0.366666
-0.376758
-0.385553
-0.393002
-0.399031
-0.403549
-0.406442
-0.40759
-0.406853
-0.404077
-0.399131
-0.391938
-0.382417
-0.370557
-0.356349
-0.33991
-0.321325
-0.300861
-0.278669
-0.25517
-0.230506
-0.205261
-0.179423
-0.153802
-0.127999
-0.103255
-0.0783791
-0.0555654
-0.0320217
-0.0120889
0.119167
0.113029
0.100168
0.0805666
0.0549129
0.0241351
-0.0105921
-0.0477806
-0.0857302
-0.122701
-0.15722
-0.188398
-0.216022
-0.240412
-0.262115
-0.281623
-0.29926
-0.315221
-0.329637
-0.342607
-0.354183
-0.364376
-0.373163
-0.380503
-0.386331
-0.390572
-0.393131
-0.39391
-0.39279
-0.389673
-0.384454
-0.377079
-0.367495
-0.355718
-0.341761
-0.325745
-0.307763
-0.288063
-0.266789
-0.244324
-0.220791
-0.196722
-0.172091
-0.147647
-0.123004
-0.0993247
-0.0754804
-0.0535559
-0.0308949
-0.0116496
0.0968061
0.0914606
0.0802447
0.0631775
0.0408525
0.0140737
-0.0161949
-0.0487779
-0.082352
-0.115581
-0.147307
-0.176739
-0.203539
-0.227754
-0.249639
-0.269482
-0.2875
-0.303833
-0.318578
-0.331805
-0.343554
-0.353832
-0.36262
-0.369882
-0.375563
-0.379598
-0.381909
-0.382413
-0.381017
-0.377653
-0.372244
-0.364753
-0.35515
-0.34347
-0.329741
-0.314091
-0.296614
-0.277547
-0.257025
-0.235404
-0.212791
-0.189678
-0.166032
-0.142549
-0.118856
-0.0960532
-0.0730637
-0.0518759
-0.0299539
-0.0112785
0.0782989
0.0735942
0.0637132
0.0486833
0.0290164
0.00539872
-0.0213727
-0.0503542
-0.0804931
-0.110728
-0.140116
-0.167956
-0.193853
-0.21769
-0.239532
-0.25951
-0.277743
-0.294315
-0.309288
-0.322702
-0.334582
-0.344928
-0.353723
-0.360931
-0.366505
-0.370389
-0.372516
-0.372821
-0.371228
-0.36769
-0.36215
-0.35459
-0.344996
-0.333416
-0.319892
-0.304552
-0.287496
-0.26895
-0.249042
-0.228106
-0.206239
-0.183902
-0.161054
-0.138352
-0.115436
-0.0933494
-0.0710634
-0.0504825
-0.0291733
-0.0109697
0.0631859
0.0589922
0.0501783
0.0367673
0.0192015
-0.0019343
-0.0259748
-0.0521473
-0.0795943
-0.107446
-0.134913
-0.161366
-0.186388
-0.209766
-0.23144
-0.251423
-0.269756
-0.286471
-0.301592
-0.315138
-0.327114
-0.337514
-0.346316
-0.353487
-0.358984
-0.362758
-0.364753
-0.364912
-0.363181
-0.359521
-0.353894
-0.346296
-0.336727
-0.325243
-0.311897
-0.296819
-0.280109
-0.261987
-0.242577
-0.222193
-0.200927
-0.179212
-0.157008
-0.134935
-0.112646
-0.0911406
-0.0694269
-0.0493409
-0.0285333
-0.0107168
0.051099
0.0473052
0.0393269
0.0271792
0.0112463
-0.00796915
-0.0299038
-0.0539108
-0.0792728
-0.105257
-0.131181
-0.156473
-0.180712
-0.203629
-0.225078
-0.244995
-0.263354
-0.280144
-0.295359
-0.308993
-0.321038
-0.331477
-0.340285
-0.347431
-0.352873
-0.356568
-0.358466
-0.358524
-0.356694
-0.35295
-0.347267
-0.339651
-0.330114
-0.318718
-0.305521
-0.290658
-0.274228
-0.256446
-0.237431
-0.217486
-0.196696
-0.175474
-0.153779
-0.132205
-0.110414
-0.0893708
-0.068114
-0.0484238
-0.0280188
-0.0105141
0.04175
0.0382594
0.0309154
0.0197243
0.00502436
-0.0127454
-0.033098
-0.0554773
-0.0792661
-0.103827
-0.128555
-0.152921
-0.176506
-0.199008
-0.22023
-0.240049
-0.258393
-0.275216
-0.290485
-0.304176
-0.316266
-0.326733
-0.335547
-0.342675
-0.348078
-0.351717
-0.353548
-0.353533
-0.351636
-0.347836
-0.342119
-0.334497
-0.324991
-0.313669
-0.300594
-0.2859
-0.269689
-0.252171
-0.233462
-0.213854
-0.193429
-0.172586
-0.151283
-0.130092
-0.108685
-0.0879981
-0.0670949
-0.047711
-0.0276189
-0.0103569
0.0349196
0.031647
0.0247593
0.0142552
0.000438882
-0.0162967
-0.0355187
-0.0567344
-0.0793947
-0.102928
-0.12678
-0.150454
-0.173536
-0.195704
-0.216729
-0.236451
-0.254764
-0.271595
-0.286893
-0.300618
-0.312738
-0.323223
-0.33204
-0.339156
-0.344534
-0.348135
-0.34992
-0.349857
-0.347914
-0.344078
-0.33834
-0.330719
-0.321241
-0.309976
-0.296993
-0.282425
-0.266376
-0.249051
-0.230565
-0.211203
-0.191045
-0.170477
-0.149458
-0.128546
-0.10742
-0.0869924
-0.0663478
-0.0471877
-0.0273257
-0.0102411
0.0304504
0.027318
0.0207256
0.0106657
-0.00258054
-0.0186497
-0.0371435
-0.0576091
-0.0795403
-0.102406
-0.125684
-0.148899
-0.17164
-0.193576
-0.214458
-0.234104
-0.252387
-0.269216
-0.284527
-0.298271
-0.310408
-0.320904
-0.329724
-0.336833
-0.342194
-0.345771
-0.347529
-0.347436
-0.345466
-0.341608
-0.335859
-0.32824
-0.318781
-0.307557
-0.294635
-0.280151
-0.264208
-0.247009
-0.228669
-0.209468
-0.189484
-0.169096
-0.148263
-0.127533
-0.10659
-0.0863322
-0.0658582
-0.0468428
-0.0271356
-0.0101599
0.0282441
0.0251779
0.0187304
0.00888904
-0.00407793
-0.0198211
-0.0379584
-0.0580566
-0.0796301
-0.102167
-0.125162
-0.148148
-0.170717
-0.192535
-0.213342
-0.232947
-0.251212
-0.268038
-0.283354
-0.297106
-0.309251
-0.319752
-0.328573
-0.335678
-0.341031
-0.344598
-0.346342
-0.346235
-0.344252
-0.340384
-0.33463
-0.327013
-0.317565
-0.30636
-0.293469
-0.279026
-0.263136
-0.246
-0.227733
-0.20861
-0.188713
-0.168413
-0.147674
-0.127031
-0.106183
-0.0860013
-0.0656221
-0.0466626
-0.0270558
-0.0100984
0.0282388
0.0251766
0.0187283
0.00888508
-0.00408223
-0.0198252
-0.0379628
-0.0580614
-0.0796353
-0.102172
-0.125168
-0.148154
-0.170723
-0.19254
-0.213348
-0.232953
-0.251218
-0.268044
-0.28336
-0.297112
-0.309257
-0.319758
-0.328578
-0.335683
-0.341036
-0.344602
-0.346345
-0.346238
-0.344254
-0.340386
-0.334631
-0.327013
-0.317564
-0.306359
-0.293467
-0.279025
-0.263134
-0.245998
-0.227731
-0.208609
-0.18871
-0.168413
-0.14767
-0.127033
-0.106177
-0.0860081
-0.0656106
-0.0466784
-0.0270297
-0.0101349
0.0304452
0.0273168
0.0207235
0.0106618
-0.0025848
-0.0186539
-0.0371478
-0.0576139
-0.0795455
-0.102411
-0.12569
-0.148905
-0.171646
-0.193582
-0.214464
-0.23411
-0.252393
-0.269222
-0.284533
-0.298277
-0.310414
-0.32091
-0.329729
-0.336838
-0.342198
-0.345776
-0.347532
-0.347439
-0.345468
-0.34161
-0.33586
-0.32824
-0.318781
-0.307556
-0.294633
-0.280149
-0.264206
-0.247007
-0.228667
-0.209467
-0.189481
-0.169096
-0.148259
-0.127536
-0.106584
-0.0863388
-0.0658469
-0.0468583
-0.0271099
-0.0101959
0.0349144
0.031646
0.0247573
0.0142513
0.00043466
-0.0163008
-0.0355231
-0.0567394
-0.0794002
-0.102933
-0.126786
-0.15046
-0.173542
-0.19571
-0.216735
-0.236457
-0.25477
-0.271601
-0.286898
-0.300624
-0.312744
-0.323228
-0.332046
-0.339162
-0.344539
-0.348139
-0.349924
-0.34986
-0.347917
-0.34408
-0.338341
-0.33072
-0.32124
-0.309976
-0.296991
-0.282424
-0.266374
-0.249049
-0.230562
-0.211201
-0.191041
-0.170477
-0.149454
-0.128548
-0.107414
-0.0869989
-0.0663364
-0.0472032
-0.0272999
-0.0102773
0.0417448
0.0382587
0.0309137
0.0197205
0.00502018
-0.0127495
-0.0331025
-0.0554825
-0.0792718
-0.103833
-0.128561
-0.152927
-0.176512
-0.199014
-0.220235
-0.240055
-0.258399
-0.275222
-0.290491
-0.304182
-0.316272
-0.326739
-0.335553
-0.34268
-0.348083
-0.351722
-0.353552
-0.353537
-0.351638
-0.347838
-0.34212
-0.334497
-0.324991
-0.313668
-0.300592
-0.285898
-0.269687
-0.252169
-0.233458
-0.213852
-0.193426
-0.172586
-0.151278
-0.130094
-0.108679
-0.0880047
-0.0670831
-0.0477267
-0.0275927
-0.0103936
0.0510938
0.0473049
0.0393255
0.0271755
0.0112422
-0.00797328
-0.0299085
-0.0539164
-0.0792791
-0.105263
-0.131187
-0.15648
-0.180718
-0.203635
-0.225084
-0.245001
-0.26336
-0.28015
-0.295365
-0.308999
-0.321044
-0.331483
-0.340291
-0.347437
-0.352878
-0.356573
-0.358471
-0.358527
-0.356696
-0.352952
-0.347269
-0.339652
-0.330113
-0.318717
-0.305519
-0.290656
-0.274225
-0.256443
-0.237428
-0.217484
-0.196692
-0.175473
-0.153774
-0.132207
-0.110407
-0.0893773
-0.0681017
-0.0484397
-0.0279919
-0.0105515
0.0631806
0.0589924
0.0501773
0.0367638
0.0191975
-0.00193842
-0.0259797
-0.0521534
-0.0796013
-0.107454
-0.13492
-0.161373
-0.186394
-0.209772
-0.231445
-0.251429
-0.269762
-0.286477
-0.301598
-0.315145
-0.327121
-0.337521
-0.346322
-0.353493
-0.35899
-0.362764
-0.364757
-0.364916
-0.363184
-0.359523
-0.353895
-0.346296
-0.336726
-0.325242
-0.311894
-0.296816
-0.280105
-0.261984
-0.242572
-0.22219
-0.200923
-0.179211
-0.157003
-0.134937
-0.112639
-0.0911471
-0.069414
-0.0493571
-0.0285055
-0.0107551
0.0782936
0.073595
0.0637128
0.04868
0.0290126
0.00539465
-0.021378
-0.050361
-0.0805013
-0.110737
-0.140125
-0.167963
-0.193859
-0.217695
-0.239537
-0.259516
-0.277748
-0.294321
-0.309294
-0.322708
-0.334588
-0.344935
-0.353729
-0.360937
-0.366511
-0.370395
-0.372521
-0.372825
-0.371232
-0.367692
-0.362151
-0.35459
-0.344995
-0.333414
-0.319888
-0.304549
-0.287491
-0.268946
-0.249037
-0.228103
-0.206234
-0.1839
-0.161048
-0.138353
-0.115428
-0.0933558
-0.0710498
-0.0504991
-0.0291444
-0.0110091
0.0968007
0.0914621
0.080245
0.0631746
0.040849
0.0140696
-0.0162009
-0.048786
-0.082362
-0.115592
-0.147317
-0.176746
-0.203545
-0.227758
-0.249644
-0.269487
-0.287506
-0.303839
-0.318584
-0.331812
-0.343561
-0.353839
-0.362627
-0.369889
-0.375569
-0.379604
-0.381914
-0.382417
-0.381021
-0.377656
-0.372245
-0.364753
-0.355149
-0.343467
-0.329737
-0.314087
-0.296608
-0.277542
-0.257019
-0.2354
-0.212784
-0.189675
-0.166025
-0.142549
-0.118847
-0.0960595
-0.0730493
-0.051893
-0.0299238
-0.0113193
0.119162
0.113032
0.100169
0.0805641
0.05491
0.024131
-0.0105991
-0.0477907
-0.085743
-0.122714
-0.157232
-0.188406
-0.216027
-0.240415
-0.262119
-0.281628
-0.299266
-0.315227
-0.329644
-0.342614
-0.35419
-0.364383
-0.373171
-0.38051
-0.386338
-0.390579
-0.393137
-0.393914
-0.392793
-0.389675
-0.384454
-0.377078
-0.367492
-0.355714
-0.341755
-0.325739
-0.307755
-0.288057
-0.266781
-0.244318
-0.220782
-0.196718
-0.172083
-0.147647
-0.122994
-0.0993309
-0.075465
-0.0535734
-0.0308633
-0.011692
0.145943
0.138845
0.12398
0.101246
0.0714502
0.0356164
-0.00480702
-0.0479107
-0.0914645
-0.133117
-0.170928
-0.203898
-0.232075
-0.256249
-0.277404
-0.296287
-0.31332
-0.328733
-0.342691
-0.355318
-0.366673
-0.376765
-0.38556
-0.393009
-0.399038
-0.403556
-0.406448
-0.407595
-0.406856
-0.404077
-0.399129
-0.391935
-0.382412
-0.37055
-0.356341
-0.339901
-0.321315
-0.300851
-0.278658
-0.255162
-0.230495
-0.205255
-0.179412
-0.1538
-0.127988
-0.103261
-0.0783625
-0.0555835
-0.0319885
-0.0121331
0.177833
0.169566
0.152292
0.125722
0.0907911
0.048543
0.000802173
-0.0499644
-0.100753
-0.148275
-0.189911
-0.224552
-0.252728
-0.276016
-0.296055
-0.313894
-0.330014
-0.344649
-0.357987
-0.370168
-0.381246
-0.391213
-0.400025
-0.407622
-0.413914
-0.418797
-0.42213
-0.423773
-0.423548
-0.421229
-0.41666
-0.409739
-0.400341
-0.388424
-0.373949
-0.357025
-0.337729
-0.316347
-0.293041
-0.268284
-0.242235
-0.215555