/*--------------------------------*- C++ -*----------------------------------*\
  =========                 |
  \\      /  F ield         | OpenFOAM: The Open Source CFD Toolbox
   \\    /   O peration     | Website:  https://openfoam.org
    \\  /    A nd           | Version:  8
     \\/     M anipulation  |
\*---------------------------------------------------------------------------*/
FoamFile
{
    version     2.0;
    format      ascii;
    class       volVectorField;
    location    "11";
    object      U;
}
// * * * * * * * * * * * * * * * * * * * * * * * * * * * * * * * * * * * * * //

dimensions      [0 1 -1 0 0 0 0];

internalField   nonuniform List<vector> 
12504
(
(1.00014 -0.00069364 8.53246e-07)
(1.00354 -0.00206735 -1.05802e-06)
(1.0103 -0.00338292 -1.97961e-06)
(1.02036 -0.0045958 -1.31641e-06)
(1.03334 -0.00566847 -7.09938e-07)
(1.04882 -0.00657062 -4.84249e-07)
(1.06634 -0.00728024 -3.39451e-07)
(1.08539 -0.00778568 -2.00375e-08)
(1.10546 -0.00808684 3.35873e-07)
(1.12604 -0.00819511 6.52708e-07)
(1.14666 -0.00813173 8.90202e-07)
(1.16692 -0.00792486 1.02269e-06)
(1.18649 -0.0076057 1.03955e-06)
(1.20512 -0.00720444 9.57735e-07)
(1.22266 -0.00674717 8.12448e-07)
(1.23898 -0.00625426 6.49567e-07)
(1.25402 -0.00574032 4.97934e-07)
(1.26775 -0.00521494 3.7671e-07)
(1.28014 -0.00468391 2.79677e-07)
(1.29121 -0.00415006 2.11934e-07)
(1.30093 -0.00361418 1.58351e-07)
(1.3093 -0.00307546 1.34728e-07)
(1.31633 -0.00253237 1.16162e-07)
(1.32199 -0.00198282 1.30091e-07)
(1.32627 -0.0014249 1.31047e-07)
(1.32914 -0.000856782 1.705e-07)
(1.33059 -0.000277454 1.68839e-07)
(1.33056 0.000313654 2.32785e-07)
(1.32905 0.000915637 2.3598e-07)
(1.326 0.00152734 3.4878e-07)
(1.32145 0.00214569 3.118e-07)
(1.3153 0.00276745 4.57893e-07)
(1.30765 0.00338706 3.24882e-07)
(1.29836 0.0039997 5.46948e-07)
(1.28769 0.00459781 2.52351e-07)
(1.27535 0.00517593 6.41642e-07)
(1.26185 0.00572517 5.08737e-08)
(1.24664 0.00624083 7.93485e-07)
(1.2307 0.00671358 -3.65894e-07)
(1.21292 0.00714105 1.13053e-06)
(1.19511 0.00751426 -1.13517e-06)
(1.17505 0.00783435 1.93495e-06)
(1.15621 0.00809363 -2.59358e-06)
(1.13403 0.00829613 3.75554e-06)
(1.11536 0.00843841 -5.46064e-06)
(1.09074 0.00852109 7.6033e-06)
(1.07414 0.00855737 -1.09597e-05)
(1.04571 0.00851821 1.42695e-05)
(1.03464 0.00848355 -1.80997e-05)
(0.998499 0.00829323 1.28166e-05)
(1.00015 -0.0020993 8.23755e-07)
(1.00362 -0.00625155 -1.12019e-06)
(1.01053 -0.0102271 -2.01073e-06)
(1.02082 -0.0138924 -1.34323e-06)
(1.03409 -0.0171324 -7.43853e-07)
(1.04991 -0.0198543 -5.16884e-07)
(1.06779 -0.0219914 -3.55516e-07)
(1.08722 -0.0235082 -5.97533e-09)
(1.10767 -0.024405 3.75618e-07)
(1.1286 -0.0247167 7.12749e-07)
(1.14953 -0.0245091 9.61402e-07)
(1.17006 -0.0238691 1.09184e-06)
(1.18984 -0.0228925 1.09431e-06)
(1.20865 -0.0216718 9.92538e-07)
(1.22631 -0.0202861 8.30201e-07)
(1.24273 -0.0187968 6.58504e-07)
(1.25785 -0.0172474 5.05975e-07)
(1.27164 -0.0156661 3.88424e-07)
(1.2841 -0.0140697 2.95873e-07)
(1.29521 -0.0124663 2.32228e-07)
(1.30498 -0.0108577 1.82349e-07)
(1.3134 -0.00924117 1.62418e-07)
(1.32047 -0.00761178 1.46666e-07)
(1.32617 -0.00596302 1.62408e-07)
(1.3305 -0.00428893 1.63532e-07)
(1.33341 -0.00258387 2.01762e-07)
(1.3349 -0.000844623 1.96108e-07)
(1.3349 0.000930574 2.57402e-07)
(1.33343 0.00273934 2.65332e-07)
(1.3304 0.00457786 3.81491e-07)
(1.32587 0.0064373 3.47613e-07)
(1.31971 0.00830731 4.93955e-07)
(1.31205 0.0101719 3.64385e-07)
(1.30273 0.0120155 5.84958e-07)
(1.29202 0.0138166 2.94665e-07)
(1.27961 0.0155566 6.78274e-07)
(1.26604 0.0172115 9.28736e-08)
(1.25074 0.018763 8.23544e-07)
(1.2347 0.0201885 -3.20785e-07)
(1.21679 0.0214729 1.1503e-06)
(1.19887 0.0225999 -1.08397e-06)
(1.17866 0.0235578 1.93547e-06)
(1.15969 0.0243446 -2.52622e-06)
(1.13733 0.0249428 3.72011e-06)
(1.11854 0.0253837 -5.35616e-06)
(1.09374 0.0256112 7.50194e-06)
(1.07704 0.025745 -1.07791e-05)
(1.04841 0.0255909 1.4066e-05)
(1.03728 0.0255247 -1.7843e-05)
(1.00091 0.0249142 1.26797e-05)
(1.00015 -0.00355438 8.40692e-07)
(1.00378 -0.010579 -1.19828e-06)
(1.01101 -0.0173029 -2.11193e-06)
(1.02175 -0.0235009 -1.41877e-06)
(1.03561 -0.0289745 -7.97894e-07)
(1.05212 -0.0335639 -5.51709e-07)
(1.07075 -0.0371546 -3.52745e-07)
(1.09097 -0.0396859 5.40345e-08)
(1.11218 -0.0411585 4.97544e-07)
(1.13383 -0.0416347 8.85753e-07)
(1.1554 -0.0412304 1.16127e-06)
(1.17647 -0.0400987 1.28427e-06)
(1.19669 -0.0384077 1.24705e-06)
(1.21583 -0.0363173 1.08978e-06)
(1.23376 -0.0339627 8.76322e-07)
(1.25038 -0.0314464 6.71654e-07)
(1.26566 -0.0288395 5.05027e-07)
(1.27958 -0.0261875 3.85683e-07)
(1.29215 -0.0235166 2.9516e-07)
(1.30336 -0.0208384 2.34688e-07)
(1.31322 -0.0181547 1.88109e-07)
(1.32173 -0.0154595 1.72609e-07)
(1.3289 -0.0127436 1.60639e-07)
(1.3347 -0.00999531 1.79601e-07)
(1.33912 -0.00720394 1.8195e-07)
(1.34212 -0.00435961 2.21505e-07)
(1.34369 -0.00145642 2.14749e-07)
(1.34377 0.00150892 2.75798e-07)
(1.34236 0.00453295 2.88761e-07)
(1.33937 0.00760897 4.14133e-07)
(1.33486 0.0107227 3.85659e-07)
(1.32871 0.0138561 5.38777e-07)
(1.32103 0.016983 4.10103e-07)
(1.31165 0.0200756 6.36188e-07)
(1.30085 0.0230996 3.43693e-07)
(1.28832 0.0260204 7.31918e-07)
(1.2746 0.0288011 1.37938e-07)
(1.2591 0.0314054 8.73899e-07)
(1.24285 0.0338018 -2.83421e-07)
(1.22469 0.0359549 1.19576e-06)
(1.20651 0.0378508 -1.06011e-06)
(1.18599 0.0394504 1.97403e-06)
(1.16675 0.0407772 -2.51898e-06)
(1.14406 0.0417645 3.75515e-06)
(1.125 0.0425169 -5.36818e-06)
(1.09984 0.0428692 7.53995e-06)
(1.08292 0.0431192 -1.08075e-05)
(1.05389 0.0428143 1.41086e-05)
(1.04263 0.0427436 -1.78491e-05)
(1.00581 0.041672 1.27135e-05)
(1.00016 -0.00508999 8.85616e-07)
(1.00403 -0.0151476 -1.30776e-06)
(1.01174 -0.0247725 -2.28954e-06)
(1.0232 -0.0336401 -1.55284e-06)
(1.03797 -0.0414608 -8.84525e-07)
(1.05554 -0.0480006 -6.05352e-07)
(1.07535 -0.0530911 -3.39137e-07)
(1.09678 -0.0566425 1.58716e-07)
(1.11919 -0.0586567 7.05901e-07)
(1.14195 -0.0592289 1.18344e-06)
(1.16451 -0.058536 1.50505e-06)
(1.1864 -0.0568113 1.61156e-06)
(1.20729 -0.0543079 1.5011e-06)
(1.22695 -0.051263 1.24524e-06)
(1.24528 -0.0478719 9.43774e-07)
(1.2622 -0.0442783 6.84148e-07)
(1.27772 -0.0405787 4.94992e-07)
(1.29185 -0.0368325 3.73138e-07)
(1.30459 -0.0330725 2.85125e-07)
(1.31596 -0.0293117 2.28365e-07)
(1.32597 -0.0255492 1.85999e-07)
(1.33464 -0.0217742 1.77048e-07)
(1.34195 -0.0179714 1.70686e-07)
(1.3479 -0.0141228 1.94724e-07)
(1.35247 -0.0102121 1.99342e-07)
(1.35561 -0.00622411 2.41679e-07)
(1.35731 -0.00214958 2.35211e-07)
(1.35751 0.00201692 2.96282e-07)
(1.3562 0.00627101 3.16001e-07)
(1.35329 0.0106035 4.57261e-07)
(1.34882 0.0149945 4.35778e-07)
(1.34266 0.0194178 6.00547e-07)
(1.33495 0.0238368 4.70952e-07)
(1.32547 0.0282107 7.09268e-07)
(1.31453 0.032491 4.08786e-07)
(1.3018 0.0366269 8.10731e-07)
(1.28784 0.0405667 1.96121e-07)
(1.27204 0.0442553 9.51787e-07)
(1.25545 0.0476509 -2.44005e-07)
(1.23689 0.0506975 1.27003e-06)
(1.2183 0.0533819 -1.05206e-06)
(1.19732 0.0556388 2.0504e-06)
(1.17764 0.0575145 -2.55637e-06)
(1.15442 0.0588967 3.85143e-06)
(1.13495 0.0599584 -5.46824e-06)
(1.10922 0.060434 7.68901e-06)
(1.09196 0.0607878 -1.09898e-05)
(1.06232 0.0603269 1.43296e-05)
(1.05084 0.0602322 -1.80653e-05)
(1.01331 0.0586871 1.28209e-05)
(1.00018 -0.0067442 9.4631e-07)
(1.00438 -0.020069 -1.46365e-06)
(1.01276 -0.0328174 -2.55499e-06)
(1.02521 -0.0445549 -1.7634e-06)
(1.04125 -0.0548896 -1.02817e-06)
(1.06032 -0.0635028 -7.05966e-07)
(1.08177 -0.0701613 -3.30575e-07)
(1.10491 -0.0747401 3.12092e-07)
(1.129 -0.0772431 1.02615e-06)
(1.15333 -0.0778067 1.6522e-06)
(1.17725 -0.0766859 2.04746e-06)
(1.20029 -0.0742156 2.11892e-06)
(1.22208 -0.0707552 1.88204e-06)
(1.24245 -0.0666329 1.46725e-06)
(1.2613 -0.0621098 1.03358e-06)
(1.27865 -0.0573692 6.98893e-07)
(1.2945 -0.0525287 4.85385e-07)
(1.30891 -0.0476567 3.66133e-07)
(1.3219 -0.0427887 2.83476e-07)
(1.3335 -0.037935 2.31687e-07)
(1.34374 -0.0330893 1.95107e-07)
(1.35262 -0.028233 1.95562e-07)
(1.36016 -0.0233426 1.9652e-07)
(1.36632 -0.0183923 2.26868e-07)
(1.3711 -0.0133585 2.33517e-07)
(1.37445 -0.00821963 2.781e-07)
(1.37635 -0.0029621 2.70034e-07)
(1.37671 0.00242257 3.26438e-07)
(1.37555 0.00792943 3.56982e-07)
(1.37273 0.0135471 5.23521e-07)
(1.36832 0.01925 5.12401e-07)
(1.36216 0.0250032 6.93414e-07)
(1.35438 0.0307588 5.62629e-07)
(1.34477 0.0364617 8.18957e-07)
(1.33362 0.0420485 5.07366e-07)
(1.3206 0.0474498 9.29465e-07)
(1.30629 0.0525978 2.85565e-07)
(1.29004 0.0574169 1.06887e-06)
(1.27297 0.0618533 -1.82508e-07)
(1.25384 0.0658292 1.3807e-06)
(1.23468 0.0693309 -1.03627e-06)
(1.21302 0.0722661 2.16275e-06)
(1.19272 0.0747041 -2.6059e-06)
(1.16877 0.076487 3.99068e-06)
(1.14869 0.0778569 -5.60651e-06)
(1.12218 0.0784479 7.89905e-06)
(1.10442 0.0788933 -1.12426e-05)
(1.07393 0.0782577 1.46322e-05)
(1.06215 0.0781229 -1.83748e-05)
(1.02363 0.076072 1.29604e-05)
(1.0002 -0.00855859 1.02473e-06)
(1.00484 -0.0254654 -1.65641e-06)
(1.0141 -0.0416388 -2.90704e-06)
(1.02786 -0.0565195 -2.0519e-06)
(1.0456 -0.0695982 -1.2373e-06)
(1.06665 -0.0804558 -8.66635e-07)
(1.0903 -0.088778 -3.27969e-07)
(1.11572 -0.0943942 5.35945e-07)
(1.14206 -0.0973097 1.51318e-06)
(1.16846 -0.0977147 2.3836e-06)
(1.19421 -0.0959674 2.89431e-06)
(1.21873 -0.0925377 2.89228e-06)
(1.2417 -0.0879215 2.43311e-06)
(1.26295 -0.0825576 1.75983e-06)
(1.28249 -0.0767785 1.12676e-06)
(1.30037 -0.0708034 6.952e-07)
(1.31667 -0.0647628 4.63934e-07)
(1.33145 -0.0587272 3.59609e-07)
(1.34478 -0.0527291 2.86145e-07)
(1.3567 -0.0467712 2.39165e-07)
(1.36725 -0.0408374 2.08758e-07)
(1.37645 -0.0348977 2.20212e-07)
(1.38429 -0.0289183 2.27961e-07)
(1.39076 -0.022863 2.63936e-07)
(1.39583 -0.0166995 2.71314e-07)
(1.39946 -0.0103984 3.16342e-07)
(1.40162 -0.00394021 3.04269e-07)
(1.40221 0.00268765 3.46836e-07)
(1.40122 0.00948031 3.92337e-07)
(1.39854 0.0164245 5.94246e-07)
(1.39419 0.0234885 5.95032e-07)
(1.388 0.0306277 7.9582e-07)
(1.38012 0.0377819 6.64327e-07)
(1.37031 0.0448806 9.46188e-07)
(1.35887 0.0518431 6.21453e-07)
(1.34544 0.0585792 1.07045e-06)
(1.33064 0.065003 3.89695e-07)
(1.31379 0.0710154 1.20977e-06)
(1.29606 0.0765494 -1.12365e-07)
(1.27614 0.0815022 1.51505e-06)
(1.25619 0.08586 -1.02278e-06)
(1.23362 0.0895004 2.29965e-06)
(1.21249 0.0925186 -2.67482e-06)
(1.18753 0.0947069 4.16167e-06)
(1.16666 0.0963838 -5.78655e-06)
(1.13909 0.0970751 8.15904e-06)
(1.12066 0.0975984 -1.1564e-05)
(1.08904 0.0967552 1.50075e-05)
(1.07684 0.0965648 -1.87634e-05)
(1.03703 0.0939558 1.31335e-05)
(1.00022 -0.0105804 1.12365e-06)
(1.00543 -0.0314756 -1.86929e-06)
(1.01582 -0.0514675 -3.35679e-06)
(1.03126 -0.0698508 -2.42698e-06)
(1.05117 -0.0859805 -1.53478e-06)
(1.0748 -0.0993146 -1.11384e-06)
(1.1013 -0.109431 -3.37493e-07)
(1.12971 -0.116099 8.53563e-07)
(1.15898 -0.119321 2.23755e-06)
(1.18809 -0.119356 3.50307e-06)
(1.21617 -0.116706 4.19512e-06)
(1.24258 -0.112026 4.06082e-06)
(1.267 -0.105992 3.2254e-06)
(1.28935 -0.0991773 2.13233e-06)
(1.30973 -0.0919909 1.17397e-06)
(1.32828 -0.0846774 6.2151e-07)
(1.34514 -0.0773684 3.99239e-07)
(1.36042 -0.0701268 3.31679e-07)
(1.37421 -0.0629746 2.71143e-07)
(1.38656 -0.0559003 2.2824e-07)
(1.39754 -0.0488726 2.04338e-07)
(1.40715 -0.0418461 2.26894e-07)
(1.41541 -0.0347736 2.36869e-07)
(1.42227 -0.0276066 2.73743e-07)
(1.42773 -0.0203015 2.77849e-07)
(1.43172 -0.0128199 3.21993e-07)
(1.4342 -0.00513446 3.07513e-07)
(1.43507 0.00277242 3.26078e-07)
(1.4343 0.0108978 3.87597e-07)
(1.43175 0.019226 6.27429e-07)
(1.42745 0.0277183 6.33434e-07)
(1.42121 0.0363193 8.54409e-07)
(1.41317 0.0449556 7.22116e-07)
(1.40306 0.0535388 1.03811e-06)
(1.39122 0.0619689 6.99788e-07)
(1.37722 0.0701314 1.18666e-06)
(1.36176 0.0779196 4.64247e-07)
(1.34409 0.0852072 1.33634e-06)
(1.32547 0.0919122 -6.80858e-08)
(1.30451 0.0979028 1.64507e-06)
(1.28352 0.103166 -1.03875e-06)
(1.25975 0.107544 2.44115e-06)
(1.23752 0.111164 -2.78456e-06)
(1.21126 0.11376 4.35264e-06)
(1.18934 0.115741 -6.02647e-06)
(1.16041 0.116509 8.46598e-06)
(1.1411 0.117092 -1.19708e-05)
(1.10803 0.115993 1.54626e-05)
(1.0953 0.115728 -1.92454e-05)
(1.05381 0.112488 1.3343e-05)
(1.00025 -0.0128647 1.24448e-06)
(1.00616 -0.0382586 -2.0703e-06)
(1.01796 -0.0625725 -3.93035e-06)
(1.03552 -0.0849211 -2.89795e-06)
(1.05818 -0.104506 -1.96998e-06)
(1.0851 -0.120629 -1.49533e-06)
(1.11527 -0.13272 -3.51964e-07)
(1.14754 -0.140462 1.33366e-06)
(1.18059 -0.143843 3.34901e-06)
(1.21318 -0.143214 5.21353e-06)
(1.24422 -0.13928 6.13503e-06)
(1.27298 -0.132957 5.74565e-06)
(1.29918 -0.125165 4.30884e-06)
(1.32284 -0.116644 2.51964e-06)
(1.34423 -0.107874 1.03376e-06)
(1.3636 -0.0991061 3.69127e-07)
(1.38118 -0.0904535 2.29033e-07)
(1.3971 -0.0819597 2.2502e-07)
(1.41148 -0.0736271 1.72078e-07)
(1.42441 -0.0654221 1.28687e-07)
(1.43593 -0.0572914 1.11074e-07)
(1.44608 -0.0491698 1.41626e-07)
(1.45484 -0.0409938 1.43805e-07)
(1.4622 -0.0327 1.71394e-07)
(1.46812 -0.024232 1.62219e-07)
(1.47251 -0.0155402 2.04382e-07)
(1.47536 -0.00658797 1.99289e-07)
(1.47652 0.00264766 2.04201e-07)
(1.47597 0.0121702 2.77815e-07)
(1.47353 0.0219599 5.33001e-07)
(1.46923 0.0319686 5.18238e-07)
(1.46285 0.0421299 7.53984e-07)
(1.45455 0.0523557 6.19934e-07)
(1.444 0.062537 9.78919e-07)
(1.43158 0.0725516 6.26432e-07)
(1.41683 0.0822562 1.16779e-06)
(1.40048 0.0915206 4.06429e-07)
(1.38173 0.100186 1.35739e-06)
(1.36196 0.108153 -1.31019e-07)
(1.33966 0.115256 1.70195e-06)
(1.31734 0.121484 -1.14548e-06)
(1.29203 0.126637 2.54016e-06)
(1.2684 0.130882 -2.97818e-06)
(1.24049 0.133887 4.53398e-06)
(1.21725 0.136165 -6.35693e-06)
(1.1866 0.136973 8.8046e-06)
(1.16619 0.137591 -1.24832e-05)
(1.1313 0.136172 1.59922e-05)
(1.1179 0.135807 -1.98302e-05)
(1.07433 0.131838 1.35849e-05)
(1.00029 -0.0154757 1.38857e-06)
(1.00707 -0.0459964 -2.19531e-06)
(1.0206 -0.0752711 -4.67155e-06)
(1.04079 -0.102172 -3.4571e-06)
(1.0669 -0.125746 -2.65127e-06)
(1.09797 -0.145078 -2.1066e-06)
(1.13285 -0.159391 -3.95691e-07)
(1.17007 -0.168245 2.09016e-06)
(1.20802 -0.171589 5.19916e-06)
(1.24507 -0.169886 7.98322e-06)
(1.27984 -0.164138 9.04994e-06)
(1.31149 -0.155642 8.02134e-06)
(1.33979 -0.145656 5.52106e-06)
(1.365 -0.135122 2.48511e-06)
(1.38758 -0.124571 4.39608e-07)
(1.40794 -0.114223 -1.61251e-07)
(1.42639 -0.104146 -1.26368e-07)
(1.4431 -0.0943484 -6.881e-08)
(1.4582 -0.0848029 -1.52767e-07)
(1.4718 -0.0754439 -2.21134e-07)
(1.48397 -0.0661902 -2.438e-07)
(1.4947 -0.0569522 -2.19334e-07)
(1.50402 -0.0476483 -2.42936e-07)
(1.51187 -0.0381977 -2.39229e-07)
(1.51823 -0.0285296 -2.78574e-07)
(1.523 -0.0185819 -2.37378e-07)
(1.52615 -0.00830558 -2.20082e-07)
(1.52752 0.00232516 -1.51254e-07)
(1.5271 0.0133285 -9.51884e-08)
(1.52465 0.0246759 9.92084e-08)
(1.52023 0.0363091 1.08677e-08)
(1.51357 0.0481495 2.51447e-07)
(1.50483 0.0600942 1.17032e-07)
(1.49367 0.0720096 5.34191e-07)
(1.48048 0.0837485 1.75953e-07)
(1.46474 0.0951334 8.01917e-07)
(1.44727 0.106008 1.86638e-08)
(1.42717 0.116172 1.09419e-06)
(1.40597 0.125511 -4.63058e-07)
(1.38201 0.133814 1.54629e-06)
(1.35805 0.141077 -1.46426e-06)
(1.33086 0.147048 2.49776e-06)
(1.30552 0.151945 -3.33986e-06)
(1.27561 0.155351 4.64134e-06)
(1.25075 0.157916 -6.83025e-06)
(1.21801 0.158716 9.13626e-06)
(1.19628 0.159337 -1.31278e-05)
(1.15918 0.157512 1.65719e-05)
(1.14497 0.157018 -2.05175e-05)
(1.09888 0.152195 1.38438e-05)
(1.00033 -0.018489 1.56126e-06)
(1.00818 -0.0548951 -2.13151e-06)
(1.02382 -0.0899396 -5.63983e-06)
(1.04726 -0.12213 -4.03612e-06)
(1.07763 -0.150402 -3.78357e-06)
(1.11396 -0.173512 -3.10403e-06)
(1.15483 -0.190394 -6.85964e-07)
(1.19845 -0.200428 3.06529e-06)
(1.24275 -0.203459 8.25418e-06)
(1.28553 -0.200111 1.27102e-05)
(1.32499 -0.191821 1.37393e-05)
(1.36012 -0.18044 1.1275e-05)
(1.39087 -0.1677 6.20697e-06)
(1.41782 -0.154783 1.08194e-06)
(1.44173 -0.142228 -1.26322e-06)
(1.46322 -0.130159 -1.40968e-06)
(1.48263 -0.118562 -1.01821e-06)
(1.50016 -0.107394 -8.65789e-07)
(1.51599 -0.0965836 -1.0144e-06)
(1.5302 -0.0860239 -1.13611e-06)
(1.54289 -0.0756003 -1.17775e-06)
(1.55406 -0.0651971 -1.17433e-06)
(1.56373 -0.0547151 -1.25307e-06)
(1.57184 -0.0440545 -1.28544e-06)
(1.57838 -0.0331296 -1.36684e-06)
(1.58325 -0.0218635 -1.28978e-06)
(1.58642 -0.0101936 -1.2507e-06)
(1.58772 0.00191294 -9.4599e-07)
(1.58715 0.0144899 -1.05185e-06)
(1.58445 0.0274974 -1.10692e-06)
(1.57966 0.040868 -1.36394e-06)
(1.57249 0.0545125 -1.1215e-06)
(1.56312 0.0683126 -1.24675e-06)
(1.55115 0.0821069 -7.37999e-07)
(1.53702 0.095721 -1.06917e-06)
(1.52011 0.108937 -2.93775e-07)
(1.50135 0.121569 -1.04448e-06)
(1.47972 0.13337 2.41644e-07)
(1.45691 0.144205 -1.3325e-06)
(1.43107 0.153808 9.48548e-07)
(1.40527 0.162188 -2.18905e-06)
(1.37594 0.169025 2.15269e-06)
(1.34868 0.174606 -4.00057e-06)
(1.31646 0.178404 4.56601e-06)
(1.28978 0.181245 -7.5261e-06)
(1.25463 0.181976 9.38656e-06)
(1.2314 0.182569 -1.39373e-05)
(1.19173 0.180232 1.71462e-05)
(1.17661 0.179579 -2.1291e-05)
(1.12759 0.173748 1.40837e-05)
(1.0004 -0.0219914 1.78405e-06)
(1.00951 -0.0651824 -1.71595e-06)
(1.02768 -0.107025 -6.89126e-06)
(1.05509 -0.145415 -4.43893e-06)
(1.09072 -0.179356 -5.66399e-06)
(1.1337 -0.207019 -4.57298e-06)
(1.18224 -0.226975 -1.62175e-06)
(1.23417 -0.238303 3.86249e-06)
(1.28673 -0.240607 1.25746e-05)
(1.33691 -0.234783 2.00355e-05)
(1.38223 -0.222944 2.1176e-05)
(1.42151 -0.207736 1.63603e-05)
(1.45493 -0.191539 5.83118e-06)
(1.48361 -0.175793 -2.54326e-06)
(1.50878 -0.160951 -5.2317e-06)
(1.53122 -0.146963 -4.44582e-06)
(1.55134 -0.133697 -3.27e-06)
(1.56933 -0.121041 -2.85479e-06)
(1.58539 -0.108862 -2.98485e-06)
(1.59964 -0.0970029 -3.08097e-06)
(1.6122 -0.085313 -3.08472e-06)
(1.62309 -0.0736538 -3.08651e-06)
(1.63233 -0.0619109 -3.19845e-06)
(1.63992 -0.0499649 -3.21708e-06)
(1.64587 -0.0377183 -3.26341e-06)
(1.65009 -0.0250737 -3.02258e-06)
(1.6526 -0.0119584 -2.87904e-06)
(1.65323 0.00168077 -2.27899e-06)
(1.65199 0.0158909 -2.71046e-06)
(1.64858 0.0306239 -3.26919e-06)
(1.6431 0.0458102 -3.85126e-06)
(1.63518 0.0613503 -3.66442e-06)
(1.62506 0.0771122 -3.81698e-06)
(1.61222 0.0929048 -3.22205e-06)
(1.59718 0.108527 -3.51592e-06)
(1.57919 0.123715 -2.52945e-06)
(1.55926 0.138253 -3.18426e-06)
(1.53622 0.15183 -1.57783e-06)
(1.51196 0.164298 -3.07974e-06)
(1.48436 0.175317 -3.89593e-07)
(1.45684 0.184915 -3.56993e-06)
(1.42543 0.192681 1.29123e-06)
(1.39631 0.198997 -5.12638e-06)
(1.36176 0.203188 4.15933e-06)
(1.33329 0.206309 -8.53931e-06)
(1.29561 0.20691 9.44386e-06)
(1.27089 0.207453 -1.49359e-05)
(1.22847 0.204489 1.76149e-05)
(1.21244 0.20366 -2.20997e-05)
(1.16024 0.196652 1.42392e-05)
(1.00048 -0.0260772 2.12704e-06)
(1.01107 -0.0771015 -7.6558e-07)
(1.03226 -0.127049 -8.4206e-06)
(1.06446 -0.172743 -4.36411e-06)
(1.10651 -0.213718 -8.71824e-06)
(1.15792 -0.246993 -6.2615e-06)
(1.21631 -0.270812 -3.32305e-06)
(1.27912 -0.283645 4.81548e-06)
(1.34252 -0.28456 1.82323e-05)
(1.40224 -0.274974 2.89531e-05)
(1.4548 -0.258092 3.01672e-05)
(1.49865 -0.237764 2.15032e-05)
(1.53447 -0.21723 3.81621e-06)
(1.56422 -0.198105 -8.95188e-06)
(1.58975 -0.180578 -1.21541e-05)
(1.61206 -0.164335 -1.00241e-05)
(1.63156 -0.149114 -7.67269e-06)
(1.64849 -0.13473 -6.78506e-06)
(1.66312 -0.120975 -6.55989e-06)
(1.67565 -0.107632 -6.23582e-06)
(1.68626 -0.0945169 -5.87102e-06)
(1.69501 -0.0814756 -5.65079e-06)
(1.70204 -0.0683802 -5.56826e-06)
(1.70739 -0.0550909 -5.36917e-06)
(1.71117 -0.0415 -5.09013e-06)
(1.71334 -0.0274791 -4.40266e-06)
(1.71397 -0.0129576 -3.77487e-06)
(1.71295 0.00218344 -2.7266e-06)
(1.7103 0.0179579 -3.51559e-06)
(1.70569 0.0343414 -4.78254e-06)
(1.69925 0.0512866 -5.94923e-06)
(1.69058 0.0686886 -6.07678e-06)
(1.67992 0.0864057 -6.51331e-06)
(1.66663 0.104218 -6.04933e-06)
(1.65126 0.121904 -6.50095e-06)
(1.63289 0.139147 -5.4404e-06)
(1.61263 0.155704 -6.11192e-06)
(1.58906 0.171188 -4.22402e-06)
(1.56424 0.185434 -5.67202e-06)
(1.53576 0.198006 -2.51622e-06)
(1.50738 0.208961 -5.68839e-06)
(1.47464 0.217761 -1.9994e-07)
(1.4444 0.224913 -6.80527e-06)
(1.4081 0.229538 3.3066e-06)
(1.3784 0.232994 -9.91499e-06)
(1.33858 0.233437 9.18791e-06)
(1.31276 0.233953 -1.61011e-05)
(1.2678 0.23027 1.78277e-05)
(1.25111 0.229285 -2.28256e-05)
(1.19585 0.220952 1.42051e-05)
(1.0006 -0.0308344 2.77532e-06)
(1.0128 -0.0909078 8.92981e-07)
(1.03762 -0.150603 -9.9404e-06)
(1.0754 -0.204906 -3.77015e-06)
(1.12528 -0.254885 -1.38325e-05)
(1.1874 -0.295192 -8.00387e-06)
(1.25839 -0.324136 -6.0705e-06)
(1.33561 -0.33885 8.38843e-06)
(1.41339 -0.337437 2.82642e-05)
(1.48545 -0.322083 3.87387e-05)
(1.54629 -0.29768 3.49568e-05)
(1.59394 -0.270162 1.77585e-05)
(1.63011 -0.244018 -6.21548e-06)
(1.65824 -0.220749 -2.0725e-05)
(1.68105 -0.199917 -2.18984e-05)
(1.6998 -0.180847 -1.703e-05)
(1.71496 -0.16318 -1.31447e-05)
(1.72696 -0.146666 -1.16109e-05)
(1.73627 -0.131008 -1.05315e-05)
(1.74325 -0.115933 -9.15224e-06)
(1.74821 -0.101229 -7.88074e-06)
(1.75139 -0.0867346 -7.04467e-06)
(1.75306 -0.0722964 -6.42043e-06)
(1.75339 -0.0577544 -5.79293e-06)
(1.7526 -0.042972 -4.96565e-06)
(1.75075 -0.0277853 -3.81532e-06)
(1.74801 -0.0121164 -2.72223e-06)
(1.74427 0.00422948 -2.03981e-06)
(1.73959 0.0212214 -3.06977e-06)
(1.73363 0.0389006 -4.40372e-06)
(1.72655 0.057273 -5.7298e-06)
(1.71783 0.0762411 -6.07043e-06)
(1.70769 0.0956675 -6.87983e-06)
(1.69534 0.115312 -6.71461e-06)
(1.68132 0.134945 -7.58215e-06)
(1.66448 0.154194 -6.75643e-06)
(1.64595 0.172795 -7.81028e-06)
(1.624 0.190268 -5.9946e-06)
(1.60086 0.206436 -7.73346e-06)
(1.57366 0.220729 -4.39297e-06)
(1.54658 0.233247 -7.778e-06)
(1.51451 0.243268 -1.82123e-06)
(1.48503 0.251461 -8.673e-06)
(1.44864 0.256665 2.17319e-06)
(1.41924 0.260624 -1.14697e-05)
(1.37859 0.260979 8.58674e-06)
(1.35283 0.261602 -1.72725e-05)
(1.30632 0.257197 1.76086e-05)
(1.28965 0.256157 -2.3233e-05)
(1.23223 0.246452 1.38359e-05)
(1.00073 -0.0363134 4.13204e-06)
(1.01465 -0.106883 3.28553e-06)
(1.04377 -0.178278 -1.02908e-05)
(1.08772 -0.242768 -3.67133e-06)
(1.14728 -0.304644 -2.2653e-05)
(1.22274 -0.353711 -1.19006e-05)
(1.30963 -0.38977 -1.37387e-05)
(1.4061 -0.406805 1.3862e-05)
(1.50335 -0.401983 4.71837e-05)
(1.59086 -0.377891 5.51289e-05)
(1.65865 -0.341636 3.23585e-05)
(1.70506 -0.303188 -7.535e-06)
(1.73459 -0.269155 -3.82358e-05)
(1.75352 -0.240359 -4.49944e-05)
(1.76587 -0.215189 -3.41495e-05)
(1.77321 -0.192485 -2.09869e-05)
(1.77632 -0.171788 -1.39562e-05)
(1.77602 -0.152739 -1.15923e-05)
(1.77317 -0.134927 -9.55318e-06)
(1.76841 -0.118039 -7.08153e-06)
(1.76228 -0.101834 -5.06317e-06)
(1.75523 -0.0861402 -3.74439e-06)
(1.74769 -0.0707441 -2.83849e-06)
(1.73998 -0.05547 -2.04167e-06)
(1.7324 -0.0400833 -1.31212e-06)
(1.72508 -0.0244232 -3.40497e-07)
(1.7182 -0.00827086 1.45312e-07)
(1.71166 0.00846448 -2.62213e-07)
(1.70548 0.0258711 -1.31711e-06)
(1.69931 0.0440826 -1.7148e-06)
(1.69323 0.0631596 -2.37122e-06)
(1.68657 0.083028 -2.4259e-06)
(1.67949 0.103578 -3.30339e-06)
(1.67097 0.124566 -3.25738e-06)
(1.66151 0.145769 -4.52488e-06)
(1.64963 0.166766 -4.06478e-06)
(1.63651 0.187283 -5.78509e-06)
(1.61996 0.206731 -4.43537e-06)
(1.60236 0.224928 -6.9408e-06)
(1.5803 0.241131 -3.95374e-06)
(1.55831 0.255494 -8.0444e-06)
(1.53054 0.267041 -2.16109e-06)
(1.50531 0.276641 -9.57251e-06)
(1.47205 0.282744 1.50208e-06)
(1.44592 0.287576 -1.25383e-05)
(1.40713 0.288107 7.86e-06)
(1.38371 0.289164 -1.80201e-05)
(1.33792 0.284235 1.67973e-05)
(1.32265 0.28339 -2.29331e-05)
(1.26528 0.272513 1.29455e-05)
(1.00076 -0.042491 6.90979e-06)
(1.01667 -0.125354 6.1772e-06)
(1.05041 -0.210455 -6.48864e-06)
(1.10086 -0.28741 -6.25713e-06)
(1.17263 -0.365224 -3.52775e-05)
(1.26357 -0.424962 -2.58404e-05)
(1.37062 -0.471523 -3.80103e-05)
(1.49345 -0.491378 8.13749e-06)
(1.61626 -0.480869 6.45152e-05)
(1.71874 -0.442524 8.39958e-05)
(1.78337 -0.387058 4.33543e-05)
(1.81308 -0.33157 -3.26422e-05)
(1.81875 -0.285725 -8.0556e-05)
(1.81208 -0.248947 -7.45306e-05)
(1.79901 -0.217944 -3.99528e-05)
(1.78151 -0.190914 -1.08178e-05)
(1.76078 -0.167079 5.49056e-07)
(1.73824 -0.145739 3.17861e-06)
(1.71518 -0.126282 4.93606e-06)
(1.6925 -0.108321 6.49242e-06)
(1.67085 -0.091578 7.05254e-06)
(1.65073 -0.07581 6.98575e-06)
(1.63257 -0.0607238 6.62848e-06)
(1.61664 -0.0460582 6.28613e-06)
(1.60312 -0.0314845 5.59786e-06)
(1.59202 -0.0167709 4.67006e-06)
(1.5833 -0.00156071 3.57601e-06)
(1.57673 0.0141757 2.24752e-06)
(1.57227 0.0307435 2.51008e-06)
(1.56942 0.0483297 3.86906e-06)
(1.56809 0.0670345 4.23712e-06)
(1.5674 0.0868208 4.70652e-06)
(1.56743 0.107627 4.0108e-06)
(1.56694 0.129215 4.18419e-06)
(1.56637 0.151388 2.72031e-06)
(1.56395 0.173679 2.95324e-06)
(1.56083 0.195817 6.11855e-07)
(1.55443 0.2171 1.42487e-06)
(1.54723 0.237353 -2.01549e-06)
(1.53524 0.255628 2.71664e-07)
(1.52328 0.27215 -4.86494e-06)
(1.50475 0.285618 3.30138e-07)
(1.48857 0.29714 -7.95665e-06)
(1.46314 0.30466 2.48998e-06)
(1.44462 0.310966 -1.19074e-05)
(1.41199 0.312212 7.62211e-06)
(1.39443 0.31429 -1.74689e-05)
(1.35329 0.309374 1.53945e-05)
(1.34163 0.309179 -2.12976e-05)
(1.28837 0.297785 1.13536e-05)
(1.00046 -0.0492657 1.19341e-05)
(1.0191 -0.146551 1.03231e-05)
(1.05628 -0.246945 6.49144e-06)
(1.11424 -0.340452 -1.15939e-05)
(1.20001 -0.43874 -4.32712e-05)
(1.30711 -0.512183 -6.00016e-05)
(1.44204 -0.576166 -8.4768e-05)
(1.60102 -0.599868 -1.33659e-05)
(1.7491 -0.57302 4.96762e-05)
(1.84771 -0.505969 9.65914e-05)
(1.87736 -0.419194 0.000108414)
(1.85725 -0.33969 2.15679e-05)
(1.80691 -0.27774 -6.68652e-05)
(1.7483 -0.230686 -6.8347e-05)
(1.68964 -0.193231 -1.73323e-05)
(1.63282 -0.162807 1.6847e-05)
(1.57897 -0.137773 2.62526e-05)
(1.5296 -0.116625 2.64675e-05)
(1.48571 -0.0983083 2.55752e-05)
(1.44757 -0.0822073 2.3232e-05)
(1.41519 -0.0678666 1.97546e-05)
(1.38843 -0.0548562 1.64773e-05)
(1.36707 -0.0427514 1.38502e-05)
(1.3508 -0.031143 1.19221e-05)
(1.33927 -0.0196412 9.90335e-06)
(1.33205 -0.00787442 7.81213e-06)
(1.32872 0.00450401 5.21335e-06)
(1.32878 0.017779 5.04606e-06)
(1.33207 0.0322472 6.97689e-06)
(1.33789 0.0480635 9.41655e-06)
(1.34602 0.0653632 1.03656e-05)
(1.35552 0.0841472 1.11886e-05)
(1.36643 0.104396 1.06958e-05)
(1.37746 0.125875 1.11335e-05)
(1.38905 0.14841 9.76313e-06)
(1.39932 0.171495 1.01512e-05)
(1.40947 0.194877 7.65105e-06)
(1.41665 0.217746 8.38611e-06)
(1.42346 0.239958 4.48533e-06)
(1.42545 0.260349 6.36978e-06)
(1.42766 0.279245 5.50699e-07)
(1.42283 0.294974 4.95932e-06)
(1.42022 0.308925 -3.9015e-06)
(1.4075 0.318446 5.22259e-06)
(1.40118 0.326935 -8.96014e-06)
(1.37982 0.329649 8.14689e-06)
(1.3722 0.33352 -1.47446e-05)
(1.34104 0.32954 1.34056e-05)
(1.33569 0.330619 -1.75587e-05)
(1.29252 0.320008 8.96467e-06)
(0.999762 -0.056498 1.90023e-05)
(1.02182 -0.169967 2.07199e-05)
(1.05904 -0.286891 3.27848e-05)
(1.12692 -0.403425 -1.14567e-05)
(1.22311 -0.525376 -2.48772e-05)
(1.34856 -0.621966 -0.000110196)
(1.52441 -0.715522 -0.000123061)
(1.72374 -0.736856 -3.72223e-05)
(1.8663 -0.663848 1.85038e-05)
(1.89353 -0.533665 4.25722e-05)
(1.81821 -0.396578 0.000152243)
(1.69511 -0.290987 0.000116303)
(1.54543 -0.214247 1.01448e-05)
(1.41464 -0.16149 -1.59828e-05)
(1.30723 -0.123783 1.93371e-05)
(1.22013 -0.0977769 2.75513e-05)
(1.15078 -0.07988 1.7451e-05)
(1.09751 -0.0669415 1.15137e-05)
(1.05783 -0.0569935 1.04852e-05)
(1.02906 -0.0488971 9.56326e-06)
(1.00903 -0.0418751 8.14438e-06)
(0.996106 -0.0353663 6.95311e-06)
(0.989075 -0.0289569 6.02995e-06)
(0.986995 -0.0223116 5.24271e-06)
(0.98918 -0.0151395 4.28349e-06)
(0.995039 -0.00714639 3.41362e-06)
(1.00419 0.00192197 2.32389e-06)
(1.01611 0.0124398 2.1468e-06)
(1.03067 0.0246439 3.48444e-06)
(1.04736 0.038547 5.66777e-06)
(1.0661 0.0542913 7.2054e-06)
(1.08617 0.0718892 8.88405e-06)
(1.10771 0.0913454 9.2597e-06)
(1.12965 0.112426 1.05991e-05)
(1.15255 0.134982 1.00917e-05)
(1.17469 0.158491 1.14133e-05)
(1.19734 0.182734 9.64273e-06)
(1.21771 0.206834 1.11628e-05)
(1.23843 0.230698 7.75236e-06)
(1.25491 0.252994 1.00434e-05)
(1.27221 0.274169 4.51821e-06)
(1.28279 0.292211 8.61382e-06)
(1.29578 0.308792 2.33522e-07)
(1.29877 0.320687 7.7663e-06)
(1.30751 0.331853 -4.76944e-06)
(1.30164 0.336751 8.37409e-06)
(1.30706 0.34308 -9.93575e-06)
(1.29131 0.341182 1.0195e-05)
(1.29456 0.344121 -1.14243e-05)
(1.26837 0.33618 5.61627e-06)
(0.999092 -0.0639176 2.6165e-05)
(1.02308 -0.193548 4.16595e-05)
(1.0568 -0.329024 6.50966e-05)
(1.13381 -0.47409 1.25742e-05)
(1.22902 -0.623022 3.41344e-05)
(1.38471 -0.764902 -0.000178924)
(1.606 -0.894316 -7.15687e-05)
(1.80727 -0.870072 -0.000131303)
(1.85836 -0.778978 5.15525e-05)
(1.74767 -0.533586 -0.000145815)
(1.49826 -0.305121 -0.000106429)
(1.2183 -0.162951 -5.52529e-05)
(0.799279 -0.0530217 -3.60257e-05)
(0.69065 -0.0373754 -2.91806e-05)
(0.632056 -0.0341466 2.85721e-05)
(0.600631 -0.0373229 3.48235e-05)
(0.586799 -0.041143 2.31079e-05)
(0.584119 -0.0433377 1.55441e-05)
(0.587676 -0.0437418 9.93187e-06)
(0.594645 -0.042784 4.44966e-06)
(0.603827 -0.0408169 5.5547e-07)
(0.614763 -0.0380589 -1.511e-06)
(0.627299 -0.0345988 -2.38135e-06)
(0.641384 -0.0304035 -2.52643e-06)
(0.657031 -0.0253488 -2.25837e-06)
(0.674202 -0.0192357 -1.46918e-06)
(0.692977 -0.0118511 -4.21664e-07)
(0.713251 -0.00290414 1.66662e-07)
(0.735055 0.00781413 -1.0245e-06)
(0.758143 0.0204488 -8.04775e-07)
(0.782748 0.0351111 2.23479e-07)
(0.808508 0.0517871 1.94905e-06)
(0.835689 0.0705027 2.76927e-06)
(0.863619 0.0910491 4.66111e-06)
(0.89291 0.113311 4.99107e-06)
(0.922256 0.136792 7.27173e-06)
(0.952904 0.161313 6.5734e-06)
(0.982438 0.186004 9.17577e-06)
(1.01332 0.210824 6.77225e-06)
(1.04132 0.234378 9.88769e-06)
(1.07107 0.257206 5.36708e-06)
(1.09547 0.277094 9.48134e-06)
(1.12275 0.295916 2.64519e-06)
(1.14154 0.310058 8.36114e-06)
(1.16531 0.323825 -7.34248e-07)
(1.17688 0.331245 6.85327e-06)
(1.1962 0.340224 -3.72959e-06)
(1.1998 0.341396 4.64258e-06)
(1.21256 0.346476 -3.1586e-06)
(1.20935 0.343266 8.7908e-07)
(0.998812 -0.0706634 3.165e-05)
(1.02041 -0.214034 6.91864e-05)
(1.04838 -0.369989 9.11051e-05)
(1.12129 -0.543186 8.38508e-05)
(1.20867 -0.729591 5.6652e-05)
(1.40306 -0.934908 -0.000298205)