/*--------------------------------*- C++ -*----------------------------------*\
  =========                 |
  \\      /  F ield         | OpenFOAM: The Open Source CFD Toolbox
   \\    /   O peration     | Website:  https://openfoam.org
    \\  /    A nd           | Version:  8
     \\/     M anipulation  |
\*---------------------------------------------------------------------------*/
FoamFile
{
    version     2.0;
    format      ascii;
    class       volScalarField;
    location    "6.5";
    object      p;
}
// * * * * * * * * * * * * * * * * * * * * * * * * * * * * * * * * * * * * * //

dimensions      [0 2 -2 0 0 0 0];

internalField   nonuniform List<scalar> 
11600
(
1.97589e-09
-5.14206e-08
7.16458e-07
1.97575e-06
3.8001e-06
6.18079e-06
9.11428e-06
1.25983e-05
1.663e-05
2.12057e-05
2.63218e-05
3.19743e-05
3.81588e-05
4.48706e-05
5.21044e-05
5.98544e-05
6.81145e-05
7.68782e-05
8.61386e-05
9.58883e-05
0.00010612
0.000116824
0.000127994
0.00013962
0.000151693
0.000164203
0.00017714
0.000190495
0.000204255
0.000218411
0.000232952
0.000247865
0.000263139
0.000278762
0.000294723
0.000311008
0.000327605
0.000344502
0.000361687
0.000379146
0.000396868
0.00041484
0.000433051
0.00045149
0.000470145
0.000489008
0.00050807
0.000527323
0.000546764
0.000566391
0.000586205
0.000606215
0.000626436
0.000646894
0.000667632
0.000688739
0.000710344
0.000731923
0.000757629
0.00077527
-8.03299e-09
-4.28338e-08
7.39734e-07
2.00211e-06
3.82806e-06
6.20959e-06
9.14303e-06
1.26262e-05
1.66566e-05
2.12311e-05
2.63461e-05
3.19973e-05
3.81804e-05
4.48906e-05
5.21227e-05
5.9871e-05
6.81294e-05
7.68912e-05
8.61497e-05
9.58974e-05
0.000106127
0.000116829
0.000127997
0.000139621
0.000151692
0.0001642
0.000177135
0.000190488
0.000204246
0.0002184
0.000232939
0.00024785
0.000263123
0.000278744
0.000294703
0.000310987
0.000327583
0.000344478
0.000361662
0.00037912
0.000396841
0.000414812
0.000433023
0.000451461
0.000470116
0.000488979
0.000508041
0.000527296
0.000546739
0.000566368
0.000586186
0.000606202
0.000626433
0.000646908
0.000667676
0.000688827
0.000710477
0.000732446
0.000757237
0.000778239
-8.2021e-07
-8.57213e-07
-6.89607e-08
1.19603e-06
3.02452e-06
5.40916e-06
8.34637e-06
1.18337e-05
1.58686e-05
2.04479e-05
2.55683e-05
3.12255e-05
3.74153e-05
4.41327e-05
5.13724e-05
5.91289e-05
6.7396e-05
7.61672e-05
8.54355e-05
9.51937e-05
0.000105434
0.000116148
0.000127328
0.000138965
0.000151049
0.000163571
0.00017652
0.000189887
0.000203661
0.000217831
0.000232385
0.000247313
0.000262602
0.000278241
0.000294217
0.000310518
0.000327132
0.000344045
0.000361246
0.000378722
0.00039646
0.000414448
0.000432675
0.000451128
0.000469797
0.000488672
0.000507743
0.000527004
0.000546447
0.000566071
0.000585875
0.000605863
0.000626045
0.000646438
0.000667066
0.000687969
0.000709176
0.000730642
0.000753295
0.000774005
-2.11733e-06
-2.15392e-06
-1.36037e-06
-9.11148e-08
1.74157e-06
4.13077e-06
7.07339e-06
1.05671e-05
1.46092e-05
1.91966e-05
2.43257e-05
2.99927e-05
3.61931e-05
4.2922e-05
5.01742e-05
5.7944e-05
6.62253e-05
7.50116e-05
8.42959e-05
9.40711e-05
0.000104329
0.000115062
0.000126262
0.000137919
0.000150024
0.000162568
0.00017554
0.000188931
0.000202729
0.000216924
0.000231504
0.000246459
0.000261775
0.000277441
0.000293445
0.000309774
0.000326416
0.000343358
0.000360587
0.000378091
0.000395856
0.000413872
0.000432124
0.000450602
0.000469293
0.000488188
0.000507276
0.000526548
0.000545997
0.000565617
0.000585406
0.000605363
0.000625491
0.000645797
0.000666295
0.000687002
0.000707929
0.00072908
0.000750705
0.000771484
-3.98186e-06
-4.01945e-06
-3.22237e-06
-1.94855e-06
-1.10209e-07
2.28554e-06
5.23586e-06
8.73865e-06
1.27912e-05
1.73904e-05
2.25326e-05
2.8214e-05
3.443e-05
4.11759e-05
4.84465e-05
5.62359e-05
6.45382e-05
7.33468e-05
8.26548e-05
9.2455e-05
0.000102739
0.0001135
0.000124728
0.000136415
0.000148552
0.000161128
0.000174134
0.000187559
0.000201393
0.000215625
0.000230243
0.000245236
0.000260591
0.000276297
0.000292342
0.000308712
0.000325395
0.000342378
0.000359649
0.000377194
0.000395001
0.000413055
0.000431346
0.00044986
0.000468585
0.000487509
0.000506621
0.000525912
0.000545371
0.000564991
0.000584764
0.000604684
0.000624747
0.000644949
0.000665285
0.000685747
0.000706314
0.000726945
0.000747633
0.000767864
-6.41045e-06
-6.44889e-06
-5.64889e-06
-4.37033e-06
-2.52519e-06
-1.20978e-07
2.83943e-06
6.35404e-06
1.04202e-05
1.50348e-05
2.01942e-05
2.58945e-05
3.21312e-05
3.88995e-05
4.61942e-05
5.40096e-05
6.23395e-05
7.11776e-05
8.05168e-05
9.03498e-05
0.000100669
0.000111466
0.000122732
0.000134458
0.000146636
0.000159254
0.000172304
0.000185775
0.000199656
0.000213936
0.000228604
0.000243647
0.000259054
0.000274813
0.000290911
0.000307335
0.000324072
0.00034111
0.000358436
0.000376035
0.000393895
0.000412002
0.000430343
0.000448905
0.000467675
0.00048664
0.000505788
0.000525107
0.000544585
0.000564211
0.000583974
0.000603864
0.000623868
0.000643974
0.000664166
0.000684421
0.000704701
0.000724953
0.0007451
0.000764896
-9.40486e-06
-9.44374e-06
-8.64045e-06
-7.35666e-06
-5.50368e-06
-3.08926e-06
-1.16447e-07
3.41274e-06
7.49569e-06
1.21293e-05
1.73099e-05
2.30336e-05
2.92959e-05
3.6092e-05
4.34167e-05
5.12643e-05
5.96286e-05
6.85032e-05
7.78811e-05
8.77549e-05
9.81168e-05
0.000108959
0.000120272
0.000132047
0.000144275
0.000156947
0.000170052
0.000183579
0.000197518
0.000211858
0.000226587
0.000241693
0.000257164
0.000272988
0.000289152
0.000305643
0.000322448
0.000339554
0.000356947
0.000374614
0.000392541
0.000410714
0.000429119
0.000447742
0.00046657
0.000485588
0.000504784
0.000524143
0.000543651
0.000563294
0.000583059
0.000602929
0.000622888
0.000642916
0.000662988
0.000683071
0.000703121
0.000723075
0.000742846
0.000762279
-1.29676e-05
-1.30071e-05
-1.21998e-05
-1.09099e-05
-9.04788e-06
-6.62158e-06
-3.63412e-06
-8.76352e-08
4.01527e-06
8.67146e-06
1.38774e-05
1.9629e-05
2.59218e-05
3.27512e-05
4.01117e-05
4.79978e-05
5.64032e-05
6.53215e-05
7.47456e-05
8.46681e-05
9.50812e-05
0.000105977
0.000117346
0.00012918
0.000141469
0.000154203
0.000167374
0.000180968
0.000194977
0.000209388
0.00022419
0.000239372
0.000254919
0.000270821
0.000287065
0.000303636
0.000320522
0.000337709
0.000355184
0.000372932
0.00039094
0.000409192
0.000427675
0.000446374
0.000465273
0.000484359
0.000503616
0.000523029
0.000542581
0.000562257
0.000582039
0.000601908
0.000621843
0.000641819
0.000661805
0.000681765
0.00070165
0.000721397
0.000740924
0.000760121
-1.71014e-05
-1.71419e-05
-1.633e-05
-1.50329e-05
-1.31606e-05
-1.07206e-05
-7.71633e-06
-4.14986e-06
-2.38566e-08
4.65854e-06
9.89375e-06
1.56778e-05
2.20062e-05
2.88742e-05
3.62765e-05
4.42073e-05
5.26606e-05
6.16296e-05
7.11075e-05
8.10867e-05
9.15593e-05
0.000102517
0.000113952
0.000125854
0.000138214
0.000151022
0.000164268
0.000177941
0.000192031
0.000206525
0.000221413
0.000236681
0.000252319
0.000268312
0.000284647
0.000301312
0.000318293
0.000335576
0.000353146
0.00037099
0.000389093
0.00040744
0.000426015
0.000444804
0.000463791
0.000482959
0.000502293
0.000521775
0.000541389
0.000561115
0.000580933
0.000600823
0.000620759
0.000640714
0.000660654
0.00068054
0.000700324
0.000719946
0.000739334
0.0007584
-2.18094e-05
-2.18512e-05
-2.10343e-05
-1.97292e-05
-1.7845e-05
-1.53896e-05
-1.23663e-05
-8.77715e-06
-4.6249e-06
8.73131e-08
5.35593e-06
1.11769e-05
1.75459e-05
2.4458e-05
3.19079e-05
3.98898e-05
4.83976e-05
5.74246e-05
6.69638e-05
7.70077e-05
8.75484e-05
9.85776e-05
0.000110087
0.000122066
0.000134507
0.000147399
0.000160732
0.000174495
0.000188677
0.000203267
0.000218252
0.000233621
0.00024936
0.000265457
0.000281899
0.000298671
0.000315761
0.000333153
0.000350834
0.000368789
0.000387002
0.000405458
0.000424141
0.000443036
0.000462126
0.000481393
0.000500821
0.000520391
0.000540084
0.00055988
0.000579758
0.000599693
0.000619659
0.000639626
0.000659561
0.000679423
0.000699165
0.000718733
0.000738063
0.000757086
-2.70955e-05
-2.71388e-05
-2.63164e-05
-2.50023e-05
-2.3105e-05
-2.06324e-05
-1.75877e-05
-1.39732e-05
-9.79154e-06
-5.04588e-06
2.60233e-07
6.12278e-06
1.25373e-05
1.9499e-05
2.70024e-05
3.50417e-05
4.36108e-05
5.27029e-05
6.2311e-05
7.24276e-05
8.30449e-05
9.41544e-05
0.000105747
0.000117815
0.000130347
0.000143333
0.000156764
0.000170628
0.000184914
0.000199611
0.000214706
0.000230187
0.000246042
0.000262256
0.000278818
0.000295712
0.000312924
0.000330441
0.000348247
0.000366327
0.000384666
0.000403248
0.000422056
0.000441073
0.000460283
0.000479667
0.000499207
0.000518884
0.000538677
0.000558566
0.000578526
0.000598533
0.00061856
0.000638574
0.000658543
0.000678427
0.000698182
0.000717758
0.000737099
0.000756147
-3.29641e-05
-3.30089e-05
-3.21804e-05
-3.08565e-05
-2.89446e-05
-2.6453e-05
-2.33847e-05
-1.97422e-05
-1.55279e-05
-1.07451e-05
-5.39742e-06
5.11237e-07
6.97636e-06
1.3993e-05
2.15558e-05
2.96589e-05
3.8296e-05
4.74605e-05
5.71452e-05
6.73427e-05
7.8045e-05
8.92438e-05
0.00010093
0.000113095
0.000125728
0.000138819
0.000152359
0.000166335
0.000180737
0.000195553
0.000210771
0.000226378
0.000242361
0.000258707
0.000275402
0.000292432
0.000309782
0.000327438
0.000345385
0.000363607
0.000382087
0.000400811
0.00041976
0.000438917
0.000458265
0.000477784
0.000497456
0.000517261
0.000537176
0.00055718
0.000577249
0.000597356
0.000617473
0.00063757
0.000657613
0.000677563
0.00069738
0.000717017
0.000736426
0.000755558
-3.94197e-05
-3.94661e-05
-3.8631e-05
-3.72964e-05
-3.53687e-05
-3.28561e-05
-2.9762e-05
-2.60887e-05
-2.18386e-05
-1.70151e-05
-1.16216e-05
-5.66226e-06
8.58453e-07
7.93556e-06
1.55636e-05
2.37368e-05
3.24488e-05
4.16929e-05
5.14621e-05
6.17486e-05
7.25447e-05
8.38417e-05
9.56308e-05
0.000107903
0.000120647
0.000133855
0.000147514
0.000161614
0.000176144
0.000191092
0.000206445
0.00022219
0.000238315
0.000254806
0.000271649
0.000288829
0.000306332
0.000324143
0.000342246
0.000360626
0.000379265
0.000398147
0.000417255
0.00043657
0.000456075
0.000475749
0.000495573
0.000515526
0.000535586
0.00055573
0.000575933
0.000596169
0.000616409
0.000636622
0.000656776
0.000676833
0.000696756
0.000716504
0.000736032
0.000755295
-4.64674e-05
-4.65156e-05
-4.56733e-05
-4.43271e-05
-4.23821e-05
-3.98469e-05
-3.67247e-05
-3.30178e-05
-2.87287e-05
-2.38607e-05
-1.84174e-05
-1.24028e-05
-5.82142e-06
1.32163e-06
9.02094e-06
1.72706e-05
2.60644e-05
3.53955e-05
4.52568e-05
5.56406e-05
6.6539e-05
7.79434e-05
8.98449e-05
0.000102234
0.0001151
0.000128434
0.000142225
0.000156461
0.000171131
0.000186222
0.000201723
0.000217621
0.000233901
0.000250551
0.000267556
0.000284902
0.000302573
0.000320554
0.00033883
0.000357384
0.000376199
0.000395257
0.000414542
0.000434034
0.000453714
0.000473564
0.000493561
0.000513685
0.000533913
0.000554222
0.000574586
0.000594978
0.000615371
0.000635734
0.000656035
0.000676239
0.00069631
0.000716209
0.000735897
0.000755335
-5.41128e-05
-5.41631e-05
-5.33129e-05
-5.19542e-05
-4.99907e-05
-4.74309e-05
-4.42783e-05
-4.0535e-05
-3.62037e-05
-3.12876e-05
-2.57902e-05
-1.97158e-05
-1.30688e-05
-5.85428e-06
1.92224e-06
1.02549e-05
1.91373e-05
2.85628e-05
3.85241e-05
4.90136e-05
6.00231e-05
7.1544e-05
8.35674e-05
9.60836e-05
0.000109083
0.000122554
0.000136487
0.000150871
0.000165693
0.000180941
0.000196603
0.000212666
0.000229116
0.000245939
0.000263121
0.000280647
0.000298502
0.00031667
0.000335134
0.000353879
0.000372887
0.00039214
0.00041162
0.000431308
0.000451185
0.00047123
0.000491422
0.000511739
0.000532159
0.000552658
0.000573209
0.000593787
0.000614364
0.000634909
0.000655391
0.000675777
0.000696033
0.000716124
0.000736012
0.000755661
-6.2362e-05
-6.24145e-05
-6.1556e-05
-6.01838e-05
-5.82003e-05
-5.56143e-05
-5.24289e-05
-4.86465e-05
-4.42697e-05
-3.93017e-05
-3.37462e-05
-2.76073e-05
-2.08896e-05
-1.35981e-05
-5.73838e-06
2.68373e-06
1.16618e-05
2.11891e-05
3.12583e-05
4.18618e-05
5.29912e-05
6.46379e-05
7.67929e-05
8.94464e-05
0.000102588
0.000116209
0.000130296
0.000144838
0.000159825
0.000175243
0.000191079
0.000207321
0.000223954
0.000240966
0.00025834
0.000276062
0.000294116
0.000312487
0.000331157
0.00035011
0.000369329
0.000388795
0.000408489
0.000428393
0.000448486
0.000468748
0.000489157
0.000509691
0.000530327
0.000551041
0.000571807
0.000592598
0.000613388
0.000634146
0.000654842
0.000675445
0.000695922
0.000716239
0.000736362
0.000756257
-7.12215e-05
-7.12764e-05
-7.04091e-05
-6.90225e-05
-6.70177e-05
-6.44034e-05
-6.1183e-05
-5.73586e-05
-5.29331e-05
-4.79096e-05
-4.22918e-05
-3.60839e-05
-2.92903e-05
-2.19163e-05
-1.39673e-05
-5.44916e-06
3.63163e-06
1.32682e-05
2.34533e-05
3.41791e-05
4.54373e-05
5.72191e-05
6.95155e-05
8.23166e-05
9.56123e-05
0.000109392
0.000123645
0.000138359
0.000153522
0.000169123
0.000185147
0.000201582
0.000218413
0.000235627
0.000253208
0.000271142
0.000289412
0.000308002
0.000326895
0.000346074
0.000365522
0.000385219
0.000405148
0.000425287
0.000445617
0.000466117
0.000486766
0.00050754
0.000528417
0.000549371
0.000570378
0.000591411
0.000612442
0.000633444
0.000654386
0.000675238
0.000695968
0.000716545
0.000736936
0.00075711
-8.06984e-05
-8.07559e-05
-7.98792e-05
-7.84773e-05
-7.64497e-05
-7.38053e-05
-7.05476e-05
-6.66785e-05
-6.22011e-05
-5.71184e-05
-5.14341e-05
-4.51524e-05
-3.82779e-05
-3.08157e-05
-2.27713e-05
-1.41506e-05
-4.96005e-06
4.79337e-06
1.51023e-05
2.59589e-05
3.73548e-05
4.92811e-05
6.17287e-05
7.46878e-05
8.8148e-05
0.000102099
0.000116529
0.000131426
0.000146779
0.000162575
0.000178801
0.000195443
0.000212486
0.000229918
0.000247722
0.000265883
0.000284385
0.000303211
0.000322345
0.000341769
0.000361464
0.000381412
0.000401593
0.000421989
0.000442577
0.000463338
0.000484248
0.000505286
0.000526427
0.000547648
0.000568922
0.000590224
0.000611527
0.000632801
0.00065402
0.000675151
0.000696166
0.000717034
0.000737725
0.000758207
-9.08002e-05
-9.08606e-05
-8.99738e-05
-8.85557e-05
-8.6504e-05
-8.38277e-05
-8.05302e-05
-7.66137e-05
-7.2081e-05
-6.69353e-05
-6.11804e-05
-5.48203e-05
-4.78597e-05
-4.03037e-05
-3.21577e-05
-2.34278e-05
-1.41205e-05
-4.24265e-06
6.19818e-06
1.71941e-05
2.87367e-05
4.0817e-05
5.34258e-05
6.65532e-05
8.01888e-05
9.43218e-05
0.000108941
0.000124034
0.00013959
0.000155595
0.000172035
0.000188898
0.00020617
0.000223834
0.000241876
0.000260281
0.000279032
0.000298112
0.000317503
0.000337189
0.000357151
0.000377369
0.000397824
0.000418496
0.000439365
0.000460407
0.000481603
0.000502928
0.000524358
0.00054587
0.000567438
0.000589036
0.000610637
0.000632214
0.000653737
0.000675179
0.000696509
0.000717698
0.000738718
0.000759538
-0.000101535
-0.000101598
-0.000100701
-9.92658e-05
-9.71886e-05
-9.44784e-05
-9.11389e-05
-8.71721e-05
-8.25809e-05
-7.73686e-05
-7.15387e-05
-6.50955e-05
-5.80436e-05
-5.0388e-05
-4.21344e-05
-3.32886e-05
-2.38574e-05
-1.38476e-05
-3.26675e-06
7.87707e-06
1.95754e-05
3.18193e-05
4.45993e-05
5.79056e-05
7.17275e-05
8.60544e-05
0.000100875
0.000116176
0.000131947
0.000148174
0.000164844
0.000181943
0.000199456
0.000217369
0.000235666
0.00025433
0.000273347
0.000292697
0.000312365
0.000332332
0.000352579
0.000373087
0.000393836
0.000414806
0.000435976
0.000457323
0.000478826
0.000500462
0.000522207
0.000544035
0.000565923
0.000587844
0.00060977
0.000631677
0.000653535
0.000675315
0.00069699
0.00071853
0.000739907
0.000761092
-0.000112911
-0.000112978
-0.000112069
-0.000110616
-0.000108512
-0.000105766
-0.000102382
-9.83623e-05
-9.37093e-05
-8.84265e-05
-8.25175e-05
-7.59864e-05
-6.88379e-05
-6.10772e-05
-5.27096e-05
-4.37414e-05
-3.4179e-05
-2.40296e-05
-1.33006e-05
-2.00027e-06
9.86296e-06
2.228e-05
3.52414e-05
4.87371e-05
6.27566e-05
7.72888e-05
9.23223e-05
0.000107845
0.000123844
0.000140307
0.000157221
0.00017457
0.00019234
0.000210517
0.000229084
0.000248025
0.000267324
0.000286963
0.000306926
0.000327192
0.000347744
0.000368562
0.000389625
0.000410914
0.000432407
0.000454081
0.000475916
0.000497886
0.000519969
0.00054214
0.000564374
0.000586644
0.000608925
0.000631188
0.000653407
0.000675555
0.000697602
0.000719521
0.000741284
0.000762862
-0.000124938
-0.000125008
-0.000124088
-0.000122615
-0.000120483
-0.0001177
-0.000114269
-0.000110193
-0.000105475
-0.000100118
-9.41256e-05
-8.75019e-05
-8.02516e-05
-7.23798e-05
-6.38922e-05
-5.47948e-05
-4.50941e-05
-3.47974e-05
-2.39121e-05
-1.24465e-05
-4.09215e-07
1.21907e-05
2.53437e-05
3.90395e-05
5.32677e-05
6.8017e-05
8.3276e-05
9.90324e-05
0.000115274
0.000131986
0.000149157
0.000166771
0.000184814
0.00020327
0.000222124
0.000241359
0.000260958
0.000280904
0.000301179
0.000321764
0.000342641
0.000363788
0.000385187
0.000406816
0.000428654
0.000450679
0.000472867
0.000495196
0.000517642
0.00054018
0.000562785
0.000585431
0.000608092
0.00063074
0.000653349
0.000675892
0.00069834
0.000720665
0.000742841
0.00076484
-0.000137624
-0.000137698
-0.000136766
-0.000135273
-0.000133111
-0.000130288
-0.000126809
-0.000122674
-0.000117888
-0.000112453
-0.000106372
-9.96513e-05
-9.2294e-05
-8.43055e-05
-7.56915e-05
-6.64581e-05
-5.6612e-05
-4.61602e-05
-3.51104e-05
-2.34709e-05
-1.12502e-05
1.54237e-06
1.48972e-05
2.8804e-05
4.32522e-05
5.82305e-05
7.37273e-05
8.97303e-05
0.000106227
0.000123203
0.000140646
0.00015854
0.00017687
0.000195622
0.000214779
0.000234325
0.000254242
0.000274513
0.000295119
0.000316042
0.000337263
0.000358761
0.000380516
0.000402507
0.000424712
0.000447109
0.000469676
0.000492387
0.000515221
0.000538151
0.000561153
0.000584201
0.000607268
0.000630328
0.000653355
0.00067632
0.000699196
0.000721956
0.000744572
0.000767017
-0.00015098
-0.000151058
-0.000150113
-0.0001486
-0.000146407
-0.000143543
-0.000140011
-0.000135816
-0.000130957
-0.00012544
-0.000119268
-0.000112445
-0.000104975
-9.6864e-05
-8.81174e-05
-7.87413e-05
-6.87424e-05
-5.81278e-05
-4.69052e-05
-3.50829e-05
-2.26696e-05
-9.67455e-06
3.89245e-06
1.80212e-05
3.27008e-05
4.79202e-05
6.36673e-05
7.99299e-05
9.66949e-05
0.000113949
0.000131678
0.000149867
0.000168501
0.000187565
0.000207042
0.000226916
0.000247169
0.000267783
0.00028874
0.00031002
0.000331605
0.000353474
0.000375607
0.000397981
0.000420576
0.000443369
0.000466336
0.000489455
0.0005127
0.000536048
0.000559472
0.000582948
0.000606448
0.000629947
0.000653418
0.000676833
0.000700165
0.000723386
0.00074647
0.000769388
-0.000165017
-0.000165099
-0.000164141
-0.000162606
-0.00016038
-0.000157473
-0.000153888
-0.000149627
-0.000144694
-0.000139091
-0.000132823
-0.000125892
-0.000118305
-0.000110066
-0.00010118
-9.16547e-05
-8.14957e-05
-7.07104e-05
-5.93067e-05
-4.72928e-05
-3.46775e-05
-2.14701e-05
-7.68044e-06
6.68116e-06
2.16039e-05
3.70762e-05
5.30863e-05
6.96216e-05
8.66691e-05
0.000104215
0.000122245
0.000140745
0.000159698
0.00017909
0.000198904
0.000219124
0.00023973
0.000260706
0.000282032
0.00030369
0.00032566
0.000347921
0.000370452
0.000393232
0.000416239
0.00043945
0.000462842
0.000486392
0.000510074
0.000533864
0.000557737
0.000581667
0.000605627
0.000629592
0.000653534
0.000677425
0.00070124
0.00072495
0.000748528
0.000771947
-0.000179744
-0.000179831
-0.000178859
-0.000177301
-0.000175042
-0.000172089
-0.000168448
-0.000164121
-0.000159109
-0.000153417
-0.000147048
-0.000140006
-0.000132295
-0.000123922
-0.000114891
-0.000105209
-9.48828e-05
-8.3919e-05
-7.23258e-05
-6.01114e-05
-4.72847e-05
-3.38549e-05
-1.98321e-05
-5.22646e-06
9.95089e-06
2.56885e-05
4.19743e-05
5.87956e-05
7.61391e-05
9.39911e-05
0.000112337
0.000131163
0.000150452
0.000170189
0.000190357
0.000210939
0.000231918
0.000253274
0.00027499
0.000297045
0.000319419
0.000342093
0.000365045
0.000388253
0.000411695
0.000435348
0.000459188
0.000483193
0.000507336
0.000531594
0.000555941
0.000580351
0.000604798
0.000629255
0.000653695
0.000678091
0.000702416
0.000726642
0.000750741
0.000774687
-0.000195174
-0.000195267
-0.00019428
-0.000192699
-0.000190403
-0.000187404
-0.000183705
-0.000179307
-0.000174214
-0.000168428
-0.000161954
-0.000154796
-0.000146957
-0.000138444
-0.000129261
-0.000119416
-0.000108915
-9.7765e-05
-8.59739e-05
-7.355e-05
-6.05023e-05
-4.68402e-05
-3.25735e-05
-1.77127e-05
-2.26898e-06
1.37461e-05
3.03204e-05
4.7441e-05
6.50946e-05
8.32673e-05
0.000101945
0.000121112
0.000140753
0.000160851
0.000181391
0.000202354
0.000223723
0.000245479
0.000267603
0.000290075
0.000312876
0.000335984
0.000359378
0.000383036
0.000406935
0.000431054
0.000455367
0.00047985
0.000504481
0.000529232
0.000554078
0.000578995
0.000603955
0.000628931
0.000653896
0.000678824
0.000703686
0.000728455
0.000753103
0.000777602
-0.000211319
-0.000211417
-0.000210415
-0.000208809
-0.000206477
-0.000203429
-0.000199669
-0.000195199
-0.000190021
-0.000184138
-0.000177555
-0.000170275
-0.000162302
-0.000153643
-0.000144303
-0.000134288
-0.000123605
-0.00011226
-0.000100263
-8.76205e-05
-7.43423e-05
-6.04375e-05
-4.59163e-05
-3.07892e-05
-1.50673e-05
1.23767e-06
1.81133e-05
3.55468e-05
5.35245e-05
7.20326e-05
9.10564e-05
0.000110581
0.00013059
0.000151067
0.000171996
0.000193358
0.000215136
0.000237311
0.000259863
0.000282773
0.000306021
0.000329584
0.000353442
0.000377573
0.000401953
0.00042656
0.00045137
0.000476358
0.0005015
0.00052677
0.000552142
0.00057759
0.000603091
0.000628613
0.000654131
0.000679617
0.000705044
0.000730383
0.000755608
0.000780689
-0.00022819
-0.000228294
-0.000227276
-0.000225646
-0.000223276
-0.000220177
-0.000216354
-0.000211808
-0.000206541
-0.000200558
-0.000193861
-0.000186455
-0.000178344
-0.000169534
-0.000160029
-0.000149837
-0.000138964
-0.000127417
-0.000115205
-0.000102335
-8.88169e-05
-7.46594e-05
-5.9873e-05
-4.44681e-05
-2.84561e-05
-1.18489e-05
5.3412e-06
2.31011e-05
4.14173e-05
6.02756e-05
7.96613e-05
9.95589e-05
0.000119953
0.000140826
0.000162161
0.000183941
0.000206147
0.00022876
0.00025176
0.000275129
0.000298844
0.000322885
0.000347229
0.000371855
0.00039674
0.000421859
0.00044719
0.000472707
0.000498386
0.000524201
0.000550125
0.000576135
0.0006022
0.000628295
0.000654392
0.000680465
0.000706484
0.000732422
0.00075825
0.00078394
-0.000245801
-0.000245911
-0.000244878
-0.000243221
-0.000240812
-0.000237661
-0.000233772
-0.000229148
-0.00022379
-0.000217702
-0.000210887
-0.00020335
-0.000195095
-0.000186127
-0.000176452
-0.000166077
-0.000155007
-0.00014325
-0.000130814
-0.000117708
-0.000103939
-8.95188e-05
-7.44562e-05
-5.87623e-05
-4.24483e-05
-2.55262e-05
-8.00848e-06
1.00917e-05
2.87607e-05
4.79842e-05
6.77473e-05
8.80345e-05
0.00010883
0.000130116
0.000151876
0.000174091
0.000196744
0.000219815
0.000243285
0.000267132
0.000291336
0.000315876
0.00034073
0.000365874
0.000391286
0.000416943
0.000442819
0.00046889
0.000495131
0.000521516
0.000548019
0.000574614
0.000601273
0.000627969
0.000654674
0.00068136
0.000707999
0.000734563
0.000761023
0.00078735
-0.000264166
-0.000264283
-0.000263233
-0.000261549
-0.000259099
-0.000255894
-0.000251937
-0.000247232
-0.000241779
-0.000235583
-0.000228647
-0.000220974
-0.00021257
-0.000203439
-0.000193587
-0.00018302
-0.000171746
-0.000159771
-0.000147103
-0.000133751
-0.000119723
-0.000105029
-8.96796e-05
-7.36851e-05
-5.7057e-05
-3.98074e-05
-2.19488e-05
-3.49444e-06
1.55419e-05
3.51457e-05
5.5302e-05
7.5995e-05
9.72084e-05
0.000118925
0.000141128
0.000163798
0.000186917
0.000210466
0.000234424
0.000258772
0.000283487
0.000308548
0.000333933
0.000359619
0.000385583
0.0004118
0.000438247
0.000464897
0.000491726
0.000518708
0.000545816
0.000573024
0.000600303
0.000627627
0.000654967
0.000682296
0.000709584
0.000736802
0.000763923
0.000790915
-0.000283297
-0.000283421
-0.000282355
-0.000280643
-0.000278151
-0.00027489
-0.000270864
-0.000266074
-0.000260524
-0.000254216
-0.000247153
-0.00023934
-0.000230781
-0.000221481
-0.000211447
-0.000200683
-0.000189197
-0.000176995
-0.000164087
-0.00015048
-0.000136182
-0.000121205
-0.000105557
-8.92507e-05
-7.22964e-05
-5.47064e-05
-3.64935e-05
-1.76709e-05
1.74746e-06
2.17469e-05
4.23122e-05
6.34276e-05
8.50763e-05
0.000107241
0.000129905
0.000153049
0.000176654
0.000200701
0.000225169
0.000250037
0.000275285
0.00030089
0.00032683
0.000353081
0.00037962
0.000406423
0.000433464
0.00046072
0.000488163
0.000515768
0.000543508
0.000571355
0.000599283
0.000627262
0.000655266
0.000683265
0.00071123
0.000739132
0.000766942
0.00079463
-0.000303211
-0.000303342
-0.000302258
-0.000300518
-0.000297983
-0.000294664
-0.000290566
-0.00028569
-0.000280039
-0.000273615
-0.000266422
-0.000258464
-0.000249745
-0.000240271
-0.000230047
-0.000219079
-0.000207373
-0.000194938
-0.00018178
-0.000167909
-0.000153332
-0.000138061
-0.000122104
-0.000105474
-8.81809e-05
-7.02377e-05
-5.16569e-05
-3.24518e-05
-1.26367e-05
7.77374e-06
2.87641e-05
5.03184e-05
7.24199e-05
9.50513e-05
0.000118194
0.000141831
0.000165942
0.000190507
0.000215505
0.000240917
0.000266719
0.00029289
0.000319408
0.000346248
0.000373387
0.0004008
0.000428462
0.000456348
0.000484431
0.000512686
0.000541084
0.000569599
0.000598203
0.000626867
0.000655562
0.000684261
0.000712932
0.000741547
0.000770076
0.000798488
-0.00032392
-0.00032406
-0.000322958
-0.000321189
-0.00031861
-0.000315232
-0.00031106
-0.000306095
-0.000300339
-0.000293796
-0.000286469
-0.000278361
-0.000269477
-0.000259823
-0.000249403
-0.000238224
-0.000226292
-0.000213614
-0.000200198
-0.000186053
-0.000171188
-0.000155612
-0.000139336
-0.00012237
-0.000104726
-8.64164e-05
-6.7454e-05
-4.78523e-05
-2.76255e-05
-6.78842e-06
1.46433e-05
3.66534e-05
5.92251e-05
8.23408e-05
0.000105982
0.000130131
0.000154767
0.000179871
0.000205421
0.000231397
0.000257777
0.000284537
0.000311656
0.000339109
0.000366872
0.000394921
0.000423229
0.000451771
0.000480521
0.000509453
0.000538537
0.000567748
0.000597055
0.000626432
0.000655848
0.000685275
0.000714682
0.00074404
0.000773318
0.000802485
-0.000345442
-0.000345591
-0.00034447
-0.000342672
-0.000340047
-0.000336608
-0.00033236
-0.000327303
-0.00032144
-0.000314774
-0.000307309
-0.000299047
-0.000289993
-0.000280153
-0.000269531
-0.000258134
-0.000245968
-0.00023304
-0.000219358
-0.00020493
-0.000189766
-0.000173875
-0.000157268
-0.000139954
-0.000121947
-0.000103258
-8.39006e-05
-6.38878e-05
-4.32342e-05
-2.19549e-05
-6.55423e-08
2.24174e-05
4.5477e-05
6.90954e-05
9.32543e-05
0.000117935
0.000143116
0.00016878
0.000194903
0.000221466
0.000248445
0.000275818
0.000303562
0.000331652
0.000360064
0.000388773
0.000417754
0.000446979
0.000476423
0.000506058
0.000535856
0.00056579
0.000595831
0.000625949
0.000656115
0.0006863
0.000716473
0.000746604
0.000776662
0.000806614
-0.000367791
-0.000367949
-0.000366811
-0.000364982
-0.00036231
-0.00035881
-0.000354483
-0.000349332
-0.000343359
-0.000336567
-0.000328959
-0.000320538
-0.00031131
-0.000301278
-0.000290448
-0.000278826
-0.000266419
-0.000253233
-0.000239276
-0.000224556
-0.000209084
-0.000192867
-0.000175917
-0.000158245
-0.000139862
-0.00012078
-0.000101013
-8.05747e-05
-5.94792e-05
-3.77417e-05
-1.53781e-05
7.59501e-06
3.11604e-05
5.53e-05
7.99953e-05
0.000105227
0.000130975
0.000157219
0.000183938
0.000211109
0.000238711
0.00026672
0.000295113
0.000323865
0.000352951
0.000382347
0.000412025
0.00044196
0.000472125
0.000502491
0.000533032
0.000563717
0.00059452
0.000625409
0.000656355
0.000687329
0.000718298
0.000749232
0.0007801
0.00081087
-0.000390984
-0.000391153
-0.000389995
-0.000388135
-0.000385417
-0.000381852
-0.000377446
-0.000372198
-0.000366112
-0.00035919
-0.000351436
-0.000342852
-0.000333444
-0.000323215
-0.000312171
-0.000300318
-0.000287662
-0.00027421
-0.000259969
-0.000244949
-0.000229158
-0.000212605
-0.000195302
-0.000177258
-0.000158486
-0.000138999
-0.000118809
-9.79302e-05
-7.63773e-05
-5.41655e-05
-3.13109e-05
-7.83027e-06
1.6259e-05
4.09386e-05
6.61898e-05
9.1993e-05
0.000118328
0.000145174
0.00017251
0.000200313
0.00022856
0.000257229
0.000286295
0.000315734
0.00034552
0.000375628
0.000406031
0.000436703
0.000467615
0.000498741
0.000530052
0.000561519
0.000593112
0.000624802
0.000656559
0.000688351
0.000720148
0.000751917
0.000783627
0.000815246
-0.000415038
-0.000415218
-0.000414042
-0.00041215
-0.000409383
-0.000405754
-0.000401265
-0.000395919
-0.000389717
-0.000382663
-0.000374758
-0.000366007
-0.000356414
-0.000345983
-0.000334719
-0.000322628
-0.000309716
-0.00029599
-0.000281457
-0.000266127
-0.000250007
-0.000233108
-0.000215439
-0.000197013
-0.00017784
-0.000157933
-0.000137306
-0.000115972
-9.39461e-05
-7.12438e-05
-4.78813e-05
-2.38755e-05
7.55943e-07
2.59946e-05
5.18213e-05
7.82164e-05
0.000105159
0.000132629
0.000160604
0.000189062
0.000217979
0.000247331
0.000277095
0.000307246
0.000337757
0.000368604
0.000399758
0.000431194
0.000462883
0.000494797
0.000526907
0.000559183
0.000591598
0.000624119
0.000656716
0.000689358
0.000722014
0.00075465
0.000787235
0.000819735
-0.00043997
-0.000440162
-0.000438966
-0.000437043
-0.000434227
-0.000430531
-0.000425959
-0.000420512
-0.000414192
-0.000407002
-0.000398943
-0.000390021
-0.000380238
-0.000369599
-0.000358109
-0.000345774
-0.000332599
-0.000318591
-0.000303758
-0.000288108
-0.00027165
-0.000254394
-0.000236349
-0.000217528
-0.000197941
-0.000177602
-0.000156523
-0.000134719
-0.000112204
-8.89949e-05
-6.51073e-05
-4.05585e-05
-1.53663e-05
1.04506e-05
3.68729e-05
6.38805e-05
9.14529e-05
0.000119569
0.000148205
0.000177341
0.000206951
0.000237011
0.000267498
0.000298386
0.000329649
0.000361261
0.000393194
0.000425422
0.000457915
0.000490645
0.000523583
0.0005567
0.000589966
0.000623349
0.000656818
0.000690342
0.000723888
0.000757423
0.000790915
0.00082433
-0.000465797
-0.000466002
-0.000464788
-0.000462833
-0.000459967
-0.000456203
-0.000451546
-0.000445996
-0.000439555
-0.000432226
-0.000424011
-0.000414913
-0.000404936
-0.000394084
-0.000382362
-0.000369776
-0.00035633
-0.000342033
-0.000326892
-0.000310913
-0.000294107
-0.000276483
-0.000258052
-0.000238823
-0.000218809
-0.000198024
-0.000176479
-0.00015419
-0.000131171
-0.000107438
-8.30077e-05
-5.78978e-05
-3.21261e-05
-5.7114e-06
2.13267e-05
4.89679e-05
7.71912e-05
0.000105975
0.000135296
0.000165133
0.00019546
0.000226254
0.000257489
0.000289141
0.000321182
0.000353585
0.000386325
0.000419372
0.000452698
0.000486274
0.00052007
0.000554057
0.000588204
0.00062248
0.000656853
0.00069129
0.00072576
0.000760228
0.000794661
0.000829024
-0.000492539
-0.000492758