/*--------------------------------*- C++ -*----------------------------------*\
  =========                 |
  \\      /  F ield         | OpenFOAM: The Open Source CFD Toolbox
   \\    /   O peration     | Website:  https://openfoam.org
    \\  /    A nd           | Version:  8
     \\/     M anipulation  |
\*---------------------------------------------------------------------------*/
FoamFile
{
    version     2.0;
    format      ascii;
    class       volScalarField;
    location    "55";
    object      p;
}
// * * * * * * * * * * * * * * * * * * * * * * * * * * * * * * * * * * * * * //

dimensions      [0 2 -2 0 0 0 0];

internalField   nonuniform List<scalar> 
464
(
-5.34952e-08
1.05654e-06
5.42889e-06
1.19125e-05
2.12339e-05
3.32646e-05
4.8502e-05
6.59968e-05
8.84411e-05
0.000110113
0.000141581
0.000162454
-1.40903e-06
-3.3229e-07
4.04804e-06
1.06338e-05
2.02927e-05
3.29013e-05
4.89141e-05
6.74828e-05
9.11202e-05
0.000114792
0.000148214
0.00017419
-6.48836e-06
-5.6229e-06
-1.65058e-06
4.07595e-06
1.23156e-05
2.31259e-05
3.69197e-05
5.34686e-05
7.42328e-05
9.63757e-05
0.000125144
0.000151194
-1.37495e-05
-1.30013e-05
-8.91869e-06
-2.49395e-06
7.24806e-06
2.01306e-05
3.64514e-05
5.60945e-05
8.01902e-05
0.000106691
0.000139353
0.000171919
-2.38395e-05
-2.36183e-05
-2.07783e-05
-1.70978e-05
-1.09106e-05
-2.14778e-06
9.82276e-06
2.52966e-05
4.4877e-05
6.81927e-05
9.67128e-05
0.000127352
-3.60317e-05
-3.54778e-05
-3.14042e-05
-2.52956e-05
-1.62345e-05
-4.13892e-06
1.15538e-05
3.13172e-05
5.57247e-05
8.48942e-05
0.000119646
0.000160164
-5.54631e-05
-5.71849e-05
-5.57999e-05
-5.55241e-05
-5.18452e-05
-4.62968e-05
-3.69433e-05
-2.3462e-05
-4.98819e-06
1.9363e-05
4.93344e-05
8.76133e-05
-5.85706e-05
-5.89196e-05
-5.70518e-05
-5.35233e-05
-4.78703e-05
-3.90674e-05
-2.67429e-05
-9.36969e-06
1.34298e-05
4.37856e-05
7.90706e-05
0.000129139
-0.000103748
-0.000108714
-0.00010759
-0.000114315
-0.000112422
-0.000113762
-0.000108552
-9.93464e-05
-8.50341e-05
-5.92653e-05
-3.48256e-05
1.89233e-05
-7.92261e-05
-8.11747e-05
-8.41445e-05
-8.49932e-05
-8.72368e-05
-8.48245e-05
-8.12274e-05
-6.95224e-05
-5.56634e-05
-2.36976e-05
3.44714e-06
6.86879e-05
-0.00016124
-0.000173473
-0.000171293
-0.000193476
-0.000192345
-0.000209288
-0.000209269
-0.000209821
-0.000207062
-0.000180708
-0.000173875
-0.000104472
-9.41888e-05
-9.8011e-05
-0.000110217
-0.000116368
-0.000134377
-0.000140377
-0.000157107
-0.000151838
-0.000163174
-0.000128864
-0.000132648
-4.69314e-05
-0.000214238
-0.000243047
-0.000237506
-0.000291281
-0.000289528
-0.000335561
-0.000342855
-0.000362662
-0.000379124
-0.000359764
-0.000385647
-0.000309034
-9.64874e-05
-0.000103637
-0.000129785
-0.00014291
-0.000185883
-0.000203761
-0.000255696
-0.000259109
-0.000315991
-0.00028116
-0.000343989
-0.000243812
-0.000230774
-0.000300423
-0.000289537
-0.000406294
-0.000401748
-0.00049557
-0.000511912
-0.000561169
-0.000603802
-0.000601384
-0.000676391
-0.000610379
-7.64596e-05
-9.7585e-05
-0.000135797
-0.00015971
-0.000232675
-0.000272173
-0.000373268
-0.000391219
-0.000510923
-0.000481111
-0.000621082
-0.000525327
-0.000111342
-0.000315194
-0.000310355
-0.000547739
-0.000538624
-0.000696065
-0.000722446
-0.000803406
-0.000872559
-0.00089373
-0.00100664
-0.000987864
-3.22788e-05
-0.000116587
-0.000133852
-0.000162823
-0.000252492
-0.000339513
-0.000505852
-0.000546468
-0.000739965
-0.00071664
-0.000912462
-0.000843417
0.000399358
-0.000361971
-0.000326087
-0.00077701
-0.000719414
-0.000943267
-0.000987003
-0.00108505
-0.001176
-0.00121831
-0.00128802
-0.00139053
-0.0010178
0.000255073
0.000134991
-0.000129886
-0.000319448
-0.000459999
-0.000770429
-0.00080187
-0.001066
-0.00102129
-0.00120446
-0.00116593
0.000206663
0.000227961
0.000251614
0.00026857
0.000285032
0.000296838
0.000305696
0.000309212
0.000223354
0.000246521
0.000274227
0.000293231
0.000311521
0.000324732
0.000334481
0.000338438
0.000186754
0.000215157
0.000246376
0.000273821
0.000298561
0.000318664
0.000332705
0.000339208
0.000211742
0.000245749
0.000281256
0.00031275
0.000340841
0.000364386
0.000380456
0.000388309
0.000164538
0.000204293
0.000244361
0.000288017
0.000322966
0.000359487
0.00038066
0.000394043
0.000203681
0.000250726
0.000297369
0.000348605
0.000389766
0.00043422
0.000459634
0.000477137
0.000126891
0.000186594
0.000233462
0.000309778
0.000355942
0.00042938
0.000460307
0.000493073
0.000179987
0.000251318
0.000308903
0.000399095
0.000457054
0.000548546
0.000589032
0.000634827
5.03222e-05
0.000143835
0.000192077
0.000328132
0.000386944
0.000540886
0.000589866
0.000679396
0.000117919
0.000226434
0.000288275
0.000448809
0.000526382
0.000722067
0.000793078
0.000929155
-9.31897e-05
4.13658e-05
7.46171e-05
0.000306856
0.000372086
0.000695688
0.00078581
0.00105995
-3.85158e-05
0.000131649
0.000164935
0.000440649
0.000521962
0.000935373
0.00107972
0.00152643
-0.000343221
-0.000174812
-0.00020212
0.000151817
0.000157251
0.000800794
0.000968936
0.00185525
-0.000319078
-0.000105157
-0.000202982
0.000215662
0.000158902
0.000942954
0.00112265
0.00256236
-0.000740071
-0.000549329
-0.00079482
-0.000315571
-0.000734115
0.000353307
-0.000162178
0.00216229
-0.000722385
-0.000521337
-0.000891232
-0.00047181
-0.00133052
-0.000232105
-0.00258201
0.000921239
-0.00120646
-0.0010816
-0.00166875
-0.00119456
-0.00259571
-0.00138255
-0.00419929
-0.000830234
-0.00107749
-0.000979077
-0.0014119
-0.00134596
-0.00233994
-0.00252484
-0.00389329
0.0004097
-0.00144117
-0.00156244
-0.00215292
-0.00193351
-0.00393591
-0.00449917
-0.00532044
0.00114519
-0.00129195
-0.0012821
-0.00156486
-0.00157817
-0.00179747
-0.000604226
0.00312676
0.016782
0.000278257
0.000278651
0.000279681
0.000280868
0.000282265
0.000283422
0.00028437
0.000284727
0.000279872
0.000280296
0.000281367
0.000282606
0.000283978
0.000285102
0.00028601
0.000286346
0.000274729
0.000275362
0.000276989
0.000278758
0.000280934
0.000282676
0.000284124
0.000284662
0.000279419
0.000280247
0.000282114
0.000284224
0.000286424
0.000288189
0.000289592
0.000290105
0.000267191
0.000268779
0.000272307
0.000275861
0.000280155
0.000283416
0.000286111
0.000287102
0.000275363
0.000277586
0.00028166
0.000286016
0.000290371
0.000293789
0.000296465
0.00029745
0.000250288
0.00025548
0.00026416
0.000271982
0.000280712
0.00028705
0.000292108
0.000293996
0.000261784
0.000269513
0.000279231
0.000288476
0.000297515
0.000304344
0.000309583
0.000311566
)
;

boundaryField
{
    movingWall
    {
        type            zeroGradient;
    }
    fixedWalls
    {
        type            zeroGradient;
    }
    frontAndBack
    {
        type            empty;
    }
}


// ************************************************************************* //
