/*--------------------------------*- C++ -*----------------------------------*\
  =========                 |
  \\      /  F ield         | OpenFOAM: The Open Source CFD Toolbox
   \\    /   O peration     | Website:  https://openfoam.org
    \\  /    A nd           | Version:  8
     \\/     M anipulation  |
\*---------------------------------------------------------------------------*/
FoamFile
{
    version     2.0;
    format      ascii;
    class       surfaceScalarField;
    location    "55";
    object      phi;
}
// * * * * * * * * * * * * * * * * * * * * * * * * * * * * * * * * * * * * * //

dimensions      [0 3 -1 0 0 0 0];

internalField   nonuniform List<scalar> 
880
(
-1.81538e-05
1.81538e-05
-3.83088e-05
2.01551e-05
-5.79015e-05
1.95927e-05
-7.65477e-05
1.86462e-05
-9.39134e-05
1.73656e-05
-0.000109664
1.57509e-05
-0.000123566
1.3902e-05
-0.00013509
1.15233e-05
-0.000144563
9.47337e-06
-0.000150386
5.82298e-06
-0.000155532
5.14593e-06
2.86793e-06
-0.0001584
-2.08131e-05
3.89669e-05
-4.38006e-05
4.31426e-05
-6.61709e-05
4.1963e-05
-8.75145e-05
3.99898e-05
-0.000107463
3.73146e-05
-0.00012564
3.39272e-05
-0.000141767
3.00293e-05
-0.000155372
2.51279e-05
-0.000166811
2.09131e-05
-0.000175016
1.40272e-05
-0.000182577
1.2707e-05
2.52882e-06
-0.000182238
-2.15014e-05
6.04683e-05
-4.52405e-05
6.68817e-05
-6.82459e-05
6.49684e-05
-9.00305e-05
6.17744e-05
-0.000110191
5.74749e-05
-0.000128367
5.21038e-05
-0.000144158
4.58197e-05
-0.000157271
3.82414e-05
-0.000167081
3.07225e-05
-0.000173549
2.04953e-05
-0.000174987
1.41453e-05
4.57545e-07
-0.000172916
-2.2505e-05
8.29733e-05
-4.74539e-05
9.18306e-05
-7.18407e-05
8.93553e-05
-9.52706e-05
8.52042e-05
-0.0001173
7.95041e-05
-0.00013748
7.22838e-05
-0.000155312
6.36515e-05
-0.000170434
5.33637e-05
-0.000182006
4.22945e-05
-0.000189886
2.83753e-05
-0.00019183
1.60897e-05
-2.69442e-06
-0.000188678
-2.37341e-05
0.000106707
-4.99983e-05
0.000118095
-7.53709e-05
0.000114728
-9.94791e-05
0.000109312
-0.000121888
0.000101913
-0.000142281
9.2677e-05
-0.000160249
8.1619e-05
-0.000175491
6.86062e-05
-0.000187342
5.41454e-05
-0.000196002
3.70349e-05
-0.000199908
1.99962e-05
-2.03354e-06
-0.000200569
-2.55308e-05
0.000132238
-5.40548e-05
0.000146619
-8.20756e-05
0.000142749
-0.000109109
0.000136345
-0.000134742
0.000127547
-0.000158466
0.000116401
-0.000179822
0.000102974
-0.000198283
8.70678e-05
-0.00021304
6.89023e-05
-0.000223745
4.77395e-05
-0.000228648
2.48989e-05
-3.30598e-06
-0.000227375
-2.69746e-05
0.000159213
-5.72327e-05
0.000176877
-8.63172e-05
0.000171833
-0.000114587
0.000164615
-0.000140841
0.000153802
-0.000165261
0.00014082
-0.000187226
0.00012494
-0.000206483
0.000106325
-0.000222738
8.51581e-05
-0.000235514
6.05154e-05
-0.000245247
3.46313e-05
1.78544e-06
-0.000250338
-3.03023e-05
0.000189515
-6.41162e-05
0.000210691
-9.75485e-05
0.000205265
-0.000129641
0.000196707
-0.000160569
0.000184729
-0.000189458
0.000169709
-0.000216273
0.000151755
-0.000240188
0.000130239
-0.000261
0.000105971
-0.000277169
7.66839e-05
-0.00028919
4.66528e-05
5.19142e-06
-0.000292596
-3.10354e-05
0.000220551
-6.71779e-05
0.000246833
-0.000101054
0.000239142
-0.000135751
0.000231404
-0.000167107
0.000216086
-0.000197588
0.00020019
-0.000225007
0.000179174
-0.000249903
0.000155135
-0.000272538
0.000128606
-0.000291185
9.53307e-05
-0.000309322
6.47901e-05
1.7382e-05
-0.000321513
-3.6951e-05
0.000257502
-7.7281e-05
0.000287163
-0.000118366
0.000280227
-0.000156373
0.000269411
-0.000194484
0.000254196
-0.000229618
0.000235324
-0.000263966
0.000213522
-0.000294889
0.000186058
-0.000324689
0.000158406
-0.000349086
0.000119727
-0.000372621
8.83254e-05
3.06528e-05
-0.000385892
-3.48084e-05
0.00029231
-7.95919e-05
0.000331947
-0.000119078
0.000319713
-0.00016342
0.000313753
-0.000201105
0.000291882
-0.000239781
0.000274
-0.00027342
0.000247162
-0.000305019
0.000217657
-0.000334715
0.000188101
-0.000360681
0.000145693
-0.000388731
0.000116376
5.35774e-05
-0.000411656
-4.71578e-05
0.000339468
-9.43425e-05
0.000379132
-0.000145183
0.000370554
-0.000188924
0.000357494
-0.000235236
0.000338194
-0.000277088
0.000315852
-0.000320238
0.000290311
-0.000359261
0.000256681
-0.000400015
0.000228855
-0.000435023
0.000180701
-0.000474373
0.000155726
8.25383e-05
-0.000503334
-3.28465e-05
0.000372314
-9.23228e-05
0.000438608
-0.000138499
0.00041673
-0.000198751
0.000417745
-0.000244889
0.000384332
-0.000293821
0.000364784
-0.000333605
0.000330095
-0.000371144
0.000294219
-0.000405954
0.000263665
-0.00043765
0.000212398
-0.000474123
0.000192199
0.000117255
-0.00050884
-6.95152e-05
0.000441829
-0.000119299
0.000488391
-0.000181102
0.000478533
-0.00022764
0.000464283
-0.000280635
0.000437326
-0.000329445
0.000413594
-0.000380546
0.000381196
-0.000428262
0.000341936
-0.0004792
0.000314603
-0.000525582
0.00025878
-0.000580699
0.000247316
0.000166641
-0.000630086
1.485e-06
0.000440344
-9.39434e-05
0.00058382
-0.000155152
0.000539742
-0.000245993
0.000555125
-0.000307052
0.000498386
-0.000367263
0.000473805
-0.000411877
0.00042581
-0.000450161
0.00038022
-0.000483634
0.000348075
-0.000512822
0.000287968
-0.000545968
0.000280462
0.000203591
-0.000582918
-0.000141368
0.000581712
-0.000163682
0.000606134
-0.000228344
0.000604403
-0.000272018
0.000598799
-0.000324345
0.000550712
-0.000383094
0.000532554
-0.000439848
0.000482564
-0.000496255
0.000436626
-0.000553183
0.000405004
-0.00060677
0.000341555
-0.000668128
0.00034182
0.000266268
-0.000730805
0.000110156
0.000471556
-9.15353e-05
0.000807826
-0.000210264
0.000723133
-0.000341308
0.000729842
-0.00042509
0.000634495
-0.000483837
0.000591301
-0.000526629
0.000525357
-0.000552153
0.00046215
-0.000573371
0.000426222
-0.000584659
0.000352843
-0.000589104
0.000346265
0.000277661
-0.000600497
0.00013276
0.000338796
0.000129946
0.000810639
3.7513e-05
0.000815566
-0.000149865
0.00091722
-0.000249542
0.000734172
-0.000378961
0.000720721
-0.000471173
0.000617569
-0.000551919
0.000542896
-0.000618703
0.000493006
-0.000672915
0.000407055
-0.000725561
0.00039891
0.000332156
-0.000780055
-0.00140884
0.00174764
-0.00153839
0.000940188
-0.00167922
0.000956395
-0.00152794
0.000765936
-0.00144812
0.000654357
-0.0012721
0.000544703
-0.001149
0.000494461
-0.000996465
0.000390365
-0.000872394
0.000368936
-0.000748672
0.000283332
-0.00061918
0.000269418
0.00023243
-0.000519453
0.00174764
0.00268783
0.00364422
0.00441016
0.00506451
0.00560922
0.00610368
0.00649404
0.00686298
0.00714631
0.00741573
0.00764816
-0.00012827
5.586e-05
-8.59898e-05
-0.000101401
2.51516e-05
-5.20208e-05
-8.4683e-05
-2.06959e-06
-1.46482e-05
-6.81055e-05
-2.32745e-05
6.69694e-06
-5.1963e-05
-4.03564e-05
2.42139e-05
-3.45842e-05
-5.31895e-05
3.58106e-05
-1.66904e-05
-6.14458e-05
4.3552e-05
-5.90757e-05
4.23853e-05
-0.000145177
1.87998e-05
-0.000115281
-4.74509e-06
-9.6007e-05
-2.13433e-05
-7.70084e-05
-4.22731e-05
-5.8866e-05
-5.84987e-05
-3.92521e-05
-7.28034e-05
-1.89743e-05
-8.17236e-05
-7.805e-05
-0.00015625
2.1345e-06
-0.000139129
-2.18662e-05
-0.000120578
-3.98943e-05
-9.98042e-05
-6.30472e-05
-7.71948e-05
-8.11081e-05
-5.18417e-05
-9.81565e-05
-2.52175e-05
-0.000108348
-0.000103267
-0.00017247
-1.40739e-05
-0.000155501
-3.88352e-05
-0.000135806
-5.9589e-05
-0.000113337
-8.55169e-05
-8.84077e-05
-0.000106037
-5.96745e-05
-0.00012689
-2.92266e-05
-0.000138796
-0.000132494
-0.000193223
-2.142e-05
-0.000180487
-5.15713e-05
-0.00016332
-7.67557e-05
-0.000138805
-0.000110032
-0.000110987
-0.000133855
-7.53294e-05
-0.000162548
-3.77232e-05
-0.000176402
-0.000170217
-0.000219535
-2.926e-05
-0.000206253
-6.4853e-05
-0.000188191
-9.4818e-05
-0.000161488
-0.000136735
-0.000130572
-0.000164771
-8.93467e-05
-0.000203773
-4.53418e-05
-0.000220407
-0.000215559
-0.000250863
-2.87349e-05
-0.000240792
-7.49246e-05
-0.000227141
-0.000108469
-0.000198304
-0.000165571
-0.000165594
-0.000197482
-0.000114396
-0.000254971
-6.02394e-05
-0.000274563
-0.000275799
-0.000292661
-2.86703e-05
-0.000282813
-8.47727e-05
-0.000269028
-0.000122254
-0.000238208
-0.00019639
-0.000201969
-0.000233722
-0.000141739
-0.0003152
-7.66647e-05
-0.000339638
-0.000352463
-0.000333617
-1.6566e-05
-0.000330363
-8.80266e-05
-0.000326672
-0.000125945
-0.000296659
-0.000226403
-0.000263695
-0.000266686
-0.000189322
-0.000389573
-0.000109866
-0.000419095
-0.000462329
-0.000398765
-3.69249e-06
-0.000398001
-8.8791e-05
-0.000397495
-0.00012645
-0.000368684
-0.000255214
-0.00033517
-0.0003002
-0.000248915
-0.000475828
-0.000152698
-0.000515311
-0.000615027
-0.000441583
2.62347e-05
-0.000455657
-7.47176e-05
-0.000478207
-0.0001039
-0.000462973
-0.000270448
-0.000451843
-0.00031133
-0.000354729
-0.000572942
-0.000246332
-0.000623708
-0.000861359
-0.000540802
6.37025e-05
-0.000561234
-5.42854e-05
-0.000595031
-7.01028e-05
-0.000592499
-0.00027298
-0.000597809
-0.00030602
-0.000503741
-0.000667011
-0.000389102
-0.000738347
-0.00125046
-0.000559132
0.000113995
-0.000606191
-7.2264e-06
-0.000684369
8.07477e-06
-0.000730532
-0.000226817
-0.000818459
-0.000218094
-0.000771706
-0.000713763
-0.000723607
-0.000786446
-0.00197407
-0.000699273
0.000183183
-0.000758332
5.18331e-05
-0.000858802
0.000108544
-0.000940631
-0.000144987
-0.00109769
-6.10366e-05
-0.00115454
-0.00065691
-0.00125637
-0.000684614
-0.00323044
-0.000639085
0.00023935
-0.000717596
0.000130344
-0.000860485
0.000251432
-0.00104462
3.91491e-05
-0.00138367
0.000278011
-0.00165088
-0.000389694
-0.00188237
-0.000453133
-0.00511281
-0.000812383
0.000320928
-0.000911318
0.000229279
-0.001053
0.000393117
-0.00124943
0.000235578
-0.0015018
0.000530383
-0.00176794
-0.000123555
-0.00151651
-0.000704567
-0.00662932
-0.000591363
0.000311793
-0.000637234
0.000275151
-0.000687622
0.000443505
-0.000905344
0.000453299
-0.00118472
0.000809762
-0.00155841
0.000250136
-0.000659261
-0.00160372
-0.00728858
-0.000834984
0.000366722
-0.000924842
0.000365009
-0.00100425
0.000522909
-0.00116928
0.000618334
-0.00112075
0.000761233
-0.00124648
0.000375867
-0.000174509
-0.00267569
-0.00746309
-0.000321595
0.000168864
-0.00020939
0.000252803
0.000215754
9.77652e-05
0.000587473
0.000246614
0.00136078
-1.20742e-05
0.00214695
-0.000410304
0.00186799
-0.00239673
-0.0055951
0.00781702
0.00806983
0.00816759
0.00841421
0.00840213
0.00799183
0.0055951
-2.075e-06
2.075e-06
-3.98464e-06
1.90964e-06
-5.14188e-06
1.15723e-06
-5.46977e-06
3.27898e-07
-4.91048e-06
-5.5929e-07
-3.63455e-06
-1.27593e-06
-1.83185e-06
-1.8027e-06
-1.83185e-06
-2.4691e-06
4.5441e-06
-4.70033e-06
4.14088e-06
-6.01405e-06
2.47095e-06
-6.29281e-06
6.0666e-07
-5.59837e-06
-1.25373e-06
-4.12626e-06
-2.74803e-06
-2.07756e-06
-3.85141e-06
-3.90941e-06
-3.72578e-06
8.26988e-06
-6.95265e-06
7.36775e-06
-8.74328e-06
4.26158e-06
-9.1733e-06
1.03668e-06
-8.11813e-06
-2.3089e-06
-5.94794e-06
-4.91822e-06
-2.9871e-06
-6.81225e-06
-6.89651e-06
-4.50583e-06
1.27757e-05
-8.2701e-06
1.1132e-05
-1.02029e-05
6.19438e-06
-1.03301e-05
1.16384e-06
-8.97357e-06
-3.6654e-06
-6.51367e-06
-7.37811e-06
-3.25063e-06
-1.00753e-05
-1.01471e-05
-8.53003e-06
2.13057e-05
-1.49188e-05
1.75208e-05
-1.76341e-05
8.90973e-06
-1.77093e-05
1.23896e-06
-1.51336e-05
-6.24108e-06
-1.0827e-05
-1.16846e-05
-5.37371e-06
-1.55286e-05
-1.55208e-05
-1.06317e-05
3.19374e-05
-1.81504e-05
2.50395e-05
-2.09843e-05
1.17436e-05
-2.02955e-05
5.50227e-07
-1.70712e-05
-9.46538e-06
-1.21307e-05
-1.66252e-05
-5.98789e-06
-2.16715e-05
-2.15087e-05
-2.36888e-05
5.56262e-05
-3.67348e-05
3.80855e-05
-3.86212e-05
1.363e-05
-3.58034e-05
-2.26763e-06
-2.90519e-05
-1.62169e-05
-2.00848e-05
-2.55923e-05
-9.82016e-06
-3.19361e-05
-3.13289e-05
-3.03636e-05
-4.42989e-05
-4.5317e-05
-4.08877e-05
-3.28907e-05
-2.26723e-05
-1.10564e-05
)
;

boundaryField
{
    movingWall
    {
        type            calculated;
        value           uniform 0;
    }
    fixedWalls
    {
        type            calculated;
        value           uniform 0;
    }
    frontAndBack
    {
        type            empty;
        value           nonuniform List<scalar> 0();
    }
}


// ************************************************************************* //
