/*--------------------------------*- C++ -*----------------------------------*\
  =========                 |
  \\      /  F ield         | OpenFOAM: The Open Source CFD Toolbox
   \\    /   O peration     | Website:  https://openfoam.org
    \\  /    A nd           | Version:  8
     \\/     M anipulation  |
\*---------------------------------------------------------------------------*/
FoamFile
{
    version     2.0;
    format      ascii;
    class       volScalarField;
    location    "1.69";
    object      p;
}
// * * * * * * * * * * * * * * * * * * * * * * * * * * * * * * * * * * * * * //

dimensions      [0 2 -2 0 0 0 0];

internalField   nonuniform List<scalar> 
400
(
-5.78446e-15
-9.59957e-15
-1.17824e-14
-1.33327e-14
-1.44529e-14
-1.52915e-14
-1.587e-14
-1.63326e-14
-1.66471e-14
-1.68262e-14
-1.68501e-14
-1.68175e-14
-1.66236e-14
-1.63014e-14
-1.58801e-14
-1.53041e-14
-1.44943e-14
-1.33617e-14
-1.18575e-14
-9.66804e-15
-1.06917e-14
-1.16112e-14
-1.2797e-14
-1.39378e-14
-1.47824e-14
-1.54527e-14
-1.59548e-14
-1.6306e-14
-1.6568e-14
-1.67384e-14
-1.67992e-14
-1.67862e-14
-1.65911e-14
-1.63281e-14
-1.58935e-14
-1.54734e-14
-1.48817e-14
-1.40228e-14
-1.29168e-14
-1.17409e-14
-1.3019e-14
-1.32867e-14
-1.38925e-14
-1.45715e-14
-1.5142e-14
-1.56439e-14
-1.62073e-14
-1.6459e-14
-1.66394e-14
-1.67284e-14
-1.68155e-14
-1.68132e-14
-1.66638e-14
-1.64719e-14
-1.60884e-14
-1.57982e-14
-1.54084e-14
-1.4657e-14
-1.39754e-14
-1.33455e-14
-1.46079e-14
-1.46417e-14
-1.48696e-14
-1.52914e-14
-1.55686e-14
-1.59723e-14
-1.63969e-14
-1.66729e-14
-1.68013e-14
-1.67475e-14
-1.70236e-14
-1.6939e-14
-1.68324e-14
-1.66101e-14
-1.6385e-14
-1.62541e-14
-1.58397e-14
-1.53502e-14
-1.49191e-14
-1.46469e-14
-1.55482e-14
-1.5578e-14
-1.57162e-14
-1.61032e-14
-1.61031e-14
-1.62966e-14
-1.66148e-14
-1.68654e-14
-1.70621e-14
-1.70536e-14
-1.72169e-14
-1.71132e-14
-1.69644e-14
-1.68114e-14
-1.67703e-14
-1.66699e-14
-1.64911e-14
-1.62143e-14
-1.59981e-14
-1.57148e-14
-1.62921e-14
-1.62491e-14
-1.64124e-14
-1.67012e-14
-1.65731e-14
-1.67995e-14
-1.70571e-14
-1.69414e-14
-1.7167e-14
-1.73687e-14
-1.74705e-14
-1.72882e-14
-1.73053e-14
-1.71972e-14
-1.71174e-14
-1.72345e-14
-1.72528e-14
-1.69902e-14
-1.6809e-14
-1.66662e-14
-1.69929e-14
-1.70051e-14
-1.71611e-14
-1.75232e-14
-1.71505e-14
-1.71141e-14
-1.73155e-14
-1.71993e-14
-1.76118e-14
-1.75473e-14
-1.77345e-14
-1.76246e-14
-1.73753e-14
-1.76316e-14
-1.75997e-14
-1.79328e-14
-1.79019e-14
-1.77487e-14
-1.75778e-14
-1.72729e-14
-1.79774e-14
-1.7893e-14
-1.7853e-14
-1.79393e-14
-1.76584e-14
-1.7534e-14
-1.75147e-14
-1.76054e-14
-1.75986e-14
-1.79493e-14
-1.78603e-14
-1.75679e-14
-1.72103e-14
-1.79606e-14
-1.83429e-14
-1.83725e-14
-1.88196e-14
-1.85119e-14
-1.8018e-14
-1.78547e-14
-1.8593e-14
-1.86841e-14
-1.8586e-14
-1.84106e-14
-1.81586e-14
-1.80196e-14
-1.77207e-14
-1.80964e-14
-1.7884e-14
-1.78898e-14
-1.79688e-14
-1.77457e-14
-1.78449e-14
-1.86988e-14
-1.92454e-14
-1.92927e-14
-1.93007e-14
-1.92314e-14
-1.90413e-14
-1.87266e-14
-1.95598e-14
-1.93127e-14
-1.89491e-14
-1.88644e-14
-1.84929e-14
-1.86659e-14
-1.88342e-14
-1.84287e-14
-1.83809e-14
-1.8242e-14
-1.82167e-14
-1.82095e-14
-1.83987e-14
-1.91499e-14
-1.98597e-14
-2.0009e-14
-1.97724e-14
-1.97794e-14
-1.97973e-14
-1.99935e-14
-2.03399e-14
-2.02406e-14
-1.96878e-14
-1.904e-14
-1.88941e-14
-1.89567e-14
-1.89307e-14
-1.90294e-14
-1.90223e-14
-1.84521e-14
-1.8611e-14
-1.87994e-14
-1.88372e-14
-1.95681e-14
-2.03485e-14
-2.08756e-14
-2.04944e-14
-2.05624e-14
-2.05532e-14
-2.07383e-14
-2.13969e-14
-2.09458e-14
-2.06858e-14
-1.98498e-14
-1.95943e-14
-1.94921e-14
-1.91309e-14
-1.93858e-14
-1.91731e-14
-1.89049e-14
-1.87868e-14
-1.93215e-14
-1.91135e-14
-1.96166e-14
-2.09011e-14
-2.13982e-14
-2.1846e-14
-2.17269e-14
-2.14966e-14
-2.14905e-14
-2.16596e-14
-2.19377e-14
-2.17255e-14
-2.01551e-14
-2.00459e-14
-2.04397e-14
-2.00876e-14
-2.03096e-14
-1.928e-14
-1.86511e-14
-1.87926e-14
-1.96715e-14
-1.96773e-14
-2.02219e-14
-2.11074e-14
-2.1786e-14
-2.2727e-14
-2.3033e-14
-2.24528e-14
-2.17544e-14
-2.27012e-14
-2.29291e-14
-2.18913e-14
-2.0565e-14
-2.07053e-14
-2.06517e-14
-2.02122e-14
-2.08069e-14
-2.02691e-14
-1.93879e-14
-1.90568e-14
-1.99957e-14
-2.05915e-14
-2.10897e-14
-2.21093e-14
-2.25578e-14
-2.28171e-14
-2.28065e-14
-2.25688e-14
-2.25665e-14
-2.36496e-14
-2.30236e-14
-2.17629e-14
-2.13853e-14
-2.1258e-14
-2.12021e-14
-2.04235e-14
-2.08884e-14
-2.03847e-14
-1.9791e-14
-1.97509e-14
-2.04689e-14
-2.07484e-14
-2.1479e-14
-2.24906e-14
-2.26614e-14
-2.28769e-14
-2.2986e-14
-2.30849e-14
-2.32417e-14
-2.33281e-14
-2.29891e-14
-2.25333e-14
-2.15978e-14
-2.14956e-14
-2.15145e-14
-2.08694e-14
-2.05963e-14
-2.06467e-14
-1.97868e-14
-2.00366e-14
-2.08882e-14
-2.15288e-14
-2.2335e-14
-2.33668e-14
-2.28772e-14
-2.27059e-14
-2.34989e-14
-2.33843e-14
-2.36657e-14
-2.30082e-14
-2.32177e-14
-2.29662e-14
-2.24405e-14
-2.22256e-14
-2.12853e-14
-2.1258e-14
-2.10821e-14
-2.07593e-14
-2.00883e-14
-2.02569e-14
-2.10892e-14
-2.19961e-14
-2.23873e-14
-2.32624e-14
-2.30602e-14
-2.36484e-14
-2.32509e-14
-2.32869e-14
-2.35566e-14
-2.30823e-14
-2.3625e-14
-2.33518e-14
-2.24551e-14
-2.23905e-14
-2.18626e-14
-2.16462e-14
-2.13823e-14
-2.1176e-14
-1.98787e-14
-2.06037e-14
-2.11742e-14
-2.20402e-14
-2.29801e-14
-2.33441e-14
-2.32866e-14
-2.35495e-14
-2.34499e-14
-2.30536e-14
-2.31136e-14
-2.25823e-14
-2.29792e-14
-2.3349e-14
-2.26511e-14
-2.20206e-14
-2.19585e-14
-2.12956e-14
-2.08353e-14
-2.12396e-14
-2.12e-14
-2.09011e-14
-2.14557e-14
-2.28895e-14
-2.36503e-14
-2.26309e-14
-2.25141e-14
-2.35064e-14
-2.38529e-14
-2.35629e-14
-2.27619e-14
-2.26658e-14
-2.24652e-14
-2.31132e-14
-2.34978e-14
-2.19826e-14
-2.18479e-14
-2.15897e-14
-2.02372e-14
-2.10623e-14
-2.16893e-14
-2.144e-14
-2.17931e-14
-2.39463e-14
-2.30115e-14
-2.27858e-14
-2.27331e-14
-2.29251e-14
-2.38903e-14
-2.34744e-14
-2.29596e-14
)
;

boundaryField
{
    movingWall
    {
        type            zeroGradient;
    }
    fixedWalls
    {
        type            zeroGradient;
    }
    left
    {
        type            cyclic;
    }
    right
    {
        type            cyclic;
    }
    frontAndBack
    {
        type            empty;
    }
}


// ************************************************************************* //
