/*--------------------------------*- C++ -*----------------------------------*\
  =========                 |
  \\      /  F ield         | OpenFOAM: The Open Source CFD Toolbox
   \\    /   O peration     | Website:  https://openfoam.org
    \\  /    A nd           | Version:  8
     \\/     M anipulation  |
\*---------------------------------------------------------------------------*/
FoamFile
{
    version     2.0;
    format      ascii;
    class       volVectorField;
    location    "1.69";
    object      U;
}
// * * * * * * * * * * * * * * * * * * * * * * * * * * * * * * * * * * * * * //

dimensions      [0 1 -1 0 0 0 0];

internalField   nonuniform List<vector> 
400
(
(0.0249925 1.50603e-16 0)
(0.0249925 1.98635e-17 0)
(0.0249925 -6.69845e-18 0)
(0.0249925 1.56593e-18 0)
(0.0249925 9.66097e-18 0)
(0.0249925 1.39317e-17 0)
(0.0249925 1.80488e-17 0)
(0.0249925 1.68451e-17 0)
(0.0249925 1.77687e-17 0)
(0.0249925 1.93391e-17 0)
(0.0249925 2.12221e-17 0)
(0.0249925 1.91652e-17 0)
(0.0249925 1.60989e-17 0)
(0.0249925 1.49945e-17 0)
(0.0249925 1.00427e-17 0)
(0.0249925 1.08645e-17 0)
(0.0249925 9.30566e-18 0)
(0.0249925 1.7894e-18 0)
(0.0249925 -6.16008e-18 0)
(0.0249925 2.30285e-17 0)
(0.0749778 2.54854e-16 0)
(0.0749778 6.96707e-17 0)
(0.0749778 2.72274e-17 0)
(0.0749778 3.74053e-17 0)
(0.0749778 4.74635e-17 0)
(0.0749778 5.50138e-17 0)
(0.0749778 6.8931e-17 0)
(0.0749778 6.57499e-17 0)
(0.0749778 6.27829e-17 0)
(0.0749778 6.15569e-17 0)
(0.0749778 6.36797e-17 0)
(0.0749778 5.8234e-17 0)
(0.0749778 4.93218e-17 0)
(0.0749778 5.19715e-17 0)
(0.0749778 4.66861e-17 0)
(0.0749778 5.18109e-17 0)
(0.0749778 5.05608e-17 0)
(0.0749778 2.81309e-17 0)
(0.0749778 2.05383e-17 0)
(0.0749778 6.45095e-17 0)
(0.124964 4.12475e-17 0)
(0.124964 1.01327e-17 0)
(0.124964 1.87217e-17 0)
(0.124964 4.60404e-17 0)
(0.124964 6.65755e-17 0)
(0.124964 7.6431e-17 0)
(0.124964 9.00616e-17 0)
(0.124964 9.45017e-17 0)
(0.124964 9.09159e-17 0)
(0.124964 7.742e-17 0)
(0.124964 8.58994e-17 0)
(0.124964 6.52293e-17 0)
(0.124964 6.10573e-17 0)
(0.124964 5.388e-17 0)
(0.124964 6.65768e-17 0)
(0.124964 7.42322e-17 0)
(0.124964 6.4577e-17 0)
(0.124964 4.11367e-17 0)
(0.124964 1.21395e-17 0)
(0.124964 7.34382e-18 0)
(0.17495 -1.99342e-18 0)
(0.17495 -5.84347e-18 0)
(0.17495 1.78865e-17 0)
(0.17495 6.14637e-17 0)
(0.17495 6.978e-17 0)
(0.17495 8.20348e-17 0)
(0.17495 8.18676e-17 0)
(0.17495 8.97061e-17 0)
(0.17495 8.36826e-17 0)
(0.17495 7.16967e-17 0)
(0.17495 6.10606e-17 0)
(0.17495 4.11476e-17 0)
(0.17495 2.61879e-17 0)
(0.17495 2.91917e-17 0)
(0.17495 5.77278e-17 0)
(0.17495 8.28038e-17 0)
(0.17495 9.45785e-17 0)
(0.17495 9.85965e-17 0)
(0.17495 7.26152e-17 0)
(0.17495 2.80309e-17 0)
(0.224938 3.2203e-17 0)
(0.224938 1.5997e-17 0)
(0.224938 2.97327e-17 0)
(0.224938 5.66417e-17 0)
(0.224938 5.92566e-17 0)
(0.224938 6.76536e-17 0)
(0.224938 7.75222e-17 0)
(0.224938 5.66134e-17 0)
(0.224938 4.99707e-17 0)
(0.224938 4.26029e-17 0)
(0.224938 1.1392e-17 0)
(0.224938 -9.86167e-18 0)
(0.224938 -1.28973e-17 0)
(0.224938 1.1532e-17 0)
(0.224938 5.06641e-17 0)
(0.224938 1.03138e-16 0)
(0.224938 1.55808e-16 0)
(0.224938 1.70505e-16 0)
(0.224938 1.52635e-16 0)
(0.224938 9.84557e-17 0)
(0.274928 9.19288e-17 0)
(0.274928 6.4605e-17 0)
(0.274928 5.49195e-17 0)
(0.274928 4.76783e-17 0)
(0.274928 3.02568e-17 0)
(0.274928 2.65512e-17 0)
(0.274928 3.22178e-17 0)
(0.274928 2.0369e-17 0)
(0.274928 2.14778e-17 0)
(0.274928 -1.96719e-17 0)
(0.274928 -4.2885e-17 0)
(0.274928 -6.33294e-17 0)
(0.274928 -5.04221e-17 0)
(0.274928 9.86166e-19 0)
(0.274928 6.37121e-17 0)
(0.274928 1.48059e-16 0)
(0.274928 2.08896e-16 0)
(0.274928 2.26868e-16 0)
(0.274928 2.00123e-16 0)
(0.274928 1.49176e-16 0)
(0.324919 1.63804e-16 0)
(0.324919 1.13914e-16 0)
(0.324919 7.18814e-17 0)
(0.324919 1.83814e-17 0)
(0.324919 -1.2531e-17 0)
(0.324919 -3.55651e-17 0)
(0.324919 -3.41751e-17 0)
(0.324919 -1.59957e-17 0)
(0.324919 -3.80537e-17 0)
(0.324919 -6.51717e-17 0)
(0.324919 -1.10872e-16 0)
(0.324919 -1.11571e-16 0)
(0.324919 -1.08514e-16 0)
(0.324919 9.84076e-18 0)
(0.324919 1.15882e-16 0)
(0.324919 1.88169e-16 0)
(0.324919 2.62976e-16 0)
(0.324919 2.76678e-16 0)
(0.324919 2.34914e-16 0)
(0.324919 1.86285e-16 0)
(0.374912 2.14537e-16 0)
(0.374912 1.52688e-16 0)
(0.374912 6.29144e-17 0)
(0.374912 -3.18064e-17 0)
(0.374912 -6.3889e-17 0)
(0.374912 -8.05207e-17 0)
(0.374912 -9.97841e-17 0)
(0.374912 -5.38061e-17 0)
(0.374912 -1.06503e-16 0)
(0.374912 -1.27096e-16 0)
(0.374912 -1.55545e-16 0)
(0.374912 -1.47174e-16 0)
(0.374912 -6.82125e-17 0)
(0.374912 5.22646e-17 0)
(0.374912 1.77356e-16 0)
(0.374912 2.41734e-16 0)
(0.374912 2.82556e-16 0)
(0.374912 3.09543e-16 0)
(0.374912 3.02418e-16 0)
(0.374912 2.6109e-16 0)
(0.424908 2.72494e-16 0)
(0.424908 1.78737e-16 0)
(0.424908 4.54857e-17 0)
(0.424908 -5.99143e-17 0)
(0.424908 -1.3431e-16 0)
(0.424908 -1.13336e-16 0)
(0.424908 -9.36115e-17 0)
(0.424908 -1.13536e-16 0)
(0.424908 -1.23613e-16 0)
(0.424908 -1.66237e-16 0)
(0.424908 -1.65562e-16 0)
(0.424908 -1.16389e-16 0)
(0.424908 -1.35246e-17 0)
(0.424908 6.98628e-17 0)
(0.424908 1.88269e-16 0)
(0.424908 2.62312e-16 0)
(0.424908 2.72445e-16 0)
(0.424908 3.10842e-16 0)
(0.424908 3.50473e-16 0)
(0.424908 3.57622e-16 0)
(0.474905 3.08664e-16 0)
(0.474905 2.12655e-16 0)
(0.474905 5.31245e-17 0)
(0.474905 -9.68156e-17 0)
(0.474905 -1.66113e-16 0)
(0.474905 -1.7241e-16 0)
(0.474905 -1.3412e-16 0)
(0.474905 -1.46474e-16 0)
(0.474905 -1.33603e-16 0)
(0.474905 -1.68133e-16 0)
(0.474905 -1.39406e-16 0)
(0.474905 -6.36066e-17 0)
(0.474905 -1.81171e-17 0)
(0.474905 5.539e-17 0)
(0.474905 1.50414e-16 0)
(0.474905 2.59522e-16 0)
(0.474905 2.81876e-16 0)
(0.474905 3.18913e-16 0)
(0.474905 3.43064e-16 0)
(0.474905 3.77651e-16 0)
(0.524905 3.03657e-16 0)
(0.524905 2.03023e-16 0)
(0.524905 9.76365e-17 0)
(0.524905 -7.98281e-17 0)
(0.524905 -1.38226e-16 0)
(0.524905 -1.78835e-16 0)
(0.524905 -2.15077e-16 0)
(0.524905 -1.65596e-16 0)
(0.524905 -1.73529e-16 0)
(0.524905 -1.5953e-16 0)
(0.524905 -1.0258e-16 0)
(0.524905 -1.93977e-17 0)
(0.524905 1.44999e-17 0)
(0.524905 4.04552e-17 0)
(0.524905 1.37358e-16 0)
(0.524905 2.36877e-16 0)
(0.524905 3.36056e-16 0)
(0.524905 3.60549e-16 0)
(0.524905 3.44111e-16 0)
(0.524905 3.10559e-16 0)
(0.574908 2.01092e-16 0)
(0.574908 1.54309e-16 0)
(0.574908 8.29436e-17 0)
(0.574908 -6.45443e-17 0)
(0.574908 -1.21158e-16 0)
(0.574908 -1.31336e-16 0)
(0.574908 -1.58846e-16 0)
(0.574908 -1.56321e-16 0)
(0.574908 -1.93917e-16 0)
(0.574908 -1.55283e-16 0)
(0.574908 -8.136e-17 0)
(0.574908 5.13228e-17 0)
(0.574908 9.14332e-17 0)
(0.574908 1.04586e-16 0)
(0.574908 1.49396e-16 0)
(0.574908 1.96312e-16 0)
(0.574908 3.37644e-16 0)
(0.574908 3.67182e-16 0)
(0.574908 3.22421e-16 0)
(0.574908 2.25006e-16 0)
(0.624912 1.02733e-16 0)
(0.624912 8.36842e-17 0)
(0.624912 -3.62685e-17 0)
(0.624912 -1.19075e-16 0)
(0.624912 -1.34003e-16 0)
(0.624912 -1.53855e-16 0)
(0.624912 -1.68905e-16 0)
(0.624912 -1.20683e-16 0)
(0.624912 -1.08976e-16 0)
(0.624912 -7.77158e-17 0)
(0.624912 -2.65316e-18 0)
(0.624912 1.18409e-16 0)
(0.624912 2.13944e-16 0)
(0.624912 2.45411e-16 0)
(0.624912 2.34497e-16 0)
(0.624912 2.39938e-16 0)
(0.624912 2.31468e-16 0)
(0.624912 2.40406e-16 0)
(0.624912 2.01845e-16 0)
(0.624912 1.59655e-16 0)
(0.674919 6.147e-17 0)
(0.674919 -5.95421e-17 0)
(0.674919 -1.80221e-16 0)
(0.674919 -1.33447e-16 0)
(0.674919 -1.61698e-16 0)
(0.674919 -1.97989e-16 0)
(0.674919 -2.27114e-16 0)
(0.674919 -1.77628e-16 0)
(0.674919 -6.33353e-17 0)
(0.674919 2.79225e-17 0)
(0.674919 1.09535e-16 0)
(0.674919 1.80215e-16 0)
(0.674919 2.68483e-16 0)
(0.674919 3.15537e-16 0)
(0.674919 3.212e-16 0)
(0.674919 2.70554e-16 0)
(0.674919 1.74341e-16 0)
(0.674919 1.20422e-16 0)
(0.674919 1.23577e-16 0)
(0.674919 1.00798e-16 0)
(0.724928 -6.44233e-17 0)
(0.724928 -1.79122e-16 0)
(0.724928 -1.8259e-16 0)
(0.724928 -1.76158e-16 0)
(0.724928 -1.97784e-16 0)
(0.724928 -2.41357e-16 0)
(0.724928 -2.52122e-16 0)
(0.724928 -2.48067e-16 0)
(0.724928 -1.05162e-16 0)
(0.724928 1.12867e-17 0)
(0.724928 1.48715e-16 0)
(0.724928 2.37798e-16 0)
(0.724928 3.21908e-16 0)
(0.724928 3.64386e-16 0)
(0.724928 3.8283e-16 0)
(0.724928 2.6941e-16 0)
(0.724928 1.65858e-16 0)
(0.724928 1.47383e-16 0)
(0.724928 8.30678e-17 0)
(0.724928 3.81889e-17 0)
(0.774938 -1.57664e-16 0)
(0.774938 -1.65927e-16 0)
(0.774938 -1.3019e-16 0)
(0.774938 -1.56839e-16 0)
(0.774938 -1.78876e-16 0)
(0.774938 -2.84768e-16 0)
(0.774938 -2.78086e-16 0)
(0.774938 -2.5223e-16 0)
(0.774938 -1.3327e-16 0)
(0.774938 -2.55458e-18 0)
(0.774938 1.23706e-16 0)
(0.774938 2.35391e-16 0)
(0.774938 3.6918e-16 0)
(0.774938 4.0044e-16 0)
(0.774938 3.60436e-16 0)
(0.774938 2.79672e-16 0)
(0.774938 2.26523e-16 0)
(0.774938 9.80319e-17 0)
(0.774938 1.39723e-17 0)
(0.774938 -3.33771e-17 0)
(0.82495 -1.13039e-16 0)
(0.82495 -8.87551e-17 0)
(0.82495 -9.83938e-17 0)
(0.82495 -7.48219e-17 0)
(0.82495 -1.26698e-16 0)
(0.82495 -2.1995e-16 0)
(0.82495 -2.4106e-16 0)
(0.82495 -2.17305e-16 0)
(0.82495 -1.09408e-16 0)
(0.82495 -3.97967e-17 0)
(0.82495 8.74848e-17 0)
(0.82495 1.9062e-16 0)
(0.82495 3.06836e-16 0)
(0.82495 3.66391e-16 0)
(0.82495 2.77421e-16 0)
(0.82495 2.44174e-16 0)
(0.82495 1.8931e-16 0)
(0.82495 4.09158e-17 0)
(0.82495 -2.26203e-17 0)
(0.82495 -9.31798e-17 0)
(0.874964 -6.52364e-17 0)
(0.874964 -9.37111e-17 0)
(0.874964 -2.4596e-17 0)
(0.874964 -1.1343e-17 0)
(0.874964 -7.38283e-17 0)
(0.874964 -1.23387e-16 0)
(0.874964 -2.16992e-16 0)
(0.874964 -2.20741e-16 0)
(0.874964 -9.04015e-17 0)
(0.874964 3.848e-17 0)
(0.874964 6.7882e-17 0)
(0.874964 1.26538e-16 0)
(0.874964 2.70291e-16 0)
(0.874964 3.20063e-16 0)
(0.874964 1.57739e-16 0)
(0.874964 9.05425e-17 0)
(0.874964 5.76467e-17 0)
(0.874964 5.91797e-17 0)
(0.874964 2.74725e-18 0)
(0.874964 -6.53835e-17 0)
(0.924978 -3.82738e-17 0)
(0.924978 -9.20597e-17 0)
(0.924978 -2.7785e-18 0)
(0.924978 1.19586e-16 0)
(0.924978 2.89695e-18 0)
(0.924978 -7.04667e-17 0)
(0.924978 -1.42928e-16 0)
(0.924978 -2.1057e-16 0)
(0.924978 -9.25521e-17 0)
(0.924978 1.05969e-16 0)
(0.924978 6.95073e-17 0)
(0.924978 8.84188e-17 0)
(0.924978 2.25916e-16 0)
(0.924978 1.399e-16 0)
(0.924978 6.50733e-17 0)
(0.924978 9.76033e-18 0)
(0.924978 -2.94414e-17 0)
(0.924978 1.54733e-17 0)
(0.924978 2.02627e-17 0)
(0.924978 3.01415e-18 0)
(0.974993 8.88264e-20 0)
(0.974993 -3.57938e-17 0)
(0.974993 6.32114e-18 0)
(0.974993 9.58495e-17 0)
(0.974993 2.90235e-17 0)
(0.974993 -2.02869e-17 0)
(0.974993 -4.04511e-17 0)
(0.974993 -9.23814e-17 0)
(0.974993 -3.34831e-17 0)
(0.974993 2.2236e-17 0)
(0.974993 2.9327e-17 0)
(0.974993 2.55598e-17 0)
(0.974993 7.44832e-17 0)
(0.974993 5.9518e-18 0)
(0.974993 3.43006e-17 0)
(0.974993 1.64712e-17 0)
(0.974993 -3.89131e-17 0)
(0.974993 -1.68109e-17 0)
(0.974993 -9.24722e-18 0)
(0.974993 1.78289e-17 0)
)
;

boundaryField
{
    movingWall
    {
        type            fixedValue;
        value           uniform (1 0 0);
    }
    fixedWalls
    {
        type            noSlip;
    }
    left
    {
        type            cyclic;
    }
    right
    {
        type            cyclic;
    }
    frontAndBack
    {
        type            empty;
    }
}


// ************************************************************************* //
