/*--------------------------------*- C++ -*----------------------------------*\
  =========                 |
  \\      /  F ield         | OpenFOAM: The Open Source CFD Toolbox
   \\    /   O peration     | Website:  https://openfoam.org
    \\  /    A nd           | Version:  8
     \\/     M anipulation  |
\*---------------------------------------------------------------------------*/
FoamFile
{
    version     2.0;
    format      ascii;
    class       volScalarField;
    location    "38";
    object      p;
}
// * * * * * * * * * * * * * * * * * * * * * * * * * * * * * * * * * * * * * //

dimensions      [0 2 -2 0 0 0 0];

internalField   nonuniform List<scalar> 
12504
(
0.322704
0.319632
0.313172
0.303311
0.290315
0.274533
0.256344
0.236178
0.214517
0.19187
0.168734
0.145571
0.12278
0.100684
0.0795283
0.0594868
0.0406759
0.023167
0.0069984
-0.00781592
-0.0212796
-0.0334093
-0.04423
-0.0537733
-0.0620741
-0.0691717
-0.0751059
-0.0799206
-0.0836582
-0.0863669
-0.0880906
-0.0888817
-0.0887846
-0.0878577
-0.0861445
-0.0837113
-0.0805963
-0.0768762
-0.0725784
-0.0677964
-0.0625358
-0.0569174
-0.050907
-0.0446737
-0.0381118
-0.031479
-0.0245419
-0.0177212
-0.0105557
-0.00377125
0.324915
0.321777
0.315172
0.305093
0.291818
0.275711
0.257166
0.236635
0.214618
0.191645
0.168229
0.144842
0.121885
0.0996774
0.0784566
0.0583863
0.0395729
0.0220798
0.00593934
-0.00883931
-0.0222631
-0.0343511
-0.0451297
-0.0546316
-0.0628919
-0.0699504
-0.0758467
-0.0806249
-0.084327
-0.0870012
-0.0886908
-0.0894485
-0.0893182
-0.0883581
-0.0866117
-0.0841456
-0.0809972
-0.0772443
-0.0729132
-0.068099
-0.0628055
-0.0571562
-0.0511135
-0.0448513
-0.0382582
-0.0315994
-0.0246315
-0.0177886
-0.010591
-0.00378925
0.329392
0.326114
0.319215
0.308692
0.294849
0.278077
0.258806
0.237528
0.214786
0.19115
0.167167
0.143329
0.120043
0.0976181
0.0762737
0.056152
0.0373392
0.0198824
0.00380177
-0.0109027
-0.0242445
-0.0362475
-0.0469407
-0.0563587
-0.0645375
-0.0715172
-0.0773373
-0.082042
-0.0856728
-0.0882775
-0.0898989
-0.0905894
-0.090392
-0.0893653
-0.0875522
-0.0850195
-0.0818042
-0.0779849
-0.0735871
-0.0687073
-0.0633482
-0.0576353
-0.0515293
-0.0452068
-0.0385537
-0.0318386
-0.0248141
-0.0179191
-0.0106675
-0.00381691
0.336234
0.332739
0.325384
0.314176
0.299451
0.281647
0.26125
0.238811
0.214947
0.190291
0.165443
0.140926
0.117152
0.094416
0.0729033
0.0527208
0.0339231
0.0165323
0.000550445
-0.0140358
-0.0272495
-0.039121
-0.0496835
-0.0589736
-0.0670284
-0.0738886
-0.0795936
-0.0841872
-0.0877102
-0.09021
-0.0917282
-0.092317
-0.0920185
-0.0908909
-0.0889766
-0.0863431
-0.0830262
-0.0791059
-0.0746068
-0.0696273
-0.0641686
-0.0583591
-0.0521571
-0.0457431
-0.0389989
-0.0321986
-0.0250889
-0.0181148
-0.010783
-0.00385724
0.345599
0.3418
0.333813
0.321649
0.305694
0.286448
0.264473
0.240413
0.214983
0.188913
0.162882
0.137455
0.11305
0.0899282
0.0682253
0.0479938
0.0292429
0.0119618
-0.00387134
-0.0182869
-0.0313202
-0.0430095
-0.0533925
-0.0625082
-0.0703948
-0.0770934
-0.0826429
-0.0870868
-0.0904646
-0.0928229
-0.0942022
-0.0946539
-0.0942187
-0.0929548
-0.0909036
-0.0881333
-0.0846786
-0.0806214
-0.0759846
-0.0708697
-0.0652756
-0.0593351
-0.0530026
-0.0464645
-0.0395969
-0.0326816
-0.0254567
-0.0183766
-0.0109372
-0.00391168
0.357704
0.353506
0.344684
0.33126
0.313675
0.292513
0.268437
0.242218
0.214713
0.186787
0.159228
0.132662
0.107501
0.0839525
0.062072
0.0418335
0.023186
0.00607726
-0.00954256
-0.0237242
-0.0365168
-0.0479673
-0.0581177
-0.0670093
-0.0746809
-0.0811736
-0.0865257
-0.0907796
-0.0939733
-0.0961523
-0.0973554
-0.0976331
-0.0970241
-0.0955867
-0.0933607
-0.0904155
-0.0867843
-0.0825516
-0.0777383
-0.0724499
-0.0666821
-0.0605737
-0.0540739
-0.0473773
-0.040352
-0.0332904
-0.0259188
-0.0187055
-0.0111298
-0.0039813
0.372838
0.36813
0.358243
0.343202
0.323519
0.29988
0.273079
0.24406
0.213873
0.183578
0.154116
0.126186
0.100182
0.0762158
0.0542205
0.0340592
0.0156039
-0.00124512
-0.0165686
-0.0304394
-0.0429215
-0.0540697
-0.0639294
-0.0725431
-0.0799497
-0.0861897
-0.0912999
-0.0953214
-0.09829
-0.10025
-0.101237
-0.101302
-0.100479
-0.0988287
-0.096387
-0.0932255
-0.0893758
-0.0849258
-0.0798934
-0.0743899
-0.0684065
-0.0620901
-0.0553829
-0.0484908
-0.0412703
-0.0340294
-0.0264773
-0.0191029
-0.0113606
-0.00406745
0.391369
0.386021
0.3748
0.357725
0.335388
0.308592
0.278302
0.24569
0.21208
0.178806
0.147027
0.117531
0.0906578
0.0663608
0.0443836
0.0244385
0.00630516
-0.0101661
-0.0250876
-0.0385548
-0.0506454
-0.0614199
-0.0709246
-0.0792017
-0.0862891
-0.0922259
-0.0970466
-0.10079
-0.10349
-0.105188
-0.105917
-0.105725
-0.104647
-0.102739
-0.100036
-0.0966127
-0.0924978
-0.0877835
-0.0824848
-0.0767193
-0.0704738
-0.0639047
-0.0569459
-0.0498171
-0.0423605
-0.0349047
-0.0271351
-0.0195707
-0.0116296
-0.00417169
0.413755
0.407615
0.394751
0.375144
0.349483
0.318694
0.283953
0.246746
0.208773
0.171774
0.137223
0.10601
0.0783508
0.0539278
0.0321999
0.0126798
-0.00495263
-0.020892
-0.0352793
-0.0482317
-0.0598372
-0.0701571
-0.0792349
-0.0871105
-0.0938188
-0.0993969
-0.103876
-0.107292
-0.109674
-0.111062
-0.111486
-0.110992
-0.109609
-0.107395
-0.104379
-0.100641
-0.0962078
-0.0911757
-0.0855568
-0.0794764
-0.0729159
-0.0660436
-0.0587833
-0.0513719
-0.043634
-0.0359235
-0.0278965
-0.020111
-0.0119369
-0.00429513
0.440563
0.433455
0.418589
0.395858
0.366058
0.330222
0.289797
0.246691
0.203133
0.161471
0.123646
0.0906633
0.0624832
0.0383267
0.0172195
-0.00157684
-0.0184706
-0.033682
-0.0473735
-0.0596797
-0.0706916
-0.0804642
-0.089033
-0.0964326
-0.102694
-0.10785
-0.111927
-0.114958
-0.116968
-0.117993
-0.118058
-0.117207
-0.115466
-0.112886
-0.109498
-0.105386
-0.100573
-0.0951615
-0.0891605
-0.0827039
-0.0757688
-0.0685354
-0.0609184
-0.0531722
-0.0451035
-0.0370939
-0.0287666
-0.0207253
-0.012283
-0.00443699
0.47248
0.464203
0.446928
0.420365
0.385435
0.343193
0.295461
0.244708
0.193934
0.146421
0.10479
0.0701591
0.0420116
0.0187923
-0.00112537
-0.0187769
-0.0346157
-0.0488501
-0.0616492
-0.0731544
-0.0834461
-0.0925617
-0.100523
-0.107358
-0.11309
-0.117748
-0.121352
-0.12393
-0.125502
-0.1261
-0.125746
-0.124477
-0.122313
-0.119299
-0.115471
-0.110916
-0.105654
-0.0997927
-0.0933403
-0.0864384
-0.0790625
-0.0714033
-0.0633695
-0.0552307
-0.0467791
-0.0384207
-0.0297498
-0.0214128
-0.0126685
-0.00459215
0.510329
0.500666
0.48053
0.449302
0.408029
0.357591
0.300352
0.239484
0.179238
0.124398
0.0785198
0.0427234
0.0156182
-0.00561772
-0.0235323
-0.0394604
-0.0538145
-0.0667422
-0.0784012
-0.0889163
-0.0983325
-0.106654
-0.113884
-0.120039
-0.125139
-0.129202
-0.132244
-0.134285
-0.135341
-0.135439
-0.134598
-0.13285
-0.130181
-0.126658
-0.122321
-0.117249
-0.111466
-0.105079
-0.0981028
-0.0906829
-0.0827983
-0.0746458
-0.0661352
-0.0575434
-0.0486592
-0.0398988
-0.0308452
-0.0221664
-0.0130929
-0.00474825
0.555079
0.543818
0.520332
0.483494
0.434398
0.373384
0.303597
0.228957
0.155859
0.0917902
0.0416175
0.00600997
-0.0181935
-0.0358623
-0.0506923
-0.0641494
-0.0764416
-0.0876167
-0.0978065
-0.107082
-0.115415
-0.122759
-0.129093
-0.134423
-0.138757
-0.142108
-0.144481
-0.14589
-0.146343
-0.145867
-0.144469
-0.142169
-0.138923
-0.13483
-0.129922
-0.124271
-0.117902
-0.110926
-0.103363
-0.0953621
-0.086911
-0.0782058
-0.0691691
-0.0600702
-0.0507144
-0.0415021
-0.032039
-0.0229684
-0.0135523
-0.00488413
0.607835
0.594817
0.567471
0.52402
0.465264
0.390507
0.303915
0.210055
0.118812
0.0426403
-0.011186
-0.0433822
-0.0610506
-0.0725874
-0.0828649
-0.0929074
-0.102403
-0.111259
-0.119558
-0.127264
-0.134234
-0.140358
-0.14559
-0.149919
-0.153342
-0.155858
-0.157463
-0.158161
-0.157949
-0.156853
-0.154881
-0.151917
-0.148071
-0.143394
-0.137893
-0.131636
-0.124655
-0.117061
-0.108885
-0.100271
-0.0912271
-0.0819383
-0.0723525
-0.0627152
-0.0528721
-0.0431728
-0.0332947
-0.0237864
-0.0140365
-0.00497332
0.669821
0.655022
0.623339
0.572315
0.501493
0.408736
0.298992
0.177623
0.0609573
-0.0315933
-0.0877212
-0.110239
-0.114587
-0.115642
-0.119092
-0.124379
-0.130169
-0.136099
-0.142084
-0.147876
-0.153192
-0.157862
-0.161813
-0.165014
-0.167439
-0.169071
-0.169888
-0.16988
-0.169043
-0.167348
-0.164697
-0.161186
-0.156818
-0.151607
-0.14556
-0.138743
-0.131195
-0.123022
-0.114267
-0.10507
-0.0954592
-0.0856054
-0.0754914
-0.0653244
-0.0550125
-0.0448215
-0.0345497
-0.0245754
-0.0145263
-0.00499415
0.742328
0.72596
0.689725
0.630368
0.544216
0.427428
0.284021
0.120629
-0.028563
-0.140034
-0.194498
-0.197432
-0.178323
-0.162583
-0.155736
-0.154291
-0.155385
-0.158046
-0.161633
-0.165495
-0.169175
-0.172447
-0.175206
-0.177388
-0.178945
-0.179837
-0.180021
-0.179451
-0.178076
-0.175884
-0.172851
-0.168971
-0.164221
-0.15861
-0.15215
-0.144904
-0.136912
-0.128274
-0.119047
-0.109364
-0.0992741
-0.0889321
-0.0783593
-0.0677199
-0.0569932
-0.0463458
-0.0357252
-0.0252886
-0.0149937
-0.0049402
0.826593
0.809229
0.769066
0.701194
0.595755
0.445726
0.250479
0.0194972
-0.171962
-0.290626
-0.326892
-0.295525
-0.242964
-0.20524
-0.185309
-0.175852
-0.172258
-0.1723
-0.174267
-0.176929
-0.17962
-0.182049
-0.184079
-0.185634
-0.186656
-0.187099
-0.186909
-0.186025
-0.184352
-0.181931
-0.178706
-0.174629
-0.16967
-0.163839
-0.157147
-0.149645
-0.141376
-0.132434
-0.122885
-0.112855
-0.102415
-0.0917034
-0.0807756
-0.0697593
-0.0586958
-0.0476644
-0.0367497
-0.0258935
-0.0154065
-0.00482033
0.923435
0.906251
0.864577
0.789525
0.662043
0.465802
0.184674
-0.140494
-0.326688
-0.436053
-0.436013
-0.366743
-0.283641
-0.229849
-0.202401
-0.188256
-0.182028
-0.180535
-0.181393
-0.183175
-0.185196
-0.187124
-0.188774
-0.190035
-0.190827
-0.191083
-0.190742
-0.189743
-0.188072
-0.185596
-0.18231
-0.178173
-0.173156
-0.167258
-0.160484
-0.152879
-0.144485
-0.13539
-0.125668
-0.115436
-0.10478
-0.0938266
-0.0826572
-0.0713743
-0.0600596
-0.0487373
-0.0375798
-0.0263799
-0.0157318
-0.00464659
1.03253
1.01776
0.979603
0.90194
0.755519
0.500505
0.165131
-0.229528
-0.520182
-0.603836
-0.563423
-0.424893
-0.308703
-0.243534
-0.203717
-0.189043
-0.183444
-0.18253
-0.1837
-0.185594
-0.187612
-0.189477
-0.191037
-0.192202
-0.192903
-0.193084
-0.192685
-0.19165
-0.189918
-0.187443
-0.184162
-0.180023
-0.175016
-0.169132
-0.162368
-0.15476
-0.146352
-0.137222
-0.127447
-0.117135
-0.106383
-0.0953074
-0.0840025
-0.0725595
-0.0610758
-0.0495576
-0.0382012
-0.0267503
-0.0159353
-0.00442306
1.15152
1.1429
1.11549
1.04632
0.893895
0.609194
0.176142
-0.277163
-0.610916
-0.31886
-0.245144
-0.208555
-0.18961
-0.184752
-0.183897
-0.185008
-0.186794
-0.188693
-0.190442
-0.191896
-0.192968
-0.193589
-0.193702
-0.193249
-0.192174
-0.19042
-0.187929
-0.184648
-0.180551
-0.175584
-0.169752
-0.163049
-0.155505
-0.147159
-0.138082
-0.128348
-0.118058
-0.107309
-0.0962113
-0.0848635
-0.0733523
-0.0617736
-0.0501413
-0.0386255
-0.0270125
-0.0159923
-0.00415237
1.27541
1.27769
1.26898
1.22994
1.08199
0.770017
0.284401
-0.239159
-0.206118
-0.190378
-0.183708
-0.183361
-0.184605
-0.186429
-0.188336
-0.190081
-0.191525
-0.192577
-0.193172
-0.193253
-0.192768
-0.191665
-0.189891
-0.187396
-0.184131
-0.180058
-0.175154
-0.169397
-0.162786
-0.155348
-0.14712
-0.138161
-0.128542
-0.118353
-0.107688
-0.0966503
-0.0853354
-0.0738282
-0.0622163
-0.0505295
-0.0388918
-0.0271827
-0.0159347
-0.0038272
1.39667
1.41295
1.43462
1.44071
1.32246
1.01753
-0.202802
-0.18617
-0.180392
-0.180864
-0.182527
-0.184644
-0.186765
-0.188667
-0.190219
-0.191338
-0.191967
-0.192057
-0.191564
-0.190445
-0.188657
-0.186156
-0.182904
-0.178867
-0.174016
-0.168357
-0.161853
-0.154552
-0.146481
-0.13769
-0.128242
-0.118215
-0.107697
-0.0967806
-0.0855557
-0.0741038
-0.062503
-0.0507962
-0.0390699
-0.0272994
-0.0159172
-0.00333246
1.50391
1.5363
1.59294
1.65416
1.58717
1.35261
-0.179256
-0.175531
-0.177022
-0.179397
-0.182032
-0.18453
-0.186703
-0.188441
-0.189681
-0.190379
-0.190498
-0.190007
-0.188874
-0.187066
-0.184551
-0.181302
-0.177292
-0.172501
-0.166937
-0.16055
-0.153407
-0.145521
-0.136933
-0.127695
-0.117876
-0.107549
-0.0967965
-0.0856987
-0.0743317
-0.0627651
-0.0510489
-0.0392653
-0.0274627
-0.0156284
-0.00335466
1.58494
1.63142
1.72069
1.8356
1.83893
1.72258
-0.174867
-0.170441
-0.173106
-0.17629
-0.179492
-0.18239
-0.184841
-0.186765
-0.188117
-0.188871
-0.189003
-0.188496
-0.18733
-0.185483
-0.182937
-0.179673
-0.175674
-0.170925
-0.1654
-0.159181
-0.152213
-0.144529
-0.136164
-0.127163
-0.117578
-0.10747
-0.096905
-0.0859512
-0.0746779
-0.0631474
-0.0514149
-0.0395844
-0.0277187
-0.0154779
-0.00324219
1.62869
1.68343
1.79233
1.93866
2.01596
-0.16198
-0.16731
-0.170705
-0.174395
-0.177954
-0.181098
-0.183707
-0.185721
-0.18711
-0.187857
-0.187951
-0.187384
-0.186146
-0.184228
-0.181622
-0.17832
-0.174312
-0.169594
-0.164164
-0.158049
-0.151242
-0.14376
-0.135626
-0.126871
-0.117531
-0.107651
-0.0972786
-0.0864676
-0.0752797
-0.0637706
-0.0520018
-0.0401008
-0.0281225
-0.015554
-0.00320003
1.62868
1.68342
1.79232
1.93865
2.05244
-0.158474
-0.167378
-0.170773
-0.174459
-0.178003
-0.181118
-0.183682
-0.185633
-0.18694
-0.187589
-0.187571
-0.186884
-0.185527
-0.183498
-0.180799
-0.17743
-0.173395
-0.168692
-0.163328
-0.157318
-0.150664
-0.143375
-0.135465
-0.12695
-0.117849
-0.108189
-0.0980004
-0.08732
-0.0762009
-0.0646915
-0.0528584
-0.0408392
-0.0287003
-0.0159314
-0.00331185
1.58492
1.63139
1.72066
1.83557
1.94207
-0.164027
-0.17066
-0.173322
-0.176489
-0.179645
-0.182458
-0.184774
-0.186508
-0.187617
-0.188076
-0.187877
-0.187016
-0.185496
-0.183323
-0.180503
-0.177046
-0.172961
-0.168256
-0.162941
-0.157024
-0.150509
-0.143398
-0.135695
-0.127401
-0.11852
-0.109067
-0.0990477
-0.0884839
-0.0774088
-0.0658765
-0.053954
-0.0417719
-0.0294248
-0.016588
-0.0035666
1.50387
1.53626
1.59289
1.65411
1.71157
1.64492
-0.17544
-0.175922
-0.177408
-0.179751
-0.182307
-0.18466
-0.186608
-0.188034
-0.188872
-0.189088
-0.188665
-0.187599
-0.185893
-0.183556
-0.180603
-0.177048
-0.172905
-0.168188
-0.162908
-0.15707
-0.150678
-0.143722
-0.136205
-0.128115
-0.119436
-0.110151
-0.100269
-0.0897947
-0.0787525
-0.0671896
-0.0551709
-0.0428174
-0.0302182
-0.0174171
-0.00387202
1.39661
1.41289
1.43455
1.44064
1.44656
1.28583
-0.183393
-0.180981
-0.181445
-0.18306
-0.185061
-0.186978
-0.188565
-0.189684
-0.190253
-0.190225
-0.18958
-0.18831
-0.186423
-0.18393
-0.18085
-0.177202
-0.173004
-0.168272
-0.163022
-0.157251
-0.15097
-0.14416
-0.136798
-0.128866
-0.120344
-0.111205
-0.101438
-0.0910362
-0.0800183
-0.068429
-0.0563252
-0.0438369
-0.0309622
-0.0183181
-0.00408877
1.27533
1.27761
1.2689
1.22985
1.19095
0.878542
0.540924
-0.201116
-0.190102
-0.184501
-0.184147
-0.185328
-0.187
-0.188641
-0.189988
-0.190886
-0.19125
-0.191032
-0.190208
-0.188774
-0.18674
-0.184121
-0.180941
-0.177222
-0.172983
-0.16824
-0.163031
-0.157335
-0.151138
-0.144434
-0.137201
-0.129402
-0.121008
-0.111982
-0.102304
-0.091962
-0.080969
-0.0693714
-0.0572113
-0.0446599
-0.0316393
-0.018838
-0.00472197
1.15143
1.1428
1.11539
1.04621
0.893766
0.673222
0.186473
-0.208899
-0.24456
-0.210485
-0.190523
-0.185724
-0.184868
-0.185901
-0.187502
-0.189078
-0.190348
-0.191158
-0.191424
-0.191101
-0.190173
-0.188638
-0.186513
-0.183818
-0.180577
-0.176818
-0.172575
-0.167865
-0.162677
-0.157034
-0.150921
-0.144313
-0.137183
-0.129486
-0.12119
-0.112248
-0.102643
-0.0923536
-0.0813964
-0.0698206
-0.0576518
-0.0451124
-0.0320206
-0.0192535
-0.00518642
1.03243
1.01765
0.979489
0.901813
0.755369
0.500324
0.162589
-0.317547
-0.554765
-0.444347
-0.314599
-0.250719
-0.204643
-0.190048
-0.184529
-0.183621
-0.184697
-0.186371
-0.188016
-0.189334
-0.190168
-0.190437
-0.190101
-0.18915
-0.18759
-0.185443
-0.182726
-0.179489
-0.175741
-0.171513
-0.166835
-0.161709
-0.156133
-0.150097
-0.143568
-0.13652
-0.128901
-0.120682
-0.111808
-0.102271
-0.0920416
-0.0811466
-0.0696357
-0.057527
-0.0450768
-0.0320462
-0.0193777
-0.00554069
0.923325
0.906137
0.864454
0.789387
0.661881
0.465603
0.184419
-0.140845
-0.423278
-0.551032
-0.509259
-0.398436
-0.284531
-0.230736
-0.203328
-0.189277
-0.18313
-0.181633
-0.182374
-0.183901
-0.185504
-0.186834
-0.187705
-0.188019
-0.187728
-0.186821
-0.1853
-0.183215
-0.180567
-0.177367
-0.173679
-0.169529
-0.164927
-0.159883
-0.154385
-0.148429
-0.141974
-0.135002
-0.12745
-0.119305
-0.1105
-0.101046
-0.0909039
-0.0801204
-0.0687333
-0.0567795
-0.0444977
-0.0316895
-0.019165
-0.0057776
0.826476
0.809108
0.768937
0.70105
0.595589
0.445525
0.250229
0.0191742
-0.172381
-0.291162
-0.327542
-0.296262
-0.243748
-0.206048
-0.186159
-0.176773
-0.17323
-0.173241
-0.17506
-0.177435
-0.179681
-0.181491
-0.182731
-0.183343
-0.183304
-0.182622
-0.181306
-0.179362
-0.176837
-0.173794
-0.170263
-0.166264
-0.161799
-0.156883
-0.151499
-0.14565
-0.139289
-0.132411
-0.124945
-0.116898
-0.108192
-0.0988665
-0.0888646
-0.0782692
-0.0670842
-0.0554031
-0.0433771
-0.0309602
-0.0186555
-0.00590078
0.742207
0.725835
0.689592
0.630222
0.54405
0.427233
0.283787
0.120341
-0.0289178
-0.14047
-0.195018
-0.198021
-0.178956
-0.163242
-0.156424
-0.155011
-0.15611
-0.158702
-0.162115
-0.165675
-0.168908
-0.171578
-0.173583
-0.17488
-0.175455
-0.17532
-0.174492
-0.173005
-0.170901
-0.168212
-0.164979
-0.161257
-0.157045
-0.152356
-0.14717
-0.141499
-0.135295
-0.128568
-0.121246
-0.113357
-0.104817
-0.0956971
-0.0859186
-0.0756123
-0.064726
-0.0534452
-0.0417735
-0.0298973
-0.0179202
-0.00592328
0.669699
0.654896
0.623207
0.572171
0.501333
0.408553
0.298778
0.17737
0.0606564
-0.0319495
-0.0881334
-0.110697
-0.115075
-0.116144
-0.119598
-0.124876
-0.130625
-0.136454
-0.142247
-0.147737
-0.152628
-0.156745
-0.160018
-0.162434
-0.164003
-0.164751
-0.164713
-0.16394
-0.162497
-0.160444
-0.157691
-0.154387
-0.150552
-0.146208
-0.141329
-0.135934
-0.129978
-0.123489
-0.116397
-0.108754
-0.100472
-0.0916531
-0.0821958
-0.0722842
-0.0617975
-0.0510281
-0.0398101
-0.0285759
-0.017041
-0.00585255
0.607713
0.594693
0.567341
0.523881
0.465112
0.390337
0.303722
0.209834
0.118559
0.0423516
-0.0115085
-0.043731
-0.0614127
-0.0729471
-0.083206
-0.0932099
-0.102635
-0.111367
-0.119469
-0.126888
-0.133472
-0.139108
-0.143756
-0.147421
-0.150128
-0.151916
-0.152826
-0.152913
-0.152227
-0.150835
-0.148836
-0.146114
-0.142757
-0.138843
-0.134357
-0.129321
-0.123696
-0.117525
-0.110746
-0.10343
-0.0954872
-0.0870507
-0.077997
-0.0685579
-0.0585493
-0.0483568
-0.0376682
-0.0271119
-0.0161061
-0.00569749
0.55496
0.543696
0.520206
0.483361
0.434255
0.373229
0.303426
0.228767
0.155648
0.0915593
0.0413694
0.00575206
-0.0184495
-0.036101
-0.0508957
-0.0642952
-0.0764986
-0.0875399
-0.0975364
-0.106548
-0.114539
-0.121463
-0.127305
-0.132085
-0.135834
-0.138597
-0.140416
-0.141347
-0.141438
-0.140759
-0.139355
-0.137269
-0.134458
-0.131016
-0.126956
-0.122315
-0.117063
-0.111254
-0.104832
-0.0978873
-0.0903311
-0.0823173
-0.0737091
-0.0647713
-0.0552759
-0.0456681
-0.0355404
-0.0256353
-0.0151959
-0.00547864
0.510214
0.500549
0.48041
0.449177
0.407896
0.357451
0.300202
0.239322
0.179066
0.124217
0.0783344
0.0425415
0.0154508
-0.00575572
-0.0236228
-0.0394812
-0.0537365
-0.0665272
-0.0780012
-0.0882757
-0.0973916
-0.105354
-0.112171
-0.117874
-0.122499
-0.126091
-0.128694
-0.130362
-0.131144
-0.131098
-0.130264
-0.128692
-0.126408
-0.123432
-0.119788
-0.115537
-0.110657
-0.105212
-0.0991545
-0.0925847
-0.0854199
-0.0778257
-0.0696617
-0.0612073
-0.0522155
-0.0431532
-0.033572
-0.0242501
-0.0143647
-0.00522658
0.47237
0.464092
0.446814
0.420248
0.385314
0.343067
0.29533
0.244572
0.193796
0.146284
0.104658
0.0700412
0.0419186
0.0187382
-0.00112308
-0.0186969
-0.0344319
-0.0485298
-0.0611537
-0.0724398
-0.0824668
-0.0912733
-0.0988876
-0.105347
-0.110692
-0.11497
-0.118227
-0.120514
-0.121878
-0.122374
-0.122043
-0.120939
-0.119084
-0.116521
-0.113261
-0.109369
-0.104836
-0.0997319
-0.0940183
-0.0877999
-0.0810031
-0.0737965
-0.0660455
-0.0580279
-0.0494992
-0.040918
-0.0318368
-0.0230147
-0.0136367
-0.00497179
0.440458
0.43335
0.418483
0.39575
0.365949
0.330111
0.289686
0.24658
0.203026
0.161372
0.12356
0.0905999
0.0624528
0.0383428
0.0172988
-0.00141474
-0.0182022
-0.0332796
-0.0468053
-0.0589111
-0.0696873
-0.0791912
-0.087464
-0.0945495
-0.100491
-0.105339
-0.109138
-0.111941
-0.113793
-0.114747
-0.114846
-0.11414
-0.112658
-0.110451
-0.10753
-0.103959
-0.099738
-0.09494
-0.0895366
-0.0836335
-0.0771677
-0.0703044
-0.062921
-0.0552838
-0.0471631
-0.0389933
-0.0303503
-0.0219473
-0.0130142
-0.00473604
0.413657
0.407517
0.394652
0.375046
0.349385
0.318597
0.283859
0.246657
0.208693
0.171708
0.137177
0.105993
0.0783735
0.054003
0.0323432
0.0129093
-0.00461604
-0.0204245
-0.0346547
-0.0474224
-0.0588158
-0.0688991
-0.0777212
-0.0853299
-0.0917714
-0.0970959
-0.10135
-0.104585
-0.106847
-0.108188
-0.108651
-0.108287
-0.107127
-0.105224
-0.102597
-0.0993079
-0.0953617
-0.0908331
-0.0857034
-0.0800766
-0.0739011
-0.0673353
-0.0602709
-0.0529585
-0.0451884
-0.0373649
-0.029096
-0.0210419
-0.0124883
-0.00453031
0.391277
0.38593
0.374709
0.357635
0.3353
0.308509
0.278224
0.245621
0.212024
0.178769
0.147015
0.117554
0.0907253
0.0664855
0.04458
0.0247233
0.00669703
-0.00964663
-0.0244186
-0.0377141
-0.0496118
-0.0601752
-0.0694558
-0.0775029
-0.0843639
-0.090089
-0.0947253
-0.0983245
-0.100932
-0.102601
-0.103373
-0.1033
-0.102416
-0.100776
-0.0984019
-0.0953558
-0.0916484
-0.0873539
-0.0824622
-0.0770744
-0.0711497
-0.0648385
-0.0580466
-0.0510086
-0.043535
-0.036001
-0.0280463
-0.0202825
-0.0120471
-0.00435732
0.372753
0.368046
0.358159
0.343121
0.323442
0.299808
0.273016
0.244009
0.213839
0.183566
0.154134
0.126242
0.100287
0.0763817
0.0544609
0.0343893
0.0160405
-0.000684054
-0.0158647
-0.0295746
-0.0418792
-0.0528366
-0.062497
-0.0709094
-0.0781209
-0.0841815
-0.0891385
-0.0930431
-0.0959414
-0.0978858
-0.0989186
-0.0990928
-0.0984443
-0.0970272
-0.0948692
-0.0920314
-0.0885291
-0.0844356
-0.079748
-0.0745646
-0.0688535
-0.0627579
-0.0561959
-0.0493878
-0.0421618
-0.0348685
-0.0271743
-0.0196514
-0.0116792
-0.00421528
0.357624
0.353428
0.344608
0.331187
0.313607
0.292452
0.268387
0.242183
0.214697
0.186796
0.159271
0.132746
0.107637
0.0841523
0.0623482
0.0422004
0.0236587
0.00667143
-0.00881118
-0.0228407
-0.0354683
-0.046744
-0.0567145
-0.0654271
-0.0729278
-0.079266
-0.0844887
-0.0886468
-0.0917866
-0.0939602
-0.095211
-0.0955918
-0.0951404
-0.0939112
-0.0919351
-0.0892728
-0.0859436
-0.0820199
-0.0775045
-0.0724929
-0.0669608
-0.0610451
-0.0546741
-0.0480563
-0.0410341
-0.0339389
-0.0264577
-0.0191333
-0.0113759
-0.0041007
0.345524
0.341727
0.333742
0.321583
0.305634
0.286397
0.264434
0.24039
0.214982
0.18894
0.162945
0.137563
0.113212
0.0901554
0.0685304
0.0483899
0.029744
0.0125819
-0.00311864
-0.0173892
-0.0302672
-0.0417943
-0.0520124
-0.0609662
-0.0687005
-0.0752635
-0.0807017
-0.0850657
-0.088402
-0.0907625
-0.0921912
-0.0927409
-0.0924511
-0.0913764
-0.0895498
-0.0870319
-0.0838453
-0.0800615
-0.0756877
-0.0708173
-0.0654316
-0.0596629
-0.0534469
-0.0469836
-0.0401257
-0.0331904
-0.02588
-0.0187161
-0.0111306
-0.00401004
0.336164
0.33267
0.325318
0.314115
0.299397
0.281604
0.261219
0.238799
0.214959
0.190332
0.165522
0.141051
0.117334
0.0946646
0.0732307
0.0531396
0.034446
0.0171721
0.00131924
-0.0131274
-0.0261934
-0.0379121
-0.0483211
-0.0574622
-0.0653786
-0.0721172
-0.0777243
-0.0822498
-0.0857405
-0.0882479
-0.0898168
-0.0904999
-0.0903378
-0.0893853
-0.0876771
-0.0852738
-0.0822002
-0.0785274
-0.0742658
-0.069507
-0.0642369
-0.058584
-0.0524896
-0.0461472
-0.0394175
-0.0326071
-0.0254294
-0.0183909
-0.0109389
-0.0039404
0.329326
0.326049
0.319153
0.308636
0.2948
0.278039
0.258783
0.237523
0.214807
0.191202
0.167258
0.143468
0.120239
0.0978824
0.0766175
0.0565872
0.0378779
0.0205365
0.00458211
-0.00998683
-0.0231863
-0.0350433
-0.0455913
-0.0548695
-0.0629196
-0.0697877
-0.0755193
-0.0801643
-0.0837692
-0.0863855
-0.0880583
-0.0888404
-0.0887732
-0.0879117
-0.0862918
-0.0839738
-0.0809844
-0.0773943
-0.0732162
-0.0685406
-0.0633562
-0.0577891
-0.0517846
-0.0455317
-0.0388963
-0.032178
-0.0250977
-0.0181516
-0.0107977
-0.00388954
0.324851
0.321714
0.315113
0.305039
0.291773
0.275677
0.257148
0.236636
0.214645
0.191704
0.168328
0.144989
0.122091
0.099952
0.0788111
0.0588322
0.040122
0.0227432
0.00672715
-0.00791862
-0.0212036
-0.0331501
-0.0437886
-0.0531566
-0.0612947
-0.0682479
-0.0740618
-0.0787856
-0.0824659
-0.0851541
-0.0868957
-0.0877434
-0.0877392
-0.086938
-0.0853766
-0.0831153
-0.0801819
-0.0766467
-0.072524
-0.0679035
-0.0627759
-0.0572656
-0.0513205
-0.0451264
-0.0385533
-0.0318954
-0.0248795
-0.0179938
-0.0107053
-0.00385514
0.322641
0.319571
0.313115
0.303259
0.290272
0.274501
0.256327
0.236182
0.214547
0.191932
0.168837
0.145723
0.122991
0.100964
0.0798881
0.0599381
0.0412301
0.0238349
0.00778989
-0.00689286
-0.0202194
-0.0322099
-0.0428931
-0.0523055
-0.060487
-0.0674825
-0.0733372
-0.0781001
-0.0818179
-0.0845419
-0.0863177
-0.087198
-0.0872251
-0.086454
-0.0849219
-0.0826886
-0.0797832
-0.0762752
-0.0721804
-0.0675871
-0.0624882
-0.0570054
-0.0510907
-0.0449247
-0.038384
-0.031754
-0.024773
-0.017913
-0.0106627
-0.00383343
0.322703
0.319635
0.313175
0.303311
0.290315
0.274533
0.256344
0.236177
0.214516
0.191869
0.168733
0.14557
0.122779
0.100683
0.0795278
0.0594865
0.0406757
0.0231668
0.00699825
-0.00781604
-0.0212797
-0.0334094
-0.0442301
-0.0537734
-0.0620742
-0.0691718
-0.0751059
-0.0799206
-0.0836583
-0.086367
-0.0880906
-0.0888817
-0.0887846
-0.0878578
-0.0861445
-0.0837115
-0.0805961
-0.0768764
-0.0725782
-0.0677968
-0.0625354
-0.0569181
-0.0509061
-0.0446748
-0.0381103
-0.031481
-0.0245392
-0.017725
-0.0105504
-0.0037784
0.324914
0.32178
0.315174
0.305093
0.291818
0.275711
0.257166
0.236634
0.214617
0.191644
0.168228
0.144841
0.121884
0.0996767
0.0784561
0.0583859
0.0395726
0.0220796
0.00593917
-0.00883946
-0.0222632
-0.0343512
-0.0451298
-0.0546317
-0.062892
-0.0699505
-0.0758468
-0.0806249
-0.0843271
-0.0870013
-0.0886909
-0.0894486
-0.0893182
-0.0883582
-0.0866117
-0.0841457
-0.0809971
-0.0772445
-0.072913
-0.0680994
-0.0628051
-0.0571568
-0.0511127
-0.0448524
-0.0382568
-0.0316014
-0.0246289
-0.0177923
-0.0105858
-0.0037963
0.329391
0.326117
0.319217
0.308692
0.294849
0.278077
0.258806
0.237527
0.214785
0.191149
0.167166
0.143328
0.120042
0.0976174
0.0762732
0.0561516
0.0373389
0.0198822
0.00380159
-0.0109029
-0.0242447
-0.0362476
-0.0469409
-0.0563589
-0.0645376
-0.0715173
-0.0773374
-0.0820421
-0.0856729
-0.0882776
-0.0898989
-0.0905895
-0.090392
-0.0893655
-0.0875522
-0.0850197
-0.0818041
-0.0779851
-0.0735869
-0.0687076
-0.0633477
-0.0576359
-0.0515285
-0.0452079
-0.0385522
-0.0318406
-0.0248115
-0.0179229
-0.0106622
-0.00382396
0.336233
0.332742
0.325386
0.314176
0.299451
0.281647
0.261249
0.238811
0.214946
0.190289
0.165441
0.140924
0.117151
0.0944153
0.0729029
0.0527206
0.0339228
0.0165321
0.00055026
-0.0140359
-0.0272496
-0.0391212
-0.0496836
-0.0589737
-0.0670286
-0.0738887
-0.0795937
-0.0841873
-0.0877103
-0.0902101
-0.0917283
-0.0923171
-0.0920185
-0.0908911
-0.0889766
-0.0863433
-0.0830261
-0.0791062
-0.0746066
-0.0696277
-0.0641682
-0.0583598
-0.0521563
-0.0457442
-0.0389974
-0.0322006
-0.0250862
-0.0181186
-0.0107777
-0.00386433
0.345597
0.341804
0.333815
0.32165
0.305694
0.286448
0.264472
0.240412
0.214981
0.188911
0.16288
0.137454
0.113049
0.0899276
0.068225
0.0479936
0.0292427
0.0119616
-0.00387154
-0.0182871
-0.0313204
-0.0430097
-0.0533926
-0.0625084
-0.070395
-0.0770935
-0.0826431
-0.0870869
-0.0904647
-0.092823
-0.0942023
-0.0946541
-0.0942187
-0.092955
-0.0909036
-0.0881336
-0.0846785
-0.0806216
-0.0759843
-0.0708701
-0.0652751
-0.0593357
-0.0530017
-0.0464657
-0.0395954
-0.0326836
-0.0254539
-0.0183804
-0.0109318
-0.00391884
0.357703
0.353511
0.344687
0.331261
0.313675
0.292513
0.268436
0.242217
0.21471
0.186784
0.159225
0.13266
0.1075
0.083952
0.0620718
0.0418334
0.0231858
0.00607701
-0.0095428
-0.0237244
-0.036517
-0.0479675
-0.0581179
-0.0670095
-0.0746811
-0.0811738
-0.0865259
-0.0907797
-0.0939734
-0.0961525
-0.0973555
-0.0976332
-0.0970241
-0.0955869
-0.0933607
-0.0904157
-0.0867842
-0.0825519
-0.077738
-0.0724504
-0.0666816
-0.0605744
-0.054073
-0.0473786
-0.0403504
-0.0332925
-0.025916
-0.0187094
-0.0111243
-0.00398858
0.372837
0.368135
0.358246
0.343203
0.323519
0.29988
0.273078
0.244057
0.213869
0.183573
0.154112
0.126184
0.100181
0.0762157
0.0542207
0.0340592
0.0156037
-0.00124543
-0.0165689
-0.0304397
-0.0429217
-0.05407
-0.0639296
-0.0725434
-0.0799499
-0.0861899
-0.0913001
-0.0953216
-0.0982902
-0.10025
-0.101237
-0.101302
-0.100479
-0.0988289
-0.096387
-0.0932258
-0.0893757
-0.0849261
-0.0798932
-0.0743903
-0.068406
-0.0620908
-0.0553819
-0.048492
-0.0412686
-0.0340317
-0.0264743
-0.019107
-0.0113549
-0.00407496
0.391367
0.386026
0.374804
0.357726
0.335388
0.308592
0.2783
0.245686
0.212074
0.1788
0.147021
0.117528
0.090657
0.0663614
0.0443845
0.0244387
0.0063049
-0.0101665
-0.0250878
-0.038555
-0.0506457
-0.0614202
-0.0709248
-0.079202
-0.0862892
-0.092226
-0.0970467
-0.10079
-0.10349
-0.105188
-0.105917
-0.105726
-0.104647
-0.102739
-0.100036
-0.0966129
-0.0924976
-0.0877838
-0.0824844
-0.0767198
-0.0704732
-0.0639055
-0.0569448
-0.0498185
-0.0423587
-0.0349071
-0.0271319
-0.0195751
-0.0116235
-0.00417957
0.413753
0.407622
0.394756
0.375146
0.349484
0.318694
0.28395
0.24674
0.208764
0.171765
0.137216
0.106007
0.0783509
0.0539298
0.0322016
0.0126801
-0.00495302
-0.0208923
-0.0352794
-0.0482319
-0.0598373
-0.0701572
-0.079235
-0.0871105
-0.0938188
-0.0993969
-0.103876
-0.107292
-0.109674
-0.111062
-0.111486
-0.110992
-0.109609
-0.107395
-0.104379
-0.100641
-0.0962075
-0.091176
-0.0855563
-0.0794768
-0.0729152
-0.0660444
-0.0587821
-0.0513734
-0.043632
-0.0359261
-0.027893
-0.0201157
-0.0119303
-0.00430355
0.440561
0.433462
0.418595
0.39586
0.366061
0.330223
0.289793
0.246682
0.203119
0.161457
0.123637
0.0906614
0.062487
0.0383319
0.0172221
-0.00157675
-0.0184712
-0.0336821
-0.0473732
-0.0596793
-0.0706913
-0.0804638
-0.0890325
-0.096432
-0.102693
-0.107849
-0.111926
-0.114957
-0.116967
-0.117992
-0.118057
-0.117207
-0.115465
-0.112886
-0.109498
-0.105385
-0.100572
-0.0951615
-0.0891597
-0.0827042
-0.0757679
-0.0685362