/*--------------------------------*- C++ -*----------------------------------*\
  =========                 |
  \\      /  F ield         | OpenFOAM: The Open Source CFD Toolbox
   \\    /   O peration     | Website:  https://openfoam.org
    \\  /    A nd           | Version:  8
     \\/     M anipulation  |
\*---------------------------------------------------------------------------*/
FoamFile
{
    version     2.0;
    format      ascii;
    class       volVectorField;
    location    "38";
    object      U;
}
// * * * * * * * * * * * * * * * * * * * * * * * * * * * * * * * * * * * * * //

dimensions      [0 1 -1 0 0 0 0];

internalField   nonuniform List<vector> 
12504
(
(1.00014 -0.000694899 8.56362e-07)
(1.00354 -0.00207116 -1.05433e-06)
(1.01032 -0.00338941 -1.97584e-06)
(1.0204 -0.0046052 -1.31169e-06)
(1.03341 -0.00568116 -7.05789e-07)
(1.04893 -0.00658707 -4.78545e-07)
(1.06649 -0.00730113 -3.33671e-07)
(1.0856 -0.00781183 -1.09963e-08)
(1.10574 -0.00811934 3.46562e-07)
(1.12641 -0.00823532 6.65931e-07)
(1.14714 -0.00818143 9.0706e-07)
(1.16754 -0.00798631 1.04404e-06)
(1.18728 -0.00768181 1.06587e-06)
(1.20612 -0.00729893 9.90028e-07)
(1.22392 -0.0068648 8.5127e-07)
(1.24056 -0.00640106 6.95062e-07)
(1.25601 -0.00592388 5.48813e-07)
(1.27025 -0.00544465 4.31445e-07)
(1.28328 -0.00497126 3.36165e-07)
(1.29514 -0.00450879 2.6688e-07)
(1.30585 -0.00406048 2.07899e-07)
(1.31546 -0.00362802 1.72131e-07)
(1.32401 -0.00321234 1.37036e-07)
(1.33153 -0.00281358 1.25744e-07)
(1.33809 -0.00243187 1.00793e-07)
(1.3437 -0.00206681 1.05319e-07)
(1.34843 -0.0017184 7.87933e-08)
(1.35229 -0.00138609 9.77126e-08)
(1.35537 -0.0010701 6.03201e-08)
(1.35764 -0.000769863 9.83291e-08)
(1.35922 -0.000485961 3.70332e-08)
(1.36007 -0.000217748 1.03591e-07)
(1.36032 3.37695e-05 -3.23144e-09)
(1.35989 0.000269443 1.20153e-07)
(1.35898 0.000487718 -4.6465e-08)
(1.35743 0.000690279 1.70739e-07)
(1.35555 0.000874823 -1.22089e-07)
(1.35302 0.00104406 2.52838e-07)
(1.35037 0.00119475 -2.57915e-07)
(1.34699 0.00133119 4.02472e-07)
(1.34377 0.00144876 -4.87342e-07)
(1.33965 0.00155389 6.79577e-07)
(1.33612 0.00163996 -8.81105e-07)
(1.33128 0.00171606 1.17458e-06)
(1.32775 0.00177307 -1.54825e-06)
(1.32212 0.00182266 2.00699e-06)
(1.31902 0.00185386 -2.55227e-06)
(1.31232 0.00187843 3.08599e-06)
(1.31032 0.0018888 -3.22027e-06)
(1.30194 0.00188555 2.0538e-06)
(1.00015 -0.00210305 8.26891e-07)
(1.00362 -0.00626288 -1.11671e-06)
(1.01055 -0.0102464 -2.00749e-06)
(1.02085 -0.0139204 -1.33934e-06)
(1.03415 -0.0171702 -7.39952e-07)
(1.05001 -0.0199033 -5.11715e-07)
(1.06794 -0.0220535 -3.49823e-07)
(1.08743 -0.0235861 1.84101e-09)
(1.10794 -0.0245016 3.85099e-07)
(1.12896 -0.0248363 7.24771e-07)
(1.15 -0.0246569 9.76798e-07)
(1.17066 -0.0240517 1.11143e-06)
(1.19061 -0.0231187 1.1187e-06)
(1.20962 -0.0219525 1.02284e-06)
(1.22754 -0.0206355 8.66825e-07)
(1.24427 -0.0192329 7.01389e-07)
(1.25979 -0.0177927 5.54129e-07)
(1.27407 -0.0163486 4.40568e-07)
(1.28714 -0.0149239 3.49931e-07)
(1.29903 -0.0135334 2.84473e-07)
(1.30976 -0.0121863 2.28402e-07)
(1.31938 -0.0108874 1.95239e-07)
(1.32795 -0.00963929 1.62015e-07)
(1.33548 -0.00844225 1.51826e-07)
(1.34204 -0.00729647 1.26946e-07)
(1.34766 -0.00620075 1.31024e-07)
(1.3524 -0.00515496 1.03784e-07)
(1.35627 -0.00415754 1.22008e-07)
(1.35934 -0.00320899 8.36192e-08)
(1.36162 -0.00230777 1.20273e-07)
(1.3632 -0.00145541 5.74292e-08)
(1.36405 -0.000650275 1.21639e-07)
(1.36429 0.000104937 1.19427e-08)
(1.36386 0.00081235 1.33961e-07)
(1.36294 0.00146799 -3.03131e-08)
(1.36138 0.00207581 1.84705e-07)
(1.35949 0.00263026 -1.05781e-07)
(1.35695 0.00313764 2.63645e-07)
(1.35428 0.00359066 -2.41524e-07)
(1.35089 0.00399902 4.08923e-07)
(1.34766 0.00435304 -4.69062e-07)
(1.34352 0.00466651 6.78627e-07)
(1.33998 0.00492687 -8.58227e-07)
(1.33513 0.00515183 1.16215e-06)
(1.33159 0.00532652 -1.51518e-06)
(1.32594 0.00546997 1.97676e-06)
(1.32284 0.00556946 -2.50253e-06)
(1.31612 0.00563581 3.03439e-06)
(1.31412 0.00567405 -3.16683e-06)
(1.30571 0.00565858 2.02839e-06)
(1.00015 -0.00356053 8.43833e-07)
(1.00378 -0.0105976 -1.19506e-06)
(1.01103 -0.0173345 -2.10919e-06)
(1.02179 -0.0235469 -1.4154e-06)
(1.03567 -0.0290365 -7.94086e-07)
(1.05221 -0.0336442 -5.46904e-07)
(1.07089 -0.0372565 -3.46704e-07)
(1.09116 -0.0398135 6.0713e-08)
(1.11244 -0.0413169 5.05643e-07)
(1.13417 -0.0418306 8.96342e-07)
(1.15585 -0.0414723 1.17511e-06)
(1.17704 -0.0403974 1.30226e-06)
(1.19741 -0.0387773 1.27001e-06)
(1.21675 -0.0367757 1.11882e-06)
(1.23491 -0.0345331 9.11948e-07)
(1.25183 -0.0321581 7.13906e-07)
(1.26748 -0.0297299 5.53444e-07)
(1.28186 -0.0273027 4.39261e-07)
(1.29501 -0.0249136 3.51605e-07)
(1.30695 -0.0225859 2.8948e-07)
(1.31773 -0.0203336 2.36317e-07)
(1.32739 -0.0181639 2.06862e-07)
(1.33598 -0.0160801 1.76398e-07)
(1.34354 -0.0140822 1.68756e-07)
(1.35013 -0.0121702 1.44458e-07)
(1.35577 -0.0103419 1.49671e-07)
(1.36052 -0.00859689 1.21588e-07)
(1.3644 -0.00693248 1.40509e-07)
(1.36748 -0.00534935 1.00095e-07)
(1.36977 -0.00384513 1.37371e-07)
(1.37135 -0.00242214 7.1127e-08)
(1.37219 -0.00107801 1.35658e-07)
(1.37243 0.000183059 2.04626e-08)
(1.37198 0.00136414 1.45696e-07)
(1.37105 0.00245927 -2.1506e-08)
(1.36947 0.00347378 1.98654e-07)
(1.36756 0.00439989 -9.84501e-08)
(1.36499 0.00524608 2.76583e-07)
(1.3623 0.0060028 -2.37426e-07)
(1.35888 0.00668273 4.21036e-07)
(1.35563 0.00727441 -4.68174e-07)
(1.35145 0.00779468 6.8945e-07)
(1.3479 0.00823077 -8.59743e-07)
(1.343 0.00860169 1.17124e-06)
(1.33945 0.00889643 -1.51687e-06)
(1.33376 0.00912932 1.9811e-06)
(1.33065 0.00930099 -2.49916e-06)
(1.32388 0.00940354 3.02646e-06)
(1.32189 0.00947455 -3.14727e-06)
(1.31343 0.00944331 2.0196e-06)
(1.00016 -0.00509839 8.88665e-07)
(1.00403 -0.015173 -1.30483e-06)
(1.01176 -0.0248158 -2.28717e-06)
(1.02323 -0.0337029 -1.54978e-06)
(1.03803 -0.0415454 -8.80919e-07)
(1.05563 -0.0481104 -6.01135e-07)
(1.07548 -0.0532303 -3.33539e-07)
(1.09696 -0.0568166 1.64319e-07)
(1.11943 -0.0588728 7.12605e-07)
(1.14227 -0.0594959 1.19258e-06)
(1.16492 -0.0588654 1.51732e-06)
(1.18693 -0.0572176 1.62784e-06)
(1.20795 -0.05481 1.52251e-06)
(1.22779 -0.0518852 1.27298e-06)
(1.24633 -0.0486455 9.78603e-07)
(1.26352 -0.0452435 7.26577e-07)
(1.27938 -0.0417865 5.457e-07)
(1.29392 -0.0383467 4.31261e-07)
(1.30719 -0.0349722 3.4798e-07)
(1.31922 -0.0316925 2.90252e-07)
(1.33008 -0.0285249 2.41e-07)
(1.3398 -0.0254769 2.17357e-07)
(1.34845 -0.0225519 1.91138e-07)
(1.35606 -0.0197487 1.8763e-07)
(1.36269 -0.0170667 1.63879e-07)
(1.36837 -0.0145022 1.70917e-07)
(1.37315 -0.0120543 1.41131e-07)
(1.37706 -0.00971913 1.61661e-07)
(1.38016 -0.00749762 1.17943e-07)
(1.38245 -0.00538632 1.57178e-07)
(1.38404 -0.00338863 8.50483e-08)
(1.38488 -0.00150123 1.51852e-07)
(1.38511 0.000269796 2.78073e-08)
(1.38464 0.00192869 1.60666e-07)
(1.3837 0.00346686 -1.44611e-08)
(1.38208 0.00489162 2.17098e-07)
(1.38014 0.00619195 -9.52999e-08)
(1.37753 0.00737961 2.95387e-07)
(1.37481 0.00844134 -2.40971e-07)
(1.37133 0.00939458 4.41725e-07)
(1.36805 0.0102238 -4.79488e-07)
(1.36381 0.0109519 7.13867e-07)
(1.36022 0.0115623 -8.79608e-07)
(1.35526 0.0120801 1.20111e-06)
(1.35169 0.0124921 -1.5448e-06)
(1.34592 0.012816 2.01443e-06)
(1.3428 0.0130561 -2.5292e-06)
(1.33596 0.0131979 3.05143e-06)
(1.33396 0.0132978 -3.15445e-06)
(1.32542 0.0132548 2.0129e-06)
(1.00018 -0.00675466 9.49151e-07)
(1.00438 -0.0201006 -1.46106e-06)
(1.01277 -0.0328713 -2.55293e-06)
(1.02524 -0.044633 -1.76069e-06)
(1.04131 -0.0549949 -1.025e-06)
(1.0604 -0.0636394 -7.0267e-07)
(1.08189 -0.0703345 -3.26238e-07)
(1.10507 -0.0749567 3.16319e-07)
(1.12921 -0.0775115 1.0313e-06)
(1.15361 -0.078138 1.65946e-06)
(1.17762 -0.077094 2.05735e-06)
(1.20076 -0.0747183 2.13251e-06)
(1.22267 -0.0713753 1.90085e-06)
(1.24319 -0.0674001 1.49256e-06)
(1.26223 -0.0630626 1.06646e-06)
(1.2798 -0.0585575 7.40719e-07)
(1.29595 -0.054016 5.39069e-07)
(1.31071 -0.0495236 4.30689e-07)
(1.32415 -0.0451356 3.55224e-07)
(1.33634 -0.0408843 3.03267e-07)
(1.34732 -0.0367874 2.59402e-07)
(1.35715 -0.032851 2.43941e-07)
(1.3659 -0.0290768 2.22812e-07)
(1.37359 -0.0254617 2.23516e-07)
(1.3803 -0.0220036 1.98892e-07)
(1.38604 -0.018697 2.07203e-07)
(1.39088 -0.0155403 1.74051e-07)
(1.39483 -0.0125282 1.96073e-07)
(1.39797 -0.00966193 1.46794e-07)
(1.40028 -0.00693678 1.88097e-07)
(1.40188 -0.00435755 1.06884e-07)
(1.40272 -0.00191975 1.76817e-07)
(1.40295 0.000368064 3.83685e-08)
(1.40245 0.00251166 1.82752e-07)
(1.40148 0.00449901 -4.27023e-09)
(1.39982 0.00633993 2.43348e-07)
(1.39784 0.0080191 -9.13816e-08)
(1.39516 0.0095527 3.22848e-07)
(1.39238 0.0109222 -2.46409e-07)
(1.38882 0.0121517 4.72503e-07)
(1.38547 0.0132191 -4.96549e-07)
(1.38114 0.0141568 7.5103e-07)
(1.3775 0.0149403 -9.09812e-07)
(1.37243 0.015606 1.2474e-06)
(1.36882 0.0161327 -1.58812e-06)
(1.36293 0.0165489 2.06786e-06)
(1.35979 0.016854 -2.5778e-06)
(1.35281 0.0170374 3.09607e-06)
(1.3508 0.017163 -3.17585e-06)
(1.34211 0.017112 2.00752e-06)
(1.0002 -0.00857085 1.02725e-06)
(1.00484 -0.0255024 -1.65417e-06)
(1.01411 -0.041702 -2.90533e-06)
(1.02789 -0.0566111 -2.04963e-06)
(1.04564 -0.0697218 -1.23484e-06)
(1.06672 -0.0806161 -8.64482e-07)
(1.0904 -0.0889812 -3.25331e-07)
(1.11586 -0.094648 5.3861e-07)
(1.14224 -0.0976242 1.51646e-06)
(1.16871 -0.0981022 2.38822e-06)
(1.19452 -0.0964437 2.90075e-06)
(1.21913 -0.0931232 2.90201e-06)
(1.2422 -0.0886421 2.4482e-06)
(1.26358 -0.0834472 1.78116e-06)
(1.28327 -0.0778814 1.1574e-06)
(1.30133 -0.0721773 7.36954e-07)
(1.31786 -0.0664826 5.22528e-07)
(1.33293 -0.0608888 4.33636e-07)
(1.34663 -0.055453 3.70547e-07)
(1.35903 -0.0502062 3.24539e-07)
(1.3702 -0.0451628 2.86518e-07)
(1.3802 -0.0403247 2.80451e-07)
(1.3891 -0.0356904 2.63866e-07)
(1.39693 -0.0312535 2.67414e-07)
(1.40376 -0.0270099 2.39431e-07)
(1.4096 -0.0229517 2.47748e-07)
(1.41453 -0.0190765 2.08993e-07)
(1.41855 -0.0153772 2.31876e-07)
(1.42175 -0.0118555 1.74697e-07)
(1.4241 -0.0085053 2.18435e-07)
(1.42572 -0.00533323 1.25805e-07)
(1.42656 -0.00233348 2.00684e-07)
(1.42677 0.000482272 4.61242e-08)
(1.42623 0.00312175 2.05291e-07)
(1.42521 0.00556848 7.22659e-11)
(1.42346 0.00783511 2.67367e-07)
(1.42141 0.00990103 -9.70064e-08)
(1.41862 0.0117879 3.4996e-07)
(1.41574 0.0134703 -2.62905e-07)
(1.41205 0.0149809 5.06173e-07)
(1.40861 0.0162889 -5.27572e-07)
(1.40412 0.017439 7.96002e-07)
(1.40038 0.0183952 -9.57929e-07)
(1.39514 0.0192104 1.30841e-06)
(1.39145 0.0198497 -1.65438e-06)
(1.38537 0.0203596 2.14424e-06)
(1.38217 0.0207264 -2.65371e-06)
(1.37498 0.0209538 3.16746e-06)
(1.37294 0.0211024 -3.22065e-06)
(1.36401 0.0210479 2.0098e-06)
(1.00022 -0.0105942 1.12578e-06)
(1.00543 -0.0315172 -1.86745e-06)
(1.01583 -0.0515384 -3.3555e-06)
(1.03128 -0.0699538 -2.4253e-06)
(1.0512 -0.0861195 -1.53328e-06)
(1.07485 -0.099495 -1.1128e-06)
(1.10138 -0.10966 -3.36783e-07)
(1.12982 -0.116384 8.54437e-07)
(1.15913 -0.119674 2.23844e-06)
(1.18829 -0.119791 3.50423e-06)
(1.21643 -0.117239 4.19703e-06)
(1.24291 -0.112679 4.06553e-06)
(1.26741 -0.106793 3.23588e-06)
(1.28986 -0.100164 2.14813e-06)
(1.31035 -0.0932102 1.20765e-06)
(1.32903 -0.0861936 6.72593e-07)
(1.34606 -0.0792655 4.70119e-07)
(1.36155 -0.0725141 4.21698e-07)
(1.3756 -0.0659915 3.75468e-07)
(1.38831 -0.0597214 3.35486e-07)
(1.39976 -0.0537103 3.04872e-07)
(1.41001 -0.0479529 3.08843e-07)
(1.41914 -0.0424425 2.93866e-07)
(1.42717 -0.0371685 2.96089e-07)
(1.43417 -0.0321241 2.60403e-07)
(1.44016 -0.0272985 2.66331e-07)
(1.44521 -0.0226883 2.1932e-07)
(1.44932 -0.0182846 2.42432e-07)
(1.45258 -0.0140896 1.75827e-07)
(1.45496 -0.0100962 2.23572e-07)
(1.45659 -0.00631287 1.20194e-07)
(1.45739 -0.00273268 2.05027e-07)
(1.45755 0.000628941 3.97988e-08)
(1.45692 0.00378182 2.15991e-07)
(1.4558 0.00670403 -1.92983e-08)
(1.45391 0.00941111 2.70463e-07)
(1.45171 0.0118765 -1.30546e-07)
(1.44873 0.0141279 3.60274e-07)
(1.44569 0.0161318 -3.0692e-07)
(1.44176 0.0179311 5.29639e-07)
(1.43814 0.0194842 -5.86862e-07)
(1.43339 0.0208509 8.40159e-07)
(1.42949 0.021981 -1.03676e-06)
(1.42396 0.0229478 1.38149e-06)
(1.42012 0.0236979 -1.75683e-06)
(1.41373 0.0243029 2.24816e-06)
(1.41042 0.0247285 -2.77293e-06)
(1.40287 0.0250021 3.27889e-06)
(1.40078 0.0251707 -3.30625e-06)
(1.39143 0.0251171 2.02871e-06)
(1.00025 -0.0128796 1.24612e-06)
(1.00617 -0.0383038 -2.06894e-06)
(1.01797 -0.0626497 -3.92959e-06)
(1.03554 -0.0850332 -2.89695e-06)
(1.05821 -0.104658 -1.96955e-06)
(1.08514 -0.120826 -1.49534e-06)
(1.11534 -0.132969 -3.52912e-07)
(1.14762 -0.140773 1.33263e-06)
(1.18071 -0.144228 3.34682e-06)
(1.21334 -0.143687 5.21069e-06)
(1.24442 -0.139858 6.13167e-06)
(1.27324 -0.133662 5.7445e-06)
(1.29949 -0.126027 4.31174e-06)
(1.32322 -0.1177 2.5337e-06)
(1.34469 -0.109174 1.07284e-06)
(1.36414 -0.100717 4.36168e-07)
(1.38181 -0.0924658 3.22724e-07)
(1.39785 -0.0844941 3.42122e-07)
(1.41238 -0.07684 3.10011e-07)
(1.42552 -0.0695128 2.7502e-07)
(1.43735 -0.0625057 2.5621e-07)
(1.44794 -0.055803 2.71449e-07)
(1.45736 -0.0493911 2.53142e-07)
(1.46563 -0.0432544 2.46997e-07)
(1.47284 -0.0373829 1.97832e-07)
(1.47899 -0.0317628 1.98723e-07)
(1.48415 -0.0263895 1.42003e-07)
(1.48832 -0.0212529 1.66344e-07)
(1.49161 -0.0163554 9.18675e-08)
(1.49395 -0.0116896 1.4907e-07)
(1.49551 -0.00726575 4.3882e-08)
(1.49618 -0.00307682 1.51868e-07)
(1.49619 0.000858498 -7.3747e-09)
(1.49535 0.00455056 1.82415e-07)
(1.494 0.00797192 -9.84428e-08)
(1.49183 0.0111404 2.16625e-07)
(1.48935 0.0140238 -2.24732e-07)
(1.48602 0.0166551 3.22867e-07)
(1.48268 0.0189934 -4.06242e-07)
(1.47836 0.0210911 5.17858e-07)
(1.47442 0.0228963 -6.96728e-07)
(1.46925 0.0244844 8.65155e-07)
(1.46504 0.0257906 -1.16447e-06)
(1.45905 0.0269104 1.45575e-06)
(1.45495 0.0277703 -1.91166e-06)
(1.44805 0.0284701 2.37832e-06)
(1.44454 0.0289515 -2.95291e-06)
(1.43643 0.0292713 3.44019e-06)
(1.43423 0.0294569 -3.45247e-06)
(1.42423 0.0294062 2.07295e-06)
(1.00029 -0.0154915 1.38962e-06)
(1.00707 -0.0460441 -2.19452e-06)
(1.02061 -0.0753527 -4.67136e-06)
(1.04081 -0.102291 -3.4568e-06)
(1.06692 -0.125906 -2.65192e-06)
(1.098 -0.145287 -2.10741e-06)
(1.13289 -0.159656 -3.98043e-07)
(1.17013 -0.168576 2.08712e-06)
(1.2081 -0.171997 5.19363e-06)
(1.24518 -0.170386 7.97627e-06)
(1.27998 -0.164748 9.04021e-06)
(1.31166 -0.156384 8.01284e-06)
(1.34001 -0.146558 5.51313e-06)
(1.36526 -0.13622 2.49244e-06)
(1.38787 -0.125914 4.76625e-07)
(1.40827 -0.115878 -9.55652e-08)
(1.42674 -0.106206 -5.80872e-09)
(1.44346 -0.0969424 8.69923e-08)
(1.45859 -0.0881016 4.12121e-08)
(1.47224 -0.0796704 -2.56813e-09)
(1.48451 -0.0716231 -8.65605e-09)
(1.49546 -0.0639313 1.80751e-08)
(1.50517 -0.0565735 -8.01635e-09)
(1.51365 -0.0495292 -2.7812e-08)
(1.52099 -0.0427845 -9.1912e-08)
(1.52719 -0.0363237 -9.33274e-08)
(1.53233 -0.0301408 -1.54567e-07)
(1.53641 -0.0242253 -1.20334e-07)
(1.53953 -0.0185799 -1.92052e-07)
(1.54165 -0.013198 -1.08647e-07)
(1.54292 -0.00809078 -1.94805e-07)
(1.54324 -0.00325348 -2.9723e-08)
(1.54286 0.00129475 -1.64698e-07)
(1.54156 0.00555984 2.21283e-08)
(1.53974 0.00951103 -3.13407e-07)
(1.53703 0.0131666 3.80615e-08)
(1.53403 0.0164911 -4.36497e-07)
(1.5301 0.0195198 1.83181e-07)
(1.5262 0.0222074 -6.0483e-07)
(1.52124 0.0246124 4.28466e-07)
(1.51676 0.0266775 -8.87945e-07)
(1.5109 0.0284887 8.39613e-07)
(1.50619 0.0299732 -1.36138e-06)
(1.49948 0.0312425 1.50902e-06)
(1.49494 0.0322109 -2.13231e-06)
(1.48729 0.0329992 2.52215e-06)
(1.48345 0.0335335 -3.20509e-06)
(1.4745 0.0338922 3.65016e-06)
(1.47211 0.034092 -3.67362e-06)
(1.46115 0.034038 2.14728e-06)
(1.00033 -0.0185052 1.56169e-06)
(1.00818 -0.0549442 -2.13127e-06)
(1.02382 -0.0900238 -5.64019e-06)
(1.04726 -0.122252 -4.03651e-06)
(1.07764 -0.150568 -3.78518e-06)
(1.11398 -0.173728 -3.10538e-06)
(1.15485 -0.190669 -6.89419e-07)
(1.19848 -0.200772 3.06083e-06)
(1.24279 -0.203884 8.24561e-06)
(1.28559 -0.200631 1.26988e-05)
(1.32507 -0.192454 1.37213e-05)
(1.36023 -0.181206 1.12559e-05)
(1.39101 -0.168624 6.18395e-06)
(1.41796 -0.155898 1.0769e-06)
(1.44188 -0.143577 -1.2328e-06)
(1.46334 -0.131806 -1.34732e-06)
(1.4827 -0.120598 -8.78525e-07)
(1.50015 -0.109951 -6.68126e-07)
(1.51585 -0.0998432 -7.3653e-07)
(1.52993 -0.0902306 -8.00374e-07)
(1.5425 -0.0810647 -7.95592e-07)
(1.55361 -0.0723047 -7.55672e-07)
(1.56334 -0.0639218 -7.85219e-07)
(1.57172 -0.0558919 -8.03027e-07)
(1.57883 -0.0481978 -8.60267e-07)
(1.58468 -0.0408232 -8.37204e-07)
(1.58939 -0.0337605 -8.74704e-07)
(1.59293 -0.0270008 -7.95436e-07)
(1.59545 -0.0205457 -8.29433e-07)
(1.59687 -0.0143916 -6.69873e-07)
(1.59741 -0.0085482 -7.02279e-07)
(1.59692 -0.0030154 -4.15145e-07)
(1.59571 0.00218951 -5.60001e-07)
(1.59351 0.00706212 -4.01209e-07)
(1.5908 0.011574 -7.68914e-07)
(1.58714 0.0157397 -3.53568e-07)
(1.58323 0.019526 -8.33636e-07)
(1.57832 0.0229632 -1.23741e-07)
(1.57353 0.0260108 -9.46316e-07)
(1.56757 0.0287235 2.14205e-07)
(1.56225 0.0310511 -1.18402e-06)
(1.55539 0.0330769 7.27885e-07)
(1.54991 0.034737 -1.63552e-06)
(1.5422 0.0361406 1.51014e-06)
(1.537 0.0372129 -2.41567e-06)
(1.52831 0.0380703 2.65085e-06)
(1.52397 0.0386533 -3.51939e-06)
(1.51389 0.0390289 3.88632e-06)
(1.51122 0.0392407 -3.96269e-06)
(1.49897 0.0391605 2.24698e-06)
(1.0004 -0.0220076 1.78385e-06)
(1.00951 -0.0652318 -1.7164e-06)
(1.02768 -0.10711 -6.89218e-06)
(1.05509 -0.145538 -4.43995e-06)
(1.09072 -0.179525 -5.66615e-06)
(1.1337 -0.207238 -4.57448e-06)
(1.18224 -0.227255 -1.62578e-06)
(1.23417 -0.238654 3.85723e-06)
(1.28674 -0.241042 1.25638e-05)
(1.33693 -0.235316 2.00196e-05)
(1.38227 -0.223592 2.11459e-05)
(1.42156 -0.208516 1.63213e-05)
(1.45499 -0.192471 5.77709e-06)
(1.48366 -0.176902 -2.57478e-06)
(1.5088 -0.162273 -5.21901e-06)
(1.53118 -0.148551 -4.3774e-06)
(1.55116 -0.135634 -3.12921e-06)
(1.56895 -0.123453 -2.57775e-06)
(1.58472 -0.111937 -2.58086e-06)
(1.59862 -0.101003 -2.57818e-06)
(1.61078 -0.0905779 -2.4888e-06)
(1.62125 -0.0806135 -2.38759e-06)
(1.63014 -0.0710765 -2.37385e-06)
(1.63751 -0.061942 -2.33024e-06)
(1.64347 -0.0531902 -2.30508e-06)
(1.64804 -0.0448055 -2.17791e-06)
(1.65139 -0.0367788 -2.10261e-06)
(1.65348 -0.0291024 -1.89078e-06)
(1.65451 -0.0217773 -1.78156e-06)
(1.65441 -0.0147999 -1.451e-06)
(1.65342 -0.00818132 -1.33428e-06)
(1.65139 -0.00191406 -8.94162e-07)
(1.64866 0.00397202 -1.1651e-06)
(1.64494 0.00946541 -1.05171e-06)
(1.64077 0.014549 -1.41067e-06)
(1.63563 0.019226 -9.15545e-07)
(1.63033 0.0234743 -1.37157e-06)
(1.62401 0.0273087 -5.66047e-07)
(1.61793 0.0307077 -1.38498e-06)
(1.61064 0.0337062 -1.07828e-07)
(1.60416 0.0362824 -1.54222e-06)
(1.59603 0.0384923 5.33058e-07)
(1.58954 0.0403127 -1.94083e-06)
(1.5806 0.0418138 1.44263e-06)
(1.57456 0.0429769 -2.70932e-06)
(1.56464 0.0438619 2.7254e-06)
(1.55967 0.0444859 -3.83572e-06)
(1.54831 0.0448337 4.09483e-06)
(1.54528 0.0450554 -4.2682e-06)
(1.53157 0.0449008 2.35044e-06)
(1.00048 -0.0260931 2.12628e-06)
(1.01107 -0.07715 -7.67228e-07)
(1.03226 -0.127133 -8.422e-06)
(1.06445 -0.172865 -4.36575e-06)
(1.1065 -0.213885 -8.72027e-06)
(1.1579 -0.247212 -6.26238e-06)
(1.21629 -0.271092 -3.32732e-06)
(1.2791 -0.283998 4.812e-06)
(1.3425 -0.285 1.82234e-05)
(1.40223 -0.275514 2.89346e-05)
(1.45479 -0.258749 3.01217e-05)
(1.49865 -0.238551 2.14207e-05)
(1.53447 -0.218161 3.70139e-06)
(1.5642 -0.199193 -9.05431e-06)
(1.58968 -0.181843 -1.22099e-05)
(1.61187 -0.16581 -1.00028e-05)
(1.63115 -0.150864 -7.5345e-06)
(1.64774 -0.136869 -6.46203e-06)
(1.66189 -0.123687 -6.09857e-06)
(1.6738 -0.11119 -5.65787e-06)
(1.68364 -0.0992855 -5.17814e-06)
(1.69153 -0.0879217 -4.79037e-06)
(1.69766 -0.0770646 -4.54013e-06)
(1.70212 -0.0666898 -4.25501e-06)
(1.70511 -0.0567742 -3.97434e-06)
(1.70669 -0.0473023 -3.58784e-06)
(1.70707 -0.0382594 -3.24224e-06)
(1.70625 -0.0296384 -2.76433e-06)
(1.70447 -0.0214331 -2.34322e-06)
(1.70166 -0.0136411 -1.75821e-06)
(1.6981 -0.00626299 -1.31687e-06)
(1.69362 0.000707715 -1.11263e-06)
(1.68858 0.00723141 -1.60848e-06)
(1.68269 0.0132961 -1.51568e-06)
(1.67649 0.0189034 -1.83996e-06)
(1.66945 0.0240364 -1.30883e-06)
(1.6624 0.0286953 -1.7467e-06)
(1.65442 0.0328671 -9.00075e-07)
(1.64686 0.0365668 -1.69207e-06)
(1.63812 0.0397885 -3.61093e-07)
(1.63037 0.0425666 -1.77869e-06)
(1.62098 0.0448961 3.57066e-07)
(1.61344 0.0468376 -2.1268e-06)
(1.60336 0.0483702 1.34289e-06)
(1.59649 0.0495963 -2.87255e-06)
(1.58551 0.0504412 2.71485e-06)
(1.57993 0.0510921 -4.01007e-06)
(1.56751 0.0513412 4.18701e-06)
(1.56414 0.0515712 -4.46707e-06)
(1.54926 0.051267 2.41083e-06)
(1.0006 -0.0308494 2.7741e-06)
(1.0128 -0.0909542 8.88958e-07)
(1.03761 -0.150683 -9.94215e-06)
(1.07539 -0.205024 -3.77327e-06)
(1.12526 -0.255048 -1.38333e-05)
(1.18737 -0.295406 -8.00371e-06)
(1.25835 -0.324412 -6.07059e-06)
(1.33556 -0.3392 8.39094e-06)
(1.41334 -0.337876 2.82612e-05)
(1.4854 -0.322628 3.87233e-05)
(1.54624 -0.298344 3.48928e-05)
(1.5939 -0.270955 1.76216e-05)
(1.63006 -0.244944 -6.4111e-06)
(1.65816 -0.221803 -2.09584e-05)
(1.68089 -0.201095 -2.21265e-05)
(1.69945 -0.182153 -1.72199e-05)
(1.71431 -0.164647 -1.31953e-05)
(1.72581 -0.14838 -1.14637e-05)
(1.7344 -0.133142 -1.02829e-05)
(1.74042 -0.11876 -8.82123e-06)
(1.74419 -0.105127 -7.46926e-06)
(1.74595 -0.0921904 -6.43963e-06)
(1.746 -0.0799104 -5.68939e-06)
(1.74455 -0.0682562 -4.97345e-06)
(1.74187 -0.0571922 -4.32369e-06)
(1.7381 -0.0466963 -3.61262e-06)
(1.73348 -0.0367357 -2.98152e-06)
(1.72805 -0.0273008 -2.2098e-06)
(1.72205 -0.0183579 -1.56239e-06)
(1.71543 -0.00992133 -7.86332e-07)
(1.70846 -0.00192505 -5.41411e-07)
(1.70095 0.00554707 -9.91773e-07)
(1.69322 0.0125201 -1.62584e-06)
(1.68497 0.0189825 -1.43115e-06)
(1.67673 0.0249523 -1.6679e-06)
(1.66792 0.0303866 -1.14855e-06)
(1.65935 0.0353166 -1.57255e-06)
(1.65008 0.0396917 -7.75755e-07)
(1.6414 0.0435767 -1.53067e-06)
(1.63174 0.0469062 -2.80739e-07)
(1.6232 0.049794 -1.62502e-06)
(1.61317 0.0521425 3.76209e-07)
(1.60509 0.0541364 -1.97078e-06)
(1.5946 0.0556104 1.29251e-06)
(1.58737 0.0568545 -2.69742e-06)
(1.57612 0.0575749 2.59615e-06)
(1.57032 0.0582319 -3.82077e-06)
(1.55774 0.0582992 4.03518e-06)
(1.55426 0.0585366 -4.35628e-06)
(1.53928 0.0579979 2.34228e-06)
(1.00073 -0.0363272 4.13038e-06)
(1.01465 -0.106926 3.27803e-06)
(1.04376 -0.178353 -1.02928e-05)
(1.0877 -0.24288 -3.6778e-06)
(1.14725 -0.304798 -2.26512e-05)
(1.2227 -0.353915 -1.18981e-05)
(1.30957 -0.390037 -1.37293e-05)
(1.40602 -0.407146 1.38754e-05)
(1.50326 -0.402418 4.71887e-05)
(1.59077 -0.378436 5.51212e-05)
(1.65855 -0.342306 3.22625e-05)
(1.70495 -0.303986 -7.68321e-06)
(1.73446 -0.270073 -3.84815e-05)
(1.75333 -0.241369 -4.53445e-05)
(1.76555 -0.216256 -3.45986e-05)
(1.77266 -0.193568 -2.15116e-05)
(1.77535 -0.172869 -1.4337e-05)
(1.77439 -0.153864 -1.18195e-05)
(1.77056 -0.136248 -9.79277e-06)
(1.76449 -0.11981 -7.38288e-06)
(1.7567 -0.104432 -5.3673e-06)
(1.7476 -0.0900421 -3.94214e-06)
(1.73761 -0.0765719 -2.9438e-06)
(1.72704 -0.0639587 -2.0907e-06)
(1.7162 -0.0521343 -1.42072e-06)
(1.70524 -0.0410435 -7.87871e-07)
(1.69437 -0.0306237 -2.80326e-07)
(1.68361 -0.0208328 3.56403e-07)
(1.67313 -0.0116193 7.58358e-07)
(1.66285 -0.00294802 9.74248e-07)
(1.65292 0.00517459 -2.72649e-07)
(1.64308 0.0127272 -7.6e-07)
(1.63361 0.0197837 -8.86909e-07)
(1.62417 0.0263142 -4.3484e-07)
(1.61513 0.0323478 -5.77044e-07)
(1.60593 0.0378189 -1.38584e-07)
(1.59725 0.0427875 -5.7052e-07)
(1.58818 0.0471641 5.62851e-08)
(1.57984 0.0510608 -6.80279e-07)
(1.57081 0.0543482 3.14258e-07)
(1.5629 0.0572214 -9.13979e-07)
(1.55379 0.0594789 7.04832e-07)
(1.54647 0.061441 -1.33673e-06)
(1.53712 0.0627746 1.3336e-06)
(1.53067 0.0639874 -2.03799e-06)
(1.52077 0.064519 2.31877e-06)
(1.51564 0.0651631 -3.06283e-06)
(1.50464 0.064993 3.46552e-06)
(1.50158 0.0652412 -3.69337e-06)
(1.4885 0.0644187 1.99761e-06)
(1.00076 -0.0425031 6.90769e-06)
(1.01666 -0.125393 6.16669e-06)
(1.0504 -0.210523 -6.49075e-06)
(1.10083 -0.287512 -6.26927e-06)
(1.17259 -0.365366 -3.5274e-05)
(1.26351 -0.425153 -2.58399e-05)
(1.37054 -0.471773 -3.79935e-05)
(1.49335 -0.491706 8.17017e-06)
(1.61613 -0.481293 6.45412e-05)
(1.71859 -0.44306 8.398e-05)
(1.78318 -0.387717 4.32442e-05)
(1.81283 -0.33235 -3.27684e-05)
(1.81844 -0.286611 -8.07699e-05)
(1.81165 -0.249887 -7.48312e-05)
(1.79839 -0.218869 -4.05973e-05)
(1.78059 -0.191727 -1.16721e-05)
(1.75936 -0.16769 -1.20417e-07)
(1.73603 -0.146139 2.53796e-06)
(1.71181 -0.126589 4.05367e-06)
(1.68753 -0.10876 5.32064e-06)
(1.66381 -0.0924861 5.75314e-06)
(1.64107 -0.0776274 5.62334e-06)
(1.61966 -0.064036 5.29677e-06)
(1.59976 -0.0515712 4.99658e-06)
(1.5815 -0.0400947 4.61025e-06)
(1.56485 -0.0294843 4.2356e-06)
(1.54983 -0.0196246 3.7648e-06)
(1.53626 -0.0104229 3.42899e-06)
(1.52412 -0.00181476 2.63476e-06)
(1.51314 0.00625661 1.48348e-06)
(1.50328 0.0137974 8.0546e-07)
(1.49428 0.0208769 1.05504e-06)
(1.48619 0.0275342 1.23459e-06)
(1.4786 0.0337149 1.6008e-06)
(1.47172 0.0394531 1.34464e-06)
(1.46502 0.044669 1.54121e-06)
(1.45895 0.0494312 1.01627e-06)
(1.45275 0.0536217 1.34509e-06)
(1.44723 0.0573731 5.92194e-07)
(1.44128 0.0605103 1.19877e-06)
(1.43621 0.0632754 1.25348e-07)
(1.43029 0.0653916 1.18274e-06)
(1.42568 0.0672729 -3.9837e-07)
(1.41961 0.0684556 1.35646e-06)
(1.4156 0.0696188 -1.00012e-06)
(1.40913 0.0699766 1.7766e-06)
(1.40597 0.0706123 -1.71563e-06)
(1.39872 0.0702339 2.2814e-06)
(1.39686 0.0705101 -2.28832e-06)
(1.38821 0.06945 1.14782e-06)
(1.00046 -0.0492756 1.19313e-05)
(1.0191 -0.146585 1.03113e-05)
(1.05627 -0.247003 6.48758e-06)
(1.11421 -0.340543 -1.16129e-05)
(1.19997 -0.438866 -4.32712e-05)
(1.30703 -0.512354 -6.00122e-05)
(1.44193 -0.576393 -8.47559e-05)
(1.60089 -0.600174 -1.33037e-05)
(1.74893 -0.57342 4.97479e-05)
(1.84745 -0.506466 9.66014e-05)
(1.87698 -0.419795 0.000108305)
(1.85671 -0.340391 2.14273e-05)
(1.80619 -0.278522 -6.70506e-05)
(1.74737 -0.23149 -6.85656e-05)
(1.68846 -0.193971 -1.80663e-05)
(1.63133 -0.163324 1.59992e-05)
(1.57701 -0.137888 2.5587e-05)
(1.52689 -0.116269 2.56545e-05)
(1.4818 -0.0975481 2.42883e-05)
(1.44194 -0.0812067 2.15437e-05)
(1.40723 -0.0668801 1.78783e-05)
(1.37737 -0.0542444 1.44184e-05)
(1.35203 -0.0430011 1.1666e-05)
(1.33075 -0.0328924 9.61794e-06)
(1.31309 -0.0236915 7.96772e-06)
(1.29858 -0.0152144 6.55759e-06)
(1.28682 -0.00730292 5.17519e-06)
(1.27734 0.000155634 3.80351e-06)
(1.26984 0.00722096 3.01893e-06)
(1.26394 0.01393 2.89217e-06)
(1.25944 0.0203904 2.97842e-06)
(1.25598 0.0265813 3.29288e-06)
(1.25346 0.032502 3.20324e-06)
(1.25151 0.0380864 3.19119e-06)
(1.25018 0.0433506 2.73616e-06)
(1.24905 0.048202 2.67019e-06)
(1.24836 0.0526858 2.07957e-06)
(1.24759 0.0566712 2.14216e-06)
(1.24721 0.06027 1.4326e-06)
(1.2465 0.0632977 1.6987e-06)
(1.24625 0.0659831 8.4334e-07)
(1.2454 0.0680388 1.36889e-06)
(1.24522 0.0698824 3.54088e-07)
(1.24414 0.071024 1.13553e-06)
(1.24402 0.0721829 1.60989e-08)
(1.24262 0.0724973 8.89687e-07)
(1.24259 0.0731664 -5.05161e-08)
(1.24082 0.0727217 3.84005e-07)
(1.24088 0.0730618 -8.74668e-08)
(1.23873 0.0719252 -5.21396e-07)
(0.999761 -0.0565056 1.89981e-05)
(1.02181 -0.169997 2.07101e-05)
(1.05903 -0.28694 3.2774e-05)
(1.12689 -0.403505 -1.14763e-05)
(1.22306 -0.525482 -2.48956e-05)
(1.34847 -0.622112 -0.000110228)
(1.52429 -0.715722 -0.000123058)
(1.72358 -0.737116 -3.71332e-05)
(1.86602 -0.664174 1.85998e-05)
(1.89304 -0.534051 4.26538e-05)
(1.81746 -0.397034 0.000152217)
(1.69403 -0.291503 0.000116206)
(1.54403 -0.214799 1.00366e-05)
(1.41298 -0.162052 -1.62922e-05)
(1.30535 -0.124302 1.82039e-05)
(1.21813 -0.0980312 2.69662e-05)
(1.1486 -0.0795762 1.7864e-05)
(1.09471 -0.065917 1.19562e-05)
(1.05373 -0.0551994 1.06032e-05)
(1.02291 -0.0463655 9.5894e-06)
(0.999969 -0.0387328 8.26477e-06)
(0.983165 -0.0318552 7.08178e-06)
(0.971172 -0.025454 6.09292e-06)
(0.962953 -0.0193601 5.2113e-06)
(0.957742 -0.0134611 4.30555e-06)
(0.954917 -0.00768802 3.38571e-06)
(0.954034 -0.00198324 2.37334e-06)
(0.954674 0.00366308 1.48648e-06)
(0.956549 0.00933959 1.34001e-06)
(0.959422 0.0149771 1.87718e-06)
(0.963121 0.0205788 2.34672e-06)
(0.967383 0.0260916 2.60036e-06)
(0.972125 0.0314907 2.44474e-06)
(0.977107 0.0367001 2.40134e-06)
(0.982347 0.0417023 2.09633e-06)
(0.987583 0.0463967 2.0772e-06)
(0.992941 0.0507897 1.68167e-06)
(0.998108 0.0547577 1.72555e-06)
(1.00334 0.0583653 1.24133e-06)
(1.00825 0.0614565 1.37964e-06)
(1.01323 0.0641974 8.36019e-07)
(1.01778 0.0663601 1.04348e-06)
(1.02244 0.0682736 5.67693e-07)
(1.02665 0.0695475 6.33464e-07)
(1.0309 0.0707795 6.53269e-07)
(1.03487 0.07124 -1.56053e-07)
(1.03847 0.0719916 1.52164e-06)
(1.04253 0.0716813 -1.96577e-06)
(1.04492 0.0721202 2.86721e-06)
(1.0499 0.0711122 -3.35338e-06)
(0.999092 -0.0639231 2.61591e-05)
(1.02307 -0.193572 4.16567e-05)
(1.05679 -0.329062 6.50723e-05)
(1.13378 -0.474157 1.25684e-05)
(1.22897 -0.623104 3.40708e-05)
(1.38462 -0.765026 -0.000178933)
(1.60588 -0.894471 -7.15859e-05)
(1.80702 -0.870243 -0.000131111)
(1.85797 -0.779123 5.15047e-05)
(1.74698 -0.533731 -0.000145861)
(1.4972 -0.305294 -0.000106472)
(1.2169 -0.163187 -5.53784e-05)
(0.797578 -0.0533133 -3.62298e-05)
(0.688801 -0.0377858 -3.00082e-05)
(0.630305 -0.0347313 2.70256e-05)
(0.599177 -0.0376192 3.52389e-05)
(0.585089 -0.0405161 2.57835e-05)
(0.581001 -0.0414057 1.8217e-05)
(0.582032 -0.040328 1.17897e-05)
(0.585536 -0.0378474 6.17477e-06)
(0.590366 -0.0344363 2.47635e-06)
(0.596043 -0.0304288 5.05001e-07)
(0.602366 -0.0260477 -3.64726e-07)
(0.609236 -0.0214294 -6.00885e-07)
(0.616609 -0.0166474 -5.31656e-07)
(0.624432 -0.0117415 -2.51174e-07)
(0.632681 -0.00672975 1.83788e-07)
(0.641332 -0.00161731 5.57624e-07)
(0.6503 0.00361807 -1.01398e-07)
(0.659471 0.00894228 -2.29864e-07)
(0.668895 0.0143085 7.58707e-08)
(0.678463 0.0196542 4.28365e-07)
(0.688149 0.0249506 5.56961e-07)
(0.697845 0.0301276 7.54318e-07)
(0.707566 0.0351454 7.55656e-07)
(0.717181 0.0399095 9.05846e-07)
(0.726756 0.044396 7.79976e-07)
(0.736132 0.0485011 9.04915e-07)
(0.745437 0.0522436 6.75496e-07)
(0.754481 0.0555116 7.96038e-07)
(0.76344 0.058397 5.24813e-07)
(0.772125 0.0607625 5.9318e-07)
(0.780671 0.0628086 4.75626e-07)
(0.789044 0.064316 1.92477e-07)