/*--------------------------------*- C++ -*----------------------------------*\
  =========                 |
  \\      /  F ield         | OpenFOAM: The Open Source CFD Toolbox
   \\    /   O peration     | Website:  https://openfoam.org
    \\  /    A nd           | Version:  8
     \\/     M anipulation  |
\*---------------------------------------------------------------------------*/
FoamFile
{
    version     2.0;
    format      ascii;
    class       surfaceScalarField;
    location    "35";
    object      phi;
}
// * * * * * * * * * * * * * * * * * * * * * * * * * * * * * * * * * * * * * //

dimensions      [0 3 -1 0 0 0 0];

internalField   nonuniform List<scalar> 
208
(
1.47942e-05
-1.47942e-05
2.81114e-05
-1.33173e-05
2.86782e-05
-5.66805e-07
6.54893e-06
2.21293e-05
-6.52768e-05
7.18257e-05
6.73776e-05
-0.000132654
-2.58233e-06
-1.22118e-05
-1.90272e-05
3.12766e-06
-5.65282e-05
3.69341e-05
-0.000100786
6.63873e-05
-0.000124832
9.58716e-05
6.87655e-05
-0.00012622
-1.68e-05
4.58817e-06
-4.46059e-05
3.09335e-05
-7.4232e-05
6.65603e-05
-9.93622e-05
9.15174e-05
-0.000105261
0.00010177
5.77257e-05
-9.42211e-05
-1.92688e-05
2.3857e-05
-4.14661e-05
5.31308e-05
-6.26361e-05
8.77303e-05
-7.3779e-05
0.00010266
-6.80397e-05
9.60308e-05
4.2362e-05
-5.26759e-05
-1.31793e-05
3.70363e-05
-3.04289e-05
7.03804e-05
-4.16762e-05
9.89777e-05
-4.38022e-05
0.000104786
-3.77379e-05
8.99665e-05
3.80646e-05
-3.34405e-05
-5.16602e-06
4.22023e-05
-8.4651e-06
7.36795e-05
-9.7691e-06
0.000100282
-1.00248e-05
0.000105042
-8.56798e-06
8.85097e-05
4.23969e-05
-1.29003e-05
5.17514e-06
3.70272e-05
6.8215e-06
7.20331e-05
1.40823e-05
9.30208e-05
2.58939e-05
9.32305e-05
3.97996e-05
7.4604e-05
4.24424e-05
3.97541e-05
1.16346e-05
2.53926e-05
2.95344e-05
5.41333e-05
5.26641e-05
6.98911e-05
7.00748e-05
7.58198e-05
8.62946e-05
5.83841e-05
4.24443e-05
8.62928e-05
-3.9387e-05
6.47796e-05
-2.2031e-05
3.67773e-05
6.32173e-06
4.15384e-05
3.91734e-05
4.29681e-05
6.4711e-05
3.28466e-05
2.64911e-05
8.06642e-05
6.47796e-05
0.000101557
0.000143095
0.000186063
0.00021891
0.000245401
-0.000109328
0.000100041
-0.000123367
-6.32435e-05
-4.34157e-05
-2.66896e-06
-2.18308e-05
-4.27104e-05
1.2977e-06
-0.000146569
0.000124738
-0.000100737
7.45583e-05
-8.40559e-05
-6.00971e-05
-3.9076e-05
-8.76903e-05
-0.000185645
-6.37549e-05
4.40921e-05
-5.85163e-05
-6.53357e-05
-3.49734e-05
-0.000111233
-0.000220618
-2.99004e-05
2.13166e-05
-2.8239e-05
-6.69971e-05
-2.00064e-05
-0.000119466
-0.000240625
-1.66676e-05
4.54362e-06
-1.69939e-05
-6.66708e-05
-1.50928e-05
-0.000121367
-0.000255718
3.5409e-06
-1.18976e-05
3.31291e-07
-6.34612e-05
-4.9929e-06
-0.000116043
-0.000260711
4.06467e-05
-1.27902e-05
1.74741e-05
-4.02886e-05
8.68874e-07
-9.94376e-05
-0.000259842
7.17927e-05
1.70989e-06
3.96471e-05
-8.14296e-06
2.44321e-05
-8.42226e-05
-0.00023541
7.62444e-05
6.12968e-06
7.3681e-05
-5.57956e-06
6.40418e-05
-7.45834e-05
-0.000171368
0.000251531
0.000245951
0.000171368
-3.62367e-05
3.62367e-05
-6.05388e-05
2.43021e-05
-5.55566e-05
-4.98215e-06
-5.55566e-05
-3.39217e-05
7.01584e-05
-4.25314e-05
3.29117e-05
-4.10935e-05
-6.42009e-06
-9.66501e-05
-2.37826e-05
9.3941e-05
-1.36555e-05
2.27846e-05
-2.32527e-05
3.17709e-06
-0.000119903
-2.9426e-05
-9.31037e-06
-4.83558e-06
)
;

boundaryField
{
    movingWall
    {
        type            calculated;
        value           uniform 0;
    }
    fixedWalls
    {
        type            calculated;
        value           uniform 0;
    }
    frontAndBack
    {
        type            empty;
        value           nonuniform List<scalar> 0();
    }
}


// ************************************************************************* //
