/*--------------------------------*- C++ -*----------------------------------*\
  =========                 |
  \\      /  F ield         | OpenFOAM: The Open Source CFD Toolbox
   \\    /   O peration     | Website:  https://openfoam.org
    \\  /    A nd           | Version:  8
     \\/     M anipulation  |
\*---------------------------------------------------------------------------*/
FoamFile
{
    version     2.0;
    format      ascii;
    class       volVectorField;
    location    "35";
    object      U;
}
// * * * * * * * * * * * * * * * * * * * * * * * * * * * * * * * * * * * * * //

dimensions      [0 1 -1 0 0 0 0];

internalField   nonuniform List<vector> 
116
(
(0.0137724 -0.0107575 0)
(0.0148942 -0.0152286 0)
(0.0427036 -0.0227919 0)
(0.0115887 -0.013511 0)
(0.00394269 0.0594006 0)
(-0.144438 0.0821291 0)
(0.00416725 -0.019087 0)
(-0.00969212 -0.010835 0)
(-0.026584 0.0218729 0)
(-0.0912806 0.0562954 0)
(-0.103792 0.0824208 0)
(-0.151348 0.0598343 0)
(-0.0037281 -0.00461817 0)
(-0.0306669 0.0173026 0)
(-0.0564781 0.0514728 0)
(-0.0947755 0.0796385 0)
(-0.102286 0.105792 0)
(-0.111658 0.0709282 0)
(-0.0076443 0.0137244 0)
(-0.0305249 0.0453409 0)
(-0.0510402 0.0814631 0)
(-0.0761474 0.101603 0)
(-0.0736909 0.101079 0)
(-0.0610267 0.0481475 0)
(-0.00362012 0.0344987 0)
(-0.0221652 0.0603072 0)
(-0.0377155 0.0926373 0)
(-0.0471203 0.100975 0)
(-0.0427695 0.0881006 0)
(-0.0312994 0.0345035 0)
(-0.00229406 0.0380119 0)
(-0.0075683 0.0787605 0)
(-0.00908813 0.103592 0)
(-0.0107333 0.110035 0)
(-0.0105484 0.0934607 0)
(-0.00594486 0.0428859 0)
(0.00352811 0.0483122 0)
(0.00715465 0.0698181 0)
(0.00699266 0.0974805 0)
(0.0207334 0.0973089 0)
(0.0292694 0.0800727 0)
(0.0493644 0.0386932 0)
(0.00616493 0.0233145 0)
(0.0180368 0.075094 0)
(0.0414516 0.088672 0)
(0.0643618 0.0923926 0)
(0.0734093 0.0734485 0)
(0.0967357 0.0502814 0)
(-0.0589554 0.0308318 0)
(-0.0222882 0.0301528 0)
(-0.0194494 0.0508356 0)
(0.0314005 0.0573411 0)
(0.0456563 0.0413398 0)
(0.0823283 0.0317535 0)
(0.0509513 0.0924462 0)
(0.0854891 0.0467493 0)
(0.1124 0.0345575 0)
(0.174517 0.0310113 0)
(0.192578 0.0258592 0)
(0.243405 0.0233492 0)
(-0.110068 0.119639 0)
(-0.100981 -0.0278346 0)
(-0.0328257 -0.0141041 0)
(-0.00739917 -0.130821 0)
(-0.103959 0.0862194 0)
(-0.0924729 -0.0616483 0)
(-0.079258 -0.072913 0)
(0.004015 -0.167974 0)
(-0.0778126 0.0582024 0)
(-0.0472854 -0.0616734 0)
(-0.068832 -0.106431 0)
(0.0011942 -0.208072 0)
(-0.0465493 0.0327608 0)
(-0.0112961 -0.0656299 0)
(-0.0467144 -0.114474 0)
(0.00880881 -0.230991 0)
(-0.0371114 0.00912278 0)
(0.00538476 -0.0698437 0)
(-0.0410385 -0.125726 0)
(0.0128407 -0.252846 0)
(-0.0211043 0.000228527 0)
(0.0291897 -0.0613019 0)
(-0.0288362 -0.113272 0)
(0.0201404 -0.261404 0)
(0.0279788 -0.0259137 0)
(0.0573909 -0.0696271 0)
(-0.0257778 -0.125786 0)
(0.0283502 -0.266434 0)
(0.0743618 0.00313548 0)
(0.0732914 -0.0062116 0)
(0.00122746 -0.064479 0)
(0.0524955 -0.242157 0)
(0.0752121 -0.000678422 0)
(0.081742 -0.0125963 0)
(0.0579154 -0.114715 0)
(0.080156 -0.249389 0)
(0.239601 0.0146041 0)
(0.266634 0.0037003 0)
(0.210964 -0.0221411 0)
(0.154104 -0.0683398 0)
(-0.0195249 0.00614746 0)
(-0.0544732 0.00520501 0)
(-0.0693822 -0.00197629 0)
(-0.0376411 -0.0337859 0)
(-0.0200538 0.0665299 0)
(-0.0460526 0.0445674 0)
(-0.0424424 -0.00868362 0)
(-0.0362808 -0.0800303 0)
(-0.0336128 0.0714357 0)
(-0.0121251 0.01755 0)
(-0.0170184 -0.00499291 0)
(-0.0273801 -0.118522 0)
(-0.0101042 0.120252 0)
(-0.0431479 0.0322064 0)
(0.0212128 0.0119187 0)
(-0.0290616 -0.114619 0)
)
;

boundaryField
{
    movingWall
    {
        type            fixedValue;
        value           uniform (1 0 0);
    }
    fixedWalls
    {
        type            noSlip;
    }
    frontAndBack
    {
        type            empty;
    }
}


// ************************************************************************* //
