/*--------------------------------*- C++ -*----------------------------------*\
  =========                 |
  \\      /  F ield         | OpenFOAM: The Open Source CFD Toolbox
   \\    /   O peration     | Website:  https://openfoam.org
    \\  /    A nd           | Version:  8
     \\/     M anipulation  |
\*---------------------------------------------------------------------------*/
FoamFile
{
    version     2.0;
    format      ascii;
    class       volScalarField;
    location    "0.759";
    object      T;
}
// * * * * * * * * * * * * * * * * * * * * * * * * * * * * * * * * * * * * * //

dimensions      [0 0 0 1 0 0 0];

internalField   nonuniform List<scalar> 
2500
(
50
4.65352
-4.65308
-1.18516
1.1831
0.459625
-0.453605
-0.233325
0.219982
0.146555
-0.12184
-0.109418
0.0693403
0.0917229
-0.0336379
-0.0802087
0.00456846
0.0676464
0.0200932
-0.0498376
-0.0384544
0.0258099
0.0466048
0.00117964
-0.0404647
-0.02518
0.0215802
0.0360371
0.00489553
-0.0290472
-0.0265771
0.00824433
0.0283008
0.0178351
-0.0126294
-0.0273808
-0.0102688
0.0110307
0.0253337
0.0102531
-0.0125833
-0.0177699
-0.0153246
0.00843081
0.0191022
0.0100124
0.00487773
-0.0158819
-0.0171222
-0.00105162
95.3466
49.9998
10.4915
-4.65163
-2.82743
1.17807
1.14604
-0.441685
-0.599491
0.197135
0.377854
-0.0839845
-0.271243
0.0135589
0.207327
0.0400718
-0.155185
-0.0823575
0.100954
0.109162
-0.0404832
-0.113791
-0.0199325
0.0901723
0.0673605
-0.0407919
-0.086764
-0.016992
0.0647661
0.063101
-0.0147397
-0.068614
-0.037739
0.0269068
0.0644357
0.0234033
-0.0334001
-0.0512468
-0.0255615
0.0358537
0.044529
0.0210955
-0.0154291
-0.0519632
-0.0199218
0.00746651
0.0272707
0.0451709
-0.00228753
-0.020388
104.653
89.5086
49.9995
12.1336
-4.64864
-3.51378
1.16905
1.51262
-0.422498
-0.832172
0.163383
0.54253
-0.0320987
-0.39153
-0.0574364
0.288701
0.126705
-0.19573
-0.174711
0.0980876
0.191226
0.002568
-0.167052
-0.0881638
0.0984218
0.13755
-0.00535483
-0.12705
-0.0791485
0.0566876
0.118621
0.030762
-0.0770588
-0.0951554
-0.0095906
0.0864857
0.0713139
0.0036547
-0.0762682
-0.0735115
0.00860468
0.050619
0.07454
0.0147098
-0.0569487
-0.0463096
-0.0442953
0.0208996
0.0695663
0.0229118
101.185
104.652
87.8664
49.9991
12.8201
-4.64358
-3.88101
1.15508
1.7472
-0.394812
-1.00077
0.117603
0.669382
0.0341459
-0.482281
-0.142369
0.340359
0.222492
-0.203822
-0.265785
0.0617889
0.258407
0.0716901
-0.190236
-0.167711
0.0704893
0.196282
0.0581391
-0.133312
-0.150493
0.0145811
0.149098
0.0965552
-0.0455432
-0.142683
-0.0658416
0.063708
0.113982
0.0689081
-0.0686716
-0.100859
-0.0548721
0.0229029
0.113685
0.053302
-0.00956375
-0.0539636
-0.103982
-0.00564324
0.0419433
98.8165
102.827
104.65
87.1799
49.9986
13.1878
-4.63595
-4.11731
1.13522
1.91981
-0.357532
-1.13489
0.0589731
0.771279
0.1145
-0.548387
-0.239253
0.363994
0.322545
-0.180505
-0.348956
-0.00352658
0.302971
0.158101
-0.178411
-0.246729
0.0110978
0.227974
0.140488
-0.102562
-0.211433
-0.0535672
0.138122
0.168845
0.0157375
-0.154236
-0.126081
-0.00533628
0.135884
0.129703
-0.01622
-0.0902594
-0.131736
-0.024965
0.10136
0.0818634
0.0778072
-0.0380126
-0.123109
-0.0400856
99.5406
98.8207
103.514
104.646
86.8121
49.9979
13.4251
-4.62525
-4.29319
1.10861
2.06076
-0.309698
-1.24823
-0.0129634
0.853833
0.208243
-0.591513
-0.345231
0.360026
0.421403
-0.127177
-0.41792
-0.0913459
0.31748
0.253348
-0.1323
-0.310854
-0.0733236
0.222481
0.229113
-0.0405997
-0.239247
-0.140313
0.0857492
0.225226
0.0903423
-0.11049
-0.178942
-0.0963418
0.118305
0.156368
0.0780677
-0.0469249
-0.179595
-0.0746342
0.0218943
0.0907876
0.15893
-0.00167221
-0.0688014
100.454
98.8539
98.8286
103.881
104.64
86.5745
49.9971
13.6029
-4.61102
-4.43943
1.07446
2.18445
-0.25051
-1.34726
-0.0983106
0.919073
0.314223
-0.611979
-0.456413
0.328122
0.514026
-0.0472637
-0.465553
-0.195059
0.297716
0.347565
-0.0567755
-0.344977
-0.176713
0.180307
0.303501
0.0465803
-0.219925
-0.234096
0.00701423
0.235833
0.168211
-0.0162553
-0.20943
-0.171875
0.044274
0.140927
0.183858
0.0120657
-0.156183
-0.115181
-0.0999691
0.0760528
0.177114
0.0485286
100.233
100.443
98.4868
98.8413
104.118
104.631
86.3965
49.9961
13.7522
-4.5928
-4.57101
1.03199
2.29815
-0.179404
-1.43475
-0.196987
0.967429
0.430494
-0.609166
-0.56866
0.268502
0.595364
0.0540379
-0.484361
-0.30907
0.245316
0.42653
0.0445193
-0.340949
-0.287843
0.108102
0.339533
0.156651
-0.158954
-0.309134
-0.0841433
0.18104
0.243301
0.0959701
-0.191702
-0.206894
-0.0826502
0.0961453
0.247638
0.0751814
-0.0498301
-0.141428
-0.203777
0.0329304
0.102256
99.7792
100.6
100.425
98.2515
98.8597
104.295
104.618
86.247
49.9951
13.8882
-4.57016
-4.69575
0.980476
2.40554
-0.0959842
-1.5115
-0.308711
0.998645
0.554191
-0.581599
-0.678574
0.18365
0.658514
0.172697
-0.47057
-0.425093
0.164107
0.475225
0.169342
-0.301849
-0.384256
0.00711096
0.325709
0.279409
-0.0733671
-0.330092
-0.186086
0.0718571
0.297037
0.187329
-0.100937
-0.203283
-0.222539
0.035542
0.221075
0.141442
0.10215
-0.142453
-0.225905
-0.0424794
99.8536
99.8009
100.834
100.399
98.0778
98.8847
104.442
104.602
86.1106
49.9939
14.0192
-4.54262
-4.81797
0.919322
2.50821
0.000208537
-1.5775
-0.432457
1.01143
0.682614
-0.528543
-0.782113
0.0770522
0.695893
0.305942
-0.426078
-0.528613
0.0535532
0.487615
0.30701
-0.232546
-0.440632
-0.126582
0.272155
0.3833
0.0301703
-0.27761
-0.296648
-0.0531256
0.29119
0.241715
0.0579149
-0.17626
-0.309067
-0.043708
0.0974103
0.2054
0.226894
-0.0959738
-0.140938
100.123
99.6211
99.8334
101.003
100.363
97.9355
98.917
104.575
104.582
85.9791
49.9925
14.1498
-4.50976
-4.93997
0.847944
2.60661
0.109441
-1.63226
-0.566373
1.00354
0.813905
-0.451777
-0.872185
-0.0503039
0.704602
0.446081
-0.352251
-0.60512
-0.0878376
0.468609
0.431941
-0.12659
-0.449398
-0.281781
0.194211
0.426748
0.160859
-0.170067
-0.387714
-0.158765
0.191644
0.27069
0.231758
-0.126279
-0.288722
-0.151165
-0.0729895
0.238012
0.256917
0.0158617
100.11
100.086
99.4549
99.8781
101.139
100.317
97.8101
98.9576
104.701
104.557
85.8482
49.991
14.2827
-4.47137
-5.06278
0.765622
2.70105
0.231038
-1.67415
-0.709263
0.974097
0.944882
-0.353345
-0.941462
-0.198388
0.687416
0.57771
-0.243415
-0.652223
-0.248319
0.419438
0.518976
0.0260819
-0.425913
-0.41872
0.0868616
0.394248
0.317305
-0.0503726
-0.40546
-0.242949
0.00972272
0.286069
0.341434
-0.0309446
-0.164811
-0.273435
-0.206627
0.193006
0.176716
99.9295
100.273
100.035
99.3261
99.9358
101.255
100.259
97.6944
99.0072
104.825
104.526
85.7148
49.9893
14.42
-4.42724
-5.18703
0.671635
2.79174
0.363994
-1.70082
-0.861308
0.924727
1.0691
-0.231129
-0.988938
-0.360505
0.642973
0.688829
-0.0945613
-0.676884
-0.400528
0.324232
0.568329
0.211518
-0.379805
-0.494218
-0.071611
0.314158
0.458731
0.0592626
-0.311568
-0.328565
-0.187433
0.266937
0.339155
0.130023
-0.00250194
-0.357334
-0.24605
0.0397771
99.9077
99.9847
100.396
99.9692
99.2218
100.007
101.357
100.189
97.5847
99.0664
104.949
104.49
85.5772
49.9874
14.5627
-4.37653
-5.31335
0.56569
2.8772
0.509019
-1.71132
-1.02032
0.85458
1.18111
-0.0827755
-1.01645
-0.522689
0.559318
0.781998
0.0813756
-0.671736
-0.525155
0.16733
0.59773
0.38346
-0.285858
-0.503102
-0.277286
0.223334
0.515688
0.181646
-0.126336
-0.413379
-0.319375
0.159411
0.244424
0.330123
0.123075
-0.322076
-0.199769
100.035
99.7898
100.056
100.489
99.8887
99.1363
100.092
101.447
100.106
97.4792
99.1355
105.075
104.448
85.4346
49.9846
14.7115
-4.31881
-5.44108
0.447716
2.95489
0.666951
-1.7065
-1.17898
0.757503
1.28217
0.0827998
-1.01563
-0.677205
0.430495
0.861928
0.254575
-0.607473
-0.631778
-0.0283802
0.600453
0.499642
-0.110587
-0.480637
-0.466111
0.11838
0.446932
0.342051
0.0696726
-0.435107
-0.348227
-0.0620832
0.124528
0.4689
0.176164
-0.119817
100.081
99.9608
99.7059
100.141
100.558
99.7944
99.0679
100.191
101.528
100.01
97.3779
99.2149
105.203
104.399
85.2873
49.9808
14.8673
-4.25579
-5.56816
0.316677
3.02597
0.83414
-1.6852
-1.33307
0.631745
1.37559
0.249203
-0.970487
-0.832986
0.277342
0.91275
0.41205
-0.471198
-0.739858
-0.205571
0.534291
0.570697
0.125211
-0.456581
-0.55566
-0.0410813
0.297039
0.510452
0.193273
-0.322086
-0.314492
-0.330137
0.0491815
0.439087
0.181122
99.9946
100.159
99.8732
99.6518
100.239
100.604
99.6871
99.0167
100.303
101.597
99.9009
97.2811
99.3059
105.333
104.342
85.1345
49.9767
15.032
-4.18847
-5.69472
0.170307
3.09419
1.00655
-1.64193
-1.48938
0.485825
1.45389
0.417801
-0.879228
-0.99781
0.124616
0.903682
0.58064
-0.296334
-0.831877
-0.343551
0.367357
0.647535
0.346463
-0.398572
-0.536676
-0.283529
0.158328
0.603596
0.254605
-0.065358
-0.305007
-0.527203
0.00635201
0.225978
99.9308
100.083
100.201
99.7752
99.626
100.348
100.627
99.568
98.9827
100.428
101.656
99.7771
97.1883
99.4088
105.468
104.276
84.9741
49.971
15.2065
-4.11242
-5.82299
0.00843916
3.15332
1.18922
-1.57383
-1.6477
0.322492
1.49859
0.60732
-0.759057
-1.1423
-0.0441551
0.825655
0.774187
-0.122611
-0.839014
-0.488617
0.127664
0.721735
0.491279
-0.219668
-0.471952
-0.552767
0.049695
0.519085
0.339786
0.263674
-0.310312
-0.54109
-0.113556
99.9799
99.8954
100.178
100.212
99.6716
99.6278
100.463
100.627
99.4401
98.9664
100.564
101.705
99.6406
97.1003
99.5205
105.608
104.203
84.8092
49.9596
15.3884
-4.02597
-5.94927
-0.163534
3.18935
1.38781
-1.49204
-1.78064
0.12925
1.50922
0.805594
-0.623907
-1.21555
-0.262306
0.720893
0.925766
0.0520878
-0.722006
-0.668001
-0.0859454
0.691
0.555137
0.0830946
-0.417507
-0.682297
-0.0782307
0.24334
0.457306
0.479238
-0.22599
-0.311156
100.052
99.8882
99.8967
100.272
100.19
99.5689
99.6577
100.579
100.603
99.3079
98.9709
100.707
101.74
99.4925
97.0225
99.6401
105.749
104.119
84.647
49.9432
15.5792
-3.94108
-6.06747
-0.342617
3.20952
1.59546
-1.41312
-1.87051
-0.10323
1.52362
0.96598
-0.462577
-1.23309
-0.515491
0.64776
0.963616
0.269176
-0.567853
-0.838981
-0.198514
0.504562
0.622731
0.361925
-0.39782
-0.593335
-0.269717
-0.0278909
0.567288
0.440728
-0.0334145
100.039
100.043
99.8031
99.9329
100.359
100.136
99.4727
99.7175
100.691
100.552
99.1725
99.0007
100.859
101.756
99.3282
96.9579
99.7743
105.892
104.015
84.4822
49.9283
15.7888
-3.86066
-6.18591
-0.540579
3.23393
1.8098
-1.32217
-1.95021
-0.370578
1.55254
1.08895
-0.236566
-1.26909
-0.759385
0.563799
0.931096
0.574608
-0.467631
-0.93401
-0.317374
0.218782
0.784424
0.530828
-0.304824
-0.430202
-0.594024
-0.161912
0.592566
0.333185
99.9729
100.118
99.999
99.7322
100.001
100.432
100.053
99.386
99.8062
100.8
100.474
99.0323
99.0542
101.021
101.76
99.1436
96.8998
99.9227
106.049
103.898
84.3014
49.9082
16.0147
-3.7551
-6.31428
-0.760596
3.23267
2.04208
-1.18298
-2.0329
-0.650835
1.50926
1.22415
0.0514275
-1.2855
-0.955554
0.336676
0.894065
0.889412
-0.324554
-0.858646
-0.574539
-0.0966903
0.863602
0.6042
0.0589665
-0.260476
-0.886116
-0.274743
0.259125
99.9513
100.02
100.175
99.9268
99.6825
100.093
100.486
99.9484
99.314
99.9161
100.899
100.377
98.8937
99.1248
101.183
101.759
98.9486
96.8488
100.066
106.22
103.777
84.1221
49.8678
16.2324
-3.61631
-6.43969
-0.959216
3.15197
2.29222
-1.0366
-2.05286
-0.903421
1.34805
1.37446
0.270736
-1.15249
-1.08738
0.0191151
0.855206
0.982356
-0.0481977
-0.643964
-0.810699
-0.262954
0.617409
0.552969
0.482703
-0.134042
-0.733798
-0.291814
99.9995
99.9042
100.091
100.202
99.8378
99.6633
100.199
100.51
99.8292
99.2696
100.043
100.974
100.262
98.7727
99.2199
101.329
101.738
98.7527
96.8282
100.201
106.384
103.637
83.9742
49.8254
16.4461
-3.49707
-6.56515
-1.11024
3.03422
2.56899
-0.975765
-1.99576
-1.15384
1.20514
1.52935
0.346418
-0.907796
-1.27099
-0.166943
0.84278
0.886406
0.296916
-0.601451
-0.896779
-0.21616
0.252945
0.633707
0.619171
-0.245484
-0.36228
100.043
99.9307
99.8948
100.173
100.19
99.7396
99.6841
100.316
100.494
99.6931
99.2621
100.196
101.016
100.113
98.6686
99.3589
101.471
101.68
98.5343
96.8445
100.365
106.54
103.449
83.8166
49.8112
16.7026
-3.39128
-6.72722
-1.2956
2.94755
2.8963
-0.915401
-1.9481
-1.50629
1.12301
1.68273
0.508559
-0.656891
-1.60011
-0.301202
0.730416
0.951021
0.751995
-0.703469
-0.923908
-0.428929
-0.10963
0.999593
0.720043
-0.101391
100.026
100.043
99.8556
99.9254
100.259
100.139
99.6364
99.7419
100.444
100.445
99.5388
99.2802
100.378
101.044
99.9344
98.5579
99.5324
101.63
101.611
98.2727
96.8594
100.561
106.734
103.253
83.5894
49.7922
16.9717
-3.1826
-6.90961
-1.54744
2.79931
3.20345
-0.672174
-1.90543
-1.85542
0.875827
1.71339
0.875704
-0.360859
-1.72507
-0.586939
0.296001
1.06579
1.13523
-0.404197
-0.669885
-0.927405
-0.568038
0.86487
0.642604
99.9767
100.093
100.006
99.7888
99.9874
100.334
100.062
99.5435
99.8229
100.564
100.376
99.3897
99.3126
100.557
101.061
99.7617
98.4481
99.7017
101.778
101.57
98.0096
96.8663
100.712
106.959
103.101
83.3694
49.7344
17.1439
-2.88086
-7.07142
-1.68417
2.50779
3.40572
-0.39262
-1.82875
-1.91031
0.444945
1.65442
1.06594
-0.13861
-1.38328
-0.863661
-0.0365332
0.916577
0.959071
0.126594
-0.304111
-0.94882
-0.494451
0.175799
99.9612
100.016
100.139
99.9419
99.7517
100.072
100.374
99.9627
99.489
99.9285
100.645
100.275
99.2771
99.3854
100.706
101.028
99.6052
98.3961
99.875
101.864
101.504
97.7928
96.9359
100.822
107.126
102.918
83.247
49.7162
17.2794
-2.66885
-7.28558
-1.66546
2.23436
3.67331
-0.326374
-1.8209
-1.85533
0.0802011
1.86811
0.989238
-0.0638624
-1.14714
-1.19865
0.185932
0.805743
0.754486
0.450015
-0.659889
-0.805555
-0.115097
99.9957
99.9303
100.081
100.144
99.856
99.7609
100.18
100.364
99.832
99.4839
100.079
100.684
100.115
99.1904
99.5311
100.857
100.918
99.4125
98.4094
100.118
101.923
101.339
97.5608
97.0787
101.029
107.241
102.633
83.072
49.7835
17.5662
-2.50507
-7.57732
-1.8333
2.05675
4.11977
-0.194338
-1.79937
-2.16601
-0.302235
2.17655
1.12562
0.365969
-1.26094
-1.77051
0.154021
0.580661
1.2897
1.04892
-0.952488
-0.835766
100.031
99.9321
99.9405
100.162
100.108
99.7544
99.8103
100.309
100.318
99.6713
99.5052
100.269
100.711
99.9105
99.0909
99.718
101.045
100.785
99.1639
98.4049
100.424
102.036
101.152
97.2344
97.1815
101.333
107.437
102.38
82.6975
49.8103
17.8762
-2.12328
-7.75906
-2.24335
1.78252
4.33495
0.312123
-1.53312
-2.49755
-0.786687
1.82767
1.38977
1.09503
-1.00553
-1.79496
-0.551293
-0.208645
1.48409
1.40787
-0.0346235
100.03
100.016
99.8677
99.9846
100.236
100.044
99.6626
99.8816
100.427
100.254
99.5234
99.538
100.445
100.729
99.7273
98.9966
99.8813
101.215
100.693
98.9411
98.3676
100.672
102.164
101.062
96.9129
97.2217
101.51
107.71
102.263
82.3682
49.7473
17.917
-1.61891
-7.82952
-2.3776
1.43155
4.12605
0.796885
-1.37036
-2.22038
-1.02429
1.16833
1.43284
1.03564
-0.466667
-1.1027
-0.900186
-0.368898
0.802986
0.610581
99.9896
100.077
99.9698
99.8315
100.052
100.269
99.959
99.621
99.9769
100.487
100.157
99.4363
99.6202
100.566
100.675
99.5882
98.9903
100.037
101.272
100.582
98.8062
98.4323
100.826
102.184
100.956
96.752
97.3531
101.558
107.86
102.062
82.3211
49.7575
17.9313
-1.37125
-8.10688
-2.19502
1.21766
4.18904
0.970589
-1.69157
-1.86196
-1.23951
1.25379
1.70429
0.452024
-0.23756
-1.27051
-1.0133
0.548221
0.575911
99.9694
100.039
100.085
99.9002
99.8473
100.144
100.241
99.8421
99.6466
100.121
100.483
99.9888
99.4009
99.7977
100.664
100.508
99.4249
99.0964
100.275
101.245
100.339
98.6791
98.6595
101.05
102.112
100.645
96.6405
97.6271
101.803
107.865
101.626
82.2134
49.8754
18.3769
-1.2599
-8.50986
-2.43172
0.965239
4.80107
1.28151
-1.73
-2.10964
-2.07875
1.52574
2.09273
0.918743
0.380046
-2.2142
-1.63
0.243569
99.9801
99.972
100.104
100.047
99.8154
99.9113
100.256
100.167
99.6936
99.7123
100.31
100.454
99.7613
99.3653
100.037
100.801
100.287
99.1935
99.2128
100.608
101.264
100.017
98.4478
98.8879
101.438
102.106
100.26
96.3173
97.8679
102.275
108.013
101.251
81.6823
49.8895
18.9026
-0.797246
-8.51168
-3.15333
0.480534
4.92991
1.85921
-0.859632
-2.31814
-2.77314
0.806398
1.5304
1.91607
1.38224
-1.72405
-1.41195
100.014
99.9256
100.013
100.164
99.9786
99.7409
99.9967
100.356
100.078
99.5595
99.7848
100.482
100.425
99.5578
99.3266
100.24
100.939
100.114
98.9847
99.2553
100.906
101.323
99.8134
98.1692
99.0013
101.758
102.219
100.078
95.8852
97.979
102.497
108.42
101.137
81.189
49.7548
18.8284
-0.104725
-8.27165
-3.38835
0.182972
4.14086
2.213
-0.308329
-1.93038
-2.17969
-0.148661
0.756016
1.69329
0.985912
-0.25194
100.032
99.975
99.897
100.072
100.183
99.9026
99.7217
100.086
100.386
99.98
99.508
99.8799
100.563
100.346
99.4481
99.3683
100.37
100.951
99.9837
98.9224
99.3309
101.046
101.263
99.7403
98.0536
99.1544
101.789
102.265
99.9781
95.7766
98.1259
102.367
108.692
100.905
81.3111
49.7246
18.5965
0.21199
-8.62038
-2.96815
0.240141
3.81505
2.49841
-1.07066
-1.68642
-1.64563
-0.314142
1.69207
1.07195
-0.0785163
100.01
100.039
99.9237
99.9236
100.135
100.131
99.8222
99.7897
100.192
100.316
99.8415
99.5613
100.052
100.552
100.147
99.3967
99.5657
100.51
100.787
99.7674
98.9866
99.6076
101.115
101.005
99.5305
98.1652
99.5235
101.793
102.042
99.6042
95.9667
98.4807
102.534
108.528
100.275
81.4775
49.877
19.2112
0.241787
-9.35799
-3.09479
-0.160717
4.65939
3.24441
-1.45097
-1.73702
-3.00079
-0.667405
2.88916
1.41933
99.9883
100.057
99.9941
99.8746
100.009
100.197
100.013
99.7319
99.9275
100.327
100.18
99.6474
99.6661
100.307
100.522
99.8461
99.3109
99.8615
100.742
100.575
99.3984
99.0273
100.019
101.336
100.675
99.0906
98.2191
100.022
102.145
101.703
99.0299
95.8092
98.962
103.232
108.42
99.7058
80.775
49.9256
20.1892
0.721552
-9.20251
-4.12053
-1.23271
4.96587
3.73939
0.094137
-1.1309
-4.33519
-1.54974
1.22487
99.9699
100.032
100.089
99.9145
99.8418
100.12
100.244
99.8778
99.6521
100.074
100.455
100.046
99.4573
99.7567
100.549
100.525
99.5681
99.1942
100.091
101.01
100.448
99.0523
98.9492
100.329
101.678
100.476
98.7288
97.9711
100.429
102.567
101.689
98.6496
95.191
99.2901
103.641
108.96
99.5921
79.8197
49.7497
20.0533
1.64863
-8.28177
-4.63892
-1.55475
3.61487
3.22477
1.49277
-0.523009
-2.87104
-1.3166
99.988
99.955
100.089
100.087
99.844
99.8515
100.205
100.238
99.7784
99.6422
100.182
100.494
99.9399
99.3819
99.8419
100.659
100.489
99.4292
99.1811
100.193
101.127
100.35
98.9632
98.8806
100.481
101.757
100.447
98.6559
97.7773
100.637
102.497
101.98
98.4736
95.0418
99.3199
103.335
109.584
99.4343
80.0065
49.6585
19.2007
2.16665
-8.50987
-4.01261
-0.66028
2.53814
3.25964
0.472801
-1.49045
-0.838859
100.016
99.9484
99.9844
100.118
100.029
99.8186
99.9344
100.237
100.135
99.7283
99.7589
100.264
100.378
99.8158
99.478
100.008
100.615
100.283
99.4016
99.3851
100.323
100.968
100.116
99.0451
99.1096
100.64
101.442
100.286
98.6536
98.1687
100.787
102.149
101.813
98.191
95.7431
99.4203
103.281
109.231
98.6851
80.8073
49.8329
19.7655
2.13278
-10.0652
-3.77342
-0.844106
3.39905
5.25507
-0.745164
-2.11406
100.02
99.9761
99.9432
100.062
100.101
99.912
99.8422
100.093
100.227
99.9347
99.6978
99.9907
100.365
100.14
99.619
99.6751
100.311
100.521
99.905
99.321
99.7633
100.62
100.708
99.6593
99.0072
99.6428
100.971
101.164
99.6697
98.4854
98.8073
101.275
102.194
100.914
97.6991
96.0997
100.14
104.179
108.411
97.8419
80.1525
49.9574
21.7003
2.49389
-10.1562
-4.93039
-3.31341
4.21205
6.40693
0.950304
100.019
100.017
99.9084
99.9769
100.162
100.05
99.7737
99.8928
100.276
100.202
99.7107
99.6642
100.242
100.487
99.9015
99.3823
99.846
100.65
100.497
99.5208
99.1255
100.105
100.988
100.64
99.1088
98.8247
99.9988
101.516
101.191
98.9713
98.1572
98.8708
102.192
102.515
100.418
97.0472
95.345
101.109
104.973
108.855
97.6255
78.2186
49.7745
21.9894
3.59587
-7.78549
-5.92845
-4.59228
2.68085
3.46916
99.9893
100.066
99.9815
99.8556
100.031
100.228
99.9853
99.6868
99.9546
100.389
100.16
99.5716
99.665
100.397
100.543
99.7639
99.2475
99.9453
100.819
100.523
99.3047
99.0251
100.202
101.222
100.675
98.8542
98.7081
99.9378
101.964
101.179
98.9661
97.7657
98.6204
102.685
102.515
101.067
96.4112
94.8802
101.134
104.612
110.362
97.6005
77.9728
49.5841
19.8167
4.4569
-6.87786
-5.31916
-1.58386
0.621051
99.9758
100.023
100.074
99.9372
99.8685
100.087
100.201
99.9162
99.7189
100.041
100.361
100.057
99.5816
99.7846
100.414
100.421
99.7024
99.3645
100.049
100.734
100.387
99.3115
99.2283
100.199
101.141
100.444
99.0496
98.8301
99.9977
101.78
100.864
99.3627
97.7152
99.0586
102.121
102.22
101.382
96.309
95.9962
100.345
104.13
110.274
96.8624
80.1115
49.7267
19.3202
4.48889
-10.3789
-4.51991
0.969223
99.9884
99.99
100.055
100.014
99.9034
99.9701
100.135
100.064
99.8356
99.8793
100.173
100.199
99.8553
99.71
100.062
100.367
100.089
99.6122
99.7073
100.297
100.503
99.9465
99.3824
99.6806
100.487
100.738
99.9166
99.1339
99.3623
100.559
101.214
100.323
98.9761
98.4102
100.024
101.796
101.837
99.9455
96.732
97.2252
100.866
104.972
107.947
95.7123
80.5291
49.9482
23.3164
4.63575
-13.1749
-5.4187
99.9933
99.9667
100.057
100.065
99.8999
99.8897
100.129
100.173
99.8661
99.7478
100.099
100.339
99.9909
99.5923
99.855
100.418
100.357
99.6731
99.4392
100.06
100.716
100.295
99.4221
99.2174
100.218
101
100.474
99.2843
98.6916
100.095
101.179
101.383
99.4847
97.9898
98.9451
100.631
103.122
101.273
98.439
96.2763
96.6608
103.331
106.252
107.217
95.2192
76.5111
49.8247
26.5218
5.74836
-6.88759
100.021
99.9408
99.9735
100.136
100.048
99.7923
99.9029
100.266
100.183
99.7041
99.6941
100.27
100.459
99.8371
99.4012
99.937
100.682
100.375
99.4161
99.2449
100.27
101.023
100.277
99.0886
98.9254
100.543
101.293
100.728
98.7044
98.3683
100.153
101.601
102.164
98.7866
97.7935
98.0404
101.018
104.44
101.122
99.1324
94.2942
95.6421
104.382
106.128
110.723
95.2867
73.3189
49.5351
20.6598
7.00876
100.023
100.003
99.9079
100.006
100.163
100.004
99.7665
99.9544
100.297
100.128
99.6655
99.7433
100.32
100.419
99.7812
99.4217
99.9974
100.679
100.317
99.4192
99.2622
100.323
100.927
100.352
99.0304
99.052
100.383
101.28
100.838
98.6751
98.6841
99.5375
101.879
101.899
99.2528
98.2731
97.094
101.417
103.246
102.053
100.402
93.483
96.7222
101.432
105.171
113.412
94.7233
79.1459
49.5724
7.32237
100.001
100.027
99.9702
99.9434
100.052
100.093
99.9375
99.8632
100.054
100.187
99.9831
99.7669
99.9439
100.259
100.162
99.7672
99.7022
100.143
100.397
100.064
99.554
99.6975
100.306
100.542
100.036
99.3279
99.6247
100.269
100.919
100.123
99.2917
99.1712
99.8897
101.405
100.588
99.9431
98.397
98.6792
101.184
101.256
102.192
99.0672
96.3897
98.9305
99.1317
105.556
107.154
93.3564
92.4236
49.8609
)
;

boundaryField
{
    left
    {
        type            fixedValue;
        value           uniform 100;
    }
    right
    {
        type            zeroGradient;
    }
    up
    {
        type            zeroGradient;
    }
    down
    {
        type            fixedValue;
        value           uniform 0;
    }
    frontAndBack
    {
        type            empty;
    }
}


// ************************************************************************* //
