/*--------------------------------*- C++ -*----------------------------------*\
  =========                 |
  \\      /  F ield         | OpenFOAM: The Open Source CFD Toolbox
   \\    /   O peration     | Website:  https://openfoam.org
    \\  /    A nd           | Version:  8
     \\/     M anipulation  |
\*---------------------------------------------------------------------------*/
FoamFile
{
    version     2.0;
    format      ascii;
    class       volVectorField;
    location    "28";
    object      U;
}
// * * * * * * * * * * * * * * * * * * * * * * * * * * * * * * * * * * * * * //

dimensions      [0 1 -1 0 0 0 0];

internalField   nonuniform List<vector> 
464
(
(-0.000124933 0.000123543 0)
(-0.000387328 0.000127979 0)
(-0.000649877 0.000122223 0)
(-0.000893424 0.000113584 0)
(-0.00111762 0.000102364 0)
(-0.00131689 8.87444e-05 0)
(-0.00148404 7.30465e-05 0)
(-0.00162896 5.49362e-05 0)
(-0.00171063 3.52974e-05 0)
(-0.00181979 1.11603e-05 0)
(-0.00177107 -1.24068e-05 0)
(-0.00191416 -9.30764e-06 0)
(-0.00013516 0.000388749 0)
(-0.00041863 0.000402322 0)
(-0.000701992 0.000384216 0)
(-0.000964797 0.000357137 0)
(-0.00120666 0.000322275 0)
(-0.00142157 0.000280642 0)
(-0.00160254 0.000234361 0)
(-0.00175913 0.000183364 0)
(-0.00185158 0.000138687 0)
(-0.00197105 7.65622e-05 0)
(-0.0019344 7.16078e-05 0)
(-0.00209397 -2.02857e-05 0)
(-0.000141348 0.000672796 0)
(-0.000437736 0.000695827 0)
(-0.000733816 0.000664282 0)
(-0.00100794 0.000617069 0)
(-0.00125961 0.000556254 0)
(-0.00148167 0.000483507 0)
(-0.00166768 0.00040185 0)
(-0.00181882 0.000311582 0)
(-0.00191642 0.000224922 0)
(-0.00199118 0.000117907 0)
(-0.00197151 6.91503e-05 0)
(-0.00195923 -6.3208e-05 0)
(-0.000150751 0.000968646 0)
(-0.000466725 0.00100149 0)
(-0.000782195 0.000955688 0)
(-0.00107391 0.000887096 0)
(-0.00134155 0.000798765 0)
(-0.00157752 0.00069296 0)
(-0.00177619 0.000573141 0)
(-0.00193789 0.000440832 0)
(-0.0020472 0.000303812 0)
(-0.00212881 0.000152942 0)
(-0.00211724 2.18159e-05 0)
(-0.0021015 -0.000155452 0)
(-0.000163821 0.00128848 0)
(-0.000506919 0.00133164 0)
(-0.000849147 0.00127007 0)
(-0.00116488 0.00117784 0)
(-0.00145377 0.00105955 0)
(-0.00170732 0.000918159 0)
(-0.00191983 0.000758287 0)
(-0.00208815 0.000582531 0)
(-0.00220434 0.000398661 0)
(-0.00227318 0.000199992 0)
(-0.00227993 1.58209e-05 0)
(-0.00224007 -0.000206403 0)
(-0.000181128 0.00163735 0)
(-0.000559856 0.0016916 0)
(-0.000937207 0.0016125 0)
(-0.00128444 0.00149376 0)
(-0.00160124 0.00134225 0)
(-0.00187879 0.00116124 0)
(-0.00211183 0.000956663 0)
(-0.00229753 0.000731692 0)
(-0.00242978 0.000492142 0)
(-0.00251165 0.000238519 0)
(-0.00252367 -1.84786e-05 0)
(-0.00248176 -0.000292602 0)
(-0.000203087 0.00202954 0)
(-0.000626764 0.00209471 0)
(-0.0010485 0.00199487 0)
(-0.00143515 0.00184448 0)
(-0.00178629 0.00165513 0)
(-0.0020929 0.00142951 0)
(-0.00234937 0.00117632 0)
(-0.00255266 0.000899184 0)
(-0.0026975 0.00060434 0)
(-0.00278377 0.000292216 0)
(-0.00281108 -2.76617e-05 0)
(-0.0027775 -0.000361227 0)
(-0.000231873 0.00245437 0)
(-0.000712232 0.00253371 0)
(-0.00118928 0.00241268 0)
(-0.00162421 0.00222907 0)
(-0.0020162 0.00199919 0)
(-0.0023576 0.00172462 0)
(-0.00264216 0.00141822 0)
(-0.00286953 0.00108425 0)
(-0.00303678 0.00073087 0)
(-0.00314367 0.000361452 0)
(-0.00317713 -1.89194e-05 0)
(-0.0031424 -0.000415838 0)
(-0.000264566 0.00299028 0)
(-0.000811372 0.00307517 0)
(-0.0013553 0.00292098 0)
(-0.00184867 0.00268116 0)
(-0.00229073 0.00239653 0)
(-0.00267389 0.00205804 0)
(-0.00298972 0.00168956 0)
(-0.00323999 0.00129008 0)
(-0.00342025 0.000867385 0)
(-0.00353351 0.00042252 0)
(-0.00358835 -4.02256e-05 0)
(-0.00357449 -0.000514572 0)
(-0.000317903 0.00349324 0)
(-0.000954877 0.00359972 0)
(-0.00158581 0.00342058 0)
(-0.00214872 0.00314195 0)
(-0.00263923 0.00281004 0)
(-0.00306459 0.00241299 0)
(-0.0034101 0.00198453 0)
(-0.00369176 0.00152143 0)
(-0.00390444 0.00104117 0)
(-0.00405137 0.000544912 0)
(-0.00411429 3.43369e-05 0)
(-0.00410025 -0.000497633 0)
(-0.000359576 0.00430829 0)
(-0.00108824 0.00438916 0)
(-0.00181566 0.0041638 0)
(-0.00245942 0.00375717 0)
(-0.00301959 0.00334932 0)
(-0.00349958 0.00283933 0)
(-0.00388127 0.00232455 0)
(-0.00418332 0.00177276 0)
(-0.00439659 0.00120317 0)
(-0.00454017 0.000610729 0)
(-0.00463075 -3.9225e-06 0)
(-0.00464947 -0.000642199 0)
(-0.000485204 0.00487055 0)
(-0.00135042 0.00500457 0)
(-0.00222104 0.00473891 0)
(-0.00296363 0.00429641 0)
(-0.00355642 0.0038267 0)
(-0.00408945 0.0032467 0)
(-0.00447637 0.00266699 0)
(-0.0048133 0.00205009 0)
(-0.00506677 0.00143391 0)
(-0.00525879 0.000806778 0)
(-0.00536744 0.000169008 0)
(-0.00539713 -0.000501168 0)
(-0.000506533 0.00622818 0)
(-0.00150445 0.00618142 0)
(-0.00252538 0.00587012 0)
(-0.00337308 0.00511 0)
(-0.00406873 0.00455068 0)
(-0.00466047 0.00375681 0)
(-0.00507774 0.00307754 0)
(-0.00541644 0.00232665 0)
(-0.00563939 0.00160394 0)
(-0.00580461 0.000866661 0)
(-0.00593815 0.000112254 0)
(-0.00598124 -0.000695497 0)
(-0.000900769 0.00677171 0)
(-0.00207827 0.00698656 0)
(-0.00329604 0.00652973 0)
(-0.00428509 0.00579651 0)
(-0.00490623 0.00509643 0)
(-0.00556329 0.00422265 0)
(-0.00590501 0.00345452 0)
(-0.00628751 0.00264748 0)
(-0.00652733 0.00189348 0)
(-0.0067514 0.00114536 0)
(-0.00693025 0.00042133 0)
(-0.0070144 -0.000379059 0)
(-0.000671023 0.00932552 0)
(-0.00213954 0.00848211 0)
(-0.00370852 0.00820517 0)
(-0.00481495 0.00658871 0)
(-0.0056407 0.00590754 0)
(-0.00630695 0.00463817 0)
(-0.00665226 0.00380555 0)
(-0.00697805 0.00283371 0)
(-0.00714036 0.00200913 0)
(-0.00727596 0.00117502 0)
(-0.00746104 0.000365429 0)
(-0.00745324 -0.00056039 0)
(-0.00235732 0.00943523 0)
(-0.00377056 0.010366 0)
(-0.00518349 0.00907506 0)
(-0.00658983 0.00801182 0)
(-0.00684174 0.00666169 0)
(-0.00766848 0.00534663 0)
(-0.00770481 0.00426407 0)
(-0.00808566 0.00321099 0)
(-0.00818638 0.00233121 0)
(-0.00839711 0.00149364 0)
(-0.00866694 0.000779003 0)
(-0.00878522 -8.3428e-05 0)
(-0.000329072 0.0156432 0)
(-0.00312826 0.010699 0)
(-0.00604398 0.011124 0)
(-0.00726914 0.00770313 0)
(-0.00830417 0.00694887 0)
(-0.00871377 0.00514812 0)
(-0.00878627 0.00417187 0)
(-0.00891184 0.00308823 0)
(-0.00885581 0.00225899 0)
(-0.00882706 0.00146556 0)
(-0.00903504 0.000786324 0)
(-0.00880483 -4.85084e-05 0)
(-0.00531573 0.0126039 0)
(-0.00838567 0.0170481 0)
(-0.00752155 0.0131771 0)
(-0.01073 0.0111123 0)
(-0.00932527 0.00817007 0)
(-0.0104625 0.00626366 0)
(-0.00976228 0.00465574 0)
(-0.00999806 0.00340385 0)
(-0.00979353 0.00247033 0)
(-0.00984502 0.00166245 0)
(-0.0101438 0.00107096 0)
(-0.0101831 0.000341459 0)
(-0.0213786 0.0301319 0)
(-0.0140667 0.0114978 0)
(-0.0197441 0.0133887 0)
(-0.0153745 0.00846528 0)
(-0.0146878 0.00653517 0)
(-0.0124017 0.0050147 0)
(-0.010877 0.00359841 0)
(-0.00977109 0.00280209 0)
(-0.00877356 0.00204967 0)
(-0.0080456 0.00154444 0)
(-0.00786064 0.00120692 0)
(-0.00691901 0.000842829 0)
(0.0358205 0.0461425 0)
(0.0422936 0.0174879 0)
(0.0625124 0.0140426 0)
(0.070767 0.00749872 0)
(0.0777758 0.00502422 0)
(0.0822981 0.00313758 0)
(0.0856764 0.00208716 0)
(0.0880416 0.0014563 0)
(0.089705 0.000983558 0)
(0.0912163 0.000686516 0)
(0.0914978 0.000300013 0)
(0.093422 0.000214472 0)
(-0.00169358 0.00093276 0)
(-0.00117001 0.000505973 0)
(-0.00101616 0.000101352 0)
(-0.000783914 -0.000130243 0)
(-0.00062621 -0.000317845 0)
(-0.000440546 -0.000441501 0)
(-0.000263279 -0.000522943 0)
(-8.36782e-05 -0.000530605 0)
(-0.00183482 0.000166104 0)
(-0.00129757 -5.92814e-05 0)
(-0.00113073 -0.000213115 0)
(-0.000879293 -0.000399904 0)
(-0.000704408 -0.00054019 0)
(-0.000500156 -0.000656682 0)
(-0.000299327 -0.000731884 0)
(-9.56746e-05 -0.000728672 0)
(-0.00180439 6.47686e-05 0)
(-0.00154998 -0.00018115 0)
(-0.0013567 -0.00034873 0)
(-0.00111087 -0.000559455 0)
(-0.000882928 -0.000721626 0)
(-0.000632982 -0.000856839 0)
(-0.000376708 -0.0009454 0)
(-0.000121107 -0.000937161 0)
(-0.00195406 -0.000258759 0)
(-0.00171057 -0.000473912 0)
(-0.00150916 -0.000650496 0)
(-0.00125211 -0.000845997 0)
(-0.00100193 -0.00100814 0)
(-0.000725061 -0.00114318 0)
(-0.000433323 -0.00123449 0)
(-0.000139998 -0.00121299 0)
(-0.00212278 -0.000364403 0)
(-0.00194161 -0.000620105 0)
(-0.00172888 -0.000839909 0)
(-0.00146844 -0.00107341 0)
(-0.00118013 -0.00127109 0)
(-0.000860717 -0.00143563 0)
(-0.000515563 -0.0015474 0)
(-0.000167257 -0.00151986 0)
(-0.00236778 -0.000555974 0)
(-0.00218593 -0.000841442 0)
(-0.00196252 -0.00111167 0)
(-0.00168326 -0.00137446 0)
(-0.00136423 -0.00160235 0)
(-0.00100319 -0.00179358 0)
(-0.000604161 -0.00192265 0)
(-0.000197259 -0.00188568 0)
(-0.00267166 -0.00068828 0)
(-0.00249723 -0.00103459 0)
(-0.00226188 -0.00136674 0)
(-0.00195909 -0.00169103 0)
(-0.00159927 -0.00197259 0)
(-0.00118331 -0.00221503 0)
(-0.000715099 -0.00237577 0)
(-0.000235427 -0.00233534 0)
(-0.00304121 -0.000815993 0)
(-0.00286443 -0.00122498 0)
(-0.002619 -0.00161939 0)
(-0.00228919 -0.00200852 0)
(-0.0018883 -0.00234081 0)
(-0.00140932 -0.00264503 0)
(-0.000856527 -0.00283638 0)
(-0.000285987 -0.00279707 0)
(-0.00348069 -0.00099794 0)
(-0.00330052 -0.00149693 0)
(-0.00304521 -0.00198352 0)
(-0.0026805 -0.00248154 0)
(-0.00223563 -0.00290209 0)
(-0.00168252 -0.00331625 0)
(-0.00102739 -0.00356553 0)
(-0.00035276 -0.00354329 0)
(-0.00402376 -0.00104088 0)
(-0.00385039 -0.0016155 0)
(-0.00360371 -0.00215343 0)
(-0.00320838 -0.00276668 0)
(-0.00272302 -0.00322004 0)
(-0.00207787 -0.0037821 0)
(-0.00128104 -0.00404654 0)
(-0.000456614 -0.00408056 0)
(-0.00459798 -0.00130019 0)
(-0.00441282 -0.00201741 0)
(-0.00419508 -0.00269314 0)
(-0.00374735 -0.00351451 0)
(-0.00324941 -0.00412453 0)
(-0.00251534 -0.00493493 0)
(-0.0015606 -0.00531968 0)
(-0.000615778 -0.00544225 0)
(-0.00539951 -0.00116328 0)
(-0.00524523 -0.00197441 0)
(-0.00510069 -0.00260783 0)
(-0.00464302 -0.00364408 0)
(-0.00414217 -0.00417855 0)
(-0.00328395 -0.00534918 0)
(-0.00208682 -0.00567343 0)
(-0.000871189 -0.00606152 0)
(-0.00606888 -0.00150272 0)
(-0.00585708 -0.00252041 0)
(-0.00585858 -0.00338037 0)
(-0.00532002 -0.00477668 0)
(-0.00494411 -0.00563178 0)
(-0.00402503 -0.00734966 0)
(-0.00261847 -0.00797534 0)
(-0.00134296 -0.00872814 0)
(-0.00722561 -0.00105169 0)
(-0.00712996 -0.00217435 0)
(-0.00735619 -0.00274099 0)
(-0.00690799 -0.00449771 0)
(-0.00670641 -0.00493917 0)
(-0.00566063 -0.00749714 0)
(-0.00393025 -0.00780399 0)
(-0.00210092 -0.00966639 0)
(-0.00785757 -0.00139939 0)
(-0.00754497 -0.00273966 0)
(-0.00816012 -0.00367571 0)
(-0.0075239 -0.00596319 0)
(-0.00788615 -0.00707 0)
(-0.00694311 -0.0108055 0)
(-0.00527991 -0.0119288 0)
(-0.00377592 -0.0154038 0)
(-0.00940891 -0.000576189 0)
(-0.00942781 -0.00195892 0)
(-0.0105852 -0.00209666 0)
(-0.0103546 -0.00478767 0)
(-0.0115186 -0.00457404 0)
(-0.010651 -0.00990263 0)
(-0.0091819 -0.00987692 0)
(-0.00659816 -0.0180842 0)
(-0.00972125 -0.000654739 0)
(-0.0090506 -0.00208914 0)
(-0.0109337 -0.0027005 0)
(-0.00997237 -0.00589953 0)
(-0.0127218 -0.0068828 0)
(-0.0123232 -0.0143975 0)
(-0.0131833 -0.0164702 0)
(-0.0120645 -0.0325531 0)
(-0.0113964 0.000174902 0)
(-0.0114311 -0.0010412 0)
(-0.0143435 -0.000251995 0)
(-0.0144917 -0.00326901 0)
(-0.019753 -0.000749576 0)
(-0.0190988 -0.00942618 0)
(-0.0233203 -0.00798199 0)
(-0.0124047 -0.0420698 0)
(-0.00800552 0.000882062 0)
(-0.00581936 0.000183214 0)
(-0.00911605 0.000810829 0)
(-0.00396446 -0.00173781 0)
(-0.0107707 -0.00176096 0)
(0.000102942 -0.0131345 0)
(-0.0116281 -0.0234933 0)
(0.00855961 -0.072037 0)
(0.0914261 -0.000371219 0)
(0.0953749 -0.000441721 0)
(0.0892778 -0.0012791 0)
(0.0970562 -0.00216178 0)
(0.0826645 -0.00342081 0)
(0.0943133 -0.00846313 0)
(0.0575947 -0.0134079 0)
(0.0599747 -0.0410964 0)
(-1.2337e-05 -8.47288e-06 0)
(-3.61595e-05 -9.80377e-06 0)
(-5.35479e-05 -1.14979e-05 0)
(-6.15919e-05 -1.38866e-05 0)
(-6.00808e-05 -1.51996e-05 0)
(-4.95499e-05 -1.65153e-05 0)
(-3.19487e-05 -1.72415e-05 0)
(-1.06132e-05 -1.6845e-05 0)
(-1.41887e-05 5.79077e-05 0)
(-4.10321e-05 5.24267e-05 0)
(-6.06287e-05 3.74811e-05 0)
(-6.87411e-05 2.09588e-05 0)
(-6.60714e-05 3.35791e-06 0)
(-5.43825e-05 -1.0939e-05 0)
(-3.49049e-05 -2.14811e-05 0)
(-1.16374e-05 -2.49636e-05 0)
(-2.15504e-05 4.34459e-05 0)
(-6.17204e-05 3.41941e-05 0)
(-8.81163e-05 1.39959e-05 0)
(-9.92184e-05 -9.32823e-06 0)
(-9.53927e-05 -3.10233e-05 0)
(-7.72391e-05 -4.93963e-05 0)
(-4.94075e-05 -6.23572e-05 0)
(-1.62892e-05 -6.51999e-05 0)
(-2.62052e-05 0.000146952 0)
(-7.3328e-05 0.000124934 0)
(-0.000104271 7.8316e-05 0)
(-0.000113836 3.03929e-05 0)
(-0.000106216 -1.67663e-05 0)
(-8.58462e-05 -5.35413e-05 0)
(-5.43666e-05 -7.96798e-05 0)
(-1.80446e-05 -8.70744e-05 0)
(-5.15694e-05 0.000133853 0)
(-0.0001385 0.000104883 0)
(-0.000182797 4.86679e-05 0)
(-0.000194287 -9.52897e-06 0)
(-0.000179306 -6.28734e-05 0)
(-0.000140228 -0.000105802 0)
(-8.80548e-05 -0.000135808 0)
(-2.8711e-05 -0.000142342 0)
(-6.30221e-05 0.000351442 0)
(-0.000166529 0.000268959 0)
(-0.000218876 0.000140441 0)
(-0.00022542 3.08599e-05 0)
(-0.00020254 -6.69662e-05 0)
(-0.000158972 -0.000137602 0)
(-9.90179e-05 -0.000185619 0)
(-3.25209e-05 -0.000196848 0)
(-0.000153864 0.000343368 0)
(-0.000369361 0.000245125 0)
(-0.000421177 9.63218e-05 0)
(-0.00040158 -2.73613e-05 0)
(-0.000347668 -0.000137268 0)
(-0.000259012 -0.000217436 0)
(-0.000158596 -0.00027214 0)
(-5.10518e-05 -0.000281876 0)
(-0.000200386 0.000909015 0)
(-0.000434446 0.000561079 0)
(-0.00049223 0.000179512 0)
(-0.000459191 -3.45635e-05 0)
(-0.000392786 -0.000203847 0)
(-0.000294263 -0.000313463 0)
(-0.000179673 -0.000385146 0)
(-5.81201e-05 -0.000395639 0)
)
;

boundaryField
{
    movingWall
    {
        type            fixedValue;
        value           uniform (1 0 0);
    }
    fixedWalls
    {
        type            noSlip;
    }
    frontAndBack
    {
        type            empty;
    }
}


// ************************************************************************* //
