/*--------------------------------*- C++ -*----------------------------------*\
  =========                 |
  \\      /  F ield         | OpenFOAM: The Open Source CFD Toolbox
   \\    /   O peration     | Website:  https://openfoam.org
    \\  /    A nd           | Version:  8
     \\/     M anipulation  |
\*---------------------------------------------------------------------------*/
FoamFile
{
    version     2.0;
    format      ascii;
    class       surfaceScalarField;
    location    "100";
    object      phi;
}
// * * * * * * * * * * * * * * * * * * * * * * * * * * * * * * * * * * * * * //

dimensions      [0 3 -1 0 0 0 0];

internalField   nonuniform List<scalar> 
7966
(
0.0134842
-0.000149198
-1.63802e-06
0.0134449
3.46409e-05
4.64656e-06
0.013918
-0.00046236
-1.07719e-05
0.0141903
-0.000281315
9.02072e-06
0.0141674
1.82659e-05
4.63146e-06
0.0140542
9.52028e-05
1.80289e-05
0.013865
0.000189525
-3.72449e-07
0.0134722
0.000400705
-7.89776e-06
0.012939
0.00052926
3.95129e-06
0.0124725
0.00049413
-2.76149e-05
0.0119294
0.000517447
2.56832e-05
0.0122724
-0.000423936
8.08631e-05
0.0128079
-0.000654911
0.000119457
0.0130996
-0.00035514
6.34105e-05
0.0133192
-0.000209959
-9.58176e-06
0.0131467
0.000173495
-1.04577e-06
0.0128778
0.000267873
1.05238e-06
0.0126159
0.000278409
-1.65406e-05
0.0123565
0.000274773
-1.53846e-05
-8.885e-06
-1.62199e-05
0.013419
-0.00024106
6.17421e-06
0.0134493
1.36461e-05
-9.31782e-06
0.0141099
-0.00110455
-1.83406e-05
0.0143451
-0.000549768
3.32493e-05
0.0142436
8.42231e-05
3.55467e-05
0.0141764
0.000104185
5.81788e-05
0.0140751
0.000293191
-2.39108e-06
0.0135876
0.000855987
3.22597e-05
0.0130056
0.00110418
7.09417e-06
0.0124244
0.00110742
-3.20606e-05
0.0116803
0.0012665
-5.0093e-06
0.0122264
-0.00142798
0.000458006
0.013045
-0.00204399
0.000570402
0.0134258
-0.000982288
0.000246348
0.0136275
-0.000471758
6.00895e-05
0.0133541
0.000382862
6.40345e-05
0.0129971
0.000600235
2.46383e-05
0.0125394
0.000735557
5.54089e-07
0.0122211
0.000579313
1.37547e-05
-0.000109376
-2.16199e-05
0.0136239
-0.000548214
1.75839e-05
0.0135935
0.000127703
-8.36041e-05
0.0144128
-0.00192478
8.4325e-07
0.014859
-0.00116849
0.000172615
0.0147141
-1.14962e-05
0.000240603
0.0149271
-0.000269263
0.000160429
0.0147949
0.000400653
2.47131e-05
0.0140444
0.00168826
-8.17367e-05
0.013289
0.00191696
-5.74035e-05
0.0123834
0.00213308
-0.000120057
0.0111568
0.00275215
-0.000259104
0.0117106
-0.00400574
0.002024
0.0134374
-0.00622545
0.00245463
0.013961
-0.00276736
0.00126148
0.0138839
-0.000762242
0.00036764
0.013601
0.000690336
-2.46055e-05
0.0131213
0.00123541
-0.00015543
0.012678
0.00115842
2.0424e-05
0.012402
0.00092825
-7.29555e-05
9.82948e-05
-0.000272744
0.0135185
-0.000894906
0.000163571
0.0138278
0.000232997
-0.00041467
0.0147463
-0.00291998
7.67414e-05
0.0154081
-0.00231913
0.00048888
0.0158968
-0.00119525
0.000694962
0.0159366
-0.000524751
0.000215753
0.0150605
0.000807127
0.000469642
0.0143531
0.00193392
0.00046167
0.0134738
0.0028111
-1.47699e-05
0.0123141
0.00378428
-0.000491548
0.0103576
0.00423278
0.000475837
0.0101304
-0.00650549
0.00272699
0.0128165
-0.0121945
0.00328289
0.0144746
-0.00662779
0.00220234
0.0149462
-0.00211591
0.00088206
0.0144676
0.000921087
0.000247834
0.0135853
0.00228442
-0.000166674
0.0123464
0.00211565
0.000281678
0.0117171
0.00135162
0.000205917
7.21383e-05
-0.000326439
0.0137348
-0.00140032
0.000109134
0.0136431
0.00104065
-0.000715948
0.0158489
-0.00650041
0.0013746
0.0173423
-0.00429329
0.000480721
0.0176402
-0.00103599
-0.000457096
0.0174069
-0.00251724
0.00222578
0.0167418
0.00210636
-0.000634112
0.015986
0.00405253
-0.00136285
0.0143468
0.00295582
0.00149452
0.0126964
0.00496191
0.000472781
0.01066
0.00677295
-0.000503824
0.00932797
-0.00377038
-0.00140305
0.012207
-0.0136713
-0.00140219
0.0145423
-0.00992143
0.000958371
0.0150303
-0.00432933
0.00172534
0.0145848
0.000703937
0.000662701
0.0137116
0.0033689
-0.000211277
0.0124517
0.00277154
0.000604019
0.0113769
0.00243412
-7.70077e-06
0.000800391
-0.000355623
0.0132775
-0.000938738
-0.000394535
0.0147096
8.54313e-05
-0.000476814
0.0180289
-0.00937819
-0.000441593
0.0209005
-0.00268733
0.00378847
-0.00316996
-0.00245586
-0.0026402
0.0198949
-0.00195025
0.00398902
-0.000246415
-0.00162157
-0.000201155
0.0202741
-0.00168979
-0.00120664
0.0189692
0.00541381
-0.00200255
0.0153936
0.00577678
0.00185128
0.014031
0.00419614
0.000122329
0.0150346
0.00770302
-0.00374471
0.0143373
0.00854823
-0.00107796
0.0127328
-0.00101475
-0.00115112
0.0145506
-0.0110836
-0.00440561
0.0156583
-0.0073618
-0.00366732
0.0152374
-0.00386623
-4.2165e-05
0.0149765
0.000760618
0.0002042
0.0148934
0.00440202
-0.000950059
0.0141202
0.0042125
-0.000667725
0.0123357
0.00513323
-0.000914634
0.00176304
6.08759e-05
0.0141212
-0.00190483
0.000197681
0.0161677
0.00037843
-0.00233951
0.0052318
-0.00260288
-0.00340502
-0.00442696
-0.00194142
-0.00281813
0.00575465
0.00523295
0.00576452
0.00615713
-0.00389621
0.000283548
-0.00642136
0.00593468
-0.00304601
0.00158243
0.0194416
-0.000428308
0.000278924
0.000790891
-0.000134794
0.000907709
-0.00537795
-0.00562885
-0.00553302
-0.00600605
0.017587
0.00533413
0.0019343
0.0166835
0.00629493
0.000385358
0.017776
0.00968318
-0.00657951
0.0172924
0.00790276
0.000283909
0.0144857
0.00878343
0.00257145
0.0148904
0.00173601
-0.00315544
0.0157374
-0.00921637
-0.00271418
0.0131965
-0.00447633
-0.000344569
0.0129923
-0.00245942
-0.00120267
0.0147695
0.0025332
-0.00354974
0.0141565
0.00651589
-0.0015009
0.0112034
0.00642814
0.000737452
0.00806858
0.00778055
0.000487525
0.00229889
0.000577663
0.014518
-0.00349866
0.000432296
0.0055388
-0.00137281
-0.000310137
0.00456372
0.00602517
0.004738
-0.00189792
-0.00201421
-0.000374222
0.0056998
-0.00363785
0.000873976
-0.00165435
0.00135077
0.00167358
-0.00147591
0.000105906
-0.00136986
0.000643672
0.00130464
-0.000332383
-0.000246073
-0.00121149
0.00539003
-0.000830403
-0.00125105
-0.00134128
-0.00139233
1.91327e-05
9.56525e-05
8.99653e-05
3.47653e-06
0.0212625
0.00103443
-0.001281
-0.00568697
-0.00305148
-0.00588651
-0.00294796
0.000531574
0.000945263
0.000414267
0.0232723
0.00629614
-0.00201101
0.0183543
0.0102809
0.00432034
0.0173943
0.00643176
0.00243095
0.0208243
0.00856549
-0.00321204
0.0209802
0.000572593
0.00100757
0.0200098
-0.0103278
0.00208176
0.0173637
-0.00520616
0.00337595
0.0181977
-0.00297538
-0.000318018
0.0198432
0.00409598
-0.0032083
0.0175827
0.00809797
0.000678442
0.0147901
0.00672494
0.00249577
0.0127977
0.00941862
0.000354321
0.00426656
-0.000892383
0.00334423
-0.000711098
-0.00196211
0.0031111
0.00369076
0.0023472
0.00380114
-0.00314415
0.00131443
0.0016128
-0.00142896
0.00136171
-0.00156627
2.07229e-05
-0.000188341
0.00152748
0.000208213
-0.000182208
-7.42135e-05
-0.00018125
-7.52497e-05
0.0140224
-0.00292942
0.00174827
-0.0020703
-0.00136448
-0.00188577
-0.00122458
0.0127451
0.00803773
0.00352043
0.0132648
0.0097172
-0.00380512
0.00741254
0.00949371
0.00492405
0.005286
0.0023258
0.000373333
0.00971424
-0.0106316
-0.00412441
0.0106051
-0.00679282
0.000695774
0.0118883
-0.00586746
0.0016089
0.0119596
0.00245782
0.00156689
0.0104231
0.00683183
0.00280257
0.0115721
0.00624096
-0.000665014
0.0139401
0.0124773
-0.00542671
0.00601944
-0.00270696
0.00459272
0.00110234
-0.0016911
0.0018268
0.00449533
0.00224883
0.00401609
-0.000391578
-0.00480733
0.0013287
0.00160844
0.00137154
0.00146685
0.000677275
-0.000946725
0.00026945
9.39719e-05
0.000118021
1.54273e-05
-0.000169494
-5.79263e-05
0.0044779
-0.0116393
0.00787986
-0.00103102
-0.00118831
-0.000710267
-0.000718268
0.00248357
0.0129554
-0.00292338
0.00142301
0.00849678
0.00228099
0.00449781
0.00530146
0.00111745
0.00973943
0.00420215
-0.00711797
0.00930489
-0.00931552
-0.00088155
0.00820972
-0.00797835
0.00228069
0.0086085
-0.00845344
0.0021872
0.0100308
-0.00186301
0.00289853
0.0119761
0.00410404
0.000782497
0.0153354
0.00770016
-0.00481846
0.0163187
0.0145333
-0.0030393
0.00546757
0.00127001
0.00201033
0.00122746
0.000206314
0.00343266
0.00292582
0.00458576
-0.00143372
0.00147754
0.00134044
0.000110297
0.000160232
0.000230392
0.000125151
0.000270975
8.25986e-05
-0.000330839
-2.27347e-05
-0.000302116
-0.0170332
0.00852259
-0.000907546
-0.00104478
-0.0003812
-0.00049311
0.00101361
0.00617841
0.00546131
0.00113829
0.00320237
0.00516973
0.00657485
-0.000298531
0.000163426
0.0149429
-0.00491089
0.00074495
0.0142679
-0.00915085
0.000510414
0.00968763
-0.0045462
0.00114809
0.00854295
-0.00661511
-0.000693654
0.0112584
-0.00227802
-0.00230046
0.0136605
0.00359909
-0.00189715
0.0152293
0.00597854
0.00015282
0.014663
0.0096928
0.00540682
0.00317747
0.0026724
0.00211463
0.00158259
0.00332044
0.00237439
0.00187074
0.00328342
-0.00259328
0.00126175
0.00233843
0.00110773
-0.00031838
-0.000116165
0.00103833
-0.000603788
0.000525804
-0.000232102
0.00170703
-0.00230096
-0.000395675
0.000487571
0.000523141
0.000478385
-0.000276626
-0.000239071
-0.000277505
0.00984315
-0.0142012
-0.00366096
-0.00188796
-0.00315089
-0.00121616
-0.00275915
0.0106635
-0.00334835
0.00870637
0.0142447
-0.00116267
0.000783842
0.0161317
-0.00372975
0.00154428
0.0164553
-0.00725992
0.00202541
0.0144809
-0.00934503
0.00216857
0.0114053
-0.00288563
0.00141503
0.00770718
-0.00490194
0.00198495
0.00618772
0.00042819
-0.00118675
0.00700434
0.00418982
-0.00140736
0.00657795
0.00328417
0.00312076
0.00890426
0.00513282
0.00223368
0.00168054
-0.00173576
0.0123536
0.000899627
0.00168575
0.00196485
0.00932989
0.00124861
-0.00320326
-0.00258111
-0.00310383
-0.00153284
0.00374371
0.00245714
0.00403048
-0.00148844
0.00434681
-7.15367e-05
-0.00133446
-0.00145447
-0.00129636
0.000818962
0.000812739
0.000918753
0.000712853
0.000568399
-0.000610947
4.25479e-05
0.0195935
-0.00508081
-0.00613847
0.00193382
0.00155718
0.00171189
0.00172722
-0.00193879
-0.00546935
-0.00231687
-0.0055793
0.0233414
-0.00581349
-0.0121356
0.0231689
0.00149441
-0.00467032
0.0220993
-0.000758332
0.000665313
0.0244051
-0.00652216
0.000486615
0.021043
-0.00599882
0.00210097
0.0174921
-0.00802211
0.00222801
0.019803
-0.00543096
0.000234429
0.018857
-0.00754287
0.00358692
0.013003
-0.000175937
0.00645807
0.00993833
0.00593653
0.00131798
0.00862064
0.00604607
-0.00144422
0.011189
0.00559034
-0.00302592
0.00111216
-0.00206342
0.0139985
0.000602144
-0.000348244
0.0156391
0.00557692
0.00211235
0.00465451
0.00708356
0.00319682
-0.00371561
-0.00386321
-0.00346603
-0.0032441
0.00499899
0.00504833
0.00494584
-0.000941623
0.00560927
0.00180028
0.000560515
-0.000697313
-0.000953865
-0.000722756
0.000316942
-0.00615861
0.00543677
-0.00132735
0.00031707
0.000555946
0.000309649
0.000549569
0.0219378
-0.00323006
-0.00409652
0.00279401
0.000851489
0.00232787
0.000630323
-0.0052933
-0.00511896
-0.0054535
-0.0053492
0.0216521
-0.00499467
0.000199594
0.0188241
-0.00392526
0.000939775
0.0212433
0.00322783
-0.00415262
0.0219663
0.000271567
-0.00175288
0.0188744
-0.00431641
0.000886098
0.013688
-0.0039911
0.00317866
0.00948266
-0.00449334
0.000676609
0.0107759
-0.00427398
-0.00245018
0.0122367
-0.00676099
-0.00224276
0.010349
-0.00151347
0.0032253
0.00910239
0.00428979
0.00289333
0.010476
0.00399525
0.000677215
0.0143082
0.00291628
-0.00115816
-0.000278129
-0.000496637
0.0138132
0.00073803
-0.000604517
0.0155157
0.00325375
0.000620629
0.0166697
0.00347307
0.00245658
0.0177823
0.00262634
-0.000465136
-0.00146778
-0.000147217
-0.00151946
-0.000139357
0.018389
-0.000365201
-0.00454585
0.000818539
0.00174556
0.000501418
0.0012388
0.0180654
-0.00177781
-0.00112862
0.0165953
-0.00311766
-0.000406947
0.0165509
-0.00199776
-0.00188309
0.0190601
0.00195098
-0.0012323
0.0180213
8.63773e-05
0.00122399
0.0171486
-0.00249052
-0.000953185
0.0169772
-0.00373128
-8.8408e-05
0.0153426
-0.00366618
0.000807401
0.0141083
-0.00272585
-0.000313894
0.0116351
-0.00316661
-0.0011211
0.0096976
-0.00030267
0.000726662
0.0118967
0.000769192
0.00132149
0.0149488
-0.000165262
0.00110845
0.0162376
0.00105891
0.000568582
-0.000192259
0.000307721
0.0138956
0.000270185
-8.92445e-05
0.0151522
0.00182802
0.000169087
0.0160383
0.0017877
0.000799305
0.0167015
0.00293993
-0.000976772
0.0167506
0.000434867
-0.000849221
0.0165535
-0.00112372
-0.00045695
0.0155741
-0.00177565
-0.000362638
0.0151015
-0.00155178
2.66264e-05
0.0163816
0.0013094
-0.000638554
0.0159679
-9.90215e-06
0.000510009
0.0155894
-0.00169981
-0.000412194
0.0148103
-0.00271901
-0.000233142
0.0130272
-0.00276016
0.000877043
0.0126658
-0.00160785
-0.00075656
0.0128148
-0.00147372
-0.00184197
0.0127165
0.0010472
-0.00125153
0.0133858
0.000792645
-0.000692699
0.0148446
-0.000798781
-0.000825373
0.0164016
-0.00029339
-0.000204649
-0.000366247
0.000147382
0.0133188
0.000232311
5.44269e-05
0.0141653
0.000951028
3.04541e-05
0.014801
0.00124498
-9.29783e-05
0.0159261
0.00195693
-0.000142084
0.0158057
0.000443437
0.000111835
0.0154817
-0.000882332
8.25955e-05
0.0150343
-0.00107451
-0.000253728
0.0144995
-0.000951359
-6.56518e-05
0.015418
0.000480325
-8.93638e-05
0.0154589
-8.59637e-06
-4.22585e-05
0.0148631
-0.00105681
-4.71227e-05
0.0138787
-0.00167837
-5.62493e-05
0.0123251
-0.00167511
0.000468544
0.0119057
-0.000553991
-0.000634486
0.0125208
-0.000495376
-0.00159347
0.0142769
0.00100779
-0.00171663
0.0148796
0.000857326
-0.000667425
0.0140654
0.000254549
-0.000239081
0.0142899
-0.000126706
-0.000391273
-0.00056108
-0.000300792
0.0134788
5.8532e-05
2.92891e-05
0.0138819
0.000602848
-5.49181e-05
0.0144873
0.000683304
-4.3696e-05
0.0152227
0.00118664
3.49092e-05
0.0154166
0.0002183
3.12017e-05
0.0149547
-0.000387891
-3.25114e-05
0.0143734
-0.000509339
1.60996e-05
0.0139876
-0.000531799
-3.37264e-05
0.0144697
9.55272e-05
-9.73516e-05
0.0146331
-0.000154932
-1.70751e-05
0.0140961
-0.000422891
-9.68878e-05
0.0135305
-0.00101416
-9.86033e-05
0.0129138
-0.00124062
0.000182255
0.0126748
-7.85933e-05
-0.000236418
0.0127247
0.000270554
-0.00081587
0.013694
0.0010431
-0.0010046
0.0145937
0.000422404
-0.000464774
0.014841
0.000169338
-0.000162096
0.0144465
0.000275579
-7.78546e-06
-0.000142356
2.00071e-05
0.0133442
4.54693e-05
2.16804e-06
0.0136847
0.000279868
-1.751e-05
0.0140061
0.000353061
8.89432e-06
0.0147035
0.000479006
1.02173e-05
0.014781
0.000148804
-8.0453e-06
0.0145858
-0.00021467
2.20581e-05
0.0143103
-0.000242751
8.88869e-06
0.0140434
-0.000249407
-1.5474e-05
0.0141394
3.12024e-05
-3.17073e-05
0.0141063
-8.69786e-05
-3.48895e-05
0.0139314
-0.000251808
3.89158e-06
0.0132899
-0.000363803
-8.95164e-06
0.0125536
-0.00052483
2.05586e-05
0.0125773
-8.60593e-05
-1.62323e-05
0.0128538
0.000101263
-0.000107206
0.0135403
0.000555852
-0.000199253
0.0137338
0.000318532
-8.95834e-05
0.0138355
7.67846e-05
-9.15102e-06
0.0141187
3.14451e-05
-3.90908e-05
-0.000109798
-3.1462e-05
0.0133799
-1.12139e-06
0.0136619
-2.09776e-06
0.0140132
1.74579e-06
0.0144911
1.11016e-06
0.0146356
4.28713e-06
0.0144131
7.84424e-06
0.0141719
-1.53267e-06
0.0139348
-1.23314e-05
0.0139786
-1.25409e-05
0.0139028
-1.12244e-05
0.0136552
-4.1539e-06
0.0132908
5.22766e-07
0.0127608
5.17812e-06
0.0126838
-9.06507e-06
0.0128187
-3.36328e-05
0.0134156
-4.10741e-05
0.0137581
-2.38986e-05
0.0138435
-8.6778e-06
0.01388
-5.01209e-06
-2.28529e-06
0.0134834
-0.000149794
-1.93686e-06
0.0134442
3.78163e-05
6.05713e-06
0.0139186
-0.000473463
-1.17494e-05
0.0141913
-0.000271666
8.0411e-06
0.0141684
2.61574e-05
1.31528e-06
0.0140522
0.000117896
1.6321e-05
0.013864
0.000189061
-1.19473e-06
0.0134737
0.00039132
-8.92017e-06
0.0129399
0.000535641
2.14158e-06
0.0124758
0.000464197
-2.77624e-05
0.0119365
0.000534715
3.03434e-05
0.012271
-0.000300001
4.63494e-05
0.0128029
-0.000494171
8.17051e-05
0.0130945
-0.000274358
4.61532e-05
0.013318
-0.00021529
-1.77509e-05
0.0131487
0.000171191
-3.01508e-06
0.012877
0.000273423
-6.78137e-07
0.012614
0.000263767
-1.72613e-05
0.0123558
0.00025884
-1.60174e-05
-2.07314e-05
-2.12102e-05
0.0134169
-0.000230402
3.23473e-06
0.0134494
-2.16843e-06
-1.87781e-06
0.0141161
-0.00113884
-1.96963e-05
0.0143478
-0.000493646
2.35867e-05
0.0142412
0.000138591
2.96623e-05
0.0141702
0.000195814
5.13166e-05
0.0140668
0.000301986
-1.19443e-05
0.0135898
0.000871645
2.89211e-05
0.0130113
0.00111428
6.96415e-06
0.0124386
0.0010479
-4.30552e-05
0.0117131
0.00124381
1.13784e-05
0.0122325
-0.00062546
0.0002641
0.0130243
-0.00107358
0.000358011
0.0133959
-0.000558458
0.000158837
0.0136125
-0.000398502
2.67066e-05
0.0133648
0.000425568
5.73485e-05
0.0129967
0.000649996
1.61723e-05
0.0125316
0.00072713
2.23788e-06
0.0122192
0.000568553
1.65278e-05
-0.000128607
-3.87285e-05
0.013613
-0.000496302
4.48301e-06
0.0135992
-3.90809e-06
-6.80847e-05
0.0144361
-0.00198174
6.86299e-06
0.0148575
-0.000886708
0.000144314
0.014693
0.000391011
0.000152676
0.0148503
9.643e-05
0.000102459
0.0147608
0.000397364
1.88408e-05
0.0140749
0.00156897
-9.31789e-05
0.0132668
0.00197734
-0.000112311
0.0123728
0.00188079
-5.89263e-05
0.0113933
0.00215029
-0.000186088
0.0119772
-0.000653362
0.00146801
0.0134198
-0.00182515
0.00176355
0.0139304
-0.000684881
0.000877329
0.0138992
-0.00020414
0.000204469
0.0135509
0.000821421
-7.21156e-05
0.0130539
0.00117997
-0.0001884
0.0126266
0.00115791
1.68711e-05
0.0123658
0.000855679
-9.92818e-05
-0.000120243
-0.000367094
0.0135248
-0.000636
0.000113744
0.0138786
-0.000408619
-0.000363702
0.014757
-0.00293451
0.000151063
0.0152685
-0.00130629
0.000396997
0.0156315
0.000176598
0.000546416
0.0157776
0.000164959
1.07645e-06
0.0150824
0.0012263
0.00033592
0.0144635
0.00237815
0.000271404
0.0135196
0.00301257
-0.000106147
0.0121841
0.00319407
-0.000469258
0.0108609
0.00400117
-5.19474e-05
0.0112699
-0.000774353
0.00243905
0.0135787
-0.00415707
0.00330594
0.0145288
-0.00148272
0.00205008
0.0147693
-0.000211088
0.000648523
0.0148136
0.000985372
3.9623e-05
0.0140032
0.00211091
-0.000287205
0.0125369
0.00255645
0.000349384
0.0118397
0.00153547
0.000223356
-0.00033166
-0.000400558
0.013745
-0.00102611
9.27447e-05
0.0138476
-0.00054992
-0.000677268
0.0159579
-0.00516567
0.00149542
0.0167661
-0.00180936
0.000175635
0.0168986
0.00103909
-0.00145217
0.0175229
0.000478285
0.00128819
0.0167908
0.00224002
-0.000915695
0.0153758
0.00393308
-0.00150283
0.0142471
0.00470651
0.000929305
0.0132939
0.0044759
0.000144185
0.0114267
0.00591625
-0.000551789
0.00993408
-0.000303198
-0.000381545
0.0124852
-0.00840244
0.000292059
0.0149324
-0.00494656
0.00197499
0.0158085
-0.00159273
0.00223095
0.0144581
0.00223214
0.000766291
0.0127832
0.00390965
-0.000335097
0.0122386
0.00320609
0.000498973
0.0115568
0.00261639
-0.000406816
0.000512603
-0.000603538
0.0133094
-0.00104342
-0.000342135
0.0147661
-0.00198543
-0.000498011
0.0175656
-0.00802713
-0.000379671
0.0202884
-0.001528
0.00408075
-0.00121627
-0.00134052
-0.0007396
0.019622
-0.000491166
0.00432988
0.000465934
0.000597276
0.000792573
0.0194603
0.00101584
-0.00158254
0.0187273
0.00396478
-0.00299423
0.0174328
0.00568287
0.00139597
0.0156556
0.00618332
0.000422736
0.0141656
0.00586296
-0.00364181
0.0118536
0.00782193
-0.000671676
0.0102109
0.000213744
-2.53215e-05
0.013569
-0.0121608
-0.00400529
0.0160509
-0.00805518
-0.00304061
0.0163306
-0.00302308
0.00110845
0.0161423
0.00158786
0.00103677
0.0159554
0.00359054
-0.000444004
0.0152987
0.00393505
-0.000740011
0.0131381
0.00526826
-0.00140592
0.00199172
3.43886e-05
0.0139787
-0.00180263
0.000331202
0.0164751
-0.00487359
-0.0019478
0.00553635
-0.00270658
-0.00593946
-0.00291076
-0.00293929
-0.00295452
0.00572063
0.00556971
0.0056669
-0.000307307
0.00633184
-0.00246074
0.000444553
-0.00248609
-0.0064175
0.00588105
-0.000388405
0.00291978
0.0199349
0.000231951
0.000905134
0.00110702
0.000608462
0.00107573
-0.00542276
-0.00592552
-0.00541127
-0.00580888
0.0198099
0.00356352
0.0024606
0.0178158
0.00685396
0.00120834
0.0149667
0.00901403
-0.00656116
0.0149075
0.0061946
1.14534e-05
0.0132225
0.00989615
0.00218223
0.0114882
0.00252299
-0.00373033
0.0132475
-0.0123856
-0.00424868
0.0156014
-0.00829052
-0.00246318
0.0173959
-0.0041359
-0.00188435
0.0171254
0.00153039
-0.00322178
0.0144781
0.00548111
-0.000744148
0.0115755
0.00724249
0.000332668
0.00838354
0.00904062
-9.29094e-05
0.00327417
0.000770987
0.014194
-0.00252786
0.000320593
0.0058167
-0.00339778
-0.0028004
0.00468922
0.00557167
0.00458975
-0.000669341
-0.00382783
-0.000961781
-0.000704567
0.00573656
-0.00221556
0.000293692
-0.000231883
-0.00157371
0.00104457
0.00175412
-0.00120288
0.000209776
0.00089537
-0.00176665
9.88751e-05
0.00176149
-7.41214e-05
-0.00091496
0.00109637
-0.00151293
0.00604936
-0.000983497
-0.00160735
-0.00149721
-0.00161565
3.06926e-05
0.000113581
5.86813e-05
9.98867e-05
0.0198367
0.000692492
-0.00170945
-0.00602324
-0.00286467
-0.00599888
-0.00259574
0.000351516
0.000424699
0.000169079
0.0221479
0.00423788
-0.00170611
0.0204828
0.0111834
0.00381606
0.0199696
0.00679866
0.00234015
0.0209647
0.00672525
-0.0010363
0.0183695
0.00279953
0.00332627
0.0159492
-0.0101631
0.00227956
0.0155357
-0.00697622
0.00247514
0.0169328
-0.00497592
-0.00087507
0.0168454
0.00228682
-0.00387742
0.0159944
0.00730056
-0.00028992
0.0161568
0.00769278
0.00188302
0.0140695
0.0108874
0.000594945
0.00503867
-0.00060604
0.00299247
-0.000827945
0.00164801
0.000909483
0.00303093
0.00107569
-0.00275509
0.00281205
-0.00381635
0.0033541
-7.51971e-05
0.000707512
-0.00132676
0.0015514
-0.000967427
0.000110468
0.000225137
-0.00012784
0.00126674
-2.33607e-05
-0.000393154
-4.90036e-05
-0.000145993
-6.00323e-05
0.0136192
-0.00409822
0.00168335
-0.00168735
-0.000999068
-0.00153029
-0.00100143
0.0140893
0.0111434
0.00309026
0.0103033
0.0105454
-0.00376588
0.00612007
0.00700931
0.00882324
0.0060819
0.00198768
0.00122336
0.00816093
-0.0110127
-0.00535387
0.00934445
-0.00760439
0.000140418
0.0117106
-0.00679896
0.00106577
0.0140738
0.000477837
0.00101266
0.015247
0.00631033
0.00261969
0.0159243
0.00627069
7.97792e-05
0.015635
0.0104139
-0.00466397
0.00537834
-0.00273018
0.00338654
-0.000579966
0.000327492
0.00230984
0.00416221
0.00116055
0.00498053
0.00408337
-0.00168185
-0.00485601
0.000177743
0.000173487
0.000114986
0.000394272
-0.000830148
0.000487091
-0.000475998
0.000819055
0.000179382
0.000135389
0.000112901
-2.41224e-05
-0.000213883
-0.000189667
0.00578344
-0.00707318
0.00595803
-0.000430005
-0.000253701
-0.000276355
7.34134e-05
0.00405977
0.0113689
-0.00142518
0.00278252
0.0103373
0.00376635
0.00431936
0.00578492
0.000804996
0.00801504
0.00081412
-0.00964009
0.00902871
-0.0111062
-0.00180169
0.00851137
-0.00795774
0.00315139
0.0100212
-0.00900151
0.00287993
0.012964
-0.00326005
0.0036936
0.0148081
0.00343438
0.00181432
0.0155227
0.00497658
-0.00423894
0.0151106
0.011392
-0.00360529
0.00636521
0.000854298
0.00339978
-0.0010732
-0.00357478
0.00670738
0.00132723
0.00612566
-0.0015478
0.000681116
0.000616581
0.00166363
0.000271547
0.000664916
0.000328917
0.000720869
0.000141855
0.000210417
5.62443e-05
-0.000233279
-0.000175238
-0.000174763
-0.00814355
0.00788116
0.0003549
0.000235564
0.000836752
0.000459352
0.00106618
0.013318
0.00227128
0.00053205
0.00981949
0.00622167
0.00661687
0.0010872
-0.00122366
0.0150183
-0.00615865
-0.000683724
0.0158618
-0.0109302
-0.000509126
0.0128864
-0.00478938
0.000955136
0.010724
-0.0075067
-2.60562e-05
0.0112416
-0.00529547
-0.0007826
0.0134918
0.00109132
-0.00180432
0.0156714
0.00353085
-0.000581052
0.014869
0.0121632
0.00543795
0.00643442
0.00345868
0.00339132
0.00178091
0.00226897
0.00284885
0.00238169
0.00289412
-0.00186904
-0.0031423
0.00339405
0.00334788
0.00166073
0.000875347
-0.000492103
-0.000751867
0.00109697
-0.000728347
0.000315994
0.000345634
-0.00010586
-3.26717e-05
-0.00108291
-0.000154677
0.000269373
0.000339311
0.000250312
-6.32361e-05
-6.91469e-05
-1.21245e-05
-0.000562897
-0.012306
0.00166811
0.000388784
-0.00186937
0.00139309
-0.000516189
0.00320432
0.0103631
0.00789399
0.0089487
0.00486708
-8.12978e-06
0.0135689
-0.00323783
0.00124911
0.0156143
-0.00872465
0.002546
0.0167072
-0.0108766
0.00102206
0.0167696
-0.00262846
-0.000808196
0.0135512
-0.0033233
0.00101995
0.00974712
-0.00252781
-0.000150363
0.00910149
0.00140176
-0.00107218
0.0091134
0.0035989
0.0030408
0.0106047
0.00920571
0.00369989
0.0034237
-0.000850478
0.0128288
0.00348086
0.000514048
0.00330412
0.0061984
0.00105714
-0.00366911
-0.00197231
-0.00388752
-0.00116436
0.00520655
0.0032459
0.00575857
0.000691208
-0.00134721
0.00241069
-0.000737779
-0.000927017
-0.00117449
-0.000808453
0.00135869
0.00126963
0.00126643
0.00130242
-0.000125716
0.00028423
-0.000286063
0.000127548
0.020711
-0.00525877
-0.0112754
0.00128408
0.00246682
0.000733329
0.00190584
-0.00285677
-0.00549681
-0.00303199
-0.00531981
0.0149155
-0.0084988
-0.0101473
0.012571
0.0057986
0.00223868
0.0167536
-0.000498523
0.00184836
0.0210261
-0.00708692
6.3222e-05
0.019623
-0.00704217
0.00182158
0.0164088
-0.0087079
0.00327348
0.017883
-0.00418638
0.000318114
0.0206005
-0.00416217
0.00170836
0.0190993
0.000195193
0.00523624
0.0144616
0.00500075
0.00235666
0.0103112
0.00605807
0.000247
0.0115889
0.0066979
-0.00179581
0.00130617
-0.00215631
0.0150522
0.00191014
-0.000476709
0.0170529
0.00408828
0.00222171
0.00564558
0.00245868
0.00156462
-0.00164857
-0.00136672
-0.00158018
-0.000302803
0.00475076
0.00593179
0.00479658
-0.000884338
-0.00138021
0.00643362
0.00231292
0.00181926
-0.000985195
-0.00075679
-0.000913691
1.88162e-06
-0.000407076
-0.00686782
0.00617283
8.98314e-05
0.000806202
0.00024933
-0.000150446
0.000105263
0.0215293
-0.00133139
-0.00348194
0.00152992
-6.56038e-05
0.000722404
-0.00021993
-0.00561938
-0.00563652
-0.00582702
-0.00569637
0.0203381
-0.00443392
0.00056598
0.0179307
-0.00324258
-0.00190907
0.0198818
0.00449253
-0.00479761
0.020664
-0.000909867
-0.00212378
0.0176067
-0.0041162
0.000972672
0.0149075
-0.00373235
0.00256805
0.0132994
-0.00622307
-0.000200087
0.0131881
-0.00458395
-0.00194133
0.0127971
-0.00462935
-0.00138458
0.0112236
0.00187723
0.00311673
0.00988844
0.00706377
0.00216548
0.0105026
0.00575342
0.000367708
0.013707
0.00376439
-0.00142903
-0.000107731
-0.000693866
0.0140686
0.00111345
-0.000531942
0.0152638
0.00283413
0.0006796
0.0163047
0.00203851
0.00183577
0.0181571
0.00285179
-0.000910553
-0.00123003
-0.000521808
-0.00135209
-0.00115478
0.0195736
0.000502783
-0.00531982
-0.000253882
0.000493624
-0.00124917
-0.000135866
0.0196323
-0.000838039
-0.00168075
0.0178262
-0.00256141
-0.00047331
0.0158853
-0.00214655
-0.00103824
0.0179686
0.00231955
-0.0011426
0.0182192
-0.000394886
0.00045842
0.0169448
-0.00253846
-0.0012566
0.0161063
-0.00306256
8.03525e-05
0.0151214
-0.00463318
0.000202397
0.013866
-0.00279772
-0.000844714
0.0104307
-0.00175292
-0.000562282
0.00826088
0.003196
0.00157777
0.0110332
0.0040335
0.00157941
0.0142968
0.00209897
0.00149936
0.0155896
0.00227391
0.000766225
0.000177155
0.000285567
0.0139839
0.000356046
2.27308e-05
0.015109
0.00177076
0.000107296
0.0157471
0.00149079
0.000708955
0.0166206
0.00291075
-0.00190921
0.0171952
0.000591848
-0.0015129
0.0169063
-0.00101448
8.42772e-06
0.0153206
-0.00165295
0.000314584
0.0146731
-0.00153381
6.13275e-05
0.0160845
0.0013039
-0.00103427
0.0157912
5.61007e-05
0.000352342
0.0154128
-0.00180323
-0.00076904
0.014748
-0.00274989
0.000118991
0.0130358
-0.00324521
0.00120125
0.0119768
-0.00114961
-0.00134562
0.0109191
-0.000203922
-0.00233334
0.0108291
0.00302335
-0.000988876
0.012173
0.00217611
-0.000179162
0.0139033
-9.18338e-05
-0.000364859
0.01591
0.000110599
-4.80542e-05
-0.000149939
0.00014107
0.0133693
0.000256009
0.000120467
0.0141704
0.000949885
5.02872e-05
0.0146786
0.00115979
-0.000270242
0.0158668
0.00194507
-0.000364572
0.015863
0.000496914
0.000210562
0.0155375
-0.000872277
0.000265868
0.0150105
-0.00110044
-0.000279203
0.0144163
-0.00089762
-0.00010766
0.0154182
0.000550798
-0.000338176
0.0155499
2.95103e-05
-0.00014737
0.0148402
-0.00097149
-0.000169155
0.0138301
-0.0015991
-0.000196874
0.0123349
-0.00182563
0.000544128
0.011799
-0.00045384
-0.000794365
0.0120228
4.83841e-05
-0.00206955
0.0135277
0.00180851
-0.00200668
0.0145144
0.00122198
-0.000700006
0.014084
0.000352067
-0.000252563
0.0143219
-0.000106101
-0.000412512
-0.000562609
-0.000334758
0.0134942
6.63803e-05
5.8696e-05
0.0138692
0.00060658
-8.66309e-05
0.0144507
0.000657065
-0.000122491
0.015222
0.00119022
1.85337e-05
0.0154245
0.000228801
9.67371e-05
0.0149356
-0.000420938
5.09633e-06
0.0143612
-0.000509523
-4.3687e-07
0.0139994
-0.00049744
-7.20728e-05
0.0144902
0.000129164
-0.000166519
0.0146489
-0.000112714
-3.3576e-05
0.0141027
-0.000426197
-9.59734e-05
0.0135335
-0.001022
-0.000106543
0.0128976
-0.00125324
0.00024579
0.0126068
-6.80164e-05
-0.000331439
0.0126449
0.000335888
-0.00114149
0.0136486
0.00116346
-0.00136321
0.0145449
0.000470727
-0.000609876
0.0147999
0.000172879
-0.000237878
0.0144456
0.00031494
-7.45514e-05
-0.000111224
-8.83936e-06
0.0133463
4.79235e-05
7.64576e-06
0.0136806
0.000279595
-2.48688e-05
0.0140004
0.000348761
-2.54986e-06
0.0147064
0.0004795
1.48805e-05
0.0147804
0.000146473
3.78491e-07
0.0145753
-0.000221902
2.80832e-05
0.0143108
-0.000240697
4.56577e-06
0.0140515
-0.00023661
-1.69817e-05
0.0141456
4.24018e-05
-3.90951e-05
0.0141135
-7.60101e-05
-3.94636e-05
0.0139329
-0.000248294
6.52635e-06
0.0132867
-0.000366483
-1.82468e-05
0.012552
-0.000527982
3.00482e-05
0.0125709
-8.14074e-05
-2.1727e-05
0.0128434
0.000122428
-0.000166249
0.0135385
0.000577892
-0.000308847
0.0137356
0.000331355
-0.000147266
0.0138395
8.16755e-05
-2.18518e-05
0.0141199
3.40732e-05
-3.85949e-05
-0.000108845
-3.04446e-05
0.0133798
3.65524e-07
0.0136618
-4.55671e-06
0.0140127
-3.94665e-07
0.0144906
2.69897e-06
0.0146343
7.12664e-06
0.014412
8.18366e-06
0.0141722
-2.46258e-06
0.0139363
-1.29821e-05
0.0139803
-1.41103e-05
0.0139044
-1.13327e-05
0.0136561
-4.17243e-06
0.0132903
-1.62381e-07
0.0127603
7.21979e-06
0.0126817
-1.19381e-05
0.0128174
-4.68683e-05
0.0134165
-6.23032e-05
0.0137584
-3.44507e-05
0.0138442
-1.28267e-05
0.01388
-6.65356e-06
-3.03675e-06
0.0134834
-0.000152012
0.0134438
4.56626e-05
0.01392
-0.000487975
0.0141929
-0.000264789
0.0141689
2.52935e-05
0.0140495
0.000135756
0.0138621
0.000186154
0.0134744
0.000378738
0.0129405
0.000536083
0.0124792
0.000433513
0.0119366
0.000572984
0.0122701
-0.000287169
0.0128029