/*--------------------------------*- C++ -*----------------------------------*\
  =========                 |
  \\      /  F ield         | OpenFOAM: The Open Source CFD Toolbox
   \\    /   O peration     | Website:  https://openfoam.org
    \\  /    A nd           | Version:  8
     \\/     M anipulation  |
\*---------------------------------------------------------------------------*/
FoamFile
{
    version     2.0;
    format      ascii;
    class       surfaceScalarField;
    location    "23";
    object      phi;
}
// * * * * * * * * * * * * * * * * * * * * * * * * * * * * * * * * * * * * * //

dimensions      [0 3 -1 0 0 0 0];

internalField   nonuniform List<scalar> 
22960
(
-1.59547e-07
1.59544e-07
-5.45751e-07
3.86205e-07
-1.0127e-06
4.66949e-07
-1.50112e-06
4.8842e-07
-1.99223e-06
4.91107e-07
-2.48243e-06
4.90203e-07
-2.97157e-06
4.89139e-07
-3.45976e-06
4.8819e-07
-3.94701e-06
4.87254e-07
-4.43327e-06
4.86253e-07
-4.91841e-06
4.85146e-07
-5.40232e-06
4.83911e-07
-5.88486e-06
4.82537e-07
-6.36587e-06
4.81014e-07
-6.84521e-06
4.79338e-07
-7.32272e-06
4.77503e-07
-7.79822e-06
4.75503e-07
-8.27155e-06
4.73334e-07
-8.74254e-06
4.7099e-07
-9.21101e-06
4.68466e-07
-9.67677e-06
4.65757e-07
-1.01396e-05
4.62857e-07
-1.05994e-05
4.59761e-07
-1.10558e-05
4.56465e-07
-1.15088e-05
4.52963e-07
-1.19581e-05
4.49252e-07
-1.24034e-05
4.45328e-07
-1.28446e-05
4.41187e-07
-1.32814e-05
4.3683e-07
-1.37137e-05
4.32254e-07
-1.41411e-05
4.27462e-07
-1.45636e-05
4.22458e-07
-1.49808e-05
4.17248e-07
-1.53927e-05
4.11842e-07
-1.57989e-05
4.06255e-07
-1.61994e-05
4.00507e-07
-1.65941e-05
3.94627e-07
-1.69827e-05
3.8865e-07
-1.73653e-05
3.82624e-07
-1.77419e-05
3.76612e-07
-1.81126e-05
3.70696e-07
-1.84776e-05
3.64981e-07
-1.88372e-05
3.59605e-07
-1.9192e-05
3.54749e-07
-1.95426e-05
3.50649e-07
-1.98902e-05
3.47619e-07
-2.02363e-05
3.46081e-07
-2.05829e-05
3.46607e-07
-2.09329e-05
3.49982e-07
-2.12902e-05
3.57306e-07
-2.16604e-05
3.70142e-07
-2.20511e-05
3.90778e-07
-2.24738e-05
4.22683e-07
-2.29452e-05
4.71412e-07
-2.34929e-05
5.47661e-07
-2.41729e-05
6.80004e-07
-2.51174e-05
9.44475e-07
-2.66359e-05
1.51851e-06
-3.05365e-05
3.90065e-06
8.93253e-06
-3.94691e-05
-3.89706e-07
5.4925e-07
-1.12858e-06
1.12508e-06
-1.99407e-06
1.33244e-06
-2.89605e-06
1.3904e-06
-3.80596e-06
1.40101e-06
-4.71636e-06
1.40061e-06
-5.62532e-06
1.3981e-06
-6.53213e-06
1.395e-06
-7.43634e-06
1.39146e-06
-8.33756e-06
1.38747e-06
-9.23541e-06
1.38299e-06
-1.01295e-05
1.37799e-06
-1.10194e-05
1.37245e-06
-1.19048e-05
1.36637e-06
-1.27852e-05
1.35974e-06
-1.36602e-05
1.35254e-06
-1.45294e-05
1.34476e-06
-1.53925e-05
1.33639e-06
-1.6249e-05
1.32744e-06
-1.70984e-05
1.31788e-06
-1.79403e-05
1.3077e-06
-1.87744e-05
1.29691e-06
-1.96001e-05
1.28548e-06
-2.0417e-05
1.27342e-06
-2.12248e-05
1.26072e-06
-2.20229e-05
1.24738e-06
-2.2811e-05
1.23338e-06
-2.35885e-05
1.21874e-06
-2.43552e-05
1.20346e-06
-2.51105e-05
1.18754e-06
-2.5854e-05
1.171e-06
-2.65854e-05
1.15386e-06
-2.73043e-05
1.13614e-06
-2.80103e-05
1.11789e-06
-2.87032e-05
1.09915e-06
-2.93827e-05
1.08e-06
-3.00486e-05
1.06053e-06
-3.07008e-05
1.04084e-06
-3.13393e-05
1.02108e-06
-3.19641e-05
1.00145e-06
-3.25756e-05
9.82172e-07
-3.31742e-05
9.6357e-07
-3.37606e-05
9.46041e-07
-3.4336e-05
9.3011e-07
-3.49018e-05
9.16463e-07
-3.54602e-05
9.06015e-07
-3.60141e-05
8.99996e-07
-3.65676e-05
9.00087e-07
-3.71262e-05
9.08635e-07
-3.76979e-05
9.28979e-07
-3.82938e-05
9.66002e-07
-3.893e-05
1.02707e-06
-3.9631e-05
1.12366e-06
-4.0434e-05
1.27443e-06
-4.13991e-05
1.5127e-06
-4.26241e-05
1.90504e-06
-4.42581e-05
2.57848e-06
-4.65457e-05
3.80609e-06
-4.94629e-05
6.81787e-06
1.12634e-05
-5.17938e-05
-4.74155e-07
1.0234e-06
-1.34469e-06
1.99561e-06
-2.35549e-06
2.34323e-06
-3.40471e-06
2.43962e-06
-4.46185e-06
2.45815e-06
-5.51908e-06
2.45784e-06
-6.57428e-06
2.4533e-06
-7.62662e-06
2.44735e-06
-8.67556e-06
2.4404e-06
-9.72056e-06
2.43248e-06
-1.07611e-05
2.42356e-06
-1.17968e-05
2.41363e-06
-1.2827e-05
2.40265e-06
-1.38512e-05
2.39062e-06
-1.4869e-05
2.37753e-06
-1.58798e-05
2.36335e-06
-1.68832e-05
2.34809e-06
-1.78785e-05
2.33172e-06
-1.88653e-05
2.31423e-06
-1.9843e-05
2.29562e-06
-2.08112e-05
2.27587e-06
-2.17692e-05
2.25497e-06
-2.27167e-05
2.23292e-06
-2.3653e-05
2.20971e-06
-2.45776e-05
2.18533e-06
-2.549e-05
2.15978e-06
-2.63896e-05
2.13307e-06
-2.72761e-05
2.1052e-06
-2.81488e-05
2.07618e-06
-2.90073e-05
2.04604e-06
-2.98511e-05
2.0148e-06
-3.06798e-05
1.98252e-06
-3.14929e-05
1.94923e-06
-3.229e-05
1.91502e-06
-3.30708e-05
1.87998e-06
-3.38351e-05
1.84424e-06
-3.45825e-05
1.80794e-06
-3.53129e-05
1.7713e-06
-3.60264e-05
1.73457e-06
-3.6723e-05
1.69807e-06
-3.74031e-05
1.66222e-06
-3.80671e-05
1.62755e-06
-3.87158e-05
1.59474e-06
-3.93503e-05
1.56467e-06
-3.99724e-05
1.53851e-06
-4.05841e-05
1.51776e-06
-4.11886e-05
1.50445e-06
-4.17898e-05
1.50132e-06
-4.23933e-05
1.51214e-06
-4.30065e-05
1.54216e-06
-4.36394e-05
1.59894e-06
-4.43059e-05
1.6935e-06
-4.50247e-05
1.84248e-06
-4.5822e-05
2.07175e-06
-4.67335e-05
2.42418e-06
-4.78019e-05
2.97348e-06
-4.90638e-05
3.84041e-06
-5.05249e-05
5.26719e-06
-5.15977e-05
7.89064e-06
1.13179e-05
-5.16522e-05
-4.97924e-07
1.52133e-06
-1.4088e-06
2.90649e-06
-2.4623e-06
3.39673e-06
-3.55369e-06
3.53102e-06
-4.65251e-06
3.55697e-06
-5.75116e-06
3.55649e-06
-6.84764e-06
3.54978e-06
-7.9411e-06
3.5408e-06
-9.03092e-06
3.53022e-06
-1.01165e-05
3.5181e-06
-1.11974e-05
3.50443e-06
-1.2273e-05
3.4892e-06
-1.33427e-05
3.47238e-06
-1.44061e-05
3.45397e-06
-1.54625e-05
3.43394e-06
-1.65114e-05
3.41229e-06
-1.75523e-05
3.389e-06
-1.85847e-05
3.36405e-06
-1.96079e-05
3.33744e-06
-2.06214e-05
3.30914e-06
-2.16247e-05
3.27916e-06
-2.26172e-05
3.24747e-06
-2.35983e-05
3.21407e-06
-2.45676e-05
3.17895e-06
-2.55244e-05
3.14212e-06
-2.64682e-05
3.10357e-06
-2.73984e-05
3.06331e-06
-2.83146e-05
3.02135e-06
-2.92161e-05
2.97772e-06
-3.01025e-05
2.93245e-06
-3.09733e-05
2.88559e-06
-3.1828e-05
2.83719e-06
-3.26661e-05
2.78734e-06
-3.34872e-05
2.73615e-06
-3.4291e-05
2.68376e-06
-3.50771e-05
2.63033e-06
-3.58452e-05
2.57609e-06
-3.65953e-05
2.52132e-06
-3.73271e-05
2.46638e-06
-3.80407e-05
2.41173e-06
-3.87364e-05
2.35792e-06
-3.94146e-05
2.30569e-06
-4.00758e-05
2.25597e-06
-4.07211e-05
2.20994e-06
-4.13517e-05
2.16915e-06
-4.19696e-05
2.13561e-06
-4.25771e-05
2.11198e-06
-4.31776e-05
2.1018e-06
-4.37753e-05
2.10984e-06
-4.43758e-05
2.14266e-06
-4.49862e-05
2.20939e-06
-4.56157e-05
2.32292e-06
-4.6275e-05
2.50179e-06
-4.69764e-05
2.77318e-06
-4.77302e-05
3.17798e-06
-4.85343e-05
3.77762e-06
-4.9355e-05
4.66104e-06
-5.00675e-05
5.97974e-06
-5.01588e-05
7.98194e-06
1.03904e-05
-4.92314e-05
-5.0198e-07
2.02331e-06
-1.42391e-06
3.82841e-06
-2.48913e-06
4.46196e-06
-3.59193e-06
4.63381e-06
-4.70182e-06
4.66686e-06
-5.81134e-06
4.66601e-06
-6.91858e-06
4.65702e-06
-8.02274e-06
4.64496e-06
-9.1232e-06
4.63068e-06
-1.02194e-05
4.6143e-06
-1.13108e-05
4.59581e-06
-1.23968e-05
4.5752e-06
-1.34768e-05
4.55245e-06
-1.45504e-05
4.52756e-06
-1.5617e-05
4.50049e-06
-1.66759e-05
4.47125e-06
-1.77267e-05
4.43981e-06
-1.87688e-05
4.40615e-06
-1.98017e-05
4.37027e-06
-2.08247e-05
4.33214e-06
-2.18373e-05
4.29176e-06
-2.28389e-05
4.24911e-06
-2.3829e-05
4.20419e-06
-2.4807e-05
4.15698e-06
-2.57724e-05
4.1075e-06
-2.67246e-05
4.05574e-06
-2.7663e-05
4.00171e-06
-2.85871e-05
3.94544e-06
-2.94963e-05
3.88695e-06
-3.03902e-05
3.82629e-06
-3.12681e-05
3.76351e-06
-3.21296e-05
3.69871e-06
-3.29742e-05
3.63197e-06
-3.38015e-05
3.56343e-06
-3.4611e-05
3.49327e-06
-3.54024e-05
3.42171e-06
-3.61753e-05
3.34902e-06
-3.69295e-05
3.27554e-06
-3.76649e-05
3.20173e-06
-3.83813e-05
3.12812e-06
-3.90788e-05
3.05542e-06
-3.97576e-05
2.98449e-06
-4.04181e-05
2.91646e-06
-4.10609e-05
2.85273e-06
-4.16868e-05
2.79512e-06
-4.22972e-05
2.74595e-06
-4.28934e-05
2.70826e-06
-4.34776e-05
2.68601e-06
-4.40522e-05
2.68443e-06
-4.46201e-05
2.71052e-06
-4.51844e-05
2.77366e-06
-4.5748e-05
2.88659e-06
-4.63129e-05
3.06672e-06
-4.68777e-05
3.33794e-06
-4.74329e-05
3.73311e-06
-4.79509e-05
4.29562e-06
-4.83711e-05
5.08125e-06
-4.8558e-05
6.16671e-06
-4.81907e-05
7.61462e-06
9.27371e-06
-4.7074e-05
-5.02163e-07
2.52547e-06
-1.42781e-06
4.75406e-06
-2.49725e-06
5.5314e-06
-3.60428e-06
5.74084e-06
-4.71825e-06
5.78083e-06
-5.83174e-06
5.7795e-06
-6.94288e-06
5.76816e-06
-8.05091e-06
5.75299e-06
-9.15523e-06
5.735e-06
-1.02553e-05
5.71435e-06
-1.13505e-05
5.69103e-06
-1.24403e-05
5.66504e-06
-1.35242e-05
5.63635e-06
-1.46017e-05
5.60497e-06
-1.5672e-05
5.57086e-06
-1.67348e-05
5.53401e-06
-1.77894e-05
5.4944e-06
-1.88352e-05
5.45202e-06
-1.98718e-05
5.40685e-06
-2.08986e-05
5.35887e-06
-2.19149e-05
5.30807e-06
-2.29202e-05
5.25443e-06
-2.3914e-05
5.19795e-06
-2.48956e-05
5.13862e-06
-2.58645e-05
5.07645e-06
-2.68202e-05
5.01142e-06
-2.77621e-05
4.94357e-06
-2.86895e-05
4.87291e-06
-2.96021e-05
4.79947e-06
-3.04991e-05
4.72331e-06
-3.13801e-05
4.6445e-06
-3.22445e-05
4.56313e-06
-3.30918e-05
4.47931e-06
-3.39216e-05
4.39321e-06
-3.47334e-05
4.30502e-06
-3.55267e-05
4.215e-06
-3.63011e-05
4.12345e-06
-3.70563e-05
4.03078e-06
-3.77921e-05
3.93748e-06
-3.85081e-05
3.84417e-06
-3.92044e-05
3.75164e-06
-3.98807e-05
3.66084e-06
-4.05373e-05
3.57301e-06
-4.11742e-05
3.48969e-06
-4.17919e-05
3.41282e-06
-4.23908e-05
3.34487e-06
-4.29716e-05
3.289e-06
-4.35348e-05
3.24926e-06
-4.40812e-05
3.23083e-06
-4.46112e-05
3.24047e-06
-4.51244e-05
3.28689e-06
-4.56192e-05
3.38139e-06
-4.60911e-05
3.53857e-06
-4.65302e-05
3.77706e-06
-4.69172e-05
4.1201e-06
-4.72165e-05
4.59495e-06
-4.73661e-05
5.2308e-06
-4.72544e-05
6.05502e-06
-4.67034e-05
7.06366e-06
8.16075e-06
-4.55905e-05
-5.02296e-07
3.02777e-06
-1.43024e-06
5.68201e-06
-2.50256e-06
6.60372e-06
-3.61267e-06
6.85095e-06
-4.72969e-06
6.89785e-06
-5.84617e-06
6.89598e-06
-6.96028e-06
6.88227e-06
-8.07126e-06
6.86397e-06
-9.17853e-06
6.84227e-06
-1.02815e-05
6.81735e-06
-1.13797e-05
6.78922e-06
-1.24725e-05
6.75785e-06
-1.35594e-05
6.72324e-06
-1.46398e-05
6.68538e-06
-1.57132e-05
6.64423e-06
-1.6779e-05
6.59979e-06
-1.78366e-05
6.55203e-06
-1.88855e-05
6.50094e-06
-1.99252e-05
6.44648e-06
-2.0955e-05
6.38866e-06
-2.19744e-05
6.32744e-06
-2.29827e-05
6.26282e-06
-2.39796e-05
6.19479e-06
-2.49643e-05
6.12333e-06
-2.59363e-05
6.04844e-06
-2.6895e-05
5.97014e-06
-2.78399e-05
5.88842e-06
-2.87703e-05
5.80333e-06
-2.96857e-05
5.71488e-06
-3.05855e-05
5.62315e-06
-3.14692e-05
5.5282e-06
-3.23362e-05
5.43013e-06
-3.3186e-05
5.32907e-06
-3.4018e-05
5.2252e-06
-3.48317e-05
5.11871e-06
-3.56266e-05
5.0099e-06
-3.64022e-05
4.89909e-06
-3.71581e-05
4.78671e-06
-3.78939e-05
4.67328e-06
-3.86092e-05
4.55947e-06
-3.93037e-05
4.4461e-06
-3.9977e-05
4.33417e-06
-4.0629e-05
4.22497e-06
-4.12593e-05
4.12004e-06
-4.18679e-05
4.02137e-06
-4.24544e-05
3.9314e-06
-4.30186e-05
3.85319e-06
-4.35599e-05
3.79059e-06
-4.40775e-05
3.7484e-06
-4.45697e-05
3.73264e-06
-4.50336e-05
3.75079e-06
-4.54643e-05
3.81208e-06
-4.58534e-05
3.92772e-06
-4.61873e-05
4.1109e-06
-4.64435e-05
4.37637e-06
-4.65874e-05
4.7388e-06
-4.65662e-05
5.20964e-06
-4.63023e-05
5.79113e-06
-4.56969e-05
6.4582e-06
7.13872e-06
-4.46748e-05
-5.02781e-07
3.53055e-06
-1.43304e-06
6.61227e-06
-2.50835e-06
7.67902e-06
-3.6217e-06
7.96429e-06
-4.74199e-06
8.01815e-06
-5.86174e-06
8.01573e-06
-6.9791e-06
7.99963e-06
-8.09332e-06
7.97819e-06
-9.20384e-06
7.95279e-06
-1.03101e-05
7.92362e-06
-1.14116e-05
7.89067e-06
-1.25077e-05
7.85395e-06
-1.35979e-05
7.81344e-06
-1.46816e-05
7.76911e-06
-1.57583e-05
7.72095e-06
-1.68274e-05
7.66893e-06
-1.78884e-05
7.61304e-06
-1.89407e-05
7.55324e-06
-1.99838e-05
7.48953e-06
-2.1017e-05
7.42188e-06
-2.20398e-05
7.35026e-06
-2.30517e-05
7.27467e-06
-2.4052e-05
7.19508e-06
-2.50401e-05
7.11149e-06
-2.60156e-05
7.02389e-06
-2.69777e-05
6.93228e-06
-2.7926e-05
6.83668e-06
-2.88597e-05
6.73711e-06
-2.97785e-05
6.6336e-06
-3.06815e-05
6.52622e-06
-3.15684e-05
6.41502e-06
-3.24384e-05
6.30012e-06
-3.32909e-05
6.18165e-06
-3.41255e-05
6.05978e-06
-3.49415e-05
5.93473e-06
-3.57384e-05
5.80678e-06
-3.65156e-05
5.67627e-06
-3.72725e-05
5.54363e-06
-3.80086e-05
5.40941e-06
-3.87234e-05
5.27427e-06
-3.94164e-05
5.13902e-06
-4.00869e-05
5.00467e-06
-4.07344e-05
4.87248e-06
-4.13583e-05
4.74395e-06
-4.19579e-05
4.62098e-06
-4.25323e-05
4.50584e-06
-4.30805e-05
4.40138e-06
-4.36009e-05
4.31102e-06
-4.40915e-05
4.23895e-06
-4.45491e-05
4.19021e-06
-4.49691e-05
4.17082e-06
-4.53448e-05
4.18779e-06
-4.56661e-05
4.24906e-06
-4.59183e-05
4.36309e-06
-4.608e-05
4.53804e-06
-4.61211e-05
4.77995e-06
-4.60013e-05
5.0898e-06
-4.56687e-05
5.45857e-06
-4.5068e-05
5.85743e-06
6.23203e-06
-4.41613e-05
-5.03545e-07
4.03409e-06
-1.43644e-06
7.54516e-06
-2.51515e-06
8.75774e-06
-3.63218e-06
9.08132e-06
-4.75622e-06
9.14218e-06
-5.87971e-06
9.13922e-06
-7.00082e-06
9.12073e-06
-8.1188e-06
9.09617e-06
-9.23307e-06
9.06707e-06
-1.03431e-05
9.03365e-06
-1.14483e-05
8.99591e-06
-1.25482e-05
8.95385e-06
-1.36423e-05
8.90745e-06
-1.47298e-05
8.85668e-06
-1.58104e-05
8.80152e-06
-1.68834e-05
8.74195e-06
-1.79483e-05
8.67794e-06
-1.90046e-05
8.60948e-06
-2.00515e-05
8.53652e-06
-2.10887e-05
8.45906e-06
-2.21155e-05
8.37706e-06
-2.31314e-05
8.2905e-06
-2.41356e-05
8.19937e-06
-2.51278e-05
8.10365e-06
-2.61073e-05
8.00334e-06
-2.70734e-05
7.89842e-06
-2.80256e-05
7.78891e-06
-2.89633e-05
7.67483e-06
-2.98859e-05
7.5562e-06
-3.07928e-05
7.43308e-06
-3.16833e-05
7.30554e-06
-3.25569e-05
7.17367e-06
-3.34128e-05
7.03761e-06
-3.42506e-05
6.89752e-06
-3.50695e-05
6.75362e-06
-3.58689e-05
6.60618e-06
-3.66481e-05
6.45553e-06
-3.74066e-05
6.30209e-06
-3.81436e-05
6.1464e-06
-3.88584e-05
5.98909e-06
-3.95503e-05
5.83094e-06
-4.02186e-05
5.67291e-06
-4.08623e-05
5.51617e-06
-4.14804e-05
5.36214e-06
-4.2072e-05
5.21252e-06
-4.26355e-05
5.06937e-06
-4.31693e-05
4.93515e-06
-4.36711e-05
4.81281e-06
-4.41379e-05
4.70578e-06
-4.45658e-05
4.61807e-06
-4.49492e-05
4.55421e-06
-4.52805e-05
4.51915e-06
-4.55495e-05
4.51803e-06
-4.5742e-05
4.55562e-06
-4.58394e-05
4.63541e-06
-4.58175e-05
4.75803e-06
-4.56466e-05
4.91896e-06
-4.52933e-05
5.10521e-06
-4.47265e-05
5.29063e-06
5.43467e-06
-4.39291e-05
-5.04522e-07
4.53862e-06
-1.44043e-06
8.48107e-06
-2.52303e-06
9.84034e-06
-3.64424e-06
1.02025e-05
-4.77253e-06
1.02705e-05
-5.90029e-06
1.0267e-05
-7.02567e-06
1.02461e-05
-8.14793e-06
1.02184e-05
-9.2665e-06
1.01856e-05
-1.03808e-05
1.0148e-05
-1.14904e-05
1.01055e-05
-1.25947e-05
1.00581e-05
-1.3693e-05
1.00058e-05
-1.4785e-05
9.94863e-06
-1.587e-05
9.8865e-06
-1.69474e-05
9.8194e-06
-1.80168e-05
9.74731e-06
-1.90775e-05
9.67019e-06
-2.0129e-05
9.58802e-06
-2.11707e-05
9.50077e-06
-2.22021e-05
9.40841e-06
-2.32225e-05
9.31091e-06
-2.42314e-05
9.20825e-06
-2.52281e-05
9.10041e-06
-2.62122e-05
8.98738e-06
-2.71829e-05
8.86914e-06
-2.81397e-05
8.74571e-06
-2.90819e-05
8.61708e-06
-3.0009e-05
8.48328e-06
-3.09203e-05
8.34435e-06
-3.18151e-05
8.20037e-06
-3.26928e-05
8.0514e-06
-3.35528e-05
7.89758e-06
-3.43943e-05
7.73906e-06
-3.52168e-05
7.57603e-06
-3.60193e-05
7.40874e-06
-3.68013e-05
7.23753e-06
-3.7562e-05
7.06277e-06
-3.83005e-05
6.88495e-06
-3.90161e-05
6.70467e-06
-3.97078e-05
6.52265e-06
-4.03747e-05
6.33976e-06
-4.10156e-05
6.15705e-06
-4.16292e-05
5.97577e-06
-4.22141e-05
5.79742e-06
-4.27685e-05
5.62377e-06
-4.32902e-05
5.45686e-06
-4.37765e-05
5.29908e-06
-4.42238e-05
5.15312e-06
-4.46277e-05
5.02196e-06
-4.49823e-05
4.90881e-06
-4.528e-05
4.81685e-06
-4.5511e-05
4.74902e-06
-4.56627e-05
4.70737e-06
-4.57197e-05
4.69234e-06
-4.56631e-05
4.70146e-06
-4.54719e-05
4.7278e-06
-4.51247e-05
4.75796e-06
-4.46043e-05
4.77031e-06
4.7345e-06
-4.39042e-05
-5.05674e-07
5.04429e-06
-1.44498e-06
9.42038e-06
-2.53197e-06
1.09273e-05
-3.65787e-06
1.13284e-05
-4.79093e-06
1.14035e-05
-5.92348e-06
1.13995e-05
-7.05367e-06
1.13763e-05
-8.18075e-06
1.13455e-05
-9.30416e-06
1.1309e-05
-1.04234e-05
1.12672e-05
-1.15378e-05
1.12199e-05
-1.26469e-05
1.11672e-05
-1.37502e-05
1.11091e-05
-1.48471e-05
1.10455e-05
-1.59371e-05
1.09765e-05
-1.70195e-05
1.09019e-05
-1.80939e-05
1.08217e-05
-1.91597e-05
1.0736e-05
-2.02163e-05
1.06446e-05
-2.12631e-05
1.05476e-05
-2.22996e-05
1.04449e-05
-2.33251e-05
1.03365e-05
-2.43392e-05
1.02223e-05
-2.53411e-05
1.01024e-05
-2.63304e-05
9.97662e-06
-2.73063e-05
9.84507e-06
-2.82683e-05
9.70769e-06
-2.92157e-05
9.56448e-06
-3.01479e-05
9.41547e-06
-3.10642e-05
9.26068e-06
-3.1964e-05
9.10016e-06
-3.28466e-05
8.93398e-06
-3.37112e-05
8.76224e-06
-3.45572e-05
8.58507e-06
-3.53839e-05
8.40266e-06
-3.61903e-05
8.21521e-06
-3.69758e-05
8.02303e-06
-3.77395e-05
7.82645e-06
-3.84805e-05
7.62591e-06
-3.91977e-05
7.42194e-06
-3.98903e-05
7.21516e-06
-4.05568e-05
7.00634e-06
-4.11962e-05
6.79639e-06
-4.18068e-05
6.58637e-06
-4.23869e-05
6.37752e-06
-4.29344e-05
6.1713e-06
-4.34469e-05
5.96932e-06
-4.39212e-05
5.77342e-06
-4.43537e-05
5.58559e-06
-4.47396e-05
5.4079e-06
-4.50732e-05
5.24239e-06
-4.53472e-05
5.09087e-06
-4.55528e-05
4.95461e-06
-4.56793e-05
4.83382e-06
-4.5714e-05
4.72704e-06
-4.56428e-05
4.63027e-06
-4.54509e-05
4.53591e-06
-4.51247e-05
4.43181e-06
-4.46549e-05
4.30046e-06
4.11935e-06
-4.40398e-05
-5.06979e-07
5.55127e-06
-1.45008e-06
1.03635e-05
-2.54195e-06
1.20192e-05
-3.67306e-06
1.24595e-05
-4.81141e-06
1.25419e-05
-5.94929e-06
1.25374e-05
-7.08482e-06
1.25118e-05
-8.21725e-06
1.24779e-05
-9.34603e-06
1.24378e-05
-1.04706e-05
1.23918e-05
-1.15905e-05
1.23398e-05
-1.2705e-05
1.22818e-05
-1.38138e-05
1.22179e-05
-1.49162e-05
1.21479e-05
-1.60116e-05
1.20719e-05
-1.70997e-05
1.19899e-05
-1.81796e-05
1.19017e-05
-1.9251e-05
1.18074e-05
-2.03133e-05
1.17068e-05
-2.13658e-05
1.16001e-05
-2.2408e-05
1.14871e-05
-2.34393e-05
1.13678e-05
-2.44591e-05
1.12421e-05
-2.54668e-05
1.11101e-05
-2.64619e-05
1.09717e-05
-2.74436e-05
1.08268e-05
-2.84114e-05
1.06755e-05
-2.93646e-05
1.05177e-05
-3.03026e-05
1.03534e-05
-3.12247e-05
1.01827e-05
-3.21301e-05
1.00056e-05
-3.30182e-05
9.82209e-06
-3.38883e-05
9.6323e-06
-3.47395e-05
9.43631e-06
-3.55711e-05
9.23428e-06
-3.63823e-05
9.0264e-06
-3.71722e-05
8.81289e-06
-3.79398e-05
8.59406e-06
-3.86841e-05
8.37027e-06
-3.94042e-05
8.14195e-06
-4.00987e-05
7.90965e-06
-4.07663e-05
7.674e-06
-4.14057e-05
7.43573e-06
-4.2015e-05
7.19571e-06
-4.25924e-05
6.95494e-06
-4.31356e-05
6.71451e-06
-4.3642e-05
6.47566e-06
-4.41082e-05
6.23969e-06
-4.45306e-05
6.00797e-06
-4.49045e-05
5.78178e-06
-4.52243e-05
5.56225e-06
-4.54836e-05
5.35012e-06
-4.56745e-05
5.14547e-06
-4.5788e-05
4.94733e-06
-4.58141e-05
4.7532e-06
-4.57423e-05
4.55848e-06
-4.55623e-05
4.35584e-06
-4.52652e-05
4.13477e-06
-4.48461e-05
3.88134e-06
3.57885e-06
-4.43056e-05
-5.08428e-07
6.0597e-06
-1.45571e-06
1.13108e-05
-2.55295e-06
1.31164e-05
-3.68979e-06
1.35964e-05
-4.83396e-06
1.3686e-05
-5.97769e-06
1.36812e-05
-7.11909e-06
1.36532e-05
-8.25742e-06
1.36163e-05
-9.3921e-06
1.35725e-05
-1.05226e-05
1.35223e-05
-1.16484e-05
1.34656e-05
-1.2769e-05
1.34024e-05
-1.38837e-05
1.33326e-05
-1.49922e-05
1.32563e-05
-1.60937e-05
1.31735e-05
-1.71878e-05
1.3084e-05
-1.82739e-05
1.29878e-05
-1.93515e-05
1.28849e-05
-2.042e-05
1.27753e-05
-2.14787e-05
1.26589e-05
-2.25273e-05
1.25356e-05
-2.35649e-05
1.24054e-05
-2.45911e-05
1.22683e-05
-2.56053e-05
1.21243e-05
-2.66067e-05
1.19732e-05
-2.75949e-05
1.1815e-05
-2.85692e-05
1.16497e-05
-2.95288e-05
1.14774e-05
-3.04733e-05
1.12978e-05
-3.14017e-05
1.11112e-05
-3.23135e-05
1.09174e-05
-3.32079e-05
1.07165e-05
-3.40841e-05
1.05085e-05
-3.49414e-05
1.02936e-05
-3.57789e-05
1.00717e-05
-3.65956e-05
9.84318e-06
-3.73908e-05
9.60805e-06
-3.81633e-05
9.3666e-06
-3.89122e-05
9.1191e-06
-3.96361e-05
8.86592e-06
-4.03339e-05
8.60746e-06
-4.10042e-05
8.34422e-06
-4.16452e-05
8.07678e-06
-4.22553e-05
7.80578e-06
-4.28323e-05
7.53196e-06
-4.33739e-05
7.25612e-06
-4.38774e-05
6.9791e-06
-4.43394e-05
6.70176e-06
-4.47564e-05
6.4249e-06
-4.51238e-05
6.14919e-06
-4.54365e-05
5.87502e-06
-4.56888e-05
5.60236e-06
-4.58738e-05
5.33048e-06
-4.59842e-05
5.05771e-06
-4.6012e-05
4.78107e-06
-4.59494e-05
4.49589e-06
-4.57891e-05
4.19552e-06
-4.55254e-05
3.8711e-06
-4.51557e-05
3.51164e-06
3.10466e-06
-4.46815e-05
-5.10012e-07
6.56971e-06
-1.46186e-06
1.22626e-05
-2.56496e-06
1.42195e-05
-3.70805e-06
1.47395e-05
-4.85857e-06
1.48366e-05
-6.00868e-06
1.48313e-05
-7.15647e-06
1.4801e-05
-8.30122e-06
1.4761e-05
-9.44234e-06
1.47136e-05
-1.05793e-05
1.46593e-05
-1.17116e-05
1.45979e-05
-1.28387e-05
1.45294e-05
-1.396e-05
1.44539e-05
-1.5075e-05
1.43714e-05
-1.61832e-05
1.42816e-05
-1.7284e-05
1.41848e-05
-1.83768e-05
1.40806e-05
-1.94611e-05
1.39693e-05
-2.05364e-05
1.38506e-05
-2.1602e-05
1.37245e-05
-2.26574e-05
1.3591e-05
-2.3702e-05
1.345e-05
-2.47352e-05
1.33015e-05
-2.57563e-05
1.31454e-05
-2.67649e-05
1.29817e-05
-2.77601e-05
1.28103e-05
-2.87415e-05
1.26311e-05
-2.97083e-05
1.24442e-05
-3.06599e-05
1.22494e-05
-3.15954e-05
1.20468e-05
-3.25143e-05
1.18363e-05
-3.34158e-05
1.16179e-05
-3.4299e-05
1.13917e-05
-3.51631e-05
1.11577e-05
-3.60073e-05
1.09159e-05
-3.68306e-05
1.06665e-05
-3.76321e-05
1.04095e-05
-3.84106e-05
1.01451e-05
-3.91651e-05
9.8736e-06
-3.98943e-05
9.59512e-06
-4.05969e-05
9.31001e-06
-4.12713e-05
9.01862e-06
-4.19158e-05
8.72134e-06
-4.25287e-05
8.41864e-06
-4.31077e-05
8.11099e-06
-4.36505e-05
7.79891e-06
-4.41543e-05
7.4829e-06
-4.4616e-05
7.16342e-06
-4.50319e-05
6.84082e-06
-4.5398e-05
6.51525e-06
-4.57095e-05
6.18658e-06
-4.59614e-05
5.85422e-06
-4.61478e-05
5.51693e-06
-4.62628e-05
5.17267e-06
-4.63e-05
4.81829e-06
-4.62535e-05
4.44938e-06
-4.61181e-05
4.06008e-06
-4.589e-05
3.64302e-06
-4.55679e-05
3.18955e-06
2.69023e-06
-4.51535e-05
-5.11727e-07
7.08144e-06
-1.46852e-06
1.32194e-05
-2.57796e-06
1.5329e-05
-3.72782e-06
1.58893e-05
-4.88521e-06
1.5994e-05
-6.04222e-06
1.59883e-05
-7.19695e-06
1.59558e-05
-8.34864e-06
1.59127e-05
-9.49674e-06
1.58617e-05
-1.06407e-05
1.58032e-05
-1.178e-05
1.57372e-05
-1.29142e-05
1.56636e-05
-1.40426e-05
1.55824e-05
-1.51647e-05
1.54935e-05
-1.62801e-05
1.5397e-05
-1.73881e-05
1.52928e-05
-1.84882e-05
1.51807e-05
-1.95798e-05
1.50609e-05
-2.06625e-05
1.49332e-05
-2.17355e-05
1.47975e-05
-2.27984e-05
1.46539e-05
-2.38505e-05
1.45021e-05
-2.48912e-05
1.43423e-05
-2.592e-05
1.41742e-05
-2.69363e-05
1.39979e-05
-2.79393e-05
1.38133e-05
-2.89284e-05
1.36203e-05
-2.9903e-05
1.34188e-05
-3.08624e-05
1.32088e-05
-3.18059e-05
1.29902e-05
-3.27326e-05
1.2763e-05
-3.36419e-05
1.25272e-05
-3.45329e-05
1.22827e-05
-3.54048e-05
1.20296e-05
-3.62566e-05
1.17678e-05
-3.70875e-05
1.14973e-05
-3.78963e-05
1.12183e-05
-3.8682e-05
1.09309e-05
-3.94434e-05
1.0635e-05
-4.01792e-05
1.03309e-05
-4.0888e-05
1.00188e-05
-4.15683e-05
9.69887e-06
-4.22183e-05
9.37133e-06
-4.28361e-05
9.03644e-06
-4.34196e-05
8.69446e-06
-4.39663e-05
8.34566e-06
-4.44736e-05
7.99022e-06
-4.49385e-05
7.62829e-06
-4.53575e-05
7.25983e-06
-4.57269e-05
6.88462e-06
-4.60424e-05
6.50212e-06
-4.62996e-05
6.11135e-06
-4.64934e-05
5.71081e-06
-4.6619e-05
5.29827e-06
-4.66714e-05
4.87064e-06
-4.66459e-05
4.42387e-06
-4.65387e-05
3.95289e-06
-4.63473e-05
3.45163e-06
-4.6071e-05
2.91325e-06
2.33055e-06
-4.57113e-05
-5.13568e-07
7.59501e-06
-1.47567e-06
1.41815e-05
-2.59194e-06
1.64452e-05
-3.74908e-06
1.70465e-05
-4.91387e-06
1.71588e-05
-6.07831e-06
1.71527e-05
-7.24049e-06
1.71179e-05
-8.39965e-06
1.70719e-05
-9.55525e-06
1.70173e-05
-1.07068e-05
1.69547e-05
-1.18536e-05
1.68841e-05
-1.29954e-05
1.68053e-05
-1.41314e-05
1.67184e-05
-1.52613e-05
1.66233e-05
-1.63843e-05
1.65201e-05
-1.75001e-05
1.64085e-05
-1.8608e-05
1.62887e-05
-1.97075e-05
1.61604e-05
-2.07981e-05
1.60237e-05
-2.18791e-05
1.58785e-05
-2.29501e-05
1.57248e-05
-2.40103e-05
1.55624e-05
-2.50593e-05
1.53912e-05
-2.60963e-05
1.52113e-05
-2.71209e-05
1.50225e-05
-2.81323e-05
1.48247e-05
-2.91299e-05
1.46179e-05
-3.0113e-05
1.44019e-05
-3.1081e-05
1.41767e-05
-3.2033e-05
1.39423e-05
-3.29684e-05
1.36984e-05
-3.38863e-05
1.34452e-05
-3.4786e-05
1.31824e-05
-3.56665e-05
1.29101e-05
-3.6527e-05
1.26282e-05
-3.73664e-05
1.23367e-05
-3.81837e-05
1.20356e-05
-3.89777e-05
1.17249e-05
-3.97473e-05
1.14046e-05
-4.04912e-05
1.10748e-05
-4.12078e-05
1.07355e-05
-4.18957e-05
1.03867e-05
-4.2553e-05
1.00287e-05
-4.31779e-05
9.66132e-06
-4.37682e-05
9.28479e-06
-4.43216e-05
8.89907e-06
-4.48355e-05
8.50412e-06
-4.5307e-05
8.09978e-06
-4.57329e-05
7.68573e-06
-4.61098e-05
7.26147e-06
-4.64338e-05
6.82615e-06
-4.6701e-05
6.37857e-06
-4.69073e-05
5.91706e-06
-4.70483e-05
5.43936e-06
-4.71203e-05
4.94255e-06
-4.71194e-05
4.42298e-06
-4.70428e-05
3.87631e-06
-4.68887e-05
3.29752e-06
-4.66566e-05
2.6812e-06
2.02178e-06
-4.63479e-05
-5.1553e-07
8.11054e-06
-1.48332e-06
1.51493e-05
-2.6069e-06
1.75688e-05
-3.77183e-06
1.82114e-05
-4.94453e-06
1.83315e-05
-6.11692e-06
1.83251e-05
-7.28707e-06
1.82881e-05
-8.45424e-06
1.8239e-05
-9.61786e-06
1.8181e-05
-1.07774e-05
1.81143e-05
-1.19324e-05
1.8039e-05
-1.30823e-05
1.79552e-05
-1.42265e-05
1.78626e-05
-1.53645e-05
1.77614e-05
-1.64959e-05
1.76514e-05
-1.762e-05
1.75326e-05
-1.87363e-05
1.7405e-05
-1.98442e-05
1.72684e-05
-2.09433e-05
1.71228e-05
-2.20329e-05
1.69681e-05
-2.31125e-05
1.68044e-05
-2.41814e-05
1.66313e-05
-2.52392e-05
1.6449e-05
-2.62851e-05
1.62572e-05
-2.73186e-05
1.6056e-05
-2.83391e-05
1.58451e-05
-2.93458e-05
1.56246e-05
-3.03382e-05
1.53942e-05
-3.13154e-05
1.5154e-05
-3.22768e-05
1.49037e-05
-3.32216e-05
1.46432e-05
-3.4149e-05
1.43726e-05
-3.50582e-05
1.40916e-05
-3.59483e-05
1.38002e-05
-3.68184e-05
1.34983e-05
-3.76674e-05
1.31857e-05
-3.84943e-05
1.28625e-05
-3.92979e-05
1.25286e-05
-4.00771e-05
1.21838e-05
-4.08304e-05
1.18281e-05
-4.15564e-05
1.14615e-05
-4.22536e-05
1.10839e-05
-4.29202e-05
1.06952e-05
-4.35543e-05
1.02954e-05
-4.41539e-05
9.88433e-06
-4.47166e-05
9.46177e-06
-4.52399e-05
9.02747e-06
-4.57212e-05
8.58106e-06
-4.61575e-05
8.122e-06
-4.65455e-05
7.64953e-06
-4.6882e-05
7.16264e-06
-4.71634e-05
6.65997e-06
-4.73861e-05
6.13979e-06
-4.75467e-05
5.59987e-06
-4.76416e-05
5.03751e-06
-4.76681e-05
4.44947e-06
-4.76238e-05
3.83203e-06
-4.75073e-05
3.18104e-06
-4.73183e-05
2.49216e-06
1.76108e-06
-4.70576e-05
-5.17609e-07
8.62814e-06
-1.49145e-06
1.61231e-05
-2.62282e-06
1.87002e-05
-3.79605e-06
1.93846e-05
-4.97718e-06
1.95126e-05
-6.15804e-06
1.9506e-05
-7.33668e-06
1.94667e-05
-8.51236e-06
1.94147e-05
-9.68453e-06
1.93531e-05
-1.08527e-05
1.92824e-05
-1.20163e-05
1.92026e-05
-1.31748e-05
1.91137e-05
-1.43277e-05
1.90156e-05
-1.54745e-05
1.89082e-05
-1.66147e-05
1.87916e-05
-1.77476e-05
1.86656e-05
-1.88728e-05
1.85302e-05
-1.99898e-05
1.83853e-05
-2.10979e-05
1.82309e-05
-2.21967e-05
1.80669e-05
-2.32855e-05
1.78932e-05
-2.43638e-05
1.77096e-05
-2.54309e-05
1.75162e-05
-2.64864e-05
1.73127e-05
-2.75295e-05
1.70991e-05
-2.85596e-05
1.68753e-05
-2.95762e-05
1.66411e-05
-3.05784e-05
1.63965e-05
-3.15657e-05
1.61412e-05
-3.25372e-05
1.58752e-05
-3.34922e-05
1.55983e-05
-3.443e-05
1.53103e-05
-3.53496e-05
1.50112e-05
-3.62502e-05
1.47008e-05
-3.71309e-05
1.43789e-05
-3.79905e-05
1.40454e-05
-3.88282e-05
1.37002e-05
-3.96426e-05
1.3343e-05
-4.04327e-05
1.29738e-05
-4.11969e-05
1.25924e-05
-4.1934e-05
1.21986e-05
-4.26422e-05
1.17922e-05
-4.332e-05
1.1373e-05
-4.39654e-05
1.09408e-05
-4.45765e-05
1.04954e-05
-4.51509e-05
1.00362e-05
-4.56865e-05
9.563e-06
-4.61805e-05
9.07509e-06
-4.66303e-05
8.57178e-06
-4.70329e-05
8.05216e-06
-4.73854e-05
7.51507e-06
-4.76845e-05
6.95909e-06
-4.79271e-05
6.38246e-06
-4.81103e-05
5.78305e-06
-4.82312e-05
5.15837e-06
-4.82873e-05
4.50556e-06
-4.82767e-05
3.8214e-06
-4.81981e-05
3.10249e-06
-4.80512e-05
2.3453e-06
1.54646e-06
-4.78366e-05
-5.19798e-07
9.14794e-06
-1.50006e-06
1.71034e-05
-2.63968e-06
1.98398e-05
-3.82172e-06
2.05667e-05
-5.01179e-06
2.07027e-05
-6.20163e-06
2.06958e-05
-7.38928e-06
2.06544e-05
-8.574e-06
2.05994e-05
-9.75524e-06
2.05344e-05
-1.09325e-05
2.04597e-05
-1.21052e-05
2.03754e-05
-1.32729e-05
2.02814e-05
-1.44351e-05
2.01777e-05
-1.55911e-05
2.00643e-05
-1.67406e-05
1.9941e-05
-1.7883e-05
1.98079e-05
-1.90177e-05
1.96649e-05
-2.01442e-05
1.95118e-05
-2.12619e-05
1.93487e-05
-2.23704e-05
1.91754e-05
-2.3469e-05
1.89918e-05
-2.45572e-05
1.87978e-05
-2.56344e-05
1.85933e-05
-2.66999e-05
1.83783e-05
-2.77533e-05
1.81525e-05
-2.87938e-05
1.79158e-05
-2.98208e-05
1.76681e-05
-3.08337e-05
1.74093e-05
-3.18317e-05
1.71392e-05
-3.28141e-05
1.68576e-05
-3.37802e-05
1.65643e-05
-3.47291e-05
1.62593e-05
-3.566e-05
1.59422e-05
-3.65721e-05
1.56129e-05
-3.74643e-05
1.52712e-05
-3.83358e-05
1.49169e-05
-3.91853e-05
1.45497e-05
-4.00118e-05
1.41695e-05
-4.08141e-05
1.3776e-05
-4.15907e-05
1.3369e-05
-4.23403e-05
1.29482e-05
-4.30614e-05
1.25132e-05
-4.37522e-05
1.20638e-05
-4.44109e-05
1.15996e-05
-4.50357e-05
1.11201e-05
-4.56243e-05
1.06249e-05
-4.61746e-05
1.01133e-05
-4.66841e-05
9.5846e-06
-4.71503e-05
9.03797e-06
-4.75705e-05
8.47237e-06
-4.7942e-05
7.88655e-06
-4.82619e-05
7.27903e-06
-4.85275e-05
6.64807e-06
-4.87362e-05
5.99167e-06
-4.88853e-05
5.30753e-06
-4.89729e-05
4.5931e-06
-4.89971e-05
3.84563e-06
-4.89568e-05
3.06224e-06
-4.88516e-05
2.24007e-06
1.37645e-06
-4.86816e-05
-5.22095e-07
9.67004e-06
-1.50912e-06
1.80904e-05
-2.65747e-06
2.09881e-05
-3.84882e-06
2.1758e-05
-5.04834e-06
2.19022e-05
-6.24767e-06
2.18951e-05
-7.44485e-06
2.18515e-05
-8.63911e-06
2.17937e-05
-9.82993e-06
2.17252e-05
-1.10168e-05
2.16465e-05
-1.21992e-05
2.15578e-05
-1.33766e-05
2.14588e-05
-1.45485e-05
2.13496e-05
-1.57144e-05
2.12302e-05
-1.68737e-05
2.11004e-05
-1.8026e-05
2.09602e-05
-1.91707e-05
2.08096e-05
-2.03073e-05
2.06484e-05
-2.14353e-05
2.04766e-05
-2.2554e-05
2.02941e-05
-2.3663e-05
2.01007e-05
-2.47617e-05
1.98965e-05
-2.58494e-05
1.96811e-05
-2.69257e-05
1.94546e-05
-2.79899e-05
1.92167e-05
-2.90415e-05
1.89673e-05
-3.00796e-05
1.87063e-05
-3.11038e-05
1.84335e-05
-3.21133e-05
1.81487e-05
-3.31073e-05
1.78517e-05
-3.40852e-05
1.75422e-05
-3.50462e-05
1.72202e-05
-3.59893e-05
1.68853e-05
-3.69138e-05
1.65373e-05
-3.78186e-05
1.6176e-05
-3.87029e-05
1.58011e-05
-3.95655e-05
1.54123e-05
-4.04053e-05
1.50093e-05
-4.12211e-05
1.45918e-05
-4.20116e-05
1.41595e-05
-4.27753e-05
1.37119e-05
-4.35108e-05
1.32487e-05
-4.42165e-05