/*--------------------------------*- C++ -*----------------------------------*\
  =========                 |
  \\      /  F ield         | OpenFOAM: The Open Source CFD Toolbox
   \\    /   O peration     | Website:  https://openfoam.org
    \\  /    A nd           | Version:  8
     \\/     M anipulation  |
\*---------------------------------------------------------------------------*/
FoamFile
{
    version     2.0;
    format      ascii;
    class       volVectorField;
    location    "23";
    object      U;
}
// * * * * * * * * * * * * * * * * * * * * * * * * * * * * * * * * * * * * * //

dimensions      [0 1 -1 0 0 0 0];

internalField   nonuniform List<vector> 
11600
(
(-2.45759e-06 2.39775e-06 0)
(-3.02709e-05 1.08533e-05 0)
(-7.80035e-05 1.37893e-05 0)
(-0.000125225 1.44683e-05 0)
(-0.000174669 1.44512e-05 0)
(-0.000223768 1.43584e-05 0)
(-0.000272726 1.43086e-05 0)
(-0.000321594 1.42881e-05 0)
(-0.00037037 1.42809e-05 0)
(-0.00041905 1.42792e-05 0)
(-0.000467624 1.42793e-05 0)
(-0.000516081 1.42794e-05 0)
(-0.000564407 1.42788e-05 0)
(-0.000612589 1.4277e-05 0)
(-0.000660611 1.42735e-05 0)
(-0.000708458 1.42682e-05 0)
(-0.000756112 1.42607e-05 0)
(-0.000803559 1.42508e-05 0)
(-0.000850779 1.42381e-05 0)
(-0.000897757 1.42224e-05 0)
(-0.000944472 1.42033e-05 0)
(-0.000990908 1.41805e-05 0)
(-0.00103704 1.41538e-05 0)
(-0.00108286 1.41228e-05 0)
(-0.00112833 1.40871e-05 0)
(-0.00117345 1.40465e-05 0)
(-0.00121818 1.40007e-05 0)
(-0.00126251 1.39493e-05 0)
(-0.00130642 1.38921e-05 0)
(-0.00134988 1.38289e-05 0)
(-0.00139287 1.37595e-05 0)
(-0.00143537 1.36837e-05 0)
(-0.00147735 1.36015e-05 0)
(-0.00151881 1.3513e-05 0)
(-0.00155972 1.34182e-05 0)
(-0.00160006 1.33176e-05 0)
(-0.00163982 1.32117e-05 0)
(-0.00167898 1.31012e-05 0)
(-0.00171755 1.29873e-05 0)
(-0.00175551 1.28715e-05 0)
(-0.00179287 1.27559e-05 0)
(-0.00182964 1.26431e-05 0)
(-0.00186587 1.25368e-05 0)
(-0.00190157 1.24417e-05 0)
(-0.00193682 1.23638e-05 0)
(-0.00197171 1.2311e-05 0)
(-0.00200636 1.22933e-05 0)
(-0.00204095 1.23237e-05 0)
(-0.00207572 1.24179e-05 0)
(-0.002111 1.25941e-05 0)
(-0.00214725 1.28712e-05 0)
(-0.00218511 1.32639e-05 0)
(-0.00222548 1.37732e-05 0)
(-0.00226975 1.43724e-05 0)
(-0.00232042 1.50693e-05 0)
(-0.00237985 1.66617e-05 0)
(-0.00244512 2.33356e-05 0)
(-0.00260609 4.80938e-05 0)
(-0.00266753 0.00023312 0)
(-0.00354286 0.000803274 0)
(-1.10769e-05 3.03377e-05 0)
(-6.81772e-05 6.77028e-05 0)
(-0.000156117 8.11268e-05 0)
(-0.000243741 8.48125e-05 0)
(-0.000335058 8.53894e-05 0)
(-0.000426177 8.53072e-05 0)
(-0.000517142 8.51443e-05 0)
(-0.00060794 8.49731e-05 0)
(-0.000698503 8.47902e-05 0)
(-0.000788785 8.45883e-05 0)
(-0.000878748 8.43629e-05 0)
(-0.000968355 8.41112e-05 0)
(-0.00105757 8.38318e-05 0)
(-0.00114634 8.35235e-05 0)
(-0.00123464 8.31856e-05 0)
(-0.00132242 8.28171e-05 0)
(-0.00140964 8.24173e-05 0)
(-0.00149627 8.19855e-05 0)
(-0.00158226 8.15208e-05 0)
(-0.00166756 8.10226e-05 0)
(-0.00175214 8.04899e-05 0)
(-0.00183595 7.99222e-05 0)
(-0.00191895 7.93186e-05 0)
(-0.00200109 7.86785e-05 0)
(-0.00208234 7.80012e-05 0)
(-0.00216264 7.72862e-05 0)
(-0.00224196 7.65332e-05 0)
(-0.00232025 7.57418e-05 0)
(-0.00239747 7.49119e-05 0)
(-0.00247357 7.40438e-05 0)
(-0.00254852 7.31379e-05 0)
(-0.00262227 7.21951e-05 0)
(-0.0026948 7.12169e-05 0)
(-0.00276605 7.02053e-05 0)
(-0.002836 6.91631e-05 0)
(-0.00290462 6.80941e-05 0)
(-0.0029719 6.70034e-05 0)
(-0.0030378 6.58976e-05 0)
(-0.00310233 6.47854e-05 0)
(-0.00316549 6.3678e-05 0)
(-0.0032273 6.259e-05 0)
(-0.00328779 6.154e-05 0)
(-0.00334702 6.05527e-05 0)
(-0.00340508 5.966e-05 0)
(-0.0034621 5.8904e-05 0)
(-0.00351826 5.8341e-05 0)
(-0.00357381 5.80466e-05 0)
(-0.00362908 5.81247e-05 0)
(-0.00368456 5.872e-05 0)
(-0.00374089 6.0039e-05 0)
(-0.00379901 6.23834e-05 0)
(-0.00386023 6.62089e-05 0)
(-0.0039265 7.22299e-05 0)
(-0.00400085 8.16219e-05 0)
(-0.0040881 9.65897e-05 0)
(-0.0041939 0.000122196 0)
(-0.0043288 0.000169658 0)
(-0.00454549 0.000263098 0)
(-0.004723 0.000558959 0)
(-0.00525012 0.00101914 0)
(-1.41609e-05 7.86451e-05 0)
(-8.22008e-05 0.00015591 0)
(-0.000185076 0.000183728 0)
(-0.000287188 0.000191539 0)
(-0.000393285 0.00019305 0)
(-0.000499119 0.000193039 0)
(-0.00060474 0.000192698 0)
(-0.000710131 0.000192251 0)
(-0.000815211 0.000191731 0)
(-0.000919921 0.000191139 0)
(-0.00102421 0.000190474 0)
(-0.00112804 0.000189732 0)
(-0.00123134 0.000188912 0)
(-0.00133408 0.000188012 0)
(-0.00143619 0.000187031 0)
(-0.00153764 0.000185969 0)
(-0.00163836 0.000184823 0)
(-0.0017383 0.000183593 0)
(-0.00183742 0.000182278 0)
(-0.00193566 0.000180877 0)
(-0.00203297 0.000179388 0)
(-0.00212929 0.000177811 0)
(-0.00222458 0.000176145 0)
(-0.00231878 0.000174389 0)
(-0.00241183 0.000172543 0)
(-0.0025037 0.000170606 0)
(-0.00259431 0.000168579 0)
(-0.00268363 0.000166461 0)
(-0.0027716 0.000164254 0)
(-0.00285817 0.00016196 0)
(-0.00294329 0.000159579 0)
(-0.00302693 0.000157116 0)
(-0.00310902 0.000154574 0)
(-0.00318954 0.000151959 0)
(-0.00326844 0.000149279 0)
(-0.0033457 0.000146543 0)
(-0.00342129 0.000143764 0)
(-0.00349518 0.000140958 0)
(-0.00356738 0.000138144 0)
(-0.00363788 0.00013535 0)
(-0.0037067 0.000132608 0)
(-0.00377389 0.000129961 0)
(-0.0038395 0.000127465 0)
(-0.00390363 0.000125192 0)
(-0.00396642 0.000123235 0)
(-0.00402805 0.00012172 0)
(-0.00408879 0.000120816 0)
(-0.00414898 0.000120751 0)
(-0.00420908 0.000121846 0)
(-0.00426974 0.000124554 0)
(-0.0043318 0.000129539 0)
(-0.00439644 0.000137796 0)
(-0.00446524 0.00015087 0)
(-0.00454047 0.000171258 0)
(-0.00462518 0.000203306 0)
(-0.0047225 0.000255041 0)
(-0.00483842 0.000340398 0)
(-0.00498772 0.000488627 0)
(-0.00508967 0.000789149 0)
(-0.00528149 0.00120169 0)
(-1.49144e-05 0.000126734 0)
(-8.62764e-05 0.000244266 0)
(-0.000193719 0.00028609 0)
(-0.000299963 0.000297609 0)
(-0.000410274 0.000299827 0)
(-0.000520263 0.000299784 0)
(-0.000630018 0.000299222 0)
(-0.000739529 0.000298478 0)
(-0.000848709 0.000297605 0)
(-0.000957496 0.000296609 0)
(-0.00106583 0.000295486 0)
(-0.00117367 0.000294235 0)
(-0.00128095 0.000292853 0)
(-0.00138762 0.00029134 0)
(-0.00149362 0.000289694 0)
(-0.0015989 0.000287913 0)
(-0.00170341 0.000285996 0)
(-0.00180708 0.000283942 0)
(-0.00190988 0.00028175 0)
(-0.00201173 0.000279417 0)
(-0.00211258 0.000276944 0)
(-0.00221238 0.000274329 0)
(-0.00231108 0.000271572 0)
(-0.00240861 0.000268671 0)
(-0.00250493 0.000265627 0)
(-0.00259997 0.000262439 0)
(-0.00269368 0.000259108 0)
(-0.00278601 0.000255635 0)
(-0.00287691 0.000252022 0)
(-0.00296632 0.000248271 0)
(-0.00305419 0.000244387 0)
(-0.00314047 0.000240374 0)
(-0.00322512 0.000236239 0)
(-0.00330809 0.000231992 0)
(-0.00338934 0.000227644 0)
(-0.00346884 0.00022321 0)
(-0.00354656 0.000218709 0)
(-0.00362247 0.000214166 0)
(-0.00369656 0.000209612 0)
(-0.00376883 0.000205086 0)
(-0.00383929 0.000200637 0)
(-0.00390796 0.000196329 0)
(-0.00397492 0.000192244 0)
(-0.00404021 0.000188488 0)
(-0.00410398 0.000185196 0)
(-0.00416635 0.000182548 0)
(-0.00422756 0.000180784 0)
(-0.00428789 0.000180223 0)
(-0.0043477 0.000181303 0)
(-0.00440748 0.00018463 0)
(-0.00446787 0.00019106 0)
(-0.00452967 0.000201825 0)
(-0.00459389 0.000218738 0)
(-0.00466175 0.000244532 0)
(-0.00473443 0.000283509 0)
(-0.00481242 0.000342517 0)
(-0.00489586 0.000432005 0)
(-0.00498005 0.000571242 0)
(-0.0050198 0.000798999 0)
(-0.00503751 0.00107741 0)
(-1.49211e-05 0.000177198 0)
(-8.71069e-05 0.000336615 0)
(-0.000195871 0.000392781 0)
(-0.000303207 0.000408089 0)
(-0.000414659 0.000411044 0)
(-0.000525741 0.000410982 0)
(-0.000636575 0.000410199 0)
(-0.00074716 0.000409148 0)
(-0.000857407 0.000407906 0)
(-0.000967255 0.000406481 0)
(-0.00107665 0.000404873 0)
(-0.00118553 0.000403082 0)
(-0.00129385 0.000401104 0)
(-0.00140155 0.000398939 0)
(-0.00150857 0.000396586 0)
(-0.00161486 0.000394042 0)
(-0.00172036 0.000391306 0)
(-0.00182502 0.000388377 0)
(-0.00192878 0.000385253 0)
(-0.00203158 0.000381933 0)
(-0.00213338 0.000378416 0)
(-0.0022341 0.000374701 0)
(-0.0023337 0.000370786 0)
(-0.00243212 0.000366672 0)
(-0.00252931 0.000362358 0)
(-0.0026252 0.000357844 0)
(-0.00271974 0.000353133 0)
(-0.00281287 0.000348224 0)
(-0.00290455 0.000343121 0)
(-0.00299472 0.000337828 0)
(-0.00308332 0.00033235 0)
(-0.0031703 0.000326694 0)
(-0.00325561 0.00032087 0)
(-0.00333922 0.000314889 0)
(-0.00342107 0.000308768 0)
(-0.00350112 0.000302527 0)
(-0.00357934 0.00029619 0)
(-0.0036557 0.000289789 0)
(-0.00373018 0.000283366 0)
(-0.00380276 0.000276969 0)
(-0.00387345 0.000270664 0)
(-0.00394226 0.000264532 0)
(-0.00400921 0.000258677 0)
(-0.00407436 0.00025323 0)
(-0.00413777 0.000248362 0)
(-0.00419956 0.000244296 0)
(-0.00425985 0.000241321 0)
(-0.00431883 0.000239822 0)
(-0.00437671 0.000240313 0)
(-0.00443378 0.000243492 0)
(-0.00449032 0.000250317 0)
(-0.00454667 0.000262116 0)
(-0.00460311 0.00028076 0)
(-0.00465972 0.000308905 0)
(-0.00471607 0.000350368 0)
(-0.00477054 0.000410509 0)
(-0.00481981 0.00049654 0)
(-0.0048547 0.000619109 0)
(-0.00484996 0.000790198 0)
(-0.00479937 0.000988978 0)
(-1.48297e-05 0.000227436 0)
(-8.72446e-05 0.000429088 0)
(-0.000196495 0.000499619 0)
(-0.000304222 0.000518682 0)
(-0.000416102 0.000522335 0)
(-0.000527585 0.000522228 0)
(-0.000638811 0.000521212 0)
(-0.000749784 0.000519851 0)
(-0.000860417 0.000518238 0)
(-0.000970651 0.000516386 0)
(-0.00108043 0.000514296 0)
(-0.0011897 0.000511965 0)
(-0.0012984 0.000509394 0)
(-0.00140648 0.00050658 0)
(-0.00151388 0.000503521 0)
(-0.00162055 0.000500216 0)
(-0.00172643 0.000496664 0)
(-0.00183147 0.000492862 0)
(-0.00193561 0.000488809 0)
(-0.00203879 0.000484504 0)
(-0.00214095 0.000479945 0)
(-0.00224205 0.000475131 0)
(-0.00234202 0.000470062 0)
(-0.0024408 0.000464736 0)
(-0.00253834 0.000459153 0)
(-0.00263459 0.000453315 0)
(-0.00272948 0.000447222 0)
(-0.00282295 0.000440877 0)
(-0.00291497 0.000434282 0)
(-0.00300545 0.000427443 0)
(-0.00309437 0.000420366 0)
(-0.00318165 0.00041306 0)
(-0.00326725 0.000405536 0)
(-0.00335111 0.000397809 0)
(-0.0034332 0.000389897 0)
(-0.00351346 0.000381825 0)
(-0.00359185 0.000373622 0)
(-0.00366834 0.000365325 0)
(-0.00374289 0.000356983 0)
(-0.00381548 0.000348654 0)
(-0.0038861 0.000340412 0)
(-0.00395472 0.000332352 0)
(-0.00402136 0.000324592 0)
(-0.00408603 0.000317281 0)
(-0.00414875 0.00031061 0)
(-0.00420957 0.000304823 0)
(-0.00426854 0.000300236 0)
(-0.00432573 0.000297255 0)
(-0.0043812 0.000296413 0)
(-0.00443501 0.000298408 0)
(-0.00448719 0.000304162 0)
(-0.00453766 0.000314896 0)
(-0.00458615 0.00033223 0)
(-0.004632 0.0003583 0)
(-0.00467385 0.000395893 0)
(-0.00470915 0.000448468 0)
(-0.00473346 0.00052003 0)
(-0.00473823 0.000615039 0)
(-0.00470864 0.00073508 0)
(-0.00463404 0.000868129 0)
(-1.47766e-05 0.000277642 0)
(-8.73289e-05 0.000521745 0)
(-0.000196889 0.000606681 0)
(-0.000304899 0.00062951 0)
(-0.000417095 0.000633854 0)
(-0.000528879 0.000633695 0)
(-0.000640403 0.000632443 0)
(-0.000751671 0.000630769 0)
(-0.0008626 0.000628786 0)
(-0.000973128 0.000626507 0)
(-0.0010832 0.000623934 0)
(-0.00119277 0.000621066 0)
(-0.00130177 0.000617902 0)
(-0.00141015 0.00061444 0)
(-0.00151785 0.000610677 0)
(-0.00162482 0.000606613 0)
(-0.00173101 0.000602245 0)
(-0.00183635 0.000597571 0)
(-0.00194079 0.00059259 0)
(-0.00204428 0.000587301 0)
(-0.00214675 0.0005817 0)
(-0.00224815 0.000575788 0)
(-0.00234843 0.000569563 0)
(-0.00244752 0.000563025 0)
(-0.00254536 0.000556173 0)
(-0.00264191 0.000549008 0)
(-0.0027371 0.000541531 0)
(-0.00283088 0.000533745 0)
(-0.00292319 0.000525654 0)
(-0.00301396 0.000517262 0)
(-0.00310315 0.000508577 0)
(-0.0031907 0.000499609 0)
(-0.00327654 0.00049037 0)
(-0.00336064 0.000480877 0)
(-0.00344294 0.00047115 0)
(-0.00352338 0.000461216 0)
(-0.00360191 0.000451109 0)
(-0.0036785 0.000440868 0)
(-0.00375309 0.000430547 0)
(-0.00382565 0.00042021 0)
(-0.00389614 0.000409937 0)
(-0.00396454 0.000399828 0)
(-0.0040308 0.000390011 0)
(-0.00409492 0.000380642 0)
(-0.00415687 0.000371919 0)
(-0.00421663 0.000364092 0)
(-0.00427417 0.000357476 0)
(-0.00432946 0.00035247 0)
(-0.00438243 0.000349582 0)
(-0.00443296 0.000349457 0)
(-0.00448084 0.000352914 0)
(-0.00452571 0.000360989 0)
(-0.00456693 0.000374972 0)
(-0.00460344 0.000396446 0)
(-0.00463353 0.000427264 0)
(-0.00465443 0.000469423 0)
(-0.00466194 0.000524751 0)
(-0.0046495 0.000594309 0)
(-0.00460797 0.000676122 0)
(-0.00452948 0.000761926 0)
(-1.4753e-05 0.000327889 0)
(-8.74527e-05 0.000614645 0)
(-0.000197319 0.000714049 0)
(-0.000305633 0.000740669 0)
(-0.000418162 0.000745705 0)
(-0.000530274 0.000745491 0)
(-0.000642123 0.000744001 0)
(-0.000753716 0.000742014 0)
(-0.000864969 0.00073966 0)
(-0.000975823 0.000736955 0)
(-0.00108622 0.000733901 0)
(-0.00119612 0.000730497 0)
(-0.00130544 0.000726741 0)
(-0.00141416 0.000722631 0)
(-0.00152219 0.000718166 0)
(-0.0016295 0.000713344 0)
(-0.00173602 0.000708161 0)
(-0.0018417 0.000702617 0)
(-0.00194648 0.00069671 0)
(-0.00205031 0.000690436 0)
(-0.00215312 0.000683795 0)
(-0.00225487 0.000676785 0)
(-0.00235549 0.000669405 0)
(-0.00245493 0.000661654 0)
(-0.00255312 0.000653531 0)
(-0.00265001 0.000645037 0)
(-0.00274555 0.000636173 0)
(-0.00283966 0.000626942 0)
(-0.0029323 0.000617347 0)
(-0.0030234 0.000607393 0)
(-0.00311291 0.00059709 0)
(-0.00320076 0.000586446 0)
(-0.0032869 0.000575474 0)
(-0.00337127 0.000564193 0)
(-0.00345382 0.000552624 0)
(-0.00353447 0.000540794 0)
(-0.00361318 0.000528739 0)
(-0.0036899 0.000516501 0)
(-0.00376456 0.000504135 0)
(-0.00383712 0.000491706 0)
(-0.00390751 0.000479298 0)
(-0.00397569 0.000467012 0)
(-0.0040416 0.000454976 0)
(-0.00410519 0.000443346 0)
(-0.00416638 0.000432316 0)
(-0.00422509 0.000422125 0)
(-0.00428125 0.000413071 0)
(-0.00433472 0.00040552 0)
(-0.00438531 0.000399928 0)
(-0.0044328 0.000396849 0)
(-0.00447679 0.000396961 0)
(-0.00451675 0.000401075 0)
(-0.00455185 0.000410137 0)
(-0.00458089 0.00042521 0)
(-0.00460211 0.000447389 0)
(-0.00461297 0.000477624 0)
(-0.00461 0.000516396 0)
(-0.00458849 0.000563158 0)
(-0.00454284 0.000615068 0)
(-0.00446833 0.000665825 0)
(-1.4744e-05 0.000378201 0)
(-8.76181e-05 0.000707794 0)
(-0.000197827 0.000821739 0)
(-0.000306491 0.000852176 0)
(-0.000419398 0.00085791 0)
(-0.000531884 0.000857641 0)
(-0.000644108 0.000855912 0)
(-0.000756076 0.000853612 0)
(-0.000867705 0.000850887 0)
(-0.000978935 0.000847757 0)
(-0.00108971 0.000844223 0)
(-0.00119998 0.000840284 0)
(-0.00130969 0.000835939 0)
(-0.00141879 0.000831184 0)
(-0.00152721 0.000826018 0)
(-0.0016349 0.000820439 0)
(-0.00174181 0.000814445 0)
(-0.00184788 0.000808032 0)
(-0.00195306 0.000801199 0)
(-0.00205728 0.000793944 0)
(-0.0021605 0.000786264 0)
(-0.00226264 0.000778157 0)
(-0.00236366 0.000769622 0)
(-0.0024635 0.000760658 0)
(-0.00256209 0.000751263 0)
(-0.00265939 0.000741439 0)
(-0.00275532 0.000731185 0)
(-0.00284983 0.000720505 0)
(-0.00294286 0.000709401 0)
(-0.00303434 0.000697878 0)
(-0.00312423 0.000685945 0)
(-0.00321244 0.000673612 0)
(-0.00329893 0.00066089 0)
(-0.00338363 0.000647799 0)
(-0.00346647 0.000634359 0)
(-0.0035474 0.000620598 0)
(-0.00362635 0.000606551 0)
(-0.00370324 0.00059226 0)
(-0.00377803 0.00057778 0)
(-0.00385063 0.000563176 0)
(-0.00392098 0.000548529 0)
(-0.00398901 0.000533937 0)
(-0.00405462 0.000519523 0)
(-0.00411773 0.000505434 0)
(-0.00417824 0.000491851 0)
(-0.00423602 0.000478994 0)
(-0.00429093 0.000467128 0)
(-0.00434276 0.000456574 0)
(-0.00439126 0.000447715 0)
(-0.00443608 0.000441003 0)
(-0.00447678 0.000436963 0)
(-0.00451269 0.000436187 0)
(-0.00454296 0.000439316 0)
(-0.00456636 0.000446988 0)
(-0.00458129 0.000459743 0)
(-0.00458561 0.000477852 0)
(-0.00457662 0.000501054 0)
(-0.00455107 0.000528156 0)
(-0.00450557 0.000556386 0)
(-0.00443752 0.000580995 0)
(-1.4742e-05 0.0004286 0)
(-8.78192e-05 0.000801223 0)
(-0.000198418 0.000929792 0)
(-0.000307482 0.000964074 0)
(-0.000420816 0.000970512 0)
(-0.000533728 0.00097019 0)
(-0.000646379 0.000968222 0)
(-0.000758775 0.00096561 0)
(-0.000870833 0.000962516 0)
(-0.000982493 0.000958962 0)
(-0.0010937 0.00095495 0)
(-0.00120441 0.000950478 0)
(-0.00131455 0.000945544 0)
(-0.00142408 0.000940147 0)
(-0.00153295 0.000934282 0)
(-0.00164108 0.000927949 0)
(-0.00174844 0.000921145 0)
(-0.00185496 0.000913866 0)
(-0.00196058 0.00090611 0)
(-0.00206526 0.000897875 0)
(-0.00216892 0.000889158 0)
(-0.00227153 0.000879956 0)
(-0.002373 0.000870267 0)
(-0.0024733 0.000860091 0)
(-0.00257235 0.000849425 0)
(-0.00267011 0.000838269 0)
(-0.0027665 0.000826623 0)
(-0.00286146 0.00081449 0)
(-0.00295494 0.000801871 0)
(-0.00304688 0.000788772 0)
(-0.00313719 0.0007752 0)
(-0.00322584 0.000761163 0)
(-0.00331273 0.000746674 0)
(-0.00339782 0.00073175 0)
(-0.00348103 0.00071641 0)
(-0.0035623 0.000700683 0)
(-0.00364154 0.0006846 0)
(-0.00371869 0.000668204 0)
(-0.00379367 0.000651543 0)
(-0.00386639 0.000634681 0)
(-0.00393677 0.000617694 0)
(-0.00400472 0.000600673 0)
(-0.00407013 0.000583731 0)
(-0.00413288 0.000567 0)
(-0.00419283 0.000550643 0)
(-0.00424984 0.000534851 0)
(-0.00430369 0.000519851 0)
(-0.00435415 0.000505908 0)
(-0.00440091 0.000493331 0)
(-0.00444357 0.000482465 0)
(-0.00448163 0.000473694 0)
(-0.00451441 0.000467417 0)
(-0.00454107 0.000464024 0)
(-0.00456049 0.000463835 0)
(-0.00457127 0.000467016 0)
(-0.00457169 0.000473435 0)
(-0.00455973 0.000482475 0)
(-0.00453319 0.000492782 0)
(-0.00449004 0.000501954 0)
(-0.00442896 0.000506468 0)
(-1.47436e-05 0.000479105 0)
(-8.80521e-05 0.000894974 0)
(-0.00019909 0.00103826 0)
(-0.000308603 0.00107642 0)
(-0.000422417 0.00108357 0)
(-0.000535808 0.00108319 0)
(-0.000648939 0.00108099 0)
(-0.000761817 0.00107806 0)
(-0.000874357 0.0010746 0)
(-0.000986502 0.00107062 0)
(-0.0010982 0.00106614 0)
(-0.00120939 0.00106113 0)
(-0.00132003 0.00105561 0)
(-0.00143005 0.00104958 0)
(-0.00153941 0.00104302 0)
(-0.00164804 0.00103593 0)
(-0.0017559 0.00102832 0)
(-0.00186292 0.00102018 0)
(-0.00196905 0.0010115 0)
(-0.00207424 0.00100229 0)
(-0.00217842 0.000992536 0)
(-0.00228153 0.000982241 0)
(-0.00238353 0.0009714 0)
(-0.00248434 0.000960013 0)
(-0.00258392 0.000948075 0)
(-0.00268219 0.000935587 0)
(-0.0027791 0.000922548 0)
(-0.00287458 0.000908959 0)
(-0.00296858 0.000894821 0)
(-0.00306102 0.000880139 0)
(-0.00315184 0.000864917 0)
(-0.00324097 0.000849164 0)
(-0.00332835 0.000832891 0)
(-0.0034139 0.000816113 0)
(-0.00349754 0.000798848 0)
(-0.00357921 0.00078112 0)
(-0.00365883 0.00076296 0)
(-0.0037363 0.000744405 0)
(-0.00381155 0.000725502 0)
(-0.00388449 0.000706306 0)
(-0.00395499 0.000686885 0)
(-0.00402297 0.000667322 0)
(-0.0040883 0.000647715 0)
(-0.00415082 0.000628181 0)
(-0.00421039 0.000608856 0)
(-0.00426682 0.000589901 0)
(-0.00431987 0.000571501 0)
(-0.00436928 0.000553865 0)
(-0.0044147 0.000537226 0)
(-0.00445572 0.000521835 0)
(-0.00449183 0.000507947 0)
(-0.00452237 0.000495808 0)
(-0.00454654 0.000485612 0)
(-0.00456337 0.000477461 0)
(-0.00457169 0.000471279 0)
(-0.00457016 0.000466722 0)
(-0.00455728 0.000463039 0)
(-0.0045316 0.000458936 0)
(-0.00449189 0.000452448 0)
(-0.00443752 0.000440983 0)
(-1.47472e-05 0.000529733 0)
(-8.83143e-05 0.000989084 0)
(-0.000199841 0.00114719 0)
(-0.000309854 0.00118925 0)
(-0.000424201 0.00119712 0)
(-0.000538123 0.0011967 0)
(-0.000651787 0.00119426 0)
(-0.000765199 0.00119102 0)
(-0.000878276 0.0011872 0)
(-0.000990959 0.0011828 0)
(-0.00110319 0.00117784 0)
(-0.00121493 0.0011723 0)
(-0.00132611 0.0011662 0)
(-0.00143668 0.00115953 0)
(-0.00154659 0.00115227 0)
(-0.00165578 0.00114444 0)
(-0.00176419 0.00113602 0)
(-0.00187177 0.00112702 0)
(-0.00197847 0.00111743 0)
(-0.00208422 0.00110724 0)
(-0.00218897 0.00109646 0)
(-0.00229266 0.00108507 0)
(-0.00239523 0.00107308 0)
(-0.00249663 0.00106048 0)
(-0.00259678 0.00104728 0)
(-0.00269563 0.00103346 0)
(-0.00279313 0.00101902 0)
(-0.00288919 0.00100398 0)
(-0.00298376 0.000988315 0)
(-0.00307678 0.000972043 0)
(-0.00316817 0.000955164 0)
(-0.00325786 0.000937684 0)
(-0.00334579 0.000919612 0)
(-0.00343187 0.00090096 0)
(-0.00351603 0.000881745 0)
(-0.00359819 0.000861986 0)
(-0.00367826 0.000841711 0)
(-0.00375615 0.000820952 0)
(-0.00383177 0.000799748 0)
(-0.00390501 0.000778148 0)
(-0.00397575 0.000756212 0)
(-0.00404389 0.000734008 0)
(-0.00410927 0.000711619 0)
(-0.00417174 0.000689143 0)
(-0.00423111 0.00066669 0)
(-0.00428719 0.000644388 0)
(-0.00433973 0.00062238 0)
(-0.00438842 0.000600821 0)
(-0.00443294 0.000579877 0)
(-0.00447285 0.000559713 0)
(-0.00450765 0.000540482 0)
(-0.00453675 0.000522307 0)
(-0.00455942 0.000505244 0)
(-0.00457482 0.000489245 0)
(-0.00458201 0.000474098 0)
(-0.00457993 0.000459358 0)
(-0.00456751 0.000444266 0)
(-0.00454378 0.000427679 0)
(-0.004508 0.000408037 0)
(-0.00445989 0.00038342 0)
(-1.47518e-05 0.000580499 0)
(-8.86045e-05 0.00108359 0)
(-0.000200669 0.00125663 0)
(-0.000311233 0.00130264 0)
(-0.000426164 0.00131123 0)
(-0.000540671 0.00131077 0)
(-0.000654921 0.00130809 0)
(-0.000768921 0.00130455 0)
(-0.000882588 0.00130035 0)
(-0.000995862 0.00129554 0)
(-0.00110869 0.0012901 0)
(-0.00122102 0.00128405 0)
(-0.00133281 0.00127736 0)
(-0.00144398 0.00127005 0)
(-0.00155449 0.00126211 0)
(-0.00166429 0.00125353 0)
(-0.00177332 0.00124431 0)
(-0.00188152 0.00123445 0)
(-0.00198883 0.00122395 0)
(-0.00209521 0.00121279 0)
(-0.00220059 0.00120098 0)
(-0.00230491 0.0011885 0)
(-0.00240812 0.00117537 0)
(-0.00251015 0.00116156 0)
(-0.00261094 0.00114709 0)
(-0.00271044 0.00113194 0)
(-0.00280858 0.00111611 0)
(-0.00290529 0.00109961 0)
(-0.00300051 0.00108242 0)
(-0.00309417 0.00106455 0)
(-0.0031862 0.00104601 0)
(-0.00327652 0.00102679 0)
(-0.00336507 0.00100691 0)
(-0.00345176 0.000986369 0)
(-0.00353652 0.000965183 0)
(-0.00361925 0.000943367 0)
(-0.00369986 0.000920944 0)
(-0.00377827 0.000897939 0)
(-0.00385436 0.000874386 0)
(-0.00392802 0.000850324 0)
(-0.00399914 0.0008258 0)
(-0.00406757 0.000800872 0)
(-0.00413316 0.000775605 0)
(-0.00419575 0.000750075 0)
(-0.00425515 0.000724367 0)
(-0.00431113 0.000698577 0)
(-0.00436344 0.000672807 0)
(-0.00441178 0.000647165 0)
(-0.00445581 0.000621756 0)
(-0.00449512 0.000596675 0)
(-0.00452923 0.000571995 0)
(-0.0045576 0.000547744 0)
(-0.0045796 0.000523885 0)
(-0.00459452 0.000500276 0)
(-0.00460158 0.000476635 0)
(-0.00459999 0.000452489 0)
(-0.00458896 0.000427131 0)
(-0.00456783 0.000399594 0)
(-0.00453615 0.000368645 0)
(-0.00449384 0.000332854 0)
(-1.47572e-05 0.000631417 0)
(-8.89217e-05 0.00117854 0)
(-0.000201573 0.00136663 0)
(-0.000312737 0.00141662 0)
(-0.000428307 0.00142595 0)
(-0.000543451 0.00142544 0)
(-0.000658339 0.00142254 0)
(-0.00077298 0.00141869 0)
(-0.00088729 0.00141413 0)
(-0.00100121 0.0014089 0)
(-0.00111469 0.001403 0)
(-0.00122767 0.00139641 0)
(-0.00134011 0.00138915 0)
(-0.00145194 0.00138121 0)
(-0.00156311 0.00137258 0)
(-0.00167357 0.00136326 0)
(-0.00178327 0.00135325 0)
(-0.00189214 0.00134254 0)
(-0.00200013 0.00133112 0)
(-0.00210719 0.001319 0)
(-0.00221326 0.00130616 0)
(-0.00231827 0.0012926 0)
(-0.00242217 0.00127832 0)
(-0.00252491 0.00126332 0)
(-0.00262641 0.00124758 0)
(-0.00272661 0.0012311 0)
(-0.00282546 0.00121388 0)
(-0.00292288 0.00119591 0)
(-0.00301882 0.0011772 0)
(-0.00311319 0.00115774 0)
(-0.00320593 0.00113753 0)
(-0.00329696 0.00111657 0)
(-0.00338621 0.00109487 0)
(-0.0034736 0.00107242 0)
(-0.00355903 0.00104925 0)
(-0.00364242 0.00102535 0)
(-0.00372368 0.00100075 0)
(-0.00380271 0.000975472 0)
(-0.00387938 0.000949529 0)
(-0.00395359 0.000922957 0)
(-0.00402521 0.00089579 0)
(-0.00409408 0.000868072 0)
(-0.00416007 0.00083985 0)
(-0.00422298 0.000811181 0)
(-0.00428261 0.000782124 0)
(-0.00433875 0.000752744 0)
(-0.00439114 0.000723108 0)
(-0.00443948 0.000693281 0)
(-0.00448343 0.000663317 0)
(-0.00452261 0.000633255 0)
(-0.00455658 0.000603106 0)
(-0.00458486 0.000572832 0)
(-0.00460689 0.000542332 0)
(-0.00462207 0.000511414 0)
(-0.0046298 0.000479764 0)
(-0.00462943 0.000446924 0)
(-0.00462041 0.000412266 0)
(-0.00460227 0.000374983 0)
(-0.00457474 0.000334103 0)
(-0.00453782 0.000288551 0)
(-1.47629e-05 0.000682499 0)
(-8.92651e-05 0.00127396 0)
(-0.000202552 0.00147725 0)
(-0.000314367 0.00153125 0)
(-0.000430627 0.00154134 0)
(-0.00054646 0.00154079 0)
(-0.00066204 0.00153765 0)
(-0.000777375 0.00153349 0)
(-0.000892381 0.00152858 0)
(-0.001007 0.00152293 0)
(-0.00112118 0.00151656 0)
(-0.00123487 0.00150946 0)
(-0.00134801 0.00150163 0)
(-0.00146055 0.00149306 0)
(-0.00157244 0.00148374 0)
(-0.00168362 0.00147369 0)
(-0.00179404 0.00146288 0)
(-0.00190365 0.00145132 0)
(-0.00201237 0.001439 0)
(-0.00212017 0.00142591 0)
(-0.00222698 0.00141206 0)
(-0.00233274 0.00139742 0)
(-0.0024374 0.00138201 0)
(-0.0025409 0.0013658 0)
(-0.00264316 0.0013488 0)
(-0.00274414 0.001331 0)
(-0.00284376 0.00131239 0)
(-0.00294197 0.00129297 0)
(-0.00303868 0.00127273 0)
(-0.00313384 0.00125168 0)
(-0.00322737 0.0012298 0)
(-0.00331919 0.00120709 0)
(-0.00340922 0.00118356 0)
(-0.00349738 0.0011592 0)
(-0.00358359 0.00113403 0)
(-0.00366774 0.00110804 0)
(-0.00374974 0.00108125 0)
(-0.00382949 0.00105366 0)
(-0.00390687 0.0010253 0)
(-0.00398176 0.000996181 0)
(-0.00405402 0.000966329 0)
(-0.00412351 0.000935772 0)
(-0.00419005 0.000904542 0)
(-0.00425348 0.000872673 0)
(-0.00431359 0.000840203 0)
(-0.00437015 0.000807169 0)
(-0.0044229 0.000773605 0)
(-0.00447157 0.00073954 0)
(-0.00451584 0.000704988 0)
(-0.00455533 0.000669943 0)
(-0.00458966 0.000634368 0)
(-0.00461838 0.000598182 0)
(-0.00464102 0.000561245 0)
(-0.00465709 0.000523337 0)
(-0.00466607 0.000484145 0)
(-0.00466749 0.000443243 0)
(-0.0046609 0.000400084 0)
(-0.00464599 0.000354 0)
(-0.00462258 0.000304225 0)
(-0.00459071 0.000249941 0)
(-1.47687e-05 0.00073376 0)
(-8.9634e-05 0.00136989 0)
(-0.000203605 0.00158852 0)
(-0.000316119 0.00164659 0)
(-0.000433123 0.00165743 0)
(-0.000549698 0.00165684 0)
(-0.000666022 0.00165348 0)
(-0.000782103 0.00164902 0)
(-0.000897857 0.00164375 0)
(-0.00101323 0.00163769 0)
(-0.00112816 0.00163086 0)
(-0.00124261 0.00162324 0)
(-0.00135651 0.00161484 0)
(-0.00146982 0.00160564 0)
(-0.00158248 0.00159565 0)
(-0.00169444 0.00158486 0)
(-0.00180564 0.00157327 0)
(-0.00191602 0.00156086 0)
(-0.00202554 0.00154764 0)
(-0.00213414 0.0015336 0)
(-0.00224175 0.00151873 0)
(-0.00234832 0.00150303 0)
(-0.0024538 0.00148648 0)
(-0.00255811 0.00146908 0)
(-0.00266121 0.00145082 0)
(-0.00276302 0.0014317 0)
(-0.00286349 0.00141171 0)
(-0.00296254 0.00139084 0)
(-0.00306011 0.00136908 0)
(-0.00315613 0.00134643 0)
(-0.00325051 0.00132289 0)
(-0.0033432 0.00129843 0)
(-0.0034341 0.00127307 0)
(-0.00352313 0.00124681 0)
(-0.00361019 0.00121962 0)
(-0.00369521 0.00119153 0)
(-0.00377806 0.00116253 0)
(-0.00385865 0.00113263 0)
(-0.00393686 0.00110183 0)
(-0.00401256 0.00107014 0)
(-0.00408562 0.00103757 0)
(-0.00415587 0.00100414 0)
(-0.00422317 0.000969871 0)
(-0.00428731 0.000934767 0)
(-0.00434812 0.000898847 0)
(-0.00440535 0.000862126 0)
(-0.00445877 0.00082461 0)
(-0.00450809 0.000786295 0)
(-0.00455303 0.000747164 0)
(-0.00459323 0.000707178 0)
(-0.00462835 0.000666265 0)
(-0.00465798 0.000624315 0)
(-0.00468173 0.000581165 0)
(-0.00469917 0.000536589 0)
(-0.00470989 0.000490283 0)
(-0.00471349 0.000441864 0)
(-0.00470965 0.00039086 0)
(-0.00469813 0.000336721 0)
(-0.0046788 0.00027884 0)
(-0.0046517 0.000216588 0)
(-1.47744e-05 0.000785211 0)
(-9.00276e-05 0.00146638 0)
(-0.00020473 0.0017005 0)
(-0.000317994 0.00176268 0)
(-0.000435794 0.00177429 0)
(-0.000553162 0.00177367 0)
(-0.000670282 0.00177008 0)
(-0.000787161 0.00176533 0)
(-0.000903717 0.0017597 0)
(-0.00101989 0.00175323 0)
(-0.00113563 0.00174594 0)
(-0.00125089 0.00173781 0)
(-0.00136561 0.00172883 0)
(-0.00147974 0.00171902 0)
(-0.00159322 0.00170836 0)
(-0.00170601 0.00169684 0)
(-0.00181804 0.00168446 0)
(-0.00192927 0.00167122 0)
(-0.00203963 0.00165711 0)
(-0.00214908 0.00164212 0)
(-0.00225756 0.00162624 0)
(-0.002365 0.00160947 0)
(-0.00247135 0.0015918 0)
(-0.00257655 0.00157322 0)
(-0.00268054 0.00155371 0)
(-0.00278325 0.00153328 0)
(-0.00288463 0.00151191 0)
(-0.0029846 0.0014896 0)
(-0.00308309 0.00146633 0)
(-0.00318004 0.00144209 0)
(-0.00327537 0.00141688 0)
(-0.003369 0.00139068 0)
(-0.00346085 0.0013635 0)
(-0.00355083 0.00133532 0)
(-0.00363886 0.00130613 0)
(-0.00372483 0.00127593 0)
(-0.00380865 0.00124472 0)
(-0.0038902 0.00121249 0)
(-0.00396936 0.00117924 0)
(-0.00404602 0.00114497 0)
(-0.00412001 0.00110968 0)
(-0.00419121 0.00107336 0)
(-0.00425943 0.00103603 0)
(-0.0043245 0.000997676 0)
(-0.00438623 0.000958297 0)
(-0.00444438 0.000917883 0)
(-0.00449873 0.000876418 0)
(-0.00454902 0.000833875 0)
(-0.00459495 0.000790209 0)
(-0.00463623 0.000745355 0)
(-0.00467252 0.00069922 0)
(-0.00470348 0.000651673 0)
(-0.00472875 0.000602542 0)
(-0.00474797 0.000551601 0)
(-0.0047608 0.000498568 0)
(-0.00476691 0.000443099 0)
(-0.00476604 0.00038479 0)
(-0.00475801 0.000323189 0)
(-0.00474271 0.000257809 0)
(-0.00472018 0.000188162 0)
(-1.47797e-05 0.000836863 0)
(-9.04454e-05 0.00156345 0)
(-0.000205927 0.00181323 0)
(-0.000319989 0.00187957 0)
(-0.000438636 0.00189197 0)
(-0.00055685 0.00189132 0)
(-0.000674818 0.00188751 0)
(-0.000792548 0.00188245 0)
(-0.000909957 0.00187647 0)
(-0.00102699 0.0018696 0)
(-0.00114359 0.00186185 0)
(-0.00125971 0.00185321 0)
(-0.0013753 0.00184368 0)
(-0.0014903 0.00183325 0)
(-0.00160466 0.00182192 0)
(-0.00171833 0.00180968 0)
(-0.00183125 0.00179653 0)
(-0.00194338 0.00178246 0)
(-0.00205465 0.00176746 0)
(-0.002165 0.00175152 0)
(-0.0022744 0.00173465 0)
(-0.00238277 0.00171682 0)
(-0.00249005 0.00169803 0)
(-0.0025962 0.00167827 0)
(-0.00270114 0.00165753 0)
(-0.00280482 0.0016358 0)
(-0.00290717 0.00161306 0)
(-0.00300813 0.00158931 0)
(-0.00310762 0.00156453 0)
(-0.00320557 0.00153872 0)
(-0.00330192 0.00151185 0)
(-0.00339658 0.00148393 0)
(-0.00348947 0.00145492 0)
(-0.0035805 0.00142483 0)
(-0.00366958 0.00139364 0)
(-0.00375662 0.00136134 0)
(-0.00384151 0.00132792 0)
(-0.00392413 0.00129337 0)
(-0.00400438 0.00125767 0)