/*--------------------------------*- C++ -*----------------------------------*\
  =========                 |
  \\      /  F ield         | OpenFOAM: The Open Source CFD Toolbox
   \\    /   O peration     | Website:  https://openfoam.org
    \\  /    A nd           | Version:  8
     \\/     M anipulation  |
\*---------------------------------------------------------------------------*/
FoamFile
{
    version     2.0;
    format      ascii;
    class       volScalarField;
    location    "0.872";
    object      T;
}
// * * * * * * * * * * * * * * * * * * * * * * * * * * * * * * * * * * * * * //

dimensions      [0 0 0 1 0 0 0];

internalField   nonuniform List<scalar> 
100
(
49.9726
4.83561
-4.92401
-1.24127
1.2963
0.854086
-0.378494
-1.20082
0.261702
0.514178
95.2731
49.887
11.2241
-4.93494
-3.5598
0.720582
2.16586
1.20041
-1.76314
-1.01195
104.695
89.2376
49.505
13.4015
-4.06241
-4.68887
-0.247071
1.58125
1.94035
0.162071
101.573
104.316
88.0055
48.8739
13.8217
-3.55414
-5.32371
1.73792
0.686132
-0.242002
98.5191
103.88
103.314
87.4913
49.5869
15.2203
-4.14865
-9.03351
2.94207
2.99932
99.3094
98.9578
105.387
102.523
85.3496
49.7502
18.3602
-2.59596
-11.0786
-1.53048
100.094
98.3372
99.0394
107.4
102.891
82.5446
49.0019
18.3762
1.23236
-5.76404
101.097
99.0887
97.897
98.6217
109.033
102.901
81.5176
49.5625
13.6509
3.55628
100.093
101.12
99.5764
96.7864
98.557
109.955
101.16
86.6051
48.5573
4.51788
99.5955
100.768
100.347
99.6232
97.2688
101.191
106.247
96.887
94.8418
49.841
)
;

boundaryField
{
    left
    {
        type            fixedValue;
        value           uniform 100;
    }
    right
    {
        type            zeroGradient;
    }
    up
    {
        type            zeroGradient;
    }
    down
    {
        type            fixedValue;
        value           uniform 0;
    }
    frontAndBack
    {
        type            empty;
    }
}


// ************************************************************************* //
