/*--------------------------------*- C++ -*----------------------------------*\
  =========                 |
  \\      /  F ield         | OpenFOAM: The Open Source CFD Toolbox
   \\    /   O peration     | Website:  https://openfoam.org
    \\  /    A nd           | Version:  8
     \\/     M anipulation  |
\*---------------------------------------------------------------------------*/
FoamFile
{
    version     2.0;
    format      ascii;
    class       volScalarField;
    location    "1";
    object      T;
}
// * * * * * * * * * * * * * * * * * * * * * * * * * * * * * * * * * * * * * //

dimensions      [0 0 0 1 0 0 0];

internalField   nonuniform List<scalar> 
2500
(
50
25
12.5
6.25
3.125
1.5625
0.78125
0.390625
0.195313
0.0976563
0.0488281
0.0244141
0.012207
0.00610352
0.00305176
0.00152588
0.000762939
0.00038147
0.000190735
9.53674e-05
4.76837e-05
2.38419e-05
1.19209e-05
5.96046e-06
2.98023e-06
1.49012e-06
7.45058e-07
3.72529e-07
1.86265e-07
9.31323e-08
4.65661e-08
2.32831e-08
1.16415e-08
5.82077e-09
2.91038e-09
1.45519e-09
7.27596e-10
3.63798e-10
1.81899e-10
9.09495e-11
4.54747e-11
2.27374e-11
1.13687e-11
5.68434e-12
2.84217e-12
1.42109e-12
7.10543e-13
3.55271e-13
1.77636e-13
8.88178e-14
75
50
31.25
18.75
10.9375
6.25
3.51562
1.95312
1.07422
0.585937
0.317383
0.170898
0.0915527
0.0488281
0.0259399
0.0137329
0.00724792
0.0038147
0.00200272
0.00104904
0.000548363
0.000286102
0.000149012
7.7486e-05
4.02331e-05
2.08616e-05
1.08033e-05
5.58794e-06
2.8871e-06
1.49012e-06
7.68341e-07
3.95812e-07
2.03727e-07
1.04774e-07
5.38421e-08
2.76486e-08
1.41881e-08
7.27596e-09
3.72893e-09
1.90994e-09
9.77707e-10
5.00222e-10
2.55795e-10
1.3074e-10
6.6791e-11
3.41061e-11
1.74083e-11
8.88178e-12
4.52971e-12
2.30926e-12
87.5
68.75
50
34.375
22.6562
14.4531
8.98437
5.46875
3.27148
1.92871
1.12305
0.646973
0.369263
0.209045
0.117493
0.0656128
0.0364304
0.0201225
0.0110626
0.00605583
0.0033021
0.0017941
0.000971556
0.000524521
0.000282377
0.000151619
8.12113e-05
4.33996e-05
2.31434e-05
1.23167e-05
6.54254e-06
3.46918e-06
1.83645e-06
9.70613e-07
5.12227e-07
2.69938e-07
1.42063e-07
7.46695e-08
3.91992e-08
2.05546e-08
1.07661e-08
5.63318e-09
2.94449e-09
1.53761e-09
8.02203e-10
4.18154e-10
2.17781e-10
1.13332e-10
5.89306e-11
3.062e-11
93.75
81.25
65.625
50
36.3281
25.3906
17.1875
11.3281
7.2998
4.61426
2.86865
1.75781
1.06354
0.636292
0.376892
0.221252
0.128841
0.074482
0.0427723
0.0244141
0.0138581
0.00782609
0.00439882
0.00246167
0.00137202
0.000761822
0.000421517
0.000232458
0.000127801
7.00587e-05
3.83006e-05
2.08849e-05
1.13607e-05
6.16565e-06
3.33894e-06
1.80444e-06
9.7325e-07
5.2396e-07
2.8158e-07
1.51067e-07
8.09166e-08
4.32749e-08
2.31097e-08
1.23237e-08
6.56293e-09
3.49054e-09
1.85416e-09
9.83746e-10
5.21339e-10
2.75979e-10
96.875
89.0625
77.3438
63.6719
50
37.6953
27.4414
19.3848
13.3423
8.97827
5.92346
3.84064
2.45209
1.54419
0.960541
0.590897
0.359869
0.217175
0.129974
0.077194
0.045526
0.0266761
0.0155374
0.00899956
0.00518579
0.00297381
0.00169766
0.00096506
0.00054643
0.000308244
0.000173273
9.70787e-05
5.42197e-05
3.01927e-05
1.67658e-05
9.28512e-06
5.12919e-06
2.82657e-06
1.55408e-06
8.52572e-07
4.66744e-07
2.5501e-07
1.3906e-07
7.56916e-08
4.11273e-08
2.23089e-08
1.20815e-08
6.53264e-09
3.52699e-09
1.90148e-09
98.4375
93.75
85.5469
74.6094
62.3047
50
38.7207
29.0527
21.1975
15.0879
10.5057
7.17316
4.81262
3.17841
2.06947
1.33018
0.845027
0.531101
0.330538
0.203866
0.124696
0.075686
0.0456117
0.0273056
0.0162457
0.00960976
0.00565371
0.00330938
0.00192791
0.00111808
0.000645674
0.000371377
0.000212798
0.000121495
6.91306e-05
3.92079e-05
2.21685e-05
1.24975e-05
7.02581e-06
3.93919e-06
2.20297e-06
1.22899e-06
6.84024e-07
3.79858e-07
2.10493e-07
1.16401e-07
6.42411e-08
3.53869e-08
1.94569e-08
1.06792e-08
99.2188
96.4844
91.0156
82.8125
72.5586
61.2793
50
39.5264
30.3619
22.7249
16.6153
11.8942
8.35342
5.76591
3.91769
2.62394
1.73448
1.13279
0.731665
0.467765
0.296231
0.185958
0.115785
0.0715453
0.0438955
0.0267526
0.0162032
0.00975628
0.00584209
0.00348008
0.00206288
0.00121713
0.000714963
0.000418229
0.00024368
0.000141444
8.18062e-05
4.71519e-05
2.70888e-05
1.5514e-05
8.85849e-06
5.04374e-06
2.86388e-06
1.62187e-06
9.16181e-07
5.16291e-07
2.90266e-07
1.62827e-07
9.11417e-08
5.09105e-08
99.6094
98.0469
94.5313
88.6719
80.6152
70.9473
60.4736
50
40.181
31.4529
24.0341
17.9642
13.1588
9.46236
6.69003
4.65698
3.19573
2.16426
1.44796
0.957865
0.627048
0.406503
0.261144
0.166345
0.10512
0.0659364
0.0410698
0.025413
0.0156276
0.00955382
0.00580835
0.00351274
0.00211385
0.00126604
0.00075486
0.000448152
0.000264979
0.000156065
9.15772e-05
5.35456e-05
3.1202e-05
1.81229e-05
1.04934e-05
6.05763e-06
3.48691e-06
2.0016e-06
1.14593e-06
6.54379e-07
3.72761e-07
2.11835e-07
99.8047
98.9258
96.7285
92.7002
86.6577
78.8025
69.6381
59.819
50
40.7265
32.3803
25.1722
19.1655
14.3139
10.502
7.57948
5.38761
3.77593
2.61195
1.78491
1.20598
0.80624
0.533692
0.350018
0.227569
0.146753
0.0939113
0.0596621
0.0376449
0.0235993
0.0147038
0.00910829
0.00561107
0.00343856
0.00209671
0.00127243
0.000768705
0.000462385
0.000276981
0.000165263
9.82327e-05
5.81778e-05
3.43356e-05
2.01966e-05
1.18418e-05
6.92168e-06
4.0338e-06
2.34409e-06
1.35843e-06
7.85131e-07
99.9023
99.4141
98.0713
95.3857
91.0217
84.9121
77.2751
68.5471
59.2735
50
41.1901
33.1812
26.1734
20.2436
15.3728
11.4761
8.43188
6.10391
4.35793
3.07142
2.1387
1.47247
1.00308
0.676549
0.452059
0.299406
0.196659
0.12816
0.0829026
0.053251
0.0339774
0.0215429
0.013577
0.00850776
0.00530223
0.00328733
0.00202802
0.0012452
0.000761091
0.000463177
0.000280705
0.000169441
0.000101888
6.10426e-05
3.64422e-05
2.16819e-05
1.28579e-05
7.60098e-06
4.4797e-06
2.63242e-06
99.9512
99.6826
98.877
97.1313
94.0765
89.4943
83.3847
75.9659
67.6197
58.8099
50
41.5906
33.882
27.0628
21.2178
16.347
12.3894
9.24667
6.8023
4.93686
3.53778
2.50512
1.7541
1.21533
0.833692
0.566549
0.381604
0.254882
0.168892
0.111072
0.0725246
0.0470337
0.0303053
0.0194065
0.0123544
0.00782086
0.00492444
0.00308482
0.00192296
0.00119307
0.000736886
0.000453164
0.000277526
0.000169284
0.000102863
6.22726e-05
3.75652e-05
2.25831e-05
1.35314e-05
8.08191e-06
99.9756
99.8291
99.353
98.2422
96.1594
92.8268
88.1058
82.0358
74.8278
66.8188
58.4094
50
41.941
34.5019
27.8599
22.1034
17.2464
13.2465
10.0244
7.48064
5.50921
4.00717
2.88063
2.04798
1.44084
1.00369
0.692648
0.473765
0.321329
0.2162
0.144362
0.0956981
0.0630017
0.0412041
0.0267793
0.0173001
0.0111122
0.00709853
0.00451075
0.00285191
0.0017944
0.00112378
0.000700653
0.000434969
0.000268916
0.000165594
0.00010158
6.20814e-05
3.78064e-05
2.29442e-05
99.9878
99.9084
99.6307
98.9365
97.5479
95.1874
91.6466
86.8412
80.8345
73.8266
66.118
58.059
50
42.2509
35.0554
28.5794
22.9129
18.0797
14.0521
10.7664
8.13778
6.07247
4.47655
3.26227
2.35155
1.67762
1.18514
0.82945
0.575389
0.395795
0.270079
0.182888
0.122945
0.0820746
0.0544269
0.0358635
0.0234879
0.0152932
0.00990197
0.00637694
0.00408567
0.00260472
0.00165269
0.00104383
0.000656372
0.000410983
0.000256281
0.000159181
9.84939e-05
6.0719e-05
99.9939
99.9512
99.791
99.3637
98.4558
96.8216
94.2341
90.5376
85.6861
79.7564
72.9372
65.4981
57.7491
50
42.5277
35.5536
29.2332
23.6565
18.8543
14.8103
11.4741
8.77326
6.62491
4.94359
3.64757
2.6626
1.92387
1.37666
0.976024
0.685909
0.477994
0.330441
0.226693
0.154384
0.104405
0.0701344
0.0468111
0.0310522
0.0204771
0.013427
0.00875634
0.00568053
0.00366661
0.00235522
0.0015058
0.000958389
0.000607335
0.000383258
0.000240876
0.000150798
99.9969
99.9741
99.8825
99.6231
99.0395
97.9305
96.0823
93.31
89.498
84.6272
78.7822
72.1401
64.9446
57.4723
50
42.7768
36.005
29.8307
24.3425
19.5764
15.5252
12.1492
9.38708
7.16533
5.40645
4.03452
2.97919
2.17793
1.57697
1.13144
0.804718
0.56758
0.397136
0.27576
0.190083
0.130109
0.0884599
0.059756
0.0401165
0.0267718
0.0177641
0.0117223
0.00769445
0.00502483
0.00326532
0.00211185
0.00135959
0.000871426
0.000556151
0.000353474
99.9985
99.9863
99.9344
99.7787
99.4091
98.6698
97.3761
95.343
92.4205
88.5239
83.653
77.8966
71.4206
64.4464
57.2232
50
43.0025
36.4166
30.3796
24.978
20.2516
16.2004
12.7938
9.97954
7.693
5.86376
4.42148
3.2997
2.43834
1.78489
1.2948
0.931192
0.664164
0.469962
0.330022
0.230065
0.159263
0.109509
0.0748129
0.0507924
0.0342782
0.0230003
0.0153474
0.0101861
0.0067257
0.00441878
0.00288919
0.00188031
0.00121823
0.000785851
99.9992
99.9928
99.9636
99.8712
99.6401
99.155
98.2655
96.8043
94.6124
91.5681
87.6106
82.7536
77.0871
70.7668
63.995
56.9975
50
43.2083
36.7939
30.886
25.5688
20.8846
16.8392
13.4094
10.5512
8.20747
6.31447
4.80709
3.62271
2.7038
1.9993
1.46525
1.06471
0.767334
0.548678
0.389372
0.274317
0.191913
0.133363
0.0920777
0.063178
0.0430891
0.0292182
0.0197022
0.0132139
0.00881636
0.00585277
0.00386654
0.00254238
0.00166412
99.9996
99.9962
99.9799
99.9255
99.7828
99.4689
98.8672
97.8357
96.2241
93.8961
90.7533
86.7535
81.9203
76.3435
70.1693
63.5834
56.7917
50
43.397
37.1415
31.3551
26.1199
21.4795
17.4444
13.9978
11.1026
8.70856
6.75782
5.19027
3.94703
2.97317
2.21921
1.64196
1.20465
0.876662
0.633017
0.453667
0.32279
0.228077
0.160077
0.111628
0.0773583
0.0532883
0.0364952
0.0248546
0.0168355
0.0113441
0.00760533
0.00507386
0.00336899
99.9998
99.998
99.9889
99.9572
99.87
99.6695
99.2683
98.552
97.3881
95.6421
93.1977
89.9756
85.9479
81.1457
75.6575
69.6204
63.2061
56.603
50
43.5707
37.4629
31.7914
26.6355
22.04
18.0189
14.5608
11.6347
9.19624
7.19325
5.57014
4.27166
3.24543
2.44369
1.82417
1.35042
0.991716
0.722692
0.522741
0.375409
0.267743
0.189685
0.133522
0.0934051
0.0649501
0.0449024
0.0308689
0.0211065
0.0143559
0.00971489
0.00654194
99.9999
99.999
99.9939
99.9756
99.9228
99.7961
99.5322
99.0421
98.2151
96.9286
95.0631
92.5194
89.2336
85.1897
80.4236
75.022
69.114
62.8585
56.4293
50
43.7315
37.7614
32.1984
27.1192
22.569
18.5649
15.0998
12.148
9.67063
7.62039
5.94602
4.59573
3.51971
2.67194
2.01118
1.50145
1.11207
0.817405
0.596407
0.432075
0.31088
0.222201
0.157803
0.111377
0.0781395
0.0545042
0.0378054
0.0260806
0.0178978
0.0122199
100
99.9995
99.9967
99.9861
99.9545
99.8753
99.7038
99.373
98.794
97.8613
96.4622
94.4908
91.8622
88.5259
84.4748
79.7484
74.4312
68.6449
62.5371
56.2685
50
43.8807
38.0396
32.5794
27.5742
23.0696
19.0847
15.6163
12.6435
10.1319
8.03898
6.31735
4.91853
3.79524
2.90321
2.20233
1.6572
1.2373
0.916854
0.674465
0.492672
0.357437
0.25762
0.184498
0.131319
0.0929115
0.0653584
0.0457195
0.0318086
0.0220143
100
99.9997
99.9982
99.9922
99.9733
99.9243
99.814
99.5935
99.1938
98.5275
97.4949
95.9928
93.9275
91.2267
87.8508
83.7996
79.1154
73.8801
68.2086
62.2386
56.1193
50
44.0198
38.2996
32.9369
28.0032
23.544
19.5801
16.1118
13.1219
10.5804
8.44889
6.68371
5.23947
4.07134
3.13683
2.39702
1.81716
1.36701
1.02074
0.756704
0.55707
0.407345
0.295922
0.21362
0.153266
0.109312
0.0775158
0.0546622
0.0383382
100
99.9999
99.999
99.9956
99.9845
99.9544
99.8842
99.7389
99.4663
98.9969
98.2459
97.1194
95.5234
93.3751
90.6129
87.2062
83.1608
78.5205
73.3645
67.8016
61.9604
55.9802
50
44.1498
38.5433
33.2733
28.4086
23.9944
20.0531
16.5875
13.584
11.0164
8.85007
7.04477
5.55806
4.34744
3.37223
2.59469
1.98085
1.50079
1.12875
0.84291
0.625127
0.460524
0.337072
0.245169
0.177241
0.127378
0.0910202
0.0646792
100
99.9999
99.9995
99.9975
99.991
99.9727
99.9285
99.8337
99.65
99.3235
98.7847
97.952
96.7377
95.0564
92.8347
90.0205
86.5906
82.5556
77.96
72.8808
67.4206
61.7004
55.8502
50
44.2717
38.7725
33.5906
28.7925
24.4228
20.5051
17.0445
14.0305
11.4403
9.24252
7.40029
5.87387
4.62305
3.60887
2.79486
2.14783
1.63829
1.2406
0.932863
0.696694
0.516883
0.381026
0.279133
0.203256
0.147138
0.105909
100
100
99.9997
99.9986
99.9948
99.9838
99.9561
99.8949
99.7724
99.5479
99.1663
98.5592
97.6484
96.3524
94.5935
92.307
89.4488
86.0022
81.9811
77.431
72.4258
67.0631
61.4567
55.7283
50
44.3862
38.9884
33.8904
29.1566
24.8309
20.9377
17.4841
14.4622
11.8524
9.62632
7.7501
6.18657
4.89772
3.84629
2.99706
2.31767
1.77914
1.356
1.02635
0.771615
0.57632
0.427727
0.315491
0.231315
0.168612
100
100
99.9998
99.9992
99.997
99.9904
99.9732
99.9341
99.8532
99.7006
99.4335
98.9963
98.3224
97.3374
95.9655
94.1362
91.7925
88.8974
85.4392
81.4351
76.9304
71.9968
66.7267
61.2275
55.6138
50
44.4942
39.1923
34.1745
29.5027
25.2202
21.3521
17.9072
14.8798
12.253
10.0016
8.09407
6.4959
5.17109
4.08408
3.20088
2.49001
1.923
1.47467
1.12314
0.849733
0.63873
0.477111
0.354213
0.261412
100
100
99.9999
99.9996
99.9983
99.9943
99.9838
99.9589
99.9061
99.8033
99.6184
99.3074
98.8149
98.0761
97.0208
95.5785
93.6855
91.2914
88.3653
84.9002
80.9153
76.456
71.5914
66.4094
61.0116
55.5058
50
44.5962
39.3853
34.444
29.8321
25.5921
21.7496
18.3147
15.2839
12.6427
10.3684
8.43215
6.80162
5.44285
4.32186
3.40593
2.66447
2.06957
1.59636
1.22305
0.930888
0.703999
0.529106
0.395259
100
100
100
99.9998
99.999
99.9967
99.9902
99.9746
99.9403
99.8718
99.7451
99.5262
99.1705
98.6233
97.8221
96.7003
95.1929
93.2422
90.8038
87.852
84.3837
80.4199
76.0056
71.2075
66.1096
60.8077
55.4038
50
44.6927
39.5683
34.7002
30.1462
25.9479
22.1313
18.7076
15.6752
13.0218
10.727
8.76429
7.10357
5.71272
4.55932
3.6119
2.84073
2.21855
1.7208
1.32584
1.01492
0.772013
0.583636
100
100
100
99.9999
99.9995
99.9981
99.9942
99.9844
99.9624
99.9171
99.8311
99.6787
99.4246
99.024
98.423
97.5617
96.3773
94.8097
92.8067
90.3294
87.3565
83.8882
79.9469
75.5772
70.8434
65.8255
60.6147
55.3073
50
44.7842
39.7422
34.9442
30.446
26.2887
22.4981
19.0866
16.0542
13.3906
11.0774
9.0905
7.40161
5.98047
4.79618
3.81846
3.0185
2.36965
1.84775
1.43133
1.10167
0.842654
100
100
100
99.9999
99.9997
99.9989
99.9965
99.9904
99.9764
99.9467
99.8889
99.7838
99.6042
99.3141
98.8686
98.2151
97.2962
96.053
94.4299
92.3796
89.8681
86.8781
83.4125
79.4949
75.1691
70.4973
65.556
60.4317
55.2158
50
44.8711
39.9076
35.1768
30.7328
26.6154
22.851
19.4526
16.4216
13.7495
11.42
9.41081
7.69564
6.24591
5.03218
4.02534
3.1975
2.52262
1.97698
1.53932
1.19099
100
100
100
100
99.9998
99.9994
99.9979
99.9942
99.9853
99.966
99.9275
99.8556
99.7299
99.522
99.1953
98.7052
98.0007
97.0268
95.7283
94.054
91.961
89.4196
86.416
82.9555
79.0623
74.7798
70.1679
65.2998
60.2578
55.1289
50
44.9538
40.0653
35.399
31.0072
26.9291
23.1909
19.8062
16.7779
14.0989
11.7549
9.72526
7.98558
6.50888
5.26711
4.2323
3.37746
2.67722
2.10827
1.64963
100
100
100
100
99.9999
99.9996
99.9988
99.9965
99.9909
99.9785
99.953
99.9043
99.8171
99.6696
99.4324
99.0688
98.5348
97.7808
96.7546
95.4043
93.6826
91.5511
88.9836
85.9695
82.5159
78.6479
74.4079
69.8538
65.0558
60.0924
55.0462
50
45.0327
40.2159
35.6115
31.2703
27.2306
23.5184
20.1482
17.1235
14.4392
12.0822
10.0339
8.2714
6.76926
5.50078
4.43912
3.55817
2.83322
2.24143
100
100
100
100
99.9999
99.9998
99.9993
99.9979
99.9944
99.9864
99.9697
99.937
99.8771
99.7733
99.6029
99.3358
98.9353
98.358
97.5563
96.4803
95.0815
93.3163
91.1499
88.5597
85.5378
82.0928
78.2504
74.0521
69.554
64.8232
59.9347
54.9673
50
45.1079
40.3597
35.815
31.5228
27.5206
23.8344
20.479
17.4591
14.7707
12.4023
10.3368
8.55305
7.02691
5.73302
4.64559
3.73941
2.99042
100
100
100
100
100
99.9999
99.9996
99.9987
99.9966
99.9915
99.9806
99.9588
99.9179
99.8456
99.7242
99.53
99.2327
98.7954
98.1758
97.3281
96.2048
94.7605
92.9552
90.7575
88.1476
85.1202
81.6853
77.8687
73.7113
69.2672
64.601
59.7841
54.8921
50
45.1799
40.4975
36.0101
31.7654
27.7999
24.1394
20.7993
17.785
15.0936
12.7152
10.6341
8.83053
7.28177
5.96368
4.85155
3.92098
100
100
100
100
100
99.9999
99.9998
99.9992
99.9979
99.9947
99.9876
99.9732
99.9456
99.8956
99.8099
99.67
99.4513
99.1233
98.6496
97.9888
97.0968
95.9287
94.4419
92.5997
90.3737
87.747
84.7161
81.2924
77.5019
73.3846
68.9928
64.3885
59.6403
54.8201
50
45.2487
40.6294
36.1974
31.9986
28.069
24.4341
21.1096
18.1016
15.4084
13.0213
10.9259
9.10384
7.53376
6.19265
5.05682
100
100
100
100
100
100
99.9999
99.9996
99.9987
99.9967
99.9922
99.9827
99.9641
99.9299
99.8699
99.7699
99.6106
99.367
99.0083
98.4986
97.7977
96.8632
95.6526
94.1261
92.2499
89.9984
87.3573
84.3248
80.9134
77.149
73.0709
68.7297
64.185
59.5025
54.7513
50
45.3147
40.7561
36.3774
32.2232
28.3287
24.7191
21.4104
18.4094
15.7153
13.3206
11.2122
9.37299
7.78282
6.41982
100
100
100
100
100
100
99.9999
99.9997
99.9992
99.998
99.9951
99.9889
99.9765
99.9532
99.9115
99.8407
99.7257
99.5463
99.2773
98.8879
98.3428
97.603
96.6278
95.377
93.8134
91.9059
89.6316
86.9782
83.9458
80.5474
76.8091
72.7694
68.4772
63.9899
59.3706
54.6853
50
45.378
40.8777
36.5504
32.4396
28.5793
24.9948
21.7021
18.7087
16.0147
13.6134
11.4932
9.63802
8.02892
100
100
100
100
100
100
100
99.9998
99.9995
99.9988
99.9969
99.9929
99.9847
99.9689
99.9402
99.8905
99.8081
99.6772
99.4773
99.1826
98.7627
98.1828
97.4053
96.3911
95.1023
93.5041
91.5679
89.273
86.6094
83.5784
80.1938
76.4816
72.4794
68.2346
63.8026
59.2439
54.622
50
45.4388
40.9946
36.7171
32.6482
28.8215
25.2618
21.9853
19
16.3067
13.9
11.769
9.89896
100
100
100
100
100
100
100
99.9999
99.9997
99.9992
99.9981
99.9955
99.9901
99.9795
99.9599
99.9252
99.8666
99.7719
99.6246
99.4036
99.0831
98.633
98.0191
97.2051
96.1537
94.8289
93.1984
91.2357
88.9226
86.2505
83.2221
79.8518
76.1656
72.2001
68.0014
63.6226
59.1223
54.5612
50
45.4973
41.1072
36.8777
32.8496
29.0557
25.5205
22.2602
19.2835
16.5917
14.1804
12.0397
100
100
100
100
100
100
100
99.9999
99.9998
99.9995
99.9988
99.9971
99.9936
99.9866
99.9732
99.9492
99.9079
99.8399
99.7323
99.5679
99.3255
98.9793
98.4992
97.8522
97.0029
95.9159
94.5572
92.8964
90.9095
88.58
85.9011
82.8765
79.521
75.8606
71.931
67.7768
63.4496
59.0054
54.5027
50
45.5536
41.2157
37.0326
33.0442
29.2823
25.7713
22.5274
19.5595
16.87
14.4548
100
100
100
100
100
100
100
100
99.9999
99.9997
99.9993
99.9982
99.9959
99.9912
99.9822
99.9657
99.9368
99.8884
99.8103
99.6891
99.5073
99.2433
98.8713
98.3617
97.6823
96.7991
95.6781
94.2873
92.5984
90.5892
88.2451
85.5608
82.5409
79.2007
75.5659
71.6713
67.5604
63.2829
58.8928
54.4464
50
45.6078
41.3202
37.1822
33.2323
29.5018
26.0146
22.7871
19.8285
17.1417
100
100
100
100
100
100
100
100
99.9999
99.9998
99.9995
99.9989
99.9974
99.9943
99.9883
99.977
99.9569
99.9226
99.8665
99.7778
99.6426
99.4429
99.1571
98.7594
98.2209
97.51
96.5941
95.4407
94.0195
92.3044
90.2747
87.9178
85.2293
82.215
78.8904
75.2809
71.4207
67.3518
63.1223
58.7843
54.3922
50
45.6601
41.4212
37.3267
33.4142
29.7144
26.2507
23.0396
20.0906
100
100
100
100
100
100
100
100
100
99.9999
99.9997
99.9993
99.9983
99.9963
99.9923
99.9847
99.9708
99.9467
99.9066
99.8422
99.7424
99.5927
99.3749
99.0671
98.644
98.077
97.3355
96.3881
95.2038
93.7541
92.0144
89.9661
87.5977
84.9064
81.8984
78.5896
75.0052
71.1785
67.1504
62.9674
58.6798
54.3399
50
45.7106
41.5187
37.4665
33.5904
29.9206
26.4801
23.2854
100
100
100
100
100
100
100
100
100
99.9999
99.9998
99.9996
99.999
99.9976
99.995
99.9898
99.9803
99.9635
99.935
99.8886
99.8155
99.7041
99.5395
99.3033
98.9737
98.5253
97.9304
97.1593
96.1815
94.9678
93.4911
91.7286
89.6632
87.2848
84.5916
81.5906
78.2979
74.7382
70.9443
66.9558
62.8178
58.5788
54.2894
50
45.7593
41.6129
37.6017
33.7611
30.1206
26.703
100
100
100
100
100
100
100
100
100
100
99.9999
99.9997
99.9993
99.9985
99.9967
99.9933
99.9868
99.9751
99.9551
99.9219
99.8687
99.7864
99.6629
99.4831
99.2284
98.8769
98.4036
97.7815
96.9815
95.9747
94.7329
93.2307
91.447
89.3659
86.9787
84.2847
81.2913
78.0147
74.4795
70.7177
66.7677
62.6733
58.4813
54.2407
50
45.8064
41.7041
37.7326
33.9266
30.3148
100
100
100
100
100
100
100
100
100
100
99.9999
99.9998
99.9996
99.999
99.9979
99.9956
99.9912
99.9832
99.9691
99.9455
99.9071
99.8467
99.7548
99.619
99.4237
99.1503
98.777
98.2792
97.6304
96.8025
95.7677
94.4992
92.9731
91.1695
89.0741
86.6794
83.9853
81
77.7398
74.2287
70.4982
66.5858
62.5335
58.3871
54.1936
50
45.852
41.7923
37.8595
34.0871
100
100
100
100
100
100
100
100
100
100
100
99.9999
99.9997
99.9994
99.9986
99.9971
99.9941
99.9887
99.9789
99.9622
99.9346
99.8907
99.8228
99.7209
99.5723
99.3613
99.0691
98.6742
98.1523
97.4774
96.6225
95.5609
94.267
92.7182
90.8962
88.7878
86.3866
83.6933
80.7165
77.4726
73.9854
70.2856
66.4096
62.3983
58.2959
54.148
50
45.8962
41.8778
37.9825
100
100
100
100
100
100
100
100
100
100
100
99.9999
99.9998
99.9996
99.9991
99.9981
99.9961
99.9924
99.9856
99.9739
99.9543
99.9225
99.8726
99.7967
99.6845
99.5229
99.296
98.9851
98.5687
98.023
97.3228
96.4418
95.3544
94.0363
92.4662
90.627
88.5068
86.1
83.4083
80.4405
77.2129
73.7493
70.0794
66.2389
62.2674
58.2077
54.1038
50
45.9389
41.9607
100
100
100
100
100
100
100
100
100
100
100
100
99.9999
99.9998
99.9994
99.9988
99.9975
99.9949
99.9903
99.9821
99.9682
99.9453
99.909
99.8529
99.7687
99.6458
99.4709
99.228
98.8983
98.4607
97.8917
97.1668
96.2606
95.1485
93.8073
92.2172
90.362
88.231
85.8196
83.13
80.1715
76.9604
73.5199
69.8794
66.0734
62.1405
58.1222
54.0611
50
45.9803
100
100
100
100
100
100
100
100
100
100
100
100
99.9999
99.9998
99.9996
99.9992
99.9983
99.9966
99.9935
99.9878
99.978
99.9617
99.9353
99.8941
99.8314
99.7386
99.6047
99.4164
99.1573
98.809
98.3504
97.7586
97.0096
96.079
94.9432
93.5802
91.9711
90.101
87.9603
85.5452
82.8583
79.9094
76.7146
73.297
69.6852
65.9129
62.0175
58.0393
54.0197
50
)
;

boundaryField
{
    left
    {
        type            fixedValue;
        value           uniform 100;
    }
    right
    {
        type            zeroGradient;
    }
    up
    {
        type            zeroGradient;
    }
    down
    {
        type            fixedValue;
        value           uniform 0;
    }
    frontAndBack
    {
        type            empty;
    }
}


// ************************************************************************* //
