/*--------------------------------*- C++ -*----------------------------------*\
  =========                 |
  \\      /  F ield         | OpenFOAM: The Open Source CFD Toolbox
   \\    /   O peration     | Website:  https://openfoam.org
    \\  /    A nd           | Version:  8
     \\/     M anipulation  |
\*---------------------------------------------------------------------------*/
FoamFile
{
    version     2.0;
    format      ascii;
    class       volScalarField;
    location    "1";
    object      T;
}
// * * * * * * * * * * * * * * * * * * * * * * * * * * * * * * * * * * * * * //

dimensions      [0 0 0 1 0 0 0];

internalField   nonuniform List<scalar> 
50
(
98.7321
96.5672
94.4108
92.263
90.1236
87.9926
85.8701
83.7559
81.6501
79.5526
77.4633
75.3823
73.3095
71.2449
69.1884
67.1401
65.0998
63.0676
61.0433
59.0271
57.0188
55.0185
53.026
51.0414
49.0646
47.0955
45.1343
43.1807
41.2347
39.2964
37.3656
35.4423
33.5264
31.6178
29.7162
27.8217
25.9338
24.0522
22.1765
20.306
18.4398
16.5766
14.7146
12.8514
10.9835
9.10595
7.212
5.292
3.33246
1.31445
)
;

boundaryField
{
    left
    {
        type            fixedValue;
        value           uniform 100;
    }
    right
    {
        type            fixedValue;
        value           uniform 0;
    }
    up
    {
        type            fixedValue;
        value           uniform 100;
    }
    down
    {
        type            fixedValue;
        value           uniform 0;
    }
    frontAndBack
    {
        type            empty;
    }
}


// ************************************************************************* //
