0 	5.85735e-08
1.57135 	-9.26763e-07
3.1427 	-5.2725e-06
4.71405 	-1.55035e-05
6.28539 	-3.34735e-05
7.85674 	-6.32574e-05
9.42809 	-0.000134197
10.9994 	-0.000566334
12.5708 	-0.00257245
14.1421 	0.0148867
