0 	0 	0 	0
1.57135 	-0.000890202 	0.000825917 	0
3.1427 	-0.00198073 	0.00151169 	0
4.71405 	-0.00337259 	0.00181432 	0
6.28539 	-0.0051759 	0.00152111 	0
7.85674 	-0.0075277 	0.000424742 	0
9.42809 	-0.0109428 	-0.0013755 	0
10.9994 	-0.0178033 	-0.00225665 	0
12.5708 	-0.0118912 	-0.015332 	0
14.1421 	0.5 	0 	0
