/*--------------------------------*- C++ -*----------------------------------*\
  =========                 |
  \\      /  F ield         | OpenFOAM: The Open Source CFD Toolbox
   \\    /   O peration     | Website:  https://openfoam.org
    \\  /    A nd           | Version:  8
     \\/     M anipulation  |
\*---------------------------------------------------------------------------*/
FoamFile
{
    version     2.0;
    format      ascii;
    class       volScalarField;
    location    "26.5";
    object      p;
}
// * * * * * * * * * * * * * * * * * * * * * * * * * * * * * * * * * * * * * //

dimensions      [0 2 -2 0 0 0 0];

internalField   nonuniform List<scalar> 
116
(
-5.19216e-08
-0.000580978
-0.000683006
-0.00229714
0.000741058
-0.00791573
0.000296025
-1.52229e-05
0.000385186
-0.0021087
-0.00109376
-0.00343593
0.000395268
0.00011826
0.000183188
-0.00147167
-0.00437998
-0.00842471
0.000388823
0.000253989
-9.5878e-05
-0.00193675
-0.0063025
-0.0100961
7.7295e-05
-2.53552e-05
-0.000693367
-0.00240717
-0.00787081
-0.0115974
-0.000532587
-0.000495815
-0.00121607
-0.00228949
-0.00662761
-0.00951984
-0.000483017
-0.000776763
-0.00131434
-0.00193318
-0.00475883
-0.00753463
-0.00152113
-0.000997035
-0.000964927
-0.000843275
-0.00189329
-0.00302288
-9.15457e-05
-0.00174852
-0.00108178
-0.00130004
-0.000976864
-0.00241233
-0.00707139
8.99829e-05
0.000805858
0.00161466
0.00165513
0.000213555
0.000831403
0.008066
0.00695914
0.0119635
-0.00251567
0.00113133
0.0035131
0.00626172
-0.00851812
-0.00529842
-0.00252102
-0.000122151
-0.0109876
-0.00824232
-0.00697032
-0.00409846
-0.012636
-0.00943209
-0.0092503
-0.00573077
-0.0107356
-0.00736404
-0.00847514
-0.0049002
-0.0091168
-0.00626105
-0.00863876
-0.00183489
-0.003441
-0.00216667
-0.00308157
0.00596309
-0.00467494
-0.00386415
-0.0041496
0.0114398
-0.0011177
0.00434331
0.0146749
0.0498494
0.0139537
0.0140261
0.0139309
0.0163171
0.0130649
0.0136882
0.0122545
0.0140225
0.0101265
0.0110807
0.00918118
0.0098351
0.00725493
0.0132162
0.00752698
0.0116199
)
;

boundaryField
{
    movingWall
    {
        type            zeroGradient;
    }
    fixedWalls
    {
        type            zeroGradient;
    }
    frontAndBack
    {
        type            empty;
    }
}


// ************************************************************************* //
