/*--------------------------------*- C++ -*----------------------------------*\
  =========                 |
  \\      /  F ield         | OpenFOAM: The Open Source CFD Toolbox
   \\    /   O peration     | Website:  https://openfoam.org
    \\  /    A nd           | Version:  8
     \\/     M anipulation  |
\*---------------------------------------------------------------------------*/
FoamFile
{
    version     2.0;
    format      ascii;
    class       surfaceScalarField;
    location    "0.12";
    object      phi;
}
// * * * * * * * * * * * * * * * * * * * * * * * * * * * * * * * * * * * * * //

dimensions      [0 3 -1 0 0 0 0];

internalField   nonuniform List<scalar> 
760
(
4.8598e-07
-2.49977e-12
4.85974e-07
6.12192e-12
4.85962e-07
1.23532e-11
4.85948e-07
1.38902e-11
4.85934e-07
1.40658e-11
4.8592e-07
1.32616e-11
4.85909e-07
1.17631e-11
4.85899e-07
9.85877e-12
4.85891e-07
7.71941e-12
4.85886e-07
5.36655e-12
4.85883e-07
2.74595e-12
4.85883e-07
-1.87572e-13
4.85887e-07
-3.42417e-12
4.85893e-07
-6.88472e-12
4.85904e-07
-1.0418e-11
4.85918e-07
-1.377e-11
4.85934e-07
-1.65102e-11
4.85952e-07
-1.76188e-11
4.85967e-07
-1.52668e-11
-1.05664e-11
1.47345e-06
-3.08756e-12
1.47344e-06
1.63881e-11
1.47342e-06
2.93247e-11
1.4734e-06
3.49062e-11
1.47338e-06
3.61725e-11
1.47336e-06
3.46574e-11
1.47334e-06
3.1188e-11
1.47332e-06
2.63693e-11
1.47331e-06
2.0576e-11
1.4733e-06
1.39601e-11
1.47329e-06
6.54768e-12
1.4733e-06
-1.63282e-12
1.4733e-06
-1.04538e-11
1.47332e-06
-1.96371e-11
1.47333e-06
-2.8714e-11
1.47336e-06
-3.69256e-11
1.47338e-06
-4.30108e-11
1.47341e-06
-4.46263e-11
1.47343e-06
-3.83791e-11
-2.36233e-11
2.50754e-06
-5.36511e-12
2.50753e-06
2.32082e-11
2.50752e-06
4.21902e-11
2.5075e-06
5.17772e-11
2.50748e-06
5.48477e-11
2.50746e-06
5.34012e-11
2.50745e-06
4.8676e-11
2.50743e-06
4.15461e-11
2.50742e-06
3.25796e-11
2.50741e-06
2.20927e-11
2.50741e-06
1.02628e-11
2.50741e-06
-2.73513e-12
2.50741e-06
-1.66089e-11
2.50743e-06
-3.08569e-11
2.50744e-06
-4.46696e-11
2.50746e-06
-5.67756e-11
2.50748e-06
-6.51858e-11
2.50751e-06
-6.66578e-11
2.50752e-06
-5.70077e-11
-3.47197e-11
3.61905e-06
-8.66286e-12
3.61905e-06
2.46082e-11
3.61904e-06
4.81271e-11
3.61904e-06
6.12018e-11
3.61902e-06
6.64089e-11
3.61901e-06
6.58426e-11
3.619e-06
6.09202e-11
3.61899e-06
5.2672e-11
3.61898e-06
4.181e-11
3.61897e-06
2.87993e-11
3.61897e-06
1.39691e-11
3.61897e-06
-2.35776e-12
3.61897e-06
-1.97378e-11
3.61898e-06
-3.74829e-11
3.61899e-06
-5.45207e-11
3.619e-06
-6.92178e-11
3.61901e-06
-7.91377e-11
3.61903e-06
-8.06327e-11
3.61904e-06
-6.92531e-11
-4.33564e-11
4.83819e-06
-1.32524e-11
4.8382e-06
2.14296e-11
4.8382e-06
4.71542e-11
4.8382e-06
6.26176e-11
4.83819e-06
6.98361e-11
4.83819e-06
7.06988e-11
4.83818e-06
6.65773e-11
4.83818e-06
5.85238e-11
4.83817e-06
4.73106e-11
4.83817e-06
3.34894e-11
4.83816e-06
1.74909e-11
4.83816e-06
-2.5762e-13
4.83816e-06
-1.92092e-11
4.83816e-06
-3.85653e-11
4.83816e-06
-5.71256e-11
4.83817e-06
-7.31095e-11
4.83817e-06
-8.39423e-11
4.83818e-06
-8.59698e-11
4.83818e-06
-7.48434e-11
-4.88539e-11
6.19422e-06
-1.81852e-11
6.19422e-06
1.46598e-11
6.19423e-06
4.01664e-11
6.19424e-06
5.66063e-11
6.19424e-06
6.53316e-11
6.19424e-06
6.78443e-11
6.19424e-06
6.52977e-11
6.19424e-06
5.86318e-11
6.19424e-06
4.85759e-11
6.19424e-06
3.56862e-11
6.19424e-06
2.04247e-11
6.19423e-06
3.25544e-12
6.19423e-06
-1.52474e-11
6.19423e-06
-3.42768e-11
6.19422e-06
-5.26544e-11
6.19422e-06
-6.86643e-11
6.19421e-06
-7.98672e-11
6.19421e-06
-8.29103e-11
6.19421e-06
-7.38418e-11
-5.08333e-11
7.71494e-06
-2.24756e-11
7.71495e-06
5.60615e-12
7.71497e-06
2.8576e-11
7.71498e-06
4.44513e-11
7.71499e-06
5.39182e-11
7.715e-06
5.79936e-11
7.71501e-06
5.74945e-11
7.71501e-06
5.31372e-11
7.71502e-06
4.55107e-11
7.71502e-06
3.50914e-11
7.71501e-06
2.2296e-11
7.71501e-06
7.55113e-12
7.715e-06
-8.62421e-12
7.71499e-06
-2.5519e-11
7.71498e-06
-4.21169e-11
7.71497e-06
-5.6952e-11
7.71496e-06
-6.79443e-11
7.71495e-06
-7.22841e-11
7.71494e-06
-6.66431e-11
-4.90675e-11
9.42617e-06
-2.52918e-11
9.42618e-06
-4.36306e-12
9.42619e-06
1.40315e-11
9.42621e-06
2.78389e-11
9.42622e-06
3.71467e-11
9.42624e-06
4.24479e-11
9.42625e-06
4.41552e-11
9.42626e-06
4.26825e-11
9.42627e-06
3.84012e-11
9.42627e-06
3.16342e-11
9.42627e-06
2.2684e-11
9.42627e-06
1.18727e-11
9.42626e-06
-4.08063e-13
9.42625e-06
-1.36301e-11
9.42623e-06
-2.70503e-11
9.42622e-06
-3.95968e-11
9.4262e-06
-4.97237e-11
9.42618e-06
-5.53528e-11
9.42617e-06
-5.39557e-11
-4.35227e-11
1.13509e-05
-2.60262e-11
1.13509e-05
-1.39759e-11
1.13509e-05
-1.77529e-12
1.13509e-05
8.64798e-12
1.13509e-05
1.68819e-11
1.1351e-05
2.29022e-11
1.1351e-05
2.66923e-11
1.1351e-05
2.83194e-11
1.1351e-05
2.78849e-11
1.1351e-05
2.55049e-11
1.1351e-05
2.13168e-11
1.1351e-05
1.54891e-11
1.1351e-05
8.23614e-12
1.1351e-05
-1.55291e-13
1.1351e-05
-9.28748e-12
1.1351e-05
-1.85747e-11
1.13509e-05
-2.71246e-11
1.13509e-05
-3.37298e-11
1.13509e-05
-3.68059e-11
-3.44207e-11
1.35085e-05
-2.43586e-11
1.35085e-05
-2.21632e-11
1.35085e-05
-1.72435e-11
1.35085e-05
-1.12061e-11
1.35085e-05
-4.859e-12
1.35085e-05
1.29617e-12
1.35086e-05
6.82218e-12
1.35086e-05
1.1427e-11
1.35086e-05
1.49176e-11
1.35086e-05
1.7175e-11
1.35086e-05
1.81442e-11
1.35086e-05
1.78157e-11
1.35086e-05
1.62042e-11
1.35086e-05
1.33329e-11
1.35086e-05
9.22747e-12
1.35085e-05
3.95024e-12
1.35085e-05
-2.31628e-12
1.35085e-05
-9.32215e-12
1.35085e-05
-1.65423e-11
-2.23016e-11
1.59137e-05
-2.03153e-11
1.59137e-05
-2.81476e-11
1.59137e-05
-3.09704e-11
1.59137e-05
-2.98992e-11
1.59137e-05
-2.604e-11
1.59138e-05
-2.03144e-11
1.59138e-05
-1.35449e-11
1.59138e-05
-6.36784e-12
1.59138e-05
7.32541e-13
1.59138e-05
7.40034e-12
1.59138e-05
1.33863e-11
1.59138e-05
1.85052e-11
1.59138e-05
2.25805e-11
1.59138e-05
2.53866e-11
1.59138e-05
2.65978e-11
1.59138e-05
2.57746e-11
1.59137e-05
2.23939e-11
1.59137e-05
1.5731e-11
1.59137e-05
5.1757e-12
-8.06472e-12
1.85758e-05
-1.43076e-11
1.85758e-05
-3.15109e-11
1.85758e-05
-4.18408e-11
1.85758e-05
-4.58065e-11
1.85758e-05
-4.47266e-11
1.85758e-05
-3.98783e-11
1.85759e-05
-3.24161e-11
1.85759e-05
-2.32819e-11
1.85759e-05
-1.32219e-11
1.85759e-05
-2.80535e-12
1.85759e-05
7.54788e-12
1.85759e-05
1.75043e-11
1.85759e-05
2.67326e-11
1.85759e-05
3.48079e-11
1.85759e-05
4.11177e-11
1.85759e-05
4.47954e-11
1.85758e-05
4.46874e-11
1.85758e-05
3.91495e-11
1.85758e-05
2.64249e-11
7.02861e-12
2.14976e-05
-7.13071e-12
2.14976e-05
-3.22226e-11
2.14976e-05
-4.90878e-11
2.14976e-05
-5.75895e-11
2.14977e-05
-5.91931e-11
2.14977e-05
-5.54706e-11
2.14977e-05
-4.78418e-11
2.14977e-05
-3.74931e-11
2.14977e-05
-2.538e-11
2.14977e-05
-1.22376e-11
2.14977e-05
1.38817e-12
2.14977e-05
1.50647e-11
2.14977e-05
2.8365e-11
2.14977e-05
4.07421e-11
2.14977e-05
5.1396e-11
2.14977e-05
5.91567e-11
2.14977e-05
6.23792e-11
2.14977e-05
5.86403e-11
2.14976e-05
4.51081e-11
2.14072e-11
2.46748e-05
1.01238e-13
2.46748e-05
-3.06105e-11
2.46748e-05
-5.23088e-11
2.46748e-05
-6.42501e-11
2.46749e-05
-6.8017e-11
2.46749e-05
-6.54202e-11
2.46749e-05
-5.80628e-11
2.46749e-05
-4.72935e-11
2.46749e-05
-3.42019e-11
2.46749e-05
-1.96226e-11
2.46749e-05
-4.16622e-12
2.46749e-05
1.16988e-11
2.46749e-05
2.75241e-11
2.46749e-05
4.2733e-11
2.46749e-05
5.64599e-11
2.46749e-05
6.73899e-11
2.46749e-05
7.35818e-11
2.46749e-05
7.20633e-11
2.46749e-05
5.90952e-11
3.33069e-11
2.80954e-05
6.10775e-12
2.80954e-05
-2.72631e-11
2.80954e-05
-5.14186e-11
2.80954e-05
-6.51497e-11
2.80954e-05
-7.01632e-11
2.80954e-05
-6.84491e-11
2.80954e-05
-6.1689e-11
2.80954e-05
-5.12872e-11
2.80954e-05
-3.8372e-11
2.80954e-05
-2.37977e-11
2.80954e-05
-8.16973e-12
2.80954e-05
8.0769e-12
2.80954e-05
2.45492e-11
2.80954e-05
4.07362e-11
2.80954e-05
5.58324e-11
2.80954e-05
6.85504e-11
2.80954e-05
7.68888e-11
2.80954e-05
7.76359e-11
2.80954e-05
6.64285e-11
4.09537e-11
3.17392e-05
9.69667e-12
3.17392e-05
-2.28469e-11
3.17392e-05
-4.65399e-11
3.17392e-05
-6.00022e-11
3.17392e-05
-6.50772e-11
3.17392e-05
-6.38459e-11
3.17392e-05
-5.79279e-11
3.17392e-05
-4.86478e-11
3.17392e-05
-3.7061e-11
3.17392e-05
-2.39573e-11
3.17392e-05
-9.86965e-12
3.17392e-05
4.86359e-12
3.17392e-05
1.99731e-11
3.17392e-05
3.50946e-11
3.17392e-05
4.95894e-11
3.17392e-05
6.23567e-11
3.17392e-05
7.15842e-11
3.17392e-05
7.41882e-11
3.17392e-05
6.56117e-11
4.28179e-11
3.55786e-05
1.00893e-11
3.55786e-05
-1.78181e-11
3.55786e-05
-3.78554e-11
3.55785e-05
-4.88859e-11
3.55785e-05
-5.2841e-11
3.55785e-05
-5.17181e-11
3.55785e-05
-4.68918e-11
3.55785e-05
-3.9449e-11
3.55785e-05
-3.02561e-11
3.55785e-05
-1.99608e-11
3.55785e-05
-8.97091e-12
3.55785e-05
2.51591e-12
3.55785e-05
1.43983e-11
3.55785e-05
2.6505e-11
3.55785e-05
3.84245e-11
3.55785e-05
4.93544e-11
3.55785e-05
5.78975e-11
3.55786e-05
6.14887e-11
3.55786e-05
5.59867e-11
3.79868e-11
3.95785e-05
7.43597e-12
3.95785e-05
-1.20539e-11
3.95785e-05
-2.54931e-11
3.95785e-05
-3.2363e-11
3.95785e-05
-3.44501e-11
3.95784e-05
-3.33496e-11
3.95784e-05
-2.99853e-11
3.95784e-05
-2.5061e-11
3.95784e-05
-1.91497e-11
3.95784e-05
-1.2687e-11
3.95784e-05
-5.92099e-12
3.95784e-05
1.09534e-12
3.95784e-05
8.41349e-12
3.95784e-05
1.60357e-11
3.95784e-05
2.37672e-11
3.95784e-05
3.11429e-11
3.95785e-05
3.73373e-11
3.95785e-05
4.06474e-11
3.95785e-05
3.81114e-11
2.65269e-11
4.3698e-05
2.87374e-12
4.3698e-05
-5.35327e-12
4.36979e-05
-1.04445e-11
4.36979e-05
-1.27601e-11
4.36979e-05
-1.3179e-11
4.36979e-05
-1.24898e-11
4.36979e-05
-1.10376e-11
4.36978e-05
-9.08347e-12
4.36978e-05
-6.84841e-12
4.36978e-05
-4.50692e-12
4.36978e-05
-2.14302e-12
4.36978e-05
2.74524e-13
4.36978e-05
2.8414e-12
4.36978e-05
5.62312e-12
4.36978e-05
8.54768e-12
4.36979e-05
1.14271e-11
4.36979e-05
1.40277e-11
4.36979e-05
1.57497e-11
4.36979e-05
1.54473e-11
1.1034e-11
4.7891e-05
4.7891e-05
4.7891e-05
4.7891e-05
4.7891e-05
4.7891e-05
4.7891e-05
4.7891e-05
4.7891e-05
4.7891e-05
4.7891e-05
4.7891e-05
4.7891e-05
4.7891e-05
4.7891e-05
4.7891e-05
4.7891e-05
4.7891e-05
4.7891e-05
)
;

boundaryField
{
    movingWall
    {
        type            calculated;
        value           uniform 0;
    }
    fixedWalls
    {
        type            calculated;
        value           uniform 0;
    }
    left
    {
        type            cyclic;
        value           nonuniform List<scalar> 
20
(
-3.17392e-05
-2.80954e-05
-2.46748e-05
-2.14976e-05
-1.85758e-05
-1.59137e-05
-1.35085e-05
-1.13509e-05
-9.42616e-06
-7.71494e-06
-6.19421e-06
-4.83819e-06
-3.61905e-06
-2.50754e-06
-1.47345e-06
-4.85978e-07
-3.55786e-05
-3.95785e-05
-4.3698e-05
-4.7891e-05
)
;
    }
    right
    {
        type            cyclic;
        value           nonuniform List<scalar> 
20
(
3.17392e-05
2.80954e-05
2.46748e-05
2.14976e-05
1.85758e-05
1.59137e-05
1.35085e-05
1.13509e-05
9.42616e-06
7.71494e-06
6.19421e-06
4.83819e-06
3.61905e-06
2.50754e-06
1.47345e-06
4.85978e-07
3.55786e-05
3.95785e-05
4.3698e-05
4.7891e-05
)
;
    }
    frontAndBack
    {
        type            empty;
        value           nonuniform List<scalar> 0();
    }
}


// ************************************************************************* //
