/*--------------------------------*- C++ -*----------------------------------*\
  =========                 |
  \\      /  F ield         | OpenFOAM: The Open Source CFD Toolbox
   \\    /   O peration     | Website:  https://openfoam.org
    \\  /    A nd           | Version:  8
     \\/     M anipulation  |
\*---------------------------------------------------------------------------*/
FoamFile
{
    version     2.0;
    format      ascii;
    class       volScalarField;
    location    "0.62";
    object      T;
}
// * * * * * * * * * * * * * * * * * * * * * * * * * * * * * * * * * * * * * //

dimensions      [0 0 0 1 0 0 0];

internalField   nonuniform List<scalar> 
100
(
49.9891
4.85334
-4.74285
-1.62902
1.19417
1.0466
-0.0189948
-0.687902
-0.52481
-0.0289623
95.1505
49.984
11.2261
-4.50171
-4.04752
0.415634
2.06488
1.50526
-0.413094
-1.05821
104.826
88.7813
49.8327
13.684
-3.87691
-5.18761
-1.0999
2.00459
2.28567
0.636466
101.633
104.56
86.2574
49.9446
15.6314
-3.25912
-6.3611
-3.25659
1.88647
2.90919
98.6955
104.094
104.279
84.3403
49.7089
16.9014
-1.28533
-6.81068
-4.1976
-0.114949
98.7807
99.4881
105.936
103.531
82.3426
49.0582
18.8644
0.978694
-6.395
-4.06528
100.158
97.8601
100.604
106.429
102.026
82.0403
49.5087
22.0085
-0.563924
-7.48968
100.826
98.4073
97.5101
103.345
107.568
99.8518
77.0195
49.4942
25.2138
6.53629
100.975
100.553
95.8424
97.6139
106.262
110.859
98.0248
72.405
44.5662
14.7284
99.888
101.218
99.8097
96.8621
99.2869
103.486
108.627
94.6244
87.2645
49.2365
)
;

boundaryField
{
    left
    {
        type            fixedValue;
        value           uniform 100;
    }
    right
    {
        type            zeroGradient;
    }
    up
    {
        type            zeroGradient;
    }
    down
    {
        type            fixedValue;
        value           uniform 0;
    }
    frontAndBack
    {
        type            empty;
    }
}


// ************************************************************************* //
