0 	-4.07847e-10
1.57135 	8.90294e-07
3.1427 	1.04349e-05
4.71405 	4.79451e-05
6.28539 	0.000141692
7.85674 	0.000325732
9.42809 	0.000634821
10.9994 	0.00112103
12.5708 	0.001962
14.1421 	0.00455292
