/*--------------------------------*- C++ -*----------------------------------*\
  =========                 |
  \\      /  F ield         | OpenFOAM: The Open Source CFD Toolbox
   \\    /   O peration     | Website:  https://openfoam.org
    \\  /    A nd           | Version:  8
     \\/     M anipulation  |
\*---------------------------------------------------------------------------*/
FoamFile
{
    version     2.0;
    format      ascii;
    class       volScalarField;
    location    "0.886";
    object      T;
}
// * * * * * * * * * * * * * * * * * * * * * * * * * * * * * * * * * * * * * //

dimensions      [0 0 0 1 0 0 0];

internalField   nonuniform List<scalar> 
100
(
49.9629
4.86376
-4.9544
-1.25276
1.31955
0.867279
-0.329
-1.28978
0.218675
0.544849
95.2944
49.8281
11.2805
-4.90503
-3.6032
0.695841
2.0543
1.36848
-1.66169
-1.06455
104.655
89.3589
49.3727
13.3499
-3.96234
-4.6263
-0.0332784
1.1939
1.75076
0.294277
101.62
104.155
88.2196
48.9123
13.6611
-3.65574
-5.56505
2.35
0.879598
-0.47881
98.4971
103.962
103.19
87.4856
49.6798
15.2762
-4.04466
-9.38199
2.87093
3.14484
99.3366
98.8738
105.484
102.554
85.2764
49.7047
18.2181
-2.31389
-10.9558
-1.63085
100.06
98.4679
98.8388
107.388
103.04
82.6426
49.1701
17.811
1.11179
-5.53052
101.062
99.1691
97.8643
98.543
109.06
102.919
81.7203
49.4449
13.439
3.5553
100.139
100.952
99.8197
96.813
98.3759
109.836
100.928
87.2946
48.733
4.24054
99.619
100.701
100.406
99.6631
97.2241
101.16
106.115
97.0657
94.9683
49.7907
)
;

boundaryField
{
    left
    {
        type            fixedValue;
        value           uniform 100;
    }
    right
    {
        type            zeroGradient;
    }
    up
    {
        type            zeroGradient;
    }
    down
    {
        type            fixedValue;
        value           uniform 0;
    }
    frontAndBack
    {
        type            empty;
    }
}


// ************************************************************************* //
