/*--------------------------------*- C++ -*----------------------------------*\
  =========                 |
  \\      /  F ield         | OpenFOAM: The Open Source CFD Toolbox
   \\    /   O peration     | Website:  https://openfoam.org
    \\  /    A nd           | Version:  8
     \\/     M anipulation  |
\*---------------------------------------------------------------------------*/
FoamFile
{
    version     2.0;
    format      ascii;
    class       volVectorField;
    location    "49.5";
    object      U;
}
// * * * * * * * * * * * * * * * * * * * * * * * * * * * * * * * * * * * * * //

dimensions      [0 1 -1 0 0 0 0];

internalField   nonuniform List<vector> 
11600
(
(-7.91518e-07 5.76229e-07 0)
(-4.18369e-05 1.49751e-05 0)
(-0.000120581 2.11599e-05 0)
(-0.000203395 2.32261e-05 0)
(-0.000292299 2.34628e-05 0)
(-0.000381452 2.32372e-05 0)
(-0.000470575 2.30486e-05 0)
(-0.000559662 2.29631e-05 0)
(-0.000648771 2.29516e-05 0)
(-0.000737981 2.29829e-05 0)
(-0.000827346 2.30377e-05 0)
(-0.000916901 2.31064e-05 0)
(-0.00100667 2.31843e-05 0)
(-0.00109668 2.3269e-05 0)
(-0.00118694 2.33592e-05 0)
(-0.00127746 2.34539e-05 0)
(-0.00136826 2.35521e-05 0)
(-0.00145933 2.36531e-05 0)
(-0.00155069 2.37559e-05 0)
(-0.00164233 2.38596e-05 0)
(-0.00173426 2.39633e-05 0)
(-0.00182647 2.40659e-05 0)
(-0.00191895 2.41664e-05 0)
(-0.00201169 2.42635e-05 0)
(-0.00210467 2.4356e-05 0)
(-0.00219788 2.44426e-05 0)
(-0.0022913 2.45219e-05 0)
(-0.00238489 2.45924e-05 0)
(-0.00247862 2.46525e-05 0)
(-0.00257246 2.47006e-05 0)
(-0.00266637 2.47349e-05 0)
(-0.0027603 2.47536e-05 0)
(-0.00285419 2.47546e-05 0)
(-0.002948 2.4736e-05 0)
(-0.00304166 2.46955e-05 0)
(-0.00313511 2.46307e-05 0)
(-0.00322827 2.45393e-05 0)
(-0.00332108 2.44183e-05 0)
(-0.00341344 2.42648e-05 0)
(-0.00350529 2.40752e-05 0)
(-0.00359652 2.38455e-05 0)
(-0.00368706 2.35704e-05 0)
(-0.00377681 2.32434e-05 0)
(-0.00386567 2.28555e-05 0)
(-0.00395353 2.23935e-05 0)
(-0.0040403 2.18366e-05 0)
(-0.00412584 2.11505e-05 0)
(-0.00420997 2.02742e-05 0)
(-0.00429247 1.90927e-05 0)
(-0.00437291 1.73791e-05 0)
(-0.00445056 1.46761e-05 0)
(-0.00452404 1.00869e-05 0)
(-0.0045907 1.96538e-06 0)
(-0.00464587 -1.26165e-05 0)
(-0.00468804 -3.81884e-05 0)
(-0.00472421 -7.16803e-05 0)
(-0.00467506 -7.72493e-05 0)
(-0.00502619 -2.59272e-05 0)
(-0.00495163 0.000785435 0)
(-0.00803536 0.00279443 0)
(-1.59029e-05 4.2048e-05 0)
(-0.000111701 0.000109501 0)
(-0.000270438 0.000140507 0)
(-0.000438081 0.000153111 0)
(-0.000617257 0.000157086 0)
(-0.000798527 0.000157994 0)
(-0.000980579 0.000158138 0)
(-0.00116302 0.000158213 0)
(-0.00134569 0.000158368 0)
(-0.0015286 0.000158606 0)
(-0.00171177 0.000158907 0)
(-0.00189524 0.000159255 0)
(-0.00207905 0.000159638 0)
(-0.00226321 0.000160048 0)
(-0.00244774 0.000160482 0)
(-0.00263265 0.000160933 0)
(-0.00281796 0.000161397 0)
(-0.00300367 0.000161871 0)
(-0.00318979 0.000162348 0)
(-0.0033763 0.000162824 0)
(-0.00356319 0.000163295 0)
(-0.00375046 0.000163753 0)
(-0.00393808 0.000164195 0)
(-0.00412603 0.000164612 0)
(-0.00431427 0.000165 0)
(-0.00450276 0.000165351 0)
(-0.00469145 0.000165658 0)
(-0.0048803 0.000165913 0)
(-0.00506923 0.00016611 0)
(-0.00525819 0.000166239 0)
(-0.00544709 0.000166294 0)
(-0.00563586 0.000166266 0)
(-0.00582439 0.000166147 0)
(-0.00601261 0.000165929 0)
(-0.00620039 0.000165604 0)
(-0.00638764 0.000165165 0)
(-0.00657424 0.000164605 0)
(-0.00676008 0.000163917 0)
(-0.00694505 0.000163098 0)
(-0.00712902 0.000162142 0)
(-0.00731191 0.000161048 0)
(-0.0074936 0.000159814 0)
(-0.00767404 0.000158441 0)
(-0.00785316 0.00015693 0)
(-0.00803096 0.00015528 0)
(-0.00820746 0.000153489 0)
(-0.00838275 0.000151539 0)
(-0.00855701 0.000149384 0)
(-0.00873054 0.000146915 0)
(-0.00890382 0.000143891 0)
(-0.0090776 0.000139833 0)
(-0.00925319 0.000133929 0)
(-0.00943326 0.000125155 0)
(-0.00962428 0.000113174 0)
(-0.00984078 0.000102332 0)
(-0.010106 0.000119714 0)
(-0.0104621 0.000245275 0)
(-0.0111635 0.000573204 0)
(-0.0117896 0.00181495 0)
(-0.0135181 0.00351972 0)
(-2.30598e-05 0.000123528 0)
(-0.000146399 0.000269642 0)
(-0.000345454 0.000337788 0)
(-0.000554544 0.00036655 0)
(-0.000777113 0.000376933 0)
(-0.00100231 0.00038021 0)
(-0.00122853 0.000381221 0)
(-0.00145526 0.000381692 0)
(-0.00168227 0.000382132 0)
(-0.00190952 0.000382654 0)
(-0.00213703 0.000383265 0)
(-0.00236482 0.00038395 0)
(-0.0025929 0.000384695 0)
(-0.00282129 0.000385488 0)
(-0.00305001 0.000386317 0)
(-0.00327905 0.000387175 0)
(-0.00350842 0.00038805 0)
(-0.00373811 0.000388934 0)
(-0.00396812 0.000389815 0)
(-0.00419844 0.000390683 0)
(-0.00442903 0.000391527 0)
(-0.00465989 0.000392335 0)
(-0.00489096 0.000393093 0)
(-0.00512223 0.000393789 0)
(-0.00535363 0.000394409 0)
(-0.00558511 0.000394937 0)
(-0.00581662 0.00039536 0)
(-0.00604808 0.000395661 0)
(-0.00627942 0.000395824 0)
(-0.00651055 0.000395833 0)
(-0.00674137 0.000395673 0)
(-0.00697179 0.000395326 0)
(-0.0072017 0.000394779 0)
(-0.00743098 0.000394016 0)
(-0.00765952 0.000393024 0)
(-0.00788719 0.000391793 0)
(-0.00811387 0.000390313 0)
(-0.00833943 0.000388582 0)
(-0.00856377 0.000386598 0)
(-0.00878676 0.000384368 0)
(-0.00900833 0.000381905 0)
(-0.00922839 0.000379235 0)
(-0.00944692 0.000376392 0)
(-0.00966393 0.000373428 0)
(-0.00987952 0.000370413 0)
(-0.0100938 0.000367436 0)
(-0.0103072 0.000364615 0)
(-0.0105202 0.000362094 0)
(-0.0107334 0.000360054 0)
(-0.0109482 0.00035874 0)
(-0.0111663 0.000358574 0)
(-0.0113908 0.00036053 0)
(-0.0116267 0.000367236 0)
(-0.0118838 0.000385989 0)
(-0.0121777 0.000436231 0)
(-0.0125294 0.00056371 0)
(-0.0129738 0.000855531 0)
(-0.0135758 0.00145624 0)
(-0.0140279 0.00271282 0)
(-0.0147473 0.00434587 0)
(-2.5867e-05 0.000211364 0)
(-0.000161936 0.00044187 0)
(-0.00037983 0.000548549 0)
(-0.000607396 0.000593237 0)
(-0.000849062 0.000609716 0)
(-0.00109335 0.000615194 0)
(-0.00133871 0.000617013 0)
(-0.00158461 0.000617851 0)
(-0.00183081 0.000618542 0)
(-0.00207726 0.000619296 0)
(-0.00232393 0.000620144 0)
(-0.00257085 0.000621077 0)
(-0.00281801 0.00062208 0)
(-0.00306542 0.000623138 0)
(-0.00331309 0.000624237 0)
(-0.00356102 0.000625362 0)
(-0.00380919 0.000626499 0)
(-0.0040576 0.000627634 0)
(-0.00430623 0.00062875 0)
(-0.00455506 0.000629831 0)
(-0.00480407 0.00063086 0)
(-0.00505322 0.000631818 0)
(-0.00530246 0.000632687 0)
(-0.00555176 0.000633444 0)
(-0.00580106 0.000634071 0)
(-0.00605029 0.000634543 0)
(-0.00629939 0.000634839 0)
(-0.00654828 0.000634935 0)
(-0.00679687 0.000634806 0)
(-0.00704507 0.000634431 0)
(-0.00729277 0.000633784 0)
(-0.00753986 0.000632843 0)
(-0.00778624 0.000631586 0)
(-0.00803177 0.000629994 0)
(-0.00827634 0.000628051 0)
(-0.0085198 0.000625743 0)
(-0.00876203 0.000623063 0)
(-0.00900291 0.000620013 0)
(-0.00924231 0.0006166 0)
(-0.00948012 0.000612848 0)
(-0.00971626 0.000608794 0)
(-0.00995067 0.000604498 0)
(-0.0101833 0.000600045 0)
(-0.0104143 0.000595556 0)
(-0.0106437 0.000591198 0)
(-0.0108718 0.000587197 0)
(-0.011099 0.000583863 0)
(-0.011326 0.000581619 0)
(-0.0115538 0.00058106 0)
(-0.0117839 0.00058307 0)
(-0.0120189 0.000589076 0)
(-0.0122624 0.000601638 0)
(-0.0125202 0.000625781 0)
(-0.0128004 0.000671964 0)
(-0.0131132 0.000761861 0)
(-0.0134674 0.000936133 0)
(-0.0138653 0.00126021 0)
(-0.0142708 0.00183245 0)
(-0.0145008 0.00279243 0)
(-0.0145704 0.00390872 0)
(-2.65019e-05 0.000306626 0)
(-0.000167592 0.000627472 0)
(-0.000393514 0.000774657 0)
(-0.000628696 0.000835842 0)
(-0.000878194 0.000858608 0)
(-0.00113017 0.00086638 0)
(-0.00138314 0.000869068 0)
(-0.00163665 0.000870314 0)
(-0.00189044 0.000871276 0)
(-0.00214447 0.000872263 0)
(-0.00239872 0.000873337 0)
(-0.00265318 0.000874499 0)
(-0.00290787 0.000875734 0)
(-0.00316278 0.000877025 0)
(-0.00341791 0.000878355 0)
(-0.00367326 0.000879705 0)
(-0.00392881 0.000881057 0)
(-0.00418456 0.000882391 0)
(-0.00444048 0.000883685 0)
(-0.00469655 0.000884919 0)
(-0.00495274 0.000886067 0)
(-0.00520901 0.000887105 0)
(-0.00546532 0.000888007 0)
(-0.00572162 0.000888744 0)
(-0.00597785 0.000889289 0)
(-0.00623394 0.000889612 0)
(-0.00648983 0.000889681 0)
(-0.00674542 0.000889464 0)
(-0.00700062 0.000888931 0)
(-0.00725535 0.000888049 0)
(-0.00750949 0.000886787 0)
(-0.00776293 0.000885115 0)
(-0.00801554 0.000883005 0)
(-0.00826721 0.000880431 0)
(-0.00851778 0.000877375 0)
(-0.00876714 0.000873821 0)
(-0.00901514 0.000869764 0)
(-0.00926165 0.000865209 0)
(-0.00950653 0.000860176 0)
(-0.00974966 0.000854704 0)
(-0.00999096 0.000848858 0)
(-0.0102303 0.000842732 0)
(-0.0104678 0.000836468 0)
(-0.0107033 0.000830262 0)
(-0.010937 0.000824387 0)
(-0.011169 0.00081922 0)
(-0.0113998 0.000815288 0)
(-0.01163 0.000813326 0)
(-0.0118603 0.000814393 0)
(-0.0120922 0.000820059 0)
(-0.0123275 0.000832759 0)
(-0.0125687 0.00085645 0)
(-0.0128195 0.000897852 0)
(-0.0130836 0.000968637 0)
(-0.0133636 0.00108868 0)
(-0.0136569 0.00128917 0)
(-0.0139473 0.0016134 0)
(-0.0141804 0.00211319 0)
(-0.0142464 0.00281559 0)
(-0.0140873 0.00359295 0)
(-2.64198e-05 0.000402794 0)
(-0.000169155 0.00081617 0)
(-0.000398126 0.00100447 0)
(-0.000636146 0.00108216 0)
(-0.000888589 0.00111107 0)
(-0.00114337 0.00112101 0)
(-0.0013991 0.0011245 0)
(-0.00165532 0.00112612 0)
(-0.00191182 0.00112733 0)
(-0.00216855 0.00112854 0)
(-0.00242549 0.00112983 0)
(-0.00268266 0.00113121 0)
(-0.00294004 0.00113266 0)
(-0.00319764 0.00113417 0)
(-0.00345546 0.00113571 0)
(-0.00371349 0.00113726 0)
(-0.00397172 0.00113881 0)
(-0.00423014 0.00114031 0)
(-0.00448872 0.00114176 0)
(-0.00474744 0.00114311 0)
(-0.00500628 0.00114435 0)
(-0.00526519 0.00114544 0)
(-0.00552412 0.00114634 0)
(-0.00578304 0.00114702 0)
(-0.00604187 0.00114745 0)
(-0.00630056 0.00114758 0)
(-0.00655902 0.00114738 0)
(-0.00681718 0.00114681 0)
(-0.00707494 0.00114583 0)
(-0.00733221 0.00114439 0)
(-0.00758886 0.00114246 0)
(-0.00784479 0.00114 0)
(-0.00809987 0.00113698 0)
(-0.00835397 0.00113336 0)
(-0.00860694 0.00112912 0)
(-0.00885864 0.00112423 0)
(-0.00910893 0.00111871 0)
(-0.00935765 0.00111255 0)
(-0.00960465 0.00110577 0)
(-0.0098498 0.00109844 0)
(-0.010093 0.00109063 0)
(-0.0103341 0.00108248 0)
(-0.010573 0.00107416 0)
(-0.0108096 0.00106593 0)
(-0.0110441 0.00105815 0)
(-0.0112765 0.0010513 0)
(-0.011507 0.00104607 0)
(-0.0117359 0.0010434 0)
(-0.0119638 0.00104461 0)
(-0.0121913 0.00105162 0)
(-0.0124194 0.00106723 0)
(-0.0126492 0.00109565 0)
(-0.0128818 0.00114331 0)
(-0.0131171 0.00122016 0)
(-0.0133522 0.001341 0)
(-0.0135778 0.00152613 0)
(-0.0137715 0.00179992 0)
(-0.0138869 0.0021838 0)
(-0.0138579 0.00266907 0)
(-0.0136277 0.00318425 0)
(-2.62286e-05 0.000499072 0)
(-0.000169319 0.00100589 0)
(-0.00039922 0.00123558 0)
(-0.000638126 0.00132982 0)
(-0.000891536 0.00136481 0)
(-0.00114721 0.00137686 0)
(-0.00140379 0.0013811 0)
(-0.00166085 0.00138307 0)
(-0.00191818 0.00138454 0)
(-0.00217574 0.00138597 0)
(-0.00243352 0.00138748 0)
(-0.00269153 0.00138908 0)
(-0.00294977 0.00139075 0)
(-0.00320824 0.00139248 0)
(-0.00346694 0.00139424 0)
(-0.00372586 0.001396 0)
(-0.00398501 0.00139774 0)
(-0.00424435 0.00139943 0)
(-0.00450388 0.00140104 0)
(-0.00476356 0.00140252 0)
(-0.00502338 0.00140386 0)
(-0.00528329 0.001405 0)
(-0.00554325 0.00140591 0)
(-0.00580322 0.00140655 0)
(-0.00606312 0.00140687 0)
(-0.0063229 0.00140683 0)
(-0.00658249 0.00140637 0)
(-0.00684179 0.00140545 0)
(-0.00710072 0.00140403 0)
(-0.00735918 0.00140204 0)
(-0.00761705 0.00139945 0)
(-0.00787421 0.00139621 0)
(-0.00813054 0.00139227 0)
(-0.00838589 0.00138759 0)
(-0.00864012 0.00138215 0)
(-0.00889307 0.00137591 0)
(-0.00914458 0.00136887 0)
(-0.00939449 0.00136104 0)
(-0.00964262 0.00135244 0)
(-0.0098888 0.00134314 0)
(-0.0101329 0.00133321 0)
(-0.0103747 0.00132282 0)
(-0.010614 0.00131217 0)
(-0.0108509 0.00130154 0)
(-0.011085 0.00129135 0)
(-0.0113165 0.00128214 0)
(-0.0115452 0.00127468 0)
(-0.0117711 0.00126999 0)
(-0.0119944 0.00126952 0)
(-0.0122151 0.00127522 0)
(-0.0124331 0.00128989 0)
(-0.0126482 0.00131741 0)
(-0.0128593 0.00136328 0)
(-0.0130639 0.00143513 0)
(-0.0132561 0.001543 0)
(-0.0134247 0.00169882 0)
(-0.013549 0.00191402 0)
(-0.0135955 0.00219299 0)
(-0.0135241 0.00251879 0)
(-0.013298 0.00284696 0)
(-2.60675e-05 0.000595197 0)
(-0.000169067 0.00119585 0)
(-0.000399077 0.00146706 0)
(-0.000638133 0.00157792 0)
(-0.000891755 0.001619 0)
(-0.00114762 0.00163312 0)
(-0.00140437 0.0016381 0)
(-0.0016616 0.00164042 0)
(-0.00191909 0.00164213 0)
(-0.00217682 0.00164379 0)
(-0.00243479 0.00164554 0)
(-0.002693 0.00164737 0)
(-0.00295146 0.00164929 0)
(-0.00321016 0.00165125 0)
(-0.00346913 0.00165325 0)
(-0.00372834 0.00165524 0)
(-0.00398779 0.0016572 0)
(-0.00424748 0.0016591 0)
(-0.00450738 0.00166089 0)
(-0.00476747 0.00166254 0)
(-0.00502773 0.001664 0)
(-0.00528811 0.00166523 0)
(-0.00554859 0.00166619 0)
(-0.00580911 0.00166682 0)
(-0.00606962 0.00166706 0)
(-0.00633005 0.00166688 0)
(-0.00659033 0.0016662 0)
(-0.00685037 0.00166498 0)
(-0.00711008 0.00166315 0)
(-0.00736937 0.00166066 0)
(-0.00762812 0.00165744 0)
(-0.0078862 0.00165344 0)
(-0.00814348 0.00164861 0)
(-0.00839982 0.0016429 0)
(-0.00865507 0.00163626 0)
(-0.00890904 0.00162866 0)
(-0.00916157 0.00162009 0)
(-0.00941248 0.00161055 0)
(-0.00966155 0.00160005 0)
(-0.0099086 0.00158866 0)
(-0.0101534 0.00157647 0)
(-0.0103957 0.00156362 0)
(-0.0106354 0.00155032 0)
(-0.0108722 0.00153687 0)
(-0.0111058 0.0015237 0)
(-0.011336 0.00151135 0)
(-0.0115625 0.0015006 0)
(-0.0117851 0.00149245 0)
(-0.0120034 0.00148828 0)
(-0.0122168 0.00148991 0)
(-0.0124246 0.00149979 0)
(-0.0126253 0.00152114 0)
(-0.0128166 0.00155819 0)
(-0.0129948 0.0016162 0)
(-0.013153 0.0017013 0)
(-0.0132806 0.00181956 0)
(-0.013361 0.00197488 0)
(-0.0133716 0.0021644 0)
(-0.0132881 0.00237204 0)
(-0.0130902 0.00256738 0)
(-2.59431e-05 0.000691084 0)
(-0.000168707 0.00138567 0)
(-0.000398522 0.00169849 0)
(-0.000637458 0.00182603 0)
(-0.000891012 0.0018732 0)
(-0.00114681 0.00188939 0)
(-0.0014035 0.00189511 0)
(-0.00166066 0.00189777 0)
(-0.0019181 0.00189974 0)
(-0.00217579 0.00190164 0)
(-0.00243372 0.00190364 0)
(-0.00269192 0.00190573 0)
(-0.00295039 0.0019079 0)
(-0.00320914 0.00191014 0)
(-0.00346817 0.0019124 0)
(-0.00372747 0.00191465 0)
(-0.00398706 0.00191687 0)
(-0.00424691 0.001919 0)
(-0.00450702 0.00192102 0)
(-0.00476736 0.00192286 0)
(-0.00502791 0.0019245 0)
(-0.00528864 0.00192586 0)
(-0.00554952 0.00192691 0)
(-0.00581048 0.00192758 0)
(-0.00607149 0.00192781 0)
(-0.00633248 0.00192753 0)
(-0.00659337 0.00192669 0)
(-0.0068541 0.00192522 0)
(-0.00711455 0.00192304 0)
(-0.00737464 0.00192009 0)
(-0.00763425 0.0019163 0)
(-0.00789326 0.00191159 0)
(-0.00815152 0.00190591 0)
(-0.00840888 0.0018992 0)
(-0.00866518 0.00189139 0)
(-0.00892025 0.00188245 0)
(-0.00917389 0.00187234 0)
(-0.00942588 0.00186106 0)
(-0.00967602 0.0018486 0)
(-0.00992405 0.00183502 0)
(-0.0101697 0.0018204 0)
(-0.0104128 0.00180486 0)
(-0.0106529 0.00178861 0)
(-0.0108897 0.00177192 0)
(-0.0111229 0.00175518 0)
(-0.0113521 0.00173891 0)
(-0.0115767 0.00172381 0)
(-0.0117963 0.0017108 0)
(-0.01201 0.00170107 0)
(-0.012217 0.00169617 0)
(-0.0124157 0.00169805 0)
(-0.0126043 0.00170918 0)
(-0.0127798 0.00173248 0)
(-0.0129378 0.00177127 0)
(-0.013072 0.00182883 0)
(-0.0131731 0.00190758 0)
(-0.0132288 0.00200741 0)
(-0.0132241 0.002123 0)
(-0.0131445 0.00224103 0)
(-0.0129795 0.00234017 0)
(-2.58388e-05 0.000786722 0)
(-0.000168312 0.0015752 0)
(-0.000397814 0.00192968 0)
(-0.000636523 0.00207396 0)
(-0.000889893 0.00212726 0)
(-0.00114553 0.00214554 0)
(-0.00140206 0.00215199 0)
(-0.00165908 0.00215501 0)
(-0.00191638 0.00215724 0)
(-0.00217394 0.0021594 0)
(-0.00243178 0.00216166 0)
(-0.0026899 0.00216403 0)
(-0.00294831 0.0021665 0)
(-0.00320704 0.00216902 0)
(-0.00346607 0.00217158 0)
(-0.00372543 0.00217413 0)
(-0.0039851 0.00217664 0)
(-0.00424508 0.00217906 0)
(-0.00450536 0.00218134 0)
(-0.00476592 0.00218343 0)
(-0.00502675 0.00218529 0)
(-0.00528781 0.00218684 0)
(-0.00554907 0.00218803 0)
(-0.00581049 0.0021888 0)
(-0.00607201 0.00218907 0)
(-0.00633359 0.00218878 0)
(-0.00659514 0.00218784 0)
(-0.00685659 0.00218618 0)
(-0.00711785 0.00218372 0)
(-0.00737882 0.00218038 0)
(-0.00763938 0.00217608 0)
(-0.00789941 0.00217073 0)
(-0.00815876 0.00216427 0)
(-0.00841728 0.0021566 0)
(-0.0086748 0.00214766 0)
(-0.00893112 0.0021374 0)
(-0.00918604 0.00212577 0)
(-0.00943933 0.00211272 0)
(-0.00969074 0.00209827 0)
(-0.00993999 0.00208241 0)
(-0.0101868 0.00206522 0)
(-0.0104308 0.00204679 0)
(-0.0106716 0.00202729 0)
(-0.0109089 0.00200695 0)
(-0.0111421 0.00198611 0)
(-0.0113707 0.0019652 0)
(-0.0115941 0.00194483 0)
(-0.0118114 0.00192573 0)
(-0.0120216 0.00190889 0)
(-0.0122235 0.0018955 0)
(-0.0124153 0.001887 0)
(-0.0125948 0.0018851 0)
(-0.0127588 0.00189164 0)
(-0.0129031 0.00190846 0)
(-0.013022 0.00193694 0)
(-0.0131081 0.00197733 0)
(-0.0131523 0.00202768 0)
(-0.0131448 0.00208231 0)
(-0.0130768 0.00213073 0)
(-0.0129434 0.00215792 0)
(-2.57397e-05 0.000882109 0)
(-0.000167889 0.0017644 0)
(-0.000397015 0.00216057 0)
(-0.000635443 0.00232165 0)
(-0.00088857 0.00238111 0)
(-0.00114399 0.00240149 0)
(-0.00140032 0.00240869 0)
(-0.00165714 0.00241208 0)
(-0.00191427 0.00241459 0)
(-0.00217168 0.00241703 0)
(-0.00242938 0.00241958 0)
(-0.00268739 0.00242225 0)
(-0.00294573 0.00242503 0)
(-0.00320441 0.00242789 0)
(-0.00346344 0.00243078 0)
(-0.00372282 0.00243367 0)
(-0.00398257 0.00243651 0)
(-0.00424267 0.00243926 0)
(-0.00450312 0.00244186 0)
(-0.00476392 0.00244425 0)
(-0.00502503 0.00244638 0)
(-0.00528644 0.00244819 0)
(-0.00554812 0.00244959 0)
(-0.00581003 0.00245053 0)
(-0.00607212 0.00245091 0)
(-0.00633434 0.00245067 0)
(-0.00659662 0.00244971 0)
(-0.00685887 0.00244794 0)
(-0.00712103 0.00244528 0)
(-0.00738298 0.00244164 0)
(-0.00764461 0.00243691 0)
(-0.0079058 0.002431 0)
(-0.00816639 0.00242381 0)
(-0.00842623 0.00241527 0)
(-0.00868514 0.00240526 0)
(-0.00894292 0.00239373 0)
(-0.00919935 0.00238059 0)
(-0.00945418 0.0023658 0)
(-0.00970713 0.00234931 0)
(-0.0099579 0.00233112 0)
(-0.0102062 0.00231125 0)
(-0.0104515 0.00228976 0)
(-0.0106935 0.00226677 0)
(-0.0109317 0.00224244 0)
(-0.0111655 0.00221704 0)
(-0.0113942 0.0021909 0)
(-0.0116171 0.00216447 0)
(-0.0118331 0.00213833 0)
(-0.0120412 0.00211318 0)
(-0.0122398 0.00208987 0)
(-0.0124271 0.00206937 0)
(-0.0126006 0.00205272 0)
(-0.0127575 0.00204092 0)
(-0.0128937 0.00203474 0)
(-0.0130044 0.00203437 0)
(-0.0130839 0.00203889 0)
(-0.0131255 0.00204566 0)
(-0.0131227 0.00204948 0)
(-0.0130702 0.00204226 0)
(-0.0129657 0.00201337 0)
(-2.5637e-05 0.00097723 0)
(-0.000167429 0.00195322 0)
(-0.000396133 0.00239111 0)
(-0.000634239 0.00256906 0)
(-0.000887079 0.0026347 0)
(-0.00114224 0.00265721 0)
(-0.00139833 0.00266518 0)
(-0.00165494 0.00266895 0)
(-0.00191187 0.00267176 0)
(-0.00216909 0.0026745 0)
(-0.00242664 0.00267736 0)
(-0.00268452 0.00268037 0)
(-0.00294276 0.0026835 0)
(-0.00320138 0.00268672 0)
(-0.00346039 0.00268998 0)
(-0.0037198 0.00269325 0)
(-0.00397961 0.00269648 0)
(-0.00423984 0.00269961 0)
(-0.00450048 0.00270258 0)
(-0.00476151 0.00270534 0)
(-0.00502294 0.00270781 0)
(-0.00528473 0.00270993 0)
(-0.00554687 0.00271162 0)
(-0.00580931 0.0027128 0)
(-0.00607202 0.00271338 0)
(-0.00633494 0.00271327 0)
(-0.00659802 0.00271238 0)
(-0.00686117 0.0027106 0)
(-0.00712432 0.00270784 0)
(-0.00738736 0.00270398 0)
(-0.00765019 0.00269892 0)
(-0.00791267 0.00269254 0)
(-0.00817467 0.00268473 0)
(-0.00843601 0.00267538 0)
(-0.00869652 0.00266439 0)
(-0.00895598 0.00265165 0)
(-0.00921416 0.00263706 0)
(-0.0094708 0.00262055 0)
(-0.0097256 0.00260204 0)
(-0.00997824 0.00258149 0)
(-0.0102283 0.00255887 0)
(-0.0104755 0.00253421 0)
(-0.0107191 0.00250754 0)
(-0.0109588 0.00247897 0)
(-0.0111939 0.00244866 0)
(-0.0114235 0.00241683 0)
(-0.0116468 0.00238378 0)
(-0.0118629 0.00234989 0)
(-0.0120703 0.00231561 0)
(-0.0122675 0.00228146 0)
(-0.0124527 0.00224798 0)
(-0.0126235 0.00221569 0)
(-0.012777 0.00218496 0)
(-0.0129099 0.00215583 0)
(-0.0130182 0.00212778 0)
(-0.0130971 0.00209934 0)
(-0.0131421 0.00206774 0)
(-0.0131485 0.00202853 0)
(-0.0131132 0.0019755 0)
(-0.0130351 0.00190107 0)
(-2.5526e-05 0.00107206 0)
(-0.000166926 0.00214163 0)
(-0.00039516 0.00262127 0)
(-0.000632907 0.00281613 0)
(-0.000885421 0.00288801 0)
(-0.00114029 0.00291267 0)
(-0.00139611 0.00292143 0)
(-0.00165246 0.00292559 0)
(-0.00190916 0.00292872 0)
(-0.00216618 0.00293179 0)
(-0.00242354 0.00293499 0)
(-0.00268127 0.00293837 0)
(-0.0029394 0.00294188 0)
(-0.00319795 0.0029455 0)
(-0.00345692 0.00294919 0)
(-0.00371635 0.00295289 0)
(-0.00397624 0.00295655 0)
(-0.00423659 0.00296011 0)
(-0.00449742 0.00296352 0)
(-0.00475871 0.00296671 0)
(-0.00502047 0.0029696 0)
(-0.00528266 0.00297211 0)
(-0.00554529 0.00297417 0)
(-0.00580831 0.00297568 0)
(-0.00607169 0.00297654 0)
(-0.00633538 0.00297667 0)
(-0.00659932 0.00297594 0)
(-0.00686345 0.00297425 0)
(-0.00712769 0.00297149 0)
(-0.00739194 0.00296753 0)
(-0.00765609 0.00296224 0)
(-0.00792002 0.0029555 0)
(-0.00818358 0.00294718 0)
(-0.00844661 0.00293714 0)
(-0.00870892 0.00292526 0)
(-0.00897029 0.0029114 0)
(-0.00923049 0.00289545 0)
(-0.00948924 0.00287728 0)
(-0.00974623 0.0028568 0)
(-0.0100011 0.0028339 0)
(-0.0102535 0.00280853 0)
(-0.0105029 0.00278063 0)
(-0.0107488 0.00275019 0)
(-0.0109906 0.00271722 0)
(-0.0112277 0.00268177 0)
(-0.0114591 0.00264396 0)
(-0.011684 0.00260391 0)
(-0.0119013 0.00256183 0)
(-0.0121096 0.00251792 0)
(-0.0123074 0.00247241 0)
(-0.0124929 0.0024255 0)
(-0.0126637 0.0023773 0)
(-0.0128174 0.00232772 0)
(-0.0129509 0.00227632 0)
(-0.013061 0.00222219 0)
(-0.013144 0.00216366 0)
(-0.0131964 0.0020981 0)
(-0.013215 0.00202179 0)
(-0.0131977 0.00192998 0)
(-0.0131439 0.0018172 0)
(-2.54044e-05 0.00116658 0)
(-0.000166373 0.00232956 0)
(-0.000394089 0.002851 0)
(-0.000631436 0.00306284 0)
(-0.000883585 0.00314099 0)
(-0.00113812 0.00316783 0)
(-0.00139364 0.00317739 0)
(-0.00164971 0.00318198 0)
(-0.00190614 0.00318545 0)
(-0.00216292 0.00318886 0)
(-0.00242008 0.00319245 0)
(-0.00267764 0.00319622 0)
(-0.00293563 0.00320016 0)
(-0.00319408 0.00320423 0)
(-0.00345301 0.00320838 0)
(-0.00371244 0.00321256 0)
(-0.00397239 0.00321671 0)
(-0.00423287 0.00322078 0)
(-0.00449389 0.00322469 0)
(-0.00475545 0.00322838 0)
(-0.00501754 0.00323176 0)
(-0.00528017 0.00323475 0)
(-0.00554331 0.00323727 0)
(-0.00580695 0.0032392 0)
(-0.00607104 0.00324045 0)
(-0.00633556 0.00324091 0)
(-0.00660044 0.00324046 0)
(-0.00686563 0.00323898 0)
(-0.00713105 0.00323634 0)
(-0.00739662 0.0032324 0)
(-0.00766222 0.00322701 0)
(-0.00792774 0.00322005 0)
(-0.00819304 0.00321134 0)
(-0.00845794 0.00320074 0)
(-0.00872226 0.0031881 0)
(-0.00898579 0.00317325 0)
(-0.00924829 0.00315605 0)
(-0.00950946 0.00313633 0)
(-0.00976899 0.00311396 0)
(-0.0100265 0.00308879 0)
(-0.0102816 0.0030607 0)
(-0.0105338 0.00302959 0)
(-0.0107826 0.00299535 0)
(-0.0110273 0.00295791 0)
(-0.0112671 0.00291724 0)
(-0.0115014 0.0028733 0)
(-0.011729 0.00282608 0)
(-0.0119489 0.0027756 0)
(-0.0121597 0.00272185 0)
(-0.0123599 0.00266483 0)
(-0.0125478 0.00260444 0)
(-0.0127213 0.00254048 0)
(-0.012878 0.00247253 0)
(-0.0130155 0.00239989 0)
(-0.0131308 0.00232143 0)
(-0.0132213 0.00223544 0)
(-0.013284 0.00213955 0)
(-0.0133167 0.00203071 0)
(-0.0133178 0.00190523 0)
(-0.013287 0.00175911 0)
(-2.52707e-05 0.00126074 0)
(-0.000165765 0.00251699 0)
(-0.000392912 0.00308026 0)
(-0.000629815 0.00330914 0)
(-0.000881558 0.00339361 0)
(-0.00113573 0.00342265 0)
(-0.0013909 0.00343305 0)
(-0.00164664 0.00343808 0)
(-0.00190278 0.00344192 0)
(-0.00215929 0.00344571 0)
(-0.00241621 0.00344969 0)
(-0.00267356 0.0034539 0)
(-0.0029314 0.00345831 0)
(-0.00318973 0.00346287 0)
(-0.0034486 0.00346754 0)
(-0.00370802 0.00347226 0)
(-0.00396802 0.00347697 0)
(-0.00422861 0.0034816 0)
(-0.00448982 0.00348609 0)
(-0.00475164 0.00349036 0)
(-0.00501409 0.00349432 0)
(-0.00527716 0.00349788 0)
(-0.00554085 0.00350094 0)
(-0.00580513 0.00350341 0)
(-0.00606998 0.00350515 0)
(-0.00633537 0.00350607 0)
(-0.00660126 0.00350602 0)
(-0.00686758 0.00350487 0)
(-0.00713428 0.00350249 0)
(-0.00740127 0.00349871 0)
(-0.00766845 0.00349338 0)
(-0.0079357 0.00348633 0)
(-0.00820289 0.00347739 0)
(-0.00846985 0.00346639 0)
(-0.00873641 0.00345315 0)
(-0.00900235 0.00343746 0)
(-0.00926742 0.00341915 0)
(-0.00953133 0.00339803 0)
(-0.00979378 0.00337391 0)
(-0.0100544 0.00334659 0)
(-0.0103127 0.0033159 0)
(-0.0105682 0.00328166 0)
(-0.0108205 0.00324369 0)
(-0.0110687 0.00320185 0)
(-0.0113123 0.00315597 0)
(-0.0115503 0.00310591 0)
(-0.0117817 0.00305152 0)
(-0.0120056 0.00299265 0)
(-0.0122204 0.00292912 0)
(-0.0124249 0.00286069 0)
(-0.0126172 0.00278706 0)
(-0.0127956 0.00270779 0)
(-0.012958 0.00262224 0)
(-0.0131021 0.00252955 0)
(-0.0132255 0.00242847 0)
(-0.0133259 0.00231737 0)
(-0.0134011 0.00219416 0)
(-0.0134494 0.0020563 0)
(-0.0134693 0.00190093 0)
(-0.0134606 0.00172505 0)
(-2.5124e-05 0.00135453 0)
(-0.000165098 0.00270386 0)
(-0.00039162 0.003309 0)
(-0.000628033 0.00355498 0)
(-0.000879325 0.00364582 0)
(-0.00113308 0.0036771 0)
(-0.00138787 0.00368834 0)
(-0.00164325 0.00369384 0)
(-0.00189905 0.00369808 0)
(-0.00215525 0.00370228 0)
(-0.0024119 0.00370671 0)
(-0.00266902 0.00371139 0)
(-0.00292666 0.00371631 0)
(-0.00318485 0.00372141 0)
(-0.00344363 0.00372665 0)
(-0.00370302 0.00373197 0)
(-0.00396305 0.0037373 0)
(-0.00422375 0.00374257 0)
(-0.00448513 0.00374771 0)
(-0.00474722 0.00375264 0)
(-0.00501002 0.00375727 0)
(-0.00527355 0.0037615 0)
(-0.00553779 0.00376522 0)
(-0.00580274 0.00376833 0)
(-0.00606838 0.00377069 0)
(-0.00633469 0.00377219 0)
(-0.00660164 0.00377268 0)
(-0.00686917 0.00377201 0)
(-0.00713722 0.00377003 0)
(-0.00740573 0.00376657 0)
(-0.0076746 0.00376146 0)
(-0.00794373 0.0037545 0)
(-0.00821297 0.00374552 0)
(-0.00848219 0.00373429 0)
(-0.0087512 0.00372062 0)
(-0.00901979 0.00370429 0)
(-0.00928772 0.00368507 0)
(-0.00955471 0.00366273 0)
(-0.00982043 0.00363704 0)
(-0.0100845 0.00360776 0)
(-0.0103466 0.00357464 0)
(-0.010606 0.00353744 0)
(-0.0108624 0.00349592 0)
(-0.011115 0.00344982 0)
(-0.0113631 0.00339889 0)
(-0.0116058 0.00334287 0)
(-0.0118422 0.00328147 0)
(-0.0120713 0.00321441 0)
(-0.0122916 0.00314132 0)
(-0.012502 0.00306183 0)
(-0.0127007 0.00297542 0)
(-0.0128861 0.0028815 0)
(-0.0130563 0.00277928 0)
(-0.0132092 0.00266776 0)
(-0.013343 0.00254571 0)
(-0.0134556 0.00241158 0)
(-0.013545 0.00226351 0)
(-0.0136099 0.0020994 0)
(-0.0136491 0.00191697 0)
(-0.0136621 0.00171393 0)
(-2.49635e-05 0.0014479 0)
(-0.000164369 0.00289012 0)
(-0.000390205 0.00353717 0)
(-0.000626078 0.00380032 0)
(-0.000876871 0.00389757 0)
(-0.00113017 0.00393112 0)
(-0.00138453 0.00394325 0)
(-0.0016395 0.00394924 0)
(-0.00189492 0.0039539 0)
(-0.00215078 0.00395854 0)
(-0.00240711 0.00396345 0)
(-0.00266396 0.00396865 0)
(-0.00292138 0.00397412 0)
(-0.00317939 0.00397982 0)
(-0.00343804 0.00398569 0)
(-0.00369737 0.00399166 0)
(-0.00395741 0.00399768 0)
(-0.0042182 0.00400367 0)
(-0.00447975 0.00400955 0)
(-0.00474209 0.00401524 0)
(-0.00500524 0.00402063 0)
(-0.00526921 0.00402563 0)
(-0.00553402 0.00403012 0)
(-0.00579966 0.00403399 0)
(-0.00606612 0.00403711 0)
(-0.00633338 0.00403932 0)
(-0.00660143 0.0040405 0)
(-0.00687023 0.00404047 0)
(-0.00713972 0.00403906 0)
(-0.00740984 0.0040361 0)
(-0.00768052 0.00403138 0)
(-0.00795164 0.00402471 0)
(-0.0082231 0.00401588 0)
(-0.00849475 0.00400464 0)
(-0.00876641 0.00399077 0)
(-0.0090379 0.00397401 0)
(-0.00930898 0.00395411 0)
(-0.00957937 0.00393079 0)
(-0.00984875 0.00390377 0)
(-0.0101168 0.00387277 0)
(-0.010383 0.00383746 0)
(-0.010647 0.00379756 0)
(-0.0109081 0.00375272 0)
(-0.0111658 0.00370263 0)
(-0.0114192 0.00364691 0)
(-0.0116677 0.00358521 0)
(-0.0119102 0.00351712 0)
(-0.0121457 0.00344221 0)
(-0.012373 0.00336 0)
(-0.0125908 0.00326994 0)
(-0.0127976 0.00317139 0)
(-0.0129918 0.00306361 0)
(-0.0131717 0.00294572 0)
(-0.0133356 0.00281665 0)
(-0.0134817 0.00267517 0)
(-0.0136081 0.00251981 0)
(-0.0137133 0.00234895 0)
(-0.0137959 0.00216078 0)
(-0.0138548 0.00195346 0)
(-0.0138893 0.00172522 0)
(-2.47883e-05 0.00154081 0)
(-0.000163573 0.0030757 0)
(-0.00038866 0.00376471 0)
(-0.00062394 0.00404511 0)
(-0.000874182 0.00414883 0)
(-0.00112698 0.00418467 0)
(-0.00138085 0.00419771 0)
(-0.00163537 0.00420422 0)
(-0.00189037 0.00420933 0)
(-0.00214583 0.00421445 0)
(-0.00240181 0.00421987 0)
(-0.00265835 0.00422564 0)
(-0.00291549 0.00423172 0)
(-0.00317329 0.00423806 0)
(-0.00343178 0.00424462 0)
(-0.00369102 0.00425132 0)
(-0.00395104 0.0042581 0)
(-0.00421188 0.00426489 0)
(-0.00447357 0.00427159 0)
(-0.00473615 0.00427812 0)
(-0.00499963 0.00428439 0)
(-0.00526405 0.00429027 0)
(-0.00552942 0.00429565 0)
(-0.00579576 0.00430042 0)
(-0.00606305 0.00430442 0)
(-0.0063313 0.0043075 0)
(-0.00660049 0.00430952 0)
(-0.00687061 0.0043103 0)
(-0.00714159 0.00430965 0)
(-0.00741341 0.00430737 0)
(-0.00768599 0.00430326 0)
(-0.00795923 0.0042971 0)
(-0.00823305 0.00428864 0)
(-0.0085073 0.00427763 0)
(-0.00878183 0.0042638 0)
(-0.00905645 0.00424688 0)
(-0.00933094 0.00422657 0)
(-0.00960505 0.00420255 0)
(-0.00987846 0.0041745 0)
(-0.0101508 0.00414207 0)
(-0.0104218 0.0041049 0)
(-0.0106908 0.00406261 0)
(-0.0109573 0.0040148 0)
(-0.0112208 0.00396106 0)
(-0.0114805 0.00390094 0)
(-0.0117356 0.00383396 0)
(-0.0119852 0.00375961 0)
(-0.0122284 0.00367735 0)
(-0.0124639 0.00358657 0)
(-0.0126906 0.00348659 0)
(-0.012907 0.00337666 0)
(-0.0131118 0.00325593 0)
(-0.0133032 0.00312342 0)
(-0.0134798 0.00297805 0)
(-0.0136399 0.00281857 0)
(-0.0137818 0.00264361 0)
(-0.0139041 0.00245169 0)
(-0.0140054 0.00224125 0)
(-0.0140846 0.00201076 0)
(-0.014141 0.00175878 0)
(-2.45977e-05 0.00163322 0)
(-0.000162708 0.00326056 0)
(-0.000386978 0.00399156 0)
(-0.000621606 0.00428929 0)
(-0.000871242 0.00439953 0)
(-0.00112348 0.00443771 0)
(-0.00137682 0.00445168 0)
(-0.00163084 0.00445874 0)
(-0.00188536 0.00446434 0)
(-0.00214038 0.00446996 0)
(-0.00239595 0.00447594 0)