/*--------------------------------*- C++ -*----------------------------------*\
  =========                 |
  \\      /  F ield         | OpenFOAM: The Open Source CFD Toolbox
   \\    /   O peration     | Website:  https://openfoam.org
    \\  /    A nd           | Version:  8
     \\/     M anipulation  |
\*---------------------------------------------------------------------------*/
FoamFile
{
    version     2.0;
    format      ascii;
    class       volScalarField;
    location    "57";
    object      p;
}
// * * * * * * * * * * * * * * * * * * * * * * * * * * * * * * * * * * * * * //

dimensions      [0 2 -2 0 0 0 0];

internalField   nonuniform List<scalar> 
116
(
2.6945e-07
-0.00111798
-0.00167379
-0.00338772
0.00131278
-0.00854197
-4.29626e-05
-0.000921201
-0.000420895
-0.00412134
-0.00169575
-0.00307801
0.000942033
-9.55194e-05
-0.000489446
-0.00312348
-0.00579096
-0.00832683
0.00168146
0.00109031
-0.000147858
-0.00343751
-0.00755723
-0.00916367
0.00187463
0.0012655
-0.000533131
-0.00446569
-0.00933432
-0.0110966
0.00118418
0.000877355
-0.000930907
-0.00443677
-0.00914426
-0.0109147
0.00136718
0.000911606
-0.000534148
-0.00388964
-0.00843339
-0.0111376
0.000368864
0.00107193
0.000524784
-0.00172921
-0.00512997
-0.00751458
0.0017504
0.00109022
0.00249118
0.000551095
-0.0024953
-0.00542279
-0.00348752
0.00449066
0.00457561
0.00309693
-0.0004653
-0.00275334
0.00249989
0.0109991
0.0095432
0.0152469
-0.00205391
0.00195204
0.00514755
0.00869918
-0.00897291
-0.00626916
-0.00245869
0.000931989
-0.01019
-0.00898966
-0.0071441
-0.00390459
-0.0115444
-0.0106006
-0.00980476
-0.00671495
-0.0116571
-0.0102982
-0.0101759
-0.00665374
-0.011872
-0.00997912
-0.0107446
-0.00336815
-0.00759242
-0.00553235
-0.00434135
0.00659115
-0.00732332
-0.00498833
-0.00272462
0.0147659
-0.00280845
0.00438008
0.0185659
0.0557085
0.0190691
0.0181072
0.0179291
0.0213088
0.0168481
0.0169746
0.0149573
0.0172615
0.0131294
0.0138266
0.0118424
0.0128562
0.0095717
0.0171394
0.0102939
0.0149486
)
;

boundaryField
{
    movingWall
    {
        type            zeroGradient;
    }
    fixedWalls
    {
        type            zeroGradient;
    }
    frontAndBack
    {
        type            empty;
    }
}


// ************************************************************************* //
