/*--------------------------------*- C++ -*----------------------------------*\
  =========                 |
  \\      /  F ield         | OpenFOAM: The Open Source CFD Toolbox
   \\    /   O peration     | Website:  https://openfoam.org
    \\  /    A nd           | Version:  8
     \\/     M anipulation  |
\*---------------------------------------------------------------------------*/
FoamFile
{
    version     2.0;
    format      ascii;
    class       volVectorField;
    location    "57";
    object      U;
}
// * * * * * * * * * * * * * * * * * * * * * * * * * * * * * * * * * * * * * //

dimensions      [0 1 -1 0 0 0 0];

internalField   nonuniform List<vector> 
116
(
(0.0206053 -0.0118425 0)
(0.0179474 -0.0106561 0)
(0.0521294 -0.0201375 0)
(0.0125842 -0.0219741 0)
(0.0120718 0.063753 0)
(-0.161381 0.0903611 0)
(0.0105958 -0.0289822 0)
(-0.00517747 -0.0184686 0)
(-0.0148508 0.0203684 0)
(-0.0982734 0.0672396 0)
(-0.114041 0.0932122 0)
(-0.171396 0.0648678 0)
(-0.0028824 -0.0156538 0)
(-0.032584 0.0177146 0)
(-0.0591537 0.0640215 0)
(-0.105754 0.0947873 0)
(-0.112115 0.121624 0)
(-0.121157 0.0744008 0)
(-0.0101342 0.00441001 0)
(-0.0347668 0.0428636 0)
(-0.0566774 0.0919723 0)
(-0.085522 0.117227 0)
(-0.0813707 0.114125 0)
(-0.0614209 0.0423215 0)
(-0.00544944 0.0296985 0)
(-0.0263154 0.0633586 0)
(-0.0433251 0.107209 0)
(-0.0511235 0.11644 0)
(-0.0419807 0.0969872 0)
(-0.022286 0.0264251 0)
(-0.00324103 0.0346678 0)
(-0.0107911 0.080547 0)
(-0.00985426 0.113682 0)
(-0.0078461 0.119315 0)
(-0.00425859 0.0956211 0)
(0.00489714 0.0347597 0)
(0.00189223 0.0480336 0)
(0.00226681 0.0724476 0)
(0.00294025 0.106255 0)
(0.0186142 0.10618 0)
(0.0282562 0.079973 0)
(0.0456839 0.0319098 0)
(0.00774747 0.0261821 0)
(0.0142288 0.0795378 0)
(0.0382186 0.0946131 0)
(0.0638541 0.0977557 0)
(0.0760249 0.0763788 0)
(0.0938146 0.0454255 0)
(-0.0568464 0.0331333 0)
(-0.019117 0.0375959 0)
(-0.00835978 0.0574085 0)
(0.0396395 0.0634852 0)
(0.0621659 0.0465972 0)
(0.0923138 0.0324987 0)
(0.05276 0.0903286 0)
(0.0838926 0.0419737 0)
(0.116124 0.0330492 0)
(0.179528 0.0300115 0)
(0.199941 0.0255575 0)
(0.252551 0.0223827 0)
(-0.111744 0.116869 0)
(-0.115594 -0.03259 0)
(-0.0280621 0.00156157 0)
(-0.00713713 -0.137129 0)
(-0.108561 0.0804519 0)
(-0.115507 -0.070949 0)
(-0.0852192 -0.0752271 0)
(0.00478683 -0.174395 0)
(-0.0778169 0.0573794 0)
(-0.0553736 -0.063608 0)
(-0.0758224 -0.118024 0)
(0.000251008 -0.220099 0)
(-0.0442198 0.0286716 0)
(-0.0113876 -0.0658458 0)
(-0.0469029 -0.123199 0)
(0.00855961 -0.243256 0)
(-0.0321418 0.00630263 0)
(0.00594383 -0.0687406 0)
(-0.0408471 -0.138218 0)
(0.0122375 -0.266528 0)
(-0.0149832 0.00339812 0)
(0.0317205 -0.0555977 0)
(-0.025814 -0.120967 0)
(0.0199913 -0.272784 0)
(0.0228347 -0.0207848 0)
(0.0512349 -0.0657408 0)
(-0.0225163 -0.134992 0)
(0.0278217 -0.278084 0)
(0.0733135 0.00518505 0)
(0.0728363 -0.0088271 0)
(0.00998448 -0.0788679 0)
(0.0509977 -0.251852 0)
(0.0873254 -0.000359389 0)
(0.0940509 -0.0170312 0)
(0.068991 -0.12169 0)
(0.0806105 -0.25295 0)
(0.248136 0.014207 0)
(0.273987 0.00270609 0)
(0.215626 -0.0235325 0)
(0.152552 -0.0676756 0)
(-0.0223113 0.00458968 0)
(-0.0583241 0.00480963 0)
(-0.0733749 -0.000162504 0)
(-0.0444148 -0.036763 0)
(-0.0194912 0.073109 0)
(-0.0466016 0.0461719 0)
(-0.0435167 -0.00699307 0)
(-0.0430487 -0.0888185 0)
(-0.0362378 0.0713702 0)
(-0.00421328 0.0184186 0)
(-0.0146955 0.00414242 0)
(-0.031099 -0.129781 0)
(-0.00786487 0.121858 0)
(-0.0421382 0.0291044 0)
(0.0303919 0.0246667 0)
(-0.0346595 -0.123684 0)
)
;

boundaryField
{
    movingWall
    {
        type            fixedValue;
        value           uniform (1 0 0);
    }
    fixedWalls
    {
        type            noSlip;
    }
    frontAndBack
    {
        type            empty;
    }
}


// ************************************************************************* //
