/*--------------------------------*- C++ -*----------------------------------*\
  =========                 |
  \\      /  F ield         | OpenFOAM: The Open Source CFD Toolbox
   \\    /   O peration     | Website:  https://openfoam.org
    \\  /    A nd           | Version:  8
     \\/     M anipulation  |
\*---------------------------------------------------------------------------*/
FoamFile
{
    version     2.0;
    format      ascii;
    class       volVectorField;
    location    "82";
    object      U;
}
// * * * * * * * * * * * * * * * * * * * * * * * * * * * * * * * * * * * * * //

dimensions      [0 1 -1 0 0 0 0];

internalField   nonuniform List<vector> 
400
(
(1 7.97903e-17 0)
(1 7.83318e-17 0)
(1 8.4395e-17 0)
(1 1.3467e-18 0)
(1 -1.45175e-17 0)
(1 5.59802e-17 0)
(1 9.42965e-17 0)
(1 1.35467e-16 0)
(1 1.03742e-16 0)
(1 -8.53913e-18 0)
(1 -1.29886e-16 0)
(1 -1.74317e-16 0)
(1 -1.91614e-16 0)
(1 -1.48341e-16 0)
(1 -1.02077e-16 0)
(1 -1.33176e-16 0)
(1 -1.02854e-16 0)
(1 -8.65734e-17 0)
(1 -2.11255e-16 0)
(1 -2.39599e-16 0)
(1 6.84606e-17 0)
(1 1.01057e-16 0)
(1 1.23069e-16 0)
(1 -7.75149e-18 0)
(1 -4.50133e-17 0)
(1 6.81309e-17 0)
(1 7.52786e-17 0)
(1 9.84255e-17 0)
(1 1.15679e-16 0)
(1 3.30528e-17 0)
(1 -1.13258e-16 0)
(1 -2.73544e-16 0)
(1 -2.60342e-16 0)
(1 -1.48223e-16 0)
(1 -8.36403e-17 0)
(1 -9.87287e-17 0)
(1 -9.23313e-17 0)
(1 -1.04164e-16 0)
(1 -2.59951e-16 0)
(1 -2.59038e-16 0)
(1 -6.2217e-17 0)
(1 7.34548e-17 0)
(1 7.73466e-17 0)
(1 3.33142e-17 0)
(1 -3.84837e-17 0)
(1 -1.60224e-17 0)
(1 3.57205e-17 0)
(1 7.62411e-17 0)
(1 9.4426e-17 0)
(1 1.32256e-17 0)
(1 -7.848e-17 0)
(1 -1.97097e-16 0)
(1 -1.91605e-16 0)
(1 -1.78256e-16 0)
(1 -8.90138e-17 0)
(1 -1.34825e-16 0)
(1 -8.32527e-17 0)
(1 -8.89424e-17 0)
(1 -2.20492e-16 0)
(1 -2.53862e-16 0)
(1 -1.46346e-16 0)
(1 -6.30644e-18 0)
(1 9.43232e-17 0)
(1 1.32382e-17 0)
(1 1.12858e-17 0)
(1 -8.32813e-17 0)
(1 -4.92353e-17 0)
(1 3.56712e-17 0)
(1 2.44868e-18 0)
(1 -2.26503e-17 0)
(1 -8.32984e-17 0)
(1 -2.78973e-17 0)
(1 -8.44744e-17 0)
(1 -1.50566e-16 0)
(1 -7.65988e-17 0)
(1 -1.4529e-16 0)
(1 -8.73052e-17 0)
(1 -1.08296e-16 0)
(1 -1.82844e-16 0)
(1 -2.13211e-16 0)
(1 -9.74399e-17 0)
(1 9.08436e-18 0)
(1 1.24514e-16 0)
(1 -3.27291e-17 0)
(1 -2.95232e-17 0)
(1 -9.28352e-17 0)
(1 -1.02807e-16 0)
(1 -6.47946e-17 0)
(1 -4.89718e-17 0)
(1 -3.10428e-18 0)
(1 -4.84877e-17 0)
(1 -6.73371e-17 0)
(1 -9.55353e-17 0)
(1 -2.21954e-17 0)
(1 -4.28641e-17 0)
(1 -9.802e-17 0)
(1 -1.39118e-16 0)
(1 -1.69675e-16 0)
(1 -1.58163e-16 0)
(1 -1.81897e-16 0)
(1 5.01444e-18 0)
(1 3.28385e-17 0)
(1 4.4644e-18 0)
(1 3.95385e-18 0)
(1 -5.87077e-17 0)
(1 -1.13725e-16 0)
(1 -1.06e-16 0)
(1 -1.20364e-16 0)
(1 -4.31733e-17 0)
(1 -7.94584e-17 0)
(1 -1.05444e-16 0)
(1 -1.40246e-16 0)
(1 -8.04814e-17 0)
(1 -2.90082e-17 0)
(1 -8.9281e-17 0)
(1 -6.90614e-17 0)
(1 -1.46743e-16 0)
(1 -1.74089e-16 0)
(1 -1.46993e-16 0)
(1 -1.7537e-16 0)
(1 1.03861e-16 0)
(1 1.17404e-17 0)
(1 -6.66804e-17 0)
(1 6.45222e-18 0)
(1 1.07917e-17 0)
(1 -5.8318e-17 0)
(1 -1.0306e-16 0)
(1 -1.26089e-16 0)
(1 -1.15146e-16 0)
(1 -2.17027e-16 0)
(1 -1.00589e-16 0)
(1 -1.37376e-16 0)
(1 -7.35709e-17 0)
(1 -1.10744e-16 0)
(1 -1.47536e-16 0)
(1 -1.33705e-16 0)
(1 -1.40147e-16 0)
(1 -1.59896e-16 0)
(1 -1.66247e-16 0)
(1 -1.98795e-16 0)
(1 1.52869e-16 0)
(1 -4.44459e-18 0)
(1 -1.08953e-16 0)
(1 4.8767e-17 0)
(1 3.23697e-17 0)
(1 3.08588e-17 0)
(1 -9.49038e-17 0)
(1 -1.45142e-16 0)
(1 -2.2751e-16 0)
(1 -2.80096e-16 0)
(1 -7.59112e-17 0)
(1 -9.78107e-17 0)
(1 -1.57704e-16 0)
(1 -2.27237e-16 0)
(1 -2.16181e-16 0)
(1 -1.67314e-16 0)
(1 -1.45644e-16 0)
(1 -1.46775e-16 0)
(1 -1.67663e-16 0)
(1 -2.31869e-16 0)
(1 9.88584e-17 0)
(1 3.79338e-17 0)
(1 -1.10868e-16 0)
(1 -3.90105e-17 0)
(1 1.33249e-17 0)
(1 3.55156e-17 0)
(1 -9.22573e-17 0)
(1 -1.65081e-16 0)
(1 -2.30063e-16 0)
(1 -2.16762e-16 0)
(1 -1.72401e-16 0)
(1 -8.66906e-17 0)
(1 -2.25232e-16 0)
(1 -3.00549e-16 0)
(1 -2.97873e-16 0)
(1 -1.46361e-16 0)
(1 -1.37155e-16 0)
(1 -1.78008e-16 0)
(1 -1.78918e-16 0)
(1 -2.09246e-16 0)
(1 -1.67671e-17 0)
(1 3.17516e-17 0)
(1 -6.1254e-17 0)
(1 -1.05805e-16 0)
(1 -3.80821e-17 0)
(1 -1.03767e-17 0)
(1 -8.01652e-17 0)
(1 -1.56511e-16 0)
(1 -1.97102e-16 0)
(1 -1.8235e-16 0)
(1 -2.13081e-16 0)
(1 -1.27062e-16 0)
(1 -1.9717e-16 0)
(1 -2.97644e-16 0)
(1 -3.05082e-16 0)
(1 -1.60092e-16 0)
(1 -1.49969e-16 0)
(1 -2.16801e-16 0)
(1 -1.79625e-16 0)
(1 -1.24656e-16 0)
(1 -5.98891e-17 0)
(1 -7.15163e-17 0)
(1 -8.26971e-17 0)
(1 -7.72413e-17 0)
(1 -1.271e-17 0)
(1 -4.03005e-17 0)
(1 -8.76683e-17 0)
(1 -1.63656e-16 0)
(1 -2.27773e-16 0)
(1 -2.31894e-16 0)
(1 -1.82423e-16 0)
(1 -1.50681e-16 0)
(1 -1.47068e-16 0)
(1 -2.69436e-16 0)
(1 -2.45134e-16 0)
(1 -1.36943e-16 0)
(1 -1.66474e-16 0)
(1 -1.90353e-16 0)
(1 -1.83144e-16 0)
(1 -1.25648e-16 0)
(1 -9.64012e-17 0)
(1 -1.23441e-16 0)
(1 -4.5359e-17 0)
(1 -5.77694e-17 0)
(1 -7.11949e-18 0)
(1 -5.62892e-17 0)
(1 -1.43582e-16 0)
(1 -1.812e-16 0)
(1 -2.52239e-16 0)
(1 -2.80731e-16 0)
(1 -2.25346e-16 0)
(1 -1.51424e-16 0)
(1 -1.59185e-16 0)
(1 -1.36922e-16 0)
(1 -1.97949e-16 0)
(1 -1.74966e-16 0)
(1 -1.58876e-16 0)
(1 -1.10096e-16 0)
(1 -1.68114e-16 0)
(1 -2.35435e-16 0)
(1 -1.49663e-16 0)
(1 -1.06525e-16 0)
(1 7.5916e-18 0)
(1 2.62597e-17 0)
(1 -9.00374e-17 0)
(1 -1.43473e-16 0)
(1 -1.69277e-16 0)
(1 -1.84934e-16 0)
(1 -2.22906e-16 0)
(1 -2.94832e-16 0)
(1 -3.03131e-16 0)
(1 -2.24092e-16 0)
(1 -1.61387e-16 0)
(1 -5.19111e-17 0)
(1 -1.42106e-16 0)
(1 -2.34449e-16 0)
(1 -1.99697e-16 0)
(1 -1.00858e-16 0)
(1 -1.58938e-16 0)
(1 -2.76462e-16 0)
(1 -1.13338e-16 0)
(1 -4.21011e-17 0)
(1 -2.03818e-17 0)
(1 -1.55429e-17 0)
(1 -6.6582e-17 0)
(1 -1.9962e-16 0)
(1 -1.56836e-16 0)
(1 -2.27465e-16 0)
(1 -2.2709e-16 0)
(1 -2.28679e-16 0)
(1 -2.42021e-16 0)
(1 -2.09785e-16 0)
(1 -1.26392e-16 0)
(1 -8.47474e-17 0)
(1 -8.47292e-17 0)
(1 -2.61293e-16 0)
(1 -2.44107e-16 0)
(1 -1.94334e-16 0)
(1 -2.57252e-16 0)
(1 -2.94883e-16 0)
(1 -1.84574e-17 0)
(1 -7.76403e-17 0)
(1 -1.99994e-17 0)
(1 -9.43247e-17 0)
(1 -1.33758e-16 0)
(1 -1.85137e-16 0)
(1 -1.02954e-16 0)
(1 -1.29826e-16 0)
(1 -2.44543e-16 0)
(1 -1.49867e-16 0)
(1 -1.89068e-16 0)
(1 -1.37424e-16 0)
(1 -9.06094e-17 0)
(1 -9.80363e-17 0)
(1 -1.47784e-16 0)
(1 -2.04522e-16 0)
(1 -2.55062e-16 0)
(1 -2.81616e-16 0)
(1 -2.93445e-16 0)
(1 -2.75935e-16 0)
(1 1.77441e-17 0)
(1 -1.50285e-16 0)
(1 -1.31772e-16 0)
(1 -1.25229e-16 0)
(1 -1.9957e-16 0)
(1 -1.29958e-16 0)
(1 -4.37486e-17 0)
(1 -4.12261e-17 0)
(1 -1.1823e-16 0)
(1 -1.04783e-16 0)
(1 -1.70804e-16 0)
(1 -1.62534e-16 0)
(1 -6.72193e-17 0)
(1 -1.11162e-16 0)
(1 -8.8194e-17 0)
(1 -1.15825e-16 0)
(1 -2.54543e-16 0)
(1 -2.96027e-16 0)
(1 -2.25821e-16 0)
(1 -1.85149e-16 0)
(1 -1.3483e-17 0)
(1 -1.01828e-16 0)
(1 -1.84986e-16 0)
(1 -1.56173e-16 0)
(1 -1.18973e-16 0)
(1 -8.23401e-17 0)
(1 -8.55809e-17 0)
(1 -8.1507e-17 0)
(1 -7.41497e-18 0)
(1 -3.58536e-17 0)
(1 -1.51842e-16 0)
(1 -1.52232e-16 0)
(1 -8.11113e-17 0)
(1 -5.79784e-17 0)
(1 1.70675e-17 0)
(1 -7.47499e-17 0)
(1 -2.24382e-16 0)
(1 -2.81673e-16 0)
(1 -2.19325e-16 0)
(1 -1.50205e-16 0)
(1 -1.30813e-17 0)
(1 -7.77523e-17 0)
(1 -1.17582e-16 0)
(1 -1.22032e-16 0)
(1 -6.84141e-17 0)
(1 -8.19178e-17 0)
(1 -1.35569e-16 0)
(1 -1.41693e-16 0)
(1 -4.12506e-18 0)
(1 -2.02253e-17 0)
(1 -6.3344e-17 0)
(1 -7.02749e-17 0)
(1 -2.12458e-17 0)
(1 6.29274e-17 0)
(1 -1.93839e-17 0)
(1 -8.86803e-17 0)
(1 -1.78196e-16 0)
(1 -2.06106e-16 0)
(1 -1.72246e-16 0)
(1 -1.51222e-16 0)
(1 -1.09543e-17 0)
(1 -5.84887e-17 0)
(1 -7.19915e-17 0)
(1 -7.06874e-17 0)
(1 -8.87334e-17 0)
(1 -7.00182e-17 0)
(1 -1.65042e-16 0)
(1 -2.09191e-16 0)
(1 -5.35106e-17 0)
(1 2.06724e-17 0)
(1 1.05764e-17 0)
(1 -2.75799e-17 0)
(1 4.5742e-17 0)
(1 9.01304e-17 0)
(1 2.09934e-17 0)
(1 -1.02929e-16 0)
(1 -8.26584e-17 0)
(1 -1.09943e-16 0)
(1 -1.05069e-16 0)
(1 -1.355e-16 0)
(1 -1.03009e-17 0)
(1 -1.17658e-17 0)
(1 -3.78642e-17 0)
(1 -7.46091e-17 0)
(1 -1.11134e-16 0)
(1 -9.41119e-17 0)
(1 -1.62355e-16 0)
(1 -1.7987e-16 0)
(1 -1.08748e-16 0)
(1 2.51334e-17 0)
(1 -3.52216e-17 0)
(1 -3.37421e-17 0)
(1 5.22197e-17 0)
(1 8.79372e-17 0)
(1 8.7249e-17 0)
(1 -5.27094e-17 0)
(1 -1.30214e-17 0)
(1 -4.72615e-17 0)
(1 -7.37138e-17 0)
(1 -1.24696e-16 0)
)
;

boundaryField
{
    inlet
    {
        type            fixedValue;
        value           uniform (1 0 0);
    }
    outlet
    {
        type            zeroGradient;
    }
    up
    {
        type            zeroGradient;
    }
    down
    {
        type            zeroGradient;
    }
    frontAndBack
    {
        type            empty;
    }
}


// ************************************************************************* //
