/*--------------------------------*- C++ -*----------------------------------*\
  =========                 |
  \\      /  F ield         | OpenFOAM: The Open Source CFD Toolbox
   \\    /   O peration     | Website:  https://openfoam.org
    \\  /    A nd           | Version:  8
     \\/     M anipulation  |
\*---------------------------------------------------------------------------*/
FoamFile
{
    version     2.0;
    format      ascii;
    class       surfaceScalarField;
    location    "64";
    object      phi;
}
// * * * * * * * * * * * * * * * * * * * * * * * * * * * * * * * * * * * * * //

dimensions      [0 3 -1 0 0 0 0];

internalField   nonuniform List<scalar> 
7966
(
0.013378
-4.72849e-05
2.66045e-06
0.0135863
-0.00021074
2.40446e-06
0.0139879
-0.000380013
-2.16362e-05
0.0144923
-0.000503913
-4.67316e-07
0.0145816
-0.00010135
1.20368e-05
0.0144239
0.000141484
1.62861e-05
0.0141779
0.000248317
-2.39331e-06
0.0139949
0.000196041
-1.30258e-05
0.0141558
-0.000150142
-1.07304e-05
0.0140963
5.11694e-05
8.31695e-06
0.0138648
0.000236468
-4.89901e-06
0.0136079
0.000259047
-2.21149e-06
0.0130691
0.000541049
-2.19456e-06
0.0126269
0.000454198
-1.20467e-05
0.0121106
0.000497893
1.84003e-05
0.0116725
0.000447043
-8.92249e-06
0.0116127
4.11595e-05
1.8588e-05
0.0118111
-0.000240478
4.21085e-05
0.01234
-0.000560251
3.13295e-05
-0.000417022
3.87825e-06
0.0134198
-0.000135871
2.078e-06
0.0136197
-0.000434236
2.36333e-05
0.013992
-0.000711935
-4.04111e-05
0.0146515
-0.00110606
-5.73238e-05
0.0146673
-0.000137857
2.07255e-05
0.014535
0.000211124
6.26384e-05
0.0143031
0.000478146
2.12419e-06
0.0141206
0.000424798
-4.62512e-05
0.0142821
-0.000290963
-2.0717e-05
0.014225
9.93441e-05
8.93144e-06
0.0141052
0.000422643
-6.63389e-05
0.0136851
0.000653236
2.5913e-05
0.0130187
0.00117816
2.92587e-05
0.0125012
0.00101097
-3.92871e-05
0.0119688
0.000994164
3.61293e-05
0.0115477
0.000858022
1.00908e-05
0.0114684
2.96603e-05
9.08457e-05
0.0117595
-0.000663582
0.000131993
0.0124813
-0.00143194
0.000149913
-0.000936462
4.5415e-05
0.0133865
-0.000203495
1.55009e-05
0.0138625
-0.000923067
1.28386e-05
0.0145585
-0.00135112
-5.68496e-05
0.0149986
-0.00145025
-9.5905e-05
0.0151536
-0.000250254
-4.25969e-05
0.0151536
0.00010328
0.00010785
0.0145811
0.000943212
0.000107381
0.013903
0.000938391
0.000164502
0.0145038
-0.000756624
-0.000135113
0.0147457
3.55397e-05
-0.000178048
0.0142275
0.00080957
0.000131232
0.0140455
0.000917354
-8.21029e-05
0.0135537
0.00181583
-0.000145875
0.0129716
0.00150559
8.74212e-05
0.0123005
0.00175472
-8.94277e-05
0.0113146
0.00196518
-0.000121227
0.0112307
-0.000327882
0.000441431
0.0117034
-0.00196678
0.000830514
0.0126306
-0.00343057
0.00107143
-0.00188011
0.000398567
0.0135356
-0.000399519
-4.21974e-06
0.0143184
-0.00168636
-1.94836e-05
0.0145875
-0.00168467
6.44045e-05
0.0152144
-0.0020439
-3.32421e-05
0.0155731
-9.73261e-05
-0.000511602
0.0159221
-0.000137904
-0.000107803
0.0152754
0.000869784
0.000720076
0.0144175
0.00155584
0.00024049
0.01511
-0.00101967
-0.000429524
0.0151718
-1.1374e-05
-1.4865e-05
0.0152904
0.00123384
-0.000542859
0.0147684
0.00115018
0.000289229
0.0134339
0.00307506
7.52011e-05
0.0128697
0.00209823
-2.84624e-05
0.0121998
0.00274999
-0.000325342
0.0106574
0.00319903
0.000308521
0.0100349
-0.00109827
0.00139292
0.0109048
-0.00368916
0.000852478
0.0128598
-0.00666197
0.0012764
-0.00357744
0.000770775
0.0138917
-0.00111204
0.000159324
0.0143995
-0.00236978
0.000175649
0.0161275
-0.0025316
-0.000881056
0.016427
-0.00242929
8.58407e-05
0.0163326
-0.000109868
0.000106972
0.0171609
-0.000862566
-0.000103671
0.0161884
0.00054998
0.00129227
0.0148885
0.00136912
0.00148661
0.0163788
-0.00306657
0.000556663
0.0162443
4.69743e-05
7.61067e-05
0.0155559
0.00208405
-0.000161748
0.0158404
0.00193725
-0.00107163
0.0149791
0.0050019
-0.00106553
0.0133088
0.00301424
0.000754262
0.0113725
0.00354708
0.00113928
0.00942364
0.00386485
0.00128301
0.00995484
-0.000195604
-0.00143387
0.0102084
-0.00299511
-0.0009476
0.0108327
-0.00844968
0.00116344
-0.00569945
0.00105993
0.0143136
-0.00250559
0.000424546
0.0153138
-0.00370859
0.000338629
0.0169021
-0.00273587
-0.0013841
0.0186257
-0.000719064
-0.00184662
-0.000763467
-0.000547043
-0.000276631
0.0186182
-4.88092e-05
-0.000168603
-0.000335536
4.90034e-05
0.000401581
0.0192148
-0.00319267
0.00173348
0.0184754
0.00145033
-0.000160974
0.0175842
0.00289302
-0.000632706
0.019632
-0.00439045
-0.000723954
0.0201236
-0.000914723
0.000470137
0.0195267
0.00230814
0.000372798
0.016804
0.00357671
0.00108328
0.0133743
0.00660938
0.00182222
0.0140886
0.00303526
-0.000735301
0.0145193
0.00532298
-0.00220664
0.0126388
0.00814731
-0.00240196
0.012028
0.00235838
-0.00194319
0.00994661
-0.000577154
-0.000336563
0.00980524
-0.00678778
-0.00152054
-0.00659877
-0.000504117
0.0148378
-0.00556872
0.00157812
0.0172663
-0.00328188
-0.00285524
0.00473055
-0.00214265
0.00238375
-0.00299388
-0.00130269
-0.00170522
0.00549646
0.00468878
0.00537533
0.00531545
-0.00147419
0.000170223
-0.00559529
0.00593928
-0.000402799
1.00029e-05
0.0211256
0.000554905
-0.00135899
-0.000539879
0.000860211
-0.000161151
-0.00597673
-0.00618416
-0.00557035
-0.00594209
0.0183172
0.00293442
0.00132431
0.0175828
0.00411782
-0.000490453
0.0226271
-0.00292628
-0.00650841
0.0258541
-0.00315926
-0.000982453
0.0228314
0.00299759
0.00233325
0.0150408
0.0086018
0.00276546
0.0145674
0.00869706
-0.00161426
0.0171742
0.00451622
-0.00408776
0.0136087
0.00786985
0.00101856
0.0118164
0.00964476
0.000294882
0.0145228
-0.000111135
-0.000236887
0.0138286
-0.000594741
0.000711731
0.0118163
-0.00401342
-0.000761969
-0.00594055
-0.0006688
0.0159245
-0.00737581
-0.000760943
0.00460419
-0.000892169
-0.000265285
0.00351249
0.00555114
0.00427518
-0.00154415
-0.00199844
-0.000600372
0.00416929
-0.00375878
0.00205103
-0.00134893
0.000969471
0.00158409
-0.00120151
-3.11641e-06
-0.00167817
0.000263529
0.00161713
-0.000109408
-9.30897e-05
-0.00146382
0.00510128
0.000102179
-0.00112904
-0.00152935
-0.00122275
0.000156665
0.000192273
0.000200425
0.000147039
0.0157633
0.000155936
0.000939845
-0.00494579
-0.00186837
-0.00561097
-0.00209371
6.65995e-05
0.000244918
0.00028261
0.014886
0.010975
-0.0059798
0.0188932
-0.000765067
-0.0061684
0.0197594
-0.00192277
-0.00210266
0.0199767
0.002812
-3.17721e-05
0.0207965
0.00624113
0.00154093
0.0210866
0.0104892
-0.00208233
0.0190233
0.0105232
-0.00394362
0.0159381
0.0094109
0.00154416
0.0147331
0.00752317
0.00332662
0.0153637
-0.00302707
0.00228534
0.0170607
-0.00191119
-0.000380626
0.0171164
-0.00228005
-0.00178905
-0.00504354
-0.00033193
0.00573773
-0.00552295
-0.00314596
0.0012691
0.00552524
0.00207976
0.00460022
-0.00132988
0.00157522
0.00166599
-0.000882052
0.000949584
-0.00167925
-5.42695e-05
-0.000164322
-0.000187891
2.85174e-05
0.000725611
-4.08012e-05
-0.000162609
-4.25701e-05
0.00492587
0.0104582
-0.00463649
-0.00029825
0.000166664
-0.000114512
0.000473531
0.00895846
-0.00574814
0.000950486
0.00825703
-0.00349055
0.00226921
0.0125498
-0.00422969
0.00274891
0.0183428
-0.00154296
0.0019911
0.0171108
0.0107811
0.000940061
0.015108
0.0121133
0.000412666
0.0160355
0.00765109
0.000832404
0.0163094
0.00820309
-0.000953874
0.0139164
0.000747284
-0.00138135
0.0120867
-0.00147947
0.001398
0.0128875
-0.00324614
0.0001653
-0.00496677
-0.00134666
0.00210249
-0.00346578
-0.00408048
0.00582558
0.00395458
0.00342666
0.0020871
-0.000737674
0.000457153
1.67777e-05
1.66216e-05
0.000771068
-0.000508552
0.00072098
-0.000208143
-0.000512837
-0.000129164
-3.30518e-05
-1.51728e-05
0.00014284
3.45489e-05
-0.000512068
0.00293778
0.00718578
-0.000124364
0.000484263
-3.89286e-06
0.000490676
-0.00033979
-0.0105625
0.00464207
0.00311986
-0.00473126
-0.00221894
0.00548768
-0.00828464
0.00168713
0.0110793
-0.00852016
0.00138559
0.0145708
0.00728967
-1.1401e-07
0.0168682
0.00959144
0.000224551
0.0176869
0.00884973
-0.00201736
0.0153115
0.0127779
-0.00219938
0.0127585
0.00380028
-0.000500001
0.012316
-0.000747929
-0.000289036
0.0141476
-0.00586845
0.000790724
-0.00655518
0.000149977
-0.000965899
0.00337273
-0.000988989
0.00414909
-0.000569741
0.00482304
-0.000674127
0.0019063
-9.98418e-05
-0.000410799
-0.000673492
-0.000510385
-0.000503553
-0.000294254
-0.000123223
0.00033911
7.83663e-05
0.008272
-0.00144992
-0.0011187
-0.000388985
-0.000932196
-0.000564024
-0.000880401
0.000975593
-0.0107897
0.00752365
0.00283234
-0.00404767
-0.00254034
0.00529328
-0.00592963
-0.00481595
0.00711315
-0.013942
0.00360198
0.0110542
0.00176626
0.00158237
0.0122283
0.0082463
0.000171027
0.0112176
0.0118614
-0.00200095
0.0110312
0.0136562
-0.000691885
0.0130739
0.00138048
0.000377056
0.0163739
-0.00197388
-0.00207398
0.0166891
-0.00594255
-0.000241143
-0.00638283
0.00102659
0.00167814
0.00572284
0.000167058
0.00317169
0.00267837
0.00327337
-0.00159712
0.000557144
0.00245301
0.000265101
-0.000141719
-0.000458516
0.000793363
-0.000193127
-6.96145e-05
-4.67049e-05
0.000902522
-0.000552123
-4.12389e-06
7.7147e-08
-7.30707e-05
-7.17045e-06
-5.00592e-05
-4.75819e-05
-5.21501e-05
0.0134461
-0.00533838
-0.00582816
-0.00119564
-0.000944495
-0.00103306
-0.000556318
0.0113218
-0.00850265
-0.000162761
0.00886742
-0.00842659
0.00683331
0.00911255
-0.0051123
-0.00106245
0.00691811
-0.0090974
-0.00265017
0.00684223
0.000305573
0.00153656
0.00679511
0.00685093
0.00144249
0.00796694
0.0109048
-0.000215283
0.0121341
0.0079721
0.00151689
0.0151196
-0.00324298
0.00163795
0.0154722
-0.00310969
0.000783222
0.0138266
-0.00435405
5.71655e-05
-0.00515043
-0.000240895
0.0148444
0.0035587
0.000676153
0.00328702
0.00540879
0.000384647
-0.00370752
-0.00101358
-0.00394233
-0.00105202
0.00587428
0.00362708
0.00597806
-0.000864809
0.00130024
-0.000146372
-0.000556755
-0.000882899
-0.000588337
0.00138639
0.00113221
0.00113481
0.00137255
7.1513e-05
-0.000152367
8.08536e-05
0.0214396
0.000977943
-0.0059584
0.00016181
9.29899e-05
-9.89456e-05
-0.000546811
-0.00214439
-0.00541016
-0.00255424
-0.00595939
0.0196721
-0.00586576
0.00229486
0.0213099
-0.00787781
-0.00226266
0.0211542
-0.00654879
-0.00172203
0.0184297
-0.00532453
0.00293672
0.0140413
-0.00228815
-0.00242084
0.0105186
0.00625622
-0.002428
0.00824847
0.010075
-0.000953876
0.0113399
0.00971882
-0.00190546
0.0171551
0.00285245
-0.000695503
0.017418
-0.00554256
0.00203663
0.0146552
-0.00291039
0.00256352
0.0131
-0.00198364
-0.000815165
-0.0037534
-0.000943542
0.0144939
0.00181182
0.000605805
0.0176269
0.00245906
-0.000183371
0.00568776
0.00434957
-0.00142493
-0.00209548
-0.00115854
-0.00211626
-0.0012204
0.00524533
0.00557211
0.00478779
-0.000385493
0.00652244
0.00196728
-0.00116873
-0.000425201
-0.000396233
-0.000426295
-0.000297361
-0.00710021
0.00679537
0.000530158
0.000603327
-0.000134334
-0.000282438
-0.000114515
0.0224613
-0.000547478
-0.00307809
0.000951547
0.000870763
0.000787586
0.00131597
-0.00632184
-0.00512026
-0.00619744
-0.00512202
0.0225019
-0.00104027
0.0019776
0.0200402
-0.00592102
0.00251696
0.0147527
-0.00520551
0.00261516
0.011483
-0.00238861
-0.000890435
0.011941
-0.00489037
-0.000892188
0.0115779
-0.002264
0.000338955
0.0103391
0.00701304
0.000481956
0.0117058
0.00886263
-0.000154391
0.0156977
0.00485169
0.000875236
0.0172319
-0.0005326
0.0018509
0.0141252
-0.00395731
0.00152146
0.0123346
-0.00266292
0.00154307
0.0141065
-0.00182675
-0.00192881
-0.00267437
-0.00201171
0.0142864
0.00131079
-0.000440843
0.0154011
0.00121332
0.00013111
0.0164778
0.00305513
0.000217693
0.0194231
0.00112423
0.00160499
-0.00169577
-0.00169206
-0.00105924
-0.0012274
0.0209472
0.000582909
-0.00300069
-0.000234919
0.000630872
-0.000229116
0.000726871
0.0205254
0.000198433
-0.000324188
0.017932
-0.00186198
0.00341512
0.014767
-0.00439614
0.00164011
0.014794
-0.00251312
-0.00271932
0.0154959
-0.0015332
-0.00155735
0.0130366
-0.00404078
0.00160968
0.0104029
-0.00150786
0.00187757
0.012148
0.00413917
0.00112875
0.0169719
0.0038913
0.000147486
0.0184557
0.00166586
0.00170196
0.0176228
0.000845131
-0.000544752
0.0169883
-0.00133562
-0.00198724
0.0160535
-0.00255366
0.000825525
0.0158005
-0.00323101
0.00165729
-0.00265027
0.000183901
0.0139687
0.00105742
-0.000376839
0.0139692
3.25343e-05
0.00118031
0.015837
0.00201153
-0.000824222
0.0171442
0.00176958
-0.00195255
0.0168279
0.00110201
-0.000202844
0.0168704
-0.00114197
0.00129795
0.0162105
-0.00121605
1.39501e-05
0.0152075
-0.00300671
-0.000386355
0.0149032
-0.00234291
0.000134016
0.0136819
-0.000134377
-0.000177537
0.0118461
-0.00188603
-0.000318934
0.0104727
-0.000133887
-5.42761e-07
0.0126963
0.00180339
0.000112154
0.0156584
0.00171767
-0.000788459
0.0168459
0.00133211
-0.000853701
0.01677
0.0012517
-0.000330723
0.0153074
-0.00041937
0.000546371
0.0140907
-0.000924648
-0.000412312
0.012513
-0.00155077
-0.000102519
-0.00189356
0.000532186
0.0136
0.000764336
2.84129e-05
0.0138642
-0.000181598
-5.00612e-05
0.0148569
0.00137036
-0.000351541
0.0156387
0.00108071
-9.29304e-05
0.0159732
0.000817774
-5.02457e-05
0.0152193
-0.00046103
7.29762e-05
0.0148461
-0.00137019
0.000527325
0.0138288
-0.00193312
-5.62838e-05
0.0128232
-0.00128339
-5.39336e-05
0.0131223
-0.000406297
-2.71495e-05
0.0122146
-0.00116623
0.000187937
0.0116975
-0.000398384
0.000781569
0.0134124
0.000761072
-0.000672555
0.0139491
0.00158645
-0.000405565
0.0148875
0.00109375
-0.000699956
0.0161233
0.000110829
-9.49667e-05
0.0155586
-0.000441462
0.000586775
0.0147108
0.000154602
-0.000231408
0.0140831
-0.000906408
-1.67286e-05
-0.0014584
0.000159438
0.0137858
0.000324222
-1.13446e-05
0.0137065
-5.70651e-05
-4.52144e-05
0.0141267
0.000894206
5.58893e-05
0.0146247
0.00058838
-5.6453e-06
0.0150017
0.000391675
4.91384e-05
0.0149022
-0.000351421
-1.01483e-05
0.014159
-0.000718867
9.18794e-05
0.0136396
-0.00127686
-0.000136819
0.0131883
-0.000851388
1.92527e-05
0.0130263
-0.000374657
0.00013034
0.0125634
-0.000611683
-9.15917e-05
0.0116922
5.91724e-05
0.00041362
0.0124728
0.000580637
-0.000600144
0.0134216
0.000561997
7.56346e-05
0.0137386
0.000843506
-6.67377e-05
0.0136911
0.000504832
-0.000346483
0.0132791
-0.000328777
0.00029924
0.0137745
-0.000227539
-0.00011325
0.0138083
-0.00081567
-0.000124549
-0.000742288
-0.000124773
0.0134723
0.000182045
3.23375e-06
0.0134626
-4.01976e-05
-7.20083e-06
0.0139914
0.000371007
-5.54203e-06
0.0143196
0.000262782
-2.65641e-06
0.0145016
0.000158091
5.16321e-05
0.0142978
-0.000148365
7.19658e-07
0.0139503
-0.000333103
-3.82344e-05
0.01318
-0.000519593
1.30058e-05
0.0127562
-0.000429929
2.32402e-06
0.0125742
-0.000226459
3.3816e-05
0.0122213
-0.000218201
-4.05546e-05
0.0122612
-6.9584e-05
8.88228e-05
0.0127314
0.00019231
-8.18883e-05
0.0129759
0.000368054
-5.05488e-05
0.0134798
0.000321274
1.83183e-05
0.0138733
0.000150935
-3.95903e-05
0.013544
-0.000104618
0.000105186
0.0133011
0.000114721
-9.94148e-05
0.012753
-0.000286779
1.91938e-05
-0.000404725
5.99957e-05
0.0135138
1.5469e-06
0.0134804
-6.77932e-06
0.0138468
4.60571e-06
0.0141061
3.52957e-06
0.0142475
1.6658e-05
0.0141105
-1.13749e-05
0.0137784
-9.9845e-07
0.0132676
-8.78817e-06
0.012832
5.70249e-06
0.0125772
2.82808e-05
0.0123851
-2.60656e-05
0.012259
5.65034e-05
0.0124945
-4.31463e-05
0.0128627
-1.45097e-07
0.0131539
3.00807e-05
0.0133367
-3.19402e-05
0.0132062
2.59135e-05
0.0133324
-1.14659e-05
0.0130484
-2.7462e-06
-2.31224e-06
0.0133765
-4.33688e-05
2.81682e-06
0.0135868
-0.000210732
2.87882e-06
0.0139902
-0.000402499
-2.25491e-05
0.0144911
-0.000499048
-2.31193e-06
0.0145788
-8.7533e-05
1.19051e-05
0.0144237
0.000155687
1.56352e-05
0.0141805
0.000244186
-3.33617e-06
0.0139975
0.000184471
-1.45265e-05
0.0141551
-0.00015497
-1.3371e-05
0.0140943
6.33641e-05
5.72981e-06
0.0138654
0.000230244
-6.22871e-06
0.0136081
0.00025816
-3.07393e-06
0.0130696
0.000538438
-2.09369e-06
0.0126264
0.000442645
-1.15115e-05
0.0121101
0.000517935
1.67385e-05
0.0116758
0.000432465
-7.03011e-06
0.0116148
6.8599e-05
1.09689e-05
0.0118101
-0.000185896
3.26733e-05
0.0123379
-0.00051359
1.71948e-05
-0.000402631
-7.42899e-06
0.0134115
-0.000120895
1.425e-06
0.0136239
-0.000426918
2.74597e-05
0.01401
-0.000786516
-4.25611e-05
0.014649
-0.00113203
-6.33165e-05
0.0146502
-8.5786e-05
1.77529e-05
0.0145329
0.000273828
6.17873e-05
0.0143228
0.000452447
4.01273e-06
0.0141275
0.000380123
-4.66237e-05
0.0142784
-0.000291838
-3.47509e-05
0.0142288
0.000123069
-1.18265e-06
0.0141101
0.000349769
-6.7123e-05
0.0136894
0.000685746
1.89858e-05
0.013024
0.00121338
1.96815e-05
0.0125096
0.000958391
-4.05655e-05
0.0119709
0.00106487
2.7835e-05
0.0115601
0.000836611
1.68107e-05
0.0114863
0.000175927
5.72856e-05
0.0117633
-0.000415395
8.44602e-05
0.0124742
-0.00116573
9.12028e-05
-0.000840148
5.00689e-06
0.0133735
-0.000149534
4.63938e-06
0.013848
-0.000925697
3.70906e-05
0.0146014
-0.0015503
-4.64481e-05
0.0150347
-0.00152051
-0.000140693
0.0151268
-0.00014095
-7.95894e-05
0.0151225
0.000290652
9.53137e-05
0.0145693
0.0010167
9.6357e-05
0.0139614
0.00100227
0.000150229
0.014539
-0.00081715
-0.000187405
0.0147039
2.41201e-05
-0.000243959
0.0142785
0.000819103
8.73077e-05
0.014066
0.000917206
-0.000101057
0.0134821
0.0017473
-9.59602e-05
0.0129402
0.00150637
8.13607e-05
0.0122718
0.00173439
-9.05653e-05
0.01137
0.00168648
-6.92379e-05
0.0113933
0.000308198
0.000285827
0.0118084
-0.000620409
0.000620399
0.0126116
-0.00171717
0.000819746
-0.00119717
0.000235092
0.0134759
-0.000245569
-4.87828e-05
0.014226
-0.00173124
3.60085e-05
0.0146934
-0.00209214
0.000138839
0.0154022
-0.00219293
-6.96421e-05
0.0155807
-0.000192089
-0.000638947
0.0156633
0.000246478
-0.000146205
0.0152697
0.00138187
0.000748428
0.0145672
0.00165616
0.000289094
0.0152468
-0.00137822
-0.000548057
0.0152754
0.00018748
-0.000206774
0.0150878
0.00103936
-0.000575515
0.0148507
0.00124517
0.000198377
0.0138352
0.0029504
-0.000112414
0.0130554
0.00237638
-0.000118646
0.0121791
0.00267136
-0.000385996
0.0109063
0.00302486
0.00024294
0.0106142
0.00080708
0.00118615
0.0113444
-0.00112035
0.000622125
0.013019
-0.00327127
0.00115591
-0.00193871
0.000659142
0.0138296
-0.000635912
5.85044e-05
0.0144639
-0.00238394
0.000194035
0.0163083
-0.00408643
-0.000731126
0.0168928
-0.00280898
0.000117364
0.0162873
0.000842831
-0.000322466
0.0163456
0.000974163
-0.000889636
0.0157637
0.00239037
0.000865713
0.0149975
0.00232345
0.00158547
0.0164827
-0.00255759
0.000250855
0.0165507
0.000580487
-0.000384876
0.0163715
0.00160738
-0.000550557
0.0155635
0.00210892
-0.00112742
0.0134956
0.0047381
-0.000785334
0.0120472
0.00389617
0.000682916
0.011317
0.0035009
0.00103996
0.0102813
0.00366124
0.00168231
0.00970199
0.00123352
-0.00128101
0.0101479
-0.00136554
-0.00114831
0.0121039
-0.00576273
0.0016989
-0.00356174
0.00143368
0.0140201
-0.00119065
0.000303615
0.0153266
-0.00348804
0.000136205
0.0178019
-0.00618359
-0.0017622
0.0183642
-0.00119514
-0.00123468
-0.000648214
-0.0014904
-0.00064945
0.0175926
0.000149371
-0.00040511
0.000723085
7.71775e-05
0.000901305
0.0181771
0.00150141
0.000621707
0.016544
0.00497302
-0.00111047
0.0157162
0.00364498
-0.00112652
0.0190019
-0.00535456
-0.00121267
0.019549
-0.00042408
0.000927625
0.0180259
0.00369351
-0.000190268
0.0168462
0.00431193
5.99641e-05
0.0161113
0.00582504
0.0014702
0.0166862
0.00368916
-0.00110312
0.0151178
0.00533123
-0.00246859
0.0108655
0.00759838
-0.00208676
0.00990422
0.00207335
-0.0018218
0.00986363
-0.00131555
-0.000345956
0.0108562
-0.00727971
-0.000996156
-0.00530137
-0.000224516
0.0142169
-0.00174562
0.00126917
0.0165278
-0.00605401
-0.00260017
0.00511983
-0.0024427
0.000225222
-0.00188727
-0.0029154
-0.00175341
0.00551268
0.0052938
0.0055752
0.000118291
0.00564623
-0.00142892
-0.000410913
0.000280409
-0.00579814
0.00572428
0.000135879
-0.000193064
0.0193291
0.00162248
-0.00137181
0.000566627
0.00152015
0.000659864
-0.00532592
-0.00573623
-0.00536908
-0.00575275
0.0186126
0.00567945
0.00133436
0.0158151
0.00688635
-0.00093435
0.0185619
-0.00698754
-0.00762217
0.0225752
-0.00459684
-0.000823031
0.0218414
0.00392356
0.00283697
0.017249
0.00816419
0.00350568
0.0144461
0.00848667
-0.00147306
0.0142858
0.00454084
-0.00477909
0.012688
0.00777594
0.000171615
0.0109812
0.00958908
1.10009e-05
0.0127606
0.000176319
-0.000119235
0.0123667
-0.00118632
0.000976424
0.0107468
-0.00626738
-0.000154431
-0.00614167
-0.000110365
0.0144412
-0.00272161
-0.000869098
0.00521603
-0.00309655
-0.00222273
0.00374376
0.00549008
0.00328259
-0.00102841
-0.00323632
-2.65592e-05
-0.00298875
0.00528097
-0.00230309
0.00278421
-0.000407722
-0.00148895
0.000538816
0.00166589
-0.000804939
0.000496898
-6.77459e-05
-0.00179371
-7.33669e-05
0.00173476
5.83395e-05
0.000141725
-4.01638e-05
-0.00158104
0.00599521
0.00027737
-0.00141055
-0.00158174
-0.00142849
0.000392639
0.000310755
0.000362979
0.000325499
0.019404
0.00057264
0.00106236
-0.00578237
-0.0023961
-0.00589926
-0.00273161
0.000607862
0.00080606
0.00097571
0.0163138
0.0123696
-0.00837281
0.0147964
-0.00586154
-0.00577702
0.016411
-0.00489318
-0.00342085
0.018933
0.00117892
0.000190824
0.0210709
0.00406142
0.00350579
0.0197805
0.00944762
-0.00175288
0.0156733
0.00895069
-0.00424624
0.0125337
0.00969188
0.00276778
0.0135712
0.00798349
0.00389479
0.0171648
-0.00251029
0.00137827
0.0174731
-0.00116234
-0.000712831
0.014799
-0.00407216
-0.00131024
-0.00575636
0.000314959
0.00499031
-0.00290499
-0.00194526
0.00199807
0.00416639
0.00114654
-0.00231837
0.00478613
-0.00324943
0.00267541
-6.49881e-05
0.000911122
-0.00151387
0.00161182
-0.00111174
0.000167652
-0.00157049
-0.000314209
0.000955916
0.000391445
0.00186677
-0.000230349
-0.000300943
-0.000225491
0.00422253
0.00691219
-0.0017308
-0.000979924
0.000348967
-0.0015469
0.000507002
0.00458144
-0.00934031
0.00407034
0.00624779
-0.00516899
0.000878675
0.0115936
-0.00395596
0.00253801
0.0186706
-0.00240263
0.00137815
0.0177199
0.0104817
0.00085666
0.0151529
0.0109574
0.000973006
0.0152561
0.00934024
0.00108091
0.0151891
0.00888857
-0.00179204
0.0138795
-0.000890666
-0.00169133
0.0126753
-0.000280154
0.00171999
0.0126726
-0.00335149
-0.000552659
-0.00568273
-0.00194172
0.00390335
-0.00252364
-0.00283875
0.00268624
0.00480439
0.000268667
0.00228637
0.00336121
-0.000493463
-0.00497499
0.00116342
0.000733049
0.00139594
0.000431811
-0.000531555
0.000666789
-0.000844081
0.000708846
-3.62877e-05
-0.000163746
-5.21424e-05
9.90759e-05
0.000158842
-5.74167e-06
0.000130807
0.00495975
0.00765281
0.000183887
0.000420625
0.00038932
0.000360776
-4.68562e-05
-0.0102509
0.00573037
0.00234135
-0.00880733
-0.000968801
0.00525056
-0.00729659
0.00211854
0.0110792
-0.00777346
0.000927802
0.0143229
0.00755627
-0.000318422
0.0166085
0.00904734
-0.000151069
0.0164359
0.00995395
-0.00245844
0.0133618
0.0116776
-0.00191432
0.0113321
0.000793799
-0.000154782
0.0118719
-0.00101483
-9.4096e-05
0.014296
-0.00601031
0.00102545
-0.00672385
-0.000286679
0.0012164
0.0024002
-0.00277311
0.0046534
-0.00023709
0.00451329
0.000744282
-0.000947782
0.00174228
-0.000108332
-0.000188407
9.21338e-05
-0.000174521
5.67395e-05
-0.000259876
-0.000304076
-5.11303e-05
0.000336646
0.000278436
0.00857007
0.00310242
-0.00520877
-0.000385321
-0.000698074
-0.000530404
-0.00100887
0.00753971
-0.00963679
0.00793986
0.00317811
-0.0103919
0.00340586
0.00246986
-0.0077831
-0.00362119
0.00653441
-0.0118512
0.00361517
0.0123022
0.00134948
0.00202135
0.0141165
0.00823773
-0.00083365
0.0127299
0.0122316
-0.00289196
0.0119917
0.0120493
-0.000325398
0.0128426
-0.00040648
0.000726513
0.0143888
-0.00272345
-0.00191164
0.0144595
-0.00684408
0.000521995
-0.00663557
0.00144721
0.00309495
0.00574837
-0.00137644
0.00334769
0.00202626
0.00304505
-0.000880468
-0.0019141
0.00201224
0.00241245
0.00146484
0.000546425
-0.000392078
-0.00054147
0.000974124
-0.000587001
-2.22759e-05
-0.00017324
-2.61747e-05
0.000657545
6.35591e-05
7.7034e-05
-0.000140352
-0.000176727
-0.000170089
-3.00003e-05
-2.7454e-05
-3.18262e-05
0.012338
-0.00577018
-0.0042642
-0.00117754
-0.00103774
-0.00146179
-0.00135234
0.0127946
-0.00874618
-0.00150989
0.0114269
-0.00887177
0.00668081
0.00803011
-0.0059278
0.000479041
0.00580537
-0.00971821
-0.00255842
0.00716538
-0.000211706
0.00173773
0.00696118
0.00836058
0.00152384
0.00792877
0.0115989
-0.000550216
0.0118466
0.00773532
0.00191299
0.0152367
-0.00396359
0.00180497
0.0163944
-0.00308196
-1.5943e-05
0.0141866
-0.00413298
-0.000446152
-0.00525525
8.56019e-05
0.0145531
0.00481333
0.000415082
0.00410937
0.00396363
-0.0016389
-0.00339413
-0.000520425
-0.00349178
-5.08137e-05
0.00591023
0.00423837
0.00581223
4.92932e-05
-0.00077601
0.00107008
0.00037872
-0.000694165
-0.000721136
-0.000693108
0.00155026
0.00119548
0.00154422
0.00120574
-0.000224512
0.000197514
-0.000193563
0.000220561
0.0232608
-0.00208583
-0.00694527
0.000258184
-0.000791345
0.000373764
-0.000772035
-0.00302256
-0.00619064
-0.00362628
-0.00641715
0.0231662
-0.0054692
0.0020884
0.0193022
-0.00730595
0.000161116
0.0184994
-0.0059464
-0.00384461
0.0208715
-0.00597286
0.000609764
0.0168583
-0.0049069
-0.00321898
0.0120654
0.00591423
-0.00376109
0.00986457
0.0107417
-0.00113412
0.0115737
0.00944435
-0.00146003
0.0154784
0.00333821
-0.000203063
0.0162948
-0.00543777
0.00269444
0.0154503
-0.00330045
0.00362646
0.0140453
-0.00323228
-0.000310864
-0.00413401
-0.000982714
0.0146151
0.00274292
0.00141409
0.0179451
0.00194419
-0.0014939
0.0057055
0.00505726
-0.00265108
-0.00165367
-0.00150042
-0.00191543
-0.001625
0.00453153
0.0058104
0.00476106
-0.000591218
0.00168666
0.00651967
0.00117886
-0.00118824
-0.000617748
-0.000632181
-0.000650307
-0.000224378
-0.00114344
-0.00705064
0.00671636
0.000318081
0.00164201
-5.11184e-05
-0.00018409
-2.27769e-05
0.0215276
-0.00235208
-0.00355108
0.00084609
0.00161846
0.000637512
0.0017311
-0.00613029
-0.00536651
-0.00621135
-0.00582758
0.0212956
-0.0024484
0.00257223
0.0207918
-0.00439117
0.00194272
0.0176675
-0.00453098
0.00296449
0.013817
-0.00347923
0.000492927
0.0136005
-0.00642885
-0.000219692
0.0116564
-0.00342959
0.000805734
0.00941634
0.00933395
-0.000697725
0.0105865
0.0104995
-0.00108236
0.0142509
0.00496671
0.0016885
0.0168771
0.000618544
0.00194437
0.0160534
-0.00371088
0.000618267
0.0156064
-0.00270699
0.00139669
0.0156264
-0.00345306
-0.00172804
-0.00349848
-0.0019704
0.0140315
0.00167091
-5.58913e-05
0.0154406
0.000764688
-9.84684e-05
0.0172757
0.00365032
-0.000210441
0.0192953
0.0012465
0.000444124
-0.000459375
-0.000798894
-0.000555963
-0.000291037
0.0199502
-0.00069958
-0.00314811
2.75862e-05
0.000382428
-5.00651e-05
-0.000167881
0.0194144
-0.000724095
-0.00141635
0.0190025
-0.00224112
0.00361976
0.0173312
-0.00432993
0.00325018
0.0152161
-0.002653
-0.00248215
0.014226
-0.00141467
-0.00263188
0.0125893
-0.00402006
0.000837595
0.0102254
-0.00277633
0.00358827
0.0108825
0.00720049
0.00260513
0.0150665
0.0063978
6.51211e-05
0.0172899
0.00269186
0.00175343
0.0164381
0.00135507
-0.00042956
0.015379
-0.00219654
-0.00244247
0.0152276
-0.00208944
0.000359448
0.0154158
-0.00332927
0.00134528
-0.00309187
1.8603e-05
0.0138931
0.00100635
-0.000266927
0.014175
0.00037021
0.00129294
0.0162441
0.00203947
-0.00128254
0.01685
0.00136992
-0.00268186
0.0161478
0.000634019
-0.000834234
0.0166308
-0.00121759
0.00130841
0.0161857
-0.00164309
-0.000138909
0.0150524
-0.00285003
-0.000732959
0.0146551
-0.00241764
0.000295901
0.0137097
-0.000565097
-8.17311e-05
0.0118986
-0.00179826
-0.000729607
0.0102286
-0.00126306
0.000156178
0.0125303
0.00371563
0.00129538
0.0157296
0.00268355
-0.000273588
0.0165164
0.00178794
-0.000736556
0.0163923
0.0014744
-0.000325943
0.015373
-0.0012607
0.000629795
0.0136236
-0.000457854
-0.000294507
0.0118291
-0.00143802
-0.000199201
-0.00211319
0.000495441
0.0135997
0.000756464
1.39117e-05
0.0139068
-4.26646e-05
5.57e-05
0.0148986
0.00124079
-0.000544667
0.0155644
0.000946153
-0.000334914
0.0158284
0.000584694
-0.000264922
0.0151739
-0.000386944
-0.000103224
0.0148525
-0.00137037
0.000576042
0.0138695
-0.0018603
-6.30299e-05
0.0128402
-0.00130915
-0.000133134
0.0129373
-0.000657644
-3.16563e-05
0.012129
-0.00100265
0.000200621
0.0116476
-0.000895303
0.00089517
0.0134956
0.00146477
-0.000269644
0.0141461
0.00171689
-8.94733e-05
0.0147833
0.00102367
-0.000572848
0.0160221
0.000316357
-0.000175737
0.0156026
-0.000749196
0.000494833
0.0148897
0.000238866
-0.000215281
0.0143813
-0.000887223
-5.91063e-05
-0.0014053
8.9218e-05
0.0137783
0.000316192
-1.54102e-05
0.0137214
-2.03105e-05
-1.06018e-05
0.0141362
0.000874204
7.64407e-06
0.0146115
0.000553528
-8.82902e-05
0.0149469
0.000316688
-1.83363e-05
0.014893
-0.000324625
-1.84957e-05
0.0142138
-0.000688069
8.87743e-05
0.0136384
-0.00129505
-0.000126698
0.0131886
-0.000857396
1.73213e-05
0.0129971
-0.000456501
0.000120676
0.0125754
-0.000529498
-0.000143086
0.0117153
-7.71044e-05
0.000455538
0.0124795
0.00068019
-0.000579755
0.0135013
0.000642094
0.000128669
0.0137696
0.000771009
-8.24518e-05
0.0136362
0.000537995
-0.000434709
0.0132733
-0.000405572
0.000318498
0.0137289
-0.000174232
-0.000155688
0.0136869
-0.000839101
-0.000130732
-0.00082396
-0.000116907
0.0134711
0.000180424
1.17432e-06
0.0134709
-3.04201e-05
3.18908e-06
0.0139934
0.000361154
-1.50371e-05
0.0143079
0.000255369
-1.89818e-05
0.0144977
0.000139263
3.92084e-05
0.0143087
-0.000134912
8.0858e-08
0.0139564
-0.000332707
-4.13048e-05
0.013176
-0.000511104
9.48796e-06
0.0127575
-0.000436073
-5.57862e-07
0.0125605
-0.000258211
3.25165e-05
0.0122212
-0.000188654
-4.20293e-05
0.0122648
-0.000129429
9.75114e-05
0.0127227
0.000234976
-9.45818e-05
0.0129862
0.000373465
-4.54004e-05
0.0134797
0.000284315
1.1506e-05
0.0138667
0.000175115
-6.37088e-05
0.0135533
-0.000119639
0.000132617
0.0133175
0.000111575
-0.000149397
0.0127654
-0.000281164
1.33139e-05
-0.000403956
4.65336e-05
0.0135138
1.49568e-06
0.0134816
-5.05438e-06
0.0138459
1.55111e-06
0.0141043
4.69247e-07
0.0142468
1.3445e-05
0.0141118
-1.1365e-05
0.0137796
-1.50474e-06
0.0132685
-8.71347e-06
0.0128326
5.52466e-06
0.0125756
2.69967e-05
0.0123862
-2.52297e-05
0.0122574
5.57802e-05
0.0124936
-4.43272e-05
0.0128643
2.62721e-06
0.013153
2.57101e-05
0.0133359
-3.96992e-05
0.013208
3.40788e-05
0.0133327
-2.45457e-05
0.0130491
-3.31798e-07
-3.2624e-06
0.0133757
-3.95096e-05
0.0135881
-0.000209568
0.0139935
-0.000427927
0.0144908
-0.000499608