0 	0 	0 	0
1.57135 	-0.000912938 	0.000848819 	0
3.1427 	-0.00203067 	0.00156211 	0
4.71405 	-0.00345703 	0.00189667 	0
6.28539 	-0.00531756 	0.00164244 	0
7.85674 	-0.00778087 	0.000601525 	0
9.42809 	-0.0114174 	-0.0010582 	0
10.9994 	-0.018644 	-0.00123812 	0
12.5708 	-0.0101767 	-0.0156688 	0
14.1421 	0.5 	0 	0
