/*--------------------------------*- C++ -*----------------------------------*\
  =========                 |
  \\      /  F ield         | OpenFOAM: The Open Source CFD Toolbox
   \\    /   O peration     | Website:  https://openfoam.org
    \\  /    A nd           | Version:  8
     \\/     M anipulation  |
\*---------------------------------------------------------------------------*/
FoamFile
{
    version     2.0;
    format      ascii;
    class       volScalarField;
    location    "6";
    object      T;
}
// * * * * * * * * * * * * * * * * * * * * * * * * * * * * * * * * * * * * * //

dimensions      [0 0 0 1 0 0 0];

internalField   nonuniform List<scalar> 
116
(
1.22536e-08
1.22526e-08
1.22524e-08
1.22523e-08
1.2251e-08
1.22227e-08
1.92847e-07
1.92835e-07
1.92832e-07
1.92832e-07
1.92831e-07
1.92829e-07
2.89108e-06
2.89094e-06
2.8909e-06
2.8909e-06
2.8909e-06
2.8909e-06
3.87007e-05
3.86993e-05
3.8699e-05
3.86989e-05
3.86989e-05
3.86989e-05
0.000455808
0.000455796
0.000455794
0.000455793
0.000455793
0.000455793
0.00463579
0.00463572
0.0046357
0.00463569
0.00463569
0.00463569
0.0397178
0.0397174
0.0397173
0.0397173
0.0397173
0.0397173
0.277024
0.277023
0.277023
0.277023
0.277023
0.277023
1.49671
1.49671
1.49671
1.49671
1.49671
1.49671
5.79942
5.79942
5.79942
5.79942
5.79942
5.79942
1.16426e-08
1.16155e-08
1.16143e-08
1.16143e-08
1.92802e-07
1.928e-07
1.92799e-07
1.92799e-07
2.89089e-06
2.89089e-06
2.8909e-06
2.8909e-06
3.86989e-05
3.86989e-05
3.86989e-05
3.86989e-05
0.000455793
0.000455793
0.000455793
0.000455793
0.00463569
0.00463569
0.00463569
0.00463569
0.0397173
0.0397173
0.0397173
0.0397173
0.277023
0.277023
0.277023
0.277023
1.49671
1.49671
1.49671
1.49671
5.79942
5.79942
5.79942
5.79943
6.82067e-14
6.81327e-14
6.81204e-14
6.81202e-14
1.50734e-12
1.50542e-12
1.50515e-12
1.50515e-12
3.22631e-11
3.22142e-11
3.22087e-11
3.22088e-11
6.39142e-10
6.37962e-10
6.37866e-10
6.37869e-10
)
;

boundaryField
{
    movingWall
    {
        type            fixedValue;
        value           uniform 10;
    }
    fixedWalls
    {
        type            zeroGradient;
    }
    frontAndBack
    {
        type            empty;
    }
}


// ************************************************************************* //
