/*--------------------------------*- C++ -*----------------------------------*\
  =========                 |
  \\      /  F ield         | OpenFOAM: The Open Source CFD Toolbox
   \\    /   O peration     | Website:  https://openfoam.org
    \\  /    A nd           | Version:  8
     \\/     M anipulation  |
\*---------------------------------------------------------------------------*/
FoamFile
{
    version     2.0;
    format      ascii;
    class       surfaceScalarField;
    location    "77";
    object      phi;
}
// * * * * * * * * * * * * * * * * * * * * * * * * * * * * * * * * * * * * * //

dimensions      [0 3 -1 0 0 0 0];

internalField   nonuniform List<scalar> 
760
(
0.0004
5.14112e-20
0.0004
5.33746e-20
0.0004
2.03647e-20
0.0004
-1.28475e-20
0.0004
6.23578e-20
0.0004
1.08769e-19
0.0004
8.20241e-20
0.0004
8.75678e-20
0.0004
2.70851e-20
0.0004
3.87336e-20
0.0004
4.92841e-20
0.0004
-5.06162e-20
0.0004
-8.94864e-20
0.0004
-1.16833e-20
0.0004
-9.2183e-21
0.0004
-5.66173e-20
0.0004
-4.10287e-20
0.0004
-7.41899e-20
0.0004
-9.29274e-20
-1.24055e-19
0.0004
4.90685e-20
0.0004
5.97774e-20
0.0004
6.41918e-21
0.0004
3.60596e-20
0.0004
5.0314e-20
0.0004
9.4903e-20
0.0004
7.34978e-20
0.0004
2.61117e-20
0.0004
7.8506e-20
0.0004
3.95688e-20
0.0004
5.44319e-21
0.0004
-9.40077e-21
0.0004
-5.04899e-20
0.0004
-4.39669e-20
0.0004
1.04353e-20
0.0004
-4.58179e-20
0.0004
-1.83486e-20
0.0004
-8.26208e-20
0.0004
-1.16657e-19
-1.31516e-19
0.0004
-4.82772e-20
0.0004
4.21781e-20
0.0004
1.07954e-19
0.0004
1.19063e-19
0.0004
2.2391e-20
0.0004
9.45271e-21
0.0004
3.86708e-20
0.0004
2.91325e-20
0.0004
5.77989e-20
0.0004
5.29786e-20
0.0004
-1.51245e-21
0.0004
5.92878e-21
0.0004
-5.69344e-21
0.0004
-2.29297e-20
0.0004
-5.54575e-20
0.0004
-3.42367e-20
0.0004
-5.04244e-20
0.0004
-1.06124e-19
0.0004
-1.25246e-19
-1.29544e-19
0.0004
-3.28829e-20
0.0004
4.09325e-20
0.0004
6.07046e-20
0.0004
5.21397e-20
0.0004
8.98556e-20
0.0004
3.64157e-20
0.0004
1.13358e-20
0.0004
-1.49873e-20
0.0004
2.56622e-20
0.0004
6.95888e-20
0.0004
2.6335e-20
0.0004
3.50575e-20
0.0004
8.96998e-21
0.0004
-3.38018e-20
0.0004
-3.05102e-20
0.0004
-1.49781e-20
0.0004
-7.18344e-20
0.0004
-1.42471e-19
0.0004
-1.32717e-19
-1.1325e-19
0.0004
1.59282e-20
0.0004
3.76038e-20
0.0004
6.76461e-20
0.0004
4.5597e-20
0.0004
3.76788e-20
0.0004
3.86901e-20
0.0004
-1.81649e-20
0.0004
2.55245e-21
0.0004
9.25763e-21
0.0004
2.00817e-20
0.0004
3.1759e-20
0.0004
2.53911e-20
0.0004
2.38956e-20
0.0004
-6.60319e-20
0.0004
-5.8675e-20
0.0004
-7.37467e-20
0.0004
-1.09281e-19
0.0004
-8.68977e-20
0.0004
-8.131e-20
-1.07537e-19
0.0004
7.93137e-20
0.0004
6.58799e-20
0.0004
7.24638e-20
0.0004
2.89898e-20
0.0004
-1.68534e-20
0.0004
-1.31212e-20
0.0004
1.59651e-20
0.0004
1.98031e-20
0.0004
-3.17966e-21
0.0004
-2.2012e-20
0.0004
-5.29037e-20
0.0004
-1.50351e-20
0.0004
-9.07719e-21
0.0004
-9.00905e-20
0.0004
-9.33935e-20
0.0004
-2.43171e-20
0.0004
-9.97773e-20
0.0004
-7.20341e-20
0.0004
-1.18649e-19
-1.53185e-19
0.0004
5.9465e-20
0.0004
8.5063e-20
0.0004
9.12926e-20
0.0004
1.09576e-20
0.0004
2.48265e-20
0.0004
-5.83006e-21
0.0004
-3.81262e-21
0.0004
4.71725e-20
0.0004
-3.49969e-21
0.0004
-6.67337e-20
0.0004
-9.11516e-20
0.0004
-1.00086e-19
0.0004
-7.66414e-20
0.0004
-5.65037e-20
0.0004
-8.09176e-20
0.0004
-1.0227e-19
0.0004
-3.80348e-20
0.0004
-4.84961e-20
0.0004
-7.29062e-20
-1.13714e-19
0.0004
5.76664e-20
0.0004
4.56898e-20
0.0004
5.47382e-20
0.0004
6.0885e-20
0.0004
2.90984e-20
0.0004
6.91602e-20
0.0004
-4.58171e-21
0.0004
1.29371e-20
0.0004
-7.7911e-20
0.0004
-1.34018e-19
0.0004
-1.00049e-19
0.0004
-7.12185e-20
0.0004
-1.1027e-19
0.0004
-6.9671e-20
0.0004
-1.18418e-19
0.0004
-1.24417e-19
0.0004
-6.12969e-20
0.0004
-4.71721e-20
0.0004
-8.24843e-20
-8.04893e-20
0.0004
-2.13417e-20
0.0004
7.05517e-20
0.0004
1.95865e-20
0.0004
3.74032e-20
0.0004
7.99867e-20
0.0004
2.69507e-20
0.0004
3.66218e-20
0.0004
-4.35349e-20
0.0004
-1.22762e-19
0.0004
-1.32626e-19
0.0004
-7.61117e-20
0.0004
-6.4846e-20
0.0004
-6.37553e-20
0.0004
-1.27225e-19
0.0004
-1.03147e-19
0.0004
-7.28856e-20
0.0004
-4.41095e-20
0.0004
-4.16361e-20
0.0004
-5.29474e-20
-4.01015e-20
0.0004
-2.8024e-20
0.0004
-3.22547e-20
0.0004
-1.24333e-21
0.0004
5.802e-20
0.0004
7.11333e-20
0.0004
7.76392e-20
0.0004
3.57743e-20
0.0004
-5.90141e-20
0.0004
-1.16099e-19
0.0004
-1.56499e-19
0.0004
-7.28553e-20
0.0004
-1.23572e-19
0.0004
-9.41353e-20
0.0004
-7.76005e-20
0.0004
-7.40113e-20
0.0004
-3.43894e-20
0.0004
-1.75747e-20
0.0004
-4.1594e-20
0.0004
-2.72496e-20
-9.79981e-22
0.0004
-4.01711e-20
0.0004
-3.05875e-20
0.0004
-8.56245e-22
0.0004
4.98809e-20
0.0004
5.62636e-20
0.0004
7.4944e-22
0.0004
-3.04159e-20
0.0004
-8.67718e-20
0.0004
-8.67691e-20
0.0004
-6.74344e-20
0.0004
-9.52611e-20
0.0004
-6.80448e-20
0.0004
-1.33987e-19
0.0004
-8.90567e-20
0.0004
-7.2358e-20
0.0004
-2.89002e-22
0.0004
-5.53097e-20
0.0004
-6.14676e-20
0.0004
-1.44423e-20
7.85946e-21
0.0004
-9.45116e-21
0.0004
-1.97197e-20
0.0004
-4.26034e-20
0.0004
-2.07214e-20
0.0004
-2.17661e-20
0.0004
2.51397e-21
0.0004
-4.43208e-20
0.0004
-1.06103e-19
0.0004
-9.80529e-20
0.0004
-6.32387e-20
0.0004
-9.86481e-20
0.0004
-6.98413e-20
0.0004
-2.40104e-20
0.0004
-5.94225e-20
0.0004
-3.8001e-20
0.0004
-7.93241e-21
0.0004
-8.76608e-20
0.0004
-4.16864e-20
0.0004
1.17285e-21
-6.23974e-20
0.0004
-1.64897e-20
0.0004
1.09174e-21
0.0004
5.972e-21
0.0004
-5.40312e-21
0.0004
-4.05882e-20
0.0004
-7.91193e-21
0.0004
-8.41408e-20
0.0004
-1.599e-19
0.0004
-1.18679e-19
0.0004
-1.23324e-19
0.0004
-9.33594e-20
0.0004
-7.96566e-20
0.0004
-2.3266e-20
0.0004
1.83733e-20
0.0004
-4.09463e-21
0.0004
-8.72523e-20
0.0004
-6.45713e-20
0.0004
-5.81537e-20
0.0004
-2.23113e-20
-2.6222e-20
0.0004
-3.26022e-20
0.0004
1.73138e-20
0.0004
2.19106e-20
0.0004
-1.9509e-20
0.0004
-4.59123e-20
0.0004
-8.1475e-20
0.0004
-5.5021e-20
0.0004
-8.52494e-20
0.0004
-5.96469e-20
0.0004
-1.19436e-19
0.0004
-1.08546e-19
0.0004
-5.25385e-20
0.0004
-7.8232e-20
0.0004
-3.75624e-20
0.0004
-8.14684e-21
0.0004
-3.83304e-20
0.0004
-4.64714e-20
0.0004
-6.73045e-20
0.0004
-8.7881e-20
-2.59288e-20
0.0004
2.90359e-20
0.0004
5.31893e-21
0.0004
8.1804e-21
0.0004
-6.42273e-20
0.0004
-4.95709e-20
0.0004
-7.60316e-20
0.0004
-9.68409e-20
0.0004
-5.5524e-20
0.0004
-7.69336e-20
0.0004
-6.19292e-20
0.0004
-7.75777e-20
0.0004
-7.88066e-20
0.0004
-6.96594e-20
0.0004
-4.82823e-20
0.0004
-4.20887e-20
0.0004
-9.00235e-21
0.0004
-4.92426e-20
0.0004
-4.973e-20
0.0004
-4.93933e-20
-3.17999e-20
0.0004
-6.59131e-21
0.0004
-2.25018e-20
0.0004
-3.1996e-20
0.0004
1.40071e-20
0.0004
-7.58699e-20
0.0004
-1.09654e-19
0.0004
-5.68662e-20
0.0004
4.32285e-20
0.0004
-1.42356e-20
0.0004
-6.72372e-20
0.0004
-1.0646e-19
0.0004
-8.1567e-20
0.0004
-8.28671e-20
0.0004
-5.79578e-20
0.0004
-1.16809e-21
0.0004
-2.19596e-21
0.0004
-1.39011e-20
0.0004
-2.60838e-20
0.0004
2.28984e-20
2.41017e-20
0.0004
1.83257e-20
0.0004
-7.01714e-22
0.0004
-4.17125e-20
0.0004
-2.93104e-20
0.0004
-3.67809e-20
0.0004
-7.70213e-20
0.0004
-9.78161e-20
0.0004
-2.9099e-20
0.0004
5.55823e-21
0.0004
-7.31204e-20
0.0004
-1.1118e-19
0.0004
-1.49342e-19
0.0004
-1.61427e-20
0.0004
3.77133e-21
0.0004
4.58094e-20
0.0004
-8.14142e-21
0.0004
-3.89022e-20
0.0004
1.25573e-21
0.0004
2.30118e-20
3.75746e-20
0.0004
2.07064e-21
0.0004
-2.06387e-20
0.0004
1.44759e-20
0.0004
2.71406e-20
0.0004
-1.2993e-20
0.0004
-6.89164e-20
0.0004
-1.35477e-19
0.0004
-1.0594e-19
0.0004
-4.36561e-20
0.0004
-7.21906e-20
0.0004
-7.41221e-20
0.0004
-3.33464e-20
0.0004
1.54452e-20
0.0004
5.28535e-20
0.0004
-5.55489e-21
0.0004
-2.78347e-20
0.0004
-1.55214e-21
0.0004
5.44976e-21
0.0004
1.73813e-20
8.95547e-21
0.0004
-1.93237e-21
0.0004
-1.51144e-20
0.0004
1.31737e-20
0.0004
3.20017e-20
0.0004
-1.63541e-22
0.0004
-5.4272e-20
0.0004
-9.03581e-20
0.0004
-1.15037e-19
0.0004
-1.15568e-19
0.0004
-5.85901e-20
0.0004
-3.82865e-20
0.0004
-2.45826e-20
0.0004
3.99735e-20
0.0004
8.16378e-20
0.0004
4.47269e-20
0.0004
-1.62963e-20
0.0004
-1.07941e-20
0.0004
-1.16821e-20
0.0004
-2.00749e-20
3.12806e-23
0.0004
0.0004
0.0004
0.0004
0.0004
0.0004
0.0004
0.0004
0.0004
0.0004
0.0004
0.0004
0.0004
0.0004
0.0004
0.0004
0.0004
0.0004
0.0004
)
;

boundaryField
{
    inlet
    {
        type            calculated;
        value           nonuniform List<scalar> 
20
(
-0.0004
-0.0004
-0.0004
-0.0004
-0.0004
-0.0004
-0.0004
-0.0004
-0.0004
-0.0004
-0.0004
-0.0004
-0.0004
-0.0004
-0.0004
-0.0004
-0.0004
-0.0004
-0.0004
-0.0004
)
;
    }
    outlet
    {
        type            calculated;
        value           nonuniform List<scalar> 
20
(
0.0004
0.0004
0.0004
0.0004
0.0004
0.0004
0.0004
0.0004
0.0004
0.0004
0.0004
0.0004
0.0004
0.0004
0.0004
0.0004
0.0004
0.0004
0.0004
0.0004
)
;
    }
    up
    {
        type            calculated;
        value           nonuniform List<scalar> 
20
(
1.15173e-22
6.48847e-22
9.71064e-21
1.54776e-20
-2.90315e-21
-4.43849e-20
-9.25016e-20
-1.01659e-19
-9.62948e-20
-8.9183e-20
-5.68022e-20
-3.10077e-20
1.3761e-20
5.2893e-20
5.60377e-20
2.57169e-20
2.02878e-20
-1.95851e-21
9.5734e-21
2.59083e-20
)
;
    }
    down
    {
        type            calculated;
        value           nonuniform List<scalar> 
20
(
-1.1484e-20
-4.81003e-20
-3.68229e-20
-1.11759e-21
-3.69054e-20
-5.41423e-20
-6.55793e-20
-8.1873e-20
-7.1651e-20
-5.53871e-20
-2.07232e-20
4.90808e-21
4.78419e-20
2.05693e-20
1.42767e-20
4.65871e-20
6.87082e-20
6.76366e-20
8.13181e-20
1.28761e-19
)
;
    }
    frontAndBack
    {
        type            empty;
        value           nonuniform List<scalar> 0();
    }
}


// ************************************************************************* //
