/*--------------------------------*- C++ -*----------------------------------*\
  =========                 |
  \\      /  F ield         | OpenFOAM: The Open Source CFD Toolbox
   \\    /   O peration     | Website:  https://openfoam.org
    \\  /    A nd           | Version:  8
     \\/     M anipulation  |
\*---------------------------------------------------------------------------*/
FoamFile
{
    version     2.0;
    format      ascii;
    class       surfaceScalarField;
    location    "1.92";
    object      phi;
}
// * * * * * * * * * * * * * * * * * * * * * * * * * * * * * * * * * * * * * //

dimensions      [0 3 -1 0 0 0 0];

internalField   nonuniform List<scalar> 
760
(
1.24971e-06
-2.48487e-21
1.24971e-06
-2.19565e-21
1.24971e-06
-1.6092e-21
1.24971e-06
-4.66139e-22
1.24971e-06
-3.83342e-22
1.24971e-06
1.10569e-22
1.24971e-06
5.98733e-22
1.24971e-06
7.05933e-22
1.24971e-06
7.54917e-22
1.24971e-06
8.52618e-22
1.24971e-06
1.04152e-21
1.24971e-06
1.07434e-21
1.24971e-06
1.01421e-21
1.24971e-06
7.41799e-22
1.24971e-06
4.54286e-22
1.24971e-06
4.81352e-22
1.24971e-06
6.5071e-22
1.24971e-06
3.14435e-22
1.24971e-06
-6.72016e-22
-1.5796e-21
3.74914e-06
-4.38768e-21
3.74914e-06
-4.00486e-21
3.74914e-06
-2.97154e-21
3.74914e-06
-2.32054e-21
3.74914e-06
-1.38508e-21
3.74914e-06
-3.70337e-22
3.74914e-06
9.49324e-22
3.74914e-06
1.42186e-21
3.74914e-06
1.83627e-21
3.74914e-06
2.50044e-21
3.74914e-06
2.59965e-21
3.74914e-06
2.04821e-21
3.74914e-06
1.86672e-21
3.74914e-06
1.78247e-21
3.74914e-06
1.28991e-21
3.74914e-06
1.07594e-21
3.74914e-06
1.23761e-21
3.74914e-06
9.49752e-23
3.74914e-06
-1.08463e-21
-3.33513e-21
6.2486e-06
-4.29723e-21
6.2486e-06
-4.94051e-21
6.2486e-06
-3.66503e-21
6.2486e-06
-2.84243e-21
6.2486e-06
-1.73641e-21
6.2486e-06
-1.04972e-21
6.2486e-06
-6.53217e-23
6.2486e-06
9.59244e-22
6.2486e-06
1.99442e-21
6.2486e-06
2.90994e-21
6.2486e-06
3.5471e-21
6.2486e-06
2.75044e-21
6.2486e-06
1.82642e-21
6.2486e-06
1.4264e-21
6.2486e-06
1.87824e-21
6.2486e-06
1.5331e-21
6.2486e-06
1.88009e-21
6.2486e-06
1.57809e-22
6.2486e-06
-1.90866e-21
-2.73283e-21
8.74808e-06
-4.1757e-21
8.74808e-06
-4.72073e-21
8.74808e-06
-3.63201e-21
8.74808e-06
-2.47229e-21
8.74808e-06
-2.43201e-21
8.74808e-06
-1.86029e-21
8.74808e-06
-5.17074e-22
8.74808e-06
1.26624e-21
8.74808e-06
2.60951e-21
8.74808e-06
2.80716e-21
8.74808e-06
1.67448e-21
8.74808e-06
1.39986e-21
8.74808e-06
1.51056e-21
8.74808e-06
1.49599e-21
8.74808e-06
2.02129e-21
8.74808e-06
2.23388e-21
8.74808e-06
1.75308e-21
8.74808e-06
1.97867e-21
8.74808e-06
1.81944e-22
-3.04201e-21
1.12476e-05
-3.22013e-21
1.12476e-05
-3.9909e-21
1.12476e-05
-3.84912e-21
1.12476e-05
-3.14196e-21
1.12476e-05
-2.89722e-21
1.12476e-05
-2.35698e-21
1.12476e-05
-1.78436e-21
1.12476e-05
3.21269e-22
1.12476e-05
6.89712e-22
1.12476e-05
5.233e-22
1.12476e-05
1.03266e-21
1.12476e-05
3.25736e-22
1.12476e-05
8.67942e-22
1.12476e-05
1.6181e-21
1.12476e-05
1.95997e-21
1.12476e-05
3.61894e-21
1.12476e-05
4.50068e-21
1.12476e-05
1.94817e-21
1.12476e-05
1.68656e-21
-1.2017e-21
1.37472e-05
-4.36319e-21
1.37472e-05
-3.17146e-21
1.37472e-05
-4.53866e-21
1.37472e-05
-5.06329e-21
1.37472e-05
-3.9291e-21
1.37472e-05
-3.20387e-21
1.37472e-05
-1.98212e-21
1.37472e-05
-1.58782e-21
1.37472e-05
5.91262e-22
1.37472e-05
3.59756e-22
1.37472e-05
3.21052e-22
1.37472e-05
-2.83552e-22
1.37472e-05
-6.54419e-22
1.37472e-05
2.19193e-21
1.37472e-05
5.53986e-21
1.37472e-05
5.59973e-21
1.37472e-05
4.33017e-21
1.37472e-05
4.77612e-21
1.37472e-05
2.12104e-21
-1.56826e-21
1.62469e-05
-1.49701e-21
1.62469e-05
-4.64019e-21
1.62469e-05
-4.07541e-21
1.62469e-05
-4.56864e-21
1.62469e-05
-4.28444e-21
1.62469e-05
-3.69131e-21
1.62469e-05
-2.70105e-21
1.62469e-05
-1.18747e-21
1.62469e-05
-1.60344e-21
1.62469e-05
-3.47358e-22
1.62469e-05
-1.77156e-21
1.62469e-05
-2.08151e-21
1.62469e-05
1.69781e-22
1.62469e-05
3.55214e-21
1.62469e-05
4.96051e-21
1.62469e-05
5.57429e-21
1.62469e-05
6.70429e-21
1.62469e-05
6.7932e-21
1.62469e-05
2.70123e-21
-8.00535e-22
1.87466e-05
-2.50755e-21
1.87466e-05
-2.54916e-21
1.87466e-05
-5.44875e-21
1.87466e-05
-6.5866e-21
1.87466e-05
-6.38758e-21
1.87466e-05
-4.88521e-21
1.87466e-05
-3.0727e-21
1.87466e-05
-2.49709e-21
1.87466e-05
-3.48014e-21
1.87466e-05
-4.04067e-21
1.87466e-05
-3.12439e-21
1.87466e-05
2.46653e-22
1.87466e-05
2.78493e-21
1.87466e-05
4.95445e-21
1.87466e-05
6.19263e-21
1.87466e-05
8.47715e-21
1.87466e-05
5.22685e-21
1.87466e-05
3.89225e-21
1.87466e-05
5.0901e-21
1.37304e-21
2.12464e-05
3.91328e-21
2.12464e-05
-2.70072e-21
2.12464e-05
-4.61783e-21
2.12464e-05
-7.58765e-21
2.12464e-05
-7.52252e-21
2.12464e-05
-4.71953e-21
2.12464e-05
-5.69374e-21
2.12464e-05
-5.30051e-21
2.12464e-05
-4.45175e-21
2.12464e-05
-3.94051e-21
2.12464e-05
-2.30626e-21
2.12464e-05
6.36988e-22
2.12464e-05
1.25283e-21
2.12464e-05
5.05411e-21
2.12464e-05
7.43692e-21
2.12464e-05
5.06127e-21
2.12464e-05
3.96295e-21
2.12464e-05
4.86672e-21
2.12464e-05
3.99715e-21
6.60214e-21
2.37463e-05
2.83636e-21
2.37463e-05
1.12036e-21
2.37463e-05
-3.29711e-21
2.37463e-05
-6.54184e-21
2.37463e-05
-1.10992e-20
2.37463e-05
-8.81514e-21
2.37463e-05
-5.97713e-21
2.37463e-05
-4.38215e-21
2.37463e-05
-4.42142e-21
2.37463e-05
-3.25561e-21
2.37463e-05
-2.12777e-21
2.37463e-05
-2.36516e-23
2.37463e-05
2.38629e-21
2.37463e-05
5.47255e-21
2.37463e-05
5.34569e-21
2.37463e-05
6.81621e-21
2.37463e-05
4.51555e-21
2.37463e-05
4.57389e-21
2.37463e-05
5.05834e-21
5.52095e-21
2.62463e-05
2.18013e-21
2.62463e-05
-7.6821e-22
2.62463e-05
-2.82552e-21
2.62463e-05
-6.2515e-21
2.62463e-05
-5.30033e-21
2.62463e-05
-5.54775e-21
2.62463e-05
-6.95002e-21
2.62463e-05
-7.98593e-21
2.62463e-05
-4.53567e-21
2.62463e-05
-4.93661e-21
2.62463e-05
-2.12794e-21
2.62463e-05
3.91297e-21
2.62463e-05
8.21102e-21
2.62463e-05
4.52608e-21
2.62463e-05
5.451e-21
2.62463e-05
3.13187e-21
2.62463e-05
7.65444e-21
2.62463e-05
4.58789e-21
2.62463e-05
5.57437e-21
2.77857e-21
2.87464e-05
1.60398e-23
2.87464e-05
6.29373e-23
2.87464e-05
-3.54986e-21
2.87464e-05
-7.4283e-21
2.87464e-05
-5.435e-21
2.87464e-05
-1.02828e-20
2.87464e-05
-7.5962e-21
2.87464e-05
-5.26536e-21
2.87464e-05
-6.485e-21
2.87464e-05
-5.12337e-21
2.87464e-05
9.52447e-22
2.87464e-05
3.87652e-21
2.87464e-05
1.00757e-20
2.87464e-05
9.24907e-21
2.87464e-05
8.79607e-21
2.87464e-05
5.40373e-21
2.87464e-05
2.66661e-21
2.87464e-05
7.50962e-21
2.87464e-05
3.65084e-21
-5.56358e-22
3.12466e-05
-3.29914e-21
3.12466e-05
-3.91316e-21
3.12466e-05
-8.06172e-21
3.12466e-05
-5.6357e-21
3.12466e-05
-9.23289e-21
3.12466e-05
-1.16691e-20
3.12466e-05
-1.31133e-20
3.12466e-05
-1.01494e-20
3.12466e-05
-7.1009e-21
3.12466e-05
5.62049e-22
3.12466e-05
5.72108e-21
3.12466e-05
1.22902e-20
3.12466e-05
1.46465e-20
3.12466e-05
1.50842e-20
3.12466e-05
1.19643e-20
3.12466e-05
1.14592e-20
3.12466e-05
8.10302e-21
3.12466e-05
2.65273e-21
3.12466e-05
-3.29318e-22
3.33823e-22
3.37469e-05
-2.00496e-21
3.37469e-05
-8.56136e-21
3.37469e-05
-9.27801e-21
3.37469e-05
-1.02757e-20
3.37469e-05
-6.93303e-21
3.37469e-05
-7.49088e-21
3.37469e-05
-1.19823e-20
3.37469e-05
-9.65608e-21
3.37469e-05
-3.47994e-21
3.37469e-05
-2.0891e-22
3.37469e-05
5.70459e-21
3.37469e-05
1.20809e-20
3.37469e-05
1.45982e-20
3.37469e-05
1.60202e-20
3.37469e-05
1.56772e-20
3.37469e-05
1.07819e-20
3.37469e-05
8.23868e-21
3.37469e-05
3.29351e-21
3.37469e-05
1.11017e-22
-1.14684e-21
3.62472e-05
-6.53427e-21
3.62472e-05
-9.20862e-21
3.62472e-05
-7.58599e-21
3.62472e-05
-7.19233e-21
3.62472e-05
-8.81455e-21
3.62472e-05
-1.17715e-20
3.62472e-05
-1.29948e-20
3.62472e-05
-1.35426e-20
3.62472e-05
-7.3689e-21
3.62472e-05
2.49427e-21
3.62472e-05
9.16881e-21
3.62472e-05
1.23644e-20
3.62472e-05
1.72343e-20
3.62472e-05
1.36223e-20
3.62472e-05
1.20709e-20
3.62472e-05
1.05596e-20
3.62472e-05
8.71719e-21
3.62472e-05
7.05809e-21
3.62472e-05
5.90079e-21
-4.42175e-22
3.87476e-05
-4.40202e-21
3.87476e-05
-4.50461e-21
3.87476e-05
-4.93223e-21
3.87476e-05
-4.40164e-21
3.87476e-05
-6.56587e-21
3.87476e-05
-9.86883e-21
3.87476e-05
-1.61784e-20
3.87476e-05
-1.18689e-20
3.87476e-05
-5.13509e-21
3.87476e-05
1.52783e-21
3.87476e-05
8.27596e-21
3.87476e-05
1.05302e-20
3.87476e-05
1.22799e-20
3.87476e-05
1.4772e-20
3.87476e-05
1.13665e-20
3.87476e-05
8.28089e-21
3.87476e-05
7.33052e-21
3.87476e-05
2.15685e-21
3.87476e-05
1.86946e-21
2.70637e-22
4.12481e-05
-5.39707e-21
4.12481e-05
-4.96093e-21
4.12481e-05
-5.7486e-21
4.12481e-05
-3.26149e-21
4.12481e-05
-6.99215e-21
4.12481e-05
-1.25445e-20
4.12481e-05
-1.10601e-20
4.12481e-05
-9.41147e-21
4.12481e-05
-1.83686e-21
4.12481e-05
4.46234e-22
4.12481e-05
4.80298e-21
4.12481e-05
9.59638e-21
4.12481e-05
7.7051e-21
4.12481e-05
9.11804e-21
4.12481e-05
1.17108e-20
4.12481e-05
1.07362e-20
4.12481e-05
2.88495e-21
4.12481e-05
-5.21671e-22
4.12481e-05
-1.97546e-21
-2.8375e-21
4.37486e-05
-9.32082e-22
4.37486e-05
-3.96417e-21
4.37486e-05
1.9945e-21
4.37486e-05
3.51637e-21
4.37486e-05
-3.06899e-21
4.37486e-05
-8.636e-21
4.37486e-05
-1.63958e-20
4.37486e-05
-1.53357e-20
4.37486e-05
-1.75926e-21
4.37486e-05
2.64763e-21
4.37486e-05
6.39297e-22
4.37486e-05
7.896e-21
4.37486e-05
9.07246e-21
4.37486e-05
4.95119e-21
4.37486e-05
3.19644e-22
4.37486e-05
1.87295e-21
4.37486e-05
2.24143e-21
4.37486e-05
4.09991e-21
4.37486e-05
4.99943e-21
2.27922e-21
4.62491e-05
3.17628e-21
4.62491e-05
-4.41233e-21
4.62491e-05
-4.1046e-22
4.62491e-05
7.36751e-21
4.62491e-05
8.26819e-22
4.62491e-05
-3.32129e-21
4.62491e-05
-7.60784e-21
4.62491e-05
-1.07071e-20
4.62491e-05
-5.30238e-21
4.62491e-05
9.97294e-22
4.62491e-05
5.17087e-21
4.62491e-05
-1.47007e-21
4.62491e-05
3.01489e-21
4.62491e-05
7.97036e-21
4.62491e-05
1.58147e-22
4.62491e-05
4.4039e-21
4.62491e-05
3.40453e-21
4.62491e-05
3.48873e-21
4.62491e-05
1.70304e-21
4.42149e-21
4.87497e-05
4.87497e-05
4.87497e-05
4.87497e-05
4.87497e-05
4.87497e-05
4.87497e-05
4.87497e-05
4.87497e-05
4.87497e-05
4.87497e-05
4.87497e-05
4.87497e-05
4.87497e-05
4.87497e-05
4.87497e-05
4.87497e-05
4.87497e-05
4.87497e-05
)
;

boundaryField
{
    movingWall
    {
        type            calculated;
        value           uniform 0;
    }
    fixedWalls
    {
        type            calculated;
        value           uniform 0;
    }
    left
    {
        type            cyclic;
        value           nonuniform List<scalar> 
20
(
-3.87476e-05
-3.62472e-05
-3.37469e-05
-3.12466e-05
-2.87464e-05
-2.62463e-05
-2.37463e-05
-2.12464e-05
-1.87466e-05
-1.62469e-05
-1.37472e-05
-1.12476e-05
-8.74808e-06
-6.2486e-06
-3.74914e-06
-1.24971e-06
-4.12481e-05
-4.37486e-05
-4.62491e-05
-4.87497e-05
)
;
    }
    right
    {
        type            cyclic;
        value           nonuniform List<scalar> 
20
(
3.87476e-05
3.62472e-05
3.37469e-05
3.12466e-05
2.87464e-05
2.62463e-05
2.37463e-05
2.12464e-05
1.87466e-05
1.62469e-05
1.37472e-05
1.12476e-05
8.74808e-06
6.2486e-06
3.74914e-06
1.24971e-06
4.12481e-05
4.37486e-05
4.62491e-05
4.87497e-05
)
;
    }
    frontAndBack
    {
        type            empty;
        value           nonuniform List<scalar> 0();
    }
}


// ************************************************************************* //
