/*--------------------------------*- C++ -*----------------------------------*\
  =========                 |
  \\      /  F ield         | OpenFOAM: The Open Source CFD Toolbox
   \\    /   O peration     | Website:  https://openfoam.org
    \\  /    A nd           | Version:  8
     \\/     M anipulation  |
\*---------------------------------------------------------------------------*/
FoamFile
{
    version     2.0;
    format      ascii;
    class       volScalarField;
    location    "23.5";
    object      p;
}
// * * * * * * * * * * * * * * * * * * * * * * * * * * * * * * * * * * * * * //

dimensions      [0 2 -2 0 0 0 0];

internalField   nonuniform List<scalar> 
11600
(
-1.09586e-08
-5.13586e-07
-2.52732e-07
3.92704e-07
1.53091e-06
3.11862e-06
5.14895e-06
7.62e-06
1.05308e-05
1.38808e-05
1.76705e-05
2.19006e-05
2.65727e-05
3.16887e-05
3.72506e-05
4.32608e-05
4.97216e-05
5.66353e-05
6.40045e-05
7.18317e-05
8.01197e-05
8.88712e-05
9.80892e-05
0.000107777
0.000117937
0.000128572
0.000139685
0.00015128
0.000163357
0.000175921
0.000188973
0.000202517
0.000216554
0.000231088
0.00024612
0.000261652
0.000277686
0.000294224
0.000311266
0.000328814
0.00034687
0.000365434
0.000384508
0.000404094
0.000424193
0.000444809
0.000465944
0.000487602
0.000509789
0.000532512
0.000555782
0.000579613
0.000604024
0.000629039
0.000654686
0.000681041
0.000708233
0.000734797
0.000768941
0.000784706
-3.46359e-08
-3.78596e-07
-3.30994e-09
6.85613e-07
1.84466e-06
3.44252e-06
5.47736e-06
7.9495e-06
1.08591e-05
1.42068e-05
1.79933e-05
2.22198e-05
2.6888e-05
3.19998e-05
3.75571e-05
4.35622e-05
5.00175e-05
5.69253e-05
6.42881e-05
7.21086e-05
8.03895e-05
8.91336e-05
9.83439e-05
0.000108023
0.000118175
0.000128802
0.000139906
0.000151491
0.000163559
0.000176113
0.000189156
0.000202689
0.000216716
0.000231239
0.000246261
0.000261782
0.000277805
0.000294332
0.000311363
0.000328901
0.000346946
0.0003655
0.000384565
0.000404142
0.000424233
0.000444842
0.000465971
0.000487626
0.000509812
0.00053254
0.000555821
0.000579676
0.000604131
0.000629227
0.000655031
0.000681673
0.000709287
0.00073774
0.000770691
0.000798556
-6.30633e-07
-9.77044e-07
-5.59731e-07
1.46233e-07
1.31549e-06
2.91835e-06
4.95573e-06
7.42876e-06
1.03377e-05
1.36835e-05
1.7467e-05
2.16899e-05
2.63539e-05
3.1461e-05
3.70132e-05
4.30129e-05
4.94623e-05
5.63638e-05
6.372e-05
7.15336e-05
7.98074e-05
8.85442e-05
9.77471e-05
0.000107419
0.000117563
0.000128182
0.000139278
0.000150855
0.000162915
0.000175461
0.000188496
0.000202022
0.000216041
0.000230557
0.00024557
0.000261085
0.000277101
0.000293621
0.000310645
0.000328176
0.000346215
0.000364763
0.000383822
0.000403392
0.000423477
0.000444077
0.000465197
0.000486841
0.000509013
0.000531722
0.000554978
0.000578796
0.000603198
0.000628213
0.000653884
0.000680284
0.000707472
0.000735505
0.000765876
0.000793943
-1.52775e-06
-1.87724e-06
-1.42988e-06
-7.05993e-07
4.76282e-07
2.0859e-06
4.12592e-06
6.59897e-06
9.50607e-06
1.28484e-05
1.66274e-05
2.08448e-05
2.55024e-05
3.06023e-05
3.61467e-05
4.21379e-05
4.85782e-05
5.54701e-05
6.28162e-05
7.06193e-05
7.88823e-05
8.7608e-05
9.67996e-05
0.00010646
0.000116592
0.000127199
0.000138283
0.000149848
0.000161896
0.00017443
0.000187453
0.000200967
0.000214975
0.000229479
0.000244481
0.000259985
0.00027599
0.0002925
0.000309515
0.000327036
0.000345066
0.000363605
0.000382654
0.000402215
0.00042229
0.000442879
0.000463986
0.000485613
0.000507766
0.000530451
0.000553676
0.000577456
0.000601808
0.000626757
0.000652343
0.000678618
0.000705635
0.0007335
0.000762571
0.000791358
-2.88142e-06
-3.23545e-06
-2.77538e-06
-2.04291e-06
-8.52832e-07
7.60991e-07
2.80215e-06
5.27399e-06
8.17801e-06
1.15158e-05
1.5289e-05
1.94995e-05
2.41493e-05
2.92406e-05
3.47755e-05
4.07563e-05
4.71856e-05
5.40659e-05
6.13999e-05
6.91905e-05
7.74406e-05
8.61531e-05
9.53312e-05
0.000104978
0.000115096
0.000125689
0.000136759
0.00014831
0.000160344
0.000172865
0.000185874
0.000199375
0.00021337
0.000227862
0.000242853
0.000258344
0.000274339
0.000290838
0.000307843
0.000325355
0.000343376
0.000361906
0.000380946
0.000400497
0.000420559
0.000441135
0.000462226
0.000483832
0.000505959
0.000528608
0.000551786
0.000575499
0.000599757
0.000624573
0.000649963
0.000675944
0.000702528
0.000729738
0.000757587
0.000785516
-4.67298e-06
-5.02818e-06
-4.56215e-06
-3.82587e-06
-2.63185e-06
-1.01625e-06
1.02435e-06
3.49354e-06
6.39312e-06
9.72487e-06
1.34907e-05
1.76927e-05
2.23329e-05
2.74135e-05
3.29367e-05
3.8905e-05
4.5321e-05
5.21872e-05
5.95066e-05
6.72822e-05
7.55168e-05
8.42135e-05
9.33754e-05
0.000103006
0.000113107
0.000123683
0.000134737
0.000146271
0.00015829
0.000170794
0.000183788
0.000197275
0.000211255
0.000225733
0.00024071
0.000256189
0.000272171
0.000288658
0.000305653
0.000323155
0.000341166
0.000359686
0.000378716
0.000398257
0.000418307
0.000438869
0.000459942
0.000481526
0.000503622
0.000526231
0.000549355
0.000572995
0.000597152
0.000621829
0.000647025
0.000672735
0.00069894
0.000725611
0.000752657
0.000779808
-6.90556e-06
-7.26044e-06
-6.79144e-06
-6.05411e-06
-4.85924e-06
-3.24437e-06
-1.20633e-06
1.25849e-06
4.15201e-06
7.47618e-06
1.1233e-05
1.54247e-05
2.00534e-05
2.51212e-05
3.06306e-05
3.65841e-05
4.29843e-05
4.98341e-05
5.71364e-05
6.48943e-05
7.31108e-05
8.17889e-05
9.09319e-05
0.000100543
0.000110625
0.000121182
0.000132217
0.000143732
0.000155732
0.000168219
0.000181195
0.000194664
0.000208629
0.00022309
0.000238053
0.000253517
0.000269486
0.000285961
0.000302944
0.000320436
0.000338437
0.000356947
0.000375968
0.000395498
0.000415537
0.000436084
0.000457139
0.0004787
0.000500766
0.000523335
0.000546403
0.000569967
0.000594021
0.000618557
0.00064356
0.000669009
0.000694866
0.000721072
0.000747519
0.000774013
-9.5796e-06
-9.93505e-06
-9.46506e-06
-8.72855e-06
-7.53517e-06
-5.9232e-06
-3.88968e-06
-1.43104e-06
1.4547e-06
4.76953e-06
8.5156e-06
1.2695e-05
1.73101e-05
2.2363e-05
2.78563e-05
3.37926e-05
4.01747e-05
4.70055e-05
5.42882e-05
6.20258e-05
7.02214e-05
7.88782e-05
8.79995e-05
9.75885e-05
0.000107649
0.000118184
0.000129196
0.000140691
0.000152669
0.000165136
0.000178092
0.000191542
0.000205488
0.000219933
0.000234879
0.000250328
0.000266283
0.000282745
0.000299716
0.000317197
0.000335188
0.000353689
0.0003727
0.000392221
0.000412249
0.000432784
0.000453824
0.000475364
0.000497403
0.000519934
0.000542952
0.000566447
0.000590407
0.000614817
0.000639653
0.000664883
0.000690457
0.000716306
0.000742323
0.000768357
-1.26947e-05
-1.30519e-05
-1.25826e-05
-1.18485e-05
-1.06584e-05
-9.05126e-06
-7.0241e-06
-4.57343e-06
-1.69727e-06
1.60638e-06
5.33969e-06
9.50484e-06
1.41041e-05
1.91399e-05
2.46147e-05
3.05314e-05
3.68928e-05
4.37022e-05
5.09625e-05
5.8677e-05
6.68489e-05
7.54815e-05
8.45781e-05
9.41424e-05
0.000104178
0.000114688
0.000125676
0.000137146
0.000149102
0.000161545
0.000174479
0.000187908
0.000201833
0.000216259
0.000231187
0.000246619
0.000262559
0.000279008
0.000295966
0.000313436
0.000331417
0.00034991
0.000368913
0.000388426
0.000408447
0.000428972
0.00045
0.000471526
0.000493543
0.000516045
0.000539021
0.00056246
0.000586344
0.000610653
0.000635358
0.000660419
0.000685784
0.00071138
0.000737112
0.000762852
-1.62506e-05
-1.66105e-05
-1.61431e-05
-1.54127e-05
-1.42277e-05
-1.2627e-05
-1.06079e-05
-8.16702e-06
-5.3023e-06
-2.01176e-06
1.70673e-06
5.85541e-06
1.04366e-05
1.54529e-05
2.09068e-05
2.68014e-05
3.31396e-05
3.99246e-05
4.71598e-05
5.48483e-05
6.29935e-05
7.15989e-05
8.0668e-05
9.02045e-05
0.000100212
0.000110695
0.000121656
0.000133099
0.000145027
0.000157445
0.000170355
0.000183759
0.000197662
0.000212067
0.000226975
0.00024239
0.000258314
0.000274748
0.000291694
0.000309153
0.000327125
0.00034561
0.000364607
0.000384115
0.000404131
0.000424652
0.000445673
0.00046719
0.000489195
0.000511677
0.000534626
0.000558026
0.000581858
0.000606097
0.000630711
0.000655658
0.000680886
0.000706325
0.00073189
0.000757475
-2.02471e-05
-2.06101e-05
-2.01457e-05
-1.94203e-05
-1.82416e-05
-1.6649e-05
-1.46396e-05
-1.22102e-05
-9.35883e-06
-6.08344e-06
-2.38191e-06
1.74805e-06
6.30885e-06
1.13031e-05
1.67336e-05
2.26034e-05
2.89157e-05
3.56736e-05
4.28806e-05
5.05401e-05
5.86555e-05
6.72306e-05
7.62691e-05
8.57749e-05
9.57517e-05
0.000106203
0.000117134
0.000128547
0.000140446
0.000152835
0.000165717
0.000179096
0.000192974
0.000207355
0.000222242
0.000237638
0.000253545
0.000269964
0.000286897
0.000304345
0.000322309
0.000340788
0.000359781
0.000379287
0.000399302
0.000419823
0.000440846
0.000462362
0.000484364
0.000506841
0.000529779
0.000553162
0.000576967
0.00060117
0.000625736
0.000650624
0.000675782
0.000701147
0.000726644
0.000752186
-2.46833e-05
-2.50498e-05
-2.45892e-05
-2.38698e-05
-2.26987e-05
-2.11155e-05
-1.91176e-05
-1.67014e-05
-1.38653e-05
-1.06071e-05
-6.92473e-06
-2.81585e-06
1.7221e-06
6.69183e-06
1.20963e-05
1.79386e-05
2.42219e-05
3.09497e-05
3.81255e-05
4.57528e-05
5.38354e-05
6.2377e-05
7.13816e-05
8.08533e-05
9.0796e-05
0.000101214
0.00011211
0.00012349
0.000135357
0.000147714
0.000160565
0.000173915
0.000187766
0.000202122
0.000216986
0.000232361
0.000248249
0.000264653
0.000281573
0.000299011
0.000316967
0.000335441
0.000354433
0.00037394
0.00039396
0.000414487
0.000435518
0.000457043
0.000479055
0.000501541
0.000524486
0.000547874
0.000571681
0.000595882
0.000620442
0.000645323
0.000670474
0.00069584
0.000721352
0.000746939
-2.95578e-05
-2.99282e-05
-2.94721e-05
-2.87597e-05
-2.75974e-05
-2.6025e-05
-2.40399e-05
-2.16388e-05
-1.88198e-05
-1.5581e-05
-1.19201e-05
-7.83473e-06
-3.32217e-06
1.6204e-06
6.996e-06
1.28079e-05
1.90593e-05
2.57539e-05
3.28952e-05
4.0487e-05
4.85333e-05
5.70381e-05
6.60055e-05
7.54396e-05
8.53446e-05
9.57248e-05
0.000106584
0.000117927
0.000129757
0.000142079
0.000154897
0.000168215
0.000182036
0.000196365
0.000211204
0.000226556
0.000242425
0.000258811
0.000275718
0.000293146
0.000311095
0.000329567
0.00034856
0.000368073
0.000388101
0.000408642
0.000429689
0.000451234
0.000473267
0.000495778
0.00051875
0.000542166
0.000566003
0.000590236
0.000614832
0.000639753
0.000664954
0.000690384
0.000715983
0.000741689
-3.48691e-05
-3.52439e-05
-3.47928e-05
-3.40883e-05
-3.29358e-05
-3.13756e-05
-2.94049e-05
-2.70206e-05
-2.42208e-05
-2.10035e-05
-1.73664e-05
-1.33069e-05
-8.82236e-06
-3.90972e-06
1.43414e-06
7.21253e-06
1.34289e-05
2.00869e-05
2.71904e-05
3.47434e-05
4.27499e-05
5.12142e-05
6.01406e-05
6.95334e-05
7.9397e-05
8.97357e-05
0.000100554
0.000111856
0.000123647
0.00013593
0.000148712
0.000161994
0.000175783
0.000190081
0.000204892
0.00022022
0.000236067
0.000252436
0.000269328
0.000286746
0.00030469
0.000323162
0.000342159
0.00036168
0.000381723
0.000402284
0.000423355
0.00044493
0.000466998
0.000489549
0.000512567
0.000536035
0.00055993
0.000584228
0.000608898
0.000633904
0.000659206
0.000684756
0.000710503
0.000736392
-4.06153e-05
-4.09949e-05
-4.05494e-05
-3.98535e-05
-3.87119e-05
-3.71651e-05
-3.52105e-05
-3.28448e-05
-3.00662e-05
-2.68726e-05
-2.32617e-05
-1.92307e-05
-1.47768e-05
-9.89694e-06
-4.58786e-06
1.15388e-06
7.33187e-06
1.39499e-05
2.10121e-05
2.85225e-05
3.64855e-05
4.49054e-05
5.37869e-05
6.31343e-05
7.29523e-05
8.32455e-05
9.40186e-05
0.000105276
0.000117024
0.000129265
0.000142006
0.00015525
0.000169003
0.000183267
0.000198048
0.000213349
0.000229172
0.000245522
0.000262399
0.000279808
0.000297747
0.000316219
0.000335223
0.000354758
0.00037482
0.000395406
0.000416511
0.000438126
0.000460243
0.000482849
0.000505932
0.000529474
0.000553454
0.000577848
0.000602627
0.000627759
0.000653206
0.000678927
0.000704876
0.000731003
-4.67942e-05
-4.7179e-05
-4.67395e-05
-4.60532e-05
-4.49236e-05
-4.33916e-05
-4.14546e-05
-3.91093e-05
-3.63539e-05
-3.31863e-05
-2.96039e-05
-2.5604e-05
-2.11836e-05
-1.63395e-05
-1.10684e-05
-5.36664e-06
7.69499e-07
7.34401e-06
1.43611e-05
2.18251e-05
2.97405e-05
3.8112e-05
4.69443e-05
5.6242e-05
6.60101e-05
7.62535e-05
8.69771e-05
9.81862e-05
0.000109886
0.000122081
0.000134778
0.00014798
0.000161693
0.00017592
0.000190668
0.000205938
0.000221736
0.000238065
0.000254927
0.000272324
0.00029026
0.000308734
0.000327747
0.000347298
0.000367384
0.000388003
0.000409148
0.000430813
0.000452991
0.000475669
0.000498835
0.000522472
0.000546561
0.00057108
0.000596001
0.000621296
0.00064693
0.000672866
0.000699063
0.000725477
-5.34032e-05
-5.37936e-05
-5.33607e-05
-5.26849e-05
-5.15683e-05
-5.00525e-05
-4.81348e-05
-4.58119e-05
-4.30818e-05
-3.99424e-05
-3.63911e-05
-3.2425e-05
-2.80409e-05
-2.32357e-05
-1.80058e-05
-1.23475e-05
-6.25682e-06
2.70356e-07
7.23841e-06
1.46519e-05
2.25155e-05
3.08341e-05
3.96126e-05
4.88561e-05
5.85696e-05
6.87586e-05
7.94283e-05
9.05843e-05
0.000102232
0.000114377
0.000127025
0.00014018
0.000153849
0.000168036
0.000182747
0.000197984
0.000213754
0.000230059
0.000246903
0.00026429
0.000282221
0.000300699
0.000319722
0.000339292
0.000359407
0.000380063
0.000401257
0.000422982
0.000445232
0.000467995
0.000491261
0.000515013
0.000539234
0.000563904
0.000588998
0.000614489
0.000640347
0.000666538
0.000693025
0.000719769
-6.04395e-05
-6.08361e-05
-6.04103e-05
-5.97458e-05
-5.86435e-05
-5.71454e-05
-5.52487e-05
-5.295e-05
-5.02474e-05
-4.71386e-05
-4.36208e-05
-3.96913e-05
-3.53466e-05
-3.05835e-05
-2.53983e-05
-1.9787e-05
-1.37456e-05
-7.26972e-06
-3.54839e-07
7.00378e-06
1.48111e-05
2.3072e-05
3.1792e-05
4.09763e-05
5.06304e-05
6.07601e-05
7.1371e-05
8.24689e-05
9.40598e-05
0.000106149
0.000118744
0.000131848
0.000145469
0.000159611
0.00017428
0.000189481
0.000205219
0.000221499
0.000238324
0.000255698
0.000273624
0.000292104
0.000311139
0.00033073
0.000350876
0.000371576
0.000392825
0.000414619
0.000436951
0.000459813
0.000483194
0.000507079
0.000531453
0.000556298
0.000581592
0.00060731
0.000633425
0.000659907
0.000686721
0.000713832
-6.79002e-05
-6.83033e-05
-6.78853e-05
-6.72331e-05
-6.61464e-05
-6.46674e-05
-6.27934e-05
-6.0521e-05
-5.7848e-05
-5.47721e-05
-5.12907e-05
-4.74005e-05
-4.30984e-05
-3.83808e-05
-3.32438e-05
-2.76833e-05
-2.16952e-05
-1.52748e-05
-8.41752e-06
-1.11837e-06
6.62776e-06
1.48262e-05
2.34826e-05
3.26026e-05
4.21921e-05
5.22571e-05
6.28039e-05
7.38384e-05
8.5367e-05
9.73959e-05
0.000109931
0.00012298
0.000136547
0.00015064
0.000165263
0.000180424
0.000196126
0.000212377
0.000229179
0.000246539
0.000264458
0.00028294
0.000301987
0.000321601
0.000341781
0.000362528
0.000383838
0.000405708
0.000428133
0.000451104
0.000474614
0.000498648
0.000523195
0.000548237
0.000573755
0.000599727
0.000626128
0.000652931
0.000680107
0.000707621
-7.57819e-05
-7.61921e-05
-7.57824e-05
-7.51436e-05
-7.40737e-05
-7.26155e-05
-7.0766e-05
-6.85218e-05
-6.58807e-05
-6.28403e-05
-5.93979e-05
-5.55502e-05
-5.12939e-05
-4.66252e-05
-4.15402e-05
-3.60345e-05
-3.01039e-05
-2.37434e-05
-1.69484e-05
-9.71353e-06
-2.03357e-06
6.09719e-06
1.46846e-05
2.37349e-05
3.32542e-05
4.3249e-05
5.37258e-05
6.46911e-05
7.61516e-05
8.81139e-05
0.000100585
0.000113571
0.00012708
0.000141118
0.000155691
0.000170806
0.000186469
0.000202686
0.000219463
0.000236804
0.000254714
0.000273196
0.000292255
0.000311892
0.000332108
0.000352905
0.00037428
0.000396233
0.000418758
0.000441849
0.000465499
0.000489697
0.000514433
0.000539691
0.000565454
0.000591704
0.000618418
0.000645572
0.000673139
0.000701089
-8.40813e-05
-8.44988e-05
-8.40983e-05
-8.34738e-05
-8.24221e-05
-8.09862e-05
-7.91631e-05
-7.69492e-05
-7.43423e-05
-7.134e-05
-6.79394e-05
-6.41374e-05
-5.99303e-05
-5.53143e-05
-5.02852e-05
-4.48385e-05
-3.89697e-05
-3.26739e-05
-2.59459e-05
-1.87805e-05
-1.1172e-05
-3.11439e-06
5.39853e-06
1.43732e-05
2.38164e-05
3.37348e-05
4.41354e-05
5.50251e-05
6.64111e-05
7.83006e-05
9.07009e-05
0.000103619
0.000117063
0.00013104
0.000145557
0.000160621
0.000176239
0.000192418
0.000209164
0.000226483
0.00024438
0.000262861
0.000281929
0.000301588
0.000321842
0.00034269
0.000364135
0.000386174
0.000408805
0.000432024
0.000455824
0.000480199
0.000505138
0.000530628
0.000556656
0.000583205
0.000610255
0.000637785
0.000665771
0.000694187
-9.27946e-05
-9.322e-05
-9.28293e-05
-9.22202e-05
-9.11879e-05
-8.97759e-05
-8.7981e-05
-8.57995e-05
-8.32293e-05
-8.02678e-05
-7.69122e-05
-7.31591e-05
-6.90048e-05
-6.44453e-05
-5.94762e-05
-5.40929e-05
-4.82906e-05
-4.20642e-05
-3.54086e-05
-2.83179e-05
-2.07864e-05
-1.28077e-05
-4.37527e-06
4.51776e-06
1.38784e-05
2.37139e-05
3.40315e-05
4.48388e-05
5.61435e-05
6.79531e-05
8.02758e-05
9.31193e-05
0.000106492
0.000120401
0.000134855
0.000149862
0.000165429
0.000181564
0.000198273
0.000215565
0.000233446
0.000251921
0.000270996
0.000290676
0.000310966
0.000331867
0.000353381
0.00037551
0.000398252
0.000421604
0.000445564
0.000470124
0.000495278
0.000521015
0.000547324
0.00057419
0.000601597
0.000629526
0.000657956
0.000686863
-0.000101918
-0.000102352
-0.000101971
-0.000101379
-0.000100367
-9.89806e-05
-9.72158e-05
-9.50689e-05
-9.25379e-05
-8.96201e-05
-8.63126e-05
-8.26119e-05
-7.85142e-05
-7.40152e-05
-6.91104e-05
-6.3795e-05
-5.80641e-05
-5.19124e-05
-4.53344e-05
-3.83242e-05
-3.08756e-05
-2.29819e-05
-1.46362e-05
-5.83143e-06
3.43992e-06
1.31855e-05
2.3413e-05
3.41306e-05
4.53465e-05
5.70689e-05
6.93063e-05
8.20674e-05
9.53607e-05
0.000109195
0.000123579
0.000138521
0.00015403
0.000170114
0.000186781
0.00020404
0.000221898
0.000240363
0.000259442
0.00027914
0.000299463
0.000320415
0.000341999
0.000364219
0.000387074
0.000410564
0.000434688
0.000459442
0.00048482
0.000510816
0.000537419
0.000564618
0.0005924
0.000620748
0.000649644
0.000679066
-0.000111447
-0.00011189
-0.00011152
-0.000110945
-0.000109956
-0.000108596
-0.000106863
-0.000104753
-0.000102264
-9.93931e-05
-9.6137e-05
-9.24923e-05
-8.8455e-05
-8.40207e-05
-7.91847e-05
-7.39421e-05
-6.82877e-05
-6.22161e-05
-5.57214e-05
-4.87976e-05
-4.1438e-05
-3.36358e-05
-2.53836e-05
-1.66741e-05
-7.4992e-06
2.149e-06
1.22789e-05
2.2899e-05
3.40181e-05
4.56451e-05
5.77891e-05
7.04594e-05
8.36653e-05
9.74162e-05
0.000111722
0.000126591
0.000142033
0.000158059
0.000174677
0.000191896
0.000209725
0.000228174
0.00024725
0.000266961
0.000287314
0.000308314
0.000329966
0.000352275
0.000375244
0.000398874
0.000423166
0.000448118
0.000473728
0.000499991
0.000526899
0.000554445
0.000582616
0.000611401
0.000640782
0.000670741
-0.000121378
-0.000121829
-0.000121472
-0.000120915
-0.000119949
-0.000118618
-0.000116919
-0.000114848
-0.000112404
-0.000109583
-0.000106381
-0.000102796
-9.88236e-05
-9.44583e-05
-8.96957e-05
-8.45309e-05
-7.89584e-05
-7.29725e-05
-6.65672e-05
-5.97361e-05
-5.24721e-05
-4.47682e-05
-3.66167e-05
-2.80096e-05
-1.89389e-05
-9.39589e-06
6.28196e-07
1.11425e-05
2.21562e-05
3.36791e-05
4.57207e-05
5.82911e-05
7.14004e-05
8.50587e-05
9.92763e-05
0.000114064
0.000129431
0.000145389
0.000161948
0.00017912
0.000196913
0.000215338
0.000234405
0.000254122
0.000274498
0.000295541
0.000317257
0.000339653
0.000362734
0.000386504
0.000410965
0.000436119
0.000461965
0.000488501
0.000515723
0.000543625
0.000572198
0.000601433
0.000631316
0.000661831
-0.000131704
-0.000132166
-0.000131821
-0.000131283
-0.000130341
-0.000129041
-0.000127378
-0.00012535
-0.000122953
-0.000120184
-0.000117041
-0.00011352
-0.000109616
-0.000105324
-0.00010064
-9.5558e-05
-9.0073e-05
-8.41789e-05
-7.78693e-05
-7.11373e-05
-6.3976e-05
-5.63775e-05
-4.83341e-05
-3.98375e-05
-3.08789e-05
-2.14494e-05
-1.15397e-05
-1.14022e-06
9.75902e-06
2.11682e-05
3.30977e-05
4.55583e-05
5.85609e-05
7.21164e-05
8.62361e-05
0.000100931
0.000116214
0.000132094
0.000148586
0.000165699
0.000183447
0.00020184
0.000220888
0.000240604
0.000260996
0.000282075
0.000303849
0.000326327
0.000349516
0.000373423
0.000398052
0.000423407
0.00044949
0.000476303
0.000503844
0.000532109
0.000561094
0.00059079
0.000621189
0.000652277
-0.000142422
-0.000142894
-0.000142562
-0.000142044
-0.000141129
-0.00013986
-0.000138236
-0.000136252
-0.000133905
-0.000131193
-0.000128113
-0.000124659
-0.000120827
-0.000116614
-0.000112013
-0.00010702
-0.000101628
-9.5832e-05
-8.96246e-05
-8.29989e-05
-7.59473e-05
-6.84619e-05
-6.05346e-05
-5.21565e-05
-4.33186e-05
-3.40115e-05
-2.42255e-05
-1.39503e-05
-3.17547e-06
8.10982e-06
1.99168e-05
3.22569e-05
4.51419e-05
5.85837e-05
7.25943e-05
8.71863e-05
0.000102372
0.000118165
0.000134577
0.000151622
0.000169313
0.000187662
0.000206682
0.000226386
0.000246785
0.00026789
0.000289715
0.000312267
0.000335559
0.000359597
0.000384389
0.000409943
0.000436263
0.000463353
0.000491214
0.000519847
0.000549249
0.000579416
0.000610342
0.000642016
-0.000153526
-0.000154008
-0.000153689
-0.000153193
-0.000152305
-0.000151071
-0.000149487
-0.00014755
-0.000145257
-0.000142605
-0.00013959
-0.000136208
-0.000132454
-0.000128323
-0.000123811
-0.000118912
-0.00011362
-0.000107928
-0.00010183
-9.53177e-05
-8.83835e-05
-8.10192e-05
-7.32161e-05
-6.49653e-05
-5.62572e-05
-4.70819e-05
-3.74293e-05
-2.72887e-05
-1.66489e-05
-5.49833e-06
6.17491e-06
1.83831e-05
3.11388e-05
4.44549e-05
5.83443e-05
7.28207e-05
8.78977e-05
0.000103589
0.00011991
0.000136874
0.000154495
0.000172789
0.000191768
0.000211448
0.000231842
0.000252964
0.000274828
0.000297446
0.00032083
0.000344991
0.000369941
0.000395688
0.00042224
0.000449604
0.000477785
0.000506787
0.000536609
0.000567252
0.000598712
0.000630983
-0.000165009
-0.000165501
-0.000165197
-0.000164724
-0.000163865
-0.000162667
-0.000161126
-0.000159239
-0.000157003
-0.000154414
-0.000151468
-0.000148162
-0.00014449
-0.000140447
-0.00013603
-0.000131231
-0.000126045
-0.000120464
-0.000114482
-0.00010809
-0.000101281
-9.40466e-05
-8.63766e-05
-7.82622e-05
-6.96935e-05
-6.06601e-05
-5.11515e-05
-4.11562e-05
-3.06626e-05
-1.96583e-05
-8.13066e-06
3.93336e-06
1.65472e-05
2.97246e-05
4.34796e-05
5.7827e-05
7.27815e-05
8.83584e-05
0.000104573
0.000121442
0.000138979
0.000157202
0.000176127
0.000195769
0.000216144
0.00023727
0.00025916
0.000281831
0.000305297
0.000329571
0.000354668
0.000380599
0.000407376
0.000435009
0.000463505
0.000492872
0.000523115
0.000554236
0.000586235
0.000619109
-0.000176865
-0.000177369
-0.00017708
-0.000176631
-0.000175802
-0.000174642
-0.000173147
-0.000171313
-0.000169136
-0.000166614
-0.000163741
-0.000160515
-0.00015693
-0.000152981
-0.000148664
-0.000143971
-0.000138897
-0.000133435
-0.000127576
-0.000121313
-0.000114638
-0.000107541
-0.000100013
-9.20452e-05
-8.3626e-05
-7.47452e-05
-6.53915e-05
-5.55531e-05
-4.52175e-05
-3.43717e-05
-2.30023e-05
-1.10956e-05
1.36283e-06
1.43876e-05
2.79939e-05
4.21975e-05
5.70145e-05
7.24612e-05
8.85544e-05
0.000105311
0.000122749
0.000140886
0.000159739
0.000179328
0.00019967
0.000220782
0.000242684
0.000265393
0.000288926
0.000313299
0.00033853
0.000364634
0.000391625
0.000419516
0.00044832
0.000478047
0.000508705
0.000540302
0.000572841
0.000606322
-0.000189088
-0.000189604
-0.00018933
-0.000188907
-0.00018811
-0.000186991
-0.000185544
-0.000183765
-0.000181651
-0.000179199
-0.000176404
-0.000173262
-0.000169769
-0.00016592
-0.000161708
-0.000157128
-0.000152173
-0.000146836
-0.000141108
-0.000134982
-0.000128449
-0.000121499
-0.000114124
-0.000106312
-9.80529e-05
-8.93358e-05
-8.01487e-05
-7.04791e-05
-6.0314e-05
-4.96396e-05
-3.8442e-05
-2.67066e-05
-1.44181e-05
-1.561e-06
1.18811e-05
2.59249e-05
4.05878e-05
5.58873e-05
7.18417e-05
8.84695e-05
0.00010579
0.000123823
0.000142587
0.000162104
0.000182393
0.000203476
0.000225371
0.0002481
0.000271682
0.000296138
0.000321487
0.000347748
0.000374938
0.000403075
0.000432174
0.000462251
0.000493317
0.000525383
0.000558458
0.000592547
-0.000201671
-0.000202198
-0.000201942
-0.000201545
-0.000200783
-0.000199705
-0.000198309
-0.000196588
-0.00019454
-0.000192162
-0.000189449
-0.000186397
-0.000183001
-0.000179256
-0.000175157
-0.000170696
-0.000165867
-0.000160662
-0.000155073
-0.000149092
-0.00014271
-0.000135918
-0.000128704
-0.000121059
-0.000112972
-0.00010443
-9.54216e-05
-8.59335e-05
-7.5952e-05
-6.54629e-05
-5.44514e-05
-4.29022e-05
-3.07993e-05
-1.81259e-05
-4.86471e-06
9.00212e-06
2.34931e-05
3.86271e-05
5.44239e-05
7.09036e-05
8.80871e-05
0.000105996
0.000124651
0.000144076
0.000164292
0.000185323
0.000207191
0.000229919
0.000253531
0.000278049
0.000303496
0.000329895
0.000357266
0.000385632
0.000415011
0.000445422
0.000476883
0.000509408
0.000543011
0.000577701
-0.000214606
-0.000215146
-0.000214907
-0.000214538
-0.000213812
-0.000212779
-0.000211435
-0.000209776
-0.000207798
-0.000205497
-0.00020287
-0.000199913
-0.000196619
-0.000192985
-0.000189003
-0.000184668
-0.000179972
-0.000174907
-0.000169466
-0.000163639
-0.000157418
-0.000150792
-0.000143751
-0.000136284
-0.000128379
-0.000120025
-0.000111208
-0.000101915
-9.2131e-05
-8.18418e-05
-7.10317e-05
-5.96846e-05
-4.77837e-05
-3.53112e-05
-2.22489e-05
-8.5776e-06
5.72226e-06
2.06711e-05
3.62899e-05
5.26008e-05
6.9626e-05
8.73889e-05
0.000105913
0.000125223
0.000145343
0.000166298
0.000188115
0.000210819
0.000234437
0.000258993
0.000284516
0.000311029
0.000338559
0.000367132
0.00039677
0.000427497
0.000459336
0.000492305
0.000526422
0.000561703
-0.000227886
-0.000228439
-0.000228219
-0.000227879
-0.00022719
-0.000226204
-0.000224915
-0.00022332
-0.000221415
-0.000219196
-0.00021666
-0.000213802
-0.000210617
-0.000207098
-0.000203241
-0.000199039
-0.000194483
-0.000189566
-0.000184281
-0.000178617
-0.000172566
-0.000166116
-0.000159259
-0.000151981
-0.000144272
-0.000136118
-0.000127506
-0.000118422
-0.00010885
-9.87759e-05
-8.81834e-05
-7.70553e-05
-6.5374e-05
-5.31207e-05
-4.02762e-05
-2.68202e-05
-1.27319e-05
2.01047e-06
1.74296e-05
3.3549e-05
5.03927e-05
6.79857e-05
8.63537e-05
0.000105523
0.000125521
0.000146375
0.000168115
0.000190767
0.000214363
0.000238931
0.000264501
0.000291103
0.000318765
0.000347519
0.000377392
0.000408411
0.000440605
0.000473997
0.000508612
0.000544469
-0.000241502
-0.000242069
-0.000241868
-0.000241559
-0.000240909
-0.000239972
-0.000238741
-0.000237213
-0.000235385
-0.000233252
-0.000230811
-0.000228057
-0.000224985
-0.000221589
-0.000217863
-0.0002138
-0.000209392
-0.000204632
-0.000199511
-0.00019402
-0.000188148
-0.000181887
-0.000175224
-0.000168148
-0.000160646
-0.000152705
-0.000144312
-0.000135451
-0.000126107
-0.000116264
-0.000105906
-9.50152e-05
-8.35719e-05
-7.15572e-05
-5.89506e-05
-4.5731e-05
-3.18761e-05
-1.73627e-05
-2.16677e-06
1.37367e-05
3.03736e-05
4.77706e-05
6.59555e-05
8.49569e-05
0.000104804
0.000125529
0.00014716
0.000169732
0.000193275
0.000217823
0.00024341
0.000270068
0.000297832
0.000326737
0.000356814
0.000388097
0.000420618
0.000454408
0.000489496
0.000525908
-0.000255447
-0.000256028
-0.000255847
-0.00025557
-0.000254961
-0.000254074
-0.000252904
-0.000251447
-0.000249699
-0.000247656
-0.000245315
-0.00024267
-0.000239717
-0.00023645
-0.000232862
-0.000228945
-0.000224693
-0.000220098
-0.00021515
-0.000209841
-0.00020416
-0.000198097
-0.00019164
-0.000184777
-0.000177496
-0.000169782
-0.000161622
-0.000152999
-0.0001439
-0.000134306
-0.0001242
-0.000113564
-0.000102378
-9.06226e-05
-7.82754e-05
-6.53143e-05
-5.17159e-05
-3.74557e-05
-2.25082e-05
-6.8468e-06
9.55596e-06
2.67287e-05
4.47013e-05
6.35046e-05
8.31707e-05
0.000103733
0.000125224
0.00014768
0.000171137
0.00019563
0.000221198
0.000247878
0.000275708
0.000304727
0.000334974
0.000366486
0.000399302
0.000433457
0.000468988
0.000505926
-0.000269711
-0.000270307
-0.000270147
-0.000269902
-0.000269336
-0.000268502
-0.000267396
-0.000266012
-0.000264348
-0.000262399
-0.000260163
-0.000257633
-0.000254805
-0.000251672
-0.000248228
-0.000244466
-0.000240378
-0.000235956
-0.000231191
-0.000226073
-0.000220593
-0.000214739
-0.0002085
-0.000201864
-0.000194816
-0.000187344
-0.000179431
-0.000171064
-0.000162225
-0.000152897
-0.000143062
-0.000132701
-0.000121794
-0.000110318
-9.82525e-05
-8.55735e-05
-7.22562e-05
-5.82749e-05
-4.36027e-05
-2.82115e-05
-1.20721e-05
4.84609e-06
2.25749e-05
4.11474e-05
6.05982e-05
8.09628e-05
0.000102278
0.000124582
0.000147913
0.000172313
0.000197823
0.000224484
0.00025234
0.000281434
0.000311809
0.00034351
0.00037658
0.000411062
0.000446998
0.000484428
-0.000284285
-0.000284896
-0.000284758
-0.000284547
-0.000284025
-0.000283247
-0.000282207
-0.0002809
-0.000279323
-0.000277473
-0.000275346
-0.000272936
-0.000270238
-0.000267246
-0.000263953
-0.000260353
-0.000256437
-0.000252197
-0.000247624
-0.000242709
-0.00023744
-0.000231807
-0.000225799
-0.000219401
-0.000212601
-0.000205384
-0.000197736
-0.00018964
-0.000181079
-0.000172035
-0.000162491
-0.000152424
-0.000141816
-0.000130643
-0.000118883
-0.000106511
-9.35007e-05
-7.98255e-05
-6.54571e-05
-5.0366e-05
-3.45211e-05
-1.789e-05
-4.38896e-07
1.78677e-05
3.70665e-05
5.71958e-05
7.82952e-05
0.000100406
0.000123571
0.000147835
0.000173242
0.00019984
0.000227675
0.000256797
0.000287254
0.000319097
0.000352375
0.000387138
0.000423435
0.000461313
-0.000299159
-0.000299785
-0.00029967
-0.000299495
-0.000299019
-0.000298298
-0.000297326
-0.0002961
-0.000294614
-0.000292867
-0.000290854
-0.000288569
-0.000286007
-0.000283163
-0.000280029
-0.000276598
-0.000272862
-0.000268813
-0.000264442
-0.000259739
-0.000254693
-0.000249293
-0.000243526
-0.000237381
-0.000230843
-0.000223897
-0.000216528
-0.00020872
-0.000200456
-0.000191716
-0.000182481
-0.000172731
-0.000162444
-0.000151598
-0.000140167
-0.000128128
-0.000115452
-0.000102112
-8.80772e-05
-7.33177e-05
-5.78004e-05
-4.14911e-05
-2.43538e-05
-6.35095e-06
1.25565e-05
3.24094e-05
5.32505e-05
7.51244e-05
9.80774e-05
0.000122158
0.000147414
0.000173898
0.000201662
0.00023076
0.000261246
0.000293177
0.00032661
0.0003616
0.000398205
0.000436481
-0.000314323
-0.000314965
-0.000314873
-0.000314735
-0.000314307
-0.000313645
-0.000312745
-0.000311602
-0.000310212
-0.000308572
-0.000306677
-0.000304523
-0.000302103
-0.000299413
-0.000296444
-0.000293191
-0.000289644
-0.000285795
-0.000281635
-0.000277154
-0.000272342
-0.000267187
-0.000261676
-0.000255796
-0.000249534
-0.000242875
-0.000235802
-0.0002283
-0.00022035
-0.000211932
-0.000203028
-0.000193616
-0.000183674
-0.000173178
-0.000162104
-0.000150424
-0.000138111
-0.000125136
-0.000111467
-9.70725e-05
-8.19178e-05
-6.59669e-05
-4.91819e-05
-3.15232e-05
-1.29494e-05
6.58324e-06
2.71203e-05
4.87096e-05
7.14009e-05
9.5246e-05