/*--------------------------------*- C++ -*----------------------------------*\
  =========                 |
  \\      /  F ield         | OpenFOAM: The Open Source CFD Toolbox
   \\    /   O peration     | Website:  https://openfoam.org
    \\  /    A nd           | Version:  8
     \\/     M anipulation  |
\*---------------------------------------------------------------------------*/
FoamFile
{
    version     2.0;
    format      ascii;
    class       volScalarField;
    location    "15";
    object      p;
}
// * * * * * * * * * * * * * * * * * * * * * * * * * * * * * * * * * * * * * //

dimensions      [0 2 -2 0 0 0 0];

internalField   nonuniform List<scalar> 
116
(
-4.84316e-09
-0.000611677
-0.000239786
-0.0027279
-0.000859473
-0.00856437
0.000406686
2.9746e-05
0.000322841
-0.00123422
-0.000725653
-0.00157755
0.000338287
8.36347e-05
0.000181065
-0.000650495
-0.00100439
-0.00296337
0.000490859
0.000379371
0.000281219
-0.000123768
-0.00097171
-0.00203673
0.000366573
0.000261784
7.35249e-05
-0.000154413
-0.00135656
-0.00207579
3.27255e-05
0.00014348
-0.000113903
4.63316e-05
-0.000956575
-0.00104505
0.000387996
6.93383e-05
-0.000162343
-0.00029451
-0.00107907
-0.00104422
-0.000723275
-0.000150797
-9.7587e-05
0.000533273
0.000230101
0.000423435
0.000957596
-0.000729041
-5.23865e-05
-0.000445965
-0.00059662
-0.000718267
-0.00619251
0.000929366
0.00128127
0.00180906
0.00152636
0.00173371
-0.00228442
0.00505957
0.00517556
0.00773261
-0.0046938
-0.00265484
-0.00189046
0.001726
-0.00666093
-0.00741223
-0.00552242
-0.00231989
-0.00652285
-0.0079093
-0.00691823
-0.00426301
-0.00563056
-0.00673141
-0.00711133
-0.00374723
-0.00341016
-0.00291175
-0.00443761
-0.00119735
-0.00301001
-0.00240176
-0.00509047
0.00132953
-8.79318e-05
0.000123006
-0.000831577
0.00752062
-0.00235822
-0.0018893
-0.00280753
0.0122453
0.00170601
0.00623409
0.0152786
0.0500003
0.0170468
0.0171551
0.0175759
0.0196467
0.0166281
0.0170959
0.0165771
0.0183537
0.0135913
0.013347
0.0134597
0.0145819
0.00726133
0.0128047
0.0119413
0.0122381
)
;

boundaryField
{
    movingWall
    {
        type            zeroGradient;
    }
    fixedWalls
    {
        type            zeroGradient;
    }
    frontAndBack
    {
        type            empty;
    }
}


// ************************************************************************* //
