/*--------------------------------*- C++ -*----------------------------------*\
  =========                 |
  \\      /  F ield         | OpenFOAM: The Open Source CFD Toolbox
   \\    /   O peration     | Website:  https://openfoam.org
    \\  /    A nd           | Version:  8
     \\/     M anipulation  |
\*---------------------------------------------------------------------------*/
FoamFile
{
    version     2.0;
    format      ascii;
    class       surfaceScalarField;
    location    "15";
    object      phi;
}
// * * * * * * * * * * * * * * * * * * * * * * * * * * * * * * * * * * * * * //

dimensions      [0 3 -1 0 0 0 0];

internalField   nonuniform List<scalar> 
208
(
9.48809e-07
-9.48808e-07
3.43703e-06
-2.48822e-06
1.27588e-06
2.16114e-06
1.0753e-06
2.00581e-07
-3.82582e-05
3.93335e-05
6.81787e-05
-0.000106437
-7.76462e-06
6.81581e-06
-1.9819e-05
9.56621e-06
-3.48007e-05
1.71428e-05
-5.73046e-05
2.27045e-05
-7.87536e-05
6.07824e-05
8.30571e-05
-9.3632e-05
-6.37836e-06
1.31942e-05
-1.80488e-05
2.12366e-05
-3.16582e-05
3.07522e-05
-4.97237e-05
4.077e-05
-6.0637e-05
7.16957e-05
8.70636e-05
-6.46435e-05
-7.89453e-06
2.10887e-05
-1.80405e-05
3.13826e-05
-2.80219e-05
4.07336e-05
-3.66497e-05
4.93978e-05
-3.89395e-05
7.39855e-05
7.91032e-05
-3.09791e-05
-1.76851e-06
2.28572e-05
-8.68508e-06
3.82992e-05
-1.45508e-05
4.65993e-05
-1.73324e-05
5.21794e-05
-1.20331e-05
6.86863e-05
6.58207e-05
1.24938e-06
-2.90964e-06
2.57668e-05
-3.14014e-06
3.85297e-05
-2.26153e-06
4.57207e-05
-1.1781e-06
5.10959e-05
6.34741e-06
6.11607e-05
5.66639e-05
1.55042e-05
1.305e-06
2.44618e-05
-6.07335e-06
4.59081e-05
-6.67248e-06
4.63198e-05
-2.86592e-06
4.72894e-05
1.03216e-05
4.79732e-05
4.62619e-05
2.07236e-05
6.73366e-06
1.77282e-05
1.38705e-05
3.87712e-05
1.87667e-05
4.14237e-05
1.98659e-05
4.61902e-05
2.64862e-05
4.13528e-05
4.41775e-05
2.85707e-05
-4.84387e-05
6.61669e-05
-4.63689e-05
3.67015e-05
-3.93461e-05
3.44008e-05
-2.47737e-05
3.16179e-05
-7.74187e-06
2.43209e-05
2.50412e-05
1.13944e-05
6.61669e-05
0.000102868
0.000137269
0.000168887
0.000193208
0.000218249
-0.000111492
0.000140553
-0.000135498
-7.03461e-05
1.19708e-05
-5.31166e-05
-3.44097e-05
-9.07771e-05
5.48407e-05
-0.000168184
0.000133774
-8.08143e-05
0.000127736
-5.15661e-05
-1.72774e-05
-3.10347e-05
-0.000111309
-0.000199218
-4.14084e-05
0.000104501
-2.86976e-05
-2.99883e-05
-2.17028e-05
-0.000118303
-0.000220921
-9.58143e-06
8.31029e-05
-7.11779e-06
-3.24519e-05
-1.36308e-05
-0.00011179
-0.000234552
1.76906e-05
6.66616e-05
5.76247e-06
-2.05237e-05
-5.63037e-06
-0.000100398
-0.000240182
2.77701e-05
5.43957e-05
1.54098e-05
-8.1634e-06
6.58937e-07
-8.56467e-05
-0.000239523
3.57646e-05
3.93547e-05
1.6452e-05
1.11492e-05
-1.88191e-06
-6.73128e-05
-0.000241405
3.47057e-05
3.32196e-05
1.98804e-05
2.59745e-05
1.63656e-05
-6.3798e-05
-0.00022504
3.30316e-05
1.15823e-05
5.49141e-05
4.09207e-06
5.75686e-05
-6.64525e-05
-0.000167471
0.000229832
0.000233924
0.000167471
-1.78383e-05
1.78383e-05
-3.42311e-05
1.63927e-05
-3.7453e-05
3.22189e-06
-3.7453e-05
-2.92252e-05
4.70636e-05
-4.5799e-05
3.29665e-05
-4.30623e-05
4.8525e-07
-8.05153e-05
-4.11465e-05
8.82101e-05
-5.43447e-05
4.61647e-05
-3.36916e-05
-2.01678e-05
-0.000114207
-4.72882e-05
-5.42401e-05
-1.95672e-05
)
;

boundaryField
{
    movingWall
    {
        type            calculated;
        value           uniform 0;
    }
    fixedWalls
    {
        type            calculated;
        value           uniform 0;
    }
    frontAndBack
    {
        type            empty;
        value           nonuniform List<scalar> 0();
    }
}


// ************************************************************************* //
