/*--------------------------------*- C++ -*----------------------------------*\
  =========                 |
  \\      /  F ield         | OpenFOAM: The Open Source CFD Toolbox
   \\    /   O peration     | Website:  https://openfoam.org
    \\  /    A nd           | Version:  8
     \\/     M anipulation  |
\*---------------------------------------------------------------------------*/
FoamFile
{
    version     2.0;
    format      ascii;
    class       volVectorField;
    location    "16";
    object      U;
}
// * * * * * * * * * * * * * * * * * * * * * * * * * * * * * * * * * * * * * //

dimensions      [0 1 -1 0 0 0 0];

internalField   nonuniform List<vector> 
400
(
(1 -3.18607e-08 0)
(1 -1.97101e-07 0)
(1 -5.07503e-07 0)
(1 -9.77367e-07 0)
(1 -1.63885e-06 0)
(1 -2.53859e-06 0)
(1 -3.72906e-06 0)
(1 -5.2678e-06 0)
(1 -7.2163e-06 0)
(1 -9.6373e-06 0)
(1 -1.25905e-05 0)
(1 -1.61278e-05 0)
(1.00001 -2.02865e-05 0)
(1.00001 -2.50845e-05 0)
(1.00001 -3.05084e-05 0)
(1.00001 -3.65155e-05 0)
(1.00001 -4.29952e-05 0)
(1.00001 -4.98465e-05 0)
(1.00001 -5.6678e-05 0)
(1.00001 -6.39984e-05 0)
(1 -6.41265e-08 0)
(1 -2.95074e-07 0)
(1 -6.74365e-07 0)
(1 -1.20921e-06 0)
(1 -1.93344e-06 0)
(1 -2.8945e-06 0)
(1 -4.14518e-06 0)
(1 -5.74322e-06 0)
(1 -7.75015e-06 0)
(1 -1.02288e-05 0)
(1 -1.32395e-05 0)
(1 -1.68345e-05 0)
(1.00001 -2.1052e-05 0)
(1.00001 -2.59108e-05 0)
(1.00001 -3.13976e-05 0)
(1.00001 -3.74715e-05 0)
(1.00001 -4.40181e-05 0)
(1.00001 -5.09435e-05 0)
(1.00001 -5.78139e-05 0)
(1.00001 -6.5233e-05 0)
(1 -8.92811e-08 0)
(1 -3.81555e-07 0)
(1 -8.27975e-07 0)
(1 -1.42581e-06 0)
(1 -2.20887e-06 0)
(1 -3.22569e-06 0)
(1 -4.52981e-06 0)
(1 -6.17944e-06 0)
(1 -8.23644e-06 0)
(1 -1.0764e-05 0)
(1 -1.38227e-05 0)
(1 -1.74661e-05 0)
(1 -2.17338e-05 0)
(1.00001 -2.66466e-05 0)
(1.00001 -3.21946e-05 0)
(1.00001 -3.83416e-05 0)
(1.00001 -4.49783e-05 0)
(1.00001 -5.20205e-05 0)
(1.00001 -5.90346e-05 0)
(1.00001 -6.67744e-05 0)
(1 -1.04802e-07 0)
(1 -4.399e-07 0)
(1 -9.37841e-07 0)
(1 -1.58498e-06 0)
(1 -2.4138e-06 0)
(1 -3.47329e-06 0)
(1 -4.8172e-06 0)
(1 -6.50382e-06 0)
(1 -8.59503e-06 0)
(1 -1.11543e-05 0)
(1 -1.42433e-05 0)
(1 -1.79172e-05 0)
(1 -2.22191e-05 0)
(1 -2.7175e-05 0)
(1 -3.27824e-05 0)
(1.00001 -3.90147e-05 0)
(1.00001 -4.57777e-05 0)
(1.00001 -5.30101e-05 0)
(1.00001 -6.03025e-05 0)
(1.00001 -6.85914e-05 0)
(1 -1.14088e-07 0)
(1 -4.78915e-07 0)
(1 -1.01648e-06 0)
(1 -1.70322e-06 0)
(1 -2.56888e-06 0)
(1 -3.66203e-06 0)
(1 -5.03592e-06 0)
(1 -6.7484e-06 0)
(1 -8.86124e-06 0)
(1 -1.14384e-05 0)
(1 -1.4543e-05 0)
(1 -1.82335e-05 0)
(1 -2.25584e-05 0)
(1 -2.7552e-05 0)
(1 -3.32244e-05 0)
(1 -3.95648e-05 0)
(1 -4.65022e-05 0)
(1.00001 -5.40058e-05 0)
(1.00001 -6.16992e-05 0)
(1.00001 -7.07143e-05 0)
(1 -1.20206e-07 0)
(1 -5.05971e-07 0)
(1 -1.07305e-06 0)
(1 -1.78964e-06 0)
(1 -2.68252e-06 0)
(1 -3.7994e-06 0)
(1 -5.19249e-06 0)
(1 -6.91887e-06 0)
(1 -9.03998e-06 0)
(1 -1.16204e-05 0)
(1 -1.47255e-05 0)
(1 -1.84183e-05 0)
(1 -2.27547e-05 0)
(1 -2.77809e-05 0)
(1 -3.35238e-05 0)
(1 -3.99936e-05 0)
(1 -4.71505e-05 0)
(1 -5.49972e-05 0)
(1 -6.31969e-05 0)
(1.00001 -7.30942e-05 0)
(1 -1.24548e-07 0)
(1 -5.2443e-07 0)
(1 -1.11183e-06 0)
(1 -1.84841e-06 0)
(1 -2.75827e-06 0)
(1 -3.88796e-06 0)
(1 -5.28839e-06 0)
(1 -7.01556e-06 0)
(1 -9.13055e-06 0)
(1 -1.16988e-05 0)
(1 -1.47886e-05 0)
(1 -1.84684e-05 0)
(1 -2.2804e-05 0)
(1 -2.78557e-05 0)
(1 -3.36715e-05 0)
(1 -4.02869e-05 0)
(1 -4.76994e-05 0)
(1 -5.59486e-05 0)
(1 -6.47426e-05 0)
(1.00001 -7.56558e-05 0)
(1 -1.27599e-07 0)
(1 -5.36366e-07 0)
(1 -1.13602e-06 0)
(1 -1.88357e-06 0)
(1 -2.80084e-06 0)
(1 -3.93295e-06 0)
(1 -5.32926e-06 0)
(1 -7.0446e-06 0)
(1 -9.13962e-06 0)
(1 -1.16809e-05 0)
(1 -1.47399e-05 0)
(1 -1.83921e-05 0)
(1 -2.27144e-05 0)
(0.999999 -2.77838e-05 0)
(0.999999 -3.36721e-05 0)
(0.999999 -4.04439e-05 0)
(1 -4.81388e-05 0)
(1 -5.68357e-05 0)
(1 -6.62919e-05 0)
(1.00001 -7.8326e-05 0)
(1 -1.29701e-07 0)
(1 -5.43585e-07 0)
(1 -1.1486e-06 0)
(1 -1.89927e-06 0)
(1 -2.81559e-06 0)
(1 -3.94095e-06 0)
(1 -5.32308e-06 0)
(1 -7.01547e-06 0)
(1 -9.07837e-06 0)
(1 -1.15796e-05 0)
(1 -1.45945e-05 0)
(0.999999 -1.8206e-05 0)
(0.999999 -2.25034e-05 0)
(0.999999 -2.75821e-05 0)
(0.999998 -3.35401e-05 0)
(0.999998 -4.04732e-05 0)
(0.999998 -4.84665e-05 0)
(0.999999 -5.76401e-05 0)
(1 -6.7803e-05 0)
(1 -8.10282e-05 0)
(1 -1.31155e-07 0)
(1 -5.47106e-07 0)
(1 -1.15138e-06 0)
(1 -1.89831e-06 0)
(1 -2.80642e-06 0)
(1 -3.91719e-06 0)
(1 -5.2766e-06 0)
(1 -6.93678e-06 0)
(1 -8.95757e-06 0)
(0.999999 -1.14081e-05 0)
(0.999999 -1.43679e-05 0)
(0.999999 -1.79278e-05 0)
(0.999998 -2.21901e-05 0)
(0.999998 -2.72695e-05 0)
(0.999997 -3.32916e-05 0)
(0.999997 -4.03848e-05 0)
(0.999997 -4.86813e-05 0)
(0.999998 -5.83435e-05 0)
(0.999998 -6.92327e-05 0)
(1 -8.3683e-05 0)
(1 -1.3206e-07 0)
(1 -5.4714e-07 0)
(1 -1.14508e-06 0)
(1 -1.88207e-06 0)
(1 -2.77558e-06 0)
(1 -3.8651e-06 0)
(1 -5.19475e-06 0)
(1 -6.8153e-06 0)
(0.999999 -8.78621e-06 0)
(0.999999 -1.1178e-05 0)
(0.999999 -1.40743e-05 0)
(0.999998 -1.75741e-05 0)
(0.999998 -2.1793e-05 0)
(0.999997 -2.6865e-05 0)
(0.999997 -3.29433e-05 0)
(0.999996 -4.01897e-05 0)
(0.999996 -4.87833e-05 0)
(0.999997 -5.89292e-05 0)
(0.999997 -7.05395e-05 0)
(1 -8.62122e-05 0)
(1 -1.32324e-07 0)
(1 -5.43405e-07 0)
(1 -1.12968e-06 0)
(1 -1.85098e-06 0)
(1 -2.72421e-06 0)
(1 -3.78675e-06 0)
(1 -5.08097e-06 0)
(0.999999 -6.65628e-06 0)
(0.999999 -8.57176e-06 0)
(0.999999 -1.08993e-05 0)
(0.999998 -1.37266e-05 0)
(0.999998 -1.71606e-05 0)
(0.999997 -2.13296e-05 0)
(0.999997 -2.63869e-05 0)
(0.999996 -3.25121e-05 0)
(0.999996 -3.98998e-05 0)
(0.999995 -4.87744e-05 0)
(0.999996 -5.93835e-05 0)
(0.999996 -7.16867e-05 0)
(0.999999 -8.85439e-05 0)
(1 -1.31674e-07 0)
(1 -5.35195e-07 0)
(1 -1.10453e-06 0)
(1 -1.80465e-06 0)
(1 -2.65234e-06 0)
(1 -3.68299e-06 0)
(1 -4.93726e-06 0)
(0.999999 -6.46333e-06 0)
(0.999999 -8.31992e-06 0)
(0.999999 -1.05802e-05 0)
(0.999998 -1.33358e-05 0)
(0.999998 -1.67009e-05 0)
(0.999997 -2.08163e-05 0)
(0.999996 -2.58527e-05 0)
(0.999996 -3.20146e-05 0)
(0.999995 -3.95279e-05 0)
(0.999995 -4.86592e-05 0)
(0.999995 -5.96977e-05 0)
(0.999995 -7.26445e-05 0)
(0.999998 -9.06165e-05 0)
(1 -1.29648e-07 0)
(1 -5.2131e-07 0)
(1 -1.06825e-06 0)
(1 -1.74171e-06 0)
(1 -2.55882e-06 0)
(1 -3.55316e-06 0)
(0.999999 -4.76392e-06 0)
(0.999999 -6.2382e-06 0)
(0.999999 -8.03439e-06 0)
(0.999998 -1.02268e-05 0)
(0.999998 -1.29107e-05 0)
(0.999997 -1.62069e-05 0)
(0.999997 -2.02672e-05 0)
(0.999996 -2.52783e-05 0)
(0.999995 -3.14672e-05 0)
(0.999995 -3.90881e-05 0)
(0.999994 -4.84458e-05 0)
(0.999994 -5.9869e-05 0)
(0.999994 -7.33932e-05 0)
(0.999996 -9.23836e-05 0)
(1 -1.25659e-07 0)
(1 -5.00127e-07 0)
(1 -1.01877e-06 0)
(1 -1.65986e-06 0)
(1 -2.44132e-06 0)
(1 -3.39532e-06 0)
(0.999999 -4.55985e-06 0)
(0.999999 -5.98107e-06 0)
(0.999999 -7.71707e-06 0)
(0.999998 -9.84327e-06 0)
(0.999998 -1.2458e-05 0)
(0.999997 -1.56882e-05 0)
(0.999996 -1.96949e-05 0)
(0.999996 -2.46789e-05 0)
(0.999995 -3.08862e-05 0)
(0.999994 -3.85965e-05 0)
(0.999993 -4.81468e-05 0)
(0.999993 -5.99033e-05 0)
(0.999993 -7.39264e-05 0)
(0.999995 -9.38175e-05 0)
(1 -1.19059e-07 0)
(1 -4.69822e-07 0)
(1 -9.53785e-07 0)
(1 -1.5567e-06 0)
(1 -2.29769e-06 0)
(0.999999 -3.20795e-06 0)
(0.999999 -4.32454e-06 0)
(0.999999 -5.69285e-06 0)
(0.999998 -7.37077e-06 0)
(0.999998 -9.43462e-06 0)
(0.999997 -1.19855e-05 0)
(0.999997 -1.51553e-05 0)
(0.999996 -1.91132e-05 0)
(0.999995 -2.40711e-05 0)
(0.999994 -3.02909e-05 0)
(0.999994 -3.80734e-05 0)
(0.999993 -4.77821e-05 0)
(0.999993 -5.98172e-05 0)
(0.999993 -7.42534e-05 0)
(0.999994 -9.49129e-05 0)
(1 -1.08819e-07 0)
(1 -4.27803e-07 0)
(1 -8.70461e-07 0)
(1 -1.42998e-06 0)
(1 -2.12675e-06 0)
(0.999999 -2.99136e-06 0)
(0.999999 -4.06002e-06 0)
(0.999999 -5.3774e-06 0)
(0.999998 -7.0013e-06 0)
(0.999998 -9.009e-06 0)
(0.999997 -1.1504e-05 0)
(0.999996 -1.46224e-05 0)
(0.999996 -1.85393e-05 0)
(0.999995 -2.34755e-05 0)
(0.999994 -2.97054e-05 0)
(0.999993 -3.75463e-05 0)
(0.999993 -4.73809e-05 0)
(0.999993 -5.96397e-05 0)
(0.999992 -7.44014e-05 0)
(0.999993 -9.56874e-05 0)
(1 -9.21856e-08 0)
(1 -3.67893e-07 0)
(1 -7.61167e-07 0)
(1 -1.27214e-06 0)
(0.999999 -1.9217e-06 0)
(0.999999 -2.73971e-06 0)
(0.999999 -3.76146e-06 0)
(0.999998 -5.03082e-06 0)
(0.999998 -6.60554e-06 0)
(0.999997 -8.56409e-06 0)
(0.999997 -1.10125e-05 0)
(0.999996 -1.40903e-05 0)
(0.999995 -1.79771e-05 0)
(0.999995 -2.28997e-05 0)
(0.999994 -2.91418e-05 0)
(0.999993 -3.70337e-05 0)
(0.999993 -4.69684e-05 0)
(0.999992 -5.94026e-05 0)
(0.999992 -7.44101e-05 0)
(0.999993 -9.61835e-05 0)
(1 -6.51843e-08 0)
(1 -2.81729e-07 0)
(1 -6.13998e-07 0)
(1 -1.06759e-06 0)
(0.999999 -1.66311e-06 0)
(0.999999 -2.42957e-06 0)
(0.999999 -3.40149e-06 0)
(0.999998 -4.62195e-06 0)
(0.999998 -6.14847e-06 0)
(0.999997 -8.06088e-06 0)
(0.999996 -1.04682e-05 0)
(0.999996 -1.35133e-05 0)
(0.999995 -1.73793e-05 0)
(0.999995 -2.2298e-05 0)
(0.999994 -2.85596e-05 0)
(0.999993 -3.65033e-05 0)
(0.999993 -4.65292e-05 0)
(0.999992 -5.91101e-05 0)
(0.999992 -7.4308e-05 0)
(0.999992 -9.6454e-05 0)
(1 -3.2454e-08 0)
(1 -1.87444e-07 0)
(1 -4.58656e-07 0)
(1 -8.55194e-07 0)
(0.999999 -1.3966e-06 0)
(0.999999 -2.11135e-06 0)
(0.999999 -3.03381e-06 0)
(0.999998 -4.20709e-06 0)
(0.999998 -5.68878e-06 0)
(0.999997 -7.5595e-06 0)
(0.999996 -9.93068e-06 0)
(0.999996 -1.2949e-05 0)
(0.999995 -1.68013e-05 0)
(0.999994 -2.17228e-05 0)
(0.999994 -2.80074e-05 0)
(0.999993 -3.60023e-05 0)
(0.999993 -4.61098e-05 0)
(0.999992 -5.88159e-05 0)
(0.999992 -7.41591e-05 0)
(0.999992 -9.65719e-05 0)
)
;

boundaryField
{
    inlet
    {
        type            fixedValue;
        value           uniform (1 0 0);
    }
    outlet
    {
        type            zeroGradient;
    }
    up
    {
        type            zeroGradient;
    }
    down
    {
        type            zeroGradient;
    }
    frontAndBack
    {
        type            empty;
    }
}


// ************************************************************************* //
