/*--------------------------------*- C++ -*----------------------------------*\
  =========                 |
  \\      /  F ield         | OpenFOAM: The Open Source CFD Toolbox
   \\    /   O peration     | Website:  https://openfoam.org
    \\  /    A nd           | Version:  8
     \\/     M anipulation  |
\*---------------------------------------------------------------------------*/
FoamFile
{
    version     2.0;
    format      ascii;
    class       volScalarField;
    location    "0.775";
    object      T;
}
// * * * * * * * * * * * * * * * * * * * * * * * * * * * * * * * * * * * * * //

dimensions      [0 0 0 1 0 0 0];

internalField   nonuniform List<scalar> 
100
(
49.9835
4.78883
-4.7443
-1.38425
1.17595
0.844753
-0.289153
-0.733537
0.0082831
0.222487
95.2471
49.9776
11.0067
-4.81936
-3.41487
0.753227
2.1641
0.620145
-1.59109
-0.690866
104.75
88.9825
49.9859
13.3542
-4.43055
-4.90742
-0.476959
2.91074
2.04523
-0.439724
101.509
104.708
86.6846
49.6764
14.7733
-3.29167
-5.73943
-1.75047
1.97187
1.77445
98.5463
103.721
104.482
86.2576
48.8336
15.3032
-3.08427
-6.0699
0.578733
0.939315
99.2705
99.1015
104.873
102.941
85.6778
49.764
18.1219
-3.9332
-10.3294
-0.69379
100.144
97.9682
100.437
106.468
101.889
82.2976
49.5883
22.0473
-0.326023
-7.94315
101.145
98.9139
96.9689
100.334
109.539
102.437
79.6077
47.3824
17.2429
5.58318
100.031
101.613
98.0665
97.4875
99.7066
110.414
100.903
82.5697
49.5183
6.71297
99.5625
100.951
100.532
98.8664
97.2383
101.532
107.181
97.2257
93.1529
49.2178
)
;

boundaryField
{
    left
    {
        type            fixedValue;
        value           uniform 100;
    }
    right
    {
        type            zeroGradient;
    }
    up
    {
        type            zeroGradient;
    }
    down
    {
        type            fixedValue;
        value           uniform 0;
    }
    frontAndBack
    {
        type            empty;
    }
}


// ************************************************************************* //
