0 	-1.42961e-07
1.57135 	-4.18543e-06
3.1427 	-2.80286e-05
4.71405 	-0.000107428
6.28539 	-0.000331417
7.85674 	-0.000987306
9.42809 	-0.00290456
10.9994 	-0.00470544
12.5708 	-0.00386121
14.1421 	0.250601
