0 	1.46692e-07
1.57135 	-4.00379e-07
3.1427 	-5.74721e-06
4.71405 	-2.07578e-05
6.28539 	-5.39111e-05
7.85674 	-0.000125357
9.42809 	-0.000320574
10.9994 	-0.00129536
12.5708 	-0.00784351
14.1421 	0.227006
