/*--------------------------------*- C++ -*----------------------------------*\
  =========                 |
  \\      /  F ield         | OpenFOAM: The Open Source CFD Toolbox
   \\    /   O peration     | Website:  https://openfoam.org
    \\  /    A nd           | Version:  8
     \\/     M anipulation  |
\*---------------------------------------------------------------------------*/
FoamFile
{
    version     2.0;
    format      ascii;
    class       volScalarField;
    location    "1.94";
    object      p;
}
// * * * * * * * * * * * * * * * * * * * * * * * * * * * * * * * * * * * * * //

dimensions      [0 2 -2 0 0 0 0];

internalField   nonuniform List<scalar> 
400
(
-1.32841e-16
-6.00638e-16
-1.49936e-15
-2.32826e-15
-2.90746e-15
-3.30604e-15
-3.65082e-15
-3.93769e-15
-4.11912e-15
-4.28154e-15
-4.39023e-15
-4.46474e-15
-4.43997e-15
-4.29666e-15
-4.12948e-15
-3.85754e-15
-3.41146e-15
-2.77085e-15
-1.88488e-15
-8.83884e-16
-1.52215e-15
-1.66846e-15
-2.22249e-15
-2.77183e-15
-3.13034e-15
-3.43509e-15
-3.72228e-15
-3.94647e-15
-4.06822e-15
-4.25552e-15
-4.38788e-15
-4.49019e-15
-4.4276e-15
-4.30477e-15
-4.14997e-15
-3.94523e-15
-3.64595e-15
-3.20022e-15
-2.58059e-15
-1.97326e-15
-2.68569e-15
-2.75159e-15
-2.97096e-15
-3.23839e-15
-3.38175e-15
-3.57326e-15
-3.91524e-15
-4.13578e-15
-4.14928e-15
-4.31782e-15
-4.46493e-15
-4.54251e-15
-4.46372e-15
-4.4537e-15
-4.25255e-15
-4.04616e-15
-3.91546e-15
-3.5205e-15
-3.25048e-15
-3.01866e-15
-3.59437e-15
-3.56702e-15
-3.59021e-15
-3.65348e-15
-3.69743e-15
-3.884e-15
-4.13856e-15
-4.40051e-15
-4.31243e-15
-4.35392e-15
-4.59832e-15
-4.67309e-15
-4.61192e-15
-4.58617e-15
-4.46523e-15
-4.28446e-15
-4.13636e-15
-3.86998e-15
-3.70957e-15
-3.87722e-15
-4.24754e-15
-4.00424e-15
-4.09723e-15
-4.14649e-15
-4.07842e-15
-4.21355e-15
-4.39463e-15
-4.57941e-15
-4.69603e-15
-4.57129e-15
-4.80125e-15
-4.73826e-15
-4.64239e-15
-4.74318e-15
-4.62903e-15
-4.41949e-15
-4.50388e-15
-4.36741e-15
-4.23088e-15
-4.32229e-15
-4.78128e-15
-4.43589e-15
-4.52781e-15
-4.5655e-15
-4.49102e-15
-4.60213e-15
-4.71555e-15
-4.69896e-15
-4.8487e-15
-4.91876e-15
-5.05965e-15
-4.81347e-15
-4.57931e-15
-4.89714e-15
-4.82801e-15
-4.69898e-15
-4.95525e-15
-4.60349e-15
-4.59149e-15
-4.93352e-15
-5.22017e-15
-4.92555e-15
-4.83687e-15
-5.17572e-15
-4.95483e-15
-4.83943e-15
-4.75707e-15
-4.65081e-15
-5.05205e-15
-5.25626e-15
-5.39329e-15
-4.9943e-15
-4.76522e-15
-4.9747e-15
-5.009e-15
-4.90795e-15
-5.09575e-15
-5.10223e-15
-5.01214e-15
-5.17506e-15
-5.42283e-15
-5.35989e-15
-5.33122e-15
-5.55392e-15
-5.3094e-15
-4.77068e-15
-4.88446e-15
-5.1765e-15
-5.35679e-15
-5.62692e-15
-5.83888e-15
-5.30001e-15
-4.77541e-15
-5.28209e-15
-5.15078e-15
-4.97941e-15
-5.4297e-15
-5.75784e-15
-5.67628e-15
-5.53438e-15
-5.57687e-15
-5.56e-15
-5.46242e-15
-5.59698e-15
-5.55108e-15
-5.15758e-15
-5.14777e-15
-5.39253e-15
-5.63818e-15
-5.68933e-15
-5.66865e-15
-5.45474e-15
-5.15728e-15
-5.63059e-15
-5.57305e-15
-5.59717e-15
-5.73993e-15
-6.20183e-15
-6.08034e-15
-5.86336e-15
-6.03729e-15
-5.75858e-15
-5.49943e-15
-5.5634e-15
-5.39117e-15
-5.39725e-15
-5.20738e-15
-5.47228e-15
-5.88606e-15
-5.66106e-15
-5.62634e-15
-5.64994e-15
-5.66096e-15
-5.88488e-15
-6.09912e-15
-6.04668e-15
-6.13939e-15
-6.54167e-15
-6.65743e-15
-6.83783e-15
-6.55187e-15
-6.05385e-15
-5.63646e-15
-5.46466e-15
-4.97956e-15
-5.17777e-15
-5.20888e-15
-5.63185e-15
-5.8488e-15
-5.59385e-15
-5.67853e-15
-5.8092e-15
-5.6233e-15
-6.00985e-15
-7.04235e-15
-6.76785e-15
-6.58401e-15
-7.02758e-15
-7.17258e-15
-7.06528e-15
-7.05104e-15
-6.31858e-15
-6.48263e-15
-5.90439e-15
-5.02453e-15
-5.30773e-15
-4.97229e-15
-5.52874e-15
-5.85032e-15
-5.72066e-15
-5.84996e-15
-6.04623e-15
-6.03415e-15
-6.21908e-15
-6.89727e-15
-7.12652e-15
-7.23387e-15
-7.64903e-15
-7.94416e-15
-7.69886e-15
-7.63487e-15
-7.06183e-15
-6.95311e-15
-5.95957e-15
-5.27577e-15
-5.37302e-15
-5.56068e-15
-6.22089e-15
-5.52695e-15
-5.15991e-15
-5.90134e-15
-6.2931e-15
-6.6064e-15
-6.57562e-15
-6.59658e-15
-7.10739e-15
-7.73382e-15
-8.79482e-15
-8.80116e-15
-8.15896e-15
-8.26766e-15
-8.00889e-15
-7.13671e-15
-6.02546e-15
-5.25127e-15
-6.04158e-15
-6.57635e-15
-6.88376e-15
-5.44709e-15
-5.67179e-15
-6.45584e-15
-6.80089e-15
-7.0619e-15
-7.27818e-15
-7.38486e-15
-7.72468e-15
-7.82147e-15
-8.04494e-15
-8.94315e-15
-8.50094e-15
-8.92593e-15
-8.39972e-15
-6.83832e-15
-6.43872e-15
-6.69695e-15
-6.67835e-15
-6.64319e-15
-6.91466e-15
-6.6383e-15
-6.43678e-15
-7.10595e-15
-7.0705e-15
-7.48917e-15
-7.72264e-15
-7.78525e-15
-7.73996e-15
-7.62031e-15
-8.17703e-15
-9.15311e-15
-8.63397e-15
-9.25039e-15
-8.78259e-15
-6.98458e-15
-6.77228e-15
-6.80837e-15
-7.08358e-15
-6.53735e-15
-6.5043e-15
-7.21345e-15
-6.94317e-15
-6.65981e-15
-7.3364e-15
-7.67627e-15
-7.61427e-15
-7.93056e-15
-8.07855e-15
-7.69836e-15
-8.28567e-15
-9.54514e-15
-9.10786e-15
-9.0332e-15
-9.08107e-15
-7.70995e-15
-6.84266e-15
-6.97106e-15
-6.88515e-15
-6.18953e-15
-6.70181e-15
-6.96289e-15
-6.72193e-15
-6.76393e-15
-7.21588e-15
-7.95827e-15
-7.87668e-15
-8.22155e-15
-8.38802e-15
-8.01262e-15
-8.2727e-15
-9.08427e-15
-9.00196e-15
-8.79939e-15
-8.77254e-15
-8.22321e-15
-7.42653e-15
-7.13589e-15
-6.80658e-15
-5.83591e-15
-7.17626e-15
-7.39474e-15
-6.4175e-15
-6.74683e-15
-7.51638e-15
-8.20249e-15
-8.08648e-15
-8.19021e-15
-8.12172e-15
-8.246e-15
-8.5371e-15
-9.38347e-15
-8.78252e-15
-8.60929e-15
-8.9489e-15
-8.69452e-15
-7.26568e-15
-6.70356e-15
-6.47582e-15
-6.27988e-15
-7.16859e-15
-7.64702e-15
-6.92287e-15
-6.64394e-15
-7.81551e-15
-8.01346e-15
-8.20391e-15
-8.67746e-15
-8.32168e-15
-8.10399e-15
-9.2509e-15
-9.7534e-15
-9.09724e-15
-8.75775e-15
-8.42227e-15
-8.92122e-15
-8.25053e-15
-7.25755e-15
-6.88375e-15
-5.54284e-15
-6.22421e-15
-7.27311e-15
-7.90412e-15
-6.78577e-15
-7.24896e-15
-8.50196e-15
-8.87792e-15
-8.58418e-15
-8.18618e-15
-7.63674e-15
-9.41111e-15
-9.94151e-15
-9.25915e-15
)
;

boundaryField
{
    movingWall
    {
        type            zeroGradient;
    }
    fixedWalls
    {
        type            zeroGradient;
    }
    left
    {
        type            cyclic;
    }
    right
    {
        type            cyclic;
    }
    frontAndBack
    {
        type            empty;
    }
}


// ************************************************************************* //
