/*--------------------------------*- C++ -*----------------------------------*\
  =========                 |
  \\      /  F ield         | OpenFOAM: The Open Source CFD Toolbox
   \\    /   O peration     | Website:  https://openfoam.org
    \\  /    A nd           | Version:  8
     \\/     M anipulation  |
\*---------------------------------------------------------------------------*/
FoamFile
{
    version     2.0;
    format      ascii;
    class       volVectorField;
    location    "96";
    object      U;
}
// * * * * * * * * * * * * * * * * * * * * * * * * * * * * * * * * * * * * * //

dimensions      [0 1 -1 0 0 0 0];

internalField   nonuniform List<vector> 
400
(
(1 1.1284e-16 0)
(1 3.34524e-17 0)
(1 1.08789e-16 0)
(1 1.30296e-16 0)
(1 1.15078e-16 0)
(1 1.29042e-16 0)
(1 1.89758e-16 0)
(1 1.95566e-16 0)
(1 1.42388e-16 0)
(1 1.28533e-16 0)
(1 8.44184e-17 0)
(1 2.28475e-18 0)
(1 -3.56901e-17 0)
(1 -2.95044e-17 0)
(1 -1.2978e-17 0)
(1 -4.16095e-17 0)
(1 -1.73444e-16 0)
(1 -1.87721e-16 0)
(1 -1.58109e-16 0)
(1 -2.41109e-16 0)
(1 1.05671e-16 0)
(1 3.77346e-17 0)
(1 1.22527e-16 0)
(1 1.58557e-16 0)
(1 1.31065e-16 0)
(1 1.55905e-16 0)
(1 1.864e-16 0)
(1 1.77331e-16 0)
(1 1.93391e-16 0)
(1 1.35513e-16 0)
(1 4.17995e-17 0)
(1 -7.60289e-17 0)
(1 -7.26936e-17 0)
(1 -8.17422e-18 0)
(1 -5.97376e-18 0)
(1 -8.81945e-17 0)
(1 -1.87499e-16 0)
(1 -1.77921e-16 0)
(1 -1.54196e-16 0)
(1 -2.24351e-16 0)
(1 -1.99156e-17 0)
(1 1.00101e-16 0)
(1 1.54671e-16 0)
(1 1.28994e-16 0)
(1 7.49368e-17 0)
(1 1.26875e-16 0)
(1 1.38766e-16 0)
(1 1.45887e-16 0)
(1 1.75376e-16 0)
(1 1.44809e-16 0)
(1 7.28182e-17 0)
(1 -5.46885e-17 0)
(1 -7.10297e-17 0)
(1 -2.26062e-17 0)
(1 -3.23193e-18 0)
(1 -7.03987e-17 0)
(1 -1.6337e-16 0)
(1 -2.00931e-16 0)
(1 -2.07191e-16 0)
(1 -2.20187e-16 0)
(1 -9.89856e-17 0)
(1 8.14301e-17 0)
(1 1.60622e-16 0)
(1 1.33219e-16 0)
(1 2.9423e-17 0)
(1 -1.1085e-17 0)
(1 6.96144e-17 0)
(1 1.37486e-16 0)
(1 1.03477e-16 0)
(1 1.28634e-16 0)
(1 1.21577e-16 0)
(1 3.35282e-17 0)
(1 -7.70265e-18 0)
(1 -9.25774e-17 0)
(1 -1.3832e-17 0)
(1 -3.55331e-17 0)
(1 -1.50046e-16 0)
(1 -2.40157e-16 0)
(1 -2.31597e-16 0)
(1 -3.12265e-16 0)
(1 -3.7062e-17 0)
(1 6.51468e-17 0)
(1 7.24303e-17 0)
(1 8.61653e-17 0)
(1 5.79898e-17 0)
(1 1.2813e-18 0)
(1 3.10478e-17 0)
(1 6.46857e-17 0)
(1 5.98596e-17 0)
(1 1.18756e-16 0)
(1 6.28476e-17 0)
(1 8.68976e-17 0)
(1 5.06642e-17 0)
(1 -6.45975e-17 0)
(1 -5.8736e-17 0)
(1 -1.12191e-16 0)
(1 -1.1354e-16 0)
(1 -2.37035e-16 0)
(1 -2.88979e-16 0)
(1 -3.327e-16 0)
(1 4.01976e-17 0)
(1 1.04516e-16 0)
(1 1.15728e-16 0)
(1 1.55964e-17 0)
(1 1.17889e-17 0)
(1 4.31587e-17 0)
(1 6.00947e-17 0)
(1 -4.6632e-18 0)
(1 5.12786e-17 0)
(1 4.01966e-17 0)
(1 -2.57377e-17 0)
(1 -1.13172e-18 0)
(1 2.03488e-17 0)
(1 -2.43837e-17 0)
(1 -7.84756e-17 0)
(1 -8.36313e-17 0)
(1 -1.3396e-16 0)
(1 -1.70577e-16 0)
(1 -3.01222e-16 0)
(1 -3.10028e-16 0)
(1 8.93086e-17 0)
(1 9.6955e-17 0)
(1 1.4504e-16 0)
(1 1.08896e-16 0)
(1 1.74624e-17 0)
(1 1.35078e-17 0)
(1 -2.54282e-17 0)
(1 -4.60428e-17 0)
(1 -4.87108e-18 0)
(1 -9.15707e-17 0)
(1 -7.29523e-17 0)
(1 -8.93536e-17 0)
(1 -6.91351e-17 0)
(1 -5.12566e-17 0)
(1 -5.29951e-17 0)
(1 -8.75859e-17 0)
(1 -1.17681e-16 0)
(1 -1.29045e-16 0)
(1 -2.15331e-16 0)
(1 -2.71934e-16 0)
(1 1.21878e-16 0)
(1 7.13035e-17 0)
(1 1.65961e-17 0)
(1 1.86541e-16 0)
(1 1.43957e-16 0)
(1 7.40541e-17 0)
(1 -9.2133e-17 0)
(1 -1.04106e-16 0)
(1 -1.36628e-16 0)
(1 -1.60018e-16 0)
(1 -8.52773e-17 0)
(1 -8.76721e-17 0)
(1 -1.41477e-16 0)
(1 -7.81088e-17 0)
(1 -1.12911e-16 0)
(1 -1.06485e-16 0)
(1 -4.49397e-17 0)
(1 -1.19259e-16 0)
(1 -1.4611e-16 0)
(1 -6.84632e-17 0)
(1 7.98117e-17 0)
(1 6.7177e-17 0)
(1 -7.31417e-18 0)
(1 9.92272e-17 0)
(1 1.45056e-16 0)
(1 6.53628e-17 0)
(1 -4.86037e-17 0)
(1 -1.13049e-16 0)
(1 -1.71612e-16 0)
(1 -1.9004e-16 0)
(1 -1.29375e-16 0)
(1 -9.92197e-17 0)
(1 -1.20702e-16 0)
(1 -1.55201e-16 0)
(1 -1.71317e-16 0)
(1 -9.81725e-17 0)
(1 -6.55635e-17 0)
(1 -7.74346e-17 0)
(1 -4.35358e-17 0)
(1 -8.5104e-18 0)
(1 5.34318e-17 0)
(1 3.52249e-17 0)
(1 -4.18964e-17 0)
(1 -1.06951e-17 0)
(1 1.18643e-17 0)
(1 1.84388e-17 0)
(1 -4.30677e-17 0)
(1 -1.01809e-16 0)
(1 -1.71448e-16 0)
(1 -1.73533e-16 0)
(1 -1.40635e-16 0)
(1 -8.39114e-17 0)
(1 -1.08454e-16 0)
(1 -1.85874e-16 0)
(1 -1.51844e-16 0)
(1 -1.09655e-16 0)
(1 -9.10054e-17 0)
(1 -9.78285e-17 0)
(1 2.38947e-17 0)
(1 -2.27314e-17 0)
(1 4.09186e-17 0)
(1 -2.22801e-17 0)
(1 -8.52619e-17 0)
(1 -9.76003e-17 0)
(1 -4.10222e-17 0)
(1 -3.43913e-17 0)
(1 -5.43918e-17 0)
(1 -1.36039e-16 0)
(1 -1.87283e-16 0)
(1 -1.18305e-16 0)
(1 -1.25487e-16 0)
(1 -9.43422e-17 0)
(1 -8.17222e-17 0)
(1 -1.11697e-16 0)
(1 -1.5189e-16 0)
(1 -9.97912e-17 0)
(1 -9.2423e-17 0)
(1 -7.15098e-17 0)
(1 -2.9959e-17 0)
(1 -2.85021e-17 0)
(1 -3.87462e-17 0)
(1 -8.38468e-17 0)
(1 -6.55933e-17 0)
(1 -1.4718e-16 0)
(1 -3.61108e-17 0)
(1 -5.49007e-17 0)
(1 -1.1484e-16 0)
(1 -1.81751e-16 0)
(1 -1.65002e-16 0)
(1 -7.06091e-17 0)
(1 -1.30451e-16 0)
(1 -1.30742e-16 0)
(1 -2.62059e-17 0)
(1 -1.93292e-17 0)
(1 -6.6284e-17 0)
(1 -4.8602e-17 0)
(1 -8.98489e-17 0)
(1 -6.90157e-17 0)
(1 -1.39048e-16 0)
(1 -1.53213e-16 0)
(1 -1.22923e-16 0)
(1 -1.47288e-16 0)
(1 -8.42194e-17 0)
(1 -8.59472e-17 0)
(1 -8.40922e-17 0)
(1 -3.56131e-17 0)
(1 -1.29176e-16 0)
(1 -2.26744e-16 0)
(1 -1.33481e-16 0)
(1 -9.84633e-17 0)
(1 -1.38285e-16 0)
(1 -1.20376e-16 0)
(1 -2.35815e-17 0)
(1 4.24879e-17 0)
(1 8.40682e-17 0)
(1 -5.82046e-17 0)
(1 -1.2421e-16 0)
(1 -1.0086e-16 0)
(1 -1.91872e-16 0)
(1 -1.97805e-16 0)
(1 -1.30753e-16 0)
(1 -1.51872e-16 0)
(1 -1.2428e-16 0)
(1 -6.35076e-17 0)
(1 -8.73899e-17 0)
(1 -1.08401e-16 0)
(1 -1.24825e-16 0)
(1 -2.06431e-16 0)
(1 -1.32656e-16 0)
(1 -1.07465e-16 0)
(1 -1.14191e-16 0)
(1 -6.82122e-17 0)
(1 -4.87381e-17 0)
(1 5.77839e-18 0)
(1 3.46839e-17 0)
(1 -1.33847e-16 0)
(1 -1.54428e-16 0)
(1 -1.00016e-16 0)
(1 -2.18184e-16 0)
(1 -2.16443e-16 0)
(1 -4.82358e-17 0)
(1 -1.33898e-16 0)
(1 -1.1831e-16 0)
(1 -1.05972e-16 0)
(1 -9.1121e-17 0)
(1 -1.35395e-16 0)
(1 -1.49306e-16 0)
(1 -1.16061e-16 0)
(1 -1.18892e-16 0)
(1 -7.54116e-17 0)
(1 -9.64474e-17 0)
(1 -3.35833e-17 0)
(1 -6.41269e-17 0)
(1 -9.10077e-17 0)
(1 -1.0378e-16 0)
(1 -9.48855e-17 0)
(1 -1.35899e-16 0)
(1 -1.78295e-16 0)
(1 -1.80618e-16 0)
(1 -1.73829e-16 0)
(1 1.73784e-17 0)
(1 -1.046e-16 0)
(1 -1.16065e-16 0)
(1 -1.06313e-16 0)
(1 -1.84214e-16 0)
(1 -1.16415e-16 0)
(1 -1.06324e-16 0)
(1 -5.07299e-17 0)
(1 -7.6354e-17 0)
(1 -9.15551e-17 0)
(1 -8.69763e-17 0)
(1 -6.35432e-17 0)
(1 -2.99005e-17 0)
(1 -1.02784e-16 0)
(1 -9.75022e-17 0)
(1 -9.4023e-17 0)
(1 -1.32858e-16 0)
(1 -2.23293e-16 0)
(1 -1.03931e-16 0)
(1 -1.32634e-16 0)
(1 1.30758e-17 0)
(1 -7.35772e-17 0)
(1 -1.63128e-16 0)
(1 -1.5225e-16 0)
(1 -2.17385e-16 0)
(1 -1.8675e-16 0)
(1 -8.64e-17 0)
(1 -1.07225e-17 0)
(1 1.08677e-17 0)
(1 -9.07299e-17 0)
(1 -8.03621e-17 0)
(1 -9.69063e-17 0)
(1 -4.61798e-17 0)
(1 -4.02613e-18 0)
(1 -1.72358e-17 0)
(1 -1.4135e-16 0)
(1 -1.67777e-16 0)
(1 -1.87327e-16 0)
(1 -1.54491e-16 0)
(1 -1.29658e-16 0)
(1 2.92096e-18 0)
(1 -5.58846e-17 0)
(1 -1.65247e-16 0)
(1 -2.24842e-16 0)
(1 -1.85593e-16 0)
(1 -2.1264e-16 0)
(1 -1.32845e-16 0)
(1 -1.54583e-17 0)
(1 -2.04104e-18 0)
(1 -7.99985e-17 0)
(1 -6.06718e-17 0)
(1 -1.01379e-16 0)
(1 6.67656e-18 0)
(1 5.93474e-17 0)
(1 -2.9824e-17 0)
(1 -1.18345e-16 0)
(1 -1.7465e-16 0)
(1 -1.46042e-16 0)
(1 -1.52354e-16 0)
(1 -1.34174e-16 0)
(1 -6.62888e-18 0)
(1 -6.78278e-17 0)
(1 -1.29838e-16 0)
(1 -1.73519e-16 0)
(1 -1.71324e-16 0)
(1 -2.07758e-16 0)
(1 -1.92899e-16 0)
(1 -9.54645e-17 0)
(1 -1.09515e-16 0)
(1 -1.10541e-16 0)
(1 -1.95019e-17 0)
(1 -4.54225e-17 0)
(1 7.94135e-17 0)
(1 6.14116e-17 0)
(1 -9.04057e-17 0)
(1 -7.68339e-17 0)
(1 -1.23353e-16 0)
(1 -1.08731e-16 0)
(1 -1.20087e-16 0)
(1 -1.65441e-16 0)
(1 -8.83872e-18 0)
(1 -6.44599e-17 0)
(1 -1.01211e-16 0)
(1 -1.28932e-16 0)
(1 -1.60588e-16 0)
(1 -2.03626e-16 0)
(1 -2.28053e-16 0)
(1 -1.72925e-16 0)
(1 -1.49208e-16 0)
(1 -1.43062e-16 0)
(1 -4.28256e-17 0)
(1 9.62024e-18 0)
(1 3.76421e-17 0)
(1 4.96337e-17 0)
(1 -4.92582e-17 0)
(1 -4.64342e-17 0)
(1 -8.19757e-17 0)
(1 -1.00304e-16 0)
(1 -1.51136e-16 0)
(1 -1.54404e-16 0)
)
;

boundaryField
{
    inlet
    {
        type            fixedValue;
        value           uniform (1 0 0);
    }
    outlet
    {
        type            zeroGradient;
    }
    up
    {
        type            zeroGradient;
    }
    down
    {
        type            zeroGradient;
    }
    frontAndBack
    {
        type            empty;
    }
}


// ************************************************************************* //
