0 	-9.22387e-08
1.57135 	6.01568e-06
3.1427 	-0.000126455
4.71405 	-0.000468298
6.28539 	-0.00134306
7.85674 	-0.00353527
9.42809 	-0.00793174
10.9994 	-0.0155018
12.5708 	0.00565491
14.1421 	0.0482128
