/*--------------------------------*- C++ -*----------------------------------*\
  =========                 |
  \\      /  F ield         | OpenFOAM: The Open Source CFD Toolbox
   \\    /   O peration     | Website:  https://openfoam.org
    \\  /    A nd           | Version:  8
     \\/     M anipulation  |
\*---------------------------------------------------------------------------*/
FoamFile
{
    version     2.0;
    format      ascii;
    class       surfaceScalarField;
    location    "32";
    object      phi;
}
// * * * * * * * * * * * * * * * * * * * * * * * * * * * * * * * * * * * * * //

dimensions      [0 3 -1 0 0 0 0];

internalField   nonuniform List<scalar> 
760
(
0.0004
-4.93664e-15
0.0004
-2.31669e-14
0.0004
-5.31834e-14
0.0004
-9.6552e-14
0.0004
-1.5572e-13
0.0004
-2.33984e-13
0.0004
-3.35355e-13
0.0004
-4.64615e-13
0.0004
-6.27446e-13
0.0004
-8.30618e-13
0.0004
-1.08219e-12
0.0004
-1.39176e-12
0.0004
-1.7707e-12
0.0004
-2.23259e-12
0.0004
-2.79351e-12
0.0004
-3.47277e-12
0.0004
-4.29207e-12
0.0004
-5.28424e-12
0.0004
-6.43895e-12
-8.09003e-12
0.0004
-7.61439e-15
0.0004
-3.10734e-14
0.0004
-6.65022e-14
0.0004
-1.14867e-13
0.0004
-1.78747e-13
0.0004
-2.61575e-13
0.0004
-3.67408e-13
0.0004
-5.01032e-13
0.0004
-6.68103e-13
0.0004
-8.75341e-13
0.0004
-1.13073e-12
0.0004
-1.44375e-12
0.0004
-1.82567e-12
0.0004
-2.28992e-12
0.0004
-2.85241e-12
0.0004
-3.53221e-12
0.0004
-4.35097e-12
0.0004
-5.34099e-12
0.0004
-6.49245e-12
-8.13908e-12
0.0004
-9.46705e-15
0.0004
-3.73469e-14
0.0004
-7.76675e-14
0.0004
-1.30724e-13
0.0004
-1.9907e-13
0.0004
-2.86227e-13
0.0004
-3.96288e-13
0.0004
-5.3405e-13
0.0004
-7.05159e-13
0.0004
-9.16291e-13
0.0004
-1.17537e-12
0.0004
-1.49179e-12
0.0004
-1.87674e-12
0.0004
-2.34351e-12
0.0004
-2.90793e-12
0.0004
-3.58891e-12
0.0004
-4.40814e-12
0.0004
-5.3978e-12
0.0004
-6.54923e-12
-8.19664e-12
0.0004
-1.06697e-14
0.0004
-4.1956e-14
0.0004
-8.63809e-14
0.0004
-1.43571e-13
0.0004
-2.15955e-13
0.0004
-3.07072e-13
0.0004
-4.21031e-13
0.0004
-5.62632e-13
0.0004
-7.3751e-13
0.0004
-9.52313e-13
0.0004
-1.21491e-12
0.0004
-1.53466e-12
0.0004
-1.92265e-12
0.0004
-2.39214e-12
0.0004
-2.95888e-12
0.0004
-3.64172e-12
0.0004
-4.46246e-12
0.0004
-5.4533e-12
0.0004
-6.60676e-12
-8.25681e-12
0.0004
-1.1494e-14
0.0004
-4.52968e-14
0.0004
-9.29614e-14
0.0004
-1.53565e-13
0.0004
-2.29369e-13
0.0004
-3.23904e-13
0.0004
-4.41271e-13
0.0004
-5.86264e-13
0.0004
-7.64502e-13
0.0004
-9.82615e-13
0.0004
-1.24844e-12
0.0004
-1.57129e-12
0.0004
-1.96223e-12
0.0004
-2.43446e-12
0.0004
-3.00373e-12
0.0004
-3.68887e-12
0.0004
-4.51185e-12
0.0004
-5.50486e-12
0.0004
-6.66151e-12
-8.31539e-12
0.0004
-1.20717e-14
0.0004
-4.769e-14
0.0004
-9.78031e-14
0.0004
-1.61073e-13
0.0004
-2.39605e-13
0.0004
-3.36917e-13
0.0004
-4.57094e-13
0.0004
-6.04913e-13
0.0004
-7.85986e-13
0.0004
-1.00692e-12
0.0004
-1.27555e-12
0.0004
-1.60115e-12
0.0004
-1.99476e-12
0.0004
-2.46957e-12
0.0004
-3.04135e-12
0.0004
-3.72893e-12
0.0004
-4.55447e-12
0.0004
-5.55013e-12
0.0004
-6.71047e-12
-8.36874e-12
0.0004
-1.24708e-14
0.0004
-4.93586e-14
0.0004
-1.01248e-13
0.0004
-1.66485e-13
0.0004
-2.47065e-13
0.0004
-3.46489e-13
0.0004
-4.68828e-13
0.0004
-6.1885e-13
0.0004
-8.02157e-13
0.0004
-1.02535e-12
0.0004
-1.29624e-12
0.0004
-1.6241e-12
0.0004
-2.01997e-12
0.0004
-2.49702e-12
0.0004
-3.07105e-12
0.0004
-3.76094e-12
0.0004
-4.58897e-12
0.0004
-5.5873e-12
0.0004
-6.75121e-12
-8.41372e-12
0.0004
-1.27285e-14
0.0004
-5.04558e-14
0.0004
-1.0355e-13
0.0004
-1.70129e-13
0.0004
-2.52122e-13
0.0004
-3.53016e-13
0.0004
-4.76875e-13
0.0004
-6.2846e-13
0.0004
-8.13369e-13
0.0004
-1.0382e-12
0.0004
-1.31076e-12
0.0004
-1.64032e-12
0.0004
-2.03791e-12
0.0004
-2.51671e-12
0.0004
-3.09254e-12
0.0004
-3.78433e-12
0.0004
-4.61446e-12
0.0004
-5.61508e-12
0.0004
-6.78196e-12
-8.44796e-12
0.0004
-1.28628e-14
0.0004
-5.10796e-14
0.0004
-1.0488e-13
0.0004
-1.72243e-13
0.0004
-2.55062e-13
0.0004
-3.56821e-13
0.0004
-4.81581e-13
0.0004
-6.34103e-13
0.0004
-8.19985e-13
0.0004
-1.04582e-12
0.0004
-1.31942e-12
0.0004
-1.65005e-12
0.0004
-2.04875e-12
0.0004
-2.52871e-12
0.0004
-3.10576e-12
0.0004
-3.79885e-12
0.0004
-4.63045e-12
0.0004
-5.63265e-12
0.0004
-6.80156e-12
-8.46986e-12
0.0004
-1.2888e-14
0.0004
-5.12802e-14
0.0004
-1.05332e-13
0.0004
-1.72962e-13
0.0004
-2.56061e-13
0.0004
-3.58111e-13
0.0004
-4.83179e-13
0.0004
-6.36029e-13
0.0004
-8.22259e-13
0.0004
-1.04847e-12
0.0004
-1.32247e-12
0.0004
-1.65352e-12
0.0004
-2.05269e-12
0.0004
-2.53314e-12
0.0004
-3.11072e-12
0.0004
-3.8044e-12
0.0004
-4.63667e-12
0.0004
-5.63958e-12
0.0004
-6.80934e-12
-8.47847e-12
0.0004
-1.28159e-14
0.0004
-5.10685e-14
0.0004
-1.04931e-13
0.0004
-1.72331e-13
0.0004
-2.55175e-13
0.0004
-3.56954e-13
0.0004
-4.81747e-13
0.0004
-6.34323e-13
0.0004
-8.20283e-13
0.0004
-1.04623e-12
0.0004
-1.31998e-12
0.0004
-1.65081e-12
0.0004
-2.04976e-12
0.0004
-2.53002e-12
0.0004
-3.10741e-12
0.0004
-3.80094e-12
0.0004
-4.63301e-12
0.0004
-5.63568e-12
0.0004
-6.80504e-12
-8.47343e-12
0.0004
-1.26491e-14
0.0004
-5.04247e-14
0.0004
-1.03643e-13
0.0004
-1.70301e-13
0.0004
-2.52343e-13
0.0004
-3.5328e-13
0.0004
-4.77204e-13
0.0004
-6.28896e-13
0.0004
-8.13963e-13
0.0004
-1.03901e-12
0.0004
-1.31187e-12
0.0004
-1.6418e-12
0.0004
-2.03988e-12
0.0004
-2.51928e-12
0.0004
-3.0958e-12
0.0004
-3.78842e-12
0.0004
-4.61949e-12
0.0004
-5.62102e-12
0.0004
-6.78878e-12
-8.45495e-12
0.0004
-1.23758e-14
0.0004
-4.92993e-14
0.0004
-1.01371e-13
0.0004
-1.66732e-13
0.0004
-2.47387e-13
0.0004
-3.46879e-13
0.0004
-4.69318e-13
0.0004
-6.19497e-13
0.0004
-8.03034e-13
0.0004
-1.02655e-12
0.0004
-1.29786e-12
0.0004
-1.62628e-12
0.0004
-2.02285e-12
0.0004
-2.50076e-12
0.0004
-3.07579e-12
0.0004
-3.76689e-12
0.0004
-4.59627e-12
0.0004
-5.59592e-12
0.0004
-6.7611e-12
-8.42383e-12
0.0004
-1.19684e-14
0.0004
-4.76043e-14
0.0004
-9.79498e-14
0.0004
-1.61387e-13
0.0004
-2.4002e-13
0.0004
-3.37425e-13
0.0004
-4.57734e-13
0.0004
-6.05759e-13
0.0004
-7.8713e-13
0.0004
-1.00848e-12
0.0004
-1.27765e-12
0.0004
-1.60395e-12
0.0004
-1.99846e-12
0.0004
-2.47436e-12
0.0004
-3.0474e-12
0.0004
-3.73654e-12
0.0004
-4.56378e-12
0.0004
-5.5611e-12
0.0004
-6.72306e-12
-8.38154e-12
0.0004
-1.13849e-14
0.0004
-4.51969e-14
0.0004
-9.31277e-14
0.0004
-1.53937e-13
0.0004
-2.29864e-13
0.0004
-3.24517e-13
0.0004
-4.42049e-13
0.0004
-5.87291e-13
0.0004
-7.65886e-13
0.0004
-9.84485e-13
0.0004
-1.25096e-12
0.0004
-1.57465e-12
0.0004
-1.96664e-12
0.0004
-2.44015e-12
0.0004
-3.01091e-12
0.0004
-3.69787e-12
0.0004
-4.52284e-12
0.0004
-5.51781e-12
0.0004
-6.67635e-12
-8.3304e-12
0.0004
-1.05618e-14
0.0004
-4.18589e-14
0.0004
-8.6568e-14
0.0004
-1.4399e-13
0.0004
-2.16515e-13
0.0004
-3.07774e-13
0.0004
-4.21927e-13
0.0004
-5.63815e-13
0.0004
-7.391e-13
0.0004
-9.54456e-13
0.0004
-1.21779e-12
0.0004
-1.53847e-12
0.0004
-1.92764e-12
0.0004
-2.39855e-12
0.0004
-2.96696e-12
0.0004
-3.65182e-12
0.0004
-4.47479e-12
0.0004
-5.46782e-12
0.0004
-6.62338e-12
-8.27359e-12
0.0004
-9.36946e-15
0.0004
-3.72715e-14
0.0004
-7.78794e-14
0.0004
-1.31176e-13
0.0004
-1.99678e-13
0.0004
-2.86998e-13
0.0004
-3.97279e-13
0.0004
-5.35358e-13
0.0004
-7.06914e-13
0.0004
-9.18652e-13
0.0004
-1.17852e-12
0.0004
-1.49596e-12
0.0004
-1.88216e-12
0.0004
-2.35047e-12
0.0004
-2.91668e-12
0.0004
-3.59983e-12
0.0004
-4.42144e-12
0.0004
-5.41348e-12
0.0004
-6.56715e-12
-8.21476e-12
0.0004
-7.52913e-15
0.0004
-3.10291e-14
0.0004
-6.67447e-14
0.0004
-1.15347e-13
0.0004
-1.79388e-13
0.0004
-2.62396e-13
0.0004
-3.68467e-13
0.0004
-5.02426e-13
0.0004
-6.69972e-13
0.0004
-8.77854e-13
0.0004
-1.13408e-12
0.0004
-1.44817e-12
0.0004
-1.83141e-12
0.0004
-2.29725e-12
0.0004
-2.8616e-12
0.0004
-3.54364e-12
0.0004
-4.36489e-12
0.0004
-5.35744e-12
0.0004
-6.51123e-12
-8.15809e-12
0.0004
-4.85011e-15
0.0004
-2.31246e-14
0.0004
-5.34289e-14
0.0004
-9.70245e-14
0.0004
-1.56349e-13
0.0004
-2.34812e-13
0.0004
-3.36439e-13
0.0004
-4.6605e-13
0.0004
-6.29375e-13
0.0004
-8.33222e-13
0.0004
-1.08568e-12
0.0004
-1.39637e-12
0.0004
-1.77668e-12
0.0004
-2.24018e-12
0.0004
-2.80299e-12
0.0004
-3.48451e-12
0.0004
-4.30638e-12
0.0004
-5.30117e-12
0.0004
-6.4582e-12
-8.1095e-12
0.0004
0.0004
0.0004
0.0004
0.0004
0.0004
0.0004
0.0004
0.0004
0.0004
0.0004
0.0004
0.0004
0.0004
0.0004
0.0004
0.0004
0.0004
0.0004
)
;

boundaryField
{
    inlet
    {
        type            calculated;
        value           nonuniform List<scalar> 
20
(
-0.0004
-0.0004
-0.0004
-0.0004
-0.0004
-0.0004
-0.0004
-0.0004
-0.0004
-0.0004
-0.0004
-0.0004
-0.0004
-0.0004
-0.0004
-0.0004
-0.0004
-0.0004
-0.0004
-0.0004
)
;
    }
    outlet
    {
        type            calculated;
        value           nonuniform List<scalar> 
20
(
0.0004
0.0004
0.0004
0.0004
0.0004
0.0004
0.0004
0.0004
0.0004
0.0004
0.0004
0.0004
0.0004
0.0004
0.0004
0.0004
0.0004
0.0004
0.0004
0.0004
)
;
    }
    up
    {
        type            calculated;
        value           nonuniform List<scalar> 
20
(
-1.32297e-15
-1.38071e-14
-3.91079e-14
-7.76807e-14
-1.32113e-13
-2.05822e-13
-3.02813e-13
-4.27894e-13
-5.86825e-13
-7.86477e-13
-1.03503e-12
-1.34222e-12
-1.71957e-12
-2.18082e-12
-2.74224e-12
-3.42345e-12
-4.24663e-12
-5.24439e-12
-6.40828e-12
-8.07067e-12
)
;
    }
    down
    {
        type            calculated;
        value           nonuniform List<scalar> 
20
(
1.35711e-15
1.37697e-14
3.87931e-14
7.7155e-14
1.31456e-13
2.04985e-13
3.01715e-13
4.26431e-13
5.84848e-13
7.83806e-13
1.03146e-12
1.33748e-12
1.71342e-12
2.17298e-12
2.7325e-12
3.41151e-12
4.23206e-12
5.22709e-12
6.38868e-12
8.05094e-12
)
;
    }
    frontAndBack
    {
        type            empty;
        value           nonuniform List<scalar> 0();
    }
}


// ************************************************************************* //
