/*--------------------------------*- C++ -*----------------------------------*\
  =========                 |
  \\      /  F ield         | OpenFOAM: The Open Source CFD Toolbox
   \\    /   O peration     | Website:  https://openfoam.org
    \\  /    A nd           | Version:  8
     \\/     M anipulation  |
\*---------------------------------------------------------------------------*/
FoamFile
{
    version     2.0;
    format      ascii;
    class       volVectorField;
    location    "32";
    object      U;
}
// * * * * * * * * * * * * * * * * * * * * * * * * * * * * * * * * * * * * * //

dimensions      [0 1 -1 0 0 0 0];

internalField   nonuniform List<vector> 
400
(
(1 -6.04807e-12 0)
(1 -3.52354e-11 0)
(1 -8.81031e-11 0)
(1 -1.67859e-10 0)
(1 -2.79468e-10 0)
(1 -4.29467e-10 0)
(1 -6.25817e-10 0)
(1 -8.78076e-10 0)
(1 -1.19764e-09 0)
(1 -1.59813e-09 0)
(1 -2.09579e-09 0)
(1 -2.70992e-09 0)
(1 -3.46347e-09 0)
(1 -4.3838e-09 0)
(1 -5.50336e-09 0)
(1 -6.86104e-09 0)
(1 -8.50064e-09 0)
(1 -1.04881e-08 0)
(1 -1.28049e-08 0)
(1 -1.61192e-08 0)
(1 -1.21662e-11 0)
(1 -5.30076e-11 0)
(1 -1.17709e-10 0)
(1 -2.08623e-10 0)
(1 -3.30913e-10 0)
(1 -4.9129e-10 0)
(1 -6.97799e-10 0)
(1 -9.60003e-10 0)
(1 -1.28924e-09 0)
(1 -1.69902e-09 0)
(1 -2.20538e-09 0)
(1 -2.82741e-09 0)
(1 -3.58779e-09 0)
(1 -4.51352e-09 0)
(1 -5.63663e-09 0)
(1 -6.99554e-09 0)
(1 -8.63355e-09 0)
(1 -1.06158e-08 0)
(1 -1.29224e-08 0)
(1 -1.62205e-08 0)
(1 -1.71579e-11 0)
(1 -6.90378e-11 0)
(1 -1.45357e-10 0)
(1 -2.47216e-10 0)
(1 -3.79796e-10 0)
(1 -5.50098e-10 0)
(1 -7.66288e-10 0)
(1 -1.03796e-09 0)
(1 -1.37641e-09 0)
(1 -1.79503e-09 0)
(1 -2.30972e-09 0)
(1 -2.93934e-09 0)
(1 -3.70634e-09 0)
(1 -4.63741e-09 0)
(1 -5.76425e-09 0)
(1 -7.12487e-09 0)
(1 -8.76251e-09 0)
(1 -1.07416e-08 0)
(1 -1.30433e-08 0)
(1 -1.63354e-08 0)
(1 -2.02631e-11 0)
(1 -8.00466e-11 0)
(1 -1.65413e-10 0)
(1 -2.76138e-10 0)
(1 -4.17257e-10 0)
(1 -5.95869e-10 0)
(1 -8.20194e-10 0)
(1 -1.09984e-09 0)
(1 -1.44609e-09 0)
(1 -1.87226e-09 0)
(1 -2.39414e-09 0)
(1 -3.03047e-09 0)
(1 -3.80351e-09 0)
(1 -4.7398e-09 0)
(1 -5.87084e-09 0)
(1 -7.23441e-09 0)
(1 -8.87397e-09 0)
(1 -1.08538e-08 0)
(1 -1.31577e-08 0)
(1 -1.64538e-08 0)
(1 -2.22365e-11 0)
(1 -8.77082e-11 0)
(1 -1.80253e-10 0)
(1 -2.9844e-10 0)
(1 -4.4697e-10 0)
(1 -6.32931e-10 0)
(1 -8.64537e-10 0)
(1 -1.15139e-09 0)
(1 -1.50474e-09 0)
(1 -1.93787e-09 0)
(1 -2.46649e-09 0)
(1 -3.10923e-09 0)
(1 -3.88828e-09 0)
(1 -4.83005e-09 0)
(1 -5.96602e-09 0)
(1 -7.33384e-09 0)
(1 -8.9773e-09 0)
(1 -1.09608e-08 0)
(1 -1.32704e-08 0)
(1 -1.65739e-08 0)
(1 -2.36004e-11 0)
(1 -9.32912e-11 0)
(1 -1.91434e-10 0)
(1 -3.15684e-10 0)
(1 -4.70382e-10 0)
(1 -6.62573e-10 0)
(1 -9.00443e-10 0)
(1 -1.19356e-09 0)
(1 -1.55317e-09 0)
(1 -1.9925e-09 0)
(1 -2.52721e-09 0)
(1 -3.17587e-09 0)
(1 -3.96062e-09 0)
(1 -4.90781e-09 0)
(1 -6.04897e-09 0)
(1 -7.42171e-09 0)
(1 -9.07018e-09 0)
(1 -1.10587e-08 0)
(1 -1.33757e-08 0)
(1 -1.66877e-08 0)
(1 -2.45642e-11 0)
(1 -9.72901e-11 0)
(1 -1.99611e-10 0)
(1 -3.28474e-10 0)
(1 -4.87942e-10 0)
(1 -6.8503e-10 0)
(1 -9.27891e-10 0)
(1 -1.22607e-09 0)
(1 -1.59078e-09 0)
(1 -2.03524e-09 0)
(1 -2.57507e-09 0)
(1 -3.22881e-09 0)
(1 -4.01856e-09 0)
(1 -4.97066e-09 0)
(1 -6.11668e-09 0)
(1 -7.49432e-09 0)
(1 -9.14801e-09 0)
(1 -1.11421e-08 0)
(1 -1.34665e-08 0)
(1 -1.67875e-08 0)
(1 -2.52195e-11 0)
(1 -1e-10 0)
(1 -2.05259e-10 0)
(1 -3.37389e-10 0)
(1 -5.00284e-10 0)
(1 -7.00931e-10 0)
(1 -9.47461e-10 0)
(1 -1.2494e-09 0)
(1 -1.61796e-09 0)
(1 -2.06632e-09 0)
(1 -2.61011e-09 0)
(1 -3.26785e-09 0)
(1 -4.06162e-09 0)
(1 -5.01777e-09 0)
(1 -6.16793e-09 0)
(1 -7.54988e-09 0)
(1 -9.20832e-09 0)
(1 -1.12075e-08 0)
(1 -1.35387e-08 0)
(1 -1.68677e-08 0)
(1 -2.56041e-11 0)
(1 -1.01684e-10 0)
(1 -2.08823e-10 0)
(1 -3.43043e-10 0)
(1 -5.08147e-10 0)
(1 -7.11106e-10 0)
(1 -9.60041e-10 0)
(1 -1.26447e-09 0)
(1 -1.6356e-09 0)
(1 -2.0866e-09 0)
(1 -2.6331e-09 0)
(1 -3.29363e-09 0)
(1 -4.09027e-09 0)
(1 -5.04937e-09 0)
(1 -6.2026e-09 0)
(1 -7.58783e-09 0)
(1 -9.24994e-09 0)
(1 -1.12532e-08 0)
(1 -1.35894e-08 0)
(1 -1.69244e-08 0)
(1 -2.5763e-11 0)
(1 -1.02512e-10 0)
(1 -2.10595e-10 0)
(1 -3.45848e-10 0)
(1 -5.12045e-10 0)
(1 -7.1615e-10 0)
(1 -9.66286e-10 0)
(1 -1.27198e-09 0)
(1 -1.64442e-09 0)
(1 -2.0968e-09 0)
(1 -2.64473e-09 0)
(1 -3.30677e-09 0)
(1 -4.10499e-09 0)
(1 -5.06576e-09 0)
(1 -6.22075e-09 0)
(1 -7.60791e-09 0)
(1 -9.27219e-09 0)
(1 -1.12778e-08 0)
(1 -1.3617e-08 0)
(1 -1.69552e-08 0)
(1 -2.57216e-11 0)
(1 -1.02523e-10 0)
(1 -2.10667e-10 0)
(1 -3.45958e-10 0)
(1 -5.12181e-10 0)
(1 -7.16307e-10 0)
(1 -9.66479e-10 0)
(1 -1.27222e-09 0)
(1 -1.64474e-09 0)
(1 -2.09723e-09 0)
(1 -2.64532e-09 0)
(1 -3.30754e-09 0)
(1 -4.106e-09 0)
(1 -5.06707e-09 0)
(1 -6.2224e-09 0)
(1 -7.60998e-09 0)
(1 -9.27473e-09 0)
(1 -1.12808e-08 0)
(1 -1.36205e-08 0)
(1 -1.69588e-08 0)
(1 -2.54867e-11 0)
(1 -1.01686e-10 0)
(1 -2.09011e-10 0)
(1 -3.43345e-10 0)
(1 -5.08526e-10 0)
(1 -7.11552e-10 0)
(1 -9.60591e-10 0)
(1 -1.26519e-09 0)
(1 -1.63655e-09 0)
(1 -2.08788e-09 0)
(1 -2.63482e-09 0)
(1 -3.29592e-09 0)
(1 -4.09328e-09 0)
(1 -5.05327e-09 0)
(1 -6.20751e-09 0)
(1 -7.594e-09 0)
(1 -9.2575e-09 0)
(1 -1.12621e-08 0)
(1 -1.35998e-08 0)
(1 -1.69351e-08 0)
(1 -2.50461e-11 0)
(1 -9.99302e-11 0)
(1 -2.05497e-10 0)
(1 -3.37826e-10 0)
(1 -5.00846e-10 0)
(1 -7.01606e-10 0)
(1 -9.48308e-10 0)
(1 -1.25052e-09 0)
(1 -1.61947e-09 0)
(1 -2.06837e-09 0)
(1 -2.61288e-09 0)
(1 -3.27156e-09 0)
(1 -4.06652e-09 0)
(1 -5.02413e-09 0)
(1 -6.17595e-09 0)
(1 -7.55997e-09 0)
(1 -9.22069e-09 0)
(1 -1.12222e-08 0)
(1 -1.35555e-08 0)
(1 -1.6885e-08 0)
(1 -2.43636e-11 0)
(1 -9.71305e-11 0)
(1 -1.99872e-10 0)
(1 -3.29022e-10 0)
(1 -4.88667e-10 0)
(1 -6.85916e-10 0)
(1 -9.29013e-10 0)
(1 -1.22756e-09 0)
(1 -1.59281e-09 0)
(1 -2.038e-09 0)
(1 -2.57881e-09 0)
(1 -3.23384e-09 0)
(1 -4.0252e-09 0)
(1 -4.97926e-09 0)
(1 -6.12754e-09 0)
(1 -7.50798e-09 0)
(1 -9.16477e-09 0)
(1 -1.11619e-08 0)
(1 -1.34892e-08 0)
(1 -1.68107e-08 0)
(1 -2.33794e-11 0)
(1 -9.30815e-11 0)
(1 -1.91732e-10 0)
(1 -3.16359e-10 0)
(1 -4.71282e-10 0)
(1 -6.63686e-10 0)
(1 -9.01856e-10 0)
(1 -1.19544e-09 0)
(1 -1.55571e-09 0)
(1 -1.99594e-09 0)
(1 -2.53185e-09 0)
(1 -3.18209e-09 0)
(1 -3.9688e-09 0)
(1 -4.91838e-09 0)
(1 -6.0623e-09 0)
(1 -7.43846e-09 0)
(1 -9.09068e-09 0)
(1 -1.10829e-08 0)
(1 -1.34034e-08 0)
(1 -1.67158e-08 0)
(1 -2.20067e-11 0)
(1 -8.74946e-11 0)
(1 -1.80591e-10 0)
(1 -2.99224e-10 0)
(1 -4.48023e-10 0)
(1 -6.34246e-10 0)
(1 -8.66216e-10 0)
(1 -1.15361e-09 0)
(1 -1.50773e-09 0)
(1 -1.94191e-09 0)
(1 -2.47191e-09 0)
(1 -3.11644e-09 0)
(1 -3.89774e-09 0)
(1 -4.84223e-09 0)
(1 -5.98139e-09 0)
(1 -7.35313e-09 0)
(1 -9.00086e-09 0)
(1 -1.09885e-08 0)
(1 -1.33021e-08 0)
(1 -1.66059e-08 0)
(1 -2.00537e-11 0)
(1 -7.98516e-11 0)
(1 -1.65796e-10 0)
(1 -2.77008e-10 0)
(1 -4.18431e-10 0)
(1 -5.97349e-10 0)
(1 -8.22092e-10 0)
(1 -1.10235e-09 0)
(1 -1.44946e-09 0)
(1 -1.87679e-09 0)
(1 -2.4002e-09 0)
(1 -3.0385e-09 0)
(1 -3.814e-09 0)
(1 -4.75327e-09 0)
(1 -5.88782e-09 0)
(1 -7.25564e-09 0)
(1 -8.89981e-09 0)
(1 -1.08842e-08 0)
(1 -1.31925e-08 0)
(1 -1.6489e-08 0)
(1 -1.69749e-11 0)
(1 -6.89111e-11 0)
(1 -1.45803e-10 0)
(1 -2.48147e-10 0)
(1 -3.81057e-10 0)
(1 -5.51705e-10 0)
(1 -7.68356e-10 0)
(1 -1.04068e-09 0)
(1 -1.38006e-09 0)
(1 -1.79993e-09 0)
(1 -2.31626e-09 0)
(1 -2.94798e-09 0)
(1 -3.71758e-09 0)
(1 -4.65181e-09 0)
(1 -5.78236e-09 0)
(1 -7.1474e-09 0)
(1 -8.78991e-09 0)
(1 -1.07738e-08 0)
(1 -1.30801e-08 0)
(1 -1.63727e-08 0)
(1 -1.20004e-11 0)
(1 -5.29511e-11 0)
(1 -1.18241e-10 0)
(1 -2.09625e-10 0)
(1 -3.32232e-10 0)
(1 -4.92984e-10 0)
(1 -6.99987e-10 0)
(1 -9.62879e-10 0)
(1 -1.29309e-09 0)
(1 -1.70419e-09 0)
(1 -2.21228e-09 0)
(1 -2.83651e-09 0)
(1 -3.59959e-09 0)
(1 -4.52854e-09 0)
(1 -5.65541e-09 0)
(1 -7.01879e-09 0)
(1 -8.6619e-09 0)
(1 -1.06494e-08 0)
(1 -1.29606e-08 0)
(1 -1.62591e-08 0)
(1 -5.92952e-12 0)
(1 -3.5237e-11 0)
(1 -8.86635e-11 0)
(1 -1.68843e-10 0)
(1 -2.80733e-10 0)
(1 -4.3111e-10 0)
(1 -6.27982e-10 0)
(1 -8.80961e-10 0)
(1 -1.20154e-09 0)
(1 -1.60341e-09 0)
(1 -2.10287e-09 0)
(1 -2.71928e-09 0)
(1 -3.47563e-09 0)
(1 -4.39924e-09 0)
(1 -5.5226e-09 0)
(1 -6.88476e-09 0)
(1 -8.52961e-09 0)
(1 -1.05225e-08 0)
(1 -1.28439e-08 0)
(1 -1.61585e-08 0)
)
;

boundaryField
{
    inlet
    {
        type            fixedValue;
        value           uniform (1 0 0);
    }
    outlet
    {
        type            zeroGradient;
    }
    up
    {
        type            zeroGradient;
    }
    down
    {
        type            zeroGradient;
    }
    frontAndBack
    {
        type            empty;
    }
}


// ************************************************************************* //
