0 	0 	0 	0
1.57135 	0.00658176 	-0.0132171 	0
3.1427 	-0.0387792 	0.0364973 	0
4.71405 	-0.0726496 	0.0980277 	0
6.28539 	-0.0431192 	0.0899275 	0
7.85674 	0.00081459 	0.0352865 	0
9.42809 	0.0414176 	-0.0108349 	0
10.9994 	0.0599981 	-0.0490116 	0
12.5708 	0.12187 	-0.109784 	0
14.1421 	0.5 	0 	0
