/*--------------------------------*- C++ -*----------------------------------*\
  =========                 |
  \\      /  F ield         | OpenFOAM: The Open Source CFD Toolbox
   \\    /   O peration     | Website:  https://openfoam.org
    \\  /    A nd           | Version:  8
     \\/     M anipulation  |
\*---------------------------------------------------------------------------*/
FoamFile
{
    version     2.0;
    format      ascii;
    class       volVectorField;
    location    "3.5";
    object      U;
}
// * * * * * * * * * * * * * * * * * * * * * * * * * * * * * * * * * * * * * //

dimensions      [0 1 -1 0 0 0 0];

internalField   nonuniform List<vector> 
11600
(
(-1.0838e-05 1.0833e-05 0)
(-3.62275e-05 1.29113e-05 0)
(-6.45628e-05 1.30021e-05 0)
(-9.21449e-05 1.29686e-05 0)
(-0.000119697 1.29188e-05 0)
(-0.000147137 1.28566e-05 0)
(-0.000174431 1.27822e-05 0)
(-0.000201554 1.26953e-05 0)
(-0.000228478 1.25961e-05 0)
(-0.000255177 1.24847e-05 0)
(-0.000281627 1.23613e-05 0)
(-0.0003078 1.2226e-05 0)
(-0.000333673 1.20791e-05 0)
(-0.00035922 1.19207e-05 0)
(-0.000384418 1.17512e-05 0)
(-0.000409243 1.15707e-05 0)
(-0.000433672 1.13796e-05 0)
(-0.000457683 1.11781e-05 0)
(-0.000481253 1.09666e-05 0)
(-0.000504363 1.07453e-05 0)
(-0.000526991 1.05147e-05 0)
(-0.000549118 1.02751e-05 0)
(-0.000570725 1.00268e-05 0)
(-0.000591794 9.77039e-06 0)
(-0.000612308 9.50616e-06 0)
(-0.000632252 9.23462e-06 0)
(-0.00065161 8.95626e-06 0)
(-0.000670368 8.67159e-06 0)
(-0.000688514 8.38117e-06 0)
(-0.000706035 8.08559e-06 0)
(-0.000722921 7.78551e-06 0)
(-0.000739165 7.48164e-06 0)
(-0.000754757 7.17473e-06 0)
(-0.000769693 6.86566e-06 0)
(-0.000783969 6.55538e-06 0)
(-0.000797584 6.24497e-06 0)
(-0.000810539 5.93567e-06 0)
(-0.000822837 5.62891e-06 0)
(-0.000834485 5.32635e-06 0)
(-0.000845494 5.02997e-06 0)
(-0.000855881 4.74216e-06 0)
(-0.000865665 4.46581e-06 0)
(-0.000874874 4.20452e-06 0)
(-0.000883546 3.9628e-06 0)
(-0.000891726 3.74644e-06 0)
(-0.000899476 3.563e-06 0)
(-0.000906874 3.42257e-06 0)
(-0.000914026 3.33893e-06 0)
(-0.000921067 3.33146e-06 0)
(-0.000928182 3.42797e-06 0)
(-0.000935622 3.66988e-06 0)
(-0.000943743 4.12141e-06 0)
(-0.000953055 4.88616e-06 0)
(-0.000964322 6.13881e-06 0)
(-0.000978758 8.18793e-06 0)
(-0.0009982 1.16233e-05 0)
(-0.00102346 1.75306e-05 0)
(-0.00107866 2.6694e-05 0)
(-0.00109241 5.63721e-05 0)
(-0.00133991 0.000133194 0)
(-1.29389e-05 3.62324e-05 0)
(-4.29207e-05 4.28544e-05 0)
(-7.61622e-05 4.31592e-05 0)
(-0.000108575 4.30533e-05 0)
(-0.000140952 4.28897e-05 0)
(-0.000173199 4.26838e-05 0)
(-0.000205274 4.24362e-05 0)
(-0.000237147 4.21473e-05 0)
(-0.000268786 4.18174e-05 0)
(-0.00030016 4.1447e-05 0)
(-0.00033124 4.10365e-05 0)
(-0.000361995 4.05867e-05 0)
(-0.000392396 4.00982e-05 0)
(-0.000422414 3.95717e-05 0)
(-0.00045202 3.9008e-05 0)
(-0.000481187 3.84081e-05 0)
(-0.000509888 3.77727e-05 0)
(-0.000538096 3.7103e-05 0)
(-0.000565786 3.63999e-05 0)
(-0.000592934 3.56645e-05 0)
(-0.000619514 3.48979e-05 0)
(-0.000645505 3.41015e-05 0)
(-0.000670884 3.32765e-05 0)
(-0.00069563 3.24242e-05 0)
(-0.000719724 3.15462e-05 0)
(-0.000743145 3.06439e-05 0)
(-0.000765877 2.97189e-05 0)
(-0.000787903 2.87729e-05 0)
(-0.000809208 2.78079e-05 0)
(-0.000829779 2.68258e-05 0)
(-0.000849602 2.58288e-05 0)
(-0.000868668 2.48191e-05 0)
(-0.000886968 2.37993e-05 0)
(-0.000904495 2.27723e-05 0)
(-0.000921245 2.17413e-05 0)
(-0.000937216 2.07098e-05 0)
(-0.000952409 1.96818e-05 0)
(-0.000966827 1.86622e-05 0)
(-0.00098048 1.76563e-05 0)
(-0.000993378 1.66706e-05 0)
(-0.00100554 1.5713e-05 0)
(-0.00101699 1.4793e-05 0)
(-0.00102775 1.39221e-05 0)
(-0.00103788 1.31151e-05 0)
(-0.00104741 1.23908e-05 0)
(-0.00105642 1.17734e-05 0)
(-0.001065 1.12955e-05 0)
(-0.00107325 1.1001e-05 0)
(-0.00108133 1.09509e-05 0)
(-0.00108943 1.12324e-05 0)
(-0.00109782 1.19725e-05 0)
(-0.00110683 1.33646e-05 0)
(-0.00111697 1.57123e-05 0)
(-0.00112894 1.95117e-05 0)
(-0.00114374 2.56076e-05 0)
(-0.00116279 3.55298e-05 0)
(-0.00118729 5.20005e-05 0)
(-0.00123095 7.78368e-05 0)
(-0.00124516 0.000140777 0)
(-0.0013995 0.000192926 0)
(-1.30774e-05 6.46636e-05 0)
(-4.33843e-05 7.61517e-05 0)
(-7.69827e-05 7.66904e-05 0)
(-0.000109737 7.65054e-05 0)
(-0.000142454 7.62159e-05 0)
(-0.000175039 7.58502e-05 0)
(-0.00020745 7.541e-05 0)
(-0.000239656 7.4896e-05 0)
(-0.000271626 7.43091e-05 0)
(-0.000303329 7.365e-05 0)
(-0.000334733 7.29197e-05 0)
(-0.000365809 7.21195e-05 0)
(-0.000396526 7.12504e-05 0)
(-0.000426856 7.03138e-05 0)
(-0.000456769 6.93111e-05 0)
(-0.000486239 6.82439e-05 0)
(-0.000515236 6.71138e-05 0)
(-0.000543736 6.59225e-05 0)
(-0.000571711 6.46718e-05 0)
(-0.000599137 6.33638e-05 0)
(-0.000625989 6.20004e-05 0)
(-0.000652245 6.05839e-05 0)
(-0.000677882 5.91165e-05 0)
(-0.000702879 5.76006e-05 0)
(-0.000727214 5.60389e-05 0)
(-0.00075087 5.44339e-05 0)
(-0.000773829 5.27886e-05 0)
(-0.000796072 5.11061e-05 0)
(-0.000817586 4.93895e-05 0)
(-0.000838355 4.76423e-05 0)
(-0.000858368 4.58685e-05 0)
(-0.000877613 4.40719e-05 0)
(-0.000896082 4.22573e-05 0)
(-0.000913768 4.04294e-05 0)
(-0.000930664 3.85939e-05 0)
(-0.00094677 3.67569e-05 0)
(-0.000962085 3.49256e-05 0)
(-0.000976611 3.31081e-05 0)
(-0.000990356 3.13139e-05 0)
(-0.00100333 2.95542e-05 0)
(-0.00101555 2.78423e-05 0)
(-0.00102704 2.61945e-05 0)
(-0.00103782 2.46307e-05 0)
(-0.00104792 2.31759e-05 0)
(-0.00105741 2.18615e-05 0)
(-0.00106633 2.07283e-05 0)
(-0.00107476 1.98295e-05 0)
(-0.00108279 1.92367e-05 0)
(-0.00109054 1.90473e-05 0)
(-0.00109818 1.93972e-05 0)
(-0.00110588 2.048e-05 0)
(-0.00111389 2.25777e-05 0)
(-0.00112253 2.61133e-05 0)
(-0.00113215 3.17366e-05 0)
(-0.00114317 4.04731e-05 0)
(-0.0011559 5.3995e-05 0)
(-0.0011704 7.49889e-05 0)
(-0.00118878 0.000107066 0)
(-0.00118914 0.000167914 0)
(-0.00122325 0.000221627 0)
(-1.31166e-05 9.24773e-05 0)
(-4.35207e-05 0.000108781 0)
(-7.72286e-05 0.000109542 0)
(-0.000110086 0.000109277 0)
(-0.000142907 0.000108863 0)
(-0.000175595 0.00010834 0)
(-0.000208109 0.000107711 0)
(-0.000240416 0.000106977 0)
(-0.000272486 0.000106138 0)
(-0.000304288 0.000105195 0)
(-0.00033579 0.000104152 0)
(-0.000366961 0.000103008 0)
(-0.000397773 0.000101765 0)
(-0.000428195 0.000100427 0)
(-0.000458199 9.89935e-05 0)
(-0.000487757 9.7468e-05 0)
(-0.000516841 9.58526e-05 0)
(-0.000545424 9.41497e-05 0)
(-0.00057348 9.23621e-05 0)
(-0.000600985 9.04923e-05 0)
(-0.000627914 8.85435e-05 0)
(-0.000654243 8.65186e-05 0)
(-0.000679949 8.4421e-05 0)
(-0.000705012 8.2254e-05 0)
(-0.000729411 8.00214e-05 0)
(-0.000753127 7.77268e-05 0)
(-0.000776141 7.53745e-05 0)
(-0.000798436 7.29687e-05 0)
(-0.000819997 7.05139e-05 0)
(-0.000840809 6.80153e-05 0)
(-0.000860859 6.54779e-05 0)
(-0.000880137 6.29077e-05 0)
(-0.000898632 6.03109e-05 0)
(-0.000916337 5.76945e-05 0)
(-0.000933246 5.50661e-05 0)
(-0.000949355 5.24345e-05 0)
(-0.000964664 4.98094e-05 0)
(-0.000979174 4.7202e-05 0)
(-0.00099289 4.46254e-05 0)
(-0.00100582 4.20949e-05 0)
(-0.00101798 3.96287e-05 0)
(-0.00102938 3.72486e-05 0)
(-0.00104005 3.49814e-05 0)
(-0.00105001 3.286e-05 0)
(-0.00105931 3.0926e-05 0)
(-0.00106799 2.92319e-05 0)
(-0.0010761 2.7846e-05 0)
(-0.00108372 2.68576e-05 0)
(-0.00109094 2.6386e-05 0)
(-0.00109784 2.65928e-05 0)
(-0.00110455 2.77002e-05 0)
(-0.0011112 3.00185e-05 0)
(-0.00111792 3.3987e-05 0)
(-0.00112481 4.02337e-05 0)
(-0.00113188 4.96613e-05 0)
(-0.00113888 6.356e-05 0)
(-0.00114514 8.36908e-05 0)
(-0.0011495 0.000112396 0)
(-0.00114291 0.000155337 0)
(-0.00114029 0.000197444 0)
(-1.31653e-05 0.000120434 0)
(-4.36847e-05 0.00014158 0)
(-7.75215e-05 0.000142564 0)
(-0.000110504 0.000142218 0)
(-0.000143449 0.000141679 0)
(-0.00017626 0.000140998 0)
(-0.000208896 0.000140179 0)
(-0.000241325 0.000139222 0)
(-0.000273515 0.000138129 0)
(-0.000305435 0.000136902 0)
(-0.000337053 0.000135542 0)
(-0.000368339 0.000134052 0)
(-0.000399263 0.000132434 0)
(-0.000429796 0.00013069 0)
(-0.000459908 0.000128824 0)
(-0.000489571 0.000126837 0)
(-0.000518757 0.000124733 0)
(-0.00054744 0.000122515 0)
(-0.000575593 0.000120186 0)
(-0.00060319 0.000117751 0)
(-0.000630208 0.000115213 0)
(-0.000656623 0.000112575 0)
(-0.000682412 0.000109843 0)
(-0.000707553 0.00010702 0)
(-0.000732026 0.000104111 0)
(-0.000755811 0.000101122 0)
(-0.000778889 9.80567e-05 0)
(-0.000801244 9.49217e-05 0)
(-0.000822858 9.17226e-05 0)
(-0.000843718 8.84658e-05 0)
(-0.00086381 8.51579e-05 0)
(-0.000883123 8.18064e-05 0)
(-0.000901645 7.84193e-05 0)
(-0.000919369 7.50053e-05 0)
(-0.000936287 7.15743e-05 0)
(-0.000952396 6.8137e-05 0)
(-0.000967692 6.47057e-05 0)
(-0.000982176 6.12945e-05 0)
(-0.000995849 5.79194e-05 0)
(-0.00100872 5.45992e-05 0)
(-0.00102079 5.13562e-05 0)
(-0.00103208 4.82166e-05 0)
(-0.00104261 4.52125e-05 0)
(-0.00105239 4.23829e-05 0)
(-0.00106145 3.97762e-05 0)
(-0.00106982 3.74528e-05 0)
(-0.00107755 3.54896e-05 0)
(-0.00108467 3.39855e-05 0)
(-0.00109123 3.30686e-05 0)
(-0.00109729 3.29077e-05 0)
(-0.00110288 3.37262e-05 0)
(-0.00110804 3.58229e-05 0)
(-0.00111275 3.9598e-05 0)
(-0.00111692 4.55868e-05 0)
(-0.00112029 5.44971e-05 0)
(-0.00112234 6.7236e-05 0)
(-0.00112204 8.4892e-05 0)
(-0.00111764 0.00010867 0)
(-0.00110463 0.000140032 0)
(-0.00108467 0.000173595 0)
(-1.32273e-05 0.000148516 0)
(-4.38919e-05 0.000174526 0)
(-7.78903e-05 0.000175734 0)
(-0.00011103 0.000175307 0)
(-0.000144131 0.000174642 0)
(-0.000177098 0.000173802 0)
(-0.000209888 0.000172791 0)
(-0.000242469 0.00017161 0)
(-0.00027481 0.000170262 0)
(-0.000306879 0.000168748 0)
(-0.000338644 0.00016707 0)
(-0.000370074 0.000165232 0)
(-0.00040114 0.000163236 0)
(-0.000431812 0.000161084 0)
(-0.000462059 0.000158781 0)
(-0.000491855 0.00015633 0)
(-0.00052117 0.000153734 0)
(-0.000549978 0.000150997 0)
(-0.000578252 0.000148124 0)
(-0.000605967 0.000145119 0)
(-0.000633098 0.000141987 0)
(-0.000659622 0.000138732 0)
(-0.000685514 0.00013536 0)
(-0.000710754 0.000131877 0)
(-0.000735319 0.000128287 0)
(-0.000759192 0.000124597 0)
(-0.000782351 0.000120814 0)
(-0.000804781 0.000116944 0)
(-0.000826464 0.000112994 0)
(-0.000847385 0.000108972 0)
(-0.00086753 0.000104886 0)
(-0.000886887 0.000100745 0)
(-0.000905445 9.65586e-05 0)
(-0.000923194 9.23372e-05 0)
(-0.000940127 8.80924e-05 0)
(-0.000956236 8.38369e-05 0)
(-0.00097152 7.95853e-05 0)
(-0.000985974 7.53538e-05 0)
(-0.000999599 7.11611e-05 0)
(-0.0010124 6.70287e-05 0)
(-0.00102438 6.29817e-05 0)
(-0.00103554 5.905e-05 0)
(-0.0010459 5.52691e-05 0)
(-0.00105546 5.16816e-05 0)
(-0.00106426 4.83398e-05 0)
(-0.00107229 4.5308e-05 0)
(-0.00107959 4.26658e-05 0)
(-0.00108616 4.05135e-05 0)
(-0.00109203 3.89773e-05 0)
(-0.0010972 3.82178e-05 0)
(-0.00110165 3.8439e-05 0)
(-0.00110534 3.99008e-05 0)
(-0.00110817 4.29305e-05 0)
(-0.00110993 4.79341e-05 0)
(-0.00111024 5.53971e-05 0)
(-0.0011085 6.58632e-05 0)
(-0.00110372 7.98608e-05 0)
(-0.00109438 9.77523e-05 0)
(-0.001078 0.000119442 0)
(-0.00105367 0.000142261 0)
(-1.33028e-05 0.000176744 0)
(-4.41431e-05 0.000207646 0)
(-7.83367e-05 0.000209078 0)
(-0.000111666 0.000208569 0)
(-0.000144957 0.000207776 0)
(-0.000178111 0.000206776 0)
(-0.000211088 0.000205572 0)
(-0.000243854 0.000204166 0)
(-0.000276377 0.00020256 0)
(-0.000308626 0.000200756 0)
(-0.000340569 0.000198759 0)
(-0.000372174 0.000196569 0)
(-0.000403411 0.000194192 0)
(-0.000434251 0.000191629 0)
(-0.000464663 0.000188886 0)
(-0.000494618 0.000185966 0)
(-0.00052409 0.000182874 0)
(-0.000553049 0.000179615 0)
(-0.000581471 0.000176193 0)
(-0.000609328 0.000172614 0)
(-0.000636596 0.000168883 0)
(-0.00066325 0.000165006 0)
(-0.000689268 0.000160989 0)
(-0.000714627 0.000156839 0)
(-0.000739306 0.000152563 0)
(-0.000763284 0.000148166 0)
(-0.000786543 0.000143658 0)
(-0.000809064 0.000139045 0)
(-0.000830831 0.000134337 0)
(-0.000851827 0.000129542 0)
(-0.000872038 0.000124669 0)
(-0.000891451 0.000119729 0)
(-0.000910053 0.000114733 0)
(-0.000927835 0.000109692 0)
(-0.000944788 0.000104621 0)
(-0.000960903 9.95326e-05 0)
(-0.000976175 9.44443e-05 0)
(-0.0009906 8.93737e-05 0)
(-0.00100417 8.43416e-05 0)
(-0.0010169 7.93715e-05 0)
(-0.00102877 7.44907e-05 0)
(-0.0010398 6.9731e-05 0)
(-0.00104998 6.51298e-05 0)
(-0.00105932 6.07316e-05 0)
(-0.00106782 5.65897e-05 0)
(-0.0010755 5.27684e-05 0)
(-0.00108234 4.93456e-05 0)
(-0.00108836 4.64168e-05 0)
(-0.00109353 4.40984e-05 0)
(-0.00109783 4.25332e-05 0)
(-0.0011012 4.18949e-05 0)
(-0.00110355 4.23933e-05 0)
(-0.00110472 4.42757e-05 0)
(-0.00110445 4.78237e-05 0)
(-0.00110236 5.33374e-05 0)
(-0.00109787 6.10949e-05 0)
(-0.00109015 7.12733e-05 0)
(-0.00107806 8.38081e-05 0)
(-0.00106012 9.81541e-05 0)
(-0.00103532 0.000112631 0)
(-1.33917e-05 0.000205148 0)
(-4.44386e-05 0.000240971 0)
(-7.88614e-05 0.000242629 0)
(-0.000112414 0.000242037 0)
(-0.000145927 0.000241116 0)
(-0.000179303 0.000239954 0)
(-0.000212498 0.000238555 0)
(-0.000245481 0.000236921 0)
(-0.000278219 0.000235055 0)
(-0.00031068 0.00023296 0)
(-0.000342831 0.000230639 0)
(-0.000374641 0.000228095 0)
(-0.00040608 0.000225332 0)
(-0.000437117 0.000222355 0)
(-0.000467722 0.000219168 0)
(-0.000497866 0.000215775 0)
(-0.000527521 0.000212183 0)
(-0.000556659 0.000208396 0)
(-0.000585253 0.000204419 0)
(-0.000613277 0.00020026 0)
(-0.000640706 0.000195925 0)
(-0.000667515 0.00019142 0)
(-0.000693681 0.000186752 0)
(-0.00071918 0.000181929 0)
(-0.000743992 0.000176958 0)
(-0.000768096 0.000171847 0)
(-0.000791472 0.000166606 0)
(-0.000814102 0.000161243 0)
(-0.000835968 0.000155767 0)
(-0.000857053 0.000150188 0)
(-0.000877343 0.000144519 0)
(-0.000896824 0.000138768 0)
(-0.000915482 0.00013295 0)
(-0.000933306 0.000127078 0)
(-0.000950286 0.000121165 0)
(-0.000966413 0.000115228 0)
(-0.000981679 0.000109285 0)
(-0.000996076 0.000103355 0)
(-0.0010096 9.74594e-05 0)
(-0.00102225 9.16242e-05 0)
(-0.00103402 8.58775e-05 0)
(-0.0010449 8.0252e-05 0)
(-0.0010549 7.47858e-05 0)
(-0.001064 6.95231e-05 0)
(-0.00107222 6.45161e-05 0)
(-0.00107953 5.98263e-05 0)
(-0.00108594 5.55266e-05 0)
(-0.00109141 5.17034e-05 0)
(-0.00109591 4.84588e-05 0)
(-0.0010994 4.59131e-05 0)
(-0.00110179 4.42057e-05 0)
(-0.00110296 4.34952e-05 0)
(-0.00110274 4.3955e-05 0)
(-0.00110086 4.57624e-05 0)
(-0.00109697 4.90765e-05 0)
(-0.00109057 5.39976e-05 0)
(-0.00108101 6.04996e-05 0)
(-0.0010675 6.83291e-05 0)
(-0.00104918 7.68608e-05 0)
(-0.00102541 8.48521e-05 0)
(-1.3494e-05 0.000233755 0)
(-4.47787e-05 0.000274536 0)
(-7.94652e-05 0.000276421 0)
(-0.000113274 0.000275745 0)
(-0.000147043 0.000274695 0)
(-0.000180673 0.000273368 0)
(-0.000214121 0.000271772 0)
(-0.000247354 0.000269908 0)
(-0.000280338 0.000267779 0)
(-0.000313043 0.000265389 0)
(-0.000345434 0.000262741 0)
(-0.00037748 0.000259839 0)
(-0.000409151 0.000256687 0)
(-0.000440415 0.000253291 0)
(-0.000471242 0.000249655 0)
(-0.000501603 0.000245784 0)
(-0.000531469 0.000241686 0)
(-0.000560813 0.000237365 0)
(-0.000589606 0.000232828 0)
(-0.000617822 0.000228083 0)
(-0.000645436 0.000223137 0)
(-0.000672423 0.000217996 0)
(-0.000698759 0.00021267 0)
(-0.000724421 0.000207165 0)
(-0.000749387 0.000201492 0)
(-0.000773636 0.000195659 0)
(-0.000797148 0.000189676 0)
(-0.000819903 0.000183552 0)
(-0.000841885 0.000177299 0)
(-0.000863075 0.000170927 0)
(-0.000883458 0.000164448 0)
(-0.000903019 0.000157876 0)
(-0.000921744 0.000151223 0)
(-0.000939621 0.000144503 0)
(-0.000956637 0.000137733 0)
(-0.000972783 0.00013093 0)
(-0.000988049 0.000124112 0)
(-0.00100243 0.0001173 0)
(-0.00101591 0.000110517 0)
(-0.00102848 0.000103788 0)
(-0.00104014 9.71422e-05 0)
(-0.00105089 9.06127e-05 0)
(-0.00106071 8.42367e-05 0)
(-0.00106959 7.8057e-05 0)
(-0.00107752 7.21229e-05 0)
(-0.00108449 6.64913e-05 0)
(-0.00109047 6.12277e-05 0)
(-0.00109543 5.64075e-05 0)
(-0.00109932 5.21164e-05 0)
(-0.00110208 4.84511e-05 0)
(-0.00110362 4.55178e-05 0)
(-0.0011038 4.34292e-05 0)
(-0.00110245 4.2297e-05 0)
(-0.00109933 4.22191e-05 0)
(-0.00109413 4.32572e-05 0)
(-0.00108645 4.54031e-05 0)
(-0.00107582 4.85287e-05 0)
(-0.0010617 5.23227e-05 0)
(-0.0010436 5.61973e-05 0)
(-0.0010212 5.9257e-05 0)
(-1.361e-05 0.000262595 0)
(-4.51639e-05 0.000308374 0)
(-8.0149e-05 0.000310488 0)
(-0.000114248 0.000309727 0)
(-0.000148307 0.000308545 0)
(-0.000182225 0.000307053 0)
(-0.000215958 0.000305257 0)
(-0.000249474 0.00030316 0)
(-0.000282738 0.000300765 0)
(-0.000315718 0.000298076 0)
(-0.000348381 0.000295097 0)
(-0.000380695 0.000291832 0)
(-0.000412628 0.000288287 0)
(-0.00044415 0.000284466 0)
(-0.000475228 0.000280375 0)
(-0.000505835 0.000276021 0)
(-0.000535941 0.000271411 0)
(-0.000565516 0.00026655 0)
(-0.000594535 0.000261446 0)
(-0.000622969 0.000256108 0)
(-0.000650793 0.000250542 0)
(-0.000677982 0.000244758 0)
(-0.000704511 0.000238765 0)
(-0.000730358 0.000232571 0)
(-0.000755499 0.000226186 0)
(-0.000779913 0.000219621 0)
(-0.000803579 0.000212886 0)
(-0.000826479 0.000205991 0)
(-0.000848593 0.000198949 0)
(-0.000869903 0.000191772 0)
(-0.000890394 0.000184472 0)
(-0.000910049 0.000177064 0)
(-0.000928854 0.000169561 0)
(-0.000946795 0.000161979 0)
(-0.000963859 0.000154335 0)
(-0.000980034 0.000146646 0)
(-0.000995309 0.000138933 0)
(-0.00100967 0.000131216 0)
(-0.00102311 0.000123519 0)
(-0.00103562 0.000115867 0)
(-0.00104719 0.00010829 0)
(-0.0010578 0.000100819 0)
(-0.00106745 9.34901e-05 0)
(-0.00107612 8.63439e-05 0)
(-0.00108379 7.94257e-05 0)
(-0.00109043 7.27865e-05 0)
(-0.00109602 6.64837e-05 0)
(-0.00110052 6.05806e-05 0)
(-0.00110387 5.51468e-05 0)
(-0.001106 5.02569e-05 0)
(-0.00110681 4.59877e-05 0)
(-0.00110618 4.24137e-05 0)
(-0.00110395 3.95991e-05 0)
(-0.0010999 3.75853e-05 0)
(-0.00109379 3.63719e-05 0)
(-0.0010853 3.5891e-05 0)
(-0.00107409 3.59743e-05 0)
(-0.00105983 3.63147e-05 0)
(-0.00104224 3.6416e-05 0)
(-0.00102119 3.56273e-05 0)
(-1.37397e-05 0.000291696 0)
(-4.55947e-05 0.000342519 0)
(-8.09138e-05 0.000344863 0)
(-0.000115338 0.000344016 0)
(-0.000149721 0.000342701 0)
(-0.000183961 0.000341041 0)
(-0.000218014 0.000339043 0)
(-0.000251845 0.00033671 0)
(-0.000285422 0.000334046 0)
(-0.000318711 0.000331054 0)
(-0.000351678 0.000327739 0)
(-0.000384291 0.000324107 0)
(-0.000416517 0.000320162 0)
(-0.000448326 0.000315911 0)
(-0.000479687 0.00031136 0)
(-0.000510568 0.000306516 0)
(-0.000540941 0.000301385 0)
(-0.000570777 0.000295977 0)
(-0.000600048 0.000290299 0)
(-0.000628726 0.000284359 0)
(-0.000656786 0.000278166 0)
(-0.000684201 0.00027173 0)
(-0.000710947 0.000265061 0)
(-0.000737 0.000258167 0)
(-0.000762337 0.000251061 0)
(-0.000786937 0.000243753 0)
(-0.000810778 0.000236255 0)
(-0.00083384 0.000228578 0)
(-0.000856104 0.000220735 0)
(-0.000877552 0.000212739 0)
(-0.000898166 0.000204605 0)
(-0.00091793 0.000196346 0)
(-0.000936829 0.000187978 0)
(-0.000954847 0.000179517 0)
(-0.00097197 0.00017098 0)
(-0.000988185 0.000162387 0)
(-0.00100348 0.000153757 0)
(-0.00101784 0.000145112 0)
(-0.00103125 0.000136475 0)
(-0.00104371 0.000127872 0)
(-0.00105519 0.000119331 0)
(-0.00106569 0.000110882 0)
(-0.00107518 0.00010256 0)
(-0.00108365 9.44018e-05 0)
(-0.00109108 8.64483e-05 0)
(-0.00109743 7.87445e-05 0)
(-0.00110267 7.13391e-05 0)
(-0.00110676 6.42841e-05 0)
(-0.00110964 5.76341e-05 0)
(-0.00111124 5.14442e-05 0)
(-0.00111146 4.5767e-05 0)
(-0.00111019 4.06475e-05 0)
(-0.00110728 3.61152e-05 0)
(-0.00110256 3.21739e-05 0)
(-0.00109582 2.87868e-05 0)
(-0.00108685 2.58585e-05 0)
(-0.00107539 2.3214e-05 0)
(-0.00106125 2.057e-05 0)
(-0.00104429 1.75364e-05 0)
(-0.00102446 1.36364e-05 0)
(-1.38833e-05 0.000321088 0)
(-4.60719e-05 0.000377006 0)
(-8.17609e-05 0.000379583 0)
(-0.000116545 0.000378648 0)
(-0.000151287 0.000377198 0)
(-0.000185883 0.000375368 0)
(-0.00022029 0.000373164 0)
(-0.000254472 0.000370591 0)
(-0.000288395 0.000367653 0)
(-0.000322025 0.000364354 0)
(-0.000355328 0.000360699 0)
(-0.000388272 0.000356693 0)
(-0.000420824 0.000352343 0)
(-0.000452952 0.000347655 0)
(-0.000484624 0.000342637 0)
(-0.000515809 0.000337295 0)
(-0.000546479 0.000331638 0)
(-0.000576603 0.000325675 0)
(-0.000606153 0.000319413 0)
(-0.000635102 0.000312863 0)
(-0.000663422 0.000306034 0)
(-0.000691088 0.000298936 0)
(-0.000718074 0.00029158 0)
(-0.000744357 0.000283977 0)
(-0.000769913 0.000276138 0)
(-0.000794719 0.000268076 0)
(-0.000818755 0.000259802 0)
(-0.000841999 0.00025133 0)
(-0.000864431 0.000242673 0)
(-0.000886034 0.000233845 0)
(-0.000906788 0.000224862 0)
(-0.000926677 0.000215737 0)
(-0.000945683 0.000206487 0)
(-0.000963792 0.00019713 0)
(-0.000980989 0.000187683 0)
(-0.000997257 0.000178165 0)
(-0.00101258 0.000168596 0)
(-0.00102695 0.000158999 0)
(-0.00104035 0.000149397 0)
(-0.00105277 0.000139814 0)
(-0.00106418 0.000130278 0)
(-0.00107458 0.000120818 0)
(-0.00108393 0.000111466 0)
(-0.00109223 0.000102254 0)
(-0.00109944 9.3221e-05 0)
(-0.00110554 8.4404e-05 0)
(-0.00111048 7.58442e-05 0)
(-0.00111422 6.75833e-05 0)
(-0.00111671 5.96629e-05 0)
(-0.00111787 5.21222e-05 0)
(-0.00111761 4.49945e-05 0)
(-0.00111584 3.8303e-05 0)
(-0.00111242 3.20536e-05 0)
(-0.00110723 2.62269e-05 0)
(-0.0011001 2.07676e-05 0)
(-0.00109087 1.55718e-05 0)
(-0.00107938 1.04711e-05 0)
(-0.00106551 5.22979e-06 0)
(-0.00104918 -4.45441e-07 0)
(-0.00103039 -6.91155e-06 0)
(-1.40412e-05 0.000350802 0)
(-4.65961e-05 0.000411869 0)
(-8.26914e-05 0.000414682 0)
(-0.000117871 0.000413658 0)
(-0.000153007 0.00041207 0)
(-0.000187995 0.000410066 0)
(-0.00022279 0.000407654 0)
(-0.000257357 0.000404838 0)
(-0.00029166 0.000401621 0)
(-0.000325665 0.00039801 0)
(-0.000359339 0.000394008 0)
(-0.000392646 0.000389624 0)
(-0.000425555 0.000384862 0)
(-0.000458032 0.000379731 0)
(-0.000490047 0.000374238 0)
(-0.000521567 0.00036839 0)
(-0.000552562 0.000362198 0)
(-0.000583003 0.00035567 0)
(-0.00061286 0.000348816 0)
(-0.000642106 0.000341645 0)
(-0.000670713 0.00033417 0)
(-0.000698654 0.000326399 0)
(-0.000725906 0.000318346 0)
(-0.000752441 0.000310021 0)
(-0.000778238 0.000301438 0)
(-0.000803273 0.000292609 0)
(-0.000827523 0.000283548 0)
(-0.000850969 0.000274267 0)
(-0.000873589 0.000264782 0)
(-0.000895363 0.000255108 0)
(-0.000916275 0.000245259 0)
(-0.000936305 0.000235252 0)
(-0.000955436 0.000225104 0)
(-0.000973651 0.000214832 0)
(-0.000990935 0.000204455 0)
(-0.00100727 0.000193992 0)
(-0.00102264 0.000183464 0)
(-0.00103704 0.000172892 0)
(-0.00105044 0.000162299 0)
(-0.00106283 0.00015171 0)
(-0.00107419 0.00014115 0)
(-0.0010845 0.000130647 0)
(-0.00109374 0.00012023 0)
(-0.0011019 0.000109929 0)
(-0.00110893 9.9777e-05 0)
(-0.00111481 8.98065e-05 0)
(-0.00111949 8.0051e-05 0)
(-0.00112294 7.05435e-05 0)
(-0.0011251 6.13146e-05 0)
(-0.00112591 5.23909e-05 0)
(-0.00112528 4.37917e-05 0)
(-0.00112313 3.55245e-05 0)
(-0.00111935 2.75805e-05 0)
(-0.00111384 1.99274e-05 0)
(-0.00110648 1.25023e-05 0)
(-0.00109714 5.20376e-06 0)
(-0.00108574 -2.11304e-06 0)
(-0.00107217 -9.63756e-06 0)
(-0.00105643 -1.75974e-05 0)
(-0.00103855 -2.62609e-05 0)
(-1.42134e-05 0.000380867 0)
(-4.71683e-05 0.000447146 0)
(-8.37069e-05 0.000450195 0)
(-0.000119318 0.000449081 0)
(-0.000154884 0.000447354 0)
(-0.0001903 0.000445173 0)
(-0.000225518 0.000442549 0)
(-0.000260505 0.000439484 0)
(-0.000295223 0.000435984 0)
(-0.000329638 0.000432055 0)
(-0.000363714 0.000427702 0)
(-0.000397419 0.000422931 0)
(-0.000430717 0.000417751 0)
(-0.000463576 0.000412168 0)
(-0.000495964 0.000406192 0)
(-0.000527849 0.00039983 0)
(-0.000559199 0.000393094 0)
(-0.000589985 0.000385992 0)
(-0.000620178 0.000378535 0)
(-0.000649748 0.000370733 0)
(-0.000678668 0.0003626 0)
(-0.000706912 0.000354146 0)
(-0.000734452 0.000345383 0)
(-0.000761265 0.000336325 0)
(-0.000787325 0.000326984 0)
(-0.00081261 0.000317375 0)
(-0.000837097 0.000307512 0)
(-0.000860764 0.000297409 0)
(-0.000883591 0.000287081 0)
(-0.000905557 0.000276544 0)
(-0.000926643 0.000265815 0)
(-0.000946831 0.000254909 0)
(-0.000966103 0.000243845 0)
(-0.000984441 0.00023264 0)
(-0.00100183 0.000221313 0)
(-0.00101825 0.000209885 0)
(-0.00103368 0.000198375 0)
(-0.00104812 0.000186805 0)
(-0.00106154 0.000175197 0)
(-0.00107392 0.000163575 0)
(-0.00108524 0.000151964 0)
(-0.0010955 0.000140389 0)
(-0.00110465 0.000128877 0)
(-0.00111268 0.000117455 0)
(-0.00111957 0.000106152 0)
(-0.00112527 9.49946e-05 0)
(-0.00112974 8.40111e-05 0)
(-0.00113296 7.32267e-05 0)
(-0.00113486 6.26637e-05 0)
(-0.00113539 5.23391e-05 0)
(-0.00113448 4.2262e-05 0)
(-0.00113205 3.243e-05 0)
(-0.00112802 2.28255e-05 0)
(-0.00112231 1.34107e-05 0)
(-0.00111483 4.1228e-06 0)
(-0.00110548 -5.13035e-06 0)
(-0.00109422 -1.4469e-05 0)
(-0.00108099 -2.40498e-05 0)
(-0.0010658 -3.40575e-05 0)
(-0.0010487 -4.4687e-05 0)
(-1.44004e-05 0.000411314 0)
(-4.77891e-05 0.000482872 0)
(-8.48089e-05 0.000486161 0)
(-0.000120888 0.000484954 0)
(-0.000156921 0.000483084 0)
(-0.000192801 0.000480724 0)
(-0.000228479 0.000477883 0)
(-0.000263921 0.000474565 0)
(-0.000299089 0.000470777 0)
(-0.000333948 0.000466524 0)
(-0.000368462 0.000461812 0)
(-0.000402597 0.000456649 0)
(-0.000436318 0.000451041 0)
(-0.000469591 0.000444999 0)
(-0.000502384 0.000438531 0)
(-0.000534665 0.000431646 0)
(-0.000566401 0.000424355 0)
(-0.000597562 0.000416668 0)
(-0.000628118 0.000408597 0)
(-0.00065804 0.000400154 0)
(-0.000687301 0.000391351 0)
(-0.000715871 0.0003822 0)
(-0.000743726 0.000372715 0)
(-0.00077084 0.00036291 0)
(-0.000797187 0.000352799 0)
(-0.000822745 0.000342396 0)
(-0.00084749 0.000331716 0)
(-0.0008714 0.000320775 0)
(-0.000894453 0.000309588 0)
(-0.00091663 0.000298173 0)
(-0.00093791 0.000286546 0)
(-0.000958275 0.000274724 0)
(-0.000977705 0.000262726 0)
(-0.000996182 0.000250569 0)
(-0.00101369 0.000238274 0)
(-0.00103021 0.000225859 0)
(-0.00104572 0.000213346 0)
(-0.00106022 0.000200755 0)
(-0.00107367 0.000188109 0)
(-0.00108606 0.00017543 0)
(-0.00109737 0.000162742 0)
(-0.00110759 0.000150069 0)
(-0.00111668 0.000137434 0)
(-0.00112462 0.000124863 0)
(-0.00113139 0.000112381 0)
(-0.00113695 0.00010001 0)
(-0.00114126 8.77731e-05 0)
(-0.00114429 7.56902e-05 0)
(-0.00114599 6.37769e-05 0)
(-0.00114631 5.20434e-05 0)
(-0.00114519 4.04918e-05 0)
(-0.00114257 2.9114e-05 0)
(-0.00113837 1.78879e-05 0)
(-0.00113255 6.77492e-06 0)
(-0.00112502 -4.28323e-06 0)
(-0.00111574 -1.53665e-05 0)
(-0.00110466 -2.65797e-05 0)
(-0.00109176 -3.80454e-05 0)
(-0.00107706 -4.99051e-05 0)
(-0.00106062 -6.23065e-05 0)
(-1.46023e-05 0.000442175 0)
(-4.84597e-05 0.000519083 0)
(-8.59991e-05 0.000522615 0)
(-0.000122584 0.000521314 0)
(-0.000159121 0.000519299 0)
(-0.000195501 0.000516755 0)
(-0.000231677 0.000513693 0)
(-0.00026761 0.000510118 0)
(-0.000303264 0.000506035 0)
(-0.000338603 0.000501452 0)
(-0.00037359 0.000496374 0)
(-0.000408189 0.000490809 0)
(-0.000442366 0.000484767 0)
(-0.000476087 0.000478256 0)
(-0.000509317 0.000471286 0)
(-0.000542025 0.000463867 0)
(-0.000574177 0.000456011 0)
(-0.000605743 0.000447729 0)
(-0.000636692 0.000439032 0)
(-0.000666995 0.000429935 0)
(-0.000696622 0.000420449 0)
(-0.000725547 0.000410589 0)
(-0.000753742 0.000400368 0)
(-0.000781181 0.000389802 0)
(-0.00080784 0.000378905 0)
(-0.000833693 0.000367693 0)
(-0.000858718 0.000356181 0)
(-0.000882891 0.000344386 0)
(-0.000906192 0.000332325 0)
(-0.000928599 0.000320014 0)
(-0.000950092 0.000307472 0)
(-0.000970652 0.000294716 0)
(-0.000990258 0.000281765 0)
(-0.00100889 0.000268637 0)
(-0.00102654 0.000255353 0)
(-0.00104318 0.000241932 0)
(-0.00105879 0.000228394 0)
(-0.00107336 0.000214761 0)
(-0.00108686 0.000201054 0)
(-0.00109928 0.000187295 0)
(-0.00111061 0.000173506 0)
(-0.0011208 0.000159709 0)
(-0.00112986 0.000145928 0)
(-0.00113774 0.000132184 0)
(-0.00114442 0.000118498 0)
(-0.00114987 0.000104892 0)
(-0.00115406 9.13826e-05 0)
(-0.00115696 7.79859e-05 0)
(-0.00115851 6.47128e-05 0)
(-0.00115867 5.15688e-05 0)
(-0.00115741 3.85519e-05 0)
(-0.00115465 2.56508e-05 0)
(-0.00115036 1.28424e-05 0)
(-0.00114448 8.98773e-08 0)
(-0.00113697 -1.26589e-05 0)
(-0.00112778 -2.54724e-05 0)
(-0.0011169 -3.84358e-05 0)
(-0.00110432 -5.16479e-05 0)
(-0.00109006 -6.52172e-05 0)
(-0.00107418 -7.9255e-05 0)
(-1.48195e-05 0.000473482 0)
(-4.9181e-05 0.000555819 0)
(-8.72794e-05 0.000559596 0)
(-0.000124408 0.000558199 0)
(-0.000161488 0.000556035 0)
(-0.000198407 0.000553303 0)
(-0.000235116 0.000550016 0)
(-0.000271578 0.000546177 0)
(-0.000307755 0.000541794 0)
(-0.00034361 0.000536873 0)
(-0.000379104 0.000531422 0)
(-0.000414204 0.000525448 0)
(-0.000448871 0.000518962 0)
(-0.000483073 0.000511972 0)
(-0.000516773 0.00050449 0)
(-0.00054994 0.000496526 0)
(-0.000582539 0.000488093 0)
(-0.00061454 0.000479203 0)
(-0.000645912 0.000469868 0)
(-0.000676624 0.000460103 0)
(-0.000706646 0.000449921 0)
(-0.000735952 0.000439338 0)
(-0.000764513 0.000428367 0)
(-0.000792303 0.000417024 0)
(-0.000819297 0.000405326 0)
(-0.000845469 0.000393289 0)
(-0.000870796 0.000380929 0)
(-0.000895256 0.000368264 0)
(-0.000918825 0.00035531 0)
(-0.000941483 0.000342087 0)
(-0.000963208 0.000328611 0)
(-0.000983982 0.000314903 0)
(-0.00100378 0.00030098 0)
(-0.00102259 0.000286862 0)
(-0.0010404 0.000272569 0)
(-0.00105717 0.00025812 0)
(-0.0010729 0.000243537 0)
(-0.00108756 0.000228841 0)
(-0.00110113 0.000214051 0)
(-0.00111361 0.000199189 0)
(-0.00112496 0.000184277 0)
(-0.00113517 0.000169335 0)
(-0.0011442 0.000154385 0)
(-0.00115205 0.000139446 0)
(-0.00115868 0.000124538 0)
(-0.00116406 0.000109678 0)
(-0.00116817 9.48808e-05 0)
(-0.00117096 8.01595e-05 0)
(-0.00117241 6.55216e-05 0)
(-0.00117247 5.09696e-05 0)
(-0.00117111 3.64994e-05 0)
(-0.00116827 2.20986e-05 0)
(-0.00116393 7.74534e-06 0)
(-0.00115805 -6.59498e-06 0)
(-0.00115058 -2.09661e-05 0)
(-0.00114151 -3.54256e-05 0)
(-0.00113083 -5.00424e-05 0)
(-0.00111854 -6.48946e-05 0)
(-0.00110467 -8.00656e-05 0)
(-0.00108927 -9.56388e-05 0)
(-1.50523e-05 0.000505269 0)
(-4.99543e-05 0.000593117 0)
(-8.86518e-05 0.000597143 0)
(-0.000126363 0.000595647 0)
(-0.000164024 0.000593331 0)
(-0.000201521 0.000590408 0)
(-0.000238803 0.000586889 0)
(-0.000275831 0.000582782 0)
(-0.000312568 0.000578091 0)
(-0.000348975 0.000572825 0)