0 	1.46201e-08
1.57135 	3.77514e-07
3.1427 	6.08742e-06
4.71405 	3.11155e-05
6.28539 	9.84594e-05
7.85674 	0.000241433
9.42809 	0.000498816
10.9994 	0.000925861
12.5708 	0.00165452
14.1421 	0.00614258
