0 	0 	0 	0
1.57135 	-0.000525512 	0.000479337 	0
3.1427 	-0.00116884 	0.000836529 	0
4.71405 	-0.00197968 	0.000906976 	0
6.28539 	-0.00295019 	0.000538178 	0
7.85674 	-0.00404168 	-0.000380229 	0
9.42809 	-0.00536408 	-0.00192 	0
10.9994 	-0.00770694 	-0.00434548 	0
12.5708 	-0.0115603 	-0.0102316 	0
14.1421 	0.5 	0 	0
