/*--------------------------------*- C++ -*----------------------------------*\
  =========                 |
  \\      /  F ield         | OpenFOAM: The Open Source CFD Toolbox
   \\    /   O peration     | Website:  https://openfoam.org
    \\  /    A nd           | Version:  8
     \\/     M anipulation  |
\*---------------------------------------------------------------------------*/
FoamFile
{
    version     2.0;
    format      ascii;
    class       volVectorField;
    location    "19";
    object      U;
}
// * * * * * * * * * * * * * * * * * * * * * * * * * * * * * * * * * * * * * //

dimensions      [0 1 -1 0 0 0 0];

internalField   nonuniform List<vector> 
116
(
(0.0100978 -0.00600622 0)
(0.000199148 -0.0112888 0)
(0.0319324 -0.00968881 0)
(-0.00102146 -0.0223679 0)
(0.0364407 0.0283165 0)
(-0.121025 0.0948554 0)
(0.00366666 -0.00474786 0)
(-0.0128324 -0.00747795 0)
(-0.0106797 0.00655247 0)
(-0.0492582 0.0245769 0)
(-0.0659212 0.079114 0)
(-0.118959 0.0932151 0)
(0.000645659 0.00218958 0)
(-0.013583 0.00473766 0)
(-0.0242568 0.0212602 0)
(-0.0478122 0.0404417 0)
(-0.0623744 0.0995659 0)
(-0.0798492 0.112633 0)
(-0.00274646 0.00800873 0)
(-0.0154291 0.0194136 0)
(-0.0256114 0.0397634 0)
(-0.0358772 0.0640355 0)
(-0.0418101 0.112738 0)
(-0.0315426 0.109781 0)
(-0.000160441 0.0202092 0)
(-0.0091534 0.0278515 0)
(-0.0207238 0.0409945 0)
(-0.0194323 0.0546899 0)
(-0.0209595 0.0952769 0)
(0.0117381 0.0892036 0)
(-0.00369566 0.0160765 0)
(-0.00448621 0.0394442 0)
(-0.00925812 0.0515423 0)
(-0.00373645 0.0642789 0)
(-0.00461478 0.0882011 0)
(0.0291748 0.0778573 0)
(0.00313954 0.0312009 0)
(-0.00207762 0.0336042 0)
(-0.0132907 0.0420188 0)
(-0.00205762 0.0450714 0)
(-0.00352436 0.0588255 0)
(0.036009 0.0479549 0)
(0.00209396 0.0112286 0)
(0.00868711 0.0557732 0)
(0.0131996 0.0530488 0)
(0.0204241 0.0582852 0)
(0.0163686 0.0574247 0)
(0.0442567 0.0523593 0)
(-0.0653434 0.0262092 0)
(-0.0354694 0.0185707 0)
(-0.0557513 0.0296788 0)
(-0.0248397 0.0337899 0)
(-0.0213579 0.0305421 0)
(0.0143617 0.0312004 0)
(0.052176 0.0986985 0)
(0.0865541 0.056739 0)
(0.112476 0.0421221 0)
(0.164006 0.0326013 0)
(0.171172 0.0235074 0)
(0.218896 0.0206708 0)
(-0.128935 0.143763 0)
(-0.108036 -0.0316403 0)
(-0.0601422 -0.0530597 0)
(-0.00587781 -0.120272 0)
(-0.11368 0.130142 0)
(-0.0670849 -0.0577112 0)
(-0.0944958 -0.102927 0)
(0.0037197 -0.173779 0)
(-0.0746483 0.10081 0)
(-0.0176011 -0.0609938 0)
(-0.0631526 -0.115062 0)
(0.00187904 -0.212601 0)
(-0.0314067 0.082132 0)
(0.0146535 -0.0640572 0)
(-0.0424334 -0.118909 0)
(0.0125166 -0.230711 0)
(0.0141754 0.0579996 0)
(0.0412776 -0.0549156 0)
(-0.0275385 -0.115529 0)
(0.014697 -0.244294 0)
(0.026165 0.059465 0)
(0.0558168 -0.0186004 0)
(-0.0187055 -0.0845884 0)
(0.0264979 -0.241512 0)
(0.0243156 0.0305505 0)
(0.0649262 -0.0219293 0)
(-0.0332683 -0.093403 0)
(0.0315466 -0.248861 0)
(0.0242811 0.0431009 0)
(0.0554389 0.0366416 0)
(-0.0142781 -0.0363686 0)
(0.0536818 -0.230825 0)
(0.0145254 0.0147265 0)
(0.0560655 0.00584592 0)
(0.0474277 -0.0989708 0)
(0.0785992 -0.239757 0)
(0.213198 0.0120414 0)
(0.248578 0.000415039 0)
(0.203913 -0.0229588 0)
(0.152943 -0.0710131 0)
(-0.011123 -0.00088781 0)
(-0.0336362 -0.00431009 0)
(-0.0472769 0.00218222 0)
(-0.021246 -0.0208473 0)
(-0.0142205 0.0466039 0)
(-0.0374202 0.0409895 0)
(-0.0372931 -0.0107615 0)
(-0.0184639 -0.049128 0)
(-0.0398376 0.0506583 0)
(-0.0318898 0.00917075 0)
(-0.0272309 -0.0116973 0)
(-0.0275303 -0.0835443 0)
(-0.0117823 0.123859 0)
(-0.08816 0.0344784 0)
(0.00988781 -0.0121579 0)
(-0.0392722 -0.0954657 0)
)
;

boundaryField
{
    movingWall
    {
        type            fixedValue;
        value           uniform (1 0 0);
    }
    fixedWalls
    {
        type            noSlip;
    }
    frontAndBack
    {
        type            empty;
    }
}


// ************************************************************************* //
