/*--------------------------------*- C++ -*----------------------------------*\
  =========                 |
  \\      /  F ield         | OpenFOAM: The Open Source CFD Toolbox
   \\    /   O peration     | Website:  https://openfoam.org
    \\  /    A nd           | Version:  8
     \\/     M anipulation  |
\*---------------------------------------------------------------------------*/
FoamFile
{
    version     2.0;
    format      ascii;
    class       volScalarField;
    location    "0.025";
    object      p;
}
// * * * * * * * * * * * * * * * * * * * * * * * * * * * * * * * * * * * * * //

dimensions      [0 2 -2 0 0 0 0];

internalField   nonuniform List<scalar> 
400
(
6.80814e-08
-0.00397225
-0.00801861
-0.00999857
-0.00893566
-0.0044673
0.00328208
0.013878
0.0266783
0.0409013
0.0556833
0.0701153
0.0832707
0.0942558
0.102288
0.106806
0.107625
0.105145
0.100579
0.0963709
0.00456206
0.000493943
-0.00252657
-0.00348558
-0.00197376
0.00226589
0.00918272
0.0184659
0.0296083
0.0419611
0.0547935
0.0673337
0.0788007
0.0884532
0.0956591
0.0999867
0.101325
0.0999803
0.0965388
0.0921966
0.00997378
0.00412926
0.000657164
-0.000217315
0.0013201
0.00537954
0.0118859
0.0205504
0.0309166
0.0423963
0.0543263
0.0660081
0.0767344
0.085828
0.0926992
0.0969247
0.0983588
0.0971591
0.0933261
0.0872376
0.0141247
0.00593923
0.00134324
4.32659e-05
0.00139608
0.00537925
0.01185
0.0204793
0.0307996
0.0422309
0.0541266
0.0658084
0.076583
0.0857696
0.0927471
0.0970282
0.0983775
0.0968051
0.0918524
0.0834412
0.0158128
0.00521293
-0.000690009
-0.00252991
-0.00132409
0.00278425
0.00957122
0.0186408
0.0294849
0.0415034
0.0540349
0.0663836
0.0778309
0.0876516
0.0951523
0.0997431
0.101073
0.0990086
0.0927095
0.0818213
0.0143034
0.00116884
-0.00612606
-0.00846869
-0.00723538
-0.00269394
0.00483535
0.0148694
0.0268392
0.0401035
0.0539618
0.0676726
0.0804611
0.0915263
0.100068
0.105355
0.106888
0.104373
0.0966022
0.0830254
0.00895448
-0.00697661
-0.0157256
-0.018433
-0.0168828
-0.0114924
-0.00270145
0.00889694
0.0226532
0.0378703
0.0537944
0.0696221
0.0845023
0.0975324
0.107769
0.114297
0.116414
0.113618
0.104268
0.0876141
-0.000997557
-0.0201467
-0.0303967
-0.033222
-0.0309316
-0.0241462
-0.0134629
0.000387615
0.0166587
0.03459
0.053374
0.0721445
0.0899679
0.105822
0.118586
0.127099
0.130383
0.127635
0.116615
0.0962937
-0.0166222
-0.0395667
-0.051322
-0.0538607
-0.0502222
-0.0413241
-0.027977
-0.01108
0.00851317
0.0299828
0.052483
0.0751045
0.0968443
0.116556
0.132909
0.144428
0.149752
0.147617
0.13491
0.11013
-0.0394879
-0.0669337
-0.0800661
-0.0816466
-0.0757758
-0.0638106
-0.0468482
-0.0259865
-0.00218422
0.0237016
0.0508243
0.0782782
0.105033
0.129839
0.151138
0.167065
0.175734
0.175189
0.160986
0.130799
-0.071911
-0.104617
-0.118682
-0.118172
-0.10876
-0.0924413
-0.070682
-0.0448008
-0.015838
0.0153617
0.0480199
0.0813178
0.114281
0.145626
0.173585
0.195844
0.209824
0.212543
0.197515
0.160936
-0.117353
-0.155953
-0.169844
-0.165322
-0.150403
-0.127972
-0.0999381
-0.0678343
-0.0327236
0.00465119
0.0436899
0.0837906
0.124179
0.163671
0.200393
0.231581
0.253807
0.262617
0.248402
0.204691
-0.181161
-0.225704
-0.236983
-0.225186
-0.201775
-0.170803
-0.13464
-0.0949578
-0.0527217
-0.00842906
0.0376592
0.0853417
0.134256
0.18356
0.2315
0.27501
0.30975
0.329298
0.319371
0.268707
-0.272081
-0.320795
-0.324331
-0.299726
-0.263311
-0.220467
-0.173886
-0.125165
-0.0749407
-0.0232414
0.0302295
0.0859075
0.144126
0.20474
0.266545
0.32659
0.379848
0.417563
0.418859
0.364053
-0.405354
-0.451355
-0.43655
-0.389892
-0.333841
-0.274772
-0.215172
-0.156067
-0.0973481
-0.0382472
0.022366
0.0858322
0.153508
0.226411
0.304557
0.385976
0.465801
0.533267
0.559258
0.509939
-0.608175
-0.631681
-0.577585
-0.494076
-0.409217
-0.328785
-0.253748
-0.183548
-0.11663
-0.0509768
0.0156769
0.085826
0.162157
0.24736
0.34358
0.45131
0.567801
0.6822
0.757787
0.739427
-0.929556
-0.880083
-0.748462
-0.606602
-0.481429
-0.37449
-0.282729
-0.202155
-0.128694
-0.0585396
0.0119652
0.086614
0.169618
0.2658
0.380522
0.518931
0.683676
0.868257
1.03615
1.10868
-1.47961
-1.21729
-0.936938
-0.710331
-0.534638
-0.39921
-0.292965
-0.20574
-0.129665
-0.0587721
0.0119704
0.0875062
0.173472
0.277026
0.407799
0.57827
0.801135
1.08383
1.42171
1.73889
-2.55293
-1.65036
-1.07057
-0.740398
-0.523946
-0.374494
-0.267527
-0.184932
-0.115072
-0.0505979
0.0139445
0.0836587
0.164602
0.265313
0.399282
0.587793
0.859982
1.26368
1.93208
2.93597
-4.38654
-2.07116
-1.00842
-0.603743
-0.398782
-0.275761
-0.195613
-0.135871
-0.0845703
-0.0356209
0.0148018
0.0701679
0.134865
0.215995
0.32688
0.493268
0.763254
1.26279
2.43929
4.86808
)
;

boundaryField
{
    movingWall
    {
        type            zeroGradient;
    }
    fixedWalls
    {
        type            zeroGradient;
    }
    frontAndBack
    {
        type            empty;
    }
}


// ************************************************************************* //
