/*--------------------------------*- C++ -*----------------------------------*\
  =========                 |
  \\      /  F ield         | OpenFOAM: The Open Source CFD Toolbox
   \\    /   O peration     | Website:  https://openfoam.org
    \\  /    A nd           | Version:  8
     \\/     M anipulation  |
\*---------------------------------------------------------------------------*/
FoamFile
{
    version     2.0;
    format      ascii;
    class       surfaceScalarField;
    location    "0.025";
    object      phi;
}
// * * * * * * * * * * * * * * * * * * * * * * * * * * * * * * * * * * * * * //

dimensions      [0 3 -1 0 0 0 0];

internalField   nonuniform List<scalar> 
760
(
7.6185e-09
-7.61909e-09
-2.64162e-08
3.40343e-08
-1.00453e-07
7.40363e-08
-1.99302e-07
9.88496e-08
-3.07671e-07
1.08369e-07
-4.12776e-07
1.05105e-07
-5.04619e-07
9.18432e-08
-5.75837e-07
7.12177e-08
-6.21354e-07
4.55173e-08
-6.3806e-07
1.67064e-08
-6.24606e-07
-1.34541e-08
-5.81428e-07
-4.31782e-08
-5.10975e-07
-7.04533e-08
-4.18086e-07
-9.28886e-08
-3.10444e-07
-1.07643e-07
-1.98951e-07
-1.11493e-07
-9.77246e-08
-1.01226e-07
-2.32887e-08
-7.44358e-08
8.82462e-09
-3.21135e-08
8.82458e-09
-3.16654e-08
2.40464e-08
-1.50057e-07
1.52426e-07
-3.433e-07
2.67279e-07
-5.83284e-07
3.38834e-07
-8.4033e-07
3.65416e-07
-1.08768e-06
3.52452e-07
-1.30328e-06
3.07451e-07
-1.4703e-06
2.38238e-07
-1.57683e-06
1.52043e-07
-1.6155e-06
5.53779e-08
-1.58327e-06
-4.56901e-08
-1.48143e-06
-1.45013e-07
-1.31605e-06
-2.35831e-07
-1.09857e-06
-3.10369e-07
-8.46485e-07
-3.5973e-07
-5.83608e-07
-3.7437e-07
-3.39253e-07
-3.45581e-07
-1.45377e-07
-2.68313e-07
-2.97357e-08
-1.47755e-07
-2.09112e-08
-7.5855e-08
9.99014e-08
-2.80557e-07
3.57129e-07
-5.82188e-07
5.6891e-07
-9.40414e-07
6.9706e-07
-1.31536e-06
7.40363e-07
-1.67148e-06
7.08567e-07
-1.97945e-06
6.15425e-07
-2.21674e-06
4.75531e-07
-2.36738e-06
3.0268e-07
-2.42149e-06
1.0949e-07
-2.37502e-06
-9.2158e-08
-2.22983e-06
-2.9021e-07
-1.99417e-06
-4.71491e-07
-1.68352e-06
-6.21017e-07
-1.32134e-06
-7.21914e-07
-9.39252e-07
-7.56455e-07
-5.75962e-07
-7.08871e-07
-2.73892e-07
-5.70383e-07
-7.2717e-08
-3.4893e-07
-9.36288e-08
-1.12848e-07
2.12749e-07
-3.97926e-07
6.42207e-07
-8.01361e-07
9.72345e-07
-1.26835e-06
1.16405e-06
-1.74857e-06
1.22058e-06
-2.19896e-06
1.15897e-06
-2.585e-06
1.00146e-06
-2.88058e-06
7.71111e-07
-3.06741e-06
4.895e-07
-3.13422e-06
1.76309e-07
-3.07641e-06
-1.49969e-07
-2.89602e-06
-4.70604e-07
-2.6024e-06
-7.65107e-07
-2.21329e-06
-1.01013e-06
-1.7559e-06
-1.17931e-06
-1.26748e-06
-1.24487e-06
-7.94625e-07
-1.18173e-06
-3.90416e-07
-9.74592e-07
-1.09163e-07
-6.30183e-07
-2.02792e-07
-1.45462e-07
3.5821e-07
-5.06761e-07
1.00351e-06
-1.00936e-06
1.47495e-06
-1.5826e-06
1.73729e-06
-2.16463e-06
1.8026e-06
-2.70483e-06
1.69916e-06
-3.16407e-06
1.46071e-06
-3.51376e-06
1.1208e-06
-3.73433e-06
7.10071e-07
-3.8139e-06
2.55881e-07
-3.74745e-06
-2.16419e-07
-3.53679e-06
-6.81262e-07
-3.1914e-06
-1.1105e-06
-2.72993e-06
-1.4716e-06
-2.18201e-06
-1.72722e-06
-1.58972e-06
-1.83716e-06
-1.00775e-06
-1.76371e-06
-5.01403e-07
-1.48093e-06
-1.4201e-07
-9.89576e-07
-3.44802e-07
-1.77957e-07
5.36167e-07
-6.175e-07
1.44305e-06
-1.2231e-06
2.08055e-06
-1.90651e-06
2.42071e-06
-2.59316e-06
2.48926e-06
-3.22444e-06
2.33044e-06
-3.75704e-06
1.9933e-06
-4.1607e-06
1.52446e-06
-4.41546e-06
9.64838e-07
-4.50939e-06
3.49807e-07
-4.43713e-06
-2.88681e-07
-4.19974e-06
-9.18653e-07
-3.80577e-06
-1.50447e-06
-3.27347e-06
-2.0039e-06
-2.63372e-06
-2.36697e-06
-1.93291e-06
-2.53797e-06
-1.23459e-06
-2.46204e-06
-6.1848e-07
-2.09704e-06
-1.75858e-07
-1.4322e-06
-5.2066e-07
-2.14441e-07
7.50608e-07
-7.41355e-07
1.96996e-06
-1.46078e-06
2.79998e-06
-2.26396e-06
3.22389e-06
-3.06207e-06
3.28736e-06
-3.78835e-06
3.05671e-06
-4.39609e-06
2.60104e-06
-4.85458e-06
1.98295e-06
-5.14466e-06
1.25492e-06
-5.25507e-06
4.60215e-07
-5.18024e-06
-3.63507e-07
-4.91986e-06
-1.17904e-06
-4.48023e-06
-1.94409e-06
-3.87748e-06
-2.60665e-06
-3.14204e-06
-3.1024e-06
-2.32371e-06
-3.3563e-06
-1.49545e-06
-3.2903e-06
-7.54078e-07
-2.83841e-06
-2.15254e-07
-1.97102e-06
-7.35914e-07
-2.58782e-07
1.00939e-06
-8.89014e-07
2.6002e-06
-1.73925e-06
3.65021e-06
-2.67558e-06
4.16022e-06
-3.59316e-06
4.20494e-06
-4.41754e-06
3.88109e-06
-5.10034e-06
3.28385e-06
-5.61253e-06
2.49513e-06
-5.93759e-06
1.57999e-06
-6.06619e-06
5.88808e-07
-5.99284e-06
-4.36858e-07
-5.71512e-06
-1.45675e-06
-5.2354e-06
-2.42381e-06
-4.56515e-06
-3.27691e-06
-3.73161e-06
-3.93595e-06
-2.78582e-06
-4.30209e-06
-1.80994e-06
-4.26617e-06
-9.2073e-07
-3.72762e-06
-2.64765e-07
-2.62699e-06
-1.00068e-06
-3.14866e-07
1.32426e-06
-1.07057e-06
3.3559e-06
-2.07291e-06
4.65255e-06
-3.15633e-06
5.24364e-06
-4.19836e-06
5.24697e-06
-5.11859e-06
4.80132e-06
-5.87024e-06
4.0355e-06
-6.42944e-06
3.05434e-06
-6.78529e-06
1.93583e-06
-6.93222e-06
7.35741e-07
-6.86552e-06
-5.03559e-07
-6.57993e-06
-1.74234e-06
-6.07167e-06
-2.93207e-06
-5.34404e-06
-4.00454e-06
-4.41663e-06
-4.86335e-06
-3.33753e-06
-5.38119e-06
-2.19601e-06
-5.40769e-06
-1.13116e-06
-4.79247e-06
-3.29308e-07
-3.42884e-06
-1.32999e-06
-3.8707e-07
1.71133e-06
-1.29595e-06
4.26478e-06
-2.47299e-06
5.82958e-06
-3.71283e-06
6.48349e-06
-4.87496e-06
6.40909e-06
-5.87704e-06
5.80341e-06
-6.67954e-06
4.83799e-06
-7.26909e-06
3.64389e-06
-7.64455e-06
2.31129e-06
-7.8069e-06
8.98088e-07
-7.75328e-06
-5.57181e-07
-7.47501e-06
-2.02061e-06
-6.95964e-06
-3.44744e-06
-6.19763e-06
-4.76655e-06
-5.19441e-06
-5.86657e-06
-3.98778e-06
-6.58782e-06
-2.66855e-06
-6.72693e-06
-1.39857e-06
-6.06245e-06
-4.14701e-07
-4.4127e-06
-1.74469e-06
-4.81089e-07
2.19241e-06
-1.57549e-06
5.35918e-06
-2.94596e-06
7.20005e-06
-4.33864e-06
7.87618e-06
-5.59778e-06
7.66822e-06
-6.6472e-06
6.85284e-06
-7.46348e-06
5.65427e-06
-8.05126e-06
4.23167e-06
-8.42458e-06
2.6846e-06
-8.59432e-06
1.06783e-06
-8.56113e-06
-5.90364e-07
-8.31274e-06
-2.269e-06
-7.82559e-06
-3.93459e-06
-7.07198e-06
-5.52016e-06
-6.03436e-06
-6.90418e-06
-4.72872e-06
-7.89347e-06
-3.23612e-06
-8.21952e-06
-1.7366e-06
-7.56197e-06
-5.28487e-07
-5.62082e-06
-2.27317e-06
-6.05306e-07
2.79772e-06
-1.9201e-06
6.67397e-06
-3.48967e-06
8.76962e-06
-5.00539e-06
9.3919e-06
-6.3061e-06
8.96893e-06
-7.33633e-06
7.88306e-06
-8.10173e-06
6.41967e-06
-8.63434e-06
4.76429e-06
-8.96931e-06
3.01957e-06
-9.13101e-06
1.22953e-06
-9.12556e-06
-5.95817e-07
-8.93765e-06
-2.4569e-06
-8.53125e-06
-4.34099e-06
-7.85557e-06
-6.19585e-06
-6.85995e-06
-7.8998e-06
-5.52227e-06
-9.23115e-06
-3.89393e-06
-9.84786e-06
-2.15821e-06
-9.29769e-06
-6.81196e-07
-7.09783e-06
-2.95437e-06
-7.73047e-07
3.57077e-06
-2.34028e-06
8.2412e-06
-4.08452e-06
1.05139e-05
-5.64615e-06
1.09535e-05
-6.88202e-06
1.02048e-05
-7.78114e-06
8.78218e-06
-8.39526e-06
7.03379e-06
-8.79355e-06
5.16258e-06
-9.03706e-06
3.26308e-06
-9.16598e-06
1.35844e-06
-9.19366e-06
-5.68133e-07
-9.10359e-06
-2.54698e-06
-8.84823e-06
-4.59635e-06
-8.35168e-06
-6.6924e-06
-7.52125e-06
-8.73023e-06
-6.27697e-06
-1.04754e-05
-4.60945e-06
-1.15154e-05
-2.67174e-06
-1.12354e-05
-8.88184e-07
-8.88139e-06
-3.84255e-06
-1.00599e-06
4.57676e-06
-2.84092e-06
1.00761e-05
-4.67373e-06
1.23467e-05
-6.12482e-06
1.24046e-05
-7.11581e-06
1.11958e-05
-7.71478e-06
9.38115e-06
-8.03786e-06
7.35687e-06
-8.19762e-06
5.32234e-06
-8.28118e-06
3.34664e-06
-8.34341e-06
1.42067e-06
-8.40532e-06
-5.06224e-07
-8.45236e-06
-2.49994e-06
-8.43086e-06
-4.61785e-06
-8.24433e-06
-6.87893e-06
-7.75581e-06
-9.21875e-06
-6.80966e-06
-1.14216e-05
-5.29424e-06
-1.30308e-05
-3.27007e-06
-1.32596e-05
-1.17173e-06
-1.09797e-05
-5.01428e-06
-1.33683e-06
5.91359e-06
-3.40239e-06
1.21417e-05
-5.11933e-06
1.40636e-05
-6.18034e-06
1.34656e-05
-6.65243e-06
1.16679e-05
-6.72388e-06
9.45261e-06
-6.58619e-06
7.21918e-06
-6.39048e-06
5.12663e-06
-6.24033e-06
3.19649e-06
-6.19749e-06
1.37783e-06
-6.28811e-06
-4.15609e-07
-6.50389e-06
-2.28416e-06
-6.79619e-06
-4.32554e-06
-7.06364e-06
-6.61149e-06
-7.1382e-06
-9.14418e-06
-6.78506e-06
-1.17747e-05
-5.74884e-06
-1.4067e-05
-3.90036e-06
-1.51081e-05
-1.55919e-06
-1.33209e-05
-6.57347e-06
-1.79776e-06
7.71135e-06
-3.91709e-06
1.4261e-05
-5.10275e-06
1.52493e-05
-5.32692e-06
1.36898e-05
-4.91461e-06
1.12556e-05
-4.20132e-06
8.73931e-06
-3.43933e-06
6.45719e-06
-2.79121e-06
4.47852e-06
-2.35206e-06
2.75734e-06
-2.17361e-06
1.19938e-06
-2.28022e-06
-3.08997e-07
-2.67401e-06
-1.89037e-06
-3.32793e-06
-3.67162e-06
-4.16525e-06
-5.77417e-06
-5.0255e-06
-8.28393e-06
-5.62647e-06
-1.11738e-05
-5.55708e-06
-1.41364e-05
-4.3825e-06
-1.62826e-05
-2.05919e-06
-1.56442e-05
-8.63266e-06
-2.35235e-06
1.00637e-05
-4.00295e-06
1.59116e-05
-3.90924e-06
1.51556e-05
-2.68564e-06
1.24662e-05
-1.00515e-06
9.57508e-06
6.88567e-07
7.04559e-06
2.15082e-06
4.99494e-06
3.26684e-06
3.3625e-06
3.99109e-06
2.03309e-06
4.30621e-06
8.84267e-07
4.20043e-06
-2.03224e-07
3.65946e-06
-1.3494e-06
2.67156e-06
-2.68372e-06
1.24986e-06
-4.35247e-06
-5.19865e-07
-6.5142e-06
-2.3992e-06
-9.29443e-06
-3.89642e-06
-1.26392e-05
-4.21363e-06
-1.59654e-05
-2.57054e-06
-1.72873e-05
-1.12032e-05
-2.66e-06
1.27237e-05
-2.51084e-06
1.57625e-05
1.03557e-08
1.26344e-05
3.27273e-06
9.20382e-06
6.38472e-06
6.46309e-06
8.99224e-06
4.43808e-06
1.10019e-05
2.98524e-06
1.24303e-05
1.93417e-06
1.33238e-05
1.13955e-06
1.37199e-05
4.88171e-07
1.3629e-05
-1.12324e-07
1.30277e-05
-7.4809e-07
1.18589e-05
-1.51497e-06
1.00436e-05
-2.53708e-06
7.51688e-06
-3.98752e-06
4.31925e-06
-6.0968e-06
7.83102e-07
-9.10303e-06
-2.1374e-06
-1.30449e-05
-2.63078e-06
-1.67939e-05
-1.3834e-05
-8.10694e-07
1.35344e-05
3.91469e-06
1.10371e-05
9.86328e-06
6.68577e-06
1.49871e-05
4.08005e-06
1.89195e-05
2.53066e-06
2.17786e-05
1.57897e-06
2.37772e-05
9.86631e-07
2.51062e-05
6.05142e-07
2.59039e-05
3.41839e-07
2.62528e-05
1.39264e-07
2.61825e-05
-4.19389e-08
2.56692e-05
-2.34844e-07
2.46317e-05
-4.77479e-07
2.29205e-05
-8.25839e-07
2.03092e-05
-1.37628e-06
1.65146e-05
-2.30219e-06
1.13253e-05
-3.91372e-06
5.04488e-06
-6.7645e-06
-2.55601e-07
-1.14934e-05
-1.40896e-05
1.35344e-05
2.45715e-05
3.12573e-05
3.53373e-05
3.7868e-05
3.94469e-05
4.04336e-05
4.10387e-05
4.13805e-05
4.15198e-05
4.14779e-05
4.1243e-05
4.07655e-05
3.99397e-05
3.85634e-05
3.62612e-05
3.23475e-05
2.5583e-05
1.40896e-05
)
;

boundaryField
{
    movingWall
    {
        type            calculated;
        value           uniform 0;
    }
    fixedWalls
    {
        type            calculated;
        value           uniform 0;
    }
    frontAndBack
    {
        type            empty;
        value           nonuniform List<scalar> 0();
    }
}


// ************************************************************************* //
