/*--------------------------------*- C++ -*----------------------------------*\
  =========                 |
  \\      /  F ield         | OpenFOAM: The Open Source CFD Toolbox
   \\    /   O peration     | Website:  https://openfoam.org
    \\  /    A nd           | Version:  8
     \\/     M anipulation  |
\*---------------------------------------------------------------------------*/
FoamFile
{
    version     2.0;
    format      ascii;
    class       surfaceScalarField;
    location    "0.83";
    object      phi;
}
// * * * * * * * * * * * * * * * * * * * * * * * * * * * * * * * * * * * * * //

dimensions      [0 3 -1 0 0 0 0];

internalField   nonuniform List<scalar> 
760
(
1.24835e-06
2.75523e-12
1.24835e-06
5.11697e-12
1.24834e-06
4.85749e-12
1.24834e-06
4.61135e-12
1.24833e-06
3.8081e-12
1.24833e-06
2.96632e-12
1.24833e-06
2.18153e-12
1.24833e-06
1.50557e-12
1.24833e-06
9.46834e-13
1.24833e-06
4.62487e-13
1.24833e-06
-1.46348e-14
1.24833e-06
-5.49214e-13
1.24833e-06
-1.18934e-12
1.24833e-06
-1.97057e-12
1.24833e-06
-2.89847e-12
1.24834e-06
-3.97711e-12
1.24834e-06
-5.14493e-12
1.24835e-06
-5.97569e-12
1.24835e-06
-5.66587e-12
-1.82609e-12
3.74508e-06
2.81107e-12
3.74507e-06
9.57621e-12
3.74507e-06
1.18989e-11
3.74506e-06
1.17864e-11
3.74505e-06
1.03395e-11
3.74505e-06
8.50804e-12
3.74504e-06
6.67009e-12
3.74504e-06
4.97607e-12
3.74504e-06
3.4449e-12
3.74503e-06
2.01186e-12
3.74503e-06
5.7111e-13
3.74503e-06
-9.92297e-13
3.74504e-06
-2.78089e-12
3.74504e-06
-4.87219e-12
3.74504e-06
-7.29974e-12
3.74505e-06
-1.0009e-11
3.74506e-06
-1.27232e-11
3.74507e-06
-1.44526e-11
3.74507e-06
-1.30719e-11
-6.39246e-12
6.24191e-06
1.56183e-12
6.24191e-06
1.13957e-11
6.2419e-06
1.64026e-11
6.2419e-06
1.72937e-11
6.24189e-06
1.59634e-11
6.24189e-06
1.37305e-11
6.24188e-06
1.12248e-11
6.24188e-06
8.73451e-12
6.24187e-06
6.3432e-12
6.24187e-06
4.01147e-12
6.24187e-06
1.63349e-12
6.24187e-06
-9.24533e-13
6.24187e-06
-3.79636e-12
6.24187e-06
-7.09003e-12
6.24188e-06
-1.08473e-11
6.24188e-06
-1.49444e-11
6.24189e-06
-1.88841e-11
6.2419e-06
-2.12717e-11
6.2419e-06
-1.94248e-11
-1.11121e-11
8.73894e-06
-8.56657e-13
8.73894e-06
1.13065e-11
8.73893e-06
1.82837e-11
8.73893e-06
2.03922e-11
8.73893e-06
1.96271e-11
8.73892e-06
1.74791e-11
8.73892e-06
1.47369e-11
8.73892e-06
1.18055e-11
8.73891e-06
8.84551e-12
8.73891e-06
5.86479e-12
8.73891e-06
2.78219e-12
8.73891e-06
-5.28836e-13
8.73891e-06
-4.20558e-12
8.73891e-06
-8.35898e-12
8.73891e-06
-1.30145e-11
8.73892e-06
-1.79851e-11
8.73892e-06
-2.26339e-11
8.73893e-06
-2.54044e-11
8.73893e-06
-2.35016e-11
-1.46341e-11
1.12362e-05
-3.20536e-12
1.12362e-05
9.74552e-12
1.12362e-05
1.78879e-11
1.12362e-05
2.10525e-11
1.12362e-05
2.10263e-11
1.12362e-05
1.92861e-11
1.12362e-05
1.66754e-11
1.12362e-05
1.36698e-11
1.12362e-05
1.04935e-11
1.12362e-05
7.20345e-12
1.12362e-05
3.75398e-12
1.12362e-05
4.36162e-14
1.12362e-05
-4.04586e-12
1.12362e-05
-8.60705e-12
1.12362e-05
-1.36417e-11
1.12362e-05
-1.89298e-11
1.12362e-05
-2.37968e-11
1.12362e-05
-2.67336e-11
1.12362e-05
-2.51323e-11
-1.67456e-11
1.37339e-05
-5.13429e-12
1.37339e-05
7.25728e-12
1.37339e-05
1.56782e-11
1.37339e-05
1.95186e-11
1.37339e-05
2.02022e-11
1.37339e-05
1.90448e-11
1.37339e-05
1.68473e-11
1.37339e-05
1.40996e-11
1.37339e-05
1.10607e-11
1.37339e-05
7.82675e-12
1.37339e-05
4.38931e-12
1.37339e-05
6.8183e-13
1.37339e-05
-3.38189e-12
1.37339e-05
-7.86696e-12
1.37339e-05
-1.27577e-11
1.37339e-05
-1.78414e-11
1.37339e-05
-2.25026e-11
1.37339e-05
-2.54341e-11
1.37339e-05
-2.43992e-11
-1.72883e-11
1.62319e-05
-6.43694e-12
1.62319e-05
4.2973e-12
1.62319e-05
1.2153e-11
1.62319e-05
1.61977e-11
1.62319e-05
1.74309e-11
1.62319e-05
1.69087e-11
1.62319e-05
1.53115e-11
1.62319e-05
1.30882e-11
1.62319e-05
1.04995e-11
1.62319e-05
7.66311e-12
1.62319e-05
4.60235e-12
1.62319e-05
1.287e-12
1.62319e-05
-2.33291e-12
1.62319e-05
-6.2944e-12
1.62319e-05
-1.05757e-11
1.62319e-05
-1.50061e-11
1.62319e-05
-1.91025e-11
1.62319e-05
-2.18647e-11
1.62319e-05
-2.15478e-11
-1.6278e-11
1.87304e-05
-6.99174e-12
1.87304e-05
1.23799e-12
1.87304e-05
7.79523e-12
1.87304e-05
1.15703e-11
1.87304e-05
1.31261e-11
1.87304e-05
1.32033e-11
1.87304e-05
1.23056e-11
1.87304e-05
1.07952e-11
1.87304e-05
8.90127e-12
1.87304e-05
6.74333e-12
1.87304e-05
4.3662e-12
1.87304e-05
1.77192e-12
1.87304e-05
-1.05497e-12
1.87304e-05
-4.1265e-12
1.87304e-05
-7.42527e-12
1.87304e-05
-1.08461e-11
1.87304e-05
-1.40816e-11
1.87304e-05
-1.65027e-11
1.87304e-05
-1.69381e-11
-1.38492e-11
2.12294e-05
-6.7663e-12
2.12294e-05
-1.6364e-12
2.12294e-05
3.04262e-12
2.12294e-05
6.13103e-12
2.12294e-05
7.77058e-12
2.12294e-05
8.35983e-12
2.12294e-05
8.19018e-12
2.12294e-05
7.50222e-12
2.12294e-05
6.46621e-12
2.12294e-05
5.18419e-12
2.12294e-05
3.7108e-12
2.12294e-05
2.07381e-12
2.12294e-05
2.88326e-13
2.12294e-05
-1.63625e-12
2.12294e-05
-3.69208e-12
2.12294e-05
-5.84923e-12
2.12294e-05
-7.99415e-12
2.12294e-05
-9.89715e-12
2.12294e-05
-1.1014e-11
-1.02341e-11
2.37289e-05
-5.82083e-12
2.37289e-05
-4.13395e-12
2.37289e-05
-1.72881e-12
2.37289e-05
3.55433e-13
2.37289e-05
1.87175e-12
2.37289e-05
2.86823e-12
2.37289e-05
3.40473e-12
2.37289e-05
3.57736e-12
2.37289e-05
3.47721e-12
2.37289e-05
3.17377e-12
2.37289e-05
2.7211e-12
2.37289e-05
2.16619e-12
2.37289e-05
1.55099e-12
2.37289e-05
9.05021e-13
2.37289e-05
2.27869e-13
2.37289e-05
-5.22368e-13
2.37289e-05
-1.42205e-12
2.37289e-05
-2.6392e-12
2.37289e-05
-4.28164e-12
-5.75075e-12
2.62289e-05
-4.30326e-12
2.62289e-05
-6.14988e-12
2.62289e-05
-6.2088e-12
2.62289e-05
-5.31543e-12
2.62289e-05
-4.06459e-12
2.62289e-05
-2.75576e-12
2.62289e-05
-1.56654e-12
2.62289e-05
-5.56617e-13
2.62289e-05
2.74525e-13
2.62289e-05
9.54516e-13
2.62289e-05
1.53e-12
2.62289e-05
2.06257e-12
2.62289e-05
2.61921e-12
2.62289e-05
3.25131e-12
2.62289e-05
3.95771e-12
2.62289e-05
4.63962e-12
2.62289e-05
5.05319e-12
2.62289e-05
4.66035e-12
2.62289e-05
2.7073e-12
-7.89481e-13
2.87294e-05
-2.4356e-12
2.87294e-05
-7.65255e-12
2.87294e-05
-1.01462e-11
2.87294e-05
-1.04774e-11
2.87294e-05
-9.5476e-12
2.87294e-05
-7.99292e-12
2.87294e-05
-6.22263e-12
2.87294e-05
-4.45169e-12
2.87294e-05
-2.7717e-12
2.87294e-05
-1.19886e-12
2.87294e-05
3.03992e-13
2.87294e-05
1.81147e-12
2.87294e-05
3.41578e-12
2.87294e-05
5.19467e-12
2.87294e-05
7.15833e-12
2.87294e-05
9.17505e-12
2.87294e-05
1.08714e-11
2.87294e-05
1.13905e-11
2.87294e-05
9.37259e-12
4.20323e-12
3.12304e-05
-4.913e-13
3.12304e-05
-8.6608e-12
3.12304e-05
-1.33319e-11
3.12304e-05
-1.4756e-11
3.12304e-05
-1.41072e-11
3.12305e-05
-1.23385e-11
3.12305e-05
-1.00727e-11
3.12305e-05
-7.66634e-12
3.12305e-05
-5.29335e-12
3.12305e-05
-3.00749e-12
3.12305e-05
-7.78059e-13
3.12305e-05
1.48372e-12
3.12305e-05
3.89673e-12
3.12305e-05
6.5704e-12
3.12305e-05
9.54047e-12
3.12305e-05
1.26718e-11
3.12305e-05
1.55117e-11
3.12304e-05
1.69589e-11
3.12304e-05
1.51239e-11
8.74602e-12
3.3732e-05
1.23605e-12
3.3732e-05
-9.21291e-12
3.3732e-05
-1.55725e-11
3.3732e-05
-1.77951e-11
3.3732e-05
-1.72989e-11
3.3732e-05
-1.53232e-11
3.3732e-05
-1.26689e-11
3.3732e-05
-9.80431e-12
3.3732e-05
-6.96345e-12
3.3732e-05
-4.22338e-12
3.3732e-05
-1.55254e-12
3.3732e-05
1.1543e-12
3.3732e-05
4.04342e-12
3.3732e-05
7.25925e-12
3.3732e-05
1.08756e-11
3.3732e-05
1.47847e-11
3.3732e-05
1.85139e-11
3.3732e-05
2.08144e-11
3.3732e-05
1.93841e-11
1.23495e-11
3.62339e-05
2.47405e-12
3.62339e-05
-9.32781e-12
3.62339e-05
-1.66606e-11
3.62339e-05
-1.92465e-11
3.62339e-05
-1.87178e-11
3.62339e-05
-1.6547e-11
3.62339e-05
-1.3653e-11
3.62339e-05
-1.05661e-11
3.62339e-05
-7.5457e-12
3.62339e-05
-4.67188e-12
3.62339e-05
-1.90366e-12
3.62339e-05
8.81479e-13
3.62339e-05
3.85419e-12
3.62339e-05
7.19192e-12
3.62339e-05
1.10128e-11
3.62339e-05
1.52624e-11
3.62339e-05
1.9511e-11
3.62339e-05
2.24807e-11
3.62339e-05
2.16221e-11
1.45493e-11
3.87363e-05
3.02254e-12
3.87363e-05
-8.95777e-12
3.87363e-05
-1.63484e-11
3.87363e-05
-1.87771e-11
3.87363e-05
-1.80373e-11
3.87363e-05
-1.57397e-11
3.87363e-05
-1.28261e-11
3.87363e-05
-9.81775e-12
3.87363e-05
-6.95519e-12
3.87363e-05
-4.30034e-12
3.87363e-05
-1.79793e-12
3.87363e-05
6.87157e-13
3.87363e-05
3.34043e-12
3.87363e-05
6.36161e-12
3.87363e-05
9.90745e-12
3.87363e-05
1.39907e-11
3.87363e-05
1.82822e-11
3.87363e-05
2.16108e-11
3.87363e-05
2.14052e-11
1.49495e-11
4.1239e-05
2.80665e-12
4.1239e-05
-7.93516e-12
4.1239e-05
-1.43422e-11
4.1239e-05
-1.6116e-11
4.1239e-05
-1.50976e-11
4.1239e-05
-1.28651e-11
4.1239e-05
-1.02489e-11
4.1239e-05
-7.67633e-12
4.1239e-05
-5.32546e-12
4.1239e-05
-3.22655e-12
4.1239e-05
-1.31469e-12
4.1239e-05
5.44318e-13
4.1239e-05
2.53289e-12
4.1239e-05
4.85092e-12
4.1239e-05
7.6704e-12
4.1239e-05
1.1062e-11
4.1239e-05
1.48375e-11
4.1239e-05
1.80744e-11
4.1239e-05
1.84803e-11
1.32886e-11
4.37419e-05
1.96657e-12
4.37419e-05
-5.9175e-12
4.37419e-05
-1.03326e-11
4.37419e-05
-1.11738e-11
4.37419e-05
-1.00646e-11
4.37419e-05
-8.27389e-12
4.37419e-05
-6.36536e-12
4.37419e-05
-4.60006e-12
4.37419e-05
-3.07078e-12
4.37419e-05
-1.77835e-12
4.37419e-05
-6.63854e-13
4.37419e-05
3.82707e-13
4.37419e-05
1.51134e-12
4.37419e-05
2.88523e-12
4.37419e-05
4.64612e-12
4.37419e-05
6.88211e-12
4.37419e-05
9.54944e-12
4.37419e-05
1.20854e-11
4.37419e-05
1.28567e-11
9.4751e-12
4.62451e-05
7.37843e-13
4.62451e-05
-2.79533e-12
4.62451e-05
-4.50209e-12
4.62451e-05
-4.60155e-12
4.62451e-05
-3.90584e-12
4.62451e-05
-3.04626e-12
4.62451e-05
-2.22051e-12
4.62451e-05
-1.51116e-12
4.62451e-05
-9.40296e-13
4.62451e-05
-4.9891e-13
4.62451e-05
-1.5539e-13
4.62451e-05
1.4783e-13
4.62451e-05
4.90735e-13
4.62451e-05
9.53371e-13
4.62451e-05
1.5899e-12
4.62451e-05
2.43663e-12
4.62451e-05
3.53656e-12
4.62451e-05
4.7364e-12
4.62451e-05
5.40392e-12
4.14407e-12
4.87484e-05
4.87484e-05
4.87484e-05
4.87483e-05
4.87483e-05
4.87483e-05
4.87483e-05
4.87483e-05
4.87483e-05
4.87483e-05
4.87483e-05
4.87483e-05
4.87483e-05
4.87483e-05
4.87483e-05
4.87483e-05
4.87483e-05
4.87483e-05
4.87484e-05
)
;

boundaryField
{
    movingWall
    {
        type            calculated;
        value           uniform 0;
    }
    fixedWalls
    {
        type            calculated;
        value           uniform 0;
    }
    left
    {
        type            cyclic;
        value           nonuniform List<scalar> 
20
(
-3.87363e-05
-3.62339e-05
-3.3732e-05
-3.12304e-05
-2.87294e-05
-2.62289e-05
-2.37289e-05
-2.12294e-05
-1.87304e-05
-1.62319e-05
-1.37339e-05
-1.12362e-05
-8.73893e-06
-6.24191e-06
-3.74508e-06
-1.24835e-06
-4.1239e-05
-4.37419e-05
-4.62451e-05
-4.87484e-05
)
;
    }
    right
    {
        type            cyclic;
        value           nonuniform List<scalar> 
20
(
3.87363e-05
3.62339e-05
3.3732e-05
3.12304e-05
2.87294e-05
2.62289e-05
2.37289e-05
2.12294e-05
1.87304e-05
1.62319e-05
1.37339e-05
1.12362e-05
8.73893e-06
6.24191e-06
3.74508e-06
1.24835e-06
4.1239e-05
4.37419e-05
4.62451e-05
4.87484e-05
)
;
    }
    frontAndBack
    {
        type            empty;
        value           nonuniform List<scalar> 0();
    }
}


// ************************************************************************* //
