/*--------------------------------*- C++ -*----------------------------------*\
  =========                 |
  \\      /  F ield         | OpenFOAM: The Open Source CFD Toolbox
   \\    /   O peration     | Website:  https://openfoam.org
    \\  /    A nd           | Version:  8
     \\/     M anipulation  |
\*---------------------------------------------------------------------------*/
FoamFile
{
    version     2.0;
    format      ascii;
    class       volVectorField;
    location    "3";
    object      U;
}
// * * * * * * * * * * * * * * * * * * * * * * * * * * * * * * * * * * * * * //

dimensions      [0 1 -1 0 0 0 0];

internalField   nonuniform List<vector> 
948
(
(1.37997 -1.88144 0)
(3.8851 -3.86928 0)
(6.21909 -1.22008 0)
(3.23005 3.58075 -1.03818e-20)
(-2.61505 2.44557 1.02982e-20)
(-6.50006 -0.34257 0)
(-7.31322 -1.09132 0)
(-5.4379 -0.222755 0)
(-2.98182 -0.118216 0)
(-2.82896 0.037656 0)
(-4.24256 0.516586 0)
(-5.06981 0.819942 0)
(-4.97814 0.549344 0)
(-4.2481 0.0616476 0)
(-3.38465 -0.134294 0)
(-2.12491 0.0653251 0)
(-0.0829368 0.535431 0)
(2.75866 0.857313 0)
(5.47376 0.703407 0)
(6.12594 0.463081 0)
(1.93406 -4.06751 4.84353e-19)
(6.51735 -7.07679 -6.73942e-19)
(12.5682 -2.0269 -1.37133e-18)
(9.24699 8.9338 -1.04444e-17)
(-0.248033 6.38533 9.7143e-19)
(-4.90222 0.680305 -9.34741e-19)
(-4.68812 -1.33988 -1.19854e-18)
(-2.83996 -1.08554 6.12553e-18)
(-2.21043 -1.07288 0)
(-2.58744 -1.16292 0)
(-2.21025 -0.777591 0)
(-0.941457 -0.563763 0)
(-0.000565292 -0.702107 0)
(0.357516 -0.890138 0)
(0.73166 -0.880269 0)
(1.5415 -0.613519 0)
(2.71318 -0.160972 0)
(3.58045 0.111106 0)
(3.61696 0.0661668 0)
(1.96199 0.0918687 0)
(2.81208 -7.98804 -3.64374e-18)
(11.4214 -14.2059 -4.70136e-18)
(28.3707 -3.90087 0)
(22.0979 20.0647 1.17955e-17)
(3.27577 12.3539 -4.10754e-18)
(-1.64874 2.0344 4.10876e-18)
(0.275554 -1.09755 5.2343e-18)
(1.74836 -1.76087 -7.29638e-18)
(1.57076 -2.28475 -9.28698e-18)
(1.03864 -2.5791 0)
(0.950895 -2.1359 0)
(0.84566 -1.77387 0)
(0.496518 -1.8007 0)
(0.292554 -1.8429 0)
(0.63436 -1.65532 0)
(1.58029 -1.17448 0)
(2.76883 -0.595659 0)
(3.66958 -0.285244 0)
(4.15549 -0.264081 0)
(3.47477 -0.176451 0)
(3.67672 -14.6285 4.44825e-18)
(20.9793 -32.7696 1.75099e-17)
(62.5562 -7.10897 3.87085e-17)
(43.1153 39.9861 6.76013e-17)
(4.26085 24.8554 -8.38457e-18)
(-0.677558 3.38046 7.99373e-18)
(3.73186 -1.0021 0)
(5.19644 -1.44066 1.22121e-17)
(4.41122 -2.22164 -5.76823e-18)
(3.45837 -2.23335 0)
(2.79486 -2.19825 0)
(2.09211 -2.31473 0)
(1.47798 -2.38857 0)
(1.24408 -2.13554 0)
(1.50087 -1.6738 0)
(2.23121 -1.19453 0)
(3.13505 -0.872369 0)
(3.85423 -0.713513 0)
(4.33266 -0.584939 0)
(4.0652 -0.354236 0)
(2.02396 -22.9455 -4.45002e-18)
(42.0561 -86.044 2.25759e-17)
(131.015 -11.4938 -6.05722e-17)
(68.5274 122.692 -6.72264e-17)
(-4.37708 22.7213 0)
(-9.33388 0.945307 -6.00749e-17)
(5.29505 -3.09315 4.27311e-17)
(7.22668 -1.22199 -9.20384e-17)
(5.87427 -1.70862 2.29712e-17)
(5.03241 -1.84099 -1.57643e-17)
(4.10722 -1.99644 0)
(3.17542 -2.20444 0)
(2.43809 -2.12468 0)
(2.0943 -1.82638 0)
(2.18885 -1.45608 0)
(2.69394 -1.11324 0)
(3.36602 -0.90391 0)
(3.9448 -0.809297 0)
(4.43606 -0.74192 0)
(4.54126 -0.619059 0)
(-15.5693 -15.4587 0)
(85.1765 42.4748 -8.39826e-18)
(-185.953 -23.7662 1.34657)
(56.2217 -2.82729 0.738744)
(-26.2376 1.47732 -0.441092)
(23.8182 -2.82823 0.0509472)
(8.02633 -5.36184 -5.46381e-17)
(9.72528 -0.756921 -9.71696e-17)
(6.84377 -0.73584 1.74767e-16)
(5.74775 -0.961256 4.90997e-17)
(4.69227 -1.31122 -3.23314e-17)
(3.76076 -1.60928 -1.80226e-17)
(3.0727 -1.61349 -2.02835e-18)
(2.64938 -1.42536 0)
(2.61533 -1.17007 0)
(2.94907 -0.924157 0)
(3.4411 -0.797641 0)
(3.9388 -0.79027 0)
(4.46676 -0.788516 0)
(4.89513 -0.82359 0)
(65.1041 20.2768 1.17907e-15)
(-235.323 -612.044 2.62631)
(-103.162 28.6794 -2.6254)
(39.6043 154.075 5.09399)
(-19.0231 35.9998 -3.86146)
(10.056 17.1433 0.278608)
(3.63057 6.67138 0.127623)
(11.4324 1.88938 -1.51209e-16)
(6.83895 1.59136 -5.11721e-17)
(5.33716 0.0803702 -6.16381e-17)
(4.44987 -0.623957 4.82619e-17)
(3.77623 -0.986111 -7.84424e-18)
(3.24322 -1.12031 -6.12391e-18)
(2.89886 -1.03884 0)
(2.84347 -0.780109 0)
(3.0507 -0.558183 0)
(3.38845 -0.491948 0)
(3.83398 -0.555607 0)
(4.40302 -0.619151 0)
(5.01156 -0.827614 0)
(-267.536 -163.334 10.2502)
(-144.561 -698.148 -14.0371)
(227.692 322.041 14.2369)
(70.1416 228.609 -20348)
(-43.5165 37.2833 -5991.66)
(59.9648 -13.0356 3.37617)
(-40.3131 -5.53632 0.377814)
(-19.5477 -0.908502 0.828717)
(4.80214 0.827752 1.48066e-16)
(3.04542 0.160747 8.60556e-17)
(3.41484 -0.359909 8.33376e-18)
(3.3149 -0.684489 -1.32259e-17)
(3.09678 -0.765136 0)
(2.98405 -0.627889 1.64706e-18)
(2.9761 -0.328171 0)
(3.03584 -0.100424 0)
(3.24114 -0.0481156 0)
(3.67874 -0.115424 0)
(4.27389 -0.211334 0)
(4.86125 -0.543149 0)
(-2131.13 -202.27 0.7632)
(641.44 368.773 35.7194)
(125.242 504.61 -41804)
(-0.783436 1.07804 0.0474939)
(1.45888 -1.09349 0.124378)
(2.05143 -1.36913 -1.48015e-16)
(2.13864 -0.8277 -1.27237e-16)
(2.54327 -0.737635 6.75395e-17)
(2.85911 -0.740027 2.50038e-17)
(3.00199 -0.608492 3.39909e-18)
(3.06888 -0.312926 -5.06443e-20)
(3.04998 0.0489682 0)
(2.99681 0.340385 0)
(3.12002 0.478463 0)
(3.54814 0.478939 0)
(4.10355 0.367169 0)
(4.4827 -0.0223912 0)
(-6043.23 -129.223 -162.999)
(1845.85 121.848 -127.704)
(164.033 2.45792 -42460.9)
(-1.55507 1.60767 -82.5372)
(5.7056 -3.16254 -0.136651)
(2.22549 -1.66761 -3.40565e-17)
(1.06436 -1.76749 6.41066e-17)
(2.18757 -1.47751 -4.06761e-17)
(2.79625 -1.11249 4.37868e-18)
(3.14028 -0.723854 2.87928e-18)
(3.28632 -0.241028 -1.59612e-18)
(3.22736 0.28129 0)
(3.08609 0.725462 0)
(3.12676 1.00376 0)
(3.47679 1.08979 0)
(3.89304 0.956402 0)
(3.94827 0.564157 1.01901e-27)
(-6047.31 118.619 -162.863)
(2200.84 -6.56057 -223.447)
(0.254515 -0.312458 -1414.7)
(5.98933 -4.92059 -0.284239)
(1.60031 -2.88088 -4.4289e-17)
(1.08078 -2.72143 2.30569e-17)
(2.42305 -2.39809 -1.13145e-17)
(3.21656 -1.77107 -5.64629e-18)
(3.6242 -1.09961 2.85148e-18)
(3.77493 -0.354647 -1.3019e-18)
(3.65401 0.383532 0)
(3.39611 0.989898 0)
(3.2913 1.38449 0)
(3.46022 1.52675 0)
(3.64611 1.36575 0)
(3.35287 1.02289 -1.01875e-27)
(-2149.67 196.949 0.954539)
(1452.59 -246.384 -57.169)
(-144.775 -128.429 -32369.7)
(-0.246361 2.64295 54.4585)
(5.77166 -5.71405 -0.245973)
(0.273373 -2.82525 2.62994e-17)
(2.12721 -3.87948 -6.01807e-18)
(3.17676 -3.28184 2.66765e-17)
(4.04604 -2.43921 -1.71904e-17)
(4.46954 -1.5145 2.79141e-18)
(4.58726 -0.539566 1.68543e-19)
(4.344 0.343673 0)
(3.8987 1.02979 0)
(3.56888 1.47013 0)
(3.4746 1.62179 0)
(3.39949 1.45166 0)
(2.81954 1.22351 0)
(-272.117 157.861 9.08249)
(-153.805 688.763 -13.8634)
(169.588 -60.8391 -54.543)
(-23.9161 -11.2374 4814.9)
(-37.8465 4.83233 0.443915)
(-21.9628 -5.45718 -1.04253)
(4.30479 -5.64276 -2.6338e-17)
(2.80076 -5.03993 2.64445e-17)
(4.37452 -3.82402 -3.09544e-17)
(5.08293 -2.80166 2.69967e-17)
(5.49769 -1.76697 0)
(5.55189 -0.751787 1.13253e-18)
(5.14607 0.105183 0)
(4.47417 0.749598 0)
(3.88247 1.16608 0)
(3.51044 1.31106 0)
(3.22603 1.18988 0)
(2.47219 1.13639 0)
(62.1714 -26.0652 8.80554e-16)
(-226.479 607.362 2.21608)
(-104.621 -24.3263 -2.70835)
(73.697 53.4018 -19.8888)
(-48.4078 90.9164 -2847.64)
(9.42057 -17.3053 0.215477)
(1.33954 -14.5359 -0.192373)
(11.3487 -6.85763 0)
(5.85706 -7.44432 -2.95087e-18)
(5.54466 -5.02414 2.71545e-17)
(5.66494 -3.73444 -3.42652e-17)
(6.02999 -2.75775 -1.45416e-17)
(6.38876 -1.84834 5.98531e-18)
(6.3828 -1.01946 0)
(5.841 -0.35948 0)
(4.98341 0.144138 0)
(4.17743 0.509426 0)
(3.594 0.690038 0)
(3.19763 0.696167 0)
(2.37067 0.824037 0)
(-14.9992 12.3324 0)
(85.2691 -41.7255 0)
(-185.365 17.4503 1.08675)
(58.3802 3.78139 0.355395)
(-22.5057 -4.11998 -0.784046)
(28.3021 -0.344018 -0.167241)
(10.7833 0.765041 -7.40414e-17)
(9.74489 -5.90004 -4.57657e-18)
(6.67198 -4.91022 1.40013e-17)
(6.16948 -3.93931 -8.93248e-18)
(6.12204 -3.1132 7.29574e-18)
(6.41826 -2.45884 4.99122e-18)
(6.80748 -1.86262 -6.16978e-18)
(6.8237 -1.36702 0)
(6.25391 -0.989826 0)
(5.33829 -0.644309 0)
(4.44886 -0.293837 0)
(3.76727 -0.0127092 0)
(3.33311 0.152711 0)
(2.46343 0.387108 0)
(1.60367 21.4515 2.85597e-18)
(41.4505 81.0281 -5.27492e-18)
(129.546 9.14927 -2.51183e-17)
(69.8166 -122.562 2.98184e-16)
(0.565453 -21.904 -7.8486e-19)
(-5.19083 -3.13233 6.22471e-17)
(7.19064 -1.35325 5.62151e-18)
(7.33401 -3.8282 4.1075e-18)
(5.79506 -3.34823 -1.62029e-17)
(5.53116 -2.74535 -7.46835e-18)
(5.6056 -2.39621 -5.37437e-18)
(6.03523 -2.15062 5.37391e-18)
(6.59691 -1.90807 0)
(6.7692 -1.74352 0)
(6.3348 -1.60132 0)
(5.53863 -1.33998 0)
(4.71915 -0.949075 0)
(4.02661 -0.565321 0)
(3.56056 -0.310368 0)
(2.62444 -0.0920947 0)
(3.97272 15.0711 -2.8568e-18)
(21.4553 29.1293 6.43942e-18)
(63.1473 3.4917 2.51633e-17)
(44.9997 -40.6547 -4.19473e-17)
(8.12921 -26.626 1.55706e-18)
(3.18263 -5.98968 -1.5565e-18)
(5.08295 -2.70276 0)
(4.47319 -2.80532 -4.51068e-18)
(3.81984 -2.09302 7.62876e-18)
(3.82668 -1.82252 0)
(4.15519 -1.92771 0)
(4.9282 -1.9825 0)
(5.83154 -1.96039 0)
(6.30652 -1.97775 0)
(6.16693 -1.93242 0)
(5.63332 -1.67727 0)
(4.97124 -1.26504 0)
(4.28682 -0.887059 0)
(3.75347 -0.67991 0)
(2.75032 -0.562492 0)
(3.26257 9.58761 7.14596e-19)
(13.0622 10.1751 -2.16294e-18)
(30.8603 -0.34305 -1.49241e-18)
(25.3772 -23.2233 2.2395e-18)
(7.75122 -15.0007 -4.37453e-20)
(1.52124 -5.86989 0)
(0.847522 -3.24079 -1.91211e-18)
(0.829274 -2.23435 -4.7308e-19)
(0.979548 -1.56323 -3.11718e-18)
(1.33021 -1.64859 0)
(2.11474 -1.89132 0)
(3.43092 -1.87709 0)
(4.78826 -1.78992 0)
(5.63873 -1.80162 0)
(5.85758 -1.78303 0)
(5.62218 -1.59993 0)
(5.11246 -1.33781 0)
(4.41918 -1.1618 0)
(3.8197 -1.09639 0)
(2.73575 -1.04084 0)
(2.8668 4.91101 -1.86287e-19)
(9.85159 3.8069 2.59e-19)
(16.3538 -2.28041 0)
(12.8379 -12.0903 6.65771e-18)
(3.11449 -10.1136 1.0888e-20)
(-2.41554 -5.80589 0)
(-3.63015 -3.28044 6.02634e-19)
(-3.51261 -2.09713 1.78071e-18)
(-3.16191 -2.18107 0)
(-2.13579 -2.74752 0)
(-0.0694735 -2.68175 0)
(2.47222 -2.02776 0)
(4.60438 -1.51128 0)
(5.94819 -1.38208 0)
(6.52422 -1.34889 0)
(6.34289 -1.21959 0)
(5.43801 -1.13759 0)
(4.11178 -1.25613 0)
(3.04212 -1.41834 0)
(2.08902 -1.4302 0)
(2.18546 1.54332 0)
(7.59848 0.78965 0)
(11.6751 -1.95739 0)
(7.98308 -5.79595 0)
(0.309552 -6.04411 0)
(-4.39335 -4.30915 0)
(-5.33194 -2.65908 0)
(-5.24881 -2.233 0)
(-5.20439 -3.04584 0)
(-4.45975 -3.72669 0)
(-2.6591 -3.23831 0)
(-0.519998 -2.11454 0)
(1.20204 -1.39467 0)
(2.40101 -1.28287 0)
(3.29027 -1.29195 0)
(3.98377 -1.17122 0)
(4.48665 -1.16035 0)
(4.86046 -1.44506 0)
(5.19811 -1.73984 0)
(5.24891 -1.68493 0)
(25.9208 -24.6043 -20.7404)
(168.72 61.0571 -53.5457)
(-66.7628 52.3174 -13597.9)
(227.501 321.77 -14.246)
(25.1819 -24.7284 0.366841)
(168.673 59.7878 15.3864)
(-66.732 52.1643 13599.5)
(-39.959 51.4914 -10944.2)
(70.0265 228.259 20360.2)
(-39.9089 51.3985 10950.7)
(-28.8221 24.4346 -2323.66)
(-43.5049 37.2109 5994.55)
(-28.7891 24.3522 2324.48)
(3.14265 -11.8817 0.388973)
(-23.8954 11.0925 4843.38)
(1.77371 3.18423 6.09061)
(60.1231 -12.9225 -2.12608)
(3.14058 -11.8725 -0.387828)
(-23.8576 11.0728 -4844.45)
(1.67964 3.18823 -3.33649)
(429.694 1222.2 -71.0117)
(1455.07 247.316 -57.9329)
(-380.189 -379.825 -90614.6)
(640.875 368.444 -35.7576)
(428.446 1221.04 41.0169)
(1453.6 247.221 36.9856)
(-381.095 -382.046 90552.5)
(-145.751 124.525 -32534.6)
(124.314 502.961 41953.8)
(-145.539 124.572 32521.9)
(13.2191 -0.603255 75.6509)
(0.368025 0.307583 -17.6145)
(13.1987 -0.595773 -75.9456)
(0.364558 0.310507 17.6604)
(1.89426 -0.0260387 0.316713)
(-0.469773 -2.44792 68.6603)
(-1.05403 -0.167879 0.380613)
(-0.789176 1.0765 0.0146183)
(1.89268 -0.0260129 -0.316955)
(-0.471741 -2.44759 -68.6472)
(-1.05419 -0.16792 -0.36531)
(-356.294 73.8027 -67760.7)
(2199.15 6.55435 -221.088)
(-799.774 -28.1782 -234310)
(1843.02 121.679 22.9003)
(-356.614 73.4555 67733.1)
(2194.93 6.44475 41.8371)
(-799.701 -28.0835 234487)
(164.049 2.16268 42438.2)
(0.150495 0.0394615 -154.328)
(0.145461 0.0412476 154.249)
(0.597225 0.827332 0.19621)
(0.242776 0.380977 -1412.09)
(0.714784 0.498778 -0.567537)
(-1.5553 1.60656 82.2724)
(0.599109 0.825659 -0.203035)
(0.242032 0.381928 1412.94)
(0.726349 0.497231 -0.0446406)
(-801.727 25.9979 -234077)
(1846.19 -122.282 -127.063)
(-349.246 -74.8815 -67545.1)
(2196.62 -6.45082 44.1147)
(-801.654 25.9039 234254)
(1843.37 -122.112 22.5086)
(-349.56 -74.5429 67517.3)
(164.536 -2.20788 -43042.2)
(164.589 -1.93 43019.2)
(0.129068 -0.0477483 -212.787)
(0.122583 -0.0500914 212.663)
(0.747982 -0.469048 -0.83747)
(-1.88396 -1.66598 -128.74)
(0.726059 -0.812888 -0.0757661)
(0.25375 -0.313357 1415.55)
(0.759571 -0.46744 0.223921)
(-1.88444 -1.66519 128.448)
(0.728165 -0.811321 0.0613057)
(-379.931 381.352 -90034.3)
(638.007 -366.135 35.0843)
(427.874 -1217.78 -71.9519)
(1451.12 -246.286 36.1755)
(-380.838 383.565 89972.9)
(637.446 -365.808 -35.1221)
(426.624 -1216.62 41.8748)
(125.078 -502.551 -41726.4)
(-144.544 -128.491 32357.3)
(124.152 -500.914 41875.3)
(0.307914 -0.568758 -48.3494)
(13.1379 0.547125 74.6983)
(0.303414 -0.572676 48.394)
(13.1178 0.539638 -74.988)
(-1.08601 0.105569 -0.320278)
(-0.869385 -1.11494 -0.967832)
(1.84091 0.00146425 -0.56076)
(-0.24777 2.64335 -54.4746)
(-1.08595 0.105619 0.332627)
(-0.875123 -1.11307 1.02918)
(1.83937 0.00146977 0.561084)
(-66.8204 -51.7441 -13425)
(228.337 -321.484 13.1537)
(26.9666 23.056 -21.9043)
(169.54 -59.577 16.4084)
(-66.7907 -51.5886 13426.6)
(228.145 -321.214 -13.1632)
(26.2265 23.1789 1.53253)
(70.4576 -229.054 -20512.4)
(-40.017 -51.4196 -10938)
(70.3426 -228.702 20524.5)
(-39.9672 -51.3271 10944.5)
(-43.2383 -37.5113 -6029.26)
(-28.968 -24.3239 -2319.75)
(-43.227 -37.4387 6032.18)
(-28.9349 -24.2417 2320.57)
(1.88682 -3.24298 5.08778)
(60.1744 13.3403 2.54605)
(3.19145 11.8664 -0.534044)
(-23.8786 -11.2181 -4815.96)
(1.79281 -3.24692 -2.34486)
(60.3327 13.2269 -1.28731)
(3.18934 11.8573 0.534801)
(11.4959 147.344 -4.22609)
(73.838 -54.4584 -18.4658)
(-27.4927 -115.168 -9073.51)
(39.5673 153.94 -5.09487)
(11.4862 147.17 3.86785)
(73.7257 -54.8439 8.34848)
(-27.5384 -115.459 9066.97)
(-9.89032 35.442 -0.539946)
(-48.673 -91.1016 -2833.32)
(-2.89613 -48.4516 -0.660496)
(-19.0091 35.9134 3.7428)
(-9.88158 35.4086 0.539942)
(-48.561 -91.2591 2830.45)
(-2.83366 -48.5352 -1.35184)
(-73.5887 18.0706 1.01709)
(49.7741 207.799 -3.69543)
(-52.7499 154.608 -22922.2)
(86.5253 18.5092 -39164.9)
(-66.5928 106.396 -0.904309)
(47.2234 0.932791 -4.79518)
(-63.5335 70.4629 -52532.6)
(9.66353 42.9116 0.667731)
(-33.4175 26.2238 -1.11925)
(-13.8969 55.8974 -5654.03)
(-19.2943 18.2272 -15492.7)
(0.0667023 50.9404 0.259135)
(-5.02723 19.1535 -0.831605)
(-0.321514 38.2546 -18572.6)
(-202.374 28.9046 0.461476)
(104.107 473.8 -6.55142)
(-48.9549 230.72 -42411.8)
(16.45 81.7993 -73863.1)
(-35.7138 183.295 -8.34052)
(-3.25944 -3.18769 -8.31217)
(-187.271 53.6549 -69462)
(0.227012 6.98433 2464.31)
(-2.92036 4.59785 -0.524651)
(226.79 -26.082 5.73381)
(-1.34791 5.29514 -0.0502664)
(-2.04267 1.21925 -0.0745074)
(-0.840167 1.68764 137.332)
(-0.917395 1.65022 -605.465)
(-1.00548 1.34118 -0.0490867)
(-1.12882 0.758536 -0.0828971)
(-1.3933 5.68154 -199.196)
(-1.40941 -2.84356 0.0297003)
(0.672834 0.196723 -0.0699409)
(-2.38701 -0.356812 -935.617)
(0.543637 -0.479229 -1129.35)
(-1.58084 -0.17298 -0.117053)
(0.669984 0.601453 -0.0436521)
(-1.8617 -3.23119 -750.297)
(-196.573 -84.568 8.0811)
(-59.6268 84.5253 -46033.1)
(-76.6428 193.408 7.89417)
(-179.351 61.4349 1.68107)
(80.5761 88.2232 -41354.8)
(21.9977 96.8814 -0.628946)
(-135.684 24.8658 -57445.4)
(2.3788 23.9894 1.80388)
(-27.8798 -17.9046 -0.0324953)
(15.5551 -16.7763 4742.3)
(-34.8108 22.5715 2149.87)
(9.36002 -14.3079 0.016372)
(-20.7099 11.4709 -0.216732)
(4.17931 26.6843 4094.39)
(-27.7904 114.24 -9088.22)
(39.758 -155.092 4.0975)
(11.5534 -147.285 -5.14438)
(73.5853 53.7888 9.70763)
(-27.8362 114.531 9081.7)
(39.7208 -154.956 -4.09839)
(11.5432 -147.11 4.76322)
(-2.70122 48.3606 -1.45723)
(-18.9837 -35.9915 -4.5666)
(-9.85124 -35.5671 -1.27157)
(-48.2958 91.0751 2844.75)
(-2.63864 48.4445 -0.560188)
(-18.9697 -35.905 4.44743)
(-9.84261 -35.5336 1.27159)
(27.3211 288.202 -5.42109)
(-80.2821 59.4065 -1.0404)
(60.4192 -2.81569 -8860.5)
(-78.4082 187.328 -31716.8)
(28.8712 0.533711 -2.27708)
(-85.1636 173.09 -10.4089)
(34.9773 283.542 -8112.44)
(27.4331 288.791 -6.73529)
(-80.2265 59.2858 0.523497)
(60.1115 -2.73053 8870.51)
(-78.2732 186.768 31763.1)
(28.5459 0.632141 -1.85215)
(-85.048 172.664 -6.29338)
(35.2677 285.158 8056.89)
(14.2355 36.1032 1.86379)
(-30.6191 34.136 -1.33382)
(-20.1068 76.9282 -15098.6)
(-24.0463 27.2489 -21594.9)
(-22.6336 46.9268 0.126712)
(-3.95573 24.8739 -0.612424)
(-4.04628 50.427 -34033.2)
(-179.349 -61.8335 1.67433)
(80.8092 -86.4705 -41551.3)
(22.2828 -95.009 -0.703478)
(-135.508 -25.1686 -57530.9)
(-73.397 17.5541 -13.4074)
(49.6925 207.528 -2.51617)
(-52.7856 153.973 22959.5)
(85.7048 17.7806 39279)
(-66.6288 105.974 -8.824)
(46.7952 0.481634 -4.0124)
(-63.3507 69.9696 52618)
(14.5672 35.6977 -10.664)
(-30.5854 34.0625 -1.70529)
(-19.9939 76.6613 15119)
(-23.8468 27.0152 21627.3)
(-22.5654 46.7353 -6.17634)
(-3.77811 24.699 -3.42349)
(-3.6996 49.9941 34095.3)
(-179.347 -61.7499 -6.20165)
(80.1396 -86.2428 41646.3)
(21.6646 -94.8176 -2.89863)
(-135.377 -24.9231 57534.3)
(-24.4361 23.7925 0.160868)
(-21.4556 16.4571 -0.789049)
(-17.4557 54.5492 -6232.75)
(-46.8755 6.39148 -7723.81)
(-5.03351 41.7257 -0.210413)
(-36.33 4.64617 -1.97585)
(-30.6563 35.6988 -20290.3)
(46.7997 -20.5834 0.994695)
(-30.1239 -4.51353 -12737.4)
(-6.6234 -1.51792 -0.960637)
(32.8937 -8.91516 -22667)
(9.63724 42.779 -5.11542)
(-33.3945 26.1677 -1.57606)
(-13.9017 55.7503 5661.71)
(-19.2387 18.0996 15515.4)
(0.0702045 50.8394 -4.39965)
(-4.95974 19.0716 -1.935)
(-0.379595 38.1072 18606.5)
(-24.4156 23.6146 -5.90673)
(-21.4279 16.3934 -0.835657)
(-17.3825 54.3047 6242.72)
(-46.569 6.09609 7744.51)
(-4.98035 41.5676 -4.37041)
(-36.1656 4.47743 -2.8398)
(-30.6544 35.53 20323.2)
(46.8137 -20.5414 -3.42514)
(-29.7874 -4.44624 12766)
(-6.32618 -1.45167 -2.58345)
(32.8207 -8.79583 22668.9)
(2.29844 -24.0909 1.80257)
(-27.9363 17.7674 -0.0328813)
(-34.817 -22.7933 2146.4)
(15.677 16.4945 4762.87)
(-20.7172 -11.6564 -0.217237)
(9.43557 14.0264 0.0271431)
(4.11935 -26.7575 4087.94)
(2.32217 -24.1785 -0.375991)
(-27.9032 17.761 0.868647)
(-34.6241 -22.6855 -2148.81)
(15.6236 16.4698 -4770.25)
(-20.5334 -11.5481 0.551988)
(9.39493 14.0017 0.350143)
(4.14973 -26.9523 -4059.4)
(46.3606 -34.9669 -47607)
(73.1466 -66.0077 -6.19151)
(-197.739 80.3805 8.21798)
(-59.3198 -83.8294 -46662.3)
(-76.3744 -193.056 7.85584)
(-202.223 28.7391 -7.38486)
(103.525 472.835 -5.36322)
(-48.976 229.481 42527.3)
(15.8694 81.7998 73969.5)
(-35.6981 182.453 -6.18631)
(-3.64689 -3.2682 -2.59868)
(-187.125 53.7067 69462.4)
(46.5203 -35.1664 47687.1)
(73.2912 -66.2563 0.402683)
(-197.489 80.2878 -1.14864)
(-59.2774 -84.0616 46629.3)
(-76.3903 -193.114 0.509962)
(3.54966 -0.139138 -0.0718743)
(12.8991 -0.434394 0.0694954)
(12.6174 2.0461 988.135)
(3.68349 -0.130862 228.222)
(10.1263 1.70233 0.444888)
(3.5525 -0.241761 -0.0490166)
(3.53346 0.185264 963.152)
(0.261368 0.370338 -0.0359909)
(1.45185 0.112874 83.3461)
(1.34018 0.0306221 -0.0345363)
(0.187107 6.93059 -2468.44)
(-2.95478 4.55015 -0.0732154)
(3.54707 -0.145911 0.102291)
(12.8859 -0.429537 0.179092)
(12.5716 2.03604 -990.886)
(3.67585 -0.141938 -228.554)
(10.0921 1.69124 0.0717013)
(3.54707 -0.249069 0.109481)
(3.54005 0.177211 -963.169)
(0.259576 0.370782 0.00477189)
(1.45217 0.114691 -83.2849)
(1.34 0.0310779 -0.00379425)
(9.47276 788.178 9.40003)
(-351.202 -74.9718 5.69218)
(192.105 958.04 -104115)
(-832.225 233.201 -141999)
(74.2962 968.661 -15.0967)
(-959.748 147.926 1.64263)
(177.453 748.747 -194742)
(114.475 159.409 25.0892)
(-975.958 -77.1411 3.62259)
(-826.651 112.616 -213799)
(297.398 -3.04464 -252758)
(-988.46 31.2652 1.50029)
(64.9655 -38.8483 -8.60749)
(315.623 201.258 -251305)
(7.19013 786.198 -34.8589)
(-351.37 -75.6803 3.6656)
(191.187 956.473 104268)
(-832.117 232.349 142132)
(73.6564 967.74 -3.43481)
(-959.648 146.924 12.92)
(174.458 745.465 195510)
(111.822 158.225 -52.0161)
(-975.964 -77.3601 1.59632)
(-826.466 112.31 213950)
(296.763 -2.47802 252805)
(-988.308 30.759 8.29811)
(64.5246 -38.8592 -14.0536)
(312.299 199.58 252175)
(226.893 -26.5082 0.256172)
(-0.136572 0.147019 -0.00892855)
(-0.13921 0.147346 0.00336084)
(-1.3561 2.86079 0.0313033)
(0.664253 -0.198096 -0.0697113)
(0.636515 0.668868 -1118.25)
(-2.39082 0.381413 -938.523)
(0.73608 -0.446755 -0.0429495)
(-1.58972 0.158352 -0.116128)
(-1.76931 3.27086 -747.897)
(-1.34066 5.28227 -0.245285)
(-2.0419 1.2155 -0.0433637)
(-0.839652 1.6855 -137.532)
(-0.918101 1.64595 605.947)
(-1.00503 1.33932 -0.0437807)
(-1.12813 0.751876 -0.159845)
(-1.38297 5.6637 199.866)
(-1.34381 2.84938 -0.337959)
(0.665087 -0.200282 -0.0787398)
(0.635142 0.666657 1119.02)
(-2.3901 0.385066 938.246)
(0.735768 -0.451348 -0.14278)
(-1.58876 0.158271 -0.133465)
(-1.75271 3.25558 750.192)
(114.201 -160.049 24.4756)
(-978.02 75.2818 3.65881)
(295.918 3.47191 -252858)
(-827.342 -110.399 -213619)
(63.4318 39.6762 -8.89928)
(-989.097 -28.2974 1.51163)
(315.147 -202.178 -251458)
(9.45682 -791.927 9.36147)
(-344.05 73.4992 5.50966)
(-830.895 -235.726 -141888)
(190.292 -959.681 -103622)
(-958.167 -150.222 1.64259)
(72.8601 -970.473 -15.0845)
(177.006 -752.444 -194597)
(111.573 -158.871 -51.3124)
(-978.025 75.5032 1.64902)
(295.306 2.90377 252900)
(-827.156 -110.092 213771)
(63.0027 39.6858 -13.6745)
(-988.944 -27.7902 8.41443)
(311.863 -200.514 252318)
(7.18502 -789.949 -34.8913)
(-344.215 74.2009 3.61776)
(-830.787 -234.873 142022)
(189.368 -958.09 103777)
(-958.067 -149.218 12.9113)
(72.2164 -969.541 -3.60656)
(174.027 -749.169 195360)
(227.159 26.2423 5.6091)
(227.288 26.6552 0.282301)
(-0.0830288 -0.110673 -0.009163)
(-0.0869923 -0.111521 0.00257965)
(-1.52394 -5.23825 -0.0535283)
(-2.31662 -1.29236 -0.0849053)
(-1.12285 -1.51711 -645.052)
(-1.08904 -1.69268 127.431)
(-1.32563 -0.62856 -0.0853907)
(-1.22286 -1.3528 -0.0555756)
(-1.59669 -5.59167 -209.209)
(-1.3969 -2.83239 -0.340201)
(0.673647 0.198799 -0.0783272)
(-2.38635 -0.36048 935.34)
(0.542323 -0.477208 1130.13)
(-1.57994 -0.172934 -0.134259)
(0.669793 0.605746 -0.144372)
(-1.84493 -3.21624 752.6)
(-1.5162 -5.22567 -0.255551)
(-2.3159 -1.28899 -0.0485274)
(-1.12352 -1.51303 645.58)
(-1.08823 -1.69031 -127.628)
(-1.32482 -0.622154 -0.168253)
(-1.22219 -1.35085 -0.0498781)
(-1.58578 -5.57418 209.911)
(-202.076 -28.7017 0.481678)
(104.013 -471.815 -6.63969)
(16.909 -78.1033 -73486.1)
(-47.7017 -230.201 -42386.9)
(-2.70658 6.78857 -8.26625)
(-34.4794 -182.915 -8.35998)
(-187.042 -53.4088 -69318.6)
(46.4817 34.864 -47726.4)
(73.2552 65.6952 -6.24506)
(-196.31 -84.4775 -1.12906)
(-59.5831 84.7548 46000.3)
(-76.6577 193.466 0.53636)
(-201.926 -28.5393 -7.38411)
(103.433 -470.857 -5.3221)
(16.3297 -78.1162 73591.5)
(-47.7264 -228.967 42502.3)
(-3.09283 6.8607 -2.56976)
(-34.4662 -182.076 -6.16128)
(-186.894 -53.4626 69319)
(46.6411 35.0626 47806.6)
(73.3993 65.9431 0.411299)
(0.224563 -0.629129 -0.0522557)
(1.41191 -0.233396 87.1635)
(1.31317 -0.0777566 -0.0406826)
(0.259254 -7.03803 2416.38)
(-2.83601 -4.60202 -0.53909)
(3.54838 0.19764 -0.0710465)
(12.7951 0.38442 0.0687812)
(3.68897 0.0551483 230.12)
(12.4681 -2.03347 969.968)
(3.54339 0.269855 -0.0466769)
(9.99627 -1.67575 0.436122)
(3.53407 -0.174723 955.15)
(0.22195 -0.62962 0.00709439)
(1.41226 -0.235562 -87.0945)
(1.31304 -0.0782642 -0.00219853)
(0.219304 -6.98442 -2420.44)
(-2.87049 -4.55442 -0.0714831)
(3.54582 0.204325 0.104081)
(12.7821 0.379572 0.176722)
(3.68136 0.0663086 -230.457)
(12.4235 -2.0238 -972.649)
(3.538 0.277326 0.108793)
(9.96274 -1.66489 0.0726807)
(3.5406 -0.166811 -955.168)
(27.3796 -287.966 -5.42271)
(-80.2755 -58.7208 -1.04908)
(-78.888 -187.617 -31721.7)
(59.3649 3.76716 -8777.41)
(-85.6149 -173.454 -10.4446)
(27.6891 0.394125 -2.25297)
(34.97 -283.329 -8127.47)
(27.4895 -288.555 -6.7203)
(-80.22 -58.5987 0.568667)
(-78.7502 -187.054 31768)
(59.0574 3.68139 8787.31)
(-85.4974 -173.026 -6.27549)
(27.3641 0.294976 -1.81237)
(35.2562 -284.945 8071.81)
(-74.2594 -17.6258 1.01697)
(50.1116 -208.32 -3.70439)
(86.7778 -16.5339 -39263.3)
(-53.2708 -154.949 -23033.1)
(47.489 1.14845 -4.7342)
(-67.1461 -106.771 -0.909665)
(-64.1041 -69.9353 -52554.8)
(13.6475 -35.7063 1.86761)
(-30.7144 -34.0309 -1.32922)
(-24.0124 -27.108 -21542.9)
(-20.6696 -76.8496 -15112.1)
(-3.94681 -24.7115 -0.606788)
(-23.2506 -46.835 0.125778)
(-4.55363 -50.0386 -33987)
(-179.348 61.3488 -6.18133)
(79.9073 87.9924 41449.4)
(21.3803 96.6874 -2.85394)
(-135.552 24.6194 57448.8)
(-74.0675 -17.1128 -13.3477)
(50.0308 -208.048 -2.50522)
(85.9483 -15.8064 39379.4)
(-53.305 -154.315 23070.6)
(47.0554 1.59962 -3.9364)
(-67.1813 -106.348 -8.7915)
(-63.9216 -69.4452 52640.3)
(13.9793 -35.3019 -10.6483)
(-30.6809 -33.9575 -1.69697)
(-23.8145 -26.8748 21575.2)
(-20.5561 -76.5838 15132.5)
(-3.77056 -24.537 -3.41836)
(-23.1821 -46.6445 -6.1503)
(-4.20716 -49.6067 34048.9)
(46.76 20.4782 0.995617)
(-30.2326 4.43684 -12729.2)
(-6.73293 1.43578 -0.958714)
(32.8372 8.83699 -22677.6)
(9.55265 -42.7912 0.667742)
(-33.1459 -26.4348 -1.12146)
(-19.1663 -18.1858 -15536.2)
(-13.9773 -56.1358 -5716.44)
(-4.90398 -19.1056 -0.833153)
(0.00943194 -51.1539 0.2568)
(-0.43007 -38.1535 -18654.4)
(-24.7021 -23.6888 0.158349)
(-21.5943 -16.3179 -0.788366)
(-46.9724 -6.31366 -7710.59)
(-17.7783 -54.5472 -6258.01)
(-36.3967 -4.55063 -1.97452)
(-5.33555 -41.6802 -0.212989)
(-30.9417 -35.6056 -20311.5)
(46.7742 20.4353 -3.42532)
(-29.896 4.36959 12757.7)
(-6.43578 1.36958 -2.58718)
(32.7641 8.71706 22679.4)
(9.52638 -42.6584 -5.11752)
(-33.123 -26.3786 -1.57619)
(-19.112 -18.0577 15559)
(-13.9821 -55.9878 5724.2)
(-4.83744 -19.0235 -1.94206)
(0.0129787 -51.0523 -4.40499)
(-0.488214 -38.0058 18688.4)
(-24.6807 -23.5116 -5.89788)
(-21.5665 -16.2542 -0.835489)
(-46.6652 -6.01835 7731.25)
(-17.7046 -54.3021 6268.03)
(-36.2319 -4.38188 -2.84292)
(-5.28209 -41.5216 -4.37163)
(-30.9388 -35.4376 20344.4)
(2.40246 24.0767 -0.385333)
(-27.8469 -17.8985 0.858224)
(15.5017 -16.7512 -4749.65)
(-34.6183 22.4638 -2152.28)
(9.31947 -14.283 0.340806)
(-20.5264 11.3629 0.543852)
(4.20966 26.878 -4065.82)
)
;

boundaryField
{
    inlet
    {
        type            fixedValue;
        value           uniform (1 0 0);
    }
    outlet
    {
        type            zeroGradient;
    }
    up
    {
        type            zeroGradient;
    }
    down
    {
        type            zeroGradient;
    }
    frontAndBack
    {
        type            empty;
    }
    cylinder
    {
        type            fixedValue;
        value           uniform (0 0 0);
    }
}


// ************************************************************************* //
