/*--------------------------------*- C++ -*----------------------------------*\
  =========                 |
  \\      /  F ield         | OpenFOAM: The Open Source CFD Toolbox
   \\    /   O peration     | Website:  https://openfoam.org
    \\  /    A nd           | Version:  8
     \\/     M anipulation  |
\*---------------------------------------------------------------------------*/
FoamFile
{
    version     2.0;
    format      ascii;
    class       volScalarField;
    location    "0.25";
    object      T;
}
// * * * * * * * * * * * * * * * * * * * * * * * * * * * * * * * * * * * * * //

dimensions      [0 0 0 1 0 0 0];

internalField   nonuniform List<scalar> 
2500
(
49.999
4.70007
-4.68768
-1.285
1.22773
0.621842
-0.461564
-0.447921
0.130628
0.354545
0.0996395
-0.19723
-0.221372
-0.0313942
0.14456
0.169583
0.069249
-0.0531671
-0.118859
-0.112299
-0.0622704
-0.00623113
0.0323457
0.0479286
0.0462169
0.0359919
0.0241654
0.014384
0.00768159
0.00368518
0.00157083
0.000574632
0.000161694
1.74022e-05
-1.92083e-05
-2.02475e-05
-1.34837e-05
-7.46886e-06
-3.70048e-06
-1.69097e-06
-7.24221e-07
-2.93511e-07
-1.13261e-07
-4.17873e-08
-1.4783e-08
-5.02403e-09
-1.64225e-09
-5.15884e-10
-1.58172e-10
-3.80866e-11
95.3017
49.9951
10.6672
-4.649
-3.12982
1.09726
1.5391
-0.179012
-0.965904
-0.305529
0.506207
0.546416
0.0214776
-0.402748
-0.38609
-0.069402
0.229571
0.319572
0.211999
0.0271033
-0.123168
-0.190764
-0.184809
-0.139321
-0.086093
-0.0432684
-0.0160336
-0.00208788
0.00325454
0.00416497
0.00335892
0.00222753
0.0013061
0.000698626
0.000346638
0.000161144
7.06363e-05
2.93154e-05
1.15472e-05
4.32128e-06
1.53571e-06
5.17101e-07
1.64153e-07
4.86562e-08
1.3211e-08
3.14853e-09
5.80481e-10
3.42457e-11
-4.2044e-11
-2.25341e-11
104.694
89.3333
49.9875
12.516
-4.57072
-4.07299
0.874691
2.12561
0.226919
-1.22378
-0.80445
0.363581
0.862703
0.435293
-0.269596
-0.609175
-0.445745
-0.0382388
0.298583
0.413972
0.334893
0.169836
0.0163388
-0.0784881
-0.112504
-0.105773
-0.0809802
-0.0539255
-0.0321634
-0.0174411
-0.00866032
-0.00394255
-0.00163664
-0.000609481
-0.000195285
-4.72549e-05
-2.9924e-06
5.96069e-06
5.26585e-06
3.14886e-06
1.59377e-06
7.27967e-07
3.08534e-07
1.23148e-07
4.67028e-08
1.69259e-08
5.88607e-09
1.96587e-09
6.443e-10
1.64972e-10
101.281
104.67
87.4819
49.9768
13.4807
-4.44173
-4.73454
0.548805
2.53112
0.737876
-1.24722
-1.28562
-0.0229945
0.944328
0.874116
0.13577
-0.535664
-0.721354
-0.464874
-0.0450634
0.288187
0.432619
0.413237
0.308096
0.188157
0.092977
0.0331786
0.00302966
-0.00816849
-0.0097469
-0.00769939
-0.00505292
-0.00294343
-0.0015672
-0.000774888
-0.000359227
-0.000157102
-6.50717e-05
-2.55869e-05
-9.56021e-06
-3.39245e-06
-1.1406e-06
-3.61506e-07
-1.06952e-07
-2.8965e-08
-6.8734e-09
-1.2537e-09
-6.61894e-11
9.59232e-11
5.05482e-11
98.7601
103.134
104.613
86.5111
49.9621
14.195
-4.24911
-5.28604
0.109203
2.78616
1.32626
-1.03259
-1.66015
-0.582545
0.723375
1.15763
0.679237
-0.114417
-0.659453
-0.758752
-0.529474
-0.195084
0.0755772
0.218635
0.248928
0.212688
0.15322
0.0972584
0.0555481
0.0288315
0.0136334
0.00584222
0.00222843
0.000721175
0.000168481
1.47102e-06
-3.06215e-05
-2.54133e-05
-1.51584e-05
-7.75276e-06
-3.59401e-06
-1.54859e-06
-6.2874e-07
-2.42558e-07
-8.94027e-08
-3.16009e-08
-1.07413e-08
-3.5114e-09
-1.12581e-09
-2.82796e-10
99.3792
98.8719
104.092
104.51
85.7885
49.945
14.8427
-3.98542
-5.77892
-0.441074
2.88711
1.94335
-0.595098
-1.84363
-1.19457
0.220593
1.1439
1.13406
0.500209
-0.219975
-0.668447
-0.770477
-0.634174
-0.410318
-0.206702
-0.0684144
0.00446652
0.0314207
0.0336079
0.0261503
0.0172523
0.0101682
0.00548843
0.00275121
0.00129178
0.000571224
0.000238673
9.4376e-05
3.53118e-05
1.24746e-05
4.13919e-06
1.2766e-06
3.58261e-07
8.70814e-08
1.56794e-08
2.65557e-10
-1.60586e-09
-1.06307e-09
-5.24231e-10
-1.73105e-10
100.479
98.4395
99.0743
104.779
104.349
85.1272
49.9219
15.492
-3.63524
-6.22032
-1.1021
2.80616
2.5301
0.0480146
-1.75012
-1.71522
-0.491564
0.735028
1.25271
1.04254
0.470778
-0.0846287
-0.424053
-0.528031
-0.473186
-0.351243
-0.226863
-0.130238
-0.0669372
-0.0306554
-0.0122273
-0.00396278
-0.000775442
0.000193141
0.000340177
0.000257363
0.000153241
8.00654e-05
3.8231e-05
1.70211e-05
7.14758e-06
2.85157e-06
1.08612e-06
3.96277e-07
1.3882e-07
4.67618e-08
1.516e-08
4.72508e-09
1.43706e-09
3.43542e-10
100.457
100.208
97.8188
99.3858
105.366
104.116
84.4583
49.8977
16.1742
-3.19395
-6.61017
-1.86116
2.53357
3.02967
0.839301
-1.3569
-2.01709
-1.25316
0.00301184
0.936512
1.249
1.06591
0.667262
0.283143
0.0226257
-0.104497
-0.136572
-0.119261
-0.0859965
-0.0546161
-0.0314567
-0.0166944
-0.0082414
-0.00380595
-0.00164908
-0.000670761
-0.000255554
-9.06341e-05
-2.95254e-05
-8.5808e-06
-2.06272e-06
-2.99134e-07
6.45166e-08
8.42704e-08
5.01316e-08
2.38555e-08
1.00844e-08
3.92496e-09
1.47325e-09
4.18757e-10
99.8523
101.013
99.8022
97.3674
99.8145
105.905
103.805
83.7539
49.8655
16.8961
-2.64828
-6.91921
-2.69146
2.04416
3.34857
1.68177
-0.658193
-1.93927
-1.80934
-0.850922
0.185075
0.847053
1.05144
0.933858
0.678777
0.42156
0.225979
0.102707
0.036646
0.00692317
-0.00345908
-0.00528561
-0.00421663
-0.00269626
-0.00151658
-0.000778563
-0.00037172
-0.000166891
-7.09618e-05
-2.87119e-05
-1.10908e-05
-4.09888e-06
-1.45117e-06
-4.92375e-07
-1.60018e-07
-4.97273e-08
-1.47262e-08
-4.12955e-09
-1.09268e-09
-2.2257e-10
99.6215
100.304
101.316
99.2681
97.0557
100.372
106.411
103.398
82.9913
49.8278
17.6773
-1.98115
-7.13587
-3.5864
1.3223
3.43157
2.50009
0.31092
-1.41798
-1.99095
-1.61108
-0.831577
-0.115362
0.325687
0.487675
0.464304
0.358349
0.240616
0.145012
0.07973
0.0403423
0.0188547
0.00813178
0.0032139
0.00114356
0.000350673
8.08585e-05
4.19809e-06
-1.0172e-05
-8.56693e-06
-4.96122e-06
-2.444e-06
-1.08979e-06
-4.51982e-07
-1.76903e-07
-6.59145e-08
-2.35195e-08
-8.05147e-09
-2.70872e-09
-7.09901e-10
99.9013
99.4347
100.846
101.377
98.6356
96.8987
101.052
106.87
102.887
82.1738
49.7891
18.5094
-1.20082
-7.23635
-4.48758
0.406724
3.22621
3.13599
1.36426
-0.534317
-1.66392
-1.90008
-1.55285
-1.00424
-0.512733
-0.180761
-0.00477474
0.0626494
0.0714108
0.0567901
0.037934
0.0225731
0.0122953
0.00622307
0.002954
0.00132306
0.000561347
0.000226162
8.66228e-05
3.15333e-05
1.08898e-05
3.55255e-06
1.08583e-06
3.06016e-07
7.68502e-08
1.56961e-08
1.67058e-09
-6.11522e-10
-5.89569e-10
-2.36907e-10
100.227
99.4003
99.5624
101.399
101.19
97.9432
96.9142
101.852
107.279
102.265
81.2816
49.728
19.3942
-0.270278
-7.15894
-5.34496
-0.714676
2.625
3.40669
2.32626
0.656352
-0.674373
-1.33107
-1.40615
-1.1534
-0.802783
-0.490794
-0.267213
-0.129598
-0.0551085
-0.0195253
-0.00477614
0.000216683
0.00128996
0.00110934
0.000706048
0.000387285
0.000192639
8.89789e-05
3.86735e-05
1.59478e-05
6.27395e-06
2.36375e-06
8.55203e-07
2.97703e-07
9.98386e-08
3.22822e-08
1.00531e-08
3.06145e-09
7.34113e-10
100.251
99.9955
99.0135
99.9812
101.865
100.737
97.2476
97.145
102.767
107.602
101.498
80.3072
49.6684
20.3618
0.82115
-6.90875
-6.15247
-2.01429
1.6473
3.27233
3.06735
1.94999
0.752092
-0.090801
-0.499773
-0.584901
-0.498384
-0.357768
-0.227804
-0.131893
-0.0704052
-0.0349349
-0.0161869
-0.00701515
-0.00283999
-0.00106829
-0.000368855
-0.000113788
-2.92713e-05
-4.78896e-06
7.5044e-07
1.23343e-06
7.87221e-07
3.95295e-07
1.75273e-07
7.15543e-08
2.74521e-08
9.98452e-09
3.55314e-09
9.73685e-10
100.027
100.484
99.5179
98.8759
100.618
102.133
100.043
96.6307
97.6093
103.756
107.812
100.597
79.2722
49.602
21.3701
2.03972
-6.45042
-6.781
-3.31978
0.392796
2.63552
3.22464
2.73733
1.85157
1.02297
0.439928
0.110251
-0.0358025
-0.0768034
-0.0706891
-0.0506339
-0.0314932
-0.0177337
-0.00923192
-0.00449788
-0.00206706
-0.000900794
-0.000373601
-0.00014783
-5.58886e-05
-2.01988e-05
-6.97531e-06
-2.29763e-06
-7.19305e-07
-2.12615e-07
-5.86171e-08
-1.47072e-08
-3.17878e-09
-4.71513e-10
4.15205e-12
99.8164
100.462
100.361
98.9634
99.0766
101.368
102.121
99.1411
96.1512
98.322
104.814
107.905
99.5407
78.1225
49.4776
22.4217
3.46544
-5.6466
-7.08913
-4.55574
-1.19802
1.2549
2.368
2.43759
1.96354
1.35012
0.819922
0.446094
0.217897
0.0945161
0.0351337
0.00998533
0.00100271
-0.00132908
-0.00139784
-0.000947324
-0.000536476
-0.000272388
-0.00012778
-5.62712e-05
-2.34871e-05
-9.35037e-06
-3.56606e-06
-1.30702e-06
-4.61447e-07
-1.57194e-07
-5.17364e-08
-1.64396e-08
-5.13299e-09
-1.26268e-09
99.7859
100.07
100.778
99.8689
98.5493
99.66
102.077
101.729
98.0923
95.9197
99.3304
105.906
107.801
98.2585
76.8498
49.3566
23.6041
5.14949
-4.50915
-7.12284
-5.74443
-3.0816
-0.759381
0.64016
1.18203
1.17637
0.926593
0.632284
0.38795
0.218196
0.113753
0.0553339
0.025204
0.0107596
0.0042965
0.00159515
0.000543354
0.000164904
4.13092e-05
6.18751e-06
-1.45972e-06
-1.94742e-06
-1.2042e-06
-5.96721e-07
-2.62718e-07
-1.06826e-07
-4.09019e-08
-1.48676e-08
-5.29491e-09
-1.45329e-09
99.9166
99.6835
100.566
100.73
99.1614
98.4952
100.543
102.538
100.94
97.0469
96.0378
100.59
106.925
107.453
96.7945
75.5274
49.2563
24.8361
6.9503
-3.13363
-6.80673
-6.55718
-4.67371
-2.64147
-1.12602
-0.240857
0.156992
0.264558
0.238032
0.171207
0.10784
0.0617248
0.0327254
0.0162565
0.00762299
0.00339151
0.00143675
0.000580971
0.000224584
8.30528e-05
2.93759e-05
9.92469e-06
3.19364e-06
9.73629e-07
2.7852e-07
7.33972e-08
1.71122e-08
3.16395e-09
2.01786e-10
-1.30713e-10
100.085
99.5553
100.013
100.994
100.229
98.4892
98.9157
101.563
102.609
99.8041
96.1156
96.5273
102.065
107.876
106.904
95.1474
74.0495
48.9984
25.9721
8.87084
-1.28954
-5.66071
-6.29762
-5.136
-3.50467
-2.08506
-1.09373
-0.500913
-0.191599
-0.0518841
0.000205681
0.0134458
0.0126655
0.00861339
0.00501361
0.00263825
0.00128708
0.000590318
0.000256766
0.000106539
4.23463e-05
1.61731e-05
5.94901e-06
2.1112e-06
7.23774e-07
2.3991e-07
7.69359e-08
2.38419e-08
7.25262e-09
1.74345e-09
100.183
99.6984
99.5249
100.654
101.017
99.3446
98.1562
99.8638
102.504
102.122
98.3519
95.4397
97.5194
103.821
108.725
106.01
93.1052
72.2449
48.5649
27.1919
11.25
1.437
-3.27407
-4.60184
-4.16151
-3.09189
-2.0202
-1.19488
-0.649137
-0.326335
-0.152223
-0.0657755
-0.0261311
-0.00937378
-0.00290639
-0.000680295
-3.7372e-05
8.69136e-05
7.48282e-05
4.42307e-05
2.22593e-05
1.01529e-05
4.31355e-06
1.73217e-06
6.63304e-07
2.43629e-07
8.62024e-08
2.94066e-08
9.90671e-09
2.60886e-09
100.178
99.9727
99.336
100.036
101.194
100.401
98.4185
98.5007
101.188
102.978
100.94
96.8104
95.339
99.14
105.715
109.187
104.531
90.613
70.2752
48.2509
28.7737
14.2055
4.92833
0.0135138
-1.95259
-2.27516
-1.8855
-1.32198
-0.829028
-0.477083
-0.25554
-0.128516
-0.0610339
-0.0274746
-0.0117506
-0.00478031
-0.00184963
-0.000679636
-0.000236295
-7.71925e-05
-2.33786e-05
-6.38539e-06
-1.46886e-06
-2.19036e-07
2.79714e-08
4.41617e-08
2.59091e-08
1.19182e-08
5.00453e-09
1.5278e-09
100.098
100.225
99.4527
99.4813
100.842
101.146
99.3127
97.9703
99.5763
102.439
102.669
99.2463
95.586
95.9926
101.209
107.432
109.099
102.57
87.945
68.3771
48.0608
30.3842
17.0684
8.26782
3.17007
0.634942
-0.375148
-0.612237
-0.533907
-0.374854
-0.231979
-0.131195
-0.0690752
-0.0342335
-0.0160856
-0.00720223
-0.00308417
-0.00126661
-0.000499892
-0.00018989
-6.94998e-05
-2.45239e-05
-8.34431e-06
-2.7367e-06
-8.64265e-07
-2.62299e-07
-7.62444e-08
-2.11012e-08
-5.55054e-09
-1.13467e-09
99.9924
100.37
99.7474
99.1715
100.237
101.402
100.336
98.215
98.3284
101.129
103.208
101.542
97.3182
94.8746
97.335
103.578
108.986
108.67
100.338
85.0617
66.1215
47.191
30.967
18.684
10.336
5.20066
2.33603
0.894836
0.252552
0.0109652
-0.0540934
-0.0543028
-0.0380959
-0.0227388
-0.0122563
-0.00612652
-0.00288162
-0.00128682
-0.000548883
-0.000224589
-8.84391e-05
-3.35993e-05
-1.23396e-05
-4.3877e-06
-1.51249e-06
-5.05944e-07
-1.64384e-07
-5.18268e-08
-1.61436e-08
-3.98163e-09
99.9008
100.401
100.076
99.1164
99.6388
101.256
101.149
98.902
97.6788
99.6916
102.826
103.096
99.485
95.2975
94.9031
99.6201
106.52
110.565
107.811
97.3243
81.0463
62.3532
44.4689
29.5062
18.2741
10.5901
5.75105
2.92709
1.39392
0.618268
0.252989
0.0936157
0.0299041
0.00713421
0.000294204
-0.0010833
-0.000944582
-0.000576897
-0.000301417
-0.000143024
-6.32861e-05
-2.64886e-05
-1.0579e-05
-4.05491e-06
-1.49779e-06
-5.34779e-07
-1.85037e-07
-6.20309e-08
-2.06105e-08
-5.37972e-09
99.84
100.354
100.345
99.2307
99.1899
100.902
101.637
99.6905
97.5458
98.5244
101.992
103.847
101.387
96.4905
93.8382
96.5364
103.447
110.069
111.564
105.404
92.1602
74.5916
56.0711
39.3139
25.821
15.9488
9.29618
5.12829
2.68394
1.33512
0.632098
0.285022
0.122403
0.0500158
0.0194005
0.00711162
0.00244357
0.000774895
0.000219502
5.09862e-05
6.57708e-06
-2.16137e-06
-2.38936e-06
-1.39123e-06
-6.61797e-07
-2.82121e-07
-1.11755e-07
-4.17503e-08
-1.52606e-08
-4.27988e-09
99.8094
100.274
100.523
99.4135
98.9204
100.51
101.843
100.364
97.7214
97.7535
101.094
104.01
102.743
97.8259
93.6917
94.541
100.744
108.604
112.961
110.194
99.7168
83.5916
65.0989
47.3015
32.2144
20.6529
12.5131
7.18979
3.92965
2.04848
1.02083
0.487277
0.223172
0.0982113
0.0415758
0.0169458
0.00665397
0.00251777
0.000917944
0.000322262
0.000108801
3.52445e-05
1.09126e-05
3.20885e-06
8.86087e-07
2.24895e-07
4.9983e-08
8.43442e-09
1.46713e-10
-5.21583e-10
99.8001
100.195
100.62
99.5922
98.795
100.18
101.867
100.842
98.0108
97.3328
100.351
103.86
103.563
98.9539
93.9973
93.4468
98.7606
107.034
113.117
112.736
104.449
89.6957
71.5563
53.2542
37.1457
24.3926
15.1421
8.91837
5.00001
2.67604
1.37073
0.673487
0.318046
0.144612
0.0634092
0.02685
0.010993
0.0043565
0.00167271
0.000622754
0.000224967
7.88968e-05
2.68723e-05
8.89104e-06
2.85767e-06
8.92056e-07
2.70333e-07
7.93817e-08
2.28656e-08
5.24322e-09
99.8021
100.133
100.66
99.7319
98.759
99.9457
101.806
101.137
98.2902
97.1512
99.8274
103.606
103.985
99.7609
94.4281
92.9501
97.4821
105.753
112.771
113.921
107.193
93.5469
75.8471
57.3642
40.6583
27.1291
17.1128
10.2432
5.83765
3.17697
1.65542
0.827827
0.398123
0.184482
0.0825059
0.035667
0.0149245
0.00605228
0.00238133
0.000910009
0.000338065
0.000122194
4.30053e-05
1.47474e-05
4.93056e-06
1.60801e-06
5.11861e-07
1.58855e-07
4.8927e-08
1.19987e-08
99.8082
100.09
100.669
99.8264
98.7663
99.7997
101.726
101.295
98.5058
97.1021
99.5017
103.366
104.164
100.272
94.8137
92.7839
96.7403
104.857
112.325
114.381
108.67
95.8219
78.5165
60.0163
42.9916
28.9922
18.4839
11.1834
6.44313
3.54541
1.8683
0.945096
0.459916
0.215719
0.0976911
0.0427818
0.0181434
0.00746095
0.00297853
0.00115561
0.000436174
0.000160303
5.74152e-05
2.00564e-05
6.83806e-06
2.27694e-06
7.41039e-07
2.35451e-07
7.44698e-08
1.87181e-08
99.8144
100.064
100.665
99.8831
98.7874
99.7182
101.656
101.37
98.6501
97.1111
99.3196
103.185
104.217
100.565
95.0962
92.7685
96.3489
104.294
111.95
114.503
109.41
97.0862
80.0806
61.627
44.4484
30.1826
19.3779
11.8077
6.85194
3.79812
2.01651
1.02791
0.504163
0.238388
0.108857
0.0480812
0.0205716
0.00853698
0.00344041
0.00134793
0.000513946
0.000190886
6.9122e-05
2.44229e-05
8.42645e-06
2.84092e-06
9.367e-07
3.01667e-07
9.68483e-08
2.4674e-08
99.8191
100.05
100.657
99.9141
98.808
99.6772
101.606
101.399
98.7368
97.1368
99.2271
103.067
104.217
100.718
95.2784
92.804
96.1607
103.969
111.687
114.496
109.752
97.7497
80.9479
62.5521
45.3077
30.9002
19.9271
12.1977
7.11137
3.96082
2.11325
1.08268
0.533791
0.253753
0.116515
0.051758
0.0222755
0.00930053
0.00377179
0.00148742
0.000570972
0.000213554
7.78925e-05
2.77294e-05
9.6422e-06
3.27724e-06
1.0897e-06
3.54003e-07
1.14737e-07
2.94818e-08
99.8222
100.043
100.651
99.9294
98.8233
99.6587
101.575
101.407
98.7844
97.161
99.1847
102.997
104.201
100.791
95.3851
92.8452
96.0788
103.796
111.524
114.455
109.898
98.0794
81.4048
63.0572
45.7894
31.311
20.2472
12.4288
7.26733
4.05997
2.17296
1.11689
0.552518
0.263574
0.121464
0.0541593
0.0233999
0.00980956
0.00399494
0.00158229
0.000610136
0.000229273
8.40334e-05
3.00668e-05
1.05098e-05
3.59159e-06
1.20099e-06
3.9243e-07
1.28003e-07
3.30778e-08
99.8241
100.04
100.646
99.9364
98.833
99.6514
101.557
101.408
98.8086
97.1782
99.1673
102.958
104.186
100.823
95.4428
92.8767
96.0472
103.709
111.432
114.416
109.953
98.2347
81.6341
63.3199
46.0464
31.5348
20.4247
12.5589
7.35633
4.11728
2.20789
1.13714
0.563723
0.269513
0.124487
0.0556408
0.0241004
0.0101297
0.00413659
0.00164306
0.000635454
0.000239526
8.80747e-05
3.16186e-05
1.10909e-05
3.80397e-06
1.27683e-06
4.1884e-07
1.37203e-07
3.55911e-08
99.825
100.039
100.644
99.9392
98.8385
99.6489
101.548
101.406
98.82
97.1889
99.1611
102.939
104.175
100.836
95.4719
92.897
96.0369
103.669
111.382
114.39
109.972
98.3042
81.7441
63.4508
46.1778
31.6516
20.5188
12.6289
7.4049
4.14895
2.22741
1.14858
0.570119
0.272936
0.126246
0.0565112
0.0245157
0.0103212
0.00422207
0.00168006
0.000650995
0.000245873
9.0597e-05
3.25951e-05
1.14596e-05
3.93979e-06
1.32572e-06
4.36001e-07
1.43231e-07
3.72497e-08
99.8255
100.038
100.642
99.9402
98.8414
99.6484
101.544
101.404
98.8249
97.1947
99.1593
102.93
104.168
100.841
95.4857
92.9084
96.0346
103.651
111.358
114.373
109.976
98.3337
81.7947
63.5132
46.2421
31.7098
20.5666
12.6649
7.43021
4.16565
2.23782
1.15475
0.5736
0.274817
0.127222
0.0569981
0.02475
0.0104302
0.00427111
0.00170145
0.000660056
0.000249602
9.20906e-05
3.31778e-05
1.16812e-05
4.02207e-06
1.35557e-06
4.46554e-07
1.46967e-07
3.82845e-08
99.8258
100.038
100.641
99.9405
98.8429
99.6484
101.542
101.403
98.827
97.1978
99.1592
102.926
104.164
100.842
95.4919
92.9145
96.0348
103.643
111.346
114.365
109.977
98.3455
81.8169
63.5419
46.2724
31.7378
20.5899
12.6828
7.44293
4.17413
2.24317
1.15794
0.575423
0.275812
0.127742
0.05726
0.0248772
0.0104898
0.00429815
0.00171333
0.000665127
0.000251705
9.29391e-05
3.35112e-05
1.1809e-05
4.06982e-06
1.37301e-06
4.52764e-07
1.49181e-07
3.89017e-08
99.8259
100.038
100.641
99.9406
98.8435
99.6485
101.541
101.402
98.8278
97.1992
99.1593
102.924
104.162
100.842
95.4945
92.9175
96.0353
103.64
111.341
114.36
109.976
98.3501
81.8263
63.5546
46.2861
31.7508
20.6009
12.6913
7.44905
4.17826
2.2458
1.15953
0.576337
0.276315
0.128008
0.0573947
0.024943
0.0105209
0.00431238
0.00171964
0.000667838
0.000252838
9.33993e-05
3.36934e-05
1.18793e-05
4.09629e-06
1.38275e-06
4.56254e-07
1.50435e-07
3.92533e-08
99.8259
100.038
100.641
99.9406
98.8438
99.6487
101.54
101.402
98.828
97.1999
99.1595
102.923
104.161
100.842
95.4956
92.9189
96.0358
103.639
111.339
114.358
109.975
98.3516
81.8301
63.5599
46.2921
31.7565
20.6058
12.6952
7.45188
4.18019
2.24704
1.16029
0.576777
0.276559
0.128138
0.0574612
0.0249758
0.0105365
0.00431956
0.00172284
0.000669224
0.000253421
9.36378e-05
3.37884e-05
1.19162e-05
4.11027e-06
1.38792e-06
4.58121e-07
1.5111e-07
3.94436e-08
99.8259
100.038
100.641
99.9406
98.8439
99.6487
101.54
101.402
98.8281
97.2001
99.1596
102.923
104.161
100.842
95.496
92.9195
96.0361
103.638
111.338
114.357
109.975
98.3523
81.8317
63.5622
46.2947
31.7591
20.6081
12.697
7.45321
4.18111
2.24764
1.16065
0.57699
0.276678
0.128201
0.0574941
0.0249921
0.0105443
0.00432318
0.00172447
0.000669932
0.00025372
9.37611e-05
3.38378e-05
1.19354e-05
4.11762e-06
1.39066e-06
4.59113e-07
1.5147e-07
3.95458e-08
99.8259
100.038
100.641
99.9405
98.8439
99.6488
101.54
101.402
98.8281
97.2003
99.1597
102.923
104.161
100.842
95.4961
92.9197
96.0363
103.638
111.338
114.357
109.975
98.3523
81.8321
63.5629
46.2956
31.76
20.6089
12.6976
7.4537
4.18146
2.24787
1.1608
0.577076
0.276727
0.128228
0.057508
0.0249991
0.0105477
0.00432478
0.00172519
0.000670252
0.000253857
9.3818e-05
3.38608e-05
1.19445e-05
4.12112e-06
1.39197e-06
4.59594e-07
1.51647e-07
3.95962e-08
99.8259
100.038
100.641
99.9405
98.844
99.6488
101.54
101.402
98.8281
97.2003
99.1597
102.923
104.161
100.842
95.4962
92.9198
96.0363
103.638
111.337
114.357
109.975
98.3525
81.8325
63.5634
46.2962
31.7606
20.6094
12.698
7.45398
4.18165
2.24799
1.16087
0.57712
0.276752
0.128241
0.0575148
0.0250025
0.0105493
0.00432554
0.00172554
0.000670402
0.000253921
9.38444e-05
3.38715e-05
1.19487e-05
4.12274e-06
1.39258e-06
4.59817e-07
1.51729e-07
3.96197e-08
99.8259
100.038
100.641
99.9405
98.844
99.6488
101.54
101.402
98.8281
97.2003
99.1598
102.923
104.161
100.842
95.4962
92.9199
96.0364
103.638
111.337
114.357
109.974
98.3523
81.8324
63.5634
46.2963
31.7607
20.6095
12.6982
7.4541
4.18174
2.24805
1.16091
0.577145
0.276766
0.128249
0.057519
0.0250047
0.0105504
0.00432603
0.00172576
0.000670502
0.000253964
9.38623e-05
3.38788e-05
1.19516e-05
4.12384e-06
1.39299e-06
4.59969e-07
1.51785e-07
3.96356e-08
99.8259
100.038
100.641
99.9405
98.844
99.6488
101.54
101.402
98.8281
97.2003
99.1597
102.923
104.161
100.842
95.4962
92.9198
96.0363
103.638
111.338
114.357
109.975
98.3525
81.8324
63.5634
46.2962
31.7605
20.6094
12.698
7.45401
4.18167
2.24801
1.16089
0.577131
0.276758
0.128245
0.057517
0.0250037
0.01055
0.00432585
0.00172568
0.00067047
0.000253951
9.38577e-05
3.38771e-05
1.1951e-05
4.12364e-06
1.39293e-06
4.59949e-07
1.51779e-07
3.96342e-08
99.8259
100.038
100.641
99.9405
98.844
99.6488
101.54
101.402
98.8281
97.2004
99.1598
102.923
104.161
100.842
95.4963
92.92
96.0364
103.638
111.337
114.356
109.974
98.3525
81.8327
63.5638
46.2967
31.7611
20.6098
12.6984
7.45427
4.18185
2.24812
1.16096
0.577169
0.276779
0.128256
0.0575224
0.0250063
0.0105512
0.00432639
0.00172592
0.00067057
0.000253992
9.38741e-05
3.38835e-05
1.19534e-05
4.12454e-06
1.39325e-06
4.60063e-07
1.51819e-07
3.96455e-08
99.8259
100.038
100.641
99.9405
98.8439
99.6488
101.54
101.402
98.8281
97.2003
99.1597
102.923
104.161
100.842
95.4961
92.9197
96.0363
103.638
111.338
114.357
109.975
98.3523
81.8322
63.5631
46.2959
31.7603
20.6092
12.6979
7.45395
4.18164
2.24799
1.16088
0.577126
0.276756
0.128245
0.0575168
0.0250037
0.01055
0.00432586
0.00172569
0.000670476
0.000253955
9.38594e-05
3.38779e-05
1.19514e-05
4.12379e-06
1.39299e-06
4.59972e-07
1.51788e-07
3.9637e-08
99.8259
100.038
100.641
99.9405
98.844
99.6488
101.54
101.402
98.8281
97.2004
99.1597
102.923
104.161
100.842
95.4963
92.92
96.0364
103.638
111.337
114.356
109.974
98.3526
81.8328
63.564
46.2968
31.7611
20.6099
12.6984
7.45429
4.18186
2.24813
1.16096
0.57717
0.276779
0.128256
0.0575225
0.0250064
0.0105512
0.00432639
0.00172592
0.000670571
0.000253993
9.38743e-05
3.38836e-05
1.19535e-05
4.12456e-06
1.39326e-06
4.60067e-07
1.51821e-07
3.96459e-08
99.8259
100.038
100.641
99.9405
98.8439
99.6488
101.54
101.402
98.8281
97.2003
99.1597
102.923
104.161
100.842
95.4961
92.9198
96.0364
103.638
111.338
114.357
109.974
98.3523
81.8323
63.5632
46.2961
31.7605
20.6094
12.698
7.45402
4.18169
2.24802
1.1609
0.577137
0.276762
0.128247
0.0575183
0.0250044
0.0105503
0.00432601
0.00172576
0.000670504
0.000253966
9.38639e-05
3.38796e-05
1.1952e-05
4.12404e-06
1.39308e-06
4.60005e-07
1.518e-07
3.96402e-08
99.8259
100.038
100.641
99.9405
98.844
99.6488
101.54
101.402
98.8281
97.2004
99.1597
102.923
104.161
100.842
95.4962
92.9199
96.0364
103.638
111.337
114.357
109.974
98.3525
81.8326
63.5636
46.2965
31.7609
20.6097
12.6983
7.45417
4.18178
2.24808
1.16093
0.577155
0.276772
0.128252
0.0575206
0.0250054
0.0105508
0.00432621
0.00172585
0.000670539
0.00025398
9.38693e-05
3.38817e-05
1.19528e-05
4.12431e-06
1.39317e-06
4.60037e-07
1.5181e-07
3.96432e-08
99.8259
100.038
100.641
99.9405
98.844
99.6488
101.54
101.402
98.8281
97.2003
99.1597
102.923
104.161
100.842
95.4962
92.9198
96.0363
103.638
111.337
114.357
109.975
98.3525
81.8325
63.5635
46.2963
31.7607
20.6096
12.6982
7.45412
4.18175
2.24806
1.16092
0.577148
0.276768
0.12825
0.0575196
0.025005
0.0105506
0.00432613
0.00172581
0.000670524
0.000253974
9.3867e-05
3.38808e-05
1.19525e-05
4.12419e-06
1.39313e-06
4.60022e-07
1.51806e-07
3.96417e-08
99.8259
100.038
100.641
99.9405
98.844
99.6488
101.54
101.402
98.8281
97.2004
99.1598
102.923
104.161
100.842
95.4962
92.9199
96.0364
103.638
111.337
114.356
109.974
98.3524
81.8325
63.5636
46.2964
31.7608
20.6096
12.6983
7.45417
4.18178
2.24808
1.16093
0.577156
0.276772
0.128253
0.0575208
0.0250056
0.0105508
0.00432624
0.00172586
0.000670546
0.000253983
9.38705e-05
3.38822e-05
1.1953e-05
4.12438e-06
1.3932e-06
4.60046e-07
1.51814e-07
3.96444e-08
99.8259
100.038
100.641
99.9405
98.844
99.6488
101.54
101.402
98.8281
97.2003
99.1598
102.923
104.161
100.842
95.4961
92.9198
96.0364
103.638
111.337
114.357
109.974
98.3524
81.8324
63.5635
46.2963
31.7608
20.6096
12.6982
7.45415
4.18178
2.24808
1.16093
0.577157
0.276773
0.128253
0.0575212
0.0250058
0.0105509
0.0043263
0.00172589
0.00067056
0.000253989
9.38732e-05
3.38833e-05
1.19534e-05
4.12456e-06
1.39327e-06
4.60072e-07
1.51823e-07
3.96469e-08
)
;

boundaryField
{
    left
    {
        type            fixedValue;
        value           uniform 100;
    }
    right
    {
        type            zeroGradient;
    }
    up
    {
        type            zeroGradient;
    }
    down
    {
        type            fixedValue;
        value           uniform 0;
    }
    frontAndBack
    {
        type            empty;
    }
}


// ************************************************************************* //
