/*--------------------------------*- C++ -*----------------------------------*\
  =========                 |
  \\      /  F ield         | OpenFOAM: The Open Source CFD Toolbox
   \\    /   O peration     | Website:  https://openfoam.org
    \\  /    A nd           | Version:  8
     \\/     M anipulation  |
\*---------------------------------------------------------------------------*/
FoamFile
{
    version     2.0;
    format      ascii;
    class       volScalarField;
    location    "0.39";
    object      p;
}
// * * * * * * * * * * * * * * * * * * * * * * * * * * * * * * * * * * * * * //

dimensions      [0 2 -2 0 0 0 0];

internalField   nonuniform List<scalar> 
400
(
4.26702e-06
-0.00582237
-0.0129597
-0.0184117
-0.0204291
-0.0182354
-0.011771
-0.00148104
0.0118396
0.027151
0.0432458
0.058824
0.0725794
0.083309
0.0900534
0.0922676
0.0900267
0.0842451
0.0768823
0.0710691
0.00578298
-0.000215843
-0.00580143
-0.00953992
-0.0105963
-0.0084301
-0.00296745
0.00547644
0.016305
0.0287135
0.0417513
0.0543872
0.0655875
0.074411
0.0801214
0.082317
0.0810787
0.0770565
0.071276
0.06532
0.0133368
0.00503562
-0.000993172
-0.00442085
-0.00527063
-0.00326168
0.00160449
0.00902961
0.018504
0.029351
0.040767
0.0518711
0.0617699
0.0696377
0.0748084
0.0768796
0.0758434
0.0720879
0.0658077
0.057538
0.0201407
0.00869756
0.00122772
-0.00266652
-0.00372004
-0.00188325
0.00273326
0.00978646
0.0187822
0.0290968
0.0399937
0.0506556
0.0602345
0.0679175
0.0730048
0.0750032
0.0737678
0.0694583
0.0616055
0.0501054
0.024503
0.00977454
0.000591489
-0.00398502
-0.00530024
-0.00350532
0.0011767
0.00833644
0.0174638
0.0279509
0.0390868
0.0500717
0.0600506
0.0681668
0.0736281
0.0757996
0.0743711
0.0692921
0.0595283
0.0445403
0.0251788
0.00715144
-0.00380032
-0.00905532
-0.0105101
-0.00849788
-0.00335472
0.00443146
0.0143153
0.0256809
0.0378157
0.0499053
0.0610501
0.0703051
0.0767366
0.0795189
0.0781411
0.072336
0.0605421
0.0418934
0.0210945
-0.000260819
-0.0129327
-0.0187073
-0.0200277
-0.0174117
-0.011316
-0.00231738
0.00899269
0.0219784
0.0359118
0.0499465
0.0631144
0.0743475
0.0825241
0.0865717
0.085723
0.0794497
0.0656233
0.0430752
0.0111442
-0.0136164
-0.027873
-0.033852
-0.0346012
-0.030855
-0.0232102
-0.0123425
0.00110749
0.0164865
0.033055
0.0499361
0.0660858
0.0802924
0.0912032
0.0974325
0.0978728
0.0916387
0.0758992
0.0491199
-0.00596523
-0.0342643
-0.0498677
-0.0555461
-0.0550875
-0.0495118
-0.0395906
-0.0261103
-0.00975405
0.008826
0.0289039
0.0495963
0.0698003
0.0881573
0.10305
0.112704
0.115553
0.110195
0.0928372
0.0614147
-0.0318546
-0.0638734
-0.0804142
-0.0850044
-0.0824172
-0.0740753
-0.0609777
-0.0440333
-0.0239481
-0.00133346
0.0231489
0.0486642
0.0740987
0.0979753
0.118399
0.133129
0.139991
0.136821
0.118444
0.0819368
-0.0686641
-0.1046
-0.121341
-0.123587
-0.117512
-0.105123
-0.0877149
-0.0663219
-0.0416333
-0.0141518
0.0156093
0.0469568
0.0788592
0.109797
0.137627
0.159589
0.17273
0.173781
0.155523
0.113574
-0.119398
-0.159353
-0.174911
-0.172753
-0.161144
-0.142925
-0.119755
-0.0927732
-0.0625735
-0.0294436
0.00637722
0.0444775
0.0840589
0.123707
0.16114
0.193089
0.215671
0.22408
0.208053
0.160635
-0.188624
-0.232238
-0.243935
-0.233944
-0.21369
-0.18715
-0.156368
-0.122497
-0.0858938
-0.0464679
-0.00401009
0.0415431
0.0898463
0.139833
0.189323
0.234693
0.271078
0.291667
0.281745
0.229778
-0.283969
-0.3293
-0.331827
-0.308276
-0.274704
-0.236436
-0.19576
-0.153606
-0.109836
-0.0637406
-0.0144333
0.038868
0.0965587
0.158281
0.222378
0.285292
0.3414
0.381578
0.384917
0.331836
-0.419313
-0.459666
-0.442346
-0.395788
-0.342125
-0.287735
-0.234611
-0.182925
-0.131605
-0.0789801
-0.0232091
0.0374802
0.104558
0.178842
0.259865
0.344974
0.42862
0.499703
0.529678
0.485394
-0.620526
-0.636739
-0.578672
-0.494189
-0.411236
-0.335654
-0.267776
-0.205973
-0.147531
-0.0893777
-0.0284208
0.0383535
0.113812
0.200476
0.29998
0.412029
0.533033
0.651779
0.732775
0.722398
-0.935918
-0.87851
-0.741737
-0.597944
-0.474389
-0.372655
-0.288864
-0.217758
-0.153948
-0.0924585
-0.0287118
0.0417011
0.123269
0.220723
0.338931
0.482159
0.652001
0.841345
1.01527
1.09751
-1.47642
-1.20663
-0.920499
-0.691384
-0.517301
-0.38754
-0.290057
-0.213333
-0.148119
-0.0872102
-0.0245721
0.045463
0.128943
0.233076
0.367108
0.542683
0.771297
1.05932
1.40329
1.73014
-2.53964
-1.63054
-1.04443
-0.710955
-0.495747
-0.35209
-0.254527
-0.183579
-0.126165
-0.0735901
-0.0192636
0.0427925
0.119218
0.218788
0.354817
0.547989
0.826397
1.23659
1.91168
2.9242
-4.36666
-2.04463
-0.973539
-0.563178
-0.357843
-0.240144
-0.170116
-0.123779
-0.0874771
-0.0535055
-0.0166492
0.0276664
0.0846134
0.161735
0.272417
0.442104
0.718224
1.22571
2.41104
4.84854
)
;

boundaryField
{
    movingWall
    {
        type            zeroGradient;
    }
    fixedWalls
    {
        type            zeroGradient;
    }
    frontAndBack
    {
        type            empty;
    }
}


// ************************************************************************* //
