/*--------------------------------*- C++ -*----------------------------------*\
  =========                 |
  \\      /  F ield         | OpenFOAM: The Open Source CFD Toolbox
   \\    /   O peration     | Website:  https://openfoam.org
    \\  /    A nd           | Version:  8
     \\/     M anipulation  |
\*---------------------------------------------------------------------------*/
FoamFile
{
    version     2.0;
    format      ascii;
    class       volVectorField;
    location    "0.39";
    object      U;
}
// * * * * * * * * * * * * * * * * * * * * * * * * * * * * * * * * * * * * * //

dimensions      [0 1 -1 0 0 0 0];

internalField   nonuniform List<vector> 
400
(
(0.000253395 -0.000250442 0)
(0.000141197 0.000111423 0)
(-0.001177 0.000564601 0)
(-0.00348115 0.000884981 0)
(-0.00637754 0.00104571 0)
(-0.00946957 0.00106174 0)
(-0.0124031 0.000957848 0)
(-0.0148851 0.000760439 0)
(-0.0166897 0.000494646 0)
(-0.0176585 0.000184562 0)
(-0.0177024 -0.000145269 0)
(-0.0168053 -0.00046837 0)
(-0.0150303 -0.000755421 0)
(-0.0125253 -0.000974273 0)
(-0.00952653 -0.0010912 0)
(-0.00635506 -0.00107402 0)
(-0.00340068 -0.00089813 0)
(-0.00108644 -0.000556395 0)
(0.000196429 -9.03664e-05 0)
(0.000267863 0.000262389 0)
(-7.74709e-05 -0.000169382 0)
(-0.00161159 0.00164484 0)
(-0.00569302 0.00361735 0)
(-0.0117191 0.0050349 0)
(-0.0188927 0.00574333 0)
(-0.0264014 0.00576031 0)
(-0.03347 0.00517177 0)
(-0.0394279 0.0040926 0)
(-0.0437452 0.00264769 0)
(-0.0460484 0.000966948 0)
(-0.0461307 -0.000813243 0)
(-0.0439626 -0.00254714 0)
(-0.0397023 -0.00407874 0)
(-0.0337036 -0.00524523 0)
(-0.0265141 -0.00588671 0)
(-0.0188551 -0.005865 0)
(-0.011567 -0.00509488 0)
(-0.00551342 -0.0035895 0)
(-0.00149312 -0.00155916 0)
(-4.25794e-05 0.000227466 0)
(-0.000528622 0.00109164 0)
(-0.0037115 0.00573641 0)
(-0.0105892 0.0102247 0)
(-0.0199923 0.013408 0)
(-0.0307658 0.0149466 0)
(-0.0418235 0.0148392 0)
(-0.0521215 0.013256 0)
(-0.0607462 0.0104565 0)
(-0.0669717 0.00674216 0)
(-0.0702851 0.00243892 0)
(-0.070403 -0.00210661 0)
(-0.0672866 -0.00652566 0)
(-0.0611544 -0.0104295 0)
(-0.0524902 -0.0134214 0)
(-0.0420384 -0.0151239 0)
(-0.0307749 -0.015226 0)
(-0.0198297 -0.0135563 0)
(-0.0103639 -0.0101792 0)
(-0.00354861 -0.0055512 0)
(-0.000476857 -0.000948847 0)
(-0.000928252 0.00347992 0)
(-0.00569167 0.012221 0)
(-0.0153023 0.0199222 0)
(-0.0279178 0.0251985 0)
(-0.0419868 0.0275977 0)
(-0.0561809 0.0271382 0)
(-0.0692544 0.0241095 0)
(-0.0801284 0.0189543 0)
(-0.0879512 0.0121958 0)
(-0.092122 0.00440515 0)
(-0.0923065 -0.00380812 0)
(-0.0884531 -0.0117969 0)
(-0.0808076 -0.0188827 0)
(-0.0699252 -0.024377 0)
(-0.056671 -0.0276284 0)
(-0.0421961 -0.0281025 0)
(-0.0278574 -0.0254983 0)
(-0.0150941 -0.0198921 0)
(-0.00550519 -0.0119279 0)
(-0.000861623 -0.00322493 0)
(-0.00127897 0.00687797 0)
(-0.00753627 0.0209542 0)
(-0.0198054 0.0325111 0)
(-0.035536 0.0401041 0)
(-0.0527451 0.0432913 0)
(-0.0698608 0.0421938 0)
(-0.0854662 0.0372784 0)
(-0.0983638 0.0292137 0)
(-0.107623 0.0187776 0)
(-0.112592 0.00681381 0)
(-0.112901 -0.0057806 0)
(-0.108478 -0.0180552 0)
(-0.0995653 -0.0290121 0)
(-0.0867418 -0.0376336 0)
(-0.0709378 -0.042946 0)
(-0.0534318 -0.0441298 0)
(-0.0357856 -0.0406796 0)
(-0.0197357 -0.0325931 0)
(-0.00737078 -0.020591 0)
(-0.0012037 -0.00649827 0)
(-0.00160756 0.0112159 0)
(-0.00931825 0.0318752 0)
(-0.0242099 0.0479527 0)
(-0.0430037 0.058073 0)
(-0.0632586 0.0619382 0)
(-0.083155 0.0598822 0)
(-0.101127 0.0526291 0)
(-0.115895 0.0411265 0)
(-0.126491 0.0264374 0)
(-0.13224 0.00969294 0)
(-0.132753 -0.00791657 0)
(-0.127926 -0.0251326 0)
(-0.117969 -0.0406257 0)
(-0.103436 -0.0530202 0)
(-0.0852706 -0.0609672 0)
(-0.0648368 -0.063281 0)
(-0.0438863 -0.0591428 0)
(-0.0244781 -0.048345 0)
(-0.00925447 -0.031558 0)
(-0.00153778 -0.0107287 0)
(-0.00194008 0.0164773 0)
(-0.0111214 0.0449748 0)
(-0.0286507 0.0662341 0)
(-0.0504805 0.0790602 0)
(-0.0736859 0.0834471 0)
(-0.0962049 0.0800749 0)
(-0.116353 0.070025 0)
(-0.132816 0.0545853 0)
(-0.144633 0.0351319 0)
(-0.151143 0.0130847 0)
(-0.151951 -0.0100867 0)
(-0.146917 -0.0328331 0)
(-0.136183 -0.0535003 0)
(-0.120224 -0.0703375 0)
(-0.0999335 -0.081566 0)
(-0.0767021 -0.0855334 0)
(-0.0524406 -0.0809643 0)
(-0.0295451 -0.0672775 0)
(-0.0112837 -0.0449399 0)
(-0.00190009 -0.0159517 0)
(-0.00230004 0.0226951 0)
(-0.0130251 0.0603012 0)
(-0.0332509 0.087364 0)
(-0.0580799 0.102997 0)
(-0.0840748 0.107666 0)
(-0.108954 0.102562 0)
(-0.130968 0.0892444 0)
(-0.148835 0.069411 0)
(-0.161667 0.0447717 0)
(-0.168868 0.0170198 0)
(-0.170063 -0.0121337 0)
(-0.165072 -0.0408935 0)
(-0.15393 -0.0673147 0)
(-0.13697 -0.0892736 0)
(-0.114943 -0.104512 0)
(-0.089176 -0.110797 0)
(-0.0616707 -0.106213 0)
(-0.0351484 -0.0895797 0)
(-0.0135859 -0.0609497 0)
(-0.00232634 -0.0222776 0)
(-0.00271164 0.029947 0)
(-0.015108 0.0779565 0)
(-0.0381146 0.111356 0)
(-0.0658482 0.12975 0)
(-0.0943265 0.134317 0)
(-0.121099 0.126974 0)
(-0.144443 0.109902 0)
(-0.163213 0.0852816 0)
(-0.176687 0.055167 0)
(-0.184406 0.0214868 0)
(-0.186057 -0.0138748 0)
(-0.181421 -0.0489567 0)
(-0.170394 -0.0815934 0)
(-0.15308 -0.109324 0)
(-0.129971 -0.129381 0)
(-0.102185 -0.138828 0)
(-0.0716893 -0.134887 0)
(-0.0414668 -0.115469 0)
(-0.016288 -0.0798953 0)
(-0.00285469 -0.0298896 0)
(-0.00320765 0.0383594 0)
(-0.0174661 0.098089 0)
(-0.0433409 0.138189 0)
(-0.0737564 0.159045 0)
(-0.10416 0.1629 0)
(-0.132031 0.152672 0)
(-0.155825 0.131341 0)
(-0.174678 0.10164 0)
(-0.188167 0.0659573 0)
(-0.196067 0.0263894 0)
(-0.198186 -0.0151127 0)
(-0.194283 -0.0565452 0)
(-0.184081 -0.0956417 0)
(-0.167366 -0.129689 0)
(-0.144215 -0.155423 0)
(-0.115338 -0.169097 0)
(-0.0824456 -0.166802 0)
(-0.048636 -0.145124 0)
(-0.0195287 -0.102159 0)
(-0.00353356 -0.0390471 0)
(-0.00384395 0.0481284 0)
(-0.0202462 0.120893 0)
(-0.0490466 0.167751 0)
(-0.0816864 0.190365 0)
(-0.113053 0.192556 0)
(-0.140746 0.178614 0)
(-0.163622 0.152512 0)
(-0.181309 0.117592 0)
(-0.193847 0.0765347 0)
(-0.201361 0.0314942 0)
(-0.203857 -0.0156587 0)
(-0.20111 -0.0630502 0)
(-0.192649 -0.108491 0)
(-0.177857 -0.14917 0)
(-0.156224 -0.181415 0)
(-0.127779 -0.200606 0)
(-0.0936442 -0.201424 0)
(-0.056733 -0.178573 0)
(-0.0234798 -0.128172 0)
(-0.00443553 -0.0501042 0)
(-0.00472537 0.0595709 0)
(-0.0236947 0.146617 0)
(-0.055383 0.199755 0)
(-0.0893765 0.22279 0)
(-0.120122 0.221891 0)
(-0.145676 0.203187 0)
(-0.165631 0.171839 0)
(-0.180371 0.13181 0)
(-0.190582 0.0859697 0)
(-0.196864 0.0363764 0)
(-0.199502 -0.0153704 0)
(-0.198336 -0.0677427 0)
(-0.192718 -0.118866 0)
(-0.181574 -0.166078 0)
(-0.163645 -0.205487 0)
(-0.137967 -0.23166 0)
(-0.104596 -0.237624 0)
(-0.0657336 -0.215524 0)
(-0.0283777 -0.158367 0)
(-0.00568208 -0.0635519 0)
(-0.00605158 0.073228 0)
(-0.0282259 0.175563 0)
(-0.0625088 0.23357 0)
(-0.0962571 0.254746 0)
(-0.123857 0.24873 0)
(-0.144398 0.224026 0)
(-0.158671 0.187107 0)
(-0.168108 0.142461 0)
(-0.174202 0.0929687 0)
(-0.178119 0.0403791 0)
(-0.180486 -0.0141983 0)
(-0.181266 -0.0698208 0)
(-0.179696 -0.12521 0)
(-0.174271 -0.178179 0)
(-0.162895 -0.224972 0)
(-0.143317 -0.259587 0)
(-0.113938 -0.273328 0)
(-0.0753932 -0.255066 0)
(-0.0345563 -0.19309 0)
(-0.00748629 -0.080104 0)
(-0.00819207 0.090046 0)
(-0.0344827 0.20802 0)
(-0.0704123 0.267883 0)
(-0.101023 0.283605 0)
(-0.121574 0.26981 0)
(-0.133108 0.23784 0)
(-0.138163 0.195404 0)
(-0.139462 0.147233 0)
(-0.139367 0.095909 0)
(-0.139595 0.0426196 0)
(-0.14111 -0.0122328 0)
(-0.144055 -0.0685068 0)
(-0.147669 -0.125794 0)
(-0.15017 -0.182769 0)
(-0.148721 -0.236324 0)
(-0.139644 -0.280446 0)
(-0.119095 -0.305025 0)
(-0.084936 -0.295158 0)
(-0.0424405 -0.232376 0)
(-0.010216 -0.100837 0)
(-0.0117675 0.111635 0)
(-0.0432597 0.243961 0)
(-0.0782972 0.300033 0)
(-0.100628 0.305092 0)
(-0.108351 0.28046 0)
(-0.10573 0.240382 0)
(-0.0975286 0.193281 0)
(-0.08777 0.143549 0)
(-0.0795 0.0930357 0)
(-0.0747843 0.0420949 0)
(-0.074802 -0.00972869 0)
(-0.0798898 -0.0632109 0)
(-0.0894621 -0.11899 0)
(-0.101788 -0.176957 0)
(-0.113686 -0.235284 0)
(-0.120305 -0.288881 0)
(-0.115263 -0.327195 0)
(-0.0922664 -0.331794 0)
(-0.0523156 -0.275403 0)
(-0.0144303 -0.127347 0)
(-0.0175493 0.140659 0)
(-0.0547645 0.282145 0)
(-0.0827861 0.324718 0)
(-0.0880801 0.312473 0)
(-0.075108 0.274456 0)
(-0.0525902 0.22677 0)
(-0.0274575 0.177288 0)
(-0.00451345 0.129135 0)
(0.0131 0.0829126 0)
(0.0234413 0.0379468 0)
(0.0253998 -0.00707346 0)
(0.0185087 -0.0537584 0)
(0.00298096 -0.103752 0)
(-0.0199959 -0.15832 0)
(-0.047685 -0.217502 0)
(-0.0749841 -0.27836 0)
(-0.0935463 -0.33179 0)
(-0.0920635 -0.357682 0)
(-0.0632805 -0.319294 0)
(-0.0206336 -0.161974 0)
(-0.0254497 0.181711 0)
(-0.0657745 0.317771 0)
(-0.0733329 0.331362 0)
(-0.0480767 0.2954 0)
(-0.00557773 0.244211 0)
(0.0412192 0.19238 0)
(0.084654 0.145047 0)
(0.120538 0.102972 0)
(0.146703 0.0651378 0)
(0.162048 0.0298914 0)
(0.165943 -0.00467158 0)
(0.157937 -0.0406284 0)
(0.137733 -0.0802465 0)
(0.105441 -0.125918 0)
(0.0622628 -0.179726 0)
(0.0118062 -0.24202 0)
(-0.0378296 -0.307877 0)
(-0.0716793 -0.360143 0)
(-0.0700555 -0.356608 0)
(-0.0279123 -0.208375 0)
(-0.029649 0.239176 0)
(-0.0608413 0.335767 0)
(-0.0219423 0.300503 0)
(0.0505421 0.240127 0)
(0.127573 0.182949 0)
(0.197008 0.135389 0)
(0.254337 0.0973989 0)
(0.298251 0.066851 0)
(0.328825 0.0413553 0)
(0.346468 0.0187785 0)
(0.351377 -0.00279418 0)
(0.343303 -0.0252652 0)
(0.321469 -0.0507877 0)
(0.284643 -0.082048 0)
(0.231572 -0.122446 0)
(0.162181 -0.175669 0)
(0.0799007 -0.243431 0)
(-0.00318985 -0.319136 0)
(-0.0546696 -0.368612 0)
(-0.0284594 -0.267618 0)
(0.0080831 0.281861 0)
(0.019783 0.294972 0)
(0.139066 0.210973 0)
(0.26446 0.143477 0)
(0.364368 0.0971859 0)
(0.440364 0.0657774 0)
(0.496743 0.0442374 0)
(0.536874 0.028886 0)
(0.563447 0.0171988 0)
(0.578306 0.00748477 0)
(0.58238 -0.00149413 0)
(0.575695 -0.0108452 0)
(0.557308 -0.021847 0)
(0.525135 -0.0363349 0)
(0.475777 -0.0572595 0)
(0.404537 -0.089384 0)
(0.305176 -0.139741 0)
(0.173417 -0.216386 0)
(0.041172 -0.311655 0)
(0.0184302 -0.299995 0)
(0.299604 0.146091 0)
(0.396272 0.127503 0)
(0.55742 0.0760895 0)
(0.674487 0.0437232 0)
(0.743888 0.0255721 0)
(0.787153 0.0152422 0)
(0.815485 0.00921232 0)
(0.833955 0.0055094 0)
(0.845385 0.00302717 0)
(0.851371 0.00114934 0)
(0.852666 -0.000499386 0)
(0.849382 -0.00221507 0)
(0.840999 -0.00433856 0)
(0.82614 -0.00742407 0)
(0.802078 -0.0125322 0)
(0.763621 -0.0217728 0)
(0.699108 -0.0392829 0)
(0.583952 -0.0726601 0)
(0.415827 -0.127868 0)
(0.308819 -0.149468 0)
)
;

boundaryField
{
    movingWall
    {
        type            fixedValue;
        value           uniform (1 0 0);
    }
    fixedWalls
    {
        type            noSlip;
    }
    frontAndBack
    {
        type            empty;
    }
}


// ************************************************************************* //
