/*--------------------------------*- C++ -*----------------------------------*\
  =========                 |
  \\      /  F ield         | OpenFOAM: The Open Source CFD Toolbox
   \\    /   O peration     | Website:  https://openfoam.org
    \\  /    A nd           | Version:  8
     \\/     M anipulation  |
\*---------------------------------------------------------------------------*/
FoamFile
{
    version     2.0;
    format      ascii;
    class       volScalarField;
    location    "55";
    object      p;
}
// * * * * * * * * * * * * * * * * * * * * * * * * * * * * * * * * * * * * * //

dimensions      [0 2 -2 0 0 0 0];

internalField   nonuniform List<scalar> 
11600
(
-3.42747e-07
-1.06388e-06
-9.13726e-07
-4.19769e-07
6.5281e-07
2.24045e-06
4.33525e-06
6.93273e-06
1.00316e-05
1.36336e-05
1.77424e-05
2.2363e-05
2.75014e-05
3.31642e-05
3.93589e-05
4.6094e-05
5.33784e-05
6.12221e-05
6.9636e-05
7.86314e-05
8.82208e-05
9.84174e-05
0.000109235
0.00012069
0.000132796
0.000145573
0.000159037
0.000173209
0.000188109
0.000203759
0.000220181
0.000237399
0.00025544
0.00027433
0.000294096
0.000314768
0.000336377
0.000358954
0.000382534
0.000407149
0.000432836
0.000459631
0.000487572
0.000516695
0.00054704
0.000578643
0.00061154
0.000645763
0.000681339
0.000718284
0.000756593
0.000796222
0.000837067
0.000878898
0.000921157
0.000963145
0.00100681
0.00103512
0.00110477
0.00106228
1.81956e-07
-4.80984e-07
-1.57095e-07
4.29867e-07
1.55589e-06
3.17028e-06
5.27599e-06
7.87732e-06
1.0977e-05
1.45786e-05
1.86864e-05
2.33056e-05
2.84421e-05
3.41027e-05
4.02948e-05
4.70268e-05
5.43077e-05
6.21474e-05
7.05566e-05
7.95468e-05
8.91302e-05
9.93201e-05
0.00011013
0.000121576
0.000133673
0.000146439
0.000159892
0.000174051
0.000188937
0.00020457
0.000220975
0.000238175
0.000256196
0.000275063
0.000294805
0.000315452
0.000337033
0.000359581
0.000383128
0.00040771
0.000433362
0.000460121
0.000488023
0.000517107
0.000547412
0.000578973
0.000611829
0.000646012
0.000681551
0.000718465
0.000756759
0.000796416
0.000837379
0.000879532
0.000922736
0.000967094
0.0010129
0.00105714
0.00112225
0.00116637
-9.8185e-08
-8.98287e-07
-5.52514e-07
3.26291e-08
1.16369e-06
2.7806e-06
4.88587e-06
7.48437e-06
1.05792e-05
1.4174e-05
1.82736e-05
2.28831e-05
2.80085e-05
3.36566e-05
3.98349e-05
4.65516e-05
5.38158e-05
6.16374e-05
7.00269e-05
7.89958e-05
8.85562e-05
9.87214e-05
0.000109505
0.000120923
0.000132989
0.000145723
0.000159141
0.000173263
0.00018811
0.000203702
0.000220063
0.000237216
0.000255187
0.000274002
0.00029369
0.000314279
0.0003358
0.000358285
0.000381767
0.000406281
0.000431863
0.000458549
0.000486378
0.000515388
0.000545619
0.000577109
0.000609897
0.00064402
0.00067951
0.000716396
0.000754694
0.000794407
0.000835512
0.000877955
0.000921711
0.000966932
0.00101384
0.00106253
0.00112417
0.00117584
-7.76559e-07
-1.65924e-06
-1.28588e-06
-6.93698e-07
4.47543e-07
2.06912e-06
4.17379e-06
6.76757e-06
9.85438e-06
1.34385e-05
1.7525e-05
2.21191e-05
2.72272e-05
3.28557e-05
3.90124e-05
4.57054e-05
5.29436e-05
6.07369e-05
6.90958e-05
7.80316e-05
8.75564e-05
9.76832e-05
0.000108426
0.000119799
0.000131819
0.000144502
0.000157867
0.000171932
0.000186718
0.000202246
0.000218539
0.00023562
0.000253515
0.00027225
0.000291853
0.000312353
0.000333781
0.000356169
0.00037955
0.000403959
0.000429432
0.000456007
0.000483722
0.000512617
0.000542732
0.000574109
0.00060679
0.000640816
0.000676229
0.000713068
0.000751373
0.000791185
0.000832549
0.000875535
0.00092029
0.000967113
0.00101651
0.00106975
0.00113022
0.00119251
-2.13352e-06
-3.06849e-06
-2.6872e-06
-2.10067e-06
-9.60857e-07
6.56498e-07
2.75385e-06
5.33723e-06
8.41063e-06
1.19784e-05
1.60457e-05
2.06178e-05
2.5701e-05
3.13019e-05
3.74281e-05
4.40876e-05
5.12894e-05
5.90432e-05
6.73594e-05
7.62491e-05
8.57245e-05
9.57982e-05
0.000106484
0.000117797
0.000129752
0.000142367
0.000155659
0.000169646
0.00018435
0.000199791
0.000215992
0.000232976
0.000250768
0.000269395
0.000288885
0.000309266
0.00033057
0.000352828
0.000376074
0.000400344
0.000425672
0.000452099
0.000479662
0.000508403
0.000538364
0.000569588
0.00060212
0.000636007
0.000671297
0.000708038
0.000746285
0.000786099
0.000827557
0.000870768
0.000915909
0.00096326
0.00101329
0.00106699
0.0011254
0.00118727
-4.13208e-06
-5.09473e-06
-4.71253e-06
-4.13438e-06
-3.00078e-06
-1.39227e-06
6.93242e-07
3.26158e-06
6.31659e-06
9.86262e-06
1.39047e-05
1.84482e-05
2.34993e-05
2.90646e-05
3.51516e-05
4.17684e-05
4.89237e-05
5.6627e-05
6.48888e-05
7.37199e-05
8.31323e-05
9.31387e-05
0.000103753
0.000114989
0.000126862
0.00013939
0.00015259
0.00016648
0.00018108
0.000196412
0.000212497
0.000229359
0.000247022
0.000265514
0.000284862
0.000305095
0.000326243
0.000348339
0.000371416
0.00039551
0.000420657
0.000446896
0.000474268
0.000502813
0.000532577
0.000563604
0.000595942
0.000629642
0.000664756
0.000701342
0.000739464
0.0007792
0.000820641
0.000863917
0.000909205
0.000956753
0.00100693
0.00106027
0.00111707
0.00117717
-6.77153e-06
-7.74644e-06
-7.36677e-06
-6.79795e-06
-5.67405e-06
-4.07833e-06
-2.00891e-06
5.39786e-07
3.5714e-06
7.09018e-06
1.1101e-05
1.56093e-05
2.06211e-05
2.6143e-05
3.21823e-05
3.8747e-05
4.58457e-05
5.34878e-05
6.16835e-05
7.04436e-05
7.97798e-05
8.97046e-05
0.000100232
0.000111375
0.00012315
0.000135573
0.000148662
0.000162434
0.00017691
0.00019211
0.000208056
0.000224771
0.00024228
0.00026061
0.000279787
0.000299841
0.000320802
0.000342703
0.000365577
0.00038946
0.000414389
0.000440402
0.000467542
0.00049585
0.000525371
0.000556154
0.000588248
0.000621705
0.000656583
0.000692943
0.000730854
0.000770398
0.00081167
0.00085479
0.000899911
0.000947225
0.000996981
0.00104944
0.00110467
0.00116258
-1.00476e-05
-1.10278e-05
-1.0653e-05
-1.00944e-05
-8.98297e-06
-7.40347e-06
-5.35406e-06
-2.82943e-06
1.73889e-07
3.65998e-06
7.63362e-06
1.21001e-05
1.70654e-05
2.2536e-05
2.85191e-05
3.50225e-05
4.20547e-05
4.96249e-05
5.7743e-05
6.64198e-05
7.56666e-05
8.5496e-05
9.59211e-05
0.000106956
0.000118616
0.000130917
0.000143876
0.00015751
0.000171841
0.000186887
0.00020267
0.000219214
0.000236543
0.000254684
0.000273662
0.000293508
0.000314252
0.000335925
0.000358562
0.000382198
0.00040687
0.000432619
0.000459485
0.000487512
0.000516746
0.000547237
0.000579034
0.000612193
0.000646772
0.000682834
0.00072045
0.0007597
0.000800674
0.000843479
0.000888237
0.000935089
0.000984186
0.00103564
0.00108944
0.00114541
-1.3954e-05
-1.49368e-05
-1.45684e-05
-1.40209e-05
-1.29245e-05
-1.13642e-05
-9.33848e-06
-6.84213e-06
-3.8719e-06
-4.2384e-07
3.5067e-06
7.92494e-06
1.28367e-05
1.82482e-05
2.41667e-05
3.05997e-05
3.75556e-05
4.50433e-05
5.30725e-05
6.16538e-05
7.07984e-05
8.05184e-05
9.0827e-05
0.000101738
0.000113266
0.000125427
0.000138238
0.000151715
0.00016588
0.00018075
0.000196348
0.000212697
0.000229821
0.000247745
0.000266497
0.000286105
0.0003066
0.000328013
0.000350378
0.000373731
0.00039811
0.000423554
0.000450105
0.000477808
0.000506709
0.000536858
0.000568306
0.00060111
0.000635328
0.000671025
0.00070827
0.000747138
0.000787713
0.000830087
0.000874357
0.000920623
0.000968972
0.00101944
0.00107198
0.00112641
-1.84848e-05
-1.9469e-05
-1.91083e-05
-1.85732e-05
-1.74939e-05
-1.59557e-05
-1.39571e-05
-1.14931e-05
-8.56062e-06
-5.15582e-06
-1.27417e-06
3.08939e-06
7.94052e-06
1.32855e-05
1.9131e-05
2.54847e-05
3.23545e-05
3.97493e-05
4.76785e-05
5.61523e-05
6.51819e-05
7.47792e-05
8.49568e-05
9.57284e-05
0.000107108
0.000119112
0.000131756
0.000145058
0.000159035
0.000173709
0.000189099
0.000205229
0.000222122
0.000239804
0.000258301
0.000277642
0.000297857
0.000318977
0.000341037
0.000364071
0.000388118
0.000413218
0.000439413
0.000466748
0.000495269
0.000525028
0.000556076
0.000588469
0.000622268
0.000657536
0.00069434
0.000732753
0.00077285
0.000814711
0.000858414
0.000904032
0.000951617
0.00100117
0.00105264
0.00110585
-2.36341e-05
-2.46193e-05
-2.42674e-05
-2.3746e-05
-2.26858e-05
-2.11724e-05
-1.92043e-05
-1.67767e-05
-1.38865e-05
-1.053e-05
-6.70296e-06
-2.40036e-06
2.3833e-06
7.65408e-06
1.34186e-05
1.96841e-05
2.64584e-05
3.375e-05
4.15682e-05
4.99229e-05
5.8825e-05
6.8286e-05
7.83185e-05
8.89357e-05
0.000100152
0.000111982
0.000124441
0.000137547
0.000151318
0.000165773
0.000180933
0.00019682
0.000213458
0.000230871
0.000249086
0.00026813
0.000288035
0.00030883
0.00033055
0.000353229
0.000376907
0.000401624
0.000427421
0.000454343
0.000482439
0.000511759
0.000542355
0.000574285
0.000607609
0.000642388
0.00067869
0.000716583
0.000756139
0.000797428
0.000840517
0.000885461
0.000932297
0.000981019
0.00103157
0.00108381
-2.93957e-05
-3.03819e-05
-3.00397e-05
-2.95332e-05
-2.84943e-05
-2.70084e-05
-2.5074e-05
-2.26865e-05
-1.98429e-05
-1.65399e-05
-1.2773e-05
-8.53747e-06
-3.82804e-06
1.36119e-06
7.03664e-06
1.32053e-05
1.98747e-05
2.70531e-05
3.47495e-05
4.29736e-05
5.17359e-05
6.10477e-05
7.09211e-05
8.13691e-05
9.24054e-05
0.000104044
0.000116302
0.000129194
0.000142738
0.000156954
0.000171862
0.000187483
0.00020384
0.000220959
0.000238864
0.000257583
0.000277146
0.000297584
0.00031893
0.000341219
0.000364491
0.000388784
0.000414141
0.000440608
0.000468232
0.000497064
0.000527159
0.000558573
0.000591367
0.000625602
0.000661345
0.000698664
0.000737625
0.000778295
0.000820736
0.000864995
0.000911104
0.000959058
0.00100881
0.00106027
-3.57629e-05
-3.675e-05
-3.64184e-05
-3.59283e-05
-3.49127e-05
-3.34567e-05
-3.15592e-05
-2.92156e-05
-2.6423e-05
-2.31781e-05
-1.94768e-05
-1.53145e-05
-1.06859e-05
-5.58543e-06
-6.91451e-09
6.05637e-06
1.26117e-05
1.96671e-05
2.72312e-05
3.53134e-05
4.39239e-05
5.30737e-05
6.27745e-05
7.30387e-05
8.38798e-05
9.53117e-05
0.000107349
0.000120009
0.000133308
0.000147264
0.000161898
0.00017723
0.000193283
0.000210081
0.000227649
0.000246014
0.000265205
0.000285254
0.000306192
0.000328056
0.000350883
0.000374713
0.000399589
0.000425556
0.000452662
0.00048096
0.000510503
0.000541349
0.000573559
0.000607197
0.000642327
0.000679017
0.000717335
0.000757346
0.00079911
0.000842674
0.000888072
0.00093531
0.000984363
0.00103517
-4.27285e-05
-4.37166e-05
-4.33965e-05
-4.2924e-05
-4.19335e-05
-4.05101e-05
-3.86525e-05
-3.63563e-05
-3.36189e-05
-3.0437e-05
-2.68066e-05
-2.27232e-05
-1.8182e-05
-1.31773e-05
-7.70346e-06
-1.75384e-06
4.67852e-06
1.16013e-05
1.90228e-05
2.69521e-05
3.53991e-05
4.43744e-05
5.38892e-05
6.39556e-05
7.45864e-05
8.57951e-05
9.75964e-05
0.000110006
0.000123039
0.000136716
0.000151054
0.000166075
0.000181799
0.000198251
0.000215456
0.000233438
0.000252228
0.000271855
0.000292353
0.000313755
0.0003361
0.000359428
0.00038378
0.000409203
0.000435746
0.00046346
0.000492401
0.000522628
0.000554201
0.000587186
0.000621649
0.00065766
0.000695287
0.000734596
0.000775651
0.000818505
0.000863197
0.000909748
0.000958153
0.00100838
-5.02848e-05
-5.12737e-05
-5.09659e-05
-5.05124e-05
-4.9549e-05
-4.81604e-05
-4.63458e-05
-4.41006e-05
-4.14224e-05
-3.8308e-05
-3.47537e-05
-3.0755e-05
-2.63074e-05
-2.14055e-05
-1.60437e-05
-1.02159e-05
-3.91524e-06
2.86552e-06
1.01344e-05
1.79002e-05
2.61723e-05
3.49608e-05
4.42767e-05
5.41314e-05
6.45373e-05
7.55073e-05
8.70555e-05
9.91967e-05
0.000111947
0.000125324
0.000139346
0.000154033
0.000169406
0.000185487
0.000202301
0.000219873
0.000238232
0.000257407
0.000277429
0.000298335
0.000320161
0.000342946
0.000366733
0.000391568
0.0004175
0.000444582
0.000472869
0.000502423
0.000533304
0.000565581
0.000599322
0.000634598
0.000671482
0.000710044
0.000750352
0.000792468
0.000836442
0.000882311
0.000930094
0.000979789
-5.84233e-05
-5.9413e-05
-5.91184e-05
-5.8685e-05
-5.77505e-05
-5.63992e-05
-5.46303e-05
-5.24395e-05
-4.98245e-05
-4.67821e-05
-4.33088e-05
-3.94005e-05
-3.50526e-05
-3.02601e-05
-2.50178e-05
-1.93196e-05
-1.31592e-05
-6.5295e-06
5.77075e-07
8.16889e-06
1.6255e-05
2.4845e-05
3.39493e-05
4.3579e-05
5.37456e-05
6.44617e-05
7.57407e-05
8.7597e-05
0.000100046
0.000113104
0.00012679
0.000141121
0.000156119
0.000171806
0.000188203
0.000205337
0.000223235
0.000241926
0.000261441
0.000281815
0.000303083
0.000325286
0.000348465
0.000372667
0.000397941
0.000424341
0.000451922
0.000480748
0.000510881
0.000542391
0.00057535
0.000609833
0.000645916
0.000683676
0.000723189
0.000764526
0.000807752
0.000852921
0.000900075
0.000949241
-6.71351e-05
-6.81256e-05
-6.78449e-05
-6.74329e-05
-6.6529e-05
-6.52173e-05
-6.3497e-05
-6.13638e-05
-5.88157e-05
-5.58497e-05
-5.24623e-05
-4.86496e-05
-4.44074e-05
-3.97309e-05
-3.4615e-05
-2.90542e-05
-2.30422e-05
-1.65724e-05
-9.63763e-06
-2.22984e-06
5.65948e-06
1.40395e-05
2.29201e-05
3.23116e-05
4.22252e-05
5.26727e-05
6.3667e-05
7.52218e-05
8.73518e-05
0.000100073
0.000113402
0.000127357
0.000141958
0.000157224
0.00017318
0.000189849
0.000207257
0.000225434
0.000244408
0.000264215
0.000284889
0.000306469
0.000328998
0.000352521
0.000377089
0.000402755
0.000429576
0.000457616
0.000486941
0.000517622
0.000549735
0.000583359
0.000618576
0.000655471
0.000694127
0.000734629
0.000777056
0.000821481
0.00086797
0.000916577
-7.64108e-05
-7.74018e-05
-7.71358e-05
-7.67464e-05
-7.58748e-05
-7.46049e-05
-7.29358e-05
-7.08635e-05
-6.8386e-05
-6.55004e-05
-6.22036e-05
-5.84919e-05
-5.43611e-05
-4.98069e-05
-4.48243e-05
-3.94081e-05
-3.35526e-05
-2.72513e-05
-2.04974e-05
-1.32833e-05
-5.60116e-06
2.55781e-06
1.12028e-05
2.03436e-05
2.99907e-05
4.01555e-05
5.085e-05
6.20873e-05
7.38813e-05
8.6247e-05
9.92003e-05
0.000112758
0.00012694
0.000141764
0.000157253
0.00017343
0.000190321
0.000207952
0.000226353
0.000245558
0.0002656
0.000286517
0.000308353
0.000331152
0.000354964
0.000379843
0.000405848
0.000433043
0.000461496
0.000491281
0.000522478
0.00055517
0.000589447
0.0006254
0.000663124
0.000702717
0.000744272
0.000787885
0.000833644
0.000881631
-8.62404e-05
-8.72317e-05
-8.69812e-05
-8.66154e-05
-8.57778e-05
-8.45517e-05
-8.29364e-05
-8.09281e-05
-7.85246e-05
-7.57236e-05
-7.25219e-05
-6.89161e-05
-6.49023e-05
-6.04764e-05
-5.56338e-05
-5.03694e-05
-4.46779e-05
-3.85533e-05
-3.19891e-05
-2.49782e-05
-1.75132e-05
-9.58603e-06
-1.18802e-06
7.68999e-06
1.70579e-05
2.69262e-05
3.73065e-05
4.82109e-05
5.96525e-05
7.16453e-05
8.42042e-05
9.73453e-05
0.000111086
0.000125445
0.000140443
0.000156103
0.000172448
0.000189504
0.0002073
0.000225868
0.000245241
0.000265456
0.000286555
0.000308582
0.000331588
0.000355626
0.000380756
0.000407043
0.000434557
0.000463374
0.000493579
0.000525259
0.00055851
0.000593434
0.000630136
0.000668726
0.000709316
0.000752021
0.000796954
0.000844228
-9.66132e-05
-9.76046e-05
-9.73702e-05
-9.70291e-05
-9.62271e-05
-9.50469e-05
-9.34879e-05
-9.15464e-05
-8.92205e-05
-8.65079e-05
-8.34056e-05
-7.99105e-05
-7.60191e-05
-7.17273e-05
-6.70309e-05
-6.19253e-05
-5.64053e-05
-5.04652e-05
-4.40992e-05
-3.73005e-05
-3.00623e-05
-2.23772e-05
-1.4237e-05
-5.63344e-06
3.44286e-06
1.30018e-05
2.30539e-05
3.36107e-05
4.46841e-05
5.62872e-05
6.84337e-05
8.11387e-05
9.44184e-05
0.000108291
0.000122775
0.000137891
0.000153663
0.000170116
0.000187276
0.000205172
0.000223839
0.000243312
0.00026363
0.000284839
0.000306988
0.000330129
0.000354324
0.000379636
0.000406139
0.000433912
0.00046304
0.000493619
0.00052575
0.000559543
0.000595116
0.000632591
0.000672099
0.000713775
0.000757758
0.00080419
-0.000107518
-0.000108509
-0.000108292
-0.000107976
-0.000107211
-0.000106079
-0.000104579
-0.000102707
-0.000100462
-9.78412e-05
-9.48425e-05
-9.14629e-05
-8.76988e-05
-8.35468e-05
-7.90028e-05
-7.40625e-05
-6.8721e-05
-6.29731e-05
-5.68132e-05
-5.02355e-05
-4.32333e-05
-3.58001e-05
-2.79283e-05
-1.96102e-05
-1.08372e-05
-1.60023e-06
8.11054e-06
1.83055e-05
2.89957e-05
4.01929e-05
5.19099e-05
6.41605e-05
7.69597e-05
9.0324e-05
0.000104271
0.000118821
0.000133994
0.000149814
0.000166307
0.000183499
0.000201423
0.000220114
0.000239609
0.000259952
0.000281191
0.000303379
0.000326575
0.000350845
0.000376262
0.000402907
0.00043087
0.000460249
0.000491154
0.000523702
0.000558021
0.000594249
0.000632534
0.000673032
0.000715909
0.000761337
-0.000118944
-0.000119934
-0.000119734
-0.000119445
-0.000118719
-0.000117636
-0.000116197
-0.000114397
-0.000112236
-0.000109711
-0.00010682
-0.00010356
-9.99286e-05
-9.59216e-05
-9.15358e-05
-8.6767e-05
-8.16107e-05
-7.60623e-05
-7.01164e-05
-6.37678e-05
-5.70106e-05
-4.98385e-05
-4.22451e-05
-3.4223e-05
-2.57645e-05
-1.68613e-05
-7.50452e-06
2.3152e-06
1.26078e-05
2.33839e-05
3.46551e-05
4.64339e-05
5.8734e-05
7.15705e-05
8.49596e-05
9.89191e-05
0.000113468
0.000128629
0.000144424
0.00016088
0.000178026
0.000195896
0.000214525
0.000233955
0.000254232
0.000275408
0.000297541
0.000320697
0.000344949
0.000370379
0.00039708
0.000425154
0.000454715
0.000485889
0.000518815
0.000553644
0.000590541
0.000629685
0.000671267
0.000715491
-0.000130878
-0.000131867
-0.000131685
-0.000131424
-0.000130737
-0.000129706
-0.000128329
-0.000126605
-0.00012453
-0.000122105
-0.000119325
-0.000116189
-0.000112695
-0.000108838
-0.000104616
-0.000100024
-9.50598e-05
-8.97176e-05
-8.39932e-05
-7.78816e-05
-7.13776e-05
-6.44758e-05
-5.71701e-05
-4.9454e-05
-4.13205e-05
-3.27623e-05
-2.37714e-05
-1.43397e-05
-4.45818e-06
5.88244e-06
1.66925e-05
2.79831e-05
3.97667e-05
5.20565e-05
6.48671e-05
7.82144e-05
9.21158e-05
0.000106591
0.00012166
0.000137348
0.000153683
0.000170693
0.000188413
0.000206883
0.000226146
0.000246253
0.000267258
0.000289227
0.000312232
0.000336356
0.000361692
0.000388347
0.000416437
0.000446096
0.000477471
0.000510729
0.000546049
0.000583633
0.000623698
0.00066648
-0.000143307
-0.000144296
-0.000144132
-0.000143899
-0.000143253
-0.000142275
-0.000140964
-0.000139316
-0.000137332
-0.000135008
-0.000132344
-0.000129336
-0.000125983
-0.000122281
-0.000118228
-0.00011382
-0.000109053
-0.000103923
-9.84274e-05
-9.25603e-05
-8.63176e-05
-7.96943e-05
-7.26852e-05
-6.52845e-05
-5.74861e-05
-4.92834e-05
-4.06697e-05
-3.16378e-05
-2.21801e-05
-1.22884e-05
-1.95384e-06
8.83343e-06
2.00841e-05
3.18096e-05
4.40228e-05
5.67372e-05
6.99683e-05
8.37328e-05
9.80499e-05
0.000112941
0.00012843
0.000144544
0.000161316
0.00017878
0.000196977
0.000215955
0.000235767
0.000256475
0.00027815
0.000300873
0.000324738
0.000349851
0.000376333
0.000404323
0.000433977
0.000465471
0.000499002
0.000534791
0.000573082
0.000614143
-0.00015622
-0.000157206
-0.000157062
-0.000156857
-0.000156254
-0.00015533
-0.000154086
-0.000152518
-0.000150626
-0.000148407
-0.000145861
-0.000142986
-0.000139778
-0.000136236
-0.000132357
-0.000128137
-0.000123574
-0.000118664
-0.000113403
-0.000107787
-0.000101813
-9.54762e-05
-8.87721e-05
-8.16956e-05
-7.42414e-05
-6.64042e-05
-5.81781e-05
-4.95571e-05
-4.05349e-05
-3.11046e-05
-2.12587e-05
-1.09889e-05
-2.8625e-07
1.08588e-05
2.24569e-05
3.45195e-05
4.70594e-05
6.00909e-05
7.36304e-05
8.7696e-05
0.000102309
0.000117493
0.000133276
0.000149691
0.000166773
0.000184566
0.000203119
0.000222492
0.000242752
0.000263977
0.000286259
0.000309704
0.000334434
0.000360591
0.000388337
0.000417857
0.000449362
0.000483092
0.000519316
0.000558335
-0.000169601
-0.000170585
-0.00017046
-0.000170285
-0.000169725
-0.000168857
-0.000167682
-0.000166196
-0.000164398
-0.000162288
-0.000159864
-0.000157124
-0.000154066
-0.000150688
-0.000146987
-0.000142961
-0.000138607
-0.000133921
-0.000128901
-0.000123544
-0.000117846
-0.000111803
-0.000105411
-9.86673e-05
-9.15662e-05
-8.41035e-05
-7.62747e-05
-6.80749e-05
-5.9499e-05
-5.05415e-05
-4.11962e-05
-3.14566e-05
-2.13157e-05
-1.07659e-05
2.01141e-07
1.15945e-05
2.34243e-05
3.57022e-05
4.8441e-05
6.1656e-05
7.53642e-05
8.9586e-05
0.000104344
0.000119667
0.000135586
0.000152139
0.000169371
0.000187336
0.000206097
0.000225726
0.000246313
0.00026796
0.000290787
0.000314938
0.000340576
0.000367894
0.000397115
0.000428493
0.000462323
0.000498936
-0.000183437
-0.000184419
-0.000184313
-0.000184169
-0.000183652
-0.000182842
-0.000181737
-0.000180335
-0.000178635
-0.000176635
-0.000174336
-0.000171735
-0.00016883
-0.00016562
-0.000162102
-0.000158275
-0.000154134
-0.000149679
-0.000144906
-0.000139813
-0.000134397
-0.000128655
-0.000122584
-0.00011618
-0.000109439
-0.00010236
-9.49371e-05
-8.71678e-05
-7.90479e-05
-7.05733e-05
-6.17395e-05
-5.25417e-05
-4.29748e-05
-3.30334e-05
-2.27116e-05
-1.20028e-05
-8.99838e-07
1.06058e-05
2.25236e-05
3.48649e-05
4.76428e-05
6.08728e-05
7.45731e-05
8.87657e-05
0.000103477
0.000118739
0.00013459
0.000151077
0.000168256
0.000186194
0.000204973
0.000224689
0.00024546
0.000267424
0.000290746
0.000315621
0.000342278
0.000370987
0.000402059
0.000435856
-0.000197713
-0.000198692
-0.000198606
-0.000198492
-0.000198021
-0.000197269
-0.000196236
-0.00019492
-0.000193319
-0.000191434
-0.000189262
-0.000186803
-0.000184055
-0.000181017
-0.000177686
-0.000174061
-0.000170139
-0.00016592
-0.000161399
-0.000156576
-0.000151448
-0.000146013
-0.000140269
-0.000134211
-0.00012784
-0.000121151
-0.000114142
-0.000106812
-9.91567e-05
-9.11742e-05
-8.28614e-05
-7.42154e-05
-6.52332e-05
-5.59116e-05
-4.62473e-05
-3.62364e-05
-2.58748e-05
-1.51573e-05
-4.07816e-06
7.36974e-06
1.91948e-05
3.14073e-05
4.40198e-05
5.7048e-05
7.05117e-05
8.44355e-05
9.88503e-05
0.000113794
0.000129314
0.000145468
0.000162329
0.000179984
0.000198544
0.000218139
0.000238929
0.000261107
0.000284906
0.000310601
0.000338521
0.000369051
-0.000212415
-0.00021339
-0.000213325
-0.000213242
-0.000212816
-0.000212124
-0.000211165
-0.000209936
-0.000208437
-0.000206667
-0.000204625
-0.000202311
-0.000199724
-0.00019686
-0.000193721
-0.000190302
-0.000186604
-0.000182625
-0.000178362
-0.000173814
-0.00016898
-0.000163858
-0.000158446
-0.000152742
-0.000146745
-0.000140454
-0.000133867
-0.000126982
-0.0001198
-0.000112317
-0.000104534
-9.64481e-05
-8.80597e-05
-7.93676e-05
-7.03711e-05
-6.10692e-05
-5.14608e-05
-4.15446e-05
-3.13187e-05
-2.07806e-05
-9.92705e-06
1.24647e-06
1.27462e-05
2.45808e-05
3.67624e-05
4.9307e-05
6.22358e-05
7.55766e-05
8.93656e-05
0.00010365
0.000118488
0.000133958
0.000150155
0.000167199
0.00018524
0.000204462
0.000225095
0.000247414
0.000271758
0.000298528
-0.000227527
-0.000228497
-0.000228452
-0.000228401
-0.000228022
-0.00022739
-0.000226506
-0.000225366
-0.00022397
-0.000222319
-0.00022041
-0.000218244
-0.000215819
-0.000213134
-0.000210189
-0.000206982
-0.000203511
-0.000199775
-0.000195775
-0.000191507
-0.000186972
-0.000182168
-0.000177094
-0.00017175
-0.000166134
-0.000160246
-0.000154087
-0.000147655
-0.000140951
-0.000133975
-0.000126728
-0.00011921
-0.000111423
-0.000103368
-9.50473e-05
-8.6463e-05
-7.76172e-05
-6.85124e-05
-5.91509e-05
-4.95352e-05
-3.96676e-05
-2.95498e-05
-1.91825e-05
-8.56474e-06
2.3067e-06
1.3438e-05
2.48393e-05
3.65263e-05
4.85219e-05
6.08585e-05
7.35805e-05
8.67475e-05
0.000100438
0.000114756
0.000129833
0.00014584
0.000162993
0.000181561
0.000201881
0.000224363
-0.000243033
-0.000243997
-0.000243974
-0.000243954
-0.000243622
-0.000243052
-0.000242244
-0.000241195
-0.000239904
-0.000238372
-0.000236599
-0.000234583
-0.000232324
-0.000229821
-0.000227073
-0.00022408
-0.00022084
-0.000217354
-0.000213619
-0.000209636
-0.000205405
-0.000200923
-0.000196193
-0.000191212
-0.000185982
-0.000180504
-0.000174777
-0.000168804
-0.000162584
-0.000156121
-0.000149415
-0.000142471
-0.00013529
-0.000127879
-0.00012024
-0.000112379
-0.000104303
-9.6016e-05
-8.75265e-05
-7.88418e-05
-6.99699e-05
-6.09192e-05
-5.16978e-05
-4.23134e-05
-3.27726e-05
-2.30802e-05
-1.32386e-05
-3.24604e-06
6.90493e-06
1.72293e-05
2.77523e-05
3.85126e-05
4.95666e-05
6.0994e-05
7.29041e-05
8.54434e-05
9.88057e-05
0.000113243
0.000129077
0.000146716
-0.000258917
-0.000259875
-0.000259872
-0.000259885
-0.000259601
-0.000259093
-0.000258362
-0.000257405
-0.000256221
-0.000254811
-0.000253175
-0.000251311
-0.000249221
-0.000246902
-0.000244355
-0.000241579
-0.000238574
-0.00023534
-0.000231875
-0.000228181
-0.000224257
-0.000220103
-0.000215719
-0.000211108
-0.000206269
-0.000201204
-0.000195915
-0.000190404
-0.000184673
-0.000178726
-0.000172566
-0.000166199
-0.00015963
-0.000152865
-0.000145912
-0.000138779
-0.000131475
-0.00012401
-0.000116397
-0.000108647
-0.000100776
-9.27975e-05
-8.4729e-05
-7.65869e-05
-6.83885e-05
-6.01508e-05
-5.18899e-05
-4.36197e-05
-3.53507e-05
-2.70882e-05
-1.88297e-05
-1.0562e-05
-2.25639e-06
6.13657e-06
1.4694e-05
2.35293e-05
3.28029e-05
4.27346e-05
5.36187e-05
6.58421e-05
-0.000275162
-0.000276113
-0.000276132
-0.000276176
-0.000275941
-0.000275497
-0.000274843
-0.000273979
-0.000272903
-0.000271617
-0.00027012
-0.000268411
-0.000266491
-0.000264359
-0.000262016
-0.00025946
-0.000256693
-0.000253714
-0.000250523
-0.000247121
-0.000243508
-0.000239685
-0.000235653
-0.000231414
-0.000226969
-0.000222322
-0.000217474
-0.000212429
-0.00020719
-0.000201763
-0.000196152
-0.000190365
-0.00018441
-0.000178294
-0.000172028
-0.000165623
-0.000159092
-0.00015245
-0.000145712
-0.000138897
-0.000132025
-0.00012512
-0.000118204
-0.000111305
-0.000104451
-9.76727e-05
-9.10007e-05
-8.44664e-05
-7.81002e-05
-7.19305e-05
-6.59812e-05
-6.02688e-05
-5.47984e-05
-4.95578e-05
-4.45109e-05
-3.95885e-05
-3.46769e-05
-2.96041e-05
-2.4122e-05
-1.78845e-05
-0.000291751
-0.000292695
-0.000292735
-0.000292812
-0.000292625
-0.000292245
-0.00029167
-0.0002909
-0.000289934
-0.000288773
-0.000287416
-0.000285864
-0.000284117
-0.000282174
-0.000280037
-0.000277705
-0.000275178
-0.000272457
-0.000269543
-0.000266436
-0.000263137
-0.000259648
-0.000255971
-0.000252107
-0.00024806
-0.000243833
-0.000239429
-0.000234853
-0.000230109
-0.000225204
-0.000220144
-0.000214939
-0.000209597
-0.00020413
-0.000198551
-0.000192873
-0.000187114
-0.00018129
-0.000175424
-0.000169539
-0.000163661
-0.00015782
-0.000152049
-0.000146385
-0.000140868
-0.000135542
-0.000130453
-0.000125652
-0.00012119
-0.000117123
-0.000113502
-0.00011038
-0.0001078
-0.000105794
-0.000104378
-0.000103538
-0.000103222
-0.000103324
-0.000103663
-0.000103959
-0.000308668
-0.000309603
-0.000309664
-0.000309774
-0.000309636
-0.00030932
-0.000308825
-0.00030815
-0.000307295
-0.00030626
-0.000305046
-0.000303652
-0.000302079
-0.000300328
-0.000298399
-0.000296292
-0.000294008
-0.000291548
-0.000288913
-0.000286104
-0.000283123
-0.00027997
-0.00027665
-0.000273165
-0.000269518
-0.000265714
-0.000261756
-0.00025765
-0.000253403
-0.00024902
-0.000244512
-0.000239888
-0.00023516
-0.000230341
-0.000225446
-0.000220492
-0.000215498
-0.000210487
-0.000205485
-0.00020052
-0.000195624
-0.000190835
-0.000186194
-0.000181748
-0.000177549
-0.000173655
-0.000170128
-0.000167039
-0.000164463
-0.000162482
-0.000161181
-0.00016065
-0.000160977
-0.000162247
-0.000164533
-0.000167891
-0.000172347
-0.00017788
-0.000184402
-0.000191731
-0.000325894
-0.000326819
-0.000326902
-0.000327044
-0.000326956
-0.000326705
-0.000326291
-0.000325712
-0.000324968
-0.000324061
-0.00032299
-0.000321756
-0.00032036
-0.000318802
-0.000317082
-0.000315203
-0.000313165
-0.000310968
-0.000308614
-0.000306105
-0.000303443
-0.00030063
-0.00029767
-0.000294565
-0.00029132
-0.00028794
-0.00028443
-0.000280796
-0.000277045
-0.000273186
-0.000269229
-0.000265185
-0.000261068
-0.000256893
-0.000252677
-0.000248441
-0.000244206
-0.000239998
-0.000235848
-0.000231789
-0.000227859
-0.000224102
-0.000220569
-0.000217315
-0.000214404
-0.000211908
-0.000209906
-0.00020849
-0.000207758
-0.000207821
-0.000208798
-0.000210822
-0.000214028
-0.00021856
-0.000224561
-0.000232166
-0.000241495
-0.000252634
-0.000265615
-0.000280388
-0.000343411
-0.000344327
-0.000344431
-0.000344605
-0.000344566
-0.000344381
-0.000344048
-0.000343565
-0.000342935
-0.000342156
-0.00034123
-0.000340157
-0.000338939
-0.000337575
-0.000336068
-0.000334418
-0.000332626
-0.000330695
-0.000328624
-0.000326418
-0.000324077
-0.000321605
-0.000319006
-0.000316283
-0.000313442
-0.000310488
-0.000307426
-0.000304263
-0.000301009
-0.000297672
-0.000294265
-0.000290799
-0.00028729
-0.000283755
-0.000280212
-0.000276685
-0.000273199
-0.000269783
-0.00026647
-0.000263299
-0.000260313
-0.000257563
-0.000255107
-0.000253009
-0.000251346
-0.000250203
-0.000249674
-0.000249872
-0.000250918
-0.000252954
-0.000256135
-0.000260634
-0.000266642
-0.000274364
-0.00028402
-0.000295839
-0.000310047
-0.00032686
-0.000346457
-0.00036896
-0.000361201
-0.000362106
-0.000362231
-0.000362438
-0.000362449
-0.000362329
-0.000362078
-0.000361693
-0.000361176
-0.000360527
-0.000359746
-0.000358836
-0.000357797
-0.000356629
-0.000355335
-0.000353916
-0.000352373
-0.000350708
-0.000348923
-0.00034702
-0.000345002
-0.000342873
-0.000340636
-0.000338297
-0.00033586
-0.000333331
-0.000330718
-0.000328028
-0.000325269
-0.000322454
-0.000319593
-0.000316702
-0.000313797
-0.000310895
-0.000308019
-0.000305192
-0.000302442
-0.000299802
-0.000297309
-0.000295004
-0.000292936
-0.000291163
-0.000289747
-0.000288764
-0.000288298
-0.000288448
-0.000289325
-0.000291058
-0.000293795
-0.000297703
-0.000302976
-0.000309829
-0.000318506
-0.00032928
-0.000342454
-0.000358355
-0.000377334
-0.000399753
-0.000425971
-0.000456317
-0.000379247
-0.000380139
-0.000380286
-0.000380524
-0.000380586
-0.000380532
-0.000380363
-0.000380076
-0.000379673
-0.000379154
-0.00037852
-0.000377773
-0.000376914
-0.000375944
-0.000374864
-0.000373677
-0.000372384
-0.000370987
-0.000369488
-0.00036789
-0.000366196
-0.00036441
-0.000362537
-0.000360582
-0.00035855
-0.000356448
-0.000354283
-0.000352064
-0.0003498
-0.000347503
-0.000345187
-0.000342867
-0.000340559
-0.000338284
-0.000336065
-0.000333927
-0.000331901
-0.000330021
-0.000328327
-0.000326864
-0.000325685
-0.000324852
-0.000324435
-0.000324516
-0.000325189
-0.000326562
-0.000328763
-0.000331936
-0.000336252
-0.000341905
-0.000349122
-0.000358161
-0.00036932
-0.000382939
-0.000399405
-0.000419152
-0.000442661
-0.00047046
-0.000503111
-0.000541189
-0.000397528
-0.000398408
-0.000398576
-0.000398846
-0.000398958
-0.00039897
-0.000398883
-0.000398694
-0.000398406
-0.000398018
-0.000397532
-0.000396949
-0.000396271
-0.000395498
-0.000394634
-0.00039368
-0.000392638
-0.00039151
-0.000390298
-0.000389006
-0.000387637
-0.000386196
-0.000384687
-0.000383116
-0.000381489
-0.000379813
-0.000378096
-0.000376346
-0.000374576
-0.000372796
-0.00037102
-0.000369266
-0.000367551
-0.000365895
-0.000364323