/*--------------------------------*- C++ -*----------------------------------*\
  =========                 |
  \\      /  F ield         | OpenFOAM: The Open Source CFD Toolbox
   \\    /   O peration     | Website:  https://openfoam.org
    \\  /    A nd           | Version:  8
     \\/     M anipulation  |
\*---------------------------------------------------------------------------*/
FoamFile
{
    version     2.0;
    format      ascii;
    class       volVectorField;
    location    "55";
    object      U;
}
// * * * * * * * * * * * * * * * * * * * * * * * * * * * * * * * * * * * * * //

dimensions      [0 1 -1 0 0 0 0];

internalField   nonuniform List<vector> 
11600
(
(8.63324e-07 -1.07618e-06 0)
(-3.88209e-05 1.3839e-05 0)
(-0.000118888 2.065e-05 0)
(-0.000204478 2.30266e-05 0)
(-0.000297007 2.33361e-05 0)
(-0.000389963 2.30878e-05 0)
(-0.000482943 2.28681e-05 0)
(-0.000575896 2.27681e-05 0)
(-0.000668892 2.27599e-05 0)
(-0.00076203 2.28075e-05 0)
(-0.000855385 2.28875e-05 0)
(-0.00094901 2.29878e-05 0)
(-0.00104294 2.3103e-05 0)
(-0.00113722 2.32304e-05 0)
(-0.00123187 2.33689e-05 0)
(-0.00132691 2.35176e-05 0)
(-0.00142237 2.36762e-05 0)
(-0.00151827 2.38442e-05 0)
(-0.00161462 2.40214e-05 0)
(-0.00171146 2.42073e-05 0)
(-0.00180879 2.44018e-05 0)
(-0.00190662 2.46044e-05 0)
(-0.00200498 2.48148e-05 0)
(-0.00210385 2.50326e-05 0)
(-0.00220327 2.52575e-05 0)
(-0.00230322 2.5489e-05 0)
(-0.0024037 2.57266e-05 0)
(-0.00250473 2.597e-05 0)
(-0.00260629 2.62185e-05 0)
(-0.00270838 2.64716e-05 0)
(-0.00281099 2.67286e-05 0)
(-0.0029141 2.69889e-05 0)
(-0.0030177 2.72516e-05 0)
(-0.00312177 2.7516e-05 0)
(-0.00322628 2.77808e-05 0)
(-0.00333122 2.8045e-05 0)
(-0.00343655 2.83069e-05 0)
(-0.00354224 2.8565e-05 0)
(-0.00364825 2.88168e-05 0)
(-0.00375455 2.90595e-05 0)
(-0.00386109 2.92892e-05 0)
(-0.00396782 2.95008e-05 0)
(-0.00407468 2.96867e-05 0)
(-0.00418161 2.98361e-05 0)
(-0.00428853 2.99323e-05 0)
(-0.00439532 2.99481e-05 0)
(-0.00450183 2.98373e-05 0)
(-0.00460781 2.95156e-05 0)
(-0.00471284 2.8822e-05 0)
(-0.00481618 2.74368e-05 0)
(-0.00491651 2.47195e-05 0)
(-0.00501144 1.94453e-05 0)
(-0.00509677 9.47921e-06 0)
(-0.00516558 -8.67549e-06 0)
(-0.00521573 -4.00659e-05 0)
(-0.00526212 -7.94612e-05 0)
(-0.00520255 -7.62214e-05 0)
(-0.00568201 -5.02178e-06 0)
(-0.00563389 0.00100156 0)
(-0.00956379 0.00337624 0)
(-1.49086e-05 3.90865e-05 0)
(-0.000113189 0.000110529 0)
(-0.000280146 0.000145185 0)
(-0.000458691 0.000159877 0)
(-0.000650635 0.000164739 0)
(-0.000845326 0.000165938 0)
(-0.00104109 0.000166166 0)
(-0.00123737 0.000166286 0)
(-0.00143398 0.000166504 0)
(-0.00163092 0.000166834 0)
(-0.00182825 0.000167254 0)
(-0.00202601 0.000167744 0)
(-0.00222425 0.00016829 0)
(-0.00242302 0.000168886 0)
(-0.00262236 0.000169525 0)
(-0.00282228 0.000170204 0)
(-0.00302283 0.000170918 0)
(-0.00322403 0.000171663 0)
(-0.00342589 0.000172437 0)
(-0.00362843 0.000173236 0)
(-0.00383166 0.000174056 0)
(-0.00403558 0.000174893 0)
(-0.0042402 0.000175742 0)
(-0.0044455 0.0001766 0)
(-0.00465149 0.000177463 0)
(-0.00485813 0.000178324 0)
(-0.00506542 0.00017918 0)
(-0.00527331 0.000180025 0)
(-0.00548177 0.000180853 0)
(-0.00569076 0.00018166 0)
(-0.00590024 0.000182441 0)
(-0.00611014 0.000183188 0)
(-0.00632041 0.000183897 0)
(-0.00653097 0.000184562 0)
(-0.00674176 0.000185177 0)
(-0.0069527 0.000185737 0)
(-0.00716371 0.000186237 0)
(-0.0073747 0.000186671 0)
(-0.0075856 0.000187034 0)
(-0.00779631 0.000187322 0)
(-0.00800677 0.000187529 0)
(-0.0082169 0.000187647 0)
(-0.00842663 0.000187668 0)
(-0.00863593 0.000187577 0)
(-0.00884476 0.00018735 0)
(-0.00905311 0.000186939 0)
(-0.00926101 0.000186259 0)
(-0.00946846 0.000185149 0)
(-0.00967554 0.000183301 0)
(-0.00988233 0.000180145 0)
(-0.0100891 0.000174695 0)
(-0.0102964 0.000165481 0)
(-0.0105066 0.000151013 0)
(-0.0107272 0.000131656 0)
(-0.010978 0.000115893 0)
(-0.0112925 0.000144529 0)
(-0.0117266 0.000329413 0)
(-0.0126152 0.000779564 0)
(-0.0134358 0.00235809 0)
(-0.0156468 0.0043718 0)
(-2.29708e-05 0.000122478 0)
(-0.000152671 0.000279258 0)
(-0.000366023 0.000356101 0)
(-0.000592585 0.000389907 0)
(-0.000835005 0.000402652 0)
(-0.00108093 0.000406894 0)
(-0.00132831 0.000408289 0)
(-0.0015764 0.000408966 0)
(-0.00182493 0.000409598 0)
(-0.00207384 0.000410348 0)
(-0.00232316 0.000411231 0)
(-0.00257294 0.000412233 0)
(-0.0028232 0.000413337 0)
(-0.003074 0.00041453 0)
(-0.00332534 0.000415802 0)
(-0.00357728 0.000417142 0)
(-0.00382981 0.000418542 0)
(-0.00408297 0.000419993 0)
(-0.00433676 0.000421486 0)
(-0.00459118 0.000423012 0)
(-0.00484625 0.000424561 0)
(-0.00510195 0.000426122 0)
(-0.00535826 0.000427686 0)
(-0.00561518 0.00042924 0)
(-0.00587267 0.000430774 0)
(-0.0061307 0.000432274 0)
(-0.00638923 0.000433729 0)
(-0.00664821 0.000435125 0)
(-0.00690759 0.000436449 0)
(-0.00716731 0.000437689 0)
(-0.00742728 0.000438831 0)
(-0.00768744 0.000439861 0)
(-0.0079477 0.000440768 0)
(-0.00820797 0.000441539 0)
(-0.00846815 0.000442164 0)
(-0.00872815 0.000442635 0)
(-0.00898787 0.000442943 0)
(-0.00924721 0.000443084 0)
(-0.00950608 0.000443059 0)
(-0.0097644 0.000442868 0)
(-0.0100221 0.000442521 0)
(-0.0102791 0.000442029 0)
(-0.0105355 0.000441412 0)
(-0.0107912 0.000440691 0)
(-0.0110464 0.000439892 0)
(-0.0113012 0.000439032 0)
(-0.011556 0.000438117 0)
(-0.0118113 0.000437112 0)
(-0.0120678 0.000435929 0)
(-0.0123267 0.000434437 0)
(-0.01259 0.000432641 0)
(-0.0128613 0.000431356 0)
(-0.0131471 0.000434142 0)
(-0.0134603 0.000452141 0)
(-0.0138227 0.000514908 0)
(-0.0142635 0.000688963 0)
(-0.0148258 0.00109182 0)
(-0.015589 0.00189568 0)
(-0.0161725 0.00349631 0)
(-0.0170881 0.00547036 0)
(-2.63439e-05 0.00021448 0)
(-0.000171389 0.000463925 0)
(-0.000407602 0.000584954 0)
(-0.00065677 0.000637811 0)
(-0.000922633 0.000658202 0)
(-0.00119207 0.000665367 0)
(-0.00146303 0.000667915 0)
(-0.0017348 0.000669162 0)
(-0.00200705 0.000670208 0)
(-0.0022797 0.000671353 0)
(-0.00255277 0.000672652 0)
(-0.00282626 0.0006741 0)
(-0.00310021 0.00067568 0)
(-0.00337465 0.000677377 0)
(-0.00364959 0.000679175 0)
(-0.00392506 0.000681062 0)
(-0.00420106 0.000683022 0)
(-0.00447762 0.000685042 0)
(-0.00475472 0.000687108 0)
(-0.00503238 0.000689205 0)
(-0.00531058 0.000691316 0)
(-0.00558931 0.000693426 0)
(-0.00586854 0.000695517 0)
(-0.00614825 0.00069757 0)
(-0.00642841 0.000699567 0)
(-0.00670896 0.000701489 0)
(-0.00698986 0.000703315 0)
(-0.00727106 0.000705024 0)
(-0.00755247 0.000706597 0)
(-0.00783403 0.000708011 0)
(-0.00811565 0.000709248 0)
(-0.00839725 0.000710287 0)
(-0.00867873 0.000711111 0)
(-0.00895999 0.000711703 0)
(-0.00924092 0.000712049 0)
(-0.00952142 0.00071214 0)
(-0.00980137 0.000711971 0)
(-0.0100807 0.000711543 0)
(-0.0103593 0.000710867 0)
(-0.010637 0.000709963 0)
(-0.0109139 0.000708865 0)
(-0.0111899 0.000707624 0)
(-0.0114651 0.000706311 0)
(-0.0117395 0.000705023 0)
(-0.0120133 0.000703891 0)
(-0.0122869 0.000703085 0)
(-0.0125609 0.000702825 0)
(-0.012836 0.00070341 0)
(-0.0131135 0.000705273 0)
(-0.0133956 0.000709135 0)
(-0.0136855 0.000716426 0)
(-0.0139882 0.000730286 0)
(-0.0143118 0.000757809 0)
(-0.0146677 0.000814651 0)
(-0.0150699 0.000933115 0)
(-0.015529 0.00117143 0)
(-0.0160437 0.00161649 0)
(-0.0165616 0.00238308 0)
(-0.0168552 0.00361549 0)
(-0.0169437 0.00498255 0)
(-2.72175e-05 0.000315309 0)
(-0.000178696 0.000664651 0)
(-0.000425194 0.000832373 0)
(-0.000684239 0.000905045 0)
(-0.000960287 0.00093335 0)
(-0.00123975 0.000943574 0)
(-0.00152068 0.000947366 0)
(-0.0018024 0.000949245 0)
(-0.0020846 0.000950741 0)
(-0.0023672 0.000952295 0)
(-0.00265019 0.000954009 0)
(-0.00293361 0.00095589 0)
(-0.00321746 0.000957926 0)
(-0.00350176 0.000960099 0)
(-0.00378654 0.00096239 0)
(-0.0040718 0.000964783 0)
(-0.00435756 0.000967259 0)
(-0.00464382 0.000969799 0)
(-0.00493058 0.000972382 0)
(-0.00521783 0.000974988 0)
(-0.00550557 0.000977594 0)
(-0.00579377 0.000980177 0)
(-0.0060824 0.000982714 0)
(-0.00637144 0.000985177 0)
(-0.00666084 0.000987541 0)
(-0.00695056 0.000989778 0)
(-0.00724053 0.000991861 0)
(-0.0075307 0.000993759 0)
(-0.00782099 0.000995446 0)
(-0.00811132 0.000996892 0)
(-0.0084016 0.000998069 0)
(-0.00869174 0.000998951 0)
(-0.00898163 0.000999515 0)
(-0.00927116 0.000999739 0)
(-0.00956022 0.000999607 0)
(-0.0098487 0.00099911 0)
(-0.0101365 0.000998246 0)
(-0.0104235 0.000997024 0)
(-0.0107095 0.000995467 0)
(-0.0109946 0.000993618 0)
(-0.0112787 0.000991542 0)
(-0.0115616 0.000989336 0)
(-0.0118435 0.000987137 0)
(-0.0121245 0.000985136 0)
(-0.0124047 0.000983596 0)
(-0.0126846 0.000982879 0)
(-0.0129646 0.000983492 0)
(-0.0132456 0.00098616 0)
(-0.013529 0.000991967 0)
(-0.0138166 0.00100263 0)
(-0.0141112 0.00102105 0)
(-0.014417 0.00105239 0)
(-0.0147392 0.00110604 0)
(-0.0150835 0.00119888 0)
(-0.0154533 0.00135963 0)
(-0.0158433 0.00163173 0)
(-0.0162281 0.00207092 0)
(-0.0165329 0.00273456 0)
(-0.0166194 0.00363629 0)
(-0.0164187 0.00459315 0)
(-2.71924e-05 0.000417564 0)
(-0.000180955 0.000869664 0)
(-0.000431598 0.00108494 0)
(-0.000694565 0.00117749 0)
(-0.000974681 0.00121356 0)
(-0.00125805 0.0012267 0)
(-0.00154281 0.00123165 0)
(-0.00182832 0.00123412 0)
(-0.00211429 0.00123605 0)
(-0.00240066 0.001238 0)
(-0.00268742 0.00124012 0)
(-0.0029746 0.00124242 0)
(-0.00326221 0.00124489 0)
(-0.00355027 0.00124752 0)
(-0.00383879 0.00125028 0)
(-0.00412778 0.00125315 0)
(-0.00441726 0.00125612 0)
(-0.00470723 0.00125914 0)
(-0.00499769 0.00126221 0)
(-0.00528862 0.00126528 0)
(-0.00558001 0.00126834 0)
(-0.00587186 0.00127136 0)
(-0.00616411 0.00127429 0)
(-0.00645675 0.00127712 0)
(-0.00674973 0.0012798 0)
(-0.007043 0.0012823 0)
(-0.0073365 0.00128458 0)
(-0.00763016 0.00128661 0)
(-0.00792391 0.00128834 0)
(-0.00821767 0.00128975 0)
(-0.00851134 0.00129079 0)
(-0.00880481 0.00129144 0)
(-0.00909799 0.00129166 0)
(-0.00939076 0.00129143 0)
(-0.009683 0.00129073 0)
(-0.00997458 0.00128954 0)
(-0.0102654 0.00128787 0)
(-0.0105553 0.00128573 0)
(-0.0108442 0.00128315 0)
(-0.0111319 0.00128021 0)
(-0.0114185 0.00127699 0)
(-0.0117038 0.00127363 0)
(-0.0119878 0.00127032 0)
(-0.0122706 0.00126734 0)
(-0.0125523 0.00126508 0)
(-0.0128332 0.00126405 0)
(-0.0131136 0.00126499 0)
(-0.0133942 0.00126895 0)
(-0.0136759 0.00127744 0)
(-0.01396 0.00129274 0)
(-0.0142481 0.00131839 0)
(-0.0145425 0.00135999 0)
(-0.014845 0.00142655 0)
(-0.0151559 0.00153225 0)
(-0.0154711 0.00169812 0)
(-0.0157766 0.0019519 0)
(-0.0160404 0.002324 0)
(-0.0161998 0.0028354 0)
(-0.0161719 0.00346258 0)
(-0.0158903 0.00410306 0)
(-2.69869e-05 0.00052011 0)
(-0.000181326 0.00107621 0)
(-0.000433332 0.00133943 0)
(-0.000697613 0.00145193 0)
(-0.000979143 0.00149569 0)
(-0.00126383 0.00151165 0)
(-0.00154986 0.00151771 0)
(-0.0018366 0.00152075 0)
(-0.0021238 0.00152309 0)
(-0.00241138 0.00152545 0)
(-0.00269937 0.00152797 0)
(-0.00298778 0.00153069 0)
(-0.00327664 0.00153361 0)
(-0.00356594 0.00153669 0)
(-0.00385573 0.00153993 0)
(-0.004146 0.00154328 0)
(-0.00443676 0.00154673 0)
(-0.00472802 0.00155024 0)
(-0.00501978 0.00155379 0)
(-0.00531203 0.00155734 0)
(-0.00560476 0.00156085 0)
(-0.00589795 0.0015643 0)
(-0.00619157 0.00156763 0)
(-0.00648558 0.00157082 0)
(-0.00677995 0.00157382 0)
(-0.00707462 0.00157657 0)
(-0.00736954 0.00157905 0)
(-0.00766463 0.0015812 0)
(-0.00795983 0.00158298 0)
(-0.00825504 0.00158435 0)
(-0.00855017 0.00158525 0)
(-0.00884511 0.00158564 0)
(-0.00913975 0.0015855 0)
(-0.00943398 0.00158478 0)
(-0.00972766 0.00158347 0)
(-0.0100207 0.00158154 0)
(-0.0103128 0.00157899 0)
(-0.010604 0.00157586 0)
(-0.0108942 0.00157216 0)
(-0.011183 0.00156799 0)
(-0.0114706 0.00156344 0)
(-0.0117566 0.0015587 0)
(-0.0120411 0.00155399 0)
(-0.012324 0.00154966 0)
(-0.0126053 0.00154615 0)
(-0.0128851 0.0015441 0)
(-0.0131636 0.00154439 0)
(-0.0134409 0.00154824 0)
(-0.0137175 0.00155738 0)
(-0.0139937 0.00157426 0)
(-0.0142701 0.00160248 0)
(-0.0145468 0.00164726 0)
(-0.0148228 0.0017162 0)
(-0.0150949 0.00181999 0)
(-0.0153552 0.00197258 0)
(-0.0155879 0.00218981 0)
(-0.0157641 0.00248521 0)
(-0.0158395 0.00286025 0)
(-0.0157642 0.0032864 0)
(-0.0154966 0.00370128 0)
(-2.67913e-05 0.000622522 0)
(-0.000181064 0.00128316 0)
(-0.000433279 0.00159451 0)
(-0.000697805 0.00172703 0)
(-0.000979655 0.00177847 0)
(-0.00126463 0.00179723 0)
(-0.00155092 0.00180436 0)
(-0.00183791 0.00180795 0)
(-0.00212534 0.00181071 0)
(-0.00241317 0.00181347 0)
(-0.00270141 0.00181641 0)
(-0.00299009 0.00181957 0)
(-0.00327923 0.00182294 0)
(-0.00356884 0.0018265 0)
(-0.00385894 0.00183022 0)
(-0.00414956 0.00183407 0)
(-0.00444069 0.00183803 0)
(-0.00473236 0.00184205 0)
(-0.00502454 0.0018461 0)
(-0.00531725 0.00185015 0)
(-0.00561046 0.00185414 0)
(-0.00590417 0.00185805 0)
(-0.00619834 0.00186181 0)
(-0.00649295 0.00186539 0)
(-0.00678795 0.00186873 0)
(-0.00708329 0.00187178 0)
(-0.00737891 0.00187448 0)
(-0.00767476 0.00187679 0)
(-0.00797074 0.00187864 0)
(-0.00826677 0.00187998 0)
(-0.00856276 0.00188076 0)
(-0.00885859 0.00188093 0)
(-0.00915415 0.00188043 0)
(-0.00944931 0.00187923 0)
(-0.00974394 0.0018773 0)
(-0.0100379 0.00187461 0)
(-0.010331 0.00187115 0)
(-0.0106231 0.00186695 0)
(-0.010914 0.00186205 0)
(-0.0112036 0.00185651 0)
(-0.0114916 0.00185046 0)
(-0.011778 0.00184407 0)
(-0.0120625 0.00183762 0)
(-0.012345 0.00183144 0)
(-0.0126254 0.00182604 0)
(-0.0129034 0.00182209 0)
(-0.0131791 0.0018205 0)
(-0.0134521 0.00182253 0)
(-0.0137224 0.00182986 0)
(-0.0139895 0.00184484 0)
(-0.0142529 0.00187066 0)
(-0.0145111 0.00191166 0)
(-0.0147616 0.00197359 0)
(-0.0149992 0.00206373 0)
(-0.0152151 0.00219041 0)
(-0.0153947 0.00236147 0)
(-0.0155156 0.00258089 0)
(-0.0155482 0.00284242 0)
(-0.0154629 0.00312182 0)
(-0.0152378 0.00337753 0)
(-2.66302e-05 0.000724642 0)
(-0.000180607 0.00148994 0)
(-0.000432571 0.00184952 0)
(-0.000696918 0.00200215 0)
(-0.000978648 0.00206128 0)
(-0.0012635 0.00208281 0)
(-0.00154966 0.00209101 0)
(-0.00183653 0.00209514 0)
(-0.00212383 0.00209833 0)
(-0.00241155 0.00210149 0)
(-0.00269969 0.00210486 0)
(-0.00298828 0.00210848 0)
(-0.00327735 0.00211233 0)
(-0.00356693 0.00211638 0)
(-0.00385702 0.00212062 0)
(-0.00414766 0.002125 0)
(-0.00443885 0.0021295 0)
(-0.0047306 0.00213406 0)
(-0.00502291 0.00213865 0)
(-0.00531578 0.00214323 0)
(-0.00560921 0.00214775 0)
(-0.00590317 0.00215215 0)
(-0.00619765 0.00215639 0)
(-0.00649261 0.0021604 0)
(-0.00678802 0.00216413 0)
(-0.00708382 0.00216752 0)
(-0.00737996 0.0021705 0)
(-0.00767638 0.00217301 0)
(-0.00797298 0.00217498 0)
(-0.0082697 0.00217635 0)
(-0.00856643 0.00217705 0)
(-0.00886305 0.00217702 0)
(-0.00915944 0.00217621 0)
(-0.00945547 0.00217455 0)
(-0.00975099 0.00217201 0)
(-0.0100458 0.00216856 0)
(-0.0103398 0.00216417 0)
(-0.0106328 0.00215886 0)
(-0.0109246 0.00215265 0)
(-0.0112149 0.00214561 0)
(-0.0115035 0.00213786 0)
(-0.0117902 0.00212957 0)
(-0.0120747 0.00212099 0)
(-0.0123568 0.00211246 0)
(-0.0126362 0.00210448 0)
(-0.0129125 0.00209768 0)
(-0.0131853 0.00209293 0)
(-0.0134541 0.00209138 0)
(-0.0137182 0.00209456 0)
(-0.0139768 0.00210446 0)
(-0.0142282 0.00212366 0)
(-0.0144703 0.00215545 0)
(-0.0146996 0.0022038 0)
(-0.0149105 0.00227322 0)
(-0.0150946 0.00236808 0)
(-0.0152397 0.00249132 0)
(-0.0153294 0.00264203 0)
(-0.0153446 0.00281181 0)
(-0.0152679 0.00298176 0)
(-0.0150887 0.00312344 0)
(-2.64909e-05 0.000826436 0)
(-0.000180082 0.00169635 0)
(-0.000431605 0.0021042 0)
(-0.000695594 0.00227698 0)
(-0.000977012 0.00234383 0)
(-0.00126157 0.00236816 0)
(-0.00154745 0.00237742 0)
(-0.00183403 0.0023821 0)
(-0.00212107 0.00238572 0)
(-0.00240853 0.00238931 0)
(-0.00269643 0.00239313 0)
(-0.0029848 0.00239722 0)
(-0.00327368 0.00240157 0)
(-0.0035631 0.00240616 0)
(-0.00385306 0.00241094 0)
(-0.00414361 0.00241589 0)
(-0.00443474 0.00242095 0)
(-0.00472648 0.0024261 0)
(-0.00501882 0.00243128 0)
(-0.00531178 0.00243644 0)
(-0.00560534 0.00244153 0)
(-0.00589949 0.00244648 0)
(-0.00619422 0.00245124 0)
(-0.00648948 0.00245575 0)
(-0.00678526 0.00245993 0)
(-0.0070815 0.00246371 0)
(-0.00737814 0.00246703 0)
(-0.00767513 0.0024698 0)
(-0.00797238 0.00247196 0)
(-0.00826981 0.00247342 0)
(-0.00856732 0.0024741 0)
(-0.00886478 0.00247394 0)
(-0.00916208 0.00247285 0)
(-0.00945907 0.00247078 0)
(-0.00975559 0.00246766 0)
(-0.0100515 0.00246346 0)
(-0.0103465 0.00245812 0)
(-0.0106405 0.00245166 0)
(-0.0109332 0.00244407 0)
(-0.0112244 0.00243542 0)
(-0.0115138 0.00242578 0)
(-0.0118011 0.00241532 0)
(-0.0120859 0.00240425 0)
(-0.0123679 0.00239288 0)
(-0.0126466 0.00238164 0)
(-0.0129215 0.0023711 0)
(-0.0131919 0.00236201 0)
(-0.0134572 0.00235535 0)
(-0.0137162 0.00235237 0)
(-0.0139675 0.00235462 0)
(-0.0142093 0.00236404 0)
(-0.0144389 0.00238288 0)
(-0.0146525 0.00241364 0)
(-0.0148447 0.00245877 0)
(-0.0150082 0.00252007 0)
(-0.0151334 0.00259765 0)
(-0.0152086 0.00268843 0)
(-0.0152215 0.00278422 0)
(-0.0151618 0.00287065 0)
(-0.0150248 0.00292804 0)
(-2.63578e-05 0.000927891 0)
(-0.000179511 0.0019023 0)
(-0.000430495 0.00235842 0)
(-0.000694034 0.00255142 0)
(-0.000975039 0.00262603 0)
(-0.00125921 0.00265317 0)
(-0.00154472 0.0026635 0)
(-0.00183095 0.00266874 0)
(-0.00211764 0.0026728 0)
(-0.00240477 0.00267683 0)
(-0.00269237 0.00268112 0)
(-0.00298047 0.00268572 0)
(-0.0032691 0.0026906 0)
(-0.00355829 0.00269575 0)
(-0.00384808 0.00270111 0)
(-0.00413849 0.00270666 0)
(-0.00442953 0.00271235 0)
(-0.00472122 0.00271813 0)
(-0.00501357 0.00272394 0)
(-0.00530658 0.00272974 0)
(-0.00560026 0.00273545 0)
(-0.0058946 0.00274101 0)
(-0.00618957 0.00274637 0)
(-0.00648515 0.00275143 0)
(-0.00678132 0.00275613 0)
(-0.00707803 0.00276039 0)
(-0.00737522 0.00276412 0)
(-0.00767283 0.00276723 0)
(-0.0079708 0.00276965 0)
(-0.00826902 0.00277127 0)
(-0.0085674 0.00277201 0)
(-0.00886582 0.00277178 0)
(-0.00916415 0.00277049 0)
(-0.00946224 0.00276805 0)
(-0.00975992 0.0027644 0)
(-0.010057 0.00275947 0)
(-0.0103533 0.0027532 0)
(-0.0106485 0.00274557 0)
(-0.0109425 0.00273655 0)
(-0.0112348 0.00272617 0)
(-0.0115253 0.0027145 0)
(-0.0118135 0.00270164 0)
(-0.0120989 0.00268775 0)
(-0.0123812 0.0026731 0)
(-0.0126598 0.00265803 0)
(-0.0129339 0.00264298 0)
(-0.0132029 0.00262856 0)
(-0.0134656 0.00261553 0)
(-0.0137209 0.00260482 0)
(-0.0139671 0.00259755 0)
(-0.014202 0.00259502 0)
(-0.014423 0.00259862 0)
(-0.0146262 0.0026097 0)
(-0.0148068 0.00262927 0)
(-0.0149589 0.00265752 0)
(-0.0150748 0.00269311 0)
(-0.0151465 0.00273222 0)
(-0.0151658 0.00276767 0)
(-0.0151267 0.00278859 0)
(-0.0150273 0.00278121 0)
(-2.62206e-05 0.00102899 0)
(-0.000178891 0.00210771 0)
(-0.000429264 0.00261211 0)
(-0.000692287 0.00282539 0)
(-0.000972808 0.00290779 0)
(-0.00125653 0.00293776 0)
(-0.00154161 0.00294919 0)
(-0.00182742 0.002955 0)
(-0.00211372 0.00295952 0)
(-0.00240048 0.00296402 0)
(-0.00268772 0.00296881 0)
(-0.0029755 0.00297393 0)
(-0.00326384 0.00297938 0)
(-0.00355279 0.00298512 0)
(-0.00384236 0.00299111 0)
(-0.0041326 0.00299731 0)
(-0.00442352 0.00300367 0)
(-0.00471514 0.00301013 0)
(-0.00500749 0.00301663 0)
(-0.00530056 0.00302312 0)
(-0.00559436 0.00302952 0)
(-0.00588888 0.00303577 0)
(-0.00618412 0.00304179 0)
(-0.00648005 0.00304749 0)
(-0.00677664 0.00305279 0)
(-0.00707387 0.0030576 0)
(-0.00737166 0.00306183 0)
(-0.00766998 0.00306537 0)
(-0.00796873 0.00306813 0)
(-0.00826784 0.00307001 0)
(-0.00856721 0.00307089 0)
(-0.00886671 0.00307068 0)
(-0.00916622 0.00306926 0)
(-0.00946558 0.00306654 0)
(-0.0097646 0.00306242 0)
(-0.0100631 0.00305682 0)
(-0.0103609 0.00304964 0)
(-0.0106576 0.00304084 0)
(-0.0109531 0.00303037 0)
(-0.0112469 0.00301821 0)
(-0.0115388 0.00300438 0)
(-0.0118283 0.00298894 0)
(-0.0121149 0.00297199 0)
(-0.0123981 0.0029537 0)
(-0.0126772 0.00293432 0)
(-0.0129514 0.00291416 0)
(-0.0132199 0.00289366 0)
(-0.0134814 0.00287333 0)
(-0.0137346 0.00285379 0)
(-0.0139778 0.00283576 0)
(-0.0142088 0.00281998 0)
(-0.0144248 0.00280715 0)
(-0.0146225 0.00279779 0)
(-0.0147976 0.00279194 0)
(-0.0149452 0.00278885 0)
(-0.0150596 0.00278651 0)
(-0.015135 0.00278107 0)
(-0.0151659 0.0027665 0)
(-0.0151488 0.00273455 0)
(-0.015083 0.00267544 0)
(-2.60738e-05 0.0011297 0)
(-0.000178214 0.00231254 0)
(-0.000427912 0.00286522 0)
(-0.000690357 0.00309881 0)
(-0.000970333 0.00318905 0)
(-0.00125355 0.00322188 0)
(-0.00153814 0.00323443 0)
(-0.00182348 0.00324083 0)
(-0.00210934 0.00324584 0)
(-0.00239567 0.00325082 0)
(-0.00268253 0.00325613 0)
(-0.00296994 0.00326182 0)
(-0.00325796 0.00326787 0)
(-0.00354661 0.00327425 0)
(-0.00383595 0.00328091 0)
(-0.00412599 0.00328781 0)
(-0.00441677 0.00329488 0)
(-0.00470832 0.00330208 0)
(-0.00500064 0.00330934 0)
(-0.00529376 0.00331659 0)
(-0.00558769 0.00332376 0)
(-0.00588241 0.00333076 0)
(-0.00617793 0.00333752 0)
(-0.00647424 0.00334394 0)
(-0.0067713 0.00334994 0)
(-0.00706908 0.00335539 0)
(-0.00736754 0.00336022 0)
(-0.00766662 0.00336429 0)
(-0.00796626 0.00336751 0)
(-0.00826636 0.00336974 0)
(-0.00856683 0.00337087 0)
(-0.00886755 0.00337078 0)
(-0.00916839 0.00336934 0)
(-0.00946919 0.00336643 0)
(-0.00976976 0.00336193 0)
(-0.0100699 0.00335572 0)
(-0.0103694 0.0033477 0)
(-0.0106679 0.00333778 0)
(-0.0109652 0.00332586 0)
(-0.011261 0.0033119 0)
(-0.0115547 0.00329585 0)
(-0.011846 0.00327772 0)
(-0.0121343 0.00325753 0)
(-0.012419 0.00323536 0)
(-0.0126994 0.00321134 0)
(-0.0129747 0.00318566 0)
(-0.0132438 0.00315855 0)
(-0.0135056 0.00313031 0)
(-0.0137586 0.00310126 0)
(-0.014001 0.00307177 0)
(-0.0142308 0.00304212 0)
(-0.0144453 0.00301249 0)
(-0.0146415 0.0029828 0)
(-0.014816 0.00295247 0)
(-0.0149645 0.00292027 0)
(-0.0150829 0.00288391 0)
(-0.0151667 0.00283985 0)
(-0.0152125 0.00278309 0)
(-0.0152179 0.00270733 0)
(-0.0151827 0.00260546 0)
(-2.59146e-05 0.00122998 0)
(-0.000177474 0.00251672 0)
(-0.000426428 0.00311769 0)
(-0.000688237 0.00337165 0)
(-0.000967607 0.00346976 0)
(-0.00125025 0.00350548 0)
(-0.0015343 0.00351916 0)
(-0.00181913 0.00352618 0)
(-0.00210449 0.00353169 0)
(-0.00239035 0.00353719 0)
(-0.00267677 0.00354306 0)
(-0.00296378 0.00354934 0)
(-0.00325142 0.00355604 0)
(-0.00353976 0.0035631 0)
(-0.00382882 0.00357048 0)
(-0.00411864 0.00357812 0)
(-0.00440926 0.00358598 0)
(-0.0047007 0.00359398 0)
(-0.004993 0.00360206 0)
(-0.00528616 0.00361015 0)
(-0.0055802 0.00361816 0)
(-0.00587514 0.003626 0)
(-0.00617096 0.0036336 0)
(-0.00646766 0.00364084 0)
(-0.00676522 0.00364762 0)
(-0.00706361 0.00365383 0)
(-0.00736279 0.00365936 0)
(-0.00766271 0.00366408 0)
(-0.00796331 0.00366786 0)
(-0.0082645 0.00367057 0)
(-0.0085662 0.00367208 0)
(-0.00886827 0.00367223 0)
(-0.0091706 0.00367089 0)
(-0.00947301 0.0036679 0)
(-0.00977534 0.00366313 0)
(-0.0100774 0.00365643 0)
(-0.0103788 0.00364766 0)
(-0.0106795 0.00363669 0)
(-0.010979 0.00362339 0)
(-0.011277 0.00360765 0)
(-0.011573 0.00358939 0)
(-0.0118666 0.00356853 0)
(-0.0121573 0.00354502 0)
(-0.0124443 0.00351884 0)
(-0.0127269 0.00349001 0)
(-0.0130042 0.00345856 0)
(-0.0132752 0.00342456 0)
(-0.0135387 0.00338809 0)
(-0.0137932 0.00334923 0)
(-0.014037 0.00330801 0)
(-0.0142681 0.0032644 0)
(-0.0144842 0.00321815 0)
(-0.0146826 0.00316878 0)
(-0.0148602 0.00311536 0)
(-0.0150138 0.00305638 0)
(-0.0151401 0.00298958 0)
(-0.0152358 0.00291176 0)
(-0.0152985 0.00281882 0)
(-0.0153265 0.00270586 0)
(-0.0153198 0.00256762 0)
(-2.57416e-05 0.0013298 0)
(-0.000176666 0.0027202 0)
(-0.000424806 0.00336944 0)
(-0.000685915 0.00364382 0)
(-0.000964617 0.00374986 0)
(-0.00124664 0.0037885 0)
(-0.00153008 0.00380334 0)
(-0.00181434 0.003811 0)
(-0.00209914 0.00381704 0)
(-0.00238449 0.00382308 0)
(-0.00267041 0.00382953 0)
(-0.00295697 0.00383646 0)
(-0.00324421 0.00384384 0)
(-0.00353218 0.00385163 0)
(-0.00382093 0.00385978 0)
(-0.00411049 0.00386823 0)
(-0.00440092 0.00387693 0)
(-0.00469224 0.00388581 0)
(-0.00498448 0.00389478 0)
(-0.00527767 0.00390378 0)
(-0.00557184 0.00391272 0)
(-0.00586698 0.0039215 0)
(-0.00616311 0.00393003 0)
(-0.00646022 0.00393819 0)
(-0.00675831 0.00394587 0)
(-0.00705734 0.00395295 0)
(-0.0073573 0.00395931 0)
(-0.00765813 0.0039648 0)
(-0.00795977 0.00396929 0)
(-0.00826215 0.00397261 0)
(-0.00856518 0.00397463 0)
(-0.00886875 0.00397517 0)
(-0.00917272 0.00397407 0)
(-0.00947695 0.00397116 0)
(-0.00978124 0.00396627 0)
(-0.0100854 0.00395921 0)
(-0.0103891 0.00394982 0)
(-0.0106922 0.00393792 0)
(-0.0109943 0.00392334 0)
(-0.011295 0.00390593 0)
(-0.0115938 0.00388552 0)
(-0.0118904 0.00386198 0)
(-0.012184 0.00383516 0)
(-0.012474 0.00380497 0)
(-0.0127597 0.00377128 0)
(-0.0130402 0.00373401 0)
(-0.0133143 0.00369305 0)
(-0.0135809 0.00364829 0)
(-0.0138387 0.0035996 0)
(-0.0140858 0.00354676 0)
(-0.0143206 0.00348944 0)
(-0.0145409 0.00342714 0)
(-0.0147444 0.00335908 0)
(-0.0149284 0.00328413 0)
(-0.0150903 0.00320069 0)
(-0.0152275 0.00310659 0)
(-0.0153375 0.00299901 0)
(-0.0154184 0.00287456 0)
(-0.0154691 0.00272938 0)
(-0.0154895 0.00255946 0)
(-2.55537e-05 0.00142912 0)
(-0.000175787 0.0029229 0)
(-0.000423037 0.00362042 0)
(-0.000683379 0.00391527 0)
(-0.000961347 0.00402927 0)
(-0.00124268 0.00407087 0)
(-0.00152546 0.0040869 0)
(-0.00180908 0.00409522 0)
(-0.00209328 0.00410182 0)
(-0.00237805 0.00410844 0)
(-0.00266343 0.00411552 0)
(-0.00294948 0.00412312 0)
(-0.00323626 0.00413123 0)
(-0.00352382 0.0041398 0)
(-0.00381221 0.00414877 0)
(-0.00410149 0.0041581 0)
(-0.00439169 0.00416771 0)
(-0.00468285 0.00417753 0)
(-0.00497502 0.00418748 0)
(-0.00526822 0.00419749 0)
(-0.00556249 0.00420745 0)
(-0.00585784 0.00421726 0)
(-0.00615428 0.00422682 0)
(-0.00645182 0.00423602 0)
(-0.00675045 0.00424473 0)
(-0.00705017 0.00425281 0)
(-0.00735094 0.00426013 0)
(-0.00765274 0.00426654 0)
(-0.0079555 0.00427187 0)
(-0.00825916 0.00427597 0)
(-0.00856364 0.00427866 0)
(-0.00886883 0.00427976 0)
(-0.00917461 0.00427907 0)
(-0.00948082 0.00427641 0)
(-0.00978729 0.00427156 0)
(-0.0100938 0.00426432 0)
(-0.0104001 0.00425448 0)
(-0.010706 0.00424182 0)
(-0.011011 0.00422613 0)
(-0.0113148 0.00420719 0)
(-0.011617 0.00418478 0)
(-0.011917 0.00415868 0)
(-0.0122143 0.00412869 0)
(-0.0125082 0.00409458 0)
(-0.0127979 0.00405615 0)
(-0.0130825 0.00401315 0)
(-0.013361 0.00396535 0)
(-0.0136322 0.00391247 0)
(-0.0138947 0.00385419 0)
(-0.0141472 0.00379007 0)
(-0.0143877 0.00371959 0)
(-0.0146146 0.00364204 0)
(-0.0148256 0.00355647 0)
(-0.0150186 0.00346163 0)
(-0.0151914 0.00335591 0)
(-0.0153418 0.00323727 0)
(-0.0154679 0.00310325 0)
(-0.0155681 0.00295099 0)
(-0.0156416 0.00277741 0)
(-0.0156881 0.00257935 0)
(-2.53505e-05 0.00152789 0)
(-0.000174832 0.00312476 0)
(-0.000421114 0.00387054 0)
(-0.000680619 0.00418593 0)
(-0.000957784 0.00430795 0)
(-0.00123836 0.00435253 0)
(-0.00152042 0.00436978 0)
(-0.00180334 0.00437879 0)
(-0.00208687 0.00438598 0)
(-0.00237099 0.00439321 0)
(-0.00265578 0.00440095 0)
(-0.00294127 0.00440927 0)
(-0.00322753 0.00441816 0)
(-0.00351463 0.00442756 0)
(-0.00380262 0.00443742 0)
(-0.00409156 0.00444769 0)
(-0.00438149 0.00445828 0)
(-0.00467246 0.00446912 0)
(-0.00496453 0.00448014 0)
(-0.00525771 0.00449124 0)
(-0.00555206 0.00450232 0)
(-0.0058476 0.00451327 0)
(-0.00614435 0.00452399 0)
(-0.00644232 0.00453435 0)
(-0.00674152 0.00454421 0)
(-0.00704194 0.00455343 0)
(-0.00734357 0.00456186 0)
(-0.00764639 0.00456934 0)
(-0.00795033 0.0045757 0)
(-0.00825536 0.00458075 0)
(-0.0085614 0.00458429 0)
(-0.00886834 0.00458613 0)
(-0.00917608 0.00458606 0)
(-0.00948446 0.00458384 0)
(-0.00979332 0.00457925 0)
(-0.0101025 0.00457204 0)
(-0.0104116 0.00456196 0)
(-0.0107206 0.00454876 0)
(-0.0110289 0.00453217 0)
(-0.0113363 0.00451192 0)
(-0.0116423 0.00448772 0)
(-0.0119464 0.00445929 0)
(-0.0122481 0.00442633 0)
(-0.0125466 0.00438854 0)
(-0.0128412 0.00434558 0)
(-0.013131 0.00429711 0)
(-0.013415 0.00424277 0)
(-0.0136921 0.00418211 0)
(-0.0139611 0.00411465 0)
(-0.0142204 0.00403983 0)
(-0.0144687 0.00395693 0)
(-0.014704 0.0038651 0)
(-0.0149248 0.00376329 0)
(-0.0151289 0.00365018 0)
(-0.0153147 0.0035242 0)
(-0.0154801 0.00338345 0)
(-0.0156238 0.00322575 0)
(-0.0157443 0.00304869 0)
(-0.0158408 0.00284971 0)
(-0.0159129 0.00262628 0)
(-2.51313e-05 0.00162607 0)
(-0.000173798 0.00332571 0)
(-0.000419027 0.00411974 0)
(-0.000677621 0.00445572 0)
(-0.000953911 0.00458581 0)
(-0.00123366 0.00463342 0)
(-0.00151493 0.00465191 0)
(-0.00179708 0.00466165 0)
(-0.00207987 0.00466946 0)
(-0.0023633 0.00467733 0)
(-0.00264741 0.00468577 0)
(-0.00293228 0.00469486 0)
(-0.00321798 0.00470457 0)
(-0.00350456 0.00471487 0)
(-0.00379209 0.00472568 0)
(-0.00408064 0.00473695 0)
(-0.00437025 0.00474859 0)
(-0.00466099 0.00476055 0)
(-0.00495291 0.00477272 0)
(-0.00524605 0.00478501 0)
(-0.00554045 0.00479732 0)
(-0.00583616 0.00480953 0)
(-0.0061332 0.00482153 0)
(-0.0064316 0.00483318 0)
(-0.00673137 0.00484433 0)
(-0.00703252 0.00485485 0)
(-0.00733503 0.00486456 0)
(-0.0076389 0.00487328 0)
(-0.0079441 0.00488084 0)
(-0.00825057 0.00488703 0)
(-0.00855826 0.00489163 0)
(-0.00886707 0.00489443 0)
(-0.00917691 0.00489518 0)
(-0.00948764 0.00489365 0)
(-0.0097991 0.00488955 0)
(-0.0101111 0.00488262 0)
(-0.0104234 0.00487257 0)
(-0.0107358 0.0048591 0)
(-0.0110478 0.00484188 0)
(-0.0113593 0.0048206 0)
(-0.0116696 0.0047949 0)
(-0.0119784 0.00476444 0)
(-0.0122851 0.00472882 0)
(-0.0125889 0.00468766 0)
(-0.0128893 0.00464054 0)
(-0.0131853 0.00458699 0)
(-0.013476 0.00452652 0)
(-0.0137603 0.00445858 0)
(-0.014037 0.00438255 0)
(-0.0143049 0.00429773 0)
(-0.0145625 0.00420328 0)
(-0.0148082 0.00409825 0)
(-0.0150405 0.00398151 0)
(-0.0152577 0.00385172 0)
(-0.0154581 0.00370734 0)
(-0.0156402 0.00354663 0)
(-0.0158026 0.00336763 0)
(-0.0159442 0.00316824 0)
(-0.016064 0.0029463 0)
(-0.0161617 0.00269973 0)
(-2.48954e-05 0.00172361 0)
(-0.000172682 0.00352566 0)
(-0.00041677 0.00436794 0)
(-0.000674375 0.00472457 0)
(-0.000949713 0.00486279 0)
(-0.00122856 0.00491347 0)
(-0.00150896 0.00493323 0)
(-0.00179027 0.00494372 0)
(-0.00207226 0.00495217 0)
(-0.00235491 0.00496073 0)
(-0.00263829 0.00496992 0)
(-0.00292247 0.00497982 0)
(-0.00320753 0.00499042 0)
(-0.00349353 0.00500166 0)