/*--------------------------------*- C++ -*----------------------------------*\
  =========                 |
  \\      /  F ield         | OpenFOAM: The Open Source CFD Toolbox
   \\    /   O peration     | Website:  https://openfoam.org
    \\  /    A nd           | Version:  8
     \\/     M anipulation  |
\*---------------------------------------------------------------------------*/
FoamFile
{
    version     2.0;
    format      ascii;
    class       volVectorField;
    location    "19.5";
    object      U;
}
// * * * * * * * * * * * * * * * * * * * * * * * * * * * * * * * * * * * * * //

dimensions      [0 1 -1 0 0 0 0];

internalField   nonuniform List<vector> 
464
(
(-9.47679e-05 9.35117e-05 0)
(-0.00028902 9.49895e-05 0)
(-0.000480788 9.04225e-05 0)
(-0.000659245 8.36874e-05 0)
(-0.000822272 7.50337e-05 0)
(-0.000966132 6.46757e-05 0)
(-0.00108624 5.2882e-05 0)
(-0.00118719 3.95526e-05 0)
(-0.0012468 2.53507e-05 0)
(-0.00131924 8.39099e-06 0)
(-0.00128415 -7.99468e-06 0)
(-0.00138361 -1.39642e-05 0)
(-0.000100841 0.000290415 0)
(-0.000307399 0.000294853 0)
(-0.000511162 0.000280628 0)
(-0.000700668 0.000259685 0)
(-0.00087369 0.000232902 0)
(-0.00102628 0.000201199 0)
(-0.00115403 0.00016612 0)
(-0.0012612 0.000128097 0)
(-0.00132686 9.38124e-05 0)
(-0.00140432 5.01421e-05 0)
(-0.00137564 4.42013e-05 0)
(-0.00148351 -1.92182e-05 0)
(-0.000105689 0.00049928 0)
(-0.000322105 0.000506683 0)
(-0.000535387 0.000482031 0)
(-0.000733367 0.000445739 0)
(-0.00091361 0.000399333 0)
(-0.00107143 0.000344356 0)
(-0.00120258 0.000283049 0)
(-0.00130658 0.000216397 0)
(-0.00137429 0.000151551 0)
(-0.00142093 7.60243e-05 0)
(-0.00140495 3.82648e-05 0)
(-0.00138951 -5.44595e-05 0)
(-0.000113146 0.000718484 0)
(-0.000344699 0.000728861 0)
(-0.000572613 0.000692976 0)
(-0.000783735 0.000640168 0)
(-0.000975526 0.000572722 0)
(-0.00114309 0.000492772 0)
(-0.00128258 0.00040297 0)
(-0.00139332 0.000305033 0)
(-0.0014679 0.000203631 0)
(-0.0015183 9.56878e-05 0)
(-0.00150672 -1.27868e-06 0)
(-0.00148847 -0.000123145 0)
(-0.000123568 0.000956084 0)
(-0.000376205 0.00096939 0)
(-0.000624422 0.000920902 0)
(-0.000853626 0.000849614 0)
(-0.00106101 0.000758929 0)
(-0.00124119 0.000651706 0)
(-0.00139032 0.000531561 0)
(-0.00150592 0.000401147 0)
(-0.00158364 0.000265513 0)
(-0.00162584 0.000123074 0)
(-0.00162379 -1.04849e-05 0)
(-0.0015872 -0.000165089 0)
(-0.000137421 0.00121735 0)
(-0.000417901 0.00123349 0)
(-0.000692836 0.00117059 0)
(-0.000945711 0.00107814 0)
(-0.00117343 0.000961248 0)
(-0.00137046 0.000823385 0)
(-0.00153314 0.00066921 0)
(-0.00165938 0.000502037 0)
(-0.00174599 0.000325709 0)
(-0.00179429 0.000141616 0)
(-0.00179489 -4.39739e-05 0)
(-0.00175682 -0.000236523 0)
(-0.000155291 0.00151099 0)
(-0.000471376 0.00152932 0)
(-0.000780334 0.00144929 0)
(-0.00106297 0.00133159 0)
(-0.00131577 0.00118457 0)
(-0.00153322 0.00101199 0)
(-0.00171167 0.000820423 0)
(-0.00184942 0.000613851 0)
(-0.00194406 0.00039696 0)
(-0.00199551 0.000172006 0)
(-0.00200193 -5.53778e-05 0)
(-0.00196417 -0.000290126 0)
(-0.000178485 0.00184018 0)
(-0.00053967 0.00186091 0)
(-0.000891257 0.00176129 0)
(-0.00121043 0.00161399 0)
(-0.00149303 0.00143238 0)
(-0.00173461 0.00121989 0)
(-0.00193128 0.000986299 0)
(-0.00208284 0.000735829 0)
(-0.00218784 0.000473711 0)
(-0.00224663 0.000202539 0)
(-0.00225703 -7.3997e-05 0)
(-0.00221999 -0.00035524 0)
(-0.000207043 0.00223614 0)
(-0.000623544 0.00225333 0)
(-0.00102807 0.00212633 0)
(-0.0013919 0.00193653 0)
(-0.00170986 0.00171195 0)
(-0.00197931 0.00145114 0)
(-0.00219573 0.00116968 0)
(-0.00236201 0.000870658 0)
(-0.00247735 0.00056027 0)
(-0.00254321 0.000240897 0)
(-0.00255971 -8.5153e-05 0)
(-0.00252585 -0.000416246 0)
(-0.000249165 0.00264299 0)
(-0.000738283 0.00266313 0)
(-0.00120901 0.00251137 0)
(-0.00162483 0.00228186 0)
(-0.00197839 0.00201386 0)
(-0.0022769 0.00170152 0)
(-0.00251176 0.00136883 0)
(-0.00269225 0.00101742 0)
(-0.0028176 0.000655837 0)
(-0.00289206 0.000286773 0)
(-0.00291418 -8.75708e-05 0)
(-0.00288407 -0.000469697 0)
(-0.000291658 0.0032668 0)
(-0.000861007 0.00325135 0)
(-0.00141038 0.0030541 0)
(-0.00188948 0.00272459 0)
(-0.00229018 0.00238766 0)
(-0.00262439 0.00199107 0)
(-0.00287983 0.00159136 0)
(-0.00307501 0.00117714 0)
(-0.00320799 0.000759127 0)
(-0.00328661 0.00033372 0)
(-0.00331617 -9.99566e-05 0)
(-0.00329416 -0.000540814 0)
(-0.000392904 0.00372737 0)
(-0.00108045 0.00372275 0)
(-0.00173693 0.00349316 0)
(-0.0022914 0.00311345 0)
(-0.00271167 0.0027256 0)
(-0.0030732 0.00226542 0)
(-0.0033256 0.00180953 0)
(-0.00352448 0.00133882 0)
(-0.00366102 0.00087019 0)
(-0.00375117 0.000401663 0)
(-0.00378875 -6.91132e-05 0)
(-0.00377685 -0.000552191 0)
(-0.000444403 0.00484206 0)
(-0.00124499 0.00466168 0)
(-0.00202044 0.00437006 0)
(-0.00265775 0.003726 0)
(-0.00313804 0.00324484 0)
(-0.00354089 0.00261722 0)
(-0.00380648 0.00207493 0)
(-0.00401445 0.00151593 0)
(-0.00414513 0.000981501 0)
(-0.00422587 0.000449618 0)
(-0.00426994 -8.77044e-05 0)
(-0.00427199 -0.000637693 0)
(-0.000765564 0.00528412 0)
(-0.00174576 0.00518362 0)
(-0.00267349 0.00482129 0)
(-0.00341738 0.00413406 0)
(-0.00381899 0.00357427 0)
(-0.0042432 0.00287268 0)
(-0.00442628 0.00227301 0)
(-0.00461786 0.00166099 0)
(-0.00472731 0.00109188 0)
(-0.00482047 0.000540799 0)
(-0.00487619 -3.73523e-06 0)
(-0.00490218 -0.000564634 0)
(-0.000750993 0.00755428 0)
(-0.00192143 0.00665499 0)
(-0.00306752 0.00624544 0)
(-0.00390949 0.0048817 0)
(-0.00439884 0.0042154 0)
(-0.00484423 0.0032113 0)
(-0.00501826 0.00252477 0)
(-0.00519602 0.00180219 0)
(-0.00526528 0.00117841 0)
(-0.00532138 0.000574698 0)
(-0.00537514 -2.00698e-05 0)
(-0.00540324 -0.000640409 0)
(-0.00198012 0.00770309 0)
(-0.00336276 0.00735144 0)
(-0.00444128 0.00668142 0)
(-0.00545011 0.00533549 0)
(-0.00548195 0.00447788 0)
(-0.00593411 0.00339681 0)
(-0.00583303 0.00263455 0)
(-0.00596415 0.00187848 0)
(-0.00595462 0.00125323 0)
(-0.00601918 0.00066834 0)
(-0.00609158 0.000116229 0)
(-0.00616571 -0.00045814 0)
(-0.00136767 0.0133018 0)
(-0.00330154 0.00906949 0)
(-0.00506774 0.00868113 0)
(-0.00613844 0.0057634 0)
(-0.00633766 0.00491381 0)
(-0.00669352 0.00345357 0)
(-0.00653704 0.00265593 0)
(-0.00657838 0.00184603 0)
(-0.00647524 0.00122529 0)
(-0.00645814 0.000657887 0)
(-0.00650097 0.000131801 0)
(-0.00651536 -0.000431941 0)
(-0.00604073 0.0118475 0)
(-0.00837599 0.0112999 0)
(-0.00757919 0.00935784 0)
(-0.0092249 0.00669569 0)
(-0.00776259 0.00509581 0)
(-0.00819261 0.00359085 0)
(-0.00743206 0.0026185 0)
(-0.00738759 0.00181031 0)
(-0.00713144 0.00121531 0)
(-0.00709871 0.000704914 0)
(-0.0071642 0.000267666 0)
(-0.00727012 -0.000182272 0)
(-0.0133223 0.0287362 0)
(-0.0108015 0.00964464 0)
(-0.0123545 0.0100016 0)
(-0.0110449 0.00528824 0)
(-0.00947791 0.00402803 0)
(-0.00868081 0.00278616 0)
(-0.0075011 0.00189803 0)
(-0.00697482 0.00138518 0)
(-0.00641369 0.00092481 0)
(-0.00612099 0.000601117 0)
(-0.00599874 0.000336092 0)
(-0.00583167 8.80578e-05 0)
(0.0316628 0.0342824 0)
(0.0331841 0.0114104 0)
(0.0506439 0.00914839 0)
(0.0539131 0.00435289 0)
(0.0592195 0.00279769 0)
(0.0612966 0.00170346 0)
(0.0632727 0.00105591 0)
(0.0644295 0.000721896 0)
(0.0652522 0.000456759 0)
(0.065812 0.000277527 0)
(0.0660789 0.000110097 0)
(0.0664067 -4.71224e-06 0)
(-0.00121174 0.000659 0)
(-0.000831904 0.000351976 0)
(-0.000719387 6.93347e-05 0)
(-0.000554721 -9.50294e-05 0)
(-0.000441024 -0.000225329 0)
(-0.000310772 -0.000312519 0)
(-0.000185947 -0.000369257 0)
(-6.02862e-05 -0.000381155 0)
(-0.00129795 0.000107375 0)
(-0.000917602 -4.97598e-05 0)
(-0.000796009 -0.000155752 0)
(-0.000620177 -0.00028479 0)
(-0.000494899 -0.000381944 0)
(-0.000352607 -0.000461829 0)
(-0.000211711 -0.00051409 0)
(-6.90563e-05 -0.000519926 0)
(-0.00127609 3.43888e-05 0)
(-0.00109538 -0.000136243 0)
(-0.000954394 -0.000253826 0)
(-0.000780864 -0.00039899 0)
(-0.00061804 -0.000511748 0)
(-0.000443169 -0.000604018 0)
(-0.000264513 -0.000665566 0)
(-8.63198e-05 -0.000670169 0)
(-0.00138015 -0.000198885 0)
(-0.00120563 -0.000345168 0)
(-0.0010588 -0.000468204 0)
(-0.000878076 -0.000600086 0)
(-0.000699972 -0.000711072 0)
(-0.000506806 -0.000801798 0)
(-0.000304401 -0.000864369 0)
(-9.98254e-05 -0.000862492 0)
(-0.00149809 -0.000278821 0)
(-0.00136467 -0.000453015 0)
(-0.00120934 -0.000606089 0)
(-0.00102371 -0.000763326 0)
(-0.000819753 -0.000897955 0)
(-0.000596933 -0.0010079 0)
(-0.000359212 -0.00108343 0)
(-0.000117978 -0.00107963 0)
(-0.00166809 -0.000420973 0)
(-0.00153285 -0.000616174 0)
(-0.00136913 -0.00080104 0)
(-0.00116994 -0.000977139 0)
(-0.000944561 -0.00113074 0)
(-0.000692887 -0.0012568 0)
(-0.000418719 -0.0013439 0)
(-0.000138009 -0.00133683 0)
(-0.00187775 -0.000518545 0)
(-0.00174471 -0.000755181 0)
(-0.00157031 -0.000981176 0)
(-0.00135339 -0.00119577 0)
(-0.00109942 -0.00138309 0)
(-0.000810846 -0.00153823 0)
(-0.000491909 -0.00164485 0)
(-0.000162827 -0.00163765 0)
(-0.00213316 -0.00063569 0)
(-0.00199548 -0.000916526 0)
(-0.00180973 -0.00118728 0)
(-0.00157185 -0.00144447 0)
(-0.00128703 -0.00166966 0)
(-0.000955592 -0.00186103 0)
(-0.000582586 -0.00199084 0)
(-0.000194314 -0.00198494 0)
(-0.00243904 -0.000749221 0)
(-0.00229629 -0.00108442 0)
(-0.00209824 -0.00141115 0)
(-0.00183578 -0.00172874 0)
(-0.00151598 -0.00200826 0)
(-0.0011332 -0.00225862 0)
(-0.00069408 -0.00242478 0)
(-0.000234027 -0.00243073 0)
(-0.00280134 -0.000855902 0)
(-0.00265743 -0.00124616 0)
(-0.00245405 -0.00162732 0)
(-0.00216903 -0.00200789 0)
(-0.00181691 -0.00233553 0)
(-0.00137362 -0.002652 0)
(-0.000849711 -0.00284684 0)
(-0.000293826 -0.00287093 0)
(-0.00321544 -0.000992666 0)
(-0.00306768 -0.00146112 0)
(-0.00285982 -0.00192724 0)
(-0.00254402 -0.00242526 0)
(-0.00215988 -0.00284437 0)
(-0.00164643 -0.00330678 0)
(-0.00102689 -0.0035688 0)
(-0.000370221 -0.00365334 0)
(-0.00372174 -0.00104708 0)
(-0.00359226 -0.00157027 0)
(-0.00341821 -0.00207432 0)
(-0.00308673 -0.00266664 0)
(-0.00269823 -0.00310928 0)
(-0.00210087 -0.00371434 0)
(-0.00133721 -0.00398648 0)
(-0.000517118 -0.00415963 0)
(-0.00423318 -0.00121268 0)
(-0.00409477 -0.00185574 0)
(-0.00395511 -0.00247678 0)
(-0.0035793 -0.00330247 0)
(-0.00320562 -0.00390678 0)
(-0.0025276 -0.00486819 0)
(-0.00163737 -0.00528994 0)
(-0.000706421 -0.00569722 0)
(-0.00494014 -0.00113531 0)
(-0.00485776 -0.00181916 0)
(-0.00486494 -0.00239641 0)
(-0.0045198 -0.00336132 0)
(-0.00426232 -0.00387896 0)
(-0.00349137 -0.00515842 0)
(-0.00238227 -0.00549742 0)
(-0.00113975 -0.00627878 0)
(-0.0054864 -0.00128245 0)
(-0.00535546 -0.0021181 0)
(-0.00549253 -0.0028598 0)
(-0.00506306 -0.00421765 0)
(-0.00499026 -0.00504999 0)
(-0.00415874 -0.00716027 0)
(-0.00299724 -0.0078929 0)
(-0.00173918 -0.00962054 0)
(-0.00641882 -0.000996831 0)
(-0.00644027 -0.0018211 0)
(-0.00696564 -0.00232582 0)
(-0.00672421 -0.00383111 0)
(-0.0071988 -0.00423608 0)
(-0.00636418 -0.00697604 0)
(-0.00518268 -0.00726919 0)
(-0.00326118 -0.0105816 0)
(-0.00684617 -0.000991777 0)
(-0.0066814 -0.00187721 0)
(-0.0074885 -0.00257749 0)
(-0.00696923 -0.00452181 0)
(-0.00806839 -0.00551455 0)
(-0.00722951 -0.00996817 0)
(-0.00680606 -0.0113786 0)
(-0.00549021 -0.018933 0)
(-0.00784114 -0.000543919 0)
(-0.00800678 -0.00129203 0)
(-0.00958113 -0.00146957 0)
(-0.00965457 -0.00334448 0)
(-0.0125675 -0.00303559 0)
(-0.0121073 -0.00809482 0)
(-0.0139916 -0.0076734 0)
(-0.00972355 -0.0219858 0)
(-0.00632716 -0.000142708 0)
(-0.00579779 -0.000544731 0)
(-0.00749132 -0.000763831 0)
(-0.00576234 -0.00233456 0)
(-0.00944045 -0.00292913 0)
(-0.00523082 -0.0100006 0)
(-0.0104327 -0.014112 0)
(-0.00167678 -0.0449369 0)
(0.0657943 -0.000270838 0)
(0.0666487 -0.00040255 0)
(0.0638228 -0.000870514 0)
(0.0662561 -0.00176819 0)
(0.0579561 -0.00239226 0)
(0.0626722 -0.00719139 0)
(0.0381599 -0.00901561 0)
(0.0415508 -0.0317959 0)
(-9.11784e-06 -4.03908e-06 0)
(-2.62453e-05 -4.98386e-06 0)
(-3.86666e-05 -6.31782e-06 0)
(-4.44522e-05 -8.22207e-06 0)
(-4.3351e-05 -9.25756e-06 0)
(-3.58095e-05 -1.03014e-05 0)
(-2.322e-05 -1.09e-05 0)
(-7.84844e-06 -1.08753e-05 0)
(-1.04029e-05 4.02916e-05 0)
(-2.95293e-05 3.55566e-05 0)
(-4.341e-05 2.5032e-05 0)
(-4.91216e-05 1.32819e-05 0)
(-4.71168e-05 8.31628e-07 0)
(-3.88509e-05 -9.3632e-06 0)
(-2.50739e-05 -1.68227e-05 0)
(-8.50174e-06 -1.96669e-05 0)
(-1.56718e-05 3.33046e-05 0)
(-4.40136e-05 2.58935e-05 0)
(-6.2481e-05 1.15506e-05 0)
(-7.04022e-05 -5.30302e-06 0)
(-6.77012e-05 -2.0621e-05 0)
(-5.48848e-05 -3.37815e-05 0)
(-3.52901e-05 -4.3004e-05 0)
(-1.18437e-05 -4.59379e-05 0)
(-1.92694e-05 0.000104931 0)
(-5.27681e-05 8.70071e-05 0)
(-7.46487e-05 5.42341e-05 0)
(-8.13193e-05 2.01259e-05 0)
(-7.56216e-05 -1.31146e-05 0)
(-6.12784e-05 -3.92251e-05 0)
(-3.90153e-05 -5.76516e-05 0)
(-1.31886e-05 -6.40898e-05 0)
(-3.7567e-05 9.79361e-05 0)
(-9.87317e-05 7.50668e-05 0)
(-0.00012941 3.55008e-05 0)
(-0.000137746 -6.21239e-06 0)
(-0.000127045 -4.35821e-05 0)
(-9.94484e-05 -7.4137e-05 0)
(-6.27438e-05 -9.5328e-05 0)
(-2.08402e-05 -0.000101902 0)
(-4.61299e-05 0.000253424 0)
(-0.000119258 0.000189104 0)
(-0.000155995 9.88213e-05 0)
(-0.000160417 2.05234e-05 0)
(-0.000143563 -4.80491e-05 0)
(-0.00011309 -9.81788e-05 0)
(-7.0799e-05 -0.000131849 0)
(-2.37232e-05 -0.000142373 0)
(-0.000111806 0.000246706 0)
(-0.000263251 0.000171866 0)
(-0.000298086 6.77713e-05 0)
(-0.000284578 -1.99592e-05 0)
(-0.000245712 -9.69417e-05 0)
(-0.000183294 -0.00015362 0)
(-0.000112585 -0.000192115 0)
(-3.69473e-05 -0.000202677 0)
(-0.000142116 0.000657732 0)
(-0.000308526 0.000395372 0)
(-0.000348126 0.000126412 0)
(-0.000325196 -2.61525e-05 0)
(-0.000277282 -0.000144089 0)
(-0.000208408 -0.000221591 0)
(-0.000127913 -0.000271487 0)
(-4.22216e-05 -0.000283778 0)
)
;

boundaryField
{
    movingWall
    {
        type            fixedValue;
        value           uniform (1 0 0);
    }
    fixedWalls
    {
        type            noSlip;
    }
    frontAndBack
    {
        type            empty;
    }
}


// ************************************************************************* //
