/*--------------------------------*- C++ -*----------------------------------*\
  =========                 |
  \\      /  F ield         | OpenFOAM: The Open Source CFD Toolbox
   \\    /   O peration     | Website:  https://openfoam.org
    \\  /    A nd           | Version:  8
     \\/     M anipulation  |
\*---------------------------------------------------------------------------*/
FoamFile
{
    version     2.0;
    format      ascii;
    class       volScalarField;
    location    "0.16";
    object      p;
}
// * * * * * * * * * * * * * * * * * * * * * * * * * * * * * * * * * * * * * //

dimensions      [0 2 -2 0 0 0 0];

internalField   nonuniform List<scalar> 
400
(
6.71215e-06
-0.00580945
-0.0129354
-0.0183773
-0.0203878
-0.0181913
-0.0117285
-0.00144402
0.011868
0.0271687
0.0432521
0.0588196
0.0725664
0.0832907
0.090034
0.0922517
0.0900183
0.084247
0.0768946
0.0710886
0.00577991
-0.000210208
-0.00578706
-0.00951803
-0.010569
-0.00839996
-0.00293732
0.00550382
0.0163274
0.0287295
0.0417603
0.0543898
0.0655849
0.0744055
0.0801158
0.0823145
0.081082
0.0770675
0.0712953
0.0653467
0.0133236
0.0050333
-0.00098686
-0.00440786
-0.00525254
-0.00324044
0.00162684
0.00905111
0.018523
0.0293665
0.0407784
0.0518786
0.0617743
0.0696408
0.0748122
0.0768865
0.0758555
0.0721069
0.0658351
0.0575752
0.0201174
0.00868825
0.00122806
-0.00265939
-0.00370764
-0.00186721
0.00275138
0.00980517
0.0188002
0.029113
0.0400076
0.0506672
0.0602443
0.0679267
0.0730151
0.0750168
0.0737866
0.0694841
0.0616407
0.0501531
0.0244735
0.00976103
0.000588319
-0.00398124
-0.00529097
-0.00349189
0.00119311
0.00835464
0.0174827
0.0279694
0.0391043
0.0500878
0.0600657
0.0681817
0.0736443
0.0758189
0.0743954
0.0693236
0.0595698
0.0445962
0.0251488
0.00713776
-0.0038037
-0.00905186
-0.0105011
-0.00848428
-0.00333744
0.00445147
0.014337
0.0257034
0.0378379
0.0499267
0.0610707
0.0703255
0.0767581
0.0795431
0.07817
0.0723716
0.0605878
0.041954
0.0210702
-0.000270263
-0.0129327
-0.018701
-0.0200159
-0.0173952
-0.0112954
-0.00229335
0.00901919
0.0220063
0.03594
0.0499742
0.0631411
0.0743737
0.0825507
0.0866003
0.0857554
0.0794879
0.0656708
0.0431366
0.0111315
-0.0136173
-0.0278663
-0.03384
-0.0345841
-0.0308332
-0.0231841
-0.0123126
0.00114035
0.0165211
0.0330903
0.0499707
0.0661193
0.0803246
0.0912348
0.0974649
0.0979077
0.091678
0.0759461
0.0491785
-0.00596164
-0.0342533
-0.0498516
-0.055526
-0.0550633
-0.0494832
-0.0395576
-0.0260733
-0.0097139
0.00886818
0.0289467
0.0496384
0.0698406
0.0881955
0.103087
0.11274
0.11559
0.110234
0.0928813
0.0614671
-0.0318317
-0.0638485
-0.0803873
-0.0849752
-0.0823849
-0.0740392
-0.0609375
-0.0439891
-0.0239006
-0.00128384
0.0231991
0.0487134
0.0741456
0.0980192
0.11844
0.133167
0.140029
0.136858
0.118483
0.0819807
-0.0686215
-0.104561
-0.121304
-0.123549
-0.117472
-0.105081
-0.0876683
-0.0662714
-0.0415794
-0.0140957
0.0156659
0.0470121
0.0789116
0.109845
0.137671
0.159629
0.172767
0.173816
0.155557
0.113607
-0.119338
-0.159302
-0.174864
-0.172708
-0.161099
-0.142878
-0.119704
-0.0927185
-0.0625152
-0.029383
0.00643824
0.0445369
0.084115
0.123758
0.161186
0.19313
0.215707
0.224112
0.208081
0.160657
-0.18855
-0.232178
-0.243882
-0.233895
-0.213643
-0.187102
-0.156317
-0.122441
-0.085834
-0.0464056
-0.00394727
0.0416041
0.0899034
0.139885
0.189368
0.234732
0.271111
0.291695
0.281766
0.229789
-0.28389
-0.329237
-0.331774
-0.308228
-0.274659
-0.23639
-0.195712
-0.153553
-0.109778
-0.0636798
-0.0143716
0.0389278
0.0966142
0.15833
0.222421
0.285327
0.341429
0.3816
0.38493
0.331836
-0.419235
-0.459605
-0.442296
-0.395746
-0.342087
-0.287697
-0.23457
-0.182878
-0.131552
-0.0789237
-0.0231513
0.0375362
0.104609
0.178887
0.259903
0.345004
0.428643
0.499719
0.529684
0.485385
-0.620458
-0.636687
-0.578632
-0.494157
-0.411209
-0.335627
-0.267745
-0.205935
-0.147487
-0.0893281
-0.0283688
0.0384043
0.113858
0.200516
0.300011
0.412053
0.53305
0.651788
0.732775
0.722383
-0.935865
-0.878471
-0.74171
-0.597926
-0.474375
-0.372641
-0.288845
-0.217731
-0.153913
-0.0924167
-0.0286664
0.0417465
0.12331
0.220758
0.338958
0.482178
0.652012
0.84135
1.01527
1.09749
-1.47638
-1.2066
-0.920486
-0.69138
-0.517301
-0.387538
-0.290049
-0.213316
-0.148093
-0.0871757
-0.0245323
0.0455045
0.128982
0.23311
0.367134
0.5427
0.771307
1.05932
1.40329
1.73013
-2.53962
-1.63053
-1.04443
-0.710963
-0.49576
-0.352101
-0.254531
-0.183573
-0.126147
-0.073562
-0.0192273
0.0428334
0.119259
0.218826
0.354849
0.548012
0.826412
1.23659
1.91168
2.92419
-4.36665
-2.04463
-0.973547
-0.563198
-0.357871
-0.24017
-0.170136
-0.123787
-0.0874693
-0.0534827
-0.0166135
0.0277112
0.0846627
0.161785
0.272462
0.442141
0.718251
1.22573
2.41105
4.84853
)
;

boundaryField
{
    movingWall
    {
        type            zeroGradient;
    }
    fixedWalls
    {
        type            zeroGradient;
    }
    frontAndBack
    {
        type            empty;
    }
}


// ************************************************************************* //
