/*--------------------------------*- C++ -*----------------------------------*\
  =========                 |
  \\      /  F ield         | OpenFOAM: The Open Source CFD Toolbox
   \\    /   O peration     | Website:  https://openfoam.org
    \\  /    A nd           | Version:  8
     \\/     M anipulation  |
\*---------------------------------------------------------------------------*/
FoamFile
{
    version     2.0;
    format      ascii;
    class       surfaceScalarField;
    location    "0.16";
    object      phi;
}
// * * * * * * * * * * * * * * * * * * * * * * * * * * * * * * * * * * * * * //

dimensions      [0 3 -1 0 0 0 0];

internalField   nonuniform List<scalar> 
760
(
1.41976e-08
-1.42538e-08
-2.21991e-08
3.63981e-08
-1.14143e-07
9.19438e-08
-2.452e-07
1.31057e-07
-3.9561e-07
1.50411e-07
-5.46682e-07
1.51072e-07
-6.8233e-07
1.35648e-07
-7.89663e-07
1.07333e-07
-8.5912e-07
6.94568e-08
-8.84527e-07
2.54072e-08
-8.63242e-07
-2.12847e-08
-7.96408e-07
-6.68341e-08
-6.89253e-07
-1.07155e-07
-5.51325e-07
-1.37929e-07
-3.96494e-07
-1.54831e-07
-2.42489e-07
-1.54005e-07
-1.09628e-07
-1.3286e-07
-1.84105e-08
-9.12173e-08
1.56651e-08
-3.40752e-08
1.56654e-08
-3.41792e-08
1.99241e-08
-1.8015e-07
1.82369e-07
-4.33435e-07
3.45228e-07
-7.63446e-07
4.61068e-07
-1.13074e-06
5.17702e-07
-1.49529e-06
5.15619e-07
-1.82095e-06
4.61309e-07
-2.07781e-06
3.64195e-07
-2.24334e-06
2.34987e-07
-2.30304e-06
8.51116e-08
-2.251e-06
-7.33299e-08
-2.09039e-06
-2.27446e-07
-1.83396e-06
-3.63581e-07
-1.50419e-06
-4.677e-07
-1.13272e-06
-5.26303e-07
-7.58629e-07
-5.28092e-07
-4.24914e-07
-4.66575e-07
-1.72502e-07
-3.4363e-07
-3.07715e-08
-1.75806e-07
-1.5106e-08
-9.2108e-08
1.12033e-07
-3.56532e-07
4.46795e-07
-7.63566e-07
7.52261e-07
-1.26684e-06
9.64341e-07
-1.81234e-06
1.0632e-06
-2.34598e-06
1.04927e-06
-2.81875e-06
9.3408e-07
-3.18979e-06
7.35226e-07
-3.42816e-06
4.73362e-07
-3.51398e-06
1.70935e-07
-3.43918e-06
-1.4813e-07
-3.20821e-06
-4.58416e-07
-2.83858e-06
-7.33214e-07
-2.36092e-06
-9.45361e-07
-1.81813e-06
-1.06909e-06
-1.263e-06
-1.08323e-06
-7.53645e-07
-9.75924e-07
-3.4657e-07
-7.50704e-07
-8.72351e-08
-4.35142e-07
-1.02341e-07
-1.45023e-07
2.57055e-07
-5.24799e-07
8.26571e-07
-1.08028e-06
1.30775e-06
-1.74534e-06
1.6294e-06
-2.45129e-06
1.76915e-06
-3.1325e-06
1.73047e-06
-3.73068e-06
1.53226e-06
-4.19773e-06
1.20228e-06
-4.4974e-06
7.73034e-07
-4.60632e-06
2.79854e-07
-4.51482e-06
-2.39631e-07
-4.22771e-06
-7.45528e-07
-3.76496e-06
-1.19597e-06
-3.16199e-06
-1.54833e-06
-2.46908e-06
-1.76201e-06
-1.74911e-06
-1.80319e-06
-1.07332e-06
-1.65172e-06
-5.14568e-07
-1.30946e-06
-1.39158e-07
-8.10552e-07
-2.41499e-07
-1.9338e-07
4.50435e-07
-6.84217e-07
1.31741e-06
-1.38406e-06
2.00759e-06
-2.20478e-06
2.45011e-06
-3.06206e-06
2.62643e-06
-3.87946e-06
2.54788e-06
-4.59141e-06
2.2442e-06
-5.14489e-06
1.75576e-06
-5.50039e-06
1.12854e-06
-5.63238e-06
4.11837e-07
-5.52979e-06
-3.42219e-07
-5.19684e-06
-1.07847e-06
-4.65401e-06
-1.7388e-06
-3.9389e-06
-2.26343e-06
-3.10656e-06
-2.59435e-06
-2.22827e-06
-2.68147e-06
-1.38826e-06
-2.49173e-06
-6.77823e-07
-2.01989e-06
-1.87575e-07
-1.3008e-06
-4.29075e-07
-2.397e-07
6.90134e-07
-8.39539e-07
1.91725e-06
-1.68169e-06
2.84975e-06
-2.65456e-06
3.42298e-06
-3.6574e-06
3.62927e-06
-4.60345e-06
3.49392e-06
-5.42127e-06
3.06202e-06
-6.05491e-06
2.3894e-06
-6.46335e-06
1.53698e-06
-6.61995e-06
5.68442e-07
-6.51239e-06
-4.49779e-07
-6.14329e-06
-1.44757e-06
-5.53167e-06
-2.35043e-06
-4.71485e-06
-3.08025e-06
-3.75027e-06
-3.55892e-06
-2.7162e-06
-3.71554e-06
-1.71012e-06
-3.49781e-06
-8.43958e-07
-2.88605e-06
-2.35977e-07
-1.90878e-06
-6.65051e-07
-2.86523e-07
9.76657e-07
-9.96345e-07
2.62707e-06
-1.98063e-06
3.83404e-06
-3.10269e-06
4.54503e-06
-4.24486e-06
4.77145e-06
-5.31093e-06
4.56e-06
-6.22555e-06
3.97664e-06
-6.93209e-06
3.09594e-06
-7.39009e-06
1.99498e-06
-7.57314e-06
7.51489e-07
-7.46782e-06
-5.55096e-07
-7.07414e-06
-1.84126e-06
-6.40746e-06
-3.0171e-06
-5.50187e-06
-3.98585e-06
-4.41414e-06
-4.64665e-06
-3.22727e-06
-4.90241e-06
-2.05163e-06
-4.67345e-06
-1.02188e-06
-3.9158e-06
-2.8809e-07
-2.64257e-06
-9.53141e-07
-3.36155e-07
1.31281e-06
-1.15978e-06
3.4507e-06
-2.28687e-06
4.96113e-06
-3.55321e-06
5.81137e-06
-4.82418e-06
6.04241e-06
-5.99599e-06
5.73181e-06
-6.99242e-06
4.97307e-06
-7.75949e-06
3.86301e-06
-8.26019e-06
2.49568e-06
-8.47024e-06
9.61534e-07
-8.37568e-06
-6.4965e-07
-7.97289e-06
-2.24405e-06
-7.271e-06
-3.71899e-06
-6.29692e-06
-4.95992e-06
-5.10227e-06
-5.8413e-06
-3.77079e-06
-6.23389e-06
-2.42378e-06
-6.02046e-06
-1.22019e-06
-5.1194e-06
-3.47547e-07
-3.51521e-06
-1.30069e-06
-3.90849e-07
1.70366e-06
-1.33452e-06
4.39438e-06
-2.60427e-06
6.23087e-06
-4.00483e-06
7.21194e-06
-5.38527e-06
7.42285e-06
-6.6378e-06
6.98434e-06
-7.69012e-06
6.02539e-06
-8.49587e-06
4.66876e-06
-9.02562e-06
3.02544e-06
-9.26005e-06
1.19596e-06
-9.18582e-06
-7.23883e-07
-8.79481e-06
-2.63506e-06
-8.08695e-06
-4.42685e-06
-7.07695e-06
-5.96992e-06
-5.80466e-06
-7.11359e-06
-4.34782e-06
-7.69073e-06
-2.83403e-06
-7.53425e-06
-1.44669e-06
-6.50673e-06
-4.17981e-07
-4.54392e-06
-1.71867e-06
-4.53427e-07
2.15709e-06
-1.52559e-06
5.46654e-06
-2.93469e-06
7.63997e-06
-4.4498e-06
8.72704e-06
-5.90586e-06
8.87892e-06
-7.19719e-06
8.27567e-06
-8.26289e-06
7.09108e-06
-9.07117e-06
5.47703e-06
-9.60587e-06
3.56014e-06
-9.85652e-06
1.44662e-06
-9.81233e-06
-7.6808e-07
-9.4603e-06
-2.98709e-06
-8.78809e-06
-5.09906e-06
-7.79209e-06
-6.96593e-06
-6.49144e-06
-8.41424e-06
-4.94738e-06
-9.23479e-06
-3.28472e-06
-9.19692e-06
-1.70847e-06
-8.08298e-06
-5.03523e-07
-5.74887e-06
-2.22219e-06
-5.28396e-07
2.68548e-06
-1.73985e-06
6.67799e-06
-3.27832e-06
9.17844e-06
-4.87213e-06
1.03209e-05
-6.34766e-06
1.03544e-05
-7.61158e-06
9.53959e-06
-8.62518e-06
8.10469e-06
-9.38054e-06
6.23239e-06
-9.88184e-06
4.06144e-06
-1.01323e-05
1.69711e-06
-1.01265e-05
-7.73917e-07
-9.84693e-06
-3.26665e-06
-9.26644e-06
-5.67954e-06
-8.35665e-06
-7.87572e-06
-7.10488e-06
-9.666e-06
-5.54079e-06
-1.07989e-05
-3.77073e-06
-1.0967e-05
-2.01216e-06
-9.84154e-06
-6.09682e-07
-7.15135e-06
-2.83187e-06
-6.23807e-07
3.30929e-06
-1.98784e-06
8.04203e-06
-3.63277e-06
1.08234e-05
-5.24322e-06
1.19313e-05
-6.64928e-06
1.17605e-05
-7.78655e-06
1.06769e-05
-8.65338e-06
8.97151e-06
-9.27687e-06
6.85588e-06
-9.68919e-06
4.47376e-06
-9.91244e-06
1.92037e-06
-9.94972e-06
-7.36635e-07
-9.78084e-06
-3.43554e-06
-9.36282e-06
-6.09756e-06
-8.63717e-06
-8.60137e-06
-7.54754e-06
-1.07556e-05
-6.07236e-06
-1.22741e-05
-4.27472e-06
-1.27646e-05
-2.36385e-06
-1.17524e-05
-7.44829e-07
-8.77037e-06
-3.5767e-06
-7.54284e-07
4.06358e-06
-2.28502e-06
9.57276e-06
-3.98829e-06
1.25266e-05
-5.51104e-06
1.34541e-05
-6.71221e-06
1.29617e-05
-7.58175e-06
1.15464e-05
-8.17373e-06
9.5635e-06
-8.56166e-06
7.2438e-06
-8.81195e-06
4.72405e-06
-8.96929e-06
2.0777e-06
-9.04844e-06
-6.57481e-07
-9.02949e-06
-3.45449e-06
-8.85586e-06
-6.27119e-06
-8.43751e-06
-9.01972e-06
-7.66496e-06
-1.15282e-05
-6.44343e-06
-1.34956e-05
-4.75711e-06
-1.44509e-05
-2.76715e-06
-1.37424e-05
-9.22544e-07
-1.0615e-05
-4.49925e-06
-9.45454e-07
5.00903e-06
-2.6493e-06
1.12766e-05
-4.31254e-06
1.41899e-05
-5.57567e-06
1.47172e-05
-6.37388e-06
1.37599e-05
-6.78723e-06
1.19598e-05
-6.94509e-06
9.72136e-06
-6.9748e-06
7.27351e-06
-6.97812e-06
4.72737e-06
-7.0219e-06
2.12148e-06
-7.13383e-06
-5.45548e-07
-7.2986e-06
-3.28972e-06
-7.4529e-06
-6.11688e-06
-7.48144e-06
-8.99119e-06
-7.22069e-06
-1.17889e-05
-6.48469e-06
-1.42316e-05
-5.13462e-06
-1.5801e-05
-3.21555e-06
-1.56614e-05
-1.16454e-06
-1.2666e-05
-5.66379e-06
-1.23757e-06
6.2466e-06
-3.08413e-06
1.31232e-05
-4.50933e-06
1.56151e-05
-5.237e-06
1.54449e-05
-5.35866e-06
1.38815e-05
-5.08614e-06
1.16872e-05
-4.63595e-06
9.27117e-06
-4.18488e-06
6.82245e-06
-3.86033e-06
4.40282e-06
-3.74311e-06
2.00425e-06
-3.87106e-06
-4.17592e-07
-4.23817e-06
-2.9226e-06
-4.787e-06
-5.56806e-06
-5.39519e-06
-8.383e-06
-5.86172e-06
-1.13224e-05
-5.90887e-06
-1.41845e-05
-5.23424e-06
-1.64756e-05
-3.66696e-06
-1.72287e-05
-1.50027e-06
-1.48327e-05
-7.16406e-06
-1.67403e-06
7.92063e-06
-3.51413e-06
1.49633e-05
-4.31681e-06
1.64178e-05
-4.09126e-06
1.52193e-05
-3.19637e-06
1.29866e-05
-2.00296e-06
1.04938e-05
-8.00164e-07
8.06837e-06
2.13685e-07
5.8086e-06
9.12172e-07
3.70434e-06
1.21939e-06
1.69704e-06
1.09597e-06
-2.94167e-07
5.35344e-07
-2.36198e-06
-4.28034e-07
-4.60468e-06
-1.69687e-06
-7.11416e-06
-3.0758e-06
-9.94348e-06
-4.23325e-06
-1.3027e-05
-4.69717e-06
-1.60117e-05
-3.96793e-06
-1.79579e-05
-1.94514e-06
-1.68555e-05
-9.1092e-06
-2.23085e-06
1.01515e-05
-3.59088e-06
1.63233e-05
-3.079e-06
1.59059e-05
-1.34588e-06
1.34862e-05
8.94172e-07
1.07466e-05
3.15124e-06
8.23676e-06
5.13361e-06
6.08601e-06
6.68355e-06
4.25865e-06
7.72027e-06
2.66762e-06
8.20082e-06
1.21649e-06
8.09823e-06
-1.91585e-07
7.39371e-06
-1.65746e-06
6.08209e-06
-3.29306e-06
4.19515e-06
-5.22721e-06
1.85096e-06
-7.59929e-06
-6.64016e-07
-1.0512e-05
-2.79362e-06
-1.38821e-05
-3.66281e-06
-1.70888e-05
-2.41175e-06
-1.81065e-05
-1.15209e-05
-2.57389e-06
1.27254e-05
-2.18381e-06
1.59332e-05
7.1726e-07
1.30048e-05
4.46813e-06
9.73531e-06
8.13114e-06
7.08359e-06
1.12987e-05
5.06922e-06
1.38255e-05
3.55917e-06
1.5684e-05
2.40021e-06
1.68871e-05
1.46442e-06
1.74502e-05
6.53451e-07
1.73717e-05
-1.13124e-07
1.66261e-05
-9.11866e-07
1.51633e-05
-1.8302e-06
1.29202e-05
-2.98415e-06
9.85915e-06
-4.53823e-06
6.06009e-06
-6.71296e-06
1.91116e-06
-9.73317e-06
-1.56021e-06
-1.36174e-05
-2.45851e-06
-1.72082e-05
-1.39795e-05
-7.85008e-07
1.35104e-05
4.08069e-06
1.10675e-05
1.02972e-05
6.78834e-06
1.57928e-05
4.23963e-06
2.01567e-05
2.7197e-06
2.34562e-05
1.76972e-06
2.58585e-05
1.15693e-06
2.75188e-05
7.39887e-07
2.8551e-05
4.32188e-07
2.90233e-05
1.81185e-07
2.89591e-05
-4.89505e-08
2.83359e-05
-2.88608e-07
2.70793e-05
-5.73602e-07
2.50529e-05
-9.57787e-07
2.205e-05
-1.53534e-06
1.78143e-05
-2.47724e-06
1.21716e-05
-4.09052e-06
5.47737e-06
-6.92311e-06
-1.29261e-07
-1.16016e-05
-1.41087e-05
1.35104e-05
2.45779e-05
3.13662e-05
3.56059e-05
3.83256e-05
4.00953e-05
4.12522e-05
4.19921e-05
4.24243e-05
4.26055e-05
4.25565e-05
4.22679e-05
4.16943e-05
4.07365e-05
3.92012e-05
3.6724e-05
3.26334e-05
2.57103e-05
1.41087e-05
)
;

boundaryField
{
    movingWall
    {
        type            calculated;
        value           uniform 0;
    }
    fixedWalls
    {
        type            calculated;
        value           uniform 0;
    }
    frontAndBack
    {
        type            empty;
        value           nonuniform List<scalar> 0();
    }
}


// ************************************************************************* //
