/*--------------------------------*- C++ -*----------------------------------*\
  =========                 |
  \\      /  F ield         | OpenFOAM: The Open Source CFD Toolbox
   \\    /   O peration     | Website:  https://openfoam.org
    \\  /    A nd           | Version:  8
     \\/     M anipulation  |
\*---------------------------------------------------------------------------*/
FoamFile
{
    version     2.0;
    format      ascii;
    class       volScalarField;
    location    "94";
    object      p;
}
// * * * * * * * * * * * * * * * * * * * * * * * * * * * * * * * * * * * * * //

dimensions      [0 2 -2 0 0 0 0];

internalField   nonuniform List<scalar> 
12504
(
0.117315
0.114557
0.108766
0.0999536
0.0884024
0.0744792
0.0585893
0.0411907
0.0227914
0.00392228
-0.0148981
-0.0331942
-0.050558
-0.0666619
-0.0812606
-0.0941829
-0.105316
-0.114589
-0.121964
-0.127419
-0.13095
-0.132566
-0.132297
-0.130193
-0.126343
-0.12088
-0.113988
-0.1059
-0.09689
-0.0872643
-0.0773351
-0.0674087
-0.0577537
-0.0485988
-0.0401032
-0.0323703
-0.0254308
-0.0192534
-0.0137835
-0.0088617
-0.00447614
-0.000307265
0.00332478
0.00708383
0.00971996
0.0127952
0.013057
0.0141901
0.00943986
0.00685961
0.119302
0.116478
0.110545
0.101519
0.089694
0.0754516
0.059213
0.0414556
0.0227079
0.00352017
-0.0155731
-0.0340867
-0.0516101
-0.06782
-0.0824805
-0.0954316
-0.106572
-0.115841
-0.123207
-0.128653
-0.132178
-0.133791
-0.133517
-0.131403
-0.127533
-0.122036
-0.115092
-0.106935
-0.0978399
-0.0881161
-0.0780802
-0.0680442
-0.0582806
-0.0490226
-0.0404313
-0.0326119
-0.0255948
-0.0193479
-0.0138155
-0.0088343
-0.00439586
-0.000167182
0.00351012
0.00733971
0.00999853
0.0131581
0.0133715
0.0145866
0.00963935
0.00709551
0.123329
0.120368
0.114146
0.104685
0.0923015
0.0774066
0.0604555
0.0419651
0.0225066
0.00267074
-0.0169752
-0.0359262
-0.053767
-0.0701844
-0.0849625
-0.0979655
-0.109115
-0.118372
-0.125719
-0.131148
-0.134662
-0.136269
-0.135989
-0.133859
-0.129953
-0.12439
-0.117345
-0.109049
-0.0997813
-0.0898576
-0.079604
-0.0693435
-0.0593582
-0.0498896
-0.0411035
-0.0331083
-0.025934
-0.0195467
-0.0138888
-0.00878889
-0.00424268
0.000101959
0.00387801
0.00783464
0.0105646
0.0138527
0.0140303
0.0153127
0.0100976
0.00743997
0.129494
0.12632
0.119651
0.109517
0.0962691
0.0803617
0.0623041
0.0426758
0.0221158
0.00128009
-0.0192118
-0.0388234
-0.0571344
-0.0738497
-0.0887879
-0.101853
-0.113005
-0.122233
-0.129545
-0.134948
-0.138451
-0.140058
-0.139779
-0.137636
-0.133685
-0.12803
-0.120836
-0.112331
-0.102798
-0.0925648
-0.0819731
-0.0713632
-0.0610331
-0.0512376
-0.0421506
-0.0338849
-0.0264708
-0.0198699
-0.0140228
-0.00874366
-0.0040365
0.000482723
0.0044085
0.0085535
0.0114016
0.0148675
0.0150182
0.016357
0.0108004
0.00788825
0.137952
0.134481
0.127191
0.116122
0.101667
0.0843447
0.0647381
0.0435166
0.0214184
-0.000804979
-0.0224569
-0.0429569
-0.0618808
-0.0789661
-0.0940852
-0.107202
-0.118331
-0.127504
-0.13476
-0.140129
-0.143626
-0.145248
-0.144993
-0.142856
-0.138865
-0.133102
-0.125714
-0.116927
-0.107028
-0.0963637
-0.0852974
-0.0741961
-0.0633814
-0.0531279
-0.043622
-0.0349821
-0.0272397
-0.0203477
-0.0142469
-0.00872613
-0.00380582
0.000947903
0.00507713
0.00947035
0.012498
0.0161742
0.0163389
0.0176754
0.0117595
0.00838954
0.148915
0.145054
0.136948
0.124645
0.108593
0.0893913
0.0677222
0.0443785
0.0202375
-0.00381371
-0.0269688
-0.0485884
-0.0682503
-0.0857469
-0.101034
-0.114163
-0.125219
-0.134293
-0.141465
-0.146792
-0.150302
-0.151974
-0.151787
-0.149699
-0.145695
-0.139822
-0.132203
-0.123057
-0.11268
-0.101441
-0.0897395
-0.0779783
-0.0665139
-0.0556489
-0.0455879
-0.0364558
-0.0282877
-0.0210212
-0.0146005
-0.00877359
-0.00358902
0.0014603
0.00585175
0.0105514
0.0138431
0.0177387
0.0180037
0.0192189
0.0129867
0.00889131
0.162667
0.158308
0.149161
0.135278
0.117175
0.0955447
0.0711998
0.0450998
0.0183143
-0.00807799
-0.033117
-0.0560862
-0.0765797
-0.0944816
-0.109875
-0.122931
-0.133833
-0.142741
-0.14979
-0.155075
-0.158632
-0.160416
-0.16038
-0.158424
-0.154468
-0.148506
-0.140628
-0.131041
-0.120053
-0.108068
-0.0955317
-0.0829027
-0.0705858
-0.0589224
-0.0481434
-0.0383812
-0.0296771
-0.0219439
-0.015134
-0.00893448
-0.00343499
0.00197117
0.00669245
0.0117565
0.0154243
0.0195271
0.0200197
0.0209651
0.0144738
0.00939614
0.179566
0.174583
0.164138
0.148272
0.127575
0.102854
0.0750819
0.0454428
0.0152731
-0.0140755
-0.0414244
-0.0659606
-0.0873242
-0.105552
-0.120918
-0.13376
-0.14438
-0.153026
-0.159902
-0.165151
-0.168825
-0.170825
-0.171083
-0.1694
-0.165602
-0.159609
-0.15146
-0.14134
-0.129577
-0.116626
-0.103001
-0.0892372
-0.0758094
-0.0631128
-0.0514149
-0.0408563
-0.0314869
-0.0231836
-0.0159096
-0.00927052
-0.00340455
0.00241697
0.00754918
0.0130381
0.0172144
0.0215045
0.0223565
0.0229335
0.0161811
0.0100007
0.200059
0.194308
0.182266
0.163939
0.14
0.111374
0.0792311
0.0450597
0.0105658
-0.0224984
-0.0526366
-0.0789198
-0.101095
-0.119455
-0.134559
-0.146966
-0.157119
-0.165366
-0.172001
-0.177235
-0.181153
-0.18355
-0.184335
-0.183156
-0.179704
-0.173791
-0.165378
-0.154621
-0.141874
-0.127663
-0.112608
-0.0973526
-0.0824731
-0.0684387
-0.0555663
-0.0440058
-0.0338161
-0.0248252
-0.017003
-0.00985999
-0.00357363
0.00271594
0.00835412
0.0143326
0.0191394
0.0236044
0.0248832
0.0251057
0.0179935
0.0108287
0.224695
0.218008
0.20403
0.182675
0.154711
0.121155
0.083434
0.0434384
0.00339144
-0.0343529
-0.0678252
-0.0959575
-0.118717
-0.136835
-0.151296
-0.162942
-0.172365
-0.180026
-0.186333
-0.191585
-0.195822
-0.199053
-0.200753
-0.200454
-0.197658
-0.192015
-0.183375
-0.171852
-0.157835
-0.141961
-0.125001
-0.107762
-0.0909673
-0.0751891
-0.0608089
-0.047987
-0.036786
-0.0269722
-0.0185062
-0.0108015
-0.00403956
0.00276504
0.00900796
0.0155324
0.02102
0.0256361
0.0272673
0.0272167
0.0195969
0.0118033
0.254139
0.246328
0.230031
0.204979
0.172038
0.13224
0.0873502
0.0397973
-0.00744601
-0.0511071
-0.0885205
-0.118462
-0.141315
-0.158543
-0.17177
-0.182177
-0.190491
-0.197301
-0.203186
-0.208587
-0.213614
-0.218015
-0.22119
-0.222362
-0.220732
-0.215691
-0.206911
-0.194446
-0.178754
-0.160639
-0.141097
-0.121179
-0.10182
-0.083743
-0.0674108
-0.0529939
-0.0405433
-0.0297477
-0.0205307
-0.0122181
-0.00492977
0.00243298
0.00935578
0.0164281
0.0224896
0.0271349
0.0288597
0.0285714
0.0204517
0.0125194
0.289182
0.280047
0.261014
0.231485
0.192414
0.144652
0.0904421
0.0328874
-0.0238358
-0.0749776
-0.116906
-0.148307
-0.170342
-0.185659
-0.196789
-0.205273
-0.211919
-0.21747
-0.222794
-0.228522
-0.234827
-0.241212
-0.246803
-0.25034
-0.250659
-0.246778
-0.238064
-0.224451
-0.206503
-0.185297
-0.162187
-0.138588
-0.115748
-0.0946007
-0.0757129
-0.0592633
-0.0452613
-0.0332941
-0.023211
-0.0142588
-0.0064043
0.001545
0.0091398
0.016613
0.0229049
0.027256
0.0287198
0.0282162
0.0200859
0.0125591
0.33075
0.320099
0.297892
0.263014
0.216421
0.158415
0.0919209
0.0207449
-0.0488846
-0.109566
-0.156289
-0.188024
-0.20753
-0.21938
-0.227233
-0.232843
-0.236975
-0.24062
-0.245134
-0.251418
-0.25965
-0.269179
-0.278838
-0.286236
-0.289728
-0.287865
-0.279587
-0.264637
-0.243687
-0.218192
-0.190069
-0.161324
-0.133689
-0.108397
-0.0861358
-0.0670787
-0.0511416
-0.0377734
-0.0267103
-0.0171012
-0.00865544
-0.000138678
0.00794917
0.0153979
0.0213244
0.0248993
0.0259215
0.0254497
0.0183299
0.0118297
0.379888
0.367593
0.341774
0.300639
0.244824
0.173553
0.0906369
0.000456444
-0.0874548
-0.16083
-0.212121
-0.241365
-0.254952
-0.260796
-0.263723
-0.265123
-0.265443
-0.266151
-0.269403
-0.27651
-0.287466
-0.301316
-0.317278
-0.331
-0.339913
-0.341729
-0.334723
-0.318375
-0.293549
-0.262237
-0.22715
-0.191195
-0.156888
-0.125934
-0.0991807
-0.0767594
-0.0584019
-0.0433623
-0.0312162
-0.0209477
-0.0119181
-0.00296717
0.0052069
0.012081
0.0166914
0.0190792
0.0198772
0.0200302
0.0150703
0.0103841
0.437737
0.423812
0.394007
0.34579
0.278558
0.189973
0.0844919
-0.0328536
-0.146511
-0.237355
-0.292594
-0.313782
-0.315057
-0.310575
-0.306073
-0.301229
-0.295673
-0.291809
-0.292945
-0.300955
-0.315762
-0.336667
-0.359435
-0.38227
-0.399952
-0.408578
-0.405189
-0.388526
-0.359435
-0.320651
-0.27616
-0.230301
-0.186823
-0.148172
-0.115438
-0.0886633
-0.0672721
-0.0502482
-0.0369295
-0.026008
-0.0164789
-0.00744802
6.61259e-05
0.00525764
0.00803478
0.00918515
0.0102983
0.0118619
0.0100114
0.00816495
0.505473
0.490185
0.456311
0.400458
0.318877
0.207272
0.0690864
-0.0897946
-0.236756
-0.34845
-0.404689
-0.408881
-0.38833
-0.367377
-0.351881
-0.337823
-0.323454
-0.312802
-0.310394
-0.318431
-0.336964
-0.36439
-0.397258
-0.43197
-0.461991
-0.481765
-0.486402
-0.473124
-0.441908
-0.395631
-0.339716
-0.28085
-0.22503
-0.176061
-0.135464
-0.103111
-0.0779563
-0.0586127
-0.044042
-0.0324945
-0.0226932
-0.0141902
-0.008286
-0.0056793
-0.00518752
-0.00504818
-0.00299373
0.000782096
0.00286493
0.00510451
0.584172
0.568171
0.531005
0.467647
0.368254
0.225046
0.0366591
-0.189432
-0.380545
-0.502926
-0.544465
-0.517334
-0.4655
-0.423149
-0.393963
-0.36834
-0.343175
-0.324588
-0.317682
-0.324521
-0.345391
-0.379073
-0.422631
-0.469178
-0.513094
-0.547192
-0.564744
-0.560792
-0.5332
-0.48342
-0.417216
-0.343802
-0.272708
-0.210459
-0.159734
-0.120332
-0.0905877
-0.0685887
-0.0526992
-0.0406197
-0.0309701
-0.0238273
-0.0205708
-0.021295
-0.0232176
-0.0236903
-0.0200623
-0.0132614
-0.00636826
0.00127929
0.674444
0.658987
0.621098
0.551993
0.432687
0.246047
-0.025303
-0.345538
-0.534533
-0.652177
-0.661221
-0.596871
-0.516259
-0.458972
-0.422365
-0.389123
-0.35598
-0.331618
-0.321144
-0.326116
-0.347328
-0.384331
-0.434287
-0.491377
-0.548125
-0.596254
-0.62799
-0.637222
-0.619301
-0.572759
-0.501484
-0.41571
-0.328724
-0.251193
-0.188283
-0.140331
-0.105168
-0.0802044
-0.0629609
-0.0505727
-0.0417045
-0.036897
-0.0372557
-0.0417901
-0.0460131
-0.0466051
-0.0407158
-0.0300269
-0.0173874
-0.00312081
0.775735
0.763079
0.729628
0.659739
0.524334
0.283628
-0.0405444
-0.429234
-0.725709
-0.822075
-0.794554
-0.659989
-0.542614
-0.475717
-0.429359
-0.394998
-0.363923
-0.34127
-0.330493
-0.334087
-0.354289
-0.39193
-0.445045
-0.508352
-0.573917
-0.632695
-0.676438
-0.697888
-0.691309
-0.65259
-0.582224
-0.489045
-0.388616
-0.296005
-0.220024
-0.162552
-0.121402
-0.0932888
-0.0747584
-0.0624706
-0.0551843
-0.053714
-0.0584572
-0.0670087
-0.0732457
-0.0733874
-0.0644729
-0.0490184
-0.0297346
-0.00787857
0.885424
0.879264
0.857531
0.79803
0.66022
0.392472
-0.0236202
-0.470519
-0.810923
-0.555125
-0.477982
-0.437619
-0.406041
-0.381654
-0.362252
-0.351786
-0.353727
-0.37159
-0.407701
-0.461251
-0.527452
-0.598108
-0.663624
-0.715036
-0.745168
-0.747757
-0.717297
-0.65123
-0.555543
-0.445929
-0.340691
-0.252502
-0.185636
-0.138531
-0.107375
-0.0878515
-0.0762949
-0.0714964
-0.0742713
-0.0838995
-0.0964385
-0.104275
-0.103348
-0.0906105
-0.069559
-0.0428635
-0.0127749
0.998287
1.00325
1.00094
0.973086
0.841124
0.552658
0.0881443
-0.470367
-0.438558
-0.422062
-0.405654
-0.391084
-0.381729
-0.38217
-0.39704
-0.430133
-0.481753
-0.547886
-0.620293
-0.689045
-0.744824
-0.779988
-0.788594
-0.764453
-0.703257
-0.608303
-0.493965
-0.380005
-0.282185
-0.207419
-0.155236
-0.12164
-0.101787
-0.0918163
-0.0904312
-0.0981665
-0.112895
-0.129198
-0.138118
-0.135489
-0.11815
-0.0907753
-0.0561233
-0.0175769
1.10667
1.12565
1.15371
1.17152
1.0713
0.793689
-0.436276
-0.437372
-0.433542
-0.424273
-0.41712
-0.417099
-0.428923
-0.457712
-0.504473
-0.566677
-0.636628
-0.704818
-0.761614
-0.79926
-0.811211
-0.791234
-0.734265
-0.641895
-0.52678
-0.40864
-0.305077
-0.225198
-0.169738
-0.134951
-0.115874
-0.108513
-0.111388
-0.124545
-0.144345
-0.164035
-0.173381
-0.168448
-0.145813
-0.111582
-0.0687665
-0.022038
1.19925
1.23393
1.29619
1.36792
1.32057
1.11525
-0.457504
-0.465242
-0.461532
-0.458156
-0.459121
-0.468781
-0.491538
-0.529477
-0.58285
-0.644368
-0.706718
-0.760564
-0.797664
-0.810825
-0.793452
-0.740189
-0.651817
-0.539468
-0.421935
-0.317369
-0.236141
-0.180041
-0.145977
-0.129158
-0.125489
-0.133314
-0.152113
-0.17677
-0.19934
-0.208185
-0.200524
-0.172061
-0.130744
-0.0800008
-0.0259127
1.26411
1.31212
1.40517
1.52736
1.54877
1.45875
-0.481835
-0.503778
-0.505904
-0.50792
-0.511672
-0.519579
-0.534817
-0.560258
-0.597363
-0.643338
-0.692986
-0.738266
-0.770927
-0.782828
-0.766805
-0.717201
-0.634479
-0.52844
-0.416443
-0.316004
-0.23772
-0.184232
-0.153323
-0.140426
-0.141463
-0.15474
-0.179196
-0.20835
-0.23335
-0.242401
-0.229965
-0.195227
-0.146992
-0.0890612
-0.0289781
1.29073
1.34596
1.45607
1.60488
1.69435
-0.516781
-0.553253
-0.561
-0.569592
-0.577612
-0.58429
-0.590645
-0.599419
-0.614035
-0.636209
-0.664672
-0.694094
-0.717248
-0.724585
-0.708776
-0.663101
-0.588121
-0.492139
-0.390545
-0.299213
-0.228228
-0.180893
-0.155722
-0.148304
-0.154886
-0.173928
-0.203892
-0.236989
-0.263413
-0.270476
-0.254273
-0.21358
-0.159127
-0.0952844
-0.0310566
1.27321
1.32723
1.43445
1.57754
1.69478
-0.58181
-0.614277
-0.627334
-0.643118
-0.656376
-0.662232
-0.65882
-0.647971
-0.634928
-0.625897
-0.624818
-0.630698
-0.637736
-0.637043
-0.620524
-0.578803
-0.513798
-0.431471
-0.344617
-0.266798
-0.207186
-0.169371
-0.152167
-0.151411
-0.164148
-0.18914
-0.224391
-0.260828
-0.287781
-0.292368
-0.271871
-0.225731
-0.166215
-0.0981989
-0.0320387
1.21244
1.25711
1.34202
1.4488
1.55072
-0.656611
-0.68126
-0.700249
-0.723554
-0.742176
-0.747085
-0.733335
-0.701424
-0.657954
-0.613158
-0.576461
-0.552189
-0.537781
-0.524973
-0.503381
-0.469032
-0.416118
-0.350168
-0.28129
-0.220455
-0.17554
-0.149779
-0.141956
-0.148562
-0.167891
-0.198985
-0.239258
-0.278333
-0.304854
-0.306354
-0.28142
-0.230681
-0.167672
-0.0975802
-0.031895
1.11555
1.14532
1.19556
1.24512
1.2915
1.2028
-0.730897
-0.744616
-0.770495
-0.801958
-0.824415
-0.827318
-0.80255
-0.749422
-0.675654
-0.594761
-0.520922
-0.46356
-0.424612
-0.397902
-0.373421
-0.343704
-0.30348
-0.255249
-0.206022
-0.164076
-0.135563
-0.122856
-0.124802
-0.139077
-0.16539
-0.202764
-0.247644
-0.288422
-0.313478
-0.311345
-0.282106
-0.227929
-0.163325
-0.093481
-0.0306836
0.994224
1.00739
1.02162
1.01435
1.00642
0.818216
-0.773213
-0.79385
-0.827319
-0.865243
-0.890564
-0.889537
-0.852688
-0.779027
-0.677662
-0.564765
-0.457706
-0.369291
-0.306128
-0.264887
-0.236608
-0.211952
-0.185069
-0.154753
-0.125213
-0.102076
-0.0896425
-0.0894583
-0.10091
-0.123131
-0.156925
-0.200666
-0.249374
-0.290589
-0.313027
-0.306796
-0.273681
-0.217531
-0.153459
-0.0862361
-0.0285387
0.860993
0.860061
0.84365
0.791112
0.737698
0.391023
0.0246028
-0.817926
-0.798524
-0.825813
-0.865182
-0.906358
-0.930682
-0.922724
-0.87267
-0.780375
-0.656599
-0.519298
-0.387567
-0.274467
-0.191435
-0.136702
-0.103862
-0.0835061
-0.0686945
-0.0546269
-0.0431569
-0.0371482
-0.0392383
-0.0505729
-0.0714808
-0.102269
-0.144001
-0.193715
-0.244847
-0.284826
-0.30339
-0.292744
-0.256509
-0.200119
-0.1388
-0.0764353
-0.0256574
0.727369
0.715694
0.681149
0.59953
0.427308
0.1814
-0.345779
-0.773542
-0.874387
-0.826111
-0.812804
-0.841191
-0.883107
-0.922486
-0.940644
-0.922228
-0.858571
-0.751207
-0.612356
-0.460573
-0.314562
-0.188465
-0.0917291
-0.0260405
0.0123984
0.0313095
0.0384746
0.0397794
0.0364457
0.0280249
0.013195
-0.00904395
-0.0398131
-0.0797516
-0.129122
-0.183357
-0.234714
-0.27143
-0.284893
-0.269783
-0.231557
-0.176877
-0.120467
-0.0648695
-0.0222755
0.600801
0.583319
0.538883
0.450685
0.287554
0.00788227
-0.36282
-0.889213
-1.16378
-1.10685
-0.960659
-0.881146
-0.822129
-0.817244
-0.844622
-0.883047
-0.913926
-0.920254
-0.888594
-0.812738
-0.696326
-0.552198
-0.397814
-0.249808
-0.120676
-0.0183688
0.0542408
0.0986578
0.120044
0.125237
0.119121
0.10589
0.0866865
0.0612514
0.0289367
-0.0114143
-0.0597513
-0.114799
-0.170736
-0.219442
-0.250725
-0.25814
-0.239002
-0.200369
-0.149482
-0.0998823
-0.052447
-0.0186411
0.486054
0.466579
0.419594
0.335961
0.19517
-0.0197218
-0.327075
-0.687589
-1.01351
-1.18165
-1.16515
-1.05387
-0.924388
-0.856239
-0.822531
-0.818651
-0.836771
-0.862275
-0.878125
-0.869028
-0.82446
-0.741243
-0.624524
-0.486234
-0.341053
-0.202231
-0.0794325
0.0211315
0.096276
0.145658
0.171802
0.179
0.171769
0.154332
0.128884
0.0960844
0.0560546
0.00849252
-0.0452171
-0.102161
-0.155971
-0.199008
-0.223046
-0.224102
-0.202063
-0.165052
-0.119987
-0.0786238
-0.0400873
-0.0149902
0.385224
0.365958
0.321499
0.246748
0.131206
-0.032758
-0.246127
-0.5013
-0.718967
-0.863783
-0.921578
-0.902316
-0.851014
-0.807592
-0.786272
-0.784079
-0.79411
-0.806482
-0.807613
-0.785956
-0.734761
-0.653193
-0.546413
-0.423957
-0.296771
-0.174593
-0.0645923
0.0284729
0.101631
0.153675
0.184822
0.196292
0.192012
0.175045
0.147941
0.112038
0.0684251
0.0181149
-0.0361688
-0.0903009
-0.138062
-0.172959
-0.188875
-0.184326
-0.161324
-0.128202
-0.0906293
-0.0582302
-0.0286046
-0.0115287
0.298341
0.280423
0.240818
0.176049
0.0823447
-0.0446796
-0.200764
-0.379801
-0.546311
-0.676152
-0.746771
-0.759731
-0.742954
-0.72492
-0.716958
-0.718194
-0.723141
-0.725162
-0.716036
-0.688481
-0.638467
-0.566064
-0.4753
-0.372979
-0.266807
-0.163662
-0.0688174
0.0138691
0.0816322
0.133441
0.166113
0.18255
0.182999
0.169724
0.144949
0.110414
0.068095
0.0202279
-0.0295608
-0.0766352
-0.115518
-0.140877
-0.149335
-0.141278
-0.119874
-0.0926761
-0.0635281
-0.0399822
-0.0186013
-0.00841659
0.224315
0.208283
0.174007
0.118816
0.042393
-0.057754
-0.176308
-0.308049
-0.436263
-0.540606
-0.606821
-0.635592
-0.641383
-0.640233
-0.64011
-0.641999
-0.644079
-0.64055
-0.626692
-0.598566
-0.553871
-0.492837
-0.41827
-0.334797
-0.247716
-0.161971
-0.0816359
-0.00993059
0.0507588
0.0983552
0.13291
0.152008
0.156617
0.148167
0.128293
0.0987544
0.0619462
0.0208031
-0.0207163
-0.0582215
-0.0876006
-0.10414
-0.107296
-0.0986251
-0.0812172
-0.0611139
-0.0403108
-0.0247083
-0.0104006
-0.00575709
0.161673
0.147704
0.118396
0.0718197
0.00896591
-0.0710199
-0.163665
-0.264361
-0.362839
-0.445905
-0.505194
-0.540306
-0.557612
-0.565627
-0.570001
-0.572593
-0.572403
-0.566201
-0.551098
-0.524885
-0.486275
-0.435488
-0.374427
-0.30627
-0.234766
-0.163559
-0.0958091
-0.0340966
0.0196418
0.063555
0.0965347
0.11708
0.125312
0.12191
0.10811
0.0856078
0.0568049
0.0247108
-0.00701702
-0.0347306
-0.054797
-0.0661671
-0.0672543
-0.0605742
-0.0484393
-0.0353146
-0.0218081
-0.0126951
-0.00404557
-0.00359105
0.108924
0.0969546
0.0720233
0.0329186
-0.0190928
-0.0836805
-0.157461
-0.236335
-0.31355
-0.381106
-0.433471
-0.469237
-0.490986
-0.503371
-0.510291
-0.513355
-0.512185
-0.505182
-0.490562
-0.466979
-0.433746
-0.391151
-0.340581
-0.284299
-0.225016
-0.165446
-0.108046
-0.0548715
-0.00757992
0.0321973
0.0632591
0.0845938
0.0958734
0.0973474
0.0899038
0.0750232
0.0548034
0.031866
0.00914741
-0.0105605
-0.024748
-0.032632
-0.0338222
-0.0302274
-0.0231314
-0.0157903
-0.00798707
-0.0037555
0.000631356
-0.00190435
0.0646772
0.0545119
0.0333561
0.00056463
-0.0426714
-0.0953925
-0.15503
-0.218185
-0.280296
-0.336188
-0.381823
-0.415544
-0.438294
-0.452603
-0.460931
-0.46446
-0.463169
-0.456249
-0.442646
-0.42158
-0.392765
-0.356559
-0.314029
-0.266841
-0.217002
-0.166568
-0.117471
-0.0713793
-0.0297057
0.00623096
0.0353865
0.0569505
0.0704994
0.0760939
0.0743146
0.066304
0.0536979
0.0385532
0.0230739
0.0093408
-0.000907679
-0.007142
-0.00918563
-0.00832605
-0.00509825
-0.00195
0.00176893
0.00256764
0.00390136
-0.000646523
0.0276846
0.0190779
0.00113779
-0.0264124
-0.0625269
-0.106031
-0.15491
-0.206469
-0.257428
-0.304175
-0.343707
-0.374503
-0.396717
-0.41161
-0.420598
-0.424485
-0.423364
-0.41685
-0.404389
-0.385585
-0.360389
-0.329187
-0.292841
-0.252624
-0.210069
-0.166774
-0.124274
-0.0839389
-0.0469486
-0.0143678
0.0129256
0.0342604
0.0492398
0.057841
0.0604191
0.0577943
0.0511587
0.0420308
0.0320146
0.0226114
0.0150747
0.00984447
0.00719386
0.00624006
0.00691041
0.00730521
0.00828951
0.00681159
0.0060582
0.00025117
-0.00314062
-0.0104349
-0.0256692
-0.0489133
-0.0792579
-0.115536
-0.15612
-0.198881
-0.241335
-0.280842
-0.315147
-0.342918
-0.36389
-0.378565
-0.387681
-0.391741
-0.390861
-0.384887
-0.373565
-0.356741
-0.334501
-0.307241
-0.275688
-0.240858
-0.203958
-0.166256
-0.128991
-0.0932953
-0.0601709
-0.0304715
-0.00493643
0.0158672
0.0315798
0.0421389
0.0477512
0.0489878
0.0466815
0.0419338
0.0359195
0.0296994
0.0242484
0.0199424
0.017137
0.0152232
0.0143929
0.013126
0.0123837
0.00948457
0.00737348
0.000861271
-0.0287223
-0.0349291
-0.047913
-0.0676419
-0.0933231
-0.123892
-0.158001
-0.193956
-0.229818
-0.263588
-0.293519
-0.31844
-0.337873
-0.351887
-0.360801
-0.36489
-0.36425
-0.358834
-0.348562
-0.333426
-0.313596
-0.289465
-0.261668
-0.231043
-0.198568
-0.165273
-0.132176
-0.100221
-0.0702642
-0.043007
-0.0190779
0.00103155
0.0169917
0.0287173
0.0363169
0.0401831
0.0408994
0.0392668
0.0361485
0.0323384
0.0285696
0.025177
0.0225596
0.0202867
0.0186853
0.0165045
0.0147386
0.011019
0.00807829
0.00125143
-0.0498324
-0.0551485
-0.0662813
-0.0831567
-0.105082
-0.131121
-0.160144
-0.190781
-0.22149
-0.250696
-0.276995
-0.299354
-0.317199
-0.330359
-0.338895
-0.342914
-0.342471
-0.337565
-0.328211
-0.314492
-0.296622
-0.274991
-0.250161
-0.222844
-0.193855
-0.16405
-0.134278
-0.105341
-0.0779658
-0.0527571
-0.03026
-0.0109041
0.0050063
0.0173674
0.0262216
0.0318392
0.0346351
0.035196
0.0341693
0.0321846
0.0297853
0.0272625
0.0250242
0.0227523
0.0208354
0.0182196
0.0158978
0.0117618
0.00835985
0.00148019
-0.0671072
-0.0717016
-0.0813296
-0.0959058
-0.114824
-0.137272
-0.162295
-0.188765
-0.215425
-0.240994
-0.264306
-0.284439
-0.300791
-0.313058
-0.321138
-0.325023
-0.324721
-0.32025
-0.311675
-0.299127
-0.282848
-0.263214
-0.240734
-0.216028
-0.189791
-0.162752
-0.135633
-0.109122
-0.0838473
-0.0603433
-0.0390913
-0.0204729
-0.0047722
0.00789202
0.0175176
0.0242909
0.028509
0.0306166
0.0311148
0.0304884
0.0291867
0.0274531
0.02567
0.0235854
0.021616
0.0188546
0.0162747
0.0119818
0.00836506
0.00159577
-0.0810648
-0.0850821
-0.0935044
-0.106249
-0.122784
-0.142405
-0.164296
-0.187511
-0.210998
-0.233683
-0.25457
-0.272829
-0.287858
-0.299279
-0.306891
-0.310607
-0.310397
-0.306281
-0.298348
-0.286753
-0.271751
-0.253702
-0.233077
-0.210424
-0.186354
-0.161496
-0.136481
-0.111907
-0.0883285
-0.0662243
-0.0460274
-0.0280838
-0.0126619
0.000109182
0.0101968
0.0177284
0.0229202
0.026121
0.027725
0.0281124
0.0276762
0.0266182
0.0252839
0.0234625
0.0215786
0.0188344
0.0161763
0.0118826
0.0082065
0.00163655
-0.0921205
-0.0956853
-0.103161
-0.114472
-0.129151
-0.146579
-0.16605
-0.186751
-0.207781
-0.228213
-0.247173
-0.263903
-0.277811
-0.288484
-0.29566
-0.2992
-0.299043
-0.295207
-0.287786
-0.27695
-0.262954
-0.246148
-0.226966
-0.205909
-0.183522
-0.160363
-0.136993
-0.113943
-0.0917099
-0.0707308
-0.0514025
-0.0340439
-0.0189109
-0.0061396
0.0042158
0.0122412
0.0180991
0.022069
0.0244681
0.0256129
0.0258471
0.0253369
0.0243998
0.0228511
0.0211113
0.018464
0.0158269
0.0116152
0.00796878
0.00163222
-0.100601
-0.103822
-0.110577
-0.120801
-0.134074
-0.149848
-0.167497
-0.186306
-0.205482
-0.224203
-0.241681
-0.257211
-0.270219
-0.280271
-0.287074
-0.29045
-0.290321
-0.286695
-0.279669
-0.269416
-0.25619
-0.240329
-0.222242
-0.202392
-0.181278
-0.159408
-0.137288
-0.115402
-0.0942051
-0.0741008
-0.055459
-0.0385791
-0.023708
-0.010986
-0.000482267
0.00786086
0.0141689
0.0186721
0.0216361
0.0233342
0.0240697
0.0239842
0.0233731
0.0220687
0.020483
0.0179591
0.0153876
0.0112902
0.0077143
0.00160527
-0.106755
-0.109728
-0.115964
-0.125405
-0.13767
-0.152258
-0.168603
-0.186058
-0.203905
-0.221392
-0.237791
-0.252438
-0.26477
-0.274347
-0.280856
-0.284098
-0.28398
-0.280503
-0.273764
-0.263935
-0.251266
-0.236087
-0.218788
-0.199807
-0.179608
-0.158665
-0.137448
-0.116405
-0.095963
-0.0765009
-0.0583685
-0.0418524
-0.0271931
-0.0145334
-0.00395206
0.00458969
0.0111919
0.0160523
0.0194031
0.0214867
0.0225779
0.0228019
0.0224374
0.0213281
0.0198767
0.0174685
0.0149716
0.0109859
0.00748795
0.00157265
-0.110761
-0.113574
-0.119474
-0.128408
-0.140021
-0.153844
-0.169349
-0.185931
-0.202918
-0.219606
-0.235302
-0.249366
-0.261248
-0.270505
-0.276812
-0.27996
-0.279844
-0.276463
-0.269911
-0.260357
-0.248052
-0.233315
-0.216527
-0.198107
-0.178501
-0.158159
-0.137527
-0.117033
-0.0970836
-0.0780426
-0.0602474
-0.0439762
-0.0294649
-0.0168576
-0.00623896
0.00241772
0.00919701
0.0142769
0.0178694
0.0201969
0.0215157
0.0219412
0.0217414
0.0207667
0.0194125
0.0170917
0.0146549
0.0107565
0.00731902
0.00154921
-0.112733
-0.11547
-0.121204
-0.12989
-0.141183
-0.154631
-0.169724
-0.185878
-0.202444
-0.218738
-0.234087
-0.247863
-0.259521
-0.268617
-0.274822
-0.277921
-0.277805
-0.274471
-0.26801
-0.258592
-0.246465
-0.231946
-0.215409
-0.197265
-0.17795
-0.157902
-0.137559
-0.117335
-0.0976285
-0.0787959
-0.0611685
-0.0450204
-0.0305847
-0.0180068
-0.00737346
0.00133565
0.00819834
0.0133824
0.0170912
0.019537
0.0209665
0.0214915
0.0213728
0.0204683
0.0191617
0.0168922
0.0144805
0.0106416
0.00721848
0.00155324
0.117314
0.11456
0.108768
0.0999539
0.0884024
0.0744794
0.0585893
0.0411903
0.0227907
0.0039213
-0.0148991
-0.0331952
-0.0505588
-0.0666625
-0.0812611
-0.0941832
-0.105316
-0.11459
-0.121964
-0.127419
-0.13095
-0.132567
-0.132298
-0.130194
-0.126344
-0.120881
-0.113989
-0.1059
-0.0968901
-0.0872643
-0.0773348
-0.0674085
-0.0577533
-0.0485985
-0.0401029
-0.0323702
-0.0254307
-0.0192535
-0.0137839
-0.00886159
-0.00447797
-0.000305693
0.00331954
0.00709047
0.00970694
0.0128148
0.0130291
0.0142382
0.00938841
0.00695452
0.119301
0.116481
0.110547
0.101519
0.0896941
0.0754518
0.059213
0.0414551
0.022707
0.00351911
-0.0155742
-0.0340878
-0.051611
-0.0678207
-0.082481
-0.095432
-0.106572
-0.115841
-0.123207
-0.128654
-0.132179
-0.133791
-0.133517
-0.131404
-0.127534
-0.122037
-0.115093
-0.106936
-0.0978401
-0.0881161
-0.0780801
-0.068044
-0.0582803
-0.0490224
-0.040431
-0.0326118
-0.0255946
-0.0193479
-0.0138159
-0.00883417
-0.00439771
-0.000165609
0.00350488
0.00734638
0.00998549
0.0131778
0.0133434
0.0146349
0.00958758
0.00719103
0.123328
0.120371
0.114148
0.104685
0.0923016
0.0774068
0.0604554
0.0419644
0.0225055
0.00266946
-0.0169766
-0.0359275
-0.053768
-0.0701852
-0.0849629
-0.0979658
-0.109116
-0.118373
-0.125719
-0.131148
-0.134662
-0.13627
-0.13599
-0.13386
-0.129954
-0.124391
-0.117346
-0.10905
-0.0997816
-0.0898576
-0.0796039
-0.0693433
-0.0593579
-0.0498894
-0.0411032
-0.0331082
-0.0259339
-0.0195467
-0.0138892
-0.00878876
-0.00424466
0.000103583
0.00387251
0.00784168
0.010551
0.0138735
0.0140007
0.0153633
0.0100436
0.00753909
0.129494
0.126324
0.119653
0.109518
0.0962692
0.0803618
0.0623039
0.0426749
0.0221145
0.00127845
-0.0192135
-0.0388249
-0.0571354
-0.0738504
-0.0887883
-0.101853
-0.113005
-0.122234
-0.129545
-0.134948
-0.138451
-0.140058
-0.13978
-0.137637
-0.133686
-0.128031
-0.120837
-0.112332
-0.102798
-0.092565
-0.081973
-0.0713631
-0.0610328
-0.0512374
-0.0421503
-0.0338849
-0.0264708
-0.01987
-0.0140233
-0.00874351
-0.00403866
0.000484571
0.00440257
0.00856113
0.011387
0.0148898
0.0149865
0.0164108
0.0107434
0.00799217
0.137951
0.134485
0.127194
0.116122
0.101667
0.0843448
0.0647377
0.0435154
0.0214166
-0.000807163
-0.022459
-0.0429587
-0.061882
-0.0789668
-0.0940855
-0.107203
-0.118331
-0.127504
-0.13476
-0.140129
-0.143626
-0.145249
-0.144994
-0.142858
-0.138867
-0.133103
-0.125715
-0.116928
-0.107029
-0.096364
-0.0852974
-0.0741959
-0.063381
-0.0531277
-0.0436217
-0.034982
-0.0272396
-0.0203478
-0.0142476
-0.00872588
-0.00380827
0.000950101
0.00507059
0.00947864
0.0124824
0.016198
0.0163054
0.0177322
0.0117002
0.00849748
0.148915
0.145058
0.136951
0.124645
0.108594
0.0893914
0.0677215
0.0443768
0.0202349
-0.00381675
-0.0269717
-0.0485905
-0.0682516
-0.0857475
-0.101034
-0.114163
-0.125219
-0.134293
-0.141465
-0.146793
-0.150302
-0.151975
-0.151788
-0.149701
-0.145697
-0.139823
-0.132205
-0.123058
-0.11268
-0.101442
-0.0897396
-0.0779782
-0.0665135
-0.0556486
-0.0455875
-0.0364557
-0.0282878
-0.0210213
-0.0146015
-0.00877313
-0.00359202
0.00146303
0.00584442
0.0105603
0.0138267
0.017763
0.0179696
0.0192769
0.0129274
0.0090011
0.162666
0.158313
0.149165
0.135279
0.117175
0.0955448
0.0711987
0.0450973
0.0183106
-0.00808235
-0.0331209
-0.0560889
-0.076581
-0.0944819
-0.109875
-0.122931
-0.133833
-0.142741
-0.14979
-0.155075
-0.158632
-0.160417
-0.160383
-0.158427
-0.15447
-0.148508
-0.140631
-0.131042
-0.120054
-0.108068
-0.095532
-0.0829027
-0.0705854
-0.0589221
-0.048143
-0.0383811
-0.0296772
-0.0219438
-0.0151353
-0.00893362
-0.00343884
0.00197458
0.00668401
0.0117658
0.0154075
0.0195502
0.0199866
0.0210209
0.0144172
0.00950553
0.179565
0.174589
0.164142
0.148273
0.127575
0.102854
0.0750803
0.0454391
0.0152676
-0.0140818
-0.0414299
-0.0659641
-0.0873255
-0.105552
-0.120917
-0.133759
-0.144379
-0.153025
-0.159901
-0.16515
-0.168825
-0.170827
-0.171086
-0.169404
-0.165606
-0.159613
-0.151463
-0.141343
-0.129579
-0.116627
-0.103002
-0.0892373
-0.0758091
-0.0631125
-0.0514145
-0.040856
-0.0314871
-0.0231833
-0.0159113
-0.00926915
-0.00340958
0.00242114
0.00753942
0.0130472
0.0171978
0.0215241
0.0223263
0.0229833
0.0161285
0.0101095
0.200057
0.194314
0.182271
0.16394
0.140001
0.111374
0.0792285
0.0450541
0.0105574
-0.0225075
-0.052644
-0.0789237
-0.101095
-0.119453
-0.134558
-0.146965
-0.157118
-0.165365
-0.172
-0.177234
-0.181152
-0.183552
-0.184339
-0.18316
-0.179709
-0.173796
-0.165383
-0.154625
-0.141876
-0.127665
-0.112609
-0.0973527
-0.0824727
-0.0684383
-0.055566
-0.0440055
-0.0338165
-0.0248246
-0.0170054
-0.00985808
-0.00358002
0.00272074
0.00834315
0.0143408
0.0191237
0.0236184
0.024858
0.0251489
0.0179446
0.0109405
0.224693
0.218015
0.204036
0.182678
0.154713
0.121156
0.08343
0.0434293
0.00337775
-0.0343669
-0.0678347
-0.0959605
-0.118715
-0.136831
-0.151294
-0.162941
-0.172364
-0.180024
-0.186331
-0.191584
-0.195825
-0.199056
-0.200758
-0.200459
-0.197664
-0.192021
-0.183381
-0.171856
-0.157838
-0.141963
-0.125001
-0.107762
-0.0909666
-0.0751885
-0.0608086
-0.0479866
-0.0367867
-0.0269714
-0.0185092
-0.0107992
-0.00404719
0.00277009
0.00899637
0.0155395
0.0210068
0.0256449
0.027249
0.0272573
0.0195506
0.0119234
0.254136
0.246335
0.230039