/*--------------------------------*- C++ -*----------------------------------*\
  =========                 |
  \\      /  F ield         | OpenFOAM: The Open Source CFD Toolbox
   \\    /   O peration     | Website:  https://openfoam.org
    \\  /    A nd           | Version:  8
     \\/     M anipulation  |
\*---------------------------------------------------------------------------*/
FoamFile
{
    version     2.0;
    format      ascii;
    class       surfaceScalarField;
    location    "94";
    object      phi;
}
// * * * * * * * * * * * * * * * * * * * * * * * * * * * * * * * * * * * * * //

dimensions      [0 3 -1 0 0 0 0];

internalField   nonuniform List<scalar> 
34404
(
0.00534166
-8.33038e-06
4.48427e-09
0.00536656
-2.48907e-05
-8.6942e-09
0.00540728
-4.0706e-05
-1.20008e-08
0.00546244
-5.51511e-05
-6.46277e-09
0.00553016
-6.77184e-05
-3.2369e-09
0.00560815
-7.79866e-05
-2.59809e-09
0.00569379
-8.56457e-05
-1.43135e-09
0.00578432
-9.05226e-05
2.7101e-10
0.00587691
-9.25988e-05
2.57002e-09
0.00596892
-9.20095e-05
4.41774e-09
0.00605794
-8.90232e-05
5.69727e-09
0.00614193
-8.40017e-05
6.28002e-09
0.00621927
-7.73442e-05
6.17667e-09
0.00628869
-6.94306e-05
5.52582e-09
0.00634926
-6.05729e-05
4.60438e-09
0.00640025
-5.09935e-05
3.69343e-09
0.00644107
-4.08229e-05
2.95085e-09
0.00647118
-3.01119e-05
2.50655e-09
0.00649004
-1.88617e-05
2.30295e-09
0.00649707
-7.03213e-06
2.2085e-09
0.0064917
5.37293e-06
2.7658e-09
0.00647331
1.83811e-05
3.67614e-09
0.00644138
3.19307e-05
4.32411e-09
0.00639548
4.58873e-05
4.71268e-09
0.00633545
6.0029e-05
4.73691e-09
0.00626139
7.40525e-05
4.48047e-09
0.0061738
8.7588e-05
3.7408e-09
0.00607357
0.00010023
2.88251e-09
0.00596201
0.000111559
1.57758e-09
0.00584082
0.000121191
5.98257e-10
0.00571204
0.000128774
-6.16356e-10
0.00557799
0.000134056
-1.02095e-09
0.00544119
0.000136803
-2.03763e-09
0.00530426
0.000136932
-1.48092e-09
0.00516999
0.000134266
-2.12895e-09
0.00504109
0.000128902
-6.71677e-10
0.00492057
0.000120523
-7.80547e-10
0.00481104
0.000109528
5.7772e-10
0.00471597
9.50672e-05
2.68317e-09
0.00463762
7.83477e-05
-4.73817e-11
0.00458043
5.71781e-05
1.0867e-08
0.00454565
3.47946e-05
-8.63605e-09
0.00453925
6.36387e-06
3.08519e-08
0.00456065
-2.1361e-05
-3.88447e-08
0.00461653
-5.59506e-05
7.69133e-08
0.00470541
-8.87672e-05
-1.12816e-07
0.00482931
-0.000124066
1.62507e-07
0.00499192
-0.000162357
-2.47726e-07
0.00517907
-0.000187394
2.36155e-07
-0.00023247
-2.98999e-07
0.00534188
-1.6876e-05
4.249e-09
0.00536737
-5.03776e-05
-9.00776e-09
0.00540907
-8.23913e-05
-1.20729e-08
0.00546557
-0.000111641
-6.57477e-09
0.00553492
-0.000137069
-3.47041e-09
0.00561476
-0.000157818
-2.74541e-09
0.00570237
-0.000173259
-1.39766e-09
0.00579488
-0.000183037
3.67861e-10
0.0058894
-0.000187115
2.81613e-09
0.00598316
-0.000185777
4.74617e-09
0.00607372
-0.000179586
6.05503e-09
0.00615901
-0.000169297
6.59595e-09
0.0062374
-0.000155744
6.38913e-09
0.00630767
-0.000139711
5.60876e-09
0.00636893
-0.000121837
4.58238e-09
0.0064205
-0.000102568
3.6293e-09
0.00646184
-8.21586e-05
2.88849e-09
0.00649242
-6.06976e-05
2.46179e-09
0.00651173
-3.81696e-05
2.24917e-09
0.00651917
-1.44811e-05
2.15992e-09
0.00651416
1.03823e-05
2.7605e-09
0.00649605
3.6488e-05
3.78726e-09
0.00646425
6.37264e-05
4.53561e-09
0.0064183
9.18319e-05
4.99954e-09
0.00635797
0.000120357
5.0787e-09
0.00628333
0.000148681
4.86279e-09
0.00619487
0.000176048
4.13897e-09
0.00609347
0.000201625
3.27463e-09
0.00598048
0.000224551
1.95981e-09
0.00585763
0.000244041
9.11138e-10
0.00572702
0.00025938
-3.49415e-10
0.00559102
0.000270054
-8.07113e-10
0.00545223
0.000275601
-1.87359e-09
0.0053133
0.00027586
-1.33385e-09
0.00517708
0.000270491
-2.02991e-09
0.00504629
0.00025969
-5.88439e-10
0.00492397
0.000242843
-7.91557e-10
0.00481276
0.000220742
5.08494e-10
0.00471614
0.000191682
2.48268e-09
0.00463637
0.000158114
-2.70252e-10
0.00457805
0.000115494
1.05466e-08
0.00454225
7.06012e-05
-9.01049e-09
0.00453549
1.30919e-05
3.05009e-08
0.00455666
-4.24926e-05
-3.94214e-08
0.00461351
-0.000112875
7.73286e-08
0.00470362
-0.000178766
-1.13962e-07
0.0048303
-0.000250906
1.64413e-07
0.00499604
-0.000327853
-2.49102e-07
0.00518788
-0.000379472
2.38413e-07
-0.000470365
-3.00041e-07
0.00534229
-2.58358e-05
4.33101e-09
0.00536904
-7.71164e-05
-9.56038e-09
0.00541278
-0.000126117
-1.26769e-08
0.00547202
-0.000170878
-6.9767e-09
0.00554472
-0.000209761
-3.75467e-09
0.00562833
-0.00024143
-2.88457e-09
0.00571998
-0.000264904
-1.228e-09
0.00581657
-0.000279626
8.18892e-10
0.00591499
-0.000285546
3.62602e-09
0.00601233
-0.000283122
5.83741e-09
0.006106
-0.000273264
7.26493e-09
0.00619389
-0.000257195
7.70663e-09
0.0062744
-0.000236253
7.21588e-09
0.00634636
-0.000211682
6.08151e-09
0.00640899
-0.000184473
4.76162e-09
0.00646172
-0.000155299
3.63686e-09
0.00650408
-0.000124519
2.82664e-09
0.00653561
-9.22344e-05
2.36506e-09
0.00655582
-5.83847e-05
2.20356e-09
0.00656412
-2.2775e-05
2.0462e-09
0.00655985
1.46473e-05
2.70536e-09
0.0065423
5.40339e-05
4.01379e-09
0.00651077
9.52459e-05
4.98911e-09
0.0064647
0.000137897
5.59889e-09
0.00640375
0.000181301
5.78082e-09
0.00632793
0.000224498
5.63976e-09
0.00623767
0.000266304
4.92175e-09
0.00613388
0.000305414
3.99231e-09
0.00601794
0.000340484
2.54133e-09
0.00589169
0.000370286
1.40396e-09
0.00575735
0.000393721
-2.84575e-12
0.0056174
0.000410003
-5.64749e-10
0.00547456
0.000418448
-1.76218e-09
0.00533159
0.000418829
-1.23376e-09
0.00519142
0.000410669
-2.06148e-09
0.00505683
0.00039428
-5.69599e-10
0.00493089
0.000368777
-9.00767e-10
0.00481629
0.000335344
4.89154e-10
0.00471656
0.000291408
2.42683e-09
0.00463397
0.000240709
-3.49207e-10
0.00457333
0.000176124
1.08426e-08
0.00453558
0.000108355
-9.49292e-09
0.00452801
2.06357e-05
3.16988e-08
0.00454904
-6.34824e-05
-4.15066e-08
0.0046076
-0.000171516
8.13388e-08
0.00470102
-0.00027207
-1.20319e-07
0.00483258
-0.000382634
1.73821e-07
0.00500599
-0.000501005
-2.61047e-07
0.00520589
-0.000579614
2.48833e-07
-0.000720021
-3.10735e-07
0.00534294
-3.54418e-05
4.56946e-09
0.00537162
-0.000105785
-1.03857e-08
0.00541851
-0.000172996
-1.37508e-08
0.00548201
-0.000234374
-7.65706e-09
0.0055599
-0.00028764
-4.14996e-09
0.00564939
-0.00033092
-3.06613e-09
0.00574731
-0.000362824
-1.0452e-09
0.00585024
-0.00038256
1.64451e-09
0.00595475
-0.00039006
5.04758e-09
0.00605763
-0.000386003
7.74712e-09
0.00615609
-0.000371736
9.35471e-09
0.00624795
-0.000349069
9.58534e-09
0.00633165
-0.000319959
8.57621e-09
0.00640616
-0.000286199
6.82965e-09
0.00647085
-0.000249171
5.00731e-09
0.00652532
-0.000209768
3.58841e-09
0.00656923
-0.00016843
2.65065e-09
0.00660222
-0.000125226
2.167e-09
0.00662383
-7.99935e-05
2.0229e-09
0.00663345
-3.24019e-05
2.12363e-09
0.00663036
1.7739e-05
2.82464e-09
0.00661371
7.06801e-05
4.3691e-09
0.00658263
0.000126311
5.68388e-09
0.00653639
0.000184131
6.58731e-09
0.00647449
0.000243201
6.95884e-09
0.0063968
0.000302173
6.91005e-09
0.00630373
0.000359376
6.1534e-09
0.00619617
0.00041296
5.10022e-09
0.00607563
0.000461024
3.43054e-09
0.00594408
0.00050184
2.09951e-09
0.00580391
0.000533884
3.39098e-10
0.00565783
0.000556085
-2.65707e-10
0.00550873
0.000567551
-1.70481e-09
0.00535955
0.000568008
-1.16948e-09
0.00521333
0.000556897
-2.15612e-09
0.00507295
0.000534655
-5.66157e-10
0.00494154
0.00050019
-9.88317e-10
0.00482183
0.000455052
4.93307e-10
0.00471742
0.00039582
2.60222e-09
0.00463059
0.000327532
-5.68978e-10
0.00456651
0.0002402
1.16952e-08
0.0045259
0.000148974
-1.04523e-08
0.00451725
2.9248e-05
3.42249e-08
0.00453834
-8.45287e-05
-4.48059e-08
0.00459984
-0.000233097
8.73824e-08
0.00469872
-0.000370828
-1.29662e-07
0.00483783
-0.000521928
1.86987e-07
0.00502231
-0.000685204
-2.78429e-07
0.00523372
-0.00079129
2.62589e-07
-0.000984449
-3.2508e-07
0.00534384
-4.59462e-05
4.88664e-09
0.00537519
-0.000137133
-1.1559e-08
0.00542648
-0.000224261
-1.53561e-08
0.00549592
-0.00030381
-8.7563e-09
0.00558106
-0.000372772
-4.86538e-09
0.00567879
-0.000428653
-3.46134e-09
0.00578553
-0.000469562
-9.00707e-10
0.00589738
-0.00049441
2.82199e-09
0.00601042
-0.000503106
7.21958e-09
0.00612101
-0.000496609
1.07149e-08
0.00622611
-0.000476841
1.25887e-08
0.00632341
-0.000446382
1.24308e-08
0.00641143
-0.000407992
1.05578e-08
0.00648935
-0.000364131
7.85167e-09
0.0065568
-0.000316624
5.29741e-09
0.0066136
-0.000266571
3.49605e-09
0.00665961
-0.000214443
2.43883e-09
0.0066946
-0.000160216
1.93431e-09
0.00671817
-0.000103563
1.85753e-09
0.00672966
-4.3899e-05
1.97752e-09
0.00672826
1.91428e-05
2.68836e-09
0.00671291
8.60169e-05
4.85133e-09
0.00668253
0.00015669
6.81835e-09
0.00663608
0.000230571
8.1723e-09
0.00657284
0.000306435
8.8136e-09
0.00649252
0.000382481
8.89941e-09
0.00639543
0.000456454
8.08271e-09
0.00628254
0.00052585
6.8254e-09
0.00615545
0.000588104
4.80203e-09
0.00601639
0.000640901
3.14076e-09
0.00586803
0.000682242
8.88367e-10
0.00571336
0.000710749
1.43018e-10
0.00555557
0.000725352
-1.60148e-09
0.00539781
0.000725764
-1.08843e-09
0.00524329
0.000711421
-2.22278e-09
0.00509504
0.000682906
-5.64867e-10
0.00495621
0.000639024
-9.81213e-10
0.00482963
0.000581627
3.32394e-10
0.00471894
0.00050651
3.11767e-09
0.00462649
0.000419984
-1.22404e-09
0.00455784
0.000308835
1.33981e-08
0.00451352
0.000193305
-1.22168e-08
0.00450367
3.906e-05
3.77614e-08
0.00452539
-0.000106199
-4.87275e-08
0.0045912
-0.000299007
9.3866e-08
0.00469795
-0.000477435
-1.38697e-07
0.00484641
-0.000670583
1.99007e-07
0.00504358
-0.000882078
-2.94503e-07
0.00526678
-0.00101477
2.72891e-07
-0.00126159
-3.37525e-07
0.00534502
-5.76333e-05
5.31143e-09
0.0053799
-0.000172001
-1.30213e-08
0.00543696
-0.000281309
-1.74954e-08
0.00551427
-0.000381105
-1.02928e-08
0.00560904
-0.000467541
-5.94882e-09
0.00571778
-0.000537383
-4.11859e-09
0.00583631
-0.000588094
-7.94221e-10
0.00596009
-0.000618194
4.53449e-09
0.00608452
-0.000627545
1.05182e-08
0.00620536
-0.000617462
1.53208e-08
0.00631914
-0.000590647
1.75814e-08
0.00642348
-0.00055073
1.66767e-08
0.00651701
-0.000501538
1.33042e-08
0.00659924
-0.000446372
9.05533e-09
0.00667015
-0.000387545
5.45547e-09
0.00672991
-0.000326328
3.23909e-09
0.00677861
-0.00026315
2.14322e-09
0.00681621
-0.000197811
1.56822e-09
0.00684236
-0.000129717
1.45739e-09
0.00685642
-5.79579e-05
1.76502e-09
0.00685732
1.82365e-05
2.60346e-09
0.00684382
9.9514e-05
5.59842e-09
0.00681442
0.000186077
8.45891e-09
0.00676774
0.000277243
1.04799e-08
0.00670271
0.000371453
1.15422e-08
0.00661882
0.00046636
1.18638e-08
0.00651627
0.000558988
1.098e-08
0.0063961
0.000646016
9.39724e-09
0.00626013
0.000724062
6.8372e-09
0.00611093
0.000790102
4.62331e-09
0.00595157
0.000841597
1.74592e-09
0.00578548
0.000876843
5.77918e-10
0.00561619
0.000894642
-1.42342e-09
0.00544721
0.000894743
-1.03334e-09
0.00528193
0.000876703
-2.28648e-09
0.00512356
0.000841277
-6.64501e-10
0.00497527
0.000787318
-6.89007e-10
0.00484
0.00071689
-1.13746e-10
0.00472142
0.000625092
4.30261e-09
0.00462192
0.000519479
-2.64734e-09
0.0045476
0.000383141
1.65793e-08
0.00449882
0.000242101
-1.52014e-08
0.00448774
5.00969e-05
4.27301e-08
0.00451109
-0.000129493
-5.26329e-08
0.00458231
-0.000370327
9.94014e-08
0.00469839
-0.000593379
-1.43266e-07
0.00485494
-0.000827333
2.05384e-07
0.00506155
-0.00108839
-3.01776e-07
0.00528973
-0.00124323
2.75046e-07
-0.00154122
-3.44535e-07
0.00534653
-7.08296e-05
5.87197e-09
0.00538589
-0.000211345
-1.46822e-08
0.00545035
-0.00034575
-2.02483e-08
0.00553774
-0.000468491
-1.23264e-08
0.00564497
-0.000574759
-7.54319e-09
0.00576799
-0.000660403
-5.18296e-09
0.00590191
-0.000722014
-6.37432e-10
0.00604129
-0.000757574
6.96019e-09
0.00618056
-0.000766834
1.54127e-08
0.00631464
-0.000751559
2.23462e-08
0.00643951
-0.000715541
2.52066e-08
0.00655264
-0.000663883
2.29933e-08
0.00665294
-0.000601864
1.70636e-08
0.00674041
-0.000533849
1.02283e-08
0.00681554
-0.000462674
4.7278e-09
0.00687891
-0.000389704
2.40402e-09
0.00693096
-0.000315207
1.54285e-09
0.00697187
-0.000238714
9.56873e-10
0.0070014
-0.000159251
7.53218e-10
0.00701882
-7.53816e-05
1.05787e-09
0.00702284
1.42154e-05
1.64443e-09
0.00701186
0.000110489
6.3499e-09
0.00698387
0.000214059
1.07885e-08
0.00693694
0.000324155
1.37929e-08
0.00686957
0.000438814
1.54385e-08
0.00678091
0.000554998
1.60884e-08
0.00667107
0.000668816
1.51445e-08
0.00654118
0.000775895
1.31127e-08
0.00639341
0.000871825
9.78431e-09
0.0062308
0.000952705
6.7343e-09
0.00605702
0.00101537
3.04743e-09
0.00587608
0.00105778
1.17583e-09
0.00569203
0.00107869
-1.22938e-09
0.0055088
0.00107798
-1.06873e-09
0.00533001
0.0010555
-2.32051e-09
0.00515907
0.00101222
-9.25878e-10
0.00499914
0.000947242
-1.78027e-10
0.00485329
0.000862749
-9.21068e-10
0.00472516
0.000753208
6.44488e-09
0.00461717
0.000627477
-5.15697e-09
0.004536
0.000464289
2.18201e-08
0.00448217
0.000295953
-1.95498e-08
0.00446985
6.23678e-05
4.97386e-08
0.00449594
-0.000155528
-5.5321e-08
0.00457219
-0.000446678
1.02403e-07
0.00469522
-0.000716277
-1.37787e-07
0.00485222
-0.000984532
2.02547e-07
0.00505618
-0.00129205
-2.92543e-07
0.00527229
-0.00145961
2.70354e-07
-0.00180567
-3.46716e-07
0.00534842
-8.59153e-05
6.59957e-09
0.00539334
-0.000256256
-1.63445e-08
0.00546708
-0.000419463
-2.37856e-08
0.0055672
-0.000568597
-1.49383e-08
0.00569025
-0.000697803
-9.95513e-09
0.0058316
-0.000801743
-6.83415e-09
0.00598536
-0.000875773
-2.71925e-10
0.0061449
-0.000917125
1.0585e-08
0.00630332
-0.000925275
2.28108e-08
0.00645429
-0.000902559
3.2909e-08
0.00659305
-0.000854343
3.64221e-08
0.00671697
-0.000787836
3.19774e-08
0.00682542
-0.000710336
2.19051e-08
0.00691911
-0.000627546
1.0173e-08
0.00699924
-0.000542806
3.94197e-09
0.00706696
-0.000457425
1.41205e-09
0.00712311
-0.000371354
5.84983e-10
0.00716814
-0.00028375
-1.9928e-10
0.00720198
-0.000193093
-8.56577e-10
0.00722383
-9.72257e-05
-6.40624e-10
0.00723197
6.07543e-06
-9.51598e-10
0.00722442
0.000118031
6.76593e-09
0.00719839
0.00024008
1.34595e-08
0.00715122
0.000371299
1.80279e-08
0.00708079
0.000509225
2.0824e-08
0.00698583
0.000649933
2.2109e-08
0.0068663
0.000788324
2.10577e-08
0.00672354
0.000918645
1.83433e-08
0.00656019
0.00103516
1.39114e-08
0.00638004
0.00113285
9.67845e-09
0.00618756
0.00120784
4.79399e-09
0.00598759
0.00125775
1.93942e-09
0.00578486
0.00128143
-1.02214e-09
0.00558381
0.00127902
-1.23286e-09
0.00538839
0.00125092
-2.3445e-09
0.00520216
0.00119845
-1.43699e-09
0.00502828
0.00112112
6.30265e-10
0.00486982
0.00102121
-2.27346e-09
0.00473046
0.000892555
9.73775e-09
0.00461245
0.000745499
-8.6638e-09
0.00452313
0.000553575
2.93478e-08
0.0044639
0.000355205
-2.51213e-08
0.00445016
7.6052e-05
5.82502e-08
0.00447896
-0.000184271
-5.50387e-08
0.00455616
-0.000523983
1.01152e-07
0.00467541
-0.000835402
-1.17683e-07
0.00481614
-0.00112546
1.89267e-07
0.00499511
-0.00147076
-2.66256e-07
0.00517544
-0.0016402
2.65543e-07
-0.00203864
-3.52272e-07
0.00535075
-0.000103335
7.55324e-09
0.00540248
-0.000307968
-1.76114e-08
0.0054877
-0.00050466
-2.84134e-08
0.00560366
-0.000684533
-1.81635e-08
0.00574666
-0.000840795
-1.38841e-08
0.00591135
-0.000966417
-9.50065e-09
0.00609059
-0.00105501
2.61266e-10
0.00627617
-0.00110273
1.64241e-08
0.00645924
-0.00110837
3.5042e-08
0.00663166
-0.00107503
4.95081e-08
0.00678769
-0.00101042
5.25044e-08
0.00692465
-0.000924839
4.3238e-08
0.0070427
-0.000828416
2.59661e-08
0.00714364
-0.000728495
9.20136e-09
0.00722961
-0.000628782
2.28951e-09
0.00730245
-0.000530258
-1.11457e-10
0.00736346
-0.000432366
-1.13154e-09
0.00741352
-0.000333799
-2.97762e-09
0.00745277
-0.000232341
-4.22557e-09
0.00748029
-0.000124749
-3.89726e-09
0.00749381
-7.43581e-06
-6.85781e-09
0.00749088
0.000120956
6.06079e-09
0.00746754
0.000263405
1.57283e-08
0.0074202
0.000418622
2.19679e-08
0.00734584
0.000583549
2.66561e-08
0.00724263
0.000753114
2.95941e-08
0.00711034
0.000920593
2.89305e-08
0.00695059
0.00107837
2.53558e-08
0.00676679
0.00121893
1.93375e-08
0.00656376
0.00133587
1.34674e-08
0.00634715
0.00142444
6.9694e-09
0.00612293
0.00148197
2.76834e-09
0.00589672
0.00150763
-8.74315e-10
0.00567365
0.0015021
-1.63016e-09
0.00545798
0.00146659
-2.44374e-09
0.00525341
0.00140302
-2.2152e-09
0.00506307
0.00131146
1.85823e-09
0.0048899
0.00119439
-3.98632e-09
0.00473749
0.00104495
1.38736e-08
0.00460786
0.000875142
-1.24632e-08
0.00450896
0.000652444
3.84438e-08
0.00444428
0.000419914
-3.02972e-08
0.0044282
9.20659e-05
6.63707e-08
0.00445588
-0.000211902
-5.02805e-08
0.00452292
-0.000591115
9.37639e-08
0.00461648
-0.000928875
-8.54982e-08
0.00471703
-0.00122617
1.65227e-07
0.00484566
-0.00159915
-2.38612e-07
0.0049751
-0.0017699
2.61601e-07
-0.00223978
-3.76206e-07
0.0053536
-0.000123604
8.83466e-09
0.00541349
-0.000367846
-1.77797e-08
0.00551282
-0.000603952
-3.45445e-08
0.00564827
-0.000819965
-2.17449e-08
0.00581633
-0.00100883
-2.06964e-08
0.00601068
-0.00116075
-1.43512e-08
0.00622268
-0.00126701
4.24182e-11
0.00644205
-0.00132212
2.47675e-08
0.00665696
-0.00132334
5.59095e-08
0.00685664
-0.00127479
7.77782e-08
0.00703396
-0.00118782
7.72809e-08
0.00718642
-0.00107735
5.59227e-08
0.00731553
-0.000957547
2.22462e-08
0.00742468
-0.000837648
4.80551e-09
0.00751722
-0.000721319
-4.59666e-09
0.00759575
-0.000608779
-5.09534e-09
0.00766218
-0.000498791
-5.42069e-09
0.00771793
-0.000389543
-9.20068e-09
0.00776353
-0.000277933
-1.22738e-08
0.00779793
-0.000159139
-9.88169e-09
0.00781855
-2.80453e-05
-2.91593e-09
0.00782161
0.000117885
3.71495e-09
0.00780202
0.000282978
1.68264e-08
0.00775477
0.000465848
2.46534e-08
0.00767565
0.000662644
3.07155e-08
0.00756194
0.000866787
3.55503e-08
0.00741313
0.00106936
3.64197e-08
0.00723128
0.00126019
3.30267e-08
0.00702083
0.00142936
2.55749e-08
0.00678812
0.00156856
1.75343e-08
0.00654049
0.00167206
8.93003e-09
0.00628546
0.001737
3.19868e-09
0.00602991
0.00176319
-9.76796e-10
0.00577976
0.00175225
-2.27538e-09
0.00553968
0.00170667
-2.62039e-09
0.00531336
0.00162935
-3.10236e-09
0.00510382
0.001521
3.19901e-09
0.00491375
0.00138446
-5.59773e-09
0.00474629
0.00121238
1.8098e-08
0.00460337
0.00101808
-1.52152e-08
0.00449348
0.000762285
4.70459e-08
0.00442326
0.000490171
-3.31964e-08
0.00440166
0.000113593
7.02795e-08
0.00441719
-0.000227386
-4.22989e-08
0.00445346
-0.000627464
7.75929e-08
0.00449284
-0.000968202
-5.4903e-08
0.00453295
-0.00126641
1.29016e-07
0.0046015
-0.00166747
-2.32234e-07
0.00469416
-0.00186282
2.52968e-07
-0.00243199
-4.21653e-07
0.00535702
-0.000147301
1.06633e-08
0.00542655
-0.000437356
-1.57452e-08
0.00554303
-0.000720396
-4.25497e-08
0.00570223
-0.00097914
-2.46892e-08
0.00590173
-0.0012083
-3.22915e-08
0.00613382
-0.00139281
-2.21962e-08
0.00638817
-0.00152136
-3.06059e-09
0.00665163
-0.00158562
3.31783e-08
0.00690788
-0.00157968
8.67785e-08
0.00714226
-0.00150929
1.23432e-07
0.00734564
-0.00139133
1.17967e-07
0.00751601
-0.00124779
7.05616e-08
0.00765716
-0.00109871
1.74009e-08
0.0077748
-0.000955277
-1.45725e-08
0.00787376
-0.000820249
-2.45644e-08
0.00795745
-0.000692455
-1.79257e-08
0.00802863
-0.000569951
-1.75207e-08
0.00808964
-0.000450528
-2.45935e-08
0.00814167
-0.000329937
-2.97824e-08
0.00818367
-0.000201118
-2.49378e-08
0.00821261
-5.69665e-05
-1.23064e-08
0.00822338
0.000107118
-5.3668e-09
0.00820926
0.000297094
7.70543e-09
0.00816328
0.000511804
2.05046e-08
0.0080794
0.000746493
3.05591e-08
0.0079535
0.00099265
3.70902e-08
0.00778448
0.00123834
3.8832e-08
0.00757485
0.00146979
3.65882e-08
0.00733047
0.00167371
2.9664e-08
0.00705981
0.0018392
2.05176e-08
0.00677265
0.00195921
9.1385e-09
0.00647877
0.00203087
2.336e-09
0.00618675
0.00205521
-2.62246e-09
0.00590353
0.00203547
-3.8866e-09
0.00563421
0.001976
-3.25064e-09
0.00538231
0.00188125
-3.96585e-09
0.00515064
0.00175267
4.42125e-09
0.00494143
0.00159368
-6.46621e-09
0.00475669
0.00139709
2.17998e-08
0.0045988
0.00117598
-1.50983e-08
0.00447696
0.000884071
5.24738e-08
0.00439992
0.00056725
-3.39224e-08
0.00436466
0.000148787
6.65884e-08
0.00434798
-0.000210669
-3.62351e-08
0.00432709
-0.000606628
4.97837e-08
0.00429219
-0.000933263
-4.03473e-08
0.00427372
-0.00124803
8.62868e-08
0.00430596
-0.00169946
-2.4284e-07
0.00440785
-0.00196495
2.44976e-07
-0.00264776
-4.59507e-07
0.00536103
-0.000175007
1.36104e-08
0.00544169
-0.000518009
-9.84748e-09
0.00557883
-0.000857482
-5.24895e-08
0.00576653
-0.00116681
-2.53391e-08
0.00600556
-0.00144728
-5.10283e-08
0.0062857
-0.00167293
-3.05097e-08
0.00659544
-0.00183108
-8.1687e-09
0.00691691
-0.00190713
4.28226e-08
0.00722687
-0.00188976
1.25344e-07
0.00750518
-0.00178779
1.79319e-07
0.00773959
-0.0016259
1.69874e-07
0.00792902
-0.00143731
8.32691e-08
0.00808104
-0.00125074
7.28516e-09
0.00820475
-0.00107893
-5.32906e-08
0.00830669
-0.000922136
-5.92171e-08
0.00839131
-0.000777027
-4.37533e-08
0.00846276
-0.000641359
-4.31943e-08
0.00852511
-0.000512823
-5.4739e-08
0.0085807
-0.000385472
-6.10263e-08
0.00862898
-0.000249341
-5.26088e-08
0.00866668
-9.4635e-05
-3.45129e-08
0.00868693
8.69015e-05
-3.33523e-08
0.00868123
0.000302826
-3.07021e-08
0.00864013
0.000552923
-1.28725e-08
0.00855478
0.000831837
5.72156e-09
0.00841844
0.00112896
2.35458e-08
0.00822835
0.0014284
2.98566e-08
0.00798696
0.00171116
2.89962e-08
0.00770182
0.00195882
2.31039e-08
0.00738443
0.00215657
1.52844e-08
0.00704813
0.00229551
5.89897e-09
0.00670601
0.00237299
1.35457e-10
0.00636913
0.0023921
-5.65705e-09
0.00604591
0.00235869
-6.63878e-09
0.00574187
0.00228004
-4.75952e-09
0.00546023
0.00216289
-4.90673e-09
0.00520337
0.00200952
5.07707e-09
0.00497266
0.0018244
-6.33992e-09
0.00476828
0.00160145
2.47884e-08
0.00459404
0.00135024
-1.0615e-08
0.00445978
0.00101827
5.44213e-08
0.00437131
0.000655753
-3.32972e-08
0.00430686
0.000213194
4.96814e-08
0.00423292
-0.000136692
-3.8019e-08
0.00413628
-0.000509998
1.43428e-08
0.0040339
-0.000830849
-3.63544e-08
0.00399098
-0.00120517
5.83199e-08
0.00403625
-0.00174449
-2.32876e-07
0.00419407
-0.00212302
2.44053e-07
-0.00290225
-4.58043e-07
0.00536547
-0.000207157
1.90327e-08
0.00545884
-0.000611378
-3.42412e-10
0.00562025
-0.00101883
-6.30953e-08
0.00584154
-0.00138807
-2.37029e-08
0.00613045
-0.00173612
-8.18518e-08
0.00647163
-0.00201407
-3.13121e-08
0.00685469
-0.00221413
-1.47624e-08
0.00725371
-0.00230623
7.33036e-08
0.00763377
-0.00227001
1.84645e-07
0.00796621
-0.00212045
2.24697e-07
0.00823344
-0.00189331
1.82488e-07
0.00843689
-0.00164081
5.62118e-08
0.00859104
-0.00140484
-4.75756e-08
0.00870978
-0.00119756
-1.15531e-07
0.00880206
-0.0010143
-1.03148e-07
0.00887381
-0.000848711
-7.11971e-08
0.00893213
-0.000699606
-7.15793e-08
0.00898404
-0.000564647
-8.95237e-08
0.00903372
-0.000435056
-9.32485e-08
0.00908218
-0.000297719
-8.01141e-08
0.0091265
-0.00013891
-5.33488e-08
0.00915897
5.44773e-05
-4.49908e-08
0.00916769
0.000294194
-8.5897e-08
0.00914086
0.000579857
-1.03484e-07
0.00906547
0.00090731
-8.13776e-08
0.0089302
0.00126428
-4.72462e-08
0.00872817
0.00163044
-1.99167e-08
0.00845945
0.00197989
-3.55107e-09
0.00813236
0.00228591
-2.20569e-10
0.0077623
0.00252663
-3.85507e-09
0.00736813
0.00268968
-1.11444e-08
0.00696823
0.00277291
-1.42157e-08
0.00657756
0.00278278
-1.43925e-08
0.00620681
0.00272946
-1.17056e-08
0.00586213
0.00262472
-6.95218e-09
0.00554643
0.0024786
-5.3526e-09
0.00526137
0.00229458
5.36003e-09
0.0050067
0.00207908
-4.81142e-09
0.00478048
0.00182764
2.72893e-08
0.0045892
0.00154153
-3.06796e-09
0.00444153
0.00116588
5.23748e-08
0.00433135
0.000765961
-3.10512e-08
0.00421697
0.000327542
3.07368e-08
0.00406757
1.27518e-05
-4.37278e-08
0.00390068
-0.00034309
-1.19348e-08
0.00376807
-0.000698222
-2.01831e-08
0.00374956
-0.00118672
5.75258e-08
0.00384662
-0.00184136
-1.87437e-07
0.00407193
-0.00234856
2.30139e-07
-0.0031829
-4.26299e-07
0.00536994
-0.000243792
2.96337e-08
0.00547779
-0.000719234
9.60514e-09
0.00566624
-0.00120722
-6.87343e-08
0.00592683
-0.00164863
-2.65894e-08
0.00627811
-0.00208726
-1.36319e-07
0.00669544
-0.00243137
-4.03689e-08
0.00717572
-0.00269436
-3.41538e-08
0.00768071
-0.00281136
1.32979e-07
0.00815261
-0.00274221
3.04904e-07
0.00854405
-0.00251216
2.65059e-07
0.00882995
-0.00217929
8.19652e-08
0.0090224
-0.00183317
-9.93924e-08
0.00914901
-0.00153119
-2.50755e-07
0.00923131
-0.00127962
-2.3664e-07
0.00928139
-0.00106426
-1.27278e-07
0.00930849
-0.000875753
-5.40881e-08
0.00932437
-0.000715421
-6.91905e-08
0.00934089
-0.000581068
-9.79844e-08
0.00936487
-0.000458936
-9.71473e-08
0.0093993
-0.000332077
-7.99321e-08
0.00944357
-0.000183123
-5.60667e-08
0.00949235
5.70424e-06
-3.88086e-09
0.0095283
0.000258297
-5.39696e-08
0.00953763
0.000570657
-1.26656e-07
0.00950089
0.000944214
-1.68253e-07
0.00939913
0.00136622
-1.74378e-07
0.00921723
0.00181249
-1.51952e-07
0.00894787
0.00224936
-1.09809e-07
0.00859576
0.00263809
-7.14183e-08
0.00817921
0.00294324
-4.96687e-08
0.00772521
0.00314372
-4.37764e-08
0.00726127
0.00323689
-4.01348e-08
0.00680937
0.00323472
-3.33671e-08
0.0063842
0.00315465
-2.36377e-08
0.00599325
0.00301568
-1.26362e-08
0.0056394
0.00283247
-6.68182e-09
0.00532338
0.00261059
4.92675e-09
0.00504226
0.00236019
-1.77497e-09
0.00479283
0.00207705
3.0449e-08
0.00458471
0.00174964
3.7495e-09
0.00441984
0.00133071
4.13009e-08
0.00427223
0.000913607
-3.55733e-08
0.00409041
0.000509356
9.66795e-09
0.00386769
0.000235494
-2.29188e-08
0.00366184
-0.00013723
-1.17963e-08
0.00354525
-0.000581643
8.35757e-09
0.003582
-0.00122353
5.83533e-08
0.00373502
-0.00199425
-1.38394e-07
0.00400555
-0.00261928
1.85173e-07
-0.00346534
-3.89114e-07
0.00537393
-0.000284439
5.01521e-08
0.0054979
-0.000843224
2.30505e-08
0.00571346
-0.00142273
-5.23995e-08
0.00602074
-0.00195586
-4.94048e-08
0.006447
-0.0025133
-2.24753e-07
0.00695859
-0.00294283
-1.23495e-07
0.00757092
-0.00330658
-1.16698e-07
0.0082174
-0.00345796
1.27423e-07
0.00880232
-0.00332758
4.52003e-07
0.00922822
-0.00293847
3.99714e-07
0.00946915
-0.00242028
5.69725e-08
0.0095763
-0.00193993
-3.8627e-07
0.00960312
-0.00155744
-5.73362e-07
0.00957979
-0.0012559
-3.97044e-07
0.00952352
-0.00100788
-1.07887e-07
0.00944912
-0.000801361
5.3494e-09
0.00937546
-0.000641767
1.24129e-08
0.0093181
-0.000523684
-2.95726e-08
0.00928773
-0.000428532
-2.61741e-08
0.00929048
-0.000334817
-1.10505e-08
0.00932822
-0.000220849
-1.44929e-08
0.00939857
-6.46218e-05
-2.13419e-08
0.00948635
0.000170491
1.9364e-08
0.00957142
0.000485608
-2.30839e-08
0.00962751
0.000888201
-7.72317e-08
0.00962467
0.00136921
-1.39506e-07
0.00953423
0.00190313
-2.01178e-07
0.00933361
0.00245021
-2.30903e-07
0.00901389
0.00295803
-2.138e-07
0.00858858
0.00336872
-1.68361e-07
0.00809271
0.00363971
-1.24636e-07
0.00756913
0.00376056
-8.98016e-08
0.00705401
0.00374991
-6.20363e-08
0.00657071
0.00363799
-3.93251e-08
0.00612998
0.00345643
-1.97653e-08
0.00573553
0.00322692
-8.6155e-09
0.00538675
0.00295937
3.65387e-09
0.00507738
0.00266956
2.32351e-09
0.00480491
0.00234948
3.28836e-08
0.00458013
0.00197441
4.79359e-09
0.00439015
0.00152067
1.87836e-08
0.00418952
0.00111428
-4.7262e-08
0.00393631
0.00076258
-1.19846e-08
0.00366351
0.000508291
-4.92797e-09
0.00345842
6.78558e-05
4.06496e-09
0.00338732
-0.000510572
3.05755e-08
0.00348064
-0.00131688
3.58954e-08
0.00367099
-0.00218449
-1.08354e-07
0.00395811
-0.00290652
1.26406e-07
-0.00373144
-3.50119e-07
0.0053772
-0.000328388
8.70267e-08
0.00551641
-0.000982498
5.8641e-08
0.00575501
-0.00166134
1.37463e-08
0.00611806
-0.00231882
-9.49416e-08
0.00662421
-0.00301913
-3.12146e-07
0.00725566
-0.00357393
-3.4986e-07
0.00806502
-0.00411553
-4.16521e-07
0.00886608
-0.00425902
4.53071e-09
0.00953251
-0.00399436
3.48787e-07
0.00986956
-0.00327609
5.71942e-07
0.00990002
-0.00245104
2.9555e-07
0.00976463
-0.00180438
-1.50935e-07
0.00955672
-0.00134893
-6.00229e-07
0.00931537
-0.00101414
-4.09922e-07
0.00906593
-0.000758441
-6.27588e-09
0.00882641
-0.000562039
2.05381e-07
0.00861979
-0.000435316
1.61105e-07
0.00846121
-0.0003652
1.03905e-07
0.00836334
-0.000330792
1.26192e-07
0.00833768
-0.000309303
1.44707e-07
0.00838966
-0.000272946
1.22709e-07
0.00851171
-0.000186754
7.74636e-08
0.00869668
-1.45744e-05
9.89822e-08
0.00891436
0.000267801
1.21741e-07
0.0091335
0.000668925
1.39669e-07
0.00931352
0.00118908
1.04082e-07
0.00941285
0.00180378
1.56048e-08
0.00939117
0.00247199
-9.41899e-08
0.00921563
0.00313375
-1.91056e-07
0.00887747
0.00370713
-2.42384e-07
0.00840573
0.00411169
-2.37702e-07
0.00785756
0.00430891
-1.89152e-07
0.00729289
0.00431471
-1.26325e-07
0.00675461
0.00417633
-7.21782e-08
0.00626392
0.00394715
-3.24502e-08
0.00582864
0.00366222
-1.1759e-08
0.00544669
0.00334132
2.49383e-09
0.00510898
0.00300727
7.60942e-09
0.00481565
0.00264278
3.23029e-08
0.00457304
0.00221703
-2.64997e-09
0.00434784
0.00174588
-1.01401e-08
0.00408608
0.0013761
-5.94493e-08
0.00377433
0.00107436
-2.38767e-08
0.00348392
0.00079869
1.6216e-08
0.00330884
0.000242914
1.58248e-08
0.0032904
-0.00049217
3.5306e-08
0.00342639
-0.00145287
2.56309e-09
0.00363544
-0.00239345
-8.65815e-08
0.0039211
-0.00319227
8.00831e-08
-0.00397272
-3.03627e-07
0.00537936
-0.000374556
1.41632e-07
0.00552561
-0.00112888
1.31402e-07
0.00578055
-0.00191641
1.392e-07
0.00619766
-0.00273583
-1.08686e-07
0.00677606
-0.00359727
-2.58079e-07
0.007575
-0.0043722
-6.76885e-07
0.00866973
-0.0052095
-7.61443e-07
0.00954933
-0.00513851
-1.01349e-07
0.0100282
-0.00120312
-1.41723e-07
-0.00103358
-0.00120166
-0.00103478
0.00994266
-0.000878782
2.00331e-07
-0.000716766
-0.000877839
-0.000717318
0.00945279
-0.000539566
9.15156e-07
-0.00044163
-0.000539128
-0.000441761
0.00882497
-0.000305838
3.36956e-07
-0.000282364
-0.000306281
-0.00028242
0.00820783
-0.000731671
-1.11464e-07
0.00766689
-0.000473045
-1.55164e-07
0.00721322
-0.000305021
2.51563e-07
0.0068401
-0.000189243
3.23955e-07
0.00655753
-0.000152814
6.23324e-08
0.0063717
-0.000179339
-3.01026e-08
0.00629519
-0.00025428
1.01532e-09
0.0063379
-0.000352052
3.36941e-08
0.00649976
-0.000434846
4.33051e-08
0.00676935
-0.00045641
6.66638e-08
0.00712385
-0.000369178
1.03689e-07
0.00752835
-0.000136891
1.91235e-07
0.00795218
0.000244804
2.89199e-07
0.00835418
0.000786742
3.41754e-07
0.00869292
0.00146473
3.12036e-07
0.00892244
0.00224226
2.10091e-07
0.00899181
0.00306432