/*--------------------------------*- C++ -*----------------------------------*\
  =========                 |
  \\      /  F ield         | OpenFOAM: The Open Source CFD Toolbox
   \\    /   O peration     | Website:  https://openfoam.org
    \\  /    A nd           | Version:  8
     \\/     M anipulation  |
\*---------------------------------------------------------------------------*/
FoamFile
{
    version     2.0;
    format      ascii;
    class       volVectorField;
    location    "32.5";
    object      U;
}
// * * * * * * * * * * * * * * * * * * * * * * * * * * * * * * * * * * * * * //

dimensions      [0 1 -1 0 0 0 0];

internalField   nonuniform List<vector> 
116
(
(0.0125201 -0.00985111 0)
(0.0121884 -0.0152613 0)
(0.0387379 -0.0223048 0)
(0.00863056 -0.0107153 0)
(-0.00361437 0.0602564 0)
(-0.141528 0.075785 0)
(0.00328646 -0.0152458 0)
(-0.0120698 -0.00840552 0)
(-0.0299805 0.0222283 0)
(-0.092608 0.0556088 0)
(-0.104526 0.0776293 0)
(-0.147953 0.0522766 0)
(-0.00304836 -0.00128907 0)
(-0.028667 0.0191353 0)
(-0.0535215 0.0512551 0)
(-0.093088 0.0788118 0)
(-0.10096 0.101593 0)
(-0.110599 0.0646873 0)
(-0.00672053 0.015594 0)
(-0.0289247 0.0455408 0)
(-0.0486396 0.0820789 0)
(-0.0747107 0.101746 0)
(-0.0752314 0.0984647 0)
(-0.0658686 0.0421273 0)
(-0.00292566 0.0349346 0)
(-0.0183571 0.060905 0)
(-0.0351439 0.0931768 0)
(-0.0452057 0.102824 0)
(-0.0444189 0.0899425 0)
(-0.0347426 0.0292099 0)
(-0.00252678 0.0357202 0)
(-0.00240642 0.0767452 0)
(-0.00152113 0.106499 0)
(-0.00136381 0.113806 0)
(-0.00288023 0.0968118 0)
(0.00136876 0.040593 0)
(0.00381843 0.0434934 0)
(0.00960223 0.062018 0)
(0.0129345 0.0946169 0)
(0.0317113 0.0994849 0)
(0.0391279 0.0839567 0)
(0.0598833 0.0400823 0)
(0.00420521 0.0185828 0)
(0.0167061 0.0681421 0)
(0.035792 0.0845376 0)
(0.0640597 0.0912974 0)
(0.0745287 0.0763203 0)
(0.102267 0.0530663 0)
(-0.0612773 0.028857 0)
(-0.0271207 0.0257413 0)
(-0.0312437 0.0460843 0)
(0.0214854 0.0505958 0)
(0.0334905 0.0387784 0)
(0.0750615 0.0318939 0)
(0.0498742 0.0944835 0)
(0.0867333 0.0495561 0)
(0.110062 0.0366385 0)
(0.171794 0.0315325 0)
(0.186175 0.0258125 0)
(0.236372 0.0226768 0)
(-0.104928 0.114314 0)
(-0.0967818 -0.0191083 0)
(-0.0268372 -0.0103878 0)
(-0.00748472 -0.133582 0)
(-0.100273 0.0793606 0)
(-0.0931135 -0.0551341 0)
(-0.07195 -0.0685462 0)
(0.00248083 -0.167053 0)
(-0.0760621 0.0529751 0)
(-0.0496888 -0.0560018 0)
(-0.0663024 -0.102289 0)
(0.00134886 -0.205103 0)
(-0.0484808 0.0262658 0)
(-0.0135712 -0.0615337 0)
(-0.0452277 -0.111261 0)
(0.00780702 -0.227854 0)
(-0.0418793 0.000669412 0)
(0.00377524 -0.0684279 0)
(-0.0405617 -0.123086 0)
(0.0124632 -0.249283 0)
(-0.0190303 -0.00813559 0)
(0.0290994 -0.0620715 0)
(-0.0273284 -0.110476 0)
(0.0194961 -0.257477 0)
(0.0337712 -0.0273386 0)
(0.0594677 -0.0680569 0)
(-0.024561 -0.122206 0)
(0.0281475 -0.262121 0)
(0.0763454 0.00378006 0)
(0.0746429 -0.00312491 0)
(0.00054059 -0.0591804 0)
(0.052066 -0.237655 0)
(0.0673332 0.00144622 0)
(0.0759034 -0.00794361 0)
(0.0532346 -0.109 0)
(0.0794268 -0.245812 0)
(0.233355 0.0136192 0)
(0.261107 0.00302348 0)
(0.208442 -0.0232079 0)
(0.153785 -0.0695755 0)
(-0.0190143 0.00552063 0)
(-0.0527064 0.00767651 0)
(-0.0721977 0.000468893 0)
(-0.0390092 -0.0350988 0)
(-0.0200392 0.065122 0)
(-0.0468604 0.0447819 0)
(-0.0466263 -0.00736781 0)
(-0.0346956 -0.0834081 0)
(-0.0319034 0.0715571 0)
(-0.0111695 0.0242311 0)
(-0.0201661 -0.00467992 0)
(-0.0258683 -0.122416 0)
(-0.0105396 0.115393 0)
(-0.0363989 0.0375952 0)
(0.0189774 0.012777 0)
(-0.0265012 -0.119839 0)
)
;

boundaryField
{
    movingWall
    {
        type            fixedValue;
        value           uniform (1 0 0);
    }
    fixedWalls
    {
        type            noSlip;
    }
    frontAndBack
    {
        type            empty;
    }
}


// ************************************************************************* //
