/*--------------------------------*- C++ -*----------------------------------*\
  =========                 |
  \\      /  F ield         | OpenFOAM: The Open Source CFD Toolbox
   \\    /   O peration     | Website:  https://openfoam.org
    \\  /    A nd           | Version:  8
     \\/     M anipulation  |
\*---------------------------------------------------------------------------*/
FoamFile
{
    version     2.0;
    format      ascii;
    class       volVectorField;
    location    "83";
    object      U;
}
// * * * * * * * * * * * * * * * * * * * * * * * * * * * * * * * * * * * * * //

dimensions      [0 1 -1 0 0 0 0];

internalField   nonuniform List<vector> 
12504
(
(1.00013 -0.000624504 7.3585e-07)
(1.00318 -0.00185998 -1.07803e-06)
(1.00926 -0.00303712 -1.92982e-06)
(1.01828 -0.00411136 -1.31276e-06)
(1.02987 -0.00504504 -7.34264e-07)
(1.04362 -0.00580767 -5.06445e-07)
(1.05905 -0.00637709 -3.51155e-07)
(1.07566 -0.0067414 -1.5537e-08)
(1.09294 -0.00690036 3.49943e-07)
(1.11038 -0.00686529 6.74938e-07)
(1.12749 -0.00665756 9.21516e-07)
(1.14388 -0.00630565 1.06087e-06)
(1.15923 -0.00584102 1.08225e-06)
(1.17327 -0.00529388 1.00185e-06)
(1.18584 -0.00468975 8.54054e-07)
(1.19684 -0.00404727 6.85708e-07)
(1.20617 -0.00337789 5.30826e-07)
(1.2138 -0.00268645 4.05625e-07)
(1.21967 -0.00197216 3.22245e-07)
(1.22371 -0.00123045 2.80195e-07)
(1.22587 -0.000454323 2.43981e-07)
(1.22604 0.000363307 3.2308e-07)
(1.22411 0.00122713 4.60761e-07)
(1.21996 0.0021379 5.87616e-07)
(1.21348 0.00309022 6.69024e-07)
(1.20456 0.00407199 7.24679e-07)
(1.19316 0.00506398 7.05687e-07)
(1.17926 0.0060419 6.55609e-07)
(1.16294 0.00697674 5.11696e-07)
(1.14432 0.00783929 3.77267e-07)
(1.12366 0.00859922 1.69699e-07)
(1.1012 0.00923242 2.36932e-08)
(1.07735 0.00971428 -1.70936e-07)
(1.05245 0.0100332 -2.34177e-07)
(1.02699 0.0101698 -3.04923e-07)
(1.00141 0.010129 -3.47394e-07)
(0.976126 0.00988487 -1.27986e-07)
(0.951821 0.00946557 -4.595e-07)
(0.928543 0.00881368 5.60865e-07)
(0.907719 0.00800082 -9.87086e-07)
(0.888147 0.00690224 2.32092e-06)
(0.873501 0.00566053 -2.89395e-06)
(0.859046 0.00408043 6.37025e-06)
(0.854172 0.00232286 -8.15248e-06)
(0.845627 0.000315867 1.47015e-05)
(0.855338 -0.00212624 -1.96292e-05)
(0.852343 -0.00427016 2.83606e-05)
(0.882537 -0.00762351 -3.83899e-05)
(0.882733 -0.00922378 3.58944e-05)
(0.938851 -0.0137301 -3.71871e-05)
(1.00013 -0.00189149 7.09793e-07)
(1.00326 -0.00562845 -1.12969e-06)
(1.00949 -0.00918812 -1.95403e-06)
(1.01873 -0.0124369 -1.33286e-06)
(1.03061 -0.0152594 -7.63011e-07)
(1.04468 -0.0175622 -5.32963e-07)
(1.06047 -0.0192782 -3.60083e-07)
(1.07746 -0.0203714 3.22911e-09)
(1.09511 -0.0208411 3.93541e-07)
(1.11288 -0.0207225 7.38091e-07)
(1.1303 -0.0200815 9.95397e-07)
(1.14695 -0.019006 1.13277e-06)
(1.16249 -0.0175929 1.13991e-06)
(1.17669 -0.0159348 1.03942e-06)
(1.18938 -0.0141094 8.73706e-07)
(1.20047 -0.012173 6.94136e-07)
(1.20988 -0.0101598 5.34911e-07)
(1.21757 -0.00808345 4.08421e-07)
(1.2235 -0.00594081 3.24045e-07)
(1.22762 -0.00371712 2.82357e-07)
(1.22984 -0.00138971 2.48143e-07)
(1.23008 0.00106389 3.28218e-07)
(1.22823 0.00365893 4.76792e-07)
(1.22413 0.00639864 6.17474e-07)
(1.21769 0.00926734 7.11197e-07)
(1.20877 0.0122285 7.76848e-07)
(1.19732 0.0152236 7.63974e-07)
(1.18331 0.0181785 7.15788e-07)
(1.16684 0.0210048 5.71134e-07)
(1.14802 0.0236129 4.34217e-07)
(1.12709 0.0259106 2.22319e-07)
(1.10433 0.0278243 8.11149e-08)
(1.08015 0.0292798 -1.25618e-07)
(1.0549 0.0302423 -1.98869e-07)
(1.02908 0.0306539 -2.78006e-07)
(1.00313 0.0305303 -3.28829e-07)
(0.977499 0.0297938 -1.13012e-07)
(0.952852 0.0285319 -4.58097e-07)
(0.92924 0.0265676 5.66319e-07)
(0.908116 0.0241269 -1.00893e-06)
(0.888221 0.0208137 2.3158e-06)
(0.873357 0.017093 -2.95303e-06)
(0.858564 0.0123159 6.36546e-06)
(0.853638 0.00705357 -8.2468e-06)
(0.844735 0.000961293 1.47472e-05)
(0.854705 -0.00635842 -1.98068e-05)
(0.851392 -0.0129098 2.85312e-05)
(0.882368 -0.0229729 -3.85716e-05)
(0.882353 -0.0279114 3.6189e-05)
(0.939925 -0.0414998 -3.73751e-05)
(1.00014 -0.00320734 7.28581e-07)
(1.00342 -0.00953821 -1.2031e-06)
(1.00996 -0.0155672 -2.05227e-06)
(1.01965 -0.021069 -1.40738e-06)
(1.03211 -0.0258448 -8.18317e-07)
(1.04685 -0.0297342 -5.70196e-07)
(1.06338 -0.0326218 -3.59726e-07)
(1.08114 -0.0344457 5.76707e-08)
(1.09953 -0.0352053 5.09157e-07)
(1.11801 -0.0349628 9.0602e-07)
(1.13604 -0.0338347 1.19289e-06)
(1.1532 -0.031976 1.32646e-06)
(1.16915 -0.0295568 1.29796e-06)
(1.18366 -0.026738 1.14517e-06)
(1.19659 -0.023653 9.29576e-07)
(1.20786 -0.0203967 7.13941e-07)
(1.21741 -0.0170248 5.35613e-07)
(1.22524 -0.0135585 3.99075e-07)
(1.2313 -0.009989 3.09213e-07)
(1.23555 -0.00628787 2.68267e-07)
(1.23793 -0.00241302 2.32625e-07)
(1.23832 0.00167838 3.22031e-07)
(1.23661 0.00601567 5.03909e-07)
(1.23264 0.0106073 6.81632e-07)
(1.22626 0.0154288 8.04006e-07)
(1.21733 0.0204182 8.91596e-07)
(1.20578 0.0254757 8.92058e-07)
(1.19158 0.0304728 8.47427e-07)
(1.17478 0.0352568 6.93636e-07)
(1.15552 0.0396729 5.41825e-07)
(1.13407 0.0435627 3.04065e-07)
(1.11069 0.0467995 1.51385e-07)
(1.08582 0.0492587 -8.28461e-08)
(1.05986 0.0508811 -1.71097e-07)
(1.0333 0.0515731 -2.61549e-07)
(1.00662 0.0513623 -3.24364e-07)
(0.980273 0.050122 -1.02338e-07)
(0.954935 0.0480035 -4.7313e-07)
(0.930653 0.0447041 6.02275e-07)
(0.908924 0.0406237 -1.06198e-06)
(0.888386 0.0350548 2.41402e-06)
(0.87308 0.02885 -3.08912e-06)
(0.857627 0.020797 6.6173e-06)
(0.852572 0.0120092 -8.60717e-06)
(0.843011 0.00169521 1.53472e-05)
(0.853429 -0.0106026 -2.06472e-05)
(0.849637 -0.0217727 2.96413e-05)
(0.882064 -0.0387524 -3.99537e-05)
(0.881831 -0.0472451 3.73684e-05)
(0.942164 -0.0702782 -3.85935e-05)
(1.00015 -0.00460315 7.72778e-07)
(1.00367 -0.0136863 -1.31018e-06)
(1.01068 -0.0223343 -2.22683e-06)
(1.02107 -0.030223 -1.54129e-06)
(1.03443 -0.0370628 -9.07997e-07)
(1.05022 -0.0426195 -6.28759e-07)
(1.0679 -0.0467228 -3.54406e-07)
(1.08684 -0.0492811 1.52595e-07)
(1.1064 -0.0502945 7.08359e-07)
(1.12596 -0.0498575 1.19745e-06)
(1.14494 -0.0481481 1.53518e-06)
(1.16289 -0.0454023 1.65874e-06)
(1.17946 -0.0418774 1.56436e-06)
(1.19445 -0.0378131 1.31838e-06)
(1.20773 -0.0334042 1.01616e-06)
(1.21927 -0.028785 7.40755e-07)
(1.22904 -0.0240313 5.30987e-07)
(1.23707 -0.0191677 3.78517e-07)
(1.24333 -0.0141754 2.76921e-07)
(1.2478 -0.00900614 2.32683e-07)
(1.25041 -0.00359139 2.10916e-07)
(1.25104 0.00214025 3.14283e-07)
(1.24956 0.00823835 5.43659e-07)
(1.24577 0.0147217 7.80515e-07)
(1.23951 0.0215593 9.52075e-07)
(1.23058 0.0286627 1.07636e-06)
(1.21888 0.0358856 1.09815e-06)
(1.20435 0.0430383 1.05965e-06)
(1.18705 0.0498953 8.88382e-07)
(1.16711 0.0562271 7.07482e-07)
(1.14481 0.0618017 4.25848e-07)
(1.12046 0.0664335 2.43216e-07)
(1.09453 0.0699454 -2.64709e-08)
(1.06745 0.0722534 -1.37155e-07)
(1.03976 0.0732321 -2.41219e-07)
(1.01195 0.0729236 -3.25034e-07)
(0.984505 0.0711581 -8.05869e-08)
(0.958116 0.068156 -5.06431e-07)
(0.932815 0.0634843 6.75923e-07)
(0.910176 0.0577381 -1.14828e-06)
(0.888668 0.0498522 2.60152e-06)
(0.872695 0.0411399 -3.28897e-06)
(0.856266 0.0297041 7.00945e-06)
(0.850981 0.0173096 -9.08049e-06)
(0.840544 0.00260343 1.6163e-05)
(0.851505 -0.0149466 -2.17309e-05)
(0.847333 -0.030995 3.10775e-05)
(0.88164 -0.0553492 -4.17551e-05)
(0.881537 -0.0676487 3.87407e-05)
(0.94544 -0.100677 -4.01962e-05)
(1.00016 -0.00611639 8.33254e-07)
(1.00401 -0.0181822 -1.46126e-06)
(1.01168 -0.0296673 -2.48494e-06)
(1.02305 -0.0401388 -1.74883e-06)
(1.03765 -0.0492059 -1.05381e-06)
(1.05492 -0.0565495 -7.3383e-07)
(1.0742 -0.0619342 -3.58621e-07)
(1.09482 -0.065232 2.91743e-07)
(1.11602 -0.0664437 1.01533e-06)
(1.13709 -0.0657046 1.65577e-06)
(1.1574 -0.0632706 2.0731e-06)
(1.17644 -0.0594813 2.17181e-06)
(1.19386 -0.0547024 1.96278e-06)
(1.20948 -0.0492687 1.56628e-06)
(1.22323 -0.0434434 1.13439e-06)
(1.23512 -0.0374011 7.78186e-07)
(1.24519 -0.031234 5.28626e-07)
(1.25348 -0.0249655 3.55399e-07)
(1.26002 -0.0185593 2.32246e-07)
(1.26479 -0.0119389 1.834e-07)
(1.26773 -0.00499742 1.78582e-07)
(1.26871 0.00237595 2.92949e-07)
(1.26756 0.0102605 5.96359e-07)
(1.26406 0.0186942 9.26719e-07)
(1.25796 0.0276426 1.17688e-06)
(1.24903 0.0369883 1.36117e-06)
(1.23711 0.0465313 1.41602e-06)
(1.22212 0.0560095 1.38543e-06)
(1.20409 0.0651107 1.18834e-06)
(1.18317 0.0735168 9.6448e-07)
(1.15967 0.0809109 6.19568e-07)
(1.13395 0.0870395 3.79621e-07)
(1.10652 0.091671 6.28393e-08)
(1.07787 0.0946956 -8.87671e-08)
(1.0486 0.0959637 -2.0356e-07)
(1.01923 0.0955351 -3.2856e-07)
(0.990276 0.0932075 -3.57241e-08)
(0.962459 0.0892771 -5.67436e-07)
(0.935773 0.0831754 7.92014e-07)
(0.911916 0.0757228 -1.28767e-06)
(0.8891 0.0654305 2.85047e-06)
(0.872236 0.0541743 -3.50794e-06)
(0.854534 0.0392088 7.4147e-06)
(0.848859 0.0230733 -9.40019e-06)
(0.837479 0.00373077 1.67848e-05)
(0.848885 -0.0194924 -2.23673e-05)
(0.844868 -0.0408169 3.19673e-05)
(0.880922 -0.0730572 -4.27929e-05)
(0.881817 -0.0895685 3.92672e-05)
(0.948771 -0.132842 -4.14807e-05)
(1.00018 -0.00778783 9.12174e-07)
(1.00447 -0.0231457 -1.64705e-06)
(1.01301 -0.037763 -2.82494e-06)
(1.02566 -0.0510847 -2.03215e-06)
(1.04192 -0.0626042 -1.26521e-06)
(1.06113 -0.0719019 -8.99906e-07)
(1.08257 -0.0786608 -3.74009e-07)
(1.10542 -0.0827054 4.94173e-07)
(1.12882 -0.0840364 1.48076e-06)
(1.15191 -0.0828409 2.36673e-06)
(1.17397 -0.0794782 2.90681e-06)
(1.19443 -0.0744248 2.94817e-06)
(1.21294 -0.0681868 2.53722e-06)
(1.22936 -0.0612155 1.8959e-06)
(1.2437 -0.0538516 1.27492e-06)
(1.25603 -0.0463091 8.14631e-07)
(1.26647 -0.0386909 5.21967e-07)
(1.27511 -0.0310117 3.26052e-07)
(1.282 -0.0232092 1.64843e-07)
(1.28717 -0.0151656 1.01512e-07)
(1.29056 -0.00672138 1.08458e-07)
(1.29202 0.00229252 2.20765e-07)
(1.29134 0.0119972 6.52752e-07)
(1.28822 0.0224625 1.13476e-06)
(1.28236 0.0336551 1.5002e-06)
(1.27344 0.0454245 1.77083e-06)
(1.26123 0.0575062 1.87878e-06)
(1.2456 0.0695484 1.86354e-06)
(1.22658 0.0811325 1.63101e-06)
(1.20431 0.0918313 1.34243e-06)
(1.17918 0.101227 9.07272e-07)
(1.15158 0.108985 5.77158e-07)
(1.12214 0.114818 1.99031e-07)
(1.09138 0.118591 -3.06212e-08)
(1.06002 0.120139 -1.5092e-07)
(1.02861 0.119549 -3.47545e-07)
(0.997693 0.116598 4.53986e-08)
(0.968049 0.11167 -6.63092e-07)
(0.939584 0.104055 9.72785e-07)
(0.914201 0.0948355 -1.48682e-06)
(0.889729 0.0820202 3.16259e-06)
(0.871735 0.0681613 -3.69711e-06)
(0.852495 0.0494957 7.7323e-06)
(0.846176 0.0293926 -9.2987e-06)
(0.833995 0.00511246 1.68575e-05)
(0.845514 -0.0243998 -2.18886e-05)
(0.84259 -0.0514446 3.16744e-05)
(0.87936 -0.0920016 -4.20717e-05)
(0.882391 -0.113044 3.8409e-05)
(0.949523 -0.166059 -4.2053e-05)
(1.00021 -0.0096636 1.01235e-06)
(1.00505 -0.0287122 -1.851e-06)
(1.01469 -0.0468462 -3.25515e-06)
(1.02899 -0.0633698 -2.40023e-06)
(1.04737 -0.0776423 -1.56522e-06)
(1.0691 -0.089122 -1.15494e-06)
(1.09334 -0.0973834 -4.06943e-07)
(1.11912 -0.102187 7.80604e-07)
(1.14539 -0.103528 2.16977e-06)
(1.17112 -0.10166 3.44897e-06)
(1.19544 -0.0970847 4.18147e-06)
(1.2177 -0.0904655 4.11573e-06)
(1.23756 -0.0824942 3.36125e-06)
(1.25495 -0.0737673 2.32805e-06)
(1.26999 -0.0647115 1.42207e-06)
(1.28286 -0.0555747 8.26272e-07)
(1.29374 -0.0464629 4.93215e-07)
(1.3028 -0.0373727 2.6833e-07)
(1.31015 -0.0282051 3.64621e-08)
(1.31584 -0.0187836 -5.8461e-08)
(1.31983 -0.00887537 -2.56238e-08)
(1.32193 0.00177312 2.96957e-08)
(1.32188 0.0133398 6.74623e-07)
(1.31931 0.0259464 1.39788e-06)
(1.31378 0.0395655 1.94916e-06)
(1.30487 0.0540079 2.35289e-06)
(1.29228 0.0689284 2.53932e-06)
(1.27578 0.0838609 2.54708e-06)
(1.25542 0.0982511 2.26641e-06)
(1.23135 0.111533 1.88281e-06)
(1.20402 0.123165 1.31968e-06)
(1.17393 0.132719 8.53137e-07)
(1.14183 0.139847 3.78877e-07)
(1.10835 0.144388 2.96694e-08)
(1.07428 0.146186 -9.11486e-08)
(1.04027 0.145359 -4.00243e-07)
(1.00688 0.141689 1.53434e-07)
(0.974984 0.135661 -8.12436e-07)
(0.944313 0.126414 1.22761e-06)
(0.917089 0.115339 -1.74401e-06)
(0.890607 0.0998621 3.53161e-06)
(0.871214 0.083305 -3.79233e-06)
(0.850218 0.0607671 7.87105e-06)
(0.842901 0.0363355 -8.53412e-06)
(0.830237 0.00675902 1.60881e-05)
(0.84139 -0.0298112 -1.98032e-05)
(0.840381 -0.0628454 3.00251e-05)
(0.875845 -0.111795 -3.92318e-05)
(0.881247 -0.137039 3.66612e-05)
(0.943175 -0.198412 -4.21248e-05)
(1.00024 -0.0117969 1.1357e-06)
(1.00577 -0.0350357 -2.04049e-06)
(1.01678 -0.0571773 -3.79626e-06)
(1.03315 -0.0773559 -2.86333e-06)
(1.05422 -0.0947781 -2.0016e-06)
(1.07917 -0.108748 -1.54596e-06)
(1.107 -0.118689 -4.61882e-07)
(1.13656 -0.124272 1.20702e-06)
(1.16654 -0.125474 3.21786e-06)
(1.19567 -0.122635 5.09323e-06)
(1.22286 -0.116454 6.08e-06)
(1.24736 -0.107861 5.80542e-06)
(1.26886 -0.0977979 4.48853e-06)
(1.2874 -0.087042 2.85829e-06)
(1.30326 -0.076109 1.5003e-06)
(1.31676 -0.0652688 7.43866e-07)
(1.32817 -0.0546179 4.00629e-07)
(1.33775 -0.0441252 1.10018e-07)
(1.34566 -0.0336424 -2.11393e-07)
(1.35202 -0.0229139 -3.65785e-07)
(1.35678 -0.011603 -3.01026e-07)
(1.35974 0.000659404 -5.28923e-07)
(1.36054 0.0141453 5.57908e-07)
(1.3587 0.029041 1.64775e-06)
(1.35363 0.0453345 2.46666e-06)
(1.34476 0.0627879 3.10118e-06)
(1.33165 0.0809534 3.44427e-06)
(1.31401 0.0992159 3.49983e-06)
(1.29184 0.116844 3.15079e-06)
(1.26536 0.13309 2.62961e-06)
(1.23512 0.147258 1.89142e-06)
(1.20176 0.158804 1.22734e-06)
(1.16619 0.167321 6.093e-07)
(1.12919 0.172632 8.71604e-08)
(1.0917 0.174607 -3.32828e-08)
(1.05445 0.17342 -5.03207e-07)
(1.018 0.168878 2.79516e-07)
(0.983368 0.161602 -1.01793e-06)
(0.950033 0.150562 1.54612e-06)
(0.920632 0.1375 -2.03096e-06)
(0.891805 0.119213 3.92884e-06)
(0.87067 0.0998131 -3.70133e-06)
(0.847759 0.0732314 7.77157e-06)
(0.839045 0.0439657 -7.01503e-06)
(0.826247 0.00863844 1.43426e-05)
(0.836529 -0.0356113 -1.6187e-05)
(0.837076 -0.0743832 2.75037e-05)
(0.868479 -0.130984 -3.53148e-05)
(0.873797 -0.15885 3.53503e-05)
(0.924685 -0.227171 -4.29651e-05)
(1.00027 -0.0142494 1.28465e-06)
(1.00666 -0.0422914 -2.15078e-06)
(1.01936 -0.0690614 -4.48421e-06)
(1.03829 -0.0934702 -3.41684e-06)
(1.06272 -0.114565 -2.6765e-06)
(1.09172 -0.13144 -2.17125e-06)
(1.12415 -0.14331 -5.71159e-07)
(1.15857 -0.149713 1.87372e-06)
(1.19335 -0.150578 4.95249e-06)
(1.22684 -0.14635 7.73534e-06)
(1.25766 -0.138023 8.92533e-06)
(1.28492 -0.126902 8.10114e-06)
(1.30836 -0.114281 5.81518e-06)
(1.32824 -0.101159 3.14621e-06)
(1.34504 -0.0881319 1.2247e-06)
(1.35925 -0.075465 4.52121e-07)
(1.37128 -0.0632287 1.76613e-07)
(1.38146 -0.0513553 -2.22982e-07)
(1.39004 -0.0396336 -7.51778e-07)
(1.39721 -0.0277026 -1.02137e-06)
(1.40296 -0.0150784 -7.86223e-07)
(1.40703 -0.00125815 -1.2551e-06)
(1.40896 0.0142173 1.97506e-07)
(1.4081 0.0315974 1.75417e-06)
(1.40368 0.050899 2.86959e-06)
(1.39488 0.0718244 3.80331e-06)
(1.38111 0.0937861 4.45013e-06)
(1.36195 0.115968 4.67848e-06)
(1.3374 0.137405 4.29997e-06)
(1.30772 0.157111 3.59759e-06)
(1.27364 0.174192 2.62219e-06)
(1.23599 0.187961 1.69463e-06)
(1.19593 0.197951 8.90523e-07)
(1.15445 0.203988 1.34216e-07)
(1.11263 0.206001 1.39416e-08)
(1.07137 0.204259 -6.59262e-07)
(1.03119 0.198619 3.99072e-07)
(0.993298 0.189878 -1.26285e-06)
(0.956822 0.176829 1.87969e-06)
(0.924862 0.161589 -2.2907e-06)
(0.893399 0.140349 4.28144e-06)
(0.870072 0.11791 -3.33934e-06)
(0.845153 0.0870723 7.43728e-06)
(0.834697 0.052373 -4.85773e-06)
(0.821926 0.0107663 1.2016e-05)
(0.830589 -0.0410048 -1.19181e-05)
(0.83019 -0.0843777 2.48268e-05)
(0.854372 -0.146623 -3.27994e-05)
(0.854022 -0.174605 3.52845e-05)
(0.891815 -0.250382 -4.67352e-05)
(1.00032 -0.0170929 1.46511e-06)
(1.00773 -0.0506759 -2.06841e-06)
(1.02248 -0.0828572 -5.36815e-06)
(1.04455 -0.112218 -3.99869e-06)
(1.07313 -0.137684 -3.78072e-06)
(1.10726 -0.15803 -3.1983e-06)
(1.14555 -0.172176 -9.60456e-07)
(1.18623 -0.179471 2.71443e-06)
(1.22724 -0.179729 7.81486e-06)
(1.26636 -0.173539 1.22212e-05)
(1.30176 -0.162318 1.34942e-05)
(1.33237 -0.147926 1.13107e-05)
(1.35807 -0.132143 6.94905e-06)
(1.37943 -0.116241 2.32293e-06)
(1.39725 -0.100864 -6.94524e-08)
(1.41224 -0.0862256 -4.51737e-07)
(1.42492 -0.0723529 -4.38968e-07)
(1.43571 -0.0591364 -1.0274e-06)
(1.445 -0.0462893 -1.96526e-06)
(1.45308 -0.0333095 -2.44768e-06)
(1.45999 -0.019504 -2.07606e-06)
(1.46543 -0.00417923 -9.47321e-07)
(1.46883 0.0133308 -1.94646e-07)
(1.46928 0.0334237 1.56296e-06)
(1.46575 0.0561523 3.01069e-06)
(1.45713 0.0811524 4.16568e-06)
(1.44258 0.107654 5.09846e-06)
(1.42153 0.134559 5.6195e-06)
(1.3939 0.160572 5.4094e-06)
(1.36007 0.184386 4.64219e-06)
(1.32097 0.204852 3.42389e-06)
(1.27776 0.221111 2.17024e-06)
(1.23191 0.232635 1.14562e-06)
(1.18473 0.239285 1.2491e-07)
(1.13748 0.241098 2.49926e-08)
(1.09131 0.238496 -8.56104e-07)
(1.04662 0.231426 4.82766e-07)
(1.00485 0.220911 -1.50101e-06)
(0.964753 0.205571 2.14913e-06)
(0.929789 0.18788 -2.4421e-06)
(0.895449 0.163565 4.52133e-06)
(0.869381 0.137841 -2.6478e-06)
(0.842442 0.102414 6.91042e-06)
(0.830008 0.0617078 -2.58042e-06)
(0.816965 0.0135279 9.0595e-06)
(0.822267 -0.0441008 -8.60825e-06)
(0.816435 -0.0899346 2.21169e-05)
(0.830252 -0.154851 -3.37918e-05)
(0.818653 -0.181686 3.63506e-05)
(0.848528 -0.268991 -5.42362e-05)
(1.00038 -0.0204088 1.69775e-06)
(1.00902 -0.0604032 -1.62618e-06)
(1.0262 -0.0989854 -6.49504e-06)
(1.0521 -0.134194 -4.42331e-06)
(1.08577 -0.164979 -5.58925e-06)
(1.12636 -0.18957 -4.72441e-06)
(1.17214 -0.206507 -2.04238e-06)
(1.22096 -0.214819 3.31717e-06)
(1.2701 -0.21407 1.1844e-05)
(1.3165 -0.205093 1.91902e-05)
(1.35766 -0.189952 2.07673e-05)
(1.39227 -0.171304 1.63094e-05)
(1.42047 -0.151597 7.20587e-06)
(1.44333 -0.132408 -5.97679e-07)
(1.4621 -0.114361 -3.26041e-06)
(1.47773 -0.0975561 -2.76737e-06)
(1.49084 -0.081968 -2.15674e-06)
(1.50199 -0.0674548 -3.03201e-06)
(1.51175 -0.0536451 -4.52515e-06)
(1.52059 -0.0398441 -5.26433e-06)
(1.52865 -0.0250836 -4.77238e-06)
(1.53561 -0.0083785 -3.29397e-06)
(1.54076 0.0111751 -2.55708e-06)
(1.54294 0.0342562 -6.04964e-07)
(1.54073 0.0609243 1.53826e-06)
(1.53264 0.0907372 3.42316e-06)
(1.51746 0.12272 4.84341e-06)
(1.4943 0.155411 5.60028e-06)
(1.463 0.187051 5.61723e-06)
(1.424 0.215863 5.07307e-06)
(1.37856 0.240337 3.91368e-06)
(1.32826 0.259404 2.45928e-06)
(1.27503 0.272489 1.17449e-06)
(1.22067 0.279546 -1.18201e-07)
(1.16668 0.280783 -1.50433e-07)
(1.11448 0.276863 -1.1468e-06)
(1.06441 0.267892 4.70418e-07)
(1.01805 0.255159 -1.67951e-06)
(0.973874 0.237159 2.27406e-06)
(0.93541 0.216664 -2.4113e-06)
(0.897959 0.18917 4.64773e-06)
(0.868583 0.159847 -1.58276e-06)
(0.839725 0.119311 6.26282e-06)
(0.825094 0.0722811 -9.05027e-07)
(0.810604 0.0181439 5.21543e-06)
(0.809216 -0.04192 -7.5039e-06)
(0.793142 -0.0876642 1.91507e-05)
(0.794888 -0.153169 -3.70132e-05)
(0.771749 -0.181757 3.85962e-05)
(0.804416 -0.287333 -6.24294e-05)
(1.00045 -0.0242849 2.05036e-06)
(1.01051 -0.0716965 -6.1773e-07)
(1.03058 -0.117932 -7.85756e-06)
(1.06107 -0.160075 -4.3955e-06)
(1.10093 -0.197509 -8.50874e-06)
(1.14967 -0.227412 -6.51406e-06)
(1.20505 -0.247939 -3.94965e-06)
(1.26455 -0.257509 3.94675e-06)
(1.32436 -0.255126 1.70404e-05)
(1.3802 -0.242094 2.77088e-05)
(1.42853 -0.221529 2.96477e-05)
(1.46769 -0.197291 2.2011e-05)
(1.49826 -0.172723 5.91452e-06)
(1.52213 -0.149644 -5.91933e-06)
(1.54121 -0.128505 -8.95731e-06)
(1.55668 -0.109229 -7.02842e-06)
(1.56927 -0.0917721 -5.4484e-06)
(1.57974 -0.0760047 -6.67426e-06)
(1.58897 -0.0614558 -8.6663e-06)
(1.59775 -0.0471855 -9.40626e-06)
(1.6064 -0.0318501 -8.80323e-06)
(1.61464 -0.0141138 -6.65887e-06)
(1.62171 0.00723395 -5.87479e-06)
(1.62611 0.0334768 -6.34067e-06)
(1.62597 0.064669 -5.27297e-06)
(1.61934 0.100213 -2.40116e-06)
(1.60443 0.138864 9.14202e-07)
(1.57982 0.178703 3.02467e-06)
(1.54496 0.21737 3.77763e-06)
(1.50027 0.25244 3.63725e-06)
(1.44735 0.281847 2.902e-06)
(1.3884 0.304188 1.8244e-06)
(1.32606 0.318847 6.07976e-07)
(1.26278 0.325975 -6.62378e-07)
(1.20053 0.326082 -5.55759e-07)
(1.14104 0.32019 -1.55828e-06)
(1.08464 0.308677 2.95768e-07)
(1.03288 0.29312 -1.78849e-06)
(0.984174 0.271972 2.2e-06)
(0.941703 0.248253 -2.1754e-06)
(0.900852 0.217472 4.71952e-06)
(0.867746 0.184093 -3.4174e-07)
(0.837162 0.137837 5.52957e-06)
(0.819783 0.0848408 -1.82856e-08)
(0.801426 0.0270324 3.18145e-06)
(0.789153 -0.0312047 -7.58669e-06)
(0.760333 -0.0756098 1.65506e-05)
(0.751894 -0.143072 -3.77677e-05)
(0.723948 -0.180897 4.137e-05)
(0.768363 -0.310319 -6.71655e-05)
(1.00056 -0.028801 2.69901e-06)
(1.01217 -0.0847794 1.20224e-06)
(1.03563 -0.140237 -9.17887e-06)
(1.07146 -0.190603 -3.82909e-06)
(1.1188 -0.236595 -1.34176e-05)
(1.17787 -0.273248 -8.47519e-06)
(1.24552 -0.298649 -6.88953e-06)
(1.31915 -0.309914 7.00387e-06)
(1.39315 -0.305023 2.63719e-05)
(1.46127 -0.285987 3.7036e-05)
(1.51803 -0.257552 3.48238e-05)
(1.56134 -0.225674 1.9384e-05)
(1.59276 -0.194971 -3.25718e-06)
(1.61563 -0.167241 -1.68454e-05)
(1.63275 -0.14243 -1.79111e-05)
(1.64556 -0.120204 -1.24668e-05)
(1.65492 -0.100613 -8.90524e-06)
(1.66196 -0.0836386 -1.02292e-05)
(1.66807 -0.0686982 -1.25223e-05)
(1.67455 -0.0545252 -1.25977e-05)
(1.68206 -0.039334 -1.18877e-05)
(1.69043 -0.0212183 -9.76603e-06)
(1.69919 0.00137626 -4.61222e-06)
(1.7066 0.0301241 -9.105e-06)
(1.71004 0.065861 -1.4938e-05)
(1.70705 0.107897 -1.57304e-05)
(1.69509 0.154622 -1.24462e-05)
(1.67179 0.203477 -7.90901e-06)
(1.63572 0.251207 -3.88498e-06)
(1.58672 0.294414 -1.50241e-06)
(1.52649 0.330219 -9.9557e-07)
(1.45803 0.356708 -1.50098e-06)
(1.38509 0.373143 -1.97262e-06)
(1.31122 0.379971 -2.46293e-06)
(1.2391 0.378203 -1.65785e-06)
(1.17096 0.369431 -2.21285e-06)
(1.10719 0.354507 -2.9219e-08)
(1.04922 0.335306 -1.80426e-06)
(0.995547 0.310375 1.97303e-06)
(0.948588 0.28298 -1.70976e-06)
(0.903993 0.248718 4.82882e-06)
(0.867073 0.210625 8.31212e-07)
(0.834875 0.158237 4.08173e-06)
(0.813452 0.100917 8.10584e-08)
(0.78784 0.0431503 5.1846e-08)
(0.761708 -0.0101606 -7.83424e-06)
(0.721948 -0.0551979 1.52526e-05)
(0.708847 -0.129849 -3.32644e-05)
(0.685053 -0.185476 4.15986e-05)
(0.742376 -0.339684 -6.79593e-05)
(1.00069 -0.033999 4.02283e-06)
(1.0139 -0.0998805 3.89607e-06)
(1.04133 -0.166435 -9.37864e-06)
(1.08303 -0.22656 -3.54675e-06)
(1.13948 -0.283904 -2.19344e-05)
(1.21141 -0.329104 -1.27627e-05)
(1.29451 -0.361406 -1.47443e-05)
(1.38704 -0.374908 1.17946e-05)
(1.48029 -0.366545 4.44386e-05)
(1.56408 -0.338717 5.28999e-05)
(1.62867 -0.298296 3.34264e-05)
(1.67218 -0.255252 -5.05229e-06)
(1.69887 -0.216309 -3.50518e-05)
(1.71482 -0.182734 -4.2057e-05)
(1.72405 -0.153365 -3.1878e-05)
(1.72828 -0.127485 -1.57929e-05)
(1.72853 -0.105421 -8.27031e-06)
(1.72652 -0.0873807 -9.51503e-06)
(1.72445 -0.072686 -1.16856e-05)
(1.72427 -0.0596105 -1.0776e-05)
(1.72726 -0.0459079 -9.6324e-06)
(1.73358 -0.0290156 -9.95296e-06)
(1.7429 -0.00638668 -6.28356e-06)
(1.75409 0.0234348 -2.57138e-06)
(1.76415 0.0623692 -1.07246e-05)
(1.76952 0.110376 -1.96506e-05)
(1.76662 0.165797 -2.51623e-05)
(1.75159 0.225547 -2.62934e-05)
(1.7213 0.285278 -2.27173e-05)
(1.67398 0.339935 -1.63448e-05)
(1.61044 0.384944 -1.08173e-05)
(1.53417 0.417355 -7.91357e-06)
(1.45057 0.436274 -6.5749e-06)
(1.36511 0.442645 -5.88789e-06)
(1.28185 0.438253 -4.01594e-06)
(1.20385 0.42554 -3.58272e-06)
(1.13175 0.406128 -7.67894e-07)
(1.06684 0.382229 -1.90112e-06)
(1.00778 0.35272 1.60361e-06)
(0.955895 0.321176 -9.88604e-07)
(0.907284 0.283023 4.91212e-06)
(0.86683 0.239395 1.46598e-06)
(0.832738 0.181214 1.85599e-06)
(0.80508 0.122604 -1.30789e-06)
(0.769223 0.0686038 -1.69627e-06)
(0.729593 0.020297 -3.92121e-06)
(0.684294 -0.0307868 1.50306e-05)
(0.672408 -0.119001 -2.61337e-05)
(0.657931 -0.197963 3.70485e-05)
(0.722949 -0.373468 -6.63096e-05)
(1.00073 -0.0398413 6.70476e-06)
(1.01571 -0.117247 7.11653e-06)
(1.04737 -0.196848 -5.65063e-06)
(1.09514 -0.268874 -5.37067e-06)
(1.16289 -0.34152 -3.41801e-05)
(1.24982 -0.39734 -2.62007e-05)
(1.35245 -0.439943 -3.84071e-05)
(1.47077 -0.456291 5.15481e-06)
(1.58953 -0.44253 6.07885e-05)
(1.6897 -0.401027 8.18031e-05)
(1.75395 -0.341971 4.51914e-05)
(1.78462 -0.282315 -3.0345e-05)
(1.79209 -0.231701 -7.89959e-05)
(1.78768 -0.190273 -7.54767e-05)
(1.77705 -0.155052 -4.13221e-05)
(1.76199 -0.124744 -7.14417e-06)
(1.74355 -0.100104 4.08758e-06)
(1.72402 -0.081557 1.3526e-06)
(1.70657 -0.0682569 -5.62122e-07)
(1.69384 -0.0580669 1.27842e-06)
(1.68784 -0.0481609 2.18184e-06)
(1.68968 -0.0355339 1.56333e-07)
(1.69912 -0.0164123 -2.44175e-06)
(1.71576 0.011888 4.53142e-06)
(1.7371 0.0511693 3.88346e-06)
(1.75856 0.102663 -2.26011e-06)
(1.77512 0.165389 -1.10515e-05)
(1.78095 0.236394 -2.16669e-05)
(1.77043 0.310676 -3.06718e-05)
(1.73882 0.381481 -3.36225e-05)
(1.68386 0.441286 -2.99157e-05)
(1.60776 0.484195 -2.33133e-05)
(1.51745 0.508084 -1.69598e-05)
(1.42151 0.514594 -1.22177e-05)
(1.32691 0.506997 -7.69412e-06)
(1.23843 0.48923 -5.45868e-06)
(1.15739 0.464109 -1.73109e-06)
(1.08512 0.434285 -2.07936e-06)
(1.02043 0.399304 1.19072e-06)
(0.963317 0.36309 -8.33831e-08)
(0.910699 0.320308 4.80881e-06)
(0.867192 0.270444 1.07866e-06)
(0.830226 0.20799 -1.44976e-06)
(0.794029 0.151723 -3.43042e-06)
(0.747014 0.103402 -3.4239e-06)
(0.697329 0.056787 -9.08286e-07)
(0.652442 -0.00703137 1.37502e-05)
(0.645063 -0.113263 -1.99247e-05)
(0.640156 -0.216931 2.98415e-05)
(0.706769 -0.408454 -6.23067e-05)
(1.00046 -0.0461955 1.15512e-05)
(1.01779 -0.13702 1.15684e-05)
(1.05252 -0.231211 6.97306e-06)
(1.10696 -0.318879 -9.22278e-06)
(1.18765 -0.411456 -4.18933e-05)
(1.29028 -0.481074 -5.80281e-05)
(1.41955 -0.540741 -8.38722e-05)
(1.57345 -0.561465 -1.79593e-05)
(1.71887 -0.532817 4.46963e-05)
(1.81964 -0.464608 9.40611e-05)
(1.85528 -0.376115 0.000110175)
(1.84384 -0.293998 2.38451e-05)
(1.80381 -0.228323 -6.51146e-05)
(1.75615 -0.177373 -7.36365e-05)
(1.70834 -0.13571 -2.05589e-05)
(1.6614 -0.101393 2.24001e-05)
(1.61507 -0.0753819 2.77433e-05)
(1.57153 -0.0580862 1.80307e-05)
(1.53439 -0.0484673 1.51568e-05)
(1.50688 -0.0440776 1.74808e-05)
(1.49174 -0.0417305 1.8338e-05)
(1.49115 -0.0377085 1.76096e-05)
(1.50586 -0.0275628 1.51954e-05)
(1.53507 -0.00668699 1.29523e-05)
(1.57591 0.0280477 1.84124e-05)
(1.62328 0.0788909 2.20757e-05)
(1.67093 0.145452 2.2169e-05)
(1.71154 0.22563 1.36597e-05)
(1.7374 0.314544 -1.6499e-06)
(1.74095 0.404812 -1.8284e-05)
(1.71533 0.48628 -3.0752e-05)
(1.65776 0.54811 -3.55147e-05)
(1.57353 0.583858 -3.21048e-05)
(1.47396 0.594198 -2.42996e-05)
(1.37081 0.584267 -1.5203e-05)
(1.2726 0.560768 -9.10909e-06)
(1.18269 0.528704 -3.34522e-06)
(1.10311 0.491622 -2.46564e-06)
(1.03275 0.45026 8.54242e-07)
(0.970391 0.40873 8.48368e-07)
(0.914199 0.360307 4.17368e-06)
(0.867992 0.30407 -5.25794e-07)
(0.826707 0.239878 -5.38533e-06)
(0.780615 0.188924 -5.05876e-06)
(0.723968 0.145496 -3.82452e-06)
(0.669016 0.0952897 2.64377e-06)
(0.628715 0.0132098 1.17409e-05)
(0.626303 -0.11265 -1.49731e-05)
(0.628994 -0.239684 2.35373e-05)
(0.693231 -0.442215 -5.5752e-05)
(0.999798 -0.0528699 1.83556e-05)
(1.02001 -0.158638 2.1882e-05)
(1.05443 -0.268489 3.271e-05)
(1.11733 -0.377778 -7.78732e-06)
(1.20762 -0.493888 -2.3746e-05)
(1.32758 -0.586287 -0.000103898)
(1.49578 -0.675302 -0.000122198)
(1.69114 -0.696403 -4.06167e-05)
(1.83657 -0.625459 1.33148e-05)
(1.87548 -0.498223 3.92321e-05)
(1.81668 -0.362317 0.000151591)
(1.71399 -0.256459 0.000116391)
(1.58481 -0.178549 9.93583e-06)
(1.47307 -0.122994 -2.64986e-05)
(1.38237 -0.0796298 2.32106e-05)
(1.30791 -0.0465526 5.33361e-05)
(1.24289 -0.0245872 2.97905e-05)
(1.18743 -0.0137735 -2.3238e-06)
(1.145 -0.0129272 -7.02201e-06)
(1.11919 -0.0198398 -3.02345e-06)
(1.11306 -0.0312785 -1.21979e-06)
(1.12867 -0.0426111 9.75287e-07)
(1.16601 -0.0479682 5.96094e-06)
(1.22287 -0.0406866 1.29434e-05)
(1.29477 -0.0154965 2.2967e-05)
(1.3749 0.0305343 3.1319e-05)
(1.45738 0.0986117 4.39739e-05)
(1.5361 0.185594 4.7799e-05)
(1.60356 0.287285 3.95072e-05)
(1.65196 0.39708 2.21423e-05)
(1.67164 0.504275 -1.00685e-06)
(1.65326 0.593628 -2.30426e-05)
(1.5954 0.65171 -3.4676e-05)
(1.50762 0.67441 -3.35631e-05)
(1.40523 0.666824 -2.39852e-05)
(1.30194 0.639 -1.43259e-05)
(1.20522 0.599519 -5.86538e-06)
(1.11935 0.554068 -3.2214e-06)
(1.04373 0.505493 6.19832e-07)
(0.976591 0.457791 1.65223e-06)
(0.917624 0.402673 2.8237e-06)
(0.868769 0.340753 -2.86973e-06)
(0.821898 0.277694 -9.01633e-06)
(0.766136 0.233414 -5.41365e-06)
(0.702983 0.191981 -2.92225e-06)
(0.64706 0.132754 6.32189e-06)
(0.613344 0.0290049 1.01528e-05)
(0.615047 -0.116096 -1.03932e-05)
(0.623437 -0.264095 1.92646e-05)
(0.683236 -0.473441 -4.76553e-05)
(0.999124 -0.0595482 2.51617e-05)
(1.02076 -0.180032 4.16214e-05)
(1.05102 -0.307083 6.54508e-05)
(1.12136 -0.443289 1.53807e-05)
(1.21011 -0.586381 3.48835e-05)
(1.35765 -0.722594 -0.000169823)
(1.57038 -0.849607 -7.24946e-05)
(1.77379 -0.831474 -0.00013079)
(1.83271 -0.746486 5.44739e-05)
(1.74299 -0.510743 -0.000139332)
(1.52053 -0.287869 -0.000102286)
(1.26564 -0.146247 -4.80788e-05)
(0.873469 -0.0359335 -2.94877e-05)
(0.780067 -0.0166928 -2.65971e-05)
(0.728771 0.000782494 4.36294e-05)
(0.695614 0.0142867 6.33976e-05)
(0.667029 0.0210691 2.15428e-05)
(0.64716 0.0183095 -3.59293e-06)
(0.642421 0.00478182 -5.50063e-06)
(0.656213 -0.0191036 -8.67145e-06)
(0.690103 -0.0494143 -1.59901e-05)
(0.744551 -0.0794749 -1.9341e-05)
(0.817942 -0.101212 -1.6876e-05)
(0.906718 -0.106484 -9.98578e-06)
(1.00624 -0.0891427 2.49656e-06)
(1.11137 -0.0462166 1.54258e-05)
(1.21668 0.0230249 1.90319e-05)
(1.31815 0.115968 3.74281e-05)
(1.41253 0.228153 4.69516e-05)
(1.49452 0.354569 4.46882e-05)
(1.55548 0.486592 2.87008e-05)
(1.58218 0.607499 1.11868e-06)
(1.56464 0.697036 -2.39075e-05)
(1.50511 0.742978 -3.45628e-05)
(1.41744 0.74655 -2.97623e-05)
(1.31847 0.719487 -1.9053e-05)
(1.22046 0.674362 -8.53253e-06)
(1.13133 0.620591 -4.04681e-06)
(1.05192 0.564409 5.96027e-07)
(0.98126 0.509609 2.21488e-06)
(0.920597 0.447043 8.2185e-07)
(0.869005 0.380892 -5.4299e-06)
(0.816048 0.321398 -1.18405e-05)
(0.752253 0.283388 -4.48432e-06)
(0.686182 0.239975 -1.22467e-06)
(0.632399 0.167263 1.02604e-05)
(0.605917 0.0403983 9.18889e-06)
(0.610746 -0.1226 -6.36013e-06)
(0.623531 -0.288853 1.61985e-05)