0 	-1.07861e-08
1.57135 	-1.47611e-06
3.1427 	-2.02812e-05
4.71405 	-8.61582e-05
6.28539 	-0.000270205
7.85674 	-0.00078622
9.42809 	-0.00236019
10.9994 	-0.00510398
12.5708 	-0.00423512
14.1421 	0.250499
