/*--------------------------------*- C++ -*----------------------------------*\
  =========                 |
  \\      /  F ield         | OpenFOAM: The Open Source CFD Toolbox
   \\    /   O peration     | Website:  https://openfoam.org
    \\  /    A nd           | Version:  8
     \\/     M anipulation  |
\*---------------------------------------------------------------------------*/
FoamFile
{
    version     2.0;
    format      ascii;
    class       volScalarField;
    location    "0.175";
    object      T;
}
// * * * * * * * * * * * * * * * * * * * * * * * * * * * * * * * * * * * * * //

dimensions      [0 0 0 1 0 0 0];

internalField   nonuniform List<scalar> 
2500
(
49.9971
4.75495
-4.71929
-1.40541
1.241
0.807804
-0.368586
-0.623047
-0.125834
0.330314
0.369477
0.123752
-0.131882
-0.247065
-0.226637
-0.143647
-0.0618309
-0.00911709
0.0141953
0.018811
0.0152527
0.00996564
0.00566165
0.00289227
0.00135309
0.000586197
0.000236852
8.9653e-05
3.18673e-05
1.06412e-05
3.33158e-06
9.72673e-07
2.61788e-07
6.33849e-08
1.30039e-08
1.82668e-09
-9.65573e-11
-2.11467e-10
-1.10463e-10
-4.39837e-11
-1.53273e-11
-4.90007e-12
-1.46917e-12
-4.18198e-13
-1.13868e-13
-2.9806e-14
-7.52674e-15
-1.83743e-15
-4.3804e-16
-8.55338e-17
95.2501
49.9855
10.8667
-4.60774
-3.45402
0.880177
1.85421
0.324549
-0.947591
-0.886387
-0.0960228
0.530027
0.639529
0.384549
0.0561466
-0.162912
-0.237782
-0.215248
-0.154632
-0.0948403
-0.0512902
-0.0248523
-0.0108607
-0.00427416
-0.00149557
-0.000448674
-0.000103032
-8.5396e-06
8.71227e-06
7.40466e-06
4.03023e-06
1.82875e-06
7.42707e-07
2.78259e-07
9.77232e-08
3.24822e-08
1.02833e-08
3.11424e-09
9.05026e-10
2.52948e-10
6.80995e-11
1.76781e-11
4.42702e-12
1.06938e-12
2.48981e-13
5.57841e-14
1.19924e-14
2.46153e-15
4.80082e-16
7.60741e-17
104.738
89.1336
49.9659
12.9405
-4.3921
-4.62107
0.301532
2.43176
1.18384
-0.72173
-1.40218
-0.844425
0.0842032
0.700142
0.837529
0.661943
0.39657
0.179088
0.0493056
-0.00829365
-0.023823
-0.0213416
-0.0143003
-0.0081586
-0.00415597
-0.00193532
-0.000835259
-0.000337044
-0.000127906
-4.58291e-05
-1.55414e-05
-4.99358e-06
-1.51974e-06
-4.37158e-07
-1.18287e-07
-2.98246e-08
-6.87681e-09
-1.39031e-09
-2.1789e-10
-1.11037e-11
1.02541e-11
6.16347e-12
2.46425e-12
8.36252e-13
2.5757e-13
7.40848e-14
2.01987e-14
5.26364e-15
1.33131e-15
2.72656e-16
101.398
104.671
87.0478
49.931
14.2018
-4.027
-5.47801
-0.515248
2.58977
2.05798
0.00907939
-1.37444
-1.46368
-0.767092
0.00775433
0.475514
0.600036
0.512953
0.355243
0.211614
0.111422
0.0525271
0.0222452
0.00840655
0.00276768
0.00074003
0.000119221
-2.47254e-05
-3.57018e-05
-2.22173e-05
-1.08777e-05
-4.67062e-06
-1.83181e-06
-6.6956e-07
-2.30756e-07
-7.55425e-08
-2.36103e-08
-7.07038e-09
-2.03393e-09
-5.63108e-10
-1.50229e-10
-3.86488e-11
-9.59009e-12
-2.29421e-12
-5.28518e-13
-1.16988e-13
-2.47871e-14
-4.99466e-15
-9.49161e-16
-1.45394e-16
98.7244
103.479
104.505
85.7615
49.8954
15.2852
-3.50381
-6.17782
-1.54121
2.35322
2.80081
1.06745
-0.768699
-1.63347
-1.55459
-1.02636
-0.482328
-0.118504
0.0539295
0.100153
0.0877015
0.0594759
0.034623
0.0180287
0.00857877
0.00377818
0.00155273
0.000598701
0.000217322
7.43937e-05
2.40181e-05
7.29878e-06
2.07734e-06
5.48123e-07
1.31291e-07
2.7186e-08
4.16788e-09
6.56821e-11
-3.02433e-10
-1.70528e-10
-6.87931e-11
-2.39143e-11
-7.5834e-12
-2.24993e-12
-6.3313e-13
-1.70379e-13
-4.40853e-14
-1.10039e-14
-2.68016e-15
-5.32975e-16
99.1845
99.0376
104.704
104.219
84.6513
49.8339
16.3464
-2.77475
-6.66786
-2.70047
1.64371
3.10253
2.10711
0.355599
-0.924755
-1.397
-1.27979
-0.918597
-0.555594
-0.291342
-0.133466
-0.0527975
-0.0171864
-0.00382032
0.000159009
0.000834036
0.000636616
0.000357538
0.000172112
7.47523e-05
3.001e-05
1.12888e-05
4.01323e-06
1.35619e-06
4.37435e-07
1.35069e-07
4.00106e-08
1.13869e-08
3.11615e-09
8.20208e-10
2.07557e-10
5.04308e-11
1.17357e-11
2.60418e-12
5.46853e-13
1.07179e-13
1.90693e-14
2.88063e-15
2.81163e-16
-1.21617e-17
100.412
98.0506
99.5975
105.668
103.756
83.5054
49.7662
17.505
-1.79715
-6.96614
-4.00307
0.438981
2.86374
2.95084
1.83151
0.615002
-0.168328
-0.4773
-0.48232
-0.362773
-0.229923
-0.128745
-0.0652329
-0.0303252
-0.0130442
-0.00521758
-0.00194491
-0.000675163
-0.0002173
-6.41467e-05
-1.69577e-05
-3.78226e-06
-5.74633e-07
3.37717e-08
7.80525e-08
4.37543e-08
1.86689e-08
6.95777e-09
2.3744e-09
7.58553e-10
2.29682e-10
6.64211e-11
1.84395e-11
4.93201e-12
1.27429e-12
3.18655e-13
7.72344e-14
1.81561e-14
4.1737e-15
7.90125e-16
100.67
99.7077
97.3715
100.413
106.476
103.104
82.3062
49.6955
18.7144
-0.624294
-6.98855
-5.19483
-1.02116
2.03024
3.08126
2.72124
1.83026
0.994783
0.432433
0.133121
0.00779011
-0.0279953
-0.028126
-0.0190987
-0.0108051
-0.00542641
-0.00248972
-0.00106041
-0.000423452
-0.000159611
-5.7055e-05
-1.94072e-05
-6.29646e-06
-1.95142e-06
-5.78139e-07
-1.63711e-07
-4.42538e-08
-1.13885e-08
-2.776e-09
-6.35036e-10
-1.33955e-10
-2.50861e-11
-3.75542e-12
-2.49803e-13
1.12624e-13
6.96235e-14
2.65406e-14
8.47755e-15
2.48085e-15
5.60969e-16
100.114
101.105
98.7577
97.0583
101.497
107.188
102.236
80.9395
49.5344
20.0157
0.922763
-6.49662
-6.10887
-2.78414
0.240465
1.814
2.10773
1.7199
1.15364
0.671837
0.348381
0.16284
0.0688778
0.0262501
0.00886033
0.00252621
0.000517981
4.06477e-06
-7.16538e-05
-5.16953e-05
-2.67322e-05
-1.1826e-05
-4.73273e-06
-1.75752e-06
-6.14155e-07
-2.03708e-07
-6.45085e-08
-1.95834e-08
-5.71657e-09
-1.60819e-09
-4.36748e-10
-1.14643e-10
-2.91106e-11
-7.15375e-12
-1.70144e-12
-3.91484e-13
-8.70544e-14
-1.86716e-14
-3.87093e-15
-6.61205e-16
99.5967
101.017
100.909
97.6881
97.218
102.848
107.688
101.027
79.4086
49.4241
21.5397
2.82761
-5.62641
-6.83746
-4.74798
-2.18147
-0.393895
0.452448
0.654721
0.55375
0.374468
0.219723
0.115884
0.0559938
0.0250765
0.0104879
0.00411701
0.00152158
0.000530255
0.000174208
5.38324e-05
1.55604e-05
4.16036e-06
1.00523e-06
2.07596e-07
3.03205e-08
-7.46468e-10
-2.99795e-09
-1.61369e-09
-6.49563e-10
-2.2785e-10
-7.32418e-11
-2.20804e-11
-6.32292e-12
-1.73336e-12
-4.57276e-13
-1.16514e-13
-2.87374e-14
-6.93465e-15
-1.37047e-15
99.5578
100.053
101.702
100.133
96.7384
97.8689
104.313
107.921
99.5828
77.8095
49.2746
23.0192
4.85249
-4.30596
-6.80968
-5.84288
-3.84065
-2.07259
-0.919166
-0.311071
-0.0513224
0.0307824
0.0405641
0.0294578
0.0171896
0.00880018
0.00409736
0.00176803
0.000715152
0.000273218
9.91127e-05
3.42727e-05
1.13298e-05
3.58828e-06
1.09044e-06
3.18265e-07
8.92538e-08
2.40446e-08
6.21618e-09
1.53897e-09
3.63504e-10
8.13833e-11
1.7071e-11
3.27994e-12
5.48223e-13
6.76121e-14
2.93136e-16
-3.64047e-15
-1.71568e-15
-4.75421e-16
99.8701
99.2457
101.014
101.891
98.8526
96.0441
99.0562
105.953
107.937
97.7759
75.826
48.799
24.4531
7.39839
-1.77876
-5.04568
-5.00958
-3.71813
-2.32765
-1.28367
-0.636071
-0.285647
-0.116349
-0.0426326
-0.0137138
-0.00361742
-0.000592173
0.000102
0.000158932
9.93573e-05
4.86458e-05
2.08947e-05
8.21007e-06
3.01224e-06
1.04424e-06
3.44636e-07
1.08852e-07
3.30268e-08
9.65337e-09
2.72409e-09
7.4341e-10
1.96459e-10
5.03247e-11
1.25044e-11
3.01507e-12
7.05575e-13
1.60219e-13
3.52728e-14
7.56564e-15
1.3427e-15
100.212
99.0851
99.7976
102.045
101.215
97.2404
96.0153
100.986
107.605
107.325
95.2459
73.4254
48.3574
26.4043
10.936
2.12994
-1.69072
-2.60111
-2.22533
-1.51834
-0.90039
-0.480873
-0.235662
-0.10717
-0.0455514
-0.0181805
-0.00683314
-0.00242144
-0.000808634
-0.000253787
-7.43946e-05
-2.01158e-05
-4.88671e-06
-9.99071e-07
-1.34573e-07
1.23284e-08
1.90826e-08
9.83851e-09
3.94825e-09
1.39622e-09
4.54615e-10
1.39176e-10
4.05344e-11
1.13141e-11
3.04165e-12
7.90358e-13
1.99027e-13
4.86463e-14
1.16586e-14
2.29403e-15
100.378
99.4618
98.9107
101.038
102.423
99.6766
95.928
96.9803
103.332
108.737
105.905
92.3039
71.1278
48.2461
28.6298
14.6127
6.11251
1.76102
-0.0394859
-0.542237
-0.519813
-0.358622
-0.209705
-0.109708
-0.0526721
-0.0235457
-0.00989102
-0.00392944
-0.00148315
-0.000533718
-0.000183589
-6.04853e-05
-1.91134e-05
-5.79835e-06
-1.68932e-06
-4.72557e-07
-1.26793e-07
-3.25634e-08
-7.97518e-09
-1.85067e-09
-4.02237e-10
-8.00709e-11
-1.3872e-11
-1.77854e-12
-1.24387e-14
1.00398e-13
4.82998e-14
1.68886e-14
5.19948e-15
1.21138e-15
100.349
100.032
98.646
99.7115
102.338
101.825
97.6899
95.2508
98.7375
105.803
109.482
104.136
89.2051
68.546
47.3571
29.5182
16.6323
8.46001
3.85547
1.54284
0.513974
0.117948
-0.00501034
-0.0277901
-0.0222089
-0.0130927
-0.00663142
-0.00303706
-0.00128828
-0.000513068
-0.000193507
-6.95265e-05
-2.39012e-05
-7.88744e-06
-2.50508e-06
-7.67317e-07
-2.27051e-07
-6.49911e-08
-1.80152e-08
-4.84e-09
-1.26107e-09
-3.18771e-10
-7.81843e-11
-1.8603e-11
-4.29167e-12
-9.58957e-13
-2.07182e-13
-4.31552e-14
-8.66836e-15
-1.43514e-15
100.207
100.526
98.8623
98.6461
101.491
103.063
99.934
95.3893
95.5024
101.687
108.875
110.05
101.536
84.6672
63.8943
43.8716
27.5761
15.9567
8.53938
4.24102
1.9587
0.841541
0.33569
0.123622
0.0415087
0.0123622
0.00304105
0.000463537
-8.07592e-05
-0.000116075
-6.92307e-05
-3.25693e-05
-1.35069e-05
-5.14479e-06
-1.83645e-06
-6.21456e-07
-2.0085e-07
-6.23121e-08
-1.86263e-08
-5.37976e-09
-1.50467e-09
-4.0826e-10
-1.07618e-10
-2.75936e-11
-6.8888e-12
-1.67592e-12
-3.97593e-13
-9.19992e-14
-2.09283e-14
-3.94291e-15
100.042
100.838
99.2844
98.0232
100.466
103.466
101.808
96.4498
93.8348
98.1465
106.618
112.109
108.864
95.9344
76.6161
55.7272
37.1646
22.8778
13.0783
6.97955
3.49301
1.64554
0.732002
0.308251
0.123118
0.0467011
0.0168341
0.0057651
0.00187321
0.000575705
0.00016639
4.47346e-05
1.0949e-05
2.32145e-06
3.64439e-07
5.14239e-09
-2.8564e-08
-1.65854e-08
-6.92313e-09
-2.49661e-09
-8.23037e-10
-2.54367e-10
-7.47128e-11
-2.10295e-11
-5.70364e-12
-1.49641e-12
-3.80873e-13
-9.42081e-14
-2.28897e-14
-4.56424e-15
99.9077
100.984
99.7001
97.7672
99.6111
103.377
103.044
97.6653
93.2782
95.7387
104.259
112.2
112.658
102.99
85.3579
64.4039
44.5386
28.4296
16.8592
9.34176
4.86096
2.38561
1.10837
0.489101
0.205569
0.0824952
0.0316758
0.0116586
0.00411954
0.00139925
0.000457323
0.00014393
4.36387e-05
1.27472e-05
3.58606e-06
9.7066e-07
2.52338e-07
6.28112e-08
1.4894e-08
3.33504e-09
6.93954e-10
1.29798e-10
2.00165e-11
1.71641e-12
-3.86071e-13
-2.86503e-13
-1.13125e-13
-3.66545e-14
-1.08248e-14
-2.46468e-15
99.8181
101.026
100.013
97.7256
99.034
103.107
103.722
98.647
93.2925
94.354
102.447
111.58
114.343
106.996
90.8119
70.145
49.6375
32.4107
19.6579
11.1415
5.93149
2.97967
1.41797
0.641436
0.276659
0.114076
0.0450747
0.0171027
0.00624314
0.0021962
0.000745623
0.000244636
7.76587e-05
2.3877e-05
7.11688e-06
2.05807e-06
5.77801e-07
1.5757e-07
4.17558e-08
1.07549e-08
2.69252e-09
6.55091e-10
1.54823e-10
3.55137e-11
7.89587e-12
1.69799e-12
3.5204e-13
7.0002e-14
1.32826e-14
2.06155e-15
99.7673
101.019
100.21
97.7718
98.7002
102.84
104.032
99.3013
93.5005
93.6658
101.277
110.893
114.947
109.071
93.9369
73.6268
52.8584
35.0093
21.5368
12.3804
6.68563
3.40731
1.64546
0.755615
0.330976
0.138664
0.0557013
0.0215002
0.00798993
0.00286375
0.000991534
0.000332116
0.000107759
3.3909e-05
1.03598e-05
3.07607e-06
8.88474e-07
2.49837e-07
6.84477e-08
1.8283e-08
4.76422e-09
1.21178e-09
3.00992e-10
7.30399e-11
1.73215e-11
4.01552e-12
9.10141e-13
2.01647e-13
4.39635e-14
7.98754e-15
99.7421
100.999
100.319
97.834
98.531
102.644
104.146
99.6816
93.7131
93.3711
100.609
110.373
115.084
110.057
95.5952
75.5818
54.7383
36.5727
22.6966
13.1627
7.17175
3.6883
1.79768
0.833347
0.368578
0.155964
0.0632976
0.024693
0.00927785
0.00336348
0.00117843
0.00039961
0.000131334
4.18853e-05
1.29775e-05
3.91036e-06
1.147e-06
3.2781e-07
9.13589e-08
2.48477e-08
6.59991e-09
1.71314e-09
4.3483e-10
1.07985e-10
2.62512e-11
6.25013e-12
1.45808e-12
3.3331e-13
7.5252e-14
1.41378e-14
99.7312
100.98
100.373
97.8834
98.4553
102.523
104.173
99.8796
93.8672
93.2661
100.266
110.044
115.063
110.486
96.4154
76.6059
55.7607
37.4478
23.3615
13.6206
7.46179
3.85892
1.89164
0.882085
0.392511
0.167137
0.0682731
0.0268133
0.0101448
0.0037044
0.00130763
0.000446883
0.000148062
4.76189e-05
1.48835e-05
4.52574e-06
1.34017e-06
3.8683e-07
1.08928e-07
2.99479e-08
8.04494e-09
2.11307e-09
5.43024e-10
1.36618e-10
3.36685e-11
8.13211e-12
1.92606e-12
4.47366e-13
1.02759e-13
1.9616e-14
99.7272
100.968
100.396
97.9148
98.4257
102.456
104.171
99.9732
93.9608
93.239
100.104
109.861
115.011
110.656
96.7954
77.1094
56.2824
37.9068
23.7183
13.8713
7.62337
3.95553
1.94566
0.910513
0.406664
0.173832
0.0712937
0.0281169
0.0106845
0.00391918
0.00139
0.000477378
0.000158979
5.14043e-05
1.61565e-05
4.94145e-06
1.47216e-06
4.27619e-07
1.21209e-07
3.35536e-08
9.07828e-09
2.40234e-09
6.22186e-10
1.5781e-10
3.92224e-11
9.55779e-12
2.28477e-12
5.35829e-13
1.24356e-13
2.39639e-14
99.726
100.96
100.406
97.9323
98.4159
102.423
104.162
100.014
94.0112
93.2378
100.034
109.768
114.97
110.716
96.9608
77.3429
56.5335
38.1338
23.8986
14.0004
7.70797
4.0069
1.97479
0.926056
0.414503
0.177587
0.073008
0.0288654
0.0109979
0.00404532
0.00143891
0.000495682
0.000165603
5.37254e-05
1.69453e-05
5.20172e-06
1.55566e-06
4.53688e-07
1.29138e-07
3.59058e-08
9.75928e-09
2.59493e-09
6.75432e-10
1.72211e-10
4.30352e-11
1.05467e-11
2.53615e-12
5.98466e-13
1.39812e-13
2.71044e-14
99.7258
100.957
100.409
97.941
98.4135
102.408
104.156
100.03
94.0359
93.2422
100.005
109.724
114.944
110.735
97.0287
77.4455
56.6479
38.24
23.9848
14.0632
7.74984
4.0327
1.98963
0.93407
0.418595
0.17957
0.0739237
0.0292697
0.0111689
0.00411491
0.00146617
0.000505988
0.000169369
5.50583e-05
1.74027e-05
5.35412e-06
1.60502e-06
4.69247e-07
1.33916e-07
3.73365e-08
1.01774e-08
2.71429e-09
7.08742e-10
1.81305e-10
4.54655e-11
1.11829e-11
2.69941e-12
6.39527e-13
1.50041e-13
2.92005e-14
99.7259
100.955
100.41
97.945
98.4133
102.401
104.151
100.036
94.0471
93.2461
99.995
109.705
114.931
110.74
97.055
77.4882
56.6975
38.2873
24.024
14.0923
7.76951
4.04499
1.99679
0.937986
0.420618
0.180561
0.0743864
0.0294761
0.0112572
0.00415115
0.0014805
0.00051146
0.000171388
5.57793e-05
1.76523e-05
5.43806e-06
1.63245e-06
4.77971e-07
1.36619e-07
3.81529e-08
1.04181e-08
2.78359e-09
7.28249e-10
1.86676e-10
4.69133e-11
1.15651e-11
2.79834e-12
6.64622e-13
1.56348e-13
3.05027e-14
99.7259
100.954
100.41
97.9467
98.4136
102.399
104.149
100.038
94.0518
93.2485
99.9914
109.697
114.924
110.74
97.0646
77.5053
56.718
38.3074
24.041
14.1051
7.77831
4.05057
2.00008
0.939808
0.42157
0.181033
0.0746088
0.0295763
0.0113004
0.0041691
0.00148767
0.00051422
0.000172416
5.61496e-05
1.77817e-05
5.48194e-06
1.64692e-06
4.8261e-07
1.38069e-07
3.85945e-08
1.05494e-08
2.82172e-09
7.39069e-10
1.8968e-10
4.77298e-11
1.17825e-11
2.85506e-12
6.79128e-13
1.60024e-13
3.12673e-14
99.726
100.954
100.41
97.9474
98.4138
102.398
104.148
100.038
94.0537
93.2497
99.9902
109.694
114.921
110.74
97.068
77.5117
56.7262
38.3155
24.048
14.1105
7.78208
4.05298
2.00152
0.940615
0.421996
0.181246
0.0747104
0.0296224
0.0113206
0.00417751
0.00149106
0.000515537
0.00017291
5.63291e-05
1.78449e-05
5.50355e-06
1.65409e-06
4.84931e-07
1.38799e-07
3.88187e-08
1.06165e-08
2.84136e-09
7.44687e-10
1.91252e-10
4.81601e-11
1.18979e-11
2.88539e-12
6.86942e-13
1.62019e-13
3.1685e-14
99.726
100.954
100.41
97.9477
98.4139
102.397
104.148
100.038
94.0544
93.2503
99.9899
109.693
114.92
110.74
97.069
77.5141
56.7292
38.3187
24.0508
14.1127
7.78363
4.05399
2.00213
0.940963
0.422181
0.18134
0.0747555
0.0296432
0.0113297
0.00418137
0.00149263
0.000516152
0.000173143
5.64147e-05
1.78753e-05
5.51403e-06
1.65761e-06
4.86075e-07
1.39162e-07
3.89312e-08
1.06505e-08
2.85138e-09
7.47574e-10
1.92066e-10
4.83847e-11
1.19586e-11
2.90147e-12
6.91115e-13
1.63093e-13
3.19113e-14
99.726
100.954
100.41
97.9478
98.414
102.397
104.148
100.038
94.0547
93.2505
99.9899
109.693
114.92
110.739
97.0694
77.5149
56.7304
38.3199
24.0519
14.1135
7.78422
4.05438
2.00237
0.941098
0.422254
0.181377
0.0747734
0.0296515
0.0113334
0.00418293
0.00149326
0.000516403
0.000173239
5.64499e-05
1.78879e-05
5.5184e-06
1.65908e-06
4.86559e-07
1.39317e-07
3.89793e-08
1.06651e-08
2.85573e-09
7.48836e-10
1.92424e-10
4.84842e-11
1.19857e-11
2.9087e-12
6.93007e-13
1.63584e-13
3.20154e-14
99.726
100.954
100.41
97.9478
98.414
102.397
104.148
100.038
94.0547
93.2506
99.9899
109.693
114.92
110.739
97.0694
77.5151
56.7308
38.3204
24.0523
14.1139
7.78448
4.05456
2.00248
0.941162
0.422289
0.181395
0.0747824
0.0296557
0.0113352
0.00418374
0.0014936
0.000516537
0.00017329
5.64691e-05
1.78949e-05
5.52083e-06
1.6599e-06
4.86831e-07
1.39404e-07
3.90067e-08
1.06735e-08
2.85822e-09
7.49562e-10
1.92631e-10
4.85419e-11
1.20015e-11
2.91291e-12
6.9411e-13
1.6387e-13
3.20763e-14
99.726
100.954
100.41
97.9478
98.414
102.397
104.148
100.038
94.0548
93.2506
99.9899
109.693
114.919
110.739
97.0695
77.5152
56.7309
38.3205
24.0524
14.1139
7.78452
4.05458
2.00249
0.94117
0.422293
0.181397
0.0747834
0.0296562
0.0113355
0.00418383
0.00149364
0.000516554
0.000173297
5.64717e-05
1.78958e-05
5.52117e-06
1.66003e-06
4.86873e-07
1.39419e-07
3.90114e-08
1.0675e-08
2.85869e-09
7.49706e-10
1.92674e-10
4.85544e-11
1.2005e-11
2.9139e-12
6.94381e-13
1.63943e-13
3.20924e-14
99.7261
100.954
100.41
97.9478
98.4141
102.397
104.148
100.038
94.0548
93.2506
99.9899
109.693
114.919
110.739
97.0695
77.5153
56.731
38.3206
24.0525
14.1141
7.78462
4.05465
2.00254
0.941195
0.422307
0.181404
0.074787
0.0296579
0.0113362
0.00418416
0.00149377
0.000516607
0.000173317
5.64791e-05
1.78985e-05
5.52209e-06
1.66033e-06
4.86973e-07
1.3945e-07
3.90211e-08
1.06779e-08
2.85954e-09
7.49951e-10
1.92742e-10
4.85732e-11
1.20101e-11
2.91523e-12
6.94723e-13
1.64031e-13
3.21108e-14
99.726
100.954
100.41
97.9478
98.414
102.397
104.148
100.038
94.0548
93.2506
99.9898
109.693
114.919
110.739
97.0695
77.5153
56.7309
38.3205
24.0524
14.114
7.78454
4.0546
2.0025
0.941176
0.422297
0.181399
0.0747845
0.0296567
0.0113357
0.00418395
0.00149369
0.000516576
0.000173306
5.64751e-05
1.78971e-05
5.52164e-06
1.66019e-06
4.8693e-07
1.39438e-07
3.90175e-08
1.06769e-08
2.85928e-09
7.49882e-10
1.92725e-10
4.8569e-11
1.20091e-11
2.91502e-12
6.9468e-13
1.64023e-13
3.21095e-14
99.7261
100.954
100.41
97.9478
98.4141
102.397
104.148
100.038
94.0548
93.2507
99.9899
109.693
114.919
110.739
97.0695
77.5153
56.731
38.3207
24.0526
14.1141
7.78465
4.05467
2.00255
0.941201
0.42231
0.181406
0.0747877
0.0296582
0.0113363
0.00418421
0.00149379
0.000516614
0.00017332
5.648e-05
1.78988e-05
5.5222e-06
1.66037e-06
4.86985e-07
1.39454e-07
3.90223e-08
1.06783e-08
2.85966e-09
7.49986e-10
1.92753e-10
4.85762e-11
1.20109e-11
2.91547e-12
6.94791e-13
1.6405e-13
3.21149e-14
99.726
100.954
100.41
97.9478
98.414
102.397
104.148
100.038
94.0548
93.2506
99.9898
109.693
114.92
110.739
97.0695
77.5152
56.7309
38.3205
24.0524
14.114
7.78454
4.0546
2.0025
0.941178
0.422298
0.1814
0.074785
0.029657
0.0113358
0.00418401
0.00149372
0.000516586
0.00017331
5.64767e-05
1.78977e-05
5.52185e-06
1.66026e-06
4.86953e-07
1.39445e-07
3.90198e-08
1.06776e-08
2.85949e-09
7.49942e-10
1.92742e-10
4.85737e-11
1.20104e-11
2.91535e-12
6.94766e-13
1.64045e-13
3.21141e-14
99.7261
100.954
100.41
97.9478
98.4141
102.397
104.148
100.038
94.0548
93.2507
99.9899
109.693
114.919
110.739
97.0695
77.5153
56.731
38.3207
24.0526
14.1141
7.78464
4.05466
2.00254
0.941198
0.422308
0.181405
0.0747872
0.0296579
0.0113362
0.00418416
0.00149377
0.000516606
0.000173317
5.6479e-05
1.78984e-05
5.52208e-06
1.66033e-06
4.86974e-07
1.39451e-07
3.90214e-08
1.0678e-08
2.8596e-09
7.49971e-10
1.92749e-10
4.85755e-11
1.20108e-11
2.91545e-12
6.9479e-13
1.6405e-13
3.21153e-14
99.726
100.954
100.41
97.9478
98.414
102.397
104.148
100.038
94.0547
93.2506
99.9899
109.693
114.92
110.739
97.0695
77.5152
56.7309
38.3205
24.0524
14.114
7.78456
4.05461
2.00251
0.941183
0.422301
0.181401
0.0747857
0.0296573
0.011336
0.00418406
0.00149374
0.000516594
0.000173313
5.64776e-05
1.7898e-05
5.52194e-06
1.66029e-06
4.86961e-07
1.39447e-07
3.90204e-08
1.06778e-08
2.85952e-09
7.49949e-10
1.92743e-10
4.8574e-11
1.20104e-11
2.91535e-12
6.94763e-13
1.64044e-13
3.21138e-14
99.7261
100.954
100.41
97.9478
98.4141
102.397
104.148
100.038
94.0548
93.2507
99.9899
109.693
114.919
110.739
97.0695
77.5153
56.731
38.3206
24.0525
14.1141
7.78462
4.05465
2.00253
0.941193
0.422306
0.181404
0.0747868
0.0296577
0.0113362
0.00418414
0.00149377
0.000516604
0.000173316
5.64789e-05
1.78984e-05
5.52209e-06
1.66034e-06
4.86977e-07
1.39452e-07
3.90219e-08
1.06782e-08
2.85965e-09
7.49988e-10
1.92754e-10
4.85769e-11
1.20112e-11
2.91556e-12
6.94818e-13
1.64058e-13
3.21168e-14
99.726
100.954
100.41
97.9478
98.414
102.397
104.148
100.038
94.0547
93.2506
99.9899
109.693
114.919
110.739
97.0695
77.5153
56.7309
38.3205
24.0524
14.114
7.78458
4.05462
2.00252
0.941185
0.422302
0.181402
0.0747857
0.0296572
0.011336
0.00418405
0.00149373
0.00051659
0.000173311
5.6477e-05
1.78978e-05
5.52187e-06
1.66026e-06
4.86953e-07
1.39445e-07
3.90196e-08
1.06775e-08
2.85945e-09
7.49931e-10
1.92738e-10
4.85727e-11
1.20101e-11
2.91527e-12
6.94746e-13
1.6404e-13
3.21131e-14
99.7261
100.954
100.41
97.9478
98.4141
102.397
104.148
100.038
94.0548
93.2507
99.9899
109.693
114.919
110.739
97.0694
77.5153
56.731
38.3206
24.0525
14.1141
7.78462
4.05465
2.00253
0.941195
0.422307
0.181404
0.074787
0.0296579
0.0113362
0.00418417
0.00149378
0.000516608
0.000173318
5.64795e-05
1.78986e-05
5.52215e-06
1.66036e-06
4.86982e-07
1.39453e-07
3.90222e-08
1.06783e-08
2.85967e-09
7.4999e-10
1.92754e-10
4.85769e-11
1.20111e-11
2.91554e-12
6.94811e-13
1.64055e-13
3.21162e-14
99.726
100.954
100.41
97.9478
98.414
102.397
104.148
100.038
94.0548
93.2506
99.9898
109.693
114.919
110.739
97.0695
77.5153
56.7309
38.3205
24.0524
14.114
7.78457
4.05462
2.00252
0.941183
0.422301
0.181401
0.0747856
0.0296572
0.0113359
0.00418405
0.00149373
0.000516591
0.000173312
5.64773e-05
1.78979e-05
5.52191e-06
1.66028e-06
4.86959e-07
1.39447e-07
3.90203e-08
1.06777e-08
2.85952e-09
7.49952e-10
1.92745e-10
4.85744e-11
1.20105e-11
2.9154e-12
6.94778e-13
1.64048e-13
3.21148e-14
99.7261
100.954
100.41
97.9478
98.4141
102.397
104.148
100.038
94.0548
93.2507
99.9899
109.693
114.919
110.739
97.0694
77.5153
56.731
38.3206
24.0525
14.114
7.78461
4.05464
2.00253
0.941192
0.422305
0.181403
0.0747865
0.0296576
0.0113361
0.00418412
0.00149376
0.0005166
0.000173315
5.64782e-05
1.78982e-05
5.522e-06
1.66031e-06
4.86966e-07
1.39448e-07
3.90207e-08
1.06778e-08
2.85954e-09
7.49955e-10
1.92745e-10
4.85743e-11
1.20105e-11
2.91537e-12
6.9477e-13
1.64045e-13
3.21142e-14
99.726
100.954
100.41
97.9478
98.414
102.397
104.148
100.038
94.0548
93.2506
99.9898
109.693
114.919
110.739
97.0695
77.5153
56.731
38.3206
24.0525
14.1141
7.78461
4.05464
2.00253
0.941192
0.422306
0.181404
0.0747867
0.0296577
0.0113362
0.00418414
0.00149377
0.000516605
0.000173317
5.64791e-05
1.78985e-05
5.52211e-06
1.66035e-06
4.86979e-07
1.39453e-07
3.90221e-08
1.06782e-08
2.85966e-09
7.49989e-10
1.92754e-10
4.85769e-11
1.20112e-11
2.91555e-12
6.94816e-13
1.64057e-13
3.21166e-14
99.7261
100.954
100.41
97.9478
98.4141
102.397
104.148
100.038
94.0548
93.2506
99.9899
109.693
114.919
110.739
97.0694
77.5152
56.7308
38.3205
24.0524
14.114
7.78454
4.0546
2.00251
0.941179
0.422299
0.1814
0.0747851
0.029657
0.0113359
0.00418401
0.00149372
0.000516585
0.00017331
5.64765e-05
1.78976e-05
5.52182e-06
1.66025e-06
4.86949e-07
1.39443e-07
3.90193e-08
1.06774e-08
2.85943e-09
7.49926e-10
1.92737e-10
4.85724e-11
1.201e-11
2.91526e-12
6.94741e-13
1.64038e-13
3.21128e-14
99.7261
100.954
100.41
97.9478
98.4141
102.397
104.148
100.038
94.0548
93.2506
99.9898
109.693
114.919
110.739
97.0696
77.5155
56.7311
38.3208
24.0526
14.1141
7.78467
4.05468
2.00255
0.941202
0.422311
0.181406
0.0747876
0.0296581
0.0113363
0.0041842
0.00149379
0.000516612
0.000173319
5.64798e-05
1.78987e-05
5.52218e-06
1.66036e-06
4.86984e-07
1.39454e-07
3.90224e-08
1.06783e-08
2.85969e-09
7.49995e-10
1.92756e-10
4.85773e-11
1.20113e-11
2.91557e-12
6.9482e-13
1.64058e-13
3.21168e-14
99.7261
100.954
100.41
97.9478
98.4141
102.397
104.148
100.038
94.0547
93.2506
99.9899
109.693
114.919
110.739
97.0693
77.5151
56.7308
38.3204
24.0524
14.114
7.78455
4.05461
2.00251
0.941182
0.422301
0.181401
0.0747856
0.0296573
0.011336
0.00418406
0.00149374
0.000516594
0.000173313
5.64777e-05
1.7898e-05
5.52196e-06
1.6603e-06
4.86963e-07
1.39448e-07
3.90207e-08
1.06779e-08
2.85955e-09
7.49959e-10
1.92746e-10
4.85749e-11
1.20107e-11
2.91542e-12
6.94784e-13
1.64049e-13
3.21151e-14
99.726
100.954
100.41
97.9478
98.414
102.397
104.148
100.038
94.0548
93.2506
99.9898
109.693
114.919
110.739
97.0696
77.5153
56.731
38.3206
24.0525
14.114
7.78458
4.05462
2.00252
0.941184
0.422301
0.181401
0.0747855
0.0296572
0.0113359
0.00418404
0.00149373
0.000516589
0.000173311
5.64769e-05
1.78977e-05
5.52185e-06
1.66026e-06
4.86951e-07
1.39444e-07
3.90195e-08
1.06775e-08
2.85944e-09
7.49928e-10
1.92738e-10
4.85724e-11
1.201e-11
2.91525e-12
6.9474e-13
1.64038e-13
3.21126e-14
99.7261
100.954
100.41
97.9478
98.4141
102.397
104.148
100.038
94.0548
93.2507
99.9899
109.693
114.919
110.739
97.0695
77.5154
56.7311
38.3207
24.0526
14.1141
7.78467
4.05468
2.00255
0.941203
0.422311
0.181406
0.0747879
0.0296582
0.0113364
0.00418423
0.0014938
0.000516616
0.000173321
5.64804e-05
1.78989e-05
5.52225e-06
1.66039e-06
4.86992e-07
1.39456e-07
3.90231e-08
1.06785e-08
2.85974e-09
7.50011e-10
1.9276e-10
4.85784e-11
1.20115e-11
2.91564e-12
6.94838e-13
1.64062e-13
3.21181e-14
99.726
100.954
100.41
97.9478
98.414
102.397
104.148
100.038
94.0547
93.2506
99.9899
109.693
114.919
110.739
97.0694
77.5152
56.7309
38.3206
24.0525
14.1141
7.78463
4.05467
2.00255
0.941204
0.422313
0.181408
0.0747887
0.0296587
0.0113366
0.00418433
0.00149385
0.000516637
0.000173329
5.64837e-05
1.79001e-05
5.52269e-06
1.66054e-06
4.87042e-07
1.39473e-07
3.90283e-08
1.06801e-08
2.86021e-09
7.50147e-10
1.92799e-10
4.8589e-11
1.20144e-11
2.9164e-12
6.95034e-13
1.64112e-13
3.21284e-14
)
;

boundaryField
{
    left
    {
        type            fixedValue;
        value           uniform 100;
    }
    right
    {
        type            zeroGradient;
    }
    up
    {
        type            zeroGradient;
    }
    down
    {
        type            fixedValue;
        value           uniform 0;
    }
    frontAndBack
    {
        type            empty;
    }
}


// ************************************************************************* //
