/*--------------------------------*- C++ -*----------------------------------*\
  =========                 |
  \\      /  F ield         | OpenFOAM: The Open Source CFD Toolbox
   \\    /   O peration     | Website:  https://openfoam.org
    \\  /    A nd           | Version:  8
     \\/     M anipulation  |
\*---------------------------------------------------------------------------*/
FoamFile
{
    version     2.0;
    format      ascii;
    class       volScalarField;
    location    "40";
    object      p;
}
// * * * * * * * * * * * * * * * * * * * * * * * * * * * * * * * * * * * * * //

dimensions      [0 2 -2 0 0 0 0];

internalField   nonuniform List<scalar> 
2844
(
0.0859159
0.0711608
0.0460804
0.0200839
-0.00134986
-0.00965679
-0.00663581
-0.00085181
0.00699105
0.0152704
0.0242059
0.0268264
0.0256974
0.0244404
0.0196124
0.014356
0.00927642
0.00364614
0.00644832
0.00432705
0.0932932
0.0784475
0.0469596
0.0179879
-0.00428085
-0.0127692
-0.00657913
-0.00190131
0.00531266
0.013879
0.0201695
0.0260258
0.0252715
0.024231
0.0263129
0.0179847
0.00721188
0.00227852
0.00128835
0.00166817
0.113424
0.0887512
0.0459615
0.000210936
-0.0314169
-0.023774
-0.016877
-0.00587574
0.0036156
0.0139186
0.0360424
0.0329339
0.0310207
0.0238084
0.0118615
0.0060175
0.00122151
0.000994761
0.0157856
0.00887146
0.13829
0.117846
0.0500498
-0.012383
-0.0493434
-0.0385035
-0.0183152
-0.000843636
-0.00782392
0.00985766
0.0192431
0.0283838
0.0196767
0.0143993
0.0324996
0.0202296
-0.0145822
-8.73691e-05
0.00208863
-0.00380773
0.193398
0.158022
0.0442709
-0.0855883
-0.129042
-0.0487477
-0.0458218
-0.0131864
-0.016219
-0.00488853
0.038179
0.0460654
0.0262192
0.0118274
-0.0582065
-0.0457385
-0.046347
0.00815747
0.0270611
0.0101705
0.239992
0.239722
0.0634492
-0.141715
-0.270023
-0.0925441
-0.0355687
0.0570961
-0.0939739
-0.0290997
0.0030619
-0.0103304
-0.0414498
-0.154055
-0.183813
-0.110147
-0.099747
-0.00551896
0.022414
0.00650896
0.369388
0.339247
0.00924999
-0.329458
-0.432782
-0.138877
-0.0794099
0.091215
-0.210703
-0.0990509
0.00273886
0.00203955
-0.17652
-0.214314
-0.130648
-0.0849069
-0.0269106
0.0312958
0.0787089
0.0321044
0.501217
0.577195
0.0364731
-0.735406
-0.669813
-0.224242
0.0457798
0.0223109
-0.446973
-0.229654
-0.108928
-0.0443754
-0.0878433
-0.12336
-0.18918
-0.168665
-0.0839272
-0.0632191
0.0234547
0.0248311
0.70612
0.56179
0.203407
-0.285549
-0.209975
-0.447511
-0.255936
-0.0747111
-0.081944
-0.0306684
-0.10517
-0.289149
-0.142931
-0.0174751
-0.0430333
0.0180944
0.0197329
0.925225
0.895131
1.55329
-0.435053
-0.309816
-0.278568
-0.213501
-0.0413679
-0.0733197
0.0240214
-0.114354
-0.157461
0.00480579
-0.00205807
-0.03008
-0.00306401
0.005995
1.29405
0.898823
-0.568448
-0.576239
-0.357934
-0.233615
0.0129319
0.0535326
-0.017598
-0.0893451
-0.083514
-0.0773068
-0.023609
-0.00732485
-0.0368065
-0.0317981
0.630128
0.120459
0.922518
-0.547571
-0.687277
-0.00269179
0.00201305
0.116564
0.142147
0.0385549
-0.00217742
0.0130606
0.00436044
-0.00248479
0.0209864
-0.0297728
-0.0403667
0.493979
0.255185
-0.15129
-0.6496
-0.547061
-0.508044
-0.163565
-0.0896344
0.028599
0.0298152
0.0115099
-0.0181583
-0.0134137
-0.0132623
-0.0144131
-0.00216084
-0.0197785
-0.00766955
0.11192
0.018327
-0.271994
-0.776585
-1.05135
-0.482411
-0.381209
-0.305263
-0.204289
-0.146525
-0.119986
-0.131436
-0.0645858
-0.019765
-0.000555994
-0.00616571
-0.000417665
0.00297435
0.0133771
0.0287252
0.0770415
0.0163106
-0.187233
-0.401686
-0.510309
-0.411777
-0.247297
-0.194579
-0.114686
-0.0219832
0.0649142
0.0714043
0.0397994
0.0416525
0.0464926
0.0406067
0.0394121
0.0274607
0.0163322
0.000540045
-0.024513
-0.0505136
-0.174879
-0.299485
-0.339831
-0.266522
-0.202498
-0.157915
-0.132402
-0.0908882
-0.0413921
0.0219127
0.0356927
0.0397478
0.0616613
0.0655848
0.0179794
-0.0130541
-0.0152854
-0.0185781
-0.0530035
-0.0753764
-0.12671
-0.203542
-0.24575
-0.234538
-0.171203
-0.129274
-0.0871618
-0.0348681
0.00563592
0.0365107
0.0507565
0.0551561
0.0510459
0.0522435
0.0438246
0.0381132
0.00507477
-0.0161079
-0.0793001
-0.0966967
-0.1309
-0.186908
-0.208733
-0.194629
-0.161037
-0.123357
-0.0995148
-0.0661096
-0.0344944
0.0076581
0.0264732
0.0334949
0.0568626
0.0686134
0.0532428
0.0498856
0.0222355
-0.00919901
-0.094746
-0.105662
-0.127846
-0.15988
-0.177538
-0.175023
-0.145788
-0.114307
-0.0815687
-0.0465869
-0.0161631
0.0102802
0.0296761
0.0400789
0.0464195
0.0487099
0.0447842
0.0446242
0.0381766
0.0194912
-0.100948
-0.111401
-0.129346
-0.157516
-0.170492
-0.166225
-0.144059
-0.114593
-0.0864787
-0.0552174
-0.0267204
0.00116314
0.0220306
0.0336816
0.0465934
0.0524569
0.0484135
0.0435655
0.0329302
0.0217819
0.0859206
0.0711618
0.0460658
0.02006
-0.0013654
-0.00966168
-0.0066436
-0.000848393
0.00699089
0.015274
0.0242481
0.0268777
0.0257312
0.0245392
0.0196475
0.014393
0.00924712
0.003678
0.00649826
0.00430249
0.0933149
0.0784477
0.0469264
0.0179529
-0.00429561
-0.012807
-0.00661147
-0.00193595
0.00530034
0.0138993
0.0201578
0.0257654
0.0252631
0.0244609
0.0260717
0.018007
0.00712878
0.00222549
0.00145245
0.00161094
0.11345
0.0887482
0.0458403
1.76603e-05
-0.0316636
-0.0238836
-0.0169878
-0.0059152
0.00364398
0.0141962
0.0359099
0.0334737
0.0313301
0.0238005
0.0122322
0.00648341
0.00127133
0.00168748
0.0164833
0.00803129
0.138477
0.117749
0.0496686
-0.0122712
-0.0493763
-0.0389497
-0.0183066
-0.00124127
-0.00756145
0.00995669
0.0199726
0.0312696
0.0226943
0.0155727
0.0330888
0.0214071
-0.0162325
-0.00315523
-0.000560507
-0.00580426
0.193323
0.157735
0.0436086
-0.085176
-0.134176
-0.0509385
-0.0490457
-0.0140754
-0.0165047
-0.0052751
0.0388938
0.0477222
0.0249065
-0.00565706
-0.080144
-0.0516149
-0.0517439
0.00640291
0.024886
0.010421
0.239938
0.235515
0.0618954
-0.135792
-0.260177
-0.112907
-0.0455955
0.0517739
-0.096903
-0.0321823
0.000791107
-0.00616356
-0.0508189
-0.178351
-0.199513
-0.122213
-0.104077
-0.00494145
0.0220903
0.0055987
0.368451
0.338112
-0.0116893
-0.319949
-0.416866
-0.146558
-0.131279
0.0755316
-0.189069
-0.104749
-0.0238727
-0.0213461
-0.183002
-0.218494
-0.151584
-0.109372
-0.0309972
0.0295913
0.0716399
0.0279194
0.4982
0.55467
-0.00906673
-0.742019
-0.673333
-0.302856
-0.0440619
-0.0116591
-0.419013
-0.242972
-0.131171
-0.0510514
-0.110227
-0.135245
-0.208995
-0.176624
-0.0879663
-0.0711259
0.0177332
0.023252
0.691004
0.543015
0.251021
-0.29816
-0.209125
-0.455188
-0.263881
-0.0762804
-0.0976328
-0.0259928
-0.119537
-0.295362
-0.145415
-0.031327
-0.051584
0.0159464
0.0210744
0.950048
0.87926
1.27567
-0.439718
-0.283895
-0.306634
-0.229444
-0.0469008
-0.0818313
-0.00155388
-0.129955
-0.17688
-0.0112353
-0.00903006
-0.0346793
-0.006976
0.00364357
1.27523
0.868735
-0.568703
-0.561648
-0.350001
-0.244781
-0.0193746
0.00233654
-0.0329919
-0.101012
-0.101233
-0.0969688
-0.036307
-0.0134803
-0.0436441
-0.0353445
0.590863
0.239443
0.714851
-0.560646
-0.663989
0.00503076
0.0270344
0.0977758
0.109458
0.0241637
-0.00268737
0.0120889
-0.00525795
-0.00784891
0.0155417
-0.0247721
-0.0345562
0.459626
0.178724
-0.232783
-0.642618
-0.557688
-0.545641
-0.202489
-0.076972
0.0486966
0.0376947
0.00175059
-0.0404849
-0.0336413
-0.0250402
-0.0138467
-0.000584887
-0.0198376
-0.00765231
0.103161
-0.00622606
-0.319673
-0.823884
-1.05191
-0.504231
-0.403118
-0.327596
-0.21592
-0.156239
-0.134042
-0.135041
-0.051736
-0.0263458
-0.00591326
-0.00632339
0.000744856
0.00637854
0.00558136
0.022796
0.0768418
0.0122348
-0.186206
-0.388502
-0.501907
-0.418993
-0.25005
-0.202487
-0.11945
-0.0215631
0.0755853
0.0679266
0.0375363
0.043556
0.0490875
0.0453668
0.0409736
0.0274263
0.00482113
-0.0057703
-0.0243931
-0.0501805
-0.175878
-0.293279
-0.335706
-0.269162
-0.207342
-0.162846
-0.13251
-0.0922823
-0.04061
0.0256486
0.0334908
0.0383463
0.0620889
0.0665933
0.0190735
-0.0178141
-0.0263827
-0.0181502
-0.0525501
-0.0754872
-0.126523
-0.202099
-0.245382
-0.237172
-0.170523
-0.129658
-0.0875681
-0.0341979
0.00627824
0.0366801
0.0509832
0.0554654
0.0493329
0.0488972
0.038347
0.0351372
0.00186787
-0.0158322
-0.0792145
-0.0968183
-0.130273
-0.186613
-0.208828
-0.194943
-0.161282
-0.123966
-0.0995923
-0.0661391
-0.0346582
0.00799692
0.0267501
0.0328358
0.0539899
0.0678725
0.0544218
0.0492085
0.0198471
-0.0132342
-0.0947207
-0.105671
-0.127664
-0.159836
-0.177575
-0.175184
-0.145824
-0.114434
-0.0814448
-0.0465024
-0.015945
0.0102541
0.0295908
0.0397419
0.0461553
0.0483641
0.0452091
0.043851
0.0352825
0.0144852
-0.100942
-0.111397
-0.129306
-0.157507
-0.170494
-0.166246
-0.144063
-0.114608
-0.0864796
-0.055208
-0.0266941
0.0011535
0.0220835
0.0336523
0.0465802
0.052034
0.0483232
0.0431023
0.0316794
0.018261
0.085923
0.0711618
0.0460619
0.0200491
-0.00136455
-0.00966671
-0.00665083
-0.000841932
0.00699155
0.0152785
0.0243189
0.0269151
0.0257855
0.0247356
0.0200284
0.0145461
0.00928355
0.00374867
0.00655815
0.00443937
0.0933354
0.0784453
0.0469259
0.017941
-0.00427848
-0.0128079
-0.00663656
-0.00192451
0.00529875
0.0139708
0.0202753
0.0257566
0.0251599
0.0249163
0.0261868
0.0180905
0.00704065
0.0024777
0.00212822
0.0018182
0.113468
0.0887907
0.0458547
-6.52044e-05
-0.0317439
-0.0239379
-0.0169882
-0.00582886
0.00370871
0.0147135
0.0357904
0.0336094
0.0315479
0.0259879
0.016979
0.00935196
0.00248758
0.00300553
0.0174978
0.009237
0.138549
0.117888
0.0500413
-0.011873
-0.0489775
-0.0384247
-0.0183092
-0.00124881
-0.00616821
0.0108489
0.020805
0.0348138
0.0181161
0.0218831
0.0482303
0.0274494
-0.0157213
0.000300259
0.000598656
-0.00542221
0.19334
0.158622
0.0455374
-0.0824999
-0.132286
-0.0522095
-0.0492219
-0.0131417
-0.0163882
-0.00457694
0.0429757
0.0528523
0.0272376
0.0102624
-0.0578538
-0.0417775
-0.0485962
0.0123891
0.026636
0.0107624
0.239616
0.236511
0.062461
-0.11942
-0.248203
-0.122506
-0.0510729
0.0534217
-0.0840396
-0.0373995
0.00639427
0.0158984
-0.0216365
-0.172892
-0.207271
-0.123358
-0.0944774
-0.00039841
0.0306653
0.00606279
0.366529
0.342757
-0.000480817
-0.298959
-0.369828
-0.136786
-0.130967
0.0716842
-0.165716
-0.100463
-0.0362991
-0.0240436
-0.156501
-0.200098
-0.160597
-0.119302
-0.0314438
0.027056
0.0875395
0.0357702
0.484018
0.549523
-0.0397666
-0.739794
-0.700557
-0.359558
-0.0645183
0.0367375
-0.375772
-0.217504
-0.117094
-0.0525835
-0.0863182
-0.11871
-0.189475
-0.153464
-0.0851574
-0.0708756
0.0238393
0.0292266
0.670524
0.613947
0.293202
-0.30299
-0.16412
-0.465153
-0.275449
-0.0802156
-0.089004
-0.0148193
-0.0778337
-0.273814
-0.125382
-0.031028
-0.0527602
0.0122056
0.0178453
1.00978
0.947526
0.948457
-0.449358
-0.27118
-0.282666
-0.223163
-0.045956
-0.0572431
0.0305281
-0.123343
-0.183799
-0.0275718
-0.00317542
-0.0321722
-0.012497
-0.00360302
1.24163
0.860263
-0.562074
-0.525473
-0.338217
-0.209515
-0.00922201
0.0172196
-0.021795
-0.092497
-0.0972837
-0.0953245
-0.0286074
-0.0154634
-0.0390401
-0.0322953
0.585846
0.413343
0.654968
-0.546337
-0.626171
0.022473
0.042114
0.114595
0.114756
0.0188205
-0.00656448
0.00673702
-0.00504754
-0.00394273
0.0246301
-0.0167599
-0.0296303
0.442049
0.19112
-0.274083
-0.608533
-0.557151
-0.533476
-0.181185
-0.044858
0.0776265
0.0549166
0.0113518
-0.0385808
-0.0352302
-0.023014
-0.00732965
0.00612576
-0.018969
-0.00811012
0.101926
0.0091134
-0.302976
-0.82695
-1.05183
-0.47922
-0.38977
-0.323735
-0.213302
-0.153088
-0.115202
-0.113756
-0.0356863
-0.0165458
0.00233048
0.00257274
0.00292367
0.00378059
0.0050976
0.0234208
0.0737548
0.0160301
-0.181734
-0.380631
-0.498376
-0.399744
-0.248141
-0.212467
-0.128632
-0.0300655
0.0648955
0.0634053
0.037811
0.0445388
0.0505905
0.0475925
0.0469025
0.0376572
0.0178059
0.000851936
-0.0231544
-0.0462053
-0.168381
-0.286285
-0.328368
-0.262982
-0.205872
-0.161314
-0.131915
-0.0907618
-0.0423081
0.0219477
0.0323738
0.0377494
0.061181
0.0683708
0.0247191
-0.0127287
-0.0217511
-0.0151598
-0.0519257
-0.0751233
-0.122523
-0.199398
-0.243561
-0.236753
-0.169937
-0.130197
-0.0877243
-0.0347858
0.00626938
0.037118
0.0524518
0.0567125
0.0506169
0.0471425
0.0366446
0.0365671
0.00899009
-0.0130407
-0.0789463
-0.096937
-0.128693
-0.185656
-0.208558
-0.194815
-0.16136
-0.124263
-0.0995881
-0.0660311
-0.0351395
0.00822833
0.0271738
0.0339867
0.0532713
0.0679317
0.0549623
0.0503074
0.0253857
-0.00574474
-0.0946785
-0.105655
-0.12726
-0.15976
-0.177554
-0.17523
-0.145738
-0.114476
-0.0813927
-0.0464614
-0.015218
0.0102633
0.0295573
0.0397651
0.0460268
0.0482571
0.0452169
0.0431161
0.035743
0.0167789
-0.100936
-0.111391
-0.129238
-0.157458
-0.170466
-0.166241
-0.144074
-0.114593
-0.0864794
-0.0551802
-0.0266454
0.00113553
0.0221358
0.0336725
0.0467135
0.051858
0.0482753
0.0431075
0.0314587
0.0177249
-0.194991
0.0901934
-0.761526
0.0200999
-0.223995
0.0785811
-0.741588
-0.761885
-0.736267
-0.783148
-0.35229
-0.674182
-0.383621
-0.211772
-0.282869
-0.466758
-0.267186
-0.245277
-0.296896
-0.480508
0.593793
0.837432
1.00196
0.535542
0.566442
0.800814
0.947462
0.790739
0.239765
0.775375
-0.397518
-0.382706
-0.392345
-0.384523
-0.232857
-0.392213
-0.431427
-0.291099
-0.26368
-0.387403
-0.441908
1.49283
1.04166
1.24729
0.870894
1.17506
1.06136
1.09767
1.51185
-0.417783
-0.418418
-0.426165
-0.49784
-0.539408
-0.43853
-0.436273
-0.497217
-0.546914
1.20837
0.84816
0.939868
0.855884
1.11778
0.840582
0.836989
1.106
0.960214
-0.553817
-0.563817
-0.725038
-0.559507
-0.792879
-0.56981
-0.73011
-0.582558
-0.801819
0.582173
0.50586
0.102369
0.150807
0.555442
0.435937
0.042159
-0.0930329
0.787388
-0.185148
-0.55135
-0.505685
-0.568749
-0.52007
-0.791894
-0.554147
-0.683437
-0.558645
-0.80591
-0.565209
-0.698842
-1.15728
-0.123226
-0.532138
-0.223366
-1.22489
-0.141182
-0.554035
-1.10619
-1.28808
-1.12652
-1.28094
-1.19157
-0.796217
-1.19733
-0.796294
-0.58207
-0.577717
-0.539971
-0.6478
-0.58023
-0.600577
-0.543466
-0.278579
0.0887728
-0.735464
-0.0333801
-0.327217
0.0895274
-0.740618
-0.791669
-0.737625
-0.822849
-0.392362
-0.693864
-0.434844
-0.240326
-0.306654
-0.470693
-0.338238
-0.277676
-0.354539
-0.455255
0.546994
0.836986
0.901775
0.571582
0.533035
0.832819
0.911859
0.761208
0.278807
0.839799
-0.393605
-0.386049
-0.368711
-0.386121
-0.291999
-0.384422
-0.435178
-0.29888
-0.2674
-0.391824
-0.392269
0.992561
0.974514
1.04647
0.891006
0.985967
0.98524
1.08528
0.951791
-0.418969
-0.42075
-0.430462
-0.495233
-0.551177
-0.446923
-0.436099
-0.488725
-0.556585
1.09035
0.827469
0.874981
0.830993
1.09136
0.798438
1.20819
1.00825
1.62683
-0.568103
-0.574987
-0.734943
-0.59027
-0.79196
-0.563498
-0.725038
-0.601933
-0.770065
0.636695
0.454654
0.163176
0.292883
0.788194
0.471969
0.22769
-0.161623
0.64265
-0.0519724
-0.575594
-0.528101
-0.595359
-0.554841
-0.797552
-0.566643
-0.697647
-0.55429
-0.783876
-0.574253
-0.714229
-1.25359
-0.174628
-0.55745
-0.244227
-1.29383
-0.182545
-0.548266
-1.11419
-1.26698
-1.07504
-1.2331
-1.18687
-0.795028
-1.15892
-0.806334
-0.594492
-0.587654
-0.543995
-0.61656
-0.588051
-0.60233
-0.542852
-0.380789
0.093103
-0.737241
-0.0190299
-0.37934
0.0962489
-0.681484
-0.835929
-0.69899
-0.830096
-0.447946
-0.686011
-0.470862
-0.276008
-0.367581
-0.433267
-0.370946
-0.2731
-0.380277
-0.423704
0.538122
0.840894
0.906921
0.635274
0.540163
0.847313
0.916655
0.844627
0.301715
0.840145
-0.360561
-0.387277
-0.352688
-0.388794
-0.254809
-0.3965
-0.374653
-0.308111
-0.24078
-0.397298
-0.360629
1.0123
1.04323
1.09206
0.995929
1.04623
1.06565
1.07262
0.93238
-0.421101
-0.421162
-0.441408
-0.48761
-0.558618
-0.45236
-0.441381
-0.488003
-0.558936
1.10503
0.798111
1.32278
0.890684
1.17564
0.810632
1.44698
1.85854
1.94741
-0.576346
-0.580701
-0.706589
-0.600009
-0.75224
-0.560186
-0.699936
-0.591638
-0.747313
0.946266
0.484149
0.297859
0.445918
0.991492
0.484157
0.34311
-0.0154577
0.778063
0.0641561
-0.599951
-0.563918
-0.603589
-0.582843
-0.757187
-0.577654
-0.698494
-0.534504
-0.749752
-0.582131
-0.693417
-1.27792
-0.189492
-0.532166
-0.266206
-1.22917
-0.190154
-0.510895
-1.07034
-1.22954
-1.04838
-1.21065
-1.14898
-0.816143
-1.11671
-0.815954
-0.605761
-0.574939
-0.542827
-0.598736
-0.616628
-0.564932
-0.548399
-0.409396
-0.465469
-0.692451
-0.332225
-0.407932
-0.47863
-0.699938
-0.357618
-0.695606
-0.519056
-0.430359
-0.385167
-0.708309
-0.538607
-1.10059
-0.856125
-0.76511
-0.736266
-0.857764
-0.774537
-1.08958
-0.837187
-0.610702
-1.3255
-0.67778
-0.616803
-1.33408
-0.829912
-0.0479494
-0.111245
0.353146
0.212165
-0.111431
0.346461
-0.035666
-0.292759
-0.296139
1.62819
-0.458902
-0.421014
-0.445208
-0.435799
-0.422884
-0.445549
-0.458245
-0.593584
-0.565986
-0.568711
-0.569476
-0.566393
-0.57359
-0.59231
0.535971
0.889388
0.488386
-2.13421
-1.56344
-1.60526
-2.097
-0.707304
-0.616246
-0.650129
-0.650642
-0.622518
-0.649744
-0.707157
-0.973627
-0.583086
-0.692741
-0.803954
-0.971484
-0.593008
-0.69186
-0.847913
-0.645194
-0.541121
-1.05517
-0.815988
-0.645856
-0.534921
-0.39527
-0.48556
-0.699643
-0.314684
-0.388793
-0.484635
-0.699673
-0.379843
-0.711455
-0.544653
-0.395311
-0.369424
-0.705533
-0.541311
-1.13316
-0.856995
-0.815179
-0.741834
-1.12794
-0.851664
-0.833759
-0.890019
-0.618846
-1.30791
-0.678736
-0.876861
-0.623656
-1.2911
0.0127312
-0.00117692
0.406615
0.257064
0.00251559
0.0436204
0.415567
-0.322888
-0.333632
1.07418
-0.472734
-0.428255
-0.449572
-0.440728
-0.466827
-0.431637
-0.452194
-0.595065
-0.563413
-0.583428
-0.567058
-0.596166
-0.561677
-0.582897
0.34246
0.653514
0.287666
-2.16306
-1.63896
-2.16866
-1.63365
-0.684224
-0.614914
-0.636861
-0.63423
-0.690629
-0.606678
-0.630968
-0.992855
-0.605627
-0.692427
-0.813495
-0.9598
-0.586381
-0.669298
-0.827127
-0.64154
-0.537929
-1.04816
-0.800817
-0.640316
-0.524624
-0.37658
-0.482409
-0.695381
-0.281573
-0.367067
-0.438354
-0.667248
-0.340418
-0.705143
-0.529741
-0.358197
-0.329693
-0.682842
-0.518779
-1.0716
-0.841039
-0.873255
-0.734805
-1.103
-0.827979
-0.874311
-0.92757
-0.641497
-1.23919
-0.699325
-0.926148
-0.638858
-1.21942
0.105051
0.100437
0.399179
0.303671
0.0799314
0.116931
0.397637
-0.347743
-0.346055
0.934639
-0.487231
-0.447169
-0.461173
-0.451635
-0.485926
-0.450447
-0.463085
-0.58996
-0.556911
-0.579934
-0.561055
-0.590505
-0.555187
-0.579296
0.232121
0.682274
0.222568
-2.06862
-1.59219
-2.08765
-1.57634
-0.675267
-0.584824
-0.622109
-0.602463
-0.673904
-0.581491
-0.622255
-1.00416
-0.597819
-0.672977
-0.820327
-0.975862
-0.585821
-0.662307
-0.823925
-0.633898
-0.518385
-1.04724
-0.805567
-0.626262
-0.509011
-0.208317
-0.523778
-0.212063
-0.758734
-0.527622
-0.238234
-0.202707
-0.217124
-0.748893
-0.529105
-0.276531
-0.530342
-0.263366
-0.210763
-1.33026
-0.865592
-1.41986
-0.775204
-0.86712
-1.42491
-1.32958
-1.49939
-1.0115
-1.01205
-1.49957
-1.10997
-0.737981
-0.856887
-0.797846
-0.858782
-0.787924
-1.11802
-1.326
-0.774207
-0.861375
-1.41872
-0.863628
-1.42288
-1.32015
-1.48447
-1.00926
-1.01102
-1.46506
-0.501068
-0.54579
-0.381765
-0.36304
-0.537402
-0.387809
-0.497169
-0.658984
-0.458026
-0.462953
-0.662394
-0.847072
-0.676619
-0.620283
-1.32122
-0.618704
-1.32996
-0.861348
-0.510758
-0.372722
-0.513358
-0.396544
-0.519471
-0.395413
-0.525261
-0.653355
-0.470376
-0.465589
-0.657107
-0.303688
-0.302721
-0.285949
-0.285318
-0.306298
-0.288036
-0.30077
-0.30971
-0.290286
-0.316464
-0.300258
-0.311723
-0.294564
-0.312827
-0.283345
-0.275933
0.601783
0.76953
0.570262
-0.032409
0.226719
-0.0455779
0.385954
-0.0819713
0.358402
-0.00443694
-0.207059
-0.246423
0.777755
0.517029
0.542279
-0.33694
-0.344854
-0.36938
-0.396658
-0.34377
-0.37172
-0.334197
-0.388511
-0.383635
-0.388968
-0.311975
-0.303034
-0.343465
-0.400277
-0.345606
-0.378373
-0.34534
-0.376753
-0.34962
-0.383323
-0.386542
-0.387038
1.05165
1.2362
1.51665
1.44448
1.12062
1.51955
1.04946
0.987035
1.12597
0.92875
1.24401
1.10016
0.906261
0.989187
1.06676
1.3805
0.992659
1.56538
1.06463
1.61056
1.02223
0.99594
1.21555
1.03594
0.814358
1.09266
0.880138
0.949704
1.69534
-0.418045
-0.418016
-0.48082
-0.486422
-0.53161
-0.498258
-0.486976
-0.532518
-0.477914
-0.459905
-0.437059
-0.426667
-0.447666
-0.423211
-0.446247
-0.463113
-0.486741
-0.498344
-0.489515
-0.532048
-0.488201
-0.532985
-0.49208
0.782923
0.812883
1.10242
1.20136
0.781103
1.11032
0.802386
0.80534
1.17434
0.736768
0.937221
1.12402
0.71995
0.843055
0.731433
1.17537
0.684183
1.06222
0.73333
1.0922
0.656808
0.841715
0.899217
1.10379
0.836288
1.10604
0.799391
0.812114
1.072
1.01433
-0.55576
-0.559516
-0.613996
-0.595669
-0.624098
-0.564509
-0.600161
-0.628798
-0.61076
-0.594925
-0.570033
-0.565377
-0.58256
-0.565629
-0.579236
-0.596318
-0.618431
-0.57349
-0.612182
-0.64374
-0.606207
-0.636065
-0.622346
-0.447665
0.166184
-0.351818
-0.138292
0.115233
-0.368522
-0.425141
-0.617803
-0.64996
0.851577
0.396613
0.445442
-0.474059
-0.1654
0.0503155
-0.403827
0.0774599
-0.386272
-0.508588
-0.704699
-0.690269
-0.549119
-0.555892
-0.556516
-0.606776
-0.610052
-0.584628
-0.575322
-0.558531
-0.510199
-0.581884
-0.561241
-0.585568
-0.561608
-0.568854
-0.563303
-0.604421
-0.609078
-0.584021
-0.514285
-0.585921
-0.559018
-0.584542
-0.562329
-0.582815
-0.680535
-0.690779
-1.07315
-1.17548
-0.735846
-1.06467
-0.662691
-0.687219
-1.19637
-0.824677
-1.02901
-0.782074
-1.04662
-0.695535
-1.56266
-1.22099
-1.28366
-1.13999
-1.2615
-1.3045
-1.54116
-1.78935
-1.85866
-1.35958
-1.2967
-1.88135
-1.3642
-1.77066
-2.16361
-1.64116
-1.63024
-2.17167
-1.56938
-1.1376
-1.23367
-1.28888
-1.24981
-1.29318
-1.57333
-1.795
-1.28955
-1.91053
-1.33293
-1.89997
-1.34603
-1.792
-1.2221
-0.951892
-0.956592
-1.2108
-1.42503
-1.74735
-1.06369
-1.19896
-1.76417
-1.07126
-1.42362
-1.08058
-0.904835
-0.941774
-0.796469
-0.903541
-0.94772
-1.08246
-1.22813
-0.968508
-0.961983
-1.23598
-1.42751
-1.19772
-1.79483
-1.07879
-1.77986
-1.07159
-1.43068
-1.07795
-0.796214
-0.903253
-0.949274
-0.904399
-0.946634
-1.078
-0.703873
-0.650569
-0.623066
-0.644014
-0.626253
-0.64791
-0.698343
-0.220033
-0.533074
-0.295176
-0.731277
-0.213097
-0.537839
-0.313202
-0.226156
-0.736651
-0.537811
-0.34138
-0.541718
-0.330198
-0.227537
-1.30951
-0.860538
-1.41337
-0.800275
-1.31602
-0.86099
-1.40172
-1.44986
-1.01497
-1.45573
-1.02557
-1.13161
-0.741822
-0.844123
-0.861616
-0.84814
-0.851492
-1.12163
-1.30145
-0.811161
-0.878303
-1.37102
-0.86774
-1.38733
-1.29314
-1.4516
-1.05787
-1.04078
-1.45877
-0.563494
-0.4934
-0.416879
-0.406752
-0.543021
-0.493243
-0.423827
-0.690046
-0.478712
-0.671067
-0.486861
-0.905641
-0.685664
-0.635083
-1.25678
-0.628553
-1.27372
-0.918236
-0.584131
-0.418437
-0.483124
-0.449415
-0.477757
-0.438614
-0.602025
-0.700413
-0.494345
-0.492843
-0.703977
-0.317731
-0.320819
-0.309932
-0.321353
-0.315872
-0.328202
-0.319148
-0.320997
-0.33766
-0.341164
-0.335515
-0.334679
-0.330119
-0.324209
-0.167745
-0.133159
0.495792
0.798165
0.511958
0.029349
0.25845
0.0902062
0.406058
0.072168
0.407969
0.056522
-0.0982782
-0.115938
0.826189
0.517355
0.517005
-0.360904
-0.345834
-0.385162
-0.385303
-0.35574
-0.346587
-0.385217
-0.387376
-0.386303
-0.386284
-0.347202
-0.342774
-0.365255
-0.376748
-0.344773
-0.381548
-0.345665
-0.383329
-0.369096
-0.386252
-0.384958
-0.386246
0.938001
0.913806
1.36836
0.925211
0.962277
0.881467
1.2477
0.828752
1.02222
0.754146
1.05959
0.875698
1.04197
0.728963
0.951684
0.945446
0.894704
1.17218
0.88669
1.19673
0.95249
0.821687
1.07159
1.04728
0.718482
1.03361
0.715938
0.842916
0.9759
-0.419485
-0.42035
-0.502506
-0.490984
-0.531085
-0.492916
-0.497469
-0.492713
-0.531026
-0.479816
-0.445236
-0.443217
-0.458411
-0.440861
-0.455446
-0.482818
-0.506872
-0.490658
-0.496909
-0.531586
-0.494808
-0.531399
-0.510425
0.493375
0.644411
1.02875
1.08379
0.569999
0.650083
0.986931
0.731879
1.10968
0.873314
0.991546
0.764125
1.13527
0.919093
0.417998
1.08416
0.6823
0.862082
0.663856
0.931331
0.358811
0.728981
1.10369
1.23805
1.02497
1.17295
0.961321
0.782054
1.15321
1.36571
-0.571224
-0.57335
-0.62244
-0.617847
-0.648408
-0.596388
-0.624066
-0.622871
-0.650681
-0.593307
-0.565195
-0.558711
-0.580878
-0.560177
-0.581844
-0.591895
-0.617976
-0.599941
-0.627856
-0.648948
-0.626348
-0.649717
-0.613527
-0.513959
0.0349661
-0.403918
-0.138796
-0.519253
0.00893913
-0.40345
-0.69931
-0.701525
0.642506
0.24626
0.265777
-0.487041
-0.101684
-0.0140745
-0.353925
-0.00240194
-0.384103
-0.459604
-0.720794
-0.706307
-0.571337
-0.582862
-0.573083
-0.599007
-0.594548
-0.581375
-0.586474
-0.557715
-0.535876
-0.581777
-0.586391
-0.557522
-0.589568
-0.574539
-0.573965
-0.580976
-0.5881
-0.582141
-0.545767
-0.58941
-0.559361
-0.587797
-0.558493
-0.582993
-0.683644
-0.844152
-1.0064
-1.28223
-0.689813
-0.852108
-0.993739
-0.678677
-1.2953
-0.840111
-1.00537
-0.847294
-0.995979
-0.667163
-1.56008
-1.21447
-1.27851
-1.09856
-1.56874
-1.19618
-1.2627
-1.77716
-1.91323
-1.31593
-1.25396
-1.7838
-1.91069
-1.29869
-2.14428
-1.61002
-1.62433
-2.11864
-1.55755
-1.08528
-1.19192
-1.23902
-1.1929
-1.25028
-1.55664
-1.77249
-1.24319
-1.90362
-1.27493
-1.9067
-1.28427
-1.76962
-1.24088
-0.976555
-1.238
-0.982672
-1.43517
-1.80223
-1.07955
-1.17956
-1.43477
-1.80746
-1.08022
-1.08269
-0.904093
-0.954181
-0.796075
-1.07922
-0.900567
-0.957322
-1.23979
-0.986767
-0.986386
-1.23524
-1.43295
-1.16898
-1.80851
-1.07158
-1.80868
-1.07661
-1.42866
-1.08491
-0.799875
-0.911336
-0.956391
-0.905731
-0.954368
-1.08534
-0.677981
-0.625491
-0.590803
-0.622785
-0.598612
-0.626068
-0.67335
-0.23205
-0.529582
-0.361323
-0.713365
-0.232791
-0.517739
-0.37495
-0.226983
-0.694093
-0.519494
-0.352986
-0.519438
-0.379018
-0.204235
-1.27442
-0.89182
-1.35361
-0.838007
-1.28617
-0.894544
-1.33243
-1.46477
-1.07428
-1.46793
-1.07012
-1.04298
-0.725449
-0.796768
-0.849936
-0.818087
-0.873906
-1.01562
-1.25718
-0.841002
-0.891386
-1.28242
-0.9001
-1.30681
-1.23803
-1.43842
-0.997481
-1.04096
-1.4131
-0.618241
-0.474671
-0.456694
-0.458128
-0.613435
-0.475531
-0.461061
-0.697238
-0.492353
-0.702816
-0.488689
-0.9225
-0.696758
-0.632871
-1.17669
-0.639581
-1.19818
-0.914639
-0.618818
-0.465666
-0.466221
-0.466346
-0.471628
-0.462863
-0.61927
-0.691165
-0.482105
-0.484423
-0.685337
-0.333655
-0.346566
-0.336609
-0.374777
-0.329051
-0.349682
-0.333227
-0.336904
-0.379501
-0.356715
-0.324477
-0.35495
-0.327227
-0.338627
-0.0751168
-0.0557356
0.523059
0.837254
0.526162
0.0871375
0.306376
0.143513
0.405285
0.133011
0.407247
0.0911129
-0.0474664
-0.0409884
0.822637
0.568904
0.535796
-0.374585
-0.342265
-0.379083
-0.35352
-0.372222
-0.340827
-0.376097
-0.386089
-0.387307
-0.384681
-0.343445
-0.344214
-0.375679
-0.355716
-0.339573
-0.374804
-0.339902
-0.377056
-0.37603
-0.389022
-0.384441
-0.385566
0.965313
0.910427
1.13475
1.02443
0.95276
0.933135
1.109
0.910175
1.05477
0.738691
1.08668
0.883598
1.05418
0.743501
0.977437
1.0356
0.919794
1.08596
0.913818
1.08965
0.997172
0.912786
1.07788
1.0579
0.735288
1.05501
0.722568
0.926273
0.923812
-0.421207
-0.421215
-0.516359
-0.499528
-0.532047
-0.487096
-0.514261
-0.501761
-0.53143
-0.48789
-0.451176
-0.451651
-0.464994
-0.450246
-0.464266
-0.488345
-0.518151
-0.487203
-0.504502
-0.531845
-0.503494
-0.531444
-0.519063
0.361428
0.721041
0.81421
1.12511
0.349076
0.764458
0.805836
0.975528
1.34009
1.12006
1.41049
0.880059
1.45106
1.2184
0.384802
1.15055
0.814594
0.867663
0.780998
0.837464
0.410196
1.0152
1.44787
1.54991
1.32658
1.53936
1.29788
1.00036
2.03951
2.08835
-0.578014
-0.579912
-0.606662
-0.627381
-0.644922
-0.597305
-0.609375
-0.625402
-0.642352
-0.590226
-0.560437
-0.553734
-0.57905
-0.553965
-0.578956
-0.590856
-0.605528
-0.593292
-0.62127
-0.635424
-0.622706
-0.637187
-0.604515
-0.396885
-0.0421013
-0.322954
0.0226421
-0.422414
-0.0539323
-0.290987
-0.731949
-0.740031
0.732272
0.246779
0.237068
-0.38103
0.0461349
-0.0768062
-0.237304
-0.07573
-0.260171
-0.393492
-0.752134
-0.744066
-0.57523
-0.602891
-0.576541
-0.574544
-0.57002
-0.582354
-0.590975
-0.560544
-0.571137
-0.583191
-0.593492
-0.561729
-0.603008
-0.579381
-0.577971
-0.566329
-0.567144
-0.581346
-0.580522
-0.597032
-0.564693
-0.595976
-0.563656
-0.580542
-0.654591
-0.839095
-1.01527
-1.2571
-0.663561
-0.842308
-1.02455
-0.650626
-1.23822
-0.841821
-1.02188
-0.843789
-1.02965
-0.638214
-1.55234
-1.19349
-1.23402
-1.05768
-1.55794
-1.18799
-1.22667
-1.77231
-1.90394
-1.27486
-1.21991
-1.77052
-1.90548
-1.26964
-2.05572
-1.55378
-1.56342
-2.04803
-1.56298
-1.05329
-1.19096
-1.21924
-1.19416
-1.22531
-1.55448
-1.77631
-1.22199
-1.90082
-1.26315
-1.907
-1.27169
-1.77439
-1.21719
-0.983314
-1.22856
-0.97793
-1.41849
-1.80792
-1.07187
-1.13619
-1.42367
-1.80646
-1.06311
-1.0757
-0.916965
-0.963391
-0.821161
-1.08238
-0.919626
-0.960703
-1.2073
-0.965639
-0.970277
-1.19668
-1.41275
-1.13579
-1.79525
-1.03368
-1.80491
-1.0547
-1.40589
-1.06778
-0.822081
-0.911082
-0.944544
-0.916097
-0.954863
-1.06245
-0.680455
-0.599711
-0.581807
-0.627979
-0.580057
-0.625634
-0.686676
)
;

boundaryField
{
    inlet
    {
        type            zeroGradient;
    }
    outlet
    {
        type            fixedValue;
        value           uniform 0;
    }
    up
    {
        type            zeroGradient;
    }
    down
    {
        type            zeroGradient;
    }
    frontAndBack
    {
        type            zeroGradient;
    }
    cylinder
    {
        type            zeroGradient;
    }
}


// ************************************************************************* //
