/*--------------------------------*- C++ -*----------------------------------*\
  =========                 |
  \\      /  F ield         | OpenFOAM: The Open Source CFD Toolbox
   \\    /   O peration     | Website:  https://openfoam.org
    \\  /    A nd           | Version:  8
     \\/     M anipulation  |
\*---------------------------------------------------------------------------*/
FoamFile
{
    version     2.0;
    format      ascii;
    class       volScalarField;
    location    "5";
    object      T;
}
// * * * * * * * * * * * * * * * * * * * * * * * * * * * * * * * * * * * * * //

dimensions      [0 0 0 1 0 0 0];

internalField   nonuniform List<scalar> 
116
(
2.38498e-09
2.38474e-09
2.38468e-09
2.38467e-09
2.38452e-09
2.38055e-09
4.52014e-08
4.51977e-08
4.51969e-08
4.51967e-08
4.51967e-08
4.51964e-08
8.09158e-07
8.09107e-07
8.09096e-07
8.09094e-07
8.09094e-07
8.09094e-07
1.29295e-05
1.29289e-05
1.29288e-05
1.29287e-05
1.29287e-05
1.29287e-05
0.000181681
0.000181675
0.000181674
0.000181673
0.000181673
0.000181673
0.0022025
0.00220245
0.00220244
0.00220244
0.00220244
0.00220244
0.0224558
0.0224555
0.0224555
0.0224555
0.0224555
0.0224555
0.185827
0.185826
0.185826
0.185826
0.185826
0.185826
1.18411
1.18411
1.18411
1.18411
1.18411
1.18411
5.33933
5.33933
5.33933
5.33933
5.33933
5.33933
2.28377e-09
2.27994e-09
2.2798e-09
2.27979e-09
4.51926e-08
4.51923e-08
4.51923e-08
4.51923e-08
8.09094e-07
8.09094e-07
8.09094e-07
8.09094e-07
1.29287e-05
1.29287e-05
1.29287e-05
1.29287e-05
0.000181673
0.000181673
0.000181673
0.000181673
0.00220244
0.00220244
0.00220244
0.00220244
0.0224555
0.0224555
0.0224555
0.0224555
0.185826
0.185826
0.185826
0.185826
1.18411
1.18411
1.18411
1.18411
5.33933
5.33933
5.33933
5.33933
6.54306e-15
6.53757e-15
6.53682e-15
6.53689e-15
1.73701e-13
1.73534e-13
1.73514e-13
1.73516e-13
4.43875e-12
4.43377e-12
4.43329e-12
4.43335e-12
1.04989e-10
1.04848e-10
1.04839e-10
1.0484e-10
)
;

boundaryField
{
    movingWall
    {
        type            fixedValue;
        value           uniform 10;
    }
    fixedWalls
    {
        type            zeroGradient;
    }
    frontAndBack
    {
        type            empty;
    }
}


// ************************************************************************* //
