/*--------------------------------*- C++ -*----------------------------------*\
  =========                 |
  \\      /  F ield         | OpenFOAM: The Open Source CFD Toolbox
   \\    /   O peration     | Website:  https://openfoam.org
    \\  /    A nd           | Version:  8
     \\/     M anipulation  |
\*---------------------------------------------------------------------------*/
FoamFile
{
    version     2.0;
    format      ascii;
    class       volScalarField;
    location    "0.97";
    object      p;
}
// * * * * * * * * * * * * * * * * * * * * * * * * * * * * * * * * * * * * * //

dimensions      [0 2 -2 0 0 0 0];

internalField   nonuniform List<scalar> 
400
(
1.14549e-13
-1.82602e-07
-8.25347e-08
8.11029e-08
2.1049e-07
3.25754e-07
4.36864e-07
5.39986e-07
6.29117e-07
7.05998e-07
7.78248e-07
8.52813e-07
9.31987e-07
1.0127e-06
1.08697e-06
1.14297e-06
1.16853e-06
1.12838e-06
9.00121e-07
4.45299e-07
1.67791e-07
3.0825e-08
1.21476e-07
2.50963e-07
3.48857e-07
4.37964e-07
5.30204e-07
6.17924e-07
6.92166e-07
7.53731e-07
8.10314e-07
8.6903e-07
9.32067e-07
9.95959e-07
1.05163e-06
1.08722e-06
1.10199e-06
1.08292e-06
9.34746e-07
5.68178e-07
3.78108e-07
2.22333e-07
2.96145e-07
4.10419e-07
4.86633e-07
5.54156e-07
6.30056e-07
7.04963e-07
7.67175e-07
8.15838e-07
8.58456e-07
9.02893e-07
9.52327e-07
1.00406e-06
1.04953e-06
1.07884e-06
1.1038e-06
1.13393e-06
1.06329e-06
7.63253e-07
5.59552e-07
3.7245e-07
4.47539e-07
5.64976e-07
6.2905e-07
6.80016e-07
7.43459e-07
8.08852e-07
8.61235e-07
8.97835e-07
9.26371e-07
9.56296e-07
9.92604e-07
1.03393e-06
1.07288e-06
1.10232e-06
1.14553e-06
1.22836e-06
1.22801e-06
9.59461e-07
6.99813e-07
4.88485e-07
5.78703e-07
7.14372e-07
7.76854e-07
8.1791e-07
8.73073e-07
9.31211e-07
9.74498e-07
9.98738e-07
1.01248e-06
1.02742e-06
1.05077e-06
1.08235e-06
1.11544e-06
1.14541e-06
1.20538e-06
1.33453e-06
1.39201e-06
1.13798e-06
8.25401e-07
5.87175e-07
6.95165e-07
8.57209e-07
9.26767e-07
9.64104e-07
1.01435e-06
1.06651e-06
1.10094e-06
1.11274e-06
1.11178e-06
1.11239e-06
1.12416e-06
1.14777e-06
1.17615e-06
1.20591e-06
1.27798e-06
1.44359e-06
1.54863e-06
1.3038e-06
9.4891e-07
6.81336e-07
8.04147e-07
9.94489e-07
1.07581e-06
1.11332e-06
1.16068e-06
1.2076e-06
1.23346e-06
1.23334e-06
1.21868e-06
1.20659e-06
1.20909e-06
1.22739e-06
1.25321e-06
1.28294e-06
1.36288e-06
1.55531e-06
1.69924e-06
1.46374e-06
1.0775e-06
7.80145e-07
9.11883e-07
1.12777e-06
1.22196e-06
1.26124e-06
1.30647e-06
1.3484e-06
1.36623e-06
1.35539e-06
1.32886e-06
1.30633e-06
1.30212e-06
1.3178e-06
1.34334e-06
1.37381e-06
1.45852e-06
1.66927e-06
1.84465e-06
1.62131e-06
1.21324e-06
8.87552e-07
1.021e-06
1.25674e-06
1.36252e-06
1.4037e-06
1.44687e-06
1.48411e-06
1.49508e-06
1.47575e-06
1.44026e-06
1.41028e-06
1.40205e-06
1.41739e-06
1.44445e-06
1.47635e-06
1.5633e-06
1.78463e-06
1.98419e-06
1.77638e-06
1.35464e-06
1.00364e-06
1.13134e-06
1.37969e-06
1.49439e-06
1.53689e-06
1.5779e-06
1.61112e-06
1.61722e-06
1.59269e-06
1.5522e-06
1.51852e-06
1.50913e-06
1.52602e-06
1.55566e-06
1.58912e-06
1.67575e-06
1.90012e-06
2.11604e-06
1.92646e-06
1.49855e-06
1.12671e-06
1.24173e-06
1.4947e-06
1.61501e-06
1.65807e-06
1.69699e-06
1.72729e-06
1.73105e-06
1.70526e-06
1.66437e-06
1.63115e-06
1.62355e-06
1.64349e-06
1.67612e-06
1.71061e-06
1.7941e-06
2.01399e-06
2.23785e-06
2.06808e-06
1.6412e-06
1.25445e-06
1.35077e-06
1.60023e-06
1.72276e-06
1.76592e-06
1.80324e-06
1.83201e-06
1.83615e-06
1.81303e-06
1.77618e-06
1.74739e-06
1.74421e-06
1.76826e-06
1.80375e-06
1.83827e-06
1.91572e-06
2.12392e-06
2.34697e-06
2.19744e-06
1.77841e-06
1.38405e-06
1.45676e-06
1.69484e-06
1.81649e-06
1.8599e-06
1.89672e-06
1.92572e-06
1.93282e-06
1.91574e-06
1.8866e-06
1.86536e-06
1.86846e-06
1.89704e-06
1.93481e-06
1.96824e-06
2.03711e-06
2.22712e-06
2.44066e-06
2.31075e-06
1.90576e-06
1.51202e-06
1.55744e-06
1.77655e-06
1.89453e-06
1.93906e-06
1.97722e-06
2.00861e-06
2.02108e-06
2.01267e-06
1.99378e-06
1.98202e-06
1.99225e-06
2.02514e-06
2.06443e-06
2.09595e-06
2.15458e-06
2.32118e-06
2.51698e-06
2.40476e-06
2.01927e-06
1.63451e-06
1.65011e-06
1.84291e-06
1.95429e-06
2.00109e-06
2.04295e-06
2.07921e-06
2.09933e-06
2.10153e-06
2.09439e-06
2.09295e-06
2.11036e-06
2.14705e-06
2.18739e-06
2.21707e-06
2.26532e-06
2.4053e-06
2.57608e-06
2.4779e-06
2.1164e-06
1.74774e-06
1.73229e-06
1.89195e-06
1.99333e-06
2.04305e-06
2.09073e-06
2.13421e-06
2.1639e-06
2.17795e-06
2.1832e-06
2.19223e-06
2.21659e-06
2.25684e-06
2.29867e-06
2.32804e-06
2.36781e-06
2.48059e-06
2.62082e-06
2.53131e-06
2.19574e-06
1.84834e-06
1.80229e-06
1.92372e-06
2.01194e-06
2.0644e-06
2.11886e-06
2.17083e-06
2.21099e-06
2.23715e-06
2.25457e-06
2.27373e-06
2.30488e-06
2.34909e-06
2.3939e-06
2.42581e-06
2.46066e-06
2.54805e-06
2.65444e-06
2.56745e-06
2.25333e-06
1.92789e-06
1.85293e-06
1.93499e-06
2.0097e-06
2.06552e-06
2.12708e-06
2.1877e-06
2.23812e-06
2.27578e-06
2.30471e-06
2.3338e-06
2.3724e-06
2.42224e-06
2.47271e-06
2.51073e-06
2.54485e-06
2.61056e-06
2.68197e-06
2.58947e-06
2.28718e-06
1.96774e-06
1.86309e-06
1.90891e-06
1.97594e-06
2.04006e-06
2.11135e-06
2.18172e-06
2.2427e-06
2.29178e-06
2.33236e-06
2.37246e-06
2.42087e-06
2.47984e-06
2.54042e-06
2.59012e-06
2.63099e-06
2.68427e-06
2.72233e-06
2.61016e-06
2.30546e-06
1.94246e-06
1.79334e-06
1.82124e-06
1.89688e-06
1.98146e-06
2.06998e-06
2.15432e-06
2.22797e-06
2.2896e-06
2.34301e-06
2.39597e-06
2.45675e-06
2.52808e-06
2.60352e-06
2.67357e-06
2.73678e-06
2.80008e-06
2.81705e-06
2.6628e-06
)
;

boundaryField
{
    movingWall
    {
        type            zeroGradient;
    }
    fixedWalls
    {
        type            zeroGradient;
    }
    left
    {
        type            cyclic;
    }
    right
    {
        type            cyclic;
    }
    frontAndBack
    {
        type            empty;
    }
}


// ************************************************************************* //
