/*--------------------------------*- C++ -*----------------------------------*\
  =========                 |
  \\      /  F ield         | OpenFOAM: The Open Source CFD Toolbox
   \\    /   O peration     | Website:  https://openfoam.org
    \\  /    A nd           | Version:  8
     \\/     M anipulation  |
\*---------------------------------------------------------------------------*/
FoamFile
{
    version     2.0;
    format      ascii;
    class       volVectorField;
    location    "29";
    object      U;
}
// * * * * * * * * * * * * * * * * * * * * * * * * * * * * * * * * * * * * * //

dimensions      [0 1 -1 0 0 0 0];

internalField   nonuniform List<vector> 
12504
(
(1.00014 -0.00069471 8.56138e-07)
(1.00354 -0.00207058 -1.05477e-06)
(1.01032 -0.00338842 -1.97633e-06)
(1.02039 -0.00460376 -1.31234e-06)
(1.0334 -0.00567923 -7.06265e-07)
(1.04891 -0.00658461 -4.79141e-07)
(1.06647 -0.00729807 -3.34141e-07)
(1.08557 -0.00780813 -1.12789e-08)
(1.1057 -0.00811495 3.46755e-07)
(1.12636 -0.00823021 6.66454e-07)
(1.14707 -0.00817557 9.07698e-07)
(1.16745 -0.0079797 1.04443e-06)
(1.18718 -0.00767448 1.06627e-06)
(1.206 -0.00729095 9.90835e-07)
(1.22378 -0.00685632 8.53228e-07)
(1.2404 -0.00639229 6.97789e-07)
(1.25583 -0.0059151 5.52105e-07)
(1.27004 -0.00543626 4.34123e-07)
(1.28306 -0.00496377 3.38718e-07)
(1.2949 -0.00450285 2.68739e-07)
(1.3056 -0.00405687 2.10406e-07)
(1.3152 -0.00362764 1.73452e-07)
(1.32375 -0.00321619 1.38143e-07)
(1.33129 -0.00282279 1.23679e-07)
(1.33787 -0.00244756 9.89331e-08)
(1.34353 -0.00209016 9.98976e-08)
(1.34833 -0.00175046 7.48738e-08)
(1.35229 -0.00142787 8.89019e-08)
(1.35548 -0.00112232 5.51027e-08)
(1.3579 -0.000833119 8.65763e-08)
(1.35965 -0.000560389 3.22777e-08)
(1.3607 -0.000303346 9.09535e-08)
(1.36117 -6.23913e-05 -9.36337e-10)
(1.361 0.000163382 1.07789e-07)
(1.36037 0.000373156 -4.18521e-08)
(1.35912 0.000568298 1.53212e-07)
(1.35754 0.000747469 -1.09311e-07)
(1.35535 0.000912567 2.32335e-07)
(1.35301 0.00106157 -2.31317e-07)
(1.34999 0.00119721 3.75423e-07)
(1.34709 0.00131657 -4.42524e-07)
(1.34332 0.00142352 6.36049e-07)
(1.34008 0.00151398 -8.11141e-07)
(1.33559 0.00159318 1.10126e-06)
(1.33231 0.00165588 -1.441e-06)
(1.32703 0.00170833 1.88363e-06)
(1.32413 0.00174507 -2.38653e-06)
(1.31781 0.00177103 2.90202e-06)
(1.31593 0.00178525 -3.01821e-06)
(1.308 0.0017818 1.94233e-06)
(1.00015 -0.00210249 8.26592e-07)
(1.00362 -0.00626117 -1.1171e-06)
(1.01055 -0.0102434 -2.00781e-06)
(1.02085 -0.0139161 -1.33981e-06)
(1.03414 -0.0171644 -7.40424e-07)
(1.04999 -0.0198959 -5.12315e-07)
(1.06791 -0.0220444 -3.50326e-07)
(1.0874 -0.023575 1.64827e-09)
(1.1079 -0.0244885 3.85348e-07)
(1.12891 -0.024821 7.25263e-07)
(1.14994 -0.0246393 9.77332e-07)
(1.17058 -0.0240319 1.11175e-06)
(1.19051 -0.0230966 1.1192e-06)
(1.2095 -0.0219285 1.02388e-06)
(1.2274 -0.02061 8.68971e-07)
(1.24411 -0.0192064 7.04136e-07)
(1.2596 -0.0177661 5.57258e-07)
(1.27387 -0.0163232 4.43082e-07)
(1.28692 -0.0149011 3.52542e-07)
(1.29878 -0.0135151 2.86571e-07)
(1.3095 -0.0121749 2.31179e-07)
(1.31912 -0.0108857 1.96576e-07)
(1.32768 -0.00965028 1.62986e-07)
(1.33523 -0.00846929 1.49753e-07)
(1.34182 -0.007343 1.2539e-07)
(1.34749 -0.00627033 1.25979e-07)
(1.35229 -0.00525079 1.00059e-07)
(1.35625 -0.00428269 1.13182e-07)
(1.35944 -0.00336565 7.83905e-08)
(1.36187 -0.00249776 1.08361e-07)
(1.36362 -0.00167916 5.2755e-08)
(1.36467 -0.000907784 1.09541e-07)
(1.36514 -0.000184478 1.54069e-08)
(1.36496 0.000493016 1.21576e-07)
(1.36432 0.00112293 -2.61996e-08)
(1.36307 0.00170838 1.67319e-07)
(1.36149 0.0022466 -9.30554e-08)
(1.35929 0.00274161 2.43604e-07)
(1.35694 0.00318957 -2.14784e-07)
(1.35391 0.00359572 3.82726e-07)
(1.351 0.00395521 -4.24588e-07)
(1.34722 0.00427447 6.36786e-07)
(1.34397 0.00454811 -7.88812e-07)
(1.33946 0.00478284 1.09139e-06)
(1.33618 0.00497461 -1.40888e-06)
(1.33088 0.00512718 1.85733e-06)
(1.32797 0.00524307 -2.34161e-06)
(1.32163 0.00531419 2.85568e-06)
(1.31975 0.00536362 -2.9704e-06)
(1.3118 0.00534789 1.91901e-06)
(1.00015 -0.00355962 8.43539e-07)
(1.00378 -0.0105948 -1.19539e-06)
(1.01102 -0.0173297 -2.10944e-06)
(1.02178 -0.0235398 -1.41582e-06)
(1.03566 -0.029027 -7.94573e-07)
(1.0522 -0.0336321 -5.47506e-07)
(1.07087 -0.0372415 -3.47296e-07)
(1.09113 -0.0397952 6.04743e-08)
(1.1124 -0.0412952 5.05894e-07)
(1.13412 -0.0418052 8.96851e-07)
(1.15578 -0.041443 1.17565e-06)
(1.17696 -0.0403644 1.30257e-06)
(1.19732 -0.0387405 1.27051e-06)
(1.21664 -0.0367356 1.11985e-06)
(1.23478 -0.0344902 9.14003e-07)
(1.25167 -0.0321135 7.16445e-07)
(1.2673 -0.0296849 5.5639e-07)
(1.28166 -0.0272594 4.41628e-07)
(1.29478 -0.0248745 3.54289e-07)
(1.3067 -0.0225541 2.91816e-07)
(1.31746 -0.0203131 2.39387e-07)
(1.32711 -0.0181592 2.08318e-07)
(1.33571 -0.0160965 1.77472e-07)
(1.34328 -0.0141253 1.66771e-07)
(1.34989 -0.0122459 1.43008e-07)
(1.35557 -0.0104563 1.44259e-07)
(1.36039 -0.00875538 1.17307e-07)
(1.36436 -0.00714035 1.30806e-07)
(1.36756 -0.0056104 9.40987e-08)
(1.36999 -0.00416249 1.24305e-07)
(1.37174 -0.00279659 6.57441e-08)
(1.37279 -0.00150957 1.22928e-07)
(1.37325 -0.000302464 2.30511e-08)
(1.37307 0.000828004 1.31395e-07)
(1.37243 0.00187957 -1.87737e-08)
(1.37116 0.00285639 1.79661e-07)
(1.36957 0.00375517 -8.6461e-08)
(1.36735 0.00458077 2.5559e-07)
(1.36499 0.00532921 -2.1051e-07)
(1.36193 0.00600599 3.94586e-07)
(1.35901 0.00660729 -4.22948e-07)
(1.35519 0.00713811 6.48164e-07)
(1.35193 0.00759704 -7.90013e-07)
(1.34739 0.00798533 1.1012e-06)
(1.34409 0.00830911 -1.41049e-06)
(1.33876 0.00855829 1.86353e-06)
(1.33584 0.00875752 -2.34245e-06)
(1.32946 0.00886894 2.85022e-06)
(1.32757 0.00895842 -2.95479e-06)
(1.31957 0.00892718 1.9148e-06)
(1.00016 -0.00509715 8.88448e-07)
(1.00403 -0.0151692 -1.3051e-06)
(1.01175 -0.0248092 -2.2874e-06)
(1.02322 -0.0336933 -1.55019e-06)
(1.03802 -0.0415325 -8.8143e-07)
(1.05562 -0.0480937 -6.01774e-07)
(1.07546 -0.0532096 -3.34228e-07)
(1.09693 -0.0567914 1.64063e-07)
(1.11939 -0.0588427 7.1286e-07)
(1.14222 -0.0594606 1.19298e-06)
(1.16486 -0.0588246 1.51766e-06)
(1.18685 -0.0571713 1.62797e-06)
(1.20786 -0.0547583 1.52293e-06)
(1.22768 -0.0518286 1.27392e-06)
(1.24619 -0.0485848 9.80515e-07)
(1.26336 -0.0451799 7.28854e-07)
(1.27919 -0.041722 5.48513e-07)
(1.29371 -0.038284 4.33627e-07)
(1.30695 -0.0349149 3.50902e-07)
(1.31896 -0.031645 2.93028e-07)
(1.3298 -0.0284927 2.44757e-07)
(1.33951 -0.0254665 2.19315e-07)
(1.34816 -0.0225707 1.92635e-07)
(1.35577 -0.019805 1.85643e-07)
(1.36242 -0.0171688 1.6227e-07)
(1.36814 -0.0146589 1.64694e-07)
(1.37298 -0.0122736 1.35938e-07)
(1.37698 -0.0100087 1.5046e-07)
(1.38019 -0.00786304 1.10505e-07)
(1.38263 -0.00583222 1.42055e-07)
(1.38439 -0.00391623 7.83763e-08)
(1.38544 -0.00211062 1.37658e-07)
(1.38591 -0.000416889 2.90917e-08)
(1.38572 0.00116952 1.43251e-07)
(1.38507 0.00264537 -1.37859e-08)
(1.38378 0.0040164 1.95436e-07)
(1.38217 0.00527797 -8.38308e-08)
(1.37992 0.00643679 2.7315e-07)
(1.37754 0.00748742 -2.12793e-07)
(1.37444 0.0084372 4.14947e-07)
(1.37149 0.00928129 -4.32362e-07)
(1.36763 0.0100258 6.72355e-07)
(1.36434 0.01067 -8.08655e-07)
(1.35974 0.0112141 1.13064e-06)
(1.35642 0.0116686 -1.43878e-06)
(1.35101 0.012017 1.89724e-06)
(1.34808 0.0122969 -2.37408e-06)
(1.34162 0.0124522 2.879e-06)
(1.33973 0.0125784 -2.96542e-06)
(1.33163 0.0125356 1.91302e-06)
(1.00018 -0.00675314 9.49002e-07)
(1.00438 -0.0200958 -1.46133e-06)
(1.01277 -0.0328631 -2.55317e-06)
(1.02523 -0.044621 -1.76108e-06)
(1.0413 -0.0549788 -1.02555e-06)
(1.06039 -0.0636185 -7.03354e-07)
(1.08187 -0.0703084 -3.26996e-07)
(1.10505 -0.0749248 3.15964e-07)
(1.12918 -0.0774734 1.03139e-06)
(1.15356 -0.0780931 1.65963e-06)
(1.17756 -0.0770419 2.05749e-06)
(1.20068 -0.0746588 2.13254e-06)
(1.22258 -0.0713086 1.90131e-06)
(1.24308 -0.0673267 1.49348e-06)
(1.2621 -0.0629833 1.06832e-06)
(1.27965 -0.0584739 7.42916e-07)
(1.29576 -0.0539306 5.42045e-07)
(1.3105 -0.0494397 4.33518e-07)
(1.32391 -0.0450575 3.58957e-07)
(1.33607 -0.040818 3.06892e-07)
(1.34703 -0.0367399 2.641e-07)
(1.35684 -0.0328309 2.46342e-07)
(1.36558 -0.0290939 2.24657e-07)
(1.37327 -0.0255268 2.21505e-07)
(1.37999 -0.022128 1.97277e-07)
(1.38576 -0.0188925 2.00243e-07)
(1.39066 -0.0158179 1.67951e-07)
(1.3947 -0.0128981 1.83092e-07)
(1.39795 -0.0101318 1.37602e-07)
(1.40041 -0.0075131 1.70425e-07)
(1.40219 -0.00504205 9.86208e-08)
(1.40325 -0.00271272 1.60909e-07)
(1.40372 -0.000527378 3.89026e-08)
(1.40352 0.00152012 1.61753e-07)
(1.40285 0.003425 -5.76925e-09)
(1.40153 0.00519514 2.18856e-07)
(1.3999 0.00682368 -7.96871e-08)
(1.3976 0.00832016 2.99897e-07)
(1.39518 0.00967636 -2.15682e-07)
(1.39201 0.0109031 4.46345e-07)
(1.38902 0.0119923 -4.45802e-07)
(1.38507 0.012954 7.10748e-07)
(1.38174 0.0137844 -8.35027e-07)
(1.37704 0.0144872 1.17933e-06)
(1.37368 0.015072 -1.47975e-06)
(1.36815 0.0155224 1.95367e-06)
(1.36519 0.0158813 -2.42598e-06)
(1.35859 0.0160835 2.92683e-06)
(1.35669 0.0162442 -2.99242e-06)
(1.34844 0.0161937 1.91393e-06)
(1.0002 -0.00856909 1.0271e-06)
(1.00484 -0.025497 -1.65448e-06)
(1.01411 -0.0416925 -2.90554e-06)
(1.02788 -0.0565971 -2.04999e-06)
(1.04564 -0.0697028 -1.23544e-06)
(1.06671 -0.0805915 -8.65208e-07)
(1.09038 -0.0889502 -3.26266e-07)
(1.11584 -0.09461 5.38026e-07)
(1.14221 -0.0975784 1.51632e-06)
(1.16867 -0.0980479 2.38826e-06)
(1.19447 -0.0963805 2.90084e-06)
(1.21907 -0.0930506 2.90201e-06)
(1.24212 -0.0885602 2.44874e-06)
(1.26348 -0.0833564 1.78214e-06)
(1.28314 -0.0777827 1.15937e-06)
(1.30118 -0.0720725 7.39269e-07)
(1.31768 -0.0663743 5.25867e-07)
(1.33272 -0.060781 4.36956e-07)
(1.34638 -0.055351 3.75126e-07)
(1.35875 -0.0501172 3.29037e-07)
(1.36989 -0.0450955 2.92223e-07)
(1.37987 -0.0402899 2.83434e-07)
(1.38875 -0.0357002 2.66233e-07)
(1.39657 -0.031322 2.65448e-07)
(1.4034 -0.0271515 2.37745e-07)
(1.40927 -0.0231817 2.39693e-07)
(1.41426 -0.019409 2.01507e-07)
(1.41836 -0.0158258 2.16545e-07)
(1.42167 -0.0124303 1.63002e-07)
(1.42417 -0.00921492 1.97132e-07)
(1.42597 -0.00618011 1.1404e-07)
(1.42704 -0.00331819 1.80714e-07)
(1.42751 -0.000632518 4.20157e-08)
(1.42728 0.00188484 1.77946e-07)
(1.42658 0.00422705 -4.58719e-09)
(1.42521 0.00640452 2.39336e-07)
(1.42352 0.00840737 -8.56796e-08)
(1.42113 0.0102489 3.25393e-07)
(1.41864 0.0119168 -2.30102e-07)
(1.41537 0.0134269 4.80142e-07)
(1.41229 0.0147657 -4.7337e-07)
(1.4082 0.0159499 7.56509e-07)
(1.40478 0.0169694 -8.80004e-07)
(1.39992 0.0178351 1.2412e-06)
(1.39648 0.018551 -1.54689e-06)
(1.39076 0.019107 2.03334e-06)
(1.38774 0.0195438 -2.50629e-06)
(1.38092 0.0197965 3.00343e-06)
(1.37898 0.0199898 -3.04554e-06)
(1.37047 0.0199359 1.92425e-06)
(1.00022 -0.0105923 1.12563e-06)
(1.00543 -0.0315112 -1.86774e-06)
(1.01582 -0.0515279 -3.35566e-06)
(1.03128 -0.0699382 -2.42563e-06)
(1.0512 -0.0860981 -1.53391e-06)
(1.07485 -0.0994671 -1.1136e-06)
(1.10137 -0.109625 -3.37754e-07)
(1.12981 -0.116341 8.53767e-07)
(1.15911 -0.119621 2.23812e-06)
(1.18826 -0.119728 3.50405e-06)
(1.21638 -0.117165 4.19699e-06)
(1.24285 -0.112594 4.06553e-06)
(1.26733 -0.106696 3.23629e-06)
(1.28976 -0.100055 2.1489e-06)
(1.31023 -0.0930911 1.20998e-06)
(1.32888 -0.0860659 6.7513e-07)
(1.34587 -0.079132 4.73955e-07)
(1.36133 -0.0723794 4.25856e-07)
(1.37534 -0.0658616 3.81305e-07)
(1.38802 -0.0596047 3.41463e-07)
(1.39943 -0.0536173 3.12197e-07)
(1.40965 -0.0478966 3.13079e-07)
(1.41874 -0.0424381 2.97468e-07)
(1.42676 -0.0372333 2.94872e-07)
(1.43375 -0.0322762 2.59211e-07)
(1.43976 -0.0275572 2.57592e-07)
(1.44486 -0.0230717 2.10685e-07)
(1.44905 -0.0188101 2.2494e-07)
(1.45242 -0.0147703 1.61416e-07)
(1.45495 -0.0109432 1.98587e-07)
(1.45677 -0.00732961 1.03128e-07)
(1.45781 -0.00392018 1.78107e-07)
(1.45825 -0.000719402 2.1314e-08)
(1.45795 0.00228232 1.77278e-07)
(1.45718 0.00507562 -2.58166e-08)
(1.45569 0.00767346 2.40859e-07)
(1.45388 0.0100626 -1.1843e-07)
(1.45134 0.0122607 3.34448e-07)
(1.44871 0.0142503 -2.72135e-07)
(1.44523 0.0160534 5.03602e-07)
(1.442 0.0176496 -5.29188e-07)
(1.43767 0.0190639 8.02223e-07)
(1.4341 0.0202775 -9.54722e-07)
(1.42895 0.0213122 1.31848e-06)
(1.42537 0.0221615 -1.64884e-06)
(1.41933 0.0228274 2.14154e-06)
(1.4162 0.0233417 -2.63306e-06)
(1.409 0.0236486 3.12149e-06)
(1.407 0.0238728 -3.14367e-06)
(1.39806 0.0238198 1.95271e-06)
(1.00025 -0.0128776 1.24604e-06)
(1.00617 -0.0382974 -2.06914e-06)
(1.01797 -0.0626384 -3.92968e-06)
(1.03553 -0.0850163 -2.89723e-06)
(1.0582 -0.104634 -1.97017e-06)
(1.08513 -0.120795 -1.49612e-06)
(1.11533 -0.13293 -3.5391e-07)
(1.14761 -0.140724 1.33184e-06)
(1.18069 -0.144168 3.34626e-06)
(1.21331 -0.143615 5.21028e-06)
(1.24438 -0.139773 6.13127e-06)
(1.27318 -0.133564 5.74414e-06)
(1.29942 -0.125914 4.31183e-06)
(1.32313 -0.117573 2.53442e-06)
(1.34457 -0.109033 1.07548e-06)
(1.36399 -0.100564 4.39565e-07)
(1.38163 -0.0923046 3.27596e-07)
(1.39762 -0.0843288 3.47709e-07)
(1.41211 -0.0766774 3.17891e-07)
(1.4252 -0.0693625 2.83349e-07)
(1.43699 -0.0623799 2.66052e-07)
(1.44754 -0.0557174 2.77991e-07)
(1.45691 -0.0493639 2.59351e-07)
(1.46516 -0.0433069 2.48423e-07)
(1.47235 -0.0375373 1.9907e-07)
(1.47851 -0.0320433 1.91221e-07)
(1.48371 -0.0268188 1.33906e-07)
(1.48795 -0.0218528 1.47906e-07)
(1.49134 -0.017143 7.49321e-08)
(1.49385 -0.0126788 1.20319e-07)
(1.4956 -0.00846185 1.84617e-08)
(1.49654 -0.00448099 1.15088e-07)
(1.49684 -0.000741782 -5.50705e-08)
(1.49636 0.00276677 1.26225e-07)
(1.49539 0.00603229 -1.09975e-07)
(1.49364 0.00906956 1.83973e-07)
(1.4916 0.0118629 -2.12173e-07)
(1.48875 0.0144334 2.96213e-07)
(1.48584 0.0167595 -3.70289e-07)
(1.48201 0.0188682 4.90697e-07)
(1.47848 0.0207329 -6.37819e-07)
(1.47375 0.0223868 8.27689e-07)
(1.46988 0.0238021 -1.08214e-06)
(1.46428 0.0250118 1.39413e-06)
(1.46043 0.0259984 -1.80626e-06)
(1.45388 0.0267778 2.27677e-06)
(1.45054 0.0273702 -2.82347e-06)
(1.44275 0.0277328 3.29168e-06)
(1.44064 0.0279863 -3.30623e-06)
(1.431 0.0279358 2.00752e-06)
(1.00029 -0.0154894 1.38964e-06)
(1.00707 -0.0460376 -2.19464e-06)
(1.02061 -0.075341 -4.67137e-06)
(1.0408 -0.102273 -3.457e-06)
(1.06691 -0.125881 -2.65248e-06)
(1.098 -0.145254 -2.10817e-06)
(1.13288 -0.159613 -3.99303e-07)
(1.17012 -0.168523 2.086e-06)
(1.20809 -0.171931 5.19275e-06)
(1.24516 -0.170307 7.97539e-06)
(1.27995 -0.164654 9.03942e-06)
(1.31162 -0.156273 8.01228e-06)
(1.33994 -0.146429 5.51307e-06)
(1.36517 -0.136073 2.49353e-06)
(1.38776 -0.12575 4.79582e-07)
(1.40812 -0.115698 -9.22191e-08)
(1.42655 -0.106014 1.02683e-10)
(1.44323 -0.0967422 9.47575e-08)
(1.45831 -0.0879006 5.24938e-08)
(1.47191 -0.0794793 9.70108e-09)
(1.48412 -0.071456 5.80091e-09)
(1.49502 -0.0638066 2.96121e-08)
(1.50467 -0.0565129 4.34519e-09)
(1.51311 -0.0495584 -1.87038e-08)
(1.52042 -0.0429309 -8.27303e-08)
(1.52661 -0.0366169 -9.37648e-08)
(1.53177 -0.0306091 -1.55218e-07)
(1.53591 -0.0248959 -1.33541e-07)
(1.53914 -0.0194748 -2.05658e-07)
(1.54141 -0.0143345 -1.39804e-07)
(1.54289 -0.0094768 -2.28503e-07)
(1.54348 -0.00488922 -8.22081e-08)
(1.54342 -0.000579398 -2.28873e-07)
(1.54251 0.00346648 -3.34903e-08)
(1.5411 0.0072322 -3.29131e-07)
(1.53885 0.0107327 -2.84115e-09)
(1.53632 0.0139529 -4.28904e-07)
(1.5329 0.0169141 1.52951e-07)
(1.52948 0.0195942 -5.71815e-07)
(1.52503 0.0220211 3.96941e-07)
(1.52098 0.0241674 -8.3368e-07)
(1.51559 0.0260681 7.99273e-07)
(1.51122 0.0276938 -1.28349e-06)
(1.50491 0.0290811 1.44691e-06)
(1.50062 0.0302097 -2.03355e-06)
(1.49329 0.0311007 2.4258e-06)
(1.4896 0.0317725 -3.08891e-06)
(1.48095 0.0321854 3.51272e-06)
(1.47863 0.0324669 -3.54728e-06)
(1.46798 0.032412 2.09239e-06)
(1.00033 -0.0185032 1.56183e-06)
(1.00818 -0.0549378 -2.13137e-06)
(1.02382 -0.0900122 -5.64008e-06)
(1.04726 -0.122235 -4.03659e-06)
(1.07764 -0.150543 -3.78569e-06)
(1.11398 -0.173694 -3.1063e-06)
(1.15485 -0.190624 -6.91251e-07)
(1.19848 -0.200715 3.05902e-06)
(1.24278 -0.203814 8.24407e-06)
(1.28558 -0.200544 1.26974e-05)
(1.32505 -0.19235 1.37201e-05)
(1.36019 -0.181082 1.12549e-05)
(1.39095 -0.168479 6.18476e-06)
(1.41788 -0.155732 1.07855e-06)
(1.44177 -0.143389 -1.22998e-06)
(1.4632 -0.131598 -1.34434e-06)
(1.48251 -0.120372 -8.71193e-07)
(1.49991 -0.109711 -6.57018e-07)
(1.51556 -0.0995972 -7.19787e-07)
(1.52958 -0.0899903 -7.80048e-07)
(1.54208 -0.0808459 -7.7179e-07)
(1.55312 -0.0721288 -7.31936e-07)
(1.56277 -0.0638144 -7.58474e-07)
(1.57109 -0.0558838 -7.77844e-07)
(1.57815 -0.0483222 -8.32729e-07)
(1.58398 -0.0411162 -8.18308e-07)
(1.58869 -0.034257 -8.53633e-07)
(1.59227 -0.0277345 -7.87852e-07)
(1.59487 -0.0215444 -8.22195e-07)
(1.59645 -0.0156772 -6.90855e-07)
(1.59719 -0.0101315 -7.26468e-07)
(1.59698 -0.0048967 -4.85374e-07)
(1.5961 2.57684e-05 -5.09541e-07)
(1.59431 0.00463865 -3.76899e-07)
(1.59203 0.00893063 -7.62784e-07)
(1.58886 0.0129147 -3.94556e-07)
(1.58545 0.0165814 -8.32083e-07)
(1.58109 0.0199455 -1.6073e-07)
(1.5768 0.0229929 -9.25091e-07)
(1.57138 0.0257427 1.71021e-07)
(1.5665 0.0281789 -1.1452e-06)
(1.56012 0.0303244 6.7747e-07)
(1.55499 0.0321653 -1.57197e-06)
(1.54766 0.0337216 1.44212e-06)
(1.5427 0.0349946 -2.33086e-06)
(1.5343 0.0359824 2.55723e-06)
(1.53009 0.036734 -3.42021e-06)
(1.52027 0.0371769 3.7599e-06)
(1.51765 0.0374861 -3.85885e-06)
(1.50566 0.0374021 2.20092e-06)
(1.0004 -0.0220058 1.78411e-06)
(1.00951 -0.0652258 -1.71645e-06)
(1.02768 -0.107098 -6.89188e-06)
(1.05509 -0.145521 -4.43999e-06)
(1.09072 -0.1795 -5.66682e-06)
(1.1337 -0.207204 -4.57572e-06)
(1.18224 -0.227209 -1.6287e-06)
(1.23417 -0.238595 3.85485e-06)
(1.28674 -0.240967 1.25619e-05)
(1.33692 -0.235223 2.00174e-05)
(1.38225 -0.223478 2.11437e-05)
(1.42153 -0.208379 1.63197e-05)
(1.45494 -0.19231 5.77715e-06)
(1.48359 -0.176715 -2.57379e-06)
(1.5087 -0.162059 -5.21705e-06)
(1.53104 -0.148311 -4.37453e-06)
(1.55098 -0.135369 -3.12145e-06)
(1.56871 -0.123168 -2.56261e-06)
(1.58442 -0.111639 -2.55714e-06)
(1.59825 -0.100703 -2.54695e-06)
(1.61032 -0.0902953 -2.45096e-06)
(1.6207 -0.0803716 -2.34399e-06)
(1.6295 -0.0709054 -2.32323e-06)
(1.63678 -0.0618778 -2.27559e-06)
(1.64266 -0.0532725 -2.24551e-06)
(1.64718 -0.0450781 -2.12318e-06)
(1.65049 -0.0372837 -2.04506e-06)
(1.6526 -0.0298817 -1.84253e-06)
(1.65369 -0.0228647 -1.73739e-06)
(1.65372 -0.0162248 -1.42317e-06)
(1.65291 -0.00995661 -1.31511e-06)
(1.65114 -0.0040457 -8.53541e-07)
(1.64873 0.00151312 -9.81359e-07)
(1.6454 0.00670137 -9.39257e-07)
(1.64166 0.0115258 -1.35329e-06)
(1.63702 0.0159917 -9.13842e-07)
(1.63222 0.0201037 -1.34473e-06)
(1.62646 0.0238599 -5.88137e-07)
(1.6209 0.0272679 -1.3676e-06)
(1.61414 0.0303224 -1.57374e-07)
(1.60811 0.0330397 -1.52325e-06)
(1.60046 0.0354055 4.70383e-07)
(1.59431 0.0374532 -1.89973e-06)
(1.58574 0.0391481 1.36543e-06)
(1.57992 0.0405593 -2.64438e-06)
(1.57026 0.0416072 2.63162e-06)
(1.56539 0.0424358 -3.75482e-06)
(1.55423 0.0428648 3.9773e-06)
(1.55124 0.0432016 -4.18666e-06)
(1.53773 0.0430381 2.30859e-06)
(1.00048 -0.0260916 2.12667e-06)
(1.01107 -0.0771448 -7.67164e-07)
(1.03226 -0.127123 -8.4214e-06)
(1.06445 -0.172849 -4.36589e-06)
(1.1065 -0.21386 -8.72115e-06)
(1.15791 -0.247178 -6.26412e-06)
(1.2163 -0.271046 -3.33144e-06)
(1.27911 -0.283938 4.80871e-06)
(1.34251 -0.284922 1.82201e-05)
(1.40223 -0.275415 2.8931e-05)
(1.45478 -0.258626 3.01189e-05)
(1.49863 -0.238401 2.14187e-05)
(1.53443 -0.217982 3.69976e-06)
(1.56414 -0.198984 -9.05697e-06)
(1.58958 -0.181603 -1.22134e-05)
(1.61174 -0.165537 -1.00044e-05)
(1.63098 -0.15056 -7.52992e-06)
(1.64751 -0.136535 -6.44647e-06)
(1.66159 -0.12333 -6.07281e-06)
(1.67342 -0.110822 -5.62142e-06)
(1.68316 -0.0989254 -5.13167e-06)
(1.69095 -0.0875961 -4.73123e-06)
(1.69696 -0.076808 -4.46837e-06)
(1.7013 -0.0665435 -4.17318e-06)
(1.70417 -0.0567852 -3.88286e-06)
(1.70565 -0.0475214 -3.505e-06)
(1.70595 -0.0387384 -3.15207e-06)
(1.70509 -0.0304251 -2.70446e-06)
(1.7033 -0.0225744 -2.27124e-06)
(1.70055 -0.0151646 -1.70808e-06)
(1.6971 -0.00820627 -1.25024e-06)
(1.69283 -0.00163054 -6.54495e-07)
(1.68806 0.00451108 -1.19268e-06)
(1.68249 0.0102156 -1.30899e-06)
(1.67668 0.015518 -1.71471e-06)
(1.67009 0.0204057 -1.23513e-06)
(1.66352 0.0249071 -1.67559e-06)
(1.65606 0.0289925 -8.87075e-07)
(1.64898 0.0327086 -1.66773e-06)
(1.64076 0.0360055 -3.98254e-07)
(1.63345 0.0389586 -1.77229e-06)
(1.6245 0.0414834 2.92555e-07)
(1.6173 0.0437026 -2.10806e-06)
(1.60756 0.0454746 1.26069e-06)
(1.60089 0.0470009 -2.82816e-06)
(1.59014 0.0480443 2.61967e-06)
(1.58465 0.0489397 -3.94505e-06)
(1.57237 0.0492846 4.0715e-06)
(1.56903 0.049649 -4.40645e-06)
(1.55429 0.0493283 2.36291e-06)
(1.0006 -0.0308484 2.77459e-06)
(1.0128 -0.09095 8.89318e-07)
(1.03762 -0.150675 -9.94115e-06)
(1.0754 -0.205009 -3.77339e-06)
(1.12527 -0.255025 -1.38343e-05)
(1.18738 -0.295373 -8.0059e-06)
(1.25837 -0.324366 -6.07501e-06)
(1.33557 -0.339138 8.38669e-06)
(1.41335 -0.337795 2.82564e-05)
(1.4854 -0.322523 3.8718e-05)
(1.54624 -0.298212 3.48906e-05)
(1.59388 -0.270793 1.76206e-05)
(1.63003 -0.244749 -6.41449e-06)
(1.65811 -0.221573 -2.0969e-05)
(1.68081 -0.20083 -2.21439e-05)
(1.69934 -0.181849 -1.72397e-05)
(1.71416 -0.164303 -1.32087e-05)
(1.72562 -0.147996 -1.14651e-05)
(1.73414 -0.132722 -1.02757e-05)
(1.74008 -0.118315 -8.80302e-06)
(1.74374 -0.104676 -7.44081e-06)
(1.74538 -0.0917621 -6.39196e-06)
(1.74529 -0.0795418 -5.62953e-06)
(1.74368 -0.0679938 -4.89351e-06)
(1.74083 -0.0570887 -4.24305e-06)
(1.73689 -0.0468127 -3.53086e-06)
(1.7321 -0.0371276 -2.91789e-06)
(1.72653 -0.0280347 -2.17247e-06)
(1.72042 -0.0194712 -1.51614e-06)
(1.71373 -0.0114819 -7.66929e-07)
(1.70676 -0.00392036 -2.2584e-07)
(1.69933 0.00309962 -5.82377e-07)
(1.69172 0.00961777 -1.45739e-06)
(1.68367 0.0156573 -1.36559e-06)
(1.67569 0.0212697 -1.57832e-06)
(1.66722 0.0264169 -1.05361e-06)
(1.65903 0.0311591 -1.48607e-06)
(1.65019 0.0354318 -7.29155e-07)
(1.64194 0.0393324 -1.49338e-06)
(1.63274 0.0427506 -2.83969e-07)
(1.62461 0.0458419 -1.61501e-06)
(1.61498 0.0484226 3.37681e-07)
(1.60722 0.0507424 -1.95907e-06)
(1.59703 0.0525016 1.22657e-06)
(1.59001 0.0540989 -2.66336e-06)
(1.57896 0.0550548 2.50608e-06)
(1.57325 0.0559979 -3.7644e-06)
(1.56079 0.0561756 3.91052e-06)
(1.55733 0.0565681 -4.31554e-06)
(1.54246 0.0560036 2.26991e-06)
(1.00073 -0.0363267 4.13097e-06)
(1.01465 -0.106923 3.27902e-06)
(1.04377 -0.178346 -1.02914e-05)
(1.08771 -0.242867 -3.67734e-06)
(1.14726 -0.304777 -2.26523e-05)
(1.22271 -0.353884 -1.19014e-05)
(1.30958 -0.389993 -1.3736e-05)
(1.40604 -0.407084 1.38693e-05)
(1.50328 -0.402334 4.71822e-05)
(1.59078 -0.378326 5.51159e-05)
(1.65856 -0.342165 3.22646e-05)
(1.70495 -0.303812 -7.68021e-06)
(1.73444 -0.269864 -3.84844e-05)
(1.7533 -0.241124 -4.53637e-05)
(1.76551 -0.215972 -3.46379e-05)
(1.7726 -0.193242 -2.1566e-05)
(1.77528 -0.172496 -1.439e-05)
(1.77428 -0.153438 -1.18642e-05)
(1.7704 -0.135771 -9.83448e-06)
(1.76426 -0.119289 -7.42092e-06)
(1.75637 -0.103885 -5.39794e-06)
(1.74714 -0.0894954 -3.95761e-06)
(1.73699 -0.0760651 -2.94772e-06)
(1.72621 -0.0635389 -2.07566e-06)
(1.71514 -0.0518626 -1.40443e-06)
(1.70391 -0.0409828 -7.65099e-07)
(1.69276 -0.0308469 -2.7739e-07)
(1.68173 -0.0214039 3.50026e-07)
(1.67097 -0.0126029 8.03974e-07)
(1.66044 -0.00438512 1.05405e-06)
(1.65032 0.00326443 4.12845e-08)
(1.64031 0.010286 -7.62928e-07)
(1.63075 0.0168229 -9.969e-07)
(1.62131 0.022873 -4.72901e-07)
(1.61234 0.0284921 -5.32379e-07)
(1.60331 0.0336243 -5.26752e-08)
(1.59484 0.0383604 -4.92148e-07)
(1.58607 0.0426038 1.34973e-07)
(1.57806 0.0464983 -6.22881e-07)
(1.56938 0.0498734 3.70972e-07)
(1.56183 0.0529628 -8.77194e-07)
(1.55307 0.055479 7.3349e-07)
(1.54607 0.0578042 -1.30588e-06)
(1.537 0.0594639 1.32228e-06)
(1.53078 0.0610768 -1.99741e-06)
(1.52106 0.0618799 2.25279e-06)
(1.51605 0.0628504 -3.00624e-06)
(1.50515 0.0628057 3.32186e-06)
(1.50214 0.0632307 -3.67192e-06)
(1.48915 0.0623738 1.87431e-06)
(1.00076 -0.0425032 6.9083e-06)
(1.01667 -0.125392 6.1688e-06)
(1.05041 -0.210519 -6.48933e-06)
(1.10084 -0.287503 -6.26743e-06)
(1.1726 -0.365349 -3.52746e-05)
(1.26353 -0.425125 -2.58421e-05)
(1.37056 -0.471731 -3.80004e-05)
(1.49337 -0.491645 8.16073e-06)
(1.61615 -0.481208 6.4533e-05)
(1.71861 -0.442947 8.39798e-05)
(1.7832 -0.387572 4.32582e-05)
(1.81286 -0.332171 -3.27535e-05)
(1.81846 -0.286397 -8.07654e-05)
(1.81169 -0.24964 -7.48519e-05)
(1.79844 -0.218587 -4.06713e-05)
(1.78065 -0.191402 -1.17788e-05)
(1.75944 -0.167311 -2.33131e-07)
(1.73611 -0.145696 2.4283e-06)
(1.71188 -0.126077 3.939e-06)
(1.68756 -0.108181 5.2e-06)
(1.66376 -0.0918517 5.63441e-06)
(1.64089 -0.0769594 5.50665e-06)
(1.61929 -0.0633705 5.18732e-06)
(1.59913 -0.0509551 4.89149e-06)
(1.58056 -0.0395907 4.51579e-06)
(1.56354 -0.0291602 4.14845e-06)
(1.54809 -0.0195634 3.70423e-06)
(1.53406 -0.0106973 3.41889e-06)
(1.52146 -0.00251037 2.63349e-06)
(1.50999 0.00510848 1.61653e-06)
(1.49966 0.0121005 6.10804e-07)
(1.49025 0.0186089 7.18124e-07)
(1.48181 0.0247018 1.00938e-06)
(1.47397 0.0303441 1.51698e-06)
(1.46693 0.0355997 1.3187e-06)
(1.46017 0.0404087 1.56586e-06)
(1.45414 0.0448734 1.03867e-06)
(1.44807 0.0488777 1.41762e-06)
(1.44276 0.0525841 6.41458e-07)
(1.43706 0.0557856 1.30214e-06)
(1.4323 0.058756 1.79117e-07)
(1.42667 0.0611402 1.2889e-06)
(1.42239 0.0634032 -3.48647e-07)
(1.41658 0.0649441 1.4257e-06)
(1.41282 0.0665432 -9.55322e-07)
(1.40653 0.0672073 1.75849e-06)
(1.40352 0.0682053 -1.6634e-06)
(1.39638 0.0679699 2.11892e-06)
(1.39459 0.0684451 -2.28531e-06)
(1.38604 0.0673457 9.43043e-07)
(1.00046 -0.0492767 1.19318e-05)
(1.0191 -0.146586 1.03148e-05)
(1.05627 -0.247002 6.48844e-06)
(1.11422 -0.340537 -1.16087e-05)
(1.19998 -0.438852 -4.32711e-05)
(1.30705 -0.512329 -6.00109e-05)
(1.44195 -0.576354 -8.47585e-05)
(1.60091 -0.600114 -1.33151e-05)
(1.74895 -0.573335 4.97354e-05)
(1.84749 -0.506355 9.66035e-05)
(1.87703 -0.419656 0.000108334)
(1.85679 -0.340222 2.14611e-05)
(1.8063 -0.278324 -6.7027e-05)
(1.74753 -0.231267 -6.85876e-05)
(1.68867 -0.193723 -1.81549e-05)
(1.6316 -0.163039 1.58885e-05)
(1.57735 -0.137546 2.54777e-05)
(1.52728 -0.115852 2.55422e-05)
(1.48222 -0.0970414 2.41718e-05)
(1.44235 -0.0806025 2.14262e-05)
(1.40756 -0.0661793 1.77602e-05)
(1.37756 -0.0534599 1.42888e-05)
(1.35199 -0.0421605 1.15209e-05)
(1.3304 -0.0320398 9.44801e-06)
(1.31234 -0.0228861 7.78066e-06)
(1.29734 -0.0145331 6.35518e-06)
(1.285 -0.00682766 5.00792e-06)
(1.2749 0.000317688 3.73868e-06)
(1.26673 0.00699465 2.96619e-06)
(1.26014 0.0132091 2.65073e-06)
(1.25496 0.0191095 2.53102e-06)
(1.25087 0.0247015 2.91662e-06)
(1.24779 0.0300041 2.9673e-06)
(1.24537 0.0349775 3.0419e-06)
(1.24369 0.0396748 2.60001e-06)
(1.24231 0.0440326 2.58831e-06)
(1.24151 0.0481325 2.00797e-06)
(1.24072 0.0518557 2.15884e-06)
(1.24045 0.0553423 1.43132e-06)
(1.23989 0.0583881 1.79992e-06)
(1.2399 0.0612451 8.77759e-07)
(1.2393 0.0635612 1.52212e-06)
(1.23942 0.0657878 3.9163e-07)
(1.23856 0.0673118 1.28187e-06)
(1.23872 0.0689312 3.71643e-08)
(1.23746 0.0695879 9.45584e-07)
(1.23762 0.0706508 -2.96342e-08)
(1.23591 0.0703719 2.30351e-07)
(1.23606 0.0709345 -1.00667e-07)
(1.23396 0.0697587 -8.35581e-07)
(0.999762 -0.0565076 1.89984e-05)
(1.02181 -0.169999 2.07138e-05)
(1.05903 -0.286941 3.27752e-05)
(1.1269 -0.403502 -1.14702e-05)
(1.22307 -0.525472 -2.48946e-05)
(1.34849 -0.622091 -0.000110218)
(1.52431 -0.715685 -0.000123054)
(1.7236 -0.73706 -3.71394e-05)
(1.86606 -0.664098 1.8586e-05)
(1.89312 -0.533958 4.26464e-05)
(1.81759 -0.39692 0.000152237)
(1.69423 -0.291369 0.00011624)
(1.5443 -0.21465 1.00803e-05)
(1.41332 -0.161892 -1.63105e-05)
(1.30577 -0.124127 1.81396e-05)
(1.21865 -0.0978232 2.69623e-05)
(1.14922 -0.0793034 1.79363e-05)
(1.09539 -0.0655494 1.20285e-05)
(1.05444 -0.0547097 1.06816e-05)
(1.02358 -0.0457317 9.68161e-06)
(1.00054 -0.0379433 8.359e-06)
(0.983547 -0.030913 7.16655e-06)
(0.971272 -0.0243798 6.13833e-06)
(0.962672 -0.0181949 5.21136e-06)
(0.956981 -0.0122668 4.24929e-06)
(0.953584 -0.00654512 3.27685e-06)
(0.952047 -0.000992287 2.21989e-06)
(0.951968 0.00440703 1.50682e-06)
(0.953099 0.00970797 1.25736e-06)
(0.955198 0.014849 1.66623e-06)
(0.958133 0.019874 2.05055e-06)
(0.961676 0.0247447 2.32015e-06)
(0.965771 0.0294591 2.18485e-06)
(0.970196 0.033975 2.15399e-06)
(0.974989 0.038317 1.84528e-06)
(0.979891 0.0424206 1.88425e-06)
(0.985048 0.0463319 1.51301e-06)
(0.990119 0.0499485 1.6592e-06)
(0.995384 0.0533644 1.16956e-06)
(1.00038 0.0564151 1.43645e-06)
(1.00555 0.059283 8.28132e-07)
(1.01029 0.06169 1.20309e-06)
(1.01521 0.0639798 5.77233e-07)
(1.01957 0.0656586 8.40522e-07)
(1.02405 0.0673706 6.32548e-07)
(1.02808 0.0682146 8.45179e-09)
(1.03185 0.0693879 1.48597e-06)
(1.03586 0.0692735 -2.03784e-06)
(1.03833 0.0699588 2.83179e-06)
(1.04324 0.0689103 -3.79022e-06)
(0.999092 -0.0639261 2.61597e-05)
(1.02308 -0.193576 4.16579e-05)
(1.05679 -0.329067 6.50757e-05)
(1.13379 -0.474155 1.25715e-05)
(1.22898 -0.623097 3.40769e-05)
(1.38463 -0.765006 -0.000178922)
(1.60589 -0.894436 -7.15761e-05)
(1.80705 -0.870197 -0.000131133)
(1.85803 -0.779082 5.15175e-05)
(1.7471 -0.533688 -0.000145849)
(1.4974 -0.305243 -0.000106457)
(1.21718 -0.163119 -5.53475e-05)
(0.797952 -0.0532288 -3.61387e-05)
(0.689237 -0.0376893 -3.00181e-05)
(0.630799 -0.0346185 2.69341e-05)
(0.599751 -0.03747 3.5254e-05)
(0.58573 -0.0402821 2.59453e-05)
(0.581656 -0.0410437 1.83963e-05)
(0.582647 -0.0397984 1.19613e-05)
(0.586052 -0.037118 6.36179e-06)
(0.590715 -0.0334873 2.67292e-06)
(0.596151 -0.029257 7.33234e-07)
(0.602154 -0.0246699 -1.76989e-07)
(0.60862 -0.0198868 -4.38786e-07)
(0.615509 -0.0150055 -3.97774e-07)
(0.622774 -0.0100899 -1.25981e-07)
(0.630414 -0.00517861 2.7023e-07)
(0.638391 -0.000281282 3.70438e-07)
(0.646653 0.00458877 -3.87812e-07)
(0.655122 0.00942667 -3.15846e-07)
(0.663861 0.0141915 -4.09176e-08)
(0.672779 0.0188464 2.39882e-07)
(0.681877 0.023393 3.25106e-07)
(0.691062 0.0277988 5.14173e-07)
(0.700369 0.032069 5.06493e-07)
(0.709667 0.0361507 6.93693e-07)
(0.719037 0.0400639 5.86167e-07)
(0.728298 0.0437339 7.95113e-07)
(0.737592 0.0472112 5.69549e-07)
(0.746673 0.0503846 8.14932e-07)
(0.755754 0.0533589 4.99091e-07)
(0.764536 0.0559564 7.45917e-07)
(0.773248 0.0583782 4.84469e-07)