0 	0 	0 	0
1.57135 	-0.00303158 	0.00303703 	0
3.1427 	-0.00626199 	0.00667029 	0
4.71405 	-0.0093453 	0.010967 	0
6.28539 	-0.0122703 	0.0174219 	0
7.85674 	-0.0129706 	0.0321221 	0
9.42809 	0.0251645 	0.0486528 	0
10.9994 	0.0356435 	0.00450268 	0
12.5708 	0.014236 	-0.00101343 	0
14.1421 	0.5 	0 	0
