/*--------------------------------*- C++ -*----------------------------------*\
  =========                 |
  \\      /  F ield         | OpenFOAM: The Open Source CFD Toolbox
   \\    /   O peration     | Website:  https://openfoam.org
    \\  /    A nd           | Version:  8
     \\/     M anipulation  |
\*---------------------------------------------------------------------------*/
FoamFile
{
    version     2.0;
    format      ascii;
    class       surfaceScalarField;
    location    "6";
    object      phi;
}
// * * * * * * * * * * * * * * * * * * * * * * * * * * * * * * * * * * * * * //

dimensions      [0 3 -1 0 0 0 0];

internalField   nonuniform List<scalar> 
22960
(
-2.73802e-07
2.73762e-07
-6.40717e-07
3.66915e-07
-1.01613e-06
3.75409e-07
-1.39119e-06
3.75061e-07
-1.7649e-06
3.73718e-07
-2.13691e-06
3.72007e-07
-2.50687e-06
3.69956e-07
-2.87443e-06
3.67562e-07
-3.23925e-06
3.64823e-07
-3.60099e-06
3.61741e-07
-3.95931e-06
3.5832e-07
-4.31388e-06
3.54565e-07
-4.66436e-06
3.50479e-07
-5.01043e-06
3.46069e-07
-5.35177e-06
3.41341e-07
-5.68807e-06
3.36301e-07
-6.01903e-06
3.30957e-07
-6.34434e-06
3.25316e-07
-6.66373e-06
3.19386e-07
-6.9769e-06
3.13175e-07
-7.2836e-06
3.06693e-07
-7.58355e-06
2.9995e-07
-7.8765e-06
2.92955e-07
-8.16222e-06
2.8572e-07
-8.44048e-06
2.78256e-07
-8.71105e-06
2.70575e-07
-8.97374e-06
2.6269e-07
-9.22836e-06
2.54617e-07
-9.47473e-06
2.46369e-07
-9.71269e-06
2.37964e-07
-9.94211e-06
2.29418e-07
-1.01629e-05
2.20752e-07
-1.03749e-05
2.11988e-07
-1.0578e-05
2.03149e-07
-1.07723e-05
1.94262e-07
-1.09576e-05
1.85358e-07
-1.11341e-05
1.76472e-07
-1.13017e-05
1.67643e-07
-1.14607e-05
1.58921e-07
-1.1611e-05
1.5036e-07
-1.1753e-05
1.42029e-07
-1.18871e-05
1.3401e-07
-1.20135e-05
1.26406e-07
-1.21328e-05
1.19344e-07
-1.22458e-05
1.12989e-07
-1.23534e-05
1.07556e-07
-1.24567e-05
1.03327e-07
-1.25574e-05
1.0069e-07
-1.26575e-05
1.00182e-07
-1.27601e-05
1.02569e-07
-1.28691e-05
1.08977e-07
-1.29902e-05
1.21117e-07
-1.31319e-05
1.41701e-07
-1.33071e-05
1.75191e-07
-1.35364e-05
2.29321e-07
-1.38554e-05
3.18939e-07
-1.43235e-05
4.68168e-07
-1.50209e-05
6.97409e-07
-1.643e-05
1.40907e-06
2.62692e-06
-1.90569e-05
-3.67606e-07
6.41368e-07
-8.44649e-07
8.43958e-07
-1.33217e-06
8.62927e-07
-1.81934e-06
8.62232e-07
-2.30486e-06
8.59237e-07
-2.78818e-06
8.55332e-07
-3.26884e-06
8.5061e-07
-3.74636e-06
8.45081e-07
-4.22029e-06
8.38752e-07
-4.69017e-06
8.31629e-07
-5.15558e-06
8.23723e-07
-5.61606e-06
8.15045e-07
-6.07118e-06
8.05606e-07
-6.52054e-06
7.9542e-07
-6.96369e-06
7.845e-07
-7.40026e-06
7.72863e-07
-7.82982e-06
7.60524e-07
-8.25201e-06
7.47501e-07
-8.66643e-06
7.33813e-07
-9.07274e-06
7.1948e-07
-9.47057e-06
7.04522e-07
-9.85958e-06
6.88964e-07
-1.02395e-05
6.72827e-07
-1.06099e-05
6.56138e-07
-1.09705e-05
6.38923e-07
-1.13212e-05
6.21211e-07
-1.16615e-05
6.03032e-07
-1.19913e-05
5.84418e-07
-1.23104e-05
5.65406e-07
-1.26184e-05
5.46032e-07
-1.29153e-05
5.26337e-07
-1.3201e-05
5.06367e-07
-1.34751e-05
4.86172e-07
-1.37378e-05
4.65805e-07
-1.39889e-05
4.45329e-07
-1.42283e-05
4.24813e-07
-1.44562e-05
4.04338e-07
-1.46725e-05
3.83994e-07
-1.48775e-05
3.63891e-07
-1.50713e-05
3.44154e-07
-1.52542e-05
3.24938e-07
-1.54266e-05
3.06428e-07
-1.55891e-05
2.88854e-07
-1.57422e-05
2.72505e-07
-1.5887e-05
2.57745e-07
-1.60245e-05
2.45051e-07
-1.61562e-05
2.3505e-07
-1.62841e-05
2.28587e-07
-1.64108e-05
2.2683e-07
-1.65396e-05
2.31424e-07
-1.66754e-05
2.44745e-07
-1.68246e-05
2.70334e-07
-1.69965e-05
3.13641e-07
-1.72047e-05
3.83309e-07
-1.74689e-05
4.93602e-07
-1.78198e-05
6.69832e-07
-1.83033e-05
9.51615e-07
-1.89854e-05
1.37958e-06
-1.99341e-05
2.35769e-06
3.30228e-06
-2.06094e-05
-3.77426e-07
1.01879e-06
-8.66674e-07
1.33321e-06
-1.36641e-06
1.36266e-06
-1.86566e-06
1.36149e-06
-2.36317e-06
1.35675e-06
-2.85842e-06
1.35058e-06
-3.35092e-06
1.34311e-06
-3.84021e-06
1.33436e-06
-4.3258e-06
1.32435e-06
-4.80725e-06
1.31308e-06
-5.28409e-06
1.30057e-06
-5.75588e-06
1.28683e-06
-6.22217e-06
1.2719e-06
-6.68253e-06
1.25578e-06
-7.13654e-06
1.23851e-06
-7.58378e-06
1.2201e-06
-8.02383e-06
1.20058e-06
-8.45631e-06
1.17998e-06
-8.88082e-06
1.15833e-06
-9.297e-06
1.13566e-06
-9.70448e-06
1.112e-06
-1.01029e-05
1.08739e-06
-1.04919e-05
1.06187e-06
-1.08713e-05
1.03548e-06
-1.12406e-05
1.00825e-06
-1.15996e-05
9.8024e-07
-1.19481e-05
9.51491e-07
-1.22857e-05
9.22055e-07
-1.26123e-05
8.91986e-07
-1.29276e-05
8.61345e-07
-1.32315e-05
8.30195e-07
-1.35237e-05
7.98607e-07
-1.38042e-05
7.66657e-07
-1.40728e-05
7.34432e-07
-1.43295e-05
7.02027e-07
-1.45743e-05
6.6955e-07
-1.48071e-05
6.37124e-07
-1.5028e-05
6.0489e-07
-1.52371e-05
5.73013e-07
-1.54346e-05
5.41688e-07
-1.56208e-05
5.11147e-07
-1.57961e-05
4.81671e-07
-1.59608e-05
4.53606e-07
-1.61157e-05
4.2738e-07
-1.62615e-05
4.03534e-07
-1.63992e-05
3.82764e-07
-1.65301e-05
3.65976e-07
-1.66559e-05
3.54372e-07
-1.67787e-05
3.49576e-07
-1.69011e-05
3.53824e-07
-1.70266e-05
3.70249e-07
-1.71595e-05
4.03326e-07
-1.73055e-05
4.59595e-07
-1.7471e-05
5.48765e-07
-1.76629e-05
6.85508e-07
-1.78855e-05
8.92501e-07
-1.81362e-05
1.20228e-06
-1.84139e-05
1.65724e-06
-1.853e-05
2.47383e-06
3.24204e-06
-1.84698e-05
-3.79037e-07
1.39783e-06
-8.70518e-07
1.82469e-06
-1.37241e-06
1.86455e-06
-1.87382e-06
1.86289e-06
-2.37348e-06
1.85641e-06
-2.87085e-06
1.84795e-06
-3.36546e-06
1.83772e-06
-3.85684e-06
1.82574e-06
-4.3445e-06
1.81201e-06
-4.828e-06
1.79657e-06
-5.30686e-06
1.77943e-06
-5.78065e-06
1.76062e-06
-6.24891e-06
1.74016e-06
-6.7112e-06
1.71808e-06
-7.1671e-06
1.69441e-06
-7.6162e-06
1.66919e-06
-8.05807e-06
1.64245e-06
-8.49232e-06
1.61423e-06
-8.91856e-06
1.58457e-06
-9.33641e-06
1.55351e-06
-9.74552e-06
1.5211e-06
-1.01455e-05
1.48739e-06
-1.05361e-05
1.45243e-06
-1.09169e-05
1.41627e-06
-1.12876e-05
1.37898e-06
-1.1648e-05
1.3406e-06
-1.19977e-05
1.30121e-06
-1.23365e-05
1.26088e-06
-1.26642e-05
1.21967e-06
-1.29805e-05
1.17768e-06
-1.32853e-05
1.13498e-06
-1.35784e-05
1.09168e-06
-1.38596e-05
1.04787e-06
-1.41288e-05
1.00367e-06
-1.4386e-05
9.59207e-07
-1.46311e-05
9.14625e-07
-1.48641e-05
8.70085e-07
-1.50849e-05
8.25773e-07
-1.52938e-05
7.81907e-07
-1.54909e-05
7.38738e-07
-1.56763e-05
6.96569e-07
-1.58504e-05
6.55759e-07
-1.60135e-05
6.16747e-07
-1.61662e-05
5.80075e-07
-1.63091e-05
5.46417e-07
-1.6443e-05
5.16627e-07
-1.65688e-05
4.91801e-07
-1.66878e-05
4.73365e-07
-1.68014e-05
4.63201e-07
-1.69114e-05
4.63827e-07
-1.70198e-05
4.78658e-07
-1.71289e-05
5.12376e-07
-1.72408e-05
5.71472e-07
-1.7357e-05
6.65e-07
-1.74771e-05
8.05617e-07
-1.75954e-05
1.01083e-06
-1.76963e-05
1.30312e-06
-1.77512e-05
1.7122e-06
-1.75925e-05
2.31515e-06
2.90692e-06
-1.72574e-05
-3.80363e-07
1.77819e-06
-8.73697e-07
2.31802e-06
-1.37744e-06
2.3683e-06
-1.8807e-06
2.36614e-06
-2.38218e-06
2.35789e-06
-2.88138e-06
2.34715e-06
-3.37779e-06
2.33414e-06
-3.87096e-06
2.3189e-06
-4.36039e-06
2.30145e-06
-4.84563e-06
2.28181e-06
-5.32622e-06
2.26002e-06
-5.8017e-06
2.2361e-06
-6.27162e-06
2.21008e-06
-6.73555e-06
2.18201e-06
-7.19305e-06
2.15191e-06
-7.64371e-06
2.11984e-06
-8.0871e-06
2.08584e-06
-8.52283e-06
2.04996e-06
-8.95051e-06
2.01225e-06
-9.36976e-06
1.97276e-06
-9.78021e-06
1.93155e-06
-1.01815e-05
1.88869e-06
-1.05733e-05
1.84423e-06
-1.09553e-05
1.79825e-06
-1.13271e-05
1.75081e-06
-1.16885e-05
1.70201e-06
-1.20392e-05
1.65191e-06
-1.23789e-05
1.6006e-06
-1.27074e-05
1.54818e-06
-1.30245e-05
1.49475e-06
-1.33299e-05
1.44041e-06
-1.36235e-05
1.38528e-06
-1.39052e-05
1.3295e-06
-1.41747e-05
1.27319e-06
-1.4432e-05
1.21653e-06
-1.46771e-05
1.15967e-06
-1.49098e-05
1.10283e-06
-1.51302e-05
1.04622e-06
-1.53384e-05
9.90107e-07
-1.55345e-05
9.34788e-07
-1.57186e-05
8.80621e-07
-1.58908e-05
8.28028e-07
-1.60516e-05
7.77516e-07
-1.62012e-05
7.29705e-07
-1.63402e-05
6.85356e-07
-1.64689e-05
6.45415e-07
-1.65882e-05
6.11078e-07
-1.66987e-05
5.83861e-07
-1.68012e-05
5.65716e-07
-1.68966e-05
5.5917e-07
-1.69854e-05
5.67525e-07
-1.70682e-05
5.95104e-07
-1.71443e-05
6.47571e-07
-1.72116e-05
7.32298e-07
-1.72647e-05
8.58714e-07
-1.72922e-05
1.0384e-06
-1.72734e-05
1.2843e-06
-1.71713e-05
1.6101e-06
-1.68869e-05
2.03077e-06
2.46847e-06
-1.64485e-05
-3.8204e-07
2.16023e-06
-8.77626e-07
2.81361e-06
-1.38366e-06
2.87434e-06
-1.88919e-06
2.87168e-06
-2.39295e-06
2.86165e-06
-2.8944e-06
2.84859e-06
-3.39305e-06
2.83279e-06
-3.88842e-06
2.81427e-06
-4.38004e-06
2.79307e-06
-4.86744e-06
2.76921e-06
-5.35016e-06
2.74274e-06
-5.82773e-06
2.71367e-06
-6.29972e-06
2.68206e-06
-6.76567e-06
2.64795e-06
-7.22515e-06
2.61139e-06
-7.67773e-06
2.57243e-06
-8.12301e-06
2.53112e-06
-8.56058e-06
2.48753e-06
-8.99003e-06
2.44171e-06
-9.411e-06
2.39373e-06
-9.82311e-06
2.34366e-06
-1.0226e-05
2.29157e-06
-1.06193e-05
2.23755e-06
-1.10027e-05
2.18167e-06
-1.1376e-05
2.12403e-06
-1.17387e-05
2.06471e-06
-1.20906e-05
2.00381e-06
-1.24314e-05
1.94143e-06
-1.27609e-05
1.8777e-06
-1.30789e-05
1.81272e-06
-1.33851e-05
1.74662e-06
-1.36794e-05
1.67955e-06
-1.39615e-05
1.61164e-06
-1.42314e-05
1.54308e-06
-1.44889e-05
1.47403e-06
-1.47339e-05
1.40471e-06
-1.49664e-05
1.33533e-06
-1.51864e-05
1.26616e-06
-1.53937e-05
1.19749e-06
-1.55886e-05
1.12967e-06
-1.57711e-05
1.06307e-06
-1.59412e-05
9.98177e-07
-1.60992e-05
9.35534e-07
-1.62453e-05
8.75806e-07
-1.63798e-05
8.19796e-07
-1.65029e-05
7.68483e-07
-1.66149e-05
7.23078e-07
-1.67161e-05
6.85079e-07
-1.68067e-05
6.56359e-07
-1.68868e-05
6.39261e-07
-1.6956e-05
6.36721e-07
-1.70133e-05
6.52401e-07
-1.70565e-05
6.90814e-07
-1.70816e-05
7.57403e-07
-1.70814e-05
8.58461e-07
-1.70437e-05
1.00069e-06
-1.69494e-05
1.19003e-06
-1.67691e-05
1.42977e-06
-1.64545e-05
1.71618e-06
2.01101e-06
-1.5997e-05
-3.841e-07
2.54433e-06
-8.82405e-07
3.31191e-06
-1.39121e-06
3.38314e-06
-1.89951e-06
3.37998e-06
-2.40602e-06
3.36816e-06
-2.9102e-06
3.35277e-06
-3.41156e-06
3.33415e-06
-3.90961e-06
3.31233e-06
-4.40389e-06
3.28735e-06
-4.89391e-06
3.25924e-06
-5.37921e-06
3.22804e-06
-5.85933e-06
3.19379e-06
-6.33381e-06
3.15655e-06
-6.80221e-06
3.11635e-06
-7.26409e-06
3.07327e-06
-7.71903e-06
3.02736e-06
-8.16659e-06
2.97869e-06
-8.60638e-06
2.92732e-06
-9.038e-06
2.87332e-06
-9.46105e-06
2.81678e-06
-9.87517e-06
2.75778e-06
-1.028e-05
2.69639e-06
-1.06752e-05
2.63272e-06
-1.10604e-05
2.56686e-06
-1.14352e-05
2.49891e-06
-1.17995e-05
2.42898e-06
-1.21529e-05
2.35718e-06
-1.24951e-05
2.28363e-06
-1.28259e-05
2.20846e-06
-1.31449e-05
2.1318e-06
-1.34521e-05
2.05381e-06
-1.37472e-05
1.97463e-06
-1.403e-05
1.89445e-06
-1.43004e-05
1.81344e-06
-1.45582e-05
1.73181e-06
-1.48032e-05
1.64978e-06
-1.50355e-05
1.56762e-06
-1.52549e-05
1.48559e-06
-1.54615e-05
1.40403e-06
-1.56551e-05
1.32329e-06
-1.58358e-05
1.24379e-06
-1.60037e-05
1.16604e-06
-1.61587e-05
1.09059e-06
-1.6301e-05
1.01813e-06
-1.64307e-05
9.49455e-07
-1.65478e-05
8.85538e-07
-1.66522e-05
8.27537e-07
-1.6744e-05
7.7685e-07
-1.68228e-05
7.35172e-07
-1.68881e-05
7.04545e-07
-1.69388e-05
6.87415e-07
-1.69731e-05
6.86674e-07
-1.69879e-05
7.05652e-07
-1.69785e-05
7.48024e-07
-1.69376e-05
8.17526e-07
-1.68542e-05
9.17352e-07
-1.67132e-05
1.049e-06
-1.64939e-05
1.21047e-06
-1.61701e-05
1.39234e-06
1.57152e-06
-1.57306e-05
-3.86538e-07
2.93087e-06
-8.8804e-07
3.81341e-06
-1.40011e-06
3.89521e-06
-1.91167e-06
3.89153e-06
-2.42142e-06
3.87791e-06
-2.92881e-06
3.86017e-06
-3.43337e-06
3.8387e-06
-3.93459e-06
3.81355e-06
-4.43199e-06
3.78475e-06
-4.9251e-06
3.75235e-06
-5.41345e-06
3.71638e-06
-5.89656e-06
3.67691e-06
-6.37399e-06
3.63397e-06
-6.84528e-06
3.58764e-06
-7.30999e-06
3.53798e-06
-7.76768e-06
3.48506e-06
-8.21794e-06
3.42895e-06
-8.66036e-06
3.36973e-06
-9.09452e-06
3.30748e-06
-9.52003e-06
3.2423e-06
-9.93653e-06
3.17427e-06
-1.03436e-05
3.1035e-06
-1.0741e-05
3.03009e-06
-1.11283e-05
2.95414e-06
-1.15051e-05
2.87578e-06
-1.18713e-05
2.79513e-06
-1.22264e-05
2.7123e-06
-1.25702e-05
2.62745e-06
-1.29025e-05
2.5407e-06
-1.32229e-05
2.45223e-06
-1.35313e-05
2.36218e-06
-1.38274e-05
2.27073e-06
-1.4111e-05
2.17807e-06
-1.4382e-05
2.08441e-06
-1.46401e-05
1.98997e-06
-1.48853e-05
1.89499e-06
-1.51175e-05
1.79975e-06
-1.53364e-05
1.70454e-06
-1.55421e-05
1.60971e-06
-1.57345e-05
1.51564e-06
-1.59134e-05
1.42275e-06
-1.60789e-05
1.33155e-06
-1.62309e-05
1.24261e-06
-1.63694e-05
1.1566e-06
-1.64942e-05
1.07429e-06
-1.66053e-05
9.96591e-07
-1.67023e-05
9.24574e-07
-1.6785e-05
8.59488e-07
-1.68526e-05
8.02793e-07
-1.69042e-05
7.56182e-07
-1.69384e-05
7.21584e-07
-1.69529e-05
7.01145e-07
-1.69444e-05
6.97145e-07
-1.69082e-05
7.1182e-07
-1.68377e-05
7.47032e-07
-1.6724e-05
8.0368e-07
-1.65558e-05
8.80776e-07
-1.63193e-05
9.74029e-07
-1.60009e-05
1.07387e-06
1.16435e-06
-1.55937e-05
-3.89354e-07
3.32022e-06
-8.9454e-07
4.3186e-06
-1.41037e-06
4.41104e-06
-1.92568e-06
4.40685e-06
-2.43917e-06
4.39139e-06
-2.95027e-06
4.37128e-06
-3.45851e-06
4.34693e-06
-3.96337e-06
4.31841e-06
-4.46438e-06
4.28576e-06
-4.96105e-06
4.24902e-06
-5.45291e-06
4.20824e-06
-5.93948e-06
4.16348e-06
-6.4203e-06
4.1148e-06
-6.89492e-06
4.06226e-06
-7.36289e-06
4.00595e-06
-7.82377e-06
3.94594e-06
-8.27714e-06
3.88232e-06
-8.72258e-06
3.81516e-06
-9.15967e-06
3.74458e-06
-9.58803e-06
3.67066e-06
-1.00073e-05
3.59351e-06
-1.0417e-05
3.51325e-06
-1.08169e-05
3.42998e-06
-1.12066e-05
3.34384e-06
-1.15858e-05
3.25494e-06
-1.19541e-05
3.16344e-06
-1.23112e-05
3.06945e-06
-1.26569e-05
2.97315e-06
-1.29909e-05
2.87468e-06
-1.33129e-05
2.77422e-06
-1.36227e-05
2.67193e-06
-1.392e-05
2.56803e-06
-1.42046e-05
2.46269e-06
-1.44763e-05
2.35616e-06
-1.4735e-05
2.24866e-06
-1.49805e-05
2.14046e-06
-1.52126e-05
2.03184e-06
-1.54311e-05
1.92311e-06
-1.56361e-05
1.81463e-06
-1.58272e-05
1.70678e-06
-1.60044e-05
1.59999e-06
-1.61677e-05
1.49477e-06
-1.63167e-05
1.39167e-06
-1.64514e-05
1.29132e-06
-1.65716e-05
1.19445e-06
-1.66769e-05
1.1019e-06
-1.67669e-05
1.0146e-06
-1.68411e-05
9.3365e-07
-1.68986e-05
8.60247e-07
-1.69381e-05
7.95735e-07
-1.69581e-05
7.41563e-07
-1.69562e-05
6.99223e-07
-1.69292e-05
6.70144e-07
-1.68728e-05
6.55492e-07
-1.67817e-05
6.55859e-07
-1.66488e-05
6.70781e-07
-1.64661e-05
6.9807e-07
-1.62248e-05
7.32775e-07
-1.5918e-05
7.67024e-07
7.88757e-07
-1.55424e-05
-3.9255e-07
3.71277e-06
-9.01913e-07
4.82796e-06
-1.42201e-06
4.93114e-06
-1.94158e-06
4.92641e-06
-2.4593e-06
4.90911e-06
-2.97461e-06
4.88659e-06
-3.48701e-06
4.85934e-06
-3.99601e-06
4.82741e-06
-4.50111e-06
4.79086e-06
-5.00182e-06
4.74973e-06
-5.49765e-06
4.70407e-06
-5.98814e-06
4.65396e-06
-6.47281e-06
4.59947e-06
-6.95121e-06
4.54066e-06
-7.42288e-06
4.47762e-06
-7.88738e-06
4.41044e-06
-8.34427e-06
4.33921e-06
-8.79314e-06
4.26403e-06
-9.23356e-06
4.185e-06
-9.66515e-06
4.10224e-06
-1.00875e-05
4.01587e-06
-1.05003e-05
3.92599e-06
-1.0903e-05
3.83275e-06
-1.12955e-05
3.73628e-06
-1.16772e-05
3.63672e-06
-1.2048e-05
3.53422e-06
-1.24075e-05
3.42893e-06
-1.27554e-05
3.32101e-06
-1.30913e-05
3.21065e-06
-1.34151e-05
3.09802e-06
-1.37265e-05
2.98332e-06
-1.40252e-05
2.86674e-06
-1.43111e-05
2.74851e-06
-1.45838e-05
2.62887e-06
-1.48432e-05
2.50805e-06
-1.5089e-05
2.38634e-06
-1.53212e-05
2.26402e-06
-1.55395e-05
2.14143e-06
-1.57438e-05
2.0189e-06
-1.59339e-05
1.89683e-06
-1.61095e-05
1.77566e-06
-1.62706e-05
1.65585e-06
-1.64169e-05
1.53793e-06
-1.65481e-05
1.42251e-06
-1.66639e-05
1.31025e-06
-1.67639e-05
1.20189e-06
-1.68475e-05
1.09824e-06
-1.69141e-05
1.00021e-06
-1.69626e-05
9.08771e-07
-1.69918e-05
8.24937e-07
-1.7e-05
7.49743e-07
-1.69849e-05
6.84153e-07
-1.69437e-05
6.28951e-07
-1.68728e-05
5.84556e-07
-1.67677e-05
5.50768e-07
-1.66233e-05
5.26402e-07
-1.6434e-05
5.08812e-07
-1.61947e-05
4.93449e-07
-1.59016e-05
4.73899e-07
4.41105e-07
-1.55539e-05
-3.96129e-07
4.1089e-06
-9.10168e-07
5.342e-06
-1.43504e-06
5.45601e-06
-1.95937e-06
5.45075e-06
-2.48183e-06
5.43157e-06
-3.00185e-06
5.40661e-06
-3.51893e-06
5.37641e-06
-4.03255e-06
5.34104e-06
-4.54222e-06
5.30053e-06
-5.04745e-06
5.25495e-06
-5.54774e-06
5.20436e-06
-6.04261e-06
5.14884e-06
-6.5316e-06
5.08845e-06
-7.01422e-06
5.02328e-06
-7.49003e-06
4.95343e-06
-7.95858e-06
4.87899e-06
-8.41942e-06
4.80005e-06
-8.87213e-06
4.71674e-06
-9.31629e-06
4.62916e-06
-9.7515e-06
4.53745e-06
-1.01773e-05
4.44172e-06
-1.05935e-05
4.3421e-06
-1.09995e-05
4.23875e-06
-1.1395e-05
4.13181e-06
-1.17797e-05
4.02143e-06
-1.21533e-05
3.90778e-06
-1.25154e-05
3.79102e-06
-1.28657e-05
3.67133e-06
-1.32039e-05
3.54889e-06
-1.35298e-05
3.4239e-06
-1.3843e-05
3.29657e-06
-1.41434e-05
3.16711e-06
-1.44306e-05
3.03575e-06
-1.47045e-05
2.90274e-06
-1.49648e-05
2.76833e-06
-1.52113e-05
2.63281e-06
-1.54437e-05
2.49648e-06
-1.5662e-05
2.35966e-06
-1.58658e-05
2.2227e-06
-1.60549e-05
2.08599e-06
-1.62292e-05
1.94993e-06
-1.63883e-05
1.815e-06
-1.65321e-05
1.68168e-06
-1.66601e-05
1.55053e-06
-1.6772e-05
1.42213e-06
-1.68672e-05
1.29714e-06
-1.69452e-05
1.17624e-06
-1.70052e-05
1.06017e-06
-1.70461e-05
9.49681e-07
-1.70667e-05
8.45523e-07
-1.70653e-05
7.48386e-07
-1.704e-05
6.58832e-07
-1.69882e-05
5.77183e-07
-1.6907e-05
5.03374e-07
-1.6793e-05
4.36751e-07
-1.66424e-05
3.75821e-07
-1.64515e-05
3.17906e-07
-1.62174e-05
2.59273e-07
-1.59381e-05
1.94589e-07
1.17244e-07
-1.56142e-05
-4.00096e-07
4.509e-06
-9.19317e-07
5.86122e-06
-1.44948e-06
5.98617e-06
-1.97909e-06
5.98036e-06
-2.5068e-06
5.95928e-06
-3.03204e-06
5.93185e-06
-3.55429e-06
5.89866e-06
-4.07304e-06
5.85979e-06
-4.58779e-06
5.81527e-06
-5.09802e-06
5.76518e-06
-5.60325e-06
5.70959e-06
-6.10298e-06
5.64857e-06
-6.59674e-06
5.58221e-06
-7.08405e-06
5.5106e-06
-7.56445e-06
5.43383e-06
-8.03748e-06
5.35202e-06
-8.5027e-06
5.26527e-06
-8.95967e-06
5.17371e-06
-9.40798e-06
5.07747e-06
-9.84719e-06
4.97666e-06
-1.02769e-05
4.87144e-06
-1.06968e-05
4.76195e-06
-1.11064e-05
4.64835e-06
-1.15053e-05
4.53078e-06
-1.18933e-05
4.40942e-06
-1.227e-05
4.28445e-06
-1.2635e-05
4.15604e-06
-1.29881e-05
4.02438e-06
-1.33288e-05
3.88967e-06
-1.36571e-05
3.75212e-06
-1.39724e-05
3.61194e-06
-1.42747e-05
3.46937e-06
-1.45636e-05
3.32464e-06
-1.48388e-05
3.178e-06
-1.51002e-05
3.02972e-06
-1.53475e-05
2.88009e-06
-1.55805e-05
2.72942e-06
-1.57988e-05
2.57802e-06
-1.60024e-05
2.42624e-06
-1.61908e-05
2.27446e-06
-1.6364e-05
2.12308e-06
-1.65215e-05
1.97252e-06
-1.66631e-05
1.82325e-06
-1.67883e-05
1.67576e-06
-1.68968e-05
1.53058e-06
-1.69879e-05
1.38827e-06
-1.70611e-05
1.24939e-06
-1.71154e-05
1.11454e-06
-1.715e-05
9.84275e-07
-1.71636e-05
8.5913e-07
-1.71548e-05
7.3953e-07
-1.71217e-05
6.25744e-07
-1.70623e-05
5.17786e-07
-1.69742e-05
4.15298e-07
-1.68549e-05
3.1741e-07
-1.67016e-05
2.2255e-07
-1.65121e-05
1.28368e-07
-1.62846e-05
3.18267e-08
-1.60184e-05
-7.16682e-08
-1.86798e-07
-1.57143e-05
-4.04456e-07
4.91345e-06
-9.29372e-07
6.38614e-06
-1.46535e-06
6.52215e-06
-2.00076e-06
6.51577e-06
-2.53424e-06
6.49276e-06
-3.06522e-06
6.46283e-06
-3.59316e-06
6.4266e-06
-4.11754e-06
6.38417e-06
-4.63785e-06
6.33559e-06
-5.15359e-06
6.28092e-06
-5.66424e-06
6.22024e-06
-6.16932e-06
6.15365e-06
-6.66832e-06
6.08122e-06
-7.16079e-06
6.00306e-06
-7.64623e-06
5.91927e-06
-8.12419e-06
5.82998e-06
-8.59423e-06
5.73531e-06
-9.05589e-06
5.63537e-06
-9.50874e-06
5.53032e-06
-9.95237e-06
5.42029e-06
-1.03864e-05
5.30544e-06
-1.08103e-05
5.18592e-06
-1.12239e-05
5.06189e-06
-1.16266e-05
4.93354e-06
-1.20182e-05
4.80103e-06
-1.23983e-05
4.66455e-06
-1.27666e-05
4.52431e-06
-1.31227e-05
4.38048e-06
-1.34663e-05
4.2333e-06
-1.37972e-05
4.08297e-06
-1.4115e-05
3.92972e-06
-1.44194e-05
3.77379e-06
-1.47102e-05
3.61542e-06
-1.4987e-05
3.45489e-06
-1.52498e-05
3.29246e-06
-1.54981e-05
3.12842e-06
-1.57318e-05
2.96308e-06
-1.59505e-05
2.79675e-06
-1.6154e-05
2.62979e-06
-1.63421e-05
2.46254e-06
-1.65144e-05
2.29539e-06
-1.66707e-05
2.12874e-06
-1.68104e-05
1.96303e-06
-1.69333e-05
1.79868e-06
-1.70389e-05
1.63616e-06
-1.71266e-05
1.47595e-06
-1.71957e-05
1.31852e-06
-1.72455e-05
1.16432e-06
-1.7275e-05
1.01378e-06
-1.72831e-05
8.67242e-07
-1.72686e-05
7.24944e-07
-1.72298e-05
5.86954e-07
-1.71651e-05
4.53094e-07
-1.70726e-05
3.22854e-07
-1.69505e-05
1.95292e-07
-1.67969e-05
6.89528e-08
-1.66103e-05
-5.82006e-08
-1.63896e-05
-1.88889e-07
-1.61349e-05
-3.26352e-07
-4.74245e-07
-1.58475e-05
-4.09215e-07
5.32267e-06
-9.40347e-07
6.91727e-06
-1.48267e-06
7.06447e-06
-2.02441e-06
7.05751e-06
-2.56419e-06
7.03254e-06
-3.10143e-06
7.00006e-06
-3.63557e-06
6.96075e-06
-4.16611e-06
6.9147e-06
-4.6925e-06
6.86198e-06
-5.21424e-06
6.80266e-06
-5.73081e-06
6.73682e-06
-6.24172e-06
6.66455e-06
-6.74645e-06
6.58595e-06
-7.24454e-06
6.50114e-06
-7.73549e-06
6.41023e-06
-8.21884e-06
6.31333e-06
-8.69412e-06
6.21059e-06
-9.1609e-06
6.10215e-06
-9.61873e-06
5.98815e-06
-1.00672e-05
5.86874e-06
-1.05058e-05
5.7441e-06
-1.09343e-05
5.61438e-06
-1.13522e-05
5.47977e-06
-1.17591e-05
5.34045e-06
-1.21547e-05
5.1966e-06
-1.25385e-05
5.04843e-06
-1.29104e-05
4.89614e-06
-1.32698e-05
4.73995e-06
-1.36166e-05
4.58006e-06
-1.39504e-05
4.41672e-06
-1.42708e-05
4.25016e-06
-1.45777e-05
4.08063e-06
-1.48706e-05
3.90838e-06
-1.51494e-05
3.73368e-06
-1.54137e-05
3.5568e-06
-1.56634e-05
3.37805e-06
-1.5898e-05
3.19771e-06
-1.61174e-05
3.01612e-06
-1.63212e-05
2.8336e-06
-1.65092e-05
2.65051e-06
-1.6681e-05
2.46719e-06
-1.68363e-05
2.28403e-06
-1.69747e-05
2.10142e-06
-1.70957e-05
1.91975e-06
-1.7199e-05
1.73944e-06
-1.72839e-05
1.56086e-06
-1.73498e-05
1.38443e-06
-1.7396e-05
1.21047e-06
-1.74215e-05
1.03931e-06
-1.74254e-05
8.71164e-07
-1.74066e-05
7.06128e-07
-1.73638e-05
5.44143e-07
-1.72956e-05
3.84924e-07
-1.72007e-05
2.27903e-07
-1.70775e-05
7.21585e-08
-1.6925e-05
-8.36026e-08
-1.6742e-05
-2.41147e-07
-1.65283e-05
-4.02638e-07
-1.6284e-05
-5.70611e-07
-7.47783e-07
-1.60105e-05
-4.1438e-07
5.73705e-06
-9.52258e-07
7.45515e-06
-1.50146e-06
7.61368e-06
-2.05008e-06
7.60613e-06
-2.5967e-06
7.57916e-06
-3.14072e-06
7.54408e-06
-3.6816e-06
7.50163e-06
-4.21881e-06
7.45191e-06
-4.7518e-06
7.39497e-06
-5.28006e-06
7.33091e-06
-5.80305e-06
7.25981e-06
-6.32028e-06
7.18178e-06
-6.83124e-06
7.09691e-06
-7.33542e-06
7.00532e-06
-7.83234e-06
6.90715e-06
-8.32154e-06
6.80252e-06
-8.80253e-06
6.69158e-06
-9.27486e-06
6.57448e-06
-9.73809e-06
6.45138e-06
-1.01918e-05
6.32243e-06
-1.06355e-05
6.18783e-06
-1.10689e-05
6.04774e-06
-1.14915e-05
5.90236e-06
-1.19029e-05
5.75187e-06
-1.23028e-05
5.59649e-06
-1.26908e-05
5.43642e-06
-1.30665e-05
5.27188e-06
-1.34297e-05
5.10309e-06
-1.37799e-05
4.93029e-06
-1.41169e-05
4.7537e-06
-1.44403e-05
4.57359e-06
-1.47498e-05
4.39019e-06
-1.50452e-05
4.20378e-06
-1.53262e-05
4.01463e-06
-1.55924e-05
3.82302e-06
-1.58436e-05
3.62925e-06
-1.60795e-05
3.43361e-06
-1.62998e-05
3.23642e-06
-1.65042e-05
3.038e-06
-1.66924e-05
2.83869e-06
-1.6864e-05
2.63883e-06
-1.70188e-05
2.43877e-06
-1.71562e-05
2.23887e-06
-1.72759e-05
2.03948e-06
-1.73775e-05
1.84096e-06
-1.74603e-05
1.64365e-06
-1.75237e-05
1.44785e-06
-1.75671e-05
1.25386e-06
-1.75896e-05
1.06187e-06
-1.75905e-05
8.72021e-07
-1.75687e-05
6.84329e-07
-1.75232e-05
4.98654e-07
-1.74529e-05
3.14664e-07
-1.73568e-05
1.31796e-07
-1.72339e-05
-5.07974e-08
-1.70832e-05
-2.3426e-07
-1.69043e-05
-4.20036e-07
-1.66971e-05
-6.09866e-07
-1.6462e-05
-8.05707e-07
-1.00959e-06
-1.62002e-05
-4.19958e-07
6.15701e-06
-9.6512e-07
8.00031e-06
-1.52176e-06
8.17032e-06
-2.0778e-06
8.16217e-06
-2.6318e-06
8.13316e-06
-3.18315e-06
8.09544e-06
-3.73131e-06
8.04979e-06
-4.27572e-06
7.99631e-06
-4.81584e-06
7.93509e-06
-5.35113e-06
7.8662e-06
-5.88106e-06
7.78975e-06
-6.40512e-06
7.70583e-06
-6.92278e-06
7.61457e-06
-7.43355e-06
7.51609e-06
-7.93693e-06
7.41053e-06
-8.43244e-06
7.29803e-06
-8.91959e-06
7.17873e-06
-9.39792e-06
7.05282e-06
-9.86698e-06
6.92044e-06
-1.03263e-05
6.78179e-06
-1.07755e-05
6.63704e-06
-1.12142e-05
6.48639e-06
-1.16419e-05
6.33004e-06
-1.20582e-05
6.1682e-06
-1.24628e-05
6.00107e-06
-1.28553e-05
5.82889e-06
-1.32352e-05
5.65187e-06
-1.36024e-05
5.47026e-06
-1.39564e-05
5.28429e-06
-1.42969e-05
5.09421e-06
-1.46236e-05
4.90028e-06
-1.49362e-05
4.70276e-06
-1.52343e-05
4.50192e-06
-1.55177e-05
4.29804e-06
-1.57861e-05
4.09141e-06
-1.60392e-05
3.88231e-06
-1.62766e-05
3.67105e-06
-1.64981e-05
3.45794e-06
-1.67034e-05
3.24329e-06
-1.68922e-05
3.02742e-06
-1.7064e-05
2.81067e-06
-1.72186e-05
2.59335e-06
-1.73555e-05
2.3758e-06
-1.74744e-05
2.15834e-06
-1.75747e-05
1.94129e-06
-1.7656e-05
1.72492e-06
-1.77176e-05
1.5095e-06
-1.7759e-05
1.29525e-06
-1.77795e-05
1.08231e-06
-1.77782e-05
8.70767e-07
-1.77544e-05
6.6057e-07
-1.77073e-05
4.51549e-07
-1.7636e-05
2.43364e-07
-1.75398e-05
3.55228e-08
-1.74178e-05
-1.72809e-07
-1.72695e-05
-3.82514e-07
-1.70947e-05
-5.94808e-07
-1.68935e-05
-8.11068e-07
-1.66664e-05
-1.0328e-06
-1.26152e-06
-1.64145e-05
-4.25956e-07
6.58296e-06
-9.78952e-07
8.55331e-06
-1.54359e-06
8.73496e-06
-2.10761e-06
8.72618e-06
-2.66955e-06
8.6951e-06
-3.22879e-06
8.65468e-06
-3.78476e-06
8.60577e-06
-4.33692e-06
8.54847e-06
-4.8847e-06
8.48287e-06
-5.42755e-06
8.40906e-06
-5.96494e-06
8.32714e-06
-6.49634e-06
8.23723e-06
-7.02123e-06
8.13946e-06
-7.53908e-06
8.03395e-06
-8.0494e-06
7.92085e-06
-8.55168e-06
7.80031e-06
-9.04546e-06
7.67251e-06
-9.53025e-06
7.5376e-06
-1.00056e-05
7.39578e-06
-1.0471e-05
7.24723e-06
-1.09261e-05
7.09215e-06
-1.13705e-05
6.93074e-06
-1.18037e-05
6.76322e-06
-1.22253e-05
6.5898e-06
-1.26349e-05
6.41071e-06
-1.30322e-05
6.22618e-06
-1.34168e-05
6.03646e-06
-1.37883e-05
5.84178e-06
-1.41464e-05
5.64239e-06
-1.44908e-05
5.43857e-06
-1.48211e-05
5.23057e-06
-1.51369e-05
5.01865e-06
-1.54381e-05
4.80311e-06
-1.57243e-05
4.58421e-06
-1.59951e-05
4.36226e-06
-1.62504e-05
4.13753e-06
-1.64897e-05
3.91034e-06
-1.67127e-05
3.68099e-06
-1.69192e-05
3.44979e-06
-1.71088e-05
3.21704e-06
-1.72812e-05
2.98306e-06
-1.74361e-05
2.74817e-06
-1.75729e-05
2.51265e-06
-1.76914e-05
2.27681e-06
-1.7791e-05
2.04093e-06
-1.78713e-05
1.80525e-06
-1.79318e-05
1.57e-06
-1.79719e-05
1.33535e-06
-1.7991e-05
1.1014e-06
-1.79885e-05
8.68201e-07
-1.79636e-05
6.35682e-07
-1.79157e-05
4.03663e-07
-1.78441e-05
1.71832e-07
-1.77483e-05
-6.02801e-08
-1.76278e-05
-2.93346e-07
-1.74822e-05
-5.28124e-07
-1.73114e-05
-7.65582e-07
-1.71157e-05
-1.0068e-06
-1.68956e-05
-1.25293e-06
-1.50511e-06
-1.6652e-05
-4.32384e-07
7.01535e-06
-9.93774e-07
9.1147e-06
-1.56698e-06
9.30817e-06
-2.13955e-06
9.29875e-06
-2.70999e-06
9.26554e-06
-3.27768e-06
9.22237e-06
-3.84204e-06
9.17012e-06
-4.40249e-06
9.10892e-06
-4.95848e-06
9.03885e-06
-5.50944e-06
8.96002e-06
-6.05482e-06
8.87253e-06
-6.59408e-06
8.7765e-06
-7.1267e-06
8.67207e-06
-7.65214e-06
8.55938e-06
-8.16988e-06
8.4386e-06
-8.67944e-06
8.30987e-06
-9.18031e-06
8.17338e-06
-9.67201e-06
8.02931e-06
-1.01541e-05
7.87785e-06
-1.06261e-05
7.71921e-06
-1.10875e-05
7.55359e-06
-1.1538e-05
7.38121e-06
-1.1977e-05
7.20229e-06
-1.24043e-05
7.01707e-06
-1.28194e-05
6.82578e-06
-1.32219e-05
6.62867e-06
-1.36114e-05
6.42599e-06
-1.39876e-05
6.21799e-06
-1.43502e-05
6.00494e-06
-1.46987e-05
5.78711e-06
-1.50329e-05
5.56476e-06
-1.53524e-05
5.33817e-06
-1.56569e-05
5.10764e-06
-1.59462e-05
4.87344e-06
-1.62198e-05
4.63587e-06
-1.64775e-05
4.39522e-06
-1.67189e-05
4.1518e-06
-1.69438e-05
3.9059e-06
-1.71519e-05
3.65783e-06
-1.73427e-05
3.40789e-06
-1.75161e-05
3.15639e-06
-1.76715e-05
2.9036e-06
-1.78087e-05
2.64983e-06
-1.79272e-05
2.39533e-06
-1.80266e-05
2.14037e-06
-1.81066e-05
1.88517e-06
-1.81665e-05
1.62991e-06
-1.82059e-05
1.37475e-06
-1.82242e-05
1.11977e-06
-1.8221e-05
8.64987e-07
-1.81957e-05
6.10329e-07
-1.81476e-05
3.5563e-07
-1.80765e-05
1.00656e-07
-1.79816e-05
-1.55114e-07
-1.78629e-05
-4.1212e-07
-1.772e-05
-6.7102e-07
-1.7553e-05
-9.32578e-07
-1.73621e-05
-1.19763e-06
-1.7148e-05
-1.46704e-06
-1.74167e-06
-1.69115e-05
-4.39249e-07
7.4546e-06
-1.00961e-06
9.68506e-06
-1.59197e-06
9.89053e-06
-2.17367e-06
9.88045e-06
-2.7532e-06
9.84507e-06
-3.32991e-06
9.79908e-06
-3.90321e-06
9.74343e-06
-4.47253e-06
9.67824e-06
-5.03728e-06
9.6036e-06
-5.59689e-06
9.51963e-06
-6.15081e-06
9.42644e-06
-6.69847e-06
9.32416e-06
-7.23934e-06
9.21294e-06
-7.77288e-06
9.09292e-06
-8.29856e-06
8.96428e-06
-8.81588e-06
8.82719e-06
-9.32433e-06
8.68183e-06
-9.82342e-06
8.5284e-06
-1.03127e-05
8.3671e-06
-1.07916e-05
8.19816e-06
-1.12598e-05
8.02178e-06
-1.17168e-05
7.83821e-06
-1.21622e-05
7.64767e-06
-1.25955e-05
7.45041e-06
-1.30164e-05
7.24668e-06
-1.34245e-05
7.03674e-06
-1.38193e-05
6.82084e-06
-1.42006e-05
6.59926e-06
-1.45679e-05
6.37228e-06
-1.4921e-05
6.14015e-06
-1.52594e-05
5.90318e-06
-1.55829e-05
5.66164e-06
-1.58911e-05
5.41583e-06
-1.61837e-05
5.16604e-06
-1.64604e-05
4.91256e-06
-1.67208e-05
4.65569e-06
-1.69648e-05
4.39573e-06
-1.71918e-05
4.13299e-06
-1.74018e-05
3.86775e-06
-1.75942e-05
3.60032e-06
-1.77688e-05
3.33099e-06
-1.79252e-05
3.06003e-06
-1.80631e-05
2.78772e-06
-1.81821e-05
2.51432e-06
-1.82818e-05
2.24006e-06
-1.83618e-05
1.96515e-06
-1.84216e-05
1.68975e-06
-1.84609e-05
1.414e-06
-1.84791e-05
1.13797e-06
-1.84757e-05
8.61671e-07
-1.84505e-05
5.85047e-07
-1.84028e-05
3.07951e-07
-1.83324e-05
3.02502e-08
-1.82388e-05
-2.48671e-07
-1.8122e-05
-5.28967e-07
-1.79818e-05
-8.11238e-07
-1.78183e-05
-1.09607e-06
-1.76318e-05
-1.3841e-06
-1.74228e-05
-1.67598e-06
-1.97232e-06
-1.71922e-05
-4.46561e-07
7.90116e-06
-1.02647e-06
1.0265e-05
-1.61858e-06
1.04826e-05
-2.21001e-06
1.04719e-05
-2.79922e-06
1.04343e-05
-3.38554e-06
1.03854e-05
-3.96838e-06
1.03263e-05
-4.54713e-06
1.0257e-05
-5.12122e-06
1.01777e-05
-5.69005e-06
1.00885e-05
-6.25305e-06
9.98944e-06
-6.80965e-06
9.88077e-06
-7.35931e-06
9.7626e-06
-7.90147e-06
9.63508e-06
-8.4356e-06
9.49841e-06
-8.96118e-06
9.35276e-06
-9.4777e-06
9.19834e-06
-9.98465e-06
9.03535e-06
-1.04816e-05
8.86401e-06
-1.09679e-05
8.68454e-06
-1.14433e-05
8.49718e-06
-1.19073e-05
8.30217e-06
-1.23594e-05
8.09976e-06
-1.27992e-05
7.89021e-06
-1.32263e-05
7.67379e-06
-1.36403e-05
7.45075e-06
-1.40408e-05
7.22137e-06
-1.44275e-05
6.98594e-06
-1.48e-05
6.74474e-06
-1.51579e-05
6.49805e-06
-1.55009e-05
6.24617e-06
-1.58286e-05
5.98939e-06
-1.61408e-05
5.72801e-06
-1.64371e-05
5.46232e-06
-1.67171e-05
5.19263e-06
-1.69807e-05
4.91924e-06
-1.72274e-05
4.64245e-06
-1.7457e-05
4.36256e-06
-1.76691e-05
4.07986e-06
-1.78634e-05
3.79465e-06
-1.80397e-05
3.50721e-06