/*--------------------------------*- C++ -*----------------------------------*\
  =========                 |
  \\      /  F ield         | OpenFOAM: The Open Source CFD Toolbox
   \\    /   O peration     | Website:  https://openfoam.org
    \\  /    A nd           | Version:  8
     \\/     M anipulation  |
\*---------------------------------------------------------------------------*/
FoamFile
{
    version     2.0;
    format      ascii;
    class       volVectorField;
    location    "52";
    object      U;
}
// * * * * * * * * * * * * * * * * * * * * * * * * * * * * * * * * * * * * * //

dimensions      [0 1 -1 0 0 0 0];

internalField   nonuniform List<vector> 
11600
(
(6.5069e-08 -2.81902e-07 0)
(-4.02923e-05 1.43968e-05 0)
(-0.000119664 2.08778e-05 0)
(-0.000203732 2.30823e-05 0)
(-0.000294278 2.33471e-05 0)
(-0.000385139 2.31052e-05 0)
(-0.000475981 2.28958e-05 0)
(-0.000566776 2.27957e-05 0)
(-0.000657585 2.27763e-05 0)
(-0.000748492 2.28041e-05 0)
(-0.000839559 2.2858e-05 0)
(-0.000930826 2.29271e-05 0)
(-0.00102232 2.30064e-05 0)
(-0.00111407 2.30934e-05 0)
(-0.00120608 2.31866e-05 0)
(-0.00129838 2.32852e-05 0)
(-0.00139097 2.33882e-05 0)
(-0.00148386 2.34951e-05 0)
(-0.00157707 2.36049e-05 0)
(-0.00167059 2.37171e-05 0)
(-0.00176442 2.38308e-05 0)
(-0.00185857 2.39451e-05 0)
(-0.00195303 2.40591e-05 0)
(-0.00204779 2.4172e-05 0)
(-0.00214285 2.42827e-05 0)
(-0.00223817 2.43902e-05 0)
(-0.00233376 2.44933e-05 0)
(-0.00242958 2.45909e-05 0)
(-0.0025256 2.46818e-05 0)
(-0.00262181 2.47645e-05 0)
(-0.00271815 2.48379e-05 0)
(-0.0028146 2.49003e-05 0)
(-0.0029111 2.49502e-05 0)
(-0.00300762 2.4986e-05 0)
(-0.00310409 2.50058e-05 0)
(-0.00320046 2.50078e-05 0)
(-0.00329666 2.49898e-05 0)
(-0.00339264 2.49493e-05 0)
(-0.00348831 2.48837e-05 0)
(-0.00358361 2.47896e-05 0)
(-0.00367846 2.4663e-05 0)
(-0.00377277 2.44985e-05 0)
(-0.00386646 2.42892e-05 0)
(-0.00395943 2.4025e-05 0)
(-0.00405158 2.36909e-05 0)
(-0.00414278 2.32631e-05 0)
(-0.00423288 2.27014e-05 0)
(-0.00432166 2.19342e-05 0)
(-0.0044088 2.08255e-05 0)
(-0.00449373 1.91074e-05 0)
(-0.00457544 1.62413e-05 0)
(-0.0046521 1.11829e-05 0)
(-0.00472033 2.05949e-06 0)
(-0.00477435 -1.43385e-05 0)
(-0.00481205 -4.28331e-05 0)
(-0.00484332 -7.94732e-05 0)
(-0.00478007 -8.21419e-05 0)
(-0.00516544 -2.20421e-05 0)
(-0.0051026 0.000863546 0)
(-0.00848463 0.00300276 0)
(-1.53957e-05 4.05302e-05 0)
(-0.000112407 0.00010999 0)
(-0.000275099 0.000142697 0)
(-0.000447867 0.000156239 0)
(-0.000633015 0.000160597 0)
(-0.000820532 0.000161617 0)
(-0.00100895 0.000161777 0)
(-0.00119779 0.000161847 0)
(-0.00138689 0.000162 0)
(-0.00157624 0.000162246 0)
(-0.00176589 0.000162563 0)
(-0.00195587 0.000162931 0)
(-0.00214622 0.000163339 0)
(-0.00233696 0.00016378 0)
(-0.00252812 0.000164247 0)
(-0.00271971 0.000164735 0)
(-0.00291175 0.000165241 0)
(-0.00310425 0.000165759 0)
(-0.0032972 0.000166285 0)
(-0.00349062 0.000166815 0)
(-0.00368449 0.000167342 0)
(-0.0038788 0.000167863 0)
(-0.00407353 0.000168371 0)
(-0.00426866 0.00016886 0)
(-0.00446416 0.000169325 0)
(-0.00465998 0.00016976 0)
(-0.0048561 0.000170156 0)
(-0.00505244 0.000170508 0)
(-0.00524896 0.000170808 0)
(-0.00544559 0.000171048 0)
(-0.00564225 0.000171223 0)
(-0.00583887 0.000171323 0)
(-0.00603535 0.000171341 0)
(-0.00623159 0.00017127 0)
(-0.00642751 0.000171102 0)
(-0.00662298 0.000170831 0)
(-0.0068179 0.00017045 0)
(-0.00701215 0.000169952 0)
(-0.00720563 0.000169332 0)
(-0.00739821 0.000168586 0)
(-0.00758978 0.000167709 0)
(-0.00778026 0.000166697 0)
(-0.00796956 0.000165547 0)
(-0.0081576 0.000164251 0)
(-0.00834436 0.000162799 0)
(-0.00852983 0.000161168 0)
(-0.00871405 0.000159311 0)
(-0.00889713 0.000157132 0)
(-0.00907924 0.000154436 0)
(-0.00926067 0.000150839 0)
(-0.00944194 0.000145632 0)
(-0.00962403 0.000137687 0)
(-0.00980934 0.000125683 0)
(-0.0100046 0.000109374 0)
(-0.010226 9.44822e-05 0)
(-0.0105007 0.000113519 0)
(-0.0108761 0.000259982 0)
(-0.0116366 0.000636495 0)
(-0.0123308 0.00201217 0)
(-0.0142261 0.00385071 0)
(-2.29776e-05 0.000122915 0)
(-0.000149321 0.000274255 0)
(-0.000355117 0.000346426 0)
(-0.000572331 0.000377454 0)
(-0.000804099 0.000388869 0)
(-0.00103887 0.000392544 0)
(-0.00127484 0.000393688 0)
(-0.00151139 0.000394207 0)
(-0.00174827 0.000394683 0)
(-0.00198544 0.00039525 0)
(-0.0022229 0.000395917 0)
(-0.0024607 0.00039667 0)
(-0.00269884 0.000397494 0)
(-0.00293735 0.000398374 0)
(-0.00317625 0.0003993 0)
(-0.00341555 0.000400262 0)
(-0.00365525 0.00040125 0)
(-0.00389536 0.000402253 0)
(-0.00413587 0.000403262 0)
(-0.00437676 0.000404265 0)
(-0.00461803 0.000405251 0)
(-0.00485964 0.000406208 0)
(-0.00510158 0.000407123 0)
(-0.0053438 0.000407982 0)
(-0.00558625 0.000408772 0)
(-0.00582889 0.000409479 0)
(-0.00607165 0.000410086 0)
(-0.00631446 0.000410579 0)
(-0.00655726 0.000410942 0)
(-0.00679994 0.000411159 0)
(-0.00704242 0.000411214 0)
(-0.0072846 0.000411091 0)
(-0.00752637 0.000410774 0)
(-0.00776761 0.000410251 0)
(-0.0080082 0.000409507 0)
(-0.00824802 0.000408531 0)
(-0.00848694 0.000407315 0)
(-0.00872484 0.000405853 0)
(-0.00896159 0.000404144 0)
(-0.00919709 0.000402193 0)
(-0.00943123 0.000400009 0)
(-0.00966395 0.000397611 0)
(-0.00989521 0.000395027 0)
(-0.010125 0.000392295 0)
(-0.0103535 0.000389465 0)
(-0.0105807 0.000386596 0)
(-0.010807 0.000383757 0)
(-0.0110329 0.000381015 0)
(-0.0112591 0.000378435 0)
(-0.0114868 0.000376094 0)
(-0.0117178 0.000374208 0)
(-0.0119554 0.000373607 0)
(-0.0122053 0.000377138 0)
(-0.0124783 0.000393397 0)
(-0.0127925 0.000445587 0)
(-0.0131723 0.000587724 0)
(-0.0136561 0.000919892 0)
(-0.0143139 0.00159937 0)
(-0.0148129 0.00299236 0)
(-0.015594 0.0047661 0)
(-2.60413e-05 0.000212645 0)
(-0.00016629 0.000452296 0)
(-0.000392724 0.000565587 0)
(-0.000630257 0.000613938 0)
(-0.000883059 0.000632129 0)
(-0.00113889 0.000638311 0)
(-0.00139597 0.000640399 0)
(-0.0016537 0.000641357 0)
(-0.00191179 0.000642135 0)
(-0.00217017 0.000642982 0)
(-0.00242884 0.000643939 0)
(-0.0026878 0.000644999 0)
(-0.00294707 0.000646143 0)
(-0.00320666 0.000647358 0)
(-0.00346658 0.000648626 0)
(-0.00372683 0.000649934 0)
(-0.00398741 0.000651266 0)
(-0.00424831 0.000652607 0)
(-0.00450953 0.000653941 0)
(-0.00477104 0.00065525 0)
(-0.00503282 0.000656517 0)
(-0.00529483 0.000657724 0)
(-0.00555705 0.000658849 0)
(-0.00581942 0.000659873 0)
(-0.00608189 0.000660774 0)
(-0.0063444 0.00066153 0)
(-0.00660688 0.000662116 0)
(-0.00686925 0.00066251 0)
(-0.00713142 0.000662687 0)
(-0.0073933 0.000662624 0)
(-0.00765479 0.000662296 0)
(-0.00791577 0.000661681 0)
(-0.00817612 0.000660756 0)
(-0.00843572 0.000659503 0)
(-0.00869444 0.000657904 0)
(-0.00895215 0.000655946 0)
(-0.00920871 0.000653622 0)
(-0.009464 0.000650932 0)
(-0.00971789 0.000647884 0)
(-0.00997027 0.000644498 0)
(-0.0102211 0.00064081 0)
(-0.0104702 0.000636874 0)
(-0.0107177 0.00063277 0)
(-0.0109635 0.000628607 0)
(-0.0112079 0.000624535 0)
(-0.0114511 0.000620758 0)
(-0.0116936 0.000617545 0)
(-0.0119361 0.000615266 0)
(-0.0121797 0.00061444 0)
(-0.0124262 0.000615869 0)
(-0.0126783 0.00062094 0)
(-0.0129403 0.000632365 0)
(-0.0132188 0.000655863 0)
(-0.0135235 0.000703785 0)
(-0.0138659 0.0008019 0)
(-0.014256 0.000997971 0)
(-0.0146948 0.0013667 0)
(-0.0151395 0.00201427 0)
(-0.0153898 0.0030826 0)
(-0.0154568 0.00430292 0)
(-2.6784e-05 0.000310442 0)
(-0.000172681 0.000644925 0)
(-0.000408141 0.000801542 0)
(-0.000654286 0.000867871 0)
(-0.000915956 0.000893062 0)
(-0.0011805 0.000901863 0)
(-0.00144624 0.000904969 0)
(-0.0017126 0.000906416 0)
(-0.00197932 0.000907523 0)
(-0.00224632 0.000908658 0)
(-0.00251359 0.000909899 0)
(-0.00278115 0.000911249 0)
(-0.00304899 0.000912692 0)
(-0.00331712 0.00091421 0)
(-0.00358554 0.000915785 0)
(-0.00385426 0.000917398 0)
(-0.00412327 0.000919029 0)
(-0.00439255 0.000920657 0)
(-0.0046621 0.00092226 0)
(-0.00493189 0.000923816 0)
(-0.00520188 0.000925298 0)
(-0.00547206 0.000926683 0)
(-0.00574237 0.000927941 0)
(-0.00601277 0.000929046 0)
(-0.0062832 0.000929966 0)
(-0.00655359 0.000930673 0)
(-0.00682386 0.000931132 0)
(-0.00709395 0.000931313 0)
(-0.00736374 0.000931183 0)
(-0.00763315 0.000930709 0)
(-0.00790206 0.00092986 0)
(-0.00817036 0.000928603 0)
(-0.00843792 0.000926913 0)
(-0.00870461 0.000924762 0)
(-0.0089703 0.00092213 0)
(-0.00923484 0.000919004 0)
(-0.00949809 0.000915378 0)
(-0.00975992 0.000911256 0)
(-0.0100202 0.000906659 0)
(-0.0102788 0.000901625 0)
(-0.0105356 0.000896218 0)
(-0.0107906 0.000890534 0)
(-0.0110437 0.000884709 0)
(-0.0112951 0.000878938 0)
(-0.0115447 0.000873489 0)
(-0.0117929 0.000868732 0)
(-0.01204 0.000865182 0)
(-0.0122869 0.000863569 0)
(-0.0125345 0.000864952 0)
(-0.0127843 0.000870946 0)
(-0.0130386 0.000884138 0)
(-0.0133006 0.000908904 0)
(-0.0135746 0.000952935 0)
(-0.0138652 0.00102987 0)
(-0.0141754 0.00116305 0)
(-0.0145019 0.00138866 0)
(-0.0148251 0.00175544 0)
(-0.0150822 0.00231815 0)
(-0.0151516 0.00309901 0)
(-0.0149687 0.00394868 0)
(-2.67301e-05 0.000409374 0)
(-0.000174557 0.000841171 0)
(-0.000413549 0.00104183 0)
(-0.000663008 0.00112617 0)
(-0.000928116 0.00115822 0)
(-0.00119595 0.0011695 0)
(-0.00146491 0.00117355 0)
(-0.00173446 0.00117545 0)
(-0.00200435 0.00117686 0)
(-0.00227452 0.00117828 0)
(-0.00254497 0.00117979 0)
(-0.00281569 0.00118142 0)
(-0.00308669 0.00118314 0)
(-0.00335799 0.00118495 0)
(-0.00362957 0.00118681 0)
(-0.00390143 0.0011887 0)
(-0.00417358 0.0011906 0)
(-0.004446 0.00119249 0)
(-0.00471867 0.00119433 0)
(-0.00499157 0.0011961 0)
(-0.00526467 0.00119777 0)
(-0.00553794 0.00119929 0)
(-0.00581133 0.00120065 0)
(-0.00608479 0.00120179 0)
(-0.00635827 0.00120269 0)
(-0.00663169 0.0012033 0)
(-0.00690499 0.00120359 0)
(-0.00717807 0.00120351 0)
(-0.00745084 0.00120301 0)
(-0.0077232 0.00120207 0)
(-0.00799504 0.00120064 0)
(-0.00826624 0.00119868 0)
(-0.00853666 0.00119615 0)
(-0.00880618 0.00119303 0)
(-0.00907464 0.00118929 0)
(-0.00934189 0.0011849 0)
(-0.0096078 0.00117987 0)
(-0.0098722 0.00117421 0)
(-0.0101349 0.00116793 0)
(-0.0103959 0.00116111 0)
(-0.0106549 0.00115381 0)
(-0.010912 0.00114618 0)
(-0.0111669 0.0011384 0)
(-0.0114197 0.00113073 0)
(-0.0116705 0.00112354 0)
(-0.0119193 0.00111733 0)
(-0.0121666 0.00111281 0)
(-0.0124126 0.00111094 0)
(-0.012658 0.00111314 0)
(-0.0129039 0.00112145 0)
(-0.0131514 0.00113893 0)
(-0.0134021 0.00117031 0)
(-0.0136574 0.00122299 0)
(-0.0139176 0.00130855 0)
(-0.0141793 0.00144427 0)
(-0.0144316 0.00165355 0)
(-0.0146483 0.00196351 0)
(-0.0147765 0.00239589 0)
(-0.0147431 0.0029364 0)
(-0.0144865 0.00350102 0)
(-2.65376e-05 0.000508501 0)
(-0.000174825 0.00103867 0)
(-0.000414942 0.00128369 0)
(-0.00066548 0.0013861 0)
(-0.000931754 0.00142493 0)
(-0.00120067 0.00143862 0)
(-0.00147067 0.00144356 0)
(-0.00174124 0.00144589 0)
(-0.00201214 0.00144761 0)
(-0.00228332 0.0014493 0)
(-0.00255478 0.0014511 0)
(-0.00282652 0.00145301 0)
(-0.00309857 0.00145502 0)
(-0.00337091 0.00145711 0)
(-0.00364355 0.00145926 0)
(-0.00391649 0.00146145 0)
(-0.00418973 0.00146363 0)
(-0.00446325 0.00146578 0)
(-0.00473704 0.00146787 0)
(-0.00501108 0.00146986 0)
(-0.00528534 0.00147171 0)
(-0.00555979 0.00147339 0)
(-0.00583438 0.00147484 0)
(-0.00610906 0.00147603 0)
(-0.00638378 0.00147692 0)
(-0.00665847 0.00147744 0)
(-0.00693306 0.00147756 0)
(-0.00720745 0.00147723 0)
(-0.00748156 0.00147638 0)
(-0.00775528 0.00147498 0)
(-0.00802849 0.00147296 0)
(-0.00830107 0.00147029 0)
(-0.0085729 0.00146692 0)
(-0.00884381 0.00146281 0)
(-0.00911367 0.00145793 0)
(-0.00938232 0.00145225 0)
(-0.00964958 0.00144577 0)
(-0.00991529 0.00143849 0)
(-0.0101793 0.00143045 0)
(-0.0104414 0.00142171 0)
(-0.0107014 0.00141236 0)
(-0.0109592 0.00140257 0)
(-0.0112147 0.00139255 0)
(-0.0114678 0.0013826 0)
(-0.0117183 0.00137316 0)
(-0.0119662 0.00136481 0)
(-0.0122116 0.00135836 0)
(-0.0124546 0.00135491 0)
(-0.0126954 0.00135601 0)
(-0.0129341 0.00136382 0)
(-0.013171 0.00138143 0)
(-0.0134058 0.00141325 0)
(-0.0136378 0.00146559 0)
(-0.0138641 0.00154727 0)
(-0.0140782 0.00166995 0)
(-0.0142671 0.00184719 0)
(-0.014407 0.00209152 0)
(-0.0144601 0.00240644 0)
(-0.014382 0.00277055 0)
(-0.0141336 0.00313209 0)
(-2.63682e-05 0.000607495 0)
(-0.000174588 0.00123648 0)
(-0.000414868 0.00152604 0)
(-0.000665607 0.00164657 0)
(-0.000932152 0.00169218 0)
(-0.00120132 0.00170825 0)
(-0.00147154 0.00171407 0)
(-0.00174232 0.00171681 0)
(-0.00201343 0.00171884 0)
(-0.00228482 0.00172082 0)
(-0.00255651 0.0017229 0)
(-0.00282851 0.00172511 0)
(-0.00310081 0.00172743 0)
(-0.00337344 0.00172983 0)
(-0.00364639 0.00173229 0)
(-0.00391967 0.00173478 0)
(-0.00419327 0.00173727 0)
(-0.00446718 0.00173971 0)
(-0.0047414 0.00174207 0)
(-0.0050159 0.00174431 0)
(-0.00529066 0.00174638 0)
(-0.00556564 0.00174824 0)
(-0.0058408 0.00174983 0)
(-0.0061161 0.00175111 0)
(-0.00639148 0.00175202 0)
(-0.00666687 0.00175249 0)
(-0.00694221 0.00175248 0)
(-0.0072174 0.00175193 0)
(-0.00749235 0.00175076 0)
(-0.00776696 0.00174893 0)
(-0.00804111 0.00174637 0)
(-0.00831467 0.00174302 0)
(-0.00858751 0.00173883 0)
(-0.00885947 0.00173375 0)
(-0.0091304 0.00172773 0)
(-0.00940011 0.00172075 0)
(-0.00966844 0.00171279 0)
(-0.00993519 0.00170385 0)
(-0.0102002 0.00169396 0)
(-0.0104631 0.00168319 0)
(-0.0107239 0.00167162 0)
(-0.0109823 0.00165943 0)
(-0.0112381 0.00164684 0)
(-0.011491 0.00163418 0)
(-0.0117408 0.00162189 0)
(-0.0119874 0.00161057 0)
(-0.0122306 0.00160106 0)
(-0.0124699 0.00159446 0)
(-0.0127052 0.00159228 0)
(-0.012936 0.00159655 0)
(-0.0131616 0.00161001 0)
(-0.0133806 0.00163632 0)
(-0.0135906 0.00168032 0)
(-0.0137872 0.00174808 0)
(-0.0139632 0.00184667 0)
(-0.0141062 0.00198295 0)
(-0.0141974 0.00216101 0)
(-0.0142114 0.00237682 0)
(-0.0141217 0.00261116 0)
(-0.0139072 0.00282912 0)
(-2.62361e-05 0.000706241 0)
(-0.000174209 0.00143416 0)
(-0.000414286 0.00176832 0)
(-0.000664895 0.00190706 0)
(-0.000931363 0.00195947 0)
(-0.00120045 0.00197792 0)
(-0.0014706 0.00198459 0)
(-0.00174131 0.00198776 0)
(-0.00201235 0.0019901 0)
(-0.00228369 0.00199237 0)
(-0.00255534 0.00199476 0)
(-0.00282731 0.00199728 0)
(-0.00309962 0.00199993 0)
(-0.00337228 0.00200267 0)
(-0.00364529 0.00200548 0)
(-0.00391866 0.00200831 0)
(-0.00419239 0.00201113 0)
(-0.00446647 0.0020139 0)
(-0.0047409 0.00201657 0)
(-0.00501565 0.0020191 0)
(-0.00529071 0.00202143 0)
(-0.00556604 0.00202352 0)
(-0.00584161 0.0020253 0)
(-0.00611737 0.00202671 0)
(-0.00639326 0.00202769 0)
(-0.00666924 0.00202817 0)
(-0.00694521 0.00202809 0)
(-0.0072211 0.00202737 0)
(-0.00749682 0.00202595 0)
(-0.00777225 0.00202374 0)
(-0.00804729 0.00202068 0)
(-0.0083218 0.0020167 0)
(-0.00859564 0.00201173 0)
(-0.00886865 0.00200571 0)
(-0.00914067 0.00199859 0)
(-0.0094115 0.00199031 0)
(-0.00968095 0.00198086 0)
(-0.00994881 0.00197023 0)
(-0.0102148 0.00195842 0)
(-0.0104788 0.0019455 0)
(-0.0107405 0.00193155 0)
(-0.0109995 0.00191672 0)
(-0.0112556 0.00190122 0)
(-0.0115085 0.00188537 0)
(-0.0117579 0.0018696 0)
(-0.0120032 0.00185447 0)
(-0.0122442 0.00184076 0)
(-0.0124801 0.00182947 0)
(-0.0127103 0.00182195 0)
(-0.0129339 0.00181992 0)
(-0.0131494 0.0018256 0)
(-0.0133547 0.00184179 0)
(-0.0135467 0.00187184 0)
(-0.0137207 0.00191959 0)
(-0.0138694 0.0019888 0)
(-0.0139826 0.00208217 0)
(-0.0140462 0.0021994 0)
(-0.0140438 0.00233407 0)
(-0.0139594 0.00247071 0)
(-0.0137826 0.00258517 0)
(-2.61259e-05 0.000804723 0)
(-0.000173786 0.00163154 0)
(-0.000413511 0.00201035 0)
(-0.000663855 0.00216736 0)
(-0.000930103 0.00222659 0)
(-0.00119899 0.00224742 0)
(-0.00146895 0.00225496 0)
(-0.00173947 0.00225855 0)
(-0.00201034 0.00226121 0)
(-0.00228153 0.0022638 0)
(-0.00255304 0.00226652 0)
(-0.0028249 0.00226938 0)
(-0.00309712 0.00227239 0)
(-0.00336973 0.00227549 0)
(-0.00364272 0.00227867 0)
(-0.00391611 0.00228188 0)
(-0.0041899 0.00228508 0)
(-0.00446409 0.00228822 0)
(-0.00473867 0.00229125 0)
(-0.00501363 0.00229412 0)
(-0.00528895 0.00229677 0)
(-0.00556461 0.00229914 0)
(-0.00584056 0.00230116 0)
(-0.00611677 0.00230277 0)
(-0.00639318 0.00230389 0)
(-0.00666974 0.00230445 0)
(-0.00694638 0.00230436 0)
(-0.00722301 0.00230355 0)
(-0.00749954 0.00230193 0)
(-0.00777587 0.00229942 0)
(-0.00805188 0.00229594 0)
(-0.00832743 0.00229139 0)
(-0.00860239 0.0022857 0)
(-0.00887658 0.0022788 0)
(-0.00914982 0.0022706 0)
(-0.00942193 0.00226106 0)
(-0.00969268 0.00225013 0)
(-0.00996184 0.00223777 0)
(-0.0102292 0.002224 0)
(-0.0104943 0.00220882 0)
(-0.0107571 0.00219233 0)
(-0.011017 0.00217463 0)
(-0.0112739 0.00215591 0)
(-0.0115271 0.00213644 0)
(-0.0117763 0.00211659 0)
(-0.0120209 0.00209685 0)
(-0.0122602 0.0020779 0)
(-0.0124934 0.00206057 0)
(-0.0127196 0.00204596 0)
(-0.0129373 0.00203543 0)
(-0.0131449 0.00203063 0)
(-0.0133398 0.00203349 0)
(-0.0135187 0.00204617 0)
(-0.0136769 0.00207076 0)
(-0.0138081 0.00210888 0)
(-0.0139041 0.00216082 0)
(-0.0139548 0.00222424 0)
(-0.0139493 0.00229257 0)
(-0.0138784 0.00235387 0)
(-0.013737 0.00239128 0)
(-2.60224e-05 0.000902934 0)
(-0.000173329 0.00182854 0)
(-0.000412629 0.00225202 0)
(-0.000662639 0.00242736 0)
(-0.00092859 0.00249345 0)
(-0.00119721 0.00251668 0)
(-0.00146691 0.00252511 0)
(-0.0017372 0.00252914 0)
(-0.00200785 0.00253214 0)
(-0.00227883 0.00253506 0)
(-0.00255016 0.00253812 0)
(-0.00282187 0.00254136 0)
(-0.00309397 0.00254475 0)
(-0.00336649 0.00254826 0)
(-0.00363944 0.00255185 0)
(-0.00391283 0.00255548 0)
(-0.00418666 0.0025591 0)
(-0.00446094 0.00256266 0)
(-0.00473567 0.00256611 0)
(-0.00501084 0.00256938 0)
(-0.00528643 0.0025724 0)
(-0.00556242 0.00257512 0)
(-0.00583878 0.00257746 0)
(-0.00611547 0.00257933 0)
(-0.00639245 0.00258067 0)
(-0.00666965 0.00258137 0)
(-0.00694702 0.00258136 0)
(-0.00722447 0.00258054 0)
(-0.00750191 0.00257882 0)
(-0.00777924 0.00257609 0)
(-0.00805633 0.00257226 0)
(-0.00833307 0.00256722 0)
(-0.00860928 0.00256089 0)
(-0.00888482 0.00255317 0)
(-0.00915948 0.00254396 0)
(-0.00943307 0.0025332 0)
(-0.00970535 0.0025208 0)
(-0.00997606 0.00250673 0)
(-0.0102449 0.00249094 0)
(-0.0105116 0.00247345 0)
(-0.0107758 0.00245428 0)
(-0.0110371 0.00243352 0)
(-0.011295 0.0024113 0)
(-0.011549 0.00238782 0)
(-0.0117987 0.00236338 0)
(-0.0120431 0.00233837 0)
(-0.0122817 0.00231331 0)
(-0.0125133 0.00228885 0)
(-0.0127368 0.00226581 0)
(-0.0129505 0.00224515 0)
(-0.0131527 0.002228 0)
(-0.0133406 0.00221557 0)
(-0.013511 0.00220903 0)
(-0.0136597 0.00220929 0)
(-0.0137813 0.0022166 0)
(-0.0138695 0.00222996 0)
(-0.0139169 0.00224633 0)
(-0.0139164 0.00225981 0)
(-0.0138626 0.00226129 0)
(-0.013753 0.00223894 0)
(-2.59159e-05 0.00100086 0)
(-0.000172833 0.00202512 0)
(-0.000411651 0.0024933 0)
(-0.000661277 0.00268702 0)
(-0.00092688 0.00276 0)
(-0.00119518 0.00278567 0)
(-0.00146459 0.00279499 0)
(-0.0017346 0.00279947 0)
(-0.00200499 0.00280283 0)
(-0.00227573 0.0028061 0)
(-0.00254686 0.00280954 0)
(-0.00281838 0.00281318 0)
(-0.00309034 0.002817 0)
(-0.00336275 0.00282095 0)
(-0.00363564 0.002825 0)
(-0.00390901 0.00282909 0)
(-0.00418288 0.00283319 0)
(-0.00445725 0.00283723 0)
(-0.00473213 0.00284114 0)
(-0.00500752 0.00284487 0)
(-0.0052834 0.00284835 0)
(-0.00555975 0.00285149 0)
(-0.00583655 0.00285421 0)
(-0.00611377 0.00285644 0)
(-0.00639136 0.00285808 0)
(-0.00666927 0.00285902 0)
(-0.00694744 0.00285918 0)
(-0.00722579 0.00285845 0)
(-0.00750424 0.00285671 0)
(-0.00778268 0.00285386 0)
(-0.008061 0.00284978 0)
(-0.00833906 0.00284436 0)
(-0.00861671 0.00283747 0)
(-0.00889378 0.00282902 0)
(-0.00917007 0.00281888 0)
(-0.00944537 0.00280695 0)
(-0.00971943 0.00279314 0)
(-0.00999198 0.00277738 0)
(-0.0102627 0.00275959 0)
(-0.0105313 0.00273973 0)
(-0.0107973 0.00271781 0)
(-0.0110603 0.00269384 0)
(-0.0113198 0.0026679 0)
(-0.0115753 0.00264012 0)
(-0.011826 0.0026107 0)
(-0.0120712 0.00257989 0)
(-0.01231 0.00254807 0)
(-0.0125413 0.00251567 0)
(-0.0127636 0.00248323 0)
(-0.0129755 0.00245137 0)
(-0.0131748 0.00242074 0)
(-0.0133591 0.00239197 0)
(-0.0135253 0.00236551 0)
(-0.0136697 0.00234147 0)
(-0.0137879 0.00231929 0)
(-0.0138749 0.00229736 0)
(-0.0139255 0.00227257 0)
(-0.0139349 0.00223991 0)
(-0.0138996 0.00219246 0)
(-0.0138189 0.00212183 0)
(-2.58013e-05 0.00109848 0)
(-0.00017229 0.00222123 0)
(-0.000410573 0.00273413 0)
(-0.000659769 0.00294628 0)
(-0.000924975 0.0030262 0)
(-0.00119292 0.00305432 0)
(-0.00146198 0.00306457 0)
(-0.00173168 0.00306952 0)
(-0.00200177 0.00307325 0)
(-0.00227225 0.00307691 0)
(-0.00254313 0.00308076 0)
(-0.00281445 0.00308483 0)
(-0.00308624 0.00308911 0)
(-0.00335852 0.00309354 0)
(-0.00363133 0.0030981 0)
(-0.00390467 0.00310271 0)
(-0.00417857 0.00310734 0)
(-0.00445303 0.00311191 0)
(-0.00472807 0.00311637 0)
(-0.00500368 0.00312063 0)
(-0.00527986 0.00312463 0)
(-0.0055566 0.00312827 0)
(-0.00583388 0.00313147 0)
(-0.00611166 0.00313414 0)
(-0.00638992 0.00313617 0)
(-0.0066686 0.00313746 0)
(-0.00694765 0.00313789 0)
(-0.007227 0.00313735 0)
(-0.00750655 0.00313572 0)
(-0.00778623 0.00313286 0)
(-0.0080659 0.00312865 0)
(-0.00834543 0.00312295 0)
(-0.00862469 0.00311563 0)
(-0.00890348 0.00310655 0)
(-0.00918161 0.00309557 0)
(-0.00945887 0.00308258 0)
(-0.00973499 0.00306744 0)
(-0.0100097 0.00305004 0)
(-0.0102826 0.00303028 0)
(-0.0105535 0.00300807 0)
(-0.0108218 0.00298336 0)
(-0.0110871 0.00295611 0)
(-0.0113488 0.00292632 0)
(-0.0116063 0.00289404 0)
(-0.011859 0.00285935 0)
(-0.0121058 0.0028224 0)
(-0.012346 0.00278337 0)
(-0.0125782 0.0027425 0)
(-0.0128011 0.00270008 0)
(-0.0130131 0.00265641 0)
(-0.0132121 0.00261176 0)
(-0.0133959 0.00256628 0)
(-0.0135616 0.00251994 0)
(-0.013706 0.00247232 0)
(-0.0138256 0.00242243 0)
(-0.0139163 0.00236842 0)
(-0.0139745 0.00230739 0)
(-0.0139967 0.00223521 0)
(-0.0139807 0.00214659 0)
(-0.0139262 0.0020355 0)
(-2.5676e-05 0.00119576 0)
(-0.000171693 0.00241682 0)
(-0.000409386 0.00297446 0)
(-0.000658103 0.00320509 0)
(-0.000922866 0.003292 0)
(-0.0011904 0.0033226 0)
(-0.00145909 0.00333379 0)
(-0.00172842 0.00333924 0)
(-0.00199818 0.00334338 0)
(-0.00226835 0.00334745 0)
(-0.00253896 0.00335173 0)
(-0.00281005 0.00335628 0)
(-0.00308164 0.00336106 0)
(-0.00335377 0.00336602 0)
(-0.00362647 0.00337113 0)
(-0.00389977 0.00337632 0)
(-0.00417369 0.00338154 0)
(-0.00444823 0.00338672 0)
(-0.00472343 0.00339179 0)
(-0.00499927 0.00339666 0)
(-0.00527577 0.00340126 0)
(-0.00555291 0.0034055 0)
(-0.00583069 0.00340927 0)
(-0.00610908 0.00341248 0)
(-0.00638805 0.00341502 0)
(-0.00666756 0.00341676 0)
(-0.00694756 0.00341758 0)
(-0.00722799 0.00341735 0)
(-0.00750875 0.00341595 0)
(-0.00778977 0.00341321 0)
(-0.00807093 0.003409 0)
(-0.00835209 0.00340316 0)
(-0.00863312 0.00339554 0)
(-0.00891384 0.00338597 0)
(-0.00919405 0.00337429 0)
(-0.00947352 0.00336035 0)
(-0.00975198 0.00334399 0)
(-0.0100292 0.00332506 0)
(-0.0103047 0.0033034 0)
(-0.0105782 0.0032789 0)
(-0.0108493 0.00325143 0)
(-0.0111174 0.0032209 0)
(-0.0113819 0.00318722 0)
(-0.0116423 0.00315035 0)
(-0.0118977 0.00311026 0)
(-0.0121472 0.00306696 0)
(-0.0123899 0.00302049 0)
(-0.0126246 0.00297089 0)
(-0.0128497 0.00291822 0)
(-0.0130638 0.00286251 0)
(-0.0132649 0.00280371 0)
(-0.0134509 0.00274166 0)
(-0.0136193 0.00267595 0)
(-0.0137673 0.00260585 0)
(-0.0138919 0.00253014 0)
(-0.01399 0.00244698 0)
(-0.0140587 0.00235376 0)
(-0.0140957 0.0022471 0)
(-0.0140994 0.00212292 0)
(-0.0140695 0.00197683 0)
(-2.55385e-05 0.00129266 0)
(-0.000171038 0.00261185 0)
(-0.00040808 0.00321424 0)
(-0.000656269 0.00346342 0)
(-0.000920538 0.00355735 0)
(-0.00118762 0.00359047 0)
(-0.00145588 0.00360263 0)
(-0.00172481 0.0036086 0)
(-0.0019942 0.00361316 0)
(-0.00226402 0.00361767 0)
(-0.00253432 0.00362244 0)
(-0.00280513 0.00362749 0)
(-0.0030765 0.00363282 0)
(-0.00334845 0.00363837 0)
(-0.00362103 0.00364408 0)
(-0.00389426 0.00364991 0)
(-0.00416817 0.00365579 0)
(-0.00444279 0.00366164 0)
(-0.00471813 0.0036674 0)
(-0.00499421 0.00367297 0)
(-0.00527103 0.00367826 0)
(-0.00554859 0.00368319 0)
(-0.0058269 0.00368764 0)
(-0.00610592 0.0036915 0)
(-0.00638565 0.00369465 0)
(-0.00666604 0.00369697 0)
(-0.00694706 0.00369832 0)
(-0.00722863 0.00369854 0)
(-0.0075107 0.00369751 0)
(-0.00779318 0.00369504 0)
(-0.00807595 0.00369098 0)
(-0.0083589 0.00368516 0)
(-0.00864188 0.00367739 0)
(-0.00892473 0.00366749 0)
(-0.00920723 0.00365527 0)
(-0.00948917 0.00364054 0)
(-0.00977029 0.00362311 0)
(-0.0100503 0.00360278 0)
(-0.0103288 0.00357937 0)
(-0.0106054 0.00355269 0)
(-0.0108798 0.00352256 0)
(-0.0111513 0.00348881 0)
(-0.0114193 0.00345129 0)
(-0.0116833 0.00340986 0)
(-0.0119423 0.00336437 0)
(-0.0121956 0.0033147 0)
(-0.012442 0.00326075 0)
(-0.0126805 0.00320238 0)
(-0.0129095 0.00313946 0)
(-0.0131276 0.00307177 0)
(-0.013333 0.00299905 0)
(-0.0135237 0.00292086 0)
(-0.0136974 0.00283657 0)
(-0.0138519 0.00274526 0)
(-0.0139844 0.00264562 0)
(-0.0140927 0.00253589 0)
(-0.0141744 0.00241378 0)
(-0.0142275 0.00227652 0)
(-0.014251 0.00212093 0)
(-0.0142445 0.00194376 0)
(-2.53878e-05 0.00138916 0)
(-0.000170319 0.00280625 0)
(-0.000406648 0.00345341 0)
(-0.000654254 0.0037212 0)
(-0.000917977 0.0038222 0)
(-0.00118456 0.00385787 0)
(-0.00145234 0.00387102 0)
(-0.00172082 0.00387754 0)
(-0.00198979 0.00388257 0)
(-0.00225922 0.00388755 0)
(-0.00252917 0.00389283 0)
(-0.00279967 0.00389844 0)
(-0.00307077 0.00390436 0)
(-0.00334251 0.00391054 0)
(-0.00361493 0.00391693 0)
(-0.00388807 0.00392346 0)
(-0.00416196 0.00393006 0)
(-0.00443663 0.00393667 0)
(-0.0047121 0.00394319 0)
(-0.00498841 0.00394955 0)
(-0.00526555 0.00395564 0)
(-0.00554354 0.00396136 0)
(-0.00582238 0.0039666 0)
(-0.00610207 0.00397123 0)
(-0.00638258 0.00397513 0)
(-0.0066639 0.00397816 0)
(-0.00694599 0.00398017 0)
(-0.0072288 0.003981 0)
(-0.00751226 0.0039805 0)
(-0.00779629 0.00397847 0)
(-0.00808081 0.00397474 0)
(-0.00836569 0.00396911 0)
(-0.0086508 0.00396138 0)
(-0.00893596 0.00395133 0)
(-0.009221 0.00393876 0)
(-0.00950568 0.00392344 0)
(-0.00978974 0.00390513 0)
(-0.0100729 0.0038836 0)
(-0.0103548 0.00385861 0)
(-0.010635 0.00382992 0)
(-0.0109132 0.0037973 0)
(-0.0111886 0.0037605 0)
(-0.0114609 0.00371929 0)
(-0.0117292 0.00367342 0)
(-0.0119928 0.00362265 0)
(-0.0122509 0.00356675 0)
(-0.0125023 0.00350544 0)
(-0.0127458 0.00343847 0)
(-0.0129803 0.0033655 0)
(-0.0132042 0.00328615 0)
(-0.0134159 0.00319996 0)
(-0.0136134 0.0031063 0)
(-0.0137949 0.00300439 0)
(-0.0139582 0.0028932 0)
(-0.0141012 0.00277141 0)
(-0.0142218 0.00263736 0)
(-0.0143181 0.00248906 0)
(-0.0143886 0.00232422 0)
(-0.0144321 0.00214034 0)
(-0.0144484 0.00193494 0)
(-2.5223e-05 0.00148521 0)
(-0.000169534 0.00299996 0)
(-0.000405081 0.00369192 0)
(-0.000652046 0.00397838 0)
(-0.000915166 0.00408651 0)
(-0.00118119 0.00412475 0)
(-0.00144844 0.00413893 0)
(-0.00171643 0.00414603 0)
(-0.00198492 0.00415154 0)
(-0.00225392 0.00415704 0)
(-0.00252346 0.00416287 0)
(-0.00279361 0.00416908 0)
(-0.0030644 0.00417564 0)
(-0.00333588 0.00418251 0)
(-0.00360811 0.00418963 0)
(-0.00388113 0.00419693 0)
(-0.00415496 0.00420434 0)
(-0.00442966 0.00421178 0)
(-0.00470525 0.00421916 0)
(-0.00498176 0.0042264 0)
(-0.00525922 0.00423339 0)
(-0.00553764 0.00424001 0)
(-0.00581703 0.00424616 0)
(-0.00609739 0.0042517 0)
(-0.00637872 0.00425648 0)
(-0.006661 0.00426037 0)
(-0.00694421 0.00426321 0)
(-0.00722831 0.00426481 0)
(-0.00751324 0.00426501 0)
(-0.00779894 0.0042636 0)
(-0.00808531 0.00426039 0)
(-0.00837226 0.00425516 0)
(-0.00865966 0.00424768 0)
(-0.00894734 0.00423771 0)
(-0.00923513 0.00422501 0)
(-0.00952281 0.00420932 0)
(-0.00981013 0.00419036 0)
(-0.0100968 0.00416787 0)
(-0.0103825 0.00414154 0)
(-0.0106668 0.0041111 0)
(-0.0109492 0.00407622 0)
(-0.0112293 0.00403661 0)
(-0.0115064 0.00399194 0)
(-0.0117799 0.00394188 0)
(-0.012049 0.00388608 0)
(-0.0123128 0.0038242 0)
(-0.0125703 0.00375584 0)
(-0.0128204 0.00368058 0)
(-0.0130618 0.00359797 0)
(-0.0132932 0.00350745 0)
(-0.0135129 0.00340842 0)
(-0.0137193 0.00330011 0)
(-0.0139105 0.00318163 0)
(-0.0140848 0.00305189 0)
(-0.0142403 0.00290958 0)
(-0.0143751 0.00275317 0)
(-0.0144875 0.00258092 0)
(-0.0145762 0.00239089 0)
(-0.0146402 0.0021811 0)
(-0.014679 0.00194961 0)
(-2.50433e-05 0.00158077 0)
(-0.000168677 0.00319293 0)
(-0.000403371 0.00392969 0)
(-0.000649632 0.00423491 0)
(-0.000912088 0.0043502 0)
(-0.00117749 0.00439107 0)
(-0.00144417 0.0044063 0)
(-0.00171159 0.004414 0)
(-0.00197956 0.00442004 0)
(-0.00224807 0.00442608 0)
(-0.00251716 0.0044325 0)
(-0.0027869 0.00443936 0)
(-0.00305733 0.00444662 0)
(-0.00332852 0.00445424 0)
(-0.00360051 0.00446215 0)
(-0.00387336 0.00447029 0)
(-0.00414711 0.00447858 0)
(-0.0044218 0.00448694 0)
(-0.00469748 0.00449528 0)
(-0.00497418 0.00450351 0)
(-0.00525194 0.0045115 0)
(-0.00553077 0.00451916 0)
(-0.0058107 0.00452634 0)
(-0.00609175 0.00453292 0)
(-0.00637391 0.00453874 0)
(-0.00665718 0.00454365 0)
(-0.00694156 0.00454747 0)
(-0.007227 0.00455003 0)
(-0.00751347 0.00455113 0)
(-0.00780091 0.00455055 0)
(-0.00808926 0.00454807 0)
(-0.00837841 0.00454346 0)
(-0.00866824 0.00453647 0)
(-0.00895863 0.00452682 0)
(-0.00924939 0.00451425 0)
(-0.00954033 0.00449846 0)
(-0.0098312 0.00447914 0)
(-0.0101217 0.00445597 0)
(-0.0104116 0.00442861 0)
(-0.0107004 0.0043967 0)
(-0.0109876 0.00435989 0)
(-0.0112729 0.00431778 0)
(-0.0115556 0.00426999 0)
(-0.0118351 0.00421608 0)
(-0.0121105 0.00415563 0)
(-0.0123811 0.00408815 0)
(-0.0126459 0.00401316 0)
(-0.0129037 0.0039301 0)
(-0.0131535 0.00383838 0)
(-0.0133938 0.00373734 0)
(-0.0136232 0.00362623 0)
(-0.0138402 0.00350418 0)
(-0.0140431 0.00337022 0)
(-0.0142303 0.00322323 0)
(-0.0143999 0.00306193 0)
(-0.0145505 0.00288489 0)
(-0.0146804 0.00269055 0)
(-0.0147884 0.00247727 0)
(-0.0148734 0.00224342 0)
(-0.0149348 0.00198745 0)
(-2.48479e-05 0.0016758 0)
(-0.000167746 0.00338507 0)
(-0.000401509 0.00416667 0)
(-0.000647 0.0044907 0)
(-0.000908728 0.00461323 0)
(-0.00117345 0.00465675 0)
(-0.00143948 0.00467306 0)
(-0.00170629 0.0046814 0)
(-0.00197367 0.004688 0)
(-0.00224163 0.00469462 0)
(-0.00251022 0.00470168 0)
(-0.00277949 0.00470923 0)
(-0.00304952 0.00471725 0)