/*--------------------------------*- C++ -*----------------------------------*\
  =========                 |
  \\      /  F ield         | OpenFOAM: The Open Source CFD Toolbox
   \\    /   O peration     | Website:  https://openfoam.org
    \\  /    A nd           | Version:  8
     \\/     M anipulation  |
\*---------------------------------------------------------------------------*/
FoamFile
{
    version     2.0;
    format      ascii;
    class       volScalarField;
    location    "1.1";
    object      p;
}
// * * * * * * * * * * * * * * * * * * * * * * * * * * * * * * * * * * * * * //

dimensions      [0 2 -2 0 0 0 0];

internalField   nonuniform List<scalar> 
400
(
6.08527e-15
5.37685e-10
2.78396e-09
4.65689e-09
5.53303e-09
5.9087e-09
6.11012e-09
6.33124e-09
6.64897e-09
7.07313e-09
7.59264e-09
8.17927e-09
8.76323e-09
9.248e-09
9.497e-09
9.38506e-09
8.74288e-09
7.36245e-09
4.77569e-09
1.6368e-09
1.45738e-09
2.32303e-09
4.18704e-09
5.79449e-09
6.8046e-09
7.37977e-09
7.71602e-09
7.9755e-09
8.2179e-09
8.46442e-09
8.71799e-09
8.95806e-09
9.15024e-09
9.21708e-09
9.10336e-09
8.71453e-09
7.98496e-09
6.76019e-09
4.94067e-09
2.75758e-09
4.24196e-09
4.90843e-09
6.14222e-09
7.38785e-09
8.32904e-09
8.90725e-09
9.24145e-09
9.42113e-09
9.52128e-09
9.57114e-09
9.57711e-09
9.53406e-09
9.40581e-09
9.17686e-09
8.80646e-09
8.31638e-09
7.64532e-09
6.77526e-09
5.70854e-09
4.70895e-09
6.8386e-09
7.34111e-09
8.18692e-09
9.10391e-09
9.8062e-09
1.02524e-08
1.04507e-08
1.04872e-08
1.04252e-08
1.03077e-08
1.01446e-08
9.91979e-09
9.62731e-09
9.25001e-09
8.83088e-09
8.37503e-09
7.91841e-09
7.4116e-09
6.94921e-09
6.69555e-09
8.97287e-09
9.45056e-09
1.00578e-08
1.06324e-08
1.10736e-08
1.13027e-08
1.13339e-08
1.12044e-08
1.09969e-08
1.07594e-08
1.04984e-08
1.02041e-08
9.86229e-09
9.50559e-09
9.1637e-09
8.90045e-09
8.68582e-09
8.53189e-09
8.47062e-09
8.61154e-09
1.09289e-08
1.1307e-08
1.1623e-08
1.18763e-08
1.20196e-08
1.20377e-08
1.18873e-08
1.16111e-08
1.12901e-08
1.09865e-08
1.07085e-08
1.04351e-08
1.01672e-08
9.9311e-09
9.79642e-09
9.77472e-09
9.85034e-09
9.97122e-09
1.01891e-08
1.05275e-08
1.26422e-08
1.28289e-08
1.28681e-08
1.27991e-08
1.26832e-08
1.24953e-08
1.21958e-08
1.18053e-08
1.14201e-08
1.11092e-08
1.08808e-08
1.07111e-08
1.05887e-08
1.05532e-08
1.06535e-08
1.09021e-08
1.12163e-08
1.15528e-08
1.19149e-08
1.23078e-08
1.40116e-08
1.40005e-08
1.37877e-08
1.34678e-08
1.31328e-08
1.27913e-08
1.23856e-08
1.19394e-08
1.15465e-08
1.12817e-08
1.11539e-08
1.1131e-08
1.11946e-08
1.13659e-08
1.16898e-08
1.21418e-08
1.26293e-08
1.30738e-08
1.34774e-08
1.38164e-08
1.50497e-08
1.48564e-08
1.44593e-08
1.39602e-08
1.34841e-08
1.30448e-08
1.25966e-08
1.21569e-08
1.18132e-08
1.16343e-08
1.16286e-08
1.17613e-08
1.19998e-08
1.23474e-08
1.28214e-08
1.33884e-08
1.39425e-08
1.44124e-08
1.47787e-08
1.50112e-08
1.58303e-08
1.54989e-08
1.49801e-08
1.43888e-08
1.38441e-08
1.3371e-08
1.29359e-08
1.25574e-08
1.23027e-08
1.22266e-08
1.2335e-08
1.25949e-08
1.29653e-08
1.34243e-08
1.39639e-08
1.45418e-08
1.50759e-08
1.55059e-08
1.58064e-08
1.59296e-08
1.64261e-08
1.60119e-08
1.54433e-08
1.48374e-08
1.42959e-08
1.38414e-08
1.34636e-08
1.31787e-08
1.3029e-08
1.30466e-08
1.32353e-08
1.35694e-08
1.40066e-08
1.45045e-08
1.50272e-08
1.55354e-08
1.59846e-08
1.63446e-08
1.65771e-08
1.66184e-08
1.68608e-08
1.64289e-08
1.58843e-08
1.53383e-08
1.48606e-08
1.44702e-08
1.41762e-08
1.39971e-08
1.39445e-08
1.40277e-08
1.42476e-08
1.45923e-08
1.50267e-08
1.54952e-08
1.59396e-08
1.63263e-08
1.66582e-08
1.69353e-08
1.71079e-08
1.70946e-08
1.71254e-08
1.67409e-08
1.62896e-08
1.58641e-08
1.54997e-08
1.52049e-08
1.50117e-08
1.4932e-08
1.49562e-08
1.50683e-08
1.52721e-08
1.55705e-08
1.59438e-08
1.63323e-08
1.66625e-08
1.69089e-08
1.71138e-08
1.7305e-08
1.74141e-08
1.73616e-08
1.72348e-08
1.69396e-08
1.6629e-08
1.63588e-08
1.61301e-08
1.59513e-08
1.58582e-08
1.58684e-08
1.59429e-08
1.60586e-08
1.62153e-08
1.64358e-08
1.67155e-08
1.70002e-08
1.72098e-08
1.73225e-08
1.74104e-08
1.75083e-08
1.75453e-08
1.74479e-08
1.72593e-08
1.70642e-08
1.68915e-08
1.67665e-08
1.66675e-08
1.6592e-08
1.6595e-08
1.66703e-08
1.67828e-08
1.68876e-08
1.69976e-08
1.71395e-08
1.7328e-08
1.75167e-08
1.76258e-08
1.76378e-08
1.7627e-08
1.76382e-08
1.75894e-08
1.74519e-08
1.73357e-08
1.7192e-08
1.71028e-08
1.70625e-08
1.70375e-08
1.70396e-08
1.70976e-08
1.72218e-08
1.73472e-08
1.74498e-08
1.75263e-08
1.762e-08
1.77473e-08
1.78763e-08
1.79343e-08
1.78968e-08
1.78364e-08
1.77789e-08
1.7677e-08
1.75044e-08
1.75804e-08
1.74274e-08
1.73085e-08
1.7242e-08
1.72091e-08
1.72104e-08
1.72876e-08
1.74091e-08
1.75443e-08
1.76436e-08
1.77256e-08
1.78138e-08
1.79371e-08
1.80696e-08
1.81491e-08
1.81484e-08
1.81029e-08
1.80447e-08
1.79221e-08
1.7755e-08
1.80872e-08
1.78313e-08
1.75668e-08
1.73411e-08
1.71667e-08
1.70777e-08
1.70792e-08
1.71668e-08
1.72806e-08
1.74069e-08
1.7533e-08
1.76907e-08
1.78928e-08
1.81269e-08
1.83389e-08
1.84797e-08
1.85524e-08
1.85471e-08
1.84597e-08
1.82899e-08
1.89086e-08
1.84869e-08
1.79762e-08
1.74601e-08
1.70105e-08
1.66753e-08
1.64944e-08
1.64448e-08
1.65106e-08
1.6655e-08
1.68806e-08
1.71862e-08
1.75828e-08
1.80501e-08
1.85315e-08
1.89519e-08
1.92458e-08
1.93848e-08
1.93604e-08
1.92102e-08
1.99786e-08
1.93544e-08
1.85641e-08
1.77107e-08
1.68995e-08
1.6228e-08
1.57464e-08
1.54811e-08
1.54222e-08
1.55641e-08
1.58888e-08
1.63897e-08
1.70496e-08
1.7834e-08
1.86677e-08
1.94389e-08
2.0038e-08
2.03922e-08
2.04913e-08
2.03498e-08
)
;

boundaryField
{
    movingWall
    {
        type            zeroGradient;
    }
    fixedWalls
    {
        type            zeroGradient;
    }
    left
    {
        type            cyclic;
    }
    right
    {
        type            cyclic;
    }
    frontAndBack
    {
        type            empty;
    }
}


// ************************************************************************* //
