/*--------------------------------*- C++ -*----------------------------------*\
  =========                 |
  \\      /  F ield         | OpenFOAM: The Open Source CFD Toolbox
   \\    /   O peration     | Website:  https://openfoam.org
    \\  /    A nd           | Version:  8
     \\/     M anipulation  |
\*---------------------------------------------------------------------------*/
FoamFile
{
    version     2.0;
    format      ascii;
    class       volVectorField;
    location    "45";
    object      U;
}
// * * * * * * * * * * * * * * * * * * * * * * * * * * * * * * * * * * * * * //

dimensions      [0 1 -1 0 0 0 0];

internalField   nonuniform List<vector> 
46400
(
(1.17827e-06 -1.16065e-06 0)
(9.05827e-07 3.01242e-08 0)
(-4.04784e-06 1.47181e-06 0)
(-1.257e-05 2.52603e-06 0)
(-2.36254e-05 3.16798e-06 0)
(-3.62971e-05 3.50446e-06 0)
(-4.98894e-05 3.65343e-06 0)
(-6.39526e-05 3.70127e-06 0)
(-7.82236e-05 3.70052e-06 0)
(-9.25597e-05 3.68023e-06 0)
(-0.000106891 3.65511e-06 0)
(-0.000121187 3.63159e-06 0)
(-0.000135441 3.61169e-06 0)
(-0.000149651 3.59534e-06 0)
(-0.000163822 3.58172e-06 0)
(-0.000177957 3.56991e-06 0)
(-0.000192057 3.55913e-06 0)
(-0.000206125 3.54882e-06 0)
(-0.000220159 3.5386e-06 0)
(-0.00023416 3.52824e-06 0)
(-0.000248128 3.5176e-06 0)
(-0.000262059 3.50656e-06 0)
(-0.000275954 3.49508e-06 0)
(-0.000289809 3.48309e-06 0)
(-0.000303625 3.47057e-06 0)
(-0.000317398 3.45748e-06 0)
(-0.000331126 3.4438e-06 0)
(-0.000344809 3.42952e-06 0)
(-0.000358443 3.41462e-06 0)
(-0.000372026 3.39908e-06 0)
(-0.000385557 3.38291e-06 0)
(-0.000399033 3.36609e-06 0)
(-0.000412451 3.3486e-06 0)
(-0.00042581 3.33043e-06 0)
(-0.000439107 3.31157e-06 0)
(-0.00045234 3.292e-06 0)
(-0.000465506 3.27173e-06 0)
(-0.000478602 3.25074e-06 0)
(-0.000491627 3.22901e-06 0)
(-0.000504577 3.20653e-06 0)
(-0.000517451 3.1833e-06 0)
(-0.000530244 3.15931e-06 0)
(-0.000542956 3.13455e-06 0)
(-0.000555582 3.10903e-06 0)
(-0.000568121 3.08273e-06 0)
(-0.000580569 3.05563e-06 0)
(-0.000592923 3.02774e-06 0)
(-0.000605181 2.99903e-06 0)
(-0.00061734 2.96951e-06 0)
(-0.000629397 2.93917e-06 0)
(-0.000641349 2.90802e-06 0)
(-0.000653193 2.87606e-06 0)
(-0.000664925 2.84328e-06 0)
(-0.000676544 2.80966e-06 0)
(-0.000688045 2.7752e-06 0)
(-0.000699426 2.73989e-06 0)
(-0.000710684 2.70375e-06 0)
(-0.000721815 2.66677e-06 0)
(-0.000732817 2.62897e-06 0)
(-0.000743687 2.59033e-06 0)
(-0.000754421 2.55085e-06 0)
(-0.000765015 2.51055e-06 0)
(-0.000775468 2.46944e-06 0)
(-0.000785776 2.42753e-06 0)
(-0.000795936 2.38481e-06 0)
(-0.000805944 2.3413e-06 0)
(-0.000815799 2.29701e-06 0)
(-0.000825496 2.25194e-06 0)
(-0.000835033 2.20611e-06 0)
(-0.000844407 2.15954e-06 0)
(-0.000853616 2.11224e-06 0)
(-0.000862655 2.06423e-06 0)
(-0.000871523 2.01554e-06 0)
(-0.000880217 1.96619e-06 0)
(-0.000888734 1.91619e-06 0)
(-0.000897072 1.86553e-06 0)
(-0.000905228 1.81425e-06 0)
(-0.0009132 1.76238e-06 0)
(-0.000920987 1.70997e-06 0)
(-0.000928584 1.65703e-06 0)
(-0.000935992 1.60359e-06 0)
(-0.000943208 1.54963e-06 0)
(-0.000950231 1.49518e-06 0)
(-0.000957058 1.44026e-06 0)
(-0.000963689 1.38489e-06 0)
(-0.000970123 1.32908e-06 0)
(-0.000976359 1.27282e-06 0)
(-0.000982395 1.21612e-06 0)
(-0.000988232 1.15894e-06 0)
(-0.000993869 1.10125e-06 0)
(-0.000999305 1.04297e-06 0)
(-0.00100454 9.83977e-07 0)
(-0.00100958 9.24136e-07 0)
(-0.00101441 8.63252e-07 0)
(-0.00101905 8.01058e-07 0)
(-0.00102348 7.37171e-07 0)
(-0.00102771 6.71048e-07 0)
(-0.00103173 6.01929e-07 0)
(-0.00103555 5.28766e-07 0)
(-0.00103916 4.50114e-07 0)
(-0.00104255 3.63939e-07 0)
(-0.0010457 2.67338e-07 0)
(-0.0010486 1.56156e-07 0)
(-0.00105121 2.44623e-08 0)
(-0.00105351 -1.36182e-07 0)
(-0.00105542 -3.37762e-07 0)
(-0.00105686 -5.97185e-07 0)
(-0.00105773 -9.37604e-07 0)
(-0.00105788 -1.39098e-06 0)
(-0.00105717 -2.00575e-06 0)
(-0.00105543 -2.84076e-06 0)
(-0.00105258 -3.97342e-06 0)
(-0.00104869 -5.48915e-06 0)
(-0.00104448 -7.43668e-06 0)
(-0.00104255 -9.17347e-06 0)
(-0.00104962 -7.53761e-06 0)
(-0.0010821 7.72672e-06 0)
(-0.00118172 6.98074e-05 0)
(-0.0014784 0.00028313 0)
(-0.00234356 0.0010024 0)
(-3.64487e-08 -8.4856e-07 0)
(-5.8622e-06 5.84555e-06 0)
(-2.14798e-05 1.29554e-05 0)
(-4.42957e-05 1.85135e-05 0)
(-7.25673e-05 2.23088e-05 0)
(-0.000104628 2.46531e-05 0)
(-0.000139077 2.59782e-05 0)
(-0.000174921 2.66559e-05 0)
(-0.000211514 2.69526e-05 0)
(-0.000248462 2.70419e-05 0)
(-0.000285542 2.7029e-05 0)
(-0.000322637 2.69727e-05 0)
(-0.00035969 2.69029e-05 0)
(-0.000396679 2.68325e-05 0)
(-0.000433596 2.67655e-05 0)
(-0.00047044 2.67022e-05 0)
(-0.00050721 2.66412e-05 0)
(-0.000543906 2.65812e-05 0)
(-0.000580529 2.65207e-05 0)
(-0.000617075 2.64588e-05 0)
(-0.000653542 2.63948e-05 0)
(-0.000689926 2.63283e-05 0)
(-0.000726225 2.62588e-05 0)
(-0.000762433 2.61862e-05 0)
(-0.000798547 2.61102e-05 0)
(-0.000834562 2.60305e-05 0)
(-0.000870474 2.59472e-05 0)
(-0.000906277 2.58601e-05 0)
(-0.000941967 2.57691e-05 0)
(-0.000977538 2.5674e-05 0)
(-0.00101299 2.55749e-05 0)
(-0.0010483 2.54716e-05 0)
(-0.00108349 2.53641e-05 0)
(-0.00111853 2.52522e-05 0)
(-0.00115343 2.51359e-05 0)
(-0.00118818 2.5015e-05 0)
(-0.00122276 2.48896e-05 0)
(-0.00125719 2.47595e-05 0)
(-0.00129145 2.46247e-05 0)
(-0.00132553 2.4485e-05 0)
(-0.00135942 2.43405e-05 0)
(-0.00139313 2.4191e-05 0)
(-0.00142665 2.40364e-05 0)
(-0.00145996 2.38768e-05 0)
(-0.00149306 2.3712e-05 0)
(-0.00152595 2.3542e-05 0)
(-0.00155862 2.33666e-05 0)
(-0.00159106 2.31859e-05 0)
(-0.00162326 2.29998e-05 0)
(-0.00165522 2.28081e-05 0)
(-0.00168693 2.26109e-05 0)
(-0.00171838 2.24082e-05 0)
(-0.00174957 2.21998e-05 0)
(-0.00178048 2.19857e-05 0)
(-0.00181111 2.17658e-05 0)
(-0.00184146 2.15402e-05 0)
(-0.00187151 2.13087e-05 0)
(-0.00190126 2.10715e-05 0)
(-0.00193069 2.08284e-05 0)
(-0.00195981 2.05794e-05 0)
(-0.0019886 2.03246e-05 0)
(-0.00201706 2.00639e-05 0)
(-0.00204517 1.97974e-05 0)
(-0.00207294 1.95251e-05 0)
(-0.00210034 1.9247e-05 0)
(-0.00212738 1.89631e-05 0)
(-0.00215405 1.86735e-05 0)
(-0.00218034 1.83783e-05 0)
(-0.00220624 1.80776e-05 0)
(-0.00223175 1.77713e-05 0)
(-0.00225685 1.74597e-05 0)
(-0.00228154 1.71428e-05 0)
(-0.00230582 1.68208e-05 0)
(-0.00232967 1.64938e-05 0)
(-0.00235309 1.6162e-05 0)
(-0.00237608 1.58255e-05 0)
(-0.00239862 1.54846e-05 0)
(-0.00242072 1.51393e-05 0)
(-0.00244236 1.47901e-05 0)
(-0.00246354 1.44372e-05 0)
(-0.00248427 1.40808e-05 0)
(-0.00250452 1.37212e-05 0)
(-0.00252431 1.33587e-05 0)
(-0.00254362 1.29937e-05 0)
(-0.00256246 1.26265e-05 0)
(-0.00258082 1.22576e-05 0)
(-0.0025987 1.18872e-05 0)
(-0.00261611 1.15158e-05 0)
(-0.00263303 1.11438e-05 0)
(-0.00264949 1.07716e-05 0)
(-0.00266547 1.03996e-05 0)
(-0.00268099 1.0028e-05 0)
(-0.00269604 9.65706e-06 0)
(-0.00271064 9.28688e-06 0)
(-0.00272478 8.91737e-06 0)
(-0.00273849 8.54813e-06 0)
(-0.00275177 8.17827e-06 0)
(-0.00276463 7.8062e-06 0)
(-0.00277708 7.42934e-06 0)
(-0.00278913 7.04373e-06 0)
(-0.00280079 6.64337e-06 0)
(-0.00281206 6.21941e-06 0)
(-0.00282295 5.75906e-06 0)
(-0.00283346 5.24451e-06 0)
(-0.00284356 4.65203e-06 0)
(-0.00285324 3.95184e-06 0)
(-0.00286249 3.11036e-06 0)
(-0.00287131 2.09725e-06 0)
(-0.00287976 9.00844e-07 0)
(-0.00288808 -4.42685e-07 0)
(-0.00289686 -1.76913e-06 0)
(-0.00290737 -2.64172e-06 0)
(-0.00292229 -2.04289e-06 0)
(-0.0029468 2.30347e-06 0)
(-0.00299065 1.5814e-05 0)
(-0.00307184 5.12639e-05 0)
(-0.00322094 0.000137302 0)
(-0.00348893 0.000336723 0)
(-0.00395866 0.000778034 0)
(-0.00466178 0.00170906 0)
(-1.51799e-06 4.17218e-06 0)
(-1.31696e-05 2.15348e-05 0)
(-3.869e-05 3.83323e-05 0)
(-7.35136e-05 5.1668e-05 0)
(-0.000115414 6.11447e-05 0)
(-0.000162382 6.73275e-05 0)
(-0.000212669 7.10686e-05 0)
(-0.000264991 7.31616e-05 0)
(-0.000318481 7.42196e-05 0)
(-0.000372586 7.46705e-05 0)
(-0.00042697 7.47909e-05 0)
(-0.000481446 7.47465e-05 0)
(-0.000535913 7.46293e-05 0)
(-0.000590323 7.44851e-05 0)
(-0.000644653 7.43341e-05 0)
(-0.000698893 7.4183e-05 0)
(-0.000753036 7.40324e-05 0)
(-0.000807081 7.3881e-05 0)
(-0.000861023 7.37267e-05 0)
(-0.000914858 7.35677e-05 0)
(-0.000968581 7.34028e-05 0)
(-0.00102219 7.32307e-05 0)
(-0.00107567 7.30507e-05 0)
(-0.00112903 7.28622e-05 0)
(-0.00118225 7.26647e-05 0)
(-0.00123533 7.24578e-05 0)
(-0.00128827 7.22411e-05 0)
(-0.00134105 7.20145e-05 0)
(-0.00139366 7.17775e-05 0)
(-0.00144611 7.153e-05 0)
(-0.00149838 7.12717e-05 0)
(-0.00155047 7.10024e-05 0)
(-0.00160236 7.0722e-05 0)
(-0.00165406 7.043e-05 0)
(-0.00170554 7.01265e-05 0)
(-0.00175681 6.9811e-05 0)
(-0.00180786 6.94834e-05 0)
(-0.00185867 6.91436e-05 0)
(-0.00190924 6.87912e-05 0)
(-0.00195956 6.84262e-05 0)
(-0.00200962 6.80482e-05 0)
(-0.00205941 6.76572e-05 0)
(-0.00210893 6.72528e-05 0)
(-0.00215815 6.6835e-05 0)
(-0.00220708 6.64034e-05 0)
(-0.00225571 6.5958e-05 0)
(-0.00230401 6.54985e-05 0)
(-0.002352 6.50248e-05 0)
(-0.00239964 6.45366e-05 0)
(-0.00244694 6.40339e-05 0)
(-0.00249389 6.35165e-05 0)
(-0.00254046 6.29841e-05 0)
(-0.00258666 6.24366e-05 0)
(-0.00263248 6.1874e-05 0)
(-0.00267789 6.1296e-05 0)
(-0.0027229 6.07026e-05 0)
(-0.00276748 6.00937e-05 0)
(-0.00281164 5.94691e-05 0)
(-0.00285535 5.88289e-05 0)
(-0.00289861 5.81731e-05 0)
(-0.00294141 5.75015e-05 0)
(-0.00298374 5.68142e-05 0)
(-0.00302557 5.61112e-05 0)
(-0.00306692 5.53926e-05 0)
(-0.00310775 5.46583e-05 0)
(-0.00314807 5.39086e-05 0)
(-0.00318786 5.31435e-05 0)
(-0.00322711 5.23633e-05 0)
(-0.00326581 5.1568e-05 0)
(-0.00330395 5.07581e-05 0)
(-0.00334152 4.99337e-05 0)
(-0.00337852 4.90952e-05 0)
(-0.00341492 4.82429e-05 0)
(-0.00345072 4.73774e-05 0)
(-0.00348592 4.64989e-05 0)
(-0.0035205 4.56083e-05 0)
(-0.00355446 4.47059e-05 0)
(-0.00358779 4.37926e-05 0)
(-0.00362048 4.28689e-05 0)
(-0.00365253 4.19359e-05 0)
(-0.00368392 4.09943e-05 0)
(-0.00371467 4.00452e-05 0)
(-0.00374476 3.90897e-05 0)
(-0.00377419 3.8129e-05 0)
(-0.00380295 3.71645e-05 0)
(-0.00383106 3.61975e-05 0)
(-0.00385851 3.52296e-05 0)
(-0.0038853 3.42625e-05 0)
(-0.00391145 3.32981e-05 0)
(-0.00393694 3.23381e-05 0)
(-0.00396181 3.13846e-05 0)
(-0.00398604 3.04398e-05 0)
(-0.00400967 2.95058e-05 0)
(-0.00403271 2.85848e-05 0)
(-0.00405517 2.76788e-05 0)
(-0.00407709 2.67896e-05 0)
(-0.00409848 2.59185e-05 0)
(-0.00411939 2.5066e-05 0)
(-0.00413985 2.42316e-05 0)
(-0.0041599 2.34124e-05 0)
(-0.00417959 2.26035e-05 0)
(-0.00419897 2.17961e-05 0)
(-0.0042181 2.09772e-05 0)
(-0.00423707 2.013e-05 0)
(-0.00425596 1.92359e-05 0)
(-0.0042749 1.82825e-05 0)
(-0.00429408 1.72807e-05 0)
(-0.00431379 1.63007e-05 0)
(-0.00433454 1.55414e-05 0)
(-0.00435721 1.54597e-05 0)
(-0.00438335 1.70036e-05 0)
(-0.00441561 2.2045e-05 0)
(-0.00445852 3.41569e-05 0)
(-0.00451952 6.00467e-05 0)
(-0.0046103 0.000112013 0)
(-0.00474802 0.000212148 0)
(-0.00495472 0.000398721 0)
(-0.00525332 0.000732475 0)
(-0.00564901 0.00129796 0)
(-0.0060459 0.00218482 0)
(-2.63528e-06 1.28836e-05 0)
(-1.90399e-05 4.46757e-05 0)
(-5.27215e-05 7.33121e-05 0)
(-9.71235e-05 9.58354e-05 0)
(-0.00014953 0.000112002 0)
(-0.0002077 0.000122772 0)
(-0.000269701 0.000129483 0)
(-0.000334108 0.000133386 0)
(-0.000399945 0.000135474 0)
(-0.000466573 0.000136459 0)
(-0.000533595 0.000136818 0)
(-0.000600777 0.000136844 0)
(-0.000667986 0.000136706 0)
(-0.000735155 0.000136496 0)
(-0.000802245 0.000136257 0)
(-0.000869238 0.000136006 0)
(-0.000936122 0.000135748 0)
(-0.00100289 0.000135484 0)
(-0.00106954 0.000135212 0)
(-0.00113605 0.000134931 0)
(-0.00120243 0.000134637 0)
(-0.00126867 0.00013433 0)
(-0.00133475 0.000134008 0)
(-0.00140068 0.000133671 0)
(-0.00146644 0.000133317 0)
(-0.00153203 0.000132946 0)
(-0.00159744 0.000132557 0)
(-0.00166265 0.000132151 0)
(-0.00172766 0.000131726 0)
(-0.00179247 0.000131282 0)
(-0.00185705 0.000130819 0)
(-0.00192141 0.000130336 0)
(-0.00198553 0.000129833 0)
(-0.00204941 0.00012931 0)
(-0.00211302 0.000128765 0)
(-0.00217637 0.0001282 0)
(-0.00223945 0.000127613 0)
(-0.00230223 0.000127003 0)
(-0.00236472 0.000126372 0)
(-0.0024269 0.000125718 0)
(-0.00248876 0.00012504 0)
(-0.00255029 0.00012434 0)
(-0.00261148 0.000123615 0)
(-0.00267231 0.000122867 0)
(-0.00273278 0.000122094 0)
(-0.00279288 0.000121296 0)
(-0.00285259 0.000120473 0)
(-0.00291189 0.000119625 0)
(-0.00297079 0.000118751 0)
(-0.00302926 0.000117851 0)
(-0.0030873 0.000116925 0)
(-0.00314488 0.000115972 0)
(-0.00320201 0.000114992 0)
(-0.00325866 0.000113986 0)
(-0.00331483 0.000112952 0)
(-0.00337049 0.00011189 0)
(-0.00342565 0.000110801 0)
(-0.00348027 0.000109684 0)
(-0.00353436 0.000108539 0)
(-0.0035879 0.000107366 0)
(-0.00364088 0.000106165 0)
(-0.00369327 0.000104936 0)
(-0.00374508 0.000103679 0)
(-0.00379628 0.000102395 0)
(-0.00384687 0.000101083 0)
(-0.00389683 9.97429e-05 0)
(-0.00394614 9.8376e-05 0)
(-0.0039948 9.69822e-05 0)
(-0.0040428 9.5562e-05 0)
(-0.00409012 9.41158e-05 0)
(-0.00413674 9.26443e-05 0)
(-0.00418267 9.11479e-05 0)
(-0.00422789 8.96275e-05 0)
(-0.00427238 8.8084e-05 0)
(-0.00431614 8.65182e-05 0)
(-0.00435915 8.49313e-05 0)
(-0.00440142 8.33246e-05 0)
(-0.00444293 8.16993e-05 0)
(-0.00448367 8.00571e-05 0)
(-0.00452364 7.83995e-05 0)
(-0.00456283 7.67286e-05 0)
(-0.00460124 7.50463e-05 0)
(-0.00463887 7.33551e-05 0)
(-0.00467572 7.16575e-05 0)
(-0.00471178 6.99564e-05 0)
(-0.00474705 6.82548e-05 0)
(-0.00478156 6.65564e-05 0)
(-0.00481529 6.48648e-05 0)
(-0.00484826 6.31843e-05 0)
(-0.00488048 6.15194e-05 0)
(-0.00491197 5.98751e-05 0)
(-0.00494275 5.8257e-05 0)
(-0.00497284 5.66709e-05 0)
(-0.00500227 5.51233e-05 0)
(-0.00503107 5.36209e-05 0)
(-0.00505929 5.2171e-05 0)
(-0.00508698 5.07809e-05 0)
(-0.00511419 4.94581e-05 0)
(-0.00514099 4.82101e-05 0)
(-0.00516745 4.70435e-05 0)
(-0.00519368 4.59647e-05 0)
(-0.00521979 4.49793e-05 0)
(-0.00524592 4.40943e-05 0)
(-0.00527223 4.33216e-05 0)
(-0.00529897 4.26886e-05 0)
(-0.00532641 4.22581e-05 0)
(-0.005355 4.21693e-05 0)
(-0.00538535 4.27117e-05 0)
(-0.00541839 4.44558e-05 0)
(-0.00545553 4.84764e-05 0)
(-0.00549894 5.67185e-05 0)
(-0.0055519 7.25927e-05 0)
(-0.00561923 0.000101924 0)
(-0.00570772 0.000154398 0)
(-0.00582612 0.00024556 0)
(-0.00598396 0.000399206 0)
(-0.00618781 0.00064916 0)
(-0.00643366 0.00103709 0)
(-0.00668913 0.00160171 0)
(-0.00685546 0.00234776 0)
(-3.35547e-06 2.43381e-05 0)
(-2.32142e-05 7.36567e-05 0)
(-6.30505e-05 0.00011582 0)
(-0.00011465 0.000148477 0)
(-0.000174837 0.000171912 0)
(-0.000241166 0.000187665 0)
(-0.000311578 0.000197635 0)
(-0.000384576 0.000203564 0)
(-0.000459138 0.00020684 0)
(-0.000534588 0.000208472 0)
(-0.0006105 0.000209143 0)
(-0.000686617 0.000209285 0)
(-0.00076279 0.000209154 0)
(-0.000838936 0.000208889 0)
(-0.000915009 0.000208562 0)
(-0.000990982 0.000208204 0)
(-0.00106684 0.000207829 0)
(-0.00114257 0.000207438 0)
(-0.00121816 0.000207031 0)
(-0.0012936 0.000206606 0)
(-0.00136889 0.000206162 0)
(-0.00144402 0.000205696 0)
(-0.00151898 0.000205207 0)
(-0.00159375 0.000204694 0)
(-0.00166833 0.000204156 0)
(-0.00174271 0.000203592 0)
(-0.00181688 0.000203 0)
(-0.00189083 0.000202382 0)
(-0.00196455 0.000201735 0)
(-0.00203803 0.000201059 0)
(-0.00211126 0.000200354 0)
(-0.00218423 0.00019962 0)
(-0.00225692 0.000198854 0)
(-0.00232933 0.000198058 0)
(-0.00240144 0.00019723 0)
(-0.00247325 0.00019637 0)
(-0.00254474 0.000195477 0)
(-0.0026159 0.000194552 0)
(-0.00268672 0.000193592 0)
(-0.00275719 0.000192598 0)
(-0.00282729 0.00019157 0)
(-0.00289701 0.000190506 0)
(-0.00296634 0.000189406 0)
(-0.00303527 0.00018827 0)
(-0.00310378 0.000187097 0)
(-0.00317186 0.000185887 0)
(-0.0032395 0.000184639 0)
(-0.00330669 0.000183353 0)
(-0.0033734 0.000182028 0)
(-0.00343963 0.000180665 0)
(-0.00350537 0.000179261 0)
(-0.00357059 0.000177818 0)
(-0.00363529 0.000176334 0)
(-0.00369945 0.00017481 0)
(-0.00376305 0.000173244 0)
(-0.00382609 0.000171638 0)
(-0.00388855 0.00016999 0)
(-0.00395041 0.0001683 0)
(-0.00401167 0.000166569 0)
(-0.00407229 0.000164796 0)
(-0.00413228 0.000162981 0)
(-0.00419161 0.000161125 0)
(-0.00425028 0.000159226 0)
(-0.00430826 0.000157286 0)
(-0.00436555 0.000155305 0)
(-0.00442212 0.000153283 0)
(-0.00447798 0.000151221 0)
(-0.00453309 0.000149119 0)
(-0.00458745 0.000146977 0)
(-0.00464105 0.000144797 0)
(-0.00469388 0.00014258 0)
(-0.00474591 0.000140326 0)
(-0.00479715 0.000138037 0)
(-0.00484757 0.000135715 0)
(-0.00489717 0.00013336 0)
(-0.00494594 0.000130975 0)
(-0.00499386 0.000128561 0)
(-0.00504094 0.000126121 0)
(-0.00508716 0.000123658 0)
(-0.00513252 0.000121174 0)
(-0.00517702 0.000118672 0)
(-0.00522064 0.000116157 0)
(-0.0052634 0.000113631 0)
(-0.00530528 0.0001111 0)
(-0.0053463 0.000108567 0)
(-0.00538645 0.00010604 0)
(-0.00542575 0.000103523 0)
(-0.0054642 0.000101023 0)
(-0.00550182 9.85477e-05 0)
(-0.00553863 9.61057e-05 0)
(-0.00557464 9.37059e-05 0)
(-0.00560989 9.13587e-05 0)
(-0.00564442 8.90754e-05 0)
(-0.00567824 8.68689e-05 0)
(-0.00571143 8.47533e-05 0)
(-0.00574402 8.27442e-05 0)
(-0.0057761 8.08592e-05 0)
(-0.00580773 7.91178e-05 0)
(-0.00583901 7.75418e-05 0)
(-0.00587006 7.6156e-05 0)
(-0.00590102 7.49893e-05 0)
(-0.00593205 7.40773e-05 0)
(-0.00596336 7.34672e-05 0)
(-0.00599522 7.32277e-05 0)
(-0.00602796 7.34688e-05 0)
(-0.00606204 7.43772e-05 0)
(-0.00609807 7.6279e-05 0)
(-0.00613688 7.97474e-05 0)
(-0.00617964 8.57767e-05 0)
(-0.00622799 9.60573e-05 0)
(-0.00628415 0.000113389 0)
(-0.00635113 0.000142277 0)
(-0.00643272 0.000189752 0)
(-0.00653323 0.000266379 0)
(-0.0066566 0.000387274 0)
(-0.00680414 0.000572561 0)
(-0.00697047 0.000845987 0)
(-0.00713754 0.00122952 0)
(-0.00726546 0.00173177 0)
(-0.00728314 0.00232565 0)
(-3.77098e-06 3.76338e-05 0)
(-2.59451e-05 0.000106854 0)
(-7.01124e-05 0.000163907 0)
(-0.000126838 0.000207424 0)
(-0.000192561 0.000238512 0)
(-0.000264643 0.000259464 0)
(-0.000340922 0.00027283 0)
(-0.000419856 0.000280882 0)
(-0.0005004 0.00028542 0)
(-0.000581871 0.000287753 0)
(-0.000663832 0.000288776 0)
(-0.000746021 0.000289062 0)
(-0.000828281 0.000288953 0)
(-0.000910522 0.000288642 0)
(-0.000992694 0.000288229 0)
(-0.00107476 0.000287761 0)
(-0.00115671 0.000287259 0)
(-0.00123853 0.00028673 0)
(-0.00132019 0.000286175 0)
(-0.0014017 0.000285593 0)
(-0.00148304 0.000284981 0)
(-0.0015642 0.000284338 0)
(-0.00164517 0.000283662 0)
(-0.00172594 0.000282952 0)
(-0.0018065 0.000282207 0)
(-0.00188684 0.000281425 0)
(-0.00196695 0.000280606 0)
(-0.00204682 0.00027975 0)
(-0.00212643 0.000278854 0)
(-0.00220578 0.000277918 0)
(-0.00228485 0.000276942 0)
(-0.00236363 0.000275925 0)
(-0.00244212 0.000274865 0)
(-0.00252029 0.000273763 0)
(-0.00259814 0.000272618 0)
(-0.00267565 0.000271428 0)
(-0.00275282 0.000270194 0)
(-0.00282962 0.000268914 0)
(-0.00290605 0.000267588 0)
(-0.00298209 0.000266215 0)
(-0.00305772 0.000264794 0)
(-0.00313295 0.000263324 0)
(-0.00320775 0.000261806 0)
(-0.0032821 0.000260238 0)
(-0.003356 0.00025862 0)
(-0.00342944 0.000256951 0)
(-0.00350238 0.00025523 0)
(-0.00357483 0.000253456 0)
(-0.00364677 0.00025163 0)
(-0.00371818 0.000249751 0)
(-0.00378905 0.000247818 0)
(-0.00385936 0.00024583 0)
(-0.0039291 0.000243787 0)
(-0.00399826 0.000241689 0)
(-0.00406681 0.000239535 0)
(-0.00413474 0.000237324 0)
(-0.00420205 0.000235058 0)
(-0.0042687 0.000232735 0)
(-0.00433469 0.000230355 0)
(-0.0044 0.000227919 0)
(-0.00446462 0.000225425 0)
(-0.00452853 0.000222876 0)
(-0.00459172 0.000220269 0)
(-0.00465416 0.000217607 0)
(-0.00471586 0.000214888 0)
(-0.00477678 0.000212115 0)
(-0.00483692 0.000209286 0)
(-0.00489626 0.000206405 0)
(-0.00495479 0.00020347 0)
(-0.00501249 0.000200484 0)
(-0.00506936 0.000197448 0)
(-0.00512537 0.000194363 0)
(-0.00518052 0.000191231 0)
(-0.0052348 0.000188054 0)
(-0.00528819 0.000184835 0)
(-0.00534068 0.000181576 0)
(-0.00539227 0.000178281 0)
(-0.00544295 0.000174951 0)
(-0.0054927 0.000171592 0)
(-0.00554154 0.000168208 0)
(-0.00558944 0.000164802 0)
(-0.00563641 0.00016138 0)
(-0.00568245 0.000157949 0)
(-0.00572756 0.000154514 0)
(-0.00577175 0.000151083 0)
(-0.00581501 0.000147664 0)
(-0.00585737 0.000144266 0)
(-0.00589882 0.000140899 0)
(-0.0059394 0.000137575 0)
(-0.00597912 0.000134307 0)
(-0.00601801 0.000131108 0)
(-0.0060561 0.000127996 0)
(-0.00609344 0.000124988 0)
(-0.00613005 0.000122105 0)
(-0.00616602 0.000119371 0)
(-0.00620139 0.000116813 0)
(-0.00623626 0.000114461 0)
(-0.00627071 0.000112351 0)
(-0.00630487 0.000110526 0)
(-0.00633887 0.000109034 0)
(-0.00637288 0.000107936 0)
(-0.00640711 0.000107309 0)
(-0.00644181 0.000107256 0)
(-0.00647732 0.00010792 0)
(-0.00651404 0.000109515 0)
(-0.0065525 0.000112372 0)
(-0.0065934 0.000117016 0)
(-0.00663764 0.000124295 0)
(-0.00668639 0.000135563 0)
(-0.00674115 0.000152958 0)
(-0.00680375 0.000179779 0)
(-0.0068763 0.000220959 0)
(-0.00696089 0.000283608 0)
(-0.00705898 0.000377492 0)
(-0.00717014 0.000515157 0)
(-0.00728993 0.000711161 0)
(-0.007407 0.000979465 0)
(-0.00749987 0.00132803 0)
(-0.00753437 0.00175024 0)
(-0.00746582 0.00221271 0)
(-3.98976e-06 5.20622e-05 0)
(-2.76215e-05 0.000142854 0)
(-7.46653e-05 0.000215818 0)
(-0.000134871 0.000270743 0)
(-0.00020438 0.000309749 0)
(-0.000280391 0.000336017 0)
(-0.00036065 0.000352828 0)
(-0.000443574 0.000363028 0)
(-0.000528111 0.000368842 0)
(-0.000613575 0.00037189 0)
(-0.000699532 0.000373278 0)
(-0.000785721 0.000373718 0)
(-0.000871985 0.000373639 0)
(-0.000958234 0.000373285 0)
(-0.00104441 0.000372787 0)
(-0.00113049 0.000372207 0)
(-0.00121644 0.000371574 0)
(-0.00130225 0.000370899 0)
(-0.00138791 0.000370187 0)
(-0.0014734 0.000369435 0)
(-0.00155871 0.000368643 0)
(-0.00164383 0.000367809 0)
(-0.00172875 0.000366932 0)
(-0.00181346 0.000366009 0)
(-0.00189794 0.00036504 0)
(-0.00198219 0.000364024 0)
(-0.00206619 0.000362959 0)
(-0.00214993 0.000361845 0)
(-0.0022334 0.00036068 0)
(-0.0023166 0.000359463 0)
(-0.00239949 0.000358194 0)
(-0.00248208 0.000356872 0)
(-0.00256435 0.000355495 0)
(-0.00264629 0.000354063 0)
(-0.00272788 0.000352575 0)
(-0.00280911 0.000351029 0)
(-0.00288998 0.000349426 0)
(-0.00297046 0.000347765 0)
(-0.00305054 0.000346043 0)
(-0.0031302 0.000344261 0)
(-0.00320945 0.000342418 0)
(-0.00328825 0.000340512 0)
(-0.0033666 0.000338544 0)
(-0.00344448 0.000336511 0)
(-0.00352187 0.000334414 0)
(-0.00359877 0.000332251 0)
(-0.00367515 0.000330022 0)
(-0.00375101 0.000327726 0)
(-0.00382632 0.000325362 0)
(-0.00390108 0.000322929 0)
(-0.00397526 0.000320427 0)
(-0.00404885 0.000317856 0)
(-0.00412184 0.000315214 0)
(-0.00419421 0.000312501 0)
(-0.00426594 0.000309716 0)
(-0.00433701 0.00030686 0)
(-0.00440742 0.000303932 0)
(-0.00447714 0.000300932 0)
(-0.00454617 0.000297859 0)
(-0.00461447 0.000294714 0)
(-0.00468205 0.000291496 0)
(-0.00474887 0.000288206 0)
(-0.00481493 0.000284844 0)
(-0.00488022 0.000281411 0)
(-0.0049447 0.000277907 0)
(-0.00500838 0.000274332 0)
(-0.00507123 0.000270688 0)
(-0.00513324 0.000266976 0)
(-0.00519439 0.000263198 0)
(-0.00525468 0.000259354 0)
(-0.00531409 0.000255447 0)
(-0.0053726 0.000251478 0)
(-0.0054302 0.000247451 0)
(-0.00548688 0.000243368 0)
(-0.00554263 0.000239232 0)
(-0.00559744 0.000235047 0)
(-0.0056513 0.000230816 0)
(-0.00570421 0.000226544 0)
(-0.00575615 0.000222237 0)
(-0.00580712 0.000217899 0)
(-0.00585711 0.000213537 0)
(-0.00590613 0.000209159 0)
(-0.00595418 0.000204771 0)
(-0.00600125 0.000200384 0)
(-0.00604736 0.000196006 0)
(-0.0060925 0.00019165 0)
(-0.00613669 0.000187327 0)
(-0.00617995 0.000183051 0)
(-0.0062223 0.000178839 0)
(-0.00626375 0.000174708 0)
(-0.00630433 0.000170679 0)
(-0.00634409 0.000166774 0)
(-0.00638307 0.000163019 0)
(-0.00642131 0.000159445 0)
(-0.00645888 0.000156085 0)
(-0.00649585 0.00015298 0)
(-0.00653231 0.000150176 0)
(-0.00656836 0.000147726 0)
(-0.00660413 0.000145697 0)
(-0.00663978 0.000144166 0)
(-0.00667548 0.00014323 0)
(-0.00671146 0.000143014 0)
(-0.006748 0.000143681 0)
(-0.00678545 0.000145455 0)
(-0.00682422 0.000148652 0)
(-0.00686486 0.000153739 0)
(-0.00690804 0.000161412 0)
(-0.00695457 0.000172721 0)
(-0.00700545 0.000189246 0)
(-0.00706178 0.000213332 0)
(-0.00712475 0.000248374 0)
(-0.00719535 0.000299126 0)
(-0.00727399 0.000371958 0)
(-0.00735979 0.000474905 0)
(-0.00744941 0.000617254 0)
(-0.0075356 0.000808274 0)
(-0.00760555 0.00105462 0)
(-0.00763996 0.00135618 0)
(-0.00761369 0.00170074 0)
(-0.00750068 0.00205859 0)
(-4.09416e-06 6.71449e-05 0)
(-2.85943e-05 0.000180616 0)
(-7.74534e-05 0.00027022 0)
(-0.000139918 0.000336961 0)
(-0.000211923 0.000384079 0)
(-0.000290533 0.000415735 0)
(-0.000373416 0.000436004 0)
(-0.000458956 0.000448342 0)
(-0.00054609 0.000455421 0)
(-0.000634135 0.000459175 0)
(-0.000722663 0.000460924 0)
(-0.000811415 0.000461515 0)
(-0.000900239 0.000461466 0)
(-0.000989045 0.000461069 0)
(-0.00107778 0.000460484 0)
(-0.00116641 0.00045979 0)
(-0.00125492 0.000459022 0)
(-0.00134327 0.000458197 0)
(-0.00143147 0.00045732 0)
(-0.0015195 0.000456392 0)
(-0.00160734 0.000455412 0)
(-0.00169499 0.000454378 0)
(-0.00178242 0.000453288 0)
(-0.00186964 0.000452143 0)
(-0.00195662 0.000450939 0)
(-0.00204335 0.000449675 0)
(-0.00212983 0.000448351 0)
(-0.00221604 0.000446966 0)
(-0.00230197 0.000445517 0)
(-0.00238761 0.000444005 0)
(-0.00247293 0.000442427 0)
(-0.00255794 0.000440784 0)
(-0.00264261 0.000439073 0)
(-0.00272694 0.000437294 0)
(-0.00281091 0.000435445 0)
(-0.0028945 0.000433526 0)
(-0.00297771 0.000431536 0)
(-0.00306052 0.000429473 0)
(-0.00314291 0.000427336 0)
(-0.00322488 0.000425125 0)
(-0.0033064 0.000422838 0)
(-0.00338746 0.000420475 0)
(-0.00346805 0.000418034 0)
(-0.00354815 0.000415514 0)
(-0.00362776 0.000412914 0)
(-0.00370684 0.000410234 0)
(-0.00378539 0.000407472 0)
(-0.00386339 0.000404628 0)
(-0.00394083 0.0004017 0)
(-0.00401769 0.000398688 0)
(-0.00409395 0.000395591 0)
(-0.0041696 0.000392409 0)
(-0.00424462 0.00038914 0)
(-0.004319 0.000385784 0)
(-0.00439271 0.000382341 0)
(-0.00446575 0.00037881 0)
(-0.0045381 0.00037519 0)
(-0.00460974 0.000371482 0)
(-0.00468065 0.000367685 0)
(-0.00475082 0.0003638 0)
(-0.00482023 0.000359826 0)
(-0.00488886 0.000355764 0)
(-0.00495671 0.000351613 0)
(-0.00502374 0.000347376 0)
(-0.00508996 0.000343052 0)
(-0.00515533 0.000338642 0)
(-0.00521985 0.000334148 0)
(-0.0052835 0.000329571 0)
(-0.00534627 0.000324913 0)
(-0.00540814 0.000320176 0)
(-0.00546909 0.000315362 0)
(-0.00552912 0.000310474 0)
(-0.00558821 0.000305515 0)
(-0.00564635 0.000300489 0)
(-0.00570353 0.000295399 0)
(-0.00575974 0.00029025 0)
(-0.00581496 0.000285047 0)
(-0.0058692 0.000279795 0)
(-0.00592244 0.000274502 0)
(-0.00597467 0.000269174 0)
(-0.0060259 0.00026382 0)
(-0.00607613 0.000258447 0)
(-0.00612534 0.000253068 0)
(-0.00617355 0.000247691 0)
(-0.00622076 0.000242332 0)
(-0.00626698 0.000237002 0)
(-0.00631221 0.00023172 0)
(-0.00635648 0.000226502 0)
(-0.0063998 0.00022137 0)
(-0.00644219 0.000216346 0)
(-0.00648369 0.000211456 0)
(-0.00652434 0.000206731 0)
(-0.00656417 0.000202204 0)
(-0.00660323 0.000197916 0)
(-0.0066416 0.000193912 0)
(-0.00667934 0.000190244 0)
(-0.00671654 0.000186976 0)
(-0.00675331 0.00018418 0)
(-0.00678978 0.000181946 0)
(-0.00682609 0.000180382 0)
(-0.00686244 0.000179621 0)
(-0.00689903 0.000179834 0)
(-0.00693614 0.00018124 0)
(-0.0069741 0.000184135 0)
(-0.00701329 0.000188925 0)
(-0.0070542 0.000196176 0)
(-0.00709737 0.0002067 0)
(-0.00714346 0.000221654 0)
(-0.00719313 0.000242691 0)
(-0.00724705 0.000272128 0)
(-0.00730567 0.000313138 0)
(-0.00736899 0.000369892 0)
(-0.00743615 0.000447606 0)
(-0.00750473 0.000552326 0)
(-0.00757002 0.000690294 0)
(-0.00762409 0.000866667 0)
(-0.00765524 0.00108343 0)
(-0.00764821 0.00133661 0)
(-0.00758594 0.00161342 0)
(-0.00745405 0.00189044 0)
(-4.13687e-06 8.25835e-05 0)
(-2.91269e-05 0.000219433 0)
(-7.90784e-05 0.000326176 0)
(-0.000142951 0.000405033 0)
(-0.000216543 0.000460411 0)
(-0.000296821 0.000497507 0)
(-0.00038139 0.000521238 0)
(-0.000468605 0.000535696 0)
(-0.000557394 0.000544019 0)
(-0.000647071 0.000548461 0)
(-0.000737215 0.000550556 0)
(-0.000827572 0.000551292 0)
(-0.000917993 0.000551267 0)
(-0.00100839 0.000550825 0)
(-0.00109872 0.000550151 0)
(-0.00118893 0.000549339 0)
(-0.00127902 0.000548434 0)
(-0.00136896 0.000547455 0)
(-0.00145874 0.00054641 0)
(-0.00154835 0.000545301 0)
(-0.00163776 0.000544127 0)
(-0.00172697 0.000542887 0)
(-0.00181597 0.000541579 0)
(-0.00190474 0.000540203 0)
(-0.00199327 0.000538756 0)
(-0.00208156 0.000537238 0)
(-0.00216957 0.000535646 0)
(-0.00225732 0.000533981 0)
(-0.00234477 0.000532239 0)
(-0.00243192 0.000530421 0)
(-0.00251875 0.000528525 0)
(-0.00260526 0.00052655 0)
(-0.00269143 0.000524494 0)
(-0.00277724 0.000522356 0)
(-0.00286268 0.000520136 0)
(-0.00294774 0.000517831 0)
(-0.0030324 0.00051544 0)
(-0.00311665 0.000512963 0)
(-0.00320048 0.000510399 0)
(-0.00328387 0.000507745 0)
(-0.0033668 0.000505 0)
(-0.00344926 0.000502165 0)
(-0.00353124 0.000499236 0)
(-0.00361272 0.000496214 0)
(-0.00369369 0.000493096 0)
(-0.00377412 0.000489883 0)
(-0.00385401 0.000486572 0)
(-0.00393334 0.000483163 0)
(-0.00401209 0.000479655 0)
(-0.00409024 0.000476047 0)
(-0.00416779 0.000472338 0)
(-0.00424471 0.000468526 0)
(-0.00432098 0.000464612 0)
(-0.0043966 0.000460594 0)
(-0.00447154 0.000456473 0)
(-0.00454579 0.000452247 0)
(-0.00461933 0.000447916 0)
(-0.00469214 0.00044348 0)
(-0.00476421 0.000438939 0)
(-0.00483552 0.000434292 0)
(-0.00490605 0.000429541 0)
(-0.0049758 0.000424684 0)
(-0.00504473 0.000419724 0)
(-0.00511284 0.00041466 0)
(-0.0051801 0.000409493 0)
(-0.00524651 0.000404226 0)
(-0.00531204 0.000398858 0)
(-0.00537668 0.000393393 0)
(-0.00544042 0.000387831 0)
(-0.00550324 0.000382176 0)
(-0.00556513 0.000376431 0)
(-0.00562607 0.000370598 0)
(-0.00568605 0.000364682 0)
(-0.00574506 0.000358686 0)
(-0.00580309 0.000352616 0)
(-0.00586011 0.000346477 0)
(-0.00591614 0.000340275 0)
(-0.00597115 0.000334018 0)
(-0.00602514 0.000327712 0)
(-0.00607811 0.000321366 0)
(-0.00613004 0.000314991 0)
(-0.00618094 0.000308596 0)
(-0.00623081 0.000302196 0)
(-0.00627965 0.000295802 0)
(-0.00632745 0.000289431 0)
(-0.00637424 0.0002831 0)
(-0.00642002 0.000276828 0)