/*--------------------------------*- C++ -*----------------------------------*\
  =========                 |
  \\      /  F ield         | OpenFOAM: The Open Source CFD Toolbox
   \\    /   O peration     | Website:  https://openfoam.org
    \\  /    A nd           | Version:  8
     \\/     M anipulation  |
\*---------------------------------------------------------------------------*/
FoamFile
{
    version     2.0;
    format      ascii;
    class       volScalarField;
    location    "0.13";
    object      p;
}
// * * * * * * * * * * * * * * * * * * * * * * * * * * * * * * * * * * * * * //

dimensions      [0 2 -2 0 0 0 0];

internalField   nonuniform List<scalar> 
400
(
3.30774e-12
5.45906e-08
4.496e-06
9.55227e-06
1.3624e-05
1.70748e-05
2.01295e-05
2.29075e-05
2.53491e-05
2.73322e-05
2.88114e-05
2.98132e-05
3.03438e-05
3.03258e-05
2.95814e-05
2.78551e-05
2.48431e-05
2.0142e-05
1.30524e-05
4.94729e-06
4.99666e-06
5.31455e-06
8.5525e-06
1.23646e-05
1.58179e-05
1.88284e-05
2.15439e-05
2.40323e-05
2.61906e-05
2.7887e-05
2.90905e-05
2.98445e-05
3.01705e-05
3.00034e-05
2.91909e-05
2.75338e-05
2.4854e-05
2.09477e-05
1.55703e-05
9.34181e-06
1.13466e-05
1.08954e-05
1.25905e-05
1.52588e-05
1.79942e-05
2.0537e-05
2.29125e-05
2.51187e-05
2.70259e-05
2.84978e-05
2.95069e-05
3.01036e-05
3.032e-05
3.01075e-05
2.93442e-05
2.79004e-05
2.57282e-05
2.27957e-05
1.89854e-05
1.46991e-05
1.65856e-05
1.54361e-05
1.62356e-05
1.80875e-05
2.01967e-05
2.22748e-05
2.42929e-05
2.62136e-05
2.78871e-05
2.91633e-05
3.00098e-05
3.04859e-05
3.06429e-05
3.04523e-05
2.98132e-05
2.86515e-05
2.70361e-05
2.50363e-05
2.2447e-05
1.9283e-05
2.02558e-05
1.88949e-05
1.92824e-05
2.0666e-05
2.23213e-05
2.40008e-05
2.56879e-05
2.73375e-05
2.87848e-05
2.98673e-05
3.05517e-05
3.0913e-05
3.10284e-05
3.08944e-05
3.04283e-05
2.95805e-05
2.84768e-05
2.72282e-05
2.54811e-05
2.2889e-05
2.3083e-05
2.15809e-05
2.17736e-05
2.29032e-05
2.42591e-05
2.56423e-05
2.70632e-05
2.8477e-05
2.97141e-05
3.06118e-05
3.11447e-05
3.14033e-05
3.14841e-05
3.14049e-05
3.11072e-05
3.05626e-05
2.99049e-05
2.92233e-05
2.8033e-05
2.57503e-05
2.53537e-05
2.37322e-05
2.38092e-05
2.47967e-05
2.59652e-05
2.71459e-05
2.83699e-05
2.9594e-05
3.06531e-05
3.13966e-05
3.18133e-05
3.20038e-05
3.20693e-05
3.20338e-05
3.1862e-05
3.15567e-05
3.12535e-05
3.09915e-05
3.01752e-05
2.80723e-05
2.72562e-05
2.552e-05
2.54997e-05
2.63916e-05
2.74352e-05
2.84734e-05
2.95488e-05
3.06177e-05
3.15262e-05
3.21455e-05
3.24839e-05
3.2648e-05
3.27291e-05
3.27401e-05
3.26582e-05
3.25229e-05
3.24826e-05
3.25332e-05
3.1992e-05
3.002e-05
2.88977e-05
2.70507e-05
2.69308e-05
2.77379e-05
2.86813e-05
2.96069e-05
3.05593e-05
3.14919e-05
3.22655e-05
3.278e-05
3.30671e-05
3.32386e-05
3.33678e-05
3.34418e-05
3.34381e-05
3.34295e-05
3.3584e-05
3.38706e-05
3.35464e-05
3.16908e-05
3.03147e-05
2.83718e-05
2.81495e-05
2.88683e-05
2.97196e-05
3.05489e-05
3.13969e-05
3.22103e-05
3.28658e-05
3.32938e-05
3.35516e-05
3.37559e-05
3.39589e-05
3.4114e-05
3.41876e-05
3.42774e-05
3.45712e-05
3.50234e-05
3.48624e-05
3.31142e-05
3.15149e-05
2.9502e-05
2.91776e-05
2.98006e-05
3.0563e-05
3.1311e-05
3.20762e-05
3.27963e-05
3.3361e-05
3.37295e-05
3.39819e-05
3.4239e-05
3.45313e-05
3.47762e-05
3.49212e-05
3.508e-05
3.54563e-05
3.59999e-05
3.5942e-05
3.42907e-05
3.2513e-05
3.04599e-05
3.00326e-05
3.05486e-05
3.12224e-05
3.19036e-05
3.26117e-05
3.32719e-05
3.37836e-05
3.41284e-05
3.44036e-05
3.47301e-05
3.51174e-05
3.5448e-05
3.56486e-05
3.58415e-05
3.62424e-05
3.68047e-05
3.67927e-05
3.5231e-05
3.33377e-05
3.12697e-05
3.07342e-05
3.11266e-05
3.17067e-05
3.23315e-05
3.3006e-05
3.36414e-05
3.41414e-05
3.45022e-05
3.48296e-05
3.5239e-05
3.57198e-05
3.61245e-05
3.63601e-05
3.65542e-05
3.69308e-05
3.74538e-05
3.74441e-05
3.59683e-05
3.40215e-05
3.19532e-05
3.13014e-05
3.15491e-05
3.20219e-05
3.25897e-05
3.3244e-05
3.3882e-05
3.44072e-05
3.48205e-05
3.52263e-05
3.57296e-05
3.63006e-05
3.67691e-05
3.70273e-05
3.72057e-05
3.75324e-05
3.79832e-05
3.79481e-05
3.65502e-05
3.45965e-05
3.25307e-05
3.17541e-05
3.18333e-05
3.2176e-05
3.26723e-05
3.33033e-05
3.39566e-05
3.45313e-05
3.50241e-05
3.55281e-05
3.61332e-05
3.67943e-05
3.73272e-05
3.76158e-05
3.77896e-05
3.80711e-05
3.84425e-05
3.83639e-05
3.70266e-05
3.50973e-05
3.30284e-05
3.21153e-05
3.20017e-05
3.21887e-05
3.25936e-05
3.319e-05
3.386e-05
3.44968e-05
3.50842e-05
3.56967e-05
3.64064e-05
3.71594e-05
3.77691e-05
3.81159e-05
3.83191e-05
3.85786e-05
3.88714e-05
3.87298e-05
3.74355e-05
3.55357e-05
3.34587e-05
3.23932e-05
3.20692e-05
3.20875e-05
3.23936e-05
3.29535e-05
3.36439e-05
3.43498e-05
3.50373e-05
3.57581e-05
3.65692e-05
3.74162e-05
3.81205e-05
3.85598e-05
3.88271e-05
3.90777e-05
3.92759e-05
3.90465e-05
3.77877e-05
3.59216e-05
3.38036e-05
3.25448e-05
3.19967e-05
3.18536e-05
3.20728e-05
3.26086e-05
3.333e-05
3.41118e-05
3.49029e-05
3.57361e-05
3.6658e-05
3.76178e-05
3.84448e-05
3.9008e-05
3.93623e-05
3.96089e-05
3.96952e-05
3.93422e-05
3.80729e-05
3.62737e-05
3.40444e-05
3.24885e-05
3.16685e-05
3.13709e-05
3.1525e-05
3.2058e-05
3.28288e-05
3.37047e-05
3.46237e-05
3.56055e-05
3.66866e-05
3.78136e-05
3.88158e-05
3.95487e-05
4.00301e-05
4.0313e-05
4.03129e-05
3.9782e-05
3.84102e-05
3.66309e-05
3.40633e-05
3.20846e-05
3.09174e-05
3.04517e-05
3.05612e-05
3.11253e-05
3.19887e-05
3.30139e-05
3.41321e-05
3.53483e-05
3.66791e-05
3.80578e-05
3.93179e-05
4.03149e-05
4.10264e-05
4.14436e-05
4.14294e-05
4.07401e-05
3.91177e-05
)
;

boundaryField
{
    movingWall
    {
        type            zeroGradient;
    }
    fixedWalls
    {
        type            zeroGradient;
    }
    left
    {
        type            cyclic;
    }
    right
    {
        type            cyclic;
    }
    frontAndBack
    {
        type            empty;
    }
}


// ************************************************************************* //
