/*--------------------------------*- C++ -*----------------------------------*\
  =========                 |
  \\      /  F ield         | OpenFOAM: The Open Source CFD Toolbox
   \\    /   O peration     | Website:  https://openfoam.org
    \\  /    A nd           | Version:  8
     \\/     M anipulation  |
\*---------------------------------------------------------------------------*/
FoamFile
{
    version     2.0;
    format      ascii;
    class       surfaceScalarField;
    location    "0.13";
    object      phi;
}
// * * * * * * * * * * * * * * * * * * * * * * * * * * * * * * * * * * * * * //

dimensions      [0 3 -1 0 0 0 0];

internalField   nonuniform List<scalar> 
760
(
5.4582e-07
1.31543e-11
5.45803e-07
1.75922e-11
5.45789e-07
1.43389e-11
5.45773e-07
1.5289e-11
5.45759e-07
1.38757e-11
5.45747e-07
1.2138e-11
5.45737e-07
1.00725e-11
5.4573e-07
7.55806e-12
5.45725e-07
4.75792e-12
5.45723e-07
1.82312e-12
5.45724e-07
-1.23512e-12
5.45729e-07
-4.46302e-12
5.45737e-07
-7.83011e-12
5.45748e-07
-1.12519e-11
5.45762e-07
-1.45284e-11
5.4578e-07
-1.73272e-11
5.45799e-07
-1.91175e-11
5.45818e-07
-1.87923e-11
5.45833e-07
-1.56163e-11
-4.37795e-13
1.65237e-06
1.40292e-11
1.65236e-06
3.10927e-11
1.65234e-06
3.71777e-11
1.65231e-06
3.95522e-11
1.65229e-06
3.80541e-11
1.65227e-06
3.44065e-11
1.65225e-06
2.93406e-11
1.65223e-06
2.31626e-11
1.65222e-06
1.6114e-11
1.65221e-06
8.3724e-12
1.65221e-06
4.77501e-14
1.65222e-06
-8.74611e-12
1.65223e-06
-1.78124e-11
1.65224e-06
-2.68339e-11
1.65226e-06
-3.53082e-11
1.65229e-06
-4.24139e-11
1.65232e-06
-4.66785e-11
1.65234e-06
-4.56938e-11
1.65236e-06
-3.56993e-11
-1.21636e-11
2.80365e-06
1.08514e-11
2.80365e-06
3.58465e-11
2.80363e-06
5.13054e-11
2.80362e-06
5.77949e-11
2.8036e-06
5.80445e-11
2.80358e-06
5.42479e-11
2.80356e-06
4.76124e-11
2.80354e-06
3.88571e-11
2.80353e-06
2.84554e-11
2.80352e-06
1.67223e-11
2.80352e-06
3.89273e-12
2.80352e-06
-9.78424e-12
2.80352e-06
-2.39568e-11
2.80354e-06
-3.80823e-11
2.80355e-06
-5.13189e-11
2.80357e-06
-6.23734e-11
2.80359e-06
-6.91086e-11
2.80362e-06
-6.81782e-11
2.80364e-06
-5.46575e-11
-2.61705e-11
4.02903e-06
2.22472e-12
4.02903e-06
3.48956e-11
4.02902e-06
5.6378e-11
4.02901e-06
6.70729e-11
4.029e-06
6.99328e-11
4.02899e-06
6.72709e-11
4.02898e-06
6.0562e-11
4.02896e-06
5.0795e-11
4.02895e-06
3.86411e-11
4.02895e-06
2.45547e-11
4.02894e-06
8.88571e-12
4.02894e-06
-8.00706e-12
4.02894e-06
-2.56523e-11
4.02895e-06
-4.33526e-11
4.02896e-06
-6.00232e-11
4.02897e-06
-7.39867e-11
4.02898e-06
-8.26852e-11
4.02899e-06
-8.23231e-11
4.02901e-06
-6.78681e-11
-3.73151e-11
5.357e-06
-6.54062e-12
5.35701e-06
2.87382e-11
5.35701e-06
5.35313e-11
5.35701e-06
6.73997e-11
5.35701e-06
7.28525e-11
5.357e-06
7.20585e-11
5.357e-06
6.64986e-11
5.35699e-06
5.72337e-11
5.35699e-06
4.50309e-11
5.35698e-06
3.04337e-11
5.35697e-06
1.3871e-11
5.35697e-06
-4.22439e-12
5.35697e-06
-2.33095e-11
5.35697e-06
-4.26141e-11
5.35697e-06
-6.09568e-11
5.35697e-06
-7.65021e-11
5.35697e-06
-8.65893e-11
5.35698e-06
-8.74405e-11
5.35699e-06
-7.43063e-11
-4.51641e-11
6.81482e-06
-1.43753e-11
6.81483e-06
1.92293e-11
6.81484e-06
4.43753e-11
6.81485e-06
5.98061e-11
6.81485e-06
6.72824e-11
6.81486e-06
6.85973e-11
6.81486e-06
6.50235e-11
6.81486e-06
5.75223e-11
6.81486e-06
4.68386e-11
6.81485e-06
3.35255e-11
6.81485e-06
1.80283e-11
6.81484e-06
7.9425e-13
6.81484e-06
-1.76328e-11
6.81483e-06
-3.65078e-11
6.81483e-06
-5.46989e-11
6.81482e-06
-7.04309e-11
6.81481e-06
-8.12149e-11
6.81481e-06
-8.36862e-11
6.81481e-06
-7.36328e-11
-4.88428e-11
8.42796e-06
-2.05486e-11
8.42797e-06
7.96892e-12
8.42799e-06
3.07221e-11
8.428e-06
4.59115e-11
8.42801e-06
5.45007e-11
8.42802e-06
5.77643e-11
8.42803e-06
5.66191e-11
8.42804e-06
5.17954e-11
8.42804e-06
4.39065e-11
8.42804e-06
3.34268e-11
8.42804e-06
2.07451e-11
8.42803e-06
6.2551e-12
8.42802e-06
-9.57337e-12
8.42801e-06
-2.6118e-11
8.428e-06
-4.24367e-11
8.42799e-06
-5.70178e-11
8.42797e-06
-6.77735e-11
8.42796e-06
-7.19901e-11
8.42796e-06
-6.618e-11
-4.79764e-11
1.02195e-05
-2.44264e-11
1.02196e-05
-3.6148e-12
1.02196e-05
1.44219e-11
1.02196e-05
2.76352e-11
1.02196e-05
3.62734e-11
1.02196e-05
4.1035e-11
1.02196e-05
4.2399e-11
1.02197e-05
4.07762e-11
1.02197e-05
3.65619e-11
1.02197e-05
3.00743e-11
1.02197e-05
2.15781e-11
1.02197e-05
1.13498e-11
1.02196e-05
-2.80398e-13
1.02196e-05
-1.28912e-11
1.02196e-05
-2.58386e-11
1.02196e-05
-3.80309e-11
1.02196e-05
-4.79604e-11
1.02196e-05
-5.37311e-11
1.02195e-05
-5.27394e-11
-4.25908e-11
1.22097e-05
-2.55633e-11
1.22097e-05
-1.4269e-11
1.22097e-05
-2.74235e-12
1.22097e-05
7.0054e-12
1.22098e-05
1.4632e-11
1.22098e-05
2.02643e-11
1.22098e-05
2.39154e-11
1.22098e-05
2.56308e-11
1.22098e-05
2.55305e-11
1.22098e-05
2.3721e-11
1.22098e-05
2.02916e-11
1.22098e-05
1.53548e-11
1.22098e-05
9.05647e-12
1.22098e-05
1.56837e-12
1.22098e-05
-6.82852e-12
1.22098e-05
-1.55605e-11
1.22097e-05
-2.38186e-11
1.22097e-05
-3.06476e-11
1.22097e-05
-3.44778e-11
-3.30622e-11
1.44147e-05
-2.37922e-11
1.44148e-05
-2.29905e-11
1.44148e-05
-1.91484e-11
1.44148e-05
-1.39803e-11
1.44148e-05
-8.29019e-12
1.44148e-05
-2.4799e-12
1.44149e-05
3.01286e-12
1.44149e-05
7.85885e-12
1.44149e-05
1.18768e-11
1.44149e-05
1.4932e-11
1.44149e-05
1.69107e-11
1.44149e-05
1.77384e-11
1.44149e-05
1.73579e-11
1.44149e-05
1.5679e-11
1.44149e-05
1.26029e-11
1.44148e-05
8.14948e-12
1.44148e-05
2.37368e-12
1.44148e-05
-4.78165e-12
1.44148e-05
-1.29088e-11
-2.01201e-11
1.68466e-05
-1.92938e-11
1.68466e-05
-2.90972e-11
1.68466e-05
-3.34181e-11
1.68466e-05
-3.34669e-11
1.68467e-05
-3.03884e-11
1.68467e-05
-2.50496e-11
1.68467e-05
-1.82944e-11
1.68467e-05
-1.08041e-11
1.68467e-05
-3.05765e-12
1.68468e-05
4.56674e-12
1.68468e-05
1.1751e-11
1.68468e-05
1.82354e-11
1.68468e-05
2.37702e-11
1.68467e-05
2.80255e-11
1.68467e-05
3.05547e-11
1.68467e-05
3.08491e-11
1.68467e-05
2.82224e-11
1.68466e-05
2.15978e-11
1.68466e-05
1.01452e-11
-4.84798e-12
1.95119e-05
-1.26267e-11
1.95119e-05
-3.22787e-11
1.95119e-05
-4.44881e-11
1.9512e-05
-4.98362e-11
1.9512e-05
-4.9698e-11
1.9512e-05
-4.53372e-11
1.9512e-05
-3.79389e-11
1.9512e-05
-2.84887e-11
1.95121e-05
-1.77312e-11
1.95121e-05
-6.26404e-12
1.95121e-05
5.41434e-12
1.95121e-05
1.68853e-11
1.95121e-05
2.77428e-11
1.95121e-05
3.7471e-11
1.9512e-05
4.53489e-11
1.9512e-05
5.0424e-11
1.9512e-05
5.13501e-11
1.9512e-05
4.61031e-11
1.9512e-05
3.26164e-11
1.13314e-11
2.24115e-05
-4.71038e-12
2.24115e-05
-3.26105e-11
2.24115e-05
-5.16574e-11
2.24115e-05
-6.17813e-11
2.24115e-05
-6.44941e-11
2.24116e-05
-6.13913e-11
2.24116e-05
-5.3924e-11
2.24116e-05
-4.33112e-11
2.24116e-05
-3.05062e-11
2.24116e-05
-1.62763e-11
2.24116e-05
-1.25432e-12
2.24116e-05
1.40293e-11
2.24116e-05
2.90679e-11
2.24116e-05
4.32365e-11
2.24116e-05
5.5646e-11
2.24116e-05
6.50335e-11
2.24116e-05
6.95434e-11
2.24116e-05
6.63634e-11
2.24115e-05
5.22874e-11
2.6709e-11
2.55398e-05
3.24589e-12
2.55398e-05
-3.05148e-11
2.55398e-05
-5.45946e-11
2.55398e-05
-6.83483e-11
2.55398e-05
-7.33735e-11
2.55398e-05
-7.15343e-11
2.55398e-05
-6.44636e-11
2.55398e-05
-5.35228e-11
2.55398e-05
-3.97925e-11
2.55398e-05
-2.41374e-11
2.55398e-05
-7.26048e-12
2.55398e-05
1.02569e-11
2.55398e-05
2.7874e-11
2.55398e-05
4.49442e-11
2.55398e-05
6.05349e-11
2.55398e-05
7.32427e-11
2.55398e-05
8.09125e-11
2.55398e-05
8.01922e-11
2.55398e-05
6.69353e-11
3.94026e-11
2.88845e-05
9.87766e-12
2.88844e-05
-2.66515e-11
2.88844e-05
-5.32856e-11
2.88844e-05
-6.89358e-11
2.88845e-05
-7.53182e-11
2.88845e-05
-7.44839e-11
2.88845e-05
-6.81466e-11
2.88845e-05
-5.76977e-11
2.88845e-05
-4.42403e-11
2.88845e-05
-2.8646e-11
2.88845e-05
-1.16117e-11
2.88845e-05
6.29668e-12
2.88845e-05
2.45689e-11
2.88845e-05
4.26187e-11
2.88845e-05
5.95943e-11
2.88845e-05
7.41402e-11
2.88845e-05
8.40593e-11
2.88845e-05
8.57832e-11
2.88845e-05
7.45401e-11
4.75371e-11
3.24266e-05
1.38823e-11
3.24266e-05
-2.17328e-11
3.24266e-05
-4.79144e-11
3.24266e-05
-6.32722e-11
3.24266e-05
-6.97643e-11
3.24266e-05
-6.95024e-11
3.24265e-05
-6.41398e-11
3.24265e-05
-5.49635e-11
3.24265e-05
-4.29757e-11
3.24265e-05
-2.89547e-11
3.24265e-05
-1.35115e-11
3.24265e-05
2.86422e-12
3.24266e-05
1.97429e-11
3.24266e-05
3.66551e-11
3.24266e-05
5.29302e-11
3.24266e-05
6.74462e-11
3.24266e-05
7.82516e-11
3.24266e-05
8.1934e-11
3.24266e-05
7.35444e-11
4.94793e-11
3.61407e-05
1.43973e-11
3.61407e-05
-1.62764e-11
3.61407e-05
-3.87207e-11
3.61407e-05
-5.14631e-11
3.61406e-05
-5.67659e-11
3.61406e-05
-5.66234e-11
3.61406e-05
-5.24409e-11
3.61406e-05
-4.52546e-11
3.61406e-05
-3.5841e-11
3.61406e-05
-2.47882e-11
3.61406e-05
-1.25501e-11
3.61406e-05
5.08305e-13
3.61406e-05
1.40644e-11
3.61406e-05
2.77816e-11
3.61406e-05
4.12197e-11
3.61406e-05
5.36415e-11
3.61407e-05
6.36261e-11
3.61407e-05
6.83103e-11
3.61407e-05
6.31151e-11
4.40588e-11
3.99954e-05
1.09076e-11
3.99954e-05
-1.04188e-11
3.99954e-05
-2.58912e-11
3.99954e-05
-3.40757e-11
3.99954e-05
-3.72439e-11
3.99954e-05
-3.69761e-11
3.99953e-05
-3.4203e-11
3.99953e-05
-2.95946e-11
3.99953e-05
-2.36281e-11
3.99953e-05
-1.66443e-11
3.99953e-05
-8.88759e-12
3.99953e-05
-5.52152e-13
3.99953e-05
8.16354e-12
3.99953e-05
1.70322e-11
3.99953e-05
2.58176e-11
3.99953e-05
3.42155e-11
3.99954e-05
4.14737e-11
3.99954e-05
4.56899e-11
3.99954e-05
4.34334e-11
3.13812e-11
4.39545e-05
4.70535e-12
4.39545e-05
-4.22874e-12
4.39544e-05
-1.07372e-11
4.39544e-05
-1.35871e-11
4.39544e-05
-1.44577e-11
4.39544e-05
-1.41418e-11
4.39544e-05
-1.29566e-11
4.39543e-05
-1.11624e-11
4.39543e-05
-8.94669e-12
4.39543e-05
-6.41573e-12
4.39543e-05
-3.59764e-12
4.39543e-05
-4.8831e-13
4.39543e-05
2.84076e-12
4.39543e-05
6.2107e-12
4.39543e-05
9.4711e-12
4.39544e-05
1.26935e-11
4.39544e-05
1.58306e-11
4.39544e-05
1.81323e-11
4.39544e-05
1.76424e-11
1.31928e-11
4.79776e-05
4.79776e-05
4.79776e-05
4.79776e-05
4.79776e-05
4.79776e-05
4.79776e-05
4.79775e-05
4.79775e-05
4.79775e-05
4.79775e-05
4.79775e-05
4.79775e-05
4.79775e-05
4.79775e-05
4.79776e-05
4.79776e-05
4.79776e-05
4.79776e-05
)
;

boundaryField
{
    movingWall
    {
        type            calculated;
        value           uniform 0;
    }
    fixedWalls
    {
        type            calculated;
        value           uniform 0;
    }
    left
    {
        type            cyclic;
        value           nonuniform List<scalar> 
20
(
-3.24266e-05
-2.88845e-05
-2.55398e-05
-2.24115e-05
-1.95119e-05
-1.68466e-05
-1.44147e-05
-1.22097e-05
-1.02195e-05
-8.42795e-06
-6.81481e-06
-5.35699e-06
-4.02902e-06
-2.80365e-06
-1.65237e-06
-5.45834e-07
-3.61407e-05
-3.99954e-05
-4.39545e-05
-4.79776e-05
)
;
    }
    right
    {
        type            cyclic;
        value           nonuniform List<scalar> 
20
(
3.24266e-05
2.88845e-05
2.55398e-05
2.24115e-05
1.95119e-05
1.68466e-05
1.44147e-05
1.22097e-05
1.02195e-05
8.42795e-06
6.81481e-06
5.35699e-06
4.02902e-06
2.80365e-06
1.65237e-06
5.45834e-07
3.61407e-05
3.99954e-05
4.39545e-05
4.79776e-05
)
;
    }
    frontAndBack
    {
        type            empty;
        value           nonuniform List<scalar> 0();
    }
}


// ************************************************************************* //
