/*--------------------------------*- C++ -*----------------------------------*\
  =========                 |
  \\      /  F ield         | OpenFOAM: The Open Source CFD Toolbox
   \\    /   O peration     | Website:  https://openfoam.org
    \\  /    A nd           | Version:  8
     \\/     M anipulation  |
\*---------------------------------------------------------------------------*/
FoamFile
{
    version     2.0;
    format      ascii;
    class       volVectorField;
    location    "0.69";
    object      U;
}
// * * * * * * * * * * * * * * * * * * * * * * * * * * * * * * * * * * * * * //

dimensions      [0 1 -1 0 0 0 0];

internalField   nonuniform List<vector> 
400
(
(0.0249114 1.31701e-07 0)
(0.0249112 1.65342e-07 0)
(0.024911 1.55924e-07 0)
(0.0249108 1.15201e-07 0)
(0.0249106 7.37979e-08 0)
(0.0249105 4.03219e-08 0)
(0.0249104 1.71397e-08 0)
(0.0249104 1.55628e-09 0)
(0.0249104 -1.05416e-08 0)
(0.0249104 -2.17679e-08 0)
(0.0249105 -3.19815e-08 0)
(0.0249105 -4.04596e-08 0)
(0.0249106 -4.80733e-08 0)
(0.0249107 -5.64256e-08 0)
(0.0249108 -6.56763e-08 0)
(0.024911 -7.2938e-08 0)
(0.0249112 -7.23417e-08 0)
(0.0249114 -5.56155e-08 0)
(0.0249115 -8.8026e-09 0)
(0.0249115 6.14615e-08 0)
(0.0747357 2.46912e-07 0)
(0.0747355 3.82202e-07 0)
(0.0747352 4.04159e-07 0)
(0.0747349 3.35392e-07 0)
(0.0747346 2.46115e-07 0)
(0.0747344 1.63089e-07 0)
(0.0747343 9.48017e-08 0)
(0.0747342 3.91983e-08 0)
(0.0747341 -8.15339e-09 0)
(0.0747341 -5.07842e-08 0)
(0.0747341 -9.03609e-08 0)
(0.0747342 -1.28304e-07 0)
(0.0747343 -1.67175e-07 0)
(0.0747344 -2.09108e-07 0)
(0.0747346 -2.52633e-07 0)
(0.0747348 -2.90254e-07 0)
(0.0747351 -3.09053e-07 0)
(0.0747353 -2.81001e-07 0)
(0.0747356 -1.67757e-07 0)
(0.0747357 2.563e-08 0)
(0.124566 2.81012e-07 0)
(0.124566 5.49757e-07 0)
(0.124566 6.37102e-07 0)
(0.124566 5.92932e-07 0)
(0.124565 4.87471e-07 0)
(0.124565 3.69001e-07 0)
(0.124565 2.56382e-07 0)
(0.124565 1.54639e-07 0)
(0.124565 6.25838e-08 0)
(0.124565 -2.23254e-08 0)
(0.124565 -1.02484e-07 0)
(0.124565 -1.80899e-07 0)
(0.124565 -2.61272e-07 0)
(0.124565 -3.45793e-07 0)
(0.124565 -4.31394e-07 0)
(0.124565 -5.06837e-07 0)
(0.124565 -5.52249e-07 0)
(0.124565 -5.271e-07 0)
(0.124566 -3.72638e-07 0)
(0.124566 -7.12383e-08 0)
(0.174407 2.06444e-07 0)
(0.174407 5.60396e-07 0)
(0.174407 7.33245e-07 0)
(0.174407 7.44096e-07 0)
(0.174407 6.65408e-07 0)
(0.174406 5.48259e-07 0)
(0.174406 4.18234e-07 0)
(0.174406 2.8813e-07 0)
(0.174406 1.6395e-07 0)
(0.174406 4.6653e-08 0)
(0.174406 -6.61171e-08 0)
(0.174406 -1.78178e-07 0)
(0.174406 -2.93217e-07 0)
(0.174406 -4.12552e-07 0)
(0.174406 -5.31939e-07 0)
(0.174406 -6.4009e-07 0)
(0.174406 -7.12317e-07 0)
(0.174406 -7.06174e-07 0)
(0.174406 -5.52252e-07 0)
(0.174407 -2.18471e-07 0)
(0.224262 8.45748e-08 0)
(0.224262 4.8193e-07 0)
(0.224262 7.1525e-07 0)
(0.224262 7.84968e-07 0)
(0.224262 7.48173e-07 0)
(0.224262 6.51792e-07 0)
(0.224262 5.25696e-07 0)
(0.224262 3.88846e-07 0)
(0.224262 2.51406e-07 0)
(0.224262 1.16684e-07 0)
(0.224262 -1.59515e-08 0)
(0.224262 -1.48997e-07 0)
(0.224262 -2.85451e-07 0)
(0.224262 -4.26327e-07 0)
(0.224262 -5.66957e-07 0)
(0.224262 -6.96364e-07 0)
(0.224262 -7.90569e-07 0)
(0.224262 -8.04999e-07 0)
(0.224262 -6.7367e-07 0)
(0.224262 -3.53685e-07 0)
(0.274136 -2.38656e-08 0)
(0.274136 3.69443e-07 0)
(0.274136 6.31781e-07 0)
(0.274136 7.41934e-07 0)
(0.274136 7.42745e-07 0)
(0.274136 6.7491e-07 0)
(0.274136 5.67357e-07 0)
(0.274136 4.40372e-07 0)
(0.274136 3.06173e-07 0)
(0.274136 1.70271e-07 0)
(0.274136 3.39953e-08 0)
(0.274136 -1.03762e-07 0)
(0.274136 -2.45173e-07 0)
(0.274136 -3.90951e-07 0)
(0.274136 -5.37094e-07 0)
(0.274136 -6.72519e-07 0)
(0.274136 -7.76657e-07 0)
(0.274136 -8.09233e-07 0)
(0.274136 -7.09228e-07 0)
(0.274136 -4.32095e-07 0)
(0.324031 -1.06609e-07 0)
(0.324031 2.46038e-07 0)
(0.324031 5.01388e-07 0)
(0.324031 6.29972e-07 0)
(0.324031 6.58825e-07 0)
(0.324031 6.20343e-07 0)
(0.324032 5.39057e-07 0)
(0.324032 4.33659e-07 0)
(0.324032 3.16521e-07 0)
(0.324032 1.94329e-07 0)
(0.324032 6.99055e-08 0)
(0.324032 -5.6582e-08 0)
(0.324031 -1.86366e-07 0)
(0.324031 -3.19692e-07 0)
(0.324031 -4.5402e-07 0)
(0.324031 -5.80862e-07 0)
(0.324031 -6.82864e-07 0)
(0.324031 -7.2796e-07 0)
(0.324031 -6.64593e-07 0)
(0.324031 -4.49153e-07 0)
(0.37395 -1.55365e-07 0)
(0.37395 1.25388e-07 0)
(0.37395 3.43644e-07 0)
(0.37395 4.69005e-07 0)
(0.37395 5.14056e-07 0)
(0.373951 5.01497e-07 0)
(0.373951 4.4951e-07 0)
(0.373951 3.73187e-07 0)
(0.373951 2.83451e-07 0)
(0.373951 1.87034e-07 0)
(0.373951 8.75553e-08 0)
(0.373951 -1.38991e-08 0)
(0.373951 -1.17857e-07 0)
(0.373951 -2.24374e-07 0)
(0.373951 -3.32015e-07 0)
(0.37395 -4.3599e-07 0)
(0.37395 -5.24427e-07 0)
(0.37395 -5.75091e-07 0)
(0.37395 -5.49935e-07 0)
(0.37395 -4.07863e-07 0)
(0.423895 -1.70336e-07 0)
(0.423895 1.59896e-08 0)
(0.423895 1.7486e-07 0)
(0.423895 2.78291e-07 0)
(0.423895 3.27436e-07 0)
(0.423896 3.34911e-07 0)
(0.423896 3.11744e-07 0)
(0.423896 2.68219e-07 0)
(0.423896 2.12549e-07 0)
(0.423896 1.50402e-07 0)
(0.423896 8.53634e-08 0)
(0.423896 1.90432e-08 0)
(0.423896 -4.84365e-08 0)
(0.423896 -1.17232e-07 0)
(0.423896 -1.87319e-07 0)
(0.423896 -2.57441e-07 0)
(0.423895 -3.22095e-07 0)
(0.423895 -3.70051e-07 0)
(0.423895 -3.8018e-07 0)
(0.423895 -3.16954e-07 0)
(0.473867 -1.53999e-07 0)
(0.473867 -7.60828e-08 0)
(0.473867 8.28115e-09 0)
(0.473867 7.50209e-08 0)
(0.473868 1.17095e-07 0)
(0.473868 1.37536e-07 0)
(0.473868 1.40123e-07 0)
(0.473868 1.2974e-07 0)
(0.473868 1.11092e-07 0)
(0.473868 8.7954e-08 0)
(0.473868 6.31267e-08 0)
(0.473868 3.82309e-08 0)
(0.473868 1.39177e-08 0)
(0.473868 -9.9025e-09 0)
(0.473868 -3.46646e-08 0)
(0.473868 -6.2689e-08 0)
(0.473868 -9.52431e-08 0)
(0.473868 -1.32726e-07 0)
(0.473867 -1.71906e-07 0)
(0.473867 -1.87741e-07 0)
(0.523867 -1.09566e-07 0)
(0.523867 -1.45416e-07 0)
(0.523867 -1.4404e-07 0)
(0.523867 -1.23831e-07 0)
(0.523868 -9.74946e-08 0)
(0.523868 -7.06712e-08 0)
(0.523868 -4.6591e-08 0)
(0.523868 -2.59566e-08 0)
(0.523868 -7.96321e-09 0)
(0.523868 8.81751e-09 0)
(0.523869 2.59728e-08 0)
(0.523869 4.47406e-08 0)
(0.523869 6.60152e-08 0)
(0.523868 8.98244e-08 0)
(0.523868 1.13581e-07 0)
(0.523868 1.31719e-07 0)
(0.523868 1.36519e-07 0)
(0.523868 1.16138e-07 0)
(0.523868 5.66098e-08 0)
(0.523867 -3.17652e-08 0)
(0.573895 -4.38247e-08 0)
(0.573895 -1.90053e-07 0)
(0.573895 -2.7311e-07 0)
(0.573896 -3.03335e-07 0)
(0.573896 -2.97564e-07 0)
(0.573896 -2.69166e-07 0)
(0.573896 -2.27954e-07 0)
(0.573896 -1.80107e-07 0)
(0.573896 -1.28796e-07 0)
(0.573896 -7.5063e-08 0)
(0.573897 -1.8667e-08 0)
(0.573897 4.11137e-08 0)
(0.573897 1.05284e-07 0)
(0.573897 1.74088e-07 0)
(0.573896 2.4436e-07 0)
(0.573896 3.08167e-07 0)
(0.573896 3.52373e-07 0)
(0.573896 3.54631e-07 0)
(0.573896 2.84922e-07 0)
(0.573895 1.36515e-07 0)
(0.623951 3.18203e-08 0)
(0.623951 -2.13099e-07 0)
(0.623951 -3.74311e-07 0)
(0.623951 -4.52428e-07 0)
(0.623951 -4.67686e-07 0)
(0.623951 -4.40282e-07 0)
(0.623951 -3.8596e-07 0)
(0.623951 -3.15929e-07 0)
(0.623952 -2.37064e-07 0)
(0.623952 -1.52698e-07 0)
(0.623952 -6.3821e-08 0)
(0.623952 2.98638e-08 0)
(0.623952 1.29553e-07 0)
(0.623952 2.3595e-07 0)
(0.623952 3.46018e-07 0)
(0.623952 4.50656e-07 0)
(0.623951 5.32851e-07 0)
(0.623951 5.61384e-07 0)
(0.623951 4.91557e-07 0)
(0.623951 2.9888e-07 0)
(0.674032 1.03949e-07 0)
(0.674032 -2.20169e-07 0)
(0.674032 -4.45218e-07 0)
(0.674032 -5.62197e-07 0)
(0.674032 -5.94624e-07 0)
(0.674032 -5.68538e-07 0)
(0.674032 -5.04659e-07 0)
(0.674032 -4.18354e-07 0)
(0.674033 -3.19569e-07 0)
(0.674033 -2.13472e-07 0)
(0.674033 -1.01973e-07 0)
(0.674033 1.50228e-08 0)
(0.674033 1.39098e-07 0)
(0.674033 2.71735e-07 0)
(0.674033 4.10733e-07 0)
(0.674033 5.4709e-07 0)
(0.674032 6.61757e-07 0)
(0.674032 7.17038e-07 0)
(0.674032 6.55588e-07 0)
(0.674032 4.35863e-07 0)
(0.724137 1.59628e-07 0)
(0.724137 -2.16158e-07 0)
(0.724137 -4.83124e-07 0)
(0.724137 -6.23697e-07 0)
(0.724137 -6.65447e-07 0)
(0.724137 -6.39211e-07 0)
(0.724137 -5.69283e-07 0)
(0.724137 -4.73746e-07 0)
(0.724137 -3.64516e-07 0)
(0.724137 -2.47861e-07 0)
(0.724137 -1.26146e-07 0)
(0.724137 8.26764e-10 0)
(0.724137 1.35249e-07 0)
(0.724137 2.79652e-07 0)
(0.724137 4.33216e-07 0)
(0.724137 5.88147e-07 0)
(0.724137 7.25357e-07 0)
(0.724137 8.04e-07 0)
(0.724137 7.57381e-07 0)
(0.724137 5.29123e-07 0)
(0.774263 1.88545e-07 0)
(0.774263 -2.03277e-07 0)
(0.774263 -4.8372e-07 0)
(0.774263 -6.27976e-07 0)
(0.774263 -6.68557e-07 0)
(0.774263 -6.39887e-07 0)
(0.774263 -5.67996e-07 0)
(0.774263 -4.71801e-07 0)
(0.774263 -3.63519e-07 0)
(0.774263 -2.49423e-07 0)
(0.774263 -1.31689e-07 0)
(0.774263 -9.71631e-09 0)
(0.774263 1.19384e-07 0)
(0.774263 2.59212e-07 0)
(0.774263 4.10497e-07 0)
(0.774263 5.67428e-07 0)
(0.774263 7.13026e-07 0)
(0.774263 8.07722e-07 0)
(0.774263 7.80337e-07 0)
(0.774263 5.63056e-07 0)
(0.824408 1.84044e-07 0)
(0.824408 -1.80383e-07 0)
(0.824408 -4.39702e-07 0)
(0.824408 -5.65331e-07 0)
(0.824408 -5.94247e-07 0)
(0.824407 -5.62312e-07 0)
(0.824407 -4.94347e-07 0)
(0.824407 -4.07816e-07 0)
(0.824407 -3.13333e-07 0)
(0.824407 -2.1583e-07 0)
(0.824407 -1.16488e-07 0)
(0.824407 -1.41285e-08 0)
(0.824407 9.43085e-08 0)
(0.824407 2.12676e-07 0)
(0.824407 3.43114e-07 0)
(0.824407 4.83068e-07 0)
(0.824407 6.20101e-07 0)
(0.824408 7.19742e-07 0)
(0.824408 7.1171e-07 0)
(0.824408 5.27344e-07 0)
(0.874567 1.44728e-07 0)
(0.874567 -1.45609e-07 0)
(0.874567 -3.46652e-07 0)
(0.874567 -4.33474e-07 0)
(0.874566 -4.4407e-07 0)
(0.874566 -4.11724e-07 0)
(0.874566 -3.56458e-07 0)
(0.874566 -2.91357e-07 0)
(0.874566 -2.23134e-07 0)
(0.874566 -1.53928e-07 0)
(0.874566 -8.4029e-08 0)
(0.874566 -1.30476e-08 0)
(0.874566 6.14e-08 0)
(0.874566 1.44008e-07 0)
(0.874566 2.38246e-07 0)
(0.874566 3.42966e-07 0)
(0.874566 4.51343e-07 0)
(0.874566 5.4033e-07 0)
(0.874566 5.49763e-07 0)
(0.874567 4.15654e-07 0)
(0.924736 8.24715e-08 0)
(0.924736 -8.81577e-08 0)
(0.924736 -1.98888e-07 0)
(0.924736 -2.38737e-07 0)
(0.924736 -2.34808e-07 0)
(0.924735 -2.10919e-07 0)
(0.924735 -1.78562e-07 0)
(0.924735 -1.44451e-07 0)
(0.924735 -1.10808e-07 0)
(0.924735 -7.70458e-08 0)
(0.924735 -4.26998e-08 0)
(0.924735 -8.32134e-09 0)
(0.924735 2.69242e-08 0)
(0.924735 6.64923e-08 0)
(0.924735 1.13649e-07 0)
(0.924735 1.69431e-07 0)
(0.924735 2.32245e-07 0)
(0.924735 2.89548e-07 0)
(0.924736 3.0696e-07 0)
(0.924736 2.36603e-07 0)
(0.974912 2.03288e-08 0)
(0.974912 -3.07048e-08 0)
(0.974911 -5.95443e-08 0)
(0.974911 -6.56226e-08 0)
(0.974911 -5.96603e-08 0)
(0.974911 -5.01212e-08 0)
(0.974911 -4.04656e-08 0)
(0.974911 -3.21467e-08 0)
(0.974911 -2.46276e-08 0)
(0.974911 -1.66028e-08 0)
(0.974911 -8.0566e-09 0)
(0.974911 -3.51925e-10 0)
(0.974911 6.45425e-09 0)
(0.974911 1.47787e-08 0)
(0.974911 2.64503e-08 0)
(0.974911 4.12287e-08 0)
(0.974911 5.93937e-08 0)
(0.974911 7.8772e-08 0)
(0.974911 8.78114e-08 0)
(0.974911 6.83129e-08 0)
)
;

boundaryField
{
    movingWall
    {
        type            fixedValue;
        value           uniform (1 0 0);
    }
    fixedWalls
    {
        type            noSlip;
    }
    left
    {
        type            cyclic;
    }
    right
    {
        type            cyclic;
    }
    frontAndBack
    {
        type            empty;
    }
}


// ************************************************************************* //
