/*--------------------------------*- C++ -*----------------------------------*\
  =========                 |
  \\      /  F ield         | OpenFOAM: The Open Source CFD Toolbox
   \\    /   O peration     | Website:  https://openfoam.org
    \\  /    A nd           | Version:  8
     \\/     M anipulation  |
\*---------------------------------------------------------------------------*/
FoamFile
{
    version     2.0;
    format      ascii;
    class       surfaceScalarField;
    location    "0.46";
    object      phi;
}
// * * * * * * * * * * * * * * * * * * * * * * * * * * * * * * * * * * * * * //

dimensions      [0 3 -1 0 0 0 0];

internalField   nonuniform List<scalar> 
760
(
1.2162e-06
-6.01225e-12
1.2162e-06
2.88262e-12
1.21619e-06
1.02883e-11
1.21618e-06
1.16767e-11
1.21616e-06
1.19396e-11
1.21615e-06
1.13478e-11
1.21614e-06
1.01644e-11
1.21613e-06
8.67875e-12
1.21613e-06
7.07246e-12
1.21612e-06
5.36966e-12
1.21612e-06
3.50898e-12
1.21612e-06
1.40453e-12
1.21612e-06
-1.00459e-12
1.21612e-06
-3.75988e-12
1.21613e-06
-6.8674e-12
1.21614e-06
-1.02273e-11
1.21615e-06
-1.35134e-11
1.21617e-06
-1.57203e-11
1.21618e-06
-1.469e-11
-1.25389e-11
3.64936e-06
-8.88911e-12
3.64935e-06
9.60617e-12
3.64934e-06
2.26762e-11
3.64932e-06
2.80432e-11
3.64931e-06
2.94023e-11
3.64929e-06
2.83925e-11
3.64927e-06
2.58135e-11
3.64926e-06
2.22509e-11
3.64925e-06
1.80681e-11
3.64924e-06
1.33898e-11
3.64924e-06
8.1781e-12
3.64924e-06
2.3416e-12
3.64924e-06
-4.19079e-12
3.64925e-06
-1.14412e-11
3.64926e-06
-1.93198e-11
3.64928e-06
-2.74464e-11
3.6493e-06
-3.48201e-11
3.64932e-06
-3.91365e-11
3.64934e-06
-3.66301e-11
-2.6289e-11
6.08496e-06
-1.31013e-11
6.08496e-06
1.33153e-11
6.08495e-06
3.11577e-11
6.08494e-06
4.00868e-11
6.08492e-06
4.31336e-11
6.08491e-06
4.23867e-11
6.0849e-06
3.90624e-11
6.08489e-06
3.40052e-11
6.08488e-06
2.77442e-11
6.08487e-06
2.05216e-11
6.08486e-06
1.23808e-11
6.08486e-06
3.27993e-12
6.08487e-06
-6.81621e-12
6.08487e-06
-1.78616e-11
6.08488e-06
-2.95989e-11
6.0849e-06
-4.13137e-11
6.08491e-06
-5.14389e-11
6.08493e-06
-5.68676e-11
6.08495e-06
-5.2998e-11
-3.70786e-11
8.52462e-06
-1.70899e-11
8.52462e-06
1.22328e-11
8.52462e-06
3.35891e-11
8.52461e-06
4.55143e-11
8.52461e-06
5.05319e-11
8.5246e-06
5.07655e-11
8.52459e-06
4.76014e-11
8.52458e-06
4.20352e-11
8.52457e-06
3.4723e-11
8.52457e-06
2.60228e-11
8.52457e-06
1.60772e-11
8.52456e-06
4.91779e-12
8.52456e-06
-7.43459e-12
8.52457e-06
-2.08592e-11
8.52457e-06
-3.49637e-11
8.52458e-06
-4.88144e-11
8.52459e-06
-6.05453e-11
8.5246e-06
-6.67695e-11
8.52461e-06
-6.26282e-11
-4.4907e-11
1.09698e-05
-2.13614e-11
1.09698e-05
8.00453e-12
1.09698e-05
3.06416e-11
1.09698e-05
4.44297e-11
1.09698e-05
5.12008e-11
1.09698e-05
5.2801e-11
1.09698e-05
5.05507e-11
1.09698e-05
4.54616e-11
1.09698e-05
3.82435e-11
1.09698e-05
2.93287e-11
1.09698e-05
1.89394e-11
1.09698e-05
7.17729e-12
1.09698e-05
-5.88026e-12
1.09698e-05
-2.00615e-11
1.09698e-05
-3.49223e-11
1.09698e-05
-4.94785e-11
1.09698e-05
-6.18476e-11
1.09698e-05
-6.87719e-11
1.09698e-05
-6.55728e-11
-4.88833e-11
1.34219e-05
-2.46948e-11
1.34219e-05
1.95575e-12
1.3422e-05
2.36133e-11
1.3422e-05
3.78372e-11
1.3422e-05
4.57198e-11
1.3422e-05
4.8676e-11
1.3422e-05
4.77946e-11
1.3422e-05
4.39736e-11
1.3422e-05
3.78843e-11
1.3422e-05
2.99701e-11
1.3422e-05
2.04912e-11
1.3422e-05
9.59172e-12
1.3422e-05
-2.62042e-12
1.3422e-05
-1.59664e-11
1.3422e-05
-3.00374e-11
1.3422e-05
-4.39515e-11
1.34219e-05
-5.60349e-11
1.34219e-05
-6.3458e-11
1.34219e-05
-6.21116e-11
-4.86334e-11
1.58821e-05
-2.60866e-11
1.58821e-05
-4.54535e-12
1.58822e-05
1.40372e-11
1.58822e-05
2.71692e-11
1.58822e-05
3.52604e-11
1.58822e-05
3.92386e-11
1.58822e-05
3.98624e-11
1.58822e-05
3.78157e-11
1.58822e-05
3.36449e-11
1.58822e-05
2.7736e-11
1.58822e-05
2.03344e-11
1.58822e-05
1.1587e-11
1.58822e-05
1.59577e-12
1.58822e-05
-9.50095e-12
1.58822e-05
-2.14055e-11
1.58822e-05
-3.3458e-11
1.58822e-05
-4.43598e-11
1.58822e-05
-5.19232e-11
1.58821e-05
-5.28969e-11
-4.41058e-11
1.83514e-05
-2.49896e-11
1.83514e-05
-1.03796e-11
1.83514e-05
3.38335e-12
1.83514e-05
1.39864e-11
1.83514e-05
2.13005e-11
1.83515e-05
2.57651e-11
1.83515e-05
2.77639e-11
1.83515e-05
2.77039e-11
1.83515e-05
2.59409e-11
1.83515e-05
2.27415e-11
1.83515e-05
1.82847e-11
1.83515e-05
1.26782e-11
1.83515e-05
5.98318e-12
1.83515e-05
-1.74115e-12
1.83515e-05
-1.036e-11
1.83515e-05
-1.95147e-11
1.83514e-05
-2.83975e-11
1.83514e-05
-3.56044e-11
1.83514e-05
-3.89307e-11
-3.56142e-11
2.08305e-05
-2.13086e-11
2.08305e-05
-1.47904e-11
2.08305e-05
-7.11568e-12
2.08305e-05
-2.15918e-13
2.08305e-05
5.41224e-12
2.08305e-05
9.75544e-12
2.08306e-05
1.28204e-11
2.08306e-05
1.47083e-11
2.08306e-05
1.55418e-11
2.08306e-05
1.54232e-11
2.08306e-05
1.44231e-11
2.08306e-05
1.25762e-11
2.08306e-05
9.87603e-12
2.08306e-05
6.27955e-12
2.08306e-05
1.73341e-12
2.08306e-05
-3.73993e-12
2.08305e-05
-9.88405e-12
2.08305e-05
-1.6158e-11
2.08305e-05
-2.15105e-11
-2.38267e-11
2.33199e-05
-1.53547e-11
2.33199e-05
-1.73988e-11
2.33199e-05
-1.65369e-11
2.33199e-05
-1.41245e-11
2.33199e-05
-1.08838e-11
2.332e-05
-7.22146e-12
2.332e-05
-3.48101e-12
2.332e-05
1.31008e-13
2.332e-05
3.48628e-12
2.332e-05
6.49612e-12
2.332e-05
9.09712e-12
2.332e-05
1.12303e-11
2.332e-05
1.28082e-11
2.332e-05
1.36808e-11
2.332e-05
1.36097e-11
2.332e-05
1.22868e-11
2.332e-05
9.41356e-12
2.33199e-05
4.6485e-12
2.33199e-05
-2.15706e-12
-9.73013e-12
2.58199e-05
-7.77703e-12
2.58199e-05
-1.81825e-11
2.58199e-05
-2.42753e-11
2.58199e-05
-2.66659e-11
2.582e-05
-2.62093e-11
2.582e-05
-2.36384e-11
2.582e-05
-1.96047e-11
2.582e-05
-1.46035e-11
2.582e-05
-9.01173e-12
2.582e-05
-3.11365e-12
2.582e-05
2.88466e-12
2.582e-05
8.82649e-12
2.582e-05
1.45445e-11
2.582e-05
1.97966e-11
2.582e-05
2.41879e-11
2.582e-05
2.71226e-11
2.582e-05
2.7795e-11
2.582e-05
2.50239e-11
2.58199e-05
1.74699e-11
5.43077e-12
2.83305e-05
5.20146e-13
2.83305e-05
-1.74261e-11
2.83305e-05
-3.00133e-11
2.83305e-05
-3.70187e-11
2.83306e-05
-3.93752e-11
2.83306e-05
-3.80838e-11
2.83306e-05
-3.40577e-11
2.83306e-05
-2.80475e-11
2.83306e-05
-2.06564e-11
2.83306e-05
-1.235e-11
2.83306e-05
-3.46573e-12
2.83306e-05
5.75045e-12
2.83306e-05
1.50713e-11
2.83306e-05
2.41919e-11
2.83306e-05
3.2612e-11
2.83306e-05
3.95215e-11
2.83306e-05
4.37001e-11
2.83306e-05
4.32319e-11
2.83306e-05
3.56622e-11
2.02334e-11
3.08515e-05
8.47049e-12
3.08515e-05
-1.56361e-11
3.08515e-05
-3.36628e-11
3.08515e-05
-4.45881e-11
3.08515e-05
-4.93922e-11
3.08515e-05
-4.93082e-11
3.08515e-05
-4.54642e-11
3.08515e-05
-3.88214e-11
3.08515e-05
-3.01694e-11
3.08515e-05
-2.01224e-11
3.08516e-05
-9.12214e-12
3.08516e-05
2.52252e-12
3.08516e-05
1.45533e-11
3.08516e-05
2.66462e-11
3.08515e-05
3.8261e-11
3.08515e-05
4.84701e-11
3.08515e-05
5.57675e-11
3.08515e-05
5.76667e-11
3.08515e-05
5.07508e-11
3.31787e-11
3.33822e-05
1.49563e-11
3.33822e-05
-1.34222e-11
3.33822e-05
-3.52791e-11
3.33822e-05
-4.89472e-11
3.33822e-05
-5.54562e-11
3.33822e-05
-5.62536e-11
3.33823e-05
-5.26336e-11
3.33823e-05
-4.57093e-11
3.33823e-05
-3.64003e-11
3.33823e-05
-2.54199e-11
3.33823e-05
-1.32729e-11
3.33823e-05
-2.93653e-13
3.33823e-05
1.32668e-11
3.33823e-05
2.71141e-11
3.33823e-05
4.07395e-11
3.33823e-05
5.32072e-11
3.33823e-05
6.2883e-11
3.33823e-05
6.69257e-11
3.33822e-05
6.11896e-11
4.28064e-11
3.5922e-05
1.89522e-11
3.5922e-05
-1.13528e-11
3.5922e-05
-3.49431e-11
3.5922e-05
-4.97577e-11
3.5922e-05
-5.6923e-11
3.5922e-05
-5.8085e-11
3.5922e-05
-5.46381e-11
3.5922e-05
-4.77702e-11
3.59221e-05
-3.84565e-11
3.59221e-05
-2.74461e-11
3.59221e-05
-1.52554e-11
3.59221e-05
-2.20114e-12
3.59221e-05
1.1514e-11
3.59221e-05
2.56711e-11
3.59221e-05
3.98593e-11
3.59221e-05
5.32416e-11
3.59221e-05
6.42292e-11
3.59221e-05
6.98872e-11
3.59221e-05
6.56544e-11
4.78206e-11
3.84699e-05
1.97136e-11
3.84699e-05
-9.77675e-12
3.84699e-05
-3.2611e-11
3.84699e-05
-4.66877e-11
3.84699e-05
-5.33011e-11
3.84699e-05
-5.42492e-11
3.84699e-05
-5.09243e-11
3.84699e-05
-4.44834e-11
3.84699e-05
-3.58648e-11
3.84699e-05
-2.57819e-11
3.84699e-05
-1.4708e-11
3.84699e-05
-2.89916e-12
3.84699e-05
9.52585e-12
3.84699e-05
2.24574e-11
3.84699e-05
3.5627e-11
3.84699e-05
4.83833e-11
3.84699e-05
5.9357e-11
3.84699e-05
6.58131e-11
3.84699e-05
6.31805e-11
4.723e-11
4.10247e-05
1.69908e-11
4.10247e-05
-8.5894e-12
4.10247e-05
-2.7946e-11
4.10247e-05
-3.93554e-11
4.10247e-05
-4.43042e-11
4.10247e-05
-4.4602e-11
4.10247e-05
-4.14852e-11
4.10247e-05
-3.59434e-11
4.10247e-05
-2.87733e-11
4.10246e-05
-2.05791e-11
4.10246e-05
-1.17421e-11
4.10246e-05
-2.42291e-12
4.10246e-05
7.3655e-12
4.10247e-05
1.76312e-11
4.10247e-05
2.82534e-11
4.10247e-05
3.88094e-11
4.10247e-05
4.82982e-11
4.10247e-05
5.44956e-11
4.10247e-05
5.33509e-11
4.0548e-11
4.3585e-05
1.13568e-11
4.3585e-05
-6.92448e-12
4.3585e-05
-2.01497e-11
4.3585e-05
-2.73347e-11
4.3585e-05
-2.99819e-11
4.3585e-05
-2.96068e-11
4.3585e-05
-2.70864e-11
4.3585e-05
-2.3098e-11
4.35849e-05
-1.81911e-11
4.35849e-05
-1.27864e-11
4.35849e-05
-7.12998e-12
4.35849e-05
-1.2755e-12
4.35849e-05
4.85619e-12
4.35849e-05
1.13541e-11
4.35849e-05
1.81986e-11
4.3585e-05
2.51762e-11
4.3585e-05
3.17434e-11
4.3585e-05
3.64574e-11
4.3585e-05
3.64544e-11
2.79681e-11
4.61494e-05
4.30554e-12
4.61494e-05
-3.65934e-12
4.61494e-05
-8.86067e-12
4.61494e-05
-1.1376e-11
4.61494e-05
-1.20082e-11
4.61493e-05
-1.15347e-11
4.61493e-05
-1.0302e-11
4.61493e-05
-8.5804e-12
4.61493e-05
-6.596e-12
4.61493e-05
-4.52406e-12
4.61493e-05
-2.45163e-12
4.61493e-05
-3.56259e-13
4.61493e-05
1.8614e-12
4.61493e-05
4.27621e-12
4.61493e-05
6.87671e-12
4.61493e-05
9.56815e-12
4.61493e-05
1.224e-11
4.61494e-05
1.44218e-11
4.61494e-05
1.49995e-11
1.16999e-11
4.87162e-05
4.87162e-05
4.87162e-05
4.87162e-05
4.87162e-05
4.87162e-05
4.87162e-05
4.87161e-05
4.87161e-05
4.87161e-05
4.87161e-05
4.87161e-05
4.87161e-05
4.87161e-05
4.87161e-05
4.87162e-05
4.87162e-05
4.87162e-05
4.87162e-05
)
;

boundaryField
{
    movingWall
    {
        type            calculated;
        value           uniform 0;
    }
    fixedWalls
    {
        type            calculated;
        value           uniform 0;
    }
    left
    {
        type            cyclic;
        value           nonuniform List<scalar> 
20
(
-3.84699e-05
-3.5922e-05
-3.33822e-05
-3.08515e-05
-2.83305e-05
-2.58199e-05
-2.33199e-05
-2.08305e-05
-1.83514e-05
-1.58821e-05
-1.34219e-05
-1.09698e-05
-8.52462e-06
-6.08496e-06
-3.64936e-06
-1.21619e-06
-4.10247e-05
-4.3585e-05
-4.61494e-05
-4.87162e-05
)
;
    }
    right
    {
        type            cyclic;
        value           nonuniform List<scalar> 
20
(
3.84699e-05
3.5922e-05
3.33822e-05
3.08515e-05
2.83305e-05
2.58199e-05
2.33199e-05
2.08305e-05
1.83514e-05
1.58821e-05
1.34219e-05
1.09698e-05
8.52462e-06
6.08496e-06
3.64936e-06
1.21619e-06
4.10247e-05
4.3585e-05
4.61494e-05
4.87162e-05
)
;
    }
    frontAndBack
    {
        type            empty;
        value           nonuniform List<scalar> 0();
    }
}


// ************************************************************************* //
