/*--------------------------------*- C++ -*----------------------------------*\
  =========                 |
  \\      /  F ield         | OpenFOAM: The Open Source CFD Toolbox
   \\    /   O peration     | Website:  https://openfoam.org
    \\  /    A nd           | Version:  8
     \\/     M anipulation  |
\*---------------------------------------------------------------------------*/
FoamFile
{
    version     2.0;
    format      ascii;
    class       volScalarField;
    location    "26";
    object      p;
}
// * * * * * * * * * * * * * * * * * * * * * * * * * * * * * * * * * * * * * //

dimensions      [0 2 -2 0 0 0 0];

internalField   nonuniform List<scalar> 
2844
(
0.0174675
0.000786358
-0.0297209
-0.0667661
-0.0973745
-0.111344
-0.115789
-0.109641
-0.10387
-0.0932599
-0.0800236
-0.0604515
-0.0525211
-0.0326659
-0.0156175
-0.011488
-0.00340441
-0.00179313
0.00451584
0.00420976
0.026278
0.0105373
-0.0252658
-0.0672673
-0.0994275
-0.112284
-0.117774
-0.111339
-0.10626
-0.093982
-0.077969
-0.0604474
-0.0547931
-0.0334692
-0.0145803
-0.0192183
-0.00809016
-0.0022679
0.00679615
0.00463388
0.0471261
0.0237288
-0.0228038
-0.089043
-0.129687
-0.137041
-0.132325
-0.120949
-0.120215
-0.1054
-0.0864839
-0.0647141
-0.0619971
-0.039468
-0.0161091
-0.0244545
-0.0052217
-0.000962409
0.012696
0.0100197
0.0765353
0.0566801
-0.0115848
-0.100998
-0.146561
-0.143581
-0.141498
-0.122498
-0.122109
-0.112884
-0.0774491
-0.0676332
-0.0744941
-0.0427577
-0.0279429
-0.0533756
-0.0232583
-0.00407715
0.012705
0.00181159
0.136057
0.0985298
-0.00550484
-0.160397
-0.215556
-0.194055
-0.168453
-0.139909
-0.173463
-0.124993
-0.0953273
-0.0883513
-0.0994622
-0.0722452
-0.0605094
-0.0866561
-0.0661971
-0.022996
0.0202545
0.000653354
0.199737
0.16583
-0.014063
-0.245182
-0.295339
-0.231656
-0.202687
-0.133249
-0.1535
-0.14176
-0.0539907
-0.120704
-0.134732
-0.105697
-0.0983374
-0.139604
-0.130187
-0.0821217
-0.0458078
-0.00393037
0.334305
0.279123
-0.0772453
-0.448321
-0.44026
-0.313767
-0.233239
-0.140064
-0.308666
-0.173752
-0.0666895
-0.160829
-0.14188
-0.101534
-0.129525
-0.197331
-0.202202
-0.200043
-0.150323
-0.0121266
0.506505
0.447428
-0.152378
-0.801646
-0.760605
-0.415336
-0.324136
-0.0952693
-0.337682
-0.271948
0.00557343
-0.322762
-0.204638
-0.111808
-0.124365
-0.102653
-0.0877037
-0.0726981
-0.0551336
0.0168802
0.64855
0.524701
0.0327355
-0.328005
-0.120134
-0.59954
-0.209154
0.101434
-0.406031
-0.1856
-0.178203
-0.181144
0.0214551
0.0517314
0.0237482
0.015208
0.0105188
1.35647
0.686573
1.20251
-0.368244
-0.339932
-0.382157
-0.289006
-0.0969121
-0.467097
-0.214644
-0.204259
-0.270968
0.0325968
0.0577792
0.00970882
-0.00149972
0.0403672
1.24258
1.02621
-0.479042
-0.45339
-0.237011
-0.170103
-0.268513
-0.238493
-0.31622
-0.146804
-0.159489
-0.0452936
0.0232374
0.0312273
-0.0562574
-0.018768
0.748016
0.327669
1.06124
-0.589582
-0.735829
-0.0619216
-0.113913
-0.137411
0.11579
0.04177
-0.022211
-0.0743737
-0.170284
-0.0487283
0.0233115
-0.00346703
-0.0233745
0.34875
0.284881
-0.22916
-0.535097
-0.541332
-0.616249
-0.0355505
-0.146204
-0.135426
0.130193
0.0345428
-0.0480548
-0.0263468
-0.103273
-0.0153317
0.00856514
-0.00515213
-0.0148801
0.183999
0.0725034
-0.290264
-0.687652
-0.893076
-0.36966
-0.415179
-0.437862
-0.0983723
-0.143508
-0.121244
0.00459714
-0.00974727
-0.0305198
0.00597576
0.00279344
0.00886081
0.0484758
0.0191282
-0.0349501
0.0840086
0.00362562
-0.0944628
-0.342174
-0.428777
-0.337883
-0.287845
-0.262295
-0.142366
-0.102382
-0.0903744
-0.0423611
-0.0014857
0.00472468
0.0273836
0.0431963
0.0366207
0.0585196
0.0336675
-0.0219388
0.00744183
-0.0665979
-0.127497
-0.278236
-0.320586
-0.27672
-0.242531
-0.213567
-0.128645
-0.108867
-0.0772936
-0.0365142
0.000746966
0.000301954
0.01373
0.0472443
0.0487451
0.0718786
0.0724141
0.00563957
-0.0424702
-0.0811307
-0.119006
-0.18987
-0.226703
-0.23716
-0.203669
-0.18719
-0.146233
-0.106121
-0.0761421
-0.0493564
-0.0182674
0.00440316
0.0190571
0.040788
0.0453447
0.0522112
0.0580641
0.0184941
-0.0719087
-0.104171
-0.131478
-0.184579
-0.21054
-0.214492
-0.186368
-0.171869
-0.129592
-0.103344
-0.0780814
-0.0494294
-0.0201724
-0.00199656
0.0120517
0.0344602
0.0415129
0.0498252
0.0470133
0.0181705
-0.0912906
-0.10868
-0.131939
-0.163687
-0.181145
-0.193704
-0.175122
-0.160041
-0.133445
-0.103431
-0.0769233
-0.0519233
-0.026564
-0.00459407
0.0100942
0.027727
0.0354306
0.0384934
0.0334174
0.0155544
-0.0994149
-0.114041
-0.134126
-0.162061
-0.178065
-0.188184
-0.170428
-0.155985
-0.129495
-0.102269
-0.0777243
-0.0526576
-0.0275622
-0.00689134
0.00880546
0.0243565
0.0325205
0.0349083
0.0281616
0.0135446
0.0174679
0.000773765
-0.0297221
-0.066761
-0.0973709
-0.111355
-0.115789
-0.109638
-0.10389
-0.0932582
-0.0800424
-0.0604181
-0.0525528
-0.0326582
-0.0154598
-0.0117574
-0.00361886
-0.00194673
0.00432889
0.00416419
0.0262905
0.0104899
-0.0252938
-0.0672577
-0.0993877
-0.112284
-0.11779
-0.111379
-0.106255
-0.0939823
-0.0780159
-0.0604096
-0.0548646
-0.0333262
-0.0146482
-0.0194653
-0.00852601
-0.002586
0.00606756
0.00440737
0.0471437
0.0236172
-0.0229838
-0.0891036
-0.129594
-0.137027
-0.132509
-0.121083
-0.120355
-0.105667
-0.086532
-0.0644066
-0.0621079
-0.0395242
-0.0162062
-0.0241138
-0.00609834
-0.00177357
0.0109739
0.00951749
0.0767281
0.0565362
-0.012214
-0.101521
-0.146572
-0.143742
-0.141672
-0.123266
-0.122312
-0.113224
-0.0777419
-0.0671278
-0.074164
-0.0434554
-0.0291194
-0.0551697
-0.0243035
-0.00624151
0.00881959
0.00221792
0.136047
0.0986953
-0.00651961
-0.16673
-0.216743
-0.192965
-0.167584
-0.140688
-0.175161
-0.126568
-0.0953302
-0.087835
-0.0995871
-0.0708946
-0.0603563
-0.0838226
-0.0621393
-0.0247081
0.0130825
-0.000846179
0.200254
0.163577
-0.0104124
-0.262281
-0.306088
-0.226998
-0.202891
-0.133784
-0.154966
-0.147388
-0.0538639
-0.119663
-0.134622
-0.106937
-0.0999803
-0.136311
-0.120935
-0.0785875
-0.048015
-0.0102828
0.33631
0.26608
-0.0591394
-0.456195
-0.446554
-0.317274
-0.237194
-0.146411
-0.312529
-0.176579
-0.0702557
-0.169563
-0.144544
-0.109587
-0.137337
-0.197076
-0.200637
-0.197198
-0.150847
-0.0184435
0.511562
0.418739
-0.181824
-0.842477
-0.836433
-0.400805
-0.336014
-0.116913
-0.337855
-0.259254
0.00700192
-0.339936
-0.2102
-0.103989
-0.129789
-0.119639
-0.0944207
-0.0727647
-0.0674042
0.0129974
0.579235
0.53161
0.0258259
-0.33455
-0.131109
-0.604176
-0.206856
0.0642644
-0.407079
-0.185921
-0.172639
-0.189733
0.00976168
0.0539675
0.0153594
-0.00017024
0.0122431
1.43172
0.533846
1.66617
-0.363305
-0.352722
-0.362454
-0.308071
-0.1385
-0.471341
-0.215294
-0.213029
-0.285256
0.0480961
0.0835974
0.00772943
-0.000559459
0.0431782
1.27613
0.946749
-0.481018
-0.448222
-0.233388
-0.193346
-0.262124
-0.239565
-0.322285
-0.158473
-0.175299
-0.0304444
0.0254696
0.0301865
-0.0549679
-0.0239758
0.713318
0.456226
0.908823
-0.581331
-0.774204
-0.0545361
-0.112085
-0.146422
0.111512
0.0305714
-0.0380329
-0.0790071
-0.161812
-0.0492459
0.0178659
-0.00644632
-0.0250209
0.362504
0.305858
-0.288632
-0.572218
-0.556941
-0.629655
-0.0447047
-0.154909
-0.126039
0.124406
0.0164358
-0.0514612
-0.0275522
-0.101861
-0.013681
0.00687099
-0.00655787
-0.0193572
0.18473
0.0612815
-0.290293
-0.67065
-0.914283
-0.383261
-0.416259
-0.442526
-0.0934821
-0.14362
-0.125272
0.00748547
-0.00951524
-0.031299
0.00286853
-0.000164351
0.00706342
0.0504189
0.0155556
-0.0407857
0.0849628
0.00189213
-0.0929504
-0.341611
-0.445894
-0.339938
-0.291522
-0.265994
-0.14078
-0.101427
-0.0936487
-0.0460807
-0.00303169
0.00560857
0.0255941
0.0425606
0.0369538
0.0556707
0.0250587
-0.0231701
0.00760137
-0.0672006
-0.131363
-0.283952
-0.325802
-0.281987
-0.2428
-0.213459
-0.131617
-0.110028
-0.0785905
-0.0373745
0.000899406
0.000978151
0.0125881
0.0452404
0.0490123
0.0729982
0.0700557
0.00395581
-0.0424626
-0.0811617
-0.119992
-0.191438
-0.228079
-0.237555
-0.203882
-0.187944
-0.146549
-0.106495
-0.0761271
-0.0497495
-0.0186074
0.00465993
0.0189095
0.0406101
0.0452958
0.0529676
0.0591996
0.0197507
-0.0719114
-0.10413
-0.131905
-0.185506
-0.211099
-0.214831
-0.186513
-0.171854
-0.12961
-0.10328
-0.078084
-0.0494205
-0.020081
-0.00192658
0.0119134
0.0343489
0.0417488
0.0500802
0.0469812
0.0186655
-0.091285
-0.108673
-0.132036
-0.163981
-0.18119
-0.19369
-0.17513
-0.160058
-0.133454
-0.103456
-0.0769638
-0.0519388
-0.0265847
-0.00457521
0.0100567
0.02768
0.0354263
0.0386257
0.0333178
0.0157424
-0.0994122
-0.114039
-0.134151
-0.162106
-0.178076
-0.188197
-0.170434
-0.155986
-0.129494
-0.10227
-0.0777254
-0.0526558
-0.0275575
-0.00688937
0.00879958
0.0243528
0.0325346
0.0349486
0.0281512
0.0136123
0.0174674
0.000775497
-0.0297171
-0.0667574
-0.0973772
-0.111371
-0.115796
-0.109638
-0.103902
-0.0932515
-0.0800629
-0.0603772
-0.0525555
-0.0326509
-0.0152434
-0.0118151
-0.00367704
-0.00200162
0.00431915
0.00416458
0.0262839
0.0105095
-0.0252656
-0.0672501
-0.0993742
-0.112287
-0.117818
-0.111428
-0.106247
-0.0939854
-0.0780739
-0.0603426
-0.05493
-0.0331044
-0.0147313
-0.0196806
-0.00870367
-0.002669
0.0058432
0.0043687
0.0471512
0.0238197
-0.0228913
-0.0891096
-0.129642
-0.137123
-0.132635
-0.121295
-0.120367
-0.105689
-0.086456
-0.0641251
-0.062168
-0.0397937
-0.016081
-0.0234533
-0.00648909
-0.00176547
0.0103749
0.00932078
0.0765921
0.0574167
-0.0119369
-0.101669
-0.146202
-0.143847
-0.142038
-0.124026
-0.122493
-0.11346
-0.0782686
-0.0662492
-0.0739334
-0.043076
-0.0306573
-0.0569005
-0.0260743
-0.00722634
0.00828195
0.00331006
0.135766
0.100964
-0.00623861
-0.167102
-0.216746
-0.19315
-0.168274
-0.141803
-0.176887
-0.126416
-0.0935341
-0.08602
-0.0988683
-0.0719708
-0.0599187
-0.0808477
-0.0598022
-0.0266046
0.00868972
0.0008089
0.20087
0.168514
-0.0155765
-0.276243
-0.309296
-0.222754
-0.204293
-0.133672
-0.154397
-0.150526
-0.0534476
-0.115868
-0.134627
-0.108615
-0.0995229
-0.131679
-0.11905
-0.0758717
-0.0483219
-0.011961
0.341808
0.288355
-0.0272644
-0.465599
-0.45732
-0.316985
-0.232668
-0.14102
-0.31828
-0.170227
-0.0637179
-0.159827
-0.136276
-0.104166
-0.141232
-0.202631
-0.196956
-0.180875
-0.134872
-0.0224645
0.529198
0.43278
-0.175821
-0.88035
-0.83186
-0.370388
-0.342489
-0.116958
-0.319128
-0.256499
-0.0122801
-0.333018
-0.206311
-0.0938866
-0.116657
-0.119272
-0.08473
-0.0594941
-0.0653822
0.0127622
0.557282
0.508934
0.0464614
-0.32971
-0.128029
-0.58103
-0.231917
0.0594919
-0.384398
-0.186171
-0.162788
-0.168311
0.0156512
0.0484962
0.0109673
-0.00279197
0.0140729
1.4419
0.63235
1.65037
-0.357214
-0.338307
-0.344588
-0.316635
-0.133215
-0.475956
-0.212541
-0.201399
-0.270787
0.0619782
0.079054
0.00405885
0.00662036
0.0535571
1.28071
0.733124
-0.479695
-0.438623
-0.250324
-0.214751
-0.253131
-0.241338
-0.31717
-0.164121
-0.180324
-0.019486
0.0416233
0.0321558
-0.0506813
-0.0230021
0.734959
0.564125
0.642061
-0.562904
-0.74053
-0.0732879
-0.146238
-0.120212
0.117127
0.010498
-0.0405264
-0.0783483
-0.153568
-0.0459266
0.0149742
-0.00786636
-0.0273248
0.367682
0.303899
-0.281255
-0.570973
-0.576432
-0.588546
-0.0205694
-0.149323
-0.112762
0.131441
0.0149202
-0.0494125
-0.0261075
-0.0966957
-0.00873757
0.00922206
-0.00434714
-0.0146333
0.18576
0.0588399
-0.25949
-0.604422
-0.907381
-0.396532
-0.410435
-0.437102
-0.087282
-0.143199
-0.118616
0.0249206
-0.000115235
-0.0383702
0.00393098
0.0021269
0.00613623
0.048227
0.012215
-0.0499321
0.085272
0.00421848
-0.0875076
-0.336561
-0.454884
-0.341299
-0.294234
-0.261831
-0.135361
-0.0999544
-0.0941664
-0.0458359
-0.00080891
0.00670289
0.0243781
0.0423043
0.0364185
0.0530529
0.0252388
-0.0266579
0.00770842
-0.0662805
-0.131871
-0.286558
-0.327077
-0.284736
-0.24036
-0.212658
-0.129369
-0.108525
-0.0804824
-0.0374159
0.00178877
0.00183342
0.0122282
0.0458028
0.0503859
0.0728435
0.0735653
0.00759578
-0.0424922
-0.0810038
-0.119892
-0.19139
-0.228801
-0.237553
-0.203059
-0.187204
-0.146613
-0.106027
-0.0757075
-0.0494746
-0.0182444
0.00522775
0.0187268
0.0401938
0.0462584
0.0537619
0.0570004
0.0197147
-0.0719319
-0.104096
-0.131971
-0.185919
-0.211056
-0.214889
-0.186445
-0.171801
-0.129615
-0.102974
-0.0780616
-0.0494596
-0.0199072
-0.00174718
0.0118154
0.0342919
0.0422117
0.0505056
0.0468422
0.0189165
-0.0912807
-0.10867
-0.132069
-0.163964
-0.181173
-0.193659
-0.175092
-0.160038
-0.133454
-0.103475
-0.0770247
-0.0519544
-0.0265695
-0.00453848
0.0100466
0.0276123
0.0355329
0.0387262
0.0332172
0.0158001
-0.0994131
-0.114038
-0.13416
-0.162114
-0.178066
-0.188194
-0.170437
-0.155981
-0.129497
-0.102258
-0.077726
-0.0526568
-0.0275478
-0.0068766
0.00879719
0.0243423
0.0325634
0.0349697
0.02816
0.0136346
-0.445043
-0.165176
-0.790317
-0.169961
-0.48398
-0.165611
-0.87516
-0.869433
-0.840995
-0.914687
-0.411577
-0.819815
-0.415095
-0.321424
-0.311745
-0.421681
-0.412901
-0.31176
-0.318759
-0.42229
0.348464
0.658048
0.755763
0.536167
0.35931
0.67173
0.678575
0.635716
0.0285572
0.381475
-0.345416
-0.352736
-0.351592
-0.353855
-0.309766
-0.360644
-0.330019
-0.332186
-0.3135
-0.359702
-0.331505
0.881536
1.02693
1.04537
0.539876
0.677352
0.997414
1.02285
1.36441
-0.36368
-0.357664
-0.37157
-0.43669
-0.44585
-0.365353
-0.371848
-0.436179
-0.448089
1.08852
0.59015
1.08358
1.02363
1.04535
0.570865
0.971717
0.978743
0.952321
-0.508996
-0.515708
-0.504544
-0.509301
-0.580036
-0.480623
-0.510583
-0.515427
-0.599265
0.720746
0.393504
0.54057
0.357418
0.716703
0.402938
0.524345
0.282036
0.963356
0.170114
-0.569164
-0.506529
-0.576841
-0.520188
-0.667702
-0.549848
-0.624902
-0.589594
-0.681511
-0.547298
-0.631726
-1.19099
-0.153009
-0.448663
-0.262948
-1.16891
-0.166547
-0.4604
-0.930259
-1.04769
-0.954531
-1.06524
-0.986375
-0.656739
-0.99516
-0.666168
-0.548088
-0.493792
-0.543043
-0.560638
-0.546105
-0.498087
-0.522758
-0.479422
-0.178793
-0.899617
-0.186417
-0.468757
-0.208111
-0.877641
-0.912272
-0.873056
-0.89368
-0.416253
-0.841384
-0.411493
-0.305729
-0.314902
-0.434406
-0.387238
-0.297656
-0.290798
-0.456806
0.376582
0.691391
0.645745
0.511488
0.397403
0.711798
0.674214
0.323509
0.0419339
0.370467
-0.356104
-0.354521
-0.366451
-0.356512
-0.309718
-0.355296
-0.328407
-0.333819
-0.303609
-0.350703
-0.325807
0.782706
0.935731
1.04925
0.610806
0.996342
0.908935
1.07283
2.27412
-0.353902
-0.348003
-0.368482
-0.435544
-0.450248
-0.357584
-0.371423
-0.432904
-0.453105
1.06858
0.499143
0.911874
0.772155
1.10778
0.37947
0.931345
0.928593
0.966286
-0.515485
-0.510088
-0.518946
-0.518919
-0.614797
-0.480507
-0.524168
-0.519696
-0.616599
0.724089
0.422348
0.501833
0.523112
0.741325
0.438939
0.476973
0.109461
0.690953
0.00715005
-0.571987
-0.518249
-0.578346
-0.506109
-0.693872
-0.537787
-0.633899
-0.569591
-0.70127
-0.523807
-0.629876
-1.18618
-0.163731
-0.465025
-0.295036
-1.1828
-0.158563
-0.44054
-0.954793
-1.07013
-0.935323
-1.09098
-0.993079
-0.671293
-0.991659
-0.688736
-0.536198
-0.511058
-0.498093
-0.577912
-0.523717
-0.498808
-0.47584
-0.431744
-0.236547
-0.836082
-0.152026
-0.386253
-0.217294
-0.769858
-0.88653
-0.895282
-0.864048
-0.406219
-0.78196
-0.381575
-0.295742
-0.281824
-0.467298
-0.34809
-0.298411
-0.265267
-0.466025
0.434746
0.729846
0.805501
0.510782
0.473375
0.733711
0.861194
0.465915
0.0741125
0.486093
-0.368712
-0.357071
-0.370797
-0.357422
-0.301258
-0.34848
-0.32547
-0.326565
-0.296174
-0.345884
-0.319775
0.905415
0.893779
1.05725
0.652957
1.07397
0.891671
1.12178
1.1509
-0.349228
-0.353776
-0.365491
-0.432042
-0.44692
-0.358293
-0.365243
-0.430782
-0.446059
1.04921
0.436304
1.08197
0.785508
1.1905
0.541055
1.34176
1.1051
1.62097
-0.507319
-0.50355
-0.521166
-0.518604
-0.607386
-0.478039
-0.523445
-0.516439
-0.608837
0.80172
0.474091
0.454779
0.573768
0.831729
0.493053
0.45937
-0.0142131
0.479719
-0.033173
-0.576982
-0.503455
-0.577648
-0.498329
-0.702206
-0.528346
-0.637214
-0.560114
-0.703855
-0.528702
-0.635795
-1.16375
-0.143858
-0.391625
-0.262286
-1.13806
-0.131601
-0.347136
-0.913826
-1.0958
-0.865347
-1.09869
-0.990974
-0.689899
-0.974274
-0.690559
-0.507474
-0.498617
-0.453581
-0.559943
-0.507354
-0.470906
-0.458769
-0.512684
-0.622795
-0.781328
-0.454421
-0.523352
-0.641021
-0.810873
-0.352208
-0.833631
-0.507402
-0.443608
-0.352122
-0.85766
-0.515101
-1.11865
-0.897065
-0.888177
-0.815407
-0.916568
-0.906555
-1.0872
-0.917274
-0.64128
-1.18231
-0.775342
-0.650821
-1.20267
-0.914408
-0.148357
-0.203019
0.351126
0.0324025
-0.214222
0.338804
-0.145826
-0.336324
-0.336319
1.13108
-0.388562
-0.370278
-0.383613
-0.367541
-0.370124
-0.383201
-0.38798
-0.483176
-0.464175
-0.494464
-0.479466
-0.465074
-0.494897
-0.48101
0.583327
1.0522
0.570541
-1.87447
-1.46402
-1.45972
-1.87975
-0.580577
-0.530401
-0.547402
-0.539755
-0.531909
-0.548489
-0.583124
-0.839486
-0.604996
-0.69979
-0.695475
-0.848199
-0.617603
-0.709442
-0.747713
-0.689689
-0.552209
-0.908641
-0.749571
-0.704417
-0.558623
-0.529803
-0.628313
-0.798719
-0.466315
-0.53499
-0.637465
-0.797647
-0.359358
-0.854633
-0.536027
-0.451605
-0.363492
-0.834063
-0.549105
-1.17076
-0.946851
-0.921281
-0.849256
-1.16702
-0.949812
-0.914956
-0.948847
-0.702
-1.28792
-0.846623
-0.940828
-0.714611
-1.30011
-0.172848
-0.249808
0.253052
0.0173323
-0.172055
-0.238171
0.223319
-0.33242
-0.330931
2.08785
-0.384361
-0.36653
-0.37949
-0.361002
-0.384743
-0.366335
-0.378035
-0.488982
-0.467787
-0.496176
-0.481154
-0.488666
-0.468846
-0.495757
0.511838
0.850738
0.501797
-1.93451
-1.50825
-1.90426
-1.53798
-0.549418
-0.531916
-0.574408
-0.579638
-0.560456
-0.528091
-0.587614
-0.842485
-0.607587
-0.707765
-0.651082
-0.841482
-0.61345
-0.708656
-0.744863
-0.697973
-0.566596
-0.916796
-0.748736
-0.708819
-0.576506
-0.532086
-0.628082
-0.787545
-0.455668
-0.522594
-0.627953
-0.785779
-0.373015
-0.805039
-0.56325
-0.457801
-0.372749
-0.808152
-0.571046
-1.14796
-0.951798
-0.848735
-0.889455
-1.15309
-0.956497
-0.825952
-0.967042
-0.716708
-1.31338
-0.815847
-0.965598
-0.713369
-1.32411
-0.143069
-0.149363
0.223323
0.0574831
-0.152305
-0.119155
0.230535
-0.323912
-0.322207
1.33079
-0.380556
-0.364226
-0.375634
-0.357374
-0.382567
-0.363229
-0.375493
-0.486694
-0.467498
-0.492243
-0.478981
-0.486339
-0.467556
-0.490853
0.393261
0.583319
0.356166
-1.99
-1.55635
-1.99002
-1.53821
-0.515355
-0.51085
-0.598489
-0.56409
-0.517383
-0.507499
-0.592057
-0.821946
-0.591693
-0.701047
-0.57235
-0.813821
-0.579006
-0.692496
-0.743097
-0.704777
-0.58506
-0.898524
-0.740644
-0.697069
-0.586646
-0.390853
-0.613101
-0.438761
-0.809131
-0.616316
-0.453861
-0.370831
-0.410146
-0.841059
-0.608317
-0.495874
-0.613051
-0.474582
-0.429379
-1.2558
-0.95715
-1.32364
-0.889464
-0.968823
-1.34886
-1.24058
-1.40952
-0.995164
-1.02865
-1.38011
-1.1474
-0.823845
-0.943726
-0.927917
-0.928688
-0.920027
-1.16266
-1.27391
-0.902001
-0.971586
-1.40298
-0.969107
-1.38147
-1.28613
-1.44094
-1.09382
-1.06548
-1.46738
-0.55244
-0.479157
-0.39398
-0.413648
-0.482677
-0.390055
-0.552506
-0.627484
-0.38619
-0.384219
-0.621148
-0.922571
-0.795187
-0.68676
-1.26672
-0.663451
-1.23533
-0.930935
-0.553087
-0.414561
-0.504118
-0.373
-0.492225
-0.381852
-0.555957
-0.632106
-0.359344
-0.375021
-0.633161
-0.340951
-0.265524
-0.340612
-0.315829
-0.273599
-0.339533
-0.340064
-0.347624
-0.318567
-0.289416
-0.346502
-0.285062
-0.347315
-0.341064
-0.34084
-0.348031
0.378998
0.552072
0.344293
-0.157709
0.0305724
-0.244872
0.294516
-0.229519
0.317823
-0.165561
-0.360618
-0.356479
0.461852
0.294153
0.318154
-0.359936
-0.342768
-0.355995
-0.347905
-0.344462
-0.357236
-0.358783
-0.355053
-0.352782
-0.355361
-0.334123
-0.335988
-0.360809
-0.347946
-0.344573
-0.361303
-0.344587
-0.358826
-0.361817
-0.353618
-0.356947
-0.356607
0.532491
-0.034243
1.56843
0.801128
-0.0785031
1.50549
0.591877
0.3029
1.05404
0.501579
1.01758
1.02469
0.485932
0.343592
0.494399
0.695127
-0.104639
1.5921
-0.105216
1.46657
0.513206
0.281844
1.00799
0.971956
0.520569
0.990056
0.499853
0.244349
1.1761
-0.362659
-0.360677
-0.412107
-0.417092
-0.43104
-0.436683
-0.41711
-0.431512
-0.411751
-0.386839
-0.366924
-0.369498
-0.381157
-0.368974
-0.38235
-0.387376
-0.41166
-0.436527
-0.416549
-0.43168
-0.416917
-0.430758
-0.412208
0.672382
0.616613
1.05026
1.04086
0.596111
1.03259
0.703559
0.70062
1.12778
0.780104
1.05591
1.06699
0.763306
0.736145
0.629148
1.02463
0.642701
1.09638
0.607488
1.04165
0.61829
0.695291
1.00704
1.02393
0.761934
1.02079
0.761738
0.689342
0.966727
0.952097
-0.511933
-0.512539
-0.525564
-0.529271
-0.525873
-0.509607
-0.530388
-0.527021
-0.523192
-0.485423
-0.480058
-0.467301
-0.496084
-0.465602
-0.495596
-0.487707
-0.528318
-0.513963
-0.533571
-0.535205
-0.532413
-0.532513
-0.531876
-0.0867491
0.412579
-0.127794
0.271223
0.414209
-0.117659
-0.0582967
-0.385952
-0.387484
0.997721
0.52808
0.545401
-0.142545
0.232672
0.404866
-0.165735
0.438713
-0.12612
-0.206775
-0.420044
-0.384122
-0.534392
-0.572563
-0.536602
-0.53136
-0.533106
-0.527167
-0.544829
-0.475266
-0.510775
-0.546517
-0.480286
-0.525007
-0.568971
-0.538839
-0.536018
-0.534224
-0.535101
-0.530252
-0.514551
-0.550416
-0.489866
-0.546899
-0.487039
-0.531392
-0.61499
-0.765989
-0.908689
-1.18828
-0.781587
-0.928038
-0.612328
-0.61606
-1.16974
-0.811794
-0.960087
-0.799264
-0.941475
-0.625494
-1.42925
-1.13639
-1.03296
-0.934065
-1.13818
-1.04335
-1.41507
-1.56721
-1.6295
-1.05291
-1.05607
-1.64011
-1.06181
-1.56051
-1.86726
-1.47833
-1.45953
-1.8749
-1.43378
-0.941638
-1.16786
-1.06901
-1.14296
-1.05365
-1.45389
-1.5686
-1.05944
-1.64518
-1.08491
-1.64234
-1.07021
-1.57407
-0.958532
-0.723416
-0.728188
-0.946273
-1.14555
-1.54746
-0.835114
-0.994739
-1.55872
-0.847539
-1.14507
-0.835722
-0.662999
-0.738509
-0.659051
-0.664288
-0.747333
-0.835308
-0.968255
-0.741224
-0.734207
-0.97293
-1.14392
-0.99366
-1.56668
-0.868058
-1.56331
-0.855426
-1.14113
-0.837833
-0.661744
-0.673972
-0.767582
-0.668662
-0.75603
-0.840673
-0.576253
-0.548629
-0.534649
-0.561894
-0.533829
-0.552874
-0.569562
-0.448552
-0.610093
-0.510102
-0.913289
-0.441545
-0.622708
-0.517622
-0.437922
-0.905647
-0.637578
-0.49203
-0.633611
-0.507228
-0.418408
-1.2996
-0.962288
-1.41433
-0.907573
-1.29472
-0.954382
-1.41944
-1.49286
-1.10847
-1.48863
-1.10594
-1.17165
-0.85871
-0.954864
-0.884771
-0.952544
-0.902561
-1.16687
-1.30159
-0.898306
-0.940309
-1.42424
-0.945587
-1.42084
-1.3042
-1.48518
-1.05932
-1.08691
-1.47397
-0.557842
-0.515226
-0.364676
-0.416074
-0.558039
-0.525281
-0.354682
-0.630598
-0.339026
-0.632763
-0.325584
-0.954493
-0.845527
-0.71818
-1.30945
-0.717923
-1.30569
-0.960792
-0.554305
-0.415461
-0.534393
-0.328899
-0.53289
-0.342285
-0.548736
-0.62703
-0.294468
-0.303207
-0.623473
-0.338544
-0.284619
-0.346302
-0.309061
-0.339357
-0.27025
-0.344823
-0.336641
-0.300884
-0.237456
-0.33356
-0.253328
-0.339466
-0.333177
-0.364832
-0.3598
0.282725
0.269294
0.270359
-0.164921
0.0278138
-0.179114
0.219274
-0.210174
0.215131
-0.163607
-0.332329
-0.349868
0.284536
0.280067
0.281001
-0.366142
-0.34484
-0.364948
-0.359724
-0.364153
-0.345156
-0.367134
-0.357281
-0.355207
-0.357296
-0.326531
-0.328991
-0.368716
-0.363952
-0.347267
-0.370909
-0.347294
-0.369317
-0.370523
-0.355858
-0.357512
-0.35728
0.807091
-0.0327579
1.89838
0.92764
0.610881
0.110015
2.15489
0.149274
0.975025
0.518274
1.07219
0.190334
0.970378
0.480915
0.821527
1.07835
0.0741903
1.93444
0.155384
2.27394
0.69064
0.128443
1.09229
0.936865
0.412966
0.932744
0.47491
0.136744
2.62639
-0.350729
-0.348536
-0.411712
-0.415954
-0.430741
-0.434729
-0.411675
-0.415198
-0.431308
-0.383288
-0.358908
-0.364041
-0.375924
-0.364762
-0.376765
-0.382033
-0.411174
-0.433816
-0.413397
-0.431136
-0.414298
-0.43094
-0.410543
0.548531
0.635377
1.16139
1.09429
0.597216
0.604453
1.17944
0.710056
1.08318
0.752903
0.843193
0.702758
1.14309
0.75613
0.475517
1.11424
0.515811
1.02607
0.591821
1.13669
0.406029
0.676177
0.838522
1.17938
0.730072
1.17673
0.737891
0.628322
0.895449
0.89633
-0.514815
-0.512688
-0.531017
-0.534159
-0.537982
-0.520012
-0.531356
-0.534049
-0.538028
-0.48819
-0.481007
-0.469103
-0.493754
-0.468569
-0.494935
-0.488389
-0.527814
-0.520562
-0.5325
-0.533934
-0.533409
-0.536292
-0.52637
-0.295609
0.382671
-0.214103
0.0720051
-0.269149
0.347619
-0.245011
-0.483161
-0.541823
0.766119
0.431477
0.471733
-0.302392
0.0250056
0.284321
-0.303089
0.304487
-0.275953
-0.30227
-0.617119
-0.590349
-0.536603
-0.578294
-0.53624
-0.528492
-0.519927
-0.529331
-0.547938
-0.488841
-0.516137
-0.53112
-0.547829
-0.484909
-0.575035
-0.531817
-0.533335
-0.502497
-0.510105
-0.526258
-0.510869
-0.540983
-0.476012
-0.543965
-0.480269
-0.522846
-0.656418
-0.827516
-0.978876
-1.19719
-0.63935
-0.83036
-0.998174
-0.661679
-1.1968
-0.799411
-1.04168
-0.820044
-1.01982
-0.656814
-1.45421
-1.1803
-1.07721
-0.953141
-1.456
-1.18748
-1.08512
-1.58476
-1.64252
-1.10037
-1.07535
-1.57882
-1.63964
-1.11586
-1.96386
-1.56414
-1.55933
-1.98112
-1.4479
-0.944887
-1.17758
-1.09213
-1.18586
-1.0884
-1.43955
-1.59128
-1.0813
-1.63316
-1.14525
-1.63655
-1.13015
-1.59595
-0.963413
-0.747858
-0.971387
-0.751959
-1.13304
-1.5666
-0.88167
-0.992369
-1.13663
-1.56406
-0.895164
-0.842138
-0.68101
-0.776506
-0.677635
-0.842274
-0.688303
-0.785949
-0.952962
-0.746399
-0.751553
-0.940377
-1.13066
-0.990519
-1.5519
-0.911061
-1.56008
-0.903916
-1.13054
-0.8403
-0.682621
-0.700232
-0.800033
-0.694453
-0.793842
-0.837165
-0.536238
-0.58183
-0.518305
-0.601534
-0.520227
-0.597931
-0.526746
-0.372045
-0.627337
-0.480032
-0.800409
-0.390036
-0.619509
-0.477619
-0.34171
-0.772484
-0.595461
-0.453568
-0.60513
-0.468304
-0.324406
-1.32213
-0.932537
-1.42989
-0.875115
-1.3079
-0.934952
-1.44424
-1.48666
-1.02994
-1.47438
-1.01903
-1.14069
-0.894964
-0.96374
-0.785876
-0.963775
-0.801144
-1.13061
-1.33381
-0.879221
-0.95283
-1.45572
-0.95463
-1.4582
-1.33861
-1.49071
-1.01483
-1.01188
-1.49991
-0.533521
-0.555366
-0.317428
-0.397147
-0.5421
-0.544287
-0.310046
-0.63452
-0.288791
-0.624993
-0.287385
-0.964059
-0.795746
-0.701514
-1.31876
-0.708928
-1.32956
-0.955833
-0.524049
-0.390047
-0.568854
-0.307539
-0.571528
-0.307832
-0.520829
-0.649715
-0.29258
-0.292155
-0.650159
-0.320495
-0.229156
-0.322769
-0.274338
-0.325451
-0.224813
-0.316433
-0.31087
-0.268217
-0.224498
-0.303853
-0.224153
-0.30668
-0.3076
-0.307676
-0.276617
0.264832
0.520204
0.259905
-0.127676
0.0685512
-0.103214
0.240121
-0.101882
0.236631
-0.119812
-0.255248
-0.246224
0.516316
0.25733
0.251741
-0.372477
-0.348985
-0.371316
-0.369571
-0.37178
-0.348371
-0.372116
-0.35827
-0.35734
-0.35874
-0.322143
-0.322393
-0.372392
-0.370424
-0.350259
-0.372093
-0.34963
-0.372133
-0.372318
-0.357386
-0.359166
-0.359002
0.767787
0.0631881
1.70883
0.967316
0.683326
0.101033
1.6625
0.268827
0.985004
0.391556
1.04809
0.188169
1.03036
0.391778
0.775402
1.0309
0.159321
1.63879
0.114929
1.64512
0.828218
0.347625
1.07553
1.10355
0.414169
1.07204
0.398501
0.398778
1.19872
-0.350968
-0.352759
-0.408615
-0.412545
-0.430739
-0.431395
-0.409401
-0.411927
-0.430897
-0.38172
-0.357914
-0.363088
-0.375805
-0.364198
-0.375711
-0.380265
-0.407976
-0.430984
-0.411246
-0.430985
-0.411536
-0.43098
-0.407557
0.401973
0.450575
0.895795
1.03193
0.363384
0.433632
0.902038
0.700725
1.24559
0.738226
1.19513
0.62529
1.37759
0.817464
0.444571
1.08598
0.435379
1.03354
0.43815
0.967935
0.465012
0.804223
1.28553
1.77119
0.874527
1.56268
0.863371
0.874439
1.27024
1.46548
-0.505128
-0.503688
-0.520133
-0.531129
-0.529896
-0.517304
-0.521519
-0.530026
-0.527669
-0.485533
-0.478378
-0.466235
-0.489236
-0.466455
-0.489752
-0.485456
-0.517994
-0.516686
-0.528757
-0.524624
-0.529148
-0.525747
-0.517134
-0.302399
0.246867
-0.33631
-0.0272643
-0.2968
0.225478
-0.359679
-0.636403
-0.64811
0.520637
0.32071
0.330653
-0.30054
-0.0325589
0.219754
-0.396349
0.220589
-0.380861
-0.293149
-0.66263
-0.657415
-0.529558
-0.577991
-0.528516
-0.496661
-0.493507
-0.516026
-0.538221
-0.474389
-0.500057
-0.519287
-0.535601
-0.473059
-0.577607
-0.527227
-0.52762
-0.491327
-0.49181
-0.513198
-0.498977
-0.53208
-0.47393
-0.53318
-0.473966
-0.511604
-0.648855
-0.775764
-1.06401
-1.14749
-0.651613
-0.755979
-1.08238
-0.64623
-1.14191
-0.709379
-1.09549
-0.736056
-1.09489
-0.633869
-1.42434
-1.16466
-1.08816
-0.898454
-1.43164
-1.15196
-1.08671
-1.5996
-1.62906
-1.15491
-1.10117
-1.59879
-1.62426
-1.16683
-1.98436
-1.5036
-1.51946
-1.97472
-1.41949
-0.882361
-1.11367
-1.07705
-1.13907
-1.08502
-1.40331
-1.60054
-1.10548
-1.61227
-1.17841
-1.62024
-1.17945
-1.59672
-0.919436
-0.737889
-0.929135
-0.729425
-1.13065
-1.54722
-0.912739
-0.98851
-1.13019
-1.53568
-0.914397
-0.832196
-0.704271
-0.80046
-0.691834
-0.834336
-0.708164
-0.803274
-0.913606
-0.719672
-0.72336
-0.910206
-1.13047
-0.983277
-1.5171
-0.912285
-1.52869
-0.915418
-1.12912
-0.83161
-0.693181
-0.71063
-0.808859
-0.710949
-0.80897
-0.833157
-0.508031
-0.560574
-0.502454
-0.583825
-0.501864
-0.586226
-0.510635
)
;

boundaryField
{
    inlet
    {
        type            zeroGradient;
    }
    outlet
    {
        type            fixedValue;
        value           uniform 0;
    }
    up
    {
        type            zeroGradient;
    }
    down
    {
        type            zeroGradient;
    }
    frontAndBack
    {
        type            zeroGradient;
    }
    cylinder
    {
        type            zeroGradient;
    }
}


// ************************************************************************* //
