/*--------------------------------*- C++ -*----------------------------------*\
  =========                 |
  \\      /  F ield         | OpenFOAM: The Open Source CFD Toolbox
   \\    /   O peration     | Website:  https://openfoam.org
    \\  /    A nd           | Version:  8
     \\/     M anipulation  |
\*---------------------------------------------------------------------------*/
FoamFile
{
    version     2.0;
    format      ascii;
    class       volScalarField;
    location    "0.813";
    object      T;
}
// * * * * * * * * * * * * * * * * * * * * * * * * * * * * * * * * * * * * * //

dimensions      [0 0 0 1 0 0 0];

internalField   nonuniform List<scalar> 
100
(
49.9838
4.78336
-4.79793
-1.28988
1.20391
0.817441
-0.386702
-0.860882
0.204827
0.336916
95.2482
49.9827
11.0536
-4.91079
-3.43434
0.784044
2.25523
0.729134
-1.78535
-0.794598
104.75
89.0049
49.9186
13.3703
-4.37305
-4.87302
-0.479758
2.72934
2.05316
-0.350165
101.504
104.7
87.0385
49.235
14.5393
-3.23608
-5.29354
-0.869051
1.10329
1.11097
98.5492
103.665
104.064
87.0377
49.0412
15.0601
-3.89644
-7.05332
2.21448
1.85529
99.2732
99.1226
105.012
102.649
85.624
49.8685
18.4163
-3.61272
-10.9526
-1.013
100.151
97.9741
100.045
106.971
102.146
82.2276
49.0785
21.0713
0.668204
-7.19976
101.142
99.0293
97.4631
99.2329
109.333
102.844
80.7739
48.5097
14.8923
4.40562
100.019
101.565
98.4463
97.1883
99.402
110.352
101.2
83.5556
49.002
6.08764
99.5612
100.878
100.352
99.3935
97.2782
101.297
106.619
96.8429
94.3072
49.7108
)
;

boundaryField
{
    left
    {
        type            fixedValue;
        value           uniform 100;
    }
    right
    {
        type            zeroGradient;
    }
    up
    {
        type            zeroGradient;
    }
    down
    {
        type            fixedValue;
        value           uniform 0;
    }
    frontAndBack
    {
        type            empty;
    }
}


// ************************************************************************* //
