/*--------------------------------*- C++ -*----------------------------------*\
  =========                 |
  \\      /  F ield         | OpenFOAM: The Open Source CFD Toolbox
   \\    /   O peration     | Website:  https://openfoam.org
    \\  /    A nd           | Version:  8
     \\/     M anipulation  |
\*---------------------------------------------------------------------------*/
FoamFile
{
    version     2.0;
    format      ascii;
    class       surfaceScalarField;
    location    "0.255";
    object      phi;
}
// * * * * * * * * * * * * * * * * * * * * * * * * * * * * * * * * * * * * * //

dimensions      [0 3 -1 0 0 0 0];

internalField   nonuniform List<scalar> 
760
(
1.4233e-08
-1.42589e-08
-2.22067e-08
3.64397e-08
-1.14251e-07
9.20441e-08
-2.45452e-07
1.31201e-07
-3.9603e-07
1.50577e-07
-5.4727e-07
1.5124e-07
-6.83069e-07
1.35799e-07
-7.90522e-07
1.07452e-07
-8.60053e-07
6.95314e-08
-8.85483e-07
2.54296e-08
-8.64166e-07
-2.13166e-08
-7.97248e-07
-6.69177e-08
-6.89965e-07
-1.07283e-07
-5.51879e-07
-1.38086e-07
-3.96879e-07
-1.55e-07
-2.42712e-07
-1.54166e-07
-1.09719e-07
-1.32993e-07
-1.84163e-08
-9.13024e-08
1.56855e-08
-3.41018e-08
1.56855e-08
-3.42076e-08
1.99487e-08
-1.80342e-07
1.82574e-07
-4.33914e-07
3.45616e-07
-7.64302e-07
4.6159e-07
-1.13202e-06
5.18292e-07
-1.49699e-06
5.1621e-07
-1.82302e-06
4.61837e-07
-2.08018e-06
3.64606e-07
-2.24589e-06
2.35243e-07
-2.30565e-06
8.51858e-08
-2.25352e-06
-7.34448e-08
-2.0927e-06
-2.27739e-07
-1.83596e-06
-3.64024e-07
-1.50579e-06
-4.68248e-07
-1.1339e-06
-5.26896e-07
-7.59402e-07
-5.28664e-07
-4.25336e-07
-4.67059e-07
-1.72667e-07
-3.4397e-07
-3.07985e-08
-1.7597e-07
-1.5113e-08
-9.22106e-08
1.12159e-07
-3.56933e-07
4.47296e-07
-7.64424e-07
7.53107e-07
-1.26827e-06
9.65431e-07
-1.81438e-06
1.06441e-06
-2.34864e-06
1.05046e-06
-2.82195e-06
9.35144e-07
-3.19339e-06
7.36052e-07
-3.43202e-06
4.73871e-07
-3.51791e-06
1.71078e-07
-3.44299e-06
-1.48367e-07
-3.21172e-06
-4.59011e-07
-2.84163e-06
-7.34109e-07
-2.36341e-06
-9.46466e-07
-1.82002e-06
-1.07029e-06
-1.26428e-06
-1.0844e-06
-7.54403e-07
-9.7694e-07
-3.46916e-07
-7.51457e-07
-8.73225e-08
-4.35564e-07
-1.02435e-07
-1.45184e-07
2.57344e-07
-5.2537e-07
8.27481e-07
-1.08145e-06
1.30918e-06
-1.74721e-06
1.6312e-06
-2.45391e-06
1.77111e-06
-3.13584e-06
1.73239e-06
-3.73466e-06
1.53396e-06
-4.2022e-06
1.20359e-06
-4.50217e-06
7.73838e-07
-4.61116e-06
2.80074e-07
-4.51951e-06
-2.40015e-07
-4.23205e-06
-7.4648e-07
-3.76876e-06
-1.19739e-06
-3.16513e-06
-1.55009e-06
-2.47149e-06
-1.76394e-06
-1.7508e-06
-1.80509e-06
-1.07434e-06
-1.65339e-06
-5.15059e-07
-1.31074e-06
-1.39293e-07
-8.11329e-07
-2.41729e-07
-1.93576e-07
4.5092e-07
-6.84889e-07
1.31879e-06
-1.3854e-06
2.00969e-06
-2.20689e-06
2.45269e-06
-3.06498e-06
2.6292e-06
-3.88317e-06
2.55058e-06
-4.59578e-06
2.24658e-06
-5.14978e-06
1.75759e-06
-5.5056e-06
1.12965e-06
-5.63766e-06
4.12136e-07
-5.53491e-06
-3.4276e-07
-5.20159e-06
-1.0798e-06
-4.65819e-06
-1.7408e-06
-3.94238e-06
-2.26591e-06
-3.10925e-06
-2.59706e-06
-2.23018e-06
-2.68416e-06
-1.38944e-06
-2.49413e-06
-6.78401e-07
-2.02178e-06
-1.8774e-07
-1.30199e-06
-4.29468e-07
-2.39905e-07
6.90825e-07
-8.40231e-07
1.91912e-06
-1.68306e-06
2.85252e-06
-2.65669e-06
3.42633e-06
-3.66034e-06
3.63285e-06
-4.60715e-06
3.49739e-06
-5.42562e-06
3.06506e-06
-6.05976e-06
2.39173e-06
-6.4685e-06
1.53839e-06
-6.62518e-06
5.68821e-07
-6.51748e-06
-4.50468e-07
-6.14802e-06
-1.44926e-06
-5.53584e-06
-2.35297e-06
-4.71834e-06
-3.08341e-06
-3.753e-06
-3.5624e-06
-2.71815e-06
-3.71902e-06
-1.71133e-06
-3.50095e-06
-8.44559e-07
-2.88855e-06
-2.36149e-07
-1.9104e-06
-6.65618e-07
-2.86712e-07
9.77537e-07
-9.96977e-07
2.62938e-06
-1.98187e-06
3.83741e-06
-3.10462e-06
4.54907e-06
-4.2475e-06
4.77574e-06
-5.31426e-06
4.56414e-06
-6.22946e-06
3.98026e-06
-6.93644e-06
3.09871e-06
-7.39472e-06
1.99666e-06
-7.57784e-06
7.51945e-07
-7.4724e-06
-5.55908e-07
-7.07841e-06
-1.84326e-06
-6.41125e-06
-3.02012e-06
-5.50505e-06
-3.98961e-06
-4.41664e-06
-4.65081e-06
-3.22907e-06
-4.90659e-06
-2.05276e-06
-4.67725e-06
-1.02244e-06
-3.91887e-06
-2.88253e-07
-2.64459e-06
-9.53871e-07
-3.36305e-07
1.31384e-06
-1.16028e-06
3.45336e-06
-2.28785e-06
4.96497e-06
-3.55473e-06
5.81596e-06
-4.82626e-06
6.04727e-06
-5.99862e-06
5.73649e-06
-6.99551e-06
4.97715e-06
-7.76294e-06
3.86614e-06
-8.26387e-06
2.49759e-06
-8.47399e-06
9.62065e-07
-8.37936e-06
-6.50543e-07
-7.97633e-06
-2.24629e-06
-7.27407e-06
-3.72238e-06
-6.29953e-06
-4.96416e-06
-5.10434e-06
-5.846e-06
-3.77229e-06
-6.23864e-06
-2.42473e-06
-6.02481e-06
-1.22067e-06
-5.12293e-06
-3.47684e-07
-3.51757e-06
-1.30156e-06
-3.90941e-07
1.70478e-06
-1.33483e-06
4.39725e-06
-2.60487e-06
6.23501e-06
-4.00578e-06
7.21686e-06
-5.38659e-06
7.42808e-06
-6.63947e-06
6.98937e-06
-7.6921e-06
6.02978e-06
-8.49809e-06
4.67214e-06
-9.02802e-06
3.02752e-06
-9.26252e-06
1.19656e-06
-9.18825e-06
-7.24807e-07
-8.79711e-06
-2.63743e-06
-8.08903e-06
-4.43046e-06
-7.07874e-06
-5.97445e-06
-5.8061e-06
-7.11864e-06
-4.34888e-06
-7.69586e-06
-2.83471e-06
-7.53898e-06
-1.44704e-06
-6.5106e-06
-4.18082e-07
-4.54653e-06
-1.71964e-06
-4.5345e-07
2.15823e-06
-1.52567e-06
5.46947e-06
-2.93485e-06
7.6442e-06
-4.45007e-06
8.73208e-06
-5.90626e-06
8.88427e-06
-7.19773e-06
8.28084e-06
-8.26356e-06
7.09561e-06
-9.07195e-06
5.48053e-06
-9.60675e-06
3.56232e-06
-9.85747e-06
1.44728e-06
-9.8133e-06
-7.68978e-07
-9.46126e-06
-2.98947e-06
-8.789e-06
-5.10272e-06
-7.7929e-06
-6.97055e-06
-6.49213e-06
-8.41942e-06
-4.9479e-06
-9.24008e-06
-3.28507e-06
-9.20182e-06
-1.70865e-06
-8.08702e-06
-5.03579e-07
-5.7516e-06
-2.22322e-06
-5.28344e-07
2.68658e-06
-1.73968e-06
6.68081e-06
-3.27802e-06
9.18253e-06
-4.87169e-06
1.03258e-05
-6.3471e-06
1.03597e-05
-7.61093e-06
9.54467e-06
-8.62447e-06
8.10916e-06
-9.37981e-06
6.23587e-06
-9.88112e-06
4.06362e-06
-1.01317e-05
1.69782e-06
-1.01259e-05
-7.74735e-07
-9.84644e-06
-3.26893e-06
-9.26607e-06
-5.68308e-06
-8.3564e-06
-7.88022e-06
-7.10474e-06
-9.67108e-06
-5.54073e-06
-1.08041e-05
-3.77072e-06
-1.09718e-05
-2.01217e-06
-9.84556e-06
-6.09689e-07
-7.15408e-06
-2.83291e-06
-6.23686e-07
3.31026e-06
-1.98744e-06
8.04457e-06
-3.63203e-06
1.08271e-05
-5.24211e-06
1.19358e-05
-6.64781e-06
1.17654e-05
-7.78477e-06
1.06816e-05
-8.65135e-06
8.97574e-06
-9.27467e-06
6.85919e-06
-9.68692e-06
4.47587e-06
-9.9102e-06
1.9211e-06
-9.9476e-06
-7.37333e-07
-9.77893e-06
-3.43761e-06
-9.36118e-06
-6.10082e-06
-8.63586e-06
-8.60555e-06
-7.54657e-06
-1.07604e-05
-6.07171e-06
-1.2279e-05
-4.27434e-06
-1.27692e-05
-2.36368e-06
-1.17562e-05
-7.44786e-07
-8.77298e-06
-3.57769e-06
-7.54105e-07
4.06437e-06
-2.28444e-06
9.57491e-06
-3.98719e-06
1.25299e-05
-5.50937e-06
1.3458e-05
-6.70997e-06
1.2966e-05
-7.57901e-06
1.15507e-05
-8.17058e-06
9.56731e-06
-8.55821e-06
7.24682e-06
-8.80834e-06
4.726e-06
-8.96567e-06
2.07843e-06
-9.04497e-06
-6.58036e-07
-9.0263e-06
-3.45627e-06
-8.85309e-06
-6.27404e-06
-8.43523e-06
-9.0234e-06
-7.66322e-06
-1.15324e-05
-6.44222e-06
-1.34999e-05
-4.75639e-06
-1.4455e-05
-2.76681e-06
-1.37458e-05
-9.22452e-07
-1.06173e-05
-4.50014e-06
-9.45241e-07
5.00961e-06
-2.6486e-06
1.12783e-05
-4.3112e-06
1.41925e-05
-5.57362e-06
1.47204e-05
-6.37112e-06
1.37635e-05
-6.78382e-06
1.19634e-05
-6.94112e-06
9.72461e-06
-6.97042e-06
7.27611e-06
-6.9735e-06
4.72908e-06
-7.01722e-06
2.12216e-06
-7.1293e-06
-5.45957e-07
-7.29441e-06
-3.29116e-06
-7.44921e-06
-6.11923e-06
-7.47837e-06
-8.99425e-06
-7.21831e-06
-1.17924e-05
-6.48302e-06
-1.42352e-05
-5.1336e-06
-1.58044e-05
-3.21506e-06
-1.56643e-05
-1.16441e-06
-1.2668e-05
-5.66455e-06
-1.23735e-06
6.24696e-06
-3.0834e-06
1.31243e-05
-4.50793e-06
1.5617e-05
-5.23482e-06
1.54473e-05
-5.35568e-06
1.38843e-05
-5.08241e-06
1.16901e-05
-4.63156e-06
9.27377e-06
-4.18e-06
6.82455e-06
-3.85513e-06
4.40422e-06
-3.73781e-06
2.00483e-06
-3.86589e-06
-4.17872e-07
-4.23335e-06
-2.9237e-06
-4.78272e-06
-5.56987e-06
-5.3916e-06
-8.38536e-06
-5.85891e-06
-1.13251e-05
-5.90688e-06
-1.41873e-05
-5.23301e-06
-1.64783e-05
-3.66636e-06
-1.7231e-05
-1.50011e-06
-1.48342e-05
-7.16466e-06
-1.67384e-06
7.92079e-06
-3.51347e-06
1.4964e-05
-4.3155e-06
1.6419e-05
-4.08919e-06
1.5221e-05
-3.19349e-06
1.29886e-05
-1.99929e-06
1.04959e-05
-7.95798e-07
8.07027e-06
2.18605e-07
5.81015e-06
9.17452e-07
3.70538e-06
1.22481e-06
1.69748e-06
1.10128e-06
-2.94348e-07
5.40332e-07
-2.36275e-06
-4.23579e-07
-4.60596e-06
-1.69312e-06
-7.11582e-06
-3.07284e-06
-9.94539e-06
-4.23113e-06
-1.3029e-05
-4.69584e-06
-1.60136e-05
-3.96728e-06
-1.79596e-05
-1.94495e-06
-1.68566e-05
-9.10961e-06
-2.23071e-06
1.01515e-05
-3.59037e-06
1.63236e-05
-3.07794e-06
1.59066e-05
-1.34414e-06
1.34872e-05
8.96656e-07
1.07478e-05
3.15448e-06
8.23808e-06
5.13753e-06
6.08722e-06
6.68803e-06
4.25965e-06
7.72512e-06
2.66828e-06
8.20582e-06
1.21678e-06
8.10317e-06
-1.91697e-07
7.39836e-06
-1.65794e-06
6.08626e-06
-3.29386e-06
4.19868e-06
-5.22824e-06
1.85375e-06
-7.60047e-06
-6.62004e-07
-1.05132e-05
-2.79236e-06
-1.38833e-05
-3.66218e-06
-1.70897e-05
-2.41157e-06
-1.81072e-05
-1.15212e-05
-2.57383e-06
1.27253e-05
-2.18351e-06
1.59333e-05
7.17959e-07
1.30051e-05
4.46937e-06
9.7358e-06
8.133e-06
7.08421e-06
1.13012e-05
5.06989e-06
1.38286e-05
3.55979e-06
1.56876e-05
2.40071e-06
1.68911e-05
1.46475e-06
1.74543e-05
6.53586e-07
1.73758e-05
-1.13189e-07
1.66299e-05
-9.12114e-07
1.51667e-05
-1.8306e-06
1.29231e-05
-2.98465e-06
9.86142e-06
-4.53879e-06
6.06173e-06
-6.71354e-06
1.91219e-06
-9.73371e-06
-1.5597e-06
-1.36178e-05
-2.45836e-06
-1.72085e-05
-1.39795e-05
-7.85013e-07
1.35103e-05
4.08078e-06
1.10675e-05
1.02975e-05
6.78841e-06
1.57935e-05
4.23977e-06
2.01579e-05
2.71988e-06
2.34578e-05
1.76992e-06
2.58605e-05
1.15711e-06
2.75212e-05
7.40032e-07
2.85537e-05
4.3228e-07
2.9026e-05
1.81217e-07
2.89618e-05
-4.89771e-08
2.83384e-05
-2.88687e-07
2.70815e-05
-5.73722e-07
2.50548e-05
-9.57933e-07
2.20515e-05
-1.5355e-06
1.78153e-05
-2.47739e-06
1.21723e-05
-4.09066e-06
5.47768e-06
-6.92322e-06
-1.29181e-07
-1.16017e-05
-1.41087e-05
1.35103e-05
2.45779e-05
3.13663e-05
3.5606e-05
3.83259e-05
4.00958e-05
4.12529e-05
4.1993e-05
4.24253e-05
4.26065e-05
4.25575e-05
4.22688e-05
4.16951e-05
4.07372e-05
3.92017e-05
3.67243e-05
3.26336e-05
2.57104e-05
1.41087e-05
)
;

boundaryField
{
    movingWall
    {
        type            calculated;
        value           uniform 0;
    }
    fixedWalls
    {
        type            calculated;
        value           uniform 0;
    }
    frontAndBack
    {
        type            empty;
        value           nonuniform List<scalar> 0();
    }
}


// ************************************************************************* //
