/*--------------------------------*- C++ -*----------------------------------*\
  =========                 |
  \\      /  F ield         | OpenFOAM: The Open Source CFD Toolbox
   \\    /   O peration     | Website:  https://openfoam.org
    \\  /    A nd           | Version:  8
     \\/     M anipulation  |
\*---------------------------------------------------------------------------*/
FoamFile
{
    version     2.0;
    format      ascii;
    class       volScalarField;
    location    "1.5";
    object      p;
}
// * * * * * * * * * * * * * * * * * * * * * * * * * * * * * * * * * * * * * //

dimensions      [0 2 -2 0 0 0 0];

internalField   nonuniform List<scalar> 
11600
(
-3.1109e-10
7.75112e-07
2.54881e-06
5.27778e-06
8.95982e-06
1.35915e-05
1.91682e-05
2.56843e-05
3.31335e-05
4.15083e-05
5.08005e-05
6.10009e-05
7.20996e-05
8.40856e-05
9.69471e-05
0.000110672
0.000125246
0.000140656
0.000156886
0.000173921
0.000191745
0.000210341
0.00022969
0.000249774
0.000270575
0.000292074
0.000314249
0.00033708
0.000360547
0.000384628
0.0004093
0.000434543
0.000460334
0.000486649
0.000513466
0.000540763
0.000568516
0.000596703
0.000625301
0.000654287
0.000683641
0.00071334
0.000743364
0.000773695
0.000804313
0.000835204
0.000866353
0.00089775
0.000929389
0.000961267
0.000993393
0.00102578
0.00105846
0.00109149
0.00112494
0.00115896
0.00119375
0.00122949
0.00126849
0.00130339
-7.75334e-07
6.84762e-10
1.77624e-06
4.50748e-06
8.19249e-06
1.28279e-05
1.8409e-05
2.49303e-05
3.23854e-05
4.07669e-05
5.00665e-05
6.0275e-05
7.13825e-05
8.33779e-05
9.62496e-05
0.000109985
0.000124571
0.000139992
0.000156235
0.000173284
0.000191121
0.000209731
0.000229095
0.000249195
0.000270012
0.000291526
0.000313718
0.000336566
0.00036005
0.000384149
0.000408839
0.0004341
0.000459909
0.000486243
0.000513079
0.000540394
0.000568165
0.00059637
0.000624986
0.00065399
0.000683361
0.000713076
0.000743116
0.000773461
0.000804092
0.000834993
0.000866151
0.000897552
0.000929191
0.000961064
0.000993174
0.00102554
0.00105817
0.00109112
0.00112446
0.00115827
0.00119271
0.00122798
0.00126515
0.00130017
-2.55065e-06
-1.77367e-06
5.13847e-09
2.74141e-06
6.4332e-06
1.10771e-05
1.66684e-05
2.32017e-05
3.06704e-05
3.90672e-05
4.83838e-05
5.86109e-05
6.97385e-05
8.17557e-05
9.46506e-05
0.000108411
0.000123023
0.000138472
0.000154744
0.000171823
0.000189692
0.000208334
0.000227732
0.000247868
0.000268721
0.000290272
0.000312502
0.000335389
0.000358913
0.000383052
0.000407783
0.000433086
0.000458936
0.000485312
0.000512191
0.000539548
0.000567362
0.000595609
0.000624266
0.000653311
0.00068272
0.000712474
0.000742549
0.000772927
0.000803588
0.000834515
0.000865692
0.000897107
0.000928748
0.00096061
0.000992692
0.001025
0.00105754
0.00109034
0.00112344
0.00115688
0.00119071
0.00122498
0.00125984
0.00129384
-5.28713e-06
-4.50806e-06
-2.72424e-06
1.97659e-08
3.722e-06
8.379e-06
1.39861e-05
2.05378e-05
2.80276e-05
3.6448e-05
4.57907e-05
5.60465e-05
6.72052e-05
7.92559e-05
9.21867e-05
0.000105985
0.000120637
0.000136129
0.000152446
0.000169572
0.000187489
0.000206183
0.000225633
0.000245822
0.000266731
0.00028834
0.000310628
0.000333576
0.000357161
0.000381362
0.000406157
0.000431523
0.000457439
0.00048388
0.000510824
0.000538247
0.000566126
0.000594438
0.000623159
0.000652266
0.000681737
0.000711549
0.000741681
0.000772111
0.000802819
0.000833787
0.000864997
0.000896434
0.000928084
0.000959936
0.000991984
0.00102422
0.00105665
0.00108928
0.0011221
0.00115513
0.00118835
0.00122173
0.00125516
0.00128813
-8.98749e-06
-8.20549e-06
-6.41487e-06
-3.6604e-06
5.59504e-08
4.73071e-06
1.03592e-05
1.69358e-05
2.44541e-05
3.29064e-05
4.22845e-05
5.2579e-05
6.37799e-05
7.58759e-05
8.88553e-05
0.000102705
0.000117412
0.000132962
0.000149339
0.000166528
0.000184512
0.000203273
0.000222795
0.000243057
0.000264042
0.000285728
0.000308096
0.000331125
0.000354793
0.000379078
0.000403959
0.000429412
0.000455415
0.000481945
0.000508977
0.000536489
0.000564457
0.000592857
0.000621665
0.000650858
0.000680412
0.000710305
0.000740514
0.000771016
0.00080179
0.000832816
0.000864075
0.000895547
0.000927216
0.000959067
0.000991084
0.00102326
0.00105557
0.00108801
0.00112056
0.00115319
0.00118585
0.00121846
0.00125085
0.0012827
-1.36556e-05
-1.28699e-05
-1.10707e-05
-8.303e-06
-4.56882e-06
1.28358e-07
5.78382e-06
1.23919e-05
1.99461e-05
2.84388e-05
3.78616e-05
4.82051e-05
5.9459e-05
7.16123e-05
8.4653e-05
9.85682e-05
0.000113344
0.000128967
0.00014542
0.000162689
0.000180756
0.000199604
0.000219215
0.00023957
0.00026065
0.000282434
0.000304903
0.000328034
0.000351807
0.000376199
0.000401188
0.000426751
0.000452865
0.000479506
0.000506651
0.000534276
0.000562356
0.000590868
0.000619786
0.000649088
0.000678749
0.000708745
0.000739053
0.000769648
0.000800509
0.000831613
0.000862938
0.000894463
0.000926168
0.00095803
0.000990031
0.00102215
0.00105436
0.00108664
0.00111895
0.00115124
0.00118344
0.00121545
0.0012471
0.00127817
-1.92962e-05
-1.85059e-05
-1.66963e-05
-1.39126e-05
-1.01569e-05
-5.4326e-06
2.55482e-07
6.90166e-06
1.44993e-05
2.30408e-05
3.25176e-05
4.29203e-05
5.42386e-05
6.64611e-05
7.9576e-05
9.357e-05
0.00010843
0.00012414
0.000140686
0.000158051
0.000176219
0.000195172
0.000214891
0.000235358
0.000256553
0.000278456
0.000301046
0.000324302
0.000348202
0.000372723
0.000397843
0.000423539
0.000449788
0.000476564
0.000503846
0.000531607
0.000559824
0.000588471
0.000617525
0.000646959
0.000676751
0.000706874
0.000737303
0.000768015
0.000798985
0.000830189
0.000861602
0.000893201
0.00092496
0.000956856
0.000988861
0.00102095
0.00105309
0.00108524
0.00111736
0.00114938
0.00118124
0.00121281
0.00124396
0.0012745
-2.59148e-05
-2.51192e-05
-2.32974e-05
-2.04949e-05
-1.67138e-05
-1.19577e-05
-6.23128e-06
4.59632e-07
8.10832e-06
1.67071e-05
2.62474e-05
3.67197e-05
4.81135e-05
6.04174e-05
7.36194e-05
8.77061e-05
0.000102664
0.000118478
0.000135132
0.000152611
0.000170897
0.000189973
0.00020982
0.000230418
0.000251749
0.000273791
0.000296524
0.000319926
0.000343975
0.000368648
0.000393922
0.000419775
0.000446181
0.000473118
0.00050056
0.000528482
0.00055686
0.000585668
0.000614882
0.000644474
0.000674421
0.000704695
0.000735271
0.000766124
0.000797228
0.000828555
0.000860081
0.000891777
0.000923617
0.000955572
0.000987611
0.0010197
0.0010518
0.00108388
0.00111587
0.00114771
0.00117933
0.00121061
0.00124144
0.00127167
-3.35181e-05
-3.27164e-05
-3.08805e-05
-2.80564e-05
-2.42461e-05
-1.94534e-05
-1.36829e-05
-6.9405e-06
7.66927e-07
9.43167e-06
1.9045e-05
2.95973e-05
4.1078e-05
5.34755e-05
6.67776e-05
8.0971e-05
9.60416e-05
0.000111975
0.000128754
0.000146364
0.000164786
0.000184003
0.000203996
0.000224746
0.000246233
0.000268435
0.000291332
0.000314902
0.000339123
0.000363971
0.000389424
0.000415456
0.000442045
0.000469166
0.000496793
0.000524902
0.000553466
0.000582461
0.000611859
0.000641635
0.000671762
0.000702214
0.000732963
0.000763983
0.000795246
0.000826724
0.000858388
0.00089021
0.00092216
0.000954205
0.000986312
0.00101844
0.00105056
0.0010826
0.00111453
0.00114628
0.00117776
0.00120888
0.00123954
0.00126961
-4.21136e-05
-4.1305e-05
-3.94532e-05
-3.66046e-05
-3.27613e-05
-2.79271e-05
-2.21067e-05
-1.5306e-05
-7.5321e-06
1.20729e-06
1.09033e-05
2.15462e-05
3.31252e-05
4.56288e-05
5.90443e-05
7.33584e-05
8.85568e-05
0.000104624
0.000121545
0.000139303
0.000157879
0.000177257
0.000197416
0.000218337
0.00024
0.000262384
0.000285468
0.000309229
0.000333644
0.00035869
0.000384344
0.000410581
0.000437378
0.000464707
0.000492545
0.000520866
0.000549642
0.000578849
0.000608459
0.000638445
0.00066878
0.000699436
0.000730385
0.000761599
0.000793049
0.000824706
0.000856539
0.000888517
0.000920608
0.000952778
0.000984989
0.0010172
0.00104937
0.00108145
0.00111339
0.00114511
0.00117654
0.00120761
0.00123822
0.00126826
-5.17101e-05
-5.08936e-05
-4.9024e-05
-4.61481e-05
-4.22679e-05
-3.73872e-05
-3.1511e-05
-2.46452e-05
-1.67969e-05
-7.97403e-06
1.81446e-06
1.25587e-05
2.42477e-05
3.68697e-05
5.04121e-05
6.48612e-05
8.02026e-05
9.64208e-05
0.0001135
0.000131423
0.000150172
0.000169728
0.000190073
0.000211186
0.000233047
0.000255634
0.000278926
0.0003029
0.000327533
0.000352801
0.000378681
0.000405148
0.000432176
0.00045974
0.000487815
0.000516373
0.000545389
0.000574834
0.000604683
0.000634906
0.000665476
0.000696364
0.000727542
0.000758979
0.000790646
0.000822511
0.000854544
0.000886711
0.000918978
0.000951309
0.000983666
0.00101601
0.00104828
0.00108045
0.00111245
0.00114423
0.0011757
0.00120681
0.00123746
0.00126758
-6.2317e-05
-6.1492e-05
-5.96027e-05
-5.66964e-05
-5.27753e-05
-4.78433e-05
-4.19052e-05
-3.49673e-05
-2.70366e-05
-1.81213e-05
-8.23042e-06
2.62596e-06
1.44368e-05
2.71901e-05
4.08729e-05
5.54715e-05
7.09711e-05
8.73562e-05
0.00010461
0.000122716
0.000141656
0.000161411
0.000181961
0.000203287
0.000225366
0.000248179
0.000271702
0.000295912
0.000320787
0.000346301
0.000372432
0.000399152
0.000426438
0.000454263
0.0004826
0.000511423
0.000540704
0.000570417
0.000600531
0.00063102
0.000661854
0.000693003
0.000724439
0.000756129
0.000788044
0.00082015
0.000852416
0.000884806
0.000917285
0.000949816
0.00098236
0.00101487
0.00104731
0.00107962
0.00111175
0.00114364
0.00117524
0.00120646
0.00123724
0.00126751
-7.39451e-05
-7.31107e-05
-7.11997e-05
-6.82601e-05
-6.42941e-05
-5.93056e-05
-5.32997e-05
-4.62825e-05
-3.82614e-05
-2.92445e-05
-1.92411e-05
-8.26151e-06
3.68311e-06
1.65805e-05
3.04177e-05
4.51804e-05
6.08539e-05
7.74222e-05
9.48687e-05
0.000113176
0.000132325
0.000152298
0.000173074
0.000194633
0.000216953
0.000240013
0.00026379
0.00028826
0.0003134
0.000339185
0.000365591
0.000392592
0.000420161
0.000448273
0.0004769
0.000506015
0.00053559
0.000565596
0.000596006
0.000626789
0.000657916
0.000689357
0.000721081
0.000753056
0.00078525
0.00081763
0.000850163
0.000882812
0.000915541
0.000948312
0.000981085
0.00101382
0.00104646
0.00107897
0.00111129
0.00114336
0.00117514
0.00120655
0.00123753
0.00126802
-8.66062e-05
-8.57614e-05
-8.38268e-05
-8.08509e-05
-7.68359e-05
-7.17857e-05
-6.57057e-05
-5.86021e-05
-5.04822e-05
-4.13545e-05
-3.12284e-05
-2.01143e-05
-8.02372e-06
5.03101e-06
1.90365e-05
3.39784e-05
4.98415e-05
6.66098e-05
8.42662e-05
0.000102793
0.000122171
0.000142382
0.000163404
0.000185218
0.0002078
0.00023113
0.000255184
0.000279938
0.000305368
0.000331449
0.000358156
0.000385462
0.000413342
0.000441767
0.000470711
0.000500146
0.000530043
0.000560373
0.000591107
0.000622214
0.000653665
0.000685428
0.000717471
0.000749763
0.00078227
0.000814958
0.000847793
0.000880738
0.000913756
0.000946808
0.000979852
0.00101285
0.00104575
0.0010785
0.00111107
0.00114339
0.0011754
0.00120706
0.00123831
0.00126908
-0.000100313
-9.94569e-05
-9.74967e-05
-9.44813e-05
-9.04131e-05
-8.52961e-05
-7.91357e-05
-7.19382e-05
-6.37112e-05
-5.44633e-05
-4.4204e-05
-3.2944e-05
-2.0695e-05
-7.46961e-06
6.71852e-06
2.18548e-05
3.79238e-05
5.4909e-05
7.27931e-05
9.15579e-05
0.000111184
0.000131653
0.000152943
0.000175033
0.0001979
0.000221523
0.000245878
0.00027094
0.000296685
0.000323087
0.000350121
0.000377759
0.000405976
0.000434743
0.000464032
0.000493815
0.000524063
0.000554746
0.000585834
0.000617296
0.000649101
0.000681218
0.000713613
0.000746255
0.000779109
0.00081214
0.000845313
0.000878592
0.000911937
0.00094531
0.00097867
0.00101197
0.00104518
0.00107823
0.00111109
0.00114371
0.00117603
0.001208
0.00123956
0.00127067
-0.000115079
-0.000114211
-0.000112223
-0.000109165
-0.00010504
-9.98504e-05
-9.36031e-05
-8.63042e-05
-7.79616e-05
-6.85837e-05
-5.81806e-05
-4.67631e-05
-3.4343e-05
-2.09333e-05
-6.54794e-06
8.79826e-06
2.50895e-05
4.23089e-05
6.04389e-05
7.94609e-05
9.93556e-05
0.000120103
0.000141681
0.00016407
0.000187245
0.000211184
0.000235864
0.000261259
0.000287344
0.000314093
0.00034148
0.000369478
0.00039806
0.000427196
0.000456859
0.00048702
0.000517648
0.000548714
0.000580186
0.000612034
0.000644226
0.000676729
0.00070951
0.000742535
0.00077577
0.00080918
0.000842729
0.000876379
0.000910091
0.000943827
0.000977545
0.0010112
0.00104476
0.00107816
0.00111137
0.00114433
0.001177
0.00120933
0.00124126
0.00127276
-0.00013092
-0.000130039
-0.000128021
-0.000124917
-0.00012073
-0.000115463
-0.000109122
-0.000101715
-9.32474e-05
-8.37299e-05
-7.31721e-05
-6.15851e-05
-4.8981e-05
-3.53731e-05
-2.07756e-05
-5.20362e-06
1.13266e-05
2.87979e-05
4.71924e-05
6.6491e-05
8.6674e-05
0.000107721
0.00012961
0.000152319
0.000175826
0.000200105
0.000225134
0.000250887
0.000277338
0.000304461
0.000332229
0.000360614
0.000389588
0.000419123
0.000449189
0.000479757
0.000510796
0.000542275
0.000574163
0.000606429
0.00063904
0.000671962
0.000705162
0.000738605
0.000772257
0.000806082
0.000840043
0.000874103
0.000908222
0.000942361
0.000976479
0.00101053
0.00104448
0.00107828
0.00111189
0.00114525
0.00117832
0.00121105
0.00124341
0.00127533
-0.000147852
-0.000146957
-0.000144907
-0.000141754
-0.0001375
-0.00013215
-0.000125709
-0.000118185
-0.000109584
-9.99168e-05
-8.91931e-05
-7.74245e-05
-6.46232e-05
-5.08029e-05
-3.5978e-05
-2.01641e-05
-3.37778e-06
1.43635e-05
3.30413e-05
5.26364e-05
7.31283e-05
9.44962e-05
0.000116718
0.000139771
0.000163632
0.000188277
0.00021368
0.000239817
0.00026666
0.000294184
0.00032236
0.00035116
0.000380556
0.000410518
0.000441017
0.000472022
0.000503503
0.000535427
0.000567763
0.000600479
0.000633541
0.000666916
0.00070057
0.000734467
0.000768572
0.000802848
0.00083726
0.000871767
0.000906333
0.000940916
0.000975477
0.00100997
0.00104436
0.0010786
0.00111264
0.00114645
0.00117997
0.00121316
0.00124598
0.00127837
-0.000165891
-0.000164981
-0.000162897
-0.000159692
-0.000155367
-0.000149928
-0.00014338
-0.000135731
-0.000126988
-0.00011716
-0.00010626
-9.42969e-05
-8.12849e-05
-6.72376e-05
-5.21698e-05
-3.60974e-05
-1.90375e-05
-1.00776e-06
1.79728e-05
3.78844e-05
5.87064e-05
8.04173e-05
0.000102995
0.000126415
0.000150655
0.00017569
0.000201493
0.00022804
0.000255303
0.000283254
0.000311866
0.00034111
0.000370957
0.000401377
0.000432339
0.000463812
0.000495765
0.000528167
0.000560984
0.000594183
0.00062773
0.000661593
0.000695734
0.00073012
0.000764714
0.00079948
0.000834379
0.000869374
0.000904426
0.000939494
0.000974539
0.00100952
0.00104439
0.00107911
0.00111364
0.00114794
0.00118195
0.00121564
0.00124896
0.00128188
-0.000185057
-0.000184131
-0.000182011
-0.00017875
-0.00017435
-0.000168816
-0.000162154
-0.000154371
-0.000145476
-0.000135478
-0.000124388
-0.000112219
-9.89824e-05
-8.46932e-05
-6.93665e-05
-5.30188e-05
-3.56672e-05
-1.73303e-05
1.9728e-06
2.22217e-05
4.33953e-05
6.54716e-05
8.84276e-05
0.00011224
0.000136883
0.000162333
0.000188563
0.000215546
0.000243256
0.000271664
0.000300741
0.000330458
0.000360785
0.000391693
0.000423149
0.000455122
0.00048758
0.000520491
0.000553822
0.000587538
0.000621605
0.000655989
0.000690655
0.000725566
0.000760686
0.000795977
0.000831403
0.000866924
0.000902502
0.000938096
0.000973666
0.00100917
0.00104457
0.00107982
0.00111488
0.00114971
0.00118425
0.00121848
0.00125236
0.00128583
-0.000205369
-0.000204427
-0.000202268
-0.000198947
-0.000194467
-0.000188832
-0.000182048
-0.000174124
-0.000165067
-0.000154888
-0.000143598
-0.000131208
-0.000117733
-0.000103187
-8.75848e-05
-7.09443e-05
-5.32828e-05
-3.46193e-05
-1.49734e-05
5.63399e-06
2.71813e-05
4.96458e-05
7.30042e-05
9.72321e-05
0.000122305
0.000148196
0.000174879
0.000202326
0.000230511
0.000259403
0.000288975
0.000319195
0.000350033
0.000381459
0.000413441
0.000445946
0.000478942
0.000512396
0.000546274
0.000580541
0.000615163
0.000650104
0.00068533
0.000720802
0.000756485
0.000792341
0.000828331
0.000864418
0.000900561
0.000936721
0.000972858
0.00100893
0.0010449
0.00108072
0.00111635
0.00115175
0.00118688
0.00122169
0.00125615
0.00129021
-0.000226849
-0.000225888
-0.000223688
-0.000220304
-0.000215738
-0.000209996
-0.000203084
-0.00019501
-0.000185782
-0.00017541
-0.000163907
-0.000151284
-0.000137555
-0.000122736
-0.000106842
-8.98911e-05
-7.1901e-05
-5.2891e-05
-3.28816e-05
-1.1894e-05
1.00495e-05
3.29258e-05
5.67109e-05
8.13799e-05
0.000106907
0.000133266
0.000160429
0.000188369
0.000217057
0.000246464
0.00027656
0.000307313
0.000338694
0.00037067
0.00040321
0.00043628
0.000469846
0.000503877
0.000538336
0.000573189
0.000608401
0.000643936
0.000679757
0.000715828
0.000752112
0.00078857
0.000825164
0.000861855
0.000898603
0.00093537
0.000972114
0.0010088
0.00104537
0.0010818
0.00111805
0.00115406
0.00118981
0.00122525
0.00126034
0.00129504
-0.000249517
-0.000248538
-0.000246294
-0.000242843
-0.000238187
-0.000232332
-0.000225283
-0.00021705
-0.00020764
-0.000197064
-0.000185335
-0.000172465
-0.000158468
-0.00014336
-0.000127157
-0.000109878
-9.15393e-05
-7.21626e-05
-5.17684e-05
-3.03783e-05
-8.0154e-06
1.52967e-05
3.95333e-05
6.4669e-05
9.06774e-05
0.000117531
0.000145203
0.000173664
0.000202885
0.000232836
0.000263486
0.000294804
0.000326759
0.000359318
0.000392448
0.000426116
0.000460287
0.000494928
0.000530004
0.000565478
0.000601316
0.00063748
0.000673935
0.000710642
0.000747564
0.000784662
0.000821899
0.000859234
0.000896628
0.000934041
0.000971433
0.00100876
0.00104599
0.00108308
0.00111998
0.00115665
0.00119306
0.00122916
0.00126491
0.00130028
-0.000273399
-0.000272399
-0.00027011
-0.000266588
-0.000261836
-0.000255861
-0.000248668
-0.000240266
-0.000230664
-0.000219873
-0.000207905
-0.000194774
-0.000180493
-0.00016508
-0.00014855
-0.000130923
-0.000112217
-9.24523e-05
-7.16513e-05
-4.9836e-05
-2.70299e-05
-3.25737e-06
2.14563e-05
4.70851e-05
7.36018e-05
0.000100979
0.000129187
0.000158199
0.000187982
0.000218508
0.000249744
0.000281658
0.00031422
0.000347394
0.000381148
0.000415448
0.000450258
0.000485545
0.000521272
0.000557404
0.000593904
0.000630735
0.00066786
0.00070524
0.000742839
0.000780617
0.000818535
0.000856553
0.000894633
0.000932733
0.000970814
0.00100884
0.00104675
0.00108453
0.00112213
0.0011595
0.00119661
0.00123341
0.00126988
0.00130595
-0.000298518
-0.000297498
-0.000295159
-0.000291562
-0.00028671
-0.000280608
-0.000273263
-0.000264683
-0.000254878
-0.000243859
-0.000231639
-0.000218232
-0.000203652
-0.000187916
-0.000171041
-0.000153047
-0.000133953
-0.000113779
-9.2549e-05
-7.0285e-05
-4.70113e-05
-2.2753e-05
2.4639e-06
2.86127e-05
5.56655e-05
8.3594e-05
0.000112369
0.00014196
0.000172337
0.000203469
0.000235322
0.000267866
0.000301066
0.00033489
0.000369302
0.000404268
0.000439753
0.000475721
0.000512136
0.000548962
0.000586161
0.000623696
0.000661528
0.000699621
0.000737935
0.000776431
0.00081507
0.000853812
0.000892617
0.000931445
0.000970255
0.00100901
0.00104766
0.00108617
0.0011245
0.00116261
0.00120046
0.00123801
0.00127522
0.00131204
-0.000324902
-0.000323859
-0.000321469
-0.000317793
-0.000312835
-0.000306599
-0.000299093
-0.000290325
-0.000280306
-0.000269048
-0.000256562
-0.000242863
-0.000227967
-0.000211891
-0.000194653
-0.000176272
-0.000156768
-0.000136164
-0.000114481
-9.17442e-05
-6.79779e-05
-4.32079e-05
-1.74608e-05
9.23568e-06
3.68532e-05
6.53625e-05
9.47336e-05
0.000124936
0.000155937
0.000187707
0.000220211
0.000253417
0.00028729
0.000321797
0.000356902
0.00039257
0.000428765
0.00046545
0.00050259
0.000540146
0.000578081
0.000616358
0.000654937
0.00069378
0.000732848
0.000772102
0.000811502
0.000851007
0.000890578
0.000930173
0.000969753
0.00100928
0.0010487
0.00108799
0.0011271
0.00116599
0.00120462
0.00124295
0.00128094
0.00131855
-0.000352578
-0.000351511
-0.000349067
-0.000345308
-0.000340237
-0.00033386
-0.000326185
-0.00031722
-0.000306975
-0.000295463
-0.000282697
-0.000268692
-0.000253464
-0.000237029
-0.000219408
-0.000200619
-0.000180685
-0.000159626
-0.000137468
-0.000114233
-8.99486e-05
-6.46402e-05
-3.83355e-05
-1.10628e-05
1.71486e-05
4.62687e-05
7.62667e-05
0.000107111
0.00013877
0.00017121
0.000204398
0.000238299
0.00027288
0.000308105
0.000343938
0.000380344
0.000417285
0.000454725
0.000492626
0.000530951
0.00056966
0.000608717
0.000648081
0.000687714
0.000727576
0.000767627
0.000807827
0.000848136
0.000888513
0.000928917
0.000969308
0.00100964
0.00104989
0.00108999
0.00112992
0.00116963
0.00120908
0.00124823
0.00128704
0.00132547
-0.000381575
-0.000380483
-0.000377982
-0.000374135
-0.000368947
-0.000362421
-0.000354567
-0.000345394
-0.000334912
-0.000323134
-0.000310073
-0.000295745
-0.000280166
-0.000263355
-0.000245331
-0.000226114
-0.000205726
-0.00018419
-0.000161531
-0.000137773
-0.000112944
-8.70693e-05
-6.01786e-05
-3.23005e-05
-3.46522e-06
2.62965e-05
5.6953e-05
8.84719e-05
0.00012082
0.000153964
0.00018787
0.000222502
0.000257826
0.000293804
0.000330402
0.000367582
0.000405306
0.000443538
0.000482238
0.00052137
0.000560892
0.000600768
0.000640957
0.000681419
0.000722114
0.000763003
0.000804044
0.000845197
0.000886421
0.000927675
0.000968917
0.00101011
0.0010512
0.00109216
0.00113295
0.00117352
0.00121383
0.00125384
0.00129352
0.00133281
-0.000411924
-0.000410806
-0.000408245
-0.000404306
-0.000398993
-0.000392312
-0.00038427
-0.000374877
-0.000364145
-0.000352087
-0.000338716
-0.000324049
-0.000308102
-0.000290895
-0.000272447
-0.000252779
-0.000231915
-0.000209878
-0.000186693
-0.000162386
-0.000136984
-0.000110516
-8.30095e-05
-5.4496e-05
-2.5006e-05
5.42893e-06
3.67762e-05
6.90027e-05
0.000102074
0.000135957
0.000170615
0.000206013
0.000242115
0.000278884
0.000316283
0.000354275
0.00039282
0.000431881
0.00047142
0.000511396
0.000551771
0.000592505
0.000633558
0.00067489
0.000716459
0.000758226
0.000800148
0.000842187
0.000884299
0.000926443
0.000968578
0.00101066
0.00105266
0.00109452
0.0011362
0.00117767
0.00121888
0.00125979
0.00130037
0.00134057
-0.000443658
-0.000442512
-0.000439888
-0.000435852
-0.000430408
-0.000423563
-0.000415324
-0.000405701
-0.000394706
-0.000382354
-0.000368657
-0.000353633
-0.000337299
-0.000319676
-0.000300783
-0.000280643
-0.000259278
-0.000236715
-0.000212978
-0.000188094
-0.000162092
-0.000135
-0.000106849
-7.76687e-05
-4.74922e-05
-1.63516e-05
1.57198e-05
4.86877e-05
8.25174e-05
0.000117174
0.00015262
0.00018882
0.000225738
0.000263334
0.000301572
0.000340413
0.000379817
0.000419747
0.000460163
0.000501024
0.000542291
0.000583924
0.000625881
0.000668122
0.000710606
0.000753292
0.000796137
0.000839102
0.000882143
0.00092522
0.00096829
0.00101131
0.00105424
0.00109704
0.00113967
0.00118208
0.00122423
0.00126608
0.0013076
0.00134874
-0.00047681
-0.000475636
-0.000472945
-0.000468808
-0.000463226
-0.000456208
-0.000447762
-0.000437897
-0.000426627
-0.000413964
-0.000399926
-0.000384527
-0.000367788
-0.000349727
-0.000330367
-0.000309731
-0.000287842
-0.000264726
-0.00024041
-0.000214921
-0.000188289
-0.000160544
-0.000131717
-0.000101839
-7.09431e-05
-3.90634e-05
-6.2339e-06
2.75102e-05
6.21333e-05
9.7599e-05
0.00013387
0.00017091
0.00020868
0.000247142
0.000286257
0.000325986
0.000366289
0.000407127
0.00044846
0.000490246
0.000532445
0.000575017
0.000617919
0.000661111
0.000704551
0.000748197
0.000792007
0.00083594
0.000879952
0.000924003
0.000968049
0.00101205
0.00105596
0.00109974
0.00114335
0.00118674
0.00122987
0.00127271
0.00131521
0.00135733
-0.000511417
-0.000510212
-0.000507452
-0.000503208
-0.000497482
-0.000490283
-0.000481618
-0.0004715
-0.00045994
-0.000446953
-0.000432555
-0.000416763
-0.000399597
-0.000381078
-0.000361229
-0.000340072
-0.000317632
-0.000293937
-0.000269015
-0.000242893
-0.000215601
-0.000187172
-0.000157636
-0.000127027
-9.53788e-05
-6.27256e-05
-2.91029e-05
5.45321e-06
4.0906e-05
7.72182e-05
0.000114352
0.000152269
0.00019093
0.000230296
0.000270328
0.000310984
0.000352226
0.000394012
0.000436302
0.000479054
0.000522226
0.000565778
0.000609667
0.000653852
0.000698289
0.000742938
0.000787754
0.000832697
0.000877723
0.00092279
0.000967854
0.00101287
0.00105781
0.00110261
0.00114724
0.00119166
0.00123582
0.00127968
0.0013232
0.00136633
-0.000547517
-0.00054628
-0.000543447
-0.00053909
-0.000533213
-0.000525823
-0.00051693
-0.000506545
-0.000494681
-0.000481353
-0.000466578
-0.000450374
-0.000432761
-0.000413762
-0.000393398
-0.000371695
-0.00034868
-0.000324378
-0.00029882
-0.000272034
-0.000244052
-0.000214906
-0.000184629
-0.000153256
-0.00012082
-8.7358e-05
-5.2906e-05
-1.75012e-05
1.88186e-05
5.60152e-05
9.40496e-05
0.000132882
0.000172474
0.000212784
0.000253772
0.000295397
0.000337618
0.000380394
0.000423682
0.000467441
0.000511628
0.000556202
0.00060112
0.000646339
0.000691816
0.000737509
0.000783375
0.00082937
0.000875452
0.000921578
0.000967704
0.00101379
0.00105978
0.00110565
0.00115135
0.00119683
0.00124206
0.00128698
0.00133156
0.00137576
-0.000585148
-0.000583878
-0.000580968
-0.000576493
-0.000570457
-0.000562868
-0.000553734
-0.00054307
-0.000530887
-0.000517201
-0.000502031
-0.000485394
-0.000467313
-0.00044781
-0.000426908
-0.000404633
-0.000381013
-0.000356077
-0.000329852
-0.000302372
-0.000273668
-0.000243772
-0.000212721
-0.000180547
-0.000147288
-0.000112981
-7.76626e-05
-4.13714e-05
-4.14618e-06
3.39736e-05
7.2948e-05
0.000112737
0.000153299
0.000194594
0.000236579
0.000279213
0.000322455
0.000366261
0.00041059
0.000455398
0.000500643
0.000546281
0.00059227
0.000638566
0.000685127
0.000731907
0.000778865
0.000825957
0.000873138
0.000920365
0.000967596
0.00101478
0.00106189
0.00110887
0.00115567
0.00120226
0.0012486
0.00129463
0.00134032
0.00138562
-0.000624353
-0.000623048
-0.000620057
-0.000615459
-0.000609256
-0.000601457
-0.000592072
-0.000581113
-0.000568596
-0.000554535
-0.00053895
-0.000521861
-0.000503288
-0.000483257
-0.000461791
-0.000438918
-0.000414665
-0.000389063
-0.000362143
-0.000333935
-0.000304475
-0.000273796
-0.000241934
-0.000208925
-0.000174806
-0.000139616
-0.000103393
-6.61764e-05
-2.80064e-05
1.10766e-05
5.10314e-05
9.18168e-05
0.000133391
0.000175711
0.000218736
0.000262422
0.000306726
0.000351606
0.000397018
0.000442918
0.000489263
0.000536009
0.000583113
0.00063053
0.000678216
0.000726128
0.000774222
0.000822452
0.000870776
0.000919149
0.000967528
0.00101587
0.00106412
0.00111225
0.00116021
0.00120795
0.00125544
0.00130262
0.00134945
0.0013959
-0.000665175
-0.000663833
-0.000660758
-0.000656029
-0.000649651
-0.000641632
-0.000631983
-0.000620717
-0.000607849
-0.000593395
-0.000577376
-0.000559811
-0.000540724
-0.000520139
-0.000498082
-0.000474582
-0.000449667
-0.000423369
-0.00039572
-0.000366753
-0.000336502
-0.000305004
-0.000272295
-0.000238413
-0.000203397
-0.000167285
-0.000130118
-9.19357e-05
-5.27803e-05
-1.26932e-05
2.82835e-05
7.01074e-05
0.000112735
0.000156124
0.000200231
0.000245011
0.000290422
0.000336418
0.000382956
0.000429992
0.000477481
0.000525379
0.000573641
0.000622223
0.000671079
0.000720167
0.00076944
0.000818854
0.000868365
0.000917928
0.000967498
0.00101703
0.00106648
0.00111581
0.00116496
0.0012139
0.00126258
0.00131095
0.00135898
0.00140661
-0.000707661
-0.000706279
-0.000703116
-0.000698251
-0.000691689
-0.000683439
-0.000673513
-0.000661924
-0.000648688
-0.000633822
-0.000617347
-0.000599284
-0.000579658
-0.000558494
-0.000535818
-0.000511662
-0.000486054
-0.000459028
-0.000430616
-0.000400854
-0.000369778
-0.000337424
-0.000303831
-0.000269037
-0.000233083
-0.00019601
-0.000157858
-0.000118669
-7.8487e-05
-3.73535e-05
4.68764e-06
4.75928e-05
9.1318e-05
0.000135819
0.000181051
0.00022697
0.00027353
0.000320688
0.000368397
0.000416613
0.00046529
0.000514384
0.000563849
0.00061364
0.000663711
0.000714019
0.000764516
0.000815159
0.000865901
0.000916698
0.000967505
0.00101828
0.00106897
0.00111953
0.00116992
0.0012201
0.00127002
0.00131963
0.00136889
0.00141776
-0.000751857
-0.000750435
-0.000747178
-0.00074217
-0.000735416
-0.000726924
-0.000716708
-0.00070478
-0.000691158
-0.00067586
-0.000658907
-0.000640323
-0.000620131
-0.00059836
-0.000575037
-0.000550194
-0.000523861
-0.000496073
-0.000466864
-0.000436271
-0.000404332
-0.000371084
-0.000336567
-0.000300822
-0.000263891
-0.000225814
-0.000186636
-0.000146398
-0.000105146
-6.29226e-05
-1.97732e-05
2.42573e-05
6.9124e-05
0.000114781
0.000161184
0.000208286
0.000256041
0.000304404
0.000353329
0.000402771
0.000452682
0.000503017
0.00055373
0.000604775
0.000656107
0.000707679
0.000759446
0.000811362
0.000863381
0.000915458
0.000967546
0.0010196
0.00107158
0.00112343
0.0011751
0.00122657
0.00127777
0.00132866
0.0013792
0.00142935
-0.000797814
-0.00079635
-0.000792995
-0.000787837
-0.000780881
-0.000772135
-0.000761614
-0.000749331
-0.000735304
-0.000719554
-0.000702101
-0.000682969
-0.000662186
-0.000639779
-0.000615778
-0.000590216
-0.000563124
-0.000534539
-0.000504498
-0.000473036
-0.000440195
-0.000406014
-0.000370533
-0.000333796
-0.000295844
-0.000256722
-0.000216473
-0.000175143
-0.000132776
-8.94188e-05
-4.51164e-05
8.47582e-08
4.61383e-05
9.29976e-05
0.000140616
0.000188947
0.000237943
0.000287558
0.000337745
0.000388458
0.000439648
0.00049127
0.000543278
0.000595624
0.000648261
0.000701145
0.000754227
0.000807462
0.000860803
0.000914205
0.000967621
0.001021
0.00107431
0.00112749
0.0011805
0.00123329
0.00128582
0.00133804
0.00138991
0.00144138
-0.000845586
-0.000844077
-0.00084062
-0.000835304
-0.000828135
-0.000819124
-0.000808283
-0.000795627
-0.000781177
-0.000764951
-0.000746973
-0.000727269
-0.000705866
-0.000682793
-0.000658083
-0.000631767
-0.000603882
-0.000574464
-0.000543551
-0.000511183
-0.0004774
-0.000442244
-0.000405757
-0.000367984
-0.000328969
-0.000288757
-0.000247394
-0.000204925
-0.000161399
-0.000116861
-7.13595e-05
-2.49413e-05
2.23457e-05
7.04536e-05
0.000119335
0.000168941
0.000219225
0.000270139
0.000321635
0.000373665
0.000426182
0.000479138
0.000532486
0.000586179
0.000640169
0.00069441
0.000748854
0.000803454
0.000858164
0.000912937
0.000967726
0.00102249
0.00107717
0.00113172
0.00118611
0.00124028
0.00129419
0.00134778
0.00140102
0.00145385
-0.000895227
-0.000893671
-0.000890107
-0.000884626
-0.000877234
-0.000867943
-0.000856767
-0.000843721
-0.000828825
-0.000812101
-0.000793574
-0.000773269
-0.000751216
-0.000727447
-0.000701993
-0.00067489
-0.000646175
-0.000615886
-0.000584062
-0.000550746
-0.000515979
-0.000479805
-0.000442269
-0.000403416
-0.000363292
-0.000321945
-0.00027942
-0.000235767
-0.000191034
-0.000145269
-9.85202e-05
-5.08373e-05
-2.26917e-06
4.71353e-05
9.73271e-05