/*--------------------------------*- C++ -*----------------------------------*\
  =========                 |
  \\      /  F ield         | OpenFOAM: The Open Source CFD Toolbox
   \\    /   O peration     | Website:  https://openfoam.org
    \\  /    A nd           | Version:  8
     \\/     M anipulation  |
\*---------------------------------------------------------------------------*/
FoamFile
{
    version     2.0;
    format      ascii;
    class       volScalarField;
    location    "0.075";
    object      p;
}
// * * * * * * * * * * * * * * * * * * * * * * * * * * * * * * * * * * * * * //

dimensions      [0 2 -2 0 0 0 0];

internalField   nonuniform List<scalar> 
400
(
-6.96187e-08
-0.00572995
-0.0127355
-0.0180514
-0.0199772
-0.0177966
-0.0114709
-0.0014437
0.0115075
0.0263756
0.0420017
0.0571425
0.0705479
0.081063
0.0877595
0.0901009
0.0881395
0.0827319
0.0757407
0.0701765
0.0053354
-0.000550665
-0.00603301
-0.00968064
-0.0106797
-0.00851882
-0.00313834
0.00514408
0.0157395
0.0278637
0.0405989
0.0529538
0.0639344
0.0726328
0.0783341
0.0806411
0.0796175
0.0758747
0.0703881
0.064683
0.0122598
0.00421511
-0.00164218
-0.00496101
-0.00574106
-0.00370953
0.00112522
0.00846339
0.017799
0.0284681
0.0396897
0.0506124
0.0603731
0.0681728
0.0733633
0.0755474
0.0747064
0.0712043
0.0652243
0.0572899
0.0184703
0.00743962
0.000225734
-0.00351568
-0.00446461
-0.00256693
0.00206572
0.00909089
0.0180164
0.0282262
0.0389996
0.0495425
0.0590326
0.0666815
0.0718077
0.0739269
0.0728894
0.0688414
0.061331
0.0502723
0.0224055
0.00819312
-0.000674728
-0.00506148
-0.00623765
-0.00434333
0.000400277
0.00758472
0.0166999
0.027141
0.0382078
0.0491186
0.0590417
0.0671441
0.0726536
0.0749485
0.0737199
0.0689122
0.0595282
0.0450657
0.0228629
0.00539749
-0.00521221
-0.0102561
-0.0115456
-0.00940027
-0.00415464
0.00370253
0.013623
0.0249901
0.0370967
0.0491429
0.0602503
0.0694976
0.0759735
0.07887
0.0776835
0.0721477
0.0607501
0.0426708
0.0187908
-0.00202017
-0.0143583
-0.0199183
-0.0210583
-0.0182828
-0.0120498
-0.0029403
0.00844713
0.0214717
0.0354066
0.049416
0.0625511
0.073768
0.0819697
0.0861062
0.0854232
0.0793975
0.0659541
0.0439714
0.00907958
-0.0152173
-0.0291838
-0.0349635
-0.0355295
-0.0316061
-0.0237953
-0.0127828
0.000778921
0.0162266
0.0328174
0.049681
0.065791
0.0799595
0.0908609
0.0971363
0.0976962
0.0916643
0.0762603
0.0499927
-0.00759282
-0.0355651
-0.050954
-0.0564662
-0.0558346
-0.0500735
-0.0399646
-0.0263111
-0.00981382
0.0088596
0.0289744
0.04965
0.0697986
0.0880854
0.102922
0.112563
0.115467
0.110241
0.0931378
0.0621262
-0.0329019
-0.0647747
-0.0812017
-0.085674
-0.0829365
-0.0744111
-0.0611121
-0.0439711
-0.023719
-0.000989454
0.0235413
0.0490365
0.0743953
0.0981636
0.118476
0.133125
0.139962
0.136835
0.118602
0.0823645
-0.0690675
-0.105063
-0.121807
-0.123996
-0.117805
-0.105244
-0.0876277
-0.0660188
-0.0411391
-0.0135217
0.0162987
0.0476221
0.0794274
0.110218
0.137881
0.15969
0.172721
0.173715
0.155472
0.113619
-0.119192
-0.159415
-0.175097
-0.172951
-0.161271
-0.142902
-0.119522
-0.0923057
-0.0618895
-0.0286003
0.0072928
0.0453667
0.0848315
0.124296
0.161511
0.193243
0.215635
0.22389
0.207742
0.160229
-0.187948
-0.232014
-0.24395
-0.234047
-0.213776
-0.187113
-0.156121
-0.121994
-0.0851439
-0.0455298
-0.00298183
0.0425466
0.0907171
0.14049
0.189719
0.23482
0.270953
0.291309
0.281139
0.228884
-0.283059
-0.328978
-0.331845
-0.30846
-0.274929
-0.236563
-0.195671
-0.153233
-0.109175
-0.0628536
-0.0134306
0.0398533
0.0974002
0.158882
0.222686
0.285294
0.341111
0.381004
0.383995
0.330452
-0.418471
-0.459481
-0.442578
-0.396262
-0.342692
-0.288222
-0.234864
-0.182851
-0.13119
-0.0782897
-0.0223673
0.0383207
0.10525
0.179275
0.259977
0.344755
0.42809
0.498869
0.528438
0.483562
-0.620071
-0.636934
-0.579334
-0.495155
-0.412332
-0.336668
-0.268521
-0.206335
-0.147491
-0.0890015
-0.0278448
0.0389587
0.114278
0.200674
0.299835
0.411532
0.532216
0.650663
0.731245
0.720216
-0.936109
-0.879276
-0.742986
-0.599535
-0.47612
-0.374283
-0.290179
-0.218631
-0.154353
-0.0924602
-0.0284511
0.0420425
0.123506
0.220703
0.33856
0.481416
0.650922
0.839977
1.01353
1.09513
-1.47737
-1.20803
-0.922372
-0.69361
-0.519659
-0.38977
-0.291935
-0.214719
-0.148973
-0.0875861
-0.024603
0.0455954
0.129042
0.232968
0.366671
0.541862
0.770111
1.05783
1.40146
1.72779
-2.54123
-1.63249
-1.04685
-0.713755
-0.498705
-0.354926
-0.256992
-0.185499
-0.127465
-0.0742966
-0.0194896
0.042871
0.119395
0.218865
0.354632
0.547436
0.825443
1.23526
1.91
2.9221
-4.36858
-2.0469
-0.976381
-0.566548
-0.361488
-0.243726
-0.173313
-0.126342
-0.0892673
-0.0545036
-0.0169459
0.0278943
0.0851381
0.162318
0.272841
0.442199
0.717879
1.22488
2.40973
4.84682
)
;

boundaryField
{
    movingWall
    {
        type            zeroGradient;
    }
    fixedWalls
    {
        type            zeroGradient;
    }
    frontAndBack
    {
        type            empty;
    }
}


// ************************************************************************* //
