/*--------------------------------*- C++ -*----------------------------------*\
  =========                 |
  \\      /  F ield         | OpenFOAM: The Open Source CFD Toolbox
   \\    /   O peration     | Website:  https://openfoam.org
    \\  /    A nd           | Version:  8
     \\/     M anipulation  |
\*---------------------------------------------------------------------------*/
FoamFile
{
    version     2.0;
    format      ascii;
    class       surfaceScalarField;
    location    "0.075";
    object      phi;
}
// * * * * * * * * * * * * * * * * * * * * * * * * * * * * * * * * * * * * * //

dimensions      [0 3 -1 0 0 0 0];

internalField   nonuniform List<scalar> 
760
(
1.3417e-08
-1.3416e-08
-2.15068e-08
3.49234e-08
-1.09608e-07
8.81008e-08
-2.349e-07
1.25292e-07
-3.7848e-07
1.43581e-07
-5.22526e-07
1.44046e-07
-6.51752e-07
1.29226e-07
-7.53954e-07
1.02202e-07
-8.20121e-07
6.61669e-08
-8.44447e-07
2.43263e-08
-8.24439e-07
-2.00086e-08
-7.61137e-07
-6.3301e-08
-6.59416e-07
-1.01721e-07
-5.28226e-07
-1.3119e-07
-3.80643e-07
-1.47583e-07
-2.33477e-07
-1.47166e-07
-1.06122e-07
-1.27354e-07
-1.83138e-08
-8.78086e-08
1.47998e-08
-3.31136e-08
1.47999e-08
-3.307e-08
1.96537e-08
-1.72792e-07
1.74645e-07
-4.14667e-07
3.29974e-07
-7.29414e-07
4.40038e-07
-1.0793e-06
4.93464e-07
-1.42621e-06
4.90963e-07
-1.7359e-06
4.38914e-07
-1.9801e-06
3.46403e-07
-2.13759e-06
2.23654e-07
-2.19472e-06
8.14533e-08
-2.14587e-06
-6.88544e-08
-1.99396e-06
-2.15213e-07
-1.75086e-06
-3.44819e-07
-1.43763e-06
-4.44416e-07
-1.0841e-06
-5.01122e-07
-7.27286e-07
-5.03976e-07
-4.08203e-07
-4.46437e-07
-1.66193e-07
-3.29819e-07
-2.98573e-08
-1.6945e-07
-1.50568e-08
-8.81708e-08
1.07824e-07
-3.41039e-07
4.27513e-07
-7.29736e-07
7.18671e-07
-1.20979e-06
9.20092e-07
-1.72957e-06
1.01325e-06
-2.2376e-06
9.98992e-07
-2.68738e-06
8.887e-07
-3.04032e-06
6.99341e-07
-3.26728e-06
4.50608e-07
-3.3495e-06
1.63679e-07
-3.27933e-06
-1.39025e-07
-3.06081e-06
-4.33732e-07
-2.71025e-06
-6.95384e-07
-2.25635e-06
-8.98313e-07
-1.73957e-06
-1.0179e-06
-1.20996e-06
-1.03359e-06
-7.22985e-07
-9.33406e-07
-3.32953e-07
-7.19851e-07
-8.39579e-08
-4.18445e-07
-9.90142e-08
-1.38771e-07
2.46595e-07
-5.02282e-07
7.91024e-07
-1.03365e-06
1.25004e-06
-1.6693e-06
1.55575e-06
-2.34343e-06
1.68737e-06
-2.99339e-06
1.64895e-06
-3.56379e-06
1.45911e-06
-4.00912e-06
1.14467e-06
-4.29514e-06
7.36624e-07
-4.39978e-06
2.6832e-07
-4.31383e-06
-2.24977e-07
-4.04162e-06
-7.05937e-07
-3.60176e-06
-1.13525e-06
-3.0275e-06
-1.47258e-06
-2.36631e-06
-1.67909e-06
-1.678e-06
-1.7219e-06
-1.0307e-06
-1.5807e-06
-4.94564e-07
-1.25599e-06
-1.3383e-07
-7.79179e-07
-2.32844e-07
-1.85514e-07
4.32109e-07
-6.5686e-07
1.26237e-06
-1.32874e-06
1.92192e-06
-2.11615e-06
2.34315e-06
-2.93796e-06
2.50919e-06
-3.72093e-06
2.43191e-06
-4.40246e-06
2.14065e-06
-4.93224e-06
1.67445e-06
-5.27285e-06
1.07723e-06
-5.4001e-06
3.95567e-07
-5.30341e-06
-3.21668e-07
-4.98652e-06
-1.02282e-06
-4.46851e-06
-1.65326e-06
-3.78476e-06
-2.15633e-06
-2.98745e-06
-2.4764e-06
-2.14462e-06
-2.56472e-06
-1.33716e-06
-2.38816e-06
-6.53244e-07
-1.9399e-06
-1.80798e-07
-1.25163e-06
-4.13643e-07
-2.31114e-07
6.63223e-07
-8.10134e-07
1.84139e-06
-1.62295e-06
2.73473e-06
-2.56134e-06
3.28154e-06
-3.52783e-06
3.47568e-06
-4.43881e-06
3.34288e-06
-5.22577e-06
2.92761e-06
-5.83536e-06
2.28404e-06
-6.22859e-06
1.47046e-06
-6.38016e-06
5.47131e-07
-6.27821e-06
-4.23615e-07
-5.92496e-06
-1.37607e-06
-5.33814e-06
-2.24009e-06
-4.55296e-06
-2.94151e-06
-3.62413e-06
-3.40523e-06
-2.62672e-06
-3.56214e-06
-1.65482e-06
-3.36006e-06
-8.17017e-07
-2.7777e-06
-2.28438e-07
-1.8402e-06
-6.42081e-07
-2.78177e-07
9.414e-07
-9.67978e-07
2.53119e-06
-1.9243e-06
3.69105e-06
-3.01371e-06
4.37095e-06
-4.12161e-06
4.58358e-06
-5.15467e-06
4.37595e-06
-6.04022e-06
3.81316e-06
-6.72398e-06
2.9678e-06
-7.16737e-06
1.91385e-06
-7.3452e-06
7.24964e-07
-7.24456e-06
-5.24256e-07
-6.86514e-06
-1.75548e-06
-6.22124e-06
-2.88399e-06
-5.3451e-06
-3.81765e-06
-4.29108e-06
-4.45925e-06
-3.13925e-06
-4.71396e-06
-1.99677e-06
-4.50255e-06
-9.94922e-07
-3.77955e-06
-2.80485e-07
-2.55464e-06
-9.22564e-07
-3.29001e-07
1.2704e-06
-1.13557e-06
3.33775e-06
-2.23886e-06
4.79435e-06
-3.47742e-06
5.60951e-06
-4.71916e-06
5.82532e-06
-5.8627e-06
5.51949e-06
-6.83405e-06
4.78451e-06
-7.58124e-06
3.71499e-06
-8.06884e-06
2.40146e-06
-8.27366e-06
9.29779e-07
-8.18223e-06
-6.15679e-07
-7.79078e-06
-2.14694e-06
-7.10765e-06
-3.56712e-06
-6.15837e-06
-4.76693e-06
-4.99259e-06
-5.62503e-06
-3.69164e-06
-6.01491e-06
-2.37401e-06
-5.82019e-06
-1.19553e-06
-4.95802e-06
-3.40533e-07
-3.40964e-06
-1.2631e-06
-3.8577e-07
1.65617e-06
-1.31732e-06
4.2693e-06
-2.57002e-06
6.04705e-06
-3.95047e-06
6.98996e-06
-5.30947e-06
7.18432e-06
-6.54093e-06
6.75096e-06
-7.57424e-06
5.81781e-06
-8.36451e-06
4.50526e-06
-8.88359e-06
2.92053e-06
-9.113e-06
1.15919e-06
-9.03988e-06
-6.88804e-07
-8.65611e-06
-2.5307e-06
-7.96122e-06
-4.26202e-06
-6.96905e-06
-5.7591e-06
-5.71817e-06
-6.87591e-06
-4.28459e-06
-7.44849e-06
-2.79374e-06
-7.31104e-06
-1.42649e-06
-6.32528e-06
-4.12163e-07
-4.42397e-06
-1.67526e-06
-4.51143e-07
2.10731e-06
-1.51771e-06
5.33587e-06
-2.91859e-06
7.44794e-06
-4.42349e-06
8.49486e-06
-5.86811e-06
8.62893e-06
-7.14763e-06
8.03048e-06
-8.20211e-06
6.87229e-06
-9.00069e-06
5.30384e-06
-9.528e-06
3.44785e-06
-9.7742e-06
1.40539e-06
-9.72885e-06
-7.34153e-07
-9.37915e-06
-2.8804e-06
-8.71272e-06
-4.92845e-06
-7.72571e-06
-6.74612e-06
-6.43676e-06
-8.16486e-06
-4.90628e-06
-8.97897e-06
-3.25781e-06
-8.9595e-06
-1.69462e-06
-7.88847e-06
-4.9943e-07
-5.61916e-06
-2.17469e-06
-5.29363e-07
2.63668e-06
-1.74272e-06
6.54923e-06
-3.28305e-06
8.98827e-06
-4.87795e-06
1.00898e-05
-6.35345e-06
1.01044e-05
-7.61618e-06
9.29322e-06
-8.62762e-06
7.88373e-06
-9.3801e-06
6.05632e-06
-9.8781e-06
3.94585e-06
-1.01252e-05
1.65244e-06
-1.0116e-05
-7.43314e-07
-9.8335e-06
-3.16289e-06
-9.25083e-06
-5.51112e-06
-8.33998e-06
-7.65697e-06
-7.08866e-06
-9.41618e-06
-5.5267e-06
-1.05409e-05
-3.7603e-06
-1.07259e-05
-2.00621e-06
-9.64256e-06
-6.0774e-07
-7.01763e-06
-2.78243e-06
-6.28109e-07
3.26478e-06
-2.00168e-06
7.9228e-06
-3.65873e-06
1.06453e-05
-5.28184e-06
1.17129e-05
-6.69967e-06
1.15223e-05
-7.84687e-06
1.04404e-05
-8.72117e-06
8.75803e-06
-9.34925e-06
6.6844e-06
-9.76301e-06
4.35961e-06
-9.98444e-06
1.87386e-06
-1.00167e-05
-7.11072e-07
-9.83988e-06
-3.33969e-06
-9.41172e-06
-5.93928e-06
-8.67468e-06
-8.39401e-06
-7.57363e-06
-1.05172e-05
-6.08829e-06
-1.20263e-05
-4.28277e-06
-1.25314e-05
-2.36681e-06
-1.15585e-05
-7.45335e-07
-8.63911e-06
-3.52777e-06
-7.61548e-07
4.02633e-06
-2.30861e-06
9.46986e-06
-4.03321e-06
1.23699e-05
-5.57917e-06
1.32588e-05
-6.80311e-06
1.27462e-05
-7.69319e-06
1.13305e-05
-8.30209e-06
9.36693e-06
-8.7022e-06
7.08451e-06
-8.95907e-06
4.61649e-06
-9.11682e-06
2.0316e-06
-9.19001e-06
-6.37879e-07
-9.15904e-06
-3.37066e-06
-8.9682e-06
-6.13012e-06
-8.5289e-06
-8.83331e-06
-7.73364e-06
-1.13125e-05
-6.48993e-06
-1.327e-05
-4.7842e-06
-1.42371e-05
-2.77941e-06
-1.35633e-05
-9.25633e-07
-1.04929e-05
-4.4534e-06
-9.54815e-07
4.98115e-06
-2.67989e-06
1.11949e-05
-4.37138e-06
1.40614e-05
-5.66601e-06
1.45535e-05
-6.496e-06
1.35762e-05
-6.93896e-06
1.17735e-05
-7.12216e-06
9.55013e-06
-7.17115e-06
7.1335e-06
-7.1862e-06
4.63154e-06
-7.23313e-06
2.07853e-06
-7.33916e-06
-5.31849e-07
-7.48919e-06
-3.22063e-06
-7.62091e-06
-5.9984e-06
-7.62081e-06
-8.83342e-06
-7.32789e-06
-1.16054e-05
-6.5593e-06
-1.40386e-05
-5.17952e-06
-1.56169e-05
-3.23666e-06
-1.55062e-05
-1.17015e-06
-1.25594e-05
-5.62355e-06
-1.24771e-06
6.22886e-06
-3.11767e-06
1.30649e-05
-4.57473e-06
1.55185e-05
-5.33886e-06
1.53176e-05
-5.49832e-06
1.37356e-05
-5.26201e-06
1.15371e-05
-4.84373e-06
9.13185e-06
-4.41782e-06
6.70759e-06
-4.10963e-06
4.32335e-06
-3.99848e-06
1.96738e-06
-4.1215e-06
-4.08829e-07
-4.47279e-06
-2.86934e-06
-4.99594e-06
-5.47524e-06
-5.57058e-06
-8.25877e-06
-5.99853e-06
-1.11774e-05
-6.00565e-06
-1.40315e-05
-5.29357e-06
-1.6329e-05
-3.69547e-06
-1.71043e-05
-1.50808e-06
-1.47468e-05
-7.13163e-06
-1.68333e-06
7.91219e-06
-3.54579e-06
1.49274e-05
-4.38007e-06
1.63527e-05
-4.19203e-06
1.51296e-05
-3.33732e-06
1.28809e-05
-2.18353e-06
1.03834e-05
-1.01657e-06
7.96489e-06
-3.17583e-08
5.72278e-06
6.47016e-07
3.64458e-06
9.45642e-07
1.66875e-06
8.25649e-07
-2.88837e-07
2.80406e-07
-2.3241e-06
-6.56706e-07
-4.53813e-06
-1.89043e-06
-7.02504e-06
-3.2283e-06
-9.83958e-06
-4.34244e-06
-1.29173e-05
-4.76508e-06
-1.59064e-05
-4.00113e-06
-1.78682e-05
-1.95446e-06
-1.67935e-05
-9.08609e-06
-2.23773e-06
1.01499e-05
-3.61602e-06
1.63056e-05
-3.13177e-06
1.58685e-05
-1.43327e-06
1.34311e-05
7.68123e-07
1.06795e-05
2.98591e-06
8.16558e-06
4.93193e-06
6.01887e-06
6.45183e-06
4.20288e-06
7.46759e-06
2.62882e-06
7.93818e-06
1.19816e-06
7.83759e-06
-1.88247e-07
7.14688e-06
-1.63339e-06
5.85976e-06
-3.25101e-06
4.00602e-06
-5.1713e-06
1.70098e-06
-7.53454e-06
-7.72325e-07
-1.0444e-05
-2.86173e-06
-1.3817e-05
-3.69656e-06
-1.70334e-05
-2.42141e-06
-1.80686e-05
-1.15075e-05
-2.57731e-06
1.27272e-05
-2.19927e-06
1.59276e-05
6.80981e-07
1.29882e-05
4.40357e-06
9.70846e-06
8.03339e-06
7.04972e-06
1.11662e-05
5.03278e-06
1.36603e-05
3.52474e-06
1.54914e-05
2.37176e-06
1.66754e-05
1.44489e-06
1.7229e-05
6.4454e-07
1.71517e-05
-1.10957e-07
1.64176e-05
-8.99303e-07
1.49754e-05
-1.80885e-06
1.27604e-05
-2.95625e-06
9.73225e-06
-4.5064e-06
5.96821e-06
-6.67997e-06
1.85316e-06
-9.70191e-06
-1.58911e-06
-1.35911e-05
-2.46685e-06
-1.71909e-05
-1.39743e-05
-7.84955e-07
1.35122e-05
4.0754e-06
1.10673e-05
1.02794e-05
6.78428e-06
1.57559e-05
4.23196e-06
2.0096e-05
2.70962e-06
2.33699e-05
1.7588e-06
2.5748e-05
1.14671e-06
2.73881e-05
7.31611e-07
2.84063e-05
4.26722e-07
2.88719e-05
1.78971e-07
2.88088e-05
-4.7872e-08
2.8194e-05
-2.84545e-07
2.69523e-05
-5.6713e-07
2.49457e-05
-9.49641e-07
2.19656e-05
-1.52631e-06
1.77538e-05
-2.46812e-06
1.2134e-05
-4.08211e-06
5.45912e-06
-6.91629e-06
-1.34166e-07
-1.15976e-05
-1.41085e-05
1.35122e-05
2.45794e-05
3.13637e-05
3.55957e-05
3.83053e-05
4.00641e-05
4.12108e-05
4.19424e-05
4.23691e-05
4.25481e-05
4.25002e-05
4.22157e-05
4.16486e-05
4.06989e-05
3.91726e-05
3.67045e-05
3.26224e-05
2.57061e-05
1.41085e-05
)
;

boundaryField
{
    movingWall
    {
        type            calculated;
        value           uniform 0;
    }
    fixedWalls
    {
        type            calculated;
        value           uniform 0;
    }
    frontAndBack
    {
        type            empty;
        value           nonuniform List<scalar> 0();
    }
}


// ************************************************************************* //
