/*--------------------------------*- C++ -*----------------------------------*\
  =========                 |
  \\      /  F ield         | OpenFOAM: The Open Source CFD Toolbox
   \\    /   O peration     | Website:  https://openfoam.org
    \\  /    A nd           | Version:  8
     \\/     M anipulation  |
\*---------------------------------------------------------------------------*/
FoamFile
{
    version     2.0;
    format      ascii;
    class       volVectorField;
    location    "34";
    object      U;
}
// * * * * * * * * * * * * * * * * * * * * * * * * * * * * * * * * * * * * * //

dimensions      [0 1 -1 0 0 0 0];

internalField   nonuniform List<vector> 
2844
(
(1.00779 -0.00347713 9.46402e-05)
(1.00072 -0.00408772 -3.62556e-05)
(1.03292 -0.0123366 -0.000253989)
(1.08054 -0.0197334 -0.000128603)
(1.07602 -0.0102654 0.000100088)
(1.07624 -0.00846514 0.000284591)
(1.03166 -0.00533743 0.000101075)
(1.02277 -0.0120616 -9.11918e-05)
(1.02295 -0.00131626 -0.000249168)
(0.960094 -0.00665152 -0.000286352)
(0.953145 -0.0147603 -5.09189e-05)
(0.969261 -0.0162271 0.000378892)
(1.00136 -0.0301726 0.000642176)
(1.0463 -0.0298185 0.000568941)
(1.02796 -0.0293997 0.000238348)
(1.04587 -0.0148844 0.000140475)
(0.981622 -0.00312989 5.98963e-05)
(0.981024 -0.0023344 -8.55075e-05)
(0.939445 0.0153428 5.33936e-05)
(0.903631 0.00602244 -0.000116482)
(1.01047 -0.00793515 0.000214841)
(1.00036 -0.010787 2.39917e-05)
(1.03019 -0.0554334 -0.000685656)
(1.09127 -0.0078418 -0.000554968)
(1.08634 0.0131363 0.000447304)
(1.09134 0.0480613 0.000642257)
(1.03938 0.0440588 0.000167771)
(1.03071 0.0221956 6.17996e-05)
(1.02877 0.0539999 -0.000352174)
(0.953791 0.0610242 -0.000895688)
(0.956624 0.00474282 -0.000426627)
(0.969161 -0.0182239 0.00084348)
(1.00763 -0.0396957 0.00148833)
(1.05567 0.000243171 0.00146854)
(1.04519 0.0341705 0.000745565)
(1.08415 0.0489089 0.000308107)
(1.00563 0.0570402 0.000278333)
(1.00803 0.0380624 -0.00072932)
(0.949527 0.0433086 0.000555678)
(0.895551 0.0232611 0.000199015)
(1.01245 -0.0160528 0.000723082)
(1.00182 -0.0224193 -0.000425024)
(1.06976 -0.0865172 -0.0021343)
(1.12084 -0.0640519 0.00034188)
(1.1304 -0.000737423 0.00254319)
(1.14842 0.0222103 0.00290555)
(1.05952 0.044915 0.0013546)
(1.05105 -0.0048906 -0.000623863)
(1.04932 0.0626354 -0.00203267)
(0.94968 0.0566813 -0.00240145)
(0.953123 -0.0264097 -0.00281526)
(0.986669 -0.0568767 5.17281e-05)
(1.03906 -0.117823 0.00349064)
(1.12953 -0.0749449 0.00603848)
(1.09902 -0.0584822 0.00217294)
(1.07272 0.00882292 0.00201025)
(0.972928 0.0562058 0.00161008)
(0.981979 0.0462383 0.000396966)
(0.949204 0.098916 0.00090233)
(0.916962 0.0491402 -0.00208102)
(1.01142 -0.034598 0.000322995)
(1.02194 -0.0315317 -0.00103684)
(1.06489 -0.146705 -0.00166341)
(1.15327 -0.0380885 0.00122138)
(1.18551 -0.0244746 0.00561775)
(1.21137 0.0721965 0.00448484)
(1.12203 0.0975843 0.00263992)
(1.08952 0.0458429 0.000476289)
(1.04503 0.14456 0.000271603)
(0.919458 0.154545 -0.00237742)
(0.982607 0.00397473 -0.0133583)
(0.987202 -0.0670552 -0.012832)
(1.10053 -0.186777 -0.00432851)
(1.2045 -0.0989046 0.00535069)
(1.15153 0.0809251 0.00472719)
(1.17536 0.129002 0.00778747)
(1.0341 0.123147 0.00270065)
(1.08367 0.0592932 -0.00457451)
(0.993291 0.0788598 0.0053345)
(0.881717 0.0753525 0.00438198)
(1.0323 -0.0510691 -0.00466499)
(0.986739 -0.0606611 0.00179394)
(1.14596 -0.178729 0.00571553)
(1.28801 -0.185571 0.00642433)
(1.26657 -0.0412088 -9.72495e-05)
(1.38234 0.0287206 0.00151996)
(1.19891 0.146219 0.0217318)
(1.12484 0.0556684 -0.0100009)
(1.15914 0.207614 -0.0132268)
(0.950547 0.120906 0.00307769)
(0.947808 0.0391366 -0.0186552)
(1.03094 -0.020237 -0.0327525)
(1.20932 -0.268585 -0.0257366)
(1.29783 -0.163333 0.00930426)
(1.16693 -0.0793448 0.0120222)
(1.20395 0.0139098 -0.00668477)
(1.22968 0.111524 -0.0123877)
(1.18708 0.127852 -0.00319947)
(1.03627 0.201811 0.00755527)
(0.907692 0.0995214 0.00112069)
(0.995828 -0.040636 -0.0101169)
(1.0069 -0.115469 0.00964615)
(1.26221 -0.43675 0.0138936)
(1.36688 -0.108524 0.00552924)
(1.49751 -0.0467971 -0.0138694)
(1.54138 0.0279508 -0.00175438)
(1.3797 0.0899061 0.0151987)
(1.26437 0.169958 -0.015883)
(1.09655 0.346211 0.0113097)
(0.778933 0.304911 -0.0151779)
(0.82199 0.133244 -0.0518366)
(0.955056 0.0391449 -0.0469981)
(0.964735 -0.180464 -0.0224793)
(1.20621 -0.0864436 -0.0105068)
(1.4089 0.0888288 -0.0156243)
(1.47739 0.137608 0.00435058)
(1.18773 0.272803 0.0251575)
(0.887909 0.228351 0.0113574)
(1.02522 0.221787 -0.0206924)
(1.06635 0.198733 -0.0109982)
(1.01263 0.0283612 -0.0061441)
(1.11338 -0.403582 0.0240637)
(1.30037 -0.502334 0.00626673)
(1.62672 -0.427828 0.00203544)
(1.71617 0.0253124 -0.00851136)
(1.52717 0.111826 0.0344425)
(1.48386 0.439903 -0.00564106)
(1.62395 0.303724 0.0308493)
(1.05177 0.46393 0.0597578)
(0.773394 0.401148 -0.056429)
(1.17192 0.245275 0.0121966)
(1.12755 0.193006 0.0436594)
(0.987746 -0.449337 -0.0079739)
(1.23336 -0.435855 -0.0140957)
(1.32735 -0.234555 0.028505)
(1.40359 0.111173 0.0391111)
(1.12583 0.384258 0.00804482)
(0.954678 0.114561 -0.00738767)
(1.07315 0.207021 -0.000122258)
(1.01755 0.178186 0.0127391)
(0.97198 -0.137315 0.0101751)
(1.00928 -0.433613 0.0151612)
(1.69592 -0.729571 0.0254092)
(1.89359 -1.30438 0.0284352)
(1.74262 -0.062626 0.000509289)
(1.67041 -0.00747862 0.00581392)
(1.50708 0.0123869 -0.0384813)
(1.69683 0.132277 0.12149)
(1.48773 0.766992 -0.0280073)
(1.39163 0.588178 -0.0765463)
(1.28593 0.109532 0.0504092)
(1.58308 0.153389 0.0289358)
(1.11149 -0.249958 0.0501553)
(0.695889 -0.447873 0.0359045)
(0.570408 -0.435391 -0.0126672)
(0.986805 -0.00819989 0.00307105)
(1.18014 0.501104 0.0246342)
(1.36286 0.293492 -0.00340691)
(1.27082 0.173745 -0.0206806)
(1.21757 0.173055 -0.0173858)
(1.21268 0.0165182 0.0652806)
(0.635608 -0.959176 0.0074219)
(1.82037 -1.67974 0.0144594)
(-0.113986 0.101471 -0.121311)
(0.338864 -0.2037 0.0865471)
(1.2068 0.734328 -0.00184615)
(0.918042 0.711136 0.102253)
(0.922738 0.343861 -0.0285325)
(0.807602 0.304781 0.0109434)
(0.07581 -0.465135 0.0445249)
(0.249254 -0.489389 -0.0359373)
(0.31289 -0.564254 -0.0390305)
(0.407408 -0.616481 0.0365041)
(0.848244 -0.110522 0.00266651)
(1.311 0.143809 -0.0315388)
(1.30134 0.389285 -0.0197456)
(1.22646 0.291522 -0.01678)
(0.686648 -0.12467 0.0564785)
(0.807877 -1.4408 -0.324035)
(0.307627 -0.484849 -0.00323559)
(-0.110583 0.0161633 0.000160091)
(-0.0317345 -0.912889 0.00210063)
(0.819394 0.844192 0.0199641)
(0.235054 0.629236 0.0592932)
(0.479417 0.513712 0.0408453)
(0.0937105 0.393509 0.0653024)
(0.471686 -0.287654 -0.066576)
(0.358569 -0.393896 -0.094739)
(0.66649 -0.382471 -0.104521)
(0.740727 -0.685329 -0.067489)
(0.862861 -0.210442 0.00607676)
(0.947364 0.00407587 0.0650395)
(1.06927 0.273915 0.0590771)
(1.13688 0.306719 -0.00700581)
(0.506485 -0.0354434 0.00982225)
(-0.259951 -0.365919 0.0501774)
(-0.0522681 0.0228364 -0.00478101)
(-0.0238413 -0.854971 -0.0884723)
(0.338755 0.707622 0.118241)
(-0.292625 0.734539 0.0105397)
(-0.00447249 0.144839 -0.0342904)
(0.522055 0.0271075 0.00620414)
(0.656394 -0.22331 0.0461625)
(0.507048 -0.149566 -0.0393886)
(1.00313 -0.294669 -0.118678)
(1.29595 -0.486498 -0.170591)
(1.26633 -0.488174 -0.0251449)
(1.0017 -0.598233 0.0681641)
(1.01915 -0.0962893 -0.00408906)
(1.09084 0.269768 -0.0394064)
(1.42575 0.230015 0.0032779)
(0.764017 -0.271524 -0.00903706)
(0.981794 1.5836 0.0574591)
(0.0162156 0.190697 -0.0234091)
(-0.387954 -0.637539 0.00324472)
(0.157535 0.731622 -0.0491235)
(0.67067 0.7448 -0.0174279)
(0.8274 0.266199 -0.0164833)
(1.14895 -0.105689 -0.0238087)
(1.55126 -0.526134 0.0160663)
(1.13459 -0.315232 0.0840421)
(1.06396 -0.36231 0.0724)
(1.0197 -0.213518 -0.0887633)
(1.40264 -0.126275 -0.145266)
(1.467 -0.210335 -0.0244607)
(0.954598 0.300083 0.00117196)
(0.857798 0.394987 -0.0124599)
(1.13336 0.0085762 -0.018895)
(0.806961 0.227828 0.0987404)
(1.01012 1.08006 0.00655403)
(-0.0154803 -0.253021 0.00932627)
(1.46648 -0.465912 -0.0247044)
(1.60396 -0.6623 0.0247887)
(0.688022 0.324952 0.051828)
(1.46499 0.147228 -0.0130704)
(1.61384 -0.109561 0.00137866)
(1.48098 -0.234656 0.0620305)
(1.60723 -0.506498 -0.043124)
(1.83342 -0.50196 -0.0938318)
(1.62213 -0.529943 0.0191)
(1.21267 -0.392566 0.110582)
(1.21268 -0.267075 0.016624)
(1.55492 -0.320736 -0.0885386)
(1.4109 0.263132 -0.0378872)
(1.03915 0.339931 0.0211526)
(1.10655 0.0670758 -0.00945465)
(0.937629 0.22226 -0.00284479)
(1.31612 0.422983 0.0418831)
(1.86907 0.50267 -0.00176852)
(1.92677 -0.256424 -0.029553)
(1.76225 -0.130582 -0.0433521)
(1.62368 -0.189085 -0.0193847)
(1.436 -0.290588 -0.033613)
(1.39069 0.205147 0.0507617)
(1.34268 0.20139 0.0682273)
(1.38401 0.018135 -0.0437006)
(2.02042 -0.643956 -0.0574612)
(1.45627 -0.305777 0.0484128)
(0.798842 0.167521 0.0454443)
(0.936858 -0.329077 -0.0403823)
(1.074 -0.705719 -0.0469669)
(1.09542 -0.437699 -0.0062529)
(0.998728 0.100298 -0.0549687)
(0.925815 0.660069 -0.0328262)
(0.946135 0.389029 0.00950129)
(0.986653 0.116736 0.0083591)
(1.07653 0.000201241 -0.0310774)
(1.18288 0.304562 0.00305951)
(1.58196 0.228512 0.0235571)
(1.42833 0.0341215 0.011832)
(1.35292 -0.0347973 -0.0210941)
(1.59701 -0.116961 0.00745256)
(1.18254 -0.179389 0.060557)
(0.942098 -0.0133946 0.00787313)
(1.25988 -0.175513 -0.0471274)
(1.61362 -0.133451 -0.0212454)
(1.43183 -0.0530969 -0.0104841)
(1.1502 -0.105871 -0.010619)
(1.22464 -0.281343 0.0137908)
(1.28407 -0.39483 0.0204324)
(0.918255 -0.173826 -0.0442629)
(0.777082 -0.095735 -0.056194)
(0.647424 0.153615 -0.0357079)
(0.714463 0.504114 -0.0272754)
(0.981366 0.245962 -0.0127006)
(0.98387 0.0263499 0.00507033)
(1.09497 0.116788 -0.0113761)
(1.10586 0.0941582 0.000639508)
(1.2658 0.236394 0.00645313)
(1.34802 0.0596158 0.00561295)
(1.30575 -0.00726411 0.0224811)
(1.20574 -0.0519675 0.0315163)
(0.999815 -0.0983537 0.0156538)
(1.03713 0.0947783 -0.0210299)
(1.23834 0.0478625 -0.0284964)
(1.25458 0.00164277 -0.0081954)
(1.22174 -0.158669 0.0124837)
(1.14575 -0.15827 0.0145292)
(1.09426 -0.0676758 -0.00809914)
(1.03014 -0.243844 0.0108728)
(0.853548 -0.049755 0.0177129)
(0.779575 0.157561 -0.00782004)
(0.66638 0.322138 -0.00898205)
(0.815667 0.503353 -0.00947564)
(1.03063 0.243727 -0.00292386)
(0.976936 0.0190996 0.000995498)
(1.05104 0.0220767 -0.000679277)
(1.04651 0.121184 -0.000840073)
(1.1216 0.119197 -0.00423383)
(1.25216 0.0227858 0.00430759)
(1.1407 -0.0743209 0.0137002)
(1.10407 -0.100777 0.00218089)
(1.04816 -0.103385 -0.0114608)
(1.10798 0.00416974 -0.00768349)
(1.18413 -0.045206 0.00308907)
(1.14778 -0.0639702 0.00884449)
(1.10402 -0.0966344 0.00275105)
(0.998607 -0.087578 -0.00290573)
(1.02326 -0.105125 0.00373562)
(0.918379 -0.273417 -0.000238445)
(0.809566 -0.104501 0.00336931)
(0.807099 0.0887034 0.00789636)
(0.776933 0.157145 0.00410118)
(0.956924 0.23151 0.0071968)
(1.09555 0.0863752 0.00678125)
(1.00573 -0.00173612 0.000436636)
(1.00151 0.04807 5.16678e-05)
(1.03941 0.0396055 -0.00311508)
(1.11664 0.0889389 0.00043134)
(1.16049 0.00754542 0.00393609)
(1.11338 -0.0243667 0.00226494)
(1.09075 -0.000561044 -0.000659903)
(1.05133 0.00027104 -0.00286707)
(1.0557 0.0299679 -0.00240517)
(1.09024 0.00571693 -0.000272379)
(1.06086 0.00254526 0.000703432)
(1.05684 -0.0407085 -0.00111443)
(1.00225 -0.0544734 0.000344281)
(1.02426 -0.0252842 0.000257598)
(0.93834 -0.0517677 -0.00443658)
(0.841335 0.00818382 0.0005318)
(0.870982 0.0792143 0.00713324)
(0.894909 0.126471 0.00979359)
(0.975955 0.150894 0.0126955)
(1.02461 0.0712295 0.00668765)
(0.997864 0.00069644 0.000246773)
(1.00079 0.0178381 -0.000376016)
(1.03708 0.0431719 -0.000755636)
(1.06028 0.0317618 0.00046253)
(1.11166 0.00164577 0.00120448)
(1.06449 -0.0283149 0.000426815)
(1.06319 -0.0288402 -0.000683334)
(1.06111 -0.0340034 -0.000335499)
(1.04911 -0.0132756 0.000131298)
(1.05744 -0.0278307 -0.000102622)
(1.04363 -0.0328064 -0.00023485)
(1.04402 -0.0486557 0.000255276)
(0.971754 -0.0600697 2.91191e-05)
(0.968665 -0.0606922 0.000799017)
(0.913814 -0.104218 0.000193712)
(0.867948 -0.0508413 0.000649539)
(0.882621 -0.00365111 0.00242882)
(0.899565 0.00548618 0.00265958)
(0.964582 0.0225097 0.0027526)
(1.00383 0.000639536 0.0011358)
(1.0012 -0.000487607 5.6075e-05)
(0.997045 0.00897185 -0.000191624)
(1.03548 0.00060941 -9.43579e-05)
(1.05196 0.0137609 0.000314707)
(1.08932 0.0023741 0.000273931)
(1.06462 0.00310971 -3.12907e-05)
(1.06112 0.0118829 -0.000183042)
(1.0492 0.0132337 -8.55041e-05)
(1.03728 0.01842 -2.70954e-06)
(1.04529 0.015795 3.5731e-05)
(1.02758 0.0155682 -3.62239e-05)
(1.02839 0.0103926 -5.43755e-05)
(0.975653 0.0106905 -1.06849e-05)
(0.972748 0.0175637 3.17512e-05)
(0.920678 0.0249522 -0.000147523)
(0.875047 0.0273924 5.08639e-07)
(0.891463 0.0323062 0.000525435)
(0.905746 0.0401775 0.000724924)
(0.947171 0.0437435 0.000688492)
(0.980527 0.0296667 0.000288019)
(1.0078 -0.00345066 0.0001693)
(1.00057 -0.00394294 -2.41102e-05)
(1.03298 -0.0126357 -0.000475308)
(1.08074 -0.0200989 -0.00034001)
(1.07615 -0.0100605 0.000116663)
(1.07617 -0.00832382 0.000517374)
(1.03147 -0.00535712 0.000235492)
(1.02262 -0.0120045 -0.000179237)
(1.02301 -0.0013862 -0.000482924)
(0.96027 -0.00699378 -0.000556678)
(0.953282 -0.0147112 -0.000190917)
(0.969299 -0.0158198 0.000653924)
(1.00118 -0.0297584 0.00117376)
(1.04603 -0.029496 0.00111559)
(1.02774 -0.0291928 0.00039704)
(1.04583 -0.0148953 0.000273147)
(0.981454 -0.00300968 0.000141079)
(0.981117 -0.00247455 -0.000219522)
(0.939453 0.0154203 0.000205697)
(0.903585 0.00607719 -0.00029318)
(1.01048 -0.00696831 0.00034962)
(0.999603 -0.0112666 0.000192097)
(1.03071 -0.0576988 -0.00126002)
(1.09261 -0.00863921 -0.00130311)
(1.08635 0.014105 0.000458565)
(1.09051 0.0507155 0.00117124)
(1.03882 0.0452098 0.000416235)
(1.03054 0.0210466 -4.4602e-05)
(1.02944 0.0515513 -0.000668617)
(0.954864 0.058833 -0.0015231)
(0.956847 0.00438427 -0.00104143)
(0.967973 -0.0149732 0.00139881)
(1.00543 -0.0338607 0.00242177)
(1.05348 0.00513799 0.00281225)
(1.04423 0.0360044 0.0013664)
(1.08358 0.0501247 0.000780837)
(1.00509 0.0573953 0.000438633)
(1.0083 0.0374051 -0.00219552)
(0.949 0.043632 0.00146638)
(0.895152 0.0222784 0.000243536)
(1.01205 -0.0134111 0.00129133)
(0.999072 -0.0224832 -0.000447165)
(1.07342 -0.0947125 -0.00402611)
(1.12391 -0.0690789 -0.000717386)
(1.1288 0.0054803 0.00344579)
(1.14638 0.0285813 0.00468233)
(1.0565 0.045892 0.0025857)
(1.04855 -0.00517287 -0.000869354)
(1.05304 0.0587263 -0.003322)
(0.954812 0.0486848 -0.0050221)
(0.951545 -0.028433 -0.00735973)
(0.979834 -0.0470923 -0.00128275)
(1.02777 -0.102882 0.00572027)
(1.1188 -0.0621329 0.0112235)
(1.09292 -0.0524995 0.0029187)
(1.0727 0.0109992 0.0037666)
(0.968919 0.0582388 0.00333858)
(0.98268 0.0400231 0.00183067)
(0.949912 0.104623 0.00195054)
(0.914113 0.0511714 -0.00517592)
(1.00708 -0.0247357 0.00164057)
(1.02147 -0.0387753 -0.000875486)
(1.07625 -0.171505 -0.00728425)
(1.15461 -0.0312289 0.000218553)
(1.17356 0.00368639 0.0077465)
(1.1951 0.102534 0.00335199)
(1.10971 0.112031 0.00719785)
(1.09691 0.0330375 -0.00198585)
(1.06931 0.117885 -0.00240848)
(0.939983 0.136484 -0.00390094)
(0.986809 -0.0100634 -0.0297085)
(0.961995 -0.0564877 -0.0290214)
(1.05087 -0.147381 -0.0122338)
(1.16334 -0.0438485 0.00798981)
(1.12632 0.0941308 0.00974141)
(1.1567 0.14642 0.0162775)
(1.03035 0.137547 0.00378874)
(1.08494 0.0582168 -0.0123127)
(1.00295 0.0891296 0.00891383)
(0.882748 0.0593954 0.00885665)
(1.0224 -0.0420242 -0.00432568)
(0.995176 -0.0826888 0.00681541)
(1.16425 -0.20001 0.00100474)
(1.27949 -0.159581 -0.00332185)
(1.24873 0.0294979 -0.0152582)
(1.33934 0.0796311 0.0113588)
(1.18778 0.156612 0.0451356)
(1.16611 0.0316407 -0.0159504)
(1.13476 0.192996 -0.0123762)
(0.959185 0.108116 0.00580685)
(0.953369 -0.0437134 -0.042342)
(0.985863 -0.0843649 -0.0687782)
(1.10133 -0.286863 -0.0475717)
(1.20749 -0.124254 0.00804968)
(1.15764 -0.0531158 0.0133726)
(1.23295 0.0722591 -0.0143563)
(1.20657 0.124599 -0.0288991)
(1.10568 0.0692313 0.00147746)
(0.975562 0.256647 0.0194908)
(0.87683 0.149266 -0.00283598)
(0.979533 -0.0679368 -0.00963498)
(1.05748 -0.130672 0.0172051)
(1.269 -0.385561 0.0076536)
(1.36594 -0.0124912 -0.026797)
(1.46019 0.0125788 -0.0364502)
(1.44827 0.0600926 -0.0112583)
(1.3762 0.242211 -0.02227)
(1.31954 0.0879276 0.00543978)
(1.26746 0.231984 0.0415892)
(1.02003 0.297751 -0.0243411)
(0.967063 0.0126711 -0.067574)
(0.928642 -0.127797 -0.0672566)
(0.898892 -0.324952 -0.0101678)
(1.17106 -0.0316325 -0.0154777)
(1.33105 0.101994 -0.0144533)
(1.37174 0.104697 0.0124487)
(1.12075 0.272777 0.0382447)
(0.929866 0.233965 0.0324992)
(1.05416 0.267903 -0.0387481)
(1.04503 0.166372 -0.0247001)
(1.04689 -0.0550922 0.00156227)
(1.09079 -0.366176 0.0198872)
(1.54095 -0.346512 -0.0550714)
(1.43587 -0.136081 -0.0303529)
(1.63666 0.102222 -0.0302965)
(1.46398 0.165792 -0.0476805)
(1.47561 0.390356 0.033848)
(1.63098 0.0383056 0.0831974)
(1.31145 0.460662 0.0181705)
(0.91676 0.33979 -0.0776006)
(1.16635 0.0169462 -0.0740647)
(1.07848 -0.113158 -0.0342027)
(0.885377 -0.620419 0.0227917)
(1.08551 -0.432581 0.0634329)
(1.17405 -0.256472 0.102)
(1.42361 0.201671 0.0614171)
(1.2006 0.46248 0.0352232)
(1.06073 0.061739 0.00776355)
(1.16657 0.126654 -0.00474956)
(1.08637 0.163689 0.0164374)
(1.05184 -0.170276 0.0199191)
(1.12435 -0.434987 -0.128973)
(1.80882 -0.781739 0.0719977)
(1.87019 -0.646497 0.138748)
(1.90918 0.0872721 0.1102)
(1.57265 0.0885911 0.0368298)
(1.39473 0.0935726 -0.0549706)
(1.8937 0.230556 0.0211502)
(2.01811 0.83796 0.0781006)
(1.35529 0.4023 -0.0127738)
(1.44075 0.184596 -0.120701)
(1.47926 0.22635 -0.0194703)
(0.922559 -0.341537 0.147978)
(0.861705 -0.304314 0.117142)
(0.697805 -0.128299 0.0386302)
(0.938708 0.148942 0.0686709)
(1.3103 0.532222 0.0531418)
(1.52477 0.303803 -0.0291508)
(1.35313 0.256537 -0.006938)
(1.24852 0.253454 -0.00724465)
(1.54261 -0.0249789 0.0910918)
(0.657285 -1.18906 -0.263187)
(1.54566 -1.27659 0.101315)
(0.136374 0.135587 -0.347928)
(0.0560506 -0.325259 0.125042)
(0.962136 0.945204 -0.142682)
(0.978169 0.688253 -0.0899752)
(0.725765 0.210377 -0.0463092)
(0.384293 0.0720077 0.119209)
(0.137207 -0.437508 0.100495)
(0.482338 -0.270292 -0.025091)
(0.319162 -0.383427 -0.0275271)
(0.553334 -0.322845 0.0610074)
(1.04874 0.108064 -0.015034)
(1.22668 0.110394 -0.0036836)
(1.30516 0.281363 0.0203895)
(1.21606 0.21931 -0.0133283)
(0.625017 0.0324873 0.0562932)
(3.29986 -0.651912 -0.266019)
(0.714621 -0.59295 0.373238)
(-0.0873243 -0.0493706 2.08431e-05)
(0.380627 -0.714154 -0.0381917)
(0.484349 0.503154 -0.10466)
(0.696576 0.8359 -0.0110269)
(0.315818 0.625094 0.054676)
(0.29417 0.454263 0.032838)
(0.661129 -0.407281 -0.0799498)
(0.462381 -0.363352 -0.0998897)
(0.494669 -0.318036 -0.0801096)
(0.488992 -0.321424 -0.0387039)
(0.744936 0.0355735 0.0367498)
(0.965279 0.00275397 0.120892)
(1.26768 0.273084 0.0548707)
(1.11854 0.317267 -0.0146805)
(0.891816 0.132728 0.00654965)
(-0.0313363 -0.161532 0.0150199)
(-0.0730605 0.00642975 0.00634002)
(-0.216591 -1.19306 -0.130731)
(0.265946 0.761959 0.0366686)
(0.232849 0.941375 0.0506599)
(0.0606272 0.493733 -0.0787612)
(0.605555 0.0216616 -0.0240566)
(0.968688 -0.484855 0.0459668)
(0.850129 -0.353151 -0.0917592)
(1.19664 -0.614081 -0.0907908)
(0.858254 -0.587622 -0.0462467)
(0.762129 -0.323125 0.0834934)
(0.940963 -0.216414 0.0759761)
(0.954914 0.3254 -0.0209303)
(0.864685 0.302061 -0.0156852)
(1.683 0.157444 0.00239178)
(0.0284237 -0.104278 -0.0759059)
(0.857166 1.26708 0.269921)
(0.0292759 0.102221 0.0450469)
(0.0678326 -0.763597 0.0338663)
(0.101212 0.335939 -0.125224)
(0.62125 0.904462 0.0598917)
(0.768745 0.388183 -0.0381582)
(1.22505 -0.361526 -0.0644286)
(1.2908 -0.529793 0.0506575)
(0.994767 -0.293859 0.148845)
(1.4948 -0.437126 0.0548692)
(1.32385 -0.312632 -0.0577979)
(0.956401 -0.0125873 -0.0410145)
(0.813046 0.0731541 0.0336271)
(0.615191 0.436857 0.0278345)
(0.730084 0.296494 0.0252818)
(1.24164 0.132996 0.0828687)
(0.837224 0.314311 -0.0771053)
(1.05563 0.58144 0.0551813)
(-0.0903959 -0.220989 0.0735791)
(1.49277 -0.557979 -0.00198748)
(1.48656 -0.705099 0.04641)
(0.864259 0.113963 0.0851429)
(1.41421 0.172657 -0.0245007)
(1.41281 -0.0177785 0.0578734)
(1.58325 -0.238465 0.118662)
(1.79314 -0.619695 -0.126369)
(1.22433 -0.382405 -0.0703525)
(0.907212 -0.385867 0.109904)
(1.0973 -0.372233 0.143803)
(1.4534 -0.230952 0.00405967)
(1.2815 0.0909613 -0.0646805)
(0.849098 0.474133 0.0442202)
(0.855929 0.240862 0.0683921)
(0.994401 0.0190322 -0.0289926)
(1.07495 0.503538 0.0337052)
(1.30967 0.328842 -0.10817)
(1.83474 0.32765 -0.0891087)
(1.8845 -0.244202 0.00720606)
(1.48668 -0.284308 -0.0349836)
(1.45379 -0.354597 0.00476844)
(1.19576 -0.438749 -0.0593718)
(1.00845 0.290924 0.0928456)
(1.35759 0.403151 0.0568125)
(1.59159 -0.0222949 -0.135937)
(1.53066 -0.497615 -0.0273912)
(1.00224 -0.0994539 0.120813)
(0.890419 0.10937 0.0193361)
(1.13269 -0.407216 -0.0741309)
(0.976842 -0.514101 -0.0596384)
(0.933747 -0.153101 -0.0161495)
(0.784605 0.336842 -0.0449727)
(0.665114 0.74284 -0.00604565)
(0.899257 0.383106 0.010619)
(0.953348 0.0636889 -0.0134547)
(1.0925 0.0999361 -0.000974066)
(1.24152 0.349613 -0.0316949)
(1.43142 0.150889 0.01769)
(1.35204 -0.102243 -0.00871083)
(1.31837 -0.274744 -0.0742681)
(1.28921 -0.343522 -0.00721778)
(1.10672 -0.277273 0.0436703)
(1.07881 0.110332 -0.0213707)
(1.34988 -0.0282736 -0.0650938)
(1.51465 -0.0856383 -0.0280256)
(1.38572 -0.1399 -0.0193764)
(1.1652 -0.251178 0.0135904)
(1.2626 -0.281516 0.0388735)
(1.43158 -0.408689 0.031349)
(1.05456 -0.237144 -0.0607227)
(0.771379 -0.0585287 -0.070509)
(0.633666 0.196911 -0.0305178)
(0.729046 0.433482 -0.026402)
(1.03199 0.136461 -0.0158422)
(0.985602 0.00766131 0.00438896)
(1.07256 0.132154 -0.0141677)
(1.11841 0.136511 0.00628795)
(1.29214 0.240868 -0.0119367)
(1.32376 -0.016704 -0.00758043)
(1.24325 -0.0932571 0.0304839)
(1.21894 -0.0213749 0.0446718)
(1.03274 -0.0212861 0.0155869)
(1.0836 0.117191 -0.058353)
(1.21093 0.0113276 -0.0622913)
(1.18764 -0.0655114 -0.00739933)
(1.187 -0.172521 0.0229464)
(1.09844 -0.12539 0.0130906)
(1.0158 -0.118227 -0.0262835)
(0.892938 -0.250708 0.00582742)
(0.825117 -0.0750665 0.0314774)
(0.78417 0.0850636 0.00182404)
(0.688354 0.240117 0.00636219)
(0.909854 0.343042 0.00826667)
(1.06173 0.145144 0.00799942)
(0.979988 0.0117216 0.00238002)
(1.03625 0.0299211 -0.00316656)
(1.05873 0.153388 -0.00147752)
(1.14586 0.100499 -0.00825388)
(1.23149 -0.0189562 0.0091369)
(1.11437 -0.0862816 0.0274038)
(1.12146 -0.0891225 0.00475957)
(1.08043 -0.0812994 -0.0247627)
(1.10574 0.0189442 -0.0205774)
(1.17725 -0.044822 0.00499549)
(1.14122 -0.0693781 0.0108932)
(1.11324 -0.0884759 -0.00168818)
(1.01217 -0.0926287 -0.00689817)
(1.03699 -0.105008 0.00774041)
(0.934356 -0.22643 -0.00679029)
(0.811829 -0.101062 0.00461226)
(0.830694 0.0248255 0.0229186)
(0.831619 0.0492125 0.0147552)
(0.977135 0.0906741 0.0179133)
(1.08579 0.0198629 0.0123394)
(1.00469 -0.00417217 0.00144071)
(0.998727 0.0530433 -0.00175521)
(1.04775 0.0460412 -0.00515841)
(1.11871 0.0814758 0.0016212)
(1.15367 -0.00234479 0.00869108)
(1.111 -0.0258868 0.00358097)
(1.09484 0.00498424 -0.00504449)
(1.0552 0.00142577 -0.00788351)
(1.05715 0.028768 -0.00692578)
(1.08924 0.00745231 -0.00248265)
(1.06023 0.00428638 -0.000310701)
(1.05639 -0.0440019 -0.00182953)
(0.999269 -0.0542579 0.000245743)
(1.02211 -0.0331915 0.000358148)
(0.937656 -0.0534877 -0.00568916)
(0.846577 0.00339846 0.0011594)
(0.88248 0.0548498 0.0123911)
(0.906348 0.099196 0.0171845)
(0.972118 0.124156 0.0204649)
(1.0172 0.0615201 0.00993558)
(0.997453 0.000246216 0.000569298)
(1.001 0.0194725 -0.00107338)
(1.03852 0.0438877 -0.0013685)
(1.05953 0.028942 0.00134712)
(1.11004 -0.00028586 0.00248917)
(1.06484 -0.0277892 0.000666156)
(1.06455 -0.027244 -0.00161307)
(1.06111 -0.0333618 -0.00103696)
(1.04861 -0.0133486 -0.000182433)
(1.05773 -0.0281257 -0.000269247)
(1.04416 -0.0324739 -0.000502349)
(1.04409 -0.0480868 0.000198897)
(0.971653 -0.060058 -7.26929e-05)
(0.968473 -0.0607918 0.000993143)
(0.913458 -0.102291 0.000199975)
(0.869031 -0.0504534 0.000847171)
(0.883782 -0.0081991 0.00344296)
(0.899508 -0.00119179 0.00360101)
(0.96312 0.0160248 0.0035777)
(1.00288 -0.00193628 0.00140661)
(1.00114 -0.000532494 0.00013796)
(0.99711 0.00917895 -0.000464071)
(1.03563 0.000602096 -0.000131436)
(1.05185 0.0134882 0.000682458)
(1.08918 0.00223781 0.000564943)
(1.06467 0.00310073 -0.000133183)
(1.06124 0.0118763 -0.000531936)
(1.04917 0.0131957 -0.000256878)
(1.03722 0.0184352 -7.29046e-05)
(1.04529 0.0158885 -3.24336e-06)
(1.0276 0.0155701 -0.000152261)
(1.02843 0.0102939 -0.000110601)
(0.975649 0.0107796 -2.6436e-05)
(0.972729 0.0173672 -3.33287e-06)
(0.920656 0.0246595 -0.000175692)
(0.875284 0.0271052 -6.52837e-05)
(0.891732 0.0317793 0.000731312)
(0.905756 0.0398185 0.00104558)
(0.946958 0.0434092 0.000953954)
(0.980352 0.0295553 0.000367543)
(1.00782 -0.00344614 7.47859e-05)
(1.00042 -0.00375426 1.20317e-05)
(1.03296 -0.0129196 -0.000221425)
(1.08091 -0.0204959 -0.000211442)
(1.0763 -0.00995029 1.6875e-05)
(1.07613 -0.00819132 0.00023308)
(1.03127 -0.00536595 0.000134858)
(1.02244 -0.0120084 -8.75213e-05)
(1.02305 -0.00146381 -0.000233796)
(0.960409 -0.00723705 -0.000270664)
(0.953407 -0.0146984 -0.000138752)
(0.969354 -0.0155019 0.000278072)
(1.00106 -0.0294904 0.000534133)
(1.04578 -0.0292161 0.000548346)
(1.02751 -0.028982 0.000157991)
(1.04586 -0.0148692 0.000133251)
(0.98122 -0.00291054 8.22722e-05)
(0.981288 -0.00285414 -0.000137558)
(0.939461 0.0155542 0.000155182)
(0.903493 0.00606428 -0.000178159)
(1.01065 -0.00621428 0.000136354)
(0.998802 -0.011301 0.000166257)
(1.03071 -0.059739 -0.000578025)
(1.09391 -0.0102888 -0.000745316)
(1.08671 0.0143006 2.06011e-05)
(1.08982 0.0530471 0.000537186)
(1.03801 0.0465042 0.000254152)
(1.03014 0.0200384 -9.29526e-05)
(1.03007 0.0492701 -0.000313101)
(0.955828 0.0565194 -0.000632526)
(0.957179 0.00311162 -0.000593896)
(0.967062 -0.0126343 0.000602891)
(1.00374 -0.0291623 0.000986005)
(1.05147 0.0098118 0.00137959)
(1.04335 0.0371268 0.000609633)
(1.08318 0.0511994 0.00048289)
(1.00427 0.0580002 0.000150708)
(1.009 0.0364405 -0.00149658)
(0.948029 0.044902 0.000955194)
(0.894389 0.0206864 3.95472e-05)
(1.01267 -0.0116696 0.000577966)
(0.996536 -0.0205696 -5.28148e-05)
(1.07362 -0.102336 -0.00194717)
(1.12679 -0.0768096 -0.00104103)
(1.12966 0.00731382 0.00099086)
(1.14563 0.0339812 0.00180358)
(1.05249 0.0477523 0.00130632)
(1.0452 -0.00713773 -0.000151645)
(1.05628 0.0547811 -0.00139053)
(0.959246 0.0430686 -0.00277812)
(0.951245 -0.032484 -0.00448695)
(0.975333 -0.0401026 -0.000935913)
(1.02042 -0.093267 0.00279926)
(1.11093 -0.0504941 0.00541847)
(1.08738 -0.0475335 0.000890479)
(1.07185 0.0147931 0.00195029)
(0.96263 0.0589589 0.00184833)
(0.983244 0.0261724 0.00161442)
(0.955414 0.114535 0.000981463)
(0.912192 0.0514593 -0.00297792)
(1.00552 -0.0172763 0.00132836)
(1.02113 -0.0386942 -4.32485e-05)
(1.08103 -0.195993 -0.0059411)
(1.15645 -0.0427141 -0.000908542)
(1.17494 0.0141636 0.00222905)
(1.18949 0.12408 -0.000869592)
(1.093 0.126766 0.00367169)
(1.10146 0.0235108 -0.00229219)
(1.08481 0.0968986 -0.00181121)
(0.95726 0.112984 -0.00161592)
(0.996158 -0.0462808 -0.016739)
(0.947755 -0.0589388 -0.0152144)
(1.01827 -0.117029 -0.00498474)
(1.12983 0.00632566 0.00478368)
(1.09894 0.0969891 0.00583816)
(1.14454 0.164709 0.00773669)
(1.03072 0.153219 0.000443917)
(1.08241 0.0621662 -0.00636824)
(0.992981 0.10048 0.00345739)
(0.866382 0.0352144 0.0041492)
(1.01366 -0.0267231 -0.000660838)
(0.995194 -0.0847963 0.00577817)
(1.1907 -0.266176 -0.00712694)
(1.2797 -0.175072 -0.0102005)
(1.25078 0.0572891 -0.0132266)
(1.29659 0.090238 0.0122278)
(1.18074 0.185496 0.0230933)
(1.19566 -0.0166133 -0.00632216)
(1.13961 0.156892 -0.000877142)
(0.985969 0.0948239 0.0016962)
(0.966259 -0.180185 -0.0258561)
(0.976628 -0.191364 -0.0353138)
(1.03791 -0.316665 -0.0233046)
(1.13724 -0.0762413 0.00186011)
(1.14337 -0.0170444 0.00790512)
(1.25664 0.122181 -0.00555284)
(1.19297 0.125545 -0.0173719)
(1.03618 0.000489253 0.00189325)
(0.961184 0.307141 0.0101133)
(0.885736 0.19282 -0.00296448)
(0.9656 -0.0570091 -0.00747539)
(1.05998 -0.107644 0.0146723)
(1.2831 -0.472007 -0.0133607)
(1.35067 -0.0976245 -0.0377471)
(1.42753 -0.071545 -0.0203295)
(1.45106 0.180021 -0.0208556)
(1.28125 0.3986 -0.0094685)
(1.29306 0.00369144 0.00727588)
(1.43247 0.207048 0.0161005)
(1.14086 0.286789 -0.0251198)
(0.967726 -0.224278 -0.0423173)
(0.848744 -0.401721 -0.0204362)
(0.869826 -0.454271 -0.00456901)
(1.12263 -0.0238021 -0.0171531)
(1.22117 0.0800127 -0.00884474)
(1.27877 0.0612299 0.00808737)
(1.03927 0.202016 0.0297315)
(0.969494 0.262481 0.0283947)
(1.10312 0.314701 -0.0141553)
(1.02685 0.0972544 -0.0101337)
(0.998877 -0.073882 -0.0118982)
(1.21537 -0.285902 0.0026726)
(1.29194 -0.47274 -0.0317735)
(1.28384 -0.457573 -0.0800185)
(1.47826 -0.0656331 -0.0827587)
(1.36989 0.064017 -0.0305107)
(1.43126 0.28447 0.0436536)
(1.7952 -0.104038 0.0132463)
(1.58068 0.455768 0.0330696)
(1.12931 0.265866 -0.045742)
(0.997907 -0.300593 -0.0614285)
(0.712605 -0.418733 0.00537798)
(0.699462 -0.669567 0.0226657)
(0.87394 -0.444013 0.0231801)
(1.01391 -0.238656 0.0292978)
(1.35524 0.297649 0.0190143)
(1.21881 0.571941 0.0244314)
(1.16068 0.128059 -0.0119873)
(1.27473 0.0684083 -0.00896187)
(1.19146 0.156556 0.0125882)
(1.21261 -0.277486 -0.0197768)
(1.02265 -0.254822 -0.0636179)
(1.46549 -0.854727 -0.0572516)
(1.49929 -0.490187 0.150731)
(1.77288 0.253104 0.21135)
(1.55758 0.0125516 0.0448584)
(1.46581 0.363183 -0.090739)
(1.53736 0.151074 0.0567211)
(1.65885 0.876241 0.0312191)
(1.44453 0.343638 -0.0845494)
(0.872763 -0.229165 -0.0147761)
(0.544081 -0.227782 0.105684)
(0.606552 -0.385042 0.119167)
(0.836887 0.0358027 0.0528341)
(0.648962 0.078212 0.00841754)
(0.867074 0.137959 0.0168159)
(1.35679 0.546788 0.000679604)
(1.49718 0.233031 -0.02546)
(1.38984 0.233973 -0.00613429)
(1.29998 0.269848 -0.0106214)
(1.60401 -0.173515 0.0013129)
(0.519295 -0.910365 -0.165329)
(1.35515 -0.832625 0.149142)
(0.123475 0.113154 -0.229025)
(1.0011 -0.0553052 0.31743)