/*--------------------------------*- C++ -*----------------------------------*\
  =========                 |
  \\      /  F ield         | OpenFOAM: The Open Source CFD Toolbox
   \\    /   O peration     | Website:  https://openfoam.org
    \\  /    A nd           | Version:  8
     \\/     M anipulation  |
\*---------------------------------------------------------------------------*/
FoamFile
{
    version     2.0;
    format      ascii;
    class       volScalarField;
    location    "1.05";
    object      p;
}
// * * * * * * * * * * * * * * * * * * * * * * * * * * * * * * * * * * * * * //

dimensions      [0 2 -2 0 0 0 0];

internalField   nonuniform List<scalar> 
400
(
-3.07392e-14
-6.3157e-09
-1.26211e-08
-1.8696e-08
-2.4372e-08
-2.91429e-08
-3.24843e-08
-3.39852e-08
-3.35098e-08
-3.1251e-08
-2.74448e-08
-2.21785e-08
-1.56028e-08
-8.17101e-09
-8.01564e-10
5.51959e-09
9.71026e-09
1.12852e-08
9.7391e-09
5.61345e-09
1.21895e-09
-1.10348e-09
-4.40112e-09
-8.60635e-09
-1.33788e-08
-1.80017e-08
-2.17593e-08
-2.40995e-08
-2.49046e-08
-2.44163e-08
-2.27767e-08
-1.99472e-08
-1.59493e-08
-1.11665e-08
-6.21009e-09
-1.91825e-09
1.41997e-09
3.23649e-09
3.82442e-09
3.0718e-09
5.10904e-09
4.67849e-09
3.04914e-09
-3.79801e-10
-4.94639e-09
-9.8398e-09
-1.41097e-08
-1.72253e-08
-1.91995e-08
-2.01939e-08
-2.02048e-08
-1.90563e-08
-1.67124e-08
-1.34581e-08
-9.86442e-09
-6.27531e-09
-3.0877e-09
-4.99603e-11
2.38201e-09
4.18357e-09
9.33721e-09
9.47805e-09
7.73066e-09
4.27171e-09
-5.3572e-10
-5.62079e-09
-1.01099e-08
-1.36852e-08
-1.63758e-08
-1.82221e-08
-1.90656e-08
-1.86365e-08
-1.68649e-08
-1.4067e-08
-1.06673e-08
-7.01561e-09
-3.11791e-09
8.27283e-10
4.76482e-09
7.77981e-09
1.17139e-08
1.12362e-08
9.17867e-09
5.46715e-09
7.2545e-10
-4.1248e-09
-8.482e-09
-1.21585e-08
-1.51017e-08
-1.7221e-08
-1.82707e-08
-1.79502e-08
-1.62149e-08
-1.33778e-08
-9.86856e-09
-5.90412e-09
-1.62564e-09
2.93734e-09
7.23274e-09
1.03783e-08
1.1594e-08
1.04073e-08
7.8752e-09
4.19318e-09
-1.87534e-10
-4.60028e-09
-8.66554e-09
-1.21637e-08
-1.4937e-08
-1.68424e-08
-1.76499e-08
-1.71204e-08
-1.5272e-08
-1.23994e-08
-8.79873e-09
-4.68712e-09
-2.20779e-10
4.3377e-09
8.45083e-09
1.10652e-08
1.02687e-08
8.26663e-09
5.31808e-09
1.6777e-09
-2.37414e-09
-6.44759e-09
-1.01898e-08
-1.32952e-08
-1.55806e-08
-1.69599e-08
-1.72831e-08
-1.6395e-08
-1.43889e-08
-1.15425e-08
-8.01147e-09
-3.8871e-09
5.71074e-10
4.98742e-09
8.66866e-09
1.05948e-08
8.60891e-09
5.81863e-09
2.32788e-09
-1.43836e-09
-5.34296e-09
-9.13056e-09
-1.24108e-08
-1.48831e-08
-1.64771e-08
-1.72274e-08
-1.70481e-08
-1.58199e-08
-1.36691e-08
-1.08605e-08
-7.45732e-09
-3.45075e-09
9.00315e-10
5.09831e-09
8.37464e-09
9.6914e-09
6.62973e-09
3.06564e-09
-1.03769e-09
-5.02491e-09
-8.7802e-09
-1.20998e-08
-1.46299e-08
-1.62314e-08
-1.7046e-08
-1.7226e-08
-1.66877e-08
-1.52759e-08
-1.3088e-08
-1.0358e-08
-7.11145e-09
-3.30394e-09
8.22477e-10
4.74024e-09
7.61978e-09
8.40863e-09
4.00406e-09
-2.49158e-10
-4.82059e-09
-8.87954e-09
-1.22906e-08
-1.48931e-08
-1.64729e-08
-1.71299e-08
-1.72181e-08
-1.69595e-08
-1.62246e-08
-1.47811e-08
-1.2653e-08
-1.00232e-08
-6.91896e-09
-3.33038e-09
4.86869e-10
3.99652e-09
6.3566e-09
6.51521e-09
9.72083e-10
-3.78837e-09
-8.52152e-09
-1.23938e-08
-1.52876e-08
-1.7113e-08
-1.78268e-08
-1.77162e-08
-1.72524e-08
-1.66601e-08
-1.57601e-08
-1.42706e-08
-1.21525e-08
-9.5404e-09
-6.49827e-09
-3.11283e-09
3.01393e-10
3.2166e-09
4.84554e-09
4.20534e-09
-1.61514e-09
-6.64283e-09
-1.12852e-08
-1.48115e-08
-1.71741e-08
-1.83889e-08
-1.85469e-08
-1.80044e-08
-1.72172e-08
-1.6346e-08
-1.51902e-08
-1.34991e-08
-1.12393e-08
-8.53316e-09
-5.50063e-09
-2.34179e-09
5.68747e-10
2.76424e-09
3.58763e-09
2.17412e-09
-3.00761e-09
-8.07705e-09
-1.25415e-08
-1.57331e-08
-1.76911e-08
-1.85654e-08
-1.85289e-08
-1.7909e-08
-1.70341e-08
-1.59427e-08
-1.44471e-08
-1.24171e-08
-9.91081e-09
-7.07928e-09
-4.08719e-09
-1.20498e-09
1.18701e-09
2.73769e-09
2.95073e-09
1.06673e-09
-3.17715e-09
-8.12316e-09
-1.23876e-08
-1.5325e-08
-1.70683e-08
-1.78749e-08
-1.79479e-08
-1.75246e-08
-1.67477e-08
-1.5505e-08
-1.36513e-08
-1.12431e-08
-8.4914e-09
-5.59332e-09
-2.71803e-09
-1.34454e-10
1.83264e-09
2.95585e-09
2.88108e-09
9.17578e-10
-2.85045e-09
-7.52607e-09
-1.14791e-08
-1.41954e-08
-1.58827e-08
-1.68522e-08
-1.72375e-08
-1.71516e-08
-1.65339e-08
-1.51566e-08
-1.29559e-08
-1.02023e-08
-7.27175e-09
-4.39052e-09
-1.68674e-09
6.16637e-10
2.24964e-09
3.07477e-09
2.87389e-09
1.04971e-09
-2.80555e-09
-7.04755e-09
-1.05628e-08
-1.30259e-08
-1.48197e-08
-1.60787e-08
-1.68715e-08
-1.71138e-08
-1.65971e-08
-1.50386e-08
-1.25053e-08
-9.463e-09
-6.40777e-09
-3.55795e-09
-9.91033e-10
1.08422e-09
2.37894e-09
2.81042e-09
2.39109e-09
5.81543e-10
-3.29663e-09
-6.82572e-09
-9.93263e-09
-1.23776e-08
-1.43999e-08
-1.61332e-08
-1.72892e-08
-1.77476e-08
-1.71697e-08
-1.53438e-08
-1.24622e-08
-9.12709e-09
-5.88374e-09
-2.93169e-09
-3.40869e-10
1.6141e-09
2.54773e-09
2.43542e-09
1.47629e-09
-4.07751e-10
-3.37709e-09
-6.60241e-09
-9.8735e-09
-1.28674e-08
-1.56363e-08
-1.78734e-08
-1.93834e-08
-1.97757e-08
-1.88513e-08
-1.64853e-08
-1.30317e-08
-9.1517e-09
-5.39258e-09
-1.94762e-09
1.0375e-09
3.15467e-09
3.98337e-09
3.39802e-09
1.81726e-09
-4.67624e-10
-1.09228e-09
-5.8503e-09
-1.09492e-08
-1.58664e-08
-2.00666e-08
-2.32207e-08
-2.48263e-08
-2.47895e-08
-2.29562e-08
-1.94947e-08
-1.48752e-08
-9.80809e-09
-4.81174e-09
-1.0348e-10
4.05865e-09
7.14867e-09
8.64845e-09
8.37498e-09
6.32069e-09
3.1442e-09
4.39245e-09
-3.83729e-09
-1.25925e-08
-2.0778e-08
-2.743e-08
-3.17808e-08
-3.36115e-08
-3.28638e-08
-2.98009e-08
-2.48046e-08
-1.8517e-08
-1.16526e-08
-4.73657e-09
1.94952e-09
8.07204e-09
1.3064e-08
1.62784e-08
1.717e-08
1.54714e-08
1.09703e-08
)
;

boundaryField
{
    movingWall
    {
        type            zeroGradient;
    }
    fixedWalls
    {
        type            zeroGradient;
    }
    left
    {
        type            cyclic;
    }
    right
    {
        type            cyclic;
    }
    frontAndBack
    {
        type            empty;
    }
}


// ************************************************************************* //
