/*--------------------------------*- C++ -*----------------------------------*\
  =========                 |
  \\      /  F ield         | OpenFOAM: The Open Source CFD Toolbox
   \\    /   O peration     | Website:  https://openfoam.org
    \\  /    A nd           | Version:  8
     \\/     M anipulation  |
\*---------------------------------------------------------------------------*/
FoamFile
{
    version     2.0;
    format      ascii;
    class       volScalarField;
    location    "7";
    object      p;
}
// * * * * * * * * * * * * * * * * * * * * * * * * * * * * * * * * * * * * * //

dimensions      [0 2 -2 0 0 0 0];

internalField   nonuniform List<scalar> 
11600
(
2.19381e-09
-1.17484e-07
5.65622e-07
1.70072e-06
3.37029e-06
5.56306e-06
8.27491e-06
1.15036e-05
1.52466e-05
1.95008e-05
2.42629e-05
2.95292e-05
3.52959e-05
4.15587e-05
4.8313e-05
5.55536e-05
6.32753e-05
7.14721e-05
8.0138e-05
8.92665e-05
9.88509e-05
0.000108884
0.000119358
0.000130265
0.000141597
0.000153346
0.000165502
0.000178056
0.000190999
0.00020432
0.00021801
0.000232059
0.000246455
0.000261188
0.000276246
0.000291619
0.000307295
0.000323263
0.000339511
0.000356027
0.000372801
0.000389821
0.000407076
0.000424556
0.00044225
0.000460151
0.00047825
0.000496541
0.000515018
0.000533682
0.000552533
0.00057158
0.000590835
0.000610324
0.000630086
0.000650206
0.000670809
0.000691341
0.000715975
0.000732392
3.1069e-08
-6.18172e-08
6.40413e-07
1.78004e-06
3.45141e-06
5.64477e-06
8.35639e-06
1.15841e-05
1.53255e-05
1.9578e-05
2.43382e-05
2.96026e-05
3.53671e-05
4.16276e-05
4.83794e-05
5.56174e-05
6.33362e-05
7.15302e-05
8.01931e-05
8.93186e-05
9.88998e-05
0.00010893
0.0001194
0.000130304
0.000141633
0.000153379
0.000165531
0.000178082
0.000191021
0.000204339
0.000218026
0.000232071
0.000246464
0.000261194
0.00027625
0.00029162
0.000307293
0.000323258
0.000339503
0.000356017
0.000372789
0.000389806
0.00040706
0.000424538
0.000442231
0.000460132
0.00047823
0.000496521
0.000515001
0.000533667
0.000552524
0.000571578
0.000590848
0.00061036
0.000630162
0.000650344
0.000671018
0.000691999
0.000715781
0.000735807
-7.13136e-07
-8.06965e-07
-9.70965e-08
1.04631e-06
2.72071e-06
4.91695e-06
7.63176e-06
1.0863e-05
1.46082e-05
1.88646e-05
2.36292e-05
2.88984e-05
3.46683e-05
4.09346e-05
4.76926e-05
5.49374e-05
6.26634e-05
7.08651e-05
7.95362e-05
8.86704e-05
9.82609e-05
0.0001083
0.000118781
0.000129696
0.000141036
0.000152793
0.000164958
0.000177521
0.000190473
0.000203805
0.000217506
0.000231565
0.000245973
0.000260717
0.000275788
0.000291173
0.000306862
0.000322842
0.000339103
0.000355633
0.00037242
0.000389452
0.00040672
0.000424212
0.000441918
0.000459828
0.000477935
0.000496232
0.000514712
0.000533374
0.000552217
0.000571246
0.000590469
0.000609904
0.000629573
0.000649517
0.000669764
0.000690265
0.000711972
0.000731741
-1.89713e-06
-1.98995e-06
-1.27404e-06
-1.25899e-07
1.55296e-06
3.7535e-06
6.47297e-06
9.70947e-06
1.34606e-05
1.77236e-05
2.24954e-05
2.77725e-05
3.35511e-05
3.98267e-05
4.65949e-05
5.38506e-05
6.15884e-05
6.98027e-05
7.84872e-05
8.76356e-05
9.72411e-05
0.000107296
0.000117794
0.000128726
0.000140084
0.00015186
0.000164044
0.000176628
0.000189601
0.000202955
0.000216678
0.00023076
0.000245191
0.000259959
0.000275054
0.000290464
0.000306178
0.000322184
0.00033847
0.000355024
0.000371836
0.000388892
0.000406183
0.000423697
0.000441423
0.000459351
0.000477473
0.00049578
0.000514265
0.000532924
0.000551753
0.000570753
0.000589927
0.000609282
0.000628834
0.0006486
0.000668592
0.000688815
0.00070953
0.000729421
-3.6142e-06
-3.70759e-06
-2.98803e-06
-1.83558e-06
-1.51428e-07
2.05506e-06
4.78123e-06
8.0254e-06
1.17853e-05
1.60582e-05
2.08409e-05
2.613e-05
3.19216e-05
3.82114e-05
4.4995e-05
5.22673e-05
6.00229e-05
6.82562e-05
7.6961e-05
8.61308e-05
9.57588e-05
0.000105838
0.00011636
0.000127318
0.000138704
0.000150508
0.000162721
0.000175335
0.00018834
0.000201726
0.000215482
0.000229598
0.000244064
0.000258868
0.000273999
0.000289446
0.000305196
0.000321239
0.000337562
0.000354154
0.000371002
0.000388095
0.00040542
0.000422966
0.000440723
0.000458678
0.000476823
0.000495147
0.000513641
0.000532299
0.000551112
0.000570078
0.00058919
0.000608447
0.000627845
0.000647376
0.000667021
0.000686745
0.000706546
0.000725913
-5.85931e-06
-5.9533e-06
-5.2308e-06
-4.07418e-06
-2.38408e-06
-1.70208e-07
2.56464e-06
5.81885e-06
9.59021e-06
1.3876e-05
1.86732e-05
2.39782e-05
2.97872e-05
3.6096e-05
4.29001e-05
5.01945e-05
5.79739e-05
6.62324e-05
7.49641e-05
8.41624e-05
9.38204e-05
0.000103931
0.000114486
0.000125479
0.0001369
0.000148742
0.000160994
0.000173648
0.000186695
0.000200123
0.000213923
0.000228084
0.000242596
0.000257447
0.000272626
0.000288121
0.00030392
0.000320012
0.000336385
0.000353026
0.000369922
0.000387062
0.000404434
0.000422024
0.000439822
0.000457815
0.000475992
0.000494342
0.000512853
0.000531516
0.000550321
0.000569256
0.000588313
0.000607479
0.000626739
0.000646073
0.000665446
0.000684806
0.000704084
0.000723039
-8.63367e-06
-8.7283e-06
-8.0027e-06
-6.84156e-06
-5.14477e-06
-2.92222e-06
-1.76829e-07
3.08974e-06
6.87529e-06
1.11771e-05
1.59922e-05
2.1317e-05
2.71477e-05
3.34802e-05
4.031e-05
4.7632e-05
5.54409e-05
6.37311e-05
7.24962e-05
8.173e-05
9.14253e-05
0.000101575
0.000112172
0.000123207
0.000134673
0.000146561
0.000158862
0.000171566
0.000184664
0.000198146
0.000212
0.000226218
0.000240787
0.000255696
0.000270934
0.00028649
0.00030235
0.000318504
0.000334938
0.00035164
0.000368598
0.000385798
0.000403228
0.000420875
0.000438726
0.000456768
0.000474988
0.000493375
0.000511914
0.000530592
0.000549397
0.000568315
0.000587328
0.000606419
0.000625564
0.000644733
0.000663883
0.000682956
0.000701869
0.00072047
-1.19396e-05
-1.20353e-05
-1.13062e-05
-1.01399e-05
-8.43554e-06
-6.20296e-06
-3.44521e-06
-1.6402e-07
3.63839e-06
7.95935e-06
1.27958e-05
1.81443e-05
2.40011e-05
3.0362e-05
3.72225e-05
4.45776e-05
5.24221e-05
6.075e-05
6.95553e-05
7.88315e-05
8.85717e-05
9.87686e-05
0.000109414
0.000120502
0.000132021
0.000143965
0.000156324
0.000169088
0.000182247
0.000195793
0.000209713
0.000223997
0.000238635
0.000253615
0.000268924
0.000284552
0.000300486
0.000316713
0.000333222
0.000349998
0.00036703
0.000384303
0.000401804
0.00041952
0.000437437
0.000455541
0.000473819
0.000492255
0.000510834
0.000529543
0.000548363
0.000567278
0.000586267
0.000605308
0.000624371
0.000643421
0.000662412
0.000681285
0.00069996
0.00071833
-1.57797e-05
-1.5877e-05
-1.51441e-05
-1.39719e-05
-1.22589e-05
-1.00148e-05
-7.24292e-06
-3.94487e-06
-1.22922e-07
4.22025e-06
9.0816e-06
1.44577e-05
2.03449e-05
2.67389e-05
3.36353e-05
4.10291e-05
4.89149e-05
5.72869e-05
6.6139e-05
7.54647e-05
8.52571e-05
9.55088e-05
0.000106212
0.000117359
0.000128942
0.000140951
0.000153377
0.00016621
0.000179442
0.000193062
0.000207058
0.000221421
0.000236139
0.000251201
0.000266594
0.000282307
0.000298327
0.000314641
0.000331236
0.0003481
0.000365219
0.000382578
0.000400165
0.000417964
0.000435961
0.000454142
0.00047249
0.000490991
0.000509627
0.000528381
0.000547236
0.000566169
0.000585159
0.000604178
0.000623196
0.000642174
0.000661067
0.000679818
0.000698356
0.000716597
-2.01569e-05
-2.02561e-05
-1.95192e-05
-1.83405e-05
-1.66176e-05
-1.43607e-05
-1.15728e-05
-8.25563e-06
-4.41148e-06
-4.30144e-08
4.84676e-06
1.02545e-05
1.61763e-05
2.26083e-05
2.95456e-05
3.69835e-05
4.49166e-05
5.3339e-05
6.22446e-05
7.16269e-05
8.14789e-05
9.17933e-05
0.000102562
0.000113778
0.000125432
0.000137515
0.000150018
0.000162932
0.000176246
0.000189951
0.000204035
0.000218488
0.000233298
0.000248453
0.000263942
0.000279753
0.000295871
0.000312285
0.000328982
0.000345947
0.000363166
0.000380626
0.000398312
0.000416209
0.000434302
0.000452574
0.000471009
0.000489591
0.000508301
0.000527121
0.00054603
0.000565005
0.000584022
0.000603053
0.000622064
0.000641018
0.000659869
0.000678566
0.000697047
0.000715244
-2.50748e-05
-2.51761e-05
-2.44348e-05
-2.32489e-05
-2.15152e-05
-1.92439e-05
-1.64381e-05
-1.30996e-05
-9.23053e-06
-4.83365e-06
8.80801e-08
5.5313e-06
1.14922e-05
1.79668e-05
2.49503e-05
3.24378e-05
4.0424e-05
4.89031e-05
5.78688e-05
6.73147e-05
7.72338e-05
8.76188e-05
9.84619e-05
0.000109755
0.000121489
0.000133656
0.000146246
0.00015925
0.000172657
0.000186458
0.000200641
0.000215195
0.000230109
0.00024537
0.000260968
0.000276888
0.000293119
0.000309646
0.000326457
0.000343537
0.000360872
0.000378448
0.000396248
0.000414258
0.000432462
0.000450842
0.000469382
0.000488063
0.000506867
0.000525773
0.000544759
0.000563802
0.000582875
0.000601949
0.000620992
0.000639966
0.000658828
0.000677531
0.000696021
0.000714241
-3.05373e-05
-3.06407e-05
-2.98946e-05
-2.87009e-05
-2.69552e-05
-2.46681e-05
-2.18425e-05
-1.84803e-05
-1.45837e-05
-1.01553e-05
-5.19807e-06
2.84611e-07
6.28897e-06
1.28108e-05
1.98456e-05
2.73884e-05
3.54336e-05
4.39756e-05
5.30082e-05
6.25249e-05
7.25186e-05
8.2982e-05
9.39072e-05
0.000105286
0.00011711
0.00012937
0.000142057
0.000155161
0.000168672
0.000182579
0.000196872
0.000211539
0.000226569
0.000241949
0.000257668
0.000273712
0.000290067
0.000306722
0.000323661
0.000340871
0.000358337
0.000376043
0.000393974
0.000412113
0.000430445
0.000448951
0.000467613
0.000486413
0.000505331
0.000524345
0.000543432
0.000562569
0.000581728
0.000600879
0.000619991
0.000639027
0.000657947
0.000676708
0.000695262
0.000713561
-3.65483e-05
-3.66541e-05
-3.59028e-05
-3.47005e-05
-3.29419e-05
-3.06374e-05
-2.77902e-05
-2.4402e-05
-2.04751e-05
-1.6012e-05
-1.10157e-05
-5.48963e-06
5.62481e-07
7.13643e-06
1.42276e-05
2.1831e-05
2.99413e-05
3.85526e-05
4.76588e-05
5.72533e-05
6.73291e-05
7.78788e-05
8.88946e-05
0.000100368
0.000112291
0.000124654
0.000137447
0.000150662
0.000164287
0.000178312
0.000192727
0.000207519
0.000222676
0.000238188
0.00025404
0.000270221
0.000286716
0.000303512
0.000320594
0.000337949
0.00035556
0.000373412
0.00039149
0.000409775
0.000428252
0.000446902
0.000465706
0.000484645
0.000503698
0.000522844
0.000542057
0.000561315
0.000580589
0.00059985
0.000619067
0.000638205
0.000657226
0.000676092
0.00069476
0.000713184
-4.31125e-05
-4.3221e-05
-4.24639e-05
-4.12524e-05
-3.94796e-05
-3.71563e-05
-3.42855e-05
-3.08691e-05
-2.69091e-05
-2.24082e-05
-1.73693e-05
-1.17959e-05
-5.69172e-06
9.39046e-07
8.09177e-06
1.57614e-05
2.39426e-05
3.26296e-05
4.18161e-05
5.14956e-05
6.16611e-05
7.23051e-05
8.34198e-05
9.49968e-05
0.000107028
0.000119503
0.000132413
0.000145748
0.000159499
0.000173653
0.0001882
0.000203129
0.000218427
0.000234083
0.000250082
0.000266413
0.000283061
0.000300013
0.000317253
0.000334768
0.00035254
0.000370555
0.000388796
0.000407246
0.000425886
0.000444699
0.000463665
0.000482764
0.000501974
0.000521274
0.000540639
0.000560045
0.000579464
0.000598867
0.000618223
0.0006375
0.000656663
0.000675674
0.000694495
0.000713087
-5.02347e-05
-5.03461e-05
-4.95829e-05
-4.83614e-05
-4.65734e-05
-4.42297e-05
-4.13334e-05
-3.78864e-05
-3.38906e-05
-2.93488e-05
-2.42638e-05
-1.86391e-05
-1.24785e-05
-5.78624e-06
1.43315e-06
9.17462e-06
1.74327e-05
2.62017e-05
3.54754e-05
4.52471e-05
5.55099e-05
6.62562e-05
7.74781e-05
8.91674e-05
0.000101315
0.000113913
0.00012695
0.000140416
0.000154303
0.000168597
0.000183289
0.000198367
0.000213818
0.000229631
0.000245791
0.000262286
0.000279101
0.000296224
0.000313637
0.000331327
0.000349277
0.000367472
0.000385893
0.000404524
0.000423347
0.000442342
0.00046149
0.00048077
0.000500161
0.000519639
0.000539181
0.000558762
0.000578354
0.00059793
0.000617458
0.00063691
0.00065625
0.000675444
0.000694456
0.000713251
-5.79202e-05
-5.8035e-05
-5.72652e-05
-5.6033e-05
-5.42286e-05
-5.1863e-05
-4.89393e-05
-4.54592e-05
-4.1425e-05
-3.68391e-05
-3.17045e-05
-2.60247e-05
-1.98033e-05
-1.30448e-05
-5.75354e-06
2.0653e-06
1.04063e-05
1.92638e-05
2.86314e-05
3.85026e-05
4.88702e-05
5.97269e-05
7.10646e-05
8.2875e-05
9.51493e-05
0.000107878
0.000121052
0.000134661
0.000148694
0.000163141
0.000177989
0.000193228
0.000208845
0.000224828
0.000241162
0.000257836
0.000274833
0.000292141
0.000309743
0.000327624
0.000345768
0.000364159
0.000382779
0.00040161
0.000420634
0.000439832
0.000459182
0.000478665
0.000498259
0.00051794
0.000537685
0.000557467
0.000577262
0.00059704
0.000616775
0.000636432
0.000655982
0.000675392
0.00069463
0.000713663
-6.61749e-05
-6.62932e-05
-6.55164e-05
-6.42728e-05
-6.24509e-05
-6.00618e-05
-5.71088e-05
-5.35934e-05
-4.95179e-05
-4.48848e-05
-3.96971e-05
-3.39582e-05
-2.76719e-05
-2.08423e-05
-1.34741e-05
-5.57227e-06
2.8577e-06
1.181e-05
2.12784e-05
3.12563e-05
4.17365e-05
5.27116e-05
6.41736e-05
7.61141e-05
8.85242e-05
0.000101395
0.000114716
0.000128477
0.000142668
0.000157278
0.000172296
0.000187708
0.000203504
0.00021967
0.000236193
0.000253058
0.000270253
0.000287761
0.000305567
0.000323656
0.000342012
0.000360616
0.000379453
0.000398503
0.000417747
0.000437167
0.000456742
0.00047645
0.000496269
0.000516177
0.000536149
0.000556161
0.000576185
0.000596193
0.000616163
0.000636059
0.000655852
0.000675512
0.000695007
0.000714308
-7.50049e-05
-7.5127e-05
-7.43427e-05
-7.30869e-05
-7.12464e-05
-6.88324e-05
-6.5848e-05
-6.22951e-05
-5.81756e-05
-5.34923e-05
-4.82479e-05
-4.2446e-05
-3.60903e-05
-2.91849e-05
-2.17346e-05
-1.37443e-05
-5.21938e-06
3.83421e-06
1.34103e-05
2.35021e-05
3.41026e-05
4.52043e-05
5.67992e-05
6.88788e-05
8.14341e-05
9.4456e-05
0.000107934
0.000121859
0.00013622
0.000151005
0.000166203
0.000181802
0.00019779
0.000214153
0.000230877
0.00024795
0.000265356
0.00028308
0.000301106
0.00031942
0.000338003
0.00035684
0.000375911
0.000395199
0.000414684
0.000434347
0.000454167
0.000474122
0.00049419
0.000514349
0.000534575
0.000554841
0.000575124
0.000595396
0.000615625
0.000635787
0.000655853
0.000675792
0.000695575
0.000715174
-8.44167e-05
-8.45429e-05
-8.37508e-05
-8.24821e-05
-8.06218e-05
-7.81812e-05
-7.51637e-05
-7.15708e-05
-6.74047e-05
-6.26679e-05
-5.73635e-05
-5.14946e-05
-4.50652e-05
-3.80794e-05
-3.05417e-05
-2.24573e-05
-1.38315e-05
-4.67017e-06
5.02041e-06
1.52336e-05
2.59621e-05
3.71986e-05
4.89349e-05
6.11626e-05
7.38727e-05
8.70558e-05
0.000100702
0.000114801
0.000129342
0.000144314
0.000159706
0.000175504
0.000191696
0.00020827
0.000225211
0.000242505
0.000260138
0.000278093
0.000296357
0.000314911
0.000333741
0.000352826
0.000372151
0.000391696
0.000411442
0.000431368
0.000451455
0.000471679
0.00049202
0.000512454
0.000532957
0.000553505
0.000574071
0.000594629
0.00061515
0.000635609
0.000655977
0.000676226
0.000696326
0.00071625
-9.44172e-05
-9.45478e-05
-9.37474e-05
-9.24652e-05
-9.0584e-05
-8.81154e-05
-8.50628e-05
-8.14276e-05
-7.72122e-05
-7.24189e-05
-6.70508e-05
-6.11111e-05
-5.46037e-05
-4.75327e-05
-3.99026e-05
-3.17185e-05
-2.29857e-05
-1.37102e-05
-3.89822e-06
6.44357e-06
1.7308e-05
2.86874e-05
4.05738e-05
5.29587e-05
6.5833e-05
7.91874e-05
9.30119e-05
0.000107296
0.000122029
0.0001372
0.000152797
0.000168807
0.000185218
0.000202016
0.000219188
0.000236719
0.000254593
0.000272797
0.000291313
0.000310126
0.000329218
0.000348572
0.000368169
0.000387991
0.000408017
0.000428228
0.000448603
0.00046912
0.000489756
0.000510489
0.000531295
0.000552148
0.000573024
0.000593896
0.000614737
0.00063552
0.000656218
0.000676804
0.000697249
0.000717526
-0.000105014
-0.000105149
-0.00010434
-0.000103043
-0.00010114
-9.86423e-05
-9.55526e-05
-9.1873e-05
-8.76055e-05
-8.27526e-05
-7.73174e-05
-7.1303e-05
-6.47132e-05
-5.75523e-05
-4.98246e-05
-4.15352e-05
-3.26895e-05
-2.32934e-05
-1.33531e-05
-2.87535e-06
8.13268e-06
1.96633e-05
3.17085e-05
4.42597e-05
5.73079e-05
7.08437e-05
8.4857e-05
9.93376e-05
0.000114275
0.000129656
0.000145471
0.000161706
0.000178349
0.000195386
0.000212802
0.000230584
0.000248717
0.000267185
0.000285971
0.000305059
0.000324432
0.000344072
0.000363961
0.000384079
0.000404406
0.000424923
0.000445608
0.000466439
0.000487394
0.00050845
0.000529582
0.000550767
0.000571978
0.000593191
0.000614378
0.000635513
0.000656569
0.00067752
0.000698336
0.000718993
-0.000116214
-0.000116355
-0.000115536
-0.000114225
-0.000112299
-0.00010977
-0.000106641
-0.000102915
-9.85925e-05
-9.3677e-05
-8.81711e-05
-8.20781e-05
-7.54017e-05
-6.81461e-05
-6.03157e-05
-5.19156e-05
-4.2951e-05
-3.34277e-05
-2.33522e-05
-1.27312e-05
-1.57175e-06
1.01184e-05
2.23311e-05
3.50578e-05
4.82896e-05
6.20169e-05
7.62298e-05
9.09179e-05
0.00010607
0.000121675
0.00013772
0.000154193
0.000171082
0.000188371
0.000206047
0.000224096
0.000242502
0.00026125
0.000280323
0.000299704
0.000319377
0.000339322
0.000359521
0.000379955
0.000400604
0.000421448
0.000442464
0.000463632
0.000484929
0.000506331
0.000527815
0.000549356
0.000570929
0.000592509
0.000614068
0.000635582
0.000657023
0.000678365
0.00069958
0.000720642
-0.000128026
-0.000128172
-0.000127344
-0.000126017
-0.000124067
-0.000121506
-0.000118336
-0.000114561
-0.000110181
-0.0001052
-9.96203e-05
-9.34449e-05
-8.66776e-05
-7.93227e-05
-7.13844e-05
-6.28679e-05
-5.37784e-05
-4.41217e-05
-3.39041e-05
-2.31324e-05
-1.18138e-05
4.40837e-08
1.2433e-05
2.53446e-05
3.87697e-05
5.26988e-05
6.71221e-05
8.20288e-05
9.7408e-05
0.000113248
0.000129537
0.000146261
0.000163408
0.000180965
0.000198916
0.000217247
0.000235943
0.000254987
0.000274364
0.000294056
0.000314045
0.000334314
0.000354843
0.000375613
0.000396605
0.000417797
0.000439167
0.000460695
0.000482356
0.000504129
0.000525988
0.000547911
0.000569871
0.000591843
0.000613802
0.00063572
0.000657573
0.000679332
0.000700973
0.000722467
-0.000140459
-0.000140611
-0.000139773
-0.00013843
-0.000136454
-0.000133859
-0.000130647
-0.000126821
-0.000122381
-0.000117331
-0.000111674
-0.000105412
-9.85497e-05
-9.10907e-05
-8.30396e-05
-7.44011e-05
-6.51807e-05
-5.5384e-05
-4.50175e-05
-3.40879e-05
-2.26023e-05
-1.05684e-05
2.00562e-06
1.51113e-05
2.87395e-05
4.28808e-05
5.75251e-05
7.26618e-05
8.82798e-05
0.000104367
0.000120912
0.000137901
0.000155321
0.000173159
0.0001914
0.000210029
0.00022903
0.000248388
0.000268085
0.000288106
0.000308431
0.000329042
0.000349921
0.000371048
0.000392403
0.000413964
0.00043571
0.000457619
0.000479669
0.000501836
0.000524096
0.000546424
0.000568797
0.000591188
0.000613571
0.000635921
0.000658211
0.000680415
0.000702506
0.000724458
-0.000153521
-0.000153679
-0.000152831
-0.000151471
-0.000149469
-0.000146839
-0.000143583
-0.000139703
-0.000135201
-0.000130079
-0.000124341
-0.000117989
-0.000111027
-0.00010346
-9.52905e-05
-8.65246e-05
-7.71673e-05
-6.72243e-05
-5.6702e-05
-4.56071e-05
-3.39467e-05
-2.17285e-05
-8.9606e-06
4.34852e-06
1.81898e-05
3.25536e-05
4.74298e-05
6.28078e-05
7.86763e-05
9.50235e-05
0.000111837
0.000129104
0.000146812
0.000164946
0.000183491
0.000202433
0.000221756
0.000241445
0.000261481
0.000281847
0.000302527
0.0003235
0.000344749
0.000366252
0.000387991
0.000409943
0.000432087
0.000454401
0.000476862
0.000499446
0.000522131
0.000544891
0.000567701
0.000590536
0.00061337
0.000636177
0.000658932
0.000681606
0.000704175
0.000726611
-0.000167222
-0.000167386
-0.000166528
-0.00016515
-0.000163121
-0.000160454
-0.000157152
-0.000153217
-0.00014865
-0.000143453
-0.000137631
-0.000131185
-0.00012412
-0.000116439
-0.000108147
-9.92481e-05
-8.9748e-05
-7.96524e-05
-6.89675e-05
-5.77e-05
-4.5857e-05
-3.34462e-05
-2.04755e-05
-6.95354e-06
7.11058e-06
2.17072e-05
3.68263e-05
5.24569e-05
6.85879e-05
8.52074e-05
0.000102303
0.000119862
0.000137871
0.000156315
0.000175181
0.000194452
0.000214113
0.000234149
0.000254541
0.000275272
0.000296324
0.000317679
0.000339317
0.000361218
0.000383361
0.000405726
0.00042829
0.000451031
0.000473927
0.000496953
0.000520087
0.000543303
0.000566576
0.000589881
0.000613191
0.000636482
0.000659727
0.000682899
0.000705971
0.000728916
-0.000181571
-0.000181742
-0.000180873
-0.000179477
-0.00017742
-0.000174715
-0.000171366
-0.000167372
-0.000162738
-0.000157464
-0.000151554
-0.000145011
-0.000137838
-0.00013004
-0.000121619
-0.000112582
-0.000102933
-9.26787e-05
-8.18243e-05
-7.03769e-05
-5.83435e-05
-4.57317e-05
-3.25494e-05
-1.88053e-05
-4.50849e-06
1.03314e-05
2.57041e-05
4.15988e-05
5.80043e-05
7.49086e-05
9.22994e-05
0.000110164
0.000128488
0.000147258
0.000166459
0.000186075
0.000206092
0.000226491
0.000247257
0.000268371
0.000289815
0.000311571
0.000333618
0.000355936
0.000378506
0.000401305
0.000424311
0.000447503
0.000470857
0.00049435
0.000517956
0.000541653
0.000565414
0.000589215
0.000613028
0.000636829
0.00066059
0.000684285
0.000707887
0.000731369
-0.000196578
-0.000196757
-0.000195877
-0.000194462
-0.000192377
-0.000189632
-0.000186233
-0.00018218
-0.000177476
-0.000172122
-0.000166122
-0.000159477
-0.000152193
-0.000144271
-0.000135718
-0.000126537
-0.000116734
-0.000106314
-9.52835e-05
-8.36489e-05
-7.14173e-05
-5.85961e-05
-4.51934e-05
-3.12178e-05
-1.66784e-05
-1.58493e-06
1.40524e-05
3.02227e-05
4.69148e-05
6.41166e-05
8.18158e-05
9.99992e-05
0.000118653
0.000137764
0.000157315
0.000177293
0.000197681
0.000218462
0.000239619
0.000261135
0.00028299
0.000305166
0.000327642
0.000350399
0.000373416
0.000396672
0.000420143
0.000443808
0.000467644
0.000491627
0.000515731
0.000539934
0.000564209
0.000588531
0.000612873
0.00063721
0.000661514
0.000685759
0.000709917
0.000733962
-0.000212255
-0.000212442
-0.00021155
-0.000210116
-0.000208
-0.000205216
-0.000201766
-0.000197651
-0.000192875
-0.000187438
-0.000181343
-0.000174594
-0.000167194
-0.000159146
-0.000150455
-0.000141125
-0.000131161
-0.00012057
-0.000109356
-9.75273e-05
-8.50896e-05
-7.20509e-05
-5.8419e-05
-4.42025e-05
-2.94107e-05
-1.40533e-05
1.85959e-06
1.83171e-05
3.53078e-05
5.28199e-05
7.08408e-05
8.93572e-05
0.000108356
0.000127821
0.00014774
0.000168095
0.000188871
0.000210051
0.000231618
0.000253553
0.000275838
0.000298454
0.000321381
0.000344597
0.000368083
0.000391817
0.000415777
0.000439938
0.00046428
0.000488776
0.000513404
0.000538137
0.000562951
0.00058782
0.000612718
0.000637617
0.000662491
0.000687313
0.000712055
0.000736689
-0.000228611
-0.000228807
-0.000227903
-0.00022645
-0.000224303
-0.000221477
-0.000217974
-0.000213796
-0.000208945
-0.000203423
-0.000197232
-0.000190374
-0.000182854
-0.000174675
-0.000165841
-0.000156357
-0.000146227
-0.000135458
-0.000124055
-0.000112024
-9.93727e-05
-8.61081e-05
-7.22382e-05
-5.77717e-05
-4.27177e-05
-2.70858e-05
-1.08863e-05
5.86994e-06
2.31716e-05
4.10067e-05
5.93626e-05
7.8226e-05
9.75831e-05
0.00011742
0.00013772
0.000158469
0.000179651
0.000201247
0.000223242
0.000245616
0.00026835
0.000291426
0.000314823
0.00033852
0.000362497
0.000386732
0.000411202
0.000435884
0.000460754
0.000485789
0.000510964
0.000536254
0.000561633
0.000587076
0.000612554
0.000638043
0.000663514
0.000688939
0.000714292
0.000739544
-0.000245658
-0.000245864
-0.000244947
-0.000243475
-0.000241296
-0.000238427
-0.000234871
-0.000230627
-0.0002257
-0.000220089
-0.000213798
-0.000206829
-0.000199185
-0.000190871
-0.000181889
-0.000172246
-0.000161945
-0.000150991
-0.000139392
-0.000127152
-0.000114279
-0.00010078
-8.66638e-05
-7.1938e-05
-5.66118e-05
-4.06951e-05
-2.4198e-05
-7.13138e-06
1.04934e-05
2.86643e-05
4.73687e-05
6.65931e-05
8.63237e-05
0.000106546
0.000127245
0.000148404
0.000170008
0.000192039
0.000214479
0.00023731
0.000260514
0.00028407
0.000307958
0.000332157
0.000356647
0.000381405
0.000406409
0.000431634
0.000457059
0.000482657
0.000508404
0.000534274
0.000560246
0.000586288
0.000612375
0.000638479
0.000664574
0.000690631
0.000716622
0.00074252
-0.000263408
-0.000263624
-0.000262695
-0.000261202
-0.000258991
-0.000256079
-0.000252466
-0.000248156
-0.00024315
-0.000237448
-0.000231054
-0.00022397
-0.000216199
-0.000207745
-0.000198612
-0.000188804
-0.000178326
-0.000167182
-0.00015538
-0.000142924
-0.000129822
-0.000116081
-0.000101709
-8.67147e-05
-7.11066e-05
-5.48946e-05
-3.80888e-05
-2.07001e-05
-2.73993e-06
1.57797e-05
3.48459e-05
5.44455e-05
7.45643e-05
9.51879e-05
0.000116301
0.000137887
0.000159931
0.000182413
0.000205318
0.000228626
0.000252318
0.000276374
0.000300774
0.000325498
0.000350523
0.000375827
0.000401387
0.00042718
0.000453182
0.000479368
0.000505714
0.000532194
0.000558781
0.000585448
0.00061217
0.000638918
0.000665664
0.000692381
0.000719039
0.00074561
-0.000281873
-0.000282099
-0.000281158
-0.000279644
-0.000277401
-0.000274443
-0.000270775
-0.000266396
-0.000261308
-0.000255513
-0.000249013
-0.000241811
-0.00023391
-0.000225312
-0.000216023
-0.000206045
-0.000195384
-0.000184045
-0.000172032
-0.000159354
-0.000146015
-0.000132024
-0.000117388
-0.000102116
-8.62159e-05
-6.96981e-05
-5.25726e-05
-3.48502e-05
-1.65424e-05
2.3388e-06
2.17805e-05
4.17694e-05
6.22913e-05
8.33316e-05
0.000104875
0.000126905
0.000149405
0.000172358
0.000195746
0.000219549
0.00024375
0.000268327
0.000293261
0.000318529
0.000344111
0.000369984
0.000396125
0.000422509
0.000449114
0.000475914
0.000502883
0.000529996
0.000557226
0.000584547
0.000611931
0.00063935
0.000666776
0.00069418
0.000721534
0.000748807
-0.000301065
-0.000301302
-0.000300348
-0.000298814
-0.000296537
-0.000293534
-0.000289807
-0.000285358
-0.000280187
-0.000274297
-0.000267689
-0.000260366
-0.00025233
-0.000243585
-0.000234135
-0.000223983
-0.000213133
-0.000201592
-0.000189364
-0.000176456
-0.000162873
-0.000148624
-0.000133715
-0.000118156
-0.000101954
-8.51202e-05
-6.7664e-05
-4.95962e-05
-3.09284e-05
-1.16728e-05
8.15805e-06
2.85505e-05
4.94904e-05
7.0963e-05
9.29527e-05
0.000115443
0.000138418
0.000161859
0.000185748
0.000210067
0.000234796
0.000259915
0.000285404
0.00031124
0.000337402
0.000363866
0.000390611
0.000417611
0.000444843
0.000472281
0.0004999
0.000527673
0.000555573
0.000583574
0.000611648
0.000639766
0.000667901
0.000696022
0.0007241
0.000752105
-0.000320996
-0.000321245
-0.000320279
-0.000318724
-0.000316413
-0.000313364
-0.000309578
-0.000305057
-0.000299802
-0.000293814
-0.000287095
-0.000279647
-0.000271474
-0.000262578
-0.000252962
-0.000242631
-0.000231589
-0.00021984
-0.00020739
-0.000194245
-0.000180411
-0.000165895
-0.000150705
-0.00013485
-0.000118337
-0.000101176
-8.33782e-05
-6.49535e-05
-4.59134e-05
-2.62702e-05
-6.03664e-06
1.47737e-05
3.61466e-05
5.80671e-05
8.05195e-05
0.000103488
0.000126954
0.000150902
0.000175312
0.000200166
0.000225444
0.000251126
0.00027719
0.000303616
0.00033038
0.00035746
0.000384833
0.000412473
0.000440357
0.000468459
0.000496753
0.000525213
0.000553811
0.00058252
0.000611311
0.000640158
0.000669029
0.000697896
0.000726728
0.000755496
-0.00034168
-0.000341942
-0.000340964
-0.000339387
-0.000337043
-0.000333946
-0.0003301
-0.000325506
-0.000320164
-0.000314077
-0.000307245
-0.00029967
-0.000291356
-0.000282305
-0.00027252
-0.000262006
-0.000250765
-0.000238803
-0.000226125
-0.000212736
-0.000198644
-0.000183854
-0.000168375
-0.000152214
-0.00013538
-0.000117882
-9.97313e-05
-8.09378e-05
-6.15131e-05
-4.14694e-05
-2.08194e-05
4.23273e-07
2.22442e-05
4.46283e-05
6.75599e-05
9.10225e-05
0.000114999
0.000139471
0.000164422
0.000189831
0.000215678
0.000241944
0.000268606
0.000295643
0.000323033
0.000350752
0.000378777
0.000407082
0.000435644
0.000464435
0.000493431
0.000522604
0.000551927
0.000581372
0.000610911
0.000640514
0.000670152
0.000699794
0.000729411
0.000758971
-0.000363131
-0.000363406
-0.000362415
-0.000360818
-0.000358439
-0.000355294
-0.000351388
-0.000346719
-0.00034129
-0.000335101
-0.000328153
-0.000320449
-0.000311991
-0.000302782
-0.000292824
-0.000282121
-0.000270678
-0.000258497
-0.000245585
-0.000231947
-0.000217588
-0.000202517
-0.000186739
-0.000170264
-0.000153099
-0.000135255
-0.00011674
-9.75661e-05
-7.77444e-05
-5.7287e-05
-3.62067e-05
-1.45174e-05
7.76669e-06
3.06303e-05
5.40576e-05
7.8032e-05
0.000102536
0.000127553
0.000153062
0.000179046
0.000205484
0.000232355
0.000259637
0.000287309
0.000315347
0.000343729
0.00037243
0.000401425
0.00043069
0.000460197
0.000489922
0.000519835
0.000549911
0.000580121
0.000610435
0.000640824
0.000671258
0.000701707
0.000732139
0.000762523
-0.000385361
-0.000385651
-0.000384648
-0.000383029
-0.000380616
-0.000377423
-0.000373455
-0.000368711
-0.000363192
-0.0003569
-0.000349835
-0.000341999
-0.000333395
-0.000324024
-0.00031389
-0.000302995
-0.000291343
-0.000278939
-0.000265787
-0.000251892
-0.000237261
-0.0002219
-0.000205817
-0.000189018
-0.000171513
-0.000153311
-0.000134422
-0.000114856
-9.46245e-05
-7.37403e-05
-5.22161e-05
-3.00655e-05
-7.30308e-06
1.60559e-05
3.99957e-05
6.44994e-05
8.95499e-05
0.000115129
0.000141218
0.000167797
0.000194845
0.000222343
0.000250267
0.000278596
0.000307307
0.000336375
0.000365777
0.000395488
0.000425481
0.000455731
0.000486211
0.000516894
0.000547751
0.000578753
0.000609872
0.000641078
0.000672339
0.000703625
0.000734904
0.000766143
-0.000408384
-0.00040869
-0.000407675
-0.000406036
-0.000403587
-0.000400346
-0.000396316
-0.000391496
-0.000385887
-0.00037949
-0.000372306
-0.000364337
-0.000355583
-0.000346048
-0.000335733
-0.000324642
-0.000312778
-0.000300145
-0.000286747
-0.000272591
-0.00025768
-0.000242022
-0.000225624
-0.000208494
-0.000190639
-0.000172069
-0.000152794
-0.000132825
-0.000112172
-9.08476e-05
-6.88655e-05
-4.62392e-05
-2.2983e-05
8.87541e-07
2.53566e-05
5.04073e-05
7.60223e-05
0.000102183
0.000128871
0.000156065
0.000183746
0.000211892
0.000240481
0.00026949
0.000298897
0.000328677
0.000358805
0.000389256
0.000420004
0.000451024
0.000482287
0.000513766
0.000545432
0.000577258
0.000609211
0.000641263
0.000673382
0.000705536
0.000737694
0.000769822
-0.000432216
-0.000432539
-0.000431511
-0.000429852
-0.000427369
-0.000424079
-0.000419986
-0.00041509
-0.00040939
-0.000402887
-0.000395582
-0.000387477
-0.000378572
-0.000368869
-0.000358371
-0.00034708
-0.000335
-0.000322133
-0.000308485
-0.00029406
-0.000278863
-0.000262902
-0.000246181
-0.00022871
-0.000210496
-0.000191549
-0.000171877
-0.000151492
-0.000130405
-0.000108628
-8.61741e-05
-6.30572e-05
-3.92919e-05
-1.48935e-05
1.0122e-05
3.57375e-05
6.19354e-05
8.86972e-05
0.000116003
0.000143834
0.000172168
0.000200985
0.000230261
0.000259974
0.000290101
0.000320617
0.000351496
0.000382714
0.000414244
0.00044606
0.000478133
0.000510437
0.000542943
0.00057562
0.000608439
0.000641368
0.000674376
0.000707431
0.0007405
0.000773549
-0.00045687
-0.000457211
-0.000456172