/*--------------------------------*- C++ -*----------------------------------*\
  =========                 |
  \\      /  F ield         | OpenFOAM: The Open Source CFD Toolbox
   \\    /   O peration     | Website:  https://openfoam.org
    \\  /    A nd           | Version:  8
     \\/     M anipulation  |
\*---------------------------------------------------------------------------*/
FoamFile
{
    version     2.0;
    format      ascii;
    class       volScalarField;
    location    "35.5";
    object      p;
}
// * * * * * * * * * * * * * * * * * * * * * * * * * * * * * * * * * * * * * //

dimensions      [0 2 -2 0 0 0 0];

internalField   nonuniform List<scalar> 
11600
(
4.29868e-09
-6.064e-07
-2.74075e-07
5.22469e-07
1.94038e-06
3.92896e-06
6.47935e-06
9.58902e-06
1.32574e-05
1.74849e-05
2.22727e-05
2.76232e-05
3.35394e-05
4.00248e-05
4.70836e-05
5.47199e-05
6.29385e-05
7.17442e-05
8.11424e-05
9.11383e-05
0.000101738
0.000112946
0.00012477
0.000137216
0.000150291
0.000164
0.000178352
0.000193352
0.000209008
0.000225328
0.000242317
0.000259983
0.000278333
0.000297374
0.000317113
0.000337556
0.00035871
0.000380581
0.000403175
0.000426498
0.000450556
0.000475352
0.000500893
0.000527183
0.000554228
0.000582031
0.000610597
0.000639929
0.000670031
0.000700906
0.000732556
0.000764979
0.000798164
0.000832075
0.000866628
0.000901775
0.00093778
0.000969465
0.0010177
0.00101811
1.20624e-07
-3.41229e-07
1.35967e-07
9.96054e-07
2.44724e-06
4.45271e-06
7.01102e-06
1.01238e-05
1.37926e-05
1.80193e-05
2.28062e-05
2.81555e-05
3.40703e-05
4.0554e-05
4.76106e-05
5.52444e-05
6.34602e-05
7.2263e-05
8.1658e-05
9.16505e-05
0.000102246
0.000113451
0.000125271
0.000137712
0.000150781
0.000164486
0.000178832
0.000193827
0.000209477
0.000225791
0.000242774
0.000260433
0.000278776
0.00029781
0.000317542
0.000337978
0.000359125
0.000380989
0.000403576
0.000426892
0.000450943
0.000475734
0.00050127
0.000527557
0.000554599
0.000582403
0.000610973
0.000640315
0.000670435
0.000701339
0.000733036
0.000765537
0.000798859
0.00083302
0.000868066
0.000904151
0.000941366
0.000978964
0.00102553
0.00106047
-5.3512e-07
-1.03552e-06
-5.16885e-07
3.57127e-07
1.81803e-06
3.82837e-06
6.38911e-06
9.50255e-06
1.31701e-05
1.73937e-05
2.21761e-05
2.75201e-05
3.34288e-05
3.99058e-05
4.69551e-05
5.45811e-05
6.27884e-05
7.1582e-05
8.09672e-05
9.09495e-05
0.000101534
0.000112728
0.000124536
0.000136966
0.000150024
0.000163716
0.000178049
0.000193031
0.000208669
0.000224969
0.000241939
0.000259585
0.000277915
0.000296936
0.000316655
0.000337079
0.000358213
0.000380065
0.00040264
0.000425945
0.000449985
0.000474766
0.000500293
0.000526572
0.000553607
0.000581404
0.000609969
0.000639307
0.000669426
0.000700331
0.000732032
0.00076454
0.00079787
0.000832041
0.000867095
0.000903124
0.000940182
0.000978326
0.00102148
0.001059
-1.59986e-06
-2.12462e-06
-1.57306e-06
-6.81555e-07
7.93385e-07
2.81087e-06
5.374e-06
8.48684e-06
1.21514e-05
1.63702e-05
2.11459e-05
2.64817e-05
3.23811e-05
3.88476e-05
4.58855e-05
5.34991e-05
6.16932e-05
7.04727e-05
7.9843e-05
8.98095e-05
0.000100378
0.000111555
0.000123346
0.000135757
0.000148796
0.00016247
0.000176784
0.000191746
0.000207364
0.000223644
0.000240594
0.00025822
0.00027653
0.000295532
0.000315231
0.000335635
0.000356751
0.000378584
0.000401142
0.000424429
0.000448453
0.000473219
0.000498732
0.000524998
0.000552022
0.00057981
0.000608367
0.0006377
0.000667817
0.000698727
0.000730444
0.000762983
0.000796371
0.00083065
0.00086589
0.000902201
0.000939719
0.000978798
0.00102049
0.00106184
-3.28231e-06
-3.82385e-06
-3.2594e-06
-2.36169e-06
-8.79991e-07
1.14035e-06
3.70273e-06
6.81202e-06
1.04708e-05
1.46817e-05
1.94477e-05
2.47721e-05
3.06585e-05
3.71107e-05
4.41329e-05
5.17297e-05
5.99056e-05
6.86659e-05
7.80159e-05
8.79611e-05
9.85075e-05
0.000109661
0.000121429
0.000133816
0.00014683
0.000160478
0.000174767
0.000189703
0.000205294
0.000221548
0.000238471
0.000256071
0.000274356
0.000293331
0.000313005
0.000333384
0.000354475
0.000376285
0.000398819
0.000422085
0.000446088
0.000470834
0.000496328
0.000522577
0.000549584
0.000577357
0.0006059
0.000635219
0.000665322
0.000696217
0.000727918
0.000760438
0.0007938
0.000828035
0.000863194
0.000899344
0.000936579
0.000975105
0.00101514
0.00105578
-5.55747e-06
-6.10583e-06
-5.53607e-06
-4.63708e-06
-3.15324e-06
-1.1332e-06
1.42594e-06
4.52915e-06
8.1793e-06
1.23793e-05
1.71324e-05
2.24419e-05
2.83117e-05
3.47456e-05
4.17479e-05
4.93231e-05
5.7476e-05
6.62118e-05
7.55359e-05
8.54542e-05
9.59726e-05
0.000107097
0.000118835
0.000131192
0.000144175
0.000157791
0.000172047
0.000186951
0.000202509
0.000218729
0.00023562
0.000253187
0.000271439
0.000290382
0.000310024
0.000330372
0.000351433
0.000373213
0.000395719
0.000418958
0.000442935
0.000467657
0.000493128
0.000519354
0.00054634
0.000574092
0.000602615
0.000631913
0.000661994
0.000692865
0.000724534
0.000757016
0.000790325
0.000824487
0.000859531
0.000895497
0.000932436
0.000970413
0.00100939
0.00104904
-8.42603e-06
-8.97565e-06
-8.4037e-06
-7.50597e-06
-6.02377e-06
-4.0074e-06
-1.45444e-06
1.63991e-06
5.27859e-06
9.46467e-06
1.42015e-05
1.94927e-05
2.5342e-05
3.17535e-05
3.87314e-05
4.62804e-05
5.44053e-05
6.31113e-05
7.24042e-05
8.22898e-05
9.27742e-05
0.000103864
0.000115565
0.000127885
0.000140831
0.000154408
0.000168625
0.000183489
0.000199008
0.000215189
0.000232039
0.000249567
0.00026778
0.000286684
0.000306288
0.000326599
0.000347623
0.000369368
0.000391841
0.000415047
0.000438994
0.000463686
0.00048913
0.00051533
0.000542291
0.000570018
0.000598515
0.000627787
0.000657838
0.000688674
0.000720301
0.000752725
0.000785956
0.000820005
0.000854883
0.000890601
0.000927163
0.000964555
0.00100268
0.00104131
-1.18862e-05
-1.24363e-05
-1.18642e-05
-1.09693e-05
-9.49153e-06
-7.48183e-06
-4.93801e-06
-1.85547e-06
1.76874e-06
5.93774e-06
1.0655e-05
1.59241e-05
2.17491e-05
2.81339e-05
3.50829e-05
4.26008e-05
5.06926e-05
5.93636e-05
6.86197e-05
7.84668e-05
8.89114e-05
9.99598e-05
0.000111619
0.000123895
0.000136796
0.000150328
0.000164499
0.000179317
0.000194789
0.000210923
0.000227727
0.000245209
0.000263376
0.000282235
0.000301794
0.000322061
0.000343043
0.000364747
0.000387181
0.00041035
0.000434261
0.00045892
0.000484332
0.000510502
0.000537434
0.000565133
0.000593601
0.000622843
0.000652861
0.000683658
0.000715235
0.000747595
0.000780739
0.000814666
0.000849371
0.000884843
0.000921055
0.000957952
0.000995418
0.00103326
-1.59354e-05
-1.64864e-05
-1.59162e-05
-1.50256e-05
-1.35545e-05
-1.15541e-05
-9.02216e-06
-5.95432e-06
-2.34763e-06
1.80104e-06
6.49521e-06
1.17386e-05
1.75351e-05
2.38889e-05
3.08044e-05
3.82862e-05
4.63397e-05
5.49703e-05
6.41839e-05
7.39867e-05
8.43852e-05
9.53861e-05
0.000106996
0.000119222
0.000132071
0.000145551
0.00015967
0.000174434
0.000189852
0.000205933
0.000222683
0.000240111
0.000258225
0.000277032
0.00029654
0.000316757
0.000337691
0.000359349
0.000381738
0.000404865
0.000428736
0.000453357
0.000478734
0.00050487
0.000531771
0.000559439
0.000587878
0.000617088
0.000647072
0.000677829
0.000709359
0.000741657
0.000774718
0.000808532
0.000843083
0.000878344
0.00091427
0.000950789
0.000987784
0.00102509
-2.05717e-05
-2.1124e-05
-2.05574e-05
-1.96727e-05
-1.82102e-05
-1.62213e-05
-1.37039e-05
-1.06536e-05
-7.06752e-06
-2.94248e-06
1.72504e-06
6.93875e-06
1.27026e-05
1.90209e-05
2.5898e-05
3.33388e-05
4.13487e-05
4.99333e-05
5.90987e-05
6.88512e-05
7.91974e-05
9.01442e-05
0.000101698
0.000113867
0.000126658
0.000140078
0.000154137
0.00016884
0.000184198
0.000200217
0.000216906
0.000234274
0.000252327
0.000271075
0.000290525
0.000310686
0.000331565
0.000353171
0.00037551
0.00039859
0.000422416
0.000446996
0.000472334
0.000498434
0.000525301
0.000552938
0.000581346
0.000610527
0.000640479
0.000671201
0.000702689
0.000734935
0.000767929
0.000801653
0.000836083
0.000871183
0.000906901
0.00094316
0.000979848
0.00101682
-2.57932e-05
-2.63468e-05
-2.5785e-05
-2.49077e-05
-2.34557e-05
-2.14806e-05
-1.89803e-05
-1.59503e-05
-1.23878e-05
-8.28976e-06
-3.65259e-06
1.52744e-06
7.25434e-06
1.35324e-05
2.03662e-05
2.77609e-05
3.57218e-05
4.42548e-05
5.33661e-05
6.30621e-05
7.33496e-05
8.42355e-05
9.57269e-05
0.000107831
0.000120557
0.00013391
0.000147901
0.000162536
0.000177825
0.000193775
0.000210396
0.000227694
0.00024568
0.000264362
0.000283747
0.000303845
0.000324663
0.000346211
0.000368494
0.000391521
0.000415299
0.000439833
0.000465129
0.000491191
0.000518023
0.000545628
0.000574007
0.000603161
0.000633088
0.000663783
0.00069524
0.00072745
0.000760398
0.000794062
0.000828414
0.000863413
0.000899003
0.00093511
0.000971633
0.00100845
-3.15973e-05
-3.21523e-05
-3.15961e-05
-3.07277e-05
-2.9288e-05
-2.73288e-05
-2.48479e-05
-2.18409e-05
-1.83052e-05
-1.42376e-05
-9.63451e-06
-4.49229e-06
1.19317e-06
7.42629e-06
1.42119e-05
2.15551e-05
2.94615e-05
3.79372e-05
4.69883e-05
5.66214e-05
6.68435e-05
7.76616e-05
8.90832e-05
0.000101116
0.000113768
0.000127047
0.000140963
0.000155522
0.000170734
0.000186607
0.00020315
0.000220373
0.000238283
0.000256891
0.000276204
0.000296231
0.000316982
0.000338465
0.000360687
0.000383657
0.00040738
0.000431864
0.000457115
0.000483137
0.000509933
0.000537507
0.00056586
0.000594992
0.000624899
0.000655578
0.00068702
0.000719213
0.000752141
0.00078578
0.000820099
0.000855057
0.000890598
0.000926653
0.000963131
0.000999926
-3.79806e-05
-3.85372e-05
-3.79874e-05
-3.71292e-05
-3.57034e-05
-3.3762e-05
-3.1303e-05
-2.83219e-05
-2.4816e-05
-2.07823e-05
-1.62173e-05
-1.11171e-05
-5.47762e-06
7.05738e-07
7.43793e-06
1.47243e-05
2.25706e-05
3.09829e-05
3.99676e-05
4.95313e-05
5.96811e-05
7.04243e-05
8.17688e-05
9.37224e-05
0.000106294
0.000119491
0.000133322
0.000147797
0.000162923
0.000178711
0.000195169
0.000212307
0.000230134
0.000248659
0.000267893
0.000287843
0.000308519
0.00032993
0.000352084
0.00037499
0.000398655
0.000423085
0.000448287
0.000474266
0.000501027
0.000528571
0.000556901
0.000586016
0.000615913
0.000646587
0.000678029
0.000710227
0.000743162
0.000776812
0.000811145
0.00084612
0.000881685
0.000917775
0.000954312
0.000991203
-4.49393e-05
-4.54978e-05
-4.49552e-05
-4.41082e-05
-4.2698e-05
-4.07765e-05
-3.83417e-05
-3.53892e-05
-3.19164e-05
-2.79202e-05
-2.33972e-05
-1.83433e-05
-1.27545e-05
-6.6258e-06
4.77977e-08
7.27183e-06
1.50522e-05
2.33949e-05
3.23066e-05
4.17941e-05
5.18645e-05
6.25256e-05
7.37853e-05
8.56519e-05
9.81341e-05
0.00011124
0.00012498
0.000139361
0.000154394
0.000170088
0.000186452
0.000203496
0.000221231
0.000239666
0.000258811
0.000278675
0.000299269
0.000320601
0.000342681
0.000365517
0.000389117
0.000413489
0.000438639
0.000464574
0.000491298
0.000518814
0.000547124
0.000576227
0.000606123
0.000636804
0.000668263
0.000700487
0.000733459
0.000767156
0.000801546
0.000836593
0.000872247
0.000908451
0.000945135
0.000982219
-5.24692e-05
-5.30299e-05
-5.24951e-05
-5.16606e-05
-5.02674e-05
-4.83678e-05
-4.59597e-05
-4.30387e-05
-3.96022e-05
-3.56472e-05
-3.11701e-05
-2.6167e-05
-2.06335e-05
-1.45645e-05
-7.95482e-06
-7.98822e-07
6.90948e-06
1.51763e-05
2.40083e-05
3.34125e-05
4.33962e-05
5.39675e-05
6.51346e-05
7.69062e-05
8.92909e-05
0.000102298
0.000115936
0.000130216
0.000145145
0.000160736
0.000176997
0.000193939
0.000211572
0.000229907
0.000248955
0.000268725
0.000289228
0.000310473
0.000332471
0.00035523
0.00037876
0.000403069
0.000428163
0.000454051
0.000480736
0.000508225
0.000536518
0.000565616
0.000595518
0.000626219
0.000657711
0.000689983
0.000723018
0.000756795
0.000791285
0.000826453
0.000862256
0.000898641
0.000935548
0.000972907
-6.05655e-05
-6.11287e-05
-6.06026e-05
-5.97815e-05
-5.84071e-05
-5.65314e-05
-5.41523e-05
-5.12657e-05
-4.78688e-05
-4.39587e-05
-3.95317e-05
-3.45838e-05
-2.91103e-05
-2.31061e-05
-1.65659e-05
-9.4838e-06
-1.85378e-06
6.33052e-06
1.50759e-05
2.43894e-05
3.42789e-05
4.47526e-05
5.58189e-05
6.74869e-05
7.97655e-05
9.26642e-05
0.000106192
0.00012036
0.000135177
0.000150655
0.000166803
0.000183632
0.000201155
0.000219381
0.000238321
0.000257988
0.00027839
0.00029954
0.000321448
0.000344123
0.000367575
0.000391814
0.000416849
0.000442686
0.000469332
0.000496792
0.00052507
0.000554168
0.000584084
0.000614815
0.000646356
0.000678695
0.000711818
0.000745706
0.000780333
0.000815667
0.000851671
0.000888298
0.000925494
0.000963199
-6.92233e-05
-6.97892e-05
-6.92724e-05
-6.8466e-05
-6.71118e-05
-6.5262e-05
-6.29146e-05
-6.00653e-05
-5.67114e-05
-5.285e-05
-4.84772e-05
-4.35889e-05
-3.81803e-05
-3.22462e-05
-2.57811e-05
-1.87789e-05
-1.12337e-05
-3.13877e-06
5.51268e-06
1.47281e-05
2.45156e-05
3.48834e-05
4.58405e-05
5.73961e-05
6.95595e-05
8.23404e-05
9.57489e-05
0.000109795
0.00012449
0.000139844
0.000155869
0.000172576
0.000189976
0.000208083
0.000226906
0.000246458
0.000266751
0.000287795
0.000309604
0.000332186
0.000355554
0.000379717
0.000404685
0.000430467
0.000457071
0.000484502
0.000512766
0.000541866
0.000571803
0.000602574
0.000634176
0.000666599
0.000699832
0.000733859
0.000768656
0.000804197
0.000840448
0.000877368
0.000914911
0.000953023
-7.8437e-05
-7.90058e-05
-7.84991e-05
-7.77085e-05
-7.63762e-05
-7.45545e-05
-7.22412e-05
-6.94321e-05
-6.61247e-05
-6.23157e-05
-5.80014e-05
-5.31773e-05
-4.78386e-05
-4.19799e-05
-3.55956e-05
-2.86797e-05
-2.12259e-05
-1.32275e-05
-4.67734e-06
4.43222e-06
1.41094e-05
2.4363e-05
3.52021e-05
4.66361e-05
5.86747e-05
7.13281e-05
8.46067e-05
9.85211e-05
0.000113083
0.000128303
0.000144193
0.000160766
0.000178034
0.000196009
0.000214704
0.000234131
0.000254303
0.000275232
0.000296931
0.000319411
0.000342685
0.000366764
0.000391659
0.000417381
0.000443937
0.000471337
0.000499586
0.00052869
0.000558651
0.000589469
0.000621143
0.000653665
0.000687027
0.000721216
0.000756213
0.000791995
0.000828533
0.000865792
0.000903731
0.000942302
-8.82007e-05
-8.87726e-05
-8.82768e-05
-8.75031e-05
-8.61944e-05
-8.44028e-05
-8.21262e-05
-7.93605e-05
-7.61029e-05
-7.23502e-05
-6.80985e-05
-6.33433e-05
-5.80795e-05
-5.23018e-05
-4.60044e-05
-3.91812e-05
-3.18257e-05
-2.39311e-05
-1.549e-05
-6.49432e-06
3.06426e-06
1.31948e-05
2.39066e-05
3.52094e-05
4.71134e-05
5.9629e-05
7.2767e-05
8.65388e-05
0.000100956
0.000116031
0.000131775
0.000148203
0.000165326
0.000183158
0.000201712
0.000221002
0.000241041
0.000261843
0.00028342
0.000305788
0.000328958
0.000352944
0.000377757
0.00040341
0.000429913
0.000457277
0.000485509
0.000514616
0.000544603
0.000575473
0.000607225
0.000639858
0.000673365
0.000707736
0.000742957
0.000779009
0.000815868
0.000853503
0.00089188
0.000930959
-9.85082e-05
-9.90833e-05
-9.85991e-05
-9.78436e-05
-9.65601e-05
-9.48007e-05
-9.25634e-05
-8.98441e-05
-8.66398e-05
-8.29474e-05
-7.87626e-05
-7.4081e-05
-6.88975e-05
-6.32065e-05
-5.70021e-05
-5.02782e-05
-4.30281e-05
-3.52448e-05
-2.69205e-05
-1.80471e-05
-8.61587e-06
1.38238e-06
1.19573e-05
2.3119e-05
3.48779e-05
4.72449e-05
6.02313e-05
7.38489e-05
8.811e-05
0.000103027
0.000118614
0.000134883
0.000151848
0.000169524
0.000187925
0.000207065
0.000226958
0.000247619
0.000269064
0.000291306
0.00031436
0.000338241
0.000362963
0.000388538
0.00041498
0.0004423
0.000470509
0.000499617
0.000529629
0.000560552
0.000592388
0.000625139
0.000658802
0.000693371
0.000728835
0.00076518
0.000802388
0.000840432
0.000879285
0.00091891
-0.000109352
-0.000109931
-0.000109459
-0.000108723
-0.000107466
-0.000105741
-0.000103546
-0.000100876
-9.77289e-05
-9.41006e-05
-8.99872e-05
-8.53842e-05
-8.02862e-05
-7.46877e-05
-6.85828e-05
-6.1965e-05
-5.48276e-05
-4.71631e-05
-3.89639e-05
-3.02213e-05
-2.09265e-05
-1.107e-05
-6.4198e-07
1.03681e-05
2.1971e-05
3.41781e-05
4.70012e-05
6.04527e-05
7.45452e-05
8.92921e-05
0.000104707
0.000120805
0.000137599
0.000155105
0.000173338
0.000192313
0.000212047
0.000232554
0.00025385
0.000275953
0.000298879
0.000322642
0.000347259
0.000372745
0.000399116
0.000426384
0.000454562
0.000483663
0.000513696
0.00054467
0.000576592
0.000609465
0.000643291
0.000678067
0.000713789
0.000750446
0.000788024
0.000826504
0.000865862
0.000906069
-0.000120726
-0.000121308
-0.00012085
-0.000120134
-0.000118906
-0.000117218
-0.000115067
-0.00011245
-0.000109363
-0.000105803
-0.000101765
-9.72459e-05
-9.2239e-05
-8.67391e-05
-8.07401e-05
-7.42354e-05
-6.7218e-05
-5.96804e-05
-5.16145e-05
-4.30117e-05
-3.38627e-05
-2.4158e-05
-1.38872e-05
-3.03968e-06
8.39591e-06
2.04313e-05
3.30789e-05
4.63514e-05
6.02623e-05
7.48255e-05
9.00554e-05
0.000105967
0.000122575
0.000139897
0.000157947
0.000176742
0.0001963
0.000216637
0.00023777
0.000259719
0.000282499
0.00030613
0.000330629
0.000356012
0.000382298
0.000409501
0.000437639
0.000466724
0.000496771
0.000527791
0.000559794
0.000592789
0.00062678
0.00066177
0.000697758
0.000734739
0.000772704
0.000811639
0.000851528
0.000892345
-0.000132622
-0.000133208
-0.000132763
-0.000132069
-0.000130872
-0.000129222
-0.000127119
-0.000124557
-0.000121534
-0.000118047
-0.00011409
-0.000109659
-0.000104749
-9.93536e-05
-9.34671e-05
-8.70826e-05
-8.01929e-05
-7.27903e-05
-6.48665e-05
-5.64126e-05
-4.74192e-05
-3.78765e-05
-2.77739e-05
-1.71002e-05
-5.8437e-06
6.00772e-06
1.84669e-05
3.15472e-05
4.52627e-05
5.96278e-05
7.46578e-05
9.03682e-05
0.000106775
0.000123896
0.000141746
0.000160345
0.00017971
0.00019986
0.000220813
0.00024259
0.000265208
0.00028869
0.000313053
0.000338317
0.000364502
0.000391626
0.000419708
0.000448765
0.000478814
0.000509871
0.000541948
0.000575059
0.000609213
0.000644417
0.000680674
0.000717986
0.000756349
0.000795755
0.000836191
0.000877641
-0.000145031
-0.000145621
-0.000145191
-0.00014452
-0.000143355
-0.000141746
-0.000139693
-0.00013719
-0.000134235
-0.000130824
-0.000126953
-0.000122616
-0.000117808
-0.000112524
-0.000106757
-0.0001005
-9.37454e-05
-8.64861e-05
-7.87133e-05
-7.04179e-05
-6.15902e-05
-5.22202e-05
-4.22968e-05
-3.18087e-05
-2.07437e-05
-9.08909e-06
3.16834e-06
1.60425e-05
2.9548e-05
4.37001e-05
5.85145e-05
7.40076e-05
9.01966e-05
0.000107099
0.000124733
0.000143117
0.000162271
0.000182214
0.000202968
0.000224553
0.000246991
0.000270303
0.000294511
0.000319637
0.000345703
0.00037273
0.000400739
0.000429752
0.000459788
0.000490867
0.000523007
0.000556224
0.000590533
0.000625945
0.000662469
0.000700113
0.000738877
0.000778761
0.000819758
0.000861857
-0.000157944
-0.000158538
-0.000158124
-0.000157478
-0.000156346
-0.000154781
-0.000152781
-0.000150341
-0.000147457
-0.000144127
-0.000140346
-0.000136108
-0.000131409
-0.000126242
-0.000120601
-0.000114479
-0.000107868
-0.000100761
-9.3148e-05
-8.50209e-05
-7.63694e-05
-6.7183e-05
-5.74505e-05
-4.716e-05
-3.62992e-05
-2.48548e-05
-1.28131e-05
-1.59666e-07
1.31206e-05
2.70437e-05
4.1626e-05
5.68846e-05
7.28375e-05
8.95033e-05
0.000106901
0.000125051
0.000143974
0.000163691
0.000184224
0.000205597
0.000227832
0.000250954
0.000274985
0.000299951
0.000325876
0.000352783
0.000380699
0.000409647
0.000439651
0.000470734
0.000502919
0.000536227
0.000570677
0.000606286
0.000643069
0.000681039
0.000720203
0.000760566
0.000802128
0.000844885
-0.000171353
-0.000171951
-0.000171554
-0.000170933
-0.000169837
-0.000168318
-0.000166374
-0.000163999
-0.000161191
-0.000157946
-0.00015426
-0.000150127
-0.000145542
-0.000140499
-0.000134991
-0.000129011
-0.000122552
-0.000115606
-0.000108163
-0.000100214
-9.17497e-05
-8.27582e-05
-7.32285e-05
-6.31482e-05
-5.25047e-05
-4.12844e-05
-2.94731e-05
-1.70557e-05
-4.01659e-06
9.66068e-06
2.39933e-05
3.89992e-05
5.46972e-05
7.11067e-05
8.82482e-05
0.000106143
0.000124813
0.000144281
0.000164572
0.000185709
0.000207718
0.000230624
0.000254454
0.000279235
0.000304993
0.000331756
0.000359553
0.000388412
0.00041836
0.000449424
0.000481633
0.00051501
0.000549582
0.000585371
0.000622398
0.00066068
0.000700234
0.000741071
0.000783196
0.000826614
-0.000185248
-0.00018585
-0.00018547
-0.000184876
-0.000183818
-0.000182347
-0.000180461
-0.000178156
-0.000175427
-0.000172272
-0.000168685
-0.000164663
-0.000160198
-0.000155285
-0.000149918
-0.000144089
-0.00013779
-0.000131014
-0.00012375
-0.00011599
-0.000107724
-9.89385e-05
-8.96238e-05
-7.97667e-05
-6.93543e-05
-5.83724e-05
-4.68066e-05
-3.46413e-05
-2.18602e-05
-8.44631e-06
5.61823e-06
2.03522e-05
3.57751e-05
5.19076e-05
6.87711e-05
8.63883e-05
0.000104782
0.000123978
0.000144001
0.000164876
0.000186632
0.000209297
0.000232898
0.000257465
0.000283028
0.000309619
0.000337268
0.000366008
0.000395871
0.000426889
0.000459093
0.000492514
0.000527182
0.000563126
0.000600374
0.00063895
0.000678877
0.000720172
0.000762851
0.000806924
-0.000199618
-0.000200224
-0.000199862
-0.000199297
-0.000198279
-0.000196858
-0.000195034
-0.0001928
-0.000190155
-0.000187094
-0.000183613
-0.000179706
-0.000175368
-0.000170592
-0.000165373
-0.000159702
-0.000153573
-0.000146975
-0.000139901
-0.00013234
-0.000124282
-0.000115716
-0.000106629
-9.70082e-05
-8.68409e-05
-7.61125e-05
-6.4808e-05
-5.29114e-05
-4.04059e-05
-2.72739e-05
-1.34967e-05
9.44947e-07
1.60717e-05
3.19051e-05
4.84677e-05
6.57833e-05
8.38766e-05
0.000102774
0.000122502
0.000143088
0.000164563
0.000186955
0.000210296
0.000234618
0.000259955
0.00028634
0.000313809
0.000342397
0.000372142
0.000403079
0.000435244
0.000468675
0.000503408
0.000539477
0.000576916
0.000615758
0.000656031
0.000697764
0.000740977
0.000785691
-0.000214452
-0.000215063
-0.00021472
-0.000214185
-0.000213208
-0.00021184
-0.00021008
-0.000207923
-0.000205365
-0.000202402
-0.000199031
-0.000195245
-0.00019104
-0.000186409
-0.000181345
-0.000175841
-0.000169889
-0.00016348
-0.000156606
-0.000149255
-0.000141417
-0.000133081
-0.000124235
-0.000114864
-0.000104957
-9.44976e-05
-8.34708e-05
-7.18602e-05
-5.96486e-05
-4.68176e-05
-3.33481e-05
-1.92199e-05
-4.4115e-06
1.10995e-05
2.73368e-05
4.43253e-05
6.20912e-05
8.0662e-05
0.000100066
0.000120333
0.000141495
0.000163582
0.00018663
0.000210673
0.000235747
0.00026189
0.000289141
0.00031754
0.000347127
0.000377944
0.000410032
0.000443433
0.00047819
0.000514345
0.000551938
0.000591008
0.000631595
0.000673733
0.000717453
0.000762783
-0.00022974
-0.000230356
-0.000230033
-0.000229529
-0.000228594
-0.000227282
-0.000225589
-0.000223511
-0.000221044
-0.000218185
-0.000214929
-0.000211271
-0.000207204
-0.000202724
-0.000197823
-0.000192494
-0.000186729
-0.000180518
-0.000173853
-0.000166724
-0.000159118
-0.000151025
-0.000142432
-0.000133327
-0.000123694
-0.00011352
-0.000102788
-9.1481e-05
-7.95821e-05
-6.70722e-05
-5.39314e-05
-4.01387e-05
-2.5672e-05
-1.05079e-05
5.37834e-06
2.20128e-05
3.9423e-05
5.76377e-05
7.66869e-05
9.66022e-05
0.000117417
0.000139165
0.000161882
0.000185607
0.00021038
0.00023624
0.000263231
0.000291397
0.000320782
0.000351433
0.000383398
0.000416723
0.000451458
0.000487651
0.000525352
0.000564607
0.000605463
0.000647964
0.000692152
0.000738065
-0.000245469
-0.00024609
-0.000245787
-0.000245316
-0.000244426
-0.000243172
-0.000241549
-0.000239554
-0.000237182
-0.000234431
-0.000231295
-0.00022777
-0.000223849
-0.000219527
-0.000214797
-0.000209651
-0.000204081
-0.000198078
-0.000191634
-0.000184736
-0.000177374
-0.000169537
-0.000161212
-0.000152385
-0.000143043
-0.00013317
-0.00012275
-0.000111766
-0.000100199
-8.80311e-05
-7.52408e-05
-6.18068e-05
-4.77061e-05
-3.29145e-05
-1.74064e-05
-1.15441e-06
1.587e-05
3.3697e-05
5.23582e-05
7.18869e-05
9.23179e-05
0.000113688
0.000136036
0.000159402
0.00018383
0.000209362
0.000236047
0.000263931
0.000293065
0.000323499
0.000355286
0.000388482
0.00042314
0.000459317
0.000497069
0.000536453
0.000577525
0.000620338
0.000664944
0.000711393
-0.000261627
-0.000262253
-0.000261972
-0.000261534
-0.000260692
-0.000259497
-0.000257947
-0.000256038
-0.000253766
-0.000251127
-0.000248117
-0.00024473
-0.000240961
-0.000236804
-0.000232253
-0.000227298
-0.000221933
-0.000216148
-0.000209934
-0.00020328
-0.000196174
-0.000188606
-0.000180562
-0.00017203
-0.000162994
-0.000153439
-0.000143349
-0.000132706
-0.000121492
-0.000109687
-9.72695e-05
-8.4218e-05
-7.05087e-05
-5.61165e-05
-4.10147e-05
-2.51752e-05
-8.56813e-06
8.83786e-06
2.70759e-05
4.61808e-05
6.61895e-05
8.7141e-05
0.000109076
0.000132039
0.000156074
0.00018123
0.000207556
0.000235105
0.000263931
0.000294091
0.000325642
0.000358646
0.000393165
0.000429262
0.000467001
0.000506449
0.000547671
0.000590731
0.000635693
0.000682618
-0.000278202
-0.000278833
-0.000278574
-0.000278171
-0.000277377
-0.000276245
-0.000274771
-0.000272951
-0.000270783
-0.000268261
-0.000265381
-0.000262139
-0.000258529
-0.000254544
-0.000250178
-0.000245424
-0.000240273
-0.000234715
-0.000228742
-0.000222343
-0.000215506
-0.00020822
-0.000200472
-0.000192248
-0.000183534
-0.000174315
-0.000164573
-0.000154291
-0.00014345
-0.00013203
-0.000120009
-0.000107365
-9.40733e-05
-8.01082e-05
-6.54423e-05
-5.00465e-05
-3.38899e-05
-1.694e-05
8.37759e-07
1.94798e-05
3.90249e-05
5.95141e-05
8.09909e-05
0.000103501
0.000127093
0.000151819
0.00017773
0.000204885
0.000233342
0.000263163
0.000294411
0.000327155
0.000361463
0.000397406
0.000435057
0.000474493
0.000515788
0.000559019
0.00060426
0.000651587
-0.000295179
-0.000295815
-0.00029558
-0.000295213
-0.000294469
-0.000293401
-0.000292007
-0.00029028
-0.000288218
-0.000285818
-0.000283075
-0.000279983
-0.000276537
-0.000272732
-0.00026856
-0.000264014
-0.000259085
-0.000253765
-0.000248044
-0.000241911
-0.000235356
-0.000228365
-0.000220927
-0.000213028
-0.000204653
-0.000195786
-0.000186411
-0.00017651
-0.000166063
-0.000155051
-0.00014345
-0.000131239
-0.000118392
-0.000104883
-9.06831e-05
-7.57634e-05
-6.00919e-05
-4.36347e-05
-2.63561e-05
-8.21821e-06
1.08196e-05
3.08002e-05
5.17693e-05
7.37754e-05
9.68697e-05
0.000121106
0.000146543
0.000173239
0.00020126
0.000230671
0.000261542
0.000293948
0.000327965
0.000363671
0.000401149
0.000440484
0.000481763
0.000525073
0.000570503
0.000618141
-0.000312545
-0.000313187
-0.000312975
-0.000312645
-0.000311954
-0.000310953
-0.00030964
-0.00030801
-0.00030606
-0.000303785
-0.000301183
-0.000298247
-0.000294973
-0.000291354
-0.000287384
-0.000283054
-0.000278358
-0.000273285
-0.000267826
-0.000261971
-0.000255709
-0.000249028
-0.000241914
-0.000234355
-0.000226335
-0.000217839
-0.00020885
-0.00019935
-0.000189319
-0.000178737
-0.000167581
-0.000155829
-0.000143454
-0.00013043
-0.000116729
-0.000102319
-8.71683e-05
-7.12421e-05
-5.45035e-05
-3.69129e-05
-1.84285e-05
9.94621e-07
2.14042e-05
4.28509e-05
6.53886e-05
8.90747e-05
0.00011397
0.000140139
0.000167649
0.000196573
0.000226987
0.000258969
0.000292605
0.00032798
0.000365188
0.000404323
0.000445482
0.000488767
0.000534278
0.000582119
-0.000330285
-0.000330932
-0.000330745
-0.000330454
-0.000329816
-0.000328885
-0.000327656
-0.000326126
-0.000324291
-0.000322148
-0.000319691
-0.000316918
-0.000313821
-0.000310395
-0.000306634
-0.000302529
-0.000298074
-0.000293258
-0.000288073
-0.000282508
-0.000276552
-0.000270192
-0.000263418
-0.000256214
-0.000248566
-0.000240459
-0.000231875
-0.000222796
-0.000213202
-0.000203074
-0.000192388
-0.000181122
-0.000169248
-0.00015674
-0.000143569
-0.000129704
-0.000115111
-9.97556e-05
-8.35991e-05
-6.66011e-05
-4.87182e-05
-2.99039e-05
-1.01087e-05
1.07203e-05
3.26395e-05
5.57088e-05
7.99925e-05
0.000105559
0.00013248
0.000160833
0.000190699
0.000222165
0.000255321
0.000290262
0.000327091
0.000365912
0.000406835
0.000449972
0.000495439
0.000543357
-0.000348384
-0.000349036
-0.000348875
-0.000348623
-0.000348042
-0.000347182
-0.000346041
-0.000344614
-0.000342898
-0.000340889
-0.000338584
-0.000335978
-0.000333065
-0.000329839
-0.000326295
-0.000322424
-0.000318218
-0.00031367
-0.000308769
-0.000303504
-0.000297867
-0.000291843
-0.000285422
-0.000278589
-0.00027133
-0.000263629
-0.000255469
-0.000246832
-0.000237699
-0.000228048
-0.000217857
-0.000207103
-0.000195759
-0.000183798
-0.000171191
-0.000157906
-0.00014391
-0.000129166
-0.000113635
-9.72766e-05
-8.00452e-05
-6.18933e-05
-4.27697e-05
-2.26197e-05
-1.38466e-06
2.0998e-05
4.45955e-05
6.94796e-05
9.57266e-05
0.000123418
0.000152641
0.000183487
0.000216055
0.000250449
0.000286778
0.000325159
0.000365712
0.000408563
0.000453844
0.000501691
-0.000366826
-0.000367484
-0.000367349
-0.000367139
-0.000366615
-0.000365828
-0.000364777
-0.000363457
-0.000361864
-0.000359995
-0.000357846
-0.000355412
-0.000352689
-0.000349671
-0.00034635
-0.000342721
-0.000338774
-0.000334502
-0.000329896
-0.000324944
-0.000319637
-0.000313963
-0.00030791
-0.000301463
-0.000294609
-0.000287333
-0.000279616
-0.000271442
-0.00026279
-0.000253641
-0.000243971
-0.000233756
-0.000222972
-0.00021159
-0.00019958
-0.000186912
-0.000173551
-0.00015946
-0.000144601
-0.00012893
-0.000112401
-9.49675e-05
-7.65751e-05
-5.71681e-05
-3.66859e-05
-1.50635e-05
7.76893e-06
3.18862e-05
5.73685e-05
8.43015e-05
0.000112777
0.000142894
0.000174757
0.000208477
0.000244175
0.000281975
0.00032201
0.00036442
0.000409353
0.000456961
-0.000385596
-0.000386259
-0.000386151
-0.000385983
-0.000385518
-0.000384808
-0.00038385
-0.000382639
-0.000381172
-0.000379447
-0.000377459
-0.000375204
-0.000372677
-0.000369872
-0.000366783
-0.000363403
-0.000359724
-0.000355738
-0.000351436
-0.000346809
-0.000341845
-0.000336533
-0.000330862
-0.000324817
-0.000318385
-0.000311551
-0.000304297
-0.000296605
-0.000288458
-0.000279833
-0.00027071
-0.000261063
-0.000250867
-0.000240096
-0.000228718
-0.000216704
-0.000204018
-0.000190623
-0.00017648
-0.000161546
-0.000145775
-0.000129116
-0.000111517
-9.29191e-05
-7.32612e-05
-5.24761e-05
-3.04916e-05
-7.23021e-06
1.73915e-05
4.34631e-05
7.10814e-05
0.00010035
0.000131381
0.000164293
0.000199214
0.000236278
0.000275632
0.000317429
0.00036183
0.000409006
-0.000404676
-0.000405345
-0.000405265
-0.00040514
-0.000404736
-0.000404104
-0.000403241
-0.000402142
-0.000400806
-0.000399229
-0.000397406
-0.000395335
-0.00039301
-0.000390425
-0.000387574
-0.000384452
-0.000381049
-0.000377359
-0.000373372
-0.00036908
-0.000364471
-0.000359535
-0.000354259
-0.000348631
-0.000342638
-0.000336262
-0.00032949
-0.000322302
-0.000314681
-0.000306605
-0.000298053
-0.000289001
-0.000279425
-0.000269296
-0.000258585
-0.000247262
-0.000235291
-0.000222636
-0.000209256
-0.00019511
-0.000180149
-0.000164324
-0.000147581
-0.000129862
-0.000111102
-9.12342e-05
-7.01839e-05
-4.78716e-05