/*--------------------------------*- C++ -*----------------------------------*\
  =========                 |
  \\      /  F ield         | OpenFOAM: The Open Source CFD Toolbox
   \\    /   O peration     | Website:  https://openfoam.org
    \\  /    A nd           | Version:  8
     \\/     M anipulation  |
\*---------------------------------------------------------------------------*/
FoamFile
{
    version     2.0;
    format      ascii;
    class       volScalarField;
    location    "54";
    object      p;
}
// * * * * * * * * * * * * * * * * * * * * * * * * * * * * * * * * * * * * * //

dimensions      [0 2 -2 0 0 0 0];

internalField   nonuniform List<scalar> 
116
(
2.23813e-07
-0.00111978
-0.00168231
-0.00342684
0.00129645
-0.00862041
-2.66641e-05
-0.000902096
-0.000444787
-0.00415651
-0.00169271
-0.00307215
0.000965827
-5.84722e-05
-0.000463826
-0.00307651
-0.00569505
-0.00823949
0.00168606
0.00110171
-0.000130632
-0.00337217
-0.00738831
-0.00903639
0.00187124
0.00126999
-0.000503217
-0.00437236
-0.00912217
-0.0109348
0.00117922
0.000868495
-0.000910752
-0.0043592
-0.00897688
-0.0107987
0.00135751
0.000903271
-0.000531216
-0.00385341
-0.00835601
-0.0111042
0.000357126
0.00105272
0.000511293
-0.0017187
-0.00507563
-0.00749478
0.00172637
0.00106216
0.00247938
0.000550971
-0.00245106
-0.00539406
-0.00352785
0.00444854
0.00457443
0.00309364
-0.000419818
-0.00271316
0.00237957
0.011026
0.00951534
0.0152643
-0.00217718
0.00186053
0.00501362
0.00858715
-0.0089116
-0.00623823
-0.00245971
0.000899941
-0.0100621
-0.00887248
-0.00706108
-0.00386585
-0.0114063
-0.0104641
-0.00969304
-0.00665277
-0.0115724
-0.0101908
-0.0101075
-0.00661083
-0.0118698
-0.00992954
-0.0107244
-0.00335496
-0.00758709
-0.00549368
-0.0043463
0.00657694
-0.00730899
-0.00495499
-0.00274402
0.014749
-0.00280499
0.00438728
0.0185443
0.0556694
0.0191295
0.0181671
0.0179946
0.0212812
0.0169476
0.0170856
0.0151155
0.0173608
0.013241
0.0139586
0.0119728
0.0129999
0.00963693
0.017275
0.0103429
0.0150854
)
;

boundaryField
{
    movingWall
    {
        type            zeroGradient;
    }
    fixedWalls
    {
        type            zeroGradient;
    }
    frontAndBack
    {
        type            empty;
    }
}


// ************************************************************************* //
