0 	-1.12626e-08
1.57135 	-0.00038054
3.1427 	-0.000615328
4.71405 	-0.00314884
6.28539 	-0.00783917
7.85674 	-0.0106735
9.42809 	-0.00921627
10.9994 	-0.00514811
12.5708 	0.0182818
14.1421 	0.0551377
