0 	0 	0 	0
1.57135 	0.00543881 	-0.0116001 	0
3.1427 	-0.037943 	0.0367746 	0
4.71405 	-0.0706988 	0.0969273 	0
6.28539 	-0.0422869 	0.0894254 	0
7.85674 	0.00264333 	0.0344254 	0
9.42809 	0.0425816 	-0.0108016 	0
10.9994 	0.0578983 	-0.0467157 	0
12.5708 	0.12101 	-0.109087 	0
14.1421 	0.5 	0 	0
