# Force coefficients
# liftDir     : (0.000000e+00 1.000000e+00 0.000000e+00)
# dragDir     : (1.000000e+00 0.000000e+00 0.000000e+00)
# pitchAxis   : (0.000000e+00 0.000000e+00 1.000000e+00)
# magUInf     : 1.000000e+00
# lRef        : 1.000000e+00
# Aref        : 1.000000e+00
# CofR        : (0.000000e+00 0.000000e+00 0.000000e+00)
# Time        	Cm            	Cd            	Cl            	Cl(f)         	Cl(r)         
0             	0.000000e+00	0.000000e+00	0.000000e+00	0.000000e+00	0.000000e+00
1             	-2.448928e-06	3.772384e-01	1.777026e-04	8.640236e-05	9.130022e-05
2             	9.386588e-04	-1.492336e+02	-3.692200e-02	-1.752234e-02	-1.939966e-02
3             	-3.398455e-01	6.763610e+04	1.858077e+01	8.950541e+00	9.630232e+00
