# Force coefficients
# liftDir     : (0.000000e+00 1.000000e+00 0.000000e+00)
# dragDir     : (1.000000e+00 0.000000e+00 0.000000e+00)
# pitchAxis   : (0.000000e+00 0.000000e+00 1.000000e+00)
# magUInf     : 1.000000e+00
# lRef        : 1.000000e+00
# Aref        : 1.000000e+00
# CofR        : (0.000000e+00 0.000000e+00 0.000000e+00)
# Time        	Cm            	Cd            	Cl            	Cl(f)         	Cl(r)         
0             	0.000000e+00	0.000000e+00	0.000000e+00	0.000000e+00	0.000000e+00
0.001         	-3.478565e-07	6.797769e+02	4.045645e-03	2.022475e-03	2.023170e-03
0.002         	1.976379e-06	-2.336317e+00	-4.451407e-03	-2.223727e-03	-2.227680e-03
0.003         	2.117108e-07	7.252705e-01	5.122702e-06	2.773062e-06	2.349640e-06
0.004         	-2.219596e-08	6.639389e-01	-2.101672e-05	-1.053055e-05	-1.048616e-05
0.005         	-1.140948e-07	6.104750e-01	1.834956e-05	9.060683e-06	9.288873e-06
0.006         	-1.030149e-07	5.709264e-01	-2.674119e-05	-1.347361e-05	-1.326758e-05
0.007         	-7.379423e-08	5.400030e-01	2.811632e-05	1.398436e-05	1.413195e-05
0.008         	-8.512708e-08	5.155133e-01	-2.313429e-05	-1.165227e-05	-1.148202e-05
0.009         	-9.103392e-08	4.956290e-01	1.299134e-05	6.404634e-06	6.586702e-06
0.01          	-9.821472e-08	4.788520e-01	-6.840820e-06	-3.518625e-06	-3.322195e-06
0.011         	-9.873318e-08	4.645042e-01	8.749130e-06	4.275832e-06	4.473298e-06
0.012         	-1.008490e-07	4.519321e-01	-1.175847e-06	-6.887727e-07	-4.870747e-07
0.013         	-9.398999e-08	4.408616e-01	5.082406e-06	2.447213e-06	2.635193e-06
0.014         	-8.688079e-08	4.311360e-01	1.171655e-06	4.989469e-07	6.727085e-07
0.015         	-8.076484e-08	4.225915e-01	3.285340e-06	1.561905e-06	1.723435e-06
0.016         	-7.445529e-08	4.150407e-01	2.385775e-06	1.118432e-06	1.267343e-06
0.017         	-6.227206e-08	4.084157e-01	3.150293e-06	1.512874e-06	1.637419e-06
0.018         	-5.925597e-08	4.025321e-01	2.389377e-06	1.135433e-06	1.253944e-06
0.019         	-5.579181e-08	3.972850e-01	2.728397e-06	1.308407e-06	1.419990e-06
0.02          	-5.168319e-08	3.925956e-01	2.627352e-06	1.261993e-06	1.365359e-06
0.021         	-5.074130e-08	3.883355e-01	3.275344e-06	1.586931e-06	1.688413e-06
0.022         	-4.472687e-08	3.843985e-01	3.188185e-06	1.549365e-06	1.638819e-06
0.023         	-3.924586e-08	3.807253e-01	3.377118e-06	1.649313e-06	1.727805e-06
0.024         	-3.388335e-08	3.772247e-01	3.396508e-06	1.664370e-06	1.732137e-06
0.025         	-2.855016e-08	3.738510e-01	3.513128e-06	1.728014e-06	1.785114e-06
0.026         	-2.373275e-08	3.705637e-01	3.565109e-06	1.758822e-06	1.806287e-06
0.027         	-1.887315e-08	3.673474e-01	3.557497e-06	1.759875e-06	1.797622e-06
0.028         	-1.423694e-08	3.641946e-01	3.612516e-06	1.792021e-06	1.820495e-06
0.029         	-1.016755e-08	3.611131e-01	3.554395e-06	1.767030e-06	1.787365e-06
0.03          	-5.859022e-09	3.581097e-01	3.608700e-06	1.798491e-06	1.810209e-06
0.031         	-2.088370e-09	3.551831e-01	3.584192e-06	1.790007e-06	1.794184e-06
0.032         	1.707503e-09	3.523452e-01	3.586049e-06	1.794732e-06	1.791317e-06
0.033         	5.140281e-09	3.496075e-01	3.574568e-06	1.792424e-06	1.782144e-06
0.034         	8.477086e-09	3.469745e-01	3.565244e-06	1.791099e-06	1.774145e-06
0.035         	1.172154e-08	3.444454e-01	3.531348e-06	1.777395e-06	1.753952e-06
0.036         	1.501970e-08	3.420270e-01	3.495561e-06	1.762800e-06	1.732761e-06
0.037         	1.827573e-08	3.397266e-01	3.431360e-06	1.733956e-06	1.697404e-06
0.038         	2.119992e-08	3.375441e-01	3.360420e-06	1.701410e-06	1.659010e-06
0.039         	2.370881e-08	3.354738e-01	3.297223e-06	1.672320e-06	1.624902e-06
0.04          	2.593133e-08	3.335053e-01	3.217913e-06	1.634888e-06	1.583025e-06
0.041         	2.776278e-08	3.316297e-01	3.129342e-06	1.592434e-06	1.536908e-06
0.042         	2.929798e-08	3.298410e-01	3.031031e-06	1.544814e-06	1.486218e-06
0.043         	3.048167e-08	3.281390e-01	2.910532e-06	1.485747e-06	1.424784e-06
0.044         	3.142305e-08	3.265234e-01	2.823681e-06	1.443263e-06	1.380417e-06
0.045         	3.189266e-08	3.249890e-01	2.738255e-06	1.401020e-06	1.337235e-06
0.046         	3.250878e-08	3.235304e-01	2.616730e-06	1.340874e-06	1.275856e-06
0.047         	3.268005e-08	3.221416e-01	2.534974e-06	1.300167e-06	1.234807e-06
0.048         	3.262289e-08	3.208177e-01	2.432134e-06	1.248690e-06	1.183444e-06
0.049         	3.265163e-08	3.195544e-01	2.384745e-06	1.225024e-06	1.159721e-06
0.05          	3.221084e-08	3.183467e-01	2.289661e-06	1.177041e-06	1.112619e-06
0.051         	3.220855e-08	3.171894e-01	2.287756e-06	1.176086e-06	1.111669e-06
0.052         	2.272958e-08	3.160769e-01	1.429825e-06	7.376420e-07	6.921828e-07
0.053         	2.240630e-08	3.150135e-01	1.378551e-06	7.116818e-07	6.668692e-07
0.054         	2.359042e-08	3.139857e-01	1.582232e-06	8.147066e-07	7.675258e-07
0.055         	2.259779e-08	3.129836e-01	1.839041e-06	9.421182e-07	8.969226e-07
0.056         	2.084968e-08	3.120048e-01	1.542220e-06	7.919595e-07	7.502601e-07
0.057         	1.880041e-08	3.110520e-01	1.476893e-06	7.572467e-07	7.196459e-07
0.058         	6.707361e-09	3.101281e-01	3.103159e-07	1.618653e-07	1.484506e-07
0.059         	1.326070e-08	3.092362e-01	1.223353e-06	6.249371e-07	5.984157e-07
0.06          	1.303212e-08	3.083509e-01	1.376773e-06	7.014187e-07	6.753545e-07
0.061         	8.485007e-09	3.074857e-01	9.682090e-07	4.925895e-07	4.756195e-07
0.062         	6.557618e-09	3.066348e-01	1.116224e-06	5.646697e-07	5.515544e-07
0.063         	3.633703e-09	3.057951e-01	8.783525e-07	4.428099e-07	4.355425e-07
0.064         	8.727164e-10	3.049645e-01	9.182484e-07	4.599969e-07	4.582515e-07
0.065         	-1.784407e-09	3.041405e-01	7.952849e-07	3.958580e-07	3.994268e-07
0.066         	-4.690584e-09	3.033192e-01	6.789226e-07	3.347707e-07	3.441519e-07
0.067         	-7.487257e-09	3.024944e-01	6.497454e-07	3.173854e-07	3.323600e-07
0.068         	-1.031181e-08	3.016626e-01	5.638581e-07	2.716172e-07	2.922408e-07
0.069         	-1.312364e-08	3.008219e-01	5.301500e-07	2.519513e-07	2.781986e-07
0.07          	-1.606380e-08	2.999750e-01	4.619278e-07	2.149001e-07	2.470277e-07
0.071         	-1.866987e-08	2.991226e-01	4.185946e-07	1.906274e-07	2.279672e-07
0.072         	-2.127188e-08	2.982643e-01	3.772699e-07	1.673630e-07	2.099068e-07
0.073         	-2.395086e-08	2.973988e-01	3.218204e-07	1.369593e-07	1.848611e-07
0.074         	-2.659875e-08	2.965171e-01	2.927326e-07	1.197676e-07	1.729651e-07
0.075         	-2.908928e-08	2.956143e-01	2.664874e-07	1.041544e-07	1.623330e-07
0.076         	-3.147073e-08	2.946876e-01	2.413435e-07	8.920103e-08	1.521425e-07
0.077         	-3.393293e-08	2.937389e-01	1.949108e-07	6.352248e-08	1.313883e-07
0.078         	-3.603761e-08	2.927716e-01	2.013139e-07	6.461934e-08	1.366946e-07
0.079         	-3.825392e-08	2.917872e-01	1.766012e-07	5.004670e-08	1.265545e-07
0.08          	-4.037268e-08	2.907877e-01	1.825789e-07	5.091677e-08	1.316621e-07
0.081         	-4.220217e-08	2.897763e-01	1.652462e-07	4.042093e-08	1.248253e-07
0.082         	-4.415727e-08	2.887576e-01	1.522227e-07	3.195405e-08	1.202686e-07
0.083         	-4.597348e-08	2.877411e-01	1.194771e-07	1.376509e-08	1.057121e-07
0.084         	-4.734806e-08	2.867468e-01	5.379208e-07	2.216124e-07	3.163085e-07
0.085         	-4.899878e-08	2.855078e-01	-6.892887e-07	-3.936431e-07	-2.956456e-07
0.086         	-5.031660e-08	2.843926e-01	3.759389e-07	1.376528e-07	2.382860e-07
0.087         	-5.158803e-08	2.832938e-01	1.358400e-07	1.633199e-08	1.195080e-07
0.088         	-5.271589e-08	2.820424e-01	1.174002e-07	5.984200e-09	1.114160e-07
0.089         	-5.386138e-08	2.810340e-01	2.036410e-07	4.795914e-08	1.556819e-07
0.09          	-5.546978e-08	2.799316e-01	2.410057e-07	6.503308e-08	1.759726e-07
0.091         	-5.423733e-08	2.788484e-01	-2.617537e-07	-1.851142e-07	-7.663951e-08
0.092         	-5.661179e-08	2.777141e-01	1.215627e-07	4.169535e-09	1.173931e-07
0.093         	-5.584246e-08	2.765633e-01	-2.085843e-07	-1.601346e-07	-4.844970e-08
0.094         	-5.783257e-08	2.754265e-01	2.500160e-07	6.717542e-08	1.828406e-07
0.095         	-5.805586e-08	2.743524e-01	8.636240e-08	-1.487466e-08	1.012371e-07
0.096         	-5.839366e-08	2.732861e-01	2.263849e-07	5.479877e-08	1.715861e-07
0.097         	-5.863405e-08	2.722313e-01	1.398814e-07	1.130663e-08	1.285747e-07
0.098         	-5.876418e-08	2.711905e-01	2.298332e-07	5.615243e-08	1.736808e-07
0.099         	-5.879843e-08	2.701659e-01	1.978705e-07	4.013680e-08	1.577337e-07
0.1           	-5.878931e-08	2.691586e-01	1.965859e-07	3.950366e-08	1.570823e-07
0.101         	-5.841181e-08	2.681616e-01	3.058968e-07	9.453661e-08	2.113602e-07
0.102         	-5.852234e-08	2.671755e-01	9.808119e-08	-9.481740e-09	1.075629e-07
0.103         	-5.825728e-08	2.662095e-01	5.841157e-07	2.338006e-07	3.503151e-07
0.104         	-5.882044e-08	2.652695e-01	3.293279e-07	1.058435e-07	2.234844e-07
0.105         	-5.638940e-08	2.643523e-01	7.178869e-07	3.025540e-07	4.153328e-07
0.106         	-5.669905e-08	2.634935e-01	1.125073e-06	5.058373e-07	6.192354e-07
0.107         	-5.624935e-08	2.627650e-01	2.405810e-06	1.146656e-06	1.259155e-06
