/*--------------------------------*- C++ -*----------------------------------*\
  =========                 |
  \\      /  F ield         | OpenFOAM: The Open Source CFD Toolbox
   \\    /   O peration     | Website:  https://openfoam.org
    \\  /    A nd           | Version:  8
     \\/     M anipulation  |
\*---------------------------------------------------------------------------*/
FoamFile
{
    version     2.0;
    format      ascii;
    class       volScalarField;
    location    "3";
    object      T;
}
// * * * * * * * * * * * * * * * * * * * * * * * * * * * * * * * * * * * * * //

dimensions      [0 0 0 1 0 0 0];

internalField   nonuniform List<scalar> 
116
(
2.16816e-11
2.16771e-11
2.16765e-11
2.16764e-11
2.16761e-11
2.16619e-11
6.86368e-10
6.86254e-10
6.86239e-10
6.86237e-10
6.86237e-10
6.86236e-10
2.01841e-08
2.01815e-08
2.01812e-08
2.01812e-08
2.01812e-08
2.01812e-08
5.29919e-07
5.29868e-07
5.29862e-07
5.29861e-07
5.29861e-07
5.29861e-07
1.22325e-05
1.22317e-05
1.22316e-05
1.22316e-05
1.22315e-05
1.22315e-05
0.000243398
0.000243387
0.000243386
0.000243386
0.000243386
0.000243386
0.0040644
0.00406429
0.00406428
0.00406428
0.00406428
0.00406428
0.0548327
0.054832
0.0548319
0.0548319
0.0548319
0.0548319
0.563908
0.563906
0.563905
0.563905
0.563905
0.563905
4.00333
4.00333
4.00333
4.00333
4.00333
4.00333
2.10994e-11
2.10855e-11
2.10852e-11
2.10852e-11
6.86222e-10
6.86222e-10
6.86222e-10
6.86222e-10
2.01812e-08
2.01812e-08
2.01812e-08
2.01812e-08
5.29861e-07
5.29861e-07
5.29861e-07
5.29861e-07
1.22315e-05
1.22315e-05
1.22315e-05
1.22316e-05
0.000243386
0.000243386
0.000243386
0.000243386
0.00406428
0.00406428
0.00406428
0.00406428
0.0548319
0.0548319
0.0548319
0.0548319
0.563905
0.563905
0.563905
0.563905
4.00333
4.00333
4.00333
4.00333
8.27601e-18
8.27231e-18
8.27204e-18
8.27232e-18
3.64143e-16
3.63976e-16
3.63965e-16
3.63977e-16
1.52407e-14
1.52333e-14
1.52329e-14
1.52334e-14
5.90925e-13
5.90604e-13
5.90591e-13
5.90609e-13
)
;

boundaryField
{
    movingWall
    {
        type            fixedValue;
        value           uniform 10;
    }
    fixedWalls
    {
        type            zeroGradient;
    }
    frontAndBack
    {
        type            empty;
    }
}


// ************************************************************************* //
