/*--------------------------------*- C++ -*----------------------------------*\
  =========                 |
  \\      /  F ield         | OpenFOAM: The Open Source CFD Toolbox
   \\    /   O peration     | Website:  https://openfoam.org
    \\  /    A nd           | Version:  8
     \\/     M anipulation  |
\*---------------------------------------------------------------------------*/
FoamFile
{
    version     2.0;
    format      ascii;
    class       volScalarField;
    location    "58";
    object      p;
}
// * * * * * * * * * * * * * * * * * * * * * * * * * * * * * * * * * * * * * //

dimensions      [0 2 -2 0 0 0 0];

internalField   nonuniform List<scalar> 
116
(
2.5193e-07
-0.00111833
-0.001678
-0.00339352
0.00130291
-0.00853271
-4.33108e-05
-0.000920645
-0.000414576
-0.00412493
-0.00170591
-0.00307925
0.000941274
-9.58457e-05
-0.000489363
-0.00313733
-0.00581701
-0.00834402
0.00168251
0.00109094
-0.000151503
-0.00345768
-0.00759662
-0.00918575
0.00187614
0.00126603
-0.000543311
-0.00449601
-0.00938537
-0.0111278
0.00118558
0.00088067
-0.000942361
-0.00447073
-0.00920412
-0.0109533
0.0013667
0.000913211
-0.000541975
-0.00391363
-0.00847872
-0.011166
0.00037042
0.00107622
0.000524029
-0.00174091
-0.00515802
-0.00753317
0.0017546
0.00109308
0.00249517
0.000553429
-0.00251
-0.00543962
-0.00348154
0.00449955
0.00458198
0.00310388
-0.000477899
-0.00277391
0.00251891
0.0110082
0.00955404
0.0152356
-0.00202325
0.0019853
0.00517108
0.00872584
-0.00898937
-0.00628108
-0.00247
0.000936438
-0.0102179
-0.00901708
-0.00716237
-0.00391052
-0.011564
-0.0106203
-0.00982316
-0.00672426
-0.0116814
-0.0103199
-0.0101881
-0.00666072
-0.0118773
-0.00998452
-0.0107456
-0.0033683
-0.0075973
-0.00553708
-0.00434222
0.00658927
-0.00732972
-0.00499626
-0.00272858
0.0147647
-0.00281284
0.00437878
0.0185687
0.0557198
0.0190724
0.0180968
0.0179147
0.0213252
0.0168307
0.0169432
0.014916
0.0172405
0.0131003
0.0137869
0.0118166
0.0128312
0.0095467
0.0171175
0.0102994
0.0149221
)
;

boundaryField
{
    movingWall
    {
        type            zeroGradient;
    }
    fixedWalls
    {
        type            zeroGradient;
    }
    frontAndBack
    {
        type            empty;
    }
}


// ************************************************************************* //
