0 	4.10246e-09
1.57135 	-1.20456e-05
3.1427 	-7.56358e-05
4.71405 	-0.000245151
6.28539 	-0.000619157
7.85674 	-0.00160313
9.42809 	-0.00373311
10.9994 	-0.00905365
12.5708 	0.00557872
14.1421 	0.0391835
