/*--------------------------------*- C++ -*----------------------------------*\
  =========                 |
  \\      /  F ield         | OpenFOAM: The Open Source CFD Toolbox
   \\    /   O peration     | Website:  https://openfoam.org
    \\  /    A nd           | Version:  8
     \\/     M anipulation  |
\*---------------------------------------------------------------------------*/
FoamFile
{
    version     2.0;
    format      ascii;
    class       volScalarField;
    location    "53";
    object      p;
}
// * * * * * * * * * * * * * * * * * * * * * * * * * * * * * * * * * * * * * //

dimensions      [0 2 -2 0 0 0 0];

internalField   nonuniform List<scalar> 
116
(
8.29278e-08
-0.0011172
-0.00168448
-0.0034509
0.00127099
-0.00865634
-1.5145e-05
-0.000881263
-0.000451562
-0.004173
-0.00169941
-0.00306812
0.000976487
-3.43417e-05
-0.000444335
-0.00306234
-0.00566596
-0.00820253
0.00168545
0.00110748
-0.000125493
-0.00335479
-0.00733207
-0.00898087
0.0018631
0.00126889
-0.000500995
-0.00435335
-0.00906077
-0.0108737
0.0011695
0.00086129
-0.000917154
-0.00435539
-0.00895065
-0.0107837
0.00134342
0.000893459
-0.000543043
-0.00385955
-0.0083629
-0.011116
0.00034525
0.00104133
0.000498305
-0.0017232
-0.0050695
-0.007493
0.00171159
0.00104132
0.0024652
0.000551078
-0.00244124
-0.00539667
-0.00355325
0.00442324
0.00456723
0.00309482
-0.000408494
-0.00271296
0.0023134
0.0110413
0.00950252
0.0152391
-0.00221487
0.00184287
0.00495413
0.00853951
-0.0088905
-0.00623284
-0.00247712
0.000881284
-0.0100156
-0.00883237
-0.00703378
-0.00385054
-0.0113429
-0.0104017
-0.00964567
-0.00662458
-0.0115492
-0.0101476
-0.0100782
-0.00659008
-0.0118664
-0.00989632
-0.0107079
-0.00334307
-0.00757526
-0.00546416
-0.00434685
0.00656085
-0.00730559
-0.0049476
-0.00277404
0.0147204
-0.00280543
0.00438752
0.0185196
0.055643
0.0191476
0.0181723
0.0179934
0.0212727
0.0169643
0.0170929
0.0151301
0.0173742
0.0132485
0.0139666
0.0119991
0.0130358
0.00962534
0.0173124
0.0103727
0.0151151
)
;

boundaryField
{
    movingWall
    {
        type            zeroGradient;
    }
    fixedWalls
    {
        type            zeroGradient;
    }
    frontAndBack
    {
        type            empty;
    }
}


// ************************************************************************* //
