/*--------------------------------*- C++ -*----------------------------------*\
  =========                 |
  \\      /  F ield         | OpenFOAM: The Open Source CFD Toolbox
   \\    /   O peration     | Website:  https://openfoam.org
    \\  /    A nd           | Version:  8
     \\/     M anipulation  |
\*---------------------------------------------------------------------------*/
FoamFile
{
    version     2.0;
    format      ascii;
    class       volVectorField;
    location    "53";
    object      U;
}
// * * * * * * * * * * * * * * * * * * * * * * * * * * * * * * * * * * * * * //

dimensions      [0 1 -1 0 0 0 0];

internalField   nonuniform List<vector> 
116
(
(0.0199143 -0.011732 0)
(0.0178114 -0.0113119 0)
(0.0517077 -0.0206726 0)
(0.0129706 -0.0215615 0)
(0.0119162 0.0635878 0)
(-0.160941 0.0906553 0)
(0.00999865 -0.0282105 0)
(-0.0052779 -0.018054 0)
(-0.0158871 0.0204139 0)
(-0.097546 0.0665902 0)
(-0.113012 0.0932592 0)
(-0.169967 0.0653965 0)
(-0.00293905 -0.0148467 0)
(-0.0326268 0.0174322 0)
(-0.0592392 0.0626837 0)
(-0.10477 0.0932684 0)
(-0.111286 0.120972 0)
(-0.120161 0.0747592 0)
(-0.00989521 0.00527216 0)
(-0.0344049 0.0432012 0)
(-0.0565357 0.0907406 0)
(-0.0846845 0.115897 0)
(-0.0806987 0.113644 0)
(-0.0606822 0.0431242 0)
(-0.00532615 0.0300158 0)
(-0.0258151 0.0631682 0)
(-0.0430712 0.105667 0)
(-0.0509277 0.114788 0)
(-0.0419971 0.09617 0)
(-0.0228945 0.0273681 0)
(-0.00312599 0.0348947 0)
(-0.0104333 0.0806574 0)
(-0.0100262 0.112654 0)
(-0.00854644 0.118211 0)
(-0.00512308 0.0955522 0)
(0.00325695 0.0357242 0)
(0.00170236 0.0478477 0)
(0.00294858 0.0726164 0)
(0.00297841 0.105765 0)
(0.0180853 0.105247 0)
(0.0274467 0.0802651 0)
(0.0448406 0.032624 0)
(0.0073336 0.0259556 0)
(0.0146332 0.0793911 0)
(0.038675 0.0948138 0)
(0.0639276 0.0975781 0)
(0.0758703 0.0765856 0)
(0.0936962 0.0459288 0)
(-0.0570536 0.0329214 0)
(-0.0193397 0.036887 0)
(-0.00888952 0.0572733 0)
(0.0395855 0.0632651 0)
(0.0615619 0.0467675 0)
(0.0924039 0.0328031 0)
(0.0526408 0.0905117 0)
(0.0839782 0.0421821 0)
(0.115594 0.0330738 0)
(0.179249 0.0299438 0)
(0.199418 0.0254955 0)
(0.252145 0.0223819 0)
(-0.112743 0.118013 0)
(-0.115116 -0.0342189 0)
(-0.0301292 -0.000516616 0)
(-0.00680492 -0.136383 0)
(-0.108361 0.0823311 0)
(-0.112781 -0.0709839 0)
(-0.0865558 -0.076049 0)
(0.00529731 -0.174623 0)
(-0.0772733 0.0580268 0)
(-0.0529522 -0.0638753 0)
(-0.0751998 -0.117059 0)
(0.000479266 -0.219926 0)
(-0.0439269 0.0290444 0)
(-0.0104877 -0.0660833 0)
(-0.0469385 -0.121906 0)
(0.0090654 -0.242693 0)
(-0.0322144 0.00676814 0)
(0.0060443 -0.0686883 0)
(-0.0409694 -0.136829 0)
(0.0123789 -0.265985 0)
(-0.0158927 0.00301538 0)
(0.0311839 -0.0558812 0)
(-0.0263542 -0.119948 0)
(0.0201527 -0.272349 0)
(0.022747 -0.021418 0)
(0.0507812 -0.0659486 0)
(-0.0229241 -0.134208 0)
(0.0278638 -0.277763 0)
(0.0735986 0.00464159 0)
(0.0722839 -0.00876461 0)
(0.00966302 -0.0784446 0)
(0.0510478 -0.251794 0)
(0.0873563 -0.000466148 0)
(0.0936412 -0.0167436 0)
(0.0688544 -0.121481 0)
(0.0806199 -0.252831 0)
(0.24798 0.0141522 0)
(0.273784 0.00277227 0)
(0.215505 -0.0234832 0)
(0.152652 -0.0677768 0)
(-0.0222731 0.00465877 0)
(-0.0583465 0.00409555 0)
(-0.0723718 -0.00105639 0)
(-0.0433117 -0.0361932 0)
(-0.0195091 0.0730657 0)
(-0.0463637 0.0460422 0)
(-0.0426514 -0.00742955 0)
(-0.0429222 -0.0870472 0)
(-0.0363623 0.07116 0)
(-0.00529482 0.0169143 0)
(-0.0143655 0.00316574 0)
(-0.0315403 -0.128231 0)
(-0.00793081 0.1231 0)
(-0.0436248 0.0283368 0)
(0.0299422 0.0236873 0)
(-0.0347839 -0.122087 0)
)
;

boundaryField
{
    movingWall
    {
        type            fixedValue;
        value           uniform (1 0 0);
    }
    fixedWalls
    {
        type            noSlip;
    }
    frontAndBack
    {
        type            empty;
    }
}


// ************************************************************************* //
