/*--------------------------------*- C++ -*----------------------------------*\
  =========                 |
  \\      /  F ield         | OpenFOAM: The Open Source CFD Toolbox
   \\    /   O peration     | Website:  https://openfoam.org
    \\  /    A nd           | Version:  8
     \\/     M anipulation  |
\*---------------------------------------------------------------------------*/
FoamFile
{
    version     2.0;
    format      ascii;
    class       surfaceScalarField;
    location    "60";
    object      phi;
}
// * * * * * * * * * * * * * * * * * * * * * * * * * * * * * * * * * * * * * //

dimensions      [0 3 -1 0 0 0 0];

internalField   nonuniform List<scalar> 
208
(
2.01073e-05
-2.01073e-05
3.43894e-05
-1.42822e-05
3.43688e-05
2.06258e-08
1.09171e-05
2.34517e-05
-6.88848e-05
7.98019e-05
7.37581e-05
-0.000142643
2.99259e-06
-2.30999e-05
-1.10481e-05
-2.41495e-07
-5.43493e-05
4.33218e-05
-0.00011043
7.95328e-05
-0.000140063
0.000109435
7.319e-05
-0.000139495
-1.7188e-05
-5.91191e-06
-4.74031e-05
2.99737e-05
-8.1605e-05
7.75237e-05
-0.000109213
0.000107141
-0.000115706
0.000115927
5.61517e-05
-9.86679e-05
-2.26297e-05
1.67178e-05
-4.67001e-05
5.4044e-05
-7.04188e-05
0.000101242
-8.2054e-05
0.000118776
-7.29903e-05
0.000106864
3.50534e-05
-5.1892e-05
-1.62975e-05
3.30153e-05
-3.55937e-05
7.33403e-05
-4.67356e-05
0.000112384
-4.54924e-05
0.000117533
-3.34771e-05
9.48486e-05
2.90243e-05
-2.74481e-05
-7.33535e-06
4.03507e-05
-1.03881e-05
7.63931e-05
-8.61272e-06
0.000110609
-5.60739e-06
0.000114528
1.63568e-07
8.90776e-05
3.39454e-05
-4.75746e-06
2.00422e-06
3.83464e-05
2.80427e-06
7.5593e-05
1.16196e-05
0.000101794
2.47972e-05
0.00010135
3.74826e-05
7.63922e-05
3.64369e-05
3.4991e-05
1.04735e-05
2.78729e-05
2.59524e-05
6.01141e-05
5.21464e-05
7.55996e-05
7.20022e-05
8.14944e-05
8.65839e-05
6.18105e-05
3.95595e-05
8.34613e-05
-3.69078e-05
6.47807e-05
-1.47425e-05
3.79488e-05
1.66399e-05
4.42172e-05
5.23956e-05
4.57388e-05
7.87617e-05
3.54443e-05
2.63214e-05
9.19998e-05
6.47807e-05
0.00010273
0.000146947
0.000192685
0.00022813
0.000254451
-0.000116584
9.63817e-05
-0.000122441
-6.74758e-05
-4.97949e-05
6.86852e-07
-1.91306e-05
-3.66842e-05
-1.1661e-05
-0.000152546
0.000133415
-0.000114747
7.16337e-05
-9.91803e-05
-6.53617e-05
-4.14795e-05
-9.43849e-05
-0.000194025
-6.8517e-05
4.14828e-05
-6.72066e-05
-6.66721e-05
-3.92564e-05
-0.000122335
-0.000233281
-2.83694e-05
1.79602e-05
-2.83605e-05
-6.6681e-05
-2.02483e-05
-0.000130447
-0.00025353
-1.35787e-05
4.09086e-06
-1.66715e-05
-6.35882e-05
-1.53182e-05
-0.000131801
-0.000268848
7.94133e-06
-8.60794e-06
3.54994e-06
-5.91969e-05
-3.45247e-06
-0.000124798
-0.0002723
3.56524e-05
-9.2693e-06
1.58811e-05
-3.94256e-05
2.05047e-06
-0.000110968
-0.00027025
7.15097e-05
2.68231e-06
4.37531e-05
-1.1669e-05
2.77982e-05
-9.50126e-05
-0.000242452
8.86161e-05
6.06606e-06
8.55931e-05
-8.64605e-06
6.95769e-05
-7.89964e-05
-0.000172875
0.000260517
0.000251871
0.000172875
-3.99163e-05
3.99163e-05
-6.53816e-05
2.54653e-05
-6.17468e-05
-3.63484e-06
-6.17468e-05
-3.42811e-05
7.41975e-05
-4.35391e-05
3.47232e-05
-4.51052e-05
-2.06869e-06
-0.000106852
-2.10383e-05
9.52358e-05
-8.69713e-06
2.23821e-05
-2.38343e-05
1.30685e-05
-0.000130686
-2.7205e-05
-4.13606e-06
-2.72858e-06
)
;

boundaryField
{
    movingWall
    {
        type            calculated;
        value           uniform 0;
    }
    fixedWalls
    {
        type            calculated;
        value           uniform 0;
    }
    frontAndBack
    {
        type            empty;
        value           nonuniform List<scalar> 0();
    }
}


// ************************************************************************* //
