/*--------------------------------*- C++ -*----------------------------------*\
  =========                 |
  \\      /  F ield         | OpenFOAM: The Open Source CFD Toolbox
   \\    /   O peration     | Website:  https://openfoam.org
    \\  /    A nd           | Version:  8
     \\/     M anipulation  |
\*---------------------------------------------------------------------------*/
FoamFile
{
    version     2.0;
    format      ascii;
    class       volScalarField;
    location    "0.29";
    object      p;
}
// * * * * * * * * * * * * * * * * * * * * * * * * * * * * * * * * * * * * * //

dimensions      [0 2 -2 0 0 0 0];

internalField   nonuniform List<scalar> 
400
(
3.64549e-06
-0.00582265
-0.0129591
-0.0184103
-0.0204271
-0.0182331
-0.0117689
-0.00147948
0.0118404
0.0271508
0.0432445
0.0588218
0.0725763
0.0833054
0.0900496
0.0922642
0.090024
0.0842433
0.0768814
0.0710688
0.00578115
-0.000216939
-0.00580178
-0.00953963
-0.0105955
-0.00842909
-0.00296645
0.00547716
0.0163052
0.0287131
0.0417503
0.0543857
0.0655855
0.0744086
0.080119
0.0823148
0.081077
0.0770555
0.0712758
0.0653205
0.0133339
0.00503375
-0.000994246
-0.00442136
-0.00527071
-0.00326148
0.00160481
0.00902985
0.0185039
0.0293507
0.0407663
0.05187
0.0617685
0.0696362
0.0748069
0.0768783
0.0758425
0.0720876
0.0658082
0.0575394
0.0201368
0.00869507
0.00122614
-0.00266751
-0.0037206
-0.0018835
0.00273321
0.00978649
0.0187821
0.0290965
0.0399932
0.0506549
0.0602336
0.0679166
0.073004
0.0750026
0.0737675
0.0694586
0.0616067
0.0501078
0.0244986
0.00977169
0.000589626
-0.00398627
-0.00530104
-0.00350578
0.00117651
0.00833644
0.0174639
0.0279509
0.0390867
0.0500714
0.0600502
0.0681664
0.0736278
0.0757996
0.0743714
0.069293
0.05953
0.0445434
0.0251744
0.0071486
-0.00380218
-0.00905655
-0.0105109
-0.00849829
-0.00335483
0.00443161
0.0143157
0.0256814
0.0378161
0.0499055
0.0610502
0.0703051
0.0767368
0.0795194
0.0781419
0.0723374
0.0605443
0.0418969
0.0210907
-0.000263289
-0.0129343
-0.0187083
-0.0200282
-0.0174118
-0.0113158
-0.00231689
0.00899342
0.0219793
0.0359127
0.0499474
0.0631151
0.0743481
0.0825247
0.0865725
0.0857242
0.0794513
0.0656257
0.0430788
0.0111414
-0.0136181
-0.027874
-0.0338525
-0.0346012
-0.0308546
-0.0232095
-0.0123415
0.00110875
0.0164879
0.0330566
0.0499376
0.0660872
0.0802935
0.0912042
0.0974336
0.0978742
0.0916405
0.0759017
0.0491233
-0.00596659
-0.034265
-0.0498679
-0.055546
-0.055087
-0.0495109
-0.0395893
-0.0261087
-0.00975219
0.00882807
0.0289061
0.0495985
0.0698022
0.088159
0.103052
0.112705
0.115555
0.110196
0.0928394
0.0614176
-0.0318542
-0.063873
-0.0804135
-0.0850035
-0.082416
-0.0740737
-0.0609758
-0.0440311
-0.0239456
-0.00133081
0.0231517
0.048667
0.0741013
0.0979775
0.118401
0.13313
0.139993
0.136822
0.118445
0.081939
-0.0686619
-0.104598
-0.12134
-0.123585
-0.11751
-0.105121
-0.0877124
-0.0663191
-0.0416303
-0.0141486
0.0156125
0.04696
0.0788622
0.109799
0.137629
0.159591
0.172731
0.173782
0.155525
0.113575
-0.119395
-0.15935
-0.174909
-0.172751
-0.161142
-0.142923
-0.119752
-0.0927701
-0.0625701
-0.02944
0.00638075
0.0444809
0.0840622
0.12371
0.161142
0.193091
0.215673
0.224081
0.208054
0.160635
-0.188619
-0.232234
-0.243932
-0.233942
-0.213688
-0.187148
-0.156366
-0.122494
-0.0858902
-0.0464642
-0.00400643
0.0415466
0.0898495
0.139836
0.189325
0.234694
0.271079
0.291668
0.281745
0.229777
-0.283964
-0.329296
-0.331824
-0.308273
-0.274702
-0.236434
-0.195758
-0.153603
-0.109832
-0.063737
-0.0144297
0.0388714
0.0965617
0.158283
0.22238
0.285293
0.341401
0.381578
0.384916
0.331835
-0.419308
-0.459663
-0.442343
-0.395786
-0.342123
-0.287734
-0.23461
-0.182923
-0.131602
-0.0789768
-0.0232057
0.0374833
0.104561
0.178844
0.259867
0.344975
0.42862
0.499703
0.529677
0.485391
-0.620522
-0.636736
-0.578671
-0.494188
-0.411236
-0.335653
-0.267775
-0.205971
-0.147529
-0.0893751
-0.0284179
0.0383563
0.113814
0.200478
0.299981
0.41203
0.533033
0.651778
0.732773
0.722395
-0.935915
-0.878508
-0.741736
-0.597944
-0.474389
-0.372655
-0.288864
-0.217757
-0.153947
-0.0924566
-0.0287095
0.0417034
0.123271
0.220725
0.338931
0.482159
0.652
0.841344
1.01527
1.0975
-1.47642
-1.20663
-0.920499
-0.691385
-0.517303
-0.387541
-0.290058
-0.213333
-0.148118
-0.0872089
-0.0245703
0.045465
0.128945
0.233078
0.367109
0.542683
0.771297
1.05932
1.40329
1.73014
-2.53964
-1.63054
-1.04444
-0.710958
-0.49575
-0.352092
-0.254529
-0.18358
-0.126165
-0.0735893
-0.0192621
0.0427944
0.11922
0.21879
0.354819
0.547989
0.826397
1.23658
1.91168
2.92419
-4.36666
-2.04463
-0.973541
-0.563181
-0.357848
-0.240148
-0.17012
-0.123782
-0.087478
-0.0535051
-0.0166476
0.0276687
0.0846162
0.161738
0.272419
0.442106
0.718225
1.22571
2.41104
4.84853
)
;

boundaryField
{
    movingWall
    {
        type            zeroGradient;
    }
    fixedWalls
    {
        type            zeroGradient;
    }
    frontAndBack
    {
        type            empty;
    }
}


// ************************************************************************* //
