/*--------------------------------*- C++ -*----------------------------------*\
  =========                 |
  \\      /  F ield         | OpenFOAM: The Open Source CFD Toolbox
   \\    /   O peration     | Website:  https://openfoam.org
    \\  /    A nd           | Version:  8
     \\/     M anipulation  |
\*---------------------------------------------------------------------------*/
FoamFile
{
    version     2.0;
    format      ascii;
    class       surfaceScalarField;
    location    "0.29";
    object      phi;
}
// * * * * * * * * * * * * * * * * * * * * * * * * * * * * * * * * * * * * * //

dimensions      [0 3 -1 0 0 0 0];

internalField   nonuniform List<scalar> 
760
(
1.42321e-08
-1.42627e-08
-2.22083e-08
3.64407e-08
-1.14259e-07
9.20504e-08
-2.4547e-07
1.31211e-07
-3.96059e-07
1.50588e-07
-5.4731e-07
1.51252e-07
-6.8312e-07
1.3581e-07
-7.9058e-07
1.0746e-07
-8.60116e-07
6.95363e-08
-8.85547e-07
2.54311e-08
-8.64229e-07
-2.13187e-08
-7.97305e-07
-6.69232e-08
-6.90014e-07
-1.07291e-07
-5.51918e-07
-1.38097e-07
-3.96906e-07
-1.55012e-07
-2.42728e-07
-1.54178e-07
-1.09725e-07
-1.33003e-07
-1.84164e-08
-9.13089e-08
1.56872e-08
-3.41038e-08
1.5687e-08
-3.42114e-08
1.99483e-08
-1.80357e-07
1.82586e-07
-4.33948e-07
3.45641e-07
-7.64362e-07
4.61625e-07
-1.13211e-06
5.18332e-07
-1.4971e-06
5.16249e-07
-1.82316e-06
4.61872e-07
-2.08034e-06
3.64634e-07
-2.24606e-06
2.3526e-07
-2.30582e-06
8.51909e-08
-2.25369e-06
-7.34519e-08
-2.09285e-06
-2.27758e-07
-1.83609e-06
-3.64053e-07
-1.5059e-06
-4.68284e-07
-1.13398e-06
-5.26937e-07
-7.59456e-07
-5.28703e-07
-4.25365e-07
-4.67094e-07
-1.72679e-07
-3.43995e-07
-3.08002e-08
-1.75982e-07
-1.51132e-08
-9.22189e-08
1.12167e-07
-3.56962e-07
4.4733e-07
-7.64486e-07
7.53165e-07
-1.26837e-06
9.65505e-07
-1.81453e-06
1.06449e-06
-2.34882e-06
1.05054e-06
-2.82216e-06
9.35215e-07
-3.19364e-06
7.36107e-07
-3.43228e-06
4.73905e-07
-3.51818e-06
1.71087e-07
-3.44325e-06
-1.48382e-07
-3.21196e-06
-4.59049e-07
-2.84184e-06
-7.34167e-07
-2.36359e-06
-9.4654e-07
-1.82015e-06
-1.07037e-06
-1.26438e-06
-1.08448e-06
-7.54457e-07
-9.77012e-07
-3.46941e-07
-7.51511e-07
-8.73287e-08
-4.35595e-07
-1.02442e-07
-1.45196e-07
2.57363e-07
-5.25411e-07
8.27544e-07
-1.08153e-06
1.30928e-06
-1.74735e-06
1.63132e-06
-2.4541e-06
1.77124e-06
-3.13608e-06
1.73252e-06
-3.73494e-06
1.53407e-06
-4.20251e-06
1.20368e-06
-4.5025e-06
7.73891e-07
-4.6115e-06
2.80089e-07
-4.51984e-06
-2.4004e-07
-4.23235e-06
-7.46542e-07
-3.76903e-06
-1.19749e-06
-3.16536e-06
-1.55021e-06
-2.47166e-06
-1.76407e-06
-1.75092e-06
-1.80522e-06
-1.07442e-06
-1.65351e-06
-5.15095e-07
-1.31083e-06
-1.39303e-07
-8.11386e-07
-2.41745e-07
-1.93591e-07
4.50955e-07
-6.84939e-07
1.31889e-06
-1.3855e-06
2.00984e-06
-2.20705e-06
2.45287e-06
-3.0652e-06
2.62939e-06
-3.88344e-06
2.55076e-06
-4.5961e-06
2.24674e-06
-5.15013e-06
1.75771e-06
-5.50597e-06
1.12973e-06
-5.63804e-06
4.12157e-07
-5.53528e-06
-3.42795e-07
-5.20193e-06
-1.07989e-06
-4.65849e-06
-1.74093e-06
-3.94263e-06
-2.26607e-06
-3.10945e-06
-2.59725e-06
-2.23032e-06
-2.68435e-06
-1.38953e-06
-2.4943e-06
-6.78445e-07
-2.02192e-06
-1.87752e-07
-1.30208e-06
-4.29497e-07
-2.39921e-07
6.90876e-07
-8.40285e-07
1.91925e-06
-1.68316e-06
2.85272e-06
-2.65686e-06
3.42656e-06
-3.66056e-06
3.6331e-06
-4.60742e-06
3.49762e-06
-5.42595e-06
3.06526e-06
-6.06012e-06
2.39188e-06
-6.46888e-06
1.53849e-06
-6.62557e-06
5.68847e-07
-6.51785e-06
-4.50513e-07
-6.14836e-06
-1.44938e-06
-5.53615e-06
-2.35314e-06
-4.7186e-06
-3.08363e-06
-3.75321e-06
-3.56264e-06
-2.7183e-06
-3.71926e-06
-1.71142e-06
-3.50118e-06
-8.44605e-07
-2.88874e-06
-2.36163e-07
-1.91052e-06
-6.6566e-07
-2.86727e-07
9.77604e-07
-9.97027e-07
2.62955e-06
-1.98197e-06
3.83766e-06
-3.10477e-06
4.54936e-06
-4.24771e-06
4.77604e-06
-5.31451e-06
4.56443e-06
-6.22976e-06
3.98051e-06
-6.93677e-06
3.0989e-06
-7.39506e-06
1.99678e-06
-7.57819e-06
7.51976e-07
-7.47274e-06
-5.55962e-07
-7.07873e-06
-1.84339e-06
-6.41154e-06
-3.02033e-06
-5.5053e-06
-3.98987e-06
-4.41683e-06
-4.6511e-06
-3.22921e-06
-4.90689e-06
-2.05285e-06
-4.67753e-06
-1.02249e-06
-3.9191e-06
-2.88266e-07
-2.64474e-06
-9.53927e-07
-3.36317e-07
1.31392e-06
-1.16033e-06
3.45356e-06
-2.28793e-06
4.96526e-06
-3.55486e-06
5.81629e-06
-4.82643e-06
6.04762e-06
-5.99883e-06
5.73682e-06
-6.99575e-06
4.97743e-06
-7.76321e-06
3.86636e-06
-8.26415e-06
2.49772e-06
-8.47427e-06
9.621e-07
-8.37963e-06
-6.50604e-07
-7.97659e-06
-2.24644e-06
-7.27431e-06
-3.72261e-06
-6.29973e-06
-4.96445e-06
-5.1045e-06
-5.84633e-06
-3.7724e-06
-6.23898e-06
-2.42481e-06
-6.02513e-06
-1.2207e-06
-5.1232e-06
-3.47695e-07
-3.51775e-06
-1.30162e-06
-3.90949e-07
1.70487e-06
-1.33486e-06
4.39747e-06
-2.60492e-06
6.23532e-06
-4.00586e-06
7.21723e-06
-5.38669e-06
7.42845e-06
-6.6396e-06
6.98973e-06
-7.69225e-06
6.03009e-06
-8.49827e-06
4.67237e-06
-9.0282e-06
3.02766e-06
-9.2627e-06
1.1966e-06
-9.18844e-06
-7.24871e-07
-8.79728e-06
-2.63759e-06
-8.08919e-06
-4.4307e-06
-7.07887e-06
-5.97477e-06
-5.80621e-06
-7.119e-06
-4.34896e-06
-7.69623e-06
-2.83476e-06
-7.53933e-06
-1.44706e-06
-6.51089e-06
-4.1809e-07
-4.54672e-06
-1.71971e-06
-4.53452e-07
2.15832e-06
-1.52568e-06
5.4697e-06
-2.93487e-06
7.64452e-06
-4.45009e-06
8.73245e-06
-5.9063e-06
8.88465e-06
-7.19778e-06
8.28121e-06
-8.26362e-06
7.09593e-06
-9.07202e-06
5.48077e-06
-9.60682e-06
3.56246e-06
-9.85754e-06
1.44732e-06
-9.81337e-06
-7.69042e-07
-9.46133e-06
-2.98963e-06
-8.78906e-06
-5.10297e-06
-7.79296e-06
-6.97087e-06
-6.49217e-06
-8.41978e-06
-4.94794e-06
-9.24046e-06
-3.28509e-06
-9.20218e-06
-1.70867e-06
-8.08732e-06
-5.03583e-07
-5.75181e-06
-2.2233e-06
-5.2834e-07
2.68666e-06
-1.73967e-06
6.68103e-06
-3.278e-06
9.18284e-06
-4.87166e-06
1.03261e-05
-6.34706e-06
1.03601e-05
-7.61088e-06
9.54503e-06
-8.62442e-06
8.10947e-06
-9.37975e-06
6.23611e-06
-9.88106e-06
4.06377e-06
-1.01316e-05
1.69786e-06
-1.01258e-05
-7.74796e-07
-9.84639e-06
-3.26909e-06
-9.26604e-06
-5.68333e-06
-8.35637e-06
-7.88054e-06
-7.10472e-06
-9.67143e-06
-5.54071e-06
-1.08045e-05
-3.77071e-06
-1.09722e-05
-2.01217e-06
-9.84586e-06
-6.09689e-07
-7.15429e-06
-2.83298e-06
-6.23676e-07
3.31034e-06
-1.98741e-06
8.04477e-06
-3.63197e-06
1.08274e-05
-5.24202e-06
1.19362e-05
-6.6477e-06
1.17657e-05
-7.78463e-06
1.0682e-05
-8.6512e-06
8.97603e-06
-9.27451e-06
6.85942e-06
-9.68675e-06
4.47601e-06
-9.91003e-06
1.92115e-06
-9.94744e-06
-7.37386e-07
-9.77877e-06
-3.43775e-06
-9.36105e-06
-6.10105e-06
-8.63575e-06
-8.60584e-06
-7.54648e-06
-1.07607e-05
-6.07165e-06
-1.22793e-05
-4.27431e-06
-1.27695e-05
-2.36367e-06
-1.17565e-05
-7.44781e-07
-8.77317e-06
-3.57776e-06
-7.54091e-07
4.06443e-06
-2.2844e-06
9.57507e-06
-3.9871e-06
1.25301e-05
-5.50924e-06
1.34583e-05
-6.7098e-06
1.29663e-05
-7.5788e-06
1.1551e-05
-8.17034e-06
9.56757e-06
-8.55795e-06
7.24702e-06
-8.80807e-06
4.72613e-06
-8.96539e-06
2.07847e-06
-9.0447e-06
-6.5808e-07
-9.02606e-06
-3.4564e-06
-8.85287e-06
-6.27424e-06
-8.43505e-06
-9.02366e-06
-7.66308e-06
-1.15327e-05
-6.44212e-06
-1.35003e-05
-4.75633e-06
-1.44553e-05
-2.76678e-06
-1.3746e-05
-9.22444e-07
-1.06175e-05
-4.50021e-06
-9.45224e-07
5.00965e-06
-2.64855e-06
1.12784e-05
-4.3111e-06
1.41927e-05
-5.57347e-06
1.47207e-05
-6.37091e-06
1.37637e-05
-6.78356e-06
1.19636e-05
-6.94083e-06
9.72483e-06
-6.97009e-06
7.27628e-06
-6.97315e-06
4.72919e-06
-7.01687e-06
2.1222e-06
-7.12896e-06
-5.4599e-07
-7.29409e-06
-3.29127e-06
-7.44893e-06
-6.1194e-06
-7.47813e-06
-8.99446e-06
-7.21813e-06
-1.17927e-05
-6.48289e-06
-1.42355e-05
-5.13352e-06
-1.58047e-05
-3.21502e-06
-1.56645e-05
-1.1644e-06
-1.26681e-05
-5.66461e-06
-1.23733e-06
6.24698e-06
-3.08335e-06
1.31244e-05
-4.50782e-06
1.56171e-05
-5.23466e-06
1.54475e-05
-5.35545e-06
1.38845e-05
-5.08213e-06
1.16903e-05
-4.63124e-06
9.27394e-06
-4.17964e-06
6.82468e-06
-3.85476e-06
4.40431e-06
-3.73742e-06
2.00487e-06
-3.86552e-06
-4.17896e-07
-4.233e-06
-2.92378e-06
-4.7824e-06
-5.57e-06
-5.39134e-06
-8.38552e-06
-5.85871e-06
-1.13253e-05
-5.90673e-06
-1.41875e-05
-5.23291e-06
-1.64785e-05
-3.66632e-06
-1.72311e-05
-1.50009e-06
-1.48344e-05
-7.1647e-06
-1.67382e-06
7.9208e-06
-3.51342e-06
1.4964e-05
-4.31541e-06
1.64191e-05
-4.08904e-06
1.52211e-05
-3.19327e-06
1.29888e-05
-1.99903e-06
1.0496e-05
-7.95483e-07
8.0704e-06
2.18956e-07
5.81024e-06
9.17826e-07
3.70544e-06
1.22519e-06
1.6975e-06
1.10166e-06
-2.94364e-07
5.40684e-07
-2.36281e-06
-4.23265e-07
-4.60605e-06
-1.69285e-06
-7.11594e-06
-3.07263e-06
-9.94552e-06
-4.23098e-06
-1.30291e-05
-4.69575e-06
-1.60137e-05
-3.96723e-06
-1.79597e-05
-1.94494e-06
-1.68566e-05
-9.10963e-06
-2.2307e-06
1.01515e-05
-3.59034e-06
1.63237e-05
-3.07787e-06
1.59066e-05
-1.34402e-06
1.34873e-05
8.96836e-07
1.07479e-05
3.15471e-06
8.23816e-06
5.13781e-06
6.0873e-06
6.68834e-06
4.25971e-06
7.72545e-06
2.66832e-06
8.20616e-06
1.21679e-06
8.10351e-06
-1.91707e-07
7.39868e-06
-1.65798e-06
6.08654e-06
-3.29391e-06
4.19892e-06
-5.22831e-06
1.85394e-06
-7.60054e-06
-6.61866e-07
-1.05133e-05
-2.79227e-06
-1.38833e-05
-3.66214e-06
-1.70898e-05
-2.41155e-06
-1.81072e-05
-1.15212e-05
-2.57382e-06
1.27253e-05
-2.18348e-06
1.59333e-05
7.18011e-07
1.30051e-05
4.46946e-06
9.73584e-06
8.13313e-06
7.08426e-06
1.13014e-05
5.06993e-06
1.38288e-05
3.55983e-06
1.56878e-05
2.40074e-06
1.68914e-05
1.46477e-06
1.74546e-05
6.53593e-07
1.7376e-05
-1.13194e-07
1.66302e-05
-9.12131e-07
1.51669e-05
-1.83063e-06
1.29233e-05
-2.98469e-06
9.86157e-06
-4.53883e-06
6.06184e-06
-6.71358e-06
1.91226e-06
-9.73375e-06
-1.55966e-06
-1.36179e-05
-2.45835e-06
-1.72085e-05
-1.39795e-05
-7.85014e-07
1.35103e-05
4.08078e-06
1.10675e-05
1.02975e-05
6.78842e-06
1.57936e-05
4.23978e-06
2.01579e-05
2.71989e-06
2.34579e-05
1.76993e-06
2.58606e-05
1.15712e-06
2.75213e-05
7.40041e-07
2.85538e-05
4.32286e-07
2.90262e-05
1.81219e-07
2.8962e-05
-4.8979e-08
2.83386e-05
-2.88692e-07
2.70817e-05
-5.7373e-07
2.50549e-05
-9.57943e-07
2.20516e-05
-1.53551e-06
1.78154e-05
-2.4774e-06
1.21723e-05
-4.09067e-06
5.4777e-06
-6.92323e-06
-1.29176e-07
-1.16017e-05
-1.41087e-05
1.35103e-05
2.45779e-05
3.13663e-05
3.56061e-05
3.83259e-05
4.00959e-05
4.1253e-05
4.1993e-05
4.24253e-05
4.26065e-05
4.25576e-05
4.22689e-05
4.16951e-05
4.07372e-05
3.92017e-05
3.67243e-05
3.26336e-05
2.57104e-05
1.41087e-05
)
;

boundaryField
{
    movingWall
    {
        type            calculated;
        value           uniform 0;
    }
    fixedWalls
    {
        type            calculated;
        value           uniform 0;
    }
    frontAndBack
    {
        type            empty;
        value           nonuniform List<scalar> 0();
    }
}


// ************************************************************************* //
