/*--------------------------------*- C++ -*----------------------------------*\
  =========                 |
  \\      /  F ield         | OpenFOAM: The Open Source CFD Toolbox
   \\    /   O peration     | Website:  https://openfoam.org
    \\  /    A nd           | Version:  8
     \\/     M anipulation  |
\*---------------------------------------------------------------------------*/
FoamFile
{
    version     2.0;
    format      ascii;
    class       volScalarField;
    location    "0.582";
    object      T;
}
// * * * * * * * * * * * * * * * * * * * * * * * * * * * * * * * * * * * * * //

dimensions      [0 0 0 1 0 0 0];

internalField   nonuniform List<scalar> 
2500
(
49.9999
4.65745
-4.65647
-1.19338
1.18881
0.472875
-0.459601
-0.252306
0.223151
0.171092
-0.118121
-0.137387
0.0545442
0.118009
-0.00528589
-0.0966067
-0.0352213
0.0647065
0.0621172
-0.021884
-0.0665248
-0.0223213
0.0436406
0.0502527
-0.00161244
-0.0459448
-0.0358165
0.0107399
0.0415333
0.028453
-0.0101822
-0.0355341
-0.0270973
0.00337674
0.0278159
0.028201
0.00738475
-0.0160396
-0.0263469
-0.0181614
-0.000197169
0.0155383
0.0215086
0.0141222
0.00377829
-0.0102487
-0.0140066
-0.0146261
-0.00988991
0.000915561
95.3427
49.9996
10.5067
-4.65329
-2.85415
1.17779
1.1839
-0.433666
-0.646295
0.174271
0.427719
-0.0397211
-0.313128
-0.054502
0.225355
0.125266
-0.132919
-0.164709
0.0303183
0.157345
0.0653803
-0.0963944
-0.121097
0.000240502
0.107416
0.0829651
-0.0284804
-0.0982109
-0.0611236
0.0319558
0.0851574
0.0552555
-0.0200577
-0.0705674
-0.0585622
-0.00250879
0.0495887
0.0601719
0.0299363
-0.0174834
-0.0463923
-0.0475604
-0.0203583
0.0118864
0.0332331
0.040724
0.0219191
0.0103218
-0.0164613
-0.0221573
104.657
89.4934
49.999
12.1673
-4.64674
-3.56538
1.15815
1.57963
-0.392415
-0.907461
0.103562
0.611836
0.0638479
-0.432661
-0.184808
0.275572
0.262309
-0.109461
-0.275187
-0.0551444
0.205089
0.175364
-0.0636201
-0.198828
-0.0902469
0.106646
0.166752
0.0459039
-0.108606
-0.140614
-0.0363613
0.0901093
0.124452
0.0499918
-0.0567426
-0.108459
-0.0733975
0.00906165
0.0765637
0.0868895
0.0422673
-0.0183927
-0.0661458
-0.0659852
-0.0444959
0.00380658
0.0353652
0.048098
0.053467
0.016133
101.193
104.655
87.8327
49.9981
12.8789
-4.63571
-3.96331
1.12791
1.84662
-0.333606
-1.10282
0.00983439
0.748698
0.190711
-0.504366
-0.32931
0.27198
0.392954
-0.03315
-0.351136
-0.174954
0.195632
0.281648
0.0248404
-0.230233
-0.199963
0.0427978
0.214366
0.150601
-0.053791
-0.185847
-0.134802
0.0291735
0.151255
0.137771
0.0191639
-0.101389
-0.135247
-0.0762463
0.0281249
0.0980848
0.10818
0.0535521
-0.0183187
-0.0684585
-0.091142
-0.0531445
-0.0288857
0.0300529
0.0473696
98.8103
102.854
104.65
87.1209
49.9969
13.2784
-4.61911
-4.23554
1.08522
2.05353
-0.25544
-1.25945
-0.107133
0.847775
0.337408
-0.530553
-0.479185
0.217256
0.503774
0.0862732
-0.379932
-0.308981
0.127018
0.358772
0.151719
-0.199986
-0.296209
-0.0722102
0.2005
0.247931
0.056137
-0.166366
-0.219654
-0.0816978
0.107036
0.193124
0.125291
-0.0223886
-0.139093
-0.152431
-0.0701244
0.0376383
0.119498
0.11577
0.0753659
-0.0110772
-0.0650691
-0.0863531
-0.0930241
-0.0262017
99.5276
98.8195
103.566
104.642
86.7211
49.9954
13.5539
-4.59592
-4.45192
1.0284
2.22913
-0.156588
-1.38841
-0.246575
0.911677
0.499006
-0.511472
-0.624347
0.115422
0.581942
0.235789
-0.3534
-0.435223
0.00574688
0.385658
0.291877
-0.105631
-0.348024
-0.211861
0.116593
0.299575
0.190371
-0.0741104
-0.247729
-0.202033
-0.00504474
0.174854
0.208591
0.101157
-0.0637102
-0.162282
-0.163998
-0.0680593
0.0436747
0.116597
0.140758
0.0743654
0.0337683
-0.0590593
-0.07733
100.461
98.8158
98.8368
103.965
104.628
86.4451
49.9936
13.7759
-4.56515
-4.64259
0.955949
2.38624
-0.036208
-1.49357
-0.406743
0.939986
0.669258
-0.447293
-0.754022
-0.0271969
0.616364
0.399435
-0.269005
-0.531904
-0.153585
0.348745
0.416081
0.0415356
-0.332719
-0.340586
-0.0262749
0.277638
0.305702
0.0726295
-0.19292
-0.280965
-0.148987
0.0712676
0.22009
0.208601
0.0710897
-0.0849371
-0.185351
-0.159024
-0.0870593
0.0422765
0.107867
0.130941
0.123281
0.0233439
100.252
100.437
98.4186
98.8644
104.238
104.608
86.2225
49.9916
13.9752
-4.52582
-4.82181
0.866515
2.53037
0.106031
-1.57524
-0.584917
0.931126
0.840823
-0.339201
-0.857403
-0.201625
0.598749
0.559199
-0.130542
-0.579851
-0.329689
0.244357
0.495691
0.217855
-0.241161
-0.421577
-0.198962
0.173559
0.358841
0.233595
-0.0584572
-0.275258
-0.270116
-0.0876975
0.136041
0.239205
0.205082
0.0501538
-0.096933
-0.179964
-0.182988
-0.0767105
-0.01575
0.109554
0.111369
99.775
100.648
100.398
98.1495
98.9041
104.457
104.581
86.0223
49.9893
14.167
-4.47702
-4.99664
0.758942
2.6634
0.269932
-1.63199
-0.777447
0.883415
1.00555
-0.190023
-0.924361
-0.396299
0.524564
0.696335
0.0517381
-0.564893
-0.496952
0.0799049
0.507661
0.390897
-0.0806979
-0.425671
-0.359948
0.00200297
0.320747
0.356944
0.121872
-0.168757
-0.315429
-0.238507
-0.0281321
0.168595
0.258522
0.183228
0.0653382
-0.106021
-0.163372
-0.176927
-0.132444
-0.0002085
99.8288
99.8217
100.912
100.342
97.9397
98.9578
104.65
104.546
85.8294
49.9868
14.3593
-4.41782
-5.17058
0.632242
2.78524
0.454785
-1.66154
-0.979856
0.795656
1.15482
-0.00450889
-0.946137
-0.597516
0.393683
0.792945
0.26176
-0.47983
-0.628655
-0.126493
0.438905
0.525107
0.125064
-0.338996
-0.464855
-0.201426
0.188078
0.39385
0.295223
0.0135941
-0.250282
-0.316576
-0.210494
0.017002
0.182226
0.251575
0.20142
0.0469443
-0.035549
-0.182205
-0.142898
100.12
99.5691
99.8905
101.111
100.266
97.7604
99.0269
104.832
104.502
85.6358
49.9839
14.5566
-4.34734
-5.34518
0.485598
2.89465
0.659367
-1.66128
-1.1869
0.667526
1.27987
0.210555
-0.91597
-0.790066
0.210762
0.833597
0.478804
-0.325776
-0.700495
-0.34781
0.28922
0.588563
0.339207
-0.166989
-0.478636
-0.386089
-0.0150086
0.317767
0.403178
0.212462
-0.0764758
-0.286748
-0.319521
-0.166121
0.00668831
0.204525
0.222034
0.209842
0.102167
-0.0502673
100.138
100.043
99.381
99.983
101.272
100.169
97.5987
99.1131
105.011
104.448
85.4368
49.9808
14.7616
-4.26469
-5.52087
0.318381
2.98973
0.881905
-1.62859
-1.39266
0.499862
1.37213
0.446352
-0.829677
-0.958022
-0.0146616
0.806856
0.679229
-0.11281
-0.693965
-0.551436
0.0727267
0.559201
0.517837
0.0647608
-0.386005
-0.497088
-0.243286
0.140695
0.393998
0.362969
0.148971
-0.14582
-0.290658
-0.308722
-0.169615
0.0286359
0.125775
0.265304
0.157353
99.9432
100.318
99.9401
99.2392
100.1
101.406
100.05
97.449
99.2176
105.189
104.383
85.2299
49.9774
14.9758
-4.16902
-5.69737
0.130182
3.06815
1.12008
-1.56118
-1.59068
0.294894
1.42372
0.692228
-0.686246
-1.08583
-0.268423
0.706832
0.838826
0.140208
-0.599505
-0.704036
-0.182288
0.429435
0.620331
0.311333
-0.194522
-0.495312
-0.435021
-0.0920754
0.24918
0.414755
0.328598
0.0788055
-0.140144
-0.322166
-0.259017
-0.202367
-0.0116801
0.128403
99.8798
100.053
100.443
99.812
99.1346
100.24
101.517
99.9083
97.3096
99.3414
105.369
104.306
85.0133
49.9737
15.2004
-4.0595
-5.87398
-0.0792271
3.1274
1.37111
-1.45715
-1.77415
0.0562791
1.42782
0.936112
-0.488132
-1.15942
-0.532612
0.534259
0.935302
0.407449
-0.419008
-0.776306
-0.437503
0.209812
0.617978
0.516824
0.0659445
-0.373924
-0.521844
-0.324705
0.0123771
0.329515
0.38858
0.308275
0.0553563
-0.155028
-0.246026
-0.3259
-0.130467
100.007
99.7677
100.185
100.52
99.6624
99.0647
100.403
101.606
99.7438
97.1805
99.4856
105.551
104.216
84.7861
49.9697
15.4358
-3.93526
-6.0497
-0.309914
3.1648
1.63173
-1.31517
-1.93608
-0.210896
1.37898
1.16495
-0.241357
-1.16723
-0.786702
0.296983
0.950685
0.658882
-0.16713
-0.746834
-0.651983
-0.0680156
0.496391
0.633436
0.338162
-0.151123
-0.46367
-0.493229
-0.229933
0.100495
0.323038
0.41471
0.233076
0.119363
-0.149492
-0.219646
100.1
99.8731
99.7131
100.334
100.551
99.4959
99.0306
100.585
101.67
99.5571
97.0629
99.6509
105.735
104.112
84.5475
49.9653
15.6827
-3.79545
-6.22324
-0.5617
3.17763
1.89816
-1.13459
-2.06935
-0.500006
1.27355
1.36509
0.0444095
-1.10132
-1.00854
0.00979111
0.87417
0.862296
0.130351
-0.608015
-0.786227
-0.356912
0.262513
0.632387
0.545465
0.139384
-0.280508
-0.518045
-0.410377
-0.194192
0.156824
0.310549
0.357508
0.308558
0.0377356
100.035
100.14
99.7307
99.7135
100.491
100.535
99.3187
99.034
100.783
101.707
99.3492
96.9589
99.8379
105.919
103.995
84.297
49.9606
15.9411
-3.63923
-6.39317
-0.834177
3.1632
2.16616
-0.915591
-2.16705
-0.802997
1.11005
1.52304
0.356033
-0.958414
-1.17621
-0.306274
0.70453
0.986679
0.440271
-0.371986
-0.804553
-0.610049
-0.0408446
0.495028
0.634092
0.426492
-0.0240522
-0.355626
-0.495323
-0.402404
-0.0983667
0.0636513
0.354111
0.282211
99.9317
100.171
100.118
99.5928
99.7672
100.644
100.473
99.1382
99.0774
100.994
101.714
99.1217
96.8708
100.047
106.104
103.861
84.0344
49.9556
16.2114
-3.46578
-6.55795
-1.12673
3.11897
2.43114
-0.659231
-2.2227
-1.11054
0.889362
1.62637
0.677203
-0.740216
-1.27073
-0.624074
0.449325
1.00951
0.721388
-0.0648913
-0.689874
-0.781651
-0.347455
0.222843
0.594709
0.60022
0.26882
-0.0731785
-0.43151
-0.427535
-0.383512
-0.148376
0.12772
99.9354
99.9657
100.288
100.04
99.4734
99.8707
100.784
100.365
98.9628
99.1624
101.211
101.688
98.8768
96.8014
100.278
106.288
103.712
83.7594
49.9502
16.4936
-3.27423
-6.71587
-1.43853
3.04244
2.6881
-0.367468
-2.23033
-1.41227
0.614983
1.66408
0.989383
-0.454034
-1.27722
-0.912755
0.12495
0.921079
0.926471
0.281993
-0.46022
-0.816255
-0.609229
-0.119575
0.418171
0.595429
0.537593
0.195402
-0.161231
-0.323565
-0.513487
-0.250049
100.024
99.8334
100.055
100.372
99.9157
99.3866
100.019
100.898
100.212
98.8015
99.2899
101.429
101.627
98.617
96.7535
100.532
106.469
103.545
83.4718
49.9443
16.788
-3.0637
-6.86513
-1.76851
2.93134
2.93176
-0.0432953
-2.18475
-1.69708
0.293376
1.62712
1.27337
-0.114357
-1.18456
-1.14431
-0.237467
0.717771
1.02263
0.617539
-0.147433
-0.683989
-0.78721
-0.423409
0.0910445
0.455044
0.642458
0.393295
0.229619
-0.176709
-0.32139
100.071
99.9324
99.7799
100.182
100.407
99.7573
99.3445
100.202
100.975
100.02
98.6635
99.4596
101.641
101.527
98.3455
96.7299
100.808
106.646
103.36
83.1715
49.938
17.0945
-2.83333
-7.00379
-2.11535
2.78363
3.15646
0.309325
-2.08193
-1.95303
-0.0665576
1.50997
1.50878
0.259512
-0.989508
-1.29313
-0.596954
0.405034
0.999694
0.866798
0.228435
-0.428586
-0.80125
-0.637622
-0.304692
0.233792
0.474053
0.546138
0.476092
0.0621464
100.023
100.105
99.8142
99.7867
100.326
100.383
99.5811
99.3571
100.409
101.006
99.7943
98.5582
99.6698
101.839
101.388
98.066
96.7335
101.105
106.818
103.156
82.8582
49.9312
17.4132
-2.58218
-7.12982
-2.47747
2.59746
3.35633
0.685448
-1.91912
-2.16774
-0.453849
1.31186
1.67395
0.647473
-0.703726
-1.32876
-0.923281
0.0235143
0.838042
0.988955
0.607565
-0.108424
-0.592955
-0.768123
-0.579115
-0.102872
0.144721
0.568493
0.424751
99.9522
100.13
100.072
99.6973
99.8575
100.466
100.297
99.4062
99.4301
100.627
100.982
99.5439
98.4942
99.9174
102.018
101.208
97.7827
96.7672
101.423
106.982
102.933
82.5318
49.9238
17.7443
-2.30936
-7.24111
-2.85293
2.37134
3.52558
1.07858
-1.69456
-2.33012
-0.853153
1.03392
1.75304
1.02105
-0.343129
-1.23368
-1.1846
-0.36673
0.519757
0.995495
0.863266
0.280776
-0.253462
-0.736652
-0.64024
-0.526501
-0.107207
0.264683
99.9456
99.9977
100.217
99.9773
99.6096
99.9868
100.576
100.151
99.2527
99.5651
100.838
100.898
99.2798
98.4796
100.197
102.168
100.987
97.5002
96.8337
101.762
107.137
102.688
82.1922
49.9159
18.0877
-2.01394
-7.3354
-3.23958
2.10417
3.65811
1.48141
-1.40826
-2.42974
-1.24626
0.679825
1.73824
1.34098
0.0830054
-1.02625
-1.31612
-0.747551
0.110711
0.851162
0.937764
0.695427
0.0683421
-0.413144
-0.609306
-0.757288
-0.27873
100.003
99.8811
100.097
100.255
99.8384
99.575
100.16
100.634
99.9544
99.1404
99.7584
101.026
100.752
99.0142
98.5206
100.504
102.283
100.725
97.2236
96.9356
102.119
107.28
102.422
81.8391
49.9074
18.4438
-1.69496
-7.4103
-3.63524
1.79558
3.74735
1.88694
-1.06426
-2.45373
-1.61961
0.267445
1.61335
1.5866
0.535729
-0.714633
-1.28187
-1.09329
-0.283337
0.487044
0.908107
0.929794
0.395373
0.0885613
-0.533257
-0.553945
100.051
99.9091
99.8793
100.219
100.225
99.6815
99.61
100.356
100.625
99.7242
99.0872
100.001
101.174
100.545
98.7613
98.6222
100.828
102.355
100.424
96.9583
97.0754
102.494
107.41
102.133
81.4723
49.8981
18.8124
-1.35129
-7.46352
-4.03685
1.44489
3.78793
2.28534
-0.666367
-2.3935
-1.95585
-0.181037
1.3648
1.75153
0.943284
-0.273517
-1.13487
-1.27707
-0.673064
0.00304519
0.766011
0.849163
0.799901
0.408166
-0.174926
100.04
100.034
99.8136
99.9483
100.33
100.124
99.5388
99.7208
100.546
100.539
99.482
99.1068
100.278
101.265
100.282
98.5356
98.787
101.161
102.378
100.087
96.71
97.2551
102.885
107.524
101.819
81.0916
49.888
19.1938
-0.981741
-7.49243
-4.44079
1.0514
3.77555
2.6631
-0.21529
-2.25173
-2.22068
-0.664857
1.02435
1.78064
1.29707
0.235485
-0.876392
-1.22452
-1.07878
-0.378315
0.336581
0.653448
1.01646
0.489187
99.9871
100.112
99.9506
99.7563
100.077
100.394
99.96
99.4429
99.9013
100.7
100.374
99.2536
99.2076
100.572
101.286
99.9736
98.3522
99.015
101.492
102.345
99.7161
96.485
97.4769
103.291
107.62
101.481
80.6968
49.877
19.5882
-0.585946
-7.49359
-4.84507
0.618683
3.70149
3.01436
0.273505
-2.01854
-2.40059
-1.15784
0.61631
1.63064
1.61306
0.671467
-0.404787
-1.07264
-1.28499
-0.678472
-0.302998
0.517207
0.68718
99.9522
100.069
100.126
99.8302
99.7678
100.237
100.383
99.7592
99.4215
100.133
100.79
100.139
99.0664
99.391
100.859
101.226
99.6319
98.2254
99.304
101.808
102.251
99.3171
96.2896
97.7423
103.708
107.696
101.116
80.2875
49.8654
19.996
-0.162281
-7.46483
-5.24611
0.148648
3.55913
3.33354
0.778073
-1.67416
-2.51224
-1.58137
0.0924575
1.38595
1.76049
1.06316
0.191588
-0.870223
-1.09944
-1.09062
-0.676183
0.125201
99.9675
99.9615
100.162
100.065
99.7146
99.8606
100.39
100.283
99.5569
99.4918
100.388
100.793
99.8547
98.9463
99.6502
101.116
101.08
99.274
98.168
99.6482
102.099
102.092
98.8956
96.1298
98.0525
104.135
107.749
100.724
79.8624
49.8524
20.4164
0.292745
-7.40456
-5.63439
-0.365731
3.3554
3.58814
1.3129
-1.25425
-2.49973
-1.94038
-0.500669
1.06607
1.63583
1.5028
0.623908
-0.357281
-0.797634
-1.33933
-0.690775
100.013
99.8997
100.04
100.219
99.9382
99.649
100.025
100.491
100.102
99.3945
99.657
100.627
100.696
99.5477
98.9155
99.9705
101.318
100.848
98.9201
98.1912
100.039
102.349
101.867
98.4593
96.0128
98.4077
104.567
107.776
100.304
79.4234
49.837
20.8503
0.775326
-7.30547
-6.00971
-0.911362
3.08091
3.76827
1.86319
-0.791597
-2.30241
-2.28902
-0.983673
0.512703
1.43663
1.73217
0.933006
0.424182
-0.65844
-0.900136
100.042
99.9353
99.8913
100.158
100.2
99.7782
99.6686
100.229
100.504
99.8617
99.311
99.9042
100.814
100.497
99.2525
98.9895
100.33
101.44
100.535
98.5922
98.3038
100.464
102.545
101.572
98.016
95.9465
98.8101
105.003
107.772
99.8517
78.9697
49.8224
21.3013
1.28541
-7.16419
-6.37996
-1.46841
2.70761
3.91693
2.3426
-0.202878
-2.04537
-2.47747
-1.42864
-0.183572
1.24871
1.50275
1.45602
0.840979
-0.215789
100.032
100.025
99.8504
99.9623
100.263
100.093
99.6355
99.7873
100.426
100.409
99.6047
99.3348
100.204
100.911
100.209
99.0053
99.1727
100.7
101.464
100.155
98.3114
98.5087
100.912
102.676
101.209
97.5721
95.9343
99.2596
105.441
107.739
99.3666
78.493
49.8066
21.7636
1.84336
-6.98705
-6.71098
-2.07849
2.26975
3.95991
2.78783
0.482293
-1.73029
-2.37323
-2.00943
-0.676356
0.649095
1.20637
1.82705
0.863436
99.9953
100.087
99.9405
99.8138
100.097
100.304
99.9163
99.5632
99.9911
100.561
100.209
99.3827
99.4781
100.512
100.891
99.8611
98.8435
99.4578
101.045
101.378
99.73
98.1025
98.8031
101.361
102.731
100.786
97.1435
95.981
99.7491
105.873
107.675
98.8535
78.0051
49.7794
22.2341
2.42725
-6.75761
-6.98926
-2.7185
1.80121
3.8094
3.26825
1.02442
-1.10965
-2.24587
-2.32511
-1.07288
-0.293249
1.14492
1.26264
99.9651
100.072
100.072
99.8305
99.8644
100.247
100.242
99.7167
99.6018
100.24
100.587
99.9313
99.2486
99.7344
100.777
100.739
99.4917
98.8007
99.8303
101.327
101.17
99.2831
97.9921
99.1887
101.789
102.689
100.302
96.7452
96.1056
100.284
106.286
107.562
98.3005
77.5151
49.7595
22.7411
3.01106
-6.46205
-7.30529
-3.28813
1.19055
3.68803
3.59726
1.58632
-0.371017
-2.2069
-2.14171
-1.86693
-0.66639
0.625758
99.9646
100.002
100.137
99.9776
99.7569
100.004
100.352
100.077
99.5561
99.7614
100.475
100.482
99.6231
99.2394
100.073
100.953
100.461
99.1425
98.8913
100.264
101.522
100.845
98.8355
97.9879
99.6577
102.191
102.551
99.7555
96.3691
96.3042
100.877
106.707
107.403
97.6957
76.969
49.7471
23.2616
3.70425
-6.12394
-7.55266
-3.93059
0.438239
3.50297
3.68079
2.4693
0.165838
-1.5404
-2.1046
-2.50535
-0.869615
99.9908
99.9354
100.094
100.132
99.8402
99.7732
100.189
100.355
99.8484
99.4967
100.013
100.629
100.253
99.355
99.3724
100.435
100.999
100.094
98.8715
99.1133
100.704
101.597
100.434
98.4351
98.0949
100.17
102.531
102.33
99.1874
96.0396
96.5512
101.487
107.108
107.243
97.0793
76.4161
49.6785
23.7408
4.42337
-5.73321
-7.57447
-4.63571
-0.140383
2.84112
3.8032
2.89279
0.783541
-0.463932
-2.18794
-1.75553
100.022
99.9215
99.9859
100.176
100.033
99.7293
99.9017
100.348
100.225
99.6245
99.5844
100.302
100.637
99.9303
99.1995
99.6524
100.753
100.874
99.6739
98.7401
99.4752
101.099
101.505
99.9444
98.1355
98.3564
100.714
102.754
101.976
98.607
95.8201
96.9146
102.114
107.418
106.988
96.4141
75.948
49.6441
24.3419
5.0011
-5.25776
-7.82778
-5.13703
-0.793713
2.30894
4.11614
2.84627
1.92969
-0.493952
-1.60989
100.035
99.9604
99.8985
100.101
100.184
99.8669
99.7099
100.115
100.414
99.9833
99.4749
99.8155
100.562
100.484
99.5691
99.1915
100.047
100.986
100.584
99.2365
98.7578
99.9583
101.44
101.256
99.3769
97.9186
98.7658
101.321
102.901
101.482
97.9464
95.6399
97.4105
102.859
107.773
106.619
95.6193
75.2851
49.6668
24.9991
5.91223
-4.63815
-8.04494
-5.71315
-2.10432
1.89633
3.5913
3.65263
3.01126
0.227292
100.025
100.024
99.8797
99.9607
100.211
100.088
99.7129
99.8123
100.327
100.343
99.7114
99.4641
100.123
100.703
100.206
99.2734
99.3393
100.454
101.073
100.2
98.8812
98.9151
100.456
101.665
100.913
98.8449
97.8049
99.2183
101.88
102.982
100.991
97.321
95.4796
97.8437
103.583
108.142
106.413
94.8869
74.6001
49.4594
25.3377
6.85395
-4.07548
-7.39514
-6.30005
-2.57196
0.773399
2.53155
3.76004
2.08069
99.9993
100.066
99.9441
99.8613
100.092
100.228
99.9097
99.6673
100.027
100.434
100.119
99.5109
99.6457
100.425
100.637
99.8376
99.1536
99.6742
100.784
100.92
99.7431
98.7244
99.2857
100.908
101.637
100.414
98.4384
97.9581
99.7848
102.273
102.789
100.391
96.8684
95.6102
98.4186
104.175
108.174
106.019
94.1234
74.3742
49.4158
26.1221
7.21607
-3.61472
-7.61084
-6.95483
-2.55585
-0.281198
3.7548
3.09411
99.9786
100.067
100.024
99.8484
99.9503
100.23
100.114
99.7132
99.7708
100.295
100.391
99.7899
99.4351
99.9905
100.669
100.371
99.423
99.2111
100.166
101.037
100.554
99.2067
98.7194
99.8626
101.387
101.424
99.7095
98.014
98.3083
100.587
102.728
102.412
99.4924
96.2471
95.8428
99.3768
105.084
108.375
105.195
92.9655
73.4353
49.5705
27.1776
8.61842
-2.22917
-7.94029
-7.31366
-5.15378
-1.63758
2.25948
99.9673
100.032
100.1
99.9172
99.82
100.106
100.279
99.9208
99.6117
99.9792
100.479
100.212
99.5091
99.517
100.344
100.757
100.029
99.1282
99.4026
100.611
101.138
100.148
98.7891
98.8193
100.391
101.742
101.186
99.1087
97.6714
98.5979
101.245
103.162
102.182
98.816
95.5893
95.8517
99.9075
106.016
108.804
105.135
92.1332
72.3892
49.0099
26.7582
9.88897
-1.68849
-5.76425
-6.73627
-4.82602
-1.38511
99.9797
99.9792
100.098
100.034
99.8286
99.9247
100.233
100.157
99.7376
99.7165
100.228
100.438
99.9104
99.4319
99.822
100.577
100.541
99.6533
99.1422
99.8181
100.869
100.871
99.6788
98.7161
99.2587
100.831
101.658
100.65
98.7027
97.8428
99.185
101.665
102.994
101.574
98.3204
95.6401
96.4452
100.471
106.257
108.224
104.687
91.362
73.0066
49.1409
28.0075
9.78453
-2.19724
-6.24588
-9.38264
-3.26632
99.9933
99.9515
100.07
100.099
99.882
99.8307
100.138
100.263
99.8909
99.6297
100.006
100.457
100.188
99.5385
99.5447
100.301
100.708
100.079
99.2244
99.3776
100.454
101.067
100.32
99.025
98.7798
100.031
101.455
101.397
99.7118
98.0462
98.1791
100.276
102.503
102.777
100.38
97.1037
95.4319
97.4586
102.207
107.233
108.152
102.763
89.5272
71.2666
49.4877
30.141
12.2185
2.04238
-6.51245
-8.2178
100.017
99.9309
99.9964
100.154
100.014
99.7622
99.9359
100.309
100.169
99.658
99.6678
100.291
100.527
99.8953
99.3197
99.7585
100.662
100.686
99.671
98.9759
99.6457
100.922
101.143
99.8785
98.5668
98.8437
100.581
101.92
101.279
99.0895
97.4992
98.2183
100.929
103.211
103.036
99.8172
96.2872
94.5637
97.6456
102.713
108.756
108.864
103.245
88.7505
69.2224
48.3682
26.9917
13.6548
1.29045
-2.15663
100.024
99.9656
99.9378
100.084
100.114
99.8841
99.8145
100.115
100.275
99.9402
99.6349
99.9307
100.413
100.275
99.6462
99.4844
100.12
100.677
100.298
99.4161
99.2331
100.097
100.967
100.691
99.4774
98.7238
99.4052
100.905
101.619
100.647
98.8041
97.8695
98.9307
101.246
102.87
102.2
99.3826
96.4613
95.5246
98.3831
102.786
108.027
107.244
103.094
88.0684
72.2712
49.0827
29.9766
13.2242
-3.48329
100.025
99.9802
99.9213
100.054
100.141
99.9351
99.7848
100.038
100.293
100.043
99.6493
99.81
100.344
100.388
99.785
99.4268
99.9239
100.624
100.492
99.6107
99.149
99.8074
100.833
100.915
99.8287
98.7839
99.0528
100.485
101.601
101.122
99.3583
97.9327
98.3524
100.421
102.571
102.745
100.673
97.3703
95.5676
96.5667
100.666
105.661
108.366
106.733
98.4174
85.221
68.5724
49.2796
36.227
16.6318
100.019
100.028
99.8985
99.9496
100.177
100.101
99.765
99.8067
100.255
100.327
99.7963
99.5185
100.041
100.597
100.25
99.4289
99.3787
100.289
100.911
100.286
99.1485
99.0242
100.212
101.306
100.887
99.2894
98.3025
99.1601
101.124
102.162
101.059
98.6531
97.1818
98.1715
101.056
103.602
103.418
100.581
96.1285
94.4512
95.0975
101.569
106.15
111.867
107.978
100.203
84.7197
62.3211
47.7395
17.9864
99.9983
100.044
99.9679
99.9071
100.052
100.151
99.9535
99.7827
100.001
100.278
100.097
99.6963
99.7528
100.25
100.419
99.9303
99.4673
99.7565
100.464
100.6
99.8939
99.2246
99.5077
100.489
100.994
100.333
99.162
98.7933
99.7458
101.14
101.537
100.417
98.6564
97.9296
98.9222
101.225
102.682
102.57
99.8154
97.3147
95.2681
97.0839
100.63
105.035
109.101
104.943
103.509
83.7885
79.7472
48.652
)
;

boundaryField
{
    left
    {
        type            fixedValue;
        value           uniform 100;
    }
    right
    {
        type            zeroGradient;
    }
    up
    {
        type            zeroGradient;
    }
    down
    {
        type            fixedValue;
        value           uniform 0;
    }
    frontAndBack
    {
        type            empty;
    }
}


// ************************************************************************* //
