0 	0 	0 	0
1.57135 	-0.00122297 	0.00107358 	0
3.1427 	-0.00275976 	0.00186305 	0
4.71405 	-0.00460974 	0.00192833 	0
6.28539 	-0.00672929 	0.000995391 	0
7.85674 	-0.00904549 	-0.00114349 	0
9.42809 	-0.0118154 	-0.00458909 	0
10.9994 	-0.0145794 	-0.0103213 	0
12.5708 	0.014565 	-0.0261437 	0
14.1421 	0.5 	0 	0
