/*--------------------------------*- C++ -*----------------------------------*\
  =========                 |
  \\      /  F ield         | OpenFOAM: The Open Source CFD Toolbox
   \\    /   O peration     | Website:  https://openfoam.org
    \\  /    A nd           | Version:  8
     \\/     M anipulation  |
\*---------------------------------------------------------------------------*/
FoamFile
{
    version     2.0;
    format      ascii;
    class       volScalarField;
    location    "0.89";
    object      p;
}
// * * * * * * * * * * * * * * * * * * * * * * * * * * * * * * * * * * * * * //

dimensions      [0 2 -2 0 0 0 0];

internalField   nonuniform List<scalar> 
400
(
8.46551e-13
-3.65279e-07
-2.15443e-07
8.63448e-08
3.45017e-07
5.80662e-07
8.10531e-07
1.02602e-06
1.21131e-06
1.36687e-06
1.50859e-06
1.6532e-06
1.80771e-06
1.96667e-06
2.11289e-06
2.21744e-06
2.24255e-06
2.11595e-06
1.65124e-06
8.12589e-07
3.28535e-07
4.96362e-08
1.8548e-07
4.2864e-07
6.3134e-07
8.15087e-07
1.00518e-06
1.18777e-06
1.34091e-06
1.46302e-06
1.57048e-06
1.68068e-06
1.80049e-06
1.92398e-06
2.03261e-06
2.09968e-06
2.10782e-06
2.02333e-06
1.70813e-06
1.04585e-06
7.44762e-07
4.32902e-07
5.27332e-07
7.41253e-07
9.05124e-07
1.04704e-06
1.20343e-06
1.35939e-06
1.48798e-06
1.58414e-06
1.66388e-06
1.74608e-06
1.83949e-06
1.93957e-06
2.02936e-06
2.08719e-06
2.117e-06
2.11899e-06
1.9444e-06
1.4157e-06
1.10877e-06
7.41486e-07
8.26958e-07
1.04004e-06
1.18106e-06
1.29119e-06
1.42245e-06
1.5599e-06
1.67036e-06
1.74433e-06
1.79765e-06
1.85204e-06
1.91969e-06
1.99894e-06
2.07592e-06
2.13612e-06
2.20316e-06
2.29935e-06
2.24785e-06
1.78715e-06
1.38903e-06
9.83112e-07
1.08474e-06
1.3225e-06
1.46003e-06
1.55208e-06
1.66779e-06
1.79289e-06
1.88861e-06
1.9416e-06
1.96834e-06
1.99447e-06
2.03643e-06
2.09516e-06
2.15906e-06
2.2206e-06
2.32166e-06
2.50123e-06
2.54871e-06
2.11965e-06
1.63127e-06
1.18347e-06
1.30783e-06
1.58521e-06
1.73589e-06
1.82314e-06
1.93137e-06
2.04804e-06
2.13082e-06
2.16389e-06
2.16526e-06
2.16526e-06
2.18497e-06
2.22702e-06
2.27974e-06
2.33978e-06
2.46452e-06
2.70877e-06
2.83401e-06
2.42101e-06
1.86093e-06
1.36821e-06
1.51278e-06
1.83398e-06
2.00686e-06
2.09771e-06
2.20331e-06
2.31342e-06
2.38402e-06
2.39829e-06
2.37644e-06
2.35396e-06
2.35678e-06
2.38852e-06
2.43501e-06
2.4935e-06
2.6327e-06
2.92317e-06
3.10871e-06
2.70675e-06
2.09697e-06
1.55987e-06
1.71683e-06
2.07744e-06
2.27451e-06
2.37235e-06
2.47682e-06
2.58026e-06
2.63866e-06
2.63535e-06
2.59301e-06
2.55214e-06
2.54345e-06
2.57112e-06
2.61698e-06
2.67585e-06
2.82345e-06
3.145e-06
3.37752e-06
2.98863e-06
2.34863e-06
1.77069e-06
1.92941e-06
2.31954e-06
2.53793e-06
2.64281e-06
2.74569e-06
2.84171e-06
2.8884e-06
2.8702e-06
2.8118e-06
2.75767e-06
2.74261e-06
2.77117e-06
2.82079e-06
2.8821e-06
3.03392e-06
3.37394e-06
3.64218e-06
3.2714e-06
2.61685e-06
2.00361e-06
2.15268e-06
2.55948e-06
2.79342e-06
2.90348e-06
3.00363e-06
3.09192e-06
3.12895e-06
3.10077e-06
3.03308e-06
2.97242e-06
2.9563e-06
2.98944e-06
3.04528e-06
3.10978e-06
3.26179e-06
3.60872e-06
3.90161e-06
3.55395e-06
2.8975e-06
2.25631e-06
2.38492e-06
2.7943e-06
3.03655e-06
3.14923e-06
3.24562e-06
3.32683e-06
3.35767e-06
3.3261e-06
3.25745e-06
3.19808e-06
3.18633e-06
3.2267e-06
3.28944e-06
3.35625e-06
3.50383e-06
3.84632e-06
4.15233e-06
3.83154e-06
3.18287e-06
2.52322e-06
2.62211e-06
3.02004e-06
3.26326e-06
3.37647e-06
3.46905e-06
3.54487e-06
3.5737e-06
3.54556e-06
3.48415e-06
3.43344e-06
3.43071e-06
3.47977e-06
3.54866e-06
3.61567e-06
3.7538e-06
4.08077e-06
4.38782e-06
4.09624e-06
3.46182e-06
2.79549e-06
2.85749e-06
3.2309e-06
3.4688e-06
3.58207e-06
3.6726e-06
3.74601e-06
3.77728e-06
3.75846e-06
3.71075e-06
3.67406e-06
3.6831e-06
3.74068e-06
3.81377e-06
3.87838e-06
4.00236e-06
4.30343e-06
4.59905e-06
4.33728e-06
3.72117e-06
3.0615e-06
3.08165e-06
3.4187e-06
3.64619e-06
3.76097e-06
3.85337e-06
3.92898e-06
3.96741e-06
3.96258e-06
3.93271e-06
3.91278e-06
3.93406e-06
3.99852e-06
4.07333e-06
4.13329e-06
4.23972e-06
4.50605e-06
4.7776e-06
4.5436e-06
3.94928e-06
3.30926e-06
3.28469e-06
3.57436e-06
3.78646e-06
3.90496e-06
4.00457e-06
4.08825e-06
4.13889e-06
4.15175e-06
4.14201e-06
4.13959e-06
4.17223e-06
4.24158e-06
4.31634e-06
4.37114e-06
4.45915e-06
4.68466e-06
4.92022e-06
4.70834e-06
4.13994e-06
3.52947e-06
3.45924e-06
3.69153e-06
3.88218e-06
4.00531e-06
4.11678e-06
4.21412e-06
4.28155e-06
4.31488e-06
4.32644e-06
4.3415e-06
4.38474e-06
4.45824e-06
4.53348e-06
4.58568e-06
4.65807e-06
4.84088e-06
5.03089e-06
4.83205e-06
4.29185e-06
3.71648e-06
3.60224e-06
3.7706e-06
3.93394e-06
4.06034e-06
4.18532e-06
4.29924e-06
4.38581e-06
4.44059e-06
4.47341e-06
4.5057e-06
4.5597e-06
4.63853e-06
4.71743e-06
4.77244e-06
4.83506e-06
4.97706e-06
5.11541e-06
4.9197e-06
4.39992e-06
3.85678e-06
3.70118e-06
3.80655e-06
3.94251e-06
4.07202e-06
4.21029e-06
4.34086e-06
4.44641e-06
4.52195e-06
4.57539e-06
4.6254e-06
4.69236e-06
4.78053e-06
4.86867e-06
4.93322e-06
4.99282e-06
5.09853e-06
5.18263e-06
4.97818e-06
4.46516e-06
3.9222e-06
3.71862e-06
3.76745e-06
3.88697e-06
4.02778e-06
4.18365e-06
4.33303e-06
4.45863e-06
4.55555e-06
4.63093e-06
4.70181e-06
4.78723e-06
4.8922e-06
4.99857e-06
5.08332e-06
5.1528e-06
5.23611e-06
5.2683e-06
5.0312e-06
4.50403e-06
3.87411e-06
3.59029e-06
3.60591e-06
3.7377e-06
3.91308e-06
4.10244e-06
4.28077e-06
4.43262e-06
4.55485e-06
4.65541e-06
4.75088e-06
4.85924e-06
4.98669e-06
5.12043e-06
5.24256e-06
5.35079e-06
5.44967e-06
5.44482e-06
5.13684e-06
)
;

boundaryField
{
    movingWall
    {
        type            zeroGradient;
    }
    fixedWalls
    {
        type            zeroGradient;
    }
    left
    {
        type            cyclic;
    }
    right
    {
        type            cyclic;
    }
    frontAndBack
    {
        type            empty;
    }
}


// ************************************************************************* //
