/*--------------------------------*- C++ -*----------------------------------*\
  =========                 |
  \\      /  F ield         | OpenFOAM: The Open Source CFD Toolbox
   \\    /   O peration     | Website:  https://openfoam.org
    \\  /    A nd           | Version:  8
     \\/     M anipulation  |
\*---------------------------------------------------------------------------*/
FoamFile
{
    version     2.0;
    format      ascii;
    class       volScalarField;
    location    "1.25";
    object      p;
}
// * * * * * * * * * * * * * * * * * * * * * * * * * * * * * * * * * * * * * //

dimensions      [0 2 -2 0 0 0 0];

internalField   nonuniform List<scalar> 
400
(
-3.02704e-16
1.63124e-11
4.19649e-11
6.22551e-11
7.21761e-11
7.42028e-11
7.07504e-11
6.38313e-11
5.50531e-11
4.54013e-11
3.5741e-11
2.69739e-11
1.98194e-11
1.50289e-11
1.26432e-11
1.24621e-11
1.30019e-11
1.20382e-11
5.51072e-12
-2.77769e-12
5.36391e-12
2.01375e-11
3.99864e-11
5.67825e-11
6.73624e-11
7.21298e-11
7.20117e-11
6.86976e-11
6.30796e-11
5.60172e-11
4.81506e-11
4.01206e-11
3.28734e-11
2.67952e-11
2.26201e-11
1.98228e-11
1.7955e-11
1.50279e-11
1.00109e-11
4.36034e-12
1.87892e-11
2.96561e-11
4.36894e-11
5.74015e-11
6.83835e-11
7.48373e-11
7.73388e-11
7.62049e-11
7.24748e-11
6.65794e-11
5.91776e-11
5.10847e-11
4.28369e-11
3.55847e-11
2.94058e-11
2.50422e-11
2.15079e-11
1.85618e-11
1.57155e-11
1.50237e-11
3.11079e-11
4.00324e-11
5.12093e-11
6.34247e-11
7.36899e-11
8.104e-11
8.43364e-11
8.42532e-11
8.08781e-11
7.50864e-11
6.74664e-11
5.86896e-11
4.99028e-11
4.14782e-11
3.466e-11
2.91142e-11
2.54908e-11
2.29496e-11
2.24223e-11
2.4855e-11
4.21127e-11
5.11186e-11
6.17596e-11
7.22491e-11
8.1669e-11
8.81294e-11
9.15024e-11
9.09515e-11
8.73194e-11
8.09466e-11
7.27589e-11
6.37254e-11
5.44782e-11
4.63308e-11
3.92807e-11
3.42996e-11
3.07252e-11
2.9446e-11
3.04689e-11
3.47771e-11
5.53652e-11
6.48722e-11
7.44329e-11
8.34454e-11
9.05255e-11
9.56962e-11
9.74506e-11
9.59835e-11
9.10789e-11
8.38584e-11
7.5117e-11
6.5818e-11
5.71887e-11
4.96095e-11
4.41323e-11
4.01336e-11
3.82876e-11
3.82906e-11
4.13107e-11
4.71452e-11
7.11823e-11
8.03322e-11
8.87218e-11
9.51338e-11
9.99637e-11
1.02413e-10
1.02395e-10
9.88506e-11
9.26197e-11
8.42413e-11
7.50117e-11
6.60334e-11
5.81089e-11
5.23517e-11
4.85699e-11
4.71722e-11
4.72747e-11
4.98088e-11
5.4725e-11
6.22236e-11
8.77983e-11
9.6169e-11
1.0245e-10
1.06523e-10
1.08268e-10
1.08302e-10
1.05547e-10
1.00199e-10
9.22552e-11
8.30948e-11
7.37044e-11
6.52606e-11
5.88102e-11
5.47274e-11
5.35972e-11
5.4559e-11
5.77193e-11
6.26e-11
6.98535e-11
7.85731e-11
1.02982e-10
1.09977e-10
1.14272e-10
1.15706e-10
1.15104e-10
1.12297e-10
1.07442e-10
1.00027e-10
9.10869e-11
8.13918e-11
7.23761e-11
6.49829e-11
5.99744e-11
5.80109e-11
5.88915e-11
6.25986e-11
6.81326e-11
7.5671e-11
8.4479e-11
9.40875e-11
1.146e-10
1.20104e-10
1.22471e-10
1.22114e-10
1.19384e-10
1.14755e-10
1.07887e-10
9.94119e-11
8.9768e-11
8.03938e-11
7.2153e-11
6.60884e-11
6.27322e-11
6.2332e-11
6.50798e-11
7.03926e-11
7.80484e-11
8.70486e-11
9.69536e-11
1.06439e-10
1.21319e-10
1.25502e-10
1.26551e-10
1.25007e-10
1.21311e-10
1.15405e-10
1.07769e-10
9.87106e-11
8.9467e-11
8.07932e-11
7.39137e-11
6.92773e-11
6.73581e-11
6.82204e-11
7.17843e-11
7.80365e-11
8.63094e-11
9.60016e-11
1.05598e-10
1.14423e-10
1.23237e-10
1.26243e-10
1.26645e-10
1.24785e-10
1.20866e-10
1.14911e-10
1.07208e-10
9.88085e-11
9.04086e-11
8.32529e-11
7.77856e-11
7.47043e-11
7.38971e-11
7.54102e-11
7.91331e-11
8.50272e-11
9.29872e-11
1.01811e-10
1.10397e-10
1.17612e-10
1.21359e-10
1.2368e-10
1.23811e-10
1.22271e-10
1.1886e-10
1.13515e-10
1.0684e-10
9.95936e-11
9.29352e-11
8.7333e-11
8.36443e-11
8.17653e-11
8.18837e-11
8.35337e-11
8.67308e-11
9.15903e-11
9.80193e-11
1.0529e-10
1.11832e-10
1.17351e-10
1.18059e-10
1.19581e-10
1.19939e-10
1.18814e-10
1.1621e-10
1.11966e-10
1.06647e-10
1.01239e-10
9.62829e-11
9.26451e-11
9.03075e-11
8.96961e-11
9.02452e-11
9.18887e-11
9.42417e-11
9.76215e-11
1.02201e-10
1.07228e-10
1.1183e-10
1.15296e-10
1.15299e-10
1.16436e-10
1.16697e-10
1.16066e-10
1.14017e-10
1.10821e-10
1.06999e-10
1.03171e-10
1.00087e-10
9.7813e-11
9.68884e-11
9.68948e-11
9.79467e-11
9.93144e-11
1.01017e-10
1.03078e-10
1.05827e-10
1.09037e-10
1.11752e-10
1.139e-10
1.151e-10
1.15535e-10
1.15833e-10
1.15062e-10
1.13332e-10
1.10756e-10
1.07931e-10
1.05416e-10
1.0337e-10
1.02263e-10
1.01833e-10
1.02421e-10
1.0342e-10
1.0482e-10
1.06063e-10
1.07414e-10
1.09093e-10
1.11049e-10
1.13009e-10
1.1424e-10
1.17509e-10
1.17795e-10
1.17548e-10
1.16573e-10
1.1456e-10
1.12167e-10
1.0976e-10
1.07635e-10
1.06114e-10
1.05053e-10
1.04826e-10
1.05091e-10
1.06107e-10
1.07303e-10
1.08679e-10
1.09988e-10
1.11504e-10
1.13413e-10
1.15358e-10
1.16937e-10
1.22063e-10
1.22157e-10
1.21701e-10
1.20116e-10
1.17784e-10
1.15047e-10
1.1237e-10
1.09982e-10
1.07894e-10
1.06384e-10
1.05321e-10
1.05115e-10
1.05544e-10
1.0681e-10
1.08468e-10
1.10477e-10
1.12739e-10
1.15393e-10
1.18433e-10
1.20825e-10
1.27087e-10
1.27793e-10
1.27198e-10
1.25472e-10
1.22663e-10
1.19361e-10
1.15844e-10
1.12331e-10
1.0906e-10
1.06096e-10
1.03857e-10
1.0244e-10
1.02305e-10
1.03364e-10
1.05622e-10
1.08639e-10
1.12221e-10
1.16366e-10
1.20859e-10
1.24858e-10
1.31383e-10
1.33088e-10
1.33067e-10
1.31441e-10
1.28466e-10
1.24466e-10
1.19828e-10
1.1487e-10
1.09866e-10
1.0523e-10
1.01299e-10
9.86329e-11
9.75609e-11
9.84125e-11
1.01019e-10
1.05047e-10
1.10034e-10
1.15772e-10
1.21965e-10
1.27544e-10
)
;

boundaryField
{
    movingWall
    {
        type            zeroGradient;
    }
    fixedWalls
    {
        type            zeroGradient;
    }
    left
    {
        type            cyclic;
    }
    right
    {
        type            cyclic;
    }
    frontAndBack
    {
        type            empty;
    }
}


// ************************************************************************* //
