/*--------------------------------*- C++ -*----------------------------------*\
  =========                 |
  \\      /  F ield         | OpenFOAM: The Open Source CFD Toolbox
   \\    /   O peration     | Website:  https://openfoam.org
    \\  /    A nd           | Version:  8
     \\/     M anipulation  |
\*---------------------------------------------------------------------------*/
FoamFile
{
    version     2.0;
    format      ascii;
    class       surfaceScalarField;
    location    "1.25";
    object      phi;
}
// * * * * * * * * * * * * * * * * * * * * * * * * * * * * * * * * * * * * * //

dimensions      [0 3 -1 0 0 0 0];

internalField   nonuniform List<scalar> 
760
(
1.24939e-06
-1.26865e-16
1.24939e-06
-1.58576e-16
1.24939e-06
-1.83554e-16
1.24939e-06
-1.60911e-16
1.24939e-06
-1.26187e-16
1.24939e-06
-8.13856e-17
1.24939e-06
-2.96787e-17
1.24939e-06
2.21221e-17
1.24939e-06
7.12022e-17
1.24939e-06
1.13141e-16
1.24939e-06
1.44623e-16
1.24939e-06
1.63432e-16
1.24939e-06
1.66146e-16
1.24939e-06
1.54264e-16
1.24939e-06
1.25682e-16
1.24939e-06
8.55099e-17
1.24939e-06
3.36573e-17
1.24939e-06
-2.27631e-17
1.24939e-06
-8.38547e-17
-1.06002e-16
3.74818e-06
-6.72344e-16
3.74818e-06
-7.14409e-16
3.74818e-06
-6.90526e-16
3.74818e-06
-5.78692e-16
3.74818e-06
-4.14154e-16
3.74818e-06
-2.10159e-16
3.74818e-06
7.4788e-18
3.74818e-06
2.22375e-16
3.74818e-06
4.12679e-16
3.74818e-06
5.63859e-16
3.74818e-06
6.62255e-16
3.74818e-06
6.97573e-16
3.74818e-06
6.69077e-16
3.74818e-06
5.74481e-16
3.74818e-06
4.27005e-16
3.74818e-06
2.32813e-16
3.74818e-06
1.5184e-17
3.74818e-06
-2.12252e-16
3.74818e-06
-4.19912e-16
-5.7233e-16
6.24701e-06
-1.58529e-15
6.24701e-06
-1.6241e-15
6.24701e-06
-1.4847e-15
6.24701e-06
-1.19481e-15
6.24701e-06
-7.85121e-16
6.24701e-06
-3.0727e-16
6.24701e-06
1.96691e-16
6.24701e-06
6.73266e-16
6.24701e-06
1.08374e-15
6.24701e-06
1.38834e-15
6.24701e-06
1.56028e-15
6.24701e-06
1.58516e-15
6.24701e-06
1.45696e-15
6.24701e-06
1.1925e-15
6.24701e-06
8.08426e-16
6.24701e-06
3.46977e-16
6.24701e-06
-1.583e-16
6.24701e-06
-6.51798e-16
6.24701e-06
-1.08826e-15
-1.41269e-15
8.74592e-06
-2.73409e-15
8.74592e-06
-2.7134e-15
8.74592e-06
-2.41871e-15
8.74592e-06
-1.87728e-15
8.74592e-06
-1.15671e-15
8.74592e-06
-3.24146e-16
8.74592e-06
5.28448e-16
8.74592e-06
1.32651e-15
8.74592e-06
1.9898e-15
8.74592e-06
2.4607e-15
8.74592e-06
2.69434e-15
8.74592e-06
2.66802e-15
8.74592e-06
2.38827e-15
8.74592e-06
1.87519e-15
8.74592e-06
1.18387e-15
8.74592e-06
3.69479e-16
8.74592e-06
-4.82941e-16
8.74592e-06
-1.29959e-15
8.74592e-06
-1.99063e-15
-2.48713e-15
1.12449e-05
-3.85697e-15
1.12449e-05
-3.76082e-15
1.12449e-05
-3.28555e-15
1.12449e-05
-2.48788e-15
1.12449e-05
-1.44244e-15
1.12449e-05
-2.64569e-16
1.12449e-05
9.36689e-16
1.12449e-05
2.03701e-15
1.12449e-05
2.93804e-15
1.12449e-05
3.55044e-15
1.12449e-05
3.8185e-15
1.12449e-05
3.71848e-15
1.12449e-05
3.25725e-15
1.12449e-05
2.48457e-15
1.12449e-05
1.4657e-15
1.12449e-05
3.0545e-16
1.12449e-05
-8.95022e-16
1.12449e-05
-2.01023e-15
1.12449e-05
-2.93574e-15
-3.57292e-15
1.37441e-05
-4.70002e-15
1.37441e-05
-4.51941e-15
1.37441e-05
-3.89344e-15
1.37441e-05
-2.87953e-15
1.37441e-05
-1.58707e-15
1.37441e-05
-1.37749e-16
1.37441e-05
1.31624e-15
1.37441e-05
2.64071e-15
1.37441e-05
3.70148e-15
1.37441e-05
4.40139e-15
1.37441e-05
4.67171e-15
1.37441e-05
4.48734e-15
1.37441e-05
3.86999e-15
1.37441e-05
2.87429e-15
1.37441e-05
1.60219e-15
1.37441e-05
1.67075e-16
1.37441e-05
-1.28454e-15
1.37441e-05
-2.61871e-15
1.37441e-05
-3.69656e-15
-4.4154e-15
1.62433e-05
-5.05859e-15
1.62433e-05
-4.80706e-15
1.62433e-05
-4.08079e-15
1.62433e-05
-2.95479e-15
1.62433e-05
-1.53499e-15
1.62433e-05
3.02382e-17
1.62433e-05
1.59373e-15
1.62433e-05
2.99518e-15
1.62433e-05
4.10415e-15
1.62433e-05
4.80872e-15
1.62433e-05
5.0437e-15
1.62433e-05
4.78727e-15
1.62433e-05
4.06373e-15
1.62433e-05
2.94768e-15
1.62433e-05
1.54087e-15
1.62433e-05
-1.4304e-17
1.62433e-05
-1.57451e-15
1.62433e-05
-2.97945e-15
1.62433e-05
-4.09745e-15
-4.81333e-15
1.87428e-05
-4.84189e-15
1.87428e-05
-4.53363e-15
1.87428e-05
-3.78214e-15
1.87428e-05
-2.65627e-15
1.87428e-05
-1.27142e-15
1.87428e-05
2.40993e-16
1.87428e-05
1.72614e-15
1.87428e-05
3.04411e-15
1.87428e-05
4.06026e-15
1.87428e-05
4.6795e-15
1.87428e-05
4.83907e-15
1.87428e-05
4.52546e-15
1.87428e-05
3.77148e-15
1.87428e-05
2.64842e-15
1.87428e-05
1.26948e-15
1.87428e-05
-2.37181e-16
1.87428e-05
-1.71836e-15
1.87428e-05
-3.03496e-15
1.87428e-05
-4.0527e-15
-4.67636e-15
2.12424e-05
-4.09057e-15
2.12424e-05
-3.74073e-15
2.12424e-05
-3.0252e-15
2.12424e-05
-2.01334e-15
2.12424e-05
-8.0104e-16
2.12424e-05
4.88243e-16
2.12424e-05
1.73309e-15
2.12424e-05
2.80596e-15
2.12424e-05
3.6057e-15
2.12424e-05
4.04939e-15
2.12424e-05
4.09656e-15
2.12424e-05
3.74177e-15
2.12424e-05
3.02087e-15
2.12424e-05
2.00627e-15
2.12424e-05
7.94096e-16
2.12424e-05
-4.93442e-16
2.12424e-05
-1.73463e-15
2.12424e-05
-2.80269e-15
2.12424e-05
-3.59885e-15
-4.04147e-15
2.37422e-05
-2.96539e-15
2.37422e-05
-2.58175e-15
2.37422e-05
-1.94687e-15
2.37422e-05
-1.12067e-15
2.37422e-05
-1.8466e-16
2.37422e-05
7.72148e-16
2.37422e-05
1.65327e-15
2.37422e-05
2.37575e-15
2.37422e-05
2.86354e-15
2.37422e-05
3.07172e-15
2.37422e-05
2.97638e-15
2.37422e-05
2.58951e-15
2.37422e-05
1.94842e-15
2.37422e-05
1.11613e-15
2.37422e-05
1.75656e-16
2.37422e-05
-7.83033e-16
2.37422e-05
-1.66153e-15
2.37422e-05
-2.37777e-15
2.37422e-05
-2.85874e-15
-3.06212e-15
2.62422e-05
-1.70247e-15
2.62422e-05
-1.28836e-15
2.62422e-05
-7.5114e-16
2.62422e-05
-1.40778e-16
2.62422e-05
4.84154e-16
2.62422e-05
1.06206e-15
2.62422e-05
1.53965e-15
2.62422e-05
1.86657e-15
2.62422e-05
2.01307e-15
2.62422e-05
1.95994e-15
2.62422e-05
1.71542e-15
2.62422e-05
1.30045e-15
2.62422e-05
7.57847e-16
2.62422e-05
1.39755e-16
2.62422e-05
-4.92827e-16
2.62422e-05
-1.07567e-15
2.62422e-05
-1.55231e-15
2.62422e-05
-1.87302e-15
2.62422e-05
-2.01137e-15
-1.95099e-15
2.87424e-05
-5.44263e-16
2.87424e-05
-1.10075e-16
2.87424e-05
3.34125e-16
2.87424e-05
7.43119e-16
2.87424e-05
1.07942e-15
2.87424e-05
1.31157e-15
2.87424e-05
1.41678e-15
2.87424e-05
1.38675e-15
2.87424e-05
1.22004e-15
2.87424e-05
9.35602e-16
2.87424e-05
5.56881e-16
2.87424e-05
1.24246e-16
2.87424e-05
-3.23513e-16
2.87424e-05
-7.40477e-16
2.87424e-05
-1.08624e-15
2.87424e-05
-1.32544e-15
2.87424e-05
-1.43161e-15
2.87424e-05
-1.39657e-15
2.87424e-05
-1.22162e-15
-9.28705e-16
3.12428e-05
3.14972e-16
3.12428e-05
7.54195e-16
3.12428e-05
1.11603e-15
3.12428e-05
1.36772e-15
3.12428e-05
1.4839e-15
3.12428e-05
1.4559e-15
3.12428e-05
1.28801e-15
3.12428e-05
9.94879e-16
3.12428e-05
6.07176e-16
3.12428e-05
1.58254e-16
3.12428e-05
-3.0426e-16
3.12428e-05
-7.40019e-16
3.12428e-05
-1.10327e-15
3.12428e-05
-1.362e-15
3.12428e-05
-1.48793e-15
3.12428e-05
-1.46798e-15
3.12428e-05
-1.30282e-15
3.12428e-05
-1.00667e-15
3.12428e-05
-6.11794e-16
-1.54283e-16
3.37434e-05
7.85992e-16
3.37434e-05
1.19658e-15
3.37434e-05
1.49134e-15
3.37434e-05
1.6355e-15
3.37434e-05
1.61963e-15
3.37434e-05
1.4452e-15
3.37434e-05
1.13055e-15
3.37434e-05
7.07991e-16
3.37434e-05
2.15821e-16
3.37434e-05
-2.94636e-16
3.37434e-05
-7.78448e-16
3.37434e-05
-1.18432e-15
3.37434e-05
-1.47811e-15
3.37434e-05
-1.62758e-15
3.37434e-05
-1.62034e-15
3.37434e-05
-1.45386e-15
3.37434e-05
-1.14345e-15
3.37434e-05
-7.20303e-16
3.37434e-05
-2.22874e-16
2.95313e-16
3.62441e-05
8.82604e-16
3.62441e-05
1.23445e-15
3.62441e-05
1.46277e-15
3.62441e-05
1.54728e-15
3.62441e-05
1.47741e-15
3.62441e-05
1.26358e-15
3.62441e-05
9.26883e-16
3.62441e-05
5.00044e-16
3.62441e-05
2.72462e-17
3.62441e-05
-4.49195e-16
3.62441e-05
-8.7873e-16
3.62441e-05
-1.22514e-15
3.62441e-05
-1.45069e-15
3.62441e-05
-1.53812e-15
3.62441e-05
-1.47484e-15
3.62441e-05
-1.26807e-15
3.62441e-05
-9.36563e-16
3.62441e-05
-5.11581e-16
3.62441e-05
-3.5942e-17
4.46602e-16
3.87449e-05
7.18523e-16
3.87449e-05
9.77851e-16
3.87449e-05
1.14391e-15
3.87449e-05
1.19369e-15
3.87449e-05
1.12667e-15
3.87449e-05
9.47755e-16
3.87449e-05
6.76388e-16
3.87449e-05
3.40553e-16
3.87449e-05
-2.85125e-17
3.87449e-05
-3.91593e-16
3.87449e-05
-7.17965e-16
3.87449e-05
-9.71836e-16
3.87449e-05
-1.134e-15
3.87449e-05
-1.18458e-15
3.87449e-05
-1.12175e-15
3.87449e-05
-9.48523e-16
3.87449e-05
-6.82641e-16
3.87449e-05
-3.50244e-16
3.87449e-05
1.9445e-17
3.86848e-16
4.12459e-05
4.40556e-16
4.12459e-05
6.01317e-16
4.12459e-05
7.01311e-16
4.12459e-05
7.33176e-16
4.12459e-05
6.90294e-16
4.12459e-05
5.79804e-16
4.12459e-05
4.12205e-16
4.12459e-05
2.04597e-16
4.12459e-05
-2.06443e-17
4.12459e-05
-2.44343e-16
4.12459e-05
-4.41616e-16
4.12459e-05
-5.97945e-16
4.12459e-05
-6.94412e-16
4.12459e-05
-7.256e-16
4.12459e-05
-6.84992e-16
4.12459e-05
-5.78502e-16
4.12459e-05
-4.15609e-16
4.12459e-05
-2.11793e-16
4.12459e-05
1.28159e-17
2.39365e-16
4.3747e-05
1.90366e-16
4.3747e-05
2.6154e-16
4.3747e-05
3.08597e-16
4.3747e-05
3.23502e-16
4.3747e-05
3.06792e-16
4.3747e-05
2.58622e-16
4.3747e-05
1.85267e-16
4.3747e-05
9.46178e-17
4.3747e-05
-5.21003e-18
4.3747e-05
-1.02642e-16
4.3747e-05
-1.91247e-16
4.3747e-05
-2.59751e-16
4.3747e-05
-3.04806e-16
4.3747e-05
-3.18989e-16
4.3747e-05
-3.0323e-16
4.3747e-05
-2.57324e-16
4.3747e-05
-1.87016e-16
4.3747e-05
-9.9038e-17
4.3747e-05
2.91792e-19
9.96538e-17
4.62482e-05
4.25329e-17
4.62482e-05
5.94097e-17
4.62482e-05
7.00349e-17
4.62482e-05
7.44912e-17
4.62482e-05
7.06042e-17
4.62482e-05
5.99672e-17
4.62482e-05
4.33796e-17
4.62482e-05
2.26729e-17
4.62482e-05
4.274e-19
4.62482e-05
-2.22489e-17
4.62482e-05
-4.21076e-17
4.62482e-05
-5.88114e-17
4.62482e-05
-6.91335e-17
4.62482e-05
-7.32897e-17
4.62482e-05
-6.96369e-17
4.62482e-05
-5.96588e-17
4.62482e-05
-4.42135e-17
4.62482e-05
-2.45901e-17
4.62482e-05
-1.99859e-18
2.21691e-17
4.87494e-05
4.87494e-05
4.87494e-05
4.87494e-05
4.87494e-05
4.87494e-05
4.87494e-05
4.87494e-05
4.87494e-05
4.87494e-05
4.87494e-05
4.87494e-05
4.87494e-05
4.87494e-05
4.87494e-05
4.87494e-05
4.87494e-05
4.87494e-05
4.87494e-05
)
;

boundaryField
{
    movingWall
    {
        type            calculated;
        value           uniform 0;
    }
    fixedWalls
    {
        type            calculated;
        value           uniform 0;
    }
    left
    {
        type            cyclic;
        value           nonuniform List<scalar> 
20
(
-3.87449e-05
-3.62441e-05
-3.37434e-05
-3.12428e-05
-2.87424e-05
-2.62422e-05
-2.37422e-05
-2.12424e-05
-1.87428e-05
-1.62433e-05
-1.37441e-05
-1.12449e-05
-8.74592e-06
-6.24701e-06
-3.74818e-06
-1.24939e-06
-4.12459e-05
-4.3747e-05
-4.62482e-05
-4.87494e-05
)
;
    }
    right
    {
        type            cyclic;
        value           nonuniform List<scalar> 
20
(
3.87449e-05
3.62441e-05
3.37434e-05
3.12428e-05
2.87424e-05
2.62422e-05
2.37422e-05
2.12424e-05
1.87428e-05
1.62433e-05
1.37441e-05
1.12449e-05
8.74592e-06
6.24701e-06
3.74818e-06
1.24939e-06
4.12459e-05
4.3747e-05
4.62482e-05
4.87494e-05
)
;
    }
    frontAndBack
    {
        type            empty;
        value           nonuniform List<scalar> 0();
    }
}


// ************************************************************************* //
