/*--------------------------------*- C++ -*----------------------------------*\
  =========                 |
  \\      /  F ield         | OpenFOAM: The Open Source CFD Toolbox
   \\    /   O peration     | Website:  https://openfoam.org
    \\  /    A nd           | Version:  8
     \\/     M anipulation  |
\*---------------------------------------------------------------------------*/
FoamFile
{
    version     2.0;
    format      ascii;
    class       volScalarField;
    location    "43.5";
    object      p;
}
// * * * * * * * * * * * * * * * * * * * * * * * * * * * * * * * * * * * * * //

dimensions      [0 2 -2 0 0 0 0];

internalField   nonuniform List<scalar> 
464
(
-3.44914e-08
1.6703e-06
6.93606e-06
1.48342e-05
2.5725e-05
3.94285e-05
5.61091e-05
7.48285e-05
9.74978e-05
0.000119178
0.000148605
0.000168598
-2.01896e-06
-3.24244e-07
4.92925e-06
1.28166e-05
2.374e-05
3.75879e-05
5.45726e-05
7.39011e-05
9.73997e-05
0.000120486
0.000151308
0.000174724
-7.83681e-06
-6.18227e-06
-9.41309e-07
6.92372e-06
1.78111e-05
3.15504e-05
4.81342e-05
6.71213e-05
8.92284e-05
0.000112088
0.000139623
0.000164052
-1.65488e-05
-1.49517e-05
-9.70638e-06
-1.78978e-06
9.30308e-06
2.36477e-05
4.14701e-05
6.25572e-05
8.74034e-05
0.000113841
0.000145061
0.000174135
-2.85806e-05
-2.70927e-05
-2.19037e-05
-1.40619e-05
-3.04021e-06
1.09797e-05
2.78837e-05
4.76286e-05
7.04426e-05
9.58466e-05
0.000124507
0.000154364
-4.39475e-05
-4.2617e-05
-3.75236e-05
-2.97424e-05
-1.84868e-05
-3.38086e-06
1.60772e-05
3.97509e-05
6.76316e-05
9.90134e-05
0.000134323
0.000171258
-6.23219e-05
-6.12876e-05
-5.64765e-05
-4.919e-05
-3.84787e-05
-2.47393e-05
-7.91504e-06
1.25692e-05
3.70301e-05
6.55513e-05
9.80802e-05
0.000134596
-8.48594e-05
-8.41064e-05
-7.95741e-05
-7.26508e-05
-6.15405e-05
-4.50406e-05
-2.35233e-05
3.22788e-06
3.53315e-05
7.27255e-05
0.000115368
0.000163219
-0.000109495
-0.000109535
-0.000105581
-0.000100992
-9.24821e-05
-8.14395e-05
-6.5757e-05
-4.49845e-05
-1.86891e-05
1.36372e-05
5.07611e-05
9.72381e-05
-0.000138137
-0.000137892
-0.000134677
-0.00012744
-0.000117094
-0.000100859
-7.93995e-05
-5.08842e-05
-1.53598e-05
2.83833e-05
7.87574e-05
0.000143451
-0.000175776
-0.000185021
-0.000177331
-0.000185798
-0.000176307
-0.000171031
-0.000156079
-0.000135387
-0.000107918
-6.94678e-05
-3.34518e-05
3.1753e-05
-0.000183844
-0.000183371
-0.000189163
-0.000183852
-0.000183632
-0.000171181
-0.000156138
-0.000128717
-9.47168e-05
-4.30833e-05
6.47638e-06
9.63844e-05
-0.000268776
-0.000294925
-0.000276789
-0.000314531
-0.000292995
-0.000308044
-0.000287652
-0.00026993
-0.000245071
-0.000194579
-0.000172258
-7.23371e-05
-0.00021999
-0.000220207
-0.000244673
-0.000244412
-0.000266508
-0.000261805
-0.000263933
-0.000238906
-0.000218759
-0.000154474
-0.000122482
2.29693e-06
-0.000360765
-0.00043596
-0.000393989
-0.000498681
-0.00045146
-0.000507754
-0.00047143
-0.000464853
-0.000442219
-0.000375966
-0.000380687
-0.000244471
-0.000240453
-0.000241973
-0.000300445
-0.00031342
-0.000371918
-0.000385031
-0.000416295
-0.000394788
-0.00040278
-0.000316627
-0.000329061
-0.000150725
-0.000378057
-0.000603768
-0.00052154
-0.000769925
-0.000676505
-0.000796352
-0.000729811
-0.000733273
-0.000706801
-0.00061643
-0.000658574
-0.000478539
-0.000240837
-0.000246705
-0.000359188
-0.000408461
-0.000507717
-0.000566905
-0.000633571
-0.000615916
-0.000660232
-0.000535498
-0.000610005
-0.000364911
-2.18555e-05
-0.000848929
-0.000692889
-0.00121585
-0.00103854
-0.00121623
-0.00110103
-0.00108452
-0.00104229
-0.000897102
-0.000966317
-0.000718797
-0.0011999
-0.00015357
-0.000343707
-0.000692983
-0.000782481
-0.000913826
-0.00100592
-0.000951937
-0.00101442
-0.000805728
-0.000930057
-0.000585865
0.000207425
0.000224978
0.000245316
0.000258652
0.00027179
0.000280617
0.000287328
0.000289822
0.00021598
0.000234474
0.000257058
0.00027156
0.000285722
0.000295327
0.00030254
0.000305245
0.000195627
0.00021992
0.00024583
0.000266736
0.000285696
0.00029989
0.000310023
0.000314206
0.000208909
0.000236207
0.000264791
0.000288168
0.00030915
0.000325217
0.000336508
0.00034133
0.000187852
0.000220652
0.000253301
0.000283998
0.000310446
0.000333013
0.000347878
0.000355131
0.000210292
0.000248394
0.000285751
0.00032144
0.000352023
0.000378816
0.000396253
0.000405147
0.000174763
0.000219951
0.000261777
0.000310144
0.000345495
0.00038581
0.00040654
0.000421556
0.000212688
0.000266843
0.000317261
0.00037497
0.000418496
0.000467897
0.00049408
0.000513609
0.0001426
0.00021186
0.000259
0.00034436
0.000386663
0.00046811
0.000494974
0.000532076
0.000202847
0.000285674
0.000349273
0.000449707
0.000509413
0.000608975
0.000648767
0.000698762
7.11214e-05
0.000182489
0.000223532
0.000377037
0.000420229
0.00059111
0.000626213
0.000728737
0.000158357
0.00028906
0.000357208
0.000535809
0.000611134
0.000820801
0.00088578
0.00103244
-6.71788e-05
0.000104248
0.000111298
0.000372344
0.000396083
0.00074917
0.000800628
0.0011152
3.94675e-05
0.000246508
0.000282205
0.000590342
0.000653145
0.00109048
0.00120542
0.00168039
-0.000290749
-6.83517e-05
-0.000155724
0.000232217
0.0001508
0.000822483
0.000869998
0.00186595
-0.000196186
0.000115362
1.21473e-05
0.000494168
0.000366616
0.0011951
0.00114979
0.00264212
-0.000620565
-0.000356831
-0.000638467
-0.00020637
-0.000740427
0.000280821
-0.000692871
0.00182579
-0.000526934
-0.000153907
-0.000499013
6.57919e-05
-0.000787406
0.000370171
-0.00122402
0.00259648
-0.000934261
-0.000646476
-0.00112504
-0.000835802
-0.00202217
-0.00151029
-0.00263027
0.0016666
-0.00082853
-0.000426375
-0.000826294
-0.000479988
-0.000837812
0.00043444
0.00331057
0.0120401
0.000262565
0.000262881
0.0002637
0.000264651
0.000265748
0.000266661
0.0002674
0.000267678
0.000263511
0.000263835
0.000264664
0.000265628
0.000266705
0.000267597
0.000268316
0.000268581
0.000260125
0.000260659
0.000261973
0.00026343
0.000265129
0.000266505
0.000267613
0.00026803
0.000262791
0.000263404
0.000264843
0.000266456
0.000268179
0.000269578
0.000270684
0.000271087
0.000254573
0.00025593
0.000258834
0.000261751
0.000265128
0.000267681
0.000269742
0.0002705
0.000259155
0.000260776
0.00026396
0.000267269
0.000270678
0.000273338
0.000275418
0.000276172
0.000241664
0.000246008
0.000253329
0.000259643
0.000266578
0.000271459
0.000275335
0.000276741
0.000248086
0.000253602
0.000261419
0.000268414
0.000275496
0.000280643
0.000284646
0.000286092
)
;

boundaryField
{
    movingWall
    {
        type            zeroGradient;
    }
    fixedWalls
    {
        type            zeroGradient;
    }
    frontAndBack
    {
        type            empty;
    }
}


// ************************************************************************* //
