/*--------------------------------*- C++ -*----------------------------------*\
  =========                 |
  \\      /  F ield         | OpenFOAM: The Open Source CFD Toolbox
   \\    /   O peration     | Website:  https://openfoam.org
    \\  /    A nd           | Version:  8
     \\/     M anipulation  |
\*---------------------------------------------------------------------------*/
FoamFile
{
    version     2.0;
    format      ascii;
    class       volVectorField;
    location    "43.5";
    object      U;
}
// * * * * * * * * * * * * * * * * * * * * * * * * * * * * * * * * * * * * * //

dimensions      [0 1 -1 0 0 0 0];

internalField   nonuniform List<vector> 
464
(
(-0.000158676 0.000157276 0)
(-0.000509247 0.000169576 0)
(-0.000869958 0.000163365 0)
(-0.00120318 0.000153493 0)
(-0.00151567 0.000140266 0)
(-0.00179926 0.000123451 0)
(-0.00203934 0.00010312 0)
(-0.00226096 7.75374e-05 0)
(-0.00238381 4.82904e-05 0)
(-0.00256572 8.56747e-06 0)
(-0.00250427 -2.65672e-05 0)
(-0.00273731 7.98915e-06 0)
(-0.000177514 0.000510702 0)
(-0.000568127 0.00054911 0)
(-0.000969249 0.000529129 0)
(-0.00134006 0.000497736 0)
(-0.00168794 0.000456641 0)
(-0.00200383 0.000406614 0)
(-0.00227379 0.00035116 0)
(-0.00252229 0.000286296 0)
(-0.0026702 0.000234935 0)
(-0.00287611 0.000149777 0)
(-0.00284611 0.00015394 0)
(-0.003105 1.82709e-05 0)
(-0.000184607 0.000895428 0)
(-0.000590943 0.00096139 0)
(-0.00100818 0.000926078 0)
(-0.00139328 0.000870464 0)
(-0.00175371 0.000797383 0)
(-0.00207756 0.000707543 0)
(-0.00235416 0.000604243 0)
(-0.00258995 0.000482488 0)
(-0.00274403 0.000366994 0)
(-0.00288343 0.000210873 0)
(-0.00287443 0.00014461 0)
(-0.00289432 -5.16728e-05 0)
(-0.000194898 0.00128806 0)
(-0.000624056 0.00138278 0)
(-0.00106519 0.00133191 0)
(-0.00147274 0.00125169 0)
(-0.00185574 0.00114619 0)
(-0.00220262 0.00101697 0)
(-0.00250516 0.000868494 0)
(-0.00276624 0.000700528 0)
(-0.00294884 0.000526708 0)
(-0.00310565 0.000319563 0)
(-0.00311498 0.000148094 0)
(-0.00312277 -0.00011766 0)
(-0.000208889 0.00171072 0)
(-0.000669027 0.00183641 0)
(-0.00114234 0.00176894 0)
(-0.00157913 0.00166233 0)
(-0.00198854 0.00152225 0)
(-0.00235536 0.00134978 0)
(-0.00267069 0.00114799 0)
(-0.00293174 0.000916248 0)
(-0.00312507 0.0006668 0)
(-0.00326207 0.000380208 0)
(-0.00331172 0.000115464 0)
(-0.00330626 -0.000225144 0)
(-0.000227168 0.00216054 0)
(-0.000727592 0.00232063 0)
(-0.00124318 0.00223636 0)
(-0.00171948 0.00210286 0)
(-0.00216831 0.00192741 0)
(-0.00257693 0.00171246 0)
(-0.00293884 0.0014648 0)
(-0.00324761 0.00118534 0)
(-0.00348524 0.000880822 0)
(-0.00365712 0.000544758 0)
(-0.00372052 0.000195728 0)
(-0.00370247 -0.000202805 0)
(-0.000248883 0.0026687 0)
(-0.000797962 0.00286462 0)
(-0.00136492 0.00275925 0)
(-0.00188812 0.00259175 0)
(-0.0023789 0.00237481 0)
(-0.00281786 0.00210503 0)
(-0.00319759 0.00178937 0)
(-0.00351534 0.00142842 0)
(-0.00376526 0.0010294 0)
(-0.00394675 0.000589068 0)
(-0.00405922 0.000123024 0)
(-0.00409431 -0.000387551 0)
(-0.000278602 0.00319022 0)
(-0.000890013 0.00343131 0)
(-0.00152189 0.00330844 0)
(-0.00210403 0.00311565 0)
(-0.00265508 0.0028646 0)
(-0.00316258 0.00255772 0)
(-0.00361585 0.00220444 0)
(-0.00400819 0.00180496 0)
(-0.00432537 0.00136629 0)
(-0.00456402 0.000887062 0)
(-0.00469746 0.000375431 0)
(-0.00471932 -0.000191691 0)
(-0.00030538 0.00385104 0)
(-0.000983785 0.00413158 0)
(-0.00168721 0.00397999 0)
(-0.00233197 0.0037267 0)
(-0.00293661 0.00341532 0)
(-0.0034777 0.0030216 0)
(-0.00394965 0.00257745 0)
(-0.00435252 0.00207087 0)
(-0.00468198 0.0015142 0)
(-0.00493659 0.000901345 0)
(-0.00513722 0.000241407 0)
(-0.00523173 -0.000494015 0)
(-0.000358729 0.00445767 0)
(-0.00112921 0.0048277 0)
(-0.00193485 0.00463799 0)
(-0.00266913 0.00440598 0)
(-0.00336034 0.00405517 0)
(-0.00400125 0.00364351 0)
(-0.00456765 0.00316608 0)
(-0.00507319 0.00262847 0)
(-0.00549686 0.00204596 0)
(-0.00583857 0.00140703 0)
(-0.00609365 0.00075841 0)
(-0.00618562 -3.30762e-05 0)
(-0.000353696 0.00530794 0)
(-0.00122987 0.00564779 0)
(-0.00211639 0.00547295 0)
(-0.0029144 0.00505268 0)
(-0.00369804 0.00466601 0)
(-0.00436595 0.00410578 0)
(-0.00496273 0.00354297 0)
(-0.00547034 0.00287619 0)
(-0.00590049 0.00216991 0)
(-0.00622174 0.00137542 0)
(-0.00657434 0.000555667 0)
(-0.00669048 -0.000463477 0)
(-0.000532318 0.00613376 0)
(-0.00148594 0.00677987 0)
(-0.00254195 0.00638637 0)
(-0.00347823 0.00620536 0)
(-0.00430775 0.00560659 0)
(-0.00512702 0.0050963 0)
(-0.00579941 0.0044211 0)
(-0.00645053 0.00371201 0)
(-0.00700188 0.00297796 0)
(-0.0074579 0.00214301 0)
(-0.00793465 0.0014315 0)
(-0.00810779 0.000342218 0)
(-0.000275467 0.00714499 0)
(-0.00155588 0.00738925 0)
(-0.00269392 0.0073171 0)
(-0.00369223 0.00652542 0)
(-0.0048038 0.00615745 0)
(-0.00554962 0.00533202 0)
(-0.00634254 0.00470153 0)
(-0.00690928 0.00384367 0)
(-0.00746323 0.00304938 0)
(-0.00776377 0.00206148 0)
(-0.00836687 0.00119381 0)
(-0.0083706 -0.000125198 0)
(-0.00103409 0.0082104 0)
(-0.0020555 0.00961242 0)
(-0.00342772 0.00868173 0)
(-0.00464504 0.00878074 0)
(-0.00550059 0.00760957 0)
(-0.0065904 0.00703729 0)
(-0.00729031 0.0059723 0)
(-0.00811183 0.00506254 0)
(-0.00879074 0.00415055 0)
(-0.00932546 0.00308993 0)
(-0.0101263 0.00242025 0)
(-0.0103651 0.00102488 0)
(0.000406392 0.00989823 0)
(-0.00183346 0.00927053 0)
(-0.00350587 0.00963913 0)
(-0.00475998 0.00805316 0)
(-0.00654301 0.00785404 0)
(-0.00718296 0.00664881 0)
(-0.00831016 0.00600376 0)
(-0.00872436 0.00493448 0)
(-0.00942505 0.00413542 0)
(-0.00948759 0.00297615 0)
(-0.0104175 0.00225555 0)
(-0.0100281 0.000667654 0)
(-0.00285298 0.010027 0)
(-0.00337551 0.0142372 0)
(-0.00465725 0.0118511 0)
(-0.00644537 0.0126331 0)
(-0.0068931 0.0102272 0)
(-0.00846044 0.00949483 0)
(-0.00900642 0.0077334 0)
(-0.00999686 0.00655394 0)
(-0.0107563 0.00537795 0)
(-0.011226 0.00411291 0)
(-0.012445 0.00354525 0)
(-0.012509 0.00200292 0)
(0.00262257 0.0156819 0)
(-0.00131883 0.0102361 0)
(-0.0053807 0.0123134 0)
(-0.0064611 0.00940478 0)
(-0.00972462 0.00948714 0)
(-0.00966222 0.00802714 0)
(-0.0112402 0.00725562 0)
(-0.0110622 0.00605741 0)
(-0.0118499 0.00525684 0)
(-0.0113115 0.00401904 0)
(-0.0125164 0.00364039 0)
(-0.0112141 0.00200679 0)
(0.000357808 0.00908263 0)
(-0.0038726 0.0233738 0)
(-0.0017867 0.0172956 0)
(-0.00804689 0.0183106 0)
(-0.0076012 0.0136747 0)
(-0.0104914 0.0120772 0)
(-0.0109274 0.00938713 0)
(-0.0120287 0.00770766 0)
(-0.0128247 0.00623589 0)
(-0.0128703 0.00478731 0)
(-0.0144528 0.00424461 0)
(-0.013769 0.00275414 0)
(-0.0323086 0.01954 0)
(-0.0178944 0.0111078 0)
(-0.0327869 0.0158346 0)
(-0.0225793 0.0138978 0)
(-0.0256409 0.0112888 0)
(-0.0196102 0.0103482 0)
(-0.0188924 0.00841807 0)
(-0.0154526 0.00710191 0)
(-0.0143195 0.00604324 0)
(-0.0114309 0.0047747 0)
(-0.0117119 0.0047586 0)
(-0.00770633 0.00341646 0)
(0.0316463 0.0571648 0)
(0.0469945 0.0264081 0)
(0.0668325 0.0215949 0)
(0.0842223 0.0134183 0)
(0.0947159 0.0105871 0)
(0.104961 0.00676009 0)
(0.111567 0.00533625 0)
(0.119236 0.00367473 0)
(0.121004 0.00287853 0)
(0.129496 0.00207566 0)
(0.125895 0.00134519 0)
(0.137637 0.000977339 0)
(-0.00246986 0.00139877 0)
(-0.00173125 0.000767243 0)
(-0.00151756 0.000155269 0)
(-0.00118 -0.00019124 0)
(-0.000950452 -0.000480488 0)
(-0.000669368 -0.000669602 0)
(-0.000398896 -0.0007956 0)
(-0.0001222 -0.000783321 0)
(-0.00272928 0.000319441 0)
(-0.00194093 -2.81183e-05 0)
(-0.00170501 -0.000276604 0)
(-0.00132959 -0.000573075 0)
(-0.00107284 -0.000798198 0)
(-0.000761132 -0.000987872 0)
(-0.000453568 -0.0011084 0)
(-0.000139905 -0.00107456 0)
(-0.00269286 0.000138128 0)
(-0.00232786 -0.000240889 0)
(-0.00206216 -0.000501313 0)
(-0.00170121 -0.000835436 0)
(-0.00136504 -0.00109278 0)
(-0.00098234 -0.00131348 0)
(-0.000582423 -0.00145407 0)
(-0.000182228 -0.00140402 0)
(-0.0029236 -0.000262756 0)
(-0.00257877 -0.000607499 0)
(-0.00229995 -0.000887998 0)
(-0.00192085 -0.00121616 0)
(-0.00155151 -0.00148425 0)
(-0.00112678 -0.00172179 0)
(-0.000670161 -0.00187376 0)
(-0.000211661 -0.00179802 0)
(-0.00318239 -0.00046404 0)
(-0.00295276 -0.000876474 0)
(-0.00267106 -0.00122722 0)
(-0.00229711 -0.00162288 0)
(-0.00187066 -0.0019512 0)
(-0.00137707 -0.00224488 0)
(-0.000821423 -0.00243135 0)
(-0.000263918 -0.00233602 0)
(-0.00357501 -0.000592692 0)
(-0.00334166 -0.00105246 0)
(-0.00304672 -0.00148108 0)
(-0.00264505 -0.00194967 0)
(-0.0021741 -0.00232486 0)
(-0.00161441 -0.00270084 0)
(-0.000967894 -0.0029141 0)
(-0.000315726 -0.00280893 0)
(-0.00403187 -0.000893442 0)
(-0.00384062 -0.00146535 0)
(-0.00356758 -0.00200611 0)
(-0.00314049 -0.00259709 0)
(-0.00262126 -0.00307208 0)
(-0.00197513 -0.00356211 0)
(-0.00118503 -0.00383591 0)
(-0.000405268 -0.00371908 0)
(-0.00465336 -0.0007626 0)
(-0.00445549 -0.00145793 0)
(-0.00417891 -0.00203064 0)
(-0.003713 -0.00282108 0)
(-0.0031398 -0.00331214 0)
(-0.00239187 -0.0040387 0)
(-0.0014479 -0.00431956 0)
(-0.000509883 -0.0042724 0)
(-0.00529625 -0.00122299 0)
(-0.00510807 -0.00209048 0)
(-0.00492701 -0.00284311 0)
(-0.00442203 -0.00384289 0)
(-0.00383509 -0.00451677 0)
(-0.00299764 -0.00547627 0)
(-0.0018063 -0.00588008 0)
(-0.000730367 -0.00586855 0)
(-0.00625053 -0.000701182 0)
(-0.00608071 -0.00178696 0)
(-0.00593062 -0.00242592 0)
(-0.00539495 -0.00383384 0)
(-0.00477172 -0.00439691 0)
(-0.00378447 -0.00593024 0)
(-0.00234045 -0.00627431 0)
(-0.000979353 -0.00659618 0)
(-0.00704305 -0.00136004 0)
(-0.00683307 -0.00268411 0)
(-0.00695893 -0.00362539 0)
(-0.00639699 -0.00537363 0)
(-0.00591163 -0.00628896 0)
(-0.00490729 -0.0083146 0)
(-0.00305934 -0.00893442 0)
(-0.00161475 -0.00953146 0)
(-0.0084714 -0.000250008 0)
(-0.00836205 -0.00187964 0)
(-0.00861404 -0.00237304 0)
(-0.00808758 -0.00481708 0)
(-0.007695 -0.0052892 0)
(-0.00651406 -0.00860629 0)
(-0.00434752 -0.00899478 0)
(-0.00236198 -0.0109291 0)
(-0.00924454 -0.00104629 0)
(-0.00895752 -0.00299122 0)
(-0.00984561 -0.00394605 0)
(-0.00933148 -0.0069271 0)
(-0.00960442 -0.00802809 0)
(-0.00872021 -0.0123952 0)
(-0.0062683 -0.0134307 0)
(-0.00449904 -0.0168604 0)
(-0.0113405 0.000756975 0)
(-0.0113024 -0.0013926 0)
(-0.0125388 -0.00126513 0)
(-0.0122534 -0.00506115 0)
(-0.0130743 -0.0049098 0)
(-0.0122289 -0.0117618 0)
(-0.00998762 -0.0121391 0)
(-0.00756147 -0.0211603 0)
(-0.0116211 0.000149321 0)
(-0.010966 -0.00247954 0)
(-0.0133753 -0.00283868 0)
(-0.0129932 -0.00742846 0)
(-0.0158983 -0.00807258 0)
(-0.0163602 -0.0168156 0)
(-0.016141 -0.0184082 0)
(-0.015772 -0.0356017 0)
(-0.0145164 0.00233846 0)
(-0.0143798 5.5178e-05 0)
(-0.0175478 0.00167126 0)
(-0.0176581 -0.00274864 0)
(-0.0223053 -5.92757e-05 0)
(-0.0231798 -0.0115419 0)
(-0.0262306 -0.0105909 0)
(-0.0233999 -0.0521345 0)
(-0.013544 0.00236539 0)
(-0.0115193 -0.00033621 0)
(-0.0159457 0.00104509 0)
(-0.0142693 -0.00422197 0)
(-0.0230812 -0.00179518 0)
(-0.0242751 -0.0153635 0)
(-0.0353495 -0.017892 0)
(-0.0188938 -0.08853 0)
(-0.0168749 0.00361877 0)
(-0.0157189 0.00183328 0)
(-0.0217195 0.00571624 0)
(-0.0200445 0.00354955 0)
(-0.0315733 0.0120179 0)
(-0.0232725 -0.000406898 0)
(-0.0393886 -0.0121689 0)
(0.0122872 -0.104429 0)
(-0.0102181 0.00476586 0)
(-0.00297946 0.00322099 0)
(-0.00887839 0.00607435 0)
(0.00640495 0.00361193 0)
(-0.004895 0.00266148 0)
(0.026994 -0.0113383 0)
(0.00179375 -0.0529175 0)
(0.0419196 -0.122336 0)
(0.12774 -0.000196549 0)
(0.144763 0.000214583 0)
(0.128189 -0.00273718 0)
(0.150857 -0.000311247 0)
(0.128092 -0.0070047 0)
(0.148547 -0.0073916 0)
(0.105787 -0.0207995 0)
(0.0785129 -0.0539467 0)
(-1.69278e-05 -1.70134e-05 0)
(-5.16765e-05 -1.92394e-05 0)
(-7.74545e-05 -2.15341e-05 0)
(-8.92039e-05 -2.4597e-05 0)
(-8.70611e-05 -2.63719e-05 0)
(-7.16678e-05 -2.80276e-05 0)
(-4.56792e-05 -2.89355e-05 0)
(-1.45743e-05 -2.73576e-05 0)
(-1.99535e-05 8.67117e-05 0)
(-5.99994e-05 8.17333e-05 0)
(-8.95782e-05 5.95492e-05 0)
(-0.000101836 3.51453e-05 0)
(-9.80944e-05 8.91051e-06 0)
(-8.05543e-05 -1.22222e-05 0)
(-5.11462e-05 -2.79366e-05 0)
(-1.63788e-05 -3.18323e-05 0)
(-3.05271e-05 5.85788e-05 0)
(-9.07396e-05 4.73575e-05 0)
(-0.000131181 1.71337e-05 0)
(-0.000147829 -1.70617e-05 0)
(-0.00014221 -4.98782e-05 0)
(-0.00011503 -7.70298e-05 0)
(-7.28071e-05 -9.64372e-05 0)
(-2.31238e-05 -9.72547e-05 0)
(-3.71567e-05 0.000215117 0)
(-0.000107702 0.000190475 0)
(-0.000154417 0.000120537 0)
(-0.000169121 4.96439e-05 0)
(-0.00015834 -2.17571e-05 0)
(-0.00012758 -7.6556e-05 0)
(-7.99838e-05 -0.00011613 0)
(-2.54709e-05 -0.000122803 0)
(-7.33682e-05 0.000191344 0)
(-0.000204017 0.00015531 0)
(-0.000272512 7.04488e-05 0)
(-0.000290076 -1.58287e-05 0)
(-0.00026834 -9.71345e-05 0)
(-0.000209667 -0.000161212 0)
(-0.000130538 -0.000206541 0)
(-4.09762e-05 -0.000209139 0)
(-9.07943e-05 0.000509986 0)
(-0.000246743 0.000407532 0)
(-0.000326233 0.000214176 0)
(-0.000336847 5.2147e-05 0)
(-0.000303911 -9.76955e-05 0)
(-0.00023767 -0.00020333 0)
(-0.000146691 -0.000277101 0)
(-4.62417e-05 -0.000284384 0)
(-0.0002205 0.000502975 0)
(-0.000544966 0.000370265 0)
(-0.000628907 0.000144809 0)
(-0.000601547 -4.02096e-05 0)
(-0.000523484 -0.000208513 0)
(-0.000389551 -0.000328903 0)
(-0.000237412 -0.000412427 0)
(-7.34216e-05 -0.000413458 0)
(-0.000300264 0.00131815 0)
(-0.000653019 0.000849922 0)
(-0.000739673 0.000280227 0)
(-0.000690765 -4.11493e-05 0)
(-0.00059322 -0.000301719 0)
(-0.000443089 -0.000469312 0)
(-0.000268772 -0.000580652 0)
(-8.35262e-05 -0.000578772 0)
)
;

boundaryField
{
    movingWall
    {
        type            fixedValue;
        value           uniform (1 0 0);
    }
    fixedWalls
    {
        type            noSlip;
    }
    frontAndBack
    {
        type            empty;
    }
}


// ************************************************************************* //
