/*--------------------------------*- C++ -*----------------------------------*\
  =========                 |
  \\      /  F ield         | OpenFOAM: The Open Source CFD Toolbox
   \\    /   O peration     | Website:  https://openfoam.org
    \\  /    A nd           | Version:  8
     \\/     M anipulation  |
\*---------------------------------------------------------------------------*/
FoamFile
{
    version     2.0;
    format      ascii;
    class       surfaceScalarField;
    location    "1";
    object      phi;
}
// * * * * * * * * * * * * * * * * * * * * * * * * * * * * * * * * * * * * * //

dimensions      [0 3 -1 0 0 0 0];

internalField   nonuniform List<scalar> 
880
(
-5.52767e-07
5.5277e-07
-1.09255e-06
5.39787e-07
-1.60471e-06
5.12156e-07
-2.07684e-06
4.72135e-07
-2.49817e-06
4.21325e-07
-2.85988e-06
3.61715e-07
-3.15559e-06
2.95706e-07
-3.38197e-06
2.26381e-07
-3.53902e-06
1.57048e-07
-3.63113e-06
9.21132e-08
-3.67858e-06
4.7447e-08
-6.05427e-09
-3.67253e-06
-5.67848e-07
1.12062e-06
-1.12213e-06
1.09407e-06
-1.64761e-06
1.03763e-06
-2.13139e-06
9.55921e-07
-2.56227e-06
8.52201e-07
-2.93098e-06
7.30431e-07
-3.23049e-06
5.95208e-07
-3.4562e-06
4.52092e-07
-3.60673e-06
3.07577e-07
-3.68369e-06
1.69074e-07
-3.68929e-06
5.30487e-08
-5.5983e-08
-3.63936e-06
-5.96406e-07
1.71702e-06
-1.17809e-06
1.67575e-06
-1.72866e-06
1.58819e-06
-2.23432e-06
1.46158e-06
-2.68312e-06
1.30101e-06
-3.06515e-06
1.11245e-06
-3.37241e-06
9.02469e-07
-3.59832e-06
6.78005e-07
-3.737e-06
4.4626e-07
-3.78181e-06
2.13883e-07
-3.7225e-06
-6.26436e-09
-2.22683e-07
-3.5558e-06
-6.4073e-07
2.35775e-06
-1.26487e-06
2.2999e-06
-1.85423e-06
2.17755e-06
-2.3937e-06
2.00105e-06
-2.8704e-06
1.77771e-06
-3.27382e-06
1.51587e-06
-3.59558e-06
1.22423e-06
-3.82901e-06
9.11438e-07
-3.96858e-06
5.85832e-07
-4.00998e-06
2.5528e-07
-3.94254e-06
-7.37017e-08
-3.97929e-07
-3.7673e-06
-7.02717e-07
3.06047e-06
-1.38606e-06
2.98324e-06
-2.02924e-06
2.82074e-06
-2.61538e-06
2.58719e-06
-3.13058e-06
2.2929e-06
-3.56388e-06
1.94917e-06
-3.90694e-06
1.56729e-06
-4.1534e-06
1.1579e-06
-4.29816e-06
7.30599e-07
-4.33664e-06
2.93751e-07
-4.26449e-06
-1.45842e-07
-5.83727e-07
-4.0787e-06
-7.85171e-07
3.84564e-06
-1.54685e-06
3.74492e-06
-2.26064e-06
3.53453e-06
-2.90741e-06
3.23396e-06
-3.47216e-06
2.85766e-06
-3.94386e-06
2.42087e-06
-4.31475e-06
1.93818e-06
-4.57947e-06
1.42261e-06
-4.73419e-06
8.85316e-07
-4.77594e-06
3.35505e-07
-4.70232e-06
-2.19463e-07
-7.73606e-07
-4.51244e-06
-8.92172e-07
4.73781e-06
-1.75467e-06
4.60741e-06
-2.55814e-06
4.338e-06
-3.28061e-06
3.95643e-06
-3.90616e-06
3.4832e-06
-4.42426e-06
2.93897e-06
-4.82855e-06
2.34247e-06
-5.11551e-06
1.70957e-06
-5.28318e-06
1.05299e-06
-5.33037e-06
3.82697e-07
-5.25625e-06
-2.93579e-07
-9.69017e-07
-5.06084e-06
-1.02972e-06
5.76753e-06
-2.02015e-06
5.59785e-06
-2.93521e-06
5.25307e-06
-3.74953e-06
4.77075e-06
-4.44676e-06
4.18043e-06
-5.01797e-06
3.51018e-06
-5.45951e-06
2.78401e-06
-5.77083e-06
2.02088e-06
-5.95271e-06
1.23487e-06
-6.00605e-06
4.36039e-07
-5.93124e-06
-3.68395e-07
-1.17203e-06
-5.72822e-06
-1.20686e-06
6.97439e-06
-2.35876e-06
6.74975e-06
-3.41083e-06
6.30514e-06
-4.33384e-06
5.69375e-06
-5.11231e-06
4.9589e-06
-5.74086e-06
4.13874e-06
-6.22059e-06
3.26374e-06
-6.55572e-06
2.35602e-06
-6.75103e-06
1.43018e-06
-6.81011e-06
4.95118e-07
-6.73448e-06
-4.44022e-07
-1.38315e-06
-6.52337e-06
-1.43779e-06
8.41219e-06
-2.79352e-06
8.10547e-06
-4.01208e-06
7.52371e-06
-5.06032e-06
6.74199e-06
-5.92646e-06
5.82504e-06
-6.61213e-06
4.8244e-06
-7.1264e-06
3.77801e-06
-7.48085e-06
2.71047e-06
-7.68607e-06
1.6354e-06
-7.74938e-06
5.5842e-07
-7.67364e-06
-5.19762e-07
-1.60004e-06
-7.45674e-06
-1.74572e-06
1.01579e-05
-3.35947e-06
9.71921e-06
-4.77826e-06
8.94251e-06
-5.96569e-06
7.92941e-06
-6.9197e-06
6.77905e-06
-7.65468e-06
5.55938e-06
-8.19259e-06
4.31592e-06
-8.55599e-06
3.07387e-06
-8.76377e-06
1.84318e-06
-8.82844e-06
6.23096e-07
-8.75459e-06
-5.93613e-07
-1.81627e-06
-8.53836e-06
-2.1704e-06
1.23283e-05
-4.11139e-06
1.16602e-05
-5.76731e-06
1.05984e-05
-7.10056e-06
9.26266e-06
-8.13105e-06
7.80954e-06
-8.89516e-06
6.32349e-06
-9.43432e-06
4.85509e-06
-9.78759e-06
3.42714e-06
-9.98553e-06
2.04112e-06
-1.00471e-05
6.84667e-07
-9.97888e-06
-6.6183e-07
-2.02026e-06
-9.77489e-06
-2.7822e-06
1.51105e-05
-5.13663e-06
1.40146e-05
-7.06563e-06
1.25274e-05
-8.53471e-06
1.07317e-05
-9.60962e-06
8.88445e-06
-1.0361e-05
7.07488e-06
-1.08626e-05
5.35669e-06
-1.1176e-05
3.74052e-06
-1.13454e-05
2.21055e-06
-1.13974e-05
7.36607e-07
-1.13407e-05
-7.18475e-07
-2.19392e-06
-1.11671e-05
-3.71994e-06
1.88305e-05
-6.57945e-06
1.68741e-05
-8.80358e-06
1.47516e-05
-1.03633e-05
1.22915e-05
-1.14104e-05
9.93156e-06
-1.20772e-05
7.74167e-06
-1.24814e-05
5.76093e-06
-1.2711e-05
3.97011e-06
-1.28254e-05
2.32492e-06
-1.28587e-05
7.69912e-07
-1.28221e-05
-7.55022e-07
-2.31112e-06
-1.27049e-05
-5.19462e-06
2.40251e-05
-8.65247e-06
2.0332e-05
-1.11735e-05
1.72726e-05
-1.27029e-05
1.38209e-05
-1.35913e-05
1.08199e-05
-1.40602e-05
8.21059e-06
-1.42796e-05
5.98025e-06
-1.43649e-05
4.05545e-06
-1.43891e-05
2.34917e-06
-1.43922e-05
7.73019e-07
-1.4387e-05
-7.60312e-07
-2.33717e-06
-1.43609e-05
-8.02304e-06
3.20481e-05
-1.18104e-05
2.41194e-05
-1.4479e-05
1.99412e-05
-1.56928e-05
1.50347e-05
-1.62028e-05
1.13299e-05
-1.63037e-05
8.31159e-06
-1.62185e-05
5.895e-06
-1.60838e-05
3.9208e-06
-1.5978e-05
2.24337e-06
-1.59386e-05
7.33545e-07
-1.59766e-05
-7.22309e-07
-2.23249e-06
-1.60813e-05
-1.14835e-05
4.35316e-05
-1.58358e-05
2.84717e-05
-1.87155e-05
2.28209e-05
-1.93807e-05
1.56999e-05
-1.92266e-05
1.11757e-05
-1.87405e-05
7.82551e-06
-1.82145e-05
5.36904e-06
-1.7785e-05
3.49125e-06
-1.7511e-05
1.96939e-06
-1.74171e-05
6.39636e-07
-1.75099e-05
-6.295e-07
-1.95927e-06
-1.77831e-05
-2.45587e-05
6.80903e-05
-2.5964e-05
2.9877e-05
-2.61826e-05
2.30396e-05
-2.45161e-05
1.40333e-05
-2.27815e-05
9.44111e-06
-2.13038e-05
6.34786e-06
-2.01593e-05
4.2245e-06
-1.93526e-05
2.68456e-06
-1.88759e-05
1.49266e-06
-1.87181e-05
4.81865e-07
-1.88748e-05
-4.72791e-07
-1.48324e-06
-1.93508e-05
-3.09039e-05
9.89942e-05
-3.16888e-05
3.06618e-05
-3.11381e-05
2.24889e-05
-2.83304e-05
1.12256e-05
-2.55729e-05
6.68364e-06
-2.32646e-05
4.03957e-06
-2.15459e-05
2.50577e-06
-2.03867e-05
1.52543e-06
-1.97218e-05
8.2777e-07
-1.95046e-05
2.64656e-07
-1.97189e-05
-2.58507e-07
-8.21253e-07
-2.03809e-05
9.89942e-05
0.000129656
0.000152145
0.00016337
0.000170054
0.000174094
0.000176599
0.000178125
0.000178953
0.000179217
0.000178959
0.000178138
-2.67581e-06
9.25079e-07
-1.9218e-06
-2.03601e-06
3.20961e-07
-9.60762e-07
-1.62081e-06
-1.51609e-07
-2.63588e-07
-1.27134e-06
-5.322e-07
1.82729e-07
-9.46383e-07
-8.17017e-07
4.92064e-07
-6.32709e-07
-1.02305e-06
7.09378e-07
-3.17403e-07
-1.16342e-06
8.48111e-07
-1.23127e-06
9.13865e-07
-2.83716e-06
1.22879e-07
-2.28608e-06
-2.30119e-07
-1.87312e-06
-5.64567e-07
-1.50879e-06
-8.9653e-07
-1.14601e-06
-1.1798e-06
-7.70628e-07
-1.39843e-06
-3.87195e-07
-1.54685e-06
-1.61846e-06
-3.11317e-06
-3.19751e-07
-2.68162e-06
-6.61666e-07
-2.24033e-06
-1.00586e-06
-1.80521e-06
-1.33165e-06
-1.3671e-06
-1.61791e-06
-9.19339e-07
-1.84619e-06
-4.6204e-07
-2.00415e-06
-2.0805e-06
-3.39239e-06
-6.94661e-07
-2.98939e-06
-1.06466e-06
-2.55346e-06
-1.44179e-06
-2.08646e-06
-1.79866e-06
-1.59247e-06
-2.1119e-06
-1.07571e-06
-2.36295e-06
-5.41897e-07
-2.53796e-06
-2.6224e-06
-3.76013e-06
-1.01322e-06
-3.36432e-06
-1.46048e-06
-2.90639e-06
-1.89972e-06
-2.39589e-06
-2.30915e-06
-1.84056e-06
-2.66723e-06
-1.24872e-06
-2.95479e-06
-6.30634e-07
-3.15605e-06
-3.25303e-06
-4.20414e-06
-1.32153e-06
-3.79964e-06
-1.86498e-06
-3.3115e-06
-2.38786e-06
-2.74989e-06
-2.87077e-06
-2.12466e-06
-3.29246e-06
-1.44745e-06
-3.63199e-06
-7.32852e-07
-3.87065e-06
-3.98589e-06
-4.74526e-06
-1.63711e-06
-4.31899e-06
-2.29125e-06
-3.79017e-06
-2.91668e-06
-3.16714e-06
-3.4938e-06
-2.46008e-06
-3.99952e-06
-1.68285e-06
-4.40922e-06
-8.54309e-07
-4.69919e-06
-4.84019e-06
-5.39718e-06
-1.96815e-06
-4.94091e-06
-2.74752e-06
-4.36272e-06
-3.49487e-06
-3.66763e-06
-4.18888e-06
-2.86449e-06
-4.80267e-06
-1.96833e-06
-5.30538e-06
-1.00239e-06
-5.66514e-06
-5.84258e-06
-6.17431e-06
-2.31721e-06
-5.68451e-06
-3.23732e-06
-5.0514e-06
-4.12798e-06
-4.27476e-06
-4.96551e-06
-3.35993e-06
-5.7175e-06
-2.3215e-06
-6.34381e-06
-1.18721e-06
-6.79943e-06
-7.02979e-06
-7.09238e-06
-2.68158e-06
-6.57115e-06
-3.75854e-06
-5.88251e-06
-4.81662e-06
-5.01791e-06
-5.83012e-06
-3.97567e-06
-6.75975e-06
-2.76692e-06
-7.55256e-06
-1.4238e-06
-8.14255e-06
-8.45359e-06
-8.16794e-06
-3.052e-06
-7.62523e-06
-4.30125e-06
-6.88834e-06
-5.5535e-06
-5.93563e-06
-6.78283e-06
-4.75261e-06
-7.94277e-06
-3.34084e-06
-8.96434e-06
-1.73598e-06
-9.74741e-06
-1.01896e-05
-9.41674e-06
-3.41015e-06
-8.87441e-06
-4.84359e-06
-8.10918e-06
-6.31872e-06
-7.07985e-06
-7.81216e-06
-5.74987e-06
-9.27275e-06
-4.09891e-06
-1.06153e-05
-2.164e-06
-1.16823e-05
-1.23536e-05
-1.08504e-05
-3.72681e-06
-1.03468e-05
-5.34715e-06
-9.59505e-06
-7.07051e-06
-8.52129e-06
-8.88592e-06
-7.05476e-06
-1.07393e-05
-5.12922e-06
-1.25408e-05
-2.77871e-06
-1.40328e-05
-1.51323e-05
-1.24733e-05
-3.95845e-06
-1.20681e-05
-5.75236e-06
-1.14015e-05
-7.73706e-06
-1.03558e-05
-9.93162e-06
-8.79838e-06
-1.22967e-05
-6.5767e-06
-1.47625e-05
-3.71943e-06
-1.68901e-05
-1.88517e-05
-1.42745e-05
-4.04488e-06
-1.4055e-05
-5.97182e-06
-1.3587e-05
-8.20502e-06
-1.27006e-05
-1.0818e-05
-1.11738e-05
-1.38236e-05
-8.65476e-06
-1.72815e-05
-5.19832e-06
-2.03465e-05
-2.405e-05
-1.62155e-05
-3.91065e-06
-1.63013e-05
-5.88597e-06
-1.62021e-05
-8.30423e-06
-1.56951e-05
-1.13251e-05
-1.4485e-05
-1.50337e-05
-1.18186e-05
-1.9948e-05
-8.03205e-06
-2.41331e-05
-3.20821e-05
-1.82126e-05
-3.48113e-06
-1.87397e-05
-5.35893e-06
-1.92284e-05
-7.81549e-06
-1.93867e-05
-1.11668e-05
-1.87281e-05
-1.56923e-05
-1.58536e-05
-2.28224e-05
-1.15103e-05
-2.84764e-05
-4.35924e-05
-2.01576e-05
-2.67437e-06
-2.13036e-05
-4.21288e-06
-2.2786e-05
-6.33316e-06
-2.45276e-05
-9.42512e-06
-2.62064e-05
-1.40136e-05
-2.59958e-05
-2.3033e-05
-2.45937e-05
-2.98784e-05
-6.81861e-05
-2.15371e-05
-1.51814e-06
-2.32527e-05
-2.49727e-06
-2.55566e-05
-4.02935e-06
-2.8308e-05
-6.67365e-06
-3.11109e-05
-1.12107e-05
-3.16575e-05
-2.24864e-05
-3.08565e-05
-3.06794e-05
-9.90426e-05
0.000176619
0.000174122
0.000170093
0.000163419
0.000152208
0.000129722
9.90426e-05
-4.93992e-08
4.93992e-08
-8.91403e-08
3.9741e-08
-1.13416e-07
2.42762e-08
-1.19428e-07
6.01142e-09
-1.07659e-07
-1.17689e-08
-8.08272e-08
-2.68318e-08
-4.31813e-08
-3.76459e-08
-4.31813e-08
-5.80407e-08
1.0744e-07
-1.03723e-07
8.54233e-08
-1.30861e-07
5.14147e-08
-1.36684e-07
1.18344e-08
-1.22431e-07
-2.60223e-08
-9.15049e-08
-5.77579e-08
-4.87555e-08
-8.03953e-08
-9.19368e-08
-7.74984e-08
1.84938e-07
-1.35621e-07
1.43546e-07
-1.68126e-07
8.39189e-08
-1.7319e-07
1.68984e-08
-1.53286e-07
-4.5926e-08
-1.13624e-07
-9.74202e-08
-6.02474e-08
-1.33772e-07
-1.52184e-07
-1.11433e-07
2.96371e-07
-1.90672e-07
2.22785e-07
-2.31578e-07
1.24824e-07
-2.32564e-07
1.78847e-08
-2.03108e-07
-7.53825e-08
-1.49149e-07
-1.51379e-07
-7.8631e-08
-2.04289e-07
-2.30815e-07
-1.7549e-07
4.71861e-07
-2.84492e-07
3.31788e-07
-3.31985e-07
1.72317e-07
-3.28675e-07
1.45746e-08
-2.7941e-07
-1.24647e-07
-2.01824e-07
-2.28966e-07
-1.05479e-07
-3.00634e-07
-3.36294e-07
-2.61671e-07
7.33532e-07
-4.14982e-07
4.85098e-07
-4.7165e-07
2.28985e-07
-4.47562e-07
-9.51262e-09
-3.7883e-07
-1.9338e-07
-2.71918e-07
-3.35877e-07
-1.41356e-07
-4.31196e-07
-4.77651e-07
-5.03789e-07
1.23732e-06
-7.10863e-07
6.92172e-07
-7.34011e-07
2.52134e-07
-6.67577e-07
-7.59465e-08
-5.34176e-07
-3.26782e-07
-3.71199e-07
-4.98854e-07
-1.90047e-07
-6.12348e-07
-6.67698e-07
-6.84477e-07
-9.53066e-07
-9.6452e-07
-8.57738e-07
-6.92455e-07
-4.81931e-07
-2.46168e-07
)
;

boundaryField
{
    movingWall
    {
        type            calculated;
        value           uniform 0;
    }
    fixedWalls
    {
        type            calculated;
        value           uniform 0;
    }
    frontAndBack
    {
        type            empty;
        value           nonuniform List<scalar> 0();
    }
}


// ************************************************************************* //
