/*--------------------------------*- C++ -*----------------------------------*\
  =========                 |
  \\      /  F ield         | OpenFOAM: The Open Source CFD Toolbox
   \\    /   O peration     | Website:  https://openfoam.org
    \\  /    A nd           | Version:  8
     \\/     M anipulation  |
\*---------------------------------------------------------------------------*/
FoamFile
{
    version     2.0;
    format      ascii;
    class       volVectorField;
    location    "1";
    object      U;
}
// * * * * * * * * * * * * * * * * * * * * * * * * * * * * * * * * * * * * * //

dimensions      [0 1 -1 0 0 0 0];

internalField   nonuniform List<vector> 
464
(
(-5.5387e-06 5.51426e-06 0)
(-1.64884e-05 5.38504e-06 0)
(-2.70314e-05 5.10998e-06 0)
(-3.68936e-05 4.71152e-06 0)
(-4.58439e-05 4.20561e-06 0)
(-5.36855e-05 3.61217e-06 0)
(-6.02651e-05 2.95523e-06 0)
(-6.54852e-05 2.26432e-06 0)
(-6.93008e-05 1.58284e-06 0)
(-7.18974e-05 9.58538e-07 0)
(-7.22286e-05 5.70197e-07 0)
(-7.72428e-05 -1.00242e-07 0)
(-5.69013e-06 1.66958e-05 0)
(-1.69369e-05 1.63023e-05 0)
(-2.77592e-05 1.54652e-05 0)
(-3.7872e-05 1.42529e-05 0)
(-4.70353e-05 1.27137e-05 0)
(-5.50437e-05 1.0907e-05 0)
(-6.1734e-05 8.90288e-06 0)
(-6.69891e-05 6.78518e-06 0)
(-7.07458e-05 4.67012e-06 0)
(-7.30544e-05 2.7196e-06 0)
(-7.3465e-05 1.34426e-06 0)
(-7.58375e-05 -9.91082e-08 0)
(-5.97692e-06 2.83132e-05 0)
(-1.77858e-05 2.7638e-05 0)
(-2.91351e-05 2.62042e-05 0)
(-3.97192e-05 2.41293e-05 0)
(-4.92818e-05 2.14961e-05 0)
(-5.76042e-05 1.84035e-05 0)
(-6.45081e-05 1.49628e-05 0)
(-6.98495e-05 1.12973e-05 0)
(-7.35057e-05 7.54981e-06 0)
(-7.53677e-05 3.90202e-06 0)
(-7.51933e-05 6.34985e-07 0)
(-7.34192e-05 -2.33846e-06 0)
(-6.42215e-06 4.06546e-05 0)
(-1.91028e-05 3.96681e-05 0)
(-3.1268e-05 3.75785e-05 0)
(-4.25802e-05 3.45596e-05 0)
(-5.27611e-05 3.07344e-05 0)
(-6.1577e-05 2.62448e-05 0)
(-6.88402e-05 2.12425e-05 0)
(-7.44021e-05 1.58828e-05 0)
(-7.81412e-05 1.03186e-05 0)
(-7.99693e-05 4.69454e-06 0)
(-7.97056e-05 -8.50187e-07 0)
(-7.7487e-05 -6.32042e-06 0)
(-7.0451e-06 5.40542e-05 0)
(-2.09436e-05 5.27106e-05 0)
(-3.42436e-05 4.9876e-05 0)
(-4.65633e-05 4.57931e-05 0)
(-5.75967e-05 4.06359e-05 0)
(-6.7096e-05 3.45987e-05 0)
(-7.487e-05 2.78804e-05 0)
(-8.07735e-05 2.06732e-05 0)
(-8.4694e-05 1.3156e-05 0)
(-8.65365e-05 5.48939e-06 0)
(-8.62082e-05 -2.16941e-06 0)
(-8.36746e-05 -9.78592e-06 0)
(-7.87439e-06 6.88909e-05 0)
(-2.33898e-05 6.71224e-05 0)
(-3.81856e-05 6.3414e-05 0)
(-5.18203e-05 5.80978e-05 0)
(-6.39555e-05 5.14178e-05 0)
(-7.43325e-05 4.36366e-05 0)
(-8.27657e-05 3.50113e-05 0)
(-8.91265e-05 2.57782e-05 0)
(-9.3325e-05 1.61448e-05 0)
(-9.52947e-05 6.28702e-06 0)
(-9.49809e-05 -3.6529e-06 0)
(-9.23547e-05 -1.35711e-05 0)
(-8.95195e-06 8.56108e-05 0)
(-2.6559e-05 8.33172e-05 0)
(-4.32683e-05 7.85498e-05 0)
(-5.85594e-05 7.17643e-05 0)
(-7.2058e-05 6.33045e-05 0)
(-8.35026e-05 5.35253e-05 0)
(-9.27284e-05 4.27581e-05 0)
(-9.964e-05 3.12918e-05 0)
(-0.000104185 1.93661e-05 0)
(-0.000106334 7.17393e-06 0)
(-0.000106066 -5.13028e-06 0)
(-0.000103373 -1.74214e-05 0)
(-1.034e-05 0.000104759 0)
(-3.06229e-05 0.000101787 0)
(-4.97385e-05 9.56921e-05 0)
(-6.70656e-05 8.71057e-05 0)
(-8.21946e-05 7.65191e-05 0)
(-9.48789e-05 6.4414e-05 0)
(-0.000104999 5.12166e-05 0)
(-0.000112518 3.72762e-05 0)
(-0.000117443 2.28631e-05 0)
(-0.000119791 8.17969e-06 0)
(-0.000119576 -6.61952e-06 0)
(-0.000116801 -2.14044e-05 0)
(-1.21341e-05 0.000127026 0)
(-3.58364e-05 0.000123133 0)
(-5.79499e-05 0.000115313 0)
(-7.77324e-05 0.000104454 0)
(-9.47497e-05 9.1269e-05 0)
(-0.000108805 7.64151e-05 0)
(-0.000119866 6.04367e-05 0)
(-0.000127994 4.37479e-05 0)
(-0.000133282 2.664e-05 0)
(-0.000135817 9.30637e-06 0)
(-0.00013565 -8.12403e-06 0)
(-0.00013279 -2.55474e-05 0)
(-1.44876e-05 0.000153326 0)
(-4.2591e-05 0.000148107 0)
(-6.84184e-05 0.000137961 0)
(-9.11096e-05 0.000124146 0)
(-0.000110233 0.000107719 0)
(-0.000125711 8.95719e-05 0)
(-0.000137666 7.03922e-05 0)
(-0.000146315 5.06552e-05 0)
(-0.000151884 3.0652e-05 0)
(-0.000154555 1.05334e-05 0)
(-0.00015443 -9.63815e-06 0)
(-0.000151516 -2.98305e-05 0)
(-1.76612e-05 0.000184933 0)
(-5.15099e-05 0.000177665 0)
(-8.19112e-05 0.00016427 0)
(-0.000107974 0.000146496 0)
(-0.000129324 0.000125942 0)
(-0.000146132 0.000103805 0)
(-0.000158783 8.09315e-05 0)
(-0.000167734 5.78434e-05 0)
(-0.000173404 3.47881e-05 0)
(-0.000176107 1.18157e-05 0)
(-0.000176014 -1.11364e-05 0)
(-0.000173133 -3.4167e-05 0)
(-2.2127e-05 0.000223702 0)
(-6.36256e-05 0.000213032 0)
(-9.9588e-05 0.000194955 0)
(-0.000129437 0.000171723 0)
(-0.000152924 0.000145831 0)
(-0.000170722 0.000118822 0)
(-0.000183628 9.17228e-05 0)
(-0.000192459 6.50313e-05 0)
(-0.000197912 3.88616e-05 0)
(-0.00020048 1.30839e-05 0)
(-0.000200413 -1.25645e-05 0)
(-0.000197717 -3.83873e-05 0)
(-2.87807e-05 0.000272634 0)
(-8.07069e-05 0.000255777 0)
(-0.00012322 0.000230766 0)
(-0.000157098 0.000199814 0)
(-0.000182225 0.00016693 0)
(-0.00020024 0.000134025 0)
(-0.000212573 0.000102195 0)
(-0.000220595 7.1761e-05 0)
(-0.000225351 4.25786e-05 0)
(-0.000227533 1.42339e-05 0)
(-0.000227486 -1.38286e-05 0)
(-0.000225213 -4.22076e-05 0)
(-3.95305e-05 0.000335658 0)
(-0.00010604 0.000307625 0)
(-0.000155551 0.000272323 0)
(-0.000193274 0.000230192 0)
(-0.000218714 0.00018825 0)
(-0.000235456 0.000148365 0)
(-0.000245892 0.000111415 0)
(-0.000252076 7.73177e-05 0)
(-0.000255439 4.54959e-05 0)
(-0.000256887 1.51132e-05 0)
(-0.000256854 -1.47871e-05 0)
(-0.000255345 -4.51953e-05 0)
(-5.74864e-05 0.000426483 0)
(-0.000144716 0.000371338 0)
(-0.000200653 0.000320039 0)
(-0.00024117 0.000261348 0)
(-0.000264053 0.000207984 0)
(-0.000277076 0.000160097 0)
(-0.000283621 0.00011795 0)
(-0.000286514 8.06743e-05 0)
(-0.000287555 4.69988e-05 0)
(-0.000287816 1.55147e-05 0)
(-0.000287794 -1.52423e-05 0)
(-0.000287493 -4.67441e-05 0)
(-9.55261e-05 0.000520917 0)
(-0.000213337 0.000436162 0)
(-0.000265541 0.000368566 0)
(-0.000305329 0.000288964 0)
(-0.000319965 0.00022248 0)
(-0.000325491 0.000166339 0)
(-0.000325314 0.000119702 0)
(-0.000323027 8.04387e-05 0)
(-0.000320599 4.63215e-05 0)
(-0.000319128 1.51946e-05 0)
(-0.000319113 -1.49579e-05 0)
(-0.000320558 -4.60954e-05 0)
(-0.000143296 0.000805962 0)
(-0.00029814 0.000550283 0)
(-0.000347851 0.000444267 0)
(-0.000387258 0.000315745 0)
(-0.000386677 0.000229431 0)
(-0.000379854 0.000164044 0)
(-0.000369521 0.000114325 0)
(-0.000359894 7.51514e-05 0)
(-0.000352799 4.2686e-05 0)
(-0.000349095 1.39079e-05 0)
(-0.000349084 -1.36967e-05 0)
(-0.000352769 -4.24787e-05 0)
(-0.00035277 0.000860086 0)
(-0.000576626 0.000550013 0)
(-0.000500063 0.000439389 0)
(-0.000520163 0.000297133 0)
(-0.000471662 0.000209211 0)
(-0.000440593 0.000144314 0)
(-0.000414204 9.77077e-05 0)
(-0.000394663 6.2897e-05 0)
(-0.00038184 3.52431e-05 0)
(-0.000375508 1.14123e-05 0)
(-0.000375497 -1.12177e-05 0)
(-0.00038181 -3.50446e-05 0)
(-0.000453516 0.00202049 0)
(-0.000717719 0.000695413 0)
(-0.000597315 0.000519895 0)
(-0.00061374 0.000280058 0)
(-0.000535667 0.00017514 0)
(-0.000487457 0.000110208 0)
(-0.000446997 7.02464e-05 0)
(-0.000418392 4.35225e-05 0)
(-0.000400299 2.38577e-05 0)
(-0.000391556 7.65523e-06 0)
(-0.000391527 -7.50373e-06 0)
(-0.000400212 -2.36995e-05 0)
(0.00229946 0.00168736 0)
(0.00190904 0.000464024 0)
(0.00307253 0.00032931 0)
(0.00312408 0.000148429 0)
(0.00334717 8.15907e-05 0)
(0.00344325 4.61874e-05 0)
(0.00350783 2.7367e-05 0)
(0.00354767 1.61891e-05 0)
(0.00357103 8.65071e-06 0)
(0.00358189 2.75424e-06 0)
(0.00358195 -2.66783e-06 0)
(0.00357121 -8.55641e-06 0)
(-6.54846e-05 3.42656e-05 0)
(-4.43391e-05 1.58124e-05 0)
(-3.64915e-05 2.72343e-06 0)
(-2.88107e-05 -6.10665e-06 0)
(-2.21598e-05 -1.25595e-05 0)
(-1.57892e-05 -1.70363e-05 0)
(-9.50352e-06 -1.99009e-05 0)
(-3.17542e-06 -2.12598e-05 0)
(-6.61681e-05 5.35451e-06 0)
(-4.97037e-05 -1.76737e-06 0)
(-4.15271e-05 -8.20522e-06 0)
(-3.37758e-05 -1.4495e-05 0)
(-2.65527e-05 -1.98491e-05 0)
(-1.91739e-05 -2.4063e-05 0)
(-1.15834e-05 -2.69332e-05 0)
(-3.87376e-06 -2.83239e-05 0)
(-6.72262e-05 -1.01442e-06 0)
(-5.78988e-05 -8.0818e-06 0)
(-4.92191e-05 -1.51541e-05 0)
(-4.04546e-05 -2.20178e-05 0)
(-3.17277e-05 -2.78083e-05 0)
(-2.28733e-05 -3.22826e-05 0)
(-1.38214e-05 -3.53413e-05 0)
(-4.62302e-06 -3.68178e-05 0)
(-7.19115e-05 -1.11056e-05 0)
(-6.38434e-05 -1.76797e-05 0)
(-5.54631e-05 -2.45508e-05 0)
(-4.643e-05 -3.12502e-05 0)
(-3.68175e-05 -3.71887e-05 0)
(-2.67069e-05 -4.19468e-05 0)
(-1.61927e-05 -4.52563e-05 0)
(-5.42432e-06 -4.68552e-05 0)
(-7.85855e-05 -1.70371e-05 0)
(-7.1344e-05 -2.52255e-05 0)
(-6.27896e-05 -3.33769e-05 0)
(-5.30925e-05 -4.10001e-05 0)
(-4.24244e-05 -4.76725e-05 0)
(-3.0941e-05 -5.30251e-05 0)
(-1.8824e-05 -5.67643e-05 0)
(-6.31609e-06 -5.85668e-05 0)
(-8.7351e-05 -2.33511e-05 0)
(-8.01832e-05 -3.324e-05 0)
(-7.12378e-05 -4.28278e-05 0)
(-6.07257e-05 -5.17096e-05 0)
(-4.88424e-05 -5.94649e-05 0)
(-3.57987e-05 -6.5698e-05 0)
(-2.18522e-05 -7.00684e-05 0)
(-7.34453e-06 -7.21754e-05 0)
(-9.82544e-05 -2.95761e-05 0)
(-9.08207e-05 -4.15322e-05 0)
(-8.12591e-05 -5.29825e-05 0)
(-6.97297e-05 -6.35406e-05 0)
(-5.64128e-05 -7.27681e-05 0)
(-4.15445e-05 -8.02149e-05 0)
(-2.54465e-05 -8.54638e-05 0)
(-8.56809e-06 -8.80052e-05 0)
(-0.000111462 -3.60366e-05 0)
(-0.00010359 -5.03506e-05 0)
(-9.32463e-05 -6.40443e-05 0)
(-8.05112e-05 -7.67087e-05 0)
(-6.55167e-05 -8.78474e-05 0)
(-4.84946e-05 -9.6912e-05 0)
(-2.98195e-05 -0.000103357 0)
(-1.00627e-05 -0.00010651 0)
(-0.000127201 -4.28397e-05 0)
(-0.000118828 -5.98141e-05 0)
(-0.000107617 -7.61581e-05 0)
(-9.35327e-05 -9.14189e-05 0)
(-7.66161e-05 -0.000105004 0)
(-5.70545e-05 -0.000116212 0)
(-3.52584e-05 -0.000124288 0)
(-1.19347e-05 -0.000128313 0)
(-0.000145728 -4.99815e-05 0)
(-0.000136908 -6.99368e-05 0)
(-0.000124851 -8.93886e-05 0)
(-0.000109357 -0.000107835 0)
(-9.03095e-05 -0.000124557 0)
(-6.77784e-05 -0.000138628 0)
(-4.21787e-05 -0.000148964 0)
(-1.43455e-05 -0.000154281 0)
(-0.000167307 -5.73372e-05 0)
(-0.000158236 -8.05912e-05 0)
(-0.000145516 -0.00010367 0)
(-0.000128701 -0.00012603 0)
(-0.000107409 -0.000146804 0)
(-8.14614e-05 -0.000164771 0)
(-5.12217e-05 -0.000178309 0)
(-1.75624e-05 -0.000185654 0)
(-0.000192153 -6.46447e-05 0)
(-0.00018324 -9.14619e-05 0)
(-0.00017029 -0.000118715 0)
(-0.000152492 -0.000145895 0)
(-0.00012905 -0.000171955 0)
(-9.92842e-05 -0.000195337 0)
(-6.34345e-05 -0.000213528 0)
(-2.20626e-05 -0.000224263 0)
(-0.000220381 -7.14569e-05 0)
(-0.000212306 -0.000101987 0)
(-0.000199949 -0.000133934 0)
(-0.000181941 -0.00016697 0)
(-0.000156851 -0.000199989 0)
(-0.000123035 -0.000231066 0)
(-8.0598e-05 -0.000256175 0)
(-2.87471e-05 -0.000273095 0)
(-0.000251932 -7.7067e-05 0)
(-0.000245717 -0.000111236 0)
(-0.000235274 -0.000148277 0)
(-0.000218547 -0.000188266 0)
(-0.000193146 -0.00023032 0)
(-0.00015547 -0.000272565 0)
(-0.000106012 -0.000307963 0)
(-3.95308e-05 -0.000336081 0)
(-0.000286422 -8.04549e-05 0)
(-0.000283516 -0.000117782 0)
(-0.000276978 -0.000159997 0)
(-0.000263984 -0.000207967 0)
(-0.00024115 -0.000261428 0)
(-0.000200679 -0.000320236 0)
(-0.00014479 -0.000371639 0)
(-5.75401e-05 -0.00042691 0)
(-0.00032297 -8.02338e-05 0)
(-0.000325259 -0.000119529 0)
(-0.000325458 -0.000166212 0)
(-0.000319979 -0.000222413 0)
(-0.000305415 -0.000288979 0)
(-0.000265683 -0.000368716 0)
(-0.000213538 -0.000436421 0)
(-9.5654e-05 -0.000521536 0)
(-0.000359856 -7.49518e-05 0)
(-0.000369494 -0.000114138 0)
(-0.000379862 -0.000163877 0)
(-0.000386752 -0.000229314 0)
(-0.000387452 -0.000315714 0)
(-0.000348123 -0.000444418 0)
(-0.000298666 -0.000550639 0)
(-0.000143729 -0.000806704 0)
(-0.000394627 -6.26895e-05 0)
(-0.000414181 -9.74844e-05 0)
(-0.000440632 -0.000144065 0)
(-0.000471815 -0.000208922 0)
(-0.000520516 -0.000296761 0)
(-0.00050062 -0.000439196 0)
(-0.000577386 -0.000549597 0)
(-0.000353308 -0.0008617 0)
(-0.000418249 -4.33505e-05 0)
(-0.000446796 -7.00549e-05 0)
(-0.000487186 -0.000109994 0)
(-0.000535261 -0.00017494 0)
(-0.000613407 -0.000279835 0)
(-0.000596362 -0.000520005 0)
(-0.000717787 -0.000696401 0)
(-0.000451203 -0.00202297 0)
(0.00354799 -1.60772e-05 0)
(0.00350831 -2.72243e-05 0)
(0.00344386 -4.59916e-05 0)
(0.00334818 -8.13523e-05 0)
(0.00312474 -0.00014798 0)
(0.00307455 -0.000328975 0)
(0.00190952 -0.000463303 0)
(0.00230121 -0.00168651 0)
(-5.13125e-07 4.78497e-07 0)
(-1.43206e-06 3.87123e-07 0)
(-2.08524e-06 2.37972e-07 0)
(-2.39108e-06 6.01123e-08 0)
(-2.32657e-06 -1.13605e-07 0)
(-1.92806e-06 -2.61617e-07 0)
(-1.26708e-06 -3.68203e-07 0)
(-4.40817e-07 -4.2286e-07 0)
(-6.06479e-07 1.52708e-06 0)
(-1.6764e-06 1.22404e-06 0)
(-2.41641e-06 7.44946e-07 0)
(-2.74742e-06 1.8237e-07 0)
(-2.65294e-06 -3.63415e-07 0)
(-2.18651e-06 -8.24738e-07 0)
(-1.43171e-06 -1.15511e-06 0)
(-4.97206e-07 -1.32401e-06 0)
(-8.2025e-07 2.80547e-06 0)
(-2.22011e-06 2.21915e-06 0)
(-3.13107e-06 1.32112e-06 0)
(-3.50421e-06 2.76176e-07 0)
(-3.33832e-06 -6.95969e-07 0)
(-2.72361e-06 -1.51488e-06 0)
(-1.77155e-06 -2.09746e-06 0)
(-6.13262e-07 -2.39401e-06 0)
(-1.19846e-06 4.77109e-06 0)
(-3.16641e-06 3.65051e-06 0)
(-4.35939e-06 2.11557e-06 0)
(-4.76452e-06 4.35989e-07 0)
(-4.44399e-06 -1.15239e-06 0)
(-3.588e-06 -2.42326e-06 0)
(-2.31567e-06 -3.3115e-06 0)
(-7.98578e-07 -3.75868e-06 0)
(-1.95029e-06 6.7586e-06 0)
(-4.88509e-06 5.01275e-06 0)
(-6.34559e-06 2.70445e-06 0)
(-6.77217e-06 2.11532e-07 0)
(-6.19757e-06 -1.94193e-06 0)
(-4.88272e-06 -3.72215e-06 0)
(-3.11454e-06 -4.95581e-06 0)
(-1.068e-06 -5.574e-06 0)
(-2.95839e-06 1.29911e-05 0)
(-7.23466e-06 8.86771e-06 0)
(-9.16062e-06 4.54223e-06 0)
(-9.4109e-06 4.57816e-07 0)
(-8.37767e-06 -2.95525e-06 0)
(-6.60189e-06 -5.49225e-06 0)
(-4.17875e-06 -7.18177e-06 0)
(-1.42799e-06 -8.0088e-06 0)
(-6.09909e-06 1.48605e-05 0)
(-1.33594e-05 9.51033e-06 0)
(-1.47555e-05 4.03592e-06 0)
(-1.42697e-05 -9.36996e-07 0)
(-1.21476e-05 -5.04608e-06 0)
(-9.10925e-06 -8.1824e-06 0)
(-5.64724e-06 -1.02766e-05 0)
(-1.91118e-06 -1.12979e-05 0)
(-8.38024e-06 3.76858e-05 0)
(-1.80903e-05 1.99419e-05 0)
(-1.9608e-05 6.82279e-06 0)
(-1.84929e-05 -1.79407e-06 0)
(-1.56231e-05 -7.71831e-06 0)
(-1.18325e-05 -1.18062e-05 0)
(-7.31706e-06 -1.43982e-05 0)
(-2.47206e-06 -1.5631e-05 0)
)
;

boundaryField
{
    movingWall
    {
        type            fixedValue;
        value           uniform (1 0 0);
    }
    fixedWalls
    {
        type            noSlip;
    }
    frontAndBack
    {
        type            empty;
    }
}


// ************************************************************************* //
