/*--------------------------------*- C++ -*----------------------------------*\
  =========                 |
  \\      /  F ield         | OpenFOAM: The Open Source CFD Toolbox
   \\    /   O peration     | Website:  https://openfoam.org
    \\  /    A nd           | Version:  8
     \\/     M anipulation  |
\*---------------------------------------------------------------------------*/
FoamFile
{
    version     2.0;
    format      ascii;
    class       volVectorField;
    location    "50";
    object      U;
}
// * * * * * * * * * * * * * * * * * * * * * * * * * * * * * * * * * * * * * //

dimensions      [0 1 -1 0 0 0 0];

internalField   nonuniform List<vector> 
12504
(
(1.00014 -0.000695834 8.56034e-07)
(1.00355 -0.00207337 -1.05796e-06)
(1.01033 -0.0033922 -1.98044e-06)
(1.02041 -0.00460779 -1.31606e-06)
(1.03343 -0.00568262 -7.09186e-07)
(1.04895 -0.00658637 -4.82185e-07)
(1.06651 -0.00729707 -3.36808e-07)
(1.0856 -0.0078031 -1.40952e-08)
(1.10572 -0.00810446 3.43711e-07)
(1.12634 -0.00821266 6.62766e-07)
(1.14701 -0.00814914 9.03238e-07)
(1.16731 -0.00794234 1.0393e-06)
(1.18692 -0.00762385 1.06064e-06)
(1.2056 -0.0072244 9.8493e-07)
(1.22319 -0.00677085 8.47427e-07)
(1.23958 -0.00628461 6.93626e-07)
(1.2547 -0.00578167 5.51204e-07)
(1.26855 -0.00527345 4.39586e-07)
(1.28112 -0.00476803 3.51466e-07)
(1.29243 -0.00427104 2.91738e-07)
(1.3025 -0.00378663 2.41914e-07)
(1.31138 -0.00331785 2.1738e-07)
(1.31911 -0.00286739 1.89033e-07)
(1.32573 -0.00243764 1.86753e-07)
(1.33131 -0.00203124 1.60319e-07)
(1.33589 -0.0016506 1.68185e-07)
(1.33957 -0.00129857 1.26142e-07)
(1.34238 -0.000977245 1.43468e-07)
(1.34445 -0.000689302 7.31777e-08)
(1.34581 -0.000435755 1.10471e-07)
(1.34663 -0.000218495 -2.57549e-09)
(1.34688 -3.6379e-05 7.76953e-08)
(1.3468 0.000109771 -9.52413e-08)
(1.3463 0.000224314 6.67324e-08)
(1.34569 0.0003072 -2.00908e-07)
(1.34473 0.000366844 1.01087e-07)
(1.34387 0.000402315 -3.21292e-07)
(1.34267 0.000427223 2.10185e-07)
(1.34179 0.000436484 -4.69136e-07)
(1.34042 0.000450951 4.25728e-07)
(1.33963 0.00045575 -6.74658e-07)
(1.33804 0.000483454 7.7954e-07)
(1.33737 0.000500211 -9.95513e-07)
(1.33538 0.000559704 1.29635e-06)
(1.33481 0.000594278 -1.49804e-06)
(1.33216 0.000696756 1.96746e-06)
(1.3317 0.000741709 -2.15042e-06)
(1.32804 0.000892779 2.55637e-06)
(1.32778 0.000928605 -2.314e-06)
(1.32277 0.00113398 1.28149e-06)
(1.00015 -0.00210588 8.27023e-07)
(1.00363 -0.00626959 -1.11996e-06)
(1.01056 -0.0102549 -2.01201e-06)
(1.02087 -0.0139284 -1.34365e-06)
(1.03418 -0.0171749 -7.43533e-07)
(1.05003 -0.0199016 -5.15211e-07)
(1.06796 -0.0220418 -3.52968e-07)
(1.08744 -0.0235605 -7.44354e-10)
(1.10793 -0.0244577 3.82726e-07)
(1.1289 -0.0247692 7.22169e-07)
(1.14988 -0.024561 9.73707e-07)
(1.17044 -0.0239209 1.10757e-06)
(1.19027 -0.022946 1.11443e-06)
(1.20912 -0.0217303 1.01864e-06)
(1.22684 -0.0203552 8.63636e-07)
(1.24331 -0.0188851 7.00229e-07)
(1.25851 -0.0173676 5.56438e-07)
(1.27241 -0.0158364 4.48517e-07)
(1.28502 -0.0143151 3.65299e-07)
(1.29636 -0.0128204 3.09793e-07)
(1.30645 -0.0113641 2.63311e-07)
(1.31535 -0.00995506 2.4163e-07)
(1.32308 -0.00860121 2.15402e-07)
(1.3297 -0.0073096 2.14323e-07)
(1.33528 -0.0060881 1.88099e-07)
(1.33985 -0.00494401 1.95714e-07)
(1.34351 -0.00388584 1.52357e-07)
(1.3463 -0.00292021 1.68218e-07)
(1.34835 -0.002055 9.64687e-08)
(1.34968 -0.00129371 1.32115e-07)
(1.35046 -0.000641694 1.79014e-08)
(1.35069 -9.61455e-05 9.40704e-08)
(1.35058 0.000341134 -8.14466e-08)
(1.35005 0.000682341 7.78826e-08)
(1.34942 0.000928558 -1.91763e-07)
(1.34845 0.00110369 1.07785e-07)
(1.3476 0.001207 -3.14951e-07)
(1.34639 0.00127711 2.13509e-07)
(1.34554 0.00130211 -4.63279e-07)
(1.34419 0.00134087 4.264e-07)
(1.34344 0.00135398 -6.65708e-07)
(1.34188 0.0014331 7.78003e-07)
(1.34126 0.00148461 -9.78322e-07)
(1.33931 0.00166004 1.28983e-06)
(1.3388 0.00176806 -1.46687e-06)
(1.33617 0.00207312 1.95032e-06)
(1.33576 0.00221481 -2.09928e-06)
(1.33212 0.00266602 2.52006e-06)
(1.33189 0.00278022 -2.26559e-06)
(1.32689 0.00339672 1.25086e-06)
(1.00015 -0.00356532 8.44254e-07)
(1.00379 -0.010609 -1.19832e-06)
(1.01104 -0.0173493 -2.11384e-06)
(1.02181 -0.023561 -1.4196e-06)
(1.0357 -0.0290454 -7.9751e-07)
(1.05224 -0.0336427 -5.50079e-07)
(1.07092 -0.0372387 -3.49723e-07)
(1.09118 -0.0397728 5.85461e-08)
(1.11244 -0.0412461 5.0397e-07)
(1.13413 -0.0417215 8.94481e-07)
(1.15574 -0.0413157 1.17264e-06)
(1.17685 -0.0401832 1.29876e-06)
(1.19711 -0.0384939 1.26579e-06)
(1.21629 -0.0364102 1.11424e-06)
(1.23426 -0.0340711 9.07857e-07)
(1.25093 -0.0315839 7.11421e-07)
(1.26627 -0.0290266 5.54417e-07)
(1.28028 -0.0264536 4.46217e-07)
(1.29297 -0.0239023 3.66791e-07)
(1.30436 -0.0213987 3.15688e-07)
(1.31451 -0.0189614 2.73307e-07)
(1.32343 -0.0166041 2.56753e-07)
(1.33118 -0.0143393 2.34573e-07)
(1.33781 -0.0121785 2.37102e-07)
(1.34338 -0.0101346 2.1138e-07)
(1.34793 -0.00822016 2.20108e-07)
(1.35156 -0.00644935 1.75092e-07)
(1.35431 -0.00483386 1.91472e-07)
(1.35631 -0.003387 1.14839e-07)
(1.35758 -0.00211535 1.49614e-07)
(1.35831 -0.00102781 2.83106e-08)
(1.35847 -0.000120462 1.03207e-07)
(1.35831 0.000604167 -8.26349e-08)
(1.35774 0.00116572 8.14804e-08)
(1.35707 0.00156729 -2.01185e-07)
(1.35608 0.00184779 1.08192e-07)
(1.35523 0.00200833 -3.31909e-07)
(1.35403 0.0021118 2.14891e-07)
(1.35322 0.00214191 -4.84182e-07)
(1.35191 0.00219426 4.35194e-07)
(1.35125 0.00220805 -6.86399e-07)
(1.34976 0.00233177 7.98793e-07)
(1.34925 0.00241589 -9.9339e-07)
(1.34737 0.00270605 1.32512e-06)
(1.34697 0.00289166 -1.4695e-06)
(1.34439 0.00340356 1.99113e-06)
(1.34408 0.00365052 -2.08253e-06)
(1.34047 0.00440976 2.5361e-06)
(1.3403 0.00461039 -2.23167e-06)
(1.33532 0.00564849 1.21551e-06)
(1.00016 -0.00510526 8.89098e-07)
(1.00404 -0.0151896 -1.30836e-06)
(1.01177 -0.0248375 -2.29209e-06)
(1.02325 -0.0337243 -1.55392e-06)
(1.03806 -0.0415601 -8.84176e-07)
(1.05567 -0.0481111 -6.04071e-07)
(1.07552 -0.0532089 -3.36136e-07)
(1.09699 -0.0567639 1.62857e-07)
(1.11945 -0.0587786 7.11841e-07)
(1.14225 -0.0593489 1.19147e-06)
(1.16485 -0.0586529 1.51535e-06)
(1.18678 -0.0569255 1.62467e-06)
(1.2077 -0.0544222 1.51833e-06)
(1.22739 -0.0513836 1.2678e-06)
(1.24575 -0.0480097 9.73124e-07)
(1.2627 -0.0444511 7.22045e-07)
(1.27826 -0.0408132 5.44599e-07)
(1.29244 -0.0371677 4.36678e-07)
(1.30526 -0.0335634 3.62733e-07)
(1.31676 -0.0300331 3.17866e-07)
(1.32698 -0.0265998 2.81785e-07)
(1.33596 -0.0232809 2.73646e-07)
(1.34375 -0.0200924 2.57634e-07)
(1.3504 -0.0170496 2.65771e-07)
(1.35596 -0.0141708 2.40823e-07)
(1.36049 -0.0114735 2.51959e-07)
(1.36409 -0.00897861 2.03525e-07)
(1.36678 -0.00670317 2.20508e-07)
(1.36871 -0.00466678 1.35604e-07)
(1.3699 -0.00287966 1.70321e-07)
(1.37054 -0.00135505 3.55339e-08)
(1.37061 -8.7899e-05 1.09341e-07)
(1.37037 0.000917584 -9.09006e-08)
(1.36972 0.00168951 8.33667e-08)
(1.36901 0.00223242 -2.23538e-07)
(1.36798 0.00260212 1.0643e-07)
(1.36713 0.00280077 -3.67879e-07)
(1.36595 0.00291912 2.16701e-07)
(1.36521 0.00293446 -5.28822e-07)
(1.36397 0.00298485 4.51797e-07)
(1.36344 0.00298354 -7.34373e-07)
(1.36205 0.00314464 8.41465e-07)
(1.36171 0.00325343 -1.03673e-06)
(1.35993 0.00366303 1.39918e-06)
(1.35971 0.0039269 -1.49944e-06)
(1.35721 0.00466249 2.08514e-06)
(1.35705 0.00502077 -2.0882e-06)
(1.35347 0.00611283 2.60006e-06)
(1.35339 0.00640511 -2.21064e-06)
(1.34841 0.00788988 1.16587e-06)
(1.00018 -0.00676378 9.49473e-07)
(1.00439 -0.020123 -1.46494e-06)
(1.01279 -0.0329011 -2.55815e-06)
(1.02527 -0.0446634 -1.76483e-06)
(1.04135 -0.0550177 -1.02814e-06)
(1.06045 -0.0636453 -7.05259e-07)
(1.08195 -0.070313 -3.27769e-07)
(1.10513 -0.0748961 3.16086e-07)
(1.12926 -0.0773989 1.03179e-06)
(1.15363 -0.0779589 1.6596e-06)
(1.17759 -0.0768323 2.05672e-06)
(1.20066 -0.074356 2.13056e-06)
(1.22248 -0.0708919 1.89732e-06)
(1.24287 -0.0667723 1.48697e-06)
(1.26174 -0.0622639 1.05949e-06)
(1.27909 -0.0575584 7.33788e-07)
(1.29496 -0.0527841 5.35212e-07)
(1.30937 -0.048025 4.34098e-07)
(1.32238 -0.0433367 3.69847e-07)
(1.33403 -0.0387553 3.33607e-07)
(1.34438 -0.0343057 3.06249e-07)
(1.35346 -0.0300063 3.09664e-07)
(1.36132 -0.0258754 3.01459e-07)
(1.36801 -0.0219321 3.16492e-07)
(1.37359 -0.0181993 2.91595e-07)
(1.37811 -0.0147008 3.04793e-07)
(1.38166 -0.0114642 2.50101e-07)
(1.38429 -0.00851335 2.66889e-07)
(1.38613 -0.00587509 1.69383e-07)
(1.38721 -0.00356432 2.03224e-07)
(1.38773 -0.00159964 4.88673e-08)
(1.38768 2.43859e-05 1.12075e-07)
(1.38734 0.0013025 -1.02623e-07)
(1.38658 0.00227067 8.81992e-08)
(1.38581 0.00293499 -2.53628e-07)
(1.38472 0.00337054 1.04571e-07)
(1.38389 0.00357995 -4.18594e-07)
(1.38273 0.00368625 2.1859e-07)
(1.38209 0.00365853 -5.93724e-07)
(1.38093 0.00368439 4.74843e-07)
(1.38058 0.00364603 -8.03692e-07)
(1.37932 0.00383421 9.02281e-07)
(1.37921 0.0039579 -1.10229e-06)
(1.37756 0.00449425 1.50466e-06)
(1.37759 0.00484024 -1.5496e-06)
(1.37517 0.0058245 2.22334e-06)
(1.37521 0.0063068 -2.10594e-06)
(1.37163 0.00776779 2.70488e-06)
(1.37167 0.008163 -2.19732e-06)
(1.36665 0.0101303 1.10666e-06)
(1.0002 -0.00858246 1.0275e-06)
(1.00485 -0.0255315 -1.65835e-06)
(1.01413 -0.0417415 -2.91102e-06)
(1.02792 -0.0566528 -2.05401e-06)
(1.04569 -0.0697558 -1.23786e-06)
(1.06679 -0.080631 -8.66537e-07)
(1.09048 -0.0889642 -3.25322e-07)
(1.11595 -0.094585 5.40067e-07)
(1.14232 -0.0974993 1.51886e-06)
(1.16877 -0.0978981 2.39071e-06)
(1.19455 -0.096141 2.90273e-06)
(1.21911 -0.0927001 2.90225e-06)
(1.24209 -0.0880739 2.44577e-06)
(1.26336 -0.0827055 1.77544e-06)
(1.28289 -0.0769336 1.14853e-06)
(1.30076 -0.0709863 7.26926e-07)
(1.31702 -0.0650068 5.14701e-07)
(1.33177 -0.0590839 4.33884e-07)
(1.34505 -0.053274 3.84769e-07)
(1.35693 -0.0476117 3.58729e-07)
(1.36747 -0.0421196 3.41998e-07)
(1.3767 -0.0368148 3.5982e-07)
(1.38468 -0.0317162 3.60292e-07)
(1.39145 -0.0268462 3.82395e-07)
(1.39708 -0.0222327 3.55971e-07)
(1.4016 -0.0179061 3.70754e-07)
(1.40511 -0.0139023 3.07033e-07)
(1.40766 -0.0102531 3.22692e-07)
(1.40939 -0.00699421 2.08463e-07)
(1.41033 -0.0041468 2.41498e-07)
(1.41071 -0.00173602 6.32285e-08)
(1.41049 0.000242783 1.38771e-07)
(1.41 0.00178338 -1.20448e-07)
(1.40909 0.00292985 9.06611e-08)
(1.40823 0.0036899 -2.96497e-07)
(1.40706 0.00416031 9.66023e-08)
(1.40623 0.00434462 -4.87756e-07)
(1.40507 0.00440293 2.18416e-07)
(1.40455 0.00429522 -6.82244e-07)
(1.40349 0.0042666 4.98738e-07)
(1.40336 0.0041635 -9.01611e-07)
(1.40224 0.00436564 9.75033e-07)
(1.40242 0.00449382 -1.19906e-06)
(1.40091 0.00516816 1.63664e-06)
(1.40123 0.00560544 -1.63323e-06)
(1.39888 0.00687402 2.40414e-06)
(1.39916 0.00750233 -2.15229e-06)
(1.39553 0.00938284 2.85963e-06)
(1.39571 0.00990045 -2.20681e-06)
(1.39052 0.0123988 1.05005e-06)
(1.00022 -0.0106086 1.12613e-06)
(1.00544 -0.031554 -1.87193e-06)
(1.01585 -0.0515897 -3.36209e-06)
(1.03132 -0.0700097 -2.43016e-06)
(1.05126 -0.0861685 -1.53604e-06)
(1.07494 -0.0995237 -1.11416e-06)
(1.10149 -0.109653 -3.34853e-07)
(1.12994 -0.116325 8.58363e-07)
(1.15926 -0.119544 2.24389e-06)
(1.18841 -0.11957 3.51047e-06)
(1.21652 -0.116905 4.20303e-06)
(1.24296 -0.112207 4.06907e-06)
(1.2674 -0.106153 3.23494e-06)
(1.28975 -0.0993229 2.14237e-06)
(1.31011 -0.0921299 1.19367e-06)
(1.32861 -0.0848286 6.5561e-07)
(1.34541 -0.0775641 4.55091e-07)
(1.36059 -0.0704198 4.16716e-07)
(1.37425 -0.0634451 3.88589e-07)
(1.38645 -0.0566666 3.74894e-07)
(1.39727 -0.0500996 3.723e-07)
(1.40674 -0.0437567 4.07674e-07)
(1.41491 -0.0376561 4.16219e-07)
(1.42181 -0.0318228 4.43855e-07)
(1.42751 -0.0262904 4.13418e-07)
(1.43204 -0.0210973 4.29451e-07)
(1.43552 -0.016289 3.55305e-07)
(1.43796 -0.0119078 3.7094e-07)
(1.43954 -0.00799988 2.37565e-07)
(1.44029 -0.0045953 2.7148e-07)
(1.44045 -0.00172683 6.39328e-08)
(1.44 0.000607798 1.68788e-07)
(1.43929 0.00240007 -1.44332e-07)
(1.43816 0.00370329 8.38958e-08)
(1.43714 0.00452795 -3.55491e-07)
(1.43582 0.00499435 8.46777e-08)
(1.43495 0.00510936 -5.73157e-07)
(1.43375 0.0050742 2.14629e-07)
(1.43333 0.00484094 -7.95154e-07)
(1.43233 0.00471982 5.16362e-07)
(1.43243 0.00451907 -1.03944e-06)
(1.43144 0.0047194 1.04526e-06)
(1.43194 0.00484256 -1.34278e-06)
(1.43053 0.00567105 1.78169e-06)
(1.43117 0.00621664 -1.77312e-06)
(1.42881 0.00781798 2.61943e-06)
(1.42934 0.00862684 -2.25803e-06)
(1.42553 0.0109945 3.07209e-06)
(1.42584 0.0116648 -2.27006e-06)
(1.42031 0.0147562 1.01048e-06)
(1.00025 -0.0128973 1.24663e-06)
(1.00617 -0.0383498 -2.07382e-06)
(1.01799 -0.0627152 -3.93767e-06)
(1.03558 -0.0851071 -2.90239e-06)
(1.05828 -0.104726 -1.97186e-06)
(1.08524 -0.120874 -1.49584e-06)
(1.11547 -0.13298 -3.48219e-07)
(1.14778 -0.140725 1.34023e-06)
(1.18089 -0.144102 3.35701e-06)
(1.21352 -0.143459 5.22246e-06)
(1.24459 -0.139503 6.14326e-06)
(1.27338 -0.133152 5.75286e-06)
(1.29958 -0.125329 4.31467e-06)
(1.32324 -0.116777 2.52552e-06)
(1.34459 -0.10798 1.04938e-06)
(1.3639 -0.0991988 4.05156e-07)
(1.38136 -0.0905607 2.93761e-07)
(1.39712 -0.0821309 3.27821e-07)
(1.41129 -0.073942 3.20408e-07)
(1.42394 -0.0660048 3.20364e-07)
(1.43514 -0.0583209 3.38388e-07)
(1.44493 -0.0508953 3.95778e-07)
(1.45335 -0.0437439 4.11288e-07)
(1.46042 -0.036895 4.42695e-07)
(1.46621 -0.0303884 4.07189e-07)
(1.47073 -0.0242727 4.26667e-07)
(1.47412 -0.0186053 3.45341e-07)
(1.47638 -0.0134422 3.68387e-07)
(1.47773 -0.00884228 2.2138e-07)
(1.47816 -0.00484825 2.63607e-07)
(1.47799 -0.00150148 2.54455e-08)
(1.47715 0.00119483 1.52649e-07)
(1.47608 0.00323038 -1.98296e-07)
(1.47458 0.00466678 5.66841e-08)
(1.47326 0.00552122 -4.28562e-07)
(1.47164 0.00593715 6.86441e-08)
(1.47061 0.0059305 -6.69577e-07)
(1.46924 0.00574584 2.03018e-07)
(1.46883 0.00533333 -9.27804e-07)
(1.46778 0.00507252 5.21112e-07)
(1.46805 0.00473662 -1.22288e-06)
(1.46707 0.0049155 1.08241e-06)
(1.46785 0.0050267 -1.55961e-06)
(1.46642 0.00602958 1.90176e-06)
(1.46735 0.00671082 -2.00225e-06)
(1.46482 0.00870532 2.83766e-06)
(1.46557 0.00974508 -2.46701e-06)
(1.46135 0.0126834 3.33344e-06)
(1.46176 0.0135509 -2.43141e-06)
(1.45558 0.0173076 1.00743e-06)
(1.00029 -0.015513 1.39022e-06)
(1.00709 -0.0461012 -2.1998e-06)
(1.02064 -0.0754359 -4.68175e-06)
(1.04086 -0.102388 -3.4627e-06)
(1.06701 -0.126001 -2.65376e-06)
(1.09814 -0.145362 -2.10699e-06)
(1.13306 -0.159691 -3.8969e-07)
(1.17034 -0.168549 2.09992e-06)
(1.20834 -0.171885 5.2108e-06)
(1.24544 -0.170162 7.99598e-06)
(1.28025 -0.164384 9.06025e-06)
(1.31192 -0.15585 8.02877e-06)
(1.34023 -0.145817 5.52331e-06)
(1.36542 -0.135231 2.48319e-06)
(1.38795 -0.124627 4.44672e-07)
(1.40822 -0.11423 -1.3809e-07)
(1.42652 -0.104123 -5.70638e-08)
(1.443 -0.0943355 5.36035e-08)
(1.4578 -0.0848726 4.09276e-08)
(1.471 -0.0757199 4.25791e-08)
(1.48265 -0.0668589 8.35176e-08)
(1.49279 -0.0582847 1.66408e-07)
(1.50145 -0.0500098 1.90567e-07)
(1.50864 -0.0420673 2.3084e-07)
(1.51443 -0.0345045 2.00186e-07)
(1.51882 -0.0273842 2.37823e-07)
(1.52196 -0.0207778 1.67725e-07)
(1.52384 -0.0147595 2.21107e-07)
(1.52473 -0.00940375 8.81154e-08)
(1.52459 -0.00477145 1.66491e-07)
(1.52381 -0.000912872 -8.18177e-08)
(1.52229 0.0021591 8.383e-08)
(1.52057 0.00443457 -2.8151e-07)
(1.51839 0.00597991 9.01505e-09)
(1.51649 0.00682625 -5.14545e-07)
(1.51428 0.00713754 4.17247e-08)
(1.51282 0.00694967 -7.57876e-07)
(1.51102 0.00654777 1.94141e-07)
(1.51038 0.00589416 -1.05296e-06)
(1.50903 0.00543495 5.15271e-07)
(1.50927 0.00492175 -1.42724e-06)
(1.50808 0.00505157 1.0596e-06)
(1.50895 0.00514615 -1.86868e-06)
(1.50728 0.00634247 1.92331e-06)
(1.50833 0.00719727 -2.36991e-06)
(1.50538 0.00965066 2.97829e-06)
(1.50621 0.0109882 -2.84207e-06)
(1.50128 0.0145893 3.59923e-06)
(1.5017 0.0157137 -2.74326e-06)
(1.49447 0.0202098 1.06518e-06)
(1.00034 -0.0185314 1.56221e-06)
(1.0082 -0.0550148 -2.13672e-06)
(1.02386 -0.0901291 -5.65413e-06)
(1.04733 -0.122378 -4.04234e-06)
(1.07776 -0.150697 -3.78699e-06)
(1.11415 -0.17384 -3.10363e-06)
(1.15508 -0.190739 -6.76193e-07)
(1.19876 -0.200777 3.07994e-06)
(1.24311 -0.203797 8.27222e-06)
(1.28595 -0.200422 1.27308e-05)
(1.32545 -0.192093 1.3755e-05)
(1.36061 -0.18066 1.12846e-05)
(1.39137 -0.167855 6.19933e-06)
(1.41829 -0.154862 1.0644e-06)
(1.44214 -0.142219 -1.27917e-06)
(1.46352 -0.130056 -1.41002e-06)
(1.48274 -0.118368 -9.67027e-07)
(1.5 -0.107133 -7.46425e-07)
(1.51542 -0.0963129 -7.79211e-07)
(1.52909 -0.0858577 -7.88377e-07)
(1.54108 -0.0757244 -7.25894e-07)
(1.55139 -0.0658977 -6.13367e-07)
(1.56005 -0.0563879 -5.69219e-07)
(1.56707 -0.0472355 -4.9503e-07)
(1.57251 -0.0384975 -4.82586e-07)
(1.57638 -0.0302555 -3.77954e-07)
(1.57885 -0.0225983 -3.74951e-07)
(1.57991 -0.0156238 -2.28739e-07)
(1.57984 -0.00942402 -2.83472e-07)
(1.57864 -0.00408467 -1.01219e-07)
(1.57673 0.000333805 -2.83625e-07)
(1.57403 0.00380394 -8.06855e-08)
(1.57113 0.006321 -4.11981e-07)
(1.56776 0.00795018 -4.43887e-08)
(1.56476 0.0087476 -5.60477e-07)
(1.56147 0.00889122 4.83366e-08)
(1.55909 0.00845489 -7.85511e-07)
(1.55637 0.00775447 2.15813e-07)
(1.55505 0.00678869 -1.11257e-06)
(1.55298 0.00605588 5.12962e-07)
(1.55277 0.00531535 -1.5829e-06)
(1.55097 0.00535115 9.91123e-07)
(1.55156 0.00542033 -2.21201e-06)
(1.54929 0.00681346 1.78902e-06)
(1.55015 0.007883 -2.88712e-06)
(1.54645 0.0108492 2.92995e-06)
(1.54709 0.012562 -3.43506e-06)
(1.54111 0.0169085 3.78036e-06)
(1.54136 0.0183627 -3.25384e-06)
(1.53269 0.0236572 1.20741e-06)
(1.0004 -0.0220396 1.7841e-06)
(1.00953 -0.0653189 -1.72145e-06)
(1.02773 -0.107243 -6.91159e-06)
(1.05518 -0.1457 -4.44447e-06)
(1.09087 -0.179697 -5.66915e-06)
(1.13391 -0.207397 -4.57031e-06)
(1.18253 -0.227373 -1.60554e-06)
(1.23453 -0.238703 3.88405e-06)
(1.28716 -0.240992 1.26023e-05)
(1.3374 -0.235134 2.00683e-05)
(1.38278 -0.223245 2.12004e-05)
(1.42209 -0.207969 1.63718e-05)
(1.45551 -0.191687 5.80081e-06)
(1.48417 -0.175837 -2.59891e-06)
(1.50927 -0.160869 -5.30386e-06)
(1.5316 -0.146732 -4.4994e-06)
(1.55151 -0.133299 -3.29121e-06)
(1.56918 -0.120473 -2.75255e-06)
(1.58476 -0.108157 -2.73549e-06)
(1.59835 -0.0962542 -2.68601e-06)
(1.61001 -0.0846949 -2.54274e-06)
(1.61976 -0.0734565 -2.35742e-06)
(1.62764 -0.06255 -2.25108e-06)
(1.63365 -0.0520274 -2.07657e-06)
(1.6379 -0.0419574 -1.93192e-06)
(1.64038 -0.0324459 -1.65197e-06)
(1.6413 -0.0236008 -1.44771e-06)
(1.64067 -0.0155488 -1.06332e-06)
(1.63881 -0.00840203 -9.31046e-07)
(1.6357 -0.00227591 -5.69339e-07)
(1.63184 0.00275939 -6.35686e-07)
(1.62714 0.00665126 -3.53255e-07)
(1.62227 0.00941044 -5.69727e-07)
(1.61693 0.0110937 -7.29389e-08)
(1.61207 0.0117951 -5.10364e-07)
(1.60696 0.0116966 1.53604e-07)
(1.60294 0.010933 -6.55854e-07)
(1.59862 0.00983469 3.24683e-07)
(1.59592 0.0084713 -1.01899e-06)
(1.5925 0.0073652 5.3669e-07)
(1.59119 0.00633084 -1.59648e-06)
(1.58825 0.00619547 9.07275e-07)
(1.58798 0.0062121 -2.40265e-06)
(1.58468 0.00776446 1.57356e-06)
(1.58487 0.00907261 -3.35788e-06)
(1.5801 0.0125615 2.69951e-06)
(1.5802 0.0147181 -4.12329e-06)
(1.57295 0.0198521 3.83698e-06)
(1.57282 0.0217106 -3.909e-06)
(1.56249 0.0278261 1.47893e-06)
(1.00048 -0.0261323 2.12615e-06)
(1.01109 -0.0772578 -7.71427e-07)
(1.03232 -0.127301 -8.44947e-06)
(1.06457 -0.173073 -4.36658e-06)
(1.10669 -0.214113 -8.72689e-06)
(1.15818 -0.247433 -6.2533e-06)
(1.21666 -0.271274 -3.29473e-06)
(1.27957 -0.284108 4.85034e-06)
(1.34306 -0.285002 1.82767e-05)
(1.40285 -0.275372 2.90012e-05)
(1.45547 -0.258426 3.02011e-05)
(1.49936 -0.238015 2.15023e-05)
(1.53519 -0.217375 3.74139e-06)
(1.56492 -0.198117 -9.09912e-06)
(1.5904 -0.180423 -1.23619e-05)
(1.61259 -0.16397 -1.02445e-05)
(1.6319 -0.148494 -7.85635e-06)
(1.6485 -0.133816 -6.83518e-06)
(1.66263 -0.119762 -6.48876e-06)
(1.67442 -0.106179 -6.04174e-06)
(1.68399 -0.0929722 -5.54915e-06)
(1.69138 -0.080115 -5.0951e-06)
(1.69671 -0.0676214 -4.75101e-06)
(1.70001 -0.055556 -4.29341e-06)
(1.70143 -0.0439992 -3.82441e-06)
(1.701 -0.0330821 -3.18529e-06)
(1.69895 -0.0229324 -2.57434e-06)
(1.69531 -0.0137014 -1.82131e-06)
(1.69043 -0.0055251 -1.42147e-06)
(1.68429 0.0014457 -9.75299e-07)
(1.67743 0.00712954 -1.06888e-06)
(1.66974 0.0114478 -6.81575e-07)
(1.66195 0.014433 -7.10152e-07)
(1.65377 0.0161255 -2.68935e-08)
(1.64616 0.0166683 -2.92033e-07)
(1.63842 0.0162379 4.29523e-07)
(1.6319 0.0150516 -2.49615e-07)
(1.62524 0.0134344 6.34357e-07)
(1.62034 0.011564 -6.06164e-07)
(1.61491 0.00994965 6.981e-07)
(1.61173 0.00852104 -1.29574e-06)
(1.60714 0.00808454 8.67497e-07)
(1.60534 0.00797827 -2.22258e-06)
(1.6007 0.00958029 1.4063e-06)
(1.59969 0.0111012 -3.35e-06)
(1.59381 0.015037 2.52458e-06)
(1.59301 0.0176621 -4.40355e-06)
(1.58467 0.0235446 3.94923e-06)
(1.58396 0.0258595 -4.35242e-06)
(1.5723 0.0327601 2.00708e-06)
(1.0006 -0.0308977 2.77393e-06)
(1.01283 -0.0910879 8.84443e-07)
(1.03769 -0.150898 -9.98017e-06)
(1.07554 -0.205291 -3.76781e-06)
(1.12551 -0.255349 -1.38491e-05)
(1.18773 -0.295707 -7.98291e-06)
(1.25884 -0.324677 -6.02437e-06)
(1.33617 -0.339391 8.44681e-06)
(1.41407 -0.337949 2.83413e-05)
(1.48622 -0.32254 3.88126e-05)
(1.54713 -0.298057 3.49989e-05)
(1.59483 -0.270436 1.77269e-05)
(1.63102 -0.244168 -6.35631e-06)
(1.65915 -0.220743 -2.10132e-05)
(1.68193 -0.199711 -2.2326e-05)
(1.70061 -0.180378 -1.7566e-05)
(1.71565 -0.162368 -1.36974e-05)
(1.72741 -0.145425 -1.20661e-05)
(1.73628 -0.129283 -1.09514e-05)
(1.74256 -0.113733 -9.54625e-06)
(1.7465 -0.0986562 -8.2447e-06)
(1.74824 -0.0840199 -7.17438e-06)
(1.74801 -0.0698326 -6.32512e-06)
(1.74591 -0.056162 -5.3523e-06)
(1.74215 -0.0430894 -4.40357e-06)
(1.73679 -0.0307658 -3.24821e-06)
(1.73008 -0.0193229 -2.16084e-06)
(1.72203 -0.00893129 -1.22405e-06)
(1.71295 0.000246242 -1.20794e-06)
(1.70283 0.00801246 -1.18345e-06)
(1.69214 0.0142864 -1.41148e-06)
(1.6808 0.0189739 -9.05563e-07)
(1.66949 0.0221216 -7.51852e-07)
(1.65793 0.0237479 7.50136e-08)
(1.64704 0.0240456 5.34138e-08)
(1.63621 0.0231791 7.73463e-07)
(1.62666 0.0214562 3.06275e-07)
(1.61723 0.019182 1.03656e-06)
(1.60961 0.0166666 9.40879e-08)
(1.60183 0.014372 1.03696e-06)
(1.5963 0.0123965 -5.27378e-07)
(1.58989 0.0114588 9.9108e-07)
(1.58619 0.0110824 -1.44527e-06)
(1.58035 0.0125238 1.35078e-06)
(1.57791 0.0141429 -2.53822e-06)
(1.57143 0.0183308 2.49261e-06)
(1.56964 0.0213661 -3.73146e-06)
(1.56113 0.027847 4.27228e-06)
(1.55984 0.0306189 -4.01054e-06)
(1.54808 0.038203 2.95982e-06)
(1.00073 -0.0363869 4.13201e-06)
(1.01468 -0.107093 3.26929e-06)
(1.04386 -0.178626 -1.03396e-05)
(1.08789 -0.243221 -3.66922e-06)
(1.14757 -0.305197 -2.26854e-05)
(1.22317 -0.354322 -1.18688e-05)
(1.3102 -0.390412 -1.36845e-05)
(1.40682 -0.407445 1.39415e-05)
(1.50422 -0.402585 4.73023e-05)
(1.59185 -0.378419 5.52502e-05)
(1.65972 -0.342063 3.24205e-05)
(1.70618 -0.303495 -7.57319e-06)
(1.73574 -0.269327 -3.84203e-05)
(1.7547 -0.240371 -4.53706e-05)
(1.76709 -0.214997 -3.47501e-05)
(1.77449 -0.192009 -2.18398e-05)
(1.77765 -0.170905 -1.48799e-05)
(1.77732 -0.151307 -1.24781e-05)
(1.77429 -0.132834 -1.05468e-05)
(1.7691 -0.115223 -8.26154e-06)
(1.76221 -0.0983287 -6.37492e-06)
(1.75393 -0.0820858 -4.96987e-06)
(1.74458 -0.0664692 -3.92125e-06)
(1.73432 -0.0515136 -2.76905e-06)
(1.72336 -0.0372751 -1.75223e-06)
(1.7117 -0.023905 -4.54039e-07)
(1.69953 -0.0114835 6.36564e-07)
(1.68673 -0.000254364 6.05709e-08)
(1.67348 0.0096036 -8.94376e-07)
(1.65966 0.0179053 -1.19381e-06)
(1.64565 0.0245696 -1.24069e-06)
(1.63129 0.029473 -6.66762e-07)
(1.61712 0.0326526 -5.02823e-07)
(1.60288 0.0341058 1.98447e-07)
(1.58935 0.0340545 1.95607e-07)
(1.57606 0.0326506 7.62075e-07)
(1.564 0.0302751 4.72494e-07)
(1.55236 0.0272129 1.00117e-06)
(1.54244 0.0238992 5.01072e-07)
(1.53287 0.0207379 1.09823e-06)
(1.52538 0.0180144 3.60392e-07)
(1.51783 0.01632 1.15331e-06)
(1.51266 0.0154359 -8.63252e-08)
(1.50658 0.016407 1.38379e-06)
(1.50321 0.0178963 -8.25942e-07)
(1.4975 0.0220243 2.43981e-06)
(1.49524 0.0253093 -1.88007e-06)
(1.48839 0.0321425 4.56605e-06)
(1.48687 0.0353077 -2.5217e-06)
(1.47725 0.0434486 4.34515e-06)
(1.00076 -0.042577 6.91535e-06)
(1.0167 -0.125604 6.14882e-06)
(1.05053 -0.210872 -6.53357e-06)
(1.10108 -0.287952 -6.27527e-06)
(1.17301 -0.365895 -3.53298e-05)
(1.26412 -0.425695 -2.58331e-05)
(1.37136 -0.472297 -3.79872e-05)
(1.4944 -0.492148 8.21029e-06)
(1.61739 -0.48158 6.46369e-05)
(1.72001 -0.443133 8.4138e-05)
(1.78471 -0.387539 4.34836e-05)
(1.81445 -0.331916 -3.25839e-05)
(1.82017 -0.285946 -8.06209e-05)
(1.81358 -0.249041 -7.47404e-05)
(1.80067 -0.217886 -4.06199e-05)
(1.78344 -0.190617 -1.18924e-05)
(1.76307 -0.166375 -4.87671e-07)
(1.74091 -0.144426 2.17557e-06)
(1.71817 -0.124183 3.63146e-06)
(1.69562 -0.105297 4.7272e-06)
(1.67381 -0.0875538 4.95352e-06)
(1.65303 -0.0707936 4.66713e-06)
(1.63353 -0.0548963 4.21355e-06)
(1.61527 -0.0397915 3.97768e-06)
(1.59822 -0.0254814 3.80845e-06)
(1.58213 -0.0120198 3.95753e-06)
(1.56688 0.000452671 2.55872e-06)
(1.55204 0.0117248 9.83331e-07)
(1.53756 0.0216575 1.39716e-07)
(1.52313 0.0300599 1.87504e-07)
(1.50885 0.0368009 1.88038e-07)
(1.49445 0.0417048 4.01831e-07)
(1.48024 0.0447704 1.59171e-07)
(1.466 0.0459694 3.02938e-07)
(1.4523 0.0455127 -2.6026e-08)
(1.43885 0.0435401 2.09957e-07)
(1.42641 0.0404602 -2.93352e-08)
(1.41455 0.0365499 2.88221e-07)
(1.40417 0.0323239 2.01087e-07)
(1.39459 0.0281504 4.87281e-07)
(1.38682 0.0244699 6.33604e-07)
(1.37988 0.0217651 7.69078e-07)
(1.37482 0.020084 1.14519e-06)
(1.37034 0.0202425 1.1083e-06)
(1.36753 0.0212986 1.30539e-06)
(1.36461 0.0250104 1.89206e-06)
(1.36313 0.0283259 8.31485e-07)
(1.36021 0.035254 4.13405e-06)
(1.35923 0.0387257 1.95015e-08)
(1.3544 0.0473782 5.88304e-06)
(1.00046 -0.0493676 1.19512e-05)
(1.01915 -0.146856 1.02788e-05)
(1.05643 -0.247446 6.47334e-06)
(1.11453 -0.341115 -1.16638e-05)
(1.20052 -0.439565 -4.33254e-05)
(1.30782 -0.513073 -6.00641e-05)
(1.44302 -0.577123 -8.48039e-05)
(1.60228 -0.600807 -1.33416e-05)
(1.75056 -0.573853 4.97285e-05)
(1.84927 -0.506645 9.66282e-05)
(1.87894 -0.41971 0.000108591)
(1.85883 -0.340072 2.18198e-05)
(1.80853 -0.278035 -6.66151e-05)
(1.75008 -0.230936 -6.82397e-05)
(1.69173 -0.193459 -1.78223e-05)
(1.63544 -0.162936 1.61146e-05)
(1.58237 -0.137587 2.58158e-05)
(1.53394 -0.115872 2.61912e-05)
(1.49101 -0.0967491 2.49013e-05)
(1.45373 -0.079606 2.20829e-05)
(1.42191 -0.0639907 1.82968e-05)
(1.39515 -0.0495281 1.46877e-05)
(1.37293 -0.0359032 1.16055e-05)
(1.35453 -0.0229082 9.13567e-06)
(1.33928 -0.0104212 6.975e-06)
(1.32635 0.00154358 4.77611e-06)
(1.31513 0.0128163 3.49602e-06)
(1.30497 0.0232678 3.20107e-06)
(1.29545 0.0327202 2.92454e-06)
(1.28603 0.0408775 2.80777e-06)
(1.27657 0.0475075 2.26741e-06)
(1.26673 0.0523626 1.75954e-06)
(1.25669 0.0553632 9.19521e-07)
(1.24628 0.056431 4.07422e-07)
(1.23593 0.0557159 -3.33613e-07)
(1.22556 0.0533368 -4.84184e-07)
(1.21577 0.0496741 -7.96522e-07)
(1.20648 0.0450106 -6.87057e-07)
(1.19834 0.0398768 -5.74738e-07)
(1.19125 0.034652 -5.25091e-07)
(1.18568 0.0298657 1.6552e-07)
(1.18159 0.025971 -2.79721e-07)
(1.17894 0.0232312 1.32925e-06)
(1.17805 0.0223106 -6.89102e-08)
(1.17782 0.0226662 2.68817e-06)
(1.17946 0.0256977 2.6159e-07)
(1.18033 0.0288955 3.45732e-06)
(1.18298 0.035776 2.13545e-06)
(1.1834 0.0395632 3.21478e-06)
(1.18509 0.0488785 7.12496e-06)
(0.999758 -0.0566212 1.90364e-05)
(1.02189 -0.170344 2.06683e-05)
(1.05923 -0.287502 3.28137e-05)
(1.12731 -0.40426 -1.15879e-05)
(1.22376 -0.526396 -2.48615e-05)
(1.34949 -0.623077 -0.000110397)
(1.52573 -0.716736 -0.000123122)
(1.72536 -0.737989 -3.73875e-05)
(1.86806 -0.66478 1.8489e-05)
(1.89526 -0.534353 4.24485e-05)
(1.81983 -0.39707 0.000152338)
(1.69667 -0.291373 0.000116564)
(1.54699 -0.214606 1.07592e-05)
(1.41637 -0.161926 -1.56568e-05)
(1.30934 -0.124397 1.86847e-05)
(1.223 -0.098523 2.71235e-05)
(1.15487 -0.0804985 1.82194e-05)
(1.10299 -0.0671215 1.28713e-05)
(1.06461 -0.0563906 1.16642e-05)
(1.03686 -0.0470986 1.07877e-05)
(1.01736 -0.0384242 9.70419e-06)
(1.00417 -0.0298182 8.82628e-06)
(0.995771 -0.0209602 7.90906e-06)
(0.990823 -0.0116855 6.84367e-06)
(0.988337 -0.0020072 5.2948e-06)
(0.987267 0.00799618 3.97353e-06)
(0.987024 0.0180774 4.39859e-06)
(0.987002 0.0279382 4.90255e-06)
(0.986741 0.0372235 4.61104e-06)
(0.985805 0.0455208 4.02249e-06)
(0.984065 0.0524782 3.04428e-06)
(0.981313 0.0577559 2.16563e-06)
(0.977708 0.0611655 1.09432e-06)
(0.973223 0.0625583 3.25777e-07)
(0.968269 0.0619958 -5.71505e-07)
(0.962942 0.0595673 -9.53456e-07)
(0.957815 0.0555962 -1.38637e-06)
(0.953035 0.0503811 -1.46923e-06)
(0.949166 0.0444355 -1.40975e-06)
(0.946395 0.0381972 -1.5161e-06)
(0.944982 0.0322373 -7.62074e-07)
(0.945305 0.027078 -1.50317e-06)
(0.946802 0.0231258 5.33956e-07)
(0.950565 0.0210278 -1.72425e-06)
(0.954319 0.020568 2.65708e-06)
(0.960959 0.0228661 -2.21756e-06)
(0.965164 0.0259999 5.23476e-06)
(0.973293 0.0328684 -1.36377e-06)
(0.975614 0.0372166 7.10949e-06)
(0.983485 0.0475156 7.793e-06)
(0.999088 -0.0640694 2.62177e-05)
(1.02318 -0.194014 4.16519e-05)
(1.05703 -0.32978 6.51402e-05)
(1.13433 -0.475148 1.24582e-05)
(1.22983 -0.624285 3.42885e-05)
(1.38593 -0.766339 -0.000179314)
(1.6077 -0.895837 -7.15418e-05)
(1.80917 -0.871358 -0.000131795)
(1.86024 -0.780033 5.1387e-05)
(1.74932 -0.534255 -0.000146059)
(1.49957 -0.305519 -0.000106596)
(1.21933 -0.163244 -5.52026e-05)
(0.799945 -0.053369 -3.55354e-05)
(0.691417 -0.0379528 -2.98615e-05)
(0.633273 -0.0352751 2.64056e-05)
(0.602921 -0.0389548 3.35445e-05)
(0.590446 -0.0428114 2.42866e-05)
(0.588667 -0.0445025 1.72425e-05)
(0.592458 -0.0438476 1.13254e-05)
(0.599022 -0.0412209 6.1538e-06)
(0.607084 -0.0369302 2.94082e-06)
(0.615996 -0.0311849 1.53237e-06)
(0.62538 -0.0241415 1.06572e-06)
(0.634875 -0.0159399 1.22699e-06)
(0.644321 -0.00676962 1.3878e-06)
(0.653297 0.00317704 8.51729e-07)
(0.661567 0.0136567 1.4595e-06)
(0.668995 0.0241479 2.35079e-06)
(0.675372 0.0342389 2.5792e-06)
(0.680511 0.0434712 2.45438e-06)
(0.684403 0.0514146 1.987e-06)
(0.687004 0.0576578 1.50195e-06)
(0.6885 0.0619203 7.59863e-07)
(0.688998 0.0639943 1.46808e-07)
(0.688879 0.0638628 -6.28453e-07)
(0.688361 0.0615887 -1.08433e-06)
(0.687953 0.0574484 -1.59681e-06)
(0.687905 0.0517659 -1.82473e-06)
(0.688697 0.0450504 -1.91902e-06)
(0.690569 0.0378222 -2.09249e-06)