0 	0 	0 	0
1.57135 	-0.0030947 	0.00310571 	0
3.1427 	-0.0063647 	0.00684559 	0
4.71405 	-0.00939838 	0.0112872 	0
6.28539 	-0.0120407 	0.0178261 	0
7.85674 	-0.0127395 	0.031745 	0
9.42809 	0.0254582 	0.0501255 	0
10.9994 	0.0364367 	0.00422472 	0
12.5708 	0.01443 	-0.00119688 	0
14.1421 	0.5 	0 	0
