/*--------------------------------*- C++ -*----------------------------------*\
  =========                 |
  \\      /  F ield         | OpenFOAM: The Open Source CFD Toolbox
   \\    /   O peration     | Website:  https://openfoam.org
    \\  /    A nd           | Version:  8
     \\/     M anipulation  |
\*---------------------------------------------------------------------------*/
FoamFile
{
    version     2.0;
    format      ascii;
    class       volScalarField;
    location    "0.155";
    object      p;
}
// * * * * * * * * * * * * * * * * * * * * * * * * * * * * * * * * * * * * * //

dimensions      [0 2 -2 0 0 0 0];

internalField   nonuniform List<scalar> 
400
(
-3.45863e-06
-0.00582382
-0.0129462
-0.0183833
-0.0203901
-0.0181912
-0.0117269
-0.00144202
0.0118697
0.0271696
0.043252
0.0588187
0.0725649
0.0832892
0.090033
0.0922521
0.0900206
0.0842515
0.0769011
0.0710964
0.0057623
-0.000225435
-0.00579841
-0.00952555
-0.0105734
-0.00840207
-0.00293787
0.00550415
0.016328
0.0287301
0.0417609
0.0543902
0.0655855
0.0744064
0.0801176
0.0823174
0.0810866
0.0770739
0.0713035
0.0653563
0.0133049
0.00501826
-0.000998432
-0.00441625
-0.00525818
-0.00324388
0.00162506
0.0090505
0.0185232
0.0293672
0.0407795
0.0518801
0.0617764
0.0696434
0.0748157
0.0768912
0.0758617
0.0721149
0.065845
0.0575871
0.0200991
0.0086738
0.00121672
-0.00266799
-0.00371377
-0.00187122
0.00274909
0.00980424
0.0188003
0.029114
0.0400093
0.0506696
0.0602474
0.0679306
0.07302
0.0750229
0.0737941
0.0694934
0.0616521
0.0501672
0.0244558
0.00974735
0.000577581
-0.00398955
-0.00529702
-0.0034959
0.00119084
0.00835387
0.0174832
0.027971
0.0391068
0.0500912
0.0600698
0.0681867
0.0736503
0.0758261
0.0744041
0.0693339
0.0595823
0.0446119
0.0251325
0.00712539
-0.00381331
-0.00905927
-0.0105064
-0.0084877
-0.00333911
0.00445137
0.0143384
0.025706
0.0378416
0.0499312
0.061076
0.0703316
0.0767651
0.0795512
0.0781795
0.0723826
0.060601
0.0419704
0.0210564
-0.000280541
-0.0129406
-0.0187069
-0.02002
-0.0173974
-0.0112959
-0.00229222
0.00902184
0.0220103
0.0359451
0.0499801
0.0631477
0.0743809
0.0825586
0.086609
0.0857653
0.0794991
0.0656841
0.0431529
0.0111213
-0.0136247
-0.0278717
-0.0338437
-0.0345863
-0.0308337
-0.0231829
-0.0123098
0.00114471
0.0165268
0.033097
0.0499782
0.0661272
0.0803328
0.0912435
0.0974742
0.0979178
0.0916892
0.0759589
0.0491939
-0.00596719
-0.0342571
-0.0498541
-0.0555272
-0.0550631
-0.0494816
-0.0395544
-0.0260686
-0.0097076
0.00887577
0.0289552
0.0496474
0.0698498
0.0882049
0.103096
0.112749
0.1156
0.110244
0.0928933
0.061481
-0.0318322
-0.0638484
-0.0803865
-0.0849736
-0.0823823
-0.0740354
-0.0609322
-0.0439823
-0.0238923
-0.00127435
0.0232094
0.048724
0.0741562
0.0980296
0.11845
0.133177
0.140039
0.136869
0.118494
0.0819924
-0.0686169
-0.104557
-0.1213
-0.123544
-0.117467
-0.105074
-0.087661
-0.0662627
-0.0415692
-0.0140845
0.0156778
0.0470241
0.0789233
0.109857
0.137682
0.159639
0.172777
0.173825
0.155566
0.113616
-0.119329
-0.159294
-0.174858
-0.172702
-0.161092
-0.14287
-0.119696
-0.0927082
-0.0625036
-0.0293704
0.00645134
0.0445499
0.0841275
0.12377
0.161197
0.19314
0.215716
0.22412
0.208088
0.160664
-0.188538
-0.232168
-0.243873
-0.233887
-0.213635
-0.187093
-0.156307
-0.12243
-0.0858216
-0.0463922
-0.00393352
0.0416176
0.0899162
0.139897
0.189379
0.234741
0.271119
0.291701
0.281771
0.229792
-0.283875
-0.329225
-0.331764
-0.308219
-0.274651
-0.236381
-0.195702
-0.153542
-0.109766
-0.0636665
-0.014358
0.0389411
0.0966265
0.158341
0.22243
0.285335
0.341436
0.381605
0.384933
0.331837
-0.41922
-0.459594
-0.442287
-0.395738
-0.342079
-0.287689
-0.234561
-0.182868
-0.131541
-0.0789111
-0.0231384
0.0375488
0.104621
0.178897
0.259911
0.345011
0.428648
0.499723
0.529686
0.485384
-0.620444
-0.636677
-0.578625
-0.494151
-0.411204
-0.335621
-0.267738
-0.205927
-0.147477
-0.0893169
-0.0283571
0.0384157
0.113869
0.200525
0.300018
0.412058
0.533054
0.651791
0.732776
0.72238
-0.935855
-0.878464
-0.741705
-0.597923
-0.474372
-0.372638
-0.28884
-0.217724
-0.153905
-0.092407
-0.028656
0.0417567
0.12332
0.220766
0.338964
0.482182
0.652015
0.841352
1.01527
1.09749
-1.47638
-1.2066
-0.920484
-0.691379
-0.517301
-0.387538
-0.290047
-0.213311
-0.148086
-0.0871676
-0.0245232
0.0455138
0.128991
0.233117
0.36714
0.542704
0.771309
1.05933
1.40329
1.73013
-2.53962
-1.63053
-1.04443
-0.710965
-0.495762
-0.352102
-0.254531
-0.183571
-0.126143
-0.0735553
-0.0192191
0.0428425
0.119268
0.218835
0.354856
0.548017
0.826415
1.23659
1.91168
2.92418
-4.36665
-2.04462
-0.973549
-0.563202
-0.357876
-0.240175
-0.170139
-0.123787
-0.0874668
-0.0534773
-0.0166055
0.0277209
0.0846732
0.161795
0.272471
0.442149
0.718256
1.22573
2.41105
4.84853
)
;

boundaryField
{
    movingWall
    {
        type            zeroGradient;
    }
    fixedWalls
    {
        type            zeroGradient;
    }
    frontAndBack
    {
        type            empty;
    }
}


// ************************************************************************* //
