/*--------------------------------*- C++ -*----------------------------------*\
  =========                 |
  \\      /  F ield         | OpenFOAM: The Open Source CFD Toolbox
   \\    /   O peration     | Website:  https://openfoam.org
    \\  /    A nd           | Version:  8
     \\/     M anipulation  |
\*---------------------------------------------------------------------------*/
FoamFile
{
    version     2.0;
    format      ascii;
    class       volScalarField;
    location    "27";
    object      p;
}
// * * * * * * * * * * * * * * * * * * * * * * * * * * * * * * * * * * * * * //

dimensions      [0 2 -2 0 0 0 0];

internalField   nonuniform List<scalar> 
464
(
-1.60336e-08
3.55026e-06
1.18772e-05
2.42196e-05
4.0592e-05
6.05822e-05
8.39702e-05
0.000109926
0.000139154
0.000167859
0.000202462
0.00022878
-3.72757e-06
-1.05012e-07
8.34858e-06
2.088e-05
3.75111e-05
5.78373e-05
8.16341e-05
0.00010812
0.000137961
0.000167529
0.000203133
0.000231291
-1.2346e-05
-8.60528e-06
1.36343e-07
1.30957e-05
3.02896e-05
5.13084e-05
7.58595e-05
0.000103246
0.000133479
0.000164457
0.00019843
0.000229192
-2.55947e-05
-2.16709e-05
-1.24803e-05
1.16224e-06
1.92788e-05
4.14715e-05
6.74232e-05
9.65224e-05
0.000128666
0.000162014
0.000198459
0.000232086
-4.38642e-05
-3.96973e-05
-2.99064e-05
-1.5349e-05
3.99137e-06
2.77156e-05
5.54494e-05
8.65682e-05
0.000120639
0.000156521
0.000194107
0.000231607
-6.75086e-05
-6.30287e-05
-5.24732e-05
-3.67293e-05
-1.57972e-05
9.95111e-06
4.01011e-05
7.4107e-05
0.000111507
0.000151356
0.000193469
0.000235119
-9.67997e-05
-9.19815e-05
-8.05431e-05
-6.3387e-05
-4.05587e-05
-1.23874e-05
2.06309e-05
5.79459e-05
9.88455e-05
0.000142333
0.000187727
0.000234652
-0.000133015
-0.000127664
-0.000115108
-9.61666e-05
-7.10242e-05
-3.9845e-05
-3.26307e-06
3.83133e-05
8.43162e-05
0.000134182
0.000187056
0.000240262
-0.000174275
-0.000168688
-0.000155183
-0.000134633
-0.000107172
-7.2826e-05
-3.23701e-05
1.36721e-05
6.41785e-05
0.000118093
0.000174668
0.000234599
-0.0002281
-0.000221533
-0.000206543
-0.000182875
-0.000152051
-0.000113063
-6.75602e-05
-1.5299e-05
4.32799e-05
0.000107422
0.000176435
0.000246205
-0.000282126
-0.000276053
-0.000260208
-0.000235297
-0.000201996
-0.000159369
-0.000109381
-5.18296e-05
1.06618e-05
7.79751e-05
0.000149068
0.000225503
-0.00035913
-0.000350925
-0.000334106
-0.000303518
-0.00026675
-0.000216641
-0.0001598
-9.29373e-05
-1.77235e-05
6.49318e-05
0.000153959
0.000247706
-0.000428473
-0.000424599
-0.000405773
-0.000375781
-0.000335391
-0.000281193
-0.000219277
-0.000147329
-6.98196e-05
1.43102e-05
0.00010312
0.000200588
-0.000533078
-0.000523366
-0.000506863
-0.000466651
-0.000424812
-0.000358749
-0.000288799
-0.000200234
-0.000104961
3.5729e-07
0.000113394
0.00023859
-0.000624501
-0.000642271
-0.00060916
-0.000582356
-0.000526263
-0.00045732
-0.000377545
-0.000285554
-0.000187797
-8.1593e-05
2.36387e-05
0.000151554
-0.000753663
-0.000710194
-0.000735348
-0.000658054
-0.000627914
-0.000533058
-0.000452464
-0.000338954
-0.000223956
-9.29852e-05
4.04923e-05
0.00020451
-0.00087974
-0.00102466
-0.000896194
-0.000944279
-0.000810368
-0.000725405
-0.000605568
-0.000477372
-0.00034905
-0.000211154
-9.31968e-05
7.60729e-05
-0.00106361
-0.000896308
-0.00102704
-0.000902571
-0.000883109
-0.00075983
-0.000658591
-0.000515941
-0.000377708
-0.000219727
-7.4577e-05
0.000124235
-0.00116895
-0.00171564
-0.00138852
-0.00155038
-0.00122908
-0.00111358
-0.000897092
-0.000712082
-0.000539181
-0.000360373
-0.000227276
-1.45497e-05
-0.00232505
-0.00128196
-0.00145576
-0.00136615
-0.00122793
-0.00107997
-0.000909021
-0.000726476
-0.000549273
-0.000364941
-0.000214003
1.05817e-05
0.000270533
0.000289556
0.000311166
0.000325175
0.000338259
0.000347132
0.000353546
0.000356222
0.000274986
0.00029535
0.000318953
0.000334509
0.000348943
0.000358936
0.000366098
0.000369111
0.000264068
0.000290761
0.000317377
0.000338214
0.000356308
0.000369542
0.000378742
0.000382753
0.000269611
0.000299208
0.000328562
0.000352121
0.000372502
0.000387745
0.000398284
0.000402942
0.000269567
0.000304429
0.000337264
0.000365767
0.000389976
0.000408653
0.000421479
0.00042726
0.000277273
0.000316625
0.000353788
0.00038664
0.000414647
0.000436651
0.000451736
0.00045876
0.000281735
0.000327298
0.000370247
0.00040932
0.000442493
0.000469331
0.000487415
0.000496151
0.000293925
0.000346465
0.000396381
0.000442878
0.000482413
0.000515611
0.000537668
0.000548855
0.000295247
0.000355928
0.000413294
0.000468977
0.000514669
0.00055654
0.000582102
0.000597226
0.000317576
0.000390064
0.00045909
0.000528641
0.00058495
0.000639861
0.00067239
0.000693203
0.00030334
0.000386704
0.000459728
0.000546854
0.000604425
0.000680734
0.000713265
0.000746669
0.000343027
0.000446884
0.000539426
0.000651366
0.000730027
0.00083125
0.000879831
0.000926387
0.000292192
0.00041385
0.000493298
0.000641823
0.000700967
0.000856027
0.000890541
0.000979019
0.000357568
0.000509423
0.000625872
0.000812475
0.000918442
0.0011193
0.00119635
0.00132049
0.000242467
0.000424589
0.000480572
0.000739169
0.000763594
0.00109041
0.00110952
0.00137613
0.000337638
0.000555543
0.000680307
0.000988717
0.00111139
0.00152272
0.00165409
0.00203966
0.000138028
0.000401151
0.000365403
0.000791569
0.00066596
0.0013246
0.00124678
0.00207988
0.000244469
0.000538133
0.000604883
0.0010869
0.00112296
0.00193223
0.00202112
0.00331672
3.92021e-06
0.000346811
0.000123679
0.000728278
0.000111398
0.00124134
0.000452768
0.00271867
7.39363e-05
0.000424135
0.000333553
0.000941124
0.000805486
0.00213542
0.00303073
0.00707296
0.000326038
0.00032644
0.0003273
0.000328343
0.000329494
0.000330486
0.000331255
0.0003316
0.000326757
0.000327176
0.000328058
0.000329139
0.000330296
0.0003313
0.000332069
0.000332413
0.000323633
0.000324308
0.000325704
0.000327308
0.000329084
0.000330563
0.000331707
0.000332211
0.000325655
0.000326413
0.000327951
0.000329753
0.000331617
0.000333199
0.000334392
0.00033492
0.000318008
0.000319644
0.000322717
0.000325944
0.000329388
0.000332121
0.000334191
0.000335088
0.000321385
0.000323224
0.000326636
0.00033028
0.000333949
0.000336929
0.000339142
0.000340104
0.000304854
0.000309894
0.000317627
0.000324507
0.000331465
0.000336586
0.000340383
0.000341993
0.000309519
0.000315063
0.000323489
0.000331142
0.000338611
0.000344286
0.000348414
0.000350178
)
;

boundaryField
{
    movingWall
    {
        type            zeroGradient;
    }
    fixedWalls
    {
        type            zeroGradient;
    }
    frontAndBack
    {
        type            empty;
    }
}


// ************************************************************************* //
