0 	-1.95398e-09
1.57135 	-5.38743e-06
3.1427 	-3.05713e-05
4.71405 	-0.000109775
6.28539 	-0.000338839
7.85674 	-0.00107222
9.42809 	-0.00325343
10.9994 	-0.00465846
12.5708 	-0.00390917
14.1421 	0.250511
