0 	7.24539e-10
1.57135 	2.37326e-06
3.1427 	-0.000251428
4.71405 	-0.000958968
6.28539 	-0.00227862
7.85674 	-0.00436718
9.42809 	-0.00601349
10.9994 	-0.00592403
12.5708 	0.0142324
14.1421 	0.0490182
