/*--------------------------------*- C++ -*----------------------------------*\
  =========                 |
  \\      /  F ield         | OpenFOAM: The Open Source CFD Toolbox
   \\    /   O peration     | Website:  https://openfoam.org
    \\  /    A nd           | Version:  8
     \\/     M anipulation  |
\*---------------------------------------------------------------------------*/
FoamFile
{
    version     2.0;
    format      ascii;
    class       surfaceScalarField;
    location    "9";
    object      phi;
}
// * * * * * * * * * * * * * * * * * * * * * * * * * * * * * * * * * * * * * //

dimensions      [0 3 -1 0 0 0 0];

internalField   nonuniform List<scalar> 
880
(
-4.75367e-06
4.75366e-06
-9.47285e-06
4.71918e-06
-1.39526e-05
4.47972e-06
-1.80842e-05
4.13159e-06
-2.17728e-05
3.68864e-06
-2.49401e-05
3.1673e-06
-2.75275e-05
2.58744e-06
-2.94925e-05
1.96496e-06
-3.08423e-05
1.34975e-06
-3.15293e-05
6.87071e-07
-3.1914e-05
3.847e-07
-4.74684e-07
-3.14393e-05
-4.95836e-06
9.71202e-06
-9.87825e-06
9.63907e-06
-1.4545e-05
9.14647e-06
-1.88444e-05
8.43098e-06
-2.26776e-05
7.52186e-06
-2.59648e-05
6.45445e-06
-2.86515e-05
5.27415e-06
-3.07002e-05
4.01373e-06
-3.21133e-05
2.76286e-06
-3.28737e-05
1.4474e-06
-3.32757e-05
7.86726e-07
-9.07278e-07
-3.28431e-05
-5.20474e-06
1.49168e-05
-1.03649e-05
1.47993e-05
-1.52516e-05
1.40332e-05
-1.97421e-05
1.29215e-05
-2.37301e-05
1.15098e-05
-2.71256e-05
9.84996e-06
-2.98501e-05
7.99862e-06
-3.18446e-05
6.00823e-06
-3.30444e-05
3.96273e-06
-3.34528e-05
1.85571e-06
-3.28058e-05
1.39762e-07
-2.24834e-06
-3.14647e-05
-5.58687e-06
2.05036e-05
-1.11192e-05
2.03316e-05
-1.63466e-05
1.92605e-05
-2.11347e-05
1.77096e-05
-2.53708e-05
1.5746e-05
-2.89633e-05
1.34425e-05
-3.18416e-05
1.08768e-05
-3.39582e-05
8.12485e-06
-3.52629e-05
5.26743e-06
-3.57204e-05
2.31325e-06
-3.5064e-05
-5.16704e-07
-3.58172e-06
-3.37306e-05
-6.12172e-06
2.66254e-05
-1.21731e-05
2.6383e-05
-1.78729e-05
2.49604e-05
-2.30705e-05
2.29071e-05
-2.76444e-05
2.03199e-05
-3.14977e-05
1.72958e-05
-3.45556e-05
1.39347e-05
-3.67569e-05
1.03262e-05
-3.80484e-05
6.55889e-06
-3.84242e-05
2.68903e-06
-3.78015e-05
-1.13935e-06
-5.12812e-06
-3.62551e-05
-6.83337e-06
3.34587e-05
-1.35709e-05
3.31205e-05
-1.98914e-05
3.12809e-05
-2.56211e-05
2.86368e-05
-3.06323e-05
2.53311e-05
-3.48273e-05
2.14908e-05
-3.81394e-05
1.72467e-05
-4.05228e-05
1.27097e-05
-4.19435e-05
7.97956e-06
-4.23791e-05
3.12463e-06
-4.17463e-05
-1.77213e-06
-6.71847e-06
-4.0156e-05
-7.75701e-06
4.12157e-05
-1.53754e-05
4.07388e-05
-2.24848e-05
3.83904e-05
-2.88775e-05
3.50294e-05
-3.44245e-05
3.08781e-05
-3.90299e-05
2.60962e-05
-4.264e-05
2.08569e-05
-4.5223e-05
1.52926e-05
-4.67577e-05
9.51427e-06
-4.72352e-05
3.60212e-06
-4.66405e-05
-2.3668e-06
-8.37431e-06
-4.49847e-05
-8.94584e-06
5.01616e-05
-1.76765e-05
4.94695e-05
-2.577e-05
4.64839e-05
-3.29642e-05
4.22235e-05
-3.91439e-05
3.70579e-05
-4.422e-05
3.11723e-05
-4.81658e-05
2.48027e-05
-5.09747e-05
1.81015e-05
-5.26508e-05
1.11904e-05
-5.31996e-05
4.15095e-06
-5.26117e-05
-2.9547e-06
-1.00854e-05
-5.09006e-05
-1.04737e-05
6.06353e-05
-2.05985e-05
5.95943e-05
-2.99078e-05
5.57932e-05
-3.80462e-05
5.03619e-05
-4.49462e-05
4.39579e-05
-5.05313e-05
3.67574e-05
-5.48244e-05
2.90958e-05
-5.78581e-05
2.11352e-05
-5.96708e-05
1.30031e-05
-6.02902e-05
4.7704e-06
-5.97219e-05
-3.52305e-06
-1.18491e-05
-5.79581e-05
-1.24861e-05
7.31214e-05
-2.43452e-05
7.14534e-05
-3.51464e-05
6.65945e-05
-4.43546e-05
5.957e-05
-5.20359e-05
5.16392e-05
-5.81281e-05
4.28496e-05
-6.27416e-05
3.37094e-05
-6.59674e-05
2.4361e-05
-6.7893e-05
1.49286e-05
-6.8576e-05
5.45342e-06
-6.80364e-05
-4.06261e-06
-1.36358e-05
-6.62498e-05
-1.50611e-05
8.81825e-05
-2.90871e-05
8.54794e-05
-4.17486e-05
7.9256e-05
-5.21601e-05
6.99815e-05
-6.06604e-05
6.01395e-05
-6.71988e-05
4.9388e-05
-7.20493e-05
3.85599e-05
-7.53891e-05
2.77008e-05
-7.7373e-05
1.69125e-05
-7.81006e-05
6.18102e-06
-7.76104e-05
-4.55284e-06
-1.53818e-05
-7.58644e-05
-1.90286e-05
0.000107211
-3.56298e-05
0.000102081
-5.05722e-05
9.41984e-05
-6.20118e-05
8.14211e-05
-7.12174e-05
6.93451e-05
-7.79893e-05
5.61599e-05
-8.28881e-05
4.34587e-05
-8.61857e-05
3.09984e-05
-8.81273e-05
1.88541e-05
-8.88683e-05
6.92201e-06
-8.84622e-05
-4.95891e-06
-1.69858e-05
-8.68583e-05
-2.32567e-05
0.000130468
-4.30789e-05
0.000121903
-6.07971e-05
0.000111917
-7.35589e-05
9.41829e-05
-8.36571e-05
7.94434e-05
-9.05685e-05
6.30713e-05
-9.53186e-05
4.82088e-05
-9.83619e-05
3.40417e-05
-0.000100116
2.06077e-05
-0.000100816
7.62291e-06
-0.000100546
-5.22973e-06
-1.83004e-05
-9.9231e-05
-3.36718e-05
0.00016414
-5.72839e-05
0.000145515
-7.82981e-05
0.000132931
-9.06707e-05
0.000106555
-0.000100284
8.90569e-05
-0.000105937
6.87242e-05
-0.000109685
5.19568e-05
-0.000111945
3.63015e-05
-0.000113234
2.18971e-05
-0.000113814
8.20293e-06
-0.000113772
-5.27232e-06
-1.90039e-05
-0.000113068
-4.03243e-05
0.000204464
-6.85395e-05
0.00017373
-9.32216e-05
0.000157613
-0.00010673
0.000120064
-0.000116826
9.9152e-05
-0.000121861
7.37596e-05
-0.000124884
5.49804e-05
-0.000126345
3.77621e-05
-0.000127039
2.25913e-05
-0.00012738
8.54404e-06
-0.000127567
-5.0859e-06
-1.91317e-05
-0.000127439
-7.48185e-05
0.000279282
-0.000105104
0.000204015
-0.000131559
0.000184069
-0.00013922
0.000127725
-0.000143957
0.000103888
-0.000144071
7.3874e-05
-0.000143385
5.42938e-05
-0.000142268
3.66459e-05
-0.00014156
2.18833e-05
-0.000141547
8.53125e-06
-0.000142259
-4.37446e-06
-1.76134e-05
-0.000143777
-8.37234e-05
0.000363006
-0.000121409
0.000241701
-0.000151993
0.000214652
-0.000159828
0.00013556
-0.000163566
0.000107626
-0.000161794
7.2102e-05
-0.000159297
5.17964e-05
-0.000156631
3.39804e-05
-0.000154869
2.01211e-05
-0.00015426
7.92253e-06
-0.000155164
-3.47076e-06
-1.54366e-05
-0.000157341
-0.000220112
0.000583118
-0.000229015
0.000250604
-0.000234853
0.000220491
-0.000220271
0.000120978
-0.000203527
9.08816e-05
-0.000190886
5.94616e-05
-0.000179807
4.07171e-05
-0.000172449
2.66227e-05
-0.000168173
1.58451e-05
-0.000166967
6.71652e-06
-0.000168698
-1.73943e-06
-1.03596e-05
-0.000173775
-0.000260943
0.000844061
-0.000262329
0.00025199
-0.000262137
0.000220299
-0.000236798
9.56386e-05
-0.000212834
6.69174e-05
-0.000194108
4.07364e-05
-0.00017875
2.53589e-05
-0.000168425
1.62976e-05
-0.000162006
9.4255e-06
-0.000159398
4.10925e-06
-0.000160467
-6.71163e-07
-5.71013e-06
-0.000165116
0.000844061
0.00109605
0.00131635
0.00141199
0.00147891
0.00151964
0.001545
0.0015613
0.00157072
0.00157483
0.00157416
0.00156845
-2.3964e-05
8.65911e-06
-1.61345e-05
-1.83623e-05
3.22762e-06
-8.82928e-06
-1.4838e-05
-1.15879e-06
-2.3655e-06
-1.16834e-05
-4.60917e-06
1.45453e-06
-8.72831e-06
-7.23004e-06
4.27498e-06
-5.80208e-06
-9.14081e-06
6.21459e-06
-2.87591e-06
-1.03873e-05
7.46108e-06
-1.08e-05
7.92409e-06
-2.56575e-05
1.47354e-06
-2.0194e-05
-2.23596e-06
-1.64904e-05
-4.86237e-06
-1.31383e-05
-7.96123e-06
-9.94331e-06
-1.04251e-05
-6.69032e-06
-1.23938e-05
-3.3471e-06
-1.37305e-05
-1.41471e-05
-2.76838e-05
-2.30734e-06
-2.40617e-05
-5.85806e-06
-2.01843e-05
-8.7398e-06
-1.6307e-05
-1.18386e-05
-1.23121e-05
-1.442e-05
-8.23192e-06
-1.64739e-05
-4.09729e-06
-1.78651e-05
-1.82444e-05
-3.01212e-05
-5.91676e-06
-2.65269e-05
-9.45239e-06
-2.25588e-05
-1.27079e-05
-1.84494e-05
-1.59479e-05
-1.40984e-05
-1.8771e-05
-9.52756e-06
-2.10448e-05
-4.76787e-06
-2.26248e-05
-2.30123e-05
-3.34509e-05
-8.72096e-06
-3.00297e-05
-1.28736e-05
-2.59447e-05
-1.67929e-05
-2.1381e-05
-2.05115e-05
-1.64139e-05
-2.37381e-05
-1.11124e-05
-2.63463e-05
-5.56948e-06
-2.81677e-05
-2.85817e-05
-3.73605e-05
-1.15164e-05
-3.38091e-05
-1.6425e-05
-2.94901e-05
-2.11119e-05
-2.45154e-05
-2.54863e-05
-1.89438e-05
-2.93096e-05
-1.28845e-05
-3.24056e-05
-6.47716e-06
-3.45751e-05
-3.50589e-05
-4.22137e-05
-1.42874e-05
-3.84789e-05
-2.01599e-05
-3.38066e-05
-2.57842e-05
-2.82772e-05
-3.10156e-05
-2.19743e-05
-3.56126e-05
-1.50083e-05
-3.93716e-05
-7.56909e-06
-4.20143e-05
-4.2628e-05
-4.80273e-05
-1.71607e-05
-4.40414e-05
-2.41457e-05
-3.8951e-05
-3.08746e-05
-3.27898e-05
-3.71769e-05
-2.56374e-05
-4.2765e-05
-1.75909e-05
-4.74182e-05
-8.90984e-06
-5.06953e-05
-5.15378e-05
-5.49592e-05
-2.01596e-05
-5.07038e-05
-2.84012e-05
-4.5154e-05
-3.64243e-05
-3.82793e-05
-4.40517e-05
-3.01463e-05
-5.08979e-05
-2.07943e-05
-5.67702e-05
-1.05951e-05
-6.08945e-05
-6.21329e-05
-6.31519e-05
-2.32575e-05
-5.86554e-05
-3.28976e-05
-5.26558e-05
-4.24239e-05
-4.50181e-05
-5.16894e-05
-3.57942e-05
-6.01218e-05
-2.48585e-05
-6.77059e-05
-1.27959e-05
-7.2957e-05
-7.49288e-05
-7.27528e-05
-2.63691e-05
-6.81103e-05
-3.75402e-05
-6.17405e-05
-4.87936e-05
-5.33183e-05
-6.01117e-05
-4.28942e-05
-7.05459e-05
-2.9992e-05
-8.06081e-05
-1.56361e-05
-8.73129e-05
-9.05649e-05
-8.38989e-05
-2.93285e-05
-7.93315e-05
-4.21075e-05
-7.28524e-05
-5.52727e-05
-6.37944e-05
-6.91697e-05
-5.24052e-05
-8.19351e-05
-3.70936e-05
-9.59197e-05
-1.99751e-05
-0.000104431
-0.00011054
-9.66358e-05
-3.19237e-05
-9.23314e-05
-4.6412e-05
-8.58641e-05
-6.174e-05
-7.60127e-05
-7.90211e-05
-6.35146e-05
-9.44332e-05
-4.53078e-05
-0.000114127
-2.49565e-05
-0.000124783
-0.000135497
-0.000111453
-3.35384e-05
-0.000108387
-4.94789e-05
-0.000103513
-6.6614e-05
-9.43847e-05
-8.8149e-05
-8.24773e-05
-0.000106341
-6.08504e-05
-0.000135753
-3.62609e-05
-0.000149372
-0.000171757
-0.000126647
-3.43304e-05
-0.000124378
-5.1748e-05
-0.000120427
-7.05649e-05
-0.000111131
-9.74454e-05
-9.90435e-05
-0.000118428
-7.39149e-05
-0.000160882
-4.58138e-05
-0.000177473
-0.000217571
-0.000145952
-3.21561e-05
-0.000147936
-4.97635e-05
-0.000149677
-6.88241e-05
-0.000146515
-0.000100607
-0.000140973
-0.000123969
-0.000114347
-0.000187508
-8.26347e-05
-0.000209186
-0.000300206
-0.000160662
-2.88346e-05
-0.000164115
-4.63106e-05
-0.000167772
-6.51673e-05
-0.000166111
-0.000102268
-0.00016323
-0.00012685
-0.000135157
-0.000215581
-0.000104528
-0.000239815
-0.000404734
-0.000182437
-2.01734e-05
-0.000195577
-3.31698e-05
-0.000212204
-4.85412e-05
-0.000233368
-8.11036e-05
-0.000256178
-0.00010404
-0.000255568
-0.000216191
-0.000246171
-0.000249212
-0.000650906
-0.000173279
-1.201e-05
-0.000186322
-2.01275e-05
-0.000201287
-3.35762e-05
-0.000222256
-6.01342e-05
-0.000241115
-8.5181e-05
-0.000241211
-0.000216095
-0.00023043
-0.000259993
-0.000881336
0.00155644
0.00153631
0.00150274
0.0014426
0.00135742
0.00114133
0.000881336
-4.32429e-07
4.32429e-07
-7.86248e-07
3.53819e-07
-1.0031e-06
2.16847e-07
-1.05982e-06
5.67238e-08
-9.55627e-07
-1.04192e-07
-7.15204e-07
-2.40422e-07
-3.78616e-07
-3.36588e-07
-3.78616e-07
-4.90039e-07
9.22468e-07
-8.84894e-07
7.48674e-07
-1.11806e-06
4.50012e-07
-1.15837e-06
9.70345e-08
-1.03528e-06
-2.27284e-07
-7.73131e-07
-5.02569e-07
-4.09326e-07
-7.00393e-07
-7.87943e-07
-7.09563e-07
1.63203e-06
-1.25198e-06
1.29109e-06
-1.55632e-06
7.54354e-07
-1.62173e-06
1.6245e-07
-1.43831e-06
-4.10703e-07
-1.06099e-06
-8.7989e-07
-5.56503e-07
-1.20488e-06
-1.34445e-06
-8.91129e-07
2.52316e-06
-1.55383e-06
1.95379e-06
-1.89438e-06
1.0949e-06
-1.89486e-06
1.62932e-07
-1.65488e-06
-6.50688e-07
-1.21837e-06
-1.3164e-06
-6.39838e-07
-1.78341e-06
-1.98428e-06
-1.62588e-06
4.14904e-06
-2.68034e-06
3.00824e-06
-3.12377e-06
1.53834e-06
-3.10562e-06
1.44776e-07
-2.64964e-06
-1.10667e-06
-1.9022e-06
-2.06384e-06
-9.82505e-07
-2.70311e-06
-2.96679e-06
-2.03813e-06
6.18717e-06
-3.33384e-06
4.30395e-06
-3.81562e-06
2.02012e-06
-3.64584e-06
-2.50033e-08
-3.0827e-06
-1.66981e-06
-2.22149e-06
-2.92505e-06
-1.15164e-06
-3.77296e-06
-4.11843e-06
-4.51213e-06
1.06993e-05
-6.62301e-06
6.41483e-06
-6.8175e-06
2.21462e-06
-6.22376e-06
-6.18748e-07
-5.00817e-06
-2.8854e-06
-3.4651e-06
-4.46812e-06
-1.753e-06
-5.48506e-06
-5.87143e-06
-5.43519e-06
-7.84964e-06
-8.00053e-06
-7.16474e-06
-5.77516e-06
-4.02869e-06
-2.05267e-06
)
;

boundaryField
{
    movingWall
    {
        type            calculated;
        value           uniform 0;
    }
    fixedWalls
    {
        type            calculated;
        value           uniform 0;
    }
    frontAndBack
    {
        type            empty;
        value           nonuniform List<scalar> 0();
    }
}


// ************************************************************************* //
