/*--------------------------------*- C++ -*----------------------------------*\
  =========                 |
  \\      /  F ield         | OpenFOAM: The Open Source CFD Toolbox
   \\    /   O peration     | Website:  https://openfoam.org
    \\  /    A nd           | Version:  8
     \\/     M anipulation  |
\*---------------------------------------------------------------------------*/
FoamFile
{
    version     2.0;
    format      ascii;
    class       volVectorField;
    location    "0.48";
    object      U;
}
// * * * * * * * * * * * * * * * * * * * * * * * * * * * * * * * * * * * * * //

dimensions      [0 1 -1 0 0 0 0];

internalField   nonuniform List<vector> 
400
(
(0.0244377 -1.10613e-07 0)
(0.0244377 -1.78252e-08 0)
(0.0244376 6.48044e-08 0)
(0.0244374 8.48897e-08 0)
(0.0244372 8.9977e-08 0)
(0.024437 8.63577e-08 0)
(0.0244368 7.72482e-08 0)
(0.0244367 6.56498e-08 0)
(0.0244365 5.34343e-08 0)
(0.0244364 4.08567e-08 0)
(0.0244364 2.72093e-08 0)
(0.0244363 1.1489e-08 0)
(0.0244363 -7.05532e-09 0)
(0.0244364 -2.90022e-08 0)
(0.0244365 -5.48127e-08 0)
(0.0244366 -8.44081e-08 0)
(0.0244368 -1.1615e-07 0)
(0.0244371 -1.4275e-07 0)
(0.0244374 -1.48016e-07 0)
(0.0244376 -1.51554e-07 0)
(0.0733259 -1.28293e-07 0)
(0.0733258 8.93063e-08 0)
(0.0733257 2.79611e-07 0)
(0.0733254 3.42505e-07 0)
(0.0733251 3.55829e-07 0)
(0.0733248 3.39744e-07 0)
(0.0733245 3.04816e-07 0)
(0.0733243 2.59359e-07 0)
(0.0733241 2.08544e-07 0)
(0.0733239 1.53804e-07 0)
(0.0733238 9.40378e-08 0)
(0.0733237 2.72033e-08 0)
(0.0733238 -4.83877e-08 0)
(0.0733239 -1.33546e-07 0)
(0.073324 -2.27533e-07 0)
(0.0733243 -3.26258e-07 0)
(0.0733246 -4.18841e-07 0)
(0.0733251 -4.77227e-07 0)
(0.0733255 -4.5197e-07 0)
(0.0733258 -3.56664e-07 0)
(0.122255 -1.99538e-07 0)
(0.122255 2.26338e-07 0)
(0.122255 4.92928e-07 0)
(0.122254 6.19461e-07 0)
(0.122254 6.56724e-07 0)
(0.122254 6.37113e-07 0)
(0.122254 5.7977e-07 0)
(0.122253 4.984e-07 0)
(0.122253 4.01445e-07 0)
(0.122253 2.92415e-07 0)
(0.122253 1.71319e-07 0)
(0.122253 3.66528e-08 0)
(0.122253 -1.12952e-07 0)
(0.122253 -2.7739e-07 0)
(0.122253 -4.53181e-07 0)
(0.122253 -6.29776e-07 0)
(0.122254 -7.8357e-07 0)
(0.122254 -8.66339e-07 0)
(0.122254 -8.03318e-07 0)
(0.122255 -5.53165e-07 0)
(0.171251 -2.37793e-07 0)
(0.171251 2.55102e-07 0)
(0.171251 6.05581e-07 0)
(0.171251 7.9298e-07 0)
(0.171251 8.63809e-07 0)
(0.171251 8.55361e-07 0)
(0.17125 7.91625e-07 0)
(0.17125 6.89746e-07 0)
(0.17125 5.61043e-07 0)
(0.17125 4.11538e-07 0)
(0.17125 2.43268e-07 0)
(0.17125 5.61908e-08 0)
(0.17125 -1.49908e-07 0)
(0.17125 -3.73394e-07 0)
(0.17125 -6.07896e-07 0)
(0.17125 -8.37692e-07 0)
(0.17125 -1.03077e-06 0)
(0.17125 -1.12786e-06 0)
(0.171251 -1.04422e-06 0)
(0.171251 -7.25118e-07 0)
(0.220339 -3.29656e-07 0)
(0.220339 2.04308e-07 0)
(0.22034 6.05053e-07 0)
(0.22034 8.40745e-07 0)
(0.22034 9.48326e-07 0)
(0.22034 9.62841e-07 0)
(0.220339 9.09e-07 0)
(0.220339 8.05685e-07 0)
(0.220339 6.66149e-07 0)
(0.220339 4.98389e-07 0)
(0.220339 3.06356e-07 0)
(0.220339 9.16716e-08 0)
(0.220339 -1.4447e-07 0)
(0.220339 -3.98995e-07 0)
(0.220339 -6.63656e-07 0)
(0.220339 -9.2024e-07 0)
(0.220339 -1.13396e-06 0)
(0.220339 -1.24438e-06 0)
(0.220339 -1.16623e-06 0)
(0.220339 -8.42256e-07 0)
(0.269543 -4.06444e-07 0)
(0.269543 1.06648e-07 0)
(0.269543 5.13729e-07 0)
(0.269543 7.73302e-07 0)
(0.269543 9.09332e-07 0)
(0.269543 9.50306e-07 0)
(0.269543 9.18148e-07 0)
(0.269543 8.30818e-07 0)
(0.269543 7.01775e-07 0)
(0.269543 5.39944e-07 0)
(0.269543 3.5055e-07 0)
(0.269543 1.3644e-07 0)
(0.269543 -1.00231e-07 0)
(0.269543 -3.5573e-07 0)
(0.269543 -6.21516e-07 0)
(0.269543 -8.79679e-07 0)
(0.269543 -1.09712e-06 0)
(0.269543 -1.21853e-06 0)
(0.269543 -1.16586e-06 0)
(0.269543 -8.81229e-07 0)
(0.318881 -4.51902e-07 0)
(0.318881 -8.63288e-09 0)
(0.318881 3.62918e-07 0)
(0.318881 6.17368e-07 0)
(0.318881 7.66147e-07 0)
(0.318881 8.29408e-07 0)
(0.318882 8.23852e-07 0)
(0.318882 7.6438e-07 0)
(0.318882 6.62963e-07 0)
(0.318882 5.2815e-07 0)
(0.318882 3.65432e-07 0)
(0.318882 1.78139e-07 0)
(0.318882 -3.12611e-08 0)
(0.318882 -2.59286e-07 0)
(0.318882 -4.98745e-07 0)
(0.318881 -7.3472e-07 0)
(0.318881 -9.39468e-07 0)
(0.318881 -1.06737e-06 0)
(0.318881 -1.05304e-06 0)
(0.318881 -8.4032e-07 0)
(0.368369 -4.54787e-07 0)
(0.368369 -1.20715e-07 0)
(0.36837 1.78853e-07 0)
(0.36837 3.99605e-07 0)
(0.36837 5.42677e-07 0)
(0.36837 6.19461e-07 0)
(0.36837 6.40206e-07 0)
(0.368371 6.15253e-07 0)
(0.368371 5.53609e-07 0)
(0.368371 4.62136e-07 0)
(0.368371 3.45531e-07 0)
(0.368371 2.06776e-07 0)
(0.368371 4.79232e-08 0)
(0.368371 -1.28642e-07 0)
(0.368371 -3.18294e-07 0)
(0.36837 -5.1103e-07 0)
(0.36837 -6.87148e-07 0)
(0.36837 -8.1393e-07 0)
(0.36837 -8.42745e-07 0)
(0.368369 -7.22627e-07 0)
(0.418021 -4.09624e-07 0)
(0.418021 -2.12624e-07 0)
(0.418022 -1.36663e-08 0)
(0.418022 1.48489e-07 0)
(0.418022 2.67532e-07 0)
(0.418022 3.46664e-07 0)
(0.418023 3.89367e-07 0)
(0.418023 4.00563e-07 0)
(0.418023 3.85219e-07 0)
(0.418023 3.4744e-07 0)
(0.418023 2.9021e-07 0)
(0.418023 2.15418e-07 0)
(0.418023 1.24072e-07 0)
(0.418023 1.6819e-08 0)
(0.418023 -1.0504e-07 0)
(0.418023 -2.37474e-07 0)
(0.418023 -3.70431e-07 0)
(0.418022 -4.86115e-07 0)
(0.418022 -5.55428e-07 0)
(0.418021 -5.36609e-07 0)
(0.467845 -3.18421e-07 0)
(0.467845 -2.73781e-07 0)
(0.467846 -1.94429e-07 0)
(0.467846 -1.09512e-07 0)
(0.467846 -2.9967e-08 0)
(0.467846 4.02642e-08 0)
(0.467847 9.81884e-08 0)
(0.467847 1.43033e-07 0)
(0.467847 1.7514e-07 0)
(0.467847 1.95167e-07 0)
(0.467847 2.03716e-07 0)
(0.467848 2.01034e-07 0)
(0.467848 1.86676e-07 0)
(0.467847 1.59267e-07 0)
(0.467847 1.16544e-07 0)
(0.467847 5.62748e-08 0)
(0.467847 -2.17217e-08 0)
(0.467846 -1.15496e-07 0)
(0.467846 -2.1703e-07 0)
(0.467846 -2.9746e-07 0)
(0.517846 -1.90382e-07 0)
(0.517846 -3.00693e-07 0)
(0.517846 -3.49223e-07 0)
(0.517846 -3.51988e-07 0)
(0.517846 -3.22355e-07 0)
(0.517847 -2.70216e-07 0)
(0.517847 -2.04395e-07 0)
(0.517847 -1.3118e-07 0)
(0.517847 -5.498e-08 0)
(0.517848 2.11233e-08 0)
(0.517848 9.50265e-08 0)
(0.517848 1.65066e-07 0)
(0.517848 2.29225e-07 0)
(0.517848 2.84181e-07 0)
(0.517848 3.24395e-07 0)
(0.517847 3.4181e-07 0)
(0.517847 3.2641e-07 0)
(0.517847 2.64484e-07 0)
(0.517846 1.42567e-07 0)
(0.517846 -2.62892e-08 0)
(0.568022 -4.05398e-08 0)
(0.568022 -2.96377e-07 0)
(0.568022 -4.69703e-07 0)
(0.568022 -5.61262e-07 0)
(0.568023 -5.85397e-07 0)
(0.568023 -5.5685e-07 0)
(0.568023 -4.89474e-07 0)
(0.568023 -3.94575e-07 0)
(0.568024 -2.81058e-07 0)
(0.568024 -1.55643e-07 0)
(0.568024 -2.31053e-08 0)
(0.568024 1.13043e-07 0)
(0.568024 2.49398e-07 0)
(0.568024 3.81115e-07 0)
(0.568024 5.00131e-07 0)
(0.568024 5.93645e-07 0)
(0.568024 6.43104e-07 0)
(0.568023 6.2046e-07 0)
(0.568023 4.91529e-07 0)
(0.568023 2.51463e-07 0)
(0.618371 1.12074e-07 0)
(0.618371 -2.68792e-07 0)
(0.618371 -5.5237e-07 0)
(0.618371 -7.24074e-07 0)
(0.618371 -7.98462e-07 0)
(0.618371 -7.94303e-07 0)
(0.618371 -7.29632e-07 0)
(0.618372 -6.20045e-07 0)
(0.618372 -4.78355e-07 0)
(0.618372 -3.14457e-07 0)
(0.618372 -1.35422e-07 0)
(0.618372 5.37572e-08 0)
(0.618372 2.48756e-07 0)
(0.618372 4.43918e-07 0)
(0.618372 6.29767e-07 0)
(0.618372 7.9037e-07 0)
(0.618372 9.00704e-07 0)
(0.618372 9.20818e-07 0)
(0.618371 7.97895e-07 0)
(0.618371 5.07948e-07 0)
(0.668882 2.4654e-07 0)
(0.668882 -2.28774e-07 0)
(0.668882 -5.97232e-07 0)
(0.668882 -8.30907e-07 0)
(0.668883 -9.44584e-07 0)
(0.668883 -9.6062e-07 0)
(0.668883 -9.00359e-07 0)
(0.668883 -7.82729e-07 0)
(0.668883 -6.23543e-07 0)
(0.668883 -4.35077e-07 0)
(0.668883 -2.2603e-07 0)
(0.668883 -2.25857e-09 0)
(0.668883 2.3167e-07 0)
(0.668883 4.70189e-07 0)
(0.668883 7.03746e-07 0)
(0.668883 9.15242e-07 0)
(0.668883 1.07587e-06 0)
(0.668883 1.13725e-06 0)
(0.668883 1.03135e-06 0)
(0.668883 7.15113e-07 0)
(0.719545 3.42546e-07 0)
(0.719545 -1.87641e-07 0)
(0.719545 -6.06139e-07 0)
(0.719545 -8.75184e-07 0)
(0.719545 -1.01069e-06 0)
(0.719545 -1.03844e-06 0)
(0.719545 -9.82107e-07 0)
(0.719545 -8.6268e-07 0)
(0.719545 -6.97721e-07 0)
(0.719545 -5.00805e-07 0)
(0.719545 -2.81357e-07 0)
(0.719545 -4.53181e-08 0)
(0.719545 2.03292e-07 0)
(0.719545 4.59958e-07 0)
(0.719545 7.16414e-07 0)
(0.719545 9.5647e-07 0)
(0.719545 1.15062e-06 0)
(0.719545 1.2464e-06 0)
(0.719545 1.16526e-06 0)
(0.719545 8.47297e-07 0)
(0.770341 3.83757e-07 0)
(0.770341 -1.5417e-07 0)
(0.770341 -5.80104e-07 0)
(0.770341 -8.51668e-07 0)
(0.770341 -9.87309e-07 0)
(0.770341 -1.01592e-06 0)
(0.770341 -9.62107e-07 0)
(0.770341 -8.47264e-07 0)
(0.770341 -6.89118e-07 0)
(0.770341 -5.0123e-07 0)
(0.770341 -2.92716e-07 0)
(0.770341 -6.87417e-08 0)
(0.770341 1.67993e-07 0)
(0.770341 4.14843e-07 0)
(0.770341 6.65947e-07 0)
(0.770341 9.07896e-07 0)
(0.770341 1.11369e-06 0)
(0.770341 1.23176e-06 0)
(0.770341 1.17917e-06 0)
(0.770341 8.84126e-07 0)
(0.821253 3.61241e-07 0)
(0.821253 -1.30559e-07 0)
(0.821253 -5.14664e-07 0)
(0.821252 -7.52115e-07 0)
(0.821252 -8.64979e-07 0)
(0.821252 -8.83978e-07 0)
(0.821252 -8.32387e-07 0)
(0.821252 -7.29806e-07 0)
(0.821252 -5.92233e-07 0)
(0.821251 -4.31737e-07 0)
(0.821251 -2.56024e-07 0)
(0.821251 -6.86964e-08 0)
(0.821251 1.29427e-07 0)
(0.821251 3.38021e-07 0)
(0.821252 5.54225e-07 0)
(0.821252 7.68731e-07 0)
(0.821252 9.59999e-07 0)
(0.821252 1.08276e-06 0)
(0.821252 1.05836e-06 0)
(0.821252 8.10608e-07 0)
(0.872256 2.71789e-07 0)
(0.872256 -1.14399e-07 0)
(0.872256 -4.05502e-07 0)
(0.872256 -5.73866e-07 0)
(0.872255 -6.45183e-07 0)
(0.872255 -6.48336e-07 0)
(0.872255 -6.02007e-07 0)
(0.872255 -5.21144e-07 0)
(0.872254 -4.17943e-07 0)
(0.872254 -3.01622e-07 0)
(0.872254 -1.77666e-07 0)
(0.872254 -4.76337e-08 0)
(0.872254 8.96934e-08 0)
(0.872254 2.36049e-07 0)
(0.872254 3.91035e-07 0)
(0.872255 5.49503e-07 0)
(0.872255 6.97768e-07 0)
(0.872255 8.03114e-07 0)
(0.872256 8.02395e-07 0)
(0.872256 6.23635e-07 0)
(0.923327 1.44203e-07 0)
(0.923327 -8.12958e-08 0)
(0.923327 -2.38497e-07 0)
(0.923326 -3.19629e-07 0)
(0.923326 -3.45766e-07 0)
(0.923326 -3.37922e-07 0)
(0.923325 -3.06599e-07 0)
(0.923325 -2.59765e-07 0)
(0.923325 -2.03943e-07 0)
(0.923325 -1.44126e-07 0)
(0.923325 -8.2998e-08 0)
(0.923325 -2.04759e-08 0)
(0.923325 4.55817e-08 0)
(0.923325 1.17488e-07 0)
(0.923325 1.95749e-07 0)
(0.923325 2.78398e-07 0)
(0.923325 3.60395e-07 0)
(0.923326 4.25326e-07 0)
(0.923326 4.38668e-07 0)
(0.923326 3.43163e-07 0)
(0.974438 3.28561e-08 0)
(0.974438 -3.45573e-08 0)
(0.974438 -7.4395e-08 0)
(0.974438 -9.01706e-08 0)
(0.974438 -9.15143e-08 0)
(0.974437 -8.55079e-08 0)
(0.974437 -7.47616e-08 0)
(0.974437 -6.10485e-08 0)
(0.974437 -4.59556e-08 0)
(0.974437 -3.08458e-08 0)
(0.974437 -1.6383e-08 0)
(0.974437 -2.18194e-09 0)
(0.974437 1.29222e-08 0)
(0.974437 3.00219e-08 0)
(0.974437 4.93555e-08 0)
(0.974437 7.05138e-08 0)
(0.974437 9.30722e-08 0)
(0.974437 1.13602e-07 0)
(0.974438 1.22176e-07 0)
(0.974438 9.78367e-08 0)
)
;

boundaryField
{
    movingWall
    {
        type            fixedValue;
        value           uniform (1 0 0);
    }
    fixedWalls
    {
        type            noSlip;
    }
    left
    {
        type            cyclic;
    }
    right
    {
        type            cyclic;
    }
    frontAndBack
    {
        type            empty;
    }
}


// ************************************************************************* //
