/*--------------------------------*- C++ -*----------------------------------*\
  =========                 |
  \\      /  F ield         | OpenFOAM: The Open Source CFD Toolbox
   \\    /   O peration     | Website:  https://openfoam.org
    \\  /    A nd           | Version:  8
     \\/     M anipulation  |
\*---------------------------------------------------------------------------*/
FoamFile
{
    version     2.0;
    format      ascii;
    class       volScalarField;
    location    "10.5";
    object      p;
}
// * * * * * * * * * * * * * * * * * * * * * * * * * * * * * * * * * * * * * //

dimensions      [0 2 -2 0 0 0 0];

internalField   nonuniform List<scalar> 
11600
(
-2.45711e-08
-3.09436e-07
2.00703e-08
5.65265e-07
1.46208e-06
2.68818e-06
4.24219e-06
6.12443e-06
8.33484e-06
1.08731e-05
1.37389e-05
1.69315e-05
2.04503e-05
2.42945e-05
2.84634e-05
3.29558e-05
3.77705e-05
4.29063e-05
4.83617e-05
5.41351e-05
6.02248e-05
6.66288e-05
7.33449e-05
8.03711e-05
8.77046e-05
9.53429e-05
0.000103283
0.000111522
0.000120056
0.000128883
0.000137997
0.000147396
0.000157074
0.000167028
0.000177253
0.000187743
0.000198495
0.000209502
0.000220759
0.000232261
0.000244002
0.000255976
0.000268179
0.000280604
0.000293247
0.000306102
0.000319167
0.000332437
0.000345911
0.000359588
0.000373469
0.000387561
0.000401871
0.000416414
0.000431213
0.00044633
0.000461867
0.000477123
0.000496345
0.00050657
3.16513e-07
1.45409e-08
3.57548e-07
9.03661e-07
1.80025e-06
3.02472e-06
4.57614e-06
6.45513e-06
8.66171e-06
1.11957e-05
1.40567e-05
1.72441e-05
2.07574e-05
2.45958e-05
2.87583e-05
3.3244e-05
3.80516e-05
4.31801e-05
4.86277e-05
5.43931e-05
6.04745e-05
6.68699e-05
7.35772e-05
8.05943e-05
8.79185e-05
9.55474e-05
0.000103478
0.000111707
0.000120232
0.000129048
0.000138152
0.000147541
0.000157209
0.000167152
0.000177367
0.000187848
0.000198589
0.000209586
0.000220834
0.000232326
0.000244059
0.000256025
0.000268219
0.000280638
0.000293274
0.000306125
0.000319186
0.000332454
0.000345929
0.00035961
0.000373501
0.000387611
0.000401952
0.000416548
0.000431439
0.000446708
0.000462449
0.000478479
0.000497134
0.000512374
1.51694e-08
-3.13988e-07
2.42806e-08
5.64857e-07
1.45854e-06
2.68097e-06
4.23078e-06
6.10842e-06
8.31372e-06
1.08464e-05
1.37061e-05
1.68923e-05
2.04043e-05
2.42415e-05
2.84028e-05
3.28874e-05
3.76941e-05
4.28216e-05
4.82684e-05
5.40331e-05
6.0114e-05
6.6509e-05
7.32161e-05
8.02331e-05
8.75576e-05
9.51868e-05
0.000103118
0.000111348
0.000119873
0.000128691
0.000137797
0.000147187
0.000156858
0.000166804
0.000177021
0.000187504
0.000198249
0.00020925
0.000220501
0.000231998
0.000243734
0.000255705
0.000267904
0.000280326
0.000292967
0.000305821
0.000318884
0.000332153
0.000345627
0.000359304
0.000373185
0.000387277
0.000401586
0.000416127
0.000430922
0.000446012
0.000461423
0.000477107
0.000494059
0.000509238
-5.19981e-07
-8.57823e-07
-5.20629e-07
1.68789e-08
9.08503e-07
2.12894e-06
3.67678e-06
5.55253e-06
7.756e-06
1.02869e-05
1.31448e-05
1.63292e-05
1.98395e-05
2.36749e-05
2.78347e-05
3.23178e-05
3.71231e-05
4.22494e-05
4.76953e-05
5.34592e-05
5.95394e-05
6.59341e-05
7.26413e-05
7.96586e-05
8.69836e-05
9.46138e-05
0.000102546
0.000110778
0.000119306
0.000128126
0.000137234
0.000146628
0.000156302
0.000166252
0.000176474
0.000186963
0.000197713
0.00020872
0.000219978
0.000231481
0.000243224
0.000255202
0.000267408
0.000279837
0.000292484
0.000305344
0.000318412
0.000331684
0.000345158
0.000358831
0.000372704
0.00038678
0.000401064
0.000415567
0.000430306
0.000445307
0.000460584
0.000476153
0.000492309
0.000507845
-1.42043e-06
-1.76418e-06
-1.42885e-06
-8.94454e-07
-4.99963e-09
1.21357e-06
2.75975e-06
4.63402e-06
6.8362e-06
9.36598e-06
1.22229e-05
1.54066e-05
1.89163e-05
2.27515e-05
2.69111e-05
3.13945e-05
3.62003e-05
4.13275e-05
4.67746e-05
5.25402e-05
5.86225e-05
6.50198e-05
7.173e-05
7.87509e-05
8.60801e-05
9.37149e-05
0.000101653
0.00010989
0.000118424
0.000127251
0.000136368
0.00014577
0.000155453
0.000165413
0.000175645
0.000186144
0.000196906
0.000207925
0.000219195
0.000230712
0.000242468
0.000254459
0.000266679
0.000279121
0.000291781
0.000304651
0.000317728
0.000331006
0.00034448
0.000358149
0.000372008
0.000386057
0.000400296
0.000414725
0.000429349
0.000444167
0.000459171
0.000474349
0.000489732
0.000504851
-2.6625e-06
-3.01041e-06
-2.67677e-06
-2.14506e-06
-1.25763e-06
-4.07318e-08
1.50405e-06
3.37716e-06
5.57846e-06
8.10762e-06
1.09643e-05
1.41479e-05
1.7658e-05
2.14938e-05
2.56545e-05
3.01394e-05
3.49472e-05
4.00769e-05
4.55271e-05
5.12963e-05
5.73829e-05
6.37851e-05
7.05009e-05
7.75281e-05
8.48644e-05
9.2507e-05
0.000100453
0.0001087
0.000117244
0.000126083
0.000135211
0.000144626
0.000154322
0.000164297
0.000174544
0.00018506
0.000195839
0.000206875
0.000218164
0.0002297
0.000241476
0.000253486
0.000265725
0.000278187
0.000290864
0.00030375
0.000316841
0.000330128
0.000343608
0.000357274
0.000371122
0.000385145
0.000399341
0.000413703
0.000428224
0.000442893
0.00045769
0.000472586
0.000487534
0.000502322
-4.2437e-06
-4.59517e-06
-4.26297e-06
-3.7336e-06
-2.84801e-06
-1.63261e-06
-8.8995e-08
1.78329e-06
3.9841e-06
6.51314e-06
9.37006e-06
1.25544e-05
1.60656e-05
1.99031e-05
2.40661e-05
2.85537e-05
3.33649e-05
3.84986e-05
4.39536e-05
4.97284e-05
5.58214e-05
6.22308e-05
6.89546e-05
7.59908e-05
8.33369e-05
9.09905e-05
9.89486e-05
0.000107208
0.000115767
0.00012462
0.000133764
0.000143196
0.000152911
0.000162905
0.000173173
0.00018371
0.000194511
0.000205572
0.000216885
0.000228445
0.000240247
0.000252284
0.000264548
0.000277035
0.000289736
0.000302645
0.000315755
0.000329059
0.000342549
0.000356218
0.000370059
0.000384062
0.00039822
0.00041252
0.000426949
0.000441486
0.000456103
0.000470758
0.000485389
0.000499864
-6.164e-06
-6.51921e-06
-6.18836e-06
-5.66113e-06
-4.77721e-06
-3.56314e-06
-2.02046e-06
-1.48693e-07
2.05203e-06
4.58144e-06
7.43922e-06
1.0625e-05
1.41382e-05
1.79783e-05
2.21445e-05
2.66361e-05
3.14521e-05
3.65915e-05
4.2053e-05
4.78351e-05
5.39365e-05
6.03553e-05
6.70896e-05
7.41374e-05
8.14963e-05
8.91637e-05
9.7137e-05
0.000105413
0.000113989
0.000122861
0.000132026
0.000141479
0.000151217
0.000161235
0.000171529
0.000182093
0.000192923
0.000204013
0.000215356
0.000226948
0.000238782
0.000250851
0.000263149
0.000275667
0.0002884
0.000301338
0.000314475
0.000327802
0.00034131
0.000354991
0.000368833
0.000382826
0.000396958
0.000411212
0.000425571
0.000440008
0.000454491
0.000468973
0.000483394
0.000497662
-8.42349e-06
-8.7828e-06
-8.45335e-06
-7.9282e-06
-7.04582e-06
-5.83291e-06
-4.29095e-06
-2.41942e-06
-2.18423e-07
2.31183e-06
5.17105e-06
8.35887e-06
1.18749e-05
1.57185e-05
1.98891e-05
2.43859e-05
2.9208e-05
3.43544e-05
3.9824e-05
4.56154e-05
5.17271e-05
5.81575e-05
6.49047e-05
7.19665e-05
7.93409e-05
8.70252e-05
9.50168e-05
0.000103313
0.00011191
0.000120805
0.000129994
0.000139473
0.000149239
0.000159287
0.000169611
0.000180208
0.000191072
0.000202197
0.000213578
0.000225208
0.000237081
0.000249189
0.000261526
0.000274085
0.000286856
0.000299833
0.000313005
0.000326364
0.000339899
0.000353601
0.000367457
0.000381453
0.000395575
0.000409804
0.000424118
0.000438489
0.000452883
0.000467256
0.00048155
0.000495695
-1.10225e-05
-1.13863e-05
-1.10583e-05
-1.05353e-05
-9.65441e-06
-8.44253e-06
-6.9011e-06
-5.02955e-06
-2.82793e-06
-2.96401e-07
2.56479e-06
5.75534e-06
9.27486e-06
1.31229e-05
1.72988e-05
2.18019e-05
2.66314e-05
3.17864e-05
3.72657e-05
4.3068e-05
4.9192e-05
5.5636e-05
6.23983e-05
6.94767e-05
7.68692e-05
8.45733e-05
9.25863e-05
0.000100905
0.000109528
0.000118449
0.000127667
0.000137177
0.000146975
0.000157057
0.000167418
0.000178053
0.000188957
0.000200124
0.000211548
0.000223223
0.000235142
0.000247297
0.000259682
0.000272288
0.000285107
0.00029813
0.000311347
0.000324748
0.000338323
0.000352058
0.00036594
0.000379956
0.000394086
0.000408313
0.000422611
0.000436952
0.000451302
0.000465619
0.000479853
0.000493947
-1.39616e-05
-1.43303e-05
-1.40038e-05
-1.34831e-05
-1.26036e-05
-1.13927e-05
-9.85165e-06
-7.97985e-06
-5.77728e-06
-3.24408e-06
-3.80427e-07
2.81344e-06
6.3372e-06
1.01904e-05
1.43726e-05
1.88832e-05
2.37213e-05
2.88861e-05
3.43766e-05
4.01915e-05
4.63296e-05
5.27893e-05
5.95688e-05
6.66662e-05
7.40795e-05
8.18062e-05
8.98437e-05
9.81893e-05
0.00010684
0.000115792
0.000125043
0.000134588
0.000144424
0.000154545
0.000164948
0.000175627
0.000186577
0.000197792
0.000209266
0.000220992
0.000232964
0.000245175
0.000257616
0.000270278
0.000283154
0.000296233
0.000309505
0.00032296
0.000336585
0.000350367
0.000364292
0.000378344
0.000392504
0.000406752
0.000421063
0.000435408
0.000449755
0.000464065
0.000478295
0.000492395
-1.72414e-05
-1.76154e-05
-1.72905e-05
-1.67722e-05
-1.58943e-05
-1.46842e-05
-1.31434e-05
-1.12712e-05
-9.0674e-06
-6.53217e-06
-3.6656e-06
-4.67866e-07
3.06078e-06
6.91999e-06
1.11093e-05
1.56283e-05
2.04761e-05
2.5652e-05
3.11551e-05
3.69843e-05
4.31382e-05
4.96154e-05
5.64143e-05
6.3533e-05
7.09696e-05
7.87216e-05
8.67867e-05
9.51621e-05
0.000103845
0.000112832
0.00012212
0.000131704
0.000141582
0.000151748
0.000162197
0.000172926
0.000183928
0.000195198
0.000206729
0.000218514
0.000230548
0.000242821
0.000255326
0.000268054
0.000280996
0.000294141
0.00030748
0.000321
0.00033469
0.000348534
0.000362518
0.000376625
0.000390836
0.000405129
0.000419481
0.000433864
0.000448246
0.000462592
0.000476862
0.000491016
-2.08625e-05
-2.12424e-05
-2.09192e-05
-2.04034e-05
-1.95271e-05
-1.83179e-05
-1.67773e-05
-1.49045e-05
-1.26993e-05
-1.01617e-05
-7.29185e-06
-4.08976e-06
-5.55651e-07
3.31023e-06
7.50752e-06
1.20357e-05
1.68943e-05
2.20826e-05
2.75996e-05
3.34444e-05
3.96158e-05
4.61124e-05
5.29327e-05
6.0075e-05
6.75372e-05
7.53173e-05
8.34129e-05
9.18214e-05
0.00010054
0.000109565
0.000118894
0.000128522
0.000138447
0.000148662
0.000159165
0.000169949
0.000181009
0.00019234
0.000203935
0.000215787
0.000227889
0.000240233
0.000252811
0.000265615
0.000278633
0.000291856
0.000305273
0.000318872
0.000332639
0.000346561
0.000360621
0.000374802
0.000389086
0.00040345
0.00041787
0.000432321
0.000446772
0.000461191
0.000475543
0.000489793
-2.48258e-05
-2.52121e-05
-2.48907e-05
-2.43777e-05
-2.3503e-05
-2.22948e-05
-2.07544e-05
-1.88808e-05
-1.6674e-05
-1.41339e-05
-1.12604e-05
-8.05356e-06
-4.51347e-06
-6.40325e-07
3.56562e-06
8.10398e-06
1.29743e-05
1.81759e-05
2.3708e-05
2.95699e-05
3.57602e-05
4.2278e-05
4.91216e-05
5.62895e-05
6.37799e-05
7.15907e-05
7.97196e-05
8.81642e-05
9.69217e-05
0.000105989
0.000115363
0.00012504
0.000135016
0.000145286
0.000155847
0.000166692
0.000177817
0.000189215
0.000200881
0.000212807
0.000224986
0.00023741
0.000250071
0.000262958
0.000276064
0.000289376
0.000302883
0.000316574
0.000330434
0.000344449
0.000358603
0.000372878
0.000387256
0.000401714
0.00041623
0.000430778
0.00044533
0.000459856
0.000474326
0.000488705
-2.91321e-05
-2.95255e-05
-2.9206e-05
-2.86959e-05
-2.78231e-05
-2.66159e-05
-2.50756e-05
-2.32014e-05
-2.09929e-05
-1.845e-05
-1.55726e-05
-1.23607e-05
-8.8142e-06
-4.93328e-06
-7.18075e-07
3.83113e-06
8.71396e-06
1.39299e-05
1.94783e-05
2.53584e-05
3.15692e-05
3.81097e-05
4.49784e-05
5.2174e-05
5.96947e-05
6.75387e-05
7.57038e-05
8.41876e-05
9.29875e-05
0.000102101
0.000111524
0.000121253
0.000131285
0.000141615
0.000152239
0.000163152
0.000174348
0.00018582
0.000197564
0.000209572
0.000221836
0.000234348
0.000247101
0.000260083
0.000273286
0.000286699
0.00030031
0.000314106
0.000328074
0.000342198
0.000356464
0.000370852
0.000385345
0.00039992
0.000414557
0.000429229
0.000443911
0.000458576
0.000473194
0.000487735
-3.37825e-05
-3.41833e-05
-3.3866e-05
-3.33591e-05
-3.24883e-05
-3.12822e-05
-2.97422e-05
-2.78673e-05
-2.5657e-05
-2.31113e-05
-2.02299e-05
-1.70126e-05
-1.34595e-05
-9.57038e-06
-5.34542e-06
-7.84764e-07
4.11132e-06
9.34243e-06
1.49081e-05
2.08076e-05
2.70401e-05
3.36048e-05
4.05003e-05
4.77255e-05
5.52788e-05
6.31584e-05
7.13623e-05
7.98883e-05
8.87339e-05
9.78963e-05
0.000107372
0.000117159
0.000127251
0.000137646
0.000148339
0.000159325
0.000170597
0.000182151
0.00019398
0.000206077
0.000218434
0.000231044
0.000243898
0.000256985
0.000270298
0.000283823
0.00029755
0.000311465
0.000325556
0.000339807
0.000354201
0.000368722
0.00038335
0.000398066
0.000412846
0.000427669
0.000442509
0.00045734
0.000472135
0.000486865
-3.87778e-05
-3.91868e-05
-3.88718e-05
-3.83684e-05
-3.74998e-05
-3.62951e-05
-3.47555e-05
-3.28799e-05
-3.0668e-05
-2.81194e-05
-2.52339e-05
-2.20112e-05
-1.84511e-05
-1.45535e-05
-1.03184e-05
-5.74585e-06
-8.35936e-07
4.41107e-06
9.99478e-06
1.59147e-05
2.21702e-05
2.87604e-05
3.56844e-05
4.29409e-05
5.05287e-05
5.84462e-05
6.66915e-05
7.52625e-05
8.41569e-05
9.33721e-05
0.000102905
0.000112752
0.00012291
0.000133375
0.000144142
0.000155206
0.000166561
0.000178203
0.000190124
0.000202318
0.000214777
0.000227493
0.000240458
0.000253661
0.000267093
0.000280743
0.000294599
0.000308649
0.000322877
0.00033727
0.000351811
0.000366483
0.000381268
0.000396145
0.000411093
0.000426091
0.000441114
0.000456138
0.000471136
0.000486082
-4.41192e-05
-4.45369e-05
-4.42244e-05
-4.37249e-05
-4.28587e-05
-4.16556e-05
-4.01166e-05
-3.82406e-05
-3.60271e-05
-3.34757e-05
-3.05861e-05
-2.73579e-05
-2.37909e-05
-1.98847e-05
-1.56392e-05
-1.10544e-05
-6.13022e-06
-8.66762e-07
4.73574e-06
1.06769e-05
1.69564e-05
2.35734e-05
3.05272e-05
3.78168e-05
4.5441e-05
5.33985e-05
6.16876e-05
7.03064e-05
7.92526e-05
8.85238e-05
9.81172e-05
0.000108029
0.000118257
0.000128796
0.000139642
0.00015079
0.000162235
0.000173971
0.000185992
0.00019829
0.000210859
0.000223691
0.000236776
0.000250106
0.000263669
0.000277456
0.000291454
0.000305651
0.000320032
0.000334583
0.000349289
0.000364131
0.000379091
0.000394151
0.000409286
0.000424485
0.000439716
0.000454956
0.000470183
0.000485371
-4.98078e-05
-5.02348e-05
-4.99251e-05
-4.94297e-05
-4.85663e-05
-4.73651e-05
-4.58269e-05
-4.39507e-05
-4.17359e-05
-3.9182e-05
-3.62885e-05
-3.30549e-05
-2.94809e-05
-2.55661e-05
-2.13102e-05
-1.67129e-05
-1.17741e-05
-6.49379e-06
-8.71951e-07
5.09124e-06
1.13955e-05
1.80404e-05
2.50253e-05
3.23494e-05
4.00119e-05
4.80114e-05
5.63465e-05
6.50155e-05
7.40164e-05
8.33468e-05
9.30041e-05
0.000102985
0.000113287
0.000123905
0.000134835
0.000146073
0.000157613
0.00016945
0.000181577
0.000193988
0.000206675
0.000219631
0.000232847
0.000246313
0.000260019
0.000273955
0.000288108
0.000302466
0.000317016
0.000331741
0.000346628
0.000361658
0.000376814
0.000392078
0.000407431
0.000422844
0.000438304
0.000453785
0.000469264
0.000484718
-5.58446e-05
-5.62815e-05
-5.59748e-05
-5.54841e-05
-5.46239e-05
-5.34248e-05
-5.18879e-05
-5.00119e-05
-4.77961e-05
-4.52398e-05
-4.23427e-05
-3.9104e-05
-3.55232e-05
-3.15999e-05
-2.73336e-05
-2.27238e-05
-1.77704e-05
-1.24729e-05
-6.83134e-06
-8.45623e-07
5.48417e-06
1.21578e-05
1.91749e-05
2.6535e-05
3.42371e-05
4.22805e-05
5.06637e-05
5.93853e-05
6.84435e-05
7.78361e-05
8.75607e-05
9.76142e-05
0.000107994
0.000118695
0.000129714
0.000141047
0.000152688
0.000164632
0.000176873
0.000189405
0.000202219
0.000215308
0.000228664
0.000242277
0.000256137
0.000270234
0.000284555
0.000299088
0.00031382
0.000328736
0.00034382
0.000359056
0.000374427
0.000389913
0.000405497
0.000421154
0.000436866
0.000452611
0.000468366
0.000484108
-6.22308e-05
-6.26783e-05
-6.23749e-05
-6.18892e-05
-6.10326e-05
-5.98362e-05
-5.8301e-05
-5.64256e-05
-5.42092e-05
-5.16511e-05
-4.87507e-05
-4.55073e-05
-4.19201e-05
-3.79885e-05
-3.3712e-05
-2.90899e-05
-2.41218e-05
-1.88072e-05
-1.31457e-05
-7.13706e-06
-7.81191e-07
5.92194e-06
1.29722e-05
2.03692e-05
2.81125e-05
3.62012e-05
4.46345e-05
5.34108e-05
6.25288e-05
7.19863e-05
8.17811e-05
9.19106e-05
0.000102372
0.000113161
0.000124274
0.000135707
0.000147455
0.000159513
0.000171874
0.000184533
0.000197482
0.000210714
0.000224219
0.000237989
0.000252015
0.000266284
0.000280786
0.000295509
0.000310438
0.000325559
0.000340857
0.000356317
0.00037192
0.000387648
0.000403483
0.000419405
0.000435391
0.000451422
0.000467475
0.000483528
-6.89676e-05
-6.94263e-05
-6.91266e-05
-6.86464e-05
-6.77939e-05
-6.66007e-05
-6.50676e-05
-6.31933e-05
-6.09769e-05
-5.84176e-05
-5.55145e-05
-5.22668e-05
-4.86737e-05
-4.47344e-05
-4.04481e-05
-3.5814e-05
-3.08315e-05
-2.54998e-05
-1.98183e-05
-1.37867e-05
-7.4044e-06
-6.71289e-07
6.41277e-06
1.38477e-05
2.16332e-05
2.97688e-05
3.82536e-05
4.70866e-05
5.62665e-05
6.57914e-05
7.56594e-05
8.58681e-05
9.64144e-05
0.000107295
0.000118507
0.000130046
0.000141906
0.000154084
0.000166572
0.000179366
0.000192458
0.00020584
0.000219505
0.000233443
0.000247644
0.000262098
0.000276794
0.000291719
0.000306859
0.000322201
0.00033773
0.00035343
0.000369283
0.000385273
0.00040138
0.000417585
0.000433867
0.000450206
0.000466579
0.000482965
-7.6056e-05
-7.65266e-05
-7.62309e-05
-7.57569e-05
-7.4909e-05
-7.37195e-05
-7.21893e-05
-7.03169e-05
-6.81011e-05
-6.55412e-05
-6.26361e-05
-5.93849e-05
-5.57866e-05
-5.18402e-05
-4.75446e-05
-4.28991e-05
-3.79025e-05
-3.2554e-05
-2.68528e-05
-2.07982e-05
-1.43894e-05
-7.62609e-06
-5.07755e-07
6.96573e-06
1.47943e-05
2.29778e-05
3.15156e-05
4.04069e-05
4.96507e-05
5.92454e-05
6.91892e-05
7.948e-05
9.01151e-05
0.000101092
0.000112406
0.000124055
0.000136034
0.000148337
0.00016096
0.000173896
0.000187138
0.00020068
0.000214513
0.000228629
0.000243017
0.000257667
0.000272568
0.000287708
0.000303074
0.000318652
0.000334428
0.000350384
0.000366506
0.000382774
0.000399174
0.000415683
0.000432281
0.000448948
0.000465663
0.000482404
-8.34972e-05
-8.39804e-05
-8.36891e-05
-8.32218e-05
-8.23792e-05
-8.11942e-05
-7.96676e-05
-7.77977e-05
-7.55834e-05
-7.30237e-05
-7.01176e-05
-6.68637e-05
-6.3261e-05
-5.93083e-05
-5.50044e-05
-5.0348e-05
-4.53381e-05
-3.99734e-05
-3.42529e-05
-2.81756e-05
-2.17405e-05
-1.49469e-05
-7.79411e-06
-2.81679e-07
7.59064e-06
1.58229e-05
2.44147e-05
3.33657e-05
4.2675e-05
5.23414e-05
6.23634e-05
7.27391e-05
8.34663e-05
9.45422e-05
0.000105964
0.000117727
0.000129829
0.000142264
0.000155027
0.000168112
0.000181513
0.000195223
0.000209234
0.000223536
0.000238121
0.000252979
0.000268098
0.000283467
0.000299073
0.000314901
0.000330939
0.00034717
0.000363577
0.000380145
0.000396853
0.000413685
0.00043062
0.000447636
0.000464714
0.000481832
-9.12922e-05
-9.17889e-05
-9.15024e-05
-9.10425e-05
-9.02059e-05
-8.90261e-05
-8.75039e-05
-8.56375e-05
-8.34257e-05
-8.08673e-05
-7.7961e-05
-7.47055e-05
-7.10995e-05
-6.71416e-05
-6.28302e-05
-5.81641e-05
-5.31417e-05
-4.77616e-05
-4.20225e-05
-3.5923e-05
-2.9462e-05
-2.26384e-05
-1.54513e-05
-7.89979e-06
1.65275e-08
8.29801e-06
1.69447e-05
2.59564e-05
3.53326e-05
4.50725e-05
5.51747e-05
6.56379e-05
7.646e-05
8.76387e-05
9.91711e-05
0.000111054
0.000123284
0.000135856
0.000148765
0.000162007
0.000175574
0.000189459
0.000203656
0.000218155
0.000232948
0.000248025
0.000263374
0.000278984
0.000294842
0.000310936
0.000327251
0.000343772
0.000360483
0.000377366
0.000394404
0.000411578
0.000428869
0.000446256
0.000463718
0.000481233
-9.94421e-05
-9.9953e-05
-9.96718e-05
-9.92201e-05
-9.83902e-05
-9.72165e-05
-9.56998e-05
-9.38379e-05
-9.16297e-05
-8.90737e-05
-8.61686e-05
-8.29127e-05
-7.93047e-05
-7.53427e-05
-7.10252e-05
-6.63504e-05
-6.13166e-05
-5.59222e-05
-5.01654e-05
-4.40447e-05
-3.75585e-05
-3.07055e-05
-2.34844e-05
-1.58941e-05
-7.93385e-06
3.971e-07
9.09911e-06
1.81723e-05
2.76164e-05
3.74311e-05
4.76154e-05
5.81682e-05
6.90879e-05
8.03724e-05
9.20194e-05
0.000104026
0.000116388
0.000129103
0.000142165
0.000155569
0.000169308
0.000183378
0.000197769
0.000212475
0.000227485
0.000242791
0.000258381
0.000274245
0.000290371
0.000306744
0.000323352
0.000340178
0.000357209
0.000374425
0.000391811
0.000409347
0.000427014
0.000444791
0.000462658
0.000480594
-0.000107948
-0.000108474
-0.000108198
-0.000107756
-0.000106933
-0.000105767
-0.000104257
-0.000102401
-0.000100197
-9.76449e-05
-9.47423e-05
-9.14876e-05
-8.78789e-05
-8.39145e-05
-7.95922e-05
-7.49103e-05
-6.98666e-05
-6.44591e-05
-5.86859e-05
-5.25451e-05
-4.60348e-05
-3.91533e-05
-3.1899e-05
-2.42705e-05
-1.62667e-05
-7.8864e-06
8.71001e-07
1.0006e-05
1.95189e-05
2.94094e-05
3.96773e-05
5.03216e-05
6.13411e-05
7.27344e-05
8.44992e-05
9.6633e-05
0.000109133
0.000121994
0.000135214
0.000148787
0.000162706
0.000176967
0.000191561
0.000206482
0.000221719
0.000237265
0.000253109
0.000269239
0.000285644
0.000302311
0.000319226
0.000336374
0.000353741
0.000371308
0.00038906
0.000406976
0.000425039
0.000443228
0.000461521
0.000479898
-0.000116811
-0.000117352
-0.000117083
-0.00011665
-0.000115837
-0.000114678
-0.000113176
-0.000111327
-0.00010913
-0.000106583
-0.000103684
-0.000100432
-9.68249e-05
-9.28597e-05
-8.85345e-05
-8.38471e-05
-7.87951e-05
-7.33763e-05
-6.75883e-05
-6.14289e-05
-5.48958e-05
-4.79871e-05
-4.07008e-05
-3.30351e-05
-2.49884e-05
-1.65593e-05
-7.74679e-06
1.45011e-06
1.1032e-05
2.09992e-05
3.13516e-05
4.2089e-05
5.32105e-05
6.47148e-05
7.66004e-05
8.8865e-05
0.000101506
0.00011452
0.000127902
0.000141649
0.000155755
0.000170214
0.000185019
0.000200163
0.000215638
0.000231434
0.000247541
0.00026395
0.000280647
0.000297621
0.000314859
0.000332344
0.000350063
0.000367999
0.000386134
0.00040445
0.000422929
0.000441549
0.000460291
0.000479131
-0.000126031
-0.000126589
-0.000126327
-0.000125905
-0.000125101
-0.000123952
-0.000122459
-0.000120618
-0.000118429
-0.000115889
-0.000112997
-0.00010975
-0.000106145
-0.000102181
-9.7855e-05
-9.31642e-05
-8.8106e-05
-8.26778e-05
-7.68769e-05
-7.07007e-05
-6.41467e-05
-5.72125e-05
-4.98956e-05
-4.2194e-05
-3.41057e-05
-2.56288e-05
-1.67618e-05
-7.50339e-06
2.1475e-06
1.21916e-05
2.26294e-05
3.3461e-05
4.46859e-05
5.63035e-05
6.83124e-05
8.07109e-05
9.34965e-05
0.000106666
0.000120217
0.000134144
0.000148442
0.000163106
0.00017813
0.000193506
0.000209226
0.000225283
0.000241665
0.000258363
0.000275366
0.000292661
0.000310234
0.000328072
0.00034616
0.000364481
0.000383018
0.000401753
0.000420666
0.000439739
0.00045895
0.000478276
-0.000135609
-0.000136185
-0.000135931
-0.000135521
-0.000134728
-0.00013359
-0.000132107
-0.000130277
-0.000128097
-0.000125566
-0.000122682
-0.000119441
-0.000115842
-0.000111882
-0.000107557
-0.000102865
-9.7803e-05
-9.23677e-05
-8.65563e-05
-8.03657e-05
-7.37929e-05
-6.68352e-05
-5.94897e-05
-5.1754e-05
-4.36256e-05
-3.51022e-05
-2.61819e-05
-1.68627e-05
-7.14329e-06
2.97771e-06
1.35012e-05
2.44277e-05
3.57573e-05
4.74897e-05
5.9624e-05
7.2159e-05
8.50926e-05
9.84224e-05
0.000112145
0.000126257
0.000140753
0.000155629
0.000170878
0.000186494
0.00020247
0.000218796
0.000235464
0.000252463
0.000269783
0.000287412
0.000305336
0.000323541
0.000342014
0.000360736
0.000379693
0.000398865
0.000418234
0.000437779
0.000457481
0.000477316
-0.000145547
-0.000146141
-0.000145895
-0.000145498
-0.000144717
-0.000143591
-0.000142121
-0.000140303
-0.000138135
-0.000135615
-0.000132741
-0.00012951
-0.000125919
-0.000121964
-0.000117644
-0.000112953
-0.00010789
-0.00010245
-9.66311e-05
-9.04287e-05
-8.38398e-05
-7.68611e-05
-6.94895e-05
-6.17219e-05
-5.35554e-05
-4.49874e-05
-3.60152e-05
-2.66366e-05
-1.68494e-05
-6.65211e-06
3.95688e-06
1.49786e-05
2.64135e-05
3.82619e-05
5.05234e-05
6.31971e-05
7.62815e-05
8.97744e-05
0.000103673
0.000117975
0.000132675
0.000147768
0.00016325
0.000179114
0.000195352
0.000211957
0.000228921
0.000246233
0.000263882
0.000281857
0.000300145
0.000318733
0.000337605
0.000356747
0.000376141
0.000395769
0.000415613
0.000435652
0.000455866
0.000476232
-0.000155843
-0.000156457
-0.00015622
-0.000155837
-0.00015507
-0.000153958
-0.000152502
-0.000150698
-0.000148544
-0.000146038
-0.000143177
-0.000139958
-0.000136377
-0.000132432
-0.000128118
-0.000123432
-0.000118371
-0.00011293
-0.000107106
-0.000100895
-9.4293e-05
-8.72964e-05
-7.99014e-05
-7.21047e-05
-6.39027e-05
-5.52922e-05
-4.62702e-05
-3.68338e-05
-2.69804e-05
-1.67077e-05
-6.01387e-06
5.10277e-06
1.66433e-05
2.86084e-05
4.09982e-05
5.38122e-05
6.70496e-05
8.07086e-05
9.47871e-05
0.000109282
0.00012419
0.000139507
0.000155228
0.000171347
0.000187856
0.00020475
0.000222019
0.000239653
0.000257644
0.000275978
0.000294644
0.000313628
0.000332917
0.000352493
0.000372342
0.000392445
0.000412783
0.000433337
0.000454085
0.000475006
-0.000166499
-0.000167134
-0.000166907
-0.000166539
-0.000165787
-0.000164691
-0.000163251
-0.000161463
-0.000159326
-0.000156836
-0.000153991
-0.000150786
-0.000147219
-0.000143286
-0.000138983
-0.000134306
-0.00012925
-0.000123811
-0.000117986
-0.00011177
-0.000105158
-9.81473e-05
-9.07324e-05
-8.29096e-05
-7.46751e-05
-6.6025e-05
-5.69557e-05
-4.74637e-05
-3.75459e-05
-2.71995e-05
-1.64219e-05
-5.21111e-06
6.43466e-06
1.85166e-05
3.10352e-05
4.39908e-05
5.73829e-05
7.12103e-05
8.54715e-05
0.000100164
0.000115285
0.00013083
0.000146796
0.000163176
0.000179965
0.000197155
0.000214739
0.000232707
0.000251049
0.000269755
0.000288812
0.000308207
0.000327927
0.000347955
0.000368276
0.000388873
0.000409725
0.000430814
0.000452118
0.000473615
-0.000177515
-0.000178171
-0.000177955
-0.000177604
-0.000176869
-0.00017579
-0.000174368
-0.0001726
-0.000170482
-0.000168011
-0.000165184
-0.000161998
-0.000158449
-0.000154531
-0.000150242
-0.000145577
-0.00014053
-0.000135099
-0.000129276
-0.000123059
-0.000116442
-0.00010942
-0.000101989
-9.41442e-05
-8.58807e-05
-7.71943e-05
-6.80807e-05
-5.8536e-05
-4.85563e-05
-3.81382e-05
-2.72787e-05
-1.5975e-05
-4.22495e-06
7.97329e-06
2.06209e-05
3.37186e-05
4.72666e-05
6.12642e-05
7.57105e-05
9.06037e-05
0.000105941
0.00012172
0.000137936
0.000154584
0.000171659
0.000189154
0.000207061
0.000225372
0.000244078
0.000263167
0.000282628
0.000302448
0.000322614
0.00034311
0.000363921
0.000385029
0.000406416
0.000428061
0.000449943
0.00047204
-0.000188889
-0.000189568
-0.000189364
-0.000189032
-0.000188315
-0.000187256
-0.000185855
-0.000184108
-0.000182012
-0.000179564
-0.000176759
-0.000173595
-0.000170066
-0.000166169
-0.000161898
-0.000157249
-0.000152217
-0.000146796
-0.000140981
-0.000134768
-0.00012815
-0.000121122
-0.000113679
-0.000105816
-9.75278e-05
-8.8809e-05
-7.96548e-05
-7.00606e-05
-6.00221e-05
-4.95351e-05
-3.8596e-05
-2.72014e-05
-1.53486e-05
-3.03508e-06
9.74094e-06
2.29808e-05
3.66852e-05
5.08544e-05
6.54878e-05
8.05842e-05
9.61419e-05
0.000112158
0.00012863
0.000145552
0.000162919
0.000180726
0.000198966
0.00021763
0.000236708
0.000256192
0.00027607
0.000296329
0.000316956
0.000337936
0.000359254
0.000380892
0.000402832
0.000425054
0.000447536
0.000470255
-0.000200623
-0.000201326
-0.000201134
-0.000200822
-0.000200125
-0.000199089
-0.000197711
-0.000195988
-0.000193918
-0.000191495
-0.000188717
-0.000185578
-0.000182075
-0.000178202
-0.000173955
-0.000169327
-0.000164313
-0.000158908
-0.000153106
-0.000146901
-0.000140288
-0.000133259
-0.00012581
-0.000117933
-0.000109625
-0.000100878
-9.16876e-05
-8.2048e-05
-7.19543e-05
-6.14018e-05
-5.03861e-05
-3.89033e-05
-2.69499e-05
-1.45228e-05
-1.61959e-06
1.17618e-05
2.56227e-05
3.9964e-05
5.47859e-05
7.00877e-05
8.58684e-05
0.000102126
0.000118857
0.000136058
0.000153725
0.000171851
0.000190431
0.000209456
0.000228919
0.000248808
0.000269115
0.000289826
0.000310928
0.000332408
0.00035425
0.000376437
0.000398949
0.000421768
0.000444872
0.000468238
-0.000212714
-0.000213442
-0.000213265
-0.000212974
-0.0002123
-0.000211287
-0.000209936
-0.000208241
-0.000206199
-0.000203806
-0.000201058
-0.00019795
-0.000194477
-0.000190634
-0.000186414
-0.000181813
-0.000176823
-0.00017144
-0.000165657
-0.000159466
-0.000152862
-0.000145838
-0.000138388
-0.000130504
-0.000122181
-0.000113411
-0.000104189
-9.45088e-05
-8.43644e-05
-7.37505e-05
-6.26619e-05
-5.10942e-05
-3.90431e-05
-2.65048e-05
-1.34762e-05
4.54654e-08
1.40623e-05
2.85758e-05
4.35868e-05
5.90955e-05
7.51013e-05
9.16028e-05
0.000108598
0.000126083
0.000144054
0.000162506
0.000181434
0.000200829
0.000220685
0.000240991
0.000261738
0.000282914
0.000304507
0.000326501
0.000348884
0.000371636
0.000394741
0.000418178
0.000441926
0.000465963
-0.000225161
-0.000225916
-0.000225754
-0.000225487
-0.000224838
-0.000223852
-0.00022253
-0.000220866
-0.000218857
-0.000216498
-0.000213785
-0.000210712
-0.000207274
-0.000203465
-0.000199279
-0.00019471
-0.000189751
-0.000184396
-0.000178637
-0.000172467
-0.00016588
-0.000158867
-0.000151421
-0.000143536
-0.000135204
-0.000126417
-0.00011717
-0.000107454
-9.72642e-05
-8.65936e-05
-7.54367e-05
-6.37881e-05
-5.16428e-05
-3.89965e-05
-2.5845e-05
-1.2185e-05
1.98642e-06
1.66715e-05
3.18718e-05
4.75882e-05
6.38207e-05
8.05686e-05
9.78303e-05
0.000115603
0.000133884
0.000152668
0.00017195
0.000191724
0.000211982
0.000232715
0.000253914
0.000275568
0.000297664
0.000320188
0.000343128
0.000366464
0.00039018
0.000414255
0.00043867
0.0004634
-0.000237964
-0.000238747
-0.000238601
-0.00023836
-0.000237738
-0.000236782
-0.000235492
-0.000233863
-0.000231891
-0.00022957
-0.000226897
-0.000223864
-0.000220467
-0.000216699
-0.000212553
-0.000208023
-0.000203101
-0.00019778
-0.000192053
-0.000185911
-0.000179346
-0.000172351
-0.000164918
-0.000157039
-0.000148704
-0.000139907
-0.00013064
-0.000120896
-0.000110666
-9.99442e-05
-8.87242e-05
-7.69995e-05
-6.47645e-05
-5.20138e-05
-3.87428e-05
-2.49471e-05
-1.06231e-05
4.23224e-06
1.96212e-05
3.55453e-05
5.20055e-05
6.90016e-05
8.65327e-05
0.000104597
0.000123192
0.000142313
0.000161956
0.000182116
0.000202784
0.000223954
0.000245616
0.000267759
0.000290372
0.000313441
0.000336953
0.000360891
0.000385237
0.000409972
0.000435074
0.000460523
-0.000251121
-0.000251933
-0.000251804
-0.000251591
-0.000250998
-0.000250076
-0.000248822
-0.000247232
-0.000245301
-0.000243023
-0.000240394
-0.000237408
-0.000234058
-0.000230337
-0.000226238
-0.000221753
-0.000216876
-0.000211597
-0.000205908
-0.000199802
-0.000193269
-0.0001863
-0.000178886
-0.00017102
-0.000162691
-0.000153891
-0.000144612
-0.000134845
-0.000124582
-0.000113816
-0.000102539
-9.07435e-05
-7.84238e-05
-6.55735e-05
-5.21868e-05
-3.82589e-05
-2.37851e-05
-8.76161e-06
6.8146e-06
2.29459e-05
3.96338e-05
5.6879e-05
7.46814e-05
9.30397e-05
0.000111952
0.000131415
0.000151425
0.000171977
0.000193065
0.000214681
0.000236815
0.00025946
0.000282602
0.000306229
0.00033033