/*--------------------------------*- C++ -*----------------------------------*\
  =========                 |
  \\      /  F ield         | OpenFOAM: The Open Source CFD Toolbox
   \\    /   O peration     | Website:  https://openfoam.org
    \\  /    A nd           | Version:  8
     \\/     M anipulation  |
\*---------------------------------------------------------------------------*/
FoamFile
{
    version     2.0;
    format      ascii;
    class       volVectorField;
    location    "10.5";
    object      U;
}
// * * * * * * * * * * * * * * * * * * * * * * * * * * * * * * * * * * * * * //

dimensions      [0 1 -1 0 0 0 0];

internalField   nonuniform List<vector> 
11600
(
(-7.71706e-06 7.69649e-06 0)
(-4.02269e-05 1.47409e-05 0)
(-8.53956e-05 1.59217e-05 0)
(-0.000127374 1.60205e-05 0)
(-0.000170434 1.59631e-05 0)
(-0.000213232 1.58935e-05 0)
(-0.000255821 1.58208e-05 0)
(-0.000298199 1.57398e-05 0)
(-0.000340333 1.56484e-05 0)
(-0.000382189 1.55454e-05 0)
(-0.000423735 1.54306e-05 0)
(-0.000464935 1.53039e-05 0)
(-0.000505756 1.51652e-05 0)
(-0.000546166 1.50146e-05 0)
(-0.00058613 1.48522e-05 0)
(-0.000625617 1.46781e-05 0)
(-0.000664593 1.44925e-05 0)
(-0.000703028 1.42953e-05 0)
(-0.00074089 1.40868e-05 0)
(-0.000778148 1.38672e-05 0)
(-0.000814772 1.36366e-05 0)
(-0.000850732 1.33953e-05 0)
(-0.000886 1.31434e-05 0)
(-0.000920548 1.28812e-05 0)
(-0.000954348 1.26091e-05 0)
(-0.000987374 1.23272e-05 0)
(-0.0010196 1.2036e-05 0)
(-0.001051 1.17358e-05 0)
(-0.00108156 1.14271e-05 0)
(-0.00111125 1.11104e-05 0)
(-0.00114006 1.07863e-05 0)
(-0.00116795 1.04553e-05 0)
(-0.00119493 1.01183e-05 0)
(-0.00122097 9.77605e-06 0)
(-0.00124606 9.42956e-06 0)
(-0.0012702 9.07998e-06 0)
(-0.00129338 8.72866e-06 0)
(-0.0013156 8.37719e-06 0)
(-0.00133686 8.02749e-06 0)
(-0.00135717 7.68185e-06 0)
(-0.00137655 7.3431e-06 0)
(-0.00139503 7.01467e-06 0)
(-0.00141264 6.70087e-06 0)
(-0.00142942 6.40711e-06 0)
(-0.00144546 6.14032e-06 0)
(-0.00146082 5.90947e-06 0)
(-0.00147564 5.72634e-06 0)
(-0.00149006 5.60676e-06 0)
(-0.00150429 5.57234e-06 0)
(-0.00151861 5.65297e-06 0)
(-0.00153341 5.89094e-06 0)
(-0.00154923 6.34833e-06 0)
(-0.00156683 7.1205e-06 0)
(-0.00158741 8.36283e-06 0)
(-0.00161302 1.03607e-05 0)
(-0.00164589 1.37931e-05 0)
(-0.00168467 2.02117e-05 0)
(-0.00178275 3.27499e-05 0)
(-0.00180885 0.000112964 0)
(-0.00226267 0.000396122 0)
(-1.48181e-05 4.02531e-05 0)
(-6.6531e-05 6.63598e-05 0)
(-0.000134797 7.08854e-05 0)
(-0.000199073 7.13417e-05 0)
(-0.000264723 7.11738e-05 0)
(-0.000330053 7.08994e-05 0)
(-0.000395076 7.05711e-05 0)
(-0.000459766 7.01883e-05 0)
(-0.000524067 6.97493e-05 0)
(-0.000587921 6.92535e-05 0)
(-0.000651275 6.87008e-05 0)
(-0.000714074 6.80915e-05 0)
(-0.000776265 6.74259e-05 0)
(-0.000837796 6.67048e-05 0)
(-0.000898614 6.59286e-05 0)
(-0.000958668 6.5098e-05 0)
(-0.00101791 6.42138e-05 0)
(-0.00107628 6.32769e-05 0)
(-0.00113374 6.22882e-05 0)
(-0.00119025 6.12486e-05 0)
(-0.00124574 6.01594e-05 0)
(-0.00130018 5.90215e-05 0)
(-0.00135352 5.78364e-05 0)
(-0.00140572 5.66054e-05 0)
(-0.00145674 5.53301e-05 0)
(-0.00150654 5.40122e-05 0)
(-0.00155508 5.26534e-05 0)
(-0.00160232 5.12559e-05 0)
(-0.00164824 4.98218e-05 0)
(-0.00169279 4.83537e-05 0)
(-0.00173595 4.68543e-05 0)
(-0.00177769 4.53269e-05 0)
(-0.00181799 4.37749e-05 0)
(-0.00185683 4.22024e-05 0)
(-0.0018942 4.06141e-05 0)
(-0.00193007 3.90153e-05 0)
(-0.00196446 3.74123e-05 0)
(-0.00199735 3.58126e-05 0)
(-0.00202876 3.42249e-05 0)
(-0.0020587 3.26598e-05 0)
(-0.0020872 3.11302e-05 0)
(-0.0021143 2.96519e-05 0)
(-0.00214005 2.82447e-05 0)
(-0.00216454 2.69335e-05 0)
(-0.00218786 2.57504e-05 0)
(-0.00221014 2.47373e-05 0)
(-0.00223157 2.39498e-05 0)
(-0.00225236 2.34638e-05 0)
(-0.00227284 2.33851e-05 0)
(-0.00229343 2.38647e-05 0)
(-0.00231468 2.51245e-05 0)
(-0.00233739 2.75039e-05 0)
(-0.0023627 3.1542e-05 0)
(-0.00239227 3.81267e-05 0)
(-0.00242879 4.88154e-05 0)
(-0.00247502 6.66466e-05 0)
(-0.00253381 9.65225e-05 0)
(-0.00264299 0.000144459 0)
(-0.00270571 0.000281905 0)
(-0.00299738 0.000466283 0)
(-1.60583e-05 8.56241e-05 0)
(-7.13202e-05 0.000134719 0)
(-0.000143891 0.000143296 0)
(-0.000212207 0.000144173 0)
(-0.000281927 0.000143869 0)
(-0.000351297 0.000143328 0)
(-0.000420334 0.000142658 0)
(-0.000489014 0.000141867 0)
(-0.000557275 0.000140957 0)
(-0.000625057 0.000139928 0)
(-0.000692303 0.000138782 0)
(-0.000758955 0.000137519 0)
(-0.000824955 0.00013614 0)
(-0.000890247 0.000134647 0)
(-0.000954776 0.000133041 0)
(-0.00101849 0.000131324 0)
(-0.00108133 0.000129496 0)
(-0.00114324 0.000127561 0)
(-0.00120418 0.000125521 0)
(-0.00126408 0.000123376 0)
(-0.00132291 0.000121131 0)
(-0.00138062 0.000118787 0)
(-0.00143715 0.000116347 0)
(-0.00149246 0.000113815 0)
(-0.0015465 0.000111192 0)
(-0.00159924 0.000108484 0)
(-0.00165064 0.000105695 0)
(-0.00170065 0.000102827 0)
(-0.00174923 9.98862e-05 0)
(-0.00179637 9.68777e-05 0)
(-0.00184201 9.38073e-05 0)
(-0.00188614 9.06813e-05 0)
(-0.00192874 8.75071e-05 0)
(-0.00196977 8.4293e-05 0)
(-0.00200922 8.10484e-05 0)
(-0.00204708 7.77842e-05 0)
(-0.00208334 7.45131e-05 0)
(-0.00211801 7.12499e-05 0)
(-0.00215108 6.80122e-05 0)
(-0.00218258 6.48212e-05 0)
(-0.00221252 6.17022e-05 0)
(-0.00224095 5.86866e-05 0)
(-0.00226792 5.58133e-05 0)
(-0.00229351 5.31312e-05 0)
(-0.0023178 5.07026e-05 0)
(-0.00234091 4.86087e-05 0)
(-0.00236302 4.69566e-05 0)
(-0.00238433 4.58907e-05 0)
(-0.00240511 4.56097e-05 0)
(-0.00242572 4.63936e-05 0)
(-0.00244659 4.86448e-05 0)
(-0.00246834 5.29593e-05 0)
(-0.00249171 6.02443e-05 0)
(-0.00251769 7.19163e-05 0)
(-0.00254753 9.0292e-05 0)
(-0.00258201 0.000119406 0)
(-0.002622 0.000165059 0)
(-0.00268006 0.000235914 0)
(-0.00269765 0.000379305 0)
(-0.00279067 0.00054275 0)
(-1.62226e-05 0.000127976 0)
(-7.20918e-05 0.000199371 0)
(-0.000145418 0.000211767 0)
(-0.000214388 0.000212986 0)
(-0.000284784 0.000212522 0)
(-0.000354823 0.000211718 0)
(-0.000424524 0.000210721 0)
(-0.000493864 0.000209545 0)
(-0.000562781 0.000208192 0)
(-0.000631215 0.000206662 0)
(-0.000699106 0.000204958 0)
(-0.000766396 0.00020308 0)
(-0.000833027 0.000201031 0)
(-0.000898943 0.000198812 0)
(-0.000964086 0.000196425 0)
(-0.0010284 0.000193873 0)
(-0.00109184 0.000191158 0)
(-0.00115433 0.000188284 0)
(-0.00121584 0.000185253 0)
(-0.00127631 0.000182069 0)
(-0.00133569 0.000178734 0)
(-0.00139393 0.000175254 0)
(-0.00145098 0.000171632 0)
(-0.0015068 0.000167873 0)
(-0.00156134 0.000163982 0)
(-0.00161456 0.000159963 0)
(-0.00166641 0.000155824 0)
(-0.00171686 0.000151569 0)
(-0.00176588 0.000147206 0)
(-0.00181342 0.000142743 0)
(-0.00185945 0.000138188 0)
(-0.00190395 0.000133551 0)
(-0.00194688 0.000128842 0)
(-0.00198823 0.000124073 0)
(-0.00202798 0.000119258 0)
(-0.00206611 0.000114413 0)
(-0.00210261 0.000109555 0)
(-0.00213749 0.000104707 0)
(-0.00217073 9.98925e-05 0)
(-0.00220236 9.5142e-05 0)
(-0.00223239 9.04915e-05 0)
(-0.00226085 8.59845e-05 0)
(-0.00228779 8.16753e-05 0)
(-0.00231326 7.7631e-05 0)
(-0.00233735 7.39368e-05 0)
(-0.00236015 7.0702e-05 0)
(-0.00238178 6.80687e-05 0)
(-0.00240242 6.62247e-05 0)
(-0.00242225 6.54222e-05 0)
(-0.00244152 6.60059e-05 0)
(-0.00246054 6.84536e-05 0)
(-0.00247966 7.34384e-05 0)
(-0.00249929 8.19245e-05 0)
(-0.00251985 9.53111e-05 0)
(-0.00254163 0.000115672 0)
(-0.00256434 0.00014611 0)
(-0.00258729 0.000190656 0)
(-0.00261068 0.000255371 0)
(-0.00260463 0.000360727 0)
(-0.00260694 0.000469113 0)
(-1.62501e-05 0.000171627 0)
(-7.23385e-05 0.00026574 0)
(-0.000145976 0.000282003 0)
(-0.000215204 0.000283582 0)
(-0.000285873 0.00028296 0)
(-0.000356178 0.000281888 0)
(-0.000426144 0.000280557 0)
(-0.000495747 0.000278985 0)
(-0.000564925 0.000277176 0)
(-0.000633617 0.000275131 0)
(-0.000701765 0.000272852 0)
(-0.000769309 0.000270341 0)
(-0.000836191 0.000267601 0)
(-0.000902355 0.000264633 0)
(-0.000967743 0.000261442 0)
(-0.0010323 0.000258031 0)
(-0.00109597 0.000254402 0)
(-0.0011587 0.000250561 0)
(-0.00122044 0.00024651 0)
(-0.00128113 0.000242254 0)
(-0.00134072 0.000237799 0)
(-0.00139917 0.000233148 0)
(-0.00145643 0.000228309 0)
(-0.00151245 0.000223287 0)
(-0.00156718 0.000218087 0)
(-0.00162058 0.000212719 0)
(-0.00167261 0.000207188 0)
(-0.00172323 0.000201504 0)
(-0.0017724 0.000195675 0)
(-0.00182008 0.000189712 0)
(-0.00186625 0.000183626 0)
(-0.00191087 0.000177428 0)
(-0.00195391 0.000171134 0)
(-0.00199536 0.000164758 0)
(-0.00203518 0.000158318 0)
(-0.00207336 0.000151834 0)
(-0.00210989 0.00014533 0)
(-0.00214476 0.000138832 0)
(-0.00217797 0.000132373 0)
(-0.00220953 0.00012599 0)
(-0.00223944 0.000119727 0)
(-0.00226773 0.00011364 0)
(-0.00229442 0.000107794 0)
(-0.00231956 0.000102272 0)
(-0.00234321 9.71754e-05 0)
(-0.00236543 9.26343e-05 0)
(-0.0023863 8.88142e-05 0)
(-0.00240593 8.59294e-05 0)
(-0.00242443 8.42614e-05 0)
(-0.00244193 8.41836e-05 0)
(-0.00245858 8.61973e-05 0)
(-0.00247447 9.0982e-05 0)
(-0.00248967 9.94665e-05 0)
(-0.00250405 0.000112926 0)
(-0.00251721 0.000133112 0)
(-0.00252805 0.000162358 0)
(-0.00253462 0.000203469 0)
(-0.00253363 0.000260267 0)
(-0.00251082 0.000339317 0)
(-0.00247436 0.000421828 0)
(-1.62893e-05 0.000215293 0)
(-7.25936e-05 0.000332236 0)
(-0.000146536 0.000352369 0)
(-0.000216035 0.000354303 0)
(-0.000286986 0.00035352 0)
(-0.000357569 0.000352178 0)
(-0.00042781 0.000350511 0)
(-0.000497686 0.000348543 0)
(-0.000567136 0.000346277 0)
(-0.000636098 0.000343716 0)
(-0.000704512 0.000340861 0)
(-0.00077232 0.000337716 0)
(-0.000839464 0.000334283 0)
(-0.000905886 0.000330567 0)
(-0.000971529 0.00032657 0)
(-0.00103634 0.000322297 0)
(-0.00110025 0.000317753 0)
(-0.00116322 0.000312942 0)
(-0.0012252 0.000307869 0)
(-0.00128612 0.000302539 0)
(-0.00134594 0.00029696 0)
(-0.00140461 0.000291136 0)
(-0.00146208 0.000285076 0)
(-0.00151831 0.000278786 0)
(-0.00157324 0.000272275 0)
(-0.00162683 0.000265552 0)
(-0.00167904 0.000258625 0)
(-0.00172983 0.000251505 0)
(-0.00177916 0.000244203 0)
(-0.00182699 0.000236732 0)
(-0.0018733 0.000229104 0)
(-0.00191804 0.000221336 0)
(-0.00196118 0.000213444 0)
(-0.00200271 0.000205446 0)
(-0.00204259 0.000197364 0)
(-0.00208082 0.000189222 0)
(-0.00211736 0.000181047 0)
(-0.00215221 0.000172872 0)
(-0.00218537 0.000164733 0)
(-0.00221682 0.000156675 0)
(-0.00224657 0.000148749 0)
(-0.00227464 0.000141017 0)
(-0.00230103 0.000133554 0)
(-0.00232577 0.000126451 0)
(-0.00234889 0.000119821 0)
(-0.00237043 0.000113805 0)
(-0.00239043 0.000108576 0)
(-0.00240892 0.000104357 0)
(-0.00242596 0.00010143 0)
(-0.00244157 0.000100159 0)
(-0.00245575 0.000101012 0)
(-0.00246842 0.000104591 0)
(-0.00247939 0.000111671 0)
(-0.00248828 0.000123235 0)
(-0.00249432 0.000140498 0)
(-0.00249616 0.00016488 0)
(-0.00249166 0.000197821 0)
(-0.00247732 0.00024074 0)
(-0.00244585 0.000294549 0)
(-0.00239646 0.000350567 0)
(-1.63503e-05 0.000259094 0)
(-7.29132e-05 0.000398984 0)
(-0.00014721 0.000423 0)
(-0.000217036 0.000425292 0)
(-0.000288324 0.000424345 0)
(-0.000359241 0.000422731 0)
(-0.000429814 0.000420727 0)
(-0.00050002 0.000418361 0)
(-0.000569796 0.000415636 0)
(-0.000639083 0.000412555 0)
(-0.000707819 0.000409122 0)
(-0.000775946 0.00040534 0)
(-0.000843404 0.000401213 0)
(-0.000910137 0.000396744 0)
(-0.000976086 0.000391938 0)
(-0.00104119 0.000386801 0)
(-0.00110541 0.000381336 0)
(-0.00116867 0.000375551 0)
(-0.00123093 0.000369451 0)
(-0.00129213 0.000363042 0)
(-0.00135223 0.000356333 0)
(-0.00141116 0.00034933 0)
(-0.00146889 0.000342042 0)
(-0.00152536 0.000334478 0)
(-0.00158053 0.000326647 0)
(-0.00163435 0.000318559 0)
(-0.00168678 0.000310226 0)
(-0.00173778 0.00030166 0)
(-0.0017873 0.000292874 0)
(-0.00183532 0.000283882 0)
(-0.00188178 0.0002747 0)
(-0.00192667 0.000265345 0)
(-0.00196995 0.000255837 0)
(-0.00201158 0.000246198 0)
(-0.00205155 0.00023645 0)
(-0.00208982 0.000226623 0)
(-0.00212639 0.000216746 0)
(-0.00216123 0.000206857 0)
(-0.00219432 0.000196995 0)
(-0.00222567 0.00018721 0)
(-0.00225526 0.000177558 0)
(-0.00228308 0.000168106 0)
(-0.00230915 0.000158933 0)
(-0.00233346 0.000150136 0)
(-0.00235602 0.000141831 0)
(-0.00237684 0.00013416 0)
(-0.00239591 0.000127296 0)
(-0.00241324 0.000121454 0)
(-0.0024288 0.000116899 0)
(-0.00244252 0.000113959 0)
(-0.00245432 0.000113042 0)
(-0.00246399 0.000114644 0)
(-0.0024712 0.000119368 0)
(-0.00247541 0.000127917 0)
(-0.00247575 0.000141076 0)
(-0.00247091 0.000159626 0)
(-0.00245896 0.00018416 0)
(-0.00243713 0.000214859 0)
(-0.00240123 0.000250841 0)
(-0.00234923 0.00028737 0)
(-1.64282e-05 0.000303104 0)
(-7.32975e-05 0.000466076 0)
(-0.00014801 0.000493997 0)
(-0.000218223 0.000496649 0)
(-0.000289908 0.000495538 0)
(-0.00036122 0.000493649 0)
(-0.000432185 0.000491306 0)
(-0.000502781 0.000488538 0)
(-0.000572944 0.000485352 0)
(-0.000642615 0.00048175 0)
(-0.000711731 0.000477736 0)
(-0.000780235 0.000473313 0)
(-0.000848066 0.000468486 0)
(-0.000915166 0.00046326 0)
(-0.000981478 0.000457641 0)
(-0.00104694 0.000451632 0)
(-0.00111151 0.000445242 0)
(-0.00117512 0.000438477 0)
(-0.00123771 0.000431343 0)
(-0.00129925 0.000423848 0)
(-0.00135966 0.000416001 0)
(-0.00141891 0.00040781 0)
(-0.00147694 0.000399286 0)
(-0.00153371 0.000390437 0)
(-0.00158916 0.000381276 0)
(-0.00164326 0.000371814 0)
(-0.00169595 0.000362063 0)
(-0.00174719 0.000352037 0)
(-0.00179695 0.000341752 0)
(-0.00184518 0.000331223 0)
(-0.00189184 0.000320469 0)
(-0.00193691 0.000309508 0)
(-0.00198034 0.000298363 0)
(-0.00202211 0.000287056 0)
(-0.00206218 0.000275616 0)
(-0.00210053 0.000264072 0)
(-0.00213714 0.000252458 0)
(-0.00217197 0.000240812 0)
(-0.00220502 0.000229179 0)
(-0.00223627 0.00021761 0)
(-0.00226569 0.000206164 0)
(-0.00229327 0.00019491 0)
(-0.00231901 0.000183931 0)
(-0.00234289 0.000173321 0)
(-0.00236488 0.000163196 0)
(-0.00238498 0.000153694 0)
(-0.00240315 0.000144976 0)
(-0.00241933 0.000137241 0)
(-0.00243347 0.000130724 0)
(-0.00244544 0.000125705 0)
(-0.00245507 0.000122516 0)
(-0.0024621 0.000121541 0)
(-0.00246613 0.000123213 0)
(-0.00246659 0.000127991 0)
(-0.00246263 0.000136318 0)
(-0.00245309 0.000148528 0)
(-0.00243644 0.000164692 0)
(-0.00241066 0.000184398 0)
(-0.00237336 0.00020631 0)
(-0.00232299 0.000227225 0)
(-1.65207e-05 0.000347361 0)
(-7.37447e-05 0.000533567 0)
(-0.000148937 0.000565419 0)
(-0.000219597 0.000568434 0)
(-0.000291741 0.000567157 0)
(-0.000363509 0.000564992 0)
(-0.000434927 0.000562307 0)
(-0.000505974 0.000559136 0)
(-0.000576585 0.000555485 0)
(-0.0006467 0.000551358 0)
(-0.000716256 0.000546758 0)
(-0.000785195 0.00054169 0)
(-0.000853457 0.000536159 0)
(-0.000920983 0.000530171 0)
(-0.000987714 0.000523732 0)
(-0.00105359 0.000516847 0)
(-0.00111856 0.000509524 0)
(-0.00118257 0.000501771 0)
(-0.00124556 0.000493596 0)
(-0.00130748 0.000485007 0)
(-0.00136827 0.000476013 0)
(-0.00142788 0.000466625 0)
(-0.00148626 0.000456854 0)
(-0.00154337 0.00044671 0)
(-0.00159915 0.000436207 0)
(-0.00165356 0.000425357 0)
(-0.00170656 0.000414174 0)
(-0.00175809 0.000402674 0)
(-0.00180812 0.000390874 0)
(-0.0018566 0.00037879 0)
(-0.0019035 0.000366444 0)
(-0.00194878 0.000353855 0)
(-0.0019924 0.000341048 0)
(-0.00203433 0.000328049 0)
(-0.00207453 0.000314885 0)
(-0.00211298 0.00030159 0)
(-0.00214965 0.000288199 0)
(-0.00218451 0.000274752 0)
(-0.00221753 0.000261296 0)
(-0.00224868 0.000247883 0)
(-0.00227796 0.000234573 0)
(-0.00230532 0.000221436 0)
(-0.00233074 0.000208551 0)
(-0.00235419 0.000196013 0)
(-0.00237565 0.000183931 0)
(-0.00239506 0.00017243 0)
(-0.00241237 0.000161661 0)
(-0.00242749 0.000151795 0)
(-0.00244033 0.000143033 0)
(-0.00245073 0.000135603 0)
(-0.00245848 0.000129763 0)
(-0.00246329 0.000125792 0)
(-0.00246475 0.000123976 0)
(-0.0024623 0.000124584 0)
(-0.00245522 0.000127819 0)
(-0.00244254 0.000133734 0)
(-0.0024231 0.000142114 0)
(-0.00239551 0.000152323 0)
(-0.00235841 0.00016305 0)
(-0.00231088 0.000172053 0)
(-1.66269e-05 0.000391902 0)
(-7.42545e-05 0.000601513 0)
(-0.000149991 0.000637326 0)
(-0.000221159 0.000640708 0)
(-0.000293825 0.000639264 0)
(-0.000366111 0.000636821 0)
(-0.000438044 0.000633791 0)
(-0.000509603 0.000630213 0)
(-0.000580723 0.000626094 0)
(-0.000651342 0.000621437 0)
(-0.000721399 0.000616248 0)
(-0.000790833 0.00061053 0)
(-0.000859584 0.00060429 0)
(-0.000927593 0.000597533 0)
(-0.000994802 0.000590268 0)
(-0.00106115 0.000582499 0)
(-0.00112658 0.000574237 0)
(-0.00119105 0.000565488 0)
(-0.00125448 0.000556262 0)
(-0.00131683 0.000546569 0)
(-0.00137805 0.00053642 0)
(-0.00143807 0.000525824 0)
(-0.00149686 0.000514794 0)
(-0.00155436 0.000503343 0)
(-0.00161052 0.000491484 0)
(-0.00166529 0.000479232 0)
(-0.00171863 0.000466602 0)
(-0.00177049 0.000453611 0)
(-0.00182083 0.000440277 0)
(-0.00186961 0.00042662 0)
(-0.00191678 0.00041266 0)
(-0.0019623 0.00039842 0)
(-0.00200615 0.000383925 0)
(-0.00204827 0.000369203 0)
(-0.00208864 0.000354285 0)
(-0.00212722 0.000339202 0)
(-0.00216398 0.000323993 0)
(-0.00219888 0.000308699 0)
(-0.00223189 0.000293367 0)
(-0.00226299 0.00027805 0)
(-0.00229214 0.000262806 0)
(-0.0023193 0.000247704 0)
(-0.00234443 0.000232821 0)
(-0.00236751 0.000218244 0)
(-0.00238847 0.000204075 0)
(-0.00240725 0.000190428 0)
(-0.00242378 0.000177432 0)
(-0.00243796 0.000165236 0)
(-0.00244966 0.000154001 0)
(-0.00245871 0.000143908 0)
(-0.00246489 0.000135145 0)
(-0.00246789 0.000127901 0)
(-0.00246734 0.000122351 0)
(-0.00246274 0.000118623 0)
(-0.00245348 0.000116762 0)
(-0.0024388 0.000116659 0)
(-0.00241785 0.000117976 0)
(-0.00238973 0.000120041 0)
(-0.00235363 0.00012172 0)
(-0.00230912 0.000121401 0)
(-1.67466e-05 0.000436764 0)
(-7.48268e-05 0.000669974 0)
(-0.000151174 0.000709781 0)
(-0.000222912 0.000713532 0)
(-0.000296161 0.000711921 0)
(-0.000369027 0.000709197 0)
(-0.000441538 0.00070582 0)
(-0.000513671 0.000701832 0)
(-0.000585361 0.00069724 0)
(-0.000656546 0.00069205 0)
(-0.000727164 0.000686265 0)
(-0.000797153 0.000679892 0)
(-0.000866453 0.000672936 0)
(-0.000935005 0.000665405 0)
(-0.00100275 0.000657306 0)
(-0.00106962 0.000648646 0)
(-0.00113558 0.000639435 0)
(-0.00120055 0.000629682 0)
(-0.00126448 0.000619396 0)
(-0.00132732 0.000608589 0)
(-0.00138901 0.000597271 0)
(-0.0014495 0.000585456 0)
(-0.00150874 0.000573155 0)
(-0.00156668 0.000560383 0)
(-0.00162327 0.000547154 0)
(-0.00167845 0.000533485 0)
(-0.00173218 0.000519391 0)
(-0.00178441 0.000504891 0)
(-0.00183511 0.000490004 0)
(-0.00188422 0.000474751 0)
(-0.0019317 0.000459155 0)
(-0.00197751 0.000443238 0)
(-0.00202161 0.000427029 0)
(-0.00206397 0.000410554 0)
(-0.00210453 0.000393846 0)
(-0.00214328 0.000376939 0)
(-0.00218015 0.000359871 0)
(-0.00221513 0.000342683 0)
(-0.00224818 0.000325422 0)
(-0.00227925 0.00030814 0)
(-0.0023083 0.000290894 0)
(-0.0023353 0.00027375 0)
(-0.0023602 0.000256779 0)
(-0.00238294 0.000240063 0)
(-0.00240347 0.000223693 0)
(-0.0024217 0.000207768 0)
(-0.00243756 0.0001924 0)
(-0.00245092 0.00017771 0)
(-0.00246166 0.000163828 0)
(-0.00246959 0.000150886 0)
(-0.00247449 0.000139017 0)
(-0.00247609 0.00012834 0)
(-0.00247403 0.000118944 0)
(-0.00246789 0.000110864 0)
(-0.00245718 0.000104047 0)
(-0.00244133 9.83041e-05 0)
(-0.00241971 9.32618e-05 0)
(-0.00239177 8.82945e-05 0)
(-0.00235705 8.24858e-05 0)
(-0.00231537 7.46573e-05 0)
(-1.68795e-05 0.000481985 0)
(-7.54619e-05 0.000739008 0)
(-0.000152485 0.000782847 0)
(-0.000224855 0.000786971 0)
(-0.000298752 0.00078519 0)
(-0.000372262 0.000782183 0)
(-0.000445413 0.000778455 0)
(-0.000518183 0.000774053 0)
(-0.000590505 0.000768985 0)
(-0.000662317 0.000763256 0)
(-0.000733557 0.000756871 0)
(-0.000804162 0.000749836 0)
(-0.000874071 0.000742158 0)
(-0.000943224 0.000733844 0)
(-0.00101156 0.000724904 0)
(-0.00107902 0.000715344 0)
(-0.00114555 0.000705175 0)
(-0.00121108 0.000694407 0)
(-0.00127557 0.000683051 0)
(-0.00133895 0.000671118 0)
(-0.00140118 0.000658621 0)
(-0.00146219 0.000645573 0)
(-0.00152193 0.000631987 0)
(-0.00158036 0.000617879 0)
(-0.00163742 0.000603265 0)
(-0.00169305 0.000588161 0)
(-0.00174722 0.000572585 0)
(-0.00179988 0.000556557 0)
(-0.00185097 0.000540097 0)
(-0.00190046 0.000523226 0)
(-0.00194829 0.000505969 0)
(-0.00199443 0.00048835 0)
(-0.00203883 0.000470396 0)
(-0.00208145 0.000452138 0)
(-0.00212225 0.000433606 0)
(-0.00216119 0.000414836 0)
(-0.00219823 0.000395866 0)
(-0.00223333 0.000376738 0)
(-0.00226644 0.000357496 0)
(-0.00229752 0.000338191 0)
(-0.00232653 0.000318879 0)
(-0.00235341 0.00029962 0)
(-0.00237812 0.00028048 0)
(-0.00240059 0.000261534 0)
(-0.00242076 0.000242861 0)
(-0.00243854 0.000224549 0)
(-0.00245384 0.000206689 0)
(-0.00246653 0.000189378 0)
(-0.00247648 0.000172717 0)
(-0.00248352 0.000156799 0)
(-0.00248743 0.000141713 0)
(-0.00248796 0.000127524 0)
(-0.00248482 0.000114261 0)
(-0.00247764 0.0001019 0)
(-0.00246604 9.03345e-05 0)
(-0.00244958 7.93466e-05 0)
(-0.00242786 6.85711e-05 0)
(-0.0024005 5.74629e-05 0)
(-0.00236727 4.53041e-05 0)
(-0.00232814 3.12293e-05 0)
(-1.70258e-05 0.000527602 0)
(-7.61603e-05 0.000808674 0)
(-0.000153927 0.000856586 0)
(-0.000226991 0.000861087 0)
(-0.0003016 0.000859136 0)
(-0.000375817 0.000855843 0)
(-0.000449672 0.000851761 0)
(-0.000523141 0.000846941 0)
(-0.000596159 0.000841391 0)
(-0.000668661 0.000835118 0)
(-0.000740584 0.000828126 0)
(-0.000811866 0.000820422 0)
(-0.000882445 0.000812015 0)
(-0.000952259 0.000802911 0)
(-0.00102125 0.00079312 0)
(-0.00108935 0.000782651 0)
(-0.00115651 0.000771514 0)
(-0.00122267 0.000759721 0)
(-0.00128777 0.000747282 0)
(-0.00135175 0.000734211 0)
(-0.00141456 0.000720521 0)
(-0.00147614 0.000706226 0)
(-0.00153644 0.000691341 0)
(-0.0015954 0.000675882 0)
(-0.00165298 0.000659865 0)
(-0.00170913 0.000643309 0)
(-0.00176378 0.000626232 0)
(-0.0018169 0.000608655 0)
(-0.00186844 0.000590599 0)
(-0.00191835 0.000572087 0)
(-0.00196658 0.000553144 0)
(-0.00201308 0.000533794 0)
(-0.00205783 0.000514067 0)
(-0.00210076 0.000493993 0)
(-0.00214184 0.000473603 0)
(-0.00218101 0.000452933 0)
(-0.00221825 0.000432019 0)
(-0.0022535 0.000410904 0)
(-0.00228672 0.000389631 0)
(-0.00231786 0.000368249 0)
(-0.00234687 0.000346809 0)
(-0.0023737 0.000325367 0)
(-0.00239828 0.000303986 0)
(-0.00242056 0.00028273 0)
(-0.00244045 0.000261669 0)
(-0.00245787 0.000240876 0)
(-0.00247273 0.000220428 0)
(-0.0024849 0.0002004 0)
(-0.00249424 0.000180866 0)
(-0.00250059 0.000161892 0)
(-0.00250377 0.000143529 0)
(-0.00250354 0.000125805 0)
(-0.00249965 0.000108711 0)
(-0.00249182 9.21872e-05 0)
(-0.00247974 7.6104e-05 0)
(-0.00246309 6.02405e-05 0)
(-0.0024416 4.42632e-05 0)
(-0.00241504 2.77224e-05 0)
(-0.00238328 1.00738e-05 0)
(-0.00234637 -9.32726e-06 0)
(-1.71854e-05 0.000573654 0)
(-7.69223e-05 0.000879033 0)
(-0.0001555 0.000931063 0)
(-0.000229323 0.000935946 0)
(-0.000304708 0.000933822 0)
(-0.000379697 0.00093024 0)
(-0.00045432 0.0009258 0)
(-0.000528552 0.000920557 0)
(-0.000602328 0.000914521 0)
(-0.000675583 0.000907697 0)
(-0.000748252 0.000900092 0)
(-0.000820273 0.000891713 0)
(-0.000891582 0.000882568 0)
(-0.000962119 0.000872665 0)
(-0.00103182 0.000862014 0)
(-0.00110063 0.000850625 0)
(-0.00116848 0.00083851 0)
(-0.00123532 0.000825679 0)
(-0.00130108 0.000812146 0)
(-0.00136572 0.000797924 0)
(-0.00142916 0.000783027 0)
(-0.00149137 0.00076747 0)
(-0.00155228 0.000751269 0)
(-0.00161183 0.000734441 0)
(-0.00166999 0.000717004 0)
(-0.00172669 0.000698976 0)
(-0.00178188 0.000680378 0)
(-0.00183551 0.000661231 0)
(-0.00188754 0.000641557 0)
(-0.00193791 0.000621379 0)
(-0.00198658 0.000600723 0)
(-0.00203351 0.000579616 0)
(-0.00207863 0.000558086 0)
(-0.00212192 0.000536163 0)
(-0.00216331 0.000513879 0)
(-0.00220278 0.000491271 0)
(-0.00224026 0.000468373 0)
(-0.00227571 0.000445227 0)
(-0.00230909 0.000421875 0)
(-0.00234034 0.000398362 0)
(-0.00236941 0.000374738 0)
(-0.00239623 0.000351054 0)
(-0.00242076 0.000327365 0)
(-0.00244291 0.00030373 0)
(-0.00246262 0.000280208 0)
(-0.00247978 0.000256861 0)
(-0.00249431 0.000233749 0)
(-0.00250609 0.000210933 0)
(-0.00251499 0.000188464 0)
(-0.00252086 0.000166385 0)
(-0.00252352 0.000144723 0)
(-0.00252278 0.000123479 0)
(-0.00251843 0.00010262 0)
(-0.00251025 8.20712e-05 0)
(-0.00249798 6.16951e-05 0)
(-0.00248142 4.12832e-05 0)
(-0.00246038 2.05482e-05 0)
(-0.00243469 -8.57281e-07 0)
(-0.00240432 -2.33674e-05 0)
(-0.00236936 -4.74663e-05 0)
(-1.73585e-05 0.000620178 0)
(-7.77487e-05 0.000950145 0)
(-0.000157207 0.00100634 0)
(-0.000231851 0.00101161 0)
(-0.000308079 0.00100931 0)
(-0.000383904 0.00100544 0)
(-0.00045936 0.00100064 0)
(-0.00053442 0.000994967 0)
(-0.000609019 0.000988438 0)
(-0.00068309 0.000981058 0)
(-0.000756568 0.000972832 0)
(-0.000829391 0.000963769 0)
(-0.000901493 0.000953878 0)
(-0.000972813 0.000943166 0)
(-0.00104329 0.000931645 0)
(-0.00111286 0.000919326 0)
(-0.00118146 0.00090622 0)
(-0.00124903 0.000892339 0)
(-0.00131552 0.000877698 0)
(-0.00138087 0.00086231 0)
(-0.00144501 0.000846191 0)
(-0.0015079 0.000829357 0)
(-0.00156947 0.000811823 0)
(-0.00162967 0.000793609 0)
(-0.00168845 0.000774733 0)
(-0.00174575 0.000755214 0)
(-0.00180153 0.000735074 0)
(-0.00185572 0.000714334 0)
(-0.00190829 0.000693017 0)
(-0.00195918 0.000671149 0)
(-0.00200834 0.000648754 0)
(-0.00205572 0.00062586 0)
(-0.00210128 0.000602496 0)
(-0.00214496 0.000578692 0)
(-0.00218673 0.000554481 0)
(-0.00222652 0.000529896 0)
(-0.0022643 0.000504975 0)
(-0.0023 0.000479755 0)
(-0.00233359 0.000454278 0)
(-0.002365 0.000428587 0)
(-0.00239418 0.000402726 0)
(-0.00242107 0.000376745 0)
(-0.00244561 0.000350691 0)
(-0.00246772 0.000324617 0)
(-0.00248732 0.000298573 0)
(-0.00250433 0.000272611 0)
(-0.00251866 0.000246779 0)
(-0.00253018 0.000221123 0)
(-0.00253879 0.000195679 0)
(-0.00254433 0.000170473 0)
(-0.00254667 0.000145513 0)
(-0.00254564 0.000120785 0)
(-0.00254106 9.62447e-05 0)
(-0.00253274 7.18086e-05 0)
(-0.00252052 4.7345e-05 0)
(-0.00250424 2.26676e-05 0)
(-0.00248374 -2.45125e-06 0)
(-0.00245895 -2.8299e-05 0)
(-0.00242989 -5.52251e-05 0)
(-0.00239665 -8.35869e-05 0)
(-1.75451e-05 0.000667212 0)
(-7.864e-05 0.00102207 0)
(-0.000159047 0.00108249 0)
(-0.000234578 0.00108815 0)
(-0.000311714 0.00108567 0)
(-0.000388443 0.00108151 0)
(-0.000464797 0.00107634 0)
(-0.000540751 0.00107023 0)
(-0.000616237 0.00106321 0)
(-0.000691189 0.00105526 0)
(-0.000765541 0.00104641 0)
(-0.000839228 0.00103665 0)
(-0.000912186 0.00102601 0)
(-0.000984351 0.00101448 0)
(-0.00105566 0.00100207 0)
(-0.00112605 0.000988813 0)
(-0.00119547 0.000974704 0)
(-0.00126384 0.00095976 0)
(-0.00133111 0.000943997 0)
(-0.00139722 0.000927428 0)
(-0.00146212 0.000910071 0)
(-0.00152574 0.000891942 0)
(-0.00158802 0.000873058 0)
(-0.00164893 0.000853439 0)
(-0.00170838 0.000833104 0)
(-0.00176634 0.000812073 0)
(-0.00182276 0.000790368 0)
(-0.00187757 0.000768013 0)
(-0.00193072 0.00074503 0)
(-0.00198218 0.000721445 0)
(-0.00203187 0.000697283 0)
(-0.00207976 0.000672574 0)
(-0.0021258 0.000647346 0)
(-0.00216993 0.000621628 0)
(-0.00221211 0.000595454 0)
(-0.00225228 0.000568858 0)
(-0.0022904 0.000541874 0)
(-0.00232641 0.00051454 0)
(-0.00236026 0.000486895 0)
(-0.00239189 0.000458979 0)
(-0.00242125 0.000430836 0)
(-0.00244827 0.000402507 0)
(-0.00247289 0.000374038 0)
(-0.00249503 0.000345473 0)
(-0.00251462 0.000316857 0)
(-0.00253158 0.000288233 0)
(-0.0025458 0.000259638 0)
(-0.00255719 0.000231107 0)
(-0.00256564 0.000202664 0)
(-0.00257102 0.000174324 0)
(-0.00257321 0.000146084 0)
(-0.00257205 0.00011792 0)
(-0.00256741 8.97822e-05 0)
(-0.00255915 6.15897e-05 0)
(-0.00254713 3.32226e-05 0)
(-0.00253122 4.52348e-06 0)
(-0.00251134 -2.46913e-05 0)
(-0.00248746 -5.4669e-05 0)
(-0.00245961 -8.56659e-05 0)
(-0.00242787 -0.000117951 0)
(-1.77453e-05 0.000714795 0)
(-7.95971e-05 0.00109488 0)
(-0.000161024 0.00115957 0)
(-0.000237507 0.00116563 0)
(-0.000315619 0.00116297 0)
(-0.000393318 0.00115851 0)
(-0.000470637 0.00115297 0)
(-0.00054755 0.00114642 0)
(-0.00062399 0.00113889 0)
(-0.000699887 0.00113038 0)
(-0.000775177 0.00112089 0)
(-0.000849794 0.00111043 0)
(-0.000923671 0.00109902 0)
(-0.000996745 0.00108666 0)
(-0.00106895 0.00107336 0)
(-0.00114023 0.00105915 0)
(-0.00121051 0.00104402 0)
(-0.00127974 0.001028 0)
(-0.00134786 0.0010111 0)
(-0.00141479 0.000993335 0)
(-0.0014805 0.000974723 0)
(-0.00154491 0.000955281 0)
(-0.00160797 0.000935029 0)
(-0.00166962 0.000913985 0)
(-0.00172981 0.00089217 0)
(-0.00178849 0.000869605 0)
(-0.00184559 0.000846314 0)
(-0.00190106 0.000822318 0)
(-0.00195486 0.000797644 0)
(-0.00200693 0.000772316 0)
(-0.00205721 0.000746361 0)
(-0.00210566 0.000719807 0)
(-0.00215223 0.000692683 0)
(-0.00219686 0.00066502 0)
(-0.0022395 0.00063685 0)
(-0.0022801 0.000608206 0)
(-0.00231861 0.000579123 0)
(-0.00235498 0.000549635 0)
(-0.00238915 0.000519782 0)
(-0.00242106 0.0004896 0)
(-0.00245065 0.000459129 0)
(-0.00247787 0.000428409 0)
(-0.00250264 0.000397481 0)
(-0.0025249 0.000366382 0)
(-0.00254456 0.000335153 0)
(-0.00256155 0.000303827 0)
(-0.00257578 0.000272436 0)
(-0.00258716 0.000241006 0)
(-0.00259557 0.000209553 0)
(-0.00260092 0.000178084 0)
(-0.00260308 0.000146588 0)
(-0.00260194 0.000115039 0)
(-0.00259739 8.33867e-05 0)
(-0.0025893 5.15552e-05 0)
(-0.00257759 1.94409e-05 0)
(-0.00256215 -1.30791e-05 0)
(-0.00254293 -4.61717e-05 0)
(-0.00251993 -8.00223e-05 0)
(-0.00249317 -0.000114829 0)
(-0.00246276 -0.000150793 0)
(-1.79593e-05 0.000762968 0)
(-8.06205e-05 0.00116862 0)
(-0.000163138 0.00123766 0)
(-0.00024064 0.00124411 0)
(-0.000319796 0.00124128 0)
(-0.000398533 0.00123651 0)
(-0.000476884 0.00123059 0)
(-0.000554824 0.0012236 0)
(-0.000632284 0.00121556 0)
(-0.000709194 0.00120647 0)
(-0.000785487 0.00119633 0)
(-0.000861098 0.00118516 0)
(-0.000935959 0.00117298 0)
(-0.00101001 0.00115977 0)
(-0.00108317 0.00114558 0)
(-0.0011554 0.00113039 0)
(-0.00122661 0.00111423 0)
(-0.00129676 0.00109712 0)
(-0.00136578 0.00107907 0)
(-0.0014336 0.00106009 0)
(-0.00150017 0.0010402 0)
(-0.00156543 0.00101943 0)
(-0.00162932 0.00099779 0)
(-0.00169178 0.000975301 0)
(-0.00175276 0.000951985 0)