/*--------------------------------*- C++ -*----------------------------------*\
  =========                 |
  \\      /  F ield         | OpenFOAM: The Open Source CFD Toolbox
   \\    /   O peration     | Website:  https://openfoam.org
    \\  /    A nd           | Version:  8
     \\/     M anipulation  |
\*---------------------------------------------------------------------------*/
FoamFile
{
    version     2.0;
    format      ascii;
    class       volScalarField;
    location    "58";
    object      p;
}
// * * * * * * * * * * * * * * * * * * * * * * * * * * * * * * * * * * * * * //

dimensions      [0 2 -2 0 0 0 0];

internalField   nonuniform List<scalar> 
12504
(
0.264785
0.261747
0.255363
0.245627
0.232819
0.217303
0.199481
0.179811
0.158807
0.137011
0.11496
0.0931578
0.0720452
0.05199
0.0332822
0.0161399
0.000720633
-0.0128674
-0.0245571
-0.0343171
-0.0421496
-0.0480899
-0.0522051
-0.054596
-0.055394
-0.0547628
-0.0528903
-0.0499921
-0.0462927
-0.0420364
-0.0374528
-0.0327849
-0.0282282
-0.0239934
-0.0201989
-0.0169983
-0.0143911
-0.0124663
-0.0110727
-0.0102583
-0.00970905
-0.00950244
-0.00917178
-0.00893985
-0.00820778
-0.00748625
-0.00603277
-0.0047508
-0.00273352
-0.00125887
0.266971
0.263865
0.257333
0.247374
0.23428
0.21843
0.200243
0.180196
0.158822
0.136685
0.114338
0.0922926
0.0709941
0.0508064
0.0320113
0.0148178
-0.000625223
-0.0142157
-0.0258903
-0.0356197
-0.0434066
-0.049286
-0.0533245
-0.0556224
-0.0563112
-0.0555562
-0.0535474
-0.0505043
-0.0466558
-0.0422519
-0.0375279
-0.0327334
-0.0280688
-0.0237512
-0.0199009
-0.0166761
-0.0140735
-0.012184
-0.0108467
-0.010111
-0.00964425
-0.00952838
-0.00926974
-0.00910393
-0.00839811
-0.00769533
-0.00620386
-0.00489336
-0.00280081
-0.00129377
0.2714
0.268151
0.261318
0.250905
0.237228
0.220696
0.201762
0.180944
0.158818
0.135988
0.113041
0.0905079
0.0688396
0.0483912
0.0294273
0.0121365
-0.00334952
-0.0169415
-0.0285835
-0.0382498
-0.045944
-0.0517002
-0.0555835
-0.057693
-0.0581605
-0.0571539
-0.0548682
-0.0515302
-0.0473782
-0.0426739
-0.0376642
-0.032612
-0.0277287
-0.0232431
-0.0192818
-0.0160099
-0.0134208
-0.0116066
-0.0103909
-0.00981886
-0.00952993
-0.00960047
-0.00949917
-0.00946566
-0.0088241
-0.00814365
-0.00659162
-0.00519862
-0.00296738
-0.00135658
0.278173
0.274702
0.267402
0.256288
0.241708
0.224118
0.204026
0.182012
0.158723
0.134826
0.110962
0.0876934
0.0654767
0.0446504
0.0254483
0.0080259
-0.00751335
-0.0210991
-0.0326862
-0.0422537
-0.0498055
-0.0553736
-0.0590198
-0.0608411
-0.0609694
-0.059576
-0.0568637
-0.0530708
-0.0484505
-0.0432822
-0.0378315
-0.0323818
-0.0271624
-0.0224207
-0.0182927
-0.0149551
-0.0123966
-0.0107102
-0.00969661
-0.00939285
-0.00939535
-0.00977032
-0.00992696
-0.0101082
-0.00957239
-0.00892769
-0.00727556
-0.00573809
-0.00327228
-0.00146793
0.28745
0.28367
0.275723
0.263632
0.247793
0.228725
0.207012
0.183327
0.158416
0.133043
0.107925
0.0836705
0.0607376
0.0394346
0.0199456
0.002375
-0.0132137
-0.0267755
-0.0382787
-0.0477068
-0.0550629
-0.060374
-0.0636963
-0.0651225
-0.0647837
-0.0628563
-0.059553
-0.0551289
-0.0498577
-0.0440444
-0.0379806
-0.0319798
-0.0262963
-0.0212044
-0.0168545
-0.0134394
-0.0109417
-0.00945622
-0.0087509
-0.00885095
-0.00929134
-0.0101222
-0.0106683
-0.0111704
-0.010794
-0.0101979
-0.00839623
-0.00662805
-0.00378915
-0.00165762
0.299456
0.295268
0.286469
0.273089
0.255583
0.234552
0.210684
0.184776
0.157717
0.130407
0.103672
0.0781781
0.0543802
0.0325319
0.0127386
-0.00497024
-0.0205851
-0.0340922
-0.0454737
-0.0547164
-0.061819
-0.0667995
-0.0697041
-0.0706181
-0.0696707
-0.0670436
-0.0629632
-0.057707
-0.0515764
-0.044911
-0.0380377
-0.0313108
-0.0250197
-0.0194758
-0.0148492
-0.0113552
-0.00896921
-0.00778811
-0.00753683
-0.00822265
-0.00929806
-0.0107867
-0.0118994
-0.0128675
-0.0127287
-0.0121968
-0.0101783
-0.00805325
-0.00463962
-0.00197165
0.314484
0.309775
0.299888
0.284857
0.265207
0.241642
0.214981
0.186193
0.156361
0.126581
0.0978306
0.0708487
0.0460706
0.0236558
0.00358697
-0.0142137
-0.0298062
-0.0432113
-0.0544238
-0.0634293
-0.0702163
-0.0747871
-0.0771713
-0.0774425
-0.0757248
-0.0722065
-0.0671313
-0.0608066
-0.053571
-0.0458096
-0.0378954
-0.0302375
-0.0231729
-0.0170636
-0.012107
-0.00854797
-0.00635478
-0.00562604
-0.00603217
-0.00755306
-0.00953442
-0.011957
-0.013881
-0.0155163
-0.0157324
-0.0152884
-0.0129624
-0.0102952
-0.00601264
-0.00248027
0.33291
0.327548
0.316301
0.299193
0.276833
0.250041
0.219805
0.187327
0.153962
0.121079
0.089873
0.0611735
0.0353594
0.0124301
-0.00782017
-0.0256182
-0.0411084
-0.0543458
-0.0653317
-0.0740435
-0.0804495
-0.0845259
-0.0862761
-0.085755
-0.0830779
-0.0784398
-0.0721073
-0.064428
-0.0557894
-0.0466365
-0.0374006
-0.028564
-0.0205294
-0.0137255
-0.00838754
-0.00479958
-0.00292285
-0.00285682
-0.00420504
-0.00690441
-0.0101667
-0.0139015
-0.0169798
-0.0195605
-0.020304
-0.0199855
-0.0172376
-0.0137634
-0.00818974
-0.00328725
0.355201
0.349032
0.336109
0.31642
0.290667
0.259797
0.225007
0.187815
0.149952
0.113193
0.0790474
0.0484476
0.0216462
-0.00163029
-0.0218755
-0.0395158
-0.0547882
-0.0677724
-0.078466
-0.0868255
-0.0927842
-0.096276
-0.0972645
-0.0957771
-0.0919129
-0.0858735
-0.0779576
-0.0685683
-0.0581581
-0.0472485
-0.0363409
-0.0260178
-0.0167739
-0.00912651
-0.0033599
0.000191437
0.00157128
0.000682262
-0.00199973
-0.0063436
-0.0113996
-0.0169601
-0.0216667
-0.0255685
-0.0270921
-0.026967
-0.0236605
-0.0190135
-0.0115639
-0.00453663
0.381935
0.374779
0.359815
0.336941
0.306969
0.270948
0.230351
0.187114
0.1435
0.101893
0.0642724
0.0316835
0.0041234
-0.0191494
-0.0390693
-0.0563193
-0.0712186
-0.0838476
-0.09418
-0.102133
-0.10758
-0.110392
-0.110474
-0.107814
-0.102484
-0.094689
-0.0847758
-0.0732231
-0.0605759
-0.0474565
-0.0344369
-0.0222388
-0.0114909
-0.0028253
0.00341168
0.00682432
0.00745924
0.00522747
0.000697911
-0.00589637
-0.0134144
-0.0214663
-0.0284321
-0.0341584
-0.0368213
-0.0370038
-0.0330003
-0.0267134
-0.0166244
-0.00640653
0.413812
0.405466
0.388047
0.361268
0.326065
0.283512
0.235456
0.184393
0.13336
0.0856768
0.0440059
0.00950859
-0.0182962
-0.0409372
-0.0600201
-0.0765413
-0.0908628
-0.103019
-0.112928
-0.120434
-0.125317
-0.12735
-0.126356
-0.122278
-0.115132
-0.105133
-0.0926966
-0.0784108
-0.0629348
-0.0470471
-0.031349
-0.0167908
-0.00418741
0.00569924
0.012446
0.0155841
0.0151637
0.0111165
0.00412173
-0.00544195
-0.0162177
-0.0275524
-0.0375426
-0.0457144
-0.0499881
-0.0506531
-0.0459337
-0.0375042
-0.0238791
-0.00908803
0.451672
0.441912
0.421578
0.390045
0.34838
0.297477
0.239723
0.178322
0.117561
0.0622708
0.0160547
-0.0199139
-0.0469927
-0.067996
-0.0854898
-0.100808
-0.114275
-0.125818
-0.135254
-0.142301
-0.146587
-0.147744
-0.145485
-0.139703
-0.130298
-0.117544
-0.10195
-0.0842078
-0.0651554
-0.0459505
-0.0268399
-0.00925855
0.00559677
0.0169188
0.0242182
0.0269404
0.0251405
0.0187885
0.00869734
-0.00456331
-0.0194056
-0.0348356
-0.0486783
-0.0599788
-0.0664112
-0.0677483
-0.0625908
-0.0516282
-0.0336207
-0.0127193
0.4965
0.48511
0.46136
0.424109
0.374476
0.312802
0.242263
0.166803
0.09286
0.0279836
-0.0228904
-0.059023
-0.0835452
-0.101356
-0.116242
-0.12974
-0.141986
-0.152738
-0.161659
-0.168266
-0.171957
-0.17215
-0.168429
-0.160702
-0.148552
-0.132398
-0.112874
-0.0908303
-0.0672655
-0.0432784
-0.0211134
0.00033334
0.0179201
0.0309093
0.0388183
0.0410361
0.0376295
0.028627
0.0149931
-0.00248404
-0.0219867
-0.0421324
-0.0605407
-0.0756563
-0.0849338
-0.0869953
-0.0820851
-0.0684642
-0.0455784
-0.0172601
0.549425
0.536241
0.50855
0.464554
0.405081
0.329415
0.241768
0.146713
0.0541832
-0.0232722
-0.0782543
-0.111363
-0.129679
-0.141713
-0.152568
-0.163461
-0.174027
-0.183778
-0.192151
-0.198371
-0.201513
-0.200759
-0.195261
-0.185552
-0.170239
-0.150133
-0.126008
-0.0989124
-0.0700966
-0.0410232
-0.0129632
0.0111796
0.0317226
0.046706
0.0553736
0.0571423
0.0521397
0.0404816
0.0232843
0.00154745
-0.0227171
-0.0477521
-0.0710469
-0.0904481
-0.103578
-0.109208
-0.102717
-0.0864131
-0.058745
-0.0223906
0.611696
0.596686
0.56456
0.512829
0.441061
0.347073
0.235873
0.112807
-0.00573617
-0.100223
-0.158101
-0.181931
-0.187127
-0.188876
-0.193391
-0.200482
-0.208771
-0.217328
-0.225203
-0.231182
-0.233998
-0.232637
-0.226653
-0.213648
-0.194998
-0.170825
-0.14187
-0.109414
-0.075035
-0.0405629
-0.00789444
0.0207771
0.0445076
0.0617113
0.0714685
0.0731106
0.0668844
0.0530356
0.0327986
0.00734423
-0.021163
-0.0506765
-0.0785842
-0.102131
-0.118972
-0.126092
-0.121354
-0.103329
-0.0716725
-0.0275945
0.684636
0.668006
0.631206
0.570949
0.483551
0.365108
0.219684
0.0538572
-0.0979778
-0.212216
-0.269138
-0.273729
-0.255394
-0.240136
-0.23455
-0.235826
-0.241012
-0.24831
-0.255981
-0.262202
-0.265322
-0.263941
-0.256355
-0.242022
-0.22098
-0.193441
-0.160295
-0.12306
-0.0836287
-0.0441817
-0.00693078
0.0258877
0.0527705
0.0722793
0.0833358
0.085416
0.0787025
0.0635824
0.0413482
0.0132741
-0.0183925
-0.0514404
-0.0831348
-0.110275
-0.130538
-0.139776
-0.136853
-0.117765
-0.0832424
-0.0324242
0.76952
0.751837
0.710962
0.641957
0.534882
0.382642
0.18459
-0.050012
-0.245279
-0.367631
-0.406838
-0.377062
-0.324707
-0.28653
-0.267337
-0.260961
-0.262661
-0.269031
-0.277063
-0.284228
-0.288389
-0.287648
-0.280664
-0.266465
-0.244627
-0.2154
-0.179772
-0.139416
-0.0964765
-0.0534032
-0.0126543
0.0234266
0.0529993
0.0745983
0.0872438
0.0903614
0.0841448
0.0690115
0.0461867
0.0169701
-0.0163926
-0.0516241
-0.0858366
-0.11563
-0.138559
-0.149779
-0.148568
-0.128987
-0.0928546
-0.036579
0.86721
0.849644
0.807095
0.730638
0.601023
0.401857
0.116747
-0.213586
-0.40374
-0.517638
-0.520786
-0.45228
-0.36834
-0.3126
-0.284896
-0.273663
-0.273339
-0.279174
-0.287432
-0.295357
-0.300636
-0.301388
-0.295956
-0.283134
-0.262252
-0.233444
-0.197651
-0.156574
-0.112465
-0.0679125
-0.0255225
0.012283
0.0435572
0.066799
0.0810699
0.0857737
0.0810165
0.0671403
0.0451981
0.0164611
-0.0169149
-0.0526566
-0.0877666
-0.11888
-0.143288
-0.155983
-0.156168
-0.136481
-0.100071
-0.0397339
0.97743
0.962206
0.923019
0.843639
0.694549
0.435691
0.0959808
-0.304529
-0.601311
-0.689428
-0.65214
-0.512797
-0.393886
-0.326469
-0.285295
-0.272933
-0.27288
-0.279196
-0.288039
-0.296751
-0.303205
-0.305555
-0.301898
-0.291084
-0.272329
-0.245622
-0.21178
-0.172406
-0.129698
-0.0861939
-0.0444586
-0.00684458
0.0247321
0.0488012
0.0643989
0.0709244
0.0682962
0.0567409
0.0370944
0.0105398
-0.0209618
-0.0552378
-0.0893158
-0.120042
-0.14445
-0.15786
-0.159028
-0.140567
-0.104284
-0.0413865
1.09786
1.08873
1.06015
0.988965
0.833364
0.544673
0.106016
-0.353507
-0.692673
-0.404561
-0.327848
-0.289429
-0.271578
-0.271172
-0.276541
-0.284631
-0.292907
-0.299422
-0.302487
-0.300009
-0.291189
-0.275094
-0.251589
-0.221335
-0.185744
-0.146792
-0.106778
-0.0680252
-0.0326597
-0.00243945
0.0212706
0.0375226
0.045673
0.0455114
0.0371282
0.0211298
-0.00147062
-0.0290093
-0.0596183
-0.0904437
-0.118727
-0.141433
-0.154464
-0.155827
-0.138481
-0.10412
-0.0408264
1.22355
1.22529
1.21533
1.1741
1.02301
0.706022
0.214428
-0.322095
-0.286713
-0.270022
-0.265727
-0.270063
-0.276979
-0.284277
-0.290216
-0.293081
-0.291916
-0.285095
-0.271973
-0.252418
-0.22696
-0.196764
-0.16348
-0.129022
-0.0953293
-0.0641752
-0.0370443
-0.0150979
0.000839139
0.0101347
0.0125395
0.00803158
-0.00301506
-0.0198499
-0.0411617
-0.0658892
-0.0909894
-0.114534
-0.133671
-0.144938
-0.14575
-0.130081
-0.0984642
-0.0374518
1.34697
1.36274
1.38319
1.38711
1.26551
0.955261
-0.283575
-0.262534
-0.256308
-0.259924
-0.265761
-0.272094
-0.277408
-0.280307
-0.279908
-0.275012
-0.265056
-0.249935
-0.230069
-0.206374
-0.180126
-0.152796
-0.125858
-0.100642
-0.0782468
-0.0594998
-0.0449651
-0.0351066
-0.0301458
-0.0301673
-0.0350393
-0.0444006
-0.0575522
-0.0735768
-0.0907163
-0.107251
-0.120898
-0.128848
-0.128382
-0.114465
-0.0867228
-0.0311712
1.45673
1.48869
1.54429
1.60361
1.53314
1.29331
-0.250391
-0.243828
-0.247122
-0.252286
-0.257888
-0.262665
-0.265547
-0.265896
-0.262921
-0.256227
-0.245786
-0.231949
-0.215405
-0.197076
-0.177981
-0.159094
-0.141227
-0.124973
-0.110686
-0.0985453
-0.0886652
-0.0811893
-0.0761943
-0.0738057
-0.0741369
-0.0771479
-0.0825453
-0.0895351
-0.0970319
-0.103434
-0.106652
-0.104126
-0.0920834
-0.0684993
-0.0230444
1.54057
1.58675
1.67532
1.78892
1.78911
1.66821
-0.240578
-0.229861
-0.23341
-0.238215
-0.243248
-0.247354
-0.250286
-0.251387
-0.25029
-0.246839
-0.241123
-0.233463
-0.224368
-0.214441
-0.204268
-0.194301
-0.184775
-0.175668
-0.166728
-0.157616
-0.148212
-0.138257
-0.127811
-0.117299
-0.107385
-0.0987806
-0.0920363
-0.0873136
-0.0843289
-0.0822362
-0.0796313
-0.0744975
-0.0642429
-0.0461275
-0.0136983
1.5873
1.64193
1.75058
1.89642
1.97159
-0.217124
-0.217179
-0.220879
-0.22515
-0.229248
-0.23295
-0.235731
-0.23747
-0.238128
-0.237792
-0.236684
-0.235126
-0.233486
-0.232082
-0.231085
-0.230426
-0.229719
-0.228261
-0.225083
-0.219123
-0.210619
-0.198152
-0.181931
-0.162741
-0.141848
-0.120792
-0.101079
-0.0838618
-0.0697312
-0.0585928
-0.0496896
-0.041725
-0.0331896
-0.0216949
-0.00396865
1.59036
1.6452
1.75434
1.90113
2.01423
-0.201368
-0.20754
-0.210849
-0.214233
-0.21737
-0.220165
-0.222597
-0.224814
-0.227055
-0.229632
-0.232893
-0.237177
-0.242729
-0.249609
-0.257596
-0.266106
-0.274134
-0.280292
-0.28287
-0.279662
-0.272275
-0.257098
-0.234902
-0.206857
-0.17484
-0.141238
-0.10854
-0.078898
-0.0537861
-0.0338278
-0.018874
-0.00830702
-0.0015495
0.00265077
0.00522596
1.5496
1.59635
1.6863
1.80248
1.90959
-0.196428
-0.20154
-0.203634
-0.205619
-0.20743
-0.209164
-0.21111
-0.213676
-0.217338
-0.222595
-0.229905
-0.23961
-0.251842
-0.266419
-0.282744
-0.299758
-0.315867
-0.329074
-0.337237
-0.338885
-0.329611
-0.311093
-0.28286
-0.2462
-0.203554
-0.158113
-0.11329
-0.0721655
-0.0370481
-0.009233
0.0108618
0.0233267
0.0280105
0.0248639
0.0132837
1.47137
1.50417
1.56181
1.62487
1.68398
1.62073
-0.198226
-0.198291
-0.198484
-0.198714
-0.199019
-0.199645
-0.201089
-0.203967
-0.208944
-0.21666
-0.227645
-0.242223
-0.260407
-0.281783
-0.305395
-0.329754
-0.352736
-0.37177
-0.384086
-0.387177
-0.377915
-0.356204
-0.322196
-0.277595
-0.22543
-0.169626
-0.114399
-0.0635994
-0.0202251
0.0138508
0.037683
0.0509852
0.053127
0.0432882
0.0198359
1.36666
1.38343
1.40625
1.41442
1.4224
1.26577
-0.199808
-0.195937
-0.194034
-0.192494
-0.191375
-0.191036
-0.192122
-0.1954
-0.201668
-0.211656
-0.225917
-0.244724
-0.267959
-0.294987
-0.32452
-0.354713
-0.382943
-0.406199
-0.421196
-0.424903
-0.414626
-0.389575
-0.350223
-0.298733
-0.238719
-0.174724
-0.111551
-0.053564
-0.0042693
0.0340262
0.059933
0.0729351
0.0721071
0.0567101
0.0238228
1.24761
1.25038
1.24285
1.20587
1.16908
0.861629
0.527887
-0.21109
-0.201919
-0.193244
-0.18922
-0.186127
-0.183861
-0.182854
-0.183851
-0.187716
-0.195324
-0.20743
-0.224558
-0.246894
-0.274167
-0.305531
-0.339444
-0.373652
-0.405277
-0.430944
-0.447051
-0.450318
-0.438209
-0.40979
-0.365821
-0.308894
-0.243124
-0.173517
-0.105261
-0.0429744
0.00957229
0.0498793
0.0762225
0.0880407
0.0841438
0.0647025
0.0259587
1.12558
1.11743
1.09109
1.02377
0.874182
0.657046
0.175301
-0.21675
-0.252074
-0.219497
-0.198238
-0.189645
-0.183704
-0.17938
-0.17634
-0.175029
-0.176267
-0.180956
-0.189975
-0.204046
-0.22361
-0.248728
-0.278954
-0.313239
-0.349824
-0.386216
-0.419292
-0.445496
-0.461115
-0.462847
-0.448315
-0.416745
-0.369216
-0.308699
-0.239668
-0.167371
-0.0971277
-0.0335348
0.019629
0.0599292
0.0854134
0.095672
0.0891639
0.0673552
0.0262457
1.00813
0.993766
0.956537
0.880404
0.73628
0.48445
0.150501
-0.325139
-0.559766
-0.44839
-0.320674
-0.258387
-0.212782
-0.195554
-0.184915
-0.177799
-0.172717
-0.169322
-0.168103
-0.169901
-0.175621
-0.186082
-0.201911
-0.223418
-0.250506
-0.282546
-0.318302
-0.355836
-0.392505
-0.425077
-0.449983
-0.463586
-0.462777
-0.445484
-0.41127
-0.361576
-0.299662
-0.23016
-0.158273
-0.0891639
-0.0271236
0.024272
0.0628966
0.0866883
0.0955527
0.0875262
0.0652157
0.0247989
0.900286
0.883443
0.842536
0.768705
0.643009
0.449094
0.170887
-0.151035
-0.430031
-0.55537
-0.512757
-0.40288
-0.290672
-0.238042
-0.210186
-0.192897
-0.181033
-0.17289
-0.167315
-0.163933
-0.163165
-0.165792
-0.172646
-0.184441
-0.201662
-0.224462
-0.252567
-0.285166
-0.320863
-0.357596
-0.392625
-0.422792
-0.44469
-0.454951
-0.45085
-0.43079
-0.394785
-0.344633
-0.283735
-0.216631
-0.14817
-0.0830623
-0.0250394
0.0226791
0.0584104
0.080079
0.0879967
0.0798844
0.0590334
0.0219618
0.804448
0.787362
0.747817
0.680907
0.57682
0.428513
0.235309
0.00667598
-0.182664
-0.299602
-0.334735
-0.302978
-0.250584
-0.212959
-0.191897
-0.179181
-0.17033
-0.164257
-0.160456
-0.158768
-0.159606
-0.163744
-0.171994
-0.184997
-0.203131
-0.226406
-0.254403
-0.286175
-0.320215
-0.354401
-0.385939
-0.412007
-0.429525
-0.435575
-0.427966
-0.40568
-0.369203
-0.320582
-0.263149
-0.201077
-0.138594
-0.0797458
-0.0275574
0.0152046
0.0473405
0.0668385
0.0743415
0.0674857
0.0497902
0.0182506
0.720985
0.704842
0.669096
0.610497
0.525369
0.409872
0.267951
0.10621
-0.0413862
-0.151382
-0.20467
-0.206858
-0.187296
-0.170908
-0.162521
-0.158119
-0.154917
-0.152703
-0.151847
-0.152684
-0.155739
-0.161746
-0.171444
-0.18538
-0.20382
-0.226654
-0.253364
-0.282954
-0.313915
-0.34422
-0.370773
-0.391679
-0.404235
-0.406039
-0.395541
-0.372288
-0.337117
-0.292123
-0.24032
-0.185297
-0.130507
-0.0792447
-0.0338361
0.00341834
0.0317308
0.0492573
0.0568015
0.0522275
0.0387532
0.0142159
0.649118
0.634501
0.603203
0.552777
0.482743
0.390967
0.282331
0.162177
0.0467464
-0.0446313
-0.0997454
-0.121452
-0.125083
-0.12523
-0.127209
-0.130184
-0.13287
-0.135405
-0.138486
-0.142695
-0.148583
-0.156781
-0.167918
-0.182446
-0.200555
-0.222074
-0.246465
-0.27276
-0.299588
-0.325884
-0.346356
-0.362077
-0.370091
-0.368597
-0.356626
-0.334129
-0.302086
-0.262416
-0.217651
-0.170685
-0.124209
-0.0808082
-0.0422358
-0.0103545
0.0142997
0.0301695
0.0380163
0.0362667
0.0273363
0.010226
0.587643
0.574771
0.54773
0.504753
0.446611
0.372611
0.286867
0.193929
0.103633
0.0283723
-0.0246205
-0.0560638
-0.0729944
-0.0836678
-0.0927698
-0.101189
-0.108667
-0.115457
-0.122221
-0.129571
-0.138026
-0.148102
-0.16029
-0.174941
-0.192173
-0.211783
-0.233258
-0.255631
-0.277547
-0.29705
-0.31503
-0.326733
-0.331389
-0.328047
-0.316146
-0.295851
-0.268107
-0.234513
-0.197079
-0.158035
-0.119446
-0.0832895
-0.0509333
-0.0238217
-0.00242063
0.0121426
0.0203679
0.0214165
0.01673
0.00654326
0.535293
0.524149
0.500907
0.464445
0.415834
0.35541
0.286284
0.212354
0.139983
0.0766239
0.0271232
-0.00784929
-0.0314228
-0.0484003
-0.0623918
-0.0748118
-0.0859372
-0.0960672
-0.10575
-0.115545
-0.125922
-0.1373
-0.150046
-0.164419
-0.180475
-0.198008
-0.216568
-0.235326
-0.253289
-0.269293
-0.282801
-0.291203
-0.293698
-0.289679
-0.27883
-0.261377
-0.238126
-0.210333
-0.179552
-0.147462
-0.115667
-0.0856519
-0.0585554
-0.0354134
-0.0167542
-0.00319258
0.00535131
0.00882853
0.00775673
0.00340242
0.490868
0.481299
0.461358
0.43043
0.389542
0.339568
0.282847
0.22253
0.162848
0.108559
0.0632066
0.0279068
0.00128121
-0.0194646
-0.0368485
-0.052204
-0.0660203
-0.0786347
-0.0905048
-0.102112
-0.113867
-0.126112
-0.139118
-0.153065
-0.167967
-0.183639
-0.199702
-0.215505
-0.230315
-0.243224
-0.253442
-0.259503
-0.260732
-0.256694
-0.247214
-0.232512
-0.213246
-0.190369
-0.165094
-0.138667
-0.112376
-0.0873012
-0.064452
-0.044486
-0.0280473
-0.0152646
-0.00648426
-0.00107422
0.000755968
0.000917905
0.453275
0.445074
0.427956
0.401633
0.36701
0.325135
0.277811
0.227488
0.17715
0.130058
0.0888222
0.0545522
0.0267317
0.0038096
-0.0158417
-0.0332831
-0.0490443
-0.0634804
-0.0769793
-0.0899409
-0.102711
-0.115565
-0.128705
-0.142252
-0.156193
-0.170368
-0.184463
-0.197974
-0.210325
-0.220808
-0.22872
-0.233192
-0.233687
-0.229874
-0.221675
-0.209281
-0.193232
-0.174248
-0.153294
-0.13129
-0.1093
-0.0880829
-0.0685614
-0.0510809
-0.0363842
-0.0242269
-0.0152637
-0.00841508
-0.004361
-0.000927213
0.421562
0.414515
0.399775
0.377236
0.347683
0.312137
0.272033
0.229261
0.186035
0.144686
0.107142
0.0743966
0.0464016
0.0223682
0.00130442
-0.0175654
-0.034721
-0.0504986
-0.0652226
-0.0792161
-0.0927597
-0.106074
-0.119308
-0.132542
-0.145748
-0.158788
-0.171399
-0.183193
-0.193705
-0.202398
-0.208729
-0.212116
-0.212154
-0.208606
-0.201458
-0.190878
-0.177314
-0.161315
-0.143666
-0.125047
-0.106352
-0.0881007
-0.0711378
-0.0555835
-0.0422213
-0.0305772
-0.0214633
-0.0136098
-0.00790591
-0.00223335
0.394914
0.388823
0.37606
0.356608
0.331144
0.300585
0.266094
0.229144
0.191419
0.154642
0.120273
0.0891877
0.0615863
0.0371344
0.0152642
-0.00455252
-0.0227005
-0.0394678
-0.0551171
-0.0699028
-0.084047
-0.0977229
-0.111042
-0.124054
-0.136723
-0.148928
-0.160449
-0.170985
-0.18016
-0.187565
-0.192782
-0.195411
-0.195155
-0.191855
-0.185536
-0.176348
-0.164672
-0.150934
-0.135786
-0.119735
-0.103542
-0.087557
-0.0725417
-0.0584749
-0.0461205
-0.0349054
-0.0256718
-0.0171502
-0.0102528
-0.00312392
0.372652
0.367344
0.356205
0.339253
0.317073
0.290459
0.260363
0.227945
0.194512
0.161383
0.129702
0.100238
0.0733126
0.0488569
0.0265847
0.0061668
-0.0126744
-0.0301643
-0.0465075
-0.0618995
-0.0765115
-0.0904765
-0.103876
-0.116738
-0.129022
-0.14062
-0.15135
-0.160967
-0.169172
-0.175648
-0.180079
-0.18218
-0.181742
-0.17866
-0.172987
-0.16486
-0.154611
-0.142582
-0.129321
-0.115216
-0.100917
-0.0866609
-0.0731206
-0.0602011
-0.0486047
-0.0377523
-0.0284316
-0.0194883
-0.0117688
-0.00371362
0.354218
0.349542
0.339721
0.324779
0.305221
0.281723
0.255071
0.226193
0.196126
0.165912
0.136475
0.108496
0.0823457
0.0581128
0.035698
0.0149249
-0.0043848
-0.0223926
-0.0392496
-0.0551013
-0.0700755
-0.0842709
-0.0977443
-0.110507
-0.122517
-0.133676
-0.14383
-0.152779
-0.16028
-0.166087
-0.169964
-0.1717
-0.171152
-0.168257
-0.163085
-0.155768
-0.1466
-0.135863
-0.124027
-0.111397
-0.098529
-0.0855893
-0.0731636
-0.061128
-0.0501028
-0.0395548
-0.0301778
-0.0209838
-0.0127023
-0.0040919
0.339157
0.334986
0.326217
0.312872
0.295386
0.274333
0.250369
0.224249
0.196816
0.168917
0.141324
0.11464
0.0892557
0.0653512
0.042951
0.0219919
0.00237841
-0.0159922
-0.0332237
-0.0494195
-0.0646706
-0.079047
-0.0925849
-0.105284
-0.117098
-0.12794
-0.137676
-0.146139
-0.153132
-0.158461
-0.161946
-0.16343
-0.162818
-0.160079
-0.155298
-0.148599
-0.140249
-0.130488
-0.119726
-0.10821
-0.0964208
-0.0844799
-0.0728938
-0.0615358
-0.0509418
-0.0406458
-0.0312403
-0.0219096
-0.0132561
-0.00432846
0.327107
0.32333
0.315386
0.303286
0.287409
0.268248
0.246354
0.222359
0.196962
0.170877
0.144762
0.119163
0.0944707
0.0709215
0.04862
0.0275836
0.00778278
-0.0108355
-0.0283348
-0.0447831
-0.0602418
-0.0747572
-0.0883488
-0.101006
-0.112683
-0.123296
-0.132731
-0.140843
-0.147473
-0.152462
-0.15567
-0.156981
-0.156337
-0.153727
-0.149246
-0.143015
-0.135279
-0.126251
-0.116291
-0.10561
-0.0946254
-0.0834345
-0.0724754
-0.0616311
-0.0513617
-0.0412706
-0.0318581
-0.0224613
-0.0135693
-0.00447195
0.317783
0.314305
0.306986
0.295829
0.281167
0.263428
0.243089
0.220689
0.196828
0.172123
0.147153
0.122419
0.0983097
0.0750909
0.0529193
0.0318689
0.0119592
-0.00682279
-0.0245081
-0.0411367
-0.0567465
-0.071365
-0.0849989
-0.0976296
-0.10921
-0.119662
-0.128883
-0.136748
-0.143121
-0.147871
-0.150888
-0.152083
-0.151424
-0.148917
-0.144662
-0.138778
-0.131495
-0.123005
-0.113632
-0.103563
-0.0931666
-0.0825265
-0.0720261
-0.0615624
-0.0515334
-0.0416032
-0.0321969
-0.022775
-0.0137365
-0.00455607
0.310969
0.307706
0.300836
0.290356
0.276564
0.259843
0.240614
0.219354
0.196593
0.172883
0.14875
0.124664
0.101005
0.0780574
0.0560106
0.0349758
0.0150076
-0.00387756
-0.0216863
-0.0384377
-0.0541522
-0.0688433
-0.082508
-0.0951223
-0.106638
-0.116981
-0.126056
-0.133753
-0.139951
-0.144539
-0.147429
-0.14855
-0.147886
-0.145456
-0.141363
-0.135725
-0.12876
-0.120647
-0.111686
-0.102045
-0.0920606
-0.0818069
-0.0716278
-0.061433
-0.0515746
-0.0417633
-0.0323689
-0.0229433
-0.0138192
-0.00460321
0.306509
0.303384
0.296806
0.286764
0.273532
0.257466
0.238952
0.218426
0.196377
0.173312
0.149727
0.12607
0.102717
0.079961
0.0580095
0.0369972
0.0170008
-0.00194404
-0.0198276
-0.036655
-0.0524352
-0.0671724
-0.0808571
-0.0934618
-0.104937
-0.115212
-0.124197
-0.131789
-0.137879
-0.142368
-0.14518
-0.146256
-0.145592
-0.143214
-0.139225
-0.133745
-0.126983
-0.11911
-0.11041
-0.101041
-0.0913179
-0.0813099
-0.0713348
-0.061312
-0.0515629
-0.0418305
-0.0324474
-0.0230265
-0.0138553
-0.00462802
0.304307
0.301247
0.294812
0.284985
0.272028
0.256283
0.238118
0.217952
0.196251
0.173504
0.15019
0.126747
0.103548
0.0808904
0.05899
0.0379923
0.0179849
-0.000987002
-0.0189057
-0.0357694
-0.0515812
-0.0663407
-0.0800352
-0.0926355
-0.104092
-0.114334
-0.123276
-0.130817
-0.136856
-0.141298
-0.144072
-0.145128
-0.144464
-0.142112
-0.138175
-0.132772
-0.126108
-0.118352
-0.109778
-0.100542
-0.090945
-0.0810574
-0.07118
-0.0612427
-0.0515449
-0.0418545
-0.0324748
-0.0230619
-0.0138661
-0.00463983
0.264784
0.26175
0.255365
0.245627
0.232819
0.217303
0.199481
0.179811
0.158806
0.13701
0.114959
0.0931567
0.0720442
0.0519892
0.0332816
0.0161394
0.000720217
-0.0128678
-0.0245575
-0.0343174
-0.0421499
-0.0480902
-0.0522053
-0.0545963
-0.0553941
-0.0547629
-0.0528903
-0.049992
-0.0462924
-0.0420361
-0.0374523
-0.0327845
-0.0282275
-0.0239931
-0.0201981
-0.0169983
-0.0143904
-0.0124669
-0.0110718
-0.0102599
-0.00970788
-0.0095052
-0.00916974
-0.0089441
-0.00820396
-0.00749243
-0.00602604
-0.00475989
-0.00272144
-0.00127118
0.26697
0.263869
0.257335
0.247374
0.23428
0.21843
0.200243
0.180195
0.158821
0.136684
0.114337
0.0922915
0.0709931
0.0508056
0.0320107
0.0148173
-0.000625641
-0.0142161
-0.0258907
-0.0356201
-0.0434069
-0.0492863
-0.0533248
-0.0556227
-0.0563114
-0.0555563
-0.0535474
-0.0505042
-0.0466555
-0.0422516
-0.0375274
-0.032733
-0.0280681
-0.0237509
-0.0199001
-0.0166761
-0.0140727
-0.0121847
-0.0108459
-0.0101125
-0.00964314
-0.00953115
-0.00926776
-0.00910817
-0.00839442
-0.0077013
-0.00619729
-0.00490238
-0.00278874
-0.00130601
0.271399
0.268155
0.26132
0.250905
0.237228
0.220696
0.201762
0.180943
0.158817
0.135987
0.11304
0.0905067
0.0688386
0.0483905
0.0294267
0.0121361
-0.00334992
-0.0169419
-0.0285839
-0.0382502
-0.0459444
-0.0517006
-0.0555838
-0.0576933
-0.0581608
-0.057154
-0.0548681
-0.05153
-0.0473779
-0.0426736
-0.0376637
-0.0326115
-0.0277279
-0.0232428
-0.019281
-0.0160099
-0.0134201
-0.0116073
-0.0103901
-0.00982054
-0.00952884
-0.00960345
-0.00949724
-0.00947019
-0.00882037
-0.00814999
-0.00658493
-0.00520798
-0.00295478
-0.001369
0.278172
0.274705
0.267405
0.256288
0.241708
0.224118
0.204026
0.182011
0.158721
0.134824
0.11096
0.0876919
0.0654756
0.0446497
0.0254479
0.00802552
-0.00751372
-0.0210995
-0.0326866
-0.0422541
-0.0498059
-0.055374
-0.0590202
-0.0608415
-0.0609696
-0.0595761
-0.0568636
-0.0530706
-0.0484501
-0.0432819
-0.0378309
-0.0323813
-0.0271616
-0.0224202
-0.0182918
-0.0149551
-0.0123957
-0.0107109
-0.00969573
-0.00939468
-0.00939427
-0.00977362
-0.009925
-0.0101131
-0.00956855
-0.00893454
-0.00726856
-0.00574804
-0.00325868
-0.00148077
0.287449
0.283674
0.275726
0.263633
0.247793
0.228725
0.207012
0.183326
0.158414
0.133041
0.107923
0.0836688
0.0607364
0.0394339
0.0199452
0.0023747
-0.013214
-0.0267759
-0.0382791
-0.0477073
-0.0550634
-0.0603745
-0.0636968
-0.0651229
-0.064784
-0.0628564
-0.0595529
-0.0551287
-0.0498574
-0.044044
-0.0379799
-0.0319792
-0.0262952
-0.0212038
-0.0168534
-0.0134393
-0.0109406
-0.00945696
-0.00874993
-0.00885298
-0.00929023
-0.0101259
-0.0106662
-0.0111758
-0.0107899
-0.0102056
-0.00838882
-0.00663881
-0.00377422
-0.00167111
0.299455
0.295273
0.286472
0.27309
0.255583
0.234552
0.210683
0.184775
0.157714
0.130404
0.103669
0.078176
0.054379
0.0325314
0.0127384
-0.00497043
-0.0205855
-0.0340927
-0.0454743
-0.054717
-0.0618196
-0.0668001
-0.0697047
-0.0706186
-0.069671
-0.0670437
-0.0629632
-0.0577068
-0.051576
-0.0449105
-0.0380368
-0.03131
-0.0250184
-0.019475
-0.0148479
-0.0113549
-0.00896798
-0.00778889
-0.00753576
-0.00822493
-0.00929689
-0.0107908
-0.0118971
-0.0128735
-0.0127244
-0.0122056
-0.0101704
-0.00806513
-0.00462296
-0.00198604
0.314483
0.30978
0.299892
0.284858
0.265208
0.241642
0.214979
0.18619
0.156358
0.126577
0.0978266
0.0708461
0.0460695
0.0236557
0.00358712
-0.0142137
-0.0298066
-0.0432119
-0.0544245
-0.0634301
-0.0702171
-0.0747879
-0.0771721
-0.0774431
-0.0757253
-0.0722068
-0.0671314
-0.0608064
-0.0535704
-0.0458089
-0.0378943
-0.0302365
-0.0231714
-0.0170627
-0.0121054
-0.00854756
-0.00635323
-0.0056267
-0.00603082
-0.00755543
-0.00953299
-0.0119614
-0.0138785
-0.015523
-0.0157277
-0.0152985
-0.0129537
-0.0103084
-0.00599374
-0.00249585
0.332908
0.327553
0.316305
0.299194
0.276833
0.250041
0.219804
0.187324
0.153956
0.121072
0.0898676
0.0611702
0.0353584
0.0124306
-0.00781934
-0.025618
-0.0411089
-0.0543465
-0.0653326
-0.0740445
-0.0804506
-0.084527
-0.0862771
-0.0857558
-0.0830785
-0.0784402
-0.0721074
-0.0644277
-0.0557887
-0.0466357
-0.0373994
-0.0285629
-0.0205277
-0.0137244
-0.00838559
-0.00479888
-0.00292075
-0.00285703
-0.00420294
-0.00690637
-0.0101645
-0.0139059
-0.0169768
-0.0195679
-0.0202988
-0.0199969
-0.0172278
-0.0137778
-0.00816814
-0.00330441
0.355199
0.349038
0.336114
0.316421
0.290668
0.259797
0.225005
0.187809
0.149943
0.113183
0.0790403
0.0484441
0.0216462
-0.00162827
-0.0218738
-0.0395156
-0.0547888
-0.0677733
-0.0784669
-0.0868266
-0.0927854
-0.0962773
-0.0972656
-0.0957781
-0.0919137
-0.0858741
-0.0779578
-0.0685682
-0.0581575
-0.0472479
-0.0363397
-0.0260168
-0.0167723
-0.00912541
-0.00335766
0.000192474
0.00157417
0.000682884
-0.0019962
-0.00634424
-0.0113956
-0.0169633
-0.0216623
-0.0255758
-0.0270858
-0.026979
-0.023649
-0.0190289
-0.0115395
-0.00455583
0.381933
0.374786
0.359822
0.336944
0.306971
0.270948
0.230346
0.187104
0.143486
0.101879
0.0642632
0.0316813
0.00412706
-0.0191441
-0.0390665
-0.0563192
-0.0712194
-0.0838484
-0.0941807
-0.102134
-0.107582
-0.110394
-0.110475
-0.107815
-0.102484
-0.0946896
-0.0847763
-0.0732238
-0.0605762
-0.0474567
-0.0344363
-0.0222385
-0.0114898
-0.00282472