/*--------------------------------*- C++ -*----------------------------------*\
  =========                 |
  \\      /  F ield         | OpenFOAM: The Open Source CFD Toolbox
   \\    /   O peration     | Website:  https://openfoam.org
    \\  /    A nd           | Version:  8
     \\/     M anipulation  |
\*---------------------------------------------------------------------------*/
FoamFile
{
    version     2.0;
    format      ascii;
    class       volScalarField;
    location    "43";
    object      p;
}
// * * * * * * * * * * * * * * * * * * * * * * * * * * * * * * * * * * * * * //

dimensions      [0 2 -2 0 0 0 0];

internalField   nonuniform List<scalar> 
11600
(
-2.70391e-07
-7.77015e-07
-3.82806e-07
4.13786e-07
1.82214e-06
3.79262e-06
6.31996e-06
9.40142e-06
1.30355e-05
1.72224e-05
2.19634e-05
2.72604e-05
3.31159e-05
3.95325e-05
4.65131e-05
5.40608e-05
6.21787e-05
7.08704e-05
8.01392e-05
8.9989e-05
0.000100423
0.000111446
0.00012306
0.000135269
0.000148078
0.000161489
0.000175505
0.00019013
0.000205367
0.000221218
0.000237686
0.000254771
0.000272476
0.000290802
0.000309748
0.000329313
0.000349497
0.000370297
0.00039171
0.000413731
0.000436356
0.000459576
0.000483384
0.000507769
0.000532718
0.000558218
0.00058425
0.000610791
0.000637816
0.000665289
0.000693163
0.000721373
0.000749821
0.000778336
0.000806582
0.000834211
0.000861741
0.000879714
0.000919771
0.000889687
1.95097e-07
-2.97963e-07
2.16123e-07
1.07378e-06
2.5178e-06
4.50615e-06
7.0409e-06
1.01254e-05
1.3761e-05
1.79491e-05
2.26912e-05
2.79894e-05
3.38459e-05
4.02636e-05
4.72452e-05
5.4794e-05
6.29132e-05
7.16061e-05
8.08762e-05
9.07272e-05
0.000101163
0.000112186
0.000123802
0.000136013
0.000148822
0.000162234
0.000176252
0.000190879
0.000206117
0.000221969
0.000238438
0.000255525
0.000273232
0.000291559
0.000310506
0.000330074
0.00035026
0.000371063
0.000392479
0.000414505
0.000437134
0.00046036
0.000484176
0.000508571
0.000533534
0.000559051
0.000585106
0.000611678
0.000638745
0.000666278
0.00069424
0.000722588
0.000751262
0.000780178
0.000809254
0.000838509
0.000867901
0.000895718
0.000934562
0.000957564
-2.38398e-07
-8.42662e-07
-3.21473e-07
5.28553e-07
1.97288e-06
3.96193e-06
6.49665e-06
9.58024e-06
1.32141e-05
1.73997e-05
2.21389e-05
2.74338e-05
3.32869e-05
3.97007e-05
4.66783e-05
5.42226e-05
6.23372e-05
7.10253e-05
8.02906e-05
9.01365e-05
0.000100567
0.000111585
0.000123196
0.000135401
0.000148206
0.000161614
0.000175627
0.00019025
0.000205484
0.000221334
0.0002378
0.000254886
0.000272592
0.000290919
0.000309868
0.000329438
0.000349629
0.000370437
0.000391861
0.000413896
0.000436538
0.000459779
0.000483613
0.000508031
0.000533021
0.000558571
0.000584666
0.000611289
0.000638419
0.000666032
0.000694099
0.000722584
0.000751442
0.00078062
0.00081008
0.000839857
0.000869931
0.000900238
0.000937022
0.000965559
-1.12714e-06
-1.78908e-06
-1.25157e-06
-3.99458e-07
1.05026e-06
3.04223e-06
5.57755e-06
8.65997e-06
1.22912e-05
1.64731e-05
2.12078e-05
2.64977e-05
3.23452e-05
3.8753e-05
4.57241e-05
5.32617e-05
6.13691e-05
7.00498e-05
7.93074e-05
8.91456e-05
9.95681e-05
0.000110579
0.000122181
0.000134379
0.000147177
0.000160577
0.000174584
0.000189201
0.00020443
0.000220275
0.000236738
0.000253822
0.000271527
0.000289855
0.000308807
0.000328382
0.000348579
0.000369396
0.000390832
0.000412883
0.000435544
0.000458809
0.000482672
0.000507124
0.000532156
0.000557757
0.000583915
0.000610615
0.000637842
0.000665581
0.000693816
0.000722533
0.000751726
0.000781404
0.000811621
0.000842495
0.000874212
0.000907364
0.000943773
0.000979719
-2.70099e-06
-3.39745e-06
-2.85595e-06
-2.00855e-06
-5.59997e-07
1.4298e-06
3.96192e-06
7.04015e-06
1.06662e-05
1.4842e-05
1.95696e-05
2.48516e-05
3.06905e-05
3.70891e-05
4.40504e-05
5.15778e-05
5.96744e-05
6.83439e-05
7.759e-05
8.74164e-05
9.7827e-05
0.000108826
0.000120416
0.000132603
0.000145389
0.000158779
0.000172776
0.000187384
0.000202606
0.000218444
0.000234902
0.000251983
0.000269686
0.000288015
0.00030697
0.00032655
0.000346757
0.000367587
0.000389039
0.000411111
0.000433797
0.000457093
0.000480994
0.00050549
0.000530576
0.00055624
0.000582472
0.000609261
0.000636596
0.000664466
0.000692861
0.000721777
0.000751219
0.000781208
0.0008118
0.000843095
0.000875276
0.000908796
0.000944181
0.000980479
-4.92008e-06
-5.6336e-06
-5.09195e-06
-4.24973e-06
-2.80424e-06
-8.18524e-07
1.70838e-06
4.78025e-06
8.39883e-06
1.2566e-05
1.72841e-05
2.25555e-05
2.83829e-05
3.47692e-05
4.17175e-05
4.92312e-05
5.73135e-05
6.59682e-05
7.5199e-05
8.50099e-05
9.54048e-05
0.000106388
0.000117963
0.000130134
0.000142906
0.000156282
0.000170266
0.000184862
0.000200073
0.000215903
0.000232354
0.00024943
0.000267131
0.000285461
0.000304419
0.000324007
0.000344224
0.00036507
0.000386543
0.00040864
0.000431358
0.000454693
0.000478639
0.00050319
0.000528338
0.000554076
0.000580395
0.000607286
0.000634739
0.000662749
0.000691309
0.000720422
0.0007501
0.000780368
0.000811282
0.000842928
0.000875447
0.000909062
0.00094388
0.000979723
-7.78117e-06
-8.50112e-06
-7.96099e-06
-7.12384e-06
-5.68295e-06
-3.70304e-06
-1.18323e-06
1.88019e-06
5.48899e-06
9.64515e-06
1.4351e-05
1.9609e-05
2.5422e-05
3.17929e-05
3.87248e-05
4.62212e-05
5.42856e-05
6.29217e-05
7.21335e-05
8.19249e-05
9.23001e-05
0.000103263
0.000114819
0.000126971
0.000139725
0.000153083
0.000167051
0.000181632
0.00019683
0.000212649
0.000229091
0.00024616
0.000263859
0.000282188
0.000301151
0.000320747
0.000340977
0.000361841
0.000383338
0.000405465
0.000428221
0.0004516
0.0004756
0.000500213
0.000525434
0.000551256
0.000577672
0.000604673
0.000632252
0.000660404
0.000689127
0.000718422
0.000748299
0.000778779
0.0008099
0.000841716
0.000874305
0.000907757
0.000942065
0.000977118
-1.1281e-05
-1.20029e-05
-1.14651e-05
-1.0633e-05
-9.19802e-06
-7.22554e-06
-4.71467e-06
-1.66175e-06
1.935e-06
6.07761e-06
1.07685e-05
1.60102e-05
2.18056e-05
2.81577e-05
3.50698e-05
4.25454e-05
5.0588e-05
5.92016e-05
6.83903e-05
7.81581e-05
8.85096e-05
9.94491e-05
0.000110981
0.00012311
0.000135841
0.000149178
0.000163126
0.000177689
0.000192871
0.000208676
0.000225107
0.000242168
0.000259862
0.000278191
0.000297157
0.000316762
0.000337007
0.000357891
0.000379415
0.000401577
0.000424375
0.000447805
0.000471865
0.000496549
0.000521851
0.000547766
0.000574287
0.000601406
0.000629119
0.000657418
0.0006863
0.000715767
0.000745822
0.000776477
0.000807751
0.000839669
0.000872258
0.000905531
0.000939431
0.000973829
-1.54156e-05
-1.61378e-05
-1.56029e-05
-1.47761e-05
-1.33481e-05
-1.13845e-05
-8.88441e-06
-5.84405e-06
-2.26166e-06
1.86485e-06
6.53796e-06
1.17603e-05
1.75349e-05
2.38648e-05
3.07534e-05
3.82043e-05
4.62212e-05
5.48082e-05
6.39696e-05
7.37096e-05
8.40329e-05
9.49442e-05
0.000106448
0.00011855
0.000131255
0.000144566
0.00015849
0.000173031
0.000188193
0.000203981
0.000220398
0.000237449
0.000255136
0.000273463
0.000292433
0.000312047
0.000332307
0.000353213
0.000374767
0.000396966
0.000419811
0.000443298
0.000467424
0.000492186
0.000517578
0.000543595
0.00057023
0.000597477
0.00062533
0.000653782
0.000682829
0.000712466
0.000742693
0.00077351
0.000804921
0.000836927
0.000869521
0.000902672
0.0009363
0.000970265
-2.01817e-05
-2.09037e-05
-2.03723e-05
-1.95511e-05
-1.81311e-05
-1.61779e-05
-1.36903e-05
-1.06646e-05
-7.09893e-06
-2.99116e-06
1.66129e-06
6.86119e-06
1.26116e-05
1.89156e-05
2.57769e-05
3.31991e-05
4.11861e-05
4.97422e-05
5.88718e-05
6.85794e-05
7.887e-05
8.97486e-05
0.00010122
0.00011329
0.000125963
0.000139245
0.000153141
0.000167655
0.000182794
0.000198561
0.00021496
0.000231998
0.000249676
0.000268
0.000286971
0.000306594
0.000326869
0.000347799
0.000369384
0.000391625
0.00041452
0.000438069
0.000462268
0.000487114
0.000512604
0.000538731
0.000565491
0.000592875
0.000620879
0.000649494
0.000678712
0.000708528
0.000738933
0.000769919
0.000801477
0.000833591
0.00086623
0.000899345
0.000932843
0.000966585
-2.55763e-05
-2.62979e-05
-2.57706e-05
-2.49557e-05
-2.35448e-05
-2.16033e-05
-1.913e-05
-1.61211e-05
-1.25746e-05
-8.48834e-06
-3.85957e-06
1.31456e-06
7.03717e-06
1.33116e-05
2.01416e-05
2.75308e-05
3.54836e-05
4.40041e-05
5.30972e-05
6.27677e-05
7.30207e-05
8.38615e-05
9.52955e-05
0.000107328
0.000119965
0.000133213
0.000147075
0.000161559
0.000176669
0.000192411
0.00020879
0.00022581
0.000243477
0.000261795
0.000280767
0.000300396
0.000320687
0.00034164
0.000363259
0.000385542
0.000408492
0.000432106
0.000456383
0.000481321
0.000506916
0.000533163
0.000560056
0.00058759
0.000615756
0.000644546
0.000673951
0.000703959
0.000734559
0.000765736
0.000797469
0.00082973
0.000862478
0.00089565
0.000929152
0.000962853
-3.15967e-05
-3.23178e-05
-3.1795e-05
-3.09872e-05
-2.95865e-05
-2.76582e-05
-2.52011e-05
-2.22112e-05
-1.86864e-05
-1.46244e-05
-1.00224e-05
-4.87748e-06
8.13661e-07
7.05452e-06
1.38489e-05
2.12008e-05
2.91146e-05
3.75948e-05
4.66465e-05
5.62747e-05
6.64849e-05
7.72826e-05
8.86737e-05
0.000100664
0.00011326
0.000126467
0.000140291
0.000154739
0.000169816
0.000185528
0.000201881
0.000218881
0.000236532
0.00025484
0.00027381
0.000293445
0.000313749
0.000334726
0.000356378
0.000378706
0.000401713
0.000425396
0.000449757
0.000474793
0.0005005
0.000526876
0.000553914
0.000581608
0.000609951
0.000638931
0.00066854
0.000698762
0.000729581
0.000760978
0.000792925
0.000825386
0.000858313
0.000891637
0.000925268
0.000959084
-3.82396e-05
-3.89602e-05
-3.84424e-05
-3.76425e-05
-3.62533e-05
-3.43397e-05
-3.19006e-05
-2.89319e-05
-2.54313e-05
-2.13966e-05
-1.68247e-05
-1.17126e-05
-6.0568e-06
1.46281e-07
6.90063e-06
1.42105e-05
2.20804e-05
3.05153e-05
3.95202e-05
4.91007e-05
5.92624e-05
7.00114e-05
8.13537e-05
9.32957e-05
0.000105844
0.000119005
0.000132785
0.000147191
0.000162229
0.000177906
0.000194229
0.000211203
0.000228834
0.000247129
0.000266093
0.000285731
0.000306047
0.000327046
0.000348731
0.000371104
0.000394169
0.000417925
0.000442374
0.000467513
0.000493341
0.000519854
0.000547048
0.000574915
0.000603449
0.000632638
0.00066247
0.000692931
0.000723999
0.000755652
0.000787858
0.000820577
0.000853755
0.000887325
0.000921197
0.000955263
-4.55017e-05
-4.62217e-05
-4.57095e-05
-4.49182e-05
-4.35416e-05
-4.16444e-05
-3.92253e-05
-3.628e-05
-3.28065e-05
-2.8802e-05
-2.42636e-05
-1.91881e-05
-1.35718e-05
-7.41085e-06
-7.01197e-07
6.56166e-06
1.43825e-05
2.27665e-05
3.17191e-05
4.1246e-05
5.13534e-05
6.20474e-05
7.33348e-05
8.52221e-05
9.77164e-05
0.000110825
0.000124554
0.000138912
0.000153905
0.000169541
0.000185827
0.000202769
0.000220376
0.000238652
0.000257606
0.000277243
0.000297568
0.000318586
0.000340303
0.000362722
0.000385846
0.000409677
0.000434216
0.000459464
0.000485418
0.000512078
0.000539438
0.000567492
0.000596232
0.000625649
0.000655728
0.000686454
0.000717804
0.000749753
0.000782267
0.000815302
0.000848805
0.000882708
0.000916926
0.000951358
-5.3379e-05
-5.40984e-05
-5.35923e-05
-5.28106e-05
-5.14478e-05
-4.95686e-05
-4.71715e-05
-4.42522e-05
-4.08084e-05
-3.68374e-05
-3.23361e-05
-2.7301e-05
-2.17284e-05
-1.56143e-05
-8.9543e-06
-1.74366e-06
6.02265e-06
1.435e-05
2.32443e-05
3.27114e-05
4.27579e-05
5.33905e-05
6.4616e-05
7.64418e-05
8.88752e-05
0.000101924
0.000115595
0.000129898
0.000144839
0.000160426
0.000176669
0.000193573
0.000211148
0.000229401
0.000248339
0.00026797
0.0002883
0.000309335
0.000331081
0.000353543
0.000376726
0.000400632
0.000425265
0.000450625
0.000476712
0.000503526
0.000531062
0.000559315
0.000588279
0.000617942
0.000648292
0.000679311
0.000710977
0.000743263
0.000776134
0.000809545
0.000843444
0.000877762
0.000912421
0.000947326
-6.18673e-05
-6.2586e-05
-6.20867e-05
-6.13153e-05
-5.99678e-05
-5.81083e-05
-5.57352e-05
-5.28444e-05
-4.94333e-05
-4.54992e-05
-4.10387e-05
-3.60482e-05
-3.05238e-05
-2.44613e-05
-1.78561e-05
-1.07032e-05
-2.99722e-06
5.26746e-06
1.40969e-05
2.34977e-05
3.34765e-05
4.40404e-05
5.51969e-05
6.69536e-05
7.93185e-05
9.22997e-05
0.000105906
0.000120145
0.000135026
0.000150557
0.000166748
0.000183608
0.000201144
0.000219366
0.000238282
0.0002579
0.000278229
0.000299276
0.000321048
0.00034355
0.00036679
0.000390771
0.000415498
0.000440974
0.000467199
0.000494173
0.000521894
0.000550359
0.000579561
0.00060949
0.000640134
0.000671475
0.000703491
0.000736155
0.000769432
0.000803278
0.000837639
0.000872453
0.000907641
0.000943115
-7.09619e-05
-7.168e-05
-7.1188e-05
-7.0428e-05
-6.90969e-05
-6.72589e-05
-6.49122e-05
-6.20524e-05
-5.86771e-05
-5.47832e-05
-5.03674e-05
-4.54258e-05
-3.99543e-05
-3.39485e-05
-2.74036e-05
-2.03142e-05
-1.26748e-05
-4.47929e-06
4.27868e-06
1.36059e-05
2.35096e-05
3.39973e-05
4.50768e-05
5.67563e-05
6.90443e-05
8.19496e-05
9.54811e-05
0.000109648
0.00012446
0.000139927
0.000156058
0.000172864
0.000190353
0.000208536
0.000227422
0.000247021
0.000267342
0.000288395
0.000310186
0.000332725
0.000356019
0.000380073
0.000404894
0.000430485
0.00045685
0.000483991
0.000511906
0.000540593
0.000570047
0.00060026
0.000631219
0.00066291
0.00069531
0.000728392
0.000762122
0.000796458
0.000831348
0.00086673
0.000902531
0.000938666
-8.06578e-05
-8.13752e-05
-8.08911e-05
-8.01434e-05
-7.88303e-05
-7.70155e-05
-7.46975e-05
-7.18715e-05
-6.85351e-05
-6.46851e-05
-6.0318e-05
-5.54298e-05
-5.00162e-05
-4.40724e-05
-3.75935e-05
-3.05737e-05
-2.30073e-05
-1.48879e-05
-6.20867e-06
3.03751e-06
1.28582e-05
2.32614e-05
3.42554e-05
4.58489e-05
5.8051e-05
7.08712e-05
8.4319e-05
9.84046e-05
0.000113138
0.00012853
0.000144592
0.000161333
0.000178766
0.0001969
0.000215747
0.000235318
0.000255624
0.000276674
0.000298478
0.000321047
0.000344389
0.000368513
0.000393425
0.000419131
0.000445638
0.000472948
0.000501063
0.000529981
0.0005597
0.000590213
0.000621509
0.000653575
0.000686389
0.000719928
0.000754157
0.000789036
0.000824516
0.000860538
0.000897029
0.00093391
-9.09494e-05
-9.1666e-05
-9.11905e-05
-9.04561e-05
-8.91624e-05
-8.73729e-05
-8.50858e-05
-8.22965e-05
-7.90024e-05
-7.52001e-05
-7.08859e-05
-6.60558e-05
-6.07051e-05
-5.4829e-05
-4.8422e-05
-4.14784e-05
-3.39918e-05
-2.59557e-05
-1.73629e-05
-8.20583e-06
1.52346e-06
1.18334e-05
2.27328e-05
3.42308e-05
4.63373e-05
5.90622e-05
7.2416e-05
8.64095e-05
0.000101054
0.000116361
0.000132341
0.000149008
0.000166373
0.000184448
0.000203245
0.000222778
0.000243057
0.000264095
0.000285904
0.000308495
0.000331878
0.000356064
0.000381063
0.000406882
0.00043353
0.00046101
0.000489328
0.000518484
0.000548477
0.000579304
0.000610956
0.000643419
0.000676678
0.000710708
0.000745479
0.000780952
0.00081708
0.000853806
0.000891063
0.000928772
-0.000101831
-0.000102546
-0.00010208
-0.00010136
-0.000100087
-9.83252e-05
-9.60715e-05
-9.33219e-05
-9.00734e-05
-8.63227e-05
-8.20659e-05
-7.72987e-05
-7.20164e-05
-6.62137e-05
-5.98851e-05
-5.30243e-05
-4.56248e-05
-3.76797e-05
-2.91814e-05
-2.0122e-05
-1.04931e-05
-2.85817e-07
1.05091e-05
2.19016e-05
3.39018e-05
4.65206e-05
5.97692e-05
7.36592e-05
8.82026e-05
0.000103412
0.0001193
0.00013588
0.000153164
0.000171168
0.000189903
0.000209385
0.000229626
0.000250641
0.000272442
0.000295045
0.00031846
0.000342701
0.000367779
0.000393705
0.000420489
0.000448139
0.00047666
0.000506058
0.000536333
0.000567484
0.000599506
0.000632389
0.000666117
0.000700671
0.000736022
0.000772135
0.000808966
0.00084646
0.000884553
0.000923169
-0.000113295
-0.00011401
-0.000113554
-0.000112849
-0.000111599
-0.000109866
-0.000107648
-0.000104941
-0.000101742
-9.80471e-05
-9.38523e-05
-8.91532e-05
-8.39448e-05
-7.82217e-05
-7.19779e-05
-6.52071e-05
-5.79023e-05
-5.00562e-05
-4.1661e-05
-3.27083e-05
-2.31894e-05
-1.30948e-05
-2.41478e-06
8.86113e-06
2.07438e-05
3.32448e-05
4.6376e-05
6.01499e-05
7.45795e-05
8.96782e-05
0.00010546
0.000121939
0.00013913
0.000157047
0.000175707
0.000195123
0.000215313
0.000236291
0.000258072
0.000280673
0.000304109
0.000328393
0.000353541
0.000379565
0.000406479
0.000434293
0.000463016
0.000492655
0.000523215
0.000554699
0.000587102
0.00062042
0.00065464
0.000689745
0.000725712
0.000762507
0.00080009
0.000838411
0.000877407
0.000917005
-0.000125335
-0.000126049
-0.000125604
-0.000124916
-0.00012369
-0.000121988
-0.00011981
-0.000117148
-0.000114002
-0.000110367
-0.000106239
-0.000101613
-9.64847e-05
-9.08474e-05
-8.46954e-05
-7.80219e-05
-7.08198e-05
-6.30813e-05
-5.47982e-05
-4.59619e-05
-3.6563e-05
-2.65918e-05
-1.60378e-05
-4.8901e-06
6.86288e-06
1.92333e-05
3.2234e-05
4.58782e-05
6.018e-05
7.51537e-05
9.08143e-05
0.000107177
0.000124259
0.000142075
0.000160642
0.000179978
0.0002001
0.000221025
0.000242771
0.000265355
0.000288796
0.00031311
0.000338314
0.000364425
0.000391459
0.000419428
0.000448346
0.000478223
0.000509068
0.000540886
0.000573678
0.000607443
0.000642172
0.000677853
0.000714465
0.000751981
0.000790362
0.000829563
0.000869524
0.000910177
-0.000137944
-0.000138657
-0.000138223
-0.000137553
-0.000136353
-0.000134685
-0.000132548
-0.000129936
-0.000126847
-0.000123276
-0.000119219
-0.000114672
-0.00010963
-0.000104085
-9.80319e-05
-9.14635e-05
-8.43723e-05
-7.67503e-05
-6.85889e-05
-5.9879e-05
-5.06109e-05
-4.07743e-05
-3.03582e-05
-1.93512e-05
-7.74091e-06
4.48546e-06
1.73415e-05
3.08414e-05
4.50001e-05
5.98331e-05
7.53564e-05
9.15869e-05
0.000108542
0.000126239
0.000144697
0.000163934
0.000183969
0.000204823
0.000226515
0.000249065
0.000272493
0.000296819
0.000322064
0.000348246
0.000375385
0.000403497
0.0004326
0.000462707
0.000493831
0.000525982
0.000559165
0.000593384
0.000628634
0.000664909
0.000702191
0.000740458
0.000779678
0.000819808
0.000860794
0.000902569
-0.000151113
-0.000151825
-0.000151403
-0.000150752
-0.00014958
-0.000147948
-0.000145855
-0.000143296
-0.000140267
-0.000136766
-0.000132786
-0.000128324
-0.000123373
-0.000117928
-0.000111981
-0.000105526
-9.85543e-05
-9.10581e-05
-8.30284e-05
-7.44555e-05
-6.53294e-05
-5.56393e-05
-4.53737e-05
-3.45205e-05
-2.30668e-05
-1.0999e-05
1.69721e-06
1.5037e-05
2.90362e-05
4.37114e-05
5.90798e-05
7.51595e-05
9.1969e-05
0.000109528
0.000127856
0.000146974
0.000166903
0.000187665
0.000209281
0.000231776
0.00025517
0.000279488
0.000304753
0.000330987
0.000358213
0.000386451
0.000415723
0.000446047
0.00047744
0.000509916
0.000543487
0.00057816
0.000613938
0.000650817
0.000688788
0.000727834
0.000767926
0.000809028
0.000851092
0.000894054
-0.000164833
-0.000165544
-0.000165135
-0.000164505
-0.000163362
-0.000161769
-0.000159723
-0.00015722
-0.000154257
-0.000150829
-0.000146931
-0.000142559
-0.000137707
-0.000132368
-0.000126536
-0.000120202
-0.000113359
-0.000105999
-9.81112e-05
-8.96865e-05
-8.07142e-05
-7.11832e-05
-6.10813e-05
-5.0396e-05
-3.91135e-05
-2.72197e-05
-1.46994e-05
-1.53663e-06
1.22854e-05
2.67844e-05
4.19787e-05
5.78876e-05
7.45313e-05
9.19305e-05
0.000110107
0.000129083
0.000148882
0.000169529
0.000191046
0.00021346
0.000236797
0.000261083
0.000286344
0.000312606
0.000339895
0.000368238
0.000397658
0.00042818
0.000459825
0.000492614
0.000526562
0.000561684
0.000597988
0.000635477
0.000674148
0.00071399
0.000754982
0.000797094
0.000840282
0.00088449
-0.000179095
-0.000179805
-0.00017941
-0.000178801
-0.00017769
-0.000176138
-0.000174143
-0.0001717
-0.000168806
-0.000165456
-0.000161646
-0.000157371
-0.000152624
-0.000147399
-0.000141688
-0.000135485
-0.000128781
-0.000121566
-0.000113831
-0.000105566
-9.67603e-05
-8.74014e-05
-7.74773e-05
-6.69744e-05
-5.58788e-05
-4.41754e-05
-3.18482e-05
-1.88805e-05
-5.25449e-06
9.04848e-06
2.4048e-05
3.97647e-05
5.622e-05
7.34363e-05
9.14371e-05
0.000110247
0.00012989
0.000150394
0.000171786
0.000194093
0.000217344
0.000241569
0.000266797
0.000293059
0.000320384
0.000348804
0.000378347
0.000409042
0.000440916
0.000473996
0.000508305
0.000543862
0.000580683
0.000618778
0.000658152
0.000698801
0.000740712
0.000783861
0.000828214
0.00087372
-0.000193889
-0.000194598
-0.000194218
-0.000193632
-0.000192555
-0.000191046
-0.000189105
-0.000186725
-0.000183905
-0.000180638
-0.000176922
-0.000172749
-0.000168114
-0.000163011
-0.000157431
-0.000151367
-0.000144811
-0.000137752
-0.000130182
-0.000122089
-0.000113462
-0.000104289
-9.45569e-05
-8.42521e-05
-7.33596e-05
-6.18638e-05
-4.9748e-05
-3.69946e-05
-2.35848e-05
-9.49896e-06
5.28363e-06
2.07848e-05
3.70274e-05
5.40355e-05
7.18342e-05
9.04497e-05
0.000109909
0.000130242
0.000151477
0.000173645
0.000196779
0.000220911
0.000246074
0.000272302
0.00029963
0.000328094
0.000357726
0.000388563
0.000420637
0.000453981
0.000488624
0.000524595
0.000561915
0.000600604
0.000640674
0.00068213
0.000724968
0.000769175
0.000814723
0.00086157
-0.000209204
-0.000209912
-0.000209548
-0.000208986
-0.000207944
-0.000206482
-0.000204598
-0.000202286
-0.000199543
-0.000196366
-0.000192748
-0.000188684
-0.000184169
-0.000179195
-0.000173754
-0.000167839
-0.000161441
-0.000154549
-0.000147155
-0.000139246
-0.000130812
-0.000121839
-0.000112315
-0.000102224
-9.1552e-05
-8.0282e-05
-6.83967e-05
-5.58778e-05
-4.27056e-05
-2.88595e-05
-1.43176e-05
9.43192e-07
1.69471e-05
3.37195e-05
5.12875e-05
6.9679e-05
8.89237e-05
0.000109052
0.000130098
0.000152093
0.000175073
0.000199075
0.000224135
0.000250291
0.000277583
0.000306051
0.000335735
0.000366675
0.000398911
0.000432482
0.000467426
0.000503778
0.00054157
0.000580829
0.000621577
0.00066383
0.000707594
0.000752866
0.000799628
0.00084785
-0.000225029
-0.000225736
-0.000225389
-0.000224853
-0.000223849
-0.000222436
-0.000220612
-0.000218371
-0.000215711
-0.000212627
-0.000209114
-0.000205167
-0.000200778
-0.000195941
-0.000190648
-0.000184892
-0.000178661
-0.000171948
-0.000164742
-0.000157031
-0.000148803
-0.000140045
-0.000130744
-0.000120885
-0.000110451
-9.94255e-05
-8.77911e-05
-7.5528e-05
-6.2616e-05
-4.90335e-05
-3.47574e-05
-1.97636e-05
-4.0265e-06
1.2481e-05
2.97873e-05
4.79225e-05
6.69182e-05
8.68079e-05
0.000107626
0.00012941
0.000152197
0.000176027
0.000200941
0.000226982
0.000254193
0.00028262
0.000312308
0.000343305
0.000375657
0.00040941
0.000444611
0.000481303
0.000519527
0.000559321
0.000600718
0.000643745
0.000688419
0.00073475
0.000782733
0.000832349
-0.000241353
-0.000242059
-0.000241729
-0.00024122
-0.000240256
-0.000238894
-0.000237134
-0.000234969
-0.000232396
-0.000229412
-0.00022601
-0.000222185
-0.00021793
-0.000213239
-0.000208103
-0.000202514
-0.000196463
-0.00018994
-0.000182934
-0.000175433
-0.000167426
-0.000158899
-0.000149838
-0.000140227
-0.00013005
-0.000119289
-0.000107926
-9.59417e-05
-8.33137e-05
-7.00198e-05
-5.60363e-05
-4.13376e-05
-2.5897e-05
-9.68604e-06
7.32553e-06
2.51696e-05
4.38798e-05
6.34918e-05
8.4043e-05
0.000105573
0.000128122
0.000151735
0.000176456
0.000202331
0.00022941
0.000257744
0.000287383
0.000318382
0.000350795
0.000384675
0.000420078
0.000457056
0.000495662
0.000535943
0.000577945
0.000621707
0.000667261
0.00071463
0.000763823
0.000814837
-0.000258162
-0.000258866
-0.000258555
-0.000258075
-0.000257153
-0.000255846
-0.000254153
-0.000252067
-0.000249587
-0.000246707
-0.000243422
-0.000239726
-0.000235613
-0.000231075
-0.000226106
-0.000220695
-0.000214834
-0.000208512
-0.000201719
-0.000194443
-0.000186672
-0.000178391
-0.000169586
-0.000160242
-0.000150341
-0.000139866
-0.000128797
-0.000117114
-0.000104795
-9.1816e-05
-7.8153e-05
-6.37792e-05
-4.86667e-05
-3.27855e-05
-1.6104e-05
1.41158e-06
1.97969e-05
3.90897e-05
5.933e-05
8.05599e-05
0.000102824
0.000126168
0.000150642
0.000176297
0.000203187
0.000231367
0.000260896
0.000291835
0.000324243
0.000358185
0.000393724
0.000430923
0.000469844
0.00051055
0.000553098
0.000597541
0.000643927
0.000692293
0.000742668
0.000795064
-0.000275443
-0.000276146
-0.000275854
-0.000275405
-0.000274527
-0.000273277
-0.000271654
-0.000269653
-0.000267269
-0.000264499
-0.000261337
-0.000257778
-0.000253814
-0.000249439
-0.000244645
-0.000239422
-0.000233762
-0.000227654
-0.000221088
-0.00021405
-0.000206529
-0.000198511
-0.00018998
-0.000180921
-0.000171316
-0.000161148
-0.000150395
-0.000139038
-0.000127054
-0.000114418
-0.000101104
-8.70869e-05
-7.23356e-05
-5.68195e-05
-4.05054e-05
-2.3358e-05
-5.33974e-06
1.35894e-05
3.34716e-05
5.43517e-05
7.62771e-05
9.9298e-05
0.000123467
0.00014884
0.000175476
0.000203437
0.000232786
0.00026359
0.00029592
0.000329847
0.000365443
0.000402784
0.000441943
0.000482995
0.000526011
0.000571062
0.000618211
0.000667514
0.000719019
0.00077276
-0.000293182
-0.000293884
-0.000293613
-0.000293195
-0.000292363
-0.000291174
-0.000289625
-0.000287712
-0.00028543
-0.000282775
-0.000279743
-0.000276327
-0.000272521
-0.000268317
-0.000263707
-0.000258683
-0.000253235
-0.000247353
-0.000241026
-0.000234241
-0.000226986
-0.000219247
-0.000211008
-0.000202253
-0.000192965
-0.000183124
-0.000172712
-0.000161706
-0.000150083
-0.000137818
-0.000124886
-0.000111257
-9.69016e-05
-8.17876e-05
-6.58805e-05
-4.91432e-05
-3.15366e-05
-1.30188e-05
6.45481e-06
2.69315e-05
4.84617e-05
7.10987e-05
9.48992e-05
0.000119923
0.000146235
0.000173901
0.000202991
0.000233581
0.000265747
0.00029957
0.000335133
0.000372522
0.000411823
0.000453124
0.000496514
0.000542078
0.000589899
0.000640055
0.000692613
0.000747633
-0.000311365
-0.000312065
-0.000311815
-0.000311431
-0.000310648
-0.000309522
-0.000308051
-0.000306229
-0.000304054
-0.000301521
-0.000298624
-0.000295359
-0.000291717
-0.000287693
-0.000283278
-0.000278463
-0.000273238
-0.000267595
-0.00026152
-0.000255002
-0.000248029
-0.000240585
-0.000232656
-0.000224225
-0.000215274
-0.000205785
-0.000195737
-0.000185107
-0.000173874
-0.00016201
-0.000149489
-0.000136283
-0.00012236
-0.000107687
-9.22281e-05
-7.59452e-05
-5.87974e-05
-4.07412e-05
-2.17299e-05
-1.71379e-06
1.93601e-05
4.15484e-05
6.49114e-05
8.95134e-05
0.000115423
0.000142712
0.000171458
0.000201741
0.000233647
0.000267266
0.000302691
0.000340018
0.000379349
0.000420785
0.000464431
0.000510392
0.000558769
0.000609665
0.00066317
0.000719371
-0.000329976
-0.000330674
-0.000330447
-0.000330098
-0.000329365
-0.000328305
-0.000326915
-0.00032519
-0.000323126
-0.00032072
-0.000317966
-0.000314857
-0.000311389
-0.000307553
-0.000303342
-0.000298746
-0.000293757
-0.000288364
-0.000282555
-0.000276319
-0.000269643
-0.000262512
-0.000254911
-0.000246824
-0.000238232
-0.000229117
-0.000219457
-0.000209231
-0.000198414
-0.000186982
-0.000174906
-0.000162158
-0.000148704
-0.000134512
-0.000119544
-0.000103762
-8.71225e-05
-6.95808e-05
-5.10884e-05
-3.15936e-05
-1.10409e-05
1.06294e-05
3.34808e-05
5.75816e-05
8.30046e-05
0.000109827
0.000138133
0.000168009
0.000199548
0.00023285
0.000268017
0.000305159
0.000344389
0.000385825
0.000429588
0.000475803
0.000524594
0.000576085
0.000630398
0.000687647
-0.000348999
-0.000349696
-0.000349493
-0.00034918
-0.0003485
-0.000347508
-0.000346203
-0.000344578
-0.000342631
-0.000340357
-0.000337751
-0.000334807
-0.000331519
-0.00032788
-0.000323883
-0.000319517
-0.000314774
-0.000309644
-0.000304115
-0.000298176
-0.000291813
-0.000285012
-0.000277758
-0.000270034
-0.000261822
-0.000253103
-0.000243857
-0.000234061
-0.000223691
-0.000212721
-0.000201124
-0.000188869
-0.000175924
-0.000162254
-0.000147822
-0.000132588
-0.000116508
-9.95365e-05
-8.16226e-05
-6.2713e-05
-4.27499e-05
-2.16712e-05
5.89698e-07
2.41047e-05
4.89506e-05
7.521e-05
0.000102971
0.000132329
0.000163383
0.000196242
0.000231018
0.000267833
0.000306814
0.000348093
0.000391811
0.00043811
0.000487141
0.000539052
0.000593994
0.000652115
-0.000368418
-0.000369113
-0.000368934
-0.000368659
-0.000368034
-0.000367114
-0.000365897
-0.000364377
-0.000362551
-0.000360414
-0.000357963
-0.000355191
-0.000352092
-0.000348658
-0.000344883
-0.000340758
-0.000336273
-0.000331418
-0.000326183
-0.000320554
-0.00031452
-0.000308067
-0.000301178
-0.000293837
-0.000286027
-0.000277729
-0.000268922
-0.000259583
-0.000249688
-0.000239213
-0.000228127
-0.000216402
-0.000204005
-0.0001909
-0.00017705
-0.000162414
-0.000146947
-0.000130603
-0.000113329
-9.50717e-05
-7.57702e-05
-5.53607e-05
-3.37737e-05
-1.09345e-05
1.32375e-05
3.88292e-05
6.59342e-05
9.46528e-05
0.000125093
0.00015737
0.000191608
0.000227938
0.000266501
0.000307446
0.000350929
0.000397116
0.00044618
0.000498297
0.000553649
0.000612419
-0.000388215
-0.000388909
-0.000388755
-0.000388519
-0.000387951
-0.000387106
-0.00038598
-0.000384568
-0.000382868
-0.000380875
-0.000378584
-0.00037599
-0.000373087
-0.000369868
-0.000366325
-0.000362451
-0.000358235
-0.000353668
-0.000348739
-0.000343436
-0.000337747
-0.000331657
-0.000325152
-0.000318215
-0.000310829
-0.000302975
-0.000294631
-0.000285777
-0.000276388
-0.000266438
-0.000255899
-0.000244742
-0.000232932
-0.000220436
-0.000207215
-0.000193227
-0.000178428
-0.00016277
-0.000146201
-0.000128664
-0.000110099
-9.04398e-05
-6.96145e-05
-4.75459e-05
-2.41503e-05
6.62891e-07
2.69917e-05
5.49421e-05
8.46283e-05
0.000116173
0.00014971
0.000185381
0.000223338
0.000263747
0.000306783
0.00035263
0.000401486
0.000453555
0.000509053
0.000568199
-0.000408372
-0.000409064
-0.000408937
-0.000408742
-0.000408233
-0.000407464
-0.000406433
-0.000405134
-0.000403564
-0.00040172
-0.000399596
-0.000397187
-0.000394488
-0.000391491
-0.00038819
-0.000384576
-0.00038064
-0.000376373
-0.000371764
-0.000366801
-0.000361472
-0.000355764
-0.000349661
-0.000343147
-0.000336206
-0.000328819
-0.000320965
-0.000312622
-0.000303768
-0.000294376
-0.000284419
-0.000273866
-0.000262685
-0.000250841
-0.000238296
-0.000225008
-0.000210933
-0.000196022
-0.000180223
-0.000163479
-0.000145728
-0.000126903
-0.00010693
-8.57313e-05
-6.32198e-05
-3.9302e-05
-1.38762e-05
1.31679e-05
4.19503e-05
7.26006e-05
0.000105259
0.000140079
0.000177226
0.000216876
0.000259223
0.000304472
0.000352843
0.00040457
0.0004599
0.000519092
-0.000428871
-0.000429562
-0.000429461
-0.000429308
-0.000428861
-0.000428171
-0.000427238
-0.000426055
-0.00042462
-0.000422929
-0.000420978
-0.000418761
-0.000416273
-0.000413507
-0.000410456
-0.000407113
-0.000403468
-0.000399512
-0.000395236
-0.000390627
-0.000385674
-0.000380364
-0.000374681
-0.000368611
-0.000362136
-0.000355239
-0.000347899
-0.000340096
-0.000331806
-0.000323004
-0.000313662
-0.000303752
-0.00029324
-0.000282093
-0.000270272
-0.000257736
-0.000244441
-0.000230339
-0.000215377
-0.000199498
-0.00018264
-0.000164736
-0.00014571
-0.000125484
-0.000103968
-8.10679e-05
-5.66786e-05
-3.06862e-05