/*--------------------------------*- C++ -*----------------------------------*\
  =========                 |
  \\      /  F ield         | OpenFOAM: The Open Source CFD Toolbox
   \\    /   O peration     | Website:  https://openfoam.org
    \\  /    A nd           | Version:  8
     \\/     M anipulation  |
\*---------------------------------------------------------------------------*/
FoamFile
{
    version     2.0;
    format      ascii;
    class       surfaceScalarField;
    location    "43";
    object      phi;
}
// * * * * * * * * * * * * * * * * * * * * * * * * * * * * * * * * * * * * * //

dimensions      [0 3 -1 0 0 0 0];

internalField   nonuniform List<scalar> 
22960
(
-2.23869e-07
2.24139e-07
-8.12789e-07
5.8892e-07
-1.55828e-06
7.45488e-07
-2.36255e-06
8.04273e-07
-3.18254e-06
8.19987e-07
-4.0048e-06
8.22259e-07
-4.82703e-06
8.22231e-07
-5.6496e-06
8.22572e-07
-6.47318e-06
8.23583e-07
-7.29829e-06
8.25108e-07
-8.12528e-06
8.26991e-07
-8.95442e-06
8.29137e-07
-9.78591e-06
8.31491e-07
-1.06199e-05
8.34021e-07
-1.14566e-05
8.36703e-07
-1.22962e-05
8.39518e-07
-1.31386e-05
8.42445e-07
-1.39841e-05
8.45467e-07
-1.48326e-05
8.48562e-07
-1.56843e-05
8.51711e-07
-1.65392e-05
8.54892e-07
-1.73973e-05
8.5808e-07
-1.82586e-05
8.61252e-07
-1.91229e-05
8.64382e-07
-1.99904e-05
8.67442e-07
-2.08608e-05
8.70405e-07
-2.1734e-05
8.73241e-07
-2.26099e-05
8.75919e-07
-2.34884e-05
8.7841e-07
-2.4369e-05
8.80681e-07
-2.52517e-05
8.82702e-07
-2.61362e-05
8.84442e-07
-2.70221e-05
8.85871e-07
-2.7909e-05
8.86963e-07
-2.87967e-05
8.87693e-07
-2.96848e-05
8.88043e-07
-3.05728e-05
8.87999e-07
-3.14603e-05
8.87556e-07
-3.2347e-05
8.8672e-07
-3.32325e-05
8.85512e-07
-3.41165e-05
8.8397e-07
-3.49987e-05
8.82154e-07
-3.58788e-05
8.80156e-07
-3.67569e-05
8.78099e-07
-3.76331e-05
8.76147e-07
-3.85076e-05
8.74512e-07
-3.9381e-05
8.73438e-07
-4.02542e-05
8.73185e-07
-4.11281e-05
8.73927e-07
-4.20037e-05
8.75545e-07
-4.28808e-05
8.77148e-07
-4.37571e-05
8.76305e-07
-4.46253e-05
8.68217e-07
-4.54712e-05
8.45843e-07
-4.62825e-05
8.11359e-07
-4.71419e-05
8.59381e-07
-4.84946e-05
1.35269e-06
-5.12434e-05
2.74879e-06
-6.18718e-05
1.06284e-05
2.54072e-05
-8.7279e-05
-6.00346e-07
8.24485e-07
-1.7912e-06
1.77977e-06
-3.24684e-06
2.20113e-06
-4.8114e-06
2.36883e-06
-6.41529e-06
2.42388e-06
-8.03213e-06
2.4391e-06
-9.65332e-06
2.44343e-06
-1.12766e-05
2.4459e-06
-1.29018e-05
2.44872e-06
-1.45289e-05
2.45222e-06
-1.61582e-05
2.45631e-06
-1.77899e-05
2.46087e-06
-1.94243e-05
2.46582e-06
-2.10613e-05
2.47109e-06
-2.27013e-05
2.47664e-06
-2.43442e-05
2.4824e-06
-2.599e-05
2.48833e-06
-2.7639e-05
2.49438e-06
-2.92909e-05
2.5005e-06
-3.09458e-05
2.50663e-06
-3.26036e-05
2.51271e-06
-3.42642e-05
2.51868e-06
-3.59275e-05
2.52449e-06
-3.75931e-05
2.53005e-06
-3.9261e-05
2.53531e-06
-4.09308e-05
2.54019e-06
-4.26022e-05
2.54462e-06
-4.42748e-05
2.54851e-06
-4.59482e-05
2.55181e-06
-4.76219e-05
2.55442e-06
-4.92955e-05
2.55629e-06
-5.09684e-05
2.55734e-06
-5.264e-05
2.55751e-06
-5.43098e-05
2.55675e-06
-5.59771e-05
2.55503e-06
-5.76414e-05
2.55232e-06
-5.93021e-05
2.54864e-06
-6.09585e-05
2.54402e-06
-6.26104e-05
2.53855e-06
-6.42572e-05
2.53238e-06
-6.5899e-05
2.52571e-06
-6.75357e-05
2.51885e-06
-6.91678e-05
2.51225e-06
-7.07962e-05
2.5065e-06
-7.24224e-05
2.50241e-06
-7.4049e-05
2.50108e-06
-7.56795e-05
2.50398e-06
-7.73194e-05
2.51307e-06
-7.89765e-05
2.53098e-06
-8.06622e-05
2.56127e-06
-8.2394e-05
2.60893e-06
-8.41994e-05
2.68171e-06
-8.61249e-05
2.79378e-06
-8.82562e-05
2.97714e-06
-9.07631e-05
3.31818e-06
-9.39642e-05
4.06052e-06
-9.83671e-05
5.75557e-06
-0.000104963
9.34453e-06
-0.000113374
1.90396e-05
3.25868e-05
-0.000120554
-7.7264e-07
1.59712e-06
-2.24842e-06
3.25556e-06
-4.03514e-06
3.98785e-06
-5.94658e-06
4.28027e-06
-7.90357e-06
4.38087e-06
-9.87601e-06
4.41153e-06
-1.18537e-05
4.42111e-06
-1.38336e-05
4.42585e-06
-1.58152e-05
4.43024e-06
-1.77982e-05
4.43523e-06
-1.97827e-05
4.44087e-06
-2.17689e-05
4.44707e-06
-2.37568e-05
4.45373e-06
-2.57465e-05
4.46075e-06
-2.77379e-05
4.46805e-06
-2.97311e-05
4.47555e-06
-3.17259e-05
4.48317e-06
-3.37223e-05
4.49082e-06
-3.57203e-05
4.49842e-06
-3.77195e-05
4.50588e-06
-3.97199e-05
4.51309e-06
-4.17212e-05
4.51996e-06
-4.37231e-05
4.52638e-06
-4.57253e-05
4.53224e-06
-4.77274e-05
4.53743e-06
-4.9729e-05
4.54181e-06
-5.17297e-05
4.54528e-06
-5.37289e-05
4.54772e-06
-5.57261e-05
4.549e-06
-5.77207e-05
4.549e-06
-5.9712e-05
4.54761e-06
-6.16994e-05
4.54474e-06
-6.36822e-05
4.5403e-06
-6.56596e-05
4.53421e-06
-6.76311e-05
4.52645e-06
-6.95958e-05
4.51701e-06
-7.15531e-05
4.50595e-06
-7.35024e-05
4.49338e-06
-7.54434e-05
4.47951e-06
-7.73757e-05
4.46466e-06
-7.92992e-05
4.44929e-06
-8.12145e-05
4.43406e-06
-8.31221e-05
4.41989e-06
-8.50236e-05
4.40801e-06
-8.69213e-05
4.40013e-06
-8.88188e-05
4.39852e-06
-9.07211e-05
4.40631e-06
-9.26357e-05
4.42774e-06
-9.45735e-05
4.4687e-06
-9.65498e-05
4.53756e-06
-9.85875e-05
4.6467e-06
-0.000100722
4.81572e-06
-0.000103006
5.07859e-06
-0.00010553
5.50109e-06
-0.000108434
6.22208e-06
-0.000111901
7.527e-06
-0.000116076
9.93069e-06
-0.000121089
1.4358e-05
-0.000124899
2.28489e-05
3.36143e-05
-0.000125926
-8.42822e-07
2.43995e-06
-2.44298e-06
4.85572e-06
-4.37054e-06
5.91541e-06
-6.42576e-06
6.33549e-06
-8.52683e-06
6.48194e-06
-1.06434e-05
6.5281e-06
-1.27653e-05
6.54301e-06
-1.48895e-05
6.55003e-06
-1.70151e-05
6.55582e-06
-1.91418e-05
6.56197e-06
-2.12696e-05
6.5687e-06
-2.33985e-05
6.57597e-06
-2.55284e-05
6.58366e-06
-2.76594e-05
6.59168e-06
-2.97912e-05
6.59991e-06
-3.19239e-05
6.60825e-06
-3.40574e-05
6.61659e-06
-3.61913e-05
6.62481e-06
-3.83257e-05
6.63278e-06
-4.04602e-05
6.64039e-06
-4.25946e-05
6.64749e-06
-4.47286e-05
6.65395e-06
-4.68618e-05
6.6596e-06
-4.89939e-05
6.6643e-06
-5.11243e-05
6.66789e-06
-5.32527e-05
6.67019e-06
-5.53785e-05
6.67105e-06
-5.75011e-05
6.67029e-06
-5.96198e-05
6.66775e-06
-6.17341e-05
6.66326e-06
-6.38431e-05
6.65669e-06
-6.59463e-05
6.64788e-06
-6.80427e-05
6.63674e-06
-7.01317e-05
6.62318e-06
-7.22124e-05
6.60716e-06
-7.42841e-05
6.58872e-06
-7.63461e-05
6.56794e-06
-7.83978e-05
6.54503e-06
-8.04386e-05
6.52032e-06
-8.24682e-05
6.49431e-06
-8.44866e-05
6.46772e-06
-8.64942e-05
6.44157e-06
-8.84915e-05
6.41726e-06
-9.04802e-05
6.3967e-06
-9.24626e-05
6.38248e-06
-9.44422e-05
6.37812e-06
-9.64243e-05
6.38841e-06
-9.84165e-05
6.41995e-06
-0.00010043
6.48195e-06
-0.00010248
6.58754e-06
-0.000104589
6.75601e-06
-0.00010679
7.01684e-06
-0.000109129
7.41733e-06
-0.000111666
8.03785e-06
-0.000114464
9.02009e-06
-0.000117542
1.06057e-05
-0.000120786
1.31744e-05
-0.000123745
1.73168e-05
-0.000124663
2.37667e-05
3.13595e-05
-0.000122408
-8.64138e-07
3.30409e-06
-2.51192e-06
6.50349e-06
-4.49388e-06
7.89737e-06
-6.60384e-06
8.44545e-06
-8.75878e-06
8.63687e-06
-1.09285e-05
8.69782e-06
-1.31032e-05
8.71772e-06
-1.528e-05
8.72682e-06
-1.74581e-05
8.73388e-06
-1.96371e-05
8.74103e-06
-2.18171e-05
8.74865e-06
-2.39978e-05
8.75673e-06
-2.61794e-05
8.76518e-06
-2.83616e-05
8.77387e-06
-3.05443e-05
8.78268e-06
-3.27276e-05
8.79148e-06
-3.49111e-05
8.80012e-06
-3.70947e-05
8.80846e-06
-3.92783e-05
8.81634e-06
-4.14615e-05
8.8236e-06
-4.36441e-05
8.83006e-06
-4.58256e-05
8.83554e-06
-4.80059e-05
8.83985e-06
-5.01844e-05
8.84278e-06
-5.23606e-05
8.84413e-06
-5.45341e-05
8.84369e-06
-5.67043e-05
8.84123e-06
-5.88705e-05
8.83655e-06
-6.10322e-05
8.82943e-06
-6.31886e-05
8.81966e-06
-6.5339e-05
8.80705e-06
-6.74825e-05
8.79144e-06
-6.96185e-05
8.77267e-06
-7.17459e-05
8.75065e-06
-7.38641e-05
8.72533e-06
-7.59721e-05
8.69675e-06
-7.80692e-05
8.66504e-06
-8.01547e-05
8.63045e-06
-8.22278e-05
8.59343e-06
-8.42881e-05
8.55461e-06
-8.63353e-05
8.51494e-06
-8.83694e-05
8.47572e-06
-9.03909e-05
8.43875e-06
-9.24007e-05
8.40648e-06
-9.44005e-05
8.38222e-06
-9.63928e-05
8.37042e-06
-9.83815e-05
8.37716e-06
-0.000100372
8.41069e-06
-0.000102373
8.48242e-06
-0.000104393
8.6083e-06
-0.000106449
8.81106e-06
-0.000108556
9.12385e-06
-0.000110735
9.5963e-06
-0.000113001
1.03047e-05
-0.000115348
1.1367e-05
-0.0001177
1.29575e-05
-0.000119842
1.53167e-05
-0.00012127
1.87446e-05
-0.000120874
2.33702e-05
2.85799e-05
-0.000118094
-8.67712e-07
4.1718e-06
-2.53102e-06
8.1668e-06
-4.53157e-06
9.89792e-06
-6.66037e-06
1.05742e-05
-8.83349e-06
1.081e-05
-1.10208e-05
1.08851e-05
-1.32127e-05
1.09097e-05
-1.54066e-05
1.09207e-05
-1.76016e-05
1.09289e-05
-1.97976e-05
1.0937e-05
-2.19945e-05
1.09455e-05
-2.41922e-05
1.09544e-05
-2.63905e-05
1.09636e-05
-2.85895e-05
1.09729e-05
-3.0789e-05
1.09822e-05
-3.2989e-05
1.09914e-05
-3.51891e-05
1.10003e-05
-3.73893e-05
1.10086e-05
-3.95893e-05
1.10164e-05
-4.17889e-05
1.10232e-05
-4.39878e-05
1.10289e-05
-4.61856e-05
1.10333e-05
-4.83819e-05
1.10362e-05
-5.05764e-05
1.10373e-05
-5.27686e-05
1.10363e-05
-5.49579e-05
1.1033e-05
-5.71437e-05
1.10271e-05
-5.93255e-05
1.10183e-05
-6.15026e-05
1.10065e-05
-6.36742e-05
1.09912e-05
-6.58395e-05
1.09724e-05
-6.79978e-05
1.09497e-05
-7.01482e-05
1.0923e-05
-7.22897e-05
1.08922e-05
-7.44215e-05
1.08571e-05
-7.65427e-05
1.08179e-05
-7.86522e-05
1.07746e-05
-8.07493e-05
1.07275e-05
-8.2833e-05
1.06771e-05
-8.49026e-05
1.06242e-05
-8.69575e-05
1.05698e-05
-8.89971e-05
1.05154e-05
-9.10214e-05
1.0463e-05
-9.30305e-05
1.04155e-05
-9.50248e-05
1.03766e-05
-9.70055e-05
1.03512e-05
-9.89744e-05
1.03461e-05
-0.000100934
1.03703e-05
-0.000102888
1.0436e-05
-0.000104839
1.05599e-05
-0.000106793
1.0765e-05
-0.000108752
1.10828e-05
-0.000110714
1.15578e-05
-0.000112661
1.22525e-05
-0.000114546
1.32522e-05
-0.000116257
1.46677e-05
-0.000117568
1.66282e-05
-0.000118066
1.92426e-05
-0.00011715
2.24539e-05
2.58969e-05
-0.000114467
-8.66515e-07
5.03831e-06
-2.53337e-06
9.83365e-06
-4.53897e-06
1.19035e-05
-6.67332e-06
1.27086e-05
-8.85178e-06
1.29885e-05
-1.10441e-05
1.30774e-05
-1.32409e-05
1.31064e-05
-1.54395e-05
1.31193e-05
-1.76392e-05
1.31287e-05
-1.984e-05
1.31378e-05
-2.20416e-05
1.31472e-05
-2.42441e-05
1.31569e-05
-2.64475e-05
1.31669e-05
-2.86515e-05
1.31769e-05
-3.08561e-05
1.31868e-05
-3.30612e-05
1.31965e-05
-3.52667e-05
1.32057e-05
-3.74723e-05
1.32143e-05
-3.96779e-05
1.32219e-05
-4.18831e-05
1.32284e-05
-4.40878e-05
1.32336e-05
-4.62915e-05
1.32371e-05
-4.8494e-05
1.32387e-05
-5.06947e-05
1.3238e-05
-5.28933e-05
1.32348e-05
-5.50891e-05
1.32288e-05
-5.72816e-05
1.32196e-05
-5.94703e-05
1.3207e-05
-6.16543e-05
1.31905e-05
-6.38329e-05
1.31699e-05
-6.60054e-05
1.31449e-05
-6.81709e-05
1.31152e-05
-7.03285e-05
1.30806e-05
-7.24772e-05
1.30409e-05
-7.4616e-05
1.29959e-05
-7.67438e-05
1.29457e-05
-7.88596e-05
1.28904e-05
-8.09623e-05
1.28302e-05
-8.30507e-05
1.27656e-05
-8.51239e-05
1.26973e-05
-8.71806e-05
1.26265e-05
-8.92199e-05
1.25547e-05
-9.1241e-05
1.24841e-05
-9.32428e-05
1.24174e-05
-9.52248e-05
1.23585e-05
-9.71862e-05
1.23126e-05
-9.91265e-05
1.22864e-05
-0.000101045
1.22888e-05
-0.000102941
1.23316e-05
-0.000104811
1.24304e-05
-0.000106652
1.26057e-05
-0.000108454
1.28848e-05
-0.000110199
1.33031e-05
-0.000111853
1.3906e-05
-0.000113349
1.47491e-05
-0.000114576
1.58944e-05
-0.000115346
1.73975e-05
-0.000115375
1.92725e-05
-0.000114339
2.14171e-05
2.35776e-05
-0.000112019
-8.64395e-07
5.90271e-06
-2.53075e-06
1.15e-05
-4.53679e-06
1.39096e-05
-6.67214e-06
1.48439e-05
-8.85168e-06
1.5168e-05
-1.1045e-05
1.52708e-05
-1.32427e-05
1.53041e-05
-1.54422e-05
1.53187e-05
-1.76428e-05
1.53293e-05
-1.98445e-05
1.53395e-05
-2.20473e-05
1.53499e-05
-2.4251e-05
1.53606e-05
-2.64556e-05
1.53715e-05
-2.86611e-05
1.53824e-05
-3.08673e-05
1.53931e-05
-3.30742e-05
1.54034e-05
-3.52816e-05
1.54132e-05
-3.74894e-05
1.54221e-05
-3.96974e-05
1.54299e-05
-4.19052e-05
1.54363e-05
-4.41128e-05
1.54411e-05
-4.63196e-05
1.54439e-05
-4.85254e-05
1.54445e-05
-5.07298e-05
1.54424e-05
-5.29322e-05
1.54373e-05
-5.51322e-05
1.54288e-05
-5.73292e-05
1.54166e-05
-5.95226e-05
1.54003e-05
-6.17117e-05
1.53795e-05
-6.38956e-05
1.53539e-05
-6.60737e-05
1.53229e-05
-6.82449e-05
1.52864e-05
-7.04083e-05
1.5244e-05
-7.25629e-05
1.51955e-05
-7.47076e-05
1.51406e-05
-7.68411e-05
1.50793e-05
-7.89623e-05
1.50116e-05
-8.10698e-05
1.49377e-05
-8.31623e-05
1.48581e-05
-8.52383e-05
1.47733e-05
-8.72963e-05
1.46845e-05
-8.93346e-05
1.45931e-05
-9.13516e-05
1.45011e-05
-9.33455e-05
1.44113e-05
-9.53142e-05
1.43272e-05
-9.72555e-05
1.42538e-05
-9.91664e-05
1.41973e-05
-0.000101043
1.41658e-05
-0.000102881
1.41697e-05
-0.000104674
1.42224e-05
-0.000106409
1.43409e-05
-0.00010807
1.45463e-05
-0.000109631
1.48643e-05
-0.00011105
1.53249e-05
-0.000112261
1.59601e-05
-0.000113166
1.67985e-05
-0.000113621
1.78531e-05
-0.000113446
1.90976e-05
-0.00011246
2.04311e-05
2.1667e-05
-0.00011055
-8.62201e-07
6.76491e-06
-2.52677e-06
1.31646e-05
-4.53172e-06
1.59145e-05
-6.66657e-06
1.69788e-05
-8.84581e-06
1.73472e-05
-1.10389e-05
1.74638e-05
-1.32363e-05
1.75015e-05
-1.54356e-05
1.7518e-05
-1.76361e-05
1.75298e-05
-1.98377e-05
1.75411e-05
-2.20405e-05
1.75527e-05
-2.42443e-05
1.75645e-05
-2.64493e-05
1.75764e-05
-2.86553e-05
1.75884e-05
-3.08622e-05
1.76e-05
-3.30701e-05
1.76112e-05
-3.52787e-05
1.76217e-05
-3.74879e-05
1.76312e-05
-3.96975e-05
1.76395e-05
-4.19073e-05
1.76461e-05
-4.41171e-05
1.76509e-05
-4.63265e-05
1.76533e-05
-4.85352e-05
1.76532e-05
-5.07428e-05
1.765e-05
-5.29489e-05
1.76433e-05
-5.51529e-05
1.76328e-05
-5.73543e-05
1.7618e-05
-5.95524e-05
1.75985e-05
-6.17465e-05
1.75737e-05
-6.39359e-05
1.75433e-05
-6.61197e-05
1.75067e-05
-6.8297e-05
1.74637e-05
-7.04667e-05
1.74137e-05
-7.26277e-05
1.73565e-05
-7.47789e-05
1.72918e-05
-7.69189e-05
1.72193e-05
-7.90463e-05
1.7139e-05
-8.11596e-05
1.7051e-05
-8.32572e-05
1.69556e-05
-8.53371e-05
1.68533e-05
-8.73975e-05
1.67449e-05
-8.94362e-05
1.66318e-05
-9.14507e-05
1.65156e-05
-9.34383e-05
1.63989e-05
-9.53959e-05
1.62848e-05
-9.73195e-05
1.61774e-05
-9.92045e-05
1.60823e-05
-0.000101045
1.60062e-05
-0.000102833
1.59577e-05
-0.000104558
1.59474e-05
-0.000106205
1.5988e-05
-0.000107753
1.60948e-05
-0.000109174
1.62845e-05
-0.000110423
1.65745e-05
-0.000111443
1.69801e-05
-0.000112153
1.75088e-05
-0.000112452
1.81518e-05
-0.000112224
1.8869e-05
-0.000111366
1.95737e-05
2.01291e-05
-0.000109828
-8.59997e-07
7.62491e-06
-2.52229e-06
1.48269e-05
-4.52562e-06
1.79178e-05
-6.65941e-06
1.91126e-05
-8.83786e-06
1.95257e-05
-1.10302e-05
1.96562e-05
-1.32271e-05
1.96983e-05
-1.54257e-05
1.97167e-05
-1.76258e-05
1.97299e-05
-1.98271e-05
1.97424e-05
-2.20296e-05
1.97552e-05
-2.42334e-05
1.97683e-05
-2.64385e-05
1.97815e-05
-2.86448e-05
1.97947e-05
-3.08523e-05
1.98075e-05
-3.3061e-05
1.98199e-05
-3.52706e-05
1.98314e-05
-3.74812e-05
1.98418e-05
-3.96924e-05
1.98508e-05
-4.19043e-05
1.9858e-05
-4.41164e-05
1.9863e-05
-4.63285e-05
1.98655e-05
-4.85403e-05
1.9865e-05
-5.07514e-05
1.98611e-05
-5.29614e-05
1.98533e-05
-5.51698e-05
1.98412e-05
-5.7376e-05
1.98242e-05
-5.95793e-05
1.98018e-05
-6.17791e-05
1.97735e-05
-6.39747e-05
1.97388e-05
-6.6165e-05
1.96971e-05
-6.83492e-05
1.96479e-05
-7.05262e-05
1.95907e-05
-7.26947e-05
1.95251e-05
-7.48536e-05
1.94506e-05
-7.70014e-05
1.9367e-05
-7.91364e-05
1.92741e-05
-8.12571e-05
1.91717e-05
-8.33613e-05
1.90599e-05
-8.54472e-05
1.89391e-05
-8.75121e-05
1.88099e-05
-8.95535e-05
1.86732e-05
-9.15683e-05
1.85304e-05
-9.35529e-05
1.83835e-05
-9.55031e-05
1.8235e-05
-9.74139e-05
1.80883e-05
-9.92792e-05
1.79476e-05
-0.000101091
1.78182e-05
-0.00010284
1.77067e-05
-0.000104514
1.76206e-05
-0.000106094
1.75689e-05
-0.000107561
1.7561e-05
-0.000108883
1.76066e-05
-0.000110022
1.77137e-05
-0.000110928
1.78863e-05
-0.000111539
1.81199e-05
-0.000111783
1.83956e-05
-0.000111586
1.8672e-05
-0.000110891
1.88783e-05
1.89155e-05
-0.000109677
-8.57697e-07
8.4826e-06
-2.51744e-06
1.64866e-05
-4.51887e-06
1.99193e-05
-6.65134e-06
2.12451e-05
-8.82875e-06
2.17031e-05
-1.10203e-05
2.18477e-05
-1.32163e-05
2.18943e-05
-1.54143e-05
2.19147e-05
-1.76137e-05
2.19293e-05
-1.98145e-05
2.19433e-05
-2.20168e-05
2.19575e-05
-2.42205e-05
2.1972e-05
-2.64257e-05
2.19867e-05
-2.86323e-05
2.20013e-05
-3.08404e-05
2.20156e-05
-3.30498e-05
2.20293e-05
-3.52606e-05
2.20422e-05
-3.74726e-05
2.20538e-05
-3.96857e-05
2.20639e-05
-4.18997e-05
2.20719e-05
-4.41144e-05
2.20777e-05
-4.63295e-05
2.20806e-05
-4.85447e-05
2.20802e-05
-5.07597e-05
2.20761e-05
-5.29741e-05
2.20677e-05
-5.51874e-05
2.20544e-05
-5.73989e-05
2.20358e-05
-5.96082e-05
2.20111e-05
-6.18145e-05
2.19798e-05
-6.4017e-05
2.19413e-05
-6.62148e-05
2.18949e-05
-6.84069e-05
2.184e-05
-7.05923e-05
2.17761e-05
-7.27697e-05
2.17025e-05
-7.49377e-05
2.16186e-05
-7.70947e-05
2.15241e-05
-7.92391e-05
2.14185e-05
-8.1369e-05
2.13015e-05
-8.34822e-05
2.11731e-05
-8.55763e-05
2.10332e-05
-8.76485e-05
2.08821e-05
-8.96958e-05
2.07204e-05
-9.17144e-05
2.0549e-05
-9.37002e-05
2.03693e-05
-9.56483e-05
2.0183e-05
-9.75526e-05
1.99926e-05
-9.94061e-05
1.98011e-05
-0.0001012
1.9612e-05
-0.000102923
1.94299e-05
-0.000104562
1.92596e-05
-0.000106099
1.91063e-05
-0.000107514
1.8975e-05
-0.000108777
1.88698e-05
-0.000109855
1.87921e-05
-0.000110707
1.87387e-05
-0.000111286
1.86989e-05
-0.000111541
1.86503e-05
-0.000111424
1.85549e-05
-0.000110903
1.83567e-05
1.79839e-05
-0.000109971
-8.55227e-07
9.33783e-06
-2.51216e-06
1.81435e-05
-4.51148e-06
2.19186e-05
-6.64244e-06
2.3376e-05
-8.81865e-06
2.38793e-05
-1.10091e-05
2.40382e-05
-1.32042e-05
2.40894e-05
-1.54014e-05
2.41119e-05
-1.76002e-05
2.41281e-05
-1.98005e-05
2.41436e-05
-2.20024e-05
2.41594e-05
-2.42059e-05
2.41755e-05
-2.64112e-05
2.41919e-05
-2.86181e-05
2.42083e-05
-3.08268e-05
2.42243e-05
-3.30372e-05
2.42397e-05
-3.52492e-05
2.42542e-05
-3.74628e-05
2.42674e-05
-3.96778e-05
2.42789e-05
-4.18942e-05
2.42883e-05
-4.41117e-05
2.42952e-05
-4.63301e-05
2.4299e-05
-4.85491e-05
2.42993e-05
-5.07684e-05
2.42954e-05
-5.29877e-05
2.42869e-05
-5.52063e-05
2.42731e-05
-5.74239e-05
2.42533e-05
-5.96398e-05
2.4227e-05
-6.18533e-05
2.41933e-05
-6.40636e-05
2.41516e-05
-6.62699e-05
2.41012e-05
-6.84711e-05
2.40412e-05
-7.06662e-05
2.39711e-05
-7.28537e-05
2.389e-05
-7.50323e-05
2.37973e-05
-7.72004e-05
2.36922e-05
-7.93561e-05
2.35742e-05
-8.14974e-05
2.34428e-05
-8.3622e-05
2.32976e-05
-8.57271e-05
2.31383e-05
-8.78097e-05
2.29647e-05
-8.98665e-05
2.27771e-05
-9.18932e-05
2.25758e-05
-9.38853e-05
2.23614e-05
-9.58373e-05
2.2135e-05
-9.77425e-05
2.18978e-05
-9.95932e-05
2.16518e-05
-0.00010138
2.13988e-05
-0.000103092
2.11414e-05
-0.000104714
2.08819e-05
-0.00010623
2.06224e-05
-0.000107619
2.03645e-05
-0.000108858
2.0108e-05
-0.000109915
1.98499e-05
-0.00011076
1.95829e-05
-0.000111354
1.92933e-05
-0.000111662
1.89587e-05
-0.000111653
1.85459e-05
-0.000111308
1.80111e-05
1.73015e-05
-0.000110625
-8.5254e-07
1.01904e-05
-2.50639e-06
1.97974e-05
-4.50341e-06
2.39156e-05
-6.63267e-06
2.55053e-05
-8.80752e-06
2.60542e-05
-1.09968e-05
2.62275e-05
-1.31908e-05
2.62835e-05
-1.53871e-05
2.63082e-05
-1.75851e-05
2.63261e-05
-1.97848e-05
2.63433e-05
-2.19863e-05
2.63609e-05
-2.41897e-05
2.63789e-05
-2.63949e-05
2.63972e-05
-2.86022e-05
2.64155e-05
-3.08115e-05
2.64336e-05
-3.30228e-05
2.6451e-05
-3.52361e-05
2.64675e-05
-3.74514e-05
2.64827e-05
-3.96686e-05
2.64961e-05
-4.18875e-05
2.65073e-05
-4.41081e-05
2.65157e-05
-4.633e-05
2.6521e-05
-4.85532e-05
2.65224e-05
-5.07772e-05
2.65194e-05
-5.30017e-05
2.65114e-05
-5.52263e-05
2.64977e-05
-5.74505e-05
2.64775e-05
-5.96737e-05
2.64502e-05
-6.18952e-05
2.64148e-05
-6.41143e-05
2.63707e-05
-6.63301e-05
2.63169e-05
-6.85415e-05
2.62527e-05
-7.07475e-05
2.6177e-05
-7.29466e-05
2.60892e-05
-7.51375e-05
2.59882e-05
-7.73185e-05
2.58731e-05
-7.94876e-05
2.57433e-05
-8.16426e-05
2.55979e-05
-8.37812e-05
2.54362e-05
-8.59004e-05
2.52575e-05
-8.7997e-05
2.50614e-05
-9.00673e-05
2.48474e-05
-9.2107e-05
2.46155e-05
-9.4111e-05
2.43654e-05
-9.60735e-05
2.40975e-05
-9.79876e-05
2.38119e-05
-9.98451e-05
2.35093e-05
-0.000101637
2.31902e-05
-0.00010335
2.28552e-05
-0.000104973
2.25045e-05
-0.000106489
2.2138e-05
-0.000107878
2.17541e-05
-0.00010912
2.135e-05
-0.00011019
2.09196e-05
-0.000111061
2.04536e-05
-0.000111704
1.99371e-05
-0.000112095
1.93492e-05
-0.000112211
1.86618e-05
-0.00011204
1.78401e-05
1.6845e-05
-0.000111583
-8.49608e-07
1.104e-05
-2.50009e-06
2.14479e-05
-4.49456e-06
2.59101e-05
-6.62194e-06
2.76327e-05
-8.79526e-06
2.82275e-05
-1.09832e-05
2.84154e-05
-1.31761e-05
2.84763e-05
-1.53713e-05
2.85034e-05
-1.75684e-05
2.85232e-05
-1.97674e-05
2.85423e-05
-2.19684e-05
2.85618e-05
-2.41715e-05
2.8582e-05
-2.63767e-05
2.86025e-05
-2.85843e-05
2.86231e-05
-3.07942e-05
2.86435e-05
-3.30065e-05
2.86633e-05
-3.52211e-05
2.86822e-05
-3.74382e-05
2.86997e-05
-3.96576e-05
2.87155e-05
-4.18792e-05
2.87289e-05
-4.4103e-05
2.87395e-05
-4.63288e-05
2.87467e-05
-4.85564e-05
2.875e-05
-5.07854e-05
2.87485e-05
-5.30157e-05
2.87417e-05
-5.52468e-05
2.87288e-05
-5.74781e-05
2.87089e-05
-5.97093e-05
2.86813e-05
-6.19396e-05
2.86452e-05
-6.41684e-05
2.85994e-05
-6.63946e-05
2.85432e-05
-6.86174e-05
2.84755e-05
-7.08356e-05
2.83952e-05
-7.30479e-05
2.83014e-05
-7.52528e-05
2.8193e-05
-7.74485e-05
2.80689e-05
-7.96332e-05
2.7928e-05
-8.18045e-05
2.77692e-05
-8.39599e-05
2.75916e-05
-8.60965e-05
2.73941e-05
-8.82109e-05
2.71758e-05
-9.02992e-05
2.69357e-05
-9.23568e-05
2.66731e-05
-9.43787e-05
2.63873e-05
-9.63587e-05
2.60775e-05
-9.82899e-05
2.57431e-05
-0.000100164
2.53834e-05
-0.000101971
2.49977e-05
-0.000103701
2.4585e-05
-0.00010534
2.41437e-05
-0.000106874
2.36717e-05
-0.000108286
2.31655e-05
-0.000109556
2.26199e-05
-0.000110663
2.20275e-05
-0.000111587
2.13774e-05
-0.000112305
2.06552e-05
-0.000112798
1.98417e-05
-0.000113049
1.89132e-05
-0.000113051
1.7842e-05
1.65982e-05
-0.000112804
-8.46411e-07
1.18864e-05
-2.49322e-06
2.30947e-05
-4.48489e-06
2.79017e-05
-6.61017e-06
2.97579e-05
-8.78178e-06
3.03991e-05
-1.09682e-05
3.06019e-05
-1.31597e-05
3.06678e-05
-1.53537e-05
3.06974e-05
-1.75498e-05
3.07193e-05
-1.9748e-05
3.07404e-05
-2.19483e-05
3.07622e-05
-2.41511e-05
3.07847e-05
-2.63562e-05
3.08077e-05
-2.8564e-05
3.08309e-05
-3.07745e-05
3.08539e-05
-3.29877e-05
3.08765e-05
-3.52038e-05
3.08982e-05
-3.74226e-05
3.09186e-05
-3.96443e-05
3.09372e-05
-4.18688e-05
3.09534e-05
-4.4096e-05
3.09667e-05
-4.63258e-05
3.09765e-05
-4.85581e-05
3.09822e-05
-5.07925e-05
3.0983e-05
-5.30289e-05
3.09781e-05
-5.52669e-05
3.09667e-05
-5.7506e-05
3.09481e-05
-5.97458e-05
3.09212e-05
-6.19857e-05
3.0885e-05
-6.42249e-05
3.08386e-05
-6.64627e-05
3.07809e-05
-6.8698e-05
3.07108e-05
-7.09298e-05
3.0627e-05
-7.31567e-05
3.05283e-05
-7.53772e-05
3.04136e-05
-7.75897e-05
3.02814e-05
-7.97922e-05
3.01305e-05
-8.19824e-05
2.99594e-05
-8.41577e-05
2.97669e-05
-8.63151e-05
2.95515e-05
-8.84511e-05
2.93118e-05
-9.05619e-05
2.90465e-05
-9.26428e-05
2.8754e-05
-9.46886e-05
2.84331e-05
-9.66933e-05
2.80821e-05
-9.86498e-05
2.76996e-05
-0.00010055
2.72837e-05
-0.000102385
2.68326e-05
-0.000104144
2.63438e-05
-0.000105814
2.58143e-05
-0.000107383
2.52405e-05
-0.000108835
2.46174e-05
-0.000110153
2.39383e-05
-0.00011132
2.31946e-05
-0.000112318
2.23754e-05
-0.00011313
2.14665e-05
-0.000113739
2.04507e-05
-0.000114133
1.93079e-05
-0.000114307
1.80156e-05
1.65505e-05
-0.000114259
-8.42932e-07
1.27293e-05
-2.48572e-06
2.47375e-05
-4.47432e-06
2.98903e-05
-6.59728e-06
3.18809e-05
-8.76697e-06
3.25688e-05
-1.09517e-05
3.27866e-05
-1.31417e-05
3.28578e-05
-1.53343e-05
3.28901e-05
-1.75292e-05
3.29142e-05
-1.97263e-05
3.29376e-05
-2.1926e-05
3.29618e-05
-2.41282e-05
3.29869e-05
-2.63332e-05
3.30127e-05
-2.85411e-05
3.30388e-05
-3.07521e-05
3.30649e-05
-3.29662e-05
3.30907e-05
-3.51836e-05
3.31156e-05
-3.74043e-05
3.31393e-05
-3.96283e-05
3.31612e-05
-4.18557e-05
3.31808e-05
-4.40865e-05
3.31975e-05
-4.63205e-05
3.32105e-05
-4.85576e-05
3.32193e-05
-5.07977e-05
3.32231e-05
-5.30406e-05
3.32209e-05
-5.52859e-05
3.32121e-05
-5.75333e-05
3.31955e-05
-5.97823e-05
3.31702e-05
-6.20325e-05
3.31352e-05
-6.4283e-05
3.30892e-05
-6.65333e-05
3.30312e-05
-6.87822e-05
3.29597e-05
-7.10288e-05
3.28736e-05
-7.32719e-05
3.27714e-05
-7.55099e-05
3.26516e-05
-7.77411e-05
3.25127e-05
-7.99637e-05
3.2353e-05
-8.21754e-05
3.21711e-05
-8.43735e-05
3.1965e-05
-8.65552e-05
3.17331e-05
-8.87169e-05
3.14735e-05
-9.08548e-05
3.11843e-05
-9.29642e-05
3.08635e-05
-9.50401e-05
3.0509e-05
-9.70764e-05
3.01185e-05
-9.90664e-05
2.96895e-05
-0.000101002
2.92195e-05
-0.000102875
2.87054e-05
-0.000104675
2.81436e-05
-0.00010639
2.75299e-05
-0.000108009
2.68595e-05
-0.000109518
2.61261e-05
-0.000110902
2.53223e-05
-0.000112146
2.44387e-05
-0.000113235
2.34643e-05
-0.000114154
2.23858e-05
-0.000114891
2.11875e-05
-0.000115435
1.98522e-05
-0.000115781
1.83612e-05
1.66958e-05
-0.000115926
-8.39155e-07
1.35685e-05
-2.47757e-06
2.63759e-05
-4.46279e-06
3.18756e-05
-6.58319e-06
3.40013e-05
-8.75073e-06
3.47363e-05
-1.09335e-05
3.49694e-05
-1.31217e-05
3.5046e-05
-1.53128e-05
3.50811e-05
-1.75063e-05
3.51076e-05
-1.97023e-05
3.51336e-05
-2.1901e-05
3.51605e-05
-2.41025e-05
3.51885e-05
-2.63072e-05
3.52173e-05
-2.85151e-05
3.52467e-05
-3.07265e-05
3.52763e-05
-3.29414e-05
3.53056e-05
-3.51601e-05
3.53343e-05
-3.73826e-05
3.53618e-05
-3.9609e-05
3.53876e-05
-4.18393e-05
3.54112e-05
-4.40737e-05
3.54318e-05
-4.6312e-05
3.54488e-05
-4.85542e-05
3.54615e-05
-5.08002e-05
3.54691e-05
-5.30498e-05
3.54706e-05
-5.53028e-05
3.54651e-05
-5.7559e-05
3.54516e-05
-5.98178e-05
3.5429e-05
-6.20788e-05
3.53962e-05
-6.43415e-05
3.53519e-05
-6.66052e-05
3.52948e-05
-6.88688e-05
3.52234e-05
-7.11316e-05
3.51364e-05
-7.33922e-05
3.5032e-05
-7.56493e-05
3.49087e-05
-7.79013e-05
3.47646e-05
-8.01463e-05
3.4598e-05
-8.2382e-05
3.44068e-05
-8.4606e-05
3.4189e-05
-8.68154e-05
3.39425e-05
-8.90068e-05
3.36649e-05
-9.11763e-05
3.33539e-05
-9.33196e-05
3.30068e-05
-9.54315e-05
3.26209e-05
-9.75064e-05
3.21933e-05
-9.95376e-05
3.17207e-05
-0.000101518
3.11997e-05
-0.000103439
3.06261e-05
-0.000105291
2.99956e-05
-0.000107064
2.93029e-05
-0.000108746
2.85421e-05
-0.000110326
2.77061e-05
-0.000111791
2.67868e-05
-0.000113127
2.57746e-05
-0.000114321
2.46584e-05
-0.00011536
2.34255e-05
-0.000116235
2.20618e-05
-0.000116934
2.0552e-05
-0.000117454
1.88803e-05
1.70314e-05
-0.000117789
-8.35067e-07
1.44035e-05
-2.46872e-06
2.80095e-05
-4.45024e-06
3.38571e-05
-6.56779e-06
3.61189e-05
-8.73294e-06
3.69014e-05
-1.09136e-05
3.71501e-05
-1.30998e-05
3.72322e-05
-1.52891e-05
3.72704e-05
-1.74809e-05
3.72995e-05
-1.96755e-05
3.73282e-05
-2.18731e-05
3.7358e-05
-2.40738e-05
3.73892e-05
-2.6278e-05
3.74215e-05
-2.84857e-05
3.74545e-05
-3.06973e-05
3.74879e-05
-3.2913e-05
3.75212e-05
-3.51328e-05
3.75541e-05
-3.7357e-05
3.7586e-05
-3.95857e-05
3.76163e-05
-4.18189e-05
3.76444e-05
-4.40569e-05
3.76698e-05
-4.62996e-05
3.76915e-05
-4.8547e-05
3.77089e-05
-5.0799e-05
3.77211e-05
-5.30557e-05
3.77272e-05
-5.53167e-05
3.77261e-05
-5.7582e-05
3.77168e-05
-5.98511e-05
3.76981e-05
-6.21236e-05
3.76688e-05
-6.43992e-05
3.76274e-05
-6.6677e-05
3.75726e-05
-6.89565e-05
3.75029e-05
-7.12365e-05
3.74164e-05
-7.35162e-05
3.73116e-05
-7.5794e-05
3.71866e-05
-7.80686e-05
3.70392e-05
-8.03382e-05
3.68675e-05
-8.26005e-05
3.66692e-05
-8.48534e-05
3.64419e-05
-8.70939e-05
3.6183e-05
-8.93188e-05
3.58898e-05
-9.15244e-05
3.55595e-05
-9.37065e-05
3.51889e-05
-9.58603e-05
3.47747e-05
-9.79803e-05
3.43133e-05
-0.00010006
3.38007e-05
-0.000102093
3.32326e-05
-0.000104071
3.26042e-05
-0.000105986
3.19102e-05
-0.000107827
3.11445e-05
-0.000109586
3.03004e-05
-0.00011125
2.93701e-05
-0.000112808
2.8345e-05
-0.000114248
2.72152e-05
-0.00011556
2.59697e-05
-0.000116731
2.45965e-05
-0.000117751
2.30823e-05
-0.000118613
2.14135e-05
-0.000119309
1.95762e-05
1.75571e-05
-0.000119834
-8.30652e-07
1.52342e-05
-2.45913e-06
2.9638e-05
-4.43661e-06
3.58346e-05
-6.55101e-06
3.82333e-05
-8.71348e-06
3.90639e-05
-1.08917e-05
3.93283e-05
-1.30757e-05
3.94162e-05
-1.52629e-05
3.94576e-05
-1.74529e-05
3.94895e-05
-1.96459e-05
3.95211e-05
-2.1842e-05
3.95542e-05
-2.40417e-05
3.95889e-05
-2.62451e-05
3.96249e-05
-2.84525e-05
3.96619e-05
-3.06642e-05
3.96995e-05
-3.28803e-05
3.97374e-05
-3.51011e-05
3.97749e-05
-3.73269e-05
3.98117e-05
-3.95578e-05
3.98471e-05
-4.17939e-05
3.98806e-05
-4.40354e-05
3.99113e-05
-4.62825e-05
3.99386e-05
-4.85351e-05
3.99616e-05
-5.07933e-05
3.99794e-05
-5.30571e-05
3.9991e-05
-5.53265e-05
3.99954e-05
-5.76011e-05
3.99915e-05
-5.98809e-05
3.99779e-05
-6.21655e-05
3.99534e-05
-6.44545e-05
3.99164e-05
-6.67474e-05
3.98655e-05
-6.90435e-05
3.9799e-05
-7.1342e-05
3.97149e-05
-7.3642e-05
3.96116e-05
-7.59421e-05
3.94867e-05
-7.82411e-05
3.93382e-05
-8.05373e-05
3.91637e-05
-8.28288e-05
3.89607e-05
-8.51133e-05
3.87263e-05
-8.73881e-05
3.84578e-05
-8.96502e-05
3.8152e-05
-9.18962e-05
3.78055e-05
-9.41221e-05
3.74148e-05
-9.63233e-05
3.69759e-05
-9.84946e-05
3.64846e-05
-0.00010063
3.59363e-05
-0.000102724
3.53261e-05
-0.000104768
3.46482e-05
-0.000106754
3.38968e-05
-0.000108675
3.30649e-05
-0.00011052
3.21453e-05
-0.000112279
3.11295e-05
-0.000113942
3.00084e-05
-0.000115499
2.8772e-05
-0.000116939
2.74093e-05
-0.000118251
2.59086e-05
-0.000119426
2.42574e-05
-0.000120456
2.24431e-05
-0.000121333
2.04532e-05
1.82757e-05
-0.000122051
-8.25896e-07
1.60601e-05
-2.44878e-06
3.12609e-05
-4.42183e-06
3.78076e-05
-6.53276e-06
4.03442e-05
-8.69226e-06
4.12234e-05
-1.08678e-05
4.15038e-05
-1.30492e-05
4.15976e-05
-1.52341e-05
4.16424e-05
-1.74219e-05
4.16774e-05
-1.9613e-05
4.17122e-05
-2.18075e-05
4.17488e-05
-2.40058e-05
4.17872e-05
-2.62082e-05
4.18273e-05
-2.8415e-05
4.18687e-05
-3.06265e-05
4.1911e-05
-3.28429e-05
4.19538e-05
-3.50646e-05
4.19966e-05
-3.72917e-05
4.20389e-05
-3.95246e-05
4.208e-05
-4.17635e-05
4.21194e-05
-4.40085e-05
4.21563e-05
-4.62598e-05
4.21899e-05
-4.85177e-05
4.22194e-05
-5.07821e-05
4.22438e-05
-5.30532e-05
4.22621e-05
-5.53309e-05
4.22732e-05
-5.76152e-05
4.22758e-05
-5.9906e-05
4.22687e-05
-6.22031e-05
4.22505e-05
-6.45061e-05
4.22195e-05
-6.68147e-05
4.21741e-05
-6.91283e-05
4.21126e-05
-7.14462e-05
4.20329e-05
-7.37676e-05
4.1933e-05
-7.60915e-05
4.18106e-05
-7.84166e-05
4.16633e-05
-8.07414e-05
4.14886e-05
-8.30642e-05
4.12835e-05
-8.53829e-05
4.1045e-05
-8.76951e-05
4.077e-05
-8.9998e-05
4.04549e-05
-9.22884e-05