/*--------------------------------*- C++ -*----------------------------------*\
  =========                 |
  \\      /  F ield         | OpenFOAM: The Open Source CFD Toolbox
   \\    /   O peration     | Website:  https://openfoam.org
    \\  /    A nd           | Version:  8
     \\/     M anipulation  |
\*---------------------------------------------------------------------------*/
FoamFile
{
    version     2.0;
    format      ascii;
    class       volVectorField;
    location    "43";
    object      U;
}
// * * * * * * * * * * * * * * * * * * * * * * * * * * * * * * * * * * * * * //

dimensions      [0 1 -1 0 0 0 0];

internalField   nonuniform List<vector> 
11600
(
(-2.56598e-06 2.41225e-06 0)
(-4.34259e-05 1.56184e-05 0)
(-0.000117822 2.09665e-05 0)
(-0.000194927 2.26792e-05 0)
(-0.00027708 2.28554e-05 0)
(-0.000359348 2.26813e-05 0)
(-0.000441582 2.25567e-05 0)
(-0.00052382 2.25209e-05 0)
(-0.000606124 2.25454e-05 0)
(-0.000688554 2.26052e-05 0)
(-0.000771155 2.26857e-05 0)
(-0.000853959 2.278e-05 0)
(-0.000936989 2.28848e-05 0)
(-0.00102026 2.29984e-05 0)
(-0.0011038 2.31199e-05 0)
(-0.00118761 2.32484e-05 0)
(-0.00127171 2.33832e-05 0)
(-0.0013561 2.35239e-05 0)
(-0.0014408 2.36696e-05 0)
(-0.00152582 2.38196e-05 0)
(-0.00161115 2.39733e-05 0)
(-0.0016968 2.41297e-05 0)
(-0.00178276 2.42881e-05 0)
(-0.00186905 2.44474e-05 0)
(-0.00195564 2.46069e-05 0)
(-0.00204254 2.47653e-05 0)
(-0.00212972 2.49216e-05 0)
(-0.00221718 2.50747e-05 0)
(-0.0023049 2.52234e-05 0)
(-0.00239286 2.53663e-05 0)
(-0.00248104 2.55022e-05 0)
(-0.0025694 2.56298e-05 0)
(-0.00265792 2.57477e-05 0)
(-0.00274656 2.58543e-05 0)
(-0.0028353 2.59484e-05 0)
(-0.00292409 2.60285e-05 0)
(-0.0030129 2.60931e-05 0)
(-0.00310168 2.61409e-05 0)
(-0.0031904 2.61705e-05 0)
(-0.00327901 2.61807e-05 0)
(-0.00336749 2.617e-05 0)
(-0.00345579 2.61373e-05 0)
(-0.0035439 2.60809e-05 0)
(-0.0036318 2.59988e-05 0)
(-0.00371949 2.58878e-05 0)
(-0.003807 2.5742e-05 0)
(-0.00389435 2.55497e-05 0)
(-0.00398163 2.52872e-05 0)
(-0.00406891 2.4904e-05 0)
(-0.00415629 2.4292e-05 0)
(-0.00424381 2.32183e-05 0)
(-0.00433133 2.11976e-05 0)
(-0.00441823 1.72673e-05 0)
(-0.00450325 9.57121e-06 0)
(-0.00458755 -4.77069e-06 0)
(-0.00467468 -2.40592e-05 0)
(-0.00471282 -2.62445e-05 0)
(-0.00506731 1.50902e-05 0)
(-0.00503435 0.000652496 0)
(-0.00760438 0.00234328 0)
(-1.63176e-05 4.36275e-05 0)
(-0.0001058 0.000104205 0)
(-0.000250186 0.000130589 0)
(-0.000400847 0.00014082 0)
(-0.000560841 0.000143862 0)
(-0.000722276 0.000144519 0)
(-0.000884235 0.000144649 0)
(-0.00104648 0.000144759 0)
(-0.0012089 0.000144942 0)
(-0.00137151 0.000145193 0)
(-0.00153433 0.000145496 0)
(-0.00169738 0.000145838 0)
(-0.00186069 0.000146212 0)
(-0.00202426 0.000146612 0)
(-0.00218811 0.000147036 0)
(-0.00235225 0.00014748 0)
(-0.00251669 0.000147941 0)
(-0.00268143 0.000148414 0)
(-0.00284648 0.000148898 0)
(-0.00301182 0.000149388 0)
(-0.00317746 0.000149881 0)
(-0.00334339 0.000150373 0)
(-0.00350959 0.00015086 0)
(-0.00367604 0.000151337 0)
(-0.00384272 0.0001518 0)
(-0.00400961 0.000152244 0)
(-0.00417668 0.000152664 0)
(-0.00434388 0.000153056 0)
(-0.00451119 0.000153414 0)
(-0.00467856 0.000153733 0)
(-0.00484594 0.000154008 0)
(-0.00501327 0.000154235 0)
(-0.00518051 0.000154408 0)
(-0.00534759 0.000154523 0)
(-0.00551446 0.000154578 0)
(-0.00568105 0.00015457 0)
(-0.0058473 0.000154497 0)
(-0.00601316 0.00015436 0)
(-0.00617858 0.000154161 0)
(-0.00634352 0.000153906 0)
(-0.00650794 0.000153605 0)
(-0.00667185 0.00015327 0)
(-0.00683526 0.000152922 0)
(-0.00699824 0.000152588 0)
(-0.00716092 0.000152306 0)
(-0.00732347 0.000152124 0)
(-0.00748621 0.000152104 0)
(-0.00764955 0.000152324 0)
(-0.00781414 0.000152874 0)
(-0.00798091 0.000153841 0)
(-0.00815123 0.000155291 0)
(-0.00832717 0.000157238 0)
(-0.00851215 0.000159714 0)
(-0.00871263 0.00016322 0)
(-0.00894061 0.000171249 0)
(-0.00921261 0.00020144 0)
(-0.00956205 0.000304994 0)
(-0.0101795 0.00055379 0)
(-0.0107053 0.00150985 0)
(-0.0121734 0.00286232 0)
(-2.23335e-05 0.000120006 0)
(-0.000134687 0.000249578 0)
(-0.000312238 0.000307002 0)
(-0.000496703 0.000330073 0)
(-0.000691903 0.000337936 0)
(-0.00088885 0.000340277 0)
(-0.00108644 0.000340995 0)
(-0.00128435 0.00034137 0)
(-0.00148243 0.000341746 0)
(-0.00168066 0.000342189 0)
(-0.00187904 0.000342697 0)
(-0.00207758 0.00034326 0)
(-0.00227629 0.000343869 0)
(-0.00247517 0.000344515 0)
(-0.00267423 0.000345191 0)
(-0.00287346 0.000345891 0)
(-0.00307286 0.000346607 0)
(-0.00327243 0.000347334 0)
(-0.00347215 0.000348064 0)
(-0.00367202 0.00034879 0)
(-0.00387201 0.000349503 0)
(-0.0040721 0.000350196 0)
(-0.00427227 0.000350861 0)
(-0.00447248 0.000351487 0)
(-0.00467271 0.000352067 0)
(-0.0048729 0.000352589 0)
(-0.00507303 0.000353045 0)
(-0.00527304 0.000353425 0)
(-0.00547287 0.000353718 0)
(-0.00567247 0.000353916 0)
(-0.00587178 0.000354008 0)
(-0.00607073 0.000353986 0)
(-0.00626925 0.000353843 0)
(-0.00646728 0.000353573 0)
(-0.00666474 0.000353172 0)
(-0.00686156 0.000352638 0)
(-0.00705767 0.000351975 0)
(-0.00725301 0.00035119 0)
(-0.00744752 0.000350298 0)
(-0.00764118 0.00034932 0)
(-0.00783396 0.000348291 0)
(-0.00802588 0.000347259 0)
(-0.00821699 0.00034629 0)
(-0.00840739 0.000345476 0)
(-0.00859727 0.000344941 0)
(-0.00878692 0.000344854 0)
(-0.00897674 0.000345443 0)
(-0.00916736 0.00034702 0)
(-0.00935965 0.000350014 0)
(-0.00955488 0.000355038 0)
(-0.00975488 0.000363003 0)
(-0.00996238 0.000375396 0)
(-0.0101817 0.000394943 0)
(-0.0104198 0.000427394 0)
(-0.0106878 0.000486181 0)
(-0.0109996 0.000601775 0)
(-0.0113807 0.000833129 0)
(-0.0118822 0.00129044 0)
(-0.012254 0.00226026 0)
(-0.0128794 0.00355497 0)
(-2.45122e-05 0.000200574 0)
(-0.000146753 0.000403265 0)
(-0.000338813 0.000492536 0)
(-0.000537344 0.000528076 0)
(-0.000747019 0.000540402 0)
(-0.000958386 0.000544231 0)
(-0.00117039 0.000545447 0)
(-0.00138272 0.000546031 0)
(-0.00159523 0.000546541 0)
(-0.00180785 0.000547102 0)
(-0.00202058 0.000547727 0)
(-0.00223342 0.000548409 0)
(-0.00244637 0.000549136 0)
(-0.00265941 0.000549899 0)
(-0.00287256 0.000550689 0)
(-0.00308579 0.000551495 0)
(-0.0032991 0.000552307 0)
(-0.00351248 0.000553117 0)
(-0.0037259 0.000553913 0)
(-0.00393936 0.000554684 0)
(-0.00415281 0.000555419 0)
(-0.00436624 0.000556106 0)
(-0.00457961 0.000556731 0)
(-0.00479288 0.000557282 0)
(-0.00500602 0.000557744 0)
(-0.00521898 0.000558104 0)
(-0.0054317 0.000558347 0)
(-0.00564413 0.000558458 0)
(-0.00585621 0.000558424 0)
(-0.00606788 0.00055823 0)
(-0.00627906 0.000557863 0)
(-0.00648969 0.000557312 0)
(-0.00669968 0.000556567 0)
(-0.00690897 0.000555621 0)
(-0.00711747 0.00055447 0)
(-0.0073251 0.000553116 0)
(-0.0075318 0.000551565 0)
(-0.00773749 0.000549835 0)
(-0.00794212 0.000547953 0)
(-0.00814564 0.000545958 0)
(-0.00834803 0.000543913 0)
(-0.00854931 0.000541901 0)
(-0.00874952 0.000540038 0)
(-0.00894877 0.000538484 0)
(-0.00914724 0.000537455 0)
(-0.00934523 0.000537244 0)
(-0.00954316 0.000538249 0)
(-0.00974165 0.000541019 0)
(-0.00994162 0.000546315 0)
(-0.0101443 0.000555226 0)
(-0.0103517 0.000569359 0)
(-0.0105664 0.000591219 0)
(-0.0107923 0.00062499 0)
(-0.0110349 0.000678256 0)
(-0.0113007 0.000765592 0)
(-0.0115954 0.000913986 0)
(-0.0119219 0.00116838 0)
(-0.0122564 0.00160395 0)
(-0.0124564 0.00234183 0)
(-0.0125548 0.00322141 0)
(-2.49001e-05 0.000286964 0)
(-0.000150715 0.000567352 0)
(-0.000348514 0.000689897 0)
(-0.000552386 0.000738289 0)
(-0.000767539 0.000755197 0)
(-0.000984251 0.000760568 0)
(-0.00120154 0.000762318 0)
(-0.00141915 0.000763129 0)
(-0.00163691 0.000763775 0)
(-0.00185477 0.000764442 0)
(-0.00207273 0.000765162 0)
(-0.00229077 0.000765932 0)
(-0.00250889 0.000766743 0)
(-0.00272708 0.000767582 0)
(-0.00294533 0.000768438 0)
(-0.00316364 0.000769299 0)
(-0.00338198 0.000770153 0)
(-0.00360035 0.000770986 0)
(-0.00381872 0.000771785 0)
(-0.00403706 0.000772534 0)
(-0.00425536 0.000773219 0)
(-0.00447358 0.000773822 0)
(-0.00469168 0.000774327 0)
(-0.00490963 0.000774716 0)
(-0.00512738 0.00077497 0)
(-0.00534488 0.000775071 0)
(-0.00556208 0.000775 0)
(-0.00577891 0.000774737 0)
(-0.00599533 0.000774263 0)
(-0.00621125 0.000773561 0)
(-0.0064266 0.000772613 0)
(-0.00664132 0.000771404 0)
(-0.00685531 0.000769922 0)
(-0.00706849 0.000768158 0)
(-0.00728079 0.000766108 0)
(-0.00749212 0.000763776 0)
(-0.00770239 0.000761174 0)
(-0.00791153 0.000758325 0)
(-0.00811946 0.000755268 0)
(-0.00832614 0.000752063 0)
(-0.00853151 0.000748794 0)
(-0.00873557 0.000745581 0)
(-0.00893833 0.000742585 0)
(-0.00913985 0.00074003 0)
(-0.00934027 0.000738219 0)
(-0.00953979 0.000737559 0)
(-0.00973873 0.00073861 0)
(-0.00993755 0.000742139 0)
(-0.0101369 0.000749216 0)
(-0.0103377 0.000761359 0)
(-0.0105412 0.000780778 0)
(-0.0107489 0.000810794 0)
(-0.0109629 0.000856563 0)
(-0.0111852 0.000926398 0)
(-0.0114169 0.00103385 0)
(-0.0116557 0.00120004 0)
(-0.0118909 0.00145555 0)
(-0.0120849 0.0018415 0)
(-0.0121546 0.00238825 0)
(-0.0120621 0.00301081 0)
(-2.47598e-05 0.000373773 0)
(-0.0001516 0.000733396 0)
(-0.000351398 0.000889593 0)
(-0.00055708 0.000950807 0)
(-0.000774118 0.000972173 0)
(-0.000992611 0.000978986 0)
(-0.00121164 0.000981213 0)
(-0.00143096 0.000982223 0)
(-0.00165042 0.000982989 0)
(-0.00186998 0.000983752 0)
(-0.00208962 0.000984558 0)
(-0.00230936 0.000985405 0)
(-0.00252916 0.000986285 0)
(-0.00274904 0.000987186 0)
(-0.00296897 0.000988092 0)
(-0.00318895 0.000988991 0)
(-0.00340896 0.000989867 0)
(-0.00362898 0.000990703 0)
(-0.003849 0.000991482 0)
(-0.00406899 0.000992186 0)
(-0.00428892 0.000992796 0)
(-0.00450877 0.000993291 0)
(-0.00472849 0.000993649 0)
(-0.00494804 0.000993849 0)
(-0.00516739 0.000993867 0)
(-0.00538647 0.000993679 0)
(-0.00560524 0.000993262 0)
(-0.00582364 0.000992592 0)
(-0.0060416 0.000991644 0)
(-0.00625905 0.000990395 0)
(-0.00647591 0.000988825 0)
(-0.00669211 0.000986914 0)
(-0.00690757 0.000984645 0)
(-0.00712218 0.000982009 0)
(-0.00733587 0.000978999 0)
(-0.00754853 0.000975618 0)
(-0.00776009 0.000971882 0)
(-0.00797043 0.000967818 0)
(-0.00817949 0.000963473 0)
(-0.00838716 0.000958919 0)
(-0.00859339 0.000954258 0)
(-0.00879812 0.000949632 0)
(-0.00900132 0.000945238 0)
(-0.00920297 0.000941343 0)
(-0.00940311 0.000938308 0)
(-0.00960183 0.000936616 0)
(-0.00979926 0.000936922 0)
(-0.00999562 0.000940115 0)
(-0.0101912 0.000947407 0)
(-0.0103864 0.000960475 0)
(-0.0105816 0.00098167 0)
(-0.0107773 0.00101433 0)
(-0.0109737 0.00106326 0)
(-0.01117 0.00113549 0)
(-0.0113636 0.00124114 0)
(-0.0115477 0.00139405 0)
(-0.0117066 0.00161159 0)
(-0.0118075 0.00191145 0)
(-0.0118008 0.0022931 0)
(-0.011643 0.00270973 0)
(-2.45711e-05 0.000460517 0)
(-0.000151556 0.000899998 0)
(-0.000351894 0.00109002 0)
(-0.000558083 0.00116408 0)
(-0.000775689 0.00118986 0)
(-0.000994698 0.00119806 0)
(-0.00121422 0.00120074 0)
(-0.00143401 0.00120194 0)
(-0.00165394 0.00120282 0)
(-0.00187397 0.00120368 0)
(-0.0020941 0.00120457 0)
(-0.00231431 0.0012055 0)
(-0.00253461 0.00120646 0)
(-0.00275498 0.00120742 0)
(-0.00297542 0.00120838 0)
(-0.00319591 0.00120932 0)
(-0.00341645 0.00121022 0)
(-0.00363701 0.00121107 0)
(-0.00385758 0.00121183 0)
(-0.00407813 0.0012125 0)
(-0.00429863 0.00121304 0)
(-0.00451906 0.00121343 0)
(-0.00473938 0.00121365 0)
(-0.00495956 0.00121367 0)
(-0.00517953 0.00121346 0)
(-0.00539926 0.00121299 0)
(-0.0056187 0.00121223 0)
(-0.00583777 0.00121116 0)
(-0.00605642 0.00120974 0)
(-0.00627457 0.00120794 0)
(-0.00649215 0.00120575 0)
(-0.00670907 0.00120313 0)
(-0.00692524 0.00120007 0)
(-0.00714058 0.00119654 0)
(-0.00735497 0.00119255 0)
(-0.00756833 0.00118808 0)
(-0.00778053 0.00118316 0)
(-0.00799148 0.00117782 0)
(-0.00820105 0.00117209 0)
(-0.00840915 0.00116607 0)
(-0.00861566 0.00115985 0)
(-0.00882049 0.0011536 0)
(-0.00902352 0.00114752 0)
(-0.00922468 0.00114191 0)
(-0.00942388 0.00113715 0)
(-0.00962106 0.00113375 0)
(-0.00981617 0.00113241 0)
(-0.0100091 0.00113404 0)
(-0.0101999 0.00113987 0)
(-0.0103883 0.00115153 0)
(-0.010574 0.00117125 0)
(-0.0107565 0.001202 0)
(-0.0109346 0.00124783 0)
(-0.0111057 0.00131409 0)
(-0.0112654 0.0014077 0)
(-0.0114053 0.00153685 0)
(-0.0115106 0.00170987 0)
(-0.0115572 0.00193118 0)
(-0.0115143 0.00219125 0)
(-0.0113527 0.00246016 0)
(-2.44214e-05 0.000547072 0)
(-0.00015128 0.00106669 0)
(-0.000351645 0.00129064 0)
(-0.000557901 0.0013776 0)
(-0.000775627 0.00140779 0)
(-0.00099474 0.00141738 0)
(-0.00121435 0.0014205 0)
(-0.00143424 0.00142187 0)
(-0.00165425 0.00142287 0)
(-0.00187438 0.00142383 0)
(-0.00209461 0.00142482 0)
(-0.00231493 0.00142584 0)
(-0.00253535 0.00142688 0)
(-0.00275586 0.00142792 0)
(-0.00297645 0.00142895 0)
(-0.00319712 0.00142995 0)
(-0.00341784 0.00143089 0)
(-0.00363861 0.00143176 0)
(-0.0038594 0.00143253 0)
(-0.0040802 0.00143317 0)
(-0.00430098 0.00143367 0)
(-0.00452171 0.00143398 0)
(-0.00474235 0.00143408 0)
(-0.00496287 0.00143393 0)
(-0.00518323 0.00143352 0)
(-0.00540336 0.00143279 0)
(-0.00562323 0.00143171 0)
(-0.00584277 0.00143026 0)
(-0.00606191 0.00142839 0)
(-0.00628058 0.00142608 0)
(-0.00649869 0.00142328 0)
(-0.00671618 0.00141997 0)
(-0.00693293 0.00141611 0)
(-0.00714886 0.0014117 0)
(-0.00736384 0.00140671 0)
(-0.00757778 0.00140115 0)
(-0.00779054 0.001395 0)
(-0.00800201 0.00138832 0)
(-0.00821204 0.00138113 0)
(-0.00842049 0.00137351 0)
(-0.00862722 0.00136557 0)
(-0.00883207 0.00135747 0)
(-0.00903487 0.00134941 0)
(-0.00923546 0.00134168 0)
(-0.00943364 0.00133466 0)
(-0.00962919 0.00132885 0)
(-0.00982187 0.00132492 0)
(-0.0100114 0.00132374 0)
(-0.0101973 0.00132642 0)
(-0.010379 0.00133443 0)
(-0.0105557 0.00134967 0)
(-0.0107261 0.00137456 0)
(-0.0108881 0.00141214 0)
(-0.0110384 0.00146611 0)
(-0.0111718 0.00154067 0)
(-0.0112804 0.00163999 0)
(-0.0113521 0.00176689 0)
(-0.0113701 0.00191991 0)
(-0.0113157 0.00208845 0)
(-0.0111718 0.00225095 0)
(-2.43027e-05 0.000633405 0)
(-0.000150955 0.00123325 0)
(-0.000351176 0.00149121 0)
(-0.000557358 0.00159113 0)
(-0.000775054 0.00162575 0)
(-0.00099414 0.00163672 0)
(-0.00121373 0.00164026 0)
(-0.00143359 0.00164182 0)
(-0.00165359 0.00164294 0)
(-0.0018737 0.00164401 0)
(-0.00209392 0.00164511 0)
(-0.00231426 0.00164623 0)
(-0.0025347 0.00164737 0)
(-0.00275526 0.0016485 0)
(-0.00297591 0.00164962 0)
(-0.00319665 0.00165069 0)
(-0.00341748 0.0016517 0)
(-0.00363838 0.00165262 0)
(-0.00385933 0.00165341 0)
(-0.00408031 0.00165406 0)
(-0.0043013 0.00165453 0)
(-0.00452227 0.00165479 0)
(-0.00474318 0.0016548 0)
(-0.00496401 0.00165453 0)
(-0.00518471 0.00165394 0)
(-0.00540523 0.00165299 0)
(-0.00562551 0.00165163 0)
(-0.0058455 0.00164983 0)
(-0.00606513 0.00164755 0)
(-0.00628433 0.00164474 0)
(-0.00650301 0.00164136 0)
(-0.00672108 0.00163738 0)
(-0.00693845 0.00163276 0)
(-0.00715502 0.00162747 0)
(-0.00737066 0.00162149 0)
(-0.00758525 0.0016148 0)
(-0.00779865 0.00160741 0)
(-0.00801072 0.00159934 0)
(-0.0082213 0.0015906 0)
(-0.00843021 0.00158128 0)
(-0.00863727 0.00157146 0)
(-0.00884227 0.00156128 0)
(-0.00904499 0.00155094 0)
(-0.00924516 0.0015407 0)
(-0.0094425 0.00153091 0)
(-0.00963665 0.00152201 0)
(-0.0098272 0.00151461 0)
(-0.0100136 0.00150945 0)
(-0.0101953 0.00150749 0)
(-0.0103712 0.00150994 0)
(-0.0105403 0.00151829 0)
(-0.0107006 0.00153432 0)
(-0.0108499 0.00156014 0)
(-0.0109846 0.00159802 0)
(-0.0110997 0.00165017 0)
(-0.0111883 0.00171814 0)
(-0.0112412 0.00180178 0)
(-0.011247 0.00189742 0)
(-0.0111944 0.00199561 0)
(-0.0110741 0.00208059 0)
(-2.41971e-05 0.000719516 0)
(-0.000150614 0.0013996 0)
(-0.000350627 0.00169163 0)
(-0.000556685 0.00180457 0)
(-0.000774296 0.00184364 0)
(-0.00099331 0.00185599 0)
(-0.00121283 0.00185998 0)
(-0.00143263 0.00186172 0)
(-0.00165258 0.00186297 0)
(-0.00187265 0.00186416 0)
(-0.00209284 0.00186537 0)
(-0.00231317 0.00186661 0)
(-0.00253361 0.00186787 0)
(-0.00275419 0.00186912 0)
(-0.00297488 0.00187034 0)
(-0.0031957 0.00187151 0)
(-0.00341662 0.00187261 0)
(-0.00363763 0.0018736 0)
(-0.00385873 0.00187445 0)
(-0.0040799 0.00187514 0)
(-0.0043011 0.00187562 0)
(-0.00452232 0.00187586 0)
(-0.00474353 0.00187582 0)
(-0.00496469 0.00187546 0)
(-0.00518576 0.00187473 0)
(-0.00540669 0.00187359 0)
(-0.00562743 0.00187199 0)
(-0.00584792 0.00186989 0)
(-0.0060681 0.00186723 0)
(-0.00628789 0.00186396 0)
(-0.0065072 0.00186005 0)
(-0.00672595 0.00185543 0)
(-0.00694404 0.00185007 0)
(-0.00716134 0.00184392 0)
(-0.00737774 0.00183696 0)
(-0.00759311 0.00182916 0)
(-0.00780728 0.00182051 0)
(-0.00802011 0.001811 0)
(-0.0082314 0.00180065 0)
(-0.00844095 0.00178952 0)
(-0.00864855 0.00177768 0)
(-0.00885393 0.00176523 0)
(-0.00905681 0.00175234 0)
(-0.00925686 0.00173923 0)
(-0.0094537 0.00172619 0)
(-0.00964688 0.00171361 0)
(-0.00983584 0.00170196 0)
(-0.0100199 0.00169186 0)
(-0.0101982 0.00168406 0)
(-0.0103697 0.00167947 0)
(-0.0105328 0.00167916 0)
(-0.0106858 0.00168434 0)
(-0.010826 0.00169629 0)
(-0.0109501 0.00171621 0)
(-0.0110536 0.00174494 0)
(-0.011131 0.00178248 0)
(-0.0111753 0.00182723 0)
(-0.011179 0.001875 0)
(-0.0111351 0.00191799 0)
(-0.0110389 0.00194474 0)
(-2.40925e-05 0.000805402 0)
(-0.000150251 0.0015657 0)
(-0.000350025 0.00189186 0)
(-0.000555934 0.00201788 0)
(-0.000773433 0.00206143 0)
(-0.000992353 0.00207518 0)
(-0.00121179 0.00207962 0)
(-0.00143152 0.00208155 0)
(-0.0016514 0.00208294 0)
(-0.00187142 0.00208426 0)
(-0.00209157 0.00208561 0)
(-0.00231187 0.00208699 0)
(-0.00253232 0.00208838 0)
(-0.00275291 0.00208976 0)
(-0.00297365 0.00209112 0)
(-0.00319454 0.00209241 0)
(-0.00341555 0.00209363 0)
(-0.0036367 0.00209472 0)
(-0.00385796 0.00209567 0)
(-0.00407932 0.00209642 0)
(-0.00430077 0.00209695 0)
(-0.00452226 0.00209722 0)
(-0.00474379 0.00209717 0)
(-0.00496532 0.00209676 0)
(-0.0051868 0.00209594 0)
(-0.00540819 0.00209466 0)
(-0.00562945 0.00209287 0)
(-0.00585051 0.0020905 0)
(-0.0060713 0.00208752 0)
(-0.00629176 0.00208385 0)
(-0.0065118 0.00207943 0)
(-0.00673132 0.00207422 0)
(-0.00695023 0.00206816 0)
(-0.00716839 0.00206119 0)
(-0.00738569 0.00205328 0)
(-0.00760198 0.00204437 0)
(-0.0078171 0.00203444 0)
(-0.00803086 0.00202348 0)
(-0.00824306 0.00201148 0)
(-0.00845348 0.00199846 0)
(-0.00866186 0.00198447 0)
(-0.00886791 0.00196959 0)
(-0.00907128 0.00195393 0)
(-0.00927161 0.00193765 0)
(-0.00946842 0.00192099 0)
(-0.00966119 0.00190422 0)
(-0.00984926 0.00188771 0)
(-0.0100319 0.00187191 0)
(-0.010208 0.00185736 0)
(-0.0103764 0.00184468 0)
(-0.0105357 0.00183456 0)
(-0.0106838 0.0018277 0)
(-0.0108184 0.00182474 0)
(-0.0109363 0.00182611 0)
(-0.0110338 0.00183175 0)
(-0.0111065 0.00184082 0)
(-0.0111492 0.00185116 0)
(-0.0111569 0.00185876 0)
(-0.0111252 0.00185737 0)
(-0.0110518 0.00183868 0)
(-2.3982e-05 0.00089105 0)
(-0.00014986 0.00173154 0)
(-0.000349368 0.0020919 0)
(-0.000555111 0.00223105 0)
(-0.000772478 0.00227911 0)
(-0.000991288 0.00229428 0)
(-0.00121063 0.00229917 0)
(-0.00143027 0.00230131 0)
(-0.00165008 0.00230285 0)
(-0.00187003 0.00230432 0)
(-0.00209015 0.00230581 0)
(-0.00231042 0.00230734 0)
(-0.00253086 0.00230889 0)
(-0.00275148 0.00231044 0)
(-0.00297226 0.00231195 0)
(-0.00319322 0.0023134 0)
(-0.00341434 0.00231476 0)
(-0.00363563 0.00231599 0)
(-0.00385707 0.00231707 0)
(-0.00407865 0.00231793 0)
(-0.00430035 0.00231855 0)
(-0.00452215 0.00231888 0)
(-0.00474403 0.00231887 0)
(-0.00496596 0.00231846 0)
(-0.0051879 0.00231761 0)
(-0.00540981 0.00231624 0)
(-0.00563164 0.00231431 0)
(-0.00585333 0.00231175 0)
(-0.00607481 0.00230849 0)
(-0.00629603 0.00230447 0)
(-0.00651688 0.00229962 0)
(-0.00673728 0.00229387 0)
(-0.00695712 0.00228715 0)
(-0.00717628 0.00227941 0)
(-0.00739462 0.00227057 0)
(-0.007612 0.00226059 0)
(-0.00782823 0.00224941 0)
(-0.00804313 0.00223699 0)
(-0.00825648 0.00222331 0)
(-0.00846802 0.00220836 0)
(-0.00867748 0.00219215 0)
(-0.00888454 0.00217471 0)
(-0.00908881 0.0021561 0)
(-0.00928986 0.00213643 0)
(-0.0094872 0.00211585 0)
(-0.00968022 0.00209453 0)
(-0.00986821 0.00207272 0)
(-0.0100503 0.00205069 0)
(-0.0102255 0.00202879 0)
(-0.0103926 0.00200736 0)
(-0.0105499 0.00198677 0)
(-0.0106957 0.00196731 0)
(-0.0108277 0.00194915 0)
(-0.0109432 0.00193216 0)
(-0.011039 0.00191578 0)
(-0.0111117 0.00189872 0)
(-0.0111575 0.00187871 0)
(-0.0111729 0.00185219 0)
(-0.0111552 0.00181424 0)
(-0.0111033 0.00175879 0)
(-2.38625e-05 0.000976441 0)
(-0.000149433 0.00189708 0)
(-0.00034865 0.00229172 0)
(-0.000554208 0.00244406 0)
(-0.000771428 0.00249666 0)
(-0.000990113 0.00251327 0)
(-0.00120934 0.00251863 0)
(-0.00142888 0.00252098 0)
(-0.00164861 0.00252269 0)
(-0.00186849 0.00252431 0)
(-0.00208856 0.00252598 0)
(-0.0023088 0.00252769 0)
(-0.00252923 0.00252942 0)
(-0.00274987 0.00253114 0)
(-0.0029707 0.00253284 0)
(-0.00319173 0.00253448 0)
(-0.00341297 0.00253602 0)
(-0.0036344 0.00253743 0)
(-0.00385603 0.00253867 0)
(-0.00407784 0.00253969 0)
(-0.00429982 0.00254045 0)
(-0.00452196 0.00254089 0)
(-0.00474422 0.00254097 0)
(-0.00496659 0.00254062 0)
(-0.00518903 0.00253978 0)
(-0.0054115 0.00253839 0)
(-0.00563395 0.00253638 0)
(-0.00585634 0.00253368 0)
(-0.0060786 0.00253022 0)
(-0.00630065 0.00252592 0)
(-0.00652241 0.0025207 0)
(-0.0067438 0.00251447 0)
(-0.0069647 0.00250717 0)
(-0.00718498 0.00249871 0)
(-0.00740452 0.00248901 0)
(-0.00762316 0.002478 0)
(-0.0078407 0.00246561 0)
(-0.00805696 0.00245176 0)
(-0.0082717 0.00243641 0)
(-0.00848466 0.00241951 0)
(-0.00869553 0.00240104 0)
(-0.00890396 0.00238097 0)
(-0.00910957 0.00235932 0)
(-0.00931187 0.00233612 0)
(-0.00951034 0.00231142 0)
(-0.00970433 0.00228532 0)
(-0.00989311 0.00225792 0)
(-0.0100758 0.00222935 0)
(-0.0102513 0.00219975 0)
(-0.0104185 0.00216925 0)
(-0.0105758 0.00213793 0)
(-0.0107215 0.00210578 0)
(-0.0108536 0.00207261 0)
(-0.0109697 0.00203795 0)
(-0.0110673 0.00200092 0)
(-0.0111436 0.00196009 0)
(-0.0111958 0.00191325 0)
(-0.0112213 0.00185738 0)
(-0.0112186 0.00178859 0)
(-0.0111868 0.0017024 0)
(-2.37323e-05 0.00106155 0)
(-0.000148967 0.0020623 0)
(-0.000347865 0.0024913 0)
(-0.000553219 0.00265689 0)
(-0.000770273 0.00271407 0)
(-0.000988817 0.00273213 0)
(-0.00120792 0.00273797 0)
(-0.00142735 0.00274056 0)
(-0.00164697 0.00274244 0)
(-0.00186678 0.00274425 0)
(-0.00208678 0.0027461 0)
(-0.00230699 0.00274801 0)
(-0.00252741 0.00274994 0)
(-0.00274805 0.00275188 0)
(-0.00296893 0.0027538 0)
(-0.00319004 0.00275566 0)
(-0.00341139 0.00275742 0)
(-0.00363298 0.00275904 0)
(-0.00385481 0.00276049 0)
(-0.00407687 0.00276171 0)
(-0.00429915 0.00276266 0)
(-0.00452164 0.00276327 0)
(-0.00474431 0.00276349 0)
(-0.00496715 0.00276326 0)
(-0.00519013 0.00276251 0)
(-0.00541321 0.00276116 0)
(-0.00563634 0.00275915 0)
(-0.00585949 0.00275639 0)
(-0.00608258 0.0027528 0)
(-0.00630556 0.00274829 0)
(-0.00652833 0.00274277 0)
(-0.00675081 0.00273616 0)
(-0.00697289 0.00272835 0)
(-0.00719444 0.00271925 0)
(-0.00741534 0.00270877 0)
(-0.00763541 0.0026968 0)
(-0.00785448 0.00268325 0)
(-0.00807233 0.00266803 0)
(-0.00828873 0.00265105 0)
(-0.0085034 0.00263223 0)
(-0.00871603 0.00261151 0)
(-0.00892626 0.0025888 0)
(-0.00913366 0.00256408 0)
(-0.00933776 0.00253728 0)
(-0.009538 0.0025084 0)
(-0.00973372 0.00247741 0)
(-0.00992418 0.0024443 0)
(-0.0101085 0.00240905 0)
(-0.0102856 0.00237165 0)
(-0.0104544 0.00233202 0)
(-0.0106134 0.00229002 0)
(-0.010761 0.00224541 0)
(-0.0108955 0.00219774 0)
(-0.0110148 0.00214635 0)
(-0.0111169 0.00209018 0)
(-0.0111994 0.00202778 0)
(-0.0112602 0.00195712 0)
(-0.0112976 0.00187563 0)
(-0.0113102 0.00178026 0)
(-0.0112977 0.00166761 0)
(-2.35905e-05 0.00114635 0)
(-0.00014846 0.00222717 0)
(-0.000347008 0.00269061 0)
(-0.000552136 0.00286953 0)
(-0.000769005 0.00293132 0)
(-0.00098739 0.00295085 0)
(-0.00120635 0.00295719 0)
(-0.00142565 0.00296002 0)
(-0.00164516 0.0029621 0)
(-0.00186488 0.0029641 0)
(-0.00208481 0.00296617 0)
(-0.00230496 0.00296829 0)
(-0.00252536 0.00297046 0)
(-0.00274601 0.00297265 0)
(-0.00296692 0.00297481 0)
(-0.00318811 0.00297693 0)
(-0.00340958 0.00297895 0)
(-0.00363133 0.00298084 0)
(-0.00385336 0.00298254 0)
(-0.00407568 0.00298402 0)
(-0.00429827 0.0029852 0)
(-0.00452113 0.00298604 0)
(-0.00474424 0.00298647 0)
(-0.00496758 0.00298643 0)
(-0.00519113 0.00298583 0)
(-0.00541486 0.0029846 0)
(-0.00563873 0.00298266 0)
(-0.00586269 0.00297992 0)
(-0.0060867 0.00297629 0)
(-0.00631067 0.00297166 0)
(-0.00653454 0.00296595 0)
(-0.00675822 0.00295904 0)
(-0.0069816 0.00295082 0)
(-0.00720457 0.00294118 0)
(-0.00742698 0.00293 0)
(-0.00764868 0.00291717 0)
(-0.00786948 0.00290255 0)
(-0.00808916 0.00288605 0)
(-0.0083075 0.00286752 0)
(-0.0085242 0.00284686 0)
(-0.00873896 0.00282394 0)
(-0.0089514 0.00279866 0)
(-0.00916109 0.00277089 0)
(-0.00936755 0.00274054 0)
(-0.00957022 0.00270748 0)
(-0.00976844 0.00267162 0)
(-0.00996147 0.00263282 0)
(-0.0101484 0.00259094 0)
(-0.0103284 0.00254581 0)
(-0.0105001 0.00249721 0)
(-0.0106624 0.00244481 0)
(-0.0108138 0.0023882 0)
(-0.0109526 0.00232677 0)
(-0.0110773 0.00225971 0)
(-0.0111859 0.0021859 0)
(-0.0112767 0.00210393 0)
(-0.0113479 0.00201197 0)
(-0.0113982 0.00190786 0)
(-0.0114266 0.00178911 0)
(-0.0114327 0.00165313 0)
(-2.34363e-05 0.00123082 0)
(-0.000147907 0.00239165 0)
(-0.000346072 0.00288962 0)
(-0.000550951 0.00308194 0)
(-0.000767614 0.00314838 0)
(-0.00098582 0.00316941 0)
(-0.00120462 0.00317626 0)
(-0.00142377 0.00317935 0)
(-0.00164316 0.00318164 0)
(-0.00186276 0.00318387 0)
(-0.0020826 0.00318617 0)
(-0.00230269 0.00318854 0)
(-0.00252306 0.00319097 0)
(-0.0027437 0.00319343 0)
(-0.00296465 0.00319588 0)
(-0.00318591 0.00319829 0)
(-0.00340748 0.00320062 0)
(-0.00362939 0.00320281 0)
(-0.00385163 0.00320483 0)
(-0.00407421 0.00320661 0)
(-0.00429712 0.00320809 0)
(-0.00452036 0.00320923 0)
(-0.00474393 0.00320994 0)
(-0.0049678 0.00321015 0)
(-0.00519196 0.00320978 0)
(-0.00541638 0.00320875 0)
(-0.00564103 0.00320697 0)
(-0.00586586 0.00320435 0)
(-0.00609084 0.00320077 0)
(-0.00631589 0.00319613 0)
(-0.00654096 0.00319033 0)
(-0.00676594 0.00318323 0)
(-0.00699075 0.00317471 0)
(-0.00721526 0.00316464 0)
(-0.00743935 0.00315289 0)
(-0.00766286 0.00313931 0)
(-0.0078856 0.00312376 0)
(-0.00810736 0.00310608 0)
(-0.00832792 0.00308613 0)
(-0.00854698 0.00306374 0)
(-0.00876423 0.00303875 0)
(-0.00897931 0.00301099 0)
(-0.00919178 0.0029803 0)
(-0.00940117 0.0029465 0)
(-0.00960692 0.00290939 0)
(-0.00980839 0.00286877 0)
(-0.0100049 0.00282443 0)
(-0.0101955 0.0027761 0)
(-0.0103794 0.0027235 0)
(-0.0105554 0.00266625 0)
(-0.0107224 0.00260391 0)
(-0.0108791 0.00253592 0)
(-0.011024 0.00246156 0)
(-0.0111557 0.00237995 0)
(-0.0112727 0.00228995 0)
(-0.0113733 0.00219021 0)
(-0.0114563 0.00207908 0)
(-0.0115205 0.00195473 0)
(-0.0115649 0.00181511 0)
(-0.0115894 0.00165817 0)
(-2.32694e-05 0.00131493 0)
(-0.000147306 0.00255571 0)
(-0.000345054 0.00308831 0)
(-0.000549658 0.00329411 0)
(-0.000766091 0.00336524 0)
(-0.000984096 0.00338778 0)
(-0.00120271 0.00339517 0)
(-0.0014217 0.00339854 0)
(-0.00164094 0.00340106 0)
(-0.00186041 0.00340353 0)
(-0.00208014 0.00340608 0)
(-0.00230016 0.00340873 0)
(-0.00252047 0.00341146 0)
(-0.0027411 0.00341422 0)
(-0.00296206 0.003417 0)
(-0.00318338 0.00341975 0)
(-0.00340506 0.00342242 0)
(-0.00362712 0.00342497 0)
(-0.00384957 0.00342734 0)
(-0.00407241 0.00342949 0)
(-0.00429565 0.00343134 0)
(-0.00451928 0.00343284 0)
(-0.00474332 0.0034339 0)
(-0.00496773 0.00343444 0)
(-0.00519252 0.0034344 0)
(-0.00541767 0.00343366 0)
(-0.00564314 0.00343214 0)
(-0.0058689 0.00342973 0)
(-0.00609491 0.00342631 0)
(-0.00632112 0.00342178 0)
(-0.00654745 0.003416 0)
(-0.00677384 0.00340883 0)
(-0.00700019 0.00340015 0)
(-0.00722639 0.00338979 0)
(-0.00745231 0.00337761 0)
(-0.00767781 0.00336343 0)
(-0.0079027 0.00334709 0)
(-0.00812679 0.0033284 0)
(-0.00834985 0.00330717 0)
(-0.00857159 0.00328322 0)
(-0.0087917 0.00325632 0)
(-0.00900984 0.00322627 0)
(-0.00922559 0.00319283 0)
(-0.00943847 0.00315576 0)
(-0.00964794 0.0031148 0)
(-0.0098534 0.00306967 0)
(-0.0100541 0.00302005 0)
(-0.0102494 0.00296558 0)
(-0.0104382 0.00290586 0)
(-0.0106197 0.00284043 0)
(-0.0107927 0.00276872 0)
(-0.0109561 0.00269008 0)
(-0.0111086 0.00260371 0)
(-0.0112489 0.00250867 0)
(-0.0113756 0.00240385 0)
(-0.0114875 0.00228794 0)
(-0.0115834 0.00215948 0)
(-0.0116622 0.00201685 0)
(-0.0117232 0.00185834 0)
(-0.0117658 0.00168228 0)
(-2.3089e-05 0.00139865 0)
(-0.000146656 0.00271932 0)
(-0.000343947 0.00328666 0)
(-0.000548247 0.00350601 0)
(-0.000764425 0.00358188 0)
(-0.000982206 0.00360596 0)
(-0.00120061 0.00361389 0)
(-0.00141941 0.00361755 0)
(-0.00163848 0.00362033 0)
(-0.0018578 0.00362306 0)
(-0.00207741 0.00362589 0)
(-0.00229732 0.00362885 0)
(-0.00251756 0.00363189 0)
(-0.00273816 0.00363501 0)
(-0.00295913 0.00363815 0)
(-0.00318049 0.00364127 0)
(-0.00340226 0.00364434 0)
(-0.00362447 0.0036473 0)
(-0.00384711 0.00365009 0)
(-0.00407021 0.00365267 0)
(-0.00429378 0.00365495 0)
(-0.00451781 0.00365688 0)
(-0.00474232 0.00365837 0)
(-0.0049673 0.00365934 0)
(-0.00519274 0.0036597 0)
(-0.00541864 0.00365935 0)
(-0.00564496 0.0036582 0)
(-0.00587169 0.00365611 0)
(-0.00609879 0.00365298 0)
(-0.00632621 0.00364867 0)
(-0.0065539 0.00364305 0)
(-0.00678179 0.00363597 0)
(-0.00700979 0.00362726 0)
(-0.0072378 0.00361677 0)
(-0.00746571 0.00360432 0)
(-0.00769338 0.00358972 0)
(-0.00792063 0.00357276 0)
(-0.00814728 0.00355325 0)
(-0.0083731 0.00353095 0)
(-0.00859783 0.00350564 0)
(-0.00882118 0.00347705 0)
(-0.0090428 0.00344493 0)
(-0.00926229 0.00340899 0)
(-0.0094792 0.00336893 0)
(-0.00969301 0.00332441 0)
(-0.00990315 0.00327508 0)
(-0.010109 0.00322053 0)
(-0.0103097 0.00316034 0)
(-0.0105045 0.00309399 0)
(-0.0106925 0.00302094 0)
(-0.0108727 0.00294053 0)
(-0.0110441 0.00285204 0)
(-0.0112054 0.0027546 0)
(-0.0113556 0.00264726 0)
(-0.0114934 0.0025289 0)
(-0.0116177 0.00239829 0)
(-0.0117274 0.00225408 0)
(-0.0118216 0.00209482 0)
(-0.0118995 0.00191905 0)
(-0.0119606 0.00172536 0)
(-2.28947e-05 0.00148194 0)
(-0.000145953 0.00288243 0)
(-0.000342747 0.00348461 0)
(-0.000546713 0.00371761 0)