/*--------------------------------*- C++ -*----------------------------------*\
  =========                 |
  \\      /  F ield         | OpenFOAM: The Open Source CFD Toolbox
   \\    /   O peration     | Website:  https://openfoam.org
    \\  /    A nd           | Version:  8
     \\/     M anipulation  |
\*---------------------------------------------------------------------------*/
FoamFile
{
    version     2.0;
    format      ascii;
    class       volScalarField;
    location    "23";
    object      p;
}
// * * * * * * * * * * * * * * * * * * * * * * * * * * * * * * * * * * * * * //

dimensions      [0 2 -2 0 0 0 0];

internalField   nonuniform List<scalar> 
116
(
-3.05672e-09
-0.000652825
-0.000299539
-0.00244218
0.0011933
-0.00786178
0.000144146
-0.000328924
0.000386138
-0.00168981
-0.00063378
-0.00315928
0.000236686
-7.75477e-05
8.14315e-05
-0.000891746
-0.00294937
-0.00802206
0.000286669
0.000137635
4.91305e-06
-0.000852469
-0.00402399
-0.0087847
0.000215896
8.37207e-05
-0.000326999
-0.000930019
-0.00460841
-0.00871415
-0.000204603
-0.000122888
-0.000658948
-0.000768645
-0.00334892
-0.00545315
9.86035e-05
-0.000217812
-0.000651318
-0.000823326
-0.00231946
-0.00398429
-0.000956676
-0.000414978
-0.000374217
0.000206399
-0.000295435
-0.000963025
0.000703395
-0.000987023
-0.000392733
-0.000595471
-0.000449443
-0.00156743
-0.00641223
0.000758726
0.00137875
0.00209082
0.00185272
0.000761032
0.000428229
0.00924168
0.00812679
0.0135186
-0.00527885
-0.000698071
0.00249321
0.00576223
-0.0112165
-0.00783486
-0.00381363
-0.00111951
-0.0128033
-0.0102085
-0.00790514
-0.00487856
-0.0123454
-0.00967894
-0.00901415
-0.00533934
-0.00784181
-0.00529536
-0.00653591
-0.00324033
-0.00630413
-0.00448717
-0.00683119
-0.000597185
-0.0016557
-0.000883831
-0.00197446
0.00663903
-0.00369897
-0.00317384
-0.00364579
0.0115004
0.000192468
0.00516524
0.0148275
0.0498477
0.0156164
0.0157185
0.0155292
0.0171088
0.0152192
0.0159616
0.0146961
0.0159876
0.0126245
0.0136265
0.0116234
0.0122907
0.0093849
0.0160768
0.0089898
0.0141928
)
;

boundaryField
{
    movingWall
    {
        type            zeroGradient;
    }
    fixedWalls
    {
        type            zeroGradient;
    }
    frontAndBack
    {
        type            empty;
    }
}


// ************************************************************************* //
