/*--------------------------------*- C++ -*----------------------------------*\
  =========                 |
  \\      /  F ield         | OpenFOAM: The Open Source CFD Toolbox
   \\    /   O peration     | Website:  https://openfoam.org
    \\  /    A nd           | Version:  8
     \\/     M anipulation  |
\*---------------------------------------------------------------------------*/
FoamFile
{
    version     2.0;
    format      ascii;
    class       surfaceScalarField;
    location    "23";
    object      phi;
}
// * * * * * * * * * * * * * * * * * * * * * * * * * * * * * * * * * * * * * //

dimensions      [0 3 -1 0 0 0 0];

internalField   nonuniform List<scalar> 
208
(
6.46472e-06
-6.46472e-06
1.7357e-05
-1.08923e-05
1.69643e-05
3.92723e-07
6.90564e-06
1.00586e-05
-5.83496e-05
6.52552e-05
8.37516e-05
-0.000142101
-1.99622e-06
-4.46849e-06
-9.74303e-06
-3.14546e-06
-3.27751e-05
2.34248e-05
-7.5676e-05
5.29595e-05
-0.000115004
0.000104584
9.72473e-05
-0.0001285
-6.31035e-06
1.84185e-06
-2.15951e-05
1.21393e-05
-4.22232e-05
4.40529e-05
-6.74418e-05
7.81781e-05
-8.66719e-05
0.000123814
9.81955e-05
-8.762e-05
-9.11026e-06
1.09521e-05
-2.12523e-05
2.42814e-05
-3.31728e-05
5.59733e-05
-4.2593e-05
8.75983e-05
-4.73606e-05
0.000128581
9.07492e-05
-3.99143e-05
-5.10619e-06
1.60583e-05
-1.38125e-05
3.29877e-05
-1.51382e-05
5.7299e-05
-9.50452e-06
8.19647e-05
-1.02878e-07
0.00011918
7.96785e-05
1.09678e-05
-4.78789e-06
2.08462e-05
-6.30957e-06
3.45094e-05
-2.71621e-07
5.12611e-05
1.1941e-05
6.97521e-05
2.66633e-05
0.000104457
7.26738e-05
3.3668e-05
6.03122e-07
2.02431e-05
-7.49457e-06
4.26071e-05
-4.27784e-06
4.80443e-05
9.02028e-06
5.6454e-05
3.43767e-05
7.91007e-05
5.82146e-05
4.8836e-05
4.11942e-06
1.61236e-05
9.73351e-06
3.6993e-05
1.57486e-05
4.20292e-05
2.25995e-05
4.96031e-05
4.28467e-05
5.88535e-05
5.02468e-05
5.08145e-05
-4.95925e-05
6.57161e-05
-4.81684e-05
3.5569e-05
-4.02502e-05
3.4111e-05
-2.18935e-05
3.12464e-05
7.20071e-06
2.97593e-05
2.69409e-05
3.05066e-05
6.57161e-05
0.000101285
0.000135396
0.000166642
0.000196402
0.000223343
-0.000123587
9.47269e-05
-0.000113241
-8.04096e-05
-5.52073e-05
1.20299e-05
-2.86533e-05
-4.30878e-05
-8.66852e-06
-0.000138533
0.00010988
-0.0001075
7.37271e-05
-9.44154e-05
-6.82921e-05
-4.6759e-05
-9.07443e-05
-0.000185292
-6.00223e-05
4.61293e-05
-5.36946e-05
-7.46198e-05
-3.30929e-05
-0.000111346
-0.000218385
-1.97325e-05
2.59475e-05
-2.3673e-05
-7.06793e-05
-1.87894e-05
-0.00011623
-0.000237174
1.9517e-05
1.73984e-05
2.01254e-06
-5.31749e-05
-8.38461e-06
-0.000105832
-0.000245559
3.55809e-05
1.54854e-05
1.5859e-05
-3.34529e-05
1.45629e-06
-9.14297e-05
-0.000244102
4.83061e-05
1.60153e-05
1.80167e-05
-3.16354e-06
-1.5266e-06
-7.18864e-05
-0.000245629
4.56833e-05
2.11464e-05
2.413e-05
1.83898e-05
1.83336e-05
-6.609e-05
-0.000227296
4.09609e-05
1.06922e-05
5.68677e-05
2.483e-06
5.91549e-05
-6.83772e-05
-0.000168141
0.000234035
0.000236518
0.000168141
-2.12992e-05
2.12992e-05
-3.40707e-05
1.27715e-05
-3.56052e-05
1.53446e-06
-3.56052e-05
-2.32411e-05
4.45403e-05
-3.04505e-05
1.99809e-05
-3.85701e-05
9.65403e-06
-7.41753e-05
-2.73414e-05
7.18817e-05
-1.70037e-05
9.64321e-06
-2.96523e-05
2.23027e-05
-0.000103828
-4.13593e-05
-1.96862e-05
-6.05205e-06
)
;

boundaryField
{
    movingWall
    {
        type            calculated;
        value           uniform 0;
    }
    fixedWalls
    {
        type            calculated;
        value           uniform 0;
    }
    frontAndBack
    {
        type            empty;
        value           nonuniform List<scalar> 0();
    }
}


// ************************************************************************* //
