0 	-4.52079e-09
1.57135 	4.80672e-07
3.1427 	7.19024e-06
4.71405 	3.55424e-05
6.28539 	0.000109946
7.85674 	0.000264162
9.42809 	0.000536392
10.9994 	0.000983245
12.5708 	0.00177093
14.1421 	0.00564091
