/*--------------------------------*- C++ -*----------------------------------*\
  =========                 |
  \\      /  F ield         | OpenFOAM: The Open Source CFD Toolbox
   \\    /   O peration     | Website:  https://openfoam.org
    \\  /    A nd           | Version:  8
     \\/     M anipulation  |
\*---------------------------------------------------------------------------*/
FoamFile
{
    version     2.0;
    format      ascii;
    class       volScalarField;
    location    "24.5";
    object      p;
}
// * * * * * * * * * * * * * * * * * * * * * * * * * * * * * * * * * * * * * //

dimensions      [0 2 -2 0 0 0 0];

internalField   nonuniform List<scalar> 
11600
(
-2.58256e-07
-7.62869e-07
-4.80688e-07
1.99612e-07
1.38789e-06
3.04278e-06
5.15794e-06
7.73094e-06
1.07605e-05
1.42463e-05
1.81892e-05
2.25903e-05
2.7451e-05
3.27732e-05
3.8559e-05
4.48108e-05
5.15313e-05
5.87233e-05
6.63896e-05
7.45335e-05
8.31579e-05
9.22662e-05
0.000101862
0.000111948
0.000122528
0.000133606
0.000145184
0.000157265
0.000169854
0.000182952
0.000196563
0.00021069
0.000225336
0.000240505
0.000256199
0.000272421
0.000289172
0.000306457
0.000324276
0.000342631
0.000361524
0.000380958
0.000400933
0.000421453
0.00044252
0.000464136
0.000486306
0.000509035
0.000532328
0.000556195
0.000580647
0.000605698
0.00063137
0.000657685
0.00068467
0.000712403
0.000741018
0.00076889
0.00080494
0.00082097
-2.82025e-07
-6.26665e-07
-2.2835e-07
4.97964e-07
1.709e-06
3.37422e-06
5.49319e-06
8.06693e-06
1.10956e-05
1.45795e-05
1.85196e-05
2.29172e-05
2.77741e-05
3.30921e-05
3.88732e-05
4.512e-05
5.1835e-05
5.90211e-05
6.66812e-05
7.48185e-05
8.34361e-05
9.25372e-05
0.000102125
0.000112204
0.000122776
0.000133844
0.000145413
0.000157486
0.000170064
0.000183153
0.000196754
0.000210871
0.000225507
0.000240665
0.000256348
0.000272559
0.0002893
0.000306574
0.000324382
0.000342726
0.000361609
0.000381032
0.000400998
0.000421509
0.000442567
0.000464176
0.000486341
0.000509066
0.00053236
0.000556232
0.000580696
0.000605773
0.000631492
0.000657895
0.00068505
0.000713096
0.00074217
0.000772122
0.000806904
0.000836194
-8.94661e-07
-1.2449e-06
-8.06506e-07
-6.42756e-08
1.15764e-06
2.82884e-06
4.95061e-06
7.52493e-06
1.05525e-05
1.40342e-05
1.79711e-05
2.23647e-05
2.72169e-05
3.25297e-05
3.83053e-05
4.45462e-05
5.1255e-05
5.84345e-05
6.60877e-05
7.42177e-05
8.28277e-05
9.1921e-05
0.000101501
0.000111571
0.000122134
0.000133194
0.000144754
0.000156818
0.000169387
0.000182467
0.00019606
0.000210168
0.000224796
0.000239946
0.000255621
0.000271824
0.000288557
0.000305823
0.000323623
0.000341959
0.000360835
0.00038025
0.000400209
0.000420712
0.000441762
0.000463363
0.000485517
0.000508231
0.000531509
0.000555361
0.000579798
0.000604838
0.000630502
0.00065682
0.000683839
0.000711636
0.000740272
0.00076981
0.000801869
0.000831444
-1.82667e-06
-2.18042e-06
-1.71212e-06
-9.53118e-07
2.81528e-07
1.95995e-06
4.08488e-06
6.65931e-06
9.68469e-06
1.31625e-05
1.70942e-05
2.14817e-05
2.63268e-05
3.16317e-05
3.73988e-05
4.36306e-05
5.03298e-05
5.74993e-05
6.51419e-05
7.32608e-05
8.18593e-05
9.09406e-05
0.000100508
0.000110565
0.000121115
0.000132162
0.000143709
0.000155758
0.000168315
0.000181381
0.000194961
0.000209057
0.000223673
0.00023881
0.000254473
0.000270663
0.000287384
0.000304638
0.000322426
0.000340751
0.000359616
0.000379021
0.000398968
0.00041946
0.000440499
0.000462086
0.000484226
0.000506922
0.00053018
0.000554006
0.000578411
0.000603409
0.000629021
0.000655273
0.000682207
0.000709881
0.000738353
0.000767741
0.000798436
0.000828847
-3.23504e-06
-3.59356e-06
-3.11151e-06
-2.34414e-06
-1.10218e-06
5.80235e-07
2.70631e-06
5.27943e-06
8.30135e-06
1.17739e-05
1.5699e-05
2.00787e-05
2.4915e-05
3.02103e-05
3.5967e-05
4.21876e-05
4.8875e-05
5.6032e-05
6.36617e-05
7.17671e-05
8.03516e-05
8.94184e-05
9.8971e-05
0.000109013
0.000119547
0.000130578
0.000142109
0.000154143
0.000166684
0.000179735
0.0001933
0.000207381
0.000221982
0.000237106
0.000252755
0.000268931
0.000285639
0.00030288
0.000320656
0.000338969
0.000357822
0.000377215
0.000397151
0.000417631
0.000438655
0.000460227
0.000482348
0.000505021
0.000528249
0.000552037
0.000576391
0.000601318
0.000626831
0.000652944
0.000679674
0.000707043
0.000735065
0.00076377
0.000793175
0.000822692
-5.0993e-06
-5.46002e-06
-4.97122e-06
-4.19961e-06
-2.95378e-06
-1.26993e-06
8.55215e-07
3.42528e-06
6.44216e-06
9.90789e-06
1.38247e-05
1.81947e-05
2.30202e-05
2.83037e-05
3.40475e-05
4.02545e-05
4.69274e-05
5.40693e-05
6.16831e-05
6.97722e-05
7.83397e-05
8.7389e-05
9.69235e-05
0.000106947
0.000117463
0.000128475
0.000139986
0.000152002
0.000164524
0.000177558
0.000191105
0.000205169
0.000219753
0.00023486
0.000250493
0.000266654
0.000283347
0.000300573
0.000318335
0.000336636
0.000355476
0.000374856
0.000394779
0.000415245
0.000436255
0.00045781
0.00047991
0.000502557
0.000525751
0.000549495
0.00057379
0.000598639
0.000624045
0.000650011
0.000676538
0.000703623
0.000731249
0.000759386
0.000787943
0.000816636
-7.42201e-06
-7.78338e-06
-7.29167e-06
-6.51874e-06
-5.27203e-06
-3.58922e-06
-1.46718e-06
1.09785e-06
4.10792e-06
7.56514e-06
1.14718e-05
1.58303e-05
2.06429e-05
2.59122e-05
3.16408e-05
3.78315e-05
4.44873e-05
5.16111e-05
5.92063e-05
6.7276e-05
7.58235e-05
8.48522e-05
9.43658e-05
0.000104368
0.000114862
0.000125852
0.000137342
0.000149336
0.000161837
0.000174849
0.000188375
0.000202419
0.000216984
0.000232072
0.000247687
0.000263831
0.000280507
0.000297718
0.000315466
0.000333752
0.000352578
0.000371946
0.000391855
0.000412307
0.000433302
0.000454839
0.000476917
0.000499537
0.000522696
0.000546394
0.000570628
0.000595396
0.000620691
0.000646507
0.000672831
0.000699641
0.000726899
0.000754544
0.000782464
0.000810458
-1.02042e-05
-1.05663e-05
-1.00741e-05
-9.30219e-06
-8.05716e-06
-6.37762e-06
-4.2607e-06
-1.70263e-06
1.29874e-06
4.74559e-06
8.64024e-06
1.29851e-05
1.77826e-05
2.30354e-05
2.87462e-05
3.49179e-05
4.15537e-05
4.86567e-05
5.62302e-05
6.42775e-05
7.28019e-05
8.1807e-05
9.12964e-05
0.000101274
0.000111743
0.000122709
0.000134174
0.000146143
0.000158619
0.000171607
0.00018511
0.000199131
0.000213674
0.000228741
0.000244335
0.00026046
0.000277119
0.000294313
0.000312045
0.000330316
0.000349129
0.000368483
0.000388379
0.000408817
0.000429796
0.000451316
0.000473375
0.000495969
0.000519096
0.000542752
0.000566929
0.000591621
0.000616815
0.000642497
0.000668642
0.000695219
0.000722175
0.00074944
0.000776901
0.0008044
-1.34457e-05
-1.38092e-05
-1.3318e-05
-1.2549e-05
-1.13078e-05
-9.63354e-06
-7.52363e-06
-4.97437e-06
-1.98359e-06
1.45091e-06
5.33145e-06
9.66047e-06
1.44405e-05
1.96743e-05
2.53646e-05
3.15147e-05
3.81276e-05
4.52068e-05
5.27555e-05
6.07772e-05
6.92754e-05
7.82536e-05
8.77157e-05
9.76654e-05
0.000108107
0.000119044
0.000130481
0.000142422
0.000154871
0.000167832
0.000181308
0.000195303
0.000209821
0.000224865
0.000240437
0.000256542
0.000273181
0.000290357
0.000308072
0.000326328
0.000345126
0.000364466
0.00038435
0.000404775
0.000425742
0.000447247
0.000469289
0.000491862
0.000514963
0.000538582
0.000562713
0.000587342
0.000612453
0.000638025
0.000664028
0.000690423
0.000717154
0.000744148
0.000771301
0.000798483
-1.7146e-05
-1.75117e-05
-1.70227e-05
-1.62579e-05
-1.50223e-05
-1.33552e-05
-1.12541e-05
-8.71551e-06
-5.73726e-06
-2.31719e-06
1.54703e-06
5.85786e-06
1.06179e-05
1.58301e-05
2.14973e-05
2.76228e-05
3.421e-05
4.12623e-05
4.87831e-05
5.67759e-05
6.52444e-05
7.41923e-05
8.36236e-05
9.35422e-05
0.000103952
0.000114858
0.000126264
0.000138173
0.000150591
0.000163521
0.000176968
0.000190935
0.000205425
0.000220443
0.000235991
0.000252073
0.000268691
0.000285847
0.000303545
0.000321785
0.000340569
0.000359896
0.000379768
0.000400183
0.00042114
0.000442634
0.000464664
0.000487223
0.000510304
0.000533899
0.000557996
0.00058258
0.000607631
0.000633125
0.000659028
0.000685298
0.000711879
0.000738701
0.000765672
0.000792683
-2.13043e-05
-2.16731e-05
-2.11872e-05
-2.04277e-05
-1.91991e-05
-1.75408e-05
-1.54504e-05
-1.29243e-05
-9.96056e-06
-6.55709e-06
-2.71153e-06
1.57866e-06
6.3162e-06
1.15041e-05
1.71454e-05
2.32435e-05
2.98019e-05
3.68241e-05
4.43136e-05
5.22741e-05
6.07094e-05
6.96234e-05
7.90203e-05
8.89041e-05
9.92792e-05
0.00011015
0.00012152
0.000133395
0.000145779
0.000158675
0.000172089
0.000186024
0.000200484
0.000215474
0.000230995
0.000247052
0.000263647
0.000280783
0.000298462
0.000316686
0.000335456
0.000354772
0.000374634
0.000395041
0.00041599
0.000437479
0.000459503
0.000482056
0.000505129
0.000528712
0.000552792
0.000577351
0.00060237
0.000627819
0.000653666
0.000679868
0.00070637
0.000733108
0.000760001
0.000786959
-2.59195e-05
-2.62919e-05
-2.58101e-05
-2.50571e-05
-2.38367e-05
-2.21887e-05
-2.01105e-05
-1.75988e-05
-1.46518e-05
-1.12672e-05
-7.44264e-06
-3.1756e-06
1.53681e-06
6.69767e-06
1.23103e-05
1.8378e-05
2.49044e-05
3.18931e-05
3.93478e-05
4.72724e-05
5.56708e-05
6.45472e-05
7.39058e-05
8.37511e-05
9.40873e-05
0.000104919
0.000116251
0.000128087
0.000140433
0.000153292
0.00016667
0.00018057
0.000194997
0.000209955
0.000225447
0.000241477
0.000258048
0.000275161
0.000292821
0.000311028
0.000329784
0.00034909
0.000368944
0.000389346
0.000410293
0.000431782
0.000453807
0.000476362
0.000499439
0.000523025
0.000547106
0.000571664
0.000596678
0.000622119
0.000647954
0.000674141
0.000700629
0.000727361
0.000754265
0.000781264
-3.09903e-05
-3.13666e-05
-3.08897e-05
-3.01441e-05
-2.8933e-05
-2.72967e-05
-2.52326e-05
-2.27373e-05
-1.9809e-05
-1.64456e-05
-1.26446e-05
-8.40323e-06
-3.71862e-06
1.41245e-06
6.99332e-06
1.30275e-05
1.95186e-05
2.64703e-05
3.38866e-05
4.17715e-05
5.01291e-05
5.89639e-05
6.82804e-05
7.8083e-05
8.83764e-05
9.91653e-05
0.000110454
0.000122248
0.000134552
0.000147371
0.000160709
0.000174571
0.000188962
0.000203885
0.000219345
0.000235345
0.000251889
0.000268979
0.000286618
0.000304809
0.000323552
0.000342847
0.000362696
0.000383096
0.000404045
0.00042554
0.000447575
0.000470143
0.000493235
0.000516839
0.000540941
0.000565522
0.00059056
0.000616028
0.000641892
0.000668115
0.000694649
0.000721441
0.00074843
0.000775549
-3.65148e-05
-3.68953e-05
-3.64239e-05
-3.56866e-05
-3.44861e-05
-3.2863e-05
-3.08146e-05
-2.83377e-05
-2.54304e-05
-2.20905e-05
-1.83154e-05
-1.41023e-05
-9.44827e-06
-4.34993e-06
1.1961e-06
7.19339e-06
1.36457e-05
2.05568e-05
2.79309e-05
3.57721e-05
4.4085e-05
5.28741e-05
6.21441e-05
7.18999e-05
8.21462e-05
9.28879e-05
0.00010413
0.000115878
0.000128136
0.00014091
0.000154204
0.000168024
0.000182375
0.00019726
0.000212685
0.000228653
0.000245167
0.000262232
0.00027985
0.000298023
0.000316753
0.00033604
0.000355885
0.000376287
0.000397243
0.00041875
0.000440803
0.000463394
0.000486515
0.000510153
0.000534295
0.000558922
0.000584012
0.00060954
0.000635475
0.00066178
0.000688412
0.000715324
0.000742462
0.000769767
-4.24908e-05
-4.2876e-05
-4.24104e-05
-4.16825e-05
-4.04937e-05
-3.88852e-05
-3.68544e-05
-3.43978e-05
-3.15136e-05
-2.81995e-05
-2.44529e-05
-2.02708e-05
-1.56502e-05
-1.05876e-05
-5.07978e-06
8.77098e-07
7.28685e-06
1.41535e-05
2.14814e-05
2.9275e-05
3.7539e-05
4.62781e-05
5.54974e-05
6.52018e-05
7.53965e-05
8.60866e-05
9.72774e-05
0.000108974
0.000121182
0.000133907
0.000147154
0.000160927
0.000175234
0.000190078
0.000205464
0.000221396
0.000237879
0.000254917
0.000272512
0.000290667
0.000309384
0.000328663
0.000348507
0.000368913
0.000389881
0.000411406
0.000433485
0.00045611
0.000479272
0.00050296
0.00052716
0.000551856
0.000577026
0.000602646
0.000628688
0.000655117
0.000681895
0.000708979
0.000736321
0.000763869
-4.89157e-05
-4.93059e-05
-4.88467e-05
-4.8129e-05
-4.69534e-05
-4.5361e-05
-4.33494e-05
-4.09152e-05
-3.80563e-05
-3.47704e-05
-3.10548e-05
-2.69064e-05
-2.23222e-05
-1.72988e-05
-1.18326e-05
-5.91983e-06
4.43545e-07
7.2618e-06
1.45394e-05
2.22812e-05
3.04919e-05
3.91766e-05
4.83404e-05
5.79888e-05
6.81271e-05
7.87607e-05
8.98952e-05
0.000101536
0.000113689
0.00012636
0.000139554
0.000153277
0.000167536
0.000182334
0.000197678
0.000213572
0.000230021
0.000247028
0.000264598
0.000282734
0.000301437
0.00032071
0.000340554
0.000360968
0.000381951
0.000403501
0.000425613
0.000448281
0.000471496
0.000495249
0.000519527
0.000544312
0.000569588
0.00059533
0.000621512
0.000648103
0.000675069
0.000702371
0.000729966
0.000757809
-5.57866e-05
-5.61823e-05
-5.57301e-05
-5.50236e-05
-5.38623e-05
-5.22877e-05
-5.02972e-05
-4.78872e-05
-4.50558e-05
-4.18004e-05
-3.81184e-05
-3.40067e-05
-2.94621e-05
-2.44813e-05
-1.90604e-05
-1.31957e-05
-6.88267e-06
-1.16978e-07
7.10613e-06
1.47916e-05
2.29444e-05
3.15699e-05
4.06736e-05
5.02609e-05
6.03377e-05
7.09096e-05
8.19826e-05
9.35625e-05
0.000105655
0.000118267
0.000131404
0.000145072
0.000159277
0.000174025
0.000189323
0.000205175
0.000221585
0.00023856
0.000256103
0.000274217
0.000292906
0.000312172
0.000332018
0.000352442
0.000373445
0.000395024
0.000417176
0.000439896
0.000463177
0.000487008
0.000511379
0.000536275
0.000561679
0.000587569
0.000613922
0.00064071
0.000667902
0.000695463
0.000723355
0.000751537
-6.31004e-05
-6.35022e-05
-6.30577e-05
-6.23634e-05
-6.12177e-05
-5.96623e-05
-5.76946e-05
-5.53109e-05
-5.25091e-05
-4.92868e-05
-4.56411e-05
-4.15691e-05
-3.70675e-05
-3.21329e-05
-2.67612e-05
-2.09484e-05
-1.469e-05
-7.98118e-06
-8.17101e-07
6.80737e-06
1.48975e-05
2.34589e-05
3.24972e-05
4.20182e-05
5.2028e-05
6.25328e-05
7.35385e-05
8.50516e-05
9.70784e-05
0.000109625
0.000122699
0.000136307
0.000150454
0.000165148
0.000180394
0.000196199
0.000212568
0.000229506
0.000247019
0.00026511
0.000283783
0.000303042
0.000322889
0.000343325
0.00036435
0.000385963
0.000408162
0.000430942
0.000454297
0.00047822
0.0005027
0.000527725
0.000553278
0.000579341
0.000605893
0.000632908
0.00066036
0.000688216
0.000716442
0.000745003
-7.08541e-05
-7.12623e-05
-7.08262e-05
-7.01451e-05
-6.90162e-05
-6.74816e-05
-6.55384e-05
-6.3183e-05
-6.04132e-05
-5.72265e-05
-5.36201e-05
-4.9591e-05
-4.5136e-05
-4.02512e-05
-3.49326e-05
-2.91759e-05
-2.29764e-05
-1.6329e-05
-9.22865e-06
-1.67008e-06
6.35226e-06
1.48441e-05
2.38116e-05
3.32607e-05
4.31978e-05
5.36293e-05
6.45619e-05
7.60022e-05
8.79571e-05
0.000100434
0.000113439
0.00012698
0.000141064
0.000155697
0.000170887
0.00018664
0.000202963
0.00021986
0.000237339
0.000255403
0.000274059
0.000293309
0.000313157
0.000333606
0.000354655
0.000376305
0.000398555
0.000421402
0.000444841
0.000468866
0.000493469
0.000518638
0.000544359
0.000570617
0.000597392
0.000624662
0.000652403
0.000680587
0.000709183
0.000738159
-7.90442e-05
-7.94592e-05
-7.90322e-05
-7.83653e-05
-7.72545e-05
-7.57421e-05
-7.38253e-05
-7.15003e-05
-6.87648e-05
-6.56165e-05
-6.20524e-05
-5.80696e-05
-5.36646e-05
-4.88336e-05
-4.35721e-05
-3.78758e-05
-3.17395e-05
-2.51583e-05
-1.81268e-05
-1.06393e-05
-2.69025e-06
5.72652e-06
1.46172e-05
2.39884e-05
3.38467e-05
4.41988e-05
5.50518e-05
6.64129e-05
7.82894e-05
9.06889e-05
0.000103619
0.000117087
0.000131101
0.000145668
0.000160796
0.000176492
0.000192762
0.000209614
0.000227054
0.000245089
0.000263723
0.000282963
0.000302811
0.00032327
0.000344344
0.000366034
0.000388339
0.000411258
0.000434788
0.000458925
0.000483661
0.000508988
0.000534894
0.000561365
0.000588385
0.000615935
0.000643992
0.000672533
0.00070153
0.000730953
-8.76671e-05
-8.80893e-05
-8.7672e-05
-8.70203e-05
-8.59288e-05
-8.44402e-05
-8.25515e-05
-8.0259e-05
-7.75605e-05
-7.44534e-05
-7.09349e-05
-6.70019e-05
-6.26506e-05
-5.78771e-05
-5.26769e-05
-4.70453e-05
-4.09771e-05
-3.4467e-05
-2.75095e-05
-2.00987e-05
-1.22287e-05
-3.89299e-06
4.9149e-06
1.42018e-05
2.39746e-05
3.42407e-05
4.50074e-05
5.62824e-05
6.80737e-05
8.03892e-05
9.32372e-05
0.000106626
0.000120563
0.000135056
0.000150115
0.000165746
0.000181958
0.000198759
0.000216156
0.000234156
0.000252765
0.00027199
0.000291835
0.000312305
0.000333403
0.000355133
0.000377495
0.00040049
0.000424117
0.000448372
0.000473252
0.000498748
0.000524853
0.000551554
0.000578837
0.000606687
0.000635084
0.000664007
0.000693433
0.000723333
-9.67186e-05
-9.71485e-05
-9.67415e-05
-9.6106e-05
-9.50349e-05
-9.35717e-05
-9.17132e-05
-8.94556e-05
-8.67966e-05
-8.37338e-05
-8.02642e-05
-7.63843e-05
-7.20905e-05
-6.73786e-05
-6.22439e-05
-5.66816e-05
-5.06863e-05
-4.42527e-05
-3.73747e-05
-3.00465e-05
-2.22615e-05
-1.40132e-05
-5.29467e-06
3.90116e-06
1.35817e-05
2.37546e-05
3.44278e-05
4.56095e-05
5.7308e-05
6.95321e-05
8.22902e-05
9.5591e-05
0.000109443
0.000123856
0.000138838
0.000154398
0.000170545
0.000187288
0.000204635
0.000222595
0.000241173
0.000260378
0.000280216
0.000300693
0.000321814
0.000343583
0.000366003
0.000389076
0.000412803
0.000437182
0.000462212
0.000487887
0.000514201
0.000541145
0.000568708
0.000596876
0.000625633
0.000654961
0.00068484
0.000715246
-0.000106195
-0.000106632
-0.000106236
-0.000105618
-0.000104569
-0.000103132
-0.000101306
-9.90858e-05
-9.64693e-05
-9.34538e-05
-9.00364e-05
-8.62134e-05
-8.19809e-05
-7.73347e-05
-7.227e-05
-6.67817e-05
-6.08646e-05
-5.45127e-05
-4.77201e-05
-4.04804e-05
-3.27869e-05
-2.46326e-05
-1.60104e-05
-6.91274e-06
2.66815e-06
1.27404e-05
2.33124e-05
3.43929e-05
4.59907e-05
5.8115e-05
7.07748e-05
8.39795e-05
9.77386e-05
0.000112062
0.000126959
0.00014244
0.000158514
0.000175192
0.000192481
0.000210393
0.000228934
0.000248114
0.00026794
0.000288419
0.000309558
0.000331364
0.00035384
0.000376991
0.000400819
0.000425326
0.000450511
0.000476371
0.000502903
0.000530101
0.000557955
0.000586457
0.000615591
0.000645345
0.000675699
0.000706633
-0.00011609
-0.000116537
-0.000116152
-0.000115551
-0.000114525
-0.000113118
-0.000111326
-0.000109145
-0.000106574
-0.000103609
-0.000100247
-9.6485e-05
-9.23178e-05
-8.77416e-05
-8.27516e-05
-7.73425e-05
-7.15087e-05
-6.52444e-05
-5.85432e-05
-5.13983e-05
-4.38029e-05
-3.57497e-05
-2.7231e-05
-1.82391e-05
-8.76558e-06
1.19803e-06
1.16607e-05
2.26315e-05
3.41199e-05
4.61354e-05
5.86878e-05
7.17872e-05
8.54438e-05
9.96684e-05
0.000114471
0.000129864
0.000145857
0.00016246
0.000179684
0.000197539
0.000216035
0.000235182
0.000254988
0.000275464
0.000296617
0.000318455
0.000340984
0.000364211
0.00038814
0.000412774
0.000438116
0.000464166
0.000490921
0.00051838
0.000546536
0.000575383
0.000604909
0.000635104
0.000665952
0.000697436
-0.0001264
-0.000126856
-0.000126483
-0.000125902
-0.0001249
-0.000123523
-0.000121768
-0.00011963
-0.000117107
-0.000114195
-0.000110893
-0.000107195
-0.000103097
-9.85955e-05
-9.3685e-05
-8.83602e-05
-8.26155e-05
-7.64446e-05
-6.9841e-05
-6.27977e-05
-5.53074e-05
-4.73625e-05
-3.8955e-05
-3.00767e-05
-2.07189e-05
-1.08724e-05
-5.27887e-07
1.03242e-05
2.16938e-05
3.3591e-05
4.60262e-05
5.90104e-05
7.25547e-05
8.66706e-05
0.00010137
0.000116664
0.000132564
0.000149083
0.000166231
0.00018402
0.000202462
0.000221567
0.000241346
0.00026181
0.00028297
0.000304834
0.000327411
0.000350709
0.000374735
0.000399495
0.000424993
0.000451233
0.000478215
0.00050594
0.000534404
0.000563605
0.000593534
0.000624183
0.000655541
0.000687592
-0.00013712
-0.000137584
-0.000137224
-0.000136663
-0.000135688
-0.000134343
-0.000132627
-0.000130534
-0.000128062
-0.000125207
-0.000121967
-0.000118338
-0.000114314
-0.000109892
-0.000105066
-9.98311e-05
-9.41812e-05
-8.811e-05
-8.16105e-05
-7.46756e-05
-6.72977e-05
-5.94688e-05
-5.11807e-05
-4.24244e-05
-3.31908e-05
-2.34705e-05
-1.32535e-05
-2.52989e-06
8.71083e-06
2.04794e-05
3.2787e-05
4.56454e-05
5.90667e-05
7.30631e-05
8.76472e-05
0.000102832
0.000118629
0.000135051
0.000152112
0.000169824
0.0001882
0.000207253
0.000226995
0.000247438
0.000268595
0.000290476
0.000313093
0.000336456
0.000360574
0.000385455
0.000411106
0.000437534
0.000464743
0.000492735
0.000521511
0.000551071
0.000581411
0.000612525
0.000644404
0.000677038
-0.000148243
-0.000148717
-0.000148371
-0.000147831
-0.000146883
-0.000145573
-0.000143897
-0.000141852
-0.000139434
-0.00013664
-0.000133466
-0.000129909
-0.000125964
-0.000121626
-0.00011689
-0.000111751
-0.000106202
-0.000100237
-9.38482e-05
-8.70289e-05
-7.97711e-05
-7.20664e-05
-6.39059e-05
-5.52804e-05
-4.61804e-05
-3.65957e-05
-2.65163e-05
-1.59315e-05
-4.83029e-06
6.79874e-06
1.89676e-05
3.16889e-05
4.49755e-05
5.88405e-05
7.32973e-05
8.83594e-05
0.00010404
0.000120354
0.000137316
0.000154938
0.000173236
0.000192224
0.000211917
0.000232327
0.00025347
0.000275358
0.000298005
0.000321423
0.000345624
0.000370619
0.000396418
0.000423029
0.000450461
0.000478718
0.000507807
0.000537728
0.000568482
0.000600066
0.000632477
0.000665708
-0.000159763
-0.000160247
-0.000159915
-0.000159398
-0.000158479
-0.000157205
-0.000155573
-0.000153578
-0.000151217
-0.000148487
-0.000145384
-0.000141904
-0.000138042
-0.000133793
-0.000129153
-0.000124115
-0.000118673
-0.000112821
-0.00010655
-9.98544e-05
-9.27246e-05
-8.51523e-05
-7.71283e-05
-6.86429e-05
-5.9686e-05
-5.02472e-05
-4.03159e-05
-2.98809e-05
-1.89305e-05
-7.45258e-06
4.56573e-06
1.71377e-05
3.0277e-05
4.39976e-05
5.83137e-05
7.32399e-05
8.8791e-05
0.000104982
0.00012183
0.000139348
0.000157555
0.000176464
0.000196093
0.000216457
0.000237573
0.000259455
0.000282119
0.00030558
0.000329853
0.000354951
0.000380888
0.000407675
0.000435323
0.000463841
0.000493238
0.000523518
0.000554686
0.000586744
0.000619691
0.000653524
-0.000171674
-0.000172169
-0.000171852
-0.000171359
-0.000170471
-0.000169235
-0.000167648
-0.000165706
-0.000163405
-0.000160742
-0.000157714
-0.000154315
-0.000150541
-0.000146388
-0.000141849
-0.000136919
-0.000131591
-0.000125858
-0.000119713
-0.000113148
-0.000106155
-9.87236e-05
-9.08452e-05
-8.25094e-05
-7.37058e-05
-6.44237e-05
-5.46516e-05
-4.4378e-05
-3.35904e-05
-2.22758e-05
-1.04208e-05
1.98868e-06
1.49671e-05
2.85291e-05
4.269e-05
5.74654e-05
7.28716e-05
8.89251e-05
0.000105643
0.000123042
0.000141141
0.000159956
0.000179505
0.000199807
0.000220879
0.00024274
0.000265406
0.000288896
0.000313227
0.000338415
0.000364477
0.000391428
0.000419282
0.000448052
0.00047775
0.000508384
0.000539962
0.000572492
0.000605976
0.000640415
-0.00018397
-0.000184476
-0.000184175
-0.000183706
-0.00018285
-0.000181655
-0.000180116
-0.00017823
-0.000175992
-0.0001734
-0.00017045
-0.000167137
-0.000163457
-0.000159404
-0.000154972
-0.000150156
-0.000144949
-0.000139343
-0.000133332
-0.000126906
-0.000120058
-0.000112777
-0.000105053
-9.68774e-05
-8.82378e-05
-7.91234e-05
-6.95223e-05
-5.94222e-05
-4.881e-05
-3.76719e-05
-2.59937e-05
-1.37609e-05
-9.58115e-07
1.24302e-05
2.64203e-05
4.1029e-05
5.62738e-05
7.21727e-05
8.87442e-05
0.000106007
0.00012398
0.000142683
0.000162135
0.000182356
0.000203367
0.000225187
0.000247838
0.000271339
0.00029571
0.000320972
0.000347144
0.000374244
0.000402291
0.000431299
0.000461285
0.000492263
0.000524246
0.000557242
0.00059126
0.000626304
-0.000196643
-0.00019716
-0.000196876
-0.000196433
-0.000195611
-0.000194458
-0.00019297
-0.000191142
-0.000188971
-0.000186453
-0.000183586
-0.000180364
-0.000176782
-0.000172835
-0.000168517
-0.000163822
-0.000158742
-0.000153271
-0.000147401
-0.000141123
-0.000134429
-0.000127307
-0.000119749
-0.000111744
-0.000103279
-9.43442e-05
-8.49264e-05
-7.50126e-05
-6.45889e-05
-5.36412e-05
-4.21544e-05
-3.01133e-05
-1.75019e-05
-4.30365e-06
9.49887e-06
2.39237e-05
3.89896e-05
5.47158e-05
7.11222e-05
8.82291e-05
0.000106057
0.000124628
0.000143962
0.000164082
0.000185011
0.000206771
0.000229385
0.000252876
0.000277268
0.000302584
0.000328846
0.000356077
0.000384297
0.000413527
0.000443787
0.000475095
0.000507469
0.000540921
0.000575466
0.000611111
-0.000209685
-0.000210214
-0.000209947
-0.000209532
-0.000208746
-0.000207637
-0.000206201
-0.000204435
-0.000202334
-0.000199895
-0.000197115
-0.000193988
-0.00019051
-0.000186675
-0.000182477
-0.000177909
-0.000172965
-0.000167637
-0.000161916
-0.000155795
-0.000149263
-0.000142311
-0.000134929
-0.000127104
-0.000118827
-0.000110084
-0.000100862
-9.11474e-05
-8.09264e-05
-7.01837e-05
-5.89038e-05
-4.70706e-05
-3.46673e-05
-2.16763e-05
-8.07914e-06
6.14336e-06
2.10112e-05
3.65451e-05
5.27662e-05
6.96964e-05
8.7358e-05
0.000105774
0.000124968
0.000144965
0.000165788
0.000187464
0.000210018
0.000233477
0.000257866
0.000283212
0.00030954
0.000336878
0.00036525
0.00039468
0.000425194
0.000456814
0.000489562
0.000523456
0.000558515
0.000594752
-0.000223089
-0.00022363
-0.000223381
-0.000222995
-0.000222246
-0.000221183
-0.000219803
-0.000218101
-0.000216073
-0.000213717
-0.000211029
-0.000208003
-0.000204634
-0.000200916
-0.000196845
-0.000192412
-0.00018761
-0.000182433
-0.00017687
-0.000170915
-0.000164556
-0.000157783
-0.000150587
-0.000142956
-0.000134877
-0.000126338
-0.000117325
-0.000107825
-9.78211e-05
-8.72989e-05
-7.62421e-05
-6.46338e-05
-5.24562e-05
-3.96909e-05
-2.63181e-05
-1.23176e-05
2.33177e-06
1.7652e-05
3.36658e-05
5.03965e-05
6.78683e-05
8.61061e-05
0.000105135
0.000124983
0.000145675
0.000167241
0.000189709
0.000213107
0.000237466
0.000262815
0.000289183
0.000316601
0.000345098
0.000374703
0.000405446
0.000437354
0.000470454
0.000504769
0.000540324
0.000577137
-0.000236845
-0.000237399
-0.00023717
-0.000236814
-0.000236103
-0.000235089
-0.000233767
-0.000232132
-0.000230182
-0.000227913
-0.00022532
-0.000222399
-0.000219145
-0.000215552
-0.000211613
-0.000207322
-0.000202671
-0.000197652
-0.000192257
-0.000186476
-0.0001803
-0.000173718
-0.000166719
-0.000159293
-0.000151425
-0.000143104
-0.000134314
-0.000125042
-0.000115271
-0.000104986
-9.4169e-05
-8.28034e-05
-7.08702e-05
-5.83498e-05
-4.52216e-05
-3.14642e-05
-1.70552e-05
-1.97137e-06
1.38114e-05
3.03181e-05
4.75747e-05
6.56079e-05
8.44454e-05
0.000104116
0.000124649
0.000146076
0.000168428
0.000191736
0.000216033
0.000241353
0.00026773
0.000295196
0.000323787
0.000353537
0.000384479
0.000416646
0.00045007
0.000484781
0.000520807
0.000558176
-0.000250946
-0.000251513
-0.000251303
-0.000250979
-0.000250309
-0.000249346
-0.000248085
-0.000246521
-0.000244651
-0.000242472
-0.00023998
-0.00023717
-0.000234036
-0.000230573
-0.000226774
-0.000222632
-0.00021814
-0.000213288
-0.000208069
-0.000202473
-0.000196489
-0.000190109
-0.000183319
-0.00017611
-0.000168467
-0.000160376
-0.000151824
-0.000142795
-0.000133273
-0.000123242
-0.000112683
-0.000101579
-8.99098e-05
-7.76547e-05
-6.47924e-05
-5.13005e-05
-3.71552e-05
-2.23322e-05
-6.80585e-06
9.45047e-06
2.64644e-05
4.42647e-05
6.28812e-05
8.23449e-05
0.000102688
0.000123944
0.000146146
0.00016933
0.000193532
0.000218788
0.000245137
0.000272617
0.000301266
0.000331125
0.00036223
0.000394621
0.000428335
0.000463409
0.000499877
0.000537775
-0.000265382
-0.000265962
-0.000265773
-0.000265481
-0.000264854
-0.000263944
-0.000262746
-0.000261256
-0.000259471
-0.000257388
-0.000255001
-0.000252306
-0.000249299
-0.000245972
-0.000242319
-0.000238334
-0.000234008
-0.000229332
-0.000224298
-0.000218896
-0.000213117
-0.000206949
-0.000200381
-0.000193401
-0.000185995
-0.00017815
-0.000169851
-0.000161081
-0.000151825
-0.000142065
-0.000131783
-0.00012096
-0.000109574
-9.76062e-05
-8.50324e-05
-7.18296e-05
-5.79729e-05
-4.34366e-05
-2.81937e-05
-1.2216e-05
4.52599e-06
2.20629e-05
4.04267e-05
5.96507e-05
7.97694e-05
0.000100819
0.000122835
0.000145858
0.000169925
0.000195079
0.000221361
0.000248813
0.000277481
0.000307406
0.000338633
0.000371207
0.000405171
0.000440568
0.000477442
0.000515833
-0.000280143
-0.000280737
-0.000280569
-0.000280312
-0.000279729
-0.000278874
-0.000277743
-0.00027633
-0.000274633
-0.000272649
-0.000270372
-0.000267799
-0.000264923
-0.000261739
-0.00025824
-0.000254418
-0.000250266
-0.000245775
-0.000240936
-0.000235739
-0.000230174
-0.00022423
-0.000217896
-0.000211159
-0.000204005
-0.00019642
-0.000188388
-0.000179894
-0.000170921
-0.000161451
-0.000151465
-0.000140942
-0.000129863
-0.000118204
-0.000105943
-9.30537e-05
-7.95117e-05
-6.52896e-05
-5.03588e-05
-3.46896e-05
-1.82509e-05
-1.01008e-06
1.7067e-05
3.60159e-05
5.58734e-05
7.6678e-05
9.84695e-05
0.000121289
0.000145181
0.000170188
0.000196358
0.000223739
0.000252377
0.000282322
0.000313624
0.000346333
0.000380499
0.000416174
0.000453407
0.000492248
-0.000295219
-0.000295827
-0.000295682
-0.000295459
-0.000294923
-0.000294126
-0.000293064
-0.000291732
-0.000290127
-0.000288246
-0.000286085
-0.000283638
-0.0002809
-0.000277865
-0.000274526
-0.000270876
-0.000266906
-0.000262608
-0.000257973
-0.000252991
-0.000247652
-0.000241945
-0.000235857
-0.000229376
-0.000222487
-0.000215177
-0.00020743
-0.000199229
-0.000190557
-0.000181395
-0.000171725
-0.000161525
-0.000150773
-0.000139447
-0.000127522
-0.000114974
-0.000101774
-8.78947e-05
-7.33063e-05
-5.79774e-05
-4.18753e-05
-2.49653e-05
-7.21136e-06
1.14242e-05
3.09807e-05
5.14991e-05
7.30221e-05
9.55948e-05
0.000119264
0.000144078
0.000170087
0.000197344
0.000225901
0.000255813
0.000287136
0.000319926
0.000354241
0.000390139
0.000427678
0.000466915
-0.000310599
-0.000311222
-0.000311101
-0.000310915
-0.000310426
-0.000309689
-0.000308699
-0.000307452
-0.000305943
-0.00030417
-0.000302128
-0.000299813
-0.000297218
-0.000294339
-0.000291167
-0.000287696
-0.000283917
-0.000279822
-0.000275401
-0.000270644
-0.000265542
-0.000260083
-0.000254255
-0.000248043
-0.000241435
-0.000234416
-0.000226969
-0.000219078
-0.000210725
-0.000201892
-0.000192558
-0.000182702
-0.000172301
-0.000161332
-0.000149771
-0.000137589
-0.00012476
-0.000111254
-9.704e-05
-8.20849e-05
-6.63545e-05
-4.98123e-05
-3.24204e-05
-1.4139e-05
5.0737e-06
2.52612e-05
4.64695e-05
6.87467e-05
9.21433e-05
0.000116712
0.000142507
0.000169584
0.000198002
0.000227822
0.000259104
0.000291914
0.000326315
0.000362374
0.000400156
0.000439726
-0.000326273
-0.000326911
-0.000326814
-0.000326666
-0.000326228
-0.000325553
-0.000324638
-0.000323478
-0.000322069
-0.000320408
-0.000318491
-0.000316313
-0.000313868
-0.000311151
-0.000308153
-0.000304869
-0.000301289
-0.000297405
-0.000293208
-0.000288688
-0.000283835
-0.000278636
-0.000273079
-0.000267152
-0.000260839
-0.000254125
-0.000246996
-0.000239433
-0.000231419
-0.000222933
-0.000213957
-0.000204468
-0.000194442
-0.000183856
-0.000172684
-0.000160898
-0.00014847
-0.000135369
-0.000121562
-0.000107016
-9.16942e-05
-7.55589e-05
-5.85703e-05
-4.06863e-05
-2.1863e-05
-2.05401e-06
1.87897e-05
4.07195e-05