/*--------------------------------*- C++ -*----------------------------------*\
  =========                 |
  \\      /  F ield         | OpenFOAM: The Open Source CFD Toolbox
   \\    /   O peration     | Website:  https://openfoam.org
    \\  /    A nd           | Version:  8
     \\/     M anipulation  |
\*---------------------------------------------------------------------------*/
FoamFile
{
    version     2.0;
    format      ascii;
    class       surfaceScalarField;
    location    "24.5";
    object      phi;
}
// * * * * * * * * * * * * * * * * * * * * * * * * * * * * * * * * * * * * * //

dimensions      [0 3 -1 0 0 0 0];

internalField   nonuniform List<scalar> 
22960
(
-1.66484e-07
1.66742e-07
-5.67007e-07
4.00523e-07
-1.05338e-06
4.86377e-07
-1.56382e-06
5.10436e-07
-2.07769e-06
5.13868e-07
-2.5908e-06
5.13111e-07
-3.10293e-06
5.12133e-07
-3.61425e-06
5.11314e-07
-4.1248e-06
5.10558e-07
-4.63458e-06
5.09775e-07
-5.1435e-06
5.08918e-07
-5.65146e-06
5.0796e-07
-6.15834e-06
5.06887e-07
-6.66404e-06
5.05692e-07
-7.1684e-06
5.04365e-07
-7.6713e-06
5.02902e-07
-8.1726e-06
5.01295e-07
-8.67214e-06
4.99538e-07
-9.16976e-06
4.97626e-07
-9.66531e-06
4.95552e-07
-1.01586e-05
4.93309e-07
-1.06495e-05
4.9089e-07
-1.11378e-05
4.8829e-07
-1.16233e-05
4.85502e-07
-1.21058e-05
4.8252e-07
-1.25852e-05
4.79337e-07
-1.30611e-05
4.7595e-07
-1.35335e-05
4.72353e-07
-1.4002e-05
4.68544e-07
-1.44665e-05
4.6452e-07
-1.49268e-05
4.6028e-07
-1.53826e-05
4.55829e-07
-1.58338e-05
4.51169e-07
-1.62801e-05
4.46311e-07
-1.67214e-05
4.41267e-07
-1.71574e-05
4.36058e-07
-1.75882e-05
4.30709e-07
-1.80134e-05
4.25258e-07
-1.84332e-05
4.19754e-07
-1.88474e-05
4.1426e-07
-1.92563e-05
4.0886e-07
-1.96599e-05
4.03665e-07
-2.00588e-05
3.98819e-07
-2.04533e-05
3.94511e-07
-2.08443e-05
3.90991e-07
-2.12329e-05
3.8859e-07
-2.16206e-05
3.87754e-07
-2.20097e-05
3.89086e-07
-2.24031e-05
3.93416e-07
-2.2805e-05
4.01898e-07
-2.32212e-05
4.16165e-07
-2.36598e-05
4.38591e-07
-2.41325e-05
4.72738e-07
-2.46568e-05
5.24295e-07
-2.52613e-05
6.04475e-07
-2.60059e-05
7.44658e-07
-2.70364e-05
1.0305e-06
-2.86942e-05
1.65772e-06
-3.29814e-05
4.28727e-06
9.77858e-06
-4.276e-05
-4.04254e-07
5.70997e-07
-1.17135e-06
1.16762e-06
-2.07461e-06
1.38964e-06
-3.01921e-06
1.45504e-06
-3.97352e-06
1.46818e-06
-4.92894e-06
1.46853e-06
-5.88321e-06
1.46641e-06
-6.8356e-06
1.4637e-06
-7.78567e-06
1.46063e-06
-8.73306e-06
1.45717e-06
-9.67743e-06
1.45329e-06
-1.06184e-05
1.44895e-06
-1.15557e-05
1.44413e-06
-1.24888e-05
1.43883e-06
-1.34175e-05
1.43302e-06
-1.43412e-05
1.42669e-06
-1.52598e-05
1.41983e-06
-1.61727e-05
1.41243e-06
-1.70795e-05
1.40448e-06
-1.79799e-05
1.39596e-06
-1.88735e-05
1.38686e-06
-1.97598e-05
1.37718e-06
-2.06384e-05
1.36689e-06
-2.15089e-05
1.35599e-06
-2.23708e-05
1.34446e-06
-2.32238e-05
1.33231e-06
-2.40673e-05
1.31952e-06
-2.49011e-05
1.30609e-06
-2.57246e-05
1.29202e-06
-2.65373e-05
1.27731e-06
-2.7339e-05
1.26198e-06
-2.81292e-05
1.24603e-06
-2.89076e-05
1.2295e-06
-2.96737e-05
1.21241e-06
-3.04272e-05
1.19483e-06
-3.1168e-05
1.17681e-06
-3.18957e-05
1.15844e-06
-3.26103e-05
1.13984e-06
-3.33117e-05
1.12116e-06
-3.4e-05
1.10258e-06
-3.46755e-05
1.08437e-06
-3.53387e-05
1.06685e-06
-3.59903e-05
1.05043e-06
-3.66315e-05
1.03568e-06
-3.72638e-05
1.02332e-06
-3.78896e-05
1.01432e-06
-3.85118e-05
1.00998e-06
-3.91348e-05
1.01212e-06
-3.97646e-05
1.02321e-06
-4.04095e-05
1.04682e-06
-4.10815e-05
1.08816e-06
-4.1798e-05
1.15507e-06
-4.25851e-05
1.25979e-06
-4.34831e-05
1.42232e-06
-4.45574e-05
1.67875e-06
-4.59152e-05
2.10251e-06
-4.77213e-05
2.83653e-06
-5.02505e-05
4.18697e-06
-5.34763e-05
7.51307e-06
1.23896e-05
-5.60873e-05
-4.94319e-07
1.06532e-06
-1.40316e-06
2.07646e-06
-2.46391e-06
2.45039e-06
-3.56863e-06
2.55976e-06
-4.68326e-06
2.58281e-06
-5.79866e-06
2.58393e-06
-6.91235e-06
2.58009e-06
-8.02344e-06
2.57479e-06
-9.13137e-06
2.56856e-06
-1.02357e-05
2.56146e-06
-1.13358e-05
2.55346e-06
-1.24314e-05
2.54453e-06
-1.35219e-05
2.53464e-06
-1.46069e-05
2.52378e-06
-1.56858e-05
2.51192e-06
-1.67581e-05
2.49906e-06
-1.78235e-05
2.48517e-06
-1.88813e-05
2.47023e-06
-1.9931e-05
2.45424e-06
-2.09723e-05
2.43718e-06
-2.20044e-05
2.41902e-06
-2.3027e-05
2.39975e-06
-2.40395e-05
2.37936e-06
-2.50413e-05
2.35784e-06
-2.6032e-05
2.33518e-06
-2.70111e-05
2.31136e-06
-2.79779e-05
2.28638e-06
-2.89321e-05
2.26025e-06
-2.98731e-05
2.23297e-06
-3.08003e-05
2.20455e-06
-3.17133e-05
2.17501e-06
-3.26117e-05
2.1444e-06
-3.3495e-05
2.11276e-06
-3.43627e-05
2.08016e-06
-3.52146e-05
2.04669e-06
-3.60502e-05
2.01248e-06
-3.68695e-05
1.97768e-06
-3.76721e-05
1.9425e-06
-3.84582e-05
1.9072e-06
-3.92277e-05
1.87211e-06
-3.9981e-05
1.83768e-06
-4.07186e-05
1.80446e-06
-4.14414e-05
1.77317e-06
-4.21504e-05
1.74475e-06
-4.28476e-05
1.72043e-06
-4.35351e-05
1.70183e-06
-4.42162e-05
1.69111e-06
-4.48953e-05
1.69121e-06
-4.55783e-05
1.70618e-06
-4.62731e-05
1.74167e-06
-4.69908e-05
1.8058e-06
-4.77461e-05
1.91046e-06
-4.856e-05
2.0736e-06
-4.9461e-05
2.32334e-06
-5.04888e-05
2.70658e-06
-5.16911e-05
3.30485e-06
-5.31088e-05
4.25419e-06
-5.47492e-05
5.82734e-06
-5.59614e-05
8.72529e-06
1.25063e-05
-5.60782e-05
-5.20953e-07
1.58627e-06
-1.47529e-06
3.03079e-06
-2.5846e-06
3.5597e-06
-3.7374e-06
3.71255e-06
-4.89957e-06
3.74499e-06
-6.06224e-06
3.7466e-06
-7.22304e-06
3.74089e-06
-8.38106e-06
3.7328e-06
-9.53567e-06
3.72318e-06
-1.06864e-05
3.71214e-06
-1.18326e-05
3.69966e-06
-1.29738e-05
3.68573e-06
-1.41095e-05
3.67033e-06
-1.52391e-05
3.65343e-06
-1.63622e-05
3.635e-06
-1.74782e-05
3.61504e-06
-1.85865e-05
3.59352e-06
-1.96867e-05
3.57042e-06
-2.07782e-05
3.54573e-06
-2.18604e-05
3.51941e-06
-2.29329e-05
3.49145e-06
-2.3995e-05
3.46184e-06
-2.50461e-05
3.43055e-06
-2.60859e-05
3.39758e-06
-2.71136e-05
3.36291e-06
-2.81288e-05
3.32653e-06
-2.91308e-05
3.28844e-06
-3.01192e-05
3.24865e-06
-3.10935e-05
3.20717e-06
-3.20529e-05
3.16403e-06
-3.29972e-05
3.11925e-06
-3.39257e-05
3.0729e-06
-3.48379e-05
3.02504e-06
-3.57336e-05
2.97579e-06
-3.66121e-05
2.92527e-06
-3.74733e-05
2.87365e-06
-3.83168e-05
2.82117e-06
-3.91424e-05
2.76811e-06
-3.995e-05
2.71483e-06
-4.07397e-05
2.66181e-06
-4.15117e-05
2.60964e-06
-4.22663e-05
2.55909e-06
-4.30043e-05
2.51115e-06
-4.37266e-05
2.46708e-06
-4.44347e-05
2.42853e-06
-4.51306e-05
2.39766e-06
-4.58168e-05
2.37733e-06
-4.64969e-05
2.37134e-06
-4.71756e-05
2.38485e-06
-4.78588e-05
2.42495e-06
-4.85546e-05
2.50153e-06
-4.92727e-05
2.62859e-06
-5.00254e-05
2.82633e-06
-5.08266e-05
3.12447e-06
-5.1688e-05
3.56805e-06
-5.26084e-05
4.22521e-06
-5.35504e-05
5.19619e-06
-5.43747e-05
6.65163e-06
-5.45128e-05
8.86345e-06
1.15281e-05
-5.35346e-05
-5.25767e-07
2.11204e-06
-1.49293e-06
3.99796e-06
-2.61597e-06
4.68274e-06
-3.78213e-06
4.87871e-06
-4.95729e-06
4.92015e-06
-6.13271e-06
4.92201e-06
-7.30612e-06
4.91431e-06
-8.47668e-06
4.90336e-06
-9.64378e-06
4.89028e-06
-1.08069e-05
4.87522e-06
-1.19654e-05
4.85819e-06
-1.31188e-05
4.83918e-06
-1.42667e-05
4.81815e-06
-1.54083e-05
4.79509e-06
-1.65433e-05
4.76997e-06
-1.7671e-05
4.74278e-06
-1.8791e-05
4.71349e-06
-1.99026e-05
4.68207e-06
-2.10054e-05
4.6485e-06
-2.20987e-05
4.61275e-06
-2.31821e-05
4.57482e-06
-2.42549e-05
4.53466e-06
-2.53167e-05
4.49228e-06
-2.63667e-05
4.44764e-06
-2.74045e-05
4.40073e-06
-2.84296e-05
4.35156e-06
-2.94412e-05
4.30011e-06
-3.0439e-05
4.2464e-06
-3.14223e-05
4.19045e-06
-3.23905e-05
4.13228e-06
-3.33432e-05
4.07194e-06
-3.42798e-05
4.0095e-06
-3.51998e-05
3.94506e-06
-3.61028e-05
3.87875e-06
-3.69883e-05
3.81073e-06
-3.78558e-05
3.74122e-06
-3.87051e-05
3.67049e-06
-3.95359e-05
3.59891e-06
-4.0348e-05
3.52692e-06
-4.11413e-05
3.45509e-06
-4.19158e-05
3.38417e-06
-4.26718e-05
3.31506e-06
-4.34096e-05
3.24896e-06
-4.41299e-05
3.18736e-06
-4.48336e-05
3.13221e-06
-4.5522e-05
3.08602e-06
-4.61967e-05
3.05204e-06
-4.68599e-05
3.03457e-06
-4.75143e-05
3.03926e-06
-4.81631e-05
3.07371e-06
-4.88097e-05
3.14813e-06
-4.94575e-05
3.27642e-06
-5.01088e-05
3.47764e-06
-5.07624e-05
3.77806e-06
-5.14083e-05
4.21398e-06
-5.20169e-05
4.83379e-06
-5.25209e-05
5.70021e-06
-5.27688e-05
6.89947e-06
-5.24048e-05
8.49946e-06
1.0337e-05
-5.12138e-05
-5.2593e-07
2.63797e-06
-1.49717e-06
4.96919e-06
-2.62487e-06
5.81043e-06
-3.79571e-06
6.04956e-06
-4.97537e-06
6.09981e-06
-6.15514e-06
6.10178e-06
-7.33283e-06
6.092e-06
-8.50763e-06
6.07816e-06
-9.67896e-06
6.0616e-06
-1.08463e-05
6.04253e-06
-1.2009e-05
6.02094e-06
-1.31667e-05
5.99683e-06
-1.43187e-05
5.97017e-06
-1.54646e-05
5.94095e-06
-1.66037e-05
5.90913e-06
-1.77356e-05
5.8747e-06
-1.88598e-05
5.83761e-06
-1.99755e-05
5.79785e-06
-2.10824e-05
5.75539e-06
-2.21799e-05
5.71021e-06
-2.32673e-05
5.66227e-06
-2.43442e-05
5.61154e-06
-2.541e-05
5.55802e-06
-2.6464e-05
5.50168e-06
-2.75058e-05
5.4425e-06
-2.85347e-05
5.38048e-06
-2.95502e-05
5.31561e-06
-3.05517e-05
5.24791e-06
-3.15386e-05
5.17739e-06
-3.25105e-05
5.10408e-06
-3.34666e-05
5.02806e-06
-3.44065e-05
4.94938e-06
-3.53296e-05
4.86817e-06
-3.62354e-05
4.78457e-06
-3.71234e-05
4.69877e-06
-3.79932e-05
4.61102e-06
-3.88444e-05
4.52163e-06
-3.96765e-05
4.43101e-06
-4.04892e-05
4.33966e-06
-4.12823e-05
4.24824e-06
-4.20557e-05
4.15755e-06
-4.28093e-05
4.06863e-06
-4.35431e-05
3.98278e-06
-4.42574e-05
3.90162e-06
-4.49524e-05
3.82726e-06
-4.56288e-05
3.76235e-06
-4.6287e-05
3.71028e-06
-4.69279e-05
3.67544e-06
-4.75521e-05
3.66348e-06
-4.81601e-05
3.6817e-06
-4.87516e-05
3.73964e-06
-4.93248e-05
3.84966e-06
-4.9875e-05
4.02779e-06
-5.03915e-05
4.29457e-06
-5.08533e-05
4.67576e-06
-5.12212e-05
5.20176e-06
-5.14266e-05
5.90555e-06
-5.13451e-05
6.818e-06
-5.078e-05
7.93436e-06
9.15041e-06
-4.95934e-05
-5.25874e-07
3.16384e-06
-1.49932e-06
5.94264e-06
-2.62985e-06
6.94096e-06
-3.80373e-06
7.22344e-06
-4.9864e-06
7.28248e-06
-6.16912e-06
7.2845e-06
-7.34973e-06
7.27261e-06
-8.52744e-06
7.25587e-06
-9.70166e-06
7.23583e-06
-1.08719e-05
7.21274e-06
-1.20375e-05
7.18661e-06
-1.31981e-05
7.15742e-06
-1.43531e-05
7.12516e-06
-1.5502e-05
7.08979e-06
-1.66441e-05
7.05129e-06
-1.7779e-05
7.00962e-06
-1.89062e-05
6.96477e-06
-2.0025e-05
6.91669e-06
-2.1135e-05
6.86536e-06
-2.22355e-05
6.81075e-06
-2.33261e-05
6.75282e-06
-2.44061e-05
6.69154e-06
-2.5475e-05
6.6269e-06
-2.65322e-05
6.55886e-06
-2.75771e-05
6.4874e-06
-2.86091e-05
6.41252e-06
-2.96277e-05
6.33421e-06
-3.06323e-05
6.25248e-06
-3.16222e-05
6.16735e-06
-3.2597e-05
6.07884e-06
-3.3556e-05
5.98703e-06
-3.44986e-05
5.892e-06
-3.54243e-05
5.79386e-06
-3.63325e-05
5.69276e-06
-3.72226e-05
5.58892e-06
-3.80942e-05
5.48259e-06
-3.89467e-05
5.37411e-06
-3.97796e-05
5.26392e-06
-4.05925e-05
5.15255e-06
-4.13849e-05
5.04069e-06
-4.21566e-05
4.92919e-06
-4.2907e-05
4.81912e-06
-4.36361e-05
4.71181e-06
-4.43434e-05
4.60896e-06
-4.50288e-05
4.51264e-06
-4.56919e-05
4.4255e-06
-4.63325e-05
4.35085e-06
-4.69499e-05
4.29283e-06
-4.75431e-05
4.25666e-06
-4.81103e-05
4.24891e-06
-4.86484e-05
4.27773e-06
-4.91519e-05
4.35325e-06
-4.96119e-05
4.48778e-06
-5.00133e-05
4.69592e-06
-5.03315e-05
4.99402e-06
-5.05283e-05
5.39851e-06
-5.05452e-05
5.92245e-06
-5.02958e-05
6.56858e-06
-4.96707e-05
7.30926e-06
8.06538e-06
-4.85857e-05
-5.26145e-07
3.68999e-06
-1.50168e-06
6.91818e-06
-2.63499e-06
8.07427e-06
-3.81194e-06
8.4004e-06
-4.99773e-06
8.46827e-06
-6.18354e-06
8.47031e-06
-7.36724e-06
8.45631e-06
-8.54802e-06
8.43665e-06
-9.72533e-06
8.41314e-06
-1.08986e-05
8.38605e-06
-1.20674e-05
8.35539e-06
-1.32312e-05
8.32115e-06
-1.43893e-05
8.2833e-06
-1.55413e-05
8.24181e-06
-1.66867e-05
8.19666e-06
-1.78249e-05
8.1478e-06
-1.89553e-05
8.09521e-06
-2.00775e-05
8.03884e-06
-2.11908e-05
7.97867e-06
-2.22947e-05
7.91466e-06
-2.33886e-05
7.84677e-06
-2.44721e-05
7.77496e-06
-2.55444e-05
7.69921e-06
-2.6605e-05
7.61949e-06
-2.76534e-05
7.53577e-06
-2.86889e-05
7.44803e-06
-2.97109e-05
7.35627e-06
-3.07189e-05
7.26049e-06
-3.17123e-05
7.1607e-06
-3.26904e-05
7.05694e-06
-3.36526e-05
6.94926e-06
-3.45983e-05
6.83774e-06
-3.5527e-05
6.7225e-06
-3.64379e-05
6.6037e-06
-3.73306e-05
6.48154e-06
-3.82043e-05
6.35629e-06
-3.90584e-05
6.22829e-06
-3.98925e-05
6.09797e-06
-4.07058e-05
5.96589e-06
-4.14978e-05
5.83271e-06
-4.2268e-05
5.6993e-06
-4.30155e-05
5.56671e-06
-4.374e-05
5.43624e-06
-4.44405e-05
5.30953e-06
-4.51165e-05
5.18857e-06
-4.57668e-05
5.07583e-06
-4.63903e-05
4.97433e-06
-4.69853e-05
4.88781e-06
-4.75494e-05
4.82079e-06
-4.80793e-05
4.77877e-06
-4.85698e-05
4.76831e-06
-4.90137e-05
4.7971e-06
-4.93998e-05
4.87386e-06
-4.97118e-05
5.00797e-06
-4.99263e-05
5.2085e-06
-5.001e-05
5.48225e-06
-4.99181e-05
5.83054e-06
-4.95931e-05
6.24355e-06
-4.89734e-05
6.68953e-06
7.10851e-06
-4.80165e-05
-5.26687e-07
4.21667e-06
-1.50456e-06
7.89605e-06
-2.64102e-06
9.21073e-06
-3.82143e-06
9.58081e-06
-5.01074e-06
9.65757e-06
-6.20009e-06
9.65966e-06
-7.38732e-06
9.64354e-06
-8.57164e-06
9.62098e-06
-9.75251e-06
9.59401e-06
-1.09294e-05
9.56294e-06
-1.21018e-05
9.52777e-06
-1.32691e-05
9.4885e-06
-1.44309e-05
9.44509e-06
-1.55866e-05
9.39752e-06
-1.67357e-05
9.34574e-06
-1.78776e-05
9.28972e-06
-1.90118e-05
9.22942e-06
-2.01378e-05
9.16481e-06
-2.1255e-05
9.09583e-06
-2.23627e-05
9.02245e-06
-2.34606e-05
8.94463e-06
-2.4548e-05
8.86233e-06
-2.56243e-05
8.7755e-06
-2.66889e-05
8.68412e-06
-2.77413e-05
8.58815e-06
-2.87808e-05
8.48756e-06
-2.98069e-05
8.38235e-06
-3.08189e-05
8.2725e-06
-3.18162e-05
8.15802e-06
-3.27982e-05
8.03894e-06
-3.37643e-05
7.9153e-06
-3.47137e-05
7.78719e-06
-3.56459e-05
7.6547e-06
-3.65602e-05
7.51798e-06
-3.74559e-05
7.37723e-06
-3.83323e-05
7.23271e-06
-3.91887e-05
7.08474e-06
-4.00245e-05
6.93374e-06
-4.08389e-05
6.78024e-06
-4.1631e-05
6.62488e-06
-4.24002e-05
6.46848e-06
-4.31456e-05
6.31204e-06
-4.38661e-05
6.15677e-06
-4.45607e-05
6.00417e-06
-4.52282e-05
5.85605e-06
-4.5867e-05
5.71462e-06
-4.64752e-05
5.58252e-06
-4.70503e-05
5.4629e-06
-4.7589e-05
5.3595e-06
-4.80869e-05
5.27666e-06
-4.85379e-05
5.21932e-06
-4.89337e-05
5.19289e-06
-4.92628e-05
5.20303e-06
-4.95099e-05
5.25499e-06
-4.9654e-05
5.35268e-06
-4.96687e-05
5.49687e-06
-4.95208e-05
5.68272e-06
-4.91732e-05
5.89592e-06
-4.85913e-05
6.10767e-06
6.27316e-06
-4.7756e-05
-5.27426e-07
4.7441e-06
-1.50799e-06
8.87661e-06
-2.64804e-06
1.03508e-05
-3.83236e-06
1.07651e-05
-5.02566e-06
1.08509e-05
-6.21903e-06
1.0853e-05
-7.4103e-06
1.08348e-05
-8.59867e-06
1.08093e-05
-9.7836e-06
1.07789e-05
-1.09646e-05
1.07439e-05
-1.21411e-05
1.07043e-05
-1.33125e-05
1.066e-05
-1.44785e-05
1.06111e-05
-1.56384e-05
1.05574e-05
-1.67917e-05
1.04991e-05
-1.79379e-05
1.04359e-05
-1.90765e-05
1.0368e-05
-2.02068e-05
1.02951e-05
-2.13284e-05
1.02174e-05
-2.24406e-05
1.01347e-05
-2.35429e-05
1.0047e-05
-2.46348e-05
9.95422e-06
-2.57157e-05
9.85635e-06
-2.67849e-05
9.75334e-06
-2.78419e-05
9.64514e-06
-2.8886e-05
9.53172e-06
-2.99167e-05
9.41305e-06
-3.09334e-05
9.28913e-06
-3.19353e-05
9.15993e-06
-3.29218e-05
9.02548e-06
-3.38923e-05
8.88582e-06
-3.48461e-05
8.74099e-06
-3.57825e-05
8.5911e-06
-3.67008e-05
8.43626e-06
-3.76003e-05
8.27666e-06
-3.84801e-05
8.11253e-06
-3.93395e-05
7.94417e-06
-4.01777e-05
7.77196e-06
-4.09939e-05
7.59638e-06
-4.1787e-05
7.41802e-06
-4.25562e-05
7.23762e-06
-4.33002e-05
7.05608e-06
-4.40179e-05
6.87449e-06
-4.47079e-05
6.69416e-06
-4.53685e-05
6.51667e-06
-4.59978e-05
6.34388e-06
-4.65933e-05
6.17799e-06
-4.71519e-05
6.02154e-06
-4.76699e-05
5.87744e-06
-4.81421e-05
5.74892e-06
-4.85622e-05
5.63941e-06
-4.89217e-05
5.55243e-06
-4.92099e-05
5.49114e-06
-4.94127e-05
5.45784e-06
-4.9513e-05
5.45299e-06
-4.94901e-05
5.47393e-06
-4.93204e-05
5.51305e-06
-4.89801e-05
5.55561e-06
-4.84501e-05
5.57771e-06
5.54585e-06
-4.77228e-05
-5.28318e-07
5.27242e-06
-1.51192e-06
9.86021e-06
-2.65602e-06
1.14949e-05
-3.84473e-06
1.19538e-05
-5.04252e-06
1.20487e-05
-6.24041e-06
1.20509e-05
-7.43621e-06
1.20306e-05
-8.62914e-06
1.20023e-05
-9.81865e-06
1.19684e-05
-1.10042e-05
1.19295e-05
-1.21853e-05
1.18854e-05
-1.33615e-05
1.18361e-05
-1.45321e-05
1.17817e-05
-1.56968e-05
1.17221e-05
-1.68549e-05
1.16572e-05
-1.80059e-05
1.15869e-05
-1.91493e-05
1.15114e-05
-2.02845e-05
1.14304e-05
-2.1411e-05
1.13439e-05
-2.25283e-05
1.12519e-05
-2.36357e-05
1.11544e-05
-2.47327e-05
1.10512e-05
-2.58187e-05
1.09423e-05
-2.68931e-05
1.08277e-05
-2.79553e-05
1.07073e-05
-2.90047e-05
1.05811e-05
-3.00406e-05
1.0449e-05
-3.10625e-05
1.0311e-05
-3.20697e-05
1.01671e-05
-3.30614e-05
1.00172e-05
-3.40371e-05
9.86148e-06
-3.49959e-05
9.69985e-06
-3.59373e-05
9.53241e-06
-3.68603e-05
9.35928e-06
-3.77642e-05
9.1806e-06
-3.86482e-05
8.99656e-06
-3.95115e-05
8.80741e-06
-4.0353e-05
8.6135e-06
-4.11719e-05
8.41524e-06
-4.1967e-05
8.21313e-06
-4.27372e-05
8.00783e-06
-4.34812e-05
7.80009e-06
-4.41976e-05
7.59085e-06
-4.48846e-05
7.3812e-06
-4.55404e-05
7.17245e-06
-4.61626e-05
6.9661e-06
-4.67485e-05
6.76388e-06
-4.72947e-05
6.56773e-06
-4.7797e-05
6.37976e-06
-4.82503e-05
6.20218e-06
-4.86481e-05
6.03719e-06
-4.89824e-05
5.88674e-06
-4.92434e-05
5.75215e-06
-4.94192e-05
5.63366e-06
-4.94959e-05
5.52965e-06
-4.94576e-05
5.43567e-06
-4.92879e-05
5.34339e-06
-4.89717e-05
5.23938e-06
-4.84983e-05
5.10429e-06
4.91325e-06
-4.78657e-05
-5.29339e-07
5.80175e-06
-1.51633e-06
1.08472e-05
-2.66494e-06
1.26435e-05
-3.85853e-06
1.31474e-05
-5.0613e-06
1.32514e-05
-6.2642e-06
1.32538e-05
-7.46504e-06
1.32315e-05
-8.66303e-06
1.32003e-05
-9.85763e-06
1.3163e-05
-1.10483e-05
1.31202e-05
-1.22346e-05
1.30716e-05
-1.34159e-05
1.30175e-05
-1.45918e-05
1.29576e-05
-1.57617e-05
1.2892e-05
-1.69251e-05
1.28206e-05
-1.80815e-05
1.27433e-05
-1.92303e-05
1.26602e-05
-2.0371e-05
1.25711e-05
-2.1503e-05
1.24759e-05
-2.26258e-05
1.23747e-05
-2.37389e-05
1.22674e-05
-2.48415e-05
1.21539e-05
-2.59333e-05
1.20341e-05
-2.70134e-05
1.19079e-05
-2.80815e-05
1.17754e-05
-2.91367e-05
1.16364e-05
-3.01786e-05
1.14909e-05
-3.12064e-05
1.13388e-05
-3.22195e-05
1.11802e-05
-3.32171e-05
1.10149e-05
-3.41986e-05
1.0843e-05
-3.51633e-05
1.06645e-05
-3.61103e-05
1.04794e-05
-3.70388e-05
1.02878e-05
-3.79481e-05
1.00899e-05
-3.88372e-05
9.88565e-06
-3.97052e-05
9.67539e-06
-4.0551e-05
9.45936e-06
-4.13737e-05
9.23788e-06
-4.21719e-05
9.01139e-06
-4.29445e-05
8.7804e-06
-4.36899e-05
8.54553e-06
-4.44066e-05
8.30753e-06
-4.50927e-05
8.06727e-06
-4.5746e-05
7.82575e-06
-4.6364e-05
7.58413e-06
-4.69438e-05
7.34366e-06
-4.74818e-05
7.10572e-06
-4.79737e-05
6.87172e-06
-4.84146e-05
6.64301e-06
-4.87981e-05
6.42075e-06
-4.91171e-05
6.2057e-06
-4.93628e-05
5.99789e-06
-4.95254e-05
5.7962e-06
-4.95936e-05
5.59786e-06
-4.95556e-05
5.39774e-06
-4.94e-05
5.18776e-06
-4.91169e-05
4.95626e-06
-4.87005e-05
4.68787e-06
4.36408e-06
-4.81513e-05
-5.30475e-07
6.33223e-06
-1.5212e-06
1.18379e-05
-2.67478e-06
1.37971e-05
-3.87374e-06
1.43464e-05
-5.08198e-06
1.44597e-05
-6.2904e-06
1.44622e-05
-7.49678e-06
1.44378e-05
-8.70033e-06
1.44038e-05
-9.90052e-06
1.43632e-05
-1.10968e-05
1.43165e-05
-1.22888e-05
1.42636e-05
-1.34758e-05
1.42045e-05
-1.46574e-05
1.41392e-05
-1.58331e-05
1.40677e-05
-1.70024e-05
1.39898e-05
-1.81646e-05
1.39056e-05
-1.93194e-05
1.38149e-05
-2.04661e-05
1.37178e-05
-2.16042e-05
1.3614e-05
-2.27332e-05
1.35037e-05
-2.38524e-05
1.33866e-05
-2.49613e-05
1.32628e-05
-2.60594e-05
1.31321e-05
-2.7146e-05
1.29945e-05
-2.82205e-05
1.28499e-05
-2.92822e-05
1.26982e-05
-3.03306e-05
1.25393e-05
-3.1365e-05
1.23732e-05
-3.23847e-05
1.21998e-05
-3.3389e-05
1.20191e-05
-3.43771e-05
1.18311e-05
-3.53483e-05
1.16357e-05
-3.63018e-05
1.14329e-05
-3.72367e-05
1.12228e-05
-3.81522e-05
1.10053e-05
-3.90473e-05
1.07808e-05
-3.9921e-05
1.05491e-05
-4.07723e-05
1.03106e-05
-4.15999e-05
1.00655e-05
-4.24026e-05
9.81411e-06
-4.3179e-05
9.5568e-06
-4.39275e-05
9.29406e-06
-4.46464e-05
9.02642e-06
-4.53337e-05
8.75454e-06
-4.5987e-05
8.47912e-06
-4.66039e-05
8.20096e-06
-4.71811e-05
7.92091e-06
-4.77152e-05
7.63982e-06
-4.8202e-05
7.35849e-06
-4.86366e-05
7.07757e-06
-4.90133e-05
6.79743e-06
-4.93255e-05
6.51792e-06
-4.95658e-05
6.23821e-06
-4.9726e-05
5.95638e-06
-4.97972e-05
5.66907e-06
-4.97705e-05
5.3711e-06
-4.96379e-05
5.05508e-06
-4.93928e-05
4.71117e-06
-4.90321e-05
4.3272e-06
3.88935e-06
-4.85574e-05
-5.3172e-07
6.86395e-06
-1.52653e-06
1.28327e-05
-2.68552e-06
1.49561e-05
-3.89033e-06
1.55512e-05
-5.10454e-06
1.56739e-05
-6.31897e-06
1.56767e-05
-7.53138e-06
1.56502e-05
-8.741e-06
1.56134e-05
-9.94728e-06
1.55695e-05
-1.11497e-05
1.55189e-05
-1.23478e-05
1.54617e-05
-1.35411e-05
1.53978e-05
-1.4729e-05
1.53271e-05
-1.5911e-05
1.52497e-05
-1.70866e-05
1.51654e-05
-1.82553e-05
1.50743e-05
-1.94166e-05
1.49762e-05
-2.05698e-05
1.4871e-05
-2.17146e-05
1.47588e-05
-2.28502e-05
1.46394e-05
-2.39762e-05
1.45127e-05
-2.5092e-05
1.43786e-05
-2.6197e-05
1.42371e-05
-2.72906e-05
1.40881e-05
-2.83722e-05
1.39314e-05
-2.94411e-05
1.37671e-05
-3.04967e-05
1.35949e-05
-3.15384e-05
1.34149e-05
-3.25654e-05
1.32268e-05
-3.3577e-05
1.30308e-05
-3.45724e-05
1.28266e-05
-3.5551e-05
1.26142e-05
-3.65118e-05
1.23937e-05
-3.7454e-05
1.2165e-05
-3.83767e-05
1.1928e-05
-3.92788e-05
1.16829e-05
-4.01593e-05
1.14297e-05
-4.10172e-05
1.11684e-05
-4.1851e-05
1.08994e-05
-4.26596e-05
1.06227e-05
-4.34414e-05
1.03386e-05
-4.41948e-05
1.00474e-05
-4.49179e-05
9.74954e-06
-4.56087e-05
9.44531e-06
-4.62648e-05
9.1352e-06
-4.68835e-05
8.81969e-06
-4.74619e-05
8.49923e-06
-4.79963e-05
8.17424e-06
-4.84828e-05
7.845e-06
-4.89168e-05
7.51159e-06
-4.92931e-05
7.17378e-06
-4.9606e-05
6.83081e-06
-4.98491e-05
6.48127e-06
-5.00155e-05
6.12279e-06
-5.00983e-05
5.75184e-06
-5.00907e-05
5.36349e-06
-4.99868e-05
4.95118e-06
-4.97823e-05
4.50672e-06
-4.94756e-05
4.02051e-06
3.48205e-06
-4.90683e-05
-5.33066e-07
7.39702e-06
-1.53229e-06
1.3832e-05
-2.69715e-06
1.61209e-05
-3.90829e-06
1.67623e-05
-5.12896e-06
1.68946e-05
-6.34989e-06
1.68976e-05
-7.56883e-06
1.68692e-05
-8.78501e-06
1.68296e-05
-9.99789e-06
1.67824e-05
-1.1207e-05
1.6728e-05
-1.24117e-05
1.66664e-05
-1.36117e-05
1.65977e-05
-1.48064e-05
1.65218e-05
-1.59952e-05
1.64385e-05
-1.71777e-05
1.63479e-05
-1.83534e-05
1.62499e-05
-1.95217e-05
1.61445e-05
-2.06821e-05
1.60314e-05
-2.1834e-05
1.59107e-05
-2.29769e-05
1.57823e-05
-2.41103e-05
1.5646e-05
-2.52335e-05
1.55018e-05
-2.6346e-05
1.53496e-05
-2.74472e-05
1.51893e-05
-2.85365e-05
1.50207e-05
-2.96132e-05
1.48438e-05
-3.06767e-05
1.46584e-05
-3.17264e-05
1.44645e-05
-3.27614e-05
1.42619e-05
-3.37811e-05
1.40505e-05
-3.47847e-05
1.38302e-05
-3.57715e-05
1.3601e-05
-3.67405e-05
1.33627e-05
-3.76909e-05
1.31153e-05
-3.86217e-05
1.28588e-05
-3.95319e-05
1.25931e-05
-4.04204e-05
1.23182e-05
-4.12861e-05
1.20341e-05
-4.21276e-05
1.17409e-05
-4.29435e-05
1.14387e-05
-4.37324e-05
1.11275e-05
-4.44925e-05
1.08075e-05
-4.52219e-05
1.0479e-05
-4.59186e-05
1.0142e-05
-4.65801e-05
9.79671e-06
-4.72038e-05
9.4434e-06
-4.77867e-05
9.08215e-06
-4.83254e-05
8.713e-06
-4.88163e-05
8.33581e-06
-4.92549e-05
7.95024e-06
-4.96367e-05
7.55559e-06
-4.99566e-05
7.15068e-06
-5.02091e-05
6.73375e-06
-5.03885e-05
6.30225e-06
-5.04894e-05
5.85268e-06
-5.05064e-05
5.38049e-06
-5.04352e-05
4.87997e-06
-5.02728e-05
4.34435e-06
-5.00183e-05
3.766e-06
3.13686e-06
-4.96731e-05
-5.34508e-07
7.93152e-06
-1.53849e-06
1.48359e-05
-2.70965e-06
1.72921e-05
-3.9276e-06
1.79803e-05
-5.15522e-06
1.81222e-05
-6.38313e-06
1.81255e-05
-7.6091e-06
1.80952e-05
-8.83234e-06
1.80529e-05
-1.00523e-05
1.80024e-05
-1.12685e-05
1.79442e-05
-1.24805e-05
1.78784e-05
-1.36877e-05
1.78049e-05
-1.48896e-05
1.77237e-05
-1.60858e-05
1.76347e-05
-1.72758e-05
1.75379e-05
-1.84589e-05
1.74331e-05
-1.96348e-05
1.73203e-05
-2.08028e-05
1.71994e-05
-2.19624e-05
1.70704e-05
-2.31132e-05
1.6933e-05
-2.42545e-05
1.67873e-05
-2.53857e-05
1.66331e-05
-2.65064e-05
1.64703e-05
-2.76158e-05
1.62987e-05
-2.87134e-05
1.61183e-05
-2.97986e-05
1.5929e-05
-3.08707e-05
1.57305e-05
-3.1929e-05
1.55228e-05
-3.29728e-05
1.53057e-05
-3.40013e-05
1.50791e-05
-3.50139e-05
1.48428e-05
-3.60097e-05
1.45968e-05
-3.69878e-05
1.43408e-05
-3.79473e-05
1.40749e-05
-3.88873e-05
1.37988e-05
-3.98067e-05
1.35125e-05
-4.07044e-05
1.32159e-05
-4.15791e-05
1.29089e-05
-4.24297e-05
1.25914e-05
-4.32545e-05
1.22635e-05
-4.40522e-05
1.19251e-05
-4.48209e-05
1.15762e-05
-4.55588e-05
1.12168e-05
-4.62636e-05
1.08468e-05
-4.69332e-05
1.04663e-05
-4.75649e-05
1.00751e-05
-4.81558e-05
9.67304e-06
-4.87027e-05
9.25989e-06
-4.92021e-05
8.83516e-06
-4.965e-05
8.39818e-06
-5.00423e-05
7.9479e-06
-5.03745e-05
7.4829e-06
-5.0642e-05
7.00121e-06
-5.084e-05
6.50022e-06
-5.09639e-05
5.97661e-06
-5.10097e-05
5.42624e-06
-5.09739e-05
4.84421e-06
-5.08544e-05
4.22488e-06
-5.06506e-05
3.56215e-06
2.84979e-06
-5.03635e-05
-5.36041e-07
8.46756e-06
-1.5451e-06
1.5845e-05
-2.72301e-06
1.847e-05
-3.94824e-06
1.92055e-05
-5.18328e-06
1.93572e-05
-6.41867e-06
1.93609e-05
-7.65215e-06
1.93286e-05
-8.88293e-06
1.92836e-05
-1.01105e-05
1.92299e-05
-1.13343e-05
1.9168e-05
-1.25539e-05
1.9098e-05
-1.37689e-05
1.90199e-05
-1.49786e-05
1.89335e-05
-1.61827e-05
1.88388e-05
-1.73805e-05
1.87357e-05
-1.85717e-05
1.86243e-05
-1.97556e-05
1.85043e-05
-2.09318e-05
1.83756e-05
-2.20998e-05
1.82383e-05
-2.32589e-05
1.80922e-05
-2.44087e-05
1.79371e-05
-2.55485e-05
1.7773e-05
-2.66779e-05
1.75996e-05
-2.77962e-05
1.7417e-05
-2.89028e-05
1.72249e-05
-2.99971e-05
1.70232e-05
-3.10784e-05
1.68118e-05
-3.21461e-05
1.65904e-05
-3.31994e-05
1.6359e-05
-3.42376e-05
1.61173e-05
-3.52599e-05
1.58652e-05
-3.62656e-05
1.56024e-05
-3.72537e-05
1.53289e-05
-3.82234e-05
1.50445e-05
-3.91736e-05
1.4749e-05
-4.01033e-05
1.44422e-05
-4.10113e-05
1.41239e-05
-4.18965e-05
1.3794e-05
-4.27575e-05
1.34524e-05
-4.35929e-05
1.30989e-05
-4.4401e-05
1.27333e-05
-4.51802e-05
1.23555e-05
-4.59286e-05
1.19652e-05
-4.66441e-05
1.15623e-05
-4.73244e-05
1.11466e-05
-4.7967e-05
1.07177e-05
-4.85691e-05
1.02751e-05
-4.91277e-05
9.81846e-06
-4.96394e-05
9.34692e-06
-5.01008e-05
8.85958e-06
-5.05081e-05
8.35517e-06
-5.08573e-05
7.83209e-06
-5.11443e-05
7.28827e-06
-5.13653e-05
6.72116e-06
-5.15163e-05
6.12762e-06
-5.1594e-05
5.50397e-06
-5.15957e-05
4.84595e-06
-5.15198e-05
4.14889e-06
-5.13654e-05
3.40784e-06
2.61793e-06
-5.11336e-05
-5.37658e-07
9.00522e-06
-1.55211e-06
1.68595e-05
-2.7372e-06
1.96551e-05
-3.97019e-06
2.04385e-05
-5.21313e-06
2.06002e-05
-6.45648e-06
2.06042e-05
-7.69795e-06
2.05701e-05
-8.93675e-06
2.05224e-05
-1.01724e-05
2.04655e-05
-1.14043e-05
2.04e-05
-1.26321e-05
2.03258e-05
-1.38553e-05
2.0243e-05
-1.50733e-05
2.01515e-05
-1.62857e-05
2.00512e-05
-1.7492e-05
1.9942e-05
-1.86917e-05
1.98239e-05
-1.98843e-05
1.96968e-05
-2.10692e-05
1.95606e-05
-2.22459e-05
1.94151e-05
-2.3414e-05
1.92602e-05
-2.45728e-05
1.90959e-05
-2.57219e-05
1.8922e-05
-2.68606e-05
1.87383e-05
-2.79883e-05
1.85448e-05
-2.91045e-05
1.83411e-05
-3.02085e-05
1.81273e-05
-3.12998e-05
1.7903e-05
-3.23775e-05
1.76682e-05
-3.34411e-05
1.74225e-05
-3.44897e-05
1.71659e-05
-3.55227e-05
1.68981e-05
-3.65391e-05
1.66189e-05
-3.75382e-05
1.6328e-05
-3.85189e-05
1.60253e-05
-3.94804e-05
1.57104e-05
-4.04215e-05
1.53833e-05
-4.13411e-05
1.50435e-05
-4.22381e-05
1.4691e-05
-4.3111e-05
1.43253e-05
-4.39584e-05
1.39463e-05
-4.47788e-05
1.35537e-05
-4.55705e-05
1.31471e-05
-4.63315e-05
1.27263e-05
-4.70599e-05
1.22907e-05
-4.77534e-05
1.18401e-05
-4.84097e-05
1.13739e-05
-4.9026e-05
1.08914e-05
-4.95995e-05
1.0392e-05
-5.01272e-05
9.87462e-06
-5.06058e-05
9.3382e-06
-5.1032e-05
8.78131e-06
-5.14021e-05
8.20223e-06
-5.17127e-05
7.59887e-06
-5.19603e-05
6.96876e-06
-5.21417e-05
6.30899e-06
-5.22539e-05
5.61625e-06
-5.22949e-05
4.88686e-06
-5.22629e-05
4.1169e-06
-5.21573e-05
3.30232e-06
2.43923e-06
-5.19786e-05
-5.39355e-07
9.54458e-06
-1.55951e-06
1.78796e-05
-2.75222e-06
2.08478e-05
-3.99342e-06
2.16797e-05
-5.24474e-06
2.18515e-05
-6.49652e-06
2.1856e-05
-7.74645e-06
2.182e-05
-8.99376e-06
2.17697e-05
-1.02379e-05
2.17097e-05
-1.14785e-05
2.16405e-05
-1.27149e-05
2.15623e-05
-1.39468e-05
2.14749e-05
-1.51736e-05
2.13783e-05
-1.63949e-05
2.12725e-05
-1.76101e-05
2.11573e-05
-1.88188e-05
2.10326e-05
-2.00205e-05
2.08985e-05
-2.12147e-05
2.07547e-05
-2.24008e-05
2.06012e-05
-2.35783e-05
2.04378e-05
-2.47468e-05
2.02643e-05
-2.59055e-05
2.00808e-05
-2.70541e-05
1.98869e-05
-2.81919e-05
1.96826e-05
-2.93184e-05
1.94676e-05
-3.04328e-05
1.92417e-05
-3.15346e-05
1.90048e-05
-3.26232e-05
1.87567e-05
-3.36977e-05
1.84971e-05
-3.47576e-05
1.82258e-05
-3.58019e-05
1.79425e-05
-3.683e-05
1.76469e-05
-3.78409e-05
1.73389e-05
-3.88337e-05
1.70181e-05
-3.98075e-05
1.66842e-05
-4.07612e-05
1.6337e-05
-4.16937e-05
1.5976e-05
-4.26037e-05
1.5601e-05
-4.349e-05
1.52116e-05
-4.43511e-05
1.48074e-05
-4.51854e-05
1.43881e-05
-4.59914e-05
1.39531e-05
-4.67671e-05
1.3502e-05
-4.75106e-05
1.30343e-05
-4.82198e-05
1.25493e-05
-4.88923e-05
1.20464e-05
-4.95257e-05
1.15248e-05
-5.01172e-05
1.09835e-05
-5.06641e-05
1.04215e-05
-5.11633e-05
9.83742e-06
-5.16118e-05
9.22979e-06
-5.20064e-05
8.59681e-06
-5.23439e-05
7.93641e-06
-5.26214e-05
7.2462e-06
-5.28359e-05
6.52349e-06
-5.29849e-05
5.76531e-06
-5.30665e-05
4.96844e-06
-5.30791e-05
4.12953e-06
-5.30221e-05
3.24525e-06
2.31243e-06
-5.28953e-05
-5.41125e-07
1.00857e-05
-1.5673e-06
1.89058e-05
-2.76803e-06
2.20485e-05
-4.01791e-06
2.29296e-05
-5.27808e-06
2.31116e-05
-6.53876e-06
2.31167e-05
-7.79763e-06
2.30789e-05
-9.05392e-06
2.3026e-05
-1.03071e-05
2.29629e-05
-1.15567e-05
2.28902e-05
-1.28023e-05
2.28079e-05
-1.40434e-05
2.2716e-05
-1.52795e-05
2.26144e-05
-1.65101e-05
2.25031e-05
-1.77348e-05
2.23819e-05
-1.8953e-05
2.22509e-05
-2.01643e-05
2.21098e-05
-2.13682e-05
2.19586e-05
-2.25642e-05
2.17971e-05
-2.37517e-05
2.16253e-05
-2.49303e-05
2.14429e-05
-2.60994e-05
2.12499e-05
-2.72585e-05
2.1046e-05
-2.84069e-05
2.0831e-05
-2.95442e-05
2.06048e-05
-3.06697e-05
2.03672e-05
-3.17828e-05
2.01179e-05
-3.28828e-05
1.98567e-05
-3.39691e-05
1.95834e-05
-3.50409e-05
1.92976e-05
-3.60975e-05
1.8999e-05
-3.7138e-05
1.86875e-05
-3.81617e-05
1.83626e-05
-3.91677e-05
1.8024e-05
-4.01548e-05
1.76714e-05
-4.11222e-05
1.73044e-05
-4.20688e-05
1.69225e-05
-4.29932e-05
1.65254e-05
-4.38942e-05
1.61127e-05
-4.47705e-05
1.56837e-05
-4.56205e-05
1.5238e-05
-4.64426e-05
1.47751e-05
-4.7235e-05
1.42944e-05