/*--------------------------------*- C++ -*----------------------------------*\
  =========                 |
  \\      /  F ield         | OpenFOAM: The Open Source CFD Toolbox
   \\    /   O peration     | Website:  https://openfoam.org
    \\  /    A nd           | Version:  8
     \\/     M anipulation  |
\*---------------------------------------------------------------------------*/
FoamFile
{
    version     2.0;
    format      ascii;
    class       volVectorField;
    location    "24.5";
    object      U;
}
// * * * * * * * * * * * * * * * * * * * * * * * * * * * * * * * * * * * * * //

dimensions      [0 1 -1 0 0 0 0];

internalField   nonuniform List<vector> 
11600
(
(-2.67223e-06 2.62021e-06 0)
(-3.1485e-05 1.13009e-05 0)
(-8.10161e-05 1.43922e-05 0)
(-0.000130365 1.51449e-05 0)
(-0.000182068 1.51376e-05 0)
(-0.000233457 1.50392e-05 0)
(-0.00028471 1.49873e-05 0)
(-0.000335884 1.49694e-05 0)
(-0.000386981 1.49681e-05 0)
(-0.000438001 1.49742e-05 0)
(-0.00048894 1.49836e-05 0)
(-0.000539787 1.49943e-05 0)
(-0.000590534 1.50052e-05 0)
(-0.000641167 1.5016e-05 0)
(-0.000691674 1.5026e-05 0)
(-0.000742041 1.50352e-05 0)
(-0.000792255 1.5043e-05 0)
(-0.000842301 1.50492e-05 0)
(-0.000892163 1.50536e-05 0)
(-0.000941826 1.50557e-05 0)
(-0.000991274 1.50552e-05 0)
(-0.00104049 1.50518e-05 0)
(-0.00108945 1.5045e-05 0)
(-0.00113815 1.50346e-05 0)
(-0.00118655 1.50202e-05 0)
(-0.00123465 1.50014e-05 0)
(-0.00128242 1.49778e-05 0)
(-0.00132984 1.49491e-05 0)
(-0.00137689 1.4915e-05 0)
(-0.00142354 1.48752e-05 0)
(-0.00146979 1.48294e-05 0)
(-0.0015156 1.47775e-05 0)
(-0.00156095 1.47193e-05 0)
(-0.00160583 1.46548e-05 0)
(-0.00165021 1.45841e-05 0)
(-0.00169408 1.45076e-05 0)
(-0.00173742 1.44257e-05 0)
(-0.00178022 1.43391e-05 0)
(-0.00182247 1.42491e-05 0)
(-0.00186416 1.41571e-05 0)
(-0.00190532 1.40651e-05 0)
(-0.00194594 1.39761e-05 0)
(-0.00198605 1.38938e-05 0)
(-0.00202571 1.38229e-05 0)
(-0.00206496 1.37699e-05 0)
(-0.00210392 1.37429e-05 0)
(-0.0021427 1.37525e-05 0)
(-0.0021815 1.3812e-05 0)
(-0.00222056 1.39375e-05 0)
(-0.00226023 1.41472e-05 0)
(-0.002301 1.44584e-05 0)
(-0.00234355 1.48805e-05 0)
(-0.00238879 1.54019e-05 0)
(-0.00243819 1.59675e-05 0)
(-0.00249435 1.65475e-05 0)
(-0.00255973 1.80077e-05 0)
(-0.00263061 2.50583e-05 0)
(-0.00280737 5.18103e-05 0)
(-0.00287224 0.000255904 0)
(-0.0038375 0.00087859 0)
(-1.15398e-05 3.15771e-05 0)
(-7.06742e-05 7.01635e-05 0)
(-0.000162131 8.44697e-05 0)
(-0.000253861 8.8608e-05 0)
(-0.000349573 8.93274e-05 0)
(-0.000445178 8.92817e-05 0)
(-0.000540661 8.91387e-05 0)
(-0.000636004 8.89917e-05 0)
(-0.000731138 8.88396e-05 0)
(-0.000826021 8.86742e-05 0)
(-0.000920619 8.84901e-05 0)
(-0.0010149 8.82843e-05 0)
(-0.00110882 8.80548e-05 0)
(-0.00120235 8.78004e-05 0)
(-0.00129545 8.752e-05 0)
(-0.00138808 8.72127e-05 0)
(-0.00148021 8.68774e-05 0)
(-0.00157179 8.65133e-05 0)
(-0.00166278 8.61194e-05 0)
(-0.00175316 8.56947e-05 0)
(-0.00184287 8.52382e-05 0)
(-0.00193187 8.4749e-05 0)
(-0.00202012 8.42262e-05 0)
(-0.00210759 8.36688e-05 0)
(-0.00219422 8.30759e-05 0)
(-0.00227997 8.24467e-05 0)
(-0.00236481 8.17805e-05 0)
(-0.00244868 8.10769e-05 0)
(-0.00253155 8.03354e-05 0)
(-0.00261338 7.95559e-05 0)
(-0.00269411 7.87387e-05 0)
(-0.00277371 7.78844e-05 0)
(-0.00285215 7.69942e-05 0)
(-0.00292937 7.60698e-05 0)
(-0.00300536 7.51139e-05 0)
(-0.00308008 7.41301e-05 0)
(-0.00315351 7.31236e-05 0)
(-0.00322563 7.21008e-05 0)
(-0.00329642 7.10707e-05 0)
(-0.00336591 7.00448e-05 0)
(-0.00343409 6.9038e-05 0)
(-0.00350101 6.807e-05 0)
(-0.00356673 6.71664e-05 0)
(-0.00363134 6.63608e-05 0)
(-0.00369497 6.56978e-05 0)
(-0.00375782 6.52367e-05 0)
(-0.00382015 6.50578e-05 0)
(-0.00388231 6.52707e-05 0)
(-0.00394481 6.60289e-05 0)
(-0.00400835 6.75503e-05 0)
(-0.00407392 7.01528e-05 0)
(-0.00414293 7.4315e-05 0)
(-0.00421746 8.07848e-05 0)
(-0.00430079 9.07958e-05 0)
(-0.00439813 0.000106702 0)
(-0.00451567 0.000134074 0)
(-0.00466506 0.000185549 0)
(-0.00490419 0.000288024 0)
(-0.00510118 0.000614794 0)
(-0.00568251 0.00111718 0)
(-1.48019e-05 8.17344e-05 0)
(-8.56552e-05 0.000161916 0)
(-0.000193254 0.000191766 0)
(-0.000300728 0.000200603 0)
(-0.000412527 0.000202473 0)
(-0.000524163 0.000202575 0)
(-0.000635619 0.00020229 0)
(-0.000746872 0.000201896 0)
(-0.000857838 0.000201437 0)
(-0.000968462 0.000200915 0)
(-0.0010787 0.000200328 0)
(-0.0011885 0.000199671 0)
(-0.00129782 0.000198944 0)
(-0.0014066 0.000198144 0)
(-0.00151481 0.00019727 0)
(-0.00162238 0.00019632 0)
(-0.00172928 0.000195292 0)
(-0.00183545 0.000194186 0)
(-0.00194084 0.000193 0)
(-0.0020454 0.000191732 0)
(-0.00214909 0.00019038 0)
(-0.00225183 0.000188945 0)
(-0.0023536 0.000187423 0)
(-0.00245433 0.000185815 0)
(-0.00255397 0.000184118 0)
(-0.00265247 0.000182332 0)
(-0.00274978 0.000180457 0)
(-0.00284584 0.000178492 0)
(-0.00294061 0.000176438 0)
(-0.00303403 0.000174295 0)
(-0.00312605 0.000172065 0)
(-0.00321663 0.000169751 0)
(-0.00330572 0.000167356 0)
(-0.00339328 0.000164886 0)
(-0.00347927 0.000162348 0)
(-0.00356365 0.000159751 0)
(-0.0036464 0.000157107 0)
(-0.00372749 0.000154434 0)
(-0.00380692 0.000151751 0)
(-0.0038847 0.000149087 0)
(-0.00396083 0.000146475 0)
(-0.00403536 0.00014396 0)
(-0.00410836 0.000141601 0)
(-0.00417991 0.000139474 0)
(-0.00425018 0.00013768 0)
(-0.00431935 0.00013635 0)
(-0.00438771 0.000135666 0)
(-0.00445561 0.000135871 0)
(-0.00452357 0.000137308 0)
(-0.00459227 0.000140463 0)
(-0.00466263 0.000146046 0)
(-0.00473592 0.000155124 0)
(-0.00481387 0.000169358 0)
(-0.00489897 0.000191446 0)
(-0.00499458 0.000226129 0)
(-0.00510427 0.000282276 0)
(-0.00523474 0.000375563 0)
(-0.0054018 0.000538904 0)
(-0.0055176 0.000870809 0)
(-0.00573175 0.00132534 0)
(-1.56417e-05 0.000132046 0)
(-9.02253e-05 0.000254457 0)
(-0.000202997 0.000299517 0)
(-0.000315185 0.000312611 0)
(-0.00043179 0.000315379 0)
(-0.000548165 0.000315513 0)
(-0.000664338 0.000315035 0)
(-0.000780294 0.000314367 0)
(-0.000895941 0.000313579 0)
(-0.00101122 0.000312677 0)
(-0.00112608 0.00031166 0)
(-0.00124046 0.000310525 0)
(-0.00135432 0.000309268 0)
(-0.0014676 0.000307889 0)
(-0.00158025 0.000306386 0)
(-0.00169222 0.000304755 0)
(-0.00180345 0.000302996 0)
(-0.00191389 0.000301107 0)
(-0.00202349 0.000299086 0)
(-0.00213219 0.00029693 0)
(-0.00223994 0.000294639 0)
(-0.00234668 0.00029221 0)
(-0.00245235 0.000289642 0)
(-0.00255691 0.000286934 0)
(-0.0026603 0.000284084 0)
(-0.00276246 0.000281092 0)
(-0.00286333 0.000277958 0)
(-0.00296287 0.000274681 0)
(-0.00306101 0.000271263 0)
(-0.0031577 0.000267705 0)
(-0.0032529 0.000264011 0)
(-0.00334655 0.000260185 0)
(-0.0034386 0.000256234 0)
(-0.003529 0.000252165 0)
(-0.00361772 0.000247991 0)
(-0.00370471 0.000243726 0)
(-0.00378995 0.000239389 0)
(-0.0038734 0.000235006 0)
(-0.00395507 0.000230608 0)
(-0.00403493 0.000226236 0)
(-0.004113 0.000221942 0)
(-0.00418932 0.000217793 0)
(-0.00426393 0.000213876 0)
(-0.00433692 0.000210302 0)
(-0.0044084 0.000207218 0)
(-0.00447855 0.000204816 0)
(-0.00454759 0.000203352 0)
(-0.00461582 0.000203169 0)
(-0.00468365 0.00020474 0)
(-0.00475161 0.000208717 0)
(-0.00482039 0.000216025 0)
(-0.00489087 0.000227999 0)
(-0.00496416 0.000246605 0)
(-0.00504164 0.000274827 0)
(-0.00512466 0.000317389 0)
(-0.00521388 0.00038188 0)
(-0.00530949 0.000480082 0)
(-0.00540595 0.000633713 0)
(-0.00545409 0.000885358 0)
(-0.00547672 0.00119319 0)
(-1.56595e-05 0.000184874 0)
(-9.11993e-05 0.000351289 0)
(-0.000205506 0.000411946 0)
(-0.00031898 0.000429389 0)
(-0.00043692 0.000433089 0)
(-0.000554578 0.000433267 0)
(-0.000672017 0.000432599 0)
(-0.000789231 0.000431648 0)
(-0.00090613 0.000430514 0)
(-0.00102265 0.000429209 0)
(-0.00113875 0.000427735 0)
(-0.00125436 0.000426088 0)
(-0.00136944 0.000424267 0)
(-0.00148393 0.00042227 0)
(-0.00159777 0.000420094 0)
(-0.00171092 0.000417737 0)
(-0.00182332 0.000415197 0)
(-0.00193492 0.000412472 0)
(-0.00204565 0.00040956 0)
(-0.00215547 0.000406458 0)
(-0.00226432 0.000403165 0)
(-0.00237214 0.000399678 0)
(-0.00247888 0.000395997 0)
(-0.00258449 0.000392118 0)
(-0.00268889 0.000388041 0)
(-0.00279205 0.000383766 0)
(-0.0028939 0.000379292 0)
(-0.00299438 0.00037462 0)
(-0.00309344 0.000369751 0)
(-0.00319103 0.000364689 0)
(-0.00328709 0.000359437 0)
(-0.00338157 0.000354003 0)
(-0.00347441 0.000348394 0)
(-0.00356557 0.000342622 0)
(-0.003655 0.000336702 0)
(-0.00374265 0.000330654 0)
(-0.0038285 0.000324504 0)
(-0.00391251 0.000318284 0)
(-0.00399466 0.000312035 0)
(-0.00407493 0.000305811 0)
(-0.00415331 0.000299678 0)
(-0.00422983 0.000293723 0)
(-0.00430451 0.000288055 0)
(-0.00437739 0.000282816 0)
(-0.00444857 0.000278188 0)
(-0.00451814 0.000274409 0)
(-0.00458625 0.000271791 0)
(-0.0046531 0.00027075 0)
(-0.00471892 0.000271842 0)
(-0.00478401 0.000275823 0)
(-0.00484871 0.000283732 0)
(-0.00491338 0.000297018 0)
(-0.00497833 0.000317722 0)
(-0.00504371 0.000348759 0)
(-0.00510907 0.000394339 0)
(-0.00517271 0.000460418 0)
(-0.00523097 0.000555118 0)
(-0.00527352 0.000690413 0)
(-0.00527275 0.000879377 0)
(-0.0052206 0.00109939 0)
(-1.55566e-05 0.000237498 0)
(-9.13452e-05 0.000448322 0)
(-0.000206188 0.000524608 0)
(-0.000320095 0.000546362 0)
(-0.000438508 0.000550948 0)
(-0.000556606 0.000551141 0)
(-0.000674475 0.000550268 0)
(-0.000792114 0.000549029 0)
(-0.000909437 0.000547547 0)
(-0.00102638 0.00054584 0)
(-0.0011429 0.000543909 0)
(-0.00125893 0.000541753 0)
(-0.00137443 0.000539369 0)
(-0.00148934 0.000536754 0)
(-0.00160361 0.000533908 0)
(-0.00171717 0.000530826 0)
(-0.00182999 0.000527507 0)
(-0.001942 0.000523948 0)
(-0.00205315 0.000520146 0)
(-0.00216338 0.0005161 0)
(-0.00227264 0.000511806 0)
(-0.00238087 0.000507263 0)
(-0.00248802 0.000502467 0)
(-0.00259402 0.000497419 0)
(-0.00269882 0.000492115 0)
(-0.00280237 0.000486556 0)
(-0.0029046 0.000480741 0)
(-0.00300547 0.000474672 0)
(-0.0031049 0.000468349 0)
(-0.00320285 0.000461778 0)
(-0.00329926 0.000454962 0)
(-0.00339407 0.000447909 0)
(-0.00348723 0.000440631 0)
(-0.00357869 0.00043314 0)
(-0.00366839 0.000425455 0)
(-0.00375629 0.000417599 0)
(-0.00384235 0.000409602 0)
(-0.00392651 0.000401503 0)
(-0.00400876 0.00039335 0)
(-0.00408906 0.000385205 0)
(-0.00416738 0.000377146 0)
(-0.00424373 0.000369273 0)
(-0.0043181 0.000361709 0)
(-0.00439049 0.000354617 0)
(-0.00446095 0.000348199 0)
(-0.0045295 0.000342718 0)
(-0.00459621 0.000338514 0)
(-0.00466115 0.000336027 0)
(-0.0047244 0.000335835 0)
(-0.004786 0.000338695 0)
(-0.004846 0.000345615 0)
(-0.00490431 0.000357929 0)
(-0.00496064 0.000377412 0)
(-0.0050143 0.000406419 0)
(-0.00506382 0.000448036 0)
(-0.00510641 0.000506116 0)
(-0.00513714 0.000585184 0)
(-0.00514652 0.000690255 0)
(-0.00511822 0.000823028 0)
(-0.00503991 0.000970442 0)
(-1.54911e-05 0.000290073 0)
(-9.14036e-05 0.000545537 0)
(-0.000206552 0.000637497 0)
(-0.000320736 0.000663572 0)
(-0.000439463 0.000669036 0)
(-0.000557858 0.000669236 0)
(-0.00067602 0.000668153 0)
(-0.00079395 0.000666624 0)
(-0.000911562 0.000664795 0)
(-0.0010288 0.000662686 0)
(-0.00114561 0.0006603 0)
(-0.00126193 0.000657636 0)
(-0.00137773 0.00065469 0)
(-0.00149293 0.00065146 0)
(-0.0016075 0.000647944 0)
(-0.00172136 0.000644139 0)
(-0.00183448 0.000640042 0)
(-0.0019468 0.000635651 0)
(-0.00205825 0.000630962 0)
(-0.00216879 0.000625972 0)
(-0.00227836 0.000620678 0)
(-0.0023869 0.000615079 0)
(-0.00249436 0.000609171 0)
(-0.00260068 0.000602953 0)
(-0.00270579 0.000596422 0)
(-0.00280965 0.000589578 0)
(-0.0029122 0.00058242 0)
(-0.00301337 0.00057495 0)
(-0.00311311 0.000567169 0)
(-0.00321136 0.000559082 0)
(-0.00330806 0.000550693 0)
(-0.00340315 0.000542011 0)
(-0.00349658 0.000533048 0)
(-0.00358828 0.000523819 0)
(-0.00367821 0.000514344 0)
(-0.00376631 0.000504648 0)
(-0.00385252 0.000494765 0)
(-0.0039368 0.000484737 0)
(-0.0040191 0.000474618 0)
(-0.00409937 0.000464473 0)
(-0.00417758 0.000454387 0)
(-0.00425369 0.000444467 0)
(-0.00432767 0.000434846 0)
(-0.00439949 0.000425692 0)
(-0.00446913 0.000417216 0)
(-0.00453656 0.000409687 0)
(-0.00460175 0.000403446 0)
(-0.00466467 0.000398924 0)
(-0.00472522 0.000396672 0)
(-0.00478329 0.000397394 0)
(-0.00483864 0.000401983 0)
(-0.00489087 0.000411572 0)
(-0.0049393 0.000427583 0)
(-0.00498277 0.000451761 0)
(-0.00501939 0.000486163 0)
(-0.00504614 0.000533019 0)
(-0.00505835 0.000594398 0)
(-0.00504873 0.000671511 0)
(-0.00500719 0.000762162 0)
(-0.00492479 0.000857324 0)
(-1.54573e-05 0.000342668 0)
(-9.14945e-05 0.000642976 0)
(-0.000206926 0.000750677 0)
(-0.000321397 0.000781102 0)
(-0.00044044 0.000787445 0)
(-0.000559146 0.000787648 0)
(-0.000677616 0.000786354 0)
(-0.000795854 0.000784534 0)
(-0.000913775 0.000782357 0)
(-0.00103132 0.000779848 0)
(-0.00114844 0.000777009 0)
(-0.00126508 0.000773837 0)
(-0.00138119 0.000770331 0)
(-0.00149671 0.000766489 0)
(-0.0016116 0.000762306 0)
(-0.00172579 0.00075778 0)
(-0.00183923 0.000752908 0)
(-0.00195188 0.000747686 0)
(-0.00206366 0.000742111 0)
(-0.00217454 0.00073618 0)
(-0.00228445 0.000729889 0)
(-0.00239333 0.000723235 0)
(-0.00250113 0.000716216 0)
(-0.00260779 0.000708829 0)
(-0.00271325 0.000701071 0)
(-0.00281746 0.000692941 0)
(-0.00292035 0.000684439 0)
(-0.00302187 0.000675565 0)
(-0.00312195 0.000666321 0)
(-0.00322054 0.000656711 0)
(-0.00331757 0.00064674 0)
(-0.00341298 0.000636416 0)
(-0.00350671 0.000625752 0)
(-0.0035987 0.000614763 0)
(-0.00368889 0.00060347 0)
(-0.00377722 0.0005919 0)
(-0.00386363 0.000580087 0)
(-0.00394805 0.000568075 0)
(-0.00403043 0.000555919 0)
(-0.00411071 0.000543687 0)
(-0.00418882 0.000531465 0)
(-0.00426472 0.000519362 0)
(-0.00433833 0.00050751 0)
(-0.00440959 0.000496077 0)
(-0.00447844 0.000485269 0)
(-0.00454477 0.000475344 0)
(-0.00460849 0.000466622 0)
(-0.00466945 0.000459501 0)
(-0.00472746 0.000454473 0)
(-0.00478224 0.000452143 0)
(-0.00483339 0.000453252 0)
(-0.0048803 0.000458688 0)
(-0.00492207 0.000469493 0)
(-0.00495738 0.00048684 0)
(-0.00498429 0.000511949 0)
(-0.005 0.000545885 0)
(-0.00500066 0.000589209 0)
(-0.00498104 0.000641335 0)
(-0.00493495 0.000699126 0)
(-0.00485704 0.000755656 0)
(-1.54391e-05 0.000395305 0)
(-9.16239e-05 0.000740638 0)
(-0.000207369 0.000864155 0)
(-0.000322166 0.000898959 0)
(-0.000441565 0.000906188 0)
(-0.000560624 0.000906395 0)
(-0.000679448 0.000904889 0)
(-0.00079804 0.000902778 0)
(-0.000916315 0.000900254 0)
(-0.00103422 0.000897346 0)
(-0.00115169 0.000894055 0)
(-0.0012687 0.000890379 0)
(-0.00138517 0.000886316 0)
(-0.00150106 0.000881863 0)
(-0.00161631 0.000877016 0)
(-0.00173087 0.000871773 0)
(-0.00184469 0.000866128 0)
(-0.00195772 0.000860079 0)
(-0.00206989 0.000853622 0)
(-0.00218115 0.000846753 0)
(-0.00229145 0.000839468 0)
(-0.00240072 0.000831763 0)
(-0.00250892 0.000823634 0)
(-0.00261598 0.00081508 0)
(-0.00272185 0.000806096 0)
(-0.00282645 0.000796681 0)
(-0.00292975 0.000786834 0)
(-0.00303167 0.000776554 0)
(-0.00313215 0.000765843 0)
(-0.00323113 0.000754703 0)
(-0.00332855 0.000743141 0)
(-0.00342433 0.000731164 0)
(-0.00351843 0.000718782 0)
(-0.00361077 0.000706013 0)
(-0.00370128 0.000692875 0)
(-0.0037899 0.000679395 0)
(-0.00387655 0.000665607 0)
(-0.00396118 0.000651555 0)
(-0.0040437 0.000637292 0)
(-0.00412404 0.000622884 0)
(-0.00420212 0.000608418 0)
(-0.00427787 0.000593994 0)
(-0.00435118 0.000579742 0)
(-0.00442196 0.000565818 0)
(-0.00449009 0.000552415 0)
(-0.00455543 0.000539767 0)
(-0.00461783 0.000528161 0)
(-0.00467704 0.000517942 0)
(-0.00473281 0.000509525 0)
(-0.00478475 0.000503402 0)
(-0.00483233 0.000500145 0)
(-0.00487487 0.000500405 0)
(-0.00491139 0.000504884 0)
(-0.00494057 0.000514288 0)
(-0.00496061 0.00052922 0)
(-0.00496916 0.000549991 0)
(-0.00496322 0.000576326 0)
(-0.00493918 0.00060692 0)
(-0.00489327 0.000638717 0)
(-0.00482257 0.00066648 0)
(-1.54279e-05 0.000448006 0)
(-9.1786e-05 0.00083855 0)
(-0.000207887 0.000977968 0)
(-0.000323056 0.00101718 0)
(-0.000442857 0.00102531 0)
(-0.000562317 0.00102552 0)
(-0.000681544 0.0010238 0)
(-0.00080054 0.0010214 0)
(-0.000919221 0.00101853 0)
(-0.00103753 0.00101523 0)
(-0.00115542 0.00101148 0)
(-0.00127283 0.00100731 0)
(-0.00138972 0.00100269 0)
(-0.00150603 0.00099763 0)
(-0.0016217 0.000992123 0)
(-0.00173669 0.000986165 0)
(-0.00185094 0.000979752 0)
(-0.0019644 0.00097288 0)
(-0.00207701 0.000965544 0)
(-0.00218871 0.000957741 0)
(-0.00229946 0.000949465 0)
(-0.00240918 0.000940712 0)
(-0.00251783 0.000931478 0)
(-0.00262535 0.000921759 0)
(-0.00273167 0.000911551 0)
(-0.00283675 0.000900852 0)
(-0.0029405 0.000889659 0)
(-0.00304289 0.000877972 0)
(-0.00314383 0.000865791 0)
(-0.00324326 0.000853117 0)
(-0.00334113 0.000839955 0)
(-0.00343736 0.000826312 0)
(-0.00353189 0.000812198 0)
(-0.00362464 0.000797627 0)
(-0.00371554 0.000782617 0)
(-0.00380452 0.000767193 0)
(-0.00389149 0.000751387 0)
(-0.00397639 0.000735239 0)
(-0.00405913 0.000718801 0)
(-0.00413961 0.000702133 0)
(-0.00421774 0.000685316 0)
(-0.00429342 0.000668443 0)
(-0.00436654 0.000651631 0)
(-0.00443695 0.000635022 0)
(-0.00450452 0.000618785 0)
(-0.00456905 0.000603126 0)
(-0.00463034 0.000588286 0)
(-0.00468811 0.000574552 0)
(-0.00474203 0.000562255 0)
(-0.00479165 0.000551771 0)
(-0.00483642 0.000543515 0)
(-0.00487559 0.000537925 0)
(-0.00490822 0.000535428 0)
(-0.00493308 0.000536376 0)
(-0.00494862 0.000540956 0)
(-0.00495294 0.000549029 0)
(-0.00494378 0.000559921 0)
(-0.00491871 0.000572142 0)
(-0.00487545 0.000583043 0)
(-0.00481252 0.000588736 0)
(-1.54196e-05 0.000500789 0)
(-9.19759e-05 0.000936748 0)
(-0.000208477 0.00109216 0)
(-0.000324067 0.00113582 0)
(-0.000444318 0.00114485 0)
(-0.000564229 0.00114507 0)
(-0.000683908 0.00114314 0)
(-0.000803359 0.00114045 0)
(-0.000922497 0.00113724 0)
(-0.00104127 0.00113354 0)
(-0.00115961 0.00112935 0)
(-0.00127749 0.00112468 0)
(-0.00139485 0.00111951 0)
(-0.00151163 0.00111384 0)
(-0.00162778 0.00110768 0)
(-0.00174325 0.00110101 0)
(-0.00185798 0.00109383 0)
(-0.00197193 0.00108614 0)
(-0.00208503 0.00107793 0)
(-0.00219723 0.0010692 0)
(-0.00230848 0.00105994 0)
(-0.00241871 0.00105014 0)
(-0.00252788 0.00103981 0)
(-0.00263591 0.00102893 0)
(-0.00274275 0.0010175 0)
(-0.00284835 0.00100552 0)
(-0.00295263 0.000992979 0)
(-0.00305554 0.000979884 0)
(-0.00315701 0.00096623 0)
(-0.00325697 0.000952018 0)
(-0.00335535 0.000937249 0)
(-0.00345209 0.000921931 0)
(-0.00354712 0.000906069 0)
(-0.00364035 0.000889676 0)
(-0.00373172 0.000872769 0)
(-0.00382113 0.000855369 0)
(-0.00390851 0.000837504 0)
(-0.00399377 0.00081921 0)
(-0.00407681 0.000800532 0)
(-0.00415753 0.000781525 0)
(-0.00423582 0.00076226 0)
(-0.00431155 0.00074282 0)
(-0.0043846 0.000723306 0)
(-0.00445481 0.000703839 0)
(-0.00452199 0.000684564 0)
(-0.00458594 0.000665649 0)
(-0.0046464 0.000647291 0)
(-0.00470308 0.000629712 0)
(-0.0047556 0.000613163 0)
(-0.00480349 0.000597913 0)
(-0.00484618 0.000584238 0)
(-0.00488296 0.000572402 0)
(-0.00491295 0.000562619 0)
(-0.00493504 0.000554996 0)
(-0.00494796 0.000549453 0)
(-0.0049502 0.000545609 0)
(-0.00494011 0.00054264 0)
(-0.00491606 0.000539118 0)
(-0.00487668 0.000532876 0)
(-0.00482125 0.000521049 0)
(-1.54124e-05 0.000553668 0)
(-9.2191e-05 0.00103527 0)
(-0.000209138 0.00120679 0)
(-0.000325195 0.00125492 0)
(-0.000445946 0.00126486 0)
(-0.000566358 0.00126509 0)
(-0.00068654 0.00126296 0)
(-0.000806495 0.00125998 0)
(-0.000926141 0.00125643 0)
(-0.00104542 0.00125234 0)
(-0.00116428 0.00124771 0)
(-0.00128267 0.00124254 0)
(-0.00140055 0.00123682 0)
(-0.00151785 0.00123056 0)
(-0.00163453 0.00122374 0)
(-0.00175054 0.00121637 0)
(-0.00186581 0.00120843 0)
(-0.0019803 0.00119993 0)
(-0.00209395 0.00119085 0)
(-0.00220671 0.00118119 0)
(-0.00231852 0.00117095 0)
(-0.00242931 0.00116011 0)
(-0.00253905 0.00114868 0)
(-0.00264766 0.00113664 0)
(-0.00275509 0.00112399 0)
(-0.00286127 0.00111073 0)
(-0.00296614 0.00109686 0)
(-0.00306963 0.00108235 0)
(-0.00317169 0.00106723 0)
(-0.00327225 0.00105147 0)
(-0.00337122 0.00103509 0)
(-0.00346854 0.00101809 0)
(-0.00356414 0.00100047 0)
(-0.00365794 0.000982239 0)
(-0.00374985 0.000963412 0)
(-0.00383978 0.000944007 0)
(-0.00392765 0.000924046 0)
(-0.00401337 0.000903559 0)
(-0.00409681 0.000882585 0)
(-0.00417788 0.000861171 0)
(-0.00425645 0.000839373 0)
(-0.00433238 0.000817263 0)
(-0.00440552 0.000794924 0)
(-0.0044757 0.000772455 0)
(-0.00454271 0.000749971 0)
(-0.00460633 0.000727606 0)
(-0.00466628 0.000705507 0)
(-0.00472224 0.000683839 0)
(-0.00477383 0.000662775 0)
(-0.00482058 0.000642492 0)
(-0.00486193 0.000623153 0)
(-0.00489721 0.000604884 0)
(-0.00492563 0.000587744 0)
(-0.00494625 0.000571677 0)
(-0.00495801 0.000556447 0)
(-0.00495975 0.00054156 0)
(-0.00495027 0.000526179 0)
(-0.00492847 0.000509041 0)
(-0.00489352 0.000488423 0)
(-0.00484511 0.000462202 0)
(-1.54053e-05 0.000606655 0)
(-9.24295e-05 0.00113414 0)
(-0.000209868 0.00132188 0)
(-0.000326439 0.00137454 0)
(-0.00044774 0.0013854 0)
(-0.000568702 0.00138565 0)
(-0.000689436 0.00138331 0)
(-0.000809947 0.00138005 0)
(-0.00093015 0.00137616 0)
(-0.00104999 0.00137167 0)
(-0.00116942 0.0013666 0)
(-0.00128838 0.00136094 0)
(-0.00140682 0.00135468 0)
(-0.00152471 0.00134782 0)
(-0.00164197 0.00134036 0)
(-0.00175856 0.00133229 0)
(-0.00187442 0.0013236 0)
(-0.00198951 0.00131428 0)
(-0.00210377 0.00130434 0)
(-0.00221713 0.00129376 0)
(-0.00232956 0.00128254 0)
(-0.00244098 0.00127068 0)
(-0.00255135 0.00125815 0)
(-0.00266059 0.00124496 0)
(-0.00276866 0.00123111 0)
(-0.00287549 0.00121657 0)
(-0.00298101 0.00120135 0)
(-0.00308517 0.00118545 0)
(-0.00318789 0.00116885 0)
(-0.0032891 0.00115155 0)
(-0.00338874 0.00113356 0)
(-0.00348672 0.00111487 0)
(-0.00358297 0.00109548 0)
(-0.00367741 0.0010754 0)
(-0.00376995 0.00105463 0)
(-0.0038605 0.0010332 0)
(-0.00394896 0.00101111 0)
(-0.00403523 0.000988393 0)
(-0.0041192 0.000965075 0)
(-0.00420074 0.000941193 0)
(-0.00427973 0.000916793 0)
(-0.004356 0.000891929 0)
(-0.00442941 0.000866666 0)
(-0.00449976 0.000841079 0)
(-0.00456684 0.000815255 0)
(-0.0046304 0.00078929 0)
(-0.00469017 0.000763289 0)
(-0.00474581 0.000737362 0)
(-0.00479694 0.000711615 0)
(-0.00484311 0.000686148 0)
(-0.00488379 0.000661031 0)
(-0.00491837 0.000636291 0)
(-0.00494615 0.000611877 0)
(-0.00496634 0.000587631 0)
(-0.00497808 0.000563234 0)
(-0.00498047 0.000538162 0)
(-0.00497263 0.000511633 0)
(-0.00495382 0.000482573 0)
(-0.00492352 0.000449621 0)
(-0.00488164 0.000411191 0)
(-1.53979e-05 0.000659761 0)
(-9.26904e-05 0.00123341 0)
(-0.000210665 0.0014375 0)
(-0.000327797 0.00149471 0)
(-0.000449697 0.00150651 0)
(-0.000571259 0.00150677 0)
(-0.000692595 0.00150423 0)
(-0.000813711 0.00150069 0)
(-0.000934522 0.00149647 0)
(-0.00105497 0.0014916 0)
(-0.00117501 0.00148609 0)
(-0.0012946 0.00147994 0)
(-0.00141367 0.00147314 0)
(-0.00153218 0.0014657 0)
(-0.00165007 0.00145759 0)
(-0.0017673 0.00144882 0)
(-0.00188381 0.00143938 0)
(-0.00199956 0.00142927 0)
(-0.00211447 0.00141847 0)
(-0.0022285 0.00140698 0)
(-0.0023416 0.00139479 0)
(-0.00245371 0.0013819 0)
(-0.00256476 0.00136829 0)
(-0.00267471 0.00135396 0)
(-0.00278348 0.00133889 0)
(-0.00289102 0.00132309 0)
(-0.00299726 0.00130654 0)
(-0.00310214 0.00128923 0)
(-0.00320559 0.00127117 0)
(-0.00330754 0.00125233 0)
(-0.00340791 0.00123272 0)
(-0.00350663 0.00121234 0)
(-0.00360361 0.00119117 0)
(-0.00369878 0.00116923 0)
(-0.00379204 0.00114652 0)
(-0.0038833 0.00112304 0)
(-0.00397246 0.0010988 0)
(-0.0040594 0.00107382 0)
(-0.00414401 0.00104812 0)
(-0.00422616 0.00102173 0)
(-0.00430571 0.000994673 0)
(-0.00438251 0.00096699 0)
(-0.00445637 0.000938727 0)
(-0.00452711 0.000909937 0)
(-0.0045945 0.000880677 0)
(-0.00465829 0.000851009 0)
(-0.00471821 0.000820999 0)
(-0.00477392 0.000790708 0)
(-0.00482504 0.000760188 0)
(-0.00487116 0.000729473 0)
(-0.00491179 0.000698565 0)
(-0.00494637 0.000667416 0)
(-0.00497429 0.000635906 0)
(-0.00499489 0.000603815 0)
(-0.00500748 0.000570792 0)
(-0.00501135 0.000536326 0)
(-0.00500586 0.000499717 0)
(-0.00499049 0.000460068 0)
(-0.00496491 0.000416304 0)
(-0.00492911 0.000367228 0)
(-1.53897e-05 0.000712996 0)
(-9.29726e-05 0.0013331 0)
(-0.000211528 0.00155368 0)
(-0.000329267 0.0016155 0)
(-0.000451816 0.00162824 0)
(-0.000574026 0.00162853 0)
(-0.000696013 0.00162579 0)
(-0.000817784 0.00162197 0)
(-0.000939253 0.00161741 0)
(-0.00106037 0.00161216 0)
(-0.00118107 0.00160622 0)
(-0.00130132 0.00159959 0)
(-0.00142107 0.00159226 0)
(-0.00154026 0.00158423 0)
(-0.00165884 0.00157548 0)
(-0.00177677 0.00156603 0)
(-0.00189398 0.00155585 0)
(-0.00201042 0.00154494 0)
(-0.00212605 0.00153329 0)
(-0.00224081 0.0015209 0)
(-0.00235464 0.00150775 0)
(-0.00246748 0.00149384 0)
(-0.00257929 0.00147915 0)
(-0.00268999 0.00146368 0)
(-0.00279953 0.00144742 0)
(-0.00290784 0.00143036 0)
(-0.00301487 0.00141248 0)
(-0.00312054 0.00139378 0)
(-0.00322479 0.00137425 0)
(-0.00332755 0.00135388 0)
(-0.00342873 0.00133266 0)
(-0.00352827 0.00131058 0)
(-0.00362607 0.00128765 0)
(-0.00372206 0.00126384 0)
(-0.00381614 0.00123917 0)
(-0.00390821 0.00121363 0)
(-0.00399817 0.00118723 0)
(-0.00408591 0.00115997 0)
(-0.00417129 0.00113187 0)
(-0.00425419 0.00110293 0)
(-0.00433447 0.00107317 0)
(-0.00441195 0.00104263 0)
(-0.00448646 0.00101131 0)
(-0.00455781 0.000979262 0)
(-0.00462577 0.000946505 0)
(-0.00469008 0.000913073 0)
(-0.00475047 0.000878995 0)
(-0.00480662 0.000844292 0)
(-0.00485818 0.00080897 0)
(-0.00490474 0.000773012 0)
(-0.00494585 0.000736369 0)
(-0.00498103 0.000698942 0)
(-0.00500975 0.000660566 0)
(-0.00503145 0.000620991 0)
(-0.00504557 0.000579864 0)
(-0.00505154 0.000536705 0)
(-0.00504889 0.000490903 0)
(-0.00503723 0.000441715 0)
(-0.00501636 0.000388287 0)
(-0.0049863 0.000329708 0)
(-1.53805e-05 0.000766371 0)
(-9.32754e-05 0.00143325 0)
(-0.000212456 0.00167047 0)
(-0.000330848 0.00173694 0)
(-0.000454093 0.00175064 0)
(-0.000577001 0.00175096 0)
(-0.000699689 0.00174802 0)
(-0.000822163 0.00174392 0)
(-0.000944339 0.00173904 0)
(-0.00106616 0.00173341 0)
(-0.00118759 0.00172704 0)
(-0.00130856 0.00171993 0)
(-0.00142903 0.00171208 0)
(-0.00154895 0.00170346 0)
(-0.00166827 0.00169409 0)
(-0.00178694 0.00168395 0)
(-0.0019049 0.00167304 0)
(-0.00202211 0.00166134 0)
(-0.00213851 0.00164885 0)
(-0.00225405 0.00163557 0)
(-0.00236866 0.00162147 0)
(-0.0024823 0.00160655 0)
(-0.00259491 0.00159079 0)
(-0.00270643 0.0015742 0)
(-0.0028168 0.00155675 0)
(-0.00292596 0.00153844 0)
(-0.00303384 0.00151925 0)
(-0.00314037 0.00149916 0)
(-0.00324549 0.00147818 0)
(-0.00334913 0.00145628 0)
(-0.0034512 0.00143345 0)
(-0.00355164 0.00140969 0)
(-0.00365035 0.00138498 0)
(-0.00374726 0.00135932 0)
(-0.00384225 0.00133269 0)
(-0.00393524 0.00130509 0)
(-0.00402612 0.00127652 0)
(-0.00411477 0.00124697 0)
(-0.00420106 0.00121644 0)
(-0.00428486 0.00118494 0)
(-0.00436602 0.00115247 0)
(-0.00444437 0.00111903 0)
(-0.00451974 0.00108464 0)
(-0.00459192 0.00104929 0)
(-0.00466069 0.00101301 0)
(-0.0047258 0.000975786 0)
(-0.00478699 0.000937622 0)
(-0.00484394 0.000898504 0)
(-0.00489632 0.0008584 0)
(-0.00494376 0.000817256 0)
(-0.00498586 0.000774984 0)
(-0.00502217 0.000731451 0)
(-0.00505224 0.000686466 0)
(-0.00507559 0.000639769 0)
(-0.00509177 0.000591017 0)
(-0.00510031 0.000539775 0)
(-0.00510085 0.000485513 0)
(-0.0050931 0.000427616 0)
(-0.00507691 0.000365403 0)
(-0.00505231 0.00029817 0)
(-1.53701e-05 0.000819895 0)
(-9.35979e-05 0.0015339 0)
(-0.000213446 0.00178791 0)
(-0.000332536 0.00185908 0)
(-0.000456528 0.00187376 0)
(-0.000580181 0.00187411 0)
(-0.000703618 0.00187098 0)
(-0.000826845 0.00186661 0)
(-0.000949778 0.0018614 0)
(-0.00107236 0.0018554 0)
(-0.00119455 0.00184861 0)
(-0.00131629 0.00184103 0)
(-0.00143754 0.00183265 0)
(-0.00155824 0.00182346 0)
(-0.00167835 0.00181347 0)
(-0.00179782 0.00180265 0)
(-0.00191659 0.00179101 0)
(-0.00203461 0.00177854 0)
(-0.00215183 0.00176522 0)
(-0.0022682 0.00175104 0)
(-0.00238366 0.001736 0)
(-0.00249816 0.00172009 0)
(-0.00261163 0.00170328 0)
(-0.00272403 0.00168557 0)
(-0.00283529 0.00166695 0)
(-0.00294535 0.00164739 0)
(-0.00305415 0.0016269 0)
(-0.00316161 0.00160544 0)
(-0.00326768 0.00158302 0)
(-0.00337227 0.0015596 0)
(-0.00347532 0.00153518 0)
(-0.00357674 0.00150974 0)
(-0.00367645 0.00148327 0)
(-0.00377436 0.00145576 0)
(-0.00387037 0.00142718 0)
(-0.00396439 0.00139752 0)
(-0.0040563 0.00136678 0)
(-0.00414598 0.00133494 0)
(-0.00423332 0.00130199 0)
(-0.00431817 0.00126792 0)
(-0.00440038 0.00123272 0)
(-0.00447978 0.00119639 0)
(-0.0045562 0.00115891 0)
(-0.00462944 0.00112027 0)
(-0.00469927 0.00108045 0)
(-0.00476547 0.00103944 0)
(-0.00482775 0.000997212 0)
(-0.00488585 0.000953712 0)
(-0.00493943 0.000908885 0)
(-0.00498815 0.000862647 0)
(-0.00503166 0.000814884 0)
(-0.00506955 0.000765439 0)
(-0.00510144 0.00071411 0)
(-0.0051269 0.000660637 0)
(-0.00514556 0.000604696 0)
(-0.00515705 0.000545896 0)
(-0.00516105 0.000483781 0)
(-0.00515734 0.000417837 0)
(-0.00514581 0.000347519 0)
(-0.00512646 0.000272276 0)
(-1.53581e-05 0.000873576 0)
(-9.39392e-05 0.00163506 0)
(-0.000214498 0.00190605 0)
(-0.000334331 0.00198198 0)
(-0.000459117 0.00199764 0)
(-0.000583564 0.00199803 0)
(-0.000707798 0.00199471 0)
(-0.000831826 0.00199008 0)
(-0.000955563 0.00198455 0)
(-0.00107896 0.00197817 0)
(-0.00120196 0.00197097 0)
(-0.00132452 0.00196292 0)
(-0.00144659 0.00195402 0)
(-0.00156813 0.00194427 0)
(-0.00168908 0.00193366 0)
(-0.00180939 0.00192218 0)
(-0.00192902 0.00190983 0)
(-0.00204791 0.00189658 0)
(-0.00216601 0.00188244 0)
(-0.00228326 0.00186739 0)
(-0.00239962 0.00185142 0)
(-0.00251503 0.00183452 0)
(-0.00262943 0.00181667 0)
(-0.00274277 0.00179786 0)
(-0.00285498 0.00177807 0)
(-0.00296601 0.0017573 0)
(-0.00307579 0.00173551 0)
(-0.00318425 0.0017127 0)
(-0.00329134 0.00168884 0)
(-0.00339696 0.00166393 0)
(-0.00350106 0.00163793 0)
(-0.00360355 0.00161083 0)
(-0.00370434 0.00158261 0)
(-0.00380335 0.00155326 0)
(-0.00390049 0.00152274 0)
(-0.00399564 0.00149104 0)
(-0.0040887 0.00145814 0)
(-0.00417956 0.00142402 0)
(-0.00426808 0.00138866 0)