/*--------------------------------*- C++ -*----------------------------------*\
  =========                 |
  \\      /  F ield         | OpenFOAM: The Open Source CFD Toolbox
   \\    /   O peration     | Website:  https://openfoam.org
    \\  /    A nd           | Version:  8
     \\/     M anipulation  |
\*---------------------------------------------------------------------------*/
FoamFile
{
    version     2.0;
    format      ascii;
    class       volScalarField;
    location    "0.145";
    object      p;
}
// * * * * * * * * * * * * * * * * * * * * * * * * * * * * * * * * * * * * * //

dimensions      [0 2 -2 0 0 0 0];

internalField   nonuniform List<scalar> 
400
(
8.9323e-07
-0.00581496
-0.0129362
-0.0183733
-0.0203811
-0.0181849
-0.0117255
-0.00144769
0.0118551
0.0271448
0.0432166
0.0587732
0.072511
0.0832296
0.0899709
0.0921907
0.0899628
0.0841992
0.0768546
0.0710539
0.00576189
-0.0002244
-0.00579719
-0.00952487
-0.0105738
-0.00840487
-0.00294455
0.00549225
0.0163096
0.0287043
0.0417272
0.0543491
0.0655381
0.0743549
0.0800641
0.0822644
0.0810361
0.0770272
0.0712611
0.0653178
0.0132936
0.00501024
-0.001005
-0.00442285
-0.00526562
-0.00325307
0.00161306
0.00903468
0.0185025
0.0293408
0.0407471
0.0518419
0.0617334
0.0695973
0.0747681
0.076844
0.0758165
0.0720729
0.0658073
0.0575545
0.020077
0.0086576
0.00120357
-0.00268026
-0.0037262
-0.0018846
0.00273384
0.00978617
0.0187785
0.0290878
0.0399783
0.050634
0.0602079
0.0678884
0.0729767
0.0749799
0.0737531
0.0694555
0.061619
0.0501408
0.0244262
0.00972507
0.000559364
-0.00400606
-0.00531299
-0.00351213
0.00117351
0.0083346
0.0174612
0.0279456
0.0390777
0.0500583
0.0600337
0.0681481
0.0736107
0.0757868
0.0743667
0.0692997
0.0595534
0.0445905
0.025099
0.00709971
-0.00383456
-0.00907844
-0.0105246
-0.0085055
-0.00335732
0.00443204
0.0143172
0.0256823
0.0378149
0.0499014
0.0610433
0.0702967
0.076729
0.0795153
0.0781452
0.0723515
0.0605752
0.0419524
0.0210228
-0.000306843
-0.0129628
-0.018727
-0.0200388
-0.0174154
-0.0113138
-0.00231055
0.00900236
0.021989
0.0359214
0.0499537
0.0631187
0.0743497
0.0825261
0.0865763
0.0857338
0.0794703
0.0656601
0.0431363
0.0110908
-0.0136493
-0.0278931
-0.0338633
-0.0346045
-0.030851
-0.0231995
-0.0123263
0.0011277
0.0165086
0.0330769
0.0499557
0.0661023
0.0803056
0.0912145
0.0974444
0.0978885
0.0916619
0.0759355
0.0491768
-0.00599186
-0.0342782
-0.0498733
-0.0555452
-0.0550799
-0.0494973
-0.0395691
-0.0260827
-0.00972171
0.00886095
0.0289389
0.0496291
0.0698291
0.0881816
0.103071
0.112722
0.115572
0.110218
0.0928691
0.0614614
-0.0318495
-0.063865
-0.0804027
-0.0849893
-0.0823972
-0.0740492
-0.0609449
-0.043994
-0.0239035
-0.00128583
0.0231969
0.0487096
0.0741393
0.0980098
0.118427
0.133152
0.140012
0.136842
0.118468
0.0819688
-0.0686263
-0.104569
-0.121313
-0.123558
-0.117481
-0.105087
-0.0876721
-0.0662725
-0.0415782
-0.0140933
0.0156683
0.0470129
0.0789096
0.10984
0.137662
0.159616
0.172751
0.173798
0.155538
0.113588
-0.119331
-0.159302
-0.174868
-0.172714
-0.161105
-0.142882
-0.119706
-0.0927174
-0.0625115
-0.0293776
0.00644373
0.0445408
0.0841157
0.123755
0.161178
0.193117
0.21569
0.224091
0.208056
0.16063
-0.188536
-0.232173
-0.243883
-0.233899
-0.213648
-0.187107
-0.156319
-0.122441
-0.0858302
-0.0463995
-0.0039408
0.041609
0.0899049
0.139882
0.18936
0.234718
0.271092
0.29167
0.281736
0.229753
-0.283872
-0.329231
-0.331775
-0.308234
-0.274668
-0.236399
-0.195718
-0.153555
-0.109777
-0.0636756
-0.0143666
0.0389313
0.0966141
0.158325
0.22241
0.28531
0.341407
0.381572
0.384895
0.331792
-0.41922
-0.459603
-0.442303
-0.395758
-0.342102
-0.287712
-0.234583
-0.182887
-0.131556
-0.0789237
-0.0231498
0.0375365
0.104606
0.178878
0.259888
0.344983
0.428616
0.499686
0.529644
0.485333
-0.62045
-0.636692
-0.578647
-0.494179
-0.411234
-0.335652
-0.267766
-0.205952
-0.147498
-0.0893341
-0.0283725
0.0384
0.11385
0.200503
0.299991
0.412027
0.533018
0.651751
0.73273
0.722326
-0.935871
-0.878487
-0.741736
-0.597959
-0.474412
-0.372677
-0.288877
-0.217756
-0.153931
-0.0924293
-0.0286756
0.0417375
0.123299
0.220741
0.338934
0.482147
0.651975
0.841308
1.01522
1.09743
-1.4764
-1.20663
-0.920523
-0.691424
-0.517349
-0.387585
-0.290091
-0.21335
-0.148119
-0.0871949
-0.0245465
0.0454921
0.128968
0.233092
0.367109
0.542668
0.771268
1.05928
1.40324
1.73007
-2.53966
-1.63057
-1.04448
-0.711018
-0.495818
-0.352158
-0.254583
-0.183617
-0.126181
-0.0735866
-0.0192446
0.0428204
0.119247
0.218812
0.354829
0.547985
0.826378
1.23655
1.91163
2.92413
-4.36669
-2.04467
-0.973601
-0.563263
-0.357941
-0.240241
-0.1702
-0.123841
-0.0875116
-0.0535122
-0.0166317
0.0277011
0.0846569
0.161779
0.272452
0.442125
0.718227
1.2257
2.411
4.84849
)
;

boundaryField
{
    movingWall
    {
        type            zeroGradient;
    }
    fixedWalls
    {
        type            zeroGradient;
    }
    frontAndBack
    {
        type            empty;
    }
}


// ************************************************************************* //
