/*--------------------------------*- C++ -*----------------------------------*\
  =========                 |
  \\      /  F ield         | OpenFOAM: The Open Source CFD Toolbox
   \\    /   O peration     | Website:  https://openfoam.org
    \\  /    A nd           | Version:  8
     \\/     M anipulation  |
\*---------------------------------------------------------------------------*/
FoamFile
{
    version     2.0;
    format      ascii;
    class       surfaceScalarField;
    location    "0.145";
    object      phi;
}
// * * * * * * * * * * * * * * * * * * * * * * * * * * * * * * * * * * * * * //

dimensions      [0 3 -1 0 0 0 0];

internalField   nonuniform List<scalar> 
760
(
1.42054e-08
-1.42129e-08
-2.21653e-08
3.6372e-08
-1.14018e-07
9.18523e-08
-2.44938e-07
1.3092e-07
-3.95188e-07
1.50249e-07
-5.46096e-07
1.50909e-07
-6.81598e-07
1.35502e-07
-7.88817e-07
1.07219e-07
-8.58203e-07
6.93865e-08
-8.83591e-07
2.53876e-08
-8.6234e-07
-2.12508e-08
-7.9559e-07
-6.67498e-08
-6.88561e-07
-1.07029e-07
-5.50787e-07
-1.37774e-07
-3.96122e-07
-1.54664e-07
-2.42274e-07
-1.53847e-07
-1.09541e-07
-1.32732e-07
-1.84043e-08
-9.11366e-08
1.56467e-08
-3.40511e-08
1.56463e-08
-3.41336e-08
1.99191e-08
-1.79949e-07
1.82187e-07
-4.32962e-07
3.44864e-07
-7.62614e-07
4.60571e-07
-1.1295e-06
5.17138e-07
-1.49364e-06
5.15054e-07
-1.81895e-06
4.60804e-07
-2.07553e-06
3.63801e-07
-2.24089e-06
2.34745e-07
-2.30055e-06
8.50455e-08
-2.24858e-06
-7.32125e-08
-2.08818e-06
-2.27156e-07
-1.83206e-06
-3.63148e-07
-1.50266e-06
-4.67168e-07
-1.1316e-06
-5.2573e-07
-7.57903e-07
-5.27541e-07
-4.24523e-07
-4.66111e-07
-1.72351e-07
-3.43307e-07
-3.07471e-08
-1.75654e-07
-1.5101e-08
-9.20059e-08
1.11926e-07
-3.56151e-07
4.46333e-07
-7.62754e-07
7.51466e-07
-1.26549e-06
9.63307e-07
-1.8104e-06
1.06205e-06
-2.34347e-06
1.04812e-06
-2.81573e-06
9.33064e-07
-3.18636e-06
7.34439e-07
-3.4245e-06
4.7288e-07
-3.51026e-06
1.70805e-07
-3.43558e-06
-1.47894e-07
-3.2049e-06
-4.57837e-07
-2.8357e-06
-7.32348e-07
-2.35857e-06
-9.44295e-07
-1.81636e-06
-1.06793e-06
-1.2618e-06
-1.08211e-06
-7.52948e-07
-9.7496e-07
-3.46258e-07
-7.49997e-07
-8.7158e-08
-4.34753e-07
-1.02259e-07
-1.44874e-07
2.56798e-07
-5.24272e-07
8.25732e-07
-1.07921e-06
1.3064e-06
-1.7436e-06
1.6277e-06
-2.44884e-06
1.76729e-06
-3.12936e-06
1.72864e-06
-3.72693e-06
1.53064e-06
-4.19352e-06
1.20103e-06
-4.49292e-06
7.72271e-07
-4.60176e-06
2.7965e-07
-4.5104e-06
-2.39255e-07
-4.22363e-06
-7.44608e-07
-3.76139e-06
-1.19459e-06
-3.15905e-06
-1.54663e-06
-2.46683e-06
-1.76016e-06
-1.74755e-06
-1.80138e-06
-1.07238e-06
-1.65013e-06
-5.14125e-07
-1.30825e-06
-1.39038e-07
-8.09839e-07
-2.41297e-07
-1.932e-07
4.49999e-07
-6.83603e-07
1.31613e-06
-1.38283e-06
2.00563e-06
-2.20282e-06
2.44769e-06
-3.05933e-06
2.6238e-06
-3.876e-06
2.54531e-06
-4.5873e-06
2.24194e-06
-5.1403e-06
1.75402e-06
-5.49551e-06
1.12748e-06
-5.62741e-06
4.11555e-07
-5.52497e-06
-3.41697e-07
-5.19238e-06
-1.07719e-06
-4.65008e-06
-1.73689e-06
-3.93564e-06
-2.26107e-06
-3.10404e-06
-2.59176e-06
-2.2265e-06
-2.67892e-06
-1.38718e-06
-2.48946e-06
-6.773e-07
-2.01813e-06
-1.8743e-07
-1.29971e-06
-4.28726e-07
-2.39512e-07
6.89511e-07
-8.38907e-07
1.91553e-06
-1.68044e-06
2.84717e-06
-2.65258e-06
3.41983e-06
-3.65467e-06
3.62589e-06
-4.6e-06
3.49064e-06
-5.4172e-06
3.05914e-06
-6.05036e-06
2.38719e-06
-6.45851e-06
1.53563e-06
-6.61503e-06
5.68081e-07
-6.50761e-06
-4.49119e-07
-6.13885e-06
-1.44595e-06
-5.52774e-06
-2.348e-06
-4.71157e-06
-3.07724e-06
-3.74772e-06
-3.55561e-06
-2.71439e-06
-3.71225e-06
-1.709e-06
-3.49485e-06
-8.4341e-07
-2.88372e-06
-2.35822e-07
-1.9073e-06
-6.64549e-07
-2.86351e-07
9.75863e-07
-9.95767e-07
2.62494e-06
-1.97949e-06
3.83089e-06
-3.1009e-06
4.54124e-06
-4.24239e-06
4.76739e-06
-5.30782e-06
4.55607e-06
-6.22188e-06
3.9732e-06
-6.92799e-06
3.0933e-06
-7.38573e-06
1.99336e-06
-7.56869e-06
7.51049e-07
-7.46349e-06
-5.54325e-07
-7.0701e-06
-1.83934e-06
-6.40388e-06
-3.01422e-06
-5.49886e-06
-3.98226e-06
-4.41178e-06
-4.64269e-06
-3.22558e-06
-4.89844e-06
-2.05058e-06
-4.66986e-06
-1.02136e-06
-3.91294e-06
-2.87943e-07
-2.64071e-06
-9.52492e-07
-3.36019e-07
1.31188e-06
-1.15933e-06
3.44825e-06
-2.28597e-06
4.95754e-06
-3.5518e-06
5.80706e-06
-4.82222e-06
6.03782e-06
-5.99353e-06
5.72737e-06
-6.9895e-06
4.96917e-06
-7.75622e-06
3.86002e-06
-8.2567e-06
2.49385e-06
-8.46667e-06
9.61016e-07
-8.37219e-06
-6.48805e-07
-7.96961e-06
-2.24192e-06
-7.26807e-06
-3.71576e-06
-6.29444e-06
-4.95588e-06
-5.10031e-06
-5.83681e-06
-3.76938e-06
-6.22938e-06
-2.42289e-06
-6.01634e-06
-1.21975e-06
-5.11608e-06
-3.4742e-07
-3.51304e-06
-1.29991e-06
-3.90765e-07
1.70265e-06
-1.33424e-06
4.39173e-06
-2.6037e-06
6.227e-06
-4.00394e-06
7.2073e-06
-5.38403e-06
7.41791e-06
-6.63622e-06
6.97955e-06
-7.68823e-06
6.02119e-06
-8.49373e-06
4.66552e-06
-9.02333e-06
3.02344e-06
-9.25768e-06
1.19537e-06
-9.18347e-06
-7.23015e-07
-8.79258e-06
-2.63281e-06
-8.08493e-06
-4.42341e-06
-7.07522e-06
-5.9656e-06
-5.80327e-06
-7.10876e-06
-4.34681e-06
-7.68584e-06
-2.83338e-06
-7.52977e-06
-1.44637e-06
-6.50309e-06
-4.17886e-07
-4.54152e-06
-1.7178e-06
-4.53406e-07
2.15605e-06
-1.52552e-06
5.46384e-06
-2.93453e-06
7.63602e-06
-4.44953e-06
8.72229e-06
-5.90547e-06
8.87385e-06
-7.19666e-06
8.27075e-06
-8.26222e-06
7.08675e-06
-9.07038e-06
5.47367e-06
-9.60498e-06
3.55804e-06
-9.85557e-06
1.44596e-06
-9.81134e-06
-7.67241e-07
-9.45933e-06
-2.98482e-06
-8.78717e-06
-5.09557e-06
-7.79127e-06
-6.9615e-06
-6.49075e-06
-8.40928e-06
-4.94685e-06
-9.22975e-06
-3.28436e-06
-9.19226e-06
-1.70828e-06
-8.07917e-06
-5.03467e-07
-5.74634e-06
-2.22127e-06
-5.28443e-07
2.6845e-06
-1.74e-06
6.6754e-06
-3.2786e-06
9.17462e-06
-4.87253e-06
1.03162e-05
-6.34817e-06
1.03495e-05
-7.61216e-06
9.53475e-06
-8.62581e-06
8.1004e-06
-9.38118e-06
6.22904e-06
-9.88245e-06
4.05931e-06
-1.01329e-05
1.6964e-06
-1.0127e-05
-7.73156e-07
-9.84731e-06
-3.26449e-06
-9.26672e-06
-5.67616e-06
-8.35682e-06
-7.87141e-06
-7.10496e-06
-9.66114e-06
-5.5408e-06
-1.07939e-05
-3.7707e-06
-1.09624e-05
-2.01214e-06
-9.83774e-06
-6.09669e-07
-7.1488e-06
-2.83093e-06
-6.23919e-07
3.30842e-06
-1.9882e-06
8.03968e-06
-3.63345e-06
1.08199e-05
-5.24425e-06
1.1927e-05
-6.65064e-06
1.17559e-05
-7.7882e-06
1.06723e-05
-8.65525e-06
8.96745e-06
-9.27888e-06
6.85267e-06
-9.69126e-06
4.47169e-06
-9.91449e-06
1.91963e-06
-9.95166e-06
-7.35991e-07
-9.78257e-06
-3.43357e-06
-9.36429e-06
-6.09444e-06
-8.63834e-06
-8.59736e-06
-7.5484e-06
-1.07511e-05
-6.07292e-06
-1.22694e-05
-4.27504e-06
-1.27602e-05
-2.36399e-06
-1.17488e-05
-7.44862e-07
-8.76793e-06
-3.5758e-06
-7.54447e-07
4.06286e-06
-2.28555e-06
9.57078e-06
-3.98931e-06
1.25236e-05
-5.51259e-06
1.34503e-05
-6.71428e-06
1.29576e-05
-7.5843e-06
1.15423e-05
-8.17667e-06
9.55982e-06
-8.56487e-06
7.24088e-06
-8.81531e-06
4.72213e-06
-8.97265e-06
2.07697e-06
-9.05167e-06
-6.56975e-07
-9.03245e-06
-3.45279e-06
-8.85843e-06
-6.26845e-06
-8.43961e-06
-9.01618e-06
-7.66655e-06
-1.15241e-05
-6.44451e-06
-1.34914e-05
-4.75776e-06
-1.4447e-05
-2.76745e-06
-1.37391e-05
-9.22621e-07
-1.06128e-05
-4.49842e-06
-9.45649e-07
5.00851e-06
-2.64994e-06
1.12751e-05
-4.31377e-06
1.41875e-05
-5.57757e-06
1.47141e-05
-6.37645e-06
1.37564e-05
-6.79042e-06
1.19563e-05
-6.9488e-06
9.7182e-06
-6.9789e-06
7.27098e-06
-6.98246e-06
4.72569e-06
-7.02628e-06
2.1208e-06
-7.13808e-06
-5.4518e-07
-7.30253e-06
-3.28834e-06
-7.45636e-06
-6.11462e-06
-7.4843e-06
-8.98824e-06
-7.22289e-06
-1.17856e-05
-6.48622e-06
-1.42281e-05
-5.13555e-06
-1.57977e-05
-3.21599e-06
-1.56586e-05
-1.16466e-06
-1.26641e-05
-5.66308e-06
-1.23777e-06
6.24628e-06
-3.0848e-06
1.31221e-05
-4.51063e-06
1.56133e-05
-5.23903e-06
1.54425e-05
-5.36144e-06
1.38788e-05
-5.08963e-06
1.16845e-05
-4.64007e-06
9.26864e-06
-4.18949e-06
6.82039e-06
-3.86524e-06
4.40144e-06
-3.74811e-06
2.00367e-06
-3.87595e-06
-4.17344e-07
-4.24273e-06
-2.92156e-06
-4.79104e-06
-5.56631e-06
-5.39857e-06
-8.38071e-06
-5.86435e-06
-1.13198e-05
-5.91072e-06
-1.41817e-05
-5.23538e-06
-1.6473e-05
-3.66751e-06
-1.72265e-05
-1.50042e-06
-1.48312e-05
-7.1635e-06
-1.67421e-06
7.92049e-06
-3.51473e-06
1.49626e-05
-4.31802e-06
1.64166e-05
-4.09319e-06
1.52177e-05
-3.19906e-06
1.29847e-05
-2.00641e-06
1.04918e-05
-8.04285e-07
8.06651e-06
2.09029e-07
5.80708e-06
9.07164e-07
3.7033e-06
1.21425e-06
1.69658e-06
1.09091e-06
-2.94009e-07
5.30597e-07
-2.36124e-06
-4.32272e-07
-4.60344e-06
-1.70045e-06
-7.11254e-06
-3.0786e-06
-9.94162e-06
-4.23525e-06
-1.30251e-05
-4.69841e-06
-1.60099e-05
-3.96854e-06
-1.79564e-05
-1.94531e-06
-1.68544e-05
-9.10881e-06
-2.23097e-06
1.01515e-05
-3.59134e-06
1.6323e-05
-3.07997e-06
1.59052e-05
-1.3475e-06
1.34852e-05
8.91835e-07
1.07454e-05
3.14818e-06
8.23549e-06
5.12988e-06
6.08481e-06
6.67929e-06
4.25767e-06
7.71564e-06
2.66695e-06
8.19603e-06
1.2162e-06
8.0935e-06
-1.91487e-07
7.38925e-06
-1.657e-06
6.0781e-06
-3.29229e-06
4.19177e-06
-5.22621e-06
1.84829e-06
-7.59815e-06
-6.65935e-07
-1.05108e-05
-2.79483e-06
-1.3881e-05
-3.6634e-06
-1.70878e-05
-2.41192e-06
-1.81059e-05
-1.15207e-05
-2.57395e-06
1.27254e-05
-2.18408e-06
1.59331e-05
7.16609e-07
1.30045e-05
4.46697e-06
9.73483e-06
8.12937e-06
7.08298e-06
1.12963e-05
5.06857e-06
1.38225e-05
3.55856e-06
1.56805e-05
2.39971e-06
1.68834e-05
1.46409e-06
1.74462e-05
6.5331e-07
1.73678e-05
-1.13067e-07
1.66225e-05
-9.11626e-07
1.516e-05
-1.82981e-06
1.29174e-05
-2.98365e-06
9.85694e-06
-4.53767e-06
6.0585e-06
-6.71239e-06
1.91016e-06
-9.73264e-06
-1.56071e-06
-1.36169e-05
-2.45865e-06
-1.7208e-05
-1.39794e-05
-7.85004e-07
1.35104e-05
4.0806e-06
1.10675e-05
1.02969e-05
6.78827e-06
1.57922e-05
4.2395e-06
2.01557e-05
2.71952e-06
2.34547e-05
1.76952e-06
2.58565e-05
1.15675e-06
2.75165e-05
7.39743e-07
2.85485e-05
4.32096e-07
2.90206e-05
1.81151e-07
2.89565e-05
-4.89253e-08
2.83334e-05
-2.88531e-07
2.70771e-05
-5.73485e-07
2.50511e-05
-9.57642e-07
2.20486e-05
-1.53518e-06
1.78133e-05
-2.47708e-06
1.2171e-05
-4.09037e-06
5.47707e-06
-6.923e-06
-1.29341e-07
-1.16015e-05
-1.41087e-05
1.35104e-05
2.45779e-05
3.13662e-05
3.56057e-05
3.83252e-05
4.00947e-05
4.12515e-05
4.19912e-05
4.24233e-05
4.26045e-05
4.25555e-05
4.2267e-05
4.16935e-05
4.07359e-05
3.92007e-05
3.67236e-05
3.26333e-05
2.57103e-05
1.41087e-05
)
;

boundaryField
{
    movingWall
    {
        type            calculated;
        value           uniform 0;
    }
    fixedWalls
    {
        type            calculated;
        value           uniform 0;
    }
    frontAndBack
    {
        type            empty;
        value           nonuniform List<scalar> 0();
    }
}


// ************************************************************************* //
