/*--------------------------------*- C++ -*----------------------------------*\
  =========                 |
  \\      /  F ield         | OpenFOAM: The Open Source CFD Toolbox
   \\    /   O peration     | Website:  https://openfoam.org
    \\  /    A nd           | Version:  8
     \\/     M anipulation  |
\*---------------------------------------------------------------------------*/
FoamFile
{
    version     2.0;
    format      ascii;
    class       volVectorField;
    location    "0.145";
    object      U;
}
// * * * * * * * * * * * * * * * * * * * * * * * * * * * * * * * * * * * * * //

dimensions      [0 1 -1 0 0 0 0];

internalField   nonuniform List<vector> 
400
(
(0.000252831 -0.000249648 0)
(0.00014087 0.000111366 0)
(-0.00117449 0.000563462 0)
(-0.00347332 0.000883058 0)
(-0.0063629 0.00104337 0)
(-0.00944756 0.00105935 0)
(-0.0123741 0.000955687 0)
(-0.0148502 0.000758736 0)
(-0.0166506 0.00049357 0)
(-0.0176173 0.000184226 0)
(-0.0176615 -0.000144822 0)
(-0.016767 -0.000467177 0)
(-0.0149966 -0.000753598 0)
(-0.0124979 -0.000972017 0)
(-0.00950635 -0.00108878 0)
(-0.00634221 -0.00107176 0)
(-0.00339432 -0.000896371 0)
(-0.00108485 -0.000555456 0)
(0.000195627 -9.04131e-05 0)
(0.000267199 0.000261719 0)
(-7.73313e-05 -0.00016853 0)
(-0.0016078 0.00164133 0)
(-0.00567949 0.00360901 0)
(-0.011691 0.00502301 0)
(-0.0188472 0.00572959 0)
(-0.0263374 0.00574644 0)
(-0.0333887 0.00515932 0)
(-0.039332 0.00408285 0)
(-0.043639 0.00264163 0)
(-0.0459372 0.000965178 0)
(-0.0460203 -0.000810519 0)
(-0.0438586 -0.00254016 0)
(-0.0396098 -0.00406821 0)
(-0.0336266 -0.00523225 0)
(-0.0264549 -0.0058727 0)
(-0.018814 -0.00585162 0)
(-0.0115426 -0.00508382 0)
(-0.00550226 -0.0035822 0)
(-0.00149033 -0.00155638 0)
(-4.26137e-05 0.000226653 0)
(-0.000527364 0.00108933 0)
(-0.0037026 0.00572303 0)
(-0.010564 0.0102004 0)
(-0.0199447 0.0133757 0)
(-0.0306924 0.0149103 0)
(-0.0417235 0.0148029 0)
(-0.0519966 0.0132237 0)
(-0.0606007 0.0104313 0)
(-0.0668117 0.00672664 0)
(-0.0701181 0.00243455 0)
(-0.0702373 -0.00209937 0)
(-0.0671301 -0.00650749 0)
(-0.0610142 -0.0104022 0)
(-0.052372 -0.0133877 0)
(-0.0419456 -0.0150874 0)
(-0.0307084 -0.0151907 0)
(-0.0197877 -0.0135262 0)
(-0.0103424 -0.0101575 0)
(-0.00354138 -0.00554003 0)
(-0.000475923 -0.000947268 0)
(-0.000926065 0.00347184 0)
(-0.00567856 0.0121923 0)
(-0.0152676 0.0198751 0)
(-0.0278549 0.0251384 0)
(-0.0418923 0.0275315 0)
(-0.0560544 0.0270728 0)
(-0.0690984 0.0240516 0)
(-0.0799481 0.0189095 0)
(-0.087754 0.0121684 0)
(-0.0919167 0.00439762 0)
(-0.0921028 -0.00379497 0)
(-0.0882603 -0.0117643 0)
(-0.0806341 -0.0188338 0)
(-0.0697777 -0.0243166 0)
(-0.0565537 -0.0275626 0)
(-0.0421104 -0.0280382 0)
(-0.0278017 -0.0254423 0)
(-0.0150643 -0.0198501 0)
(-0.00549432 -0.0119036 0)
(-0.000859907 -0.00321864 0)
(-0.00127618 0.00686215 0)
(-0.00752056 0.0209065 0)
(-0.0197651 0.032437 0)
(-0.0354643 0.040012 0)
(-0.052639 0.0431912 0)
(-0.0697203 0.0420958 0)
(-0.0852942 0.0371921 0)
(-0.0981661 0.0291472 0)
(-0.107408 0.0187371 0)
(-0.112368 0.0068029 0)
(-0.112679 -0.00576086 0)
(-0.108267 -0.0180067 0)
(-0.0993749 -0.0289393 0)
(-0.086579 -0.0375436 0)
(-0.0708071 -0.0428474 0)
(-0.0533351 -0.0440326 0)
(-0.0357218 -0.0405935 0)
(-0.0197008 -0.0325267 0)
(-0.00735767 -0.0205502 0)
(-0.00120151 -0.00648563 0)
(-0.00160459 0.0111914 0)
(-0.0093019 0.0318068 0)
(-0.0241685 0.0478498 0)
(-0.0429309 0.0579474 0)
(-0.0631517 0.0618032 0)
(-0.0830143 0.059751 0)
(-0.100955 0.0525141 0)
(-0.115699 0.0410381 0)
(-0.126277 0.0263837 0)
(-0.132018 0.00967861 0)
(-0.132532 -0.00789023 0)
(-0.127716 -0.025068 0)
(-0.117779 -0.0405288 0)
(-0.103273 -0.0529 0)
(-0.0851387 -0.0608351 0)
(-0.0647384 -0.0631497 0)
(-0.0438207 -0.0590251 0)
(-0.0244418 -0.0482523 0)
(-0.00924064 -0.0314991 0)
(-0.00153542 -0.0107089 0)
(-0.00193733 0.0164444 0)
(-0.0111064 0.0448864 0)
(-0.028613 0.0661036 0)
(-0.0504143 0.0789029 0)
(-0.0735891 0.0832792 0)
(-0.096078 0.0799125 0)
(-0.116199 0.0698831 0)
(-0.132639 0.0544764 0)
(-0.144441 0.0350658 0)
(-0.150943 0.013067 0)
(-0.151752 -0.0100545 0)
(-0.146727 -0.0327538 0)
(-0.13601 -0.0533812 0)
(-0.120075 -0.0701894 0)
(-0.0998123 -0.0814025 0)
(-0.076611 -0.0853698 0)
(-0.0523794 -0.0808162 0)
(-0.0295109 -0.0671593 0)
(-0.0112706 -0.0448632 0)
(-0.00189784 -0.0159248 0)
(-0.00229785 0.0226549 0)
(-0.0130132 0.0601957 0)
(-0.033221 0.0872101 0)
(-0.0580276 0.102813 0)
(-0.0839983 0.10747 0)
(-0.108853 0.102373 0)
(-0.130846 0.0890796 0)
(-0.148694 0.0692847 0)
(-0.161514 0.0446947 0)
(-0.168708 0.0169988 0)
(-0.169904 -0.0120971 0)
(-0.164919 -0.0408024 0)
(-0.15379 -0.0671773 0)
(-0.136848 -0.0891021 0)
(-0.114843 -0.104322 0)
(-0.0891003 -0.110606 0)
(-0.0616195 -0.106038 0)
(-0.0351195 -0.0894389 0)
(-0.0135747 -0.0608571 0)
(-0.0023244 -0.0222443 0)
(-0.00271029 0.0299016 0)
(-0.0151006 0.0778388 0)
(-0.0380961 0.111185 0)
(-0.0658155 0.129546 0)
(-0.0942783 0.134101 0)
(-0.121035 0.126765 0)
(-0.144365 0.10972 0)
(-0.163122 0.0851419 0)
(-0.176587 0.0550814 0)
(-0.184301 0.0214626 0)
(-0.185951 -0.0138357 0)
(-0.181319 -0.0488577 0)
(-0.170299 -0.0814432 0)
(-0.152997 -0.109135 0)
(-0.129901 -0.129171 0)
(-0.102132 -0.138616 0)
(-0.0716525 -0.134692 0)
(-0.0414458 -0.115311 0)
(-0.0162798 -0.0797901 0)
(-0.00285323 -0.0298511 0)
(-0.00320734 0.0383115 0)
(-0.0174643 0.0979653 0)
(-0.043336 0.138009 0)
(-0.0737472 0.158831 0)
(-0.104145 0.162673 0)
(-0.132011 0.152453 0)
(-0.155799 0.131149 0)
(-0.174646 0.101492 0)
(-0.188131 0.0658661 0)
(-0.196027 0.0263623 0)
(-0.198143 -0.0150735 0)
(-0.194241 -0.0564431 0)
(-0.18404 -0.0954855 0)
(-0.167328 -0.129492 0)
(-0.144182 -0.155203 0)
(-0.115312 -0.168873 0)
(-0.0824266 -0.166595 0)
(-0.0486247 -0.144954 0)
(-0.019524 -0.102046 0)
(-0.00353269 -0.0390052 0)
(-0.00384476 0.0480811 0)
(-0.0202502 0.12077 0)
(-0.0490561 0.167573 0)
(-0.081702 0.190152 0)
(-0.113074 0.192329 0)
(-0.140772 0.178394 0)
(-0.16365 0.152318 0)
(-0.181339 0.117442 0)
(-0.193877 0.0764409 0)
(-0.201389 0.0314646 0)
(-0.203883 -0.0156218 0)
(-0.201132 -0.06295 0)
(-0.192666 -0.108336 0)
(-0.177869 -0.148974 0)
(-0.156231 -0.181194 0)
(-0.127783 -0.20038 0)
(-0.0936448 -0.201214 0)
(-0.0567324 -0.1784 0)
(-0.0234792 -0.128056 0)
(-0.00443532 -0.0500609 0)
(-0.00472722 0.0595273 0)
(-0.0237043 0.146502 0)
(-0.0554062 0.199588 0)
(-0.0894155 0.222587 0)
(-0.120177 0.221674 0)
(-0.145745 0.202976 0)
(-0.165712 0.171652 0)
(-0.180461 0.131664 0)
(-0.190676 0.085877 0)
(-0.196959 0.0363451 0)
(-0.199595 -0.0153379 0)
(-0.198422 -0.0676492 0)
(-0.192793 -0.11872 0)
(-0.181636 -0.165891 0)
(-0.163693 -0.205276 0)
(-0.138 -0.231443 0)
(-0.104616 -0.237421 0)
(-0.0657439 -0.215356 0)
(-0.0283812 -0.158253 0)
(-0.00568254 -0.0635093 0)
(-0.00605428 0.0731909 0)
(-0.02824 0.175463 0)
(-0.0625431 0.233421 0)
(-0.0963154 0.254564 0)
(-0.12394 0.248533 0)
(-0.144504 0.223832 0)
(-0.158796 0.186934 0)
(-0.168248 0.142325 0)
(-0.174352 0.0928809 0)
(-0.178273 0.0403473 0)
(-0.180637 -0.0141716 0)
(-0.181408 -0.0697382 0)
(-0.179823 -0.125079 0)
(-0.174378 -0.17801 0)
(-0.16298 -0.22478 0)
(-0.143378 -0.259388 0)
(-0.113977 -0.273141 0)
(-0.0754139 -0.25491 0)
(-0.0345637 -0.192984 0)
(-0.00748741 -0.0800641 0)
(-0.00819526 0.0900173 0)
(-0.0344996 0.207939 0)
(-0.0704537 0.267759 0)
(-0.101094 0.283451 0)
(-0.121676 0.26964 0)
(-0.133239 0.237671 0)
(-0.13832 0.195252 0)
(-0.139641 0.147112 0)
(-0.13956 0.0958298 0)
(-0.139794 0.0425889 0)
(-0.141306 -0.0122125 0)
(-0.144242 -0.0684378 0)
(-0.147837 -0.125682 0)
(-0.150314 -0.182624 0)
(-0.148836 -0.236158 0)
(-0.139728 -0.280274 0)
(-0.11915 -0.304862 0)
(-0.0849658 -0.295022 0)
(-0.0424513 -0.232283 0)
(-0.0102178 -0.100801 0)
(-0.0117707 0.111616 0)
(-0.0432771 0.243901 0)
(-0.0783405 0.299938 0)
(-0.100703 0.30497 0)
(-0.10846 0.280322 0)
(-0.105873 0.240244 0)
(-0.0977015 0.193155 0)
(-0.0879679 0.143447 0)
(-0.0797156 0.0929683 0)
(-0.075009 0.0420674 0)
(-0.075026 -0.00971447 0)
(-0.0801037 -0.0631568 0)
(-0.0896567 -0.118901 0)
(-0.101956 -0.176841 0)
(-0.113821 -0.235151 0)
(-0.120406 -0.288742 0)
(-0.11533 -0.327063 0)
(-0.0923027 -0.331683 0)
(-0.0523292 -0.275327 0)
(-0.0144326 -0.127318 0)
(-0.017552 0.140648 0)
(-0.05478 0.282107 0)
(-0.0828258 0.324652 0)
(-0.0881505 0.312384 0)
(-0.0752124 0.274353 0)
(-0.0527292 0.226665 0)
(-0.0276287 0.177191 0)
(-0.00471188 0.129057 0)
(0.0128817 0.0828599 0)
(0.023212 0.0379244 0)
(0.0251696 -0.00706415 0)
(0.0182877 -0.0537189 0)
(0.00277861 -0.103686 0)
(-0.0201716 -0.158234 0)
(-0.0478282 -0.217403 0)
(-0.0750916 -0.278257 0)
(-0.093618 -0.331693 0)
(-0.0921031 -0.3576 0)
(-0.0632954 -0.319237 0)
(-0.0206361 -0.161952 0)
(-0.0254515 0.181707 0)
(-0.0657859 0.31775 0)
(-0.073364 0.331322 0)
(-0.0481345 0.295343 0)
(-0.00566654 0.244143 0)
(0.0410978 0.192308 0)
(0.0845012 0.14498 0)
(0.120358 0.102917 0)
(0.146503 0.0651012 0)
(0.161837 0.0298755 0)
(0.165729 -0.00466577 0)
(0.157731 -0.0406023 0)
(0.137544 -0.0802029 0)
(0.105276 -0.125861 0)
(0.0621278 -0.179661 0)
(0.0117043 -0.241953 0)
(-0.0378982 -0.307813 0)
(-0.0717174 -0.360089 0)
(-0.07007 -0.356571 0)
(-0.0279148 -0.208362 0)
(-0.0296495 0.239177 0)
(-0.0608472 0.33576 0)
(-0.0219618 0.300483 0)
(0.0505022 0.240096 0)
(0.127507 0.182911 0)
(0.196915 0.135349 0)
(0.254217 0.0973609 0)
(0.298107 0.0668201 0)
(0.328663 0.0413345 0)
(0.346294 0.0187697 0)
(0.351201 -0.00279067 0)
(0.343134 -0.0252502 0)
(0.321314 -0.0507633 0)
(0.284507 -0.0820167 0)
(0.231461 -0.12241 0)
(0.162097 -0.175633 0)
(0.0798443 -0.243397 0)
(-0.00322117 -0.319107 0)
(-0.0546814 -0.368593 0)
(-0.0284614 -0.267612 0)
(0.00808377 0.281864 0)
(0.0197824 0.294971 0)
(0.139058 0.210966 0)
(0.26444 0.143466 0)
(0.36433 0.0971711 0)
(0.440306 0.0657614 0)
(0.496665 0.0442225 0)
(0.536779 0.028874 0)
(0.563338 0.0171911 0)
(0.57819 0.00748181 0)
(0.582263 -0.00149222 0)
(0.575582 -0.010839 0)
(0.557205 -0.0218373 0)
(0.525046 -0.0363227 0)
(0.475705 -0.0572461 0)
(0.404483 -0.0893705 0)
(0.30514 -0.139729 0)
(0.173397 -0.216376 0)
(0.0411652 -0.311649 0)
(0.0184293 -0.299994 0)
(0.299605 0.146092 0)
(0.396274 0.127504 0)
(0.55742 0.0760889 0)
(0.674483 0.0437215 0)
(0.743877 0.0255695 0)
(0.787133 0.0152393 0)
(0.815457 0.00920971 0)
(0.83392 0.0055074 0)
(0.845344 0.003026 0)
(0.851328 0.00114908 0)
(0.852622 -0.000498773 0)
(0.849341 -0.00221372 0)
(0.840963 -0.00433666 0)
(0.826109 -0.00742185 0)
(0.802054 -0.0125299 0)
(0.763603 -0.0217706 0)
(0.699097 -0.0392809 0)
(0.583947 -0.0726586 0)
(0.415826 -0.127867 0)
(0.30882 -0.149468 0)
)
;

boundaryField
{
    movingWall
    {
        type            fixedValue;
        value           uniform (1 0 0);
    }
    fixedWalls
    {
        type            noSlip;
    }
    frontAndBack
    {
        type            empty;
    }
}


// ************************************************************************* //
