/*--------------------------------*- C++ -*----------------------------------*\
  =========                 |
  \\      /  F ield         | OpenFOAM: The Open Source CFD Toolbox
   \\    /   O peration     | Website:  https://openfoam.org
    \\  /    A nd           | Version:  8
     \\/     M anipulation  |
\*---------------------------------------------------------------------------*/
FoamFile
{
    version     2.0;
    format      ascii;
    class       volScalarField;
    location    "45.5";
    object      p;
}
// * * * * * * * * * * * * * * * * * * * * * * * * * * * * * * * * * * * * * //

dimensions      [0 2 -2 0 0 0 0];

internalField   nonuniform List<scalar> 
116
(
9.08636e-08
-0.000986866
-0.00147014
-0.00317029
0.00113183
-0.00851366
7.28939e-05
-0.000638857
-0.000281832
-0.00372761
-0.00153574
-0.00298277
0.000866635
-3.41862e-06
-0.000332897
-0.00291798
-0.00557203
-0.00813645
0.00151504
0.000973733
-0.000183991
-0.00328953
-0.00740343
-0.00903879
0.00166583
0.00111502
-0.000601984
-0.00432147
-0.00927473
-0.0109586
0.000983102
0.000729789
-0.000989264
-0.00428235
-0.00907274
-0.010809
0.00117184
0.000739935
-0.000615317
-0.00371596
-0.00820766
-0.0108353
0.000189704
0.000939402
0.000399187
-0.00154076
-0.00470542
-0.00689075
0.00158782
0.000852172
0.00211144
0.000438051
-0.00242797
-0.00524991
-0.00375772
0.00412564
0.00411099
0.00289014
-0.000465041
-0.00260076
0.00196554
0.01068
0.0092249
0.0145439
-0.00191774
0.00200839
0.00492607
0.00828397
-0.00862132
-0.00605681
-0.00251397
0.000781828
-0.0100591
-0.0088528
-0.00711352
-0.00392414
-0.0113753
-0.0103301
-0.00961915
-0.00653922
-0.0114512
-0.0099055
-0.00990727
-0.00641868
-0.0114673
-0.00950992
-0.0104337
-0.00312247
-0.00691439
-0.00492058
-0.00406198
0.00656573
-0.00711807
-0.00494984
-0.00308255
0.0142536
-0.00258188
0.0043907
0.0180681
0.0550979
0.0183704
0.0175947
0.0173457
0.0208384
0.016288
0.0164718
0.0144162
0.016844
0.0125453
0.0132967
0.0113493
0.0124234
0.0089127
0.0164886
0.0100185
0.0143411
)
;

boundaryField
{
    movingWall
    {
        type            zeroGradient;
    }
    fixedWalls
    {
        type            zeroGradient;
    }
    frontAndBack
    {
        type            empty;
    }
}


// ************************************************************************* //
