/*--------------------------------*- C++ -*----------------------------------*\
  =========                 |
  \\      /  F ield         | OpenFOAM: The Open Source CFD Toolbox
   \\    /   O peration     | Website:  https://openfoam.org
    \\  /    A nd           | Version:  8
     \\/     M anipulation  |
\*---------------------------------------------------------------------------*/
FoamFile
{
    version     2.0;
    format      ascii;
    class       surfaceScalarField;
    location    "45.5";
    object      phi;
}
// * * * * * * * * * * * * * * * * * * * * * * * * * * * * * * * * * * * * * //

dimensions      [0 3 -1 0 0 0 0];

internalField   nonuniform List<scalar> 
208
(
1.77854e-05
-1.77854e-05
3.10263e-05
-1.32409e-05
3.0794e-05
2.32309e-07
7.27561e-06
2.35184e-05
-7.05013e-05
7.77769e-05
7.046e-05
-0.000140961
2.08543e-06
-1.98708e-05
-1.25079e-05
1.35247e-06
-5.46739e-05
4.23983e-05
-0.000107902
7.67461e-05
-0.000136529
0.000106404
7.09242e-05
-0.000136993
-1.57148e-05
-4.15606e-06
-4.4359e-05
2.99967e-05
-7.77977e-05
7.5837e-05
-0.000105844
0.000104793
-0.000113407
0.000113967
5.59203e-05
-9.84032e-05
-2.14945e-05
1.73384e-05
-4.4615e-05
5.31171e-05
-6.78346e-05
9.90566e-05
-7.98971e-05
0.000116855
-7.27645e-05
0.000106834
3.56991e-05
-5.25434e-05
-1.54689e-05
3.28073e-05
-3.36398e-05
7.12881e-05
-4.4403e-05
0.00010982
-4.38789e-05
0.000116331
-3.3012e-05
9.59672e-05
2.94825e-05
-2.67953e-05
-7.1734e-06
3.99807e-05
-9.66296e-06
7.37776e-05
-7.29327e-06
0.00010745
-4.13726e-06
0.000113175
1.91147e-06
8.99184e-05
3.44582e-05
-3.06424e-06
1.45207e-06
3.85286e-05
2.56674e-06
7.2663e-05
1.25672e-05
9.74496e-05
2.67856e-05
9.89568e-05
4.08448e-05
7.58593e-05
3.6504e-05
3.87989e-05
1.00512e-05
2.84774e-05
2.42566e-05
5.84575e-05
4.9607e-05
7.20993e-05
6.95247e-05
7.90391e-05
8.45241e-05
6.08599e-05
3.9163e-05
8.1865e-05
-3.69823e-05
6.54598e-05
-1.68519e-05
3.83271e-05
1.22e-05
4.30474e-05
4.6814e-05
4.44251e-05
7.31084e-05
3.45655e-05
2.59674e-05
8.6304e-05
6.54598e-05
0.000103787
0.000146834
0.000191259
0.000225825
0.000251792
-0.000115194
9.53082e-05
-0.000121075
-6.63578e-05
-4.63861e-05
-2.45044e-06
-1.89238e-05
-3.7038e-05
-1.03961e-05
-0.000152846
0.000133922
-0.000112226
7.0542e-05
-9.57544e-05
-6.28582e-05
-4.03611e-05
-9.24312e-05
-0.000193207
-6.83657e-05
4.05045e-05
-6.57217e-05
-6.55022e-05
-3.80419e-05
-0.000120111
-0.000231249
-2.85054e-05
1.64664e-05
-2.81944e-05
-6.58132e-05
-2.0173e-05
-0.000128132
-0.000251422
-1.24939e-05
2.165e-06
-1.53124e-05
-6.29946e-05
-1.46189e-05
-0.000128826
-0.00026604
8.71684e-06
-9.61608e-06
3.90086e-06
-5.81787e-05
-3.51732e-06
-0.000121408
-0.000269558
3.80831e-05
-8.90022e-06
1.67271e-05
-3.68227e-05
1.90424e-06
-0.000106585
-0.000267654
6.93615e-05
3.60328e-06
4.15632e-05
-9.02442e-06
2.67123e-05
-9.17339e-05
-0.000240941
8.35368e-05
6.37046e-06
8.19693e-05
-7.45689e-06
6.80171e-05
-7.77817e-05
-0.000172924
0.000258163
0.000250706
0.000172924
-3.78481e-05
3.78481e-05
-6.31844e-05
2.53363e-05
-6.11054e-05
-2.07896e-06
-6.11054e-05
-3.40163e-05
7.18645e-05
-4.40618e-05
3.53817e-05
-4.508e-05
-1.06068e-06
-0.000106185
-2.14387e-05
9.33031e-05
-1.05201e-05
2.44631e-05
-2.43453e-05
1.27645e-05
-0.000130531
-2.77721e-05
-5.75944e-06
-3.39097e-06
)
;

boundaryField
{
    movingWall
    {
        type            calculated;
        value           uniform 0;
    }
    fixedWalls
    {
        type            calculated;
        value           uniform 0;
    }
    frontAndBack
    {
        type            empty;
        value           nonuniform List<scalar> 0();
    }
}


// ************************************************************************* //
