/*--------------------------------*- C++ -*----------------------------------*\
  =========                 |
  \\      /  F ield         | OpenFOAM: The Open Source CFD Toolbox
   \\    /   O peration     | Website:  https://openfoam.org
    \\  /    A nd           | Version:  8
     \\/     M anipulation  |
\*---------------------------------------------------------------------------*/
FoamFile
{
    version     2.0;
    format      ascii;
    class       volVectorField;
    location    "45.5";
    object      U;
}
// * * * * * * * * * * * * * * * * * * * * * * * * * * * * * * * * * * * * * //

dimensions      [0 1 -1 0 0 0 0];

internalField   nonuniform List<vector> 
116
(
(0.0182539 -0.0109799 0)
(0.01619 -0.0113446 0)
(0.0474577 -0.0201957 0)
(0.0108366 -0.0182141 0)
(0.00639827 0.0635436 0)
(-0.158272 0.0866828 0)
(0.00916739 -0.0253254 0)
(-0.00542533 -0.0149711 0)
(-0.0178588 0.0208284 0)
(-0.0965105 0.0637754 0)
(-0.112331 0.0898536 0)
(-0.167071 0.0617153 0)
(-0.00241462 -0.0135152 0)
(-0.0300505 0.0176153 0)
(-0.056223 0.062261 0)
(-0.102203 0.0927589 0)
(-0.110263 0.1187 0)
(-0.119818 0.0729267 0)
(-0.00962359 0.00546939 0)
(-0.0331322 0.0436777 0)
(-0.0544184 0.0910502 0)
(-0.0829543 0.115284 0)
(-0.0804942 0.11269 0)
(-0.0625115 0.0426948 0)
(-0.00523928 0.0297272 0)
(-0.0250276 0.0617081 0)
(-0.0410976 0.105446 0)
(-0.0489562 0.115364 0)
(-0.041902 0.0977146 0)
(-0.022338 0.0263902 0)
(-0.00349524 0.0342546 0)
(-0.0102005 0.0791251 0)
(-0.00890078 0.112308 0)
(-0.00582574 0.118991 0)
(-0.0034132 0.0967521 0)
(0.00766964 0.034369 0)
(0.00121693 0.0476794 0)
(0.00187383 0.0692295 0)
(0.00358079 0.103249 0)
(0.0210978 0.104996 0)
(0.0304135 0.0801987 0)
(0.0507749 0.0319084 0)
(0.00805295 0.0268087 0)
(0.0130507 0.0773414 0)
(0.0357789 0.0912556 0)
(0.0628535 0.0958111 0)
(0.0735033 0.0752703 0)
(0.0933968 0.0444485 0)
(-0.0562518 0.0337159 0)
(-0.0199172 0.0363669 0)
(-0.0117666 0.0540697 0)
(0.0351501 0.0606815 0)
(0.056829 0.044821 0)
(0.0876583 0.0313654 0)
(0.0533917 0.0910023 0)
(0.0846257 0.0438099 0)
(0.117178 0.0341943 0)
(0.178938 0.0306691 0)
(0.198156 0.0259623 0)
(0.250591 0.0227207 0)
(-0.111389 0.116061 0)
(-0.112163 -0.0285099 0)
(-0.0279837 -0.000845595 0)
(-0.00650267 -0.137865 0)
(-0.108238 0.0797548 0)
(-0.111677 -0.0670494 0)
(-0.0823433 -0.073979 0)
(0.0043408 -0.173955 0)
(-0.0790467 0.0560623 0)
(-0.0550903 -0.0624279 0)
(-0.0744125 -0.116047 0)
(0.000692315 -0.218459 0)
(-0.044579 0.0281298 0)
(-0.0109025 -0.065053 0)
(-0.0466005 -0.122245 0)
(0.00839563 -0.241562 0)
(-0.0317585 0.00385813 0)
(0.00781827 -0.0679069 0)
(-0.0398666 -0.134768 0)
(0.0126081 -0.26379 0)
(-0.0142022 0.000828679 0)
(0.0329041 -0.0556669 0)
(-0.0260902 -0.119023 0)
(0.0201593 -0.270369 0)
(0.0257747 -0.0215217 0)
(0.0535809 -0.0641383 0)
(-0.0231593 -0.130254 0)
(0.0281825 -0.275005 0)
(0.0708726 0.00574694 0)
(0.0710837 -0.00551688 0)
(0.00732432 -0.0749278 0)
(0.0512898 -0.250032 0)
(0.0813843 0.000153236 0)
(0.0898598 -0.0150345 0)
(0.0661222 -0.119276 0)
(0.0803976 -0.252131 0)
(0.245519 0.0142999 0)
(0.272252 0.00275323 0)
(0.215025 -0.0236979 0)
(0.153435 -0.0686604 0)
(-0.0212992 0.00406154 0)
(-0.0559051 0.00548152 0)
(-0.0735672 0.00105193 0)
(-0.0440304 -0.036657 0)
(-0.0198668 0.0708224 0)
(-0.0461727 0.0462517 0)
(-0.0457539 -0.00574436 0)
(-0.0405106 -0.0887623 0)
(-0.0357841 0.0704737 0)
(-0.00519301 0.0206897 0)
(-0.0175718 0.00331169 0)
(-0.0289124 -0.129473 0)
(-0.00916758 0.120011 0)
(-0.0409282 0.0325462 0)
(0.0267397 0.0230802 0)
(-0.0319239 -0.124502 0)
)
;

boundaryField
{
    movingWall
    {
        type            fixedValue;
        value           uniform (1 0 0);
    }
    fixedWalls
    {
        type            noSlip;
    }
    frontAndBack
    {
        type            empty;
    }
}


// ************************************************************************* //
