/*--------------------------------*- C++ -*----------------------------------*\
  =========                 |
  \\      /  F ield         | OpenFOAM: The Open Source CFD Toolbox
   \\    /   O peration     | Website:  https://openfoam.org
    \\  /    A nd           | Version:  8
     \\/     M anipulation  |
\*---------------------------------------------------------------------------*/
FoamFile
{
    version     2.0;
    format      ascii;
    class       volScalarField;
    location    "53.5";
    object      p;
}
// * * * * * * * * * * * * * * * * * * * * * * * * * * * * * * * * * * * * * //

dimensions      [0 2 -2 0 0 0 0];

internalField   nonuniform List<scalar> 
11600
(
-1.55379e-07
-8.82098e-07
-7.55378e-07
-3.01586e-07
7.13153e-07
2.22394e-06
4.22212e-06
6.70336e-06
9.66603e-06
1.31105e-05
1.70385e-05
2.14531e-05
2.63584e-05
3.17591e-05
3.76604e-05
4.40679e-05
5.09878e-05
5.84268e-05
6.63922e-05
7.48919e-05
8.39343e-05
9.35284e-05
0.000103684
0.000114411
0.000125721
0.000137625
0.000150136
0.000163266
0.000177029
0.000191441
0.000206516
0.00022227
0.000238721
0.000255886
0.000273785
0.000292437
0.000311864
0.000332085
0.000353125
0.000375006
0.000397753
0.000421391
0.000445945
0.00047144
0.000497904
0.00052536
0.000553833
0.000583343
0.000613907
0.000645529
0.000678197
0.000711867
0.000746433
0.000781679
0.000817084
0.000851994
0.000888059
0.000910027
0.000968234
0.000926758
3.85857e-07
-2.86161e-07
9.69351e-09
5.52311e-07
1.61784e-06
3.15517e-06
5.16537e-06
7.65145e-06
1.06155e-05
1.40601e-05
1.7988e-05
2.24025e-05
2.73075e-05
3.27076e-05
3.8608e-05
4.50142e-05
5.19326e-05
5.93697e-05
6.73328e-05
7.58297e-05
8.48688e-05
9.4459e-05
0.00010461
0.000115332
0.000126635
0.000138533
0.000151035
0.000164156
0.00017791
0.00019231
0.000207372
0.000223112
0.000239547
0.000256696
0.000274576
0.000293208
0.000312612
0.000332809
0.000353823
0.000375677
0.000398394
0.000422
0.000446521
0.000471983
0.000498411
0.000525831
0.000554268
0.000583743
0.000614274
0.000645871
0.000678529
0.000712227
0.000746906
0.000782454
0.000818726
0.000855787
0.000893853
0.000930196
0.000984789
0.00102068
1.28589e-07
-6.75642e-07
-3.56828e-07
1.85125e-07
1.25559e-06
2.79568e-06
4.80692e-06
7.29254e-06
1.02543e-05
1.36948e-05
1.76173e-05
2.20254e-05
2.69232e-05
3.23151e-05
3.82063e-05
4.46025e-05
5.15097e-05
5.89347e-05
6.68847e-05
7.53673e-05
8.4391e-05
9.39647e-05
0.000104098
0.000114801
0.000126084
0.000137959
0.000150438
0.000163534
0.000177261
0.000191632
0.000206664
0.000222372
0.000238773
0.000255885
0.000273727
0.000292319
0.00031168
0.000331833
0.0003528
0.000374605
0.000397272
0.000420826
0.000445293
0.000470701
0.000497075
0.000524443
0.000552832
0.000582265
0.000612765
0.000644348
0.000677023
0.000710785
0.000745606
0.000781433
0.000818233
0.000856129
0.000895285
0.000935789
0.00098764
0.00103058
-5.06529e-07
-1.39039e-06
-1.04379e-06
-4.92744e-07
5.89485e-07
2.13567e-06
4.1483e-06
6.63218e-06
9.58973e-06
1.30239e-05
1.69381e-05
2.13362e-05
2.62225e-05
3.16016e-05
3.74786e-05
4.38591e-05
5.07491e-05
5.81554e-05
6.6085e-05
7.45457e-05
8.35457e-05
9.30938e-05
0.000103199
0.000113873
0.000125125
0.000136966
0.000149409
0.000162467
0.000176152
0.00019048
0.000205466
0.000221125
0.000237473
0.00025453
0.000272314
0.000290843
0.000310139
0.000330224
0.00035112
0.00037285
0.000395439
0.000418914
0.000443299
0.000468624
0.000494915
0.000522203
0.000550515
0.000579882
0.000610333
0.000641896
0.0006746
0.000708476
0.00074356
0.00077991
0.000817656
0.000857057
0.000898555
0.000943291
0.000994346
0.00104695
-1.79741e-06
-2.73115e-06
-2.37675e-06
-1.82919e-06
-7.45506e-07
7.99593e-07
2.80832e-06
5.28589e-06
8.23502e-06
1.16587e-05
1.55603e-05
1.99438e-05
2.48135e-05
3.01741e-05
3.60306e-05
4.23886e-05
4.92542e-05
5.66339e-05
6.45349e-05
7.29647e-05
8.19316e-05
9.14442e-05
0.000101512
0.000112145
0.000123353
0.000135148
0.000147542
0.000160548
0.000174178
0.000188448
0.000203371
0.000218964
0.000235243
0.000252227
0.000269933
0.000288381
0.000307592
0.000327587
0.000348389
0.000370021
0.000392509
0.000415879
0.000440157
0.000465373
0.000491555
0.000518734
0.000546942
0.000576212
0.00060658
0.000638084
0.000670764
0.000704671
0.000739868
0.00077645
0.000814575
0.000854491
0.000896622
0.000941866
0.0009912
0.00104354
-3.70789e-06
-4.66656e-06
-4.31069e-06
-3.76952e-06
-2.68883e-06
-1.14841e-06
8.53267e-07
3.32125e-06
6.25833e-06
9.66754e-06
1.35524e-05
1.79167e-05
2.27648e-05
2.81014e-05
3.39314e-05
4.02606e-05
4.70948e-05
5.44406e-05
6.2305e-05
7.06955e-05
7.96201e-05
8.90876e-05
9.91072e-05
0.000109689
0.000120842
0.00013258
0.000144912
0.000157852
0.000171413
0.000185609
0.000200455
0.000215966
0.000232158
0.000249051
0.000266661
0.000285008
0.000304113
0.000323996
0.000344682
0.000366194
0.000388556
0.000411796
0.00043594
0.000461018
0.000487061
0.000514101
0.000542172
0.000571312
0.000601559
0.000632959
0.000665564
0.000699436
0.000734656
0.000771336
0.000809636
0.00084978
0.000892106
0.000937108
0.000985067
0.00103588
-6.23776e-06
-7.20622e-06
-6.85109e-06
-6.31674e-06
-5.24221e-06
-3.70979e-06
-1.71834e-06
7.36789e-07
3.65828e-06
7.04917e-06
1.0913e-05
1.52535e-05
2.0075e-05
2.5382e-05
3.11798e-05
3.74736e-05
4.42696e-05
5.1574e-05
5.93939e-05
6.77367e-05
7.66102e-05
8.60231e-05
9.59845e-05
0.000106504
0.000117592
0.000129259
0.000141517
0.000154379
0.000167857
0.000181965
0.000196718
0.000212131
0.00022822
0.000245004
0.000262499
0.000280726
0.000299704
0.000319456
0.000340003
0.000361371
0.000383582
0.000406666
0.000430649
0.000455561
0.000481434
0.000508302
0.0005362
0.000565167
0.000595247
0.000626489
0.000658946
0.000692687
0.000727795
0.000764375
0.000802563
0.000842536
0.000884524
0.000928773
0.000975369
0.00102423
-9.38285e-06
-1.03552e-05
-1.00023e-05
-9.4748e-06
-8.40858e-06
-6.8869e-06
-4.90873e-06
-2.46967e-06
4.32738e-07
3.80146e-06
7.63995e-06
1.1952e-05
1.67418e-05
2.2014e-05
2.77735e-05
3.40257e-05
4.07765e-05
4.80323e-05
5.57998e-05
6.40865e-05
7.29001e-05
8.22491e-05
9.21423e-05
0.000102589
0.0001136
0.000125186
0.000137358
0.000150128
0.000163509
0.000177515
0.00019216
0.000207459
0.000223429
0.000240086
0.000257449
0.000275536
0.000294368
0.000313966
0.000334353
0.000355552
0.000377589
0.000400491
0.000424285
0.000449001
0.000474673
0.000501334
0.000529022
0.000557776
0.00058764
0.000618666
0.000650908
0.000684432
0.000719316
0.000755653
0.000793552
0.000833144
0.000874569
0.000917938
0.000963249
0.00101037
-1.31376e-05
-1.41117e-05
-1.37627e-05
-1.32424e-05
-1.21861e-05
-1.06775e-05
-8.71532e-06
-6.29546e-06
-3.41558e-06
-7.28191e-08
3.7362e-06
8.01522e-06
1.27684e-05
1.80001e-05
2.37155e-05
2.99197e-05
3.66186e-05
4.38185e-05
5.15259e-05
5.97483e-05
6.84931e-05
7.77688e-05
8.75841e-05
9.79483e-05
0.000108871
0.000120364
0.000132437
0.000145103
0.000158374
0.000172264
0.000186786
0.000201956
0.00021779
0.000234303
0.000251515
0.000269444
0.00028811
0.000307534
0.000327738
0.000348746
0.000370583
0.000393276
0.000416854
0.000441346
0.000466785
0.000493205
0.000520645
0.000549144
0.000578747
0.000609503
0.000641467
0.0006747
0.000709273
0.000745265
0.000782761
0.000821853
0.000862623
0.000905114
0.000949284
0.000994989
-1.74977e-05
-1.84726e-05
-1.81287e-05
-1.76165e-05
-1.65717e-05
-1.50781e-05
-1.31345e-05
-1.07369e-05
-7.88288e-06
-4.56985e-06
-7.94452e-07
3.44697e-06
8.15847e-06
1.33445e-05
1.90098e-05
2.51598e-05
3.18001e-05
3.89368e-05
4.65765e-05
5.47263e-05
6.33938e-05
7.2587e-05
8.23147e-05
9.25858e-05
0.00010341
0.000114798
0.000126761
0.00013931
0.000152458
0.000166217
0.000180602
0.000195628
0.000211309
0.000227662
0.000244706
0.000262457
0.000280937
0.000300166
0.000320165
0.000340959
0.000362573
0.000385032
0.000408365
0.000432603
0.000457778
0.000483924
0.00051108
0.000539284
0.000568581
0.000599019
0.000630651
0.000663533
0.000697728
0.000733302
0.000770323
0.000808856
0.000848948
0.000890609
0.000933787
0.000978344
-2.24594e-05
-2.34344e-05
-2.30965e-05
-2.25934e-05
-2.15617e-05
-2.00851e-05
-1.81625e-05
-1.57899e-05
-1.29651e-05
-9.68552e-06
-5.94785e-06
-1.74853e-06
2.91639e-06
8.05127e-06
1.36609e-05
1.97503e-05
2.63253e-05
3.33917e-05
4.0956e-05
4.90253e-05
5.76068e-05
6.67085e-05
7.63389e-05
8.65069e-05
9.7222e-05
0.000108494
0.000120335
0.000132754
0.000145766
0.000159381
0.000173615
0.00018848
0.000203993
0.00022017
0.000237027
0.000254583
0.000272857
0.00029187
0.000311644
0.000332201
0.000353566
0.000375766
0.000398829
0.000422784
0.000447664
0.000473503
0.000500339
0.000528211
0.000557162
0.000587239
0.000618491
0.000650971
0.000684736
0.000719842
0.000756346
0.000794293
0.000833715
0.000874608
0.000916923
0.000960544
-2.80183e-05
-2.89929e-05
-2.86617e-05
-2.81689e-05
-2.71517e-05
-2.56941e-05
-2.37949e-05
-2.14502e-05
-1.86578e-05
-1.54153e-05
-1.17194e-05
-7.56666e-06
-2.95319e-06
2.12527e-06
7.67337e-06
1.36962e-05
2.01992e-05
2.71882e-05
3.46697e-05
4.26503e-05
5.11374e-05
6.01387e-05
6.96623e-05
7.97171e-05
9.03123e-05
0.000101458
0.000113164
0.000125442
0.000138304
0.000151762
0.00016583
0.000180521
0.00019585
0.000211833
0.000228487
0.000245829
0.000263879
0.000282656
0.000302182
0.00032248
0.000343574
0.000365489
0.000388254
0.000411899
0.000436455
0.000461956
0.000488438
0.000515942
0.000544509
0.000574184
0.000605015
0.000637051
0.000670345
0.000704947
0.000740905
0.000778257
0.000817025
0.000857207
0.000898762
0.000941602
-3.41696e-05
-3.51438e-05
-3.48197e-05
-3.43381e-05
-3.33371e-05
-3.19003e-05
-3.00269e-05
-2.77128e-05
-2.49561e-05
-2.17542e-05
-1.8104e-05
-1.40023e-05
-9.44512e-06
-4.42834e-06
1.05259e-06
7.00263e-06
1.34271e-05
2.03319e-05
2.7723e-05
3.56071e-05
4.39914e-05
5.28833e-05
6.22908e-05
7.22225e-05
8.26875e-05
9.36953e-05
0.000105256
0.000117381
0.000130081
0.000143368
0.000157256
0.000171757
0.000186887
0.000202661
0.000219094
0.000236205
0.000254011
0.000272533
0.000291791
0.000311807
0.000332606
0.000354213
0.000376654
0.000399961
0.000424163
0.000449295
0.000475392
0.000502494
0.000530641
0.000559877
0.000590249
0.000621805
0.000654593
0.00068866
0.000724051
0.000760801
0.000798933
0.000838446
0.000879315
0.000921482
-4.09079e-05
-4.18817e-05
-4.15655e-05
-4.10959e-05
-4.01125e-05
-3.86985e-05
-3.68531e-05
-3.45724e-05
-3.18544e-05
-2.86967e-05
-2.50963e-05
-2.10499e-05
-1.65538e-05
-1.16039e-05
-6.19575e-06
-3.24522e-07
6.01501e-06
1.28285e-05
2.01219e-05
2.79017e-05
3.61749e-05
4.49487e-05
5.42309e-05
6.40298e-05
7.43543e-05
8.52136e-05
9.66176e-05
0.000108577
0.000121102
0.000134206
0.0001479
0.000162198
0.000177113
0.000192661
0.000208858
0.000225719
0.000243264
0.000261511
0.00028048
0.000300194
0.000320675
0.000341948
0.000364041
0.000386983
0.000410803
0.000435535
0.000461215
0.000487882
0.000515575
0.000544337
0.000574215
0.000605255
0.000637504
0.000671009
0.000705814
0.000741954
0.000779455
0.000818326
0.000858559
0.000900119
-4.82276e-05
-4.92009e-05
-4.88933e-05
-4.84367e-05
-4.74723e-05
-4.60829e-05
-4.42678e-05
-4.20231e-05
-3.93469e-05
-3.62369e-05
-3.26902e-05
-2.87034e-05
-2.42731e-05
-1.93953e-05
-1.40655e-05
-8.27905e-06
-2.0309e-06
4.68446e-06
1.18729e-05
1.95407e-05
2.76946e-05
3.63416e-05
4.54894e-05
5.5146e-05
6.53198e-05
7.602e-05
8.72561e-05
9.90383e-05
0.000111377
0.000124284
0.000137771
0.000151851
0.000166538
0.000181845
0.000197788
0.000214383
0.000231648
0.000249601
0.000268261
0.000287651
0.000307792
0.000328709
0.000350428
0.000372978
0.000396388
0.000420692
0.000445924
0.000472122
0.000499327
0.000527581
0.000556929
0.000587419
0.000619097
0.000652011
0.000686205
0.00072172
0.000758586
0.000796826
0.000836444
0.000877432
-5.61226e-05
-5.70954e-05
-5.67969e-05
-5.63543e-05
-5.54102e-05
-5.40473e-05
-5.22647e-05
-5.00586e-05
-4.74273e-05
-4.43685e-05
-4.08792e-05
-3.69565e-05
-3.25967e-05
-2.77959e-05
-2.255e-05
-1.68543e-05
-1.07039e-05
-4.09336e-06
2.98291e-06
1.05311e-05
1.85576e-05
2.70693e-05
3.60737e-05
4.55784e-05
5.55918e-05
6.61225e-05
7.71797e-05
8.87733e-05
0.000100914
0.000113611
0.000126878
0.000140727
0.00015517
0.000170221
0.000185894
0.000202207
0.000219174
0.000236814
0.000255147
0.000274191
0.00029397
0.000314508
0.000335828
0.00035796
0.000380933
0.000404778
0.000429532
0.00045523
0.000481913
0.000509623
0.000538406
0.00056831
0.000599381
0.000631671
0.000665226
0.000700092
0.000736307
0.000773905
0.000812909
0.00085333
-6.45864e-05
-6.55584e-05
-6.52697e-05
-6.4842e-05
-6.39197e-05
-6.25849e-05
-6.0837e-05
-5.86722e-05
-5.60888e-05
-5.30846e-05
-4.96567e-05
-4.58021e-05
-4.15174e-05
-3.67988e-05
-3.16422e-05
-2.60431e-05
-1.99967e-05
-1.34977e-05
-6.54075e-06
8.80172e-07
8.77134e-06
1.71394e-05
2.59915e-05
3.53351e-05
4.51782e-05
5.55292e-05
6.63969e-05
7.77907e-05
8.97205e-05
0.000102197
0.000115231
0.000128834
0.000143019
0.000157799
0.000173188
0.000189201
0.000205854
0.000223164
0.000241148
0.000259828
0.000279224
0.000299358
0.000320256
0.000341944
0.000364452
0.000387811
0.000412054
0.000437219
0.000463345
0.000490476
0.000518657
0.000547935
0.000578362
0.000609989
0.000642869
0.000677051
0.000712585
0.000749515
0.000787881
0.000827715
-7.3612e-05
-7.45829e-05
-7.43046e-05
-7.38927e-05
-7.29935e-05
-7.16887e-05
-6.99777e-05
-6.78567e-05
-6.53242e-05
-6.23779e-05
-5.90151e-05
-5.5233e-05
-5.1028e-05
-4.63965e-05
-4.13346e-05
-3.58379e-05
-2.99017e-05
-2.35209e-05
-1.66903e-05
-9.40404e-06
-1.65609e-06
6.56001e-06
1.52511e-05
2.44244e-05
3.40876e-05
4.42487e-05
5.49163e-05
6.60994e-05
7.78073e-05
9.00502e-05
0.000102839
0.000116184
0.000130097
0.000144592
0.000159681
0.000175378
0.0001917
0.000208661
0.000226279
0.000244574
0.000263565
0.000283275
0.000303726
0.000324946
0.000346961
0.000369803
0.000393505
0.000418104
0.000443638
0.000470152
0.00049769
0.000526303
0.000556041
0.000586962
0.00061912
0.000652574
0.000687381
0.000723599
0.000761282
0.000800484
-8.31918e-05
-8.41614e-05
-8.38941e-05
-8.34989e-05
-8.26241e-05
-8.1351e-05
-7.9679e-05
-7.76044e-05
-7.51257e-05
-7.22407e-05
-6.89469e-05
-6.52412e-05
-6.11205e-05
-5.65811e-05
-5.16193e-05
-4.62307e-05
-4.04108e-05
-3.41548e-05
-2.74575e-05
-2.03133e-05
-1.27163e-05
-4.66041e-06
3.86107e-06
1.28551e-05
2.23289e-05
3.22903e-05
4.27475e-05
5.37089e-05
6.51836e-05
7.71812e-05
8.97117e-05
0.000102786
0.000116414
0.000130609
0.000145384
0.00016075
0.000176724
0.000193319
0.000210554
0.000228444
0.00024701
0.000266273
0.000286254
0.000306979
0.000328475
0.000350772
0.000373901
0.0003979
0.000422806
0.000448662
0.000475516
0.000503416
0.000532419
0.000562581
0.000593965
0.000626634
0.000660655
0.000696099
0.000733034
0.000771535
-9.33178e-05
-9.42859e-05
-9.40301e-05
-9.36524e-05
-9.28033e-05
-9.15636e-05
-8.99328e-05
-8.79071e-05
-8.54852e-05
-8.26648e-05
-7.94435e-05
-7.58185e-05
-7.17865e-05
-6.73442e-05
-6.24877e-05
-5.7213e-05
-5.15156e-05
-4.53908e-05
-3.88337e-05
-3.18388e-05
-2.44005e-05
-1.65129e-05
-8.1695e-06
6.36262e-07
9.91144e-06
1.96634e-05
2.98999e-05
4.06291e-05
5.18596e-05
6.36004e-05
7.58609e-05
8.86512e-05
0.000101982
0.000115864
0.000130309
0.00014533
0.000160939
0.000177153
0.000193985
0.000211452
0.000229573
0.000248367
0.000267856
0.000288062
0.000309012
0.000330733
0.000353259
0.000376622
0.000400861
0.00042602
0.000452143
0.000479283
0.000507496
0.000536842
0.000567388
0.000599204
0.000632367
0.000666956
0.000703059
0.000740766
-0.000103982
-0.000104948
-0.000104704
-0.000104345
-0.000103523
-0.000102318
-0.00010073
-9.87562e-05
-9.63939e-05
-9.36415e-05
-9.04965e-05
-8.69561e-05
-8.30174e-05
-7.8677e-05
-7.39311e-05
-6.87758e-05
-6.32069e-05
-5.72198e-05
-5.08097e-05
-4.39714e-05
-3.66994e-05
-2.8988e-05
-2.08311e-05
-1.22224e-05
-3.15505e-06
6.3779e-06
1.63838e-05
2.68705e-05
3.78459e-05
4.93186e-05
6.12975e-05
7.37919e-05
8.68116e-05
0.000100367
0.000114469
0.00012913
0.00014436
0.000160175
0.000176588
0.000193614
0.000211271
0.000229576
0.000248548
0.000268211
0.000288588
0.000309706
0.000331595
0.000354288
0.000377822
0.000402239
0.000427585
0.000453912
0.000481276
0.000509741
0.000539378
0.000570262
0.000602478
0.000636118
0.000671283
0.00070808
-0.000115174
-0.000116138
-0.000115907
-0.000115567
-0.000114773
-0.000113605
-0.000112063
-0.000110143
-0.000107843
-0.000105162
-0.000102096
-9.86449e-05
-9.48039e-05
-9.05701e-05
-8.59401e-05
-8.09099e-05
-7.54755e-05
-6.96324e-05
-6.33761e-05
-5.67015e-05
-4.96033e-05
-4.20761e-05
-3.4114e-05
-2.57109e-05
-1.68604e-05
-7.55591e-06
2.20962e-06
1.24435e-05
2.31532e-05
3.43469e-05
4.60327e-05
5.82193e-05
7.09159e-05
8.4132e-05
9.78777e-05
0.000112163
0.000127001
0.000142401
0.000158379
0.000174946
0.000192119
0.000209914
0.00022835
0.000247445
0.000267223
0.000287708
0.000308929
0.000330916
0.000353706
0.000377337
0.000401856
0.000427313
0.000453766
0.00048128
0.000509927
0.000539789
0.000570959
0.000603537
0.000637637
0.000673386
-0.000126886
-0.000127847
-0.000127629
-0.000127309
-0.000126545
-0.000125416
-0.000123921
-0.000122057
-0.000119822
-0.000117215
-0.000114234
-0.000110875
-0.000107136
-0.000103014
-9.85048e-05
-9.36053e-05
-8.83114e-05
-8.26187e-05
-7.65228e-05
-7.0019e-05
-6.31021e-05
-5.57668e-05
-4.80077e-05
-3.98188e-05
-3.11941e-05
-2.21273e-05
-1.26118e-05
-2.6408e-06
7.79293e-06
1.86967e-05
3.00783e-05
4.19457e-05
5.43072e-05
6.71715e-05
8.05476e-05
9.44453e-05
0.000108875
0.000123846
0.000139372
0.000155464
0.000172136
0.000189402
0.000207279
0.000225784
0.000244938
0.000264763
0.000285284
0.00030653
0.000328535
0.000351336
0.000374976
0.000399505
0.000424979
0.000451465
0.000479035
0.000507777
0.000537787
0.000569175
0.000602067
0.000636605
-0.000139107
-0.000140066
-0.000139861
-0.000139562
-0.000138828
-0.000137739
-0.000136294
-0.000134488
-0.000132322
-0.000129793
-0.000126899
-0.000123637
-0.000120004
-0.000115998
-0.000111615
-0.000106852
-0.000101704
-9.61682e-05
-9.02395e-05
-8.39134e-05
-7.71851e-05
-7.00496e-05
-6.25015e-05
-5.45353e-05
-4.61452e-05
-3.73253e-05
-2.80693e-05
-1.83709e-05
-8.2234e-06
2.38008e-06
1.34466e-05
2.49834e-05
3.69981e-05
4.94986e-05
6.24928e-05
7.59894e-05
8.99973e-05
0.000104526
0.000119585
0.000135186
0.000151339
0.000168058
0.000185356
0.00020325
0.000221755
0.000240892
0.000260683
0.000281154
0.000302335
0.000324259
0.000346969
0.000370509
0.000394936
0.000420312
0.000446713
0.000474226
0.000502952
0.000533007
0.000564528
0.000597671
-0.000151827
-0.000152783
-0.000152592
-0.000152314
-0.000151613
-0.000150565
-0.000149171
-0.000147427
-0.000145332
-0.000142883
-0.00014008
-0.000136919
-0.000133397
-0.000129512
-0.00012526
-0.000120639
-0.000115643
-0.00011027
-0.000104515
-9.83738e-05
-9.18416e-05
-8.49134e-05
-7.75844e-05
-6.98492e-05
-6.17025e-05
-5.31384e-05
-4.41513e-05
-3.47352e-05
-2.48838e-05
-1.4591e-05
-3.85015e-06
7.34523e-06
1.90019e-05
3.11269e-05
4.37272e-05
5.68103e-05
7.03838e-05
8.44556e-05
9.90342e-05
0.000114128
0.000129747
0.000145902
0.000162603
0.000179864
0.000197698
0.000216121
0.000235153
0.000254816
0.000275134
0.000296139
0.000317865
0.000340357
0.000363664
0.000387849
0.000412982
0.000439151
0.000466459
0.000495026
0.000524996
0.000556536
-0.000165036
-0.000165987
-0.000165811
-0.000165556
-0.000164887
-0.000163883
-0.000162542
-0.000160862
-0.00015884
-0.000156476
-0.000153767
-0.00015071
-0.000147304
-0.000143544
-0.000139429
-0.000134955
-0.000130117
-0.000124913
-0.000119339
-0.000113389
-0.00010706
-0.000100347
-9.32448e-05
-8.57489e-05
-7.78541e-05
-6.95548e-05
-6.08458e-05
-5.17215e-05
-4.21761e-05
-3.22039e-05
-2.17992e-05
-1.09559e-05
3.31878e-07
1.20702e-05
2.4265e-05
3.69228e-05
5.00496e-05
6.3652e-05
7.77367e-05
9.23104e-05
0.000107381
0.000122955
0.000139042
0.000155651
0.000172792
0.000190479
0.000208725
0.000227548
0.000246968
0.00026701
0.000287703
0.000309086
0.000331204
0.000354111
0.000377877
0.000402583
0.000428331
0.000455243
0.000483466
0.000513177
-0.000178721
-0.000179668
-0.000179507
-0.000179274
-0.00017864
-0.000177681
-0.000176396
-0.000174781
-0.000172836
-0.000170559
-0.000167947
-0.000164999
-0.000161712
-0.000158083
-0.00015411
-0.000149788
-0.000145114
-0.000140086
-0.000134698
-0.000128947
-0.000122828
-0.000116338
-0.000109471
-0.000102222
-9.4588e-05
-8.65624e-05
-7.81406e-05
-6.93174e-05
-6.00877e-05
-5.04461e-05
-4.03875e-05
-2.99067e-05
-1.89984e-05
-7.65763e-06
4.12081e-06
1.63419e-05
2.90106e-05
4.21317e-05
5.57101e-05
6.97506e-05
8.42582e-05
9.92378e-05
0.000114695
0.000130636
0.000147066
0.000163995
0.000181431
0.000199386
0.000217874
0.000236913
0.000256527
0.000276745
0.000297603
0.000319151
0.000341448
0.00036457
0.000388612
0.000413694
0.000439962
0.000467598
-0.00019287
-0.000193812
-0.000193668
-0.000193458
-0.00019286
-0.000191947
-0.000190719
-0.000189173
-0.000187307
-0.00018512
-0.00018261
-0.000179774
-0.000176611
-0.000173117
-0.00016929
-0.000165126
-0.000160622
-0.000155775
-0.000150581
-0.000145035
-0.000139134
-0.000132874
-0.00012625
-0.000119257
-0.000111892
-0.000104149
-9.6023e-05
-8.75103e-05
-7.86057e-05
-6.93045e-05
-5.9602e-05
-4.94937e-05
-3.89752e-05
-2.80423e-05
-1.66909e-05
-4.91717e-06
7.28245e-06
1.99112e-05
3.29721e-05
4.64678e-05
6.04008e-05
7.47732e-05
8.95871e-05
0.000104845
0.000120548
0.000136701
0.000153306
0.000170368
0.000187896
0.000205898
0.000224389
0.000243389
0.000262924
0.000283033
0.000303763
0.000325181
0.000347371
0.000370444
0.000394541
0.000419841
-0.000207472
-0.000208409
-0.00020828
-0.000208095
-0.000207534
-0.000206669
-0.0002055
-0.000204024
-0.000202241
-0.000200147
-0.000197742
-0.000195023
-0.000191987
-0.000188633
-0.000184957
-0.000180957
-0.000176629
-0.000171969
-0.000166975
-0.000161641
-0.000155965
-0.000149943
-0.000143569
-0.00013684
-0.000129752
-0.0001223
-0.00011448
-0.000106287
-9.7717e-05
-8.87657e-05
-7.94291e-05
-6.97033e-05
-5.95846e-05
-4.90697e-05
-3.81554e-05
-2.68392e-05
-1.51188e-05
-2.99264e-06
9.54045e-06
2.2481e-05
3.58287e-05
4.9583e-05
6.37425e-05
7.83051e-05
9.32685e-05
0.00010863
0.000124387
0.000140537
0.00015708
0.000174015
0.000191348
0.000209084
0.00022724
0.000245836
0.000264909
0.000284508
0.000304702
0.000325588
0.000347293
0.000369988
-0.000222514
-0.000223445
-0.000223332
-0.000223172
-0.000222648
-0.000221833
-0.000220726
-0.000219323
-0.000217624
-0.000215627
-0.00021333
-0.000210731
-0.000207828
-0.000204618
-0.000201099
-0.000197267
-0.00019312
-0.000188654
-0.000183866
-0.000178752
-0.000173308
-0.000167531
-0.000161416
-0.000154959
-0.000148157
-0.000141004
-0.000133498
-0.000125634
-0.000117408
-0.000108816
-9.98552e-05
-9.05216e-05
-8.08125e-05
-7.07254e-05
-6.0258e-05
-4.9409e-05
-3.81775e-05
-2.65634e-05
-1.45674e-05
-2.19125e-06
1.05623e-05
2.36895e-05
3.71854e-05
5.10437e-05
6.5257e-05
7.98169e-05
9.47138e-05
0.000109938
0.000125478
0.000141325
0.000157469
0.000173906
0.000190633
0.000207656
0.000224991
0.000242666
0.00026073
0.000279257
0.000298354
0.000318172
-0.000237982
-0.000238906
-0.00023881
-0.000238676
-0.000238191
-0.000237426
-0.000236382
-0.000235055
-0.000233443
-0.000231545
-0.00022936
-0.000226885
-0.000224119
-0.000221058
-0.0002177
-0.000214043
-0.000210083
-0.000205817
-0.000201241
-0.000196353
-0.000191149
-0.000185624
-0.000179775
-0.000173599
-0.000167091
-0.000160247
-0.000153064
-0.000145538
-0.000137665
-0.000129442
-0.000120866
-0.000111935
-0.000102645
-9.29951e-05
-8.29841e-05
-7.26116e-05
-6.1878e-05
-5.07846e-05
-3.93342e-05
-2.75304e-05
-1.53785e-05
-2.88551e-06
9.94004e-06
2.30876e-05
3.65445e-05
5.02962e-05
6.43258e-05
7.86147e-05
9.31422e-05
0.000107887
0.000122826
0.000137937
0.000153201
0.000168602
0.000184132
0.000199795
0.00021561
0.00023162
0.000247904
0.000264579
-0.000253861
-0.000254778
-0.0002547
-0.000254592
-0.000254147
-0.000253435
-0.000252456
-0.000251206
-0.000249684
-0.000247889
-0.000245819
-0.000243472
-0.000240846
-0.000237939
-0.000234748
-0.00023127
-0.000227503
-0.000223443
-0.000219086
-0.000214431
-0.000209473
-0.000204208
-0.000198634
-0.000192746
-0.000186541
-0.000180014
-0.000173163
-0.000165985
-0.000158474
-0.00015063
-0.000142449
-0.000133929
-0.000125067
-0.000115864
-0.000106319
-9.64321e-05
-8.6205e-05
-7.56406e-05
-6.47432e-05
-5.35186e-05
-4.19747e-05
-3.01212e-05
-1.79703e-05
-5.53711e-06
7.16075e-06
2.01022e-05
3.32631e-05
4.66155e-05
6.01281e-05
7.37662e-05
8.74922e-05
0.000101266
0.000115047
0.000128796
0.000142475
0.000156058
0.000169526
0.000182887
0.000196172
0.000209459
-0.000270139
-0.000271048
-0.000270988
-0.000270906
-0.000270503
-0.000269845
-0.000268932
-0.000267762
-0.000266332
-0.000264643
-0.000262692
-0.000260477
-0.000257996
-0.000255247
-0.000252227
-0.000248934
-0.000245365
-0.000241517
-0.000237386
-0.000232971
-0.000228266
-0.000223269
-0.000217977
-0.000212386
-0.000206492
-0.000200291
-0.000193782
-0.000186959
-0.000179821
-0.000172365
-0.000164588
-0.000156489
-0.000148066
-0.000139319
-0.000130249
-0.000120856
-0.000111144
-0.000101116
-9.07785e-05
-8.01392e-05
-6.92081e-05
-5.79977e-05
-4.65239e-05
-3.48057e-05
-2.2866e-05
-1.07321e-05
1.56403e-06
1.39854e-05
2.64895e-05
3.90281e-05
5.15471e-05
6.39871e-05
7.6284e-05
8.83704e-05
0.000100178
0.000111639
0.000122697
0.000133304
0.000143442
0.000153126
-0.0002868
-0.0002877
-0.000287658
-0.000287604
-0.000287242
-0.00028664
-0.000285796
-0.000284707
-0.000283373
-0.000281792
-0.000279963
-0.000277883
-0.000275551
-0.000272965
-0.000270122
-0.000267019
-0.000263654
-0.000260024
-0.000256126
-0.000251957
-0.000247513
-0.000242792
-0.000237789
-0.000232503
-0.000226928
-0.000221063
-0.000214904
-0.000208447
-0.000201691
-0.000194632
-0.000187269
-0.000179601
-0.000171626
-0.000163345
-0.000154759
-0.000145869
-0.00013668
-0.000127196
-0.000117425
-0.000107376
-9.7062e-05
-8.64971e-05
-7.57006e-05
-6.46957e-05
-5.351e-05
-4.21768e-05
-3.07355e-05
-1.92324e-05
-7.72125e-06
3.7357e-06
1.50675e-05
2.6194e-05
3.7026e-05
4.74657e-05
5.7408e-05
6.67434e-05
7.53619e-05
8.31593e-05
9.00464e-05
9.59626e-05
-0.000303828
-0.000304719
-0.000304695
-0.00030467
-0.000304351
-0.000303805
-0.000303032
-0.000302027
-0.000300791
-0.000299322
-0.000297618
-0.000295677
-0.000293498
-0.000291079
-0.000288417
-0.000285509
-0.000282354
-0.000278948
-0.000275289
-0.000271373
-0.000267197
-0.000262759
-0.000258055
-0.000253081
-0.000247836
-0.000242314
-0.000236514
-0.000230433
-0.000224068
-0.000217417
-0.000210478
-0.000203251
-0.000195734
-0.000187928
-0.000179835
-0.000171458
-0.0001628
-0.000153867
-0.000144669
-0.000135216
-0.000125522
-0.000115603
-0.000105483
-9.51875e-05
-8.47486e-05
-7.42052e-05
-6.36038e-05
-5.29994e-05
-4.24568e-05
-3.2052e-05
-2.18731e-05
-1.20214e-05
-2.61251e-06
6.22351e-06
1.43421e-05
2.15857e-05
2.7786e-05
3.27695e-05
3.63655e-05
3.8418e-05
-0.000321208
-0.000322089
-0.000322084
-0.000322087
-0.000321813
-0.000321325
-0.000320624
-0.000319706
-0.00031857
-0.000317214
-0.000315639
-0.000313841
-0.000311819
-0.000309572
-0.000307096
-0.000304389
-0.000301449
-0.000298273
-0.000294859
-0.000291203
-0.000287303
-0.000283156
-0.000278757
-0.000274105
-0.000269197
-0.000264028
-0.000258597
-0.000252901
-0.000246937
-0.000240704
-0.0002342
-0.000227423
-0.000220375
-0.000213054
-0.000205464
-0.000197608
-0.00018949
-0.000181117
-0.000172498
-0.000163645
-0.000154574
-0.000145303
-0.000135857
-0.000126265
-0.000116564
-0.000106796
-9.70149e-05
-8.72834e-05
-7.76767e-05
-6.82837e-05
-5.9209e-05
-5.0575e-05
-4.25238e-05
-3.52186e-05
-2.88456e-05
-2.36141e-05
-1.97561e-05
-1.75232e-05
-1.7181e-05
-1.89991e-05
-0.000338923
-0.000339794
-0.000339808
-0.000339841
-0.000339611
-0.000339183
-0.000338556
-0.000337726
-0.000336692
-0.000335454
-0.00033401
-0.000332359
-0.000330498
-0.000328427
-0.000326141
-0.000323641
-0.000320922
-0.000317982
-0.000314819
-0.000311431
-0.000307813
-0.000303964
-0.00029988
-0.000295558
-0.000290995
-0.000286189
-0.000281136
-0.000275835
-0.000270283
-0.000264478
-0.000258418
-0.000252103
-0.000245533
-0.000238709
-0.000231632
-0.000224307
-0.000216738
-0.000208932
-0.0002009
-0.000192653
-0.000184208
-0.000175586
-0.000166812
-0.000157917
-0.000148942
-0.000139934
-0.00013095
-0.000122061
-0.00011335
-0.000104919
-9.68863e-05
-8.93953e-05
-8.2613e-05
-7.67356e-05
-7.19912e-05
-6.86425e-05
-6.69891e-05
-6.73675e-05
-7.01491e-05
-7.57338e-05
-0.000356958
-0.000357818
-0.000357851
-0.000357913
-0.000357729
-0.000357362
-0.00035681
-0.00035607
-0.000355142
-0.000354024
-0.000352715
-0.000351214
-0.000349518
-0.000347626
-0.000345537
-0.000343247
-0.000340754
-0.000338057
-0.000335152
-0.000332037
-0.000328709
-0.000325166
-0.000321404
-0.000317421
-0.000313213
-0.000308778
-0.000304114
-0.000299218
-0.000294087
-0.000288721
-0.000283117
-0.000277275
-0.000271195
-0.000264878
-0.000258326
-0.000251542
-0.000244532
-0.000237303
-0.000229864
-0.00022223
-0.000214416
-0.000206443
-0.000198339
-0.000190137
-0.000181877
-0.000173611
-0.0001654
-0.000157318
-0.000149458
-0.00014193
-0.000134867
-0.000128429
-0.000122805
-0.000118224
-0.000114952
-0.000113307
-0.000113654
-0.000116421
-0.000122091
-0.000131208
-0.000375293
-0.000376142
-0.000376195
-0.000376287
-0.00037615
-0.000375845
-0.00037537
-0.000374722
-0.000373901
-0.000372906
-0.000371735
-0.000370387
-0.00036886
-0.000367153
-0.000365263
-0.000363189
-0.000360929
-0.000358479
-0.000355839
-0.000353004
-0.000349974
-0.000346744
-0.000343312
-0.000339676
-0.000335832
-0.000331779
-0.000327513
-0.000323032
-0.000318334
-0.000313418
-0.000308281
-0.000302924
-0.000297346
-0.000291547
-0.000285531
-0.000279301
-0.000272861
-0.000266218
-0.000259383
-0.000252369
-0.000245191
-0.000237872
-0.000230438
-0.000222923
-0.000215369
-0.000207827
-0.000200363
-0.000193055
-0.000185998
-0.000179311
-0.000173136
-0.000167647
-0.000163054
-0.000159611
-0.000157621
-0.000157449
-0.00015953
-0.000164374
-0.000172583
-0.000184851
-0.000393913
-0.000394749
-0.000394822
-0.000394945
-0.000394856
-0.000394614
-0.000394217
-0.000393664
-0.000392953
-0.000392082
-0.000391052
-0.00038986
-0.000388506
-0.000386987
-0.000385302
-0.000383449
-0.000381426
-0.000379231
-0.00037686
-0.000374313
-0.000371587
-0.000368678
-0.000365585
-0.000362304
-0.000358834
-0.000355171
-0.000351313
-0.000347258
-0.000343004
-0.000338549
-0.000333892
-0.000329032
-0.000323968