/*--------------------------------*- C++ -*----------------------------------*\
  =========                 |
  \\      /  F ield         | OpenFOAM: The Open Source CFD Toolbox
   \\    /   O peration     | Website:  https://openfoam.org
    \\  /    A nd           | Version:  8
     \\/     M anipulation  |
\*---------------------------------------------------------------------------*/
FoamFile
{
    version     2.0;
    format      ascii;
    class       surfaceScalarField;
    location    "53.5";
    object      phi;
}
// * * * * * * * * * * * * * * * * * * * * * * * * * * * * * * * * * * * * * //

dimensions      [0 3 -1 0 0 0 0];

internalField   nonuniform List<scalar> 
22960
(
-1.88566e-07
1.88721e-07
-7.98764e-07
6.10198e-07
-1.60802e-06
8.09255e-07
-2.49802e-06
8.89996e-07
-3.41192e-06
9.13901e-07
-4.32988e-06
9.17969e-07
-5.24762e-06
9.17738e-07
-6.16524e-06
9.17613e-07
-7.0836e-06
9.18368e-07
-8.00348e-06
9.19879e-07
-8.9254e-06
9.2192e-07
-9.84974e-06
9.24338e-07
-1.07768e-05
9.27044e-07
-1.17068e-05
9.29986e-07
-1.26399e-05
9.33129e-07
-1.35763e-05
9.36447e-07
-1.45163e-05
9.39915e-07
-1.54598e-05
9.4351e-07
-1.6407e-05
9.47209e-07
-1.7358e-05
9.50988e-07
-1.83128e-05
9.54823e-07
-1.92715e-05
9.58686e-07
-2.0234e-05
9.62551e-07
-2.12004e-05
9.66388e-07
-2.21706e-05
9.70167e-07
-2.31444e-05
9.73856e-07
-2.41219e-05
9.77423e-07
-2.51027e-05
9.80832e-07
-2.60867e-05
9.84049e-07
-2.70738e-05
9.87036e-07
-2.80635e-05
9.89757e-07
-2.90557e-05
9.92172e-07
-3.005e-05
9.94245e-07
-3.10459e-05
9.95935e-07
-3.20431e-05
9.97205e-07
-3.30411e-05
9.98017e-07
-3.40394e-05
9.98332e-07
-3.50376e-05
9.98113e-07
-3.60349e-05
9.97323e-07
-3.70308e-05
9.95924e-07
-3.80247e-05
9.93874e-07
-3.90158e-05
9.91122e-07
-4.00034e-05
9.87602e-07
-4.09866e-05
9.83214e-07
-4.19644e-05
9.77792e-07
-4.29355e-05
9.71047e-07
-4.38979e-05
9.62446e-07
-4.48489e-05
9.50973e-07
-4.57835e-05
9.34665e-07
-4.66933e-05
9.09723e-07
-4.75623e-05
8.6902e-07
-4.83627e-05
8.00399e-07
-4.90494e-05
6.86717e-07
-4.95606e-05
5.11234e-07
-4.98446e-05
2.8398e-07
-5.00511e-05
2.06488e-07
-5.10564e-05
1.0053e-06
-5.43663e-05
3.30994e-06
-6.96179e-05
1.52516e-05
3.54452e-05
-0.000105063
-6.27983e-07
8.16704e-07
-1.96314e-06
1.94536e-06
-3.64333e-06
2.48945e-06
-5.47701e-06
2.72367e-06
-7.37087e-06
2.80775e-06
-9.28619e-06
2.83329e-06
-1.12091e-05
2.84061e-06
-1.31354e-05
2.84399e-06
-1.50646e-05
2.84756e-06
-1.69969e-05
2.85213e-06
-1.89326e-05
2.85767e-06
-2.08723e-05
2.86401e-06
-2.28162e-05
2.87099e-06
-2.47648e-05
2.87852e-06
-2.67182e-05
2.88651e-06
-2.86766e-05
2.89488e-06
-3.06402e-05
2.90357e-06
-3.26092e-05
2.9125e-06
-3.45836e-05
2.92161e-06
-3.65635e-05
2.93082e-06
-3.85487e-05
2.94006e-06
-4.05393e-05
2.94924e-06
-4.2535e-05
2.95827e-06
-4.45357e-05
2.96707e-06
-4.65411e-05
2.97555e-06
-4.85508e-05
2.98361e-06
-5.05645e-05
2.99114e-06
-5.25817e-05
2.99805e-06
-5.46019e-05
3.00422e-06
-5.66244e-05
3.00955e-06
-5.86486e-05
3.01394e-06
-6.06737e-05
3.01727e-06
-6.26989e-05
3.01944e-06
-6.47233e-05
3.02035e-06
-6.6746e-05
3.01991e-06
-6.8766e-05
3.01803e-06
-7.07824e-05
3.01466e-06
-7.2794e-05
3.00972e-06
-7.47998e-05
3.0032e-06
-7.6799e-05
2.99509e-06
-7.87905e-05
2.9854e-06
-8.07736e-05
2.97421e-06
-8.27476e-05
2.96158e-06
-8.4712e-05
2.94762e-06
-8.66667e-05
2.93244e-06
-8.86117e-05
2.91607e-06
-9.05476e-05
2.89838e-06
-9.24755e-05
2.87881e-06
-9.43969e-05
2.8561e-06
-9.63149e-05
2.82775e-06
-9.8236e-05
2.79014e-06
-0.000100177
2.7409e-06
-0.000102179
2.68903e-06
-0.000104351
2.68387e-06
-0.000106961
2.89312e-06
-0.000110558
3.80398e-06
-0.000116023
6.47063e-06
-0.000125014
1.23e-05
-0.000136941
2.71787e-05
4.66067e-05
-0.000148102
-8.55231e-07
1.67193e-06
-2.57244e-06
3.66257e-06
-4.70261e-06
4.61962e-06
-7.01269e-06
5.03376e-06
-9.39488e-06
5.18995e-06
-1.18042e-05
5.24265e-06
-1.42239e-05
5.26024e-06
-1.66483e-05
5.26844e-06
-1.90762e-05
5.27546e-06
-2.15075e-05
5.2834e-06
-2.39424e-05
5.29255e-06
-2.63812e-05
5.3028e-06
-2.88242e-05
5.31398e-06
-3.12716e-05
5.32595e-06
-3.37237e-05
5.33857e-06
-3.61805e-05
5.35172e-06
-3.86422e-05
5.36528e-06
-4.11088e-05
5.37913e-06
-4.35804e-05
5.39314e-06
-4.60567e-05
5.40717e-06
-4.85377e-05
5.42108e-06
-5.10232e-05
5.43474e-06
-5.35129e-05
5.44798e-06
-5.60065e-05
5.46065e-06
-5.85035e-05
5.47257e-06
-6.10035e-05
5.48357e-06
-6.35058e-05
5.49348e-06
-6.60099e-05
5.5021e-06
-6.85149e-05
5.50925e-06
-7.10201e-05
5.51475e-06
-7.35246e-05
5.51841e-06
-7.60274e-05
5.52005e-06
-7.85274e-05
5.51949e-06
-8.10237e-05
5.51659e-06
-8.3515e-05
5.5112e-06
-8.60001e-05
5.50322e-06
-8.84781e-05
5.49259e-06
-9.09476e-05
5.47927e-06
-9.34077e-05
5.46332e-06
-9.58575e-05
5.44484e-06
-9.82962e-05
5.42408e-06
-0.000100723
5.40136e-06
-0.000103139
5.37718e-06
-0.000105544
5.35222e-06
-0.000107938
5.32737e-06
-0.000110326
5.30375e-06
-0.00011271
5.28276e-06
-0.000115098
5.26614e-06
-0.000117498
5.25613e-06
-0.000119926
5.25627e-06
-0.00012241
5.27378e-06
-0.000124996
5.32665e-06
-0.000127768
5.4614e-06
-0.000130879
5.79457e-06
-0.000134585
6.59898e-06
-0.000139215
8.43438e-06
-0.000144983
1.22387e-05
-0.00015207
1.9387e-05
-0.000157389
3.24975e-05
4.81419e-05
-0.000158924
-9.59004e-07
2.63094e-06
-2.86152e-06
5.56508e-06
-5.20475e-06
6.96285e-06
-7.73478e-06
7.56378e-06
-1.03389e-05
7.7941e-06
-1.29713e-05
7.87499e-06
-1.56147e-05
7.90366e-06
-1.82635e-05
7.91724e-06
-2.0916e-05
7.92798e-06
-2.35719e-05
7.9393e-06
-2.62312e-05
7.95189e-06
-2.88942e-05
7.96574e-06
-3.15609e-05
7.9807e-06
-3.42316e-05
7.9966e-06
-3.69062e-05
8.01327e-06
-3.95851e-05
8.03054e-06
-4.2268e-05
8.04823e-06
-4.49551e-05
8.06619e-06
-4.76461e-05
8.08421e-06
-5.03411e-05
8.1021e-06
-5.30397e-05
8.11967e-06
-5.57416e-05
8.13669e-06
-5.84466e-05
8.15293e-06
-6.11541e-05
8.16817e-06
-6.38637e-05
8.18214e-06
-6.65747e-05
8.19461e-06
-6.92865e-05
8.2053e-06
-7.19984e-05
8.21395e-06
-7.47094e-05
8.22029e-06
-7.74187e-05
8.22405e-06
-8.01253e-05
8.22497e-06
-8.2828e-05
8.22279e-06
-8.55258e-05
8.21728e-06
-8.82175e-05
8.20823e-06
-9.09017e-05
8.19548e-06
-9.35774e-05
8.1789e-06
-9.62433e-05
8.15845e-06
-9.88982e-05
8.13416e-06
-0.000101541
8.10619e-06
-0.000104171
8.07484e-06
-0.000106788
8.04062e-06
-0.00010939
8.00426e-06
-0.00011198
7.96685e-06
-0.000114558
7.92986e-06
-0.000117126
7.89532e-06
-0.000119688
7.86601e-06
-0.000122251
7.84574e-06
-0.000124825
7.83981e-06
-0.000127425
7.85601e-06
-0.000130075
7.90654e-06
-0.000132813
8.01226e-06
-0.000135698
8.21171e-06
-0.000138817
8.57956e-06
-0.000142284
9.26185e-06
-0.000146218
1.0533e-05
-0.00015064
1.28565e-05
-0.000155301
1.69001e-05
-0.000159427
2.35126e-05
-0.000160392
3.34625e-05
4.45349e-05
-0.000156785
-9.96577e-07
3.62752e-06
-2.97918e-06
7.54768e-06
-5.4153e-06
9.39898e-06
-8.04006e-06
1.01885e-05
-1.07383e-05
1.04923e-05
-1.34639e-05
1.06006e-05
-1.62002e-05
1.064e-05
-1.89418e-05
1.06588e-05
-2.16871e-05
1.06733e-05
-2.44357e-05
1.06879e-05
-2.71876e-05
1.07038e-05
-2.99429e-05
1.0721e-05
-3.27017e-05
1.07395e-05
-3.54641e-05
1.0759e-05
-3.82302e-05
1.07794e-05
-4.1e-05
1.08004e-05
-4.37736e-05
1.08218e-05
-4.65507e-05
1.08433e-05
-4.93313e-05
1.08648e-05
-5.21153e-05
1.0886e-05
-5.49022e-05
1.09066e-05
-5.76919e-05
1.09264e-05
-6.04839e-05
1.09449e-05
-6.32778e-05
1.0962e-05
-6.60729e-05
1.09773e-05
-6.88686e-05
1.09904e-05
-7.16643e-05
1.1001e-05
-7.4459e-05
1.10087e-05
-7.7252e-05
1.10132e-05
-8.00422e-05
1.10142e-05
-8.28285e-05
1.10113e-05
-8.56098e-05
1.10041e-05
-8.8385e-05
1.09924e-05
-9.11527e-05
1.0976e-05
-9.39117e-05
1.09545e-05
-9.66607e-05
1.09278e-05
-9.93983e-05
1.0896e-05
-0.000102123
1.08592e-05
-0.000104835
1.08175e-05
-0.000107531
1.07715e-05
-0.000110213
1.0722e-05
-0.000112879
1.06701e-05
-0.000115529
1.06175e-05
-0.000118166
1.05664e-05
-0.00012079
1.052e-05
-0.000123407
1.04828e-05
-0.000126022
1.04609e-05
-0.000128645
1.04629e-05
-0.000131291
1.05013e-05
-0.00013398
1.05952e-05
-0.000136742
1.07745e-05
-0.000139618
1.10882e-05
-0.000142658
1.16193e-05
-0.000145903
1.25071e-05
-0.000149346
1.39759e-05
-0.00015284
1.63508e-05
-0.000155978
2.00377e-05
-0.000157902
2.54363e-05
-0.000156954
3.25145e-05
4.00575e-05
-0.000152476
-1.00645e-06
4.63397e-06
-3.01947e-06
9.56071e-06
-5.4921e-06
1.18716e-05
-8.15423e-06
1.28507e-05
-1.08889e-05
1.3227e-05
-1.36501e-05
1.33618e-05
-1.64215e-05
1.34113e-05
-1.91978e-05
1.34352e-05
-2.19778e-05
1.34532e-05
-2.4761e-05
1.34711e-05
-2.75476e-05
1.34903e-05
-3.03375e-05
1.35109e-05
-3.31308e-05
1.35329e-05
-3.59278e-05
1.3556e-05
-3.87283e-05
1.35799e-05
-4.15325e-05
1.36045e-05
-4.43403e-05
1.36295e-05
-4.71515e-05
1.36546e-05
-4.99662e-05
1.36795e-05
-5.2784e-05
1.37038e-05
-5.56047e-05
1.37274e-05
-5.8428e-05
1.37496e-05
-6.12534e-05
1.37704e-05
-6.40805e-05
1.37891e-05
-6.69087e-05
1.38054e-05
-6.97373e-05
1.38189e-05
-7.25655e-05
1.38292e-05
-7.53927e-05
1.38358e-05
-7.82177e-05
1.38383e-05
-8.10397e-05
1.38362e-05
-8.38574e-05
1.38291e-05
-8.66698e-05
1.38165e-05
-8.94756e-05
1.37982e-05
-9.22734e-05
1.37738e-05
-9.50618e-05
1.37429e-05
-9.78395e-05
1.37056e-05
-0.000100605
1.36616e-05
-0.000103357
1.36112e-05
-0.000106094
1.35547e-05
-0.000108815
1.34927e-05
-0.00011152
1.34262e-05
-0.000114206
1.33566e-05
-0.000116875
1.32862e-05
-0.000119526
1.32177e-05
-0.000122162
1.31554e-05
-0.000124783
1.31048e-05
-0.000127396
1.30737e-05
-0.000130006
1.30731e-05
-0.000132623
1.31182e-05
-0.00013526
1.32316e-05
-0.000137932
1.34464e-05
-0.000140656
1.38124e-05
-0.000143442
1.44056e-05
-0.000146274
1.53389e-05
-0.000149069
1.67714e-05
-0.000151623
1.89042e-05
-0.000153532
2.19472e-05
-0.000154116
2.60196e-05
-0.000152497
3.0896e-05
3.58509e-05
-0.000148291
-1.007e-06
5.64097e-06
-3.02911e-06
1.15828e-05
-5.51363e-06
1.43561e-05
-8.18847e-06
1.55255e-05
-1.09355e-05
1.59741e-05
-1.37085e-05
1.61348e-05
-1.64913e-05
1.61941e-05
-1.92789e-05
1.62228e-05
-2.207e-05
1.62443e-05
-2.48644e-05
1.62656e-05
-2.76622e-05
1.62881e-05
-3.04635e-05
1.63122e-05
-3.32683e-05
1.63377e-05
-3.60769e-05
1.63645e-05
-3.88891e-05
1.63922e-05
-4.17051e-05
1.64206e-05
-4.45249e-05
1.64493e-05
-4.73483e-05
1.6478e-05
-5.01752e-05
1.65064e-05
-5.30055e-05
1.65341e-05
-5.58388e-05
1.65607e-05
-5.86749e-05
1.65857e-05
-6.15133e-05
1.66088e-05
-6.43535e-05
1.66293e-05
-6.7195e-05
1.66469e-05
-7.00372e-05
1.66611e-05
-7.28792e-05
1.66712e-05
-7.57203e-05
1.66769e-05
-7.85594e-05
1.66774e-05
-8.13956e-05
1.66724e-05
-8.42277e-05
1.66612e-05
-8.70545e-05
1.66434e-05
-8.98748e-05
1.66184e-05
-9.2687e-05
1.6586e-05
-9.54897e-05
1.65456e-05
-9.82814e-05
1.64973e-05
-0.00010106
1.64407e-05
-0.000103825
1.63761e-05
-0.000106574
1.63038e-05
-0.000109306
1.62245e-05
-0.000112019
1.61392e-05
-0.000114712
1.60497e-05
-0.000117385
1.59583e-05
-0.000120035
1.58683e-05
-0.000122664
1.57843e-05
-0.000125272
1.57125e-05
-0.00012786
1.56615e-05
-0.00013043
1.56431e-05
-0.000132985
1.56733e-05
-0.000135528
1.57748e-05
-0.00013806
1.59789e-05
-0.000140578
1.63297e-05
-0.00014306
1.68884e-05
-0.000145458
1.77368e-05
-0.000147664
1.89769e-05
-0.000149479
2.0719e-05
-0.000150581
2.30493e-05
-0.000150515
2.59542e-05
-0.000148819
2.92005e-05
3.23184e-05
-0.000145287
-1.00489e-06
6.64586e-06
-3.02769e-06
1.36056e-05
-5.5142e-06
1.68426e-05
-8.1918e-06
1.82031e-05
-1.09417e-05
1.87239e-05
-1.37172e-05
1.89103e-05
-1.65024e-05
1.89793e-05
-1.92923e-05
1.90127e-05
-2.20858e-05
1.90378e-05
-2.48826e-05
1.90624e-05
-2.7683e-05
1.90884e-05
-3.0487e-05
1.91162e-05
-3.32947e-05
1.91455e-05
-3.61064e-05
1.91762e-05
-3.8922e-05
1.92078e-05
-4.17417e-05
1.92402e-05
-4.45654e-05
1.92729e-05
-4.7393e-05
1.93056e-05
-5.02244e-05
1.93379e-05
-5.30595e-05
1.93692e-05
-5.58981e-05
1.93992e-05
-5.87397e-05
1.94274e-05
-6.15841e-05
1.94531e-05
-6.44308e-05
1.9476e-05
-6.72791e-05
1.94953e-05
-7.01285e-05
1.95105e-05
-7.29782e-05
1.9521e-05
-7.58274e-05
1.9526e-05
-7.86751e-05
1.95251e-05
-8.15203e-05
1.95176e-05
-8.43617e-05
1.95027e-05
-8.71983e-05
1.94799e-05
-9.00285e-05
1.94486e-05
-9.28509e-05
1.94084e-05
-9.56639e-05
1.93587e-05
-9.84659e-05
1.92992e-05
-0.000101255
1.92298e-05
-0.000104029
1.91505e-05
-0.000106787
1.90616e-05
-0.000109526
1.89637e-05
-0.000112245
1.88579e-05
-0.000114941
1.87459e-05
-0.000117613
1.86301e-05
-0.000120259
1.85138e-05
-0.000122876
1.84016e-05
-0.000125463
1.82998e-05
-0.000128019
1.82169e-05
-0.00013054
1.81642e-05
-0.000133023
1.81568e-05
-0.000135463
1.82151e-05
-0.00013785
1.83658e-05
-0.000140165
1.8644e-05
-0.000142371
1.90946e-05
-0.000144406
1.97715e-05
-0.000146162
2.07336e-05
-0.000147475
2.20317e-05
-0.000148109
2.36833e-05
-0.00014778
2.56255e-05
-0.000146244
2.76644e-05
2.94788e-05
-0.000143405
-1.00217e-06
7.64803e-06
-3.02251e-06
1.5626e-05
-5.50719e-06
1.93273e-05
-8.18363e-06
2.08795e-05
-1.09326e-05
2.14728e-05
-1.37072e-05
2.1685e-05
-1.64915e-05
2.17635e-05
-1.92805e-05
2.18017e-05
-2.20731e-05
2.18304e-05
-2.48693e-05
2.18586e-05
-2.76691e-05
2.18883e-05
-3.04728e-05
2.19199e-05
-3.32805e-05
2.19532e-05
-3.60924e-05
2.1988e-05
-3.89085e-05
2.2024e-05
-4.1729e-05
2.20607e-05
-4.45539e-05
2.20978e-05
-4.73832e-05
2.21349e-05
-5.02167e-05
2.21714e-05
-5.30543e-05
2.22068e-05
-5.58958e-05
2.22407e-05
-5.87409e-05
2.22725e-05
-6.15893e-05
2.23015e-05
-6.44405e-05
2.23271e-05
-6.72939e-05
2.23487e-05
-7.0149e-05
2.23656e-05
-7.3005e-05
2.2377e-05
-7.58611e-05
2.23821e-05
-7.87163e-05
2.23803e-05
-8.15696e-05
2.23708e-05
-8.44197e-05
2.23528e-05
-8.72655e-05
2.23256e-05
-9.01054e-05
2.22885e-05
-9.29378e-05
2.22408e-05
-9.57612e-05
2.2182e-05
-9.85735e-05
2.21116e-05
-0.000101373
2.20292e-05
-0.000104157
2.19349e-05
-0.000106924
2.18286e-05
-0.000109672
2.1711e-05
-0.000112397
2.1583e-05
-0.000115097
2.14459e-05
-0.000117769
2.13021e-05
-0.00012041
2.11547e-05
-0.000123016
2.10078e-05
-0.000125583
2.08674e-05
-0.000128107
2.07409e-05
-0.000130582
2.06385e-05
-0.000132998
2.0573e-05
-0.000135344
2.05613e-05
-0.000137603
2.06243e-05
-0.000139746
2.07875e-05
-0.000141733
2.10811e-05
-0.000143498
2.15371e-05
-0.000144949
2.21845e-05
-0.000145956
2.30385e-05
-0.000146355
2.40826e-05
-0.000145973
2.52432e-05
-0.000144677
2.63689e-05
2.72373e-05
-0.000142436
-9.99292e-07
8.64732e-06
-3.01592e-06
1.76426e-05
-5.4972e-06
2.18086e-05
-8.17083e-06
2.35532e-05
-1.09173e-05
2.42193e-05
-1.36896e-05
2.44574e-05
-1.64716e-05
2.45455e-05
-1.92585e-05
2.45886e-05
-2.20491e-05
2.4621e-05
-2.48434e-05
2.46528e-05
-2.76415e-05
2.46864e-05
-3.04438e-05
2.47222e-05
-3.32504e-05
2.47598e-05
-3.60615e-05
2.47992e-05
-3.88773e-05
2.48398e-05
-4.16978e-05
2.48812e-05
-4.45231e-05
2.49231e-05
-4.73532e-05
2.4965e-05
-5.01881e-05
2.50062e-05
-5.30276e-05
2.50463e-05
-5.58716e-05
2.50847e-05
-5.87198e-05
2.51207e-05
-6.15718e-05
2.51536e-05
-6.44273e-05
2.51827e-05
-6.72858e-05
2.52072e-05
-7.01466e-05
2.52264e-05
-7.30091e-05
2.52394e-05
-7.58724e-05
2.52454e-05
-7.87355e-05
2.52435e-05
-8.15975e-05
2.52328e-05
-8.44571e-05
2.52124e-05
-8.73129e-05
2.51815e-05
-9.01635e-05
2.51391e-05
-9.30072e-05
2.50846e-05
-9.58422e-05
2.5017e-05
-9.86665e-05
2.49359e-05
-0.000101478
2.48407e-05
-0.000104274
2.4731e-05
-0.000107052
2.46069e-05
-0.00010981
2.44686e-05
-0.000112544
2.43167e-05
-0.00011525
2.41523e-05
-0.000117925
2.39774e-05
-0.000120565
2.37944e-05
-0.000123164
2.3607e-05
-0.000125717
2.342e-05
-0.000128216
2.32397e-05
-0.000130652
2.30744e-05
-0.000133013
2.29342e-05
-0.000135283
2.28318e-05
-0.000137441
2.27821e-05
-0.000139456
2.28024e-05
-0.000141285
2.29104e-05
-0.000142871
2.31225e-05
-0.000144134
2.34484e-05
-0.000144979
2.38833e-05
-0.000145293
2.43968e-05
-0.00014497
2.49196e-05
-0.000143937
2.53363e-05
2.54915e-05
-0.000142191
-9.96269e-07
9.64359e-06
-3.00852e-06
1.96548e-05
-5.48559e-06
2.42857e-05
-8.15556e-06
2.62231e-05
-1.08987e-05
2.69624e-05
-1.3668e-05
2.72266e-05
-1.64471e-05
2.73246e-05
-1.92311e-05
2.73726e-05
-2.20191e-05
2.7409e-05
-2.4811e-05
2.74447e-05
-2.7607e-05
2.74825e-05
-3.04074e-05
2.75226e-05
-3.32125e-05
2.75649e-05
-3.60225e-05
2.76091e-05
-3.88375e-05
2.76548e-05
-4.16576e-05
2.77014e-05
-4.44831e-05
2.77486e-05
-4.73139e-05
2.77958e-05
-5.015e-05
2.78423e-05
-5.29914e-05
2.78877e-05
-5.58378e-05
2.79312e-05
-5.86892e-05
2.7972e-05
-6.15451e-05
2.80095e-05
-6.44053e-05
2.80428e-05
-6.72692e-05
2.80711e-05
-7.01363e-05
2.80935e-05
-7.30059e-05
2.8109e-05
-7.58771e-05
2.81166e-05
-7.87491e-05
2.81155e-05
-8.16208e-05
2.81045e-05
-8.44909e-05
2.80826e-05
-8.73582e-05
2.80487e-05
-9.0221e-05
2.8002e-05
-9.30777e-05
2.79412e-05
-9.59263e-05
2.78656e-05
-9.87647e-05
2.77743e-05
-0.00010159
2.76664e-05
-0.000104401
2.75416e-05
-0.000107193
2.73993e-05
-0.000109964
2.72395e-05
-0.00011271
2.70625e-05
-0.000115427
2.6869e-05
-0.00011811
2.66602e-05
-0.000120753
2.64379e-05
-0.000123351
2.6205e-05
-0.000125896
2.5965e-05
-0.000128379
2.57228e-05
-0.000130789
2.54843e-05
-0.000133112
2.52569e-05
-0.000135329
2.50491e-05
-0.000137418
2.48707e-05
-0.000139347
2.47316e-05
-0.000141077
2.46405e-05
-0.000142557
2.46029e-05
-0.000143726
2.46166e-05
-0.000144509
2.46669e-05
-0.000144832
2.47196e-05
-0.000144627
2.47146e-05
-0.000143855
2.45646e-05
2.416e-05
-0.000142524
-9.9302e-07
1.06366e-05
-3.00037e-06
2.16622e-05
-5.47266e-06
2.6758e-05
-8.13836e-06
2.88888e-05
-1.08776e-05
2.97017e-05
-1.36433e-05
2.99923e-05
-1.64189e-05
3.01003e-05
-1.91998e-05
3.01535e-05
-2.19847e-05
3.01939e-05
-2.47738e-05
3.02338e-05
-2.75673e-05
3.0276e-05
-3.03656e-05
3.03208e-05
-3.31688e-05
3.03682e-05
-3.59773e-05
3.04176e-05
-3.87914e-05
3.04688e-05
-4.16111e-05
3.05211e-05
-4.44366e-05
3.05741e-05
-4.7268e-05
3.06272e-05
-5.01054e-05
3.06797e-05
-5.29487e-05
3.0731e-05
-5.57978e-05
3.07803e-05
-5.86526e-05
3.08268e-05
-6.15127e-05
3.08697e-05
-6.4378e-05
3.09081e-05
-6.72478e-05
3.0941e-05
-7.01218e-05
3.09674e-05
-7.29992e-05
3.09864e-05
-7.58793e-05
3.09967e-05
-7.87612e-05
3.09974e-05
-8.16438e-05
3.09871e-05
-8.45259e-05
3.09647e-05
-8.74061e-05
3.0929e-05
-9.02828e-05
3.08787e-05
-9.31544e-05
3.08127e-05
-9.60186e-05
3.07299e-05
-9.88734e-05
3.0629e-05
-0.000101716
3.05091e-05
-0.000104544
3.03694e-05
-0.000107354
3.0209e-05
-0.000110142
3.00275e-05
-0.000112904
2.98247e-05
-0.000115635
2.96006e-05
-0.000118331
2.9356e-05
-0.000120985
2.90917e-05
-0.00012359
2.88096e-05
-0.000126136
2.85118e-05
-0.000128615
2.82016e-05
-0.000131014
2.78827e-05
-0.000133316
2.75597e-05
-0.000135505
2.72375e-05
-0.000137555
2.69212e-05
-0.000139439
2.66152e-05
-0.00014112
2.63216e-05
-0.000142556
2.60385e-05
-0.000143696
2.57574e-05
-0.000144489
2.5459e-05
-0.000144879
2.51102e-05
-0.000144825
2.46609e-05
-0.000144305
2.40445e-05
2.31833e-05
-0.000143329
-9.89479e-07
1.16261e-05
-2.99141e-06
2.36641e-05
-5.45837e-06
2.92249e-05
-8.11927e-06
3.15497e-05
-1.08542e-05
3.24366e-05
-1.36157e-05
3.27538e-05
-1.63875e-05
3.2872e-05
-1.91646e-05
3.29306e-05
-2.19461e-05
3.29755e-05
-2.47321e-05
3.30197e-05
-2.75227e-05
3.30666e-05
-3.03185e-05
3.31166e-05
-3.31196e-05
3.31693e-05
-3.59265e-05
3.32245e-05
-3.87393e-05
3.32816e-05
-4.15584e-05
3.33402e-05
-4.43839e-05
3.33996e-05
-4.72159e-05
3.34592e-05
-5.00546e-05
3.35184e-05
-5.28999e-05
3.35763e-05
-5.57518e-05
3.36322e-05
-5.86102e-05
3.36852e-05
-6.14749e-05
3.37344e-05
-6.43456e-05
3.37788e-05
-6.7222e-05
3.38173e-05
-7.01035e-05
3.38489e-05
-7.29895e-05
3.38724e-05
-7.58794e-05
3.38866e-05
-7.87722e-05
3.38902e-05
-8.16669e-05
3.38818e-05
-8.45623e-05
3.38601e-05
-8.7457e-05
3.38237e-05
-9.03495e-05
3.37712e-05
-9.32379e-05
3.37011e-05
-9.61201e-05
3.36121e-05
-9.89938e-05
3.35027e-05
-0.000101856
3.33717e-05
-0.000104705
3.32177e-05
-0.000107535
3.30397e-05
-0.000110344
3.28366e-05
-0.000113128
3.26078e-05
-0.00011588
3.23527e-05
-0.000118595
3.20711e-05
-0.000121266
3.17632e-05
-0.000123886
3.14294e-05
-0.000126445
3.10709e-05
-0.000128932
3.06889e-05
-0.000131335
3.02852e-05
-0.000133637
2.98619e-05
-0.00013582
2.94206e-05
-0.000137862
2.89629e-05
-0.000139735
2.84887e-05
-0.00014141
2.79956e-05
-0.000142848
2.74774e-05
-0.000144013
2.69217e-05
-0.000144862
2.63084e-05
-0.000145359
2.56071e-05
-0.000145475
2.47767e-05
-0.000145197
2.37663e-05
2.25196e-05
-0.000144533
-9.85601e-07
1.26117e-05
-2.98156e-06
2.56601e-05
-5.44265e-06
3.1686e-05
-8.0982e-06
3.42053e-05
-1.08282e-05
3.51666e-05
-1.35851e-05
3.55108e-05
-1.63525e-05
3.56395e-05
-1.91256e-05
3.57036e-05
-2.19032e-05
3.57531e-05
-2.46856e-05
3.58021e-05
-2.7473e-05
3.58541e-05
-3.02659e-05
3.59095e-05
-3.30647e-05
3.59681e-05
-3.58696e-05
3.60294e-05
-3.86811e-05
3.60931e-05
-4.14993e-05
3.61585e-05
-4.43246e-05
3.62249e-05
-4.71571e-05
3.62918e-05
-4.9997e-05
3.63583e-05
-5.28444e-05
3.64236e-05
-5.56992e-05
3.6487e-05
-5.85614e-05
3.65474e-05
-6.1431e-05
3.66039e-05
-6.43076e-05
3.66554e-05
-6.71909e-05
3.67007e-05
-7.00805e-05
3.67386e-05
-7.29759e-05
3.67679e-05
-7.58764e-05
3.67871e-05
-7.87812e-05
3.67949e-05
-8.16892e-05
3.67898e-05
-8.45993e-05
3.67702e-05
-8.75102e-05
3.67345e-05
-9.04202e-05
3.66812e-05
-9.33275e-05
3.66085e-05
-9.62301e-05
3.65146e-05
-9.91254e-05
3.63981e-05
-0.000102011
3.62571e-05
-0.000104883
3.609e-05
-0.000107739
3.58953e-05
-0.000110574
3.56714e-05
-0.000113383
3.54171e-05
-0.000116161
3.51311e-05
-0.000118902
3.48124e-05
-0.0001216
3.44602e-05
-0.000124244
3.4074e-05
-0.000126826
3.36533e-05
-0.000129335
3.31979e-05
-0.000131758
3.27077e-05
-0.000134078
3.21823e-05
-0.000136279
3.16211e-05
-0.000138338
3.10224e-05
-0.000140233
3.03832e-05
-0.000141935
2.96979e-05
-0.000143415
2.89574e-05
-0.000144641
2.8148e-05
-0.000145583
2.72499e-05
-0.000146212
2.62363e-05
-0.000146509
2.50734e-05
-0.000146464
2.37219e-05
2.21401e-05
-0.000146085
-9.81355e-07
1.3593e-05
-2.97077e-06
2.76495e-05
-5.42537e-06
3.41406e-05
-8.07502e-06
3.6855e-05
-1.07996e-05
3.78911e-05
-1.35514e-05
3.82626e-05
-1.63139e-05
3.8402e-05
-1.90824e-05
3.84721e-05
-2.18557e-05
3.85264e-05
-2.46341e-05
3.85805e-05
-2.74179e-05
3.86379e-05
-3.02075e-05
3.86991e-05
-3.30035e-05
3.8764e-05
-3.58062e-05
3.88321e-05
-3.8616e-05
3.89029e-05
-4.14332e-05
3.89757e-05
-4.42581e-05
3.90498e-05
-4.7091e-05
3.91246e-05
-4.9932e-05
3.91993e-05
-5.27814e-05
3.9273e-05
-5.56392e-05
3.93448e-05
-5.85055e-05
3.94137e-05
-6.138e-05
3.94785e-05
-6.42628e-05
3.95382e-05
-6.71535e-05
3.95914e-05
-7.00519e-05
3.96369e-05
-7.29573e-05
3.96733e-05
-7.58693e-05
3.96991e-05
-7.8787e-05
3.97126e-05
-8.17095e-05
3.97123e-05
-8.46357e-05
3.96964e-05
-8.75643e-05
3.96631e-05
-9.04937e-05
3.96106e-05
-9.34221e-05
3.95369e-05
-9.63474e-05
3.944e-05
-9.92672e-05
3.93179e-05
-0.000102179
3.91685e-05
-0.000105079
3.89899e-05
-0.000107963
3.87799e-05
-0.000110828
3.85366e-05
-0.000113669
3.8258e-05
-0.00011648
3.79421e-05
-0.000119255
3.75871e-05
-0.000121986
3.71913e-05
-0.000124665
3.67529e-05
-0.000127282
3.62704e-05
-0.000129826
3.57419e-05
-0.000132284
3.51655e-05
-0.000134641
3.45392e-05
-0.00013688
3.38599e-05
-0.000138981
3.31238e-05
-0.000140923
3.23255e-05
-0.000142683
3.14575e-05
-0.000144235
3.0509e-05
-0.000145552
2.94659e-05
-0.000146612
2.83096e-05
-0.000147392
2.70164e-05
-0.000147878
2.55588e-05
-0.000148061
2.39057e-05
2.20255e-05
-0.000147947
-9.76713e-07
1.45698e-05
-2.95895e-06
2.96317e-05
-5.40645e-06
3.65881e-05
-8.0496e-06
3.94981e-05
-1.07681e-05
4.06097e-05
-1.35143e-05
4.10087e-05
-1.62714e-05
4.11591e-05
-1.90347e-05
4.12354e-05
-2.18032e-05
4.12949e-05
-2.45771e-05
4.13544e-05
-2.73568e-05
4.14176e-05
-3.01428e-05
4.14851e-05
-3.29357e-05
4.15569e-05
-3.57357e-05
4.16322e-05
-3.85435e-05
4.17106e-05
-4.13593e-05
4.17915e-05
-4.41836e-05
4.18741e-05
-4.70167e-05
4.19577e-05
-4.98588e-05
4.20414e-05
-5.27101e-05
4.21244e-05
-5.55709e-05
4.22056e-05
-5.84411e-05
4.22839e-05
-6.13209e-05
4.23583e-05
-6.42101e-05
4.24274e-05
-6.71087e-05
4.24899e-05
-7.00162e-05
4.25444e-05
-7.29323e-05
4.25894e-05
-7.58565e-05
4.26232e-05
-7.87881e-05
4.26442e-05
-8.17262e-05
4.26504e-05
-8.46698e-05
4.264e-05
-8.76177e-05
4.2611e-05
-9.05683e-05
4.25612e-05
-9.35199e-05
4.24884e-05
-9.64704e-05
4.23905e-05
-9.94174e-05
4.22649e-05
-0.000102358
4.21093e-05
-0.000105289
4.19211e-05
-0.000108207
4.16979e-05
-0.000111108
4.14371e-05
-0.000113986
4.11361e-05
-0.000116836
4.07921e-05
-0.000119652
4.04027e-05
-0.000122425
3.99649e-05
-0.000125149
3.94762e-05
-0.000127812
3.89335e-05
-0.000130404
3.83339e-05
-0.000132912
3.76738e-05
-0.000135322
3.69495e-05
-0.000137619
3.61563e-05
-0.000139783
3.52885e-05
-0.000141797
3.43391e-05
-0.000143639
3.32991e-05
-0.000145287
3.21572e-05
-0.00014672
3.0899e-05
-0.000147918
2.95075e-05
-0.000148863
2.79619e-05
-0.000149544
2.62392e-05
-0.000149953
2.43146e-05
2.21637e-05
-0.000150091
-9.71653e-07
1.55414e-05
-2.94606e-06
3.16061e-05
-5.38578e-06
3.90278e-05
-8.02179e-06
4.21341e-05
-1.07337e-05
4.33216e-05
-1.34736e-05
4.37486e-05
-1.62248e-05
4.39103e-05
-1.89824e-05
4.3993e-05
-2.17455e-05
4.40581e-05
-2.45144e-05
4.41232e-05
-2.72895e-05
4.41927e-05
-3.00714e-05
4.4267e-05
-3.28606e-05
4.4346e-05
-3.56576e-05
4.44292e-05
-3.84629e-05
4.4516e-05
-4.12771e-05
4.46056e-05
-4.41004e-05
4.46975e-05
-4.69333e-05
4.47906e-05
-4.97762e-05
4.48843e-05
-5.26294e-05
4.49775e-05
-5.5493e-05
4.50692e-05
-5.83673e-05
4.51582e-05
-6.12524e-05
4.52433e-05
-6.41482e-05
4.53232e-05
-6.70548e-05
4.53965e-05
-6.99719e-05
4.54615e-05
-7.28992e-05
4.55167e-05
-7.58364e-05
4.55604e-05
-7.87827e-05
4.55905e-05
-8.17375e-05
4.56052e-05
-8.46998e-05
4.56023e-05
-8.76685e-05
4.55796e-05
-9.06421e-05
4.55348e-05
-9.36189e-05
4.54653e-05
-9.65971e-05
4.53686e-05
-9.95742e-05
4.5242e-05
-0.000102547
4.50825e-05
-0.000105514
4.48874e-05
-0.000108469
4.46536e-05
-0.00011141
4.43779e-05
-0.000114331
4.40571e-05
-0.000117227
4.36878e-05
-0.000120091
4.32665e-05
-0.000122915
4.27897e-05
-0.000125693
4.22535e-05
-0.000128413
4.16539e-05
-0.000131066
4.09866e-05
-0.000133639
4.02468e-05
-0.000136119
3.94293e-05
-0.00013849
3.8528e-05
-0.000140737
3.75358e-05
-0.000142843
3.64444e-05
-0.000144788
3.5244e-05
-0.000146553
3.39228e-05
-0.000148121
3.24668e-05
-0.000149474
3.08602e-05
-0.000150597
2.90847e-05
-0.000151478
2.71209e-05
-0.000152112
2.49484e-05
2.25478e-05
-0.000152496
-9.66152e-07
1.65076e-05
-2.93203e-06
3.3572e-05
-5.36326e-06
4.14591e-05
-7.99144e-06
4.47623e-05
-1.06961e-05
4.60262e-05
-1.34291e-05
4.64816e-05
-1.61737e-05
4.66549e-05
-1.8925e-05
4.67443e-05
-2.16822e-05
4.68153e-05
-2.44455e-05
4.68865e-05
-2.72154e-05
4.69626e-05
-2.99926e-05
4.70442e-05
-3.27777e-05
4.71311e-05
-3.55711e-05
4.72227e-05
-3.83736e-05
4.73184e-05
-4.11856e-05
4.74176e-05
-4.40076e-05
4.75195e-05
-4.68401e-05
4.76231e-05
-4.96835e-05
4.77277e-05
-5.25382e-05
4.78322e-05
-5.54046e-05
4.79355e-05
-5.82828e-05
4.80365e-05
-6.11731e-05
4.81337e-05
-6.40757e-05
4.82258e-05
-6.69905e-05
4.83113e-05
-6.99175e-05
4.83885e-05
-7.28564e-05
4.84557e-05
-7.58071e-05
4.8511e-05
-7.87689e-05
4.85524e-05
-8.17414e-05
4.85776e-05
-8.47235e-05
4.85845e-05
-8.77144e-05
4.85705e-05
-9.07127e-05
4.85331e-05
-9.37169e-05
4.84695e-05
-9.6725e-05
4.83767e-05
-9.97349e-05
4.82518e-05
-0.000102744
4.80916e-05
-0.000105749
4.78925e-05
-0.000108747
4.76512e-05
-0.000111733
4.73639e-05
-0.000114702
4.70266e-05
-0.00011765
4.66355e-05
-0.000120569
4.61861e-05
-0.000123454
4.56739e-05
-0.000126294
4.50943e-05
-0.000129083
4.44422e-05
-0.000131808
4.3712e-05
-0.000134459
4.28979e-05
-0.000137023
4.19934e-05
-0.000139487
4.09911e-05
-0.000141834
3.9883e-05
-0.000144049
3.86596e-05
-0.000146116
3.73106e-05
-0.000148017
3.58239e-05
-0.000149736
3.4186e-05
-0.000151258
3.23821e-05
-0.000152569
3.03958e-05
-0.000153659
2.82104e-05
-0.000154519
2.58088e-05
2.31753e-05
-0.000155146
-9.60188e-07
1.74678e-05
-2.9168e-06
3.55286e-05
-5.33878e-06
4.3881e-05
-7.95842e-06
4.73819e-05
-1.06551e-05
4.87229e-05
-1.33805e-05
4.92071e-05
-1.61179e-05
4.93923e-05
-1.88623e-05
4.94887e-05
-2.16128e-05
4.95658e-05
-2.43699e-05
4.96436e-05
-2.71341e-05
4.97268e-05
-2.9906e-05
4.98161e-05
-3.26863e-05
4.99114e-05
-3.54757e-05
5.00121e-05
-3.82748e-05
5.01175e-05
-4.10841e-05
5.0227e-05
-4.39043e-05
5.03397e-05
-4.67359e-05
5.04548e-05
-4.95795e-05
5.05713e-05
-5.24354e-05
5.06882e-05
-5.53042e-05
5.08043e-05
-5.81862e-05
5.09184e-05
-6.10817e-05
5.10292e-05
-6.39909e-05
5.1135e-05
-6.6914e-05
5.12344e-05
-6.98511e-05
5.13256e-05
-7.2802e-05
5.14067e-05
-7.57667e-05
5.14757e-05
-7.87447e-05
5.15304e-05
-8.17356e-05
5.15685e-05
-8.47387e-05
5.15876e-05
-8.77531e-05
5.15849e-05
-9.07777e-05
5.15577e-05
-9.3811e-05
5.15028e-05
-9.68514e-05
5.14171e-05
-9.98967e-05
5.12972e-05
-0.000102945
5.11394e-05
-0.000105992
5.094e-05
-0.000109036
5.06949e-05
-0.000112072
5.03998e-05
-0.000115095
5.00503e-05
-0.000118101
4.96415e-05
-0.000121084
4.91685e-05
-0.000124036
4.86258e-05
-0.000126949
4.80079e-05
-0.000129816
4.73087e-05
-0.000132626
4.65217e-05
-0.000135368
4.56399e-05
-0.00013803
4.46557e-05
-0.000140599
4.35607e-05
-0.000143062
4.23459e-05
-0.000145404
4.10012e-05
-0.000147609
3.95155e-05
-0.000149662
3.78767e-05
-0.000151547
3.60717e-05
-0.000153252
3.40863e-05
-0.000154762
3.19058e-05
-0.000156066
2.95153e-05
-0.000157158
2.69001e-05
2.40468e-05
-0.000158029
-9.5374e-07
1.84215e-05
-2.90031e-06
3.74752e-05
-5.31224e-06
4.6293e-05
-7.92258e-06
4.99923e-05
-1.06106e-05
5.14109e-05
-1.33277e-05
5.19242e-05
-1.60571e-05
5.21216e-05
-1.87938e-05
5.22255e-05
-2.15371e-05
5.23091e-05
-2.42873e-05
5.23938e-05
-2.7045e-05
5.24845e-05
-2.9811e-05
5.25821e-05
-3.25859e-05
5.26864e-05
-3.53706e-05
5.27967e-05
-3.81656e-05
5.29125e-05
-4.09718e-05
5.30331e-05
-4.37896e-05
5.31575e-05
-4.66199e-05
5.3285e-05
-4.94631e-05
5.34145e-05
-5.23199e-05
5.3545e-05
-5.51907e-05
5.36752e-05
-5.80761e-05
5.38039e-05
-6.09766e-05
5.39296e-05
-6.38923e-05
5.40508e-05
-6.68237e-05
5.41658e-05
-6.97709e-05
5.42728e-05
-7.2734e-05
5.43698e-05
-7.5713e-05
5.44546e-05
-7.87077e-05
5.45251e-05
-8.17177e-05
5.45786e-05
-8.47427e-05
5.46125e-05
-8.77817e-05
5.4624e-05
-9.0834e-05
5.46099e-05
-9.38982e-05
5.4567e-05
-9.69729e-05
5.44918e-05
-0.000100056
5.43805e-05
-0.000103146
5.42291e-05
-0.000106239
5.40333e-05
-0.000109333
5.37887e-05
-0.000112423
5.34904e-05
-0.000115506
5.31333e-05
-0.000118577
5.27119e-05