/*--------------------------------*- C++ -*----------------------------------*\
  =========                 |
  \\      /  F ield         | OpenFOAM: The Open Source CFD Toolbox
   \\    /   O peration     | Website:  https://openfoam.org
    \\  /    A nd           | Version:  8
     \\/     M anipulation  |
\*---------------------------------------------------------------------------*/
FoamFile
{
    version     2.0;
    format      ascii;
    class       volVectorField;
    location    "1.82";
    object      U;
}
// * * * * * * * * * * * * * * * * * * * * * * * * * * * * * * * * * * * * * //

dimensions      [0 1 -1 0 0 0 0];

internalField   nonuniform List<vector> 
400
(
(0.0249935 1.13953e-17 0)
(0.0249935 1.78751e-18 0)
(0.0249935 9.546e-18 0)
(0.0249935 4.17193e-18 0)
(0.0249935 -2.55466e-19 0)
(0.0249935 -2.90867e-18 0)
(0.0249935 -1.57253e-19 0)
(0.0249935 -2.69074e-18 0)
(0.0249935 -1.2513e-18 0)
(0.0249935 -1.0604e-18 0)
(0.0249935 3.82125e-19 0)
(0.0249935 1.07768e-18 0)
(0.0249935 8.52083e-19 0)
(0.0249935 -2.17314e-18 0)
(0.0249935 -5.02327e-18 0)
(0.0249935 -2.18346e-18 0)
(0.0249935 2.53756e-18 0)
(0.0249935 6.06527e-18 0)
(0.0249935 9.63558e-18 0)
(0.0249935 5.07069e-18 0)
(0.0749808 6.40341e-17 0)
(0.0749808 2.5733e-17 0)
(0.0749808 1.75985e-17 0)
(0.0749808 1.49425e-18 0)
(0.0749808 -1.50681e-17 0)
(0.0749808 -2.07409e-17 0)
(0.0749808 -7.93461e-18 0)
(0.0749808 -5.87818e-18 0)
(0.0749808 -6.66925e-18 0)
(0.0749808 -2.34721e-18 0)
(0.0749808 -5.44151e-19 0)
(0.0749808 -9.9347e-19 0)
(0.0749808 -1.78283e-18 0)
(0.0749808 3.33651e-19 0)
(0.0749808 -9.35516e-18 0)
(0.0749808 -1.68709e-18 0)
(0.0749808 1.16711e-17 0)
(0.0749808 1.60208e-17 0)
(0.0749808 3.06976e-17 0)
(0.0749808 2.52481e-17 0)
(0.124969 5.39948e-17 0)
(0.124969 4.94158e-17 0)
(0.124969 2.20853e-17 0)
(0.124969 -8.59121e-18 0)
(0.124969 -3.7049e-17 0)
(0.124969 -4.28731e-17 0)
(0.124969 -3.1319e-17 0)
(0.124969 -2.50193e-17 0)
(0.124969 -1.84597e-17 0)
(0.124969 -7.81339e-18 0)
(0.124969 4.63459e-18 0)
(0.124969 2.8902e-19 0)
(0.124969 -8.87914e-18 0)
(0.124969 -8.911e-18 0)
(0.124969 1.2765e-18 0)
(0.124969 8.08562e-19 0)
(0.124969 2.90468e-17 0)
(0.124969 3.78451e-17 0)
(0.124969 4.72089e-17 0)
(0.124969 5.59859e-17 0)
(0.174957 6.86274e-17 0)
(0.174957 4.84746e-17 0)
(0.174957 1.93165e-17 0)
(0.174957 -1.42367e-17 0)
(0.174957 -4.87943e-17 0)
(0.174957 -5.09478e-17 0)
(0.174957 -4.58704e-17 0)
(0.174957 -3.84875e-17 0)
(0.174957 -2.70052e-17 0)
(0.174957 -1.44307e-17 0)
(0.174957 -8.77067e-18 0)
(0.174957 -1.6144e-17 0)
(0.174957 -2.24299e-17 0)
(0.174957 -2.22262e-17 0)
(0.174957 -7.70074e-18 0)
(0.174957 9.98135e-18 0)
(0.174957 5.16248e-17 0)
(0.174957 7.49774e-17 0)
(0.174957 8.55251e-17 0)
(0.174957 9.56661e-17 0)
(0.224947 6.63376e-17 0)
(0.224947 2.67883e-17 0)
(0.224947 9.11681e-19 0)
(0.224947 -3.53789e-17 0)
(0.224947 -6.40152e-17 0)
(0.224947 -5.43284e-17 0)
(0.224947 -4.08577e-17 0)
(0.224947 -3.14036e-17 0)
(0.224947 -3.01379e-17 0)
(0.224947 -2.81137e-17 0)
(0.224947 -2.04388e-17 0)
(0.224947 -4.49355e-17 0)
(0.224947 -3.5502e-17 0)
(0.224947 -1.51641e-17 0)
(0.224947 3.05564e-18 0)
(0.224947 4.16141e-17 0)
(0.224947 7.10038e-17 0)
(0.224947 9.86598e-17 0)
(0.224947 1.2077e-16 0)
(0.224947 1.17236e-16 0)
(0.274938 6.00396e-17 0)
(0.274938 3.27466e-17 0)
(0.274938 -1.32737e-17 0)
(0.274938 -6.13141e-17 0)
(0.274938 -8.76413e-17 0)
(0.274938 -6.94907e-17 0)
(0.274938 -4.66532e-17 0)
(0.274938 -3.39982e-17 0)
(0.274938 -2.10192e-17 0)
(0.274938 -3.81945e-17 0)
(0.274938 -2.67218e-17 0)
(0.274938 -3.3802e-17 0)
(0.274938 -2.49687e-17 0)
(0.274938 -3.6563e-18 0)
(0.274938 5.36492e-17 0)
(0.274938 8.31792e-17 0)
(0.274938 1.10915e-16 0)
(0.274938 1.13932e-16 0)
(0.274938 1.14371e-16 0)
(0.274938 9.28594e-17 0)
(0.32493 4.01228e-17 0)
(0.32493 1.81178e-17 0)
(0.32493 -2.93491e-17 0)
(0.32493 -1.10885e-16 0)
(0.32493 -9.71534e-17 0)
(0.32493 -9.5661e-17 0)
(0.32493 -7.10885e-17 0)
(0.32493 -5.16639e-17 0)
(0.32493 -4.2003e-17 0)
(0.32493 -2.94196e-17 0)
(0.32493 -3.13884e-17 0)
(0.32493 -9.41246e-18 0)
(0.32493 -7.55204e-18 0)
(0.32493 4.53548e-17 0)
(0.32493 9.11996e-17 0)
(0.32493 1.42619e-16 0)
(0.32493 1.57619e-16 0)
(0.32493 1.41364e-16 0)
(0.32493 9.16269e-17 0)
(0.32493 4.79642e-17 0)
(0.374924 -1.10515e-17 0)
(0.374924 -4.55873e-17 0)
(0.374924 -9.92222e-17 0)
(0.374924 -1.34826e-16 0)
(0.374924 -1.18185e-16 0)
(0.374924 -1.14308e-16 0)
(0.374924 -8.42198e-17 0)
(0.374924 -6.22629e-17 0)
(0.374924 -4.71646e-17 0)
(0.374924 -2.8868e-17 0)
(0.374924 -1.91365e-17 0)
(0.374924 -5.32834e-18 0)
(0.374924 4.80158e-17 0)
(0.374924 1.17536e-16 0)
(0.374924 1.59214e-16 0)
(0.374924 1.91853e-16 0)
(0.374924 1.63581e-16 0)
(0.374924 1.516e-16 0)
(0.374924 8.1824e-17 0)
(0.374924 1.89601e-17 0)
(0.42492 -2.87166e-17 0)
(0.42492 -8.47436e-17 0)
(0.42492 -1.60577e-16 0)
(0.42492 -1.66456e-16 0)
(0.42492 -1.69428e-16 0)
(0.42492 -1.261e-16 0)
(0.42492 -1.10574e-16 0)
(0.42492 -5.56741e-17 0)
(0.42492 -1.55802e-17 0)
(0.42492 -1.05163e-19 0)
(0.42492 5.07363e-18 0)
(0.42492 2.46986e-17 0)
(0.42492 7.75852e-17 0)
(0.42492 1.21493e-16 0)
(0.42492 1.90021e-16 0)
(0.42492 1.84949e-16 0)
(0.42492 1.44818e-16 0)
(0.42492 1.2774e-16 0)
(0.42492 1.02989e-16 0)
(0.42492 5.42387e-17 0)
(0.474918 -1.82091e-18 0)
(0.474918 -6.21796e-17 0)
(0.474918 -1.34067e-16 0)
(0.474918 -1.87733e-16 0)
(0.474918 -2.15972e-16 0)
(0.474918 -1.69772e-16 0)
(0.474918 -1.5048e-16 0)
(0.474918 -7.29833e-17 0)
(0.474918 2.58107e-18 0)
(0.474918 5.09672e-17 0)
(0.474918 4.46933e-17 0)
(0.474918 6.55768e-17 0)
(0.474918 5.25087e-17 0)
(0.474918 9.72397e-17 0)
(0.474918 1.65709e-16 0)
(0.474918 1.922e-16 0)
(0.474918 1.53004e-16 0)
(0.474918 1.11876e-16 0)
(0.474918 1.01226e-16 0)
(0.474918 7.03777e-17 0)
(0.524918 5.506e-18 0)
(0.524918 -4.73571e-17 0)
(0.524918 -7.60982e-17 0)
(0.524918 -1.45941e-16 0)
(0.524918 -1.90269e-16 0)
(0.524918 -1.98265e-16 0)
(0.524918 -1.53853e-16 0)
(0.524918 -7.95095e-17 0)
(0.524918 -1.77907e-17 0)
(0.524918 3.94142e-17 0)
(0.524918 4.26659e-17 0)
(0.524918 7.16479e-17 0)
(0.524918 8.24062e-17 0)
(0.524918 1.05034e-16 0)
(0.524918 1.49766e-16 0)
(0.524918 1.63809e-16 0)
(0.524918 1.66615e-16 0)
(0.524918 1.06023e-16 0)
(0.524918 7.84273e-17 0)
(0.524918 6.01415e-17 0)
(0.57492 -2.11759e-18 0)
(0.57492 -7.17552e-17 0)
(0.57492 -9.17933e-17 0)
(0.57492 -1.14543e-16 0)
(0.57492 -1.27276e-16 0)
(0.57492 -1.43102e-16 0)
(0.57492 -1.10856e-16 0)
(0.57492 -6.60231e-17 0)
(0.57492 -3.48895e-17 0)
(0.57492 -4.47898e-17 0)
(0.57492 -1.22797e-17 0)
(0.57492 9.75725e-17 0)
(0.57492 1.74935e-16 0)
(0.57492 1.37715e-16 0)
(0.57492 1.54388e-16 0)
(0.57492 1.06609e-16 0)
(0.57492 1.0764e-16 0)
(0.57492 9.35303e-17 0)
(0.57492 7.22054e-17 0)
(0.57492 4.75282e-17 0)
(0.624924 -5.17901e-17 0)
(0.624924 -7.11416e-17 0)
(0.624924 -1.13132e-16 0)
(0.624924 -1.28849e-16 0)
(0.624924 -1.11736e-16 0)
(0.624924 -1.26899e-16 0)
(0.624924 -1.09419e-16 0)
(0.624924 -7.29529e-17 0)
(0.624924 -2.6679e-17 0)
(0.624924 -5.25562e-17 0)
(0.624924 2.26566e-17 0)
(0.624924 1.51364e-16 0)
(0.624924 2.44614e-16 0)
(0.624924 2.2509e-16 0)
(0.624924 1.74873e-16 0)
(0.624924 1.1864e-16 0)
(0.624924 5.30914e-17 0)
(0.624924 3.36304e-17 0)
(0.624924 1.27261e-17 0)
(0.624924 -5.20218e-17 0)
(0.67493 -1.36155e-16 0)
(0.67493 -1.0179e-16 0)
(0.67493 -1.33506e-16 0)
(0.67493 -1.26998e-16 0)
(0.67493 -1.21962e-16 0)
(0.67493 -1.06168e-16 0)
(0.67493 -1.19384e-16 0)
(0.67493 -1.03018e-16 0)
(0.67493 -7.10541e-17 0)
(0.67493 7.79585e-18 0)
(0.67493 1.16002e-16 0)
(0.67493 1.74343e-16 0)
(0.67493 2.24601e-16 0)
(0.67493 2.68181e-16 0)
(0.67493 1.98209e-16 0)
(0.67493 1.61809e-16 0)
(0.67493 6.46653e-17 0)
(0.67493 -2.79311e-17 0)
(0.67493 -1.93737e-17 0)
(0.67493 -1.39388e-16 0)
(0.724938 -1.2555e-16 0)
(0.724938 -1.18476e-16 0)
(0.724938 -1.20059e-16 0)
(0.724938 -1.02622e-16 0)
(0.724938 -8.12679e-17 0)
(0.724938 -7.75171e-17 0)
(0.724938 -1.20861e-16 0)
(0.724938 -1.46471e-16 0)
(0.724938 -8.37557e-17 0)
(0.724938 -1.41668e-17 0)
(0.724938 1.16766e-16 0)
(0.724938 1.78066e-16 0)
(0.724938 2.19688e-16 0)
(0.724938 2.33176e-16 0)
(0.724938 1.98055e-16 0)
(0.724938 1.67384e-16 0)
(0.724938 2.43678e-17 0)
(0.724938 1.31983e-17 0)
(0.724938 -6.05734e-17 0)
(0.724938 -9.04823e-17 0)
(0.774947 -9.00004e-17 0)
(0.774947 -7.07161e-17 0)
(0.774947 -3.48968e-17 0)
(0.774947 -1.87344e-17 0)
(0.774947 -1.5645e-17 0)
(0.774947 -1.25893e-16 0)
(0.774947 -1.2627e-16 0)
(0.774947 -1.30493e-16 0)
(0.774947 -7.97809e-17 0)
(0.774947 -2.55821e-17 0)
(0.774947 5.52726e-17 0)
(0.774947 1.56526e-16 0)
(0.774947 1.97842e-16 0)
(0.774947 2.21159e-16 0)
(0.774947 1.69087e-16 0)
(0.774947 8.10849e-17 0)
(0.774947 6.59525e-17 0)
(0.774947 5.5353e-18 0)
(0.774947 -9.51061e-17 0)
(0.774947 -7.66932e-17 0)
(0.824957 -4.63737e-17 0)
(0.824957 -4.02403e-17 0)
(0.824957 5.28409e-17 0)
(0.824957 4.50441e-17 0)
(0.824957 3.60281e-17 0)
(0.824957 -4.46086e-17 0)
(0.824957 -1.12252e-16 0)
(0.824957 -7.08108e-17 0)
(0.824957 -7.636e-17 0)
(0.824957 -3.88079e-17 0)
(0.824957 -6.52184e-18 0)
(0.824957 6.04848e-17 0)
(0.824957 1.60757e-16 0)
(0.824957 1.87072e-16 0)
(0.824957 1.37842e-16 0)
(0.824957 1.3158e-17 0)
(0.824957 6.48408e-17 0)
(0.824957 -3.04204e-17 0)
(0.824957 -5.84426e-17 0)
(0.824957 -6.79354e-17 0)
(0.874969 5.01663e-17 0)
(0.874969 5.48165e-17 0)
(0.874969 1.18265e-16 0)
(0.874969 1.05619e-16 0)
(0.874969 1.13707e-17 0)
(0.874969 -1.21634e-17 0)
(0.874969 -9.80241e-17 0)
(0.874969 -1.23198e-16 0)
(0.874969 -2.71024e-17 0)
(0.874969 2.67563e-17 0)
(0.874969 -3.79691e-17 0)
(0.874969 2.78325e-17 0)
(0.874969 1.19704e-16 0)
(0.874969 1.54741e-16 0)
(0.874969 5.74646e-17 0)
(0.874969 1.97965e-17 0)
(0.874969 -5.00673e-17 0)
(0.874969 -3.23192e-17 0)
(0.874969 -1.41252e-17 0)
(0.874969 2.78002e-18 0)
(0.924981 1.21673e-16 0)
(0.924981 2.94786e-17 0)
(0.924981 1.20689e-16 0)
(0.924981 1.9781e-16 0)
(0.924981 2.21319e-17 0)
(0.924981 -9.93878e-17 0)
(0.924981 -1.16043e-16 0)
(0.924981 -1.18644e-16 0)
(0.924981 -2.61452e-17 0)
(0.924981 6.97542e-17 0)
(0.924981 2.45419e-17 0)
(0.924981 -2.5544e-17 0)
(0.924981 3.59379e-17 0)
(0.924981 1.06131e-16 0)
(0.924981 4.62962e-17 0)
(0.924981 8.62979e-18 0)
(0.924981 -7.18266e-17 0)
(0.924981 -5.73685e-17 0)
(0.924981 -2.57476e-17 0)
(0.924981 6.38196e-17 0)
(0.974994 6.71295e-17 0)
(0.974994 -3.20107e-17 0)
(0.974994 5.51238e-17 0)
(0.974994 1.00974e-16 0)
(0.974994 4.19209e-17 0)
(0.974994 -4.17311e-17 0)
(0.974994 -7.15444e-17 0)
(0.974994 -4.11722e-17 0)
(0.974994 -2.64432e-17 0)
(0.974994 1.15815e-18 0)
(0.974994 2.53699e-17 0)
(0.974994 -4.96532e-17 0)
(0.974994 -6.55152e-18 0)
(0.974994 2.74029e-17 0)
(0.974994 3.65775e-17 0)
(0.974994 -6.89178e-19 0)
(0.974994 -3.72893e-17 0)
(0.974994 -2.88095e-17 0)
(0.974994 -3.11901e-17 0)
(0.974994 4.53983e-17 0)
)
;

boundaryField
{
    movingWall
    {
        type            fixedValue;
        value           uniform (1 0 0);
    }
    fixedWalls
    {
        type            noSlip;
    }
    left
    {
        type            cyclic;
    }
    right
    {
        type            cyclic;
    }
    frontAndBack
    {
        type            empty;
    }
}


// ************************************************************************* //
