# Probe 0 (-1 0 -0.001)
# Probe 1 (-0.75 0 -0.001)
# Probe 2 (-0.5 0 -0.001)
# Probe 3 (0.5 0 -0.001)
# Probe 4 (0.75 0 -0.001)
# Probe 5 (1 0 -0.001)
# Probe 6 (1.25 0 -0.001)
# Probe 7 (1.5 0 -0.001)
# Probe 8 (1.75 0 -0.001)
# Probe 9 (2 0 -0.001)
# Probe 10 (2.25 0 -0.001)
# Probe 11 (2.5 0 -0.001)
# Probe 12 (2.75 0 -0.001)
# Probe 13 (3 0 -0.001)
# Probe 14 (3.25 0 -0.001)
# Probe 15 (3.5 0 -0.001)
# Probe 16 (3.75 0 -0.001)
# Probe 17 (4 0 -0.001)
# Time        0             1             2             3             4             5             6             7             8             9             10            11            12            13            14            15            16            17           
0             (0 0 0)       (0 0 0)       (0 0 0)       (0 0 0)       (0 0 0)       (0 0 0)       (0 0 0)       (0 0 0)       (0 0 0)       (0 0 0)       (0 0 0)       (0 0 0)       (0 0 0)       (0 0 0)       (0 0 0)       (0 0 0)       (0 0 0)       (0 0 0)      
1             (0.432469 0.403416 -0.194149) (0.432469 0.403416 -0.194149) (0.00209762 -0.000897895 -1.07315) (1.07883e-05 1.26294e-06 -0.0136169) (0.0982752 -0.128133 -0.00923463) (0.431853 -0.102372 -3.17027e-18) (0.637916 -0.0629207 -4.31486e-18) (0.751255 -0.0375378 8.48534e-19) (0.821207 -0.0233034 1.85204e-19) (0.865704 -0.0149188 -9.64868e-20) (0.894707 -0.00980786 3.92745e-20) (0.894707 -0.00980786 3.92745e-20) (0.913882 -0.00655409 0) (0.926688 -0.00435732 0) (0.937099 -0.00281931 0) (0.940636 -0.00172899 0) (0.932343 -0.00094868 0) (0.953466 0.00017097 -4.76905e-29)
2             (14.8653 0.087763 0.460756) (14.8653 0.087763 0.460756) (2.19965 -0.130094 475.525) (0.00249896 -0.00311712 2.66085) (0.00909992 0.0840829 -0.0098483) (-0.1105 0.0208756 -1.48166e-18) (-0.1113 -0.0267375 -1.60535e-18) (-0.0125423 -0.0448518 3.23473e-19) (0.101216 -0.0467975 7.36562e-20) (0.209344 -0.0428216 -3.88773e-20) (0.304942 -0.0366167 1.54484e-20) (0.304942 -0.0366167 1.54484e-20) (0.387047 -0.0297732 0) (0.45648 -0.0233729 0) (0.513749 -0.0177446 0) (0.561752 -0.0130279 0) (0.593804 -0.00925867 0) (0.636476 0.0165011 -1.2355e-29)
3             (-6047.31 118.619 -162.863) (-6047.31 118.619 -162.863) (-799.774 -28.1782 -234310) (0.254515 -0.312458 -1414.7) (5.98933 -4.92059 -0.284239) (1.60031 -2.88088 -4.4289e-17) (1.08078 -2.72143 2.30569e-17) (2.42305 -2.39809 -1.13145e-17) (3.21656 -1.77107 -5.64629e-18) (3.6242 -1.09961 2.85148e-18) (3.77493 -0.354647 -1.3019e-18) (3.77493 -0.354647 -1.3019e-18) (3.65401 0.383532 0) (3.39611 0.989898 0) (3.2913 1.38449 0) (3.46022 1.52675 0) (3.64611 1.36575 0) (3.94827 0.564157 1.01901e-27)
