/*--------------------------------*- C++ -*----------------------------------*\
  =========                 |
  \\      /  F ield         | OpenFOAM: The Open Source CFD Toolbox
   \\    /   O peration     | Website:  https://openfoam.org
    \\  /    A nd           | Version:  8
     \\/     M anipulation  |
\*---------------------------------------------------------------------------*/
FoamFile
{
    version     2.0;
    format      ascii;
    class       surfaceScalarField;
    location    "90";
    object      phi;
}
// * * * * * * * * * * * * * * * * * * * * * * * * * * * * * * * * * * * * * //

dimensions      [0 3 -1 0 0 0 0];

internalField   nonuniform List<scalar> 
7966
(
0.0133985
-6.89747e-05
3.78546e-06
0.0135576
-0.000146851
-1.22523e-05
0.0139786
-0.000408403
-1.25311e-05
0.0141415
-0.00021778
5.48726e-05
0.0142663
-0.000150452
2.56645e-05
0.0143947
-0.000137181
8.74386e-06
0.0143141
0.000115654
-3.50896e-05
0.0140808
0.000255441
-2.21539e-05
0.0137518
0.000328348
6.91478e-07
0.0135503
0.000203792
-2.32467e-06
0.0132206
0.000308754
2.10321e-05
0.0128255
0.000389159
5.92026e-06
0.012566
0.000284047
-2.46025e-05
0.0124008
0.000156714
8.55401e-06
0.0117283
0.00065871
1.37701e-05
0.0113759
0.000335696
1.66729e-05
0.0116523
-0.000234509
-4.19208e-05
0.011812
-6.00368e-05
-9.95736e-05
0.0126758
-0.000559399
-0.000304487
-0.000511401
-0.000162867
0.0133725
-0.000128531
2.03874e-05
0.0136341
-0.000354161
-5.42869e-05
0.0140572
-0.000789664
-4.18659e-05
0.0144129
-0.000658235
8.47972e-05
0.0143994
-0.000276964
0.000140016
0.0145539
-0.00041171
0.00012003
0.0145525
0.000203655
-8.65948e-05
0.0141191
0.000766245
-7.74528e-05
0.0138851
0.000556356
6.06007e-06
0.0136476
0.000459403
-1.81399e-05
0.0133634
0.000584476
8.48162e-06
0.0130456
0.000663863
4.31223e-05
0.0127817
0.000530505
1.74015e-05
0.0121726
0.000759783
6.04131e-06
0.011148
0.00174147
-5.81779e-05
0.0110324
0.00039114
6.01575e-05
0.011373
-0.000464018
-0.000111054
0.0116397
-5.03193e-05
-0.00027644
0.0128636
-0.000963118
-0.000820175
-0.00087795
-0.000442619
0.0134387
-0.000322905
8.99783e-05
0.0136352
-0.00050395
-4.66694e-05
0.0142222
-0.00114244
-0.000234196
0.0148165
-0.00130736
5.47982e-05
0.0149733
-0.00108648
0.000652668
0.0151386
-0.00108095
0.000503994
0.0151779
0.000262013
-9.77118e-05
0.0144385
0.00166172
-0.000155993
0.0142458
0.000959419
-0.000210415
0.0140591
0.000614762
3.13891e-05
0.0134301
0.000917968
0.000295505
0.0130804
0.000883441
0.000130093
0.0126345
0.000872958
0.000103495
0.0129506
0.000626083
-0.000182446
0.0126823
0.00208501
-7.52179e-05
0.0112468
0.00145845
0.000368139
0.0110512
-6.2047e-05
-0.000206316
0.0116853
0.000199113
-0.000883598
0.0128075
0.000180904
-0.00226618
-0.000228283
-0.00125615
0.0133536
-0.000263884
-7.73107e-05
0.0139465
-0.000958327
-0.000138462
0.0142831
-0.00194239
0.000463345
0.0155245
-0.00261248
6.37184e-05
0.0166698
-0.0024743
0.0002425
0.0167788
-0.00234699
0.00115702
0.0152808
0.000854249
0.000905756
0.014185
0.00364815
-0.00089059
0.01534
0.000946068
-0.00114167
0.0151659
0.000370494
0.000418318
0.0143548
0.00110793
0.000621164
0.0141991
0.000888712
0.000150477
0.0136566
0.000703138
0.000712314
0.0129759
0.00121086
9.58757e-05
0.0112269
0.00392
-8.59339e-05
0.00962931
0.00219101
0.000864998
0.0100447
1.29279e-05
-0.000490346
0.0109477
0.0014242
-0.00212806
0.0118112
0.00107465
-0.00175728
-0.000338793
-0.00087025
0.0138167
-0.000700539
-4.14893e-05
0.0145516
-0.000679029
-0.00101425
0.0152154
-0.00339029
0.000784102
0.0170531
-0.00520113
0.000750936
0.0185385
-0.00415983
0.000200102
0.0173511
-0.00174273
0.000583141
0.0152144
0.00165653
0.00133442
0.0139726
0.00465801
0.00023195
0.015241
0.0019208
-0.00224308
0.0163963
0.000810753
-0.00159561
0.0165559
0.00111661
-0.000168258
0.016223
-0.000674377
0.00189598
0.0149284
0.000887078
0.00111069
0.013024
0.00352856
-0.000413295
0.0108386
0.00480243
0.00130295
0.00954347
0.00352732
-4.11901e-05
0.00845637
0.0027352
-0.00163517
0.00753576
0.00332315
-0.000978331
0.00847736
-0.000914156
0.00104719
-0.00192764
-8.00199e-05
0.012975
-0.000526579
0.000195636
0.014708
-0.00305
0.000637904
0.0178737
-0.00509161
-0.00146431
0.0203017
-0.00210927
0.00127848
-0.00284247
-0.00212511
-0.00183078
0.0190654
-0.00117588
-0.000239517
-0.00089968
-0.000722829
0.000114336
0.0189326
-0.00136137
-0.000248503
0.0168902
0.0012457
0.00245322
0.0134329
0.00594254
0.00217278
0.0130817
0.00308992
-0.000817979
0.0175048
0.000566017
-0.00417836
0.0207055
0.000315626
-0.00239971
0.019369
-0.00125764
0.00191982
0.0163993
0.00152679
0.00232994
0.0155467
0.00255935
0.00182184
0.0180981
0.0048775
-0.0026265
0.017371
0.00741648
-0.00316208
0.0131129
0.00494952
0.00204381
0.00856652
0.00272886
0.00514066
0.00685223
-0.00436436
0.0051645
-0.0045091
0.00152127
0.0133656
-0.000788642
0.000249269
0.0165772
-0.00844472
0.00218312
0.00494952
-0.00238137
-0.00138962
-0.00294029
-0.00234918
-0.00138586
0.00619633
0.0050861
0.00569991
0.00600679
-0.00326887
0.000102328
-0.00629556
0.00586959
-0.00179256
0.00104265
0.0208676
0.00023195
-0.00107391
-9.44244e-06
0.000817237
0.000448626
-0.00566708
-0.00642194
-0.00497609
-0.00557834
0.0185498
0.0020781
0.00148542
0.0172856
0.00672024
0.000486541
0.0184143
0.00230334
-0.000342128
0.0176075
0.0011206
0.000252154
0.0186764
0.00107138
-0.00182463
0.0217918
-7.89614e-05
-0.0042941
0.0210748
0.00245615
-0.000212307
0.0183977
0.00165305
0.00358339
0.0175779
0.00560698
9.029e-05
0.0139724
0.00929961
0.00172243
0.00982914
0.00478662
0.00430612
0.00777944
0.00416443
0.000614138
0.00810473
-0.00249065
-0.00219901
-0.00570553
0.000217872
0.0116012
0.000317647
0.000648973
0.00448364
-0.00513021
0.00205453
0.00337464
0.00491286
0.0030063
-0.00297066
-0.00389033
-0.00268431
0.00512342
-0.00269561
-0.00032554
-0.00172465
0.00122862
0.00192773
-0.00128772
-0.000143982
-0.00171148
0.000686994
0.00150473
-0.00032743
-0.000152807
-0.00137165
0.00532972
-0.000437624
-0.00109677
-0.00142454
-0.00120797
0.000124196
9.40839e-05
0.00010771
0.000114793
0.0165904
0.000255683
-0.000357285
-0.00522066
-0.00174897
-0.00554241
-0.00230385
-1.73421e-05
0.000156973
0.000265574
0.0168934
0.0100683
-0.00365104
0.019348
0.00401804
-0.00416932
0.0187047
0.00230926
-0.000545309
0.0169555
0.00352159
-0.000701035
0.0216947
0.00129827
-0.00611647
0.0244081
0.00327289
-0.00353005
0.0210087
0.00482528
0.000227137
0.0157139
0.00719987
0.00370188
0.0128503
0.00898016
0.00318312
0.01297
0.00552038
-0.000853526
0.0147428
0.00683137
-0.00443976
0.0157632
0.000948957
-0.00446003
-0.00472742
-0.000940627
0.00289552
-0.00036019
-0.00070863
0.00455919
0.00390191
0.00334859
0.00227534
-0.00480122
0.000291196
0.00102361
-0.0011615
0.00156999
-0.0010578
-0.000374302
-0.000224513
0.000889402
0.000322785
-0.000147976
-0.000183636
-0.000224378
-0.000176
0.00615593
0.0109957
-0.00335076
-0.00151341
-0.00052028
-0.00146248
-0.000236446
0.00488317
0.00217095
0.00311985
0.00716684
-2.06077e-06
2.76499e-05
0.00802092
0.00441278
-0.00174527
0.0127234
0.00191485
-0.00531903
0.0184729
0.00283157
-0.00530816
0.0216784
0.00356177
-0.00194204
0.0201281
0.00788622
0.000863974
0.0174311
0.0111984
0.000478728
0.0162852
0.00639265
0.000273682
0.0164297
0.00848433
-0.00179745
0.0160196
0.00276015
-0.0014011
-0.00372829
-0.000396382
0.00505062
-0.00341037
0.00397226
0.000612591
0.00494426
0.00175647
0.00402942
-0.0009299
-0.00154316
0.000782927
0.000449108
0.000514792
0.00174743
0.000397577
-0.000627662
0.000230085
-0.000179173
-0.000118921
0.000147398
0.000213089
-6.23925e-05
-0.00397361
0.00832655
0.00609993
-0.000900828
0.000868479
-0.000701489
0.00127667
-0.00224832
-0.00380793
0.0042536
0.00307969
-0.00213828
-0.00319179
0.00472409
0.00274298
2.53941e-05
0.0074342
-0.00180632
0.00101106
0.0132462
0.0021701
-0.00515058
0.0184654
0.00141516
-0.00307257
0.0186476
0.00563377
0.00207026
0.0167812
0.00994902
0.0031158
0.0184319
0.00457932
0.00016264
0.0179716
0.0114556
-0.00251105
0.0147474
0.00700904
-0.00102466
-0.0025235
0.000358338
-0.000818601
0.00114207
0.000812114
0.0042674
0.000758708
0.00371394
-0.00471666
0.0050672
-0.00159107
-0.000134805
0.000454301
0.000282012
-0.000179579
-0.000218339
2.98627e-05
0.000268317
-7.98415e-05
-2.15919e-05
0.00475409
0.00224268
0.000623718
-8.34901e-05
0.000774468
3.66725e-05
0.000121455
-0.00758689
0.00363591
-0.000358907
-0.00629889
0.00464097
0.00185659
-0.0028148
0.00334228
0.00381519
-0.00788952
0.0041246
0.00717806
0.000420522
-0.00161329
0.0098313
0.00152487
-0.00276295
0.0125967
0.00601023
-0.00314189
0.0154575
0.00890184
-0.00181354
0.0189719
0.00671412
-0.00564925
0.0198587
0.013494
-0.00292513
0.0189547
0.00741868
0.000494365
-0.00129283
0.000261521
0.00112219
0.00286705
0.000726332
0.00310335
0.00282198
0.00381992
-0.00477708
0.00158872
0.00302511
0.00128543
-0.000520824
-0.000447246
0.00124109
-0.000273016
-0.00032579
-9.71768e-05
0.000650487
0.00159708
-0.000127681
-0.000485583
-0.000337927
-0.000490156
-0.000143143
-9.58751e-05
-0.000144237
0.0106719
0.000260464
-0.00324086
-0.000637273
-0.000872688
-0.000557748
-0.000869697
0.0127116
-0.00850369
-0.00112289
0.0105433
-0.00953468
0.0054041
0.00965533
-0.0060693
0.00414244
0.00747751
-0.00958306
0.00387137
0.00718969
-0.0030209
0.00372924
0.0085171
-0.00157513
0.0017726
0.0106672
0.00350208
0.000358082
0.0159394
0.00895063
-0.00532101
0.0182042
0.00960392
-0.00515456
0.0175661
0.0157686
-0.00163654
0.0177523
0.00809331
-0.000860802
-0.000787001
-0.000443654
0.0146795
0.00129062
0.00025332
0.00351459
0.0063028
-0.00198452
-0.00315166
-0.000511612
-0.00346682
-0.000653109
0.00555944
0.00359844
0.00547199
-0.000416499
0.00209631
-0.000887879
-0.000779502
-0.000603803
-0.000842845
0.00130549
0.00117325
0.00119124
0.00127883
0.000469047
-0.000553161
8.41142e-05
0.0196673
-0.00219568
0.00143088
-0.00111146
-0.000352425
-0.00107951
-0.000330263
-0.00228012
-0.00569208
-0.00230711
-0.0057495
0.0202127
-0.00355259
0.00326766
0.0189854
-0.00718599
-9.0449e-05
0.0213063
-0.0101993
-0.00165632
0.0235728
-0.00444106
-0.00389476
0.018725
-0.00595044
0.00121517
0.0132199
-0.00491059
0.00739488
0.0118508
-0.00222767
0.00202158
0.0122792
0.00188827
0.00118545
0.0143417
0.008584
-0.00169594
0.0163602
0.0111947
-0.00360918
0.0169059
0.015863
-0.000640182
0.0152245
0.0060292
0.00374559
-0.00109854
0.00167566
0.0133246
0.000689443
0.000629337
0.0144712
0.00327832
0.00187793
0.00486204
0.00775763
-0.00472064
-0.00290048
-0.00134949
-0.00299282
-0.00179112
0.00493168
0.00536006
0.0053143
-0.000644656
0.00559471
0.00265959
-0.000911576
-0.000581868
-0.000662119
-0.00059204
-0.000275178
-0.00648562
0.00605825
0.000827642
0.000195234
-3.27318e-05
-0.000258835
-2.8762e-05
0.0216128
-0.00190714
-0.00459568
0.00193321
0.00144559
0.00162366
0.00138411
-0.00543245
-0.00488789
-0.00586698
-0.00530923
0.0216178
-0.00134419
-0.000856476
0.0193309
-0.00493376
0.00366809
0.0205923
-0.00599295
-0.00245449
0.0187634
-0.00736388
-0.00100648
0.0150988
-0.00288723
0.00211077
0.0148009
-0.00365208
-0.00200046
0.0138485
-0.00537135
0.00141317
0.0124452
-0.00406874
0.00324435
0.012166
0.00552358
-0.00335605
0.0125435
0.0141435
-0.005937
0.0144506
0.0138829
-0.00459532
0.014975
0.0143784
0.000960063
0.0127223
0.00403249
0.00424949
-0.000846044
0.00167665
0.0126624
0.000837944
0.000533704
0.0156821
0.00117133
-0.000912706
0.0181051
0.00527208
6.25567e-05
0.0191544
0.00384175
0.00411789
-0.0024753
-0.00192178
-0.00265958
-0.00195237
0.0199322
0.000812885
-0.0016742
-0.00078102
0.00115849
-0.00102541
0.000731522
0.0196559
-0.000104404
-0.00152648
0.0186418
-0.00160446
0.00127439
0.0166038
-0.00351909
0.000623346
0.014056
-0.00497548
0.00153035
0.0137896
-0.00396154
-0.00313595
0.0134092
-0.00225582
-0.000251065
0.0122598
-0.00366054
0.00115786
0.0116516
-0.00317771
-0.00158542
0.011366
-0.00486508
0.00108192
0.00996338
0.00772986
-0.000803645
0.0100857
0.0148076
-0.000786436
0.011745
0.00950609
0.00271754
0.0162856
0.00804338
0.00179445
0.0188487
0.00199245
-0.000523096
-0.000309904
0.000378556
0.0136441
0.000679599
-0.000147238
0.0148893
0.000520369
-0.000594215
0.015757
0.00253062
0.00187376
0.016641
0.00286199
9.57142e-05
0.0177279
0.00100288
-0.0012769
0.0167755
0.00011953
0.000728474
0.0154464
-0.00221075
0.00193536
0.0150957
-0.00228415
-0.000884168
0.0148819
-0.00238585
-0.00237583
0.0145826
-0.00282349
-0.000838761
0.0136441
-0.00112464
-0.000192686
0.012268
-0.00260088
0.000316389
0.0119075
-0.00188384
-0.000933302
0.0103941
-0.00327647
-7.52452e-05
0.00936599
0.00579324
0.00296474
0.0103533
0.00846258
0.00535767
0.0118507
0.0041739
0.00383488
0.0146709
0.00291067
0.00231249
0.0150275
-0.00115655
0.00279236
-8.16663e-05
0.00107503
0.0135604
0.000464562
-1.00483e-05
0.0137191
0.000311783
4.98991e-05
0.0148674
0.0015745
-0.000192169
0.0160802
0.00184142
-0.000192278
0.0156486
0.000196777
0.00123771
0.015669
-0.000402307
0.000501445
0.0151531
-0.000770455
-0.000924383
0.0146863
-0.00144455
-0.000372761
0.0139712
-0.00158917
-8.15971e-05
0.0131132
-0.00179518
-0.000170341
0.0132763
-0.000882982
-0.000404757
0.0123321
-0.00145184
-0.000204813
0.0111665
-0.00116684
0.000448632
0.0100074
-0.00209799
-1.93933e-05
0.0108022
0.00256314
0.00243526
0.0126238
0.00297117
0.00366986
0.0130117
0.00151729
0.00226866
0.0135529
0.00208107
0.00028846
0.0127936
-0.000593214
0.000195916
4.73952e-05
0.000654737
0.013587
0.000239272
-2.73343e-05
0.0137365
0.000228438
-6.62063e-05
0.0144713
0.000924299
-8.46109e-05
0.0150991
0.000808487
0.000405197
0.0149114
0.000183944
0.00020046
0.0148935
-0.000192664
-0.000191728
0.0147271
-0.000583961
-2.00891e-05
0.0139901
-0.000710769
3.20599e-06
0.0134993
-0.00112443
2.61315e-05
0.012843
-0.00098913
-0.000149811
0.012466
-0.000713312
0.000207309
0.0122005
-0.00120172
1.54069e-05
0.0116648
-0.00062858
-2.56947e-06
0.0106708
-0.000984877
-0.000119109
0.0112141
0.00110227
0.00091756
0.012373
0.00106303
0.000749242
0.0127573
0.000535959
0.000597085
0.0135351
0.00127313
3.00572e-05
0.0135098
-0.000201403
-0.000366431
0.000174429
0.000311404
0.0134482
0.000137369
-1.29097e-05
0.0136013
0.000119149
-4.39056e-05
0.0140729
0.000385782
6.69687e-05
0.0144852
0.000338663
5.75612e-05
0.0146227
8.18238e-05
-3.5441e-05
0.0144621
-5.49819e-05
2.28938e-05
0.0141941
-0.000329878
1.39709e-05
0.0138996
-0.00037241
-4.38856e-05
0.0131776
-0.000432157
2.97555e-05
0.0127271
-0.000529824
-8.83202e-06
0.012411
-0.000360884
-3.63559e-05
0.0117647
-0.000482809
-7.25355e-05
0.0113019
-0.000299431
0.000133654
0.010865
-0.000438482
-0.000109535
0.0113572
0.00036957
0.000240474
0.0118093
0.0004557
0.000155292
0.0120371
0.000318801
-1.06348e-05
0.0125664
0.000552547
0.000191205
0.0125674
-8.86973e-05
-0.000113622
7.63531e-05
6.1177e-05
0.0134806
-9.91592e-06
0.0135991
7.23408e-07
0.0139736
1.12095e-05
0.0143062
6.08777e-06
0.0143843
3.75787e-06
0.0143284
8.55658e-07
0.0139894
9.19041e-06
0.0136133
3.63861e-06
0.0131833
-2.19118e-06
0.0126759
-2.24162e-05
0.0122907
2.44024e-05
0.0118204
-1.25951e-05
0.0114876
3.34199e-05
0.0111011
-5.20082e-05
0.0113785
9.22066e-05
0.0118191
1.51216e-05
0.0121643
-2.64185e-05
0.0126011
0.000115706
0.0125934
-8.10012e-05
1.51423e-05
0.0133985
-6.50049e-05
3.62236e-06
0.0135592
-0.000159673
-1.33243e-05
0.013981
-0.000423776
-1.04815e-05
0.0141358
-0.000153002
5.29981e-05
0.0142633
-0.000125408
2.35626e-05
0.0143948
-0.000122862
1.04146e-07
0.0143134
8.65354e-05
-4.01902e-05
0.0140862
0.000230134
-2.50615e-05
0.0137506
0.000338304
-2.06254e-06
0.0135496
0.000199979
-1.2345e-06
0.0132234
0.000331649
1.55265e-05
0.0128209
0.000406602
1.79389e-06
0.0125663
0.000248965
-1.88992e-05
0.012404
0.000167616
3.22732e-06
0.0117254
0.000674716
1.76771e-05
0.0113733
0.000340466
2.82638e-05
0.0116511
-0.000253792
-6.58972e-05
0.0118119
-0.00012551
-0.000134909
0.0126846
-0.000738933
-0.000438211
-0.000597521
-0.000239309
0.0133787
-0.000110735
2.07395e-05
0.0136432
-0.000420867
-5.75908e-05
0.0140699
-0.00085264
-3.97464e-05
0.0143853
-0.000464424
8.08988e-05
0.0143726
-9.97178e-05
0.000126991
0.0145625
-0.000283467
9.06906e-05
0.0145711
0.000110229
-0.000118833
0.0141453
0.000655747
-7.73159e-05
0.0138719
0.000625935
-8.13185e-06
0.0136531
0.000450455
-4.98376e-05
0.0133871
0.000599129
7.0482e-06
0.0130379
0.000760019
3.89055e-05
0.0127957
0.000495411
1.31354e-05
0.0121906
0.000819999
-4.12258e-05
0.0111407
0.00171444
-4.80123e-05
0.0110344
0.000394028
0.000112843
0.0113876
-0.000572711
-0.000145313
0.0116494
-0.000312171
-0.000351545
0.012872
-0.00160972
-0.001172
-0.0012053
-0.00064743
0.0134222
-0.00019847
8.94712e-05
0.0137067
-0.000718029
-3.40143e-05
0.0143559
-0.00147998
-0.000256054
0.0146784
-0.000764346
3.22982e-05
0.0147997
-0.000165437
0.000597048
0.0151435
-0.000545668
0.00042243
0.0152195
6.53954e-05
-0.00012889
0.0144944
0.00146198
-0.00023714
0.0141469
0.00102202
-0.000258988
0.0139653
0.000602346
6.1059e-05
0.0133609
0.0012942
0.000204868
0.0129989
0.00121057
4.15125e-05
0.0126808
0.000752421
0.000164581
0.0129265
0.000480917
-8.90935e-05
0.0126203
0.00208188
-0.000136388
0.0113206
0.00178282
0.000279053
0.0110263
-0.000162461
-0.00032235
0.0112921
-0.000276514
-0.00118502
0.0123911
-0.00239177
-0.00258307
-0.00185392
-0.00141734
0.0132652
-0.000110376
-9.52653e-05
0.014084
-0.00165841
-1.69072e-05
0.0145785
-0.00189379
0.000382715
0.0153111
-0.00127463
-0.000158637
0.016087
-0.00082804
0.000129143
0.0164482
-0.000931184
0.00118139
0.0155281
0.00128127
0.000609978
0.0144797
0.00261533
-0.000995568
0.0150345
0.000341466
-0.00101587
0.014759
0.000992053
0.000304053
0.0140626
0.00217245
0.000439331
0.0138685
0.00149933
5.58451e-05
0.0135683
0.00143955
0.000325337
0.0130608
0.00127461
-0.000190222
0.0115715
0.00352329
-3.80551e-05
0.010123
0.00322121
0.000875109
0.00958644
0.000354148
-0.000470428
0.00905811
-2.51399e-05
-0.00185111
0.00995649
-0.00401008
-0.00103735
-0.0036764
-0.000670168
0.0138659
-0.000586084
-9.31952e-05
0.0145022
-0.00260276
-0.000706238
0.0151734
-0.00276449
0.000983592
0.0168312
-0.00240992
0.000228398
0.0176623
-0.00107959
-0.00037937
0.0166396
0.000321732
0.000352837
0.015719
0.00238574
0.00115055
0.015289
0.00306004
0.000217244
0.0157509
-7.97684e-05
-0.00228367
0.0152589
0.00147903
-0.00159066
0.0145624
0.00236989
0.00033081
0.0152304
0.000787315
0.00194003
0.0147841
0.00239635
0.000600189
0.0127729
0.00366596
-0.000793496
0.011061
0.00538419
0.00115395
0.00949975
0.00435202
0.000389291
0.00765682
0.00203299
-0.00147108
0.00596077
0.00116914
-0.000476567
0.00659487
-0.00592369
0.00232671
-0.0060791
0.000409042
0.0129832
-0.000289095
0.000259872
0.0149842
-0.00441615
0.000450323
0.0177722
-0.00598436
-0.00103241
0.0199417
-0.00183979
0.00230219
-0.00136408
-0.00162582
-0.000773438
0.0191943
-0.000152464
-0.00139483
0.000454293
9.76206e-05
0.000423654
0.0188225
0.0029766
-0.00253151
0.0175506
0.0040676
0.00204324
0.016248
0.0045709
0.00196451
0.0163552
0.000769246
-0.00177416
0.0177032
0.00022498
-0.00427231
0.0179428
0.00151938
-0.00178877
0.0165434
0.00156725
0.00253919
0.015505
0.0032225
0.00254227
0.0161982
0.00348766
0.00130695
0.0168838
0.00594267
-0.00387059
0.0140536
0.00843611
-0.00441595
0.0106192
0.00596821
0.00154299
0.00786889
0.00405624
0.00500384
0.00695214
-0.00475414
0.00491168
-0.00731651
0.00168921
0.0133318
-7.14156e-06
-1.1476e-05
0.0163813
-0.00765472
0.00237216
0.00549406
-0.00287255
-0.00321033
-0.00179402
-0.00307399
-0.0023783
0.00566343
0.0054312
0.00574782
0.000456982
0.00630866
-0.00200825
-0.00110312
-0.00168342
-0.00632316
0.00575123
0.000170776
0.00193211
0.0198469
0.00146601
-0.00109759
0.00131601
0.00130161
0.0012161
-0.00528655
-0.00551901
-0.00555184
-0.00578899
0.0195105
0.0049614
0.000928062
0.0179313
0.006648
-1.13725e-05
0.0179133
0.00166869
-0.00122356
0.0185376
-0.000392406
0.000245258
0.0202834
-3.34774e-06
-0.00204771
0.0208055
0.00161693
-0.00486594
0.0177954
0.00601492
5.44723e-06
0.0153006
0.00463182
0.00493396
0.0145328
0.0053026
0.0014982
0.0128437
0.0107983
0.00104935
0.0122821
0.00706944
0.00376646
0.0113018
0.00542071
0.000229951
0.0105961
-0.00283749
-0.00340996
-0.00709888
-0.000316002
0.0132953
0.000593479
0.000110079
0.0059994
-0.00327531
-0.000308459
0.00385927
0.00570881
0.00359525
-0.00269194
-0.0029921
-0.00219982
0.000928281
0.00591529
-0.00220418
-0.00151254
0.000298528
-0.0015729
0.000667347
0.00173793
-0.000915472
-0.000215438
0.000427792
-0.00178877
-4.97896e-05
0.0017038
4.62797e-05
-0.000339306
0.000468778
-0.00148676
0.0057947
7.16864e-05
-0.00141376
-0.00149802
-0.00144014
0.000249016
0.000243632
0.000230828
0.000246046
0.0197261
4.01112e-05
0.000212465
-0.00572955
-0.00259002
-0.00583235
-0.00264876
0.000592463
6.18526e-05
0.000771848
0.0183212
0.0105901
-0.00618824
0.0160499
0.00231019
-0.00253949
0.0149146
0.000312982
-0.000115393
0.0152543
0.00068034
-0.00172446
0.0190209
-0.00230402
-0.00596209
0.01907
0.00466412
-0.00222837
0.0171661
0.00546968
0.00129316
0.0154972
0.00660829
0.00406513
0.0151241
0.0106955
0.00365897
0.0160034
0.00601382
-0.000677212
0.0159796
0.00655495
-0.00555015
0.0153422
-0.00163431
-0.0050258
-0.00682213
-0.00105852
0.00375499
-0.00123832
0.000418323
0.00376776
0.00410142
0.00239929
0.000954145
0.00467469
-0.00230743
-0.00284172
0.000879348
0.00110837
-0.00160207
0.00171643
-0.00126591
-0.000836165
0.000379836
-0.000122265
0.000727105
1.49477e-05
-0.000742746
-7.81666e-05
-8.32867e-05
-5.53136e-05
0.00233691
0.00998173
-0.00410164
-0.0011293
0.000221681
-0.000638454
0.000568376
0.00208519
-0.000668603
0.00635036
0.00567862
-0.00314816
-0.000104639
0.00525357
-1.51116e-05
-0.000624768
0.00854896
-0.00807846
-0.00283998
0.0146946
-0.000768186
-0.00602151
0.0198698
0.00275221
-0.00439973
0.0208928
0.00732886
-0.000879649
0.0193456
0.0115149
0.00120662
0.0188396
0.00694825
-0.000154782
0.0174839
0.00884148
-0.00272826
0.0148935
-0.000315299
-0.000129699
-0.00656543
0.0004532
0.00459542
-0.00433834
0.00445399
0.00396818
0.00403989
0.00330051
0.00043457
0.00132649
8.72542e-05
0.000553515
0.000589698
0.000587564
0.000520496
0.000495835
-0.000366244
0.000470204
-0.00053586
0.0004319
0.000208569
-0.000153718
-8.41663e-05
7.34907e-05
0.000180841
-0.000225016
-0.00275165
0.00865271
0.00598581
-0.000216332
0.00212222
-8.22186e-05
0.00237112
-0.000719389
-0.00314799
0.00470073
0.00197474
-0.00817664
-0.000857432
0.00349721
-0.00442395
0.00291177
0.00508896
-0.0125517
0.00389253
0.0103069
-0.00587592
-0.00526077
0.0154105
-0.00153359
-0.00389039
0.0170389
0.0036048
0.00416594
0.0172476
0.010126
0.00429586
0.0195137
0.00728295
-0.00243815
0.0186737
0.00974171
-0.00257125
0.0159274
0.000961828
0.000444475
-0.00588791
0.00092963
0.001396
-0.00133933
-0.00575075
0.00704926
-0.000391831
0.00879615
0.00141973
0.00105763
-0.000828897
-0.000462762
-0.000165801
0.000315546
-0.000197405
0.000257959
0.000226705
-0.000228862
-9.10606e-05
0.000306603
-0.000213386
0.000891573
0.00556711
0.00193533
0.0010066
0.000200502
0.0010304
0.000263877
0.00473491
-0.00419666
0.000841237
0.00636599
-0.0100606
0.0048938
0.00954583
-0.00710736
0.00284584
0.00885778
-0.0125688
0.0048298
0.00816892
-0.00842597
0.00162562
0.00909539
-0.00354866
-0.00167435
0.0125773
0.000595718
-0.00361468
0.0172863
0.00842818
-0.00482469
0.0182456
0.0086442
-0.00796979
0.017429
0.010637
-0.00300384
0.018396
-0.000341595
0.000830748
-0.00548688
0.000222384
0.00434751
0.000506307
-0.00377065
0.00372474
0.00448825
0.00340946
-0.000511765
-0.00208302
0.00578599
0.00231159
-0.00115527
0.000621203
-0.00069597
-0.00129441
0.00141541
-4.62336e-05
7.29101e-05
-0.000374071
-6.79161e-05
0.000358554
0.00154399
0.000110167
-0.00048068
-0.00037951
-0.000466364
-0.00012291
-6.82141e-05
-0.000125951
0.0102318
-0.00120152
-0.00288309
-0.00057215
-0.00113229
-0.000571966
-0.00154454
0.0136565
-0.00652888
-0.00221535
0.0145549
-0.0102249
0.00467002
0.0172542
-0.00807937
0.00241513
0.016961
-0.00922395
0.000819753
0.0134791
-0.0054527
0.0042378
0.0128571
-0.00494152
0.00378745
0.0145767
0.00158848
-0.00235423
0.0156981
0.00950704
-0.00752128
0.0149437
0.00738281
-0.00313878
0.0149366
0.00930532
-0.000297761
0.0151604
-0.00131468
-0.000111484
-0.00548775
-0.000267678
0.0134533
0.00100559
-0.000342236
0.00382929
0.00547687
-0.00296353
-0.00353447
-0.00109372
-0.00346843
-0.00152378
0.00532837
0.00411278
0.00530539
0.00110127
-0.000982552
0.00235343
-0.000694161
-0.00107414
-0.000983837
-0.00107674
0.00131218
0.00126083
0.00131943
0.00129357
-0.000267504
0.000402383
-0.000422382
0.000287502
0.0197167
-0.00182311
0.00249035
-0.00105421
-0.000201424
-0.00106302
5.79918e-05
-0.00237171
-0.00590728
-0.00245668
-0.00595669
0.0215413
-0.00455742
0.0047989
0.0220688
-0.008773
0.00162617
0.0217686
-0.00875052
-0.00283041
0.0191177
-0.00680741
-0.00251589
0.0170942
-0.00629008
0.000304807
0.0163601
-0.00228507
0.00496135
0.0135831
-0.004281
0.00413807
0.0107258
0.00191702
0.00371425
0.0106277
0.00724097
0.000668281
0.0128956
0.0024287
-0.00092302
0.0144267
0.00582357
0.00131045
0.0129196
-0.000209337
0.00414735
-0.0041346
0.00168401
0.0135486
0.00102945
0.000409818
0.0155986
0.00343237
0.00187251
0.00571935
0.00590483
-0.0060848
-0.00294576
-0.00206773
-0.00332115
-0.00244133
0.00539677
0.00556982
0.00514793
-0.000708872
0.00157608
0.00633824
0.00196383
-0.00162064
-0.000567096
-0.00070215
-0.000560033
-3.26856e-05
0.000570109
-0.00642194
0.00632207
0.000561785
-0.00129055
0.00011079
3.21653e-05
0.00014826
0.0221169
-0.00119364
-0.00417633
0.00101571
0.000975441
0.000629672
0.000561567
-0.00631677
-0.00572578
-0.0065203
-0.0059621
0.0223112
-0.00233259
-0.000541366
0.0204364
-0.0037198
0.00470525
0.0172438
-0.00646588
-0.00156893
0.0156259
-0.00496913
-0.00317007
0.0142007
-0.00354456
0.000273197
0.0120663
-0.00535098
-0.000805237
0.0122061
-0.00281322
0.00180152
0.0117586
-0.00370243
0.00311333
0.0107723
-0.00063165
0.000178892
0.0118216
0.00213238
-0.00187773
0.013209
-0.00076023
-0.00279378
0.0153145
0.00357511
0.00110309
0.0153508
0.000289609
0.00371423
-0.00224484
0.00147409
0.0132009
0.0010592
0.000647546
0.0151469
0.00164668
-0.00107305
0.017716
0.00382381
-0.000425499
0.0200056
0.00276899
0.00377573
-0.00165092
-0.00114179
-0.00123856
-0.000685204
0.0195181
0.000445412
-0.00129542
-0.000726238
0.00039861
-0.00018465
0.000175586
0.0189354
-0.000392426
-0.00174494
0.0188313
-0.0021676
0.0012134
0.0180945
-0.00233091
-2.86839e-05
0.0166841
-0.00366995
0.000144851
0.0148578
-0.00384152
-0.00243733
0.0135456
-0.00236368
-0.000119653
0.0128974
-0.00413438
0.0005894
0.013141
-0.00301154
-0.00163066
0.0134258
-0.00324139
0.000336081
0.0119442
2.79389e-05
1.83289e-05
0.011094
0.00138751
0.000808625
0.0111804
-0.000863929
0.00273484
0.0147089
0.00103813
0.000802899
0.0169267
-0.000998866
-0.00145239
-0.00137811
-7.83161e-05
0.0135906
0.000765265
-0.00010546
0.0146514
0.000686555
-0.000694854
0.0160016
0.00248881
0.00185849
0.0166327
0.00223869
-5.07109e-06
0.0173227
3.16195e-05
-0.00155306
0.016776
7.71999e-05
0.000805537
0.0160408
-0.00178165
0.00228463
0.0160209
-0.00248114
-0.000714029
0.0151427
-0.00253726
-0.00263033
0.014303
-0.00275857
-0.00108203
0.0137839
-0.00142529
-0.000612029
0.0125316
-0.00255736
-8.29248e-06
0.0116308
-0.00237545
-0.000668598
0.0109952
-0.00204235
-0.000638678
0.0114094
0.000837989
0.00174051
0.0123235
0.00180009
0.00403098
0.0124643
0.000342836
0.00248729
0.013876
0.000774863
0.00116403
0.0148228
-0.00101669
0.00186338
-0.000572986
0.000679713
0.0135659
0.000539895
-1.52445e-05
0.0138166
0.000412058
7.36987e-05
0.0148879
0.00145921
-0.000233857
0.0159122
0.00142678
-0.000404702
0.0156954
0.000162848
0.00132324
0.0159394
-0.000362036
0.000696733
0.0151093
-0.000888417
-0.000987563
0.0144707
-0.00147741
-0.000737858
0.0140813
-0.00172961
-0.000499781
0.0133074
-0.00160668
-0.000548383
0.0130627
-0.00107924
-0.000506126
0.0119366
-0.00134502
-0.000291049
0.010997
-0.00133162
0.000344422
0.0104381
-0.00157501
7.22015e-05
0.0112839
0.000714252
0.00171314
0.012917
0.00152681
0.00231007
0.0134295
0.000923077
0.00117594
0.013359
0.00126209
-0.000128289
0.0126911
-7.99373e-05
-7.29348e-05
-0.000162882
0.000536211
0.0136075
0.000267019
-2.7986e-05
0.0137355
0.00026024
-4.23659e-05
0.0144296
0.000832786
-0.000152345
0.0150989
0.000768387
0.000394335
0.0149586
0.000221941
0.000281667
0.014871
-0.000249561
-0.000216622
0.0146974
-0.000629414
-0.000105458
0.0140145
-0.000672094
-0.000119253
0.0134778
-0.00115856
-8.15623e-06
0.0128437
-0.000975125
-0.000147287
0.0125005
-0.000724161
0.000195395
0.0122359
-0.00113071
6.57528e-05
0.0116745
-0.000831211
5.83927e-05
0.0108214
-0.000733767
-0.000107215
0.0112335
0.000612266
0.000607428
0.0123315
0.000835652
0.000342386
0.0129452
0.000588829
0.000317668
0.0133596
0.000771615
0.000106052
0.0132347
5.42975e-05
-0.000375677
0.000142339
0.000182204
0.013452
0.000147368
-1.19013e-05
0.0135943
0.000118617
-4.46216e-05
0.014065
0.000372008
5.70312e-05
0.0144969
0.000336045
5.80406e-05
0.0146299
7.93419e-05
-2.58902e-05
0.0144508
-5.92611e-05
1.17075e-05
0.0141819
-0.000342542
-3.98155e-06
0.0139006
-0.000380738
-5.39954e-05
0.0131879
-0.00042823
1.215e-05
0.0127291
-0.000509438
-1.56754e-05
0.0124069
-0.000388609
-4.97277e-05
0.0117518
-0.000465972
-8.21679e-05
0.011295
-0.000339048
9.83331e-05
0.0109009
-0.000364742
-8.4524e-05
0.0113563
0.00023646
0.000160901
0.0118017
0.000439033
0.000106512
0.0120635
0.000353143
-3.67201e-05
0.0125451
0.000384342
9.68719e-05
0.0125589
2.02015e-05
-9.3366e-05
6.38525e-05
6.09314e-05
0.0134806
-9.86065e-06
0.0135989
1.03447e-06
0.0139734
8.72213e-06
0.0143074
8.17124e-06
0.0143847
5.74536e-06
0.0143275
-1.14165e-06
0.0139881
6.00029e-06
0.0136131
-2.04573e-06
0.013185
-2.35529e-06
0.0126774
-2.42798e-05
0.0122906
2.26207e-05
0.0118188
-6.78969e-06
0.0114864
2.67614e-05
0.0111086
-3.89324e-05
0.0113728
6.44473e-05
0.011819
7.95153e-06
0.012169
-2.3189e-05
0.0125913
7.77456e-05
0.0125942
-6.3762e-05
1.23754e-05
0.0133992
-6.22739e-05
0.013562
-0.000176086
0.0139834
-0.000431909
0.0141307
-9.42727e-05
0.0142608
-0.000106564
0.014395
-0.000134049
0.0143131
4.17086e-05
0.0140902
0.00019779
0.013749
0.00033921
0.0135487