/*--------------------------------*- C++ -*----------------------------------*\
  =========                 |
  \\      /  F ield         | OpenFOAM: The Open Source CFD Toolbox
   \\    /   O peration     | Website:  https://openfoam.org
    \\  /    A nd           | Version:  8
     \\/     M anipulation  |
\*---------------------------------------------------------------------------*/
FoamFile
{
    version     2.0;
    format      ascii;
    class       surfaceScalarField;
    location    "1.55";
    object      phi;
}
// * * * * * * * * * * * * * * * * * * * * * * * * * * * * * * * * * * * * * //

dimensions      [0 3 -1 0 0 0 0];

internalField   nonuniform List<scalar> 
760
(
1.24956e-06
3.36875e-20
1.24956e-06
2.74137e-20
1.24956e-06
1.91422e-20
1.24956e-06
8.84412e-21
1.24956e-06
3.45319e-23
1.24956e-06
-7.94184e-21
1.24956e-06
-1.26563e-20
1.24956e-06
-1.79789e-20
1.24956e-06
-2.01518e-20
1.24956e-06
-2.1804e-20
1.24956e-06
-2.0825e-20
1.24956e-06
-1.89668e-20
1.24956e-06
-1.56877e-20
1.24956e-06
-1.10704e-20
1.24956e-06
-6.26886e-21
1.24956e-06
8.42607e-22
1.24956e-06
7.33786e-21
1.24956e-06
1.55679e-20
1.24956e-06
2.27827e-20
2.96564e-20
3.7487e-06
8.72058e-20
3.7487e-06
6.8513e-20
3.7487e-06
4.06835e-20
3.7487e-06
9.93085e-21
3.7487e-06
-2.06639e-20
3.7487e-06
-4.31763e-20
3.7487e-06
-6.17862e-20
3.7487e-06
-7.20219e-20
3.7487e-06
-7.87393e-20
3.7487e-06
-7.50974e-20
3.7487e-06
-6.7298e-20
3.7487e-06
-5.33332e-20
3.7487e-06
-3.49049e-20
3.7487e-06
-1.47904e-20
3.7487e-06
7.81685e-21
3.7487e-06
2.83857e-20
3.7487e-06
5.08437e-20
3.7487e-06
6.71122e-20
3.7487e-06
8.33299e-20
8.95992e-20
6.24787e-06
1.4642e-19
6.24787e-06
1.02015e-19
6.24787e-06
4.45567e-20
6.24787e-06
-1.82388e-20
6.24787e-06
-7.35641e-20
6.24787e-06
-1.21167e-19
6.24787e-06
-1.51469e-19
6.24787e-06
-1.69886e-19
6.24787e-06
-1.68035e-19
6.24787e-06
-1.54799e-19
6.24787e-06
-1.23363e-19
6.24787e-06
-8.45795e-20
6.24787e-06
-3.83696e-20
6.24787e-06
1.16335e-20
6.24787e-06
5.90775e-20
6.24787e-06
1.03466e-19
6.24787e-06
1.36921e-19
6.24787e-06
1.64156e-19
6.24787e-06
1.74599e-19
1.71996e-19
8.74709e-06
2.02208e-19
8.74709e-06
1.19757e-19
8.74709e-06
2.32332e-20
8.74709e-06
-7.58117e-20
8.74709e-06
-1.66887e-19
8.74709e-06
-2.33503e-19
8.74709e-06
-2.79805e-19
8.74709e-06
-2.92382e-19
8.74709e-06
-2.82231e-19
8.74709e-06
-2.4132e-19
8.74709e-06
-1.82804e-19
8.74709e-06
-1.03858e-19
8.74709e-06
-1.81914e-20
8.74709e-06
6.90829e-20
8.74709e-06
1.5042e-19
8.74709e-06
2.15982e-19
8.74709e-06
2.67361e-19
8.74709e-06
2.90113e-19
8.74709e-06
2.90945e-19
2.59136e-19
1.12464e-05
2.45511e-19
1.12464e-05
1.20663e-19
1.12464e-05
-1.9053e-20
1.12464e-05
-1.57425e-19
1.12464e-05
-2.76738e-19
1.12464e-05
-3.67586e-19
1.12464e-05
-4.15965e-19
1.12464e-05
-4.2946e-19
1.12464e-05
-3.96263e-19
1.12464e-05
-3.31217e-19
1.12464e-05
-2.29528e-19
1.12464e-05
-1.09739e-19
1.12464e-05
2.18722e-20
1.12464e-05
1.50035e-19
1.12464e-05
2.63115e-19
1.12464e-05
3.55022e-19
1.12464e-05
4.09445e-19
1.12464e-05
4.2901e-19
1.12464e-05
4.04405e-19
3.45834e-19
1.37458e-05
2.7591e-19
1.37458e-05
1.10428e-19
1.37458e-05
-6.62501e-20
1.37458e-05
-2.3638e-19
1.37458e-05
-3.83989e-19
1.37458e-05
-4.86842e-19
1.37458e-05
-5.45514e-19
1.37458e-05
-5.45087e-19
1.37458e-05
-4.97555e-19
1.37458e-05
-3.96632e-19
1.37458e-05
-2.64938e-19
1.37458e-05
-1.01838e-19
1.37458e-05
6.6606e-20
1.37458e-05
2.30508e-19
1.37458e-05
3.75004e-19
1.37458e-05
4.79512e-19
1.37458e-05
5.39714e-19
1.37458e-05
5.46392e-19
1.37458e-05
5.0351e-19
4.07481e-19
1.62453e-05
2.83833e-19
1.62453e-05
9.56451e-20
1.62453e-05
-1.07769e-19
1.62453e-05
-2.99368e-19
1.62453e-05
-4.5696e-19
1.62453e-05
-5.72675e-19
1.62453e-05
-6.28259e-19
1.62453e-05
-6.22937e-19
1.62453e-05
-5.53407e-19
1.62453e-05
-4.39346e-19
1.62453e-05
-2.74368e-19
1.62453e-05
-9.0982e-20
1.62453e-05
1.05859e-19
1.62453e-05
2.94405e-19
1.62453e-05
4.51026e-19
1.62453e-05
5.66942e-19
1.62453e-05
6.25117e-19
1.62453e-05
6.2622e-19
1.62453e-05
5.59851e-19
4.46506e-19
1.87449e-05
2.74149e-19
1.87449e-05
7.52676e-20
1.87449e-05
-1.30382e-19
1.87449e-05
-3.25317e-19
1.87449e-05
-4.87813e-19
1.87449e-05
-5.98004e-19
1.87449e-05
-6.52454e-19
1.87449e-05
-6.39161e-19
1.87449e-05
-5.68681e-19
1.87449e-05
-4.3754e-19
1.87449e-05
-2.71892e-19
1.87449e-05
-7.27524e-20
1.87449e-05
1.29338e-19
1.87449e-05
3.21792e-19
1.87449e-05
4.8507e-19
1.87449e-05
5.95342e-19
1.87449e-05
6.51175e-19
1.87449e-05
6.40683e-19
1.87449e-05
5.74596e-19
4.43669e-19
2.12446e-05
2.46507e-19
2.12446e-05
6.30649e-20
2.12446e-05
-1.3445e-19
2.12446e-05
-3.14116e-19
2.12446e-05
-4.62859e-19
2.12446e-05
-5.6351e-19
2.12446e-05
-6.06754e-19
2.12446e-05
-5.96584e-19
2.12446e-05
-5.23789e-19
2.12446e-05
-4.05728e-19
2.12446e-05
-2.41876e-19
2.12446e-05
-6.10575e-20
2.12446e-05
1.33152e-19
2.12446e-05
3.09294e-19
2.12446e-05
4.56764e-19
2.12446e-05
5.60024e-19
2.12446e-05
6.05797e-19
2.12446e-05
5.98919e-19
2.12446e-05
5.30342e-19
4.13489e-19
2.37445e-05
2.07713e-19
2.37445e-05
4.74881e-20
2.37445e-05
-1.14517e-19
2.37445e-05
-2.67421e-19
2.37445e-05
-3.90561e-19
2.37445e-05
-4.72163e-19
2.37445e-05
-5.09095e-19
2.37445e-05
-4.93791e-19
2.37445e-05
-4.39764e-19
2.37445e-05
-3.33984e-19
2.37445e-05
-2.01015e-19
2.37445e-05
-4.36339e-20
2.37445e-05
1.12356e-19
2.37445e-05
2.63367e-19
2.37445e-05
3.8444e-19
2.37445e-05
4.68918e-19
2.37445e-05
5.08911e-19
2.37445e-05
4.96852e-19
2.37445e-05
4.42352e-19
3.38583e-19
2.62445e-05
1.48557e-19
2.62445e-05
3.41863e-20
2.62445e-05
-8.71469e-20
2.62445e-05
-1.95919e-19
2.62445e-05
-2.84767e-19
2.62445e-05
-3.46355e-19
2.62445e-05
-3.72754e-19
2.62445e-05
-3.67396e-19
2.62445e-05
-3.20148e-19
2.62445e-05
-2.45596e-19
2.62445e-05
-1.42822e-19
2.62445e-05
-3.17684e-20
2.62445e-05
8.74918e-20
2.62445e-05
1.9182e-19
2.62445e-05
2.82979e-19
2.62445e-05
3.43951e-19
2.62445e-05
3.73515e-19
2.62445e-05
3.68262e-19
2.62445e-05
3.2208e-19
2.5053e-19
2.87446e-05
9.24974e-20
2.87446e-05
1.6129e-20
2.87446e-05
-5.45461e-20
2.87446e-05
-1.24712e-19
2.87446e-05
-1.77408e-19
2.87446e-05
-2.15666e-19
2.87446e-05
-2.30271e-19
2.87446e-05
-2.23969e-19
2.87446e-05
-1.99436e-19
2.87446e-05
-1.55042e-19
2.87446e-05
-9.10385e-20
2.87446e-05
-1.15988e-20
2.87446e-05
5.78986e-20
2.87446e-05
1.21287e-19
2.87446e-05
1.75596e-19
2.87446e-05
2.14418e-19
2.87446e-05
2.30675e-19
2.87446e-05
2.25685e-19
2.87446e-05
2.01654e-19
1.51675e-19
3.12449e-05
3.6725e-20
3.12449e-05
8.3473e-21
3.12449e-05
-3.19477e-20
3.12449e-05
-5.9222e-20
3.12449e-05
-8.32592e-20
3.12449e-05
-9.99138e-20
3.12449e-05
-1.07559e-19
3.12449e-05
-1.00139e-19
3.12449e-05
-9.05554e-20
3.12449e-05
-6.54725e-20
3.12449e-05
-3.61423e-20
3.12449e-05
-1.9549e-21
3.12449e-05
3.60483e-20
3.12449e-05
6.29539e-20
3.12449e-05
8.65418e-20
3.12449e-05
9.93581e-20
3.12449e-05
1.05791e-19
3.12449e-05
1.00128e-19
3.12449e-05
8.52932e-20
6.58654e-20
3.37453e-05
-3.42617e-21
3.37453e-05
-1.01028e-20
3.37453e-05
-1.12366e-20
3.37453e-05
-1.51694e-20
3.37453e-05
-1.34959e-20
3.37453e-05
-1.62889e-20
3.37453e-05
-1.71181e-20
3.37453e-05
-1.99428e-20
3.37453e-05
-7.04178e-21
3.37453e-05
-1.38604e-21
3.37453e-05
1.48191e-21
3.37453e-05
9.66973e-21
3.37453e-05
1.20169e-20
3.37453e-05
1.93287e-20
3.37453e-05
2.27733e-20
3.37453e-05
1.9046e-20
3.37453e-05
1.29989e-20
3.37453e-05
1.34979e-20
3.37453e-05
1.15134e-20
2.26952e-21
3.62458e-05
-2.46401e-20
3.62458e-05
-1.47417e-20
3.62458e-05
9.77213e-22
3.62458e-05
1.2353e-20
3.62458e-05
2.04627e-20
3.62458e-05
2.60775e-20
3.62458e-05
2.48169e-20
3.62458e-05
2.93123e-20
3.62458e-05
2.78206e-20
3.62458e-05
3.06633e-20
3.62458e-05
2.89171e-20
3.62458e-05
1.5634e-20
3.62458e-05
9.91196e-21
3.62458e-05
-9.57625e-22
3.62458e-05
-1.94635e-20
3.62458e-05
-2.78379e-20
3.62458e-05
-3.24663e-20
3.62458e-05
-3.1982e-20
3.62458e-05
-3.2139e-20
-3.04633e-20
3.87464e-05
-2.47439e-20
3.87464e-05
-1.09847e-20
3.87464e-05
6.96915e-21
3.87464e-05
2.65304e-20
3.87464e-05
3.59587e-20
3.87464e-05
3.44037e-20
3.87464e-05
3.49493e-20
3.87464e-05
3.6985e-20
3.87464e-05
4.5953e-20
3.87464e-05
4.1232e-20
3.87464e-05
2.8597e-20
3.87464e-05
2.02882e-20
3.87464e-05
6.04389e-21
3.87464e-05
-1.00479e-20
3.87464e-05
-2.93471e-20
3.87464e-05
-3.88533e-20
3.87464e-05
-4.53243e-20
3.87464e-05
-5.03214e-20
3.87464e-05
-5.02461e-20
-3.76357e-20
4.12471e-05
-1.74322e-20
4.12471e-05
-4.72405e-21
4.12471e-05
1.00831e-20
4.12471e-05
2.34569e-20
4.12471e-05
2.85845e-20
4.12471e-05
3.16154e-20
4.12471e-05
2.88847e-20
4.12471e-05
3.32021e-20
4.12471e-05
3.37929e-20
4.12471e-05
2.95266e-20
4.12471e-05
2.78819e-20
4.12471e-05
1.34743e-20
4.12471e-05
1.13186e-21
4.12471e-05
-9.17733e-21
4.12471e-05
-2.08792e-20
4.12471e-05
-3.04935e-20
4.12471e-05
-3.97449e-20
4.12471e-05
-4.65651e-20
4.12471e-05
-3.95357e-20
-3.07345e-20
4.37479e-05
-1.13737e-20
4.37479e-05
-2.97482e-21
4.37479e-05
5.37005e-21
4.37479e-05
1.08933e-20
4.37479e-05
1.45116e-20
4.37479e-05
1.65008e-20
4.37479e-05
1.2495e-20
4.37479e-05
9.28651e-21
4.37479e-05
1.20024e-20
4.37479e-05
1.74809e-20
4.37479e-05
1.2364e-20
4.37479e-05
1.20113e-20
4.37479e-05
6.2401e-21
4.37479e-05
-5.60948e-21
4.37479e-05
-1.49957e-20
4.37479e-05
-1.859e-20
4.37479e-05
-2.10706e-20
4.37479e-05
-1.80214e-20
4.37479e-05
-1.89221e-20
-1.75921e-20
4.62487e-05
-1.97452e-21
4.62487e-05
-1.98224e-21
4.62487e-05
5.68279e-21
4.62487e-05
8.50116e-21
4.62487e-05
1.90956e-21
4.62487e-05
5.16838e-22
4.62487e-05
-6.08371e-22
4.62487e-05
-7.14963e-22
4.62487e-05
1.02989e-21
4.62487e-05
4.2058e-21
4.62487e-05
4.49989e-21
4.62487e-05
2.05553e-21
4.62487e-05
2.36654e-21
4.62487e-05
-1.63631e-21
4.62487e-05
-4.45992e-22
4.62487e-05
-5.47942e-21
4.62487e-05
-7.11864e-21
4.62487e-05
-6.71317e-21
4.62487e-05
-2.01219e-21
3.30007e-21
4.87496e-05
4.87496e-05
4.87496e-05
4.87496e-05
4.87496e-05
4.87496e-05
4.87496e-05
4.87496e-05
4.87496e-05
4.87496e-05
4.87496e-05
4.87496e-05
4.87496e-05
4.87496e-05
4.87496e-05
4.87496e-05
4.87496e-05
4.87496e-05
4.87496e-05
)
;

boundaryField
{
    movingWall
    {
        type            calculated;
        value           uniform 0;
    }
    fixedWalls
    {
        type            calculated;
        value           uniform 0;
    }
    left
    {
        type            cyclic;
        value           nonuniform List<scalar> 
20
(
-3.87464e-05
-3.62458e-05
-3.37453e-05
-3.12449e-05
-2.87446e-05
-2.62445e-05
-2.37445e-05
-2.12446e-05
-1.87449e-05
-1.62453e-05
-1.37458e-05
-1.12464e-05
-8.74709e-06
-6.24787e-06
-3.7487e-06
-1.24956e-06
-4.12471e-05
-4.37479e-05
-4.62487e-05
-4.87496e-05
)
;
    }
    right
    {
        type            cyclic;
        value           nonuniform List<scalar> 
20
(
3.87464e-05
3.62458e-05
3.37453e-05
3.12449e-05
2.87446e-05
2.62445e-05
2.37445e-05
2.12446e-05
1.87449e-05
1.62453e-05
1.37458e-05
1.12464e-05
8.74709e-06
6.24787e-06
3.7487e-06
1.24956e-06
4.12471e-05
4.37479e-05
4.62487e-05
4.87496e-05
)
;
    }
    frontAndBack
    {
        type            empty;
        value           nonuniform List<scalar> 0();
    }
}


// ************************************************************************* //
