/*--------------------------------*- C++ -*----------------------------------*\
  =========                 |
  \\      /  F ield         | OpenFOAM: The Open Source CFD Toolbox
   \\    /   O peration     | Website:  https://openfoam.org
    \\  /    A nd           | Version:  8
     \\/     M anipulation  |
\*---------------------------------------------------------------------------*/
FoamFile
{
    version     2.0;
    format      ascii;
    class       surfaceScalarField;
    location    "36";
    object      phi;
}
// * * * * * * * * * * * * * * * * * * * * * * * * * * * * * * * * * * * * * //

dimensions      [0 3 -1 0 0 0 0];

internalField   nonuniform List<scalar> 
34404
(
0.00534259
-9.25911e-06
5.39477e-09
0.00537028
-2.76775e-05
-8.6597e-09
0.00541564
-4.53502e-05
-1.22723e-08
0.0054773
-6.16528e-05
-6.31518e-09
0.00555338
-7.60838e-05
-2.86985e-09
0.00564162
-8.82308e-05
-2.39518e-09
0.00573941
-9.77961e-05
-1.25468e-09
0.00584404
-0.000104623
3.5199e-10
0.00595274
-0.00010871
2.67068e-09
0.00606295
-0.000110214
4.51112e-09
0.00617238
-0.000109427
5.7873e-09
0.00627911
-0.00010674
6.38541e-09
0.00638169
-0.000102585
6.28859e-09
0.00647907
-9.73879e-05
5.65552e-09
0.00657058
-9.15168e-05
4.73005e-09
0.00665584
-8.52656e-05
3.78248e-09
0.00673469
-7.88519e-05
2.9483e-09
0.00680712
-7.24287e-05
2.30457e-09
0.00687322
-6.61015e-05
1.79305e-09
0.00693316
-5.99391e-05
1.43029e-09
0.00698714
-5.39858e-05
1.12201e-09
0.0070354
-4.82649e-05
9.34433e-10
0.00707819
-4.27896e-05
7.35565e-10
0.00711576
-3.75624e-05
6.66927e-10
0.00714834
-3.25841e-05
5.1887e-10
0.00717619
-2.78483e-05
5.39368e-10
0.00719954
-2.33513e-05
3.74553e-10
0.00721862
-1.90823e-05
4.7598e-10
0.00723366
-1.50368e-05
2.46437e-10
0.00724486
-1.12014e-05
4.71828e-10
0.00725243
-7.57288e-06
1.06652e-10
0.00725657
-4.13609e-06
5.28603e-10
0.00725746
-8.90932e-07
-8.8477e-11
0.00725528
2.17737e-06
6.84544e-10
0.00725022
5.06372e-06
-3.38086e-10
0.00724243
7.78833e-06
1.04566e-09
0.00723209
1.03353e-05
-7.71613e-10
0.00721936
1.27289e-05
1.64127e-09
0.00720442
1.49414e-05
-1.59027e-09
0.00718741
1.70051e-05
2.69193e-09
0.00716854
1.8876e-05
-3.04858e-09
0.00714794
2.05995e-05
4.55846e-09
0.00712583
2.21114e-05
-5.64669e-09
0.00710234
2.34777e-05
7.87343e-09
0.00707775
2.46081e-05
-1.01586e-08
0.00705213
2.55992e-05
1.35639e-08
0.00702582
2.63289e-05
-1.72898e-08
0.00699887
2.69303e-05
2.17602e-08
0.00697164
2.7254e-05
-2.46178e-08
2.74375e-05
1.92832e-08
0.00534281
-1.87392e-05
5.11179e-09
0.00537111
-5.59636e-05
-9.03748e-09
0.00541747
-9.16993e-05
-1.23782e-08
0.00548049
-0.00012467
-6.46218e-09
0.00555824
-0.000153829
-3.19275e-09
0.00564835
-0.000178336
-2.58242e-09
0.00574814
-0.000197585
-1.28499e-09
0.00585477
-0.000211255
4.4283e-10
0.0059654
-0.000219347
2.92196e-09
0.00607737
-0.000222184
4.8603e-09
0.00618831
-0.000220377
6.17295e-09
0.0062963
-0.000214738
6.72853e-09
0.00639988
-0.000206169
6.52727e-09
0.00649803
-0.000195541
5.77604e-09
0.00659011
-0.000183605
4.76685e-09
0.00667579
-0.000170952
3.79215e-09
0.00675495
-0.000158011
2.97705e-09
0.0068276
-0.000145081
2.37093e-09
0.00689386
-0.000132366
1.89366e-09
0.00695392
-0.000119999
1.55443e-09
0.007008
-0.000108062
1.26123e-09
0.00705633
-9.65998e-05
1.08561e-09
0.00709917
-8.56339e-05
8.97361e-10
0.00713678
-7.51686e-05
8.35118e-10
0.0071694
-6.52035e-05
6.88441e-10
0.00719728
-5.57256e-05
7.03101e-10
0.00722065
-4.67262e-05
5.31307e-10
0.00723975
-3.81842e-05
6.25623e-10
0.0072548
-3.00889e-05
3.93407e-10
0.00726602
-2.24152e-05
6.07288e-10
0.0072736
-1.51541e-05
2.3479e-10
0.00727774
-8.27809e-06
6.36397e-10
0.00727863
-1.78177e-06
5.11948e-12
0.00727645
4.35684e-06
7.65701e-10
0.00727138
1.01372e-05
-2.32566e-10
0.00726357
1.55887e-05
1.13319e-09
0.00725322
2.06939e-05
-6.62632e-10
0.00724046
2.54823e-05
1.70409e-09
0.00722548
2.99239e-05
-1.47463e-09
0.00720843
3.40489e-05
2.72414e-09
0.0071895
3.78148e-05
-2.91962e-09
0.00716884
4.12517e-05
4.5378e-09
0.00714665
4.43105e-05
-5.47189e-09
0.0071231
4.70178e-05
7.7694e-09
0.00709839
4.93313e-05
-9.90398e-09
0.00707271
5.12624e-05
1.33178e-08
0.00704625
5.28016e-05
-1.69109e-08
0.00701925
5.3915e-05
2.13427e-08
0.00699185
5.4676e-05
-2.41626e-08
5.49426e-05
1.8988e-08
0.00534323
-2.86412e-05
5.18496e-09
0.00537281
-8.55276e-05
-9.60928e-09
0.00542125
-0.000140131
-1.29821e-08
0.00548708
-0.000190489
-6.85369e-09
0.00556823
-0.000234976
-3.46874e-09
0.00566217
-0.00027228
-2.7131e-09
0.00576605
-0.000301457
-1.12846e-09
0.00587679
-0.000322002
9.47579e-10
0.00599136
-0.000333917
3.73996e-09
0.0061069
-0.000337726
5.9456e-09
0.00622092
-0.00033441
7.3564e-09
0.00633145
-0.000325273
7.79581e-09
0.00643702
-0.000311753
7.30357e-09
0.0065367
-0.00029522
6.20536e-09
0.00662992
-0.000276835
4.917e-09
0.00671645
-0.000257481
3.79528e-09
0.00679622
-0.000237789
2.94615e-09
0.00686933
-0.00021819
2.36104e-09
0.00693593
-0.000198971
1.91014e-09
0.00699625
-0.000180317
1.59254e-09
0.00705052
-0.00016234
1.31579e-09
0.00709902
-0.000145094
1.1593e-09
0.00714199
-0.000128608
9.85286e-10
0.0071797
-0.000112882
9.36068e-10
0.00721241
-9.79123e-05
7.91161e-10
0.00724036
-8.36784e-05
8.08801e-10
0.0072638
-7.01649e-05
6.29765e-10
0.00728296
-5.734e-05
7.25165e-10
0.00729805
-4.51861e-05
4.79219e-10
0.0073093
-3.36655e-05
6.93957e-10
0.00731691
-2.27635e-05
3.02911e-10
0.00732107
-1.24391e-05
7.07985e-10
0.00732197
-2.68186e-06
3.41402e-11
0.00731979
6.53765e-06
8.27427e-10
0.0073147
1.52234e-05
-1.83478e-10
0.00730688
2.34159e-05
1.21485e-09
0.00729648
3.10934e-05
-6.20033e-10
0.00728366
3.82943e-05
1.78886e-09
0.00726861
4.49817e-05
-1.44256e-09
0.00725146
5.11892e-05
2.81521e-09
0.00723241
5.68679e-05
-2.90157e-09
0.00721162
6.20419e-05
4.63545e-09
0.00718927
6.66634e-05
-5.48197e-09
0.00716554
7.0737e-05
7.86748e-09
0.00714064
7.42421e-05
-9.92457e-09
0.00711475
7.71406e-05
1.34057e-08
0.00708809
7.94835e-05
-1.69507e-08
0.00706083
8.11456e-05
2.13987e-08
0.00703322
8.23129e-05
-2.41127e-08
8.27093e-05
1.89899e-08
0.00534389
-3.92029e-05
5.4343e-09
0.00537544
-0.000117064
-1.04499e-08
0.0054271
-0.000191783
-1.40702e-08
0.00549728
-0.000260653
-7.53722e-09
0.00558371
-0.000321403
-3.86084e-09
0.00568362
-0.000372194
-2.88803e-09
0.00579385
-0.000411687
-9.46509e-10
0.005911
-0.000439153
1.76113e-09
0.00603169
-0.000454604
5.13795e-09
0.00615275
-0.000458803
7.81252e-09
0.00627153
-0.000453194
9.3842e-09
0.00638594
-0.000439691
9.59383e-09
0.00649456
-0.000420382
8.56823e-09
0.00659655
-0.000397218
6.85677e-09
0.00669151
-0.000371798
5.09467e-09
0.00677933
-0.000345301
3.74336e-09
0.00686007
-0.000318532
2.85679e-09
0.0069339
-0.000292026
2.31207e-09
0.00700106
-0.000266134
1.89766e-09
0.00706182
-0.000241074
1.60787e-09
0.00711645
-0.000216971
1.35585e-09
0.00716523
-0.000193882
1.23162e-09
0.00720845
-0.000171829
1.07939e-09
0.00724638
-0.000150807
1.04946e-09
0.00727927
-0.000130804
9.03421e-10
0.00730738
-0.00011179
9.24788e-10
0.00733095
-9.37408e-05
7.30459e-10
0.00735023
-7.66134e-05
8.29694e-10
0.00736542
-6.0383e-05
5.63225e-10
0.00737675
-4.49981e-05
7.88174e-10
0.00738443
-3.04382e-05
3.64281e-10
0.00738863
-1.66471e-05
7.83578e-10
0.00738956
-3.60955e-06
5.52839e-11
0.00738739
8.71185e-06
9.00587e-10
0.00738229
2.03249e-05
-1.52751e-10
0.00737442
3.12842e-05
1.31723e-09
0.00736395
4.15603e-05
-6.06034e-10
0.00735104
5.12048e-05
1.91204e-09
0.00733585
6.01682e-05
-1.45513e-09
0.00731854
6.84944e-05
2.96814e-09
0.0072993
7.61176e-05
-2.95983e-09
0.00727827
8.30678e-05
4.83059e-09
0.00725565
8.92811e-05
-5.60723e-09
0.00723162
9.476e-05
8.11785e-09
0.0072064
9.94776e-05
-1.01351e-08
0.00718015
0.00010338
1.372e-08
0.00715311
0.000106534
-1.72437e-08
0.00712546
0.000108775
2.17248e-08
0.00709745
0.000110344
-2.43325e-08
0.000110893
1.90821e-08
0.00534481
-5.06829e-05
5.75971e-09
0.0053791
-0.000151338
-1.16587e-08
0.00543525
-0.000247918
-1.57167e-08
0.00551148
-0.000336878
-8.65336e-09
0.0056053
-0.000415219
-4.58362e-09
0.0057136
-0.000480484
-3.27339e-09
0.00583276
-0.000530848
-8.08526e-10
0.00595891
-0.000565305
2.94089e-09
0.00608816
-0.000583869
7.29833e-09
0.00621696
-0.000587608
1.07527e-08
0.00634232
-0.000578563
1.25607e-08
0.00646206
-0.000559444
1.23338e-08
0.00657483
-0.000533162
1.04015e-08
0.00667996
-0.000502362
7.7188e-09
0.00677728
-0.000469126
5.27276e-09
0.00686688
-0.000434902
3.65732e-09
0.00694898
-0.000400634
2.78869e-09
0.00702387
-0.000366918
2.3313e-09
0.00709187
-0.000334139
1.96618e-09
0.00715332
-0.000302521
1.70728e-09
0.00720853
-0.000272184
1.48845e-09
0.00725782
-0.000243169
1.40899e-09
0.00730147
-0.000215485
1.2814e-09
0.00733977
-0.000189112
1.26865e-09
0.007373
-0.00016403
1.11004e-09
0.0074014
-0.000140193
1.12716e-09
0.00742523
-0.000117571
9.06197e-10
0.00744472
-9.61053e-05
1.00854e-09
0.0074601
-7.57642e-05
7.09851e-10
0.00747158
-5.64809e-05
9.4344e-10
0.00747938
-3.82296e-05
4.68046e-10
0.00748366
-2.09368e-05
9.05453e-10
0.00748464
-4.58225e-06
9.96435e-11
0.00748247
1.08793e-05
1.01449e-09
0.00747733
2.54595e-05
-1.02091e-10
0.00746939
3.923e-05
1.46995e-09
0.0074588
5.21496e-05
-5.77514e-10
0.00744571
6.42884e-05
2.10048e-09
0.0074303
7.55777e-05
-1.46553e-09
0.00741272
8.60792e-05
3.19735e-09
0.00739314
9.56986e-05
-3.03954e-09
0.00737172
0.000104484
5.12746e-09
0.00734867
0.000112337
-5.77489e-09
0.00732414
0.000119278
8.50337e-09
0.00729839
0.000125244
-1.04374e-08
0.00727155
0.000130199
1.42062e-08
0.00724392
0.000134183
-1.76688e-08
0.00721563
0.000137041
2.22095e-08
0.00718699
0.000139015
-2.47234e-08
0.000139739
1.92266e-08
0.00534602
-6.33737e-05
6.18354e-09
0.00538391
-0.000189217
-1.31721e-08
0.00544598
-0.00030997
-1.79174e-08
0.00553025
-0.000421131
-1.02067e-08
0.00563389
-0.000518854
-5.67543e-09
0.00575336
-0.00059995
-3.91882e-09
0.00588447
-0.000661958
-6.5239e-10
0.00602266
-0.000703508
4.67556e-09
0.00616338
-0.000724593
1.06112e-08
0.00630243
-0.000726671
1.53531e-08
0.00643643
-0.000712588
1.74908e-08
0.0065631
-0.000686126
1.6423e-08
0.0066812
-0.000651277
1.29083e-08
0.00679037
-0.000611538
8.65157e-09
0.00689074
-0.000569503
5.21443e-09
0.00698268
-0.000526847
3.40692e-09
0.00706662
-0.000484573
2.70329e-09
0.00714299
-0.00044329
2.40775e-09
0.00721222
-0.00040337
2.09936e-09
0.00727471
-0.000365014
1.86476e-09
0.00733083
-0.000328307
1.68212e-09
0.00738091
-0.000293256
1.6537e-09
0.00742528
-0.000259849
1.54443e-09
0.0074642
-0.000228043
1.53702e-09
0.00749798
-0.000197805
1.34809e-09
0.00752686
-0.000169074
1.3516e-09
0.00755109
-0.00014181
1.09207e-09
0.00757093
-0.000115938
1.19267e-09
0.00758658
-9.14216e-05
8.43296e-10
0.00759828
-6.81766e-05
1.08034e-09
0.00760622
-4.61708e-05
5.38721e-10
0.00761059
-2.53124e-05
1.0082e-09
0.00761159
-5.57454e-06
1.0497e-10
0.00760937
1.30937e-05
1.11389e-09
0.00760412
3.07101e-05
-1.01329e-10
0.00759598
4.73632e-05
1.59495e-09
0.00758514
6.29996e-05
-6.1498e-10
0.00757171
7.77103e-05
2.28062e-09
0.00755589
9.14037e-05
-1.5459e-09
0.0075378
0.000104163
3.44673e-09
0.00751764
0.000115857
-3.20277e-09
0.00749556
0.000126561
5.47389e-09
0.00747178
0.000136125
-6.05837e-09
0.00744644
0.000144604
8.98541e-09
0.00741982
0.000151875
-1.09104e-08
0.00739206
0.000157945
1.48283e-08
0.00736347
0.000162791
-1.82983e-08
0.00733418
0.00016631
2.29164e-08
0.00730453
0.000168695
-2.53389e-08
0.000169616
1.94887e-08
0.00534757
-7.7613e-05
6.73851e-09
0.00539005
-0.000231686
-1.48934e-08
0.0054597
-0.000379598
-2.07622e-08
0.00555428
-0.000515701
-1.22575e-08
0.00567062
-0.000635184
-7.28279e-09
0.00580462
-0.000733943
-4.95475e-09
0.00595132
-0.000808659
-4.5613e-10
0.00610526
-0.000857455
7.16506e-09
0.00626091
-0.000880255
1.55656e-08
0.00641322
-0.000879002
2.241e-08
0.00655827
-0.000857664
2.50429e-08
0.00669364
-0.000821523
2.25071e-08
0.00681837
-0.000776022
1.62737e-08
0.00693253
-0.000725711
9.21316e-09
0.00703673
-0.000673707
4.15491e-09
0.00713169
-0.000621802
2.55748e-09
0.00721806
-0.000570951
2.49924e-09
0.00729646
-0.000521693
2.45212e-09
0.00736743
-0.000474343
2.19995e-09
0.00743145
-0.000429032
1.9857e-09
0.00748892
-0.000385779
1.84755e-09
0.0075402
-0.00034454
1.86847e-09
0.00758562
-0.000305265
1.75231e-09
0.00762546
-0.000267891
1.72081e-09
0.00766002
-0.000232365
1.47478e-09
0.00768956
-0.000198612
1.45238e-09
0.00771433
-0.000166579
1.13971e-09
0.00773457
-0.000136181
1.23284e-09
0.00775051
-0.00010737
8.19621e-10
0.00776239
-8.00493e-05
1.06226e-09
0.00777039
-5.41769e-05
4.49358e-10
0.00777472
-2.96439e-05
9.83218e-10
0.00777556
-6.41137e-06
1.31343e-11
0.00777308
1.55717e-05
1.12491e-09
0.00776746
3.63346e-05
-2.47209e-10
0.00775884
5.59773e-05
1.58852e-09
0.0077474
7.44407e-05
-8.28978e-10
0.00773328
9.18326e-05
2.3476e-09
0.00771664
0.000108043
-1.80464e-09
0.00769763
0.000123169
3.62325e-09
0.00767644
0.000137049
-3.54586e-09
0.00765322
0.000149775
5.805e-09
0.0076282
0.000161151
-6.54472e-09
0.00760154
0.000171259
9.5432e-09
0.00757351
0.000179913
-1.15932e-08
0.00754427
0.000187166
1.56382e-08
0.00751416
0.000192922
-1.92341e-08
0.00748331
0.000197137
2.39024e-08
0.00745208
0.000199948
-2.63076e-08
0.000201072
1.99393e-08
0.00534951
-9.37959e-05
7.45739e-09
0.00539772
-0.000279875
-1.66389e-08
0.00547689
-0.000458747
-2.44508e-08
0.0055845
-0.000623293
-1.48807e-08
0.00571699
-0.000767668
-9.72195e-09
0.00586962
-0.000886568
-6.53768e-09
0.00603643
-0.000975463
6.09421e-12
0.00621072
-0.00103176
1.094e-08
0.00638562
-0.00105518
2.31189e-08
0.00655485
-0.00104827
3.30632e-08
0.00671377
-0.00101662
3.61281e-08
0.00685988
-0.000967659
3.10812e-08
0.00699266
-0.00090882
2.04271e-08
0.00711289
-0.000845952
8.44708e-09
0.00722181
-0.000782633
2.94505e-09
0.00732058
-0.00072057
1.3143e-09
0.00741013
-0.000660505
1.92117e-09
0.00749125
-0.000602813
2.16727e-09
0.00756459
-0.000547687
1.92515e-09
0.0076307
-0.000495139
1.73835e-09
0.00769
-0.000445085
1.67551e-09
0.00774287
-0.000397411
1.74335e-09
0.00778963
-0.000352028
1.57871e-09
0.00783058
-0.000308847
1.47831e-09
0.00786602
-0.000267798
1.14149e-09
0.0078962
-0.000228795
1.07921e-09
0.00792139
-0.000191771
7.0153e-10
0.00794184
-0.000156636
7.9033e-10
0.0079578
-0.000123328
3.29036e-10
0.0079695
-9.17437e-05
6.06974e-10
0.00797714
-6.18221e-05
-5.23429e-11
0.00798094
-3.34478e-05
5.85449e-10
0.00798109
-6.55291e-06
-4.10683e-10
0.00797776
1.89017e-05
8.4507e-10
0.00797113
4.29649e-05
-7.72292e-10
0.00796137
6.57366e-05
1.23106e-09
0.00794864
8.7172e-05
-1.41615e-09
0.00793309
0.000107378
2.10231e-09
0.00791489
0.000126246
-2.4359e-09
0.00789419
0.000143864
3.53442e-09
0.00787118
0.000160064
-4.24402e-09
0.00784603
0.000174923
5.96738e-09
0.00781895
0.000188231
-7.37518e-09
0.00779015
0.000200055
1.00429e-08
0.00775988
0.00021019
-1.26429e-08
0.00772836
0.000218675
1.65629e-08
0.0076959
0.000225404
-2.05822e-08
0.00766269
0.000230321
2.51933e-08
0.00762908
0.00023358
-2.77481e-08
0.000234863
2.06412e-08
0.00535192
-0.000112387
8.3922e-09
0.00540713
-0.000335071
-1.80306e-08
0.00549813
-0.000549718
-2.93141e-08
0.00562197
-0.000747115
-1.80932e-08
0.00577485
-0.000920535
-1.37255e-08
0.00595123
-0.00106294
-9.04284e-09
0.00614385
-0.00116808
7.17963e-10
0.00634443
-0.00123236
1.70811e-08
0.0065441
-0.00125488
3.56976e-08
0.00673481
-0.00123902
4.98988e-08
0.00691095
-0.00119282
5.19742e-08
0.00707006
-0.00112681
4.15134e-08
0.00721242
-0.00105121
2.19207e-08
0.00733989
-0.000973424
6.78108e-09
0.00745453
-0.000897277
5.5997e-10
0.007558
-0.000824037
-7.75455e-10
0.0076515
-0.000754011
3.52171e-10
0.007736
-0.000687314
8.85555e-10
0.00781225
-0.000623938
4.7875e-10
0.00788083
-0.000563718
2.41865e-10
0.00794218
-0.000506433
2.52801e-10
0.00799666
-0.000451894
3.93384e-10
0.00804461
-0.000399975
1.50506e-10
0.00808633
-0.00035057
-1.68358e-11
0.00812213
-0.000303594
-4.27428e-10
0.00815229
-0.000258957
-5.13864e-10
0.00817711
-0.000216582
-9.32637e-10
0.00819685
-0.000176382
-8.10422e-10
0.0082118
-0.000138273
-1.25161e-09
0.00822222
-0.00010216
-8.31717e-10
0.00822833
-6.79389e-05
-1.374e-09
0.0082304
-3.55096e-05
-5.56291e-10
0.00822859
-4.74693e-06
-1.47362e-09
0.00822313
2.43625e-05
-2.47948e-10
0.00821421
5.18906e-05
-2.23604e-09
0.00820202
7.79275e-05
9.92165e-12
0.00818671
0.000102481
-2.78847e-09
0.00816847
0.000125616
1.15703e-09
0.00814745
0.000147275
-3.75741e-09
0.00812383
0.000167479
2.86172e-09
0.00809777
0.000186125
-5.55246e-09
0.0080695
0.000203188
5.68645e-09
0.0080392
0.000218545
-8.73345e-09
0.00800712
0.000232121
1.02791e-08
0.00797349
0.000243833
-1.4163e-08
0.00793861
0.000253541
1.74636e-08
0.00790273
0.000261307
-2.23956e-08
0.00786616
0.000266856
2.67235e-08
0.00782918
0.000270592
-2.97177e-08
0.000271897
2.16084e-08
0.00535487
-0.000133929
9.64904e-09
0.00541853
-0.000398715
-1.83778e-08
0.00552409
-0.000655244
-3.57882e-08
0.00566796
-0.00089096
-2.16264e-08
0.00584648
-0.00109904
-2.07266e-08
0.00605306
-0.0012695
-1.36229e-08
0.00627886
-0.00139389
7.84103e-10
0.00651351
-0.00146703
2.59384e-08
0.00674513
-0.00148657
5.72418e-08
0.00696307
-0.00145704
7.87426e-08
0.00716041
-0.00139024
7.63596e-08
0.00733496
-0.00130141
5.2508e-08
0.00748839
-0.00120466
1.77934e-08
0.00762414
-0.00110917
-1.22721e-11
0.00774532
-0.00101845
-9.06617e-09
0.00785407
-0.000932779
-5.79358e-09
0.00795185
-0.000851782
-2.48279e-09
0.00803976
-0.00077522
-2.25014e-09
0.00811863
-0.000702812
-3.70327e-09
0.00818907
-0.000634152
-4.0175e-09
0.00825151
-0.000568869
-3.85041e-09
0.00830633
-0.000506714
-3.71039e-09
0.0083539
-0.000447539
-4.05552e-09
0.00839457
-0.000391237
-4.25885e-09
0.0084287
-0.000337715
-4.65049e-09
0.00845664
-0.000286892
-4.59016e-09
0.00847874
-0.000238677
-4.87271e-09
0.00849535
-0.000192994
-4.52493e-09
0.00850682
-0.000149731
-4.77455e-09
0.00851347
-0.000108809
-3.95313e-09
0.00851561
-7.00694e-05
-3.93223e-09
0.00851351
-3.34071e-05
-2.53767e-09
0.00850738
1.38142e-06
-3.35038e-09
0.00849749
3.42569e-05
-2.79398e-09
0.00848407
6.53157e-05
-5.24749e-09
0.00846735
9.46523e-05
-2.58979e-09
0.00844746
0.00012237
-5.44251e-09
0.00842465
0.000148433
-9.50354e-10
0.00839901
0.000172917
-6.15055e-09
0.00837081
0.000195681
1.20475e-09
0.00834013
0.000216813
-7.71636e-09
0.00830728
0.000236031
4.641e-09
0.00827235
0.000253483
-1.07463e-08
0.00823573
0.00026873
9.96385e-09
0.00819751
0.000282073
-1.61798e-08
0.00815816
0.000292871
1.80573e-08
0.00811777
0.000301726
-2.46052e-08
0.00807689
0.000307706
2.82444e-08
0.00803556
0.000311952
-3.20987e-08
0.000312995
2.27449e-08
0.00535843
-0.000159033
1.14636e-08
0.0054321
-0.000472372
-1.66199e-08
0.00555546
-0.000778552
-4.42611e-08
0.00572377
-0.00105925
-2.44887e-08
0.00593454
-0.00130977
-3.27283e-08
0.00617955
-0.00151449
-2.1054e-08
0.00644826
-0.0016626
-1.90514e-09
0.00672731
-0.00174611
3.51866e-08
0.0070003
-0.00175964
8.92497e-08
0.00725272
-0.00170958
1.25301e-07
0.00747582
-0.00161346
1.16319e-07
0.00766801
-0.00149366
6.0404e-08
0.00783331
-0.00136996
1.24905e-08
0.00797741
-0.00125326
-2.56792e-08
0.00810465
-0.00114565
-3.11302e-08
0.00821757
-0.00104568
-1.87221e-08
0.00831786
-0.00095206
-1.09878e-08
0.00840681
-0.000864159
-1.23103e-08
0.00848534
-0.000781335
-1.37528e-08
0.00855411
-0.000702901
-1.38003e-08
0.00861361
-0.000628355
-1.3256e-08
0.00866433
-0.000557431
-1.28745e-08
0.00870679
-0.000489982
-1.30034e-08
0.00874148
-0.000425911
-1.27966e-08
0.0087689
-0.000365122
-1.26735e-08
0.00878956
-0.000307541
-1.19371e-08
0.00880396
-0.000253064
-1.15579e-08
0.00881258
-0.000201609
-1.0363e-08
0.00881588
-0.000153021
-9.90078e-09
0.00881429
-0.000107214
-8.06191e-09
0.00880824
-6.40072e-05
-7.09371e-09
0.00879811
-2.32715e-05
-3.90072e-09
0.00878397
1.5522e-05
-5.43624e-09
0.00876632
5.19137e-05
-5.89376e-09
0.00874537
8.62763e-05
-8.74622e-09
0.00872138
0.00011865
-5.78711e-09
0.00869447
0.000149291
-8.73425e-09
0.00866491
0.000177992
-3.84994e-09
0.00863276
0.000205078
-9.19042e-09
0.00859832
0.000230119
-1.17202e-09
0.00856159
0.000253558
-1.04272e-08
0.00852296
0.000274654
2.86375e-09
0.00848237
0.000294087
-1.31387e-08
0.00844037
0.000310722
8.96112e-09
0.00839681
0.000325646
-1.83733e-08
0.00835244
0.000337224
1.80247e-08
0.00830702
0.000347175
-2.67927e-08
0.00826148
0.000353221
2.92911e-08
0.00821545
0.000358011
-3.44168e-08
0.00035835
2.37615e-08
0.00536261
-0.000188323
1.44001e-08
0.00544796
-0.000557708
-1.13135e-08
0.00559282
-0.000923354
-5.47627e-08
0.00579056
-0.00125697
-2.50593e-08
0.00604199
-0.00156115
-5.21414e-08
0.00633598
-0.00180846
-2.84687e-08
0.00666077
-0.00198739
-7.59007e-09
0.0069981
-0.00208349
4.63598e-08
0.00732458
-0.00208626
1.29605e-07
0.00762031
-0.0020055
1.81969e-07
0.00787356
-0.00186687
1.66606e-07
0.00808374
-0.00170391
7.20488e-08
0.00825873
-0.00154495
-5.39171e-09
0.00840748
-0.00140194
-7.01614e-08
0.00853564
-0.00127374
-7.03356e-08
0.00864623
-0.00115622
-4.70684e-08
0.00874139
-0.00104719
-3.48172e-08
0.00882281
-0.000945547
-3.35937e-08
0.00889168
-0.000850166
-3.31632e-08
0.00894887
-0.00076006
-3.07414e-08
0.0089952
-0.000674657
-2.82526e-08
0.00903151
-0.000593711
-2.64909e-08
0.00905863
-0.000517077
-2.5302e-08
0.00907739
-0.00044465
-2.35985e-08
0.00908859
-0.000376301
-2.18808e-08
0.009093
-0.000311935
-1.95525e-08
0.00909134
-0.000251384
-1.75054e-08
0.0090843
-0.000194558
-1.46819e-08
0.00907248
-0.000141188
-1.22228e-08
0.00905646
-9.11865e-05
-8.92289e-09
0.0090366
-4.41317e-05
-6.26962e-09
0.0090137
-3.73015e-07
-3.72039e-09
0.00898736
4.1869e-05
-7.50715e-09
0.0089585
8.07833e-05
-8.19415e-09
0.00892715
0.000117639
-1.07556e-08
0.00889359
0.000152216
-7.68132e-09
0.0088579
0.000184997
-1.08299e-08
0.00882033
0.000215562
-5.83048e-09
0.00878084
0.000244578
-1.1222e-08
0.00873975
0.000271212
-2.99533e-09
0.0086969
0.000296427
-1.22675e-08
0.00865274
0.000318813
1.29441e-09
0.00860698
0.000339853
-1.47278e-08
0.00856034
0.000357364
7.72919e-09
0.00851234
0.000373658
-1.96861e-08
0.00846401
0.000385541
1.72711e-08
0.00841468
0.000396527
-2.79145e-08
0.00836572
0.000402159
2.92093e-08
0.00831623
0.00040753
-3.56549e-08
0.000406652
2.40874e-08
0.00536728
-0.000222283
1.98004e-08
0.00546611
-0.000656536
-2.31743e-09
0.00563635
-0.00109354
-6.59799e-08
0.00586898
-0.00148957
-2.36001e-08
0.00617187
-0.00186395
-8.37399e-08
0.00652806
-0.00216462
-2.75411e-08
0.006927
-0.00238632
-1.32023e-08
0.00734201
-0.00249857
7.93999e-08
0.00773786
-0.0024823
1.91241e-07
0.00808601
-0.00235388
2.27148e-07
0.00836946
-0.00215049
1.73972e-07
0.00859014
-0.00192464
4.59848e-08
0.00876294
-0.00171768
-7.04369e-08
0.0089014
-0.00154025
-1.37713e-07
0.00901303
-0.00138525
-1.19912e-07
0.00910195
-0.00124506
-8.33199e-08
0.00917171
-0.00111688
-6.75142e-08
0.00922485
-0.000998623
-6.33893e-08
0.00926327
-0.000888531
-5.72759e-08
0.00928856
-0.000785297
-4.83791e-08
0.00930224
-0.000688303
-4.10751e-08
0.00930584
-0.000597274
-3.58835e-08
0.00930077
-0.000511975
-3.18485e-08
0.00928834
-0.000432188
-2.75374e-08
0.00926973
-0.000357665
-2.36181e-08
0.00924599
-0.000288177
-1.92732e-08
0.00921805
-0.000223432
-1.55594e-08
0.0091867
-0.000163197
-1.07564e-08
0.0091527
-0.000107181
-6.55602e-09
0.0091167
-5.51805e-05
-1.9818e-09
0.00907915
-6.58781e-06
-4.04239e-10
0.00903951
3.92749e-05
-6.02109e-09
0.00899933
8.20639e-05
-1.11039e-08
0.0089582
0.000121919
-8.46408e-09
0.00891631
0.000159539
-9.44574e-09
0.00887383
0.000194698
-6.27747e-09
0.0088307
0.000228143
-9.4856e-09
0.00878704
0.000259225
-4.66221e-09
0.00874265
0.000288971
-9.95635e-09
0.00869776
0.000316113
-2.1672e-09
0.00865201
0.000342186
-1.11533e-08
0.0086058
0.000365021
1.56541e-09
0.00855863
0.000387037
-1.3676e-08
0.00851119
0.00040479
7.27338e-09
0.00846277
0.000422102
-1.84533e-08
0.00841449
0.000433804
1.59904e-08
0.00836532
0.000445722
-2.63265e-08
0.00831691
0.000450543
2.72163e-08
0.00826792
0.000456559
-3.41958e-08
0.000454136
2.28012e-08
0.00537206
-0.000261037
3.04582e-08
0.00548648
-0.000770961
7.27877e-09
0.00568515
-0.00129214
-7.21442e-08
0.00595898
-0.00176337
-2.78274e-08
0.00632635
-0.00223118
-1.38888e-07
0.00676009
-0.00259833
-3.6088e-08
0.00725726
-0.00288346
-3.23092e-08
0.00777806
-0.00301951
1.42999e-07
0.00826363
-0.00296819
3.1417e-07
0.00866601
-0.00275651
2.6309e-07
0.00896078
-0.00244533
7.39405e-08
0.0091608
-0.00212455
-1.18482e-07
0.00929431
-0.00185092
-2.68155e-07
0.0093823
-0.00162798
-2.51674e-07
0.0094354
-0.0014382
-1.50341e-07
0.00946099
-0.00127057
-7.94505e-08
0.00946503
-0.00112084
-7.44621e-08
0.00945212
-0.000985649
-6.96168e-08
0.00942541
-0.000861756
-5.72519e-08
0.0093877
-0.000747547
-4.17969e-08
0.0093416
-0.000642177
-3.03293e-08
0.00928941
-0.000545062
-2.25798e-08
0.00923307
-0.000455614
-1.67764e-08
0.00917417
-0.000373284
-1.14885e-08
0.00911404
-0.000297524
-7.34144e-09
0.00905368
-0.000227817
-3.18462e-09
0.00899391
-0.000163658
-4.91974e-10
0.00893522
-0.000104505
3.30547e-09
0.00887799
-4.99645e-05
5.94979e-09
0.00882351
-7.02691e-07
6.52262e-09
0.00876963
4.7288e-05
-4.19737e-10
0.00871822
9.069e-05
-5.30368e-09
0.00866882
0.000131473
-6.2031e-09
0.00862125
0.000169494
-1.47338e-09
0.00857535
0.000205444
-2.28548e-09
0.00853098
0.00023906
4.50275e-10
0.00848787
0.000271258
-2.76624e-09
0.00844586
0.000301234
1.35285e-09
0.00840458
0.000330254
-3.85956e-09
0.00836396
0.000356731
2.6457e-09
0.00832353
0.000382618
-5.77782e-09
0.00828342
0.000405133
4.74365e-09
0.00824301
0.000427452
-8.78412e-09
0.00820277
0.00044502
8.32185e-09
0.00816188
0.000463009
-1.34439e-08
0.0081213
0.000474368
1.42918e-08
0.00807988
0.00048717
-2.05206e-08
0.00803919
0.000491205
2.23945e-08
0.00799777
0.000498008
-2.81893e-08
0.000494288
1.85903e-08
0.00537652
-0.000304267
5.12728e-08
0.00550854
-0.000903003
1.83516e-08
0.00573608
-0.00151962
-5.60738e-08
0.00605951
-0.00208675
-5.4816e-08
0.00650431
-0.00267574
-2.28537e-07
0.00703401
-0.00312791
-1.16631e-07
0.0076648
-0.00351413
-1.1304e-07
0.00832578
-0.00368064
1.45786e-07
0.00891814
-0.00356102
4.66898e-07
0.00934203
-0.00318079
3.91387e-07
0.00957404
-0.00267739
4.01085e-08
0.00966726
-0.00221736
-4.00048e-07
0.00967607
-0.00185916
-5.74578e-07
0.00963003
-0.00158156
-3.88517e-07
0.0095473
-0.00135536
-1.1371e-07
0.00944153
-0.00116478
-2.26753e-08
0.00932241
-0.00100173
6.93314e-09
0.00919585
-0.000859103
1.22141e-08
0.00906651
-0.000732429
2.06047e-08
0.00893797
-0.000619044
2.86425e-08
0.00881317
-0.000517399
3.07681e-08
0.00869414
-0.000426064
3.01203e-08
0.00858222
-0.000343728
2.89035e-08
0.00847819
-0.000269283
2.77222e-08
0.00838236
-0.000201719
2.57561e-08
0.00829473
-0.000140208
2.3768e-08
0.00821501
-8.39635e-05
2.14146e-08
0.008143
-3.25109e-05
1.96578e-08
0.00807822
1.47964e-05
1.35848e-08
0.00801891
5.8608e-05
5.91136e-09
0.00796632
9.98725e-05
1.97524e-09
0.00791894
0.000138062
5.89315e-09
0.00787638
0.00017403
7.63329e-09
0.00783804
0.000207818
1.06231e-08
0.00780339
0.000240094
9.10352e-09
0.00777188
0.000270559
1.08419e-08
0.00774302
0.000300109
7.29696e-09
0.00771632
0.000327922
1.00976e-08
0.0076913
0.000355265
4.90362e-09
0.00766754
0.000380481
9.52555e-09
0.00764458
0.000405582
1.94852e-09
0.00762211
0.00042759
9.39577e-09
0.00759967
0.000449893
-1.48728e-09
0.00757722
0.000467457
9.96913e-09
0.0075542
0.00048604
-5.54596e-09
0.00753101
0.000497541
1.15501e-08
0.00750685
0.000511346
-1.05346e-08
0.00748273
0.000515314
1.36982e-08
0.00745758
0.000523168
-1.64513e-08
0.000519204
9.76679e-09
0.00538049
-0.000351505
8.8738e-08
0.00552953
-0.0010521
5.16845e-08
0.00578262
-0.00177272
1.08383e-08
0.00616593
-0.00246995
-1.07925e-07
0.00669297
-0.00320246
-3.19223e-07
0.00734544
-0.00378003
-3.55557e-07
0.00817514
-0.00434343
-4.06298e-07
0.0089845
-0.00449002
3.05937e-08
0.00964123
-0.00421812
3.75447e-07
0.00994817
-0.00348831
5.79143e-07
0.00993546
-0.00266496
2.82666e-07
0.00974752
-0.00202926
-1.64475e-07
0.00948089
-0.00159192
-6.07217e-07
0.00917429
-0.00127458
-3.83459e-07
0.00886143
-0.00104248
-1.94063e-08
0.00856101
-0.000864502
1.47648e-07
0.00828235
-0.000723243
1.71136e-07
0.00802902
-0.000605933
1.5788e-07
0.00780249
-0.000506043
1.45855e-07
0.00760318
-0.000419856
1.25522e-07
0.00743012
-0.000344439
1.01172e-07
0.00728149
-0.000277518
8.0327e-08
0.00715502
-0.000217328
6.47001e-08
0.00704829
-0.0001626
5.31025e-08
0.00695886
-0.000112338
4.3449e-08
0.00688447
-6.58521e-05
3.50139e-08
0.00682302
-2.25357e-05
2.68643e-08
0.00677273
1.77622e-05
2.01885e-08
0.0067319
5.56101e-05
1.66654e-08
0.0066992
9.12887e-05
1.53104e-08
0.00667382
0.000125239
1.56011e-08
0.00665447
0.000157393
1.88752e-08
0.00664032
0.000188162
1.86213e-08
0.00663058
0.000217534
1.89435e-08
0.00662461
0.000246048
1.62467e-08
0.00662172
0.000273428
1.67835e-08
0.00662142
0.000300404
1.32304e-08
0.00662305
0.000326276
1.48583e-08
0.00662621
0.000352091
1.01844e-08
0.00663026
0.000376415
1.31942e-08
0.00663492
0.00040092
7.06806e-09
0.00663953
0.00042297
1.16739e-08
0.00664395
0.000445466
4.0408e-09
0.00664759
0.000463811
9.836e-09
0.00665043
0.000483194
1.531e-09
0.00665208
0.000495885
6.77429e-09
0.00665251
0.000510918
9.70452e-10
0.00665175
0.000516067
4.9457e-10
0.00664963
0.000525291
5.65013e-10
0.000522615
-5.49143e-09
0.0053836
-0.000401909
1.44489e-07
0.0055417
-0.00121033
1.25844e-07
0.00581496
-0.0020461
1.26408e-07
0.00625689
-0.00291176
-1.28973e-07
0.00685926
-0.00380456
-2.71816e-07
0.00768499
-0.00460506
-7.02292e-07
0.00879755
-0.00545524
-7.52512e-07
0.0096646
-0.00535699
-8.06198e-08
0.0100966
-0.00124923
-1.1327e-07
-0.00107588
-0.00124779
-0.00107707
0.00993652
-0.000913981
2.4931e-07
-0.000750474
-0.000913073
-0.000750989
0.0093534
-0.000568983
9.38667e-07
-0.000472554
-0.000568585
-0.000472659
0.00862304
-0.000335484
3.52635e-07
-0.000313927
-0.000335926
-0.000313919
0.00790881
-0.000877581
-1.03943e-07
0.00727129
-0.000636944
-1.16349e-07
0.00674334
-0.000514678
1.49617e-07
0.00632141
-0.000442736
1.59384e-07
0.00599213
-0.000394033
7.63956e-08
0.00573897
-0.000352825
5.4461e-08
0.00554686
-0.000313999
5.77446e-08
0.00540259
-0.000275638
5.42465e-08
0.00529531
-0.000237209
4.73598e-08
0.00521657
-0.000198812
4.1174e-08
0.00515992
-0.000160713
3.54338e-08
0.00512051
-0.000123226