0 	6.11019e-09
1.57135 	-5.73891e-07
3.1427 	-2.02005e-06
4.71405 	-1.36832e-06
6.28539 	9.19681e-06
7.85674 	4.60468e-05
9.42809 	0.000119447
10.9994 	0.00015784
12.5708 	-0.000715049
14.1421 	0.011466
