0 	4.21619e-09
1.57135 	-1.07459e-05
3.1427 	-5.08187e-05
4.71405 	-0.000141662
6.28539 	-0.000269224
7.85674 	-0.000582552
9.42809 	-0.00092928
10.9994 	-0.00305112
12.5708 	0.0074968
14.1421 	0.0320779
