/*--------------------------------*- C++ -*----------------------------------*\
  =========                 |
  \\      /  F ield         | OpenFOAM: The Open Source CFD Toolbox
   \\    /   O peration     | Website:  https://openfoam.org
    \\  /    A nd           | Version:  8
     \\/     M anipulation  |
\*---------------------------------------------------------------------------*/
FoamFile
{
    version     2.0;
    format      ascii;
    class       volScalarField;
    location    "52.5";
    object      p;
}
// * * * * * * * * * * * * * * * * * * * * * * * * * * * * * * * * * * * * * //

dimensions      [0 2 -2 0 0 0 0];

internalField   nonuniform List<scalar> 
116
(
-1.47951e-08
-0.00111449
-0.0016843
-0.00346237
0.00125397
-0.00867321
-8.05565e-06
-0.000867166
-0.000452593
-0.00417905
-0.00170326
-0.00306541
0.000981222
-2.0589e-05
-0.000432068
-0.00305566
-0.00565314
-0.00818342
0.00168339
0.00110961
-0.000123333
-0.00334772
-0.00730861
-0.00895343
0.0018563
0.00126642
-0.000502594
-0.00434791
-0.00903875
-0.0108463
0.00116199
0.000856077
-0.000923547
-0.00435819
-0.00894803
-0.0107821
0.0013337
0.000886573
-0.000551552
-0.00386517
-0.00837265
-0.0111248
0.000337301
0.00103457
0.000490194
-0.0017257
-0.00506775
-0.00748988
0.00170287
0.00102859
0.00245457
0.000550816
-0.00243789
-0.00539999
-0.00356816
0.00440795
0.00455986
0.00309481
-0.00040455
-0.00271544
0.0022763
0.0110464
0.00949501
0.0152169
-0.00222953
0.00183756
0.00492439
0.00851429
-0.00887911
-0.00623088
-0.00248853
0.000870719
-0.00999356
-0.00881419
-0.007022
-0.00384323
-0.0113112
-0.0103701
-0.00962239
-0.00660976
-0.0115397
-0.0101257
-0.0100628
-0.00657857
-0.0118623
-0.00987601
-0.0106973
-0.00333507
-0.00756399
-0.00544443
-0.00434518
0.00655133
-0.0073036
-0.00494576
-0.00279471
0.0146993
-0.00280491
0.00438696
0.0185021
0.0556256
0.0191501
0.0181677
0.0179835
0.0212671
0.0169634
0.0170854
0.0151224
0.0173717
0.0132402
0.0139574
0.0120013
0.0130437
0.00960877
0.0173226
0.0103867
0.0151195
)
;

boundaryField
{
    movingWall
    {
        type            zeroGradient;
    }
    fixedWalls
    {
        type            zeroGradient;
    }
    frontAndBack
    {
        type            empty;
    }
}


// ************************************************************************* //
