/*--------------------------------*- C++ -*----------------------------------*\
  =========                 |
  \\      /  F ield         | OpenFOAM: The Open Source CFD Toolbox
   \\    /   O peration     | Website:  https://openfoam.org
    \\  /    A nd           | Version:  8
     \\/     M anipulation  |
\*---------------------------------------------------------------------------*/
FoamFile
{
    version     2.0;
    format      ascii;
    class       volVectorField;
    location    "52.5";
    object      U;
}
// * * * * * * * * * * * * * * * * * * * * * * * * * * * * * * * * * * * * * //

dimensions      [0 1 -1 0 0 0 0];

internalField   nonuniform List<vector> 
116
(
(0.0197904 -0.0117178 0)
(0.0177675 -0.0114023 0)
(0.0515529 -0.0207533 0)
(0.013035 -0.0214225 0)
(0.0117753 0.063594 0)
(-0.16077 0.0906188 0)
(0.00988701 -0.0280403 0)
(-0.00532221 -0.0179218 0)
(-0.0161761 0.0204049 0)
(-0.0975251 0.0664327 0)
(-0.112927 0.0931667 0)
(-0.169717 0.0653668 0)
(-0.00294102 -0.0146822 0)
(-0.0325748 0.0174858 0)
(-0.0592596 0.0625301 0)
(-0.104679 0.0930437 0)
(-0.111212 0.120768 0)
(-0.120011 0.0747369 0)
(-0.00986047 0.00540067 0)
(-0.0342919 0.0433441 0)
(-0.0564931 0.0906289 0)
(-0.0845985 0.11567 0)
(-0.0806483 0.113469 0)
(-0.0606113 0.0431621 0)
(-0.00531084 0.0300535 0)
(-0.0256899 0.0632059 0)
(-0.0429843 0.105586 0)
(-0.0509348 0.11459 0)
(-0.0420822 0.0959715 0)
(-0.0231157 0.0273649 0)
(-0.00313979 0.0348889 0)
(-0.0103229 0.0807116 0)
(-0.00998896 0.112668 0)
(-0.00857581 0.118136 0)
(-0.00527491 0.0955529 0)
(0.0030408 0.035727 0)
(0.00164008 0.0477822 0)
(0.00306021 0.0725908 0)
(0.0031062 0.105839 0)
(0.0181751 0.105251 0)
(0.0274303 0.0802976 0)
(0.0449075 0.0325794 0)
(0.00728348 0.0259113 0)
(0.0146333 0.0792777 0)
(0.0387105 0.0948619 0)
(0.064062 0.0976464 0)
(0.0758909 0.0766385 0)
(0.0937604 0.0458795 0)
(-0.0570631 0.0329 0)
(-0.0194202 0.0367492 0)
(-0.00905871 0.0572036 0)
(0.0395626 0.0632605 0)
(0.0614626 0.0468062 0)
(0.0924392 0.0327896 0)
(0.0526473 0.0905497 0)
(0.0839907 0.0422416 0)
(0.115529 0.0330802 0)
(0.179207 0.0299404 0)
(0.199336 0.0255049 0)
(0.252111 0.0223935 0)
(-0.112845 0.118223 0)
(-0.11493 -0.0342195 0)
(-0.0302573 -0.00100056 0)
(-0.00685545 -0.136285 0)
(-0.108367 0.0825883 0)
(-0.112375 -0.0709021 0)
(-0.0865829 -0.0761511 0)
(0.00530757 -0.174598 0)
(-0.0772935 0.0581431 0)
(-0.0526606 -0.0639285 0)
(-0.0751443 -0.117033 0)
(0.000506234 -0.219853 0)
(-0.0438944 0.0291691 0)
(-0.0102482 -0.06609 0)
(-0.046904 -0.121716 0)
(0.00910923 -0.24258 0)
(-0.0322775 0.00673208 0)
(0.00614201 -0.0687264 0)
(-0.0410056 -0.136608 0)
(0.0124311 -0.26585 0)
(-0.016019 0.00278286 0)
(0.031166 -0.055958 0)
(-0.0264341 -0.119756 0)
(0.0201665 -0.27225 0)
(0.0228078 -0.021647 0)
(0.050812 -0.0660047 0)
(-0.023029 -0.133988 0)
(0.0279078 -0.277654 0)
(0.0735935 0.00449081 0)
(0.0721375 -0.00868386 0)
(0.00953505 -0.0782858 0)
(0.0510567 -0.251778 0)
(0.0872447 -0.000498816 0)
(0.0934932 -0.0166886 0)
(0.0687829 -0.121422 0)
(0.0806357 -0.252823 0)
(0.24794 0.0141575 0)
(0.273737 0.00279167 0)
(0.215504 -0.0234758 0)
(0.152688 -0.0678106 0)
(-0.0222798 0.00477251 0)
(-0.0584767 0.00414113 0)
(-0.072504 -0.00118995 0)
(-0.0431562 -0.0362771 0)
(-0.0195457 0.0730819 0)
(-0.0464121 0.0461182 0)
(-0.0426247 -0.00758122 0)
(-0.0427259 -0.0869479 0)
(-0.0363081 0.0713508 0)
(-0.00546167 0.0168955 0)
(-0.0143516 0.00277416 0)
(-0.0314701 -0.128076 0)
(-0.00798914 0.123241 0)
(-0.0436173 0.028468 0)
(0.0298456 0.0233331 0)
(-0.0347128 -0.121915 0)
)
;

boundaryField
{
    movingWall
    {
        type            fixedValue;
        value           uniform (1 0 0);
    }
    fixedWalls
    {
        type            noSlip;
    }
    frontAndBack
    {
        type            empty;
    }
}


// ************************************************************************* //
