/*--------------------------------*- C++ -*----------------------------------*\
  =========                 |
  \\      /  F ield         | OpenFOAM: The Open Source CFD Toolbox
   \\    /   O peration     | Website:  https://openfoam.org
    \\  /    A nd           | Version:  8
     \\/     M anipulation  |
\*---------------------------------------------------------------------------*/
FoamFile
{
    version     2.0;
    format      ascii;
    class       volScalarField;
    location    "0.15";
    object      p;
}
// * * * * * * * * * * * * * * * * * * * * * * * * * * * * * * * * * * * * * //

dimensions      [0 2 -2 0 0 0 0];

internalField   nonuniform List<scalar> 
400
(
-8.53741e-08
-0.00580663
-0.0129218
-0.0183594
-0.0203703
-0.0181795
-0.0117274
-0.00145783
0.011836
0.0271167
0.04318
0.0587293
0.0724614
0.0831764
0.0899168
0.0921389
0.0899161
0.0841578
0.0768225
0.0710312
0.005754
-0.00022685
-0.00580225
-0.00953334
-0.0105863
-0.00842149
-0.00296529
0.00546754
0.0162813
0.0286731
0.0416937
0.0543141
0.0655023
0.0743189
0.0800289
0.0822314
0.0810063
0.0770003
0.0712361
0.0653022
0.0132779
0.00500342
-0.00101602
-0.00443672
-0.00528205
-0.00327227
0.00159094
0.00900953
0.0184745
0.0293105
0.0407149
0.0518081
0.0616985
0.069562
0.0747336
0.0768119
0.0757884
0.0720484
0.0657843
0.0575467
0.0200512
0.00864444
0.0011848
-0.0027013
-0.00374849
-0.00190833
0.00270858
0.00975946
0.0187506
0.0290588
0.0399483
0.0506029
0.0601761
0.0678565
0.0729458
0.0749516
0.0737286
0.0694344
0.0615976
0.0501382
0.0243885
0.0097055
0.000533158
-0.00403385
-0.00534069
-0.0035399
0.00114577
0.00830716
0.0174342
0.0279188
0.0390507
0.050031
0.0600062
0.068121
0.0735846
0.0757631
0.0743464
0.0692817
0.0595328
0.0445932
0.0250518
0.00707614
-0.00386594
-0.00911065
-0.0105553
-0.00853487
-0.0033852
0.0044059
0.0142927
0.0256589
0.037792
0.0498787
0.0610207
0.0702744
0.0767074
0.0794954
0.0781281
0.0723356
0.0605542
0.0419594
0.0209699
-0.000331358
-0.0129966
-0.0187612
-0.0200702
-0.0174442
-0.0113399
-0.0023338
0.0089816
0.02197
0.0359034
0.0499362
0.0631012
0.0743321
0.0825085
0.0865596
0.0857192
0.0794559
0.0656373
0.0431463
0.0110359
-0.0136716
-0.027927
-0.0338973
-0.0346347
-0.0308776
-0.0232226
-0.0123457
0.00111142
0.0164946
0.0330642
0.0499436
0.0660898
0.0802926
0.0912008
0.0974307
0.0978765
0.0916488
0.0759102
0.0491892
-0.0060463
-0.0342957
-0.0499054
-0.0555774
-0.0551077
-0.0495209
-0.0395886
-0.026098
-0.00973327
0.00885215
0.0289317
0.0496222
0.0698216
0.0881729
0.103061
0.112712
0.115563
0.110206
0.0928404
0.0614766
-0.0319023
-0.0638761
-0.0804324
-0.0850193
-0.0824223
-0.0740698
-0.0609609
-0.0440052
-0.0239106
-0.00128972
0.0231947
0.0487077
0.0741364
0.0980051
0.118421
0.133145
0.140006
0.136832
0.118435
0.0819876
-0.0686788
-0.104573
-0.12134
-0.123587
-0.117504
-0.105105
-0.0876854
-0.0662806
-0.0415815
-0.0140931
0.0156703
0.0470149
0.0789102
0.109838
0.137658
0.159611
0.172748
0.173791
0.1555
0.113612
-0.119388
-0.159301
-0.174896
-0.172743
-0.161127
-0.1429
-0.119719
-0.0927238
-0.0625127
-0.029375
0.00644824
0.0445452
0.0841183
0.123755
0.161175
0.193114
0.215691
0.224087
0.208014
0.160664
-0.188604
-0.23217
-0.243914
-0.233931
-0.213673
-0.187126
-0.156333
-0.122448
-0.0858314
-0.0463966
-0.00393599
0.0416134
0.0899071
0.139881
0.189356
0.234715
0.271094
0.29167
0.281691
0.229805
-0.283963
-0.329232
-0.331814
-0.308271
-0.274696
-0.236421
-0.195735
-0.153565
-0.109781
-0.0636751
-0.0143641
0.038933
0.0966129
0.15832
0.222402
0.285302
0.341407
0.381575
0.384852
0.33187
-0.419339
-0.459623
-0.442355
-0.3958
-0.342135
-0.287741
-0.234605
-0.182902
-0.131565
-0.0789281
-0.0231524
0.0375324
0.104598
0.178865
0.25987
0.344965
0.428609
0.499693
0.529618
0.485444
-0.620593
-0.636739
-0.578713
-0.494226
-0.411273
-0.335688
-0.267797
-0.205975
-0.147514
-0.0893453
-0.028382
0.0383884
0.113834
0.200479
0.299961
0.411993
0.532992
0.651747
0.732721
0.722463
-0.935988
-0.87855
-0.741779
-0.597992
-0.474458
-0.372725
-0.288918
-0.21779
-0.153957
-0.0924491
-0.0286926
0.0417188
0.123275
0.220709
0.338895
0.482098
0.651902
0.841227
1.01519
1.09755
-1.47601
-1.2071
-0.920527
-0.691361
-0.517368
-0.387625
-0.290128
-0.213383
-0.148147
-0.08722
-0.0245712
0.0454634
0.128931
0.233042
0.367049
0.542578
0.771081
1.05913
1.40363
1.72959
-2.53604
-1.6335
-1.04472
-0.710729
-0.495703
-0.352115
-0.25456
-0.183609
-0.126187
-0.0736037
-0.019276
0.042774
0.119177
0.218711
0.354694
0.54778
0.826016
1.23672
1.91465
2.92003
-4.36002
-2.04714
-0.974043
-0.563215
-0.358063
-0.240397
-0.170325
-0.123936
-0.0875823
-0.0535611
-0.0166592
0.027688
0.0846579
0.161796
0.272489
0.442146
0.718137
1.22609
2.41335
4.8415
)
;

boundaryField
{
    movingWall
    {
        type            zeroGradient;
    }
    fixedWalls
    {
        type            zeroGradient;
    }
    frontAndBack
    {
        type            empty;
    }
}


// ************************************************************************* //
