/*--------------------------------*- C++ -*----------------------------------*\
  =========                 |
  \\      /  F ield         | OpenFOAM: The Open Source CFD Toolbox
   \\    /   O peration     | Website:  https://openfoam.org
    \\  /    A nd           | Version:  8
     \\/     M anipulation  |
\*---------------------------------------------------------------------------*/
FoamFile
{
    version     2.0;
    format      ascii;
    class       surfaceScalarField;
    location    "0.15";
    object      phi;
}
// * * * * * * * * * * * * * * * * * * * * * * * * * * * * * * * * * * * * * //

dimensions      [0 3 -1 0 0 0 0];

internalField   nonuniform List<scalar> 
760
(
1.42018e-08
-1.42017e-08
-2.20896e-08
3.62925e-08
-1.13819e-07
9.17297e-08
-2.44589e-07
1.3077e-07
-3.94687e-07
1.50099e-07
-5.45459e-07
1.50772e-07
-6.80848e-07
1.35389e-07
-7.87984e-07
1.07136e-07
-8.57323e-07
6.93396e-08
-8.82703e-07
2.538e-08
-8.61485e-07
-2.12179e-08
-7.94807e-07
-6.66781e-08
-6.87882e-07
-1.06924e-07
-5.50236e-07
-1.37645e-07
-3.95711e-07
-1.54525e-07
-2.41997e-07
-1.53714e-07
-1.09374e-07
-1.32623e-07
-1.83144e-08
-9.10591e-08
1.5654e-08
-3.3968e-08
1.56542e-08
-3.41113e-08
1.99093e-08
-1.79804e-07
1.81984e-07
-4.32544e-07
3.44468e-07
-7.61852e-07
4.60078e-07
-1.12837e-06
5.16619e-07
-1.49216e-06
5.14562e-07
-1.81715e-06
4.6038e-07
-2.07349e-06
3.63477e-07
-2.2387e-06
2.34547e-07
-2.29831e-06
8.49889e-08
-2.24641e-06
-7.31209e-08
-2.08616e-06
-2.26922e-07
-1.83029e-06
-3.62793e-07
-1.50121e-06
-4.66727e-07
-1.13049e-06
-5.25248e-07
-7.5713e-07
-5.27072e-07
-4.24049e-07
-4.65703e-07
-1.72121e-07
-3.42987e-07
-3.06647e-08
-1.75425e-07
-1.50107e-08
-9.20009e-08
1.1191e-07
-3.55957e-07
4.45941e-07
-7.62197e-07
7.50709e-07
-1.26446e-06
9.62337e-07
-1.80884e-06
1.061e-06
-2.34138e-06
1.04711e-06
-2.81317e-06
9.32167e-07
-3.18343e-06
7.33738e-07
-3.42131e-06
4.72435e-07
-3.50698e-06
1.70655e-07
-3.43237e-06
-1.47733e-07
-3.20191e-06
-4.57377e-07
-2.83307e-06
-7.31632e-07
-2.3564e-06
-9.43395e-07
-1.81471e-06
-1.06694e-06
-1.26065e-06
-1.08113e-06
-7.52255e-07
-9.74097e-07
-3.4593e-07
-7.49312e-07
-8.7079e-08
-4.34276e-07
-1.0209e-07
-1.44821e-07
2.5673e-07
-5.23971e-07
8.25092e-07
-1.07847e-06
1.30521e-06
-1.7423e-06
1.62617e-06
-2.44691e-06
1.76561e-06
-3.12679e-06
1.72699e-06
-3.7238e-06
1.52917e-06
-4.18993e-06
1.19987e-06
-4.48902e-06
7.71523e-07
-4.59774e-06
2.79381e-07
-4.50646e-06
-2.39018e-07
-4.21995e-06
-7.43882e-07
-3.75814e-06
-1.19344e-06
-3.15637e-06
-1.54517e-06
-2.46476e-06
-1.75855e-06
-1.74611e-06
-1.79978e-06
-1.07151e-06
-1.6487e-06
-5.13712e-07
-1.30711e-06
-1.38931e-07
-8.09058e-07
-2.41022e-07
-1.93104e-07
4.49833e-07
-6.83207e-07
1.31519e-06
-1.38195e-06
2.00396e-06
-2.20133e-06
2.44554e-06
-3.05717e-06
2.62145e-06
-3.87317e-06
2.54299e-06
-4.58386e-06
2.23986e-06
-5.13636e-06
1.75237e-06
-5.49124e-06
1.1264e-06
-5.62301e-06
4.11151e-07
-5.52064e-06
-3.41385e-07
-5.18833e-06
-1.07619e-06
-4.64649e-06
-1.73528e-06
-3.93265e-06
-2.25901e-06
-3.10173e-06
-2.58947e-06
-2.22488e-06
-2.67663e-06
-1.38619e-06
-2.48739e-06
-6.76831e-07
-2.01647e-06
-1.87305e-07
-1.29858e-06
-4.28327e-07
-2.39394e-07
6.89228e-07
-8.38469e-07
1.91427e-06
-1.67952e-06
2.845e-06
-2.65106e-06
3.41709e-06
-3.65249e-06
3.62288e-06
-4.59716e-06
3.48765e-06
-5.41375e-06
3.05646e-06
-6.04642e-06
2.38504e-06
-6.45424e-06
1.53421e-06
-6.61062e-06
5.67531e-07
-6.50326e-06
-4.48747e-07
-6.13476e-06
-1.44468e-06
-5.5241e-06
-2.34594e-06
-4.70852e-06
-3.07459e-06
-3.74536e-06
-3.55264e-06
-2.71273e-06
-3.70925e-06
-1.70798e-06
-3.49214e-06
-8.42927e-07
-2.88153e-06
-2.35696e-07
-1.90582e-06
-6.64023e-07
-2.86235e-07
9.75464e-07
-9.95355e-07
2.62339e-06
-1.97865e-06
3.8283e-06
-3.09952e-06
4.53796e-06
-4.24043e-06
4.76379e-06
-5.30527e-06
4.55249e-06
-6.21878e-06
3.96997e-06
-6.92443e-06
3.0907e-06
-7.38185e-06
1.99163e-06
-7.56466e-06
7.50345e-07
-7.45949e-06
-5.53919e-07
-7.06633e-06
-1.83785e-06
-6.4005e-06
-3.01177e-06
-5.49601e-06
-3.97908e-06
-4.40956e-06
-4.63909e-06
-3.22402e-06
-4.8948e-06
-2.04962e-06
-4.66653e-06
-1.02091e-06
-3.91024e-06
-2.87828e-07
-2.6389e-06
-9.51851e-07
-3.35928e-07
1.31139e-06
-1.15901e-06
3.44647e-06
-2.28533e-06
4.95461e-06
-3.55074e-06
5.80338e-06
-4.82072e-06
6.03376e-06
-5.99154e-06
5.72332e-06
-6.98706e-06
4.96549e-06
-7.75339e-06
3.85703e-06
-8.25359e-06
2.49182e-06
-8.4634e-06
9.60155e-07
-8.36891e-06
-6.48405e-07
-7.96649e-06
-2.24027e-06
-7.26525e-06
-3.71301e-06
-6.29206e-06
-4.95227e-06
-5.09844e-06
-5.83271e-06
-3.76805e-06
-6.22519e-06
-2.42209e-06
-6.01249e-06
-1.21937e-06
-5.11296e-06
-3.47329e-07
-3.51094e-06
-1.29918e-06
-3.90719e-07
1.70211e-06
-1.33408e-06
4.38983e-06
-2.60337e-06
6.2239e-06
-4.00337e-06
7.20338e-06
-5.38318e-06
7.41357e-06
-6.63505e-06
6.97519e-06
-7.68674e-06
6.01718e-06
-8.49194e-06
4.66223e-06
-9.02129e-06
3.02117e-06
-9.25549e-06
1.19435e-06
-9.18123e-06
-7.22663e-07
-8.79041e-06
-2.6311e-06
-8.08294e-06
-4.42047e-06
-7.07352e-06
-5.9617e-06
-5.80193e-06
-7.10429e-06
-4.34586e-06
-7.68126e-06
-2.83281e-06
-7.52555e-06
-1.44611e-06
-6.49966e-06
-4.17832e-07
-4.53922e-06
-1.71701e-06
-4.53421e-07
2.15553e-06
-1.52555e-06
5.46195e-06
-2.93458e-06
7.63293e-06
-4.44955e-06
8.71835e-06
-5.90541e-06
8.86942e-06
-7.19647e-06
8.26625e-06
-8.26186e-06
7.08257e-06
-9.06983e-06
5.4702e-06
-9.60426e-06
3.5556e-06
-9.85471e-06
1.4448e-06
-9.81039e-06
-7.66981e-07
-9.45835e-06
-2.98314e-06
-8.78624e-06
-5.09258e-06
-7.79044e-06
-6.9575e-06
-6.4901e-06
-8.40463e-06
-4.9464e-06
-9.22495e-06
-3.28411e-06
-9.18783e-06
-1.70819e-06
-8.07558e-06
-5.03463e-07
-5.74395e-06
-2.22047e-06
-5.28526e-07
2.68406e-06
-1.74025e-06
6.67368e-06
-3.27906e-06
9.17174e-06
-4.87319e-06
1.03125e-05
-6.34895e-06
1.03452e-05
-7.61301e-06
9.53031e-06
-8.62666e-06
8.09622e-06
-9.38197e-06
6.22551e-06
-9.88315e-06
4.05678e-06
-1.01335e-05
1.69513e-06
-1.01274e-05
-7.73017e-07
-9.84766e-06
-3.26291e-06
-9.26698e-06
-5.67327e-06
-8.357e-06
-7.86747e-06
-7.10511e-06
-9.65653e-06
-5.54094e-06
-1.07891e-05
-3.77084e-06
-1.09579e-05
-2.01224e-06
-9.83418e-06
-6.09727e-07
-7.14646e-06
-2.8302e-06
-6.24068e-07
3.30813e-06
-1.98867e-06
8.03828e-06
-3.63432e-06
1.08174e-05
-5.2455e-06
1.19237e-05
-6.65222e-06
1.17519e-05
-7.79002e-06
1.06681e-05
-8.65724e-06
8.96344e-06
-9.28096e-06
6.84923e-06
-9.69335e-06
4.46917e-06
-9.91651e-06
1.91829e-06
-9.95355e-06
-7.35982e-07
-9.78428e-06
-3.43218e-06
-9.36578e-06
-6.09177e-06
-8.63958e-06
-8.59366e-06
-7.5494e-06
-1.07467e-05
-6.0737e-06
-1.22648e-05
-4.27559e-06
-1.2756e-05
-2.36432e-06
-1.17454e-05
-7.44986e-07
-8.7658e-06
-3.57519e-06
-7.54633e-07
4.06276e-06
-2.28619e-06
9.56984e-06
-3.9905e-06
1.25217e-05
-5.51431e-06
1.34475e-05
-6.71648e-06
1.29541e-05
-7.58691e-06
1.15385e-05
-8.1796e-06
9.55613e-06
-8.56803e-06
7.23766e-06
-8.81859e-06
4.71973e-06
-8.97593e-06
2.07564e-06
-9.05483e-06
-6.5708e-07
-9.03539e-06
-3.45163e-06
-8.86105e-06
-6.26611e-06
-8.44184e-06
-9.01287e-06
-7.66836e-06
-1.15202e-05
-6.4459e-06
-1.34873e-05
-4.75872e-06
-1.44432e-05
-2.76799e-06
-1.37362e-05
-9.22788e-07
-1.0611e-05
-4.49798e-06
-9.45776e-07
5.00853e-06
-2.65063e-06
1.12747e-05
-4.31513e-06
1.41862e-05
-5.57955e-06
1.47119e-05
-6.379e-06
1.37535e-05
-6.7935e-06
1.1953e-05
-6.95234e-06
9.71497e-06
-6.9828e-06
7.26812e-06
-6.98658e-06
4.72352e-06
-7.0305e-06
2.11955e-06
-7.14222e-06
-5.45359e-07
-7.30643e-06
-3.28742e-06
-7.45988e-06
-6.11266e-06
-7.48732e-06
-8.98543e-06
-7.22534e-06
-1.17822e-05
-6.48808e-06
-1.42245e-05
-5.13682e-06
-1.57945e-05
-3.21665e-06
-1.56563e-05
-1.16476e-06
-1.26629e-05
-5.66274e-06
-1.23758e-06
6.24611e-06
-3.08531e-06
1.31224e-05
-4.51193e-06
1.56128e-05
-5.24097e-06
1.54409e-05
-5.36399e-06
1.38765e-05
-5.09279e-06
1.16818e-05
-4.64379e-06
9.26597e-06
-4.19369e-06
6.81801e-06
-3.86978e-06
4.39961e-06
-3.75282e-06
2.00259e-06
-3.88064e-06
-4.17545e-07
-4.2472e-06
-2.92086e-06
-4.79509e-06
-5.56477e-06
-5.40205e-06
-8.37848e-06
-5.86714e-06
-1.13171e-05
-5.9128e-06
-1.41789e-05
-5.23672e-06
-1.64705e-05
-3.66802e-06
-1.7225e-05
-1.50015e-06
-1.48308e-05
-7.16289e-06
-1.67308e-06
7.91919e-06
-3.51456e-06
1.49639e-05
-4.31889e-06
1.64172e-05
-4.09472e-06
1.52168e-05
-3.20122e-06
1.29831e-05
-2.00923e-06
1.04899e-05
-8.07756e-07
8.06449e-06
2.04995e-07
5.80526e-06
9.02699e-07
3.70191e-06
1.20954e-06
1.69576e-06
1.08617e-06
-2.94183e-07
5.26064e-07
-2.36075e-06
-4.36383e-07
-4.60233e-06
-1.70394e-06
-7.11092e-06
-3.08133e-06
-9.9397e-06
-4.23713e-06
-1.30231e-05
-4.69936e-06
-1.60083e-05
-3.96825e-06
-1.79562e-05
-1.94396e-06
-1.6855e-05
-9.10685e-06
-2.227e-06
1.01462e-05
-3.58956e-06
1.63265e-05
-3.08005e-06
1.59076e-05
-1.3483e-06
1.3485e-05
8.90392e-07
1.07444e-05
3.14604e-06
8.23421e-06
5.12705e-06
6.08347e-06
6.67585e-06
4.25647e-06
7.71173e-06
2.66603e-06
8.19182e-06
1.21566e-06
8.08925e-06
-1.91605e-07
7.38518e-06
-1.65668e-06
6.07443e-06
-3.29158e-06
4.18872e-06
-5.22521e-06
1.84605e-06
-7.59703e-06
-6.6722e-07
-1.05098e-05
-2.79489e-06
-1.38806e-05
-3.66113e-06
-1.70899e-05
-2.40726e-06
-1.81089e-05
-1.15141e-05
-2.5599e-06
1.27061e-05
-2.18119e-06
1.59478e-05
7.16848e-07
1.30096e-05
4.46682e-06
9.73503e-06
8.12875e-06
7.08243e-06
1.1295e-05
5.06792e-06
1.38206e-05
3.55788e-06
1.5678e-05
2.3991e-06
1.68804e-05
1.46362e-06
1.7443e-05
6.53041e-07
1.73646e-05
-1.13124e-07
1.66193e-05
-9.11464e-07
1.51572e-05
-1.82946e-06
1.29152e-05
-2.98319e-06
9.85539e-06
-4.53721e-06
6.05771e-06
-6.71213e-06
1.91037e-06
-9.7333e-06
-1.55714e-06
-1.36224e-05
-2.44327e-06
-1.72228e-05
-1.39574e-05
-8.09794e-07
1.35159e-05
4.07587e-06
1.10621e-05
1.02966e-05
6.78892e-06
1.57923e-05
4.23927e-06
2.01557e-05
2.7191e-06
2.34543e-05
1.76924e-06
2.58557e-05
1.15655e-06
2.75152e-05
7.39589e-07
2.85468e-05
4.31984e-07
2.90188e-05
1.81076e-07
2.89546e-05
-4.89185e-08
2.83316e-05
-2.88503e-07
2.70756e-05
-5.73415e-07
2.50499e-05
-9.57537e-07
2.20477e-05
-1.53503e-06
1.78125e-05
-2.47694e-06
1.217e-05
-4.09072e-06
5.47142e-06
-6.92389e-06
-1.5669e-07
-1.15947e-05
-1.41141e-05
1.35159e-05
2.4578e-05
3.13669e-05
3.56062e-05
3.83253e-05
4.00945e-05
4.1251e-05
4.19906e-05
4.24226e-05
4.26037e-05
4.25548e-05
4.22663e-05
4.16929e-05
4.07353e-05
3.92003e-05
3.67234e-05
3.26326e-05
2.57087e-05
1.41141e-05
)
;

boundaryField
{
    movingWall
    {
        type            calculated;
        value           uniform 0;
    }
    fixedWalls
    {
        type            calculated;
        value           uniform 0;
    }
    frontAndBack
    {
        type            empty;
        value           nonuniform List<scalar> 0();
    }
}


// ************************************************************************* //
