/*--------------------------------*- C++ -*----------------------------------*\
  =========                 |
  \\      /  F ield         | OpenFOAM: The Open Source CFD Toolbox
   \\    /   O peration     | Website:  https://openfoam.org
    \\  /    A nd           | Version:  8
     \\/     M anipulation  |
\*---------------------------------------------------------------------------*/
FoamFile
{
    version     2.0;
    format      ascii;
    class       volVectorField;
    location    "0.15";
    object      U;
}
// * * * * * * * * * * * * * * * * * * * * * * * * * * * * * * * * * * * * * //

dimensions      [0 1 -1 0 0 0 0];

internalField   nonuniform List<vector> 
400
(
(0.00025226 -0.000249299 0)
(0.000140572 0.000111178 0)
(-0.0011722 0.0005632 0)
(-0.00346792 0.00088303 0)
(-0.00635437 0.00104365 0)
(-0.0094361 0.00105987 0)
(-0.0123601 0.000956308 0)
(-0.0148342 0.00075933 0)
(-0.0166333 0.000494044 0)
(-0.0175995 0.000184519 0)
(-0.0176438 -0.000144736 0)
(-0.0167504 -0.000467297 0)
(-0.0149819 -0.000753908 0)
(-0.0124855 -0.000972475 0)
(-0.00949673 -0.00108933 0)
(-0.00633537 -0.00107233 0)
(-0.00338998 -0.000896927 0)
(-0.00108278 -0.000555891 0)
(0.000195785 -9.03928e-05 0)
(0.000266964 0.000261686 0)
(-7.84913e-05 -0.000168031 0)
(-0.00160764 0.00163944 0)
(-0.00567436 0.00360524 0)
(-0.0116795 0.00501855 0)
(-0.0188283 0.00572521 0)
(-0.0263112 0.00574255 0)
(-0.0333556 0.00515616 0)
(-0.0392933 0.00408059 0)
(-0.0435963 0.00264038 0)
(-0.0458925 0.000965045 0)
(-0.0459756 -0.000809513 0)
(-0.0438162 -0.00253808 0)
(-0.0395716 -0.00406521 0)
(-0.0335942 -0.00522861 0)
(-0.0264292 -0.00586879 0)
(-0.0187953 -0.00584788 0)
(-0.0115303 -0.00508064 0)
(-0.00549556 -0.00357972 0)
(-0.00148847 -0.00155427 0)
(-4.2835e-05 0.000227128 0)
(-0.000529057 0.00108945 0)
(-0.00370253 0.00571734 0)
(-0.0105572 0.0101892 0)
(-0.0199292 0.0133616 0)
(-0.0306665 0.0148953 0)
(-0.0416868 0.0147885 0)
(-0.0519497 0.0132111 0)
(-0.0605451 0.0104216 0)
(-0.0667497 0.00672056 0)
(-0.0700527 0.00243265 0)
(-0.0701716 -0.00209689 0)
(-0.0670674 -0.0065008 0)
(-0.0609576 -0.0103919 0)
(-0.0523238 -0.0133749 0)
(-0.0419073 -0.0150733 0)
(-0.0306805 -0.0151769 0)
(-0.0197696 -0.0135141 0)
(-0.0103326 -0.010148 0)
(-0.00353896 -0.00553331 0)
(-0.000476521 -0.000945067 0)
(-0.000927776 0.00347114 0)
(-0.00567752 0.0121822 0)
(-0.015258 0.0198558 0)
(-0.0278349 0.0251136 0)
(-0.0418601 0.0275044 0)
(-0.0560093 0.0270464 0)
(-0.0690409 0.0240282 0)
(-0.0798801 0.0188911 0)
(-0.0876782 0.0121566 0)
(-0.0918366 0.0043935 0)
(-0.0920222 -0.00379099 0)
(-0.0881832 -0.0117526 0)
(-0.0805642 -0.0188154 0)
(-0.0697179 -0.0242933 0)
(-0.056506 -0.0275369 0)
(-0.0420754 -0.0280128 0)
(-0.027779 -0.0254197 0)
(-0.015052 -0.0198322 0)
(-0.00549144 -0.0118913 0)
(-0.000860807 -0.0032143 0)
(-0.00127794 0.00685993 0)
(-0.00751864 0.0208909 0)
(-0.0197531 0.0324084 0)
(-0.035441 0.0399753 0)
(-0.0526027 0.0431509 0)
(-0.0696702 0.0420562 0)
(-0.0852309 0.0371567 0)
(-0.0980915 0.0291192 0)
(-0.107325 0.0187189 0)
(-0.11228 0.00679624 0)
(-0.11259 -0.00575532 0)
(-0.108182 -0.0179893 0)
(-0.0992977 -0.0289118 0)
(-0.0865126 -0.0375086 0)
(-0.0707539 -0.0428086 0)
(-0.0532959 -0.0439939 0)
(-0.0356961 -0.0405587 0)
(-0.0196869 -0.0324988 0)
(-0.00735471 -0.0205313 0)
(-0.00120284 -0.00647892 0)
(-0.00160661 0.011187 0)
(-0.00929979 0.0317848 0)
(-0.0241555 0.0478113 0)
(-0.0429067 0.0578983 0)
(-0.0631148 0.0617493 0)
(-0.0829639 0.0596977 0)
(-0.100892 0.0524663 0)
(-0.115624 0.041 0)
(-0.126194 0.0263587 0)
(-0.131931 0.00966912 0)
(-0.132443 -0.00788328 0)
(-0.127631 -0.0250451 0)
(-0.117701 -0.040492 0)
(-0.103205 -0.0528529 0)
(-0.0850843 -0.0607824 0)
(-0.0646981 -0.0630968 0)
(-0.0437941 -0.0589772 0)
(-0.0244274 -0.0482138 0)
(-0.00923815 -0.0314731 0)
(-0.00153735 -0.0106996 0)
(-0.00193981 0.0164375 0)
(-0.011105 0.044858 0)
(-0.0286008 0.0660556 0)
(-0.0503923 0.0788422 0)
(-0.0735559 0.0832126 0)
(-0.0960328 0.0798465 0)
(-0.116142 0.0698236 0)
(-0.132572 0.0544288 0)
(-0.144365 0.0350342 0)
(-0.150863 0.0130545 0)
(-0.151671 -0.0100466 0)
(-0.146649 -0.0327259 0)
(-0.135938 -0.0533357 0)
(-0.120012 -0.0701308 0)
(-0.0997614 -0.0813365 0)
(-0.0765732 -0.0853031 0)
(-0.0523543 -0.0807555 0)
(-0.0294974 -0.0671102 0)
(-0.0112692 -0.04483 0)
(-0.00190054 -0.015913 0)
(-0.00230105 0.0226458 0)
(-0.0130134 0.0601619 0)
(-0.0332116 0.0871542 0)
(-0.0580107 0.102742 0)
(-0.0839729 0.107393 0)
(-0.108818 0.102296 0)
(-0.130801 0.08901 0)
(-0.148641 0.0692284 0)
(-0.161454 0.044657 0)
(-0.168644 0.0169831 0)
(-0.169837 -0.0120888 0)
(-0.164854 -0.0407706 0)
(-0.15373 -0.0671247 0)
(-0.136796 -0.0890335 0)
(-0.1148 -0.104244 0)
(-0.0890684 -0.110526 0)
(-0.0615982 -0.105966 0)
(-0.0351081 -0.0893802 0)
(-0.013575 -0.0608176 0)
(-0.00232809 -0.0222304 0)
(-0.00271446 0.0298911 0)
(-0.0151032 0.0778014 0)
(-0.038091 0.111124 0)
(-0.0658064 0.129469 0)
(-0.0942643 0.134016 0)
(-0.121015 0.12668 0)
(-0.144338 0.109642 0)
(-0.163089 0.0850786 0)
(-0.176548 0.0550383 0)
(-0.184258 0.0214438 0)
(-0.185906 -0.013828 0)
(-0.181274 -0.0488236 0)
(-0.170257 -0.0813856 0)
(-0.152959 -0.109059 0)
(-0.12987 -0.129085 0)
(-0.102109 -0.138527 0)
(-0.0716372 -0.134611 0)
(-0.0414377 -0.115245 0)
(-0.0162824 -0.0797456 0)
(-0.00285818 -0.0298357 0)
(-0.00321276 0.0383007 0)
(-0.01747 0.0979267 0)
(-0.0433365 0.137947 0)
(-0.0737477 0.158752 0)
(-0.104145 0.162585 0)
(-0.132009 0.152364 0)
(-0.155793 0.131067 0)
(-0.174637 0.101424 0)
(-0.188118 0.0658187 0)
(-0.196011 0.0263405 0)
(-0.198125 -0.0150671 0)
(-0.194221 -0.0564086 0)
(-0.184021 -0.0954255 0)
(-0.16731 -0.129412 0)
(-0.144167 -0.155111 0)
(-0.115301 -0.168778 0)
(-0.0824192 -0.166508 0)
(-0.048621 -0.144883 0)
(-0.0195298 -0.101999 0)
(-0.00353929 -0.0389892 0)
(-0.00385174 0.0480712 0)
(-0.0202596 0.120734 0)
(-0.0490627 0.167512 0)
(-0.0817129 0.190074 0)
(-0.113089 0.192241 0)
(-0.140788 0.178304 0)
(-0.163667 0.152234 0)
(-0.181356 0.117372 0)
(-0.193892 0.0763908 0)
(-0.201402 0.0314402 0)
(-0.203893 -0.0156177 0)
(-0.20114 -0.0629169 0)
(-0.192672 -0.108276 0)
(-0.177873 -0.148893 0)
(-0.156234 -0.1811 0)
(-0.127786 -0.200283 0)
(-0.0936469 -0.201125 0)
(-0.0567342 -0.178328 0)
(-0.023489 -0.128008 0)
(-0.00444403 -0.0500454 0)
(-0.00473608 0.0595198 0)
(-0.0237175 0.146471 0)
(-0.0554187 0.199533 0)
(-0.0894364 0.222515 0)
(-0.120206 0.22159 0)
(-0.145779 0.202888 0)
(-0.16575 0.17157 0)
(-0.180502 0.131594 0)
(-0.190718 0.085826 0)
(-0.197001 0.0363188 0)
(-0.199634 -0.0153364 0)
(-0.198458 -0.0676193 0)
(-0.192825 -0.118664 0)
(-0.181664 -0.165813 0)
(-0.163715 -0.205185 0)
(-0.138018 -0.231348 0)
(-0.104629 -0.237334 0)
(-0.0657519 -0.215286 0)
(-0.0283957 -0.158208 0)
(-0.00569381 -0.0634957 0)
(-0.00606503 0.073187 0)
(-0.0282567 0.175439 0)
(-0.0625603 0.233376 0)
(-0.0963441 0.254501 0)
(-0.123979 0.248458 0)
(-0.144552 0.223751 0)
(-0.158852 0.186856 0)
(-0.16831 0.142258 0)
(-0.174417 0.0928311 0)
(-0.178339 0.0403202 0)
(-0.180702 -0.0141727 0)
(-0.18147 -0.0697126 0)
(-0.179879 -0.125028 0)
(-0.174427 -0.177939 0)
(-0.163021 -0.224696 0)
(-0.14341 -0.2593 0)
(-0.113999 -0.273061 0)
(-0.0754277 -0.254846 0)
(-0.0345828 -0.192944 0)
(-0.00750133 -0.0800536 0)
(-0.00820691 0.0900171 0)
(-0.0345177 0.207925 0)
(-0.0704729 0.267727 0)
(-0.101127 0.2834 0)
(-0.121722 0.269576 0)
(-0.133295 0.2376 0)
(-0.138386 0.195182 0)
(-0.139715 0.14705 0)
(-0.139641 0.0957834 0)
(-0.139878 0.0425627 0)
(-0.141391 -0.0122157 0)
(-0.144323 -0.068417 0)
(-0.147912 -0.125639 0)
(-0.15038 -0.182562 0)
(-0.148891 -0.236084 0)
(-0.139772 -0.280197 0)
(-0.11918 -0.304792 0)
(-0.0849835 -0.294969 0)
(-0.0424727 -0.232253 0)
(-0.010233 -0.100794 0)
(-0.0117794 0.111617 0)
(-0.0432903 0.243899 0)
(-0.0783571 0.29992 0)
(-0.100735 0.304932 0)
(-0.108505 0.28027 0)
(-0.10593 0.240184 0)
(-0.0977707 0.193095 0)
(-0.0880477 0.143394 0)
(-0.0798038 0.0929279 0)
(-0.0751024 0.0420438 0)
(-0.0751211 -0.00971861 0)
(-0.0801963 -0.0631407 0)
(-0.0897428 -0.118866 0)
(-0.102032 -0.17679 0)
(-0.113885 -0.23509 0)
(-0.120455 -0.288678 0)
(-0.115363 -0.327006 0)
(-0.0923193 -0.331643 0)
(-0.0523446 -0.275308 0)
(-0.014444 -0.127312 0)
(-0.0175466 0.14064 0)
(-0.0547725 0.28212 0)
(-0.0828319 0.324649 0)
(-0.0881749 0.312358 0)
(-0.0752494 0.274313 0)
(-0.052779 0.226618 0)
(-0.0276919 0.177144 0)
(-0.0047875 0.129014 0)
(0.0127958 0.0828273 0)
(0.0231192 0.0379051 0)
(0.025074 -0.00706818 0)
(0.0181938 -0.0537072 0)
(0.00269102 -0.10366 0)
(-0.0202486 -0.158196 0)
(-0.0478911 -0.217357 0)
(-0.0751381 -0.278209 0)
(-0.0936465 -0.33165 0)
(-0.0921086 -0.357577 0)
(-0.0632849 -0.319236 0)
(-0.0206303 -0.161934 0)
(-0.0253985 0.181647 0)
(-0.065719 0.317813 0)
(-0.0733525 0.331349 0)
(-0.0481466 0.295328 0)
(-0.00568865 0.244114 0)
(0.0410623 0.192274 0)
(0.0844512 0.144945 0)
(0.120294 0.102886 0)
(0.146429 0.0650773 0)
(0.161755 0.0298615 0)
(0.165643 -0.00466871 0)
(0.157646 -0.0405939 0)
(0.137465 -0.0801842 0)
(0.105208 -0.125834 0)
(0.0620743 -0.17963 0)
(0.0116688 -0.241921 0)
(-0.0379157 -0.307791 0)
(-0.0717028 -0.360106 0)
(-0.0699863 -0.356627 0)
(-0.0278522 -0.208279 0)
(-0.0294354 0.238943 0)
(-0.0606169 0.33594 0)
(-0.0219546 0.300569 0)
(0.050489 0.240099 0)
(0.127502 0.182893 0)
(0.196898 0.135328 0)
(0.254185 0.0973397 0)
(0.298063 0.0668013 0)
(0.328608 0.0413203 0)
(0.346232 0.0187615 0)
(0.351135 -0.00279221 0)
(0.343069 -0.0252453 0)
(0.321254 -0.0507525 0)
(0.284457 -0.0820017 0)
(0.231425 -0.122394 0)
(0.162076 -0.17562 0)
(0.0798217 -0.243404 0)
(-0.00321341 -0.319196 0)
(-0.0544068 -0.368767 0)
(-0.028213 -0.267333 0)
(0.00868041 0.281483 0)
(0.0203621 0.295062 0)
(0.138993 0.211055 0)
(0.264391 0.143503 0)
(0.364332 0.0971937 0)
(0.440306 0.0657775 0)
(0.496653 0.0442325 0)
(0.536756 0.0288794 0)
(0.563308 0.0171936 0)
(0.578153 0.00748264 0)
(0.582224 -0.00149277 0)
(0.575544 -0.0108408 0)
(0.557171 -0.0218416 0)
(0.525019 -0.0363314 0)
(0.475687 -0.0572616 0)
(0.404469 -0.0893961 0)
(0.305076 -0.139774 0)
(0.17331 -0.216467 0)
(0.0417868 -0.31172 0)
(0.0190831 -0.299588 0)
(0.300183 0.145891 0)
(0.396875 0.127461 0)
(0.557411 0.0761132 0)
(0.674456 0.0437516 0)
(0.743882 0.0255969 0)
(0.787134 0.015262 0)
(0.81545 0.00922667 0)
(0.833909 0.00551903 0)
(0.845331 0.00303326 0)
(0.851313 0.00115267 0)
(0.852607 -0.000498729 0)
(0.849326 -0.00221699 0)
(0.840948 -0.004344 0)
(0.826097 -0.00743449 0)
(0.802046 -0.0125491 0)
(0.763598 -0.0217972 0)
(0.699056 -0.0393145 0)
(0.5839 -0.0726869 0)
(0.416409 -0.127819 0)
(0.309416 -0.149275 0)
)
;

boundaryField
{
    movingWall
    {
        type            fixedValue;
        value           uniform (1 0 0);
    }
    fixedWalls
    {
        type            noSlip;
    }
    frontAndBack
    {
        type            empty;
    }
}


// ************************************************************************* //
