/*--------------------------------*- C++ -*----------------------------------*\
  =========                 |
  \\      /  F ield         | OpenFOAM: The Open Source CFD Toolbox
   \\    /   O peration     | Website:  https://openfoam.org
    \\  /    A nd           | Version:  8
     \\/     M anipulation  |
\*---------------------------------------------------------------------------*/
FoamFile
{
    version     2.0;
    format      ascii;
    class       volScalarField;
    location    "1";
    object      T;
}
// * * * * * * * * * * * * * * * * * * * * * * * * * * * * * * * * * * * * * //

dimensions      [0 0 0 1 0 0 0];

internalField   nonuniform List<scalar> 
100
(
99.4065
98.3206
97.2368
96.1552
95.0757
93.9984
92.9232
91.8501
90.7791
89.7102
88.6435
87.5789
86.5163
85.4559
84.3976
83.3413
82.2872
81.2351
80.1851
79.1372
78.0913
77.0475
76.0058
74.9662
73.9286
72.893
71.8595
70.828
69.7986
68.7712
67.7459
66.7225
65.7012
64.6819
63.6647
62.6494
61.6361
60.6249
59.6156
58.6084
57.6031
56.5998
55.5985
54.5992
53.6018
52.6064
51.613
50.6215
49.632
48.6445
47.6589
46.6752
45.6935
44.7137
43.7359
42.76
41.7859
40.8138
39.8436
38.8753
37.9089
36.9444
35.9818
35.021
34.062
33.1049
32.1497
31.1962
30.2445
29.2946
28.3464
27.3999
26.4551
25.5118
24.5702
23.63
22.6913
21.7539
20.8177
19.8826
18.9484
18.015
17.0821
16.1494
15.2167
14.2835
13.3494
12.4138
11.476
10.5353
9.59064
8.6409
7.68467
6.72027
5.74568
4.75847
3.75572
2.73393
1.68886
0.615463
)
;

boundaryField
{
    left
    {
        type            fixedValue;
        value           uniform 100;
    }
    right
    {
        type            fixedValue;
        value           uniform 0;
    }
    up
    {
        type            fixedValue;
        value           uniform 100;
    }
    down
    {
        type            fixedValue;
        value           uniform 0;
    }
    frontAndBack
    {
        type            empty;
    }
}


// ************************************************************************* //
