/*--------------------------------*- C++ -*----------------------------------*\
  =========                 |
  \\      /  F ield         | OpenFOAM: The Open Source CFD Toolbox
   \\    /   O peration     | Website:  https://openfoam.org
    \\  /    A nd           | Version:  8
     \\/     M anipulation  |
\*---------------------------------------------------------------------------*/
FoamFile
{
    version     2.0;
    format      ascii;
    class       volScalarField;
    location    "1";
    object      T;
}
// * * * * * * * * * * * * * * * * * * * * * * * * * * * * * * * * * * * * * //

dimensions      [0 0 0 1 0 0 0];

internalField   nonuniform List<scalar> 
10000
(
50
25
12.5
6.25
3.125
1.5625
0.78125
0.390625
0.195313
0.0976562
0.0488281
0.0244141
0.012207
0.00610352
0.00305176
0.00152588
0.000762939
0.00038147
0.000190735
9.53674e-05
4.76837e-05
2.38419e-05
1.19209e-05
5.96046e-06
2.98023e-06
1.49012e-06
7.45058e-07
3.72529e-07
1.86265e-07
9.31323e-08
4.65661e-08
2.32831e-08
1.16415e-08
5.82077e-09
2.91038e-09
1.45519e-09
7.27596e-10
3.63798e-10
1.81899e-10
9.09495e-11
4.54747e-11
2.27374e-11
1.13687e-11
5.68434e-12
2.84217e-12
1.42109e-12
7.10543e-13
3.55271e-13
1.77636e-13
8.88178e-14
4.44089e-14
2.22045e-14
1.11022e-14
5.55112e-15
2.77556e-15
1.38778e-15
6.93889e-16
3.46945e-16
1.73472e-16
8.67362e-17
4.33681e-17
2.1684e-17
1.0842e-17
5.42101e-18
2.71051e-18
1.35525e-18
6.77626e-19
3.38813e-19
1.69407e-19
8.47033e-20
4.23516e-20
2.11758e-20
1.05879e-20
5.29396e-21
2.64698e-21
1.32349e-21
6.61744e-22
3.30872e-22
1.65436e-22
8.27181e-23
4.1359e-23
2.06795e-23
1.03398e-23
5.16988e-24
2.58494e-24
1.29247e-24
6.46235e-25
3.23117e-25
1.61559e-25
8.07794e-26
4.03897e-26
2.01948e-26
1.00974e-26
5.04871e-27
2.52435e-27
1.26218e-27
6.31089e-28
3.15544e-28
1.57772e-28
7.88861e-29
75
50
31.25
18.75
10.9375
6.25
3.51562
1.95312
1.07422
0.585937
0.317383
0.170898
0.0915527
0.0488281
0.0259399
0.0137329
0.00724792
0.0038147
0.00200272
0.00104904
0.000548363
0.000286102
0.000149012
7.7486e-05
4.02331e-05
2.08616e-05
1.08033e-05
5.58794e-06
2.8871e-06
1.49012e-06
7.68341e-07
3.95812e-07
2.03727e-07
1.04774e-07
5.38421e-08
2.76486e-08
1.41881e-08
7.27596e-09
3.72893e-09
1.90994e-09
9.77707e-10
5.00222e-10
2.55795e-10
1.3074e-10
6.6791e-11
3.41061e-11
1.74083e-11
8.88178e-12
4.52971e-12
2.30926e-12
1.17684e-12
5.9952e-13
3.05311e-13
1.55431e-13
7.91034e-14
4.02456e-14
2.04697e-14
1.04083e-14
5.29091e-15
2.68882e-15
1.36609e-15
6.93889e-16
3.52366e-16
1.78893e-16
9.08019e-17
4.60786e-17
2.33781e-17
1.18585e-17
6.01393e-18
3.04932e-18
1.54584e-18
7.83505e-19
3.97047e-19
2.0117e-19
1.01909e-19
5.16161e-20
2.61389e-20
1.32349e-20
6.70016e-21
3.39144e-21
1.7164e-21
8.6854e-22
4.3944e-22
2.22305e-22
1.12445e-22
5.68687e-23
2.87575e-23
1.45403e-23
7.35092e-24
3.71585e-24
1.87812e-24
9.49157e-25
4.79627e-25
2.42338e-25
1.22431e-25
6.18467e-26
3.12389e-26
1.57772e-26
7.9675e-27
4.02319e-27
87.5
68.75
50
34.375
22.6562
14.4531
8.98437
5.46875
3.27148
1.92871
1.12305
0.646973
0.369263
0.209045
0.117493
0.0656128
0.0364304
0.0201225
0.0110626
0.00605583
0.0033021
0.0017941
0.000971556
0.000524521
0.000282377
0.000151619
8.12113e-05
4.33996e-05
2.31434e-05
1.23167e-05
6.54254e-06
3.46918e-06
1.83645e-06
9.70613e-07
5.12227e-07
2.69938e-07
1.42063e-07
7.46695e-08
3.91992e-08
2.05546e-08
1.07661e-08
5.63318e-09
2.94449e-09
1.53761e-09
8.02203e-10
4.18154e-10
2.17781e-10
1.13332e-10
5.89306e-11
3.062e-11
1.58984e-11
8.24896e-12
4.27713e-12
2.21628e-12
1.14769e-12
5.93969e-13
3.0722e-13
1.58814e-13
8.20524e-14
4.23706e-14
2.18684e-14
1.12811e-14
5.81674e-15
2.99782e-15
1.54431e-15
7.95195e-16
4.09286e-16
2.10572e-16
1.08293e-16
5.56712e-17
2.86085e-17
1.4696e-17
7.54653e-18
3.87385e-18
1.98788e-18
1.01975e-18
5.22944e-19
2.68089e-19
1.37395e-19
7.03931e-20
3.60547e-20
1.84616e-20
9.45054e-21
4.83642e-21
2.47443e-21
1.26565e-21
6.47204e-22
3.30872e-22
1.69112e-22
8.64137e-23
4.41459e-23
2.25475e-23
1.15136e-23
5.87796e-24
3.0002e-24
1.53102e-24
7.8113e-25
3.98454e-25
2.03211e-25
1.03617e-25
93.75
81.25
65.625
50
36.3281
25.3906
17.1875
11.3281
7.2998
4.61426
2.86865
1.75781
1.06354
0.636292
0.376892
0.221252
0.128841
0.074482
0.0427723
0.0244141
0.0138581
0.00782609
0.00439882
0.00246167
0.00137202
0.000761822
0.000421517
0.000232458
0.000127801
7.00587e-05
3.83006e-05
2.08849e-05
1.13607e-05
6.16565e-06
3.33894e-06
1.80444e-06
9.7325e-07
5.2396e-07
2.8158e-07
1.51067e-07
8.09166e-08
4.32749e-08
2.31097e-08
1.23237e-08
6.56293e-09
3.49054e-09
1.85416e-09
9.83746e-10
5.21339e-10
2.75979e-10
1.45939e-10
7.70939e-11
4.06855e-11
2.14509e-11
1.12993e-11
5.94663e-12
3.12693e-12
1.64287e-12
8.62461e-13
4.52416e-13
2.37142e-13
1.24212e-13
6.50142e-14
3.4006e-14
1.77752e-14
9.28518e-15
4.84723e-15
2.5289e-15
1.3186e-15
6.87134e-16
3.57871e-16
1.86284e-16
9.69151e-17
5.03945e-17
2.61912e-17
1.36055e-17
7.06421e-18
3.66615e-18
1.90177e-18
9.86082e-19
5.11068e-19
2.64765e-19
1.37108e-19
7.09721e-20
3.67233e-20
1.89945e-20
9.82083e-21
5.07585e-21
2.62248e-21
1.35445e-21
6.99297e-22
3.60922e-22
1.86218e-22
9.60479e-23
4.95241e-23
2.55275e-23
1.31543e-23
6.77639e-24
3.4898e-24
1.79671e-24
96.875
89.0625
77.3438
63.6719
50
37.6953
27.4414
19.3848
13.3423
8.97827
5.92346
3.84064
2.45209
1.54419
0.960541
0.590897
0.359869
0.217175
0.129974
0.077194
0.045526
0.0266761
0.0155374
0.00899956
0.00518579
0.00297381
0.00169766
0.00096506
0.00054643
0.000308244
0.000173273
9.70787e-05
5.42197e-05
3.01927e-05
1.67658e-05
9.28512e-06
5.12919e-06
2.82657e-06
1.55408e-06
8.52572e-07
4.66744e-07
2.5501e-07
1.3906e-07
7.56916e-08
4.11273e-08
2.23089e-08
1.20815e-08
6.53264e-09
3.52699e-09
1.90148e-09
1.02371e-09
5.50403e-10
2.95544e-10
1.58498e-10
8.48984e-11
4.54225e-11
2.42747e-11
1.29588e-11
6.91063e-12
3.68152e-12
1.95933e-12
1.04177e-12
5.53393e-13
2.937e-13
1.55737e-13
8.25113e-14
4.36792e-14
2.31041e-14
1.22113e-14
6.44923e-15
3.40355e-15
1.79492e-15
9.45917e-16
4.98156e-16
2.62173e-16
1.37889e-16
7.24768e-17
3.80715e-17
1.99866e-17
1.04864e-17
5.49871e-18
2.88174e-18
1.50942e-18
7.90198e-19
4.1346e-19
2.16227e-19
1.13024e-19
5.905e-20
3.08362e-20
1.60953e-20
8.39732e-21
4.37912e-21
2.28267e-21
1.18936e-21
6.19441e-22
3.22484e-22
1.67819e-22
8.72979e-23
4.53938e-23
2.35953e-23
98.4375
93.75
85.5469
74.6094
62.3047
50
38.7207
29.0527
21.1975
15.0879
10.5057
7.17316
4.81262
3.17841
2.06947
1.33018
0.845027
0.531101
0.330538
0.203866
0.124696
0.075686
0.0456117
0.0273056
0.0162457
0.00960976
0.00565371
0.00330938
0.00192791
0.00111808
0.000645674
0.000371377
0.000212798
0.000121495
6.91306e-05
3.92079e-05
2.21685e-05
1.24975e-05
7.02581e-06
3.93919e-06
2.20297e-06
1.22899e-06
6.84024e-07
3.79858e-07
2.10493e-07
1.16401e-07
6.42411e-08
3.53869e-08
1.94569e-08
1.06792e-08
5.85146e-09
3.20093e-09
1.74824e-09
9.53368e-10
5.19133e-10
2.82278e-10
1.53276e-10
8.31175e-11
4.50141e-11
2.43478e-11
1.31536e-11
7.09767e-12
3.82553e-12
2.05962e-12
1.10768e-12
5.95094e-13
3.19387e-13
1.71245e-13
9.17283e-14
4.90888e-14
2.62462e-14
1.40205e-14
7.48323e-15
3.99069e-15
2.12643e-15
1.13216e-15
6.02319e-16
3.20195e-16
1.70091e-16
9.02886e-17
4.78937e-17
2.53877e-17
1.34486e-17
7.11938e-18
3.76642e-18
1.99132e-18
1.05217e-18
5.55612e-19
2.93224e-19
1.5466e-19
8.15285e-20
4.29538e-20
2.26182e-20
1.19038e-20
6.26162e-21
3.29205e-21
1.72994e-21
9.08617e-22
4.77006e-22
2.503e-22
99.2188
96.4844
91.0156
82.8125
72.5586
61.2793
50
39.5264
30.3619
22.7249
16.6153
11.8942
8.35342
5.76591
3.91769
2.62394
1.73448
1.13279
0.731665
0.467765
0.296231
0.185958
0.115785
0.0715453
0.0438955
0.0267526
0.0162032
0.00975628
0.00584209
0.00348008
0.00206288
0.00121713
0.000714963
0.000418229
0.00024368
0.000141444
8.18062e-05
4.71519e-05
2.70888e-05
1.5514e-05
8.85849e-06
5.04374e-06
2.86388e-06
1.62187e-06
9.16181e-07
5.16291e-07
2.90266e-07
1.62827e-07
9.11417e-08
5.09105e-08
2.8381e-08
1.57909e-08
8.76959e-09
4.86148e-09
2.69031e-09
1.48629e-09
8.19784e-10
4.51451e-10
2.48233e-10
1.3629e-10
7.47219e-11
4.09098e-11
2.23676e-11
1.22136e-11
6.66065e-12
3.62787e-12
1.97363e-12
1.07244e-12
5.82083e-13
3.15586e-13
1.70916e-13
9.24683e-14
4.99758e-14
2.69832e-14
1.45548e-14
7.8435e-15
4.22291e-15
2.27155e-15
1.22082e-15
6.55555e-16
3.51724e-16
1.88556e-16
1.01002e-16
5.40608e-17
2.89136e-17
1.54525e-17
8.25232e-18
4.40397e-18
2.3486e-18
1.25163e-18
6.66578e-19
3.54766e-19
1.88692e-19
1.00298e-19
5.32798e-20
2.82859e-20
1.50079e-20
7.95827e-21
4.21764e-21
2.23397e-21
99.6094
98.0469
94.5312
88.6719
80.6152
70.9473
60.4736
50
40.181
31.4529
24.0341
17.9642
13.1588
9.46236
6.69003
4.65698
3.19573
2.16426
1.44796
0.957865
0.627048
0.406503
0.261144
0.166345
0.10512
0.0659364
0.0410698
0.025413
0.0156276
0.00955382
0.00580835
0.00351274
0.00211385
0.00126604
0.00075486
0.000448152
0.000264979
0.000156065
9.15772e-05
5.35456e-05
3.1202e-05
1.81229e-05
1.04934e-05
6.05763e-06
3.48691e-06
2.0016e-06
1.14593e-06
6.54379e-07
3.72761e-07
2.11835e-07
1.20108e-07
6.79496e-08
3.83596e-08
2.16105e-08
1.21504e-08
6.81836e-09
3.81907e-09
2.13526e-09
1.19175e-09
6.64018e-10
3.6937e-10
2.0514e-10
1.13754e-10
6.29837e-11
3.48222e-11
1.9225e-11
1.05993e-11
5.83588e-12
3.20898e-12
1.76228e-12
9.666e-13
5.29534e-13
2.89755e-13
1.58369e-13
8.6462e-14
4.71527e-14
2.56878e-14
1.39797e-14
7.60025e-15
4.1279e-15
2.23981e-15
1.21419e-15
6.57594e-16
3.55827e-16
1.9237e-16
1.03911e-16
5.60819e-17
3.02429e-17
1.62958e-17
8.7737e-18
4.72014e-18
2.53745e-18
1.36307e-18
7.31685e-19
3.92482e-19
2.10384e-19
1.12696e-19
6.03272e-20
3.22724e-20
1.72532e-20
99.8047
98.9258
96.7285
92.7002
86.6577
78.8025
69.6381
59.819
50
40.7265
32.3803
25.1722
19.1655
14.3139
10.502
7.57948
5.38761
3.77593
2.61195
1.78491
1.20598
0.80624
0.533692
0.350018
0.227569
0.146753
0.0939113
0.0596621
0.0376449
0.0235993
0.0147038
0.00910829
0.00561107
0.00343856
0.00209671
0.00127243
0.000768705
0.000462385
0.000276981
0.000165263
9.82327e-05
5.81778e-05
3.43356e-05
2.01966e-05
1.18418e-05
6.92168e-06
4.0338e-06
2.34409e-06
1.35843e-06
7.85131e-07
4.5262e-07
2.60285e-07
1.49322e-07
8.54663e-08
4.88084e-08
2.78134e-08
1.58162e-08
8.97574e-09
5.08374e-09
2.87388e-09
1.62163e-09
9.13383e-10
5.13568e-10
2.88276e-10
1.61549e-10
9.03871e-11
5.04932e-11
2.81645e-11
1.56868e-11
8.72452e-12
4.84556e-12
2.68755e-12
1.48865e-12
8.2351e-13
4.54986e-13
2.51069e-13
1.38379e-13
7.61792e-14
4.18897e-14
2.30088e-14
1.26243e-14
6.91925e-15
3.78842e-15
2.07212e-15
1.13225e-15
6.18079e-16
3.37081e-16
1.83662e-16
9.99788e-17
5.43762e-17
2.95482e-17
1.60428e-17
8.70295e-18
4.71732e-18
2.5549e-18
1.38264e-18
7.47669e-19
4.03998e-19
2.18135e-19
1.17694e-19
99.9023
99.4141
98.0713
95.3857
91.0217
84.9121
77.2751
68.5471
59.2735
50
41.1901
33.1812
26.1734
20.2436
15.3728
11.4761
8.43188
6.10391
4.35793
3.07142
2.1387
1.47247
1.00308
0.676549
0.452059
0.299406
0.196659
0.12816
0.0829026
0.053251
0.0339774
0.0215429
0.013577
0.00850776
0.00530223
0.00328733
0.00202802
0.0012452
0.000761091
0.000463177
0.000280705
0.000169441
0.000101888
6.10426e-05
3.64422e-05
2.16819e-05
1.28579e-05
7.60098e-06
4.4797e-06
2.63242e-06
1.54252e-06
9.01401e-07
5.25362e-07
3.05414e-07
1.77111e-07
1.02462e-07
5.91392e-08
3.40575e-08
1.95706e-08
1.12222e-08
6.42194e-09
3.66766e-09
2.09061e-09
1.18944e-09
6.75497e-10
3.82942e-10
2.16718e-10
1.22441e-10
6.90639e-11
3.88942e-11
2.18699e-11
1.22787e-11
6.88369e-12
3.8536e-12
2.15429e-12
1.20268e-12
6.7053e-13
3.73354e-13
2.07622e-13
1.15315e-13
6.39699e-14
3.54446e-14
1.96165e-14
1.08443e-14
5.98828e-15
3.30318e-15
1.82013e-15
1.0019e-15
5.50937e-16
3.02657e-16
1.66102e-16
9.10726e-17
4.98878e-17
2.73026e-17
1.49287e-17
8.15568e-18
4.45168e-18
2.42784e-18
1.32299e-18
7.2034e-19
99.9512
99.6826
98.877
97.1313
94.0765
89.4943
83.3847
75.9659
67.6197
58.8099
50
41.5906
33.882
27.0628
21.2178
16.347
12.3894
9.24667
6.8023
4.93686
3.53778
2.50512
1.7541
1.21533
0.833692
0.566549
0.381604
0.254882
0.168892
0.111072
0.0725246
0.0470337
0.0303053
0.0194065
0.0123544
0.00782086
0.00492444
0.00308482
0.00192296
0.00119307
0.000736886
0.000453164
0.000277526
0.000169284
0.000102863
6.22726e-05
3.75652e-05
2.25831e-05
1.35314e-05
8.08191e-06
4.81221e-06
2.85681e-06
1.69108e-06
9.98249e-07
5.8768e-07
3.45071e-07
2.02105e-07
1.18081e-07
6.8826e-08
4.00241e-08
2.3223e-08
1.34453e-08
7.76798e-09
4.47871e-09
2.5771e-09
1.48002e-09
8.4837e-10
4.85406e-10
2.77235e-10
1.58065e-10
8.99672e-11
5.1123e-11
2.90033e-11
1.64285e-11
9.29138e-12
5.24703e-12
2.95878e-12
1.66607e-12
9.36844e-13
5.2608e-13
2.95025e-13
1.65235e-13
9.24256e-14
5.1635e-14
2.88116e-14
1.60574e-14
8.93876e-15
4.97033e-15
2.76063e-15
1.53165e-15
8.48874e-16
4.69973e-16
2.5993e-16
1.43617e-16
7.92726e-17
4.37142e-17
2.40829e-17
1.32554e-17
7.28918e-18
4.00476e-18
99.9756
99.8291
99.353
98.2422
96.1594
92.8268
88.1058
82.0358
74.8278
66.8188
58.4094
50
41.941
34.5019
27.8599
22.1034
17.2464
13.2465
10.0244
7.48064
5.50921
4.00717
2.88063
2.04798
1.44084
1.00369
0.692648
0.473765
0.321329
0.2162
0.144362
0.0956981
0.0630017
0.0412041
0.0267793
0.0173001
0.0111122
0.00709853
0.00451075
0.00285191
0.0017944
0.00112378
0.000700653
0.000434969
0.000268916
0.000165594
0.00010158
6.20814e-05
3.78064e-05
2.29442e-05
1.38782e-05
8.3675e-06
5.02929e-06
3.01377e-06
1.80072e-06
1.0729e-06
6.37502e-07
3.77791e-07
2.23309e-07
1.31666e-07
7.74447e-08
4.5445e-08
2.66065e-08
1.55426e-08
9.05986e-09
5.26994e-09
3.05916e-09
1.77228e-09
1.02476e-09
5.91411e-10
3.40689e-10
1.95906e-10
1.12455e-10
6.44416e-11
3.68665e-11
2.10568e-11
1.20078e-11
6.83692e-12
3.88688e-12
2.20648e-12
1.25075e-12
7.07994e-13
4.0021e-13
2.25922e-13
1.27367e-13
7.17122e-14
4.03255e-14
2.26479e-14
1.27043e-14
7.11796e-15
3.98341e-15
2.22669e-15
1.24331e-15
6.93464e-16
3.86369e-16
2.15041e-16
1.19562e-16
6.64087e-17
3.6849e-17
2.04269e-17
99.9878
99.9084
99.6307
98.9365
97.5479
95.1874
91.6466
86.8412
80.8345
73.8266
66.118
58.059
50
42.2509
35.0554
28.5794
22.9129
18.0797
14.0521
10.7664
8.13778
6.07247
4.47655
3.26227
2.35155
1.67762
1.18514
0.82945
0.575389
0.395795
0.270079
0.182888
0.122945
0.0820746
0.0544269
0.0358635
0.0234879
0.0152932
0.00990197
0.00637694
0.00408567
0.00260472
0.00165269
0.00104383
0.000656372
0.000410983
0.000256281
0.000159181
9.84939e-05
6.0719e-05
3.72986e-05
2.28331e-05
1.39312e-05
8.47247e-06
5.1366e-06
3.10475e-06
1.87112e-06
1.12446e-06
6.73883e-07
4.02775e-07
2.4011e-07
1.42777e-07
8.4692e-08
5.01173e-08
2.95886e-08
1.74293e-08
1.02442e-08
6.00824e-09
3.5165e-09
2.05396e-09
1.19732e-09
6.96614e-10
4.04534e-10
2.34488e-10
1.35677e-10
7.8367e-11
4.51874e-11
2.60122e-11
1.49495e-11
8.578e-12
4.91438e-12
2.81118e-12
1.6057e-12
9.1581e-13
5.21588e-13
2.9665e-13
1.68488e-13
9.55679e-14
5.41361e-14
3.0627e-14
1.73052e-14
9.76595e-15
5.50463e-15
3.09905e-15
1.74271e-15
9.78875e-16
5.49219e-16
3.07814e-16
1.72331e-16
9.63791e-17
99.9939
99.9512
99.791
99.3637
98.4558
96.8216
94.2341
90.5376
85.6861
79.7564
72.9372
65.4981
57.7491
50
42.5277
35.5536
29.2332
23.6565
18.8543
14.8103
11.4741
8.77326
6.62491
4.94359
3.64757
2.6626
1.92387
1.37666
0.976024
0.685909
0.477994
0.330441
0.226693
0.154384
0.104405
0.0701344
0.0468111
0.0310522
0.0204771
0.013427
0.00875634
0.00568053
0.00366661
0.00235522
0.0015058
0.000958389
0.000607335
0.000383258
0.000240876
0.000150798
9.40481e-05
5.84406e-05
3.61859e-05
2.23292e-05
1.37329e-05
8.41882e-06
5.14497e-06
3.13471e-06
1.9043e-06
1.15354e-06
6.96823e-07
4.198e-07
2.52246e-07
1.51182e-07
9.03852e-08
5.39072e-08
3.20757e-08
1.9042e-08
1.12792e-08
6.6666e-09
3.93196e-09
2.31429e-09
1.35941e-09
7.96949e-10
4.66313e-10
2.7234e-10
1.58764e-10
9.2388e-11
5.36687e-11
3.11234e-11
1.80189e-11
1.0415e-11
6.01036e-12
3.46309e-12
1.99234e-12
1.14449e-12
6.56491e-13
3.76029e-13
2.15083e-13
1.22855e-13
7.008e-14
3.9923e-14
2.27138e-14
1.29064e-14
7.32457e-15
4.15172e-15
2.35047e-15
1.32914e-15
7.50737e-16
4.23558e-16
99.9969
99.9741
99.8825
99.6231
99.0395
97.9305
96.0823
93.31
89.498
84.6272
78.7822
72.1401
64.9446
57.4723
50
42.7768
36.005
29.8307
24.3425
19.5764
15.5252
12.1492
9.38708
7.16533
5.40645
4.03452
2.97919
2.17793
1.57697
1.13144
0.804718
0.56758
0.397136
0.27576
0.190083
0.130109
0.0884599
0.059756
0.0401165
0.0267718
0.0177641
0.0117223
0.00769445
0.00502483
0.00326532
0.00211185
0.00135959
0.000871426
0.000556151
0.000353474
0.000223761
0.000141101
8.86434e-05
5.54863e-05
3.46096e-05
2.15142e-05
1.33296e-05
8.23215e-06
5.06822e-06
3.11088e-06
1.90385e-06
1.16183e-06
7.07036e-07
4.29109e-07
2.59747e-07
1.56827e-07
9.44514e-08
5.67467e-08
3.4013e-08
2.03398e-08
1.21359e-08
7.22508e-09
4.29224e-09
2.5446e-09
1.50546e-09
8.88898e-10
5.23831e-10
3.08109e-10
1.80889e-10
1.06006e-10
6.20125e-11
3.62138e-11
2.11121e-11
1.22876e-11
7.13996e-12
4.14223e-12
2.39936e-12
1.38769e-12
8.01388e-13
4.62122e-13
2.66101e-13
1.53012e-13
8.78629e-14
5.03846e-14
2.88546e-14
1.65032e-14
9.42682e-15
5.37798e-15
3.06436e-15
1.74396e-15
99.9985
99.9863
99.9344
99.7787
99.4091
98.6698
97.3761
95.343
92.4205
88.5239
83.653
77.8966
71.4206
64.4464
57.2232
50
43.0025
36.4166
30.3796
24.978
20.2516
16.2004
12.7938
9.97954
7.693
5.86376
4.42148
3.2997
2.43834
1.78489
1.2948
0.931192
0.664164
0.469962
0.330022
0.230065
0.159263
0.109509
0.0748129
0.0507924
0.0342782
0.0230003
0.0153474
0.0101861
0.0067257
0.00441878
0.00288919
0.00188031
0.00121823
0.000785851
0.000504806
0.000322954
0.000205799
0.000130642
8.2626e-05
5.20701e-05
3.26998e-05
2.0466e-05
1.27671e-05
7.939e-06
4.92142e-06
3.04162e-06
1.87433e-06
1.15172e-06
7.05733e-07
4.3128e-07
2.62866e-07
1.59806e-07
9.69096e-08
5.86247e-08
3.53803e-08
2.13027e-08
1.27975e-08
7.67103e-09
4.58824e-09
2.73857e-09
1.6312e-09
9.69655e-10
5.75272e-10
3.40639e-10
2.01326e-10
1.1877e-10
6.99409e-11
4.11143e-11
2.41271e-11
1.41347e-11
8.26701e-12
4.82735e-12
2.81437e-12
1.63825e-12
9.52173e-13
5.52593e-13
3.20228e-13
1.85306e-13
1.0708e-13
6.17918e-14
3.56093e-14
2.04936e-14
1.1779e-14
6.76148e-15
99.9992
99.9928
99.9636
99.8712
99.6401
99.155
98.2655
96.8043
94.6124
91.5681
87.6106
82.7536
77.0871
70.7668
63.995
56.9975
50
43.2083
36.7939
30.886
25.5688
20.8846
16.8392
13.4094
10.5512
8.20747
6.31447
4.80709
3.62271
2.7038
1.9993
1.46525
1.06471
0.767334
0.548678
0.389372
0.274317
0.191913
0.133363
0.0920777
0.063178
0.0430891
0.0292182
0.0197022
0.0132139
0.00881636
0.00585277
0.00386654
0.00254238
0.00166412
0.00108446
0.000703708
0.000454753
0.000292698
0.000187662
0.000119866
7.62829e-05
4.83745e-05
3.05708e-05
1.92549e-05
1.20882e-05
7.56489e-06
4.71961e-06
2.93567e-06
1.8207e-06
1.12599e-06
6.94428e-07
4.27117e-07
2.62013e-07
1.60319e-07
9.78497e-08
5.95762e-08
3.61868e-08
2.19289e-08
1.32586e-08
7.99858e-09
4.81489e-09
2.89227e-09
1.73377e-09
1.03721e-09
6.19266e-10
3.69018e-10
2.19479e-10
1.30297e-10
7.72119e-11
4.56733e-11
2.69702e-11
1.58988e-11
9.35656e-12
5.4974e-12
3.22479e-12
1.88869e-12
1.10446e-12
6.44883e-13
3.75982e-13
2.18887e-13
1.27248e-13
7.38708e-14
4.28249e-14
2.47932e-14
99.9996
99.9962
99.9799
99.9255
99.7828
99.4689
98.8672
97.8357
96.2241
93.8961
90.7533
86.7535
81.9203
76.3435
70.1693
63.5834
56.7917
50
43.397
37.1415
31.3551
26.1199
21.4795
17.4444
13.9978
11.1026
8.70856
6.75782
5.19027
3.94703
2.97317
2.21921
1.64196
1.20465
0.876662
0.633017
0.453667
0.32279
0.228077
0.160077
0.111628
0.0773583
0.0532883
0.0364952
0.0248546
0.0168355
0.0113441
0.00760533
0.00507386
0.00336899
0.00222672
0.00146522
0.000959985
0.000626341
0.000407002
0.000263434
0.000169858
0.000109116
6.98436e-05
4.45492e-05
2.83187e-05
1.79418e-05
1.13307e-05
7.13318e-06
4.47694e-06
2.80147e-06
1.74795e-06
1.08753e-06
6.74773e-07
4.17546e-07
2.57698e-07
1.58637e-07
9.74119e-08
5.96704e-08
3.64645e-08
2.22315e-08
1.35232e-08
8.20774e-09
4.97076e-09
3.00398e-09
1.81162e-09
1.09032e-09
6.549e-10
3.92598e-10
2.34905e-10
1.40289e-10
8.36297e-11
4.97642e-11
2.95604e-11
1.75289e-11
1.03768e-11
6.13277e-12
3.61861e-12
2.13175e-12
1.25386e-12
7.36376e-13
4.31812e-13
2.52841e-13
1.47833e-13
8.63132e-14
99.9998
99.998
99.9889
99.9572
99.87
99.6695
99.2683
98.552
97.3881
95.6421
93.1977
89.9756
85.9479
81.1457
75.6575
69.6204
63.2061
56.603
50
43.5707
37.4629
31.7914
26.6355
22.04
18.0189
14.5608
11.6347
9.19624
7.19325
5.57014
4.27166
3.24543
2.44369
1.82417
1.35042
0.991716
0.722692
0.522741
0.375409
0.267743
0.189685
0.133522
0.0934051
0.0649501
0.0449024
0.0308689
0.0211065
0.0143559
0.00971489
0.00654194
0.00438433
0.00292477
0.00194238
0.00128436
0.000845681
0.000554557
0.000362208
0.000235662
0.000152753
9.8651e-05
6.34849e-05
4.07133e-05
2.6022e-05
1.65776e-05
1.05273e-05
6.66437e-06
4.20616e-06
2.64684e-06
1.66081e-06
1.03918e-06
6.48437e-07
4.03537e-07
2.50475e-07
1.55072e-07
9.57685e-08
5.9e-08
3.62616e-08
2.22347e-08
1.36027e-08
8.30335e-09
5.05749e-09
3.0739e-09
1.8644e-09
1.1285e-09
6.81703e-10
4.10996e-10
2.47313e-10
1.48539e-10
8.90495e-11
5.32892e-11
3.1833e-11
1.89829e-11
1.13008e-11
6.71625e-12
3.98506e-12
2.36072e-12
1.39626e-12
8.24553e-13
4.86193e-13
2.86253e-13
99.9999
99.999
99.9939
99.9756
99.9228
99.7961
99.5322
99.0421
98.2151
96.9286
95.0631
92.5194
89.2336
85.1897
80.4236
75.022
69.114
62.8585
56.4293
50
43.7315
37.7614
32.1984
27.1192
22.569
18.5649
15.0998
12.148
9.67063
7.62039
5.94602
4.59573
3.51971
2.67194
2.01118
1.50145
1.11207
0.817405
0.596407
0.432075
0.31088
0.222201
0.157803
0.111377
0.0781395
0.0545042
0.0378054
0.0260806
0.0178978
0.0122199
0.00830209
0.00561343
0.00377791
0.00253113
0.00168841
0.00112148
0.000741845
0.000488754
0.000320753
0.000209702
0.000136593
8.86534e-05
5.73377e-05
3.69577e-05
2.37425e-05
1.52034e-05
9.70479e-06
6.17582e-06
3.91831e-06
2.47874e-06
1.56359e-06
9.83564e-07
6.17019e-07
3.86046e-07
2.40907e-07
1.49954e-07
9.31076e-08
5.76711e-08
3.56369e-08
2.19701e-08
1.35138e-08
8.29386e-09
5.07913e-09
3.10381e-09
1.89276e-09
1.15188e-09
6.99595e-10
4.24067e-10
2.56558e-10
1.54924e-10
9.33783e-11
5.61806e-11
3.37407e-11
2.02285e-11
1.21068e-11
7.23374e-12
4.315e-12
2.56978e-12
1.52799e-12
9.07119e-13
100
99.9995
99.9967
99.9861
99.9545
99.8753
99.7038
99.373
98.794
97.8613
96.4622
94.4908
91.8622
88.5259
84.4748
79.7484
74.4312
68.6449
62.5371
56.2685
50
43.8807
38.0396
32.5794
27.5742
23.0696
19.0847
15.6163
12.6435
10.1319
8.03898
6.31735
4.91853
3.79524
2.90321
2.20233
1.6572
1.2373
0.916854
0.674465
0.492672
0.357437
0.25762
0.184498
0.131319
0.0929115
0.0653584
0.0457195
0.0318086
0.0220143
0.0151582
0.0103858
0.00708185
0.00480649
0.00324745
0.00218447
0.00146316
0.000975955
0.000648354
0.000429028
0.000282811
0.000185732
0.000121535
7.92463e-05
5.14944e-05
3.33489e-05
2.15268e-05
1.38513e-05
8.88482e-06
5.68178e-06
3.62269e-06
2.30313e-06
1.46007e-06
9.23059e-07
5.81983e-07
3.65968e-07
2.29538e-07
1.43605e-07
8.96208e-08
5.57954e-08
3.46546e-08
2.14742e-08
1.32767e-08
8.19025e-09
5.0415e-09
3.09669e-09
1.89814e-09
1.1611e-09
7.08832e-10
4.31878e-10
2.62628e-10
1.59404e-10
9.65725e-11
5.84005e-11
3.52536e-11
2.12437e-11
1.27793e-11
7.67456e-12
4.60127e-12
2.7542e-12
100
99.9997
99.9982
99.9922
99.9733
99.9243
99.814
99.5935
99.1938
98.5275
97.4949
95.9928
93.9275
91.2267
87.8508
83.7996
79.1154
73.8801
68.2086
62.2386
56.1193
50
44.0198
38.2996
32.9369
28.0032
23.544
19.5801
16.1118
13.1219
10.5804
8.44889
6.68371
5.23947
4.07134
3.13683
2.39702
1.81716
1.36701
1.02074
0.756704
0.55707
0.407345
0.295922
0.21362
0.153266
0.109312
0.0775158
0.0546622
0.0383382
0.0267482
0.018567
0.0128244
0.00881546
0.00603146
0.00410796
0.00278556
0.00188076
0.00126456
0.000846792
0.000564801
0.000375267
0.000248401
0.000163824
0.000107659
7.05039e-05
4.60154e-05
2.99334e-05
1.94091e-05
1.25454e-05
8.08406e-06
5.19359e-06
3.32683e-06
2.12495e-06
1.35346e-06
8.59716e-07
5.44627e-07
3.44116e-07
2.16868e-07
1.36332e-07
8.54933e-08
5.34838e-08
3.33802e-08
2.07852e-08
1.29134e-08
8.00503e-09
4.95159e-09
3.05635e-09
1.88259e-09
1.15723e-09
7.09931e-10
4.34667e-10
2.6562e-10
1.6201e-10
9.86319e-11
5.99378e-11
3.63586e-11
2.20166e-11
1.33089e-11
8.03156e-12
100
99.9999
99.999
99.9956
99.9845
99.9544
99.8842
99.7389
99.4663
98.9969
98.2459
97.1194
95.5234
93.3751
90.6129
87.2062
83.1608
78.5205
73.3645
67.8016
61.9604
55.9802
50
44.1498
38.5433
33.2733
28.4086
23.9944
20.0531
16.5875
13.584
11.0164
8.85007
7.04477
5.55806
4.34744
3.37223
2.59469
1.98085
1.50079
1.12875
0.84291
0.625127
0.460524
0.337072
0.245169
0.177241
0.127378
0.0910202
0.0646792
0.0457137
0.0321404
0.0224824
0.0156489
0.0108402
0.00747408
0.00512982
0.00350529
0.00238492
0.00161586
0.00109033
0.000732798
0.000490599
0.000327211
0.000217435
0.00014397
9.49925e-05
6.24629e-05
4.0936e-05
2.67407e-05
1.74124e-05
1.1303e-05
7.31491e-06
4.71993e-06
3.0367e-06
1.94821e-06
1.24642e-06
7.95266e-07
5.06067e-07
3.212e-07
2.03346e-07
1.28415e-07
8.08977e-08
5.08414e-08
3.18774e-08
1.99412e-08
1.24464e-08
7.75137e-09
4.81698e-09
2.98711e-09
1.84852e-09
1.14159e-09
7.03607e-10
4.32808e-10
2.6572e-10
1.62829e-10
9.95938e-11
6.08052e-11
3.7057e-11
2.25443e-11
100
99.9999
99.9995
99.9975
99.991
99.9727
99.9285
99.8337
99.65
99.3235
98.7847
97.952
96.7377
95.0564
92.8347
90.0205
86.5906
82.5556
77.96
72.8808
67.4206
61.7004
55.8502
50
44.2717
38.7725
33.5906
28.7925
24.4228
20.5051
17.0445
14.0305
11.4403
9.24252
7.40029
5.87387
4.62305
3.60887
2.79486
2.14783
1.63829
1.2406
0.932863
0.696694
0.516883
0.381026
0.279133
0.203256
0.147138
0.105909
0.0758112
0.0539758
0.0382291
0.026939
0.0188896
0.0131818
0.00915583
0.00633056
0.00435774
0.0029868
0.00203856
0.00138568
0.00093814
0.000632676
0.000425055
0.000284512
0.000189752
0.000126108
8.35218e-05
5.51313e-05
3.62718e-05
2.37874e-05
1.55512e-05
1.01355e-05
6.58612e-06
4.26716e-06
2.75679e-06
1.77603e-06
1.14105e-06
7.31124e-07
4.67235e-07
2.97825e-07
1.89361e-07
1.20101e-07
7.59894e-08
4.79653e-08
3.02059e-08
1.89786e-08
1.18978e-08
7.44245e-09
4.64549e-09
2.89354e-09
1.79857e-09
1.11569e-09
6.90705e-10
4.26767e-10
2.6318e-10
1.61993e-10
9.95249e-11
6.10346e-11
100
100
99.9997
99.9986
99.9948
99.9838
99.9561
99.8949
99.7724
99.5479
99.1663
98.5592
97.6484
96.3524
94.5935
92.307
89.4488
86.0022
81.9811
77.431
72.4258
67.0631
61.4567
55.7283
50
44.3862
38.9884
33.8904
29.1566
24.8309
20.9377
17.4841
14.4622
11.8524
9.62632
7.7501
6.18657
4.89772
3.84629
2.99706
2.31767
1.77914
1.356
1.02635
0.771615
0.57632
0.427727
0.315491
0.231315
0.168612
0.122211
0.0880936
0.0631613
0.0450502
0.0319699
0.0225759
0.0158658
0.0110982
0.00772797
0.00535738
0.00369797
0.00254183
0.00173998
0.00118633
0.000805692
0.000545102
0.000367427
0.000246768
0.000165145
0.000110138
7.32049e-05
4.84962e-05
3.20237e-05
2.10796e-05
1.38329e-05
9.05001e-06
5.9034e-06
3.83972e-06
2.49038e-06
1.61075e-06
1.03899e-06
6.68409e-07
4.28885e-07
2.74493e-07
1.75241e-07
1.11603e-07
7.09046e-08
4.49416e-08
2.84197e-08
1.79311e-08
1.12883e-08
7.09091e-09
4.44474e-09
2.78022e-09
1.73546e-09
1.08111e-09
6.72147e-10
4.1707e-10
2.58297e-10
1.59666e-10
100
100
99.9998
99.9992
99.997
99.9904
99.9732
99.9341
99.8532
99.7006
99.4335
98.9963
98.3224
97.3374
95.9655
94.1362
91.7925
88.8974
85.4392
81.4351
76.9304
71.9968
66.7267
61.2275
55.6138
50
44.4942
39.1923
34.1745
29.5027
25.2202
21.3521
17.9072
14.8798
12.253
10.0016
8.09407
6.4959
5.17109
4.08408
3.20088
2.49001
1.923
1.47467
1.12314
0.849733
0.63873
0.477111
0.354213
0.261412
0.191812
0.139953
0.101557
0.0733036
0.0526367
0.0376063
0.0267361
0.0189171
0.0133226
0.00933997
0.00651897
0.0045304
0.00313519
0.00216076
0.00148323
0.00101416
0.000690796
0.000468782
0.000316963
0.000213551
0.000143378
9.5937e-05
6.39803e-05
4.253e-05
2.81814e-05
1.86157e-05
1.22596e-05
8.04964e-06
5.27001e-06
3.44038e-06
2.23969e-06
1.45405e-06
9.41467e-07
6.0798e-07
3.91611e-07
2.51607e-07
1.61256e-07
1.03099e-07
6.57592e-08
4.18451e-08
2.65667e-08
1.68288e-08
1.06368e-08
6.7085e-09
4.22198e-09
2.65155e-09
1.66185e-09
1.03946e-09
6.48878e-10
4.04272e-10
100
100
99.9999
99.9996
99.9983
99.9943
99.9838
99.9589
99.9061
99.8033
99.6184
99.3074
98.8149
98.0761
97.0208
95.5785
93.6855
91.2914
88.3653
84.9002
80.9153
76.456
71.5914
66.4094
61.0116
55.5058
50
44.5962
39.3853
34.444
29.8321
25.5921
21.7496
18.3147
15.2839
12.6427
10.3684
8.43215
6.80162
5.44285
4.32186
3.40593
2.66447
2.06957
1.59636
1.22305
0.930888
0.703999
0.529106
0.395259
0.293535
0.216744
0.159151
0.116227
0.0844319
0.0610191
0.0438776
0.0313974
0.02236
0.01585
0.0111845
0.00785743
0.00549631
0.00382854
0.00265588
0.00183502
0.00126291
0.000865846
0.000591404
0.000402478
0.000272928
0.000184432
0.000124206
8.33681e-05
5.57748e-05
3.71952e-05
2.47274e-05
1.63885e-05
1.08293e-05
7.13482e-06
4.68725e-06
3.07065e-06
2.00606e-06
1.30702e-06
8.49315e-07
5.50461e-07
3.55858e-07
2.29479e-07
1.47619e-07
9.4732e-08
6.06494e-08
3.87391e-08
2.46879e-08
1.56982e-08
9.9601e-09
6.30582e-09
3.98383e-09
2.51165e-09
1.58026e-09
9.92267e-10
100
100
100
99.9998
99.999
99.9967
99.9902
99.9746
99.9403
99.8718
99.7451
99.5262
99.1705
98.6233
97.8221
96.7003
95.1929
93.2422
90.8038
87.852
84.3837
80.4199
76.0056
71.2075
66.1096
60.8077
55.4038
50
44.6927
39.5683
34.7002
30.1462
25.9479
22.1313
18.7076
15.6752
13.0218
10.727
8.76429
7.10357
5.71272
4.55932
3.6119
2.84073
2.21855
1.7208
1.32584
1.01492
0.772013
0.583636
0.438586
0.327665
0.243408
0.179817
0.132125
0.0965719
0.0702247
0.050811
0.0365855
0.0262177
0.0187011
0.0132793
0.00938779
0.00660816
0.00463202
0.00323352
0.00224822
0.00155703
0.00107422
0.000738348
0.000505638
0.000345035
0.000234621
0.000158994
0.000107385
7.22899e-05
4.85087e-05
3.24486e-05
2.16389e-05
1.43869e-05
9.53706e-06
6.30386e-06
4.15496e-06
2.73099e-06
1.79015e-06
1.17031e-06
7.63083e-07
4.96281e-07
3.2195e-07
2.08341e-07
1.34495e-07
8.66171e-08
5.56525e-08
3.56754e-08
2.28177e-08
1.45618e-08
9.27281e-09
5.89223e-09
3.73624e-09
2.36426e-09
100
100
100
99.9999
99.9995
99.9981
99.9942
99.9844
99.9624
99.9171
99.8311
99.6787
99.4246
99.024
98.423
97.5617
96.3773
94.8097
92.8067
90.3294
87.3565
83.8882
79.9469
75.5772
70.8434
65.8255
60.6147
55.3073
50
44.7842
39.7422
34.9442
30.446
26.2887
22.4981
19.0866
16.0542
13.3906
11.0774
9.0905
7.40161
5.98047
4.79618
3.81846
3.0185
2.36965
1.84775
1.43133
1.10167