/*--------------------------------*- C++ -*----------------------------------*\
  =========                 |
  \\      /  F ield         | OpenFOAM: The Open Source CFD Toolbox
   \\    /   O peration     | Website:  https://openfoam.org
    \\  /    A nd           | Version:  8
     \\/     M anipulation  |
\*---------------------------------------------------------------------------*/
FoamFile
{
    version     2.0;
    format      ascii;
    class       surfaceScalarField;
    location    "4";
    object      phi;
}
// * * * * * * * * * * * * * * * * * * * * * * * * * * * * * * * * * * * * * //

dimensions      [0 3 -1 0 0 0 0];

internalField   nonuniform List<scalar> 
880
(
-2.1772e-06
2.17719e-06
-4.31619e-06
2.13899e-06
-6.34552e-06
2.02932e-06
-8.21592e-06
1.87041e-06
-9.88453e-06
1.66861e-06
-1.13162e-05
1.43169e-06
-1.24848e-05
1.16858e-06
-1.33736e-05
8.88813e-07
-1.39803e-05
6.06711e-07
-1.43095e-05
3.29187e-07
-1.44876e-05
1.78125e-07
-1.73398e-07
-1.43142e-05
-2.24954e-06
4.42673e-06
-4.45863e-06
4.34808e-06
-6.55271e-06
4.12341e-06
-8.48037e-06
3.79807e-06
-1.0197e-05
3.38528e-06
-1.16664e-05
2.901e-06
-1.28619e-05
2.36412e-06
-1.37702e-05
1.79716e-06
-1.43875e-05
1.22401e-06
-1.47193e-05
6.60904e-07
-1.48328e-05
2.91716e-07
-3.57738e-07
-1.46485e-05
-2.36238e-06
6.78911e-06
-4.68032e-06
6.66602e-06
-6.87392e-06
6.317e-06
-8.88811e-06
5.81226e-06
-1.06752e-05
5.17242e-06
-1.21957e-05
4.42143e-06
-1.34166e-05
3.58503e-06
-1.43089e-05
2.68944e-06
-1.4848e-05
1.76317e-06
-1.50189e-05
8.31815e-07
-1.47381e-05
1.09179e-08
-9.74931e-07
-1.41209e-05
-2.53763e-06
9.32674e-06
-5.02433e-06
9.15271e-06
-7.37195e-06
8.66462e-06
-9.5202e-06
7.96052e-06
-1.14181e-05
7.07029e-06
-1.30242e-05
6.02755e-06
-1.43063e-05
4.86715e-06
-1.52405e-05
3.62364e-06
-1.58107e-05
2.33335e-06
-1.59942e-05
1.01532e-06
-1.57013e-05
-2.81913e-07
-1.60671e-06
-1.50696e-05
-2.78294e-06
1.21097e-05
-5.505e-06
1.18748e-05
-8.06636e-06
1.1226e-05
-1.03996e-05
1.02937e-05
-1.24497e-05
9.12038e-06
-1.41736e-05
7.75147e-06
-1.55386e-05
6.23221e-06
-1.65196e-05
4.60464e-06
-1.70932e-05
2.90694e-06
-1.72477e-05
1.16973e-06
-1.69642e-05
-5.65338e-07
-2.32657e-06
-1.62444e-05
-3.1095e-06
1.52192e-05
-6.14302e-06
1.49083e-05
-8.98485e-06
1.40678e-05
-1.15582e-05
1.28671e-05
-1.38043e-05
1.13665e-05
-1.56799e-05
9.62715e-06
-1.71552e-05
7.70751e-06
-1.82097e-05
5.65911e-06
-1.88287e-05
3.52593e-06
-1.90022e-05
1.34318e-06
-1.87104e-05
-8.57055e-07
-3.06326e-06
-1.79737e-05
-3.53371e-06
1.87529e-05
-6.96784e-06
1.83424e-05
-1.0166e-05
1.72659e-05
-1.30388e-05
1.574e-05
-1.55251e-05
1.38527e-05
-1.75838e-05
1.16858e-05
-1.91908e-05
9.31456e-06
-2.0333e-05
6.80129e-06
-2.10029e-05
4.19584e-06
-2.11963e-05
1.53655e-06
-2.09074e-05
-1.1459e-06
-3.82903e-06
-2.01416e-05
-4.07979e-06
2.28327e-05
-8.0215e-06
2.22841e-05
-1.16633e-05
2.09077e-05
-1.4899e-05
1.89757e-05
-1.7668e-05
1.66217e-05
-1.99359e-05
1.39537e-05
-2.16897e-05
1.10684e-05
-2.29282e-05
8.03981e-06
-2.36549e-05
4.92251e-06
-2.38733e-05
1.75493e-06
-2.35837e-05
-1.43547e-06
-4.62556e-06
-2.27872e-05
-4.78444e-06
2.76171e-05
-9.36479e-06
2.68645e-05
-1.35524e-05
2.50954e-05
-1.72161e-05
2.26393e-05
-2.0305e-05
1.97106e-05
-2.27984e-05
1.6447e-05
-2.47028e-05
1.29728e-05
-2.60358e-05
9.37282e-06
-2.68165e-05
5.70322e-06
-2.70589e-05
1.99737e-06
-2.67682e-05
-1.7262e-06
-5.45257e-06
-2.59412e-05
-5.70605e-06
3.33232e-05
-1.10877e-05
3.22462e-05
-1.59416e-05
2.99493e-05
-2.00954e-05
2.67931e-05
-2.3529e-05
2.31443e-05
-2.62465e-05
1.91645e-05
-2.82873e-05
1.50136e-05
-2.96978e-05
1.07834e-05
-3.05197e-05
6.52504e-06
-3.07809e-05
2.25858e-06
-3.04923e-05
-2.01481e-06
-6.30007e-06
-2.96448e-05
-6.9349e-06
4.02581e-05
-1.33226e-05
3.86339e-05
-1.89871e-05
3.56138e-05
-2.36801e-05
3.1486e-05
-2.74588e-05
2.69229e-05
-3.03691e-05
2.20748e-05
-3.25048e-05
1.71492e-05
-3.39538e-05
1.22324e-05
-3.47889e-05
7.36012e-06
-3.50584e-05
2.52804e-06
-3.47799e-05
-2.29324e-06
-7.14196e-06
-3.3938e-05
-8.65725e-06
4.89153e-05
-1.62879e-05
4.62645e-05
-2.29294e-05
4.22553e-05
-2.81692e-05
3.67258e-05
-3.22462e-05
3.1e-05
-3.52715e-05
2.51001e-05
-3.74166e-05
1.92943e-05
-3.88301e-05
1.36459e-05
-3.96308e-05
8.16083e-06
-3.98918e-05
2.78904e-06
-3.96383e-05
-2.54681e-06
-7.93316e-06
-3.88471e-05
-1.10039e-05
5.99192e-05
-2.01895e-05
5.54502e-05
-2.80645e-05
5.01302e-05
-3.38164e-05
4.24777e-05
-3.80818e-05
3.52654e-05
-4.10595e-05
2.80778e-05
-4.30646e-05
2.12994e-05
-4.43302e-05
1.49116e-05
-4.50262e-05
8.85677e-06
-4.5254e-05
3.01683e-06
-4.50481e-05
-2.75266e-06
-8.60453e-06
-4.43768e-05
-1.51908e-05
7.511e-05
-2.60123e-05
6.62717e-05
-3.52093e-05
5.93272e-05
-4.10547e-05
4.83231e-05
-4.51908e-05
3.94015e-05
-4.78311e-05
3.07181e-05
-4.94706e-05
2.29389e-05
-5.04212e-05
1.58622e-05
-5.09097e-05
9.34527e-06
-5.1069e-05
3.17613e-06
-5.09437e-05
-2.87792e-06
-9.05496e-06
-5.04933e-05
-1.96152e-05
9.47251e-05
-3.2653e-05
7.93095e-05
-4.35983e-05
7.02726e-05
-4.95969e-05
5.43217e-05
-5.35828e-05
4.33874e-05
-5.56069e-05
3.27422e-05
-5.6582e-05
2.3914e-05
-5.69928e-05
1.62729e-05
-5.71387e-05
9.49117e-06
-5.71832e-05
3.22064e-06
-5.71806e-05
-2.88047e-06
-9.15247e-06
-5.70831e-05
-3.40256e-05
0.000128751
-4.79427e-05
9.32266e-05
-5.93155e-05
8.16454e-05
-6.28291e-05
5.78354e-05
-6.46973e-05
4.52556e-05
-6.48006e-05
3.28454e-05
-6.44005e-05
2.3514e-05
-6.38872e-05
1.57596e-05
-6.35046e-05
9.10854e-06
-6.33773e-05
3.09337e-06
-6.35497e-05
-2.70811e-06
-8.7139e-06
-6.39882e-05
-4.2136e-05
0.000170887
-5.83572e-05
0.000109448
-7.13406e-05
9.46287e-05
-7.40996e-05
6.05944e-05
-7.49586e-05
4.61145e-05
-7.37119e-05
3.15988e-05
-7.21121e-05
2.19142e-05
-7.06182e-05
1.42656e-05
-6.96285e-05
8.11886e-06
-6.92959e-05
2.76082e-06
-6.96638e-05
-2.34028e-06
-7.68042e-06
-7.06972e-05
-0.000101977
0.000272864
-0.0001059
0.00011337
-0.000107343
9.60718e-05
-9.97288e-05
5.29806e-05
-9.18938e-05
3.82795e-05
-8.55719e-05
2.52769e-05
-8.0622e-05
1.69643e-05
-7.72342e-05
1.08779e-05
-7.52766e-05
6.16126e-06
-7.46437e-05
2.12792e-06
-7.53072e-05
-1.67678e-06
-5.66164e-06
-7.7326e-05
-0.00011676
0.000389624
-0.000119052
0.000115662
-0.000118818
9.58383e-05
-0.000108365
4.25273e-05
-9.80168e-05
2.79315e-05
-8.98132e-05
1.70733e-05
-8.33596e-05
1.05107e-05
-7.89247e-05
6.44294e-06
-7.63057e-05
3.5423e-06
-7.54054e-05
1.22763e-06
-7.6176e-05
-9.06134e-07
-3.19462e-06
-7.86431e-05
0.000389624
0.000505286
0.000601124
0.000643651
0.000671583
0.000688656
0.000699167
0.00070561
0.000709152
0.00071038
0.000709474
0.000706279
-1.0745e-05
3.82226e-06
-7.39151e-06
-8.21541e-06
1.37257e-06
-3.90216e-06
-6.59778e-06
-5.51174e-07
-1.06646e-06
-5.19055e-06
-2.08824e-06
6.81015e-07
-3.86253e-06
-3.25377e-06
1.92575e-06
-2.56081e-06
-4.09805e-06
2.79633e-06
-1.27425e-06
-4.64325e-06
3.35669e-06
-4.87459e-06
3.60034e-06
-1.14209e-05
5.94693e-07
-9.06536e-06
-9.83011e-07
-7.40015e-06
-2.21639e-06
-5.92655e-06
-3.56184e-06
-4.5e-06
-4.68033e-06
-3.04035e-06
-5.55769e-06
-1.52886e-06
-6.15473e-06
-6.40346e-06
-1.2401e-05
-1.12523e-06
-1.07543e-05
-2.62969e-06
-9.00621e-06
-3.96452e-06
-7.25664e-06
-5.31141e-06
-5.47585e-06
-6.46111e-06
-3.67305e-06
-7.36049e-06
-1.83893e-06
-7.98886e-06
-8.24238e-06
-1.34816e-05
-2.7132e-06
-1.18779e-05
-4.23342e-06
-1.01248e-05
-5.71755e-06
-8.28552e-06
-7.15073e-06
-6.33684e-06
-8.40979e-06
-4.28057e-06
-9.41677e-06
-2.15089e-06
-1.01185e-05
-1.03933e-05
-1.49793e-05
-3.97827e-06
-1.34163e-05
-5.79641e-06
-1.15853e-05
-7.54852e-06
-9.549e-06
-9.18707e-06
-7.33464e-06
-1.06242e-05
-4.97278e-06
-1.17786e-05
-2.50448e-06
-1.25868e-05
-1.28978e-05
-1.67305e-05
-5.22156e-06
-1.51286e-05
-7.39823e-06
-1.31903e-05
-9.4868e-06
-1.09559e-05
-1.14215e-05
-8.46574e-06
-1.31143e-05
-5.76441e-06
-1.448e-05
-2.91104e-06
-1.54402e-05
-1.58088e-05
-1.88861e-05
-6.47708e-06
-1.71969e-05
-9.08742e-06
-1.50978e-05
-1.1586e-05
-1.2621e-05
-1.38983e-05
-9.80561e-06
-1.59297e-05
-6.70476e-06
-1.75808e-05
-3.39575e-06
-1.87492e-05
-1.92045e-05
-2.14772e-05
-7.78705e-06
-1.96717e-05
-1.08929e-05
-1.73797e-05
-1.3878e-05
-1.46191e-05
-1.6659e-05
-1.14231e-05
-1.91257e-05
-7.84671e-06
-2.11572e-05
-3.98849e-06
-2.26074e-05
-2.3193e-05
-2.45652e-05
-9.163e-06
-2.26309e-05
-1.28272e-05
-2.01255e-05
-1.63834e-05
-1.70445e-05
-1.974e-05
-1.34075e-05
-2.27627e-05
-9.26085e-06
-2.53038e-05
-4.7311e-06
-2.71372e-05
-2.79241e-05
-2.82126e-05
-1.05951e-05
-2.61589e-05
-1.48809e-05
-2.34393e-05
-1.9103e-05
-2.00144e-05
-2.31648e-05
-1.58781e-05
-2.6899e-05
-1.10454e-05
-3.01365e-05
-5.68676e-06
-3.24959e-05
-3.36109e-05
-3.24855e-05
-1.20476e-05
-3.03515e-05
-1.70149e-05
-2.74489e-05
-2.20056e-05
-2.36818e-05
-2.69319e-05
-1.90007e-05
-3.15802e-05
-1.33407e-05
-3.57965e-05
-6.95108e-06
-3.88855e-05
-4.0562e-05
-3.74467e-05
-1.3448e-05
-3.53191e-05
-1.91425e-05
-3.23132e-05
-2.50115e-05
-2.82541e-05
-3.0991e-05
-2.30255e-05
-3.68088e-05
-1.63735e-05
-4.24485e-05
-8.71705e-06
-4.65419e-05
-4.9279e-05
-4.31401e-05
-1.46846e-05
-4.1169e-05
-2.11136e-05
-3.8228e-05
-2.79526e-05
-3.39934e-05
-3.52256e-05
-2.82606e-05
-4.25416e-05
-2.0361e-05
-5.03481e-05
-1.11328e-05
-5.577e-05
-6.04119e-05
-4.95879e-05
-1.559e-05
-4.80015e-05
-2.27e-05
-4.54214e-05
-3.05327e-05
-4.13384e-05
-3.93087e-05
-3.55379e-05
-4.83421e-05
-2.63046e-05
-5.95814e-05
-1.54103e-05
-6.66642e-05
-7.58222e-05
-5.67323e-05
-1.59408e-05
-5.58298e-05
-2.36026e-05
-5.38911e-05
-3.24713e-05
-4.99867e-05
-4.3213e-05
-4.41005e-05
-5.42284e-05
-3.3135e-05
-7.05469e-05
-2.0089e-05
-7.97102e-05
-9.59112e-05
-6.45848e-05
-1.53442e-05
-6.50983e-05
-2.30891e-05
-6.51476e-05
-3.2422e-05
-6.34305e-05
-4.49301e-05
-6.01086e-05
-5.75503e-05
-4.87362e-05
-8.19192e-05
-3.47124e-05
-9.37341e-05
-0.000130624
-7.22475e-05
-1.3794e-05
-7.39378e-05
-2.13988e-05
-7.53513e-05
-3.10086e-05
-7.46949e-05
-4.55865e-05
-7.23615e-05
-5.98837e-05
-5.96128e-05
-9.46679e-05
-4.40048e-05
-0.000109342
-0.000174628
-8.08163e-05
-1.03037e-05
-8.59462e-05
-1.62689e-05
-9.25995e-05
-2.43552e-05
-0.000100836
-3.73499e-05
-0.000109204
-5.15161e-05
-0.000108231
-9.56409e-05
-0.00010431
-0.000113263
-0.000278938
-8.29056e-05
-6.04111e-06
-8.91383e-05
-1.00363e-05
-9.70503e-05
-1.64432e-05
-0.000107084
-2.73158e-05
-0.000117016
-4.15849e-05
-0.000117161
-9.54951e-05
-0.000113943
-0.000116481
-0.000392881
0.000700238
0.000690202
0.000673758
0.000646443
0.000604858
0.000509363
0.000392881
-1.96554e-07
1.96554e-07
-3.55246e-07
1.58692e-07
-4.5265e-07
9.74042e-08
-4.77884e-07
2.52339e-08
-4.30516e-07
-4.73676e-08
-3.21976e-07
-1.0854e-07
-1.70895e-07
-1.51081e-07
-1.70895e-07
-2.27726e-07
4.2428e-07
-4.08437e-07
3.39403e-07
-5.15232e-07
2.042e-07
-5.33463e-07
4.3464e-08
-4.77862e-07
-1.02968e-07
-3.58557e-07
-2.27845e-07
-1.91344e-07
-3.18295e-07
-3.62239e-07
-3.14112e-07
7.38392e-07
-5.5015e-07
5.75441e-07
-6.83562e-07
3.37611e-07
-7.11911e-07
7.18132e-08
-6.29574e-07
-1.85305e-07
-4.62406e-07
-3.95012e-07
-2.42163e-07
-5.38538e-07
-6.04402e-07
-4.19851e-07
1.15824e-06
-7.25304e-07
8.80894e-07
-8.82942e-07
4.9525e-07
-8.81449e-07
7.03196e-08
-7.72514e-07
-2.9424e-07
-5.72534e-07
-5.94992e-07
-3.03906e-07
-8.07165e-07
-9.08308e-07
-7.21967e-07
1.88021e-06
-1.17725e-06
1.33618e-06
-1.3726e-06
6.90598e-07
-1.36425e-06
6.19729e-08
-1.16024e-06
-4.98254e-07
-8.28969e-07
-9.26261e-07
-4.2714e-07
-1.20899e-06
-1.33545e-06
-9.59511e-07
2.83972e-06
-1.54824e-06
1.9249e-06
-1.76977e-06
9.12131e-07
-1.68471e-06
-2.30932e-08
-1.42946e-06
-7.53496e-07
-1.03629e-06
-1.31943e-06
-5.42808e-07
-1.70248e-06
-1.87826e-06
-2.03132e-06
4.87104e-06
-2.9332e-06
2.82679e-06
-3.02041e-06
9.99343e-07
-2.75154e-06
-2.91965e-07
-2.20667e-06
-1.29837e-06
-1.5208e-06
-2.0053e-06
-7.68382e-07
-2.4549e-06
-2.64664e-06
-2.52047e-06
-3.59584e-06
-3.66296e-06
-3.27391e-06
-2.64653e-06
-1.85549e-06
-9.53699e-07
)
;

boundaryField
{
    movingWall
    {
        type            calculated;
        value           uniform 0;
    }
    fixedWalls
    {
        type            calculated;
        value           uniform 0;
    }
    frontAndBack
    {
        type            empty;
        value           nonuniform List<scalar> 0();
    }
}


// ************************************************************************* //
