/*--------------------------------*- C++ -*----------------------------------*\
  =========                 |
  \\      /  F ield         | OpenFOAM: The Open Source CFD Toolbox
   \\    /   O peration     | Website:  https://openfoam.org
    \\  /    A nd           | Version:  8
     \\/     M anipulation  |
\*---------------------------------------------------------------------------*/
FoamFile
{
    version     2.0;
    format      ascii;
    class       volVectorField;
    location    "5";
    object      U;
}
// * * * * * * * * * * * * * * * * * * * * * * * * * * * * * * * * * * * * * //

dimensions      [0 1 -1 0 0 0 0];

internalField   nonuniform List<vector> 
116
(
(-0.00105639 0.00102466 0)
(-0.00379136 0.00126554 0)
(-0.00686176 0.00112995 0)
(-0.00950638 0.000846348 0)
(-0.0115325 0.000496371 0)
(-0.0136827 0.000603493 0)
(-0.00148149 0.00384364 0)
(-0.00518003 0.00482666 0)
(-0.00927181 0.00462999 0)
(-0.0128098 0.00419687 0)
(-0.0157044 0.00343657 0)
(-0.0182045 0.00217587 0)
(-0.00147401 0.00733197 0)
(-0.00534923 0.00875846 0)
(-0.00969246 0.00811956 0)
(-0.0134707 0.00683862 0)
(-0.016817 0.00501133 0)
(-0.0195181 0.00226386 0)
(-0.0019635 0.0109037 0)
(-0.00652391 0.0141102 0)
(-0.0115814 0.0133875 0)
(-0.0162711 0.0124637 0)
(-0.0206605 0.0104099 0)
(-0.0244341 0.00704949 0)
(-0.000879361 0.0150721 0)
(-0.00555593 0.0169063 0)
(-0.0114041 0.0163867 0)
(-0.0163119 0.0141099 0)
(-0.0220767 0.0117276 0)
(-0.027237 0.00733243 0)
(-0.00431424 0.0180897 0)
(-0.00964063 0.0275185 0)
(-0.0147734 0.0255223 0)
(-0.021287 0.0259783 0)
(-0.0277877 0.0242103 0)
(-0.0348091 0.0213841 0)
(0.0026833 0.0285555 0)
(-0.00299881 0.023377 0)
(-0.0134201 0.0258736 0)
(-0.0171716 0.022312 0)
(-0.0260767 0.0231471 0)
(-0.0310264 0.0198917 0)
(0.000838746 0.0170334 0)
(-0.00950463 0.0488815 0)
(-0.00905667 0.0420418 0)
(-0.022277 0.0447029 0)
(-0.0299501 0.0439613 0)
(-0.0368303 0.0473888 0)
(-0.062466 0.0429533 0)
(-0.0371542 0.025979 0)
(-0.058138 0.0355278 0)
(-0.0399678 0.0336812 0)
(-0.0355843 0.0350829 0)
(-0.00997189 0.0329972 0)
(0.060541 0.102483 0)
(0.0990028 0.0578088 0)
(0.127607 0.0452181 0)
(0.186015 0.0337668 0)
(0.185599 0.0207429 0)
(0.245203 0.0245905 0)
(-0.0133293 0.00539409 0)
(-0.00986559 0.000106365 0)
(-0.00681995 -0.00384035 0)
(-0.00244694 -0.0056618 0)
(-0.0169951 0.00137337 0)
(-0.0131512 -0.00391792 0)
(-0.00984082 -0.00801564 0)
(-0.00407661 -0.0114981 0)
(-0.0210271 -0.0008609 0)
(-0.0195901 -0.00784105 0)
(-0.0169539 -0.0133941 0)
(-0.00853353 -0.0208658 0)
(-0.0272016 0.00259525 0)
(-0.02663 -0.00782632 0)
(-0.0270008 -0.0157035 0)
(-0.0168976 -0.0363708 0)
(-0.0356864 0.0017749 0)
(-0.0395394 -0.0119878 0)
(-0.0484454 -0.0221065 0)
(-0.0346028 -0.0669069 0)
(-0.0466751 0.0192871 0)
(-0.0520736 0.00262638 0)
(-0.0689211 -0.0109607 0)
(-0.0385245 -0.120591 0)
(-0.0510598 0.020509 0)
(-0.0570359 0.000863631 0)
(-0.0900006 -0.0302844 0)
(-0.00755314 -0.189706 0)
(-0.0559001 0.0578488 0)
(-0.0446736 0.0309412 0)
(-0.0708693 -0.0376114 0)
(0.0432593 -0.217272 0)
(-0.00919883 0.0283714 0)
(0.0520246 -0.00227374 0)
(0.0183708 -0.11912 0)
(0.0755685 -0.245842 0)
(0.229912 0.00822252 0)
(0.27749 0.000356586 0)
(0.219875 -0.0213996 0)
(0.161577 -0.0848082 0)
(-0.000251106 -0.000203856 0)
(-0.000615961 -0.000314719 0)
(-0.000560186 -0.000369234 0)
(-0.000195314 -0.000345833 0)
(-0.000398932 0.00114924 0)
(-0.000892796 0.000679861 0)
(-0.000767289 -4.48119e-05 0)
(-0.000272229 -0.000368786 0)
(-0.00101825 0.000894472 0)
(-0.00218496 -5.92528e-05 0)
(-0.00184067 -0.00113551 0)
(-0.000653894 -0.00152694 0)
(-0.00200728 0.00490575 0)
(-0.00330431 0.00175519 0)
(-0.00263095 -0.00137454 0)
(-0.00098193 -0.00263146 0)
)
;

boundaryField
{
    movingWall
    {
        type            fixedValue;
        value           uniform (1 0 0);
    }
    fixedWalls
    {
        type            noSlip;
    }
    frontAndBack
    {
        type            empty;
    }
}


// ************************************************************************* //
