/*--------------------------------*- C++ -*----------------------------------*\
  =========                 |
  \\      /  F ield         | OpenFOAM: The Open Source CFD Toolbox
   \\    /   O peration     | Website:  https://openfoam.org
    \\  /    A nd           | Version:  8
     \\/     M anipulation  |
\*---------------------------------------------------------------------------*/
FoamFile
{
    version     2.0;
    format      ascii;
    class       surfaceScalarField;
    location    "18";
    object      phi;
}
// * * * * * * * * * * * * * * * * * * * * * * * * * * * * * * * * * * * * * //

dimensions      [0 3 -1 0 0 0 0];

internalField   nonuniform List<scalar> 
760
(
0.0004
-9.1106e-12
0.0004
-4.31588e-11
0.0004
-1.00285e-10
0.0004
-1.83252e-10
0.0004
-2.97211e-10
0.0004
-4.4967e-10
0.0004
-6.49334e-10
0.0004
-9.06524e-10
0.0004
-1.23341e-09
0.0004
-1.64406e-09
0.000400001
-2.15439e-09
0.000400001
-2.78188e-09
0.000400001
-3.54503e-09
0.000400001
-4.46266e-09
0.000400001
-5.55238e-09
0.000400001
-6.83052e-09
0.000400001
-8.30627e-09
0.000400001
-9.99379e-09
0.000400001
-1.18378e-08
-1.41545e-08
0.0004
-1.37756e-11
0.0004
-5.76538e-11
0.0004
-1.25028e-10
0.0004
-2.17523e-10
0.0004
-3.40555e-10
0.0004
-5.017e-10
0.0004
-7.09747e-10
0.0004
-9.75026e-10
0.0004
-1.30965e-09
0.0004
-1.72758e-09
0.000400001
-2.24459e-09
0.000400001
-2.87799e-09
0.000400001
-3.6461e-09
0.000400001
-4.56763e-09
0.000400001
-5.66016e-09
0.000400001
-6.94006e-09
0.000400001
-8.41668e-09
0.000400001
-1.0104e-08
0.000400001
-1.19482e-08
-1.42736e-08
0.0004
-1.70541e-11
0.0004
-6.92893e-11
0.0004
-1.45894e-10
0.0004
-2.47248e-10
0.0004
-3.78687e-10
0.0004
-5.47828e-10
0.0004
-7.63507e-10
0.0004
-1.03603e-09
0.0004
-1.37742e-09
0.0004
-1.8015e-09
0.0004
-2.32388e-09
0.000400001
-2.96173e-09
0.000400001
-3.73326e-09
0.000400001
-4.65716e-09
0.000400001
-5.75127e-09
0.000400001
-7.0325e-09
0.000400001
-8.51118e-09
0.000400001
-1.02028e-08
0.000400001
-1.20572e-08
-1.44136e-08
0.0004
-1.91298e-11
0.0004
-7.77074e-11
0.0004
-1.62014e-10
0.0004
-2.71088e-10
0.0004
-4.09949e-10
0.0004
-5.86158e-10
0.0004
-8.08492e-10
0.0004
-1.08716e-09
0.0004
-1.43405e-09
0.0004
-1.86282e-09
0.0004
-2.38889e-09
0.0004
-3.02934e-09
0.000400001
-3.80234e-09
0.000400001
-4.72679e-09
0.000400001
-5.82106e-09
0.000400001
-7.10316e-09
0.000400001
-8.5853e-09
0.000400001
-1.02855e-08
0.000400001
-1.21583e-08
-1.456e-08
0.0004
-2.05243e-11
0.0004
-8.36511e-11
0.0004
-1.73986e-10
0.0004
-2.89314e-10
0.0004
-4.34261e-10
0.0004
-6.1625e-10
0.0004
-8.4391e-10
0.0004
-1.12729e-09
0.0004
-1.47806e-09
0.0004
-1.90969e-09
0.0004
-2.43741e-09
0.0004
-3.07819e-09
0.0004
-3.8503e-09
0.0004
-4.77301e-09
0.0004
-5.86559e-09
0.000400001
-7.14757e-09
0.000400001
-8.6339e-09
0.000400001
-1.0346e-08
0.000400001
-1.22435e-08
-1.47033e-08
0.0004
-2.14828e-11
0.0004
-8.77481e-11
0.0004
-1.82581e-10
0.0004
-3.02657e-10
0.0004
-4.52222e-10
0.0004
-6.38517e-10
0.0004
-8.69966e-10
0.0004
-1.15639e-09
0.0004
-1.50922e-09
0.0004
-1.94167e-09
0.0004
-2.46876e-09
0.0004
-3.10737e-09
0.0004
-3.87597e-09
0.0004
-4.79437e-09
0.0004
-5.88305e-09
0.0004
-7.16347e-09
0.0004
-8.65396e-09
0.0004
-1.03801e-08
0.0004
-1.23071e-08
-1.48359e-08
0.0004
-2.21204e-11
0.0004
-9.04798e-11
0.0004
-1.88487e-10
0.0004
-3.11913e-10
0.0004
-4.6466e-10
0.0004
-6.53767e-10
0.0004
-8.87424e-10
0.0004
-1.17519e-09
0.0004
-1.52819e-09
0.0004
-1.95935e-09
0.0004
-2.48349e-09
0.0004
-3.11741e-09
0.0004
-3.87981e-09
0.0004
-4.79124e-09
0.0004
-5.87364e-09
0.0004
-7.15068e-09
0.0004
-8.64466e-09
0.0004
-1.0386e-08
0.0004
-1.23455e-08
-1.49514e-08
0.0004
-2.25191e-11
0.0004
-9.21924e-11
0.0004
-1.92232e-10
0.0004
-3.17758e-10
0.0004
-4.72361e-10
0.0004
-6.62876e-10
0.0004
-8.97234e-10
0.0004
-1.18469e-09
0.0004
-1.53606e-09
0.0004
-1.96394e-09
0.0004
-2.48294e-09
0.0004
-3.10978e-09
0.0004
-3.86345e-09
0.0004
-4.76536e-09
0.0004
-5.83909e-09
0.0004
-7.11078e-09
0.0004
-8.60705e-09
0.0004
-1.03635e-08
0.0004
-1.23571e-08
-1.50453e-08
0.0004
-2.27513e-11
0.0004
-9.3111e-11
0.0004
-1.94179e-10
0.0004
-3.20681e-10
0.0004
-4.75945e-10
0.0004
-6.66591e-10
0.0004
-9.0028e-10
0.0004
-1.18595e-09
0.0004
-1.53406e-09
0.0004
-1.95689e-09
0.0004
-2.4688e-09
0.0004
-3.08647e-09
0.0004
-3.82922e-09
0.0004
-4.71935e-09
0.0004
-5.78221e-09
0.0004
-7.0466e-09
0.0004
-8.54361e-09
0.0004
-1.03145e-08
0.0004
-1.23419e-08
-1.51146e-08
0.0004
-2.28623e-11
0.0004
-9.33631e-11
0.0004
-1.9454e-10
0.0004
-3.20982e-10
0.0004
-4.75815e-10
0.0004
-6.6544e-10
0.0004
-8.97234e-10
0.0004
-1.17981e-09
0.0004
-1.52327e-09
0.0004
-1.93956e-09
0.0004
-2.44279e-09
0.0004
-3.04962e-09
0.0004
-3.77968e-09
0.0004
-4.65621e-09
0.0004
-5.70637e-09
0.0004
-6.96166e-09
0.0004
-8.45773e-09
0.000399999
-1.02415e-08
0.000399999
-1.23014e-08
-1.5158e-08
0.0004
-2.28576e-11
0.0004
-9.29927e-11
0.0004
-1.93397e-10
0.0004
-3.18784e-10
0.0004
-4.72157e-10
0.0004
-6.59697e-10
0.0004
-8.88498e-10
0.0004
-1.16685e-09
0.0004
-1.50451e-09
0.0004
-1.91307e-09
0.0004
-2.40643e-09
0.0004
-3.00119e-09
0.0004
-3.71733e-09
0.0004
-4.57898e-09
0.0004
-5.6151e-09
0.0004
-6.85987e-09
0.000399999
-8.35334e-09
0.000399999
-1.01481e-08
0.000399999
-1.2238e-08
-1.51752e-08
0.0004
-2.27092e-11
0.0004
-9.19605e-11
0.0004
-1.907e-10
0.0004
-3.14036e-10
0.0004
-4.64941e-10
0.0004
-6.49378e-10
0.0004
-8.74178e-10
0.0004
-1.14732e-09
0.0004
-1.47824e-09
0.0004
-1.87821e-09
0.0004
-2.36088e-09
0.0004
-2.94284e-09
0.0004
-3.6444e-09
0.0004
-4.49053e-09
0.0004
-5.51187e-09
0.000399999
-6.74516e-09
0.000399999
-8.23459e-09
0.000399999
-1.00383e-08
0.000399999
-1.21548e-08
-1.51672e-08
0.0004
-2.23689e-11
0.0004
-9.01372e-11
0.0004
-1.86264e-10
0.0004
-3.06516e-10
0.0004
-4.53924e-10
0.0004
-6.34254e-10
0.0004
-8.54106e-10
0.0004
-1.12119e-09
0.0004
-1.44463e-09
0.0004
-1.83542e-09
0.0004
-2.30699e-09
0.0004
-2.87593e-09
0.0004
-3.56282e-09
0.0004
-4.39344e-09
0.000399999
-5.39995e-09
0.000399999
-6.62141e-09
0.000399999
-8.1058e-09
0.000399999
-9.91644e-09
0.000399999
-1.20557e-08
-1.51363e-08
0.0004
-2.17719e-11
0.0004
-8.72963e-11
0.0004
-1.79763e-10
0.0004
-2.95825e-10
0.0004
-4.38661e-10
0.0004
-6.1388e-10
0.0004
-8.27893e-10
0.0004
-1.08818e-09
0.0004
-1.40359e-09
0.0004
-1.7849e-09
0.0004
-2.24535e-09
0.0004
-2.80152e-09
0.0004
-3.47426e-09
0.000399999
-4.29004e-09
0.000399999
-5.28238e-09
0.000399999
-6.49239e-09
0.000399999
-7.97132e-09
0.000399999
-9.7872e-09
0.000399999
-1.19453e-08
-1.50859e-08
0.0004
-2.08327e-11
0.0004
-8.31065e-11
0.0004
-1.70717e-10
0.0004
-2.81397e-10
0.0004
-4.1855e-10
0.0004
-5.87674e-10
0.0004
-7.95037e-10
0.0004
-1.04792e-09
0.0004
-1.35498e-09
0.0004
-1.72678e-09
0.0004
-2.17645e-09
0.0004
-2.72056e-09
0.0004
-3.38022e-09
0.000399999
-4.1825e-09
0.000399999
-5.16206e-09
0.000399999
-6.36176e-09
0.000399999
-7.83552e-09
0.000399999
-9.65554e-09
0.000399999
-1.18289e-08
-1.50205e-08
0.0004
-1.94278e-11
0.0004
-7.71166e-11
0.0004
-1.585e-10
0.0004
-2.62546e-10
0.0004
-3.92929e-10
0.0004
-5.5507e-10
0.0004
-7.55116e-10
0.0004
-1.00019e-09
0.0004
-1.29878e-09
0.0004
-1.66132e-09
0.0004
-2.10087e-09
0.0004
-2.63405e-09
0.000399999
-3.2822e-09
0.000399999
-4.07287e-09
0.000399999
-5.04171e-09
0.000399999
-6.233e-09
0.000399999
-7.70267e-09
0.000399999
-9.52648e-09
0.000399999
-1.17121e-08
-1.49458e-08
0.0004
-1.73154e-11
0.0004
-6.87273e-11
0.0004
-1.424e-10
0.0004
-2.38623e-10
0.0004
-3.61309e-10
0.0004
-5.15789e-10
0.0004
-7.08076e-10
0.0004
-9.45147e-10
0.0004
-1.23537e-09
0.0004
-1.58912e-09
0.0004
-2.01948e-09
0.000399999
-2.54314e-09
0.000399999
-3.18168e-09
0.000399999
-3.96304e-09
0.000399999
-4.92371e-09
0.000399999
-6.10912e-09
0.000399999
-7.57659e-09
0.000399999
-9.40468e-09
0.000399999
-1.16006e-08
-1.4868e-08
0.0004
-1.39838e-11
0.0004
-5.7224e-11
0.0004
-1.21849e-10
0.0004
-2.09359e-10
0.0004
-3.2375e-10
0.0004
-4.702e-10
0.0004
-6.5455e-10
0.0004
-8.83623e-10
0.0004
-1.16573e-09
0.0004
-1.51127e-09
0.0004
-1.93345e-09
0.000399999
-2.44911e-09
0.000399999
-3.08002e-09
0.000399999
-3.85452e-09
0.000399999
-4.80975e-09
0.000399999
-5.99214e-09
0.000399999
-7.45991e-09
0.000399999
-9.29381e-09
0.000399999
-1.14996e-08
-1.47935e-08
0.0004
-9.07604e-12
0.0004
-4.265e-11
0.0004
-9.73315e-11
0.0004
-1.75571e-10
0.0004
-2.81225e-10
0.0004
-4.19353e-10
0.0004
-5.95667e-10
0.0004
-8.16845e-10
0.0004
-1.0911e-09
0.0004
-1.42894e-09
0.000399999
-1.84385e-09
0.000399999
-2.35286e-09
0.000399999
-2.97782e-09
0.000399999
-3.74742e-09
0.000399999
-4.69958e-09
0.000399999
-5.8816e-09
0.000399999
-7.35226e-09
0.000399999
-9.19401e-09
0.000399999
-1.14118e-08
-1.47301e-08
0.0004
0.0004
0.0004
0.0004
0.0004
0.0004
0.0004
0.0004
0.0004
0.0004
0.000399999
0.000399999
0.000399999
0.000399999
0.000399999
0.000399999
0.000399999
0.000399999
0.000399999
)
;

boundaryField
{
    inlet
    {
        type            calculated;
        value           nonuniform List<scalar> 
20
(
-0.0004
-0.0004
-0.0004
-0.0004
-0.0004
-0.0004
-0.0004
-0.0004
-0.0004
-0.0004
-0.0004
-0.0004
-0.0004
-0.0004
-0.0004
-0.0004
-0.0004
-0.0004
-0.0004
-0.0004
)
;
    }
    outlet
    {
        type            calculated;
        value           nonuniform List<scalar> 
20
(
0.000400002
0.000400002
0.000400001
0.000400001
0.000400001
0.000400001
0.0004
0.0004
0.0004
0.000399999
0.000399999
0.000399999
0.000399999
0.000399999
0.000399999
0.000399999
0.000399999
0.000399999
0.000399999
0.000399999
)
;
    }
    up
    {
        type            calculated;
        value           nonuniform List<scalar> 
20
(
-2.58152e-12
-2.54704e-11
-7.10251e-11
-1.40098e-10
-2.36781e-10
-3.66151e-10
-5.33959e-10
-7.4698e-10
-1.01348e-09
-1.34392e-09
-1.75186e-09
-2.25473e-09
-2.87481e-09
-3.6409e-09
-4.59119e-09
-5.77428e-09
-7.2496e-09
-9.1011e-09
-1.13339e-08
-1.46797e-08
)
;
    }
    down
    {
        type            calculated;
        value           nonuniform List<scalar> 
20
(
2.43963e-12
2.56104e-11
7.34993e-11
1.47106e-10
2.51763e-10
3.95085e-10
5.8583e-10
8.34343e-10
1.15284e-09
1.55549e-09
2.05832e-09
2.67897e-09
3.43619e-09
4.34896e-09
5.43509e-09
6.71077e-09
8.18655e-09
9.87505e-09
1.17292e-08
1.40591e-08
)
;
    }
    frontAndBack
    {
        type            empty;
        value           nonuniform List<scalar> 0();
    }
}


// ************************************************************************* //
