/*--------------------------------*- C++ -*----------------------------------*\
  =========                 |
  \\      /  F ield         | OpenFOAM: The Open Source CFD Toolbox
   \\    /   O peration     | Website:  https://openfoam.org
    \\  /    A nd           | Version:  8
     \\/     M anipulation  |
\*---------------------------------------------------------------------------*/
FoamFile
{
    version     2.0;
    format      ascii;
    class       volScalarField;
    location    "0.838";
    object      T;
}
// * * * * * * * * * * * * * * * * * * * * * * * * * * * * * * * * * * * * * //

dimensions      [0 0 0 1 0 0 0];

internalField   nonuniform List<scalar> 
2500
(
50
4.65253
-4.65221
-1.18302
1.18147
0.456366
-0.451909
-0.228391
0.218404
0.14045
-0.121942
-0.101602
0.071288
0.0838547
-0.039162
-0.0731133
0.0136597
0.063384
0.00879816
-0.0518437
-0.0255577
0.033162
0.0384579
-0.0127036
-0.0400399
-0.00897241
0.0294276
0.0276988
-0.0128857
-0.0311025
-0.00917547
0.0204137
0.0267784
-0.00401191
-0.0238993
-0.0155879
0.00593131
0.025965
0.00996244
-0.0122214
-0.0170251
-0.0130178
0.012696
0.0203132
0.00368925
-0.00331137
-0.0178514
-0.0140677
0.0111063
0.00979082
95.3476
49.9998
10.4876
-4.65119
-2.82041
1.17761
1.13642
-0.443158
-0.58668
0.201031
0.364154
-0.0935387
-0.256922
0.0282676
0.197259
0.0186378
-0.152135
-0.0571747
0.108622
0.0865898
-0.0627651
-0.0979815
0.0091026
0.0945426
0.0350268
-0.0638016
-0.0672193
0.0168718
0.0759926
0.0255538
-0.0453821
-0.0590448
-0.000367952
0.060292
0.0348248
-0.0165302
-0.0520625
-0.0309728
0.0345559
0.0413648
0.0180884
-0.0205411
-0.0524963
-0.00861139
0.0240537
0.0281675
0.0315325
-0.0213041
-0.0405257
-0.00797819
104.652
89.5126
49.9996
12.125
-4.64905
-3.5001
1.17071
1.49529
-0.428983
-0.810772
0.175362
0.521723
-0.054025
-0.373332
-0.0269127
0.280627
0.0886592
-0.203346
-0.1357
0.124777
0.163236
-0.0429202
-0.160329
-0.03834
0.126527
0.0957975
-0.0554506
-0.124238
-0.0204745
0.0997043
0.0787425
-0.0266907
-0.104613
-0.0406275
0.0621559
0.0771837
0.0242083
-0.0731638
-0.0713744
0.00965182
0.0506964
0.0698302
-0.00133646
-0.0716824
-0.036942
-0.0128179
0.0409237
0.0746289
-0.00607048
-0.0309303
101.183
104.652
87.8753
49.9991
12.8051
-4.64553
-3.85888
1.15989
1.72129
-0.408723
-0.970249
0.140131
0.643062
-0.00318835
-0.46369
-0.0936916
0.338983
0.169543
-0.230071
-0.216146
0.111799
0.234413
0.0029161
-0.20618
-0.100521
0.127285
0.162886
-0.0200831
-0.16581
-0.0746184
0.0889176
0.138153
0.0161197
-0.127424
-0.0884515
0.0241895
0.113757
0.0799408
-0.065542
-0.0937716
-0.049089
0.0356634
0.117182
0.0300559
-0.0475388
-0.0611804
-0.0764404
0.0364764
0.0909441
0.02224
98.8181
102.821
104.65
87.1955
49.9985
13.1648
-4.64026
-4.08507
1.14437
1.88485
-0.38152
-1.0952
0.0943796
0.742033
0.0589113
-0.53337
-0.171746
0.375013
0.258023
-0.232793
-0.293629
0.0703775
0.296215
0.0672564
-0.226875
-0.172046
0.0962891
0.226672
0.0341265
-0.176619
-0.141117
0.0458835
0.189154
0.0707521
-0.109907
-0.137275
-0.0446676
0.131949
0.126416
-0.0174055
-0.0894819
-0.125519
0.00308015
0.128207
0.0651206
0.0231976
-0.073579
-0.133488
0.0117773
0.0556021
99.544
98.8211
103.501
104.647
86.8363
49.9975
13.3928
-4.63294
-4.24916
1.12332
2.01652
-0.346383
-1.19995
0.0378006
0.824419
0.132593
-0.584766
-0.259607
0.389679
0.349159
-0.209745
-0.365473
0.00555134
0.34114
0.143752
-0.215545
-0.248679
0.0413304
0.270105
0.103186
-0.149466
-0.212716
-0.0164797
0.208625
0.130265
-0.047524
-0.179506
-0.11954
0.112559
0.146224
0.0699574
-0.0620965
-0.184717
-0.0396489
0.0796404
0.0966021
0.116205
-0.0646762
-0.143097
-0.0320676
100.452
98.8641
98.8267
103.86
104.642
86.6095
49.996
13.5601
-4.62351
-4.38161
1.09587
2.13096
-0.30267
-1.2917
-0.0288723
0.891474
0.21884
-0.620627
-0.352443
0.381127
0.439428
-0.161338
-0.429271
-0.0731858
0.357733
0.231174
-0.175655
-0.319602
-0.0281325
0.275711
0.187301
-0.0937543
-0.270988
-0.0847585
0.177276
0.19319
0.0411563
-0.199321
-0.17244
0.041581
0.138204
0.170263
-0.0224701
-0.187485
-0.0861315
-0.0213945
0.116051
0.182815
-0.0300309
-0.0819115
100.229
100.444
98.5055
98.8357
104.088
104.634
86.4446
49.9936
13.6981
-4.61244
-4.4969
1.06104
2.23659
-0.250866
-1.37362
-0.105487
0.944103
0.317742
-0.643634
-0.444347
0.345802
0.529654
-0.094091
-0.478504
-0.160364
0.339731
0.329654
-0.11947
-0.366839
-0.111524
0.240698
0.282283
-0.0277611
-0.291302
-0.157604
0.097322
0.256228
0.124883
-0.175967
-0.194165
-0.0748843
0.1167
0.242861
0.023047
-0.119811
-0.136224
-0.134715
0.118287
0.1844
0.0284905
99.7805
100.588
100.43
98.2801
98.8487
104.255
104.623
86.3106
49.9903
13.8229
-4.59983
-4.60314
1.01783
2.33842
-0.190719
-1.44717
-0.19343
0.983931
0.427615
-0.65217
-0.534258
0.28292
0.619333
-0.0141541
-0.502922
-0.259873
0.291998
0.42973
-0.0511046
-0.375539
-0.216161
0.177729
0.368921
0.0441754
-0.256562
-0.243607
-0.00931531
0.299895
0.186914
-0.0902956
-0.197396
-0.209937
0.085734
0.253518
0.0876704
0.00329
-0.187472
-0.219022
0.0839737
0.116356
99.8603
99.7963
100.813
100.409
98.1176
98.8659
104.392
104.607
86.1922
49.985
13.9433
-4.58461
-4.70516
0.965592
2.43684
-0.118941
-1.514
-0.291708
1.00832
0.546489
-0.640525
-0.624268
0.198049
0.695828
0.0818444
-0.496888
-0.371579
0.223216
0.505933
0.0418233
-0.345152
-0.334399
0.098773
0.410647
0.135925
-0.169234
-0.332376
-0.114971
0.281211
0.228791
0.0563936
-0.186393
-0.310891
0.0233954
0.178001
0.175525
0.146734
-0.200302
-0.233607
-0.0155604
100.122
99.6366
99.82
100.976
100.381
97.9882
98.8868
104.515
104.588
86.0831
49.9761
14.0638
-4.56669
-4.80412
0.904974
2.52873
-0.0322117
-1.57727
-0.391871
1.00861
0.674854
-0.609914
-0.709973
0.101354
0.739372
0.202102
-0.471401
-0.473926
0.136375
0.534873
0.16819
-0.296135
-0.428125
0.00715729
0.381486
0.252724
-0.0643905
-0.38159
-0.193094
0.173469
0.256762
0.209501
-0.154011
-0.3144
-0.0761045
0.0363155
0.24853
0.233951
-0.137112
-0.145073
100.102
100.094
99.479
99.8522
101.104
100.343
97.8784
98.9117
104.632
104.561
85.981
49.9635
14.188
-4.5494
-4.89977
0.837403
2.61466
0.0682772
-1.64156
-0.485079
0.979888
0.817809
-0.573878
-0.781259
-0.00393015
0.748277
0.347554
-0.448044
-0.540777
0.0245539
0.52739
0.3168
-0.255596
-0.463368
-0.105711
0.305232
0.382508
0.0112365
-0.360181
-0.248281
0.00972312
0.292907
0.299757
-0.102102
-0.226971
-0.201076
-0.0847294
0.287732
0.21628
-0.0216708
99.9269
100.26
100.054
99.3588
99.8942
101.214
100.294
97.781
98.9421
104.75
104.524
85.8821
49.9484
14.3206
-4.53374
-4.99652
0.76238
2.69957
0.182897
-1.7083
-0.577109
0.926666
0.978851
-0.53522
-0.835679
-0.130762
0.739827
0.508978
-0.420932
-0.574434
-0.128191
0.512062
0.466374
-0.208029
-0.446965
-0.263628
0.222094
0.501344
0.072776
-0.264085
-0.329386
-0.167843
0.332894
0.327421
0.00986387
-0.113981
-0.361474
-0.15827
0.272748
0.166105
99.9168
99.9683
100.379
100.001
99.2613
99.9462
101.315
100.232
97.6906
98.9765
104.874
104.479
85.7815
49.9287
14.4628
-4.51062
-5.10145
0.679253
2.77657
0.321835
-1.77128
-0.67881
0.85136
1.1416
-0.465743
-0.879461
-0.282824
0.709552
0.662731
-0.342952
-0.593359
-0.312418
0.472752
0.581316
-0.091876
-0.39637
-0.449083
0.121022
0.540133
0.181635
-0.0885283
-0.4218
-0.328132
0.27332
0.295701
0.222936
0.02496
-0.464031
-0.223233
0.0911719
100.039
99.8027
100.022
100.474
99.9352
99.1806
100.006
101.411
100.159
97.6074
99.0094
105.007
104.427
85.6826
49.9001
14.6075
-4.47148
-5.21417
0.597701
2.82215
0.493732
-1.82964
-0.774325
0.751289
1.27275
-0.343085
-0.922861
-0.414857
0.626776
0.779031
-0.197177
-0.608342
-0.452599
0.365904
0.623047
0.0951686
-0.334019
-0.552876
-0.00848158
0.436821
0.321345
0.0932863
-0.421629
-0.375646
0.0688629
0.185252
0.4007
0.137017
-0.345741
-0.193544
100.075
99.9806
99.718
100.086
100.549
99.8585
99.1168
100.071
101.501
100.072
97.5373
99.0401
105.144
104.363
85.5943
49.8665
14.7497
-4.42634
-5.33243
0.535295
2.83053
0.693065
-1.90538
-0.835878
0.633096
1.37315
-0.191246
-0.988019
-0.478246
0.489208
0.876333
-0.0400795
-0.64226
-0.490344
0.199006
0.636162
0.275788
-0.322361
-0.519377
-0.142753
0.287563
0.457968
0.139116
-0.336752
-0.307963
-0.154259
0.142218
0.435825
0.0896902
-0.126138
99.9845
100.156
99.91
99.6601
100.162
100.605
99.7676
99.0722
100.145
101.583
99.966
97.4812
99.0787
105.286
104.277
85.5085
49.8413
14.8998
-4.38423
-5.46989
0.487393
2.83173
0.917398
-2.00908
-0.886844
0.501935
1.48862
-0.0294331
-1.0773
-0.521127
0.317302
1.01503
0.104506
-0.688418
-0.50746
-0.0160322
0.710533
0.440692
-0.334018
-0.454224
-0.349609
0.203786
0.629698
0.129229
-0.20684
-0.333512
-0.40227
0.230932
0.455118
0.0904467
99.9364
100.056
100.209
99.8261
99.6256
100.249
100.646
99.6584
99.0427
100.234
101.666
99.835
97.4276
99.129
105.445
104.179
85.4001
49.8244
15.0618
-4.31488
-5.64169
0.425079
2.83278
1.17336
-2.08543
-0.98396
0.348202
1.60423
0.174997
-1.1189
-0.627747
0.109944
1.14467
0.290169
-0.636672
-0.591744
-0.291618
0.753358
0.603836
-0.181025
-0.388278
-0.64999
0.0683334
0.687286
0.255325
0.104864
-0.404206
-0.682779
0.128512
0.31133
99.9907
99.8897
100.137
100.238
99.7325
99.6096
100.345
100.677
99.5361
99.0216
100.326
101.758
99.6901
97.3723
99.1722
105.622
104.092
85.2715
49.8008
15.2037
-4.18252
-5.83382
0.359457
2.78212
1.44069
-2.07709
-1.11652
0.202135
1.60881
0.427637
-1.06121
-0.754194
-0.0808764
1.10075
0.502954
-0.447332
-0.659841
-0.494322
0.584445
0.653415
0.123667
-0.261844
-0.755874
-0.136343
0.414089
0.365644
0.439393
-0.265044
-0.60291
-0.136885
100.054
99.9111
99.8704
100.22
100.245
99.6388
99.6121
100.439
100.694
99.4146
99.0153
100.41
101.845
99.5444
97.3356
99.198
105.794
104.009
85.1612
49.7785
15.3005
-4.02246
-6.03034
0.35139
2.66619
1.68696
-2.04698
-1.2306
0.140081
1.48456
0.68422
-1.01938
-0.816535
-0.148441
0.899061
0.697158
-0.324268
-0.672635
-0.462536
0.306176
0.636533
0.300386
-0.253767
-0.548465
-0.219359
0.117937
0.41301
0.364022
-0.172678
-0.215232
100.025
100.066
99.834
99.8807
100.298
100.223
99.5518
99.643
100.527
100.682
99.2953
99.04
100.498
101.902
99.3863
97.3295
99.2424
105.945
103.894
85.0669
49.7906
15.4
-3.89798
-6.25428
0.385031
2.57245
1.94233
-2.08355
-1.35476
0.12558
1.38624
0.971681
-1.09139
-0.880567
-0.180287
0.748496
0.976143
-0.351867
-0.735581
-0.421505
0.0710526
0.832666
0.394404
-0.402043
-0.406657
-0.411872
0.0846763
0.711731
0.198661
-0.174663
99.9655
100.1
100.045
99.763
99.9236
100.372
100.168
99.4653
99.7077
100.624
100.635
99.1591
99.0931
100.616
101.937
99.1923
97.3213
99.3397
106.104
103.751
84.919
49.8315
15.5573
-3.77146
-6.51282
0.332938
2.54852
2.24522
-2.08574
-1.54064
-0.00968298
1.36867
1.31909
-1.08185
-0.993507
-0.412078
0.643633
1.32871
-0.237291
-0.722372
-0.655385
-0.270399
1.06164
0.617158
-0.210843
-0.350139
-0.92888
-0.108963
0.862391
0.362318
99.9607
99.9902
100.166
99.994
99.698
99.9917
100.447
100.087
99.3736
99.7887
100.738
100.576
99.002
99.1447
100.759
101.99
98.9749
97.2792
99.4463
106.301
103.644
84.701
49.8481
15.7105
-3.54767
-6.74588
0.171305
2.50228
2.50292
-1.88645
-1.7257
-0.25001
1.27303
1.55884
-0.78875
-1.03471
-0.727563
0.420297
1.39778
0.124018
-0.440346
-0.863521
-0.620109
0.806242
0.670674
0.340982
-0.0529186
-1.07476
-0.425712
0.265171
100.013
99.9011
100.039
100.22
99.9263
99.6465
100.068
100.514
99.9997
99.2951
99.8629
100.848
100.518
98.8638
99.1791
100.885
102.059
98.7819
97.2409
99.4931
106.507
103.577
84.521
49.831
15.7657
-3.26716
-6.92858
0.0797349
2.37416
2.61084
-1.5863
-1.86631
-0.323888
1.05618
1.56621
-0.421611
-1.0446
-0.739723
0.19899
1.10687
0.421712
-0.257364
-0.741929
-0.541506
0.301478
0.479281
0.517531
0.0365096
-0.552064
-0.266166
100.042
99.9646
99.8657
100.1
100.245
99.8512
99.6273
100.146
100.548
99.9042
99.261
99.9391
100.925
100.431
98.7823
99.2294
100.984
102.07
98.6238
97.266
99.5201
106.667
103.45
84.4492
49.839
15.8048
-3.08367
-7.14848
0.138235
2.26524
2.71093
-1.43524
-2.07487
-0.195436
0.886389
1.62128
-0.246062
-1.26544
-0.544133
0.10287
0.998127
0.653881
-0.534996
-0.645699
-0.332121
0.0869947
0.733419
0.385313
-0.386231
-0.271755
100.008
100.068
99.9032
99.8662
100.171
100.231
99.7637
99.6532
100.242
100.537
99.7771
99.2734
100.056
100.972
100.278
98.7253
99.3404
101.109
101.993
98.4364
97.3298
99.643
106.801
103.216
84.362
49.8913
16.0016
-2.99605
-7.44611
0.1119
2.24373
3.02054
-1.38018
-2.36289
-0.250656
0.767037
1.99269
-0.0809184
-1.53556
-0.630018
-0.191726
1.25835
1.09988
-0.692402
-0.691364
-0.74398
-0.18865
1.33287
0.62346
-0.266758
99.9697
100.069
100.057
99.8318
99.9025
100.255
100.183
99.6552
99.7112
100.366
100.506
99.6064
99.2973
100.219
101.035
100.074
98.6272
99.4914
101.295
101.916
98.1649
97.3498
99.8483
107.002
102.997
84.1137
49.9158
16.2973
-2.80209
-7.68568
-0.189058
2.19859
3.38527
-1.12211
-2.47921
-0.657863
0.522199
2.3107
0.29899
-1.3368
-0.952879
-0.785191
1.2539
1.40908
-0.14804
-0.358282
-1.34338
-0.768956
1.09721
0.722666
99.9703
99.9828
100.133
100.018
99.759
99.959
100.342
100.121
99.5409
99.7736
100.497
100.484
99.4257
99.3093
100.369
101.137
99.88
98.5042
99.5975
101.495
101.926
97.8711
97.325
99.9602
107.293
102.891
83.8196
49.867
16.4207
-2.42586
-7.77505
-0.513376
2.05676
3.42144
-0.65128
-2.35413
-0.984015
0.2648
2.06839
0.6654
-0.800697
-1.03478
-0.997926
0.730051
1.08161
0.46384
0.120627
-1.11832
-0.78489
0.13452
100.014
99.9174
100.02
100.183
99.9639
99.7083
100.022
100.405
100.054
99.4629
99.8344
100.59
100.455
99.2952
99.3368
100.46
101.219
99.723
98.4602
99.63
101.641
101.936
97.6822
97.3519
99.9195
107.56
102.779
83.7309
49.82
16.3437
-2.08904
-7.90021
-0.50973
1.94861
3.20571
-0.286973
-2.39918
-0.893425
0.283336
1.59223
0.862522
-0.742971
-0.965935
-0.522492
0.319138
0.789272
0.497055
-0.235747
-0.530683
-0.179167
100.033
99.9752
99.8916
100.072
100.195
99.8968
99.7052
100.098
100.414
99.961
99.4501
99.9268
100.63
100.357
99.2289
99.4324
100.533
101.19
99.5621
98.5325
99.6994
101.729
101.784
97.5952
97.474
99.9494
107.687
102.489
83.8001
49.8608
16.426
-1.97393
-8.26237
-0.359637
1.94434
3.30804
-0.105138
-2.85603
-0.7723
0.337962
1.6216
1.27094
-1.22573
-1.16159
-0.332167
0.17459
1.43969
0.593688
-0.96036
-0.540644
100.009
100.048
99.9196
99.9064
100.142
100.161
99.807
99.7534
100.207
100.373
99.817
99.4805
100.087
100.649
100.169
99.16
99.6113
100.672
101.064
99.327
98.6167
99.9229
101.835
101.503
97.4206
97.6094
100.241
107.761
102.106
83.6584
49.9353
16.863
-1.88704
-8.65604
-0.588229
1.84993
3.8638
0.189202
-3.16519
-1.08269
-0.139089
2.00748
1.97422
-1.21524
-1.25334
-1.12275
-0.367174
2.17163
1.12182
-0.41154
99.9788
100.063
100.026
99.8526
99.9566
100.225
100.095
99.6943
99.8278
100.345
100.323
99.6303
99.5088
100.288
100.699
99.9468
99.0291
99.8121
100.874
100.981
99.0045
98.6182
100.207
102.033
101.304
97.0494
97.6677
100.589
108.001
101.885
83.1873
49.9207
17.2599
-1.5246
-8.69871
-1.20201
1.56255
4.17097
0.674556
-2.72568
-1.53989
-0.893459
1.89493
2.19242
-0.327173
-0.692041
-1.83643
-1.06173
1.52937
1.03102
99.9701
100.001
100.117
99.979
99.7908
100.021
100.302
100.025
99.5905
99.8993
100.468
100.289
99.4577
99.5284
100.441
100.784
99.7613
98.9023
99.9348
101.052
101.006
98.7003
98.6006
100.317
102.308
101.244
96.7067
97.6619
100.646
108.421
101.831
82.8202
49.8271
17.1681
-0.978808
-8.51643
-1.5588
1.38658
3.73025
1.04406
-2.06409
-1.64475
-0.911032
1.22391
1.61102
0.392915
-0.262495
-1.37443
-0.750535
0.234481
100.005
99.9317
100.042
100.146
99.924
99.7651
100.084
100.334
99.9543
99.5486
99.968
100.525
100.237
99.3688
99.5836
100.504
100.816
99.6265
98.913
99.9699
101.14
100.983
98.563
98.6862
100.246
102.51
101.105
96.6934
97.6829
100.508
108.709
101.635
82.942
49.7988
16.8882
-0.649098
-8.71163
-1.34713
1.55674
3.19914
1.25948
-2.24668
-1.61369
-0.154891
0.818991
1.43796
0.302603
-1.06422
-0.63149
0.0466946
100.026
99.9645
99.9291
100.09
100.127
99.8654
99.8021
100.154
100.292
99.8622
99.5946
100.073
100.503
100.102
99.3696
99.7291
100.542
100.692
99.4956
99.072
100.072
101.14
100.739
98.5618
98.8898
100.316
102.492
100.732
96.8642
97.8171
100.666
108.644
101.15
83.1878
49.8906
17.1659
-0.619663
-9.40177
-1.18197
1.65003
3.519
1.74534
-3.07581
-1.89701
-0.0793158
0.817301
2.61767
0.301758
-2.04682
-0.81654
100.016
100.018
99.919
99.9744
100.143
100.052
99.7962
99.9005
100.248
100.187
99.7263
99.6967
100.251
100.439
99.8742
99.3734
99.9805
100.637
100.449
99.286
99.248
100.374
101.124
100.361
98.4293
99.1444
100.704
102.379
100.278
96.7136
98.0657
101.245
108.529
100.668
82.8489
49.9656
18.0036
-0.471882
-9.80349
-1.73296
1.11776
4.34744
2.51371
-3.06658
-2.14438
-1.41668
0.445145
3.73033
0.963784
-1.06067
99.9943
100.057
99.9698
99.8759
100.055
100.196
99.9469
99.7169
100.026
100.359
100.069
99.5568
99.8011
100.461
100.402
99.6177
99.3138
100.26
100.784
100.268
98.9618
99.3573
100.729
101.218
100.079
98.0367
99.3702
101.103
102.526
99.9545
96.1555
98.2773
101.703
108.87
100.506
82.0024
49.8968
18.4253
0.100253
-9.33157
-2.61971
0.371712
4.37423
2.80809
-1.72548
-1.81151
-2.56764
-0.231117
2.76984
1.22701
99.97
100.036
100.085
99.9055
99.8494
100.138
100.232
99.8499
99.6593
100.131
100.441
99.9832
99.4192
99.8829
100.599
100.418
99.413
99.2666
100.416
100.922
100.217
98.6696
99.4363
100.841
101.467
99.9135
97.7268
99.4581
101.156
102.976
99.7343
95.8224
98.2551
101.607
109.564
100.483
81.6208
49.7738
17.8767
0.780383
-8.74093
-2.87526
0.468346
3.33332
2.38092
-0.640005
-1.5683
-1.78132
-0.0878607
0.698054
99.9893
99.9582
100.081
100.081
99.8557
99.8646
100.191
100.216
99.786
99.6773
100.195
100.44
99.9106
99.4068
99.9587
100.611
100.39
99.3251
99.359
100.41
100.963
100.13
98.6593
99.5341
100.736
101.613
99.716
97.8988
99.4068
101.036
103.183
99.4746
96.1855
98.0824
101.381
109.83
100.142
82.1804
49.7818
17.3149
1.06191
-9.27299
-2.42898
1.35437
2.61903
2.43819
-1.2295
-2.51107
-0.178485
0.596629
100.015
99.9547
99.9848
100.103
100.028
99.8392
99.9434
100.209
100.116
99.7514
99.8
100.249
100.32
99.8013
99.5399
100.092
100.536
100.185
99.3495
99.6025
100.441
100.804
99.8717
98.8995
99.7331
100.755
101.332
99.4412
98.3161
99.5283
101.181
102.718
99.1361
96.695
98.2035
101.765
109.302
99.4536
82.6934
49.9169
18.043
1.03034
-10.6266
-2.33299
1.39882
3.27054
4.00289
-2.3512
-3.73205
-0.471457
100.018
99.98
99.9456
100.054
100.096
99.9236
99.851
100.084
100.209
99.941
99.7179
100.002
100.341
100.108
99.6342
99.7203
100.351
100.433
99.846
99.3351
99.9349
100.675
100.489
99.5117
98.9994
100.173
101.012
100.828
99.0784
98.3614
100.118
101.602
102.11
98.6878
96.4486
98.8469
102.656
108.827
98.9177
81.9171
49.9751
19.6003
1.29071
-10.8902
-3.22451
-0.323269
4.24948
5.63216
-1.75205
-2.71881
100.016
100.022
99.9176
99.9631
100.147
100.067
99.7986
99.8737
100.248
100.206
99.7533
99.6627
100.221
100.452
99.916
99.4214
99.8604
100.658
100.374
99.5501
99.1487
100.292
100.949
100.338
99.1198
98.804
100.723
101.257
100.738
98.5272
98.0188
100.793
101.936
102.278
98.0625
95.6261
99.4423
103.135
109.477
98.8313
80.3663
49.8533
19.9512
2.07545
-9.24456
-4.27898
-1.95027
3.82929
4.67802
0.447196
99.9848
100.063
100.002
99.8586
99.9979
100.219
100.03
99.7041
99.9059
100.36
100.197
99.625
99.6259
100.369
100.514
99.831
99.2433
99.9674
100.796
100.43
99.3648
98.978
100.503
101.028
100.516
98.735
98.7177
100.871
101.383
101.112
97.9548
97.9495
100.757
102.077
103.043
97.4738
95.4336
99.183
102.822
110.79
98.7992
80.0445
49.7166
18.3672
2.85273
-7.8412
-4.34748
-0.764384
2.23243
1.63675
99.9759
100.008
100.087
99.9675
99.8447
100.041
100.226
99.9819
99.6939
99.9659
100.364
100.15
99.5933
99.6979
100.383
100.473
99.7896
99.2727
100.053
100.699
100.465
99.2777
99.1453
100.424
100.96
100.594
98.6241
99.0378
100.511
101.466
101.14
97.9072
98.4283
100.113
102.189
103.076
97.3961
96.3336
98.3829
102.55
110.944
98.2784
81.6183
49.7651
17.1474
3.08016
-9.42086
-3.6982
2.40388
1.47618
99.9966
99.9709
100.04
100.058
99.9282
99.9037
100.092
100.145
99.9062
99.7925
100.072
100.267
100.001
99.6656
99.9041
100.336
100.267
99.7016
99.5606
100.164
100.53
100.187
99.3432
99.5777
100.364
100.789
100.141
98.9384
99.493
100.419
101.309
100.388
98.4094
98.9573
100.131
102.18
101.833
97.7281
97.157
98.5453
103.208
109.302
97.4047
82.7915
49.9306
19.0162
3.03077
-12.9199
-3.71673
2.41546
100.004
99.9678
100.016
100.07
99.9718
99.8901
100.027
100.156
99.9917
99.8021
99.9589
100.236
100.116
99.7567
99.7793
100.197
100.353
99.8936
99.5777
99.879
100.473
100.355
99.6574
99.4209
99.9677
100.778
100.398
99.5041
99.0972
99.8937
101.145
100.772
99.5734
98.4231
99.2253
101.43
101.923
100.677
97.4011
96.7059
100.3
104.357
108.01
96.843
80.8939
49.9629
22.7853
3.43615
-13.1014
-4.87723
100.021
99.9614
99.9511
100.095
100.086
99.8591
99.8596
100.17
100.218
99.8255
99.6952
100.116
100.425
99.9649
99.5269
99.8168
100.527
100.401
99.5735
99.387
100.061
100.941
100.173
99.3235
99.1415
100.343
101.349
100.086
99.2038
98.5074
100.441
101.905
100.539
99.382
97.2765
99.5498
102.61
101.978
101.068
95.7849
95.6574
101.784
104.764
109.649
96.815
77.1309
49.7959
23.1917
4.41431
-5.96616
100.017
100.027
99.9077
99.955
100.165
100.08
99.7758
99.8522
100.273
100.238
99.7276
99.6255
100.226
100.519
99.8968
99.3942
99.8064
100.735
100.395
99.5249
99.1311
100.217
101.105
100.206
99.2632
98.7
100.707
101.345
100.415
99.0311
97.8683
100.877
101.712
101.303
99.3692
96.2444
99.9097
102.015
102.971
102.186
94.3471
95.7601
100.54
104.22
113.1
96.7288
76.7268
49.6571
16.3253
5.25883
99.986
100.05
100.009
99.8864
99.9849
100.175
100.043
99.7679
99.8994
100.278
100.183
99.7243
99.6736
100.26
100.426
99.911
99.4078
99.9051
100.62
100.363
99.5894
99.1526
100.32
100.782
100.438
99.1902
98.8966
100.621
100.914
100.915
98.7864
98.3583
100.538
101.057
102.071
99.0167
97.0982
99.6995
100.497
103.928
101.838
95.3867
97.2379
97.4935
103.949
113.243
96.0155
83.566
49.7431
5.4516
99.9879
100.009
100.039
99.9729
99.9305
100.038
100.103
99.9662
99.8552
100.017
100.177
100.036
99.7861
99.9005
100.209
100.195
99.8453
99.6772
100.094
100.326
100.167
99.5927
99.6898
100.247
100.437
100.185
99.2976
99.7177
100.24
100.682
100.359
99.0035
99.5526
100.006
100.964
101.062
98.8562
99.0677
99.3273
100.612
102.758
99.7432
98.2656
98.2715
97.5943
104.861
106.154
94.9843
94.4088
49.9248
)
;

boundaryField
{
    left
    {
        type            fixedValue;
        value           uniform 100;
    }
    right
    {
        type            zeroGradient;
    }
    up
    {
        type            zeroGradient;
    }
    down
    {
        type            fixedValue;
        value           uniform 0;
    }
    frontAndBack
    {
        type            empty;
    }
}


// ************************************************************************* //
