/*--------------------------------*- C++ -*----------------------------------*\
  =========                 |
  \\      /  F ield         | OpenFOAM: The Open Source CFD Toolbox
   \\    /   O peration     | Website:  https://openfoam.org
    \\  /    A nd           | Version:  8
     \\/     M anipulation  |
\*---------------------------------------------------------------------------*/
FoamFile
{
    version     2.0;
    format      ascii;
    class       surfaceScalarField;
    location    "6";
    object      phi;
}
// * * * * * * * * * * * * * * * * * * * * * * * * * * * * * * * * * * * * * //

dimensions      [0 3 -1 0 0 0 0];

internalField   nonuniform List<scalar> 
7966
(
0.0135165
-0.000182872
-2.85215e-07
0.0137364
-0.000219777
-1.63895e-07
0.0141334
-0.000397807
8.91801e-07
0.01447
-0.000337762
1.1532e-06
0.0146035
-0.000133557
-1.85128e-08
0.0145791
2.49665e-05
-5.48041e-07
0.0145737
6.51509e-06
-1.05557e-06
0.0145255
4.88512e-05
-6.80372e-07
0.0144304
9.51764e-05
-1.16692e-07
0.014258
0.00017225
2.09335e-07
0.0139743
0.000283506
2.12063e-07
0.0135562
0.000418144
-6.91687e-08
0.0130762
0.00048008
-1.40198e-07
0.012632
0.000444482
-2.01667e-07
0.0122663
0.000365765
-1.14589e-07
0.0120539
0.000212496
-5.82799e-08
0.0118758
0.000178111
-2.92339e-08
0.0117489
0.000126908
-1.66497e-09
0.0115509
0.000197957
3.24943e-08
0.000164914
4.09741e-08
0.0135066
-0.000355604
-5.14613e-07
0.0137617
-0.000473033
-1.84577e-06
0.0141913
-0.000831215
3.77986e-06
0.0146224
-0.000773305
4.43292e-06
0.0148574
-0.00036944
9.02945e-07
0.0148485
3.52374e-05
-1.32841e-06
0.0149112
-5.40007e-05
-2.18512e-06
0.0148655
9.53791e-05
-8.13032e-07
0.0146937
0.000268132
-1.19263e-06
0.0145307
0.00033692
-1.71049e-06
0.014258
0.000556063
1.244e-07
0.0137599
0.000914155
2.10008e-06
0.0132847
0.000953228
2.13537e-06
0.0129112
0.000817034
9.18087e-07
0.0125453
0.000731408
2.39039e-07
0.012241
0.000516663
1.33821e-07
0.0119783
0.000440616
1.47807e-07
0.0118625
0.000242559
1.71083e-07
0.0116887
0.000371584
1.63524e-07
0.000326874
7.20723e-08
0.0136597
-0.000678626
-2.31554e-06
0.0139988
-0.000800247
-1.19114e-05
0.0146735
-0.00153008
2.41875e-05
0.015169
-0.00130042
3.15457e-05
0.0151967
-0.000400759
3.64463e-06
0.0149629
0.000288566
-1.95283e-05
0.0149439
-7.39978e-06
-2.75927e-05
0.0149483
0.000112317
-2.1281e-05
0.0149322
0.000286712
-2.50452e-06
0.0146584
0.000601299
9.36924e-06
0.0142013
0.00100748
5.69069e-06
0.0137776
0.00134259
-4.70889e-06
0.0132147
0.00152251
-6.39774e-06
0.0125834
0.00145189
-3.50182e-06
0.0120901
0.0012257
-9.92268e-07
0.0119577
0.000649541
-5.09765e-07
0.0119482
0.000451145
-1.00236e-06
0.0118883
0.000303238
-8.4205e-07
0.0117473
0.000513131
-5.16982e-07
0.000473247
-9.3939e-08
0.0136599
-0.0010027
-5.1096e-07
0.0141245
-0.00124093
-2.38959e-05
0.0148863
-0.0023302
3.83576e-05
0.0157325
-0.00222851
8.18556e-05
0.0162436
-0.000961363
4.95292e-05
0.0161005
0.000470408
-3.87592e-05
0.0163268
-0.000140175
-9.35528e-05
0.0162712
0.000216299
-4.83417e-05
0.0158518
0.000746443
-4.03116e-05
0.0155627
0.000929546
-3.92197e-05
0.0152899
0.00127736
3.01259e-06
0.0146178
0.00197894
3.57296e-05
0.0139527
0.00216765
1.99423e-05
0.0136424
0.00176633
-4.1759e-06
0.0133416
0.00153447
-7.946e-06
0.012912
0.00108097
-1.79764e-06
0.0125102
0.000851271
1.66861e-06
0.012395
0.00041572
2.67166e-06
0.0122823
0.000623952
1.91637e-06
0.000640175
6.39362e-07
0.0139789
-0.00160931
-3.37536e-05
0.01456
-0.00184072
1.86916e-05
0.0160946
-0.00405276
0.000187907
0.0171428
-0.00328679
1.00909e-05
0.0169463
-0.000858413
9.35182e-05
0.0164853
0.000793087
0.000138401
0.0169451
-0.000434594
-0.000165464
0.0166559
0.000841643
-0.000336083
0.0162342
0.00126299
-9.48713e-05
0.0158642
0.00121067
8.88897e-05
0.0151285
0.00199538
1.76118e-05
0.0143318
0.00284253
-6.68906e-05
0.013583
0.00293994
-2.34862e-05
0.0130058
0.00230554
3.80906e-05
0.0123092
0.00218034
5.06797e-05
0.0120512
0.00131475
2.42421e-05
0.0122175
0.000690149
-5.17928e-06
0.0123356
0.000309619
-1.19983e-05
0.0125723
0.000392299
-5.07096e-06
0.000606162
-4.63403e-08
0.0139176
-0.00191957
-0.000262751
0.0147296
-0.00279963
0.000146849
0.0168717
-0.00702288
0.000828051
0.0192152
-0.0018886
0.000383937
-0.00115807
-0.00178189
-0.00118566
0.0202895
-0.000494472
-0.000388738
-6.18861e-05
-0.000561199
-0.000426431
0.0205196
0.00057143
-8.43312e-06
0.020177
-0.000512839
0.000420883
0.0187284
0.00253061
-0.000240444
0.0187273
0.00185847
-0.000594297
0.0181541
0.00200307
-0.000219273
0.0165885
0.00332251
0.000238557
0.015422
0.00374578
0.000263188
0.0146625
0.00371126
-1.18444e-05
0.0138964
0.00325765
-0.000185975
0.013
0.00321312
-0.000136343
0.0125093
0.00185051
-4.50763e-05
0.0124723
0.000748844
-2.16852e-05
0.0124864
0.000321136
-2.56196e-05
0.01273
0.000184855
-3.61276e-05
0.000466111
-2.23935e-05
0.0141941
-0.00180219
-0.000958667
0.0170786
-0.00515677
-0.00052744
0.00521427
-0.00397088
0.00159305
-0.00254829
-0.00385404
-0.00279664
0.00558217
0.00517935
0.00565675
0.00539959
-0.00224926
0.000175336
-0.00547101
0.00540094
-0.00035111
-7.32856e-05
0.0223161
0.000447138
-0.00163347
0.000775804
6.42212e-05
0.000542143
-0.00535782
-0.00542237
-0.00549365
-0.00566663
0.0220461
-0.00155462
0.00131175
0.0207776
0.00254803
0.00125111
0.0209727
0.00114976
0.000513578
0.0208539
0.00214999
-2.80948e-05
0.0199173
0.00424783
1.12652e-05
0.0192462
0.00419395
0.00022293
0.017981
0.00466318
0.000313271
0.0171045
0.00397718
0.000156982
0.0167483
0.00372794
-0.000158695
0.0162193
0.00281676
-0.00043727
0.0154067
0.00199737
-0.000435866
0.0147282
0.00122587
-0.000226295
0.0134762
0.00145999
-2.31284e-05
0.00146009
3.26231e-05
0.014308
-0.00292281
0.000169092
0.00560209
-0.00284991
0.000505204
0.00342512
0.00518705
0.00302496
-0.00147366
-0.00295455
-0.00131511
0.00483302
-0.00403757
0.000835763
-0.00130471
0.000738116
0.00154915
-0.000906052
-7.64993e-05
-0.0016418
3.2129e-05
0.00162762
-1.01159e-05
-7.83053e-06
-0.00148455
0.00549466
0.000394403
-0.00128455
-0.0014941
-0.00127475
-2.55078e-05
8.0057e-05
8.43343e-05
-4.28537e-05
0.0140125
-0.00107137
-0.000498145
-0.00516532
-0.000861514
-0.00498428
-0.000793497
-0.000559261
-0.00107794
-0.000555801
0.0139521
0.00324264
-0.000634242
0.0162578
-0.000331026
-0.000824832
0.0178708
0.00092348
-0.000386482
0.0191047
0.00330719
-0.000293264
0.0203038
0.00326436
-0.000269525
0.0206643
0.00438782
-8.51936e-05
0.0206791
0.00387083
9.15394e-05
0.0204862
0.00375476
0.000166149
0.0209586
0.00223485
0.000109504
0.0204431
0.00246865
4.42435e-05
0.0194939
0.00213558
3.94216e-05
0.0188199
0.00206079
7.32385e-05
0.00176206
5.4805e-05
0.00465977
-0.00286579
-0.00114101
0.00252754
0.00389914
0.00331628
0.00503298
-0.000841091
-0.00238203
0.00136191
-0.00134187
0.00125635
-0.00153012
0.000253734
-0.00011489
0.000248309
-0.000983497
4.55638e-05
-7.7131e-05
-0.000117358
-7.23667e-05
0.00330563
0.00111026
-0.00127907
-0.000263352
0.000361141
-0.000328299
0.000336327
0.00220361
0.00110461
-0.000333605
0.0056254
-0.0025155
1.71812e-05
0.00784386
0.00141566
-0.00032693
0.00960637
0.00166199
-0.000160139
0.0114757
0.00249909
1.93637e-05
0.0130651
0.00210339
0.000178051
0.0142556
0.00226545
0.000298803
0.0149928
0.00123711
0.000260579
0.0155087
0.00179727
0.000155513
0.015988
0.00158852
6.77127e-05
0.0168663
0.0011706
1.19429e-05
0.000932068
-9.26728e-06
0.00329249
0.00106412
0.00319914
-0.00160742
0.00257861
0.00189328
0.000689093
-0.00134608
-0.000284462
0.000957132
0.00122893
0.00123429
0.000813582
0.000588291
-0.000243951
-0.00034434
0.000257295
0.00033259
-0.000333197
-0.00026057
3.88201e-06
-0.00246411
-0.000105025
1.81118e-05
0.00322381
-0.00138921
0.00321338
-0.0013867
-0.00142599
-5.94996e-05
0.000125983
-0.00383156
-5.65305e-05
-5.3394e-05
-0.00233341
-3.36666e-05
-4.88201e-05
-0.000694066
-2.56659e-05
4.83119e-05
0.00172704
-1.68035e-05
9.47918e-05
0.00370426
-9.21512e-06
0.000135382
0.00586118
-5.47504e-06
0.000114013
0.00704846
-3.8919e-06
5.37194e-05
0.00885366
-2.20663e-06
-5.72895e-06
0.0104717
-1.00647e-06
-2.85458e-05
0.0116876
-1.21076e-07
-4.51736e-05
6.56805e-07
-3.21401e-05
-0.000707224
0.00545582
0.00225342
0.0033213
-0.000131266
0.00415807
-7.06188e-05
0.000497384
0.00126192
-0.000416192
-0.000805817
-0.000623043
-0.000550854
-1.94543e-05
0.00037889
-0.000356198
-3.23731e-06
-0.00236654
-0.00131426
0.000123717
-0.00142982
0.00315823
-0.00142905
0.0031527
-0.00137786
-0.00140695
0.00035877
-0.00378354
0.00234794
1.21601e-06
-0.00229025
-0.00152392
-3.04618e-06
-0.000669501
-0.00173615
8.97368e-05
0.00173605
-0.00254611
0.000123762
0.0037052
-0.0021308
0.000152432
0.00585844
-0.00227797
0.000119265
0.00704549
-0.00124412
5.31698e-05
0.00885149
-0.00180072
-7.48435e-06
0.010469
-0.00158814
-3.04057e-05
0.0116851
-0.00116954
-4.66645e-05
-0.000930605
-3.2804e-05
-0.000137377
0.00626239
0.0051837
0.00268334
0.0016424
0.0031401
-0.000948859
0.000377817
0.00135961
-0.000925944
-0.000564403
-0.000200665
0.000978506
-0.000213438
-0.000263739
4.39878e-05
-0.00068083
0.0010479
7.09657e-05
1.12783e-05
-0.000268665
9.90416e-06
-7.79531e-06
4.38964e-05
-6.90463e-06
0.00453503
-0.00499177
-0.000351196
0.000313109
-0.000546223
0.00028166
-0.000554861
0.00310628
-0.00095097
0.000972771
0.00603267
-0.00149258
0.000914129
0.00814534
-0.0035899
-4.66933e-05
0.00981148
-0.00343081
2.85209e-05
0.0115841
-0.00448745
0.000168763
0.0131083
-0.00393461
0.000279615
0.0142601
-0.00378885
0.000359041
0.0149816
-0.00224992
0.00028427
0.0154945
-0.00247271
0.000159109
0.0159766
-0.00213497
6.47261e-05
0.0168581
-0.00205946
8.4227e-06
-0.00176096
-1.10589e-05
0.0139226
0.00502871
0.000667527
0.00358597
0.00506693
-0.00218821
-0.00257968
-0.000525122
-0.00334012
-0.00204435
0.00594188
0.00349488
0.0065104
-0.000580036
0.00132239
0.000206808
-0.000653145
-0.000565905
-0.000659572
0.00119549
0.00105115
0.00107817
0.00119063
0.000280842
-0.000209981
-7.08612e-05
0.0179087
-0.000273973
0.000641826
-0.000854885
-0.000340819
-0.000860212
-0.000325055
-0.00259079
-0.00543669
-0.00230524
-0.00556291
0.0168729
-0.00422071
0.000264769
0.0179609
-0.00222409
0.000185138
0.0187717
-0.00264062
0.000337222
0.0196472
-0.00447396
8.56064e-06
0.0206765
-0.00432994
-0.000130106
0.020909
-0.00473115
1.11712e-05
0.0208226
-0.00401976
0.000171493
0.020553
-0.00375738
0.000238181
0.0209774
-0.00283632
0.000161996
0.02044
-0.00200776
7.24687e-05
0.0194854
-0.00123121
5.08228e-05
0.018814
-0.0014636
7.55212e-05
-0.00146138
5.45263e-05
0.0144393
0.0026135
0.0013287
0.0172061
0.00325312
-0.000953029
0.00568171
0.0041488
-0.00113576
-0.00134806
-0.00179941
-0.00228612
-0.00119964
0.00483323
0.00547642
0.00483496
-0.000899968
0.00634159
0.00228901
0.000293072
-0.000872007
-0.00075441
-0.000715576
-0.00045649
-0.00684189
0.00627185
0.0018599
-8.94152e-06
-0.000343068
-0.000292261
-0.000189104
0.0214533
-0.000261702
0.000471063
-0.000567121
0.000215352
-0.000132993
0.000364417
-0.00551615
-0.0054623
-0.00530215
-0.00526171
0.0214474
0.000189812
-0.00045787
0.0203874
-0.0026389
-0.000521856
0.0208096
-0.00188783
-0.000758423
0.0206857
-0.00202666
-0.00049002
0.0196402
-0.00334656
-8.19385e-05
0.0189303
-0.00376831
0.000148248
0.0177323
-0.00371797
0.000184835
0.0169644
-0.00326519
1.33062e-05
0.0166876
-0.00322558
-0.000254943
0.0161995
-0.00186778
-0.00048044
0.0154018
-0.000763989
-0.000446125
0.0147275
-0.000333041
-0.000223828
0.0134764
-0.000193802
-1.87284e-05
-0.00047006
3.47455e-05
0.0140288
0.00160448
0.000324764
0.0150627
0.00213487
8.44112e-05
0.0168467
0.00346484
-0.00110003
0.0196562
0.00360667
-0.000440024
-0.00173304
-0.00188636
-0.00135491
-0.00100193
0.0207889
0.00105549
0.000263143
-0.00129032
-0.00073741
-0.000397031
-2.65426e-05
0.020858
-0.000875624
0.00054485
0.0205314
0.000317832
0.000198582
0.0190999
-0.000823969
-0.000383421
0.0189554
-0.00125029
-0.000493081
0.0182538
-0.00124154
-8.35099e-05
0.0166586
-0.0020412
0.000289846
0.015498
-0.00288418
0.000276521
0.0147296
-0.00296955
1.99074e-05
0.0139393
-0.00232419
-0.000150708
0.0130206
-0.00218982
-0.000117003
0.0125184
-0.00132296
-4.25818e-05
0.0124784
-0.000698631
-2.54174e-05
0.0124917
-0.000317155
-2.91711e-05
0.0127346
-0.000398433
-3.82352e-05
-0.000608661
-2.31445e-05
0.0139085
0.000894438
0.000140098
0.0145031
0.00149639
4.37877e-05
0.0159959
0.00237623
-0.00040412
0.017274
0.00245218
-0.00012362
0.0171076
0.0010544
0.000167434
0.0166347
-0.000488505
8.57793e-05
0.0170865
0.000106629
-0.000240559
0.0167752
-0.000266136
-0.000246514
0.0163165
-0.000821141
2.95427e-05
0.0159106
-0.0010136
0.000177968
0.0151486
-0.00135328
7.40352e-05
0.0143356
-0.00203522
-3.59698e-05
0.0135832
-0.00220665
-1.04602e-05
0.0130084
-0.00179225
4.28704e-05
0.0123153
-0.00155094
5.41627e-05
0.0120579
-0.00109252
2.70322e-05
0.0122229
-0.000859874
-3.81315e-06
0.0123396
-0.000422407
-1.14782e-05
0.0125754
-0.000629393
-4.82495e-06
-0.000642763
4.91452e-08
0.0136128
0.000606223
1.07145e-05
0.0142022
0.00090538
1.65899e-06
0.0150125
0.00160429
-3.83757e-05
0.0159931
0.00144634
2.52512e-05
0.0165422
0.000483635
2.1677e-05
0.0163631
-0.000272242
-3.71556e-05
0.0165381
-1.38057e-05
-5.45859e-05
0.0164336
-0.000149264
-1.23456e-05
0.0159645
-0.000332886
-1.91795e-05
0.0156347
-0.000652138
-3.1711e-05
0.015335
-0.00105408
5.54946e-07
0.0146481
-0.00137824
2.99547e-05
0.0139737
-0.00154753
1.52735e-05
0.0136581
-0.00146979
-6.91191e-06
0.0133549
-0.00123829
-9.3882e-06
0.0129236
-0.00065881
-2.41181e-06
0.0125201
-0.00045785
1.40081e-06
0.0124035
-0.000308276
2.54482e-06
0.0122891
-0.000516891
1.85187e-06
-0.000474891
6.17464e-07
0.0136283
0.000313329
-1.0502e-06
0.0139876
0.000549636
-3.57759e-06
0.0146825
0.000899089
1.03304e-05
0.0152474
0.000865151
1.62751e-05
0.0153056
0.000428768
-3.35894e-06
0.0150756
-2.30191e-05
-1.91613e-05
0.0150451
3.60986e-05
-1.9492e-05
0.0150337
-0.00012796
-9.84086e-06
0.0150031
-0.00030826
5.96195e-06
0.0147128
-0.000376022
1.41827e-05
0.0142398
-0.000589211
8.15321e-06
0.0138048
-0.000940285
-3.02486e-06
0.0132353
-0.000972677
-5.33626e-06
0.0125991
-0.000830606
-2.96644e-06
0.0121024
-0.000740875
-7.07159e-07
0.0119675
-0.000523542
-3.60668e-07
0.0119564
-0.000445773
-9.43371e-07
0.0118953
-0.000246361
-8.27802e-07
0.0117533
-0.00037442
-5.14807e-07
-0.000328141
-9.38098e-08
0.0134798
0.000167433
-5.39415e-07
0.0137855
0.000244272
-3.59502e-07
0.0142568
0.000425926
1.82258e-06
0.0147429
0.000377183
1.92595e-06
0.0150108
0.000160586
2.72694e-07
0.0150041
-1.56952e-05
-6.10715e-07
0.0150517
-1.08934e-05
-5.81786e-07
0.0149834
-6.01573e-05
4.09457e-07
0.0147864
-0.000110713
-5.35675e-07
0.0146009
-0.000188875
-1.60181e-06
0.0143104
-0.000298615
-7.48188e-08
0.0137985
-0.000430221
1.82633e-06
0.0133131
-0.000489172
1.89758e-06
0.0129329
-0.000451166
7.74465e-07
0.0125624
-0.000370596
1.71628e-07
0.0122547
-0.000215985
1.0867e-07
0.0119894
-0.000180562
1.39163e-07
0.0118715
-0.000128666
1.67644e-07
0.0116962
-0.000199278
1.63363e-07
-0.00016552
7.23379e-08
0.013501
-2.57723e-07
0.0137452
1.47053e-07
0.0141706
4.54415e-07
0.0145472
5.6901e-07
0.0147081
-2.25775e-07
0.0146928
-4.3559e-07
0.0146825
-5.9042e-07
0.0146225
-2.13177e-07
0.0145116
2.06803e-07
0.0143224
3.73423e-07
0.0140235
2.80475e-07
0.0135933
-3.2585e-08
0.0131042
-1.24151e-07
0.0126533
-1.95578e-07
0.0122828
-1.10802e-07
0.0120669
-5.6083e-08
0.0118863
-2.83627e-08
0.0117577
-1.42956e-09
0.0115584
3.28611e-08
4.12431e-08
0.0135161
-0.000183318
2.54753e-07
0.013737
-0.000220963
-1.1113e-07
0.0141328
-0.000394476
-4.34184e-07
0.0144693
-0.000334678
-6.21267e-07
0.0146031
-0.000134018
2.05225e-07
0.0145796
2.24678e-05
4.35366e-07
0.0145743
3.66313e-06
6.08665e-07
0.014526
4.74439e-05
1.88018e-07
0.0144309
9.52319e-05
-2.34605e-07
0.0142584
0.000173091
-3.86492e-07
0.0139747
0.000284205
-2.89687e-07
0.0135566
0.000418004
1.93877e-08
0.0130766
0.000479692
1.13543e-07
0.012632
0.000444187
1.89987e-07
0.0122662
0.000365653
1.07812e-07
0.0120536
0.000212463
5.44886e-08
0.0118755
0.00017807
2.79805e-08
0.0117486
0.000126898
1.31221e-09
0.0115507
0.000197956
-3.28713e-08
0.000164915
-4.11978e-08
0.0135064
-0.000357346
4.55764e-07
0.0137623
-0.000479269
5.26284e-07
0.0141894
-0.000815778
-1.99773e-06
0.0146207
-0.000759442
-2.07622e-06
0.0148575
-0.000369293
-6.85989e-07
0.0148498
2.83327e-05
5.26463e-07
0.014912
-6.12795e-05
5.39776e-07
0.0148657
9.34405e-05
-4.33595e-07
0.0146941
0.000265175
4.49203e-07
0.0145315
0.000332397
1.52865e-06
0.0142586
0.000557102
1.06691e-07
0.01376
0.000920461
-1.71867e-06
0.0132845
0.000959132
-1.78067e-06
0.0129109
0.000819391
-7.06471e-07
0.012545
0.000731992
-1.50384e-07
0.0122407
0.000516955
-1.05068e-07
0.011978
0.000441036
-1.40505e-07
0.0118622
0.000243079
-1.70378e-07
0.0116885
0.000371966
-1.64594e-07
0.000327016
-7.27236e-08
0.0136648
-0.000691723
1.22217e-06
0.0140018
-0.000832938
4.7432e-06
0.0146593
-0.00143611
-1.29221e-05
0.0151593
-0.00120936
-1.85805e-05
0.0152066
-0.000416602
3.63161e-06
0.0149807
0.00021509
1.96313e-05
0.0149536
-8.11105e-05
1.93809e-05
0.0149483
6.87782e-05
8.6352e-06
0.0149267
0.00029093
-6.60594e-06
0.0146537
0.000629161
-1.43868e-05
0.0142013
0.00102357
-8.44303e-06
0.0137811
0.00133342
2.52208e-06
0.0132185
0.00151052
4.89362e-06
0.0125856
0.00144609
2.71865e-06
0.012091
0.00122491
6.14623e-07
0.0119578
0.000649336
3.48306e-07
0.0119479
0.000448941
9.53006e-07
0.0118881
0.00030125
8.367e-07
0.0117471
0.000511938
5.19304e-07
0.000472852
9.51493e-08
0.0136815
-0.00102789
-1.04745e-05
0.014129
-0.00130932
4.93839e-06
0.0148158
-0.00209906
1.45158e-05
0.0156714
-0.00194581
-3.73286e-05
0.0162811
-0.000943103
-3.36106e-05
0.016184
0.000239738
3.36667e-05
0.016378
-0.000424494
5.58217e-05
0.0162809
0.000103675
1.3878e-05
0.0158527
0.000659744
1.90204e-05
0.015556
0.000855276
3.14373e-05
0.0152812
0.00130082
5.48141e-07
0.0146169
0.00206188
-2.83913e-05
0.0139566
0.00220487
-1.41923e-05
0.0136474
0.00174397
7.20933e-06
0.0133469
0.00150817
9.24078e-06
0.0129169
0.0010753
2.27344e-06
0.012514
0.000854956
-1.48294e-06
0.0123978
0.000422761
-2.59751e-06
0.0122839
0.000629659
-1.88707e-06
0.00064237
-6.30852e-07
0.0139815
-0.00161576
-8.89483e-05
0.0146187
-0.00188112
-4.67188e-05
0.0160247
-0.003578
0.000260895
0.0169555
-0.00291301
4.64385e-05
0.0170624
-0.000827238
-0.000129269
0.0169935
0.000486676
-3.96414e-05
0.0173561
-0.00123007
0.000277575
0.0166599
0.000217715
0.000246101
0.0160973
0.00116458
-3.71161e-05
0.0158373
0.00139689
-0.000192728
0.0151247
0.00212078
-8.97757e-05
0.0142344
0.00285744
2.78341e-05
0.0134547
0.00295327
7.83228e-06
0.012908
0.00237141
-4.26796e-05
0.0122463
0.0022733
-5.27146e-05
0.0120122
0.00135938
-2.57449e-05
0.0121884
0.000669066
4.49177e-06
0.0123116
0.000275857
1.17713e-05
0.012556
0.000375205
4.9306e-06
0.00060215
-2.9738e-08
0.0136921
-0.00216399
-6.21902e-05
0.0148537
-0.00266703
-0.000228811
0.0172389
-0.00594811
0.000812959
0.0192479
-0.00167554
0.00071684
-0.000995149
-0.00171241
-0.000871764
0.0200474
-0.000454201
-0.000186999
-0.000640954
-0.000381157
-0.00035223
0.0206816
0.000229821
-0.000385788
0.020996
-0.00115432
3.07235e-05
0.0193391
0.0010776
0.000556609
0.0183881
0.000882734
0.00063852
0.0173216
0.00205567
0.000188536
0.0162048
0.00371487
-0.000238761
0.0156953
0.00389594
-0.000265827
0.0150521
0.00361048
-2.5829e-05
0.0140704
0.00302507
0.000142058
0.013102
0.00299516
0.000110196
0.0126855
0.00169232
3.84268e-05
0.0126818
0.000627777
2.32729e-05
0.0126694
0.000234457
2.82658e-05
0.0128438
0.000126592
3.7999e-05
0.00043832
2.31458e-05
0.0135478
-0.00347245
0.00015501
0.0169795
-0.00603164
-0.000594534
0.00548631
-0.00354379
0.000711386
-0.00219023
-0.00345796
-0.00197139
0.00590776
0.00562525
0.00605709
-0.000275451
0.00562179
-0.00183531
0.000299736
0.00024853
-0.00546178
0.00552801
-0.000180351
-0.000588616
0.0218081
-0.000104046
-0.00145629
0.000221439
-0.000142708
0.000370171
-0.00550828
-0.00566368
-0.00535298
-0.00557535
0.0221784
-0.000636855
0.000423927
0.021554
0.00238732
0.000565806
0.0217109
0.000401778
0.000837644
0.0211611
0.00200039
0.00057701
0.0201093
0.00462605
0.000151874
0.0198923
0.00444079
-0.000104907
0.0194925
0.00449184
-0.000168325
0.019401
0.00328986
-1.62619e-05
0.0190863
0.00290587
0.000245298
0.0176857
0.00218216
0.000473399
0.015794
0.00164114
0.000442486
0.0145099
0.00107068
0.000221609
0.013181
0.00141554
1.68772e-05
0.00145881
-3.56929e-05
0.013555
-0.00475625
0.00125491
0.00488325
-0.00345911
0.000710539
0.00285544
0.00528141
0.00312491
-0.00154899
-0.00323698
-0.000581909
-0.00181719
0.00456567
-0.00329468
0.00188566
0.000221573
-0.00135893
0.000570262
0.00155295
-0.000771749
-0.000214103
5.81907e-05
-0.00164205
-5.02836e-05
0.00167393
-9.61124e-06
-3.01755e-05
-0.000582065
-0.00150868
0.00496986
0.000775451
-0.00115837
-0.00151579
-0.00115653
3.42631e-05
2.02577e-05
-5.45561e-06
2.30178e-05
0.016237
-0.00096314
-0.00101305
-0.00483381
-0.00139811
-0.00519731
-0.0021724
-0.000410037
-0.000962016
-0.000422153
0.0150396
0.00362474
-0.000674277
0.0156935
-0.00069211
-0.000384833
0.016813
0.000973971
-0.000479563
0.0178605
0.00337391
-8.86163e-05
0.0187695
0.00316229
0.000100004
0.019159
0.00403077
-1.35791e-05
0.0194982
0.00320821
-0.00016605
0.0197759
0.00302855
-0.000234265
0.0205293
0.00169802
-0.000159742
0.0200706
0.00221502
-7.09581e-05
0.01914
0.00209069
-4.99971e-05
0.0185476
0.00215665
-7.54622e-05
0.00185385
-5.47838e-05
0.00364426
-0.00634395
0.00407073
0.000778673
0.00400775
0.00126388
0.00285856
0.00244725
-0.00109938
-0.00402128
-0.000557604
0.00131706
-0.00103977
0.00116705
-0.0013597
0.000472973
-2.66839e-05
-0.000102065
0.000443443
-0.000997461
-6.04564e-05
-6.31744e-05
-8.97679e-05
-6.69746e-05
0.00114436
0.000888995
0.000250398
-0.000368419
0.000408165
-0.000381509
0.000403673
0.000544169
0.000645764
-0.00107128
0.0050552
-0.00251659
-0.00100329
0.00670014
0.00139812
3.92251e-06
0.00821597
0.0015348
-4.84749e-05
0.0102007
0.00224046
-0.000175063
0.0120781
0.00178795
-0.000279031
0.0137362
0.00202481
-0.000355639
0.0148355
0.00114017
-0.000280798
0.01553
0.00183246
-0.000156425
0.0160765
0.00167506
-6.31827e-05
0.0169623
0.00129038
-7.62052e-06
0.00101071
1.13498e-05
0.00328328
-0.00267312
-0.00340768
0.00556661
0.00315856
0.00421326
0.00290728
0.000425069
-0.00233815
-0.000469858
0.000736766
0.000717931
0.000914442
0.000389798
-0.000579608
0.000529728
-0.000903923
0.000953803
-1.9299e-05
0.000256898
0.000321643
-0.000317602
-0.000254943
1.33037e-05
-0.00265733
-4.49351e-05
-0.000155699
0.00324135
-0.0013561
0.00323615
-0.00135632
-0.00148644
-2.05193e-05
-0.000378621
-0.00401579
-2.82719e-05
-1.23731e-05
-0.00263124
-3.15307e-05
-3.71579e-06
-0.00093674
-1.89229e-05
-9.24666e-05
0.0015345
-1.27038e-05
-0.000123292
0.00361597
-7.69677e-06
-0.000150445
0.00587715
-5.46776e-06
-0.00011688
0.00712689
-4.35504e-06
-5.15023e-05
0.00894801
-2.94715e-06
8.56334e-06
0.0105649
-1.49287e-06
3.11472e-05
0.0117633
-3.67843e-07
4.7184e-05
5.85018e-07
3.30745e-05
-0.00248722
0.00258761
0.00657185
0.00348232
-0.00088519
0.00359666
-0.00179572
-0.000294317
0.000996935
-0.00100965
2.34293e-06
-0.000195495
-1.59182e-05
-0.000175392
1.69256e-05
-1.43297e-05
0.000359987
-0.000350401
-1.21817e-05
-0.00264031
-0.000865359
-5.33518e-05
-0.00139277
0.00321026
-0.00139294
0.00321325
-0.00147325
-0.000669266
-0.000159536
-0.00399857
0.00245636
4.19002e-05
-0.00261993
-0.00145749
4.42729e-05
-0.000928611
-0.00156979
-5.07197e-05
0.00153718
-0.00226027
-9.44666e-05
0.0036173
-0.00180198
-0.000133404
0.00587714
-0.00203481
-0.00011123
0.00712666
-0.00114916
-5.15384e-05
0.00894777
-0.00183875
7.19632e-06
0.0105633
-0.00167701
2.95989e-05
0.0117613
-0.00129107
4.5993e-05
-0.00100994
3.25427e-05
0.00243285
0.00150996
0.00537608
0.00356784
0.0043379
0.0038653
0.00202554
-0.00075871
0.00241864
0.00217299
-0.00342561
9.3721e-05
-0.000593331
-0.000684605
0.00118523
-1.01968e-06
-9.65117e-05
-0.0002661
5.05482e-05
-0.000546404
0.00104296
1.72078e-05
1.05813e-05
-0.00026482
1.01641e-05
-6.85319e-06
5.49871e-05
-5.76065e-06
0.00100295
-0.00349056
0.000991718
0.000453861
-0.000322876
0.000456162
-0.000307815
0.000518655
0.000706665
8.11351e-05
0.00509082
-0.00104119
-0.000160491
0.00673556
-0.00343326
0.000284347
0.00823589
-0.00318446
0.000142854
0.0102083
-0.00403717
-2.67125e-05
0.0120781
-0.0032112
-0.00018104
0.0137333
-0.0030325
-0.000298428
0.0148307
-0.00170383
-0.000258462
0.015524
-0.00222
-0.000152924
0.016071
-0.00209363
-6.57106e-05
0.0169574
-0.00215839
-1.06385e-05
-0.00185414
9.86527e-06
0.0141856
0.000997118
0.000351802
0.00308702
0.00822606
-0.00293186
-0.00331909
-0.00216578
-0.00395916
-0.00201413
0.00611738
0.00302529
0.00593163
-0.000760814
-0.000895866
0.00275516
0.000466835
-0.000773281
-0.00085821
-0.000776771
0.000964256
0.00098712
0.000992097
0.000986495
0.000233572
0.000188903
-0.000176373
-0.000246102
0.0153421
0.000388286
0.000886974
-0.00103009
-0.00043042
-0.00102992
-0.000419926
-0.00174173
-0.00536995
-0.0010045
-0.00494901
0.0142519
-0.0025279
0.000392316
0.0153267
-0.000664112
0.000481092
0.016692
-0.00229117
0.000221897
0.0178188
-0.00480267
0.000251172
0.01875
-0.00450707
0.000261344
0.0191429
-0.00450143
8.25313e-05
0.0194838
-0.00328436
-9.62314e-05
0.0197651
-0.00290344
-0.000172251
0.0205218
-0.00218377
-0.000114681
0.0200653
-0.00164384
-4.72656e-05
0.0191369
-0.00107365
-4.07169e-05
0.0185466
-0.00141878
-7.37656e-05
-0.00146025
-5.50558e-05
0.0135898
0.00138808
0.000700901
0.0175715
0.0033331
-4.17596e-05
0.00598439
0.00763494
-0.00209466
-0.00396372
-0.0021882
-0.00375026
-0.00202409
0.00552819
0.00589774
0.00541143
-0.000490079
0.000190166
0.00617113
0.00213651
-0.00064115
-0.000409792
-0.000521819
-0.000450576
0.000139036
0.000266953
-0.00612797
0.00561316
-6.5081e-05
-0.000470458
0.000257184
0.000137533
0.000249638
0.0217926
-0.00148904
-8.58041e-05
0.00022252
0.000719359
0.000227872
0.000546623
-0.00525891
-0.00533133
-0.00541298
-0.00545988
0.0221021
0.000463956
-0.000843029
0.0212892
-0.00147788
-0.000758959
0.0213879
-0.00127324
-0.000247975
0.0208925
-0.00237295
8.71892e-05
0.019928
-0.00389784
-2.23075e-05
0.019785
-0.00397782
-0.000238029
0.0194296
-0.00363985
-0.000321294
0.0193598
-0.0030393
-0.000161997
0.0190546
-0.00300817
0.000155051
0.0176623
-0.00170593
0.000434031
0.0157786
-0.00063815
0.000431849
0.0145016
-0.000243006
0.00022253
0.0131775
-0.000133833
2.03936e-05
-0.000441752
-3.38219e-05
0.0136448
0.00126935
0.000143121
0.0151489
0.0020799
-0.000166493
0.0175877
0.00433224
-0.000236088
0.0199224
0.00348795
-2.46865e-06
-0.00200419
-0.0011479
-0.0019626
-0.00114554
0.0206649
0.000606702
-0.000188782
-0.000297334
-3.31721e-05
-0.000375541
-0.000191248
0.0210567
-0.000803342
-0.000532599
0.02121
0.000984226
-0.000475013
0.0194885
-0.000408791
0.000269023
0.018477
-0.00131674
0.000561929
0.0173641
-0.00150546
0.000161851
0.0162281
-0.00219308
-0.000278952
0.0157201
-0.00291098
-0.000282245
0.0150853
-0.00298922
4.03473e-06
0.0141047
-0.00239397
0.00018458
0.0131275
-0.00228683
0.000138828
0.0127014
-0.00137078
4.84177e-05
0.0126926
-0.000678873
2.40595e-05
0.0126772
-0.000283796
2.70676e-05
0.0128495
-0.000381489
3.70461e-05
-0.000604705
2.27721e-05
0.0138797
0.000894224
-2.60578e-05
0.0145091
0.00151161
-1.72837e-05
0.0159823
0.00234023
0.000114694
0.0171369
0.00226143
-5.17108e-05
0.0172282
0.00104319
-0.000360403
0.0171098
-0.000289526
-0.000309649
0.017435
0.000319532
9.89584e-05
0.0167176
-0.000206683
0.000268749
0.016141
-0.000762799
5.22839e-05
0.0158667
-0.000950525
-0.000102653
0.0151413
-0.00137753
-1.61573e-05
0.014239
-0.00211534
7.06829e-05
0.0134544
-0.00224103
2.59352e-05
0.0129084
-0.00176782
-3.72735e-05
0.0122501
-0.00152325
-5.11144e-05
0.0120175
-0.00108626
-2.49132e-05
0.0121932
-0.000863277
4.90744e-06
0.0123153
-0.000429297
1.19316e-05
0.012559
-0.000635023
5.03073e-06
-0.000644931
1.88031e-08
0.0136316
0.000616136
-7.51806e-06
0.0141938
0.000924567
2.65876e-05
0.0149471
0.00154162
6.91651e-06
0.0159437
0.00137203
-8.192e-05
0.0165863
0.000494612
-7.23495e-05
0.0164435
-0.000209375
2.54637e-05
0.0165806
4.68343e-05
8.10518e-05
0.0164389
-0.000119925
4.25203e-05
0.0159646
-0.000346454
3.88213e-05
0.0156278
-0.000684722
3.92313e-05
0.0153263
-0.00107198
-3.46575e-06
0.0146473
-0.00136993
-3.64685e-05
0.013978
-0.00153593
-2.04734e-05
0.0136634
-0.00146415
4.00842e-06
0.0133604
-0.00123764
7.98029e-06
0.0129286
-0.000658732
1.86482e-06
0.0125241
-0.000455698
-1.63472e-06
0.0124063
-0.000306298
-2.66915e-06
0.0122907
-0.000515701
-1.9199e-06
-0.000474497
-6.39093e-07
0.0136332
0.000314947
9.28725e-07
0.013988
0.000553182
1.29946e-05
0.0146678
0.000887984
-1.58065e-05
0.0152389
0.000854679
-3.7498e-05
0.0153161
0.000428938
-1.48428e-05
0.0150927
-1.75998e-05
1.2382e-05
0.0150533
4.09831e-05
2.57976e-05
0.0150322
-0.000127774
1.91477e-05
0.0149965
-0.000306161
1.33951e-06
0.0147075
-0.000371596
-9.91313e-06
0.0142395
-0.000590086
-5.81576e-06
0.0138083
-0.000946445
4.77002e-06
0.013239
-0.000978476
6.46382e-06
0.0126013
-0.000832895
3.52147e-06
0.0121033
-0.000741418
9.88338e-07
0.0119676
-0.000523818
5.00553e-07
0.0119561
-0.000446185
1.00382e-06
0.011895
-0.000246876
8.46781e-07
0.0117531
-0.000374802
5.19837e-07
-0.000328283
9.4061e-08
0.0134796
0.000167811
3.5561e-07
0.0137855
0.000245093
1.83904e-06
0.0142549
0.000423275
-2.90069e-06
0.0147413
0.000374533
-4.3304e-06
0.015011
0.000160863
-1.39923e-06
0.0150054
-1.35385e-05
9.47167e-07
0.0150524
-8.67698e-06
2.06549e-06
0.0149836
-5.9291e-05
7.64416e-07
0.0147868
-0.000111094
1.20859e-06
0.0146017
-0.000189873
1.77383e-06
0.014311
-0.000299369
-8.68625e-08
0.0137986
-0.0004301
-2.09731e-06
0.0133129
-0.000488786
-2.14671e-06
0.0129326
-0.000450868
-9.26969e-07
0.0125621
-0.000370485
-2.41376e-07
0.0122544
-0.000215955
-1.33553e-07
0.0119891
-0.000180522
-1.48372e-07
0.0118712
-0.000128655
-1.71996e-07
0.011696
-0.000199277
-1.64708e-07
-0.000165521
-7.22943e-08
0.0135006
2.41111e-07
0.0137457
2.20592e-07
0.0141701
-7.10279e-07
0.0145466
-1.37659e-06
0.0147076
-3.7239e-07
0.0146933
3.14587e-07
0.0146831
9.24471e-07
0.014623
5.9205e-07