/*--------------------------------*- C++ -*----------------------------------*\
  =========                 |
  \\      /  F ield         | OpenFOAM: The Open Source CFD Toolbox
   \\    /   O peration     | Website:  https://openfoam.org
    \\  /    A nd           | Version:  8
     \\/     M anipulation  |
\*---------------------------------------------------------------------------*/
FoamFile
{
    version     2.0;
    format      ascii;
    class       volVectorField;
    location    "6";
    object      U;
}
// * * * * * * * * * * * * * * * * * * * * * * * * * * * * * * * * * * * * * //

dimensions      [0 1 -1 0 0 0 0];

internalField   nonuniform List<vector> 
2844
(
(0.999014 -0.00233864 -1.14973e-05)
(1.02052 -0.00798555 -2.4415e-06)
(1.04451 -0.0163391 2.85263e-05)
(1.07176 -0.0273991 3.6178e-05)
(1.09196 -0.0354873 -4.01892e-06)
(1.0961 -0.0351656 -2.11614e-05)
(1.09499 -0.0356671 -3.30488e-05)
(1.09423 -0.0265749 -1.94548e-05)
(1.08629 -0.0189642 4.19406e-07)
(1.08066 -0.0165582 1.10993e-05)
(1.06 -0.0207849 9.29118e-06)
(1.03856 -0.0198818 -2.01874e-06)
(0.995925 -0.0284886 -5.0455e-06)
(0.966469 -0.0308172 -7.57438e-06)
(0.928641 -0.0320455 -4.64084e-06)
(0.911379 -0.0277726 -2.46953e-06)
(0.896845 -0.0289808 -1.20783e-06)
(0.883618 -0.0311417 -8.46131e-08)
(0.877753 -0.0320041 1.20291e-06)
(0.853652 -0.0280041 1.56334e-06)
(0.999061 -0.0199322 -1.96322e-05)
(1.02041 -0.0174225 -5.45105e-05)
(1.04549 -0.0303032 0.000121559)
(1.07852 -0.0121254 0.000138569)
(1.10876 0.0201225 2.99856e-05)
(1.11513 0.0382945 -4.8045e-05)
(1.11728 0.0363228 -6.59653e-05)
(1.12284 0.0322432 -1.65164e-05)
(1.10865 0.0302497 -3.56604e-05)
(1.09887 0.0375607 -6.17111e-05)
(1.08246 0.0554741 2.91919e-06)
(1.0579 0.0707487 7.61082e-05)
(1.00805 0.0869845 7.74761e-05)
(0.985659 0.0851949 3.3325e-05)
(0.951072 0.0769463 8.68474e-06)
(0.930119 0.053934 4.65712e-06)
(0.90608 0.0506493 5.78685e-06)
(0.890286 0.0464498 6.53599e-06)
(0.888053 0.0558407 6.29502e-06)
(0.864059 0.0478758 2.81319e-06)
(0.996169 -0.0230475 -7.91518e-05)
(1.04008 -0.0415264 -0.000372718)
(1.06989 -0.07181 0.000784513)
(1.12105 -0.0824199 0.00103948)
(1.14634 -0.0655061 3.35771e-05)
(1.13519 -0.0338044 -0.000786807)
(1.11878 -0.042172 -0.000998661)
(1.11806 -0.0203242 -0.000651704)
(1.12389 0.00145618 3.2673e-05)
(1.11964 0.00199643 0.000435676)
(1.08006 0.00988309 0.000252617)
(1.05297 0.037549 -0.000157141)
(1.01412 0.0257718 -0.000230264)
(0.969346 0.0109694 -0.000125265)
(0.917965 0.00885252 -3.53309e-05)
(0.896383 0.00670126 -1.99804e-05)
(0.898756 0.0018403 -3.91956e-05)
(0.891794 -0.0171138 -3.29178e-05)
(0.890405 -0.011287 -2.03988e-05)
(0.869954 -0.00880179 -3.89855e-06)
(0.994933 -0.0585108 0.000155411)
(1.04493 -0.0508502 -0.000782708)
(1.0798 -0.107311 0.000834966)
(1.13938 -0.0693571 0.00268709)
(1.21328 0.0180234 0.00168065)
(1.21767 0.0664554 -0.00159558)
(1.20828 0.0407304 -0.0031079)
(1.23572 0.0335885 -0.00146486)
(1.20992 0.0340168 -0.00128083)
(1.17197 0.0721572 -0.00139988)
(1.15896 0.113788 8.62043e-05)
(1.13549 0.125938 0.00129093)
(1.06045 0.159346 0.000704163)
(1.03453 0.165941 -0.000193339)
(1.01093 0.140877 -0.000316934)
(0.987932 0.0726524 -8.15303e-05)
(0.95084 0.0515328 6.652e-05)
(0.925557 0.0525461 0.00010824)
(0.932524 0.0718461 7.66397e-05)
(0.907965 0.0653868 2.56196e-05)
(0.999182 -0.0647047 0.000763289)
(1.0797 -0.104166 0.000282645)
(1.11899 -0.179348 0.0016525)
(1.2676 -0.203547 0.000293474)
(1.31047 -0.128266 0.00461395)
(1.23729 -0.00616173 0.00387855)
(1.24815 -0.0556702 -0.00876531)
(1.27712 -0.00734594 -0.0119497)
(1.23227 0.0518881 -0.00177535)
(1.20672 0.0361519 0.00480838)
(1.16584 0.0358374 0.00157274)
(1.10918 0.108198 -0.00216214)
(1.04227 0.0982946 -0.000686605)
(0.997527 0.0433146 0.00155836)
(0.952104 0.0405835 0.00198066)
(0.893331 0.0578691 0.000933643)
(0.918759 0.0528682 -0.000207378)
(0.911933 -0.000943215 -0.000455538)
(0.937455 0.00473272 -0.000188386)
(0.945347 0.0118857 -1.40376e-07)
(1.0089 -0.122596 -0.00356661)
(1.06833 -0.106353 0.00240779)
(1.15367 -0.289455 0.0131454)
(1.34116 -0.17341 0.00344034)
(1.52236 0.0152097 -0.00863583)
(1.53865 0.0910304 0.00548707)
(1.55179 -0.00200486 0.00828593)
(1.45301 0.111527 -0.0161014)
(1.38014 0.105187 -0.0243825)
(1.40626 0.114479 -0.00808854)
(1.31036 0.210083 0.00957047)
(1.18698 0.236926 0.0100776)
(1.12528 0.253471 -0.000183637)
(1.08116 0.23383 -0.00725283)
(1.00029 0.222876 -0.00530431)
(0.940747 0.0974621 -0.00184681)
(0.942185 0.0269579 -0.000965035)
(0.929607 0.0359535 -0.00104983)
(0.941884 0.0403488 -0.00143823)
(0.965049 0.0602651 -0.000892043)
(0.981389 -0.11611 -0.0260309)
(1.13478 -0.248051 -0.00953809)
(1.44569 -0.568739 0.0293844)
(1.58135 -0.57931 0.0112956)
(1.64435 -0.17128 -0.00414889)
(1.69691 -0.0172538 -0.0340983)
(1.60676 -0.0552685 0.0192287)
(1.64899 0.178516 0.0175995)
(1.51547 0.105554 -0.00356592)
(1.58944 0.118767 -0.0124848)
(1.53148 0.18035 -0.00379247)
(1.47725 0.209498 0.0062296)
(1.39751 0.197539 0.00986909)
(1.30851 0.158431 0.00405841)
(1.24699 0.156832 -0.00781093)
(1.2604 0.123585 -0.0176689)
(1.18366 0.0662096 -0.0168518)
(1.12747 0.00508401 -0.00850684)
(1.07803 -0.0164586 -0.000765883)
(0.935617 -0.00326701 0.00135013)
(0.859346 -0.087855 -0.0289219)
(1.33094 -0.336508 0.0223793)
(1.77169 -1.14608 0.0413257)
(1.71535 -0.790545 -0.0204523)
(1.80927 -0.0130832 -0.00650846)
(1.59038 0.146681 0.019602)
(1.01106 -0.144285 -0.00199418)
(1.08754 0.136402 -0.00703843)
(1.05831 0.0398221 -0.0181389)
(1.31609 0.142132 -0.00593924)
(1.39678 0.324666 -0.00696241)
(1.49669 0.288549 -0.00804382)
(1.5239 0.352707 -0.00162505)
(1.59431 0.31007 0.00514121)
(1.50574 0.295644 0.00747173)
(1.55013 0.21193 0.00511951)
(1.59592 0.16674 0.00221619)
(1.48497 0.136942 0.00173039)
(1.43104 0.187112 0.002899)
(1.3863 0.176154 0.00221057)
(1.09802 -0.270559 -0.0789759)
(1.4722 -0.871091 -0.219669)
(1.40458 -1.64546 0.0414142)
(0.260009 -0.300556 0.00642387)
(0.484391 0.221532 -0.0358447)
(0.0473252 -0.0859571 0.00445291)
(0.254884 -0.0400311 0.0129134)
(0.614829 0.06121 -0.00819593)
(0.57892 0.107709 -0.00336697)
(0.84134 0.180949 0.00314725)
(0.902046 0.166278 0.00889219)
(1.04223 0.162756 0.0123466)
(1.09228 0.0637472 0.0102471)
(1.1528 0.138447 0.00592018)
(1.18556 0.125585 0.00251033)
(1.20458 0.0645292 0.000418529)
(1.32564 0.0379212 -0.000373905)
(0.585344 -0.037857 0.0534648)
(1.11766 -0.837234 0.243025)
(-0.187821 -0.546885 -0.256195)
(-0.506254 -0.330675 -0.00028772)
(-0.526507 -0.0774134 0.0022245)
(0.177055 0.224462 0.00770793)
(-0.412993 -0.248253 -0.00146768)
(-0.136796 0.117798 -0.001119)
(-0.221648 0.0894895 0.00273189)
(0.116838 0.122603 0.00433184)
(0.148786 0.0801177 0.00534966)
(0.40043 0.104063 0.00426571)
(0.472372 0.080076 0.00190983)
(0.583517 0.0720583 -0.000325991)
(0.75667 0.0636722 -0.00123881)
(0.804959 0.0750373 -0.00178716)
(0.947993 0.0728161 -0.00124585)
(0.813008 0.176301 0.00167969)
(-0.758641 -0.229776 0.0239662)
(0.369634 -0.398081 0.00216784)
(-0.519291 0.066776 0.00349717)
(0.182401 -0.231866 0.0109617)
(-0.410331 0.241892 -0.000574924)
(-0.132722 -0.121734 -0.000582917)
(-0.219013 -0.0924813 0.00331201)
(0.11788 -0.124549 0.00473989)
(0.149112 -0.0811701 0.00558175)
(0.400244 -0.104685 0.00433297)
(0.472162 -0.0805153 0.00189771)
(0.583316 -0.0723015 -0.000356608)
(0.756516 -0.0637816 -0.00126804)
(0.804728 -0.0750487 -0.00181003)
(0.94784 -0.0727328 -0.00125598)
(1.22145 0.41089 0.0537934)
(-0.680445 -0.0693664 -0.0676521)
(0.000400981 1.0177 -0.0633165)
(-0.00874854 0.184965 0.00480967)
(0.58048 -0.238074 -0.0209165)
(0.142083 0.0569321 0.0220872)
(0.290187 0.0265491 0.0248989)
(0.641172 -0.0706172 -0.00445289)
(0.598379 -0.11354 -0.00102488)
(0.852358 -0.184749 0.00521896)
(0.907355 -0.168557 0.0103567)
(1.04342 -0.163698 0.0132214)
(1.09173 -0.0641816 0.010602)
(1.15165 -0.138684 0.00598285)
(1.18458 -0.125618 0.00247295)
(1.20383 -0.0644612 0.000366986)
(1.32519 -0.0378467 -0.000399894)
(0.875193 0.365999 0.0321825)
(1.24127 0.281276 -0.0514606)
(0.970187 0.365269 -0.0253785)
(0.207116 -0.136522 -0.0185493)
(1.30971 -0.0608526 0.00415508)
(1.36486 -0.320996 0.00290505)
(1.22367 -0.160749 -0.00224239)
(1.4029 -0.194861 0.00446571)
(1.4452 -0.348549 -0.00318158)
(1.52981 -0.302746 -0.00688771)
(1.54651 -0.360863 -0.000958393)
(1.60851 -0.315466 0.00601155)
(1.51312 -0.298736 0.00845611)
(1.55276 -0.213285 0.00595583)
(1.5961 -0.166947 0.00271836)
(1.48433 -0.136789 0.00194889)
(1.4304 -0.186979 0.00295513)
(1.38607 -0.176081 0.00221254)
(1.0109 0.20584 0.0258752)
(1.1673 0.301029 -0.0253728)
(1.37853 0.306079 -0.0127641)
(1.82338 0.565039 0.025936)
(2.05035 0.526675 -0.00162584)
(1.60827 0.0670726 0.0161795)
(1.56401 0.0336028 0.0029912)
(1.60587 -0.196917 -0.000174161)
(1.49907 -0.116615 -0.0138993)
(1.58144 -0.124981 -0.0127971)
(1.51393 -0.183958 -0.000854665)
(1.45299 -0.211858 0.0075227)
(1.37454 -0.197634 0.00915527)
(1.29419 -0.158237 0.0025082)
(1.24035 -0.157488 -0.00898284)
(1.25794 -0.124702 -0.0181525)
(1.18306 -0.0672978 -0.0169204)
(1.12738 -0.00591585 -0.00843647)
(1.07801 0.0158583 -0.000694354)
(0.935672 0.00302081 0.00138263)
(1.01631 0.121552 0.00531093)
(1.08894 0.106883 0.00739231)
(1.15042 0.205747 -0.0250798)
(1.3566 0.187583 -0.0105031)
(1.56011 -0.00290034 0.0069799)
(1.56973 -0.100628 0.0192721)
(1.57386 -0.0126139 0.0121969)
(1.48493 -0.106438 -0.0122962)
(1.40415 -0.0978176 -0.0192689)
(1.41611 -0.111422 -0.00407368)
(1.31546 -0.209588 0.0112494)
(1.19251 -0.23736 0.0106481)
(1.13109 -0.254121 0.000395626)
(1.08541 -0.234576 -0.00682077)
(1.00252 -0.223559 -0.00517242)
(0.941581 -0.0981403 -0.00192801)
(0.942689 -0.0276684 -0.00108317)
(0.930031 -0.0365673 -0.00112752)
(0.942258 -0.0408448 -0.00148096)
(0.965356 -0.0604781 -0.000906836)
(1.0052 0.063787 0.00362265)
(1.06569 0.138219 0.0019349)
(1.11324 0.193431 -0.011463)
(1.26834 0.228689 -0.00267077)
(1.32022 0.140056 0.00845138)
(1.24784 0.00643477 0.00584351)
(1.25989 0.0556997 -0.00777309)
(1.28743 0.00456371 -0.0096833)
(1.23999 -0.0575285 0.00022802)
(1.21132 -0.0426979 0.0059265)
(1.16814 -0.0415967 0.00207568)
(1.10986 -0.11247 -0.00193627)
(1.04222 -0.101117 -0.000620002)
(0.997598 -0.0448978 0.00159465)
(0.952461 -0.0413449 0.00204507)
(0.893867 -0.0582577 0.000993181)
(0.919221 -0.0532027 -0.000177459)
(0.912286 0.000651862 -0.000444168)
(0.937711 -0.00498398 -0.000183291)
(0.945574 -0.0120084 1.90892e-06)
(0.993243 0.0474753 0.000341553)
(1.04179 0.0487174 -0.000260125)
(1.08834 0.0998364 -0.00101105)
(1.15443 0.0709264 0.00167606)
(1.23478 -0.0188316 0.00145886)
(1.23959 -0.0692521 -0.0013906)
(1.22625 -0.044574 -0.00242021)
(1.2498 -0.0370607 -0.000889996)
(1.22027 -0.037277 -0.000985617)
(1.17863 -0.0757764 -0.00130855)
(1.1631 -0.117248 7.14433e-05)
(1.13822 -0.128531 0.00124968)
(1.06229 -0.161214 0.000668561)
(1.03583 -0.167425 -0.000219899)
(1.012 -0.142003 -0.000336897)
(0.988871 -0.0735102 -9.23275e-05)
(0.951642 -0.0521848 6.14235e-05)
(0.926243 -0.0530357 0.000105884)
(0.933098 -0.0722125 7.55106e-05)
(0.908419 -0.0655413 2.52071e-05)
(0.99674 0.0232685 -4.505e-05)
(1.03532 0.0552829 -0.000260188)
(1.07068 0.0864113 0.000502272)
(1.12461 0.0976004 0.000886697)
(1.15357 0.0762232 8.44092e-05)
(1.14359 0.0386826 -0.000705727)
(1.12709 0.0434756 -0.000859494)
(1.12517 0.0193887 -0.000493857)
(1.12978 -0.00373166 0.000152733)
(1.12436 -0.00442375 0.000502636)
(1.08347 -0.0119463 0.000282175)
(1.05534 -0.0391751 -0.000142249)
(1.01587 -0.0269094 -0.000223002)
(0.970689 -0.0116652 -0.000121818)
(0.918999 -0.00928124 -3.27154e-05)
(0.897194 -0.00700433 -1.79749e-05)
(0.899421 -0.00204453 -3.83545e-05)
(0.89236 0.016974 -3.26933e-05)
(0.890888 0.0111587 -2.03545e-05)
(0.870378 0.0087316 -3.8865e-06)
(0.998309 0.0155332 -1.94626e-05)
(1.0184 0.0136377 -3.29787e-05)
(1.04841 0.0249799 8.88121e-05)
(1.08584 0.00878534 0.000104589)
(1.11921 -0.0234293 2.4019e-05)
(1.127 -0.0417224 -3.28463e-05)
(1.12874 -0.0396375 -4.05692e-05)
(1.13276 -0.0352626 3.51502e-07)
(1.11657 -0.0328753 -2.85229e-05)
(1.10492 -0.0398592 -6.2077e-05)
(1.08701 -0.0574166 -9.45111e-08)
(1.06126 -0.0722782 7.3791e-05)
(1.0105 -0.0881649 7.59738e-05)
(0.987486 -0.0861003 3.23739e-05)
(0.952506 -0.0776237 8.09974e-06)
(0.931263 -0.0544255 4.38013e-06)
(0.907 -0.0509894 5.67197e-06)
(0.891027 -0.0466856 6.47987e-06)
(0.888668 -0.0560073 6.29207e-06)
(0.864574 -0.0479477 2.81526e-06)
(0.998853 0.00405831 -1.0626e-05)
(1.01896 0.0143302 1.41194e-06)
(1.04613 0.0243705 2.20754e-05)
(1.07636 0.0350861 3.10937e-05)
(1.09887 0.0418915 -2.43358e-06)
(1.10438 0.039747 -1.65268e-05)
(1.10357 0.038499 -2.65377e-05)
(1.10215 0.0281412 -1.28851e-05)
(1.09306 0.019727 4.82272e-06)
(1.08613 0.0168777 1.32821e-05)
(1.06423 0.0209225 1.00945e-05)
(1.04175 0.0199655 -1.72919e-06)
(0.998327 0.0285689 -5.00143e-06)
(0.968282 0.0309065 -7.57497e-06)
(0.930037 0.0321283 -4.62899e-06)
(0.912467 0.0278316 -2.46917e-06)
(0.897716 0.0290087 -1.20418e-06)
(0.884334 0.0311477 -8.33239e-08)
(0.87836 0.0319995 1.20784e-06)
(0.854169 0.0279994 1.56845e-06)
(0.99901 -0.00233993 -4.15284e-07)
(1.02054 -0.00799663 -3.64415e-06)
(1.04452 -0.0163204 5.88129e-06)
(1.07174 -0.0273842 6.77135e-06)
(1.09194 -0.0354669 2.79857e-06)
(1.0961 -0.0351436 -1.52826e-06)
(1.095 -0.0356539 -5.62309e-06)
(1.09424 -0.0265712 -6.33508e-06)
(1.0863 -0.0189845 -4.74555e-06)
(1.08066 -0.0165904 -2.37879e-06)
(1.06 -0.0207904 -1.01582e-06)
(1.03857 -0.019855 -6.47821e-07)
(0.995931 -0.0284573 -3.48248e-07)
(0.966476 -0.0308004 -1.53109e-07)
(0.928646 -0.0320397 -9.19606e-08)
(0.911382 -0.02777 -5.23597e-08)
(0.896846 -0.028979 -1.69556e-08)
(0.883618 -0.03114 -5.64542e-09)
(0.877752 -0.0320027 -4.89445e-09)
(0.853651 -0.0280038 -2.91216e-09)
(0.999057 -0.0199834 -7.26657e-07)
(1.02051 -0.017553 -1.71884e-05)
(1.04543 -0.0299258 2.26962e-05)
(1.07838 -0.0117709 3.02447e-05)
(1.10877 0.0200489 2.76998e-06)
(1.11521 0.0379626 -1.14616e-05)
(1.11734 0.0360025 -2.20085e-05)
(1.12284 0.0320697 -1.68046e-05)
(1.10862 0.0302745 -9.65688e-06)
(1.09889 0.0376971 -2.38037e-06)
(1.08249 0.0555661 3.17813e-06)
(1.05789 0.0707015 4.98035e-06)
(1.00802 0.0869023 4.62644e-06)
(0.985631 0.0851398 2.78757e-06)
(0.951062 0.0769256 1.20281e-06)
(0.930119 0.0539268 3.72092e-07)
(0.90608 0.0506418 9.65493e-08)
(0.890286 0.046446 8.84443e-09)
(0.888051 0.0558382 -1.43269e-08)
(0.864058 0.0478751 -8.70955e-09)
(0.996126 -0.0232462 -1.60385e-05)
(1.04093 -0.0421125 -9.01641e-05)
(1.06938 -0.0703119 0.000141742)
(1.11958 -0.0811443 0.000162029)
(1.14645 -0.0653618 9.7291e-05)
(1.13655 -0.0343118 1.47977e-06)
(1.12 -0.0426909 -0.000112511)
(1.11844 -0.0203796 -0.000164948)
(1.12356 0.00107518 -0.000124178)
(1.11908 0.00131425 -6.60466e-05)
(1.07984 0.00990698 -3.58291e-05)
(1.05314 0.0383598 -2.88552e-05)
(1.01441 0.0265661 -1.99467e-05)
(0.969566 0.0113067 -1.03631e-05)
(0.918067 0.00894325 -5.12746e-06)
(0.896421 0.00674463 -2.26019e-06)
(0.898768 0.00189867 -6.47376e-07)
(0.891799 -0.0170471 -6.9308e-08)
(0.890408 -0.0112366 3.32113e-08)
(0.869955 -0.00878311 1.77115e-08)
(0.995235 -0.0598627 -0.000177792)
(1.048 -0.0541362 -0.000185582)
(1.07729 -0.0976881 0.000647875)
(1.1314 -0.0598293 0.000479597)
(1.21227 0.0159722 0.000169845)
(1.22416 0.0584482 -5.2165e-05)
(1.21446 0.0315363 -0.000470299)
(1.23707 0.0283524 -0.000453358)
(1.21009 0.0348891 -0.000276966)
(1.17188 0.0762503 -0.000102474)
(1.15803 0.11574 5.29564e-05)
(1.13509 0.123999 0.000100523)
(1.06069 0.157088 7.96891e-05)
(1.03484 0.164911 4.06026e-05)
(1.01137 0.140704 1.72997e-05)
(0.988326 0.072592 6.60978e-06)
(0.951197 0.0512164 2.55127e-06)
(0.925828 0.0522433 9.8698e-07)
(0.932724 0.0716522 3.54791e-07)
(0.908044 0.0653177 1.02068e-07)
(0.997724 -0.0664193 -0.0020728)
(1.08173 -0.10922 0.000459429)
(1.12536 -0.16084 0.00559991)
(1.25093 -0.178895 7.38815e-05)
(1.29871 -0.123773 -0.00100624)
(1.26565 -0.0271297 0.00122663)
(1.29642 -0.0790603 0.00193563)
(1.29072 -0.0155631 -0.000981747)
(1.21891 0.040888 -0.00175037)
(1.19925 0.0231882 -0.00137323)
(1.16944 0.0365992 -0.00093531)
(1.10514 0.120147 -0.000541)
(1.03144 0.105231 -0.000230272)
(0.988947 0.041734 -7.14932e-05)
(0.946069 0.0376045 -2.90276e-05)
(0.889929 0.0572407 -1.97274e-05)
(0.916377 0.0536401 -9.17506e-06)
(0.909977 0.000221939 -2.91554e-06)
(0.935832 0.00561987 -1.79796e-06)
(0.944577 0.0122224 -1.03363e-06)
(0.990317 -0.12172 -0.00653562)
(1.05268 -0.106432 0.00331431)
(1.18747 -0.252071 0.0193811)
(1.36265 -0.153803 0.0131152)
(1.50564 0.0140455 -0.00889517)
(1.5192 0.0772525 -0.00591577)
(1.59466 -0.0770354 0.00794724)
(1.53272 0.0428796 0.0064149)
(1.39257 0.104292 0.00154701)
(1.34311 0.150383 -0.000231614)
(1.24879 0.224654 -2.95398e-05)
(1.19086 0.22633 -1.08155e-06)
(1.16243 0.246924 -0.00042512)
(1.10289 0.243073 -0.00057195)
(1.00468 0.237072 -0.000359771)
(0.951404 0.10332 -9.95437e-05)
(0.958074 0.0236422 1.88909e-05)
(0.945183 0.0308283 3.3424e-05)
(0.953725 0.03744 2.41109e-05)
(0.970304 0.0594518 9.82397e-06)
(0.936911 -0.146438 -0.0108)
(1.0899 -0.229708 -0.0099917)
(1.47006 -0.475958 0.0324919)
(1.68996 -0.511319 0.0218569)
(1.62066 -0.156496 -0.0320558)
(1.63794 -0.0483797 -0.0338683)
(1.58539 -0.0546792 0.0305859)
(1.69214 0.0769518 0.0327428)
(1.58921 -0.0074354 0.0242268)
(1.62609 0.0891041 0.0111859)
(1.54128 0.212275 0.00413884)
(1.49642 0.23854 0.00239623)
(1.47472 0.192066 0.00225828)
(1.45871 0.121246 0.00198517)
(1.44081 0.116706 0.00126771)
(1.41755 0.0992299 0.00054955)
(1.24684 0.054833 0.000117656)
(1.12227 -0.000493545 -5.24114e-05)
(1.05038 -0.0208092 -7.69702e-05)
(0.919101 -0.00581565 -3.98672e-05)
(0.986369 -0.253559 0.0362734)
(1.08503 -0.46088 -0.00572519)
(1.56791 -1.03022 0.182693)
(1.76472 -0.620875 -0.0729754)
(1.83158 0.0749526 -0.0159269)
(1.49562 -0.0279037 0.0521895)
(1.17158 -0.0310832 -0.0195083)
(1.25661 0.217398 -0.0165692)
(1.05379 0.0590235 -0.0154105)
(1.23668 0.151954 -0.0111002)
(1.31785 0.337773 -0.00488889)
(1.38741 0.289312 -0.00234897)
(1.40414 0.337972 -0.00153219)
(1.48752 0.26576 -0.00118877)
(1.43527 0.236581 -0.00092754)
(1.5146 0.160459 -0.000643511)
(1.56694 0.135889 -0.000331768)
(1.45779 0.124099 -0.000120934)
(1.40538 0.186129 -2.08685e-05)
(1.37119 0.178546 2.60115e-06)
(1.54133 -0.322934 0.035608)
(0.798526 -1.03104 -0.276803)
(1.33788 -1.59544 0.15231)
(0.263134 -0.321554 0.00304662)
(0.361954 0.184674 -0.0127803)
(-0.168635 -0.150115 -0.0188926)
(0.236017 -0.0435806 -0.0124537)
(0.547092 0.0565656 -0.00390651)
(0.473041 0.0944919 -0.00275137)
(0.740634 0.152638 -0.00219136)
(0.810113 0.130022 -0.00134863)
(0.986549 0.133861 -0.000711753)
(1.07055 0.0498067 -0.00024467)
(1.15103 0.138377 -3.22138e-06)
(1.19051 0.133009 6.23226e-05)
(1.21298 0.0771509 5.97844e-05)
(1.33157 0.0466074 2.73335e-05)
(1.23915 -0.380563 0.0585833)
(0.785736 -0.70881 -0.171674)
(0.443609 -0.540175 0.568385)
(-0.510913 -0.334544 0.00499078)
(-0.54573 -0.067866 -0.00169497)
(0.167864 0.232545 -0.00314582)
(-0.413324 -0.244935 -0.000858705)
(-0.163486 0.120095 -0.000650343)
(-0.240125 0.0875786 -0.000603157)
(0.0986335 0.119224 -0.000370671)
(0.137714 0.0788281 -0.00018737)
(0.398319 0.104284 -3.35128e-05)
(0.476955 0.0825716 2.87385e-05)
(0.590827 0.0763815 4.19682e-05)
(0.763503 0.0667837 3.5543e-05)
(0.812116 0.0767413 2.63728e-05)
(0.952186 0.0735294 1.21525e-05)
(-0.0095658 0.0852575 0.0744676)
(-1.18424 0.42013 0.131338)
(0.340166 -0.399926 -0.00588475)
(-0.546076 0.0636911 0.000884072)
(0.168984 -0.235065 0.0025078)
(-0.411948 0.241881 0.000588843)
(-0.162631 -0.12378 0.000503807)
(-0.239125 -0.0897751 0.000534974)
(0.0988346 -0.120684 0.000383949)
(0.137919 -0.0797048 0.000239159)
(0.398314 -0.104906 9.93102e-05)
(0.476973 -0.0830641 1.94596e-05)
(0.590808 -0.0767096 -4.92419e-06)
(0.763456 -0.066949 -1.13996e-05)
(0.811947 -0.07678 -9.0263e-06)
(0.952059 -0.0734548 -3.49596e-06)
(1.10232 0.18254 0.138952)
(0.500326 0.236137 -0.278755)
(0.791717 1.27495 -0.030628)
(0.0219708 0.181312 0.00705637)
(0.345156 -0.179519 0.0082027)
(-0.174162 0.149687 0.01407)
(0.237993 0.0390616 0.00960674)
(0.550463 -0.0602282 0.00294064)
(0.474996 -0.0964901 0.00228103)
(0.741543 -0.153744 0.00201916)
(0.810357 -0.130889 0.00133147)
(0.986358 -0.13451 0.000771215)
(1.0703 -0.0504259 0.000321548)
(1.15057 -0.138874 7.30206e-05)
(1.19008 -0.133289 -1.62041e-05)
(1.21258 -0.0772665 -3.19589e-05)
(1.33126 -0.0466083 -1.61872e-05)
(0.920769 0.00952456 -0.0068622)
(1.23427 0.637814 -0.0399444)
(0.747137 0.261728 0.0487855)
(0.144503 -0.101877 -0.120439)
(1.12505 0.0573384 0.0213268)
(1.17637 -0.205353 0.00963669)
(1.01322 -0.0569577 0.00914604)
(1.22349 -0.155096 0.00744108)
(1.31274 -0.340832 0.00350639)
(1.3858 -0.289847 0.00197172)
(1.40289 -0.337476 0.00151581)
(1.48639 -0.265174 0.00123878)
(1.43429 -0.236319 0.000937428)
(1.51397 -0.160509 0.000632725)
(1.56645 -0.13595 0.000326895)
(1.45747 -0.12413 0.000121507)
(1.40521 -0.186183 1.62934e-05)
(1.37121 -0.178566 -9.29387e-06)
(1.00429 0.0939499 0.0249928)
(1.04911 0.317372 -0.0126006)
(1.54511 0.630308 -0.0356288)
(1.86656 0.401176 -0.0449269)
(1.77641 -0.131865 -0.0375579)
(1.63267 -0.078378 0.00233949)
(1.58781 -0.00219814 -0.0205219)
(1.67862 -0.107321 -0.0212768)
(1.56335 -0.0276278 -0.0168027)
(1.60307 -0.121208 -0.00772526)
(1.5242 -0.231277 -0.00271979)
(1.48616 -0.246334 -0.00184443)
(1.46888 -0.193895 -0.00207184)
(1.45517 -0.121303 -0.00202756)
(1.43822 -0.116824 -0.00140734)
(1.41541 -0.0994815 -0.000669371)
(1.24538 -0.055148 -0.000216054)
(1.12146 0.000129717 -2.74732e-05)
(1.04996 0.0204386 1.76407e-05)
(0.919015 0.00564315 1.13457e-05)
(1.00743 0.0828531 0.00755183)
(1.03743 0.100402 -0.0041842)
(1.22009 0.305561 -0.0161003)
(1.39723 0.187493 -0.0049616)
(1.55487 -0.0553905 0.00192759)
(1.55862 -0.110463 0.00123723)
(1.6142 0.0539387 -0.00472459)
(1.54611 -0.0589017 -0.00295996)
(1.4015 -0.1148 0.000307272)
(1.34729 -0.156123 0.000958199)
(1.25099 -0.227546 0.000198853)
(1.19227 -0.228507 -8.26002e-05)
(1.16462 -0.24861 0.000248338)
(1.10569 -0.244493 0.000434762)
(1.00707 -0.238396 0.000294651)
(0.952823 -0.104463 8.45455e-05)
(0.959013 -0.0245513 -1.6902e-05)
(0.94586 -0.031506 -2.68211e-05)
(0.954221 -0.0379629 -1.52572e-05)
(0.970652 -0.0596758 -4.78832e-06)
(1.00587 0.0628388 0.0018236)
(1.06047 0.138132 -0.000281023)
(1.12069 0.195262 -0.00370127)
(1.25805 0.213832 -0.00191254)
(1.31014 0.137124 -0.00212256)
(1.27567 0.0245785 -0.00280755)
(1.30386 0.0722572 -0.00214892)
(1.29577 0.00797008 0.000209495)
(1.22276 -0.0487882 0.00111091)
(1.2019 -0.0304452 0.00099792)
(1.17116 -0.0422004 0.000744763)
(1.10587 -0.123972 0.000469169)
(1.03146 -0.107676 0.000219621)
(0.988883 -0.0430519 8.20351e-05)
(0.946216 -0.0381816 4.20304e-05)
(0.890331 -0.0575388 2.77355e-05)
(0.916774 -0.0539314 1.47801e-05)
(0.910299 -0.000492937 5.87798e-06)
(0.936073 -0.0058613 2.64005e-06)
(0.944798 -0.0123419 1.10288e-06)
(0.993915 0.0484099 6.78486e-05)
(1.04397 0.0506735 0.000322337)
(1.0853 0.0935937 -0.000389719)
(1.14742 0.0630825 -0.000659635)
(1.23456 -0.0175085 -0.000643965)
(1.24629 -0.0624028 -0.000174012)
(1.23175 -0.0370086 0.000336035)
(1.2506 -0.0333924 0.000399635)
(1.22033 -0.0392312 0.000255978)
(1.17853 -0.0804619 9.86433e-05)
(1.16216 -0.119451 -4.12952e-05)
(1.13783 -0.126718 -8.80002e-05)
(1.06256 -0.159017 -7.09546e-05)
(1.03616 -0.166422 -3.82674e-05)
(1.01246 -0.141853 -1.85425e-05)
(0.989276 -0.0734677 -7.51481e-06)
(0.952005 -0.0518761 -3.21299e-06)
(0.926517 -0.0527343 -1.67614e-06)
(0.9333 -0.0720187 -9.02532e-07)
(0.908499 -0.0654722 -2.93722e-07)
(0.996762 0.0234609 -6.90769e-07)
(1.03606 0.0555822 0.000120709)
(1.06995 0.0853681 -6.78508e-05)
(1.12322 0.0966908 -0.000270067)
(1.15378 0.0761505 -0.000236463)
(1.14496 0.0390713 -9.05618e-05)
(1.12821 0.0437576 8.13474e-05)
(1.12542 0.0192872 0.000121604)
(1.12934 -0.00340354 0.00010069)
(1.12375 -0.00372771 5.62729e-05)
(1.08323 -0.0119417 3.04321e-05)
(1.0555 -0.0399651 2.29757e-05)
(1.01616 -0.0276907 1.49069e-05)
(0.970905 -0.0119945 7.33276e-06)
(0.9191 -0.00936682 3.81359e-06)
(0.897232 -0.00704536 1.95598e-06)
(0.899433 -0.00210196 7.92883e-07)
(0.892365 0.0169077 2.50678e-07)
(0.890891 0.0111084 6.84632e-08)
(0.870378 0.00871291 4.1131e-09)
(0.998311 0.0155767 -2.59725e-06)
(1.01848 0.0137294 1.9276e-05)
(1.04832 0.0246797 -1.35426e-05)
(1.08571 0.00847706 -3.10326e-05)
(1.11923 -0.0233792 -1.45136e-05)
(1.12709 -0.0414288 4.74375e-06)
(1.12879 -0.0393729 1.94586e-05)
(1.13275 -0.0351447 1.57285e-05)
(1.11655 -0.0329407 8.76711e-06)
(1.10494 -0.0400174 2.25066e-06)
(1.08704 -0.0575172 -2.25173e-06)
(1.06126 -0.0722343 -3.53273e-06)
(1.01046 -0.0880834 -3.24592e-06)
(0.987459 -0.0860451 -2.00575e-06)
(0.952496 -0.0776032 -9.45417e-07)
(0.931262 -0.0544188 -3.21942e-07)
(0.907 -0.0509821 -1.22486e-07)
(0.891027 -0.0466819 -5.67485e-08)
(0.888667 -0.0560048 -1.75921e-08)
(0.864572 -0.047947 5.70606e-10)
(0.99885 0.00405946 -2.32205e-07)
(1.01897 0.014336 4.873e-06)
(1.04613 0.0243621 -3.17479e-06)
(1.07635 0.0350808 -1.03235e-05)
(1.09886 0.0418725 -7.88748e-06)
(1.10438 0.0397217 -1.62797e-06)
(1.10357 0.038482 4.23941e-06)
(1.10216 0.0281368 4.92191e-06)
(1.09306 0.0197481 3.94126e-06)
(1.08613 0.0169115 2.05297e-06)
(1.06423 0.0209295 8.67104e-07)
(1.04176 0.0199395 4.96396e-07)
(0.998333 0.0285381 2.3819e-07)
(0.968288 0.03089 8.59207e-08)
(0.930042 0.0321227 5.30006e-08)
(0.91247 0.0278291 3.8461e-08)
(0.897717 0.0290069 1.51304e-08)
(0.884334 0.0311461 4.29193e-09)
(0.87836 0.0319981 4.27606e-09)
(0.854168 0.0279991 2.25232e-09)
(0.999013 -0.00233901 1.10816e-05)
(1.02053 -0.00798929 -1.20288e-06)
(1.04452 -0.0163332 -2.26352e-05)
(1.07176 -0.0273936 -2.94066e-05)
(1.09195 -0.0354895 6.81871e-06)
(1.09609 -0.0351679 1.96421e-05)
(1.09499 -0.0356691 2.74344e-05)
(1.09423 -0.0265755 1.31235e-05)
(1.08629 -0.0189642 -5.16326e-06)
(1.08067 -0.0165573 -1.34774e-05)
(1.06 -0.0207831 -1.0307e-05)
(1.03856 -0.0198799 1.37089e-06)
(0.995925 -0.0284869 4.69731e-06)
(0.96647 -0.0308163 7.42141e-06)
(0.928641 -0.0320451 4.54892e-06)
(0.911379 -0.0277725 2.41708e-06)
(0.896845 -0.0289808 1.19078e-06)
(0.883618 -0.0311417 7.90939e-08)
(0.877753 -0.0320041 -1.20764e-06)
(0.853652 -0.0280041 -1.5663e-06)
(0.999057 -0.0199359 1.89524e-05)
(1.02043 -0.017457 3.71349e-05)
(1.04551 -0.0302473 -9.8391e-05)
(1.07851 -0.0120626 -0.000108052)
(1.10875 0.0201465 -2.72281e-05)
(1.11513 0.0382818 3.67783e-05)
(1.11729 0.0362741 4.42483e-05)
(1.12285 0.0321835 -1.45689e-07)
(1.10865 0.0302067 2.60408e-05)
(1.09888 0.0375384 5.93455e-05)
(1.08246 0.0554632 2.59144e-07)
(1.0579 0.0707405 -7.11528e-05)
(1.00805 0.0869796 -7.28732e-05)
(0.985658 0.0851927 -3.05476e-05)
(0.951072 0.0769451 -7.48525e-06)
(0.930119 0.0539333 -4.28604e-06)
(0.90608 0.0506491 -5.69031e-06)
(0.890286 0.0464497 -6.52664e-06)
(0.888053 0.0558407 -6.30862e-06)
(0.864059 0.0478758 -2.82164e-06)
(0.996134 -0.0230624 6.69938e-05)
(1.04015 -0.0417123 0.000273113)
(1.07 -0.0715482 -0.00063347)
(1.12095 -0.0821046 -0.000863151)
(1.14624 -0.0654934 6.55795e-05)
(1.13518 -0.0339183 0.000789418)
(1.1189 -0.042378 0.000888971)
(1.11822 -0.0204738 0.000488709)
(1.124 0.00137423 -0.000155779)
(1.11969 0.0019827 -0.00050142)
(1.08009 0.00991987 -0.000288317)
(1.05299 0.0376005 0.000128759)
(1.01414 0.025817 0.000210832)
(0.969359 0.0109947 0.00011517)
(0.91797 0.0088627 3.02924e-05)
(0.896385 0.00670434 1.77408e-05)
(0.898756 0.00184105 3.85501e-05)
(0.891794 -0.0171137 3.28453e-05)
(0.890405 -0.0112871 2.04258e-05)
(0.869954 -0.00880184 3.91199e-06)
(0.994873 -0.0586768 -0.000231233)
(1.04527 -0.051896 0.000389804)
(1.0804 -0.105725 -8.84998e-05)
(1.13889 -0.0675774 -0.00192564)
(1.21248 0.0187924 -0.00140752)
(1.21744 0.0662828 0.0014936)
(1.20883 0.0393588 0.00258648)
(1.23638 0.0319661 0.00100604)
(1.21027 0.0329459 0.000999824)
(1.17211 0.0715767 0.00129931)
(1.15897 0.113454 -3.58453e-05)
(1.13546 0.125667 -0.00120336)
(1.06042 0.159171 -0.000635482)
(1.03451 0.165857 0.000229241)
(1.01092 0.140838 0.000332817)
(0.987925 0.0726364 8.77863e-05)
(0.950837 0.0515283 -6.40347e-05)
(0.925556 0.0525458 -0.000107251)
(0.932523 0.0718464 -7.62606e-05)
(0.907965 0.0653869 -2.54982e-05)
(1.00066 -0.0661991 -0.00149272)
(1.0801 -0.107332 -0.00225103)
(1.11968 -0.171766 0.00484348)
(1.26925 -0.196402 0.00172754)
(1.30769 -0.126663 -0.00397042)
(1.23422 -0.00801267 -0.002591)
(1.249 -0.0606231 0.00929169)
(1.28054 -0.0113408 0.0104132)
(1.23587 0.0497065 7.75706e-05)
(1.20936 0.0355178 -0.00613815)
(1.16708 0.0364764 -0.00249224)
(1.1093 0.109172 0.00169014)
(1.04207 0.0990321 0.000529323)
(0.997452 0.0436789 -0.00159684)
(0.952136 0.0407292 -0.00200262)
(0.893373 0.0579158 -0.000952608)
(0.918784 0.0528873 0.000198073)
(0.911947 -0.00093551 0.000452484)
(0.937465 0.00473545 0.000186514)
(0.945351 0.0118864 -9.21186e-07)
(1.02471 -0.13875 0.00382758)
(1.06429 -0.111256 -0.0122874)
(1.13094 -0.236298 0.0121568)
(1.35417 -0.16363 0.0133386)
(1.52655 0.0155854 0.0028519)
(1.53355 0.0997247 -0.00843252)
(1.54777 0.00513776 -0.00648479)
(1.45973 0.0960993 0.0161044)
(1.38709 0.0886949 0.0230843)
(1.40898 0.102928 0.00736695)
(1.31375 0.202984 -0.00948962)
(1.19239 0.233084 -0.0101748)
(1.13018 0.251638 -0.000440526)
(1.08385 0.233088 0.0065974)
(1.00107 0.222541 0.00496542)
(0.940701 0.0972854 0.00177143)
(0.942006 0.0268933 0.00099381)
(0.929463 0.0359378 0.0010869)
(0.941797 0.0403399 0.00146372)
(0.965013 0.0602589 0.000902164)
(1.03291 -0.165666 0.0165601)
(1.09669 -0.227867 -0.0134524)
(1.36555 -0.373709 -0.00244199)
(1.55231 -0.394096 0.0319856)
(1.66493 -0.151655 -0.0589961)
(1.66673 -0.0618755 -0.0218591)
(1.58414 -0.0187806 -0.0127082)
(1.60856 0.204976 -0.00930647)
(1.50433 0.11237 0.00962304)
(1.58784 0.117986 0.0128251)
(1.52139 0.179152 0.00234248)
(1.46022 0.209023 -0.00637544)
(1.38105 0.195813 -0.00869964)
(1.29931 0.156628 -0.00257855)
(1.24381 0.155962 0.00873826)
(1.26028 0.123557 0.0179982)
(1.18461 0.0665093 0.0168764)
(1.12836 0.00533843 0.00842951)