/*--------------------------------*- C++ -*----------------------------------*\
  =========                 |
  \\      /  F ield         | OpenFOAM: The Open Source CFD Toolbox
   \\    /   O peration     | Website:  https://openfoam.org
    \\  /    A nd           | Version:  8
     \\/     M anipulation  |
\*---------------------------------------------------------------------------*/
FoamFile
{
    version     2.0;
    format      ascii;
    class       volScalarField;
    location    "47";
    object      p;
}
// * * * * * * * * * * * * * * * * * * * * * * * * * * * * * * * * * * * * * //

dimensions      [0 2 -2 0 0 0 0];

internalField   nonuniform List<scalar> 
12504
(
0.324634
0.32156
0.315096
0.305227
0.29222
0.27642
0.258207
0.238008
0.216303
0.193596
0.170384
0.147124
0.124212
0.101967
0.0806316
0.0603765
0.0413152
0.0235165
0.00701777
-0.00816745
-0.0220412
-0.0346169
-0.0459135
-0.0559548
-0.0647647
-0.0723698
-0.078795
-0.0840684
-0.088216
-0.0912698
-0.0932599
-0.0942266
-0.094206
-0.093254
-0.0914174
-0.0887644
-0.0853489
-0.081256
-0.0765395
-0.0713006
-0.0655798
-0.0594962
-0.0530575
-0.046411
-0.0395014
-0.0325338
-0.0253391
-0.0182476
-0.010884
-0.00384696
0.326845
0.323706
0.317097
0.307011
0.293725
0.277602
0.259034
0.23847
0.21641
0.193379
0.169888
0.146405
0.123328
0.100974
0.0795749
0.0592924
0.0402298
0.0224479
0.00597742
-0.00917275
-0.0230083
-0.0355452
-0.0468041
-0.0568096
-0.0655862
-0.0731604
-0.079557
-0.0848033
-0.0889248
-0.0919527
-0.0939163
-0.0948552
-0.0948041
-0.0938195
-0.0919473
-0.0892561
-0.0857995
-0.0816638
-0.0769029
-0.0716196
-0.0658545
-0.0597289
-0.0532499
-0.0465678
-0.0396248
-0.0326301
-0.0254087
-0.0182983
-0.0109111
-0.00386046
0.331325
0.328046
0.321143
0.310614
0.296761
0.279975
0.260683
0.239374
0.216591
0.192899
0.168844
0.144913
0.12151
0.0989414
0.0774222
0.0570913
0.0380318
0.0202879
0.00387783
-0.0111993
-0.0249563
-0.037414
-0.0485964
-0.0585297
-0.0672393
-0.0747516
-0.0810906
-0.0862829
-0.0903524
-0.0933286
-0.0952391
-0.0961217
-0.0960103
-0.09496
-0.0930161
-0.0902474
-0.0867077
-0.0824849
-0.077634
-0.0722601
-0.0664055
-0.060194
-0.0536344
-0.0468786
-0.03987
-0.0328179
-0.0255474
-0.0183939
-0.0109681
-0.00387989
0.338171
0.334675
0.327318
0.316104
0.301371
0.283555
0.263139
0.240673
0.216771
0.192063
0.167146
0.142541
0.118656
0.0957802
0.0740975
0.0537106
0.0346701
0.0169951
0.000684835
-0.0142757
-0.0279096
-0.0402449
-0.0513099
-0.0611334
-0.0697415
-0.0771606
-0.0834136
-0.0885253
-0.092517
-0.0954162
-0.0972472
-0.0980456
-0.0978431
-0.0966933
-0.0946402
-0.091753
-0.0880861
-0.0837296
-0.0787403
-0.0732269
-0.0672345
-0.0608908
-0.0542072
-0.0473386
-0.0402301
-0.0330913
-0.0257477
-0.0185305
-0.01105
-0.00390652
0.347541
0.343742
0.335752
0.323586
0.307625
0.288369
0.266379
0.242296
0.216832
0.190716
0.164621
0.139113
0.114602
0.0913476
0.0694817
0.0490523
0.0300645
0.0125034
-0.00365652
-0.0184483
-0.0319084
-0.0440738
-0.0549778
-0.0646519
-0.0731232
-0.0804176
-0.0865561
-0.0915609
-0.0954501
-0.0982473
-0.0999729
-0.100659
-0.100334
-0.0990495
-0.0968476
-0.0937982
-0.0899562
-0.0854152
-0.0802344
-0.074528
-0.0683447
-0.0618182
-0.0549633
-0.0479398
-0.0406948
-0.0334393
-0.0259987
-0.0186995
-0.0111504
-0.00393941
0.359651
0.355454
0.346631
0.333206
0.315618
0.29445
0.270363
0.244127
0.216594
0.188628
0.161013
0.134372
0.109114
0.0854424
0.0634079
0.0429804
0.0241039
0.00672116
-0.00922264
-0.0237824
-0.0370099
-0.0489522
-0.0596478
-0.069131
-0.077429
-0.0845669
-0.0905628
-0.0954355
-0.0991981
-0.101869
-0.103464
-0.10401
-0.10353
-0.102074
-0.0996797
-0.09642
-0.0923499
-0.0875674
-0.0821353
-0.0761753
-0.0697408
-0.0629743
-0.0558949
-0.0486699
-0.0412485
-0.0338451
-0.0262837
-0.0188874
-0.0112596
-0.00397615
0.37479
0.370083
0.360197
0.345158
0.325477
0.301836
0.27503
0.245999
0.215792
0.185465
0.155956
0.127962
0.101871
0.0777925
0.0556548
0.035316
0.0166423
-0.000472282
-0.0161153
-0.0303658
-0.0432923
-0.0549517
-0.0653873
-0.0746352
-0.0827223
-0.0896718
-0.0954979
-0.100214
-0.103828
-0.10635
-0.107789
-0.108167
-0.107499
-0.10583
-0.103196
-0.0996716
-0.0953124
-0.0902227
-0.0844696
-0.0781852
-0.0714291
-0.064356
-0.0569904
-0.0495108
-0.041868
-0.0342839
-0.026578
-0.019074
-0.0113629
-0.00401291
0.393325
0.387979
0.376762
0.359692
0.337361
0.31057
0.280281
0.247665
0.214044
0.180748
0.148933
0.119385
0.0924375
0.0680421
0.0459371
0.0258292
0.00749165
-0.00923351
-0.0244675
-0.0383149
-0.0508608
-0.06217
-0.072289
-0.0812543
-0.0890916
-0.0958211
-0.101451
-0.105989
-0.109433
-0.111785
-0.113045
-0.113225
-0.112334
-0.110407
-0.107479
-0.103627
-0.0989066
-0.0934313
-0.0872736
-0.0805799
-0.0734177
-0.0659585
-0.058233
-0.0504367
-0.0425206
-0.0347205
-0.0268464
-0.0192301
-0.0114392
-0.00404384
0.415714
0.409578
0.39672
0.377123
0.351472
0.320695
0.285963
0.248762
0.210789
0.17378
0.139206
0.107956
0.0802381
0.0557335
0.0338959
0.014232
-0.00358608
-0.0197631
-0.0344522
-0.0477834
-0.0598558
-0.0707388
-0.0804784
-0.0891104
-0.0966576
-0.103136
-0.108545
-0.112885
-0.11614
-0.118304
-0.11936
-0.119315
-0.118162
-0.115926
-0.11264
-0.108384
-0.103216
-0.0972596
-0.0905954
-0.0833883
-0.0757163
-0.067774
-0.0595994
-0.0514121
-0.0431617
-0.0351068
-0.0270405
-0.0193149
-0.0114584
-0.00405978
0.442523
0.43542
0.420563
0.397846
0.368064
0.332248
0.291843
0.248754
0.205209
0.163552
0.12572
0.0927165
0.0644972
0.0402794
0.0190847
0.000168636
-0.016886
-0.0323123
-0.0462893
-0.0589695
-0.0704604
-0.0808295
-0.0901188
-0.0983611
-0.105575
-0.111769
-0.116935
-0.121059
-0.124111
-0.126068
-0.1269
-0.126603
-0.125143
-0.122536
-0.118817
-0.114066
-0.108345
-0.101789
-0.0944929
-0.0866441
-0.0783352
-0.0697907
-0.0610586
-0.0523907
-0.043734
-0.0353802
-0.0270983
-0.0192748
-0.0113818
-0.00404677
0.474438
0.466167
0.448905
0.422362
0.387457
0.345245
0.297545
0.246823
0.196079
0.148589
0.106971
0.0723395
0.0441748
0.0209181
0.000939938
-0.0168005
-0.0327667
-0.0471836
-0.0602434
-0.0721121
-0.0828938
-0.0926449
-0.101399
-0.109185
-0.116015
-0.12189
-0.126788
-0.130679
-0.133514
-0.135248
-0.135835
-0.135271
-0.133447
-0.130398
-0.126157
-0.120803
-0.114402
-0.107107
-0.0990271
-0.0903813
-0.0812826
-0.0719924
-0.0625734
-0.0533182
-0.0441716
-0.0354683
-0.0269484
-0.0190458
-0.0111636
-0.00398445
0.51228
0.502625
0.482507
0.451306
0.410067
0.359672
0.302479
0.24166
0.181464
0.126669
0.0808273
0.0450548
0.0179575
-0.00328814
-0.0212306
-0.037208
-0.0516434
-0.0647072
-0.0765885
-0.0874467
-0.0973599
-0.10636
-0.114469
-0.121711
-0.128091
-0.1336
-0.138198
-0.141839
-0.144448
-0.14595
-0.146237
-0.14541
-0.143177
-0.139617
-0.134762
-0.128688
-0.121467
-0.113273
-0.10424
-0.094621
-0.0845594
-0.0743598
-0.0641084
-0.0541437
-0.0444146
-0.0353036
-0.0265251
-0.0185647
-0.0107595
-0.00384603
0.557017
0.545767
0.522303
0.485501
0.436451
0.375494
0.305772
0.231205
0.158181
0.0941853
0.044078
0.00852264
-0.0156449
-0.0332928
-0.048112
-0.0615666
-0.0738765
-0.0851199
-0.0954732
-0.105055
-0.113882
-0.121947
-0.129259
-0.135834
-0.141672
-0.146748
-0.151005
-0.154373
-0.156755
-0.158064
-0.158233
-0.156903
-0.154209
-0.1501
-0.14456
-0.137663
-0.129497
-0.120257
-0.110109
-0.0993445
-0.0881494
-0.0768754
-0.0656454
-0.0548445
-0.0444395
-0.0348559
-0.0257997
-0.0177954
-0.0101445
-0.00360263
0.609753
0.596749
0.569431
0.526026
0.46733
0.392649
0.306146
0.212387
0.121252
0.0451902
-0.00853521
-0.0406482
-0.0582532
-0.0697385
-0.0799605
-0.0899335
-0.0993587
-0.108186
-0.116561
-0.124508
-0.131948
-0.138824
-0.145132
-0.15088
-0.156057
-0.16062
-0.164493
-0.167568
-0.169736
-0.170829
-0.170711
-0.169087
-0.165991
-0.161349
-0.155119
-0.147369
-0.138204
-0.127837
-0.116475
-0.104449
-0.0919994
-0.0795249
-0.0672025
-0.0554579
-0.044298
-0.0341754
-0.0248214
-0.0167658
-0.00933905
-0.00323584
0.671709
0.656927
0.62528
0.574313
0.50357
0.410913
0.301289
0.180059
0.0635462
-0.0288458
-0.0848276
-0.10723
-0.111496
-0.112479
-0.115828
-0.120962
-0.126565
-0.132337
-0.138273
-0.144208
-0.149935
-0.155357
-0.160458
-0.165232
-0.169654
-0.173659
-0.177142
-0.179958
-0.181965
-0.182958
-0.182572
-0.180776
-0.177415
-0.172358
-0.165549
-0.157046
-0.146963
-0.135526
-0.122984
-0.109704
-0.0959896
-0.0822836
-0.0688327
-0.0560926
-0.044136
-0.033419
-0.023743
-0.0155956
-0.0084266
-0.00275528
0.744173
0.727826
0.691636
0.632353
0.546301
0.429645
0.286401
0.123201
-0.0257807
-0.137031
-0.191296
-0.194088
-0.1749
-0.159098
-0.152122
-0.150436
-0.151209
-0.153561
-0.156952
-0.160826
-0.164822
-0.168802
-0.172729
-0.176582
-0.180311
-0.183832
-0.187017
-0.189691
-0.191609
-0.192522
-0.19222
-0.190481
-0.187067
-0.181822
-0.174677
-0.165668
-0.154907
-0.142627
-0.129108
-0.114749
-0.0999161
-0.0850865
-0.0705866
-0.0568892
-0.0441539
-0.032817
-0.0227905
-0.0144786
-0.0075384
-0.00220518
0.828381
0.811042
0.770936
0.703154
0.597845
0.447989
0.252961
0.0222582
-0.168906
-0.287279
-0.323308
-0.291805
-0.239208
-0.20149
-0.181455
-0.171706
-0.167678
-0.167281
-0.168918
-0.171462
-0.174353
-0.177401
-0.18055
-0.183775
-0.187029
-0.190226
-0.193226
-0.195841
-0.1978
-0.198866
-0.198763
-0.197207
-0.193933
-0.188746
-0.181549
-0.172349
-0.161246
-0.148463
-0.134305
-0.119183
-0.103518
-0.0878092
-0.0724589
-0.0579453
-0.0445204
-0.0325859
-0.0221846
-0.0136199
-0.00680752
-0.00165156
0.925148
0.907994
0.866388
0.791446
0.664129
0.468113
0.187286
-0.137493
-0.323381
-0.432387
-0.432084
-0.362736
-0.279682
-0.226011
-0.198527
-0.184086
-0.177368
-0.175366
-0.175808
-0.17737
-0.179478
-0.18191
-0.184571
-0.187412
-0.190376
-0.193371
-0.196258
-0.198845
-0.20089
-0.202118
-0.202227
-0.200877
-0.197834
-0.192846
-0.185799
-0.176668
-0.165533
-0.152599
-0.138174
-0.122668
-0.106535
-0.0902828
-0.0743692
-0.0592686
-0.0453103
-0.0328575
-0.0220754
-0.0131773
-0.00633438
-0.00116449
1.03415
1.01941
0.981334
0.903803
0.757586
0.50286
0.167807
-0.226418
-0.516601
-0.599894
-0.559212
-0.420715
-0.304713
-0.239699
-0.199936
-0.185022
-0.178973
-0.17757
-0.178311
-0.179938
-0.181966
-0.184224
-0.186659
-0.18925
-0.191962
-0.194723
-0.197411
-0.199851
-0.201811
-0.203009
-0.203142
-0.201945
-0.199099
-0.194294
-0.187472
-0.178564
-0.167625
-0.154834
-0.140483
-0.124969
-0.108751
-0.0923313
-0.0761911
-0.060793
-0.0465109
-0.0336747
-0.0225344
-0.0132479
-0.00618658
-0.000806619
1.15301
1.14443
1.11711
1.0481
0.895911
0.611504
0.17886
-0.273986
-0.607313
-0.314828
-0.241334
-0.204872
-0.185824
-0.180621
-0.179363
-0.180094
-0.181626
-0.183498
-0.185556
-0.18775
-0.190064
-0.192471
-0.194911
-0.197275
-0.199406
-0.201091
-0.202074
-0.202074
-0.200813
-0.198135
-0.193368
-0.186765
-0.178158
-0.167569
-0.155149
-0.141166
-0.125987
-0.110053
-0.093841
-0.0778263
-0.0624473
-0.0480833
-0.0350364
-0.0235893
-0.0138886
-0.0064144
-0.000627931
1.27675
1.27907
1.27046
1.23159
1.08388
0.772263
0.287077
-0.235329
-0.202519
-0.186876
-0.180062
-0.179426
-0.180369
-0.181977
-0.183847
-0.185833
-0.187882
-0.189974
-0.192085
-0.194164
-0.196123
-0.197826
-0.199086
-0.199681
-0.199356
-0.19783
-0.19475
-0.190342
-0.183972
-0.175703
-0.16557
-0.1537
-0.140329
-0.125785
-0.110468
-0.094814
-0.0792621
-0.0642116
-0.0500125
-0.0369363
-0.0252523
-0.0151321
-0.00707866
-0.000637402
1.39784
1.41416
1.43592
1.44217
1.32418
1.01963
-0.199252
-0.18305
-0.177363
-0.177649
-0.179093
-0.18104
-0.183125
-0.185206
-0.187227
-0.18917
-0.191013
-0.192719
-0.194217
-0.195399
-0.196114
-0.19618
-0.195386
-0.193503
-0.190313
-0.185771
-0.179508
-0.171576
-0.161969
-0.150789
-0.13823
-0.124572
-0.110158
-0.0953653
-0.0805729
-0.066123
-0.0523119
-0.0393701
-0.0275297
-0.0170022
-0.00828215
-0.000694317
1.50488
1.5373
1.59402
1.65538
1.58865
1.35446
-0.176678
-0.173209
-0.174598
-0.176826
-0.179339
-0.181806
-0.184101
-0.186175
-0.188011
-0.189598
-0.190908
-0.191894
-0.192476
-0.192546
-0.191966
-0.190577
-0.188212
-0.184714
-0.179993
-0.173822
-0.166229
-0.157201
-0.146815
-0.135226
-0.122654
-0.109373
-0.0956834
-0.0818861
-0.0682506
-0.0550051
-0.0423305
-0.0304275
-0.0195235
-0.00980412
-0.0013326
1.58569
1.63218
1.72151
1.83651
1.84007
1.72405
-0.17284
-0.168893
-0.17151
-0.174609
-0.177737
-0.180613
-0.183134
-0.185258
-0.186973
-0.188272
-0.189141
-0.189553
-0.189459
-0.188792
-0.187466
-0.185379
-0.182425
-0.178494
-0.173467
-0.167418
-0.160168
-0.151752
-0.142234
-0.131725
-0.120383
-0.108399
-0.0959828
-0.083343
-0.0706671
-0.0581106
-0.0458024
-0.033919
-0.0226346
-0.0117808
-0.0019568
1.62919
1.68394
1.79286
1.93922
2.01669
-0.160826
-0.166571
-0.16995
-0.173612
-0.177145
-0.180279
-0.18291
-0.18499
-0.186502
-0.18744
-0.187797
-0.187563
-0.186718
-0.185237
-0.183085
-0.180222
-0.176603
-0.172181
-0.166906
-0.160844
-0.153905
-0.146108
-0.137495
-0.128131
-0.1181
-0.107506
-0.0964566
-0.0850618
-0.0734219
-0.0616209
-0.0497362
-0.0379093
-0.0262226
-0.0142172
-0.00274125
1.62894
1.68367
1.79256
1.93884
2.05269
-0.158301
-0.167458
-0.170866
-0.174576
-0.178142
-0.181261
-0.183798
-0.185679
-0.186867
-0.18735
-0.187114
-0.186163
-0.184505
-0.182155
-0.179126
-0.175439
-0.171113
-0.16617
-0.160617
-0.154524
-0.147877
-0.140692
-0.132986
-0.124776
-0.116075
-0.106891
-0.0972294
-0.0870974
-0.0765068
-0.0654707
-0.0540119
-0.0422175
-0.0300911
-0.0170349
-0.00371033
1.58494
1.63139
1.72061
1.83542
1.94188
-0.164746
-0.171551
-0.174261
-0.17751
-0.180737
-0.183566
-0.185806
-0.187338
-0.18809
-0.188016
-0.187111
-0.185396
-0.182891
-0.179652
-0.175735
-0.171218
-0.166182
-0.160709
-0.154881
-0.148766
-0.142399
-0.135803
-0.128973
-0.121879
-0.114461
-0.106639
-0.0983179
-0.0894043
-0.0798197
-0.0695046
-0.0584223
-0.0465955
-0.0339805
-0.0200508
-0.00479649
1.50366
1.53602
1.59258
1.65366
1.71099
1.6441
-0.17704
-0.177592
-0.179181
-0.181671
-0.184346
-0.186727
-0.188546
-0.189631
-0.189873
-0.189209
-0.187622
-0.185119
-0.181763
-0.177661
-0.172889
-0.167585
-0.161883
-0.155933
-0.149848
-0.143728
-0.137638
-0.131598
-0.125583
-0.119519
-0.113282
-0.106709
-0.099618
-0.091819
-0.0831473
-0.0734701
-0.062691
-0.0507868
-0.0376035
-0.0230086
-0.00586172
1.3962
1.41244
1.43401
1.43993
1.4457
1.28468
-0.185617
-0.183364
-0.184018
-0.185856
-0.188028
-0.189979
-0.191382
-0.192021
-0.191757
-0.19051
-0.188257
-0.185026
-0.180903
-0.17598
-0.170436
-0.16444
-0.158178
-0.15181
-0.145527
-0.139438
-0.133624
-0.128099
-0.122818
-0.117661
-0.112455
-0.106965
-0.100933
-0.0940879
-0.0861913
-0.0770519
-0.0665109
-0.0544798
-0.040675
-0.0257145
-0.00674216
1.27475
1.27698
1.26818
1.22897
1.1899
0.877101
0.539153
-0.203991
-0.1928
-0.187505
-0.187447
-0.188937
-0.190831
-0.19251
-0.19361
-0.193889
-0.193194
-0.19144
-0.188606
-0.184735
-0.179928
-0.174336
-0.16815
-0.161591
-0.154887
-0.148242
-0.141839
-0.135828
-0.130298
-0.125243
-0.120596
-0.116201
-0.11184
-0.107221
-0.102032
-0.0959377
-0.0886446
-0.0799123
-0.0695028
-0.0573857
-0.0431235
-0.0274628
-0.0079089
1.15069
1.14203
1.11452
1.0452
0.892507
0.671682
0.184483
-0.211263
-0.247753
-0.213497
-0.193663
-0.189213
-0.18877
-0.190194
-0.192058
-0.193664
-0.194617
-0.194669
-0.193662
-0.191519
-0.188231
-0.183862
-0.178549
-0.172437
-0.165787
-0.158844
-0.151859
-0.145066
-0.138666
-0.132808
-0.12756
-0.12292
-0.118798
-0.115
-0.11128
-0.107298
-0.102708
-0.0971328
-0.0902379
-0.0817659
-0.0714066
-0.0592209
-0.0445885
-0.0285998
-0.00870658
1.03158
1.01676
0.978521
0.90071
0.75406
0.498721
0.160624
-0.320027
-0.55768
-0.447883
-0.317958
-0.253906
-0.207774
-0.193419
-0.188354
-0.187944
-0.189461
-0.191408
-0.193045
-0.193959
-0.193892
-0.192695
-0.1903
-0.186717
-0.182052
-0.176407
-0.170007
-0.163119
-0.156007
-0.148941
-0.142163
-0.135881
-0.130232
-0.125284
-0.121003
-0.117288
-0.113913
-0.110615
-0.10702
-0.102775
-0.0974771
-0.0907796
-0.0824228
-0.0720504
-0.0598221
-0.045009
-0.0288947
-0.00915561
0.922377
0.905159
0.863406
0.788228
0.660554
0.464045
0.182551
-0.143119
-0.426029
-0.554239
-0.512745
-0.401906
-0.287843
-0.233921
-0.206545
-0.192791
-0.187135
-0.186153
-0.187316
-0.189066
-0.190576
-0.191384
-0.19121
-0.189894
-0.187372
-0.183689
-0.178896
-0.17318
-0.166755
-0.159893
-0.152863
-0.14594
-0.139359
-0.133324
-0.127949
-0.123298
-0.119307
-0.115869
-0.112731
-0.109635
-0.106185
-0.102044
-0.0967992
-0.090119
-0.0817571
-0.0713599
-0.0591322
-0.0443942
-0.0283424
-0.00925926
0.825455
0.808061
0.767833
0.699854
0.594262
0.444019
0.248497
0.0171517
-0.174714
-0.293804
-0.330439
-0.299307
-0.246833
-0.209125
-0.189337
-0.180243
-0.177132
-0.177583
-0.17973
-0.182217
-0.184248
-0.185414
-0.185497
-0.184387
-0.182055
-0.17852
-0.173916
-0.168459
-0.162318
-0.15579
-0.14912
-0.14258
-0.136382
-0.130717
-0.125673
-0.121305
-0.117525
-0.114231
-0.111152
-0.10805
-0.104527
-0.100284
-0.0949122
-0.0881298
-0.0796926
-0.069325
-0.0571779
-0.0428076
-0.0270633
-0.00906793
0.741131
0.724737
0.688448
0.629005
0.54273
0.425777
0.282164
0.118518
-0.0309609
-0.142746
-0.197505
-0.200659
-0.181677
-0.166024
-0.159332
-0.158157
-0.159574
-0.16247
-0.166071
-0.169606
-0.172503
-0.174435
-0.175228
-0.174798
-0.173131
-0.170283
-0.166397
-0.161696
-0.156222
-0.150391
-0.144386
-0.138472
-0.132835
-0.12765
-0.122978
-0.118871
-0.115227
-0.111955
-0.108784
-0.105513
-0.101757
-0.0972752
-0.0916714
-0.0847481
-0.0762357
-0.0660144
-0.054082
-0.0403651
-0.0252201
-0.00865109
0.668582
0.653762
0.622036
0.570941
0.500024
0.407141
0.297243
0.175692
0.058819
-0.0339527
-0.0902896
-0.112974
-0.117434
-0.118574
-0.122125
-0.12755
-0.133479
-0.139455
-0.145284
-0.150613
-0.155067
-0.158397
-0.160477
-0.161264
-0.160772
-0.159076
-0.156297
-0.152605
-0.148351
-0.143574
-0.13848
-0.13339
-0.128442
-0.123802
-0.119515
-0.11564
-0.112069
-0.10873
-0.105367
-0.10183
-0.0977578
-0.0929858
-0.0871288
-0.0801026
-0.0715863
-0.0616589
-0.0501144
-0.0372785
-0.0230099
-0.00807221
0.606569
0.593535
0.566153
0.522647
0.463817
0.388965
0.302259
0.208268
0.11688
0.04056
-0.013404
-0.0457113
-0.0634556
-0.0750379
-0.0853462
-0.0954113
-0.104896
-0.113643
-0.121653
-0.128807
-0.134893
-0.139743
-0.143271
-0.145466
-0.146361
-0.146038
-0.144614
-0.142262
-0.139184
-0.135531
-0.131568
-0.127429
-0.123237
-0.119169
-0.115246
-0.111569
-0.108031
-0.104581
-0.100991
-0.0971628
-0.0927703
-0.0877304
-0.0816698
-0.0746221
-0.066211
-0.0567048
-0.0457093
-0.0338789
-0.0206743
-0.0073988
0.553797
0.542523
0.51901
0.48213
0.432977
0.371893
0.302023
0.227292
0.154097
0.0899341
0.0396784
0.00401003
-0.0202244
-0.0378913
-0.0526889
-0.0660804
-0.0782531
-0.0892099
-0.0990231
-0.107704
-0.115173
-0.12134
-0.126162
-0.129647
-0.131838
-0.132817
-0.132689
-0.131602
-0.129716
-0.1272
-0.124223
-0.120938
-0.117503
-0.114042
-0.110448
-0.106947
-0.10343
-0.0998735
-0.0960778
-0.0919955
-0.0873383
-0.0820978
-0.0759175
-0.0689314
-0.0607258
-0.05171
-0.0413603
-0.0305401
-0.0184564
-0.0067064
0.509041
0.499368
0.479211
0.447952
0.406636
0.356149
0.298853
0.237924
0.177619
0.122726
0.0768085
0.0409947
0.0139011
-0.00728852
-0.0251181
-0.0409151
-0.055074
-0.0677108
-0.078941
-0.0888466
-0.0974351
-0.104683
-0.11058
-0.11515
-0.118441
-0.120532
-0.121518
-0.121524
-0.120687
-0.119152
-0.117054
-0.114537
-0.1117
-0.108635
-0.105504
-0.102197
-0.0987175
-0.0950892
-0.0911441
-0.0868776
-0.0820383
-0.0766764
-0.0704614
-0.0635963
-0.0556593
-0.047139
-0.0374515
-0.0275511
-0.0165259
-0.00606066
0.471192
0.462908
0.445618
0.419032
0.384073
0.341797
0.294029
0.243241
0.192437
0.144904
0.103269
0.0686572
0.0405584
0.017424
-0.00236568
-0.019837
-0.0354283
-0.0493242
-0.0616647
-0.0725607
-0.0820666
-0.0902021
-0.0969831
-0.102446
-0.106643
-0.10965
-0.111554
-0.112465
-0.112498
-0.11178
-0.110425
-0.108558
-0.106265
-0.103653
-0.100776
-0.0976576
-0.0942511
-0.0905978
-0.086569
-0.0821932
-0.0772547
-0.0718431
-0.0656606
-0.058949
-0.0513033
-0.0432395
-0.0341689
-0.0250497
-0.014948
-0.00550167
0.439281
0.432168
0.417292
0.394546
0.364728
0.328872
0.288428
0.245307
0.201742
0.160087
0.122286
0.0893531
0.0612532
0.0372144
0.0162701
-0.0023089
-0.0189181
-0.0337601
-0.0469767
-0.0586811
-0.0689471
-0.077819
-0.0853315
-0.0915302
-0.0964715
-0.100229
-0.102883
-0.104533
-0.105278
-0.105232
-0.104491
-0.103168
-0.101338
-0.0990926
-0.0964714
-0.093526
-0.0902134
-0.0865819
-0.0825309
-0.0781116
-0.0731423
-0.0677358
-0.0616311
-0.0550846
-0.0477241
-0.0400586
-0.0315281
-0.0230444
-0.0137081
-0.0050431
0.412483
0.40634
0.393469
0.373854
0.348183
0.317386
0.28264
0.245435
0.207475
0.170504
0.136001
0.104863
0.0773102
0.0530323
0.0314955
0.0122211
-0.00510016
-0.0206497
-0.0345537
-0.0469148
-0.0578099
-0.0672951
-0.0754165
-0.0822261
-0.0877823
-0.092157
-0.0954265
-0.0976815
-0.0990106
-0.0995152
-0.0992821
-0.0984102
-0.0969672
-0.0950377
-0.0926534
-0.0898727
-0.0866685
-0.0830931
-0.0790659
-0.0746513
-0.0696999
-0.0643358
-0.0583344
-0.0519517
-0.0448544
-0.0375265
-0.0294514
-0.0214744
-0.0127531
-0.00468041
0.390108
0.384759
0.373535
0.356457
0.334118
0.307324
0.27704
0.244444
0.210863
0.177635
0.145923
0.116523
0.0897779
0.0656483
0.0438848
0.0242073
0.00640441
-0.00966345
-0.024098
-0.0369853
-0.0483965
-0.0583904
-0.0670186
-0.0743361
-0.0804024
-0.0852871
-0.0890634
-0.0918152
-0.0936242
-0.0945822
-0.0947683
-0.0942721
-0.0931555
-0.0914967
-0.0893255
-0.0867033
-0.0836143
-0.0801137
-0.0761381
-0.0717596
-0.0668563
-0.0615566
-0.055669
-0.0494413
-0.0425784
-0.0355329
-0.0278336
-0.0202576
-0.0120226
-0.00439999
0.37159
0.366883
0.356995
0.341956
0.322278
0.298647
0.271864
0.242872
0.212726
0.182491
0.153113
0.125296
0.099437
0.0756569
0.0538931
0.0340163
0.0159055
-0.0005311
-0.015367
-0.028669
-0.040498
-0.05091
-0.0599571
-0.067695
-0.0741829
-0.0794884
-0.0836815
-0.0868413
-0.0890442
-0.090375
-0.0909068
-0.0907223
-0.0898797
-0.0884518
-0.0864696
-0.0839942
-0.0810182
-0.0775999
-0.0736904
-0.0693657
-0.0645265
-0.0593017
-0.0535276
-0.0474416
-0.0407819
-0.0339708
-0.0265773
-0.0193183
-0.011464
-0.00418592
0.356469
0.352273
0.343453
0.330035
0.312459
0.291313
0.267261
0.24108
0.213626
0.185772
0.15831
0.13187
0.106869
0.0835206
0.0618858
0.0419447
0.023652
0.00696151
-0.00817166
-0.0217947
-0.0339564
-0.0447065
-0.0540952
-0.0621769
-0.0690095
-0.0746587
-0.0791919
-0.0826842
-0.085208
-0.0868427
-0.0876574
-0.0877293
-0.087114
-0.0858808
-0.0840615
-0.0817167
-0.0788462
-0.0755098
-0.0716707
-0.0674069
-0.0626367
-0.0574881
-0.0518201
-0.0458595
-0.0393717
-0.0327528
-0.0256048
-0.0185953
-0.0110367
-0.00402379
0.344375
0.340579
0.332596
0.320442
0.304501
0.285276
0.263331
0.239316
0.213947
0.187958
0.162033
0.136743
0.11251
0.0895994
0.0681531
0.0482286
0.02984
0.0129809
-0.00236729
-0.0162333
-0.0286538
-0.0396713
-0.0493323
-0.0576893
-0.0647984
-0.0707231
-0.0755288
-0.0792873
-0.0820679
-0.0839463
-0.0849882
-0.0852671
-0.0848366
-0.0837634
-0.0820805
-0.0798477
-0.0770704
-0.0738095
-0.0700377
-0.0658336
-0.0611298
-0.0560524
-0.0504778
-0.0446241
-0.0382776
-0.0318134
-0.0248589
-0.0180439
-0.0107121
-0.00390217
0.335021
0.331529
0.324181
0.312983
0.298276
0.280498
0.260136
0.237748
0.213951
0.189383
0.16465
0.140277
0.116684
0.0941679
0.0729199
0.0530516
0.0346214
0.0176549
0.00215622
-0.0118879
-0.024503
-0.0357248
-0.0455957
-0.0541657
-0.0614893
-0.0676278
-0.0726448
-0.0766098
-0.0795897
-0.0816572
-0.0828759
-0.0833164
-0.083031
-0.0820846
-0.0805111
-0.0783698
-0.0756702
-0.0724741
-0.0687609
-0.0646101
-0.0599644
-0.0549484
-0.0494515
-0.0436847
-0.03745
-0.0311063
-0.0242998
-0.0176322
-0.0104703
-0.00381271
0.328187
0.324913
0.318021
0.307512
0.293688
0.276945
0.257714
0.236489
0.21382
0.190278
0.166415
0.142728
0.119628
0.0974295
0.0763557
0.0565531
0.0381114
0.0210804
0.00548122
-0.00868683
-0.0214406
-0.0328099
-0.0428336
-0.0515593
-0.0590399
-0.0653351
-0.0705069
-0.0746232
-0.0777492
-0.0799555
-0.0813041
-0.0818636
-0.0816856
-0.0808337
-0.0793423
-0.0772706
-0.074631
-0.0714857
-0.0678192
-0.0637113
-0.0591119
-0.0541443
-0.0487072
-0.0430063
-0.0368545
-0.0305994
-0.0239003
-0.0173389
-0.0102985
-0.00374955
0.323715
0.320581
0.313985
0.30392
0.290667
0.27459
0.256088
0.235613
0.213672
0.190796
0.167504
0.144272
0.121505
0.0995281
0.0785816
0.0588335
0.0403936
0.023327
0.00766672
-0.00657935
-0.019422
-0.0308869
-0.0410103
-0.0498379
-0.0574213
-0.0638192
-0.0690927
-0.0733083
-0.0765301
-0.0788275
-0.0802615
-0.0808995
-0.0807924
-0.0800031
-0.0785666
-0.0765418
-0.073943
-0.0708325
-0.0671983
-0.0631203
-0.058553
-0.0536187
-0.0482222
-0.0425654
-0.0364687
-0.0302716
-0.0236429
-0.0171498
-0.0101888
-0.00370793
0.321508
0.31844
0.311989
0.302143
0.289169
0.273418
0.255272
0.235165
0.213581
0.191033
0.168023
0.145017
0.122418
0.100554
0.0796746
0.059957
0.0415205
0.0244384
0.0087494
-0.00553427
-0.0184203
-0.0299321
-0.0401046
-0.0489825
-0.0566168
-0.0630656
-0.0683894
-0.072654
-0.0759234
-0.0782659
-0.0797422
-0.080419
-0.0803473
-0.0795891
-0.0781801
-0.0761787
-0.0736007
-0.0705077
-0.0668903
-0.0628271
-0.0582768
-0.0533587
-0.0479836
-0.0423475
-0.0362802
-0.0301092
-0.0235187
-0.0170543
-0.0101388
-0.00368241
0.324633
0.321563
0.315098
0.305227
0.29222
0.276421
0.258207
0.238008
0.216302
0.193595
0.170383
0.147123
0.124211
0.101966
0.0806311
0.0603762
0.0413149
0.0235163
0.00701763
-0.00816756
-0.0220413
-0.0346169
-0.0459136
-0.0559548
-0.0647648
-0.0723699
-0.0787951
-0.0840685
-0.0882161
-0.0912699
-0.09326
-0.0942267
-0.0942061
-0.0932542
-0.0914174
-0.0887646
-0.0853488
-0.0812561
-0.0765393
-0.0713008
-0.0655794
-0.0594965
-0.0530568
-0.0464117
-0.0395003
-0.0325353
-0.025337
-0.0182505
-0.0108798
-0.00385291
0.326844
0.323709
0.317099
0.307011
0.293725
0.277602
0.259034
0.23847
0.21641
0.193378
0.169887
0.146404
0.123327
0.100973
0.0795744
0.059292
0.0402295
0.0224477
0.00597726
-0.00917288
-0.0230084
-0.0355453
-0.0468042
-0.0568097
-0.0655863
-0.0731606
-0.0795571
-0.0848034
-0.0889249
-0.0919528
-0.0939164
-0.0948553
-0.0948042
-0.0938197
-0.0919474
-0.0892563
-0.0857994
-0.081664
-0.0769027
-0.0716198
-0.0658541
-0.0597293
-0.0532493
-0.0465685
-0.0396237
-0.0326315
-0.0254067
-0.0183011
-0.010907
-0.0038663
0.331324
0.328049
0.321145
0.310615
0.296762
0.279975
0.260683
0.239373
0.21659
0.192898
0.168843
0.144912
0.121509
0.0989407
0.0774217
0.0570909
0.0380315
0.0202877
0.00387767
-0.0111995
-0.0249564
-0.0374141
-0.0485965
-0.0585298
-0.0672394
-0.0747517
-0.0810908
-0.0862831
-0.0903525
-0.0933288
-0.0952392
-0.0961218
-0.0960104
-0.0949602
-0.0930162
-0.0902475
-0.0867077
-0.0824851
-0.0776339
-0.0722603
-0.0664052
-0.0601944
-0.0536337
-0.0468793
-0.0398688
-0.0328193
-0.0255454
-0.0183967
-0.0109641
-0.00388568
0.33817
0.334678
0.32732
0.316105
0.301371
0.283555
0.263138
0.240673
0.21677
0.192061
0.167145
0.14254
0.118655
0.0957795
0.0740971
0.0537103
0.0346699
0.0169949
0.000684677
-0.0142758
-0.0279097
-0.040245
-0.05131
-0.0611335
-0.0697416
-0.0771608
-0.0834137
-0.0885254
-0.0925172
-0.0954163
-0.0972473
-0.0980458
-0.0978432
-0.0966935
-0.0946402
-0.0917532
-0.0880861
-0.0837298
-0.0787401
-0.0732271
-0.0672341
-0.0608911
-0.0542065
-0.0473392
-0.0402289
-0.0330926
-0.0257457
-0.0185333
-0.011046
-0.00391227
0.347539
0.343745
0.335755
0.323586
0.307625
0.288369
0.266378
0.242294
0.21683
0.190714
0.164619
0.139111
0.114601
0.091347
0.0694814
0.0490521
0.0300643
0.0125032
-0.00365669
-0.0184485
-0.0319086
-0.0440739
-0.0549779
-0.0646521
-0.0731234
-0.0804178
-0.0865562
-0.0915612
-0.0954503
-0.0982475
-0.0999731
-0.100659
-0.100334
-0.0990498
-0.0968476
-0.0937984
-0.0899562
-0.0854154
-0.0802342
-0.0745283
-0.0683443
-0.0618185
-0.0549626
-0.0479404
-0.0406936
-0.0334406
-0.0259966
-0.0187022
-0.0111465
-0.00394512
0.35965
0.355458
0.346634
0.333207
0.315618
0.29445
0.270363
0.244125
0.216591
0.188625
0.161011
0.13437
0.109113
0.0854419
0.0634078
0.0429803
0.0241037
0.00672093
-0.00922284
-0.0237826
-0.0370101
-0.0489524
-0.059648
-0.0691312
-0.0774292
-0.0845671
-0.090563
-0.0954358
-0.0991983
-0.10187
-0.103464
-0.10401
-0.10353
-0.102074
-0.0996798
-0.0964202
-0.0923498
-0.0875677
-0.0821351
-0.0761755
-0.0697404
-0.0629746
-0.0558942
-0.0486705
-0.0412473
-0.0338463
-0.0262816
-0.0188901
-0.0112557
-0.00398184
0.374789
0.370088
0.360201
0.345159
0.325477
0.301836
0.275029
0.245997
0.215788
0.185461
0.155952
0.127959
0.10187
0.0777924
0.055655
0.035316
0.0166421
-0.000472567
-0.0161155
-0.030366
-0.0432925
-0.0549519
-0.0653875
-0.0746354
-0.0827225
-0.089672
-0.0954981
-0.100215
-0.103828
-0.106351
-0.10779
-0.108167
-0.107499
-0.10583
-0.103196
-0.0996719
-0.0953123
-0.0902229
-0.0844693
-0.0781854
-0.0714286
-0.0643563
-0.0569896
-0.0495114
-0.0418667
-0.0342851
-0.0265759
-0.0190768
-0.0113591
-0.00401866
0.393324
0.387985
0.376766
0.359693
0.337361
0.31057
0.280279
0.247662
0.214038
0.180741
0.148927
0.119381
0.0924367
0.0680426
0.0459379
0.0258295
0.00749141
-0.00923384
-0.0244677
-0.0383151
-0.050861
-0.0621703
-0.0722892
-0.0812545
-0.0890918
-0.0958213
-0.101452
-0.10599
-0.109433
-0.111786
-0.113045
-0.113225
-0.112334
-0.110407
-0.107479
-0.103627
-0.0989065
-0.0934315
-0.0872733
-0.0805802
-0.0734171
-0.0659588
-0.0582322
-0.0504373
-0.0425192
-0.0347218
-0.0268442
-0.019233
-0.0114352
-0.00404976
0.415713
0.409584
0.396725
0.377124
0.351473
0.320695
0.28596
0.248756
0.21078
0.173771
0.139199
0.107952
0.0802381
0.0557356
0.0338976
0.0142323
-0.00358645
-0.0197633
-0.0344523
-0.0477835
-0.0598559
-0.0707389
-0.0804784
-0.0891104
-0.0966575
-0.103136
-0.108545
-0.112885
-0.11614
-0.118304
-0.11936
-0.119315
-0.118162
-0.115927
-0.11264
-0.108384
-0.103216
-0.0972598
-0.090595
-0.0833885
-0.0757157
-0.0677744
-0.0595985
-0.0514129
-0.0431603
-0.0351082
-0.0270382
-0.019318
-0.0114543
-0.00406603
0.442521
0.435427
0.42057
0.397848
0.368067
0.332248
0.291838
0.248745
0.205195
0.163538
0.125711
0.0927146
0.064501
0.0402847
0.0190873
0.000168728
-0.0168865
-0.0323123
-0.0462888
-0.0589689
-0.0704599
-0.080829
-0.0901182
-0.0983604
-0.105574
-0.111769
-0.116935
-0.121058
-0.12411
-0.126068
-0.1269
-0.126603
-0.125142
-0.122536
-0.118816
-0.114066
-0.108344
-0.101789
-0.0944925
-0.0866444
-0.0783346
-0.0697913
-0.0610577
-0.0523917