0 	0 	0 	0
1.57135 	0.00242608 	-0.0107893 	0
3.1427 	-0.0392465 	0.03275 	0
4.71405 	-0.0667205 	0.0858693 	0
6.28539 	-0.0425459 	0.084336 	0
7.85674 	-0.00307142 	0.0378874 	0
9.42809 	0.0418137 	-0.0107903 	0
10.9994 	0.0552415 	-0.0449101 	0
12.5708 	0.118681 	-0.107254 	0
14.1421 	0.5 	0 	0
