# Probe 0 (0 1 0)
# Probe 1 (0.1 0.9 0)
# Probe 2 (0.2 0.8 0)
# Probe 3 (0.3 0.7 0)
# Probe 4 (0.4 0.6 0)
# Probe 5 (0.5 0.5 0)
# Probe 6 (0.6 0.4 0)
# Probe 7 (0.7 0.3 0)
# Probe 8 (0.8 0.2 0)
# Probe 9 (0.9 0.1 0)
# Probe 10 (1 0 0)
# Time        0             1             2             3             4             5             6             7             8             9             10           
0             0             0             0             0             0             0             0             0             0             0             0            
0.001         9.50124       5.88234e-05   1.83768e-11   5.97434e-18   2.10023e-24   8.2375e-31    3.60829e-37   1.71267e-43   8.47424e-50   3.97712e-56   2.88332e-63  
0.002         18.5062       0.000348598   1.9894e-10    9.14944e-17   3.93372e-23   1.68865e-29   7.51152e-36   3.51225e-42   1.71677e-48   7.55912e-55   3.8776e-62   
0.003         27.0186       0.00120248    1.162e-09     7.26214e-16   3.70676e-22   1.68377e-28   7.12077e-35   2.89315e-41   1.15882e-47   2.50421e-54   -1.78703e-61 
0.004         35.0432       0.00316429    4.97623e-09   4.28085e-15   2.7475e-21    1.47022e-27   6.89562e-34   2.90003e-40   1.09691e-46   2.21358e-54   -3.04667e-61 
0.005         42.5862       0.00702401    1.72606e-08   2.01943e-14   1.63822e-20   1.05776e-26   5.78718e-33   2.75905e-39   1.14741e-45   -3.04354e-53  2.04279e-59  
0.006         49.6546       0.0138521     5.13298e-08   8.03936e-14   8.18979e-20   6.38418e-26   4.11019e-32   2.26873e-38   1.08414e-44   -1.03394e-52  3.24553e-58  
0.007         56.2568       0.0250269     1.35631e-07   2.80017e-13   3.55034e-19   3.32392e-25   2.51173e-31   1.60496e-37   8.83399e-44   1.70051e-51   3.24529e-57  
0.008         62.402        0.0422554     3.26205e-07   8.75213e-13   1.36871e-18   1.52916e-24   1.34929e-30   9.93161e-37   6.2564e-43    2.87093e-50   2.58485e-56  
0.009         68.1004       0.0675885     7.26452e-07   2.50042e-12   4.78208e-18   6.335e-24     6.49177e-30   5.47392e-36   3.91876e-42   2.65009e-49   1.76894e-55  
0.01          73.3633       0.103428      1.51706e-06   6.62056e-12   1.53623e-17   2.39857e-23   2.83975e-29   2.72897e-35   2.20644e-41   1.85822e-48   1.07772e-54  
0.011         78.2028       0.152546      3.00219e-06   1.6464e-11    4.61525e-17   8.48566e-23   1.16322e-28   1.28059e-34   1.17944e-40   1.54983e-47   5.4567e-54   
0.012         82.6318       0.21804       5.66482e-06   3.8595e-11    1.29407e-16   2.77293e-22   4.34804e-28   5.40049e-34   5.55056e-40   7.5165e-47    2.84212e-53  
0.013         86.6638       0.303351      1.02586e-05   8.60587e-11   3.42968e-16   8.5241e-22    1.52297e-27   2.1269e-33    2.43134e-39   3.29879e-46   1.36162e-52  
0.014         90.3131       0.412253      1.79199e-05   1.83601e-10   8.64721e-16   2.48198e-21   5.03515e-27   7.88276e-33   9.99372e-39   1.3239e-45    6.0604e-52   
0.015         93.5947       0.548819      3.03176e-05   3.76554e-10   2.08475e-15   6.88241e-21   1.58017e-26   2.76549e-32   3.87809e-38   4.87248e-45   2.52347e-51  
0.016         96.524        0.717397      4.98488e-05   7.45429e-10   4.8275e-15    1.82621e-20   4.73112e-26   9.23291e-32   1.42874e-37   1.64817e-44   9.87528e-51  
0.017         99.1172       0.922569      7.98733e-05   1.42866e-09   1.07702e-14   4.65089e-20   1.35527e-25   2.94113e-31   5.00878e-37   5.00097e-44   3.64697e-50  
0.018         101.39        1.16913       0.000125039   2.65934e-09   2.32362e-14   1.14156e-19   3.73153e-25   8.98449e-31   1.68025e-36   1.34727e-43   1.27233e-49  
0.019         103.36        1.46205       0.000191641   4.81965e-09   4.86079e-14   2.7081e-19    9.90417e-25   2.63988e-30   5.41014e-36   3.02906e-43   4.19793e-49  
0.02          105.043       1.80639       0.000288087   8.52304e-09   9.88319e-14   6.22522e-19   2.54091e-24   7.48167e-30   1.67679e-35   4.53524e-43   1.30946e-48  
0.021         106.457       2.20731       0.000425436   1.47348e-08   1.95732e-13   1.38982e-18   6.31598e-24   2.05031e-29   5.01537e-35   -3.41519e-43  3.85368e-48  
0.022         107.619       2.66998       0.000618057   2.49459e-08   3.78286e-13   3.01965e-18   1.52442e-23   5.44528e-29   1.45105e-34   -6.63296e-42  1.06493e-47  
0.023         108.545       3.19954       0.000884382   4.14202e-08   7.14671e-13   6.39648e-18   3.57943e-23   1.40433e-28   4.06919e-34   -3.65214e-41  2.73736e-47  
0.024         109.253       3.80104       0.00124779    6.75409e-08   1.32183e-12   1.32319e-17   8.1907e-23    3.5233e-28    1.10813e-33   -1.54006e-40  6.42124e-47  
0.025         109.76        4.4794        0.00173764    1.08289e-07   2.39675e-12   2.67694e-17   1.82938e-22   8.61338e-28   2.93535e-33   -5.67687e-40  1.3164e-46   
0.026         110.083       5.23936       0.0023904     1.70899e-07   4.26557e-12   5.30362e-17   3.99372e-22   2.05488e-27   7.57494e-33   -1.91616e-39  2.07238e-46  
0.027         110.238       6.08538       0.00325099    2.65737e-07   7.45975e-12   1.03027e-16   8.53304e-22   4.79046e-27   1.90699e-32   -6.05604e-39  9.22915e-47  
0.028         110.241       7.02164       0.00437424    4.07486e-07   1.28323e-11   1.96449e-16   1.78646e-21   1.09265e-26   4.68944e-32   -1.81513e-38  -1.09623e-45 
0.029         110.108       8.05197       0.00582655    6.16692e-07   2.17331e-11   3.68058e-16   3.66876e-21   2.44115e-26   1.12772e-31   -5.20144e-38  -6.5374e-45  
0.03          109.855       9.17979       0.00768767    9.2181e-07    3.62693e-11   6.78187e-16   7.39789e-21   5.34772e-26   2.6549e-31    -1.43309e-37  -2.64485e-44 
0.031         109.496       10.4081       0.0100527     1.36183e-06   5.96896e-11   1.23005e-15   1.46609e-20   1.1498e-25    6.12481e-31   -3.81198e-37  -9.12567e-44 
0.032         109.046       11.7393       0.0130343     1.98969e-06   9.69414e-11   2.19773e-15   2.85785e-20   2.42852e-25   1.38588e-30   -9.82023e-37  -2.86495e-43 
0.033         108.518       13.1753       0.016765      2.87656e-06   1.55474e-10   3.87099e-15   5.48388e-20   5.04299e-25   3.0783e-30    -2.45626e-36  -8.41573e-43 
0.034         107.927       14.7177       0.0213997     4.11733e-06   2.46382e-10   6.72607e-15   1.03662e-19   1.03037e-24   6.71716e-30   -5.97707e-36  -2.34758e-42 
0.035         107.284       16.367        0.0271183     5.83745e-06   3.86017e-10   1.15362e-14   1.93164e-19   2.07282e-24   1.44099e-29   -1.41741e-35  -6.27451e-42 
0.036         106.601       18.1235       0.0341287     8.20146e-06   5.98249e-10   1.95424e-14   3.55045e-19   4.10856e-24   3.04109e-29   -3.28027e-35  -1.61626e-41 
0.037         105.889       19.9866       0.0426698     1.14235e-05   9.17581e-10   3.27147e-14   6.44087e-19   8.02865e-24   6.31768e-29   -7.41741e-35  -4.02893e-41 
0.038         105.159       21.9551       0.0530144     1.57805e-05   1.39345e-09   5.41475e-14   1.15384e-18   1.54766e-23   1.29271e-28   -1.64048e-34  -9.74801e-41 
0.039         104.421       24.0273       0.0654727     2.16275e-05   2.09609e-09   8.86523e-14   2.04226e-18   2.94457e-23   2.6067e-28    -3.55178e-34  -2.2944e-40  
0.04          103.683       26.2004       0.0803953     2.94176e-05   3.12442e-09   1.43638e-13   3.57315e-18   5.53231e-23   5.18261e-28   -7.53364e-34  -5.26267e-40 
0.041         102.953       28.4713       0.0981772     3.97243e-05   4.61672e-09   2.3041e-13    6.18245e-18   1.02692e-22   1.01644e-27   -1.56648e-33  -1.17792e-39 
0.042         102.24        30.8361       0.119261      5.32703e-05   6.76477e-09   3.66059e-13   1.05834e-17   1.88414e-22   1.96734e-27   -3.19477e-33  -2.5755e-39  
0.043         101.55        33.2901       0.144139      7.09597e-05   9.83265e-09   5.76211e-13   1.79316e-17   3.41835e-22   3.75946e-27   -6.39343e-33  -5.50547e-39 
0.044         100.888       35.8281       0.17336       9.39184e-05   1.41814e-08   8.98967e-13   3.00822e-17   6.13521e-22   7.09566e-27   -1.2559e-32   -1.15126e-38 
0.045         100.26        38.4442       0.207529      0.00012354    2.03017e-08   1.39054e-12   4.99869e-17   1.08973e-21   1.32327e-26   -2.42223e-32  -2.35599e-38 
0.046         99.6703       41.132        0.247314      0.000161543   2.88556e-08   2.13328e-12   8.23042e-17   1.91633e-21   2.43933e-26   -4.58775e-32  -4.71924e-38 
0.047         99.1228       43.8845       0.293454      0.000210048   4.07374e-08   3.24762e-12   1.34367e-16   3.33904e-21   4.44921e-26   -8.53973e-32  -9.25208e-38 
0.048         98.6202       46.6937       0.346712      0.000271546   5.71022e-08   4.90258e-12   2.17263e-16   5.7557e-21    8.01011e-26   -1.55703e-31  -1.77569e-37 
0.049         98.1651       49.5519       0.407985      0.000349203   7.95349e-08   7.34734e-12   3.48483e-16   9.8349e-21    1.42731e-25   -2.78731e-31  -3.33193e-37 
0.05          97.7592       52.4505       0.478208      0.000446765   1.10094e-07   1.09326e-11   5.54506e-16   1.66588e-20   2.51686e-25   -4.89403e-31  -6.1076e-37  
0.051         97.4037       55.3807       0.558395      0.000568747   1.51478e-07   1.61548e-11   8.75504e-16   2.79782e-20   4.39281e-25   -8.42018e-31  -1.09205e-36 
0.052         97.0991       58.3332       0.649637      0.000720554   2.07206e-07   2.37111e-11   1.37195e-15   4.66017e-20   7.59017e-25   -1.41764e-30  -1.90026e-36 
0.053         96.8454       61.2985       0.7531        0.000908632   2.81838e-07   3.45754e-11   2.13424e-15   7.7001e-20    1.2986e-24    -2.33107e-30  -3.20671e-36 
0.054         96.6422       64.2669       0.870031      0.00114064    3.81257e-07   5.00996e-11   3.29663e-15   1.26242e-19   2.20035e-24   -3.73297e-30  -5.21903e-36 
0.055         96.4885       67.2284       1.00175       0.00142562    5.13016e-07   7.21497e-11   5.05721e-15   2.0541e-19    3.69298e-24   -5.79697e-30  -8.1184e-36  
0.056         96.3829       70.1733       1.14968       0.00177426    6.86764e-07   1.03288e-10   7.70638e-15   3.31772e-19   6.14047e-24   -8.67085e-30  -1.18765e-35 
0.057         96.3237       73.0914       1.31527       0.00219907    9.14774e-07   1.47011e-10   1.16674e-14   5.32045e-19   1.01164e-23   -1.23511e-29  -1.58129e-35 
0.058         96.3087       75.9728       1.50011       0.0027147     1.21259e-06   2.08072e-10   1.75534e-14   8.47291e-19   1.65162e-23   -1.64056e-29  -1.76241e-35 
0.059         96.3354       78.8078       1.7058        0.00333823    1.5998e-06    2.92891e-10   2.62474e-14   1.34021e-18   2.6724e-23    -1.94075e-29  -1.13817e-35 
0.06          96.4013       81.5867       1.93407       0.00408951    2.10101e-06   4.10106e-10   3.90143e-14   2.10594e-18   4.28591e-23   -1.78449e-29  1.64117e-35  
0.061         96.5034       84.3001       2.18667       0.00499147    2.74698e-06   5.71274e-10   5.76561e-14   3.28795e-18   6.81351e-23   -4.09944e-30  9.43229e-35  
0.062         96.6385       86.9388       2.46544       0.00607062    3.57604e-06   7.91795e-10   8.47258e-14   5.10131e-18   1.07378e-22   3.7177e-29    2.79838e-34  
0.063         96.8034       89.4942       2.77227       0.00735743    4.63573e-06   1.09209e-09   1.23823e-13   7.86654e-18   1.67762e-22   1.35391e-28   6.843e-34    
0.064         96.9947       91.958        3.1091        0.00888683    5.98482e-06   1.49913e-09   1.79996e-13   1.20585e-17   2.59848e-22   3.44804e-28   1.51679e-33  
0.065         97.2091       94.3222       3.47792       0.0106988     7.69569e-06   2.04836e-09   2.6029e-13    1.83771e-17   3.99022e-22   7.62579e-28   3.15979e-33  
0.066         97.4429       96.5797       3.88075       0.0128387     9.85717e-06   2.7862e-09    3.74496e-13   2.78478e-17   6.07458e-22   1.55837e-27   6.29712e-33  
0.067         97.6928       98.7236       4.31964       0.0153584     1.25779e-05   3.77316e-09   5.36145e-13   4.19654e-17   9.16764e-22   3.02204e-27   1.21263e-32  
0.068         97.9554       100.748       4.79666       0.0183163     1.59902e-05   5.08783e-09   7.63868e-13   6.28976e-17   1.37148e-21   5.63924e-27   2.27048e-32  
0.069         98.2271       102.647       5.31389       0.0217787     2.02549e-05   6.83187e-09   1.08319e-12   9.37715e-17   2.03357e-21   1.02094e-26   4.15053e-32  
0.07          98.5047       104.416       5.87341       0.0258201     2.55667e-05   9.13632e-09   1.52894e-12   1.39076e-16   2.98816e-21   1.80267e-26   7.4289e-32   
0.071         98.785        106.052       6.47729       0.0305243     3.21606e-05   1.21694e-08   2.14844e-12   2.05222e-16   4.35043e-21   3.11544e-26   1.30458e-31  
0.072         99.0651       107.55        7.12756       0.0359851     4.03194e-05   1.61463e-08   3.00572e-12   3.01324e-16   6.27379e-21   5.28327e-26   2.25107e-31  
0.073         99.3419       108.909       7.82623       0.0423074     5.03822e-05   2.13415e-08   4.18708e-12   4.4028e-16    8.95884e-21   8.80772e-26   3.8208e-31   
0.074         99.6127       110.126       8.57525       0.0496081     6.27549e-05   2.81038e-08   5.80841e-12   6.40259e-16   1.26626e-20   1.44543e-25   6.38418e-31  
0.075         99.8751       111.201       9.37653       0.0580182     7.79242e-05   3.68768e-08   8.0254e-12    9.2685e-16    1.77109e-20   2.33754e-25   1.05047e-30  
0.076         100.127       112.133       10.2318       0.0676785     9.64552e-05   4.82092e-08   1.10416e-11   1.33513e-15   2.4466e-20    3.72798e-25   1.70436e-30  
0.077         100.366       112.923       11.1428       0.0787509     0.000119037   6.28071e-08   1.51327e-11   1.91473e-15   3.33819e-20   5.86656e-25   2.72475e-30  
0.078         100.59        113.573       12.1111       0.0914109     0.000146476   8.15477e-08   2.06602e-11   2.73382e-15   4.49252e-20   9.11323e-25   4.2928e-30   
0.079         100.798       114.084       13.1383       0.105852      0.000179721   1.05528e-07   2.81011e-11   3.88637e-15   5.95341e-20   1.39784e-24   6.66398e-30  
0.08          100.988       114.46        14.2256       0.122287      0.000219891   1.36115e-07   3.80813e-11   5.50121e-15   7.75082e-20   2.1174e-24    1.01891e-29  
0.081         101.159       114.703       15.3742       0.140949      0.000268299   1.75008e-07   5.14204e-11   7.75431e-15   9.88174e-20   3.16747e-24   1.53346e-29  
0.082         101.311       114.819       16.5853       0.162092      0.00032648    2.24311e-07   6.91869e-11   1.0885e-14    1.2279e-19    4.67878e-24   2.26943e-29  
0.083         101.442       114.812       17.8594       0.185993      0.000396225   2.86622e-07   9.27703e-11   1.52175e-14   1.47615e-19   6.82256e-24   3.29809e-29  
0.084         101.552       114.687       19.1975       0.212955      0.000479622   3.65144e-07   1.23971e-10   2.1189e-14    1.69574e-19   9.81671e-24   4.69718e-29  
0.085         101.641       114.451       20.5997       0.243306      0.000579096   4.63807e-07   1.65114e-10   2.93873e-14   1.81887e-19   1.39286e-23   6.5369e-29   
0.086         101.709       114.11        22.0664       0.277399      0.000697454   5.87429e-07   2.19196e-10   4.05987e-14   1.72991e-19   1.94701e-23   8.85048e-29  
0.087         101.756       113.671       23.5975       0.31562       0.000837946   7.41895e-07   2.90062e-10   5.5872e-14    1.24045e-19   2.67791e-23   1.15787e-28  
0.088         101.783       113.142       25.1927       0.358381      0.00100432    9.34376e-07   3.82634e-10   7.65995e-14   5.33355e-21   3.61748e-23   1.4471e-28   
0.089         101.79        112.53        26.8515       0.406126      0.00120088    1.17359e-06   5.03196e-10   1.04624e-13   -2.2882e-19   4.7873e-23    1.69174e-28  
0.09          101.778       111.843       28.5731       0.459334      0.0014326     1.4701e-06    6.59747e-10   1.42372e-13   -6.47184e-19  6.18348e-23   1.76726e-28  
0.091         101.747       111.09        30.3564       0.518515      0.00170513    1.83669e-06   8.62436e-10   1.93032e-13   -1.35148e-18  7.75126e-23   1.44125e-28  
0.092         101.7         110.279       32.2001       0.584215      0.00202497    2.28877e-06   1.12411e-09   2.60774e-13   -2.48991e-18  9.34425e-23   3.04228e-29  
0.093         101.637       109.419       34.1025       0.657017      0.00239952    2.84491e-06   1.46098e-09   3.5103e-13    -4.27543e-18  1.06607e-22   -2.33677e-28 
0.094         101.559       108.518       36.0616       0.737539      0.00283722    3.52739e-06   1.89347e-09   4.70853e-13   -7.01034e-18  1.11462e-22   -7.61843e-28 
0.095         101.468       107.585       38.0754       0.82644       0.00334765    4.3629e-06    2.44721e-09   6.29368e-13   -1.11189e-17  9.84965e-23   -1.73588e-27 
0.096         101.365       106.628       40.1412       0.924414      0.00394166    5.38335e-06   3.15428e-09   8.3833e-13    -1.71901e-17  5.21063e-23   -3.44044e-27 
0.097         101.252       105.657       42.2562       1.0322        0.00463155    6.62679e-06   4.05479e-09   1.11283e-12   -2.60338e-17  -5.2448e-23   -6.31284e-27 
0.098         101.13        104.678       44.4175       1.15057       0.0054312     8.1385e-06    5.19868e-09   1.47218e-12   -3.87521e-17  -2.53363e-22  -1.10138e-26 
0.099         101.001       103.701       46.6216       1.28034       0.00635628    9.97224e-06   6.64805e-09   1.94099e-12   -5.68317e-17  -6.0833e-22   -1.8526e-26  
0.1           100.867       102.733       48.8648       1.42237       0.00742439    1.21917e-05   8.47987e-09   2.55048e-12   -8.22594e-17  -1.20285e-21  -3.02897e-26 
0.101         100.728       101.781       51.1434       1.57755       0.0086553     1.48723e-05   1.07894e-08   3.34019e-12   -1.17667e-16  -2.16153e-21  -4.83867e-26 
0.102         100.588       100.853       53.4531       1.74682       0.0100712     1.81028e-05   1.3694e-08    4.35992e-12   -1.66507e-16  -3.66324e-21  -7.57845e-26 
0.103         100.446       99.9545       55.7896       1.93116       0.0116969     2.19879e-05   1.73385e-08   5.6722e-12    -2.33274e-16  -5.9612e-21   -1.16657e-25 
0.104         100.305       99.0923       58.1482       2.13158       0.01356       2.66506e-05   2.19005e-08   7.35525e-12   -3.23761e-16  -9.40907e-21  -1.76794e-25 
0.105         100.166       98.272        60.5241       2.34913       0.0156915     3.22352e-05   2.75977e-08   9.50654e-12   -4.45365e-16  -1.44946e-20  -2.64118e-25 
0.106         100.031       97.4987       62.9123       2.58491       0.0181257     3.89104e-05   3.46964e-08   1.22471e-11   -6.07445e-16  -2.18824e-20  -3.89309e-25 
0.107         99.9001       96.7772       65.3076       2.84002       0.0209007     4.68737e-05   4.35214e-08   1.57265e-11   -8.21721e-16  -3.24663e-20  -5.66548e-25 
0.108         99.775        96.1114       67.7046       3.11564       0.0240589     5.63551e-05   5.4468e-08    2.0129e-11    -1.10272e-15  -4.74349e-20  -8.14349e-25 
0.109         99.6566       95.5048       70.0979       3.41295       0.0276471     6.76223e-05   6.80168e-08   2.56808e-11   -1.46822e-15  -6.83478e-20  -1.15643e-24 
0.11          99.5461       94.9604       72.4818       3.73317       0.031717      8.09865e-05   8.47499e-08   3.26582e-11   -1.93978e-15  -9.7226e-20   -1.62255e-24 
0.111         99.4442       94.4804       74.8508       4.07752       0.0363257     9.68088e-05   1.05372e-07   4.13975e-11   -2.54308e-15  -1.36653e-19  -2.24908e-24 
0.112         99.3515       94.0667       77.1991       4.44729       0.0415363     0.000115507   1.30734e-07   5.23071e-11   -3.30838e-15  -1.89882e-19  -3.07909e-24 
0.113         99.2688       93.7203       79.5209       4.84377       0.0474183     0.000137568   1.61868e-07   6.58834e-11   -4.27093e-15  -2.60956e-19  -4.1617e-24  
0.114         99.1966       93.4417       81.8105       5.26807       0.0540416     0.000163513   1.99934e-07   8.26669e-11   -5.46567e-15  -3.5465e-19   -5.54599e-24 
0.115         99.135        93.2311       84.0623       5.72174       0.0614969     0.000194027   2.46493e-07   1.03422e-10   -6.94038e-15  -4.76902e-19  -7.28398e-24 
0.116         99.0846       93.0878       86.2704       6.20601       0.0698727     0.000229832   3.03285e-07   1.2897e-10    -8.73891e-15  -6.3443e-19   -9.41281e-24 
0.117         99.0452       93.0107       88.4294       6.72219       0.079268      0.000271773   3.72418e-07   1.60301e-10   -1.09064e-14  -8.34799e-19  -1.19428e-23 
0.118         99.017        92.9982       90.5338       7.27159       0.0897907     0.000320818   4.56407e-07   1.98584e-10   -1.34841e-14  -1.08612e-18  -1.48321e-23 
0.119         98.9998       93.0482       92.5783       7.8555        0.101559      0.000378073   5.58245e-07   2.4519e-10    -1.6504e-14   -1.39652e-18  -1.7949e-23  
0.12          98.9935       93.1582       94.5577       8.47519       0.1147        0.000444803   6.81487e-07   3.01712e-10   -1.99801e-14  -1.77323e-18  -2.10157e-23 
0.121         98.9977       93.3251       96.4671       9.13194       0.129352      0.00052245    8.30345e-07   3.69998e-10   -2.3897e-14   -2.22118e-18  -2.3527e-23  
0.122         99.0121       93.5457       98.3018       9.82696       0.145667      0.000612654   1.0098e-06    4.52172e-10   -2.8194e-14   -2.74081e-18  -2.46349e-23 
0.123         99.0361       93.8163       100.057       10.5615       0.163806      0.000717279   1.22575e-06   5.50659e-10   -3.27433e-14  -3.32495e-18  -2.29866e-23 
0.124         99.0692       94.1328       101.73        11.3366       0.183945      0.000838441   1.48512e-06   6.6821e-10    -3.73215e-14  -3.95429e-18  -1.65025e-23 
0.125         99.1107       94.491        103.315       12.1534       0.206274      0.000978536   1.79606e-06   8.07914e-10   -4.15723e-14  -4.5911e-18   -2.07412e-24 
0.126         99.16         94.8865       104.809       13.0131       0.230995      0.00114027    2.16816e-06   9.7321e-10    -4.49577e-14  -5.17071e-18  2.48394e-23  
0.127         99.2162       95.3145       106.209       13.9165       0.258328      0.00132672    2.61262e-06   1.16789e-09   -4.66969e-14  -5.58991e-18  7.07439e-23  
0.128         99.2787       95.7702       107.513       14.8646       0.288508      0.00154132    3.14258e-06   1.39606e-09   -4.5688e-14   -5.69172e-18  1.44803e-22  
0.129         99.3465       96.2488       108.717       15.8581       0.321786      0.00178796    3.77334e-06   1.66214e-09   -4.04108e-14  -5.24534e-18  2.5973e-22   
0.13          99.4188       96.7454       109.821       16.898        0.35843       0.00207102    4.52275e-06   1.97078e-09   -2.88069e-14  -3.92043e-18  4.32914e-22  
0.131         99.4948       97.255        110.822       17.9847       0.39873       0.0023954     5.41154e-06   2.32674e-09   -8.13316e-15  -1.25426e-18  6.87831e-22  
0.132         99.5735       97.7727       111.718       19.1189       0.44299       0.0027666     6.46381e-06   2.73479e-09   2.52163e-14   3.38958e-18   1.05577e-21  
0.133         99.6541       98.2936       112.51        20.301        0.491538      0.00319079    7.70743e-06   3.1995e-09    7.5922e-14    1.08723e-17   1.57791e-21  
0.134         99.7357       98.8131       113.197       21.5314       0.54472       0.00367485    9.17467e-06   3.72496e-09   1.49989e-13   2.23424e-17   2.30777e-21  
0.135         99.8175       99.3267       113.78        22.8101       0.6029        0.00422639    1.09024e-05   4.31413e-09   2.55094e-13   3.93248e-17   3.31511e-21  
0.136         99.8985       99.8299       114.258       24.1373       0.666474      0.00485408    1.2934e-05    4.96944e-09   4.00764e-13   6.37708e-17   4.6859e-21   
0.137         99.9781       100.319       114.633       25.513        0.735852      0.00556742    1.53185e-05   5.69089e-09   5.98966e-13   9.82139e-17   6.5298e-21   
0.138         100.056       100.789       114.907       26.9369       0.81147       0.006377      1.81124e-05   6.47605e-09   8.64437e-13   1.45866e-16   8.98154e-21  
0.139         100.13        101.237       115.08        28.4087       0.893787      0.00729459    2.13805e-05   7.31908e-09   1.21519e-12   2.10759e-16   1.22047e-20  
0.14          100.201       101.66        115.157       29.9278       0.983287      0.00833323    2.51968e-05   8.20958e-09   1.67303e-12   2.979e-16     1.63945e-20  
0.141         100.267       102.054       115.139       31.4936       1.08048       0.00950735    2.96455e-05   9.13131e-09   2.26413e-12   4.1343e-16    2.17791e-20  
0.142         100.329       102.417       115.029       33.1052       1.18589       0.0108329     3.48228e-05   1.00606e-08   3.01959e-12   5.64794e-16   2.86186e-20  
0.143         100.386       102.747       114.832       34.7617       1.30009       0.0123275     4.08379e-05   1.09643e-08   3.976e-12     7.60899e-16   3.72009e-20  
0.144         100.437       103.042       114.551       36.4618       1.42365       0.0140106     4.78144e-05   1.17979e-08   5.17597e-12   1.01225e-15   4.78313e-20  
0.145         100.482       103.299       114.19        38.2042       1.5572        0.0159036     5.58924e-05   1.25023e-08   6.66856e-12   1.33107e-15   6.08143e-20  
0.146         100.521       103.519       113.755       39.9875       1.70135       0.01803       6.52302e-05   1.30013e-08   8.50958e-12   1.73127e-15   7.64248e-20  
0.147         100.554       103.699       113.249       41.8098       1.85678       0.0204155     7.60058e-05   1.31976e-08   1.07616e-11   2.22843e-15   9.48626e-20  
0.148         100.58        103.84        112.678       43.6694       2.02417       0.0230886     8.84198e-05   1.29689e-08   1.34939e-11   2.83954e-15   1.16187e-19  
0.149         100.599       103.941       112.047       45.5641       2.20423       0.0260803     0.000102697   1.2163e-08    1.67814e-11   3.58249e-15   1.40224e-19  
0.15          100.612       104.003       111.363       47.4918       2.39771       0.0294244     0.00011909    1.05924e-08   2.07039e-11   4.47536e-15   1.66433e-19  
0.151         100.618       104.026       110.63        49.45         2.60535       0.0331581     0.000137879   8.02879e-09   2.53434e-11   5.53518e-15   1.93736e-19  
0.152         100.617       104.011       109.855       51.4362       2.82796       0.0373217     0.000159379   4.1955e-09    3.07816e-11   6.77627e-15   2.20274e-19  
0.153         100.611       103.959       109.043       53.4478       3.06633       0.0419593     0.000183939   -1.23933e-09  3.70956e-11   8.20778e-15   2.43102e-19  
0.154         100.598       103.872       108.201       55.4817       3.32129       0.0471189     0.000211946   -8.67115e-09  4.43514e-11   9.83043e-15   2.57783e-19  
0.155         100.58        103.752       107.335       57.5349       3.59369       0.0528524     0.000243829   -1.85679e-08  5.25972e-11   1.16322e-14   2.57876e-19  
0.156         100.556       103.6         106.45        59.6044       3.88441       0.0592165     0.000280063   -3.14796e-08  6.18524e-11   1.35824e-14   2.3428e-19   
0.157         100.527       103.42        105.554       61.6867       4.19432       0.0662724     0.000321169   -4.80483e-08  7.20955e-11   1.56247e-14   1.74428e-19  
0.158         100.494       103.212       104.651       63.7785       4.52433       0.0740862     0.000367723   -6.90192e-08  8.3248e-11    1.76675e-14   6.12859e-20  
0.159         100.457       102.981       103.749       65.8761       4.87536       0.0827298     0.000420353   -9.52513e-08  9.51544e-11   1.95725e-14   -1.27861e-19 
0.16          100.416       102.729       102.852       67.976        5.24834       0.0922804     0.000479748   -1.27728e-07  1.07558e-10   2.114e-14     -4.2286e-19  
0.161         100.372       102.458       101.966       70.0742       5.6442        0.102821      0.000546659   -1.67571e-07  1.20073e-10   2.20921e-14   -8.62416e-19 
0.162         100.326       102.172       101.097       72.1671       6.06389       0.114443      0.000621902   -2.16046e-07  1.32146e-10   2.20508e-14   -1.49609e-18 
0.163         100.278       101.874       100.25        74.2506       6.50836       0.127241      0.000706363   -2.74577e-07  1.43021e-10   2.05139e-14   -2.38659e-18 
0.164         100.228       101.567       99.4291       76.3209       6.97855       0.141319      0.000800998   -3.44753e-07  1.51685e-10   1.68245e-14   -3.61235e-18 
0.165         100.177       101.254       98.6399       78.3738       7.47544       0.156789      0.000906839   -4.28334e-07  1.56818e-10   1.01379e-14   -5.27033e-18 
0.166         100.126       100.937       97.8864       80.4054       7.99995       0.173769      0.00102499    -5.27255e-07  1.56725e-10   -6.17996e-16  -7.47902e-18 
0.167         100.075       100.621       97.1726       82.4115       8.55303       0.192388      0.00115665    -6.43628e-07  1.49267e-10   -1.67865e-14  -1.03815e-17 
0.168         100.024       100.308       96.5022       84.3882       9.13561       0.21278       0.00130307    -7.79737e-07  1.3178e-10    -4.00308e-14  -1.41484e-17 
0.169         99.9747       100           95.8785       86.3315       9.74861       0.23509       0.00146559    -9.38028e-07  1.00986e-10   -7.2387e-14   -1.89804e-17 
0.17          99.927        99.7008       95.3043       88.2373       10.3929       0.259474      0.00164565    -1.12109e-06  5.28994e-11   -1.1632e-13   -2.51105e-17 
0.171         99.8813       99.4126       94.7821       90.1016       11.0694       0.286095      0.00184473    -1.33165e-06  -1.72816e-11  -1.74783e-13  -3.28042e-17 
0.172         99.8379       99.1377       94.3142       91.9208       11.7789       0.315127      0.00206442    -1.57249e-06  -1.15279e-10  -2.51273e-13  -4.23588e-17 
0.173         99.7974       98.8783       93.9022       93.6909       12.5222       0.346756      0.00230634    -1.84647e-06  -2.47848e-10  -3.49886e-13  -5.40997e-17 
0.174         99.76         98.6365       93.5474       95.4083       13.3002       0.381176      0.00257219    -2.15642e-06  -4.22891e-10  -4.75365e-13  -6.83731e-17 
0.175         99.726        98.4141       93.2506       97.0695       14.1135       0.418595      0.00286375    -2.50508e-06  -6.49563e-10  -6.3313e-13   -8.55338e-17 