/*--------------------------------*- C++ -*----------------------------------*\
  =========                 |
  \\      /  F ield         | OpenFOAM: The Open Source CFD Toolbox
   \\    /   O peration     | Website:  https://openfoam.org
    \\  /    A nd           | Version:  8
     \\/     M anipulation  |
\*---------------------------------------------------------------------------*/
FoamFile
{
    version     2.0;
    format      ascii;
    class       volScalarField;
    location    "42.5";
    object      p;
}
// * * * * * * * * * * * * * * * * * * * * * * * * * * * * * * * * * * * * * //

dimensions      [0 2 -2 0 0 0 0];

internalField   nonuniform List<scalar> 
116
(
-6.12595e-08
-0.000984103
-0.00139518
-0.00301839
0.00125247
-0.00832177
4.89528e-05
-0.000691395
-0.00032926
-0.00355534
-0.00141279
-0.00291234
0.000840206
-6.83914e-05
-0.000409693
-0.00278286
-0.0053575
-0.00805802
0.00150482
0.000942536
-0.000186834
-0.00314655
-0.00719055
-0.00907186
0.00166511
0.0011049
-0.000518777
-0.00405437
-0.00894959
-0.0108456
0.000952919
0.000692127
-0.000879257
-0.00391827
-0.00845887
-0.0103908
0.00115028
0.000698737
-0.000561133
-0.00342777
-0.00760363
-0.0103445
0.000136965
0.000876599
0.000375313
-0.00141076
-0.00434834
-0.0065797
0.00153116
0.000801642
0.00197865
0.000307168
-0.00235858
-0.00503402
-0.0038168
0.00400538
0.00388238
0.00271116
-0.000417243
-0.00234567
0.00202869
0.0104408
0.00909268
0.0145851
-0.00189035
0.0019504
0.00493466
0.00823351
-0.00844776
-0.00580439
-0.0023207
0.000856666
-0.0101244
-0.00880304
-0.00710632
-0.00393922
-0.0115172
-0.0103928
-0.00967109
-0.00655043
-0.0112916
-0.00980548
-0.00989837
-0.00642354
-0.0113409
-0.00951034
-0.0104656
-0.00317945
-0.00679252
-0.00496667
-0.00409653
0.00652204
-0.00706699
-0.00495934
-0.00307566
0.0142435
-0.00250688
0.00435875
0.0180068
0.0549763
0.0181
0.0175076
0.0173529
0.0204529
0.0162939
0.0166289
0.0147757
0.0169365
0.0127525
0.0135764
0.0115727
0.0125865
0.00915387
0.0165111
0.00989772
0.0144658
)
;

boundaryField
{
    movingWall
    {
        type            zeroGradient;
    }
    fixedWalls
    {
        type            zeroGradient;
    }
    frontAndBack
    {
        type            empty;
    }
}


// ************************************************************************* //
