/*--------------------------------*- C++ -*----------------------------------*\
  =========                 |
  \\      /  F ield         | OpenFOAM: The Open Source CFD Toolbox
   \\    /   O peration     | Website:  https://openfoam.org
    \\  /    A nd           | Version:  8
     \\/     M anipulation  |
\*---------------------------------------------------------------------------*/
FoamFile
{
    version     2.0;
    format      ascii;
    class       volVectorField;
    location    "0.365";
    object      U;
}
// * * * * * * * * * * * * * * * * * * * * * * * * * * * * * * * * * * * * * //

dimensions      [0 1 -1 0 0 0 0];

internalField   nonuniform List<vector> 
400
(
(0.000253392 -0.000250434 0)
(0.000141195 0.000111423 0)
(-0.00117698 0.000564592 0)
(-0.00348109 0.000884966 0)
(-0.00637743 0.00104569 0)
(-0.00946939 0.00106172 0)
(-0.0124028 0.000957828 0)
(-0.0148848 0.000760424 0)
(-0.0166894 0.000494638 0)
(-0.0176582 0.000184562 0)
(-0.0177021 -0.000145263 0)
(-0.016805 -0.00046836 0)
(-0.01503 -0.000755408 0)
(-0.0125251 -0.000974257 0)
(-0.00952637 -0.00109118 0)
(-0.00635497 -0.001074 0)
(-0.00340064 -0.000898113 0)
(-0.00108643 -0.000556385 0)
(0.000196423 -9.03669e-05 0)
(0.000267859 0.000262382 0)
(-7.74684e-05 -0.000169371 0)
(-0.00161156 0.00164482 0)
(-0.00569291 0.00361729 0)
(-0.0117189 0.00503481 0)
(-0.0188924 0.00574322 0)
(-0.0264009 0.0057602 0)
(-0.0334694 0.00517167 0)
(-0.0394271 0.00409252 0)
(-0.0437443 0.00264765 0)
(-0.0460475 0.000966938 0)
(-0.0461299 -0.000813216 0)
(-0.0439618 -0.00254708 0)
(-0.0397016 -0.00407866 0)
(-0.033703 -0.00524514 0)
(-0.0265136 -0.0058866 0)
(-0.0188547 -0.00586489 0)
(-0.0115668 -0.00509479 0)
(-0.00551334 -0.00358944 0)
(-0.0014931 -0.00155914 0)
(-4.25805e-05 0.000227456 0)
(-0.000528612 0.00109163 0)
(-0.00371143 0.00573631 0)
(-0.010589 0.0102245 0)
(-0.0199919 0.0134077 0)
(-0.0307652 0.0149464 0)
(-0.0418228 0.0148389 0)
(-0.0521205 0.0132558 0)
(-0.0607451 0.0104563 0)
(-0.0669704 0.00674203 0)
(-0.0702838 0.00243888 0)
(-0.0704017 -0.00210655 0)
(-0.0672854 -0.00652551 0)
(-0.0611533 -0.0104293 0)
(-0.0524893 -0.0134212 0)
(-0.0420377 -0.0151236 0)
(-0.0307744 -0.0152258 0)
(-0.0198293 -0.0135561 0)
(-0.0103637 -0.010179 0)
(-0.00354856 -0.00555111 0)
(-0.000476852 -0.000948838 0)
(-0.000928235 0.00347986 0)
(-0.00569157 0.0122207 0)
(-0.015302 0.0199218 0)
(-0.0279173 0.025198 0)
(-0.0419861 0.0275972 0)
(-0.05618 0.0271377 0)
(-0.0692532 0.0241091 0)
(-0.080127 0.018954 0)
(-0.0879497 0.0121956 0)
(-0.0921204 0.00440509 0)
(-0.092305 -0.00380802 0)
(-0.0884517 -0.0117967 0)
(-0.0808063 -0.0188823 0)
(-0.0699241 -0.0243765 0)
(-0.0566701 -0.0276279 0)
(-0.0421955 -0.028102 0)
(-0.027857 -0.0254979 0)
(-0.0150939 -0.0198918 0)
(-0.00550511 -0.0119278 0)
(-0.000861612 -0.00322488 0)
(-0.00127895 0.00687784 0)
(-0.00753615 0.0209538 0)
(-0.0198051 0.0325106 0)
(-0.0355354 0.0401034 0)
(-0.0527443 0.0432905 0)
(-0.0698598 0.042193 0)
(-0.0854649 0.0372777 0)
(-0.0983623 0.0292132 0)
(-0.107622 0.0187773 0)
(-0.11259 0.00681373 0)
(-0.112899 -0.00578045 0)
(-0.108476 -0.0180548 0)
(-0.0995639 -0.0290116 0)
(-0.0867406 -0.0376329 0)
(-0.0709368 -0.0429452 0)
(-0.0534311 -0.0441291 0)
(-0.0357851 -0.0406789 0)
(-0.0197354 -0.0325926 0)
(-0.00737068 -0.0205907 0)
(-0.00120369 -0.00649817 0)
(-0.00160754 0.0112157 0)
(-0.00931813 0.0318747 0)
(-0.0242095 0.0479519 0)
(-0.0430031 0.058072 0)
(-0.0632577 0.0619372 0)
(-0.0831539 0.0598812 0)
(-0.101125 0.0526283 0)
(-0.115893 0.0411258 0)
(-0.126489 0.026437 0)
(-0.132239 0.00969284 0)
(-0.132751 -0.00791637 0)
(-0.127924 -0.0251321 0)
(-0.117967 -0.040625 0)
(-0.103435 -0.0530193 0)
(-0.0852696 -0.0609662 0)
(-0.064836 -0.06328 0)
(-0.0438858 -0.0591419 0)
(-0.0244778 -0.0483443 0)
(-0.00925436 -0.0315575 0)
(-0.00153776 -0.0107285 0)
(-0.00194006 0.016477 0)
(-0.0111213 0.0449741 0)
(-0.0286505 0.0662331 0)
(-0.05048 0.079059 0)
(-0.0736851 0.0834458 0)
(-0.096204 0.0800737 0)
(-0.116352 0.0700239 0)
(-0.132815 0.0545845 0)
(-0.144631 0.0351314 0)
(-0.151142 0.0130846 0)
(-0.151949 -0.0100865 0)
(-0.146916 -0.0328324 0)
(-0.136181 -0.0534994 0)
(-0.120223 -0.0703364 0)
(-0.0999326 -0.0815647 0)
(-0.0767014 -0.0855322 0)
(-0.0524401 -0.0809632 0)
(-0.0295448 -0.0672766 0)
(-0.0112836 -0.0449393 0)
(-0.00190007 -0.0159515 0)
(-0.00230003 0.0226948 0)
(-0.013025 0.0603004 0)
(-0.0332507 0.0873628 0)
(-0.0580795 0.102996 0)
(-0.0840743 0.107664 0)
(-0.108953 0.10256 0)
(-0.130967 0.0892432 0)
(-0.148834 0.0694101 0)
(-0.161666 0.0447711 0)
(-0.168867 0.0170196 0)
(-0.170062 -0.0121334 0)
(-0.16507 -0.0408928 0)
(-0.153929 -0.0673137 0)
(-0.136969 -0.0892723 0)
(-0.114942 -0.104511 0)
(-0.0891754 -0.110795 0)
(-0.0616704 -0.106211 0)
(-0.0351482 -0.0895786 0)
(-0.0135858 -0.060949 0)
(-0.00232632 -0.0222774 0)
(-0.00271162 0.0299467 0)
(-0.0151079 0.0779556 0)
(-0.0381145 0.111355 0)
(-0.0658479 0.129748 0)
(-0.0943261 0.134315 0)
(-0.121098 0.126972 0)
(-0.144443 0.1099 0)
(-0.163212 0.0852805 0)
(-0.176686 0.0551663 0)
(-0.184405 0.0214867 0)
(-0.186056 -0.0138745 0)
(-0.181421 -0.0489559 0)
(-0.170394 -0.0815923 0)
(-0.15308 -0.109322 0)
(-0.12997 -0.129379 0)
(-0.102185 -0.138827 0)
(-0.071689 -0.134885 0)
(-0.0414667 -0.115468 0)
(-0.0162879 -0.0798945 0)
(-0.00285467 -0.0298893 0)
(-0.00320764 0.0383591 0)
(-0.0174661 0.098088 0)
(-0.0433409 0.138187 0)
(-0.0737563 0.159043 0)
(-0.10416 0.162898 0)
(-0.132031 0.15267 0)
(-0.155825 0.131339 0)
(-0.174678 0.101639 0)
(-0.188167 0.0659567 0)
(-0.196067 0.0263892 0)
(-0.198185 -0.0151124 0)
(-0.194283 -0.0565444 0)
(-0.184081 -0.0956406 0)
(-0.167366 -0.129687 0)
(-0.144215 -0.155421 0)
(-0.115338 -0.169095 0)
(-0.0824455 -0.1668 0)
(-0.0486359 -0.145122 0)
(-0.0195287 -0.102159 0)
(-0.00353355 -0.0390468 0)
(-0.00384396 0.048128 0)
(-0.0202462 0.120892 0)
(-0.0490466 0.16775 0)
(-0.0816865 0.190364 0)
(-0.113053 0.192555 0)
(-0.140746 0.178612 0)
(-0.163622 0.15251 0)
(-0.181309 0.117591 0)
(-0.193847 0.076534 0)
(-0.201361 0.0314941 0)
(-0.203857 -0.0156584 0)
(-0.20111 -0.0630494 0)
(-0.192649 -0.108489 0)
(-0.177857 -0.149169 0)
(-0.156224 -0.181413 0)
(-0.12778 -0.200604 0)
(-0.0936442 -0.201422 0)
(-0.056733 -0.178572 0)
(-0.0234798 -0.128171 0)
(-0.00443553 -0.0501039 0)
(-0.00472538 0.0595705 0)
(-0.0236948 0.146616 0)
(-0.0553832 0.199754 0)
(-0.0893768 0.222788 0)
(-0.120123 0.221889 0)
(-0.145677 0.203185 0)
(-0.165631 0.171838 0)
(-0.180372 0.131809 0)
(-0.190582 0.085969 0)
(-0.196864 0.0363762 0)
(-0.199503 -0.0153701 0)
(-0.198337 -0.0677419 0)
(-0.192718 -0.118865 0)
(-0.181575 -0.166076 0)
(-0.163646 -0.205486 0)
(-0.137967 -0.231659 0)
(-0.104596 -0.237623 0)
(-0.0657337 -0.215523 0)
(-0.0283777 -0.158366 0)
(-0.00568209 -0.0635516 0)
(-0.00605161 0.0732277 0)
(-0.028226 0.175562 0)
(-0.062509 0.233569 0)
(-0.0962576 0.254744 0)
(-0.123858 0.248729 0)
(-0.144399 0.224024 0)
(-0.158672 0.187105 0)
(-0.168109 0.142461 0)
(-0.174203 0.0929681 0)
(-0.17812 0.0403789 0)
(-0.180487 -0.0141981 0)
(-0.181267 -0.0698202 0)
(-0.179697 -0.125209 0)
(-0.174272 -0.178178 0)
(-0.162896 -0.224971 0)
(-0.143317 -0.259586 0)
(-0.113938 -0.273327 0)
(-0.0753933 -0.255064 0)
(-0.0345564 -0.193089 0)
(-0.0074863 -0.0801037 0)
(-0.0081921 0.0900458 0)
(-0.0344829 0.208019 0)
(-0.0704126 0.267882 0)
(-0.101024 0.283604 0)
(-0.121575 0.269809 0)
(-0.133109 0.237839 0)
(-0.138164 0.195403 0)
(-0.139464 0.147232 0)
(-0.139369 0.0959085 0)
(-0.139597 0.0426194 0)
(-0.141111 -0.0122326 0)
(-0.144057 -0.0685063 0)
(-0.14767 -0.125793 0)
(-0.150171 -0.182768 0)
(-0.148721 -0.236322 0)
(-0.139644 -0.280445 0)
(-0.119095 -0.305023 0)
(-0.0849363 -0.295157 0)
(-0.0424406 -0.232376 0)
(-0.010216 -0.100836 0)
(-0.0117675 0.111635 0)
(-0.0432598 0.24396 0)
(-0.0782975 0.300033 0)
(-0.100628 0.305091 0)
(-0.108352 0.280458 0)
(-0.105731 0.240381 0)
(-0.0975299 0.19328 0)
(-0.0877715 0.143548 0)
(-0.0795016 0.0930352 0)
(-0.074786 0.0420948 0)
(-0.0748036 -0.00972855 0)
(-0.0798914 -0.0632105 0)
(-0.0894635 -0.118989 0)
(-0.101789 -0.176956 0)
(-0.113687 -0.235283 0)
(-0.120305 -0.28888 0)
(-0.115263 -0.327194 0)
(-0.0922666 -0.331793 0)
(-0.0523157 -0.275402 0)
(-0.0144303 -0.127347 0)
(-0.0175493 0.140659 0)
(-0.0547646 0.282145 0)
(-0.0827864 0.324717 0)
(-0.0880806 0.312472 0)
(-0.0751088 0.274455 0)
(-0.0525913 0.226769 0)
(-0.0274588 0.177287 0)
(-0.00451494 0.129134 0)
(0.0130984 0.0829123 0)
(0.0234395 0.0379467 0)
(0.0253981 -0.00707335 0)
(0.0185071 -0.0537581 0)
(0.00297949 -0.103751 0)
(-0.0199972 -0.158319 0)
(-0.0476861 -0.217501 0)
(-0.0749849 -0.27836 0)
(-0.0935468 -0.33179 0)
(-0.0920638 -0.357682 0)
(-0.0632806 -0.319293 0)
(-0.0206336 -0.161973 0)
(-0.0254497 0.181711 0)
(-0.0657746 0.317771 0)
(-0.0733331 0.331362 0)
(-0.0480771 0.2954 0)
(-0.00557843 0.244211 0)
(0.0412183 0.19238 0)
(0.0846528 0.145046 0)
(0.120536 0.102971 0)
(0.146702 0.0651375 0)
(0.162047 0.0298913 0)
(0.165941 -0.0046715 0)
(0.157935 -0.0406282 0)
(0.137732 -0.0802461 0)
(0.10544 -0.125917 0)
(0.0622618 -0.179726 0)
(0.0118055 -0.24202 0)
(-0.0378301 -0.307877 0)
(-0.0716795 -0.360142 0)
(-0.0700556 -0.356608 0)
(-0.0279123 -0.208375 0)
(-0.029649 0.239176 0)
(-0.0608413 0.335767 0)
(-0.0219425 0.300503 0)
(0.0505417 0.240127 0)
(0.127572 0.182949 0)
(0.197007 0.135389 0)
(0.254336 0.0973986 0)
(0.29825 0.0668508 0)
(0.328824 0.0413551 0)
(0.346466 0.0187785 0)
(0.351375 -0.00279414 0)
(0.343302 -0.025265 0)
(0.321468 -0.0507875 0)
(0.284642 -0.0820478 0)
(0.231571 -0.122446 0)
(0.162181 -0.175669 0)
(0.0799003 -0.243431 0)
(-0.00319007 -0.319136 0)
(-0.0546696 -0.368612 0)
(-0.0284594 -0.267618 0)
(0.00808311 0.281861 0)
(0.0197831 0.294972 0)
(0.139066 0.210973 0)
(0.26446 0.143477 0)
(0.364367 0.0971858 0)
(0.440364 0.0657773 0)
(0.496742 0.0442373 0)
(0.536873 0.0288859 0)
(0.563446 0.0171988 0)
(0.578305 0.00748474 0)
(0.582379 -0.00149412 0)
(0.575695 -0.0108452 0)
(0.557308 -0.021847 0)
(0.525134 -0.0363348 0)
(0.475776 -0.0572594 0)
(0.404537 -0.0893839 0)
(0.305176 -0.139741 0)
(0.173417 -0.216386 0)
(0.041172 -0.311655 0)
(0.0184302 -0.299995 0)
(0.299604 0.146091 0)
(0.396272 0.127503 0)
(0.55742 0.0760895 0)
(0.674487 0.0437232 0)
(0.743888 0.025572 0)
(0.787153 0.0152422 0)
(0.815485 0.00921231 0)
(0.833955 0.00550939 0)
(0.845385 0.00302716 0)
(0.851371 0.00114934 0)
(0.852666 -0.000499384 0)
(0.849382 -0.00221506 0)
(0.840999 -0.00433854 0)
(0.82614 -0.00742405 0)
(0.802078 -0.0125322 0)
(0.763621 -0.0217728 0)
(0.699108 -0.0392829 0)
(0.583952 -0.0726601 0)
(0.415827 -0.127868 0)
(0.308819 -0.149468 0)
)
;

boundaryField
{
    movingWall
    {
        type            fixedValue;
        value           uniform (1 0 0);
    }
    fixedWalls
    {
        type            noSlip;
    }
    frontAndBack
    {
        type            empty;
    }
}


// ************************************************************************* //
