/*--------------------------------*- C++ -*----------------------------------*\
  =========                 |
  \\      /  F ield         | OpenFOAM: The Open Source CFD Toolbox
   \\    /   O peration     | Website:  https://openfoam.org
    \\  /    A nd           | Version:  8
     \\/     M anipulation  |
\*---------------------------------------------------------------------------*/
FoamFile
{
    version     2.0;
    format      ascii;
    class       surfaceScalarField;
    location    "15";
    object      phi;
}
// * * * * * * * * * * * * * * * * * * * * * * * * * * * * * * * * * * * * * //

dimensions      [0 3 -1 0 0 0 0];

internalField   nonuniform List<scalar> 
92320
(
-2.01673e-09
-1.05926e-09
-2.36416e-08
2.16253e-08
-6.36175e-08
3.99775e-08
-1.1341e-07
4.97903e-08
-1.67327e-07
5.39131e-08
-2.22524e-07
5.51973e-08
-2.77904e-07
5.53823e-08
-3.33164e-07
5.52612e-08
-3.8827e-07
5.51059e-08
-4.43248e-07
5.49771e-08
-4.98122e-07
5.48728e-08
-5.52903e-07
5.47809e-08
-6.07595e-07
5.46922e-08
-6.62196e-07
5.46014e-08
-7.16702e-07
5.4506e-08
-7.71107e-07
5.44047e-08
-8.25404e-07
5.42968e-08
-8.79585e-07
5.41818e-08
-9.33644e-07
5.40593e-08
-9.87572e-07
5.3929e-08
-1.04136e-06
5.3791e-08
-1.09501e-06
5.36451e-08
-1.1485e-06
5.34914e-08
-1.20183e-06
5.333e-08
-1.25499e-06
5.31606e-08
-1.30797e-06
5.29833e-08
-1.36077e-06
5.2798e-08
-1.41338e-06
5.26046e-08
-1.46578e-06
5.24033e-08
-1.51797e-06
5.21939e-08
-1.56995e-06
5.19765e-08
-1.6217e-06
5.1751e-08
-1.67322e-06
5.15175e-08
-1.72449e-06
5.12759e-08
-1.77552e-06
5.10262e-08
-1.82629e-06
5.07685e-08
-1.87679e-06
5.05027e-08
-1.92702e-06
5.02288e-08
-1.97697e-06
4.99468e-08
-2.02662e-06
4.96568e-08
-2.07598e-06
4.93586e-08
-2.12503e-06
4.90522e-08
-2.17377e-06
4.87378e-08
-2.22219e-06
4.84153e-08
-2.27027e-06
4.80847e-08
-2.31802e-06
4.77461e-08
-2.36542e-06
4.73996e-08
-2.41246e-06
4.7045e-08
-2.45914e-06
4.66825e-08
-2.50546e-06
4.6312e-08
-2.55139e-06
4.59337e-08
-2.59694e-06
4.55475e-08
-2.64209e-06
4.51535e-08
-2.68684e-06
4.47518e-08
-2.73118e-06
4.43424e-08
-2.77511e-06
4.39255e-08
-2.81861e-06
4.35011e-08
-2.86168e-06
4.30693e-08
-2.90431e-06
4.26303e-08
-2.94649e-06
4.21842e-08
-2.98823e-06
4.17312e-08
-3.0295e-06
4.12714e-08
-3.0703e-06
4.0805e-08
-3.11063e-06
4.03323e-08
-3.15049e-06
3.98534e-08
-3.18985e-06
3.93685e-08
-3.22873e-06
3.88779e-08
-3.26711e-06
3.8382e-08
-3.305e-06
3.7881e-08
-3.34237e-06
3.73754e-08
-3.37924e-06
3.68656e-08
-3.41559e-06
3.63522e-08
-3.45143e-06
3.58355e-08
-3.48674e-06
3.53164e-08
-3.52154e-06
3.47953e-08
-3.55581e-06
3.42731e-08
-3.58956e-06
3.37504e-08
-3.62279e-06
3.32282e-08
-3.6555e-06
3.27076e-08
-3.68769e-06
3.21896e-08
-3.71936e-06
3.16754e-08
-3.75053e-06
3.11665e-08
-3.78119e-06
3.06644e-08
-3.81136e-06
3.01711e-08
-3.84105e-06
2.96884e-08
-3.87027e-06
2.92187e-08
-3.89903e-06
2.87647e-08
-3.92736e-06
2.83291e-08
-3.95528e-06
2.79156e-08
-3.98281e-06
2.75279e-08
-4.00998e-06
2.71704e-08
-4.03682e-06
2.68482e-08
-4.06339e-06
2.65673e-08
-4.08973e-06
2.63346e-08
-4.11588e-06
2.61582e-08
-4.14193e-06
2.60474e-08
-4.16794e-06
2.60136e-08
-4.19401e-06
2.607e-08
-4.22025e-06
2.62325e-08
-4.24677e-06
2.652e-08
-4.27372e-06
2.69554e-08
-4.30129e-06
2.75669e-08
-4.32968e-06
2.83892e-08
-4.35914e-06
2.94652e-08
-4.38999e-06
3.08481e-08
-4.42259e-06
3.26047e-08
-4.45741e-06
3.48194e-08
-4.49501e-06
3.75985e-08
-4.53608e-06
4.10746e-08
-4.5815e-06
4.54112e-08
-4.63231e-06
5.08118e-08
-4.68987e-06
5.75588e-08
-4.75606e-06
6.61971e-08
-4.83431e-06
7.82412e-08
-4.93287e-06
9.85674e-08
-5.07555e-06
1.42678e-07
-5.33226e-06
2.56709e-07
-5.90045e-06
5.68186e-07
-7.31982e-06
1.41937e-06
3.78024e-06
-1.11001e-05
-2.29322e-08
2.18731e-08
-9.0117e-08
8.88091e-08
-1.89068e-07
1.38934e-07
-3.06738e-07
1.67466e-07
-4.33564e-07
1.80739e-07
-5.64137e-07
1.85767e-07
-6.95938e-07
1.87181e-07
-8.27977e-07
1.873e-07
-9.59923e-07
1.87052e-07
-1.09168e-06
1.86736e-07
-1.22323e-06
1.86419e-07
-1.35455e-06
1.86104e-07
-1.48564e-06
1.85781e-07
-1.61648e-06
1.85442e-07
-1.74705e-06
1.85081e-07
-1.87734e-06
1.84696e-07
-2.00733e-06
1.84285e-07
-2.137e-06
1.83846e-07
-2.26632e-06
1.8338e-07
-2.39527e-06
1.82885e-07
-2.52384e-06
1.82361e-07
-2.652e-06
1.81809e-07
-2.77974e-06
1.81227e-07
-2.90703e-06
1.80617e-07
-3.03384e-06
1.79977e-07
-3.16017e-06
1.79309e-07
-3.28598e-06
1.78611e-07
-3.41126e-06
1.77884e-07
-3.53599e-06
1.77128e-07
-3.66014e-06
1.76343e-07
-3.78369e-06
1.75529e-07
-3.90662e-06
1.74685e-07
-4.02892e-06
1.73813e-07
-4.15055e-06
1.72911e-07
-4.27151e-06
1.71981e-07
-4.39176e-06
1.71022e-07
-4.51129e-06
1.70033e-07
-4.63008e-06
1.69016e-07
-4.7481e-06
1.67971e-07
-4.86534e-06
1.66896e-07
-4.98178e-06
1.65793e-07
-5.09738e-06
1.64661e-07
-5.21215e-06
1.63501e-07
-5.32604e-06
1.62312e-07
-5.43906e-06
1.61096e-07
-5.55116e-06
1.59851e-07
-5.66234e-06
1.58579e-07
-5.77257e-06
1.57279e-07
-5.88184e-06
1.55952e-07
-5.99013e-06
1.54597e-07
-6.09741e-06
1.53216e-07
-6.20367e-06
1.51807e-07
-6.30888e-06
1.50372e-07
-6.41304e-06
1.48911e-07
-6.51613e-06
1.47424e-07
-6.61811e-06
1.45912e-07
-6.71899e-06
1.44375e-07
-6.81873e-06
1.42813e-07
-6.91733e-06
1.41227e-07
-7.01476e-06
1.39618e-07
-7.11102e-06
1.37987e-07
-7.20608e-06
1.36333e-07
-7.29993e-06
1.34657e-07
-7.39256e-06
1.32961e-07
-7.48395e-06
1.31245e-07
-7.57409e-06
1.29511e-07
-7.66297e-06
1.27758e-07
-7.75058e-06
1.25989e-07
-7.8369e-06
1.24205e-07
-7.92193e-06
1.22406e-07
-8.00566e-06
1.20596e-07
-8.08809e-06
1.18775e-07
-8.1692e-06
1.16945e-07
-8.24899e-06
1.15109e-07
-8.32747e-06
1.13269e-07
-8.40462e-06
1.11428e-07
-8.48046e-06
1.09587e-07
-8.55498e-06
1.07751e-07
-8.62819e-06
1.05923e-07
-8.70011e-06
1.04106e-07
-8.77074e-06
1.02306e-07
-8.8401e-06
1.00527e-07
-8.90821e-06
9.87743e-08
-8.97509e-06
9.7055e-08
-9.04078e-06
9.53758e-08
-9.1053e-06
9.37447e-08
-9.16871e-06
9.21707e-08
-9.23104e-06
9.0664e-08
-9.29236e-06
8.92366e-08
-9.35274e-06
8.79017e-08
-9.41224e-06
8.66749e-08
-9.47097e-06
8.55739e-08
-9.52902e-06
8.46195e-08
-9.58652e-06
8.38358e-08
-9.64361e-06
8.32513e-08
-9.70047e-06
8.2899e-08
-9.75727e-06
8.28183e-08
-9.81426e-06
8.30562e-08
-9.87169e-06
8.36692e-08
-9.9299e-06
8.47252e-08
-9.98925e-06
8.63069e-08
-1.00502e-05
8.85158e-08
-1.01133e-05
9.14779e-08
-1.01792e-05
9.53514e-08
-1.02487e-05
1.00337e-07
-1.03227e-05
1.0669e-07
-1.04027e-05
1.14745e-07
-1.049e-05
1.24943e-07
-1.05868e-05
1.37877e-07
-1.06958e-05
1.54375e-07
-1.08206e-05
1.75646e-07
-1.09667e-05
2.03614e-07
-1.11422e-05
2.41736e-07
-1.1361e-05
2.97073e-07
-1.16479e-05
3.85439e-07
-1.20487e-05
5.4347e-07
-1.26456e-05
8.53565e-07
-1.35648e-05
1.48744e-06
-1.49219e-05
2.77651e-06
5.3038e-06
-1.64455e-05
-4.08629e-08
6.27376e-08
-1.40342e-07
1.88283e-07
-2.78717e-07
2.77306e-07
-4.39548e-07
3.283e-07
-6.1157e-07
3.52765e-07
-7.88429e-07
3.62627e-07
-9.67069e-07
3.65819e-07
-1.1462e-06
3.66426e-07
-1.32532e-06
3.66172e-07
-1.50425e-06
3.65668e-07
-1.68292e-06
3.65091e-07
-1.86129e-06
3.64477e-07
-2.03934e-06
3.63826e-07
-2.21703e-06
3.63131e-07
-2.39433e-06
3.62387e-07
-2.57123e-06
3.6159e-07
-2.74768e-06
3.60737e-07
-2.92366e-06
3.59827e-07
-3.09914e-06
3.58859e-07
-3.27409e-06
3.57833e-07
-3.44847e-06
3.56748e-07
-3.62227e-06
3.55604e-07
-3.79544e-06
3.54401e-07
-3.96796e-06
3.53138e-07
-4.1398e-06
3.51816e-07
-4.31093e-06
3.50435e-07
-4.48131e-06
3.48995e-07
-4.65092e-06
3.47495e-07
-4.81973e-06
3.45936e-07
-4.98771e-06
3.44318e-07
-5.15482e-06
3.42641e-07
-5.32104e-06
3.40905e-07
-5.48634e-06
3.39111e-07
-5.65069e-06
3.37258e-07
-5.81405e-06
3.35347e-07
-5.97641e-06
3.33377e-07
-6.13772e-06
3.3135e-07
-6.29797e-06
3.29264e-07
-6.45712e-06
3.27121e-07
-6.61515e-06
3.2492e-07
-6.77202e-06
3.22662e-07
-6.9277e-06
3.20347e-07
-7.08218e-06
3.17976e-07
-7.23541e-06
3.15548e-07
-7.38738e-06
3.13065e-07
-7.53806e-06
3.10526e-07
-7.68741e-06
3.07932e-07
-7.83541e-06
3.05284e-07
-7.98204e-06
3.02581e-07
-8.12727e-06
2.99825e-07
-8.27107e-06
2.97015e-07
-8.41341e-06
2.94153e-07
-8.55428e-06
2.91239e-07
-8.69364e-06
2.88275e-07
-8.83148e-06
2.8526e-07
-8.96776e-06
2.82195e-07
-9.10247e-06
2.79082e-07
-9.23558e-06
2.75922e-07
-9.36707e-06
2.72716e-07
-9.49691e-06
2.69465e-07
-9.6251e-06
2.6617e-07
-9.7516e-06
2.62832e-07
-9.87639e-06
2.59454e-07
-9.99947e-06
2.56037e-07
-1.01208e-05
2.52582e-07
-1.02404e-05
2.49091e-07
-1.03582e-05
2.45568e-07
-1.04742e-05
2.42014e-07
-1.05884e-05
2.38431e-07
-1.07009e-05
2.34824e-07
-1.08115e-05
2.31194e-07
-1.09202e-05
2.27546e-07
-1.10272e-05
2.23884e-07
-1.11323e-05
2.20211e-07
-1.12355e-05
2.16532e-07
-1.1337e-05
2.12853e-07
-1.14366e-05
2.09179e-07
-1.15343e-05
2.05516e-07
-1.16303e-05
2.01872e-07
-1.17244e-05
1.98253e-07
-1.18168e-05
1.9467e-07
-1.19074e-05
1.91131e-07
-1.19963e-05
1.87648e-07
-1.20834e-05
1.84234e-07
-1.2169e-05
1.80901e-07
-1.22529e-05
1.77666e-07
-1.23353e-05
1.74546e-07
-1.24162e-05
1.71563e-07
-1.24957e-05
1.68738e-07
-1.25738e-05
1.66099e-07
-1.26509e-05
1.63676e-07
-1.27268e-05
1.61503e-07
-1.28018e-05
1.59623e-07
-1.2876e-05
1.58082e-07
-1.29497e-05
1.56937e-07
-1.30231e-05
1.56252e-07
-1.30964e-05
1.56106e-07
-1.31699e-05
1.56591e-07
-1.3244e-05
1.57819e-07
-1.33192e-05
1.59924e-07
-1.3396e-05
1.63071e-07
-1.34749e-05
1.67462e-07
-1.35568e-05
1.73348e-07
-1.36425e-05
1.81044e-07
-1.37331e-05
1.90952e-07
-1.383e-05
2.03591e-07
-1.39349e-05
2.19639e-07
-1.405e-05
2.4e-07
-1.4178e-05
2.65914e-07
-1.43228e-05
2.99124e-07
-1.44893e-05
3.42197e-07
-1.46848e-05
3.99133e-07
-1.49197e-05
4.76642e-07
-1.52095e-05
5.86851e-07
-1.5577e-05
7.5295e-07
-1.60536e-05
1.02001e-06
-1.6672e-05
1.47205e-06
-1.74355e-05
2.25084e-06
-1.82221e-05
3.56318e-06
5.61508e-06
-1.85334e-05
-5.06687e-08
1.13411e-07
-1.69277e-07
3.06892e-07
-3.30642e-07
4.38668e-07
-5.15864e-07
5.1352e-07
-7.12782e-07
5.49684e-07
-9.14761e-07
5.64607e-07
-1.11865e-06
5.69708e-07
-1.3231e-06
5.7088e-07
-1.52759e-06
5.70656e-07
-1.73189e-06
5.69968e-07
-1.93591e-06
5.69111e-07
-2.13959e-06
5.68162e-07
-2.3429e-06
5.67133e-07
-2.54579e-06
5.66023e-07
-2.74823e-06
5.64827e-07
-2.95018e-06
5.63543e-07
-3.15162e-06
5.62168e-07
-3.35249e-06
5.607e-07
-3.55277e-06
5.59139e-07
-3.75242e-06
5.57484e-07
-3.9514e-06
5.55734e-07
-4.14969e-06
5.53889e-07
-4.34724e-06
5.5195e-07
-4.54402e-06
5.49916e-07
-4.73999e-06
5.47787e-07
-4.93511e-06
5.45563e-07
-5.12936e-06
5.43245e-07
-5.3227e-06
5.40832e-07
-5.51509e-06
5.38325e-07
-5.7065e-06
5.35724e-07
-5.89688e-06
5.33029e-07
-6.08622e-06
5.30241e-07
-6.27447e-06
5.27359e-07
-6.46159e-06
5.24385e-07
-6.64756e-06
5.21317e-07
-6.83234e-06
5.18158e-07
-7.0159e-06
5.14907e-07
-7.1982e-06
5.11564e-07
-7.37921e-06
5.08129e-07
-7.55889e-06
5.04604e-07
-7.73722e-06
5.00989e-07
-7.91416e-06
4.97284e-07
-8.08967e-06
4.9349e-07
-8.26373e-06
4.89608e-07
-8.4363e-06
4.85638e-07
-8.60736e-06
4.81581e-07
-8.77686e-06
4.77437e-07
-8.94479e-06
4.73208e-07
-9.1111e-06
4.68894e-07
-9.27577e-06
4.64496e-07
-9.43877e-06
4.60016e-07
-9.60007e-06
4.55453e-07
-9.75964e-06
4.5081e-07
-9.91745e-06
4.46087e-07
-1.00735e-05
4.41287e-07
-1.02277e-05
4.3641e-07
-1.03801e-05
4.31458e-07
-1.05306e-05
4.26433e-07
-1.06792e-05
4.21336e-07
-1.08259e-05
4.1617e-07
-1.09707e-05
4.10937e-07
-1.11135e-05
4.05638e-07
-1.12543e-05
4.00277e-07
-1.13931e-05
3.94856e-07
-1.15299e-05
3.89378e-07
-1.16647e-05
3.83846e-07
-1.17974e-05
3.78264e-07
-1.1928e-05
3.72636e-07
-1.20565e-05
3.66966e-07
-1.2183e-05
3.61258e-07
-1.23073e-05
3.55518e-07
-1.24295e-05
3.49751e-07
-1.25496e-05
3.43963e-07
-1.26675e-05
3.38162e-07
-1.27833e-05
3.32353e-07
-1.2897e-05
3.26546e-07
-1.30086e-05
3.20749e-07
-1.31181e-05
3.14971e-07
-1.32254e-05
3.09225e-07
-1.33307e-05
3.03522e-07
-1.34339e-05
2.97876e-07
-1.35351e-05
2.92302e-07
-1.36342e-05
2.86818e-07
-1.37314e-05
2.81442e-07
-1.38267e-05
2.76196e-07
-1.39202e-05
2.71105e-07
-1.40118e-05
2.66197e-07
-1.41018e-05
2.61502e-07
-1.41901e-05
2.57056e-07
-1.42769e-05
2.52902e-07
-1.43623e-05
2.49085e-07
-1.44464e-05
2.4566e-07
-1.45295e-05
2.42691e-07
-1.46117e-05
2.4025e-07
-1.46932e-05
2.38425e-07
-1.47742e-05
2.37316e-07
-1.48552e-05
2.37043e-07
-1.49363e-05
2.3775e-07
-1.50181e-05
2.39607e-07
-1.5101e-05
2.42821e-07
-1.51856e-05
2.47646e-07
-1.52725e-05
2.54391e-07
-1.53626e-05
2.63442e-07
-1.54568e-05
2.75281e-07
-1.55564e-05
2.90523e-07
-1.56628e-05
3.09956e-07
-1.57777e-05
3.34611e-07
-1.59036e-05
3.6586e-07
-1.60433e-05
4.05564e-07
-1.62005e-05
4.56317e-07
-1.63801e-05
5.21854e-07
-1.65887e-05
6.07762e-07
-1.68349e-05
7.22807e-07
-1.71294e-05
8.81367e-07
-1.74843e-05
1.10779e-06
-1.79075e-05
1.44324e-06
-1.83888e-05
1.95331e-06
-1.88677e-05
2.72977e-06
-1.91767e-05
3.87217e-06
5.40846e-06
-1.89701e-05
-5.48814e-08
1.68293e-07
-1.8299e-07
4.35004e-07
-3.56013e-07
6.11691e-07
-5.5344e-07
7.10946e-07
-7.62567e-07
7.5881e-07
-9.76667e-07
7.78708e-07
-1.19262e-06
7.85663e-07
-1.40912e-06
7.8738e-07
-1.62565e-06
7.8718e-07
-1.84198e-06
7.86305e-07
-2.05803e-06
7.85159e-07
-2.27373e-06
7.83858e-07
-2.48902e-06
7.82429e-07
-2.70388e-06
7.80876e-07
-2.91824e-06
7.79197e-07
-3.13209e-06
7.77389e-07
-3.34537e-06
7.75452e-07
-3.55806e-06
7.73383e-07
-3.7701e-06
7.71182e-07
-3.98146e-06
7.68848e-07
-4.19211e-06
7.66381e-07
-4.402e-06
7.63781e-07
-4.6111e-06
7.61048e-07
-4.81937e-06
7.58182e-07
-5.02676e-06
7.55183e-07
-5.23325e-06
7.52051e-07
-5.43879e-06
7.48787e-07
-5.64335e-06
7.45391e-07
-5.84689e-06
7.41863e-07
-6.04937e-06
7.38203e-07
-6.25075e-06
7.34412e-07
-6.451e-06
7.30491e-07
-6.65008e-06
7.26439e-07
-6.84796e-06
7.22258e-07
-7.04459e-06
7.17947e-07
-7.23994e-06
7.13508e-07
-7.43397e-06
7.0894e-07
-7.62665e-06
7.04245e-07
-7.81795e-06
6.99423e-07
-8.00782e-06
6.94475e-07
-8.19623e-06
6.89402e-07
-8.38315e-06
6.84203e-07
-8.56854e-06
6.78882e-07
-8.75237e-06
6.73437e-07
-8.9346e-06
6.67871e-07
-9.1152e-06
6.62184e-07
-9.29414e-06
6.56377e-07
-9.47139e-06
6.50452e-07
-9.6469e-06
6.44409e-07
-9.82066e-06
6.38251e-07
-9.99262e-06
6.31978e-07
-1.01628e-05
6.25592e-07
-1.0331e-05
6.19095e-07
-1.04974e-05
6.12489e-07
-1.06619e-05
6.05775e-07
-1.08245e-05
5.98956e-07
-1.09851e-05
5.92034e-07
-1.11436e-05
5.85012e-07
-1.13002e-05
5.77891e-07
-1.14547e-05
5.70675e-07
-1.16071e-05
5.63368e-07
-1.17575e-05
5.55971e-07
-1.19057e-05
5.48488e-07
-1.20517e-05
5.40924e-07
-1.21956e-05
5.33282e-07
-1.23374e-05
5.25568e-07
-1.24769e-05
5.17785e-07
-1.26142e-05
5.0994e-07
-1.27493e-05
5.02038e-07
-1.28821e-05
4.94085e-07
-1.30127e-05
4.86089e-07
-1.3141e-05
4.78058e-07
-1.3267e-05
4.7e-07
-1.33908e-05
4.61923e-07
-1.35122e-05
4.53838e-07
-1.36315e-05
4.45757e-07
-1.37484e-05
4.3769e-07
-1.38631e-05
4.29653e-07
-1.39755e-05
4.2166e-07
-1.40857e-05
4.13728e-07
-1.41937e-05
4.05876e-07
-1.42995e-05
3.98124e-07
-1.44032e-05
3.90496e-07
-1.45048e-05
3.83018e-07
-1.46043e-05
3.75721e-07
-1.47018e-05
3.68636e-07
-1.47974e-05
3.61801e-07
-1.48912e-05
3.55261e-07
-1.49832e-05
3.49062e-07
-1.50736e-05
3.43261e-07
-1.51624e-05
3.37923e-07
-1.52499e-05
3.3312e-07
-1.53361e-05
3.28937e-07
-1.54213e-05
3.25475e-07
-1.55058e-05
3.2285e-07
-1.55896e-05
3.21196e-07
-1.56733e-05
3.20676e-07
-1.5757e-05
3.21482e-07
-1.58412e-05
3.23841e-07
-1.59265e-05
3.28031e-07
-1.60132e-05
3.34387e-07
-1.61021e-05
3.43318e-07
-1.6194e-05
3.55334e-07
-1.62898e-05
3.71067e-07
-1.63906e-05
3.91316e-07
-1.64977e-05
4.17101e-07
-1.66129e-05
4.49744e-07
-1.6738e-05
4.90979e-07
-1.68755e-05
5.43125e-07
-1.70286e-05
6.09341e-07
-1.72007e-05
6.94028e-07
-1.73965e-05
8.03481e-07
-1.76206e-05
9.46941e-07
-1.78775e-05
1.13831e-06
-1.81685e-05
1.39873e-06
-1.84849e-05
1.75968e-06
-1.87961e-05
2.26448e-06
-1.90293e-05
2.96295e-06
-1.90476e-05
3.89046e-06
5.01402e-06
-1.86531e-05
-5.62544e-08
2.24544e-07
-1.88397e-07
5.67149e-07
-3.66654e-07
7.89949e-07
-5.69592e-07
9.13884e-07
-7.84163e-07
9.7338e-07
-1.00358e-06
9.98124e-07
-1.22476e-06
1.00684e-06
-1.44643e-06
1.00905e-06
-1.6681e-06
1.00885e-06
-1.88957e-06
1.00778e-06
-2.11075e-06
1.00633e-06
-2.33156e-06
1.00468e-06
-2.55197e-06
1.00284e-06
-2.77192e-06
1.00083e-06
-2.99138e-06
9.98654e-07
-3.2103e-06
9.96307e-07
-3.42864e-06
9.9379e-07
-3.64636e-06
9.91101e-07
-3.86341e-06
9.8824e-07
-4.07977e-06
9.85206e-07
-4.29539e-06
9.81999e-07
-4.51023e-06
9.7862e-07
-4.72425e-06
9.75068e-07
-4.93741e-06
9.71343e-07
-5.14967e-06
9.67447e-07
-5.361e-06
9.63378e-07
-5.57135e-06
9.59138e-07
-5.78069e-06
9.54727e-07
-5.98897e-06
9.50145e-07
-6.19616e-06
9.45394e-07
-6.40222e-06
9.40472e-07
-6.60711e-06
9.35382e-07
-6.8108e-06
9.30124e-07
-7.01324e-06
9.24698e-07
-7.21439e-06
9.19105e-07
-7.41423e-06
9.13346e-07
-7.61271e-06
9.07422e-07
-7.8098e-06
9.01333e-07
-8.00546e-06
8.9508e-07
-8.19965e-06
8.88665e-07
-8.39233e-06
8.82088e-07
-8.58348e-06
8.75351e-07
-8.77305e-06
8.68455e-07
-8.96102e-06
8.614e-07
-9.14733e-06
8.54189e-07
-9.33197e-06
8.46823e-07
-9.5149e-06
8.39303e-07
-9.69608e-06
8.3163e-07
-9.87548e-06
8.23807e-07
-1.00531e-05
8.15836e-07
-1.02288e-05
8.07717e-07
-1.04027e-05
7.99454e-07
-1.05746e-05
7.91048e-07
-1.07446e-05
7.82502e-07
-1.09127e-05
7.73819e-07
-1.10787e-05
7.65e-07
-1.12427e-05
7.5605e-07
-1.14047e-05
7.46972e-07
-1.15646e-05
7.37768e-07
-1.17223e-05
7.28442e-07
-1.1878e-05
7.18998e-07
-1.20314e-05
7.09441e-07
-1.21827e-05
6.99775e-07
-1.23318e-05
6.90005e-07
-1.24787e-05
6.80136e-07
-1.26233e-05
6.70175e-07
-1.27656e-05
6.60127e-07
-1.29057e-05
6.49999e-07
-1.30434e-05
6.39799e-07
-1.31789e-05
6.29536e-07
-1.3312e-05
6.19217e-07
-1.34428e-05
6.08854e-07
-1.35713e-05
5.98456e-07
-1.36974e-05
5.88035e-07
-1.38211e-05
5.77605e-07
-1.39426e-05
5.67178e-07
-1.40616e-05
5.56772e-07
-1.41784e-05
5.46403e-07
-1.42928e-05
5.3609e-07
-1.44049e-05
5.25855e-07
-1.45148e-05
5.15721e-07
-1.46224e-05
5.05715e-07
-1.47277e-05
4.95866e-07
-1.48309e-05
4.86207e-07
-1.4932e-05
4.76776e-07
-1.5031e-05
4.67614e-07
-1.51279e-05
4.58768e-07
-1.5223e-05
4.50292e-07
-1.53162e-05
4.42247e-07
-1.54076e-05
4.34702e-07
-1.54974e-05
4.27738e-07
-1.55857e-05
4.21446e-07
-1.56727e-05
4.15932e-07
-1.57586e-05
4.11319e-07
-1.58435e-05
4.0775e-07
-1.59277e-05
4.05394e-07
-1.60114e-05
4.04447e-07
-1.60951e-05
4.05145e-07
-1.6179e-05
4.07767e-07
-1.62636e-05
4.12649e-07
-1.63495e-05
4.20195e-07
-1.6437e-05
4.30898e-07
-1.65271e-05
4.45364e-07
-1.66203e-05
4.64342e-07
-1.67178e-05
4.88768e-07
-1.68205e-05
5.19824e-07
-1.69298e-05
5.59018e-07
-1.70471e-05
6.08298e-07
-1.71742e-05
6.70208e-07
-1.7313e-05
7.48121e-07
-1.74655e-05
8.46566e-07
-1.76337e-05
9.7171e-07
-1.78188e-05
1.13205e-06
-1.80199e-05
1.33936e-06
-1.8231e-05
1.60981e-06
-1.8436e-05
1.96468e-06
-1.86005e-05
2.42902e-06
-1.86627e-05
3.02514e-06
-1.85291e-05
3.7569e-06
4.57992e-06
-1.8095e-05
-5.65148e-08
2.81057e-07
-1.9014e-07
7.00774e-07
-3.70539e-07
9.70349e-07
-5.75809e-07
1.11915e-06
-7.92684e-07
1.19025e-06
-1.01432e-06
1.21976e-06
-1.23764e-06
1.23016e-06
-1.46141e-06
1.23282e-06
-1.68515e-06
1.23259e-06
-1.90868e-06
1.23131e-06
-2.13191e-06
1.22956e-06
-2.35477e-06
1.22754e-06
-2.57721e-06
1.22529e-06
-2.7992e-06
1.22282e-06
-3.02069e-06
1.22014e-06
-3.24163e-06
1.21725e-06
-3.46199e-06
1.21415e-06
-3.68172e-06
1.21083e-06
-3.90078e-06
1.2073e-06
-4.11913e-06
1.20356e-06
-4.33674e-06
1.1996e-06
-4.55355e-06
1.19544e-06
-4.76954e-06
1.19105e-06
-4.98466e-06
1.18646e-06
-5.19887e-06
1.18166e-06
-5.41213e-06
1.17664e-06
-5.6244e-06
1.17141e-06
-5.83564e-06
1.16597e-06
-6.04582e-06
1.16032e-06
-6.25489e-06
1.15447e-06
-6.46282e-06
1.1484e-06
-6.66956e-06
1.14213e-06
-6.87509e-06
1.13565e-06
-7.07935e-06
1.12896e-06
-7.28232e-06
1.12207e-06
-7.48395e-06
1.11498e-06
-7.6842e-06
1.10768e-06
-7.88305e-06
1.10018e-06
-8.08045e-06
1.09248e-06
-8.27636e-06
1.08458e-06
-8.47075e-06
1.07648e-06
-8.66359e-06
1.06819e-06
-8.85483e-06
1.0597e-06
-9.04444e-06
1.05101e-06
-9.23238e-06
1.04214e-06
-9.41863e-06
1.03307e-06
-9.60314e-06
1.02382e-06
-9.78589e-06
1.01438e-06
-9.96683e-06
1.00475e-06
-1.01459e-05
9.94944e-07
-1.03232e-05
9.84958e-07
-1.04985e-05
9.74794e-07
-1.06719e-05
9.64456e-07
-1.08434e-05
9.53948e-07
-1.10128e-05
9.43271e-07
-1.11803e-05
9.32429e-07
-1.13456e-05
9.21426e-07
-1.15089e-05
9.10266e-07
-1.16701e-05
8.98953e-07
-1.18292e-05
8.87492e-07
-1.1986e-05
8.75886e-07
-1.21407e-05
8.64142e-07
-1.22932e-05
8.52265e-07
-1.24435e-05
8.40261e-07
-1.25915e-05
8.28137e-07
-1.27372e-05
8.15899e-07
-1.28807e-05
8.03556e-07
-1.30218e-05
7.91116e-07
-1.31606e-05
7.78588e-07
-1.3297e-05
7.65982e-07
-1.34311e-05
7.53308e-07
-1.35628e-05
7.40579e-07
-1.36922e-05
7.27808e-07
-1.38191e-05
7.15008e-07
-1.39437e-05
7.02195e-07
-1.40659e-05
6.89386e-07
-1.41858e-05
6.766e-07
-1.43032e-05
6.63859e-07
-1.44183e-05
6.51184e-07
-1.45311e-05
6.38601e-07
-1.46415e-05
6.26139e-07
-1.47496e-05
6.13829e-07
-1.48554e-05
6.01707e-07
-1.4959e-05
5.89811e-07
-1.50604e-05
5.78186e-07
-1.51597e-05
5.66882e-07
-1.52569e-05
5.55954e-07
-1.53521e-05
5.45467e-07
-1.54453e-05
5.35492e-07
-1.55367e-05
5.26112e-07
-1.56264e-05
5.17419e-07
-1.57145e-05
5.09523e-07
-1.58011e-05
5.02547e-07
-1.58864e-05
4.96634e-07
-1.59706e-05
4.91951e-07
-1.60539e-05
4.88694e-07
-1.61366e-05
4.87089e-07
-1.62188e-05
4.87408e-07
-1.6301e-05
4.89969e-07
-1.63835e-05
4.95153e-07
-1.64668e-05
5.03418e-07
-1.65512e-05
5.15317e-07
-1.66373e-05
5.3152e-07
-1.67258e-05
5.52852e-07
-1.68174e-05
5.80328e-07
-1.69128e-05
6.15212e-07
-1.70129e-05
6.5909e-07
-1.71185e-05
7.13967e-07
-1.72307e-05
7.82395e-07
-1.73502e-05
8.67653e-07
-1.74776e-05
9.73971e-07
-1.76128e-05
1.10683e-06
-1.7754e-05
1.27331e-06
-1.78971e-05
1.48248e-06
-1.80329e-05
1.74556e-06
-1.81437e-05
2.0755e-06
-1.81995e-05
2.48483e-06
-1.81547e-05
2.98029e-06
-1.79507e-05
3.55294e-06
4.16359e-06
-1.75344e-05
-5.64686e-08
3.37525e-07
-1.90581e-07
8.34884e-07
-3.71836e-07
1.1516e-06
-5.78106e-07
1.32542e-06
-7.95993e-07
1.40814e-06
-1.01861e-06
1.44237e-06
-1.24286e-06
1.45442e-06
-1.46753e-06
1.45749e-06
-1.69214e-06
1.45721e-06
-1.91653e-06
1.4557e-06
-2.14061e-06
1.45364e-06
-2.36432e-06
1.45125e-06
-2.58762e-06
1.44858e-06
-2.81045e-06
1.44565e-06
-3.03278e-06
1.44247e-06
-3.25457e-06
1.43903e-06
-3.47576e-06
1.43534e-06
-3.69633e-06
1.4314e-06
-3.91623e-06
1.4272e-06
-4.13541e-06
1.42274e-06
-4.35384e-06
1.41804e-06
-4.57148e-06
1.41307e-06
-4.78829e-06
1.40786e-06
-5.00422e-06
1.40239e-06
-5.21924e-06
1.39668e-06
-5.43331e-06
1.39071e-06
-5.64638e-06
1.38448e-06
-5.85843e-06
1.37801e-06
-6.0694e-06
1.37129e-06
-6.27926e-06
1.36433e-06
-6.48797e-06
1.35711e-06
-6.69549e-06
1.34965e-06
-6.90178e-06
1.34194e-06
-7.10681e-06
1.33399e-06
-7.31053e-06
1.32579e-06
-7.51291e-06
1.31736e-06
-7.71391e-06
1.30868e-06
-7.9135e-06
1.29976e-06
-8.11163e-06
1.29061e-06
-8.30826e-06
1.28122e-06
-8.50337e-06
1.27159e-06
-8.69692e-06
1.26173e-06
-8.88886e-06
1.25164e-06
-9.07916e-06
1.24132e-06
-9.26779e-06
1.23077e-06
-9.45472e-06
1.21999e-06
-9.6399e-06
1.209e-06
-9.8233e-06
1.19778e-06
-1.00049e-05
1.18634e-06
-1.01846e-05
1.17469e-06
-1.03625e-05
1.16283e-06
-1.05385e-05
1.15076e-06
-1.07125e-05
1.13848e-06
-1.08845e-05
1.12599e-06
-1.10546e-05
1.11331e-06
-1.12226e-05
1.10044e-06
-1.13885e-05
1.08737e-06
-1.15524e-05
1.07412e-06
-1.17141e-05
1.06068e-06
-1.18737e-05
1.04707e-06
-1.20311e-05
1.03329e-06
-1.21863e-05
1.01935e-06
-1.23393e-05
1.00525e-06
-1.249e-05
9.90995e-07
-1.26385e-05
9.766e-07
-1.27847e-05
9.62071e-07
-1.29285e-05
9.47417e-07
-1.30701e-05
9.32647e-07
-1.32092e-05
9.17773e-07
-1.33461e-05
9.02805e-07
-1.34805e-05
8.87757e-07
-1.36126e-05
8.72642e-07
-1.37422e-05
8.57474e-07
-1.38695e-05
8.42272e-07
-1.39944e-05
8.27052e-07
-1.41168e-05
8.11834e-07
-1.42368e-05
7.96641e-07
-1.43545e-05
7.81496e-07
-1.44697e-05
7.66426e-07
-1.45826e-05
7.5146e-07
-1.46931e-05
7.36632e-07
-1.48012e-05
7.21976e-07
-1.49071e-05
7.07534e-07
-1.50106e-05
6.9335e-07
-1.51119e-05
6.79476e-07
-1.5211e-05
6.65968e-07
-1.53079e-05
6.5289e-07
-1.54028e-05
6.40314e-07
-1.54956e-05
6.28321e-07
-1.55865e-05
6.17006e-07
-1.56755e-05
6.06473e-07
-1.57628e-05
5.96845e-07
-1.58486e-05
5.88259e-07
-1.59328e-05
5.80876e-07
-1.60157e-05
5.74883e-07
-1.60975e-05
5.70494e-07
-1.61784e-05
5.67961e-07
-1.62586e-05
5.67581e-07
-1.63383e-05
5.69699e-07
-1.64179e-05
5.7473e-07
-1.64976e-05
5.83163e-07
-1.65779e-05
5.95586e-07
-1.66591e-05
6.12704e-07
-1.67416e-05
6.35374e-07
-1.68259e-05
6.64635e-07
-1.69125e-05
7.0176e-07
-1.70017e-05
7.48314e-07
-1.70939e-05
8.0623e-07
-1.71895e-05
8.77901e-07
-1.72881e-05
9.66295e-07
-1.73892e-05
1.07509e-06
-1.74912e-05
1.2088e-06
-1.75908e-05
1.37291e-06
-1.76822e-05
1.57385e-06
-1.77554e-05
1.81877e-06
-1.77945e-05
2.11466e-06
-1.7776e-05
2.46635e-06
-1.76686e-05
2.8728e-06
-1.74371e-05
3.32145e-06
3.78173e-06
-1.70552e-05
-5.63985e-08
3.93925e-07
-1.90687e-07
9.69171e-07
-3.72335e-07
1.33325e-06
-5.79112e-07
1.5322e-06
-7.9754e-07
1.62657e-06
-1.02069e-06
1.66552e-06
-1.24545e-06
1.67919e-06
-1.47061e-06
1.68265e-06
-1.69571e-06
1.68231e-06
-1.92056e-06
1.68055e-06
-2.1451e-06
1.67818e-06
-2.36927e-06
1.67541e-06
-2.59302e-06
1.67233e-06
-2.8163e-06
1.66894e-06
-3.03908e-06
1.66525e-06
-3.26132e-06
1.66127e-06
-3.48296e-06
1.65699e-06
-3.70397e-06
1.65241e-06
-3.92432e-06
1.64754e-06
-4.14394e-06
1.64237e-06
-4.36282e-06
1.63691e-06
-4.5809e-06
1.63116e-06
-4.79815e-06
1.62511e-06
-5.01452e-06
1.61877e-06
-5.22998e-06
1.61213e-06
-5.44448e-06
1.60521e-06
-5.65798e-06
1.59799e-06
-5.87046e-06
1.59049e-06
-6.08186e-06
1.58269e-06
-6.29214e-06
1.57461e-06
-6.50127e-06
1.56624e-06
-6.70922e-06
1.55759e-06
-6.91593e-06
1.54865e-06
-7.12137e-06
1.53943e-06
-7.32551e-06
1.52993e-06
-7.5283e-06
1.52015e-06
-7.72971e-06
1.51009e-06
-7.92969e-06
1.49975e-06
-8.12822e-06
1.48914e-06
-8.32526e-06
1.47825e-06
-8.52076e-06
1.46709e-06
-8.71469e-06
1.45566e-06
-8.90702e-06
1.44396e-06
-9.0977e-06
1.432e-06
-9.28671e-06
1.41978e-06
-9.47401e-06
1.40729e-06
-9.65956e-06
1.39455e-06
-9.84333e-06
1.38155e-06
-1.00253e-05
1.3683e-06
-1.02054e-05
1.3548e-06
-1.03836e-05
1.34105e-06
-1.05599e-05
1.32706e-06
-1.07343e-05
1.31283e-06
-1.09066e-05
1.29837e-06
-1.1077e-05
1.28368e-06
-1.12453e-05
1.26876e-06
-1.14116e-05
1.25362e-06
-1.15757e-05
1.23827e-06
-1.17378e-05
1.22271e-06
-1.18976e-05
1.20694e-06
-1.20553e-05
1.19098e-06
-1.22108e-05
1.17482e-06
-1.2364e-05
1.15849e-06
-1.2515e-05
1.14198e-06
-1.26637e-05
1.1253e-06
-1.28101e-05
1.10847e-06
-1.29542e-05
1.09149e-06
-1.30959e-05
1.07438e-06
-1.32353e-05
1.05715e-06
-1.33723e-05
1.0398e-06
-1.35069e-05
1.02236e-06
-1.36391e-05
1.00484e-06
-1.37689e-05
9.87262e-07
-1.38963e-05
9.69636e-07
-1.40212e-05
9.51987e-07
-1.41437e-05
9.34336e-07
-1.42638e-05
9.16709e-07
-1.43814e-05
8.99132e-07
-1.44966e-05
8.81635e-07
-1.46094e-05
8.64251e-07
-1.47198e-05
8.47017e-07
-1.48278e-05
8.29973e-07
-1.49334e-05
8.13164e-07
-1.50367e-05
7.9664e-07
-1.51377e-05
7.80457e-07
-1.52364e-05
7.64679e-07
-1.53329e-05
7.49375e-07
-1.54272e-05
7.34626e-07
-1.55194e-05
7.20522e-07
-1.56095e-05
7.07164e-07
-1.56977e-05
6.94667e-07
-1.57841e-05
6.83165e-07
-1.58686e-05
6.72807e-07
-1.59515e-05
6.63767e-07
-1.60329e-05
6.56244e-07
-1.61128e-05
6.50469e-07
-1.61916e-05
6.46709e-07
-1.62693e-05
6.45277e-07
-1.63461e-05
6.46538e-07
-1.64223e-05
6.50919e-07
-1.64981e-05
6.58926e-07
-1.65736e-05
6.71157e-07
-1.66493e-05
6.88325e-07
-1.67252e-05
7.11279e-07
-1.68016e-05
7.41035e-07
-1.68786e-05
7.78816e-07
-1.69564e-05
8.26091e-07
-1.70348e-05
8.84628e-07
-1.71135e-05
9.56555e-07
-1.71916e-05
1.04441e-06
-1.72677e-05
1.15121e-06
-1.73394e-05
1.28046e-06
-1.74026e-05
1.43612e-06
-1.74512e-05
1.62244e-06
-1.74759e-05
1.84349e-06
-1.74636e-05
2.10239e-06
-1.73969e-05
2.39964e-06
-1.72549e-05
2.73085e-06
-1.70172e-05
3.08372e-06
3.43548e-06
-1.6671e-05
-5.63699e-08
4.50295e-07
-1.90774e-07
1.10357e-06
-3.72684e-07
1.51516e-06
-5.79814e-07
1.73933e-06
-7.98636e-07
1.84539e-06
-1.02218e-06
1.88907e-06
-1.24735e-06
1.90435e-06
-1.47289e-06
1.90819e-06
-1.69836e-06
1.90778e-06
-1.92358e-06
1.90578e-06
-2.14848e-06
1.90308e-06
-2.37301e-06
1.89994e-06
-2.59711e-06
1.89643e-06
-2.82075e-06
1.89258e-06
-3.04388e-06
1.88839e-06
-3.26647e-06
1.88385e-06
-3.48846e-06
1.87898e-06
-3.70983e-06
1.87377e-06
-3.93052e-06
1.86823e-06
-4.1505e-06
1.86235e-06
-4.36972e-06
1.85613e-06
-4.58815e-06
1.84958e-06
-4.80574e-06
1.8427e-06
-5.02246e-06
1.83548e-06
-5.23826e-06
1.82793e-06
-5.4531e-06
1.82005e-06
-5.66695e-06
1.81184e-06
-5.87976e-06
1.8033e-06
-6.0915e-06
1.79443e-06
-6.30212e-06
1.78523e-06
-6.51159e-06
1.77571e-06
-6.71987e-06
1.76587e-06
-6.92691e-06
1.7557e-06
-7.13268e-06
1.74521e-06
-7.33715e-06
1.7344e-06
-7.54027e-06
1.72327e-06
-7.742e-06
1.71182e-06
-7.94231e-06
1.70006e-06
-8.14116e-06
1.68798e-06
-8.33851e-06
1.6756e-06
-8.53432e-06
1.66291e-06
-8.72857e-06
1.64991e-06
-8.9212e-06
1.6366e-06
-9.1122e-06
1.623e-06
-9.30151e-06
1.60909e-06
-9.48911e-06
1.59489e-06
-9.67495e-06
1.58039e-06
-9.85901e-06
1.56561e-06
-1.00413e-05
1.55054e-06
-1.02216e-05
1.53518e-06
-1.04001e-05
1.51955e-06
-1.05767e-05
1.50364e-06
-1.07514e-05
1.48746e-06
-1.0924e-05
1.47102e-06
-1.10946e-05
1.45431e-06
-1.12632e-05
1.43734e-06
-1.14297e-05
1.42013e-06
-1.15941e-05
1.40267e-06
-1.17564e-05
1.38497e-06
-1.19165e-05
1.36704e-06
-1.20744e-05
1.34889e-06
-1.22301e-05
1.33051e-06
-1.23835e-05
1.31194e-06
-1.25347e-05
1.29316e-06
-1.26836e-05
1.27419e-06
-1.28302e-05
1.25504e-06
-1.29744e-05
1.23573e-06
-1.31163e-05
1.21626e-06
-1.32558e-05
1.19665e-06
-1.33929e-05
1.17692e-06
-1.35276e-05
1.15707e-06
-1.36599e-05
1.13713e-06
-1.37898e-05
1.11712e-06
-1.39172e-05
1.09705e-06
-1.40421e-05
1.07694e-06
-1.41646e-05
1.05684e-06
-1.42847e-05
1.03675e-06
-1.44022e-05
1.01671e-06
-1.45173e-05
9.96749e-07
-1.463e-05
9.7691e-07
-1.47402e-05
9.57229e-07
-1.4848e-05
9.3775e-07
-1.49533e-05
9.18523e-07
-1.50563e-05
8.99601e-07
-1.51569e-05
8.81046e-07
-1.52551e-05
8.62926e-07
-1.53511e-05
8.45317e-07
-1.54448e-05
8.28304e-07
-1.55362e-05
8.11984e-07
-1.56255e-05
7.96466e-07
-1.57127e-05
7.81872e-07
-1.57979e-05
7.68343e-07
-1.58811e-05
7.56038e-07
-1.59625e-05
7.45138e-07
-1.60421e-05
7.35853e-07
-1.61201e-05
7.28421e-07
-1.61965e-05
7.23119e-07
-1.62715e-05
7.20267e-07
-1.63452e-05
7.20234e-07
-1.64177e-05
7.23453e-07
-1.64892e-05
7.30428e-07
-1.65598e-05
7.41747e-07