/*--------------------------------*- C++ -*----------------------------------*\
  =========                 |
  \\      /  F ield         | OpenFOAM: The Open Source CFD Toolbox
   \\    /   O peration     | Website:  https://openfoam.org
    \\  /    A nd           | Version:  8
     \\/     M anipulation  |
\*---------------------------------------------------------------------------*/
FoamFile
{
    version     2.0;
    format      ascii;
    class       surfaceScalarField;
    location    "39";
    object      phi;
}
// * * * * * * * * * * * * * * * * * * * * * * * * * * * * * * * * * * * * * //

dimensions      [0 3 -1 0 0 0 0];

internalField   nonuniform List<scalar> 
880
(
-1.57796e-05
1.57796e-05
-3.25607e-05
1.67811e-05
-4.86818e-05
1.6121e-05
-6.37818e-05
1.51e-05
-7.75465e-05
1.37647e-05
-8.96808e-05
1.21343e-05
-9.99681e-05
1.02874e-05
-0.000108104
8.13547e-06
-0.000114285
6.1817e-06
-0.000117602
3.31711e-06
-0.000120122
2.51993e-06
4.58534e-08
-0.000120168
-1.74465e-05
3.32261e-05
-3.59506e-05
3.52853e-05
-5.37233e-05
3.38937e-05
-7.03672e-05
3.1744e-05
-8.55459e-05
2.89434e-05
-9.89573e-05
2.55457e-05
-0.000110389
2.17194e-05
-0.00011957
1.7316e-05
-0.000126726
1.33377e-05
-0.000131152
7.74287e-06
-0.000134861
6.22943e-06
-1.41534e-06
-0.0001334
-1.81782e-05
5.14043e-05
-3.74573e-05
5.45644e-05
-5.59609e-05
5.23972e-05
-7.32581e-05
4.90413e-05
-8.89727e-05
4.46579e-05
-0.000102744
3.93171e-05
-0.000114225
3.32003e-05
-0.000123171
2.62615e-05
-0.000129153
1.93204e-05
-0.000132306
1.08956e-05
-0.000131368
5.29092e-06
-5.24305e-06
-0.00012754
-1.92574e-05
7.06617e-05
-3.96864e-05
7.49934e-05
-5.92995e-05
7.20103e-05
-7.76475e-05
6.73892e-05
-9.43595e-05
6.137e-05
-0.000109115
5.40721e-05
-0.000121615
4.57011e-05
-0.000131587
3.62328e-05
-0.000138499
2.62329e-05
-0.000142361
1.47572e-05
-0.000141589
4.51962e-06
-9.14336e-06
-0.000137689
-2.07352e-05
9.13969e-05
-4.27336e-05
9.69918e-05
-6.38473e-05
9.31241e-05
-8.35729e-05
8.71148e-05
-0.000101499
7.92962e-05
-0.00011719
6.97625e-05
-0.000130258
5.87698e-05
-0.000140432
4.64069e-05
-0.000147376
3.31764e-05
-0.000151249
1.86307e-05
-0.000151184
4.45413e-06
-1.25167e-05
-0.00014781
-2.26693e-05
0.000114066
-4.67174e-05
0.00012104
-6.98039e-05
0.000116211
-9.13671e-05
0.000108678
-0.000111029
9.89577e-05
-0.000128414
8.71481e-05
-0.000143307
7.3663e-05
-0.000155299
5.83988e-05
-0.00016385
4.1727e-05
-0.000168708
2.34885e-05
-0.000168639
4.38535e-06
-1.60908e-05
-0.000165065
-2.50266e-05
0.000139093
-5.16007e-05
0.000147614
-7.71176e-05
0.000141727
-0.000100928
0.000132489
-0.000122573
0.000120602
-0.000141504
0.00010608
-0.000157321
8.94799e-05
-0.000169846
7.09229e-05
-0.000178952
5.08338e-05
-0.000184668
2.92037e-05
-0.000186892
6.61004e-06
-1.81585e-05
-0.000184825
-2.81251e-05
0.000167218
-5.78794e-05
0.000177368
-8.64257e-05
0.000170274
-0.000112896
0.000158959
-0.000137148
0.000144855
-0.000158699
0.00012763
-0.000177496
0.000108277
-0.000192926
8.63524e-05
-0.000204557
6.24655e-05
-0.000211905
3.65515e-05
-0.000214106
8.81124e-06
-2.04728e-05
-0.000211792
-3.13374e-05
0.000198555
-6.46981e-05
0.000210729
-9.66585e-05
0.000202234
-0.000126384
0.000188684
-0.000153437
0.000171908
-0.000176805
0.000150998
-0.000196447
0.000127919
-0.000212324
0.00010223
-0.000224526
7.46675e-05
-0.000233105
4.51304e-05
-0.000238513
1.42191e-05
-2.01791e-05
-0.000238806
-3.64437e-05
0.000234999
-7.46057e-05
0.000248891
-0.000111157
0.000238785
-0.000144421
0.000221948
-0.000175184
0.000202671
-0.000202323
0.000178137
-0.000226304
0.000151901
-0.000246267
0.000122192
-0.000262205
9.0606e-05
-0.000273521
5.64465e-05
-0.000279673
2.03712e-05
-1.99187e-05
-0.000279934
-3.99255e-05
0.000274925
-8.33194e-05
0.000292285
-0.000123887
0.000279352
-0.000161964
0.000260025
-0.000195573
0.00023628
-0.000224584
0.000207147
-0.000249106
0.000176423
-0.000269063
0.000142149
-0.000285069
0.000106613
-0.000297056
6.84333e-05
-0.000307122
3.04371e-05
-1.56871e-05
-0.000311354
-5.02458e-05
0.00032517
-9.9716e-05
0.000341755
-0.000148611
0.000328247
-0.000189827
0.000301242
-0.000229112
0.000275566
-0.000261832
0.000239867
-0.000291572
0.000206163
-0.0003163
0.000166877
-0.000337605
0.000127917
-0.000354086
8.49147e-05
-0.000367326
4.36773e-05
-1.01898e-05
-0.000372823
-4.85268e-05
0.000373697
-0.000109345
0.000402573
-0.000160443
0.000379346
-0.000212379
0.000353177
-0.000253359
0.000316546
-0.000289849
0.000276357
-0.000318767
0.000235081
-0.000341995
0.000190106
-0.000361238
0.000147159
-0.000375892
9.95692e-05
-0.000390899
5.86842e-05
1.72224e-07
-0.000401261
-7.92109e-05
0.000452908
-0.000139888
0.00046325
-0.000206033
0.000445491
-0.000254044
0.000401188
-0.000301476
0.000363978
-0.000338961
0.000313841
-0.000373375
0.000269495
-0.000401945
0.000218676
-0.000428574
0.000173788
-0.000450918
0.000121914
-0.000474222
8.19882e-05
1.55825e-05
-0.000489633
-4.71336e-05
0.000500042
-0.000145376
0.000561492
-0.000214564
0.000514679
-0.000289076
0.0004757
-0.000339226
0.000414129
-0.000382068
0.000356683
-0.000411478
0.000298906
-0.000434356
0.000241554
-0.000452477
0.000191909
-0.000466788
0.000136225
-0.000483335
9.85345e-05
3.06616e-05
-0.000498414
-0.000160415
0.000660457
-0.000212212
0.000613288
-0.000295018
0.000597486
-0.000345671
0.000526352
-0.000395067
0.000463525
-0.000435943
0.000397559
-0.000469635
0.000332599
-0.000499362
0.00027128
-0.000527094
0.00021964
-0.000553236
0.000162367
-0.000585819
0.000131118
6.10325e-05
-0.00061619
-7.26254e-07
0.000661183
-0.000198296
0.000810858
-0.000315631
0.000714821
-0.000422058
0.000632779
-0.000481262
0.00052273
-0.000518907
0.000435204
-0.000539027
0.000352719
-0.000550054
0.000282307
-0.000556806
0.000226393
-0.000562516
0.000168077
-0.00056978
0.000138382
7.32158e-05
-0.000581963
-0.000179883
0.000841067
-0.000236071
0.000867045
-0.000339995
0.000818746
-0.000452045
0.000744828
-0.000497546
0.000568231
-0.000552759
0.000490417
-0.000577952
0.000377912
-0.0006027
0.000307054
-0.000620879
0.000244571
-0.00064116
0.000188359
-0.000670596
0.000167817
0.00011141
-0.00070879
-0.00115331
0.00199438
-0.00117163
0.000885365
-0.00123275
0.000879867
-0.00108756
0.000599629
-0.000988626
0.000469302
-0.000851312
0.000353103
-0.000747109
0.000273709
-0.000652187
0.000212133
-0.000574556
0.00016694
-0.000515398
0.000129201
-0.000454158
0.000106577
7.77237e-05
-0.000420472
0.00199438
0.00287974
0.00375961
0.00435924
0.00482854
0.00518165
0.00545535
0.00566749
0.00583443
0.00596363
0.0060702
0.00614793
-9.53053e-05
3.77668e-05
-6.26297e-05
-7.4097e-05
1.58793e-05
-3.70876e-05
-6.08457e-05
-3.25768e-06
-9.99363e-06
-4.82267e-05
-1.7823e-05
5.20401e-06
-3.6381e-05
-2.93229e-05
1.74772e-05
-2.41214e-05
-3.77349e-05
2.54753e-05
-1.17162e-05
-4.32058e-05
3.08006e-05
-4.247e-05
3.07538e-05
-0.000105395
9.76153e-06
-8.28961e-05
-6.61932e-06
-6.83297e-05
-1.7824e-05
-5.43654e-05
-3.17874e-05
-4.12227e-05
-4.24656e-05
-2.74576e-05
-5.15e-05
-1.33643e-05
-5.72991e-05
-5.58344e-05
-0.000113479
-4.29943e-06
-9.94587e-05
-2.06394e-05
-8.45182e-05
-3.27645e-05
-6.89305e-05
-4.7375e-05
-5.24294e-05
-5.89667e-05
-3.50579e-05
-6.88715e-05
-1.70648e-05
-7.52922e-05
-7.28992e-05
-0.000124215
-1.77736e-05
-0.0001104
-3.44543e-05
-9.47794e-05
-4.8385e-05
-7.80551e-05
-6.40994e-05
-5.98766e-05
-7.71452e-05
-4.02793e-05
-8.84688e-05
-1.96958e-05
-9.58756e-05
-9.2595e-05
-0.000138602
-2.69825e-05
-0.000126659
-4.63973e-05
-0.000111192
-6.38515e-05
-9.28811e-05
-8.24105e-05
-7.20739e-05
-9.79524e-05
-4.8708e-05
-0.000111835
-2.39539e-05
-0.00012063
-0.000116549
-0.000155869
-3.6178e-05
-0.000143556
-5.87104e-05
-0.000127251
-8.01566e-05
-0.00010718
-0.000102482
-8.39776e-05
-0.000121154
-5.70726e-05
-0.00013874
-2.82782e-05
-0.000149424
-0.000144827
-0.000177779
-4.32238e-05
-0.000165602
-7.08876e-05
-0.000149255
-9.65032e-05
-0.000126666
-0.000125071
-0.000100844
-0.000146976
-6.86346e-05
-0.000170949
-3.45911e-05
-0.000183468
-0.000179418
-0.000204806
-5.02098e-05
-0.000192225
-8.34682e-05
-0.000175043
-0.000113686
-0.000150056
-0.000150058
-0.000120892
-0.00017614
-8.29301e-05
-0.000208912
-4.23016e-05
-0.000224096
-0.00022172
-0.000234817
-5.41989e-05
-0.000222341
-9.59447e-05
-0.000206601
-0.000129426
-0.00017846
-0.000178199
-0.000147499
-0.000207101
-0.000101471
-0.00025494
-5.35449e-05
-0.000272022
-0.000275265
-0.000276732
-5.74005e-05
-0.000264996
-0.000107681
-0.000249164
-0.000145258
-0.000218817
-0.000208545
-0.000183606
-0.000242312
-0.000128394
-0.000310152
-6.91263e-05
-0.00033129
-0.000344391
-0.000313771
-5.49835e-05
-0.000303346
-0.000118105
-0.000293183
-0.000155422
-0.000260876
-0.000240852
-0.00022847
-0.000274718
-0.000161775
-0.000376847
-9.36258e-05
-0.000399439
-0.000438017
-0.000378119
-4.96879e-05
-0.000372137
-0.000124087
-0.000365148
-0.000162411
-0.000333838
-0.000272162
-0.000298414
-0.000310142
-0.000218576
-0.000456684
-0.000131422
-0.000486594
-0.000569439
-0.000414921
-3.60283e-05
-0.000412839
-0.000126169
-0.000420135
-0.000155115
-0.000394234
-0.000298063
-0.000377759
-0.000326617
-0.000288672
-0.000545771
-0.000199565
-0.000575701
-0.000769003
-0.000511546
-1.4115e-05
-0.000522601
-0.000115113
-0.000542669
-0.000135048
-0.000529826
-0.000310905
-0.000521705
-0.000334738
-0.000425219
-0.000642257
-0.000315343
-0.000685577
-0.00108435
-0.000525416
1.28872e-05
-0.00054187
-9.86597e-05
-0.00058636
-9.05568e-05
-0.000600138
-0.000297128
-0.00065732
-0.000277557
-0.000596119
-0.000703458
-0.000551586
-0.000730111
-0.00163593
-0.000664684
6.13818e-05
-0.000710009
-5.33345e-05
-0.000787948
-1.26179e-05
-0.000846421
-0.000238655
-0.000952061
-0.000171916
-0.000941022
-0.000714497
-0.000924742
-0.000746391
-0.00256067
-0.000605714
8.51329e-05
-0.000639717
-1.93319e-05
-0.000721672
6.93376e-05
-0.000824881
-0.000135446
-0.00105591
5.91173e-05
-0.00121367
-0.000556739
-0.00125894
-0.000701122
-0.00381961
-0.000774123
0.000150466
-0.000862894
6.94395e-05
-0.00100354
0.000209983
-0.00119002
5.10292e-05
-0.00136223
0.00023133
-0.00147927
-0.000439698
-0.000940202
-0.00124019
-0.00475982
-0.000346681
7.66752e-05
-0.000322073
4.48314e-05
-0.000170085
5.79954e-05
-0.000119106
4.94025e-08
0.000230484
-0.00011826
0.000331623
-0.000540836
0.000693048
-0.00160161
-0.00406677
0.0062246
0.00626943
0.00632743
0.00632748
0.00620922
0.00566838
0.00406677
-1.57423e-06
1.57423e-06
-2.96871e-06
1.39448e-06
-3.81323e-06
8.44523e-07
-4.04112e-06
2.27881e-07
-3.6306e-06
-4.1052e-07
-2.69567e-06
-9.34926e-07
-1.38122e-06
-1.31445e-06
-1.38122e-06
-1.82187e-06
3.3961e-06
-3.41446e-06
2.98707e-06
-4.35286e-06
1.78292e-06
-4.55161e-06
4.26629e-07
-4.05943e-06
-9.02703e-07
-3.00481e-06
-1.98954e-06
-1.53769e-06
-2.78157e-06
-2.91891e-06
-2.76176e-06
6.15786e-06
-5.06246e-06
5.28777e-06
-6.32656e-06
3.04702e-06
-6.59531e-06
6.95375e-07
-5.82998e-06
-1.66803e-06
-4.27653e-06
-3.543e-06
-2.1789e-06
-4.8792e-06
-5.09781e-06
-3.29704e-06
9.4549e-06
-5.97703e-06
7.96776e-06
-7.35109e-06
4.42109e-06
-7.44723e-06
7.91511e-07
-6.48934e-06
-2.62592e-06
-4.7309e-06
-5.30144e-06
-2.39895e-06
-7.21115e-06
-7.49676e-06
-6.3291e-06
1.5784e-05
-1.08703e-05
1.25089e-05
-1.27353e-05
6.28612e-06
-1.26875e-05
7.43639e-07
-1.08032e-05
-4.51017e-06
-7.7324e-06
-8.37225e-06
-3.88643e-06
-1.10571e-05
-1.13832e-05
-7.68312e-06
2.34671e-05
-1.3041e-05
1.78668e-05
-1.50326e-05
8.27776e-06
-1.45496e-05
2.60647e-07
-1.22604e-05
-6.79942e-06
-8.74436e-06
-1.18882e-05
-4.37958e-06
-1.54219e-05
-1.57628e-05
-1.75175e-05
4.09846e-05
-2.67746e-05
2.71239e-05
-2.78051e-05
9.30823e-06
-2.55245e-05
-2.02e-06
-2.05753e-05
-1.17485e-05
-1.42138e-05
-1.82498e-05
-7.02012e-06
-2.26156e-05
-2.27829e-05
-2.16451e-05
-3.16088e-05
-3.22942e-05
-2.91102e-05
-2.33815e-05
-1.6156e-05
-7.9709e-06
)
;

boundaryField
{
    movingWall
    {
        type            calculated;
        value           uniform 0;
    }
    fixedWalls
    {
        type            calculated;
        value           uniform 0;
    }
    frontAndBack
    {
        type            empty;
        value           nonuniform List<scalar> 0();
    }
}


// ************************************************************************* //
