/*--------------------------------*- C++ -*----------------------------------*\
  =========                 |
  \\      /  F ield         | OpenFOAM: The Open Source CFD Toolbox
   \\    /   O peration     | Website:  https://openfoam.org
    \\  /    A nd           | Version:  8
     \\/     M anipulation  |
\*---------------------------------------------------------------------------*/
FoamFile
{
    version     2.0;
    format      ascii;
    class       volVectorField;
    location    "39";
    object      U;
}
// * * * * * * * * * * * * * * * * * * * * * * * * * * * * * * * * * * * * * //

dimensions      [0 1 -1 0 0 0 0];

internalField   nonuniform List<vector> 
464
(
(-0.000151709 0.000150324 0)
(-0.000481723 0.000160097 0)
(-0.000818414 0.000153787 0)
(-0.0011297 0.000143971 0)
(-0.00141981 0.000130989 0)
(-0.00168131 0.000114821 0)
(-0.00190203 9.57139e-05 0)
(-0.0021019 7.24851e-05 0)
(-0.00221247 4.64652e-05 0)
(-0.00237228 1.21375e-05 0)
(-0.00231243 -1.94519e-05 0)
(-0.00251771 4.47169e-06 0)
(-0.00016798 0.00048315 0)
(-0.000532268 0.000513494 0)
(-0.000903337 0.000493329 0)
(-0.00124653 0.0004622 0)
(-0.00156639 0.000421659 0)
(-0.00185469 0.00037254 0)
(-0.00209977 0.000317814 0)
(-0.00232117 0.000255019 0)
(-0.0024517 0.000203204 0)
(-0.00263097 0.000122631 0)
(-0.00259572 0.000122654 0)
(-0.00282413 -2.26521e-06 0)
(-0.000175016 0.000843794 0)
(-0.000554603 0.000895761 0)
(-0.000941179 0.000860314 0)
(-0.00129819 0.000805491 0)
(-0.00163032 0.00073396 0)
(-0.0019272 0.000646947 0)
(-0.00217932 0.000547989 0)
(-0.00239113 0.000434115 0)
(-0.00252839 0.000325744 0)
(-0.00264678 0.00018293 0)
(-0.0026319 0.00012143 0)
(-0.00263809 -5.69725e-05 0)
(-0.000185401 0.00121432 0)
(-0.00058754 0.00128887 0)
(-0.000997307 0.00123769 0)
(-0.00137577 0.00115839 0)
(-0.00172848 0.00105482 0)
(-0.00204476 0.000928692 0)
(-0.00231718 0.000784066 0)
(-0.00254828 0.0006216 0)
(-0.00270799 0.000453583 0)
(-0.0028405 0.000258873 0)
(-0.00284019 9.55475e-05 0)
(-0.00283796 -0.000147044 0)
(-0.00019964 0.00161374 0)
(-0.000632622 0.0017125 0)
(-0.00107396 0.0016443 0)
(-0.00148114 0.00153852 0)
(-0.0018601 0.00140075 0)
(-0.00219803 0.00123294 0)
(-0.00248649 0.00103966 0)
(-0.00272163 0.000820853 0)
(-0.00289118 0.000587089 0)
(-0.00300485 0.000323329 0)
(-0.00303788 7.96626e-05 0)
(-0.0030159 -0.000227267 0)
(-0.000218356 0.00204217 0)
(-0.000691554 0.0021678 0)
(-0.00117423 0.00208187 0)
(-0.00161936 0.00194804 0)
(-0.00203407 0.00177382 0)
(-0.00240588 0.00156159 0)
(-0.00272934 0.00131775 0)
(-0.00300092 0.00104528 0)
(-0.00320571 0.000751794 0)
(-0.00334797 0.000432898 0)
(-0.0033909 0.000104992 0)
(-0.00336041 -0.000261566 0)
(-0.000241069 0.00252623 0)
(-0.00076351 0.00267941 0)
(-0.00129736 0.00257165 0)
(-0.00178922 0.00240322 0)
(-0.00224653 0.00218753 0)
(-0.00265407 0.0019243 0)
(-0.00300271 0.00162098 0)
(-0.00328742 0.00127767 0)
(-0.00350338 0.000901786 0)
(-0.00365145 0.000492145 0)
(-0.00373237 6.29841e-05 0)
(-0.00373873 -0.000397755 0)
(-0.000271871 0.00302907 0)
(-0.000857077 0.00321737 0)
(-0.00145483 0.0030907 0)
(-0.00200355 0.00289234 0)
(-0.00251299 0.00263748 0)
(-0.0029725 0.00232551 0)
(-0.00337611 0.00197143 0)
(-0.00372038 0.00157799 0)
(-0.00399163 0.00115276 0)
(-0.00418702 0.000695574 0)
(-0.00428095 0.000212303 0)
(-0.0042774 -0.000308694 0)
(-0.000302139 0.00367211 0)
(-0.000956165 0.00388926 0)
(-0.00162743 0.0037315 0)
(-0.00224249 0.00347491 0)
(-0.00281329 0.003163 0)
(-0.00332006 0.00277658 0)
(-0.00374995 0.00234126 0)
(-0.00410563 0.0018509 0)
(-0.00438519 0.00131806 0)
(-0.00459139 0.000740914 0)
(-0.00473633 0.000125603 0)
(-0.00479322 -0.000534838 0)
(-0.000357286 0.00425478 0)
(-0.00110593 0.0045276 0)
(-0.00187522 0.00434454 0)
(-0.00257226 0.00406608 0)
(-0.0032112 0.00371194 0)
(-0.00379451 0.00328192 0)
(-0.00430218 0.00280477 0)
(-0.00474444 0.00227359 0)
(-0.00510268 0.00170572 0)
(-0.00538036 0.00109803 0)
(-0.00555714 0.000464964 0)
(-0.0056109 -0.00024373 0)
(-0.000381743 0.00516037 0)
(-0.00122494 0.0054303 0)
(-0.0020948 0.00521874 0)
(-0.00287522 0.00479862 0)
(-0.00359699 0.00437926 0)
(-0.00422717 0.00380839 0)
(-0.00475736 0.00322879 0)
(-0.00520353 0.0025668 0)
(-0.00555913 0.00187059 0)
(-0.00583081 0.00111647 0)
(-0.0060767 0.000320081 0)
(-0.00616743 -0.000585414 0)
(-0.000520987 0.00583643 0)
(-0.00148763 0.0063135 0)
(-0.00251532 0.00597029 0)
(-0.003413 0.00566261 0)
(-0.00420088 0.00512191 0)
(-0.0049463 0.00453901 0)
(-0.00554453 0.00389006 0)
(-0.00610496 0.00318282 0)
(-0.00655547 0.00245589 0)
(-0.00693353 0.00167588 0)
(-0.00726029 0.00093947 0)
(-0.00738171 -9.19043e-06 0)
(-0.000386532 0.00711026 0)
(-0.00158063 0.00725443 0)
(-0.00274863 0.00709677 0)
(-0.00372381 0.00628296 0)
(-0.00471842 0.00582064 0)
(-0.00545926 0.00496433 0)
(-0.00611092 0.00427236 0)
(-0.00663553 0.00340964 0)
(-0.00706245 0.00258282 0)
(-0.00734454 0.00165187 0)
(-0.00775733 0.000751299 0)
(-0.00778887 -0.000427601 0)
(-0.00101216 0.00794414 0)
(-0.00213412 0.00900975 0)
(-0.00350116 0.00818272 0)
(-0.00469431 0.00800266 0)
(-0.00551691 0.00695647 0)
(-0.00649935 0.00621993 0)
(-0.00709954 0.00524109 0)
(-0.00779996 0.00429995 0)
(-0.0083173 0.00339953 0)
(-0.0087718 0.0024142 0)
(-0.00934277 0.00166865 0)
(-0.00952254 0.000438367 0)
(5.84087e-05 0.0100131 0)
(-0.00198738 0.00929272 0)
(-0.00374018 0.00948434 0)
(-0.00495199 0.00782776 0)
(-0.0064968 0.00744951 0)
(-0.00717536 0.00616171 0)
(-0.00802574 0.0054007 0)
(-0.00847403 0.00431655 0)
(-0.00894148 0.00343567 0)
(-0.00907155 0.00236173 0)
(-0.00972431 0.00151803 0)
(-0.00944604 0.000143658 0)
(-0.00277385 0.0101818 0)
(-0.00359095 0.0134808 0)
(-0.00497454 0.0113065 0)
(-0.00674324 0.0114952 0)
(-0.00716819 0.00931574 0)
(-0.0085624 0.00832867 0)
(-0.00894303 0.0067244 0)
(-0.00977576 0.00550347 0)
(-0.0102764 0.00437555 0)
(-0.0107019 0.00320256 0)
(-0.0115669 0.00253175 0)
(-0.0116858 0.00114403 0)
(0.00188412 0.0159986 0)
(-0.00192289 0.0106525 0)
(-0.00584279 0.0123341 0)
(-0.00699006 0.00918696 0)
(-0.00967833 0.00897509 0)
(-0.00976027 0.00729844 0)
(-0.0108421 0.00637877 0)
(-0.0108145 0.00515988 0)
(-0.0112322 0.00425409 0)
(-0.0109103 0.00315694 0)
(-0.0117738 0.00258171 0)
(-0.0107807 0.00120623 0)
(-0.00153372 0.0106115 0)
(-0.00557105 0.0223307 0)
(-0.00399512 0.0165948 0)
(-0.00948702 0.0166121 0)
(-0.00870754 0.0122538 0)
(-0.0111093 0.0104434 0)
(-0.0110848 0.00796412 0)
(-0.0119355 0.00634478 0)
(-0.0122933 0.00497003 0)
(-0.012374 0.00371097 0)
(-0.0134876 0.00309053 0)
(-0.013062 0.00182436 0)
(-0.0298381 0.0234927 0)
(-0.0169461 0.0116897 0)
(-0.0292868 0.0157307 0)
(-0.0206079 0.0125814 0)
(-0.0224176 0.0100928 0)
(-0.0174753 0.00878021 0)
(-0.016325 0.00688825 0)
(-0.0137004 0.00569869 0)
(-0.0124424 0.00463001 0)
(-0.0103762 0.00366315 0)
(-0.0104568 0.00346996 0)
(-0.00744656 0.00250402 0)
(0.0336974 0.0553161 0)
(0.047011 0.0243353 0)
(0.0673612 0.0198545 0)
(0.082606 0.0118588 0)
(0.0922199 0.00896286 0)
(0.100662 0.00561467 0)
(0.10658 0.00422775 0)
(0.111974 0.00293876 0)
(0.114288 0.00215566 0)
(0.11973 0.00160607 0)
(0.117998 0.000881791 0)
(0.125831 0.000689874 0)
(-0.00225838 0.00126812 0)
(-0.00157532 0.000695045 0)
(-0.00137644 0.000141495 0)
(-0.00106645 -0.000172532 0)
(-0.000856567 -0.00043245 0)
(-0.000602572 -0.00060243 0)
(-0.000359336 -0.000715493 0)
(-0.000111202 -0.00071043 0)
(-0.00247957 0.000265034 0)
(-0.00175972 -4.71837e-05 0)
(-0.0015422 -0.000266752 0)
(-0.00120104 -0.000530216 0)
(-0.000967064 -0.000729376 0)
(-0.000685906 -0.000896207 0)
(-0.000409196 -0.00100275 0)
(-0.000127448 -0.000979196 0)
(-0.00244504 0.000115847 0)
(-0.00210797 -0.000224765 0)
(-0.00185922 -0.000457631 0)
(-0.00152879 -0.000754619 0)
(-0.00122241 -0.000982995 0)
(-0.000877956 -0.00117698 0)
(-0.000520904 -0.00130166 0)
(-0.000164074 -0.00126572 0)
(-0.002651 -0.000281489 0)
(-0.00233198 -0.000587953 0)
(-0.00207234 -0.000837255 0)
(-0.00172623 -0.00112361 0)
(-0.00138985 -0.00135881 0)
(-0.00100767 -0.00156195 0)
(-0.000599907 -0.00169504 0)
(-0.000190443 -0.00163646 0)
(-0.00288575 -0.000442672 0)
(-0.00266349 -0.000807887 0)
(-0.0023951 -0.00111879 0)
(-0.00205012 -0.00146241 0)
(-0.00166078 -0.00174971 0)
(-0.00121797 -0.00199927 0)
(-0.000727145 -0.00216209 0)
(-0.000233384 -0.00208836 0)
(-0.00323168 -0.00061807 0)
(-0.00300782 -0.00102416 0)
(-0.00272708 -0.00140751 0)
(-0.0023572 -0.00180436 0)
(-0.00192705 -0.00213709 0)
(-0.00142524 -0.00244318 0)
(-0.000855203 -0.00263191 0)
(-0.00027784 -0.00254401 0)
(-0.0036483 -0.000853814 0)
(-0.00345259 -0.00135587 0)
(-0.003175 -0.00183592 0)
(-0.00277946 -0.00233549 0)
(-0.00229939 -0.00275303 0)
(-0.0017191 -0.00315128 0)
(-0.00103407 -0.00339138 0)
(-0.0003452 -0.00329385 0)
(-0.00419016 -0.000842607 0)
(-0.00399048 -0.00143814 0)
(-0.00370705 -0.00197391 0)
(-0.00327525 -0.00261302 0)
(-0.00274328 -0.00306523 0)
(-0.00207268 -0.00362577 0)
(-0.0012555 -0.00388293 0)
(-0.000429643 -0.0038217 0)
(-0.00477679 -0.0012069 0)
(-0.00458339 -0.00195347 0)
(-0.00434799 -0.00263912 0)
(-0.00387069 -0.00346083 0)
(-0.0033103 -0.00406248 0)
(-0.00254728 -0.00481425 0)
(-0.0015404 -0.00517095 0)
(-0.000583788 -0.00513365 0)
(-0.00560949 -0.000909963 0)
(-0.0054255 -0.00181759 0)
(-0.00521438 -0.00245307 0)
(-0.00470306 -0.00357436 0)
(-0.0040962 -0.00411272 0)
(-0.00319939 -0.00527361 0)
(-0.0019695 -0.00559011 0)
(-0.000773419 -0.00576373 0)
(-0.00634672 -0.00144691 0)
(-0.00612625 -0.00257066 0)
(-0.00609637 -0.00346258 0)
(-0.00553228 -0.00488445 0)
(-0.00499891 -0.00571989 0)
(-0.0040453 -0.00727699 0)
(-0.00249478 -0.00782173 0)
(-0.00120399 -0.00816721 0)
(-0.00759552 -0.000683074 0)
(-0.00745096 -0.00205584 0)
(-0.00752531 -0.00262551 0)
(-0.00697728 -0.00460234 0)
(-0.00647984 -0.00509017 0)
(-0.00534942 -0.00761024 0)
(-0.00347425 -0.00794718 0)
(-0.0017218 -0.00915534 0)
(-0.00838108 -0.00137864 0)
(-0.00806926 -0.00301973 0)
(-0.00861231 -0.00402074 0)
(-0.00800756 -0.00646217 0)
(-0.00795209 -0.00753439 0)
(-0.00696351 -0.0108956 0)
(-0.00473993 -0.0117879 0)
(-0.00311809 -0.0138949 0)
(-0.01019 8.23309e-06 0)
(-0.0101208 -0.00189985 0)
(-0.0109609 -0.0020155 0)
(-0.0105456 -0.0052438 0)
(-0.010863 -0.00526453 0)
(-0.0097758 -0.0106266 0)
(-0.00743022 -0.0108867 0)
(-0.00500226 -0.0165124 0)
(-0.0106924 -0.000620653 0)
(-0.0100863 -0.0028378 0)
(-0.0118661 -0.00355976 0)
(-0.0112743 -0.00743934 0)
(-0.0130806 -0.0084236 0)
(-0.0128295 -0.0154418 0)
(-0.0113847 -0.016969 0)
(-0.010302 -0.0273506 0)
(-0.0131877 0.00118366 0)
(-0.013128 -0.00097362 0)
(-0.015593 9.47661e-05 0)
(-0.015554 -0.00416844 0)
(-0.0187438 -0.00236077 0)
(-0.0188412 -0.0122119 0)
(-0.0193336 -0.0116512 0)
(-0.0170581 -0.0373045 0)
(-0.012784 0.00116299 0)
(-0.0111063 -0.0012668 0)
(-0.0148842 -0.000662652 0)
(-0.0135074 -0.00565119 0)
(-0.0200757 -0.00478178 0)
(-0.0214283 -0.0169027 0)
(-0.0280389 -0.0188086 0)
(-0.0213126 -0.0662272 0)
(-0.0156257 0.00237097 0)
(-0.0149259 0.000560042 0)
(-0.0200927 0.00358378 0)
(-0.019418 0.000456221 0)
(-0.0290085 0.0073073 0)
(-0.0244573 -0.00480485 0)
(-0.0360631 -0.0086636 0)
(-0.000386976 -0.0849549 0)
(-0.00967308 0.0034749 0)
(-0.0038699 0.00209198 0)
(-0.00936658 0.00454196 0)
(0.00286172 0.00143835 0)
(-0.00791718 0.00153652 0)
(0.0175615 -0.0134467 0)
(-0.00496742 -0.0423688 0)
(0.0337702 -0.108758 0)
(0.118896 -0.000312005 0)
(0.131451 -0.000217482 0)
(0.117832 -0.00210162 0)
(0.136792 -0.00142931 0)
(0.114489 -0.0059847 0)
(0.134911 -0.00747874 0)
(0.0897419 -0.0197637 0)
(0.0760249 -0.0501043 0)
(-1.57354e-05 -1.44109e-05 0)
(-4.74482e-05 -1.63529e-05 0)
(-7.08552e-05 -1.84709e-05 0)
(-8.15663e-05 -2.13594e-05 0)
(-7.95854e-05 -2.30196e-05 0)
(-6.5542e-05 -2.4611e-05 0)
(-4.19163e-05 -2.54885e-05 0)
(-1.35358e-05 -2.43212e-05 0)
(-1.84051e-05 7.86189e-05 0)
(-5.46958e-05 7.32734e-05 0)
(-8.14094e-05 5.30953e-05 0)
(-9.25022e-05 3.08886e-05 0)
(-8.90666e-05 7.10629e-06 0)
(-7.31888e-05 -1.20822e-05 0)
(-4.66173e-05 -2.63189e-05 0)
(-1.51093e-05 -3.01668e-05 0)
(-2.81191e-05 5.46769e-05 0)
(-8.26716e-05 4.38635e-05 0)
(-0.00011906 1.64929e-05 0)
(-0.000134084 -1.46274e-05 0)
(-0.000128918 -4.42907e-05 0)
(-0.000104289 -6.89818e-05 0)
(-6.62108e-05 -8.65782e-05 0)
(-2.12608e-05 -8.82105e-05 0)
(-3.41669e-05 0.000196023 0)
(-9.8032e-05 0.0001716 0)
(-0.000140209 0.000108212 0)
(-0.000153485 4.37125e-05 0)
(-0.000143623 -2.06479e-05 0)
(-0.000115817 -7.03517e-05 0)
(-7.28283e-05 -0.000106007 0)
(-2.34772e-05 -0.000113158 0)
(-6.74418e-05 0.000175758 0)
(-0.00018575 0.000141393 0)
(-0.000247313 6.46416e-05 0)
(-0.000262909 -1.36401e-05 0)
(-0.00024293 -8.69949e-05 0)
(-0.000189842 -0.000145106 0)
(-0.000118438 -0.000186089 0)
(-3.76086e-05 -0.0001903 0)
(-8.29758e-05 0.000465674 0)
(-0.000224 0.00036748 0)
(-0.000295739 0.000192293 0)
(-0.000305227 4.51292e-05 0)
(-0.000275225 -8.96506e-05 0)
(-0.00021541 -0.000185156 0)
(-0.000133304 -0.000251399 0)
(-4.25274e-05 -0.000260376 0)
(-0.000202294 0.000458916 0)
(-0.000496072 0.000335566 0)
(-0.000570402 0.000131728 0)
(-0.000544557 -3.58554e-05 0)
(-0.000472966 -0.000187415 0)
(-0.000351938 -0.00029642 0)
(-0.000214742 -0.000371652 0)
(-6.719e-05 -0.000376094 0)
(-0.000271936 0.00120371 0)
(-0.000590429 0.000766286 0)
(-0.000669359 0.000248897 0)
(-0.000624816 -4.1512e-05 0)
(-0.000536239 -0.000275594 0)
(-0.000400745 -0.000426 0)
(-0.000243502 -0.00052559 0)
(-7.65662e-05 -0.000528244 0)
)
;

boundaryField
{
    movingWall
    {
        type            fixedValue;
        value           uniform (1 0 0);
    }
    fixedWalls
    {
        type            noSlip;
    }
    frontAndBack
    {
        type            empty;
    }
}


// ************************************************************************* //
