/*--------------------------------*- C++ -*----------------------------------*\
  =========                 |
  \\      /  F ield         | OpenFOAM: The Open Source CFD Toolbox
   \\    /   O peration     | Website:  https://openfoam.org
    \\  /    A nd           | Version:  8
     \\/     M anipulation  |
\*---------------------------------------------------------------------------*/
FoamFile
{
    version     2.0;
    format      ascii;
    class       volScalarField;
    location    "0.1";
    object      p;
}
// * * * * * * * * * * * * * * * * * * * * * * * * * * * * * * * * * * * * * //

dimensions      [0 2 -2 0 0 0 0];

internalField   nonuniform List<scalar> 
400
(
1.71344e-08
-0.00557861
-0.0123702
-0.017498
-0.0192716
-0.0169222
-0.0103896
-0.000109266
0.0131377
0.0283299
0.0442847
0.05973
0.0733862
0.0840719
0.0908405
0.0931492
0.0910606
0.0854611
0.0782732
0.0725823
0.00576385
1.35965e-05
-0.00529986
-0.00878668
-0.00964038
-0.00733107
-0.00178455
0.00668972
0.0175031
0.0298628
0.0428352
0.0554091
0.0665696
0.07539
0.0811425
0.0834255
0.0823106
0.0784293
0.0727872
0.0669596
0.0133078
0.00526729
-0.000530564
-0.00374967
-0.00442244
-0.00227831
0.00268047
0.0101593
0.0196536
0.0304942
0.0418892
0.0529724
0.0628651
0.0707533
0.0759777
0.0781369
0.0772166
0.0735926
0.0674554
0.059359
0.0200958
0.00893272
0.00167691
-0.00203451
-0.00292806
-0.000960857
0.00375526
0.0108794
0.0199198
0.0302567
0.0411611
0.0518272
0.0614193
0.0691355
0.0742832
0.0763723
0.0752542
0.0710802
0.0633886
0.0521131
0.0244527
0.0100262
0.00104709
-0.00336479
-0.00453206
-0.00260867
0.00218085
0.00942717
0.0186198
0.0291516
0.0403161
0.0513223
0.0613263
0.0694821
0.0750057
0.0772673
0.0759564
0.0710169
0.0614292
0.0467066
0.0251737
0.00745336
-0.00330834
-0.00841363
-0.00972878
-0.00758754
-0.00232844
0.00555805
0.0155237
0.0269511
0.0391293
0.0512506
0.0624258
0.0717203
0.0782097
0.0810758
0.0798105
0.0741429
0.0625298
0.0441688
0.021205
0.000137956
-0.0123659
-0.0180052
-0.0191924
-0.0164458
-0.010226
-0.00111496
0.0102902
0.0233503
0.0373368
0.0514084
0.0646058
0.0758717
0.0840946
0.0882121
0.0874625
0.0813152
0.0676596
0.0454
0.0114454
-0.0130695
-0.0271901
-0.0330504
-0.0336735
-0.0297954
-0.0220188
-0.011028
0.0025284
0.0179915
0.0346194
0.0515381
0.0677117
0.0819386
0.0928772
0.0991541
0.0996705
0.0935395
0.0779441
0.0514329
-0.00540574
-0.0335223
-0.0490323
-0.0546126
-0.0540375
-0.0483307
-0.0382717
-0.024659
-0.00818616
0.0104865
0.0306282
0.0513569
0.071576
0.0899367
0.104833
0.114505
0.117399
0.112109
0.0948526
0.0636588
-0.0309904
-0.0629052
-0.0794042
-0.0839215
-0.0812312
-0.0727623
-0.0595236
-0.0424386
-0.022227
0.000488681
0.0250395
0.0505892
0.0760291
0.0998908
0.120291
0.135005
0.141874
0.138729
0.120396
0.0840636
-0.0674844
-0.103401
-0.120158
-0.12236
-0.1162
-0.103692
-0.0861417
-0.0646009
-0.0397755
-0.0121833
0.0176519
0.049033
0.0809316
0.111836
0.139617
0.161529
0.174636
0.175665
0.157387
0.115547
-0.117938
-0.157954
-0.173587
-0.171418
-0.159744
-0.141418
-0.118107
-0.0909698
-0.0606215
-0.0273691
0.00853341
0.046668
0.0862381
0.125837
0.163197
0.195067
0.21758
0.225923
0.209809
0.162432
-0.186967
-0.230705
-0.242532
-0.232564
-0.212271
-0.185637
-0.154716
-0.12068
-0.0839128
-0.0443495
-0.0017998
0.0437902
0.0920762
0.142001
0.191399
0.236667
0.272957
0.293448
0.283377
0.231387
-0.28224
-0.327733
-0.330435
-0.306939
-0.273354
-0.235005
-0.194189
-0.151856
-0.107902
-0.0616504
-0.0122376
0.0411051
0.0987739
0.160422
0.224413
0.287209
0.343209
0.383271
0.386417
0.333259
-0.417657
-0.458186
-0.441069
-0.394592
-0.340939
-0.286478
-0.233205
-0.18132
-0.129791
-0.0769855
-0.0210918
0.0396459
0.106698
0.180898
0.2618
0.346779
0.43031
0.501282
0.531051
0.486643
-0.619073
-0.635459
-0.577602
-0.493218
-0.410293
-0.334641
-0.266599
-0.204572
-0.145895
-0.0875322
-0.0264315
0.0404027
0.115836
0.202408
0.301777
0.413683
0.534566
0.653211
0.734024
0.723503
-0.934725
-0.877495
-0.740898
-0.59723
-0.473728
-0.371921
-0.287947
-0.216592
-0.152517
-0.0907911
-0.0268752
0.0436168
0.125171
0.222533
0.340599
0.483668
0.653348
0.842568
1.01639
1.09849
-1.47503
-1.20629
-0.91988
-0.690836
-0.516871
-0.387047
-0.28937
-0.212383
-0.146885
-0.0857146
-0.022879
0.0472639
0.130753
0.234808
0.368702
0.544092
0.772458
1.0604
1.40477
1.73051
-2.53529
-1.63288
-1.04426
-0.710406
-0.49542
-0.351756
-0.254019
-0.182812
-0.125099
-0.0722334
-0.0176711
0.0445379
0.121011
0.220529
0.356427
0.549382
0.827468
1.23803
1.91582
2.92103
-4.3594
-2.04664
-0.97373
-0.563083
-0.358018
-0.240305
-0.170054
-0.123382
-0.0866855
-0.0523119
-0.015095
0.0294931
0.0866085
0.163794
0.274447
0.443994
0.719828
1.2276
2.41468
4.84266
)
;

boundaryField
{
    movingWall
    {
        type            zeroGradient;
    }
    fixedWalls
    {
        type            zeroGradient;
    }
    frontAndBack
    {
        type            empty;
    }
}


// ************************************************************************* //
