/*--------------------------------*- C++ -*----------------------------------*\
  =========                 |
  \\      /  F ield         | OpenFOAM: The Open Source CFD Toolbox
   \\    /   O peration     | Website:  https://openfoam.org
    \\  /    A nd           | Version:  8
     \\/     M anipulation  |
\*---------------------------------------------------------------------------*/
FoamFile
{
    version     2.0;
    format      ascii;
    class       surfaceScalarField;
    location    "0.1";
    object      phi;
}
// * * * * * * * * * * * * * * * * * * * * * * * * * * * * * * * * * * * * * //

dimensions      [0 3 -1 0 0 0 0];

internalField   nonuniform List<scalar> 
760
(
1.39224e-08
-1.39226e-08
-2.19732e-08
3.58959e-08
-1.12245e-07
9.02718e-08
-2.40768e-07
1.28522e-07
-3.88132e-07
1.47364e-07
-5.36061e-07
1.47929e-07
-6.68841e-07
1.32781e-07
-7.73889e-07
1.05047e-07
-8.4188e-07
6.79915e-08
-8.668e-07
2.49193e-08
-8.46064e-07
-2.07356e-08
-7.80768e-07
-6.5296e-08
-6.75983e-07
-1.04785e-07
-5.40995e-07
-1.34988e-07
-3.89326e-07
-1.51669e-07
-2.38302e-07
-1.51024e-07
-1.07844e-07
-1.30459e-07
-1.81436e-08
-8.97005e-08
1.53739e-08
-3.35177e-08
1.5374e-08
-3.32915e-08
1.93688e-08
-1.76247e-07
1.78852e-07
-4.24331e-07
3.38357e-07
-7.47384e-07
4.51575e-07
-1.10674e-06
5.06722e-07
-1.46325e-06
5.04433e-07
-1.78161e-06
4.51148e-07
-2.03268e-06
3.56119e-07
-2.19452e-06
2.29831e-07
-2.25302e-06
8.34184e-08
-2.2024e-06
-7.13556e-08
-2.04573e-06
-2.21971e-07
-1.79536e-06
-3.55154e-07
-1.47313e-06
-4.5722e-07
-1.10985e-06
-5.1495e-07
-7.43673e-07
-5.17198e-07
-4.16701e-07
-4.57431e-07
-1.69177e-07
-3.37224e-07
-3.01373e-08
-1.72556e-07
-1.47634e-08
-9.01417e-08
1.0951e-07
-3.48908e-07
4.37618e-07
-7.47293e-07
7.36743e-07
-1.23971e-06
9.43995e-07
-1.77323e-06
1.04024e-06
-2.29495e-06
1.02615e-06
-2.75701e-06
9.13202e-07
-3.11957e-06
7.18687e-07
-3.35257e-06
4.62825e-07
-3.43664e-06
1.67489e-07
-3.36392e-06
-1.44073e-07
-3.1387e-06
-4.47193e-07
-2.77793e-06
-7.1592e-07
-2.31137e-06
-9.23784e-07
-1.78076e-06
-1.04556e-06
-1.23761e-06
-1.06035e-06
-7.38808e-07
-9.56233e-07
-3.39841e-07
-7.36191e-07
-8.55534e-08
-4.26843e-07
-1.00317e-07
-1.42051e-07
2.51562e-07
-5.1407e-07
8.09636e-07
-1.05816e-06
1.28083e-06
-1.70938e-06
1.59522e-06
-2.4004e-06
1.73125e-06
-3.06693e-06
1.69269e-06
-3.65205e-06
1.49832e-06
-4.10883e-06
1.17547e-06
-4.40199e-06
7.55983e-07
-4.50878e-06
2.74281e-07
-4.41978e-06
-2.33078e-07
-4.13959e-06
-7.2738e-07
-3.68757e-06
-1.16794e-06
-3.09812e-06
-1.51323e-06
-2.42019e-06
-1.72349e-06
-1.71521e-06
-1.76533e-06
-1.05293e-06
-1.61851e-06
-5.04938e-07
-1.28418e-06
-1.36568e-07
-7.95212e-07
-2.36886e-07
-1.89753e-07
4.41315e-07
-6.71439e-07
1.29132e-06
-1.35814e-06
1.96753e-06
-2.16321e-06
2.4003e-06
-3.00384e-06
2.57188e-06
-3.80504e-06
2.49389e-06
-4.50264e-06
2.19591e-06
-5.04487e-06
1.71771e-06
-5.39321e-06
1.10433e-06
-5.52279e-06
4.03861e-07
-5.42282e-06
-3.33055e-07
-5.09731e-06
-1.05288e-06
-4.56611e-06
-1.69914e-06
-3.86579e-06
-2.21355e-06
-3.05004e-06
-2.53925e-06
-2.18857e-06
-2.62679e-06
-1.36402e-06
-2.44307e-06
-6.66169e-07
-1.98203e-06
-1.84368e-07
-1.27701e-06
-4.21253e-07
-2.35824e-07
6.77139e-07
-8.26023e-07
1.88152e-06
-1.6545e-06
2.79601e-06
-2.61127e-06
3.35706e-06
-3.59711e-06
3.55771e-06
-4.52669e-06
3.42348e-06
-5.32995e-06
2.99917e-06
-5.95213e-06
2.33989e-06
-6.3532e-06
1.5054e-06
-6.50718e-06
5.5784e-07
-6.40201e-06
-4.3822e-07
-6.04019e-06
-1.41471e-06
-5.44013e-06
-2.2992e-06
-4.63821e-06
-3.01547e-06
-3.69055e-06
-3.4869e-06
-2.67389e-06
-3.64346e-06
-1.68403e-06
-3.43292e-06
-8.31314e-07
-2.83475e-06
-2.32472e-07
-1.87586e-06
-6.53725e-07
-2.82826e-07
9.59965e-07
-9.83523e-07
2.58222e-06
-1.95494e-06
3.76743e-06
-3.0619e-06
4.46403e-06
-4.18816e-06
4.68397e-06
-5.2388e-06
4.47412e-06
-6.13971e-06
3.90008e-06
-6.83537e-06
3.03554e-06
-7.2862e-06
1.95624e-06
-7.46644e-06
7.38077e-07
-7.36296e-06
-5.41698e-07
-6.97569e-06
-1.80199e-06
-6.31954e-06
-2.95535e-06
-5.42774e-06
-3.90727e-06
-4.35594e-06
-4.5587e-06
-3.18572e-06
-4.81369e-06
-2.02584e-06
-4.5928e-06
-1.00931e-06
-3.85128e-06
-2.84599e-07
-2.60057e-06
-9.38325e-07
-3.33061e-07
1.29302e-06
-1.14909e-06
3.39824e-06
-2.26544e-06
4.88378e-06
-3.51915e-06
5.71773e-06
-4.7767e-06
5.94153e-06
-5.93541e-06
5.63283e-06
-6.92003e-06
4.8847e-06
-7.67754e-06
3.79305e-06
-8.17171e-06
2.45041e-06
-8.37883e-06
9.45191e-07
-8.28525e-06
-6.35275e-07
-7.88735e-06
-2.19989e-06
-7.19397e-06
-3.64873e-06
-6.23141e-06
-4.86983e-06
-5.05037e-06
-5.73974e-06
-3.7334e-06
-6.13067e-06
-2.40039e-06
-5.92581e-06
-1.20873e-06
-5.04294e-06
-3.44354e-07
-3.46494e-06
-1.28268e-06
-3.88751e-07
1.68178e-06
-1.32725e-06
4.33674e-06
-2.58959e-06
6.14613e-06
-3.98129e-06
7.10943e-06
-5.35212e-06
7.31236e-06
-6.59501e-06
6.87571e-06
-7.6384e-06
5.92809e-06
-8.43664e-06
4.59129e-06
-8.96093e-06
2.9747e-06
-9.19243e-06
1.17669e-06
-9.11809e-06
-7.0961e-07
-8.72991e-06
-2.58806e-06
-8.02771e-06
-4.35093e-06
-7.02585e-06
-5.87169e-06
-5.76359e-06
-7.00201e-06
-4.31782e-06
-7.57643e-06
-2.81502e-06
-7.42861e-06
-1.43729e-06
-6.42067e-06
-4.15348e-07
-4.48687e-06
-1.69803e-06
-4.52641e-07
2.13442e-06
-1.52276e-06
5.40686e-06
-2.92872e-06
7.55209e-06
-4.43975e-06
8.62045e-06
-5.89099e-06
8.7636e-06
-7.1771e-06
8.16182e-06
-8.23755e-06
6.98855e-06
-9.04102e-06
5.39476e-06
-9.57177e-06
3.50546e-06
-9.81969e-06
1.4246e-06
-9.77425e-06
-7.55054e-07
-9.42264e-06
-2.93967e-06
-8.7526e-06
-5.02097e-06
-7.76048e-06
-6.86381e-06
-6.46522e-06
-8.29726e-06
-4.92765e-06
-9.11401e-06
-3.27188e-06
-9.08437e-06
-1.70198e-06
-7.99057e-06
-5.01677e-07
-5.68717e-06
-2.1997e-06
-5.29108e-07
2.66352e-06
-1.74204e-06
6.61979e-06
-3.28215e-06
9.09221e-06
-4.87724e-06
1.02155e-05
-6.35334e-06
1.02397e-05
-7.61704e-06
9.42551e-06
-8.62967e-06
8.00118e-06
-9.38344e-06
6.14853e-06
-9.88272e-06
4.00474e-06
-1.0131e-05
1.67286e-06
-1.01229e-05
-7.63153e-07
-9.84125e-06
-3.2213e-06
-9.25915e-06
-5.60307e-06
-8.34844e-06
-7.77452e-06
-7.0967e-06
-9.549e-06
-5.53366e-06
-1.06771e-05
-3.76553e-06
-1.08525e-05
-2.0093e-06
-9.74681e-06
-6.08815e-07
-7.08766e-06
-2.80852e-06
-6.26021e-07
3.28955e-06
-1.99504e-06
7.9888e-06
-3.64637e-06
1.07435e-05
-5.26346e-06
1.18326e-05
-6.67558e-06
1.16518e-05
-7.81781e-06
1.05677e-05
-8.68819e-06
8.87156e-06
-9.31365e-06
6.774e-06
-9.72629e-06
4.41738e-06
-9.94819e-06
1.89476e-06
-9.98253e-06
-7.28809e-07
-9.80934e-06
-3.39449e-06
-9.38601e-06
-6.0264e-06
-8.65458e-06
-8.50595e-06
-7.55934e-06
-1.06442e-05
-6.07936e-06
-1.2157e-05
-4.27818e-06
-1.26537e-05
-2.36513e-06
-1.16599e-05
-7.4508e-07
-8.70771e-06
-3.5536e-06
-7.57774e-07
4.04732e-06
-2.29653e-06
9.52755e-06
-4.01034e-06
1.24574e-05
-5.54449e-06
1.33668e-05
-6.7567e-06
1.2864e-05
-7.63608e-06
1.14471e-05
-8.23605e-06
9.47153e-06
-8.62961e-06
7.16756e-06
-8.88282e-06
4.67059e-06
-9.04011e-06
2.05205e-06
-9.11616e-06
-6.52758e-07
-9.09121e-06
-3.41944e-06
-8.90911e-06
-6.2085e-06
-8.48056e-06
-8.9345e-06
-7.69707e-06
-1.14277e-05
-6.465e-06
-1.33891e-05
-4.76961e-06
-1.43491e-05
-2.7728e-06
-1.36567e-05
-9.23963e-07
-1.05566e-05
-4.47756e-06
-9.49714e-07
4.99703e-06
-2.66368e-06
1.12415e-05
-4.34043e-06
1.41341e-05
-5.61852e-06
1.46449e-05
-6.43173e-06
1.36772e-05
-6.85902e-06
1.18744e-05
-7.02881e-06
9.64132e-06
-7.06762e-06
7.20638e-06
-7.07655e-06
4.67951e-06
-7.12191e-06
2.09741e-06
-7.23114e-06
-5.43522e-07
-7.38899e-06
-3.26159e-06
-7.53259e-06
-6.0649e-06
-7.54747e-06
-8.91962e-06
-7.27136e-06
-1.17038e-05
-6.51984e-06
-1.41406e-05
-5.1557e-06
-1.57132e-05
-3.22538e-06
-1.5587e-05
-1.16703e-06
-1.26149e-05
-5.64459e-06
-1.24174e-06
6.23877e-06
-3.09929e-06
1.30991e-05
-4.5394e-06
1.55742e-05
-5.28395e-06
1.53894e-05
-5.42311e-06
1.38164e-05
-5.16745e-06
1.16188e-05
-4.73227e-06
9.20614e-06
-4.29324e-06
6.76734e-06
-3.97675e-06
4.36302e-06
-3.86285e-06
1.98351e-06
-3.98899e-06
-4.17388e-07
-4.34908e-06
-2.9015e-06
-4.8861e-06
-5.52789e-06
-5.47856e-06
-8.32716e-06
-5.9268e-06
-1.12556e-05
-5.95486e-06
-1.41126e-05
-5.26232e-06
-1.64058e-05
-3.68017e-06
-1.71691e-05
-1.50341e-06
-1.47917e-05
-7.148e-06
-1.6768e-06
7.91558e-06
-3.52743e-06
1.49497e-05
-4.34484e-06
1.63916e-05
-4.13632e-06
1.51809e-05
-3.25976e-06
1.29398e-05
-2.08468e-06
1.04437e-05
-8.98744e-07
8.0202e-06
1.0111e-07
5.76749e-06
7.89726e-07
3.67441e-06
1.09212e-06
1.68112e-06
9.69454e-07
-2.94727e-07
4.15278e-07
-2.34732e-06
-5.36346e-07
-4.57626e-06
-1.78898e-06
-7.07452e-06
-3.14857e-06
-9.89601e-06
-4.28533e-06
-1.29758e-05
-4.72927e-06
-1.59618e-05
-3.98275e-06
-1.79156e-05
-1.94797e-06
-1.68264e-05
-9.09597e-06
-2.22968e-06
1.01453e-05
-3.59951e-06
1.63195e-05
-3.10114e-06
1.58933e-05
-1.38355e-06
1.34633e-05
8.39044e-07
1.07172e-05
3.07802e-06
8.20469e-06
5.04329e-06
6.05494e-06
6.57871e-06
4.23207e-06
7.60484e-06
2.64827e-06
8.07976e-06
1.2062e-06
7.97709e-06
-1.92053e-07
7.27807e-06
-1.6483e-06
5.97715e-06
-3.27535e-06
4.10531e-06
-5.20267e-06
1.77942e-06
-7.57012e-06
-7.1562e-07
-1.04808e-05
-2.82542e-06
-1.3852e-05
-3.67622e-06
-1.70648e-05
-2.41154e-06
-1.80911e-05
-1.15075e-05
-2.56122e-06
1.27065e-05
-2.18718e-06
1.59455e-05
7.02709e-07
1.30034e-05
4.44135e-06
9.72466e-06
8.08965e-06
7.06895e-06
1.12413e-05
5.05301e-06
1.37528e-05
3.54343e-06
1.55981e-05
2.38681e-06
1.67916e-05
1.45479e-06
1.73493e-05
6.48467e-07
1.72704e-05
-1.13154e-07
1.65292e-05
-9.07136e-07
1.50752e-05
-1.82135e-06
1.28447e-05
-2.97213e-06
9.79878e-06
-4.5242e-06
6.01625e-06
-6.69824e-06
1.88392e-06
-9.71969e-06
-1.57042e-06
-1.36105e-05
-2.44712e-06
-1.72144e-05
-1.39546e-05
-8.09897e-07
1.35164e-05
4.07368e-06
1.10619e-05
1.02896e-05
6.78744e-06
1.57779e-05
4.23638e-06
2.01317e-05
2.71517e-06
2.34198e-05
1.76486e-06
2.58109e-05
1.15235e-06
2.74616e-05
7.36093e-07
2.84869e-05
4.29567e-07
2.89554e-05
1.79943e-07
2.8891e-05
-4.87281e-08
2.82709e-05
-2.8709e-07
2.70205e-05
-5.70989e-07
2.50028e-05
-9.54371e-07
2.201e-05
-1.53142e-06
1.77849e-05
-2.47317e-06
1.21524e-05
-4.08711e-06
5.46265e-06
-6.92078e-06
-1.59147e-07
-1.15926e-05
-1.41138e-05
1.35164e-05
2.45783e-05
3.13657e-05
3.56021e-05
3.83173e-05
4.00821e-05
4.12345e-05
4.19706e-05
4.24001e-05
4.25801e-05
4.25313e-05
4.22443e-05
4.16733e-05
4.07189e-05
3.91875e-05
3.67143e-05
3.26272e-05
2.57064e-05
1.41138e-05
)
;

boundaryField
{
    movingWall
    {
        type            calculated;
        value           uniform 0;
    }
    fixedWalls
    {
        type            calculated;
        value           uniform 0;
    }
    frontAndBack
    {
        type            empty;
        value           nonuniform List<scalar> 0();
    }
}


// ************************************************************************* //
