/*--------------------------------*- C++ -*----------------------------------*\
  =========                 |
  \\      /  F ield         | OpenFOAM: The Open Source CFD Toolbox
   \\    /   O peration     | Website:  https://openfoam.org
    \\  /    A nd           | Version:  8
     \\/     M anipulation  |
\*---------------------------------------------------------------------------*/
FoamFile
{
    version     2.0;
    format      ascii;
    class       volVectorField;
    location    "0.1";
    object      U;
}
// * * * * * * * * * * * * * * * * * * * * * * * * * * * * * * * * * * * * * //

dimensions      [0 1 -1 0 0 0 0];

internalField   nonuniform List<vector> 
400
(
(0.000250813 -0.000240948 0)
(0.000135491 0.000116311 0)
(-0.00115718 0.000558628 0)
(-0.00341712 0.000871532 0)
(-0.00625196 0.00102776 0)
(-0.0092763 0.00104264 0)
(-0.0121443 0.000940246 0)
(-0.0145703 0.000746311 0)
(-0.0163342 0.000485506 0)
(-0.0172819 0.000181421 0)
(-0.0173265 -0.000142022 0)
(-0.0164521 -0.000459025 0)
(-0.0147196 -0.000740973 0)
(-0.0122724 -0.000956419 0)
(-0.00934024 -0.00107227 0)
(-0.00623592 -0.00105678 0)
(-0.00334046 -0.000885423 0)
(-0.00106927 -0.00055041 0)
(0.000190925 -9.12673e-05 0)
(0.000262511 0.000257046 0)
(-7.21836e-05 -0.000165462 0)
(-0.00157175 0.00161799 0)
(-0.00556508 0.00354662 0)
(-0.0114586 0.00493062 0)
(-0.0184698 0.00561961 0)
(-0.0258044 0.005633 0)
(-0.032706 0.00505567 0)
(-0.0385216 0.00400013 0)
(-0.0427362 0.00258853 0)
(-0.0449865 0.000947387 0)
(-0.0450713 -0.000790824 0)
(-0.0429614 -0.00248467 0)
(-0.0388098 -0.00398259 0)
(-0.0329591 -0.00512591 0)
(-0.0259409 -0.00575813 0)
(-0.0184574 -0.00574306 0)
(-0.011329 -0.00499512 0)
(-0.00540187 -0.00352374 0)
(-0.00146351 -0.00153148 0)
(-4.22933e-05 0.000222604 0)
(-0.00051713 0.0010658 0)
(-0.00362765 0.00561394 0)
(-0.0103498 0.0100039 0)
(-0.01954 0.0131103 0)
(-0.0300654 0.0146062 0)
(-0.0408637 0.0144942 0)
(-0.050916 0.0129434 0)
(-0.0593327 0.0102084 0)
(-0.0654084 0.00658409 0)
(-0.0686448 0.00238733 0)
(-0.0687666 -0.00204557 0)
(-0.0657353 -0.00635717 0)
(-0.0597618 -0.0101703 0)
(-0.0513144 -0.0130988 0)
(-0.0411154 -0.0147736 0)
(-0.0301142 -0.014888 0)
(-0.0194136 -0.0132694 0)
(-0.0101506 -0.00997331 0)
(-0.0034776 -0.00544017 0)
(-0.000468765 -0.000928609 0)
(-0.000909945 0.00339818 0)
(-0.00556975 0.0119521 0)
(-0.0149704 0.019483 0)
(-0.0273105 0.0246322 0)
(-0.0410676 0.0269644 0)
(-0.0549413 0.0265039 0)
(-0.0677147 0.0235384 0)
(-0.0783365 0.018503 0)
(-0.0859782 0.011909 0)
(-0.090056 0.00431214 0)
(-0.090245 -0.00369647 0)
(-0.0864939 -0.0114899 0)
(-0.0790397 -0.01841 0)
(-0.0684198 -0.0237867 0)
(-0.0554743 -0.026983 0)
(-0.0413239 -0.027472 0)
(-0.0272939 -0.0249508 0)
(-0.0147944 -0.0194821 0)
(-0.00539891 -0.0116862 0)
(-0.000846998 -0.00315821 0)
(-0.00125622 0.00672452 0)
(-0.00738929 0.0205017 0)
(-0.0194134 0.0318056 0)
(-0.0348297 0.0392188 0)
(-0.0516892 0.0423166 0)
(-0.0684502 0.0412265 0)
(-0.0837259 0.0364122 0)
(-0.0963476 0.0285313 0)
(-0.105409 0.0183446 0)
(-0.110275 0.00667331 0)
(-0.110587 -0.00561263 0)
(-0.106273 -0.0175924 0)
(-0.0975667 -0.0282978 0)
(-0.0850287 -0.0367381 0)
(-0.0695636 -0.0419606 0)
(-0.0524184 -0.043157 0)
(-0.035121 -0.0398202 0)
(-0.019376 -0.0319314 0)
(-0.0072404 -0.0201818 0)
(-0.00118504 -0.00636863 0)
(-0.00158349 0.0109808 0)
(-0.00916234 0.0312185 0)
(-0.0237973 0.0469566 0)
(-0.0422663 0.0568446 0)
(-0.0621637 0.0606006 0)
(-0.0816996 0.0585635 0)
(-0.0993375 0.0514527 0)
(-0.113826 0.0402011 0)
(-0.12422 0.0258499 0)
(-0.129863 0.00950016 0)
(-0.130374 -0.00769311 0)
(-0.125651 -0.0245103 0)
(-0.115898 -0.039661 0)
(-0.10165 -0.0518053 0)
(-0.0838273 -0.0596217 0)
(-0.0637631 -0.0619406 0)
(-0.0431754 -0.0579429 0)
(-0.0240896 -0.0474033 0)
(-0.00911282 -0.0309592 0)
(-0.00151764 -0.0105265 0)
(-0.00191782 0.0161598 0)
(-0.010974 0.0441142 0)
(-0.0282608 0.0649504 0)
(-0.0497861 0.0774949 0)
(-0.0726575 0.0817549 0)
(-0.09484 0.0784137 0)
(-0.114676 0.0685458 0)
(-0.130875 0.0534217 0)
(-0.142499 0.0343904 0)
(-0.148903 0.0128358 0)
(-0.149702 -0.00981573 0)
(-0.144757 -0.0320621 0)
(-0.134205 -0.0522972 0)
(-0.118507 -0.0688139 0)
(-0.098536 -0.0798678 0)
(-0.0756542 -0.0838278 0)
(-0.0517412 -0.0794212 0)
(-0.0291604 -0.0660496 0)
(-0.0111436 -0.0441453 0)
(-0.00188078 -0.0156741 0)
(-0.00228263 0.0223038 0)
(-0.0129035 0.0592591 0)
(-0.0329266 0.0858249 0)
(-0.0575021 0.101133 0)
(-0.0832177 0.105658 0)
(-0.107813 0.100595 0)
(-0.129561 0.0874927 0)
(-0.1472 0.0680299 0)
(-0.159861 0.0438855 0)
(-0.166962 0.0167116 0)
(-0.168137 -0.0118304 0)
(-0.163208 -0.0399996 0)
(-0.152211 -0.0659063 0)
(-0.135465 -0.0874778 0)
(-0.113706 -0.102497 0)
(-0.08824 -0.108758 0)
(-0.0610404 -0.104351 0)
(-0.0347991 -0.0880823 0)
(-0.0134592 -0.0599691 0)
(-0.00230987 -0.0219284 0)
(-0.00270195 0.0294993 0)
(-0.015028 0.076776 0)
(-0.0378947 0.109621 0)
(-0.0654532 0.127654 0)
(-0.0937345 0.132062 0)
(-0.120302 0.124763 0)
(-0.143449 0.107929 0)
(-0.162044 0.0837192 0)
(-0.17538 0.0541542 0)
(-0.183011 0.0211178 0)
(-0.184631 -0.0135603 0)
(-0.180024 -0.0479785 0)
(-0.169088 -0.0800323 0)
(-0.15192 -0.107317 0)
(-0.129004 -0.127113 0)
(-0.101443 -0.136515 0)
(-0.071182 -0.132758 0)
(-0.0411824 -0.113742 0)
(-0.0161858 -0.078754 0)
(-0.00284283 -0.0294781 0)
(-0.00320812 0.0378805 0)
(-0.0174403 0.0968302 0)
(-0.0432554 0.13634 0)
(-0.0735952 0.15681 0)
(-0.103905 0.160491 0)
(-0.131671 0.150303 0)
(-0.155355 0.129218 0)
(-0.174102 0.0999472 0)
(-0.1875 0.0648454 0)
(-0.195329 0.0259611 0)
(-0.197406 -0.0148115 0)
(-0.193495 -0.0555314 0)
(-0.183319 -0.0939963 0)
(-0.166667 -0.127553 0)
(-0.143613 -0.15299 0)
(-0.114861 -0.166597 0)
(-0.0821094 -0.164482 0)
(-0.0484426 -0.143227 0)
(-0.0194607 -0.100897 0)
(-0.00352793 -0.0385879 0)
(-0.00385617 0.0476487 0)
(-0.0202816 0.119628 0)
(-0.0491121 0.165887 0)
(-0.081787 0.188101 0)
(-0.113177 0.190103 0)
(-0.140876 0.176188 0)
(-0.16374 0.150323 0)
(-0.181402 0.115832 0)
(-0.193903 0.0753598 0)
(-0.201373 0.0310132 0)
(-0.203822 -0.0153949 0)
(-0.201029 -0.0620541 0)
(-0.192527 -0.10684 0)
(-0.177706 -0.147003 0)
(-0.15606 -0.178924 0)
(-0.127624 -0.198026 0)
(-0.0935176 -0.199011 0)
(-0.0566519 -0.176584 0)
(-0.0234542 -0.126839 0)
(-0.00443762 -0.0496164 0)
(-0.00474965 0.059123 0)
(-0.0237915 0.145422 0)
(-0.0555987 0.197979 0)
(-0.0897375 0.220612 0)
(-0.120623 0.219511 0)
(-0.146296 0.200814 0)
(-0.166344 0.16968 0)
(-0.181145 0.130055 0)
(-0.191382 0.0847766 0)
(-0.197654 0.0358563 0)
(-0.200248 -0.0151634 0)
(-0.199004 -0.0668163 0)
(-0.193282 -0.117291 0)
(-0.182017 -0.163984 0)
(-0.163963 -0.203059 0)
(-0.138169 -0.229122 0)
(-0.104705 -0.23523 0)
(-0.0657796 -0.213535 0)
(-0.0284005 -0.157024 0)
(-0.00569316 -0.0630578 0)
(-0.00608646 0.0728423 0)
(-0.0283755 0.17451 0)
(-0.0628534 0.231978 0)
(-0.0968435 0.252764 0)
(-0.124687 0.246536 0)
(-0.145453 0.221812 0)
(-0.159917 0.185071 0)
(-0.169501 0.140788 0)
(-0.175688 0.0918092 0)
(-0.179637 0.0398421 0)
(-0.181971 -0.0140583 0)
(-0.182654 -0.0690075 0)
(-0.180928 -0.123785 0)
(-0.175301 -0.17626 0)
(-0.163696 -0.222723 0)
(-0.143884 -0.257215 0)
(-0.11429 -0.27107 0)
(-0.0755721 -0.253174 0)
(-0.0346302 -0.191804 0)
(-0.00750703 -0.0796283 0)
(-0.00823339 0.0897453 0)
(-0.0346667 0.207164 0)
(-0.070844 0.266552 0)
(-0.101767 0.28191 0)
(-0.122641 0.267897 0)
(-0.134484 0.235882 0)
(-0.139817 0.193582 0)
(-0.141342 0.145716 0)
(-0.141405 0.0948393 0)
(-0.141711 0.0420968 0)
(-0.143214 -0.0121575 0)
(-0.146057 -0.0678348 0)
(-0.149481 -0.124577 0)
(-0.15172 -0.181108 0)
(-0.149958 -0.234359 0)
(-0.140547 -0.278355 0)
(-0.119676 -0.303016 0)
(-0.0852415 -0.293461 0)
(-0.0425626 -0.231215 0)
(-0.0102455 -0.100404 0)
(-0.0118067 0.111428 0)
(-0.0434483 0.243334 0)
(-0.0787567 0.29901 0)
(-0.101434 0.30374 0)
(-0.109526 0.278897 0)
(-0.107273 0.238756 0)
(-0.0994124 0.191748 0)
(-0.0899431 0.142258 0)
(-0.0818882 0.0921109 0)
(-0.0772949 0.0416231 0)
(-0.077329 -0.00970402 0)
(-0.0823224 -0.0626908 0)
(-0.091693 -0.118018 0)
(-0.103723 -0.175614 0)
(-0.115255 -0.233683 0)
(-0.121471 -0.287164 0)
(-0.116028 -0.325531 0)
(-0.0926751 -0.330376 0)
(-0.0524726 -0.274427 0)
(-0.0144632 -0.126977 0)
(-0.0175699 0.140533 0)
(-0.0549152 0.28175 0)
(-0.0832037 0.324012 0)
(-0.0888417 0.311487 0)
(-0.0762478 0.273278 0)
(-0.0541216 0.225521 0)
(-0.0293652 0.176096 0)
(-0.006751 0.128122 0)
(0.0106072 0.082179 0)
(0.0207911 0.0375613 0)
(0.0227064 -0.00707787 0)
(0.0158927 -0.0533843 0)
(0.000559905 -0.103034 0)
(-0.0221175 -0.157322 0)
(-0.0494256 -0.216307 0)
(-0.0762947 -0.277073 0)
(-0.0944178 -0.330535 0)
(-0.0925297 -0.356608 0)
(-0.0634404 -0.318555 0)
(-0.020655 -0.161674 0)
(-0.0254132 0.181606 0)
(-0.0658246 0.317612 0)
(-0.0736461 0.33096 0)
(-0.0486985 0.294762 0)
(-0.00654826 0.243417 0)
(0.0398688 0.191521 0)
(0.0829264 0.144219 0)
(0.118471 0.102265 0)
(0.144369 0.0646239 0)
(0.159541 0.0296182 0)
(0.163375 -0.0046828 0)
(0.155428 -0.0403822 0)
(0.135398 -0.0797698 0)
(0.103382 -0.125255 0)
(0.0605615 -0.178936 0)
(0.0105146 -0.24117 0)
(-0.0386977 -0.307051 0)
(-0.0721378 -0.359458 0)
(-0.0701506 -0.356167 0)
(-0.0278793 -0.208105 0)
(-0.0294395 0.238942 0)
(-0.0606735 0.335859 0)
(-0.0221403 0.300379 0)
(0.050106 0.239795 0)
(0.126865 0.182505 0)
(0.195972 0.1349 0)
(0.252965 0.0969253 0)
(0.296574 0.0664471 0)
(0.326903 0.0410634 0)
(0.344386 0.0186255 0)
(0.349234 -0.00279794 0)
(0.341205 -0.0251249 0)
(0.319514 -0.0505213 0)
(0.282917 -0.0816831 0)
(0.230143 -0.122016 0)
(0.161091 -0.175214 0)
(0.079147 -0.243005 0)
(-0.00359403 -0.318846 0)
(-0.0545528 -0.368519 0)
(-0.0282373 -0.267244 0)
(0.00868459 0.281497 0)
(0.0203498 0.295049 0)
(0.138913 0.210996 0)
(0.264189 0.143393 0)
(0.363956 0.0970457 0)
(0.439724 0.0656121 0)
(0.495857 0.0440725 0)
(0.535765 0.0287446 0)
(0.56216 0.0170986 0)
(0.576905 0.00743592 0)
(0.580938 -0.0014888 0)
(0.574286 -0.0107892 0)
(0.556001 -0.0217495 0)
(0.523987 -0.0362089 0)
(0.474832 -0.05712 0)
(0.403813 -0.089247 0)
(0.304626 -0.139629 0)
(0.173056 -0.216342 0)
(0.0416921 -0.311635 0)
(0.019069 -0.299565 0)
(0.30019 0.145898 0)
(0.396887 0.127465 0)
(0.557407 0.0761089 0)
(0.674409 0.0437364 0)
(0.743765 0.0255736 0)
(0.786931 0.0152353 0)
(0.815159 0.00920128 0)
(0.833539 0.00549878 0)
(0.844901 0.00302057 0)
(0.850846 0.00114862 0)
(0.85213 -0.000494277 0)
(0.848866 -0.00220509 0)
(0.840527 -0.00432634 0)
(0.825733 -0.00741295 0)
(0.801751 -0.0125255 0)
(0.763378 -0.0217732 0)
(0.698912 -0.0392918 0)
(0.583826 -0.0726677 0)
(0.41639 -0.127808 0)
(0.309417 -0.149276 0)
)
;

boundaryField
{
    movingWall
    {
        type            fixedValue;
        value           uniform (1 0 0);
    }
    fixedWalls
    {
        type            noSlip;
    }
    frontAndBack
    {
        type            empty;
    }
}


// ************************************************************************* //
