/*--------------------------------*- C++ -*----------------------------------*\
  =========                 |
  \\      /  F ield         | OpenFOAM: The Open Source CFD Toolbox
   \\    /   O peration     | Website:  https://openfoam.org
    \\  /    A nd           | Version:  8
     \\/     M anipulation  |
\*---------------------------------------------------------------------------*/
FoamFile
{
    version     2.0;
    format      ascii;
    class       volVectorField;
    location    "0.7";
    object      U;
}
// * * * * * * * * * * * * * * * * * * * * * * * * * * * * * * * * * * * * * //

dimensions      [0 1 -1 0 0 0 0];

internalField   nonuniform List<vector> 
400
(
(0.0249182 -8.66296e-08 0)
(0.0249181 -8.08717e-09 0)
(0.024918 5.76389e-08 0)
(0.0249179 6.58431e-08 0)
(0.0249177 6.29368e-08 0)
(0.0249176 5.55282e-08 0)
(0.0249174 4.61795e-08 0)
(0.0249173 3.69195e-08 0)
(0.0249173 2.87917e-08 0)
(0.0249172 2.1526e-08 0)
(0.0249172 1.41927e-08 0)
(0.0249172 5.78037e-09 0)
(0.0249172 -4.60497e-09 0)
(0.0249172 -1.79041e-08 0)
(0.0249173 -3.52191e-08 0)
(0.0249174 -5.74125e-08 0)
(0.0249175 -8.40198e-08 0)
(0.0249177 -1.08752e-07 0)
(0.0249179 -1.15716e-07 0)
(0.0249181 -1.21066e-07 0)
(0.0747556 -6.07261e-08 0)
(0.0747555 1.12886e-07 0)
(0.0747554 2.52371e-07 0)
(0.0747552 2.73755e-07 0)
(0.0747549 2.57033e-07 0)
(0.0747547 2.24508e-07 0)
(0.0747545 1.85894e-07 0)
(0.0747544 1.47174e-07 0)
(0.0747542 1.11022e-07 0)
(0.0747542 7.69169e-08 0)
(0.0747541 4.25283e-08 0)
(0.0747541 5.05508e-09 0)
(0.0747541 -3.81553e-08 0)
(0.0747542 -8.95417e-08 0)
(0.0747543 -1.50947e-07 0)
(0.0747545 -2.21859e-07 0)
(0.0747548 -2.95675e-07 0)
(0.074755 -3.48218e-07 0)
(0.0747554 -3.31548e-07 0)
(0.0747556 -2.54525e-07 0)
(0.124599 -7.47172e-08 0)
(0.124599 2.66866e-07 0)
(0.124598 4.47918e-07 0)
(0.124598 4.98317e-07 0)
(0.124598 4.78078e-07 0)
(0.124598 4.24004e-07 0)
(0.124598 3.55233e-07 0)
(0.124598 2.82696e-07 0)
(0.124598 2.11085e-07 0)
(0.124597 1.40461e-07 0)
(0.124597 6.81378e-08 0)
(0.124597 -9.63397e-09 0)
(0.124597 -9.66824e-08 0)
(0.124597 -1.96334e-07 0)
(0.124598 -3.09987e-07 0)
(0.124598 -4.33603e-07 0)
(0.124598 -5.51327e-07 0)
(0.124598 -6.22394e-07 0)
(0.124598 -5.75353e-07 0)
(0.124599 -3.6705e-07 0)
(0.174451 -6.63864e-08 0)
(0.174451 3.22546e-07 0)
(0.174451 5.62414e-07 0)
(0.174451 6.48648e-07 0)
(0.174451 6.39671e-07 0)
(0.174451 5.79535e-07 0)
(0.174451 4.93763e-07 0)
(0.174451 3.97426e-07 0)
(0.174451 2.97939e-07 0)
(0.174451 1.97071e-07 0)
(0.174451 9.29867e-08 0)
(0.174451 -1.79114e-08 0)
(0.174451 -1.39658e-07 0)
(0.174451 -2.75468e-07 0)
(0.174451 -4.25515e-07 0)
(0.174451 -5.82585e-07 0)
(0.174451 -7.24753e-07 0)
(0.174451 -8.02581e-07 0)
(0.174451 -7.36604e-07 0)
(0.174451 -4.70703e-07 0)
(0.224318 -1.18603e-07 0)
(0.224318 3.05343e-07 0)
(0.224318 5.85712e-07 0)
(0.224318 7.07131e-07 0)
(0.224318 7.20345e-07 0)
(0.224318 6.69141e-07 0)
(0.224318 5.81542e-07 0)
(0.224318 4.75644e-07 0)
(0.224318 3.6146e-07 0)
(0.224318 2.42777e-07 0)
(0.224317 1.19213e-07 0)
(0.224317 -1.19083e-08 0)
(0.224317 -1.54022e-07 0)
(0.224317 -3.09665e-07 0)
(0.224317 -4.77877e-07 0)
(0.224318 -6.49793e-07 0)
(0.224318 -8.01734e-07 0)
(0.224318 -8.84171e-07 0)
(0.224318 -8.18273e-07 0)
(0.224318 -5.45876e-07 0)
(0.274201 -1.73615e-07 0)
(0.274201 2.40249e-07 0)
(0.274201 5.33142e-07 0)
(0.274201 6.78786e-07 0)
(0.274201 7.15677e-07 0)
(0.274201 6.82427e-07 0)
(0.274201 6.05955e-07 0)
(0.274201 5.05068e-07 0)
(0.274201 3.91236e-07 0)
(0.274201 2.69906e-07 0)
(0.274201 1.42215e-07 0)
(0.274201 6.69449e-09 0)
(0.274201 -1.39179e-07 0)
(0.274201 -2.97216e-07 0)
(0.274201 -4.65937e-07 0)
(0.274201 -6.36476e-07 0)
(0.274201 -7.86563e-07 0)
(0.274201 -8.71688e-07 0)
(0.274201 -8.20637e-07 0)
(0.274201 -5.75488e-07 0)
(0.324104 -2.1875e-07 0)
(0.324104 1.49395e-07 0)
(0.324104 4.26905e-07 0)
(0.324104 5.80679e-07 0)
(0.324104 6.36027e-07 0)
(0.324104 6.23691e-07 0)
(0.324104 5.66626e-07 0)
(0.324104 4.82209e-07 0)
(0.324105 3.81997e-07 0)
(0.324105 2.72304e-07 0)
(0.324105 1.55438e-07 0)
(0.324105 3.10877e-08 0)
(0.324104 -1.02303e-07 0)
(0.324104 -2.45976e-07 0)
(0.324104 -3.98694e-07 0)
(0.324104 -5.53223e-07 0)
(0.324104 -6.91231e-07 0)
(0.324104 -7.76683e-07 0)
(0.324104 -7.50658e-07 0)
(0.324104 -5.57927e-07 0)
(0.374029 -2.44297e-07 0)
(0.374029 4.85449e-08 0)
(0.374029 2.85415e-07 0)
(0.374029 4.3006e-07 0)
(0.374029 4.95414e-07 0)
(0.37403 5.02899e-07 0)
(0.37403 4.69652e-07 0)
(0.37403 4.09889e-07 0)
(0.37403 3.33876e-07 0)
(0.37403 2.47839e-07 0)
(0.37403 1.54689e-07 0)
(0.37403 5.50072e-08 0)
(0.37403 -5.1936e-08 0)
(0.37403 -1.6703e-07 0)
(0.37403 -2.8979e-07 0)
(0.37403 -4.15705e-07 0)
(0.374029 -5.32121e-07 0)
(0.374029 -6.13811e-07 0)
(0.374029 -6.17484e-07 0)
(0.374029 -4.93853e-07 0)
(0.423978 -2.43909e-07 0)
(0.423978 -4.86589e-08 0)
(0.423978 1.26581e-07 0)
(0.423978 2.45936e-07 0)
(0.423979 3.1155e-07 0)
(0.423979 3.35066e-07 0)
(0.423979 3.26751e-07 0)
(0.423979 2.96387e-07 0)
(0.423979 2.51778e-07 0)
(0.423979 1.98145e-07 0)
(0.423979 1.38385e-07 0)
(0.423979 7.36128e-08 0)
(0.423979 3.72118e-09 0)
(0.423979 -7.2018e-08 0)
(0.423979 -1.5415e-07 0)
(0.423979 -2.41399e-07 0)
(0.423979 -3.27754e-07 0)
(0.423978 -4.00131e-07 0)
(0.423978 -4.33029e-07 0)
(0.423978 -3.86674e-07 0)
(0.473952 -2.1617e-07 0)
(0.473952 -1.32616e-07 0)
(0.473952 -3.44205e-08 0)
(0.473953 4.64564e-08 0)
(0.473953 1.03182e-07 0)
(0.473953 1.3775e-07 0)
(0.473953 1.53098e-07 0)
(0.473953 1.53779e-07 0)
(0.473954 1.4428e-07 0)
(0.473954 1.28082e-07 0)
(0.473954 1.07517e-07 0)
(0.473954 8.38823e-08 0)
(0.473954 5.75149e-08 0)
(0.473954 2.77811e-08 0)
(0.473953 -6.91426e-09 0)
(0.473953 -4.85725e-08 0)
(0.473953 -9.80758e-08 0)
(0.473953 -1.54978e-07 0)
(0.473953 -2.1266e-07 0)
(0.473952 -2.44144e-07 0)
(0.523952 -1.64354e-07 0)
(0.523952 -1.98046e-07 0)
(0.523953 -1.85788e-07 0)
(0.523953 -1.52134e-07 0)
(0.523953 -1.11326e-07 0)
(0.523953 -7.05365e-08 0)
(0.523953 -3.41788e-08 0)
(0.523954 -3.30283e-09 0)
(0.523954 2.27589e-08 0)
(0.523954 4.5261e-08 0)
(0.523954 6.55866e-08 0)
(0.523954 8.49573e-08 0)
(0.523954 1.04047e-07 0)
(0.523954 1.22382e-07 0)
(0.523954 1.37558e-07 0)
(0.523954 1.44685e-07 0)
(0.523953 1.36398e-07 0)
(0.523953 1.00822e-07 0)
(0.523953 2.54889e-08 0)
(0.523953 -7.79686e-08 0)
(0.573978 -9.54908e-08 0)
(0.573979 -2.43512e-07 0)
(0.573979 -3.18784e-07 0)
(0.573979 -3.35707e-07 0)
(0.573979 -3.14675e-07 0)
(0.573979 -2.71355e-07 0)
(0.573979 -2.17203e-07 0)
(0.573979 -1.5887e-07 0)
(0.57398 -9.9659e-08 0)
(0.57398 -4.07436e-08 0)
(0.57398 1.81281e-08 0)
(0.57398 7.79896e-08 0)
(0.57398 1.39853e-07 0)
(0.57398 2.03594e-07 0)
(0.57398 2.66454e-07 0)
(0.57398 3.21412e-07 0)
(0.573979 3.55621e-07 0)
(0.573979 3.46002e-07 0)
(0.573979 2.61663e-07 0)
(0.573979 9.7115e-08 0)
(0.62403 -1.92552e-08 0)
(0.62403 -2.7044e-07 0)
(0.62403 -4.27029e-07 0)
(0.62403 -4.91984e-07 0)
(0.62403 -4.90808e-07 0)
(0.62403 -4.46919e-07 0)
(0.62403 -3.78223e-07 0)
(0.624031 -2.96599e-07 0)
(0.624031 -2.09118e-07 0)
(0.624031 -1.19284e-07 0)
(0.624031 -2.79363e-08 0)
(0.624031 6.5803e-08 0)
(0.624031 1.63385e-07 0)
(0.624031 2.65316e-07 0)
(0.624031 3.69079e-07 0)
(0.624031 4.66554e-07 0)
(0.62403 5.40905e-07 0)
(0.62403 5.5978e-07 0)
(0.62403 4.75505e-07 0)
(0.62403 2.64445e-07 0)
(0.674105 5.3207e-08 0)
(0.674105 -2.81934e-07 0)
(0.674105 -5.0575e-07 0)
(0.674105 -6.10171e-07 0)
(0.674105 -6.25014e-07 0)
(0.674105 -5.80662e-07 0)
(0.674105 -5.00553e-07 0)
(0.674105 -4.01015e-07 0)
(0.674106 -2.92299e-07 0)
(0.674106 -1.79834e-07 0)
(0.674106 -6.53123e-08 0)
(0.674106 5.21368e-08 0)
(0.674106 1.74561e-07 0)
(0.674106 3.034e-07 0)
(0.674106 4.37025e-07 0)
(0.674106 5.67406e-07 0)
(0.674105 6.75601e-07 0)
(0.674105 7.22673e-07 0)
(0.674105 6.46947e-07 0)
(0.674105 4.06624e-07 0)
(0.724202 1.10614e-07 0)
(0.724202 -2.81464e-07 0)
(0.724202 -5.50907e-07 0)
(0.724202 -6.80612e-07 0)
(0.724202 -7.04223e-07 0)
(0.724202 -6.58144e-07 0)
(0.724202 -5.69974e-07 0)
(0.724202 -4.5921e-07 0)
(0.724202 -3.38261e-07 0)
(0.724202 -2.13793e-07 0)
(0.724202 -8.79536e-08 0)
(0.724202 4.03252e-08 0)
(0.724202 1.73826e-07 0)
(0.724202 3.15155e-07 0)
(0.724202 4.64127e-07 0)
(0.724202 6.13988e-07 0)
(0.724202 7.45813e-07 0)
(0.724202 8.17455e-07 0)
(0.724202 7.57247e-07 0)
(0.724202 5.06843e-07 0)
(0.774319 1.43361e-07 0)
(0.774319 -2.71156e-07 0)
(0.774319 -5.57735e-07 0)
(0.774319 -6.93988e-07 0)
(0.774319 -7.17059e-07 0)
(0.774319 -6.67835e-07 0)
(0.774319 -5.76009e-07 0)
(0.774319 -4.62364e-07 0)
(0.774319 -3.40031e-07 0)
(0.774319 -2.15989e-07 0)
(0.774319 -9.23589e-08 0)
(0.774319 3.23092e-08 0)
(0.774319 1.61561e-07 0)
(0.774319 2.99202e-07 0)
(0.774319 4.46773e-07 0)
(0.774319 5.99747e-07 0)
(0.774319 7.41406e-07 0)
(0.774319 8.30318e-07 0)
(0.774319 7.90315e-07 0)
(0.774319 5.50356e-07 0)
(0.824453 1.45491e-07 0)
(0.824453 -2.48983e-07 0)
(0.824452 -5.17497e-07 0)
(0.824452 -6.38405e-07 0)
(0.824452 -6.51613e-07 0)
(0.824452 -5.99633e-07 0)
(0.824452 -5.11021e-07 0)
(0.824452 -4.0524e-07 0)
(0.824452 -2.94339e-07 0)
(0.824452 -1.8455e-07 0)
(0.824452 -7.74973e-08 0)
(0.824452 2.87071e-08 0)
(0.824452 1.38168e-07 0)
(0.824452 2.55569e-07 0)
(0.824452 3.83986e-07 0)
(0.824452 5.21577e-07 0)
(0.824452 6.55774e-07 0)
(0.824452 7.50257e-07 0)
(0.824452 7.32096e-07 0)
(0.824452 5.24152e-07 0)
(0.874599 1.13001e-07 0)
(0.874599 -2.10706e-07 0)
(0.874599 -4.22327e-07 0)
(0.874599 -5.06439e-07 0)
(0.874599 -5.03847e-07 0)
(0.874599 -4.53452e-07 0)
(0.874599 -3.78302e-07 0)
(0.874599 -2.93306e-07 0)
(0.874598 -2.07468e-07 0)
(0.874598 -1.25335e-07 0)
(0.874598 -4.77887e-08 0)
(0.874598 2.73152e-08 0)
(0.874598 1.04139e-07 0)
(0.874598 1.87383e-07 0)
(0.874598 2.80551e-07 0)
(0.874599 3.83869e-07 0)
(0.874599 4.90379e-07 0)
(0.874599 5.74115e-07 0)
(0.874599 5.75534e-07 0)
(0.874599 4.20269e-07 0)
(0.924756 6.14758e-08 0)
(0.924756 -1.35516e-07 0)
(0.924756 -2.54978e-07 0)
(0.924756 -2.93141e-07 0)
(0.924756 -2.80312e-07 0)
(0.924755 -2.43956e-07 0)
(0.924755 -1.97082e-07 0)
(0.924755 -1.47549e-07 0)
(0.924755 -9.99284e-08 0)
(0.924755 -5.64285e-08 0)
(0.924755 -1.71822e-08 0)
(0.924755 1.96105e-08 0)
(0.924755 5.70983e-08 0)
(0.924755 9.85888e-08 0)
(0.924755 1.46324e-07 0)
(0.924755 2.01125e-07 0)
(0.924755 2.61587e-07 0)
(0.924756 3.15132e-07 0)
(0.924756 3.28071e-07 0)
(0.924756 2.42916e-07 0)
(0.974918 1.15428e-08 0)
(0.974918 -4.9973e-08 0)
(0.974918 -8.14381e-08 0)
(0.974918 -8.63775e-08 0)
(0.974918 -7.74993e-08 0)
(0.974918 -6.39895e-08 0)
(0.974918 -4.91592e-08 0)
(0.974917 -3.47053e-08 0)
(0.974917 -2.15684e-08 0)
(0.974917 -1.02182e-08 0)
(0.974917 -5.85081e-10 0)
(0.974917 8.05121e-09 0)
(0.974917 1.68722e-08 0)
(0.974917 2.70013e-08 0)
(0.974917 3.90267e-08 0)
(0.974918 5.32857e-08 0)
(0.974918 7.03579e-08 0)
(0.974918 8.79431e-08 0)
(0.974918 9.60222e-08 0)
(0.974918 7.3335e-08 0)
)
;

boundaryField
{
    movingWall
    {
        type            fixedValue;
        value           uniform (1 0 0);
    }
    fixedWalls
    {
        type            noSlip;
    }
    left
    {
        type            cyclic;
    }
    right
    {
        type            cyclic;
    }
    frontAndBack
    {
        type            empty;
    }
}


// ************************************************************************* //
