/*--------------------------------*- C++ -*----------------------------------*\
  =========                 |
  \\      /  F ield         | OpenFOAM: The Open Source CFD Toolbox
   \\    /   O peration     | Website:  https://openfoam.org
    \\  /    A nd           | Version:  8
     \\/     M anipulation  |
\*---------------------------------------------------------------------------*/
FoamFile
{
    version     2.0;
    format      ascii;
    class       volScalarField;
    location    "41.5";
    object      p;
}
// * * * * * * * * * * * * * * * * * * * * * * * * * * * * * * * * * * * * * //

dimensions      [0 2 -2 0 0 0 0];

internalField   nonuniform List<scalar> 
464
(
-3.26885e-08
1.8783e-06
7.48836e-06
1.58989e-05
2.74074e-05
4.18107e-05
5.92378e-05
7.8747e-05
0.000102108
0.000124494
0.000154387
0.000174959
-2.21068e-06
-3.02175e-07
5.31107e-06
1.37319e-05
2.52899e-05
3.98331e-05
5.75297e-05
7.7578e-05
0.000101686
0.000125359
0.000156539
0.000180234
-8.34701e-06
-6.45786e-06
-8.15529e-07
7.65068e-06
1.92713e-05
3.38675e-05
5.14134e-05
7.14184e-05
9.44606e-05
0.000118212
0.00014639
0.000171445
-1.75824e-05
-1.57213e-05
-1.00201e-05
-1.42548e-06
1.04652e-05
2.56269e-05
4.42583e-05
6.61395e-05
9.1697e-05
0.000118773
0.00015043
0.000179721
-3.03374e-05
-2.85419e-05
-2.28103e-05
-1.4146e-05
-2.11823e-06
1.31411e-05
3.14897e-05
5.26853e-05
7.68622e-05
0.000103482
0.000133094
0.000163732
-4.6677e-05
-4.49957e-05
-3.9248e-05
-3.04776e-05
-1.81065e-05
-1.96099e-06
1.85284e-05
4.32922e-05
7.22452e-05
0.000104558
0.00014059
0.000177796
-6.63074e-05
-6.48723e-05
-5.92498e-05
-5.06628e-05
-3.84002e-05
-2.258e-05
-3.52992e-06
1.9084e-05
4.55236e-05
7.57861e-05
0.000109761
0.000147323
-9.05505e-05
-8.93894e-05
-8.38597e-05
-7.52571e-05
-6.26983e-05
-4.51719e-05
-2.19994e-05
6.63703e-06
4.06509e-05
7.97639e-05
0.000123881
0.000172209
-0.000117026
-0.000116708
-0.000111548
-0.000104015
-9.27534e-05
-7.83518e-05
-5.96935e-05
-3.59731e-05
-6.8677e-06
2.78929e-05
6.75674e-05
0.000114903
-0.000148979
-0.000149076
-0.000144716
-0.000136752
-0.000124261
-0.000104958
-7.99436e-05
-4.78007e-05
-8.63731e-06
3.82911e-05
9.21608e-05
0.000157262
-0.000183751
-0.000190508
-0.000183339
-0.000187062
-0.000176739
-0.000166355
-0.000147861
-0.000123006
-9.11585e-05
-4.99287e-05
-8.35484e-06
5.73796e-05
-0.000208474
-0.000206358
-0.000210049
-0.000201816
-0.000197168
-0.000180032
-0.000158977
-0.000125808
-8.46834e-05
-2.87993e-05
2.90976e-05
0.000120708
-0.000282841
-0.000307659
-0.0002881
-0.000320378
-0.000296725
-0.000303296
-0.000279143
-0.000254106
-0.000221818
-0.000167965
-0.000135629
-3.71935e-05
-0.000256965
-0.000254582
-0.000277439
-0.00027221
-0.000288447
-0.000276747
-0.0002693
-0.000236632
-0.000203777
-0.000134677
-8.77871e-05
3.43668e-05
-0.000390676
-0.000464671
-0.000418487
-0.000515858
-0.00046293
-0.000507052
-0.000463673
-0.000445145
-0.000411524
-0.000337724
-0.000328072
-0.000183669
-0.000292475
-0.000288347
-0.000348961
-0.000354114
-0.000406453
-0.00040892
-0.000425612
-0.000394212
-0.000381047
-0.000289834
-0.000277293
-0.000100576
-0.000438862
-0.000664421
-0.000570536
-0.000809147
-0.000702113
-0.000804858
-0.000724038
-0.000711048
-0.000667241
-0.000565696
-0.000587401
-0.000393051
-0.000312807
-0.000300634
-0.000430356
-0.000468775
-0.000563894
-0.000605704
-0.000649968
-0.000618901
-0.000630912
-0.000500979
-0.000541755
-0.000292572
-0.000137668
-0.000965236
-0.000785887
-0.00129426
-0.00109023
-0.0012402
-0.00109811
-0.00106017
-0.000990447
-0.000834011
-0.000879637
-0.000610284
-0.00128459
-0.000269259
-0.000475152
-0.00080128
-0.000868039
-0.000973563
-0.00102258
-0.000952823
-0.000969318
-0.000760039
-0.000845885
-0.000495874
0.0002139
0.000231416
0.000251753
0.000264968
0.000277931
0.000286593
0.000293155
0.000295603
0.00022139
0.000239813
0.000262264
0.000276644
0.000290649
0.000300124
0.000307226
0.000309902
0.000203193
0.000227513
0.000253263
0.000273842
0.000292442
0.000306232
0.000316086
0.000320128
0.000214516
0.000241714
0.000270052
0.000293031
0.000313599
0.00032921
0.000340192
0.000344849
0.000197524
0.000230198
0.000262574
0.00029242
0.000318237
0.00033972
0.000354094
0.0003609
0.000216923
0.000254708
0.000291647
0.00032631
0.000356032
0.000381548
0.000398303
0.000406663
0.000188129
0.000232502
0.000274504
0.000320247
0.00035513
0.00039221
0.00041243
0.00042584
0.000222064
0.00027525
0.000325487
0.000380352
0.000422902
0.000468557
0.000493772
0.000511233
0.000162764
0.000229327
0.000277862
0.000357405
0.000399385
0.000473223
0.000498991
0.000531459
0.000219145
0.000299136
0.000363647
0.00045767
0.00051629
0.000606566
0.000644438
0.000687703
0.00010221
0.000209226
0.000253598
0.000397164
0.000439869
0.000594304
0.000626205
0.00071418
0.000187413
0.00031254
0.000385544
0.000551588
0.00062698
0.000815304
0.000875717
0.000999429
-1.73895e-05
0.000150079
0.000164224
0.000411985
0.000436265
0.000755953
0.00079833
0.00106302
8.67342e-05
0.000285153
0.000337693
0.000626844
0.000697863
0.00109349
0.00119847
0.00159466
-0.000213719
1.56506e-05
-5.62429e-05
0.000322729
0.000256212
0.000870723
0.000912198
0.00174859
-0.000118993
0.000181038
0.000113295
0.000582876
0.000502804
0.00127955
0.00131424
0.00258948
-0.000514396
-0.000218287
-0.00047735
-1.31828e-05
-0.000467221
0.000505969
-0.000166297
0.00203091
-0.000425984
-4.14352e-05
-0.000347051
0.000241415
-0.000491467
0.000693323
-0.000649991
0.00287425
-0.000827978
-0.000470399
-0.000987371
-0.000550954
-0.00176206
-0.00104505
-0.00222152
0.00179426
-0.000724657
-0.000282169
-0.000693605
-0.000254106
-0.000624729
0.000685942
0.00330756
0.0112826
0.000268191
0.000268511
0.000269324
0.000270271
0.00027136
0.000272267
0.000272998
0.000273278
0.000269088
0.000269415
0.000270237
0.000271199
0.000272271
0.000273163
0.000273879
0.000274148
0.000265805
0.000266346
0.000267653
0.000269109
0.000270789
0.000272154
0.000273247
0.000273663
0.000268317
0.000268933
0.00027036
0.000271966
0.000273686
0.000275086
0.000276192
0.000276602
0.000260344
0.000261722
0.00026461
0.000267527
0.000270857
0.000273387
0.00027541
0.000276166
0.000264625
0.000266234
0.000269396
0.000272684
0.000276083
0.000278749
0.00028082
0.000281585
0.000247634
0.000252004
0.000259307
0.0002656
0.000272439
0.000277255
0.000281053
0.000282446
0.000253552
0.000258952
0.000266737
0.000273679
0.000280726
0.000285854
0.000289827
0.000291282
)
;

boundaryField
{
    movingWall
    {
        type            zeroGradient;
    }
    fixedWalls
    {
        type            zeroGradient;
    }
    frontAndBack
    {
        type            empty;
    }
}


// ************************************************************************* //
