/*--------------------------------*- C++ -*----------------------------------*\
  =========                 |
  \\      /  F ield         | OpenFOAM: The Open Source CFD Toolbox
   \\    /   O peration     | Website:  https://openfoam.org
    \\  /    A nd           | Version:  8
     \\/     M anipulation  |
\*---------------------------------------------------------------------------*/
FoamFile
{
    version     2.0;
    format      ascii;
    class       volScalarField;
    location    "0.285";
    object      p;
}
// * * * * * * * * * * * * * * * * * * * * * * * * * * * * * * * * * * * * * //

dimensions      [0 2 -2 0 0 0 0];

internalField   nonuniform List<scalar> 
400
(
3.63357e-06
-0.0058226
-0.012959
-0.01841
-0.0204267
-0.0182327
-0.0117684
-0.0014791
0.0118407
0.0271509
0.0432444
0.0588215
0.0725758
0.0833049
0.090049
0.0922636
0.0900236
0.0842431
0.0768813
0.0710688
0.00578103
-0.000216984
-0.0058017
-0.00953943
-0.0105952
-0.00842874
-0.0029661
0.00547746
0.0163054
0.0287132
0.0417502
0.0543854
0.0655851
0.0744081
0.0801185
0.0823144
0.0810767
0.0770554
0.0712758
0.0653205
0.0133336
0.00503355
-0.000994306
-0.0044213
-0.00527055
-0.00326125
0.00160505
0.00903006
0.0185041
0.0293507
0.0407661
0.0518697
0.0617682
0.0696358
0.0748066
0.0768781
0.0758423
0.0720876
0.0658083
0.0575396
0.0201364
0.00869471
0.00122592
-0.0026676
-0.00372058
-0.0018834
0.00273335
0.00978661
0.0187822
0.0290965
0.0399931
0.0506547
0.0602333
0.0679163
0.0730037
0.0750025
0.0737675
0.0694587
0.0616069
0.0501081
0.024498
0.00977121
0.000589283
-0.00398648
-0.00530113
-0.00350579
0.00117655
0.0083365
0.0174639
0.0279509
0.0390866
0.0500713
0.06005
0.0681662
0.0736277
0.0757995
0.0743715
0.0692932
0.0595303
0.0445438
0.0251738
0.00714805
-0.00380259
-0.00905684
-0.0105111
-0.00849836
-0.00335483
0.00443163
0.0143157
0.0256814
0.0378161
0.0499054
0.0610501
0.0703051
0.0767367
0.0795194
0.0781421
0.0723376
0.0605447
0.0418974
0.0210901
-0.000263829
-0.0129347
-0.0187086
-0.0200283
-0.0174118
-0.0113158
-0.00231685
0.00899347
0.0219793
0.0359128
0.0499474
0.0631151
0.0743481
0.0825247
0.0865726
0.0857244
0.0794516
0.0656261
0.0430793
0.0111408
-0.0136186
-0.0278744
-0.0338528
-0.0346013
-0.0308547
-0.0232095
-0.0123414
0.00110887
0.0164881
0.0330567
0.0499377
0.0660873
0.0802937
0.0912044
0.0974338
0.0978744
0.0916408
0.0759021
0.0491238
-0.00596697
-0.0342653
-0.0498681
-0.0555461
-0.055087
-0.0495108
-0.0395892
-0.0261085
-0.00975197
0.00882831
0.0289063
0.0495987
0.0698025
0.0881593
0.103052
0.112706
0.115555
0.110197
0.0928397
0.061418
-0.0318543
-0.063873
-0.0804136
-0.0850034
-0.0824159
-0.0740736
-0.0609756
-0.0440308
-0.0239453
-0.00133046
0.0231521
0.0486673
0.0741016
0.0979779
0.118401
0.133131
0.139993
0.136823
0.118446
0.0819393
-0.0686618
-0.104598
-0.12134
-0.123585
-0.11751
-0.105121
-0.0877121
-0.0663188
-0.0416299
-0.0141482
0.015613
0.0469605
0.0788627
0.1098
0.13763
0.159591
0.172732
0.173783
0.155525
0.113575
-0.119394
-0.15935
-0.174909
-0.172751
-0.161142
-0.142922
-0.119752
-0.0927697
-0.0625696
-0.0294396
0.00638126
0.0444814
0.0840627
0.12371
0.161142
0.193091
0.215673
0.224081
0.208054
0.160635
-0.188618
-0.232234
-0.243931
-0.233941
-0.213688
-0.187148
-0.156365
-0.122493
-0.0858897
-0.0464637
-0.00400591
0.0415472
0.08985
0.139836
0.189325
0.234695
0.271079
0.291668
0.281745
0.229777
-0.283963
-0.329296
-0.331824
-0.308273
-0.274702
-0.236433
-0.195757
-0.153602
-0.109832
-0.0637365
-0.0144292
0.0388719
0.0965622
0.158284
0.22238
0.285293
0.341402
0.381578
0.384916
0.331834
-0.419307
-0.459662
-0.442343
-0.395786
-0.342123
-0.287733
-0.234609
-0.182923
-0.131601
-0.0789764
-0.0232053
0.0374838
0.104561
0.178845
0.259867
0.344975
0.42862
0.499703
0.529677
0.485391
-0.620521
-0.636735
-0.57867
-0.494187
-0.411236
-0.335653
-0.267775
-0.205971
-0.147529
-0.0893748
-0.0284175
0.0383567
0.113815
0.200478
0.299981
0.41203
0.533033
0.651778
0.732773
0.722395
-0.935915
-0.878508
-0.741736
-0.597945
-0.474389
-0.372656
-0.288864
-0.217757
-0.153947
-0.0924564
-0.0287092
0.0417038
0.123271
0.220725
0.338932
0.482159
0.652
0.841344
1.01527
1.0975
-1.47642
-1.20663
-0.9205
-0.691386
-0.517303
-0.387542
-0.290058
-0.213333
-0.148118
-0.0872088
-0.0245701
0.0454653
0.128945
0.233078
0.367109
0.542683
0.771297
1.05932
1.40329
1.73014
-2.53964
-1.63054
-1.04444
-0.710958
-0.495751
-0.352093
-0.254529
-0.18358
-0.126165
-0.0735893
-0.0192619
0.0427948
0.11922
0.21879
0.354819
0.547989
0.826397
1.23658
1.91168
2.92419
-4.36666
-2.04463
-0.973542
-0.563182
-0.357848
-0.240149
-0.17012
-0.123782
-0.0874783
-0.0535051
-0.0166474
0.0276691
0.0846166
0.161739
0.27242
0.442106
0.718225
1.22571
2.41104
4.84853
)
;

boundaryField
{
    movingWall
    {
        type            zeroGradient;
    }
    fixedWalls
    {
        type            zeroGradient;
    }
    frontAndBack
    {
        type            empty;
    }
}


// ************************************************************************* //
