/*--------------------------------*- C++ -*----------------------------------*\
  =========                 |
  \\      /  F ield         | OpenFOAM: The Open Source CFD Toolbox
   \\    /   O peration     | Website:  https://openfoam.org
    \\  /    A nd           | Version:  8
     \\/     M anipulation  |
\*---------------------------------------------------------------------------*/
FoamFile
{
    version     2.0;
    format      ascii;
    class       surfaceScalarField;
    location    "0.285";
    object      phi;
}
// * * * * * * * * * * * * * * * * * * * * * * * * * * * * * * * * * * * * * //

dimensions      [0 3 -1 0 0 0 0];

internalField   nonuniform List<scalar> 
760
(
1.42318e-08
-1.42622e-08
-2.22086e-08
3.64409e-08
-1.14258e-07
9.20498e-08
-2.45468e-07
1.3121e-07
-3.96055e-07
1.50587e-07
-5.47305e-07
1.5125e-07
-6.83113e-07
1.35808e-07
-7.90572e-07
1.07459e-07
-8.60108e-07
6.95358e-08
-8.85539e-07
2.5431e-08
-8.6422e-07
-2.13184e-08
-7.97298e-07
-6.69224e-08
-6.90008e-07
-1.0729e-07
-5.51913e-07
-1.38095e-07
-3.96902e-07
-1.55011e-07
-2.42726e-07
-1.54177e-07
-1.09725e-07
-1.33002e-07
-1.84167e-08
-9.13083e-08
1.56868e-08
-3.41038e-08
1.56867e-08
-3.42114e-08
1.99487e-08
-1.80356e-07
1.82585e-07
-4.33944e-07
3.45639e-07
-7.64355e-07
4.61621e-07
-1.13209e-06
5.18327e-07
-1.49709e-06
5.16245e-07
-1.82315e-06
4.61868e-07
-2.08032e-06
3.6463e-07
-2.24604e-06
2.35258e-07
-2.3058e-06
8.51905e-08
-2.25367e-06
-7.34508e-08
-2.09283e-06
-2.27755e-07
-1.83607e-06
-3.64049e-07
-1.50589e-06
-4.68279e-07
-1.13397e-06
-5.26932e-07
-7.59449e-07
-5.28699e-07
-4.25362e-07
-4.67089e-07
-1.72678e-07
-3.43992e-07
-3.08001e-08
-1.75981e-07
-1.51133e-08
-9.22183e-08
1.12166e-07
-3.56959e-07
4.47326e-07
-7.64479e-07
7.53158e-07
-1.26835e-06
9.65497e-07
-1.81451e-06
1.06448e-06
-2.3488e-06
1.05054e-06
-2.82214e-06
9.35206e-07
-3.19361e-06
7.361e-07
-3.43225e-06
4.73901e-07
-3.51814e-06
1.71087e-07
-3.44322e-06
-1.4838e-07
-3.21193e-06
-4.59044e-07
-2.84182e-06
-7.3416e-07
-2.36357e-06
-9.4653e-07
-1.82013e-06
-1.07036e-06
-1.26436e-06
-1.08447e-06
-7.54451e-07
-9.77004e-07
-3.46938e-07
-7.51504e-07
-8.73281e-08
-4.35591e-07
-1.02441e-07
-1.45195e-07
2.57361e-07
-5.25407e-07
8.27537e-07
-1.08152e-06
1.30927e-06
-1.74733e-06
1.63131e-06
-2.45408e-06
1.77123e-06
-3.13605e-06
1.73251e-06
-3.7349e-06
1.53406e-06
-4.20247e-06
1.20367e-06
-4.50246e-06
7.73885e-07
-4.61146e-06
2.80088e-07
-4.5198e-06
-2.40036e-07
-4.23231e-06
-7.46534e-07
-3.769e-06
-1.19748e-06
-3.16533e-06
-1.5502e-06
-2.47164e-06
-1.76405e-06
-1.7509e-06
-1.80521e-06
-1.07441e-06
-1.6535e-06
-5.15091e-07
-1.31082e-06
-1.39302e-07
-8.11379e-07
-2.41743e-07
-1.9359e-07
4.50951e-07
-6.84934e-07
1.31888e-06
-1.38549e-06
2.00983e-06
-2.20703e-06
2.45285e-06
-3.06517e-06
2.62937e-06
-3.8834e-06
2.55074e-06
-4.59606e-06
2.24672e-06
-5.15009e-06
1.7577e-06
-5.50592e-06
1.12972e-06
-5.63799e-06
4.12155e-07
-5.53524e-06
-3.4279e-07
-5.20189e-06
-1.07988e-06
-4.65846e-06
-1.74091e-06
-3.9426e-06
-2.26605e-06
-3.10943e-06
-2.59723e-06
-2.2303e-06
-2.68433e-06
-1.38952e-06
-2.49428e-06
-6.78439e-07
-2.0219e-06
-1.87751e-07
-1.30207e-06
-4.29494e-07
-2.39919e-07
6.9087e-07
-8.40279e-07
1.91924e-06
-1.68315e-06
2.85269e-06
-2.65684e-06
3.42654e-06
-3.66053e-06
3.63307e-06
-4.60739e-06
3.4976e-06
-5.42591e-06
3.06524e-06
-6.06008e-06
2.39187e-06
-6.46883e-06
1.53847e-06
-6.62552e-06
5.68844e-07
-6.5178e-06
-4.50507e-07
-6.14832e-06
-1.44936e-06
-5.53612e-06
-2.35312e-06
-4.71857e-06
-3.0836e-06
-3.75318e-06
-3.56261e-06
-2.71828e-06
-3.71923e-06
-1.71141e-06
-3.50115e-06
-8.446e-07
-2.88871e-06
-2.36161e-07
-1.91051e-06
-6.65655e-07
-2.86725e-07
9.77596e-07
-9.97022e-07
2.62953e-06
-1.98196e-06
3.83763e-06
-3.10475e-06
4.54933e-06
-4.24769e-06
4.77601e-06
-5.31448e-06
4.56439e-06
-6.22972e-06
3.98048e-06
-6.93673e-06
3.09888e-06
-7.39502e-06
1.99676e-06
-7.57815e-06
7.51973e-07
-7.4727e-06
-5.55955e-07
-7.07869e-06
-1.84338e-06
-6.41151e-06
-3.0203e-06
-5.50527e-06
-3.98984e-06
-4.41681e-06
-4.65107e-06
-3.22919e-06
-4.90685e-06
-2.05284e-06
-4.6775e-06
-1.02248e-06
-3.91907e-06
-2.88265e-07
-2.64472e-06
-9.5392e-07
-3.36316e-07
1.31391e-06
-1.16032e-06
3.45354e-06
-2.28792e-06
4.96523e-06
-3.55484e-06
5.81625e-06
-4.82641e-06
6.04757e-06
-5.9988e-06
5.73678e-06
-6.99572e-06
4.9774e-06
-7.76317e-06
3.86633e-06
-8.26412e-06
2.49771e-06
-8.47424e-06
9.62096e-07
-8.3796e-06
-6.50596e-07
-7.97656e-06
-2.24642e-06
-7.27428e-06
-3.72258e-06
-6.2997e-06
-4.96441e-06
-5.10448e-06
-5.84629e-06
-3.77239e-06
-6.23894e-06
-2.4248e-06
-6.02509e-06
-1.2207e-06
-5.12317e-06
-3.47694e-07
-3.51773e-06
-1.30161e-06
-3.90948e-07
1.70486e-06
-1.33486e-06
4.39745e-06
-2.60492e-06
6.23529e-06
-4.00585e-06
7.21718e-06
-5.38668e-06
7.42841e-06
-6.63958e-06
6.98968e-06
-7.69224e-06
6.03005e-06
-8.49825e-06
4.67234e-06
-9.02818e-06
3.02764e-06
-9.26268e-06
1.1966e-06
-9.18842e-06
-7.24863e-07
-8.79726e-06
-2.63757e-06
-8.08917e-06
-4.43067e-06
-7.07885e-06
-5.97473e-06
-5.80619e-06
-7.11896e-06
-4.34895e-06
-7.69618e-06
-2.83475e-06
-7.53929e-06
-1.44706e-06
-6.51086e-06
-4.18089e-07
-4.5467e-06
-1.7197e-06
-4.53451e-07
2.15831e-06
-1.52568e-06
5.46967e-06
-2.93487e-06
7.64448e-06
-4.45009e-06
8.73241e-06
-5.90629e-06
8.88461e-06
-7.19777e-06
8.28116e-06
-8.26361e-06
7.09589e-06
-9.07201e-06
5.48074e-06
-9.60681e-06
3.56244e-06
-9.85753e-06
1.44732e-06
-9.81336e-06
-7.69034e-07
-9.46132e-06
-2.98961e-06
-8.78905e-06
-5.10294e-06
-7.79295e-06
-6.97083e-06
-6.49217e-06
-8.41974e-06
-4.94794e-06
-9.24041e-06
-3.28509e-06
-9.20214e-06
-1.70866e-06
-8.08728e-06
-5.03583e-07
-5.75178e-06
-2.22329e-06
-5.2834e-07
2.68665e-06
-1.73967e-06
6.681e-06
-3.278e-06
9.1828e-06
-4.87167e-06
1.03261e-05
-6.34706e-06
1.036e-05
-7.61089e-06
9.54499e-06
-8.62443e-06
8.10943e-06
-9.37976e-06
6.23608e-06
-9.88107e-06
4.06375e-06
-1.01316e-05
1.69786e-06
-1.01259e-05
-7.74789e-07
-9.8464e-06
-3.26907e-06
-9.26604e-06
-5.6833e-06
-8.35637e-06
-7.8805e-06
-7.10472e-06
-9.67139e-06
-5.54072e-06
-1.08044e-05
-3.77071e-06
-1.09721e-05
-2.01217e-06
-9.84582e-06
-6.09689e-07
-7.15426e-06
-2.83297e-06
-6.23677e-07
3.31033e-06
-1.98742e-06
8.04474e-06
-3.63198e-06
1.08274e-05
-5.24203e-06
1.19361e-05
-6.64771e-06
1.17657e-05
-7.78465e-06
1.06819e-05
-8.65121e-06
8.97599e-06
-9.27453e-06
6.85939e-06
-9.68677e-06
4.47599e-06
-9.91005e-06
1.92114e-06
-9.94746e-06
-7.3738e-07
-9.77879e-06
-3.43774e-06
-9.36107e-06
-6.10102e-06
-8.63576e-06
-8.6058e-06
-7.54649e-06
-1.07607e-05
-6.07166e-06
-1.22793e-05
-4.27431e-06
-1.27695e-05
-2.36367e-06
-1.17565e-05
-7.44782e-07
-8.77315e-06
-3.57776e-06
-7.54093e-07
4.06442e-06
-2.2844e-06
9.57505e-06
-3.98711e-06
1.25301e-05
-5.50925e-06
1.34583e-05
-6.70982e-06
1.29663e-05
-7.57883e-06
1.15509e-05
-8.17037e-06
9.56754e-06
-8.55798e-06
7.247e-06
-8.8081e-06
4.72611e-06
-8.96542e-06
2.07847e-06
-9.04473e-06
-6.58074e-07
-9.02609e-06
-3.45638e-06
-8.85289e-06
-6.27421e-06
-8.43507e-06
-9.02362e-06
-7.6631e-06
-1.15326e-05
-6.44213e-06
-1.35002e-05
-4.75633e-06
-1.44553e-05
-2.76678e-06
-1.3746e-05
-9.22445e-07
-1.06175e-05
-4.5002e-06
-9.45226e-07
5.00965e-06
-2.64855e-06
1.12784e-05
-4.31111e-06
1.41926e-05
-5.57348e-06
1.47206e-05
-6.37094e-06
1.37637e-05
-6.78359e-06
1.19636e-05
-6.94086e-06
9.7248e-06
-6.97013e-06
7.27626e-06
-6.97319e-06
4.72918e-06
-7.01692e-06
2.12219e-06
-7.129e-06
-5.45986e-07
-7.29413e-06
-3.29125e-06
-7.44896e-06
-6.11938e-06
-7.47816e-06
-8.99443e-06
-7.21815e-06
-1.17926e-05
-6.4829e-06
-1.42355e-05
-5.13353e-06
-1.58047e-05
-3.21503e-06
-1.56645e-05
-1.1644e-06
-1.26681e-05
-5.6646e-06
-1.23733e-06
6.24698e-06
-3.08336e-06
1.31244e-05
-4.50783e-06
1.56171e-05
-5.23467e-06
1.54475e-05
-5.35548e-06
1.38845e-05
-5.08216e-06
1.16903e-05
-4.63128e-06
9.27392e-06
-4.17968e-06
6.82467e-06
-3.8548e-06
4.4043e-06
-3.73747e-06
2.00486e-06
-3.86556e-06
-4.17893e-07
-4.23304e-06
-2.92377e-06
-4.78244e-06
-5.56998e-06
-5.39137e-06
-8.3855e-06
-5.85873e-06
-1.13253e-05
-5.90674e-06
-1.41875e-05
-5.23292e-06
-1.64785e-05
-3.66632e-06
-1.72311e-05
-1.50009e-06
-1.48343e-05
-7.16469e-06
-1.67382e-06
7.9208e-06
-3.51342e-06
1.4964e-05
-4.31542e-06
1.64191e-05
-4.08905e-06
1.52211e-05
-3.1933e-06
1.29888e-05
-1.99906e-06
1.0496e-05
-7.95521e-07
8.07038e-06
2.18913e-07
5.81023e-06
9.17781e-07
3.70543e-06
1.22514e-06
1.6975e-06
1.10161e-06
-2.94362e-07
5.40642e-07
-2.3628e-06
-4.23302e-07
-4.60604e-06
-1.69288e-06
-7.11592e-06
-3.07266e-06
-9.9455e-06
-4.231e-06
-1.30291e-05
-4.69576e-06
-1.60137e-05
-3.96724e-06
-1.79596e-05
-1.94494e-06
-1.68566e-05
-9.10963e-06
-2.2307e-06
1.01515e-05
-3.59034e-06
1.63236e-05
-3.07787e-06
1.59066e-05
-1.34403e-06
1.34873e-05
8.96814e-07
1.07479e-05
3.15468e-06
8.23815e-06
5.13777e-06
6.08729e-06
6.6883e-06
4.2597e-06
7.72541e-06
2.66832e-06
8.20612e-06
1.21679e-06
8.10347e-06
-1.91705e-07
7.39864e-06
-1.65797e-06
6.08651e-06
-3.2939e-06
4.19889e-06
-5.2283e-06
1.85392e-06
-7.60053e-06
-6.61883e-07
-1.05133e-05
-2.79228e-06
-1.38833e-05
-3.66214e-06
-1.70898e-05
-2.41155e-06
-1.81072e-05
-1.15212e-05
-2.57382e-06
1.27253e-05
-2.18349e-06
1.59333e-05
7.18005e-07
1.30051e-05
4.46945e-06
9.73583e-06
8.13312e-06
7.08425e-06
1.13013e-05
5.06993e-06
1.38288e-05
3.55983e-06
1.56878e-05
2.40074e-06
1.68913e-05
1.46477e-06
1.74545e-05
6.53593e-07
1.7376e-05
-1.13193e-07
1.66302e-05
-9.12129e-07
1.51669e-05
-1.83062e-06
1.29233e-05
-2.98468e-06
9.86156e-06
-4.53883e-06
6.06183e-06
-6.71358e-06
1.91225e-06
-9.73375e-06
-1.55967e-06
-1.36179e-05
-2.45835e-06
-1.72085e-05
-1.39795e-05
-7.85013e-07
1.35103e-05
4.08078e-06
1.10675e-05
1.02975e-05
6.78842e-06
1.57936e-05
4.23978e-06
2.01579e-05
2.71989e-06
2.34579e-05
1.76993e-06
2.58606e-05
1.15712e-06
2.75213e-05
7.4004e-07
2.85538e-05
4.32285e-07
2.90262e-05
1.81219e-07
2.8962e-05
-4.89786e-08
2.83385e-05
-2.88691e-07
2.70816e-05
-5.73729e-07
2.50549e-05
-9.57942e-07
2.20516e-05
-1.53551e-06
1.78154e-05
-2.4774e-06
1.21723e-05
-4.09067e-06
5.4777e-06
-6.92323e-06
-1.29176e-07
-1.16017e-05
-1.41087e-05
1.35103e-05
2.45779e-05
3.13663e-05
3.56061e-05
3.83259e-05
4.00959e-05
4.1253e-05
4.1993e-05
4.24253e-05
4.26065e-05
4.25576e-05
4.22689e-05
4.16951e-05
4.07372e-05
3.92017e-05
3.67243e-05
3.26336e-05
2.57104e-05
1.41087e-05
)
;

boundaryField
{
    movingWall
    {
        type            calculated;
        value           uniform 0;
    }
    fixedWalls
    {
        type            calculated;
        value           uniform 0;
    }
    frontAndBack
    {
        type            empty;
        value           nonuniform List<scalar> 0();
    }
}


// ************************************************************************* //
