/*--------------------------------*- C++ -*----------------------------------*\
  =========                 |
  \\      /  F ield         | OpenFOAM: The Open Source CFD Toolbox
   \\    /   O peration     | Website:  https://openfoam.org
    \\  /    A nd           | Version:  8
     \\/     M anipulation  |
\*---------------------------------------------------------------------------*/
FoamFile
{
    version     2.0;
    format      ascii;
    class       volScalarField;
    location    "0.165";
    object      p;
}
// * * * * * * * * * * * * * * * * * * * * * * * * * * * * * * * * * * * * * //

dimensions      [0 2 -2 0 0 0 0];

internalField   nonuniform List<scalar> 
400
(
4.99124e-06
-0.00581364
-0.0129401
-0.0183824
-0.0203929
-0.0181959
-0.0117319
-0.00144592
0.011868
0.0271706
0.0432561
0.0588255
0.0725736
0.0832988
0.0900422
0.0922592
0.0900245
0.0842514
0.0768972
0.0710899
0.00577884
-0.00021214
-0.00578924
-0.00952038
-0.0105711
-0.00840171
-0.00293845
0.00550361
0.0163283
0.0287317
0.0417638
0.0543943
0.0655903
0.0744113
0.0801215
0.0823196
0.0810862
0.0770703
0.0712967
0.0653468
0.0133253
0.00503362
-0.000986996
-0.00440814
-0.00525283
-0.0032405
0.00162715
0.009052
0.0185246
0.0293688
0.0407814
0.0518822
0.0617784
0.069645
0.0748162
0.07689
0.0758581
0.0721083
0.0658351
0.0575734
0.0201222
0.0086909
0.0012297
-0.00265817
-0.00370669
-0.00186623
0.00275247
0.00980652
0.0188019
0.0291151
0.0400101
0.05067
0.0602474
0.0679298
0.073018
0.0750191
0.0737879
0.0694842
0.0616391
0.0501494
0.0244803
0.00976522
0.000591206
-0.00397902
-0.00528924
-0.00349035
0.00119447
0.00835596
0.017484
0.0279709
0.0391059
0.0500897
0.0600677
0.0681836
0.073646
0.07582
0.0743957
0.0693225
0.059567
0.0445909
0.0251562
0.00714245
-0.00380042
-0.00904939
-0.0104993
-0.00848284
-0.0033364
0.00445222
0.0143377
0.025704
0.0378386
0.0499274
0.0610716
0.0703264
0.0767588
0.0795433
0.0781693
0.0723697
0.0605841
0.0419477
0.0210769
-0.000265971
-0.0129298
-0.0186989
-0.0200145
-0.0173943
-0.0112951
-0.00229348
0.00901876
0.0220057
0.0359394
0.0499737
0.0631408
0.0743734
0.0825503
0.0865995
0.0857539
0.0794853
0.0656664
0.0431299
0.0111363
-0.0136144
-0.0278645
-0.0338389
-0.0345837
-0.0308334
-0.0231849
-0.012314
0.00113858
0.0165192
0.0330882
0.0499688
0.0661175
0.080323
0.0912334
0.0974633
0.0979055
0.091675
0.0759416
0.049172
-0.00595953
-0.0342523
-0.0498515
-0.0555264
-0.0550642
-0.0494847
-0.0395598
-0.0260762
-0.00971721
0.00886463
0.0289431
0.0496349
0.0698374
0.0881927
0.103084
0.112737
0.115587
0.11023
0.0928771
0.0614615
-0.0318329
-0.0638499
-0.080389
-0.0849772
-0.0823874
-0.0740422
-0.0609412
-0.0439934
-0.0239054
-0.00128898
0.0231939
0.0487084
0.074141
0.0980151
0.118436
0.133164
0.140026
0.136855
0.11848
0.0819763
-0.0686259
-0.104565
-0.121307
-0.123552
-0.117476
-0.105085
-0.0876732
-0.0662771
-0.0415856
-0.0141023
0.0156593
0.0470057
0.0789057
0.10984
0.137667
0.159625
0.172764
0.173813
0.155554
0.113604
-0.119346
-0.159308
-0.17487
-0.172713
-0.161104
-0.142883
-0.11971
-0.0927251
-0.0625224
-0.0293906
0.00643057
0.0445295
0.0841082
0.123752
0.161181
0.193126
0.215704
0.224109
0.208079
0.160656
-0.18856
-0.232185
-0.243888
-0.2339
-0.213648
-0.187107
-0.156323
-0.122448
-0.0858417
-0.0464137
-0.00395548
0.0415962
0.0898962
0.139879
0.189363
0.234728
0.271108
0.291693
0.281765
0.22979
-0.2839
-0.329244
-0.33178
-0.308233
-0.274664
-0.236395
-0.195717
-0.153559
-0.109785
-0.0636878
-0.0143798
0.0389199
0.096607
0.158324
0.222416
0.285324
0.341427
0.381599
0.38493
0.331839
-0.419245
-0.459613
-0.442302
-0.39575
-0.34209
-0.287701
-0.234575
-0.182884
-0.131559
-0.0789312
-0.023159
0.0375288
0.104603
0.178882
0.259899
0.345002
0.428642
0.499719
0.529686
0.485389
-0.620466
-0.636692
-0.578636
-0.494159
-0.411211
-0.335629
-0.267748
-0.205939
-0.147492
-0.0893345
-0.0283756
0.0383978
0.113853
0.200512
0.300008
0.412051
0.53305
0.651789
0.732778
0.722388
-0.935871
-0.878474
-0.741711
-0.597926
-0.474375
-0.37264
-0.288845
-0.217733
-0.153917
-0.0924216
-0.0286719
0.041741
0.123306
0.220755
0.338955
0.482177
0.652013
0.841352
1.01527
1.09749
-1.47639
-1.2066
-0.920485
-0.691377
-0.517298
-0.387536
-0.290048
-0.213316
-0.148095
-0.0871795
-0.024537
0.0454996
0.128978
0.233106
0.367132
0.5427
0.771308
1.05933
1.40329
1.73013
-2.53962
-1.63053
-1.04443
-0.710959
-0.495755
-0.352096
-0.254528
-0.183572
-0.126148
-0.0735645
-0.0192313
0.0428287
0.119255
0.218822
0.354846
0.548011
0.826412
1.23659
1.91168
2.92419
-4.36665
-2.04462
-0.973542
-0.563191
-0.357863
-0.240163
-0.17013
-0.123783
-0.0874683
-0.0534844
-0.0166174
0.0277058
0.0846567
0.161779
0.272456
0.442137
0.718249
1.22573
2.41105
4.84854
)
;

boundaryField
{
    movingWall
    {
        type            zeroGradient;
    }
    fixedWalls
    {
        type            zeroGradient;
    }
    frontAndBack
    {
        type            empty;
    }
}


// ************************************************************************* //
