/*--------------------------------*- C++ -*----------------------------------*\
  =========                 |
  \\      /  F ield         | OpenFOAM: The Open Source CFD Toolbox
   \\    /   O peration     | Website:  https://openfoam.org
    \\  /    A nd           | Version:  8
     \\/     M anipulation  |
\*---------------------------------------------------------------------------*/
FoamFile
{
    version     2.0;
    format      ascii;
    class       volVectorField;
    location    "0.165";
    object      U;
}
// * * * * * * * * * * * * * * * * * * * * * * * * * * * * * * * * * * * * * //

dimensions      [0 1 -1 0 0 0 0];

internalField   nonuniform List<vector> 
400
(
(0.000253078 -0.000250119 0)
(0.000140826 0.000111412 0)
(-0.00117604 0.000564095 0)
(-0.00347779 0.000884127 0)
(-0.00637109 0.00104466 0)
(-0.00945978 0.00106066 0)
(-0.0123901 0.000956869 0)
(-0.0148695 0.000759666 0)
(-0.0166721 0.000494154 0)
(-0.01764 0.000184399 0)
(-0.017684 -0.000145082 0)
(-0.016788 -0.000467845 0)
(-0.0150151 -0.000754606 0)
(-0.0125129 -0.000973257 0)
(-0.00951736 -0.0010901 0)
(-0.00634921 -0.00107299 0)
(-0.00339779 -0.000897328 0)
(-0.00108573 -0.000555964 0)
(0.00019604 -9.03878e-05 0)
(0.000267549 0.000262076 0)
(-7.74086e-05 -0.000169129 0)
(-0.00160992 0.00164326 0)
(-0.00568693 0.00361358 0)
(-0.0117064 0.00502953 0)
(-0.0188721 0.00573711 0)
(-0.0263724 0.00575402 0)
(-0.0334331 0.00516613 0)
(-0.0393843 0.00408817 0)
(-0.0436969 0.00264492 0)
(-0.0459979 0.000966104 0)
(-0.0460805 -0.000812061 0)
(-0.0439153 -0.00254403 0)
(-0.0396602 -0.00407401 0)
(-0.0336685 -0.00523937 0)
(-0.026487 -0.00588036 0)
(-0.0188362 -0.00585892 0)
(-0.0115557 -0.00508983 0)
(-0.00550826 -0.00358615 0)
(-0.00149183 -0.00155788 0)
(-4.25943e-05 0.000227089 0)
(-0.00052803 0.00109053 0)
(-0.0037074 0.00573031 0)
(-0.0105776 0.0102136 0)
(-0.0199705 0.0133933 0)
(-0.0307321 0.0149301 0)
(-0.0417777 0.0148227 0)
(-0.0520644 0.0132414 0)
(-0.0606797 0.010445 0)
(-0.0668986 0.00673507 0)
(-0.0702088 0.00243687 0)
(-0.0703273 -0.00210341 0)
(-0.067215 -0.0065175 0)
(-0.0610902 -0.0104172 0)
(-0.052436 -0.0134062 0)
(-0.0419957 -0.0151073 0)
(-0.0307442 -0.0152099 0)
(-0.0198102 -0.0135426 0)
(-0.0103538 -0.0101692 0)
(-0.00354521 -0.00554603 0)
(-0.000476404 -0.000948098 0)
(-0.000927207 0.00347612 0)
(-0.00568556 0.0122078 0)
(-0.0152862 0.0199007 0)
(-0.0278887 0.0251711 0)
(-0.0419432 0.0275675 0)
(-0.0561227 0.0271084 0)
(-0.0691827 0.0240832 0)
(-0.0800457 0.018934 0)
(-0.0878608 0.0121833 0)
(-0.0920279 0.00440166 0)
(-0.0922132 -0.00380224 0)
(-0.0883647 -0.0117822 0)
(-0.080728 -0.0188606 0)
(-0.0698574 -0.0243496 0)
(-0.0566169 -0.0275985 0)
(-0.0421565 -0.0280731 0)
(-0.0278316 -0.0254726 0)
(-0.0150802 -0.0198728 0)
(-0.00550006 -0.0119166 0)
(-0.000860792 -0.00322196 0)
(-0.00127764 0.00687056 0)
(-0.00752892 0.0209322 0)
(-0.0197867 0.0324771 0)
(-0.0355028 0.040062 0)
(-0.0526961 0.0432456 0)
(-0.069796 0.0421491 0)
(-0.085387 0.0372391 0)
(-0.0982728 0.0291835 0)
(-0.107524 0.0187591 0)
(-0.112489 0.0068088 0)
(-0.112799 -0.00577172 0)
(-0.108381 -0.0180333 0)
(-0.0994778 -0.0289791 0)
(-0.0866669 -0.0375927 0)
(-0.0708776 -0.0429011 0)
(-0.0533871 -0.0440854 0)
(-0.035756 -0.0406401 0)
(-0.0197194 -0.0325625 0)
(-0.0073646 -0.020572 0)
(-0.00120265 -0.00649229 0)
(-0.00160615 0.0112044 0)
(-0.00931058 0.0318435 0)
(-0.0241906 0.0479053 0)
(-0.0429698 0.0580154 0)
(-0.063209 0.0618764 0)
(-0.0830899 0.0598223 0)
(-0.101048 0.0525767 0)
(-0.115805 0.0410862 0)
(-0.126393 0.026413 0)
(-0.132138 0.00968641 0)
(-0.132651 -0.00790465 0)
(-0.12783 -0.0251033 0)
(-0.117882 -0.0405817 0)
(-0.103361 -0.0529656 0)
(-0.0852098 -0.060907 0)
(-0.0647913 -0.063221 0)
(-0.0438559 -0.0590888 0)
(-0.0244612 -0.0483022 0)
(-0.00924796 -0.0315306 0)
(-0.00153664 -0.0107193 0)
(-0.00193877 0.0164619 0)
(-0.0111143 0.0449338 0)
(-0.0286331 0.0661739 0)
(-0.0504497 0.078988 0)
(-0.073641 0.0833703 0)
(-0.0961462 0.0800008 0)
(-0.116282 0.0699603 0)
(-0.132735 0.0545358 0)
(-0.144544 0.0351019 0)
(-0.151051 0.0130767 0)
(-0.15186 -0.0100721 0)
(-0.14683 -0.032797 0)
(-0.136104 -0.0534461 0)
(-0.120156 -0.0702701 0)
(-0.0998779 -0.0814915 0)
(-0.0766601 -0.0854586 0)
(-0.0524123 -0.0808964 0)
(-0.0295292 -0.0672229 0)
(-0.0112775 -0.0449042 0)
(-0.00189901 -0.015939 0)
(-0.002299 0.0226762 0)
(-0.0130195 0.0602522 0)
(-0.033237 0.087293 0)
(-0.0580555 0.102912 0)
(-0.0840394 0.107576 0)
(-0.108907 0.102475 0)
(-0.130912 0.0891694 0)
(-0.14877 0.0693536 0)
(-0.161597 0.0447368 0)
(-0.168795 0.0170104 0)
(-0.16999 -0.012117 0)
(-0.165002 -0.0408521 0)
(-0.153866 -0.0672522 0)
(-0.136914 -0.0891955 0)
(-0.114897 -0.104426 0)
(-0.0891414 -0.110709 0)
(-0.0616472 -0.106133 0)
(-0.0351351 -0.0895148 0)
(-0.0135807 -0.0609066 0)
(-0.00232542 -0.0222619 0)
(-0.002711 0.0299257 0)
(-0.0151045 0.0779018 0)
(-0.038106 0.111277 0)
(-0.065833 0.129656 0)
(-0.0943042 0.134218 0)
(-0.121069 0.126878 0)
(-0.144407 0.109819 0)
(-0.163171 0.0852182 0)
(-0.176641 0.0551283 0)
(-0.184358 0.0214761 0)
(-0.186009 -0.0138568 0)
(-0.181375 -0.0489116 0)
(-0.170351 -0.0815251 0)
(-0.153043 -0.109238 0)
(-0.129939 -0.129285 0)
(-0.102161 -0.138731 0)
(-0.0716726 -0.134798 0)
(-0.0414573 -0.115396 0)
(-0.0162842 -0.0798465 0)
(-0.00285401 -0.0298715 0)
(-0.0032075 0.0383369 0)
(-0.0174653 0.0980315 0)
(-0.0433386 0.138106 0)
(-0.0737521 0.158947 0)
(-0.104153 0.162796 0)
(-0.132022 0.152572 0)
(-0.155813 0.131254 0)
(-0.174664 0.101573 0)
(-0.188151 0.0659162 0)
(-0.19605 0.0263775 0)
(-0.198167 -0.0150945 0)
(-0.194265 -0.0564986 0)
(-0.184063 -0.0955706 0)
(-0.16735 -0.129599 0)
(-0.144201 -0.155323 0)
(-0.115327 -0.168995 0)
(-0.0824373 -0.166707 0)
(-0.048631 -0.145046 0)
(-0.0195266 -0.102107 0)
(-0.00353317 -0.0390275 0)
(-0.00384433 0.0481062 0)
(-0.0202481 0.120836 0)
(-0.049051 0.167669 0)
(-0.0816936 0.190267 0)
(-0.113063 0.192452 0)
(-0.140758 0.178514 0)
(-0.163635 0.152424 0)
(-0.181323 0.117524 0)
(-0.193861 0.0764926 0)
(-0.201375 0.0314813 0)
(-0.20387 -0.0156416 0)
(-0.201121 -0.0630044 0)
(-0.192658 -0.10842 0)
(-0.177864 -0.149081 0)
(-0.156228 -0.181314 0)
(-0.127782 -0.200503 0)
(-0.093645 -0.201328 0)
(-0.0567331 -0.178494 0)
(-0.0234797 -0.128119 0)
(-0.00443547 -0.050084 0)
(-0.00472625 0.0595504 0)
(-0.0236992 0.146563 0)
(-0.0553938 0.199678 0)
(-0.0893946 0.222697 0)
(-0.120148 0.221792 0)
(-0.145708 0.203091 0)
(-0.165668 0.171755 0)
(-0.180413 0.131744 0)
(-0.190626 0.0859282 0)
(-0.196908 0.0363628 0)
(-0.199546 -0.0153552 0)
(-0.198376 -0.0676999 0)
(-0.192753 -0.1188 0)
(-0.181604 -0.165993 0)
(-0.163668 -0.205391 0)
(-0.137983 -0.231561 0)
(-0.104606 -0.237532 0)
(-0.0657387 -0.215447 0)
(-0.0283795 -0.158315 0)
(-0.00568234 -0.0635321 0)
(-0.00605286 0.0732106 0)
(-0.0282325 0.175516 0)
(-0.0625248 0.233501 0)
(-0.0962842 0.254662 0)
(-0.123895 0.24864 0)
(-0.144447 0.223937 0)
(-0.158729 0.187028 0)
(-0.168173 0.1424 0)
(-0.174271 0.0929295 0)
(-0.17819 0.0403653 0)
(-0.180556 -0.0141857 0)
(-0.181332 -0.069783 0)
(-0.179755 -0.12515 0)
(-0.174321 -0.178103 0)
(-0.162935 -0.224885 0)
(-0.143345 -0.259497 0)
(-0.113956 -0.273243 0)
(-0.0754031 -0.254995 0)
(-0.0345599 -0.193041 0)
(-0.00748686 -0.0800856 0)
(-0.00819358 0.0900325 0)
(-0.0344906 0.207982 0)
(-0.0704315 0.267826 0)
(-0.101056 0.283535 0)
(-0.121621 0.269733 0)
(-0.133168 0.237763 0)
(-0.138235 0.195335 0)
(-0.139545 0.147178 0)
(-0.139456 0.0958738 0)
(-0.139687 0.0426064 0)
(-0.1412 -0.0122231 0)
(-0.144141 -0.0684752 0)
(-0.147747 -0.125743 0)
(-0.150236 -0.182703 0)
(-0.148774 -0.236249 0)
(-0.139683 -0.280368 0)
(-0.119121 -0.304951 0)
(-0.08495 -0.295096 0)
(-0.0424457 -0.232334 0)
(-0.0102169 -0.10082 0)
(-0.011769 0.111626 0)
(-0.0432678 0.243933 0)
(-0.0783174 0.29999 0)
(-0.100663 0.305036 0)
(-0.108401 0.280397 0)
(-0.105796 0.240319 0)
(-0.0976082 0.193224 0)
(-0.0878609 0.143503 0)
(-0.0795989 0.0930058 0)
(-0.0748872 0.0420831 0)
(-0.0749045 -0.00972176 0)
(-0.0799877 -0.0631861 0)
(-0.0895512 -0.11895 0)
(-0.101865 -0.176904 0)
(-0.113748 -0.235224 0)
(-0.120351 -0.288819 0)
(-0.115294 -0.327136 0)
(-0.0922833 -0.331743 0)
(-0.052322 -0.275368 0)
(-0.0144314 -0.127334 0)
(-0.0175506 0.140654 0)
(-0.0547718 0.282127 0)
(-0.0828045 0.324687 0)
(-0.0881127 0.312432 0)
(-0.0751561 0.274409 0)
(-0.0526542 0.226723 0)
(-0.0275361 0.177245 0)
(-0.00460427 0.1291 0)
(0.0130003 0.0828893 0)
(0.0233367 0.0379372 0)
(0.025295 -0.00706885 0)
(0.0184081 -0.0537403 0)
(0.00288888 -0.103722 0)
(-0.0200759 -0.158281 0)
(-0.0477502 -0.217457 0)
(-0.0750331 -0.278314 0)
(-0.0935791 -0.331747 0)
(-0.0920817 -0.357645 0)
(-0.0632874 -0.319268 0)
(-0.0206348 -0.161964 0)
(-0.0254506 0.181709 0)
(-0.0657799 0.317761 0)
(-0.0733474 0.331343 0)
(-0.0481034 0.295374 0)
(-0.00561864 0.24418 0)
(0.0411635 0.192348 0)
(0.0845841 0.145017 0)
(0.120456 0.102947 0)
(0.146612 0.0651216 0)
(0.161952 0.0298846 0)
(0.165846 -0.00466866 0)
(0.157844 -0.0406164 0)
(0.137647 -0.0802268 0)
(0.105366 -0.125892 0)
(0.0622017 -0.179697 0)
(0.01176 -0.24199 0)
(-0.0378607 -0.307849 0)
(-0.0716966 -0.360119 0)
(-0.0700621 -0.356592 0)
(-0.0279134 -0.208369 0)
(-0.0296492 0.239177 0)
(-0.0608441 0.335764 0)
(-0.0219514 0.300494 0)
(0.0505237 0.240113 0)
(0.127543 0.182932 0)
(0.196965 0.135371 0)
(0.254282 0.097382 0)
(0.298186 0.0668373 0)
(0.328752 0.0413462 0)
(0.346389 0.0187748 0)
(0.351297 -0.00279243 0)
(0.343227 -0.0252583 0)
(0.321399 -0.0507767 0)
(0.284582 -0.082034 0)
(0.231522 -0.12243 0)
(0.162144 -0.175653 0)
(0.0798754 -0.243416 0)
(-0.00320394 -0.319123 0)
(-0.0546749 -0.368604 0)
(-0.0284603 -0.267615 0)
(0.00808341 0.281862 0)
(0.0197827 0.294972 0)
(0.139062 0.21097 0)
(0.264451 0.143472 0)
(0.36435 0.0971792 0)
(0.440338 0.0657702 0)
(0.496708 0.0442308 0)
(0.536831 0.0288807 0)
(0.563398 0.0171954 0)
(0.578254 0.00748353 0)
(0.582328 -0.00149321 0)
(0.575645 -0.0108424 0)
(0.557262 -0.0218427 0)
(0.525095 -0.0363295 0)
(0.475745 -0.0572535 0)
(0.404513 -0.089378 0)
(0.30516 -0.139736 0)
(0.173408 -0.216382 0)
(0.041169 -0.311652 0)
(0.0184298 -0.299995 0)
(0.299605 0.146091 0)
(0.396273 0.127503 0)
(0.55742 0.0760892 0)
(0.674486 0.0437224 0)
(0.743883 0.0255709 0)
(0.787144 0.0152409 0)
(0.815473 0.00921116 0)
(0.833939 0.00550852 0)
(0.845367 0.00302666 0)
(0.851352 0.00114924 0)
(0.852647 -0.000499099 0)
(0.849364 -0.00221446 0)
(0.840983 -0.00433771 0)
(0.826127 -0.00742308 0)
(0.802067 -0.0125312 0)
(0.763613 -0.0217718 0)
(0.699103 -0.039282 0)
(0.58395 -0.0726595 0)
(0.415826 -0.127868 0)
(0.30882 -0.149468 0)
)
;

boundaryField
{
    movingWall
    {
        type            fixedValue;
        value           uniform (1 0 0);
    }
    fixedWalls
    {
        type            noSlip;
    }
    frontAndBack
    {
        type            empty;
    }
}


// ************************************************************************* //
