/*--------------------------------*- C++ -*----------------------------------*\
  =========                 |
  \\      /  F ield         | OpenFOAM: The Open Source CFD Toolbox
   \\    /   O peration     | Website:  https://openfoam.org
    \\  /    A nd           | Version:  8
     \\/     M anipulation  |
\*---------------------------------------------------------------------------*/
FoamFile
{
    version     2.0;
    format      ascii;
    class       surfaceScalarField;
    location    "17";
    object      phi;
}
// * * * * * * * * * * * * * * * * * * * * * * * * * * * * * * * * * * * * * //

dimensions      [0 3 -1 0 0 0 0];

internalField   nonuniform List<scalar> 
22960
(
-1.55636e-07
1.55417e-07
-5.16284e-07
3.60648e-07
-9.35403e-07
4.19119e-07
-1.366e-06
4.30595e-07
-1.79692e-06
4.30924e-07
-2.22654e-06
4.29615e-07
-2.65475e-06
4.28216e-07
-3.08149e-06
4.26732e-07
-3.50657e-06
4.25088e-07
-3.92982e-06
4.23244e-07
-4.351e-06
4.21182e-07
-4.76989e-06
4.18894e-07
-5.18627e-06
4.16374e-07
-5.59989e-06
4.1362e-07
-6.01052e-06
4.1063e-07
-6.41792e-06
4.07402e-07
-6.82186e-06
4.03936e-07
-7.22209e-06
4.0023e-07
-7.61837e-06
3.96285e-07
-8.01047e-06
3.92099e-07
-8.39814e-06
3.87672e-07
-8.78115e-06
3.83004e-07
-9.15924e-06
3.78096e-07
-9.53219e-06
3.72949e-07
-9.89976e-06
3.67563e-07
-1.02617e-05
3.61942e-07
-1.06178e-05
3.56087e-07
-1.09678e-05
3.50004e-07
-1.13115e-05
3.43695e-07
-1.16487e-05
3.3717e-07
-1.19791e-05
3.30434e-07
-1.23026e-05
3.235e-07
-1.2619e-05
3.16379e-07
-1.29281e-05
3.09089e-07
-1.32297e-05
3.01648e-07
-1.35238e-05
2.94082e-07
-1.38102e-05
2.86422e-07
-1.40889e-05
2.78705e-07
-1.43599e-05
2.7098e-07
-1.46232e-05
2.63305e-07
-1.4879e-05
2.55755e-07
-1.51274e-05
2.48425e-07
-1.53688e-05
2.41434e-07
-1.56037e-05
2.34937e-07
-1.58329e-05
2.29133e-07
-1.60572e-05
2.24286e-07
-1.62779e-05
2.20745e-07
-1.64969e-05
2.18986e-07
-1.67166e-05
2.19665e-07
-1.69403e-05
2.23708e-07
-1.71727e-05
2.32453e-07
-1.74206e-05
2.47903e-07
-1.76938e-05
2.73173e-07
-1.80071e-05
3.13331e-07
-1.83847e-05
3.77559e-07
-1.88714e-05
4.8675e-07
-1.95602e-05
6.88761e-07
-2.06497e-05
1.08945e-06
-2.33622e-05
2.71252e-06
6.30825e-06
-2.96704e-05
-3.63105e-07
5.18523e-07
-1.02531e-06
1.02285e-06
-1.77368e-06
1.16749e-06
-2.54049e-06
1.19741e-06
-3.30948e-06
1.19992e-06
-4.07714e-06
1.19727e-06
-4.8424e-06
1.19347e-06
-5.60464e-06
1.18898e-06
-6.36336e-06
1.18381e-06
-7.11806e-06
1.17794e-06
-7.86824e-06
1.17136e-06
-8.61341e-06
1.16407e-06
-9.3531e-06
1.15606e-06
-1.00868e-05
1.14733e-06
-1.0814e-05
1.13787e-06
-1.15343e-05
1.1277e-06
-1.22472e-05
1.1168e-06
-1.29522e-05
1.10519e-06
-1.36487e-05
1.09286e-06
-1.43365e-05
1.07982e-06
-1.50149e-05
1.06607e-06
-1.56835e-05
1.05162e-06
-1.63419e-05
1.03647e-06
-1.69895e-05
1.02063e-06
-1.76261e-05
1.00411e-06
-1.82511e-05
9.86914e-07
-1.8864e-05
9.69066e-07
-1.94646e-05
9.50579e-07
-2.00524e-05
9.31471e-07
-2.0627e-05
9.11767e-07
-2.1188e-05
8.91495e-07
-2.17352e-05
8.70691e-07
-2.22682e-05
8.49395e-07
-2.27868e-05
8.27659e-07
-2.32907e-05
8.05545e-07
-2.37798e-05
7.83125e-07
-2.42538e-05
7.60492e-07
-2.47129e-05
7.37756e-07
-2.5157e-05
7.15055e-07
-2.55862e-05
6.92558e-07
-2.60009e-05
6.70476e-07
-2.64016e-05
6.49075e-07
-2.67888e-05
6.28691e-07
-2.71637e-05
6.09755e-07
-2.75273e-05
5.92827e-07
-2.78817e-05
5.78641e-07
-2.82291e-05
5.68181e-07
-2.85729e-05
5.62785e-07
-2.89176e-05
5.64314e-07
-2.92693e-05
5.75412e-07
-2.96368e-05
5.99942e-07
-3.00326e-05
6.43723e-07
-3.04752e-05
7.15805e-07
-3.09926e-05
8.30732e-07
-3.16287e-05
1.01363e-06
-3.24539e-05
1.31194e-06
-3.35715e-05
1.80636e-06
-3.51392e-05
2.65717e-06
-3.71414e-05
4.71468e-06
7.74657e-06
-3.85797e-05
-4.23857e-07
9.4238e-07
-1.17561e-06
1.77461e-06
-2.01968e-06
2.01155e-06
-2.88225e-06
2.05998e-06
-3.74657e-06
2.06423e-06
-4.60909e-06
2.05979e-06
-5.46871e-06
2.0531e-06
-6.32476e-06
2.04503e-06
-7.17666e-06
2.0357e-06
-8.02381e-06
2.02509e-06
-8.86564e-06
2.0132e-06
-9.70159e-06
2.00002e-06
-1.05311e-05
1.98556e-06
-1.13536e-05
1.96981e-06
-1.21685e-05
1.95277e-06
-1.29752e-05
1.93446e-06
-1.37733e-05
1.91487e-06
-1.45621e-05
1.89401e-06
-1.53411e-05
1.87188e-06
-1.61098e-05
1.84851e-06
-1.68676e-05
1.82388e-06
-1.7614e-05
1.79803e-06
-1.83485e-05
1.77095e-06
-1.90706e-05
1.74268e-06
-1.97797e-05
1.71321e-06
-2.04754e-05
1.68259e-06
-2.11571e-05
1.65084e-06
-2.18245e-05
1.61798e-06
-2.24771e-05
1.58406e-06
-2.31145e-05
1.54911e-06
-2.37362e-05
1.5132e-06
-2.43419e-05
1.47638e-06
-2.49312e-05
1.43874e-06
-2.55039e-05
1.40035e-06
-2.60597e-05
1.36132e-06
-2.65983e-05
1.32179e-06
-2.71197e-05
1.28191e-06
-2.76238e-05
1.24187e-06
-2.81107e-05
1.2019e-06
-2.85804e-05
1.16228e-06
-2.90333e-05
1.12338e-06
-2.94699e-05
1.08563e-06
-2.98908e-05
1.0496e-06
-3.0297e-05
1.01598e-06
-3.06899e-05
9.85687e-07
-3.10711e-05
9.59918e-07
-3.14432e-05
9.4024e-07
-3.18092e-05
9.28764e-07
-3.21732e-05
9.28372e-07
-3.25409e-05
9.43075e-07
-3.29195e-05
9.78573e-07
-3.3319e-05
1.04317e-06
-3.37524e-05
1.14924e-06
-3.42374e-05
1.31576e-06
-3.47972e-05
1.57337e-06
-3.54583e-05
1.97309e-06
-3.62427e-05
2.59075e-06
-3.71565e-05
3.57094e-06
-3.78093e-05
5.36755e-06
7.64858e-06
-3.77113e-05
-4.37015e-07
1.3794e-06
-1.2103e-06
2.54789e-06
-2.07633e-06
2.87758e-06
-2.96043e-06
2.94408e-06
-3.84601e-06
2.94981e-06
-4.72966e-06
2.94345e-06
-5.61033e-06
2.93376e-06
-6.48732e-06
2.92203e-06
-7.36003e-06
2.9084e-06
-8.22783e-06
2.89289e-06
-9.09014e-06
2.87551e-06
-9.94637e-06
2.85624e-06
-1.07959e-05
2.8351e-06
-1.16382e-05
2.81209e-06
-1.24726e-05
2.78722e-06
-1.32987e-05
2.76048e-06
-1.41157e-05
2.7319e-06
-1.49232e-05
2.70148e-06
-1.57205e-05
2.66923e-06
-1.65072e-05
2.63516e-06
-1.72826e-05
2.5993e-06
-1.80462e-05
2.56166e-06
-1.87975e-05
2.52227e-06
-1.9536e-05
2.48114e-06
-2.02611e-05
2.43831e-06
-2.09723e-05
2.39382e-06
-2.16692e-05
2.34769e-06
-2.23512e-05
2.29999e-06
-2.30179e-05
2.25076e-06
-2.36689e-05
2.20007e-06
-2.43036e-05
2.148e-06
-2.49219e-05
2.09462e-06
-2.55232e-05
2.04006e-06
-2.61073e-05
1.98443e-06
-2.66739e-05
1.92789e-06
-2.72227e-05
1.87062e-06
-2.77536e-05
1.81282e-06
-2.82665e-05
1.75477e-06
-2.87614e-05
1.69679e-06
-2.92384e-05
1.63925e-06
-2.96976e-05
1.58265e-06
-3.01396e-05
1.52758e-06
-3.05648e-05
1.47478e-06
-3.0974e-05
1.4252e-06
-3.13684e-05
1.38004e-06
-3.17493e-05
1.34083e-06
-3.21186e-05
1.30961e-06
-3.24789e-05
1.28904e-06
-3.28332e-05
1.2827e-06
-3.31856e-05
1.29544e-06
-3.3541e-05
1.33399e-06
-3.39056e-05
1.40775e-06
-3.42865e-05
1.53009e-06
-3.46909e-05
1.72024e-06
-3.51242e-05
2.00659e-06
-3.55817e-05
2.4306e-06
-3.60388e-05
3.04789e-06
-3.64184e-05
3.9505e-06
-3.63708e-05
5.31992e-06
6.90944e-06
-3.56316e-05
-4.38954e-07
1.81835e-06
-1.21784e-06
3.32678e-06
-2.08958e-06
3.74932e-06
-2.97924e-06
3.83374e-06
-3.87024e-06
3.84081e-06
-4.75922e-06
3.83243e-06
-5.64517e-06
3.81971e-06
-6.52742e-06
3.80428e-06
-7.40534e-06
3.78633e-06
-8.27834e-06
3.76589e-06
-9.14581e-06
3.74297e-06
-1.00071e-05
3.71758e-06
-1.08618e-05
3.68972e-06
-1.17091e-05
3.6594e-06
-1.25485e-05
3.62663e-06
-1.33794e-05
3.59141e-06
-1.42013e-05
3.55377e-06
-1.50135e-05
3.51372e-06
-1.58156e-05
3.47127e-06
-1.66068e-05
3.42644e-06
-1.73868e-05
3.37926e-06
-1.81549e-05
3.32975e-06
-1.89106e-05
3.27793e-06
-1.96533e-05
3.22386e-06
-2.03825e-05
3.16755e-06
-2.10978e-05
3.10907e-06
-2.17985e-05
3.04846e-06
-2.24843e-05
2.98577e-06
-2.31546e-05
2.92109e-06
-2.38091e-05
2.8545e-06
-2.44472e-05
2.78609e-06
-2.50685e-05
2.71597e-06
-2.56727e-05
2.64428e-06
-2.62595e-05
2.57118e-06
-2.68284e-05
2.49685e-06
-2.73793e-05
2.42153e-06
-2.7912e-05
2.34547e-06
-2.84262e-05
2.26901e-06
-2.8922e-05
2.19253e-06
-2.93992e-05
2.11651e-06
-2.98581e-05
2.04152e-06
-3.02988e-05
1.96829e-06
-3.07217e-05
1.8977e-06
-3.11274e-05
1.83086e-06
-3.15165e-05
1.76917e-06
-3.18901e-05
1.71439e-06
-3.22493e-05
1.66882e-06
-3.25956e-05
1.63539e-06
-3.29309e-05
1.61797e-06
-3.32571e-05
1.62164e-06
-3.35763e-05
1.6532e-06
-3.38903e-05
1.72175e-06
-3.41998e-05
1.83955e-06
-3.45027e-05
2.02319e-06
-3.47911e-05
2.29495e-06
-3.50439e-05
2.68342e-06
-3.52195e-05
3.22344e-06
-3.52319e-05
3.96294e-06
-3.48616e-05
4.94965e-06
6.04885e-06
-3.40011e-05
-4.39523e-07
2.25787e-06
-1.22127e-06
4.10853e-06
-2.09613e-06
4.62418e-06
-2.98894e-06
4.72655e-06
-3.88302e-06
4.73489e-06
-4.77503e-06
4.72444e-06
-5.66398e-06
4.70866e-06
-6.5492e-06
4.6895e-06
-7.43009e-06
4.66722e-06
-8.30605e-06
4.64184e-06
-9.17646e-06
4.61338e-06
-1.00407e-05
4.58185e-06
-1.08983e-05
4.54726e-06
-1.17485e-05
4.50961e-06
-1.25908e-05
4.46892e-06
-1.34246e-05
4.42521e-06
-1.42493e-05
4.37849e-06
-1.50643e-05
4.32878e-06
-1.58692e-05
4.2761e-06
-1.66632e-05
4.22047e-06
-1.74459e-05
4.16193e-06
-1.82166e-05
4.10051e-06
-1.89749e-05
4.03624e-06
-1.97202e-05
3.96916e-06
-2.0452e-05
3.89932e-06
-2.11697e-05
3.82679e-06
-2.18729e-05
3.75161e-06
-2.2561e-05
3.67386e-06
-2.32335e-05
3.59364e-06
-2.389e-05
3.51103e-06
-2.45301e-05
3.42615e-06
-2.51533e-05
3.33914e-06
-2.57591e-05
3.25015e-06
-2.63473e-05
3.15937e-06
-2.69175e-05
3.06702e-06
-2.74693e-05
2.97337e-06
-2.80026e-05
2.87871e-06
-2.8517e-05
2.78342e-06
-2.90124e-05
2.68795e-06
-2.94887e-05
2.59283e-06
-2.99459e-05
2.49872e-06
-3.0384e-05
2.40641e-06
-3.08032e-05
2.31689e-06
-3.12037e-05
2.23134e-06
-3.15858e-05
2.15128e-06
-3.195e-05
2.07858e-06
-3.22968e-05
2.01559e-06
-3.26267e-05
1.96531e-06
-3.29403e-05
1.93153e-06
-3.32377e-05
1.91911e-06
-3.35188e-05
1.93429e-06
-3.37821e-05
1.98505e-06
-3.40241e-05
2.08153e-06
-3.42374e-05
2.23648e-06
-3.44079e-05
2.46546e-06
-3.45107e-05
2.78622e-06
-3.4504e-05
3.21671e-06
-3.43145e-05
3.7735e-06
-3.38198e-05
4.45493e-06
5.18407e-06
-3.2955e-05
-4.40436e-07
2.69831e-06
-1.22491e-06
4.89299e-06
-2.10289e-06
5.50216e-06
-2.99894e-06
5.6226e-06
-3.89624e-06
5.63219e-06
-4.79145e-06
5.61965e-06
-5.68357e-06
5.60078e-06
-6.57196e-06
5.57789e-06
-7.456e-06
5.55126e-06
-8.33509e-06
5.52093e-06
-9.20864e-06
5.48692e-06
-1.0076e-05
5.44924e-06
-1.09367e-05
5.4079e-06
-1.179e-05
5.36291e-06
-1.26353e-05
5.3143e-06
-1.34722e-05
5.26207e-06
-1.43e-05
5.20624e-06
-1.5118e-05
5.14685e-06
-1.59259e-05
5.08392e-06
-1.67229e-05
5.01747e-06
-1.75085e-05
4.94754e-06
-1.82821e-05
4.87416e-06
-1.90433e-05
4.79739e-06
-1.97914e-05
4.71726e-06
-2.05259e-05
4.63384e-06
-2.12463e-05
4.54718e-06
-2.1952e-05
4.45736e-06
-2.26426e-05
4.36447e-06
-2.33176e-05
4.26859e-06
-2.39764e-05
4.16985e-06
-2.46186e-05
4.06837e-06
-2.52438e-05
3.9643e-06
-2.58515e-05
3.85783e-06
-2.64412e-05
3.74915e-06
-2.70127e-05
3.63851e-06
-2.75656e-05
3.5262e-06
-2.80994e-05
3.41256e-06
-2.8614e-05
3.298e-06
-2.9109e-05
3.18299e-06
-2.95843e-05
3.06811e-06
-3.00396e-05
2.95406e-06
-3.04749e-05
2.84168e-06
-3.089e-05
2.73197e-06
-3.12848e-05
2.62619e-06
-3.16594e-05
2.52584e-06
-3.20136e-05
2.43279e-06
-3.23473e-05
2.34932e-06
-3.26603e-05
2.27827e-06
-3.29519e-05
2.22315e-06
-3.32211e-05
2.18827e-06
-3.34657e-05
2.17895e-06
-3.36823e-05
2.20166e-06
-3.38649e-05
2.26413e-06
-3.40037e-05
2.3753e-06
-3.40832e-05
2.54493e-06
-3.40794e-05
2.78239e-06
-3.3957e-05
3.09435e-06
-3.36648e-05
3.48129e-06
-3.31357e-05
3.92582e-06
4.37568e-06
-3.23273e-05
-4.41728e-07
3.14004e-06
-1.2293e-06
5.68057e-06
-2.1109e-06
6.38376e-06
-3.01069e-06
6.52239e-06
-3.91174e-06
6.53325e-06
-4.81069e-06
6.51859e-06
-5.70653e-06
6.49663e-06
-6.59863e-06
6.46999e-06
-7.48638e-06
6.439e-06
-8.36916e-06
6.40372e-06
-9.24638e-06
6.36414e-06
-1.01174e-05
6.3203e-06
-1.09817e-05
6.2722e-06
-1.18387e-05
6.21985e-06
-1.26877e-05
6.16329e-06
-1.35281e-05
6.10252e-06
-1.43594e-05
6.03757e-06
-1.51811e-05
5.96847e-06
-1.59924e-05
5.89526e-06
-1.67929e-05
5.81795e-06
-1.75819e-05
5.73659e-06
-1.8359e-05
5.65122e-06
-1.91235e-05
5.56189e-06
-1.98749e-05
5.46866e-06
-2.06126e-05
5.37158e-06
-2.13362e-05
5.27073e-06
-2.2045e-05
5.16619e-06
-2.27386e-05
5.05804e-06
-2.34164e-05
4.94641e-06
-2.4078e-05
4.8314e-06
-2.47228e-05
4.71317e-06
-2.53503e-05
4.59187e-06
-2.59602e-05
4.46769e-06
-2.65519e-05
4.34087e-06
-2.7125e-05
4.21165e-06
-2.76792e-05
4.08035e-06
-2.82139e-05
3.94732e-06
-2.87289e-05
3.81298e-06
-2.92238e-05
3.67785e-06
-2.96982e-05
3.54251e-06
-3.01518e-05
3.40766e-06
-3.05843e-05
3.27416e-06
-3.09953e-05
3.14302e-06
-3.13846e-05
3.01546e-06
-3.17517e-05
2.89292e-06
-3.20961e-05
2.77718e-06
-3.24171e-05
2.67035e-06
-3.27138e-05
2.57497e-06
-3.29848e-05
2.49411e-06
-3.32279e-05
2.4314e-06
-3.344e-05
2.3911e-06
-3.36165e-05
2.37812e-06
-3.37503e-05
2.39791e-06
-3.38312e-05
2.45619e-06
-3.38445e-05
2.55825e-06
-3.37699e-05
2.7078e-06
-3.35804e-05
2.90482e-06
-3.32417e-05
3.1426e-06
-3.2717e-05
3.4011e-06
3.6427e-06
-3.1984e-05
-4.43333e-07
3.58337e-06
-1.23449e-06
6.47173e-06
-2.12026e-06
7.26952e-06
-3.02437e-06
7.4265e-06
-3.92976e-06
7.43864e-06
-4.83304e-06
7.42187e-06
-5.73321e-06
7.3968e-06
-6.62962e-06
7.3664e-06
-7.52166e-06
7.33104e-06
-8.40872e-06
7.29078e-06
-9.29021e-06
7.24563e-06
-1.01655e-05
7.19561e-06
-1.10341e-05
7.14073e-06
-1.18952e-05
7.08101e-06
-1.27484e-05
7.01648e-06
-1.3593e-05
6.94715e-06
-1.44285e-05
6.87305e-06
-1.52543e-05
6.79422e-06
-1.60697e-05
6.71068e-06
-1.68742e-05
6.62247e-06
-1.76673e-05
6.52964e-06
-1.84483e-05
6.43223e-06
-1.92167e-05
6.3303e-06
-1.99719e-05
6.2239e-06
-2.07134e-05
6.11309e-06
-2.14407e-05
5.99797e-06
-2.21531e-05
5.87861e-06
-2.28502e-05
5.75511e-06
-2.35313e-05
5.62759e-06
-2.41961e-05
5.49618e-06
-2.4844e-05
5.36102e-06
-2.54744e-05
5.22229e-06
-2.60869e-05
5.08019e-06
-2.6681e-05
4.93496e-06
-2.72562e-05
4.78685e-06
-2.7812e-05
4.63619e-06
-2.83481e-05
4.48334e-06
-2.88638e-05
4.32873e-06
-2.93588e-05
4.17287e-06
-2.98327e-05
4.01634e-06
-3.02849e-05
3.85985e-06
-3.07149e-05
3.70421e-06
-3.11223e-05
3.5504e-06
-3.15064e-05
3.39957e-06
-3.18665e-05
3.25306e-06
-3.22018e-05
3.11248e-06
-3.25112e-05
2.9797e-06
-3.27931e-05
2.85693e-06
-3.30457e-05
2.74669e-06
-3.32662e-05
2.65189e-06
-3.34509e-05
2.57578e-06
-3.35946e-05
2.52182e-06
-3.36902e-05
2.49356e-06
-3.37283e-05
2.49421e-06
-3.3696e-05
2.52597e-06
-3.35772e-05
2.58899e-06
-3.33522e-05
2.67982e-06
-3.29988e-05
2.78922e-06
-3.24969e-05
2.89923e-06
2.98207e-06
-3.18363e-05
-4.45213e-07
4.02858e-06
-1.24046e-06
7.26697e-06
-2.13099e-06
8.16005e-06
-3.04001e-06
8.33552e-06
-3.95034e-06
8.34897e-06
-4.85855e-06
8.33008e-06
-5.76364e-06
8.30189e-06
-6.66496e-06
8.26772e-06
-7.5619e-06
8.22798e-06
-8.45386e-06
8.18274e-06
-9.34022e-06
8.132e-06
-1.02204e-05
8.07578e-06
-1.10938e-05
8.0141e-06
-1.19597e-05
7.94699e-06
-1.28177e-05
7.87446e-06
-1.36671e-05
7.79654e-06
-1.45073e-05
7.71327e-06
-1.53378e-05
7.62466e-06
-1.61579e-05
7.53077e-06
-1.6967e-05
7.43163e-06
-1.77646e-05
7.32728e-06
-1.85502e-05
7.21777e-06
-1.9323e-05
7.10317e-06
-2.00827e-05
6.98353e-06
-2.08285e-05
6.85893e-06
-2.156e-05
6.72944e-06
-2.22765e-05
6.59516e-06
-2.29776e-05
6.45619e-06
-2.36627e-05
6.31266e-06
-2.43312e-05
6.16468e-06
-2.49826e-05
6.01243e-06
-2.56164e-05
5.85607e-06
-2.6232e-05
5.69582e-06
-2.68289e-05
5.5319e-06
-2.74067e-05
5.36459e-06
-2.79647e-05
5.1942e-06
-2.85024e-05
5.0211e-06
-2.90194e-05
4.8457e-06
-2.95151e-05
4.66851e-06
-2.99888e-05
4.4901e-06
-3.04401e-05
4.31112e-06
-3.08682e-05
4.13236e-06
-3.12725e-05
3.95472e-06
-3.16522e-05
3.77925e-06
-3.20063e-05
3.60716e-06
-3.23337e-05
3.43985e-06
-3.26329e-05
3.27893e-06
-3.29022e-05
3.12621e-06
-3.31392e-05
2.98371e-06
-3.3341e-05
2.85364e-06
-3.35035e-05
2.73832e-06
-3.36217e-05
2.64004e-06
-3.3689e-05
2.56084e-06
-3.36969e-05
2.50212e-06
-3.3635e-05
2.46407e-06
-3.34909e-05
2.44486e-06
-3.32506e-05
2.43955e-06
-3.29002e-05
2.43878e-06
-3.24288e-05
2.4278e-06
2.38587e-06
-3.18326e-05
-4.47351e-07
4.47593e-06
-1.24719e-06
8.06681e-06
-2.14307e-06
9.05593e-06
-3.05761e-06
9.25006e-06
-3.97348e-06
9.26484e-06
-4.88722e-06
9.24383e-06
-5.79785e-06
9.21251e-06
-6.70469e-06
9.17456e-06
-7.60714e-06
9.13043e-06
-8.50458e-06
9.08018e-06
-9.39642e-06
9.02383e-06
-1.0282e-05
8.9614e-06
-1.11608e-05
8.89291e-06
-1.20322e-05
8.81837e-06
-1.28956e-05
8.73783e-06
-1.37504e-05
8.65129e-06
-1.45959e-05
8.5588e-06
-1.54316e-05
8.4604e-06
-1.6257e-05
8.35611e-06
-1.70713e-05
8.24598e-06
-1.78741e-05
8.13006e-06
-1.86647e-05
8.0084e-06
-1.94426e-05
7.88107e-06
-2.02072e-05
7.74812e-06
-2.09579e-05
7.60963e-06
-2.16942e-05
7.46569e-06
-2.24154e-05
7.31639e-06
-2.31211e-05
7.16184e-06
-2.38106e-05
7.00215e-06
-2.44833e-05
6.83746e-06
-2.51388e-05
6.66793e-06
-2.57765e-05
6.49374e-06
-2.63958e-05
6.31509e-06
-2.69961e-05
6.13222e-06
-2.75769e-05
5.94538e-06
-2.81376e-05
5.7549e-06
-2.86776e-05
5.56111e-06
-2.91963e-05
5.36444e-06
-2.96932e-05
5.16534e-06
-3.01674e-05
4.96436e-06
-3.06184e-05
4.76212e-06
-3.10454e-05
4.55933e-06
-3.14475e-05
4.3568e-06
-3.18237e-05
4.15547e-06
-3.2173e-05
3.95639e-06
-3.24939e-05
3.76075e-06
-3.27848e-05
3.56987e-06
-3.30438e-05
3.3852e-06
-3.32684e-05
3.20827e-06
-3.34554e-05
3.04068e-06
-3.36011e-05
2.88398e-06
-3.37005e-05
2.73952e-06
-3.37479e-05
2.60822e-06
-3.37361e-05
2.49027e-06
-3.36567e-05
2.38467e-06
-3.35004e-05
2.28859e-06
-3.32576e-05
2.19675e-06
-3.29197e-05
2.10084e-06
-3.24807e-05
1.98887e-06
1.84553e-06
-3.19404e-05
-4.49738e-07
4.92567e-06
-1.25469e-06
8.87176e-06
-2.15651e-06
9.95776e-06
-3.07717e-06
1.01707e-05
-3.99918e-06
1.01869e-05
-4.91908e-06
1.01637e-05
-5.83584e-06
1.01293e-05
-6.74881e-06
1.00875e-05
-7.65737e-06
1.0039e-05
-8.56091e-06
9.98373e-06
-9.45883e-06
9.92175e-06
-1.03505e-05
9.85308e-06
-1.12354e-05
9.77775e-06
-1.21128e-05
9.69577e-06
-1.29821e-05
9.60718e-06
-1.38428e-05
9.512e-06
-1.46943e-05
9.41026e-06
-1.55359e-05
9.30201e-06
-1.6367e-05
9.18728e-06
-1.71872e-05
9.06612e-06
-1.79957e-05
8.93858e-06
-1.8792e-05
8.80471e-06
-1.95755e-05
8.66458e-06
-2.03457e-05
8.51825e-06
-2.11018e-05
8.36579e-06
-2.18434e-05
8.2073e-06
-2.25699e-05
8.04287e-06
-2.32807e-05
7.87261e-06
-2.39752e-05
7.69663e-06
-2.46528e-05
7.51507e-06
-2.53129e-05
7.32809e-06
-2.5955e-05
7.13586e-06
-2.65785e-05
6.93858e-06
-2.71828e-05
6.73648e-06
-2.77672e-05
6.52981e-06
-2.83312e-05
6.31887e-06
-2.88741e-05
6.104e-06
-2.93952e-05
5.88557e-06
-2.98939e-05
5.66402e-06
-3.03694e-05
5.43986e-06
-3.08209e-05
5.21364e-06
-3.12475e-05
4.98599e-06
-3.16484e-05
4.75765e-06
-3.20223e-05
4.5294e-06
-3.23681e-05
4.30214e-06
-3.26842e-05
4.07685e-06
-3.29689e-05
3.85458e-06
-3.32201e-05
3.63644e-06
-3.34354e-05
3.42353e-06
-3.36116e-05
3.21695e-06
-3.37453e-05
3.01761e-06
-3.38319e-05
2.82616e-06
-3.38665e-05
2.64277e-06
-3.3843e-05
2.46685e-06
-3.37551e-05
2.29673e-06
-3.35958e-05
2.12927e-06
-3.33585e-05
1.95949e-06
-3.30379e-05
1.78022e-06
-3.2631e-05
1.582e-06
1.35348e-06
-3.2139e-05
-4.52371e-07
5.37804e-06
-1.26294e-06
9.68233e-06
-2.1713e-06
1.08661e-05
-3.09869e-06
1.10981e-05
-4.02747e-06
1.11156e-05
-4.95412e-06
1.10904e-05
-5.87763e-06
1.10528e-05
-6.79733e-06
1.10072e-05
-7.71262e-06
1.09543e-05
-8.62287e-06
1.0894e-05
-9.52747e-06
1.08264e-05
-1.04258e-05
1.07514e-05
-1.13173e-05
1.06692e-05
-1.22013e-05
1.05798e-05
-1.30773e-05
1.04831e-05
-1.39445e-05
1.03793e-05
-1.48025e-05
1.02682e-05
-1.56506e-05
1.01501e-05
-1.64882e-05
1.00249e-05
-1.73147e-05
9.89264e-06
-1.81295e-05
9.75342e-06
-1.89321e-05
9.60728e-06
-1.97218e-05
9.45428e-06
-2.0498e-05
9.29449e-06
-2.12602e-05
9.12798e-06
-2.20078e-05
8.95485e-06
-2.27401e-05
8.77518e-06
-2.34566e-05
8.58909e-06
-2.41566e-05
8.39668e-06
-2.48396e-05
8.19809e-06
-2.5505e-05
7.99348e-06
-2.61522e-05
7.78301e-06
-2.67805e-05
7.56688e-06
-2.73893e-05
7.34529e-06
-2.7978e-05
7.11849e-06
-2.85459e-05
6.88676e-06
-2.90923e-05
6.65041e-06
-2.96165e-05
6.40979e-06
-3.01178e-05
6.1653e-06
-3.05953e-05
5.91738e-06
-3.10482e-05
5.66654e-06
-3.14755e-05
5.41332e-06
-3.18762e-05
5.15835e-06
-3.22491e-05
4.9023e-06
-3.25929e-05
4.6459e-06
-3.2906e-05
4.38992e-06
-3.31866e-05
4.13517e-06
-3.34326e-05
3.88246e-06
-3.36416e-05
3.63255e-06
-3.38108e-05
3.3861e-06
-3.39367e-05
3.14356e-06
-3.40156e-05
2.90508e-06
-3.40432e-05
2.67032e-06
-3.40146e-05
2.43823e-06
-3.39247e-05
2.20688e-06
-3.37686e-05
1.97317e-06
-3.35417e-05
1.73263e-06
-3.32408e-05
1.47927e-06
-3.28645e-05
1.20569e-06
9.03449e-07
-3.24145e-05
-4.55247e-07
5.83329e-06
-1.27195e-06
1.0499e-05
-2.18744e-06
1.17816e-05
-3.12218e-06
1.20328e-05
-4.05833e-06
1.20518e-05
-4.99235e-06
1.20244e-05
-5.92322e-06
1.19837e-05
-6.85028e-06
1.19343e-05
-7.7729e-06
1.18769e-05
-8.69046e-06
1.18115e-05
-9.60237e-06
1.17383e-05
-1.0508e-05
1.16571e-05
-1.14067e-05
1.1568e-05
-1.2298e-05
1.1471e-05
-1.31811e-05
1.13662e-05
-1.40555e-05
1.12537e-05
-1.49206e-05
1.11333e-05
-1.57757e-05
1.10053e-05
-1.66204e-05
1.08695e-05
-1.74539e-05
1.07261e-05
-1.82756e-05
1.05752e-05
-1.9085e-05
1.04167e-05
-1.98815e-05
1.02508e-05
-2.06645e-05
1.00774e-05
-2.14333e-05
9.8968e-06
-2.21874e-05
9.70893e-06
-2.29261e-05
9.51391e-06
-2.36489e-05
9.31187e-06
-2.43551e-05
9.1029e-06
-2.50441e-05
8.88714e-06
-2.57154e-05
8.66472e-06
-2.63682e-05
8.43582e-06
-2.70019e-05
8.20061e-06
-2.76159e-05
7.95929e-06
-2.82095e-05
7.71209e-06
-2.8782e-05
7.45926e-06
-2.93327e-05
7.20108e-06
-2.98608e-05
6.93787e-06
-3.03655e-05
6.66998e-06
-3.08459e-05
6.39781e-06
-3.13011e-05
6.12179e-06
-3.17302e-05
5.84239e-06
-3.2132e-05
5.56012e-06
-3.25052e-05
5.27554e-06
-3.28485e-05
4.98922e-06
-3.31604e-05
4.70176e-06
-3.3439e-05
4.41375e-06
-3.36822e-05
4.12574e-06
-3.38879e-05
3.8382e-06
-3.40533e-05
3.55148e-06
-3.41754e-05
3.26567e-06
-3.42509e-05
2.98058e-06
-3.42761e-05
2.69556e-06
-3.42472e-05
2.40935e-06
-3.41603e-05
2.11997e-06
-3.40117e-05
1.82454e-06
-3.37982e-05
1.51916e-06
-3.35179e-05
1.19895e-06
-3.31704e-05
8.58135e-07
4.90435e-07
-3.27573e-05
-4.58364e-07
6.29165e-06
-1.28172e-06
1.13224e-05
-2.20494e-06
1.27048e-05
-3.14763e-06
1.29755e-05
-4.09178e-06
1.29959e-05
-5.03379e-06
1.29664e-05
-5.97264e-06
1.29225e-05
-6.90766e-06
1.28693e-05
-7.83823e-06
1.28075e-05
-8.76373e-06
1.2737e-05
-9.68354e-06
1.26581e-05
-1.0597e-05
1.25706e-05
-1.15036e-05
1.24746e-05
-1.24027e-05
1.23701e-05
-1.32936e-05
1.22572e-05
-1.41758e-05
1.21358e-05
-1.50486e-05
1.20061e-05
-1.59114e-05
1.18681e-05
-1.67637e-05
1.17218e-05
-1.76048e-05
1.15672e-05
-1.8434e-05
1.14045e-05
-1.92509e-05
1.12336e-05
-2.00548e-05
1.10546e-05
-2.0845e-05
1.08677e-05
-2.16211e-05
1.06728e-05
-2.23823e-05
1.04701e-05
-2.31281e-05
1.02597e-05
-2.38578e-05
1.00416e-05
-2.45708e-05
9.8159e-06
-2.52664e-05
9.58282e-06
-2.59442e-05
9.34245e-06
-2.66033e-05
9.09493e-06
-2.72431e-05
8.84045e-06
-2.7863e-05
8.57917e-06
-2.84622e-05
8.3113e-06
-2.904e-05
8.03708e-06
-2.95957e-05
7.75676e-06
-3.01285e-05
7.4706e-06
-3.06374e-05
7.17893e-06
-3.11217e-05
6.88208e-06
-3.15803e-05
6.58041e-06
-3.20122e-05
6.27431e-06
-3.24163e-05
5.9642e-06
-3.27913e-05
5.65052e-06
-3.31357e-05
5.3337e-06
-3.34481e-05
5.01418e-06
-3.37268e-05
4.69237e-06
-3.39696e-05
4.36861e-06
-3.41746e-05
4.04314e-06
-3.43392e-05
3.71607e-06
-3.44607e-05
3.38725e-06
-3.45364e-05
3.05627e-06
-3.45632e-05
2.7223e-06
-3.45379e-05
2.38403e-06
-3.44574e-05
2.03954e-06
-3.43192e-05
1.68627e-06
-3.41209e-05
1.32091e-06
-3.38615e-05
9.39501e-07
-3.35409e-05
5.37576e-07
1.10485e-07
-3.31609e-05
-4.6172e-07
6.75337e-06
-1.29224e-06
1.21529e-05
-2.2238e-06
1.36364e-05
-3.17506e-06
1.39268e-05
-4.12782e-06
1.39487e-05
-5.07844e-06
1.3917e-05
-6.02589e-06
1.387e-05
-6.96949e-06
1.38129e-05
-7.90863e-06
1.37466e-05
-8.84268e-06
1.36711e-05
-9.77101e-06
1.35864e-05
-1.0693e-05
1.34926e-05
-1.16081e-05
1.33896e-05
-1.25156e-05
1.32776e-05
-1.34149e-05
1.31565e-05
-1.43054e-05
1.30264e-05
-1.51866e-05
1.28873e-05
-1.60577e-05
1.27392e-05
-1.69182e-05
1.25823e-05
-1.77674e-05
1.24165e-05
-1.86048e-05
1.22419e-05
-1.94298e-05
1.20585e-05
-2.02417e-05
1.18665e-05
-2.10398e-05
1.16659e-05
-2.18237e-05
1.14567e-05
-2.25927e-05
1.12391e-05
-2.33461e-05
1.10131e-05
-2.40833e-05
1.07788e-05
-2.48037e-05
1.05363e-05
-2.55067e-05
1.02858e-05
-2.61916e-05
1.00273e-05
-2.68576e-05
9.76101e-06
-2.75043e-05
9.48706e-06
-2.81307e-05
9.20562e-06
-2.87363e-05
8.91687e-06
-2.93202e-05
8.621e-06
-2.98817e-05
8.31825e-06
-3.04199e-05
8.00885e-06
-3.09341e-05
7.69306e-06
-3.14231e-05
7.37115e-06
-3.18862e-05
7.04344e-06
-3.23221e-05
6.71023e-06
-3.27298e-05
6.37185e-06
-3.31079e-05
6.02863e-06
-3.34551e-05
5.68089e-06
-3.37698e-05
5.32892e-06
-3.40504e-05
4.97298e-06
-3.4295e-05
4.61325e-06
-3.45017e-05
4.24979e-06
-3.46682e-05
3.88253e-06
-3.47921e-05
3.51117e-06
-3.4871e-05
3.13516e-06
-3.49023e-05
2.75361e-06
-3.48834e-05
2.36521e-06
-3.48121e-05
1.96822e-06
-3.46863e-05
1.56039e-06
-3.45043e-05
1.13897e-06
-3.42656e-05
7.00776e-07
-3.39705e-05
2.42442e-07
-2.40555e-07
-3.36194e-05
-4.65316e-07
7.21869e-06
-1.30352e-06
1.29911e-05
-2.24401e-06
1.45769e-05
-3.20448e-06
1.48873e-05
-4.16646e-06
1.49107e-05
-5.12631e-06
1.48769e-05
-6.08298e-06
1.48266e-05
-7.03579e-06
1.47657e-05
-7.98412e-06
1.46949e-05
-8.92733e-06
1.46143e-05
-9.86481e-06
1.45239e-05
-1.07959e-05
1.44237e-05
-1.17201e-05
1.43138e-05
-1.26366e-05
1.41941e-05
-1.3545e-05
1.40648e-05
-1.44445e-05
1.39259e-05
-1.53346e-05
1.37773e-05
-1.62146e-05
1.36192e-05
-1.70839e-05
1.34516e-05
-1.7942e-05
1.32745e-05
-1.87881e-05
1.3088e-05
-1.96217e-05
1.28921e-05
-2.04422e-05
1.2687e-05
-2.12489e-05
1.24726e-05
-2.20413e-05
1.22491e-05
-2.28186e-05
1.20164e-05
-2.35803e-05
1.17748e-05
-2.43257e-05
1.15242e-05
-2.50542e-05
1.12648e-05
-2.57651e-05
1.09967e-05
-2.64578e-05
1.072e-05
-2.71315e-05
1.04347e-05
-2.77856e-05
1.01412e-05
-2.84193e-05
9.83937e-06
-2.9032e-05
9.52953e-06
-2.96228e-05
9.21181e-06
-3.01909e-05
8.88639e-06
-3.07356e-05
8.55348e-06
-3.12558e-05
8.21328e-06
-3.17507e-05
7.86604e-06
-3.22192e-05
7.51197e-06
-3.26603e-05
7.15133e-06
-3.30728e-05
6.78435e-06
-3.34555e-05
6.41128e-06
-3.38069e-05
6.03232e-06
-3.41256e-05
5.64766e-06
-3.44101e-05
5.25743e-06
-3.46585e-05
4.86168e-06
-3.48691e-05
4.46034e-06
-3.50397e-05
4.0532e-06
-3.51684e-05
3.63989e-06
-3.52531e-05
3.21977e-06
-3.52914e-05
2.79195e-06
-3.52814e-05
2.35521e-06
-3.52212e-05
1.90798e-06
-3.51091e-05
1.44833e-06
-3.49442e-05
9.74007e-07
-3.47259e-05
4.82531e-07
-3.44542e-05
-2.92722e-08
-5.64308e-07
-3.41304e-05
-4.69148e-07
7.68784e-06
-1.31555e-06
1.38375e-05
-2.26558e-06
1.55269e-05
-3.23587e-06
1.58576e-05
-4.20772e-06
1.58825e-05
-5.17743e-06
1.58466e-05
-6.14394e-06
1.57931e-05
-7.10658e-06
1.57284e-05
-8.06472e-06
1.56531e-05
-9.01772e-06
1.55673e-05
-9.96497e-06
1.54711e-05
-1.09058e-05
1.53646e-05
-1.18397e-05
1.52476e-05
-1.27659e-05
1.51204e-05
-1.36839e-05
1.49828e-05
-1.4593e-05
1.4835e-05
-1.54926e-05
1.4677e-05
-1.63822e-05
1.45087e-05
-1.7261e-05
1.43304e-05
-1.81284e-05
1.4142e-05
-1.89839e-05
1.39435e-05
-1.98268e-05
1.37351e-05
-2.06565e-05
1.35167e-05
-2.14724e-05
1.32885e-05
-2.22738e-05
1.30505e-05
-2.30602e-05
1.28028e-05
-2.38308e-05
1.25454e-05
-2.4585e-05
1.22784e-05
-2.53222e-05
1.2002e-05
-2.60417e-05
1.17162e-05
-2.67429e-05
1.14211e-05
-2.74249e-05
1.11168e-05
-2.80873e-05
1.08035e-05
-2.87291e-05
1.04812e-05
-2.93496e-05
1.01501e-05
-2.99481e-05
9.8103e-06
-3.05237e-05
9.46202e-06
-3.10756e-05
9.10538e-06
-3.16029e-05
8.74056e-06
-3.21046e-05
8.36773e-06
-3.25797e-05
7.98707e-06
-3.30271e-05
7.59876e-06
-3.34457e-05
7.20296e-06
-3.38343e-05
6.79982e-06
-3.41915e-05
6.38948e-06
-3.45158e-05
5.97202e-06
-3.48058e-05
5.54746e-06
-3.50599e-05
5.11576e-06
-3.52763e-05
4.67675e-06
-3.54533e-05
4.23016e-06
-3.55889e-05
3.77554e-06
-3.56814e-05
3.31223e-06
-3.57288e-05
2.83939e-06
-3.57295e-05
2.35588e-06
-3.56819e-05
1.86034e-06
-3.55847e-05
1.35113e-06
-3.54371e-05
8.26423e-07
-3.52389e-05
2.84308e-07
-3.49897e-05
-2.78462e-07
-8.62914e-07
-3.46911e-05
-4.73217e-07
8.16105e-06
-1.32834e-06
1.46926e-05
-2.28852e-06
1.64871e-05
-3.26926e-06
1.68383e-05
-4.25159e-06
1.68649e-05
-5.23179e-06
1.68268e-05
-6.20878e-06
1.67701e-05
-7.18187e-06
1.67015e-05
-8.15045e-06
1.66216e-05
-9.11386e-06
1.65307e-05
-1.00715e-05
1.64288e-05
-1.10227e-05
1.63158e-05
-1.19669e-05
1.61918e-05
-1.29034e-05
1.60569e-05
-1.38317e-05
1.5911e-05
-1.4751e-05
1.57543e-05
-1.56608e-05
1.55868e-05
-1.65605e-05
1.54084e-05
-1.74493e-05
1.52193e-05
-1.83268e-05
1.50194e-05
-1.91923e-05
1.4809e-05
-2.00451e-05
1.45879e-05
-2.08847e-05
1.43563e-05
-2.17103e-05
1.41142e-05
-2.25215e-05
1.38616e-05
-2.33175e-05
1.35987e-05
-2.40976e-05
1.33256e-05
-2.48613e-05
1.30422e-05
-2.56079e-05
1.27486e-05
-2.63367e-05
1.2445e-05
-2.70471e-05
1.21314e-05
-2.77382e-05
1.1808e-05
-2.84094e-05
1.14747e-05
-2.906e-05
1.11318e-05
-2.96892e-05
1.07793e-05
-3.02962e-05
1.04173e-05
-3.08802e-05
1.0046e-05
-3.14403e-05
9.66547e-06
-3.19756e-05
9.27585e-06
-3.24851e-05
8.87726e-06
-3.29679e-05
8.46984e-06
-3.34228e-05
8.05369e-06
-3.38488e-05
7.62891e-06
-3.42445e-05
7.1956e-06
-3.46089e-05
6.75379e-06
-3.49403e-05
6.3035e-06
-3.52376e-05
5.84468e-06
-3.5499e-05
5.37719e-06
-3.57231e-05
4.90083e-06
-3.59082e-05
4.41524e-06
-3.60526e-05
3.91996e-06
-3.61547e-05
3.41436e-06
-3.62129e-05
2.89761e-06
-3.62258e-05
2.36873e-06
-3.6192e-05
1.82652e-06
-3.61104e-05
1.2696e-06
-3.59805e-05
6.96518e-07
-3.58019e-05
1.05714e-07
-3.55745e-05
-5.05864e-07
-1.13801e-06
-3.52994e-05
-4.7752e-07
8.63857e-06
-1.34189e-06
1.5557e-05
-2.31283e-06
1.7458e-05
-3.30464e-06
1.78301e-05
-4.2981e-06
1.78583e-05
-5.28941e-06
1.78181e-05
-6.27751e-06
1.77582e-05
-7.26169e-06
1.76857e-05
-8.24133e-06
1.76013e-05
-9.21579e-06
1.75052e-05
-1.01844e-05
1.73974e-05
-1.11466e-05
1.7278e-05
-1.21018e-05
1.7147e-05
-1.30492e-05
1.70043e-05
-1.39883e-05
1.68502e-05
-1.49185e-05
1.66845e-05
-1.58391e-05
1.65074e-05
-1.67495e-05
1.63188e-05
-1.76491e-05
1.61188e-05
-1.85372e-05
1.59076e-05
-1.94133e-05
1.5685e-05
-2.02767e-05
1.54513e-05
-2.11267e-05
1.52063e-05
-2.19628e-05
1.49502e-05
-2.27843e-05
1.46831e-05
-2.35906e-05
1.4405e-05
-2.43809e-05
1.41159e-05
-2.51548e-05
1.3816e-05
-2.59114e-05
1.35053e-05
-2.66502e-05
1.31838e-05
-2.73704e-05
1.28516e-05
-2.80713e-05
1.25089e-05
-2.87523e-05
1.21556e-05
-2.94124e-05
1.1792e-05
-3.00511e-05
1.14179e-05
-3.06674e-05
1.10336e-05
-3.12606e-05
1.06392e-05
-3.18298e-05
1.02346e-05
-3.23741e-05
9.8201e-06
-3.28924e-05
9.39564e-06
-3.33839e-05
8.96133e-06
-3.38475e-05
8.51725e-06