/*--------------------------------*- C++ -*----------------------------------*\
  =========                 |
  \\      /  F ield         | OpenFOAM: The Open Source CFD Toolbox
   \\    /   O peration     | Website:  https://openfoam.org
    \\  /    A nd           | Version:  8
     \\/     M anipulation  |
\*---------------------------------------------------------------------------*/
FoamFile
{
    version     2.0;
    format      ascii;
    class       volVectorField;
    location    "17";
    object      U;
}
// * * * * * * * * * * * * * * * * * * * * * * * * * * * * * * * * * * * * * //

dimensions      [0 1 -1 0 0 0 0];

internalField   nonuniform List<vector> 
11600
(
(-2.6251e-06 2.57109e-06 0)
(-2.929e-05 1.05783e-05 0)
(-7.30762e-05 1.2828e-05 0)
(-0.000114703 1.32131e-05 0)
(-0.000158162 1.31715e-05 0)
(-0.000201212 1.31006e-05 0)
(-0.000244098 1.30535e-05 0)
(-0.00028685 1.30169e-05 0)
(-0.000329446 1.29821e-05 0)
(-0.000371868 1.29451e-05 0)
(-0.000414094 1.29043e-05 0)
(-0.000456104 1.28587e-05 0)
(-0.000497872 1.28081e-05 0)
(-0.000539377 1.27521e-05 0)
(-0.000580595 1.26906e-05 0)
(-0.000621502 1.26234e-05 0)
(-0.000662074 1.25504e-05 0)
(-0.000702287 1.24715e-05 0)
(-0.000742118 1.23865e-05 0)
(-0.000781542 1.22953e-05 0)
(-0.000820536 1.21978e-05 0)
(-0.000859075 1.20938e-05 0)
(-0.000897134 1.19832e-05 0)
(-0.000934691 1.18659e-05 0)
(-0.000971721 1.17419e-05 0)
(-0.0010082 1.16109e-05 0)
(-0.00104411 1.1473e-05 0)
(-0.00107942 1.13282e-05 0)
(-0.0011141 1.11764e-05 0)
(-0.00114815 1.10176e-05 0)
(-0.00118153 1.0852e-05 0)
(-0.00121423 1.06797e-05 0)
(-0.00124623 1.0501e-05 0)
(-0.00127751 1.03161e-05 0)
(-0.00130805 1.01255e-05 0)
(-0.00133783 9.92982e-06 0)
(-0.00136686 9.7298e-06 0)
(-0.00139511 9.52645e-06 0)
(-0.0014226 9.32103e-06 0)
(-0.00144931 9.11517e-06 0)
(-0.00147526 8.91094e-06 0)
(-0.00150046 8.71099e-06 0)
(-0.00152495 8.51869e-06 0)
(-0.00154875 8.33838e-06 0)
(-0.00157194 8.17559e-06 0)
(-0.00159459 8.03748e-06 0)
(-0.00161681 7.93328e-06 0)
(-0.00163876 7.87488e-06 0)
(-0.00166064 7.87758e-06 0)
(-0.00168274 7.96074e-06 0)
(-0.00170544 8.14833e-06 0)
(-0.0017293 8.46963e-06 0)
(-0.0017551 8.96132e-06 0)
(-0.00178405 9.67341e-06 0)
(-0.00181832 1.07181e-05 0)
(-0.00186003 1.26915e-05 0)
(-0.0019075 1.81767e-05 0)
(-0.00202416 3.54104e-05 0)
(-0.00206802 0.000162313 0)
(-0.00267716 0.000578522 0)
(-1.07354e-05 2.93211e-05 0)
(-6.31196e-05 6.27922e-05 0)
(-0.000140576 7.23868e-05 0)
(-0.00021518 7.43364e-05 0)
(-0.000292502 7.44541e-05 0)
(-0.000369401 7.42642e-05 0)
(-0.000446046 7.40289e-05 0)
(-0.000522431 7.37642e-05 0)
(-0.000598492 7.34646e-05 0)
(-0.000674174 7.31264e-05 0)
(-0.000749429 7.27476e-05 0)
(-0.000824208 7.23274e-05 0)
(-0.000898462 7.18651e-05 0)
(-0.000972143 7.13604e-05 0)
(-0.0010452 7.08132e-05 0)
(-0.00111759 7.02234e-05 0)
(-0.00118926 6.95908e-05 0)
(-0.00126016 6.89155e-05 0)
(-0.00133025 6.81974e-05 0)
(-0.00139947 6.74366e-05 0)
(-0.00146779 6.66331e-05 0)
(-0.00153515 6.57871e-05 0)
(-0.00160151 6.48988e-05 0)
(-0.00166682 6.39685e-05 0)
(-0.00173104 6.29965e-05 0)
(-0.00179413 6.19834e-05 0)
(-0.00185603 6.09298e-05 0)
(-0.00191672 5.98366e-05 0)
(-0.00197614 5.87048e-05 0)
(-0.00203427 5.75356e-05 0)
(-0.00209106 5.63307e-05 0)
(-0.00214648 5.5092e-05 0)
(-0.00220049 5.38219e-05 0)
(-0.00225307 5.25233e-05 0)
(-0.0023042 5.12e-05 0)
(-0.00235385 4.98563e-05 0)
(-0.00240201 4.84978e-05 0)
(-0.00244866 4.71312e-05 0)
(-0.00249381 4.5765e-05 0)
(-0.00253747 4.44095e-05 0)
(-0.00257966 4.3078e-05 0)
(-0.00262042 4.17869e-05 0)
(-0.0026598 4.05573e-05 0)
(-0.00269788 3.94162e-05 0)
(-0.00273477 3.83988e-05 0)
(-0.00277063 3.75516e-05 0)
(-0.00280567 3.69366e-05 0)
(-0.00284015 3.6639e-05 0)
(-0.00287448 3.67775e-05 0)
(-0.00290916 3.7522e-05 0)
(-0.00294492 3.91226e-05 0)
(-0.0029828 4.19608e-05 0)
(-0.00302427 4.66407e-05 0)
(-0.00307164 5.4154e-05 0)
(-0.00312856 6.62795e-05 0)
(-0.00319894 8.67044e-05 0)
(-0.00328944 0.000122549 0)
(-0.00344141 0.000187728 0)
(-0.00355714 0.000388637 0)
(-0.0039281 0.000707494 0)
(-1.30693e-05 7.34933e-05 0)
(-7.30935e-05 0.000140422 0)
(-0.000160495 0.000159593 0)
(-0.000244548 0.000163571 0)
(-0.000331449 0.000163937 0)
(-0.000417864 0.000163595 0)
(-0.000503972 0.000163072 0)
(-0.000589768 0.000162443 0)
(-0.000675179 0.000161715 0)
(-0.000760145 0.000160887 0)
(-0.000844608 0.00015996 0)
(-0.00092851 0.000158932 0)
(-0.0010118 0.000157803 0)
(-0.00109441 0.000156574 0)
(-0.00117629 0.000155244 0)
(-0.00125739 0.000153813 0)
(-0.00133764 0.000152282 0)
(-0.001417 0.000150651 0)
(-0.0014954 0.000148921 0)
(-0.0015728 0.000147092 0)
(-0.00164913 0.000145165 0)
(-0.00172436 0.00014314 0)
(-0.00179841 0.00014102 0)
(-0.00187125 0.000138804 0)
(-0.00194282 0.000136495 0)
(-0.00201307 0.000134094 0)
(-0.00208195 0.000131602 0)
(-0.00214942 0.000129024 0)
(-0.00221542 0.000126361 0)
(-0.00227993 0.000123617 0)
(-0.00234289 0.000120795 0)
(-0.00240427 0.000117902 0)
(-0.00246402 0.000114943 0)
(-0.00252213 0.000111924 0)
(-0.00257856 0.000108855 0)
(-0.00263328 0.000105746 0)
(-0.00268629 0.000102609 0)
(-0.00273756 9.94595e-05 0)
(-0.00278711 9.63167e-05 0)
(-0.00283493 9.32035e-05 0)
(-0.00288105 9.01487e-05 0)
(-0.00292551 8.71886e-05 0)
(-0.00296836 8.43689e-05 0)
(-0.0030097 8.17481e-05 0)
(-0.00304962 7.9402e-05 0)
(-0.00308828 7.743e-05 0)
(-0.00312589 7.59648e-05 0)
(-0.00316272 7.51864e-05 0)
(-0.00319913 7.53443e-05 0)
(-0.00323559 7.67916e-05 0)
(-0.00327273 8.00407e-05 0)
(-0.00331141 8.58577e-05 0)
(-0.00335274 9.54212e-05 0)
(-0.0033983 0.000110603 0)
(-0.00345014 0.000134573 0)
(-0.00350998 0.000172971 0)
(-0.00358123 0.00023463 0)
(-0.00367739 0.000336971 0)
(-0.00373381 0.000543285 0)
(-0.00386426 0.000820067 0)
(-1.35015e-05 0.000115684 0)
(-7.53376e-05 0.000215523 0)
(-0.000165128 0.000243824 0)
(-0.00025128 0.000249562 0)
(-0.000340335 0.000250057 0)
(-0.000428869 0.000249516 0)
(-0.000517084 0.000248698 0)
(-0.00060498 0.000247711 0)
(-0.00069248 0.000246567 0)
(-0.000779519 0.000245266 0)
(-0.000866039 0.000243807 0)
(-0.00095198 0.000242191 0)
(-0.00103728 0.000240418 0)
(-0.00112189 0.000238487 0)
(-0.00120574 0.0002364 0)
(-0.00128877 0.000234156 0)
(-0.00137094 0.000231756 0)
(-0.00145218 0.000229201 0)
(-0.00153243 0.000226493 0)
(-0.00161164 0.000223631 0)
(-0.00168976 0.000220618 0)
(-0.00176672 0.000217455 0)
(-0.00184248 0.000214143 0)
(-0.00191698 0.000210686 0)
(-0.00199017 0.000207084 0)
(-0.002062 0.000203342 0)
(-0.00213241 0.000199462 0)
(-0.00220136 0.000195449 0)
(-0.00226881 0.000191306 0)
(-0.0023347 0.00018704 0)
(-0.002399 0.000182656 0)
(-0.00246166 0.000178164 0)
(-0.00252264 0.00017357 0)
(-0.00258192 0.000168887 0)
(-0.00263945 0.000164127 0)
(-0.00269523 0.000159306 0)
(-0.00274922 0.000154442 0)
(-0.00280141 0.000149559 0)
(-0.00285179 0.000144684 0)
(-0.00290038 0.000139851 0)
(-0.00294719 0.000135102 0)
(-0.00299224 0.00013049 0)
(-0.00303558 0.00012608 0)
(-0.00307728 0.000121957 0)
(-0.00311743 0.000118228 0)
(-0.00315616 0.000115031 0)
(-0.00319363 0.00011255 0)
(-0.00323006 0.000111029 0)
(-0.00326572 0.000110799 0)
(-0.00330097 0.000112314 0)
(-0.00333625 0.000116211 0)
(-0.00337213 0.0001234 0)
(-0.00340928 0.000135202 0)
(-0.00344846 0.000153576 0)
(-0.00349035 0.00018153 0)
(-0.00353495 0.000223719 0)
(-0.00358201 0.000286642 0)
(-0.00362992 0.000381866 0)
(-0.0036431 0.000537408 0)
(-0.00364953 0.000720539 0)
(-1.34938e-05 0.000159856 0)
(-7.57488e-05 0.000293639 0)
(-0.0001662 0.000331238 0)
(-0.000252876 0.000338785 0)
(-0.000342489 0.000339426 0)
(-0.00043156 0.000338691 0)
(-0.000520305 0.000337572 0)
(-0.000608728 0.000336214 0)
(-0.000696751 0.000334636 0)
(-0.000784312 0.000332839 0)
(-0.000871349 0.000330824 0)
(-0.000957803 0.000328592 0)
(-0.00104361 0.000326143 0)
(-0.00112872 0.000323477 0)
(-0.00121307 0.000320596 0)
(-0.0012966 0.000317499 0)
(-0.00137926 0.000314189 0)
(-0.00146098 0.000310666 0)
(-0.0015417 0.000306932 0)
(-0.00162138 0.000302989 0)
(-0.00169996 0.000298838 0)
(-0.00177737 0.000294482 0)
(-0.00185357 0.000289924 0)
(-0.0019285 0.000285165 0)
(-0.00200211 0.000280211 0)
(-0.00207434 0.000275064 0)
(-0.00214516 0.00026973 0)
(-0.00221449 0.000264213 0)
(-0.00228231 0.000258521 0)
(-0.00234855 0.00025266 0)
(-0.00241319 0.000246639 0)
(-0.00247617 0.000240468 0)
(-0.00253745 0.00023416 0)
(-0.00259701 0.000227729 0)
(-0.0026548 0.000221192 0)
(-0.00271079 0.000214568 0)
(-0.00276498 0.000207884 0)
(-0.00281732 0.000201168 0)
(-0.00286782 0.000194455 0)
(-0.00291647 0.000187791 0)
(-0.00296327 0.000181228 0)
(-0.00300824 0.000174833 0)
(-0.00305141 0.000168688 0)
(-0.00309283 0.000162899 0)
(-0.00313255 0.000157596 0)
(-0.00317066 0.000152949 0)
(-0.00320727 0.000149178 0)
(-0.00324251 0.00014657 0)
(-0.00327656 0.000145506 0)
(-0.00330959 0.000146498 0)
(-0.00334183 0.000150244 0)
(-0.00337347 0.000157702 0)
(-0.00340466 0.000170202 0)
(-0.00343539 0.000189608 0)
(-0.00346523 0.000218541 0)
(-0.00349284 0.000260592 0)
(-0.0035158 0.000320287 0)
(-0.00352854 0.000404242 0)
(-0.00351217 0.000521362 0)
(-0.00346875 0.000653219 0)
(-1.34578e-05 0.000203798 0)
(-7.59066e-05 0.000371723 0)
(-0.000166714 0.000418623 0)
(-0.000253682 0.000427963 0)
(-0.000343615 0.000428733 0)
(-0.00043299 0.000427792 0)
(-0.000522036 0.000426368 0)
(-0.000610758 0.000424639 0)
(-0.000699078 0.000422627 0)
(-0.000786935 0.000420337 0)
(-0.000874267 0.000417769 0)
(-0.000961015 0.000414923 0)
(-0.00104712 0.0004118 0)
(-0.00113252 0.000408402 0)
(-0.00121716 0.00040473 0)
(-0.00130098 0.000400784 0)
(-0.00138392 0.000396566 0)
(-0.00146592 0.000392079 0)
(-0.00154692 0.000387323 0)
(-0.00162688 0.000382301 0)
(-0.00170573 0.000377016 0)
(-0.00178341 0.00037147 0)
(-0.00185988 0.000365667 0)
(-0.00193507 0.000359611 0)
(-0.00200893 0.000353305 0)
(-0.00208142 0.000346755 0)
(-0.00215247 0.000339968 0)
(-0.00222205 0.000332948 0)
(-0.00229009 0.000325705 0)
(-0.00235655 0.000318247 0)
(-0.00242139 0.000310586 0)
(-0.00248456 0.000302733 0)
(-0.00254602 0.000294703 0)
(-0.00260573 0.000286513 0)
(-0.00266365 0.000278185 0)
(-0.00271976 0.000269742 0)
(-0.00277401 0.000261214 0)
(-0.0028264 0.000252636 0)
(-0.00287689 0.000244049 0)
(-0.00292548 0.000235505 0)
(-0.00297215 0.000227067 0)
(-0.00301691 0.00021881 0)
(-0.00305977 0.00021083 0)
(-0.00310075 0.000203243 0)
(-0.00313987 0.000196196 0)
(-0.00317717 0.000189874 0)
(-0.00321271 0.000184514 0)
(-0.00324653 0.000180417 0)
(-0.0032787 0.000177973 0)
(-0.00330925 0.000177688 0)
(-0.0033382 0.000180223 0)
(-0.00336547 0.000186444 0)
(-0.00339085 0.000197482 0)
(-0.00341383 0.000214803 0)
(-0.00343341 0.000240283 0)
(-0.00344774 0.000276185 0)
(-0.00345377 0.000324965 0)
(-0.00344594 0.000389369 0)
(-0.00341371 0.000470676 0)
(-0.00335236 0.000558959 0)
(-1.34543e-05 0.000247779 0)
(-7.60981e-05 0.00045001 0)
(-0.000167242 0.000506238 0)
(-0.000254515 0.000517377 0)
(-0.000344777 0.000518273 0)
(-0.000434473 0.000517124 0)
(-0.000523838 0.000515392 0)
(-0.000612876 0.00051329 0)
(-0.000701512 0.000510845 0)
(-0.000789683 0.00050806 0)
(-0.000877329 0.000504937 0)
(-0.00096439 0.000501477 0)
(-0.00105081 0.000497681 0)
(-0.00113652 0.00049355 0)
(-0.00122146 0.000489086 0)
(-0.00130559 0.000484289 0)
(-0.00138883 0.000479163 0)
(-0.00147114 0.000473709 0)
(-0.00155245 0.00046793 0)
(-0.0016327 0.000461827 0)
(-0.00171184 0.000455405 0)
(-0.00178982 0.000448667 0)
(-0.00186657 0.000441616 0)
(-0.00194204 0.000434257 0)
(-0.00201619 0.000426596 0)
(-0.00208894 0.000418639 0)
(-0.00216026 0.000410392 0)
(-0.00223009 0.000401862 0)
(-0.00229838 0.00039306 0)
(-0.00236507 0.000383996 0)
(-0.00243013 0.000374682 0)
(-0.00249351 0.000365132 0)
(-0.00255516 0.000355364 0)
(-0.00261504 0.000345397 0)
(-0.00267311 0.000335254 0)
(-0.00272933 0.000324964 0)
(-0.00278367 0.000314558 0)
(-0.0028361 0.000304076 0)
(-0.00288658 0.000293564 0)
(-0.0029351 0.000283079 0)
(-0.00298164 0.000272689 0)
(-0.00302617 0.000262476 0)
(-0.00306868 0.000252541 0)
(-0.00310918 0.000243008 0)
(-0.00314765 0.000234029 0)
(-0.00318409 0.000225793 0)
(-0.00321849 0.000218535 0)
(-0.00325083 0.000212551 0)
(-0.00328108 0.00020821 0)
(-0.00330915 0.000205976 0)
(-0.00333489 0.000206432 0)
(-0.00335805 0.000210304 0)
(-0.00337817 0.000218486 0)
(-0.0033945 0.000232053 0)
(-0.00340581 0.000252239 0)
(-0.00341019 0.00028033 0)
(-0.0034048 0.000317435 0)
(-0.00338528 0.000364146 0)
(-0.00334536 0.000419142 0)
(-0.00328072 0.000476202 0)
(-1.34716e-05 0.00029188 0)
(-7.63448e-05 0.000528598 0)
(-0.000167867 0.000594202 0)
(-0.000255498 0.000607153 0)
(-0.000346139 0.000608175 0)
(-0.00043621 0.000606815 0)
(-0.000525948 0.000604774 0)
(-0.000615358 0.000602298 0)
(-0.000704365 0.000599418 0)
(-0.000792906 0.000596138 0)
(-0.00088092 0.000592459 0)
(-0.000968348 0.000588384 0)
(-0.00105513 0.000583912 0)
(-0.0011412 0.000579047 0)
(-0.00122651 0.000573789 0)
(-0.001311 0.00056814 0)
(-0.0013946 0.000562103 0)
(-0.00147726 0.000555679 0)
(-0.00155893 0.000548873 0)
(-0.00163953 0.000541687 0)
(-0.00171902 0.000534124 0)
(-0.00179734 0.000526188 0)
(-0.00187443 0.000517885 0)
(-0.00195023 0.000509219 0)
(-0.0020247 0.000500196 0)
(-0.00209778 0.000490824 0)
(-0.00216941 0.000481108 0)
(-0.00223954 0.00047106 0)
(-0.00230812 0.000460687 0)
(-0.0023751 0.000450004 0)
(-0.00244042 0.000439022 0)
(-0.00250405 0.000427759 0)
(-0.00256593 0.000416232 0)
(-0.00262602 0.000404463 0)
(-0.00268427 0.000392478 0)
(-0.00274064 0.000380305 0)
(-0.00279509 0.000367981 0)
(-0.00284759 0.000355548 0)
(-0.00289808 0.000343054 0)
(-0.00294655 0.000330558 0)
(-0.00299296 0.000318132 0)
(-0.00303727 0.00030586 0)
(-0.00307945 0.000293844 0)
(-0.00311947 0.000282209 0)
(-0.00315729 0.000271104 0)
(-0.00319288 0.000260713 0)
(-0.00322616 0.000251257 0)
(-0.00325707 0.000243008 0)
(-0.00328549 0.000236297 0)
(-0.00331125 0.000231522 0)
(-0.00333409 0.000229164 0)
(-0.00335364 0.00022979 0)
(-0.00336932 0.000234051 0)
(-0.00338031 0.000242663 0)
(-0.00338537 0.000256345 0)
(-0.00338279 0.000275693 0)
(-0.00337022 0.000300949 0)
(-0.00334454 0.000331669 0)
(-0.003302 0.000365901 0)
(-0.00323978 0.000399155 0)
(-1.35008e-05 0.000336127 0)
(-7.66425e-05 0.000607524 0)
(-0.000168599 0.000682557 0)
(-0.000256646 0.000697334 0)
(-0.000347725 0.000698484 0)
(-0.000438229 0.000696913 0)
(-0.0005284 0.000694561 0)
(-0.000618241 0.00069171 0)
(-0.000707679 0.000688394 0)
(-0.000796649 0.000684617 0)
(-0.000885091 0.000680382 0)
(-0.000972945 0.000675689 0)
(-0.00106015 0.000670541 0)
(-0.00114665 0.000664939 0)
(-0.00123238 0.000658885 0)
(-0.00131729 0.000652381 0)
(-0.00140131 0.00064543 0)
(-0.00148438 0.000638035 0)
(-0.00156645 0.000630199 0)
(-0.00164746 0.000621925 0)
(-0.00172735 0.000613217 0)
(-0.00180607 0.00060408 0)
(-0.00188355 0.000594519 0)
(-0.00195975 0.00058454 0)
(-0.0020346 0.000574148 0)
(-0.00210805 0.000563352 0)
(-0.00218004 0.00055216 0)
(-0.00225053 0.000540582 0)
(-0.00231945 0.000528628 0)
(-0.00238676 0.000516311 0)
(-0.0024524 0.000503646 0)
(-0.00251632 0.00049065 0)
(-0.00257848 0.000477342 0)
(-0.00263882 0.000463746 0)
(-0.00269729 0.000449887 0)
(-0.00275385 0.000435798 0)
(-0.00280845 0.000421514 0)
(-0.00286105 0.000407078 0)
(-0.0029116 0.000392541 0)
(-0.00296005 0.000377963 0)
(-0.00300636 0.000363415 0)
(-0.00305048 0.000348979 0)
(-0.00309236 0.000334757 0)
(-0.00313194 0.000320867 0)
(-0.00316917 0.000307451 0)
(-0.00320396 0.000294678 0)
(-0.00323622 0.000282749 0)
(-0.00326581 0.000271902 0)
(-0.00329259 0.000262417 0)
(-0.0033163 0.000254621 0)
(-0.00333665 0.000248887 0)
(-0.00335319 0.000245631 0)
(-0.00336532 0.00024529 0)
(-0.00337223 0.000248295 0)
(-0.0033728 0.000254992 0)
(-0.00336561 0.000265531 0)
(-0.00334885 0.000279685 0)
(-0.00332036 0.000296596 0)
(-0.00327792 0.000314358 0)
(-0.00321993 0.00032968 0)
(-1.35382e-05 0.000380549 0)
(-7.69878e-05 0.000686832 0)
(-0.000169438 0.000771358 0)
(-0.000257959 0.000787977 0)
(-0.000349536 0.000789256 0)
(-0.000440534 0.000787473 0)
(-0.000531197 0.00078481 0)
(-0.000621531 0.000781583 0)
(-0.000711459 0.000777829 0)
(-0.000800919 0.000773554 0)
(-0.000889849 0.000768761 0)
(-0.000978189 0.000763449 0)
(-0.00106588 0.000757623 0)
(-0.00115286 0.000751282 0)
(-0.00123907 0.00074443 0)
(-0.00132446 0.000737069 0)
(-0.00140895 0.000729202 0)
(-0.0014925 0.000720832 0)
(-0.00157504 0.000711962 0)
(-0.00165651 0.000702596 0)
(-0.00173686 0.000692739 0)
(-0.00181604 0.000682396 0)
(-0.00189397 0.000671571 0)
(-0.00197061 0.000660272 0)
(-0.00204589 0.000648504 0)
(-0.00211977 0.000636277 0)
(-0.00219218 0.000623598 0)
(-0.00226307 0.000610478 0)
(-0.00233239 0.00059693 0)
(-0.00240008 0.000582965 0)
(-0.00246609 0.000568599 0)
(-0.00253036 0.00055385 0)
(-0.00259284 0.000538739 0)
(-0.00265348 0.000523288 0)
(-0.00271222 0.000507525 0)
(-0.00276902 0.000491481 0)
(-0.00282382 0.000475194 0)
(-0.00287656 0.000458705 0)
(-0.0029272 0.000442066 0)
(-0.00297568 0.000425334 0)
(-0.00302194 0.000408578 0)
(-0.00306593 0.000391878 0)
(-0.00310756 0.000375329 0)
(-0.00314678 0.000359041 0)
(-0.00318349 0.000343143 0)
(-0.00321758 0.000327786 0)
(-0.00324894 0.000313143 0)
(-0.00327741 0.000299416 0)
(-0.00330277 0.000286833 0)
(-0.00332478 0.000275647 0)
(-0.00334308 0.000266132 0)
(-0.00335724 0.000258573 0)
(-0.00336666 0.000253237 0)
(-0.00337061 0.000250341 0)
(-0.00336814 0.000249983 0)
(-0.0033581 0.000252053 0)
(-0.00333916 0.000256102 0)
(-0.00330987 0.000261183 0)
(-0.00326892 0.000265642 0)
(-0.0032155 0.000267072 0)
(-1.35822e-05 0.000425171 0)
(-7.73788e-05 0.000766574 0)
(-0.000170384 0.000860665 0)
(-0.000259438 0.00087914 0)
(-0.000351573 0.000880552 0)
(-0.000443126 0.000878557 0)
(-0.000534342 0.000875582 0)
(-0.000625228 0.000871977 0)
(-0.000715708 0.000867784 0)
(-0.000805717 0.00086301 0)
(-0.000895196 0.000857657 0)
(-0.000984083 0.000851725 0)
(-0.00107232 0.000845218 0)
(-0.00115984 0.000838137 0)
(-0.00124659 0.000830484 0)
(-0.00133251 0.000822263 0)
(-0.00141754 0.000813477 0)
(-0.00150162 0.000804128 0)
(-0.00158469 0.000794221 0)
(-0.00166668 0.000783759 0)
(-0.00174755 0.000772748 0)
(-0.00182724 0.000761192 0)
(-0.00190568 0.000749098 0)
(-0.00198281 0.000736471 0)
(-0.00205859 0.000723319 0)
(-0.00213295 0.000709651 0)
(-0.00220584 0.000695476 0)
(-0.00227719 0.000680803 0)
(-0.00234696 0.000665646 0)
(-0.00241509 0.000650018 0)
(-0.00248151 0.000633934 0)
(-0.00254618 0.000617413 0)
(-0.00260904 0.000600474 0)
(-0.00267003 0.000583141 0)
(-0.0027291 0.000565442 0)
(-0.00278618 0.000547407 0)
(-0.00284123 0.000529072 0)
(-0.00289418 0.00051048 0)
(-0.00294497 0.000491679 0)
(-0.00299353 0.000472723 0)
(-0.00303981 0.000453679 0)
(-0.00308372 0.00043462 0)
(-0.00312519 0.000415633 0)
(-0.00316413 0.000396817 0)
(-0.00320042 0.000378286 0)
(-0.00323396 0.000360169 0)
(-0.00326458 0.000342613 0)
(-0.00329212 0.00032578 0)
(-0.00331636 0.000309847 0)
(-0.003337 0.000295003 0)
(-0.00335372 0.000281436 0)
(-0.00336608 0.000269323 0)
(-0.00337355 0.000258805 0)
(-0.00337548 0.00024995 0)
(-0.00337109 0.000242702 0)
(-0.0033595 0.000236815 0)
(-0.00333972 0.000231763 0)
(-0.00331082 0.000226651 0)
(-0.00327203 0.000220131 0)
(-0.00322298 0.000210438 0)
(-1.36321e-05 0.00047002 0)
(-7.78148e-05 0.000846802 0)
(-0.000171437 0.000950536 0)
(-0.000261082 0.000970886 0)
(-0.000353837 0.000972431 0)
(-0.000446004 0.000970224 0)
(-0.000537835 0.000966937 0)
(-0.000629334 0.000962953 0)
(-0.000720426 0.00095832 0)
(-0.000811046 0.000953045 0)
(-0.000901134 0.00094713 0)
(-0.000990628 0.000940576 0)
(-0.00107947 0.000933386 0)
(-0.0011676 0.000925562 0)
(-0.00125495 0.000917106 0)
(-0.00134146 0.000908022 0)
(-0.00142709 0.000898313 0)
(-0.00151175 0.000887982 0)
(-0.00159541 0.000877033 0)
(-0.00167798 0.000865471 0)
(-0.00175943 0.0008533 0)
(-0.00183969 0.000840526 0)
(-0.00191869 0.000827156 0)
(-0.00199638 0.000813195 0)
(-0.00207271 0.000798651 0)
(-0.00214761 0.000783533 0)
(-0.00222103 0.00076785 0)
(-0.0022929 0.000751613 0)
(-0.00236318 0.000734834 0)
(-0.00243179 0.000717526 0)
(-0.00249869 0.000699706 0)
(-0.00256382 0.000681391 0)
(-0.00262711 0.000662601 0)
(-0.00268851 0.000643359 0)
(-0.00274795 0.000623692 0)
(-0.00280539 0.000603629 0)
(-0.00286074 0.000583206 0)
(-0.00291395 0.000562462 0)
(-0.00296496 0.000541442 0)
(-0.00301368 0.000520198 0)
(-0.00306005 0.00049879 0)
(-0.00310397 0.000477285 0)
(-0.00314537 0.000455761 0)
(-0.00318412 0.000434303 0)
(-0.00322013 0.000413009 0)
(-0.00325326 0.000391987 0)
(-0.00328333 0.000371356 0)
(-0.00331017 0.000351242 0)
(-0.00333355 0.000331777 0)
(-0.00335319 0.000313091 0)
(-0.00336876 0.000295307 0)
(-0.00337987 0.000278517 0)
(-0.00338603 0.000262772 0)
(-0.00338671 0.000248042 0)
(-0.00338127 0.000234185 0)
(-0.00336904 0.000220895 0)
(-0.00334932 0.000207649 0)
(-0.0033215 0.000193662 0)
(-0.00328513 0.000177872 0)
(-0.0032401 0.000158971 0)
(-1.36874e-05 0.000515119 0)
(-7.82953e-05 0.000927566 0)
(-0.000172595 0.00104103 0)
(-0.000262891 0.00106327 0)
(-0.000356327 0.00106496 0)
(-0.000449171 0.00106254 0)
(-0.000541677 0.00105894 0)
(-0.000633851 0.00105457 0)
(-0.000725616 0.0010495 0)
(-0.000816907 0.00104372 0)
(-0.000907665 0.00103724 0)
(-0.000997827 0.00103006 0)
(-0.00108733 0.00102219 0)
(-0.00117612 0.00101362 0)
(-0.00126413 0.00100436 0)
(-0.00135131 0.000994407 0)
(-0.00143758 0.000983771 0)
(-0.0015229 0.000972453 0)
(-0.0016072 0.000960458 0)
(-0.00169042 0.000947791 0)
(-0.0017725 0.000934455 0)
(-0.00185338 0.000920457 0)
(-0.00193301 0.000905804 0)
(-0.00201132 0.000890501 0)
(-0.00208825 0.000874556 0)
(-0.00216375 0.000857978 0)
(-0.00223776 0.000840777 0)
(-0.00231021 0.000822963 0)
(-0.00238105 0.000804548 0)
(-0.00245022 0.000785546 0)
(-0.00251765 0.000765972 0)
(-0.00258329 0.000745843 0)
(-0.00264707 0.000725178 0)
(-0.00270894 0.000704001 0)
(-0.00276883 0.000682335 0)
(-0.00282667 0.00066021 0)
(-0.0028824 0.000637658 0)
(-0.00293594 0.000614716 0)
(-0.00298723 0.000591426 0)
(-0.00303619 0.000567834 0)
(-0.00308272 0.000543995 0)
(-0.00312675 0.000519967 0)
(-0.00316818 0.000495817 0)
(-0.00320688 0.00047162 0)
(-0.00324274 0.000447456 0)
(-0.00327561 0.000423412 0)
(-0.00330533 0.000399581 0)
(-0.0033317 0.000376057 0)
(-0.00335451 0.000352934 0)
(-0.00337347 0.000330294 0)
(-0.0033883 0.000308206 0)
(-0.00339862 0.000286705 0)
(-0.00340403 0.000265776 0)
(-0.00340407 0.000245333 0)
(-0.00339824 0.000225191 0)
(-0.00338603 0.00020503 0)
(-0.00336695 0.000184371 0)
(-0.0033406 0.000162556 0)
(-0.00330672 0.00013875 0)
(-0.00326532 0.000111983 0)
(-1.37479e-05 0.000560494 0)
(-7.88199e-05 0.00100892 0)
(-0.00017386 0.00113221 0)
(-0.000264866 0.00115637 0)
(-0.000359045 0.00115819 0)
(-0.000452627 0.00115556 0)
(-0.000545869 0.00115164 0)
(-0.000638779 0.0011469 0)
(-0.000731278 0.00114138 0)
(-0.000823303 0.0011351 0)
(-0.000914791 0.00112805 0)
(-0.00100568 0.00112025 0)
(-0.00109591 0.00111169 0)
(-0.00118543 0.00110237 0)
(-0.00127416 0.0010923 0)
(-0.00136205 0.00108148 0)
(-0.00144904 0.00106991 0)
(-0.00153507 0.0010576 0)
(-0.00162007 0.00104456 0)
(-0.00170399 0.00103078 0)
(-0.00178676 0.00101627 0)
(-0.00186834 0.00100104 0)
(-0.00194865 0.0009851 0)
(-0.00202763 0.000968448 0)
(-0.00210523 0.000951094 0)
(-0.00218139 0.000933047 0)
(-0.00225604 0.000914317 0)
(-0.00232913 0.000894914 0)
(-0.00240059 0.00087485 0)
(-0.00247037 0.000854137 0)
(-0.0025384 0.000832791 0)
(-0.00260461 0.000810829 0)
(-0.00266895 0.000788267 0)
(-0.00273135 0.000765129 0)
(-0.00279175 0.000741436 0)
(-0.00285006 0.000717216 0)
(-0.00290624 0.000692499 0)
(-0.00296019 0.000667317 0)
(-0.00301184 0.000641709 0)
(-0.00306111 0.000615716 0)
(-0.00310791 0.000589385 0)
(-0.00315215 0.000562767 0)
(-0.00319371 0.000535919 0)
(-0.00323249 0.000508902 0)
(-0.00326834 0.000481781 0)
(-0.00330113 0.000454625 0)
(-0.00333069 0.000427501 0)
(-0.00335682 0.000400478 0)
(-0.00337931 0.000373615 0)
(-0.00339792 0.000346961 0)
(-0.00341235 0.000320542 0)
(-0.0034223 0.000294352 0)
(-0.0034274 0.000268336 0)
(-0.0034273 0.000242378 0)
(-0.00342158 0.000216276 0)
(-0.00340986 0.000189726 0)
(-0.0033918 0.000162308 0)
(-0.00336712 0.000133481 0)
(-0.00333571 0.000102591 0)
(-0.00329761 6.89118e-05 0)
(-1.38134e-05 0.000606169 0)
(-7.93886e-05 0.00109091 0)
(-0.00017523 0.00122413 0)
(-0.000267006 0.00125022 0)
(-0.00036199 0.00125219 0)
(-0.000456372 0.00124934 0)
(-0.000550413 0.00124511 0)
(-0.00064412 0.00123998 0)
(-0.000737415 0.00123402 0)
(-0.000830233 0.00122724 0)
(-0.000922514 0.00121962 0)
(-0.00101419 0.00121119 0)
(-0.00110521 0.00120194 0)
(-0.00119551 0.00119187 0)
(-0.00128503 0.00118098 0)
(-0.00137369 0.00116929 0)
(-0.00146146 0.00115679 0)
(-0.00154825 0.00114349 0)
(-0.00163402 0.00112939 0)
(-0.0017187 0.00111449 0)
(-0.00180223 0.00109881 0)
(-0.00188455 0.00108235 0)
(-0.00196561 0.00106511 0)
(-0.00204533 0.0010471 0)
(-0.00212365 0.00102832 0)
(-0.00220053 0.0010088 0)
(-0.00227589 0.000988529 0)
(-0.00234968 0.000967525 0)
(-0.00242183 0.000945798 0)
(-0.00249227 0.000923361 0)
(-0.00256096 0.000900227 0)
(-0.00262781 0.000876412 0)
(-0.00269277 0.000851933 0)
(-0.00275577 0.00082681 0)
(-0.00281674 0.000801064 0)
(-0.00287561 0.000774719 0)
(-0.0029323 0.000747802 0)
(-0.00298673 0.000720342 0)
(-0.00303883 0.000692374 0)
(-0.00308851 0.000663933 0)
(-0.00313567 0.000635059 0)
(-0.00318022 0.000605796 0)
(-0.00322204 0.000576189 0)
(-0.00326102 0.000546287 0)
(-0.00329702 0.000516143 0)
(-0.00332989 0.000485805 0)
(-0.00335948 0.000455324 0)
(-0.00338559 0.000424743 0)
(-0.00340802 0.000394098 0)
(-0.00342655 0.000363407 0)
(-0.00344091 0.000332669 0)
(-0.00345082 0.00030185 0)
(-0.003456 0.000270872 0)
(-0.00345613 0.000239605 0)
(-0.00345089 0.00020785 0)
(-0.00344 0.000175332 0)
(-0.0034232 0.000141692 0)
(-0.00340032 0.000106488 0)
(-0.00337129 6.92102e-05 0)
(-0.00333621 2.93082e-05 0)
(-1.38839e-05 0.000652167 0)
(-8.00011e-05 0.00117359 0)
(-0.000176707 0.00131686 0)
(-0.000269312 0.00134491 0)
(-0.000365164 0.00134702 0)
(-0.000460407 0.00134396 0)
(-0.000555309 0.00133941 0)
(-0.000649875 0.0013339 0)
(-0.000744028 0.00132749 0)
(-0.000837702 0.0013202 0)
(-0.000930836 0.00131202 0)
(-0.00102337 0.00130295 0)
(-0.00111524 0.00129301 0)
(-0.00120638 0.00128218 0)
(-0.00129674 0.00127048 0)
(-0.00138624 0.00125791 0)
(-0.00147484 0.00124447 0)
(-0.00156247 0.00123017 0)
(-0.00164906 0.00121501 0)
(-0.00173456 0.001199 0)
(-0.00181891 0.00118213 0)
(-0.00190204 0.00116442 0)
(-0.0019839 0.00114588 0)
(-0.00206441 0.0011265 0)
(-0.00214353 0.00110631 0)
(-0.00222119 0.00108529 0)
(-0.00229732 0.00106347 0)
(-0.00237186 0.00104086 0)
(-0.00244476 0.00101746 0)
(-0.00251594 0.000993281 0)
(-0.00258535 0.000968343 0)
(-0.00265291 0.000942658 0)
(-0.00271855 0.000916242 0)
(-0.00278222 0.000889113 0)
(-0.00284384 0.000861289 0)
(-0.00290333 0.000832792 0)
(-0.00296061 0.000803645 0)
(-0.00301561 0.000773876 0)
(-0.00306825 0.000743511 0)
(-0.00311843 0.000712582 0)
(-0.00316605 0.000681123 0)
(-0.00321102 0.000649167 0)
(-0.00325322 0.000616752 0)
(-0.00329253 0.000583916 0)
(-0.00332882 0.000550698 0)
(-0.00336195 0.000517131 0)
(-0.00339175 0.00048325 0)
(-0.00341805 0.00044908 0)
(-0.00344065 0.000414635 0)
(-0.00345935 0.000379914 0)
(-0.00347391 0.000344895 0)
(-0.00348409 0.000309527 0)
(-0.00348965 0.000273722 0)
(-0.00349032 0.000237347 0)
(-0.00348585 0.000200218 0)
(-0.00347602 0.00016209 0)
(-0.00346064 0.000122663 0)
(-0.00343961 8.15774e-05 0)
(-0.00341289 3.84347e-05 0)
(-0.00338053 -7.15501e-06 0)
(-1.39592e-05 0.000698513 0)
(-8.06574e-05 0.00125701 0)
(-0.000178291 0.00141044 0)
(-0.000271784 0.00144048 0)
(-0.000368567 0.00144274 0)
(-0.000464735 0.00143947 0)
(-0.000560558 0.0014346 0)
(-0.000656046 0.00142871 0)
(-0.000751118 0.00142185 0)
(-0.000845711 0.00141405 0)
(-0.000939761 0.00140529 0)
(-0.00103321 0.00139559 0)
(-0.00112599 0.00138495 0)
(-0.00121804 0.00137337 0)
(-0.0013093 0.00136085 0)
(-0.0013997 0.0013474 0)
(-0.0014892 0.00133302 0)
(-0.00157772 0.00131771 0)
(-0.0016652 0.00130149 0)
(-0.00175158 0.00128435 0)
(-0.0018368 0.0012663 0)
(-0.00192081 0.00124734 0)
(-0.00200353 0.00122748 0)
(-0.0020849 0.00120674 0)
(-0.00216487 0.0011851 0)
(-0.00224336 0.0011626 0)
(-0.00232033 0.00113922 0)
(-0.0023957 0.00111498 0)
(-0.0024694 0.00108989 0)
(-0.00254139 0.00106396 0)
(-0.00261158 0.00103721 0)
(-0.00267991 0.00100964 0)
(-0.00274632 0.000981264 0)
(-0.00281073 0.000952109 0)
(-0.00287306 0.000922186 0)
(-0.00293325 0.000891513 0)
(-0.00299121 0.000860112 0)
(-0.00304687 0.000828003 0)
(-0.00310013 0.000795212 0)
(-0.0031509 0.000761762 0)
(-0.00319909 0.000727681 0)
(-0.00324459 0.000692997 0)
(-0.00328729 0.000657737 0)
(-0.00332707 0.00062193 0)
(-0.0033638 0.000585601 0)
(-0.00339734 0.000548776 0)
(-0.00342753 0.000511471 0)
(-0.00345421 0.000473698 0)
(-0.00347719 0.000435456 0)
(-0.00349629 0.00039673 0)
(-0.00351129 0.000357484 0)
(-0.003522 0.000317659 0)
(-0.00352818 0.000277162 0)
(-0.00352963 0.000235866 0)
(-0.00352615 0.000193605 0)
(-0.00351755 0.000150167 0)
(-0.00350371 0.000105302 0)
(-0.00348455 5.87236e-05 0)
(-0.00346002 1.01205e-05 0)
(-0.00343021 -4.07851e-05 0)
(-1.40391e-05 0.000745231 0)
(-8.13572e-05 0.00134123 0)
(-0.00017998 0.00150495 0)
(-0.000274423 0.001537 0)
(-0.0003722 0.00153942 0)
(-0.000469354 0.00153593 0)
(-0.000566162 0.00153075 0)
(-0.000662634 0.00152447 0)
(-0.000758689 0.00151716 0)
(-0.000854262 0.00150884 0)
(-0.000949289 0.00149951 0)
(-0.00104371 0.00148918 0)
(-0.00113746 0.00147784 0)
(-0.00123048 0.0014655 0)
(-0.00132271 0.00145215 0)
(-0.00141408 0.00143782 0)
(-0.00150453 0.00142249 0)
(-0.001594 0.00140618 0)
(-0.00168243 0.00138888 0)
(-0.00176976 0.00137061 0)
(-0.00185592 0.00135136 0)
(-0.00194085 0.00133115 0)
(-0.0020245 0.00130998 0)
(-0.00210679 0.00128785 0)
(-0.00218767 0.00126478 0)
(-0.00226707 0.00124076 0)
(-0.00234493 0.00121582 0)
(-0.00242119 0.00118995 0)
(-0.00249578 0.00116316 0)
(-0.00256863 0.00113547 0)
(-0.00263967 0.00110688 0)
(-0.00270885 0.00107741 0)