/*--------------------------------*- C++ -*----------------------------------*\
  =========                 |
  \\      /  F ield         | OpenFOAM: The Open Source CFD Toolbox
   \\    /   O peration     | Website:  https://openfoam.org
    \\  /    A nd           | Version:  8
     \\/     M anipulation  |
\*---------------------------------------------------------------------------*/
FoamFile
{
    version     2.0;
    format      ascii;
    class       surfaceScalarField;
    location    "0.235";
    object      phi;
}
// * * * * * * * * * * * * * * * * * * * * * * * * * * * * * * * * * * * * * //

dimensions      [0 3 -1 0 0 0 0];

internalField   nonuniform List<scalar> 
760
(
1.42351e-08
-1.4254e-08
-2.22056e-08
3.64405e-08
-1.14246e-07
9.20407e-08
-2.45441e-07
1.31195e-07
-3.96011e-07
1.50569e-07
-5.47244e-07
1.51232e-07
-6.83037e-07
1.35793e-07
-7.90483e-07
1.07447e-07
-8.60011e-07
6.95282e-08
-8.8544e-07
2.54286e-08
-8.64124e-07
-2.13154e-08
-7.9721e-07
-6.69141e-08
-6.89932e-07
-1.07277e-07
-5.51853e-07
-1.38079e-07
-3.96861e-07
-1.54992e-07
-2.42702e-07
-1.54159e-07
-1.09715e-07
-1.32986e-07
-1.84167e-08
-9.12979e-08
1.5684e-08
-3.41003e-08
1.56844e-08
-3.42044e-08
1.99506e-08
-1.80332e-07
1.82567e-07
-4.33891e-07
3.456e-07
-7.64261e-07
4.61567e-07
-1.13196e-06
5.18266e-07
-1.49691e-06
5.16184e-07
-1.82293e-06
4.61814e-07
-2.08007e-06
3.64588e-07
-2.24577e-06
2.35232e-07
-2.30553e-06
8.51823e-08
-2.2534e-06
-7.344e-08
-2.09259e-06
-2.27726e-07
-1.83586e-06
-3.64005e-07
-1.50572e-06
-4.68223e-07
-1.13384e-06
-5.26869e-07
-7.59363e-07
-5.28636e-07
-4.25314e-07
-4.67035e-07
-1.72659e-07
-3.43953e-07
-3.07977e-08
-1.75962e-07
-1.51131e-08
-9.22043e-08
1.12155e-07
-3.56911e-07
4.47273e-07
-7.64379e-07
7.53067e-07
-1.26819e-06
9.6538e-07
-1.81428e-06
1.06435e-06
-2.3485e-06
1.05041e-06
-2.82179e-06
9.35096e-07
-3.19321e-06
7.36015e-07
-3.43183e-06
4.73849e-07
-3.51772e-06
1.71071e-07
-3.4428e-06
-1.48357e-07
-3.21154e-06
-4.58985e-07
-2.84148e-06
-7.34069e-07
-2.36328e-06
-9.46415e-07
-1.81992e-06
-1.07024e-06
-1.26421e-06
-1.08434e-06
-7.54361e-07
-9.76888e-07
-3.46897e-07
-7.51417e-07
-8.73178e-08
-4.35542e-07
-1.02431e-07
-1.45174e-07
2.5733e-07
-5.25336e-07
8.27434e-07
-1.08138e-06
1.30911e-06
-1.74711e-06
1.63111e-06
-2.45377e-06
1.77102e-06
-3.13566e-06
1.7323e-06
-3.73445e-06
1.53388e-06
-4.20196e-06
1.20353e-06
-4.50192e-06
7.73801e-07
-4.61091e-06
2.80064e-07
-4.51927e-06
-2.39998e-07
-4.23181e-06
-7.46437e-07
-3.76855e-06
-1.19733e-06
-3.16496e-06
-1.55001e-06
-2.47135e-06
-1.76384e-06
-1.7507e-06
-1.80499e-06
-1.07428e-06
-1.6533e-06
-5.15029e-07
-1.31067e-06
-1.39285e-07
-8.11286e-07
-2.41716e-07
-1.93564e-07
4.50894e-07
-6.84847e-07
1.31872e-06
-1.38532e-06
2.00958e-06
-2.20677e-06
2.45255e-06
-3.06481e-06
2.62906e-06
-3.88296e-06
2.55045e-06
-4.59554e-06
2.24646e-06
-5.14951e-06
1.7575e-06
-5.50531e-06
1.1296e-06
-5.63737e-06
4.12122e-07
-5.53463e-06
-3.42735e-07
-5.20132e-06
-1.07974e-06
-4.65795e-06
-1.7407e-06
-3.94217e-06
-2.26578e-06
-3.10909e-06
-2.59693e-06
-2.23006e-06
-2.68402e-06
-1.38937e-06
-2.494e-06
-6.78364e-07
-2.02167e-06
-1.87729e-07
-1.30192e-06
-4.29445e-07
-2.39891e-07
6.90785e-07
-8.40186e-07
1.91901e-06
-1.68297e-06
2.85236e-06
-2.65656e-06
3.42615e-06
-3.66016e-06
3.63266e-06
-4.60692e-06
3.49721e-06
-5.42537e-06
3.06491e-06
-6.05948e-06
2.39161e-06
-6.4682e-06
1.53832e-06
-6.62488e-06
5.68803e-07
-6.51718e-06
-4.50435e-07
-6.14774e-06
-1.44918e-06
-5.5356e-06
-2.35284e-06
-4.71813e-06
-3.08325e-06
-3.75283e-06
-3.56222e-06
-2.71802e-06
-3.71883e-06
-1.71125e-06
-3.50077e-06
-8.44519e-07
-2.8884e-06
-2.36137e-07
-1.9103e-06
-6.65582e-07
-2.86699e-07
9.77484e-07
-9.96934e-07
2.62925e-06
-1.98179e-06
3.83722e-06
-3.10449e-06
4.54885e-06
-4.24734e-06
4.77551e-06
-5.31405e-06
4.56392e-06
-6.22922e-06
3.98008e-06
-6.93618e-06
3.09858e-06
-7.39444e-06
1.99658e-06
-7.57756e-06
7.51923e-07
-7.47213e-06
-5.55868e-07
-7.07815e-06
-1.84316e-06
-6.41102e-06
-3.01997e-06
-5.50486e-06
-3.98942e-06
-4.41649e-06
-4.65059e-06
-3.22895e-06
-4.90636e-06
-2.05269e-06
-4.67704e-06
-1.0224e-06
-3.91869e-06
-2.88242e-07
-2.64446e-06
-9.53824e-07
-3.36294e-07
1.31378e-06
-1.16025e-06
3.4532e-06
-2.28778e-06
4.96475e-06
-3.55463e-06
5.8157e-06
-4.82613e-06
6.04701e-06
-5.99845e-06
5.73625e-06
-6.99532e-06
4.97694e-06
-7.76273e-06
3.86599e-06
-8.26365e-06
2.4975e-06
-8.47376e-06
9.6204e-07
-8.37913e-06
-6.50498e-07
-7.97612e-06
-2.24617e-06
-7.27388e-06
-3.72221e-06
-6.29937e-06
-4.96394e-06
-5.10421e-06
-5.84575e-06
-3.77219e-06
-6.23838e-06
-2.42467e-06
-6.02456e-06
-1.22064e-06
-5.12272e-06
-3.47675e-07
-3.51742e-06
-1.3015e-06
-3.90934e-07
1.70471e-06
-1.33481e-06
4.39708e-06
-2.60483e-06
6.23477e-06
-4.00571e-06
7.21659e-06
-5.3865e-06
7.42779e-06
-6.63936e-06
6.98911e-06
-7.69197e-06
6.02956e-06
-8.49795e-06
4.67197e-06
-9.02787e-06
3.02742e-06
-9.26237e-06
1.19654e-06
-9.18811e-06
-7.24759e-07
-8.79697e-06
-2.63731e-06
-8.08891e-06
-4.43027e-06
-7.07863e-06
-5.97422e-06
-5.80601e-06
-7.11837e-06
-4.34881e-06
-7.69558e-06
-2.83466e-06
-7.53871e-06
-1.44702e-06
-6.51037e-06
-4.18075e-07
-4.54636e-06
-1.71957e-06
-4.53447e-07
2.15816e-06
-1.52566e-06
5.46929e-06
-2.93484e-06
7.64395e-06
-4.45005e-06
8.73179e-06
-5.90623e-06
8.88397e-06
-7.19769e-06
8.28057e-06
-8.26352e-06
7.09538e-06
-9.0719e-06
5.48036e-06
-9.6067e-06
3.56221e-06
-9.85741e-06
1.44725e-06
-9.81324e-06
-7.68931e-07
-9.4612e-06
-2.98935e-06
-8.78894e-06
-5.10253e-06
-7.79286e-06
-6.97031e-06
-6.49209e-06
-8.41914e-06
-4.94787e-06
-9.23979e-06
-3.28505e-06
-9.20154e-06
-1.70864e-06
-8.08677e-06
-5.03576e-07
-5.75143e-06
-2.22315e-06
-5.28347e-07
2.68651e-06
-1.73969e-06
6.68064e-06
-3.27804e-06
9.18229e-06
-4.87172e-06
1.03255e-05
-6.34713e-06
1.03594e-05
-7.61097e-06
9.5444e-06
-8.62451e-06
8.10893e-06
-9.37985e-06
6.2357e-06
-9.88116e-06
4.06352e-06
-1.01317e-05
1.69779e-06
-1.01259e-05
-7.74692e-07
-9.84647e-06
-3.26881e-06
-9.26611e-06
-5.6829e-06
-8.35642e-06
-7.87999e-06
-7.10476e-06
-9.67081e-06
-5.54074e-06
-1.08038e-05
-3.77072e-06
-1.09716e-05
-2.01217e-06
-9.84532e-06
-6.09689e-07
-7.15392e-06
-2.83284e-06
-6.23693e-07
3.3102e-06
-1.98747e-06
8.04441e-06
-3.63207e-06
1.08269e-05
-5.24218e-06
1.19356e-05
-6.6479e-06
1.17651e-05
-7.78488e-06
1.06814e-05
-8.65148e-06
8.97553e-06
-9.27481e-06
6.85903e-06
-9.68706e-06
4.47577e-06
-9.91034e-06
1.92107e-06
-9.94774e-06
-7.37295e-07
-9.77905e-06
-3.4375e-06
-9.36129e-06
-6.10066e-06
-8.63595e-06
-8.60533e-06
-7.54664e-06
-1.07601e-05
-6.07176e-06
-1.22787e-05
-4.27438e-06
-1.27689e-05
-2.3637e-06
-1.1756e-05
-7.4479e-07
-8.77282e-06
-3.57763e-06
-7.54117e-07
4.06432e-06
-2.28448e-06
9.57478e-06
-3.98726e-06
1.25297e-05
-5.50947e-06
1.34578e-05
-6.71011e-06
1.29658e-05
-7.57918e-06
1.15504e-05
-8.17077e-06
9.56712e-06
-8.55842e-06
7.24667e-06
-8.80856e-06
4.72591e-06
-8.96589e-06
2.0784e-06
-9.04518e-06
-6.58005e-07
-9.0265e-06
-3.45618e-06
-8.85326e-06
-6.2739e-06
-8.43538e-06
-9.02322e-06
-7.66334e-06
-1.15322e-05
-6.44231e-06
-1.34997e-05
-4.75644e-06
-1.44548e-05
-2.76684e-06
-1.37456e-05
-9.2246e-07
-1.06172e-05
-4.50009e-06
-9.45255e-07
5.00957e-06
-2.64865e-06
1.12782e-05
-4.31129e-06
1.41923e-05
-5.57375e-06
1.47203e-05
-6.37129e-06
1.37633e-05
-6.78403e-06
1.19632e-05
-6.94136e-06
9.72445e-06
-6.97068e-06
7.27599e-06
-6.97377e-06
4.729e-06
-7.0175e-06
2.12213e-06
-7.12958e-06
-5.45934e-07
-7.29466e-06
-3.29109e-06
-7.44944e-06
-6.11912e-06
-7.47856e-06
-8.99409e-06
-7.21847e-06
-1.17923e-05
-6.48313e-06
-1.42351e-05
-5.13367e-06
-1.58043e-05
-3.2151e-06
-1.56642e-05
-1.16442e-06
-1.26679e-05
-5.66451e-06
-1.23736e-06
6.24693e-06
-3.08345e-06
1.31243e-05
-4.50801e-06
1.56169e-05
-5.23496e-06
1.54472e-05
-5.35586e-06
1.38842e-05
-5.08263e-06
1.169e-05
-4.63182e-06
9.27364e-06
-4.18028e-06
6.82445e-06
-3.85544e-06
4.40416e-06
-3.73812e-06
2.00481e-06
-3.86619e-06
-4.17856e-07
-4.23364e-06
-2.92365e-06
-4.78297e-06
-5.56978e-06
-5.39182e-06
-8.38525e-06
-5.85909e-06
-1.1325e-05
-5.907e-06
-1.41871e-05
-5.23309e-06
-1.64782e-05
-3.6664e-06
-1.72309e-05
-1.50012e-06
-1.48342e-05
-7.16463e-06
-1.67385e-06
7.92078e-06
-3.51351e-06
1.49639e-05
-4.31558e-06
1.6419e-05
-4.08932e-06
1.52209e-05
-3.19366e-06
1.29885e-05
-1.99951e-06
1.04958e-05
-7.96047e-07
8.07019e-06
2.18328e-07
5.81008e-06
9.17157e-07
3.70533e-06
1.22451e-06
1.69746e-06
1.10099e-06
-2.94338e-07
5.40054e-07
-2.36272e-06
-4.2383e-07
-4.6059e-06
-1.69333e-06
-7.11574e-06
-3.07301e-06
-9.9453e-06
-4.23126e-06
-1.30289e-05
-4.69592e-06
-1.60135e-05
-3.96732e-06
-1.79595e-05
-1.94496e-06
-1.68565e-05
-9.10959e-06
-2.23072e-06
1.01515e-05
-3.5904e-06
1.63236e-05
-3.07801e-06
1.59066e-05
-1.34424e-06
1.34872e-05
8.96516e-07
1.07478e-05
3.1543e-06
8.23801e-06
5.13732e-06
6.08717e-06
6.68779e-06
4.2596e-06
7.72486e-06
2.66826e-06
8.20556e-06
1.21676e-06
8.10291e-06
-1.91691e-07
7.39812e-06
-1.65792e-06
6.08604e-06
-3.29382e-06
4.19849e-06
-5.2282e-06
1.8536e-06
-7.60041e-06
-6.62115e-07
-1.05132e-05
-2.79243e-06
-1.38832e-05
-3.66222e-06
-1.70897e-05
-2.41158e-06
-1.81072e-05
-1.15212e-05
-2.57383e-06
1.27253e-05
-2.18352e-06
1.59333e-05
7.1792e-07
1.30051e-05
4.46931e-06
9.73578e-06
8.1329e-06
7.08418e-06
1.13011e-05
5.06986e-06
1.38285e-05
3.55976e-06
1.56874e-05
2.40069e-06
1.68909e-05
1.46474e-06
1.74541e-05
6.53581e-07
1.73756e-05
-1.13186e-07
1.66298e-05
-9.12103e-07
1.51665e-05
-1.83058e-06
1.2923e-05
-2.98463e-06
9.86131e-06
-4.53877e-06
6.06165e-06
-6.71352e-06
1.91214e-06
-9.73369e-06
-1.55972e-06
-1.36178e-05
-2.45837e-06
-1.72085e-05
-1.39795e-05
-7.85011e-07
1.35103e-05
4.08077e-06
1.10675e-05
1.02975e-05
6.78841e-06
1.57935e-05
4.23976e-06
2.01578e-05
2.71987e-06
2.34578e-05
1.76991e-06
2.58604e-05
1.1571e-06
2.75211e-05
7.40025e-07
2.85535e-05
4.32276e-07
2.90259e-05
1.81216e-07
2.89617e-05
-4.89758e-08
2.83383e-05
-2.88683e-07
2.70814e-05
-5.73717e-07
2.50547e-05
-9.57927e-07
2.20514e-05
-1.53549e-06
1.78153e-05
-2.47738e-06
1.21723e-05
-4.09065e-06
5.47766e-06
-6.92322e-06
-1.29184e-07
-1.16017e-05
-1.41087e-05
1.35103e-05
2.45779e-05
3.13663e-05
3.5606e-05
3.83259e-05
4.00958e-05
4.12529e-05
4.19929e-05
4.24252e-05
4.26064e-05
4.25575e-05
4.22688e-05
4.16951e-05
4.07371e-05
3.92016e-05
3.67243e-05
3.26336e-05
2.57104e-05
1.41087e-05
)
;

boundaryField
{
    movingWall
    {
        type            calculated;
        value           uniform 0;
    }
    fixedWalls
    {
        type            calculated;
        value           uniform 0;
    }
    frontAndBack
    {
        type            empty;
        value           nonuniform List<scalar> 0();
    }
}


// ************************************************************************* //
