/*--------------------------------*- C++ -*----------------------------------*\
  =========                 |
  \\      /  F ield         | OpenFOAM: The Open Source CFD Toolbox
   \\    /   O peration     | Website:  https://openfoam.org
    \\  /    A nd           | Version:  8
     \\/     M anipulation  |
\*---------------------------------------------------------------------------*/
FoamFile
{
    version     2.0;
    format      ascii;
    class       volVectorField;
    location    "17";
    object      U;
}
// * * * * * * * * * * * * * * * * * * * * * * * * * * * * * * * * * * * * * //

dimensions      [0 1 -1 0 0 0 0];

internalField   nonuniform List<vector> 
116
(
(0.00743599 -0.00553332 0)
(-0.000506004 -0.00996647 0)
(0.0229845 -0.00838093 0)
(-0.00243787 -0.0183979 0)
(0.0295432 0.0275316 0)
(-0.10822 0.087672 0)
(0.00102013 -0.00165474 0)
(-0.0143083 -0.00292565 0)
(-0.0172697 0.0067811 0)
(-0.0490899 0.0173657 0)
(-0.0626954 0.0679492 0)
(-0.104836 0.0837471 0)
(-0.000280151 0.00651237 0)
(-0.0131329 0.00985584 0)
(-0.0240672 0.0209149 0)
(-0.0456532 0.0329106 0)
(-0.0582343 0.083836 0)
(-0.0698163 0.104121 0)
(-0.00300292 0.0119688 0)
(-0.014603 0.0232605 0)
(-0.0248935 0.0382957 0)
(-0.0360588 0.0551763 0)
(-0.0431161 0.0947809 0)
(-0.0290005 0.102306 0)
(0.000263051 0.0234125 0)
(-0.00690829 0.0315044 0)
(-0.0177168 0.0410525 0)
(-0.0189852 0.0481391 0)
(-0.0240948 0.0776058 0)
(0.00469838 0.0783988 0)
(-0.00339742 0.0176206 0)
(-0.00306947 0.0411982 0)
(-0.00632112 0.0516889 0)
(-0.00186986 0.0614676 0)
(-0.00509915 0.0779373 0)
(0.0206417 0.0711378 0)
(0.00331289 0.0327157 0)
(-0.00154451 0.0346516 0)
(-0.0118169 0.0415335 0)
(-0.00147973 0.04236 0)
(-0.00400732 0.051862 0)
(0.0299977 0.0443744 0)
(0.00262919 0.0119399 0)
(0.00965398 0.0564977 0)
(0.0144777 0.0528143 0)
(0.021458 0.0574282 0)
(0.0159097 0.0537302 0)
(0.0403463 0.0513919 0)
(-0.0650103 0.0263404 0)
(-0.0351779 0.0186605 0)
(-0.0550317 0.0292566 0)
(-0.024932 0.0327579 0)
(-0.0225801 0.0286978 0)
(0.0110684 0.0315105 0)
(0.0528846 0.0987395 0)
(0.0860274 0.0571448 0)
(0.113623 0.0421162 0)
(0.163235 0.033364 0)
(0.171648 0.0235639 0)
(0.218082 0.0194813 0)
(-0.119951 0.152591 0)
(-0.106884 -0.00344001 0)
(-0.0453787 -0.0738528 0)
(-0.0208332 -0.136937 0)
(-0.107814 0.14253 0)
(-0.0570721 -0.0376495 0)
(-0.0738761 -0.106162 0)
(-0.000492039 -0.17624 0)
(-0.0730376 0.112427 0)
(-0.0127845 -0.0492142 0)
(-0.0547452 -0.119973 0)
(-0.00226956 -0.214012 0)
(-0.0306671 0.097933 0)
(0.0187241 -0.0505446 0)
(-0.0354554 -0.115793 0)
(0.0105208 -0.229557 0)
(0.00959934 0.0673636 0)
(0.0399958 -0.0478449 0)
(-0.0276303 -0.111774 0)
(0.0144151 -0.239131 0)
(0.019991 0.0681393 0)
(0.051448 -0.0111434 0)
(-0.0201388 -0.084401 0)
(0.0241805 -0.243588 0)
(0.0180584 0.0349599 0)
(0.0641728 -0.0176776 0)
(-0.0339855 -0.0910903 0)
(0.0325372 -0.244711 0)
(0.0200964 0.0463669 0)
(0.053919 0.038644 0)
(-0.0163979 -0.0383601 0)
(0.0520083 -0.233479 0)
(0.0136176 0.0157105 0)
(0.0558622 0.00813237 0)
(0.0488663 -0.0969326 0)
(0.0798521 -0.239071 0)
(0.21123 0.0118047 0)
(0.248985 0.00104933 0)
(0.203965 -0.0260381 0)
(0.152253 -0.0709947 0)
(-0.0104669 0.00174057 0)
(-0.0323749 -0.00269649 0)
(-0.0508791 0.002971 0)
(-0.0265825 -0.0201988 0)
(-0.016394 0.0420474 0)
(-0.041331 0.0436833 0)
(-0.049094 -0.00459719 0)
(-0.0141723 -0.059629 0)
(-0.0412275 0.060639 0)
(-0.0406076 0.0200759 0)
(-0.0415533 -0.0191283 0)
(-0.0093687 -0.089673 0)
(-0.00738722 0.124832 0)
(-0.0907613 0.0552468 0)
(-0.00393657 -0.0341456 0)
(-0.0341848 -0.102266 0)
)
;

boundaryField
{
    movingWall
    {
        type            fixedValue;
        value           uniform (1 0 0);
    }
    fixedWalls
    {
        type            noSlip;
    }
    frontAndBack
    {
        type            empty;
    }
}


// ************************************************************************* //
