# Probe 0 (-1 0 -1.0001)
# Probe 1 (-0.75 0 -1.0001)
# Probe 2 (-0.5 0 -1.0001)
# Probe 3 (0.5 0 -1.0001)
# Probe 4 (0.75 0 -1.0001)
# Probe 5 (1 0 -1.0001)
# Probe 6 (1.25 0 -1.0001)
# Probe 7 (1.5 0 -1.0001)
# Probe 8 (1.75 0 -1.0001)
# Probe 9 (2 0 -1.0001)
# Probe 10 (2.25 0 -1.0001)
# Probe 11 (2.5 0 -1.0001)
# Probe 12 (2.75 0 -1.0001)
# Probe 13 (3 0 -1.0001)
# Probe 14 (3.25 0 -1.0001)
# Probe 15 (3.5 0 -1.0001)
# Probe 16 (3.75 0 -1.0001)
# Probe 17 (4 0 -1.0001)
# Time        0             1             2             3             4             5             6             7             8             9             10            11            12            13            14            15            16            17           
0             (0 0 0)       (0 0 0)       (0 0 0)       (0 0 0)       (0 0 0)       (0 0 0)       (0 0 0)       (0 0 0)       (0 0 0)       (0 0 0)       (0 0 0)       (0 0 0)       (0 0 0)       (0 0 0)       (0 0 0)       (0 0 0)       (0 0 0)       (0 0 0)      
