/*--------------------------------*- C++ -*----------------------------------*\
  =========                 |
  \\      /  F ield         | OpenFOAM: The Open Source CFD Toolbox
   \\    /   O peration     | Website:  https://openfoam.org
    \\  /    A nd           | Version:  8
     \\/     M anipulation  |
\*---------------------------------------------------------------------------*/
FoamFile
{
    version     2.0;
    format      ascii;
    class       volScalarField;
    location    "1.77";
    object      p;
}
// * * * * * * * * * * * * * * * * * * * * * * * * * * * * * * * * * * * * * //

dimensions      [0 2 -2 0 0 0 0];

internalField   nonuniform List<scalar> 
400
(
-2.60939e-15
-4.57687e-15
-6.28559e-15
-7.61909e-15
-8.53327e-15
-9.12369e-15
-9.5777e-15
-9.88439e-15
-1.01158e-14
-1.02596e-14
-1.0281e-14
-1.02351e-14
-1.00452e-14
-9.76076e-15
-9.41519e-15
-8.98218e-15
-8.36449e-15
-7.52883e-15
-6.27513e-15
-4.64224e-15
-5.32707e-15
-5.97597e-15
-7.08022e-15
-8.07322e-15
-8.81221e-15
-9.3344e-15
-9.71712e-15
-9.97132e-15
-1.02286e-14
-1.03315e-14
-1.03269e-14
-1.0306e-14
-1.01629e-14
-9.83747e-15
-9.47679e-15
-9.10104e-15
-8.62042e-15
-7.95269e-15
-7.01692e-15
-6.07438e-15
-7.18169e-15
-7.42286e-15
-7.99342e-15
-8.65196e-15
-9.15133e-15
-9.54709e-15
-9.92436e-15
-1.02338e-14
-1.04236e-14
-1.05139e-14
-1.05606e-14
-1.05011e-14
-1.02771e-14
-1.00383e-14
-9.76668e-15
-9.40384e-15
-9.05947e-15
-8.43427e-15
-7.87103e-15
-7.3909e-15
-8.58592e-15
-8.56807e-15
-8.88899e-15
-9.28397e-15
-9.57111e-15
-9.8626e-15
-1.01872e-14
-1.04031e-14
-1.05952e-14
-1.06894e-14
-1.0951e-14
-1.07619e-14
-1.04974e-14
-1.0261e-14
-1.01585e-14
-9.82748e-15
-9.56315e-15
-9.08938e-15
-8.66415e-15
-8.58048e-15
-9.43748e-15
-9.44388e-15
-9.68262e-15
-9.92079e-15
-1.02067e-14
-1.03432e-14
-1.04035e-14
-1.05907e-14
-1.0801e-14
-1.09032e-14
-1.11429e-14
-1.10695e-14
-1.09657e-14
-1.0602e-14
-1.041e-14
-1.02615e-14
-1.02046e-14
-9.85227e-15
-9.70427e-15
-9.68097e-15
-1.03271e-14
-9.9283e-15
-1.0364e-14
-1.04979e-14
-1.0471e-14
-1.06589e-14
-1.07359e-14
-1.08462e-14
-1.10893e-14
-1.12687e-14
-1.14352e-14
-1.13114e-14
-1.12652e-14
-1.07872e-14
-1.07e-14
-1.0746e-14
-1.07901e-14
-1.05724e-14
-1.0621e-14
-1.07136e-14
-1.09411e-14
-1.07564e-14
-1.07256e-14
-1.0791e-14
-1.07525e-14
-1.1002e-14
-1.10384e-14
-1.11059e-14
-1.14249e-14
-1.16872e-14
-1.16539e-14
-1.1466e-14
-1.13356e-14
-1.10833e-14
-1.12751e-14
-1.13445e-14
-1.12841e-14
-1.12039e-14
-1.12347e-14
-1.13615e-14
-1.13194e-14
-1.12284e-14
-1.11316e-14
-1.10268e-14
-1.11993e-14
-1.12813e-14
-1.13496e-14
-1.14763e-14
-1.15172e-14
-1.21689e-14
-1.19994e-14
-1.15576e-14
-1.13729e-14
-1.15117e-14
-1.15698e-14
-1.19489e-14
-1.21006e-14
-1.20181e-14
-1.16333e-14
-1.14044e-14
-1.17036e-14
-1.15798e-14
-1.1369e-14
-1.11248e-14
-1.12689e-14
-1.13515e-14
-1.15748e-14
-1.16171e-14
-1.17852e-14
-1.21188e-14
-1.20135e-14
-1.19766e-14
-1.19584e-14
-1.19284e-14
-1.21659e-14
-1.25566e-14
-1.22706e-14
-1.22546e-14
-1.22758e-14
-1.18794e-14
-1.26118e-14
-1.1883e-14
-1.15605e-14
-1.11113e-14
-1.10883e-14
-1.16472e-14
-1.18512e-14
-1.17924e-14
-1.20357e-14
-1.22401e-14
-1.18435e-14
-1.22656e-14
-1.22994e-14
-1.206e-14
-1.27294e-14
-1.31151e-14
-1.2519e-14
-1.28102e-14
-1.26395e-14
-1.27097e-14
-1.2999e-14
-1.26775e-14
-1.21932e-14
-1.1388e-14
-1.10213e-14
-1.13981e-14
-1.16135e-14
-1.23359e-14
-1.24377e-14
-1.20438e-14
-1.17792e-14
-1.21663e-14
-1.20972e-14
-1.24731e-14
-1.32689e-14
-1.34504e-14
-1.28774e-14
-1.31888e-14
-1.28969e-14
-1.31323e-14
-1.35742e-14
-1.3465e-14
-1.26196e-14
-1.16123e-14
-1.10676e-14
-1.13292e-14
-1.16723e-14
-1.24612e-14
-1.23093e-14
-1.19629e-14
-1.19214e-14
-1.2198e-14
-1.20601e-14
-1.23241e-14
-1.35054e-14
-1.34421e-14
-1.34845e-14
-1.32073e-14
-1.30987e-14
-1.33476e-14
-1.39093e-14
-1.3926e-14
-1.33658e-14
-1.20743e-14
-1.13962e-14
-1.10218e-14
-1.15492e-14
-1.25064e-14
-1.24995e-14
-1.17877e-14
-1.19462e-14
-1.25511e-14
-1.2824e-14
-1.27848e-14
-1.36138e-14
-1.33577e-14
-1.34652e-14
-1.35338e-14
-1.32827e-14
-1.35852e-14
-1.45519e-14
-1.3766e-14
-1.35308e-14
-1.2538e-14
-1.17244e-14
-1.1188e-14
-1.14056e-14
-1.26451e-14
-1.23664e-14
-1.2e-14
-1.25912e-14
-1.26652e-14
-1.27855e-14
-1.32043e-14
-1.35147e-14
-1.32742e-14
-1.32693e-14
-1.33123e-14
-1.36456e-14
-1.38011e-14
-1.44272e-14
-1.42611e-14
-1.31524e-14
-1.21336e-14
-1.18969e-14
-1.19302e-14
-1.18796e-14
-1.25028e-14
-1.25503e-14
-1.23607e-14
-1.22163e-14
-1.2842e-14
-1.31717e-14
-1.31297e-14
-1.36923e-14
-1.32611e-14
-1.29241e-14
-1.33658e-14
-1.39071e-14
-1.34216e-14
-1.43222e-14
-1.4201e-14
-1.32017e-14
-1.22338e-14
-1.17266e-14
-1.19107e-14
-1.24426e-14
-1.25733e-14
-1.23489e-14
-1.25996e-14
-1.27024e-14
-1.31633e-14
-1.33778e-14
-1.31128e-14
-1.36687e-14
-1.37316e-14
-1.30809e-14
-1.38865e-14
-1.37579e-14
-1.3855e-14
-1.36535e-14
-1.40108e-14
-1.30744e-14
-1.27269e-14
-1.20023e-14
-1.20881e-14
-1.20995e-14
-1.16597e-14
-1.21868e-14
-1.29493e-14
-1.32831e-14
-1.37193e-14
-1.37204e-14
-1.32542e-14
-1.32417e-14
-1.34858e-14
-1.32157e-14
-1.36893e-14
-1.39858e-14
-1.39182e-14
-1.35149e-14
-1.36261e-14
-1.28764e-14
-1.3089e-14
-1.26099e-14
-1.18738e-14
-1.19478e-14
-1.17576e-14
-1.21811e-14
-1.25577e-14
-1.3292e-14
-1.39052e-14
-1.45528e-14
-1.42268e-14
-1.31482e-14
-1.26359e-14
-1.30268e-14
-1.31039e-14
-1.37631e-14
-1.41784e-14
-1.37536e-14
-1.35974e-14
-1.33547e-14
-1.35026e-14
-1.22808e-14
-1.13364e-14
-1.15389e-14
-1.06251e-14
-1.24511e-14
-1.2816e-14
-1.31692e-14
-1.47342e-14
-1.45175e-14
-1.40654e-14
-1.34174e-14
-1.23693e-14
-1.25844e-14
-1.34787e-14
-1.38208e-14
-1.32135e-14
-1.3514e-14
-1.33349e-14
-1.42854e-14
-1.48533e-14
-1.26615e-14
-1.08953e-14
-1.00591e-14
-1.04151e-14
-1.19593e-14
-1.29539e-14
-1.41025e-14
-1.48714e-14
-1.43705e-14
-1.37054e-14
-1.40609e-14
-1.22897e-14
-1.18527e-14
-1.34438e-14
-1.3573e-14
-1.34252e-14
)
;

boundaryField
{
    movingWall
    {
        type            zeroGradient;
    }
    fixedWalls
    {
        type            zeroGradient;
    }
    left
    {
        type            cyclic;
    }
    right
    {
        type            cyclic;
    }
    frontAndBack
    {
        type            empty;
    }
}


// ************************************************************************* //
