/*--------------------------------*- C++ -*----------------------------------*\
  =========                 |
  \\      /  F ield         | OpenFOAM: The Open Source CFD Toolbox
   \\    /   O peration     | Website:  https://openfoam.org
    \\  /    A nd           | Version:  8
     \\/     M anipulation  |
\*---------------------------------------------------------------------------*/
FoamFile
{
    version     2.0;
    format      ascii;
    class       volScalarField;
    location    "48";
    object      p;
}
// * * * * * * * * * * * * * * * * * * * * * * * * * * * * * * * * * * * * * //

dimensions      [0 2 -2 0 0 0 0];

internalField   nonuniform List<scalar> 
464
(
-1.44727e-09
1.28075e-06
5.90795e-06
1.28574e-05
2.26278e-05
3.50689e-05
5.04305e-05
6.77937e-05
8.93795e-05
0.000109984
0.000138956
0.000158179
-1.67628e-06
-3.8881e-07
4.21577e-06
1.11372e-05
2.09583e-05
3.36342e-05
4.94615e-05
6.76376e-05
9.02382e-05
0.000112522
0.000143074
0.000166323
-6.96704e-06
-5.7549e-06
-1.24855e-06
5.48014e-06
1.4966e-05
2.70008e-05
4.17194e-05
5.88146e-05
7.93209e-05
0.000100725
0.00012747
0.000151192
-1.47658e-05
-1.36582e-05
-9.22297e-06
-2.53917e-06
7.24296e-06
2.03034e-05
3.68178e-05
5.65652e-05
8.02628e-05
0.000105771
0.000136539
0.000165821
-2.55278e-05
-2.46175e-05
-2.03982e-05
-1.41446e-05
-5.23786e-06
6.01579e-06
2.00012e-05
3.69768e-05
5.72835e-05
8.05206e-05
0.000107667
0.000136386
-3.91842e-05
-3.85132e-05
-3.44917e-05
-2.84722e-05
-1.87922e-05
-5.20502e-06
1.22954e-05
3.38155e-05
5.96061e-05
8.92973e-05
0.000123507
0.000160562
-5.53904e-05
-5.51696e-05
-5.16424e-05
-4.70174e-05
-4.02696e-05
-3.11398e-05
-1.86095e-05
-2.21451e-06
1.84445e-05
4.36319e-05
7.33433e-05
0.000108116
-7.47379e-05
-7.47571e-05
-7.12673e-05
-6.54591e-05
-5.59497e-05
-4.26327e-05
-2.50964e-05
-2.60725e-06
2.53176e-05
5.92201e-05
9.90528e-05
0.000147154
-9.76296e-05
-0.000101128
-9.86587e-05
-0.000100738
-9.65271e-05
-9.1305e-05
-8.10155e-05
-6.60303e-05
-4.55968e-05
-1.82316e-05
1.23056e-05
5.76858e-05
-0.000108301
-0.000108853
-0.000108693
-0.000105495
-0.000100932
-9.11983e-05
-7.74552e-05
-5.66684e-05
-2.92309e-05
8.66704e-06
4.97256e-05
0.000113159
-0.000163551
-0.000174186
-0.000168617
-0.000184397
-0.000177742
-0.000183336
-0.00017482
-0.000163452
-0.000146635
-0.000113785
-9.03521e-05
-2.12478e-05
-0.000135077
-0.000136972
-0.000146268
-0.000147035
-0.000155556
-0.000152503
-0.000150522
-0.000134164
-0.000117125
-7.28317e-05
-4.15303e-05
4.63647e-05
-0.000238956
-0.000267194
-0.000253457
-0.000300656
-0.000285835
-0.000316804
-0.000306514
-0.000305627
-0.00029806
-0.000258351
-0.000258101
-0.000165456
-0.00015084
-0.00015506
-0.000181244
-0.000189405
-0.000221877
-0.000230004
-0.000253116
-0.000242048
-0.000252703
-0.000198156
-0.000203664
-8.14827e-05
-0.000295932
-0.000372097
-0.000341066
-0.000456551
-0.0004251
-0.000502737
-0.000486364
-0.000504655
-0.000508937
-0.000464408
-0.000500446
-0.000387766
-0.000146751
-0.000157945
-0.000209067
-0.000232625
-0.000300163
-0.000330851
-0.000393615
-0.000390048
-0.000446753
-0.000375365
-0.000443481
-0.000281555
-0.000250693
-0.000470651
-0.000417844
-0.000674072
-0.000614656
-0.00076131
-0.000732438
-0.000769574
-0.000784901
-0.00072847
-0.000807893
-0.00067745
-0.000116002
-0.000156699
-0.000229591
-0.000284619
-0.000385882
-0.000470271
-0.00058589
-0.000593008
-0.000708473
-0.000606483
-0.000746411
-0.00054231
0.000197451
-0.000611552
-0.000505289
-0.00102697
-0.000907356
-0.00112529
-0.00107947
-0.00110838
-0.00113081
-0.0010316
-0.00112811
-0.000983804
-0.00106735
6.40992e-05
-9.25742e-05
-0.0004442
-0.000582397
-0.000742214
-0.000939655
-0.000915484
-0.00107945
-0.000896776
-0.00108197
-0.000807122
0.000197484
0.000215593
0.00023636
0.000250365
0.000264204
0.00027368
0.000280895
0.000283594
0.00020895
0.000228255
0.000251738
0.000267059
0.000282025
0.000292328
0.000300065
0.000302987
0.000182867
0.0002077
0.000234532
0.000256822
0.000277099
0.000292698
0.000303771
0.000308467
0.000201264
0.00022952
0.000259372
0.000284432
0.000306994
0.000324715
0.000337149
0.0003426
0.000169915
0.000203891
0.000237875
0.00027164
0.000300341
0.000326313
0.000342925
0.000351543
0.000199918
0.000239593
0.000278791
0.000318099
0.000351307
0.000382327
0.000401926
0.000412656
0.000147556
0.000196215
0.000238289
0.000294714
0.000332103
0.000381939
0.000404828
0.000424675
0.000195196
0.000253013
0.000304384
0.000370754
0.00041748
0.000478163
0.000507629
0.000533688
9.79491e-05
0.000174981
0.000220463
0.000321661
0.000366741
0.000469817
0.000501377
0.00055267
0.000168994
0.000259726
0.000321145
0.000439098
0.000502461
0.000628933
0.000675533
0.000746874
1.02758e-06
0.000120691
0.000156069
0.00033495
0.000382273
0.00059955
0.000647245
0.000795252
9.64391e-05
0.000235443
0.000292243
0.000501047
0.00057711
0.000846456
0.000928693
0.0011495
-0.0001784
-8.97533e-06
-1.32411e-05
0.000277827
0.00030102
0.000745664
0.000830979
0.00129996
-8.71788e-05
0.000135602
0.0001342
0.000483473
0.000516876
0.00106897
0.00121248
0.00194403
-0.000463651
-0.000270645
-0.000380712
1.54219e-05
-0.000127602
0.000687915
0.000729785
0.00217016
-0.000386949
-9.31982e-05
-0.000287886
0.000220629
-0.000108933
0.000865756
0.000358774
0.00249218
-0.000846276
-0.000645731
-0.00100721
-0.000611601
-0.00144808
-0.000342786
-0.00222318
0.00100664
-0.000749255
-0.000457607
-0.000858789
-0.000439846
-0.00145941
-0.000518344
-0.00240993
0.00180645
-0.00113477
-0.00104643
-0.00144624
-0.00136703
-0.0027767
-0.00267262
-0.00362406
0.00140522
-0.00102871
-0.000779657
-0.00111461
-0.000984691
-0.00132139
-8.51174e-05
0.00322394
0.013839
0.000256258
0.000256581
0.000257437
0.000258428
0.000259582
0.00026054
0.000261318
0.000261607
0.000257378
0.000257712
0.000258584
0.000259593
0.000260717
0.000261642
0.000262389
0.000262658
0.000253576
0.00025411
0.000255481
0.000256981
0.00025878
0.000260227
0.000261411
0.000261846
0.00025678
0.000257422
0.000258939
0.000260633
0.000262427
0.00026387
0.000265015
0.000265421
0.000247587
0.000248943
0.000251955
0.000254961
0.000258541
0.000261234
0.000263444
0.000264241
0.000253195
0.000254921
0.000258264
0.000261752
0.000265305
0.000268057
0.000270224
0.00027099
0.000233792
0.000238214
0.00024574
0.000252289
0.000259617
0.000264799
0.000268955
0.000270449
0.000241829
0.000247835
0.000255964
0.000263356
0.000270759
0.000276168
0.000280382
0.000281888
)
;

boundaryField
{
    movingWall
    {
        type            zeroGradient;
    }
    fixedWalls
    {
        type            zeroGradient;
    }
    frontAndBack
    {
        type            empty;
    }
}


// ************************************************************************* //
