/*--------------------------------*- C++ -*----------------------------------*\
  =========                 |
  \\      /  F ield         | OpenFOAM: The Open Source CFD Toolbox
   \\    /   O peration     | Website:  https://openfoam.org
    \\  /    A nd           | Version:  8
     \\/     M anipulation  |
\*---------------------------------------------------------------------------*/
FoamFile
{
    version     2.0;
    format      ascii;
    class       volVectorField;
    location    "48";
    object      U;
}
// * * * * * * * * * * * * * * * * * * * * * * * * * * * * * * * * * * * * * //

dimensions      [0 1 -1 0 0 0 0];

internalField   nonuniform List<vector> 
464
(
(-0.00016373 0.000162308 0)
(-0.00053143 0.000177256 0)
(-0.000912976 0.000171294 0)
(-0.00126535 0.000161536 0)
(-0.00159819 0.000148149 0)
(-0.00190237 0.000130532 0)
(-0.00216083 0.000108515 0)
(-0.00240435 7.98447e-05 0)
(-0.00254044 4.65793e-05 0)
(-0.0027459 3.67324e-07 0)
(-0.00268482 -3.89108e-05 0)
(-0.00294797 6.57831e-06 0)
(-0.000185149 0.000532917 0)
(-0.00059881 0.000579901 0)
(-0.00102704 0.000560695 0)
(-0.00142305 0.000529906 0)
(-0.00179757 0.000489432 0)
(-0.0021404 0.000440205 0)
(-0.00243512 0.00038622 0)
(-0.00271151 0.000321627 0)
(-0.00287838 0.000272923 0)
(-0.00311294 0.000185172 0)
(-0.00309192 0.000194734 0)
(-0.00338448 5.02029e-05 0)
(-0.000192123 0.000938137 0)
(-0.000621583 0.00101903 0)
(-0.00106611 0.000984816 0)
(-0.00147623 0.000929754 0)
(-0.00186248 0.000856511 0)
(-0.00221111 0.000764837 0)
(-0.00251088 0.000658062 0)
(-0.00277111 0.00052933 0)
(-0.00294355 0.000407747 0)
(-0.00310664 0.00023924 0)
(-0.00310621 0.000168877 0)
(-0.00314411 -4.4941e-05 0)
(-0.00020205 0.00134866 0)
(-0.000654135 0.00146491 0)
(-0.0011229 0.00141574 0)
(-0.00155666 0.00133665 0)
(-0.00196899 0.00123207 0)
(-0.00234638 0.00110391 0)
(-0.00267906 0.000956297 0)
(-0.00297076 0.000786962 0)
(-0.00317783 0.000611295 0)
(-0.00336134 0.000394914 0)
(-0.00338457 0.000217919 0)
(-0.00340613 -6.93453e-05 0)
(-0.000215359 0.00178988 0)
(-0.000697771 0.00194428 0)
(-0.00119832 0.00187929 0)
(-0.00166009 0.00177452 0)
(-0.00209537 0.00163472 0)
(-0.00248699 0.00145933 0)
(-0.00282792 0.00125152 0)
(-0.00311606 0.00101014 0)
(-0.00333565 0.000748801 0)
(-0.0035 0.000442664 0)
(-0.00357053 0.000159531 0)
(-0.00358784 -0.000213852 0)
(-0.000232699 0.00225573 0)
(-0.000754638 0.00245259 0)
(-0.00129769 0.00237219 0)
(-0.00180131 0.0022431 0)
(-0.00228426 0.00207267 0)
(-0.00272974 0.00186361 0)
(-0.00312858 0.00161936 0)
(-0.00347387 0.00133925 0)
(-0.00374591 0.00102945 0)
(-0.00395089 0.000681153 0)
(-0.00404142 0.000315728 0)
(-0.00404168 -0.000112467 0)
(-0.000252553 0.00278019 0)
(-0.000821361 0.00302179 0)
(-0.00141398 0.00292083 0)
(-0.00195962 0.00275707 0)
(-0.00247472 0.00253964 0)
(-0.00294001 0.00226693 0)
(-0.00335179 0.00194636 0)
(-0.00370528 0.0015763 0)
(-0.00399302 0.00116276 0)
(-0.00421297 0.000699457 0)
(-0.00436388 0.000203579 0)
(-0.00443614 -0.000355742 0)
(-0.000280159 0.00331514 0)
(-0.000910273 0.00361619 0)
(-0.00156992 0.00349952 0)
(-0.00218272 0.00332944 0)
(-0.00277465 0.00309131 0)
(-0.00332357 0.00279889 0)
(-0.00382006 0.00245264 0)
(-0.00425863 0.00205468 0)
(-0.00462412 0.0016107 0)
(-0.00491109 0.00111607 0)
(-0.00509722 0.000587802 0)
(-0.00515293 -2.79585e-05 0)
(-0.000298333 0.00395996 0)
(-0.000992054 0.00429844 0)
(-0.00170908 0.00415907 0)
(-0.00236761 0.00390929 0)
(-0.00300471 0.00361142 0)
(-0.00357783 0.00322749 0)
(-0.00409461 0.00279243 0)
(-0.00454545 0.00228623 0)
(-0.00492959 0.0017225 0)
(-0.00523407 0.00108646 0)
(-0.00550629 0.000402108 0)
(-0.00564178 -0.000411604 0)
(-0.000361231 0.00465517 0)
(-0.00114033 0.00512692 0)
(-0.00196974 0.00492519 0)
(-0.00273129 0.00475145 0)
(-0.00345729 0.00439029 0)
(-0.00414426 0.00401537 0)
(-0.00476346 0.00354228 0)
(-0.0053316 0.00301164 0)
(-0.00582717 0.00243187 0)
(-0.00623468 0.00176677 0)
(-0.00659665 0.00113038 0)
(-0.00673527 0.000249435 0)
(-0.000312153 0.00533539 0)
(-0.00121805 0.00575671 0)
(-0.00209357 0.00562573 0)
(-0.00290113 0.00522201 0)
(-0.00373889 0.00488842 0)
(-0.00442367 0.00435452 0)
(-0.00509499 0.00383303 0)
(-0.00565197 0.00318066 0)
(-0.00616963 0.00249939 0)
(-0.00653171 0.00167512 0)
(-0.00701802 0.000875205 0)
(-0.00716143 -0.000242527 0)
(-0.000531902 0.00635902 0)
(-0.00145248 0.00716875 0)
(-0.00252093 0.00674396 0)
(-0.003472 0.0066919 0)
(-0.00432685 0.00605098 0)
(-0.00520419 0.00564134 0)
(-0.00594143 0.00494704 0)
(-0.00667214 0.00426961 0)
(-0.00733926 0.00355692 0)
(-0.00786754 0.00268329 0)
(-0.00851764 0.00203515 0)
(-0.00877274 0.000820573 0)
(-0.000157544 0.00707037 0)
(-0.00150295 0.00741808 0)
(-0.00257336 0.00742618 0)
(-0.0035894 0.00667145 0)
(-0.00478495 0.00640977 0)
(-0.00552298 0.00563556 0)
(-0.00646024 0.00510148 0)
(-0.00703518 0.00426644 0)
(-0.00774623 0.00355937 0)
(-0.00804661 0.00252648 0)
(-0.00886708 0.00175986 0)
(-0.0088576 0.000296943 0)
(-0.00103652 0.00832116 0)
(-0.00194377 0.0100482 0)
(-0.00329829 0.00905188 0)
(-0.00449758 0.00943106 0)
(-0.00536474 0.00817839 0)
(-0.00652283 0.00779551 0)
(-0.0073159 0.00668193 0)
(-0.00822786 0.00584719 0)
(-0.00908915 0.00495684 0)
(-0.00968591 0.0038702 0)
(-0.0107556 0.00330678 0)
(-0.0110405 0.00182782 0)
(0.000749491 0.00967013 0)
(-0.0016227 0.00913846 0)
(-0.00316704 0.00965023 0)
(-0.00445138 0.00814585 0)
(-0.00641742 0.00812995 0)
(-0.00701026 0.00703784 0)
(-0.00839985 0.00655623 0)
(-0.00874882 0.00552611 0)
(-0.0097077 0.00488444 0)
(-0.00968651 0.00365745 0)
(-0.0108882 0.00314037 0)
(-0.0104162 0.00138281 0)
(-0.0028809 0.00961287 0)
(-0.00314441 0.0146779 0)
(-0.00429904 0.0121784 0)
(-0.0060312 0.0135332 0)
(-0.00646381 0.0109906 0)
(-0.00812129 0.0105383 0)
(-0.00883314 0.00869532 0)
(-0.0099231 0.00760042 0)
(-0.0109684 0.00643495 0)
(-0.0114607 0.00513171 0)
(-0.0130462 0.00470176 0)
(-0.0130588 0.00311072 0)
(0.00324491 0.0152489 0)
(-0.000677441 0.00976098 0)
(-0.00481572 0.0120886 0)
(-0.00578915 0.00941019 0)
(-0.00950915 0.00977326 0)
(-0.00929144 0.00858995 0)
(-0.0113287 0.00803941 0)
(-0.0109801 0.00690407 0)
(-0.0121535 0.00630414 0)
(-0.0114052 0.00495326 0)
(-0.0128986 0.00482947 0)
(-0.0113402 0.00302496 0)
(0.00214392 0.00730791 0)
(-0.00205346 0.0238081 0)
(0.000614655 0.0176369 0)
(-0.00621294 0.0195542 0)
(-0.00609468 0.0148177 0)
(-0.00935964 0.013487 0)
(-0.0103296 0.0107242 0)
(-0.0116444 0.00903912 0)
(-0.0129438 0.00756664 0)
(-0.0129932 0.00596417 0)
(-0.0150028 0.00550183 0)
(-0.0141541 0.00394515 0)
(-0.0342849 0.0155075 0)
(-0.0188194 0.0102135 0)
(-0.0360181 0.0155179 0)
(-0.0244466 0.0148286 0)
(-0.0288013 0.012183 0)
(-0.0217086 0.0117222 0)
(-0.0215891 0.00990726 0)
(-0.0172777 0.00850519 0)
(-0.0163851 0.00757402 0)
(-0.0126491 0.00599361 0)
(-0.0130269 0.00617278 0)
(-0.00822138 0.00451476 0)
(0.029487 0.0582695 0)
(0.0462669 0.0280239 0)
(0.0654117 0.0228907 0)
(0.084444 0.0146444 0)
(0.0953892 0.012019 0)
(0.107628 0.00780488 0)
(0.114244 0.006505 0)
(0.124935 0.00441837 0)
(0.125472 0.00373014 0)
(0.137816 0.00258183 0)
(0.131872 0.00191691 0)
(0.147981 0.00142123 0)
(-0.00267626 0.00152969 0)
(-0.00188622 0.000837966 0)
(-0.00165957 0.000167075 0)
(-0.00129662 -0.000212703 0)
(-0.00104791 -0.000532476 0)
(-0.000739529 -0.000742013 0)
(-0.000440549 -0.000881715 0)
(-0.000133785 -0.000861475 0)
(-0.00297928 0.000385953 0)
(-0.00212426 2.12932e-06 0)
(-0.00187101 -0.000277413 0)
(-0.00146202 -0.000609236 0)
(-0.00118254 -0.000862426 0)
(-0.000839716 -0.00107754 0)
(-0.000499944 -0.00121332 0)
(-0.00015293 -0.00116873 0)
(-0.00293927 0.000162233 0)
(-0.0025495 -0.000256068 0)
(-0.00227046 -0.000545446 0)
(-0.00188113 -0.000919693 0)
(-0.00151591 -0.00120875 0)
(-0.00109412 -0.00145963 0)
(-0.000648552 -0.00161803 0)
(-0.000202029 -0.00155297 0)
(-0.00319734 -0.00022435 0)
(-0.00282989 -0.000609485 0)
(-0.00253517 -0.000922713 0)
(-0.00212513 -0.00129862 0)
(-0.00172339 -0.00160294 0)
(-0.00125497 -0.00188225 0)
(-0.000746134 -0.00205538 0)
(-0.000234958 -0.00196293 0)
(-0.00347893 -0.000475717 0)
(-0.0032474 -0.000937778 0)
(-0.0029598 -0.00133044 0)
(-0.00256082 -0.00178532 0)
(-0.00209942 -0.00215897 0)
(-0.00155355 -0.00250629 0)
(-0.000926199 -0.00271977 0)
(-0.000299345 -0.00260273 0)
(-0.0039214 -0.000533123 0)
(-0.0036844 -0.00105444 0)
(-0.00338324 -0.00152467 0)
(-0.00295423 -0.00208408 0)
(-0.00244531 -0.00250106 0)
(-0.00182627 -0.00297048 0)
(-0.00109465 -0.00320863 0)
(-0.000360098 -0.00309414 0)
(-0.00442046 -0.000906946 0)
(-0.00423822 -0.00155611 0)
(-0.00398807 -0.00215471 0)
(-0.00353665 -0.0028571 0)
(-0.00298456 -0.00339094 0)
(-0.00227309 -0.00400106 0)
(-0.00136054 -0.00431053 0)
(-0.000483198 -0.00418488 0)
(-0.00512242 -0.000618618 0)
(-0.00493436 -0.00143139 0)
(-0.00468467 -0.00203315 0)
(-0.0041942 -0.0030077 0)
(-0.00359014 -0.00354069 0)
(-0.00276591 -0.00448217 0)
(-0.00167617 -0.00479397 0)
(-0.000615339 -0.00478725 0)
(-0.00582057 -0.001177 0)
(-0.00565226 -0.00218193 0)
(-0.00555772 -0.00299114 0)
(-0.00504465 -0.00420622 0)
(-0.00445187 -0.00495444 0)
(-0.00354775 -0.00618655 0)
(-0.00214134 -0.00664547 0)
(-0.000930727 -0.00670477 0)
(-0.00689312 -0.00039017 0)
(-0.00675698 -0.00166422 0)
(-0.00670687 -0.00229639 0)
(-0.00617191 -0.00403355 0)
(-0.00556689 -0.00463304 0)
(-0.00450331 -0.00664405 0)
(-0.00281844 -0.00703997 0)
(-0.0012726 -0.00761911 0)
(-0.00772252 -0.00115221 0)
(-0.00755973 -0.00269444 0)
(-0.0079022 -0.00365787 0)
(-0.00738888 -0.00579031 0)
(-0.00702712 -0.00678281 0)
(-0.00600542 -0.00942056 0)
(-0.00384745 -0.0101411 0)
(-0.00221139 -0.0111941 0)
(-0.00934437 0.000336687 0)
(-0.00928665 -0.00151588 0)
(-0.00979171 -0.00191873 0)
(-0.00934365 -0.00485587 0)
(-0.00916384 -0.0053261 0)
(-0.00800578 -0.00964979 0)
(-0.00559054 -0.0101627 0)
(-0.00335368 -0.0133112 0)
(-0.0100275 -0.000482375 0)
(-0.0098172 -0.00275813 0)
(-0.0111634 -0.00359136 0)
(-0.0108254 -0.00715863 0)
(-0.0116599 -0.00824357 0)
(-0.0110298 -0.0138602 0)
(-0.00858669 -0.0151132 0)
(-0.00669906 -0.0208545 0)
(-0.0124054 0.00173741 0)
(-0.0124493 -0.000534996 0)
(-0.0141784 -0.000141364 0)
(-0.0141134 -0.00440806 0)
(-0.0157219 -0.00400779 0)
(-0.015412 -0.0125988 0)
(-0.0138498 -0.0132107 0)
(-0.011903 -0.0280413 0)
(-0.012333 0.00117615 0)
(-0.0116674 -0.0017305 0)
(-0.0148381 -0.00159986 0)
(-0.0146915 -0.00679254 0)
(-0.0192524 -0.00679539 0)
(-0.0208369 -0.0173015 0)
(-0.0231534 -0.0186745 0)
(-0.0237754 -0.0479371 0)
(-0.0155671 0.00374875 0)
(-0.0153316 0.00153303 0)
(-0.019353 0.00382387 0)
(-0.0194586 -0.000359685 0)
(-0.0260566 0.00368879 0)
(-0.0273346 -0.00902001 0)
(-0.0343645 -0.00782079 0)
(-0.0274067 -0.0742492 0)
(-0.0139011 0.00376665 0)
(-0.0114193 0.00105743 0)
(-0.0164684 0.00315591 0)
(-0.0139545 -0.00171634 0)
(-0.0254009 0.0021595 0)
(-0.0246396 -0.0119684 0)
(-0.0411722 -0.0176024 0)
(-0.00813714 -0.113926 0)
(-0.0176226 0.0048758 0)
(-0.0160462 0.00365345 0)
(-0.0225937 0.0078734 0)
(-0.0197042 0.00762412 0)
(-0.0327129 0.0170461 0)
(-0.0201844 0.00486607 0)
(-0.0405527 -0.0197141 0)
(0.0253387 -0.121082 0)
(-0.010596 0.00604701 0)
(-0.00234638 0.00459511 0)
(-0.00803383 0.00739822 0)
(0.0100462 0.00611873 0)
(-0.00102101 0.00356757 0)
(0.0362645 -0.007515 0)
(0.0121383 -0.0632928 0)
(0.044282 -0.136257 0)
(0.135309 -0.000188306 0)
(0.156157 0.00108362 0)
(0.138285 -0.0036545 0)
(0.16223 0.000749705 0)
(0.141941 -0.00719129 0)
(0.159496 -0.00919011 0)
(0.122329 -0.0202514 0)
(0.0803197 -0.057206 0)
(-1.80912e-05 -2.00152e-05 0)
(-5.59e-05 -2.25667e-05 0)
(-8.4096e-05 -2.50643e-05 0)
(-9.69139e-05 -2.83105e-05 0)
(-9.46291e-05 -3.01762e-05 0)
(-7.78773e-05 -3.18573e-05 0)
(-4.94773e-05 -3.27545e-05 0)
(-1.56023e-05 -3.07036e-05 0)
(-2.15021e-05 9.52206e-05 0)
(-6.53966e-05 9.07539e-05 0)
(-9.79193e-05 6.65556e-05 0)
(-0.000111339 3.99849e-05 0)
(-0.000107261 1.11898e-05 0)
(-8.8016e-05 -1.19452e-05 0)
(-5.57068e-05 -2.92239e-05 0)
(-1.76325e-05 -3.31611e-05 0)
(-3.28875e-05 6.20301e-05 0)
(-9.88503e-05 5.04278e-05 0)
(-0.000143439 1.72724e-05 0)
(-0.000161845 -2.00886e-05 0)
(-0.000155878 -5.60999e-05 0)
(-0.0001261 -8.57257e-05 0)
(-7.96087e-05 -0.000106941 0)
(-2.50127e-05 -0.000106795 0)
(-4.01906e-05 0.000234896 0)
(-0.000117602 0.000210397 0)
(-0.00016899 0.00013387 0)
(-0.000185072 5.65299e-05 0)
(-0.000173266 -2.2182e-05 0)
(-0.000139477 -8.22424e-05 0)
(-8.71746e-05 -0.000125937 0)
(-2.74359e-05 -0.000132032 0)
(-7.9147e-05 0.000206341 0)
(-0.000222291 0.000168676 0)
(-0.000297965 7.55439e-05 0)
(-0.000317836 -1.89847e-05 0)
(-0.000294561 -0.000108412 0)
(-0.000230204 -0.000178519 0)
(-0.000143106 -0.000228287 0)
(-4.44131e-05 -0.000228981 0)
(-9.88603e-05 0.000555629 0)
(-0.000270104 0.000449542 0)
(-0.000357545 0.000238109 0)
(-0.000369217 6.09109e-05 0)
(-0.000333052 -0.000104483 0)
(-0.00026026 -0.000220724 0)
(-0.000160241 -0.000302379 0)
(-4.99271e-05 -0.000307748 0)
(-0.000238539 0.000546497 0)
(-0.000593812 0.000404036 0)
(-0.000687929 0.000156785 0)
(-0.000659902 -4.62415e-05 0)
(-0.000575761 -0.000231706 0)
(-0.000428736 -0.00036392 0)
(-0.000261083 -0.00045598 0)
(-7.98637e-05 -0.000453101 0)
(-0.000329113 0.00143508 0)
(-0.000717507 0.000937283 0)
(-0.000811698 0.000315881 0)
(-0.000758485 -3.75734e-05 0)
(-0.00065155 -0.000325406 0)
(-0.000486538 -0.000511294 0)
(-0.000294634 -0.00063502 0)
(-9.05641e-05 -0.000628205 0)
)
;

boundaryField
{
    movingWall
    {
        type            fixedValue;
        value           uniform (1 0 0);
    }
    fixedWalls
    {
        type            noSlip;
    }
    frontAndBack
    {
        type            empty;
    }
}


// ************************************************************************* //
