/*--------------------------------*- C++ -*----------------------------------*\
  =========                 |
  \\      /  F ield         | OpenFOAM: The Open Source CFD Toolbox
   \\    /   O peration     | Website:  https://openfoam.org
    \\  /    A nd           | Version:  8
     \\/     M anipulation  |
\*---------------------------------------------------------------------------*/
FoamFile
{
    version     2.0;
    format      ascii;
    class       volVectorField;
    location    "33";
    object      U;
}
// * * * * * * * * * * * * * * * * * * * * * * * * * * * * * * * * * * * * * //

dimensions      [0 1 -1 0 0 0 0];

internalField   nonuniform List<vector> 
2844
(
(1.0051 0.00211041 -0.000165122)
(1.00574 -0.00874057 0.000121173)
(1.01881 -0.00776077 0.000308609)
(1.02169 -0.00643898 -7.9581e-05)
(1.06896 -0.0154778 -0.000286848)
(1.07731 -0.00593838 -0.000436787)
(1.05591 -0.00555517 -0.000196104)
(1.03575 -0.00897567 0.000127395)
(1.01923 -0.0243961 0.000382665)
(1.07027 -0.0289494 0.000434983)
(1.08001 -0.0196453 0.000237943)
(1.05456 -0.0187726 5.19479e-05)
(1.02994 0.0035629 -6.68013e-05)
(0.978303 0.00849181 3.78632e-05)
(0.965975 0.00631758 -1.26139e-05)
(0.931108 0.0113566 -4.6181e-05)
(0.89611 0.00568258 -4.10845e-05)
(0.892257 0.00455067 0.000163323)
(0.850415 -0.0161657 -0.00035955)
(0.915264 -0.0256957 -0.000489392)
(1.00337 -0.012268 -0.000418638)
(1.00458 -0.00321398 0.000275424)
(1.02851 -0.00401125 0.000799709)
(1.02092 -0.0370466 -0.000225969)
(1.07697 -0.0140769 -0.00117458)
(1.08585 0.0207061 -0.00121376)
(1.05599 0.0366525 -0.000600511)
(1.04231 0.0486455 -0.000289242)
(1.01682 -0.0203858 0.00106937)
(1.08404 -0.0200512 0.00112919)
(1.09394 0.0373829 0.000595699)
(1.07974 0.05665 0.000372043)
(1.05974 0.0562903 0.00025683)
(0.993159 0.0492967 0.000171709)
(0.978806 0.0290057 -1.38934e-05)
(0.929908 0.0453765 0.000316138)
(0.892827 0.0236435 4.88968e-05)
(0.878201 0.0317257 0.000856009)
(0.826263 0.00181103 -0.000948158)
(0.915771 -0.0249168 -0.00172455)
(1.00418 -0.00287764 -0.00105117)
(1.02461 -0.0369326 0.00143625)
(1.0319 -0.0268877 0.00253002)
(1.07232 -0.0556629 -0.0017853)
(1.13039 -0.0505112 -0.00416831)
(1.10738 0.0154416 -0.00293429)
(1.10923 0.029105 -0.00115687)
(1.04799 0.0353468 0.000610111)
(1.0158 -0.0896705 0.00373978)
(1.12879 -0.0972671 0.00436208)
(1.14073 -0.0171156 0.00152074)
(1.09775 -0.00517909 0.000501772)
(1.05311 0.0679039 9.34648e-05)
(0.965673 0.0755426 0.00120475)
(0.965826 0.0509334 0.000855943)
(0.9659 0.0806574 -7.04773e-05)
(0.919144 0.0483389 -0.000364202)
(0.90055 0.0528389 0.00296497)
(0.838305 -0.0308886 -0.00755064)
(0.93259 -0.0806759 -0.00955502)
(1.00348 -0.0335009 -0.00167484)
(0.995863 -0.0242818 0.0050268)
(1.08241 -0.0636765 0.00168579)
(1.11785 -0.0898548 -0.00616112)
(1.14436 0.00761136 -0.00656769)
(1.12962 0.0736401 -0.00567226)
(1.11641 0.0805535 -0.00429618)
(1.0915 0.154041 -0.000290057)
(1.0445 -0.137467 0.00529899)
(1.1718 -0.138624 0.00576104)
(1.19048 0.0528758 0.00634551)
(1.20693 0.125115 0.00285293)
(1.13986 0.155582 -0.00193546)
(1.02937 0.122642 -0.00200924)
(1.07587 0.0175161 -0.00144165)
(0.969109 0.0769771 0.00321627)
(0.889064 0.0802405 0.00560996)
(0.841597 0.0720681 0.0090735)
(0.740363 0.0497618 -0.00686524)
(0.911126 -0.0136717 -0.0132657)
(0.968136 0.00825538 -0.00161731)
(1.09789 -0.158574 0.00760547)
(1.1284 -0.144703 -0.00305619)
(1.22236 -0.076574 -0.00795398)
(1.29415 -0.00214147 -0.0130793)
(1.18134 0.0655726 -0.0128785)
(1.24671 0.110792 -0.00828651)
(1.11582 0.116215 0.00104881)
(1.05074 -0.221316 -0.00945412)
(1.38983 -0.248252 0.0100445)
(1.27697 -0.109023 0.0220783)
(1.17977 -0.0121331 0.000145157)
(1.24328 0.23088 -0.0138731)
(1.14661 0.168615 -0.00529833)
(1.06537 0.123102 -0.000893937)
(0.966882 0.207256 -8.97434e-05)
(0.97544 0.0902731 -0.00823467)
(0.967835 0.100015 -0.00413922)
(0.869699 -0.0176637 -0.0125445)
(0.912369 -0.121423 -0.0163344)
(0.941497 -0.0842117 0.000581844)
(1.11976 -0.171027 0.00581356)
(1.17775 -0.192171 -0.0271898)
(1.3837 -0.0886266 0.00749763)
(1.37266 0.130797 0.00823627)
(1.2288 0.232516 -0.0228589)
(1.30964 0.128377 -0.0181022)
(1.15841 0.393279 -0.0144001)
(1.09748 -0.234603 -0.0193983)
(1.36353 -0.289325 0.00141798)
(1.43174 0.0430867 0.00786079)
(1.42102 0.147217 -0.0148652)
(1.28921 0.276651 0.0249449)
(0.891333 0.312249 0.0231156)
(0.830257 0.144438 -0.0354675)
(1.12158 0.163559 -0.0287053)
(1.17613 0.191488 0.0097227)
(1.13678 0.25326 0.0125019)
(0.888364 0.235534 0.00345396)
(0.874502 0.0322293 0.00402716)
(1.03738 -0.0754002 0.022746)
(1.08555 -0.360363 -0.0172722)
(1.22187 -0.247753 -0.0389881)
(1.5745 -0.425891 -0.00492924)
(1.69387 -0.18244 0.0384748)
(1.56177 0.169522 0.0777916)
(1.45988 0.39286 -0.0502107)
(1.76975 0.426992 -0.000331152)
(1.04034 -0.255118 0.0688427)
(1.29723 -0.448359 -0.0796982)
(1.7313 -0.0643469 -0.048399)
(1.57391 0.140997 0.0582362)
(1.26373 0.405793 0.0627202)
(1.07931 0.418733 -0.0696067)
(1.43793 0.195665 -0.0539111)
(1.21677 0.132439 0.0290699)
(0.990631 0.0143827 0.0188531)
(1.02376 0.251564 0.00420608)
(0.954823 0.107921 0.00703215)
(0.946103 -0.220567 0.0044673)
(0.980669 -0.354288 0.0104845)
(1.03692 -0.113782 -6.1905e-05)
(1.61204 -0.248778 0.0116093)
(2.37763 -0.781372 0.0144036)
(2.14803 -0.245206 -0.0201679)
(1.33015 0.0899208 -0.0157164)
(1.36804 0.238499 -0.0496167)
(1.25274 0.582807 0.13339)
(0.924161 -0.0394614 -0.190498)
(1.13291 -0.26634 -0.149764)
(1.49536 0.0639763 -0.075974)
(1.36635 -0.0110684 0.00966387)
(1.51916 0.301366 0.0313863)
(1.51489 0.555717 0.0443579)
(1.54072 0.281616 0.012011)
(1.27549 0.296688 -0.0889422)
(1.33198 0.239289 -0.0679358)
(1.24612 0.246915 -0.00285502)
(1.56601 0.276272 -0.0445178)
(1.52399 0.0682923 -0.0365554)
(0.861332 -0.143559 -0.0635744)
(1.15764 -0.661916 0.00735661)
(1.22533 -1.72229 0.0387735)
(0.574461 0.388273 -0.0607163)
(0.424968 0.590697 -0.0317069)
(0.38173 0.830325 -0.113008)
(0.380552 -0.538626 0.0300188)
(0.964574 -0.0309564 0.00607385)
(0.488546 -0.274882 0.0758665)
(0.630217 -0.200552 0.057097)
(0.934736 0.00305855 0.018435)
(1.13188 0.381181 -0.0329232)
(1.35031 0.747381 -0.0153156)
(1.16455 0.292832 0.0317204)
(1.10765 0.0786166 -0.0608714)
(1.36167 0.29559 -0.090205)
(1.14614 0.100208 -0.00799214)
(0.716944 0.0663976 -0.0684348)
(1.77601 -0.766429 0.0602255)
(-0.306259 -0.205347 -0.225605)
(0.00945642 0.0513279 -0.0132278)
(0.453859 1.13313 -0.119205)
(0.0532496 -0.176517 0.133425)
(-0.0208902 -0.855155 -0.0457407)
(0.208796 -0.0534027 0.0619441)
(0.0073002 -0.574373 0.011842)
(0.200148 -0.626824 0.00356689)
(0.396702 -0.0245593 0.0282396)
(0.711807 0.0726227 0.0357241)
(1.07818 0.275009 0.0531071)
(1.02441 0.262355 -0.0561195)
(1.10554 0.522194 -0.119055)
(0.99092 0.518474 -0.00711299)
(0.898705 0.0215409 0.0375897)
(0.271587 -0.00252729 0.0328376)
(0.952363 -0.844283 -0.0868598)
(0.00954715 -0.00254202 -0.00538955)
(0.179219 1.11126 -0.0475353)
(0.663047 0.254124 0.0829808)
(-0.295216 -0.582004 -0.0430927)
(0.206531 -0.231592 -0.116029)
(0.72882 -0.262034 -0.136675)
(0.683763 -0.543972 -0.111085)
(0.615097 -0.491331 0.0834909)
(0.603937 -0.329863 0.0373798)
(0.864419 0.223683 -0.0967744)
(0.885825 0.523308 -0.089046)
(0.702637 0.668846 -0.0238085)
(0.88439 0.156153 0.046847)
(1.04549 -0.208381 0.0307188)
(1.31451 -0.0184707 -5.34741e-05)
(-0.0295182 -0.520452 -0.194298)
(1.16013 1.82548 0.133637)
(-0.0784424 0.217394 -0.0453465)
(0.15061 0.29281 0.0152626)
(1.30724 -0.321628 0.0287575)
(0.600132 -0.396657 0.0856469)
(0.576991 0.173862 -0.0435938)
(0.93098 -0.139016 -0.0207401)
(1.01192 -0.16435 -0.194029)
(1.58946 -0.503262 -0.0831253)
(0.868196 -0.133286 0.0595151)
(0.731998 0.611771 -0.0383917)
(0.6711 0.647636 0.0103977)
(0.496791 0.445631 0.0508266)
(0.910765 -0.102867 0.0103934)
(1.06821 -0.282062 -0.0058418)
(1.02125 0.193315 0.00765386)
(0.979844 0.825639 -0.0261631)
(0.96368 0.554907 -0.0280134)
(0.192488 -0.161245 0.0210775)
(1.43125 -0.362452 -0.00455064)
(1.29518 0.163203 -0.0072391)
(1.71547 -0.0923785 -0.0814173)
(1.84222 -0.796291 -0.00583629)
(1.46778 -0.502638 0.0822318)
(1.19623 -0.244437 0.0775921)
(0.867321 0.00385766 0.0182661)
(1.59822 -0.287744 -0.120713)
(1.68728 -0.256993 -0.0555122)
(0.884159 0.634849 0.0335067)
(0.854079 0.474497 0.0467794)
(1.01379 0.0886459 0.0438355)
(1.08637 -0.264631 0.0190333)
(1.03428 -0.262169 -0.00786343)
(1.04286 0.00914176 0.00822623)
(0.87534 0.422834 0.0440119)
(1.42401 0.694752 -0.0337639)
(2.06739 0.51067 0.0107857)
(2.05447 -0.433438 -0.0100795)
(1.72145 -0.102214 0.0249067)
(1.54668 -0.53702 0.0230667)
(1.43747 0.101504 -0.0497039)
(1.94488 -0.117713 -0.026841)
(1.30226 -0.199812 0.0309109)
(0.842346 0.0334215 0.0351413)
(0.859389 -0.14693 -0.0172757)
(1.10196 -0.457131 0.00993751)
(1.38089 -0.277355 0.0136045)
(0.867487 0.549752 -0.0196153)
(0.540152 0.835491 0.0152725)
(1.02206 0.205709 -0.0342074)
(1.3077 -0.0100331 -0.0425754)
(1.34314 -0.188768 0.00308978)
(1.09602 -0.194691 0.00535418)
(1.02889 0.14312 -0.00106799)
(0.942999 0.18091 0.00966584)
(1.22491 0.283884 0.00953762)
(1.59104 0.142816 0.00261353)
(1.54196 -0.174453 0.0444846)
(1.32902 -0.199758 0.000976733)
(1.4578 -0.104283 -0.0746949)
(1.61658 0.0465135 -0.00879741)
(1.4758 -0.0167534 0.0491871)
(1.08089 -0.300441 0.0274084)
(0.929003 -0.250603 0.0045577)
(1.1266 -0.315448 -0.0324526)
(1.15391 -0.394391 -0.0462724)
(1.01482 -0.156332 5.44617e-05)
(0.667518 0.484318 0.00477463)
(0.925252 0.390302 0.00411746)
(1.09607 0.139564 -0.0154092)
(1.17082 0.132629 -0.0370943)
(1.25112 -0.161276 -0.0121571)
(1.08898 -0.164152 0.00520395)
(1.00205 0.0632978 0.000565187)
(1.07983 0.148044 -0.00524817)
(1.1231 0.110306 0.0148305)
(1.25764 0.102604 0.0135742)
(1.26172 0.00853783 -0.0214031)
(1.31447 0.0239534 -0.0201085)
(1.30383 -0.125298 -0.00537663)
(1.28912 0.0258649 0.0136935)
(1.27988 -0.0900761 0.0284131)
(1.09166 -0.146497 0.00660094)
(1.08122 -0.0602481 -0.0106583)
(1.09586 -0.056285 -0.0098665)
(0.992009 -0.0285974 -0.011514)
(0.847485 0.0538268 0.000115289)
(0.824622 0.437616 0.00348454)
(1.17348 0.336566 0.0034429)
(1.1821 0.0556885 0.0246563)
(1.1547 0.0457809 0.0181543)
(1.12723 -0.0808695 -0.00193334)
(1.02988 -0.0959188 0.000979218)
(0.992789 0.0681791 0.000299173)
(1.05724 0.0753365 0.00104994)
(1.07547 0.0331345 0.000683914)
(1.15102 0.0702731 -0.00184105)
(1.16794 0.0023944 -0.00811568)
(1.26323 -0.0461486 -0.00606457)
(1.22042 -0.0772579 0.0108382)
(1.08255 -0.0764182 0.0115441)
(1.11728 -0.0862285 -0.000352078)
(1.03367 -0.142412 -0.000275146)
(1.00593 -0.117108 0.00379129)
(0.963315 -0.155338 0.00391421)
(0.929613 -0.118353 0.0047311)
(0.87708 -0.0191785 0.00629169)
(0.915665 0.178526 0.0154277)
(1.10084 0.0762436 0.0129979)
(1.10293 -0.0342057 -0.00105871)
(1.161 0.0165607 0.00860065)
(1.06331 -0.0663778 0.010452)
(0.976101 -0.0814832 -0.00179996)
(0.991896 0.0254752 -0.000282341)
(1.06004 0.0482231 0.00116078)
(1.05159 0.0487431 0.000734186)
(1.09284 0.0676541 -0.00328144)
(1.14962 0.0372921 -0.00377184)
(1.14534 0.0187093 0.00105431)
(1.11774 -0.0591335 0.00194752)
(1.06358 -0.0134923 0.00228403)
(1.06955 -0.0105884 5.58666e-05)
(1.02385 -0.0526211 -0.00250321)
(1.00916 -0.0301398 -0.00112283)
(0.969854 -0.0119398 -0.000174658)
(0.916791 0.0146566 -0.00047928)
(0.897411 0.0291651 0.00104716)
(0.935559 0.115932 0.00604479)
(1.04181 0.0981868 0.00546456)
(0.989437 0.0353537 0.0042689)
(1.01324 0.0129907 0.000442624)
(1.01779 -0.0256794 -0.000597089)
(0.972182 -0.00954459 0.000418922)
(0.998413 0.0239376 -9.74757e-05)
(1.0293 0.0164378 0.000578279)
(1.03473 0.00762738 -0.000156518)
(1.07349 0.024431 -0.00100633)
(1.10048 -0.00727251 -0.000497311)
(1.11162 -0.0293265 0.000366349)
(1.09779 -0.0443603 0.000520153)
(1.03313 -0.0440837 -0.000303996)
(1.05565 -0.0450196 -0.000166972)
(1.0078 -0.0661896 0.000532915)
(0.965364 -0.059544 0.000395655)
(0.937347 -0.070359 -2.16516e-05)
(0.923206 -0.0524227 -0.000160804)
(0.918133 -0.0308566 8.08307e-05)
(0.918594 0.0132822 0.000679567)
(1.00089 -0.00423555 0.00043491)
(0.989706 -0.0313102 4.21756e-05)
(1.01052 -0.00616716 0.000161909)
(0.986204 -0.0355888 0.000297769)
(0.954184 -0.0379719 -0.000131226)
(0.998103 0.00109985 7.05546e-06)
(1.02787 0.0102377 0.000165538)
(1.03317 0.017875 -0.000194717)
(1.06329 0.0204659 -0.000275254)
(1.08863 0.0221016 4.63761e-05)
(1.0842 0.0212236 0.000189151)
(1.08112 0.00696184 6.90773e-05)
(1.03573 0.0142345 -6.89725e-05)
(1.04205 0.0149822 -7.42379e-05)
(1.00215 0.00959515 -1.133e-05)
(0.973532 0.0162178 -8.21066e-06)
(0.943614 0.0239139 -3.87527e-05)
(0.923278 0.0311843 -0.000117937)
(0.920785 0.0307284 -5.63022e-06)
(0.921254 0.0396416 0.000107928)
(0.982913 0.0388863 0.000138513)
(0.963869 0.0289327 0.000125159)
(0.984075 0.017041 -6.50503e-05)
(0.979707 0.0128324 9.6838e-07)
(0.952222 0.0155526 -4.07509e-06)
(1.00515 0.00202686 -0.000292459)
(1.00593 -0.00876925 0.000175606)
(1.01864 -0.0074379 0.000601327)
(1.02144 -0.00632933 -5.8372e-05)
(1.06886 -0.0161378 -0.000555871)
(1.07742 -0.00634661 -0.000866651)
(1.05619 -0.00576333 -0.000453392)
(1.03589 -0.00921669 0.00016459)
(1.01914 -0.0239195 0.000717798)
(1.07009 -0.0285788 0.000846612)
(1.07989 -0.0195459 0.000481073)
(1.05442 -0.0185731 0.00010893)
(1.02993 0.00375493 -0.000126937)
(0.978318 0.00842449 6.65325e-05)
(0.965946 0.00627404 -3.18201e-05)
(0.931116 0.011478 -6.29184e-05)
(0.896196 0.0056303 -0.000131067)
(0.892171 0.0046719 0.000410121)
(0.850204 -0.0162315 -0.00109972)
(0.915388 -0.0259757 -0.00147541)
(1.00352 -0.0138462 -0.000715047)
(1.00535 -0.00188535 0.000291407)
(1.02762 -0.0012589 0.00150393)
(1.02 -0.0379814 9.68678e-06)
(1.0774 -0.016376 -0.00202053)
(1.08706 0.0167404 -0.00246487)
(1.05675 0.0349819 -0.00123851)
(1.04273 0.05026 -0.000759029)
(1.01558 -0.0170241 0.00184222)
(1.08253 -0.0164805 0.00218571)
(1.09322 0.0393782 0.00134352)
(1.07927 0.0569405 0.000857005)
(1.05964 0.0553227 0.000514692)
(0.992946 0.0496723 0.000252705)
(0.978447 0.0290054 -0.000471443)
(0.929556 0.0446455 0.000488819)
(0.892869 0.0234757 -9.0494e-05)
(0.877574 0.0332412 0.00222385)
(0.826061 -0.00136994 -0.00348401)
(0.916945 -0.0290986 -0.00532569)
(1.00471 -0.00765853 -0.00151333)
(1.02764 -0.0334015 0.00171797)
(1.02722 -0.0173531 0.00417935)
(1.07041 -0.0589585 -0.00193808)
(1.13274 -0.063998 -0.00685094)
(1.11003 0.00449248 -0.00545788)
(1.11489 0.0241355 -0.00356278)
(1.04709 0.0334334 -0.000774227)
(1.00622 -0.0774799 0.00645832)
(1.12321 -0.0869301 0.00859924)
(1.14034 -0.0126673 0.00314225)
(1.09569 -0.00218262 0.000826142)
(1.05319 0.0701956 0.000757395)
(0.966966 0.0771351 0.00266839)
(0.965714 0.051006 0.00189009)
(0.963375 0.0833317 -8.58914e-05)
(0.919239 0.0490876 -0.00171735)
(0.898268 0.060773 0.00481519)
(0.832488 -0.0390914 -0.0172681)
(0.936262 -0.096063 -0.0209677)
(1.00795 -0.0471745 -0.00260224)
(0.996405 -0.00591645 0.00913003)
(1.06636 -0.0356928 0.00188126)
(1.1191 -0.112543 -0.0112613)
(1.15874 -0.0349529 -0.00791272)
(1.1524 0.0385102 -0.0101096)
(1.12232 0.0706167 -0.0115676)
(1.0768 0.173054 -0.00193366)
(1.01552 -0.0982948 0.00397208)
(1.14849 -0.103477 0.0101046)
(1.16897 0.0664837 0.0147817)
(1.19844 0.130165 0.00516018)
(1.14663 0.152459 -0.00493478)
(1.02227 0.133594 -0.00582979)
(1.06338 0.0283138 -0.0081882)
(0.966394 0.0747065 0.00422568)
(0.89078 0.0768722 0.0142525)
(0.845881 0.104985 0.015088)
(0.741625 -0.02684 -0.0151988)
(0.90794 -0.114316 -0.0214115)
(0.977724 -0.0163616 -0.00226239)
(1.08901 -0.0903555 0.0114717)
(1.10311 -0.12025 0.00841842)
(1.23418 -0.162615 -0.0118828)
(1.33286 -0.0950787 -0.020599)
(1.22031 0.0129384 -0.0143836)
(1.2502 0.0959231 -0.0079059)
(1.09503 0.131437 -0.0102414)
(0.971956 -0.162253 -0.0483679)
(1.28224 -0.202084 -0.00292983)
(1.25281 -0.0620143 0.0365038)
(1.23802 -0.00372118 2.45989e-05)
(1.25314 0.217286 -0.0202311)
(1.11935 0.169618 -0.00843911)
(1.00945 0.108384 -1.89227e-05)
(0.933184 0.227703 -0.00479461)
(0.934246 0.138397 -0.0215319)
(0.954464 0.199994 -0.0371553)
(0.81939 -0.0852793 -0.0275451)
(0.85065 -0.262829 -0.00874615)
(0.981041 -0.106903 0.00795868)
(1.08438 -0.0689615 -0.0170152)
(1.13881 -0.216133 -0.0140324)
(1.4315 -0.218438 0.0483017)
(1.47935 -0.0383286 0.0173724)
(1.38089 0.114557 -0.00522376)
(1.27719 0.0969874 -0.045407)
(1.03462 0.48599 -0.026993)
(0.912542 -0.226305 -0.039734)
(1.18061 -0.246469 -0.0295806)
(1.45153 0.100204 -0.029572)
(1.46187 0.0987702 -0.0128765)
(1.2781 0.208463 0.0507688)
(1.06473 0.330061 0.0234235)
(1.0287 0.156125 -0.0526914)
(1.17244 0.147278 -0.0478644)
(1.1783 0.108476 0.0102502)
(1.1296 0.242959 0.0068911)
(0.843281 0.0864594 0.0269115)
(0.804221 -0.188027 0.0291424)
(1.14144 -0.0646533 0.0388003)
(0.988634 -0.219696 -0.0456621)
(1.32598 -0.546956 -0.0310468)
(1.63027 -0.612416 -0.0316044)
(1.75757 -0.153637 0.154353)
(1.51602 0.0869429 0.0767069)
(1.529 0.490687 -0.0682448)
(1.34463 0.415646 0.0687476)
(0.954486 -0.40038 -0.0279193)
(1.15272 -0.601916 -0.0788056)
(1.38303 -0.146242 -0.0284623)
(1.34027 0.0420621 0.0888177)
(1.52693 0.484579 0.0706134)
(1.4258 0.424524 -0.0490808)
(1.4251 -0.0394574 -0.0269587)
(1.15186 0.0316699 0.0480505)
(1.1132 0.203844 0.0123878)
(1.14407 0.465158 0.0121117)
(1.05616 0.130945 0.0107055)
(0.935674 -0.279293 -0.00548761)
(1.14206 -0.0974311 0.00649827)
(1.01353 -0.342868 0.00199708)
(1.83464 -0.899707 0.0688846)
(2.00648 -0.777531 0.0462805)
(1.9868 0.0617365 -0.0947513)
(1.49453 0.295783 -0.0129135)
(1.10981 -0.0319326 0.0550042)
(2.07969 0.974021 -0.0551665)
(1.34634 0.412664 -0.203498)
(0.877452 -0.620313 0.0349168)
(1.09718 -0.138125 0.0137918)
(1.02773 0.0432184 0.0995729)
(1.25041 0.340326 0.128588)
(1.59432 0.336637 0.0796699)
(1.68241 0.301476 -0.0200281)
(1.20238 0.463092 -0.063417)
(1.05973 0.120569 -0.0188223)
(1.24558 0.295195 -0.00329704)
(1.42463 0.318384 -0.0885596)
(1.27266 -0.00995761 -0.0537402)
(1.32638 -0.129785 -0.120646)
(1.02209 -0.905106 0.0530933)
(1.73845 -1.45984 0.0989077)
(0.402602 0.140026 -0.212173)
(0.883497 1.00263 -0.122845)
(0.220067 0.0598349 0.125844)
(0.224535 -0.986016 0.0649814)
(0.377717 -0.284059 -0.00526576)
(0.426296 -0.132116 0.165234)
(0.870285 0.0652037 0.152144)
(1.09287 0.141882 0.0385702)
(1.13072 0.318887 -0.00155024)
(1.30603 0.419429 0.0164891)
(1.08416 0.144882 0.0129921)
(0.938722 0.246683 -0.084239)
(0.830671 0.0634798 -0.00563971)
(0.872047 -0.193761 0.0651428)
(1.01979 0.0660122 -0.0339252)
(0.910859 -1.09343 -0.110578)
(0.495548 -0.484473 -0.278132)
(-0.00361713 0.0140267 -0.106563)
(0.102869 0.930441 -0.00672337)
(0.11729 -0.0939714 0.177715)
(0.350587 -0.660576 0.0182205)
(-0.275322 -0.128626 -0.00228515)
(0.112955 -0.284695 -0.0164629)
(0.463719 -0.121861 0.00640423)
(0.580339 0.162017 -0.0151888)
(0.916578 0.119666 0.0241694)
(1.14294 0.458357 0.0400944)
(0.7983 0.422635 -0.0439432)
(0.670747 0.371708 -0.0398994)
(0.724934 0.144024 0.11074)
(0.903196 -0.150473 0.0815605)
(1.07497 0.195441 -0.158338)
(1.66326 0.0279587 -0.265743)
(0.0131754 -0.0145493 -0.0557263)
(-0.0998587 0.822731 0.132394)
(0.484688 0.145484 0.082532)
(0.481926 -0.806621 0.0204555)
(0.184851 -0.0577158 -0.266956)
(0.518617 -0.678689 -0.111053)
(0.136426 -0.361399 -0.0137168)
(0.461364 -0.156945 0.097432)
(0.734652 -0.0262218 -0.0334212)
(0.628072 0.540238 -0.0916709)
(0.599601 0.309383 0.00422176)
(0.522074 0.196659 0.0489828)
(0.887597 -0.141686 0.0462482)
(1.07224 -0.305831 0.0237233)
(1.33621 0.0749437 -0.0404862)
(0.350367 0.53346 -0.382032)
(0.884326 1.53065 0.69938)
(-0.125447 0.12334 -0.0977646)
(0.133892 0.31635 0.0939592)
(1.11924 -0.200645 0.014618)
(0.977916 -0.603115 0.133203)
(0.996264 -0.372395 0.0380328)
(1.67373 -0.449085 -0.0974243)
(0.820226 -0.356352 -0.194616)
(0.748558 -0.0855172 0.080035)
(0.470805 0.165314 0.0989237)
(0.492907 0.480788 -0.0349523)
(0.619197 0.388599 0.0609721)
(0.670535 0.223066 0.0800622)
(1.09335 -0.132408 -0.0147842)
(1.11961 -0.221332 -0.0257431)
(0.918863 0.320917 0.00924861)
(1.33466 0.33785 -0.200995)
(1.1247 0.343597 -0.110785)
(0.213367 -0.166933 0.130719)
(1.51597 -0.46303 0.0298501)
(1.29078 0.193956 -0.06802)
(1.7777 -0.352738 -0.0824898)
(1.70177 -0.841143 -0.0165416)
(1.27908 -0.496531 0.128072)
(1.26361 -0.240719 0.10069)
(1.26882 -0.136429 -0.0498323)
(1.52488 -0.225565 -0.148482)
(1.19894 0.0550368 0.00552113)
(0.631045 0.557869 0.0889007)
(0.944998 0.293828 0.0622108)
(1.06408 0.00268639 0.03882)
(1.19571 -0.363024 0.00839505)
(1.11916 -0.316318 -0.0122404)
(1.00416 0.087033 0.0237455)
(1.12328 0.271855 0.0449272)
(1.50496 0.386676 -0.17497)
(2.03861 0.265948 0.0381121)
(1.8947 -0.304129 -0.00161971)
(1.70268 -0.0320999 0.0158124)
(1.48867 -0.311776 -0.024688)
(1.46281 0.0197334 -0.0239668)
(1.59352 -0.343511 0.05132)
(0.938946 -0.268887 0.0725259)
(0.856386 -0.012177 0.011591)
(0.889469 -0.199994 -0.0331343)
(0.900119 -0.394711 -0.00634701)
(1.16416 -0.219502 0.00842794)
(0.776025 0.539582 0.0170767)
(0.696225 0.698353 0.0436658)
(1.27751 0.21278 -0.0516226)
(1.2748 0.119824 -0.0646425)
(1.26041 -0.132306 0.0199641)
(1.14069 -0.195969 0.0250524)
(1.02964 0.151269 0.00182183)
(1.04113 0.192473 0.0173827)
(1.19308 0.116636 0.0121026)
(1.47198 0.0916888 -0.0272738)
(1.49859 0.00502014 -0.0113344)
(1.45766 -0.118134 -0.0403767)
(1.48345 -0.161543 -0.117416)
(1.37632 -0.121733 -0.00129207)
(1.41353 -0.169382 0.106425)
(1.19826 -0.272649 0.0752221)
(1.15741 -0.185461 0.0143257)
(1.29387 -0.233534 -0.0618204)
(1.02588 -0.241699 -0.0741421)
(0.818801 -0.0851265 0.015745)
(0.719674 0.379852 0.0392747)
(1.0595 0.210553 0.0325284)
(1.25348 -0.121336 0.00652955)
(1.2434 -0.0500175 -0.0312908)
(1.27 -0.226616 -0.00567925)
(1.14587 -0.206397 0.00987351)
(1.0001 0.0628957 0.000197271)
(1.09802 0.121032 0.00249704)
(1.09501 0.105479 0.0193489)
(1.27039 0.159356 -0.0130324)
(1.30385 0.0604851 -0.0662785)
(1.31504 0.0106811 -0.0459791)
(1.25844 -0.227602 0.00116552)
(1.20271 -0.0355646 0.0336951)
(1.21023 -0.0856704 0.0439625)
(1.08086 -0.170566 -0.000285315)
(1.0571 -0.109208 -0.0295723)
(1.04589 -0.100659 -0.0200088)
(0.962438 -0.065118 -0.0110729)
(0.844123 0.0015955 0.00402184)
(0.891829 0.278052 0.0128586)
(1.15278 0.201576 0.0102147)
(1.11634 0.0317423 0.0459407)
(1.16012 -0.00263093 0.0343377)
(1.0626 -0.115682 -0.000807582)
(0.929157 -0.073527 0.00352494)
(0.995299 0.0702099 0.000448708)
(1.05746 0.058338 0.00620016)
(1.06269 0.0337294 -0.00172354)
(1.15385 0.107185 -0.0141913)
(1.20422 0.0266113 -0.0208307)
(1.25693 -0.0654351 -0.0106981)
(1.18373 -0.0925809 0.0233575)
(1.08087 -0.0931356 0.0206645)
(1.13219 -0.0856754 -0.00933282)
(1.03774 -0.120552 -0.00932084)
(1.00151 -0.106284 0.0016804)
(0.957347 -0.149736 0.00152669)
(0.916701 -0.109339 0.00224199)
(0.880268 -0.0315007 0.00603172)
(0.911847 0.113277 0.0227353)
(1.09621 0.02343 0.0156923)
(1.08292 -0.0712576 -0.00793646)
(1.11064 0.0146293 0.0130801)
(1.08301 -0.0649379 0.0171249)
(1.0065 -0.0866641 -0.00385388)
(0.993882 0.0257481 -0.000548072)
(1.05789 0.0427474 0.00326706)
(1.04634 0.0520339 -0.000189673)
(1.0992 0.0765392 -0.00882835)
(1.15526 0.0392593 -0.00764574)
(1.14121 0.0148098 0.00179394)
(1.11328 -0.0621403 0.00409635)
(1.06161 -0.0104338 0.00198418)
(1.07013 -0.010674 -0.0021247)
(1.0231 -0.0582784 -0.00434028)
(1.00819 -0.033158 -0.00222087)
(0.970592 -0.0112817 -3.42311e-05)
(0.919996 0.0162218 -0.00147862)
(0.901689 0.0281667 0.000728247)
(0.933058 0.108496 0.00749236)
(1.03578 0.093998 0.00732498)
(0.9846 0.0354663 0.00671624)
(1.01397 0.0121331 -0.000259474)
(1.01507 -0.0284692 -0.00140625)
(0.968026 -0.00848647 4.65565e-05)
(0.99862 0.0237865 -0.000204435)
(1.02843 0.0151272 0.00131858)
(1.03475 0.00930508 -0.000520624)
(1.07503 0.0266825 -0.00236903)
(1.10069 -0.00787574 -0.00103769)
(1.1104 -0.0309772 0.000743593)
(1.09754 -0.0448014 0.000856698)
(1.03414 -0.043596 -0.000743732)
(1.05586 -0.0444287 -0.000799915)
(1.00707 -0.0660284 0.000447901)
(0.96507 -0.0594164 0.000309651)
(0.937424 -0.0698017 -0.000224356)
(0.92363 -0.0512394 -0.000536743)
(0.918758 -0.0308905 -2.22684e-05)
(0.918486 0.01207 0.000604912)
(1.00046 -0.00563882 0.000410871)
(0.989153 -0.0325362 1.02669e-05)
(1.01056 -0.00551959 -0.000138154)
(0.986583 -0.0355495 0.000496702)
(0.954327 -0.0380212 -0.000207137)
(0.998104 0.00105494 2.28139e-05)
(1.02777 0.0101672 0.00035042)
(1.03323 0.0180568 -0.000446322)
(1.06346 0.0205541 -0.000611748)
(1.08861 0.0220327 9.99466e-05)
(1.08405 0.0212283 0.000364321)
(1.0811 0.00702694 0.000134929)
(1.03582 0.0143293 -0.00024503)
(1.04207 0.0149622 -0.000269697)
(1.0021 0.00949499 -1.47448e-05)
(0.973522 0.0161438 -3.322e-05)
(0.943618 0.0238652 -0.000107853)
(0.923355 0.0311513 -0.000301226)
(0.9209 0.0307234 -5.05555e-05)
(0.921286 0.0395828 2.63112e-05)
(0.982891 0.0388753 0.000143386)
(0.963771 0.0290013 0.000208229)
(0.984086 0.0170119 -0.000230661)
(0.979735 0.0127268 -3.0294e-06)
(0.952216 0.0155802 -2.38743e-05)
(1.00517 0.00196885 -0.000127771)
(1.00611 -0.00885142 5.47861e-05)
(1.01851 -0.00713031 0.000293205)
(1.02117 -0.00611527 2.18793e-05)
(1.06874 -0.0166905 -0.000268717)
(1.0775 -0.00677086 -0.000430524)
(1.05645 -0.00595822 -0.000257519)
(1.03605 -0.00948263 3.79004e-05)
(1.01908 -0.0235316 0.000336201)
(1.06993 -0.0282232 0.000411773)
(1.07975 -0.0194062 0.000242752)
(1.05428 -0.0183467 5.67912e-05)
(1.02993 0.00391215 -6.02694e-05)
(0.978342 0.00832574 2.91755e-05)
(0.96594 0.00607517 -1.92911e-05)
(0.931118 0.0115153 -1.60826e-05)
(0.896304 0.00548742 -9.09242e-05)
(0.891996 0.00496707 0.000251766)
(0.849774 -0.016753 -0.00075073)
(0.915646 -0.0268461 -0.00100013)
(1.00352 -0.0151303 -0.000300573)
(1.00621 -0.00120445 2.23249e-05)
(1.02714 0.00134635 0.000709674)
(1.0187 -0.0380215 0.000245735)
(1.07736 -0.0183852 -0.000839375)
(1.08809 0.0128346 -0.00125764)
(1.0576 0.0328145 -0.000632783)
(1.04332 0.0510988 -0.000454752)
(1.01458 -0.0142417 0.000791786)
(1.08105 -0.0130272 0.00106313)
(1.09236 0.0415321 0.000743233)
(1.0787 0.0570439 0.000481353)
(1.0595 0.0545373 0.000253517)
(0.992716 0.0500725 8.97192e-05)
(0.978251 0.0290413 -0.000456542)
(0.929205 0.0444049 0.000174046)
(0.893069 0.0227929 -0.000145955)
(0.876453 0.0357385 0.00140995)
(0.825112 -0.00847597 -0.00261977)
(0.919149 -0.0382721 -0.00369477)
(1.00396 -0.0111632 -0.000490439)
(1.03153 -0.032978 0.000337166)
(1.02589 -0.00818942 0.00169646)
(1.06495 -0.0568644 -0.000136209)
(1.13146 -0.0741079 -0.00265967)
(1.11173 -0.00723284 -0.00251342)
(1.12111 0.0190565 -0.00238095)
(1.04865 0.0305435 -0.00129927)
(0.997582 -0.068245 0.0031458)
(1.11743 -0.0768648 0.00434745)
(1.13845 -0.00659897 0.00165016)
(1.09278 0.0017469 0.000379223)
(1.05246 0.0723085 0.000769915)
(0.967397 0.0778238 0.00157317)
(0.96728 0.0466317 0.00108912)
(0.962878 0.0845425 5.29831e-05)
(0.921337 0.0479854 -0.00115968)
(0.896495 0.0751915 0.00152249)
(0.820191 -0.0664608 -0.00907103)
(0.938135 -0.134074 -0.0104944)
(1.00666 -0.0553007 -0.00111821)
(1.00128 -0.0023337 0.0044895)
(1.06943 -0.0117172 0.000439783)
(1.1087 -0.113592 -0.00547739)
(1.15429 -0.0646975 -0.00212053)
(1.17195 0.00325652 -0.00504788)
(1.13891 0.0473202 -0.00644884)
(1.07335 0.173501 -0.000344692)
(0.990398 -0.0630016 0.00243348)
(1.11738 -0.0666503 0.00807275)
(1.14247 0.0817454 0.00906904)
(1.1955 0.132097 0.0012888)
(1.15509 0.156017 -0.00406193)
(1.02543 0.146463 -0.00469812)
(1.05586 0.0401011 -0.00696505)
(0.949697 0.0740862 0.00118317)
(0.880941 0.0657541 0.00894675)
(0.849144 0.132372 0.00404564)
(0.715013 -0.124269 -0.00601928)
(0.88719 -0.234607 -0.00521812)
(0.978101 -0.0325205 -0.0027446)
(1.08374 -0.0532654 0.00770081)
(1.10663 -0.0923362 0.0122326)
(1.26083 -0.203547 -0.00679333)
(1.32255 -0.14682 -0.0118436)
(1.24144 -0.0553629 -0.00695734)
(1.28337 0.0464602 -0.00325064)
(1.11263 0.155945 -0.0109863)
(0.947273 -0.118934 -0.0298291)
(1.16461 -0.125457 0.000247249)
(1.19221 0.00326275 0.0263306)
(1.26168 -0.0125462 0.00982539)
(1.27821 0.1815 -0.00305131)
(1.13228 0.143391 -0.0033712)
(0.99454 0.0554501 -0.000547213)
(0.947714 0.237246 -0.00428077)
(0.967471 0.19775 -0.0144481)
(0.980486 0.268108 -0.0268294)
(0.756659 -0.159291 -0.0114391)
(0.792156 -0.365668 0.00323949)
(0.985248 -0.129073 -0.00397652)
(1.08809 -0.0174277 -0.000659353)
(1.09963 -0.107725 0.00743765)
(1.50418 -0.252499 0.0269727)
(1.53 -0.146688 -0.00684642)
(1.38148 -0.00671167 0.00261243)
(1.40965 0.0684223 -0.0411965)
(0.999029 0.427773 -0.0120678)
(0.881315 -0.400293 -0.0126328)
(1.1543 -0.226788 -0.0182346)
(1.36025 0.194545 -0.0261931)
(1.3232 0.0861346 0.00259586)
(1.27783 0.178383 0.0367952)
(1.23261 0.344856 0.0174655)
(1.20322 0.169754 -0.013149)
(1.22378 0.0702255 -0.0132587)
(1.17222 -0.0458143 6.10969e-05)
(1.03932 0.0732676 0.00670567)
(0.743047 -0.0675155 0.0209176)
(0.765766 -0.272232 0.0143474)
(1.10272 -0.0890682 -0.00935773)
(1.01579 -0.226389 0.0302195)
(1.40256 -0.467086 -0.0620621)
(1.59287 -0.415872 -0.0336771)
(1.85116 -0.0882129 0.0834175)
(1.86836 0.0178048 0.00199802)
(1.28316 0.108738 0.0123577)
(1.57626 0.476607 0.0356595)
(0.89458 -0.449932 -0.0899747)
(1.17876 -0.668188 -0.0332378)
(1.25028 -0.277317 -0.00927531)
(1.17712 -0.0161767 0.02853)
(1.60332 0.499446 0.0244267)
(1.61384 0.362372 -0.0248452)
(1.49717 -0.146822 -0.03095)
(1.20333 0.0507118 0.0180138)
(1.27165 0.367498 0.0106027)
(1.22639 0.636388 0.00876071)
(1.14549 0.219022 -0.00470939)
(0.998337 -0.264141 -0.0116656)
(1.1036 -0.12676 -0.00205957)
(1.09627 -0.299307 -0.00436856)
(1.92139 -0.709376 -0.100809)
(2.02614 -0.927976 0.00174892)
(2.07577 -0.0259434 -0.0393505)
(1.78373 0.445368 -0.0215594)
(1.29338 0.0887141 0.0341828)
(1.96893 1.09342 -0.0876308)
(0.0414764 -0.466815 -0.0351251)
(0.760213 -0.745828 0.0393772)
(0.880974 0.0977929 -0.0405564)
(0.728672 0.0683828 0.023828)
(1.12258 0.163452 0.0327431)
(1.59019 0.220681 0.0186286)
(1.65156 0.324488 -0.0106654)
(1.16838 0.453901 -0.0563133)
(0.986877 -0.0115455 -0.0541098)
(1.21022 0.268986 -0.0240184)
(1.32285 0.159112 -0.0267812)
(1.25131 -0.173948 -0.0168997)
(1.32599 -0.216217 -0.0469541)
(1.28357 -1.06192 0.0944531)