/*--------------------------------*- C++ -*----------------------------------*\
  =========                 |
  \\      /  F ield         | OpenFOAM: The Open Source CFD Toolbox
   \\    /   O peration     | Website:  https://openfoam.org
    \\  /    A nd           | Version:  8
     \\/     M anipulation  |
\*---------------------------------------------------------------------------*/
FoamFile
{
    version     2.0;
    format      ascii;
    class       volScalarField;
    location    "1.11";
    object      p;
}
// * * * * * * * * * * * * * * * * * * * * * * * * * * * * * * * * * * * * * //

dimensions      [0 2 -2 0 0 0 0];

internalField   nonuniform List<scalar> 
400
(
6.26532e-15
-5.81848e-10
-1.66025e-09
-3.06826e-09
-4.53784e-09
-5.88317e-09
-7.03834e-09
-7.96153e-09
-8.58313e-09
-8.83983e-09
-8.71531e-09
-8.23678e-09
-7.46738e-09
-6.47339e-09
-5.32624e-09
-4.07086e-09
-2.79282e-09
-1.58212e-09
-6.02614e-10
-2.20347e-11
-1.87882e-09
-2.14854e-09
-2.74456e-09
-3.54547e-09
-4.45409e-09
-5.35739e-09
-6.20521e-09
-6.93837e-09
-7.47791e-09
-7.76394e-09
-7.77644e-09
-7.52726e-09
-7.04362e-09
-6.38416e-09
-5.58415e-09
-4.71197e-09
-3.81313e-09
-2.98944e-09
-2.32463e-09
-1.94313e-09
-3.26947e-09
-3.28593e-09
-3.46259e-09
-3.8318e-09
-4.32738e-09
-4.92433e-09
-5.57013e-09
-6.18729e-09
-6.68567e-09
-7.02659e-09
-7.18742e-09
-7.14884e-09
-6.92631e-09
-6.53524e-09
-6.02843e-09
-5.43364e-09
-4.83275e-09
-4.25108e-09
-3.77104e-09
-3.43781e-09
-4.18988e-09
-3.99984e-09
-3.94776e-09
-4.05156e-09
-4.33046e-09
-4.76188e-09
-5.30197e-09
-5.83814e-09
-6.31211e-09
-6.6928e-09
-6.94939e-09
-7.05607e-09
-6.99605e-09
-6.79256e-09
-6.45926e-09
-6.06425e-09
-5.6174e-09
-5.18269e-09
-4.77379e-09
-4.4299e-09
-4.61925e-09
-4.3878e-09
-4.24131e-09
-4.26505e-09
-4.47416e-09
-4.86343e-09
-5.33875e-09
-5.82457e-09
-6.27033e-09
-6.65682e-09
-6.95122e-09
-7.11583e-09
-7.13969e-09
-7.01011e-09
-6.76428e-09
-6.4365e-09
-6.07657e-09
-5.6698e-09
-5.26959e-09
-4.91468e-09
-4.67438e-09
-4.48334e-09
-4.39903e-09
-4.46671e-09
-4.7261e-09
-5.11571e-09
-5.57249e-09
-6.02543e-09
-6.44868e-09
-6.81699e-09
-7.09679e-09
-7.25837e-09
-7.2731e-09
-7.13881e-09
-6.87055e-09
-6.53656e-09
-6.15821e-09
-5.74528e-09
-5.31465e-09
-4.95324e-09
-4.5542e-09
-4.45434e-09
-4.48206e-09
-4.6693e-09
-4.99616e-09
-5.42282e-09
-5.88287e-09
-6.33584e-09
-6.746e-09
-7.08216e-09
-7.31602e-09
-7.42574e-09
-7.38893e-09
-7.18434e-09
-6.84974e-09
-6.44151e-09
-6.01548e-09
-5.57317e-09
-5.14688e-09
-4.79482e-09
-4.41654e-09
-4.38815e-09
-4.53876e-09
-4.83533e-09
-5.24692e-09
-5.72388e-09
-6.22309e-09
-6.6989e-09
-7.10594e-09
-7.39821e-09
-7.55764e-09
-7.58534e-09
-7.46557e-09
-7.18319e-09
-6.76309e-09
-6.2788e-09
-5.78306e-09
-5.32258e-09
-4.92086e-09
-4.6039e-09
-4.27833e-09
-4.32489e-09
-4.57867e-09
-4.98351e-09
-5.4803e-09
-6.02546e-09
-6.57105e-09
-7.07262e-09
-7.46658e-09
-7.70021e-09
-7.7674e-09
-7.69049e-09
-7.47533e-09
-7.114e-09
-6.63326e-09
-6.08966e-09
-5.54805e-09
-5.0674e-09
-4.69201e-09
-4.41657e-09
-4.1503e-09
-4.28808e-09
-4.64845e-09
-5.15097e-09
-5.72764e-09
-6.32198e-09
-6.88981e-09
-7.38376e-09
-7.73811e-09
-7.90077e-09
-7.87649e-09
-7.70192e-09
-7.39974e-09
-6.9813e-09
-6.47159e-09
-5.91409e-09
-5.35737e-09
-4.86542e-09
-4.48922e-09
-4.23895e-09
-4.10898e-09
-4.3476e-09
-4.8056e-09
-5.38108e-09
-5.9962e-09
-6.59464e-09
-7.13327e-09
-7.5745e-09
-7.8615e-09
-7.95523e-09
-7.8659e-09
-7.63102e-09
-7.28072e-09
-6.84008e-09
-6.33746e-09
-5.79885e-09
-5.25748e-09
-4.76376e-09
-4.37691e-09
-4.14009e-09
-4.25807e-09
-4.56845e-09
-5.07732e-09
-5.66617e-09
-6.25939e-09
-6.80489e-09
-7.26879e-09
-7.62302e-09
-7.83307e-09
-7.87502e-09
-7.76148e-09
-7.517e-09
-7.16685e-09
-6.74116e-09
-6.26875e-09
-5.76796e-09
-5.26127e-09
-4.79444e-09
-4.42506e-09
-4.22387e-09
-4.63459e-09
-4.94906e-09
-5.41933e-09
-5.94122e-09
-6.44851e-09
-6.89861e-09
-7.25938e-09
-7.5196e-09
-7.65975e-09
-7.67611e-09
-7.5743e-09
-7.36371e-09
-7.05519e-09
-6.67606e-09
-6.25453e-09
-5.809e-09
-5.36651e-09
-4.96895e-09
-4.67298e-09
-4.54069e-09
-5.16151e-09
-5.4096e-09
-5.74448e-09
-6.12091e-09
-6.49456e-09
-6.82105e-09
-7.07869e-09
-7.25424e-09
-7.34953e-09
-7.36171e-09
-7.29688e-09
-7.14525e-09
-6.90875e-09
-6.6056e-09
-6.26151e-09
-5.9033e-09
-5.56195e-09
-5.27919e-09
-5.09213e-09
-5.04636e-09
-5.68284e-09
-5.81508e-09
-5.97239e-09
-6.16508e-09
-6.37976e-09
-6.58414e-09
-6.74855e-09
-6.87296e-09
-6.94591e-09
-6.97649e-09
-6.95392e-09
-6.8707e-09
-6.71932e-09
-6.5123e-09
-6.26961e-09
-6.02183e-09
-5.80882e-09
-5.6516e-09
-5.58039e-09
-5.5947e-09
-6.01079e-09
-6.03187e-09
-6.04682e-09
-6.09148e-09
-6.17643e-09
-6.27909e-09
-6.39073e-09
-6.48812e-09
-6.57231e-09
-6.62505e-09
-6.64536e-09
-6.617e-09
-6.54266e-09
-6.42298e-09
-6.26956e-09
-6.11771e-09
-6.00286e-09
-5.94836e-09
-5.94962e-09
-5.99163e-09
-6.02415e-09
-5.9731e-09
-5.94882e-09
-5.94741e-09
-5.97674e-09
-6.04785e-09
-6.14348e-09
-6.2597e-09
-6.36493e-09
-6.45303e-09
-6.498e-09
-6.50246e-09
-6.46257e-09
-6.37776e-09
-6.25274e-09
-6.12265e-09
-6.0366e-09
-6.00581e-09
-6.02427e-09
-6.03836e-09
-5.65269e-09
-5.64415e-09
-5.68751e-09
-5.75662e-09
-5.84374e-09
-5.96005e-09
-6.11414e-09
-6.27857e-09
-6.44014e-09
-6.55671e-09
-6.61484e-09
-6.60216e-09
-6.52864e-09
-6.38925e-09
-6.19643e-09
-6.00015e-09
-5.84595e-09
-5.7583e-09
-5.71267e-09
-5.68632e-09
-4.95787e-09
-5.05793e-09
-5.26204e-09
-5.49782e-09
-5.74667e-09
-6.02148e-09
-6.30938e-09
-6.59844e-09
-6.84301e-09
-7.0066e-09
-7.04722e-09
-6.96664e-09
-6.77429e-09
-6.48653e-09
-6.13383e-09
-5.77787e-09
-5.47421e-09
-5.23914e-09
-5.08913e-09
-4.98869e-09
-4.15702e-09
-4.34374e-09
-4.70493e-09
-5.14717e-09
-5.61975e-09
-6.11475e-09
-6.61538e-09
-7.07992e-09
-7.45897e-09
-7.68432e-09
-7.71554e-09
-7.5445e-09
-7.19944e-09
-6.71888e-09
-6.16003e-09
-5.59887e-09
-5.09489e-09
-4.67662e-09
-4.35705e-09
-4.17347e-09
)
;

boundaryField
{
    movingWall
    {
        type            zeroGradient;
    }
    fixedWalls
    {
        type            zeroGradient;
    }
    left
    {
        type            cyclic;
    }
    right
    {
        type            cyclic;
    }
    frontAndBack
    {
        type            empty;
    }
}


// ************************************************************************* //
