0 	0 	0 	0
1.57135 	-0.00700421 	0.00618527 	0
3.1427 	-0.0181435 	0.0213 	0
4.71405 	-0.0232145 	0.0398693 	0
6.28539 	-0.0155015 	0.0557905 	0
7.85674 	0.00099084 	0.0595316 	0
9.42809 	0.0274121 	0.0408482 	0
10.9994 	0.0405885 	-0.0107355 	0
12.5708 	0.110029 	-0.0977994 	0
14.1421 	0.5 	0 	0
