0 	-6.7032e-09
1.57135 	4.02171e-05
3.1427 	-0.000124249
4.71405 	-0.000759264
6.28539 	-0.00179966
7.85674 	-0.0031164
9.42809 	-0.00323676
10.9994 	-0.00211523
12.5708 	0.0160429
14.1421 	0.048943
