/*--------------------------------*- C++ -*----------------------------------*\
  =========                 |
  \\      /  F ield         | OpenFOAM: The Open Source CFD Toolbox
   \\    /   O peration     | Website:  https://openfoam.org
    \\  /    A nd           | Version:  8
     \\/     M anipulation  |
\*---------------------------------------------------------------------------*/
FoamFile
{
    version     2.0;
    format      ascii;
    class       surfaceScalarField;
    location    "5";
    object      phi;
}
// * * * * * * * * * * * * * * * * * * * * * * * * * * * * * * * * * * * * * //

dimensions      [0 3 -1 0 0 0 0];

internalField   nonuniform List<scalar> 
92320
(
-2.09712e-08
2.09579e-08
-7.28938e-08
5.19227e-08
-1.35093e-07
6.21993e-08
-1.99429e-07
6.43368e-08
-2.63983e-07
6.45536e-08
-3.28438e-07
6.44549e-08
-3.92769e-07
6.43316e-08
-4.56983e-07
6.42138e-08
-5.21078e-07
6.40947e-08
-5.85045e-07
6.39675e-08
-6.48874e-07
6.38289e-08
-7.12551e-07
6.36773e-08
-7.76063e-07
6.35121e-08
-8.39396e-07
6.33328e-08
-9.02535e-07
6.31393e-08
-9.65466e-07
6.29315e-08
-1.02818e-06
6.27095e-08
-1.09065e-06
6.24733e-08
-1.15287e-06
6.22229e-08
-1.21483e-06
6.19584e-08
-1.27651e-06
6.16798e-08
-1.3379e-06
6.13872e-08
-1.39898e-06
6.10806e-08
-1.45974e-06
6.07602e-08
-1.52016e-06
6.04261e-08
-1.58024e-06
6.00784e-08
-1.63996e-06
5.97172e-08
-1.6993e-06
5.93425e-08
-1.75826e-06
5.89546e-08
-1.81681e-06
5.85534e-08
-1.87495e-06
5.81392e-08
-1.93266e-06
5.77121e-08
-1.98993e-06
5.72722e-08
-2.04675e-06
5.68197e-08
-2.10311e-06
5.63547e-08
-2.15898e-06
5.58773e-08
-2.21437e-06
5.53877e-08
-2.26926e-06
5.4886e-08
-2.32363e-06
5.43724e-08
-2.37748e-06
5.38471e-08
-2.43079e-06
5.33103e-08
-2.48355e-06
5.27622e-08
-2.53575e-06
5.2203e-08
-2.58739e-06
5.16329e-08
-2.63844e-06
5.1052e-08
-2.6889e-06
5.04606e-08
-2.73876e-06
4.98589e-08
-2.788e-06
4.9247e-08
-2.83663e-06
4.86254e-08
-2.88462e-06
4.79942e-08
-2.93198e-06
4.73536e-08
-2.97868e-06
4.67039e-08
-3.02473e-06
4.60455e-08
-3.0701e-06
4.53784e-08
-3.11481e-06
4.47031e-08
-3.15883e-06
4.40198e-08
-3.20216e-06
4.3329e-08
-3.24479e-06
4.26309e-08
-3.28671e-06
4.19259e-08
-3.32793e-06
4.12143e-08
-3.36842e-06
4.04965e-08
-3.4082e-06
3.97729e-08
-3.44724e-06
3.90439e-08
-3.48555e-06
3.83099e-08
-3.52312e-06
3.75716e-08
-3.55995e-06
3.68293e-08
-3.59603e-06
3.60837e-08
-3.63137e-06
3.53353e-08
-3.66595e-06
3.45847e-08
-3.69979e-06
3.38325e-08
-3.73287e-06
3.30794e-08
-3.76519e-06
3.23262e-08
-3.79676e-06
3.15736e-08
-3.82759e-06
3.08225e-08
-3.85766e-06
3.00739e-08
-3.88699e-06
2.93286e-08
-3.91558e-06
2.8588e-08
-3.94343e-06
2.78532e-08
-3.97056e-06
2.71256e-08
-3.99696e-06
2.64068e-08
-4.02266e-06
2.56982e-08
-4.04766e-06
2.50015e-08
-4.07198e-06
2.43189e-08
-4.09563e-06
2.36524e-08
-4.11864e-06
2.30046e-08
-4.14102e-06
2.23783e-08
-4.16279e-06
2.17766e-08
-4.184e-06
2.12033e-08
-4.20466e-06
2.06623e-08
-4.22482e-06
2.01582e-08
-4.24451e-06
1.96964e-08
-4.2638e-06
1.92831e-08
-4.28272e-06
1.89254e-08
-4.30135e-06
1.86316e-08
-4.31977e-06
1.84115e-08
-4.33804e-06
1.82767e-08
-4.35628e-06
1.82411e-08
-4.3746e-06
1.83211e-08
-4.39314e-06
1.85365e-08
-4.41205e-06
1.89115e-08
-4.43153e-06
1.94758e-08
-4.45179e-06
2.02661e-08
-4.47312e-06
2.13285e-08
-4.49584e-06
2.27213e-08
-4.52036e-06
2.45197e-08
-4.54718e-06
2.68215e-08
-4.57694e-06
2.97562e-08
-4.61044e-06
3.3499e-08
-4.64873e-06
3.8292e-08
-4.69321e-06
4.44785e-08
-4.74577e-06
5.25625e-08
-4.80908e-06
6.33136e-08
-4.88705e-06
7.79699e-08
-4.98571e-06
9.86565e-08
-5.11509e-06
1.29377e-07
-5.29388e-06
1.78791e-07
-5.56265e-06
2.68774e-07
-6.02507e-06
4.62421e-07
-6.99567e-06
9.70598e-07
2.56721e-06
-9.56288e-06
-5.20586e-08
7.30168e-08
-1.50565e-07
1.50429e-07
-2.64229e-07
1.75864e-07
-3.81769e-07
1.81877e-07
-5.0006e-07
1.82845e-07
-6.18386e-07
1.82781e-07
-7.36587e-07
1.82533e-07
-8.54613e-07
1.8224e-07
-9.72433e-07
1.81915e-07
-1.09002e-06
1.81556e-07
-1.20735e-06
1.81158e-07
-1.32439e-06
1.80721e-07
-1.44113e-06
1.80244e-07
-1.55752e-06
1.79725e-07
-1.67354e-06
1.79166e-07
-1.78918e-06
1.78565e-07
-1.90439e-06
1.77923e-07
-2.01916e-06
1.7724e-07
-2.13345e-06
1.76517e-07
-2.24724e-06
1.75753e-07
-2.36051e-06
1.74948e-07
-2.47323e-06
1.74103e-07
-2.58537e-06
1.73218e-07
-2.6969e-06
1.72294e-07
-2.8078e-06
1.7133e-07
-2.91805e-06
1.70328e-07
-3.02762e-06
1.69286e-07
-3.13649e-06
1.68206e-07
-3.24462e-06
1.67089e-07
-3.352e-06
1.65933e-07
-3.4586e-06
1.6474e-07
-3.5644e-06
1.63511e-07
-3.66937e-06
1.62244e-07
-3.77349e-06
1.60942e-07
-3.87674e-06
1.59604e-07
-3.9791e-06
1.58231e-07
-4.08053e-06
1.56823e-07
-4.18103e-06
1.55381e-07
-4.28056e-06
1.53905e-07
-4.37911e-06
1.52396e-07
-4.47665e-06
1.50854e-07
-4.57317e-06
1.49279e-07
-4.66864e-06
1.47674e-07
-4.76304e-06
1.46037e-07
-4.85636e-06
1.4437e-07
-4.94858e-06
1.42673e-07
-5.03966e-06
1.40947e-07
-5.12961e-06
1.39193e-07
-5.2184e-06
1.37411e-07
-5.306e-06
1.35602e-07
-5.39241e-06
1.33766e-07
-5.47762e-06
1.31905e-07
-5.56159e-06
1.30019e-07
-5.64432e-06
1.28109e-07
-5.72579e-06
1.26176e-07
-5.80599e-06
1.24221e-07
-5.88491e-06
1.22244e-07
-5.96253e-06
1.20248e-07
-6.03883e-06
1.18232e-07
-6.11382e-06
1.16198e-07
-6.18747e-06
1.14147e-07
-6.25977e-06
1.12079e-07
-6.33072e-06
1.09997e-07
-6.40031e-06
1.07901e-07
-6.46854e-06
1.05793e-07
-6.53538e-06
1.03675e-07
-6.60085e-06
1.01548e-07
-6.66492e-06
9.94135e-08
-6.72761e-06
9.72733e-08
-6.78891e-06
9.51291e-08
-6.84881e-06
9.29829e-08
-6.90732e-06
9.08368e-08
-6.96444e-06
8.86932e-08
-7.02017e-06
8.65546e-08
-7.07452e-06
8.44237e-08
-7.1275e-06
8.23035e-08
-7.17911e-06
8.01971e-08
-7.22936e-06
7.8108e-08
-7.27828e-06
7.604e-08
-7.32587e-06
7.39973e-08
-7.37215e-06
7.19843e-08
-7.41716e-06
7.00062e-08
-7.46091e-06
6.80685e-08
-7.50343e-06
6.61777e-08
-7.54477e-06
6.43408e-08
-7.58496e-06
6.25659e-08
-7.62404e-06
6.0862e-08
-7.66208e-06
5.92392e-08
-7.69913e-06
5.77091e-08
-7.73525e-06
5.62848e-08
-7.77054e-06
5.49815e-08
-7.80507e-06
5.38166e-08
-7.83895e-06
5.28107e-08
-7.87231e-06
5.19874e-08
-7.90527e-06
5.13747e-08
-7.938e-06
5.10056e-08
-7.97068e-06
5.09192e-08
-8.00352e-06
5.11624e-08
-8.03678e-06
5.17918e-08
-8.07074e-06
5.2876e-08
-8.10576e-06
5.44996e-08
-8.14226e-06
5.67672e-08
-8.18075e-06
5.98101e-08
-8.22182e-06
6.37947e-08
-8.26623e-06
6.89349e-08
-8.31492e-06
7.55092e-08
-8.36905e-06
8.38866e-08
-8.43012e-06
9.45653e-08
-8.50006e-06
1.08232e-07
-8.58144e-06
1.25858e-07
-8.67773e-06
1.48856e-07
-8.79376e-06
1.79346e-07
-8.93643e-06
2.20643e-07
-9.11593e-06
2.78154e-07
-9.34776e-06
3.61205e-07
-9.65614e-06
4.87175e-07
-1.00786e-05
6.91234e-07
-1.06657e-05
1.04954e-06
-1.14416e-05
1.7465e-06
3.23825e-06
-1.21127e-05
-6.2408e-08
1.35425e-07
-1.76253e-07
2.64274e-07
-3.06181e-07
3.05792e-07
-4.40129e-07
3.15825e-07
-5.74868e-07
3.17584e-07
-7.09659e-07
3.17572e-07
-8.44328e-07
3.17201e-07
-9.78809e-07
3.16722e-07
-1.11306e-06
3.16169e-07
-1.24706e-06
3.15548e-07
-1.38075e-06
3.14856e-07
-1.51412e-06
3.14093e-07
-1.64714e-06
3.13257e-07
-1.77976e-06
3.1235e-07
-1.91197e-06
3.1137e-07
-2.04372e-06
3.10318e-07
-2.17499e-06
3.09194e-07
-2.30575e-06
3.07999e-07
-2.43596e-06
3.06732e-07
-2.5656e-06
3.05394e-07
-2.69464e-06
3.03986e-07
-2.82304e-06
3.02507e-07
-2.95078e-06
3.00959e-07
-3.07783e-06
2.99341e-07
-3.20416e-06
2.97655e-07
-3.32973e-06
2.95901e-07
-3.45452e-06
2.9408e-07
-3.57851e-06
2.92191e-07
-3.70166e-06
2.90236e-07
-3.82394e-06
2.88216e-07
-3.94533e-06
2.8613e-07
-4.0658e-06
2.8398e-07
-4.18532e-06
2.81767e-07
-4.30387e-06
2.7949e-07
-4.42142e-06
2.77152e-07
-4.53794e-06
2.74752e-07
-4.65341e-06
2.72292e-07
-4.7678e-06
2.69772e-07
-4.88109e-06
2.67194e-07
-4.99325e-06
2.64557e-07
-5.10426e-06
2.61864e-07
-5.21409e-06
2.59115e-07
-5.32273e-06
2.5631e-07
-5.43014e-06
2.53453e-07
-5.53632e-06
2.50542e-07
-5.64122e-06
2.4758e-07
-5.74484e-06
2.44567e-07
-5.84715e-06
2.41505e-07
-5.94814e-06
2.38394e-07
-6.04777e-06
2.35237e-07
-6.14604e-06
2.32034e-07
-6.24292e-06
2.28787e-07
-6.3384e-06
2.25496e-07
-6.43245e-06
2.22165e-07
-6.52507e-06
2.18793e-07
-6.61623e-06
2.15383e-07
-6.70593e-06
2.11937e-07
-6.79413e-06
2.08455e-07
-6.88084e-06
2.0494e-07
-6.96604e-06
2.01394e-07
-7.04971e-06
1.97818e-07
-7.13184e-06
1.94215e-07
-7.21243e-06
1.90586e-07
-7.29146e-06
1.86934e-07
-7.36893e-06
1.83261e-07
-7.44483e-06
1.79571e-07
-7.51914e-06
1.75865e-07
-7.59188e-06
1.72147e-07
-7.66302e-06
1.68419e-07
-7.73258e-06
1.64684e-07
-7.80054e-06
1.60947e-07
-7.86691e-06
1.5721e-07
-7.9317e-06
1.53477e-07
-7.9949e-06
1.49754e-07
-8.05652e-06
1.46044e-07
-8.11657e-06
1.42354e-07
-8.17506e-06
1.38687e-07
-8.232e-06
1.35051e-07
-8.28741e-06
1.31452e-07
-8.34131e-06
1.27897e-07
-8.39372e-06
1.24393e-07
-8.44466e-06
1.2095e-07
-8.49417e-06
1.17578e-07
-8.54228e-06
1.14287e-07
-8.58903e-06
1.1109e-07
-8.63447e-06
1.08001e-07
-8.67864e-06
1.05034e-07
-8.72161e-06
1.02208e-07
-8.76344e-06
9.95421e-08
-8.80422e-06
9.70592e-08
-8.84402e-06
9.47853e-08
-8.88295e-06
9.27505e-08
-8.92113e-06
9.09899e-08
-8.95869e-06
8.95442e-08
-8.99578e-06
8.84612e-08
-9.03257e-06
8.77971e-08
-9.06927e-06
8.76188e-08
-9.10611e-06
8.80062e-08
-9.14337e-06
8.90554e-08
-9.18138e-06
9.08831e-08
-9.22051e-06
9.36324e-08
-9.26123e-06
9.748e-08
-9.30406e-06
1.02647e-07
-9.34968e-06
1.09411e-07
-9.39887e-06
1.18129e-07
-9.45263e-06
1.29262e-07
-9.51216e-06
1.43416e-07
-9.57899e-06
1.61402e-07
-9.65508e-06
1.84321e-07
-9.74292e-06
2.13705e-07
-9.8458e-06
2.5173e-07
-9.96802e-06
3.01565e-07
-1.01153e-05
3.67953e-07
-1.02954e-05
4.58195e-07
-1.05181e-05
5.83907e-07
-1.07952e-05
7.64314e-07
-1.11363e-05
1.03229e-06
-1.15318e-05
1.44503e-06
-1.1893e-05
2.10771e-06
3.19405e-06
-1.18488e-05
-6.45917e-08
2.00017e-07
-1.82465e-07
3.82148e-07
-3.16615e-07
4.39942e-07
-4.54674e-07
4.53884e-07
-5.93454e-07
4.56364e-07
-7.32261e-07
4.56379e-07
-8.70935e-07
4.55875e-07
-1.00942e-06
4.55204e-07
-1.14767e-06
4.5442e-07
-1.28565e-06
4.5353e-07
-1.42333e-06
4.52535e-07
-1.56067e-06
4.51436e-07
-1.69765e-06
4.50232e-07
-1.83422e-06
4.48923e-07
-1.97036e-06
4.4751e-07
-2.10603e-06
4.45992e-07
-2.24121e-06
4.44371e-07
-2.37586e-06
4.42647e-07
-2.50994e-06
4.40819e-07
-2.64344e-06
4.3889e-07
-2.77631e-06
4.36858e-07
-2.90853e-06
4.34726e-07
-3.04006e-06
4.32493e-07
-3.17088e-06
4.3016e-07
-3.30095e-06
4.27729e-07
-3.43025e-06
4.25199e-07
-3.55875e-06
4.22572e-07
-3.6864e-06
4.19849e-07
-3.8132e-06
4.17031e-07
-3.9391e-06
4.14118e-07
-4.06408e-06
4.11111e-07
-4.18811e-06
4.08012e-07
-4.31117e-06
4.04821e-07
-4.43322e-06
4.01539e-07
-4.55423e-06
3.98169e-07
-4.67419e-06
3.9471e-07
-4.79306e-06
3.91164e-07
-4.91082e-06
3.87533e-07
-5.02745e-06
3.83817e-07
-5.14291e-06
3.80018e-07
-5.25718e-06
3.76137e-07
-5.37024e-06
3.72176e-07
-5.48207e-06
3.68135e-07
-5.59263e-06
3.64018e-07
-5.70191e-06
3.59825e-07
-5.80989e-06
3.55557e-07
-5.91654e-06
3.51217e-07
-6.02184e-06
3.46806e-07
-6.12577e-06
3.42326e-07
-6.22831e-06
3.37778e-07
-6.32944e-06
3.33165e-07
-6.42914e-06
3.28488e-07
-6.5274e-06
3.23749e-07
-6.62418e-06
3.18951e-07
-6.71949e-06
3.14096e-07
-6.81329e-06
3.09186e-07
-6.90557e-06
3.04223e-07
-6.99633e-06
2.9921e-07
-7.08554e-06
2.94149e-07
-7.17319e-06
2.89043e-07
-7.25926e-06
2.83895e-07
-7.34376e-06
2.78707e-07
-7.42665e-06
2.73483e-07
-7.50795e-06
2.68226e-07
-7.58763e-06
2.6294e-07
-7.66568e-06
2.57628e-07
-7.74211e-06
2.52293e-07
-7.8169e-06
2.46941e-07
-7.89006e-06
2.41575e-07
-7.96157e-06
2.36199e-07
-8.03145e-06
2.30819e-07
-8.09968e-06
2.2544e-07
-8.16627e-06
2.20068e-07
-8.23122e-06
2.14709e-07
-8.29455e-06
2.0937e-07
-8.35625e-06
2.04057e-07
-8.41634e-06
1.98779e-07
-8.47484e-06
1.93544e-07
-8.53174e-06
1.88361e-07
-8.58709e-06
1.83241e-07
-8.64089e-06
1.78195e-07
-8.69318e-06
1.73236e-07
-8.74398e-06
1.68377e-07
-8.79332e-06
1.63634e-07
-8.84125e-06
1.59024e-07
-8.88782e-06
1.54567e-07
-8.93307e-06
1.50284e-07
-8.97706e-06
1.46201e-07
-9.01986e-06
1.42344e-07
-9.06155e-06
1.38748e-07
-9.10221e-06
1.35447e-07
-9.14195e-06
1.32484e-07
-9.18087e-06
1.29909e-07
-9.2191e-06
1.27777e-07
-9.25679e-06
1.26157e-07
-9.29412e-06
1.25126e-07
-9.33128e-06
1.24778e-07
-9.3685e-06
1.25222e-07
-9.40603e-06
1.26592e-07
-9.4442e-06
1.29048e-07
-9.48335e-06
1.32785e-07
-9.52392e-06
1.38046e-07
-9.5664e-06
1.45128e-07
-9.61139e-06
1.54405e-07
-9.65961e-06
1.66353e-07
-9.71193e-06
1.81579e-07
-9.76939e-06
2.00873e-07
-9.83326e-06
2.25272e-07
-9.9051e-06
2.56164e-07
-9.98683e-06
2.9543e-07
-1.00808e-05
3.45661e-07
-1.01897e-05
4.10489e-07
-1.03168e-05
4.95086e-07
-1.04656e-05
6.06931e-07
-1.06386e-05
7.56983e-07
-1.08358e-05
9.61464e-07
-1.10477e-05
1.24423e-06
-1.12419e-05
1.6392e-06
-1.13272e-05
2.19301e-06
2.94889e-06
-1.1082e-05
-6.48841e-08
2.64901e-07
-1.83677e-07
5.00941e-07
-3.18838e-07
5.75103e-07
-4.57857e-07
5.92903e-07
-5.97556e-07
5.96063e-07
-7.37258e-07
5.96082e-07
-8.76818e-07
5.95435e-07
-1.01618e-06
5.94568e-07
-1.15531e-06
5.93548e-07
-1.29417e-06
5.92389e-07
-1.43272e-06
5.9109e-07
-1.57094e-06
5.89652e-07
-1.70878e-06
5.88077e-07
-1.84623e-06
5.86365e-07
-1.98323e-06
5.84515e-07
-2.11977e-06
5.82529e-07
-2.2558e-06
5.80407e-07
-2.39131e-06
5.7815e-07
-2.52625e-06
5.75758e-07
-2.66059e-06
5.73232e-07
-2.7943e-06
5.70573e-07
-2.92736e-06
5.67782e-07
-3.05973e-06
5.6486e-07
-3.19137e-06
5.61807e-07
-3.32227e-06
5.58625e-07
-3.45238e-06
5.55314e-07
-3.58169e-06
5.51877e-07
-3.71015e-06
5.48313e-07
-3.83775e-06
5.44625e-07
-3.96444e-06
5.40813e-07
-4.09021e-06
5.36878e-07
-4.21502e-06
5.32823e-07
-4.33885e-06
5.28648e-07
-4.46166e-06
5.24354e-07
-4.58344e-06
5.19944e-07
-4.70415e-06
5.15419e-07
-4.82376e-06
5.1078e-07
-4.94226e-06
5.06029e-07
-5.05961e-06
5.01168e-07
-5.17579e-06
4.96198e-07
-5.29077e-06
4.91121e-07
-5.40454e-06
4.85939e-07
-5.51705e-06
4.80654e-07
-5.6283e-06
4.75268e-07
-5.73826e-06
4.69783e-07
-5.8469e-06
4.642e-07
-5.95421e-06
4.58523e-07
-6.06016e-06
4.52754e-07
-6.16473e-06
4.46894e-07
-6.26789e-06
4.40945e-07
-6.36964e-06
4.34912e-07
-6.46995e-06
4.28795e-07
-6.5688e-06
4.22597e-07
-6.66617e-06
4.16323e-07
-6.76204e-06
4.09973e-07
-6.85641e-06
4.03551e-07
-6.94925e-06
3.97061e-07
-7.04054e-06
3.90505e-07
-7.13028e-06
3.83887e-07
-7.21845e-06
3.77209e-07
-7.30503e-06
3.70477e-07
-7.39001e-06
3.63693e-07
-7.47339e-06
3.56861e-07
-7.55515e-06
3.49987e-07
-7.63528e-06
3.43073e-07
-7.71378e-06
3.36126e-07
-7.79064e-06
3.2915e-07
-7.86585e-06
3.2215e-07
-7.9394e-06
3.15131e-07
-8.0113e-06
3.081e-07
-8.08155e-06
3.01064e-07
-8.15014e-06
2.94028e-07
-8.21707e-06
2.87001e-07
-8.28235e-06
2.7999e-07
-8.34598e-06
2.73004e-07
-8.40798e-06
2.66052e-07
-8.46834e-06
2.59144e-07
-8.52709e-06
2.52292e-07
-8.58424e-06
2.45507e-07
-8.6398e-06
2.38803e-07
-8.6938e-06
2.32193e-07
-8.74626e-06
2.25695e-07
-8.79721e-06
2.19325e-07
-8.84668e-06
2.13105e-07
-8.89471e-06
2.07055e-07
-8.94134e-06
2.01201e-07
-8.98663e-06
1.9557e-07
-9.03062e-06
1.90195e-07
-9.07339e-06
1.8511e-07
-9.115e-06
1.80356e-07
-9.15553e-06
1.75981e-07
-9.19508e-06
1.72036e-07
-9.23376e-06
1.68585e-07
-9.27168e-06
1.65698e-07
-9.30898e-06
1.6346e-07
-9.34582e-06
1.61967e-07
-9.38238e-06
1.61337e-07
-9.41886e-06
1.61705e-07
-9.45551e-06
1.63235e-07
-9.49259e-06
1.66126e-07
-9.53042e-06
1.70615e-07
-9.56936e-06
1.76994e-07
-9.60986e-06
1.85623e-07
-9.6524e-06
1.96945e-07
-9.69756e-06
2.1152e-07
-9.74604e-06
2.30054e-07
-9.79861e-06
2.53448e-07
-9.85621e-06
2.82866e-07
-9.91987e-06
3.19827e-07
-9.99077e-06
3.66334e-07
-1.00702e-05
4.25051e-07
-1.01592e-05
4.99558e-07
-1.02588e-05
5.94685e-07
-1.03689e-05
7.16972e-07
-1.04871e-05
8.75219e-07
-1.06067e-05
1.08106e-06
-1.07117e-05
1.34918e-06
-1.07686e-05
1.69616e-06
-1.07124e-05
2.13683e-06
2.66775e-06
-1.04313e-05
-6.49001e-08
3.29801e-07
-1.83948e-07
6.19989e-07
-3.19428e-07
7.10584e-07
-4.5876e-07
7.32235e-07
-5.98754e-07
7.36057e-07
-7.3874e-07
7.36068e-07
-8.78575e-07
7.35271e-07
-1.01821e-06
7.34203e-07
-1.15761e-06
7.32947e-07
-1.29674e-06
7.31516e-07
-1.43556e-06
7.29912e-07
-1.57404e-06
7.28136e-07
-1.71215e-06
7.26189e-07
-1.84986e-06
7.24071e-07
-1.98713e-06
7.21785e-07
-2.12393e-06
7.19329e-07
-2.26023e-06
7.16705e-07
-2.39599e-06
7.13914e-07
-2.53119e-06
7.10956e-07
-2.66579e-06
7.07833e-07
-2.79976e-06
7.04545e-07
-2.93307e-06
7.01093e-07
-3.06569e-06
6.9748e-07
-3.19759e-06
6.93705e-07
-3.32874e-06
6.89771e-07
-3.4591e-06
6.85678e-07
-3.58865e-06
6.81427e-07
-3.71736e-06
6.77021e-07
-3.84519e-06
6.72461e-07
-3.97213e-06
6.67748e-07
-4.09813e-06
6.62883e-07
-4.22318e-06
6.57869e-07
-4.34724e-06
6.52707e-07
-4.47028e-06
6.47399e-07
-4.59229e-06
6.41947e-07
-4.71322e-06
6.36353e-07
-4.83306e-06
6.30618e-07
-4.95177e-06
6.24745e-07
-5.06934e-06
6.18735e-07
-5.18573e-06
6.12591e-07
-5.30093e-06
6.06315e-07
-5.4149e-06
5.99909e-07
-5.52762e-06
5.93376e-07
-5.63907e-06
5.86719e-07
-5.74922e-06
5.79938e-07
-5.85806e-06
5.73038e-07
-5.96556e-06
5.6602e-07
-6.07169e-06
5.58888e-07
-6.17644e-06
5.51645e-07
-6.27979e-06
5.44292e-07
-6.38171e-06
5.36834e-07
-6.48219e-06
5.29273e-07
-6.58121e-06
5.21613e-07
-6.67874e-06
5.13857e-07
-6.77478e-06
5.06008e-07
-6.8693e-06
4.98071e-07
-6.96228e-06
4.90048e-07
-7.05372e-06
4.81945e-07
-7.1436e-06
4.73764e-07
-7.2319e-06
4.6551e-07
-7.31861e-06
4.57187e-07
-7.40372e-06
4.48802e-07
-7.48721e-06
4.40357e-07
-7.56909e-06
4.31858e-07
-7.64932e-06
4.23312e-07
-7.72792e-06
4.14723e-07
-7.80487e-06
4.06098e-07
-7.88016e-06
3.97443e-07
-7.9538e-06
3.88765e-07
-8.02577e-06
3.80071e-07
-8.09607e-06
3.71369e-07
-8.16471e-06
3.62668e-07
-8.23168e-06
3.53976e-07
-8.297e-06
3.45303e-07
-8.36065e-06
3.3666e-07
-8.42266e-06
3.28057e-07
-8.48302e-06
3.19507e-07
-8.54175e-06
3.11024e-07
-8.59887e-06
3.02622e-07
-8.65438e-06
2.94317e-07
-8.70831e-06
2.86126e-07
-8.76069e-06
2.78069e-07
-8.81153e-06
2.70168e-07
-8.86087e-06
2.62447e-07
-8.90875e-06
2.54931e-07
-8.9552e-06
2.4765e-07
-9.00027e-06
2.40639e-07
-9.04401e-06
2.33934e-07
-9.08648e-06
2.27579e-07
-9.12774e-06
2.21621e-07
-9.16788e-06
2.16115e-07
-9.20696e-06
2.11126e-07
-9.24511e-06
2.06726e-07
-9.28241e-06
2.02999e-07
-9.31899e-06
2.00042e-07
-9.35499e-06
1.97971e-07
-9.39057e-06
1.96919e-07
-9.42591e-06
1.97044e-07
-9.46121e-06
1.98536e-07
-9.49671e-06
2.01619e-07
-9.53265e-06
2.06563e-07
-9.56935e-06
2.13696e-07
-9.60715e-06
2.23417e-07
-9.64642e-06
2.36215e-07
-9.68759e-06
2.52695e-07
-9.73115e-06
2.73611e-07
-9.77761e-06
2.99908e-07
-9.82752e-06
3.32781e-07
-9.88144e-06
3.73746e-07
-9.93985e-06
4.24743e-07
-1.00031e-05
4.88258e-07
-1.0071e-05
5.67478e-07
-1.01428e-05
6.66473e-07
-1.02162e-05
7.90377e-07
-1.02864e-05
9.45498e-07
-1.03446e-05
1.13921e-06
-1.03746e-05
1.37923e-06
-1.03501e-05
1.67165e-06
-1.02301e-05
2.01677e-06
2.39888e-06
-9.9612e-06
-6.49274e-08
3.94729e-07
-1.84132e-07
7.39193e-07
-3.19817e-07
8.46269e-07
-4.5936e-07
8.71778e-07
-5.99563e-07
8.7626e-07
-7.39752e-07
8.76256e-07
-8.79785e-07
8.75305e-07
-1.01962e-06
8.74033e-07
-1.15921e-06
8.72538e-07
-1.29853e-06
8.70834e-07
-1.43754e-06
8.68924e-07
-1.57621e-06
8.66809e-07
-1.71451e-06
8.64489e-07
-1.85241e-06
8.61967e-07
-1.98987e-06
8.59242e-07
-2.12685e-06
8.56315e-07
-2.26334e-06
8.53189e-07
-2.39928e-06
8.49862e-07
-2.53467e-06
8.46338e-07
-2.66945e-06
8.42616e-07
-2.8036e-06
8.38698e-07
-2.93709e-06
8.34585e-07
-3.06989e-06
8.30279e-07
-3.20197e-06
8.25781e-07
-3.33329e-06
8.21093e-07
-3.46383e-06
8.16216e-07
-3.59355e-06
8.11151e-07
-3.72243e-06
8.05901e-07
-3.85044e-06
8.00467e-07
-3.97754e-06
7.94851e-07
-4.10371e-06
7.89054e-07
-4.22892e-06
7.8308e-07
-4.35314e-06
7.7693e-07
-4.47635e-06
7.70605e-07
-4.59851e-06
7.64109e-07
-4.7196e-06
7.57444e-07
-4.83959e-06
7.5061e-07
-4.95846e-06
7.43613e-07
-5.07618e-06
7.36452e-07
-5.19272e-06
7.29132e-07
-5.30806e-06
7.21655e-07
-5.42217e-06
7.14023e-07
-5.53503e-06
7.06239e-07
-5.64662e-06
6.98307e-07
-5.75691e-06
6.90228e-07
-5.86588e-06
6.82007e-07
-5.97351e-06
6.73646e-07
-6.07977e-06
6.65149e-07
-6.18464e-06
6.56518e-07
-6.28811e-06
6.47758e-07
-6.39014e-06
6.38872e-07
-6.49073e-06
6.29864e-07
-6.58986e-06
6.20738e-07
-6.6875e-06
6.11497e-07
-6.78363e-06
6.02145e-07
-6.87825e-06
5.92688e-07
-6.97133e-06
5.83129e-07
-7.06286e-06
5.73473e-07
-7.15282e-06
5.63725e-07
-7.2412e-06
5.5389e-07
-7.32799e-06
5.43973e-07
-7.41317e-06
5.3398e-07
-7.49672e-06
5.23917e-07
-7.57865e-06
5.13789e-07
-7.65895e-06
5.03603e-07
-7.73759e-06
4.93367e-07
-7.81458e-06
4.83086e-07
-7.8899e-06
4.72769e-07
-7.96356e-06
4.62423e-07
-8.03555e-06
4.52058e-07
-8.10586e-06
4.41683e-07
-8.1745e-06
4.31306e-07
-8.24146e-06
4.2094e-07
-8.30675e-06
4.10594e-07
-8.37038e-06
4.00282e-07
-8.43234e-06
3.90016e-07
-8.49264e-06
3.79811e-07
-8.5513e-06
3.69682e-07
-8.60832e-06
3.59646e-07
-8.66373e-06
3.49722e-07
-8.71753e-06
3.39931e-07
-8.76976e-06
3.30294e-07
-8.82043e-06
3.20837e-07
-8.86957e-06
3.11588e-07
-8.91721e-06
3.02575e-07
-8.9634e-06
2.93835e-07
-9.00816e-06
2.85405e-07
-9.05155e-06
2.77328e-07
-9.09363e-06
2.69652e-07
-9.13444e-06
2.62434e-07
-9.17406e-06
2.55735e-07
-9.21256e-06
2.49628e-07
-9.25003e-06
2.44193e-07
-9.28656e-06
2.39526e-07
-9.32225e-06
2.35735e-07
-9.35723e-06
2.32949e-07
-9.39162e-06
2.31315e-07
-9.42559e-06
2.31007e-07
-9.45928e-06
2.32231e-07
-9.49289e-06
2.35231e-07
-9.52663e-06
2.40297e-07
-9.56071e-06
2.47777e-07
-9.59538e-06
2.5809e-07
-9.63091e-06
2.71744e-07
-9.66757e-06
2.89358e-07
-9.70565e-06
3.11688e-07
-9.74541e-06
3.39665e-07
-9.78706e-06
3.74436e-07
-9.83073e-06
4.17418e-07
-9.87635e-06
4.70364e-07
-9.92353e-06
5.35431e-07
-9.9713e-06
6.15252e-07
-1.00178e-05
7.12997e-07
-1.00598e-05
8.32362e-07
-1.00918e-05
9.77448e-07
-1.01049e-05
1.15235e-06
-1.00859e-05
1.36026e-06
-1.0016e-05
1.60167e-06
-9.87061e-06
1.87143e-06
2.15346e-06
-9.62519e-06
-6.49928e-08
4.59722e-07
-1.84364e-07
8.58564e-07
-3.20256e-07
9.8216e-07
-4.60016e-07
1.01154e-06
-6.00437e-07
1.01668e-06
-7.40842e-07
1.01666e-06
-8.81089e-07
1.01555e-06
-1.02113e-06
1.01408e-06
-1.16093e-06
1.01234e-06
-1.30046e-06
1.01036e-06
-1.43968e-06
1.00814e-06
-1.57856e-06
1.00569e-06
-1.71707e-06
1.003e-06
-1.85517e-06
1.00007e-06
-1.99283e-06
9.96903e-07
-2.13002e-06
9.93505e-07
-2.2667e-06
9.89874e-07
-2.40285e-06
9.86012e-07
-2.53843e-06
9.81919e-07
-2.67341e-06
9.77597e-07
-2.80776e-06
9.73048e-07
-2.94145e-06
9.68273e-07
-3.07445e-06
9.63273e-07
-3.20671e-06
9.5805e-07
-3.33823e-06
9.52606e-07
-3.46895e-06
9.46943e-07
-3.59887e-06
9.41062e-07
-3.72793e-06
9.34966e-07
-3.85612e-06
9.28657e-07
-3.98341e-06
9.22136e-07
-4.10976e-06
9.15406e-07
-4.23515e-06
9.08469e-07
-4.35955e-06
9.01328e-07
-4.48293e-06
8.93985e-07
-4.60526e-06
8.86443e-07
-4.72652e-06
8.78704e-07
-4.84668e-06
8.7077e-07
-4.96571e-06
8.62645e-07
-5.08359e-06
8.54331e-07
-5.20029e-06
8.45832e-07
-5.31578e-06
8.3715e-07
-5.43005e-06
8.28289e-07
-5.54306e-06
8.19252e-07
-5.6548e-06
8.10042e-07
-5.76523e-06
8.00663e-07
-5.87434e-06
7.91117e-07
-5.98211e-06
7.8141e-07
-6.0885e-06
7.71544e-07
-6.19351e-06
7.61523e-07
-6.2971e-06
7.51352e-07
-6.39926e-06
7.41035e-07
-6.49997e-06
7.30575e-07
-6.59921e-06
7.19978e-07
-6.69697e-06
7.09248e-07
-6.79321e-06
6.9839e-07
-6.88793e-06
6.87408e-07
-6.98111e-06
6.76308e-07
-7.07273e-06
6.65095e-07
-7.16278e-06
6.53775e-07
-7.25124e-06
6.42353e-07
-7.33811e-06
6.30836e-07
-7.42336e-06
6.1923e-07
-7.50698e-06
6.07542e-07
-7.58897e-06
5.95778e-07
-7.66931e-06
5.83947e-07
-7.748e-06
5.72055e-07
-7.82503e-06
5.60111e-07
-7.90038e-06
5.48124e-07
-7.97406e-06
5.36103e-07
-8.04606e-06
5.24057e-07
-8.11638e-06
5.11998e-07
-8.185e-06
4.99936e-07
-8.25195e-06
4.87883e-07
-8.31721e-06
4.75853e-07
-8.38078e-06
4.63858e-07
-8.44268e-06
4.51914e-07
-8.50291e-06
4.40038e-07
-8.56147e-06
4.28246e-07
-8.61839e-06
4.16558e-07
-8.67366e-06
4.04996e-07
-8.72731e-06
3.93581e-07
-8.77936e-06
3.8234e-07
-8.82982e-06
3.71299e-07
-8.87872e-06
3.6049e-07
-8.92609e-06
3.49947e-07
-8.97196e-06
3.39708e-07
-9.01637e-06
3.29815e-07
-9.05936e-06
3.20317e-07
-9.10098e-06
3.11267e-07
-9.14127e-06
3.02725e-07
-9.18029e-06
2.9476e-07
-9.21812e-06
2.87451e-07
-9.25481e-06
2.80887e-07
-9.29045e-06
2.75169e-07
-9.32513e-06
2.70416e-07
-9.35895e-06
2.66764e-07
-9.39201e-06
2.64372e-07
-9.42442e-06
2.63422e-07
-9.45632e-06
2.64132e-07
-9.48784e-06
2.66754e-07
-9.51913e-06
2.71588e-07
-9.55034e-06
2.78988e-07
-9.58163e-06
2.89376e-07
-9.61314e-06
3.03256e-07
-9.64501e-06
3.21232e-07
-9.67735e-06
3.44028e-07
-9.7102e-06
3.72516e-07
-9.74351e-06
4.07744e-07
-9.77706e-06
4.50967e-07
-9.81038e-06
5.03682e-07
-9.84261e-06
5.67657e-07
-9.87229e-06
6.44937e-07
-9.89712e-06
7.37824e-07
-9.91353e-06
8.48772e-07
-9.91624e-06
9.80163e-07
-9.89774e-06
1.13385e-06
-9.84783e-06
1.31035e-06
-9.75374e-06
1.50758e-06
-9.60138e-06
1.71906e-06
1.93159e-06
-9.3795e-06
-6.50871e-08
5.24809e-07
-1.84654e-07
9.7813e-07
-3.20777e-07
1.11828e-06
-4.6078e-07
1.15154e-06
-6.01446e-07
1.15735e-06
-7.42095e-07
1.15731e-06
-8.82586e-07
1.15604e-06
-1.02287e-06
1.15436e-06
-1.16291e-06
1.15238e-06
-1.30268e-06
1.15013e-06
-1.44214e-06
1.1476e-06
-1.58126e-06
1.14481e-06
-1.72e-06
1.14174e-06
-1.85833e-06
1.1384e-06
-1.99623e-06
1.1348e-06
-2.13365e-06
1.13093e-06
-2.27057e-06
1.12679e-06
-2.40695e-06
1.12239e-06
-2.54276e-06
1.11773e-06
-2.67797e-06
1.11281e-06
-2.81255e-06
1.10762e-06
-2.94646e-06
1.10218e-06
-3.07967e-06
1.09649e-06
-3.21216e-06
1.09054e-06
-3.3439e-06
1.08434e-06
-3.47484e-06
1.07789e-06
-3.60497e-06
1.07119e-06
-3.73425e-06
1.06425e-06
-3.86265e-06
1.05706e-06
-3.99014e-06
1.04963e-06
-4.1167e-06
1.04196e-06
-4.2423e-06
1.03406e-06
-4.3669e-06
1.02593e-06
-4.49048e-06
1.01757e-06
-4.61301e-06
1.00897e-06
-4.73446e-06
1.00016e-06
-4.85481e-06
9.91121e-07
-4.97403e-06
9.81866e-07
-5.0921e-06
9.72396e-07
-5.20898e-06
9.62715e-07
-5.32465e-06
9.52826e-07
-5.4391e-06
9.42733e-07
-5.55228e-06
9.32439e-07
-5.66419e-06
9.21948e-07
-5.77479e-06
9.11263e-07
-5.88406e-06
9.0039e-07
-5.99198e-06
8.89332e-07
-6.09853e-06
8.78094e-07
-6.20369e-06
8.66679e-07
-6.30743e-06
8.55093e-07
-6.40973e-06
8.4334e-07
-6.51058e-06
8.31424e-07
-6.60996e-06
8.19352e-07
-6.70784e-06
8.07128e-07
-6.8042e-06
7.94758e-07
-6.89904e-06
7.82246e-07
-6.99233e-06
7.696e-07
-7.08406e-06
7.56824e-07
-7.17421e-06
7.43926e-07
-7.26277e-06
7.30912e-07
-7.34972e-06
7.17788e-07
-7.43506e-06
7.04563e-07
-7.51876e-06
6.91243e-07
-7.60081e-06
6.77836e-07
-7.68122e-06
6.6435e-07
-7.75996e-06
6.50795e-07
-7.83703e-06
6.37179e-07
-7.91242e-06
6.23513e-07
-7.98612e-06
6.09806e-07
-8.05813e-06
5.9607e-07
-8.12845e-06
5.82316e-07
-8.19707e-06
5.68556e-07
-8.26399e-06
5.54804e-07
-8.32921e-06
5.41075e-07
-8.39274e-06
5.27383e-07
-8.45457e-06
5.13745e-07
-8.51471e-06
5.0018e-07
-8.57317e-06
4.86706e-07
-8.62996e-06
4.73345e-07
-8.68508e-06
4.60121e-07
-8.73856e-06
4.47057e-07
-8.7904e-06
4.34183e-07
-8.84063e-06
4.21527e-07
-8.88926e-06
4.09125e-07
-8.93633e-06
3.97013e-07
-8.98185e-06
3.85232e-07
-9.02587e-06
3.73829e-07
-9.06841e-06
3.62856e-07
-9.10951e-06
3.52369e-07
-9.14922e-06
3.42434e-07
-9.18758e-06
3.33125e-07
-9.22466e-06
3.24525e-07
-9.2605e-06
3.16727e-07
-9.29517e-06
3.0984e-07
-9.32874e-06
3.03987e-07
-9.36128e-06
2.9931e-07
-9.39288e-06
2.95972e-07
-9.42362e-06
2.94162e-07
-9.45359e-06
2.94101e-07
-9.48288e-06
2.96041e-07
-9.51157e-06
3.00283e-07
-9.53976e-06
3.07175e-07
-9.56751e-06
3.17127e-07
-9.59488e-06
3.30621e-07
-9.62187e-06
3.48224e-07
-9.64844e-06
3.70604e-07
-9.67447e-06
3.98544e-07
-9.69969e-06
4.32962e-07
-9.72364e-06
4.74921e-07
-9.7456e-06
5.25642e-07
-9.76444e-06
5.86499e-07
-9.7785e-06
6.58994e-07
-9.78536e-06
7.44683e-07
-9.78163e-06
8.45045e-07
-9.7627e-06
9.61234e-07
-9.72254e-06
1.09368e-06
-9.6537e-06
1.24151e-06
-9.54779e-06
1.40167e-06
-9.39677e-06
1.56805e-06
1.73053e-06
-9.19572e-06
-6.52028e-08
5.90011e-07
-1.84995e-07
1.09792e-06
-3.21381e-07
1.25467e-06
-4.61657e-07
1.29182e-06
-6.02599e-07
1.29829e-06
-7.43525e-07
1.29824e-06
-8.84292e-07
1.29681e-06
-1.02485e-06
1.29492e-06
-1.16517e-06
1.2927e-06
-1.30521e-06
1.29017e-06
-1.44494e-06
1.28733e-06
-1.58432e-06
1.28419e-06
-1.72334e-06
1.28075e-06
-1.86194e-06
1.27701e-06
-2.0001e-06
1.27296e-06
-2.13779e-06
1.26862e-06
-2.27497e-06
1.26397e-06
-2.41161e-06
1.25903e-06
-2.54768e-06
1.2538e-06
-2.68315e-06
1.24828e-06
-2.81798e-06
1.24246e-06
-2.95215e-06
1.23635e-06
-3.08562e-06
1.22996e-06
-3.21836e-06
1.22328e-06
-3.35035e-06
1.21632e-06
-3.48154e-06
1.20908e-06
-3.61191e-06
1.20156e-06
-3.74143e-06
1.19377e-06
-3.87008e-06
1.1857e-06
-3.99781e-06
1.17736e-06
-4.1246e-06
1.16876e-06
-4.25043e-06
1.15989e-06
-4.37526e-06
1.15076e-06
-4.49907e-06
1.14137e-06
-4.62182e-06
1.13173e-06
-4.7435e-06
1.12183e-06
-4.86407e-06
1.11169e-06
-4.9835e-06
1.1013e-06
-5.10178e-06
1.09067e-06
-5.21887e-06
1.07981e-06
-5.33475e-06
1.06871e-06
-5.44939e-06
1.05738e-06
-5.56277e-06
1.04582e-06
-5.67487e-06
1.03405e-06
-5.78566e-06
1.02205e-06
-5.89512e-06
1.00985e-06
-6.00322e-06
9.97435e-07
-6.10995e-06
9.8482e-07
-6.21527e-06
9.72006e-07
-6.31918e-06
9.59e-07
-6.42165e-06
9.45806e-07
-6.52265e-06
9.3243e-07
-6.62218e-06
9.18878e-07
-6.7202e-06
9.05154e-07
-6.81671e-06
8.91266e-07
-6.91169e-06
8.77219e-07
-7.00511e-06
8.6302e-07
-7.09696e-06
8.48676e-07
-7.18723e-06
8.34193e-07
-7.27589e-06
8.1958e-07
-7.36295e-06
8.04843e-07
-7.44837e-06
7.8999e-07
-7.53216e-06
7.7503e-07
-7.6143e-06
7.59972e-07
-7.69477e-06
7.44824e-07
-7.77357e-06
7.29596e-07
-7.85069e-06
7.14299e-07
-7.92612e-06
6.98942e-07
-7.99985e-06
6.83539e-07
-8.07188e-06
6.681e-07
-8.1422e-06
6.52638e-07
-8.21082e-06
6.37168e-07
-8.27771e-06
6.21703e-07
-8.3429e-06
6.06259e-07
-8.40637e-06
5.90853e-07
-8.46813e-06
5.75503e-07
-8.52818e-06
5.6023e-07
-8.58652e-06
5.45053e-07
-8.64317e-06
5.29996e-07
-8.69814e-06
5.15084e-07
-8.75142e-06
5.00343e-07
-8.80304e-06
4.85805e-07
-8.85302e-06
4.71501e-07
-8.90136e-06
4.57468e-07
-8.94809e-06
4.43745e-07
-8.99324e-06
4.30376e-07
-9.03682e-06
4.17411e-07
-9.07887e-06
4.04904e-07
-9.11941e-06
3.92916e-07
-9.15849e-06
3.81515e-07
-9.19615e-06
3.70777e-07
-9.23241e-06
3.60789e-07
-9.26733e-06
3.5165e-07
-9.30096e-06
3.43468e-07
-9.33335e-06
3.36372e-07
-9.36454e-06
3.30505e-07
-9.3946e-06
3.26031e-07
-9.42358e-06
3.2314e-07
-9.45152e-06
3.22048e-07
-9.47849e-06
3.23006e-07
-9.50451e-06
3.26303e-07
-9.52961e-06