/*--------------------------------*- C++ -*----------------------------------*\
  =========                 |
  \\      /  F ield         | OpenFOAM: The Open Source CFD Toolbox
   \\    /   O peration     | Website:  https://openfoam.org
    \\  /    A nd           | Version:  8
     \\/     M anipulation  |
\*---------------------------------------------------------------------------*/
FoamFile
{
    version     2.0;
    format      ascii;
    class       surfaceScalarField;
    location    "3";
    object      phi;
}
// * * * * * * * * * * * * * * * * * * * * * * * * * * * * * * * * * * * * * //

dimensions      [0 3 -1 0 0 0 0];

internalField   nonuniform List<scalar> 
22960
(
-2.13582e-07
2.13582e-07
-4.60914e-07
2.47332e-07
-7.09431e-07
2.48517e-07
-9.5729e-07
2.47858e-07
-1.20419e-06
2.46905e-07
-1.4499e-06
2.4571e-07
-1.69418e-06
2.44275e-07
-1.93678e-06
2.42601e-07
-2.17747e-06
2.40691e-07
-2.41602e-06
2.38547e-07
-2.65219e-06
2.36172e-07
-2.88576e-06
2.3357e-07
-3.1165e-06
2.30744e-07
-3.3442e-06
2.277e-07
-3.56865e-06
2.24442e-07
-3.78962e-06
2.20974e-07
-4.00692e-06
2.17303e-07
-4.22036e-06
2.13434e-07
-4.42973e-06
2.09372e-07
-4.63485e-06
2.05125e-07
-4.83555e-06
2.00699e-07
-5.03165e-06
1.961e-07
-5.22299e-06
1.91338e-07
-5.40941e-06
1.86419e-07
-5.59076e-06
1.81352e-07
-5.76691e-06
1.76145e-07
-5.93772e-06
1.70809e-07
-6.10307e-06
1.65353e-07
-6.26286e-06
1.59788e-07
-6.41698e-06
1.54125e-07
-6.56536e-06
1.48377e-07
-6.70792e-06
1.42557e-07
-6.8446e-06
1.3668e-07
-6.97536e-06
1.30763e-07
-7.10018e-06
1.24824e-07
-7.21907e-06
1.18882e-07
-7.33203e-06
1.12963e-07
-7.43912e-06
1.07093e-07
-7.54043e-06
1.01304e-07
-7.63606e-06
9.56325e-08
-7.72618e-06
9.01247e-08
-7.81102e-06
8.4835e-08
-7.89085e-06
7.98311e-08
-7.96605e-06
7.5198e-08
-8.03709e-06
7.10445e-08
-8.1046e-06
6.75119e-08
-8.16939e-06
6.47882e-08
-8.23252e-06
6.31288e-08
-8.29541e-06
6.28901e-08
-8.35999e-06
6.458e-08
-8.42894e-06
6.89449e-08
-8.50606e-06
7.71244e-08
-8.59698e-06
9.09218e-08
-8.71029e-06
1.13309e-07
-8.85969e-06
1.49397e-07
-9.06824e-06
2.08547e-07
-9.37627e-06
3.08039e-07
-9.84007e-06
4.63793e-07
-1.0716e-05
8.75953e-07
1.3888e-06
-1.21048e-05
-2.47752e-07
4.61334e-07
-5.32215e-07
5.31795e-07
-8.18065e-07
5.34367e-07
-1.10319e-06
5.32984e-07
-1.38723e-06
5.30944e-07
-1.6699e-06
5.28377e-07
-1.95091e-06
5.2529e-07
-2.23e-06
5.21687e-07
-2.50688e-06
5.17576e-07
-2.7813e-06
5.1296e-07
-3.05297e-06
5.07849e-07
-3.32165e-06
5.02248e-07
-3.58708e-06
4.96168e-07
-3.84899e-06
4.89617e-07
-4.10715e-06
4.82604e-07
-4.36132e-06
4.75142e-07
-4.61126e-06
4.67242e-07
-4.85674e-06
4.58915e-07
-5.09755e-06
4.50175e-07
-5.33346e-06
4.41035e-07
-5.56427e-06
4.31511e-07
-5.78978e-06
4.21616e-07
-6.00981e-06
4.11368e-07
-6.22418e-06
4.00784e-07
-6.43271e-06
3.89881e-07
-6.63524e-06
3.78678e-07
-6.83163e-06
3.67195e-07
-7.02173e-06
3.55455e-07
-7.20542e-06
3.43479e-07
-7.38259e-06
3.31293e-07
-7.55313e-06
3.18923e-07
-7.71697e-06
3.06397e-07
-7.87404e-06
2.93748e-07
-8.02429e-06
2.8101e-07
-8.16769e-06
2.68223e-07
-8.30423e-06
2.5543e-07
-8.43395e-06
2.4268e-07
-8.55689e-06
2.30033e-07
-8.67314e-06
2.17553e-07
-8.78283e-06
2.05322e-07
-8.88614e-06
1.93432e-07
-8.9833e-06
1.82e-07
-9.07464e-06
1.71166e-07
-9.16055e-06
1.61107e-07
-9.24155e-06
1.52047e-07
-9.31831e-06
1.44278e-07
-9.39171e-06
1.38183e-07
-9.46286e-06
1.34276e-07
-9.53323e-06
1.33267e-07
-9.60481e-06
1.36153e-07
-9.68023e-06
1.44368e-07
-9.76314e-06
1.6004e-07
-9.85864e-06
1.86422e-07
-9.97399e-06
2.28651e-07
-1.01197e-05
2.95115e-07
-1.03113e-05
4.00116e-07
-1.05714e-05
5.68125e-07
-1.09383e-05
8.30781e-07
-1.14426e-05
1.3802e-06
1.84958e-06
-1.19034e-05
-2.4986e-07
7.11194e-07
-5.36773e-07
8.18707e-07
-8.25033e-07
8.22628e-07
-1.11255e-06
8.20499e-07
-1.39896e-06
8.17358e-07
-1.68399e-06
8.13404e-07
-1.96735e-06
8.08649e-07
-2.24876e-06
8.031e-07
-2.52795e-06
7.96766e-07
-2.80465e-06
7.89657e-07
-3.07858e-06
7.81782e-07
-3.34949e-06
7.73155e-07
-3.61711e-06
7.63789e-07
-3.88119e-06
7.53697e-07
-4.14148e-06
7.42895e-07
-4.39774e-06
7.31401e-07
-4.64973e-06
7.19231e-07
-4.89722e-06
7.06404e-07
-5.13998e-06
6.92941e-07
-5.37781e-06
6.78862e-07
-5.61049e-06
6.64191e-07
-5.83782e-06
6.48949e-07
-6.05962e-06
6.33163e-07
-6.27569e-06
6.16857e-07
-6.48587e-06
6.0006e-07
-6.68999e-06
5.82802e-07
-6.88791e-06
5.65111e-07
-7.07948e-06
5.47022e-07
-7.26457e-06
5.28569e-07
-7.44306e-06
5.0979e-07
-7.61487e-06
4.90725e-07
-7.77989e-06
4.71418e-07
-7.93806e-06
4.51918e-07
-8.08932e-06
4.32276e-07
-8.23365e-06
4.12552e-07
-8.37103e-06
3.92811e-07
-8.50148e-06
3.7313e-07
-8.62504e-06
3.53593e-07
-8.74179e-06
3.343e-07
-8.85184e-06
3.1537e-07
-8.95535e-06
2.96941e-07
-9.05253e-06
2.79182e-07
-9.14366e-06
2.623e-07
-9.22911e-06
2.4655e-07
-9.30931e-06
2.32255e-07
-9.38486e-06
2.19827e-07
-9.45648e-06
2.09804e-07
-9.52511e-06
2.02897e-07
-9.5919e-06
2.00064e-07
-9.65837e-06
2.02622e-07
-9.72641e-06
2.1241e-07
-9.79842e-06
2.32045e-07
-9.87733e-06
2.65331e-07
-9.96657e-06
3.17892e-07
-1.00696e-05
3.98173e-07
-1.01885e-05
5.19025e-07
-1.03199e-05
6.99527e-07
-1.04565e-05
9.67369e-07
-1.04802e-05
1.40392e-06
1.82194e-06
-1.04526e-05
-2.50611e-07
9.61806e-07
-5.38424e-07
1.10652e-06
-8.27573e-07
1.11178e-06
-1.11597e-06
1.1089e-06
-1.40326e-06
1.10465e-06
-1.68916e-06
1.0993e-06
-1.97338e-06
1.09287e-06
-2.25565e-06
1.08537e-06
-2.53568e-06
1.0768e-06
-2.81321e-06
1.06718e-06
-3.08796e-06
1.05654e-06
-3.35968e-06
1.04487e-06
-3.62809e-06
1.0322e-06
-3.89294e-06
1.01855e-06
-4.15399e-06
1.00394e-06
-4.41098e-06
9.88397e-07
-4.66369e-06
9.71938e-07
-4.91188e-06
9.5459e-07
-5.15532e-06
9.36382e-07
-5.3938e-06
9.1734e-07
-5.6271e-06
8.97497e-07
-5.85503e-06
8.76882e-07
-6.0774e-06
8.55529e-07
-6.29402e-06
8.33474e-07
-6.50471e-06
8.10753e-07
-6.70931e-06
7.87406e-07
-6.90768e-06
7.63473e-07
-7.09965e-06
7.38999e-07
-7.28511e-06
7.1403e-07
-7.46394e-06
6.88616e-07
-7.63602e-06
6.62811e-07
-7.80128e-06
6.36673e-07
-7.95963e-06
6.10266e-07
-8.11101e-06
5.83659e-07
-8.25539e-06
5.5693e-07
-8.39274e-06
5.30166e-07
-8.52308e-06
5.03463e-07
-8.64642e-06
4.76935e-07
-8.76283e-06
4.50709e-07
-8.87239e-06
4.24936e-07
-8.97525e-06
3.99795e-07
-9.07156e-06
3.75498e-07
-9.16157e-06
3.52305e-07
-9.24555e-06
3.30534e-07
-9.32388e-06
3.10579e-07
-9.39699e-06
2.9294e-07
-9.46544e-06
2.78257e-07
-9.5299e-06
2.67359e-07
-9.59118e-06
2.6134e-07
-9.65021e-06
2.61656e-07
-9.70808e-06
2.70278e-07
-9.76593e-06
2.89892e-07
-9.82481e-06
3.24207e-07
-9.88527e-06
3.78355e-07
-9.94653e-06
4.59437e-07
-1.00046e-05
5.77119e-07
-1.00491e-05
7.43993e-07
-1.00575e-05
9.75774e-07
-9.95154e-06
1.29796e-06
1.63846e-06
-9.76805e-06
-2.51561e-07
1.21337e-06
-5.40479e-07
1.39544e-06
-8.30735e-07
1.40203e-06
-1.12023e-06
1.39839e-06
-1.40862e-06
1.39303e-06
-1.6956e-06
1.38629e-06
-1.9809e-06
1.37817e-06
-2.26423e-06
1.3687e-06
-2.54531e-06
1.35789e-06
-2.82388e-06
1.34575e-06
-3.09965e-06
1.33231e-06
-3.37237e-06
1.31758e-06
-3.64176e-06
1.30159e-06
-3.90757e-06
1.28437e-06
-4.16956e-06
1.26593e-06
-4.42747e-06
1.24631e-06
-4.68107e-06
1.22553e-06
-4.93012e-06
1.20364e-06
-5.17439e-06
1.18066e-06
-5.41367e-06
1.15662e-06
-5.64775e-06
1.13158e-06
-5.87642e-06
1.10555e-06
-6.09949e-06
1.0786e-06
-6.31678e-06
1.05076e-06
-6.5281e-06
1.02207e-06
-6.73329e-06
9.92597e-07
-6.93219e-06
9.62377e-07
-7.12467e-06
9.31471e-07
-7.31057e-06
8.99936e-07
-7.48979e-06
8.67833e-07
-7.66221e-06
8.35229e-07
-7.82773e-06
8.02197e-07
-7.98628e-06
7.68813e-07
-8.13779e-06
7.35164e-07
-8.2822e-06
7.01343e-07
-8.41949e-06
6.67456e-07
-8.54965e-06
6.33621e-07
-8.67268e-06
5.99971e-07
-8.78863e-06
5.66659e-07
-8.89756e-06
5.33863e-07
-8.99956e-06
5.01793e-07
-9.09476e-06
4.70696e-07
-9.18332e-06
4.40869e-07
-9.26546e-06
4.12671e-07
-9.34142e-06
3.86546e-07
-9.41153e-06
3.63041e-07
-9.47611e-06
3.42846e-07
-9.53559e-06
3.26835e-07
-9.59038e-06
3.1613e-07
-9.6409e-06
3.12178e-07
-9.68749e-06
3.16863e-07
-9.73023e-06
3.32638e-07
-9.76872e-06
3.62698e-07
-9.80154e-06
4.11166e-07
-9.82534e-06
4.83243e-07
-9.83343e-06
5.85208e-07
-9.81342e-06
7.2398e-07
-9.74357e-06
9.05924e-07
-9.57948e-06
1.13388e-06
1.37906e-06
-9.32009e-06
-2.52763e-07
1.46613e-06
-5.4307e-07
1.68574e-06
-8.34718e-07
1.69368e-06
-1.1256e-06
1.68928e-06
-1.41537e-06
1.6828e-06
-1.70372e-06
1.67464e-06
-1.99037e-06
1.66482e-06
-2.27504e-06
1.65337e-06
-2.55745e-06
1.64029e-06
-2.83732e-06
1.62562e-06
-3.11437e-06
1.60936e-06
-3.38835e-06
1.59156e-06
-3.65898e-06
1.57222e-06
-3.92601e-06
1.55139e-06
-4.18918e-06
1.5291e-06
-4.44824e-06
1.50537e-06
-4.70296e-06
1.48025e-06
-4.95309e-06
1.45377e-06
-5.19842e-06
1.42598e-06
-5.43872e-06
1.39692e-06
-5.67377e-06
1.36663e-06
-5.90337e-06
1.33516e-06
-6.12733e-06
1.30256e-06
-6.34546e-06
1.26888e-06
-6.55757e-06
1.23419e-06
-6.7635e-06
1.19853e-06
-6.96309e-06
1.16197e-06
-7.15619e-06
1.12457e-06
-7.34267e-06
1.08641e-06
-7.52238e-06
1.04755e-06
-7.69523e-06
1.00808e-06
-7.8611e-06
9.68071e-07
-8.01992e-06
9.27625e-07
-8.17159e-06
8.86839e-07
-8.31607e-06
8.45821e-07
-8.45331e-06
8.04693e-07
-8.58327e-06
7.6359e-07
-8.70597e-06
7.22663e-07
-8.82139e-06
6.82085e-07
-8.92959e-06
6.42056e-07
-9.0306e-06
6.02807e-07
-9.12451e-06
5.64608e-07
-9.21142e-06
5.2778e-07
-9.29146e-06
4.92706e-07
-9.36476e-06
4.59851e-07
-9.4315e-06
4.29776e-07
-9.49183e-06
4.03177e-07
-9.5459e-06
3.80909e-07
-9.59381e-06
3.64041e-07
-9.63554e-06
3.53902e-07
-9.67083e-06
3.52153e-07
-9.69904e-06
3.60851e-07
-9.71886e-06
3.82513e-07
-9.72783e-06
4.2014e-07
-9.72173e-06
4.77142e-07
-9.69357e-06
5.57052e-07
-9.63242e-06
6.62824e-07
-9.52193e-06
7.95433e-07
-9.3389e-06
9.50851e-07
1.11229e-06
-9.07213e-06
-2.5422e-07
1.72035e-06
-5.46203e-07
1.97773e-06
-8.39535e-07
1.98701e-06
-1.1321e-06
1.98184e-06
-1.42352e-06
1.97423e-06
-1.71353e-06
1.96464e-06
-2.00182e-06
1.95311e-06
-2.28811e-06
1.93966e-06
-2.57212e-06
1.9243e-06
-2.85357e-06
1.90707e-06
-3.13218e-06
1.88798e-06
-3.40768e-06
1.86706e-06
-3.67981e-06
1.84435e-06
-3.9483e-06
1.81989e-06
-4.2129e-06
1.7937e-06
-4.47336e-06
1.76583e-06
-4.72943e-06
1.73632e-06
-4.98088e-06
1.70522e-06
-5.22748e-06
1.67258e-06
-5.469e-06
1.63844e-06
-5.70523e-06
1.60286e-06
-5.93596e-06
1.56589e-06
-6.161e-06
1.52759e-06
-6.38014e-06
1.48803e-06
-6.59322e-06
1.44726e-06
-6.80005e-06
1.40536e-06
-7.00048e-06
1.3624e-06
-7.19435e-06
1.31844e-06
-7.38151e-06
1.27357e-06
-7.56184e-06
1.22788e-06
-7.73522e-06
1.18145e-06
-7.90153e-06
1.13438e-06
-8.06069e-06
1.08678e-06
-8.21259e-06
1.03874e-06
-8.35718e-06
9.90407e-07
-8.49439e-06
9.41903e-07
-8.62418e-06
8.93378e-07
-8.74651e-06
8.45e-07
-8.86138e-06
7.96956e-07
-8.96879e-06
7.4946e-07
-9.06874e-06
7.02758e-07
-9.16126e-06
6.57132e-07
-9.2464e-06
6.12914e-07
-9.32419e-06
5.70495e-07
-9.39467e-06
5.30335e-07
-9.45788e-06
4.92987e-07
-9.51382e-06
4.59112e-07
-9.56241e-06
4.29505e-07
-9.6035e-06
4.05125e-07
-9.63672e-06
3.87124e-07
-9.66144e-06
3.76872e-07
-9.67657e-06
3.7598e-07
-9.68034e-06
3.86282e-07
-9.66997e-06
4.0977e-07
-9.64124e-06
4.48418e-07
-9.588e-06
5.03813e-07
-9.50166e-06
5.76486e-07
-9.371e-06
6.64767e-07
-9.18282e-06
7.62671e-07
8.59002e-07
-8.92953e-06
-2.55933e-07
1.97628e-06
-5.49885e-07
2.27168e-06
-8.45193e-07
2.28232e-06
-1.13972e-06
2.27637e-06
-1.43311e-06
2.26761e-06
-1.72505e-06
2.25659e-06
-2.01527e-06
2.24333e-06
-2.30346e-06
2.22785e-06
-2.58935e-06
2.21019e-06
-2.87265e-06
2.19037e-06
-3.15309e-06
2.16841e-06
-3.43038e-06
2.14435e-06
-3.70427e-06
2.11824e-06
-3.97448e-06
2.0901e-06
-4.24076e-06
2.05998e-06
-4.50286e-06
2.02793e-06
-4.76052e-06
1.99399e-06
-5.01352e-06
1.95822e-06
-5.26161e-06
1.92067e-06
-5.50457e-06
1.8814e-06
-5.74219e-06
1.84047e-06
-5.97425e-06
1.79795e-06
-6.20055e-06
1.75389e-06
-6.4209e-06
1.70838e-06
-6.63511e-06
1.66147e-06
-6.84301e-06
1.61326e-06
-7.04442e-06
1.56381e-06
-7.2392e-06
1.51322e-06
-7.42719e-06
1.46157e-06
-7.60826e-06
1.40895e-06
-7.78228e-06
1.35547e-06
-7.94913e-06
1.30123e-06
-8.1087e-06
1.24635e-06
-8.26091e-06
1.19095e-06
-8.40566e-06
1.13516e-06
-8.54289e-06
1.07913e-06
-8.67252e-06
1.02302e-06
-8.79452e-06
9.66998e-07
-8.90884e-06
9.11273e-07
-9.01544e-06
8.56063e-07
-9.1143e-06
8.0162e-07
-9.2054e-06
7.48233e-07
-9.28872e-06
6.96231e-07
-9.36422e-06
6.45997e-07
-9.43186e-06
5.97976e-07
-9.49156e-06
5.52685e-07
-9.54318e-06
5.10729e-07
-9.58649e-06
4.72815e-07
-9.62113e-06
4.39766e-07
-9.64653e-06
4.12527e-07
-9.66183e-06
3.92174e-07
-9.66574e-06
3.79885e-07
-9.65636e-06
3.76899e-07
-9.63099e-06
3.84402e-07
-9.5859e-06
4.03326e-07
-9.5161e-06
4.34012e-07
-9.41528e-06
4.75674e-07
-9.27606e-06
5.25548e-07
-9.09152e-06
5.78124e-07
6.25025e-07
-8.85754e-06
-2.57903e-07
2.23419e-06
-5.5412e-07
2.5679e-06
-8.51702e-07
2.5799e-06
-1.14849e-06
2.57316e-06
-1.44413e-06
2.56325e-06
-1.73831e-06
2.55077e-06
-2.03074e-06
2.53575e-06
-2.32112e-06
2.51824e-06
-2.60917e-06
2.49824e-06
-2.8946e-06
2.4758e-06
-3.17714e-06
2.45094e-06
-3.45649e-06
2.42371e-06
-3.7324e-06
2.39414e-06
-4.00459e-06
2.36229e-06
-4.2728e-06
2.32819e-06
-4.53678e-06
2.29191e-06
-4.79628e-06
2.25349e-06
-5.05106e-06
2.21299e-06
-5.30087e-06
2.17048e-06
-5.54549e-06
2.12603e-06
-5.7847e-06
2.07969e-06
-6.01829e-06
2.03154e-06
-6.24606e-06
1.98165e-06
-6.46779e-06
1.93011e-06
-6.68331e-06
1.87699e-06
-6.89244e-06
1.82238e-06
-7.095e-06
1.76637e-06
-7.29084e-06
1.70905e-06
-7.47979e-06
1.65052e-06
-7.66172e-06
1.59088e-06
-7.8365e-06
1.53025e-06
-8.00399e-06
1.46873e-06
-8.16408e-06
1.40645e-06
-8.31667e-06
1.34354e-06
-8.46167e-06
1.28015e-06
-8.59897e-06
1.21643e-06
-8.72851e-06
1.15255e-06
-8.85021e-06
1.0887e-06
-8.96401e-06
1.02507e-06
-9.06983e-06
9.6189e-07
-9.16763e-06
8.99417e-07
-9.25733e-06
8.37934e-07
-9.33886e-06
7.77762e-07
-9.41213e-06
7.19266e-07
-9.47702e-06
6.6286e-07
-9.53335e-06
6.09015e-07
-9.58088e-06
5.58266e-07
-9.61929e-06
5.11221e-07
-9.64808e-06
4.68555e-07
-9.66657e-06
4.31015e-07
-9.67379e-06
3.99397e-07
-9.66842e-06
3.74513e-07
-9.64864e-06
3.57122e-07
-9.61205e-06
3.47815e-07
-9.55556e-06
3.4683e-07
-9.47533e-06
3.53785e-07
-9.36694e-06
3.67282e-07
-9.22573e-06
3.84336e-07
-9.04821e-06
4.0061e-07
4.09488e-07
-8.83268e-06
-2.60134e-07
2.49432e-06
-5.58915e-07
2.86668e-06
-8.5907e-07
2.88006e-06
-1.15843e-06
2.87252e-06
-1.45661e-06
2.86143e-06
-1.75332e-06
2.84747e-06
-2.04825e-06
2.83069e-06
-2.34111e-06
2.8111e-06
-2.63161e-06
2.78874e-06
-2.91946e-06
2.76365e-06
-3.20436e-06
2.73585e-06
-3.48605e-06
2.7054e-06
-3.76425e-06
2.67234e-06
-4.03868e-06
2.63672e-06
-4.30908e-06
2.59859e-06
-4.57519e-06
2.55802e-06
-4.83677e-06
2.51506e-06
-5.09355e-06
2.46978e-06
-5.34531e-06
2.42225e-06
-5.59182e-06
2.37253e-06
-5.83284e-06
2.32071e-06
-6.06817e-06
2.26686e-06
-6.29758e-06
2.21107e-06
-6.5209e-06
2.15342e-06
-6.73791e-06
2.09401e-06
-6.94844e-06
2.03291e-06
-7.15231e-06
1.97024e-06
-7.34935e-06
1.9061e-06
-7.53941e-06
1.84058e-06
-7.72234e-06
1.77381e-06
-7.898e-06
1.7059e-06
-8.06625e-06
1.63698e-06
-8.22697e-06
1.56717e-06
-8.38004e-06
1.49662e-06
-8.52536e-06
1.42547e-06
-8.66283e-06
1.3539e-06
-8.79234e-06
1.28207e-06
-8.91381e-06
1.21017e-06
-9.02715e-06
1.1384e-06
-9.13226e-06
1.067e-06
-9.22906e-06
9.96215e-07
-9.31744e-06
9.26313e-07
-9.39728e-06
8.57605e-07
-9.46844e-06
7.90428e-07
-9.53074e-06
7.25162e-07
-9.58395e-06
6.62224e-07
-9.62776e-06
6.02076e-07
-9.66176e-06
5.45221e-07
-9.68541e-06
4.92199e-07
-9.69797e-06
4.43572e-07
-9.69847e-06
3.99902e-07
-9.68566e-06
3.61702e-07
-9.65791e-06
3.29374e-07
-9.61319e-06
3.03098e-07
-9.54905e-06
2.82688e-07
-9.46265e-06
2.67388e-07
-9.35096e-06
2.55586e-07
-9.2113e-06
2.4468e-07
-9.04181e-06
2.31118e-07
2.09896e-07
-8.84222e-06
-2.62629e-07
2.75695e-06
-5.64278e-07
3.16833e-06
-8.6731e-07
3.18309e-06
-1.16953e-06
3.17474e-06
-1.47056e-06
3.16246e-06
-1.7701e-06
3.14701e-06
-2.06783e-06
3.12842e-06
-2.36346e-06
3.10673e-06
-2.6567e-06
3.08198e-06
-2.94724e-06
3.05419e-06
-3.23481e-06
3.02341e-06
-3.51911e-06
2.9897e-06
-3.79986e-06
2.95309e-06
-4.0768e-06
2.91365e-06
-4.34964e-06
2.87144e-06
-4.61814e-06
2.82652e-06
-4.88204e-06
2.77895e-06
-5.14108e-06
2.72882e-06
-5.39502e-06
2.67619e-06
-5.64363e-06
2.62114e-06
-5.88667e-06
2.56376e-06
-6.12394e-06
2.50413e-06
-6.35522e-06
2.44235e-06
-6.5803e-06
2.3785e-06
-6.79898e-06
2.31269e-06
-7.01109e-06
2.24502e-06
-7.21644e-06
2.17559e-06
-7.41485e-06
2.10451e-06
-7.60617e-06
2.0319e-06
-7.79023e-06
1.95788e-06
-7.9669e-06
1.88257e-06
-8.13603e-06
1.80611e-06
-8.29749e-06
1.72863e-06
-8.45116e-06
1.65028e-06
-8.59691e-06
1.57122e-06
-8.73463e-06
1.49162e-06
-8.86421e-06
1.41165e-06
-8.98554e-06
1.3315e-06
-9.09851e-06
1.25137e-06
-9.203e-06
1.1715e-06
-9.29891e-06
1.09212e-06
-9.38608e-06
1.01349e-06
-9.46438e-06
9.35904e-07
-9.53362e-06
8.59668e-07
-9.59358e-06
7.85121e-07
-9.64399e-06
7.12628e-07
-9.68449e-06
6.42578e-07
-9.71464e-06
5.75377e-07
-9.73389e-06
5.11442e-07
-9.7415e-06
4.51182e-07
-9.73656e-06
3.94965e-07
-9.71794e-06
3.43083e-07
-9.68425e-06
2.95681e-07
-9.63383e-06
2.52679e-07
-9.56479e-06
2.13654e-07
-9.4751e-06
1.77698e-07
-9.36275e-06
1.43229e-07
-9.22625e-06
1.0818e-07
-9.06472e-06
6.95931e-08
2.39018e-08
-8.87873e-06
-2.65392e-07
3.02234e-06
-5.70216e-07
3.47315e-06
-8.76434e-07
3.48931e-06
-1.18183e-06
3.48013e-06
-1.48601e-06
3.46665e-06
-1.78868e-06
3.44967e-06
-2.08951e-06
3.42926e-06
-2.38821e-06
3.40543e-06
-2.68448e-06
3.37824e-06
-2.97801e-06
3.34772e-06
-3.26851e-06
3.31392e-06
-3.5557e-06
3.27689e-06
-3.83929e-06
3.23668e-06
-4.119e-06
3.19336e-06
-4.39456e-06
3.147e-06
-4.6657e-06
3.09766e-06
-4.93216e-06
3.04542e-06
-5.19369e-06
2.99035e-06
-5.45005e-06
2.93254e-06
-5.70099e-06
2.87208e-06
-5.94629e-06
2.80905e-06
-6.18571e-06
2.74356e-06
-6.41905e-06
2.67569e-06
-6.64609e-06
2.60555e-06
-6.86664e-06
2.53324e-06
-7.0805e-06
2.45888e-06
-7.2875e-06
2.38258e-06
-7.48744e-06
2.30445e-06
-7.68017e-06
2.22463e-06
-7.86552e-06
2.14323e-06
-8.04334e-06
2.06039e-06
-8.21349e-06
1.97625e-06
-8.37582e-06
1.89096e-06
-8.53019e-06
1.80466e-06
-8.67649e-06
1.71752e-06
-8.81457e-06
1.62971e-06
-8.94433e-06
1.5414e-06
-9.06563e-06
1.45279e-06
-9.17834e-06
1.36409e-06
-9.28234e-06
1.2755e-06
-9.37749e-06
1.18726e-06
-9.46362e-06
1.09962e-06
-9.54056e-06
1.01284e-06
-9.6081e-06
9.27209e-07
-9.666e-06
8.43017e-07
-9.71395e-06
7.60581e-07
-9.75159e-06
6.80221e-07
-9.77848e-06
6.02262e-07
-9.79405e-06
5.27015e-07
-9.79763e-06
4.54763e-07
-9.7884e-06
3.8573e-07
-9.76536e-06
3.20044e-07
-9.72736e-06
2.57684e-07
-9.67309e-06
1.98414e-07
-9.60115e-06
1.41706e-07
-9.51007e-06
8.66225e-08
-9.39871e-06
3.18645e-08
-9.26616e-06
-2.43701e-08
-9.112e-06
-8.45647e-08
-1.51284e-07
-8.93681e-06
-2.68427e-07
3.29077e-06
-5.76738e-07
3.78146e-06
-8.86457e-07
3.79903e-06
-1.19534e-06
3.78901e-06
-1.50299e-06
3.7743e-06
-1.80909e-06
3.75577e-06
-2.11333e-06
3.7335e-06
-2.4154e-06
3.7075e-06
-2.71499e-06
3.67783e-06
-3.01181e-06
3.64453e-06
-3.30554e-06
3.60765e-06
-3.5959e-06
3.56725e-06
-3.8826e-06
3.52338e-06
-4.16535e-06
3.47612e-06
-4.44389e-06
3.42553e-06
-4.71793e-06
3.3717e-06
-4.98721e-06
3.3147e-06
-5.25149e-06
3.25462e-06
-5.5105e-06
3.19155e-06
-5.764e-06
3.12559e-06
-6.01177e-06
3.05682e-06
-6.25357e-06
2.98535e-06
-6.48917e-06
2.9113e-06
-6.71838e-06
2.83475e-06
-6.94098e-06
2.75584e-06
-7.15679e-06
2.67468e-06
-7.3656e-06
2.59139e-06
-7.56725e-06
2.5061e-06
-7.76155e-06
2.41893e-06
-7.94834e-06
2.33002e-06
-8.12746e-06
2.23951e-06
-8.29876e-06
2.14755e-06
-8.46209e-06
2.05429e-06
-8.61731e-06
1.95988e-06
-8.76427e-06
1.86449e-06
-8.90285e-06
1.76829e-06
-9.03291e-06
1.67146e-06
-9.1543e-06
1.57419e-06
-9.2669e-06
1.47668e-06
-9.37054e-06
1.37915e-06
-9.46509e-06
1.2818e-06
-9.55035e-06
1.18489e-06
-9.62614e-06
1.08863e-06
-9.69223e-06
9.93302e-07
-9.74837e-06
8.99153e-07
-9.79424e-06
8.06452e-07
-9.82948e-06
7.15462e-07
-9.85366e-06
6.26436e-07
-9.86624e-06
5.39601e-07
-9.86662e-06
4.55144e-07
-9.85408e-06
3.73182e-07
-9.82776e-06
2.93733e-07
-9.78675e-06
2.16673e-07
-9.73003e-06
1.4169e-07
-9.65655e-06
6.82263e-08
-9.56538e-06
-4.54675e-09
-9.45568e-06
-7.78398e-08
-9.32693e-06
-1.53114e-07
-9.17929e-06
-2.32205e-07
-3.171e-07
-9.01348e-06
-2.71739e-07
3.56251e-06
-5.83856e-07
4.09358e-06
-8.97394e-07
4.11256e-06
-1.21008e-06
4.10169e-06
-1.52151e-06
4.08573e-06
-1.83136e-06
4.06563e-06
-2.13932e-06
4.04146e-06
-2.44506e-06
4.01325e-06
-2.74829e-06
3.98106e-06
-3.04868e-06
3.94492e-06
-3.34593e-06
3.90491e-06
-3.63975e-06
3.86107e-06
-3.92985e-06
3.81347e-06
-4.21592e-06
3.7622e-06
-4.4977e-06
3.70731e-06
-4.77491e-06
3.64891e-06
-5.04728e-06
3.58707e-06
-5.31454e-06
3.52189e-06
-5.57645e-06
3.45346e-06
-5.83276e-06
3.38189e-06
-6.08322e-06
3.30728e-06
-6.32761e-06
3.22974e-06
-6.5657e-06
3.14939e-06
-6.79727e-06
3.06633e-06
-7.02213e-06
2.9807e-06
-7.24006e-06
2.89262e-06
-7.45088e-06
2.80221e-06
-7.65439e-06
2.70961e-06
-7.85043e-06
2.61497e-06
-8.03882e-06
2.51841e-06
-8.2194e-06
2.42009e-06
-8.392e-06
2.32015e-06
-8.55647e-06
2.21876e-06
-8.71267e-06
2.11607e-06
-8.86045e-06
2.01226e-06
-8.99965e-06
1.90749e-06
-9.13014e-06
1.80195e-06
-9.25178e-06
1.69582e-06
-9.3644e-06
1.58931e-06
-9.46785e-06
1.4826e-06
-9.56197e-06
1.37592e-06
-9.64656e-06
1.26948e-06
-9.72143e-06
1.1635e-06
-9.78633e-06
1.05821e-06
-9.84102e-06
9.53839e-07
-9.88518e-06
8.50612e-07
-9.91846e-06
7.48742e-07
-9.94045e-06
6.48424e-07
-9.95067e-06
5.49822e-07
-9.94857e-06
4.5305e-07
-9.93354e-06
3.58152e-07
-9.90489e-06
2.65076e-07
-9.86186e-06
1.73645e-07
-9.80369e-06
8.35198e-08
-9.72963e-06
-5.8323e-09
-9.63901e-06
-9.51662e-08
-9.53138e-06
-1.85474e-07
-9.40653e-06
-2.77965e-07
-9.26468e-06
-3.74047e-07
-4.75207e-07
-9.10658e-06
-2.75333e-07
3.83784e-06
-5.91579e-07
4.40982e-06
-9.09261e-07
4.43025e-06
-1.22607e-06
4.4185e-06
-1.5416e-06
4.40126e-06
-1.85552e-06
4.37955e-06
-2.16751e-06
4.35345e-06
-2.47725e-06
4.32299e-06
-2.78441e-06
4.28822e-06
-3.08869e-06
4.2492e-06
-3.38976e-06
4.20598e-06
-3.68734e-06
4.15864e-06
-3.98111e-06
4.10725e-06
-4.27079e-06
4.05188e-06
-4.55609e-06
3.99262e-06
-4.83674e-06
3.92955e-06
-5.11245e-06
3.86278e-06
-5.38295e-06
3.7924e-06
-5.64801e-06
3.71851e-06
-5.90735e-06
3.64123e-06
-6.16074e-06
3.56067e-06
-6.40794e-06
3.47694e-06
-6.64873e-06
3.39017e-06
-6.88288e-06
3.30048e-06
-7.11019e-06
3.208e-06
-7.33044e-06
3.11287e-06
-7.54345e-06
3.01522e-06
-7.74902e-06
2.91518e-06
-7.94697e-06
2.81292e-06
-8.13712e-06
2.70856e-06
-8.31931e-06
2.60228e-06
-8.49337e-06
2.49421e-06
-8.65913e-06
2.38453e-06
-8.81646e-06
2.2734e-06
-8.96519e-06
2.16099e-06
-9.10516e-06
2.04747e-06
-9.23624e-06
1.93303e-06
-9.35826e-06
1.81785e-06
-9.47107e-06
1.70211e-06
-9.5745e-06
1.58603e-06
-9.66838e-06
1.46979e-06
-9.7525e-06
1.35361e-06
-9.82668e-06
1.23767e-06
-9.89067e-06
1.1222e-06
-9.94421e-06
1.00738e-06
-9.98701e-06
8.93415e-07
-1.00187e-05
7.80472e-07
-1.0039e-05
6.68703e-07
-1.00474e-05
5.58224e-07
-1.00435e-05
4.49099e-07
-1.00266e-05
3.41325e-07
-9.99638e-06
2.34811e-07
-9.9521e-06
1.29357e-07
-9.89321e-06
2.46294e-08
-9.81918e-06
-7.98555e-08
-9.7296e-06
-1.84753e-07
-9.62419e-06
-2.90882e-07
-9.50294e-06
-3.99213e-07
-9.36616e-06
-5.10828e-07
-6.26844e-07
-9.21452e-06
-2.79215e-07
4.11706e-06
-5.99921e-07
4.73053e-06
-9.22078e-07
4.7524e-06
-1.24334e-06
4.73977e-06
-1.5633e-06
4.72122e-06
-1.88162e-06
4.69787e-06
-2.19797e-06
4.66979e-06
-2.51201e-06
4.63703e-06
-2.82342e-06
4.59963e-06
-3.13189e-06
4.55766e-06
-3.43709e-06
4.51119e-06
-3.73872e-06
4.46027e-06
-4.03647e-06
4.405e-06
-4.33004e-06
4.34545e-06
-4.61914e-06
4.28172e-06
-4.90349e-06
4.2139e-06
-5.18281e-06
4.1421e-06
-5.45682e-06
4.06641e-06
-5.72527e-06
3.98696e-06
-5.98789e-06
3.90386e-06
-6.24445e-06
3.81723e-06
-6.4947e-06
3.72719e-06
-6.7384e-06
3.63388e-06
-6.97534e-06
3.53743e-06
-7.2053e-06
3.43797e-06
-7.42808e-06
3.33564e-06
-7.64346e-06
3.2306e-06
-7.85126e-06
3.12299e-06
-8.0513e-06
3.01295e-06
-8.24338e-06
2.90065e-06
-8.42735e-06
2.78624e-06
-8.60302e-06
2.66988e-06
-8.77024e-06
2.55175e-06
-8.92884e-06
2.432e-06
-9.07868e-06
2.31082e-06
-9.21958e-06
2.18837e-06
-9.3514e-06
2.06484e-06
-9.47397e-06
1.94042e-06
-9.58713e-06
1.81528e-06
-9.69071e-06
1.68961e-06
-9.78453e-06
1.56362e-06
-9.86841e-06
1.43748e-06
-9.94212e-06
1.31139e-06
-1.00055e-05
1.18553e-06
-1.00581e-05
1.06008e-06
-1.00999e-05
9.35197e-07
-1.01305e-05
8.11032e-07
-1.01495e-05
6.87701e-07
-1.01565e-05
5.65285e-07
-1.01513e-05
4.43814e-07
-1.01332e-05
3.23259e-07
-1.01019e-05
2.03513e-07
-1.00569e-05
8.43751e-08
-9.99783e-06
-3.44641e-08
-9.92425e-06
-1.5343e-07
-9.83593e-06
-2.73074e-07
-9.73275e-06
-3.94065e-07
-9.61479e-06
-5.17171e-07
-9.48239e-06
-6.43225e-07
-7.73065e-07
-9.33617e-06
-2.8339e-07
4.40045e-06
-6.08893e-07
5.05603e-06
-9.35865e-07
5.07938e-06
-1.26192e-06
5.06583e-06
-1.58665e-06
5.04594e-06
-1.90969e-06
5.02091e-06
-2.23072e-06
4.99082e-06
-2.54939e-06
4.9557e-06
-2.86538e-06
4.91562e-06
-3.17836e-06
4.87064e-06
-3.48799e-06
4.82082e-06
-3.79398e-06
4.76626e-06
-4.096e-06
4.70702e-06
-4.39376e-06
4.6432e-06
-4.68695e-06
4.57491e-06
-4.97528e-06
4.50223e-06
-5.25847e-06
4.42529e-06
-5.53625e-06
4.34419e-06
-5.80835e-06
4.25906e-06
-6.07451e-06
4.17001e-06
-6.33447e-06
4.07719e-06
-6.58799e-06
3.98071e-06
-6.83483e-06
3.88073e-06
-7.07478e-06
3.77737e-06
-7.3076e-06
3.67079e-06
-7.5331e-06
3.56114e-06
-7.75105e-06
3.44856e-06
-7.96127e-06
3.33321e-06
-8.16357e-06
3.21525e-06
-8.35777e-06
3.09484e-06
-8.54368e-06
2.97215e-06
-8.72113e-06
2.84734e-06
-8.88996e-06
2.72058e-06
-9.05e-06
2.59205e-06
-9.2011e-06
2.46191e-06
-9.34308e-06
2.33036e-06
-9.47579e-06
2.19756e-06
-9.59908e-06
2.0637e-06
-9.71276e-06
1.92896e-06
-9.81668e-06
1.79353e-06
-9.91064e-06
1.65758e-06
-9.99447e-06
1.52131e-06
-1.0068e-05
1.38487e-06
-1.01309e-05
1.24845e-06
-1.0183e-05
1.1122e-06
-1.02241e-05
9.76266e-07
-1.02538e-05
8.40765e-07
-1.02719e-05
7.05793e-07
-1.0278e-05
5.71409e-07
-1.02718e-05
4.37627e-07
-1.0253e-05
3.04403e-07
-1.02211e-05
1.71628e-07
-1.01758e-05
3.91178e-08
-1.01169e-05
-9.3405e-08
-1.0044e-05
-2.26302e-07
-9.95707e-06
-3.60028e-07
-9.85602e-06
-4.95121e-07
-9.74101e-06
-6.32183e-07
-9.61238e-06
-7.71852e-07
-9.14754e-07
-9.47069e-06
-2.87866e-07
4.68831e-06
-6.18512e-07
5.38668e-06
-9.50644e-07
5.41151e-06
-1.28184e-06
5.39702e-06
-1.61167e-06
5.37577e-06
-1.93978e-06
5.34903e-06
-2.26583e-06
5.31686e-06
-2.58947e-06
5.27934e-06
-2.91035e-06
5.23651e-06
-3.22816e-06
5.18844e-06
-3.54255e-06
5.13521e-06
-3.8532e-06
5.07691e-06
-4.1598e-06
5.01362e-06
-4.46204e-06
4.94544e-06
-4.7596e-06
4.87248e-06
-5.05221e-06
4.79484e-06
-5.33955e-06
4.71264e-06
-5.62137e-06
4.62601e-06
-5.89738e-06
4.53507e-06
-6.16731e-06
4.43995e-06
-6.43092e-06
4.34079e-06
-6.68795e-06
4.23774e-06
-6.93817e-06
4.13094e-06
-7.18134e-06
4.02054e-06
-7.41724e-06
3.90669e-06
-7.64565e-06
3.78955e-06
-7.86638e-06
3.66928e-06
-8.07921e-06
3.54604e-06
-8.28396e-06
3.42e-06
-8.48043e-06
3.29132e-06
-8.66846e-06
3.16018e-06
-8.84786e-06
3.02674e-06
-9.01847e-06
2.89119e-06
-9.18011e-06
2.75369e-06
-9.33262e-06
2.61443e-06
-9.47585e-06
2.47358e-06
-9.60963e-06
2.33133e-06
-9.73379e-06
2.18786e-06
-9.84817e-06
2.04334e-06
-9.9526e-06
1.89796e-06
-1.00469e-05
1.75188e-06
-1.01309e-05
1.60529e-06
-1.02044e-05
1.45835e-06
-1.02671e-05
1.31121e-06
-1.03189e-05
1.16402e-06
-1.03596e-05
1.0169e-06
-1.03888e-05
8.69973e-07
-1.04063e-05
7.23303e-07
-1.04118e-05
5.76942e-07
-1.04051e-05
4.30892e-07
-1.03858e-05
2.85111e-07
-1.03537e-05
1.39494e-07
-1.03084e-05
-6.10523e-09
-1.02499e-05
-1.51957e-07
-1.01779e-05
-2.9833e-07
-1.00923e-05
-4.45602e-07
-9.9932e-06
-5.94201e-07
-9.88079e-06
-7.44592e-07
-9.75538e-06
-8.97258e-07
-1.05266e-06
-9.61747e-06
-2.9265e-07
4.98096e-06
-6.28791e-07
5.72282e-06
-9.66438e-07
5.74916e-06
-1.30313e-06
5.73371e-06
-1.63841e-06
5.71106e-06
-1.97194e-06
5.68255e-06
-2.30335e-06
5.64827e-06
-2.63229e-06
5.60828e-06
-2.95841e-06
5.56263e-06
-3.28137e-06
5.5114e-06
-3.60084e-06
5.45468e-06
-3.91648e-06
5.39255e-06
-4.22796e-06
5.32511e-06
-4.53498e-06
5.25246e-06
-4.83722e-06
5.17472e-06
-5.13438e-06
5.092e-06
-5.42617e-06
5.00442e-06
-5.71229e-06
4.91213e-06
-5.99247e-06
4.81525e-06
-6.26644e-06
4.71392e-06
-6.53395e-06
4.6083e-06
-6.79473e-06
4.49853e-06
-7.04854e-06
4.38476e-06
-7.29516e-06
4.26716e-06
-7.53435e-06
4.14588e-06
-7.7659e-06
4.0211e-06
-7.98959e-06
3.89297e-06
-8.20523e-06
3.76167e-06
-8.41261e-06
3.62738e-06
-8.61155e-06
3.49026e-06
-8.80187e-06
3.35049e-06
-8.98339e-06
3.20826e-06
-9.15593e-06
3.06373e-06
-9.31934e-06
2.9171e-06
-9.47344e-06
2.76853e-06
-9.61807e-06
2.61822e-06
-9.75307e-06
2.46633e-06
-9.87828e-06
2.31307e-06
-9.99353e-06
2.15859e-06
-1.00986e-05
2.00308e-06
-1.01935e-05
1.8467e-06
-1.02778e-05
1.68963e-06
-1.03515e-05
1.53202e-06
-1.04143e-05
1.37402e-06
-1.0466e-05
1.21576e-06
-1.05065e-05
1.05736e-06
-1.05354e-05
8.98924e-07
-1.05526e-05
7.40513e-07
-1.05579e-05
5.8217e-07
-1.05509e-05
4.239e-07
-1.05314e-05
2.65663e-07
-1.04993e-05
1.07376e-07
-1.04543e-05
-5.10956e-08
-1.03963e-05
-2.09962e-07
-1.03252e-05
-3.69446e-07
-1.0241e-05
-5.29843e-07
-1.01437e-05
-6.91486e-07
-1.00335e-05
-8.5473e-07
-9.91086e-06
-1.01993e-06
-1.18744e-06
-9.77609e-06
-2.97749e-07
5.27871e-06
-6.39748e-07
6.06482e-06
-9.83273e-07
6.09268e-06
-1.32581e-06
6.07625e-06
-1.66692e-06
6.05216e-06
-2.00621e-06
6.02185e-06
-2.34333e-06
5.98539e-06
-2.67792e-06
5.94286e-06
-3.00962e-06
5.89433e-06
-3.33808e-06
5.83986e-06
-3.66295e-06
5.77955e-06
-3.9839e-06
5.7135e-06
-4.30059e-06
5.6418e-06
-4.61271e-06
5.56457e-06
-4.91992e-06
5.48193e-06
-5.22194e-06
5.39401e-06
-5.51844e-06
5.30093e-06
-5.80915e-06
5.20283e-06
-6.09377e-06
5.09987e-06
-6.37204e-06
4.99219e-06
-6.64369e-06
4.87995e-06
-6.90847e-06
4.7633e-06
-7.16612e-06
4.64241e-06
-7.41641e-06
4.51745e-06
-7.65911e-06
4.38858e-06
-7.894e-06
4.25598e-06
-8.12086e-06
4.11983e-06
-8.33949e-06
3.98031e-06
-8.5497e-06
3.83759e-06
-8.75129e-06
3.69185e-06
-8.94408e-06
3.54328e-06
-9.12789e-06
3.39207e-06
-9.30254e-06
3.23839e-06
-9.46788e-06
3.08243e-06
-9.62373e-06
2.92438e-06
-9.76993e-06
2.76442e-06
-9.90632e-06
2.60272e-06
-1.00327e-05
2.43948e-06
-1.0149e-05
2.27487e-06
-1.0255e-05
2.10906e-06
-1.03505e-05
1.94222e-06
-1.04354e-05
1.77451e-06