0 	1.61092e-07
1.57135 	-0.000129734
3.1427 	-5.95308e-05
4.71405 	-0.00154531
6.28539 	-0.00508845
7.85674 	-0.00727569
9.42809 	-0.00529636
10.9994 	-0.00321206
12.5708 	0.015601
14.1421 	0.0497875
