0 	0 	0 	0
1.57135 	-0.000231201 	-0.00597 	0
3.1427 	-0.0225029 	0.02557 	0
4.71405 	-0.0375581 	0.0832275 	0
6.28539 	-0.0104265 	0.105978 	0
7.85674 	0.0285251 	0.0636328 	0
9.42809 	0.0476626 	0.0125423 	0
10.9994 	0.0423535 	-0.0229752 	0
12.5708 	0.11294 	-0.100808 	0
14.1421 	0.5 	0 	0
