0 	1.59313e-08
1.57135 	-1.03498e-06
3.1427 	-6.36716e-06
4.71405 	-2.05586e-05
6.28539 	-4.93654e-05
7.85674 	-0.000107998
9.42809 	-0.000253512
10.9994 	-0.000950855
12.5708 	-0.00341763
14.1421 	0.0163527
