0 	-6.12595e-08
1.57135 	-0.0004031
3.1427 	-0.000653974
4.71405 	-0.00303274
6.28539 	-0.00753569
7.85674 	-0.0103172
9.42809 	-0.00904906
10.9994 	-0.00513634
12.5708 	0.0182253
14.1421 	0.0549763
