/*--------------------------------*- C++ -*----------------------------------*\
  =========                 |
  \\      /  F ield         | OpenFOAM: The Open Source CFD Toolbox
   \\    /   O peration     | Website:  https://openfoam.org
    \\  /    A nd           | Version:  8
     \\/     M anipulation  |
\*---------------------------------------------------------------------------*/
FoamFile
{
    version     2.0;
    format      ascii;
    class       volVectorField;
    location    "47.5";
    object      U;
}
// * * * * * * * * * * * * * * * * * * * * * * * * * * * * * * * * * * * * * //

dimensions      [0 1 -1 0 0 0 0];

internalField   nonuniform List<vector> 
464
(
(-0.000163244 0.000161825 0)
(-0.000529175 0.000176475 0)
(-0.000908532 0.000170481 0)
(-0.00125889 0.000160707 0)
(-0.00158955 0.000147345 0)
(-0.00189149 0.00012984 0)
(-0.00214793 0.000108049 0)
(-0.00238898 7.9766e-05 0)
(-0.00252354 4.69866e-05 0)
(-0.00272628 1.54612e-06 0)
(-0.00266506 -3.72729e-05 0)
(-0.00292471 6.89981e-06 0)
(-0.000184376 0.000530657 0)
(-0.0005956 0.000576668 0)
(-0.00102093 0.000557348 0)
(-0.00141422 0.000526451 0)
(-0.00178582 0.000485843 0)
(-0.00212566 0.000436427 0)
(-0.00241762 0.000382161 0)
(-0.00269087 0.000317421 0)
(-0.00285555 0.000268324 0)
(-0.00308683 0.00018078 0)
(-0.00306469 0.000189717 0)
(-0.00335315 4.61718e-05 0)
(-0.000191371 0.000933739 0)
(-0.000618403 0.00101294 0)
(-0.00106003 0.000978561 0)
(-0.00146751 0.00092338 0)
(-0.00185101 0.000850119 0)
(-0.00219698 0.00075863 0)
(-0.0024942 0.00065221 0)
(-0.00275164 0.000524207 0)
(-0.00292193 0.000403249 0)
(-0.00308221 0.000236082 0)
(-0.00308061 0.000166166 0)
(-0.0031164 -4.56189e-05 0)
(-0.000201347 0.00134244 0)
(-0.000651042 0.00145625 0)
(-0.00111689 0.00140683 0)
(-0.00154781 0.00132752 0)
(-0.00195688 0.00122267 0)
(-0.00233088 0.00109416 0)
(-0.00266022 0.000946224 0)
(-0.0029485 0.000776859 0)
(-0.00315275 0.000601216 0)
(-0.00333315 0.000385706 0)
(-0.0033546 0.000209177 0)
(-0.00337441 -7.58492e-05 0)
(-0.000214749 0.00178178 0)
(-0.000694877 0.00193293 0)
(-0.00119261 0.00186761 0)
(-0.00165186 0.00176252 0)
(-0.00208452 0.00162267 0)
(-0.00247354 0.00144754 0)
(-0.00281159 0.00124025 0)
(-0.00309661 0.000999751 0)
(-0.00331314 0.000739527 0)
(-0.00347424 0.000435382 0)
(-0.00354222 0.000154161 0)
(-0.00355668 -0.000215611 0)
(-0.000232204 0.00224603 0)
(-0.000751958 0.00243875 0)
(-0.00129219 0.00235784 0)
(-0.00179283 0.00222801 0)
(-0.00227192 0.00205657 0)
(-0.00271343 0.00184649 0)
(-0.00310832 0.0016016 0)
(-0.00344958 0.00132129 0)
(-0.00371769 0.00101181 0)
(-0.00391878 0.000664646 0)
(-0.0040059 0.000300794 0)
(-0.00400385 -0.000124204 0)
(-0.000252277 0.00276898 0)
(-0.000819142 0.00300555 0)
(-0.00140936 0.00290412 0)
(-0.00195315 0.00274022 0)
(-0.00246591 0.00252276 0)
(-0.00292824 0.00224996 0)
(-0.00333634 0.00192946 0)
(-0.00368574 0.00155993 0)
(-0.0039691 0.00114754 0)
(-0.00418455 0.000686394 0)
(-0.00433083 0.000193476 0)
(-0.00439853 -0.000360357 0)
(-0.00028002 0.00330216 0)
(-0.000908221 0.00359597 0)
(-0.00156482 0.00347851 0)
(-0.0021744 0.00330512 0)
(-0.0027624 0.00306568 0)
(-0.00330723 0.00277141 0)
(-0.00379913 0.00242416 0)
(-0.00423259 0.00202568 0)
(-0.00459253 0.00158185 0)
(-0.0048738 0.00108862 0)
(-0.00505322 0.000561415 0)
(-0.00510497 -4.88645e-05 0)
(-0.000299801 0.00395273 0)
(-0.000992158 0.00428454 0)
(-0.00170837 0.00414329 0)
(-0.00236579 0.00389224 0)
(-0.0029991 0.00359194 0)
(-0.00356899 0.00320622 0)
(-0.00408077 0.00276933 0)
(-0.00452638 0.00226233 0)
(-0.00490423 0.00169851 0)
(-0.00520329 0.00106458 0)
(-0.00546682 0.000381757 0)
(-0.00559721 -0.00042266 0)
(-0.000361231 0.0046339 0)
(-0.00114004 0.0050947 0)
(-0.00196747 0.00489402 0)
(-0.00272659 0.00471378 0)
(-0.00344917 0.00435383 0)
(-0.00413143 0.00397377 0)
(-0.00474502 0.00349997 0)
(-0.00530628 0.00296774 0)
(-0.00579338 0.0023866 0)
(-0.00619355 0.00172409 0)
(-0.00654177 0.00108485 0)
(-0.00667515 0.000213644 0)
(-0.000317052 0.00533603 0)
(-0.00122024 0.0057482 0)
(-0.00209813 0.00561228 0)
(-0.00290473 0.00520637 0)
(-0.00373733 0.00486628 0)
(-0.00442084 0.00432886 0)
(-0.00508361 0.0038016 0)
(-0.00563607 0.00314691 0)
(-0.00614329 0.0024609 0)
(-0.00650137 0.00163938 0)
(-0.00697201 0.000835191 0)
(-0.00711146 -0.000272826 0)
(-0.000532441 0.00633799 0)
(-0.00145741 0.00712955 0)
(-0.00252526 0.00670752 0)
(-0.00347585 0.00664099 0)
(-0.00432856 0.0060037 0)
(-0.00520043 0.00558202 0)
(-0.00593084 0.00488892 0)
(-0.00665357 0.00420634 0)
(-0.00730718 0.00349004 0)
(-0.00782748 0.0026193 0)
(-0.00845714 0.00196289 0)
(-0.00870153 0.000760101 0)
(-0.000170883 0.00708236 0)
(-0.00151034 0.00741867 0)
(-0.00258964 0.00741824 0)
(-0.00360417 0.00665912 0)
(-0.00479192 0.00638531 0)
(-0.00553134 0.00560474 0)
(-0.00645304 0.00505828 0)
(-0.00702836 0.00422002 0)
(-0.00772102 0.00350041 0)
(-0.00802196 0.00247172 0)
(-0.00881823 0.00169008 0)
(-0.0088089 0.00024235 0)
(-0.00103692 0.00831619 0)
(-0.00195711 0.0100079 0)
(-0.00331452 0.00901697 0)
(-0.00451772 0.00936548 0)
(-0.00538464 0.00811953 0)
(-0.00653749 0.00771493 0)
(-0.00732058 0.00660447 0)
(-0.00822452 0.00575971 0)
(-0.00906503 0.00486501 0)
(-0.00965585 0.00377853 0)
(-0.0106945 0.00320171 0)
(-0.0109742 0.00172791 0)
(0.000711938 0.00969905 0)
(-0.0016489 0.00915674 0)
(-0.00320898 0.00965447 0)
(-0.00449091 0.00814127 0)
(-0.0064392 0.00810522 0)
(-0.0070378 0.00699966 0)
(-0.00839971 0.00649774 0)
(-0.00875694 0.00546218 0)
(-0.00968722 0.00479958 0)
(-0.00967557 0.00357828 0)
(-0.0108484 0.00303556 0)
(-0.0103843 0.00129249 0)
(-0.00287992 0.00967007 0)
(-0.0031698 0.0146439 0)
(-0.00433912 0.0121518 0)
(-0.00608074 0.0134454 0)
(-0.00651703 0.0109135 0)
(-0.00816921 0.0104299 0)
(-0.00886318 0.00859198 0)
(-0.00994536 0.00748582 0)
(-0.0109592 0.00631614 0)
(-0.0114494 0.00501368 0)
(-0.0129955 0.00456756 0)
(-0.013013 0.00297471 0)
(0.0031816 0.0153005 0)
(-0.000749671 0.00981383 0)
(-0.0048813 0.0121209 0)
(-0.00586842 0.00941935 0)
(-0.009544 0.00975254 0)
(-0.00934441 0.00853691 0)
(-0.0113343 0.00795842 0)
(-0.011005 0.00681415 0)
(-0.0121372 0.00618782 0)
(-0.0114103 0.00484663 0)
(-0.0128765 0.00469334 0)
(-0.0113439 0.00290047 0)
(0.00195599 0.00751455 0)
(-0.0022587 0.0237861 0)
(0.000343352 0.0176136 0)
(-0.00643207 0.019439 0)
(-0.00627907 0.0147058 0)
(-0.00950922 0.0133449 0)
(-0.0104181 0.0105829 0)
(-0.0117106 0.00889568 0)
(-0.0129539 0.00741864 0)
(-0.0129988 0.00582935 0)
(-0.0149664 0.005361 0)
(-0.0141288 0.00379851 0)
(-0.0340853 0.0159499 0)
(-0.0187164 0.0103262 0)
(-0.0356711 0.0155699 0)
(-0.0242445 0.0147466 0)
(-0.0284547 0.0121002 0)
(-0.021479 0.0115833 0)
(-0.0212856 0.00974699 0)
(-0.0170716 0.00835246 0)
(-0.0161487 0.00740173 0)
(-0.012503 0.00585397 0)
(-0.0128803 0.00601318 0)
(-0.00814612 0.00438285 0)
(0.0297248 0.0581745 0)
(0.0463721 0.0278656 0)
(0.0656028 0.0227665 0)
(0.0844737 0.0145276 0)
(0.0953966 0.0118725 0)
(0.107401 0.00769865 0)
(0.114058 0.00637471 0)
(0.12438 0.00433725 0)
(0.125086 0.00363103 0)
(0.136972 0.00252335 0)
(0.131301 0.00185125 0)
(0.146923 0.00135878 0)
(-0.00265332 0.00151491 0)
(-0.00186885 0.000830079 0)
(-0.00164356 0.000165837 0)
(-0.00128336 -0.00021015 0)
(-0.00103678 -0.000526428 0)
(-0.000731472 -0.000733595 0)
(-0.000435759 -0.00087171 0)
(-0.000132448 -0.000852381 0)
(-0.00295104 0.000377936 0)
(-0.0021035 -1.80232e-06 0)
(-0.00185216 -0.000277768 0)
(-0.0014469 -0.000605498 0)
(-0.00116998 -0.000855423 0)
(-0.000830676 -0.00106754 0)
(-0.000494602 -0.00120153 0)
(-0.000151423 -0.00115814 0)
(-0.0029118 0.00015946 0)
(-0.00252456 -0.000254428 0)
(-0.0022468 -0.000540501 0)
(-0.00186053 -0.000910094 0)
(-0.00149853 -0.00119545 0)
(-0.00108117 -0.00144276 0)
(-0.00064087 -0.00159905 0)
(-0.000199707 -0.00153569 0)
(-0.00316655 -0.000229688 0)
(-0.00280147 -0.000610151 0)
(-0.00250834 -0.000919621 0)
(-0.00210166 -0.00128982 0)
(-0.00170352 -0.00158989 0)
(-0.00124005 -0.0018641 0)
(-0.000737262 -0.00203469 0)
(-0.000232211 -0.00194405 0)
(-0.00344564 -0.000474982 0)
(-0.00321404 -0.000931379 0)
(-0.00292668 -0.00131924 0)
(-0.00253028 -0.00176706 0)
(-0.00207269 -0.00213545 0)
(-0.00153275 -0.00247619 0)
(-0.000913827 -0.00268648 0)
(-0.000295092 -0.00257177 0)
(-0.00388245 -0.000541582 0)
(-0.0036455 -0.00105553 0)
(-0.00334454 -0.00152131 0)
(-0.00291839 -0.00206951 0)
(-0.00241355 -0.00248182 0)
(-0.00180119 -0.00293944 0)
(-0.0010796 -0.00317473 0)
(-0.000354695 -0.00306072 0)
(-0.00437656 -0.000906973 0)
(-0.00419307 -0.00154706 0)
(-0.00393938 -0.00213941 0)
(-0.00349024 -0.00282823 0)
(-0.00294147 -0.00335535 0)
(-0.00223724 -0.00395041 0)
(-0.00133936 -0.0042557 0)
(-0.000473406 -0.00413029 0)
(-0.0050698 -0.000638036 0)
(-0.00487999 -0.00143688 0)
(-0.00462615 -0.00203561 0)
(-0.00413783 -0.00298799 0)
(-0.00353658 -0.00351594 0)
(-0.00272076 -0.00443067 0)
(-0.00164837 -0.00473845 0)
(-0.00060196 -0.00472544 0)
(-0.00576145 -0.00118536 0)
(-0.00559013 -0.00217443 0)
(-0.00548422 -0.00297795 0)
(-0.00497097 -0.00416705 0)
(-0.00437745 -0.00490672 0)
(-0.00348032 -0.00610457 0)
(-0.00209945 -0.00655667 0)
(-0.000905006 -0.00660491 0)
(-0.00682199 -0.000430283 0)
(-0.00668062 -0.00168308 0)
(-0.00661688 -0.00231611 0)
(-0.0060802 -0.00401454 0)
(-0.00547083 -0.0046091 0)
(-0.00441479 -0.00656082 0)
(-0.00275802 -0.00694924 0)
(-0.00123418 -0.00749244 0)
(-0.00764706 -0.00118158 0)
(-0.00747706 -0.00269973 0)
(-0.00779212 -0.00366217 0)
(-0.00727103 -0.00574921 0)
(-0.00689059 -0.00673312 0)
(-0.00586868 -0.00929424 0)
(-0.00374498 -0.0100014 0)
(-0.00213282 -0.0109894 0)
(-0.00924834 0.000263314 0)
(-0.00918426 -0.00156732 0)
(-0.00965597 -0.00197991 0)
(-0.00919566 -0.00486157 0)
(-0.00898475 -0.00533104 0)
(-0.00781902 -0.00953091 0)
(-0.00542687 -0.0100246 0)
(-0.00321894 -0.0130053 0)
(-0.00994441 -0.000558136 0)
(-0.00972231 -0.00279639 0)
(-0.0110111 -0.00364781 0)
(-0.01065 -0.0071486 0)
(-0.0114073 -0.00823918 0)
(-0.0107388 -0.0137036 0)
(-0.00827696 -0.0149278 0)
(-0.00639761 -0.0203408 0)
(-0.0122926 0.00161625 0)
(-0.0123262 -0.000651007 0)
(-0.0139945 -0.000286865 0)
(-0.0139008 -0.0045087 0)
(-0.0154031 -0.00414209 0)
(-0.0150143 -0.0125279 0)
(-0.0133339 -0.0131063 0)
(-0.0112952 -0.0271253 0)
(-0.0122678 0.00104888 0)
(-0.0115991 -0.00183357 0)
(-0.0146774 -0.00176769 0)
(-0.0145082 -0.00690002 0)
(-0.0188508 -0.00699777 0)
(-0.0202884 -0.0173144 0)
(-0.0222467 -0.0187415 0)
(-0.0227774 -0.0462878 0)
(-0.0154645 0.00357983 0)
(-0.0152474 0.00134428 0)
(-0.0191664 0.00355035 0)
(-0.0192871 -0.00068174 0)
(-0.0256459 0.00318483 0)
(-0.0269364 -0.00941008 0)
(-0.0334506 -0.00819071 0)
(-0.0272543 -0.07138 0)
(-0.0138859 0.00360396 0)
(-0.0114626 0.00087685 0)
(-0.0164417 0.00290867 0)
(-0.0140599 -0.00204589 0)
(-0.0251958 0.00169741 0)
(-0.0247583 -0.0124258 0)
(-0.0406542 -0.0175288 0)
(-0.00977032 -0.111116 0)
(-0.0175675 0.0047415 0)
(-0.0160353 0.00342668 0)
(-0.022538 0.0076373 0)
(-0.019786 0.00713851 0)
(-0.0326724 0.016474 0)
(-0.0205843 0.00425023 0)
(-0.0405496 -0.0186486 0)
(0.024089 -0.119406 0)
(-0.0105634 0.00590907 0)
(-0.00239939 0.00443093 0)
(-0.00813827 0.00726409 0)
(0.00962816 0.00583148 0)
(-0.00150039 0.00347755 0)
(0.0352779 -0.00802631 0)
(0.0107889 -0.0622551 0)
(0.0443209 -0.134648 0)
(0.13452 -0.00017799 0)
(0.155016 0.000961663 0)
(0.137165 -0.00354812 0)
(0.161119 0.000657594 0)
(0.140411 -0.00723432 0)
(0.158398 -0.00885542 0)
(0.120539 -0.0203472 0)
(0.0800804 -0.0569186 0)
(-1.79605e-05 -1.96505e-05 0)
(-5.54229e-05 -2.21628e-05 0)
(-8.33442e-05 -2.46357e-05 0)
(-9.60398e-05 -2.78599e-05 0)
(-9.37699e-05 -2.97163e-05 0)
(-7.71717e-05 -3.13963e-05 0)
(-4.90459e-05 -3.2297e-05 0)
(-1.54859e-05 -3.03018e-05 0)
(-2.13264e-05 9.42313e-05 0)
(-6.47826e-05 8.97016e-05 0)
(-9.69702e-05 6.57305e-05 0)
(-0.000110259 3.94014e-05 0)
(-0.000106221 1.09004e-05 0)
(-8.71706e-05 -1.20066e-05 0)
(-5.5191e-05 -2.91042e-05 0)
(-1.74913e-05 -3.30357e-05 0)
(-3.26235e-05 6.16695e-05 0)
(-9.79346e-05 5.01118e-05 0)
(-0.000142053 1.72908e-05 0)
(-0.000160254 -1.9708e-05 0)
(-0.00015432 -5.53568e-05 0)
(-0.000124837 -8.47034e-05 0)
(-7.88308e-05 -0.000105715 0)
(-2.47976e-05 -0.000105682 0)
(-3.98444e-05 0.00023262 0)
(-0.000116473 0.000208093 0)
(-0.000167328 0.000132308 0)
(-0.000183258 5.56962e-05 0)
(-0.000171574 -2.21817e-05 0)
(-0.00013813 -8.16406e-05 0)
(-8.63616e-05 -0.000124863 0)
(-2.72147e-05 -0.000131023 0)
(-7.85023e-05 0.000204685 0)
(-0.000220234 0.000167209 0)
(-0.00029509 7.50166e-05 0)
(-0.000314684 -1.85685e-05 0)
(-0.00029157 -0.000107072 0)
(-0.000227856 -0.000176493 0)
(-0.000141666 -0.000225757 0)
(-4.40207e-05 -0.000226673 0)
(-9.79359e-05 0.000550403 0)
(-0.000267438 0.000444708 0)
(-0.000353974 0.0002353 0)
(-0.000365529 5.98248e-05 0)
(-0.000329743 -0.0001038 0)
(-0.000257695 -0.000218824 0)
(-0.000158703 -0.000299576 0)
(-4.95105e-05 -0.000305163 0)
(-0.000236513 0.000541622 0)
(-0.00058832 0.000400295 0)
(-0.000681268 0.000155501 0)
(-0.000653273 -4.54644e-05 0)
(-0.000569796 -0.000228976 0)
(-0.000424249 -0.00035983 0)
(-0.000258369 -0.000450914 0)
(-7.91252e-05 -0.000448487 0)
(-0.00032584 0.00142176 0)
(-0.00071015 0.00092727 0)
(-0.0008035 0.000311643 0)
(-0.000750762 -3.81463e-05 0)
(-0.000644904 -0.000322881 0)
(-0.000481578 -0.000506655 0)
(-0.000291682 -0.000628959 0)
(-8.97607e-05 -0.000622702 0)
)
;

boundaryField
{
    movingWall
    {
        type            fixedValue;
        value           uniform (1 0 0);
    }
    fixedWalls
    {
        type            noSlip;
    }
    frontAndBack
    {
        type            empty;
    }
}


// ************************************************************************* //
