/*--------------------------------*- C++ -*----------------------------------*\
  =========                 |
  \\      /  F ield         | OpenFOAM: The Open Source CFD Toolbox
   \\    /   O peration     | Website:  https://openfoam.org
    \\  /    A nd           | Version:  8
     \\/     M anipulation  |
\*---------------------------------------------------------------------------*/
FoamFile
{
    version     2.0;
    format      ascii;
    class       surfaceScalarField;
    location    "47.5";
    object      phi;
}
// * * * * * * * * * * * * * * * * * * * * * * * * * * * * * * * * * * * * * //

dimensions      [0 3 -1 0 0 0 0];

internalField   nonuniform List<scalar> 
22960
(
-2.152e-07
2.15019e-07
-8.24054e-07
6.08854e-07
-1.60827e-06
7.84219e-07
-2.46053e-06
8.52258e-07
-3.33184e-06
8.71313e-07
-4.20609e-06
8.7425e-07
-5.08016e-06
8.74063e-07
-5.95429e-06
8.74137e-07
-6.82925e-06
8.74956e-07
-7.70562e-06
8.7637e-07
-8.58381e-06
8.78191e-07
-9.46411e-06
8.80298e-07
-1.03467e-05
8.82621e-07
-1.12318e-05
8.85118e-07
-1.21196e-05
8.87756e-07
-1.30101e-05
8.90511e-07
-1.39035e-05
8.93356e-07
-1.47997e-05
8.96267e-07
-1.5699e-05
8.99218e-07
-1.66011e-05
9.02182e-07
-1.75063e-05
9.05129e-07
-1.84143e-05
9.08029e-07
-1.93251e-05
9.1085e-07
-2.02387e-05
9.13557e-07
-2.11548e-05
9.16114e-07
-2.20733e-05
9.18483e-07
-2.29939e-05
9.20623e-07
-2.39164e-05
9.22494e-07
-2.48405e-05
9.24052e-07
-2.57657e-05
9.25252e-07
-2.66918e-05
9.26048e-07
-2.76182e-05
9.26395e-07
-2.85444e-05
9.26246e-07
-2.947e-05
9.25554e-07
-3.03942e-05
9.24276e-07
-3.13166e-05
9.22366e-07
-3.22364e-05
9.19786e-07
-3.31529e-05
9.16499e-07
-3.40654e-05
9.12474e-07
-3.4973e-05
9.07687e-07
-3.58752e-05
9.02123e-07
-3.67709e-05
8.95774e-07
-3.76596e-05
8.8864e-07
-3.85403e-05
8.80729e-07
-3.94124e-05
8.72043e-07
-4.02749e-05
8.62559e-07
-4.11271e-05
8.5218e-07
-4.19677e-05
8.40629e-07
-4.27949e-05
8.2721e-07
-4.36053e-05
8.10326e-07
-4.43918e-05
7.86549e-07
-4.51411e-05
7.49283e-07
-4.58288e-05
6.87719e-07
-4.64165e-05
5.87695e-07
-4.68635e-05
4.4695e-07
-4.72573e-05
3.93823e-07
-4.81837e-05
9.2641e-07
-5.0769e-05
2.58529e-06
-6.27924e-05
1.20234e-05
2.91148e-05
-9.19072e-05
-6.23227e-07
8.38246e-07
-1.89252e-06
1.87814e-06
-3.46138e-06
2.35309e-06
-5.15782e-06
2.5487e-06
-6.90218e-06
2.61567e-06
-8.66293e-06
2.635e-06
-1.04293e-05
2.64044e-06
-1.21984e-05
2.64319e-06
-1.39696e-05
2.64624e-06
-1.57433e-05
2.65007e-06
-1.75198e-05
2.65461e-06
-1.92992e-05
2.65972e-06
-2.10818e-05
2.66529e-06
-2.2868e-05
2.67123e-06
-2.46577e-05
2.67746e-06
-2.64511e-05
2.68393e-06
-2.82483e-05
2.69056e-06
-3.00493e-05
2.69728e-06
-3.18541e-05
2.70403e-06
-3.36627e-05
2.71074e-06
-3.54749e-05
2.71732e-06
-3.72905e-05
2.7237e-06
-3.91095e-05
2.72978e-06
-4.09314e-05
2.73547e-06
-4.2756e-05
2.74069e-06
-4.45828e-05
2.74533e-06
-4.64115e-05
2.74928e-06
-4.82414e-05
2.75245e-06
-5.00721e-05
2.75471e-06
-5.19028e-05
2.75596e-06
-5.37328e-05
2.75609e-06
-5.55614e-05
2.75498e-06
-5.73877e-05
2.75254e-06
-5.92108e-05
2.74865e-06
-6.10298e-05
2.74324e-06
-6.28436e-05
2.73621e-06
-6.46513e-05
2.72752e-06
-6.6452e-05
2.71713e-06
-6.82446e-05
2.70505e-06
-7.00282e-05
2.69131e-06
-7.18021e-05
2.67601e-06
-7.35656e-05
2.65933e-06
-7.53185e-05
2.64152e-06
-7.70607e-05
2.62294e-06
-7.87928e-05
2.60409e-06
-8.05158e-05
2.58563e-06
-8.2232e-05
2.56838e-06
-8.39448e-05
2.55336e-06
-8.56593e-05
2.54173e-06
-8.73837e-05
2.53478e-06
-8.91313e-05
2.53411e-06
-9.09249e-05
2.54291e-06
-9.28083e-05
2.57106e-06
-9.48721e-05
2.65154e-06
-9.73161e-05
2.89096e-06
-0.000100535
3.61233e-06
-0.000105163
5.55507e-06
-0.00011244
9.86205e-06
-0.000121907
2.149e-05
3.74982e-05
-0.00013029
-8.19214e-07
1.65746e-06
-2.41484e-06
3.47377e-06
-4.36514e-06
4.30338e-06
-6.46308e-06
4.64664e-06
-8.61742e-06
4.77001e-06
-1.07919e-05
4.80948e-06
-1.29736e-05
4.82216e-06
-1.51586e-05
4.8282e-06
-1.7346e-05
4.83357e-06
-1.95356e-05
4.83966e-06
-2.17276e-05
4.8466e-06
-2.39221e-05
4.85427e-06
-2.61193e-05
4.86254e-06
-2.83194e-05
4.87128e-06
-3.05223e-05
4.88039e-06
-3.27282e-05
4.88976e-06
-3.49369e-05
4.89927e-06
-3.71484e-05
4.90882e-06
-3.93627e-05
4.91828e-06
-4.15794e-05
4.92753e-06
-4.37986e-05
4.93644e-06
-4.60197e-05
4.94487e-06
-4.82426e-05
4.95267e-06
-5.04668e-05
4.95969e-06
-5.26919e-05
4.96576e-06
-5.49173e-05
4.97073e-06
-5.71424e-05
4.97441e-06
-5.93666e-05
4.97662e-06
-6.15891e-05
4.9772e-06
-6.38091e-05
4.97595e-06
-6.60257e-05
4.9727e-06
-6.8238e-05
4.96727e-06
-7.04449e-05
4.95951e-06
-7.26456e-05
4.94926e-06
-7.48387e-05
4.93641e-06
-7.70234e-05
4.92085e-06
-7.91984e-05
4.90255e-06
-8.13628e-05
4.88152e-06
-8.35156e-05
4.85783e-06
-8.56559e-05
4.83168e-06
-8.77833e-05
4.80337e-06
-8.98974e-05
4.77339e-06
-9.19983e-05
4.74244e-06
-9.40868e-05
4.71148e-06
-9.61646e-05
4.68186e-06
-9.82343e-05
4.65539e-06
-0.0001003
4.63454e-06
-0.00010237
4.6226e-06
-0.000104452
4.62416e-06
-0.000106563
4.64574e-06
-0.000108727
4.69754e-06
-0.000110981
4.79748e-06
-0.000113391
4.98138e-06
-0.000116068
5.3282e-06
-0.000119195
6.01788e-06
-0.000123011
7.42873e-06
-0.000127692
1.02359e-05
-0.000133397
1.55665e-05
-0.000137668
2.57613e-05
3.84941e-05
-0.000138664
-9.03126e-07
2.56059e-06
-2.64793e-06
5.21857e-06
-4.76834e-06
6.42379e-06
-7.04086e-06
6.91916e-06
-9.37069e-06
7.09984e-06
-1.17211e-05
7.15986e-06
-1.4079e-05
7.18012e-06
-1.64405e-05
7.18964e-06
-1.88042e-05
7.19734e-06
-2.117e-05
7.20547e-06
-2.35379e-05
7.21444e-06
-2.59078e-05
7.22418e-06
-2.82798e-05
7.23456e-06
-3.0654e-05
7.24545e-06
-3.30303e-05
7.25669e-06
-3.54087e-05
7.26814e-06
-3.7789e-05
7.27964e-06
-4.01713e-05
7.29105e-06
-4.25552e-05
7.30219e-06
-4.49405e-05
7.31289e-06
-4.7327e-05
7.32295e-06
-4.97144e-05
7.33219e-06
-5.21021e-05
7.34038e-06
-5.44897e-05
7.34733e-06
-5.68767e-05
7.35278e-06
-5.92625e-05
7.35652e-06
-6.16464e-05
7.35829e-06
-6.40276e-05
7.35785e-06
-6.64054e-05
7.35494e-06
-6.87787e-05
7.34932e-06
-7.11468e-05
7.34073e-06
-7.35085e-05
7.32895e-06
-7.58627e-05
7.31376e-06
-7.82084e-05
7.29496e-06
-8.05444e-05
7.27241e-06
-8.28696e-05
7.246e-06
-8.51827e-05
7.21572e-06
-8.74828e-05
7.18162e-06
-8.97689e-05
7.14389e-06
-9.20401e-05
7.10289e-06
-9.42959e-05
7.05918e-06
-9.65361e-05
7.01359e-06
-9.8761e-05
6.96733e-06
-0.000100972
6.92209e-06
-0.00010317
6.88017e-06
-0.000105359
6.84478e-06
-0.000107545
6.82032e-06
-0.000109735
6.8129e-06
-0.000111942
6.83119e-06
-0.000114185
6.88789e-06
-0.00011649
7.00248e-06
-0.000118899
7.20665e-06
-0.000121472
7.55519e-06
-0.000124292
8.14804e-06
-0.000127444
9.16967e-06
-0.000130954
1.0939e-05
-0.000134666
1.39478e-05
-0.00013801
1.89099e-05
-0.000138875
2.66262e-05
3.55668e-05
-0.000135947
-9.30829e-07
3.49142e-06
-2.73601e-06
7.02376e-06
-4.9259e-06
8.61368e-06
-7.26878e-06
9.26204e-06
-9.66814e-06
9.4992e-06
-1.20873e-05
9.57898e-06
-1.45136e-05
9.60645e-06
-1.69433e-05
9.61929e-06
-1.93751e-05
9.6292e-06
-2.18089e-05
9.63926e-06
-2.42445e-05
9.65007e-06
-2.6682e-05
9.66165e-06
-2.91213e-05
9.67387e-06
-3.15624e-05
9.68657e-06
-3.40053e-05
9.69958e-06
-3.64499e-05
9.71271e-06
-3.8896e-05
9.72578e-06
-4.13436e-05
9.73858e-06
-4.37923e-05
9.75091e-06
-4.62419e-05
9.76252e-06
-4.86921e-05
9.77319e-06
-5.11426e-05
9.78264e-06
-5.35928e-05
9.79062e-06
-5.60423e-05
9.79684e-06
-5.84906e-05
9.801e-06
-6.09368e-05
9.80279e-06
-6.33804e-05
9.80191e-06
-6.58206e-05
9.79802e-06
-6.82565e-05
9.79081e-06
-7.06871e-05
9.77995e-06
-7.31115e-05
9.76512e-06
-7.55286e-05
9.74603e-06
-7.79372e-05
9.7224e-06
-8.03363e-05
9.694e-06
-8.27245e-05
9.66062e-06
-8.51007e-05
9.62217e-06
-8.74636e-05
9.57862e-06
-8.9812e-05
9.53008e-06
-9.21449e-05
9.47682e-06
-9.44614e-05
9.41934e-06
-9.67606e-05
9.35841e-06
-9.90422e-05
9.2952e-06
-0.000101306
9.23135e-06
-0.000103553
9.16917e-06
-0.000105785
9.11183e-06
-0.000108004
9.06371e-06
-0.000110214
9.03082e-06
-0.000112423
9.02153e-06
-0.000114639
9.04757e-06
-0.000116877
9.12582e-06
-0.000119156
9.2812e-06
-0.000121501
9.55165e-06
-0.000123943
9.99695e-06
-0.000126508
1.07134e-05
-0.000129193
1.18547e-05
-0.000131904
1.36494e-05
-0.000134361
1.64051e-05
-0.000135929
2.04778e-05
-0.000135269
2.59664e-05
3.2041e-05
-0.000131743
-9.36755e-07
4.42817e-06
-2.76308e-06
8.85008e-06
-4.97829e-06
1.08289e-05
-7.34694e-06
1.16307e-05
-9.77132e-06
1.19236e-05
-1.22147e-05
1.20224e-05
-1.46649e-05
1.20566e-05
-1.71182e-05
1.20726e-05
-1.95736e-05
1.20846e-05
-2.20309e-05
1.20966e-05
-2.44901e-05
1.21092e-05
-2.69511e-05
1.21226e-05
-2.94138e-05
1.21366e-05
-3.18784e-05
1.21511e-05
-3.43446e-05
1.21658e-05
-3.68125e-05
1.21806e-05
-3.92819e-05
1.21952e-05
-4.17526e-05
1.22093e-05
-4.42244e-05
1.22227e-05
-4.66971e-05
1.22352e-05
-4.91703e-05
1.22464e-05
-5.16436e-05
1.2256e-05
-5.41166e-05
1.22636e-05
-5.65888e-05
1.2269e-05
-5.90596e-05
1.22718e-05
-6.15283e-05
1.22715e-05
-6.39943e-05
1.22679e-05
-6.64566e-05
1.22604e-05
-6.89146e-05
1.22487e-05
-7.13671e-05
1.22325e-05
-7.38132e-05
1.22112e-05
-7.62517e-05
1.21846e-05
-7.86815e-05
1.21522e-05
-8.11014e-05
1.21139e-05
-8.351e-05
1.20693e-05
-8.59061e-05
1.20182e-05
-8.82883e-05
1.19608e-05
-9.06552e-05
1.1897e-05
-9.30056e-05
1.18272e-05
-9.53383e-05
1.1752e-05
-9.76522e-05
1.16723e-05
-9.99464e-05
1.15894e-05
-0.00010222
1.15054e-05
-0.000104474
1.14229e-05
-0.000106708
1.13457e-05
-0.000108923
1.12789e-05
-0.000111122
1.12295e-05
-0.000113308
1.12072e-05
-0.000115485
1.12251e-05
-0.000117661
1.13019e-05
-0.000119844
1.14637e-05
-0.00012204
1.17481e-05
-0.000124253
1.22097e-05
-0.000126467
1.29275e-05
-0.000128625
1.40125e-05
-0.000130585
1.5609e-05
-0.000132061
1.78811e-05
-0.000132537
2.09541e-05
-0.000131293
2.47229e-05
2.86949e-05
-0.000127947
-9.36164e-07
5.36433e-06
-2.76798e-06
1.06819e-05
-4.99064e-06
1.30516e-05
-7.36734e-06
1.40074e-05
-9.79951e-06
1.43557e-05
-1.22503e-05
1.44732e-05
-1.47076e-05
1.45139e-05
-1.71679e-05
1.45329e-05
-1.96303e-05
1.4547e-05
-2.20946e-05
1.45609e-05
-2.45608e-05
1.45755e-05
-2.7029e-05
1.45908e-05
-2.9499e-05
1.46067e-05
-3.1971e-05
1.46231e-05
-3.44448e-05
1.46396e-05
-3.69203e-05
1.46561e-05
-3.93975e-05
1.46723e-05
-4.18762e-05
1.4688e-05
-4.43561e-05
1.47027e-05
-4.68371e-05
1.47161e-05
-4.93187e-05
1.4728e-05
-5.18007e-05
1.47379e-05
-5.42826e-05
1.47455e-05
-5.67639e-05
1.47503e-05
-5.9244e-05
1.47519e-05
-6.17223e-05
1.47498e-05
-6.4198e-05
1.47436e-05
-6.66704e-05
1.47328e-05
-6.91385e-05
1.47169e-05
-7.16015e-05
1.46954e-05
-7.40582e-05
1.46679e-05
-7.65075e-05
1.46339e-05
-7.89482e-05
1.45929e-05
-8.13789e-05
1.45446e-05
-8.37984e-05
1.44887e-05
-8.62052e-05
1.4425e-05
-8.85977e-05
1.43533e-05
-9.09744e-05
1.42738e-05
-9.33339e-05
1.41867e-05
-9.56745e-05
1.40926e-05
-9.79947e-05
1.39925e-05
-0.000100293
1.38879e-05
-0.000102568
1.37807e-05
-0.00010482
1.36739e-05
-0.000107045
1.35715e-05
-0.000109245
1.34789e-05
-0.000111419
1.34032e-05
-0.000113566
1.33545e-05
-0.000115687
1.33457e-05
-0.00011778
1.3395e-05
-0.000119843
1.35264e-05
-0.000121867
1.37726e-05
-0.000123835
1.41778e-05
-0.000125708
1.47999e-05
-0.000127406
1.5711e-05
-0.000128789
1.69918e-05
-0.000129621
1.87133e-05
-0.000129554
2.08866e-05
-0.0001282
2.33689e-05
2.58308e-05
-0.000125335
-9.34035e-07
6.29837e-06
-2.76566e-06
1.25135e-05
-4.98916e-06
1.5275e-05
-7.36737e-06
1.63856e-05
-9.80109e-06
1.67895e-05
-1.22533e-05
1.69254e-05
-1.47119e-05
1.69725e-05
-1.71735e-05
1.69945e-05
-1.96373e-05
1.70108e-05
-2.2103e-05
1.70266e-05
-2.45708e-05
1.70432e-05
-2.70406e-05
1.70606e-05
-2.95125e-05
1.70786e-05
-3.19865e-05
1.70971e-05
-3.44626e-05
1.71157e-05
-3.69407e-05
1.71342e-05
-3.94206e-05
1.71523e-05
-4.19023e-05
1.71697e-05
-4.43856e-05
1.71859e-05
-4.68702e-05
1.72007e-05
-4.93558e-05
1.72137e-05
-5.18421e-05
1.72243e-05
-5.43287e-05
1.72321e-05
-5.6815e-05
1.72367e-05
-5.93006e-05
1.72375e-05
-6.17848e-05
1.7234e-05
-6.42668e-05
1.72256e-05
-6.67459e-05
1.72119e-05
-6.92212e-05
1.71922e-05
-7.16917e-05
1.71659e-05
-7.41564e-05
1.71325e-05
-7.6614e-05
1.70915e-05
-7.90633e-05
1.70422e-05
-8.15029e-05
1.69842e-05
-8.39314e-05
1.69172e-05
-8.63471e-05
1.68407e-05
-8.87484e-05
1.67547e-05
-9.11337e-05
1.6659e-05
-9.35009e-05
1.65539e-05
-9.58482e-05
1.64399e-05
-9.81736e-05
1.63179e-05
-0.000100475
1.61893e-05
-0.00010275
1.6056e-05
-0.000104997
1.59208e-05
-0.000107213
1.57876e-05
-0.000109396
1.56616e-05
-0.000111542
1.55496e-05
-0.000113648
1.54608e-05
-0.00011571
1.54071e-05
-0.000117719
1.54043e-05
-0.000119665
1.54726e-05
-0.000121531
1.56379e-05
-0.000123285
1.59325e-05
-0.00012488
1.63948e-05
-0.000126236
1.70669e-05
-0.000127231
1.79867e-05
-0.00012769
1.91718e-05
-0.00012739
2.05866e-05
-0.000126121
2.21003e-05
2.3479e-05
-0.000123769
-9.31665e-07
7.23003e-06
-2.76115e-06
1.4343e-05
-4.98314e-06
1.7497e-05
-7.36046e-06
1.87629e-05
-9.79353e-06
1.92225e-05
-1.22452e-05
1.9377e-05
-1.47032e-05
1.94306e-05
-1.71642e-05
1.94555e-05
-1.96275e-05
1.9474e-05
-2.20928e-05
1.9492e-05
-2.45604e-05
1.95108e-05
-2.70302e-05
1.95304e-05
-2.95024e-05
1.95507e-05
-3.19768e-05
1.95715e-05
-3.44536e-05
1.95925e-05
-3.69327e-05
1.96133e-05
-3.94139e-05
1.96336e-05
-4.18973e-05
1.9653e-05
-4.43826e-05
1.96713e-05
-4.68697e-05
1.96878e-05
-4.93582e-05
1.97021e-05
-5.18478e-05
1.97139e-05
-5.43381e-05
1.97224e-05
-5.68287e-05
1.97273e-05
-5.93191e-05
1.97278e-05
-6.18086e-05
1.97234e-05
-6.42965e-05
1.97135e-05
-6.6782e-05
1.96974e-05
-6.92642e-05
1.96745e-05
-7.17422e-05
1.96439e-05
-7.42149e-05
1.96052e-05
-7.66811e-05
1.95576e-05
-7.91393e-05
1.95005e-05
-8.15883e-05
1.94332e-05
-8.40264e-05
1.93553e-05
-8.64519e-05
1.92663e-05
-8.88631e-05
1.91658e-05
-9.12578e-05
1.90537e-05
-9.36339e-05
1.89301e-05
-9.59892e-05
1.87952e-05
-9.83211e-05
1.86498e-05
-0.000100627
1.84951e-05
-0.000102904
1.83327e-05
-0.000105148
1.81652e-05
-0.000107356
1.79959e-05
-0.000109524
1.78293e-05
-0.000111646
1.76716e-05
-0.000113716
1.75306e-05
-0.000115725
1.74161e-05
-0.000117662
1.73409e-05
-0.00011951
1.73206e-05
-0.000121246
1.73738e-05
-0.000122835
1.75221e-05
-0.000124229
1.77883e-05
-0.000125355
1.8193e-05
-0.000126116
1.87478e-05
-0.000126387
1.94429e-05
-0.000126029
2.02288e-05
-0.000124926
2.09974e-05
2.15814e-05
-0.000123028
-9.29253e-07
8.15929e-06
-2.75583e-06
1.61696e-05
-4.97541e-06
1.97166e-05
-7.3509e-06
2.11384e-05
-9.78245e-06
2.16541e-05
-1.22327e-05
2.18273e-05
-1.46894e-05
2.18873e-05
-1.71492e-05
2.19153e-05
-1.96114e-05
2.19362e-05
-2.20758e-05
2.19565e-05
-2.45426e-05
2.19776e-05
-2.70119e-05
2.19997e-05
-2.94838e-05
2.20226e-05
-3.19582e-05
2.2046e-05
-3.44353e-05
2.20696e-05
-3.6915e-05
2.2093e-05
-3.93973e-05
2.21159e-05
-4.18821e-05
2.21378e-05
-4.43693e-05
2.21584e-05
-4.68586e-05
2.21771e-05
-4.93499e-05
2.21934e-05
-5.18428e-05
2.22068e-05
-5.4337e-05
2.22166e-05
-5.6832e-05
2.22223e-05
-5.93274e-05
2.22232e-05
-6.18226e-05
2.22186e-05
-6.43167e-05
2.22077e-05
-6.68092e-05
2.21899e-05
-6.92991e-05
2.21643e-05
-7.17854e-05
2.21303e-05
-7.42671e-05
2.20869e-05
-7.67428e-05
2.20333e-05
-7.92112e-05
2.19689e-05
-8.16709e-05
2.18929e-05
-8.41201e-05
2.18045e-05
-8.6557e-05
2.17032e-05
-8.89797e-05
2.15884e-05
-9.13859e-05
2.14599e-05
-9.37731e-05
2.13173e-05
-9.61388e-05
2.11608e-05
-9.84798e-05
2.09909e-05
-0.000100793
2.08083e-05
-0.000103074
2.06143e-05
-0.00010532
2.04108e-05
-0.000107525
2.02007e-05
-0.000109683
1.99876e-05
-0.000111788
1.97762e-05
-0.00011383
1.95728e-05
-0.000115799
1.93849e-05
-0.00011768
1.92218e-05
-0.000119454
1.90946e-05
-0.000121095
1.90154e-05
-0.00012257
1.89968e-05
-0.000123832
1.90501e-05
-0.000124821
1.91818e-05
-0.000125461
1.93883e-05
-0.000125666
1.96479e-05
-0.000125348
1.99106e-05
-0.000124442
2.00911e-05
2.007e-05
-0.00012293
-9.26732e-07
9.08602e-06
-2.74997e-06
1.79928e-05
-4.96667e-06
2.19333e-05
-7.33985e-06
2.35116e-05
-9.76942e-06
2.40836e-05
-1.22179e-05
2.42757e-05
-1.46729e-05
2.43424e-05
-1.71312e-05
2.43736e-05
-1.9592e-05
2.43969e-05
-2.20552e-05
2.44197e-05
-2.45211e-05
2.44434e-05
-2.69896e-05
2.44683e-05
-2.9461e-05
2.4494e-05
-3.19353e-05
2.45203e-05
-3.44126e-05
2.45468e-05
-3.68929e-05
2.45733e-05
-3.93762e-05
2.45992e-05
-4.18624e-05
2.46241e-05
-4.43515e-05
2.46475e-05
-4.68432e-05
2.46689e-05
-4.93375e-05
2.46877e-05
-5.1834e-05
2.47033e-05
-5.43324e-05
2.4715e-05
-5.68323e-05
2.47222e-05
-5.93332e-05
2.47241e-05
-6.18346e-05
2.47199e-05
-6.43358e-05
2.47089e-05
-6.6836e-05
2.46901e-05
-6.93344e-05
2.46628e-05
-7.18301e-05
2.46259e-05
-7.43218e-05
2.45786e-05
-7.68084e-05
2.45199e-05
-7.92885e-05
2.4449e-05
-8.17605e-05
2.43648e-05
-8.42226e-05
2.42666e-05
-8.66729e-05
2.41535e-05
-8.91093e-05
2.40248e-05
-9.15293e-05
2.38799e-05
-9.39303e-05
2.37183e-05
-9.63093e-05
2.35398e-05
-9.86628e-05
2.33444e-05
-0.000100987
2.31325e-05
-0.000103278
2.29049e-05
-0.00010553
2.26628e-05
-0.000107737
2.24081e-05
-0.000109893
2.21435e-05
-0.000111989
2.18722e-05
-0.000114015
2.15988e-05
-0.000115958
2.13283e-05
-0.000117803
2.10668e-05
-0.00011953
2.08211e-05
-0.000121112
2.05979e-05
-0.000122519
2.04031e-05
-0.000123708
2.02396e-05
-0.000124631
2.01053e-05
-0.000125232
1.99886e-05
-0.000125448
1.98639e-05
-0.000125223
1.96864e-05
-0.000124522
1.93897e-05
1.88888e-05
-0.000123341
-9.24019e-07
1.001e-05
-2.74356e-06
1.98124e-05
-4.957e-06
2.41468e-05
-7.32752e-06
2.58821e-05
-9.75478e-06
2.65109e-05
-1.22011e-05
2.67221e-05
-1.46543e-05
2.67955e-05
-1.71108e-05
2.68301e-05
-1.95699e-05
2.68561e-05
-2.20318e-05
2.68815e-05
-2.44964e-05
2.69081e-05
-2.69641e-05
2.69359e-05
-2.94349e-05
2.69648e-05
-3.1909e-05
2.69943e-05
-3.43864e-05
2.70243e-05
-3.68673e-05
2.70541e-05
-3.93516e-05
2.70835e-05
-4.18393e-05
2.71118e-05
-4.43304e-05
2.71386e-05
-4.68248e-05
2.71633e-05
-4.93223e-05
2.71852e-05
-5.18227e-05
2.72037e-05
-5.43256e-05
2.7218e-05
-5.68308e-05
2.72274e-05
-5.93378e-05
2.72311e-05
-6.18461e-05
2.72282e-05
-6.4355e-05
2.72178e-05
-6.68639e-05
2.7199e-05
-6.93718e-05
2.71707e-05
-7.18779e-05
2.7132e-05
-7.4381e-05
2.70817e-05
-7.68799e-05
2.70188e-05
-7.93731e-05
2.69422e-05
-8.18591e-05
2.68508e-05
-8.43361e-05
2.67436e-05
-8.6802e-05
2.66194e-05
-8.92545e-05
2.64774e-05
-9.16911e-05
2.63165e-05
-9.41089e-05
2.61361e-05
-9.65045e-05
2.59354e-05
-9.88743e-05
2.57142e-05
-0.000101214
2.54722e-05
-0.000103519
2.52096e-05
-0.000105783
2.49269e-05
-0.000108
2.46251e-05
-0.000110162
2.43056e-05
-0.00011226
2.39702e-05
-0.000114283
2.36216e-05
-0.000116217
2.32626e-05
-0.000118047
2.28964e-05
-0.000119752
2.2526e-05
-0.000121308
2.2154e-05
-0.000122686
2.1781e-05
-0.000123851
2.14048e-05
-0.000124764
2.10178e-05
-0.00012538
2.06051e-05
-0.000125657
2.0141e-05
-0.000125558
1.95874e-05
-0.000125061
1.88927e-05
1.7996e-05
-0.000124168
-9.21058e-07
1.09311e-05
-2.73651e-06
2.16278e-05
-4.94636e-06
2.63566e-05
-7.31387e-06
2.82496e-05
-9.7385e-06
2.89355e-05
-1.21825e-05
2.9166e-05
-1.46334e-05
2.92464e-05
-1.70879e-05
2.92846e-05
-1.95452e-05
2.93134e-05
-2.20054e-05
2.93418e-05
-2.44688e-05
2.93714e-05
-2.69354e-05
2.94025e-05
-2.94055e-05
2.94349e-05
-3.18792e-05
2.94681e-05
-3.43568e-05
2.95018e-05
-3.68381e-05
2.95355e-05
-3.93235e-05
2.95688e-05
-4.18128e-05
2.96011e-05
-4.4306e-05
2.96319e-05
-4.68032e-05
2.96604e-05
-4.93041e-05
2.96861e-05
-5.18086e-05
2.97082e-05
-5.43165e-05
2.97259e-05
-5.68275e-05
2.97384e-05
-5.93411e-05
2.97447e-05
-6.18569e-05
2.9744e-05
-6.43743e-05
2.97352e-05
-6.68926e-05
2.97173e-05
-6.9411e-05
2.96891e-05
-7.19286e-05
2.96496e-05
-7.44443e-05
2.95974e-05
-7.69569e-05
2.95314e-05
-7.94649e-05
2.94502e-05
-8.19668e-05
2.93527e-05
-8.44606e-05
2.92374e-05
-8.69443e-05
2.91032e-05
-8.94156e-05
2.89486e-05
-9.18717e-05
2.87726e-05
-9.43095e-05
2.85739e-05
-9.67257e-05
2.83516e-05
-9.91161e-05
2.81047e-05
-0.000101476
2.78324e-05
-0.000103801
2.75343e-05
-0.000106084
2.72101e-05
-0.000108319
2.68596e-05
-0.000110496
2.64832e-05
-0.000112608
2.60814e-05
-0.000114641
2.56549e-05
-0.000116583
2.52044e-05
-0.000118417
2.47307e-05
-0.000120125
2.42338e-05
-0.000121683
2.37128e-05
-0.000123067
2.3165e-05
-0.000124247
2.25844e-05
-0.00012519
2.19609e-05
-0.000125863
2.12782e-05
-0.000126235
2.05126e-05
-0.00012628
1.96321e-05
-0.000125984
1.85968e-05
1.73621e-05
-0.00012535
-9.1781e-07
1.18489e-05
-2.72878e-06
2.34388e-05
-4.93464e-06
2.85625e-05
-7.2988e-06
3.06138e-05
-9.72049e-06
3.13572e-05
-1.21618e-05
3.16073e-05
-1.46102e-05
3.16949e-05
-1.70624e-05
3.17367e-05
-1.95176e-05
3.17687e-05
-2.1976e-05
3.18002e-05
-2.44378e-05
3.18332e-05
-2.69032e-05
3.18679e-05
-2.93724e-05
3.19041e-05
-3.18457e-05
3.19414e-05
-3.43232e-05
3.19793e-05
-3.68051e-05
3.20174e-05
-3.92914e-05
3.20551e-05
-4.17823e-05
3.2092e-05
-4.42777e-05
3.21273e-05
-4.67778e-05
3.21604e-05
-4.92823e-05
3.21906e-05
-5.17913e-05
3.22171e-05
-5.43044e-05
3.2239e-05
-5.68215e-05
3.22554e-05
-5.93422e-05
3.22654e-05
-6.18661e-05
3.22679e-05
-6.43926e-05
3.22618e-05
-6.69212e-05
3.22459e-05
-6.9451e-05
3.2219e-05
-7.19812e-05
3.21798e-05
-7.45108e-05
3.2127e-05
-7.70385e-05
3.20591e-05
-7.95629e-05
3.19747e-05
-8.20825e-05
3.18722e-05
-8.45953e-05
3.17502e-05
-8.70992e-05
3.16071e-05
-8.9592e-05
3.14413e-05
-9.20706e-05
3.12513e-05
-9.45321e-05
3.10354e-05
-9.69727e-05
3.07922e-05
-9.93884e-05
3.05203e-05
-0.000101774
3.02184e-05
-0.000104125
2.98851e-05
-0.000106434
2.95193e-05
-0.000108695
2.912e-05
-0.000110898
2.86864e-05
-0.000113034
2.82174e-05
-0.000115091
2.77123e-05
-0.000117057
2.71699e-05
-0.000118915
2.65888e-05
-0.000120648
2.59667e-05
-0.000122235
2.53002e-05
-0.000123654
2.45839e-05
-0.000124879
2.38099e-05
-0.000125885
2.29665e-05
-0.000126644
2.20377e-05
-0.000127134
2.1002e-05
-0.000127334
1.98328e-05
-0.000127237
1.84989e-05
1.69671e-05
-0.000126842
-9.14248e-07
1.27632e-05
-2.72029e-06
2.52448e-05
-4.92176e-06
3.07639e-05
-7.28221e-06
3.29742e-05
-9.70061e-06
3.37756e-05
-1.21389e-05
3.40456e-05
-1.45845e-05
3.41405e-05
-1.7034e-05
3.41863e-05
-1.94869e-05
3.42216e-05
-2.19432e-05
3.42565e-05
-2.44032e-05
3.42932e-05
-2.68672e-05
3.43319e-05
-2.93354e-05
3.43723e-05
-3.1808e-05
3.4414e-05
-3.42853e-05
3.44566e-05
-3.67675e-05
3.44996e-05
-3.92548e-05
3.45424e-05
-4.17472e-05
3.45844e-05
-4.42449e-05
3.4625e-05
-4.67479e-05
3.46634e-05
-4.92562e-05
3.46989e-05
-5.17697e-05
3.47306e-05
-5.42883e-05
3.47577e-05
-5.68119e-05
3.4779e-05
-5.93401e-05
3.47936e-05
-6.18726e-05
3.48004e-05
-6.44089e-05
3.47981e-05
-6.69485e-05
3.47855e-05
-6.94907e-05
3.47611e-05
-7.20346e-05
3.47237e-05
-7.45792e-05
3.46716e-05
-7.71234e-05
3.46033e-05
-7.96659e-05
3.45171e-05
-8.2205e-05
3.44113e-05
-8.47389e-05
3.42842e-05
-8.72656e-05
3.41338e-05
-8.97825e-05
3.39583e-05
-9.2287e-05
3.37557e-05
-9.47757e-05
3.35241e-05
-9.7245e-05
3.32616e-05
-9.96908e-05
3.29661e-05
-0.000102108
3.26356e-05
-0.000104491
3.22682e-05
-0.000106834
3.1862e-05
-0.000109129
3.14149e-05
-0.000111367
3.09248e-05
-0.000113539
3.03897e-05
-0.000115634
2.98072e-05
-0.000117639
2.91746e-05
-0.000119539
2.84885e-05
-0.000121317
2.7745e-05
-0.000122956
2.69387e-05
-0.000124434
2.60624e-05
-0.000125731
2.51068e-05
-0.000126824
2.40599e-05
-0.000127693
2.29061e-05
-0.000128317
2.16264e-05
-0.000128683
2.01985e-05
-0.000128782
1.85976e-05
1.67984e-05
-0.000128613
-9.1035e-07
1.36735e-05
-2.71099e-06
2.70455e-05
-4.90764e-06
3.29606e-05
-7.26397e-06
3.53306e-05
-9.67872e-06
3.61904e-05
-1.21136e-05
3.64804e-05
-1.45561e-05
3.65829e-05
-1.70027e-05
3.66329e-05
-1.94529e-05
3.66718e-05
-2.19068e-05
3.67104e-05
-2.43647e-05
3.67511e-05
-2.68269e-05
3.67941e-05
-2.92938e-05
3.68391e-05
-3.17656e-05
3.68858e-05
-3.42426e-05
3.69336e-05
-3.6725e-05
3.6982e-05
-3.9213e-05
3.70304e-05
-4.17069e-05
3.70783e-05
-4.42068e-05
3.71249e-05
-4.67127e-05
3.71694e-05
-4.92248e-05
3.7211e-05
-5.1743e-05
3.72489e-05
-5.42674e-05
3.7282e-05
-5.67977e-05
3.73093e-05
-5.93338e-05
3.73297e-05
-6.18754e-05
3.7342e-05
-6.44221e-05
3.73448e-05
-6.69734e-05
3.73368e-05
-6.95287e-05
3.73164e-05
-7.20872e-05
3.72822e-05
-7.46481e-05
3.72325e-05
-7.72102e-05
3.71654e-05
-7.97723e-05
3.70792e-05
-8.23328e-05
3.69719e-05
-8.489e-05
3.68414e-05
-8.74418e-05
3.66856e-05
-8.99858e-05
3.65023e-05
-9.25192e-05
3.62891e-05
-9.50389e-05
3.60438e-05
-9.75412e-05
3.57639e-05
-0.000100022
3.54467e-05
-0.000102476
3.50898e-05
-0.000104898
3.46903e-05
-0.000107282
3.42456e-05
-0.00010962
3.37527e-05
-0.000111903
3.32085e-05
-0.000114123
3.26097e-05
-0.000116269
3.19526e-05
-0.000118327
3.12331e-05
-0.000120285
3.04465e-05
-0.000122127
2.95871e-05
-0.000123837
2.86482e-05
-0.000125396
2.76214e-05
-0.000126786
2.64967e-05
-0.000127988
2.52616e-05
-0.000128983
2.39017e-05
-0.000129757
2.23999e-05
-0.000130295
2.07372e-05
-0.000130591
1.88935e-05
1.68489e-05
-0.000130642
-9.06096e-07
1.45796e-05
-2.70083e-06
2.88402e-05
-4.89218e-06
3.51519e-05
-7.24397e-06
3.76824e-05
-9.65467e-06
3.86011e-05
-1.20858e-05
3.89115e-05
-1.45247e-05
3.90219e-05
-1.69681e-05
3.90763e-05
-1.94152e-05
3.9119e-05
-2.18664e-05
3.91616e-05
-2.43219e-05
3.92066e-05
-2.67821e-05
3.92543e-05
-2.92473e-05
3.93044e-05
-3.1718e-05
3.93564e-05
-3.41944e-05
3.94099e-05
-3.66767e-05
3.94644e-05
-3.91654e-05
3.95191e-05
-4.16606e-05
3.95735e-05
-4.41625e-05
3.96268e-05
-4.66714e-05
3.96782e-05
-4.91873e-05
3.97269e-05
-5.17103e-05
3.97719e-05
-5.42405e-05
3.98122e-05
-5.67778e-05
3.98466e-05
-5.9322e-05
3.9874e-05
-6.18731e-05
3.9893e-05
-6.44306e-05
3.99023e-05
-6.69943e-05
3.99004e-05
-6.95635e-05
3.98857e-05
-7.21376e-05
3.98564e-05
-7.47159e-05
3.98107e-05
-7.72972e-05
3.97468e-05
-7.98804e-05
3.96624e-05
-8.24641e-05
3.95556e-05
-8.50466e-05
3.94239e-05
-8.76259e-05
3.92649e-05
-9.01998e-05
3.90761e-05
-9.27654e-05
3.88548e-05
-9.53198e-05
3.85982e-05
-9.78593e-05
3.83034e-05
-0.00010038
3.79672e-05
-0.000102877
3.75865e-05
-0.000105344
3.71578e-05
-0.000107776
3.66775e-05
-0.000110165
3.61419e-05
-0.000112504
3.55469e-05
-0.000114782
3.48881e-05
-0.00011699
3.41607e-05
-0.000119116
3.33593e-05
-0.000121148
3.24779e-05
-0.00012307
3.15096e-05
-0.000124869
3.04465e-05
-0.000126527
2.92795e-05
-0.000128028
2.79979e-05
-0.000129356
2.65893e-05
-0.000130494
2.504e-05
-0.000131429
2.33346e-05
-0.000132148
2.14565e-05
-0.000132644
1.93891e-05
1.71162e-05
-0.000132911
-9.01465e-07
1.54811e-05
-2.68976e-06
3.06285e-05
-4.87531e-06
3.73375e-05
-7.2221e-06
4.00291e-05
-9.6283e-06
4.10073e-05
-1.20552e-05
4.13385e-05
-1.44902e-05
4.14569e-05
-1.69299e-05
4.15159e-05
-1.93736e-05
4.15627e-05
-2.18216e-05
4.16096e-05
-2.42744e-05
4.16593e-05
-2.67322e-05
4.17121e-05
-2.91955e-05
4.17677e-05
-3.16647e-05
4.18256e-05
-3.41402e-05
4.18854e-05
-3.66223e-05
4.19464e-05
-3.91113e-05
4.20081e-05
-4.16076e-05
4.20698e-05
-4.41114e-05
4.21307e-05
-4.66231e-05
4.21899e-05
-4.91427e-05
4.22466e-05
-5.16705e-05
4.22997e-05
-5.42065e-05
4.23482e-05
-5.67509e-05
4.2391e-05
-5.93035e-05
4.24266e-05
-6.18643e-05
4.24538e-05
-6.44332e-05
4.24712e-05
-6.70097e-05
4.24769e-05
-6.95935e-05
4.24695e-05
-7.2184e-05
4.24469e-05
-7.47806e-05
4.24073e-05
-7.73823e-05
4.23485e-05
-7.99881e-05
4.22682e-05
-8.25967e-05
4.21642e-05
-8.52065e-05
4.20337e-05
-8.78157e-05
4.18741e-05
-9.04221e-05
4.16825e-05
-9.30231e-05
4.14558e-05
-9.56158e-05
4.11909e-05
-9.81967e-05
4.08843e-05
-0.000100762
4.05323e-05
-0.000103307
4.01312e-05
-0.000105826
3.96769e-05
-0.000108313
3.91649e-05
-0.000110762
3.85908e-05
-0.000113165
3.79495e-05
-0.000115512
3.72355e-05
-0.000117794
3.64432e-05
-0.000120001
3.55659e-05
-0.00012212
3.45967e-05
-0.000124138
3.35275e-05
-0.000126041
3.23496e-05
-0.000127814
3.1053e-05
-0.000129443
2.96267e-05
-0.000130912
2.80584e-05
-0.000132207
2.63349e-05
-0.000133314
2.4442e-05
-0.000134223
2.23648e-05
-0.000134923
2.00891e-05
1.76013e-05
-0.000135408
-8.96438e-07
1.63775e-05
-2.67773e-06
3.24098e-05
-4.85693e-06
3.95167e-05
-7.19823e-06
4.23704e-05
-9.59948e-06
4.34085e-05
-1.20218e-05
4.37608e-05
-1.44524e-05
4.38875e-05
-1.68879e-05
4.39514e-05
-1.93277e-05
4.40026e-05
-2.17722e-05
4.40541e-05
-2.42218e-05
4.41089e-05
-2.66768e-05
4.41672e-05
-2.91378e-05
4.42287e-05
-3.16052e-05
4.4293e-05
-3.40794e-05
4.43596e-05
-3.65608e-05
4.44279e-05
-3.90499e-05
4.44973e-05
-4.15471e-05
4.45669e-05
-4.40526e-05
4.46362e-05
-4.65668e-05
4.47041e-05
-4.909e-05
4.47698e-05
-5.16224e-05
4.48321e-05
-5.41643e-05
4.48901e-05
-5.67157e-05
4.49424e-05
-5.92769e-05
4.49877e-05
-6.18477e-05
4.50246e-05
-6.4428e-05
4.50515e-05
-6.70178e-05
4.50667e-05
-6.96168e-05
4.50684e-05
-7.22244e-05
4.50546e-05
-7.48402e-05
4.50231e-05
-7.74635e-05
4.49717e-05
-8.00932e-05
4.48979e-05
-8.27282e-05
4.47992e-05
-8.53672e-05
4.46727e-05
-8.80085e-05
4.45153e-05
-9.065e-05
4.4324e-05
-9.32894e-05
4.40952e-05
-9.59238e-05
4.38254e-05
-9.85502e-05
4.35106e-05
-0.000101165
4.31468e-05
-0.000103763
4.27294e-05
-0.00010634
4.22537e-05
-0.000108889
4.17147e-05
-0.000111406
4.11071e-05
-0.000113881
4.04248e-05
-0.000116307
3.96617e-05
-0.000118675
3.88109e-05
-0.000120974
3.7865e-05
-0.000123193
3.68159e-05
-0.00012532
3.56547e-05
-0.000127343
3.43719e-05
-0.000129246
3.29568e-05
-0.000131018
3.1398e-05
-0.000132642
2.96832e-05
-0.000134107
2.77995e-05
-0.000135398
2.57333e-05
-0.000136505
2.34713e-05
-0.000137416
2.10003e-05
1.83086e-05
-0.000138123
-8.90994e-07
1.72685e-05
-2.66468e-06
3.41835e-05
-4.83696e-06
4.1689e-05
-7.17223e-06
4.47057e-05
-9.56802e-06
4.58043e-05
-1.19852e-05
4.6178e-05
-1.44109e-05
4.63132e-05
-1.68418e-05
4.63823e-05
-1.92773e-05
4.64381e-05
-2.17178e-05
4.64946e-05
-2.41637e-05
4.65547e-05
-2.66154e-05
4.6619e-05
-2.90737e-05
4.66869e-05
-3.15388e-05
4.67581e-05
-3.40113e-05
4.68322e-05
-3.64918e-05
4.69083e-05
-3.89806e-05
4.6986e-05
-4.14782e-05
4.70645e-05
-4.3985e-05
4.7143e-05
-4.65015e-05
4.72206e-05
-4.9028e-05
4.72963e-05
-5.15649e-05
4.7369e-05
-5.41125e-05
4.74377e-05
-5.6671e-05
4.75009e-05
-5.92406e-05
4.75573e-05
-6.18214e-05
4.76055e-05
-6.44135e-05
4.76437e-05
-6.70169e-05
4.76701e-05
-6.96314e-05
4.76829e-05
-7.22568e-05
4.76799e-05
-7.48926e-05
4.76589e-05
-7.75382e-05
4.76173e-05
-8.0193e-05
4.75527e-05
-8.28559e-05
4.74621e-05
-8.55258e-05
4.73425e-05
-8.82011e-05
4.71907e-05
-9.08801e-05
4.7003e-05
-9.35607e-05
4.67758e-05
-9.62402e-05
4.6505e-05
-9.89158e-05
4.61862e-05
-0.000101584
4.58148e-05
-0.00010424