/*--------------------------------*- C++ -*----------------------------------*\
  =========                 |
  \\      /  F ield         | OpenFOAM: The Open Source CFD Toolbox
   \\    /   O peration     | Website:  https://openfoam.org
    \\  /    A nd           | Version:  8
     \\/     M anipulation  |
\*---------------------------------------------------------------------------*/
FoamFile
{
    version     2.0;
    format      ascii;
    class       surfaceScalarField;
    location    "42.5";
    object      phi;
}
// * * * * * * * * * * * * * * * * * * * * * * * * * * * * * * * * * * * * * //

dimensions      [0 3 -1 0 0 0 0];

internalField   nonuniform List<scalar> 
880
(
-1.6464e-05
1.6464e-05
-3.41335e-05
1.76695e-05
-5.11466e-05
1.70131e-05
-6.71298e-05
1.59832e-05
-8.17583e-05
1.46285e-05
-9.47207e-05
1.29623e-05
-0.00010579
1.10697e-05
-0.000114615
8.82474e-06
-0.000121428
6.81238e-06
-0.00012518
3.75289e-06
-0.000128146
2.96549e-06
4.73796e-07
-0.00012862
-1.8342e-05
3.48061e-05
-3.7964e-05
3.72914e-05
-5.68537e-05
3.59028e-05
-7.4599e-05
3.37285e-05
-9.08541e-05
3.08836e-05
-0.000105306
2.74139e-05
-0.000117728
2.34923e-05
-0.0001278
1.88963e-05
-0.00013577
1.47826e-05
-0.000140848
8.83135e-06
-0.000145184
7.30152e-06
-9.40793e-07
-0.00014377
-1.90856e-05
5.38917e-05
-3.95043e-05
5.77102e-05
-5.9147e-05
5.55455e-05
-7.75647e-05
5.21462e-05
-9.43614e-05
4.76803e-05
-0.000109146
4.21987e-05
-0.000121545
3.58906e-05
-0.000131318
2.86695e-05
-0.000138
2.14654e-05
-0.000141706
1.25366e-05
-0.000141084
6.67983e-06
-4.63096e-06
-0.000137394
-2.01686e-05
7.40603e-05
-4.17585e-05
7.93001e-05
-6.25432e-05
7.63302e-05
-8.20644e-05
7.16674e-05
-9.99549e-05
6.55708e-05
-0.000115903
5.81466e-05
-0.000129548
4.95362e-05
-0.000140579
3.96999e-05
-0.000148375
2.92619e-05
-0.000152915
1.70763e-05
-0.00015248
6.24506e-06
-8.54951e-06
-0.000148562
-2.16427e-05
9.5703e-05
-4.4821e-05
0.000102478
-6.71313e-05
9.86404e-05
-8.80579e-05
9.25941e-05
-0.000107157
8.46695e-05
-0.00012394
7.49297e-05
-0.000138027
6.36233e-05
-0.000149172
5.08452e-05
-0.000156992
3.7082e-05
-0.000161671
2.17547e-05
-0.000162185
6.75937e-06
-1.14632e-05
-0.000159271
-2.35648e-05
0.000119268
-4.88182e-05
0.000127732
-7.31464e-05
0.000122969
-9.59986e-05
0.000115446
-0.000117014
0.000105685
-0.000135901
9.38163e-05
-0.000152266
7.9989e-05
-0.000165618
6.41963e-05
-0.000175348
4.68121e-05
-0.000181187
2.75943e-05
-0.000181745
7.3169e-06
-1.48046e-05
-0.000178403
-2.5876e-05
0.000145144
-5.36601e-05
0.000155516
-8.04306e-05
0.000149739
-0.000105558
0.000140574
-0.000128501
0.000128628
-0.000148626
0.000113942
-0.000165692
9.70553e-05
-0.000179521
7.80251e-05
-0.000189923
5.72139e-05
-0.000196881
3.45523e-05
-0.000200238
1.0674e-05
-1.58731e-05
-0.00019917
-2.89264e-05
0.00017407
-5.99172e-05
0.000186507
-8.9757e-05
0.000179579
-0.000117679
0.000168496
-0.000143661
0.000154609
-0.000167205
0.000137486
-0.000187896
0.000117746
-0.000205148
9.52776e-05
-0.000218507
7.05723e-05
-0.000227408
4.34541e-05
-0.000230951
1.42162e-05
-1.75547e-05
-0.000229269
-3.19659e-05
0.000206036
-6.65357e-05
0.000221077
-9.97058e-05
0.000212749
-0.000130811
0.000199602
-0.000159094
0.000182892
-0.000183944
0.000162336
-0.000205353
0.000139154
-0.000223108
0.000113033
-0.000237242
8.47064e-05
-0.000247659
5.38709e-05
-0.000255146
2.17028e-05
-1.55193e-05
-0.000257181
-3.69379e-05
0.000242974
-7.62953e-05
0.000260434
-0.000114224
0.000250678
-0.00014933
0.000234707
-0.000182412
0.000215974
-0.000211737
0.000191662
-0.000238129
0.000165546
-0.000260555
0.00013546
-0.000279076
0.000103227
-0.000292786
6.75812e-05
-0.000301673
3.059e-05
-1.38803e-05
-0.000303312
-3.94827e-05
0.000282457
-8.42028e-05
0.000305154
-0.000125025
0.0002915
-0.00016535
0.000275032
-0.000200175
0.000250799
-0.000231735
0.000223222
-0.00025858
0.000192391
-0.000281072
0.000157951
-0.000299862
0.000122017
-0.000314289
8.20081e-05
-0.000327553
4.38535e-05
-6.63131e-06
-0.000334802
-5.07318e-05
0.000333188
-0.000100292
0.000354715
-0.000150815
0.000342023
-0.000193442
0.00031766
-0.000235196
0.000292552
-0.00027071
0.000258735
-0.000303811
0.000225493
-0.000331956
0.000186097
-0.000357323
0.000147383
-0.000377402
0.000102088
-0.000395327
6.17786e-05
1.69259e-06
-0.000403651
-4.59808e-05
0.000379169
-0.00010805
0.000416784
-0.00015897
0.000392942
-0.000214041
0.000372731
-0.000256929
0.00033544
-0.000297072
0.000298879
-0.000328718
0.000257138
-0.000355345
0.000212724
-0.000378064
0.000170103
-0.000395875
0.000119898
-0.000415018
8.09217e-05
1.586e-05
-0.000429185
-7.82115e-05
0.000457381
-0.00013723
0.000475802
-0.000204007
0.00045972
-0.000253292
0.000422016
-0.000303612
0.000385759
-0.000345056
0.000340324
-0.000384158
0.000296239
-0.000417618
0.000246185
-0.000449833
0.000202317
-0.000477104
0.00014717
-0.000507032
0.000110849
3.69953e-05
-0.000528167
-3.76246e-05
0.000495005
-0.000138149
0.000576327
-0.000206765
0.000528336
-0.000287034
0.000502285
-0.000340807
0.000439532
-0.000388874
0.000388391
-0.000422332
0.000329697
-0.000449356
0.000273209
-0.00047113
0.00022409
-0.000488809
0.000164849
-0.000509257
0.000131297
5.59671e-05
-0.000528229
-0.000157795
0.000652801
-0.0002023
0.000620831
-0.000283313
0.000609349
-0.000335361
0.000554333
-0.000388635
0.000492806
-0.000436114
0.00043587
-0.000476712
0.000370295
-0.000513588
0.000310085
-0.000548525
0.000259028
-0.000580816
0.000197139
-0.000620871
0.000171352
9.30585e-05
-0.000657962
2.66078e-05
0.000626193
-0.000177601
0.00082504
-0.000297196
0.000728944
-0.000413674
0.000670811
-0.000481325
0.000560458
-0.00052625
0.000480795
-0.000552735
0.00039678
-0.000567947
0.000325297
-0.00057827
0.000269351
-0.00058566
0.000204529
-0.000594348
0.000180039
0.000105093
-0.000606383
-0.000109485
0.000735678
-0.000162043
0.000877598
-0.000269805
0.000836706
-0.000404955
0.000805961
-0.000465757
0.000621259
-0.000539535
0.000554573
-0.000579232
0.000436477
-0.00061582
0.000361885
-0.000643437
0.000296968
-0.000670215
0.000231307
-0.000705528
0.000215353
0.000147187
-0.000747622
-0.00122072
0.00195639
-0.00125925
0.000916131
-0.00133938
0.000916837
-0.00118948
0.000656059
-0.00109228
0.000524064
-0.000942902
0.000405194
-0.000830431
0.000324006
-0.000721276
0.00025273
-0.000631556
0.000207248
-0.000559217
0.000158969
-0.000483393
0.000139529
9.99066e-05
-0.000436113
0.00195639
0.00287252
0.00378936
0.00444542
0.00496948
0.00537468
0.00569868
0.00595141
0.00615866
0.00631763
0.00645716
0.00655707
-0.000102456
4.12865e-05
-6.74501e-05
-7.98882e-05
1.7594e-05
-4.01619e-05
-6.57874e-05
-3.20775e-06
-1.08931e-05
-5.22601e-05
-1.90722e-05
5.54498e-06
-3.94899e-05
-3.16556e-05
1.88854e-05
-2.61872e-05
-4.08836e-05
2.75809e-05
-1.26914e-05
-4.68779e-05
3.33821e-05
-4.5803e-05
3.31117e-05
-0.000113756
1.12726e-05
-8.95997e-05
-6.56223e-06
-7.39764e-05
-1.8831e-05
-5.89224e-05
-3.41262e-05
-4.47274e-05
-4.58507e-05
-2.97825e-05
-5.58285e-05
-1.44625e-05
-6.2198e-05
-6.02655e-05
-0.000122567
-3.5545e-06
-0.000107689
-2.14397e-05
-9.17943e-05
-3.4726e-05
-7.50401e-05
-5.08805e-05
-5.72085e-05
-6.36822e-05
-3.82697e-05
-7.47673e-05
-1.85999e-05
-8.18678e-05
-7.88655e-05
-0.000134297
-1.78192e-05
-0.000119625
-3.61117e-05
-0.00010296
-5.1391e-05
-8.49593e-05
-6.88812e-05
-6.53123e-05
-8.33293e-05
-4.39421e-05
-9.61374e-05
-2.14592e-05
-0.000104351
-0.000100325
-0.000150002
-2.70882e-05
-0.000137622
-4.84923e-05
-0.000121374
-6.76387e-05
-0.000101676
-8.85796e-05
-7.92385e-05
-0.000105766
-5.35661e-05
-0.00012181
-2.63638e-05
-0.000131553
-0.000126688
-0.000169034
-3.64579e-05
-0.000156208
-6.1318e-05
-0.000139054
-8.47926e-05
-0.000117439
-0.000110195
-9.24312e-05
-0.000130774
-6.28367e-05
-0.000151404
-3.1192e-05
-0.000163198
-0.00015788
-0.000192873
-4.27542e-05
-0.000180471
-7.372e-05
-0.000163954
-0.00010131
-0.000139632
-0.000134517
-0.000112076
-0.00015833
-7.63084e-05
-0.000187171
-3.86937e-05
-0.000200812
-0.000196574
-0.000222932
-4.90911e-05
-0.000210152
-8.64999e-05
-0.000192744
-0.000118719
-0.000165941
-0.00016132
-0.000134757
-0.000189514
-9.2601e-05
-0.000229327
-4.75686e-05
-0.000245845
-0.000244143
-0.000255369
-5.09037e-05
-0.000243374
-9.84948e-05
-0.000228644
-0.000133449
-0.000198811
-0.000191153
-0.000166367
-0.000221958
-0.000114911
-0.000280783
-6.14724e-05
-0.000299283
-0.000305615
-0.000302168
-5.20477e-05
-0.000291208
-0.000109455
-0.000276559
-0.000148097
-0.000244727
-0.000222985
-0.00020794
-0.000258745
-0.000146327
-0.000342396
-8.01693e-05
-0.000365441
-0.000385785
-0.000341432
-4.54174e-05
-0.000333253
-0.000117634
-0.000326803
-0.000154547
-0.000294386
-0.000255402
-0.00026263
-0.000290501
-0.000188336
-0.00041669
-0.000112183
-0.000441594
-0.000497968
-0.000413289
-3.57795e-05
-0.000410273
-0.00012065
-0.000407964
-0.000156856
-0.000377701
-0.000285665
-0.000344204
-0.000323999
-0.000256442
-0.000504452
-0.000160093
-0.000537943
-0.000658061
-0.000449681
-1.52834e-05
-0.000453429
-0.000116902
-0.000469939
-0.000140346
-0.000450282
-0.000305322
-0.000443115
-0.000331166
-0.000349328
-0.000598239
-0.00025433
-0.000632941
-0.000912391
-0.000557927
1.44765e-05
-0.000575223
-9.96055e-05
-0.000607023
-0.000108547
-0.000603626
-0.000308719
-0.00061141
-0.000323382
-0.000517635
-0.000692014
-0.000411206
-0.00073937
-0.0013236
-0.00056175
4.79976e-05
-0.000588288
-7.30675e-05
-0.000649882
-4.69524e-05
-0.000685891
-0.00027271
-0.000779359
-0.000229914
-0.000748727
-0.000722646
-0.000744065
-0.000744031
-0.00206766
-0.00071692
0.000106955
-0.000771608
-1.83796e-05
-0.00086909
5.05295e-05
-0.000953868
-0.000187932
-0.00110722
-7.6557e-05
-0.00115116
-0.000678713
-0.00118442
-0.000710772
-0.00325208
-0.00063069
0.000131263
-0.000670249
2.11787e-05
-0.000761083
0.000141364
-0.00089871
-5.03055e-05
-0.00117775
0.000202482
-0.0014101
-0.000446358
-0.00137694
-0.000743933
-0.00462902
-0.000816558
0.000200199
-0.000911079
0.000115699
-0.00105201
0.000282296
-0.00125458
0.000152262
-0.00139965
0.000347553
-0.00152538
-0.00032063
-0.000768982
-0.00150033
-0.005398
-0.000339537
0.000103623
-0.000297006
7.31682e-05
-9.08371e-05
7.61267e-05
1.34227e-06
6.00829e-05
0.000466367
-0.000117472
0.000645547
-0.00049981
0.000980006
-0.00183479
-0.004418
0.00666069
0.00673386
0.00680998
0.00687007
0.00675259
0.00625278
0.004418
-1.67934e-06
1.67934e-06
-3.18024e-06
1.5009e-06
-4.08915e-06
9.08913e-07
-4.33589e-06
2.4674e-07
-3.89422e-06
-4.41669e-07
-2.88871e-06
-1.00551e-06
-1.47425e-06
-1.41446e-06
-1.47425e-06
-1.95447e-06
3.6338e-06
-3.67715e-06
3.22358e-06
-4.69231e-06
1.92407e-06
-4.9093e-06
4.63734e-07
-4.37698e-06
-9.73986e-07
-3.23685e-06
-2.14564e-06
-1.65004e-06
-3.00127e-06
-3.12429e-06
-2.96475e-06
6.59855e-06
-5.45637e-06
5.7152e-06
-6.82555e-06
3.29325e-06
-7.12183e-06
7.60013e-07
-6.2937e-06
-1.80211e-06
-4.61415e-06
-3.82519e-06
-2.34248e-06
-5.27295e-06
-5.46676e-06
-3.5419e-06
1.01404e-05
-6.44222e-06
8.61553e-06
-7.93021e-06
4.78124e-06
-8.0382e-06
8.68006e-07
-7.00187e-06
-2.83845e-06
-5.09996e-06
-5.7271e-06
-2.57629e-06
-7.79662e-06
-8.04305e-06
-6.79297e-06
1.69334e-05
-1.17186e-05
1.35411e-05
-1.37487e-05
6.81132e-06
-1.3712e-05
8.31359e-07
-1.16772e-05
-4.87323e-06
-8.35426e-06
-9.05008e-06
-4.1851e-06
-1.19658e-05
-1.22281e-05
-8.27567e-06
2.52091e-05
-1.40768e-05
1.93422e-05
-1.62375e-05
8.97211e-06
-1.57232e-05
3.17019e-07
-1.32445e-05
-7.35195e-06
-9.43965e-06
-1.28549e-05
-4.71087e-06
-1.66946e-05
-1.6939e-05
-1.88233e-05
4.40324e-05
-2.887e-05
2.93889e-05
-3.00436e-05
1.01457e-05
-2.76179e-05
-2.10873e-06
-2.22799e-05
-1.26899e-05
-1.53867e-05
-1.97481e-05
-7.57791e-06
-2.45033e-05
-2.45169e-05
-2.34177e-05
-3.41907e-05
-3.49381e-05
-3.15018e-05
-2.53064e-05
-1.74736e-05
-8.59473e-06
)
;

boundaryField
{
    movingWall
    {
        type            calculated;
        value           uniform 0;
    }
    fixedWalls
    {
        type            calculated;
        value           uniform 0;
    }
    frontAndBack
    {
        type            empty;
        value           nonuniform List<scalar> 0();
    }
}


// ************************************************************************* //
