/*--------------------------------*- C++ -*----------------------------------*\
  =========                 |
  \\      /  F ield         | OpenFOAM: The Open Source CFD Toolbox
   \\    /   O peration     | Website:  https://openfoam.org
    \\  /    A nd           | Version:  8
     \\/     M anipulation  |
\*---------------------------------------------------------------------------*/
FoamFile
{
    version     2.0;
    format      ascii;
    class       surfaceScalarField;
    location    "1.17";
    object      phi;
}
// * * * * * * * * * * * * * * * * * * * * * * * * * * * * * * * * * * * * * //

dimensions      [0 3 -1 0 0 0 0];

internalField   nonuniform List<scalar> 
760
(
1.24933e-06
-1.12167e-15
1.24933e-06
-1.0744e-15
1.24933e-06
-9.84112e-16
1.24933e-06
-8.31431e-16
1.24933e-06
-4.88462e-16
1.24933e-06
-6.13831e-17
1.24933e-06
4.40695e-16
1.24933e-06
9.12131e-16
1.24933e-06
1.28398e-15
1.24933e-06
1.51361e-15
1.24933e-06
1.57617e-15
1.24933e-06
1.46112e-15
1.24933e-06
1.15653e-15
1.24933e-06
7.13058e-16
1.24933e-06
1.71785e-16
1.24933e-06
-3.59288e-16
1.24933e-06
-8.16915e-16
1.24933e-06
-1.11099e-15
1.24933e-06
-1.19497e-15
-1.18546e-15
3.748e-06
-6.14933e-15
3.748e-06
-5.38773e-15
3.748e-06
-4.27954e-15
3.748e-06
-2.70506e-15
3.748e-06
-7.65791e-16
3.748e-06
1.40843e-15
3.748e-06
3.51925e-15
3.748e-06
5.3229e-15
3.748e-06
6.59182e-15
3.748e-06
7.19072e-15
3.748e-06
7.04947e-15
3.748e-06
6.1485e-15
3.748e-06
4.58642e-15
3.748e-06
2.48979e-15
3.748e-06
1.41436e-16
3.748e-06
-2.21977e-15
3.748e-06
-4.24202e-15
3.748e-06
-5.7017e-15
3.748e-06
-6.45323e-15
-6.54458e-15
6.24673e-06
-1.52101e-14
6.24673e-06
-1.28372e-14
6.24673e-06
-9.39789e-15
6.24673e-06
-5.03526e-15
6.24673e-06
-3.66002e-18
6.24673e-06
5.15557e-15
6.24673e-06
9.92148e-15
6.24673e-06
1.37348e-14
6.24673e-06
1.62091e-14
6.24673e-06
1.707e-14
6.24673e-06
1.62098e-14
6.24673e-06
1.37014e-14
6.24673e-06
9.74677e-15
6.24673e-06
4.78584e-15
6.24673e-06
-7.02548e-16
6.24673e-06
-6.05895e-15
6.24673e-06
-1.07406e-14
6.24673e-06
-1.41626e-14
6.24673e-06
-1.60527e-14
-1.63331e-14
8.74553e-06
-2.62717e-14
8.74553e-06
-2.16721e-14
8.74553e-06
-1.51391e-14
8.74553e-06
-7.07432e-15
8.74553e-06
1.77725e-15
8.74553e-06
1.06101e-14
8.74553e-06
1.84605e-14
8.74553e-06
2.45564e-14
8.74553e-06
2.82424e-14
8.74553e-06
2.91489e-14
8.74553e-06
2.71618e-14
8.74553e-06
2.24355e-14
8.74553e-06
1.5447e-14
8.74553e-06
6.85251e-15
8.74553e-06
-2.40421e-15
8.74553e-06
-1.14163e-14
8.74553e-06
-1.91748e-14
8.74553e-06
-2.49371e-14
8.74553e-06
-2.81011e-14
-2.85015e-14
1.12444e-05
-3.65264e-14
1.12444e-05
-2.96911e-14
1.12444e-05
-2.00211e-14
1.12444e-05
-8.42685e-15
1.12444e-05
4.11023e-15
1.12444e-05
1.63102e-14
1.12444e-05
2.70005e-14
1.12444e-05
3.50658e-14
1.12444e-05
3.97184e-14
1.12444e-05
4.0464e-14
1.12444e-05
3.72091e-14
1.12444e-05
3.026e-14
1.12444e-05
2.02634e-14
1.12444e-05
8.25278e-15
1.12444e-05
-4.60031e-15
1.12444e-05
-1.6929e-14
1.12444e-05
-2.75484e-14
1.12444e-05
-3.53404e-14
1.12444e-05
-3.95973e-14
-3.99735e-14
1.37435e-05
-4.33234e-14
1.37435e-05
-3.4755e-14
1.37435e-05
-2.28606e-14
1.37435e-05
-8.7199e-15
1.37435e-05
6.30063e-15
1.37435e-05
2.07878e-14
1.37435e-05
3.32724e-14
1.37435e-05
4.25506e-14
1.37435e-05
4.76607e-14
1.37435e-05
4.80969e-14
1.37435e-05
4.37927e-14
1.37435e-05
3.5145e-14
1.37435e-05
2.30157e-14
1.37435e-05
8.58339e-15
1.37435e-05
-6.66164e-15
1.37435e-05
-2.12323e-14
1.37435e-05
-3.36409e-14
1.37435e-05
-4.27191e-14
1.37435e-05
-4.75501e-14
-4.7743e-14
1.62427e-05
-4.47785e-14
1.62427e-05
-3.54633e-14
1.62427e-05
-2.27056e-14
1.62427e-05
-7.74966e-15
1.62427e-05
8.00355e-15
1.62427e-05
2.29966e-14
1.62427e-05
3.58001e-14
1.62427e-05
4.51178e-14
1.62427e-05
5.00312e-14
1.62427e-05
5.00242e-14
1.62427e-05
4.50883e-14
1.62427e-05
3.57036e-14
1.62427e-05
2.27799e-14
1.62427e-05
7.62559e-15
1.62427e-05
-8.27318e-15
1.62427e-05
-2.33036e-14
1.62427e-05
-3.60291e-14
1.62427e-05
-4.51861e-14
1.62427e-05
-4.99181e-14
-4.97635e-14
1.87421e-05
-4.02797e-14
1.87421e-05
-3.12575e-14
1.87421e-05
-1.92135e-14
1.87421e-05
-5.28135e-15
1.87421e-05
9.16333e-15
1.87421e-05
2.27564e-14
1.87421e-05
3.41512e-14
1.87421e-05
4.22386e-14
1.87421e-05
4.61793e-14
1.87421e-05
4.55786e-14
1.87421e-05
4.04821e-14
1.87421e-05
3.13903e-14
1.87421e-05
1.92139e-14
1.87421e-05
5.15186e-15
1.87421e-05
-9.3775e-15
1.87421e-05
-2.29688e-14
1.87421e-05
-3.42737e-14
1.87421e-05
-4.22298e-14
1.87421e-05
-4.60501e-14
-4.53737e-14
2.12417e-05
-3.04865e-14
2.12417e-05
-2.2646e-14
2.12417e-05
-1.26056e-14
2.12417e-05
-1.34035e-15
2.12417e-05
1.00727e-14
2.12417e-05
2.0521e-14
2.12417e-05
2.90064e-14
2.12417e-05
3.46628e-14
2.12417e-05
3.69192e-14
2.12417e-05
3.55265e-14
2.12417e-05
3.06245e-14
2.12417e-05
2.27042e-14
2.12417e-05
1.25566e-14
2.12417e-05
1.20198e-15
2.12417e-05
-1.02492e-14
2.12417e-05
-2.06671e-14
2.12417e-05
-2.90604e-14
2.12417e-05
-3.46037e-14
2.12417e-05
-3.67807e-14
-3.53563e-14
2.37415e-05
-1.71761e-14
2.37415e-05
-1.10237e-14
2.37415e-05
-3.80762e-15
2.37415e-05
3.7799e-15
2.37415e-05
1.10063e-14
2.37415e-05
1.71908e-14
2.37415e-05
2.17192e-14
2.37415e-05
2.41379e-14
2.37415e-05
2.41704e-14
2.37415e-05
2.18079e-14
2.37415e-05
1.72769e-14
2.37415e-05
1.10424e-14
2.37415e-05
3.73705e-15
2.37415e-05
-3.91167e-15
2.37415e-05
-1.11496e-14
2.37415e-05
-1.72922e-14
2.37415e-05
-2.17372e-14
2.37415e-05
-2.40652e-14
2.37415e-05
-2.4039e-14
-2.16665e-14
2.62415e-05
-2.81487e-15
2.62415e-05
1.54601e-15
2.62415e-05
5.74139e-15
2.62415e-05
9.36947e-15
2.62415e-05
1.20987e-14
2.62415e-05
1.36684e-14
2.62415e-05
1.39327e-14
2.62415e-05
1.28315e-14
2.62415e-05
1.04619e-14
2.62415e-05
7.03247e-15
2.62415e-05
2.89361e-15
2.62415e-05
-1.53865e-15
2.62415e-05
-5.80388e-15
2.62415e-05
-9.47509e-15
2.62415e-05
-1.22047e-14
2.62415e-05
-1.37395e-14
2.62415e-05
-1.3942e-14
2.62415e-05
-1.27753e-14
2.62415e-05
-1.03596e-14
-6.92246e-15
2.87417e-05
9.97419e-15
2.87417e-05
1.27731e-14
2.87417e-05
1.43123e-14
2.87417e-05
1.44454e-14
2.87417e-05
1.31783e-14
2.87417e-05
1.06483e-14
2.87417e-05
7.09049e-15
2.87417e-05
2.84549e-15
2.87417e-05
-1.70027e-15
2.87417e-05
-6.09372e-15
2.87417e-05
-9.91434e-15
2.87417e-05
-1.27608e-14
2.87417e-05
-1.4347e-14
2.87417e-05
-1.45063e-14
2.87417e-05
-1.32401e-14
2.87417e-05
-1.06933e-14
2.87417e-05
-7.1058e-15
2.87417e-05
-2.82432e-15
2.87417e-05
1.75604e-15
6.1623e-15
3.12421e-05
1.89648e-14
3.12421e-05
2.06494e-14
3.12421e-05
2.02872e-14
3.12421e-05
1.79462e-14
3.12421e-05
1.3856e-14
3.12421e-05
8.4219e-15
3.12421e-05
2.1777e-15
3.12421e-05
-4.2914e-15
3.12421e-05
-1.03387e-14
3.12421e-05
-1.53931e-14
3.12421e-05
-1.89359e-14
3.12421e-05
-2.06303e-14
3.12421e-05
-2.02874e-14
3.12421e-05
-1.79509e-14
3.12421e-05
-1.38625e-14
3.12421e-05
-8.43534e-15
3.12421e-05
-2.19669e-15
3.12421e-05
4.27371e-15
3.12421e-05
1.03367e-14
1.54086e-14
3.37427e-05
2.2897e-14
3.37427e-05
2.39211e-14
3.37427e-05
2.25937e-14
3.37427e-05
1.90554e-14
3.37427e-05
1.36561e-14
3.37427e-05
6.92366e-15
3.37427e-05
-4.98911e-16
3.37427e-05
-7.8697e-15
3.37427e-05
-1.44832e-14
3.37427e-05
-1.96596e-14
3.37427e-05
-2.29152e-14
3.37427e-05
-2.39077e-14
3.37427e-05
-2.25615e-14
3.37427e-05
-1.90007e-14
3.37427e-05
-1.35989e-14
3.37427e-05
-6.89163e-15
3.37427e-05
4.86693e-16
3.37427e-05
7.82277e-15
3.37427e-05
1.44201e-14
1.96104e-14
3.62435e-05
2.17511e-14
3.62435e-05
2.25035e-14
3.62435e-05
2.10245e-14
3.62435e-05
1.75038e-14
3.62435e-05
1.22618e-14
3.62435e-05
5.80459e-15
3.62435e-05
-1.23366e-15
3.62435e-05
-8.17371e-15
3.62435e-05
-1.42932e-14
3.62435e-05
-1.90089e-14
3.62435e-05
-2.18258e-14
3.62435e-05
-2.25057e-14
3.62435e-05
-2.09689e-14
3.62435e-05
-1.73964e-14
3.62435e-05
-1.21427e-14
3.62435e-05
-5.72423e-15
3.62435e-05
1.24151e-15
3.62435e-05
8.10839e-15
3.62435e-05
1.41783e-14
1.88956e-14
3.87445e-05
1.68546e-14
3.87445e-05
1.74817e-14
3.87445e-05
1.64114e-14
3.87445e-05
1.37269e-14
3.87445e-05
9.6934e-15
3.87445e-05
4.68917e-15
3.87445e-05
-8.10274e-16
3.87445e-05
-6.2318e-15
3.87445e-05
-1.10476e-14
3.87445e-05
-1.47353e-14
3.87445e-05
-1.69656e-14
3.87445e-05
-1.75034e-14
3.87445e-05
-1.63409e-14
3.87445e-05
-1.35882e-14
3.87445e-05
-9.53708e-15
3.87445e-05
-4.57502e-15
3.87445e-05
8.34962e-16
3.87445e-05
6.16113e-15
3.87445e-05
1.0905e-14
1.45769e-14
4.12455e-05
1.03518e-14
4.12455e-05
1.08909e-14
4.12455e-05
1.03637e-14
4.12455e-05
8.82488e-15
4.12455e-05
6.40789e-15
4.12455e-05
3.33602e-15
4.12455e-05
-8.48096e-17
4.12455e-05
-3.52087e-15
4.12455e-05
-6.58505e-15
4.12455e-05
-8.98839e-15
4.12455e-05
-1.04652e-14
4.12455e-05
-1.09174e-14
4.12455e-05
-1.02941e-14
4.12455e-05
-8.68978e-15
4.12455e-05
-6.25544e-15
4.12455e-05
-3.2245e-15
4.12455e-05
1.15374e-16
4.12455e-05
3.45363e-15
4.12455e-05
6.44956e-15
8.83174e-15
4.37467e-05
4.57778e-15
4.37467e-05
4.91776e-15
4.37467e-05
4.80292e-15
4.37467e-05
4.20199e-15
4.37467e-05
3.18612e-15
4.37467e-05
1.8391e-15
4.37467e-05
2.86264e-16
4.37467e-05
-1.29516e-15
4.37467e-05
-2.75014e-15
4.37467e-05
-3.89872e-15
4.37467e-05
-4.6555e-15
4.37467e-05
-4.93684e-15
4.37467e-05
-4.74993e-15
4.37467e-05
-4.1069e-15
4.37467e-05
-3.08227e-15
4.37467e-05
-1.76375e-15
4.37467e-05
-2.66686e-16
4.37467e-05
1.2493e-15
4.37467e-05
2.65601e-15
3.78865e-15
4.6248e-05
1.04945e-15
4.6248e-05
1.17195e-15
4.6248e-05
1.18413e-15
4.6248e-05
1.08018e-15
4.6248e-05
8.66266e-16
4.6248e-05
5.58884e-16
4.6248e-05
1.88241e-16
4.6248e-05
-2.09756e-16
4.6248e-05
-5.75617e-16
4.6248e-05
-8.78132e-16
4.6248e-05
-1.07999e-15
4.6248e-05
-1.18148e-15
4.6248e-05
-1.16555e-15
4.6248e-05
-1.04266e-15
4.6248e-05
-8.23156e-16
4.6248e-05
-5.26964e-16
4.6248e-05
-1.79561e-16
4.6248e-05
1.89154e-16
4.6248e-05
5.37785e-16
8.36838e-16
4.87493e-05
4.87493e-05
4.87493e-05
4.87493e-05
4.87493e-05
4.87493e-05
4.87493e-05
4.87493e-05
4.87493e-05
4.87493e-05
4.87493e-05
4.87493e-05
4.87493e-05
4.87493e-05
4.87493e-05
4.87493e-05
4.87493e-05
4.87493e-05
4.87493e-05
)
;

boundaryField
{
    movingWall
    {
        type            calculated;
        value           uniform 0;
    }
    fixedWalls
    {
        type            calculated;
        value           uniform 0;
    }
    left
    {
        type            cyclic;
        value           nonuniform List<scalar> 
20
(
-3.87445e-05
-3.62435e-05
-3.37427e-05
-3.12421e-05
-2.87417e-05
-2.62415e-05
-2.37415e-05
-2.12417e-05
-1.87421e-05
-1.62427e-05
-1.37435e-05
-1.12444e-05
-8.74553e-06
-6.24673e-06
-3.748e-06
-1.24933e-06
-4.12455e-05
-4.37467e-05
-4.6248e-05
-4.87493e-05
)
;
    }
    right
    {
        type            cyclic;
        value           nonuniform List<scalar> 
20
(
3.87445e-05
3.62435e-05
3.37427e-05
3.12421e-05
2.87417e-05
2.62415e-05
2.37415e-05
2.12417e-05
1.87421e-05
1.62427e-05
1.37435e-05
1.12444e-05
8.74553e-06
6.24673e-06
3.748e-06
1.24933e-06
4.12455e-05
4.37467e-05
4.6248e-05
4.87493e-05
)
;
    }
    frontAndBack
    {
        type            empty;
        value           nonuniform List<scalar> 0();
    }
}


// ************************************************************************* //
