/*--------------------------------*- C++ -*----------------------------------*\
  =========                 |
  \\      /  F ield         | OpenFOAM: The Open Source CFD Toolbox
   \\    /   O peration     | Website:  https://openfoam.org
    \\  /    A nd           | Version:  8
     \\/     M anipulation  |
\*---------------------------------------------------------------------------*/
FoamFile
{
    version     2.0;
    format      ascii;
    class       volScalarField;
    location    "0.175";
    object      p;
}
// * * * * * * * * * * * * * * * * * * * * * * * * * * * * * * * * * * * * * //

dimensions      [0 2 -2 0 0 0 0];

internalField   nonuniform List<scalar> 
400
(
5.09907e-07
-0.00582537
-0.0129591
-0.0184074
-0.0204222
-0.0182281
-0.0117654
-0.00147942
0.0118356
0.0271402
0.043228
0.0587995
0.0725495
0.0832758
0.0900192
0.0922354
0.0899988
0.0842233
0.0768666
0.0710576
0.00577048
-0.000225318
-0.00580775
-0.00954348
-0.0105979
-0.00843113
-0.00296928
0.00547232
0.0162974
0.0287017
0.041735
0.0543667
0.0655637
0.0743852
0.0800953
0.0822926
0.0810577
0.07704
0.0712646
0.065313
0.0133147
0.00501915
-0.00100554
-0.00443039
-0.00527824
-0.00326831
0.00159788
0.00902189
0.0184943
0.0293387
0.0407519
0.0518533
0.0617501
0.0696168
0.0747877
0.0768606
0.0758275
0.0720762
0.0658011
0.0575375
0.0201103
0.00867528
0.00121054
-0.00268036
-0.00373147
-0.00189321
0.0027239
0.00977686
0.0187717
0.0290848
0.0399799
0.0506402
0.0602177
0.0679001
0.0729879
0.0749881
0.0737558
0.0694506
0.0616035
0.0501114
0.0244673
0.0097485
0.000571295
-0.00400149
-0.00531399
-0.00351718
0.00116603
0.00832632
0.0174537
0.0279401
0.039075
0.0500587
0.0600368
0.0681526
0.0736145
0.0757878
0.0743623
0.0692876
0.05953
0.0445511
0.0251417
0.00712445
-0.00382127
-0.00907251
-0.0105245
-0.00850998
-0.00336513
0.00442222
0.0143067
0.0256723
0.0378066
0.0498953
0.0610393
0.070294
0.0767259
0.0795098
0.0781348
0.0723337
0.0605461
0.0419067
0.0210602
-0.00028581
-0.012952
-0.0187232
-0.0200407
-0.0174222
-0.0113246
-0.00232436
0.00898679
0.0219729
0.0359061
0.0499401
0.0631071
0.0743396
0.0825162
0.0865648
0.0857184
0.0794485
0.0656278
0.0430884
0.0111167
-0.0136365
-0.0278886
-0.0338647
-0.0346112
-0.0308626
-0.0232157
-0.0123461
0.00110523
0.0164848
0.0330533
0.0499336
0.0660823
0.0802877
0.0911979
0.0974275
0.0978692
0.0916377
0.0759028
0.0491307
-0.00598295
-0.0342773
-0.0498778
-0.0555541
-0.0550933
-0.0495154
-0.039592
-0.0261098
-0.00975212
0.00882865
0.0289065
0.049598
0.0698006
0.088156
0.103048
0.1127
0.11555
0.110193
0.0928385
0.0614211
-0.0318605
-0.0638781
-0.0804178
-0.0850069
-0.0824182
-0.0740745
-0.0609749
-0.0440286
-0.0239419
-0.00132657
0.0231557
0.04867
0.0741027
0.097977
0.118399
0.133127
0.139988
0.136818
0.118442
0.0819373
-0.0686577
-0.104596
-0.121338
-0.123584
-0.117509
-0.105118
-0.0877082
-0.0663135
-0.0416234
-0.0141413
0.0156196
0.0469659
0.0788661
0.109801
0.137628
0.159587
0.172726
0.173776
0.155517
0.113567
-0.119381
-0.159342
-0.174903
-0.172746
-0.161137
-0.142918
-0.119746
-0.0927623
-0.0625611
-0.0294306
0.00638992
0.0444887
0.0840677
0.123712
0.161142
0.193088
0.215666
0.224072
0.208043
0.160621
-0.188598
-0.232221
-0.243922
-0.233934
-0.213682
-0.187142
-0.156359
-0.122486
-0.0858807
-0.046454
-0.0039965
0.0415551
0.0898554
0.139839
0.189324
0.23469
0.271071
0.291657
0.28173
0.229757
-0.28394
-0.32928
-0.331814
-0.308266
-0.274697
-0.236429
-0.195752
-0.153596
-0.109824
-0.0637277
-0.0144205
0.0388791
0.0965667
0.158285
0.222378
0.285286
0.341391
0.381564
0.384897
0.331808
-0.419284
-0.459648
-0.442335
-0.395782
-0.342122
-0.287733
-0.234608
-0.182919
-0.131596
-0.0789698
-0.0231986
0.037489
0.104563
0.178843
0.259862
0.344965
0.428607
0.499686
0.529654
0.48536
-0.620503
-0.636726
-0.578667
-0.494189
-0.41124
-0.335658
-0.267778
-0.205972
-0.147527
-0.0893715
-0.0284137
0.0383592
0.113814
0.200474
0.299972
0.412017
0.533016
0.651757
0.732747
0.722361
-0.935904
-0.878505
-0.741739
-0.597952
-0.4744
-0.372666
-0.288873
-0.217763
-0.153949
-0.0924567
-0.0287086
0.0417037
0.123268
0.220719
0.338921
0.482144
0.651981
0.841321
1.01524
1.09747
-1.47642
-1.20663
-0.92051
-0.6914
-0.51732
-0.387559
-0.290073
-0.213344
-0.148125
-0.0872126
-0.024572
0.0454635
0.128941
0.233071
0.367098
0.542667
0.771276
1.0593
1.40326
1.73011
-2.53965
-1.63055
-1.04445
-0.710979
-0.495774
-0.352116
-0.25455
-0.183596
-0.126176
-0.073596
-0.0192655
0.0427927
0.119218
0.218786
0.354811
0.547976
0.82638
1.23656
1.91165
2.92416
-4.36667
-2.04465
-0.973562
-0.563208
-0.357879
-0.240179
-0.170148
-0.123804
-0.0874941
-0.0535144
-0.0166512
0.0276689
0.084618
0.161739
0.272418
0.4421
0.718213
1.2257
2.41102
4.84851
)
;

boundaryField
{
    movingWall
    {
        type            zeroGradient;
    }
    fixedWalls
    {
        type            zeroGradient;
    }
    frontAndBack
    {
        type            empty;
    }
}


// ************************************************************************* //
