/*--------------------------------*- C++ -*----------------------------------*\
  =========                 |
  \\      /  F ield         | OpenFOAM: The Open Source CFD Toolbox
   \\    /   O peration     | Website:  https://openfoam.org
    \\  /    A nd           | Version:  8
     \\/     M anipulation  |
\*---------------------------------------------------------------------------*/
FoamFile
{
    version     2.0;
    format      ascii;
    class       surfaceScalarField;
    location    "0.175";
    object      phi;
}
// * * * * * * * * * * * * * * * * * * * * * * * * * * * * * * * * * * * * * //

dimensions      [0 3 -1 0 0 0 0];

internalField   nonuniform List<scalar> 
760
(
1.42323e-08
-1.4237e-08
-2.21935e-08
3.64256e-08
-1.1419e-07
9.19955e-08
-2.45319e-07
1.31129e-07
-3.95812e-07
1.50494e-07
-5.46968e-07
1.51156e-07
-6.82691e-07
1.35724e-07
-7.90084e-07
1.07392e-07
-8.59578e-07
6.94938e-08
-8.84996e-07
2.5418e-08
-8.63695e-07
-2.13006e-08
-7.9682e-07
-6.68755e-08
-6.89602e-07
-1.07218e-07
-5.51596e-07
-1.38006e-07
-3.96682e-07
-1.54914e-07
-2.42598e-07
-1.54084e-07
-1.09673e-07
-1.32925e-07
-1.84139e-08
-9.12587e-08
1.56746e-08
-3.40883e-08
1.56744e-08
-3.41857e-08
1.99489e-08
-1.80235e-07
1.82475e-07
-4.33657e-07
3.45418e-07
-7.63851e-07
4.61322e-07
-1.13135e-06
5.17991e-07
-1.4961e-06
5.15909e-07
-1.82195e-06
4.61569e-07
-2.07895e-06
3.64397e-07
-2.24457e-06
2.35113e-07
-2.3043e-06
8.51481e-08
-2.25221e-06
-7.33863e-08
-2.0915e-06
-2.2759e-07
-1.83492e-06
-3.63798e-07
-1.50496e-06
-4.67968e-07
-1.13328e-06
-5.26592e-07
-7.58995e-07
-5.28369e-07
-4.25112e-07
-4.66808e-07
-1.72579e-07
-3.43793e-07
-3.07836e-08
-1.75884e-07
-1.51093e-08
-9.21519e-08
1.121e-07
-3.56715e-07
4.47037e-07
-7.63964e-07
7.52667e-07
-1.26751e-06
9.64865e-07
-1.8133e-06
1.06378e-06
-2.34724e-06
1.04985e-06
-2.82027e-06
9.34597e-07
-3.1915e-06
7.35628e-07
-3.42999e-06
4.7361e-07
-3.51585e-06
1.71004e-07
-3.44099e-06
-1.48246e-07
-3.20987e-06
-4.58706e-07
-2.84002e-06
-7.33649e-07
-2.36209e-06
-9.45897e-07
-1.81902e-06
-1.06967e-06
-1.2636e-06
-1.08379e-06
-7.53994e-07
-9.7641e-07
-3.46727e-07
-7.5106e-07
-8.72737e-08
-4.35338e-07
-1.02383e-07
-1.45094e-07
2.57194e-07
-5.25057e-07
8.27e-07
-1.08082e-06
1.30843e-06
-1.74621e-06
1.63026e-06
-2.45251e-06
1.77009e-06
-3.13406e-06
1.7314e-06
-3.73254e-06
1.53308e-06
-4.19983e-06
1.20291e-06
-4.49964e-06
7.73421e-07
-4.6086e-06
2.79959e-07
-4.51703e-06
-2.39818e-07
-4.22975e-06
-7.45989e-07
-3.76674e-06
-1.19666e-06
-3.16346e-06
-1.54918e-06
-2.4702e-06
-1.76294e-06
-1.74989e-06
-1.8041e-06
-1.07379e-06
-1.65251e-06
-5.14789e-07
-1.31006e-06
-1.39217e-07
-8.10909e-07
-2.416e-07
-1.93467e-07
4.50661e-07
-6.8452e-07
1.31805e-06
-1.38467e-06
2.00858e-06
-2.20575e-06
2.45133e-06
-3.06341e-06
2.62775e-06
-3.88119e-06
2.54917e-06
-4.59345e-06
2.24534e-06
-5.14718e-06
1.75664e-06
-5.50283e-06
1.12907e-06
-5.63485e-06
4.1198e-07
-5.53219e-06
-3.4248e-07
-5.19906e-06
-1.07911e-06
-4.65596e-06
-1.73976e-06
-3.94052e-06
-2.26462e-06
-3.1078e-06
-2.59565e-06
-2.22915e-06
-2.68275e-06
-1.3888e-06
-2.49286e-06
-6.78082e-07
-2.02077e-06
-1.87647e-07
-1.30134e-06
-4.29247e-07
-2.3979e-07
6.90451e-07
-8.39849e-07
1.91811e-06
-1.68231e-06
2.85105e-06
-2.65554e-06
3.42456e-06
-3.65876e-06
3.63097e-06
-4.60516e-06
3.49557e-06
-5.4233e-06
3.06347e-06
-6.05717e-06
2.39052e-06
-6.46575e-06
1.53765e-06
-6.62239e-06
5.68624e-07
-6.51477e-06
-4.50109e-07
-6.1455e-06
-1.44838e-06
-5.53361e-06
-2.35165e-06
-4.71647e-06
-3.08176e-06
-3.75153e-06
-3.56058e-06
-2.71709e-06
-3.71719e-06
-1.71067e-06
-3.49929e-06
-8.44227e-07
-2.88721e-06
-2.36052e-07
-1.90952e-06
-6.653e-07
-2.86606e-07
9.77057e-07
-9.96628e-07
2.62814e-06
-1.98119e-06
3.83561e-06
-3.10357e-06
4.54694e-06
-4.24608e-06
4.77348e-06
-5.31247e-06
4.56197e-06
-6.22736e-06
3.97837e-06
-6.93412e-06
3.09727e-06
-7.39225e-06
1.99579e-06
-7.57533e-06
7.51709e-07
-7.46996e-06
-5.55484e-07
-7.07613e-06
-1.84221e-06
-6.40923e-06
-3.01855e-06
-5.50335e-06
-3.98765e-06
-4.4153e-06
-4.64863e-06
-3.2281e-06
-4.90439e-06
-2.05215e-06
-4.67524e-06
-1.02213e-06
-3.91723e-06
-2.88161e-07
-2.64349e-06
-9.53462e-07
-3.3622e-07
1.31328e-06
-1.16001e-06
3.45192e-06
-2.28731e-06
4.96292e-06
-3.55391e-06
5.81353e-06
-4.82514e-06
6.04471e-06
-5.99721e-06
5.73404e-06
-6.99385e-06
4.97501e-06
-7.76109e-06
3.86451e-06
-8.26191e-06
2.4966e-06
-8.47199e-06
9.61791e-07
-8.3774e-06
-6.50074e-07
-7.9745e-06
-2.24512e-06
-7.27243e-06
-3.72061e-06
-6.29814e-06
-4.96194e-06
-5.10323e-06
-5.84354e-06
-3.77148e-06
-6.23614e-06
-2.42422e-06
-6.0225e-06
-1.22041e-06
-5.12104e-06
-3.47607e-07
-3.51629e-06
-1.30107e-06
-3.90889e-07
1.70417e-06
-1.33466e-06
4.3957e-06
-2.60454e-06
6.2328e-06
-4.00526e-06
7.21425e-06
-5.38588e-06
7.42532e-06
-6.63857e-06
6.98673e-06
-7.69104e-06
6.02748e-06
-8.4969e-06
4.67037e-06
-9.02674e-06
3.02644e-06
-9.26121e-06
1.19625e-06
-9.18696e-06
-7.2432e-07
-8.79589e-06
-2.63619e-06
-8.08793e-06
-4.42857e-06
-7.07779e-06
-5.97208e-06
-5.80533e-06
-7.11599e-06
-4.34832e-06
-7.69316e-06
-2.83434e-06
-7.53648e-06
-1.44685e-06
-6.50853e-06
-4.18026e-07
-4.54511e-06
-1.7191e-06
-4.53435e-07
2.1576e-06
-1.52562e-06
5.46789e-06
-2.93476e-06
7.64194e-06
-4.44992e-06
8.72941e-06
-5.90604e-06
8.88145e-06
-7.19744e-06
8.27813e-06
-8.2632e-06
7.09324e-06
-9.07153e-06
5.47871e-06
-9.60628e-06
3.56119e-06
-9.85697e-06
1.44694e-06
-9.81279e-06
-7.68504e-07
-9.46076e-06
-2.98822e-06
-8.78852e-06
-5.1008e-06
-7.79248e-06
-6.96813e-06
-6.49177e-06
-8.4167e-06
-4.94763e-06
-9.2373e-06
-3.28488e-06
-9.19923e-06
-1.70855e-06
-8.08486e-06
-5.03549e-07
-5.75012e-06
-2.22265e-06
-5.28371e-07
2.68597e-06
-1.73977e-06
6.67929e-06
-3.27818e-06
9.18034e-06
-4.87193e-06
1.03232e-05
-6.3474e-06
1.03569e-05
-7.61128e-06
9.54201e-06
-8.62485e-06
8.10682e-06
-9.3802e-06
6.23406e-06
-9.88151e-06
4.06249e-06
-1.0132e-05
1.69746e-06
-1.01262e-05
-7.74301e-07
-9.84671e-06
-3.26774e-06
-9.26629e-06
-5.68123e-06
-8.35655e-06
-7.87787e-06
-7.10483e-06
-9.66842e-06
-5.54077e-06
-1.08014e-05
-3.77073e-06
-1.09693e-05
-2.01217e-06
-9.84342e-06
-6.09686e-07
-7.1526e-06
-2.83233e-06
-6.23752e-07
3.30973e-06
-1.98766e-06
8.04319e-06
-3.63243e-06
1.08251e-05
-5.24271e-06
1.19334e-05
-6.6486e-06
1.17628e-05
-7.78572e-06
1.06791e-05
-8.65244e-06
8.97354e-06
-9.27585e-06
6.85747e-06
-9.68813e-06
4.47478e-06
-9.91141e-06
1.92073e-06
-9.94875e-06
-7.36962e-07
-9.77996e-06
-3.43652e-06
-9.36207e-06
-6.09912e-06
-8.63657e-06
-8.60336e-06
-7.5471e-06
-1.07579e-05
-6.07207e-06
-1.22764e-05
-4.27456e-06
-1.27668e-05
-2.36378e-06
-1.17542e-05
-7.44812e-07
-8.77157e-06
-3.57715e-06
-7.54203e-07
4.06393e-06
-2.28476e-06
9.57375e-06
-3.98778e-06
1.25281e-05
-5.51027e-06
1.34559e-05
-6.71117e-06
1.29637e-05
-7.58048e-06
1.15484e-05
-8.17227e-06
9.56532e-06
-8.56005e-06
7.24525e-06
-8.81027e-06
4.72499e-06
-8.9676e-06
2.07806e-06
-9.04683e-06
-6.5774e-07
-9.02801e-06
-3.45534e-06
-8.85458e-06
-6.27255e-06
-8.43646e-06
-9.02148e-06
-7.66417e-06
-1.15302e-05
-6.44288e-06
-1.34977e-05
-4.75679e-06
-1.44529e-05
-2.767e-06
-1.3744e-05
-9.22505e-07
-1.06161e-05
-4.49965e-06
-9.45358e-07
5.00929e-06
-2.64898e-06
1.12774e-05
-4.31193e-06
1.41911e-05
-5.57472e-06
1.47187e-05
-6.3726e-06
1.37616e-05
-6.78565e-06
1.19615e-05
-6.94324e-06
9.72292e-06
-6.97275e-06
7.27477e-06
-6.97596e-06
4.7282e-06
-7.01972e-06
2.12181e-06
-7.13172e-06
-5.45738e-07
-7.29665e-06
-3.29041e-06
-7.45119e-06
-6.11801e-06
-7.48001e-06
-8.99266e-06
-7.21959e-06
-1.17906e-05
-6.48393e-06
-1.42333e-05
-5.13416e-06
-1.58026e-05
-3.21533e-06
-1.56628e-05
-1.16449e-06
-1.26669e-05
-5.66414e-06
-1.23747e-06
6.24676e-06
-3.0838e-06
1.31237e-05
-4.50869e-06
1.5616e-05
-5.236e-06
1.5446e-05
-5.35728e-06
1.38829e-05
-5.0844e-06
1.16886e-05
-4.6339e-06
9.27242e-06
-4.1826e-06
6.82346e-06
-3.8579e-06
4.4035e-06
-3.74063e-06
2.00454e-06
-3.86864e-06
-4.17722e-07
-4.23592e-06
-2.92313e-06
-4.785e-06
-5.56893e-06
-5.39352e-06
-8.38414e-06
-5.86042e-06
-1.13237e-05
-5.90795e-06
-1.41858e-05
-5.23368e-06
-1.64769e-05
-3.66669e-06
-1.72298e-05
-1.5002e-06
-1.48334e-05
-7.16434e-06
-1.67394e-06
7.9207e-06
-3.51383e-06
1.49636e-05
-4.31621e-06
1.64184e-05
-4.0903e-06
1.52201e-05
-3.19503e-06
1.29876e-05
-2.00125e-06
1.04948e-05
-7.98119e-07
8.06929e-06
2.15994e-07
5.80935e-06
9.14654e-07
3.70484e-06
1.22194e-06
1.69725e-06
1.09847e-06
-2.94251e-07
5.3769e-07
-2.36235e-06
-4.25942e-07
-4.6053e-06
-1.69511e-06
-7.11496e-06
-3.07442e-06
-9.94441e-06
-4.23227e-06
-1.3028e-05
-4.69656e-06
-1.60126e-05
-3.96763e-06
-1.79587e-05
-1.94505e-06
-1.6856e-05
-9.10939e-06
-2.23079e-06
1.01515e-05
-3.59065e-06
1.63234e-05
-3.07851e-06
1.59062e-05
-1.34507e-06
1.34867e-05
8.95333e-07
1.07472e-05
3.15276e-06
8.2374e-06
5.13546e-06
6.0866e-06
6.68567e-06
4.25914e-06
7.72257e-06
2.66794e-06
8.20319e-06
1.21663e-06
8.10057e-06
-1.91638e-07
7.39592e-06
-1.65769e-06
6.08406e-06
-3.29345e-06
4.19682e-06
-5.22771e-06
1.85228e-06
-7.59987e-06
-6.63072e-07
-1.05126e-05
-2.79303e-06
-1.38827e-05
-3.66252e-06
-1.70892e-05
-2.41167e-06
-1.81068e-05
-1.15211e-05
-2.57386e-06
1.27254e-05
-2.18367e-06
1.59333e-05
7.17584e-07
1.3005e-05
4.46872e-06
9.73555e-06
8.13202e-06
7.08389e-06
1.12999e-05
5.06955e-06
1.3827e-05
3.55948e-06
1.56857e-05
2.40046e-06
1.6889e-05
1.46459e-06
1.74521e-05
6.53519e-07
1.73737e-05
-1.13155e-07
1.6628e-05
-9.11987e-07
1.51649e-05
-1.8304e-06
1.29216e-05
-2.9844e-06
9.86023e-06
-4.53851e-06
6.06087e-06
-6.71325e-06
1.91165e-06
-9.73344e-06
-1.55997e-06
-1.36176e-05
-2.45844e-06
-1.72084e-05
-1.39795e-05
-7.8501e-07
1.35104e-05
4.08073e-06
1.10675e-05
1.02973e-05
6.78838e-06
1.57932e-05
4.2397e-06
2.01573e-05
2.71979e-06
2.3457e-05
1.76982e-06
2.58595e-05
1.15702e-06
2.752e-05
7.39959e-07
2.85523e-05
4.32234e-07
2.90246e-05
1.81201e-07
2.89604e-05
-4.8963e-08
2.83371e-05
-2.88647e-07
2.70804e-05
-5.73662e-07
2.50538e-05
-9.5786e-07
2.20507e-05
-1.53542e-06
1.78148e-05
-2.47731e-06
1.2172e-05
-4.09059e-06
5.47752e-06
-6.92317e-06
-1.29221e-07
-1.16016e-05
-1.41087e-05
1.35104e-05
2.45779e-05
3.13663e-05
3.5606e-05
3.83257e-05
4.00956e-05
4.12526e-05
4.19925e-05
4.24248e-05
4.2606e-05
4.2557e-05
4.22684e-05
4.16947e-05
4.07368e-05
3.92014e-05
3.67241e-05
3.26335e-05
2.57104e-05
1.41087e-05
)
;

boundaryField
{
    movingWall
    {
        type            calculated;
        value           uniform 0;
    }
    fixedWalls
    {
        type            calculated;
        value           uniform 0;
    }
    frontAndBack
    {
        type            empty;
        value           nonuniform List<scalar> 0();
    }
}


// ************************************************************************* //
