/*--------------------------------*- C++ -*----------------------------------*\
  =========                 |
  \\      /  F ield         | OpenFOAM: The Open Source CFD Toolbox
   \\    /   O peration     | Website:  https://openfoam.org
    \\  /    A nd           | Version:  8
     \\/     M anipulation  |
\*---------------------------------------------------------------------------*/
FoamFile
{
    version     2.0;
    format      ascii;
    class       volVectorField;
    location    "1.93";
    object      U;
}
// * * * * * * * * * * * * * * * * * * * * * * * * * * * * * * * * * * * * * //

dimensions      [0 1 -1 0 0 0 0];

internalField   nonuniform List<vector> 
400
(
(0.0249943 -1.75303e-16 0)
(0.0249943 -6.02045e-17 0)
(0.0249943 -2.28291e-17 0)
(0.0249943 -1.0785e-17 0)
(0.0249943 -5.08968e-18 0)
(0.0249943 -3.83974e-18 0)
(0.0249943 -1.93054e-18 0)
(0.0249943 -4.6482e-18 0)
(0.0249943 -4.05516e-18 0)
(0.0249943 -2.88302e-18 0)
(0.0249943 -5.3459e-18 0)
(0.0249943 -4.42235e-18 0)
(0.0249943 -7.73922e-18 0)
(0.0249943 -7.33984e-18 0)
(0.0249943 -1.22027e-17 0)
(0.0249943 -1.17701e-17 0)
(0.0249943 -7.23625e-18 0)
(0.0249943 -1.18094e-17 0)
(0.0249943 -2.74979e-17 0)
(0.0249943 -6.24369e-17 0)
(0.0749831 -3.10323e-16 0)
(0.0749831 -1.33804e-16 0)
(0.0749831 -7.16236e-17 0)
(0.0749831 -4.11997e-17 0)
(0.0749831 -3.51495e-17 0)
(0.0749831 -2.88394e-17 0)
(0.0749831 -9.04611e-18 0)
(0.0749831 -3.91369e-18 0)
(0.0749831 -8.13379e-18 0)
(0.0749831 -6.94297e-18 0)
(0.0749831 -1.27099e-17 0)
(0.0749831 -1.22962e-17 0)
(0.0749831 -1.72408e-17 0)
(0.0749831 -2.35559e-17 0)
(0.0749831 -3.88321e-17 0)
(0.0749831 -3.67942e-17 0)
(0.0749831 -3.08625e-17 0)
(0.0749831 -4.82775e-17 0)
(0.0749831 -7.83521e-17 0)
(0.0749831 -1.4484e-16 0)
(0.124972 -1.37783e-16 0)
(0.124972 -9.46522e-17 0)
(0.124972 -6.50412e-17 0)
(0.124972 -5.71896e-17 0)
(0.124972 -5.1591e-17 0)
(0.124972 -4.00996e-17 0)
(0.124972 -2.28179e-17 0)
(0.124972 -7.59127e-18 0)
(0.124972 -1.25592e-17 0)
(0.124972 -2.11555e-17 0)
(0.124972 -1.36144e-17 0)
(0.124972 -1.61e-17 0)
(0.124972 -3.516e-17 0)
(0.124972 -4.43246e-17 0)
(0.124972 -4.75145e-17 0)
(0.124972 -4.93463e-17 0)
(0.124972 -4.70333e-17 0)
(0.124972 -5.92377e-17 0)
(0.124972 -7.90695e-17 0)
(0.124972 -1.03428e-16 0)
(0.174962 -7.29394e-17 0)
(0.174962 -6.27345e-17 0)
(0.174962 -6.09908e-17 0)
(0.174962 -5.44306e-17 0)
(0.174962 -5.42723e-17 0)
(0.174962 -4.04001e-17 0)
(0.174962 -3.02172e-17 0)
(0.174962 -2.35852e-17 0)
(0.174962 -2.23716e-17 0)
(0.174962 -2.90587e-17 0)
(0.174962 -3.55039e-17 0)
(0.174962 -5.05721e-17 0)
(0.174962 -7.01124e-17 0)
(0.174962 -6.99315e-17 0)
(0.174962 -5.82477e-17 0)
(0.174962 -5.51276e-17 0)
(0.174962 -4.4999e-17 0)
(0.174962 -2.87329e-17 0)
(0.174962 -3.96105e-17 0)
(0.174962 -5.31853e-17 0)
(0.224953 -2.40829e-17 0)
(0.224953 -5.83267e-17 0)
(0.224953 -5.65455e-17 0)
(0.224953 -5.56095e-17 0)
(0.224953 -5.62049e-17 0)
(0.224953 -4.10965e-17 0)
(0.224953 -3.44359e-17 0)
(0.224953 -3.08248e-17 0)
(0.224953 -2.30595e-17 0)
(0.224953 -4.20568e-17 0)
(0.224953 -7.17363e-17 0)
(0.224953 -1.11988e-16 0)
(0.224953 -1.10554e-16 0)
(0.224953 -1.00068e-16 0)
(0.224953 -7.21651e-17 0)
(0.224953 -4.80359e-17 0)
(0.224953 -2.43963e-17 0)
(0.224953 -7.67296e-19 0)
(0.224953 1.40229e-17 0)
(0.224953 4.49527e-18 0)
(0.274945 -1.67069e-17 0)
(0.274945 -2.77137e-17 0)
(0.274945 -4.08827e-17 0)
(0.274945 -6.60227e-17 0)
(0.274945 -5.27435e-17 0)
(0.274945 -4.10619e-17 0)
(0.274945 -4.4881e-17 0)
(0.274945 -3.87762e-17 0)
(0.274945 -3.38198e-17 0)
(0.274945 -6.92912e-17 0)
(0.274945 -1.05576e-16 0)
(0.274945 -1.33468e-16 0)
(0.274945 -1.54134e-16 0)
(0.274945 -1.17407e-16 0)
(0.274945 -7.21491e-17 0)
(0.274945 -3.0209e-17 0)
(0.274945 -1.13263e-19 0)
(0.274945 2.79855e-17 0)
(0.274945 4.70251e-17 0)
(0.274945 3.91499e-17 0)
(0.324938 -1.57865e-18 0)
(0.324938 -3.45162e-17 0)
(0.324938 -4.84813e-17 0)
(0.324938 -6.0156e-17 0)
(0.324938 -5.50141e-17 0)
(0.324938 -7.75901e-17 0)
(0.324938 -6.38686e-17 0)
(0.324938 -7.2404e-17 0)
(0.324938 -8.99083e-17 0)
(0.324938 -9.06363e-17 0)
(0.324938 -1.24039e-16 0)
(0.324938 -1.56296e-16 0)
(0.324938 -1.76153e-16 0)
(0.324938 -1.15734e-16 0)
(0.324938 -7.37712e-17 0)
(0.324938 -1.04609e-17 0)
(0.324938 3.63058e-17 0)
(0.324938 8.39373e-17 0)
(0.324938 7.01109e-17 0)
(0.324938 2.99761e-17 0)
(0.374933 4.40589e-18 0)
(0.374933 -5.02643e-17 0)
(0.374933 -6.05394e-17 0)
(0.374933 -6.2741e-17 0)
(0.374933 -7.44084e-17 0)
(0.374933 -1.01732e-16 0)
(0.374933 -1.01323e-16 0)
(0.374933 -9.73943e-17 0)
(0.374933 -1.1815e-16 0)
(0.374933 -1.57694e-16 0)
(0.374933 -1.80167e-16 0)
(0.374933 -1.89827e-16 0)
(0.374933 -1.43487e-16 0)
(0.374933 -9.20813e-17 0)
(0.374933 -4.26312e-17 0)
(0.374933 8.77597e-18 0)
(0.374933 6.60378e-17 0)
(0.374933 9.98781e-17 0)
(0.374933 1.01197e-16 0)
(0.374933 5.17161e-17 0)
(0.424929 5.81747e-17 0)
(0.424929 6.94749e-18 0)
(0.424929 -2.99602e-17 0)
(0.424929 -8.07195e-17 0)
(0.424929 -1.35253e-16 0)
(0.424929 -1.08774e-16 0)
(0.424929 -1.18119e-16 0)
(0.424929 -1.21015e-16 0)
(0.424929 -1.29257e-16 0)
(0.424929 -1.84826e-16 0)
(0.424929 -2.04927e-16 0)
(0.424929 -1.95817e-16 0)
(0.424929 -1.44093e-16 0)
(0.424929 -9.28697e-17 0)
(0.424929 -2.56358e-17 0)
(0.424929 -3.00508e-18 0)
(0.424929 4.30847e-17 0)
(0.424929 8.7684e-17 0)
(0.424929 1.32121e-16 0)
(0.424929 1.21989e-16 0)
(0.474928 1.22075e-16 0)
(0.474928 8.21112e-17 0)
(0.474928 1.11385e-17 0)
(0.474928 -1.06642e-16 0)
(0.474928 -1.62511e-16 0)
(0.474928 -1.45787e-16 0)
(0.474928 -1.34019e-16 0)
(0.474928 -1.46208e-16 0)
(0.474928 -1.66775e-16 0)
(0.474928 -1.56957e-16 0)
(0.474928 -1.86913e-16 0)
(0.474928 -2.09004e-16 0)
(0.474928 -1.71306e-16 0)
(0.474928 -1.24233e-16 0)
(0.474928 -6.89268e-17 0)
(0.474928 -2.48486e-18 0)
(0.474928 3.43157e-17 0)
(0.474928 8.93258e-17 0)
(0.474928 1.43211e-16 0)
(0.474928 1.6421e-16 0)
(0.524928 1.31363e-16 0)
(0.524928 8.67639e-17 0)
(0.524928 2.82145e-17 0)
(0.524928 -7.96319e-17 0)
(0.524928 -1.27586e-16 0)
(0.524928 -1.47732e-16 0)
(0.524928 -1.71749e-16 0)
(0.524928 -1.49068e-16 0)
(0.524928 -2.10164e-16 0)
(0.524928 -1.90314e-16 0)
(0.524928 -1.95562e-16 0)
(0.524928 -1.87982e-16 0)
(0.524928 -1.63465e-16 0)
(0.524928 -1.27362e-16 0)
(0.524928 -7.32267e-17 0)
(0.524928 -1.32569e-17 0)
(0.524928 8.01586e-17 0)
(0.524928 1.00658e-16 0)
(0.524928 1.47586e-16 0)
(0.524928 1.69238e-16 0)
(0.574929 1.20723e-16 0)
(0.574929 6.33048e-17 0)
(0.574929 3.63523e-17 0)
(0.574929 -4.88087e-17 0)
(0.574929 -1.08613e-16 0)
(0.574929 -1.70041e-16 0)
(0.574929 -2.13649e-16 0)
(0.574929 -1.75298e-16 0)
(0.574929 -1.93197e-16 0)
(0.574929 -2.39893e-16 0)
(0.574929 -1.65336e-16 0)
(0.574929 -1.35781e-16 0)
(0.574929 -8.13605e-17 0)
(0.574929 -6.02711e-17 0)
(0.574929 -3.74483e-17 0)
(0.574929 -1.74794e-17 0)
(0.574929 7.54834e-17 0)
(0.574929 1.33334e-16 0)
(0.574929 1.42734e-16 0)
(0.574929 1.2386e-16 0)
(0.624933 5.63934e-17 0)
(0.624933 7.01324e-17 0)
(0.624933 -4.75939e-17 0)
(0.624933 -6.48001e-17 0)
(0.624933 -1.13408e-16 0)
(0.624933 -1.92122e-16 0)
(0.624933 -2.25893e-16 0)
(0.624933 -2.41187e-16 0)
(0.624933 -1.73409e-16 0)
(0.624933 -1.59418e-16 0)
(0.624933 -1.10525e-16 0)
(0.624933 -6.22832e-18 0)
(0.624933 3.58834e-17 0)
(0.624933 2.68034e-17 0)
(0.624933 3.73836e-17 0)
(0.624933 5.39241e-17 0)
(0.624933 4.90742e-17 0)
(0.624933 6.68821e-17 0)
(0.624933 6.96614e-17 0)
(0.624933 6.80477e-17 0)
(0.674938 1.97397e-17 0)
(0.674938 8.87334e-19 0)
(0.674938 -1.29214e-16 0)
(0.674938 -1.33418e-16 0)
(0.674938 -1.46242e-16 0)
(0.674938 -1.57711e-16 0)
(0.674938 -2.14593e-16 0)
(0.674938 -2.44721e-16 0)
(0.674938 -1.80058e-16 0)
(0.674938 -6.88903e-17 0)
(0.674938 -2.13535e-18 0)
(0.674938 8.25969e-17 0)
(0.674938 1.18353e-16 0)
(0.674938 1.09501e-16 0)
(0.674938 1.22071e-16 0)
(0.674938 1.34414e-16 0)
(0.674938 6.76548e-17 0)
(0.674938 2.44473e-17 0)
(0.674938 5.01442e-18 0)
(0.674938 -6.67308e-19 0)
(0.724945 -3.71191e-17 0)
(0.724945 -8.72127e-17 0)
(0.724945 -1.48155e-16 0)
(0.724945 -1.73137e-16 0)
(0.724945 -1.68748e-16 0)
(0.724945 -1.805e-16 0)
(0.724945 -2.07062e-16 0)
(0.724945 -2.49687e-16 0)
(0.724945 -1.41671e-16 0)
(0.724945 -3.70091e-17 0)
(0.724945 7.93126e-17 0)
(0.724945 1.38173e-16 0)
(0.724945 1.97988e-16 0)
(0.724945 2.0719e-16 0)
(0.724945 1.56601e-16 0)
(0.724945 1.25511e-16 0)
(0.724945 9.63265e-17 0)
(0.724945 7.80044e-17 0)
(0.724945 3.46549e-17 0)
(0.724945 -2.82793e-17 0)
(0.774953 -5.15934e-17 0)
(0.774953 -1.18775e-16 0)
(0.774953 -1.02431e-16 0)
(0.774953 -1.07148e-16 0)
(0.774953 -1.31544e-16 0)
(0.774953 -2.34856e-16 0)
(0.774953 -2.96296e-16 0)
(0.774953 -2.53195e-16 0)
(0.774953 -1.30872e-16 0)
(0.774953 2.59254e-17 0)
(0.774953 1.19028e-16 0)
(0.774953 2.22803e-16 0)
(0.774953 2.48432e-16 0)
(0.774953 2.19854e-16 0)
(0.774953 1.56316e-16 0)
(0.774953 7.24112e-17 0)
(0.774953 1.04756e-16 0)
(0.774953 8.29484e-17 0)
(0.774953 1.01831e-16 0)
(0.774953 4.90996e-17 0)
(0.824962 -9.27696e-18 0)
(0.824962 -3.96268e-17 0)
(0.824962 -4.92392e-17 0)
(0.824962 -4.316e-17 0)
(0.824962 -8.05427e-17 0)
(0.824962 -2.45673e-16 0)
(0.824962 -3.10424e-16 0)
(0.824962 -2.08669e-16 0)
(0.824962 -8.55984e-17 0)
(0.824962 4.35417e-17 0)
(0.824962 1.45966e-16 0)
(0.824962 1.69847e-16 0)
(0.824962 2.04926e-16 0)
(0.824962 1.7951e-16 0)
(0.824962 1.5098e-16 0)
(0.824962 9.28261e-17 0)
(0.824962 3.55611e-17 0)
(0.824962 4.11368e-17 0)
(0.824962 3.58031e-17 0)
(0.824962 1.6755e-17 0)
(0.874972 1.13621e-17 0)
(0.874972 2.16784e-17 0)
(0.874972 3.80955e-17 0)
(0.874972 3.4525e-17 0)
(0.874972 -1.08131e-16 0)
(0.874972 -2.21944e-16 0)
(0.874972 -2.56842e-16 0)
(0.874972 -1.89096e-16 0)
(0.874972 1.18066e-17 0)
(0.874972 9.56332e-17 0)
(0.874972 8.13315e-17 0)
(0.874972 1.45199e-16 0)
(0.874972 1.12571e-16 0)
(0.874972 1.10037e-16 0)
(0.874972 8.91979e-17 0)
(0.874972 5.43814e-17 0)
(0.874972 -3.00268e-17 0)
(0.874972 -4.27074e-18 0)
(0.874972 5.07851e-18 0)
(0.874972 1.63768e-18 0)
(0.924983 4.46413e-17 0)
(0.924983 -1.0561e-17 0)
(0.924983 8.44564e-17 0)
(0.924983 1.33142e-16 0)
(0.924983 -9.52993e-17 0)
(0.924983 -1.12254e-16 0)
(0.924983 -1.84406e-16 0)
(0.924983 -1.73311e-16 0)
(0.924983 1.04868e-17 0)
(0.924983 1.73967e-16 0)
(0.924983 8.38718e-17 0)
(0.924983 7.30523e-17 0)
(0.924983 4.87925e-17 0)
(0.924983 4.09003e-17 0)
(0.924983 -5.00018e-18 0)
(0.924983 -5.09659e-18 0)
(0.924983 -1.0383e-17 0)
(0.924983 1.26224e-17 0)
(0.924983 4.27337e-17 0)
(0.924983 6.12537e-17 0)
(0.974994 3.68611e-17 0)
(0.974994 -1.68614e-17 0)
(0.974994 1.44257e-17 0)
(0.974994 8.15398e-17 0)
(0.974994 -5.68967e-18 0)
(0.974994 -2.14842e-17 0)
(0.974994 -5.3825e-17 0)
(0.974994 -7.9043e-17 0)
(0.974994 -1.49087e-17 0)
(0.974994 8.06011e-17 0)
(0.974994 4.90965e-17 0)
(0.974994 -7.11792e-18 0)
(0.974994 8.58135e-18 0)
(0.974994 6.30308e-18 0)
(0.974994 -7.56241e-18 0)
(0.974994 -2.35821e-18 0)
(0.974994 7.41751e-18 0)
(0.974994 1.25858e-17 0)
(0.974994 6.96442e-18 0)
(0.974994 2.4101e-17 0)
)
;

boundaryField
{
    movingWall
    {
        type            fixedValue;
        value           uniform (1 0 0);
    }
    fixedWalls
    {
        type            noSlip;
    }
    left
    {
        type            cyclic;
    }
    right
    {
        type            cyclic;
    }
    frontAndBack
    {
        type            empty;
    }
}


// ************************************************************************* //
