/*--------------------------------*- C++ -*----------------------------------*\
  =========                 |
  \\      /  F ield         | OpenFOAM: The Open Source CFD Toolbox
   \\    /   O peration     | Website:  https://openfoam.org
    \\  /    A nd           | Version:  8
     \\/     M anipulation  |
\*---------------------------------------------------------------------------*/
FoamFile
{
    version     2.0;
    format      ascii;
    class       volVectorField;
    location    "0.065";
    object      U;
}
// * * * * * * * * * * * * * * * * * * * * * * * * * * * * * * * * * * * * * //

dimensions      [0 1 -1 0 0 0 0];

internalField   nonuniform List<vector> 
400
(
(0.000231582 -0.000231394 0)
(0.000118837 0.000110143 0)
(-0.00112308 0.000535142 0)
(-0.00327895 0.000831973 0)
(-0.00597903 0.000978647 0)
(-0.00885283 0.000990681 0)
(-0.011573 0.000891702 0)
(-0.0138706 0.000706692 0)
(-0.0155398 0.00045931 0)
(-0.0164371 0.000171799 0)
(-0.0164818 -0.00013361 0)
(-0.0156591 -0.000433107 0)
(-0.0140248 -0.000700209 0)
(-0.0117121 -0.000905555 0)
(-0.0089347 -0.00101784 0)
(-0.00598617 -0.00100653 0)
(-0.00322643 -0.000847379 0)
(-0.00105091 -0.000531501 0)
(0.000166794 -9.45393e-05 0)
(0.000247051 0.000241693 0)
(-7.97555e-05 -0.000145068 0)
(-0.00152136 0.00155224 0)
(-0.00533317 0.00338864 0)
(-0.0109444 0.00469677 0)
(-0.017606 0.00534085 0)
(-0.024562 0.00534341 0)
(-0.0310975 0.00478834 0)
(-0.0365986 0.00378451 0)
(-0.0405837 0.00244836 0)
(-0.042714 0.000898746 0)
(-0.0428021 -0.000741246 0)
(-0.0408198 -0.00234077 0)
(-0.0369078 -0.0037592 0)
(-0.0313836 -0.00484812 0)
(-0.0247426 -0.0054592 0)
(-0.0176434 -0.00546097 0)
(-0.0108613 -0.00476759 0)
(-0.00520173 -0.0033815 0)
(-0.00142322 -0.00148776 0)
(-4.74655e-05 0.000197147 0)
(-0.000497596 0.0010369 0)
(-0.00347032 0.00537314 0)
(-0.00988178 0.00954104 0)
(-0.0186287 0.0124737 0)
(-0.0286287 0.0138694 0)
(-0.0388718 0.0137402 0)
(-0.0483949 0.0122539 0)
(-0.0563615 0.00965664 0)
(-0.0621113 0.00622883 0)
(-0.0651792 0.00226776 0)
(-0.065308 -0.00191411 0)
(-0.0624599 -0.00598572 0)
(-0.0568285 -0.00959667 0)
(-0.0488477 -0.0123852 0)
(-0.0391914 -0.0140009 0)
(-0.0287514 -0.0141473 0)
(-0.0185705 -0.0126494 0)
(-0.00973223 -0.00954562 0)
(-0.00334461 -0.00523919 0)
(-0.00045401 -0.000916531 0)
(-0.000868765 0.00326709 0)
(-0.00531725 0.0114207 0)
(-0.0142884 0.0185709 0)
(-0.0260483 0.0234325 0)
(-0.0391404 0.0256062 0)
(-0.0523257 0.0251308 0)
(-0.0644511 0.0222924 0)
(-0.0745262 0.0175117 0)
(-0.0817742 0.0112745 0)
(-0.0856494 0.00410176 0)
(-0.0858471 -0.00345707 0)
(-0.0823167 -0.0108211 0)
(-0.0752753 -0.0173781 0)
(-0.0652212 -0.0224997 0)
(-0.0529394 -0.0255801 0)
(-0.039485 -0.0261091 0)
(-0.0261147 -0.0237801 0)
(-0.0141753 -0.018629 0)
(-0.00517971 -0.0112212 0)
(-0.000813967 -0.0030583 0)
(-0.00119916 0.0064413 0)
(-0.0070657 0.019585 0)
(-0.0185718 0.030331 0)
(-0.0333098 0.0373383 0)
(-0.049409 0.0402239 0)
(-0.0653945 0.0391326 0)
(-0.0799473 0.0345245 0)
(-0.0919626 0.0270361 0)
(-0.100589 0.0173908 0)
(-0.10523 0.00635875 0)
(-0.105549 -0.00525131 0)
(-0.101474 -0.0165855 0)
(-0.0932205 -0.0267423 0)
(-0.0813072 -0.0347909 0)
(-0.0665819 -0.0398236 0)
(-0.0502226 -0.0410565 0)
(-0.0336844 -0.0379797 0)
(-0.0186008 -0.0305407 0)
(-0.00695419 -0.0193635 0)
(-0.00113804 -0.00613856 0)
(-0.00151731 0.0105153 0)
(-0.00879968 0.0298553 0)
(-0.0228711 0.044847 0)
(-0.0406149 0.0542111 0)
(-0.0597105 0.0577076 0)
(-0.0784366 0.0556921 0)
(-0.095324 0.0488774 0)
(-0.109185 0.0381677 0)
(-0.119128 0.0245544 0)
(-0.124535 0.0090715 0)
(-0.125046 -0.00720683 0)
(-0.120563 -0.0231488 0)
(-0.111269 -0.0375515 0)
(-0.0976613 -0.0491529 0)
(-0.0806049 -0.0566918 0)
(-0.0613652 -0.0590318 0)
(-0.0415862 -0.0553545 0)
(-0.0232188 -0.0453976 0)
(-0.00878434 -0.0297244 0)
(-0.00146157 -0.0101368 0)
(-0.00184984 0.0155005 0)
(-0.0106091 0.0422839 0)
(-0.0273383 0.0621857 0)
(-0.0481519 0.0740934 0)
(-0.0702422 0.0780524 0)
(-0.0916395 0.0747604 0)
(-0.110749 0.0652809 0)
(-0.126341 0.0508479 0)
(-0.137525 0.0327494 0)
(-0.143694 0.0122862 0)
(-0.144482 -0.00921388 0)
(-0.139756 -0.0303565 0)
(-0.129634 -0.0496421 0)
(-0.114546 -0.0654595 0)
(-0.0953122 -0.0761392 0)
(-0.0732345 -0.0800939 0)
(-0.0501219 -0.0760574 0)
(-0.0282633 -0.0633955 0)
(-0.0108002 -0.0424633 0)
(-0.00182056 -0.0151095 0)
(-0.0022204 0.0214593 0)
(-0.0125755 0.0569867 0)
(-0.0321026 0.0824443 0)
(-0.0560454 0.0970124 0)
(-0.0810673 0.101201 0)
(-0.104965 0.0962128 0)
(-0.126066 0.0835844 0)
(-0.14316 0.0649493 0)
(-0.155422 0.0419154 0)
(-0.162302 0.0160382 0)
(-0.163453 -0.0111353 0)
(-0.1587 -0.037989 0)
(-0.148068 -0.0627569 0)
(-0.13185 -0.083478 0)
(-0.110741 -0.0980244 0)
(-0.0859948 -0.104244 0)
(-0.0595233 -0.100244 0)
(-0.0339501 -0.084797 0)
(-0.0131294 -0.0578453 0)
(-0.00225027 -0.0211883 0)
(-0.0026529 0.0284997 0)
(-0.0147755 0.074134 0)
(-0.037263 0.105725 0)
(-0.0643326 0.122932 0)
(-0.0920738 0.126971 0)
(-0.118093 0.119766 0)
(-0.140727 0.103474 0)
(-0.158885 0.0802025 0)
(-0.171893 0.0518933 0)
(-0.179331 0.0203228 0)
(-0.180909 -0.0128065 0)
(-0.176418 -0.045731 0)
(-0.165746 -0.0764834 0)
(-0.148977 -0.102784 0)
(-0.126563 -0.122013 0)
(-0.0995729 -0.131333 0)
(-0.0699024 -0.128001 0)
(-0.0404568 -0.109896 0)
(-0.0158979 -0.0762314 0)
(-0.00278841 -0.0285769 0)
(-0.00317885 0.0367756 0)
(-0.0172976 0.093936 0)
(-0.0428991 0.132088 0)
(-0.072951 0.151666 0)
(-0.102933 0.154948 0)
(-0.130357 0.144862 0)
(-0.153711 0.12436 0)
(-0.172168 0.0961012 0)
(-0.185337 0.0623545 0)
(-0.193018 0.0250538 0)
(-0.195037 -0.0140424 0)
(-0.191166 -0.0531402 0)
(-0.181127 -0.090183 0)
(-0.1647 -0.122651 0)
(-0.141948 -0.147442 0)
(-0.113557 -0.160922 0)
(-0.0811959 -0.159234 0)
(-0.0479119 -0.138943 0)
(-0.0192415 -0.0980554 0)
(-0.00348288 -0.0375547 0)
(-0.00385152 0.046505 0)
(-0.020274 0.116635 0)
(-0.0490917 0.161486 0)
(-0.0817216 0.182768 0)
(-0.113039 0.184344 0)
(-0.140644 0.170522 0)
(-0.163402 0.145249 0)
(-0.180954 0.111797 0)
(-0.193352 0.0727217 0)
(-0.200734 0.0300122 0)
(-0.203115 -0.0146587 0)
(-0.20028 -0.059631 0)
(-0.191766 -0.102929 0)
(-0.176967 -0.141941 0)
(-0.155382 -0.17316 0)
(-0.127048 -0.192092 0)
(-0.0930812 -0.193483 0)
(-0.0563785 -0.172036 0)
(-0.0233272 -0.123793 0)
(-0.00440561 -0.0484933 0)
(-0.00477156 0.0580174 0)
(-0.0239295 0.142507 0)
(-0.0559399 0.193664 0)
(-0.0902948 0.215353 0)
(-0.121384 0.213804 0)
(-0.147235 0.195174 0)
(-0.167421 0.164606 0)
(-0.182315 0.125996 0)
(-0.192594 0.0820938 0)
(-0.198854 0.0347921 0)
(-0.20138 -0.0145053 0)
(-0.200016 -0.0644806 0)
(-0.194128 -0.113469 0)
(-0.18267 -0.158999 0)
(-0.164414 -0.197347 0)
(-0.138435 -0.223204 0)
(-0.104826 -0.229679 0)
(-0.0658102 -0.208933 0)
(-0.0283839 -0.153916 0)
(-0.00567713 -0.0618984 0)
(-0.00613311 0.0718534 0)
(-0.0286504 0.17185 0)
(-0.0635359 0.227987 0)
(-0.0979914 0.24785 0)
(-0.126307 0.241159 0)
(-0.147517 0.216462 0)
(-0.162368 0.180229 0)
(-0.172254 0.136887 0)
(-0.178639 0.0891995 0)
(-0.182665 0.038759 0)
(-0.184945 -0.0135129 0)
(-0.185443 -0.0668721 0)
(-0.183413 -0.120235 0)
(-0.177386 -0.171594 0)
(-0.165321 -0.217346 0)
(-0.145035 -0.25161 0)
(-0.115004 -0.265777 0)
(-0.0759305 -0.248752 0)
(-0.0347347 -0.188793 0)
(-0.00750928 -0.0784943 0)
(-0.00829908 0.0889416 0)
(-0.0350483 0.204914 0)
(-0.0717957 0.263098 0)
(-0.103389 0.277585 0)
(-0.124964 0.263108 0)
(-0.137488 0.231072 0)
(-0.143431 0.189196 0)
(-0.145457 0.142155 0)
(-0.14587 0.092428 0)
(-0.146348 0.0410521 0)
(-0.147827 -0.0117418 0)
(-0.150445 -0.0659922 0)
(-0.153455 -0.121462 0)
(-0.155122 -0.176985 0)
(-0.152676 -0.229581 0)
(-0.142535 -0.273349 0)
(-0.120961 -0.298258 0)
(-0.0859209 -0.289456 0)
(-0.0427901 -0.228466 0)
(-0.0102682 -0.0993614 0)
(-0.0118836 0.110858 0)
(-0.0438878 0.241599 0)
(-0.079857 0.296244 0)
(-0.103333 0.300193 0)
(-0.112287 0.274901 0)
(-0.110891 0.234696 0)
(-0.103821 0.188014 0)
(-0.095016 0.139204 0)
(-0.0874463 0.0900204 0)
(-0.0831172 0.0406835 0)
(-0.0831684 -0.00941336 0)
(-0.0879225 -0.0612002 0)
(-0.0968123 -0.115458 0)
(-0.108155 -0.172206 0)
(-0.118845 -0.229721 0)
(-0.124141 -0.282995 0)
(-0.117789 -0.321548 0)
(-0.0936312 -0.326999 0)
(-0.0528159 -0.272092 0)
(-0.0145102 -0.126093 0)
(-0.0176534 0.140215 0)
(-0.0553568 0.280561 0)
(-0.0843 0.322 0)
(-0.0907689 0.308818 0)
(-0.0791052 0.270206 0)
(-0.0579325 0.222357 0)
(-0.0340767 0.173162 0)
(-0.0122364 0.125708 0)
(0.00454079 0.0805132 0)
(0.0143879 0.0367932 0)
(0.0162428 -0.00688817 0)
(0.00965801 -0.052265 0)
(-0.00517535 -0.101093 0)
(-0.0271198 -0.154732 0)
(-0.0535148 -0.213293 0)
(-0.0793715 -0.273897 0)
(-0.0964773 -0.32749 0)
(-0.0936747 -0.35401 0)
(-0.063885 -0.316746 0)
(-0.0207349 -0.161012 0)
(-0.0255203 0.181548 0)
(-0.0662328 0.316887 0)
(-0.0745805 0.329658 0)
(-0.0503919 0.292976 0)
(-0.00914312 0.241309 0)
(0.0363211 0.189318 0)
(0.0784577 0.142161 0)
(0.113197 0.100566 0)
(0.138478 0.0634493 0)
(0.15328 0.0290721 0)
(0.157024 -0.00456203 0)
(0.149277 -0.0396203 0)
(0.12972 -0.0784502 0)
(0.0984104 -0.123501 0)
(0.0564741 -0.176902 0)
(0.0074136 -0.239032 0)
(-0.0407959 -0.304999 0)
(-0.0733311 -0.357681 0)
(-0.0706859 -0.354903 0)
(-0.0280212 -0.207747 0)
(-0.0296715 0.239195 0)
(-0.0610967 0.33541 0)
(-0.0227635 0.29964 0)
(0.0488742 0.238797 0)
(0.124844 0.181301 0)
(0.193104 0.133625 0)
(0.249263 0.0957296 0)
(0.292133 0.0654621 0)
(0.321893 0.0403875 0)
(0.339031 0.0183177 0)
(0.343787 -0.00271993 0)
(0.335924 -0.0246813 0)
(0.314639 -0.0497658 0)
(0.27865 -0.080691 0)
(0.226633 -0.120878 0)
(0.158424 -0.174028 0)
(0.0773518 -0.241863 0)
(-0.00461659 -0.317805 0)
(-0.0552145 -0.367708 0)
(-0.0285522 -0.267314 0)
(0.0081063 0.281942 0)
(0.0197374 0.294919 0)
(0.138714 0.210692 0)
(0.26356 0.14298 0)
(0.362719 0.0965419 0)
(0.437855 0.0650789 0)
(0.493365 0.0435781 0)
(0.532721 0.0283449 0)
(0.558694 0.0168327 0)
(0.573187 0.00732498 0)
(0.577159 -0.00144095 0)
(0.570635 -0.0105947 0)
(0.55265 -0.0214325 0)
(0.521076 -0.0358013 0)
(0.472457 -0.0566578 0)
(0.402033 -0.088767 0)
(0.303493 -0.139163 0)
(0.172492 -0.215908 0)
(0.0408386 -0.311353 0)
(0.0183835 -0.299931 0)
(0.299643 0.146131 0)
(0.396346 0.127525 0)
(0.557419 0.0760614 0)
(0.674283 0.0436456 0)
(0.743374 0.0254611 0)
(0.786271 0.0151194 0)
(0.814233 0.009098 0)
(0.83238 0.00541942 0)
(0.843569 0.00297166 0)
(0.849421 0.00113278 0)
(0.850694 -0.000477607 0)
(0.847497 -0.00215971 0)
(0.839296 -0.00425731 0)
(0.824691 -0.007326 0)
(0.800928 -0.0124266 0)
(0.762788 -0.0216682 0)
(0.698583 -0.039188 0)
(0.583701 -0.0725854 0)
(0.415775 -0.12783 0)
(0.308831 -0.149478 0)
)
;

boundaryField
{
    movingWall
    {
        type            fixedValue;
        value           uniform (1 0 0);
    }
    fixedWalls
    {
        type            noSlip;
    }
    frontAndBack
    {
        type            empty;
    }
}


// ************************************************************************* //
