/*--------------------------------*- C++ -*----------------------------------*\
  =========                 |
  \\      /  F ield         | OpenFOAM: The Open Source CFD Toolbox
   \\    /   O peration     | Website:  https://openfoam.org
    \\  /    A nd           | Version:  8
     \\/     M anipulation  |
\*---------------------------------------------------------------------------*/
FoamFile
{
    version     2.0;
    format      ascii;
    class       volScalarField;
    location    "1.04";
    object      p;
}
// * * * * * * * * * * * * * * * * * * * * * * * * * * * * * * * * * * * * * //

dimensions      [0 2 -2 0 0 0 0];

internalField   nonuniform List<scalar> 
400
(
-1.85957e-13
-1.83652e-08
-4.41442e-08
-7.22701e-08
-9.68161e-08
-1.13799e-07
-1.23056e-07
-1.2592e-07
-1.2334e-07
-1.16325e-07
-1.06382e-07
-9.47498e-08
-8.19231e-08
-6.7941e-08
-5.29745e-08
-3.72977e-08
-2.16973e-08
-6.9086e-09
4.10163e-09
7.66511e-09
-3.53063e-08
-4.36831e-08
-5.73199e-08
-7.34535e-08
-8.88035e-08
-1.00287e-07
-1.07105e-07
-1.09617e-07
-1.0804e-07
-1.03296e-07
-9.6799e-08
-8.9558e-08
-8.18692e-08
-7.36992e-08
-6.51138e-08
-5.67082e-08
-4.85158e-08
-4.11121e-08
-3.49576e-08
-3.2649e-08
-6.32665e-08
-6.6514e-08
-7.14799e-08
-7.90146e-08
-8.73574e-08
-9.44266e-08
-9.90936e-08
-1.00775e-07
-9.95749e-08
-9.65054e-08
-9.2719e-08
-8.88027e-08
-8.48094e-08
-8.05884e-08
-7.62902e-08
-7.23357e-08
-6.91613e-08
-6.60188e-08
-6.38216e-08
-6.29088e-08
-8.4409e-08
-8.46804e-08
-8.56696e-08
-8.80544e-08
-9.18363e-08
-9.57908e-08
-9.83472e-08
-9.88189e-08
-9.76166e-08
-9.56717e-08
-9.36377e-08
-9.16743e-08
-8.96508e-08
-8.73715e-08
-8.50693e-08
-8.34415e-08
-8.23207e-08
-8.18515e-08
-8.20022e-08
-8.29445e-08
-9.60088e-08
-9.64249e-08
-9.57776e-08
-9.57687e-08
-9.73807e-08
-9.93735e-08
-1.00242e-07
-9.98699e-08
-9.89299e-08
-9.7986e-08
-9.71424e-08
-9.62597e-08
-9.51591e-08
-9.36227e-08
-9.19233e-08
-9.09591e-08
-9.07408e-08
-9.07226e-08
-9.17244e-08
-9.38693e-08
-1.00111e-07
-1.01831e-07
-1.01362e-07
-1.00771e-07
-1.01382e-07
-1.02149e-07
-1.02152e-07
-1.01741e-07
-1.01498e-07
-1.01474e-07
-1.01348e-07
-1.00882e-07
-9.99822e-08
-9.85453e-08
-9.68523e-08
-9.57007e-08
-9.5131e-08
-9.43977e-08
-9.44958e-08
-9.69411e-08
-1.0088e-07
-1.0416e-07
-1.04438e-07
-1.03681e-07
-1.0355e-07
-1.03668e-07
-1.0364e-07
-1.03847e-07
-1.04443e-07
-1.04996e-07
-1.05054e-07
-1.04571e-07
-1.03632e-07
-1.02159e-07
-1.00344e-07
-9.87624e-08
-9.73727e-08
-9.55505e-08
-9.4523e-08
-9.6621e-08
-1.00747e-07
-1.05154e-07
-1.06135e-07
-1.0519e-07
-1.04578e-07
-1.04632e-07
-1.05087e-07
-1.06016e-07
-1.07124e-07
-1.07724e-07
-1.07495e-07
-1.06737e-07
-1.05772e-07
-1.04463e-07
-1.02699e-07
-1.00738e-07
-9.85001e-08
-9.57277e-08
-9.38828e-08
-9.56175e-08
-9.96525e-08
-1.05072e-07
-1.06873e-07
-1.06085e-07
-1.05481e-07
-1.05789e-07
-1.06626e-07
-1.07788e-07
-1.08788e-07
-1.0896e-07
-1.08213e-07
-1.07112e-07
-1.06131e-07
-1.051e-07
-1.03597e-07
-1.01502e-07
-9.86927e-08
-9.52037e-08
-9.26959e-08
-9.40606e-08
-9.76826e-08
-1.04291e-07
-1.07285e-07
-1.07154e-07
-1.06846e-07
-1.07233e-07
-1.07852e-07
-1.0849e-07
-1.08797e-07
-1.08319e-07
-1.07153e-07
-1.05918e-07
-1.05057e-07
-1.04375e-07
-1.03293e-07
-1.01401e-07
-9.8443e-08
-9.44568e-08
-9.11552e-08
-9.19107e-08
-9.65757e-08
-1.04353e-07
-1.08573e-07
-1.09126e-07
-1.08874e-07
-1.08765e-07
-1.08434e-07
-1.07918e-07
-1.07212e-07
-1.06133e-07
-1.04861e-07
-1.03868e-07
-1.03393e-07
-1.03167e-07
-1.02583e-07
-1.01102e-07
-9.83415e-08
-9.4183e-08
-9.02836e-08
-9.05416e-08
-9.83719e-08
-1.06809e-07
-1.11532e-07
-1.12142e-07
-1.1134e-07
-1.10119e-07
-1.08325e-07
-1.06356e-07
-1.04589e-07
-1.03062e-07
-1.0193e-07
-1.0141e-07
-1.01446e-07
-1.01669e-07
-1.01525e-07
-1.00524e-07
-9.83061e-08
-9.46729e-08
-9.1141e-08
-9.17321e-08
-1.03388e-07
-1.11651e-07
-1.15671e-07
-1.15425e-07
-1.13526e-07
-1.10895e-07
-1.07543e-07
-1.04183e-07
-1.01494e-07
-9.96352e-08
-9.86597e-08
-9.85143e-08
-9.88944e-08
-9.93849e-08
-9.95661e-08
-9.9155e-08
-9.79841e-08
-9.58721e-08
-9.40187e-08
-9.59717e-08
-1.09871e-07
-1.17173e-07
-1.19526e-07
-1.17762e-07
-1.14559e-07
-1.10662e-07
-1.06102e-07
-1.01736e-07
-9.83915e-08
-9.62568e-08
-9.5261e-08
-9.51578e-08
-9.55405e-08
-9.60674e-08
-9.65354e-08
-9.69455e-08
-9.73863e-08
-9.76396e-08
-9.83324e-08
-1.02108e-07
-1.15389e-07
-1.21097e-07
-1.21581e-07
-1.18333e-07
-1.14071e-07
-1.09396e-07
-1.04235e-07
-9.94064e-08
-9.57031e-08
-9.32675e-08
-9.19525e-08
-9.14776e-08
-9.15313e-08
-9.1963e-08
-9.27892e-08
-9.42445e-08
-9.66114e-08
-9.95379e-08
-1.02918e-07
-1.08198e-07
-1.18468e-07
-1.22073e-07
-1.21134e-07
-1.17091e-07
-1.12519e-07
-1.07817e-07
-1.02727e-07
-9.78797e-08
-9.39594e-08
-9.10495e-08
-8.90205e-08
-8.77513e-08
-8.72097e-08
-8.74708e-08
-8.86712e-08
-9.11401e-08
-9.52671e-08
-1.00626e-07
-1.0636e-07
-1.12497e-07
-1.1911e-07
-1.20681e-07
-1.18828e-07
-1.14983e-07
-1.10943e-07
-1.07091e-07
-1.02696e-07
-9.81036e-08
-9.38555e-08
-9.0118e-08
-8.69185e-08
-8.44274e-08
-8.29672e-08
-8.27998e-08
-8.40719e-08
-8.71326e-08
-9.24943e-08
-9.98096e-08
-1.0752e-07
-1.14094e-07
-1.17333e-07
-1.18646e-07
-1.17129e-07
-1.1434e-07
-1.11881e-07
-1.09173e-07
-1.05614e-07
-1.01092e-07
-9.61207e-08
-9.09992e-08
-8.60479e-08
-8.17834e-08
-7.8786e-08
-7.74343e-08
-7.79295e-08
-8.08007e-08
-8.67222e-08
-9.53702e-08
-1.04699e-07
-1.12578e-07
-1.12526e-07
-1.17549e-07
-1.1972e-07
-1.20148e-07
-1.19663e-07
-1.18083e-07
-1.14416e-07
-1.08901e-07
-1.02069e-07
-9.45319e-08
-8.68702e-08
-7.98616e-08
-7.42497e-08
-7.04304e-08
-6.87206e-08
-6.99502e-08
-7.50861e-08
-8.37891e-08
-9.45241e-08
-1.04696e-07
-1.04525e-07
-1.17607e-07
-1.27449e-07
-1.33362e-07
-1.35694e-07
-1.34444e-07
-1.29672e-07
-1.21809e-07
-1.11921e-07
-1.00911e-07
-8.9622e-08
-7.89428e-08
-6.96295e-08
-6.21566e-08
-5.70169e-08
-5.52577e-08
-5.80019e-08
-6.54702e-08
-7.65086e-08
-9.00561e-08
)
;

boundaryField
{
    movingWall
    {
        type            zeroGradient;
    }
    fixedWalls
    {
        type            zeroGradient;
    }
    left
    {
        type            cyclic;
    }
    right
    {
        type            cyclic;
    }
    frontAndBack
    {
        type            empty;
    }
}


// ************************************************************************* //
