/*--------------------------------*- C++ -*----------------------------------*\
  =========                 |
  \\      /  F ield         | OpenFOAM: The Open Source CFD Toolbox
   \\    /   O peration     | Website:  https://openfoam.org
    \\  /    A nd           | Version:  8
     \\/     M anipulation  |
\*---------------------------------------------------------------------------*/
FoamFile
{
    version     2.0;
    format      ascii;
    class       volScalarField;
    location    "86";
    object      p;
}
// * * * * * * * * * * * * * * * * * * * * * * * * * * * * * * * * * * * * * //

dimensions      [0 2 -2 0 0 0 0];

internalField   nonuniform List<scalar> 
2844
(
0.0354288
0.0223422
0.00773701
-0.00657411
-0.019736
-0.0229467
-0.0164216
-0.00960406
-0.00465371
-0.00147126
0.00119007
0.00637857
0.0107243
0.015939
0.0247036
0.030547
0.0319505
0.0274625
0.0184506
0.00802004
0.0440442
0.0324033
0.0115761
-0.00771664
-0.0225371
-0.0241785
-0.0172668
-0.00605553
-0.00329686
-0.00117095
0.00198149
0.0123113
0.01917
0.0273039
0.0333418
0.0373209
0.0376654
0.0323359
0.0232339
0.00967711
0.046638
0.0228804
-0.00158901
-0.023714
-0.0431742
-0.0339687
-0.0198549
-0.0124696
-0.0102367
-0.0130033
-0.0125432
-0.00597789
-0.00512306
0.00291875
0.0119892
0.0343875
0.0383287
0.0325359
0.0270813
0.0128155
0.0901371
0.0690083
0.015953
-0.0294388
-0.0662655
-0.0448295
-0.0225786
0.0125783
-0.014261
-0.0176423
-0.0130939
0.00607476
0.0243293
0.0397902
0.0448064
0.0609886
0.051306
0.0440855
0.0454061
0.0169434
0.0848755
0.0359887
-0.0197096
-0.104274
-0.123087
-0.0580928
-0.0412236
-0.0145012
-0.0245425
-0.0493465
-0.0476276
-0.0200656
-0.0412632
-0.0293405
-0.0133827
0.0392496
0.0274747
0.0275756
0.0296955
0.011281
0.225919
0.169661
0.0288916
-0.0944926
-0.281976
-0.121928
-0.0644098
0.0914296
-0.106655
-0.120507
-0.0927111
-0.00788453
0.0242096
0.033769
0.0708257
0.0840847
0.0192199
0.0390613
0.0356209
0.0135775
0.210176
0.0552257
-0.0985013
-0.353246
-0.491209
-0.113366
-0.129187
0.0467289
-0.195261
-0.174477
-0.106702
-0.0586802
-0.119325
-0.140135
-0.0986687
-0.0603235
-0.00813543
0.0407902
0.0547527
0.0179305
0.552716
0.359414
-0.00619591
-0.712954
-0.8669
-0.458021
-0.069724
0.216375
-0.57163
-0.469749
-0.254461
-0.172772
-0.162862
-0.172003
-0.107419
-0.0569857
-0.028676
0.00727074
0.0495103
0.0107618
0.457571
0.658001
-0.0183609
-0.403762
-0.020194
-0.756228
-0.577845
-0.356498
-0.17279
-0.0152108
0.0175205
0.000455331
0.00109863
-0.00182397
-0.0242069
-0.00215419
-0.00381209
1.32785
1.19486
1.70142
-0.346473
-0.290831
-0.779738
-0.627276
-0.432761
-0.300202
-0.050543
-0.021141
-0.0518218
-0.0815878
0.00577529
0.014414
-0.0172257
-0.0122924
1.07468
0.706685
-0.450564
-0.435647
-0.520586
-0.47896
-0.364312
-0.376137
-0.0170914
-0.0624663
-0.0673152
-0.075982
-0.0566914
-0.0150729
-0.0374803
-0.0445862
0.827849
0.554883
0.605813
-0.713658
-0.287354
0.164198
0.0827114
0.0973824
-0.191491
-0.175213
-0.100602
-0.0435784
-0.0577413
-0.0083574
-0.0212201
-0.0484771
-0.0314467
0.257774
0.285906
-0.399576
-0.809532
-0.615356
-0.249944
0.15101
0.177615
0.14514
-0.0509284
-0.248463
-0.120585
-0.0337027
-0.0378344
-0.0052062
0.0204752
-0.0167759
-0.0156902
0.236898
0.13692
-0.293012
-0.819806
-1.11458
-0.512174
-0.348608
-0.219034
-0.128724
-0.0721312
0.0197629
-0.0793593
-0.154534
-0.0544294
-0.0305417
0.00955048
0.0175917
0.0268128
0.0120903
0.0020764
0.0346333
-0.00266588
-0.167818
-0.347739
-0.451359
-0.37005
-0.266503
-0.140063
-0.032619
0.0318535
0.064006
0.0253318
-0.0369405
-0.000662581
0.0149574
-0.00732729
0.000455868
0.0232366
0.0191229
0.00686926
0.00245307
-0.0623567
-0.1667
-0.323993
-0.350427
-0.296503
-0.241811
-0.141455
-0.0714227
-0.0388875
-0.0191228
0.0040359
0.0216018
0.0281855
0.0434025
0.0339157
-0.0108724
0.010321
-0.0103923
-0.0230362
-0.0738439
-0.0966017
-0.149754
-0.216985
-0.251311
-0.239851
-0.193642
-0.12424
-0.061304
-0.0194285
0.0146169
0.0332827
0.0256503
0.0225803
0.025277
0.0364444
0.0300475
0.0277718
0.0134441
0.00165578
-0.0882737
-0.114322
-0.150534
-0.203749
-0.225544
-0.214619
-0.183402
-0.128983
-0.0876713
-0.0500126
-0.0199191
0.00181713
0.0164363
0.0185611
0.0381545
0.0392898
0.0240752
0.0277435
0.022535
0.00895552
-0.111615
-0.124088
-0.14658
-0.175171
-0.191002
-0.185656
-0.159753
-0.120364
-0.0778073
-0.042953
-0.0168764
0.00174512
0.013988
0.0216954
0.0286449
0.0337966
0.0311859
0.0265521
0.0213593
0.0107559
-0.11603
-0.128313
-0.14749
-0.17328
-0.1857
-0.180062
-0.158061
-0.121508
-0.0861367
-0.0520892
-0.025753
-0.00532974
0.0100926
0.0181045
0.0299078
0.032673
0.0288854
0.0246735
0.0173856
0.00766264
0.0354371
0.0223621
0.00771974
-0.00655022
-0.0197041
-0.0229566
-0.0164179
-0.00959505
-0.0046653
-0.00150793
0.00123298
0.00635004
0.0107225
0.015696
0.0245797
0.0305468
0.031927
0.0272939
0.0184236
0.00799227
0.0440052
0.0323957
0.0115733
-0.00767231
-0.0225066
-0.0242268
-0.0172913
-0.00591422
-0.00327984
-0.00121791
0.00195962
0.012265
0.0193391
0.0280279
0.0334579
0.0373351
0.0373797
0.0319774
0.0226849
0.00981587
0.0465484
0.0229355
-0.00183902
-0.0235264
-0.0426145
-0.0343039
-0.0197937
-0.0123492
-0.0104443
-0.0129078
-0.0124306
-0.00629965
-0.00529792
0.00184442
0.0118336
0.0340114
0.0372336
0.0303656
0.0237999
0.0128458
0.0900323
0.0691533
0.0154682
-0.0322989
-0.0653444
-0.0453218
-0.0232928
0.0118242
-0.0144583
-0.0180415
-0.0128991
0.00669786
0.0247435
0.0410506
0.0440071
0.0599549
0.049563
0.0401045
0.0419937
0.0158563
0.084389
0.0334517
-0.0269896
-0.106183
-0.125077
-0.0582431
-0.039095
-0.0150463
-0.0255382
-0.0487631
-0.0467059
-0.0229814
-0.042909
-0.0303395
-0.0135906
0.0358779
0.0258981
0.0265855
0.0298263
0.0102583
0.223459
0.161859
0.0181814
-0.14863
-0.277201
-0.122888
-0.0665891
0.079635
-0.106582
-0.122032
-0.0895456
-0.00790803
0.021899
0.0331341
0.0704932
0.0830787
0.0167625
0.0333445
0.0332436
0.0131032
0.207406
0.0389191
-0.132057
-0.399082
-0.50905
-0.104033
-0.150324
0.0267343
-0.198958
-0.188977
-0.122375
-0.060578
-0.119091
-0.14178
-0.106517
-0.073316
-0.0241462
0.0274175
0.0440791
0.0155504
0.545584
0.351827
-0.0260109
-0.845074
-0.893214
-0.44391
-0.0770763
0.217747
-0.572704
-0.457754
-0.25344
-0.195352
-0.180829
-0.178432
-0.10816
-0.0619853
-0.0338141
-0.00186602
0.0382708
0.0110316
0.489284
0.668519
-0.0419419
-0.400328
-0.117401
-0.776708
-0.55868
-0.351454
-0.188293
-0.0280281
0.022176
0.000428699
-0.00332094
-0.00936655
-0.025785
-0.00666631
-0.00457511
1.2558
1.08444
1.62467
-0.351613
-0.403796
-0.805596
-0.617327
-0.439764
-0.306815
-0.0602218
-0.00803316
-0.0397525
-0.0676525
0.00226982
0.0140748
-0.0219639
-0.0170312
0.93475
0.662781
-0.483428
-0.447095
-0.52846
-0.469441
-0.377245
-0.374221
-0.0263169
-0.0680104
-0.0626086
-0.086579
-0.0660295
-0.0193928
-0.0404703
-0.0456897
0.845561
0.559982
0.601216
-0.704931
-0.305329
0.167171
0.0916494
0.0921384
-0.173221
-0.149429
-0.098337
-0.0607244
-0.0775556
-0.00938808
-0.0295755
-0.0550545
-0.0295379
0.249158
0.224045
-0.384894
-0.798776
-0.589669
-0.257024
0.115954
0.160114
0.133906
-0.0588711
-0.248377
-0.129977
-0.0426386
-0.0482171
-0.0163967
0.0153567
-0.023551
-0.0160445
0.238191
0.125324
-0.318436
-0.797591
-1.10852
-0.516367
-0.356937
-0.215287
-0.13322
-0.0713948
0.0157784
-0.0875356
-0.160337
-0.0550274
-0.0250741
0.0099389
0.0166424
0.0270079
0.0150655
0.00429757
0.034252
-0.00329478
-0.157501
-0.353363
-0.451404
-0.376965
-0.27374
-0.144926
-0.0297669
0.0332035
0.0566675
0.0217192
-0.0346638
0.000826424
0.0173305
-0.00880691
-0.00654199
0.018022
0.017448
0.00824466
0.00243556
-0.0626373
-0.165109
-0.327086
-0.355555
-0.300188
-0.242948
-0.143625
-0.0787661
-0.0435557
-0.0235437
-0.000595496
0.0175469
0.0225547
0.0431051
0.0335923
-0.0135478
0.00841404
-0.0130316
-0.0254203
-0.073476
-0.0965851
-0.149132
-0.217866
-0.253042
-0.241057
-0.194471
-0.124965
-0.0612862
-0.0201621
0.0124283
0.0298685
0.0214282
0.0209259
0.0242393
0.0374057
0.030901
0.0272208
0.00918587
-0.00132132
-0.0882351
-0.11433
-0.150472
-0.204077
-0.225677
-0.215037
-0.183677
-0.12917
-0.0877762
-0.0504232
-0.0214342
-0.000506312
0.0160796
0.0178057
0.0383161
0.0398607
0.0238866
0.0281051
0.0218216
0.00850565
-0.111625
-0.124075
-0.146586
-0.175334
-0.191126
-0.185802
-0.159773
-0.120431
-0.0777447
-0.0430179
-0.0169755
0.0016722
0.0139181
0.0215927
0.0287291
0.0338892
0.0310734
0.0266889
0.0209616
0.0104968
-0.116024
-0.128302
-0.147496
-0.173309
-0.185704
-0.180086
-0.158053
-0.121521
-0.0861426
-0.0521094
-0.0258095
-0.00539416
0.010064
0.0180988
0.0298861
0.0326884
0.0288891
0.0247004
0.017382
0.00770375
0.035447
0.0223659
0.00770712
-0.00649365
-0.019653
-0.0229472
-0.0164139
-0.00958066
-0.0046767
-0.00154285
0.00126955
0.00634093
0.0107213
0.0155423
0.0245558
0.0305606
0.0319395
0.0272812
0.0184195
0.00800609
0.0439854
0.032405
0.0115687
-0.00745078
-0.0223895
-0.0241461
-0.0172663
-0.00571205
-0.00327001
-0.00123296
0.00197178
0.0122053
0.0195385
0.0274302
0.0335232
0.0373749
0.0373869
0.0320386
0.0226102
0.00992119
0.0464887
0.0226535
-0.00192369
-0.0227965
-0.041541
-0.0340048
-0.0196692
-0.0124128
-0.0105094
-0.0130072
-0.0123636
-0.00636455
-0.00513004
0.00233806
0.0117422
0.0339658
0.0376902
0.0300393
0.0247807
0.0138024
0.0901297
0.0696454
0.0152653
-0.0304285
-0.0626425
-0.0426387
-0.0227993
0.0115178
-0.0143985
-0.0182829
-0.0131699
0.00670303
0.0251613
0.0413249
0.0441249
0.0596299
0.0507453
0.0390482
0.0408395
0.0172295
0.0839596
0.0320201
-0.0291696
-0.101262
-0.113003
-0.0542844
-0.0377736
-0.0152616
-0.0265442
-0.0493217
-0.0460034
-0.0226504
-0.0421287
-0.0277291
-0.0131771
0.0346331
0.0299934
0.0306601
0.0343161
0.0111089
0.222926
0.16834
0.00787083
-0.161475
-0.265614
-0.110024
-0.06334
0.0763022
-0.106529
-0.1245
-0.0924957
-0.00938521
0.0209981
0.0309403
0.068578
0.0845905
0.0231923
0.0362527
0.0384309
0.014446
0.20908
0.0208615
-0.11547
-0.407831
-0.513745
-0.111069
-0.153702
0.0233848
-0.192687
-0.187438
-0.123107
-0.0546553
-0.118606
-0.145672
-0.0994983
-0.0643377
-0.0151215
0.0246455
0.0391925
0.014555
0.545448
0.427565
-0.00465748
-0.916065
-0.87726
-0.383653
-0.092573
0.195273
-0.547418
-0.437033
-0.253237
-0.191061
-0.174892
-0.173492
-0.0955618
-0.0548098
-0.0366751
-0.000555106
0.0356627
0.0116117
0.500101
0.70383
-0.155307
-0.376687
-0.112703
-0.769615
-0.534648
-0.342653
-0.188495
-0.0148797
0.0328579
0.00193419
0.00875066
0.00388226
-0.0180378
0.00106547
-0.0013404
1.16952
0.874542
2.07025
-0.357724
-0.411158
-0.786288
-0.587797
-0.421314
-0.289276
-0.0448107
-0.000158223
-0.0428785
-0.05879
0.0177082
0.0237685
-0.0139234
-0.0126609
0.876324
0.655411
-0.499818
-0.453186
-0.492988
-0.436104
-0.353224
-0.364193
-0.0239092
-0.0526564
-0.0586765
-0.0828613
-0.0603125
-0.0175594
-0.0408177
-0.044593
0.884285
0.607652
0.561905
-0.666529
-0.29274
0.17458
0.0881016
0.100538
-0.160042
-0.149168
-0.0852643
-0.0544936
-0.0784114
-0.00263231
-0.0231246
-0.0623348
-0.0364992
0.262795
0.259705
-0.437183
-0.772754
-0.573396
-0.259857
0.110576
0.180137
0.155153
-0.0380397
-0.238038
-0.12125
-0.0416853
-0.0454925
-0.00414611
0.0268493
-0.0124192
-0.0134847
0.240543
0.116749
-0.258938
-0.775824
-1.11064
-0.521134
-0.358883
-0.208313
-0.124213
-0.0640263
0.0116424
-0.0882569
-0.157968
-0.0628498
-0.0231287
0.0140203
0.0176963
0.0264279
0.0187519
0.00651946
0.0343117
-0.00312821
-0.161382
-0.378026
-0.447435
-0.355613
-0.269672
-0.1472
-0.0338526
0.0344038
0.0630944
0.0357716
-0.0321006
0.000758901
0.021871
-0.00441342
-0.00649046
0.0154801
0.0163919
0.00832987
0.0027083
-0.0627194
-0.164272
-0.326291
-0.353817
-0.301788
-0.243527
-0.143755
-0.0797992
-0.0425358
-0.0159369
0.000406554
0.0144097
0.0187867
0.0452121
0.0363958
-0.0139264
0.00621795
-0.0148935
-0.0266203
-0.073375
-0.0965404
-0.148361
-0.21768
-0.253771
-0.240851
-0.193154
-0.124955
-0.0610312
-0.0195113
0.012339
0.0306843
0.0230965
0.0218092
0.0242348
0.0394315
0.0324376
0.0286531
0.0135602
0.00100542
-0.0881528
-0.1143
-0.150362
-0.204077
-0.225687
-0.21535
-0.184079
-0.129284
-0.0876914
-0.0504696
-0.0220765
0.000720704
0.016185
0.0167796
0.0383738
0.0409066
0.0242023
0.0296111
0.0247208
0.011421
-0.111671
-0.124054
-0.146524
-0.175402
-0.191194
-0.185916
-0.159442
-0.120426
-0.0776957
-0.0429748
-0.0169669
0.00165231
0.014013
0.0216203
0.0289366
0.0343038
0.0309353
0.0268913
0.0215044
0.0117215
-0.116022
-0.128285
-0.14749
-0.173324
-0.185702
-0.180097
-0.158036
-0.121533
-0.0861424
-0.0521069
-0.0258307
-0.00538772
0.0100696
0.0180871
0.0297841
0.0327775
0.0289576
0.0247879
0.0176528
0.00814698
-0.577966
0.0393064
-1.25282
-0.0248684
-0.590976
-0.0368734
-1.18318
-0.93016
-0.820767
-0.954929
-0.462763
-0.890905
-0.469932
-0.30004
-0.223798
-0.330881
-0.452948
-0.286104
-0.241155
-0.334736
0.141652
0.558811
0.872272
0.657606
0.137055
0.511902
0.957899
0.790009
-0.0358624
0.601585
-0.282622
-0.32633
-0.291975
-0.326376
-0.338147
-0.438906
-0.105594
-0.412243
-0.370192
-0.429198
-0.151793
1.01812
0.790832
1.7101
1.13045
1.02614
0.727284
1.51733
1.43995
-0.333197
-0.33949
-0.244106
-0.391693
-0.383801
-0.350043
-0.276309
-0.40594
-0.407432
1.3236
0.905426
1.09084
0.686604
1.32775
0.7377
1.05375
1.09064
0.975407
-0.675753
-0.674215
-0.584638
-0.669055
-0.560807
-0.473976
-0.603445
-0.668673
-0.572399
0.874693
0.650843
0.591388
0.558192
0.830446
0.658869
0.597082
0.214134
0.598293
0.220443
-0.767836
-0.735142
-0.747823
-0.752709
-0.730839
-0.678983
-0.708279
-0.715894
-0.720914
-0.725995
-0.744043
-1.35427
-0.209229
-0.637113
-0.385198
-1.24906
-0.201879
-0.619994
-1.02783
-1.30268
-1.06581
-1.32784
-1.23236
-0.884162
-1.27908
-0.895619
-0.747526
-0.795226
-0.702582
-0.806744
-0.75264
-0.828133
-0.696715
-0.556296
-0.0820249
-1.15575
-0.0227168
-0.527033
-0.130143
-1.12414
-0.952179
-0.901864
-0.979112
-0.472762
-0.887749
-0.472251
-0.280258
-0.249023
-0.341779
-0.413987
-0.250966
-0.265903
-0.338396
0.178175
0.52956
1.10428
0.683392
0.194337
0.515692
1.15732
0.637898
-0.12141
0.676706
-0.296842
-0.326123
-0.303903
-0.323929
-0.341124
-0.390734
-0.175849
-0.393017
-0.338563
-0.370012
-0.172927
1.17631
0.636887
1.46403
0.941758
1.61354
0.681566
1.51093
2.09617
-0.342324
-0.34817
-0.302476
-0.411936
-0.405698
-0.356803
-0.323127
-0.424195
-0.405484
1.33218
0.660128
1.0196
0.670547
1.50626
0.664247
0.939606
0.930039
0.981597
-0.672232
-0.665485
-0.604198
-0.666227
-0.57892
-0.498287
-0.606569
-0.64594
-0.583529
0.779478
0.649463
0.504892
0.646595
0.686495
0.692733
0.368062
0.182118
0.587593
-0.0934626
-0.732979
-0.746033
-0.700112
-0.733966
-0.715301
-0.72584
-0.742582
-0.687915
-0.703583
-0.69393
-0.724707
-1.23403
-0.195349
-0.621073
-0.421948
-1.20441
-0.196503
-0.631435
-1.05679
-1.32838
-1.07276
-1.33041
-1.28358
-0.898501
-1.28596
-0.908718
-0.772443
-0.820082
-0.705031
-0.776953
-0.784716
-0.807208
-0.714765
-0.500242
-0.126003
-1.12281
0.0265203
-0.476458
-0.10382
-1.14579
-0.98142
-0.910911
-0.934737
-0.46825
-0.808905
-0.42339
-0.229638
-0.267104
-0.320276
-0.326474
-0.2118
-0.261681
-0.302921
0.207147
0.56967
1.15999
0.713351
0.260164
0.620616
1.11991
0.619632
-0.218028
0.585619
-0.301727
-0.323323
-0.294527
-0.321222
-0.314345
-0.345895
-0.163629
-0.363147
-0.290362
-0.333758
-0.146326
1.71414
0.765293
1.56733
0.95073
1.73534
0.87291
1.61913
1.93126
-0.348548
-0.346444
-0.335602
-0.426524
-0.40202
-0.359342
-0.337982
-0.428531
-0.401035
1.59983
0.738235
0.943764
0.824131
1.67401
0.883399
1.12618
1.04217
1.13454
-0.662482
-0.652602
-0.598171
-0.634778
-0.588444
-0.499961
-0.596314
-0.605433
-0.58904
0.607938
0.764461
0.313915
0.728159
0.671304
0.810545
0.451573
-0.166415
0.515971
-0.165039
-0.693814
-0.72956
-0.684422
-0.723404
-0.703131
-0.670243
-0.723763
-0.6567
-0.696136
-0.658335
-0.723281
-1.19786
-0.174371
-0.641016
-0.41674
-1.20301
-0.140128
-0.630674
-1.08142
-1.33309
-1.05872
-1.3247
-1.27886
-0.912349
-1.24796
-0.903862
-0.787635
-0.771858
-0.711723
-0.769012
-0.784827
-0.744535
-0.70551
-0.452266
-0.452756
-0.707335
-0.381548
-0.473133
-0.474817
-0.736439
-0.318117
-0.725395
-0.660774
-0.501398
-0.343673
-0.758935
-0.677589
-1.35349
-0.803308
-1.08468
-0.747586
-0.824842
-1.12545
-1.32715
-1.05926
-0.757208
-1.26702
-0.875893
-0.763418
-1.27176
-1.05853
-0.0546858
-0.15479
0.235705
-0.0279128
-0.190882
0.188864
-0.0480331
-0.242245
-0.24428
1.3805
-0.386469
-0.389043
-0.356528
-0.346529
-0.389216
-0.356762
-0.385057
-0.555284
-0.507468
-0.463358
-0.45418
-0.512047
-0.469896
-0.546574
0.416923
0.610796
0.397736
-1.98845
-1.55165
-1.55002
-2.00512
-0.861459
-0.809011
-0.767969
-0.810929
-0.807089
-0.765172
-0.860744
-1.02216
-0.583929
-0.70613
-0.851788
-1.02954
-0.589448
-0.716681
-0.921847
-0.724119
-0.628484
-1.11217
-0.911973
-0.735465
-0.646413
-0.483192
-0.449206
-0.733189
-0.375715
-0.477275
-0.425162
-0.730742
-0.365295
-0.778199
-0.695131
-0.514569
-0.366697
-0.78785
-0.713538
-1.45172
-0.900594
-1.18941
-0.865853
-1.43218
-0.930229
-1.18647
-1.0058
-0.771929
-1.26827
-0.896255
-1.02718
-0.771425
-1.26807
-0.0621541
-0.235528
0.142719
-0.0524696
-0.0482556
-0.245771
0.124441
-0.257255
-0.262442
1.80268
-0.396825
-0.390617
-0.360039
-0.353323
-0.396704
-0.388046
-0.360709
-0.594718
-0.529743
-0.517296
-0.490649
-0.591381
-0.529459
-0.527583
0.336572
0.606355
0.313965
-2.04683
-1.55413
-2.02073
-1.54924
-0.862976
-0.812315
-0.751191
-0.794047
-0.866404
-0.808865
-0.74914
-1.01875
-0.582133
-0.714247
-0.800214
-1.0199
-0.580793
-0.71341
-0.927846
-0.749383
-0.653413
-1.11042
-0.94364
-0.762248
-0.665539
-0.490508
-0.429352
-0.728764
-0.407555
-0.489825
-0.435621
-0.716793
-0.377024
-0.786244
-0.721113
-0.490083
-0.362279
-0.767127
-0.708601
-1.38427
-0.998165
-1.14769
-0.927335
-1.41839
-1.01163
-1.1333
-0.857917
-0.745479
-1.23644
-0.852278
-0.903349
-0.720914
-1.19827
-0.187221
-0.329364
0.045619
-0.19045
-0.147027
-0.348276
0.0273221
-0.263622
-0.257735
1.99163
-0.395225
-0.38544
-0.361605
-0.358738
-0.396325
-0.384698
-0.361932
-0.569963
-0.521892
-0.531394
-0.500391
-0.577178
-0.51953
-0.527738
0.299224
0.53285
0.329589
-2.05241
-1.52332
-2.06002
-1.52329
-0.833448
-0.801472
-0.746492
-0.770125
-0.84045
-0.80052
-0.746741
-1.02272
-0.595897
-0.709025
-0.7476
-1.01432
-0.584709
-0.701279
-0.9613
-0.770839
-0.671454
-1.11676
-0.950811
-0.77096
-0.641007
-0.568286
-0.857302
-0.579364
-1.23683
-0.870894
-0.628877
-0.556951
-0.571361
-1.20801
-0.902808
-0.693936
-0.88766
-0.662792
-0.580228
-1.22629
-0.891534
-1.32596
-0.947637
-0.902612
-1.3331
-1.21439
-1.38897
-1.14668
-1.17152
-1.34989
-1.37119
-0.777369
-0.874587
-1.18261
-0.842734
-1.15043
-1.40416
-1.24442
-0.939974
-0.921447
-1.34631
-0.906679
-1.33776
-1.2722
-1.47119
-1.26588
-1.21737
-1.56451
-0.668365
-0.526621
-0.390611
-0.465751
-0.535292
-0.389626
-0.669575
-0.652318
-0.327446
-0.329794
-0.651654
-1.05389
-0.884834
-0.771933
-1.26934
-0.769574
-1.27049
-1.0439
-0.665357
-0.46822
-0.555893
-0.389664
-0.546592
-0.389677
-0.659349
-0.655709
-0.333821
-0.332393
-0.656961
-0.133511
-0.0974429
-0.231084
-0.227708
-0.102623
-0.235032
-0.125304
-0.150301
-0.233681
-0.130063
-0.24975
-0.11419
-0.242854
-0.169432
-0.593092
-0.577713
0.595596
0.682812
0.502116
-0.062608
-0.0224827
-0.225426
0.163184
-0.208673
0.190206
-0.0681464
-0.588299
-0.573911
0.629103
0.45257
0.471889
-0.315053
-0.290301
-0.306588
-0.284849
-0.290086
-0.308121
-0.314238
-0.308979
-0.325961
-0.308659
-0.251842
-0.247491
-0.315954
-0.287675
-0.290078
-0.313033
-0.289568
-0.310158
-0.316739
-0.326331
-0.310373
-0.30948
0.853066
0.773199
1.16284
0.892213
0.67755
1.15596
0.884163
0.319733
1.13118
0.998982
1.679
1.06232
0.897017
0.440237
0.83268
0.933522
0.77653
1.19917
0.713611
1.17393
0.812181
0.290351
1.60356
0.998893
0.688023
1.01056
0.767882
0.358157
1.33503
-0.334178
-0.336759
-0.404509
-0.365594
-0.450688
-0.393934
-0.368148
-0.452741
-0.401096
-0.391263
-0.348656
-0.39055
-0.359173
-0.392801
-0.358077
-0.392556
-0.412274
-0.399701
-0.380067
-0.462868
-0.373953
-0.458546
-0.417633
1.00713
1.11055
1.59545
1.32185
1.09143
1.48721
1.0459
0.971003
1.26582
0.906666
1.08874
1.22885
0.8558
1.00574
0.978631
1.32696
1.0655
1.15098
1.08395
1.31406
0.922361
0.964184
1.09189
1.043
0.866688
1.14179
0.861031
0.950147
1.07457
1.03326
-0.675364
-0.675192
-0.658682
-0.574073
-0.744862
-0.669883
-0.579168
-0.744226
-0.648764
-0.570408
-0.46342
-0.527317
-0.502479
-0.521967
-0.48557
-0.581539
-0.671813
-0.670681
-0.59633
-0.747375
-0.588324
-0.756729
-0.67769
0.0187164
0.26857
-0.126229
0.217668
0.297181
-0.114866
0.0108861
-0.514952
-0.503505
0.589747
0.362885
0.363769
0.0537067
0.232151
0.351049
-0.0714833
0.325782
-0.0876031
0.073758
-0.415368
-0.470918
-0.741484
-0.764489
-0.738524
-0.772185
-0.773767
-0.736019
-0.739674
-0.7372
-0.744175
-0.744425
-0.74501
-0.725664
-0.755154
-0.722547
-0.729017
-0.781109
-0.778074
-0.751036
-0.742738
-0.743677
-0.766848
-0.742676
-0.756647
-0.761526
-0.728873
-0.819529
-0.989742
-1.34346
-0.86109
-1.00598
-0.728057
-0.709877
-1.28178
-0.871309
-1.03308
-0.856842
-1.0165
-0.713199
-1.49918
-1.19791
-1.19727
-1.07055
-1.23057
-1.22735
-1.4634
-1.6924
-1.81848
-1.3676
-1.32159
-1.83857
-1.37318
-1.67911
-1.98188
-1.55418
-1.5456
-1.99567
-1.49991
-1.07616
-1.18742
-1.22768
-1.20826
-1.22784
-1.49693
-1.70102
-1.32229
-1.86308
-1.34664
-1.85407
-1.35501
-1.70709
-1.25113
-0.977783
-0.984255
-1.22883
-1.51008
-1.74725
-1.14317
-1.25498
-1.76416
-1.16123
-1.50023
-1.13487
-0.944479
-1.01294
-0.896432
-0.943718
-1.02441
-1.1325
-1.2639
-1.00475
-0.995352
-1.28155
-1.52055
-1.26499
-1.79017
-1.17154
-1.7779
-1.16154
-1.52796
-1.14231
-0.891691
-0.949088
-1.00901
-0.94515
-1.00637
-1.15306
-0.864454
-0.806165
-0.809064
-0.753943
-0.812897
-0.757197
-0.866024
-0.61022
-0.921215
-0.72107
-1.14031
-0.58686
-0.943249
-0.747098
-0.626715
-1.13043
-0.991398
-0.783168
-0.965604
-0.768098
-0.643624
-1.34473
-0.927177
-1.35462
-0.964484
-1.30546
-0.953723
-1.36664
-1.73532
-1.30927
-1.65933
-1.33756
-1.45296
-0.886354
-0.977463
-1.16474
-0.959425
-1.17747
-1.44063
-1.37918
-0.974945
-0.995576
-1.37863
-0.976481
-1.37737
-1.3996
-1.77528
-1.36113
-1.35276
-1.78521
-0.637995
-0.570398
-0.387972
-0.472821
-0.651035
-0.580513
-0.384811
-0.655718
-0.333088
-0.659641
-0.329645
-0.979079
-0.894523
-0.758458
-1.25895
-0.766974
-1.26876
-0.945683
-0.621442
-0.475224
-0.591967
-0.374198
-0.590731
-0.37944
-0.600967
-0.650554
-0.313185
-0.322115
-0.642653
-0.212348
-0.149543
-0.258458
-0.256488
-0.19288
-0.170287
-0.26414
-0.231573
-0.262069
-0.213369
-0.267957
-0.192141
-0.268247
-0.244703
-0.617255
-0.657005
0.480487
0.663021
0.499391
-0.0527487
-0.0797867
-0.305545
0.0656838
-0.262585
0.106355
-0.0968919
-0.741232
-0.686172
0.688999
0.531938
0.53143
-0.317762
-0.290776
-0.316499
-0.301246
-0.317312
-0.291159
-0.319625
-0.311381
-0.325734
-0.312513
-0.266994
-0.266499
-0.317482
-0.302434
-0.284191
-0.323187
-0.288949
-0.318819
-0.316434
-0.325057
-0.31424
-0.313468
0.874767
0.889121
1.25492
1.32566
0.827639
0.970777
1.36256
0.379115
1.02513
0.635761
1.44453
0.347397
1.10218
0.638841
0.984064
1.45841
1.13782
1.69293
1.04791
1.49864
1.1267
0.471394
1.46326
1.38113
0.831731
1.22027
0.724563
0.614327
1.9306
-0.344803
-0.346849
-0.42528
-0.386046
-0.467167
-0.416935
-0.423275
-0.390775
-0.469136
-0.397758
-0.355274
-0.386746
-0.361345
-0.387747
-0.361027
-0.39721
-0.426112
-0.420994
-0.397047
-0.470241
-0.394447
-0.470142
-0.425665
0.704739
1.02199
1.08001
1.36318
0.820286
0.976088
1.09825
0.842909
0.988101
0.861867
0.988963
0.900155
0.974246
0.842594
0.614937
1.42315
0.94857
1.37039
0.929129
1.20434
0.629652
0.824238
0.947855
1.18195
0.791947
1.03485
0.799347
0.887161
0.90762
0.927072
-0.669966
-0.66798
-0.681357
-0.601794
-0.752382
-0.66121
-0.684095
-0.603793
-0.738559
-0.592041
-0.495422
-0.524724
-0.533669
-0.527394
-0.532806
-0.585037
-0.673268
-0.65591
-0.596754
-0.715284
-0.601766
-0.732738
-0.660686
0.0191748
0.349789
-0.0701713
0.104114
0.0579776
0.303572
-0.104258
-0.365059
-0.352043
0.595692
0.290586
0.294235
-0.068419
0.0139053
0.220903
-0.221577
0.263282
-0.156268
-0.13169
-0.466245
-0.394844
-0.712577
-0.721607
-0.706913
-0.785265
-0.785544
-0.773352
-0.738836
-0.773838
-0.746875
-0.768939
-0.734862
-0.777522
-0.709617
-0.696991
-0.700991
-0.780293
-0.784204
-0.776233
-0.740374
-0.728061
-0.776525
-0.73053
-0.778711
-0.777197
-0.761168
-0.89521
-1.0395
-1.22627
-0.730822
-0.936303
-1.03513
-0.776588
-1.22
-0.972728
-1.00614
-0.961524
-1.02078
-0.802626
-1.48677
-1.16635
-1.22799
-1.06063
-1.4909
-1.14884
-1.23009
-1.69842
-1.86351
-1.33499
-1.32949
-1.70566
-1.85928
-1.32523
-2.06325
-1.52635
-1.53939
-2.05345
-1.48547
-1.06441
-1.12622
-1.23742
-1.13172
-1.23192
-1.48898
-1.68559
-1.32888
-1.84769
-1.31137
-1.85172
-1.3136
-1.67643
-1.30955
-1.01269
-1.29657
-1.01748
-1.52902
-1.79716
-1.17541
-1.28878
-1.52965
-1.80045
-1.18142
-1.17405
-0.951952
-1.01181
-0.903362
-1.16341
-0.952308
-1.02243
-1.32208
-1.01796
-1.01843
-1.32806
-1.5255
-1.28876
-1.80032
-1.19104
-1.80103
-1.18835
-1.52372
-1.18258
-0.911337
-0.946223
-1.05183
-0.951294
-1.04111
-1.18793
-0.857244
-0.784622
-0.805238
-0.745959
-0.80744
-0.747509
-0.848666
-0.680181
-1.01529
-0.787991
-1.12323
-0.660402
-1.03152
-0.788563
-0.697882
-1.1408
-1.03639
-0.728071
-1.04009
-0.781853
-0.680202
-1.39571
-1.0267
-1.37007
-0.967009
-1.4061
-1.03794
-1.35064
-1.72075
-1.35942
-1.76504
-1.34669
-1.35639
-0.929086
-1.01601
-1.1011
-1.02072
-1.13363
-1.32646
-1.3704
-0.953548
-1.03964
-1.29581
-1.04625
-1.32069
-1.3458
-1.66521
-1.32063
-1.33393
-1.63927
-0.555093
-0.588111
-0.365193
-0.456792
-0.578718
-0.571925
-0.355042
-0.625741
-0.303797
-0.63434
-0.301709
-0.822012
-0.830609
-0.676033
-1.11452
-0.69851
-1.15002
-0.807621
-0.53771
-0.437909
-0.540942
-0.330288
-0.558166
-0.3379
-0.531245
-0.620292
-0.304738
-0.308444
-0.609878
-0.252573
-0.235514
-0.263629
-0.266303
-0.253697
-0.253558
-0.255903
-0.249679
-0.263795
-0.274024
-0.245547
-0.267856
-0.248292
-0.248113
-0.808829
-0.86088
0.525096
0.594435
0.532492
-0.2222
-0.226271
-0.311262
0.0238154
-0.36343
-0.0154133
-0.233561
-0.917311
-0.896356
0.550652
0.606232
0.525081
-0.311229
-0.276339
-0.321278
-0.299867
-0.313945
-0.26793
-0.323999
-0.315418
-0.321394
-0.314873
-0.247807
-0.251317
-0.307482
-0.296581
-0.256796
-0.323408
-0.260689
-0.323078
-0.305347
-0.323014
-0.316087
-0.317106
1.47029
1.25732
1.85053
1.77187
1.28324
1.44329
1.96251
0.831376
1.54223
0.892005
1.61482
0.731748
1.67896
0.922312
1.58961
1.74672
1.58305
2.02826
1.53896
2.01216
1.6376
0.934466
1.64025
1.77145
0.961107
1.76111
0.970289
0.961972
1.95708
-0.348355
-0.347056
-0.423939
-0.398781
-0.469886
-0.427898
-0.424924
-0.399846
-0.469208
-0.393865
-0.358762
-0.383695
-0.36309
-0.383824
-0.362676
-0.393127
-0.422899
-0.428369
-0.400682
-0.467376
-0.400436
-0.468354
-0.422064
0.779511
0.994201
1.53699
1.67692
0.702795
1.03839
1.65833
1.17254
1.35793
0.818071
0.973074
1.02468
1.47863
0.866596
0.897669
1.72492
1.24891
1.68675
1.17643
1.7132
0.988706
1.27139
1.04399
1.55717
1.02159
1.52224
0.930001
1.3461
1.08987
1.13595
-0.659238
-0.655417
-0.632234
-0.589998
-0.702116
-0.622508
-0.645716
-0.583543
-0.686719
-0.564448
-0.500278
-0.516908
-0.521915
-0.517924
-0.524134
-0.561296
-0.621766
-0.611803
-0.57562
-0.672652
-0.578494
-0.677475
-0.616345
-0.206722
0.193491
-0.288698
-0.160565
-0.187279
0.206528
-0.307068
-0.55481
-0.589643
0.498593
0.450978
0.387286
-0.189134
-0.173189
0.282851
-0.3095
0.245734
-0.313997
-0.137298
-0.516481
-0.554332
-0.695629
-0.68816
-0.693395
-0.775081
-0.772473
-0.776898
-0.727056
-0.773133
-0.726756
-0.777056
-0.7274
-0.769342
-0.686153
-0.692883
-0.693955
-0.770242
-0.770797
-0.776805
-0.724727
-0.727715
-0.763257
-0.727708
-0.765837
-0.776685
-0.817382
-0.97536
-0.989321
-1.19742
-0.815838
-0.941477
-0.965246
-0.818061
-1.20641
-0.760697
-0.980994
-0.87976
-0.969442
-0.782206
-1.50002
-1.12701
-1.2398
-1.10274
-1.48871
-1.15933
-1.24926
-1.68253
-1.84841
-1.31412
-1.33524
-1.67542
-1.85202
-1.32229
-2.0328
-1.49686
-1.52188
-1.99774
-1.51485
-1.10469
-1.15328
-1.24301
-1.19548
-1.26186
-1.49316
-1.69208
-1.34262
-1.83393
-1.3316
-1.85219
-1.34419
-1.68373
-1.334
-1.01142
-1.3345
-1.00399
-1.51765
-1.79981
-1.1978
-1.27065
-1.52159
-1.79865
-1.19965
-1.18347
-0.937485
-1.07442
-0.907848
-1.18866
-0.926239
-1.08591
-1.33407
-0.987735
-0.993601
-1.32726
-1.50843
-1.26257
-1.77457
-1.18108
-1.79668
-1.1957
-1.49379
-1.17447
-0.906842
-0.907065
-1.09346
-0.911993
-1.0977
-1.16871
-0.831379
-0.770027
-0.799013
-0.746859
-0.798164
-0.747977
-0.829827
)
;

boundaryField
{
    inlet
    {
        type            zeroGradient;
    }
    outlet
    {
        type            fixedValue;
        value           uniform 0;
    }
    up
    {
        type            zeroGradient;
    }
    down
    {
        type            zeroGradient;
    }
    frontAndBack
    {
        type            zeroGradient;
    }
    cylinder
    {
        type            zeroGradient;
    }
}


// ************************************************************************* //
