/*--------------------------------*- C++ -*----------------------------------*\
  =========                 |
  \\      /  F ield         | OpenFOAM: The Open Source CFD Toolbox
   \\    /   O peration     | Website:  https://openfoam.org
    \\  /    A nd           | Version:  8
     \\/     M anipulation  |
\*---------------------------------------------------------------------------*/
FoamFile
{
    version     2.0;
    format      ascii;
    class       volVectorField;
    location    "0.53";
    object      U;
}
// * * * * * * * * * * * * * * * * * * * * * * * * * * * * * * * * * * * * * //

dimensions      [0 1 -1 0 0 0 0];

internalField   nonuniform List<vector> 
400
(
(0.024644 6.44751e-08 0)
(0.0246438 1.13259e-07 0)
(0.0246436 1.25881e-07 0)
(0.0246434 1.1134e-07 0)
(0.0246432 9.07966e-08 0)
(0.024643 7.05696e-08 0)
(0.0246429 5.23219e-08 0)
(0.0246428 3.67681e-08 0)
(0.0246427 2.17983e-08 0)
(0.0246427 4.89948e-09 0)
(0.0246427 -1.28542e-08 0)
(0.0246427 -2.88644e-08 0)
(0.0246427 -4.28945e-08 0)
(0.0246429 -5.69877e-08 0)
(0.024643 -7.23985e-08 0)
(0.0246432 -8.75291e-08 0)
(0.0246434 -9.84456e-08 0)
(0.0246436 -9.82099e-08 0)
(0.0246438 -7.12722e-08 0)
(0.024644 -1.15007e-08 0)
(0.0739396 1.00567e-07 0)
(0.0739395 2.88712e-07 0)
(0.0739393 3.72651e-07 0)
(0.0739389 3.73305e-07 0)
(0.0739386 3.36997e-07 0)
(0.0739383 2.87069e-07 0)
(0.0739381 2.32149e-07 0)
(0.0739379 1.74987e-07 0)
(0.0739377 1.15279e-07 0)
(0.0739376 5.2039e-08 0)
(0.0739375 -1.32389e-08 0)
(0.0739375 -7.83944e-08 0)
(0.0739376 -1.43861e-07 0)
(0.0739377 -2.11669e-07 0)
(0.073938 -2.8127e-07 0)
(0.0739382 -3.46583e-07 0)
(0.0739386 -3.96264e-07 0)
(0.0739389 -4.02993e-07 0)
(0.0739393 -3.23809e-07 0)
(0.0739395 -1.38767e-07 0)
(0.123261 6.59304e-08 0)
(0.123261 4.17274e-07 0)
(0.123261 6.0875e-07 0)
(0.12326 6.65368e-07 0)
(0.12326 6.42704e-07 0)
(0.12326 5.77257e-07 0)
(0.12326 4.8854e-07 0)
(0.123259 3.8703e-07 0)
(0.123259 2.76254e-07 0)
(0.123259 1.57559e-07 0)
(0.123259 3.31978e-08 0)
(0.123259 -9.52675e-08 0)
(0.123259 -2.28523e-07 0)
(0.123259 -3.67258e-07 0)
(0.123259 -5.07688e-07 0)
(0.123259 -6.37988e-07 0)
(0.12326 -7.36604e-07 0)
(0.12326 -7.59493e-07 0)
(0.12326 -6.38476e-07 0)
(0.123261 -3.35007e-07 0)
(0.172624 -3.96697e-08 0)
(0.172625 4.15819e-07 0)
(0.172625 7.11619e-07 0)
(0.172624 8.38823e-07 0)
(0.172624 8.54513e-07 0)
(0.172624 8.01493e-07 0)
(0.172624 7.04333e-07 0)
(0.172624 5.7856e-07 0)
(0.172624 4.34369e-07 0)
(0.172624 2.77341e-07 0)
(0.172623 1.09922e-07 0)
(0.172623 -6.73058e-08 0)
(0.172623 -2.54498e-07 0)
(0.172623 -4.50049e-07 0)
(0.172623 -6.46968e-07 0)
(0.172624 -8.30414e-07 0)
(0.172624 -9.70942e-07 0)
(0.172624 -1.01687e-06 0)
(0.172624 -8.86456e-07 0)
(0.172624 -5.35357e-07 0)
(0.222047 -1.70077e-07 0)
(0.222047 3.37042e-07 0)
(0.222047 6.94352e-07 0)
(0.222047 8.82545e-07 0)
(0.222047 9.4397e-07 0)
(0.222047 9.17832e-07 0)
(0.222047 8.31319e-07 0)
(0.222047 7.04582e-07 0)
(0.222047 5.50745e-07 0)
(0.222047 3.76889e-07 0)
(0.222047 1.86822e-07 0)
(0.222046 -1.74654e-08 0)
(0.222046 -2.34958e-07 0)
(0.222046 -4.62896e-07 0)
(0.222046 -6.92615e-07 0)
(0.222046 -9.07895e-07 0)
(0.222046 -1.07746e-06 0)
(0.222046 -1.14615e-06 0)
(0.222047 -1.0328e-06 0)
(0.222047 -6.85147e-07 0)
(0.271542 -2.7962e-07 0)
(0.271542 2.16342e-07 0)
(0.271542 5.92931e-07 0)
(0.271542 8.15551e-07 0)
(0.271542 9.12939e-07 0)
(0.271542 9.18328e-07 0)
(0.271542 8.56457e-07 0)
(0.271542 7.47047e-07 0)
(0.271542 6.0398e-07 0)
(0.271542 4.35757e-07 0)
(0.271542 2.47632e-07 0)
(0.271542 4.25491e-08 0)
(0.271542 -1.77946e-07 0)
(0.271542 -4.10723e-07 0)
(0.271542 -6.47094e-07 0)
(0.271542 -8.7025e-07 0)
(0.271542 -1.05124e-06 0)
(0.271542 -1.13905e-06 0)
(0.271542 -1.05955e-06 0)
(0.271542 -7.56899e-07 0)
(0.321122 -3.51235e-07 0)
(0.321122 8.28098e-08 0)
(0.321122 4.34068e-07 0)
(0.321123 6.6083e-07 0)
(0.321123 7.78858e-07 0)
(0.321123 8.12256e-07 0)
(0.321123 7.80429e-07 0)
(0.321123 7.00305e-07 0)
(0.321123 5.84757e-07 0)
(0.321123 4.42394e-07 0)
(0.321123 2.78954e-07 0)
(0.321123 9.77154e-08 0)
(0.321123 -9.95868e-08 0)
(0.321123 -3.09911e-07 0)
(0.321123 -5.26269e-07 0)
(0.321123 -7.34552e-07 0)
(0.321123 -9.09742e-07 0)
(0.321122 -1.00989e-06 0)
(0.321122 -9.7324e-07 0)
(0.321122 -7.45151e-07 0)
(0.370798 -3.75832e-07 0)
(0.370798 -4.358e-08 0)
(0.370798 2.43982e-07 0)
(0.370799 4.46191e-07 0)
(0.370799 5.66547e-07 0)
(0.370799 6.19501e-07 0)
(0.370799 6.17821e-07 0)
(0.370799 5.7393e-07 0)
(0.3708 4.9796e-07 0)
(0.3708 3.97165e-07 0)
(0.3708 2.76695e-07 0)
(0.3708 1.39517e-07 0)
(0.3708 -1.2884e-08 0)
(0.3708 -1.78079e-07 0)
(0.370799 -3.51321e-07 0)
(0.370799 -5.23398e-07 0)
(0.370799 -6.76401e-07 0)
(0.370799 -7.80257e-07 0)
(0.370798 -7.89242e-07 0)
(0.370798 -6.53362e-07 0)
(0.420578 -3.51685e-07 0)
(0.420578 -1.49294e-07 0)
(0.420578 4.58226e-08 0)
(0.420578 1.98798e-07 0)
(0.420578 3.03401e-07 0)
(0.420579 3.65238e-07 0)
(0.420579 3.90038e-07 0)
(0.420579 3.84615e-07 0)
(0.420579 3.55046e-07 0)
(0.42058 3.06005e-07 0)
(0.42058 2.41091e-07 0)
(0.42058 1.62376e-07 0)
(0.42058 7.07788e-08 0)
(0.420579 -3.24353e-08 0)
(0.420579 -1.45403e-07 0)
(0.420579 -2.64478e-07 0)
(0.420579 -3.80583e-07 0)
(0.420578 -4.77583e-07 0)
(0.420578 -5.28812e-07 0)
(0.420578 -4.92587e-07 0)
(0.470466 -2.82252e-07 0)
(0.470466 -2.25454e-07 0)
(0.470466 -1.41637e-07 0)
(0.470467 -5.70773e-08 0)
(0.470467 1.60032e-08 0)
(0.470467 7.54969e-08 0)
(0.470467 1.20298e-07 0)
(0.470468 1.51232e-07 0)
(0.470468 1.69639e-07 0)
(0.470468 1.7685e-07 0)
(0.470468 1.74162e-07 0)
(0.470468 1.6217e-07 0)
(0.470468 1.40918e-07 0)
(0.470468 1.10348e-07 0)
(0.470468 6.91636e-08 0)
(0.470468 1.51296e-08 0)
(0.470467 -5.22333e-08 0)
(0.470467 -1.31694e-07 0)
(0.470467 -2.17039e-07 0)
(0.470466 -2.78957e-07 0)
(0.520467 -1.75325e-07 0)
(0.520467 -2.67789e-07 0)
(0.520467 -3.04158e-07 0)
(0.520467 -2.99668e-07 0)
(0.520467 -2.692e-07 0)
(0.520467 -2.21539e-07 0)
(0.520468 -1.64066e-07 0)
(0.520468 -1.01815e-07 0)
(0.520468 -3.8301e-08 0)
(0.520468 2.4181e-08 0)
(0.520468 8.42585e-08 0)
(0.520469 1.4066e-07 0)
(0.520469 1.92243e-07 0)
(0.520468 2.37578e-07 0)
(0.520468 2.72457e-07 0)
(0.520468 2.89173e-07 0)
(0.520468 2.78094e-07 0)
(0.520467 2.25833e-07 0)
(0.520467 1.18087e-07 0)
(0.520467 -3.18522e-08 0)
(0.570579 -4.41064e-08 0)
(0.570579 -2.77932e-07 0)
(0.570579 -4.32643e-07 0)
(0.570579 -5.10634e-07 0)
(0.570579 -5.27399e-07 0)
(0.570579 -4.97491e-07 0)
(0.570579 -4.33847e-07 0)
(0.57058 -3.46907e-07 0)
(0.57058 -2.44744e-07 0)
(0.57058 -1.33151e-07 0)
(0.57058 -1.61391e-08 0)
(0.57058 1.03137e-07 0)
(0.57058 2.22326e-07 0)
(0.57058 3.38832e-07 0)
(0.57058 4.46264e-07 0)
(0.57058 5.32606e-07 0)
(0.57058 5.8044e-07 0)
(0.570579 5.63059e-07 0)
(0.570579 4.46489e-07 0)
(0.570579 2.25445e-07 0)
(0.620799 9.32437e-08 0)
(0.620799 -2.63286e-07 0)
(0.6208 -5.23367e-07 0)
(0.6208 -6.76529e-07 0)
(0.6208 -7.38164e-07 0)
(0.6208 -7.2768e-07 0)
(0.6208 -6.62692e-07 0)
(0.6208 -5.58306e-07 0)
(0.620801 -4.26514e-07 0)
(0.620801 -2.76107e-07 0)
(0.620801 -1.13386e-07 0)
(0.620801 5.69136e-08 0)
(0.620801 2.31516e-07 0)
(0.620801 4.07159e-07 0)
(0.620801 5.76335e-07 0)
(0.620801 7.244e-07 0)
(0.6208 8.2822e-07 0)
(0.6208 8.49823e-07 0)
(0.6208 7.37474e-07 0)
(0.6208 4.66042e-07 0)
(0.671124 2.16189e-07 0)
(0.671124 -2.34471e-07 0)
(0.671124 -5.76422e-07 0)
(0.671124 -7.88146e-07 0)
(0.671124 -8.85531e-07 0)
(0.671124 -8.91847e-07 0)
(0.671124 -8.28264e-07 0)
(0.671124 -7.1346e-07 0)
(0.671125 -5.62484e-07 0)
(0.671125 -3.8638e-07 0)
(0.671125 -1.93145e-07 0)
(0.671125 1.14041e-08 0)
(0.671125 2.23574e-07 0)
(0.671125 4.4014e-07 0)
(0.671125 6.53717e-07 0)
(0.671125 8.48954e-07 0)
(0.671125 9.99511e-07 0)
(0.671124 1.05902e-06 0)
(0.671124 9.61401e-07 0)
(0.671124 6.61916e-07 0)
(0.721544 3.04631e-07 0)
(0.721544 -2.02072e-07 0)
(0.721544 -5.93422e-07 0)
(0.721544 -8.38532e-07 0)
(0.721544 -9.56132e-07 0)
(0.721544 -9.72682e-07 0)
(0.721544 -9.11626e-07 0)
(0.721544 -7.93491e-07 0)
(0.721544 -6.35072e-07 0)
(0.721544 -4.48715e-07 0)
(0.721544 -2.43331e-07 0)
(0.721544 -2.51185e-08 0)
(0.721544 2.02479e-07 0)
(0.721544 4.37055e-07 0)
(0.721544 6.72461e-07 0)
(0.721544 8.94407e-07 0)
(0.721544 1.07607e-06 0)
(0.721544 1.16689e-06 0)
(0.721544 1.09125e-06 0)
(0.721544 7.86791e-07 0)
(0.772049 3.42698e-07 0)
(0.772049 -1.7199e-07 0)
(0.772049 -5.73273e-07 0)
(0.772049 -8.20803e-07 0)
(0.772048 -9.38811e-07 0)
(0.772048 -9.56419e-07 0)
(0.772048 -8.98079e-07 0)
(0.772048 -7.84395e-07 0)
(0.772048 -6.31951e-07 0)
(0.772048 -4.52926e-07 0)
(0.772048 -2.56002e-07 0)
(0.772048 -4.69076e-08 0)
(0.772048 1.7176e-07 0)
(0.772048 3.98855e-07 0)
(0.772048 6.30041e-07 0)
(0.772048 8.53433e-07 0)
(0.772048 1.0448e-06 0)
(0.772049 1.15556e-06 0)
(0.772049 1.10552e-06 0)
(0.772049 8.20384e-07 0)
(0.822626 3.20552e-07 0)
(0.822626 -1.44931e-07 0)
(0.822626 -5.08935e-07 0)
(0.822626 -7.25333e-07 0)
(0.822626 -8.23381e-07 0)
(0.822626 -8.33825e-07 0)
(0.822625 -7.7968e-07 0)
(0.822625 -6.79707e-07 0)
(0.822625 -5.48182e-07 0)
(0.822625 -3.9514e-07 0)
(0.822625 -2.27474e-07 0)
(0.822625 -4.97249e-08 0)
(0.822625 1.36046e-07 0)
(0.822625 3.29278e-07 0)
(0.822625 5.27835e-07 0)
(0.822625 7.24537e-07 0)
(0.822625 9.01264e-07 0)
(0.822626 1.01635e-06 0)
(0.822626 9.89639e-07 0)
(0.822626 7.52279e-07 0)
(0.873262 2.42423e-07 0)
(0.873262 -1.2035e-07 0)
(0.873262 -3.95678e-07 0)
(0.873262 -5.49359e-07 0)
(0.873261 -6.1134e-07 0)
(0.873261 -6.10652e-07 0)
(0.873261 -5.65928e-07 0)
(0.873261 -4.91067e-07 0)
(0.873261 -3.95173e-07 0)
(0.87326 -2.83954e-07 0)
(0.87326 -1.62318e-07 0)
(0.87326 -3.49573e-08 0)
(0.87326 9.62788e-08 0)
(0.87326 2.33102e-07 0)
(0.87326 3.75834e-07 0)
(0.873261 5.1953e-07 0)
(0.873261 6.54393e-07 0)
(0.873261 7.54285e-07 0)
(0.873262 7.50368e-07 0)
(0.873262 5.78668e-07 0)
(0.92394 1.32939e-07 0)
(0.92394 -7.98262e-08 0)
(0.92394 -2.26294e-07 0)
(0.92394 -3.00976e-07 0)
(0.92394 -3.23823e-07 0)
(0.923939 -3.16232e-07 0)
(0.923939 -2.89129e-07 0)
(0.923939 -2.49667e-07 0)
(0.923939 -2.00881e-07 0)
(0.923938 -1.43618e-07 0)
(0.923938 -8.01639e-08 0)
(0.923938 -1.47233e-08 0)
(0.923938 5.07464e-08 0)
(0.923938 1.1829e-07 0)
(0.923939 1.89532e-07 0)
(0.923939 2.63665e-07 0)
(0.923939 3.38512e-07 0)
(0.923939 3.99229e-07 0)
(0.92394 4.11834e-07 0)
(0.92394 3.17225e-07 0)
(0.974644 2.88514e-08 0)
(0.974644 -3.26395e-08 0)
(0.974644 -6.93247e-08 0)
(0.974644 -8.3984e-08 0)
(0.974644 -8.46639e-08 0)
(0.974644 -7.90953e-08 0)
(0.974643 -7.06957e-08 0)
(0.974643 -6.09392e-08 0)
(0.974643 -4.90556e-08 0)
(0.974643 -3.38733e-08 0)
(0.974643 -1.65962e-08 0)
(0.974643 -3.76988e-10 0)
(0.974643 1.39818e-08 0)
(0.974643 2.93274e-08 0)
(0.974643 4.70415e-08 0)
(0.974643 6.56011e-08 0)
(0.974643 8.58394e-08 0)
(0.974644 1.05733e-07 0)
(0.974644 1.13722e-07 0)
(0.974644 8.82731e-08 0)
)
;

boundaryField
{
    movingWall
    {
        type            fixedValue;
        value           uniform (1 0 0);
    }
    fixedWalls
    {
        type            noSlip;
    }
    left
    {
        type            cyclic;
    }
    right
    {
        type            cyclic;
    }
    frontAndBack
    {
        type            empty;
    }
}


// ************************************************************************* //
