/*--------------------------------*- C++ -*----------------------------------*\
  =========                 |
  \\      /  F ield         | OpenFOAM: The Open Source CFD Toolbox
   \\    /   O peration     | Website:  https://openfoam.org
    \\  /    A nd           | Version:  8
     \\/     M anipulation  |
\*---------------------------------------------------------------------------*/
FoamFile
{
    version     2.0;
    format      ascii;
    class       surfaceScalarField;
    location    "14";
    object      phi;
}
// * * * * * * * * * * * * * * * * * * * * * * * * * * * * * * * * * * * * * //

dimensions      [0 3 -1 0 0 0 0];

internalField   nonuniform List<scalar> 
880
(
-7.15321e-06
7.15319e-06
-1.43303e-05
7.17713e-06
-2.11504e-05
6.82011e-06
-2.74487e-05
6.29826e-06
-3.30812e-05
5.63252e-06
-3.79274e-05
4.84619e-06
-4.18978e-05
3.97033e-06
-4.49186e-05
3.02086e-06
-4.70229e-05
2.10429e-06
-4.80601e-05
1.03725e-06
-4.86619e-05
6.0177e-07
-7.1084e-07
-4.79511e-05
-7.53149e-06
1.46847e-05
-1.50833e-05
1.47289e-05
-2.22547e-05
1.39916e-05
-2.88714e-05
1.29149e-05
-3.47828e-05
1.1544e-05
-3.98688e-05
9.93209e-06
-4.40427e-05
8.1443e-06
-4.72388e-05
6.21698e-06
-4.94899e-05
4.35537e-06
-5.06937e-05
2.24099e-06
-5.14526e-05
1.36065e-06
-1.39463e-06
-5.07688e-05
-7.90032e-06
2.2585e-05
-1.5816e-05
2.26446e-05
-2.33215e-05
2.14971e-05
-3.0229e-05
1.98224e-05
-3.63751e-05
1.76901e-05
-4.16178e-05
1.51748e-05
-4.58362e-05
1.23628e-05
-4.89428e-05
9.32357e-06
-5.0813e-05
6.22552e-06
-5.15058e-05
2.93385e-06
-5.05475e-05
4.023e-07
-3.42017e-06
-4.85219e-05
-8.47055e-06
3.10556e-05
-1.69481e-05
3.11222e-05
-2.49707e-05
2.95196e-05
-3.23329e-05
2.71846e-05
-3.88636e-05
2.42208e-05
-4.44216e-05
2.07327e-05
-4.88984e-05
1.68396e-05
-5.22222e-05
1.26473e-05
-5.42818e-05
8.28514e-06
-5.50756e-05
3.72764e-06
-5.41237e-05
-5.49645e-07
-5.413e-06
-5.21308e-05
-9.26791e-06
4.03235e-05
-1.85282e-05
4.03825e-05
-2.72672e-05
3.82586e-05
-3.52527e-05
3.51702e-05
-4.23014e-05
3.12695e-05
-4.82609e-05
2.66922e-05
-5.30109e-05
2.15896e-05
-5.64524e-05
1.60888e-05
-5.85043e-05
1.03371e-05
-5.91617e-05
4.38502e-06
-5.82545e-05
-1.45686e-06
-7.69809e-06
-5.59694e-05
-1.03271e-05
5.06505e-05
-2.06209e-05
5.06763e-05
-3.03013e-05
4.79391e-05
-3.90984e-05
4.39672e-05
-4.68228e-05
3.8994e-05
-5.33188e-05
3.31881e-05
-5.84817e-05
2.67525e-05
-6.22373e-05
1.98444e-05
-6.45246e-05
1.26244e-05
-6.53016e-05
5.16197e-06
-6.43962e-05
-2.36227e-06
-1.00395e-05
-6.20548e-05
-1.16966e-05
6.23471e-05
-2.33141e-05
6.22938e-05
-3.4191e-05
5.8816e-05
-4.39977e-05
5.3774e-05
-5.25504e-05
4.75467e-05
-5.96876e-05
4.03253e-05
-6.53249e-05
3.23898e-05
-6.94032e-05
2.39228e-05
-7.18772e-05
1.50983e-05
-7.2742e-05
6.02681e-06
-7.19547e-05
-3.14964e-06
-1.24656e-05
-6.95285e-05
-1.34558e-05
7.58029e-05
-2.67408e-05
7.55788e-05
-3.9111e-05
7.11862e-05
-5.01355e-05
6.47985e-05
-5.96702e-05
5.70813e-05
-6.75482e-05
4.82034e-05
-7.37304e-05
3.8572e-05
-7.81913e-05
2.83837e-05
-8.0927e-05
1.7834e-05
-8.19378e-05
7.03758e-06
-8.11875e-05
-3.8999e-06
-1.49432e-05
-7.871e-05
-1.56915e-05
9.14944e-05
-3.10549e-05
9.09422e-05
-4.52717e-05
8.5403e-05
-5.77343e-05
7.72611e-05
-6.84009e-05
6.7748e-05
-7.70897e-05
5.68922e-05
-8.38462e-05
4.53285e-05
-8.86947e-05
3.32322e-05
-9.16851e-05
2.08244e-05
-9.28516e-05
8.20414e-06
-9.21888e-05
-4.56269e-06
-1.74579e-05
-8.96741e-05
-1.86939e-05
0.000110188
-3.66159e-05
0.000108864
-5.31137e-05
0.000101901
-6.71789e-05
9.13263e-05
-7.90751e-05
7.96441e-05
-8.85683e-05
6.63854e-05
-9.58687e-05
5.26288e-05
-0.000101066
3.84294e-05
-0.000104287
2.40455e-05
-0.000105609
9.52641e-06
-0.000105049
-5.12293e-06
-1.99429e-05
-0.000102564
-2.21938e-05
0.000132382
-4.32454e-05
0.000129916
-6.25433e-05
0.000121199
-7.85259e-05
0.000107309
-9.18723e-05
9.29905e-05
-0.000102192
7.67052e-05
-0.000109976
6.0413e-05
-0.00011543
4.38826e-05
-0.000118811
2.74271e-05
-0.000120269
1.0984e-05
-0.000119863
-5.52882e-06
-2.22988e-05
-0.000117507
-2.83923e-05
0.000160774
-5.33963e-05
0.00015492
-7.63139e-05
0.000144116
-9.36471e-05
0.000124642
-0.000108093
0.000107437
-0.000118632
8.72445e-05
-0.000126487
6.82673e-05
-0.000131908
4.93044e-05
-0.000135305
3.08241e-05
-0.000136894
1.25724e-05
-0.000136693
-5.73009e-06
-2.42781e-05
-0.000134713
-3.35357e-05
0.00019431
-6.31859e-05
0.00018457
-9.00559e-05
0.000170986
-0.000109746
0.000144332
-0.000125867
0.000123558
-0.000136974
9.83509e-05
-0.00014503
7.63239e-05
-0.000150342
5.46163e-05
-0.000153597
3.40789e-05
-0.000155113
1.4088e-05
-0.0001552
-5.64239e-06
-2.59029e-05
-0.000153576
-4.96209e-05
0.000243931
-8.50585e-05
0.000220008
-0.000117338
0.000203266
-0.000136487
0.000163481
-0.000151936
0.000139007
-0.000160971
0.000107386
-0.000167465
8.28181e-05
-0.00017145
5.86008e-05
-0.000174034
3.66632e-05
-0.000175654
1.57081e-05
-0.000176201
-5.09548e-06
-2.61874e-05
-0.000175916
-5.59905e-05
0.000299921
-9.89431e-05
0.00026296
-0.000136571
0.000240894
-0.000158414
0.000185324
-0.000175164
0.000155757
-0.000183939
0.000116161
-0.000189802
8.86815e-05
-0.000192861
6.16593e-05
-0.000194635
3.84376e-05
-0.000195588
1.66608e-05
-0.000196483
-4.20006e-06
-2.59805e-05
-0.00019669
-0.000108457
0.000408378
-0.000153716
0.000308219
-0.000194811
0.000281989
-0.000208304
0.000198817
-0.00021716
0.000164613
-0.000218885
0.000117886
-0.000218942
8.87383e-05
-0.000218136
6.08537e-05
-0.000217997
3.82978e-05
-0.000218881
1.7545e-05
-0.000220693
-2.38751e-06
-2.25992e-05
-0.000224075
-0.000108894
0.000517272
-0.000172116
0.000371441
-0.000221611
0.000331484
-0.000237764
0.00021497
-0.000246146
0.000172996
-0.000245415
0.000117155
-0.000242928
8.62513e-05
-0.000239678
5.76034e-05
-0.000237348
3.59681e-05
-0.000236683
1.68801e-05
-0.000238542
-5.29049e-07
-1.90678e-05
-0.000242073
-0.000310582
0.000827854
-0.000327401
0.00038826
-0.000341705
0.000345789
-0.0003275
0.000200764
-0.000305773
0.000151269
-0.000290294
0.000101675
-0.000274734
7.06917e-05
-0.000265033
4.7902e-05
-0.000259222
3.01568e-05
-0.000258024
1.56823e-05
-0.000261214
2.66114e-06
-1.02176e-05
-0.000270064
-0.00041625
0.0012441
-0.000410619
0.000382629
-0.000410476
0.000345646
-0.000365546
0.000155834
-0.000326123
0.000111847
-0.000293942
6.94939e-05
-0.000267599
4.43492e-05
-0.000249971
3.0274e-05
-0.000238233
1.84188e-05
-0.000232531
9.97948e-06
-0.000232428
2.55837e-06
-4.85154e-06
-0.000237794
0.0012441
0.00162673
0.00197238
0.00212821
0.00224006
0.00230955
0.0023539
0.00238418
0.0024026
0.00241257
0.00241513
0.00241028
-3.68753e-05
1.3483e-05
-2.45588e-05
-2.83052e-05
5.15916e-06
-1.37292e-05
-2.29476e-05
-1.71138e-06
-3.64625e-06
-1.80751e-05
-7.05248e-06
2.17996e-06
-1.3535e-05
-1.11294e-05
6.58928e-06
-8.99932e-06
-1.41119e-05
9.57629e-06
-4.44928e-06
-1.60527e-05
1.15027e-05
-1.65353e-05
1.20861e-05
-3.97332e-05
2.4475e-06
-3.11709e-05
-3.40319e-06
-2.5474e-05
-7.40827e-06
-2.02429e-05
-1.22835e-05
-1.53006e-05
-1.60717e-05
-1.02656e-05
-1.9147e-05
-5.10457e-06
-2.12138e-05
-2.16399e-05
-4.275e-05
-3.32443e-06
-3.71867e-05
-8.96653e-06
-3.12415e-05
-1.33534e-05
-2.52748e-05
-1.82503e-05
-1.90966e-05
-2.22499e-05
-1.27721e-05
-2.54714e-05
-6.3233e-06
-2.76626e-05
-2.79632e-05
-4.65669e-05
-8.88841e-06
-4.10156e-05
-1.45178e-05
-3.48692e-05
-1.94998e-05
-2.85162e-05
-2.46033e-05
-2.17699e-05
-2.89961e-05
-1.46859e-05
-3.25555e-05
-7.32339e-06
-3.50251e-05
-3.52866e-05
-5.16866e-05
-1.31712e-05
-4.64931e-05
-1.97113e-05
-4.02124e-05
-2.57805e-05
-3.31758e-05
-3.164e-05
-2.54622e-05
-3.67097e-05
-1.72193e-05
-4.07984e-05
-8.59247e-06
-4.36519e-05
-4.38791e-05
-5.77723e-05
-1.74537e-05
-5.23529e-05
-2.51306e-05
-4.56968e-05
-3.24366e-05
-3.80215e-05
-3.93153e-05
-2.94045e-05
-4.53267e-05
-1.99821e-05
-5.02207e-05
-1.00038e-05
-5.36303e-05
-5.38828e-05
-6.53538e-05
-2.16285e-05
-5.96694e-05
-3.0815e-05
-5.24989e-05
-3.96071e-05
-4.39604e-05
-4.78537e-05
-3.419e-05
-5.50971e-05
-2.33321e-05
-6.10787e-05
-1.17208e-05
-6.52416e-05
-6.56036e-05
-7.44073e-05
-2.59311e-05
-6.8371e-05
-3.68513e-05
-6.05816e-05
-4.73964e-05
-5.10715e-05
-5.73639e-05
-3.99901e-05
-6.61785e-05
-2.74183e-05
-7.36505e-05
-1.3845e-05
-7.88149e-05
-7.94486e-05
-8.52301e-05
-3.03751e-05
-7.88138e-05
-4.32676e-05
-7.03546e-05
-5.58556e-05
-5.97411e-05
-6.79775e-05
-4.71491e-05
-7.87705e-05
-3.24901e-05
-8.83095e-05
-1.65226e-05
-9.47824e-05
-9.59712e-05
-9.80367e-05
-3.49024e-05
-9.13108e-05
-4.99935e-05
-8.22408e-05
-6.49257e-05
-7.04597e-05
-7.97586e-05
-5.62549e-05
-9.29752e-05
-3.90177e-05
-0.000105547
-2.01159e-05
-0.000113684
-0.000116087
-0.000113012
-3.93977e-05
-0.000106056
-5.69495e-05
-9.64045e-05
-7.45767e-05
-8.32466e-05
-9.29164e-05
-6.72742e-05
-0.000108948
-4.68692e-05
-0.000125952
-2.45305e-05
-0.000136023
-0.000140618
-0.000130696
-4.34148e-05
-0.000124121
-6.35248e-05
-0.000114759
-8.39389e-05
-0.000100732
-0.000106943
-8.35493e-05
-0.00012613
-5.90682e-05
-0.000150433
-3.20229e-05
-0.000163068
-0.000172641
-0.000149943
-4.7047e-05
-0.000143436
-7.00322e-05
-0.000134177
-9.31982e-05
-0.000118826
-0.000122294
-0.000100293
-0.000144664
-7.14051e-05
-0.000179321
-3.99298e-05
-0.000194544
-0.00021257
-0.000174482
-4.84811e-05
-0.000170503
-7.40119e-05
-0.000164447
-9.92538e-05
-0.000150635
-0.000136106
-0.0001332
-0.000162098
-9.84513e-05
-0.00021407
-5.92888e-05
-0.000233706
-0.000271859
-0.000196182
-4.89891e-05
-0.000192948
-7.72457e-05
-0.000188312
-0.00010389
-0.000174283
-0.000150135
-0.000157976
-0.000178405
-0.000118511
-0.000253535
-7.62646e-05
-0.000275953
-0.000348124
-0.000229003
-4.40612e-05
-0.000233706
-7.25419e-05
-0.000238995
-9.8601e-05
-0.000235795
-0.000153335
-0.000230126
-0.000184074
-0.000188208
-0.000295452
-0.000137725
-0.000326436
-0.000485849
-0.000247633
-3.85014e-05
-0.000253482
-6.66926e-05
-0.000261187
-9.08962e-05
-0.000260435
-0.000154088
-0.000262523
-0.000181986
-0.000222653
-0.000335322
-0.000184801
-0.000364289
-0.000670649
-0.000284776
-2.37899e-05
-0.000307955
-4.35136e-05
-0.000338099
-6.07521e-05
-0.000375983
-0.000116203
-0.000419762
-0.000138207
-0.000424202
-0.000330882
-0.000405336
-0.000383155
-0.00107599
-0.000246976
-1.46077e-05
-0.000265099
-2.53901e-05
-0.000282573
-4.32789e-05
-0.000311898
-8.68782e-05
-0.0003322
-0.000117904
-0.000333537
-0.000329545
-0.000305794
-0.000410898
-0.00138178
0.00239567
0.00237028
0.002327
0.00224013
0.00212222
0.00179268
0.00138178
-6.549e-07
6.549e-07
-1.19816e-06
5.43259e-07
-1.53002e-06
3.3186e-07
-1.61712e-06
8.70995e-08
-1.45742e-06
-1.59694e-07
-1.08951e-06
-3.67911e-07
-5.73946e-07
-5.15567e-07
-5.73946e-07
-7.38684e-07
1.39358e-06
-1.34299e-06
1.14756e-06
-1.69957e-06
6.88445e-07
-1.76408e-06
1.51612e-07
-1.57582e-06
-3.47954e-07
-1.17434e-06
-7.69392e-07
-6.18017e-07
-1.07189e-06
-1.19196e-06
-1.09172e-06
2.4853e-06
-1.93951e-06
1.99535e-06
-2.41181e-06
1.16074e-06
-2.51215e-06
2.51955e-07
-2.22738e-06
-6.32722e-07
-1.64275e-06
-1.35403e-06
-8.58405e-07
-1.85624e-06
-2.05037e-06
-1.33678e-06
3.82209e-06
-2.34974e-06
3.00832e-06
-2.86896e-06
1.67996e-06
-2.87764e-06
2.60627e-07
-2.51095e-06
-9.99407e-07
-1.84369e-06
-2.02129e-06
-9.61862e-07
-2.73807e-06
-3.01223e-06
-2.49882e-06
6.3209e-06
-4.15396e-06
4.66346e-06
-4.84262e-06
2.36863e-06
-4.81331e-06
2.31312e-07
-4.1073e-06
-1.70542e-06
-2.94966e-06
-3.17892e-06
-1.51825e-06
-4.16948e-06
-4.53048e-06
-3.06445e-06
9.38535e-06
-5.06147e-06
6.66048e-06
-5.7994e-06
3.10656e-06
-5.5569e-06
-1.11871e-08
-4.69231e-06
-2.57001e-06
-3.37161e-06
-4.49962e-06
-1.73609e-06
-5.805e-06
-6.26658e-06
-6.90293e-06
1.62883e-05
-1.02342e-05
9.99176e-06
-1.05386e-05
3.41095e-06
-9.63498e-06
-9.14805e-07
-7.75823e-06
-4.44677e-06
-5.37214e-06
-6.8857e-06
-2.71016e-06
-8.46698e-06
-8.97673e-06
-8.2705e-06
-1.2008e-05
-1.22433e-05
-1.09781e-05
-8.83562e-06
-6.14504e-06
-3.10932e-06
)
;

boundaryField
{
    movingWall
    {
        type            calculated;
        value           uniform 0;
    }
    fixedWalls
    {
        type            calculated;
        value           uniform 0;
    }
    frontAndBack
    {
        type            empty;
        value           nonuniform List<scalar> 0();
    }
}


// ************************************************************************* //
