/*--------------------------------*- C++ -*----------------------------------*\
  =========                 |
  \\      /  F ield         | OpenFOAM: The Open Source CFD Toolbox
   \\    /   O peration     | Website:  https://openfoam.org
    \\  /    A nd           | Version:  8
     \\/     M anipulation  |
\*---------------------------------------------------------------------------*/
FoamFile
{
    version     2.0;
    format      ascii;
    class       volVectorField;
    location    "48";
    object      U;
}
// * * * * * * * * * * * * * * * * * * * * * * * * * * * * * * * * * * * * * //

dimensions      [0 1 -1 0 0 0 0];

internalField   nonuniform List<vector> 
12504
(
(1.00014 -0.000693503 8.54857e-07)
(1.00354 -0.00206729 -1.05373e-06)
(1.0103 -0.00338339 -1.97411e-06)
(1.02036 -0.0045974 -1.31062e-06)
(1.03335 -0.00567196 -7.05168e-07)
(1.04884 -0.00657693 -4.77716e-07)
(1.06638 -0.00729055 -3.32505e-07)
(1.08546 -0.00780141 -9.26613e-09)
(1.10558 -0.00810978 3.4868e-07)
(1.12623 -0.00822746 6.68651e-07)
(1.14694 -0.00817627 9.10755e-07)
(1.16733 -0.00798508 1.04911e-06)
(1.18707 -0.00768601 1.07256e-06)
(1.20593 -0.00731036 9.98265e-07)
(1.22377 -0.00688564 8.60735e-07)
(1.24048 -0.00643388 7.04698e-07)
(1.25602 -0.00597164 5.57641e-07)
(1.2704 -0.00551062 4.37106e-07)
(1.28362 -0.00505896 3.37321e-07)
(1.29573 -0.0046218 2.60482e-07)
(1.30675 -0.00420219 1.94378e-07)
(1.31675 -0.00380132 1.48195e-07)
(1.32577 -0.00341926 1.05981e-07)
(1.33386 -0.00305494 8.29927e-08)
(1.34106 -0.00270682 5.46174e-08)
(1.3474 -0.00237262 4.87804e-08)
(1.35293 -0.00205 2.79199e-08)
(1.35765 -0.00173621 4.09623e-08)
(1.36162 -0.00142882 2.30509e-08)
(1.36481 -0.00112539 5.86999e-08)
(1.36726 -0.000824088 3.23134e-08)
(1.36893 -0.000523561 9.47199e-08)
(1.36989 -0.000223162 3.98769e-08)
(1.37006 7.67214e-05 1.39373e-07)
(1.36953 0.00037517 3.745e-08)
(1.36818 0.000669591 2.24629e-07)
(1.36621 0.000958444 4.90008e-09)
(1.36337 0.00123632 3.20412e-07)
(1.36007 0.00150234 -1.22652e-07)
(1.3558 0.00174785 4.66258e-07)
(1.35139 0.0019756 -3.86925e-07)
(1.34582 0.00217197 7.45477e-07)
(1.34064 0.0023481 -8.81375e-07)
(1.33388 0.00248108 1.30563e-06)
(1.32845 0.00259855 -1.75988e-06)
(1.32052 0.00265851 2.36474e-06)
(1.31561 0.00271948 -3.15567e-06)
(1.30624 0.00270012 3.90371e-06)
(1.303 0.00271739 -4.27943e-06)
(1.29137 0.00260927 2.83186e-06)
(1.00015 -0.00209887 8.25348e-07)
(1.00361 -0.00625128 -1.11606e-06)
(1.01053 -0.0102283 -2.00573e-06)
(1.02082 -0.013897 -1.33825e-06)
(1.03409 -0.0171425 -7.39298e-07)
(1.04992 -0.0198728 -5.10982e-07)
(1.06783 -0.0220216 -3.48849e-07)
(1.08729 -0.0235546 3.01447e-09)
(1.10778 -0.0244727 3.86698e-07)
(1.12877 -0.0248123 7.27098e-07)
(1.1498 -0.0246409 9.80178e-07)
(1.17044 -0.0240474 1.11622e-06)
(1.1904 -0.0231304 1.12512e-06)
(1.20942 -0.0219857 1.03076e-06)
(1.22737 -0.0206967 8.75999e-07)
(1.24417 -0.0193298 7.10835e-07)
(1.25978 -0.0179342 5.62827e-07)
(1.2742 -0.0165448 4.46137e-07)
(1.28745 -0.0151853 3.51098e-07)
(1.29958 -0.0138708 2.78141e-07)
(1.31063 -0.0126102 2.14813e-07)
(1.32064 -0.0114067 1.70712e-07)
(1.32967 -0.0102603 1.29785e-07)
(1.33777 -0.00916768 1.07449e-07)
(1.34498 -0.00812395 7.9211e-08)
(1.35134 -0.00712221 7.3256e-08)
(1.35689 -0.00615527 5.2003e-08)
(1.36163 -0.00521481 6.43435e-08)
(1.36562 -0.00429333 4.56579e-08)
(1.36883 -0.00338348 8.01847e-08)
(1.37131 -0.00247952 5.27918e-08)
(1.373 -0.00157751 1.13715e-07)
(1.37398 -0.000675195 5.74959e-08)
(1.37416 0.000225862 1.50602e-07)
(1.37365 0.00112367 5.38307e-08)
(1.3723 0.00200936 2.41199e-07)
(1.37033 0.00287941 2.73037e-08)
(1.36748 0.00371575 3.3659e-07)
(1.36416 0.00451793 -9.83917e-08)
(1.35987 0.00525661 4.77758e-07)
(1.35542 0.00594421 -3.6103e-07)
(1.3498 0.0065337 7.47847e-07)
(1.34458 0.00706659 -8.52756e-07)
(1.33776 0.00746295 1.29193e-06)
(1.33229 0.00782061 -1.7239e-06)
(1.32429 0.00799384 2.33013e-06)
(1.31934 0.00818396 -3.10507e-06)
(1.30989 0.00811488 3.84726e-06)
(1.30663 0.00817569 -4.22365e-06)
(1.29493 0.00784091 2.81246e-06)
(1.00015 -0.00355358 8.42393e-07)
(1.00378 -0.0105782 -1.19431e-06)
(1.01101 -0.0173044 -2.10738e-06)
(1.02175 -0.0235077 -1.41438e-06)
(1.03561 -0.0289902 -7.93594e-07)
(1.05213 -0.0335931 -5.46475e-07)
(1.07078 -0.0372029 -3.46195e-07)
(1.09102 -0.0397604 6.13584e-08)
(1.11227 -0.0412677 5.06721e-07)
(1.13398 -0.0417893 8.98224e-07)
(1.15563 -0.0414438 1.17811e-06)
(1.17681 -0.0403878 1.30672e-06)
(1.19718 -0.0387938 1.27618e-06)
(1.21653 -0.0368273 1.1267e-06)
(1.23473 -0.0346306 9.21358e-07)
(1.2517 -0.0323145 7.23851e-07)
(1.26743 -0.02996 5.62853e-07)
(1.28194 -0.0276236 4.45507e-07)
(1.29526 -0.0253433 3.5329e-07)
(1.30744 -0.023143 2.83146e-07)
(1.31852 -0.0210362 2.2191e-07)
(1.32857 -0.0190275 1.80365e-07)
(1.33763 -0.017116 1.4131e-07)
(1.34575 -0.0152957 1.20439e-07)
(1.353 -0.0135581 9.22206e-08)
(1.35939 -0.0118912 8.64238e-08)
(1.36498 -0.0102825 6.47238e-08)
(1.36977 -0.00871775 7.74703e-08)
(1.3738 -0.00718402 5.85004e-08)
(1.37706 -0.00566871 9.4143e-08)
(1.37959 -0.00416181 6.66525e-08)
(1.38133 -0.00265653 1.28202e-07)
(1.38236 -0.00114872 7.13783e-08)
(1.38257 0.00035856 1.6243e-07)
(1.38208 0.0018629 7.01344e-08)
(1.38074 0.00334809 2.62949e-07)
(1.37877 0.00480937 5.07743e-08)
(1.37589 0.00621389 3.60343e-07)
(1.37253 0.00756346 -7.52711e-08)
(1.36818 0.00880425 4.9969e-07)
(1.36366 0.00996219 -3.4239e-07)
(1.35795 0.0109504 7.62732e-07)
(1.35263 0.0118483 -8.44715e-07)
(1.3457 0.012508 1.2986e-06)
(1.34012 0.0131118 -1.7275e-06)
(1.33199 0.0133915 2.33054e-06)
(1.32695 0.0137158 -3.12101e-06)
(1.31737 0.0135844 3.84757e-06)
(1.31406 0.0136942 -4.22969e-06)
(1.3022 0.0131197 2.83228e-06)
(1.00016 -0.00508872 8.87353e-07)
(1.00403 -0.015146 -1.30397e-06)
(1.01174 -0.0247736 -2.28528e-06)
(1.02319 -0.0336479 -1.54879e-06)
(1.03797 -0.0414803 -8.80579e-07)
(1.05554 -0.0480381 -6.01007e-07)
(1.07536 -0.0531543 -3.33655e-07)
(1.09681 -0.0567409 1.64339e-07)
(1.11926 -0.0588019 7.12932e-07)
(1.14207 -0.0594354 1.19354e-06)
(1.1647 -0.0588219 1.51934e-06)
(1.18669 -0.0571993 1.63149e-06)
(1.20771 -0.0548269 1.52826e-06)
(1.22755 -0.0519497 1.28086e-06)
(1.2461 -0.0487728 9.88486e-07)
(1.26334 -0.0454515 7.37424e-07)
(1.27927 -0.0420966 5.56484e-07)
(1.29392 -0.0387829 4.38958e-07)
(1.30735 -0.035561 3.5073e-07)
(1.31961 -0.032461 2.8407e-07)
(1.33076 -0.0294998 2.25613e-07)
(1.34086 -0.0266816 1.8811e-07)
(1.34998 -0.024004 1.5172e-07)
(1.35816 -0.0214571 1.32757e-07)
(1.36546 -0.0190284 1.04022e-07)
(1.37191 -0.0166999 9.83888e-08)
(1.37757 -0.0144535 7.56167e-08)
(1.38243 -0.0122681 8.93797e-08)
(1.38654 -0.0101249 6.99857e-08)
(1.38988 -0.00800529 1.08113e-07)
(1.39249 -0.00589445 8.02877e-08)
(1.39432 -0.0037823 1.44161e-07)
(1.39541 -0.00166242 8.62426e-08)
(1.39568 0.000460829 1.77059e-07)
(1.39523 0.00258424 9.02635e-08)
(1.39391 0.00468401 2.94106e-07)
(1.39193 0.00675358 8.04262e-08)
(1.38901 0.00874444 3.9587e-07)
(1.38559 0.0106599 -4.76805e-08)
(1.38114 0.0124204 5.35054e-07)
(1.3765 0.0140647 -3.25434e-07)
(1.37064 0.0154646 7.92436e-07)
(1.36516 0.0167376 -8.48938e-07)
(1.35804 0.0176667 1.32331e-06)
(1.3523 0.0185188 -1.76202e-06)
(1.34396 0.0189038 2.3563e-06)
(1.33878 0.0193575 -3.18724e-06)
(1.32898 0.0191577 3.88785e-06)
(1.32558 0.0193091 -4.28577e-06)
(1.31347 0.0184858 2.87064e-06)
(1.00018 -0.0067423 9.47919e-07)
(1.00438 -0.020066 -1.46009e-06)
(1.01276 -0.032817 -2.55086e-06)
(1.0252 -0.0445621 -1.75961e-06)
(1.04125 -0.0549106 -1.02483e-06)
(1.06031 -0.0635455 -7.029e-07)
(1.08177 -0.0702353 -3.2732e-07)
(1.10492 -0.074857 3.15202e-07)
(1.12904 -0.0774171 1.03026e-06)
(1.1534 -0.0780557 1.65892e-06)
(1.17739 -0.077032 2.05797e-06)
(1.2005 -0.0746866 2.13514e-06)
(1.2224 -0.0713866 1.90617e-06)
(1.24291 -0.06747 1.50059e-06)
(1.26196 -0.0632103 1.07726e-06)
(1.27956 -0.0588063 7.53254e-07)
(1.29576 -0.0543938 5.52428e-07)
(1.31062 -0.0500622 4.41228e-07)
(1.3242 -0.0458703 3.60176e-07)
(1.33659 -0.0418523 2.9758e-07)
(1.34785 -0.0380255 2.42431e-07)
(1.35804 -0.0343921 2.10151e-07)
(1.36725 -0.0309468 1.76324e-07)
(1.37553 -0.0276748 1.58408e-07)
(1.38293 -0.0245585 1.27252e-07)
(1.38948 -0.0215733 1.2048e-07)
(1.39525 -0.0186944 9.488e-08)
(1.40022 -0.0158932 1.09173e-07)
(1.40445 -0.0131437 8.80504e-08)
(1.40792 -0.0104205 1.29328e-07)
(1.41065 -0.0077034 9.97043e-08)
(1.41258 -0.00497809 1.67943e-07)
(1.41377 -0.00223556 1.08008e-07)
(1.41412 0.000518817 1.93892e-07)
(1.41373 0.00328088 1.15535e-07)
(1.41242 0.00601852 3.36691e-07)
(1.41042 0.00872252 1.20525e-07)
(1.40744 0.0113272 4.46597e-07)
(1.40392 0.0138367 -9.42356e-09)
(1.39932 0.0161432 5.86348e-07)
(1.39451 0.0182982 -3.02273e-07)
(1.38842 0.0201292 8.37287e-07)
(1.38271 0.0217927 -8.55964e-07)
(1.37531 0.0229989 1.36084e-06)
(1.36933 0.0241035 -1.81389e-06)
(1.36067 0.0245895 2.39533e-06)
(1.35529 0.0251677 -3.28438e-06)
(1.34516 0.0248863 3.94701e-06)
(1.34164 0.0250716 -4.37218e-06)
(1.32917 0.0239824 2.92329e-06)
(1.0002 -0.00855585 1.02603e-06)
(1.00484 -0.0254602 -1.65304e-06)
(1.0141 -0.0416356 -2.90286e-06)
(1.02785 -0.0565239 -2.04835e-06)
(1.04558 -0.0696178 -1.23491e-06)
(1.06663 -0.0804997 -8.65153e-07)
(1.09028 -0.0888574 -3.27822e-07)
(1.11571 -0.0945226 5.35792e-07)
(1.14206 -0.0975039 1.51346e-06)
(1.16849 -0.0979948 2.38566e-06)
(1.19427 -0.0963589 2.89949e-06)
(1.21885 -0.0930725 2.9032e-06)
(1.24189 -0.0886403 2.45287e-06)
(1.26326 -0.0835128 1.78914e-06)
(1.28294 -0.0780377 1.16964e-06)
(1.30101 -0.0724529 7.51749e-07)
(1.31758 -0.066912 5.39551e-07)
(1.33272 -0.0615124 4.4814e-07)
(1.34653 -0.0563165 3.78435e-07)
(1.35911 -0.051358 3.19226e-07)
(1.37054 -0.046652 2.67026e-07)
(1.38089 -0.0421962 2.40153e-07)
(1.39025 -0.0379806 2.07113e-07)
(1.39867 -0.0339846 1.87514e-07)
(1.40622 -0.0301844 1.50289e-07)
(1.41292 -0.0265475 1.39852e-07)
(1.41884 -0.0230416 1.08669e-07)
(1.42398 -0.0196289 1.22307e-07)
(1.42838 -0.0162758 9.79277e-08)
(1.43201 -0.012948 1.4269e-07)
(1.4349 -0.00961955 1.1069e-07)
(1.43698 -0.00627036 1.8521e-07)
(1.4383 -0.00288871 1.22136e-07)
(1.43873 0.000519225 2.03224e-07)
(1.4384 0.0039488 1.36893e-07)
(1.4371 0.00735819 3.78514e-07)
(1.43506 0.0107342 1.56635e-07)
(1.43197 0.013992 5.00254e-07)
(1.4283 0.0171355 2.75954e-08)
(1.42347 0.0200252 6.44048e-07)
(1.4184 0.0227252 -2.83577e-07)
(1.41197 0.0250138 8.89957e-07)
(1.40594 0.0270892 -8.74322e-07)
(1.39812 0.0285827 1.40842e-06)
(1.3918 0.0299456 -1.88905e-06)
(1.3827 0.0305249 2.44822e-06)
(1.37702 0.0312203 -3.42011e-06)
(1.36643 0.0308367 4.02627e-06)
(1.36273 0.0310454 -4.49559e-06)
(1.34977 0.029665 2.993e-06)
(1.00022 -0.0105766 1.12462e-06)
(1.00542 -0.0314674 -1.86601e-06)
(1.01581 -0.0514596 -3.35236e-06)
(1.03124 -0.0698499 -2.42372e-06)
(1.05114 -0.085995 -1.53368e-06)
(1.07476 -0.0993549 -1.11406e-06)
(1.10126 -0.10951 -3.40604e-07)
(1.12967 -0.116231 8.49557e-07)
(1.15894 -0.119525 2.2328e-06)
(1.18806 -0.119655 3.49867e-06)
(1.21615 -0.117127 4.19282e-06)
(1.2426 -0.112603 4.0642e-06)
(1.26706 -0.106769 3.23888e-06)
(1.28948 -0.100214 2.1554e-06)
(1.30995 -0.093361 1.22401e-06)
(1.32862 -0.0864789 6.92019e-07)
(1.34566 -0.079727 4.93014e-07)
(1.36119 -0.0732014 4.42238e-07)
(1.37533 -0.0669619 3.87916e-07)
(1.38819 -0.0610369 3.31286e-07)
(1.39987 -0.0554349 2.8223e-07)
(1.41045 -0.0501466 2.59973e-07)
(1.42003 -0.0451557 2.23371e-07)
(1.42866 -0.0404346 1.96281e-07)
(1.43642 -0.0359521 1.46525e-07)
(1.44333 -0.0316668 1.28049e-07)
(1.44946 -0.0275372 8.6754e-08)
(1.45481 -0.0235153 9.72865e-08)
(1.45941 -0.0195579 6.7251e-08)
(1.46323 -0.0156208 1.15286e-07)
(1.4663 -0.0116705 8.18599e-08)
(1.46854 -0.00768007 1.67876e-07)
(1.46999 -0.0036345 1.02131e-07)
(1.47051 0.000459511 1.92286e-07)
(1.47021 0.00459795 1.35208e-07)
(1.46887 0.0087262 3.91841e-07)
(1.46674 0.0128259 1.57197e-07)
(1.46345 0.0167903 5.28487e-07)
(1.45954 0.020622 3.39667e-08)
(1.45435 0.0241447 6.84406e-07)
(1.4489 0.0274354 -2.93222e-07)
(1.44199 0.0302166 9.36092e-07)
(1.43548 0.0327321 -9.20648e-07)
(1.42708 0.034525 1.46203e-06)
(1.42028 0.0361525 -1.99879e-06)
(1.41055 0.0368128 2.51946e-06)
(1.40447 0.0376146 -3.60506e-06)
(1.39322 0.0370982 4.13453e-06)
(1.38929 0.0373152 -4.66801e-06)
(1.37562 0.0356078 3.08303e-06)
(1.00025 -0.0128594 1.24516e-06)
(1.00616 -0.0382462 -2.06706e-06)
(1.01795 -0.062558 -3.92539e-06)
(1.0355 -0.0849118 -2.89497e-06)
(1.05814 -0.104511 -1.97028e-06)
(1.08504 -0.120661 -1.49714e-06)
(1.11521 -0.132792 -3.58856e-07)
(1.14745 -0.140589 1.32467e-06)
(1.1805 -0.144047 3.33733e-06)
(1.21308 -0.143518 5.20075e-06)
(1.24412 -0.139712 6.12276e-06)
(1.27289 -0.133553 5.73913e-06)
(1.2991 -0.125971 4.31108e-06)
(1.32279 -0.117722 2.54256e-06)
(1.34421 -0.109303 1.09636e-06)
(1.36363 -0.100992 4.67661e-07)
(1.38128 -0.0929359 3.57205e-07)
(1.39732 -0.085219 3.73636e-07)
(1.41191 -0.0778903 3.31269e-07)
(1.42515 -0.0709669 2.74903e-07)
(1.43718 -0.0644459 2.31732e-07)
(1.44808 -0.0583083 2.13236e-07)
(1.45794 -0.0525304 1.66404e-07)
(1.46683 -0.0470761 1.23201e-07)
(1.47483 -0.0419066 5.22594e-08)
(1.48197 -0.0369697 2.02143e-08)
(1.48832 -0.0322138 -3.79614e-08)
(1.49387 -0.0275785 -3.44704e-08)
(1.49866 -0.0230097 -7.45258e-08)
(1.50265 -0.0184511 -2.47328e-08)
(1.50588 -0.0138602 -5.76806e-08)
(1.50822 -0.0092014 5.15035e-08)
(1.50975 -0.00445628 -3.96783e-09)
(1.51027 0.000368573 1.41917e-07)
(1.50992 0.00527168 6.45684e-08)
(1.50843 0.0101806 3.14509e-07)
(1.50608 0.0150715 5.89972e-08)
(1.50246 0.0198114 4.73872e-07)
(1.49814 0.0244009 -4.78875e-08)
(1.49243 0.0286198 6.59661e-07)
(1.48641 0.0325593 -3.75777e-07)
(1.4788 0.035876 9.44853e-07)
(1.47163 0.0388664 -1.02385e-06)
(1.46242 0.040971 1.50883e-06)
(1.45495 0.0428696 -2.15681e-06)
(1.44435 0.0435906 2.61196e-06)
(1.43772 0.0444824 -3.84348e-06)
(1.42559 0.0437892 4.28025e-06)
(1.42134 0.0439928 -4.89521e-06)
(1.40671 0.0419088 3.1924e-06)
(1.00029 -0.0154686 1.38903e-06)
(1.00707 -0.0459785 -2.19221e-06)
(1.02059 -0.0752475 -4.66548e-06)
(1.04076 -0.102151 -3.45437e-06)
(1.06685 -0.125737 -2.65289e-06)
(1.0979 -0.145094 -2.1099e-06)
(1.13275 -0.159447 -4.07337e-07)
(1.16994 -0.168359 2.07462e-06)
(1.20787 -0.17178 5.17842e-06)
(1.2449 -0.17018 7.9596e-06)
(1.27965 -0.164563 9.02465e-06)
(1.31128 -0.156234 8.00218e-06)
(1.33956 -0.14646 5.50745e-06)
(1.36475 -0.136199 2.50334e-06)
(1.3873 -0.126003 5.06714e-07)
(1.40764 -0.116119 -5.65834e-08)
(1.42606 -0.106657 4.46226e-08)
(1.44275 -0.0976734 1.38459e-07)
(1.45788 -0.0891986 8.1656e-08)
(1.47159 -0.0812312 1.1803e-08)
(1.48402 -0.0737527 -2.37377e-08)
(1.49524 -0.0667326 -3.91342e-08)
(1.50537 -0.0601392 -1.02924e-07)
(1.51448 -0.0539281 -1.69579e-07)
(1.52264 -0.0480515 -2.68087e-07)
(1.5299 -0.0424461 -3.17555e-07)
(1.53634 -0.0370485 -3.96082e-07)
(1.54195 -0.0317846 -4.01633e-07)
(1.54678 -0.0265864 -4.53979e-07)
(1.55078 -0.0213843 -4.03948e-07)
(1.55397 -0.0161244 -4.24117e-07)
(1.55624 -0.01076 -2.86035e-07)
(1.55765 -0.00526927 -3.13243e-07)
(1.55798 0.000344794 -4.13797e-09)
(1.55738 0.00607937 -1.84127e-07)
(1.55553 0.011842 2.47175e-08)
(1.55274 0.017604 -2.5586e-07)
(1.54856 0.0232007 2.30714e-07)
(1.54362 0.0286302 -3.17212e-07)
(1.53712 0.0336186 4.8653e-07)
(1.53031 0.0382749 -6.04098e-07)
(1.52173 0.0421752 8.62559e-07)
(1.51368 0.0456798 -1.22565e-06)
(1.50337 0.0481059 1.52474e-06)
(1.49503 0.0502802 -2.37371e-06)
(1.48329 0.0510302 2.72431e-06)
(1.47596 0.0519887 -4.12341e-06)
(1.46266 0.0510558 4.46656e-06)
(1.45801 0.0512171 -5.16522e-06)
(1.44214 0.0486874 3.3096e-06)
(1.00033 -0.0184795 1.56166e-06)
(1.00818 -0.05487 -2.12874e-06)
(1.0238 -0.0899039 -5.63158e-06)
(1.04722 -0.122092 -4.03385e-06)
(1.07756 -0.150373 -3.78616e-06)
(1.11386 -0.173506 -3.10933e-06)
(1.1547 -0.190426 -7.03906e-07)
(1.19828 -0.200518 3.04205e-06)
(1.24253 -0.203628 8.22213e-06)
(1.28528 -0.200382 1.26717e-05)
(1.3247 -0.192223 1.36955e-05)
(1.3598 -0.181007 1.12358e-05)
(1.3905 -0.168473 6.17953e-06)
(1.41738 -0.15582 1.09289e-06)
(1.44121 -0.143606 -1.19176e-06)
(1.46259 -0.131988 -1.29925e-06)
(1.48185 -0.120998 -7.9331e-07)
(1.49922 -0.11065 -5.71828e-07)
(1.51487 -0.100945 -6.47487e-07)
(1.52895 -0.0918555 -7.35643e-07)
(1.5416 -0.0833458 -7.58424e-07)
(1.55293 -0.0753746 -7.61669e-07)
(1.56304 -0.0679037 -8.33512e-07)
(1.57201 -0.0608811 -9.1305e-07)
(1.57996 -0.0542509 -1.02305e-06)
(1.58693 -0.0479375 -1.07228e-06)
(1.59303 -0.0418649 -1.15818e-06)
(1.59825 -0.0359435 -1.15638e-06)
(1.60266 -0.0300884 -1.21052e-06)
(1.6062 -0.0242154 -1.1474e-06)
(1.60893 -0.0182539 -1.12598e-06)
(1.61069 -0.0121471 -9.51739e-07)
(1.61158 -0.00586734 -8.75327e-07)
(1.61133 0.0005966 -4.38362e-07)
(1.61012 0.00722814 -8.26136e-07)
(1.60756 0.0139157 -6.75743e-07)
(1.60404 0.0206289 -9.69809e-07)
(1.59898 0.0271635 -3.71431e-07)
(1.59315 0.0335163 -9.28427e-07)
(1.58561 0.0393473 3.65339e-08)
(1.57777 0.0447898 -1.08335e-06)
(1.56797 0.04932 6.08844e-07)
(1.55882 0.0533781 -1.57723e-06)
(1.54719 0.0561283 1.47197e-06)
(1.53781 0.0585793 -2.64918e-06)
(1.52469 0.0593117 2.84403e-06)
(1.51652 0.0603068 -4.4034e-06)
(1.50182 0.0590494 4.68002e-06)
(1.4967 0.0591328 -5.43271e-06)
(1.47936 0.0560643 3.40388e-06)
(1.0004 -0.0219788 1.78463e-06)
(1.00951 -0.0651481 -1.7139e-06)
(1.02766 -0.106973 -6.87925e-06)
(1.05504 -0.145355 -4.43797e-06)
(1.09063 -0.179301 -5.66665e-06)
(1.13356 -0.206981 -4.58109e-06)
(1.18206 -0.226974 -1.64963e-06)
(1.23393 -0.238358 3.83059e-06)
(1.28644 -0.240741 1.253e-05)
(1.33657 -0.235019 1.99782e-05)
(1.38184 -0.223309 2.11039e-05)
(1.42106 -0.208259 1.62856e-05)
(1.4544 -0.192256 5.76767e-06)
(1.48299 -0.176752 -2.55172e-06)
(1.50802 -0.162221 -5.15436e-06)
(1.53028 -0.148644 -4.29154e-06)
(1.55012 -0.135941 -2.99073e-06)
(1.56776 -0.124069 -2.4063e-06)
(1.5834 -0.112984 -2.39319e-06)
(1.59721 -0.102628 -2.39521e-06)
(1.60934 -0.0929473 -2.3125e-06)
(1.61993 -0.0838955 -2.23867e-06)
(1.6291 -0.075432 -2.25707e-06)
(1.63698 -0.0675006 -2.27918e-06)
(1.64371 -0.0600373 -2.32066e-06)
(1.64938 -0.0529549 -2.29386e-06)
(1.65413 -0.046163 -2.31799e-06)
(1.65797 -0.0395543 -2.23764e-06)
(1.66103 -0.0330226 -2.23992e-06)
(1.66322 -0.026469 -2.08644e-06)
(1.66466 -0.0197956 -1.96278e-06)
(1.66516 -0.012939 -1.71595e-06)
(1.66486 -0.00585943 -1.3443e-06)
(1.66346 0.00147251 -9.93735e-07)
(1.66114 0.00902666 -1.74825e-06)
(1.65745 0.0166758 -1.69944e-06)
(1.65287 0.0243894 -2.05082e-06)
(1.64668 0.0319145 -1.34147e-06)
(1.63978 0.0392503 -1.91256e-06)
(1.63103 0.0459777 -7.37334e-07)
(1.62209 0.0522619 -1.85779e-06)
(1.61099 0.0574558 1.32405e-07)
(1.60073 0.0620999 -2.10024e-06)
(1.58771 0.0651672 1.31212e-06)
(1.5773 0.0678929 -2.96138e-06)
(1.56276 0.0685483 2.93117e-06)
(1.55378 0.0695474 -4.61084e-06)
(1.53766 0.0678613 4.86037e-06)
(1.5321 0.0678288 -5.61196e-06)
(1.51327 0.0641063 3.41071e-06)
(1.00048 -0.0260606 2.12802e-06)
(1.01106 -0.0770555 -7.64704e-07)
(1.03223 -0.126976 -8.40263e-06)
(1.06439 -0.172655 -4.36621e-06)
(1.10639 -0.213626 -8.71882e-06)
(1.15774 -0.246915 -6.27387e-06)
(1.21607 -0.270767 -3.36965e-06)
(1.27882 -0.283654 4.77275e-06)
(1.34215 -0.284648 1.81746e-05)
(1.4018 -0.275163 2.88763e-05)
(1.45428 -0.258408 3.00621e-05)
(1.49807 -0.23823 2.13666e-05)
(1.5338 -0.217872 3.67788e-06)
(1.56342 -0.198955 -9.02891e-06)
(1.58877 -0.181685 -1.21209e-05)
(1.6108 -0.165777 -9.85258e-06)
(1.62989 -0.151027 -7.30917e-06)
(1.64625 -0.137331 -6.1642e-06)
(1.66015 -0.124591 -5.74904e-06)
(1.67181 -0.112712 -5.27358e-06)
(1.68146 -0.101627 -4.75306e-06)
(1.68926 -0.0912944 -4.34842e-06)
(1.69546 -0.0816744 -4.09722e-06)
(1.70021 -0.0727095 -3.8689e-06)
(1.70376 -0.0643278 -3.6652e-06)
(1.70625 -0.0564291 -3.4216e-06)
(1.70787 -0.0489058 -3.25852e-06)
(1.70869 -0.0416273 -2.99644e-06)
(1.70888 -0.0344627 -2.87006e-06)
(1.70839 -0.027293 -2.48611e-06)
(1.70737 -0.0199798 -2.23451e-06)
(1.70562 -0.012471 -1.79304e-06)
(1.70333 -0.0046499 -1.14604e-06)
(1.70015 0.00346818 -1.11336e-06)
(1.6963 0.0118533 -2.19188e-06)
(1.69123 0.0203935 -2.2261e-06)
(1.68549 0.0290618 -2.75874e-06)
(1.67823 0.0375488 -2.05877e-06)
(1.67043 0.0458596 -2.75696e-06)
(1.66075 0.0534844 -1.43975e-06)
(1.65105 0.0606267 -2.62365e-06)
(1.63905 0.066493 -3.91548e-07)
(1.6281 0.0717417 -2.6576e-06)
(1.61414 0.0751136 1.07357e-06)
(1.60312 0.0781139 -3.23764e-06)
(1.5876 0.0786356 2.90757e-06)
(1.57815 0.0796147 -4.66111e-06)
(1.56105 0.0773959 4.8506e-06)
(1.55526 0.0772176 -5.60158e-06)
(1.53547 0.0727199 3.2037e-06)
(1.0006 -0.0308125 2.77651e-06)
(1.01279 -0.0908467 8.93171e-07)
(1.03758 -0.150502 -9.91433e-06)
(1.07531 -0.204782 -3.77743e-06)
(1.12513 -0.254747 -1.38261e-05)
(1.18717 -0.295059 -8.02471e-06)
(1.25808 -0.324032 -6.11649e-06)
(1.33521 -0.338798 8.3371e-06)
(1.4129 -0.337464 2.81888e-05)
(1.48487 -0.322215 3.86449e-05)
(1.54563 -0.297939 3.4821e-05)
(1.5932 -0.270564 1.75596e-05)
(1.62927 -0.244574 -6.44884e-06)
(1.65726 -0.221463 -2.09547e-05)
(1.67984 -0.200806 -2.20601e-05)
(1.6982 -0.181948 -1.70679e-05)
(1.71279 -0.164592 -1.29188e-05)
(1.72394 -0.148583 -1.10797e-05)
(1.7321 -0.133763 -9.81607e-06)
(1.73765 -0.120002 -8.27551e-06)
(1.74094 -0.107231 -6.82681e-06)
(1.74227 -0.095415 -5.72852e-06)
(1.74199 -0.0845128 -4.93408e-06)
(1.74039 -0.0744628 -4.25369e-06)
(1.7378 -0.065178 -3.66707e-06)
(1.73445 -0.0565408 -3.13956e-06)
(1.7306 -0.0484192 -2.73681e-06)
(1.72638 -0.040648 -2.33107e-06)
(1.72201 -0.033072 -2.07807e-06)
(1.71746 -0.0255247 -1.54258e-06)
(1.71291 -0.0178417 -1.29485e-06)
(1.70818 -0.00995713 -5.82028e-07)
(1.70348 -0.00166325 -2.89405e-07)
(1.69836 0.00693008 -1.19042e-06)
(1.69308 0.0158822 -2.02914e-06)
(1.68704 0.0250792 -1.77145e-06)
(1.68076 0.0344976 -2.42293e-06)
(1.67323 0.0437802 -1.7732e-06)
(1.6655 0.0529411 -2.68136e-06)
(1.65599 0.0613784 -1.35989e-06)
(1.64669 0.0693295 -2.75125e-06)
(1.63504 0.075845 -4.5475e-07)
(1.62459 0.0816979 -2.85028e-06)
(1.61096 0.0853747 9.41647e-07)
(1.60041 0.0886638 -3.30528e-06)
(1.58514 0.0890338 2.69738e-06)
(1.57608 0.0899974 -4.46906e-06)
(1.55922 0.0871863 4.38278e-06)
(1.55371 0.0868565 -5.32679e-06)
(1.53432 0.0814994 2.56088e-06)
(1.00073 -0.036285 4.13207e-06)
(1.01464 -0.106802 3.28827e-06)
(1.04371 -0.178141 -1.02576e-05)
(1.0876 -0.242597 -3.68176e-06)
(1.14708 -0.304442 -2.26326e-05)
(1.22245 -0.353507 -1.19291e-05)
(1.30922 -0.389589 -1.37841e-05)
(1.40557 -0.406672 1.38065e-05)
(1.5027 -0.401933 4.70883e-05)
(1.5901 -0.377953 5.50182e-05)
(1.6578 -0.341833 3.2179e-05)
(1.70412 -0.303525 -7.73033e-06)
(1.73354 -0.269621 -3.85226e-05)
(1.7523 -0.24092 -4.53948e-05)
(1.76436 -0.21581 -3.46529e-05)
(1.77123 -0.193137 -2.14977e-05)
(1.77356 -0.1725 -1.41817e-05)
(1.77208 -0.153659 -1.15601e-05)
(1.76759 -0.136379 -9.45263e-06)
(1.76073 -0.120504 -6.94033e-06)
(1.75203 -0.105964 -4.78606e-06)
(1.74197 -0.0927166 -3.24343e-06)
(1.73102 -0.0807023 -2.1466e-06)
(1.71957 -0.0698367 -1.25851e-06)
(1.708 -0.0599992 -5.81775e-07)
(1.6966 -0.0510453 -5.1464e-08)
(1.68564 -0.0427962 2.82165e-07)
(1.67527 -0.0350535 5.05779e-07)
(1.6657 -0.027615 6.09218e-07)
(1.65691 -0.0202518 7.97936e-07)
(1.64904 -0.0128025 6.69128e-07)
(1.64191 -0.00505351 1.32177e-06)
(1.63566 0.00306919 -1.65971e-07)
(1.62977 0.0115755 -5.18067e-07)
(1.62454 0.0206084 -6.50333e-07)
(1.6192 0.0300224 -6.18209e-08)
(1.61422 0.0398015 -7.15142e-07)
(1.60844 0.049563 -7.29062e-08)
(1.60285 0.059323 -1.18385e-06)
(1.59572 0.0684041 5.80913e-09)
(1.58898 0.0770511 -1.71071e-06)
(1.57993 0.0841795 3.80965e-07)
(1.57206 0.0906304 -2.26383e-06)
(1.56094 0.0946624 1.18532e-06)
(1.55269 0.098289 -2.93117e-06)
(1.53976 0.0985831 2.30904e-06)
(1.53252 0.0995865 -3.92749e-06)
(1.51798 0.0962342 3.19959e-06)
(1.51358 0.0957886 -4.70352e-06)
(1.4969 0.0895942 1.1752e-06)
(1.00076 -0.0424542 6.90554e-06)
(1.01665 -0.125246 6.18796e-06)
(1.05034 -0.210271 -6.45824e-06)
(1.10071 -0.287177 -6.25762e-06)
(1.17236 -0.364937 -3.524e-05)
(1.26318 -0.424668 -2.58536e-05)
(1.37008 -0.471238 -3.80249e-05)
(1.49274 -0.49114 8.1024e-06)
(1.61539 -0.480722 6.4442e-05)
(1.71775 -0.442503 8.38786e-05)
(1.78226 -0.387182 4.31573e-05)
(1.81187 -0.331831 -3.28173e-05)
(1.81742 -0.286087 -8.08402e-05)
(1.81055 -0.249335 -7.49693e-05)
(1.79713 -0.218257 -4.08699e-05)
(1.77906 -0.191023 -1.19311e-05)
(1.75738 -0.166905 -3.07849e-07)
(1.73337 -0.145361 2.36166e-06)
(1.70821 -0.125985 3.89851e-06)
(1.68275 -0.108567 5.256e-06)
(1.65758 -0.0930019 5.83216e-06)
(1.63319 -0.0791967 5.82998e-06)
(1.60997 -0.0670305 5.63979e-06)
(1.58821 -0.056358 5.4612e-06)
(1.56814 -0.0470021 5.22044e-06)
(1.54991 -0.0387651 4.95571e-06)
(1.53365 -0.0314109 4.58201e-06)
(1.5194 -0.0247034 4.20998e-06)
(1.50722 -0.0183657 3.72212e-06)
(1.49702 -0.0121575 3.15821e-06)
(1.48885 -0.00581565 2.529e-06)
(1.48239 0.000881861 1.71034e-06)
(1.47766 0.0080249 7.4377e-07)
(1.47421 0.0157739 1.62271e-06)
(1.47213 0.0242566 1.9781e-06)
(1.4706 0.0333301 2.60822e-06)
(1.4699 0.0429941 1.94096e-06)
(1.46886 0.0528643 2.52328e-06)
(1.46825 0.0629337 1.25727e-06)
(1.46635 0.0724861 2.21418e-06)
(1.46482 0.0817178 2.08091e-07)
(1.46107 0.089471 1.90026e-06)
(1.45819 0.0965492 -9.97978e-07)
(1.45216 0.101087 1.79966e-06)
(1.4483 0.105157 -2.0927e-06)
(1.44015 0.105596 1.81692e-06)
(1.43638 0.106755 -2.95759e-06)
(1.4266 0.103079 1.25877e-06)
(1.42431 0.102596 -3.52195e-06)
(1.41313 0.09575 -1.27718e-06)
(1.00046 -0.0492184 1.19209e-05)
(1.01907 -0.146407 1.03472e-05)
(1.05618 -0.246701 6.49987e-06)
(1.11404 -0.340133 -1.1561e-05)
(1.19966 -0.438339 -4.32353e-05)
(1.3066 -0.511768 -5.99725e-05)
(1.44131 -0.575736 -8.47351e-05)
(1.60008 -0.599487 -1.3336e-05)
(1.74797 -0.572755 4.9699e-05)
(1.84642 -0.505851 9.65858e-05)
(1.87595 -0.419228 0.000108242)
(1.8557 -0.339845 2.13232e-05)
(1.80519 -0.277961 -6.72236e-05)
(1.74634 -0.230867 -6.88611e-05)
(1.68733 -0.193218 -1.85524e-05)
(1.62995 -0.16235 1.5537e-05)
(1.57515 -0.136645 2.5069e-05)
(1.52422 -0.114807 2.49455e-05)
(1.47793 -0.0960084 2.34953e-05)
(1.43648 -0.0798125 2.0769e-05)
(1.39976 -0.0659375 1.71294e-05)
(1.36753 -0.0541343 1.36424e-05)
(1.33952 -0.0441619 1.08779e-05)
(1.31542 -0.0357885 8.8497e-06)
(1.29495 -0.0287764 7.32824e-06)
(1.27784 -0.0228825 6.19058e-06)
(1.26389 -0.0178444 5.27564e-06)
(1.2529 -0.0133928 4.60423e-06)
(1.24473 -0.0092414 3.90178e-06)
(1.23917 -0.00511297 3.33764e-06)
(1.23612 -0.000718209 2.41256e-06)
(1.23521 0.00416183 1.75402e-06)
(1.23639 0.00982718 1.93311e-06)
(1.23921 0.0163277 3.40589e-06)
(1.24361 0.0238132 3.839e-06)
(1.24883 0.0321768 4.35749e-06)
(1.25495 0.04143 3.74467e-06)
(1.26096 0.0512061 4.23086e-06)
(1.26733 0.0614413 2.99798e-06)
(1.27258 0.0714266 3.7631e-06)
(1.27793 0.0812394 1.73538e-06)
(1.28121 0.0897407 3.08587e-06)
(1.28481 0.0975519 1.92044e-07)
(1.28551 0.10286 2.33546e-06)
(1.28739 0.107531 -1.15609e-06)
(1.28567 0.108469 1.28718e-06)
(1.2865 0.109925 -1.67572e-06)
(1.28325 0.106291 -1.1463e-06)
(1.28384 0.105861 -1.56864e-06)
(1.28033 0.0986798 -4.82285e-06)
(0.999765 -0.0564369 1.89758e-05)
(1.02177 -0.169775 2.07528e-05)
(1.05892 -0.286572 3.27534e-05)
(1.12665 -0.402987 -1.13772e-05)
(1.22265 -0.524831 -2.49108e-05)
(1.34789 -0.621382 -0.000110077)
(1.52344 -0.714889 -0.000123003)
(1.72252 -0.736293 -3.70123e-05)
(1.86486 -0.66344 1.86016e-05)
(1.89194 -0.533439 4.27433e-05)
(1.8165 -0.396508 0.000152221)
(1.69322 -0.291 0.000116122)
(1.54335 -0.214277 9.76235e-06)
(1.41237 -0.161445 -1.67619e-05)
(1.30472 -0.123494 1.77092e-05)
(1.21736 -0.0968453 2.69486e-05)
(1.14736 -0.0778752 1.80324e-05)
(1.09251 -0.0636858 1.17842e-05)
(1.05005 -0.0525273 1.0285e-05)
(1.01724 -0.0434552 9.17776e-06)
(0.991841 -0.0359131 7.6641e-06)
(0.972182 -0.0295709 6.19964e-06)
(0.957054 -0.0242441 4.95137e-06)
(0.945591 -0.0198225 3.87892e-06)
(0.937211 -0.0162074 2.94365e-06)
(0.931524 -0.0132835 2.19443e-06)
(0.928291 -0.0108938 1.62324e-06)
(0.927345 -0.00884645 1.27575e-06)
(0.928595 -0.00690364 1.02182e-06)
(0.931903 -0.00480825 1.00807e-06)
(0.937227 -0.00228968 9.9465e-07)
(0.944365 0.000936239 8.97287e-07)
(0.953138 0.00512112 2.08445e-07)
(0.96326 0.0104769 1.42176e-06)
(0.974674 0.0170558 1.99415e-06)
(0.9868 0.02479 3.01785e-06)
(0.999601 0.0337003 3.0229e-06)
(1.01231 0.043458 3.69705e-06)
(1.02515 0.053928 2.90655e-06)
(1.03701 0.0644494 3.69047e-06)
(1.04865 0.074937 2.09834e-06)
(1.05849 0.0843552 3.27738e-06)
(1.06811 0.0930257 8.28001e-07)
(1.07527 0.099367 2.51551e-06)
(1.08266 0.104769 -3.99503e-07)
(1.08735 0.106563 9.23575e-07)
(1.09283 0.108395 -3.2228e-07)
(1.09634 0.105191 -3.41448e-06)
(1.10002 0.104829 1.26796e-06)
(1.10486 0.0976065 -9.8716e-06)
(0.999096 -0.0638379 2.61252e-05)
(1.02302 -0.193296 4.16647e-05)
(1.05665 -0.328605 6.50448e-05)
(1.13345 -0.473493 1.26529e-05)
(1.22846 -0.622296 3.39624e-05)
(1.38383 -0.764075 -0.000178642)
(1.60476 -0.893423 -7.15802e-05)
(1.80577 -0.869315 -0.00013078)
(1.85676 -0.778348 5.16274e-05)
(1.746 -0.533201 -0.000145685)
(1.49658 -0.304927 -0.000106331)
(1.21661 -0.16286 -5.53449e-05)
(0.797725 -0.0529308 -3.62784e-05)
(0.689068 -0.037283 -3.01123e-05)
(0.630603 -0.0339094 2.70969e-05)
(0.599302 -0.0361461 3.63371e-05)
(0.584469 -0.0381174 2.72371e-05)
(0.579016 -0.0380313 1.94175e-05)
(0.578218 -0.0360813 1.26662e-05)
(0.579516 -0.0329806 6.81913e-06)
(0.581825 -0.0293538 2.82379e-06)
(0.584759 -0.0256743 5.07002e-07)
(0.588233 -0.0222834 -7.17606e-07)
(0.592299 -0.0193981 -1.31531e-06)
(0.597075 -0.0171198 -1.58735e-06)
(0.602697 -0.0154491 -1.66139e-06)
(0.609309 -0.0142938 -1.62235e-06)
(0.617026 -0.0134856 -1.46829e-06)
(0.625951 -0.0127847 -1.25469e-06)
(0.636124 -0.0119155 -8.99286e-07)
(0.647573 -0.0105587 -4.55106e-07)
(0.660228 -0.00844523 7.80361e-08)
(0.674081 -0.00526844 8.69101e-07)
(0.688913 -0.000753482 4.12174e-07)
(0.704555 0.00516255 -2.5139e-07)
(0.720742 0.0125197 7.94007e-07)
(0.737401 0.0212689 1.30916e-06)
(0.754017 0.0311264 2.24784e-06)
(0.770617 0.0419 2.078e-06)
(0.786499 0.0529998 2.93135e-06)
(0.802002 0.064182 1.98075e-06)
(0.816119 0.074549 3.01202e-06)
(0.829732 0.0840934 1.21719e-06)
(0.841463 0.0915523 2.55371e-06)
(0.852855 0.0976892 3.11874e-07)