0 	6.70752e-10
1.57135 	-4.64405e-06
3.1427 	-2.94767e-05
4.71405 	-0.000109726
6.28539 	-0.000339313
7.85674 	-0.00104548
9.42809 	-0.00312288
10.9994 	-0.00464931
12.5708 	-0.00385075
14.1421 	0.250662
