/*--------------------------------*- C++ -*----------------------------------*\
  =========                 |
  \\      /  F ield         | OpenFOAM: The Open Source CFD Toolbox
   \\    /   O peration     | Website:  https://openfoam.org
    \\  /    A nd           | Version:  8
     \\/     M anipulation  |
\*---------------------------------------------------------------------------*/
FoamFile
{
    version     2.0;
    format      ascii;
    class       surfaceScalarField;
    location    "52";
    object      phi;
}
// * * * * * * * * * * * * * * * * * * * * * * * * * * * * * * * * * * * * * //

dimensions      [0 3 -1 0 0 0 0];

internalField   nonuniform List<scalar> 
760
(
0.0004
-6.78441e-20
0.0004
-4.53548e-19
0.0004
-1.12551e-18
0.0004
-2.11142e-18
0.0004
-3.3922e-18
0.0004
-5.00314e-18
0.0004
-7.11716e-18
0.0004
-9.93602e-18
0.0004
-1.34531e-17
0.0004
-1.78034e-17
0.0004
-2.31663e-17
0.0004
-2.98489e-17
0.0004
-3.8007e-17
0.0004
-4.78593e-17
0.0004
-5.98996e-17
0.0004
-7.42828e-17
0.0004
-9.16935e-17
0.0004
-1.12966e-16
0.0004
-1.37676e-16
-1.72936e-16
0.0004
-1.31278e-19
0.0004
-6.37338e-19
0.0004
-1.403e-18
0.0004
-2.50873e-18
0.0004
-3.82888e-18
0.0004
-5.62002e-18
0.0004
-7.86259e-18
0.0004
-1.06952e-17
0.0004
-1.42678e-17
0.0004
-1.87232e-17
0.0004
-2.42934e-17
0.0004
-3.09893e-17
0.0004
-3.91908e-17
0.0004
-4.9087e-17
0.0004
-6.1048e-17
0.0004
-7.55469e-17
0.0004
-9.30695e-17
0.0004
-1.14175e-16
0.0004
-1.3885e-16
-1.73998e-16
0.0004
-2.16956e-19
0.0004
-7.5317e-19
0.0004
-1.62882e-18
0.0004
-2.77771e-18
0.0004
-4.34232e-18
0.0004
-6.14911e-18
0.0004
-8.51759e-18
0.0004
-1.14304e-17
0.0004
-1.50482e-17
0.0004
-1.95897e-17
0.0004
-2.51923e-17
0.0004
-3.20225e-17
0.0004
-4.02601e-17
0.0004
-5.02083e-17
0.0004
-6.22216e-17
0.0004
-7.6735e-17
0.0004
-9.42781e-17
0.0004
-1.15479e-16
0.0004
-1.40089e-16
-1.75199e-16
0.0004
-2.51833e-19
0.0004
-8.54769e-19
0.0004
-1.81656e-18
0.0004
-3.08758e-18
0.0004
-4.684e-18
0.0004
-6.65448e-18
0.0004
-9.05623e-18
0.0004
-1.20206e-17
0.0004
-1.57658e-17
0.0004
-2.03944e-17
0.0004
-2.60017e-17
0.0004
-3.28793e-17
0.0004
-4.11651e-17
0.0004
-5.12431e-17
0.0004
-6.33415e-17
0.0004
-7.79101e-17
0.0004
-9.54614e-17
0.0004
-1.16707e-16
0.0004
-1.41259e-16
-1.76515e-16
0.0004
-2.61023e-19
0.0004
-9.80612e-19
0.0004
-1.96217e-18
0.0004
-3.25052e-18
0.0004
-4.87281e-18
0.0004
-6.96443e-18
0.0004
-9.52883e-18
0.0004
-1.25954e-17
0.0004
-1.64003e-17
0.0004
-2.10634e-17
0.0004
-2.66995e-17
0.0004
-3.36577e-17
0.0004
-4.20219e-17
0.0004
-5.21168e-17
0.0004
-6.4273e-17
0.0004
-7.89094e-17
0.0004
-9.65555e-17
0.0004
-1.17756e-16
0.0004
-1.42484e-16
-1.77745e-16
0.0004
-2.06067e-19
0.0004
-1.0142e-18
0.0004
-2.08022e-18
0.0004
-3.43561e-18
0.0004
-5.09483e-18
0.0004
-7.21901e-18
0.0004
-9.87066e-18
0.0004
-1.30077e-17
0.0004
-1.68238e-17
0.0004
-2.15781e-17
0.0004
-2.73482e-17
0.0004
-3.4278e-17
0.0004
-4.27326e-17
0.0004
-5.2891e-17
0.0004
-6.50564e-17
0.0004
-7.98067e-17
0.0004
-9.74132e-17
0.0004
-1.18723e-16
0.0004
-1.43504e-16
-1.78915e-16
0.0004
-2.2447e-19
0.0004
-1.00935e-18
0.0004
-2.12361e-18
0.0004
-3.46715e-18
0.0004
-5.25275e-18
0.0004
-7.46636e-18
0.0004
-1.00456e-17
0.0004
-1.32897e-17
0.0004
-1.72401e-17
0.0004
-2.20017e-17
0.0004
-2.78065e-17
0.0004
-3.47525e-17
0.0004
-4.328e-17
0.0004
-5.34895e-17
0.0004
-6.57657e-17
0.0004
-8.04982e-17
0.0004
-9.81751e-17
0.0004
-1.19483e-16
0.0004
-1.44295e-16
-1.79795e-16
0.0004
-2.34146e-19
0.0004
-1.04676e-18
0.0004
-2.17416e-18
0.0004
-3.54375e-18
0.0004
-5.36744e-18
0.0004
-7.5435e-18
0.0004
-1.01822e-17
0.0004
-1.3472e-17
0.0004
-1.75085e-17
0.0004
-2.23431e-17
0.0004
-2.81076e-17
0.0004
-3.51435e-17
0.0004
-4.36387e-17
0.0004
-5.38433e-17
0.0004
-6.62247e-17
0.0004
-8.10183e-17
0.0004
-9.87091e-17
0.0004
-1.20004e-16
0.0004
-1.44962e-16
-1.8051e-16
0.0004
-2.37044e-19
0.0004
-1.02658e-18
0.0004
-2.19877e-18
0.0004
-3.62582e-18
0.0004
-5.41535e-18
0.0004
-7.61796e-18
0.0004
-1.02725e-17
0.0004
-1.36008e-17
0.0004
-1.76315e-17
0.0004
-2.24428e-17
0.0004
-2.82618e-17
0.0004
-3.5342e-17
0.0004
-4.38342e-17
0.0004
-5.41123e-17
0.0004
-6.64735e-17
0.0004
-8.13e-17
0.0004
-9.90345e-17
0.0004
-1.2041e-16
0.0004
-1.4538e-16
-1.81003e-16
0.0004
-2.34469e-19
0.0004
-1.05825e-18
0.0004
-2.2059e-18
0.0004
-3.64913e-18
0.0004
-5.47026e-18
0.0004
-7.59645e-18
0.0004
-1.03532e-17
0.0004
-1.36431e-17
0.0004
-1.76583e-17
0.0004
-2.25255e-17
0.0004
-2.83138e-17
0.0004
-3.53285e-17
0.0004
-4.38762e-17
0.0004
-5.41896e-17
0.0004
-6.65516e-17
0.0004
-8.13558e-17
0.0004
-9.91344e-17
0.0004
-1.20499e-16
0.0004
-1.45442e-16
-1.81114e-16
0.0004
-2.16683e-19
0.0004
-1.06022e-18
0.0004
-2.24493e-18
0.0004
-3.71111e-18
0.0004
-5.39138e-18
0.0004
-7.5854e-18
0.0004
-1.03244e-17
0.0004
-1.35932e-17
0.0004
-1.75701e-17
0.0004
-2.24061e-17
0.0004
-2.82101e-17
0.0004
-3.52806e-17
0.0004
-4.38406e-17
0.0004
-5.40611e-17
0.0004
-6.63987e-17
0.0004
-8.12093e-17
0.0004
-9.89706e-17
0.0004
-1.2036e-16
0.0004
-1.45313e-16
-1.8095e-16
0.0004
-2.76334e-19
0.0004
-1.06322e-18
0.0004
-2.23421e-18
0.0004
-3.66334e-18
0.0004
-5.37116e-18
0.0004
-7.52907e-18
0.0004
-1.01962e-17
0.0004
-1.34641e-17
0.0004
-1.73889e-17
0.0004
-2.21472e-17
0.0004
-2.80195e-17
0.0004
-3.5136e-17
0.0004
-4.35998e-17
0.0004
-5.38335e-17
0.0004
-6.60943e-17
0.0004
-8.08339e-17
0.0004
-9.85871e-17
0.0004
-1.20026e-16
0.0004
-1.44972e-16
-1.80553e-16
0.0004
-3.47413e-19
0.0004
-1.10175e-18
0.0004
-2.16015e-18
0.0004
-3.53412e-18
0.0004
-5.27614e-18
0.0004
-7.38434e-18
0.0004
-1.00084e-17
0.0004
-1.32636e-17
0.0004
-1.71512e-17
0.0004
-2.18932e-17
0.0004
-2.77586e-17
0.0004
-3.47674e-17
0.0004
-4.31939e-17
0.0004
-5.33491e-17
0.0004
-6.56248e-17
0.0004
-8.03833e-17
0.0004
-9.80613e-17
0.0004
-1.19402e-16
0.0004
-1.44306e-16
-1.79782e-16
0.0004
-3.33201e-19
0.0004
-1.05866e-18
0.0004
-2.11114e-18
0.0004
-3.41991e-18
0.0004
-5.06224e-18
0.0004
-7.19104e-18
0.0004
-9.75724e-18
0.0004
-1.29311e-17
0.0004
-1.68409e-17
0.0004
-2.15431e-17
0.0004
-2.72788e-17
0.0004
-3.42221e-17
0.0004
-4.25986e-17
0.0004
-5.27934e-17
0.0004
-6.50387e-17
0.0004
-7.97316e-17
0.0004
-9.73727e-17
0.0004
-1.18612e-16
0.0004
-1.43381e-16
-1.78826e-16
0.0004
-2.41218e-19
0.0004
-1.00386e-18
0.0004
-1.96378e-18
0.0004
-3.27507e-18
0.0004
-4.90549e-18
0.0004
-6.95254e-18
0.0004
-9.41833e-18
0.0004
-1.25197e-17
0.0004
-1.63223e-17
0.0004
-2.10041e-17
0.0004
-2.67087e-17
0.0004
-3.355e-17
0.0004
-4.19233e-17
0.0004
-5.20576e-17
0.0004
-6.42086e-17
0.0004
-7.88541e-17
0.0004
-9.64384e-17
0.0004
-1.17602e-16
0.0004
-1.42365e-16
-1.77662e-16
0.0004
-2.38508e-19
0.0004
-9.07269e-19
0.0004
-1.86448e-18
0.0004
-3.05081e-18
0.0004
-4.61576e-18
0.0004
-6.54197e-18
0.0004
-9.00898e-18
0.0004
-1.19878e-17
0.0004
-1.57238e-17
0.0004
-2.03698e-17
0.0004
-2.5961e-17
0.0004
-3.28329e-17
0.0004
-4.10911e-17
0.0004
-5.11079e-17
0.0004
-6.32335e-17
0.0004
-7.77986e-17
0.0004
-9.5331e-17
0.0004
-1.16516e-16
0.0004
-1.41176e-16
-1.76408e-16
0.0004
-1.86883e-19
0.0004
-8.10925e-19
0.0004
-1.69246e-18
0.0004
-2.82169e-18
0.0004
-4.29695e-18
0.0004
-6.11014e-18
0.0004
-8.45281e-18
0.0004
-1.13542e-17
0.0004
-1.50003e-17
0.0004
-1.95388e-17
0.0004
-2.51606e-17
0.0004
-3.19285e-17
0.0004
-4.01002e-17
0.0004
-5.00455e-17
0.0004
-6.2093e-17
0.0004
-7.66606e-17
0.0004
-9.41913e-17
0.0004
-1.15379e-16
0.0004
-1.39946e-16
-1.75091e-16
0.0004
-1.62482e-19
0.0004
-6.3992e-19
0.0004
-1.43775e-18
0.0004
-2.48315e-18
0.0004
-3.82607e-18
0.0004
-5.60781e-18
0.0004
-7.79924e-18
0.0004
-1.06511e-17
0.0004
-1.4235e-17
0.0004
-1.86733e-17
0.0004
-2.41052e-17
0.0004
-3.08305e-17
0.0004
-3.89958e-17
0.0004
-4.89027e-17
0.0004
-6.09174e-17
0.0004
-7.54656e-17
0.0004
-9.2973e-17
0.0004
-1.14145e-16
0.0004
-1.38728e-16
-1.73846e-16
0.0004
-1.30745e-19
0.0004
-4.8346e-19
0.0004
-1.11924e-18
0.0004
-2.03955e-18
0.0004
-3.3075e-18
0.0004
-5.04795e-18
0.0004
-7.14222e-18
0.0004
-9.87503e-18
0.0004
-1.33565e-17
0.0004
-1.7692e-17
0.0004
-2.30758e-17
0.0004
-2.96949e-17
0.0004
-3.78045e-17
0.0004
-4.76858e-17
0.0004
-5.96912e-17
0.0004
-7.4213e-17
0.0004
-9.17407e-17
0.0004
-1.129e-16
0.0004
-1.37521e-16
-1.72759e-16
0.0004
0.0004
0.0004
0.0004
0.0004
0.0004
0.0004
0.0004
0.0004
0.0004
0.0004
0.0004
0.0004
0.0004
0.0004
0.0004
0.0004
0.0004
0.0004
)
;

boundaryField
{
    inlet
    {
        type            calculated;
        value           nonuniform List<scalar> 
20
(
-0.0004
-0.0004
-0.0004
-0.0004
-0.0004
-0.0004
-0.0004
-0.0004
-0.0004
-0.0004
-0.0004
-0.0004
-0.0004
-0.0004
-0.0004
-0.0004
-0.0004
-0.0004
-0.0004
-0.0004
)
;
    }
    outlet
    {
        type            calculated;
        value           nonuniform List<scalar> 
20
(
0.0004
0.0004
0.0004
0.0004
0.0004
0.0004
0.0004
0.0004
0.0004
0.0004
0.0004
0.0004
0.0004
0.0004
0.0004
0.0004
0.0004
0.0004
0.0004
0.0004
)
;
    }
    up
    {
        type            calculated;
        value           nonuniform List<scalar> 
20
(
-2.63164e-20
-2.89986e-19
-7.99516e-19
-1.61616e-18
-2.79754e-18
-4.39061e-18
-6.44879e-18
-9.09493e-18
-1.24764e-17
-1.67036e-17
-2.19867e-17
-2.85314e-17
-3.65752e-17
-4.64006e-17
-5.83571e-17
-7.28835e-17
-9.04123e-17
-1.11668e-16
-1.36484e-16
-1.71964e-16
)
;
    }
    down
    {
        type            calculated;
        value           nonuniform List<scalar> 
20
(
1.16066e-20
2.44096e-19
8.17099e-19
1.67892e-18
2.85866e-18
4.41713e-18
6.4584e-18
9.10371e-18
1.25009e-17
1.67842e-17
2.211e-17
2.86943e-17
3.67652e-17
4.66025e-17
5.85348e-17
7.30142e-17
9.04848e-17
1.11749e-16
1.36583e-16
1.72065e-16
)
;
    }
    frontAndBack
    {
        type            empty;
        value           nonuniform List<scalar> 0();
    }
}


// ************************************************************************* //
