/*--------------------------------*- C++ -*----------------------------------*\
  =========                 |
  \\      /  F ield         | OpenFOAM: The Open Source CFD Toolbox
   \\    /   O peration     | Website:  https://openfoam.org
    \\  /    A nd           | Version:  8
     \\/     M anipulation  |
\*---------------------------------------------------------------------------*/
FoamFile
{
    version     2.0;
    format      ascii;
    class       volVectorField;
    location    "15";
    object      U;
}
// * * * * * * * * * * * * * * * * * * * * * * * * * * * * * * * * * * * * * //

dimensions      [0 1 -1 0 0 0 0];

internalField   nonuniform List<vector> 
464
(
(-7.58049e-05 7.4773e-05 0)
(-0.000229403 7.52014e-05 0)
(-0.000379995 7.14903e-05 0)
(-0.000520381 6.60538e-05 0)
(-0.000648243 5.90984e-05 0)
(-0.000760706 5.08346e-05 0)
(-0.000854563 4.1503e-05 0)
(-0.000932049 3.10418e-05 0)
(-0.000979629 2.00259e-05 0)
(-0.0010336 6.97986e-06 0)
(-0.00100706 -5.17929e-06 0)
(-0.00108423 -1.29982e-05 0)
(-7.99773e-05 0.00023066 0)
(-0.000241959 0.0002319 0)
(-0.00040066 0.000220411 0)
(-0.000548492 0.000203602 0)
(-0.000683018 0.000182168 0)
(-0.00080122 0.000156886 0)
(-0.000900084 0.000128903 0)
(-0.000981522 9.88581e-05 0)
(-0.00103318 7.10635e-05 0)
(-0.00108988 3.79773e-05 0)
(-0.00106782 3.1928e-05 0)
(-0.00114879 -1.60073e-05 0)
(-8.38945e-05 0.000395186 0)
(-0.000253748 0.000397162 0)
(-0.000419976 0.000377302 0)
(-0.000574508 0.00034826 0)
(-0.00071472 0.000311238 0)
(-0.000837127 0.00026755 0)
(-0.000938583 0.000218903 0)
(-0.00101817 0.000166469 0)
(-0.00107029 0.000114765 0)
(-0.00110399 5.71598e-05 0)
(-0.00109188 2.59619e-05 0)
(-0.00107746 -4.46767e-05 0)
(-8.99487e-05 0.00056848 0)
(-0.000271952 0.00057109 0)
(-0.000449798 0.000542143 0)
(-0.000614723 0.000499853 0)
(-0.000763935 0.000446023 0)
(-0.000893797 0.000382499 0)
(-0.00100143 0.000311388 0)
(-0.00108595 0.00023427 0)
(-0.00114279 0.000154356 0)
(-0.001179 7.0536e-05 0)
(-0.00116993 -6.17879e-06 0)
(-0.00115293 -9.86435e-05 0)
(-9.84229e-05 0.000756495 0)
(-0.000297383 0.00075954 0)
(-0.000491375 0.000720343 0)
(-0.00067063 0.000663176 0)
(-0.000832076 0.000590695 0)
(-0.000971763 0.000505396 0)
(-0.00108681 0.000410136 0)
(-0.0011752 0.000307284 0)
(-0.00123403 0.000200457 0)
(-0.00126452 8.94918e-05 0)
(-0.00126106 -1.55923e-05 0)
(-0.00123021 -0.000133704 0)
(-0.0001097 0.000963857 0)
(-0.00033111 0.000967006 0)
(-0.000546374 0.000915955 0)
(-0.000744372 0.00084163 0)
(-0.000921715 0.000747982 0)
(-0.00107436 0.000638166 0)
(-0.00119955 0.000515863 0)
(-0.00129563 0.000384007 0)
(-0.00136059 0.000245538 0)
(-0.00139505 0.000101891 0)
(-0.00139314 -4.2629e-05 0)
(-0.00136071 -0.000191076 0)
(-0.000124319 0.001197 0)
(-0.000374594 0.00119954 0)
(-0.000617019 0.00113434 0)
(-0.000838604 0.00103955 0)
(-0.00103554 0.000921445 0)
(-0.00120388 0.000783752 0)
(-0.00134097 0.000631519 0)
(-0.00144552 0.000468315 0)
(-0.00151614 0.000297723 0)
(-0.00155268 0.00012188 0)
(-0.00155403 -5.53074e-05 0)
(-0.00152097 -0.00023659 0)
(-0.000143226 0.00146161 0)
(-0.000430159 0.00146273 0)
(-0.000706692 0.00138056 0)
(-0.000957271 0.00126092 0)
(-0.00117751 0.00111417 0)
(-0.00136428 0.00094419 0)
(-0.00151498 0.000758152 0)
(-0.00162943 0.000560046 0)
(-0.00170703 0.000353825 0)
(-0.00174808 0.000141844 0)
(-0.00175161 -7.33025e-05 0)
(-0.00171825 -0.000290492 0)
(-0.000167285 0.00177281 0)
(-0.000500113 0.00176867 0)
(-0.000819219 0.00166445 0)
(-0.001105 0.00151177 0)
(-0.00135226 0.00133022 0)
(-0.0015599 0.00112172 0)
(-0.00172512 0.000897233 0)
(-0.00184985 0.000660552 0)
(-0.00193434 0.000416182 0)
(-0.00197981 0.000166446 0)
(-0.00198636 -8.66112e-05 0)
(-0.00195381 -0.000342441 0)
(-0.000200781 0.00211276 0)
(-0.000592395 0.00210498 0)
(-0.000964063 0.00197769 0)
(-0.00129152 0.00178853 0)
(-0.00156756 0.00156853 0)
(-0.00179727 0.00131601 0)
(-0.00197615 0.00104857 0)
(-0.00211048 0.000769389 0)
(-0.00220114 0.000484043 0)
(-0.00225087 0.000194342 0)
(-0.0022605 -9.85517e-05 0)
(-0.00222978 -0.000394792 0)
(-0.000239129 0.00259837 0)
(-0.000699781 0.00255806 0)
(-0.00113618 0.00239052 0)
(-0.00151419 0.0021255 0)
(-0.00182478 0.00184807 0)
(-0.00207987 0.00153253 0)
(-0.00227173 0.0012128 0)
(-0.00241438 0.00088552 0)
(-0.00250939 0.000556678 0)
(-0.0025624 0.000225661 0)
(-0.0025755 -0.000108782 0)
(-0.0025483 -0.000447343 0)
(-0.00031911 0.00299635 0)
(-0.000878864 0.00295104 0)
(-0.00139719 0.00275531 0)
(-0.00183402 0.00243923 0)
(-0.00216044 0.00211681 0)
(-0.00243254 0.00174547 0)
(-0.00262313 0.00137733 0)
(-0.0027666 0.00100292 0)
(-0.00286099 0.000631556 0)
(-0.00291633 0.000261225 0)
(-0.0029335 -0.0001094 0)
(-0.00291304 -0.000486262 0)
(-0.000375713 0.00388925 0)
(-0.00103296 0.00369565 0)
(-0.00164844 0.0034373 0)
(-0.00215302 0.00291378 0)
(-0.00251847 0.00250701 0)
(-0.00281951 0.0020086 0)
(-0.00301431 0.00156685 0)
(-0.00316019 0.00112757 0)
(-0.00325109 0.000707336 0)
(-0.00330335 0.00029494 0)
(-0.00332297 -0.000118584 0)
(-0.00331011 -0.000540141 0)
(-0.000629879 0.00428265 0)
(-0.00144871 0.00410757 0)
(-0.00217938 0.00379986 0)
(-0.00276464 0.00321567 0)
(-0.00306493 0.00275329 0)
(-0.00337271 0.00219006 0)
(-0.00350393 0.00170444 0)
(-0.00362607 0.00122323 0)
(-0.0036936 0.000772636 0)
(-0.00374227 0.000337341 0)
(-0.00376862 -9.19017e-05 0)
(-0.00377484 -0.000530202 0)
(-0.000679604 0.00616848 0)
(-0.00164879 0.00533768 0)
(-0.00253933 0.00494944 0)
(-0.00320206 0.00381882 0)
(-0.00354385 0.00324862 0)
(-0.00386932 0.00244476 0)
(-0.00398122 0.00188388 0)
(-0.00409218 0.00132026 0)
(-0.00413701 0.000828798 0)
(-0.00416788 0.000360919 0)
(-0.00419044 -9.92044e-05 0)
(-0.00420509 -0.000572905 0)
(-0.00165137 0.00636495 0)
(-0.00285797 0.00576877 0)
(-0.00369496 0.00522655 0)
(-0.00446674 0.00406307 0)
(-0.0044353 0.00338689 0)
(-0.00473743 0.00252628 0)
(-0.00462736 0.00192668 0)
(-0.00468103 0.00134302 0)
(-0.00465282 0.000851306 0)
(-0.00467031 0.000398003 0)
(-0.00470255 -3.52494e-05 0)
(-0.00475309 -0.000481569 0)
(-0.0014402 0.0111082 0)
(-0.00301327 0.00744868 0)
(-0.00423706 0.0069299 0)
(-0.00505561 0.00450971 0)
(-0.00508087 0.00374876 0)
(-0.00533259 0.00258248 0)
(-0.00516481 0.0019383 0)
(-0.00516808 0.00131244 0)
(-0.00508206 0.000829033 0)
(-0.00505436 0.000389322 0)
(-0.0050698 -2.44976e-05 0)
(-0.00511103 -0.000456613 0)
(-0.00542742 0.010307 0)
(-0.00734748 0.00836394 0)
(-0.00656634 0.00710401 0)
(-0.0076511 0.00475905 0)
(-0.00634637 0.00366752 0)
(-0.00654587 0.00249155 0)
(-0.00589153 0.00180199 0)
(-0.00578534 0.00120796 0)
(-0.00556955 0.000772334 0)
(-0.0055165 0.000395014 0)
(-0.00554001 5.63428e-05 0)
(-0.00563724 -0.000288096 0)
(-0.00917371 0.0249397 0)
(-0.00871717 0.00807589 0)
(-0.00896446 0.00786186 0)
(-0.00858798 0.00387038 0)
(-0.00714966 0.00291497 0)
(-0.00674965 0.00191983 0)
(-0.00585084 0.00127998 0)
(-0.00551236 0.000895025 0)
(-0.00513937 0.000564653 0)
(-0.00496164 0.000320477 0)
(-0.00489656 0.000108568 0)
(-0.00488883 -0.000102623 0)
(0.0268465 0.026825 0)
(0.026675 0.00825138 0)
(0.0414521 0.00679122 0)
(0.0428975 0.00295322 0)
(0.0472503 0.00192162 0)
(0.0484263 0.00113044 0)
(0.0498676 0.000675918 0)
(0.0505995 0.000450289 0)
(0.0511216 0.000271709 0)
(0.0514408 0.000151798 0)
(0.0515805 4.34326e-05 0)
(0.0516237 -5.55528e-05 0)
(-0.00094423 0.000510661 0)
(-0.000646243 0.00026942 0)
(-0.000557205 5.26803e-05 0)
(-0.000430039 -7.5147e-05 0)
(-0.000340713 -0.000175089 0)
(-0.000240438 -0.000242632 0)
(-0.000143883 -0.000286358 0)
(-4.70988e-05 -0.000298311 0)
(-0.00100426 7.99862e-05 0)
(-0.000711052 -4.06571e-05 0)
(-0.000615094 -0.000122155 0)
(-0.000480646 -0.000220903 0)
(-0.000382618 -0.000295745 0)
(-0.000273488 -0.000356667 0)
(-0.000164531 -0.000396942 0)
(-5.41875e-05 -0.000404852 0)
(-0.000988432 2.23281e-05 0)
(-0.000848567 -0.000108145 0)
(-0.000737442 -0.000199546 0)
(-0.000603603 -0.000310427 0)
(-0.000476467 -0.000397483 0)
(-0.000341751 -0.000467842 0)
(-0.000204307 -0.000515296 0)
(-6.71241e-05 -0.000523341 0)
(-0.00106791 -0.000158895 0)
(-0.000932837 -0.000269532 0)
(-0.000817399 -0.000364828 0)
(-0.000678574 -0.000464744 0)
(-0.000540052 -0.000549764 0)
(-0.000391475 -0.000618912 0)
(-0.000235917 -0.000666995 0)
(-7.79501e-05 -0.000671364 0)
(-0.00115931 -0.000223368 0)
(-0.00105448 -0.00035539 0)
(-0.000932666 -0.000473809 0)
(-0.000788529 -0.000592941 0)
(-0.000630634 -0.000695796 0)
(-0.000459193 -0.000778938 0)
(-0.000277075 -0.000836242 0)
(-9.15954e-05 -0.000839996 0)
(-0.0012896 -0.000333402 0)
(-0.00118326 -0.000482373 0)
(-0.00105496 -0.000623731 0)
(-0.000900559 -0.000757407 0)
(-0.000726055 -0.000874279 0)
(-0.000532194 -0.000969436 0)
(-0.000322399 -0.00103564 0)
(-0.000106857 -0.0010385 0)
(-0.00145061 -0.000412846 0)
(-0.0013448 -0.000593565 0)
(-0.0012077 -0.000765981 0)
(-0.00103907 -0.000927917 0)
(-0.000842666 -0.00106937 0)
(-0.000620897 -0.00118521 0)
(-0.000377547 -0.00126572 0)
(-0.000125522 -0.00126969 0)
(-0.00164659 -0.000506153 0)
(-0.00153639 -0.000720691 0)
(-0.00138931 -0.00092711 0)
(-0.00120395 -0.00112124 0)
(-0.000983347 -0.00129208 0)
(-0.000728962 -0.00143477 0)
(-0.000445257 -0.00153353 0)
(-0.000148782 -0.00154035 0)
(-0.00188081 -0.000598145 0)
(-0.00176575 -0.0008529 0)
(-0.00160825 -0.00110021 0)
(-0.00140404 -0.00133648 0)
(-0.0011562 -0.0015459 0)
(-0.000862868 -0.00172786 0)
(-0.000529682 -0.00185221 0)
(-0.000178385 -0.00186815 0)
(-0.00215705 -0.000693044 0)
(-0.00203846 -0.000992046 0)
(-0.00187289 -0.00128467 0)
(-0.00164965 -0.00156945 0)
(-0.00137471 -0.00182122 0)
(-0.00103592 -0.00204959 0)
(-0.00064186 -0.00220066 0)
(-0.000220394 -0.00222877 0)
(-0.00247806 -0.000792025 0)
(-0.00235738 -0.00114436 0)
(-0.00218563 -0.00149695 0)
(-0.00194061 -0.0018584 0)
(-0.00163628 -0.00217806 0)
(-0.00124313 -0.00250269 0)
(-0.000776544 -0.00270323 0)
(-0.0002734 -0.00277569 0)
(-0.00285408 -0.000871238 0)
(-0.00274344 -0.00126874 0)
(-0.00258693 -0.00166629 0)
(-0.00233091 -0.00209294 0)
(-0.00201895 -0.00245093 0)
(-0.00156225 -0.00286356 0)
(-0.000997624 -0.00308687 0)
(-0.00037465 -0.0032077 0)
(-0.00326046 -0.000980301 0)
(-0.00315238 -0.00145547 0)
(-0.00300954 -0.00193857 0)
(-0.00272534 -0.00252362 0)
(-0.00240629 -0.00299301 0)
(-0.00188068 -0.00365876 0)
(-0.00121849 -0.00398148 0)
(-0.000491116 -0.00427941 0)
(-0.00376952 -0.000987006 0)
(-0.00370212 -0.00149363 0)
(-0.00365511 -0.00198284 0)
(-0.00338642 -0.00265375 0)
(-0.00315355 -0.00311433 0)
(-0.00255353 -0.00395877 0)
(-0.00174407 -0.00426568 0)
(-0.000797601 -0.00475384 0)
(-0.0042235 -0.00107712 0)
(-0.00414803 -0.0016866 0)
(-0.00416805 -0.00228115 0)
(-0.0038572 -0.00324093 0)
(-0.00370685 -0.00389855 0)
(-0.00303686 -0.00536653 0)
(-0.00215535 -0.00591328 0)
(-0.00112521 -0.00711751 0)
(-0.00488359 -0.000941563 0)
(-0.00490794 -0.00154011 0)
(-0.00520987 -0.00204066 0)
(-0.00500938 -0.00307806 0)
(-0.00527702 -0.00356222 0)
(-0.00457965 -0.00536586 0)
(-0.00369614 -0.00572145 0)
(-0.00221731 -0.00770114 0)
(-0.0052809 -0.000917916 0)
(-0.00524608 -0.00156923 0)
(-0.0057007 -0.00217702 0)
(-0.00537755 -0.00356476 0)
(-0.00596944 -0.00439312 0)
(-0.00521245 -0.00754127 0)
(-0.00465116 -0.00855185 0)
(-0.00337118 -0.0136919 0)
(-0.00598554 -0.000628087 0)
(-0.00615796 -0.00117598 0)
(-0.00719192 -0.00152252 0)
(-0.00722491 -0.00284993 0)
(-0.00922319 -0.00306079 0)
(-0.00872531 -0.00653625 0)
(-0.00999829 -0.00661034 0)
(-0.007277 -0.0150196 0)
(-0.00519887 -0.00033846 0)
(-0.00508712 -0.000650775 0)
(-0.00619405 -0.00100219 0)
(-0.00543135 -0.00213043 0)
(-0.00787468 -0.00279938 0)
(-0.00561757 -0.00787367 0)
(-0.00862528 -0.0102323 0)
(-0.00356811 -0.0326903 0)
(0.051282 -0.000224223 0)
(0.0514196 -0.000355585 0)
(0.0496174 -0.000711199 0)
(0.0505697 -0.00143427 0)
(0.044739 -0.00196939 0)
(0.0471721 -0.00586048 0)
(0.0288816 -0.00700166 0)
(0.0316499 -0.0254683 0)
(-7.2353e-06 -1.8871e-06 0)
(-2.06178e-05 -2.65274e-06 0)
(-3.02833e-05 -3.78422e-06 0)
(-3.48148e-05 -5.38947e-06 0)
(-3.39469e-05 -6.28313e-06 0)
(-2.80678e-05 -7.17104e-06 0)
(-1.82434e-05 -7.70228e-06 0)
(-6.20853e-06 -7.80124e-06 0)
(-8.24233e-06 3.05411e-05 0)
(-2.31563e-05 2.65276e-05 0)
(-3.39263e-05 1.84403e-05 0)
(-3.83549e-05 9.34381e-06 0)
(-3.67435e-05 -2.63905e-07 0)
(-3.03285e-05 -8.16788e-06 0)
(-1.96297e-05 -1.39261e-05 0)
(-6.70203e-06 -1.62744e-05 0)
(-1.23159e-05 2.73328e-05 0)
(-3.41967e-05 2.11758e-05 0)
(-4.83889e-05 9.99161e-06 0)
(-5.45696e-05 -3.27495e-06 0)
(-5.24825e-05 -1.51928e-05 0)
(-4.25822e-05 -2.54967e-05 0)
(-2.743e-05 -3.27138e-05 0)
(-9.26885e-06 -3.53764e-05 0)
(-1.53102e-05 8.13587e-05 0)
(-4.14224e-05 6.6492e-05 0)
(-5.83968e-05 4.12546e-05 0)
(-6.35513e-05 1.47626e-05 0)
(-5.89772e-05 -1.09094e-05 0)
(-4.78699e-05 -3.11561e-05 0)
(-3.05669e-05 -4.53859e-05 0)
(-1.04074e-05 -5.0869e-05 0)
(-2.95495e-05 7.7742e-05 0)
(-7.66906e-05 5.88852e-05 0)
(-0.00010014 2.82825e-05 0)
(-0.000106732 -4.37542e-06 0)
(-9.83979e-05 -3.32462e-05 0)
(-7.70713e-05 -5.70573e-05 0)
(-4.87121e-05 -7.35319e-05 0)
(-1.63068e-05 -7.94457e-05 0)
(-3.66029e-05 0.000198236 0)
(-9.33485e-05 0.000145763 0)
(-0.000121689 7.61985e-05 0)
(-0.000125087 1.52271e-05 0)
(-0.000111666 -3.76747e-05 0)
(-8.81856e-05 -7.65218e-05 0)
(-5.53601e-05 -0.0001025 0)
(-1.86994e-05 -0.000111731 0)
(-8.79776e-05 0.000193334 0)
(-0.000204677 0.00013258 0)
(-0.00023072 5.25891e-05 0)
(-0.000220587 -1.5688e-05 0)
(-0.000190131 -7.50231e-05 0)
(-0.000141918 -0.00011907 0)
(-8.73176e-05 -0.000148868 0)
(-2.89042e-05 -0.000158634 0)
(-0.000110592 0.000516617 0)
(-0.000240274 0.000305517 0)
(-0.000270098 9.80742e-05 0)
(-0.000252731 -2.1071e-05 0)
(-0.000215075 -0.000111542 0)
(-0.000162096 -0.000171713 0)
(-9.9758e-05 -0.000210024 0)
(-3.3244e-05 -0.00022158 0)
)
;

boundaryField
{
    movingWall
    {
        type            fixedValue;
        value           uniform (1 0 0);
    }
    fixedWalls
    {
        type            noSlip;
    }
    frontAndBack
    {
        type            empty;
    }
}


// ************************************************************************* //
