/*--------------------------------*- C++ -*----------------------------------*\
  =========                 |
  \\      /  F ield         | OpenFOAM: The Open Source CFD Toolbox
   \\    /   O peration     | Website:  https://openfoam.org
    \\  /    A nd           | Version:  8
     \\/     M anipulation  |
\*---------------------------------------------------------------------------*/
FoamFile
{
    version     2.0;
    format      ascii;
    class       volScalarField;
    location    "30";
    object      p;
}
// * * * * * * * * * * * * * * * * * * * * * * * * * * * * * * * * * * * * * //

dimensions      [0 2 -2 0 0 0 0];

internalField   nonuniform List<scalar> 
46400
(
-3.65915e-09
-1.31492e-07
-1.88389e-07
-1.65842e-07
-3.85594e-08
2.04572e-07
5.65681e-07
1.04361e-06
1.63642e-06
2.34227e-06
3.15979e-06
4.08807e-06
5.1266e-06
6.27507e-06
7.53329e-06
8.90111e-06
1.03784e-05
1.19651e-05
1.36611e-05
1.54665e-05
1.73811e-05
1.94047e-05
2.15373e-05
2.37788e-05
2.6129e-05
2.85878e-05
3.11549e-05
3.38305e-05
3.66143e-05
3.95063e-05
4.25064e-05
4.56143e-05
4.88298e-05
5.21529e-05
5.55833e-05
5.91208e-05
6.27651e-05
6.65159e-05
7.03732e-05
7.43368e-05
7.84064e-05
8.25816e-05
8.68621e-05
9.12476e-05
9.57379e-05
0.000100333
0.000105032
0.000109835
0.000114741
0.00011975
0.000124861
0.000130074
0.000135389
0.000140805
0.000146321
0.000151937
0.000157652
0.000163467
0.000169379
0.000175389
0.000181496
0.000187699
0.000193997
0.00020039
0.000206877
0.000213457
0.000220129
0.000226893
0.000233747
0.000240692
0.000247725
0.000254846
0.000262053
0.000269347
0.000276725
0.000284187
0.000291732
0.000299359
0.000307066
0.000314852
0.000322716
0.000330657
0.000338674
0.000346766
0.00035493
0.000363167
0.000371474
0.00037985
0.000388294
0.000396805
0.000405381
0.000414021
0.000422724
0.000431487
0.000440311
0.000449193
0.000458131
0.000467126
0.000476176
0.000485279
0.000494434
0.000503639
0.000512894
0.000522196
0.000531544
0.000540937
0.000550372
0.000559845
0.000569354
0.00057889
0.000588444
0.000597998
0.000607523
0.00061697
0.000626258
0.000635271
0.000643903
0.000652092
0.000659705
0.000669404
1.23549e-07
-4.33511e-09
-2.59791e-08
3.55303e-08
1.9223e-07
4.54994e-07
8.27892e-07
1.31216e-06
1.90797e-06
2.61503e-06
3.43292e-06
4.3612e-06
5.39954e-06
6.54772e-06
7.80561e-06
9.1731e-06
1.06501e-05
1.22365e-05
1.39322e-05
1.57372e-05
1.76514e-05
1.96747e-05
2.18069e-05
2.40479e-05
2.63975e-05
2.88558e-05
3.14226e-05
3.40976e-05
3.68809e-05
3.97723e-05
4.27718e-05
4.58791e-05
4.9094e-05
5.24163e-05
5.5846e-05
5.93827e-05
6.30264e-05
6.67765e-05
7.06329e-05
7.45954e-05
7.86639e-05
8.28383e-05
8.71181e-05
9.15028e-05
9.59922e-05
0.000100586
0.000105284
0.000110086
0.00011499
0.000119998
0.000125108
0.00013032
0.000135634
0.000141048
0.000146563
0.000152177
0.000157892
0.000163705
0.000169616
0.000175624
0.000181729
0.00018793
0.000194227
0.000200618
0.000207104
0.000213682
0.000220352
0.000227114
0.000233967
0.000240909
0.00024794
0.000255059
0.000262265
0.000269557
0.000276933
0.000284394
0.000291936
0.000299561
0.000307266
0.00031505
0.000322913
0.000330852
0.000338867
0.000346956
0.000355119
0.000363353
0.000371659
0.000380033
0.000388476
0.000396986
0.00040556
0.000414199
0.0004229
0.000431664
0.000440487
0.000449369
0.000458308
0.000467304
0.000476355
0.00048546
0.000494618
0.000503828
0.000513087
0.000522396
0.000531753
0.000541156
0.000550604
0.000560094
0.000569625
0.000579191
0.000588788
0.000598407
0.000608041
0.000617679
0.000627322
0.000637005
0.000646859
0.000657142
0.000668357
0.000683324
1.80619e-07
1.69667e-08
-4.54138e-09
6.60327e-08
2.32178e-07
5.02893e-07
8.81679e-07
1.36989e-06
1.96814e-06
2.6766e-06
3.49523e-06
4.42391e-06
5.46245e-06
6.61071e-06
7.86857e-06
9.23596e-06
1.07128e-05
1.22991e-05
1.39947e-05
1.57995e-05
1.77135e-05
1.97366e-05
2.18686e-05
2.41094e-05
2.64588e-05
2.89168e-05
3.14833e-05
3.41583e-05
3.69414e-05
3.98327e-05
4.28318e-05
4.59389e-05
4.91535e-05
5.24756e-05
5.59049e-05
5.94412e-05
6.30845e-05
6.68345e-05
7.06908e-05
7.4653e-05
7.87212e-05
8.2895e-05
8.71744e-05
9.1559e-05
9.60482e-05
0.000100642
0.000105339
0.00011014
0.000115045
0.000120052
0.000125162
0.000130374
0.000135687
0.000141101
0.000146616
0.00015223
0.000157943
0.000163756
0.000169667
0.000175675
0.00018178
0.000187981
0.000194277
0.000200668
0.000207153
0.000213731
0.000220401
0.000227163
0.000234015
0.000240958
0.000247988
0.000255107
0.000262312
0.000269604
0.000276981
0.000284441
0.000291984
0.000299608
0.000307313
0.000315097
0.00032296
0.000330899
0.000338914
0.000347003
0.000355166
0.000363401
0.000371707
0.000380082
0.000388525
0.000397035
0.000405611
0.00041425
0.000422953
0.000431717
0.000440542
0.000449425
0.000458367
0.000467365
0.000476419
0.000485527
0.000494689
0.000503903
0.000513168
0.000522483
0.000531848
0.000541261
0.000550722
0.00056023
0.000569783
0.00057938
0.00058902
0.000598702
0.000608429
0.000618211
0.000628075
0.000638094
0.000648427
0.000659353
0.000671449
0.000686449
1.56744e-07
-4.66515e-08
-7.67981e-08
-5.83552e-09
1.63585e-07
4.38376e-07
8.20887e-07
1.31203e-06
1.91239e-06
2.62228e-06
3.4418e-06
4.37099e-06
5.40985e-06
6.55831e-06
7.81629e-06
9.18372e-06
1.06606e-05
1.22468e-05
1.39424e-05
1.57471e-05
1.7661e-05
1.96839e-05
2.18158e-05
2.40565e-05
2.64059e-05
2.88638e-05
3.14303e-05
3.41052e-05
3.68883e-05
3.97795e-05
4.27786e-05
4.58855e-05
4.91001e-05
5.24221e-05
5.58514e-05
5.93877e-05
6.30307e-05
6.67806e-05
7.06369e-05
7.45994e-05
7.86677e-05
8.28416e-05
8.71208e-05
9.15053e-05
9.59945e-05
0.000100588
0.000105286
0.000110087
0.000114991
0.000119999
0.000125109
0.000130321
0.000135634
0.000141048
0.000146563
0.000152178
0.000157892
0.000163705
0.000169616
0.000175624
0.00018173
0.000187931
0.000194228
0.000200619
0.000207105
0.000213683
0.000220354
0.000227117
0.00023397
0.000240913
0.000247944
0.000255064
0.00026227
0.000269563
0.00027694
0.000284401
0.000291945
0.000299571
0.000307277
0.000315062
0.000322926
0.000330867
0.000338883
0.000346974
0.000355139
0.000363375
0.000371683
0.000380059
0.000388504
0.000397016
0.000405594
0.000414236
0.000422941
0.000431708
0.000440535
0.000449422
0.000458367
0.000467369
0.000476427
0.00048554
0.000494706
0.000503926
0.000513198
0.000522521
0.000531896
0.000541321
0.000550797
0.000560324
0.000569902
0.000579532
0.000589219
0.000598966
0.000608786
0.000618699
0.000628749
0.000639015
0.000649642
0.000660847
0.000673027
0.000686983
2.46203e-08
-2.09116e-07
-2.48327e-07
-1.79844e-07
-9.98911e-09
2.6664e-07
6.51306e-07
1.14438e-06
1.7463e-06
2.45736e-06
3.27772e-06
4.20748e-06
5.2467e-06
6.39542e-06
7.65362e-06
9.02123e-06
1.04982e-05
1.20845e-05
1.37801e-05
1.55849e-05
1.74987e-05
1.95216e-05
2.16534e-05
2.38941e-05
2.62435e-05
2.87016e-05
3.12682e-05
3.39432e-05
3.67264e-05
3.96177e-05
4.2617e-05
4.57239e-05
4.89385e-05
5.22606e-05
5.56901e-05
5.92266e-05
6.287e-05
6.66199e-05
7.04764e-05
7.44391e-05
7.85078e-05
8.26822e-05
8.69618e-05
9.13465e-05
9.58361e-05
0.00010043
0.000105128
0.00010993
0.000114835
0.000119843
0.000124953
0.000130166
0.00013548
0.000140895
0.000146411
0.000152027
0.000157742
0.000163556
0.000169468
0.000175477
0.000181583
0.000187786
0.000194084
0.000200477
0.000206963
0.000213543
0.000220216
0.00022698
0.000233834
0.000240779
0.000247812
0.000254934
0.000262142
0.000269437
0.000276816
0.000284279
0.000291825
0.000299453
0.000307162
0.00031495
0.000322816
0.000330759
0.000338778
0.000346872
0.000355039
0.000363279
0.000371589
0.000379969
0.000388417
0.000396933
0.000405514
0.000414159
0.000422868
0.000431639
0.000440471
0.000449362
0.000458312
0.000467318
0.000476382
0.0004855
0.000494673
0.000503899
0.000513179
0.000522512
0.000531897
0.000541336
0.000550827
0.000560374
0.000569977
0.000579641
0.000589371
0.000599177
0.000609076
0.000619093
0.000629275
0.000639695
0.000650464
0.000661734
0.00067372
0.000686712
-2.28778e-07
-4.83085e-07
-5.29951e-07
-4.64907e-07
-2.96156e-07
-1.91842e-08
3.66442e-07
8.60598e-07
1.4635e-06
2.17538e-06
2.99641e-06
3.9267e-06
4.96634e-06
6.11539e-06
7.37387e-06
8.74175e-06
1.02189e-05
1.18054e-05
1.35011e-05
1.53059e-05
1.72199e-05
1.92429e-05
2.13748e-05
2.36156e-05
2.59653e-05
2.84236e-05
3.09904e-05
3.36657e-05
3.64491e-05
3.93407e-05
4.23402e-05
4.54475e-05
4.86624e-05
5.19848e-05
5.54146e-05
5.89516e-05
6.25955e-05
6.6346e-05
7.0203e-05
7.41662e-05
7.82355e-05
8.24105e-05
8.66909e-05
9.10764e-05
9.55666e-05
0.000100161
0.00010486
0.000109663
0.000114569
0.000119578
0.00012469
0.000129904
0.000135219
0.000140636
0.000146153
0.00015177
0.000157487
0.000163302
0.000169216
0.000175227
0.000181335
0.000187539
0.00019384
0.000200234
0.000206723
0.000213306
0.00021998
0.000226747
0.000233604
0.000240551
0.000247588
0.000254712
0.000261924
0.000269221
0.000276604
0.00028407
0.000291619
0.000299251
0.000306963
0.000314754
0.000322624
0.000330572
0.000338595
0.000346693
0.000354864
0.000363108
0.000371422
0.000379807
0.00038826
0.00039678
0.000405366
0.000414016
0.00042273
0.000431507
0.000440344
0.000449241
0.000458196
0.000467209
0.000476279
0.000485404
0.000494584
0.000503819
0.000513107
0.00052245
0.000531846
0.000541297
0.000550804
0.000560369
0.000569995
0.000579687
0.000589453
0.000599303
0.000609257
0.000619339
0.000629591
0.00064007
0.000650851
0.000662026
0.000673691
0.000685912
-6.07213e-07
-8.74153e-07
-9.26657e-07
-8.64849e-07
-6.97721e-07
-4.2119e-07
-3.53478e-08
4.59301e-07
1.06276e-06
1.77518e-06
2.59671e-06
3.52747e-06
4.56755e-06
5.71699e-06
6.9758e-06
8.34399e-06
9.82148e-06
1.14082e-05
1.31041e-05
1.49092e-05
1.68233e-05
1.88466e-05
2.09788e-05
2.32199e-05
2.55698e-05
2.80284e-05
3.05956e-05
3.32713e-05
3.60551e-05
3.89471e-05
4.19471e-05
4.50549e-05
4.82705e-05
5.15935e-05
5.50239e-05
5.85615e-05
6.22061e-05
6.59575e-05
6.98154e-05
7.37794e-05
7.78496e-05
8.20255e-05
8.6307e-05
9.06936e-05
9.51851e-05
9.97812e-05
0.000104481
0.000109286
0.000114193
0.000119204
0.000124317
0.000129533
0.00013485
0.000140269
0.000145788
0.000151407
0.000157126
0.000162944
0.00016886
0.000174873
0.000180984
0.000187191
0.000193494
0.000199892
0.000206384
0.00021297
0.000219648
0.000226418
0.000233279
0.000240229
0.00024727
0.000254398
0.000261613
0.000268915
0.000276302
0.000283773
0.000291327
0.000298963
0.00030668
0.000314476
0.000322351
0.000330304
0.000338332
0.000346435
0.000354612
0.000362862
0.000371182
0.000379573
0.000388032
0.000396558
0.00040515
0.000413807
0.000422528
0.00043131
0.000440154
0.000449058
0.000458021
0.000467041
0.000476118
0.000485251
0.000494439
0.000503682
0.00051298
0.000522332
0.000531739
0.000541202
0.000550723
0.000560303
0.000569947
0.00057966
0.000589449
0.000599327
0.00060931
0.000619419
0.000629687
0.000640152
0.000650862
0.000661859
0.000673174
0.000684786
-1.11068e-06
-1.38471e-06
-1.44096e-06
-1.38168e-06
-1.21609e-06
-9.40282e-07
-5.5462e-07
-5.98427e-08
5.43911e-07
1.25669e-06
2.07861e-06
3.00978e-06
4.05028e-06
5.20014e-06
6.45933e-06
7.82784e-06
9.30566e-06
1.08927e-05
1.2589e-05
1.43943e-05
1.63088e-05
1.83324e-05
2.0465e-05
2.27066e-05
2.50569e-05
2.7516e-05
3.00837e-05
3.27598e-05
3.55443e-05
3.84369e-05
4.14376e-05
4.45461e-05
4.77625e-05
5.10864e-05
5.45178e-05
5.80563e-05
6.17018e-05
6.54543e-05
6.93133e-05
7.32786e-05
7.735e-05
8.15272e-05
8.58101e-05
9.01983e-05
9.46915e-05
9.92893e-05
0.000103992
0.000108798
0.000113707
0.00011872
0.000123836
0.000129054
0.000134373
0.000139794
0.000145316
0.000150938
0.00015666
0.00016248
0.000168399
0.000174416
0.000180531
0.000186741
0.000193048
0.00019945
0.000205946
0.000212535
0.000219218
0.000225992
0.000232857
0.000239813
0.000246858
0.000253992
0.000261212
0.000268519
0.000275912
0.000283388
0.000290948
0.00029859
0.000306313
0.000314115
0.000321997
0.000329956
0.000337991
0.000346101
0.000354285
0.000362541
0.000370869
0.000379267
0.000387733
0.000396267
0.000404867
0.000413531
0.00042226
0.00043105
0.000439902
0.000448814
0.000457785
0.000466813
0.000475898
0.00048504
0.000494237
0.000503489
0.000512796
0.000522158
0.000531575
0.000541048
0.00055058
0.000560172
0.000569827
0.000579553
0.000589355
0.000599243
0.000609231
0.000619336
0.00062958
0.000639986
0.000650578
0.000661371
0.000672359
0.000683493
-1.73793e-06
-2.01564e-06
-2.07426e-06
-2.01677e-06
-1.85242e-06
-1.57732e-06
-1.19199e-06
-6.97269e-07
-9.33828e-08
6.19665e-07
1.44192e-06
2.37346e-06
3.41436e-06
4.56461e-06
5.8242e-06
7.19307e-06
8.67122e-06
1.02586e-05
1.19553e-05
1.37612e-05
1.56761e-05
1.77002e-05
1.98333e-05
2.20754e-05
2.44263e-05
2.6886e-05
2.94543e-05
3.21311e-05
3.49164e-05
3.78099e-05
4.08114e-05
4.3921e-05
4.71383e-05
5.04633e-05
5.38959e-05
5.74356e-05
6.10825e-05
6.48362e-05
6.86966e-05
7.26634e-05
7.67364e-05
8.09154e-05
8.52001e-05
8.95902e-05
9.40855e-05
9.86857e-05
0.00010339
0.000108199
0.000113111
0.000118126
0.000123245
0.000128465
0.000133788
0.000139212
0.000144737
0.000150362
0.000156087
0.000161912
0.000167835
0.000173856
0.000179974
0.00018619
0.000192501
0.000198907
0.000205408
0.000212003
0.00021869
0.00022547
0.000232341
0.000239302
0.000246353
0.000253493
0.00026072
0.000268033
0.000275432
0.000282916
0.000290482
0.000298131
0.000305862
0.000313672
0.000321561
0.000329527
0.000337571
0.000345689
0.000353881
0.000362146
0.000370483
0.000378889
0.000387364
0.000395907
0.000404516
0.000413189
0.000421926
0.000430726
0.000439587
0.000448508
0.000457488
0.000466526
0.000475621
0.000484771
0.000493978
0.000503239
0.000512555
0.000521926
0.000531352
0.000540834
0.000550374
0.000559973
0.000569635
0.000579365
0.000589168
0.000599053
0.000609028
0.000619107
0.0006293
0.000639621
0.000650078
0.000660668
0.00067137
0.000682131
-2.48762e-06
-2.76711e-06
-2.82716e-06
-2.77088e-06
-2.60745e-06
-2.33295e-06
-1.94793e-06
-1.45332e-06
-8.49376e-07
-1.36116e-07
6.86455e-07
1.61836e-06
2.65961e-06
3.81023e-06
5.07019e-06
6.43944e-06
7.91799e-06
9.50584e-06
1.1203e-05
1.30094e-05
1.4925e-05
1.69497e-05
1.90835e-05
2.13262e-05
2.36778e-05
2.61382e-05
2.87073e-05
3.1385e-05
3.41712e-05
3.70657e-05
4.00685e-05
4.31792e-05
4.63977e-05
4.97241e-05
5.3158e-05
5.66993e-05
6.03477e-05
6.41031e-05
6.79652e-05
7.19338e-05
7.60088e-05
8.01899e-05
8.44768e-05
8.88693e-05
9.33672e-05
9.79699e-05
0.000102677
0.000107489
0.000112404
0.000117422
0.000122544
0.000127768
0.000133094
0.000138522
0.000144051
0.00014968
0.00015541
0.000161238
0.000167166
0.000173192
0.000179315
0.000185536
0.000191852
0.000198264
0.000204771
0.000211371
0.000218065
0.000224851
0.000231729
0.000238697
0.000245755
0.000252902
0.000260136
0.000267457
0.000274864
0.000282355
0.00028993
0.000297588
0.000305326
0.000313145
0.000321043
0.000329019
0.000337072
0.0003452
0.000353401
0.000361676
0.000370023
0.000378439
0.000386925
0.000395477
0.000404096
0.00041278
0.000421528
0.000430338
0.00043921
0.000448141
0.000457131
0.000466179
0.000475284
0.000484445
0.000493662
0.000502932
0.000512258
0.000521637
0.000531071
0.00054056
0.000550105
0.000559708
0.000569372
0.0005791
0.000588896
0.000598766
0.000608716
0.000618752
0.000628881
0.000639107
0.000649427
0.00065983
0.00067029
0.000680758
-3.35871e-06
-3.63898e-06
-3.69988e-06
-3.6444e-06
-3.48161e-06
-3.20757e-06
-2.8228e-06
-2.32827e-06
-1.72426e-06
-1.01081e-06
-1.87941e-07
7.44306e-07
1.78591e-06
2.93686e-06
4.19716e-06
5.56682e-06
7.04583e-06
8.63421e-06
1.03319e-05
1.2139e-05
1.40553e-05
1.60808e-05
1.82153e-05
2.04587e-05
2.28112e-05
2.52725e-05
2.78426e-05
3.05214e-05
3.33087e-05
3.62044e-05
3.92084e-05
4.23205e-05
4.55406e-05
4.88685e-05
5.2304e-05
5.5847e-05
5.94973e-05
6.32546e-05
6.71188e-05
7.10897e-05
7.5167e-05
7.93506e-05
8.36402e-05
8.80354e-05
9.25362e-05
9.71419e-05
0.000101852
0.000106667
0.000111586
0.000116608
0.000121733
0.000126961
0.000132292
0.000137724
0.000143257
0.000148891
0.000154626
0.00016046
0.000166393
0.000172424
0.000178553
0.000184779
0.000191102
0.000197521
0.000204034
0.000210641
0.000217342
0.000224136
0.000231021
0.000237997
0.000245063
0.000252218
0.000259461
0.000266791
0.000274206
0.000281707
0.000289291
0.000296958
0.000304707
0.000312536
0.000320444
0.000328431
0.000336494
0.000344633
0.000352846
0.000361132
0.000369489
0.000377917
0.000386414
0.000394979
0.000403609
0.000412305
0.000421065
0.000429887
0.00043877
0.000447713
0.000456715
0.000465774
0.00047489
0.000484062
0.000493288
0.000502569
0.000511903
0.000521291
0.000530732
0.000540226
0.000549775
0.000559379
0.000569041
0.000578762
0.000588545
0.000598393
0.00060831
0.000618297
0.000628356
0.000638485
0.000648677
0.000658916
0.000669174
0.000679411
-4.35045e-06
-4.63107e-06
-4.69246e-06
-4.63749e-06
-4.47514e-06
-4.20143e-06
-3.81685e-06
-3.32234e-06
-2.71821e-06
-2.00457e-06
-1.18143e-06
-2.48867e-07
7.9308e-07
1.94438e-06
3.20505e-06
4.57515e-06
6.0547e-06
7.64372e-06
9.34215e-06
1.11499e-05
1.3067e-05
1.50933e-05
1.72286e-05
1.9473e-05
2.18264e-05
2.42888e-05
2.686e-05
2.954e-05
3.23287e-05
3.52258e-05
3.82313e-05
4.1345e-05
4.45667e-05
4.78964e-05
5.13338e-05
5.48788e-05
5.85312e-05
6.22908e-05
6.61574e-05
7.01309e-05
7.42109e-05
7.83973e-05
8.26899e-05
8.70883e-05
9.15923e-05
9.62015e-05
0.000100916
0.000105734
0.000110657
0.000115683
0.000120813
0.000126045
0.00013138
0.000136817
0.000142356
0.000147996
0.000153736
0.000159575
0.000165515
0.000171552
0.000177688
0.000183921
0.00019025
0.000196676
0.000203197
0.000209812
0.000216521
0.000223323
0.000230217
0.000237202
0.000244277
0.000251441
0.000258694
0.000266033
0.000273459
0.00028097
0.000288565
0.000296243
0.000304003
0.000311844
0.000319764
0.000327762
0.000335837
0.000343988
0.000352213
0.000360512
0.000368882
0.000377323
0.000385833
0.000394411
0.000403055
0.000411764
0.000420536
0.000429371
0.000438267
0.000447223
0.000456238
0.00046531
0.000474438
0.000483621
0.000492859
0.00050215
0.000511493
0.000520889
0.000530337
0.000539836
0.000549387
0.000558991
0.000568648
0.000578359
0.000588125
0.000597948
0.000607828
0.000617764
0.000627754
0.000637792
0.000647869
0.000657966
0.000668059
0.000678111
-5.46239e-06
-5.7432e-06
-5.80491e-06
-5.75027e-06
-5.5882e-06
-5.31471e-06
-4.93025e-06
-4.43572e-06
-3.83145e-06
-3.11758e-06
-2.29419e-06
-1.36132e-06
-3.1903e-07
8.32667e-07
2.09379e-06
3.46441e-06
4.94458e-06
6.53431e-06
8.23353e-06
1.00421e-05
1.19601e-05
1.39872e-05
1.61235e-05
1.83689e-05
2.07234e-05
2.3187e-05
2.57595e-05
2.84409e-05
3.12311e-05
3.41297e-05
3.71369e-05
4.02523e-05
4.3476e-05
4.68077e-05
5.02473e-05
5.37945e-05
5.74493e-05
6.12115e-05
6.50808e-05
6.90572e-05
7.31403e-05
7.73299e-05
8.16258e-05
8.60278e-05
9.05354e-05
9.51484e-05
9.98664e-05
0.000104689
0.000109616
0.000114647
0.000119782
0.00012502
0.00013036
0.000135803
0.000141347
0.000146993
0.000152739
0.000158585
0.000164531
0.000170576
0.000176719
0.000182959
0.000189297
0.00019573
0.00020226
0.000208884
0.000215602
0.000222413
0.000229316
0.000236311
0.000243396
0.000250571
0.000257835
0.000265185
0.000272623
0.000280145
0.000287752
0.000295443
0.000303215
0.000311068
0.000319001
0.000327013
0.000335101
0.000343266
0.000351505
0.000359817
0.000368202
0.000376657
0.000385181
0.000393774
0.000402432
0.000411156
0.000419943
0.000428793
0.000437703
0.000446674
0.000455702
0.000464788
0.000473929
0.000483125
0.000492374
0.000501676
0.000511029
0.000520434
0.000529888
0.000539392
0.000548945
0.000558547
0.000568199
0.000577899
0.000587647
0.000597443
0.000607286
0.000617173
0.000627098
0.000637054
0.00064703
0.000657008
0.000666966
0.000676872
-6.69429e-06
-6.97525e-06
-7.03718e-06
-6.98279e-06
-6.82091e-06
-6.54753e-06
-6.16313e-06
-5.66856e-06
-5.06415e-06
-4.35004e-06
-3.52637e-06
-2.59319e-06
-1.55053e-06
-3.98373e-07
8.63307e-07
2.23456e-06
3.71545e-06
5.30595e-06
7.006e-06
8.81548e-06
1.07343e-05
1.27624e-05
1.48998e-05
1.71463e-05
1.95021e-05
2.1967e-05
2.4541e-05
2.72239e-05
3.00157e-05
3.29161e-05
3.59251e-05
3.90425e-05
4.22683e-05
4.56022e-05
4.90441e-05
5.25939e-05
5.62514e-05
6.00164e-05
6.38888e-05
6.78684e-05
7.1955e-05
7.61481e-05
8.04477e-05
8.48535e-05
8.93651e-05
9.39824e-05
9.87049e-05
0.000103532
0.000108464
0.000113501
0.000118641
0.000123884
0.00012923
0.000134679
0.00014023
0.000145882
0.000151636
0.000157489
0.000163442
0.000169495
0.000175646
0.000181895
0.000188241
0.000194684
0.000201223
0.000207856
0.000214584
0.000221406
0.00022832
0.000235325
0.000242422
0.000249608
0.000256883
0.000264246
0.000271696
0.000279232
0.000286852
0.000294556
0.000302342
0.000310209
0.000318157
0.000326182
0.000334286
0.000342465
0.000350719
0.000359047
0.000367447
0.000375918
0.000384459
0.000393067
0.000401742
0.000410482
0.000419285
0.000428151
0.000437077
0.000446063
0.000455107
0.000464208
0.000473363
0.000482573
0.000491835
0.000501149
0.000510513
0.000519927
0.000529388
0.000538897
0.000548453
0.000558054
0.000567699
0.000577388
0.000587119
0.00059689
0.000606698
0.000616539
0.000626407
0.000636292
0.000646182
0.000656062
0.00066591
0.0006757
-8.04603e-06
-8.32717e-06
-8.38926e-06
-8.33507e-06
-8.17335e-06
-7.90004e-06
-7.51563e-06
-7.02099e-06
-6.41643e-06
-5.70209e-06
-4.87812e-06
-3.94457e-06
-2.90148e-06
-1.74879e-06
-4.86471e-07
8.85521e-07
2.36719e-06
3.95852e-06
5.65943e-06
7.46984e-06
9.38965e-06
1.14188e-05
1.35573e-05
1.58052e-05
1.81624e-05
2.06288e-05
2.32044e-05
2.58889e-05
2.86824e-05
3.15848e-05
3.45958e-05
3.77154e-05
4.09434e-05
4.42798e-05
4.77243e-05
5.12769e-05
5.49373e-05
5.87055e-05
6.25813e-05
6.65644e-05
7.06546e-05
7.48517e-05
7.91553e-05
8.35653e-05
8.80814e-05
9.27033e-05
9.74307e-05
0.000102263
0.000107201
0.000112243
0.000117389
0.000122638
0.000127991
0.000133447
0.000139005
0.000144664
0.000150425
0.000156286
0.000162248
0.000168309
0.000174468
0.000180727
0.000187082
0.000193535
0.000200084
0.000206729
0.000213468
0.0002203
0.000227226
0.000234243
0.000241352
0.000248551
0.000255839
0.000263216
0.000270679
0.000278229
0.000285864
0.000293582
0.000301383
0.000309266
0.000317229
0.000325271
0.00033339
0.000341586
0.000349857
0.000358202
0.00036662
0.000375108
0.000383666
0.000392292
0.000400984
0.000409742
0.000418563
0.000427446
0.00043639
0.000445393
0.000454454
0.000463571
0.000472742
0.000481967
0.000491243
0.00050057
0.000509946
0.00051937
0.00052884
0.000538355
0.000547914
0.000557514
0.000567155
0.000576835
0.00058655
0.000596298
0.000606076
0.000615877
0.000625695
0.00063552
0.000645339
0.000655139
0.0006649
0.000674601
-9.51759e-06
-9.79897e-06
-9.86119e-06
-9.80714e-06
-9.64557e-06
-9.37231e-06
-8.98784e-06
-8.4931e-06
-7.88838e-06
-7.17381e-06
-6.3495e-06
-5.41554e-06
-4.37193e-06
-3.21864e-06
-1.95561e-06
-5.82837e-07
8.99678e-07
2.49188e-06
4.19369e-06
6.00505e-06
7.92593e-06
9.95629e-06
1.20961e-05
1.43454e-05
1.67041e-05
1.91721e-05
2.17494e-05
2.44358e-05
2.72312e-05
3.01355e-05
3.31488e-05
3.62707e-05
3.95013e-05
4.28403e-05
4.62876e-05
4.98432e-05
5.35069e-05
5.72785e-05
6.11579e-05
6.51448e-05
6.9239e-05
7.34403e-05
7.77483e-05
8.21629e-05
8.66838e-05
9.13109e-05
9.60437e-05
0.000100882
0.000105825
0.000110874
0.000116026
0.000121282
0.000126642
0.000132105
0.00013767
0.000143338
0.000149107
0.000154977
0.000160947
0.000167017
0.000173187
0.000179455
0.000185821
0.000192285
0.000198845
0.000205501
0.000212251
0.000219096
0.000226034
0.000233065
0.000240187
0.0002474
0.000254702
0.000262093
0.000269572
0.000277137
0.000284787
0.000292522
0.000300339
0.000308239
0.000316219
0.000324278
0.000332415
0.000340629
0.000348918
0.000357282
0.000365718
0.000374225
0.000382802
0.000391447
0.000400158
0.000408935
0.000417776
0.000426678
0.000435641
0.000444663
0.000453742
0.000462877
0.000472066
0.000481307
0.0004906
0.000499942
0.000509331
0.000518766
0.000528246
0.000537769
0.000547332
0.000556934
0.000566572
0.000576244
0.000585947
0.000595677
0.000605429
0.000615197
0.000624974
0.000634749
0.000644512
0.000654249
0.000663942
0.000673573
-1.1109e-05
-1.13907e-05
-1.1453e-05
-1.13991e-05
-1.12376e-05
-1.09644e-05
-1.05799e-05
-1.0085e-05
-9.48005e-06
-8.76522e-06
-7.94056e-06
-7.00614e-06
-5.96195e-06
-4.80799e-06
-3.54423e-06
-2.17065e-06
-6.8728e-07
9.0582e-07
2.60859e-06
4.421e-06
6.34304e-06
8.37471e-06
1.0516e-05
1.27668e-05
1.51271e-05
1.75969e-05
2.01759e-05
2.28642e-05
2.56617e-05
2.85683e-05
3.15839e-05
3.47084e-05
3.79416e-05
4.12835e-05
4.47339e-05
4.82927e-05
5.19598e-05
5.57351e-05
5.96184e-05
6.36094e-05
6.77079e-05
7.19137e-05
7.62265e-05
8.06461e-05
8.51723e-05
8.98049e-05
9.45435e-05
9.93879e-05
0.000104338
0.000109392
0.000114552
0.000119815
0.000125183
0.000130653
0.000136227
0.000141903
0.000147681
0.00015356
0.00015954
0.00016562
0.0001718
0.000178079
0.000184457
0.000190932
0.000197504
0.000204172
0.000210935
0.000217793
0.000224745
0.00023179
0.000238927
0.000246154
0.000253472
0.000260878
0.000268373
0.000275955
0.000283622
0.000291374
0.000299209
0.000307127
0.000315125
0.000323203
0.00033136
0.000339593
0.000347902
0.000356286
0.000364742
0.000373269
0.000381867
0.000390533
0.000399265
0.000408063
0.000416925
0.000425848
0.000434832
0.000443874
0.000452973
0.000462128
0.000471336
0.000480596
0.000489906
0.000499264
0.000508669
0.000518118
0.000527609
0.000537141
0.000546711
0.000556317
0.000565955
0.000575623
0.000585317
0.000595033
0.000604766
0.000614508
0.000624252
0.000633989
0.000643708
0.000653396
0.000663038
0.000672619
-1.28203e-05
-1.31023e-05
-1.31649e-05
-1.3111e-05
-1.29495e-05
-1.26763e-05
-1.22917e-05
-1.17967e-05
-1.11915e-05
-1.04764e-05
-9.65134e-06
-8.71642e-06
-7.67164e-06
-6.51698e-06
-5.25246e-06
-3.87807e-06
-2.39384e-06
-7.99809e-07
9.03996e-07
2.71755e-06
4.64087e-06
6.67395e-06
8.81677e-06
1.10693e-05
1.34313e-05
1.59029e-05
1.84838e-05
2.11742e-05
2.39738e-05
2.68828e-05
2.99009e-05
3.30281e-05
3.62643e-05
3.96093e-05
4.3063e-05
4.66252e-05
5.0296e-05
5.40752e-05
5.79626e-05
6.1958e-05
6.60611e-05
7.02717e-05
7.45896e-05
7.90146e-05
8.35465e-05
8.8185e-05
9.29298e-05
9.77807e-05
0.000102737
0.000107799
0.000112966
0.000118237
0.000123612
0.000129091
0.000134674
0.000140359
0.000146146
0.000152036
0.000158026
0.000164117
0.000170308
0.000176599
0.000182988
0.000189476
0.00019606
0.000202742
0.000209519
0.000216392
0.000223358
0.000230418
0.00023757
0.000244814
0.000252148
0.000259571
0.000267083
0.000274682
0.000282368
0.000290138
0.000297993
0.000305929
0.000313948
0.000322046
0.000330223
0.000338478
0.000346808
0.000355213
0.000363691
0.000372241
0.000380861
0.000389549
0.000398304
0.000407125
0.000416009
0.000424955
0.000433961
0.000443026
0.000452147
0.000461323
0.000470553
0.000479833
0.000489162
0.000498539
0.000507961
0.000517426
0.000526931
0.000536475
0.000546054
0.000555666
0.000565308
0.000574976
0.000584666
0.000594373
0.000604092
0.000613815
0.000623536
0.000633245
0.000642932
0.000652585
0.000662191
0.000671736
-1.46516e-05
-1.4934e-05
-1.49967e-05
-1.4943e-05
-1.47815e-05
-1.45082e-05
-1.41235e-05
-1.36283e-05
-1.30229e-05
-1.23074e-05
-1.14819e-05
-1.05465e-05
-9.50109e-06
-8.34575e-06
-7.08046e-06
-5.70526e-06
-4.22014e-06
-2.62512e-06
-9.2021e-07
8.94601e-07
2.81931e-06
4.8539e-06
6.99834e-06
9.25254e-06
1.16164e-05
1.40899e-05
1.66729e-05
1.93654e-05
2.21674e-05
2.50788e-05
2.80997e-05
3.12298e-05
3.44691e-05
3.78173e-05
4.12745e-05
4.48405e-05
4.85152e-05
5.22985e-05
5.61902e-05
6.01901e-05
6.42981e-05
6.85139e-05
7.28373e-05
7.7268e-05
8.18059e-05
8.64508e-05
9.12022e-05
9.606e-05
0.000101024
0.000106093
0.000111268
0.000116547
0.000121931
0.000127419
0.000133011
0.000138706
0.000144503
0.000150403
0.000156405
0.000162508
0.000168711
0.000175013
0.000181416
0.000187916
0.000194515
0.00020121
0.000208002
0.00021489
0.000221872
0.000228948
0.000236117
0.000243377
0.000250729
0.000258171
0.000265701
0.000273319
0.000281024
0.000288814
0.000296689
0.000304647
0.000312687
0.000320807
0.000329006
0.000337283
0.000345636
0.000354065
0.000362566
0.00037114
0.000379783
0.000388496
0.000397276
0.000406121
0.000415029
0.000424
0.000433031
0.000442119
0.000451265
0.000460465
0.000469717
0.00047902
0.000488371
0.000497768
0.00050721
0.000516692
0.000526214
0.000535772
0.000545364
0.000554986
0.000564635
0.000574307
0.000583998
0.000593701
0.000603413
0.000613126
0.000622832
0.000632522
0.000642188
0.000651818
0.000661401
0.000670923
-1.66031e-05
-1.68857e-05
-1.69487e-05
-1.6895e-05
-1.67335e-05
-1.64601e-05
-1.60753e-05
-1.55799e-05
-1.49742e-05
-1.42583e-05
-1.34324e-05
-1.24964e-05
-1.14504e-05
-1.02944e-05
-9.02838e-06
-7.65232e-06
-6.16627e-06
-4.5702e-06
-2.8641e-06
-1.04796e-06
8.78215e-07
2.91439e-06
5.0605e-06
7.31647e-06
9.68222e-06
1.21577e-05
1.47428e-05
1.74377e-05
2.02422e-05
2.31563e-05
2.618e-05
2.93132e-05
3.25557e-05
3.59075e-05
3.93683e-05
4.29382e-05
4.6617e-05
5.04046e-05
5.43009e-05
5.83057e-05
6.24189e-05
6.66401e-05
7.09693e-05
7.54061e-05
7.99503e-05
8.46018e-05
8.93602e-05
9.42253e-05
9.91966e-05
0.000104274
0.000109457
0.000114745
0.000120138
0.000125636
0.000131238
0.000136943
0.000142752
0.000148663
0.000154676
0.000160791
0.000167006
0.000173322
0.000179738
0.000186253
0.000192866
0.000199576
0.000206384
0.000213288
0.000220287
0.00022738
0.000234566
0.000241845
0.000249215
0.000256676
0.000264226
0.000271865
0.00027959
0.000287402
0.000295299
0.000303279
0.000311341
0.000319485
0.000327708
0.000336009
0.000344386
0.000352839
0.000361366
0.000369965
0.000378635
0.000387373
0.000396179
0.000405051
0.000413986
0.000422983
0.00043204
0.000441155
0.000450326
0.000459552
0.00046883
0.000478157
0.000487532
0.000496953
0.000506416
0.00051592
0.000525461
0.000535037
0.000544644
0.00055428
0.00056394
0.00057362
0.000583316
0.000593022
0.000602733
0.000612442
0.000622141
0.000631823
0.000641478
0.000651096
0.000660667
0.000670178
-1.86747e-05
-1.89577e-05
-1.90208e-05
-1.89673e-05
-1.88058e-05
-1.85323e-05
-1.81473e-05
-1.76516e-05
-1.70456e-05
-1.63293e-05
-1.5503e-05
-1.45664e-05
-1.35198e-05
-1.23631e-05
-1.10963e-05
-9.71937e-06
-8.2323e-06
-6.6351e-06
-4.92775e-06
-3.11023e-06
-1.18256e-06
8.55218e-07
3.00304e-06
5.26084e-06
7.62855e-06
1.01061e-05
1.26935e-05
1.53908e-05
1.8198e-05
2.11149e-05
2.41417e-05
2.72781e-05
3.0524e-05
3.38794e-05
3.73441e-05
4.0918e-05
4.46011e-05
4.83933e-05
5.22945e-05
5.63044e-05
6.0423e-05
6.46499e-05
6.89851e-05
7.34283e-05