/*--------------------------------*- C++ -*----------------------------------*\
  =========                 |
  \\      /  F ield         | OpenFOAM: The Open Source CFD Toolbox
   \\    /   O peration     | Website:  https://openfoam.org
    \\  /    A nd           | Version:  8
     \\/     M anipulation  |
\*---------------------------------------------------------------------------*/
FoamFile
{
    version     2.0;
    format      ascii;
    class       volScalarField;
    location    "10";
    object      T;
}
// * * * * * * * * * * * * * * * * * * * * * * * * * * * * * * * * * * * * * //

dimensions      [0 0 0 1 0 0 0];

internalField   nonuniform List<scalar> 
116
(
1.0068e-06
1.00676e-06
1.00675e-06
1.00671e-06
1.0063e-06
1.00068e-06
9.3484e-06
9.34815e-06
9.34805e-06
9.34802e-06
9.34794e-06
9.34719e-06
8.54786e-05
8.54768e-05
8.54762e-05
8.5476e-05
8.5476e-05
8.54759e-05
0.000699833
0.000699822
0.000699818
0.000699817
0.000699817
0.000699817
0.0050583
0.00505825
0.00505823
0.00505823
0.00505822
0.00505822
0.0317381
0.0317379
0.0317378
0.0317378
0.0317378
0.0317378
0.169187
0.169186
0.169186
0.169186
0.169186
0.169186
0.744901
0.744899
0.744899
0.744899
0.744899
0.744899
2.60867
2.60867
2.60867
2.60867
2.60867
2.60867
6.91334
6.91334
6.91334
6.91334
6.91334
6.91334
9.29069e-07
9.23809e-07
9.23444e-07
9.2342e-07
9.34191e-06
9.34118e-06
9.34111e-06
9.34111e-06
8.54755e-05
8.54755e-05
8.54755e-05
8.54755e-05
0.000699817
0.000699817
0.000699817
0.000699817
0.00505822
0.00505822
0.00505822
0.00505823
0.0317378
0.0317378
0.0317378
0.0317378
0.169186
0.169186
0.169186
0.169186
0.744899
0.744899
0.744899
0.744899
2.60867
2.60867
2.60867
2.60867
6.91334
6.91334
6.91334
6.91334
4.06498e-11
4.05593e-11
4.05346e-11
4.0531e-11
5.33209e-10
5.31752e-10
5.31417e-10
5.31375e-10
6.94289e-09
6.91935e-09
6.91503e-09
6.91458e-09
8.37292e-08
8.33678e-08
8.33208e-08
8.33172e-08
)
;

boundaryField
{
    movingWall
    {
        type            fixedValue;
        value           uniform 10;
    }
    fixedWalls
    {
        type            zeroGradient;
    }
    frontAndBack
    {
        type            empty;
    }
}


// ************************************************************************* //
