/*--------------------------------*- C++ -*----------------------------------*\
  =========                 |
  \\      /  F ield         | OpenFOAM: The Open Source CFD Toolbox
   \\    /   O peration     | Website:  https://openfoam.org
    \\  /    A nd           | Version:  8
     \\/     M anipulation  |
\*---------------------------------------------------------------------------*/
FoamFile
{
    version     2.0;
    format      ascii;
    class       volScalarField;
    location    "21";
    object      p;
}
// * * * * * * * * * * * * * * * * * * * * * * * * * * * * * * * * * * * * * //

dimensions      [0 2 -2 0 0 0 0];

internalField   nonuniform List<scalar> 
400
(
-1.16778e-07
-1.20824e-07
-1.28565e-07
-1.38494e-07
-1.49431e-07
-1.6074e-07
-1.7194e-07
-1.82679e-07
-1.92498e-07
-2.00826e-07
-2.06989e-07
-2.10251e-07
-2.09849e-07
-2.04963e-07
-1.94736e-07
-1.78233e-07
-1.54724e-07
-1.22685e-07
-8.20654e-08
-2.63692e-08
-1.1172e-07
-1.14607e-07
-1.20478e-07
-1.28252e-07
-1.36974e-07
-1.46117e-07
-1.55229e-07
-1.63938e-07
-1.71817e-07
-1.78336e-07
-1.82869e-07
-1.84745e-07
-1.83297e-07
-1.77816e-07
-1.67553e-07
-1.51638e-07
-1.29587e-07
-9.99453e-08
-6.40227e-08
-1.52386e-08
-1.02832e-07
-1.04571e-07
-1.08597e-07
-1.14252e-07
-1.20758e-07
-1.2768e-07
-1.3462e-07
-1.41224e-07
-1.47103e-07
-1.51784e-07
-1.54715e-07
-1.55323e-07
-1.53065e-07
-1.47373e-07
-1.37642e-07
-1.23136e-07
-1.03603e-07
-7.79091e-08
-4.82314e-08
-8.52093e-09
-9.20593e-08
-9.32631e-08
-9.62149e-08
-1.00513e-07
-1.0552e-07
-1.10867e-07
-1.16239e-07
-1.21325e-07
-1.25775e-07
-1.29174e-07
-1.3106e-07
-1.30961e-07
-1.28435e-07
-1.23023e-07
-1.14265e-07
-1.0158e-07
-8.48537e-08
-6.32284e-08
-3.8852e-08
-6.58874e-09
-8.00975e-08
-8.10003e-08
-8.32282e-08
-8.65151e-08
-9.03542e-08
-9.44453e-08
-9.85496e-08
-1.02408e-07
-1.05711e-07
-1.08107e-07
-1.09234e-07
-1.08736e-07
-1.06255e-07
-1.01404e-07
-9.38497e-08
-8.31663e-08
-6.92936e-08
-5.16629e-08
-3.18369e-08
-6.59818e-09
-6.71676e-08
-6.78335e-08
-6.94585e-08
-7.1901e-08
-7.47539e-08
-7.77813e-08
-8.08095e-08
-8.36266e-08
-8.59715e-08
-8.75593e-08
-8.81303e-08
-8.74495e-08
-8.52425e-08
-8.11694e-08
-7.49921e-08
-6.6436e-08
-5.54235e-08
-4.17228e-08
-2.59822e-08
-7.82739e-09
-5.34614e-08
-5.39292e-08
-5.50644e-08
-5.67975e-08
-5.88217e-08
-6.09631e-08
-6.30922e-08
-6.50433e-08
-6.66143e-08
-6.75939e-08
-6.78134e-08
-6.71436e-08
-6.53984e-08
-6.22809e-08
-5.76056e-08
-5.12311e-08
-4.30407e-08
-3.3167e-08
-2.11076e-08
-9.96265e-09
-3.91916e-08
-3.94892e-08
-4.02324e-08
-4.13625e-08
-4.26846e-08
-4.40791e-08
-4.54467e-08
-4.66703e-08
-4.76188e-08
-4.8163e-08
-4.82115e-08
-4.77072e-08
-4.65457e-08
-4.44937e-08
-4.13878e-08
-3.71813e-08
-3.17223e-08
-2.55349e-08
-1.68309e-08
-1.25158e-08
-2.45515e-08
-2.47053e-08
-2.51058e-08
-2.57082e-08
-2.64149e-08
-2.71488e-08
-2.78421e-08
-2.8431e-08
-2.88598e-08
-2.90899e-08
-2.91001e-08
-2.88704e-08
-2.83549e-08
-2.74079e-08
-2.58877e-08
-2.38055e-08
-2.0977e-08
-1.8344e-08
-1.28164e-08
-1.50871e-08
-9.70873e-09
-9.73359e-09
-9.80812e-09
-9.92618e-09
-1.00589e-08
-1.01675e-08
-1.023e-08
-1.0239e-08
-1.02098e-08
-1.01926e-08
-1.02374e-08
-1.03424e-08
-1.04926e-08
-1.06419e-08
-1.06927e-08
-1.07019e-08
-1.04507e-08
-1.12941e-08
-8.90543e-09
-1.74217e-08
5.18941e-09
5.29985e-09
5.54596e-09
5.90576e-09
6.35601e-09
6.88272e-09
7.44809e-09
8.00162e-09
8.46672e-09
8.71571e-09
8.62799e-09
8.18537e-09
7.38383e-09
6.17025e-09
4.56977e-09
2.46864e-09
1.26314e-10
-4.16757e-09
-4.96616e-09
-1.92934e-08
1.9999e-08
2.02516e-08
2.08185e-08
2.16853e-08
2.27676e-08
2.39759e-08
2.52063e-08
2.63497e-08
2.72749e-08
2.77931e-08
2.77184e-08
2.69965e-08
2.55949e-08
2.33639e-08
2.02366e-08
1.60267e-08
1.10402e-08
3.31365e-09
-7.54682e-10
-2.04256e-08
3.45534e-08
3.49398e-08
3.58418e-08
3.7272e-08
3.90597e-08
4.10246e-08
4.29967e-08
4.48072e-08
4.62713e-08
4.71513e-08
4.72034e-08
4.63173e-08
4.44066e-08
4.1225e-08
3.66076e-08
3.02903e-08
2.26274e-08
1.15157e-08
4.05751e-09
-2.05445e-08
4.86765e-08
4.91898e-08
5.04721e-08
5.25482e-08
5.5137e-08
5.79649e-08
6.07967e-08
6.3401e-08
6.55362e-08
6.69196e-08
6.7255e-08
6.63582e-08
6.40615e-08
6.00207e-08
5.3979e-08
4.56025e-08
3.52782e-08
2.08492e-08
9.78408e-09
-1.94666e-08
6.22089e-08
6.28663e-08
6.46169e-08
6.74581e-08
7.09783e-08
7.48155e-08
7.86696e-08
8.22404e-08
8.52214e-08
8.72836e-08
8.80818e-08
8.73483e-08
8.48145e-08
8.00415e-08
7.26899e-08
6.23677e-08
4.94474e-08
3.17486e-08
1.67171e-08
-1.70531e-08
7.50019e-08
7.5841e-08
7.81771e-08
8.19366e-08
8.65525e-08
9.15774e-08
9.66462e-08
1.01382e-07
1.05401e-07
1.08325e-07
1.09766e-07
1.09374e-07
1.06777e-07
1.01448e-07
9.29634e-08
8.08714e-08
6.5457e-08
4.44871e-08
2.50116e-08
-1.32135e-08
8.68927e-08
8.79873e-08
9.10581e-08
9.59151e-08
1.01811e-07
1.08216e-07
1.14699e-07
1.20796e-07
1.26038e-07
1.29993e-07
1.32247e-07
1.32381e-07
1.29927e-07
1.24273e-07
1.14884e-07
1.01219e-07
8.34171e-08
5.91304e-08
3.46004e-08
-8.11437e-09
9.76368e-08
9.92645e-08
1.03436e-07
1.09743e-07
1.17237e-07
1.25326e-07
1.33522e-07
1.41271e-07
1.48014e-07
1.53278e-07
1.56633e-07
1.57603e-07
1.55618e-07
1.49996e-07
1.40062e-07
1.25094e-07
1.04998e-07
7.73245e-08
4.69192e-08
-1.21709e-09
1.06504e-07
1.09307e-07
1.15372e-07
1.23883e-07
1.33645e-07
1.44027e-07
1.54519e-07
1.64494e-07
1.73316e-07
1.80482e-07
1.85567e-07
1.8803e-07
1.87162e-07
1.82211e-07
1.72409e-07
1.56774e-07
1.34793e-07
1.03965e-07
6.69521e-08
1.08953e-08
1.11569e-07
1.15541e-07
1.23524e-07
1.34226e-07
1.46188e-07
1.58735e-07
1.71365e-07
1.83446e-07
1.94295e-07
2.03366e-07
2.10233e-07
2.14348e-07
2.14901e-07
2.10993e-07
2.01805e-07
1.86331e-07
1.63612e-07
1.31218e-07
8.94271e-08
2.72658e-08
)
;

boundaryField
{
    inlet
    {
        type            zeroGradient;
    }
    outlet
    {
        type            fixedValue;
        value           uniform 0;
    }
    up
    {
        type            zeroGradient;
    }
    down
    {
        type            zeroGradient;
    }
    frontAndBack
    {
        type            empty;
    }
}


// ************************************************************************* //
