/*--------------------------------*- C++ -*----------------------------------*\
  =========                 |
  \\      /  F ield         | OpenFOAM: The Open Source CFD Toolbox
   \\    /   O peration     | Website:  https://openfoam.org
    \\  /    A nd           | Version:  8
     \\/     M anipulation  |
\*---------------------------------------------------------------------------*/
FoamFile
{
    version     2.0;
    format      ascii;
    class       volVectorField;
    location    "0.5";
    object      U;
}
// * * * * * * * * * * * * * * * * * * * * * * * * * * * * * * * * * * * * * //

dimensions      [0 1 -1 0 0 0 0];

internalField   nonuniform List<vector> 
116
(
(-0.000271074 0.000263262 0)
(-0.000789825 0.000239988 0)
(-0.00122919 0.000187897 0)
(-0.00154484 0.00012064 0)
(-0.0017071 4.54642e-05 0)
(-0.00176957 -2.84928e-05 0)
(-0.000307891 0.000827176 0)
(-0.000891839 0.000750397 0)
(-0.00137952 0.00058544 0)
(-0.00172617 0.000375099 0)
(-0.00190656 0.000142905 0)
(-0.00196159 -9.76491e-05 0)
(-0.000375692 0.0014896 0)
(-0.00107273 0.0013362 0)
(-0.00163585 0.00103408 0)
(-0.00202654 0.00065632 0)
(-0.00222329 0.000243405 0)
(-0.00222894 -0.000180543 0)
(-0.000498901 0.0023201 0)
(-0.0013854 0.00203954 0)
(-0.00205997 0.00155858 0)
(-0.00251719 0.000975249 0)
(-0.0027438 0.000348905 0)
(-0.00274608 -0.000294199 0)
(-0.000714644 0.00346262 0)
(-0.00189321 0.00291916 0)
(-0.00270058 0.00218842 0)
(-0.00323623 0.00134463 0)
(-0.00349275 0.000472294 0)
(-0.00349916 -0.000411198 0)
(-0.00112899 0.00493083 0)
(-0.00274746 0.00398019 0)
(-0.00363508 0.00292229 0)
(-0.00423336 0.00175298 0)
(-0.00449963 0.000608865 0)
(-0.00451368 -0.000528027 0)
(-0.00178811 0.00800852 0)
(-0.00402997 0.00544557 0)
(-0.00492843 0.00382106 0)
(-0.00554981 0.00218113 0)
(-0.00577374 0.000746089 0)
(-0.00579719 -0.000633934 0)
(-0.00388393 0.00953579 0)
(-0.00713796 0.00618266 0)
(-0.00689451 0.00429674 0)
(-0.00730447 0.00238805 0)
(-0.0073099 0.000822509 0)
(-0.00734689 -0.000630964 0)
(-0.00562511 0.0231143 0)
(-0.00931035 0.00823564 0)
(-0.00830578 0.00537978 0)
(-0.0085039 0.00253994 0)
(-0.00821139 0.000808425 0)
(-0.00818144 -0.000656633 0)
(0.0274761 0.0190609 0)
(0.0227436 0.00563598 0)
(0.0352683 0.00339094 0)
(0.036389 0.00145459 0)
(0.0378282 0.000456711 0)
(0.0379329 -0.000303778 0)
(-0.00147233 0.000461145 0)
(-0.000954416 -4.03153e-05 0)
(-0.000580263 -0.000387637 0)
(-0.00019095 -0.000539671 0)
(-0.00168132 -0.000265093 0)
(-0.00118408 -0.00060014 0)
(-0.000743941 -0.000867725 0)
(-0.000255526 -0.00100358 0)
(-0.00199368 -0.000540632 0)
(-0.00155746 -0.0010066 0)
(-0.00100922 -0.00139178 0)
(-0.000352101 -0.00159006 0)
(-0.00250756 -0.000921329 0)
(-0.00203555 -0.00155009 0)
(-0.00136784 -0.00208029 0)
(-0.000493913 -0.00239704 0)
(-0.00324957 -0.00129532 0)
(-0.00271697 -0.00217674 0)
(-0.001917 -0.00295241 0)
(-0.000729268 -0.0035421 0)
(-0.00427307 -0.00168922 0)
(-0.00369357 -0.00290002 0)
(-0.00282248 -0.00401184 0)
(-0.00117274 -0.005072 0)
(-0.00562134 -0.00209251 0)
(-0.00504112 -0.00378913 0)
(-0.00421665 -0.00548821 0)
(-0.00192076 -0.00818835 0)
(-0.00742179 -0.00219239 0)
(-0.00708673 -0.00414742 0)
(-0.00740534 -0.00601244 0)
(-0.00405779 -0.0100506 0)
(-0.00844467 -0.00239764 0)
(-0.00806273 -0.00537123 0)
(-0.00935355 -0.00854551 0)
(-0.00478365 -0.023885 0)
(0.0364824 -0.00124999 0)
(0.0358601 -0.00322904 0)
(0.0228383 -0.00532068 0)
(0.0280753 -0.0187271 0)
(-3.31328e-05 7.13896e-06 0)
(-7.07827e-05 -8.77126e-06 0)
(-6.19425e-05 -1.6521e-05 0)
(-2.4293e-05 -2.25341e-05 0)
(-5.02063e-05 0.00011532 0)
(-9.65424e-05 4.25277e-05 0)
(-7.77747e-05 -2.63866e-05 0)
(-3.1441e-05 -6.26951e-05 0)
(-0.000109533 0.00011976 0)
(-0.00021699 -4.2366e-06 0)
(-0.000170383 -9.85377e-05 0)
(-6.28538e-05 -0.000152865 0)
(-0.000188182 0.000561474 0)
(-0.000318522 0.000130533 0)
(-0.000230372 -0.000151105 0)
(-8.96382e-05 -0.000272235 0)
)
;

boundaryField
{
    movingWall
    {
        type            fixedValue;
        value           uniform (1 0 0);
    }
    fixedWalls
    {
        type            noSlip;
    }
    frontAndBack
    {
        type            empty;
    }
}


// ************************************************************************* //
