/*--------------------------------*- C++ -*----------------------------------*\
  =========                 |
  \\      /  F ield         | OpenFOAM: The Open Source CFD Toolbox
   \\    /   O peration     | Website:  https://openfoam.org
    \\  /    A nd           | Version:  8
     \\/     M anipulation  |
\*---------------------------------------------------------------------------*/
FoamFile
{
    version     2.0;
    format      ascii;
    class       surfaceScalarField;
    location    "29";
    object      phi;
}
// * * * * * * * * * * * * * * * * * * * * * * * * * * * * * * * * * * * * * //

dimensions      [0 3 -1 0 0 0 0];

internalField   nonuniform List<scalar> 
760
(
0.0004
-2.45843e-14
0.0004
-1.16268e-13
0.0004
-2.67185e-13
0.0004
-4.84889e-13
0.0004
-7.81707e-13
0.0004
-1.17414e-12
0.0004
-1.68238e-12
0.0004
-2.33056e-12
0.0004
-3.14722e-12
0.0004
-4.16627e-12
0.0004
-5.42815e-12
0.0004
-6.98098e-12
0.0004
-8.8821e-12
0.0004
-1.11999e-11
0.0004
-1.40157e-11
0.0004
-1.74275e-11
0.0004
-2.1546e-11
0.0004
-2.65385e-11
0.0004
-3.23554e-11
-4.06872e-11
0.0004
-3.79118e-14
0.0004
-1.55739e-13
0.0004
-3.3391e-13
0.0004
-5.76715e-13
0.0004
-8.97135e-13
0.0004
-1.31243e-12
0.0004
-1.84304e-12
0.0004
-2.51309e-12
0.0004
-3.35099e-12
0.0004
-4.39042e-12
0.0004
-5.67141e-12
0.0004
-7.24159e-12
0.0004
-9.15767e-12
0.0004
-1.14873e-11
0.0004
-1.43109e-11
0.0004
-1.77253e-11
0.0004
-2.18408e-11
0.0004
-2.68218e-11
0.0004
-3.26214e-11
-4.09288e-11
0.0004
-4.70828e-14
0.0004
-1.86951e-13
0.0004
-3.89732e-13
0.0004
-6.56087e-13
0.0004
-9.9887e-13
0.0004
-1.43584e-12
0.0004
-1.98765e-12
0.0004
-2.67847e-12
0.0004
-3.53664e-12
0.0004
-4.59565e-12
0.0004
-5.89522e-12
0.0004
-7.48256e-12
0.0004
-9.41389e-12
0.0004
-1.17563e-11
0.0004
-1.45896e-11
0.0004
-1.80097e-11
0.0004
-2.21271e-11
0.0004
-2.71053e-11
0.0004
-3.29032e-11
-4.12111e-11
0.0004
-5.30119e-14
0.0004
-2.09841e-13
0.0004
-4.33258e-13
0.0004
-7.2037e-13
0.0004
-1.08337e-12
0.0004
-1.54018e-12
0.0004
-2.11155e-12
0.0004
-2.82166e-12
0.0004
-3.69879e-12
0.0004
-4.77629e-12
0.0004
-6.09366e-12
0.0004
-7.6978e-12
0.0004
-9.64458e-12
0.0004
-1.20006e-11
0.0004
-1.48456e-11
0.0004
-1.82748e-11
0.0004
-2.23992e-11
0.0004
-2.7382e-11
0.0004
-3.31881e-11
-4.15046e-11
0.0004
-5.70734e-14
0.0004
-2.26407e-13
0.0004
-4.66091e-13
0.0004
-7.70338e-13
0.0004
-1.15048e-12
0.0004
-1.62445e-12
0.0004
-2.21295e-12
0.0004
-2.94013e-12
0.0004
-3.83422e-12
0.0004
-4.92845e-12
0.0004
-6.26217e-12
0.0004
-7.88208e-12
0.0004
-9.8438e-12
0.0004
-1.22137e-11
0.0004
-1.50714e-11
0.0004
-1.85118e-11
0.0004
-2.26467e-11
0.0004
-2.76388e-11
0.0004
-3.34583e-11
-4.17882e-11
0.0004
-5.99241e-14
0.0004
-2.3825e-13
0.0004
-4.90211e-13
0.0004
-8.07841e-13
0.0004
-1.20169e-12
0.0004
-1.68963e-12
0.0004
-2.29229e-12
0.0004
-3.03376e-12
0.0004
-3.94219e-12
0.0004
-5.05077e-12
0.0004
-6.39872e-12
0.0004
-8.03263e-12
0.0004
-1.0008e-11
0.0004
-1.2391e-11
0.0004
-1.52611e-11
0.0004
-1.87135e-11
0.0004
-2.28602e-11
0.0004
-2.78637e-11
0.0004
-3.36984e-11
-4.20435e-11
0.0004
-6.18951e-14
0.0004
-2.46474e-13
0.0004
-5.07323e-13
0.0004
-8.34842e-13
0.0004
-1.23901e-12
0.0004
-1.73762e-12
0.0004
-2.35124e-12
0.0004
-3.10389e-12
0.0004
-4.0237e-12
0.0004
-5.14378e-12
0.0004
-6.50333e-12
0.0004
-8.14883e-12
0.0004
-1.01357e-11
0.0004
-1.25301e-11
0.0004
-1.54115e-11
0.0004
-1.88749e-11
0.0004
-2.30329e-11
0.0004
-2.80475e-11
0.0004
-3.38963e-11
-4.22547e-11
0.0004
-6.31632e-14
0.0004
-2.51825e-13
0.0004
-5.18696e-13
0.0004
-8.52997e-13
0.0004
-1.26433e-12
0.0004
-1.77042e-12
0.0004
-2.39181e-12
0.0004
-3.15246e-12
0.0004
-4.0805e-12
0.0004
-5.20901e-12
0.0004
-6.57716e-12
0.0004
-8.23141e-12
0.0004
-1.02271e-11
0.0004
-1.26304e-11
0.0004
-1.55207e-11
0.0004
-1.89931e-11
0.0004
-2.31603e-11
0.0004
-2.81838e-11
0.0004
-3.40432e-11
-4.24103e-11
0.0004
-6.38181e-14
0.0004
-2.54785e-13
0.0004
-5.25182e-13
0.0004
-8.6349e-13
0.0004
-1.27909e-12
0.0004
-1.78966e-12
0.0004
-2.41573e-12
0.0004
-3.18127e-12
0.0004
-4.11437e-12
0.0004
-5.24815e-12
0.0004
-6.62175e-12
0.0004
-8.28162e-12
0.0004
-1.02831e-11
0.0004
-1.26923e-11
0.0004
-1.55884e-11
0.0004
-1.90667e-11
0.0004
-2.32398e-11
0.0004
-2.82684e-11
0.0004
-3.41333e-11
-4.25025e-11
0.0004
-6.39332e-14
0.0004
-2.5561e-13
0.0004
-5.27255e-13
0.0004
-8.67011e-13
0.0004
-1.28415e-12
0.0004
-1.79635e-12
0.0004
-2.42415e-12
0.0004
-3.19151e-12
0.0004
-4.12655e-12
0.0004
-5.26241e-12
0.0004
-6.63822e-12
0.0004
-8.30044e-12
0.0004
-1.03044e-11
0.0004
-1.27161e-11
0.0004
-1.56147e-11
0.0004
-1.90952e-11
0.0004
-2.327e-11
0.0004
-2.82993e-11
0.0004
-3.41637e-11
-4.25274e-11
0.0004
-6.35698e-14
0.0004
-2.54384e-13
0.0004
-5.25061e-13
0.0004
-8.63776e-13
0.0004
-1.2798e-12
0.0004
-1.79083e-12
0.0004
-2.41742e-12
0.0004
-3.18358e-12
0.0004
-4.11745e-12
0.0004
-5.25217e-12
0.0004
-6.62693e-12
0.0004
-8.28818e-12
0.0004
-1.02912e-11
0.0004
-1.27019e-11
0.0004
-1.55994e-11
0.0004
-1.90784e-11
0.0004
-2.32506e-11
0.0004
-2.82757e-11
0.0004
-3.41333e-11
-4.24836e-11
0.0004
-6.27443e-14
0.0004
-2.5104e-13
0.0004
-5.18446e-13
0.0004
-8.53541e-13
0.0004
-1.26571e-12
0.0004
-1.77269e-12
0.0004
-2.3951e-12
0.0004
-3.15698e-12
0.0004
-4.08651e-12
0.0004
-5.21689e-12
0.0004
-6.58731e-12
0.0004
-8.24425e-12
0.0004
-1.0243e-11
0.0004
-1.26494e-11
0.0004
-1.55422e-11
0.0004
-1.9016e-11
0.0004
-2.31816e-11
0.0004
-2.81981e-11
0.0004
-3.40431e-11
-4.23729e-11
0.0004
-6.14048e-14
0.0004
-2.45357e-13
0.0004
-5.06947e-13
0.0004
-8.35604e-13
0.0004
-1.24097e-12
0.0004
-1.74086e-12
0.0004
-2.35596e-12
0.0004
-3.11038e-12
0.0004
-4.03236e-12
0.0004
-5.15514e-12
0.0004
-6.51798e-12
0.0004
-8.1674e-12
0.0004
-1.01587e-11
0.0004
-1.25576e-11
0.0004
-1.54426e-11
0.0004
-1.89081e-11
0.0004
-2.30638e-11
0.0004
-2.80683e-11
0.0004
-3.3896e-11
-4.21998e-11
0.0004
-5.94202e-14
0.0004
-2.36908e-13
0.0004
-4.89746e-13
0.0004
-8.08788e-13
0.0004
-1.20412e-12
0.0004
-1.69366e-12
0.0004
-2.29819e-12
0.0004
-3.04189e-12
0.0004
-3.95309e-12
0.0004
-5.06508e-12
0.0004
-6.41723e-12
0.0004
-8.05613e-12
0.0004
-1.00371e-11
0.0004
-1.24259e-11
0.0004
-1.53007e-11
0.0004
-1.87557e-11
0.0004
-2.28995e-11
0.0004
-2.789e-11
0.0004
-3.36977e-11
-4.19724e-11
0.0004
-5.65769e-14
0.0004
-2.24975e-13
0.0004
-4.65603e-13
0.0004
-7.71452e-13
0.0004
-1.15326e-12
0.0004
-1.62907e-12
0.0004
-2.21972e-12
0.0004
-2.94951e-12
0.0004
-3.84682e-12
0.0004
-4.94507e-12
0.0004
-6.28371e-12
0.0004
-7.9095e-12
0.0004
-9.87785e-12
0.0004
-1.22546e-11
0.0004
-1.51178e-11
0.0004
-1.85614e-11
0.0004
-2.26927e-11
0.0004
-2.76694e-11
0.0004
-3.34567e-11
-4.17023e-11
0.0004
-5.25453e-14
0.0004
-2.08451e-13
0.0004
-4.3283e-13
0.0004
-7.21627e-13
0.0004
-1.08637e-12
0.0004
-1.54516e-12
0.0004
-2.11887e-12
0.0004
-2.83182e-12
0.0004
-3.71251e-12
0.0004
-4.79446e-12
0.0004
-6.11731e-12
0.0004
-7.72799e-12
0.0004
-9.68216e-12
0.0004
-1.20458e-11
0.0004
-1.48971e-11
0.0004
-1.83297e-11
0.0004
-2.24501e-11
0.0004
-2.74155e-11
0.0004
-3.31852e-11
-4.14056e-11
0.0004
-4.66621e-14
0.0004
-1.85715e-13
0.0004
-3.89457e-13
0.0004
-6.57466e-13
0.0004
-1.00198e-12
0.0004
-1.44096e-12
0.0004
-1.99518e-12
0.0004
-2.68896e-12
0.0004
-3.55087e-12
0.0004
-4.6146e-12
0.0004
-5.92e-12
0.0004
-7.51432e-12
0.0004
-9.45353e-12
0.0004
-1.1804e-11
0.0004
-1.46441e-11
0.0004
-1.80678e-11
0.0004
-2.21807e-11
0.0004
-2.714e-11
0.0004
-3.28982e-11
-4.11008e-11
0.0004
-3.75219e-14
0.0004
-1.54704e-13
0.0004
-3.33879e-13
0.0004
-5.78245e-13
0.0004
-9.00294e-13
0.0004
-1.31755e-12
0.0004
-1.85053e-12
0.0004
-2.52351e-12
0.0004
-3.36518e-12
0.0004
-4.40945e-12
0.0004
-5.69645e-12
0.0004
-7.27382e-12
0.0004
-9.19803e-12
0.0004
-1.1536e-11
0.0004
-1.43667e-11
0.0004
-1.77845e-11
0.0004
-2.18952e-11
0.0004
-2.68562e-11
0.0004
-3.26137e-11
-4.08089e-11
0.0004
-2.41693e-14
0.0004
-1.15323e-13
0.0004
-2.67337e-13
0.0004
-4.86506e-13
0.0004
-7.84823e-13
0.0004
-1.1792e-12
0.0004
-1.68979e-12
0.0004
-2.34085e-12
0.0004
-3.16124e-12
0.0004
-4.18515e-12
0.0004
-5.45311e-12
0.0004
-7.01321e-12
0.0004
-8.92248e-12
0.0004
-1.12485e-11
0.0004
-1.40712e-11
0.0004
-1.74862e-11
0.0004
-2.15995e-11
0.0004
-2.65712e-11
0.0004
-3.23443e-11
-4.05598e-11
0.0004
0.0004
0.0004
0.0004
0.0004
0.0004
0.0004
0.0004
0.0004
0.0004
0.0004
0.0004
0.0004
0.0004
0.0004
0.0004
0.0004
0.0004
0.0004
)
;

boundaryField
{
    inlet
    {
        type            calculated;
        value           nonuniform List<scalar> 
20
(
-0.0004
-0.0004
-0.0004
-0.0004
-0.0004
-0.0004
-0.0004
-0.0004
-0.0004
-0.0004
-0.0004
-0.0004
-0.0004
-0.0004
-0.0004
-0.0004
-0.0004
-0.0004
-0.0004
-0.0004
)
;
    }
    outlet
    {
        type            calculated;
        value           nonuniform List<scalar> 
20
(
0.0004
0.0004
0.0004
0.0004
0.0004
0.0004
0.0004
0.0004
0.0004
0.0004
0.0004
0.0004
0.0004
0.0004
0.0004
0.0004
0.0004
0.0004
0.0004
0.0004
)
;
    }
    up
    {
        type            calculated;
        value           nonuniform List<scalar> 
20
(
-6.50779e-15
-6.87864e-14
-1.95706e-13
-3.89578e-13
-6.63246e-13
-1.03369e-12
-1.52095e-12
-2.14924e-12
-2.94756e-12
-3.95039e-12
-5.19864e-12
-6.741e-12
-8.63523e-12
-1.09497e-11
-1.37652e-11
-1.71782e-11
-2.12977e-11
-2.62836e-11
-3.20909e-11
-4.03612e-11
)
;
    }
    down
    {
        type            calculated;
        value           nonuniform List<scalar> 
20
(
6.77506e-15
6.93232e-14
1.95066e-13
3.87604e-13
6.60007e-13
1.0287e-12
1.51366e-12
2.13902e-12
2.93354e-12
3.93149e-12
5.17371e-12
6.70888e-12
8.59497e-12
1.09013e-11
1.37103e-11
1.71209e-11
2.1246e-11
2.62534e-11
3.21051e-11
4.0494e-11
)
;
    }
    frontAndBack
    {
        type            empty;
        value           nonuniform List<scalar> 0();
    }
}


// ************************************************************************* //
