0 	-2.73221e-08
1.57135 	-1.88557e-07
3.1427 	1.92337e-06
4.71405 	1.48793e-05
6.28539 	5.56138e-05
7.85674 	0.000152079
9.42809 	0.000338766
10.9994 	0.000641934
12.5708 	0.000860959
14.1421 	0.00839582
