0 	0 	0 	0
1.57135 	-0.000726081 	0.000666807 	0
3.1427 	-0.00161674 	0.00118756 	0
4.71405 	-0.00274679 	0.00134316 	0
6.28539 	-0.00415171 	0.000934248 	0
7.85674 	-0.00583841 	-0.000212441 	0
9.42809 	-0.00805508 	-0.002177 	0
10.9994 	-0.0123283 	-0.00493597 	0
12.5708 	-0.0151033 	-0.013387 	0
14.1421 	0.5 	0 	0
