/*--------------------------------*- C++ -*----------------------------------*\
  =========                 |
  \\      /  F ield         | OpenFOAM: The Open Source CFD Toolbox
   \\    /   O peration     | Website:  https://openfoam.org
    \\  /    A nd           | Version:  8
     \\/     M anipulation  |
\*---------------------------------------------------------------------------*/
FoamFile
{
    version     2.0;
    format      ascii;
    class       surfaceScalarField;
    location    "23";
    object      phi;
}
// * * * * * * * * * * * * * * * * * * * * * * * * * * * * * * * * * * * * * //

dimensions      [0 3 -1 0 0 0 0];

internalField   nonuniform List<scalar> 
760
(
0.0004
-6.11941e-13
0.0004
-2.90998e-12
0.0004
-6.73854e-12
0.0004
-1.22541e-11
0.0004
-1.97547e-11
0.0004
-2.96756e-11
0.0004
-4.2528e-11
0.0004
-5.89286e-11
0.0004
-7.96261e-11
0.0004
-1.05524e-10
0.0004
-1.37704e-10
0.0004
-1.77469e-10
0.0004
-2.2637e-10
0.0004
-2.86264e-10
0.0004
-3.59342e-10
0.0004
-4.48199e-10
0.0004
-5.5575e-10
0.0004
-6.86142e-10
0.0004
-8.38175e-10
-1.05376e-09
0.0004
-9.4536e-13
0.0004
-3.90322e-12
0.0004
-8.41335e-12
0.0004
-1.45604e-11
0.0004
-2.2658e-11
0.0004
-3.31526e-11
0.0004
-4.65634e-11
0.0004
-6.35094e-11
0.0004
-8.47348e-11
0.0004
-1.11133e-10
0.0004
-1.43775e-10
0.0004
-1.83945e-10
0.0004
-2.33176e-10
0.0004
-2.93301e-10
0.0004
-3.66485e-10
0.0004
-4.55294e-10
0.0004
-5.62625e-10
0.0004
-6.9255e-10
0.0004
-8.43961e-10
-1.05864e-09
0.0004
-1.17214e-12
0.0004
-4.68192e-12
0.0004
-9.80827e-12
0.0004
-1.65492e-11
0.0004
-2.52132e-11
0.0004
-3.62545e-11
0.0004
-5.01986e-11
0.0004
-6.76656e-11
0.0004
-8.93953e-11
0.0004
-1.16273e-10
0.0004
-1.49358e-10
0.0004
-1.89919e-10
0.0004
-2.39471e-10
0.0004
-2.99825e-10
0.0004
-3.73125e-10
0.0004
-4.6191e-10
0.0004
-5.69069e-10
0.0004
-6.98638e-10
0.0004
-8.49675e-10
-1.06385e-09
0.0004
-1.31747e-12
0.0004
-5.24982e-12
0.0004
-1.08956e-11
0.0004
-1.81613e-11
0.0004
-2.73377e-11
0.0004
-3.88797e-11
0.0004
-5.33153e-11
0.0004
-7.12641e-11
0.0004
-9.3462e-11
0.0004
-1.20787e-10
0.0004
-1.54287e-10
0.0004
-1.95216e-10
0.0004
-2.45074e-10
0.0004
-3.05647e-10
0.0004
-3.79062e-10
0.0004
-4.67833e-10
0.0004
-5.74849e-10
0.0004
-7.04121e-10
0.0004
-8.54864e-10
-1.06858e-09
0.0004
-1.41649e-12
0.0004
-5.65918e-12
0.0004
-1.17161e-11
0.0004
-1.94158e-11
0.0004
-2.90266e-11
0.0004
-4.10012e-11
0.0004
-5.5866e-11
0.0004
-7.42386e-11
0.0004
-9.68504e-11
0.0004
-1.24572e-10
0.0004
-1.5844e-10
0.0004
-1.99695e-10
0.0004
-2.49818e-10
0.0004
-3.10575e-10
0.0004
-3.84074e-10
0.0004
-4.72803e-10
0.0004
-5.79653e-10
0.0004
-7.08609e-10
0.0004
-8.59021e-10
-1.07223e-09
0.0004
-1.48629e-12
0.0004
-5.95174e-12
0.0004
-1.23199e-11
0.0004
-2.03587e-11
0.0004
-3.03165e-11
0.0004
-4.26426e-11
0.0004
-5.78602e-11
0.0004
-7.65838e-11
0.0004
-9.95396e-11
0.0004
-1.2759e-10
0.0004
-1.61762e-10
0.0004
-2.0328e-10
0.0004
-2.53606e-10
0.0004
-3.14487e-10
0.0004
-3.88006e-10
0.0004
-4.76628e-10
0.0004
-5.83235e-10
0.0004
-7.11797e-10
0.0004
-8.6176e-10
-1.07434e-09
0.0004
-1.53556e-12
0.0004
-6.15675e-12
0.0004
-1.27503e-11
0.0004
-2.10392e-11
0.0004
-3.12572e-11
0.0004
-4.38502e-11
0.0004
-5.93383e-11
0.0004
-7.83324e-11
0.0004
-1.01553e-10
0.0004
-1.29855e-10
0.0004
-1.64253e-10
0.0004
-2.05956e-10
0.0004
-2.56408e-10
0.0004
-3.17329e-10
0.0004
-3.90779e-10
0.0004
-4.79196e-10
0.0004
-5.85448e-10
0.0004
-7.13489e-10
0.0004
-8.62829e-10
-1.0746e-09
0.0004
-1.56916e-12
0.0004
-6.29429e-12
0.0004
-1.30395e-11
0.0004
-2.14982e-11
0.0004
-3.1895e-11
0.0004
-4.46731e-11
0.0004
-6.03498e-11
0.0004
-7.95321e-11
0.0004
-1.02935e-10
0.0004
-1.31405e-10
0.0004
-1.65945e-10
0.0004
-2.07748e-10
0.0004
-2.58234e-10
0.0004
-3.19102e-10
0.0004
-3.92378e-10
0.0004
-4.80475e-10
0.0004
-5.86235e-10
0.0004
-7.13601e-10
0.0004
-8.62109e-10
-1.07283e-09
0.0004
-1.58978e-12
0.0004
-6.37712e-12
0.0004
-1.32089e-11
0.0004
-2.17648e-11
0.0004
-3.22652e-11
0.0004
-4.51513e-11
0.0004
-6.09377e-11
0.0004
-8.02282e-11
0.0004
-1.03732e-10
0.0004
-1.32286e-10
0.0004
-1.66882e-10
0.0004
-2.08695e-10
0.0004
-2.59124e-10
0.0004
-3.19837e-10
0.0004
-3.9283e-10
0.0004
-4.80485e-10
0.0004
-5.8561e-10
0.0004
-7.12139e-10
0.0004
-8.59602e-10
-1.06903e-09
0.0004
-1.59931e-12
0.0004
-6.41147e-12
0.0004
-1.32698e-11
0.0004
-2.18556e-11
0.0004
-3.23891e-11
0.0004
-4.531e-11
0.0004
-6.11309e-11
0.0004
-8.04518e-11
0.0004
-1.03977e-10
0.0004
-1.32533e-10
0.0004
-1.671e-10
0.0004
-2.08836e-10
0.0004
-2.59115e-10
0.0004
-3.19578e-10
0.0004
-3.92185e-10
0.0004
-4.79283e-10
0.0004
-5.83641e-10
0.0004
-7.09183e-10
0.0004
-8.55404e-10
-1.0633e-09
0.0004
-1.59861e-12
0.0004
-6.39822e-12
0.0004
-1.32253e-11
0.0004
-2.17756e-11
0.0004
-3.22733e-11
0.0004
-4.51575e-11
0.0004
-6.09389e-11
0.0004
-8.02141e-11
0.0004
-1.03681e-10
0.0004
-1.3216e-10
0.0004
-1.66617e-10
0.0004
-2.08191e-10
0.0004
-2.58237e-10
0.0004
-3.18362e-10
0.0004
-3.90492e-10
0.0004
-4.76939e-10
0.0004
-5.8042e-10
0.0004
-7.04855e-10
0.0004
-8.49678e-10
-1.05584e-09
0.0004
-1.58682e-12
0.0004
-6.33355e-12
0.0004
-1.30699e-11
0.0004
-2.1518e-11
0.0004
-3.19101e-11
0.0004
-4.46847e-11
0.0004
-6.03514e-11
0.0004
-7.9504e-11
0.0004
-1.02836e-10
0.0004
-1.31158e-10
0.0004
-1.65424e-10
0.0004
-2.0676e-10
0.0004
-2.56496e-10
0.0004
-3.16212e-10
0.0004
-3.87795e-10
0.0004
-4.73522e-10
0.0004
-5.76058e-10
0.0004
-6.99312e-10
0.0004
-8.42635e-10
-1.04694e-09
0.0004
-1.56121e-12
0.0004
-6.20896e-12
0.0004
-1.27903e-11
0.0004
-2.10651e-11
0.0004
-3.12771e-11
0.0004
-4.38654e-11
0.0004
-5.93392e-11
0.0004
-7.82903e-11
0.0004
-1.01408e-10
0.0004
-1.29496e-10
0.0004
-1.63498e-10
0.0004
-2.04525e-10
0.0004
-2.53888e-10
0.0004
-3.1314e-10
0.0004
-3.84132e-10
0.0004
-4.69108e-10
0.0004
-5.70675e-10
0.0004
-6.92731e-10
0.0004
-8.34525e-10
-1.03691e-09
0.0004
-1.51723e-12
0.0004
-6.01051e-12
0.0004
-1.23642e-11
0.0004
-2.0387e-11
0.0004
-3.03381e-11
0.0004
-4.26586e-11
0.0004
-5.7858e-11
0.0004
-7.6527e-11
0.0004
-9.93517e-11
0.0004
-1.27131e-10
0.0004
-1.608e-10
0.0004
-2.01458e-10
0.0004
-2.504e-10
0.0004
-3.09155e-10
0.0004
-3.79544e-10
0.0004
-4.63777e-10
0.0004
-5.64407e-10
0.0004
-6.85315e-10
0.0004
-8.25632e-10
-1.02614e-09
0.0004
-1.44873e-12
0.0004
-5.71759e-12
0.0004
-1.17589e-11
0.0004
-1.94423e-11
0.0004
-2.90461e-11
0.0004
-4.1014e-11
0.0004
-5.58568e-11
0.0004
-7.41651e-11
0.0004
-9.66228e-11
0.0004
-1.24025e-10
0.0004
-1.57302e-10
0.0004
-1.97543e-10
0.0004
-2.46033e-10
0.0004
-3.04283e-10
0.0004
-3.7409e-10
0.0004
-4.57634e-10
0.0004
-5.57415e-10
0.0004
-6.77299e-10
0.0004
-8.16279e-10
-1.01506e-09
0.0004
-1.34723e-12
0.0004
-5.30121e-12
0.0004
-1.09313e-11
0.0004
-1.81812e-11
0.0004
-2.735e-11
0.0004
-3.88837e-11
0.0004
-5.32935e-11
0.0004
-7.11698e-11
0.0004
-9.31957e-11
0.0004
-1.20164e-10
0.0004
-1.53002e-10
0.0004
-1.92795e-10
0.0004
-2.40821e-10
0.0004
-2.98584e-10
0.0004
-3.6786e-10
0.0004
-4.5081e-10
0.0004
-5.49892e-10
0.0004
-6.68947e-10
0.0004
-8.06822e-10
-1.00413e-09
0.0004
-1.19644e-12
0.0004
-4.72134e-12
0.0004
-9.83209e-12
0.0004
-1.6557e-11
0.0004
-2.52124e-11
0.0004
-3.62424e-11
0.0004
-5.01565e-11
0.0004
-6.75442e-11
0.0004
-8.90878e-11
0.0004
-1.1558e-10
0.0004
-1.47948e-10
0.0004
-1.87277e-10
0.0004
-2.34849e-10
0.0004
-2.92163e-10
0.0004
-3.60988e-10
0.0004
-4.43476e-10
0.0004
-5.42056e-10
0.0004
-6.60549e-10
0.0004
-7.9764e-10
-9.93818e-10
0.0004
-9.61798e-13
0.0004
-3.92858e-12
0.0004
-8.42181e-12
0.0004
-1.4551e-11
0.0004
-2.26373e-11
0.0004
-3.3116e-11
0.0004
-4.64916e-11
0.0004
-6.33522e-11
0.0004
-8.43804e-11
0.0004
-1.1037e-10
0.0004
-1.42251e-10
0.0004
-1.81116e-10
0.0004
-2.28253e-10
0.0004
-2.8517e-10
0.0004
-3.5364e-10
0.0004
-4.35815e-10
0.0004
-5.34122e-10
0.0004
-6.52379e-10
0.0004
-7.8912e-10
-9.84607e-10
0.0004
-6.20513e-13
0.0004
-2.9261e-12
0.0004
-6.73803e-12
0.0004
-1.22342e-11
0.0004
-1.97206e-11
0.0004
-2.9618e-11
0.0004
-4.24231e-11
0.0004
-5.87251e-11
0.0004
-7.92106e-11
0.0004
-1.04677e-10
0.0004
-1.36058e-10
0.0004
-1.74458e-10
0.0004
-2.21178e-10
0.0004
-2.77737e-10
0.0004
-3.45924e-10
0.0004
-4.27917e-10
0.0004
-5.26153e-10
0.0004
-6.4451e-10
0.0004
-7.81453e-10
-9.77156e-10
0.0004
0.0004
0.0004
0.0004
0.0004
0.0004
0.0004
0.0004
0.0004
0.0004
0.0004
0.0004
0.0004
0.0004
0.0004
0.0004
0.0004
0.0004
0.0004
)
;

boundaryField
{
    inlet
    {
        type            calculated;
        value           nonuniform List<scalar> 
20
(
-0.0004
-0.0004
-0.0004
-0.0004
-0.0004
-0.0004
-0.0004
-0.0004
-0.0004
-0.0004
-0.0004
-0.0004
-0.0004
-0.0004
-0.0004
-0.0004
-0.0004
-0.0004
-0.0004
-0.0004
)
;
    }
    outlet
    {
        type            calculated;
        value           nonuniform List<scalar> 
20
(
0.0004
0.0004
0.0004
0.0004
0.0004
0.0004
0.0004
0.0004
0.0004
0.0004
0.0004
0.0004
0.0004
0.0004
0.0004
0.0004
0.0004
0.0004
0.0004
0.0004
)
;
    }
    up
    {
        type            calculated;
        value           nonuniform List<scalar> 
20
(
-1.69392e-13
-1.74135e-12
-4.923e-12
-9.7846e-12
-1.66517e-11
-2.59461e-11
-3.81599e-11
-5.38799e-11
-7.37974e-11
-9.87186e-11
-1.29585e-10
-1.6751e-10
-2.13811e-10
-2.70031e-10
-3.37976e-10
-4.19838e-10
-5.18134e-10
-6.36731e-10
-7.74473e-10
-9.71421e-10
)
;
    }
    down
    {
        type            calculated;
        value           nonuniform List<scalar> 
20
(
1.66613e-13
1.73291e-12
4.92906e-12
9.80704e-12
1.66885e-11
2.60109e-11
3.82827e-11
5.41191e-11
7.42722e-11
9.96537e-11
1.3136e-10
1.70707e-10
2.1927e-10
2.78928e-10
3.51903e-10
4.40818e-10
5.48632e-10
6.79527e-10
8.32501e-10
1.04965e-09
)
;
    }
    frontAndBack
    {
        type            empty;
        value           nonuniform List<scalar> 0();
    }
}


// ************************************************************************* //
