/*--------------------------------*- C++ -*----------------------------------*\
  =========                 |
  \\      /  F ield         | OpenFOAM: The Open Source CFD Toolbox
   \\    /   O peration     | Website:  https://openfoam.org
    \\  /    A nd           | Version:  8
     \\/     M anipulation  |
\*---------------------------------------------------------------------------*/
FoamFile
{
    version     2.0;
    format      ascii;
    class       surfaceScalarField;
    location    "54";
    object      phi;
}
// * * * * * * * * * * * * * * * * * * * * * * * * * * * * * * * * * * * * * //

dimensions      [0 3 -1 0 0 0 0];

internalField   nonuniform List<scalar> 
22960
(
-1.87036e-07
1.86695e-07
-7.97136e-07
6.101e-07
-1.60821e-06
8.11076e-07
-2.50114e-06
8.92927e-07
-3.41843e-06
9.17294e-07
-4.33995e-06
9.21514e-07
-5.26128e-06
9.21338e-07
-6.18255e-06
9.21262e-07
-7.10463e-06
9.22087e-07
-8.02833e-06
9.23693e-07
-8.95418e-06
9.2585e-07
-9.88258e-06
9.28405e-07
-1.08138e-05
9.31266e-07
-1.17482e-05
9.34382e-07
-1.26859e-05
9.37719e-07
-1.36272e-05
9.4125e-07
-1.45722e-05
9.44952e-07
-1.5521e-05
9.48804e-07
-1.64737e-05
9.52783e-07
-1.74306e-05
9.56867e-07
-1.83916e-05
9.61033e-07
-1.93569e-05
9.65255e-07
-2.03264e-05
9.69508e-07
-2.13002e-05
9.73766e-07
-2.22782e-05
9.77998e-07
-2.32603e-05
9.82177e-07
-2.42466e-05
9.8627e-07
-2.52369e-05
9.90246e-07
-2.62309e-05
9.94072e-07
-2.72286e-05
9.97712e-07
-2.82298e-05
1.00113e-06
-2.92341e-05
1.0043e-06
-3.02412e-05
1.00717e-06
-3.1251e-05
1.00972e-06
-3.22629e-05
1.0119e-06
-3.32765e-05
1.01368e-06
-3.42916e-05
1.01502e-06
-3.53074e-05
1.01589e-06
-3.63237e-05
1.01625e-06
-3.73398e-05
1.01607e-06
-3.83551e-05
1.01529e-06
-3.93689e-05
1.01388e-06
-4.03807e-05
1.01175e-06
-4.13895e-05
1.0088e-06
-4.23943e-05
1.00485e-06
-4.33939e-05
9.99591e-07
-4.43864e-05
9.92453e-07
-4.53687e-05
9.82355e-07
-4.6336e-05
9.67223e-07
-4.7279e-05
9.43061e-07
-4.81814e-05
9.02427e-07
-4.90142e-05
8.32738e-07
-4.97307e-05
7.16502e-07
-5.0268e-05
5.37276e-07
-5.05752e-05
3.07203e-07
-5.08109e-05
2.35693e-07
-5.18832e-05
1.0723e-06
-5.53295e-05
3.44636e-06
-7.09918e-05
1.56623e-05
3.61877e-05
-0.00010718
-6.28347e-07
8.15042e-07
-1.96811e-06
1.94986e-06
-3.65655e-06
2.49951e-06
-5.50068e-06
2.73707e-06
-7.4061e-06
2.82271e-06
-9.33348e-06
2.84889e-06
-1.12686e-05
2.8565e-06
-1.32074e-05
2.86006e-06
-1.51492e-05
2.86383e-06
-1.70941e-05
2.86865e-06
-1.90428e-05
2.87448e-06
-2.09955e-05
2.88115e-06
-2.29528e-05
2.88851e-06
-2.49148e-05
2.89646e-06
-2.6882e-05
2.90491e-06
-2.88546e-05
2.91379e-06
-3.08326e-05
2.92304e-06
-3.28164e-05
2.93257e-06
-3.4806e-05
2.94234e-06
-3.68014e-05
2.95226e-06
-3.88026e-05
2.96227e-06
-4.08096e-05
2.97227e-06
-4.28223e-05
2.9822e-06
-4.48405e-05
2.99195e-06
-4.6864e-05
3.00146e-06
-4.88924e-05
3.01061e-06
-5.09254e-05
3.01932e-06
-5.29627e-05
3.02749e-06
-5.50036e-05
3.035e-06
-5.70477e-05
3.04177e-06
-5.90942e-05
3.04768e-06
-6.11426e-05
3.05264e-06
-6.31919e-05
3.05654e-06
-6.52415e-05
3.05929e-06
-6.72904e-05
3.06079e-06
-6.93377e-05
3.06098e-06
-7.13825e-05
3.05978e-06
-7.34237e-05
3.05714e-06
-7.54605e-05
3.05304e-06
-7.74919e-05
3.04746e-06
-7.9517e-05
3.04043e-06
-8.15351e-05
3.03199e-06
-8.35456e-05
3.02222e-06
-8.5548e-05
3.01119e-06
-8.75421e-05
2.99899e-06
-8.95281e-05
2.98559e-06
-9.15064e-05
2.97076e-06
-9.34779e-05
2.95383e-06
-9.5444e-05
2.93329e-06
-9.74072e-05
2.90632e-06
-9.93737e-05
2.86889e-06
-0.000101359
2.81837e-06
-0.000103407
2.76426e-06
-0.000105629
2.7587e-06
-0.000108299
2.97734e-06
-0.000111988
3.92531e-06
-0.000117603
6.68674e-06
-0.000126844
1.26879e-05
-0.0001391
2.79177e-05
4.76766e-05
-0.000150589
-8.58037e-07
1.67308e-06
-2.58441e-06
3.67623e-06
-4.72849e-06
4.6436e-06
-7.05526e-06
5.06383e-06
-9.45554e-06
5.22299e-06
-1.18836e-05
5.27701e-06
-1.43224e-05
5.29521e-06
-1.67661e-05
5.30381e-06
-1.92135e-05
5.31121e-06
-2.16644e-05
5.31958e-06
-2.41191e-05
5.32922e-06
-2.6578e-05
5.34004e-06
-2.90414e-05
5.35186e-06
-3.15095e-05
5.36453e-06
-3.39825e-05
5.37793e-06
-3.64606e-05
5.39193e-06
-3.8944e-05
5.40641e-06
-4.14327e-05
5.42125e-06
-4.39267e-05
5.43634e-06
-4.64259e-05
5.45153e-06
-4.89304e-05
5.4667e-06
-5.14398e-05
5.4817e-06
-5.3954e-05
5.49638e-06
-5.64726e-05
5.51059e-06
-5.89953e-05
5.52415e-06
-6.15216e-05
5.5369e-06
-6.4051e-05
5.54868e-06
-6.65827e-05
5.55929e-06
-6.91163e-05
5.56855e-06
-7.16508e-05
5.57629e-06
-7.41855e-05
5.58233e-06
-7.67193e-05
5.58649e-06
-7.92514e-05
5.58861e-06
-8.17806e-05
5.58853e-06
-8.4306e-05
5.58613e-06
-8.68263e-05
5.5813e-06
-8.93405e-05
5.57398e-06
-9.18475e-05
5.56416e-06
-9.43463e-05
5.55187e-06
-9.68361e-05
5.53723e-06
-9.93162e-05
5.52048e-06
-0.000101786
5.50193e-06
-0.000104246
5.48207e-06
-0.000106696
5.46156e-06
-0.000109139
5.44125e-06
-0.000111575
5.42219e-06
-0.00011401
5.4057e-06
-0.00011645
5.39337e-06
-0.000118904
5.38725e-06
-0.000121388
5.39061e-06
-0.00012393
5.41057e-06
-0.000126577
5.46547e-06
-0.000129416
5.60361e-06
-0.000132604
5.94654e-06
-0.000136405
6.77802e-06
-0.000141156
8.6772e-06
-0.000147076
1.26067e-05
-0.00015435
1.99612e-05
-0.000159818
3.33863e-05
4.93201e-05
-0.000161462
-9.63481e-07
2.63656e-06
-2.87827e-06
5.59101e-06
-5.23915e-06
7.00448e-06
-7.78981e-06
7.61449e-06
-1.04161e-05
7.84928e-06
-1.30713e-05
7.93222e-06
-1.5738e-05
7.96188e-06
-1.84103e-05
7.97609e-06
-2.10865e-05
7.98741e-06
-2.37663e-05
7.99937e-06
-2.64497e-05
8.01268e-06
-2.9137e-05
8.02734e-06
-3.18284e-05
8.04321e-06
-3.4524e-05
8.06012e-06
-3.72239e-05
8.07789e-06
-3.99284e-05
8.09636e-06
-4.26373e-05
8.11536e-06
-4.53508e-05
8.13472e-06
-4.80687e-05
8.15426e-06
-5.07909e-05
8.17378e-06
-5.35173e-05
8.19309e-06
-5.62476e-05
8.21198e-06
-5.89815e-05
8.23022e-06
-6.17185e-05
8.24759e-06
-6.44581e-05
8.26383e-06
-6.71999e-05
8.2787e-06
-6.99432e-05
8.29196e-06
-7.26872e-05
8.30332e-06
-7.54312e-05
8.31254e-06
-7.81743e-05
8.31934e-06
-8.09154e-05
8.32348e-06
-8.36537e-05
8.32471e-06
-8.63879e-05
8.32281e-06
-8.91169e-05
8.31756e-06
-9.18396e-05
8.30881e-06
-9.45547e-05
8.29646e-06
-9.72612e-05
8.28044e-06
-9.99579e-05
8.26082e-06
-0.000102644
8.23774e-06
-0.000105318
8.21153e-06
-0.00010798
8.18267e-06
-0.00011063
8.15192e-06
-0.000113268
8.12034e-06
-0.000115896
8.08939e-06
-0.000118516
8.06109e-06
-0.000121132
8.03818e-06
-0.000123751
8.02441e-06
-0.000126383
8.02504e-06
-0.000129043
8.0478e-06
-0.000131757
8.10492e-06
-0.000134564
8.21755e-06
-0.000137524
8.42532e-06
-0.000140726
8.80556e-06
-0.00014429
9.50995e-06
-0.000148335
1.08232e-05
-0.000152881
1.32237e-05
-0.00015767
1.73956e-05
-0.000161906
2.41974e-05
-0.000162911
3.43905e-05
4.56819e-05
-0.000159272
-1.00191e-06
3.63847e-06
-2.99852e-06
7.58763e-06
-5.45437e-06
9.46034e-06
-8.10195e-06
1.02621e-05
-1.08245e-05
1.05718e-05
-1.35752e-05
1.06829e-05
-1.6337e-05
1.07237e-05
-1.91042e-05
1.07434e-05
-2.18754e-05
1.07586e-05
-2.46501e-05
1.07741e-05
-2.74284e-05
1.07909e-05
-3.02103e-05
1.08092e-05
-3.29959e-05
1.08289e-05
-3.57855e-05
1.08497e-05
-3.85791e-05
1.08715e-05
-4.13768e-05
1.0894e-05
-4.41785e-05
1.09171e-05
-4.69843e-05
1.09405e-05
-4.9794e-05
1.09639e-05
-5.26074e-05
1.09872e-05
-5.54244e-05
1.10101e-05
-5.82446e-05
1.10322e-05
-6.10677e-05
1.10533e-05
-6.38932e-05
1.10731e-05
-6.67205e-05
1.10912e-05
-6.95492e-05
1.11074e-05
-7.23784e-05
1.11212e-05
-7.52075e-05
1.11324e-05
-7.80354e-05
1.11405e-05
-8.08614e-05
1.11453e-05
-8.36844e-05
1.11465e-05
-8.65032e-05
1.11436e-05
-8.93168e-05
1.11364e-05
-9.21239e-05
1.11246e-05
-9.49232e-05
1.11081e-05
-9.77135e-05
1.10868e-05
-0.000100494
1.10605e-05
-0.000103262
1.10295e-05
-0.000106018
1.09939e-05
-0.000108761
1.09543e-05
-0.00011149
1.09115e-05
-0.000114205
1.08667e-05
-0.000116906
1.08214e-05
-0.000119595
1.0778e-05
-0.000122273
1.07397e-05
-0.000124946
1.07109e-05
-0.000127619
1.06977e-05
-0.000130303
1.07089e-05
-0.000133012
1.07571e-05
-0.000135769
1.08616e-05
-0.000138605
1.1053e-05
-0.000141561
1.13818e-05
-0.000144689
1.19337e-05
-0.000148033
1.28532e-05
-0.000151582
1.43722e-05
-0.000155184
1.68257e-05
-0.000158416
2.06283e-05
-0.0001604
2.61814e-05
-0.000159446
3.3436e-05
4.11374e-05
-0.000154901
-1.01211e-06
4.65057e-06
-3.03997e-06
9.61549e-06
-5.53333e-06
1.19537e-05
-8.21932e-06
1.29481e-05
-1.09794e-05
1.33319e-05
-1.37667e-05
1.34702e-05
-1.65645e-05
1.35215e-05
-1.93676e-05
1.35465e-05
-2.21744e-05
1.35655e-05
-2.49848e-05
1.35844e-05
-2.77987e-05
1.36048e-05
-3.06162e-05
1.36267e-05
-3.34374e-05
1.36501e-05
-3.62625e-05
1.36748e-05
-3.90915e-05
1.37005e-05
-4.19245e-05
1.3727e-05
-4.47615e-05
1.3754e-05
-4.76023e-05
1.37813e-05
-5.0447e-05
1.38086e-05
-5.32952e-05
1.38355e-05
-5.61469e-05
1.38617e-05
-5.90016e-05
1.38869e-05
-6.1859e-05
1.39107e-05
-6.47186e-05
1.39327e-05
-6.75799e-05
1.39525e-05
-7.04422e-05
1.39697e-05
-7.33049e-05
1.39839e-05
-7.61671e-05
1.39946e-05
-7.9028e-05
1.40014e-05
-8.18865e-05
1.40039e-05
-8.47416e-05
1.40016e-05
-8.75922e-05
1.39942e-05
-9.04371e-05
1.39812e-05
-9.32749e-05
1.39624e-05
-9.61043e-05
1.39376e-05
-9.89241e-05
1.39065e-05
-0.000101733
1.38692e-05
-0.000104529
1.38257e-05
-0.000107311
1.37765e-05
-0.000110079
1.37221e-05
-0.000112831
1.36637e-05
-0.000115567
1.36026e-05
-0.000118287
1.3541e-05
-0.000120991
1.3482e-05
-0.000123681
1.34295e-05
-0.000126359
1.33894e-05
-0.000129031
1.33694e-05
-0.000131702
1.33806e-05
-0.000134384
1.34387e-05
-0.000137089
1.35666e-05
-0.000139834
1.37982e-05
-0.000142637
1.41849e-05
-0.000145509
1.4805e-05
-0.000148431
1.57753e-05
-0.000151319
1.72602e-05
-0.000153959
1.94661e-05
-0.000155937
2.26067e-05
-0.000156555
2.67985e-05
-0.00015492
3.18019e-05
3.68677e-05
-0.000150651
-1.01273e-06
5.6633e-06
-3.04997e-06
1.16527e-05
-5.55561e-06
1.44593e-05
-8.25473e-06
1.56472e-05
-1.10276e-05
1.61048e-05
-1.3827e-05
1.62697e-05
-1.66366e-05
1.63311e-05
-1.94513e-05
1.63611e-05
-2.22697e-05
1.63838e-05
-2.50916e-05
1.64063e-05
-2.7917e-05
1.64303e-05
-3.07462e-05
1.64559e-05
-3.35793e-05
1.64832e-05
-3.64163e-05
1.65118e-05
-3.92574e-05
1.65416e-05
-4.21025e-05
1.65722e-05
-4.49518e-05
1.66033e-05
-4.78051e-05
1.66346e-05
-5.06623e-05
1.66658e-05
-5.35233e-05
1.66965e-05
-5.63878e-05
1.67262e-05
-5.92556e-05
1.67547e-05
-6.21262e-05
1.67813e-05
-6.49992e-05
1.68057e-05
-6.78741e-05
1.68274e-05
-7.07502e-05
1.68458e-05
-7.36268e-05
1.68605e-05
-7.65031e-05
1.68709e-05
-7.93783e-05
1.68765e-05
-8.22512e-05
1.68768e-05
-8.51208e-05
1.68712e-05
-8.79859e-05
1.68593e-05
-9.08453e-05
1.68406e-05
-9.36976e-05
1.68147e-05
-9.65413e-05
1.67813e-05
-9.9375e-05
1.67402e-05
-0.000102197
1.66913e-05
-0.000105006
1.66347e-05
-0.000107801
1.65709e-05
-0.000110579
1.65005e-05
-0.00011334
1.64246e-05
-0.000116082
1.6345e-05
-0.000118805
1.6264e-05
-0.000121508
1.6185e-05
-0.000124191
1.61126e-05
-0.000126855
1.60532e-05
-0.000129501
1.60155e-05
-0.000132132
1.60115e-05
-0.000134751
1.60575e-05
-0.000137361
1.61767e-05
-0.000139964
1.64014e-05
-0.000142556
1.67768e-05
-0.000145117
1.7366e-05
-0.000147595
1.82533e-05
-0.000149879
1.95439e-05
-0.000151764
2.13509e-05
-0.000152918
2.37609e-05
-0.000152876
2.67568e-05
-0.000151169
3.00949e-05
3.32908e-05
-0.000147592
-1.01057e-06
6.67387e-06
-3.04853e-06
1.36907e-05
-5.55624e-06
1.6967e-05
-8.25819e-06
1.83491e-05
-1.10339e-05
1.88805e-05
-1.3836e-05
1.90718e-05
-1.66481e-05
1.91431e-05
-1.94651e-05
1.91781e-05
-2.22859e-05
1.92046e-05
-2.51102e-05
1.92307e-05
-2.79383e-05
1.92583e-05
-3.07702e-05
1.92879e-05
-3.36062e-05
1.93192e-05
-3.64464e-05
1.9352e-05
-3.92909e-05
1.9386e-05
-4.21397e-05
1.9421e-05
-4.49928e-05
1.94565e-05
-4.78503e-05
1.94921e-05
-5.07121e-05
1.95276e-05
-5.35779e-05
1.95623e-05
-5.64476e-05
1.9596e-05
-5.93209e-05
1.9628e-05
-6.21975e-05
1.96579e-05
-6.50768e-05
1.9685e-05
-6.79584e-05
1.9709e-05
-7.08417e-05
1.97291e-05
-7.37259e-05
1.97447e-05
-7.66102e-05
1.97552e-05
-7.94938e-05
1.976e-05
-8.23755e-05
1.97585e-05
-8.52543e-05
1.975e-05
-8.8129e-05
1.9734e-05
-9.09982e-05
1.97098e-05
-9.38605e-05
1.9677e-05
-9.67143e-05
1.96351e-05
-9.95579e-05
1.95839e-05
-0.00010239
1.95232e-05
-0.000105208
1.9453e-05
-0.000108011
1.93737e-05
-0.000110796
1.92859e-05
-0.000113562
1.91908e-05
-0.000116307
1.909e-05
-0.000119029
1.8986e-05
-0.000121727
1.88823e-05
-0.000124398
1.87834e-05
-0.00012704
1.86959e-05
-0.000129653
1.86283e-05
-0.000132234
1.85921e-05
-0.000134779
1.8603e-05
-0.000137284
1.86816e-05
-0.000139738
1.88554e-05
-0.000142122
1.91605e-05
-0.000144399
1.96431e-05
-0.000146504
2.03587e-05
-0.000148328
2.13676e-05
-0.000149699
2.27219e-05
-0.000150376
2.44383e-05
-0.00015007
2.64502e-05
-0.000148531
2.85565e-05
3.04265e-05
-0.000145667
-1.00775e-06
7.68162e-06
-3.04317e-06
1.57261e-05
-5.54895e-06
1.94728e-05
-8.24966e-06
2.10498e-05
-1.10244e-05
2.16552e-05
-1.38255e-05
2.18729e-05
-1.66365e-05
2.19542e-05
-1.94526e-05
2.19941e-05
-2.22724e-05
2.20244e-05
-2.50959e-05
2.20542e-05
-2.79233e-05
2.20858e-05
-3.07549e-05
2.21194e-05
-3.35907e-05
2.2155e-05
-3.64309e-05
2.21923e-05
-3.92758e-05
2.22309e-05
-4.21253e-05
2.22705e-05
-4.49796e-05
2.23107e-05
-4.78386e-05
2.23511e-05
-5.07022e-05
2.23912e-05
-5.35704e-05
2.24305e-05
-5.64429e-05
2.24685e-05
-5.93195e-05
2.25046e-05
-6.21998e-05
2.25382e-05
-6.50835e-05
2.25687e-05
-6.797e-05
2.25955e-05
-7.08588e-05
2.26178e-05
-7.3749e-05
2.26349e-05
-7.664e-05
2.26462e-05
-7.95308e-05
2.26508e-05
-8.24204e-05
2.26481e-05
-8.53076e-05
2.26372e-05
-8.81911e-05
2.26175e-05
-9.10696e-05
2.25883e-05
-9.39416e-05
2.25489e-05
-9.68053e-05
2.24988e-05
-9.96591e-05
2.24376e-05
-0.000102501
2.23649e-05
-0.000105329
2.22807e-05
-0.00010814
2.21852e-05
-0.000110933
2.20789e-05
-0.000113705
2.19627e-05
-0.000116453
2.18382e-05
-0.000119175
2.17077e-05
-0.000121867
2.15742e-05
-0.000124526
2.14423e-05
-0.000127148
2.13178e-05
-0.000129728
2.12084e-05
-0.00013226
2.11244e-05
-0.000134736
2.10791e-05
-0.000137144
2.10895e-05
-0.000139466
2.11773e-05
-0.000141674
2.13686e-05
-0.000143725
2.16944e-05
-0.000145554
2.21876e-05
-0.000147064
2.28777e-05
-0.000148123
2.37801e-05
-0.000148561
2.48772e-05
-0.000148203
2.60919e-05
-0.000146915
2.72681e-05
2.81771e-05
-0.000144665
-1.00476e-06
8.68637e-06
-3.03632e-06
1.77577e-05
-5.53854e-06
2.1975e-05
-8.23628e-06
2.37476e-05
-1.10083e-05
2.44272e-05
-1.3807e-05
2.46716e-05
-1.66156e-05
2.47628e-05
-1.94293e-05
2.48078e-05
-2.22469e-05
2.4842e-05
-2.50684e-05
2.48757e-05
-2.7894e-05
2.49114e-05
-3.0724e-05
2.49493e-05
-3.35585e-05
2.49895e-05
-3.63978e-05
2.50316e-05
-3.9242e-05
2.50751e-05
-4.20913e-05
2.51198e-05
-4.49458e-05
2.51652e-05
-4.78054e-05
2.52107e-05
-5.06702e-05
2.5256e-05
-5.354e-05
2.53003e-05
-5.64148e-05
2.53432e-05
-5.92942e-05
2.5384e-05
-6.2178e-05
2.5422e-05
-6.50657e-05
2.54565e-05
-6.7957e-05
2.54867e-05
-7.08512e-05
2.5512e-05
-7.37476e-05
2.55314e-05
-7.66455e-05
2.55441e-05
-7.95439e-05
2.55492e-05
-8.24418e-05
2.5546e-05
-8.5338e-05
2.55335e-05
-8.82313e-05
2.55108e-05
-9.11201e-05
2.54772e-05
-9.40029e-05
2.54317e-05
-9.68779e-05
2.53738e-05
-9.97431e-05
2.53028e-05
-0.000102596
2.52182e-05
-0.000105435
2.51198e-05
-0.000108258
2.50074e-05
-0.00011106
2.48815e-05
-0.00011384
2.47426e-05
-0.000116594
2.45921e-05
-0.000119318
2.44317e-05
-0.000122008
2.42641e-05
-0.000124659
2.40931e-05
-0.000127265
2.39235e-05
-0.000129818
2.37618e-05
-0.00013231
2.36165e-05
-0.000134729
2.3498e-05
-0.000137059
2.34191e-05
-0.000139277
2.33953e-05
-0.000141352
2.34441e-05
-0.000143242
2.35839e-05
-0.000144885
2.38312e-05
-0.000146204
2.41959e-05
-0.000147096
2.46728e-05
-0.000147449
2.52301e-05
-0.000147153
2.5796e-05
-0.000146137
2.62514e-05
2.64369e-05
-0.000144396
-1.00161e-06
9.68798e-06
-3.02861e-06
1.97847e-05
-5.52643e-06
2.44729e-05
-8.22031e-06
2.64415e-05
-1.09889e-05
2.71958e-05
-1.37842e-05
2.74669e-05
-1.65897e-05
2.75683e-05
-1.94004e-05
2.76185e-05
-2.22152e-05
2.76568e-05
-2.50341e-05
2.76946e-05
-2.78573e-05
2.77346e-05
-3.06852e-05
2.77772e-05
-3.35179e-05
2.78223e-05
-3.63558e-05
2.78695e-05
-3.91991e-05
2.79184e-05
-4.20478e-05
2.79686e-05
-4.49022e-05
2.80195e-05
-4.77623e-05
2.80708e-05
-5.0628e-05
2.81217e-05
-5.34994e-05
2.81717e-05
-5.63764e-05
2.82202e-05
-5.92587e-05
2.82663e-05
-6.2146e-05
2.83094e-05
-6.50381e-05
2.83486e-05
-6.79345e-05
2.83831e-05
-7.08346e-05
2.84121e-05
-7.37378e-05
2.84345e-05
-7.66433e-05
2.84496e-05
-7.95502e-05
2.84561e-05
-8.24574e-05
2.84533e-05
-8.53639e-05
2.84399e-05
-8.82681e-05
2.84151e-05
-9.11688e-05
2.83778e-05
-9.4064e-05
2.8327e-05
-9.69521e-05
2.82619e-05
-9.98308e-05
2.81815e-05
-0.000102698
2.80853e-05
-0.000105551
2.79726e-05
-0.000108386
2.78431e-05
-0.000111202
2.76968e-05
-0.000113993
2.7534e-05
-0.000116756
2.73555e-05
-0.000119487
2.71624e-05
-0.00012218
2.69569e-05
-0.000124828
2.67416e-05
-0.000127425
2.65204e-05
-0.000129962
2.62982e-05
-0.000132426
2.6081e-05
-0.000134805
2.58764e-05
-0.000137079
2.56933e-05
-0.000139225
2.55414e-05
-0.000141212
2.54309e-05
-0.000142999
2.53709e-05
-0.000144534
2.53666e-05
-0.000145754
2.54157e-05
-0.000146584
2.5503e-05
-0.000146947
2.55927e-05
-0.000146774
2.5623e-05
-0.000146026
2.55035e-05
2.51221e-05
-0.000144711
-9.98219e-07
1.06862e-05
-3.02013e-06
2.18066e-05
-5.51294e-06
2.69657e-05
-8.20231e-06
2.91308e-05
-1.09668e-05
2.99603e-05
-1.37583e-05
3.02584e-05
-1.65601e-05
3.03702e-05
-1.93673e-05
3.04257e-05
-2.21789e-05
3.04683e-05
-2.49947e-05
3.05104e-05
-2.78152e-05
3.0555e-05
-3.06406e-05
3.06026e-05
-3.34713e-05
3.06529e-05
-3.63075e-05
3.07057e-05
-3.91495e-05
3.07604e-05
-4.19975e-05
3.08166e-05
-4.48516e-05
3.08737e-05
-4.77121e-05
3.09312e-05
-5.05788e-05
3.09885e-05
-5.34518e-05
3.10448e-05
-5.63311e-05
3.10995e-05
-5.92165e-05
3.11517e-05
-6.21078e-05
3.12006e-05
-6.50046e-05
3.12454e-05
-6.79066e-05
3.12851e-05
-7.08132e-05
3.13187e-05
-7.37239e-05
3.13452e-05
-7.66378e-05
3.13635e-05
-7.95542e-05
3.13725e-05
-8.24719e-05
3.1371e-05
-8.53898e-05
3.13578e-05
-8.83066e-05
3.13318e-05
-9.12207e-05
3.12918e-05
-9.41303e-05
3.12366e-05
-9.70335e-05
3.1165e-05
-9.9928e-05
3.10761e-05
-0.000102811
3.09687e-05
-0.000105681
3.0842e-05
-0.000108533
3.06954e-05
-0.000111365
3.05285e-05
-0.000114172
3.03409e-05
-0.000116949
3.0133e-05
-0.000119692
2.99053e-05
-0.000122394
2.96589e-05
-0.000125048
2.93957e-05
-0.000127646
2.9118e-05
-0.000130176
2.88289e-05
-0.000132628
2.85325e-05
-0.000134985
2.82333e-05
-0.000137228
2.79365e-05
-0.000139334
2.76472e-05
-0.000141273
2.73698e-05
-0.000143008
2.71065e-05
-0.000144497
2.68553e-05
-0.000145688
2.6607e-05
-0.000146527
2.63417e-05
-0.00014696
2.60252e-05
-0.000146942
2.56056e-05
-0.000146453
2.50144e-05
2.41717e-05
-0.000145503
-9.94532e-07
1.16807e-05
-3.0108e-06
2.38229e-05
-5.49804e-06
2.94529e-05
-8.18236e-06
3.18152e-05
-1.09422e-05
3.27201e-05
-1.37293e-05
3.30456e-05
-1.6527e-05
3.31679e-05
-1.93303e-05
3.3229e-05
-2.21381e-05
3.32762e-05
-2.49505e-05
3.33229e-05
-2.77679e-05
3.33724e-05
-3.05905e-05
3.34253e-05
-3.34188e-05
3.34812e-05
-3.62531e-05
3.35399e-05
-3.90936e-05
3.36009e-05
-4.19407e-05
3.36636e-05
-4.47945e-05
3.37275e-05
-4.76552e-05
3.37919e-05
-5.05229e-05
3.38561e-05
-5.33976e-05
3.39195e-05
-5.62794e-05
3.39812e-05
-5.91681e-05
3.40404e-05
-6.20635e-05
3.40961e-05
-6.49655e-05
3.41474e-05
-6.78736e-05
3.41932e-05
-7.07874e-05
3.42325e-05
-7.37063e-05
3.42641e-05
-7.66295e-05
3.42868e-05
-7.95564e-05
3.42993e-05
-8.24858e-05
3.43004e-05
-8.54165e-05
3.42886e-05
-8.83473e-05
3.42626e-05
-9.12766e-05
3.42211e-05
-9.42025e-05
3.41625e-05
-9.71231e-05
3.40856e-05
-0.000100036
3.3989e-05
-0.000102939
3.38713e-05
-0.000105828
3.37313e-05
-0.0001087
3.3568e-05
-0.000111552
3.33805e-05
-0.000114379
3.3168e-05
-0.000117177
3.293e-05
-0.000119938
3.26665e-05
-0.000122656
3.23776e-05
-0.000125325
3.20639e-05
-0.000127933
3.17265e-05
-0.000130471
3.13668e-05
-0.000132925
3.09867e-05
-0.00013528
3.05881e-05
-0.000137516
3.01729e-05
-0.000139612
2.97426e-05
-0.000141539
2.92971e-05
-0.000143266
2.88339e-05
-0.000144757
2.83463e-05
-0.000145972
2.78216e-05
-0.000146869
2.72388e-05
-0.000147411
2.65667e-05
-0.000147567
2.57624e-05
-0.000147327
2.47737e-05
2.35425e-05
-0.000146698
-9.90499e-07
1.26712e-05
-3.00057e-06
2.58329e-05
-5.48166e-06
3.1934e-05
-8.16035e-06
3.44939e-05
-1.0915e-05
3.54747e-05
-1.36972e-05
3.58278e-05
-1.64903e-05
3.59609e-05
-1.92892e-05
3.60279e-05
-2.20929e-05
3.60798e-05
-2.49014e-05
3.61314e-05
-2.77153e-05
3.61862e-05
-3.05348e-05
3.62448e-05
-3.33603e-05
3.63068e-05
-3.61924e-05
3.6372e-05
-3.90312e-05
3.64398e-05
-4.18772e-05
3.65096e-05
-4.47304e-05
3.65808e-05
-4.75913e-05
3.66528e-05
-5.04599e-05
3.67248e-05
-5.33364e-05
3.6796e-05
-5.62207e-05
3.68655e-05
-5.91128e-05
3.69325e-05
-6.20127e-05
3.6996e-05
-6.49202e-05
3.70548e-05
-6.78349e-05
3.71079e-05
-7.07564e-05
3.7154e-05
-7.36842e-05
3.71919e-05
-7.66177e-05
3.72203e-05
-7.9556e-05
3.72376e-05
-8.24982e-05
3.72426e-05
-8.54432e-05
3.72336e-05
-8.83895e-05
3.7209e-05
-9.13358e-05
3.71673e-05
-9.42801e-05
3.71068e-05
-9.72203e-05
3.70259e-05
-0.000100154
3.69228e-05
-0.000103079
3.6796e-05
-0.000105992
3.66438e-05
-0.000108888
3.64648e-05
-0.000111765
3.62574e-05
-0.000114618
3.60203e-05
-0.00011744
3.57525e-05
-0.000120226
3.54529e-05
-0.00012297
3.51208e-05
-0.000125661
3.47557e-05
-0.000128292
3.43572e-05
-0.000130851
3.39252e-05
-0.000133323
3.34595e-05
-0.000135695
3.29598e-05
-0.000137948
3.24254e-05
-0.00014006
3.18546e-05
-0.000142007
3.12443e-05
-0.000143761
3.05886e-05
-0.000145293
2.98782e-05
-0.000146571
2.90988e-05
-0.000147561
2.82297e-05
-0.000148238
2.72433e-05
-0.00014858
2.61046e-05
-0.000148579
2.47729e-05
2.32051e-05
-0.000148242
-9.86088e-07
1.36573e-05
-2.98936e-06
2.78362e-05
-5.46368e-06
3.44083e-05
-8.13617e-06
3.71663e-05
-1.08851e-05
3.82236e-05
-1.36619e-05
3.86047e-05
-1.64498e-05
3.87488e-05
-1.92438e-05
3.88219e-05
-2.20428e-05
3.88789e-05
-2.48471e-05
3.89357e-05
-2.76569e-05
3.89961e-05
-3.04729e-05
3.90607e-05
-3.32954e-05
3.91293e-05
-3.61249e-05
3.92015e-05
-3.89617e-05
3.92766e-05
-4.18062e-05
3.93541e-05
-4.46588e-05
3.94334e-05
-4.75197e-05
3.95136e-05
-5.03891e-05
3.95942e-05
-5.32672e-05
3.96741e-05
-5.61541e-05
3.97524e-05
-5.90499e-05
3.98283e-05
-6.19544e-05
3.99005e-05
-6.48677e-05
3.9968e-05
-6.77893e-05
4.00295e-05
-7.07191e-05
4.00838e-05
-7.36565e-05
4.01293e-05
-7.6601e-05
4.01647e-05
-7.95517e-05
4.01884e-05
-8.25079e-05
4.01988e-05
-8.54684e-05
4.01941e-05
-8.8432e-05
4.01726e-05
-9.1397e-05
4.01324e-05
-9.43618e-05
4.00716e-05
-9.73242e-05
3.99883e-05
-0.000100282
3.98805e-05
-0.000103232
3.97461e-05
-0.000106171
3.95832e-05
-0.000109096
3.93898e-05
-0.000112003
3.91638e-05
-0.000114886
3.89034e-05
-0.00011774
3.86066e-05
-0.000120559
3.82718e-05
-0.000123335
3.78971e-05
-0.00012606
3.74809e-05
-0.000128724
3.70215e-05
-0.000131317
3.65174e-05
-0.000133824
3.59665e-05
-0.000136231
3.53667e-05
-0.00013852
3.47151e-05
-0.000140673
3.40076e-05
-0.000142668
3.32386e-05
-0.000144479
3.24004e-05
-0.000146083
3.1482e-05
-0.000147453
3.04685e-05
-0.000148564
2.93405e-05
-0.000149394
2.80739e-05
-0.000149929
2.66397e-05
-0.000150162
2.50059e-05
2.31396e-05
-0.000150097
-9.81272e-07
1.46386e-05
-2.97711e-06
2.9832e-05
-5.44402e-06
3.68752e-05
-8.10968e-06
3.9832e-05
-1.08522e-05
4.09661e-05
-1.36231e-05
4.13755e-05
-1.64052e-05
4.1531e-05
-1.91938e-05
4.16104e-05
-2.19877e-05
4.16728e-05
-2.47871e-05
4.17351e-05
-2.75926e-05
4.18015e-05
-3.04045e-05
4.18727e-05
-3.32235e-05
4.19483e-05
-3.605e-05
4.2028e-05
-3.88845e-05
4.2111e-05
-4.17273e-05
4.21969e-05
-4.45789e-05
4.22849e-05
-4.74396e-05
4.23743e-05
-5.03096e-05
4.24642e-05
-5.31893e-05
4.25538e-05
-5.60788e-05
4.26419e-05
-5.89782e-05
4.27277e-05
-6.18875e-05
4.28099e-05
-6.48067e-05
4.28873e-05
-6.77357e-05
4.29585e-05
-7.06742e-05
4.30223e-05
-7.36218e-05
4.30769e-05
-7.6578e-05
4.31209e-05
-7.95422e-05
4.31526e-05
-8.25134e-05
4.317e-05
-8.54908e-05
4.31714e-05
-8.84731e-05
4.31548e-05
-9.14587e-05
4.3118e-05
-9.4446e-05
4.30589e-05
-9.74329e-05
4.29752e-05
-0.000100417
4.28646e-05
-0.000103396
4.27248e-05
-0.000106366
4.25532e-05
-0.000109323
4.23473e-05
-0.000112264
4.21047e-05
-0.000115183
4.18228e-05
-0.000118076
4.14989e-05
-0.000120934
4.11305e-05
-0.000123752
4.07148e-05
-0.00012652
4.02492e-05
-0.00012923
3.97308e-05
-0.000131869
3.91565e-05
-0.000134425
3.85229e-05
-0.000136885
3.78261e-05
-0.000139231
3.70614e-05
-0.000141446
3.62231e-05
-0.000143512
3.53037e-05
-0.000145405
3.42942e-05
-0.000147106
3.31827e-05
-0.000148592
3.19545e-05
-0.000149843
3.05917e-05
-0.000150842
2.90729e-05
-0.000151577
2.73741e-05
-0.00015204
2.54694e-05
2.33333e-05
-0.000152234
-9.7603e-07
1.56146e-05
-2.96375e-06
3.18198e-05
-5.42255e-06
3.9334e-05
-8.08073e-06
4.24902e-05
-1.08163e-05
4.37017e-05
-1.35806e-05
4.41398e-05
-1.63564e-05
4.43068e-05
-1.91389e-05
4.43929e-05
-2.19271e-05
4.4461e-05
-2.47212e-05
4.45292e-05
-2.75217e-05
4.4602e-05
-3.03292e-05
4.46802e-05
-3.31442e-05
4.47633e-05
-3.59672e-05
4.4851e-05
-3.87989e-05
4.49427e-05
-4.16396e-05
4.50377e-05
-4.44899e-05
4.51352e-05
-4.73501e-05
4.52345e-05
-5.02205e-05
4.53347e-05
-5.31016e-05
4.54348e-05
-5.59935e-05
4.55339e-05
-5.88965e-05
4.56307e-05
-6.18107e-05
4.57241e-05
-6.47361e-05
4.58127e-05
-6.76727e-05
4.58951e-05
-7.06203e-05
4.59698e-05
-7.35786e-05
4.60352e-05
-7.65472e-05
4.60895e-05
-7.95256e-05
4.61309e-05
-8.25129e-05
4.61574e-05
-8.55084e-05
4.61669e-05
-8.85108e-05
4.61572e-05
-9.15188e-05
4.6126e-05
-9.45307e-05
4.60708e-05
-9.75446e-05
4.5989e-05
-0.000100558
4.58781e-05
-0.000103568
4.57352e-05
-0.000106573
4.55573e-05
-0.000109567
4.53416e-05
-0.000112547
4.5085e-05
-0.000115509
4.47841e-05
-0.000118445
4.44357e-05
-0.000121351
4.40364e-05
-0.000124219
4.35826e-05
-0.00012704
4.30705e-05
-0.000129806
4.24962e-05
-0.000132504
4.18552e-05
-0.000135124
4.11429e-05
-0.000137652
4.0354e-05
-0.000140073
3.94822e-05
-0.000142371
3.85205e-05
-0.000144527
3.74602e-05
-0.000146524
3.62912e-05
-0.000148343
3.50014e-05
-0.000149965
3.35764e-05
-0.000151373
3.19996e-05
-0.000152552
3.02522e-05
-0.000153491
2.83136e-05
-0.000154185
2.61628e-05
2.37792e-05
-0.000154631
-9.7034e-07
1.6585e-05
-2.94924e-06
3.37987e-05
-5.3992e-06
4.1784e-05
-8.04919e-06
4.51402e-05
-1.07771e-05
4.64297e-05
-1.35341e-05
4.68968e-05
-1.6303e-05
4.70758e-05
-1.90789e-05
4.71688e-05
-2.18607e-05
4.72428e-05
-2.46489e-05
4.73173e-05
-2.74438e-05
4.7397e-05
-3.02462e-05
4.74826e-05
-3.30567e-05
4.75738e-05
-3.58759e-05
4.76702e-05
-3.87043e-05
4.77711e-05
-4.15425e-05
4.78758e-05
-4.4391e-05
4.79837e-05
-4.72503e-05
4.80938e-05
-5.01209e-05
4.82052e-05
-5.30031e-05
4.8317e-05
-5.58973e-05
4.84281e-05
-5.88038e-05
4.85372e-05
-6.17227e-05
4.86431e-05
-6.46544e-05
4.87443e-05
-6.75987e-05
4.88394e-05
-7.05557e-05
4.89268e-05
-7.35251e-05
4.90047e-05
-7.65067e-05
4.90712e-05
-7.95e-05
4.91243e-05
-8.25045e-05
4.91619e-05
-8.55192e-05
4.91817e-05
-8.85432e-05
4.91812e-05
-9.15752e-05
4.9158e-05
-9.46137e-05
4.91093e-05
-9.76568e-05
4.90322e-05
-0.000100702
4.89236e-05
-0.000103748
4.87805e-05
-0.00010679
4.85995e-05
-0.000109825
4.8377e-05
-0.00011285
4.81094e-05
-0.000115859
4.7793e-05
-0.000118846
4.74236e-05
-0.000121807
4.6997e-05
-0.000124733
4.65088e-05
-0.000127617
4.59543e-05
-0.000130449
4.53283e-05
-0.000133219
4.46256e-05
-0.000135917
4.38401e-05
-0.000138528
4.29652e-05
-0.000141039
4.19937e-05
-0.000143436
4.09171e-05
-0.000145702
3.97262e-05
-0.000147821
3.841e-05
-0.000149775
3.69562e-05
-0.00015155
3.53509e-05
-0.000153129
3.35786e-05
-0.000154499
3.16224e-05
-0.00015565
2.94647e-05
-0.000156575
2.70875e-05
2.4474e-05
-0.00015727
-9.6418e-07
1.75491e-05
-2.9335e-06
3.5768e-05
-5.37384e-06
4.42243e-05
-8.01492e-06
4.77813e-05
-1.07345e-05
4.91493e-05
-1.34836e-05
4.96458e-05
-1.62448e-05
4.9837e-05
-1.90134e-05
4.99373e-05
-2.17882e-05
5.00177e-05
-2.45697e-05
5.00989e-05
-2.73585e-05
5.01858e-05
-3.01553e-05
5.02793e-05
-3.29606e-05
5.03792e-05
-3.57753e-05
5.04848e-05
-3.85999e-05
5.05957e-05
-4.1435e-05
5.0711e-05
-4.42813e-05
5.083e-05
-4.71393e-05
5.09518e-05
-5.00096e-05
5.10755e-05
-5.28926e-05
5.12e-05
-5.57887e-05
5.13243e-05
-5.86985e-05
5.14469e-05
-6.16222e-05
5.15667e-05
-6.456e-05
5.16821e-05
-6.75121e-05
5.17916e-05
-7.04786e-05
5.18933e-05
-7.34595e-05
5.19855e-05
-7.64546e-05
5.20662e-05
-7.94635e-05
5.21332e-05
-8.24858e-05
5.21842e-05
-8.55208e-05
5.22167e-05
-8.85677e-05
5.22281e-05
-9.16253e-05
5.22156e-05
-9.46922e-05
5.21762e-05
-9.77668e-05
5.21067e-05
-0.000100847
5.20038e-05
-0.00010393
5.18639e-05
-0.000107014
5.16831e-05
-0.000110095
5.14575e-05
-0.000113168
5.1183e-05
-0.00011623
5.08549e-05
-0.000119275
5.04687e-05
-0.000122297
5.00193e-05
-0.00012529
4.95015e-05
-0.000128246
4.89096e-05
-0.000131155
4.82376e-05
-0.000134008
4.7479e-05
-0.000136795
4.66269e-05
-0.000139503
4.56735e-05
-0.00014212
4.46106e-05
-0.000144632
4.34288e-05
-0.000147024
4.2118e-05
-0.000149281
4.06669e-05
-0.000151388
3.9063e-05
-0.00015333
3.72928e-05
-0.000155093
3.53416e-05
-0.000156664
3.3194e-05
-0.000158034
3.08344e-05
-0.000159194
2.82473e-05
2.54184e-05
-0.000160138
-9.57528e-07
1.85067e-05
-2.91647e-06
3.77269e-05
-5.34638e-06
4.66542e-05
-7.97775e-06
5.04126e-05
-1.06883e-05
5.18598e-05
-1.34286e-05
5.23862e-05
-1.61815e-05
5.25899e-05
-1.8942e-05
5.26977e-05
-2.17092e-05
5.27848e-05
-2.44834e-05
5.28731e-05
-2.72653e-05
5.29677e-05
-3.00557e-05
5.30697e-05
-3.28553e-05
5.31788e-05
-3.56648e-05
5.32943e-05
-3.84849e-05
5.34158e-05
-4.13164e-05
5.35425e-05
-4.41599e-05
5.36735e-05
-4.70161e-05
5.3808e-05
-4.98855e-05
5.3945e-05
-5.27689e-05
5.40834e-05
-5.56667e-05
5.42221e-05
-5.85794e-05
5.43597e-05
-6.15075e-05
5.44948e-05
-6.44513e-05
5.4626e-05
-6.74112e-05
5.47514e-05
-7.03873e-05
5.48694e-05
-7.33798e-05
5.4978e-05
-7.63886e-05
5.5075e-05
-7.94136e-05
5.51582e-05
-8.24545e-05
5.5225e-05
-8.55107e-05
5.52729e-05
-8.85815e-05
5.5299e-05
-9.16661e-05
5.53002e-05
-9.47633e-05
5.52733e-05
-9.78714e-05
5.52149e-05
-0.000100989
5.51211e-05
-0.000104113
5.49881e-05
-0.000107242
5.48116e-05
-0.000110371
5.45872e-05
-0.000113498
5.43101e-05
-0.000116619
5.39752e-05
-0.000119727
5.35772e-05
-0.000122818