/*--------------------------------*- C++ -*----------------------------------*\
  =========                 |
  \\      /  F ield         | OpenFOAM: The Open Source CFD Toolbox
   \\    /   O peration     | Website:  https://openfoam.org
    \\  /    A nd           | Version:  8
     \\/     M anipulation  |
\*---------------------------------------------------------------------------*/
FoamFile
{
    version     2.0;
    format      ascii;
    class       volScalarField;
    location    "0.09";
    object      p;
}
// * * * * * * * * * * * * * * * * * * * * * * * * * * * * * * * * * * * * * //

dimensions      [0 2 -2 0 0 0 0];

internalField   nonuniform List<scalar> 
400
(
3.32744e-08
-0.00568078
-0.0126107
-0.0178571
-0.0197219
-0.0174545
-0.0110014
-0.000801696
0.0123646
0.0274783
0.0433577
0.0587313
0.0723212
0.0829501
0.0896765
0.091962
0.0898714
0.0842893
0.0771242
0.071443
0.00563385
-0.000204433
-0.00562003
-0.0092029
-0.0101403
-0.00790707
-0.00243318
0.00596966
0.0167136
0.0290069
0.0419154
0.0544276
0.0655299
0.0742987
0.0800111
0.0822698
0.081148
0.077275
0.0716501
0.0658262
0.012996
0.00490828
-0.000947028
-0.00423599
-0.00497816
-0.0029002
0.0019954
0.00941367
0.0188499
0.0296349
0.0409758
0.0520061
0.0618479
0.0696898
0.074877
0.0770118
0.0760813
0.0724603
0.0663373
0.0582428
0.0196314
0.00845692
0.0011777
-0.00257913
-0.00352534
-0.0016123
0.00305016
0.0101217
0.0191106
0.0293973
0.0402526
0.0508706
0.0604162
0.0680897
0.0732025
0.0752677
0.074138
0.0699652
0.0622894
0.0510177
0.0238919
0.00946759
0.000486288
-0.00395257
-0.00515804
-0.00327774
0.00146626
0.00866596
0.0178117
0.0282969
0.0394155
0.0503767
0.0603372
0.0684526
0.0739428
0.0761807
0.0748564
0.0699164
0.060346
0.0456267
0.0245579
0.00684269
-0.00390771
-0.00902758
-0.0103704
-0.00826404
-0.00304461
0.00479977
0.0147222
0.0261056
0.0382401
0.0503183
0.0614513
0.0707066
0.077163
0.0800045
0.0787236
0.0730535
0.0614582
0.0430965
0.0205689
-0.000496868
-0.0129823
-0.0186291
-0.0198378
-0.0171216
-0.0109383
-0.0018667
0.00949772
0.0225157
0.0364597
0.0504888
0.0636442
0.0748708
0.0830603
0.087152
0.0863848
0.080233
0.0665953
0.044327
0.010818
-0.0137054
-0.0278061
-0.0336717
-0.0343145
-0.0304659
-0.0227252
-0.0117727
0.00174423
0.0171662
0.0337519
0.0506279
0.066759
0.080946
0.0918509
0.0981015
0.0985989
0.0924618
0.076884
0.0503519
-0.00600317
-0.0341434
-0.0496357
-0.0552231
-0.0546694
-0.0489933
-0.0389709
-0.0253965
-0.00896321
0.00966793
0.0297666
0.0504513
0.0706268
0.0889471
0.103811
0.113457
0.116331
0.111033
0.093794
0.0625629
-0.031545
-0.0635026
-0.0799882
-0.0845165
-0.0818509
-0.0734148
-0.0602139
-0.0431684
-0.0229977
-0.000325439
0.0241799
0.0496833
0.0750777
0.0988987
0.119267
0.133957
0.140805
0.137651
0.119335
0.0829454
-0.0679895
-0.103971
-0.120719
-0.122937
-0.116805
-0.104332
-0.0868215
-0.0653224
-0.0405407
-0.0129951
0.0167913
0.0481227
0.0799735
0.110837
0.138586
0.160475
0.173561
0.17458
0.156318
0.114398
-0.118391
-0.158496
-0.174122
-0.171974
-0.160333
-0.142044
-0.118775
-0.0916822
-0.0613809
-0.0281787
0.00767115
0.0457525
0.0852723
0.124829
0.162158
0.194004
0.216494
0.224823
0.208727
0.161244
-0.187365
-0.231218
-0.243041
-0.233098
-0.212842
-0.186249
-0.155371
-0.121382
-0.0846653
-0.0451557
-0.00266203
0.0428718
0.0911051
0.140986
0.190352
0.235595
0.271859
0.292332
0.28228
0.230156
-0.282586
-0.328217
-0.330918
-0.307455
-0.273912
-0.235605
-0.194834
-0.152549
-0.108648
-0.0624532
-0.0130994
0.0401848
0.0977996
0.159404
0.223361
0.286131
0.342101
0.382138
0.385301
0.331985
-0.417959
-0.458642
-0.441531
-0.395099
-0.341492
-0.287074
-0.233846
-0.18201
-0.130535
-0.0777883
-0.0219553
0.0387234
0.105723
0.179879
0.26075
0.345703
0.429201
0.500137
0.529912
0.485336
-0.619362
-0.635896
-0.578062
-0.493734
-0.410855
-0.335244
-0.267245
-0.205265
-0.146641
-0.0883372
-0.0272962
0.0394813
0.114865
0.201398
0.300738
0.412621
0.533474
0.652077
0.732873
0.722181
-0.935072
-0.877945
-0.741411
-0.597792
-0.474313
-0.372538
-0.288603
-0.217293
-0.153268
-0.091597
-0.027737
0.0427038
0.124214
0.221541
0.339581
0.482633
0.652317
0.841524
1.01527
1.0972
-1.47594
-1.20637
-0.920476
-0.691537
-0.517525
-0.387709
-0.290062
-0.213109
-0.14765
-0.0865244
-0.0237333
0.0463694
0.129826
0.233856
0.36773
0.543122
0.771563
1.05944
1.40325
1.72986
-2.53948
-1.63055
-1.04467
-0.711383
-0.496256
-0.352545
-0.254809
-0.183607
-0.125906
-0.0730586
-0.0185142
0.0436772
0.120142
0.21966
0.355561
0.548557
0.826774
1.23678
1.91171
2.92403
-4.36666
-2.0448
-0.973981
-0.563877
-0.358678
-0.240953
-0.170745
-0.124111
-0.0874481
-0.0531089
-0.0159289
0.0286268
0.085707
0.16285
0.273451
0.442979
0.718888
1.22615
2.41125
4.84855
)
;

boundaryField
{
    movingWall
    {
        type            zeroGradient;
    }
    fixedWalls
    {
        type            zeroGradient;
    }
    frontAndBack
    {
        type            empty;
    }
}


// ************************************************************************* //
