/*--------------------------------*- C++ -*----------------------------------*\
  =========                 |
  \\      /  F ield         | OpenFOAM: The Open Source CFD Toolbox
   \\    /   O peration     | Website:  https://openfoam.org
    \\  /    A nd           | Version:  8
     \\/     M anipulation  |
\*---------------------------------------------------------------------------*/
FoamFile
{
    version     2.0;
    format      ascii;
    class       volScalarField;
    location    "1.29";
    object      p;
}
// * * * * * * * * * * * * * * * * * * * * * * * * * * * * * * * * * * * * * //

dimensions      [0 2 -2 0 0 0 0];

internalField   nonuniform List<scalar> 
400
(
-7.7728e-16
2.78311e-12
3.47431e-12
2.27539e-12
-1.51443e-13
-3.43705e-12
-7.43745e-12
-1.20663e-11
-1.69631e-11
-2.17146e-11
-2.58911e-11
-2.90948e-11
-3.10545e-11
-3.15116e-11
-3.03766e-11
-2.74658e-11
-2.29363e-11
-1.70905e-11
-1.0737e-11
-4.73342e-12
-7.30565e-12
-4.77218e-12
-3.51574e-12
-3.38292e-12
-4.32575e-12
-6.10419e-12
-8.75926e-12
-1.202e-11
-1.56372e-11
-1.92401e-11
-2.25374e-11
-2.52374e-11
-2.70252e-11
-2.78274e-11
-2.73742e-11
-2.57266e-11
-2.27814e-11
-1.89828e-11
-1.47478e-11
-1.0744e-11
-1.36428e-11
-1.12626e-11
-9.27728e-12
-8.09161e-12
-7.65241e-12
-8.22944e-12
-9.64076e-12
-1.17959e-11
-1.43083e-11
-1.70958e-11
-1.98918e-11
-2.23724e-11
-2.4378e-11
-2.55862e-11
-2.60292e-11
-2.54228e-11
-2.40167e-11
-2.17447e-11
-1.91269e-11
-1.63748e-11
-1.86686e-11
-1.60093e-11
-1.3574e-11
-1.14942e-11
-1.02511e-11
-9.86101e-12
-1.05036e-11
-1.17218e-11
-1.35695e-11
-1.58472e-11
-1.83928e-11
-2.09431e-11
-2.31528e-11
-2.4965e-11
-2.59869e-11
-2.63978e-11
-2.58919e-11
-2.4805e-11
-2.30751e-11
-2.09849e-11
-2.146e-11
-1.88338e-11
-1.60481e-11
-1.37188e-11
-1.19968e-11
-1.13244e-11
-1.13459e-11
-1.21762e-11
-1.35911e-11
-1.56807e-11
-1.81553e-11
-2.07329e-11
-2.32522e-11
-2.5273e-11
-2.68152e-11
-2.7553e-11
-2.77216e-11
-2.69835e-11
-2.56611e-11
-2.37654e-11
-2.21522e-11
-1.9551e-11
-1.69516e-11
-1.46213e-11
-1.312e-11
-1.22682e-11
-1.2304e-11
-1.29486e-11
-1.44515e-11
-1.65421e-11
-1.90684e-11
-2.17516e-11
-2.42362e-11
-2.639e-11
-2.77979e-11
-2.86874e-11
-2.873e-11
-2.80597e-11
-2.64878e-11
-2.45047e-11
-2.1543e-11
-1.90958e-11
-1.67005e-11
-1.4822e-11
-1.34855e-11
-1.3001e-11
-1.31364e-11
-1.41921e-11
-1.59059e-11
-1.82543e-11
-2.08631e-11
-2.35092e-11
-2.59504e-11
-2.77516e-11
-2.89695e-11
-2.9371e-11
-2.92e-11
-2.80788e-11
-2.62885e-11
-2.3988e-11
-2.04065e-11
-1.79997e-11
-1.59619e-11
-1.439e-11
-1.35958e-11
-1.34517e-11
-1.42424e-11
-1.57282e-11
-1.79604e-11
-2.04624e-11
-2.30941e-11
-2.56094e-11
-2.77237e-11
-2.92338e-11
-2.98606e-11
-2.98575e-11
-2.90134e-11
-2.75709e-11
-2.54067e-11
-2.29568e-11
-1.90466e-11
-1.6713e-11
-1.49226e-11
-1.38673e-11
-1.35212e-11
-1.41054e-11
-1.54298e-11
-1.75907e-11
-2.00938e-11
-2.27498e-11
-2.52037e-11
-2.74062e-11
-2.91578e-11
-3.01664e-11
-3.04238e-11
-2.97932e-11
-2.85298e-11
-2.65562e-11
-2.42544e-11
-2.16165e-11
-1.76915e-11
-1.55636e-11
-1.41335e-11
-1.3508e-11
-1.37832e-11
-1.48436e-11
-1.67612e-11
-1.91694e-11
-2.18825e-11
-2.43831e-11
-2.66238e-11
-2.84358e-11
-2.97503e-11
-3.04186e-11
-3.02732e-11
-2.93864e-11
-2.76669e-11
-2.54774e-11
-2.28945e-11
-2.02653e-11
-1.68497e-11
-1.50471e-11
-1.40173e-11
-1.38344e-11
-1.44676e-11
-1.58977e-11
-1.7892e-11
-2.03536e-11
-2.2809e-11
-2.51256e-11
-2.70218e-11
-2.85412e-11
-2.95231e-11
-2.99159e-11
-2.96415e-11
-2.85561e-11
-2.67831e-11
-2.43843e-11
-2.17881e-11
-1.9138e-11
-1.68324e-11
-1.55287e-11
-1.48237e-11
-1.4907e-11
-1.57101e-11
-1.70803e-11
-1.8917e-11
-2.09345e-11
-2.30346e-11
-2.49082e-11
-2.6585e-11
-2.78225e-11
-2.8632e-11
-2.88843e-11
-2.85428e-11
-2.75254e-11
-2.57904e-11
-2.35868e-11
-2.10614e-11
-1.87538e-11
-1.77865e-11
-1.68278e-11
-1.63601e-11
-1.6458e-11
-1.7158e-11
-1.82558e-11
-1.95877e-11
-2.10889e-11
-2.25676e-11
-2.40915e-11
-2.54221e-11
-2.65437e-11
-2.71874e-11
-2.74075e-11
-2.7093e-11
-2.62172e-11
-2.4827e-11
-2.29745e-11
-2.09631e-11
-1.90885e-11
-1.91738e-11
-1.85507e-11
-1.80191e-11
-1.79873e-11
-1.83582e-11
-1.90153e-11
-1.98279e-11
-2.07045e-11
-2.17216e-11
-2.27729e-11
-2.39108e-11
-2.47926e-11
-2.54081e-11
-2.55715e-11
-2.5379e-11
-2.47725e-11
-2.38254e-11
-2.26254e-11
-2.12161e-11
-2.005e-11
-2.0565e-11
-1.99383e-11
-1.93312e-11
-1.89431e-11
-1.89485e-11
-1.91366e-11
-1.9477e-11
-1.99608e-11
-2.05584e-11
-2.13827e-11
-2.22094e-11
-2.30134e-11
-2.34901e-11
-2.37414e-11
-2.36646e-11
-2.33989e-11
-2.29703e-11
-2.23727e-11
-2.16864e-11
-2.10211e-11
-2.12941e-11
-2.06663e-11
-1.9787e-11
-1.91462e-11
-1.87265e-11
-1.8579e-11
-1.86358e-11
-1.89014e-11
-1.94134e-11
-2.00445e-11
-2.08167e-11
-2.14505e-11
-2.19958e-11
-2.22701e-11
-2.24218e-11
-2.24237e-11
-2.23837e-11
-2.22679e-11
-2.19964e-11
-2.17262e-11
-2.12937e-11
-2.04083e-11
-1.94218e-11
-1.84788e-11
-1.78338e-11
-1.74494e-11
-1.74257e-11
-1.77455e-11
-1.8313e-11
-1.9082e-11
-1.98262e-11
-2.05803e-11
-2.11469e-11
-2.16249e-11
-2.18928e-11
-2.20948e-11
-2.22098e-11
-2.22246e-11
-2.21034e-11
-2.17721e-11
-2.0455e-11
-1.94388e-11
-1.82695e-11
-1.72405e-11
-1.64153e-11
-1.60044e-11
-1.60549e-11
-1.65775e-11
-1.74597e-11
-1.84564e-11
-1.94859e-11
-2.03694e-11
-2.11769e-11
-2.17493e-11
-2.2161e-11
-2.23591e-11
-2.24136e-11
-2.22765e-11
-2.1895e-11
-2.13118e-11
-1.93032e-11
-1.7989e-11
-1.67554e-11
-1.56019e-11
-1.47706e-11
-1.44077e-11
-1.46788e-11
-1.55509e-11
-1.68238e-11
-1.82616e-11
-1.9602e-11
-2.08221e-11
-2.18096e-11
-2.25779e-11
-2.30056e-11
-2.3144e-11
-2.29653e-11
-2.24692e-11
-2.16704e-11
-2.05643e-11
-1.83767e-11
-1.67487e-11
-1.52913e-11
-1.40645e-11
-1.31957e-11
-1.29602e-11
-1.34734e-11
-1.46957e-11
-1.6391e-11
-1.82199e-11
-1.99569e-11
-2.14558e-11
-2.27094e-11
-2.36168e-11
-2.41329e-11
-2.41885e-11
-2.37907e-11
-2.29452e-11
-2.16697e-11
-2.00889e-11
)
;

boundaryField
{
    movingWall
    {
        type            zeroGradient;
    }
    fixedWalls
    {
        type            zeroGradient;
    }
    left
    {
        type            cyclic;
    }
    right
    {
        type            cyclic;
    }
    frontAndBack
    {
        type            empty;
    }
}


// ************************************************************************* //
