/*--------------------------------*- C++ -*----------------------------------*\
  =========                 |
  \\      /  F ield         | OpenFOAM: The Open Source CFD Toolbox
   \\    /   O peration     | Website:  https://openfoam.org
    \\  /    A nd           | Version:  8
     \\/     M anipulation  |
\*---------------------------------------------------------------------------*/
FoamFile
{
    version     2.0;
    format      ascii;
    class       volScalarField;
    location    "0.995";
    object      T;
}
// * * * * * * * * * * * * * * * * * * * * * * * * * * * * * * * * * * * * * //

dimensions      [0 0 0 1 0 0 0];

internalField   nonuniform List<scalar> 
100
(
49.6591
5.23662
-4.82433
-1.71325
1.5052
0.428425
0.774818
-1.11632
-0.88211
0.244422
95.901
49.0295
11.0929
-3.9717
-3.96361
1.48673
-0.256517
1.21657
0.633213
-0.51919
103.925
90.5089
49.2821
12.2045
-3.45186
-5.26292
3.03034
0.507313
-1.25223
-0.0505429
102.17
103.136
88.5895
49.7694
13.1423
-3.43911
-8.04103
3.69886
3.26704
-0.554034
98.2402
104.427
103.023
87.0986
49.9349
15.153
-2.92221
-9.99267
1.79433
3.18499
99.7113
98.1788
105.695
103.156
84.9916
49.862
16.4748
-1.5115
-9.26818
-1.60761
100.155
98.7355
98.0973
107.515
103.236
83.4301
49.3198
15.8236
1.05596
-4.69577
100.23
100.434
97.9113
97.2033
109.508
102.104
85.2427
49.0803
9.96033
2.95234
100.256
100.359
100.58
97.0144
98.0258
109.246
99.9112
89.4589
49.6395
3.50894
99.9806
100.064
100.545
100.25
96.972
101.366
104.471
97.6635
96.5721
49.8849
)
;

boundaryField
{
    left
    {
        type            fixedValue;
        value           uniform 100;
    }
    right
    {
        type            zeroGradient;
    }
    up
    {
        type            zeroGradient;
    }
    down
    {
        type            fixedValue;
        value           uniform 0;
    }
    frontAndBack
    {
        type            empty;
    }
}


// ************************************************************************* //
