/*--------------------------------*- C++ -*----------------------------------*\
  =========                 |
  \\      /  F ield         | OpenFOAM: The Open Source CFD Toolbox
   \\    /   O peration     | Website:  https://openfoam.org
    \\  /    A nd           | Version:  8
     \\/     M anipulation  |
\*---------------------------------------------------------------------------*/
FoamFile
{
    version     2.0;
    format      ascii;
    class       volScalarField;
    location    "37.5";
    object      p;
}
// * * * * * * * * * * * * * * * * * * * * * * * * * * * * * * * * * * * * * //

dimensions      [0 2 -2 0 0 0 0];

internalField   nonuniform List<scalar> 
464
(
-1.01377e-08
2.39806e-06
8.80066e-06
1.83545e-05
3.12582e-05
4.72579e-05
6.63977e-05
8.77483e-05
0.000112792
0.000136948
0.000168159
0.000190237
-2.56874e-06
-1.74833e-07
6.25401e-06
1.58614e-05
2.88622e-05
4.50328e-05
6.4433e-05
8.62471e-05
0.000111919
0.000137162
0.000169508
0.000194335
-9.38164e-06
-6.97822e-06
-4.52468e-07
9.31232e-06
2.25348e-05
3.89913e-05
5.86087e-05
8.08382e-05
0.00010604
0.000131912
0.00016177
0.000188464
-1.97398e-05
-1.73113e-05
-1.06255e-05
-5.82311e-07
1.30749e-05
3.01955e-05
5.08076e-05
7.4607e-05
0.000101924
0.000130654
0.000163591
0.000193865
-3.40467e-05
-3.16022e-05
-2.47343e-05
-1.43773e-05
-2.44974e-07
1.75219e-05
3.87675e-05
6.30685e-05
9.02863e-05
0.000119692
0.000151661
0.000184326
-5.24728e-05
-5.00223e-05
-4.29434e-05
-3.21878e-05
-1.7402e-05
1.41638e-06
2.43539e-05
5.15712e-05
8.29028e-05
0.000117341
0.000155117
0.000193399
-7.47914e-05
-7.24325e-05
-6.52448e-05
-5.4236e-05
-3.89293e-05
-1.93488e-05
4.30682e-06
3.15387e-05
6.23421e-05
9.65538e-05
0.000133921
0.000174192
-0.000102566
-0.000100239
-9.28603e-05
-8.13843e-05
-6.53058e-05
-4.42639e-05
-1.78042e-05
1.45369e-05
5.2297e-05
9.47938e-05
0.000141752
0.000191489
-0.000133091
-0.000131229
-0.000124031
-0.000112892
-9.6764e-05
-7.54897e-05
-4.98096e-05
-1.94776e-05
1.58411e-05
5.62088e-05
0.000101162
0.000151507
-0.000171367
-0.000169661
-0.000162731
-0.000151432
-0.000134747
-0.000111117
-7.9825e-05
-4.09321e-05
4.9176e-06
5.77636e-05
0.000117073
0.000183476
-0.000211032
-0.000211491
-0.000204324
-0.000196143
-0.000180191
-0.000159908
-0.000133278
-9.96142e-05
-5.8929e-05
-1.06942e-05
4.16433e-05
0.000108503
-0.000257985
-0.000255618
-0.000251931
-0.000239183
-0.00022466
-0.000197579
-0.000164821
-0.000120178
-6.68332e-05
-2.34391e-06
6.93003e-05
0.000161034
-0.000312941
-0.000336156
-0.000314172
-0.000332604
-0.000306796
-0.000293311
-0.000261888
-0.000222819
-0.000175649
-0.000114502
-6.22063e-05
3.36257e-05
-0.000340124
-0.000331739
-0.000348634
-0.000332188
-0.00033447
-0.000307124
-0.000280788
-0.00023154
-0.000175974
-9.57631e-05
-2.1384e-05
0.000106565
-0.000449921
-0.000522191
-0.000469266
-0.000546313
-0.000485976
-0.000500759
-0.000446888
-0.000402704
-0.000348449
-0.000264471
-0.000225255
-7.74196e-05
-0.000414917
-0.000397737
-0.000457158
-0.000442844
-0.000477699
-0.000455432
-0.000443148
-0.000389362
-0.000338688
-0.000236937
-0.000176737
-4.17705e-06
-0.000557261
-0.000789309
-0.000669526
-0.000877792
-0.000748273
-0.00080821
-0.000705686
-0.000657456
-0.000583793
-0.000466934
-0.000448302
-0.000246887
-0.000489619
-0.00043698
-0.000592852
-0.000596672
-0.000673919
-0.000673708
-0.000673913
-0.000613137
-0.000567113
-0.000430916
-0.000403134
-0.000161398
-0.000398731
-0.00120806
-0.000979358
-0.00142879
-0.00117442
-0.00125618
-0.00107261
-0.000989921
-0.000875314
-0.000706524
-0.000698189
-0.000422488
-0.00150523
-0.00053253
-0.000766485
-0.00100159
-0.00102058
-0.00105759
-0.001032
-0.000929485
-0.000864113
-0.000664029
-0.00066739
-0.000338176
0.000229991
0.000247807
0.000268439
0.000281714
0.000294568
0.000303121
0.000309532
0.000311973
0.000235897
0.00025464
0.000277251
0.000291791
0.000305817
0.000315329
0.0003224
0.000325128
0.000221045
0.000245905
0.000271756
0.000292153
0.000310397
0.000323749
0.000333258
0.000337166
0.000229243
0.000256833
0.000285222
0.000308031
0.000328304
0.00034351
0.000354209
0.00035873
0.000219275
0.000252381
0.00028471
0.000313717
0.000338826
0.000358922
0.000372669
0.0003789
0.000233277
0.000271177
0.000307926
0.000341479
0.00037032
0.000394136
0.000410138
0.000417767
0.000216875
0.00026098
0.000303297
0.000345699
0.000380277
0.000412613
0.000432344
0.000443367
0.000242685
0.000295222
0.000345576
0.000396682
0.000438171
0.00047838
0.000502463
0.000516962
0.000204507
0.000267206
0.000319259
0.000389134
0.000432034
0.000493523
0.000518561
0.000543937
0.000250296
0.000327035
0.000393775
0.000478469
0.000536112
0.000612377
0.000647786
0.000681329
0.000165256
0.000263917
0.00031652
0.000441863
0.00048612
0.000613651
0.000642334
0.000708643
0.000240805
0.00035839
0.000439433
0.000586267
0.000662503
0.000817316
0.000871636
0.000961869
7.58281e-05
0.000235021
0.000263853
0.000487732
0.000513447
0.000781472
0.000811358
0.00100414
0.00018891
0.000369436
0.000446446
0.000700842
0.000785983
0.00110801
0.00119889
0.00147677
-8.45185e-05
0.000153136
0.000103915
0.000470752
0.000420067
0.000952666
0.000976299
0.00157613
3.68533e-05
0.000317062
0.000329241
0.000748361
0.000757287
0.00140767
0.00151363
0.00242729
-0.000332245
-1.3149e-05
-0.000226895
0.000281811
-4.11648e-05
0.000848423
0.000548497
0.00221618
-0.00021658
0.000171947
-3.51555e-05
0.00055521
9.03917e-05
0.00122699
0.000453366
0.00325877
-0.000605881
-0.00019297
-0.000697133
-0.00012593
-0.00118436
-0.00024841
-0.00139475
0.00208489
-0.000503825
-3.2071e-05
-0.000413989
0.000169452
-0.000184937
0.00119032
0.00326998
0.00989273
0.000283919
0.000284256
0.000285076
0.00028604
0.000287135
0.000288055
0.000288788
0.000289081
0.000284746
0.000285092
0.000285923
0.000286907
0.000287994
0.000288908
0.000289634
0.000289919
0.000281567
0.000282135
0.000283458
0.000284942
0.000286627
0.000288003
0.000289093
0.000289525
0.000283865
0.000284509
0.000285952
0.000287591
0.000289342
0.000290781
0.000291907
0.000292344
0.000276143
0.000277574
0.000280494
0.000283471
0.000286783
0.000289334
0.000291334
0.000292112
0.000279995
0.000281636
0.000284837
0.000288178
0.000291637
0.000294376
0.000296479
0.00029729
0.000263488
0.000268005
0.000275393
0.000281781
0.000288567
0.000293381
0.000297117
0.000298534
0.000268703
0.000274039
0.000281942
0.000288989
0.000296126
0.000301362
0.000305365
0.000306891
)
;

boundaryField
{
    movingWall
    {
        type            zeroGradient;
    }
    fixedWalls
    {
        type            zeroGradient;
    }
    frontAndBack
    {
        type            empty;
    }
}


// ************************************************************************* //
