/*--------------------------------*- C++ -*----------------------------------*\
  =========                 |
  \\      /  F ield         | OpenFOAM: The Open Source CFD Toolbox
   \\    /   O peration     | Website:  https://openfoam.org
    \\  /    A nd           | Version:  8
     \\/     M anipulation  |
\*---------------------------------------------------------------------------*/
FoamFile
{
    version     2.0;
    format      ascii;
    class       surfaceScalarField;
    location    "37.5";
    object      phi;
}
// * * * * * * * * * * * * * * * * * * * * * * * * * * * * * * * * * * * * * //

dimensions      [0 3 -1 0 0 0 0];

internalField   nonuniform List<scalar> 
880
(
-1.54467e-05
1.54467e-05
-3.1811e-05
1.63643e-05
-4.75172e-05
1.57062e-05
-6.2211e-05
1.46938e-05
-7.55836e-05
1.33726e-05
-8.73477e-05
1.17641e-05
-9.72918e-05
9.94417e-06
-0.000105131
7.83945e-06
-0.00011105
5.91879e-06
-0.000114193
3.14319e-06
-0.000116539
2.34616e-06
-1.16235e-07
-0.000116423
-1.70241e-05
3.24708e-05
-3.50152e-05
3.43554e-05
-5.22789e-05
3.29699e-05
-6.84263e-05
3.08412e-05
-8.31265e-05
2.80728e-05
-9.6084e-05
2.47215e-05
-0.000107092
2.09519e-05
-0.000115897
1.66443e-05
-0.000122715
1.27377e-05
-0.00012688
7.30751e-06
-0.000130343
5.80922e-06
-1.57318e-06
-0.000128886
-1.77478e-05
5.02186e-05
-3.65014e-05
5.3109e-05
-5.44833e-05
5.09518e-05
-7.12717e-05
4.76297e-05
-8.6499e-05
4.33001e-05
-9.98168e-05
3.80394e-05
-0.000110893
3.20284e-05
-0.000119485
2.52364e-05
-0.000125181
1.84335e-05
-0.000128119
1.02449e-05
-0.000127073
4.76371e-06
-5.42237e-06
-0.000123224
-1.88204e-05
6.90389e-05
-3.87101e-05
7.29987e-05
-5.77839e-05
7.00256e-05
-7.55992e-05
6.54451e-05
-9.17897e-05
5.94906e-05
-0.000106032
5.22817e-05
-0.000118048
4.40439e-05
-0.000127574
3.47628e-05
-0.000134123
2.49827e-05
-0.000137716
1.3838e-05
-0.000136832
3.87919e-06
-9.29061e-06
-0.000132964
-2.02923e-05
8.93312e-05
-4.17362e-05
9.44426e-05
-6.22919e-05
9.05813e-05
-8.14628e-05
8.4616e-05
-9.88488e-05
7.68766e-05
-0.000114036
6.74692e-05
-0.000126651
5.6659e-05
-0.000136417
4.45286e-05
-0.000143008
3.15731e-05
-0.000146571
1.7401e-05
-0.000146298
3.6071e-06
-1.28006e-05
-0.000142788
-2.22216e-05
0.000111553
-4.5696e-05
0.000117917
-6.81979e-05
0.000113083
-8.9167e-05
0.000105585
-0.000108226
9.59361e-05
-0.00012499
8.42326e-05
-0.000139248
7.09171e-05
-0.000150664
5.59446e-05
-0.000158729
3.96379e-05
-0.000163202
2.18738e-05
-0.000162917
3.32229e-06
-1.6437e-05
-0.00015928
-2.45859e-05
0.000136139
-5.05738e-05
0.000143905
-7.54858e-05
0.000137995
-9.86682e-05
0.000128767
-0.000119688
0.000116956
-0.000138034
0.000102579
-0.000153321
8.62035e-05
-0.000165309
6.79325e-05
-0.0001739
4.82287e-05
-0.000179133
2.71073e-05
-0.000180939
5.12843e-06
-1.88498e-05
-0.000178526
-2.76876e-05
0.000163826
-5.68345e-05
0.000173052
-8.4748e-05
0.000165909
-0.000110533
0.000154552
-0.000134046
0.000140469
-0.000154758
0.00012329
-0.000172704
0.00010415
-0.00018735
8.25785e-05
-0.000198271
5.91497e-05
-0.00020501
3.38461e-05
-0.000206731
6.84922e-06
-2.13878e-05
-0.000204193
-3.09534e-05
0.00019478
-6.37056e-05
0.000205804
-9.5047e-05
0.00019725
-0.000124044
0.000183549
-0.000150371
0.000166797
-0.00017311
0.000146029
-0.000192034
0.000123074
-0.000207145
9.76899e-05
-0.000218578
7.05822e-05
-0.000226424
4.16923e-05
-0.000231066
1.14915e-05
-2.17083e-05
-0.000230746
-3.6105e-05
0.000230885
-7.36264e-05
0.000243326
-0.00010959
0.000233213
-0.000141966
0.000215925
-0.000171674
0.000196505
-0.000197716
0.000172071
-0.000220624
0.000145982
-0.000239536
0.000116601
-0.00025443
8.54763e-05
-0.000264782
5.20442e-05
-0.000269958
1.66676e-05
-2.19326e-05
-0.000269733
-3.98151e-05
0.0002707
-8.24838e-05
0.000285994
-0.000122726
0.000273455
-0.000159767
0.000252967
-0.000192808
0.000229545
-0.000220785
0.000200048
-0.000244258
0.000169455
-0.00026313
0.000135474
-0.000278021
0.000100367
-0.000289028
6.30512e-05
-0.000297848
2.54875e-05
-1.88094e-05
-0.000300971
-4.98199e-05
0.00032052
-9.91115e-05
0.000335286
-0.000146989
0.000321332
-0.000187506
0.000293484
-0.000225575
0.000267615
-0.000257002
0.000231475
-0.000285271
0.000197724
-0.00030854
0.000158743
-0.00032822
0.000120046
-0.000343273
7.8105e-05
-0.000354713
3.69269e-05
-1.43071e-05
-0.000359215
-4.95459e-05
0.000370066
-0.00010942
0.00039516
-0.000160408
0.00037232
-0.000210736
0.000343812
-0.000250797
0.000307675
-0.000285571
0.000266249
-0.000313266
0.000225419
-0.000335115
0.000180592
-0.000352935
0.000137866
-0.000366414
9.15836e-05
-0.000379865
5.03787e-05
-5.77285e-06
-0.0003884
-7.92926e-05
0.000449358
-0.0001404
0.000456268
-0.000205948
0.000437867
-0.000253119
0.000390984
-0.000299092
0.000353649
-0.000334729
0.000301886
-0.000367074
0.000257764
-0.000393531
0.000207049
-0.000417834
0.00016217
-0.000438104
0.000111853
-0.000458707
7.09815e-05
7.83451e-06
-0.000472314
-5.10786e-05
0.000500437
-0.000147634
0.000552823
-0.000216765
0.000506998
-0.000288463
0.000462682
-0.00033688
0.000402065
-0.000377368
0.000342374
-0.000405083
0.000285479
-0.000426151
0.000228117
-0.000442757
0.000178775
-0.000455679
0.000124775
-0.00047065
8.59523e-05
2.13195e-05
-0.000484135
-0.000161117
0.000661553
-0.000215783
0.000607489
-0.000298748
0.000589964
-0.000348303
0.000512237
-0.000395605
0.000449368
-0.000433424
0.000380193
-0.00046409
0.000316145
-0.000490761
0.000254787
-0.000515529
0.000203544
-0.000539182
0.000148428
-0.000568682
0.000115453
4.9195e-05
-0.000596558
-1.21947e-05
0.000673748
-0.000206049
0.000801343
-0.00032173
0.000705645
-0.000423229
0.000613735
-0.000478509
0.000504648
-0.000512938
0.000414623
-0.000530392
0.000333599
-0.00053969
0.000264085
-0.000545119
0.000208973
-0.000550091
0.0001534
-0.000556795
0.000122156
6.13096e-05
-0.000568909
-0.000208824
0.000882572
-0.000265214
0.000857733
-0.000366116
0.000806547
-0.00046776
0.000715379
-0.000506526
0.000543414
-0.000553983
0.00046208
-0.000573381
0.000352997
-0.000593435
0.00028414
-0.000608024
0.000223562
-0.000625771
0.000171147
-0.000652777
0.000149162
9.7746e-05
-0.000689214
-0.00112157
0.00200415
-0.00113235
0.000868512
-0.00118536
0.000859554
-0.00104323
0.000573254
-0.000944283
0.000444462
-0.000812891
0.000330688
-0.000712781
0.000252887
-0.000623971
0.00019533
-0.000551651
0.000151243
-0.000497736
0.000117232
-0.000442614
9.40405e-05
6.92588e-05
-0.000414127
0.00200415
0.00287266
0.00373221
0.00430547
0.00474993
0.00508062
0.0053335
0.00552883
0.00568008
0.00579731
0.00589135
0.00596061
-9.21655e-05
3.62835e-05
-6.05411e-05
-7.15759e-05
1.51722e-05
-3.57618e-05
-5.87129e-05
-3.25053e-06
-9.61249e-06
-4.64997e-05
-1.72657e-05
5.0524e-06
-3.50575e-05
-2.83097e-05
1.68676e-05
-2.32444e-05
-3.63827e-05
2.45697e-05
-1.13019e-05
-4.16349e-05
2.96923e-05
-4.10354e-05
2.97334e-05
-0.000101767
9.16428e-06
-7.99984e-05
-6.59612e-06
-6.58969e-05
-1.7352e-05
-5.24072e-05
-3.07553e-05
-3.97207e-05
-4.09962e-05
-2.64614e-05
-4.9642e-05
-1.28931e-05
-5.52032e-05
-5.39284e-05
-0.00010953
-4.52991e-06
-9.59099e-05
-2.02159e-05
-8.1409e-05
-3.18528e-05
-6.63378e-05
-4.58266e-05
-5.04166e-05
-5.69174e-05
-3.37084e-05
-6.63502e-05
-1.64212e-05
-7.24905e-05
-7.03496e-05
-0.000119855
-1.76382e-05
-0.000106434
-3.36373e-05
-9.1287e-05
-4.69998e-05
-7.51228e-05
-6.19908e-05
-5.75834e-05
-7.44567e-05
-3.8736e-05
-8.51976e-05
-1.89547e-05
-9.22718e-05
-8.93043e-05
-0.000133671
-2.67558e-05
-0.000121965
-4.53436e-05
-0.00010689
-6.20747e-05
-8.91856e-05
-7.96949e-05
-6.91027e-05
-9.45397e-05
-4.66939e-05
-0.000107606
-2.29658e-05
-0.000116
-0.00011227
-0.000150212
-3.58244e-05
-0.000138158
-5.73968e-05
-0.000122276
-7.79575e-05
-0.00010288
-9.90903e-05
-8.04789e-05
-0.000116941
-5.46897e-05
-0.000133396
-2.70881e-05
-0.000143601
-0.000139358
-0.000171293
-4.30576e-05
-0.000159281
-6.94094e-05
-0.000143129
-9.41094e-05
-0.000121317
-0.000120902
-9.6283e-05
-0.000141975
-6.55401e-05
-0.000164139
-3.29561e-05
-0.000176185
-0.000172314
-0.000197051
-5.01995e-05
-0.000184641
-8.18193e-05
-0.000167675
-0.000111075
-0.000143521
-0.000145055
-0.000115278
-0.000170218
-7.90472e-05
-0.00020037
-4.02235e-05
-0.000215009
-0.000212538
-0.000226015
-5.49305e-05
-0.000213504
-9.43304e-05
-0.000197523
-0.000127056
-0.000170238
-0.000172341
-0.000140016
-0.00020044
-9.62211e-05
-0.000244164
-5.05198e-05
-0.00026071
-0.000263058
-0.000265842
-5.88215e-05
-0.000253964
-0.000106209
-0.000237871
-0.000143149
-0.000208338
-0.000201875
-0.000173989
-0.000234788
-0.000121428
-0.000296726
-6.49786e-05
-0.00031716
-0.000328036
-0.000301868
-5.79238e-05
-0.000290845
-0.000117232
-0.00027946
-0.000154534
-0.000247597
-0.000233738
-0.000215245
-0.000267141
-0.000151784
-0.000360187
-8.68981e-05
-0.000382045
-0.000414934
-0.000362971
-5.41674e-05
-0.000356067
-0.000124136
-0.000347595
-0.000163006
-0.000316342
-0.000264991
-0.000280742
-0.000302741
-0.00020445
-0.000436479
-0.000121269
-0.000465226
-0.000536203
-0.000399597
-4.29705e-05
-0.000395715
-0.000128018
-0.000399767
-0.000158954
-0.000372225
-0.000292533
-0.000352922
-0.000322044
-0.000266701
-0.000522699
-0.000180764
-0.000551163
-0.000716967
-0.000491345
-2.39394e-05
-0.000500074
-0.00011929
-0.000516076
-0.000142952
-0.0005004
-0.000308208
-0.000487504
-0.00033494
-0.000391974
-0.000618229
-0.000283263
-0.000659874
-0.00100023
-0.000508672
5.98054e-07
-0.000521401
-0.000106561
-0.000559444
-0.000104909
-0.000565688
-0.000301964
-0.00061083
-0.000289798
-0.000541625
-0.000687434
-0.00048682
-0.00071468
-0.00148705
-0.000640144
4.41846e-05
-0.000681846
-6.48592e-05
-0.000752719
-3.40358e-05
-0.000801756
-0.000252927
-0.000889719
-0.000201836
-0.000861315
-0.000715838
-0.000825786
-0.000750209
-0.00231284
-0.00059203
6.73053e-05
-0.000623405
-3.34839e-05
-0.000699417
4.19763e-05
-0.000788613
-0.000163732
-0.000998518
8.06893e-06
-0.00112437
-0.000589983
-0.00118274
-0.000691844
-0.00349557
-0.000752136
0.000130227
-0.000838197
5.25772e-05
-0.00097596
0.000179739
-0.0011533
1.36048e-05
-0.00132947
0.000184242
-0.00144105
-0.000478398
-0.000984799
-0.0011481
-0.00448037
-0.000349573
6.56732e-05
-0.000332281
3.52851e-05
-0.000201138
4.85958e-05
-0.000165175
-2.23581e-05
0.000138156
-0.000119088
0.00021332
-0.000553563
0.000567319
-0.0015021
-0.00391305
0.00602628
0.00606156
0.00611016
0.0060878
0.00596871
0.00541515
0.00391305
-1.52794e-06
1.52794e-06
-2.87619e-06
1.34825e-06
-3.6928e-06
8.16613e-07
-3.91269e-06
2.19893e-07
-3.51576e-06
-3.96929e-07
-2.61148e-06
-9.04283e-07
-1.34038e-06
-1.2711e-06
-1.34038e-06
-1.76416e-06
3.29209e-06
-3.30073e-06
2.88482e-06
-4.20605e-06
1.72193e-06
-4.39678e-06
4.10624e-07
-3.92181e-06
-8.71901e-07
-2.90408e-06
-1.92201e-06
-1.48863e-06
-2.68655e-06
-2.82901e-06
-2.67316e-06
5.96526e-06
-4.89154e-06
5.1032e-06
-6.11065e-06
2.94104e-06
-6.36838e-06
6.68357e-07
-5.63023e-06
-1.61006e-06
-4.13115e-06
-3.42109e-06
-2.10811e-06
-4.70959e-06
-4.93712e-06
-3.19095e-06
9.1562e-06
-5.77607e-06
7.68832e-06
-7.10106e-06
4.26604e-06
-7.19148e-06
7.58774e-07
-6.26709e-06
-2.53445e-06
-4.57063e-06
-5.11754e-06
-2.32149e-06
-6.95874e-06
-7.25861e-06
-6.12624e-06
1.52824e-05
-1.0502e-05
1.20641e-05
-1.22974e-05
6.06148e-06
-1.22467e-05
7.0805e-07
-1.04283e-05
-4.35288e-06
-7.4656e-06
-8.0802e-06
-3.75782e-06
-1.06665e-05
-1.10164e-05
-7.42771e-06
2.27102e-05
-1.25944e-05
1.72307e-05
-1.45132e-05
7.98035e-06
-1.40424e-05
2.37183e-07
-1.18345e-05
-6.56073e-06
-8.44305e-06
-1.14717e-05
-4.23525e-06
-1.48743e-05
-1.52517e-05
-1.69475e-05
3.96576e-05
-2.58645e-05
2.61477e-05
-2.68387e-05
8.95457e-06
-2.4626e-05
-1.97551e-06
-1.98465e-05
-1.13403e-05
-1.37129e-05
-1.76053e-05
-6.78126e-06
-2.18059e-05
-2.20329e-05
-2.08835e-05
-3.04976e-05
-3.11555e-05
-2.80786e-05
-2.25513e-05
-1.55869e-05
-7.7005e-06
)
;

boundaryField
{
    movingWall
    {
        type            calculated;
        value           uniform 0;
    }
    fixedWalls
    {
        type            calculated;
        value           uniform 0;
    }
    frontAndBack
    {
        type            empty;
        value           nonuniform List<scalar> 0();
    }
}


// ************************************************************************* //
