/*--------------------------------*- C++ -*----------------------------------*\
  =========                 |
  \\      /  F ield         | OpenFOAM: The Open Source CFD Toolbox
   \\    /   O peration     | Website:  https://openfoam.org
    \\  /    A nd           | Version:  8
     \\/     M anipulation  |
\*---------------------------------------------------------------------------*/
FoamFile
{
    version     2.0;
    format      ascii;
    class       volVectorField;
    location    "37.5";
    object      U;
}
// * * * * * * * * * * * * * * * * * * * * * * * * * * * * * * * * * * * * * //

dimensions      [0 1 -1 0 0 0 0];

internalField   nonuniform List<vector> 
464
(
(-0.000148892 0.00014751 0)
(-0.000471161 0.000156477 0)
(-0.00079903 0.000150173 0)
(-0.00110227 0.000140427 0)
(-0.00138436 0.00012758 0)
(-0.00163806 0.000111656 0)
(-0.00185202 9.29371e-05 0)
(-0.00204457 7.04011e-05 0)
(-0.00215115 4.53236e-05 0)
(-0.00230381 1.25973e-05 0)
(-0.00224499 -1.78858e-05 0)
(-0.00244128 2.84618e-06 0)
(-0.000164314 0.000472581 0)
(-0.000518972 0.000500371 0)
(-0.000879263 0.000480276 0)
(-0.00121258 0.000449419 0)
(-0.00152264 0.000409301 0)
(-0.00180146 0.000360791 0)
(-0.00203812 0.000306715 0)
(-0.00225059 0.000245064 0)
(-0.00237559 0.000193596 0)
(-0.00254631 0.000114994 0)
(-0.0025099 0.000113928 0)
(-0.00272869 -6.91906e-06 0)
(-0.000171294 0.000824278 0)
(-0.000541038 0.000871823 0)
(-0.000916557 0.000836551 0)
(-0.00126345 0.000782296 0)
(-0.00158555 0.000711648 0)
(-0.00187293 0.000625937 0)
(-0.0021165 0.000528718 0)
(-0.00232021 0.000417659 0)
(-0.00245202 0.000311868 0)
(-0.00256391 0.000173657 0)
(-0.00254762 0.000113829 0)
(-0.00255009 -5.85892e-05 0)
(-0.000181649 0.00118637 0)
(-0.000573738 0.00125455 0)
(-0.000972104 0.00120357 0)
(-0.00134006 0.00112504 0)
(-0.00168216 0.00102268 0)
(-0.00198805 0.00089833 0)
(-0.00225048 0.000755933 0)
(-0.00247178 0.000596282 0)
(-0.00262415 0.000431141 0)
(-0.002749 0.000241333 0)
(-0.00274622 8.13858e-05 0)
(-0.00274132 -0.000153006 0)
(-0.000195879 0.00157687 0)
(-0.000618593 0.00166712 0)
(-0.00104814 0.0015991 0)
(-0.00144442 0.0014942 0)
(-0.00181232 0.00135792 0)
(-0.00213974 0.00119243 0)
(-0.00241861 0.00100248 0)
(-0.00264502 0.000788608 0)
(-0.00280704 0.000560777 0)
(-0.0029137 0.000305216 0)
(-0.00294202 6.90737e-05 0)
(-0.00291581 -0.00022645 0)
(-0.000214614 0.0019968 0)
(-0.000677302 0.00211152 0)
(-0.00114767 0.00202556 0)
(-0.00158126 0.00189245 0)
(-0.00198394 0.00171971 0)
(-0.00234351 0.00150984 0)
(-0.00265436 0.00126919 0)
(-0.00291354 0.00100068 0)
(-0.0031077 0.000712288 0)
(-0.00324073 0.000400345 0)
(-0.00327797 8.05337e-05 0)
(-0.00324444 -0.000274702 0)
(-0.000237499 0.00247107 0)
(-0.000749361 0.00261074 0)
(-0.0012705 0.00250281 0)
(-0.0017503 0.00233508 0)
(-0.00219492 0.00212099 0)
(-0.00259024 0.00186072 0)
(-0.0029277 0.00156252 0)
(-0.00320179 0.00122656 0)
(-0.00340723 0.000859971 0)
(-0.00354529 0.000462031 0)
(-0.00361711 4.64406e-05 0)
(-0.00361557 -0.000397272 0)
(-0.00026843 0.00296611 0)
(-0.00084289 0.00313775 0)
(-0.00142731 0.00301041 0)
(-0.00196315 0.00281169 0)
(-0.0024583 0.00255763 0)
(-0.00290203 0.00224755 0)
(-0.0032886 0.00189569 0)
(-0.00361627 0.00150635 0)
(-0.00387254 0.00108755 0)
(-0.00405445 0.000639402 0)
(-0.00413739 0.000167533 0)
(-0.00412714 -0.000338009 0)
(-0.000299518 0.0036 0)
(-0.000943173 0.00379679 0)
(-0.00160113 0.00363769 0)
(-0.00220312 0.00337987 0)
(-0.002759 0.00306845 0)
(-0.00325216 0.00268601 0)
(-0.00366871 0.0022572 0)
(-0.0040096 0.00177577 0)
(-0.00427372 0.00125425 0)
(-0.00446491 0.000691928 0)
(-0.0045943 9.45469e-05 0)
(-0.00463897 -0.000540923 0)
(-0.000355206 0.00417488 0)
(-0.0010939 0.00442115 0)
(-0.00184968 0.0042382 0)
(-0.00253257 0.00395309 0)
(-0.00315201 0.00359789 0)
(-0.00371346 0.0031646 0)
(-0.00419909 0.00268857 0)
(-0.00461988 0.00216187 0)
(-0.00495721 0.00160166 0)
(-0.00521483 0.00100571 0)
(-0.00537059 0.000383402 0)
(-0.0054125 -0.0002996 0)
(-0.000384019 0.00507921 0)
(-0.00121617 0.00532485 0)
(-0.00207451 0.0051063 0)
(-0.00284363 0.00468844 0)
(-0.00354714 0.00426481 0)
(-0.00416157 0.00369608 0)
(-0.00467078 0.00311678 0)
(-0.00509563 0.00246156 0)
(-0.00542859 0.00177502 0)
(-0.0056821 0.0010374 0)
(-0.00589856 0.000258045 0)
(-0.00598058 -0.000609729 0)
(-0.000516758 0.00573288 0)
(-0.00147988 0.00614734 0)
(-0.00249356 0.0058249 0)
(-0.00337511 0.00547513 0)
(-0.00414364 0.00495158 0)
(-0.00486246 0.00435503 0)
(-0.00543404 0.0037137 0)
(-0.00596346 0.00301313 0)
(-0.00638337 0.00229491 0)
(-0.00673389 0.00153401 0)
(-0.00701877 0.000797732 0)
(-0.00712595 -0.000108635 0)
(-0.000423105 0.00706313 0)
(-0.00158459 0.00717824 0)
(-0.00274956 0.00699063 0)
(-0.00371767 0.00617603 0)
(-0.00466541 0.00568668 0)
(-0.00540015 0.00482631 0)
(-0.00601061 0.00412197 0)
(-0.00651278 0.00326327 0)
(-0.00690477 0.002437 0)
(-0.00717705 0.00152815 0)
(-0.00753771 0.00063027 0)
(-0.00757397 -0.000496704 0)
(-0.000999605 0.00782221 0)
(-0.00214874 0.00877372 0)
(-0.00350797 0.00798858 0)
(-0.00468364 0.00771925 0)
(-0.00549025 0.00672217 0)
(-0.00643113 0.00593934 0)
(-0.00699684 0.00499371 0)
(-0.00765286 0.0040552 0)
(-0.00812183 0.00316455 0)
(-0.00854602 0.00221083 0)
(-0.00904614 0.0014492 0)
(-0.00921029 0.000288956 0)
(-5.91974e-05 0.0100147 0)
(-0.00202891 0.00926379 0)
(-0.00378988 0.0093921 0)
(-0.0049878 0.00771844 0)
(-0.00644112 0.00728482 0)
(-0.00713057 0.00597925 0)
(-0.00789029 0.00519086 0)
(-0.00833979 0.00410846 0)
(-0.00874357 0.00321622 0)
(-0.00888918 0.00217147 0)
(-0.00945223 0.00130659 0)
(-0.00921843 -3.76827e-06 0)
(-0.00273659 0.010178 0)
(-0.00365266 0.0131502 0)
(-0.00505961 0.0110746 0)
(-0.00680424 0.0110682 0)
(-0.00721394 0.00898314 0)
(-0.00853754 0.00792253 0)
(-0.00886504 0.00638433 0)
(-0.00963656 0.00516045 0)
(-0.0100623 0.0040586 0)
(-0.0104659 0.00292511 0)
(-0.0112264 0.0022302 0)
(-0.0113592 0.000905887 0)
(0.00159547 0.0160625 0)
(-0.00212137 0.0107595 0)
(-0.00595321 0.0122809 0)
(-0.00712261 0.00906475 0)
(-0.00959617 0.00875717 0)
(-0.00972613 0.00702778 0)
(-0.0106445 0.00607506 0)
(-0.0106594 0.00485882 0)
(-0.0109704 0.0039395 0)
(-0.0107134 0.00288844 0)
(-0.0114633 0.00226742 0)
(-0.010582 0.000982498 0)
(-0.00215514 0.0110406 0)
(-0.00609161 0.0218402 0)
(-0.00465699 0.0162681 0)
(-0.00985726 0.0159566 0)
(-0.00897322 0.0117311 0)
(-0.0111976 0.00987107 0)
(-0.0110427 0.00748693 0)
(-0.011803 0.00589969 0)
(-0.0120403 0.00457466 0)
(-0.0121304 0.00337952 0)
(-0.0130969 0.00274462 0)
(-0.0127599 0.00156033 0)
(-0.0288879 0.024726 0)
(-0.0166166 0.0118058 0)
(-0.0280565 0.0155822 0)
(-0.0199271 0.0120782 0)
(-0.0213395 0.00964234 0)
(-0.0167653 0.00824233 0)
(-0.0155098 0.00638715 0)
(-0.0131357 0.00524694 0)
(-0.011868 0.00419955 0)
(-0.0100478 0.00332081 0)
(-0.0100654 0.00308193 0)
(-0.00738718 0.00223401 0)
(0.0343009 0.0544822 0)
(0.0467971 0.0235404 0)
(0.0672768 0.0191695 0)
(0.0816926 0.0112896 0)
(0.0909495 0.00840177 0)
(0.0988188 0.00523789 0)
(0.104413 0.00388247 0)
(0.109216 0.00270424 0)
(0.111572 0.00194912 0)
(0.116198 0.00145944 0)
(0.114949 0.000760932 0)
(0.121658 0.000612931 0)
(-0.00218553 0.00122389 0)
(-0.00152228 0.000670317 0)
(-0.00132881 0.000136445 0)
(-0.00102861 -0.000166684 0)
(-0.000825493 -0.000416874 0)
(-0.000580606 -0.000580571 0)
(-0.000346336 -0.000689364 0)
(-0.000107562 -0.000686478 0)
(-0.00239508 0.000249113 0)
(-0.0016987 -5.13386e-05 0)
(-0.00148759 -0.000261596 0)
(-0.00115811 -0.000514351 0)
(-0.000931846 -0.000705155 0)
(-0.000660926 -0.000864752 0)
(-0.000394447 -0.00096682 0)
(-0.000123275 -0.000946494 0)
(-0.00236085 0.000108548 0)
(-0.0020339 -0.000219295 0)
(-0.00179161 -0.000443139 0)
(-0.00147191 -0.000728135 0)
(-0.00117576 -0.000947229 0)
(-0.000844057 -0.00113283 0)
(-0.000500955 -0.00125245 0)
(-0.000158199 -0.00122093 0)
(-0.002559 -0.000283648 0)
(-0.00224928 -0.000577571 0)
(-0.00199669 -0.000816713 0)
(-0.00166204 -0.00108995 0)
(-0.00133691 -0.00131463 0)
(-0.000968893 -0.00150744 0)
(-0.000577063 -0.00163451 0)
(-0.000183578 -0.00158156 0)
(-0.00278524 -0.00043395 0)
(-0.00256675 -0.00078377 0)
(-0.0023042 -0.00108171 0)
(-0.00196964 -0.0014091 0)
(-0.00159329 -0.00168344 0)
(-0.0011673 -0.00191983 0)
(-0.000697142 -0.00207521 0)
(-0.000223907 -0.00200848 0)
(-0.00311637 -0.000619417 0)
(-0.00289678 -0.00100858 0)
(-0.00262221 -0.00137651 0)
(-0.00226377 -0.00175246 0)
(-0.00184791 -0.00207073 0)
(-0.00136524 -0.0023575 0)
(-0.000819503 -0.00253785 0)
(-0.000266144 -0.00245679 0)
(-0.00351911 -0.000836112 0)
(-0.00332354 -0.00131589 0)
(-0.00304785 -0.00177532 0)
(-0.00266367 -0.00224768 0)
(-0.0021982 -0.00264624 0)
(-0.00164001 -0.00301855 0)
(-0.000987251 -0.00324758 0)
(-0.000328025 -0.00315767 0)
(-0.00403529 -0.000856222 0)
(-0.00383641 -0.00142247 0)
(-0.0035543 -0.00194308 0)
(-0.0031354 -0.00253878 0)
(-0.00261914 -0.0029774 0)
(-0.00197449 -0.00349148 0)
(-0.00119649 -0.00374116 0)
(-0.000406701 -0.00367904 0)
(-0.00460281 -0.00119002 0)
(-0.00440995 -0.00189939 0)
(-0.0041627 -0.00256061 0)
(-0.00369789 -0.00332971 0)
(-0.00314948 -0.0039073 0)
(-0.00241299 -0.00460077 0)
(-0.00146165 -0.00494271 0)
(-0.00054346 -0.0049029 0)
(-0.00539442 -0.000958881 0)
(-0.00520924 -0.00181124 0)
(-0.00498469 -0.0024422 0)
(-0.00448564 -0.00347721 0)
(-0.00388988 -0.00400842 0)
(-0.00302541 -0.00506315 0)
(-0.00186151 -0.00537339 0)
(-0.000717886 -0.00551308 0)
(-0.0061113 -0.00145229 0)
(-0.00589294 -0.00251381 0)
(-0.00582189 -0.0033835 0)
(-0.00526562 -0.00470815 0)
(-0.00472691 -0.00551569 0)
(-0.0037957 -0.00694229 0)
(-0.00233901 -0.00746463 0)
(-0.00109506 -0.00775529 0)
(-0.00729935 -0.000796681 0)
(-0.00714858 -0.00208215 0)
(-0.00717691 -0.00267434 0)
(-0.00663173 -0.00450163 0)
(-0.00611706 -0.00499935 0)
(-0.00501414 -0.00728835 0)
(-0.00323708 -0.00761861 0)
(-0.00155937 -0.00865347 0)
(-0.00807463 -0.00144488 0)
(-0.00777093 -0.00299144 0)
(-0.00821601 -0.00399165 0)
(-0.00759931 -0.0062683 0)
(-0.00746892 -0.00732188 0)
(-0.0064657 -0.0103982 0)
(-0.00434698 -0.0112506 0)
(-0.00277159 -0.0130547 0)
(-0.0097963 -0.000198001 0)
(-0.00971925 -0.00200488 0)
(-0.0104482 -0.00219933 0)
(-0.0100085 -0.00522408 0)
(-0.0102062 -0.00529955 0)
(-0.0090832 -0.010215 0)
(-0.00677394 -0.0104565 0)
(-0.00439686 -0.0152876 0)
(-0.0103455 -0.000821401 0)
(-0.00976697 -0.00289896 0)
(-0.0113586 -0.00369553 0)
(-0.0107158 -0.00734548 0)
(-0.0122462 -0.00839758 0)
(-0.0118242 -0.0148794 0)
(-0.0101803 -0.0163619 0)
(-0.00895837 -0.025192 0)
(-0.0127049 0.000855265 0)
(-0.012654 -0.00122633 0)
(-0.014919 -0.000332041 0)
(-0.0148425 -0.00445799 0)
(-0.0176335 -0.00286683 0)
(-0.0175021 -0.012147 0)
(-0.0174261 -0.0116589 0)
(-0.0150798 -0.0335647 0)
(-0.0124528 0.000819226 0)
(-0.0108969 -0.00148298 0)
(-0.0144335 -0.00113214 0)
(-0.0130779 -0.00593391 0)
(-0.0190345 -0.00549733 0)
(-0.0202151 -0.017015 0)
(-0.0255953 -0.0189452 0)
(-0.020795 -0.0599696 0)
(-0.0151246 0.00198805 0)
(-0.0145687 0.000228537 0)
(-0.0194399 0.00292631 0)
(-0.0190014 -0.000378766 0)
(-0.0279051 0.00587995 0)
(-0.0243169 -0.00600914 0)
(-0.0345737 -0.00812392 0)
(-0.00370038 -0.0783083 0)
(-0.00947245 0.00306075 0)
(-0.00418581 0.00176876 0)
(-0.00946909 0.00400996 0)
(0.00175425 0.000851684 0)
(-0.00870869 0.0011226 0)
(0.0145675 -0.0138028 0)
(-0.00656551 -0.0391741 0)
(0.0302116 -0.104053 0)
(0.115631 -0.000345992 0)
(0.12674 -0.000288081 0)
(0.114252 -0.00195725 0)
(0.13167 -0.00166994 0)
(0.110052 -0.00560685 0)
(0.129829 -0.00764626 0)
(0.0847537 -0.0190843 0)
(0.0747069 -0.0488622 0)
(-1.53185e-05 -1.35854e-05 0)
(-4.6002e-05 -1.54381e-05 0)
(-6.86123e-05 -1.74991e-05 0)
(-7.89746e-05 -2.03269e-05 0)
(-7.70522e-05 -2.19434e-05 0)
(-6.34666e-05 -2.3505e-05 0)
(-4.06349e-05 -2.43657e-05 0)
(-1.31747e-05 -2.33225e-05 0)
(-1.78729e-05 7.59144e-05 0)
(-5.29061e-05 7.04819e-05 0)
(-7.86641e-05 5.09858e-05 0)
(-8.93622e-05 2.95254e-05 0)
(-8.6027e-05 6.56013e-06 0)
(-7.07061e-05 -1.19812e-05 0)
(-4.50833e-05 -2.57282e-05 0)
(-1.46708e-05 -2.95513e-05 0)
(-2.72899e-05 5.32786e-05 0)
(-7.9938e-05 4.26237e-05 0)
(-0.000114974 1.6208e-05 0)
(-0.000129471 -1.38814e-05 0)
(-0.000124474 -4.24828e-05 0)
(-0.000100702 -6.63408e-05 0)
(-6.39999e-05 -8.33229e-05 0)
(-2.06264e-05 -8.51879e-05 0)
(-3.31487e-05 0.000189617 0)
(-9.47806e-05 0.000165357 0)
(-0.000135445 0.000104182 0)
(-0.000148231 4.18475e-05 0)
(-0.000138667 -2.0188e-05 0)
(-0.000111851 -6.81853e-05 0)
(-7.04033e-05 -0.000102554 0)
(-2.27886e-05 -0.000109824 0)
(-6.54087e-05 0.000170365 0)
(-0.000179561 0.000136607 0)
(-0.000238811 6.25785e-05 0)
(-0.00025381 -1.30328e-05 0)
(-0.000234459 -8.37191e-05 0)
(-0.00018324 -0.000139814 0)
(-0.000114409 -0.000179337 0)
(-3.64666e-05 -0.000184005 0)
(-8.0354e-05 0.000450774 0)
(-0.000216382 0.000354245 0)
(-0.000285529 0.000185212 0)
(-0.000294624 4.30326e-05 0)
(-0.000265569 -8.67545e-05 0)
(-0.000207913 -0.000178918 0)
(-0.000128782 -0.000242685 0)
(-4.12497e-05 -0.000252147 0)
(-0.000196061 0.000443864 0)
(-0.000479481 0.000323682 0)
(-0.000550682 0.000127129 0)
(-0.000525511 -3.46268e-05 0)
(-0.000456186 -0.000180589 0)
(-0.000339481 -0.000285784 0)
(-0.000207235 -0.000358247 0)
(-6.50973e-05 -0.000363677 0)
(-0.000262436 0.00116516 0)
(-0.000569566 0.000738637 0)
(-0.000645811 0.000239061 0)
(-0.000602743 -4.10678e-05 0)
(-0.000517128 -0.000266366 0)
(-0.00038655 -0.000411172 0)
(-0.000235012 -0.000506925 0)
(-7.41901e-05 -0.000510953 0)
)
;

boundaryField
{
    movingWall
    {
        type            fixedValue;
        value           uniform (1 0 0);
    }
    fixedWalls
    {
        type            noSlip;
    }
    frontAndBack
    {
        type            empty;
    }
}


// ************************************************************************* //
