/*--------------------------------*- C++ -*----------------------------------*\
  =========                 |
  \\      /  F ield         | OpenFOAM: The Open Source CFD Toolbox
   \\    /   O peration     | Website:  https://openfoam.org
    \\  /    A nd           | Version:  8
     \\/     M anipulation  |
\*---------------------------------------------------------------------------*/
FoamFile
{
    version     2.0;
    format      ascii;
    class       volVectorField;
    location    "52";
    object      U;
}
// * * * * * * * * * * * * * * * * * * * * * * * * * * * * * * * * * * * * * //

dimensions      [0 1 -1 0 0 0 0];

internalField   nonuniform List<vector> 
464
(
(-0.000167073 0.000165621 0)
(-0.000547999 0.000182974 0)
(-0.000946181 0.000177286 0)
(-0.00131399 0.000167624 0)
(-0.00166391 0.000153849 0)
(-0.00198581 0.000134987 0)
(-0.00226065 0.000110771 0)
(-0.00252454 7.86386e-05 0)
(-0.00267385 4.12121e-05 0)
(-0.00290225 -1.16008e-05 0)
(-0.00284332 -5.50443e-05 0)
(-0.00313627 1.26664e-06 0)
(-0.000190802 0.000549536 0)
(-0.000623101 0.0006045 0)
(-0.00107384 0.000586487 0)
(-0.00149116 0.000557078 0)
(-0.00188912 0.000518488 0)
(-0.00225603 0.000471843 0)
(-0.00257322 0.000421205 0)
(-0.00287545 0.000358805 0)
(-0.00306099 0.000314084 0)
(-0.00332366 0.000225467 0)
(-0.00331344 0.000240807 0)
(-0.00364167 8.89705e-05 0)
(-0.000197498 0.000970827 0)
(-0.000645293 0.00106563 0)
(-0.00111188 0.0010331 0)
(-0.00154207 0.000979398 0)
(-0.0019495 0.00090631 0)
(-0.00231915 0.000813229 0)
(-0.00263972 0.000703974 0)
(-0.00292326 0.000569987 0)
(-0.0031142 0.000444031 0)
(-0.0033013 0.000265354 0)
(-0.00331179 0.000192242 0)
(-0.00336866 -3.81756e-05 0)
(-0.000206928 0.00139462 0)
(-0.000676962 0.00153094 0)
(-0.00116826 0.00148438 0)
(-0.00162464 0.00140846 0)
(-0.00206351 0.00130821 0)
(-0.0024679 0.00118498 0)
(-0.00282713 0.00104166 0)
(-0.00314671 0.00087404 0)
(-0.00337745 0.000699634 0)
(-0.00358747 0.000477426 0)
(-0.00362773 0.000297383 0)
(-0.00366579 -7.32181e-06 0)
(-0.000219236 0.00184934 0)
(-0.00071821 0.00203043 0)
(-0.00123921 0.00196876 0)
(-0.00171848 0.00186648 0)
(-0.00217315 0.00172682 0)
(-0.00258581 0.00155044 0)
(-0.00295073 0.00134034 0)
(-0.00326516 0.00109386 0)
(-0.00351081 0.000825736 0)
(-0.00370345 0.000505523 0)
(-0.00379653 0.000208548 0)
(-0.00383967 -0.000193333 0)
(-0.000235412 0.00232626 0)
(-0.000773061 0.00255774 0)
(-0.00133836 0.00248351 0)
(-0.00186674 0.00236573 0)
(-0.00237974 0.00220583 0)
(-0.00285471 0.0020067 0)
(-0.00328429 0.00176943 0)
(-0.00366196 0.00149288 0)
(-0.00396673 0.00118252 0)
(-0.00420517 0.000826864 0)
(-0.0043271 0.000450584 0)
(-0.00434946 -3.18892e-06 0)
(-0.000252488 0.00285542 0)
(-0.000832987 0.00313561 0)
(-0.00143869 0.00303839 0)
(-0.00199609 0.0028761 0)
(-0.00253185 0.00266333 0)
(-0.00302164 0.00239562 0)
(-0.00346371 0.00207899 0)
(-0.00385092 0.0017091 0)
(-0.00417566 0.00129094 0)
(-0.00443416 0.000814483 0)
(-0.00462596 0.000299759 0)
(-0.00473686 -0.000303294 0)
(-0.000281797 0.00342923 0)
(-0.000925503 0.00378917 0)
(-0.00160717 0.00367681 0)
(-0.00224228 0.00353159 0)
(-0.00286082 0.00330042 0)
(-0.00344007 0.00302594 0)
(-0.00397227 0.00268969 0)
(-0.00445186 0.00229936 0)
(-0.00486344 0.00185834 0)
(-0.00519804 0.00135416 0)
(-0.00544584 0.000823425 0)
(-0.00553807 0.000158215 0)
(-0.000283747 0.00399036 0)
(-0.000986642 0.00438452 0)
(-0.00170623 0.00426328 0)
(-0.00237183 0.00402778 0)
(-0.00303645 0.00375388 0)
(-0.00363081 0.00338859 0)
(-0.00418809 0.0029745 0)
(-0.00467956 0.00248071 0)
(-0.00511775 0.00192732 0)
(-0.00546634 0.00127909 0)
(-0.00581902 0.000597875 0)
(-0.00599282 -0.00027602 0)
(-0.000358944 0.0048112 0)
(-0.00113569 0.00537042 0)
(-0.00197737 0.00516361 0)
(-0.00275327 0.00504397 0)
(-0.00350172 0.00467676 0)
(-0.0042222 0.00435001 0)
(-0.00488351 0.00388524 0)
(-0.00550358 0.00337522 0)
(-0.0060698 0.00281594 0)
(-0.00653253 0.00213379 0)
(-0.00700298 0.00153135 0)
(-0.00720853 0.000566529 0)
(-0.00027088 0.00530807 0)
(-0.00119358 0.00580205 0)
(-0.0020431 0.00571048 0)
(-0.00285618 0.00532708 0)
(-0.00372761 0.00504923 0)
(-0.00441864 0.00454693 0)
(-0.00515809 0.00408174 0)
(-0.00574324 0.00345133 0)
(-0.00635214 0.00282481 0)
(-0.00674539 0.00198211 0)
(-0.00737744 0.00123452 0)
(-0.00754216 3.3948e-05 0)
(-0.000524421 0.00649267 0)
(-0.00140559 0.00744607 0)
(-0.00247343 0.00700688 0)
(-0.00341915 0.0070702 0)
(-0.00428558 0.00641108 0)
(-0.005196 0.00610273 0)
(-0.00598527 0.00541022 0)
(-0.00677021 0.00478645 0)
(-0.00754803 0.00411402 0)
(-0.00813557 0.00323582 0)
(-0.00895631 0.00266368 0)
(-0.00929214 0.00139032 0)
(-5.03881e-05 0.00695276 0)
(-0.00143114 0.00738995 0)
(-0.00242189 0.00746251 0)
(-0.00344462 0.00674287 0)
(-0.00468958 0.00657988 0)
(-0.00541209 0.00585938 0)
(-0.00646615 0.00543794 0)
(-0.00702964 0.00463325 0)
(-0.00788947 0.00404931 0)
(-0.00818607 0.00299197 0)
(-0.00920322 0.0023705 0)
(-0.00921612 0.000801885 0)
(-0.00102906 0.00830272 0)
(-0.00183343 0.0103024 0)
(-0.00315969 0.00928078 0)
(-0.00431265 0.00989649 0)
(-0.00517346 0.00861147 0)
(-0.00635084 0.00840351 0)
(-0.00721937 0.00728651 0)
(-0.00817679 0.0065458 0)
(-0.00920261 0.00570877 0)
(-0.00984033 0.00465017 0)
(-0.0111593 0.00420828 0)
(-0.0114854 0.00273621 0)
(0.00104044 0.00941994 0)
(-0.00139068 0.00897387 0)
(-0.002802 0.00958068 0)
(-0.00409584 0.00813951 0)
(-0.00618142 0.00828075 0)
(-0.00672349 0.00729893 0)
(-0.00831434 0.00699563 0)
(-0.00859107 0.00601934 0)
(-0.00976539 0.00556992 0)
(-0.00967213 0.00432293 0)
(-0.0110902 0.00403196 0)
(-0.0105613 0.00221406 0)
(-0.00287104 0.00907673 0)
(-0.00294777 0.0148296 0)
(-0.00398827 0.0123164 0)
(-0.00561991 0.0141297 0)
(-0.00600633 0.0115398 0)
(-0.007664 0.0113302 0)
(-0.00850742 0.00948111 0)
(-0.00963203 0.00849194 0)
(-0.0109127 0.00738462 0)
(-0.0114189 0.00611709 0)
(-0.0132909 0.00581531 0)
(-0.0132613 0.00433163 0)
(0.00369648 0.0148108 0)
(-0.000102193 0.00935899 0)
(-0.0042864 0.0117869 0)
(-0.00513868 0.00925955 0)
(-0.00915482 0.00984597 0)
(-0.00878416 0.00892542 0)
(-0.0111524 0.00862122 0)
(-0.0106486 0.00757481 0)
(-0.0121121 0.00721234 0)
(-0.0112205 0.00582537 0)
(-0.0128695 0.00592904 0)
(-0.0111251 0.00411232 0)
(0.00352915 0.00558408 0)
(-0.000394046 0.0237855 0)
(0.00278706 0.0177234 0)
(-0.00435514 0.0202806 0)
(-0.00449091 0.0155734 0)
(-0.00797352 0.0144723 0)
(-0.00942679 0.0117618 0)
(-0.010917 0.0101223 0)
(-0.0126366 0.00871712 0)
(-0.0127732 0.00706956 0)
(-0.0150536 0.00660015 0)
(-0.0141787 0.00524403 0)
(-0.0357459 0.0120875 0)
(-0.0196516 0.00921379 0)
(-0.0387006 0.014989 0)
(-0.0260138 0.0152877 0)
(-0.0315217 0.0126873 0)
(-0.0235019 0.0126972 0)
(-0.0240274 0.0111104 0)
(-0.0189502 0.0096717 0)
(-0.0183017 0.00893394 0)
(-0.0139301 0.00714279 0)
(-0.0141717 0.00743537 0)
(-0.00899379 0.00566877 0)
(0.0276468 0.0588511 0)
(0.0452988 0.0291168 0)
(0.0636698 0.0237306 0)
(0.0838563 0.0153958 0)
(0.0946895 0.0130586 0)
(0.108947 0.00854115 0)
(0.11479 0.00751745 0)
(0.128681 0.0050353 0)
(0.127606 0.0045304 0)
(0.143759 0.0030804 0)
(0.135691 0.00239876 0)
(0.155429 0.00209078 0)
(-0.00286321 0.00165186 0)
(-0.00202888 0.000902701 0)
(-0.00179182 0.000176787 0)
(-0.00140736 -0.000234789 0)
(-0.00114125 -0.000583949 0)
(-0.000807532 -0.000813796 0)
(-0.000481058 -0.000967039 0)
(-0.000145211 -0.000939417 0)
(-0.00321209 0.000457782 0)
(-0.00229616 3.95021e-05 0)
(-0.00202824 -0.000270441 0)
(-0.00158904 -0.000637273 0)
(-0.00128854 -0.000918444 0)
(-0.000916508 -0.00115973 0)
(-0.000545462 -0.00131104 0)
(-0.000165928 -0.00125705 0)
(-0.00316467 0.000187032 0)
(-0.00275606 -0.000267974 0)
(-0.00246799 -0.000585161 0)
(-0.00205472 -0.000999258 0)
(-0.00166328 -0.00132004 0)
(-0.00120479 -0.00160219 0)
(-0.00071444 -0.00177895 0)
(-0.000222244 -0.00170044 0)
(-0.00345082 -0.000171808 0)
(-0.00306588 -0.000595909 0)
(-0.00276019 -0.000941072 0)
(-0.00232378 -0.00136752 0)
(-0.00189274 -0.00170812 0)
(-0.00138317 -0.00203421 0)
(-0.000822935 -0.00222944 0)
(-0.000259228 -0.00212374 0)
(-0.00375256 -0.000474666 0)
(-0.00352474 -0.000984142 0)
(-0.00323973 -0.00141735 0)
(-0.00282103 -0.00193432 0)
(-0.00232963 -0.00235239 0)
(-0.00173498 -0.00276052 0)
(-0.00103422 -0.00300127 0)
(-0.000337591 -0.00286775 0)
(-0.0042418 -0.000447345 0)
(-0.00400852 -0.00103361 0)
(-0.00371106 -0.0015384 0)
(-0.00325996 -0.0021992 0)
(-0.00272027 -0.00265584 0)
(-0.00204603 -0.00323465 0)
(-0.00122747 -0.00349818 0)
(-0.000410114 -0.00338621 0)
(-0.00478212 -0.00088767 0)
(-0.00461495 -0.00161676 0)
(-0.00440297 -0.00226405 0)
(-0.00393777 -0.00308819 0)
(-0.00336279 -0.00367896 0)
(-0.00259275 -0.00442874 0)
(-0.00155105 -0.00477549 0)
(-0.000574863 -0.00465736 0)
(-0.0055559 -0.000433418 0)
(-0.00538846 -0.00136329 0)
(-0.00518267 -0.00198801 0)
(-0.00468105 -0.0031573 0)
(-0.0040617 -0.0037371 0)
(-0.00317056 -0.00492436 0)
(-0.00192936 -0.0052768 0)
(-0.000743077 -0.0053425 0)
(-0.00629839 -0.00106776 0)
(-0.0061694 -0.00221009 0)
(-0.00618645 -0.0030622 0)
(-0.00568819 -0.00450688 0)
(-0.00511781 -0.00532788 0)
(-0.00416149 -0.00687774 0)
(-0.0025344 -0.00740084 0)
(-0.00117762 -0.00759016 0)
(-0.0074897 -1.90898e-05 0)
(-0.00739539 -0.00146229 0)
(-0.00747526 -0.00208321 0)
(-0.00696918 -0.0041518 0)
(-0.00642529 -0.00480315 0)
(-0.00531298 -0.00735691 0)
(-0.00339446 -0.00783791 0)
(-0.00165309 -0.00879625 0)
(-0.00830995 -0.000834863 0)
(-0.00823609 -0.00258728 0)
(-0.0088389 -0.0035415 0)
(-0.00842089 -0.00606303 0)
(-0.00826608 -0.00712559 0)
(-0.00727328 -0.0104656 0)
(-0.00485335 -0.011322 0)
(-0.00299132 -0.0130855 0)
(-0.0101096 0.000985361 0)
(-0.0101341 -0.00100087 0)
(-0.0109341 -0.00131196 0)
(-0.0106212 -0.00470106 0)
(-0.0107715 -0.00518434 0)
(-0.00973997 -0.01062 0)
(-0.00722395 -0.0113572 0)
(-0.00475581 -0.0162656 0)
(-0.0106573 0.000211812 0)
(-0.0105349 -0.00232301 0)
(-0.0124288 -0.00295564 0)
(-0.0123346 -0.00704877 0)
(-0.0139426 -0.0080479 0)
(-0.0137535 -0.0149963 0)
(-0.0116987 -0.0165444 0)
(-0.00986403 -0.0258753 0)
(-0.0132469 0.00284482 0)
(-0.0133649 0.000542138 0)
(-0.0156475 0.00124646 0)
(-0.0158575 -0.00333 0)
(-0.0185163 -0.00257303 0)
(-0.0190556 -0.0128626 0)
(-0.0190216 -0.0137539 0)
(-0.0182874 -0.0372385 0)
(-0.0127796 0.00232589 0)
(-0.0120797 -0.000634922 0)
(-0.0160461 3.48282e-05 0)
(-0.0161084 -0.00544022 0)
(-0.0227004 -0.00442882 0)
(-0.0255485 -0.0162451 0)
(-0.031454 -0.0168947 0)
(-0.0317755 -0.0646457 0)
(-0.0161665 0.00521787 0)
(-0.0157701 0.00332389 0)
(-0.0206307 0.00635889 0)
(-0.0203535 0.00267205 0)
(-0.0290543 0.00856081 0)
(-0.0291629 -0.00500678 0)
(-0.0410047 -0.00505446 0)
(-0.0239908 -0.100457 0)
(-0.0138153 0.00509913 0)
(-0.0107101 0.0026403 0)
(-0.0164639 0.00518378 0)
(-0.0124382 0.0012407 0)
(-0.026411 0.00568375 0)
(-0.0223537 -0.00757917 0)
(-0.0438939 -0.0199014 0)
(0.00754939 -0.134247 0)
(-0.0177938 0.00589406 0)
(-0.0158904 0.00563498 0)
(-0.0225918 0.00982635 0)
(-0.0187219 0.0116269 0)
(-0.0318643 0.0216926 0)
(-0.0168526 0.00985418 0)
(-0.0394301 -0.030061 0)
(0.0314575 -0.133715 0)
(-0.0108047 0.00708598 0)
(-0.00199624 0.00597236 0)
(-0.00726665 0.00834936 0)
(0.0133825 0.00831825 0)
(0.0032274 0.00407193 0)
(0.0435336 -0.0030014 0)
(0.0248579 -0.0694175 0)
(0.0423225 -0.149661 0)
(0.141285 -0.00044963 0)
(0.163912 0.00227405 0)
(0.14725 -0.00449775 0)
(0.169605 0.00104077 0)
(0.153722 -0.00616306 0)
(0.167694 -0.0127539 0)
(0.135284 -0.0201989 0)
(0.0831113 -0.0585118 0)
(-1.9184e-05 -2.33438e-05 0)
(-5.9886e-05 -2.62455e-05 0)
(-9.03721e-05 -2.89684e-05 0)
(-0.000104221 -3.24235e-05 0)
(-0.000101826 -3.43654e-05 0)
(-8.37934e-05 -3.60501e-05 0)
(-5.31022e-05 -3.69048e-05 0)
(-1.65835e-05 -3.43792e-05 0)
(-2.29816e-05 0.000103794 0)
(-7.05519e-05 9.98731e-05 0)
(-0.000105879 7.37978e-05 0)
(-0.000120377 4.52486e-05 0)
(-0.000115949 1.39781e-05 0)
(-9.50736e-05 -1.10616e-05 0)
(-6.00145e-05 -2.98804e-05 0)
(-1.88148e-05 -3.38861e-05 0)
(-3.50676e-05 6.4723e-05 0)
(-0.000106452 5.27047e-05 0)
(-0.000154944 1.67401e-05 0)
(-0.000175114 -2.36834e-05 0)
(-0.000168924 -6.2732e-05 0)
(-0.000136699 -9.46881e-05 0)
(-8.61563e-05 -0.000117608 0)
(-2.68215e-05 -0.000116517 0)
(-4.31212e-05 0.000254288 0)
(-0.000127106 0.000230057 0)
(-0.000182962 0.000147413 0)
(-0.000200304 6.40255e-05 0)
(-0.000187419 -2.16505e-05 0)
(-0.000150729 -8.67648e-05 0)
(-9.39733e-05 -0.000134433 0)
(-2.92892e-05 -0.00014002 0)
(-8.4459e-05 0.000219765 0)
(-0.0002393 0.000180418 0)
(-0.0003218 7.94461e-05 0)
(-0.000344101 -2.30347e-05 0)
(-0.000319603 -0.0001202 0)
(-0.000249916 -0.000196083 0)
(-0.000155227 -0.0002501 0)
(-4.77208e-05 -0.000248958 0)
(-0.00010669 0.000599747 0)
(-0.000292512 0.000490426 0)
(-0.000387536 0.000262397 0)
(-0.000400187 7.08121e-05 0)
(-0.000360789 -0.000109315 0)
(-0.000281773 -0.000235818 0)
(-0.000173154 -0.000325046 0)
(-5.34363e-05 -0.000328689 0)
(-0.000255279 0.000586756 0)
(-0.000639111 0.000434459 0)
(-0.000743079 0.000166886 0)
(-0.000715158 -5.35255e-05 0)
(-0.000625692 -0.000255337 0)
(-0.000466443 -0.000399116 0)
(-0.000283941 -0.000499418 0)
(-8.61151e-05 -0.000492856 0)
(-0.000356338 0.00154662 0)
(-0.000779172 0.00102144 0)
(-0.000880334 0.00035285 0)
(-0.000823381 -3.1368e-05 0)
(-0.000707421 -0.000345014 0)
(-0.000528391 -0.000548891 0)
(-0.000319566 -0.000684622 0)
(-9.74031e-05 -0.000673371 0)
)
;

boundaryField
{
    movingWall
    {
        type            fixedValue;
        value           uniform (1 0 0);
    }
    fixedWalls
    {
        type            noSlip;
    }
    frontAndBack
    {
        type            empty;
    }
}


// ************************************************************************* //
