/*--------------------------------*- C++ -*----------------------------------*\
  =========                 |
  \\      /  F ield         | OpenFOAM: The Open Source CFD Toolbox
   \\    /   O peration     | Website:  https://openfoam.org
    \\  /    A nd           | Version:  8
     \\/     M anipulation  |
\*---------------------------------------------------------------------------*/
FoamFile
{
    version     2.0;
    format      ascii;
    class       volScalarField;
    location    "9";
    object      T;
}
// * * * * * * * * * * * * * * * * * * * * * * * * * * * * * * * * * * * * * //

dimensions      [0 0 0 1 0 0 0];

internalField   nonuniform List<scalar> 
116
(
4.16037e-07
4.16019e-07
4.16013e-07
4.16003e-07
4.15874e-07
4.13929e-07
4.31038e-06
4.31024e-06
4.31019e-06
4.31018e-06
4.31016e-06
4.30992e-06
4.36202e-05
4.36191e-05
4.36188e-05
4.36187e-05
4.36187e-05
4.36186e-05
0.000394912
0.000394905
0.000394903
0.000394902
0.000394902
0.000394902
0.00315323
0.00315319
0.00315318
0.00315317
0.00315317
0.00315317
0.0218237
0.0218235
0.0218234
0.0218234
0.0218234
0.0218234
0.128024
0.128023
0.128023
0.128023
0.128023
0.128023
0.617903
0.617901
0.617901
0.617901
0.617901
0.617901
2.35596
2.35596
2.35596
2.35596
2.35596
2.35596
6.70946
6.70946
6.70946
6.70946
6.70946
6.70946
3.86621e-07
3.84791e-07
3.84675e-07
3.84668e-07
4.30808e-06
4.30785e-06
4.30783e-06
4.30783e-06
4.36185e-05
4.36185e-05
4.36185e-05
4.36185e-05
0.000394902
0.000394902
0.000394902
0.000394902
0.00315317
0.00315317
0.00315317
0.00315317
0.0218234
0.0218234
0.0218234
0.0218234
0.128023
0.128023
0.128023
0.128023
0.617901
0.617901
0.617901
0.617901
2.35596
2.35596
2.35596
2.35596
6.70946
6.70946
6.70946
6.70946
1.11717e-11
1.11501e-11
1.11448e-11
1.11441e-11
1.63335e-10
1.62952e-10
1.62872e-10
1.62863e-10
2.3561e-09
2.34929e-09
2.34816e-09
2.34806e-09
3.14688e-08
3.13542e-08
3.13407e-08
3.13398e-08
)
;

boundaryField
{
    movingWall
    {
        type            fixedValue;
        value           uniform 10;
    }
    fixedWalls
    {
        type            zeroGradient;
    }
    frontAndBack
    {
        type            empty;
    }
}


// ************************************************************************* //
