/*--------------------------------*- C++ -*----------------------------------*\
  =========                 |
  \\      /  F ield         | OpenFOAM: The Open Source CFD Toolbox
   \\    /   O peration     | Website:  https://openfoam.org
    \\  /    A nd           | Version:  8
     \\/     M anipulation  |
\*---------------------------------------------------------------------------*/
FoamFile
{
    version     2.0;
    format      ascii;
    class       volScalarField;
    location    "0.485";
    object      p;
}
// * * * * * * * * * * * * * * * * * * * * * * * * * * * * * * * * * * * * * //

dimensions      [0 2 -2 0 0 0 0];

internalField   nonuniform List<scalar> 
400
(
4.30206e-06
-0.00582256
-0.0129602
-0.0184125
-0.0204301
-0.0182365
-0.011772
-0.00148189
0.0118391
0.0271509
0.0432461
0.0588247
0.0725802
0.08331
0.0900544
0.0922686
0.0900276
0.0842457
0.0768826
0.0710691
0.00578328
-0.000215794
-0.00580164
-0.00954032
-0.0105968
-0.0084307
-0.00296806
0.0054759
0.0163046
0.0287134
0.0417514
0.0543876
0.0655881
0.0744116
0.080122
0.0823175
0.0810791
0.0770567
0.0712761
0.0653199
0.0133375
0.00503592
-0.000993146
-0.00442101
-0.00527089
-0.00326198
0.00160418
0.00902929
0.0185037
0.0293509
0.040767
0.0518713
0.0617702
0.0696381
0.0748088
0.0768799
0.0758434
0.0720878
0.0658074
0.0575375
0.0201416
0.00869807
0.00122792
-0.00266652
-0.00372016
-0.00188342
0.00273309
0.00978628
0.018782
0.0290966
0.0399936
0.0506557
0.0602347
0.0679178
0.073005
0.0750033
0.0737676
0.069458
0.0616049
0.0501046
0.0245041
0.00977519
0.000591806
-0.00398494
-0.00530031
-0.00350546
0.00117656
0.00833631
0.0174636
0.0279507
0.0390866
0.0500715
0.0600506
0.0681668
0.0736282
0.0757996
0.0743708
0.0692917
0.0595275
0.0445392
0.0251799
0.00715211
-0.00379996
-0.00905519
-0.0105102
-0.00849806
-0.00335493
0.00443127
0.0143151
0.0256807
0.0378154
0.0499049
0.0610498
0.0703049
0.0767365
0.0795188
0.0781408
0.0723355
0.0605412
0.0418921
0.0210955
-0.000260271
-0.0129324
-0.0187072
-0.0200278
-0.0174119
-0.0113164
-0.00231773
0.00899236
0.0219781
0.0359114
0.0499461
0.0631139
0.074347
0.0825237
0.0865714
0.0857227
0.0794491
0.0656224
0.0430738
0.0111448
-0.0136161
-0.0278729
-0.033852
-0.0346013
-0.0308554
-0.0232108
-0.0123431
0.00110694
0.016486
0.0330546
0.0499356
0.0660852
0.0802917
0.0912026
0.097432
0.0978723
0.0916381
0.0758984
0.0491186
-0.00596507
-0.0342643
-0.0498678
-0.0555463
-0.0550878
-0.0495123
-0.0395913
-0.0261111
-0.00975488
0.00882523
0.0289032
0.0495957
0.0697996
0.0881566
0.103049
0.112703
0.115553
0.110194
0.0928364
0.0614136
-0.0318549
-0.0638739
-0.0804146
-0.0850048
-0.0824177
-0.0740759
-0.0609785
-0.0440343
-0.0239492
-0.00133454
0.023148
0.0486634
0.0740979
0.0979745
0.118398
0.133128
0.139991
0.13682
0.118443
0.081936
-0.0686649
-0.104601
-0.121342
-0.123588
-0.117513
-0.105124
-0.0877157
-0.066323
-0.0416345
-0.0141531
0.0156081
0.0469557
0.0788583
0.109796
0.137626
0.159588
0.172729
0.17378
0.155523
0.113573
-0.1194
-0.159354
-0.174912
-0.172754
-0.161145
-0.142926
-0.119756
-0.0927742
-0.0625747
-0.029445
0.00637578
0.0444762
0.0840578
0.123706
0.161139
0.193088
0.21567
0.224079
0.208053
0.160635
-0.188625
-0.232239
-0.243936
-0.233945
-0.213692
-0.187152
-0.156369
-0.122498
-0.0858949
-0.0464692
-0.00401153
0.0415417
0.089845
0.139832
0.189322
0.234692
0.271077
0.291667
0.281745
0.229778
-0.283971
-0.329301
-0.331828
-0.308277
-0.274705
-0.236437
-0.195761
-0.153607
-0.109837
-0.0637418
-0.0144345
0.0388667
0.0965575
0.15828
0.222377
0.285291
0.3414
0.381578
0.384917
0.331837
-0.419315
-0.459667
-0.442347
-0.395789
-0.342126
-0.287736
-0.234612
-0.182926
-0.131606
-0.0789811
-0.0232102
0.0374791
0.104557
0.178841
0.259865
0.344974
0.428619
0.499703
0.529678
0.485394
-0.620528
-0.63674
-0.578673
-0.494189
-0.411237
-0.335654
-0.267776
-0.205974
-0.147532
-0.0893787
-0.0284218
0.0383526
0.113811
0.200476
0.299979
0.412029
0.533033
0.651779
0.732775
0.722399
-0.93592
-0.878511
-0.741737
-0.597944
-0.474389
-0.372655
-0.288864
-0.217758
-0.153949
-0.0924594
-0.0287128
0.0417003
0.123268
0.220723
0.33893
0.482159
0.652001
0.841346
1.01527
1.09751
-1.47642
-1.20663
-0.920499
-0.691384
-0.517301
-0.38754
-0.290057
-0.213333
-0.148119
-0.0872109
-0.024573
0.0454621
0.128942
0.233076
0.367108
0.542682
0.771297
1.05932
1.40329
1.73015
-2.53964
-1.63054
-1.04443
-0.710955
-0.495746
-0.352089
-0.254526
-0.183579
-0.126165
-0.0735906
-0.0192644
0.0427915
0.119217
0.218787
0.354817
0.547988
0.826397
1.23658
1.91168
2.9242
-4.36666
-2.04463
-0.973538
-0.563177
-0.357842
-0.240143
-0.170115
-0.123779
-0.0874769
-0.0535057
-0.0166498
0.0276653
0.0846121
0.161734
0.272416
0.442104
0.718223
1.22571
2.41104
4.84854
)
;

boundaryField
{
    movingWall
    {
        type            zeroGradient;
    }
    fixedWalls
    {
        type            zeroGradient;
    }
    frontAndBack
    {
        type            empty;
    }
}


// ************************************************************************* //
