/*--------------------------------*- C++ -*----------------------------------*\
  =========                 |
  \\      /  F ield         | OpenFOAM: The Open Source CFD Toolbox
   \\    /   O peration     | Website:  https://openfoam.org
    \\  /    A nd           | Version:  8
     \\/     M anipulation  |
\*---------------------------------------------------------------------------*/
FoamFile
{
    version     2.0;
    format      ascii;
    class       volVectorField;
    location    "0.485";
    object      U;
}
// * * * * * * * * * * * * * * * * * * * * * * * * * * * * * * * * * * * * * //

dimensions      [0 1 -1 0 0 0 0];

internalField   nonuniform List<vector> 
400
(
(0.000253405 -0.000250456 0)
(0.000141205 0.000111424 0)
(-0.00117704 0.000564621 0)
(-0.00348127 0.000885015 0)
(-0.00637778 0.00104575 0)
(-0.00946992 0.00106179 0)
(-0.0124036 0.000957886 0)
(-0.0148857 0.00076047 0)
(-0.0166904 0.000494666 0)
(-0.0176592 0.000184568 0)
(-0.0177031 -0.000145278 0)
(-0.016806 -0.000468392 0)
(-0.0150309 -0.000755453 0)
(-0.0125257 -0.000974312 0)
(-0.00952685 -0.00109124 0)
(-0.00635527 -0.00107406 0)
(-0.00340078 -0.00089816 0)
(-0.00108646 -0.000556411 0)
(0.000196446 -9.03659e-05 0)
(0.000267875 0.000262399 0)
(-7.74742e-05 -0.000169395 0)
(-0.00161165 0.0016449 0)
(-0.00569324 0.00361749 0)
(-0.0117195 0.0050351 0)
(-0.0188935 0.00574356 0)
(-0.0264024 0.00576054 0)
(-0.0334713 0.00517198 0)
(-0.0394294 0.00409276 0)
(-0.0437469 0.00264779 0)
(-0.0460502 0.000966976 0)
(-0.0461325 -0.000813289 0)
(-0.0439642 -0.00254725 0)
(-0.0397037 -0.00407892 0)
(-0.0337048 -0.00524545 0)
(-0.026515 -0.00588693 0)
(-0.0188557 -0.00586521 0)
(-0.0115673 -0.00509505 0)
(-0.0055136 -0.00358961 0)
(-0.00149316 -0.00155921 0)
(-4.25779e-05 0.00022748 0)
(-0.000528644 0.00109168 0)
(-0.00371164 0.00573663 0)
(-0.0105896 0.0102251 0)
(-0.0199931 0.0134085 0)
(-0.0307669 0.0149472 0)
(-0.0418251 0.0148398 0)
(-0.0521235 0.0132566 0)
(-0.0607485 0.0104569 0)
(-0.0669742 0.0067424 0)
(-0.0702877 0.00243898 0)
(-0.0704056 -0.00210673 0)
(-0.067289 -0.00652595 0)
(-0.0611566 -0.0104299 0)
(-0.052492 -0.013422 0)
(-0.0420398 -0.0151245 0)
(-0.0307759 -0.0152266 0)
(-0.0198303 -0.0135568 0)
(-0.0103642 -0.0101795 0)
(-0.00354872 -0.00555137 0)
(-0.000476871 -0.000948868 0)
(-0.000928289 0.00348006 0)
(-0.00569188 0.0122214 0)
(-0.0153028 0.0199229 0)
(-0.0279187 0.0251994 0)
(-0.0419883 0.0275987 0)
(-0.0561829 0.0271392 0)
(-0.0692569 0.0241105 0)
(-0.0801312 0.018955 0)
(-0.0879543 0.0121963 0)
(-0.0921252 0.00440526 0)
(-0.0923097 -0.00380834 0)
(-0.0884561 -0.0117975 0)
(-0.0808103 -0.0188835 0)
(-0.0699275 -0.0243779 0)
(-0.0566728 -0.0276294 0)
(-0.0421974 -0.0281035 0)
(-0.0278583 -0.0254992 0)
(-0.0150946 -0.0198928 0)
(-0.00550536 -0.0119283 0)
(-0.000861651 -0.00322502 0)
(-0.00127901 0.00687822 0)
(-0.00753652 0.0209549 0)
(-0.019806 0.0325123 0)
(-0.0355371 0.0401056 0)
(-0.0527468 0.0432929 0)
(-0.069863 0.0421953 0)
(-0.0854689 0.0372798 0)
(-0.0983669 0.0292147 0)
(-0.107627 0.0187782 0)
(-0.112595 0.00681396 0)
(-0.112904 -0.00578093 0)
(-0.108481 -0.018056 0)
(-0.0995682 -0.0290133 0)
(-0.0867443 -0.0376351 0)
(-0.0709398 -0.0429475 0)
(-0.0534333 -0.0441313 0)
(-0.0357866 -0.0406809 0)
(-0.0197362 -0.0325942 0)
(-0.00737098 -0.0205916 0)
(-0.00120374 -0.00649846 0)
(-0.00160761 0.0112163 0)
(-0.00931851 0.0318763 0)
(-0.0242105 0.0479544 0)
(-0.0430048 0.058075 0)
(-0.0632602 0.0619403 0)
(-0.0831571 0.0598842 0)
(-0.101129 0.0526309 0)
(-0.115898 0.0411278 0)
(-0.126494 0.0264382 0)
(-0.132244 0.00969314 0)
(-0.132756 -0.00791701 0)
(-0.127929 -0.0251337 0)
(-0.117972 -0.0406273 0)
(-0.103438 -0.0530221 0)
(-0.0852726 -0.0609692 0)
(-0.0648383 -0.063283 0)
(-0.0438872 -0.0591446 0)
(-0.0244786 -0.0483464 0)
(-0.00925468 -0.0315589 0)
(-0.00153781 -0.010729 0)
(-0.00194012 0.0164778 0)
(-0.0111216 0.0449762 0)
(-0.0286513 0.0662361 0)
(-0.0504815 0.0790627 0)
(-0.0736874 0.0834498 0)
(-0.0962069 0.0800775 0)
(-0.116356 0.0700272 0)
(-0.132819 0.054587 0)
(-0.144636 0.0351329 0)
(-0.151146 0.0130849 0)
(-0.151954 -0.0100873 0)
(-0.14692 -0.0328343 0)
(-0.136185 -0.0535021 0)
(-0.120226 -0.0703399 0)
(-0.0999353 -0.0815685 0)
(-0.0767034 -0.0855359 0)
(-0.0524415 -0.0809666 0)
(-0.0295456 -0.0672793 0)
(-0.0112839 -0.044941 0)
(-0.00190013 -0.0159521 0)
(-0.00230008 0.0226957 0)
(-0.0130253 0.0603029 0)
(-0.0332514 0.0873664 0)
(-0.0580807 0.103 0)
(-0.084076 0.107669 0)
(-0.108955 0.102565 0)
(-0.13097 0.089247 0)
(-0.148837 0.069413 0)
(-0.161669 0.0447729 0)
(-0.168871 0.0170201 0)
(-0.170066 -0.0121344 0)
(-0.165074 -0.040895 0)
(-0.153932 -0.0673169 0)
(-0.136972 -0.0892763 0)
(-0.114944 -0.104515 0)
(-0.0891771 -0.1108 0)
(-0.0616715 -0.106215 0)
(-0.0351488 -0.0895818 0)
(-0.013586 -0.0609511 0)
(-0.00232637 -0.0222781 0)
(-0.00271166 0.0299477 0)
(-0.0151081 0.0779584 0)
(-0.0381149 0.111359 0)
(-0.0658487 0.129753 0)
(-0.0943272 0.13432 0)
(-0.1211 0.126977 0)
(-0.144444 0.109905 0)
(-0.163214 0.0852837 0)
(-0.176688 0.0551682 0)
(-0.184407 0.0214871 0)
(-0.186059 -0.0138755 0)
(-0.181423 -0.0489583 0)
(-0.170396 -0.0815958 0)
(-0.153082 -0.109327 0)
(-0.129971 -0.129384 0)
(-0.102186 -0.138831 0)
(-0.0716898 -0.13489 0)
(-0.0414671 -0.115472 0)
(-0.0162881 -0.0798969 0)
(-0.00285471 -0.0298902 0)
(-0.00320765 0.0383602 0)
(-0.0174662 0.0980909 0)
(-0.043341 0.138191 0)
(-0.0737565 0.159048 0)
(-0.10416 0.162904 0)
(-0.132032 0.152676 0)
(-0.155826 0.131344 0)
(-0.174679 0.101642 0)
(-0.188168 0.0659587 0)
(-0.196068 0.0263897 0)
(-0.198186 -0.0151134 0)
(-0.194284 -0.0565469 0)
(-0.184082 -0.0956442 0)
(-0.167367 -0.129692 0)
(-0.144215 -0.155426 0)
(-0.115339 -0.1691 0)
(-0.0824459 -0.166805 0)
(-0.0486361 -0.145126 0)
(-0.0195287 -0.102161 0)
(-0.00353357 -0.0390478 0)
(-0.00384394 0.0481291 0)
(-0.0202461 0.120895 0)
(-0.0490464 0.167754 0)
(-0.0816861 0.190369 0)
(-0.113053 0.19256 0)
(-0.140746 0.178617 0)
(-0.163621 0.152515 0)
(-0.181309 0.117594 0)
(-0.193846 0.076536 0)
(-0.20136 0.0314946 0)
(-0.203856 -0.0156594 0)
(-0.201109 -0.0630518 0)
(-0.192648 -0.108493 0)
(-0.177857 -0.149173 0)
(-0.156224 -0.181418 0)
(-0.127779 -0.200609 0)
(-0.0936441 -0.201427 0)
(-0.056733 -0.178576 0)
(-0.0234798 -0.128174 0)
(-0.00443553 -0.0501049 0)
(-0.00472534 0.0595716 0)
(-0.0236945 0.146618 0)
(-0.0553826 0.199758 0)
(-0.0893759 0.222793 0)
(-0.120121 0.221894 0)
(-0.145675 0.20319 0)
(-0.16563 0.171842 0)
(-0.18037 0.131812 0)
(-0.19058 0.085971 0)
(-0.196862 0.0363768 0)
(-0.199501 -0.015371 0)
(-0.198335 -0.0677442 0)
(-0.192717 -0.118869 0)
(-0.181573 -0.16608 0)
(-0.163645 -0.205491 0)
(-0.137966 -0.231663 0)
(-0.104596 -0.237627 0)
(-0.0657334 -0.215527 0)
(-0.0283776 -0.158369 0)
(-0.00568207 -0.0635526 0)
(-0.00605154 0.0732286 0)
(-0.0282256 0.175564 0)
(-0.0625083 0.233572 0)
(-0.0962562 0.254748 0)
(-0.123856 0.248733 0)
(-0.144397 0.224029 0)
(-0.158669 0.187109 0)
(-0.168105 0.142464 0)
(-0.174199 0.0929699 0)
(-0.178117 0.0403795 0)
(-0.180483 -0.0141988 0)
(-0.181264 -0.0698222 0)
(-0.179694 -0.125212 0)
(-0.174269 -0.178182 0)
(-0.162894 -0.224975 0)
(-0.143316 -0.25959 0)
(-0.113937 -0.273331 0)
(-0.0753928 -0.255068 0)
(-0.0345562 -0.193091 0)
(-0.00748627 -0.0801046 0)
(-0.00819202 0.0900465 0)
(-0.0344825 0.208021 0)
(-0.0704116 0.267885 0)
(-0.101022 0.283608 0)
(-0.121573 0.269813 0)
(-0.133106 0.237843 0)
(-0.13816 0.195406 0)
(-0.13946 0.147234 0)
(-0.139364 0.0959102 0)
(-0.139592 0.0426199 0)
(-0.141107 -0.0122332 0)
(-0.144052 -0.068508 0)
(-0.147666 -0.125795 0)
(-0.150168 -0.182771 0)
(-0.148719 -0.236326 0)
(-0.139642 -0.280449 0)
(-0.119094 -0.305027 0)
(-0.0849356 -0.29516 0)
(-0.0424403 -0.232378 0)
(-0.010216 -0.100837 0)
(-0.0117674 0.111636 0)
(-0.0432594 0.243962 0)
(-0.0782965 0.300035 0)
(-0.100627 0.305094 0)
(-0.108349 0.280462 0)
(-0.105728 0.240384 0)
(-0.0975259 0.193283 0)
(-0.0877669 0.14355 0)
(-0.0794967 0.0930366 0)
(-0.0747809 0.0420953 0)
(-0.0747986 -0.00972901 0)
(-0.0798866 -0.0632119 0)
(-0.0894591 -0.118991 0)
(-0.101785 -0.176959 0)
(-0.113684 -0.235286 0)
(-0.120303 -0.288883 0)
(-0.115262 -0.327197 0)
(-0.0922658 -0.331795 0)
(-0.0523154 -0.275404 0)
(-0.0144303 -0.127347 0)
(-0.0175493 0.140659 0)
(-0.0547643 0.282146 0)
(-0.0827855 0.324719 0)
(-0.088079 0.312474 0)
(-0.0751063 0.274457 0)
(-0.0525881 0.226772 0)
(-0.0274549 0.177289 0)
(-0.00451037 0.129136 0)
(0.0131034 0.0829134 0)
(0.0234448 0.0379471 0)
(0.0254033 -0.00707368 0)
(0.018512 -0.0537591 0)
(0.00298399 -0.103753 0)
(-0.0199933 -0.158321 0)
(-0.0476829 -0.217503 0)
(-0.0749826 -0.278362 0)
(-0.0935452 -0.331792 0)
(-0.092063 -0.357683 0)
(-0.0632802 -0.319295 0)
(-0.0206335 -0.161974 0)
(-0.0254497 0.181711 0)
(-0.0657743 0.317771 0)
(-0.0733324 0.331363 0)
(-0.0480758 0.295401 0)
(-0.00557633 0.244213 0)
(0.0412212 0.192381 0)
(0.0846564 0.145048 0)
(0.12054 0.102972 0)
(0.146706 0.0651383 0)
(0.162052 0.0298916 0)
(0.165946 -0.00467172 0)
(0.15794 -0.0406289 0)
(0.137736 -0.0802472 0)
(0.105443 -0.125919 0)
(0.0622648 -0.179727 0)
(0.0118077 -0.242021 0)
(-0.0378286 -0.307878 0)
(-0.0716787 -0.360144 0)
(-0.0700553 -0.356609 0)
(-0.0279122 -0.208375 0)
(-0.029649 0.239176 0)
(-0.0608412 0.335768 0)
(-0.021942 0.300503 0)
(0.0505427 0.240128 0)
(0.127574 0.182949 0)
(0.197009 0.13539 0)
(0.254339 0.0973995 0)
(0.298253 0.0668515 0)
(0.328828 0.0413556 0)
(0.34647 0.0187787 0)
(0.351379 -0.00279426 0)
(0.343306 -0.0252654 0)
(0.321471 -0.0507881 0)
(0.284645 -0.0820485 0)
(0.231574 -0.122446 0)
(0.162182 -0.17567 0)
(0.0799015 -0.243432 0)
(-0.00318941 -0.319136 0)
(-0.0546694 -0.368612 0)
(-0.0284594 -0.267618 0)
(0.00808309 0.281861 0)
(0.0197831 0.294972 0)
(0.139066 0.210973 0)
(0.26446 0.143477 0)
(0.364368 0.0971862 0)
(0.440365 0.0657777 0)
(0.496744 0.0442377 0)
(0.536875 0.0288861 0)
(0.563448 0.017199 0)
(0.578307 0.0074848 0)
(0.582382 -0.00149417 0)
(0.575697 -0.0108453 0)
(0.55731 -0.0218472 0)
(0.525136 -0.0363351 0)
(0.475778 -0.0572597 0)
(0.404538 -0.0893842 0)
(0.305177 -0.139741 0)
(0.173417 -0.216386 0)
(0.0411721 -0.311655 0)
(0.0184302 -0.299995 0)
(0.299604 0.146091 0)
(0.396272 0.127503 0)
(0.55742 0.0760895 0)
(0.674487 0.0437233 0)
(0.743889 0.0255721 0)
(0.787154 0.0152422 0)
(0.815486 0.00921237 0)
(0.833956 0.00550944 0)
(0.845386 0.00302719 0)
(0.851372 0.00114935 0)
(0.852667 -0.000499397 0)
(0.849383 -0.00221509 0)
(0.841 -0.00433859 0)
(0.826141 -0.00742411 0)
(0.802078 -0.0125323 0)
(0.763621 -0.0217729 0)
(0.699108 -0.0392829 0)
(0.583952 -0.0726601 0)
(0.415827 -0.127868 0)
(0.308819 -0.149468 0)
)
;

boundaryField
{
    movingWall
    {
        type            fixedValue;
        value           uniform (1 0 0);
    }
    fixedWalls
    {
        type            noSlip;
    }
    frontAndBack
    {
        type            empty;
    }
}


// ************************************************************************* //
