/*--------------------------------*- C++ -*----------------------------------*\
  =========                 |
  \\      /  F ield         | OpenFOAM: The Open Source CFD Toolbox
   \\    /   O peration     | Website:  https://openfoam.org
    \\  /    A nd           | Version:  8
     \\/     M anipulation  |
\*---------------------------------------------------------------------------*/
FoamFile
{
    version     2.0;
    format      ascii;
    class       surfaceScalarField;
    location    "2.5";
    object      phi;
}
// * * * * * * * * * * * * * * * * * * * * * * * * * * * * * * * * * * * * * //

dimensions      [0 3 -1 0 0 0 0];

internalField   nonuniform List<scalar> 
208
(
-1.92523e-06
1.92523e-06
-3.91824e-06
1.99301e-06
-5.57265e-06
1.65441e-06
-6.73081e-06
1.15817e-06
-7.2961e-06
5.6529e-07
-2.43077e-08
-7.2718e-06
-2.35579e-06
4.28101e-06
-4.76284e-06
4.40007e-06
-6.76645e-06
3.65802e-06
-8.19978e-06
2.5915e-06
-8.96745e-06
1.33296e-06
-1.52943e-07
-8.83882e-06
-2.74901e-06
7.03003e-06
-5.51743e-06
7.16848e-06
-7.8111e-06
5.95169e-06
-9.41239e-06
4.19278e-06
-1.02171e-05
2.13766e-06
-1.72871e-07
-1.01972e-05
-3.45113e-06
1.04812e-05
-6.76831e-06
1.04857e-05
-9.54956e-06
8.73294e-06
-1.1567e-05
6.21024e-06
-1.27496e-05
3.32026e-06
-1.8548e-07
-1.2737e-05
-4.20674e-06
1.46879e-05
-8.38148e-06
1.46604e-05
-1.1841e-05
1.21924e-05
-1.42328e-05
8.60205e-06
-1.5696e-05
4.78346e-06
5.38583e-07
-1.642e-05
-6.71902e-06
2.14069e-05
-1.14259e-05
1.93672e-05
-1.56068e-05
1.63733e-05
-1.87293e-05
1.17246e-05
-2.09662e-05
7.02036e-06
1.39707e-06
-2.18247e-05
-6.60879e-06
2.80157e-05
-1.3608e-05
2.63665e-05
-1.88586e-05
2.16239e-05
-2.22982e-05
1.51642e-05
-2.48594e-05
9.58153e-06
3.43955e-06
-2.69018e-05
-1.64952e-05
4.4511e-05
-2.15308e-05
3.1402e-05
-2.64677e-05
2.65608e-05
-3.02222e-05
1.89187e-05
-3.36787e-05
1.30381e-05
6.68552e-06
-3.69247e-05
-3.42402e-05
7.87512e-05
-3.43934e-05
3.15552e-05
-3.30097e-05
2.51771e-05
-2.95229e-05
1.54318e-05
-2.60273e-05
9.54257e-06
4.07016e-06
-2.3412e-05
7.87512e-05
0.000110306
0.000135483
0.000150915
0.000160458
0.000164528
-5.49644e-06
6.85329e-07
-2.46068e-06
-3.68215e-06
-1.44358e-06
-3.70714e-07
-1.8222e-06
-3.02103e-06
1.16108e-06
-3.49252e-06
1.67032e-06
-6.84705e-06
-1.30644e-06
-4.74452e-06
-3.54611e-06
-2.4434e-06
-5.32215e-06
-5.93592e-06
-8.88039e-06
-2.6232e-06
-6.61406e-06
-5.81244e-06
-3.61408e-06
-8.32214e-06
-9.55e-06
-1.15638e-05
-3.79639e-06
-9.03144e-06
-8.34482e-06
-5.38734e-06
-1.19662e-05
-1.49373e-05
-1.5845e-05
-4.37145e-06
-1.29358e-05
-1.1254e-05
-8.68526e-06
-1.62167e-05
-2.36226e-05
-2.17564e-05
-4.4397e-06
-1.90158e-05
-1.39947e-05
-1.42667e-05
-2.09658e-05
-3.78893e-05
-2.95465e-05
-1.79504e-06
-2.8091e-05
-1.54502e-05
-2.52992e-05
-2.37576e-05
-6.31885e-05
-4.0559e-05
1.83926e-06
-4.09975e-05
-1.50117e-05
-3.40587e-05
-3.06964e-05
-9.72472e-05
-2.02817e-05
-1.291e-06
-1.85824e-05
-1.67111e-05
-1.00167e-05
-3.92621e-05
-0.000107264
0.000163237
0.000146526
0.000107264
-2.19006e-07
2.19006e-07
-2.86628e-07
6.76219e-08
-1.79937e-07
-1.0669e-07
-1.79937e-07
-3.0374e-07
5.22746e-07
-3.74357e-07
1.38238e-07
-2.28498e-07
-2.52549e-07
-4.08435e-07
-7.62831e-07
1.28558e-06
-9.16466e-07
2.91872e-07
-5.40019e-07
-6.28996e-07
-9.48454e-07
-1.17511e-06
-1.25395e-06
-7.21863e-07
)
;

boundaryField
{
    movingWall
    {
        type            calculated;
        value           uniform 0;
    }
    fixedWalls
    {
        type            calculated;
        value           uniform 0;
    }
    frontAndBack
    {
        type            empty;
        value           nonuniform List<scalar> 0();
    }
}


// ************************************************************************* //
