/*--------------------------------*- C++ -*----------------------------------*\
  =========                 |
  \\      /  F ield         | OpenFOAM: The Open Source CFD Toolbox
   \\    /   O peration     | Website:  https://openfoam.org
    \\  /    A nd           | Version:  8
     \\/     M anipulation  |
\*---------------------------------------------------------------------------*/
FoamFile
{
    version     2.0;
    format      ascii;
    class       volScalarField;
    location    "0.036";
    object      T;
}
// * * * * * * * * * * * * * * * * * * * * * * * * * * * * * * * * * * * * * //

dimensions      [0 0 0 1 0 0 0];

internalField   nonuniform List<scalar> 
2500
(
49.6857
6.76207
-3.44963
-3.02741
-1.37141
-0.463533
-0.12833
-0.0302723
-0.0061967
-0.00110534
-0.000169671
-2.1359e-05
-1.8303e-06
2.97624e-08
5.92947e-08
1.7387e-08
3.75358e-09
6.95277e-10
1.16384e-10
1.80465e-11
2.62909e-12
3.63142e-13
4.78564e-14
6.04498e-15
7.34428e-16
8.60534e-17
9.74434e-18
1.06805e-18
1.13445e-19
1.16858e-20
1.16776e-21
1.13189e-22
1.0634e-23
9.66887e-25
8.48575e-26
7.15684e-27
5.75735e-28
4.35923e-29
3.02595e-30
1.80886e-31
7.45107e-33
-1.42847e-34
-8.46345e-35
-1.36871e-35
-1.72275e-36
-1.92805e-37
-2.00823e-38
-1.98853e-39
-1.89504e-40
-1.61626e-41
93.0743
49.3313
18.0353
4.51515
0.571592
-0.122806
-0.110361
-0.044962
-0.0138644
-0.00360523
-0.000826958
-0.000171489
-3.2656e-05
-5.77251e-06
-9.54749e-07
-1.48644e-07
-2.1885e-08
-3.05787e-09
-4.06527e-10
-5.15114e-11
-6.22594e-12
-7.17578e-13
-7.87307e-14
-8.19103e-15
-8.02002e-16
-7.28303e-17
-5.9479e-18
-4.03426e-19
-1.61408e-20
1.19422e-21
4.23714e-22
7.34131e-23
1.03302e-23
1.30402e-24
1.53346e-25
1.71128e-26
1.83162e-27
1.89281e-28
1.8971e-29
1.84994e-30
1.75921e-31
1.63421e-32
1.48485e-33
1.32082e-34
1.15096e-35
9.82867e-37
8.22595e-38
6.74612e-39
5.42061e-40
3.97809e-41
105.779
81.9958
45.5014
19.4595
6.7566
1.97118
0.493986
0.107688
0.0204872
0.00336724
0.000460035
4.55345e-05
7.98895e-07
-1.08063e-06
-3.64742e-07
-8.45443e-08
-1.65093e-08
-2.89009e-09
-4.66565e-10
-7.05628e-11
-1.0098e-11
-1.37679e-12
-1.79743e-13
-2.25549e-14
-2.72851e-15
-3.18956e-16
-3.6097e-17
-3.96085e-18
-4.21865e-19
-4.36491e-20
-4.38933e-21
-4.2903e-22
-4.0748e-23
-3.75735e-24
-3.35831e-25
-2.90177e-26
-2.41328e-27
-1.91774e-28
-1.43759e-29
-9.91464e-31
-5.9341e-32
-2.52606e-33
2.64712e-35
2.4352e-35
4.01658e-36
5.06543e-37
5.65485e-38
5.86619e-39
5.78599e-40
5.06303e-41
107.66
98.2822
63.7312
31.3778
12.4571
4.16071
1.20459
0.308904
0.0713063
0.0150002
0.00290311
0.000520758
8.70714e-05
1.36267e-05
2.00152e-06
2.76245e-07
3.57981e-08
4.34021e-09
4.88272e-10
5.00807e-11
4.4972e-12
3.13758e-13
7.53573e-15
-2.76364e-15
-7.43182e-16
-1.31633e-16
-1.97637e-17
-2.69433e-18
-3.4342e-19
-4.15611e-20
-4.82013e-21
-5.38985e-22
-5.83554e-23
-6.13646e-24
-6.28203e-25
-6.27206e-26
-6.11583e-27
-5.83052e-28
-5.43907e-29
-4.96783e-30
-4.44424e-31
-3.89482e-32
-3.34351e-33
-2.81054e-34
-2.31181e-35
-1.85863e-36
-1.45798e-37
-1.11293e-38
-8.23526e-40
-5.51256e-41
107.267
104.483
72.3641
37.7752
15.819
5.55794
1.691
0.455858
0.110773
0.0245876
0.00503756
0.000960744
0.000171742
2.89405e-05
4.6193e-06
7.01178e-07
1.01563e-07
1.40778e-08
1.87179e-09
2.39192e-10
2.94221e-11
3.48756e-12
3.98647e-13
4.39489e-14
4.67091e-15
4.77954e-16
4.69681e-17
4.41282e-18
3.93311e-19
3.27827e-20
2.482e-21
1.58771e-22
6.44426e-24
-2.97668e-25
-1.19144e-25
-1.99632e-26
-2.68084e-27
-3.22401e-28
-3.61569e-29
-3.85584e-30
-3.95317e-31
-3.92311e-32
-3.78578e-33
-3.56378e-34
-3.28027e-35
-2.9574e-36
-2.61511e-37
-2.2703e-38
-1.93747e-39
-1.51027e-40
106.86
106.41
75.6169
40.4403
17.3271
6.22447
1.93598
0.533641
0.132658
0.0301446
0.00632865
0.00123817
0.000227348
3.94104e-05
6.48191e-06
1.01581e-06
1.52239e-07
2.18887e-08
3.02754e-09
4.03816e-10
5.20498e-11
6.49536e-12
7.86038e-13
9.23763e-14
1.05558e-14
1.17409e-15
1.27228e-16
1.34416e-17
1.38534e-18
1.39338e-19
1.36794e-20
1.3108e-21
1.22557e-22
1.11729e-23
9.91993e-25
8.56154e-26
7.16175e-27
5.77965e-28
4.46599e-29
3.26096e-30
2.19317e-31
1.27968e-32
5.269e-34
-6.78881e-36
-5.14608e-36
-8.28369e-37
-1.02748e-37
-1.13169e-38
-1.16153e-39
-1.04498e-40
106.681
106.918
76.6478
41.362
17.8828
6.48333
2.03564
0.566647
0.142318
0.0326911
0.00694191
0.00137459
0.000255631
4.49141e-05
7.49324e-06
1.19219e-06
1.81559e-07
2.65518e-08
3.73938e-09
5.08414e-10
6.68814e-11
8.52932e-12
1.05635e-12
1.27251e-13
1.4931e-14
1.7086e-15
1.90902e-16
2.08468e-17
2.22705e-18
2.32936e-19
2.38715e-20
2.39847e-21
2.36402e-22
2.28683e-23
2.172e-24
2.02612e-25
1.85672e-26
1.6717e-27
1.47879e-28
1.28511e-29
1.09682e-30
9.18936e-32
7.5521e-33
6.08147e-34
4.79091e-35
3.68375e-36
2.7551e-37
1.99375e-38
1.38447e-39
8.58213e-41
106.622
107.033
76.932
41.6373
18.0585
6.56912
2.07006
0.57849
0.145909
0.0336699
0.00718528
0.00143043
0.000267557
4.73036e-05
7.94501e-06
1.27321e-06
1.95403e-07
2.88141e-08
4.09411e-09
5.6194e-10
7.46735e-11
9.62624e-12
1.20597e-12
1.47063e-13
1.74818e-14
2.02842e-15
2.30003e-16
2.55144e-17
2.77166e-18
2.95114e-19
3.08241e-20
3.1606e-21
3.18363e-22
3.15226e-23
3.06983e-24
2.94186e-25
2.77555e-26
2.57915e-27
2.36136e-28
2.13084e-29
1.89566e-30
1.663e-31
1.43887e-32
1.22803e-33
1.0339e-34
8.58693e-36
7.03481e-37
5.684e-38
4.53008e-39
3.31846e-40
106.605
107.056
77.0017
41.7102
18.1076
6.59412
2.08048
0.582203
0.147072
0.0339969
0.00726902
0.00145019
0.000271897
4.81965e-05
8.11829e-06
1.30509e-06
2.00988e-07
2.97495e-08
4.24437e-09
5.85161e-10
7.81349e-11
1.0125e-11
1.2756e-12
1.56497e-13
1.87245e-14
2.18781e-15
2.49936e-16
2.79479e-17
3.06205e-18
3.2902e-19
3.47015e-20
3.59527e-21
3.66172e-22
3.66859e-23
3.61776e-24
3.5136e-25
3.36251e-26
3.17237e-27
2.95192e-28
2.71022e-29
2.45609e-30
2.19774e-31
1.94237e-32
1.69604e-33
1.46351e-34
1.24828e-35
1.05261e-36
8.77673e-38
7.24045e-39
5.49541e-40
106.602
107.06
77.0172
41.7276
18.1199
6.60067
2.08331
0.583244
0.147408
0.0340941
0.00729463
0.0014564
0.000273295
4.84915e-05
8.17695e-06
1.31614e-06
2.0297e-07
3.00891e-08
4.30017e-09
5.93978e-10
7.94781e-11
1.03228e-11
1.30381e-12
1.604e-13
1.92495e-14
2.25655e-15
2.5871e-16
2.90413e-17
3.1952e-18
3.44883e-19
3.65524e-20
3.80695e-21
3.89924e-22
3.93027e-23
3.90102e-24
3.8151e-25
3.67825e-26
3.49789e-27
3.2825e-28
3.04109e-29
2.78263e-30
2.51564e-31
2.24781e-32
1.9858e-33
1.73502e-34
1.49964e-35
1.28262e-36
1.08577e-37
9.10358e-39
7.02238e-40
106.601
107.06
77.0203
41.7314
18.1227
6.60223
2.08401
0.583509
0.147497
0.0341203
0.00730171
0.00145816
0.000273702
4.85793e-05
8.19482e-06
1.31958e-06
2.03601e-07
3.01996e-08
4.31873e-09
5.96972e-10
7.99437e-11
1.03928e-11
1.31398e-12
1.61837e-13
1.94466e-14
2.28286e-15
2.62134e-16
2.9476e-17
3.24915e-18
3.51431e-19
3.73307e-20
3.89762e-21
4.00286e-22
4.04652e-23
4.02918e-24
3.95399e-25
3.82635e-26
3.65334e-27
3.44323e-28
3.20486e-29
2.94717e-30
2.67871e-31
2.40733e-32
2.13986e-33
1.88198e-34
1.63817e-35
1.41169e-36
1.20468e-37
1.01878e-38
7.92627e-40
106.601
107.06
77.0209
41.7322
18.1233
6.60257
2.08417
0.583571
0.147518
0.0341268
0.00730351
0.00145862
0.00027381
4.86032e-05
8.19979e-06
1.32056e-06
2.03785e-07
3.02324e-08
4.32434e-09
5.97895e-10
8.00902e-11
1.04152e-11
1.31731e-12
1.62315e-13
1.95135e-14
2.29195e-15
2.63339e-16
2.96318e-17
3.26882e-18
3.53862e-19
3.76247e-20
3.93248e-21
4.04339e-22
4.09277e-23
4.08103e-24
4.01115e-25
3.88832e-26
3.71949e-27
3.51276e-28
3.27689e-29
3.02074e-30
2.75284e-31
2.48104e-32
2.21222e-33
1.95215e-34
1.7054e-35
1.47536e-36
1.2643e-37
1.07403e-38
8.39394e-40
106.601
107.06
77.021
41.7324
18.1234
6.60264
2.0842
0.583584
0.147523
0.0341283
0.00730393
0.00145873
0.000273836
4.86092e-05
8.20107e-06
1.32082e-06
2.03834e-07
3.02413e-08
4.3259e-09
5.98158e-10
8.01326e-11
1.04218e-11
1.31831e-12
1.62462e-13
1.95343e-14
2.29483e-15
2.63726e-16
2.96828e-17
3.27538e-18
3.54686e-19
3.7726e-20
3.94469e-21
4.05781e-22
4.10951e-23
4.10009e-24
4.03249e-25
3.91184e-26
3.74499e-27
3.53999e-28
3.30554e-29
3.05046e-30
2.78325e-31
2.51174e-32
2.24283e-33
1.98228e-34
1.73471e-35
1.50354e-36
1.29108e-37
1.09923e-38
8.61029e-40
106.601
107.06
77.021
41.7324
18.1234
6.60265
2.08421
0.583587
0.147523
0.0341286
0.00730402
0.00145875
0.000273842
4.86106e-05
8.20138e-06
1.32088e-06
2.03846e-07
3.02436e-08
4.32631e-09
5.98227e-10
8.01439e-11
1.04236e-11
1.31859e-12
1.62503e-13
1.95402e-14
2.29567e-15
2.63842e-16
2.96983e-17
3.2774e-18
3.54943e-19
3.77582e-20
3.94862e-21
4.06254e-22
4.11507e-23
4.10654e-24
4.03982e-25
3.92003e-26
3.754e-27
3.54976e-28
3.31598e-29
3.06145e-30
2.79466e-31
2.52343e-32
2.25465e-33
1.99409e-34
1.74636e-35
1.5149e-36
1.30204e-37
1.10969e-38
8.70121e-40
106.601
107.06
77.021
41.7324
18.1234
6.60266
2.08421
0.583588
0.147524
0.0341287
0.00730404
0.00145876
0.000273844
4.86109e-05
8.20144e-06
1.32089e-06
2.03849e-07
3.02442e-08
4.3264e-09
5.98244e-10
8.01468e-11
1.04241e-11
1.31866e-12
1.62514e-13
1.95418e-14
2.2959e-15
2.63874e-16
2.97026e-17
3.27797e-18
3.55018e-19
3.77677e-20
3.9498e-21
4.06398e-22
4.11679e-23
4.10856e-24
4.04215e-25
3.92268e-26
3.75696e-27
3.55301e-28
3.3195e-29
3.0652e-30
2.79862e-31
2.52754e-32
2.25886e-33
1.99835e-34
1.75063e-35
1.51912e-36
1.30617e-37
1.11368e-38
8.73635e-40
106.601
107.06
77.021
41.7324
18.1234
6.60266
2.08421
0.583588
0.147524
0.0341287
0.00730405
0.00145876
0.000273844
4.8611e-05
8.20146e-06
1.3209e-06
2.03849e-07
3.02443e-08
4.32643e-09
5.98247e-10
8.01474e-11
1.04242e-11
1.31868e-12
1.62517e-13
1.95422e-14
2.29596e-15
2.63882e-16
2.97038e-17
3.27813e-18
3.55039e-19
3.77703e-20
3.95014e-21
4.06439e-22
4.11729e-23
4.10915e-24
4.04285e-25
3.92348e-26
3.75786e-27
3.55402e-28
3.3206e-29
3.0664e-30
2.79989e-31
2.52889e-32
2.26026e-33
1.99979e-34
1.75208e-35
1.52058e-36
1.30761e-37
1.11509e-38
8.74895e-40
106.601
107.06
77.021
41.7324
18.1234
6.60266
2.08421
0.583588
0.147524
0.0341287
0.00730405
0.00145876
0.000273844
4.8611e-05
8.20146e-06
1.3209e-06
2.03849e-07
3.02443e-08
4.32643e-09
5.98248e-10
8.01476e-11
1.04242e-11
1.31868e-12
1.62517e-13
1.95423e-14
2.29597e-15
2.63884e-16
2.9704e-17
3.27817e-18
3.55044e-19
3.7771e-20
3.95022e-21
4.0645e-22
4.11743e-23
4.10931e-24
4.04304e-25
3.9237e-26
3.75812e-27
3.55431e-28
3.32093e-29
3.06676e-30
2.80028e-31
2.5293e-32
2.2607e-33
2.00024e-34
1.75254e-35
1.52105e-36
1.30808e-37
1.11556e-38
8.75318e-40
106.601
107.06
77.021
41.7324
18.1234
6.60266
2.08421
0.583588
0.147524
0.0341287
0.00730405
0.00145876
0.000273844
4.8611e-05
8.20146e-06
1.3209e-06
2.03849e-07
3.02443e-08
4.32643e-09
5.98249e-10
8.01476e-11
1.04242e-11
1.31868e-12
1.62517e-13
1.95424e-14
2.29598e-15
2.63885e-16
2.97041e-17
3.27818e-18
3.55045e-19
3.77712e-20
3.95025e-21
4.06453e-22
4.11746e-23
4.10936e-24
4.04309e-25
3.92376e-26
3.75819e-27
3.55439e-28
3.32102e-29
3.06686e-30
2.80039e-31
2.52942e-32
2.26082e-33
2.00038e-34
1.75268e-35
1.52119e-36
1.30823e-37
1.11571e-38
8.75451e-40
106.601
107.06
77.021
41.7324
18.1234
6.60266
2.08421
0.583588
0.147524
0.0341287
0.00730405
0.00145876
0.000273844
4.8611e-05
8.20146e-06
1.3209e-06
2.0385e-07
3.02443e-08
4.32643e-09
5.98249e-10
8.01476e-11
1.04242e-11
1.31868e-12
1.62517e-13
1.95424e-14
2.29598e-15
2.63885e-16
2.97041e-17
3.27818e-18
3.55045e-19
3.77712e-20
3.95025e-21
4.06453e-22
4.11747e-23
4.10937e-24
4.0431e-25
3.92378e-26
3.75821e-27
3.55442e-28
3.32104e-29
3.06689e-30
2.80042e-31
2.52946e-32
2.26086e-33
2.00041e-34
1.75272e-35
1.52123e-36
1.30827e-37
1.11575e-38
8.75491e-40
106.601
107.06
77.021
41.7324
18.1234
6.60266
2.08421
0.583588
0.147524
0.0341287
0.00730405
0.00145876
0.000273844
4.8611e-05
8.20146e-06
1.3209e-06
2.0385e-07
3.02443e-08
4.32643e-09
5.98249e-10
8.01476e-11
1.04242e-11
1.31868e-12
1.62517e-13
1.95424e-14
2.29598e-15
2.63885e-16
2.97041e-17
3.27818e-18
3.55045e-19
3.77712e-20
3.95025e-21
4.06453e-22
4.11747e-23
4.10937e-24
4.04311e-25
3.92378e-26
3.75822e-27
3.55442e-28
3.32105e-29
3.0669e-30
2.80043e-31
2.52946e-32
2.26087e-33
2.00042e-34
1.75273e-35
1.52124e-36
1.30828e-37
1.11576e-38
8.75502e-40
106.601
107.06
77.021
41.7324
18.1234
6.60266
2.08421
0.583588
0.147524
0.0341287
0.00730405
0.00145876
0.000273844
4.8611e-05
8.20146e-06
1.3209e-06
2.0385e-07
3.02443e-08
4.32643e-09
5.98249e-10
8.01476e-11
1.04242e-11
1.31868e-12
1.62517e-13
1.95424e-14
2.29598e-15
2.63885e-16
2.97041e-17
3.27818e-18
3.55046e-19
3.77712e-20
3.95025e-21
4.06453e-22
4.11747e-23
4.10937e-24
4.04311e-25
3.92378e-26
3.75822e-27
3.55442e-28
3.32105e-29
3.0669e-30
2.80043e-31
2.52947e-32
2.26087e-33
2.00043e-34
1.75274e-35
1.52125e-36
1.30828e-37
1.11577e-38
8.75505e-40
106.601
107.06
77.021
41.7324
18.1234
6.60266
2.08421
0.583588
0.147524
0.0341287
0.00730405
0.00145876
0.000273844
4.8611e-05
8.20146e-06
1.3209e-06
2.0385e-07
3.02443e-08
4.32643e-09
5.98249e-10
8.01476e-11
1.04242e-11
1.31868e-12
1.62517e-13
1.95424e-14
2.29598e-15
2.63885e-16
2.97041e-17
3.27818e-18
3.55046e-19
3.77712e-20
3.95025e-21
4.06453e-22
4.11747e-23
4.10937e-24
4.04311e-25
3.92378e-26
3.75822e-27
3.55442e-28
3.32105e-29
3.0669e-30
2.80043e-31
2.52947e-32
2.26087e-33
2.00043e-34
1.75274e-35
1.52125e-36
1.30828e-37
1.11577e-38
8.75506e-40
106.601
107.06
77.021
41.7324
18.1234
6.60266
2.08421
0.583588
0.147524
0.0341287
0.00730405
0.00145876
0.000273844
4.8611e-05
8.20146e-06
1.3209e-06
2.0385e-07
3.02443e-08
4.32643e-09
5.98249e-10
8.01476e-11
1.04242e-11
1.31868e-12
1.62517e-13
1.95424e-14
2.29598e-15
2.63885e-16
2.97041e-17
3.27818e-18
3.55046e-19
3.77712e-20
3.95025e-21
4.06453e-22
4.11747e-23
4.10937e-24
4.04311e-25
3.92378e-26
3.75822e-27
3.55442e-28
3.32105e-29
3.0669e-30
2.80043e-31
2.52947e-32
2.26087e-33
2.00043e-34
1.75274e-35
1.52125e-36
1.30828e-37
1.11577e-38
8.75506e-40
106.601
107.06
77.021
41.7324
18.1234
6.60266
2.08421
0.583588
0.147524
0.0341287
0.00730405
0.00145876
0.000273844
4.8611e-05
8.20146e-06
1.3209e-06
2.0385e-07
3.02443e-08
4.32643e-09
5.98249e-10
8.01476e-11
1.04242e-11
1.31868e-12
1.62517e-13
1.95424e-14
2.29598e-15
2.63885e-16
2.97041e-17
3.27818e-18
3.55046e-19
3.77712e-20
3.95025e-21
4.06453e-22
4.11747e-23
4.10937e-24
4.04311e-25
3.92378e-26
3.75822e-27
3.55442e-28
3.32105e-29
3.0669e-30
2.80043e-31
2.52947e-32
2.26087e-33
2.00043e-34
1.75274e-35
1.52125e-36
1.30828e-37
1.11577e-38
8.75506e-40
106.601
107.06
77.021
41.7324
18.1234
6.60266
2.08421
0.583588
0.147524
0.0341287
0.00730405
0.00145876
0.000273844
4.8611e-05
8.20146e-06
1.3209e-06
2.0385e-07
3.02443e-08
4.32643e-09
5.98249e-10
8.01476e-11
1.04242e-11
1.31868e-12
1.62517e-13
1.95424e-14
2.29598e-15
2.63885e-16
2.97041e-17
3.27818e-18
3.55046e-19
3.77712e-20
3.95025e-21
4.06453e-22
4.11747e-23
4.10937e-24
4.04311e-25
3.92378e-26
3.75822e-27
3.55442e-28
3.32105e-29
3.0669e-30
2.80043e-31
2.52947e-32
2.26087e-33
2.00043e-34
1.75274e-35
1.52125e-36
1.30828e-37
1.11577e-38
8.75506e-40
106.601
107.06
77.021
41.7324
18.1234
6.60266
2.08421
0.583588
0.147524
0.0341287
0.00730405
0.00145876
0.000273844
4.8611e-05
8.20146e-06
1.3209e-06
2.0385e-07
3.02443e-08
4.32643e-09
5.98249e-10
8.01476e-11
1.04242e-11
1.31868e-12
1.62517e-13
1.95424e-14
2.29598e-15
2.63885e-16
2.97041e-17
3.27818e-18
3.55046e-19
3.77712e-20
3.95025e-21
4.06453e-22
4.11747e-23
4.10937e-24
4.04311e-25
3.92378e-26
3.75822e-27
3.55442e-28
3.32105e-29
3.0669e-30
2.80043e-31
2.52947e-32
2.26087e-33
2.00043e-34
1.75274e-35
1.52125e-36
1.30828e-37
1.11577e-38
8.75506e-40
106.601
107.06
77.021
41.7324
18.1234
6.60266
2.08421
0.583588
0.147524
0.0341287
0.00730405
0.00145876
0.000273844
4.8611e-05
8.20146e-06
1.3209e-06
2.0385e-07
3.02443e-08
4.32643e-09
5.98249e-10
8.01476e-11
1.04242e-11
1.31868e-12
1.62517e-13
1.95424e-14
2.29598e-15
2.63885e-16
2.97041e-17
3.27818e-18
3.55046e-19
3.77712e-20
3.95025e-21
4.06453e-22
4.11747e-23
4.10937e-24
4.04311e-25
3.92378e-26
3.75822e-27
3.55442e-28
3.32105e-29
3.0669e-30
2.80043e-31
2.52947e-32
2.26087e-33
2.00043e-34
1.75274e-35
1.52125e-36
1.30828e-37
1.11577e-38
8.75506e-40
106.601
107.06
77.021
41.7324
18.1234
6.60266
2.08421
0.583588
0.147524
0.0341287
0.00730405
0.00145876
0.000273844
4.8611e-05
8.20146e-06
1.3209e-06
2.0385e-07
3.02443e-08
4.32643e-09
5.98249e-10
8.01476e-11
1.04242e-11
1.31868e-12
1.62517e-13
1.95424e-14
2.29598e-15
2.63885e-16
2.97041e-17
3.27818e-18
3.55046e-19
3.77712e-20
3.95025e-21
4.06453e-22
4.11747e-23
4.10937e-24
4.04311e-25
3.92378e-26
3.75822e-27
3.55442e-28
3.32105e-29
3.0669e-30
2.80043e-31
2.52947e-32
2.26087e-33
2.00043e-34
1.75274e-35
1.52125e-36
1.30828e-37
1.11577e-38
8.75506e-40
106.601
107.06
77.021
41.7324
18.1234
6.60266
2.08421
0.583588
0.147524
0.0341287
0.00730405
0.00145876
0.000273844
4.8611e-05
8.20146e-06
1.3209e-06
2.0385e-07
3.02443e-08
4.32643e-09
5.98249e-10
8.01476e-11
1.04242e-11
1.31868e-12
1.62517e-13
1.95424e-14
2.29598e-15
2.63885e-16
2.97041e-17
3.27818e-18
3.55046e-19
3.77712e-20
3.95025e-21
4.06453e-22
4.11747e-23
4.10937e-24
4.04311e-25
3.92378e-26
3.75822e-27
3.55442e-28
3.32105e-29
3.0669e-30
2.80043e-31
2.52947e-32
2.26087e-33
2.00043e-34
1.75274e-35
1.52125e-36
1.30828e-37
1.11577e-38
8.75506e-40
106.601
107.06
77.021
41.7324
18.1234
6.60266
2.08421
0.583588
0.147524
0.0341287
0.00730405
0.00145876
0.000273844
4.8611e-05
8.20146e-06
1.3209e-06
2.0385e-07
3.02443e-08
4.32643e-09
5.98249e-10
8.01476e-11
1.04242e-11
1.31868e-12
1.62517e-13
1.95424e-14
2.29598e-15
2.63885e-16
2.97041e-17
3.27818e-18
3.55046e-19
3.77712e-20
3.95025e-21
4.06453e-22
4.11747e-23
4.10937e-24
4.04311e-25
3.92378e-26
3.75822e-27
3.55442e-28
3.32105e-29
3.0669e-30
2.80043e-31
2.52947e-32
2.26087e-33
2.00043e-34
1.75274e-35
1.52125e-36
1.30828e-37
1.11577e-38
8.75506e-40
106.601
107.06
77.021
41.7324
18.1234
6.60266
2.08421
0.583588
0.147524
0.0341287
0.00730405
0.00145876
0.000273844
4.8611e-05
8.20146e-06
1.3209e-06
2.0385e-07
3.02443e-08
4.32643e-09
5.98249e-10
8.01476e-11
1.04242e-11
1.31868e-12
1.62517e-13
1.95424e-14
2.29598e-15
2.63885e-16
2.97041e-17
3.27818e-18
3.55046e-19
3.77712e-20
3.95025e-21
4.06453e-22
4.11747e-23
4.10937e-24
4.04311e-25
3.92378e-26
3.75822e-27
3.55442e-28
3.32105e-29
3.0669e-30
2.80043e-31
2.52947e-32
2.26087e-33
2.00043e-34
1.75274e-35
1.52125e-36
1.30828e-37
1.11577e-38
8.75506e-40
106.601
107.06
77.021
41.7324
18.1234
6.60266
2.08421
0.583588
0.147524
0.0341287
0.00730405
0.00145876
0.000273844
4.8611e-05
8.20146e-06
1.3209e-06
2.0385e-07
3.02443e-08
4.32643e-09
5.98249e-10
8.01476e-11
1.04242e-11
1.31868e-12
1.62517e-13
1.95424e-14
2.29598e-15
2.63885e-16
2.97041e-17
3.27818e-18
3.55046e-19
3.77712e-20
3.95025e-21
4.06453e-22
4.11747e-23
4.10937e-24
4.04311e-25
3.92378e-26
3.75822e-27
3.55442e-28
3.32105e-29
3.0669e-30
2.80043e-31
2.52947e-32
2.26087e-33
2.00043e-34
1.75274e-35
1.52125e-36
1.30828e-37
1.11577e-38
8.75506e-40
106.601
107.06
77.021
41.7324
18.1234
6.60266
2.08421
0.583588
0.147524
0.0341287
0.00730405
0.00145876
0.000273844
4.8611e-05
8.20146e-06
1.3209e-06
2.0385e-07
3.02443e-08
4.32643e-09
5.98249e-10
8.01476e-11
1.04242e-11
1.31868e-12
1.62517e-13
1.95424e-14
2.29598e-15
2.63885e-16
2.97041e-17
3.27818e-18
3.55046e-19
3.77712e-20
3.95025e-21
4.06453e-22
4.11747e-23
4.10937e-24
4.04311e-25
3.92378e-26
3.75822e-27
3.55442e-28
3.32105e-29
3.0669e-30
2.80043e-31
2.52947e-32
2.26087e-33
2.00043e-34
1.75274e-35
1.52125e-36
1.30829e-37
1.11577e-38
8.75506e-40
106.601
107.06
77.021
41.7324
18.1234
6.60266
2.08421
0.583588
0.147524
0.0341287
0.00730405
0.00145876
0.000273844
4.8611e-05
8.20146e-06
1.3209e-06
2.0385e-07
3.02443e-08
4.32643e-09
5.98249e-10
8.01476e-11
1.04242e-11
1.31868e-12
1.62517e-13
1.95424e-14
2.29598e-15
2.63885e-16
2.97041e-17
3.27818e-18
3.55046e-19
3.77712e-20
3.95025e-21
4.06453e-22
4.11747e-23
4.10937e-24
4.04311e-25
3.92378e-26
3.75822e-27
3.55442e-28
3.32105e-29
3.0669e-30
2.80043e-31
2.52947e-32
2.26087e-33
2.00043e-34
1.75274e-35
1.52125e-36
1.30828e-37
1.11577e-38
8.75505e-40
106.601
107.06
77.021
41.7324
18.1234
6.60266
2.08421
0.583588
0.147524
0.0341287
0.00730405
0.00145876
0.000273844
4.8611e-05
8.20146e-06
1.3209e-06
2.0385e-07
3.02443e-08
4.32643e-09
5.98249e-10
8.01476e-11
1.04242e-11
1.31868e-12
1.62517e-13
1.95424e-14
2.29598e-15
2.63885e-16
2.97041e-17
3.27818e-18
3.55046e-19
3.77712e-20
3.95025e-21
4.06454e-22
4.11747e-23
4.10937e-24
4.04311e-25
3.92379e-26
3.75822e-27
3.55443e-28
3.32106e-29
3.0669e-30
2.80044e-31
2.52947e-32
2.26088e-33
2.00043e-34
1.75274e-35
1.52125e-36
1.30829e-37
1.11577e-38
8.75511e-40
106.601
107.06
77.021
41.7324
18.1234
6.60266
2.08421
0.583588
0.147524
0.0341287
0.00730405
0.00145876
0.000273844
4.8611e-05
8.20146e-06
1.3209e-06
2.0385e-07
3.02443e-08
4.32643e-09
5.98249e-10
8.01476e-11
1.04242e-11
1.31868e-12
1.62517e-13
1.95424e-14
2.29598e-15
2.63885e-16
2.97041e-17
3.27818e-18
3.55045e-19
3.77712e-20
3.95025e-21
4.06453e-22
4.11747e-23
4.10936e-24
4.0431e-25
3.92378e-26
3.75821e-27
3.55441e-28
3.32104e-29
3.06689e-30
2.80042e-31
2.52945e-32
2.26086e-33
2.00041e-34
1.75272e-35
1.52123e-36
1.30827e-37
1.11575e-38
8.75491e-40
106.601
107.06
77.021
41.7324
18.1234
6.60266
2.08421
0.583588
0.147524
0.0341287
0.00730405
0.00145876
0.000273844
4.8611e-05
8.20146e-06
1.3209e-06
2.0385e-07
3.02443e-08
4.32643e-09
5.98249e-10
8.01476e-11
1.04242e-11
1.31868e-12
1.62517e-13
1.95424e-14
2.29598e-15
2.63885e-16
2.97042e-17
3.27818e-18
3.55046e-19
3.77713e-20
3.95026e-21
4.06455e-22
4.11749e-23
4.10939e-24
4.04313e-25
3.92381e-26
3.75825e-27
3.55446e-28
3.32109e-29
3.06694e-30
2.80048e-31
2.52951e-32
2.26092e-33
2.00048e-34
1.75279e-35
1.5213e-36
1.30834e-37
1.11582e-38
8.75552e-40
106.601
107.06
77.021
41.7324
18.1234
6.60266
2.08421
0.583588
0.147524
0.0341287
0.00730405
0.00145876
0.000273844
4.8611e-05
8.20146e-06
1.3209e-06
2.03849e-07
3.02443e-08
4.32643e-09
5.98248e-10
8.01476e-11
1.04242e-11
1.31868e-12
1.62517e-13
1.95423e-14
2.29597e-15
2.63884e-16
2.9704e-17
3.27816e-18
3.55044e-19
3.7771e-20
3.95022e-21
4.0645e-22
4.11742e-23
4.10931e-24
4.04304e-25
3.9237e-26
3.75813e-27
3.55432e-28
3.32094e-29
3.06677e-30
2.8003e-31
2.52933e-32
2.26073e-33
2.00028e-34
1.75259e-35
1.5211e-36
1.30814e-37
1.11562e-38
8.75378e-40
106.601
107.06
77.021
41.7324
18.1234
6.60266
2.08421
0.583588
0.147524
0.0341287
0.00730405
0.00145876
0.000273844
4.8611e-05
8.20147e-06
1.3209e-06
2.0385e-07
3.02443e-08
4.32644e-09
5.9825e-10
8.01478e-11
1.04243e-11
1.31869e-12
1.62518e-13
1.95425e-14
2.29599e-15
2.63887e-16
2.97045e-17
3.27823e-18
3.55052e-19
3.7772e-20
3.95035e-21
4.06466e-22
4.11762e-23
4.10955e-24
4.04332e-25
3.92402e-26
3.75849e-27
3.55472e-28
3.32138e-29
3.06724e-30
2.8008e-31
2.52985e-32
2.26126e-33
2.00082e-34
1.75314e-35
1.52164e-36
1.30867e-37
1.11614e-38
8.75832e-40
106.601
107.06
77.021
41.7324
18.1234
6.60266
2.08421
0.583588
0.147524
0.0341287
0.00730405
0.00145876
0.000273844
4.8611e-05
8.20145e-06
1.3209e-06
2.03849e-07
3.02442e-08
4.32641e-09
5.98245e-10
8.0147e-11
1.04241e-11
1.31867e-12
1.62515e-13
1.9542e-14
2.29592e-15
2.63877e-16
2.97031e-17
3.27804e-18
3.55027e-19
3.77689e-20
3.94996e-21
4.06418e-22
4.11705e-23
4.10887e-24
4.04254e-25
3.92314e-26
3.7575e-27
3.55364e-28
3.32021e-29
3.06601e-30
2.79951e-31
2.52851e-32
2.2599e-33
1.99946e-34
1.75178e-35
1.52031e-36
1.30738e-37
1.11491e-38
8.7476e-40
106.601
107.06
77.021
41.7324
18.1234
6.60266
2.08421
0.583588
0.147524
0.0341287
0.00730406
0.00145876
0.000273845
4.86112e-05
8.2015e-06
1.32091e-06
2.03851e-07
3.02446e-08
4.32649e-09
5.9826e-10
8.01495e-11
1.04245e-11
1.31873e-12
1.62525e-13
1.95435e-14
2.29613e-15
2.63907e-16
2.97071e-17
3.27857e-18
3.55095e-19
3.77775e-20
3.95102e-21
4.06546e-22
4.11856e-23
4.11062e-24
4.04453e-25
3.92536e-26
3.75995e-27
3.55628e-28
3.32302e-29
3.06895e-30
2.80254e-31
2.53161e-32
2.26301e-33
2.00254e-34
1.7548e-35
1.52323e-36
1.31017e-37
1.11754e-38
8.77025e-40
106.601
107.06
77.021
41.7324
18.1234
6.60266
2.08421
0.583587
0.147524
0.0341286
0.00730402
0.00145875
0.000273842
4.86105e-05
8.20135e-06
1.32087e-06
2.03844e-07
3.02433e-08
4.32625e-09
5.98217e-10
8.01423e-11
1.04234e-11
1.31855e-12
1.62497e-13
1.95395e-14
2.29557e-15
2.63829e-16
2.96967e-17
3.27722e-18
3.54924e-19
3.77563e-20
3.94845e-21
4.0624e-22
4.11501e-23
4.10657e-24
4.03998e-25
3.92036e-26
3.75454e-27
3.55052e-28
3.31699e-29
3.06272e-30
2.79621e-31
2.52525e-32
2.25672e-33
1.99639e-34
1.74887e-35
1.51758e-36
1.30485e-37
1.11259e-38
8.72821e-40
106.601
107.06
77.021
41.7324
18.1235
6.60266
2.08421
0.583589
0.147524
0.0341289
0.00730412
0.00145878
0.00027385
4.86125e-05
8.20179e-06
1.32097e-06
2.03863e-07
3.0247e-08
4.32691e-09
5.9833e-10
8.0161e-11
1.04264e-11
1.31901e-12
1.62565e-13
1.95491e-14
2.29691e-15
2.6401e-16
2.97204e-17
3.28025e-18
3.55302e-19
3.78024e-20
3.95394e-21
4.06882e-22
4.12234e-23
4.1148e-24
4.04906e-25
3.93019e-26
3.76499e-27
3.56147e-28
3.32827e-29
3.07418e-30
2.80768e-31
2.53657e-32
2.26773e-33
2.00697e-34
1.75891e-35
1.52698e-36
1.31356e-37
1.12056e-38
8.79487e-40
106.601
107.06
77.021
41.7324
18.1234
6.60265
2.0842
0.583584
0.147522
0.0341281
0.00730384
0.0014587
0.000273829
4.86074e-05
8.20065e-06
1.32073e-06
2.03816e-07
3.02382e-08
4.32536e-09
5.98068e-10
8.01186e-11
1.04197e-11
1.31801e-12
1.62421e-13
1.95289e-14
2.29416e-15
2.63646e-16
2.96736e-17
3.27437e-18
3.54583e-19
3.77163e-20
3.94387e-21
4.05727e-22
4.10938e-23
4.10052e-24
4.03362e-25
3.91378e-26
3.74785e-27
3.54386e-28
3.31046e-29
3.05643e-30
2.79025e-31
2.5197e-32
2.25164e-33
1.99181e-34
1.74481e-35
1.51404e-36
1.30182e-37
1.11003e-38
8.70849e-40
106.601
107.06
77.021
41.7324
18.1235
6.60269
2.08423
0.583598
0.147528
0.0341302
0.00730453
0.00145889
0.000273878
4.86189e-05
8.20316e-06
1.32124e-06
2.03915e-07
3.02562e-08
4.32847e-09
5.98583e-10
8.02002e-11
1.04322e-11
1.31984e-12
1.6268e-13
1.95645e-14
2.2989e-15
2.6426e-16
2.9751e-17
3.28388e-18
3.55722e-19
3.78496e-20
3.95914e-21
4.0744e-22
4.1282e-23
4.1208e-24
4.05507e-25
3.93606e-26
3.77061e-27
3.56671e-28
3.33304e-29
3.0784e-30
2.8113e-31
2.53958e-32
2.27014e-33
2.00879e-34
1.76018e-35
1.52778e-36
1.31393e-37
1.12058e-38
8.79266e-40
106.6
107.06
77.0211
41.7324
18.1234
6.60259
2.08417
0.583566
0.147515
0.0341257
0.00730314
0.00145851
0.000273784
4.85973e-05
8.19859e-06
1.32033e-06
2.03745e-07
3.02259e-08
4.32336e-09
5.97758e-10
8.00727e-11
1.04132e-11
1.31712e-12
1.62305e-13
1.95142e-14
2.29236e-15
2.63435e-16
2.96496e-17
3.27175e-18
3.54306e-19
3.76882e-20
3.94115e-21
4.05478e-22
4.10723e-23
4.09885e-24
4.03252e-25
3.91334e-26
3.74812e-27
3.54485e-28
3.31215e-29
3.05878e-30
2.79317e-31
2.52311e-32
2.25542e-33
1.99585e-34
1.74899e-35
1.51826e-36
1.30597e-37
1.11405e-38
8.74356e-40
106.601
107.06
77.021
41.7324
18.1236
6.60278
2.08429
0.583623
0.147537
0.0341333
0.00730537
0.0014591
0.000273926
4.86289e-05
8.20509e-06
1.32159e-06
2.03973e-07
3.02652e-08
4.32979e-09
5.98765e-10
8.02236e-11
1.0435e-11
1.32014e-12
1.62709e-13
1.95666e-14
2.29895e-15
2.64239e-16
2.97449e-17
3.28274e-18
3.55542e-19
3.78237e-20
3.95564e-21
4.06992e-22
4.12269e-23
4.11426e-24
4.04755e-25
3.92766e-26
3.76145e-27
3.55696e-28
3.32288e-29
3.06804e-30
2.80093e-31
2.52939e-32
2.2603e-33
1.99945e-34
1.75145e-35
1.51974e-36
1.30664e-37
1.11407e-38
8.73947e-40
106.6
107.06
77.0211
41.7323
18.1233
6.6025
2.08412
0.583548
0.147509
0.0341241
0.00730277
0.00145844
0.000273772
4.85961e-05
8.19859e-06
1.32038e-06
2.03762e-07
3.02304e-08
4.32433e-09
5.97947e-10
8.01064e-11
1.04189e-11
1.31802e-12
1.62439e-13
1.95335e-14
2.29503e-15
2.6379e-16
2.96954e-17
3.27747e-18
3.54999e-19
3.777e-20
3.95055e-21
4.06531e-22
4.11877e-23
4.11121e-24
4.04547e-25
3.92664e-26
3.7615e-27
3.55806e-28
3.32495e-29
3.07096e-30
2.80456e-31
2.53357e-32
2.26486e-33
2.00423e-34
1.75631e-35
1.52454e-36
1.31127e-37
1.11843e-38
8.7767e-40
106.601
107.06
77.021
41.7325
18.1236
6.60276
2.08426
0.583608
0.147531
0.0341306
0.0073045
0.00145886
0.000273862
4.8614e-05
8.20188e-06
1.32095e-06
2.03852e-07
3.02439e-08
4.32623e-09
5.98197e-10
8.01372e-11
1.04224e-11
1.31837e-12
1.6247e-13
1.95354e-14
2.29501e-15
2.63757e-16
2.96877e-17
3.27614e-18
3.54801e-19
3.77427e-20
3.94701e-21
4.06095e-22
4.11359e-23
4.10527e-24
4.03887e-25
3.91949e-26
3.75395e-27
3.55026e-28
3.31706e-29
3.06313e-30
2.79694e-31
2.52627e-32
2.25799e-33
1.99787e-34
1.75049e-35
1.5193e-36
1.30661e-37
1.11434e-38
8.74511e-40
106.601
107.06
77.021
41.7325
18.1237
6.60296
2.08441
0.583683
0.147562
0.0341414
0.00730781
0.00145976
0.000274084
4.86643e-05
8.21245e-06
1.32303e-06
2.04238e-07
3.03116e-08
4.33755e-09
6.00005e-10
8.04143e-11
1.04632e-11
1.32419e-12
1.6327e-13
1.96422e-14
2.30886e-15
2.65502e-16
2.99022e-17
3.30188e-18
3.57819e-19
3.8089e-20
3.98594e-21
4.10387e-22
4.16005e-23
4.15467e-24
4.09053e-25
3.97265e-26
3.80783e-27
3.60408e-28
3.37007e-29
3.11466e-30
2.84639e-31
2.57314e-32
2.30191e-33
2.03854e-34
1.78777e-35
1.5531e-36
1.33696e-37
1.14134e-38
8.96548e-40
)
;

boundaryField
{
    left
    {
        type            fixedValue;
        value           uniform 100;
    }
    right
    {
        type            zeroGradient;
    }
    up
    {
        type            zeroGradient;
    }
    down
    {
        type            fixedValue;
        value           uniform 0;
    }
    frontAndBack
    {
        type            empty;
    }
}


// ************************************************************************* //
