/*--------------------------------*- C++ -*----------------------------------*\
  =========                 |
  \\      /  F ield         | OpenFOAM: The Open Source CFD Toolbox
   \\    /   O peration     | Website:  https://openfoam.org
    \\  /    A nd           | Version:  8
     \\/     M anipulation  |
\*---------------------------------------------------------------------------*/
FoamFile
{
    version     2.0;
    format      ascii;
    class       volVectorField;
    location    "77";
    object      U;
}
// * * * * * * * * * * * * * * * * * * * * * * * * * * * * * * * * * * * * * //

dimensions      [0 1 -1 0 0 0 0];

internalField   nonuniform List<vector> 
2844
(
(1.00396 0.00279164 3.34821e-05)
(1.00097 -0.0133484 9.15354e-05)
(1.03889 -0.013894 -0.00035325)
(1.08021 -0.00262507 0.000270539)
(1.05586 -0.00844918 -8.14318e-05)
(1.07184 0.0106561 0.000144528)
(1.03213 -0.00242865 -0.000105124)
(1.02649 0.00226643 -0.000103156)
(0.986962 0.00619417 3.32808e-05)
(0.968852 -0.00419157 -0.000282175)
(0.928205 -0.0110711 0.000203266)
(0.928278 -0.0110852 -0.000426005)
(0.902241 -0.0279974 0.000696298)
(0.946666 -0.0360803 2.45742e-05)
(0.984115 -0.031521 -0.000456993)
(0.989642 -0.026988 0.000306958)
(0.981644 -0.01451 8.67087e-05)
(1.00222 -0.00323206 -0.000346573)
(0.974755 -0.00965444 9.42218e-05)
(0.946389 -0.0246095 0.000232688)
(1.00273 -0.0102715 4.55135e-05)
(1.00235 -0.0141571 0.000300052)
(1.04934 -0.0478514 -0.000941811)
(1.07915 -0.0135307 0.00052008)
(1.07464 0.0236195 0.000207573)
(1.09515 0.0080317 -6.43774e-06)
(1.02831 0.0371648 0.000630125)
(1.04743 0.0373221 -0.000850694)
(0.983889 0.0375833 -0.000384352)
(0.95755 0.0542132 0.000350825)
(0.940839 0.0376819 -0.000206702)
(0.919479 0.0438952 -0.00115319)
(0.882495 -0.00446427 0.00193554)
(0.950598 -0.0278113 0.000284685)
(1.00287 0.00565761 -0.00109246)
(1.01089 0.0256155 0.000333419)
(1.0024 0.00672428 0.000250236)
(1.01656 0.0106057 -0.000740792)
(0.959202 0.0537093 -0.000489432)
(0.938058 0.046442 3.276e-05)
(1.0093 -0.0042643 5.10096e-05)
(1.02483 -0.0539962 -0.000422178)
(1.04024 -0.0723996 0.00108198)
(1.12243 -0.0308608 -0.000517429)
(1.11118 -0.0151888 0.000208367)
(1.14584 0.0542767 0.00192165)
(1.08062 0.0263012 -0.000146564)
(1.02133 0.0492622 -9.28109e-05)
(1.01597 0.0870012 -0.000987327)
(1.00792 0.021497 -0.00152007)
(0.938873 0.0185911 -0.0021742)
(0.889598 0.0553063 0.00107444)
(0.90771 -0.0842717 0.00692482)
(0.992552 -0.132476 -0.000505556)
(1.02134 -0.0654599 0.00105093)
(1.03055 -0.0339083 0.000341781)
(1.00608 -0.0199987 -0.00314196)
(1.02965 0.0381867 0.000105626)
(1.01738 0.0537312 0.0037246)
(0.972289 -0.0108677 0.00188913)
(1.01223 -0.0479178 0.000753259)
(1.02994 -0.0195033 -0.00461668)
(1.07103 -0.141752 0.004653)
(1.15531 -0.0577768 0.00601186)
(1.15639 0.0173715 -0.00454964)
(1.2306 0.003862 -0.000178875)
(1.11618 0.124232 0.00314263)
(1.07394 0.104516 0.00149834)
(1.04712 0.0406116 -0.00417731)
(1.01454 0.139838 0.0018528)
(0.972723 0.149171 0.000837264)
(0.820994 0.0765551 -0.00207616)
(0.876301 -0.164729 0.0229711)
(1.03146 -0.0875272 0.0170969)
(1.01065 -0.0242649 0.00607722)
(1.15594 0.033497 -0.00126939)
(1.16182 0.0436273 -0.00134281)
(1.08007 -0.000105894 -0.00152876)
(0.9595 0.070462 -0.00466982)
(0.951457 0.0760166 -0.00311934)
(1.02325 -0.0529934 0.00371046)
(1.00527 -0.0598858 -0.00839945)
(1.18188 -0.213817 -0.00340557)
(1.26961 -0.163912 0.0224565)
(1.24662 -0.00995435 0.0115583)
(1.30028 0.0834835 -0.0112704)
(1.20825 0.113169 0.000528114)
(1.20927 0.102727 0.00306609)
(1.14617 0.176681 -0.00118889)
(0.993472 0.0517096 -0.000104671)
(1.04823 0.16306 -0.00850087)
(0.855626 0.170279 -0.00242178)
(0.698511 -0.458464 0.0312327)
(1.03488 -0.354936 0.0346423)
(1.25972 -0.204758 0.0243111)
(1.20412 -0.152413 0.00466922)
(1.05961 0.0514651 -0.0213281)
(1.09461 0.230255 -0.0172414)
(0.929739 0.197793 0.0139983)
(0.855665 0.0161526 0.010599)
(1.0461 -0.117506 0.00454294)
(1.01712 -0.0661338 -0.00276818)
(1.20328 -0.313267 -0.0189916)
(1.49691 -0.222053 0.0143051)
(1.56594 -0.0818555 0.0342037)
(1.33199 0.0744059 0.0167601)
(1.45088 0.14457 -0.0266728)
(1.49022 0.123146 0.0178408)
(1.16792 0.194167 0.0144741)
(1.04898 0.235557 -0.0157114)
(0.916777 0.329659 -0.00805034)
(0.712513 0.379945 -0.00777523)
(0.5629 -0.65945 -0.0143279)
(0.777524 -0.856243 0.0165844)
(1.15747 -0.403123 0.0157559)
(1.22216 0.115352 -0.00524329)
(1.11756 0.351483 -0.0129923)
(1.20753 0.247061 0.0328894)
(1.05681 0.137663 0.0106372)
(0.972142 0.0727112 -0.0282952)
(1.04403 -0.120681 0.00539344)
(0.976275 -0.207218 0.0112034)
(1.54109 -0.585052 0.00291697)
(1.55655 -0.439831 -0.00859671)
(1.81269 -0.0968702 0.0450897)
(1.66376 0.119521 0.00645457)
(1.65251 0.26156 0.0299178)
(1.39533 0.224724 -0.0397417)
(1.64378 0.327977 -0.0486971)
(1.23248 0.300291 0.0253217)
(1.12095 0.501913 0.00596391)
(1.02236 0.523456 0.00293548)
(0.771065 -0.692365 -0.0575325)
(0.692142 -1.19644 -0.0248816)
(0.732389 -0.776054 0.0136077)
(1.15877 -0.0392756 -0.0239622)
(1.3891 0.166929 -0.019583)
(1.33114 -0.00202315 0.0232003)
(1.10167 0.289679 -0.0224771)
(0.881345 0.295798 -0.0255397)
(1.10095 0.0399378 0.0283122)
(0.959185 -0.725171 0.0295995)
(1.63125 -1.16616 -0.0145018)
(1.58553 -0.551335 -0.0165045)
(1.79049 -0.161781 -0.0230336)
(1.48036 0.0621463 -0.0321037)
(1.41797 0.161743 -0.0269978)
(1.91964 0.41339 0.0134151)
(1.91967 0.800509 0.0463377)
(1.06776 0.393843 0.000182338)
(1.41858 0.431216 0.00823611)
(1.2936 0.697466 0.0836256)
(1.0273 -0.00903666 -0.0550035)
(0.993687 -0.67531 -0.0741864)
(0.739848 -0.836206 0.00727105)
(0.780478 -0.236584 0.0675343)
(1.05138 0.266281 0.028563)
(1.16542 0.310952 -0.00975198)
(1.03987 0.684067 -0.00527006)
(1.00529 0.45607 0.00419101)
(1.3914 -0.239798 0.0469377)
(-0.0881719 -1.21705 0.0116933)
(0.646709 -1.38636 -0.00197984)
(0.375739 0.0489245 -0.135897)
(0.384501 -0.161638 0.136598)
(0.851288 0.632542 -0.00815814)
(1.00534 0.477655 -0.0244908)
(1.06298 0.474825 0.0598766)
(0.570539 0.301535 -0.0439552)
(0.545025 -0.19114 -0.101452)
(0.942305 -0.568871 -0.116918)
(1.00501 -0.867061 -0.0517459)
(0.8353 -0.901884 0.0459584)
(1.13373 -0.290243 0.0378958)
(1.23135 0.061705 0.0238762)
(1.14685 0.475815 0.0244502)
(1.1485 0.318074 0.00279043)
(1.21284 0.123903 -0.0498865)
(1.11668 -0.662926 0.0290904)
(-0.238891 -0.223651 -0.405824)
(-0.154826 -0.232022 -0.00448247)
(-0.340352 -0.934972 -0.0535533)
(0.57907 0.317184 -0.0986017)
(0.445712 0.394566 0.0088288)
(0.244687 0.501357 0.0337419)
(0.314838 1.121 -0.116629)
(0.667726 0.326359 0.00204594)
(0.807103 -0.27674 -0.00849227)
(1.2361 -0.509924 -0.0819027)
(1.31558 -0.771734 -0.0568148)
(1.1078 -0.165176 0.0232771)
(1.05992 0.282576 0.0387802)
(1.14136 0.620318 0.0381558)
(1.0775 0.416344 0.0102329)
(1.04764 0.111644 -0.0214011)
(0.815401 -0.4001 -0.017328)
(0.0594579 -0.369062 -0.0161563)
(-0.414964 0.0016707 -0.0173875)
(0.0841571 0.672097 -0.0355382)
(-0.0142881 0.580371 0.0130364)
(0.0722636 0.353705 -0.0314596)
(0.678259 0.677417 -0.00936928)
(1.38161 -0.572391 0.0340687)
(1.12409 -0.872485 0.0553489)
(1.1947 -0.726875 -0.0256749)
(1.26599 -0.67471 -0.0620222)
(0.908786 -0.371408 0.0178334)
(0.803492 -0.288726 0.0509519)
(1.14937 0.220657 -0.0105538)
(1.25359 0.349346 -0.0251179)
(1.5286 0.133018 0.0558591)
(-0.12711 -0.265376 0.0848296)
(0.329473 0.673854 -0.0737943)
(0.169691 -0.0657345 -0.0348978)
(0.526034 -0.858621 0.0228414)
(0.258605 0.201844 0.026272)
(0.500262 0.240081 0.0473629)
(0.233029 0.210406 0.00473139)
(1.03106 0.0523946 0.00294097)
(1.85931 -0.435332 0.00349787)
(1.5925 -0.512677 0.015054)
(1.28812 -0.274174 -0.00247735)
(1.27943 -0.084327 -0.0765212)
(1.22415 -0.0312861 -0.062032)
(1.14376 -0.215212 0.024323)
(0.93381 0.42261 0.059135)
(0.98544 0.465091 0.0106603)
(0.989528 0.0480869 0.0143052)
(1.20059 0.686757 0.0201529)
(0.64226 0.834577 0.0352069)
(-0.0708362 -0.0490825 0.00154874)
(1.42451 -0.218019 -0.0339112)
(1.51782 -0.413841 -0.0190963)
(1.14804 0.0612025 0.00625176)
(1.54877 0.0496564 0.028577)
(1.51698 -0.123862 0.0409482)
(1.6441 -0.410492 0.0374899)
(1.45665 -0.659387 0.0227114)
(1.12246 -0.443462 -0.00473544)
(0.954016 -0.373777 0.0242897)
(0.979334 -0.180291 0.0251319)
(1.31259 -0.0578261 -0.0287718)
(1.59273 -0.480657 -0.0916245)
(1.57904 -0.0516647 -0.0285054)
(1.27529 0.29951 0.0124591)
(1.01937 0.0406358 -0.0135224)
(1.14659 0.24553 0.0146147)
(1.41098 0.390015 0.0745586)
(1.75046 0.3777 -0.0140568)
(2.08095 0.442596 -0.00263484)
(1.64037 0.0654506 0.0263089)
(1.56204 -0.15264 0.0242763)
(1.3785 -0.457178 -0.0328614)
(1.41385 0.24667 -0.000603278)
(1.61002 0.087547 0.0174804)
(1.46408 -0.334573 0.00912732)
(1.23939 -0.228016 0.0347804)
(0.914813 -0.162734 0.00556511)
(0.882052 -0.266852 -0.0179531)
(0.877437 -0.574624 -0.0263908)
(0.829982 -0.50745 -0.000915031)
(1.14953 -0.218173 0.0174909)
(1.00865 0.0691361 -0.066113)
(0.92853 0.682288 -0.0833146)
(0.876593 0.519075 -0.00370725)
(0.987526 0.0919784 0.000255772)
(1.09821 0.0890791 0.0046882)
(1.18545 0.282663 -0.00827649)
(1.33774 0.26899 0.00108448)
(1.34055 0.00626575 0.00810183)
(1.55727 -0.0763115 0.0100961)
(1.47477 -0.0120181 0.0164538)
(1.28584 -0.0180904 -0.00573386)
(1.23925 -0.138127 0.0134404)
(1.34596 -0.0922514 0.0186248)
(1.27409 -0.0355968 -0.0183433)
(1.07035 -0.299151 -0.0108181)
(1.20368 -0.385777 0.00973567)
(1.17004 -0.20988 0.00991562)
(1.06946 -0.282875 -0.010625)
(0.837161 -0.398076 -0.0254207)
(0.804053 -0.14248 -0.0333655)
(0.76117 0.23926 -0.0420356)
(0.859776 0.691773 -0.0101915)
(1.03361 0.306372 0.0208163)
(1.00855 0.0271209 0.000314753)
(1.05631 0.0938595 -0.00069701)
(1.0594 0.129711 -0.0045692)
(1.25443 0.151123 0.00446797)
(1.3391 0.0439381 0.000818575)
(1.28299 0.0700452 -0.00688108)
(1.28646 -0.0820525 0.0133459)
(1.14047 -0.187278 0.0303855)
(1.08053 0.0230938 -0.00991622)
(1.17166 -0.113434 -0.01857)
(1.23668 -0.0130307 0.0238426)
(1.07082 -0.036925 0.00950649)
(0.915006 -0.302883 -0.0326686)
(0.999486 -0.174172 -0.0308122)
(1.05078 -0.202214 -0.00726161)
(0.895547 -0.149501 0.00907677)
(0.848744 0.119805 0.0120409)
(0.752187 0.342322 0.0174975)
(0.914275 0.470919 0.0351159)
(1.09014 0.173458 0.0221004)
(0.978007 0.0282327 0.0010528)
(1.03922 0.0603199 0.00294541)
(1.01307 0.092445 -0.00413446)
(1.15042 0.0712802 -0.00937534)
(1.25372 0.0505217 -0.00142806)
(1.19704 -0.00295785 0.013097)
(1.14624 -0.0878022 0.00175214)
(1.08391 -0.12018 -0.0111554)
(1.1105 -0.0868585 0.00234142)
(1.1021 -0.0425727 0.0066849)
(0.999347 -0.104666 -0.0110644)
(1.16242 -0.0768874 -0.00683723)
(1.04858 -0.128474 0.0066591)
(0.865653 -0.120808 0.0057889)
(0.855098 -0.140636 -0.00259127)
(0.723286 -0.239226 -0.0163272)
(0.793053 -0.104693 -0.0108497)
(0.851425 0.0530732 0.00490522)
(0.987767 0.0608248 0.014085)
(1.11271 -0.0317506 0.00403335)
(0.987182 0.00697148 0.000858125)
(1.02441 0.043262 4.44125e-05)
(1.03818 0.0703379 -0.00390145)
(1.12101 0.0439493 -0.00113114)
(1.128 0.00152364 0.00404615)
(1.15559 0.0426195 0.000871208)
(1.12697 4.10843e-05 -0.00227898)
(1.09699 -0.0452006 0.00117645)
(1.03678 -0.0158821 -0.00137018)
(1.07537 -0.0346067 0.000756144)
(1.02345 0.00643947 0.00293911)
(0.991949 -0.0437446 -0.000454718)
(0.991849 -0.0939575 -0.000240768)
(0.916653 -0.0723251 0.000316651)
(0.917881 -0.0706258 0.00271143)
(0.826059 0.0266263 -0.00551115)
(0.799823 0.0704902 -0.0132916)
(0.84881 0.053809 -0.011353)
(0.987076 0.0927057 -0.0141073)
(1.07637 0.0592707 -0.00989024)
(0.975975 0.00154402 0.000125959)
(1.02891 0.0279894 -0.000259725)
(1.02522 0.0459151 -0.000487204)
(1.10254 0.0175445 0.000274902)
(1.06508 -0.00558234 0.00048964)
(1.09498 -0.0046905 2.18417e-05)
(1.10751 -0.0275628 0.000108805)
(1.06814 -0.0501303 -0.000444907)
(1.05081 -0.0461289 0.000260215)
(1.02167 -0.0421699 0.000329972)
(1.00254 -0.0452956 -0.000269426)
(1.01146 -0.0378726 -0.000672815)
(0.946391 -0.0736963 0.000488371)
(0.885403 -0.0588881 -0.00139332)
(0.861639 -0.0787222 -0.00112811)
(0.784907 -0.0758052 0.00130771)
(0.837778 -0.00834641 -0.00420325)
(0.875299 0.0113288 -0.00814736)
(0.962739 0.0279262 -0.00883099)
(1.05606 0.00755567 -0.00411223)
(0.98008 0.00275195 -6.29591e-06)
(1.02379 0.00598035 -7.09045e-05)
(1.02212 0.009997 -3.81249e-05)
(1.08889 0.0107746 6.43277e-05)
(1.06187 0.00246826 0.000142502)
(1.08501 0.0162255 -0.0001271)
(1.0869 0.0151785 -9.81798e-05)
(1.06624 0.0071875 -7.18336e-06)
(1.03688 0.00987391 -7.3586e-05)
(1.0205 0.00728343 0.000126124)
(0.991595 0.0124871 -5.61786e-05)
(0.984766 0.0032761 -0.000147357)
(0.947477 0.000856987 0.000227937)
(0.89147 0.00460313 -0.000164936)
(0.881197 0.0137602 7.45083e-05)
(0.812903 0.0368569 0.000117006)
(0.83812 0.0419995 -0.00198901)
(0.879509 0.0422729 -0.00303882)
(0.954079 0.0526037 -0.00307928)
(1.0336 0.0369114 -0.00135672)
(1.00398 0.00274414 9.33229e-05)
(1.00098 -0.0132093 0.000190442)
(1.03883 -0.0140654 -0.000802443)
(1.08032 -0.0028527 0.000602939)
(1.05566 -0.00790197 -0.000208911)
(1.07214 0.0101403 0.000301495)
(1.0318 -0.0020745 -0.000257717)
(1.02667 0.00215794 -0.000223351)
(0.986994 0.00592884 5.29801e-05)
(0.968765 -0.00395283 -0.00057917)
(0.928583 -0.0112106 0.00042082)
(0.927688 -0.010996 -0.000982366)
(0.903036 -0.0281274 0.00149061)
(0.946332 -0.0356396 -0.000154231)
(0.98374 -0.0310367 -0.00107143)
(0.990373 -0.0275533 0.000685938)
(0.981553 -0.0146836 5.82936e-05)
(1.00173 -0.00268787 -0.000819437)
(0.975065 -0.00974826 0.000227523)
(0.946634 -0.0248758 0.000420196)
(1.00288 -0.00993394 0.00019853)
(1.00241 -0.0133705 0.000601615)
(1.04894 -0.0508935 -0.00219196)
(1.08011 -0.0107148 0.00120212)
(1.0731 0.0221192 0.00028178)
(1.09503 0.00989704 -2.36919e-05)
(1.02797 0.0359918 0.00134881)
(1.04883 0.0362487 -0.00179359)
(0.983033 0.0383463 -0.00110631)
(0.957052 0.0511715 0.000879884)
(0.943728 0.0401025 -0.000282912)
(0.914647 0.0396057 -0.00257119)
(0.886598 0.00218148 0.00391826)
(0.950752 -0.0268871 3.8997e-05)
(1.00005 0.000271778 -0.00269546)
(1.01311 0.0288158 0.000749596)
(1.00213 0.00864572 0.000304734)
(1.01365 0.00663353 -0.00201569)
(0.959008 0.0540861 -0.00117912)
(0.938101 0.0489634 -5.12178e-05)
(1.01042 -0.00414382 0.000414873)
(1.02252 -0.05056 -0.000702366)
(1.04061 -0.0818994 0.00100121)
(1.12809 -0.024874 -0.00184137)
(1.10111 -0.0118351 0.000518425)
(1.14921 0.052732 0.00474057)
(1.07941 0.0313234 -0.0003456)
(1.02078 0.0419573 -0.000194078)
(1.01816 0.0849444 -0.00160945)
(1.01264 0.021961 -0.00312747)
(0.940562 0.0203315 -0.00518945)
(0.876258 0.0441568 0.00279046)
(0.928984 -0.0701969 0.0111642)
(0.989437 -0.123328 -0.00397816)
(1.00819 -0.0763638 2.66476e-05)
(1.04842 -0.0332696 3.97741e-05)
(1.01194 -0.0131054 -0.00660072)
(1.01837 0.0326445 -0.000261304)
(1.0173 0.0468285 0.0072989)
(0.975337 -0.0111225 0.00309039)
(1.01473 -0.0460195 0.0026385)
(1.03105 -0.0221876 -0.0076221)
(1.06022 -0.140888 0.00483298)
(1.15128 -0.0505903 0.00757478)
(1.16813 0.0196993 -0.0075188)
(1.22494 0.0160589 0.000178088)
(1.0905 0.124937 0.00751605)
(1.09414 0.0998053 0.00322974)
(1.06079 0.0280095 -0.0105686)
(1.01977 0.123714 0.00411125)
(0.986077 0.147004 0.00090116)
(0.809265 0.0647365 -0.00295927)
(0.902847 -0.100069 0.0371682)
(1.02714 -0.0630072 0.0253958)
(1.02198 -0.0375002 0.00906117)
(1.1857 0.0252672 -0.0043467)
(1.16183 0.041476 -0.00435966)
(1.08783 0.000737672 -0.00641994)
(0.987829 0.0942152 -0.0130454)
(0.9634 0.0942103 -0.00788986)
(1.01277 -0.0489802 0.00845215)
(1.04735 -0.0886165 -0.0102182)
(1.15551 -0.175848 -0.0127471)
(1.22092 -0.118086 0.0270737)
(1.27595 -0.0427734 0.0171265)
(1.28134 0.112375 -0.0138156)
(1.19322 0.127959 0.0146066)
(1.24974 0.0806425 0.0191654)
(1.14451 0.149946 0.00163666)
(1.00873 0.0710936 4.75816e-05)
(1.05037 0.184266 -0.0126045)
(0.799206 0.127618 0.000670032)
(0.774243 -0.232401 0.0760107)
(1.05017 -0.172173 0.0739392)
(1.28285 -0.187401 0.0621352)
(1.30786 -0.152284 0.0179326)
(1.06808 0.0653298 -0.0443692)
(1.02607 0.189763 -0.0348243)
(0.856188 0.147084 0.0232076)
(0.824195 0.00040618 0.0181319)
(1.0373 -0.11184 -0.00261612)
(1.06514 -0.123206 -0.000280256)
(1.21975 -0.269106 0.0124578)
(1.38165 -0.0552456 -0.0116012)
(1.46236 0.00197086 0.000561145)
(1.40841 0.0281618 -0.0126766)
(1.47966 0.103473 -0.0687328)
(1.40855 0.120683 0.0197575)
(1.31359 0.182755 0.052099)
(1.16009 0.21888 -0.0110952)
(0.895539 0.313202 -0.0222746)
(0.634564 0.289013 -0.0227457)
(0.547269 -0.317907 0.046686)
(0.89515 -0.43401 0.0826942)
(1.29113 -0.257451 0.0446296)
(1.36597 0.166149 -0.0232516)
(1.18293 0.312208 -0.0326877)
(1.26402 0.160459 0.0650811)
(1.31918 0.263958 0.0192443)
(1.11028 0.161247 -0.0466682)
(1.08293 -0.137612 -0.0493832)
(0.987279 -0.237604 0.0763073)
(1.54738 -0.617107 0.0334265)
(1.56387 -0.31278 -0.0507927)
(1.69336 0.0903748 0.05157)
(1.58532 0.197427 -0.0589867)
(1.71086 0.160872 0.0408485)
(1.8146 0.264629 -0.0413725)
(1.4961 0.286362 -0.125044)
(1.09925 0.304409 0.046091)
(1.03714 0.585646 0.041038)
(0.968141 0.370497 -0.00457202)
(0.682689 -0.61267 -0.0300202)
(0.685451 -0.861666 0.0025128)
(0.867955 -0.566111 0.0235441)
(1.24471 -0.0227491 -0.0284535)
(1.26685 0.096078 0.00462101)
(1.31362 0.0941144 0.0378909)
(1.22802 0.294406 -0.052763)
(0.882993 0.161693 -0.0457524)
(1.02227 -0.0148024 -0.0110858)
(1.11255 -0.508915 0.0622741)
(1.60975 -1.12312 -0.121746)
(1.75615 -0.89348 -0.124167)
(1.87993 0.322632 -0.0709166)
(1.67781 0.244315 -0.0513567)
(1.40821 0.0336169 -0.0178073)
(1.76497 0.353867 -0.0293455)
(1.75228 0.783459 0.0941157)
(1.13985 0.568914 0.0544514)
(1.26618 0.375934 -0.0610082)
(1.55298 0.634886 0.0889336)
(0.969346 -0.15161 -0.0694717)
(0.695141 -0.594306 -0.0772064)
(0.513788 -0.590123 0.050042)
(0.84941 -0.107272 0.116165)
(1.28497 0.229325 0.0292275)
(1.27375 0.261659 -0.0266753)
(1.20597 0.608673 -0.00734449)
(1.11217 0.414691 0.00755846)
(0.952115 -0.0294816 -0.0921197)
(1.44486 -0.95339 0.0173759)
(1.26506 -1.67217 -0.0721235)
(0.133016 -0.0705318 -0.20795)
(0.58284 -0.0498692 0.295195)
(1.33252 0.673805 0.0306883)
(0.9543 0.458211 -0.0806542)
(1.36421 0.428912 0.050587)
(0.922726 0.712904 0.0215029)
(0.665863 -0.323564 -0.138828)
(0.824829 -0.632593 -0.13833)
(0.5751 -0.713439 -0.00352683)
(0.800428 -0.570353 0.0985585)
(1.13972 -0.184418 -0.00290592)
(1.05301 0.130024 -0.00767197)
(1.09315 0.444776 0.0211585)
(1.04615 0.231956 -0.000967025)
(0.80049 0.135341 -0.010421)
(1.51417 -0.944027 0.226776)
(0.378601 -0.402373 -0.74571)
(-0.153184 -0.274038 -0.0513189)
(0.0612579 -0.469826 -0.0508847)
(0.424051 0.60133 -0.120132)
(0.153615 0.429186 0.0427439)
(0.490446 0.694804 0.0519873)
(0.594651 0.885403 -0.0905768)
(1.00126 -0.141569 0.0174781)
(1.07305 -0.55665 -0.0563897)
(0.929976 -0.56236 -0.103783)
(0.85058 -0.383646 0.00321975)
(0.907684 0.253808 0.0636627)
(1.02159 0.453381 0.0596766)
(1.13342 0.603614 0.0354833)
(0.996665 0.369302 0.000698037)
(0.59804 -0.0687062 -0.0143555)
(1.00397 -0.54332 0.313669)
(0.0156235 -0.334904 -0.147361)
(-0.278611 -0.235849 -0.0169324)
(-0.226232 0.48258 -0.0337541)
(0.0767097 0.392812 0.0361538)
(0.0957982 0.265776 -0.0842307)
(0.785762 0.206545 0.00981189)
(1.1906 -0.651468 0.107024)
(1.28274 -0.668403 0.0726266)
(1.25332 -0.689728 -0.0918917)
(0.961678 -0.650587 -0.074985)
(0.793011 -0.225002 0.0605466)
(1.12705 -0.0468801 0.057747)
(1.28303 0.422581 -0.0313037)
(1.07409 0.359217 -0.0337975)
(1.44607 -0.113996 -0.0401371)
(0.361914 0.573425 0.261075)
(0.767862 1.13136 -0.341063)
(0.225651 -0.131042 -0.0696811)
(0.417179 -0.697981 0.048957)
(0.0711423 0.0894842 0.138777)
(0.535258 0.116869 0.156826)
(0.550954 0.145462 0.00119907)
(1.22594 0.0315596 -0.0874383)
(1.63011 -0.667152 -0.111555)
(1.3174 -0.639262 -0.0187439)
(1.18631 -0.245331 -0.0445858)
(0.835702 0.0290246 -0.0851898)
(0.684789 0.186199 0.00481647)
(0.777351 0.214534 0.100424)
(0.774689 0.654778 0.0567164)
(0.834576 0.44486 -0.00991963)
(0.922175 0.0549705 -0.00501808)
(1.16736 0.590686 0.00767427)
(0.915437 0.384 -0.0212888)
(0.145451 -0.156874 -0.0140657)
(1.42273 -0.267904 -0.0252993)
(1.50913 -0.472789 -0.0565442)
(1.19211 0.0996799 -0.0649796)
(1.47312 0.0398075 -0.0342587)
(1.38428 -0.263248 0.0889598)
(1.598 -0.463502 0.0918915)
(1.67957 -0.461878 0.0198838)
(1.17446 -0.332136 0.0394022)
(1.10998 -0.353182 0.121817)
(1.3425 -0.341278 0.0129824)
(1.4825 -0.256273 -0.0862715)
(1.27658 -0.0814738 -0.0597995)
(0.938885 0.572153 0.0145289)
(0.924343 0.410076 0.0303718)
(1.06837 0.00627475 -0.0467595)
(1.02468 0.160738 0.0596764)
(1.50521 0.648635 0.0366732)
(1.76547 0.5369 -0.0380572)
(1.89314 0.103095 0.0755104)
(1.49668 -0.111491 -0.0205568)
(1.63542 -0.265079 -0.0215832)
(1.46815 -0.417901 -0.0679703)
(1.34285 0.189556 -0.00653475)
(1.6555 0.0556389 0.0500227)
(1.47152 -0.23572 0.0300642)
(1.37509 -0.263381 0.0690466)
(1.21087 -0.275909 0.00162181)
(1.13406 -0.30643 -0.0425195)
(1.04325 -0.485499 0.00782822)
(0.938014 -0.250411 0.0252681)
(1.09339 0.138455 -0.0346097)
(0.833363 0.414912 -0.117474)
(0.607174 0.841919 -0.0903557)
(0.72697 0.443983 0.0137558)
(1.01377 0.0640672 -0.00727054)
(1.04564 0.096609 -0.0139087)
(1.20862 0.399417 0.0236028)
(1.38169 0.254595 0.0599715)
(1.36189 -0.0612646 -0.0268137)
(1.49536 -0.0764717 -0.0503892)
(1.46376 -0.0658213 0.0294515)
(1.23952 -0.217287 -0.00312097)
(1.10446 -0.13288 0.0224585)
(1.43231 -0.00396422 0.0509353)
(1.35551 -0.139961 -0.0238675)
(0.98503 -0.256898 -0.027617)
(1.10327 -0.22704 0.00885762)
(1.15547 -0.168847 -0.0120677)
(1.09499 -0.338406 -0.0352946)
(0.871196 -0.394121 -0.031197)
(0.798226 -0.0759452 -0.0648517)
(0.622618 0.280772 -0.0868068)
(0.660196 0.631935 -0.00711062)
(0.958855 0.271705 0.0417687)
(1.01089 0.0142052 -0.0029247)
(1.0347 0.0775724 -0.00155672)
(1.06132 0.180542 0.011996)
(1.28105 0.208044 0.00248093)
(1.36484 0.0451044 -0.0190078)
(1.25757 -0.00626729 -0.00622943)
(1.21574 -0.0996451 0.0453009)
(1.17498 -0.129926 0.0525203)
(1.12172 0.00127654 -0.0176737)
(1.09354 -0.151755 -0.0302172)
(1.19603 0.0427566 0.0191702)
(1.17943 -0.0137346 0.00377248)
(1.07062 -0.313729 -0.0312903)
(0.977611 -0.180659 -0.0254678)
(0.908408 -0.200427 -0.0161676)
(0.788512 -0.0506922 0.0037194)
(0.748436 0.267591 0.0143178)
(0.632207 0.43698 0.0339696)
(0.822217 0.526572 0.0851427)
(1.06428 0.223169 0.0487037)
(0.976201 0.0207105 0.00305587)
(1.03622 0.0626463 0.00536402)
(1.02558 0.124102 -0.0100972)
(1.15585 0.0745051 -0.0213671)
(1.23013 0.0184666 0.00329482)
(1.19548 -0.00314701 0.0274392)
(1.17956 -0.0696242 -0.00478657)
(1.07823 -0.134745 -0.017784)
(1.09084 -0.07799 -0.00336136)
(1.11079 -0.0514384 0.000754989)
(1.01583 -0.120338 -0.0131074)
(1.11894 -0.0683346 -0.00751158)
(1.01382 -0.133147 0.0027786)
(0.878478 -0.118925 0.0067582)
(0.85887 -0.191131 -0.0076607)
(0.708894 -0.20783 -0.0270799)
(0.762098 0.0568325 -0.00695278)
(0.796574 0.225287 0.0301398)
(0.968905 0.247859 0.0395174)
(1.11809 0.0762751 0.00422934)
(0.986602 0.00607973 0.00229721)
(1.02547 0.0455667 -0.000708309)
(1.04135 0.0741055 -0.00931698)
(1.11684 0.0405288 -0.00184983)
(1.12262 -0.00160873 0.00955486)
(1.15912 0.043278 0.0018511)
(1.13007 -0.00173458 -0.0053062)
(1.09741 -0.0416559 0.000287428)
(1.03548 -0.019209 -0.00401643)
(1.072 -0.0367196 0.000627196)
(1.02255 0.00907133 0.00228024)
(1.00113 -0.0386043 -0.00304714)
(0.994882 -0.0984382 0.00120278)
(0.921809 -0.0587407 0.00219266)
(0.922442 -0.0590906 0.00351964)
(0.806883 0.00665418 -0.0136568)
(0.788076 0.109805 -0.0264465)
(0.845638 0.141036 -0.0221845)
(0.999511 0.176085 -0.0357069)
(1.08783 0.0923675 -0.0277275)
(0.975995 0.00165396 0.000419329)
(1.02913 0.0284423 -0.000764813)
(1.02536 0.0462493 -0.00127417)
(1.10207 0.0170318 0.000660882)
(1.06444 -0.00695311 0.00106096)
(1.09592 -0.00329452 -0.000157105)
(1.10808 -0.0267282 -0.000200574)
(1.06866 -0.0500948 -0.000778361)
(1.05055 -0.0453912 0.000121609)
(1.02147 -0.0435917 0.000136564)
(1.00312 -0.0444779 -0.000171548)
(1.0117 -0.0365275 -0.00143777)
(0.945635 -0.0758792 0.00108355)
(0.884479 -0.0579949 -0.00355859)
(0.862831 -0.0804472 -0.000922531)
(0.783532 -0.0768106 0.00252753)
(0.832406 0.00727896 -0.0134345)
(0.87412 0.0340035 -0.0236029)
(0.967757 0.0497197 -0.0282108)
(1.05928 0.0168793 -0.0141807)
(0.980057 0.00271157 2.01104e-05)
(1.02383 0.00610349 -0.000184715)
(1.02213 0.0100022 -0.000141002)
(1.08892 0.0106304 0.000152603)
(1.06176 0.0025037 0.000322187)
(1.08503 0.016112 -0.00031855)
(1.087 0.0152124 -0.000266547)
(1.06624 0.00718249 -7.12417e-05)
(1.03694 0.00968665 -0.000225038)
(1.02046 0.00749881 0.000175539)
(0.991525 0.0123243 -0.000173435)
(0.984911 0.00327479 -0.000394901)
(0.947511 0.00101815 0.000605677)
(0.891483 0.00502024 -0.000536516)
(0.881289 0.0143727 0.000354125)
(0.812249 0.0360601 0.000521502)
(0.837336 0.0427906 -0.00617292)
(0.87939 0.044411 -0.0100052)
(0.954859 0.0547941 -0.010687)
(1.0343 0.0377966 -0.00481426)
(1.00399 0.00270919 6.10123e-05)
(1.001 -0.0130439 9.75589e-05)
(1.03873 -0.014349 -0.000450076)
(1.08046 -0.00305988 0.000334441)
(1.05538 -0.00731704 -0.000130121)
(1.07253 0.00950661 0.000158474)
(1.03139 -0.00165208 -0.000154574)
(1.02692 0.00195627 -0.000117126)
(0.986993 0.0056102 1.28668e-05)
(0.968628 -0.00375717 -0.000288527)
(0.929092 -0.0112217 0.0002116)
(0.92686 -0.0109805 -0.000560624)
(0.904033 -0.0283715 0.000809036)
(0.945912 -0.035196 -0.00019481)
(0.983232 -0.0307164 -0.000618196)
(0.99133 -0.0282731 0.000390428)
(0.981404 -0.0149033 -3.74094e-05)
(1.0011 -0.00226938 -0.00048077)
(0.975416 -0.0100952 0.000134173)
(0.946877 -0.025309 0.000184911)
(1.00303 -0.00938537 0.000162938)
(1.00258 -0.0125665 0.000278039)
(1.04836 -0.0548592 -0.0012292)
(1.08109 -0.00741944 0.000673379)
(1.07122 0.0201831 7.67605e-05)
(1.09539 0.0120558 -1.46319e-05)
(1.02724 0.0343264 0.000721062)
(1.05047 0.0350473 -0.000928389)
(0.982021 0.0391337 -0.000752655)
(0.956609 0.0479117 0.000604044)
(0.947004 0.0425294 -0.000161241)
(0.908478 0.0342287 -0.00134631)
(0.891681 0.00943731 0.00201617)
(0.950796 -0.0279329 -0.000336982)
(0.996474 -0.00691982 -0.00152228)
(1.01583 0.0328211 0.000448997)
(1.00144 0.00987553 -2.0324e-05)
(1.00968 0.00133321 -0.00125052)
(0.95815 0.0548674 -0.000661809)
(0.937626 0.0511316 -7.45928e-05)
(1.01185 -0.00297226 0.000359241)
(1.01981 -0.0471648 -0.000321642)
(1.04086 -0.0944608 1.58542e-05)
(1.13325 -0.0180194 -0.0014072)
(1.09132 -0.0100319 0.000321767)
(1.15223 0.0509865 0.00274972)
(1.07781 0.0374175 -8.61552e-05)
(1.02231 0.033214 -0.000174834)
(1.0193 0.0794003 -0.000559529)
(1.01838 0.0239274 -0.00159936)
(0.942598 0.0238024 -0.00320784)
(0.861381 0.030366 0.00199949)
(0.952053 -0.0576334 0.00417047)
(0.986554 -0.118553 -0.00329656)
(0.996476 -0.0929557 -0.000656333)
(1.06939 -0.032679 -0.000382425)
(1.01794 -0.00783922 -0.00343896)
(1.00844 0.0219277 -0.000119185)
(1.02027 0.03732 0.00367887)
(0.979823 -0.0125558 0.00128977)
(1.01853 -0.0411321 0.00189754)
(1.02877 -0.0232465 -0.00309595)
(1.05301 -0.151169 0.000265148)
(1.14907 -0.0529102 0.00147352)
(1.18001 0.0219312 -0.00317924)
(1.22017 0.0357142 0.000152984)
(1.06422 0.123373 0.00447783)
(1.11614 0.0951561 0.00162286)
(1.07116 0.0208885 -0.00631123)
(1.02672 0.104863 0.00203925)
(1.00006 0.137257 0.0012191)
(0.801603 0.0598861 -0.000177376)
(0.926321 -0.066358 0.0131932)
(1.01382 -0.0686343 0.00900281)
(1.04646 -0.0713007 0.00404696)
(1.23308 0.0125228 -0.00332301)
(1.14927 0.0358621 -0.00304163)
(1.07562 -0.00496214 -0.0040324)
(0.995762 0.114637 -0.00799948)
(0.964404 0.106152 -0.00484535)
(1.00889 -0.0315832 0.00640066)
(1.06658 -0.105286 -0.00396018)
(1.13564 -0.186502 -0.0103561)
(1.20564 -0.115239 0.00778481)
(1.31157 -0.0683245 0.00707965)
(1.24595 0.142619 -0.00281709)
(1.14256 0.151113 0.0151101)
(1.26106 0.0551479 0.0188011)
(1.16419 0.0976364 0.00579757)
(1.02541 0.0876669 -0.000693959)
(1.00747 0.20672 -0.00754246)
(0.728116 0.101472 0.00263865)
(0.849377 -0.102378 0.0314944)
(1.04032 -0.0956172 0.0308006)
(1.29593 -0.226087 0.0336314)
(1.41312 -0.155887 0.0109182)
(1.10623 0.0905075 -0.0240011)
(0.99054 0.122752 -0.0159)
(0.805157 0.0503523 0.010934)
(0.803054 -0.0391293 0.00754865)
(1.00571 -0.0657833 0.00295399)
(1.0941 -0.141809 -0.008356)
(1.22288 -0.335778 0.0293361)
(1.35884 -0.0582066 -0.0188869)
(1.42451 0.0758209 -0.0204496)
(1.41337 0.085155 -0.0265742)
(1.4432 0.198041 -0.0333328)
(1.22477 0.228304 0.0111443)
(1.30086 0.214296 0.0337531)
(1.21979 0.246225 0.00541133)
(0.989286 0.318366 -0.00841271)
(0.632679 0.21964 -0.00864239)
(0.606198 -0.0165371 0.025652)
(1.08321 -0.0934574 0.0389706)
(1.46664 -0.0730585 0.0106709)
(1.45851 0.239329 -0.0190739)
(1.16968 0.194488 -0.00824685)
(1.34844 0.0592505 0.0410145)
(1.54222 0.355703 0.00320218)
(1.20783 0.217915 -0.0247919)
(0.943966 -0.119417 -0.0280036)
(1.16474 -0.35547 0.0229425)
(1.36331 -0.277226 0.069125)
(1.5063 -0.324977 0.00421233)
(1.69366 -0.0221821 -0.0504229)
(1.68809 -0.0472813 -0.0619735)
(1.69223 -0.022014 0.00165929)
(2.08162 0.275983 -0.036618)
(1.37639 0.363608 -0.0634838)
(0.82214 0.279481 0.0234436)
(0.963568 0.56679 0.0403102)
(0.991984 0.298777 -0.00792596)
(1.01284 -0.29985 0.00825021)
(1.08067 -0.453873 0.00399015)
(1.14612 -0.390849 -0.00619117)
(1.38203 -0.0593412 -0.0252375)
(1.24123 0.0303462 -0.00607269)
(1.27994 0.163878 0.00275436)
(1.1645 0.219864 -0.0282316)
(0.778019 0.000120907 -0.0161305)
(0.779339 -0.330737 -0.0365018)
(0.993294 -0.167746 0.0382266)
(1.84824 -0.512825 -0.133178)
(2.10309 -0.777288 -0.0567351)
(1.98916 -0.138302 0.0672818)
(1.66204 0.036383 -0.00595407)
(1.43628 0.0274362 -0.0146424)
(1.177 0.272855 0.0228891)
(1.39316 0.616648 0.105897)
(1.58029 0.735286 0.0689395)
(1.46232 0.520356 -0.0452852)
(1.51556 0.14716 0.0518883)
(1.22783 -0.065319 0.0522675)
(0.954594 -0.141162 -0.0288025)
(0.644442 -0.237694 -0.00149938)
(1.07964 0.0181529 0.0487601)
(1.66088 0.279903 0.0222277)
(1.54025 0.246816 -0.0139706)
(1.40999 0.478668 -0.00299045)
(1.2059 0.33995 0.0160354)
(0.818844 -0.129008 -0.0807527)
(0.761061 -0.964182 -0.000924821)
(1.7231 -1.27208 0.00484726)
(-0.109143 -0.169925 -0.108339)