/*--------------------------------*- C++ -*----------------------------------*\
  =========                 |
  \\      /  F ield         | OpenFOAM: The Open Source CFD Toolbox
   \\    /   O peration     | Website:  https://openfoam.org
    \\  /    A nd           | Version:  8
     \\/     M anipulation  |
\*---------------------------------------------------------------------------*/
FoamFile
{
    version     2.0;
    format      ascii;
    class       volScalarField;
    location    "0.232";
    object      T;
}
// * * * * * * * * * * * * * * * * * * * * * * * * * * * * * * * * * * * * * //

dimensions      [0 0 0 1 0 0 0];

internalField   nonuniform List<scalar> 
100
(
49.9703
6.06965
-4.79674
-4.11126
-1.93314
-0.67746
-0.191494
-0.0448844
-0.00872157
-0.00121305
94.1152
48.9795
14.6221
0.321954
-2.4356
-1.68669
-0.756241
-0.267562
-0.0808046
-0.0178081
105.02
84.4201
49.5584
22.4115
8.1208
2.41191
0.590652
0.117028
0.0171018
0.00120185
103.941
103.335
78.7927
46.4206
21.999
8.69084
2.94211
0.871276
0.231282
0.0466996
101.231
110.942
95.6565
62.4916
32.1918
13.6225
4.8887
1.52327
0.423551
0.0887405
99.5729
113.388
103.227
70.4908
37.5824
16.3453
6.00003
1.90585
0.539105
0.114472
98.8676
114.031
106.033
73.7023
39.8475
17.5273
6.49504
2.07996
0.592711
0.126587
98.6253
114.171
106.925
74.7875
40.6386
17.9495
6.67484
2.14405
0.612661
0.131131
98.5556
114.193
107.172
75.1097
40.8845
18.0857
6.73489
2.16615
0.619762
0.132793
98.5358
114.197
107.237
75.1931
40.9452
18.1175
6.74794
2.1706
0.621071
0.133066
)
;

boundaryField
{
    left
    {
        type            fixedValue;
        value           uniform 100;
    }
    right
    {
        type            zeroGradient;
    }
    up
    {
        type            zeroGradient;
    }
    down
    {
        type            fixedValue;
        value           uniform 0;
    }
    frontAndBack
    {
        type            empty;
    }
}


// ************************************************************************* //
