/*--------------------------------*- C++ -*----------------------------------*\
  =========                 |
  \\      /  F ield         | OpenFOAM: The Open Source CFD Toolbox
   \\    /   O peration     | Website:  https://openfoam.org
    \\  /    A nd           | Version:  8
     \\/     M anipulation  |
\*---------------------------------------------------------------------------*/
FoamFile
{
    version     2.0;
    format      ascii;
    class       volScalarField;
    location    "1.66";
    object      p;
}
// * * * * * * * * * * * * * * * * * * * * * * * * * * * * * * * * * * * * * //

dimensions      [0 2 -2 0 0 0 0];

internalField   nonuniform List<scalar> 
400
(
-1.08246e-16
-3.02324e-16
-7.04099e-16
-1.03243e-15
-1.18004e-15
-1.20912e-15
-1.27469e-15
-1.3085e-15
-1.33257e-15
-1.33835e-15
-1.28391e-15
-1.25282e-15
-1.22754e-15
-1.12452e-15
-1.04805e-15
-1.01614e-15
-9.09128e-16
-6.98583e-16
-4.36066e-16
-2.26479e-16
-3.12429e-16
-4.47086e-16
-7.67257e-16
-1.08082e-15
-1.22337e-15
-1.22682e-15
-1.35171e-15
-1.39551e-15
-1.41618e-15
-1.4155e-15
-1.43273e-15
-1.40139e-15
-1.40918e-15
-1.2554e-15
-1.11441e-15
-1.12853e-15
-9.76456e-16
-7.36619e-16
-4.98055e-16
-3.83471e-16
-7.23459e-16
-7.76001e-16
-9.23964e-16
-1.1594e-15
-1.20538e-15
-1.19778e-15
-1.49077e-15
-1.59717e-15
-1.54923e-15
-1.59924e-15
-1.5729e-15
-1.55379e-15
-1.50282e-15
-1.43454e-15
-1.29274e-15
-1.2039e-15
-1.1023e-15
-7.6863e-16
-5.99301e-16
-6.25961e-16
-1.03545e-15
-9.69259e-16
-1.12744e-15
-1.23656e-15
-1.35339e-15
-1.32837e-15
-1.53911e-15
-1.59861e-15
-1.6681e-15
-1.69364e-15
-1.86964e-15
-1.74759e-15
-1.63996e-15
-1.477e-15
-1.41654e-15
-1.34607e-15
-1.19719e-15
-9.25836e-16
-7.57445e-16
-9.41611e-16
-1.21948e-15
-1.05773e-15
-1.27905e-15
-1.47186e-15
-1.52647e-15
-1.54218e-15
-1.55216e-15
-1.66781e-15
-1.77865e-15
-1.84097e-15
-1.90905e-15
-1.79692e-15
-1.67308e-15
-1.54064e-15
-1.53954e-15
-1.32614e-15
-1.42578e-15
-1.29921e-15
-1.36364e-15
-1.34759e-15
-1.43715e-15
-1.15653e-15
-1.31244e-15
-1.44377e-15
-1.58363e-15
-1.70473e-15
-1.92476e-15
-1.76826e-15
-1.90947e-15
-1.71866e-15
-1.90148e-15
-1.71208e-15
-1.75336e-15
-1.70429e-15
-1.57595e-15
-1.62937e-15
-1.97013e-15
-1.72304e-15
-1.82517e-15
-1.86562e-15
-1.79497e-15
-1.53554e-15
-1.55163e-15
-1.48505e-15
-1.60949e-15
-1.99151e-15
-2.12761e-15
-2.05709e-15
-1.96971e-15
-1.71243e-15
-1.91704e-15
-1.77527e-15
-1.64097e-15
-1.7458e-15
-1.8035e-15
-2.11186e-15
-2.35144e-15
-2.27397e-15
-2.3735e-15
-1.98859e-15
-2.2186e-15
-1.91573e-15
-1.78066e-15
-1.54794e-15
-1.7916e-15
-1.83666e-15
-2.23424e-15
-2.24823e-15
-2.05722e-15
-1.95806e-15
-1.77804e-15
-1.79353e-15
-1.80162e-15
-1.87698e-15
-1.85791e-15
-2.42069e-15
-2.72965e-15
-2.96643e-15
-2.58266e-15
-2.49625e-15
-2.66744e-15
-2.17351e-15
-1.8949e-15
-1.80931e-15
-1.89596e-15
-2.10675e-15
-2.07771e-15
-2.1505e-15
-2.10387e-15
-2.04153e-15
-1.54412e-15
-1.67658e-15
-2.108e-15
-2.33468e-15
-2.11646e-15
-2.85616e-15
-2.98233e-15
-3.17952e-15
-3.21517e-15
-3.19514e-15
-3.08251e-15
-2.65099e-15
-2.01256e-15
-1.80215e-15
-1.81755e-15
-2.35767e-15
-2.29719e-15
-2.12055e-15
-2.07633e-15
-2.07397e-15
-1.55525e-15
-1.79389e-15
-2.413e-15
-2.63017e-15
-2.66532e-15
-3.08036e-15
-2.91237e-15
-3.14054e-15
-3.7358e-15
-3.82573e-15
-3.76187e-15
-3.09073e-15
-2.19624e-15
-1.59727e-15
-1.64598e-15
-2.16023e-15
-2.25671e-15
-2.18141e-15
-2.07639e-15
-2.12491e-15
-1.59994e-15
-1.93404e-15
-2.3265e-15
-2.84222e-15
-2.93251e-15
-3.25108e-15
-3.098e-15
-3.27526e-15
-4.06843e-15
-4.1375e-15
-4.16077e-15
-3.04392e-15
-2.33231e-15
-1.84082e-15
-1.68338e-15
-1.99615e-15
-2.10685e-15
-2.05304e-15
-1.95493e-15
-2.1116e-15
-1.83843e-15
-2.10486e-15
-2.30417e-15
-2.70871e-15
-3.03472e-15
-3.04805e-15
-3.52613e-15
-3.50049e-15
-4.18149e-15
-4.89395e-15
-3.79139e-15
-3.30696e-15
-2.30259e-15
-1.72514e-15
-1.73678e-15
-1.92065e-15
-2.57427e-15
-2.20505e-15
-1.3814e-15
-1.52335e-15
-1.50839e-15
-2.50315e-15
-3.01526e-15
-2.9022e-15
-3.21286e-15
-2.84935e-15
-3.39207e-15
-4.16307e-15
-4.56193e-15
-4.79211e-15
-4.05767e-15
-3.38294e-15
-2.44035e-15
-1.85454e-15
-1.68533e-15
-1.8304e-15
-2.50738e-15
-2.43364e-15
-1.5464e-15
-1.10193e-15
-1.81573e-15
-2.98083e-15
-3.22909e-15
-3.35964e-15
-3.43369e-15
-3.37365e-15
-3.70783e-15
-3.93896e-15
-4.36165e-15
-4.7692e-15
-4.28716e-15
-3.83931e-15
-2.2107e-15
-1.5377e-15
-1.60212e-15
-1.77486e-15
-2.67926e-15
-2.6577e-15
-2.07887e-15
-1.8712e-15
-2.17435e-15
-3.09182e-15
-2.96586e-15
-3.11328e-15
-4.11102e-15
-4.08929e-15
-4.01231e-15
-4.06996e-15
-4.31094e-15
-4.71341e-15
-3.3863e-15
-3.51678e-15
-2.26928e-15
-1.64017e-15
-1.60907e-15
-1.64449e-15
-2.2303e-15
-2.42183e-15
-2.59422e-15
-2.74717e-15
-2.93817e-15
-3.67924e-15
-3.78585e-15
-3.32517e-15
-3.94307e-15
-4.49754e-15
-4.42235e-15
-4.97812e-15
-4.71864e-15
-4.33437e-15
-3.71082e-15
-3.39244e-15
-2.68894e-15
-2.08107e-15
-1.50387e-15
-1.33229e-15
-1.58092e-15
-2.2262e-15
-3.31396e-15
-2.90999e-15
-3.08936e-15
-4.32679e-15
-4.32295e-15
-3.79555e-15
-4.44887e-15
-4.33926e-15
-4.78945e-15
-4.5851e-15
-4.73689e-15
-4.51912e-15
-3.54541e-15
-3.07558e-15
-2.61827e-15
-2.05259e-15
-1.72913e-15
-1.58906e-15
-1.68078e-15
-2.47138e-15
-3.31851e-15
-3.17778e-15
-3.57611e-15
-3.84606e-15
-4.84658e-15
-4.8091e-15
-4.30947e-15
-4.07039e-15
-4.4872e-15
-4.11074e-15
-4.39387e-15
-4.14245e-15
-3.25278e-15
-3.04699e-15
-3.26916e-15
-2.31913e-15
-1.05004e-15
-9.91488e-16
-1.72332e-15
-2.11391e-15
-3.29e-15
-3.68436e-15
-3.63554e-15
-4.23699e-15
-5.38699e-15
-5.13492e-15
-4.28167e-15
-4.01319e-15
-3.86187e-15
-4.20189e-15
-4.61687e-15
-4.11142e-15
-3.481e-15
-2.7496e-15
-3.10882e-15
-3.28885e-15
-1.70666e-15
-8.58327e-16
-1.28419e-15
-1.21925e-15
-3.00043e-15
-4.45797e-15
-3.9341e-15
-3.7439e-15
-5.84864e-15
-5.62332e-15
-4.52085e-15
-3.68568e-15
-3.90749e-15
-4.18028e-15
-4.42892e-15
-4.46749e-15
)
;

boundaryField
{
    movingWall
    {
        type            zeroGradient;
    }
    fixedWalls
    {
        type            zeroGradient;
    }
    left
    {
        type            cyclic;
    }
    right
    {
        type            cyclic;
    }
    frontAndBack
    {
        type            empty;
    }
}


// ************************************************************************* //
