/*--------------------------------*- C++ -*----------------------------------*\
  =========                 |
  \\      /  F ield         | OpenFOAM: The Open Source CFD Toolbox
   \\    /   O peration     | Website:  https://openfoam.org
    \\  /    A nd           | Version:  8
     \\/     M anipulation  |
\*---------------------------------------------------------------------------*/
FoamFile
{
    version     2.0;
    format      ascii;
    class       surfaceScalarField;
    location    "1.66";
    object      phi;
}
// * * * * * * * * * * * * * * * * * * * * * * * * * * * * * * * * * * * * * //

dimensions      [0 3 -1 0 0 0 0];

internalField   nonuniform List<scalar> 
760
(
1.24961e-06
2.22707e-21
1.24961e-06
1.97557e-21
1.24961e-06
1.83203e-21
1.24961e-06
1.28412e-21
1.24961e-06
5.64417e-22
1.24961e-06
-1.73778e-22
1.24961e-06
-2.72274e-22
1.24961e-06
-5.88832e-22
1.24961e-06
-9.7175e-22
1.24961e-06
-1.19557e-21
1.24961e-06
-9.58213e-22
1.24961e-06
-1.0864e-21
1.24961e-06
-1.11221e-21
1.24961e-06
-1.3969e-21
1.24961e-06
-1.4828e-21
1.24961e-06
-7.01121e-22
1.24961e-06
-1.42278e-22
1.24961e-06
4.59241e-22
1.24961e-06
1.23026e-21
1.63877e-21
3.74885e-06
6.75158e-21
3.74885e-06
6.45545e-21
3.74885e-06
5.03369e-21
3.74885e-06
2.95758e-21
3.74885e-06
6.25318e-22
3.74885e-06
-1.04361e-21
3.74885e-06
-1.23068e-21
3.74885e-06
-1.94194e-21
3.74885e-06
-3.24108e-21
3.74885e-06
-3.50641e-21
3.74885e-06
-4.00444e-21
3.74885e-06
-4.09812e-21
3.74885e-06
-4.43562e-21
3.74885e-06
-3.61381e-21
3.74885e-06
-2.67691e-21
3.74885e-06
-1.81234e-21
3.74885e-06
4.51071e-22
3.74885e-06
1.88901e-21
3.74885e-06
3.83579e-21
5.40032e-21
6.24812e-06
1.17046e-20
6.24812e-06
1.06909e-20
6.24812e-06
8.87762e-21
6.24812e-06
4.96476e-21
6.24812e-06
1.90341e-21
6.24812e-06
-1.09201e-21
6.24812e-06
-4.01372e-21
6.24812e-06
-6.37617e-21
6.24812e-06
-7.41682e-21
6.24812e-06
-8.63453e-21
6.24812e-06
-7.68834e-21
6.24812e-06
-8.23354e-21
6.24812e-06
-7.81763e-21
6.24812e-06
-6.98415e-21
6.24812e-06
-4.34469e-21
6.24812e-06
-1.17561e-21
6.24812e-06
2.10536e-21
6.24812e-06
5.99784e-21
6.24812e-06
8.76005e-21
1.14443e-20
8.74743e-06
1.72371e-20
8.74743e-06
1.50636e-20
8.74743e-06
1.16498e-20
8.74743e-06
7.18488e-21
8.74743e-06
1.70513e-21
8.74743e-06
-2.31272e-21
8.74743e-06
-7.29633e-21
8.74743e-06
-1.02147e-20
8.74743e-06
-1.25947e-20
8.74743e-06
-1.38823e-20
8.74743e-06
-1.51359e-20
8.74743e-06
-1.41915e-20
8.74743e-06
-1.24203e-20
8.74743e-06
-8.82349e-21
8.74743e-06
-4.29505e-21
8.74743e-06
-3.96546e-22
8.74743e-06
6.36078e-21
8.74743e-06
1.21775e-20
8.74743e-06
1.74911e-20
1.83878e-20
1.12468e-05
2.25934e-20
1.12468e-05
1.85958e-20
1.12468e-05
1.2918e-20
1.12468e-05
5.58519e-21
1.12468e-05
-4.47128e-22
1.12468e-05
-5.48485e-21
1.12468e-05
-9.01509e-21
1.12468e-05
-1.48112e-20
1.12468e-05
-1.76991e-20
1.12468e-05
-2.11902e-20
1.12468e-05
-2.07309e-20
1.12468e-05
-1.99697e-20
1.12468e-05
-1.50011e-20
1.12468e-05
-8.86867e-21
1.12468e-05
-3.10981e-21
1.12468e-05
4.81768e-21
1.12468e-05
1.28396e-20
1.12468e-05
1.80135e-20
1.12468e-05
2.2674e-20
2.51016e-20
1.37463e-05
2.64933e-20
1.37463e-05
2.17303e-20
1.37463e-05
1.38936e-20
1.37463e-05
4.8668e-21
1.37463e-05
-2.9416e-21
1.37463e-05
-8.09604e-21
1.37463e-05
-1.42281e-20
1.37463e-05
-1.81011e-20
1.37463e-05
-2.26883e-20
1.37463e-05
-2.49401e-20
1.37463e-05
-2.49601e-20
1.37463e-05
-2.21847e-20
1.37463e-05
-1.76311e-20
1.37463e-05
-8.73537e-21
1.37463e-05
8.39029e-22
1.37463e-05
1.02578e-20
1.37463e-05
1.68244e-20
1.37463e-05
2.41559e-20
1.37463e-05
2.84886e-20
2.70764e-20
1.62458e-05
2.7322e-20
1.62458e-05
2.09376e-20
1.62458e-05
1.20576e-20
1.62458e-05
2.50725e-21
1.62458e-05
-4.75118e-21
1.62458e-05
-1.38071e-20
1.62458e-05
-1.79202e-20
1.62458e-05
-2.19187e-20
1.62458e-05
-2.57513e-20
1.62458e-05
-2.64706e-20
1.62458e-05
-2.83642e-20
1.62458e-05
-2.33892e-20
1.62458e-05
-1.56202e-20
1.62458e-05
-6.25487e-21
1.62458e-05
3.25219e-21
1.62458e-05
1.34072e-20
1.62458e-05
2.10487e-20
1.62458e-05
2.93047e-20
1.62458e-05
2.97921e-20
3.16218e-20
1.87455e-05
2.65151e-20
1.87455e-05
1.819e-20
1.87455e-05
8.69796e-21
1.87455e-05
9.55784e-22
1.87455e-05
-7.92495e-21
1.87455e-05
-1.31489e-20
1.87455e-05
-2.08333e-20
1.87455e-05
-2.47748e-20
1.87455e-05
-2.71306e-20
1.87455e-05
-2.85726e-20
1.87455e-05
-2.90727e-20
1.87455e-05
-2.3566e-20
1.87455e-05
-1.30032e-20
1.87455e-05
-2.06104e-21
1.87455e-05
7.06179e-21
1.87455e-05
1.68622e-20
1.87455e-05
2.29782e-20
1.87455e-05
2.80523e-20
1.87455e-05
3.33625e-20
3.26221e-20
2.12452e-05
2.4467e-20
2.12452e-05
1.71904e-20
2.12452e-05
6.31288e-21
2.12452e-05
-2.86382e-21
2.12452e-05
-1.02808e-20
2.12452e-05
-1.39411e-20
2.12452e-05
-1.84604e-20
2.12452e-05
-2.35893e-20
2.12452e-05
-2.67382e-20
2.12452e-05
-2.7443e-20
2.12452e-05
-2.54099e-20
2.12452e-05
-1.93872e-20
2.12452e-05
-1.0546e-20
2.12452e-05
-1.46685e-21
2.12452e-05
9.43864e-21
2.12452e-05
1.6335e-20
2.12452e-05
2.13974e-20
2.12452e-05
2.59205e-20
2.12452e-05
3.11533e-20
3.03527e-20
2.37451e-05
2.21751e-20
2.37451e-05
1.41902e-20
2.37451e-05
4.95061e-21
2.37451e-05
-4.75857e-21
2.37451e-05
-1.0324e-20
2.37451e-05
-1.532e-20
2.37451e-05
-1.83544e-20
2.37451e-05
-2.1284e-20
2.37451e-05
-2.41252e-20
2.37451e-05
-2.38768e-20
2.37451e-05
-2.13303e-20
2.37451e-05
-1.51005e-20
2.37451e-05
-9.39402e-21
2.37451e-05
-5.79221e-22
2.37451e-05
7.7701e-21
2.37451e-05
1.49129e-20
2.37451e-05
2.0975e-20
2.37451e-05
2.47165e-20
2.37451e-05
2.63638e-20
2.42538e-20
2.62451e-05
1.49098e-20
2.62451e-05
7.28862e-21
2.62451e-05
2.73027e-21
2.62451e-05
-1.62689e-21
2.62451e-05
-7.13588e-21
2.62451e-05
-1.22565e-20
2.62451e-05
-1.61683e-20
2.62451e-05
-1.97959e-20
2.62451e-05
-2.12316e-20
2.62451e-05
-2.00438e-20
2.62451e-05
-1.49548e-20
2.62451e-05
-9.68328e-21
2.62451e-05
-4.62207e-21
2.62451e-05
3.61732e-22
2.62451e-05
7.00514e-21
2.62451e-05
1.05549e-20
2.62451e-05
1.94776e-20
2.62451e-05
2.08863e-20
2.62451e-05
1.97687e-20
2.07981e-20
2.87452e-05
3.04648e-21
2.87452e-05
4.11716e-21
2.87452e-05
-4.94462e-22
2.87452e-05
-3.9205e-21
2.87452e-05
-5.93399e-21
2.87452e-05
-9.94088e-21
2.87452e-05
-1.00782e-20
2.87452e-05
-1.4047e-20
2.87452e-05
-1.91539e-20
2.87452e-05
-1.78787e-20
2.87452e-05
-1.19356e-20
2.87452e-05
-1.98842e-21
2.87452e-05
5.43758e-21
2.87452e-05
6.45293e-21
2.87452e-05
9.21687e-21
2.87452e-05
9.62434e-21
2.87452e-05
1.22578e-20
2.87452e-05
1.7497e-20
2.87452e-05
1.40325e-20
8.00236e-21
3.12455e-05
-4.94689e-22
3.12455e-05
-2.17053e-21
3.12455e-05
-2.68607e-21
3.12455e-05
-4.14573e-21
3.12455e-05
-7.47532e-21
3.12455e-05
-9.98369e-21
3.12455e-05
-1.15625e-20
3.12455e-05
-9.98521e-21
3.12455e-05
-9.05377e-21
3.12455e-05
-9.31352e-21
3.12455e-05
-1.10466e-21
3.12455e-05
5.18202e-21
3.12455e-05
7.86033e-21
3.12455e-05
1.21982e-20
3.12455e-05
1.17898e-20
3.12455e-05
1.38291e-20
3.12455e-05
1.14212e-20
3.12455e-05
6.08652e-21
3.12455e-05
3.23007e-21
5.70305e-22
3.37458e-05
-5.80193e-21
3.37458e-05
-4.75367e-21
3.37458e-05
-8.0646e-21
3.37458e-05
-8.46569e-21
3.37458e-05
-8.92766e-21
3.37458e-05
-1.04359e-20
3.37458e-05
-9.52999e-21
3.37458e-05
-7.42262e-21
3.37458e-05
-1.63392e-21
3.37458e-05
4.26025e-21
3.37458e-05
5.92946e-21
3.37458e-05
8.20298e-21
3.37458e-05
8.72644e-21
3.37458e-05
9.79956e-21
3.37458e-05
1.56402e-20
3.37458e-05
1.43178e-20
3.37458e-05
9.23983e-21
3.37458e-05
4.33118e-21
3.37458e-05
-1.08899e-21
-5.60089e-21
3.62463e-05
-1.40523e-20
3.62463e-05
-1.06987e-20
3.62463e-05
-6.97213e-21
3.62463e-05
-6.20145e-21
3.62463e-05
-7.9029e-21
3.62463e-05
-1.14068e-20
3.62463e-05
-1.38709e-20
3.62463e-05
-8.95647e-21
3.62463e-05
9.48903e-22
3.62463e-05
8.29649e-21
3.62463e-05
1.20485e-20
3.62463e-05
1.3567e-20
3.62463e-05
1.71722e-20
3.62463e-05
1.38778e-20
3.62463e-05
9.98114e-21
3.62463e-05
1.13109e-20
3.62463e-05
7.7753e-21
3.62463e-05
6.46838e-21
3.62463e-05
-1.24827e-21
-8.91352e-21
3.87468e-05
-4.19151e-21
3.87468e-05
-7.3439e-21
3.87468e-05
-3.29305e-21
3.87468e-05
-2.91502e-21
3.87468e-05
-7.12661e-21
3.87468e-05
-1.07807e-20
3.87468e-05
-1.38741e-20
3.87468e-05
-8.05121e-21
3.87468e-05
3.14579e-21
3.87468e-05
4.92901e-21
3.87468e-05
8.03358e-21
3.87468e-05
1.39638e-20
3.87468e-05
1.49367e-20
3.87468e-05
1.52306e-20
3.87468e-05
1.29377e-20
3.87468e-05
6.10538e-21
3.87468e-05
5.47667e-21
3.87468e-05
-3.41476e-21
3.87468e-05
-3.64397e-21
-3.92493e-21
4.12474e-05
-3.24337e-21
4.12474e-05
-5.2423e-21
4.12474e-05
-4.87019e-21
4.12474e-05
-4.36305e-21
4.12474e-05
-3.00493e-21
4.12474e-05
-4.30834e-21
4.12474e-05
-6.15318e-21
4.12474e-05
-3.7536e-21
4.12474e-05
-5.43845e-22
4.12474e-05
4.30254e-21
4.12474e-05
8.21798e-21
4.12474e-05
4.33446e-21
4.12474e-05
1.30155e-20
4.12474e-05
1.61503e-20
4.12474e-05
7.46311e-21
4.12474e-05
2.55224e-21
4.12474e-05
-7.66585e-22
4.12474e-05
-4.40675e-21
4.12474e-05
-4.4951e-21
-4.5104e-21
4.37481e-05
-1.5658e-21
4.37481e-05
-1.93754e-21
4.37481e-05
2.21862e-22
4.37481e-05
-1.59248e-21
4.37481e-05
-6.52989e-21
4.37481e-05
-6.62939e-21
4.37481e-05
-3.52351e-21
4.37481e-05
-5.66663e-21
4.37481e-05
-9.38521e-22
4.37481e-05
5.18054e-21
4.37481e-05
3.61843e-21
4.37481e-05
6.42726e-21
4.37481e-05
9.18597e-21
4.37481e-05
8.68054e-21
4.37481e-05
4.4237e-21
4.37481e-05
1.33641e-21
4.37481e-05
-3.88794e-21
4.37481e-05
1.06026e-22
4.37481e-05
1.12658e-21
3.99116e-22
4.62489e-05
1.88447e-21
4.62489e-05
-2.68556e-21
4.62489e-05
-2.82854e-21
4.62489e-05
3.44481e-21
4.62489e-05
2.437e-21
4.62489e-05
-1.38816e-21
4.62489e-05
-4.5187e-21
4.62489e-05
-6.72332e-21
4.62489e-05
-2.34564e-21
4.62489e-05
5.58691e-21
4.62489e-05
3.30072e-21
4.62489e-05
-9.27163e-22
4.62489e-05
4.65006e-21
4.62489e-05
5.45295e-21
4.62489e-05
3.17299e-21
4.62489e-05
-1.0257e-21
4.62489e-05
2.07671e-22
4.62489e-05
9.53083e-23
4.62489e-05
-5.02697e-23
3.32108e-21
4.87496e-05
4.87496e-05
4.87496e-05
4.87496e-05
4.87496e-05
4.87496e-05
4.87496e-05
4.87496e-05
4.87496e-05
4.87496e-05
4.87496e-05
4.87496e-05
4.87496e-05
4.87496e-05
4.87496e-05
4.87496e-05
4.87496e-05
4.87496e-05
4.87496e-05
)
;

boundaryField
{
    movingWall
    {
        type            calculated;
        value           uniform 0;
    }
    fixedWalls
    {
        type            calculated;
        value           uniform 0;
    }
    left
    {
        type            cyclic;
        value           nonuniform List<scalar> 
20
(
-3.87468e-05
-3.62463e-05
-3.37458e-05
-3.12455e-05
-2.87452e-05
-2.62451e-05
-2.37451e-05
-2.12452e-05
-1.87455e-05
-1.62458e-05
-1.37463e-05
-1.12468e-05
-8.74743e-06
-6.24812e-06
-3.74885e-06
-1.24961e-06
-4.12474e-05
-4.37481e-05
-4.62489e-05
-4.87496e-05
)
;
    }
    right
    {
        type            cyclic;
        value           nonuniform List<scalar> 
20
(
3.87468e-05
3.62463e-05
3.37458e-05
3.12455e-05
2.87452e-05
2.62451e-05
2.37451e-05
2.12452e-05
1.87455e-05
1.62458e-05
1.37463e-05
1.12468e-05
8.74743e-06
6.24812e-06
3.74885e-06
1.24961e-06
4.12474e-05
4.37481e-05
4.62489e-05
4.87496e-05
)
;
    }
    frontAndBack
    {
        type            empty;
        value           nonuniform List<scalar> 0();
    }
}


// ************************************************************************* //
