/*--------------------------------*- C++ -*----------------------------------*\
  =========                 |
  \\      /  F ield         | OpenFOAM: The Open Source CFD Toolbox
   \\    /   O peration     | Website:  https://openfoam.org
    \\  /    A nd           | Version:  8
     \\/     M anipulation  |
\*---------------------------------------------------------------------------*/
FoamFile
{
    version     2.0;
    format      ascii;
    class       volScalarField;
    location    "0.923";
    object      T;
}
// * * * * * * * * * * * * * * * * * * * * * * * * * * * * * * * * * * * * * //

dimensions      [0 0 0 1 0 0 0];

internalField   nonuniform List<scalar> 
10000
(
49.9973
4.65218
-4.65198
-1.17204
1.17228
0.447533
-0.446427
-0.209782
0.209849
0.117938
-0.114906
-0.0764608
0.0746086
0.0469838
-0.0415086
-0.0446731
0.0378476
0.0266351
-0.0179492
-0.031097
0.0175114
0.0238725
-0.00952398
-0.021697
0.00257533
0.0225127
-0.00109312
-0.0171684
-0.00539701
0.0154063
0.00889629
-0.0124569
-0.0103755
0.00673354
0.0130176
-0.00261168
-0.0129377
-0.00175584
0.010673
0.00652529
-0.00796013
-0.00920574
0.00376403
0.00993218
0.00129411
-0.00908694
-0.00539987
0.00610542
0.00792171
-0.00160246
-0.00844012
-0.00295039
0.00652386
0.00631113
-0.00265253
-0.00746274
-0.00191618
0.00600199
0.00553413
-0.00246203
-0.00667384
-0.00194972
0.0049575
0.00540487
-0.00134827
-0.00601623
-0.00267558
0.00345336
0.00539024
0.00053572
-0.00505763
-0.00372504
0.00151742
0.00477005
0.00275402
-0.00313224
-0.00458541
-0.000641675
0.00307748
0.00413056
8.19769e-05
-0.00429111
-0.00265471
0.000714165
0.00327822
0.00325241
-0.00162019
-0.00377331
-0.00135747
0.000649449
0.00332127
0.00259739
-0.00224144
-0.00268126
-0.00113585
-3.13531e-05
0.00339476
0.00224548
-0.00201722
-0.00152359
95.3552
49.995
10.4781
-4.65428
-2.79021
1.1698
1.10449
-0.446918
-0.537985
0.208067
0.307292
-0.110628
-0.201175
0.0728199
0.129488
-0.0314221
-0.112236
0.0318343
0.0740952
-0.00385907
-0.0725302
0.00266626
0.0565014
0.00794007
-0.0456967
-0.019715
0.0417104
0.021271
-0.0278906
-0.0291074
0.0186524
0.0325248
-0.00958862
-0.0303244
-0.00323467
0.028652
0.0123626
-0.0226785
-0.0188792
0.01262
0.0238215
-0.00264791
-0.0236031
-0.00719683
0.0183235
0.0157903
-0.0101685
-0.0199747
0.000181232
0.0186143
0.00966218
-0.0125267
-0.0162156
0.00332447
0.017125
0.00652552
-0.012148
-0.0138335
0.00337999
0.015448
0.00598613
-0.0103503
-0.0127191
0.00124599
0.0136507
0.00733837
-0.00751221
-0.01201
-0.00235026
0.0108302
0.00967283
-0.00353379
-0.0106204
-0.00618624
0.00586013
0.0113081
0.00169897
-0.00775099
-0.00828606
-0.000962702
0.00941563
0.00733747
-0.0030542
-0.00721752
-0.00623239
0.00221547
0.00973522
0.00337191
-0.00367173
-0.005902
-0.0057142
0.00383555
0.00843543
0.00132197
-0.00188724
-0.00523481
-0.00618236
0.00412733
0.00653296
0.000946255
104.644
89.5324
49.9944
12.0995
-4.65466
-3.44458
1.16878
1.43376
-0.445362
-0.728367
0.20642
0.428683
-0.104832
-0.288872
0.0687103
0.191698
-0.0207416
-0.164291
0.0214007
0.114063
0.0111016
-0.105025
-0.0160825
0.0833213
0.0278198
-0.0637383
-0.0434404
0.0538042
0.0454882
-0.0327149
-0.0522026
0.0153034
0.0541523
-0.000389398
-0.0470454
-0.0177724
0.0388231
0.0305414
-0.0259608
-0.0369375
0.00808108
0.0390249
0.00863746
-0.0335379
-0.0221317
0.0205567
0.0311931
-0.00448844
-0.0322511
-0.0112478
0.0241263
0.023678
-0.0099255
-0.0286211
-0.00587948
0.0234172
0.0191799
-0.0102687
-0.02539
-0.00517346
0.0208563
0.0176211
-0.00731888
-0.0226726
-0.00792767
0.0169027
0.01785
-0.00212774
-0.0190786
-0.0126612
0.0107574
0.0182447
0.00418854
-0.0129308
-0.0165999
0.00147255
0.0166082
0.0100261
-0.00423143
-0.0154352
-0.00945067
0.00994319
0.0135196
0.00410854
-0.00698203
-0.0150341
-0.00300501
0.0117388
0.0089405
0.00309856
-0.00763515
-0.0140169
0.000727604
0.00938695
0.00631614
0.00517237
-0.00747424
-0.0129084
0.0016906
0.00513695
101.181
104.641
87.9144
49.9912
12.7571
-4.65708
-3.7715
1.16588
1.6247
-0.44365
-0.851799
0.204417
0.512042
-0.095907
-0.357526
0.0650943
0.238058
-0.00559247
-0.209175
0.00992082
0.146108
0.0291469
-0.13145
-0.037949
0.105173
0.0491237
-0.0752412
-0.0691107
0.0600028
0.0700878
-0.0315915
-0.0737441
0.0056173
0.073154
0.0138726
-0.0592559
-0.035835
0.0429096
0.050431
-0.0228139
-0.0539639
-0.00253454
0.0505188
0.0245664
-0.0378058
-0.0390217
0.0161515
0.04533
0.00718323
-0.0401444
-0.0264206
0.0232206
0.0380691
-0.000936805
-0.0375222
-0.0195225
0.0234319
0.0328563
-0.00198247
-0.0336172
-0.0179338
0.019724
0.029866
0.00201639
-0.028834
-0.020153
0.0132086
0.0273371
0.00918492
-0.0214869
-0.023998
0.00408154
0.0229849
0.0164743
-0.00960612
-0.0255976
-0.00735099
0.0153141
0.019423
0.0053401
-0.0190368
-0.0185328
0.00399767
0.015337
0.0153557
-0.00180612
-0.0211218
-0.0100325
0.00637417
0.012557
0.0143339
-0.00562134
-0.0190155
-0.00492543
0.00293037
0.0105998
0.0153641
-0.00651863
-0.0149509
-0.00318008
98.8181
102.804
104.64
87.2618
49.9895
13.0885
-4.65818
-3.95968
1.16345
1.74814
-0.440448
-0.938998
0.201776
0.57415
-0.0851982
-0.41296
0.0593535
0.276016
0.0113554
-0.246817
-0.00490185
0.173484
0.0490735
-0.152103
-0.0625983
0.121887
0.0722969
-0.0813804
-0.0952165
0.0598641
0.0945707
-0.0248579
-0.093066
-0.00934209
0.0881179
0.032592
-0.0664104
-0.0560498
0.0407087
0.0701371
-0.0131888
-0.0684977
-0.0181829
0.0569525
0.0433443
-0.0354543
-0.0559791
0.00546226
0.0561003
0.0234156
-0.0419269
-0.0433681
0.0156538
0.0503048
0.0132746
-0.0406281
-0.0356163
0.0166011
0.0447914
0.0114435
-0.0358708
-0.0327077
0.0114559
0.0399267
0.0157808
-0.0285776
-0.032654
0.00223503
0.0332959
0.0236009
-0.017472
-0.0326468
-0.00884333
0.0220318
0.0298807
-0.00104222
-0.0289288
-0.0187602
0.00640169
0.0270069
0.0178142
-0.0164339
-0.0242067
-0.00819285
0.0114957
0.0266629
0.00657787
-0.0201548
-0.0162282
-0.00618861
0.0126614
0.0250901
-0.000150754
-0.0163188
-0.0113347
-0.009741
0.0123019
0.0231794
-0.00212312
-0.00888713
99.5633
98.8144
103.462
104.635
86.9359
49.9855
13.2814
-4.66052
-4.08063
1.16008
1.83443
-0.435643
-1.00686
0.199559
0.621131
-0.0706064
-0.462148
0.0534724
0.306222
0.0317779
-0.279975
-0.0223704
0.196791
0.0705768
-0.166955
-0.090337
0.134261
0.0963541
-0.0819786
-0.121162
0.0534973
0.118321
-0.0132133
-0.109028
-0.0289664
0.0982508
0.0547306
-0.0681179
-0.0768167
0.0320468
0.0881105
0.00234918
-0.0791583
-0.0374325
0.0571858
0.0631912
-0.0262814
-0.071026
-0.0105207
0.0615688
0.0425153
-0.036721
-0.0598244
0.00207334
0.057871
0.0310926
-0.0365936
-0.0517573
0.00356486
0.0520935
0.0281609
-0.0305441
-0.0470125
-0.00289989
0.0449004
0.0313538
-0.0203288
-0.042864
-0.014305
0.033594
0.0372761
-0.00620611
-0.0358624
-0.02578
0.0150752
0.039827
0.011473
-0.0238008
-0.0303472
-0.00828674
0.0296723
0.0288301
-0.00618576
-0.0239088
-0.0239297
0.00285203
0.0328747
0.0156131
-0.00992584
-0.0195675
-0.0222936
0.0087776
0.0295935
0.0076399
-0.00457826
-0.0165034
-0.0238812
0.0101942
0.0232439
0.00491811
100.435
98.9118
98.813
103.795
104.632
86.7501
49.9821
13.4081
-4.6621
-4.16483
1.15667
1.89977
-0.429075
-1.06263
0.196957
0.658974
-0.0531856
-0.506379
0.0460366
0.331584
0.0546574
-0.308699
-0.0429683
0.216731
0.0935298
-0.176491
-0.120361
0.141874
0.121219
-0.0774999
-0.146026
0.0411454
0.140366
0.00304333
-0.121053
-0.0521631
0.10277
0.0790697
-0.064
-0.0968002
0.0173197
0.102781
0.0228557
-0.0846651
-0.0588005
0.0506941
0.0821765
-0.0107334
-0.0821487
-0.0304932
0.0604033
0.0624846
-0.0245647
-0.0732646
-0.0163414
0.0587998
0.0505281
-0.0252985
-0.0651164
-0.0142454
0.0523254
0.046049
-0.0176143
-0.0580343
-0.0210884
0.0422399
0.0461137
-0.00432835
-0.0485233
-0.0329556
0.0265347
0.0466205
0.0116147
-0.0324719
-0.0426217
0.00288694
0.0419858
0.0261381
-0.0101296
-0.0391424
-0.0246625
0.0246352
0.0345642
0.0109782
-0.017289
-0.0382637
-0.00835111
0.0295194
0.0229595
0.00824087
-0.0189319
-0.035788
0.00124356
0.0237217
0.0161035
0.0134454
-0.0185072
-0.032959
0.00387472
0.0129438
100.221
100.43
98.5857
98.8085
103.989
104.626
86.6316
49.977
13.4984
-4.66405
-4.22898
1.15312
1.95102
-0.419818
-1.11263
0.195112
0.688961
-0.0316512
-0.548378
0.037625
0.3527
0.0799955
-0.333222
-0.0670883
0.234075
0.117176
-0.180399
-0.152432
0.144717
0.146511
-0.0683864
-0.168742
0.0229064
0.159995
0.0233194
-0.128577
-0.0777165
0.101008
0.104404
-0.0540038
-0.114681
-0.00272028
0.112684
0.0471283
-0.0840542
-0.0807024
0.0375491
0.0982977
0.0102352
-0.0875509
-0.0529088
0.0520678
0.0810323
-0.00625319
-0.0812146
-0.0380803
0.0521093
0.069172
-0.00771681
-0.0727315
-0.0350328
0.0441986
0.062722
0.00133973
-0.0627606
-0.0404128
0.0305562
0.0577873
0.0170494
-0.0475595
-0.0495465
0.0112964
0.0493612
0.0332339
-0.0227044
-0.0542262
-0.0132453
0.0339461
0.0405963
0.0091823
-0.0417355
-0.0379513
0.0104469
0.0331144
0.0315349
-0.00593992
-0.0452429
-0.0195915
0.0148542
0.0270169
0.0292725
-0.0139228
-0.0402295
-0.00902252
0.00714324
0.0231805
0.0314532
-0.0157319
-0.0314072
-0.00595394
99.7787
100.555
100.426
98.4014
98.8057
104.118
104.62
86.5512
49.972
13.569
-4.6654
-4.28059
1.14968
1.99356
-0.407852
-1.15915
0.193593
0.713368
-0.00636419
-0.588616
0.0276865
0.370625
0.10737
-0.35348
-0.0947913
0.248958
0.141305
-0.178871
-0.185796
0.142493
0.171898
-0.0550359
-0.18846
-0.00075258
0.176288
0.0470993
-0.131251
-0.104326
0.0925932
0.129362
-0.038212
-0.129334
-0.0269508
0.116558
0.0737089
-0.0766851
-0.101573
0.0184433
0.109574
0.0352903
-0.0858716
-0.076043
0.0368972
0.0956501
0.0169204
-0.0816873
-0.0613588
0.0380169
0.084192
0.0145043
-0.0721048
-0.056853
0.0280591
0.0754003
0.0236929
-0.0585169
-0.058414
0.010428
0.0643353
0.0397681
-0.0381559
-0.0605459
-0.0112836
0.0448945
0.0538862
-0.0075156
-0.0560393
-0.0317001
0.0164094
0.0516791
0.0292162
-0.0349476
-0.0445289
-0.0117908
0.0249213
0.0494853
0.00764036
-0.0400684
-0.028907
-0.00869686
0.0268573
0.0457152
-0.0045942
-0.0316809
-0.0204858
-0.0158208
0.0264901
0.0418688
-0.00738964
-0.0173437
99.8933
99.7744
100.748
100.417
98.2835
98.8002
104.211
104.611
86.4915
49.9659
13.6269
-4.6663
-4.32566
1.1468
2.02904
-0.392245
-1.20501
0.193037
0.73264
0.0230496
-0.627758
0.0159185
0.386137
0.136119
-0.368939
-0.12645
0.261725
0.165452
-0.171984
-0.219628
0.134808
0.197177
-0.0380503
-0.204257
-0.029288
0.188366
0.0738351
-0.12896
-0.130549
0.0773374
0.152598
-0.0169716
-0.139798
-0.0539437
0.113363
0.101059
-0.0624223
-0.119813
-0.0054509
0.114192
0.0629087
-0.0764961
-0.0978828
0.015898
0.103861
0.0434394
-0.0737098
-0.083935
0.0177286
0.0925809
0.0395522
-0.0620056
-0.0774503
0.00581292
0.0809574
0.0466889
-0.0439287
-0.0730461
-0.0152999
0.0636196
0.0593988
-0.0193437
-0.0640651
-0.0380082
0.0337639
0.0678436
0.0120173
-0.0459434
-0.0501555
-0.00681835
0.0554415
0.0449535
-0.0171394
-0.0431441
-0.0377028
0.0120425
0.05796
0.0212406
-0.0214187
-0.0350625
-0.0346273
0.0217968
0.0505107
0.00856803
-0.0109073
-0.0308127
-0.0373951
0.0237395
0.0390718
0.00595016
100.105
99.7091
99.7741
100.878
100.409
98.205
98.7956
104.285
104.602
86.4458
49.9595
13.6777
-4.66624
-4.36678
1.1447
2.05935
-0.372739
-1.25132
0.19337
0.747594
0.0564582
-0.665832
0.00189201
0.39985
0.165705
-0.379213
-0.162083
0.272361
0.189374
-0.159988
-0.252991
0.121347
0.222008
-0.0179348
-0.215427
-0.0619149
0.195383
0.102858
-0.121649
-0.155048
0.0554121
0.17276
0.00907213
-0.145167
-0.0822318
0.102532
0.127518
-0.0416732
-0.133705
-0.0328163
0.110905
0.0913107
-0.0596471
-0.116026
-0.00970637
0.103806
0.0715089
-0.0575637
-0.102904
-0.00719073
0.0918821
0.0655856
-0.0430256
-0.0938696
-0.0198606
0.0765445
0.0681167
-0.0198996
-0.0822257
-0.0421929
0.0534334
0.0726268
0.0079245
-0.0598813
-0.0633878
0.0166978
0.0703386
0.0346137
-0.0253678
-0.0649911
-0.0302577
0.047988
0.053186
0.0102741
-0.0348266
-0.0601167
-0.00326189
0.0517622
0.0334964
0.00720026
-0.0369648
-0.0543085
0.0110824
0.0400583
0.0242131
0.0163554
-0.0368042
-0.0492888
0.0133373
0.0220979
100.086
100.096
99.5893
99.7704
100.97
100.397
98.1473
98.7891
104.347
104.591
86.408
49.9525
13.7232
-4.66488
-4.40668
1.14392
2.08487
-0.348679
-1.29932
0.194725
0.758662
0.0936261
-0.702522
-0.0150571
0.412514
0.195349
-0.383738
-0.201674
0.280717
0.212966
-0.14336
-0.284748
0.10176
0.24604
0.00483758
-0.221505
-0.0975511
0.19647
0.133456
-0.109355
-0.176676
0.0274681
0.188402
0.0390997
-0.144662
-0.110448
0.0841979
0.151143
-0.0151746
-0.141596
-0.0623665
0.0994158
0.118195
-0.0360765
-0.127963
-0.0387434
0.0948621
0.0986639
-0.0344291
-0.11497
-0.0353523
0.0811462
0.0902964
-0.0173518
-0.102462
-0.0465452
0.0608023
0.0861771
0.0101436
-0.0832896
-0.065752
0.0323914
0.0780662
0.0398547
-0.0484967
-0.0809539
-0.00586994
0.0595661
0.0579002
0.00109451
-0.0712517
-0.0489381
0.0272228
0.0533162
0.0419236
-0.0215992
-0.0710122
-0.0195617
0.0299037
0.0433269
0.0379064
-0.0329233
-0.0601446
-0.00560153
0.0160437
0.0393715
0.0411955
-0.0347309
-0.0459661
-0.00460733
99.9176
100.214
100.089
99.5102
99.7693
101.044
100.384
98.1046
98.7825
104.404
104.578
86.376
49.9455
13.7656
-4.66181
-4.44672
1.14476
2.1061
-0.319707
-1.34959
0.197008
0.766321
0.13418
-0.737328
-0.0355577
0.424738
0.224363
-0.382075
-0.244976
0.286457
0.236255
-0.122725
-0.313704
0.0758066
0.268815
0.0298805
-0.222302
-0.134835
0.190768
0.164893
-0.0922305
-0.19451
-0.00534887
0.197968
0.0722694
-0.13783
-0.13727
0.0591935
0.169684
0.0162899
-0.142324
-0.0926706
0.0803743
0.14068
-0.006606
-0.131782
-0.0698329
0.077766
0.121554
-0.00565501
-0.117401
-0.0654132
0.0614141
0.110377
0.0122542
-0.099815
-0.0725483
0.0349688
0.0986842
0.041244
-0.0732604
-0.0829616
0.00144494
0.0758405
0.0700288
-0.0300945
-0.0855964
-0.0331449
0.0376642
0.0774924
0.0275321
-0.0639607
-0.060153
-0.00508704
0.0466785
0.0691549
-0.00504084
-0.0646255
-0.0360478
-0.00298986
0.0488402
0.0608249
-0.0209316
-0.0486989
-0.026788
-0.0145517
0.0491923
0.0545751
-0.0217928
-0.0270364
99.9591
99.9163
100.302
100.077
99.4508
99.7665
101.105
100.368
98.0707
98.7748
104.457
104.564
86.3472
49.9385
13.8054
-4.65656
-4.48832
1.14768
2.12311
-0.285486
-1.40251
0.199961
0.771145
0.177489
-0.769459
-0.0603686
0.437147
0.252065
-0.373904
-0.291511
0.289038
0.259441
-0.0988946
-0.338609
0.0433625
0.289811
0.0568683
-0.217881
-0.172203
0.17749
0.196456
-0.0706342
-0.207743
-0.0415934
0.199971
0.107753
-0.124719
-0.16122
0.0287075
0.180947
0.051908
-0.135552
-0.121792
0.0548679
0.155831
0.0279641
-0.126798
-0.100801
0.0539588
0.136501
0.0276577
-0.10913
-0.0953053
0.0351431
0.121744
0.0435677
-0.0843446
-0.0963454
0.00287591
0.1025
0.0688191
-0.0502762
-0.0928345
-0.0350986
0.0662718
0.0912941
-0.00441208
-0.075817
-0.0625688
0.00986953
0.0872788
0.0491888
-0.0406515
-0.0638714
-0.042369
0.0349547
0.0827993
0.0142617
-0.0405236
-0.0514081
-0.0375517
0.0470507
0.0678756
-0.000119042
-0.0227502
-0.0482509
-0.0415292
0.0483112
0.0510038
0.00170008
100.037
99.8784
99.9205
100.373
100.065
99.407
99.765
101.161
100.349
98.0437
98.7666
104.508
104.549
86.3204
49.9319
13.8433
-4.64871
-4.53239
1.15296
2.13602
-0.245836
-1.45817
0.203196
0.773747
0.222828
-0.798044
-0.0901894
0.450234
0.277909
-0.359089
-0.340588
0.287798
0.282774
-0.0727037
-0.358337
0.00454037
0.308388
0.085507
-0.208421
-0.208133
0.156165
0.227302
-0.0450539
-0.215619
-0.0798297
0.193401
0.144448
-0.105709
-0.180656
-0.0061209
0.18342
0.0904046
-0.121548
-0.147277
0.0238194
0.161608
0.0663071
-0.113433
-0.128477
0.024632
0.140762
0.0642271
-0.0910714
-0.121582
0.00480805
0.120842
0.0751493
-0.0574139
-0.115438
-0.030558
0.0940842
0.0902852
-0.0154249
-0.0954764
-0.0702207
0.0487225
0.0986181
0.0281361
-0.054373
-0.0888556
-0.0180202
0.08138
0.0641984
-0.00367375
-0.0614928
-0.0747122
0.0186373
0.0770906
0.0360905
-0.00461882
-0.0627957
-0.0631423
0.0346818
0.0565059
0.0277705
0.00927495
-0.063548
-0.0557015
0.0331443
0.0315667
100.047
100.027
99.8154
99.9231
100.429
100.049
99.3714
99.763
101.212
100.327
98.0212
98.7578
104.559
104.532
86.2946
49.9259
13.8793
-4.63784
-4.5797
1.16082
2.14492
-0.200765
-1.51637
0.206099
0.774883
0.269319
-0.822118
-0.125643
0.464299
0.301577
-0.337797
-0.39121
0.281899
0.306556
-0.0449395
-0.372025
-0.0401388
0.323628
0.115666
-0.194247
-0.241253
0.126841
0.256189
-0.0158119
-0.217635
-0.118666
0.177956
0.180631
-0.0810361
-0.194185
-0.0441722
0.176608
0.129543
-0.100503
-0.166759
-0.0120214
0.15745
0.105818
-0.0923317
-0.149354
-0.00960416
0.133622
0.101552
-0.0652101
-0.139739
-0.0282138
0.106355
0.105363
-0.0229786
-0.125707
-0.0614686
0.0712339
0.105121
0.0263512
-0.0902846
-0.0965409
0.0217347
0.0911516
0.0646282
-0.0265978
-0.104482
-0.0423754
0.0569908
0.0732187
0.0393326
-0.0535409
-0.0923365
-0.003305
0.0523614
0.0589513
0.0328996
-0.0653313
-0.0722607
0.00967257
0.0307995
0.0574937
0.0370533
-0.0654035
-0.053096
0.00350142
99.9613
100.115
100.017
99.7686
99.9291
100.479
100.031
99.3427
99.7618
101.262
100.303
98.0023
98.7485
104.61
104.514
86.2689
49.9208
13.9138
-4.62362
-4.63078
1.17137
2.14999
-0.150432
-1.57667
0.207925
0.775377
0.316
-0.840693
-0.167234
0.479456
0.322967
-0.310481
-0.442091
0.270357
0.331139
-0.0163665
-0.379057
-0.0897389
0.334308
0.14745
-0.175955
-0.270236
0.0900382
0.281469
0.0170845
-0.21381
-0.156498
0.153877
0.213987
-0.0505519
-0.201157
-0.0838758
0.160742
0.166169
-0.0721036
-0.178805
-0.0513714
0.143979
0.142479
-0.0635345
-0.160866
-0.0479537
0.11644
0.135238
-0.0331815
-0.14571
-0.0633941
0.0801611
0.13092
0.014174
-0.122287
-0.0882403
0.0351652
0.113222
0.0671674
-0.074917
-0.109165
-0.015027
0.0721534
0.0983572
0.00250135
-0.102048
-0.0625711
0.0168296
0.0770162
0.0772145
-0.0382579
-0.0892645
-0.0315953
0.0152095
0.0780636
0.0613395
-0.0531116
-0.0631199
-0.0263062
-0.000695139
0.0799093
0.0525544
-0.0478278
-0.0357875
99.9727
99.9679
100.166
100.003
99.7292
99.9361
100.522
100.01
99.3184
99.7611
101.311
100.275
97.986
98.7388
104.662
104.495
86.2429
49.9168
13.9466
-4.60579
-4.68597
1.18456
2.15149
-0.0951794
-1.63846
0.207822
0.776084
0.3619
-0.852853
-0.215275
0.495603
0.342175
-0.277833
-0.491759
0.252163
0.356849
0.0122861
-0.379036
-0.143023
0.339079
0.181081
-0.154397
-0.293741
0.0465565
0.301376
0.0537483
-0.204708
-0.191347
0.121597
0.242126
-0.0140356
-0.201783
-0.122836
0.136165
0.197004
-0.0358993
-0.183295
-0.0916549
0.122045
0.171833
-0.0265988
-0.162392
-0.0881385
0.091505
0.159709
0.00445698
-0.137835
-0.0994864
0.0466865
0.14651
0.0505019
-0.10206
-0.11086
-0.00851495
0.11298
0.0989429
-0.0464733
-0.107567
-0.0581015
0.0469171
0.119824
0.0303428
-0.0781025
-0.0794033
-0.0301598
0.074238
0.0989829
-0.0129269
-0.066079
-0.0635251
-0.0234183
0.0854114
0.0731209
-0.0229227
-0.0399918
-0.0653453
-0.027972
0.0841133
0.0521152
-0.0104514
100.02
99.9238
99.9796
100.209
99.9882
99.6965
99.9456
100.562
99.9865
99.2975
99.7611
101.36
100.245
97.9719
98.7289
104.715
104.476
86.216
49.9141
13.9779
-4.58424
-4.74541
1.20021
2.14982
-0.0355023
-1.70096
0.204892
0.777829
0.406126
-0.857861
-0.269823
0.512405
0.359502
-0.240725
-0.538715
0.22646
0.383853
0.04044
-0.371816
-0.198596
0.336722
0.216657
-0.130458
-0.310552
-0.00265958
0.314437
0.0939987
-0.191076
-0.221113
0.0815597
0.263246
0.0281202
-0.196616
-0.158136
0.102961
0.219742
0.00767185
-0.180874
-0.129121
0.0918797
0.190695
0.0181974
-0.155107
-0.125863
0.0603949
0.170405
0.0475315
-0.117855
-0.132956
0.0106415
0.146531
0.0847826
-0.0662809
-0.128899
-0.0513733
0.100881
0.116938
-0.00444479
-0.0953254
-0.0993348
0.0197558
0.120653
0.0570328
-0.0363216
-0.0926901
-0.0713775
0.0613662
0.0987498
0.0229931
-0.030652
-0.0917858
-0.0522325
0.0734367
0.0670867
0.0216811
-0.012209
-0.0947459
-0.0428752
0.0634473
0.0381665
100.029
100.007
99.8825
99.9931
100.245
99.9708
99.6679
99.9574
100.599
99.9608
99.2791
99.7622
101.408
100.211
97.9594
98.7189
104.769
104.455
86.188
49.9127
14.0078
-4.55896
-4.80908
1.21799
2.14548
0.0279799
-1.76332
0.198222
0.781365
0.447942
-0.855219
-0.330635
0.529238
0.375482
-0.200157
-0.581533
0.192665
0.41199
0.0678612
-0.357603
-0.254959
0.3263
0.253887
-0.104656
-0.319925
-0.0564413
0.319611
0.13701
-0.173204
-0.244251
0.0344726
0.276332
0.0743824
-0.185601
-0.187395
0.0613054
0.233523
0.056385
-0.171596
-0.160176
0.0531888
0.198313
0.068375
-0.140311
-0.155943
0.0230645
0.166057
0.0943956
-0.0896333
-0.157909
-0.0256324
0.128131
0.117162
-0.0209899
-0.139423
-0.0860577
0.0731744
0.1217
0.0467994
-0.0771464
-0.128238
-0.00854033
0.0981276
0.0837435
0.0130419
-0.0993503
-0.0962774
0.0343913
0.0790262
0.0656538
0.00535487
-0.106498
-0.065381
0.039286
0.0497079
0.0704609
0.0101592
-0.10268
-0.0440088
0.0198085
99.9848
100.069
99.9933
99.848
100.01
100.275
99.9514
99.6423
99.9719
100.634
99.9328
99.2625
99.7646
101.457
100.175
97.9483
98.7089
104.825
104.433
86.1588
49.9126
14.0364
-4.53005
-4.87682
1.23742
2.13906
0.0945795
-1.8246
0.186914
0.787315
0.486797
-0.844675
-0.397148
0.545163
0.390871
-0.157233
-0.618864
0.150508
0.440647
0.0947985
-0.337075
-0.310365
0.307065
0.292006
-0.0768841
-0.321929
-0.113012
0.315953
0.18137
-0.150572
-0.260387
-0.0179818
0.28051
0.122283
-0.167526
-0.209809
0.0125681
0.238059
0.106355
-0.153867
-0.183065
0.0065371
0.195677
0.118741
-0.117418
-0.174593
-0.0210988
0.149036
0.140111
-0.056137
-0.168038
-0.0628339
0.0933941
0.146219
0.0256285
-0.136476
-0.109752
0.0289499
0.117192
0.0977089
-0.0546849
-0.13612
-0.0405175
0.056932
0.109143
0.0576736
-0.0926098
-0.101155
-0.00843424
0.0486178
0.10586
0.0332236
-0.097993
-0.0652598
-0.0134404
0.0302945
0.109405
0.0232992
-0.0819198
-0.0379582
99.9739
100.001
100.101
99.9771
99.8186
100.03
100.301
99.9304
99.619
99.9896
100.666
99.9027
99.2473
99.7686
101.507
100.136
97.9382
98.699
104.882
104.41
86.1282
49.9137
14.0642
-4.49768
-4.94832
1.25797
2.13116
0.163583
-1.88385
0.170151
0.796152
0.522287
-0.826175
-0.46851
0.558997
0.406569
-0.113193
-0.649344
0.0999572
0.468876
0.121848
-0.311394
-0.362631
0.278216
0.330046
-0.0467018
-0.317374
-0.169674
0.302092
0.225667
-0.122416
-0.270159
-0.0726477
0.274128
0.169438
-0.140845
-0.226075
-0.0397447
0.23212
0.153461
-0.125212
-0.19839
-0.0448294
0.183358
0.162755
-0.0838312
-0.181268
-0.0704537
0.123231
0.176526
-0.0173977
-0.15984
-0.102013
0.0490975
0.166347
0.0670098
-0.113728
-0.124198
-0.0266812
0.106346
0.135755
-0.0251778
-0.119843
-0.0776963
0.0076069
0.126046
0.0879899
-0.0647429
-0.0892155
-0.062147
0.0169824
0.129258
0.0506247
-0.0606231
-0.0582575
-0.0729561
0.013818
0.122674
0.0305381
-0.0317836
100.011
99.9401
100.02
100.127
99.9585
99.7927
100.054
100.322
99.9078
99.5973
100.01
100.695
99.8709
99.233
99.7745
101.556
100.094
97.9292
98.6891
104.941
104.385
86.0964
49.9157
14.0912
-4.4621
-5.02322
1.27911
2.12235
0.234296
-1.94022
0.147291
0.808191
0.554108
-0.799819
-0.543721
0.569572
0.423421
-0.0693069
-0.671666
0.0411479
0.49574
0.149513
-0.28189
-0.409385
0.238955
0.367277
-0.014076
-0.307189
-0.223302
0.276423
0.269083
-0.0888885
-0.27419
-0.125589
0.254905
0.214549
-0.10548
-0.236992
-0.0906113
0.213213
0.195188
-0.0847922
-0.207773
-0.0948085
0.160041
0.195484
-0.0376474
-0.178554
-0.119116
0.0911716
0.19554
0.028356
-0.135329
-0.140682
0.00391625
0.168948
0.100679
-0.0697853
-0.132723
-0.0818973
0.0882998
0.150468
0.0149663
-0.0844085
-0.115511
-0.0368556
0.123377
0.100076
-0.014264
-0.0681185
-0.112343
-0.00907888
0.121846
0.0595132
0.000286685
-0.0495987
-0.118895
0.000707907
0.0987971
0.0357385
100.021
99.9943
99.9132
100.042
100.147
99.9383
99.7706
100.081
100.338
99.8841
99.5769
100.035
100.721
99.8376
99.2193
99.7825
101.606
100.05
97.9211
98.6793
105.001
104.359
86.0635
49.9185
14.1179
-4.42366
-5.10112
1.30034
2.11314
0.306114
-1.99302
0.117961
0.82352
0.582198
-0.765953
-0.621738
0.575923
0.442018
-0.0265374
-0.684995
-0.0254509
0.520423
0.177989
-0.249562
-0.448872
0.189081
0.403108
0.0204209
-0.291771
-0.271579
0.238186
0.311132
-0.0513758
-0.272149
-0.173897
0.221504
0.257234
-0.0636176
-0.241924
-0.13595
0.179306
0.231244
-0.0352918
-0.211527
-0.137193
0.123394
0.216074
0.0190975
-0.169699
-0.158713
0.0524844
0.193997
0.0813934
-0.101513
-0.171783
-0.036143
0.14775
0.128502
-0.0117116
-0.136821
-0.122936
0.0592538
0.139888
0.0652797
-0.0420394
-0.143568
-0.0668192
0.0937348
0.0979084
0.0491921
-0.047344
-0.141028
-0.0272079
0.0805987
0.0649598
0.0659993
-0.0432688
-0.132046
-0.0103141
0.0424911
99.9976
100.045
99.9739
99.8911
100.067
100.162
99.9161
99.7514
100.111
100.351
99.8593
99.5575
100.063
100.744
99.8031
99.206
99.793
101.656
100.002
97.914
98.6696
105.064
104.332
86.0297
49.9219
14.1446
-4.38271
-5.18161
1.32112
2.10409
0.378512
-2.04178
0.0819636
0.841957
0.60689
-0.725263
-0.701368
0.577079
0.462769
0.0146802
-0.689254
-0.0987541
0.54177
0.207541
-0.214951
-0.480425
0.129521
0.436298
0.0564322
-0.271056
-0.313714
0.188393
0.350449
-0.0112149
-0.262883
-0.216915
0.175055
0.296379
-0.0181868
-0.238527
-0.17489
0.131116
0.261792
0.0181448
-0.207055
-0.169485
0.0726449
0.226985
0.0798381
-0.154876
-0.183128
0.00474892
0.175644
0.13763
-0.0653997
-0.18646
-0.0715189
0.103559
0.153815
0.0477489
-0.133241
-0.14222
0.0150039
0.112292
0.11935
-0.00475054
-0.150432
-0.0826735
0.0385761
0.0916129
0.109114
-0.0317997
-0.137377
-0.0430429
0.0167643
0.074061
0.115219
-0.0387506
-0.108178
-0.0260357
99.9777
100.02
100.064
99.9519
99.8747
100.094
100.172
99.8924
99.7353
100.145
100.358
99.8338
99.539
100.096
100.764
99.7676
99.1928
99.8062
101.705
99.9522
97.9076
98.66
105.13
104.303
85.9951
49.9255
14.1717
-4.33952
-5.26434
1.34087
2.09571
0.451038
-2.08597
0.0391019
0.863143
0.628737
-0.678606
-0.781157
0.57178
0.486106
0.0541743
-0.684766
-0.177075
0.557869
0.23894
-0.178587
-0.503863
0.0621463
0.464334
0.0946763
-0.245284
-0.349562
0.12952
0.383784
0.0318416
-0.245645
-0.255208
0.119067
0.32833
0.0295904
-0.224219
-0.209153
0.0729497
0.284302
0.0711065
-0.189617
-0.193804
0.0110862
0.229611
0.135978
-0.129323
-0.191824
-0.0528625
0.147474
0.187565
-0.0281722
-0.178101
-0.107471
0.0445443
0.175218
0.0969337
-0.113135
-0.141803
-0.0450602
0.0791582
0.164463
0.0246524
-0.127305
-0.093664
-0.0325112
0.0872994
0.149
-0.0146952
-0.10059
-0.0667501
-0.0526215
0.0859187
0.135117
-0.0241457
-0.0558109
100
99.9589
100.043
100.077
99.9276
99.8632
100.124
100.177
99.8674
99.7224
100.181
100.361
99.8077
99.5213
100.133
100.779
99.7315
99.1794
99.8224
101.754
99.8996
97.9021
98.6503
105.197
104.271
85.9598
49.9291
14.1993
-4.29421
-5.34901
1.35918
2.08828
0.523338
-2.12503
-0.0107668
0.886673
0.648129
-0.626722
-0.859518
0.558689
0.512445
0.0915596
-0.67165
-0.25848
0.566427
0.27324
-0.14155
-0.51847
-0.0109429
0.483989
0.136618
-0.215823
-0.377955
0.0642871
0.40666
0.0794766
-0.221516
-0.287979
0.0577857
0.347186
0.0808585
-0.198749
-0.239564
0.0114082
0.292404
0.12216
-0.156113
-0.213513
-0.0530651
0.220479
0.180499
-0.086822
-0.189072
-0.11464
0.113972
0.218335
0.0148354
-0.146255
-0.146235
-0.0165113
0.182604
0.129481
-0.0677871
-0.129213
-0.111601
0.0467639
0.182912
0.0518624
-0.0724256
-0.106329
-0.10178
0.0787102
0.154387
0.0160369
-0.0376164
-0.097786
-0.108796
0.0845617
0.118377
0.0133118
100.018
99.9772
99.9471
100.068
100.084
99.9018
99.8569
100.154
100.177
99.8412
99.7129
100.22
100.36
99.7814
99.5044
100.174
100.791
99.6951
99.1657
99.8419
101.802
99.8445
97.8974
98.6407
105.268
104.237
85.9242
49.9325
14.2276
-4.24692
-5.43533
1.37582
2.08184
0.595147
-2.15858
-0.0675079
0.912174
0.665174
-0.570211
-0.935079
0.536974
0.541984
0.126125
-0.649767
-0.341267
0.565845
0.311072
-0.105469
-0.522862
-0.0881131
0.493028
0.183115
-0.185075
-0.396278
-0.00550119
0.415905
0.132858
-0.193658
-0.311835
-0.00583231
0.348203
0.137198
-0.16581
-0.263286
-0.0475833
0.279453
0.172512
-0.109472
-0.228945
-0.109308
0.192962
0.211314
-0.0269782
-0.180747
-0.167547
0.0748677
0.220784
0.0677376
-0.0996618
-0.181136
-0.0663453
0.163031
0.145632
0.000363172
-0.112694
-0.164125
0.0156581
0.161746
0.0821065
0.000895303
-0.117576
-0.144913
0.0550912
0.11967
0.061344
0.0317848
-0.120356
-0.129889
0.0555624
0.0659111
100.004
100.03
99.9524
99.9416
100.093
100.086
99.8748
99.8561
100.185
100.174
99.8139
99.707
100.261
100.354
99.7551
99.4885
100.219
100.798
99.6588
99.1515
99.865
101.849
99.7871
97.8935
98.6311
105.341
104.201
85.8883
49.9356
14.2567
-4.1979
-5.52309
1.39076
2.07644
0.666295
-2.18666
-0.130687
0.939273
0.68006
-0.509701
-1.00703
0.506624
0.574515
0.157468
-0.619311
-0.424298
0.555915
0.352109
-0.0714453
-0.516209
-0.168393
0.491432
0.233328
-0.15483
-0.402356
-0.0792544
0.411824
0.190734
-0.16511
-0.322935
-0.071327
0.331615
0.197908
-0.130906
-0.275101
-0.102265
0.244341
0.223685
-0.0582727
-0.236181
-0.151448
0.143369
0.232568
0.0414395
-0.170302
-0.198933
0.0266512
0.197635
0.128745
-0.0533011
-0.200165
-0.0988606
0.112432
0.153349
0.0746352
-0.0985769
-0.183694
-0.0173046
0.106767
0.117115
0.0659706
-0.12074
-0.146786
0.0128749
0.0612271
0.110831
0.0776779
-0.121228
-0.107565
0.00301223
99.985
100.028
100.035
99.9269
99.9422
100.118
100.084
99.8471
99.8608
100.216
100.166
99.7859
99.7053
100.304
100.343
99.7286
99.4738
100.268
100.8
99.6227
99.1369
99.8919
101.894
99.7275
97.8904
98.6219
105.416
104.162
85.8522
49.9385
14.287
-4.14739
-5.61221
1.40382
2.07232
0.736796
-2.20957
-0.19981
0.96731
0.693567
-0.445973
-1.07497
0.467965
0.609264
0.186412
-0.581397
-0.506593
0.536992
0.395132
-0.0386314
-0.499584
-0.250675
0.480202
0.284924
-0.12406
-0.396846
-0.156392
0.396907
0.249269
-0.135192
-0.320573
-0.139696
0.302122
0.25848
-0.0957358
-0.271444
-0.155846
0.193114
0.273841
-0.00969329
-0.228819
-0.1828
0.074995
0.250053
0.10584
-0.154099
-0.206415
-0.034914
0.16214
0.189635
-0.0163132
-0.193479
-0.121766
0.0390405
0.163191
0.135678
-0.0842571
-0.167893
-0.0607641
0.0400381
0.155861
0.10366
-0.107467
-0.118069
-0.0483905
0.00917669
0.154977
0.0874287
-0.0957336
-0.0654622
99.9908
99.9817
100.052
100.034
99.9018
99.9491
100.142
100.076
99.8191
99.8712
100.247
100.153
99.757
99.7081
100.348
100.327
99.7022
99.4606
100.322
100.797
99.5872
99.1215
99.9231
101.938
99.6659
97.8877
98.6133
105.494
104.121
85.8157
49.9411
14.3184
-4.09538
-5.70261
1.4145
2.0698
0.806692
-2.22728