0 	1.6234e-07
1.57135 	-0.000381223
3.1427 	-0.00062261
4.71405 	-0.00313775
6.28539 	-0.00781252
7.85674 	-0.0106116
9.42809 	-0.0091509
10.9994 	-0.00511906
12.5708 	0.0182594
14.1421 	0.0550636
