/*--------------------------------*- C++ -*----------------------------------*\
  =========                 |
  \\      /  F ield         | OpenFOAM: The Open Source CFD Toolbox
   \\    /   O peration     | Website:  https://openfoam.org
    \\  /    A nd           | Version:  8
     \\/     M anipulation  |
\*---------------------------------------------------------------------------*/
FoamFile
{
    version     2.0;
    format      ascii;
    class       volVectorField;
    location    "22";
    object      U;
}
// * * * * * * * * * * * * * * * * * * * * * * * * * * * * * * * * * * * * * //

dimensions      [0 1 -1 0 0 0 0];

internalField   nonuniform List<vector> 
12504
(
(1.00014 -0.000695587 8.58111e-07)
(1.00355 -0.00207326 -1.05307e-06)
(1.01033 -0.00339299 -1.975e-06)
(1.02042 -0.00461038 -1.31032e-06)
(1.03345 -0.0056881 -7.04371e-07)
(1.04898 -0.00659598 -4.76751e-07)
(1.06657 -0.00731226 -3.32097e-07)
(1.08571 -0.0078255 -9.47014e-09)
(1.10589 -0.00813589 3.47963e-07)
(1.1266 -0.00825516 6.67206e-07)
(1.14739 -0.00820499 9.07999e-07)
(1.16785 -0.00801409 1.04504e-06)
(1.18766 -0.00771436 1.06665e-06)
(1.2066 -0.00733686 9.91147e-07)
(1.22449 -0.00690882 8.52186e-07)
(1.24126 -0.00645194 6.96646e-07)
(1.25684 -0.0059825 5.50088e-07)
(1.27123 -0.005512 4.33308e-07)
(1.28445 -0.00504847 3.36499e-07)
(1.29651 -0.00459707 2.67191e-07)
(1.30746 -0.00416119 2.05689e-07)
(1.31733 -0.00374254 1.69871e-07)
(1.32619 -0.00334213 1.30563e-07)
(1.33406 -0.00296001 1.19267e-07)
(1.341 -0.00259629 8.85307e-08)
(1.34704 -0.00225026 9.45316e-08)
(1.35226 -0.00192179 6.09047e-08)
(1.35665 -0.00160976 8.42945e-08)
(1.36031 -0.00131413 3.76814e-08)
(1.36322 -0.0010335 8.48243e-08)
(1.36549 -0.000768149 1.29101e-08)
(1.36706 -0.000516314 9.73877e-08)
(1.36808 -0.000278878 -2.23132e-08)
(1.36844 -5.35309e-05 1.23139e-07)
(1.36837 0.000157885 -7.44905e-08)
(1.36764 0.000358466 1.84547e-07)
(1.3666 0.000545148 -1.48637e-07)
(1.36488 0.000722334 2.92597e-07)
(1.36304 0.000884906 -2.83041e-07)
(1.36039 0.0010394 4.72414e-07)
(1.35792 0.00117765 -5.20276e-07)
(1.3544 0.00130961 7.82252e-07)
(1.3515 0.00142253 -9.30828e-07)
(1.34711 0.00153172 1.30893e-06)
(1.34407 0.00161758 -1.62247e-06)
(1.33871 0.0017036 2.15848e-06)
(1.33596 0.00176047 -2.63865e-06)
(1.32935 0.00182292 3.19929e-06)
(1.32756 0.00184979 -3.26477e-06)
(1.31915 0.00188732 2.01897e-06)
(1.00015 -0.00210511 8.28449e-07)
(1.00363 -0.00626916 -1.11563e-06)
(1.01056 -0.0102571 -2.00672e-06)
(1.02087 -0.0139359 -1.3381e-06)
(1.03419 -0.0171909 -7.38629e-07)
(1.05006 -0.0199299 -5.10335e-07)
(1.06802 -0.0220868 -3.48721e-07)
(1.08754 -0.0236269 2.69514e-09)
(1.10809 -0.0245512 3.85865e-07)
(1.12915 -0.0248957 7.25425e-07)
(1.15025 -0.0247274 9.77153e-07)
(1.17097 -0.0241349 1.11188e-06)
(1.19099 -0.0232161 1.11895e-06)
(1.21009 -0.022066 1.02346e-06)
(1.22811 -0.0207673 8.67331e-07)
(1.24496 -0.0193851 7.0265e-07)
(1.26061 -0.0179681 5.55004e-07)
(1.27505 -0.0165502 4.41922e-07)
(1.2883 -0.0151551 3.49811e-07)
(1.30039 -0.0137977 2.8437e-07)
(1.31136 -0.0124879 2.25749e-07)
(1.32125 -0.0112305 1.92486e-07)
(1.33011 -0.0100283 1.5492e-07)
(1.33799 -0.00888126 1.44719e-07)
(1.34494 -0.00778963 1.14248e-07)
(1.35099 -0.00675126 1.19972e-07)
(1.35621 -0.00576558 8.55196e-08)
(1.36062 -0.00482939 1.07837e-07)
(1.36428 -0.00394231 6.01061e-08)
(1.3672 -0.00310037 1.06115e-07)
(1.36947 -0.00230409 3.28983e-08)
(1.37104 -0.00154859 1.15595e-07)
(1.37206 -0.000835932 -4.9074e-09)
(1.37243 -0.000159983 1.35436e-07)
(1.37235 0.000474811 -6.12623e-08)
(1.37162 0.00107645 1.96222e-07)
(1.37059 0.00163736 -1.33216e-07)
(1.36886 0.00216859 3.02896e-07)
(1.36702 0.00265762 -2.6671e-07)
(1.36437 0.00312037 4.78392e-07)
(1.36189 0.00353715 -5.01789e-07)
(1.35836 0.00393155 7.81526e-07)
(1.35546 0.00427343 -9.07177e-07)
(1.35105 0.00459819 1.29732e-06)
(1.34801 0.00486056 -1.58823e-06)
(1.34262 0.00511381 2.13059e-06)
(1.33987 0.00529122 -2.5891e-06)
(1.33323 0.0054716 3.15323e-06)
(1.33144 0.00555982 -3.21204e-06)
(1.323 0.00566685 1.99709e-06)
(1.00015 -0.00356394 8.45345e-07)
(1.00379 -0.0106079 -1.19394e-06)
(1.01104 -0.0173522 -2.10834e-06)
(1.02181 -0.0235725 -1.41412e-06)
(1.03571 -0.0290708 -7.92709e-07)
(1.05227 -0.0336883 -5.45549e-07)
(1.07097 -0.0373116 -3.4552e-07)
(1.09127 -0.0398812 6.16359e-08)
(1.11259 -0.041399 5.06335e-07)
(1.13436 -0.0419289 8.97001e-07)
(1.15609 -0.0415891 1.17548e-06)
(1.17734 -0.0405353 1.30264e-06)
(1.19779 -0.0389389 1.2701e-06)
(1.21721 -0.0369641 1.11934e-06)
(1.23548 -0.0347516 9.12397e-07)
(1.25251 -0.0324107 7.15071e-07)
(1.26829 -0.030021 5.54201e-07)
(1.28283 -0.0276373 4.40478e-07)
(1.29615 -0.0252973 3.51445e-07)
(1.30829 -0.0230247 2.89478e-07)
(1.3193 -0.0208346 2.33531e-07)
(1.32923 -0.0187341 2.03972e-07)
(1.33812 -0.016727 1.69036e-07)
(1.34602 -0.0148129 1.61545e-07)
(1.35299 -0.0129918 1.31275e-07)
(1.35907 -0.0112599 1.37934e-07)
(1.3643 -0.00961605 1.02053e-07)
(1.36872 -0.00805491 1.25174e-07)
(1.3724 -0.00657562 7.52125e-08)
(1.37533 -0.00517173 1.22297e-07)
(1.37761 -0.00384374 4.55813e-08)
(1.37919 -0.00258393 1.29885e-07)
(1.38022 -0.00139511 4.24217e-09)
(1.38059 -0.000267859 1.46153e-07)
(1.38052 0.000791555 -5.64564e-08)
(1.37979 0.00179513 2.08426e-07)
(1.37875 0.0027319 -1.27645e-07)
(1.37702 0.00361808 3.17351e-07)
(1.37518 0.00443573 -2.63055e-07)
(1.37251 0.0052075 4.94005e-07)
(1.37003 0.00590571 -5.00491e-07)
(1.36647 0.0065629 7.98798e-07)
(1.36356 0.00713758 -9.08141e-07)
(1.35911 0.00767733 1.31557e-06)
(1.35607 0.00812121 -1.59019e-06)
(1.35063 0.00853952 2.14668e-06)
(1.34787 0.00884363 -2.58982e-06)
(1.34117 0.00913801 3.15798e-06)
(1.33937 0.00929369 -3.20037e-06)
(1.33085 0.00946718 1.99188e-06)
(1.00016 -0.00510312 8.9018e-07)
(1.00404 -0.0151874 -1.30359e-06)
(1.01177 -0.0248403 -2.2862e-06)
(1.02325 -0.0337383 -1.54841e-06)
(1.03806 -0.0415929 -8.7944e-07)
(1.05568 -0.0481714 -5.99717e-07)
(1.07555 -0.0533067 -3.32266e-07)
(1.09706 -0.0569104 1.65376e-07)
(1.11957 -0.0589865 7.13353e-07)
(1.14245 -0.0596323 1.19318e-06)
(1.16515 -0.0590276 1.51739e-06)
(1.18722 -0.0574091 1.62794e-06)
(1.20832 -0.0550345 1.52239e-06)
(1.22824 -0.052147 1.27339e-06)
(1.24688 -0.0489494 9.78915e-07)
(1.26418 -0.0455947 7.27515e-07)
(1.28017 -0.0421912 5.46333e-07)
(1.29486 -0.0388119 4.32575e-07)
(1.3083 -0.0355059 3.47735e-07)
(1.32053 -0.0323034 2.90358e-07)
(1.33162 -0.0292227 2.38312e-07)
(1.3416 -0.0262718 2.14749e-07)
(1.35055 -0.0234546 1.83704e-07)
(1.3585 -0.0207697 1.80086e-07)
(1.36551 -0.0182162 1.49602e-07)
(1.37162 -0.0157884 1.57918e-07)
(1.37689 -0.0134844 1.19609e-07)
(1.38134 -0.0112964 1.44557e-07)
(1.38505 -0.00922325 9.04709e-08)
(1.388 -0.00725566 1.4022e-07)
(1.3903 -0.00539434 5.72876e-08)
(1.3919 -0.00362835 1.45893e-07)
(1.39295 -0.0019616 1.1805e-08)
(1.39332 -0.000380783 1.60075e-07)
(1.39326 0.00110529 -5.51253e-08)
(1.39253 0.00251348 2.24892e-07)
(1.3915 0.00382844 -1.27552e-07)
(1.38975 0.00507278 3.38865e-07)
(1.3879 0.00622158 -2.67881e-07)
(1.38521 0.00730628 5.20842e-07)
(1.38272 0.00828852 -5.12181e-07)
(1.37912 0.00921313 8.33798e-07)
(1.37619 0.0100229 -9.28699e-07)
(1.37168 0.010783 1.3605e-06)
(1.36862 0.0114098 -1.62067e-06)
(1.36309 0.0119992 2.19983e-06)
(1.36032 0.0124297 -2.62601e-06)
(1.35351 0.0128444 3.2045e-06)
(1.3517 0.0130655 -3.22037e-06)
(1.34305 0.0133103 1.98919e-06)
(1.00018 -0.00676065 9.50624e-07)
(1.00439 -0.0201187 -1.45982e-06)
(1.01278 -0.0329023 -2.55196e-06)
(1.02526 -0.0446778 -1.75933e-06)
(1.04134 -0.0550551 -1.02362e-06)
(1.06045 -0.0637167 -7.01425e-07)
(1.08196 -0.0704313 -3.25112e-07)
(1.10517 -0.0750757 3.17163e-07)
(1.12935 -0.077656 1.03156e-06)
(1.15378 -0.0783114 1.65947e-06)
(1.17784 -0.0773004 2.05686e-06)
(1.20104 -0.074962 2.13216e-06)
(1.22303 -0.0716612 1.90033e-06)
(1.24362 -0.0677336 1.49257e-06)
(1.26276 -0.0634498 1.06647e-06)
(1.28044 -0.059005 7.4154e-07)
(1.29671 -0.0545319 5.39504e-07)
(1.31162 -0.0501167 4.32186e-07)
(1.32524 -0.0458161 3.55076e-07)
(1.33761 -0.0416637 3.03439e-07)
(1.34882 -0.0376786 2.56451e-07)
(1.35891 -0.0338674 2.40891e-07)
(1.36795 -0.0302328 2.14445e-07)
(1.37597 -0.0267713 2.14911e-07)
(1.38306 -0.0234807 1.82648e-07)
(1.38924 -0.0203529 1.92042e-07)
(1.39457 -0.0173852 1.49268e-07)
(1.39907 -0.014567 1.75767e-07)
(1.40282 -0.0118967 1.15063e-07)
(1.40581 -0.00936203 1.6781e-07)
(1.40815 -0.0069641 7.55467e-08)
(1.40978 -0.00468831 1.69672e-07)
(1.41085 -0.00254007 2.29079e-08)
(1.41124 -0.000501605 1.79833e-07)
(1.41119 0.00141509 -5.33415e-08)
(1.41045 0.00323259 2.48211e-07)
(1.40942 0.00493006 -1.28572e-07)
(1.40765 0.00653793 3.68702e-07)
(1.40579 0.00802254 -2.76432e-07)
(1.40305 0.00942632 5.58727e-07)
(1.40054 0.0106974 -5.31081e-07)
(1.39686 0.0118964 8.83881e-07)
(1.39391 0.0129459 -9.61043e-07)
(1.38929 0.013934 1.4262e-06)
(1.38619 0.0147473 -1.66838e-06)
(1.38052 0.0155155 2.27964e-06)
(1.37772 0.0160744 -2.68341e-06)
(1.37073 0.0166165 3.27822e-06)
(1.3689 0.0169029 -3.25979e-06)
(1.36003 0.0172238 1.98958e-06)
(1.0002 -0.00857803 1.02867e-06)
(1.00485 -0.0255242 -1.65292e-06)
(1.01412 -0.0417391 -2.90425e-06)
(1.02791 -0.0566648 -2.04824e-06)
(1.04567 -0.0697939 -1.23355e-06)
(1.06677 -0.0807088 -8.6335e-07)
(1.09047 -0.0890973 -3.24436e-07)
(1.11595 -0.094791 5.39041e-07)
(1.14237 -0.0977979 1.51613e-06)
(1.16887 -0.0983111 2.38771e-06)
(1.19473 -0.0966926 2.89979e-06)
(1.2194 -0.0934174 2.90112e-06)
(1.24254 -0.0889875 2.44717e-06)
(1.264 -0.0838502 1.78071e-06)
(1.28378 -0.0783494 1.15674e-06)
(1.30195 -0.0727185 7.3753e-07)
(1.3186 -0.0671065 5.22948e-07)
(1.33381 -0.0616061 4.35346e-07)
(1.34767 -0.0562766 3.70489e-07)
(1.36026 -0.0511503 3.24707e-07)
(1.37165 -0.0462435 2.83153e-07)
(1.3819 -0.041559 2.76927e-07)
(1.39109 -0.0370968 2.54155e-07)
(1.39925 -0.03285 2.57157e-07)
(1.40646 -0.0288148 2.2033e-07)
(1.41274 -0.0249801 2.29478e-07)
(1.41817 -0.0213419 1.79687e-07)
(1.42275 -0.0178869 2.0698e-07)
(1.42658 -0.0146131 1.36887e-07)
(1.42963 -0.0115048 1.92918e-07)
(1.43202 -0.00856377 8.84745e-08)
(1.43367 -0.00577137 1.90008e-07)
(1.43478 -0.00313478 2.55332e-08)
(1.43517 -0.000631292 1.95263e-07)
(1.43513 0.00172337 -6.00821e-08)
(1.43436 0.0039582 2.69436e-07)
(1.43332 0.00604585 -1.4065e-07)
(1.43149 0.00802588 3.97046e-07)
(1.4296 0.00985429 -2.99004e-07)
(1.42676 0.0115865 5.98893e-07)
(1.4242 0.0131546 -5.66826e-07)
(1.42039 0.014638 9.42249e-07)
(1.41737 0.015935 -1.01436e-06)
(1.41258 0.0171615 1.50883e-06)
(1.40941 0.0181681 -1.74258e-06)
(1.40351 0.0191253 2.38681e-06)
(1.40065 0.019817 -2.77303e-06)
(1.39337 0.020495 3.38516e-06)
(1.39151 0.0208485 -3.32885e-06)
(1.3823 0.0212509 1.99965e-06)
(1.00022 -0.0106025 1.12712e-06)
(1.00543 -0.0315423 -1.86615e-06)
(1.01583 -0.0515812 -3.35434e-06)
(1.0313 -0.0700157 -2.42391e-06)
(1.05123 -0.0862026 -1.53206e-06)
(1.0749 -0.0996019 -1.11181e-06)
(1.10145 -0.109794 -3.36325e-07)
(1.12991 -0.11655 8.54535e-07)
(1.15925 -0.119875 2.23769e-06)
(1.18844 -0.120033 3.50305e-06)
(1.21662 -0.117529 4.19526e-06)
(1.24316 -0.113022 4.06384e-06)
(1.26773 -0.107196 3.2335e-06)
(1.29025 -0.100634 2.14636e-06)
(1.31083 -0.0937567 1.20588e-06)
(1.32962 -0.0868256 6.72613e-07)
(1.34676 -0.0799941 4.70441e-07)
(1.36239 -0.0733521 4.23513e-07)
(1.3766 -0.0669542 3.75284e-07)
(1.38949 -0.0608257 3.35881e-07)
(1.40116 -0.054976 3.01139e-07)
(1.41166 -0.0494011 3.04866e-07)
(1.42107 -0.0440962 2.82545e-07)
(1.42942 -0.0390506 2.83841e-07)
(1.43681 -0.0342577 2.37773e-07)
(1.44324 -0.0297035 2.44185e-07)
(1.4488 -0.0253824 1.84267e-07)
(1.45348 -0.0212782 2.11348e-07)
(1.4574 -0.0173884 1.29405e-07)
(1.4605 -0.0136942 1.8924e-07)
(1.46293 -0.0101976 7.11497e-08)
(1.4646 -0.00687623 1.842e-07)
(1.46571 -0.00373886 4.4475e-10)
(1.46607 -0.000757701 1.9024e-07)
(1.46599 0.00204774 -9.14314e-08)
(1.46515 0.00471291 2.69214e-07)
(1.46404 0.00720341 -1.84422e-07)
(1.46208 0.00956859 4.04519e-07)
(1.46009 0.0117534 -3.54884e-07)
(1.45708 0.0138275 6.23879e-07)
(1.4544 0.015705 -6.38307e-07)
(1.45036 0.0174866 9.94308e-07)
(1.44721 0.0190429 -1.10696e-06)
(1.44212 0.0205213 1.59897e-06)
(1.43882 0.0217315 -1.86173e-06)
(1.43255 0.0228901 2.52037e-06)
(1.42957 0.0237221 -2.91457e-06)
(1.42185 0.0245461 3.53484e-06)
(1.41991 0.0249698 -3.44667e-06)
(1.41016 0.0254591 2.02733e-06)
(1.00025 -0.0128889 1.24742e-06)
(1.00617 -0.0383319 -2.06756e-06)
(1.01798 -0.0626975 -3.92834e-06)
(1.03555 -0.0851024 -2.89549e-06)
(1.05823 -0.104751 -1.96835e-06)
(1.08518 -0.120946 -1.49443e-06)
(1.11539 -0.13312 -3.52617e-07)
(1.1477 -0.140959 1.3325e-06)
(1.18082 -0.144455 3.34551e-06)
(1.21348 -0.143961 5.20875e-06)
(1.2446 -0.140186 6.12868e-06)
(1.27347 -0.134052 5.74133e-06)
(1.29978 -0.126485 4.30809e-06)
(1.32359 -0.118236 2.5296e-06)
(1.34514 -0.109796 1.06899e-06)
(1.3647 -0.101437 4.35324e-07)
(1.38248 -0.093296 3.229e-07)
(1.39865 -0.0854491 3.44312e-07)
(1.41334 -0.0779374 3.09947e-07)
(1.42665 -0.0707729 2.75888e-07)
(1.43869 -0.0639519 2.52539e-07)
(1.44952 -0.057461 2.67685e-07)
(1.45922 -0.0512892 2.40816e-07)
(1.46782 -0.045421 2.33233e-07)
(1.47541 -0.0398468 1.72216e-07)
(1.482 -0.0345498 1.73327e-07)
(1.48768 -0.0295224 1.01248e-07)
(1.49244 -0.0247463 1.28526e-07)
(1.4964 -0.0202177 3.49529e-08)
(1.4995 -0.0159156 1.00976e-07)
(1.50191 -0.0118416 -2.83189e-08)
(1.5035 -0.00797017 1.03264e-07)
(1.50452 -0.0043111 -8.8683e-08)
(1.50473 -0.00083232 1.3629e-07)
(1.50451 0.00244406 -1.75473e-07)
(1.50346 0.00555853 2.09874e-07)
(1.50216 0.00847077 -2.99557e-07)
(1.49993 0.0112389 3.51577e-07)
(1.49772 0.0137981 -4.79403e-07)
(1.49437 0.016231 5.98903e-07)
(1.49144 0.018435 -7.76819e-07)
(1.487 0.0205308 1.01032e-06)
(1.48359 0.0223625 -1.26608e-06)
(1.47802 0.0241079 1.67418e-06)
(1.47446 0.0255358 -2.05002e-06)
(1.46764 0.026909 2.66807e-06)
(1.46444 0.0278919 -3.13037e-06)
(1.45604 0.0288708 3.72946e-06)
(1.45397 0.0293701 -3.63444e-06)
(1.44341 0.0299483 2.0796e-06)
(1.00029 -0.0155017 1.39088e-06)
(1.00708 -0.0460749 -2.19316e-06)
(1.02061 -0.075405 -4.66999e-06)
(1.04082 -0.102366 -3.45521e-06)
(1.06694 -0.126008 -2.65075e-06)
(1.09803 -0.145418 -2.10645e-06)
(1.13294 -0.159821 -3.98018e-07)
(1.17019 -0.16878 2.08651e-06)
(1.20819 -0.172248 5.19177e-06)
(1.2453 -0.17069 7.97377e-06)
(1.28014 -0.165113 9.03573e-06)
(1.31187 -0.156818 8.0072e-06)
(1.34027 -0.14707 5.5071e-06)
(1.3656 -0.136819 2.48477e-06)
(1.3883 -0.12661 4.70932e-07)
(1.40879 -0.116683 -9.70638e-08)
(1.42737 -0.107135 -5.47034e-09)
(1.44423 -0.0980108 9.0037e-08)
(1.45951 -0.0893297 4.26822e-08)
(1.47333 -0.0810815 7.96458e-10)
(1.4858 -0.0732448 -9.53141e-09)
(1.49698 -0.0657942 1.79181e-08)
(1.50696 -0.0587118 -1.71014e-08)
(1.51576 -0.0519778 -3.85647e-08)
(1.52347 -0.0455792 -1.15157e-07)
(1.53011 -0.039497 -1.1625e-07)
(1.53577 -0.0337219 -1.95669e-07)
(1.54044 -0.0282342 -1.60286e-07)
(1.54426 -0.0230285 -2.56377e-07)
(1.54715 -0.018083 -1.7133e-07)
(1.54932 -0.0133972 -3.00098e-07)
(1.5506 -0.00894442 -1.3409e-07)
(1.55129 -0.00473276 -3.16824e-07)
(1.55111 -0.000728791 -2.34494e-08)
(1.55051 0.00304575 -3.7245e-07)
(1.54899 0.00663254 2.4801e-08)
(1.54725 0.00998974 -5.44854e-07)
(1.54449 0.0131806 1.77882e-07)
(1.54181 0.0161353 -7.23531e-07)
(1.53788 0.0189439 4.69351e-07)
(1.53447 0.0214939 -1.02463e-06)
(1.52938 0.0239184 9.42075e-07)
(1.5255 0.0260436 -1.52554e-06)
(1.51921 0.028068 1.69283e-06)
(1.51522 0.0297301 -2.33355e-06)
(1.50757 0.0313264 2.79779e-06)
(1.50401 0.0324737 -3.44005e-06)
(1.49466 0.0336101 3.95347e-06)
(1.49237 0.0341927 -3.90782e-06)
(1.48068 0.0348524 2.15854e-06)
(1.00033 -0.0185161 1.56291e-06)
(1.00819 -0.0549772 -2.13009e-06)
(1.02383 -0.0900798 -5.63868e-06)
(1.04727 -0.122333 -4.03485e-06)
(1.07766 -0.150677 -3.78405e-06)
(1.114 -0.173869 -3.10447e-06)
(1.15489 -0.190846 -6.89938e-07)
(1.19854 -0.200993 3.05993e-06)
(1.24287 -0.204156 8.24313e-06)
(1.2857 -0.200962 1.26957e-05)
(1.32521 -0.192853 1.37146e-05)
(1.36042 -0.181683 1.12476e-05)
(1.39125 -0.169188 6.17068e-06)
(1.41827 -0.156559 1.06352e-06)
(1.44227 -0.144346 -1.24184e-06)
(1.46383 -0.132696 -1.35095e-06)
(1.4833 -0.121623 -8.77203e-07)
(1.50087 -0.111129 -6.61581e-07)
(1.51672 -0.101197 -7.28814e-07)
(1.53096 -0.0917861 -7.87866e-07)
(1.54371 -0.082854 -7.84407e-07)
(1.55504 -0.0743637 -7.4028e-07)
(1.56502 -0.0662911 -7.7585e-07)
(1.57369 -0.0586139 -7.91908e-07)
(1.58116 -0.0513164 -8.61455e-07)
(1.58743 -0.0443789 -8.38993e-07)
(1.59264 -0.0377902 -8.96634e-07)
(1.59676 -0.0315311 -8.22995e-07)
(1.59996 -0.0255936 -8.85351e-07)
(1.60216 -0.0199563 -7.43771e-07)
(1.6036 -0.0146154 -8.23019e-07)
(1.6041 -0.00954393 -5.85096e-07)
(1.60399 -0.00474593 -7.19302e-07)
(1.60296 -0.000185757 -3.32033e-07)
(1.60152 0.00411318 -7.64521e-07)
(1.5991 0.00819065 -3.70235e-07)
(1.59652 0.0120123 -9.79145e-07)
(1.59284 0.0156383 -1.7735e-07)
(1.58934 0.0190041 -1.13036e-06)
(1.58447 0.0221955 1.80729e-07)
(1.58027 0.0251052 -1.41169e-06)
(1.57421 0.0278616 7.38877e-07)
(1.5696 0.0302938 -1.90357e-06)
(1.56229 0.0325968 1.60352e-06)
(1.55766 0.0345073 -2.71952e-06)
(1.54891 0.0363217 2.85809e-06)
(1.54483 0.0376475 -3.8404e-06)
(1.53425 0.0389291 4.1645e-06)
(1.53165 0.0396052 -4.25961e-06)
(1.51852 0.040321 2.25617e-06)
(1.0004 -0.0220191 1.78508e-06)
(1.00952 -0.0652664 -1.71561e-06)
(1.02769 -0.107168 -6.89047e-06)
(1.0551 -0.145623 -4.4385e-06)
(1.09073 -0.179639 -5.66547e-06)
(1.13371 -0.207386 -4.57371e-06)
(1.18227 -0.227442 -1.62724e-06)
(1.23421 -0.238888 3.8561e-06)
(1.2868 -0.241332 1.25623e-05)
(1.33701 -0.235671 2.00169e-05)
(1.38238 -0.224022 2.11361e-05)
(1.42171 -0.209033 1.63077e-05)
(1.45519 -0.193086 5.75462e-06)
(1.48394 -0.177625 -2.59329e-06)
(1.50916 -0.163114 -5.22899e-06)
(1.53163 -0.149523 -4.37936e-06)
(1.55171 -0.136751 -3.12297e-06)
(1.56961 -0.124734 -2.56081e-06)
(1.58551 -0.113407 -2.55623e-06)
(1.59955 -0.102689 -2.5415e-06)
(1.61186 -0.0925176 -2.44579e-06)
(1.62251 -0.0828476 -2.33207e-06)
(1.63161 -0.0736526 -2.31723e-06)
(1.63922 -0.0649105 -2.26491e-06)
(1.64547 -0.0566042 -2.24946e-06)
(1.6504 -0.0487152 -2.12161e-06)
(1.65418 -0.0412298 -2.07289e-06)
(1.65679 -0.0341301 -1.87974e-06)
(1.65844 -0.0274036 -1.81969e-06)
(1.65906 -0.021031 -1.53859e-06)
(1.65892 -0.0150004 -1.44967e-06)
(1.65782 -0.00929012 -1.05699e-06)
(1.65617 -0.00388773 -1.01499e-06)
(1.65359 0.00123715 -6.9248e-07)
(1.65067 0.00606257 -1.26375e-06)
(1.64678 0.0106238 -8.75601e-07)
(1.64284 0.0149056 -1.49372e-06)
(1.63777 0.0189519 -6.33187e-07)
(1.63302 0.0227208 -1.61036e-06)
(1.62685 0.0262745 -2.13763e-07)
(1.62153 0.0295363 -1.85825e-06)
(1.61424 0.0326004 4.28812e-07)
(1.60865 0.0353361 -2.32493e-06)
(1.60015 0.037891 1.40286e-06)
(1.59469 0.040053 -3.13362e-06)
(1.58472 0.0420556 2.81014e-06)
(1.58001 0.0435693 -4.25635e-06)
(1.56811 0.0449598 4.29876e-06)
(1.56514 0.0457407 -4.6271e-06)
(1.55049 0.0464629 2.3509e-06)
(1.00048 -0.026105 2.12752e-06)
(1.01107 -0.0771858 -7.67243e-07)
(1.03226 -0.127193 -8.41971e-06)
(1.06445 -0.172952 -4.36517e-06)
(1.1065 -0.214002 -8.72013e-06)
(1.15791 -0.247364 -6.2619e-06)
(1.2163 -0.271286 -3.3291e-06)
(1.27912 -0.284242 4.81109e-06)
(1.34253 -0.285304 1.82224e-05)
(1.40228 -0.275889 2.89319e-05)
(1.45487 -0.259208 3.01087e-05)
(1.49877 -0.239107 2.13965e-05)
(1.53464 -0.218825 3.66936e-06)
(1.56443 -0.199975 -9.07637e-06)
(1.58998 -0.182752 -1.22147e-05)
(1.61226 -0.166857 -9.99311e-06)
(1.63163 -0.152063 -7.51287e-06)
(1.6483 -0.138238 -6.42334e-06)
(1.66254 -0.12525 -6.04367e-06)
(1.67453 -0.112977 -5.58165e-06)
(1.68446 -0.101335 -5.0847e-06)
(1.69245 -0.0902814 -4.6734e-06)
(1.69868 -0.0797887 -4.41362e-06)
(1.70327 -0.0698375 -4.11246e-06)
(1.70643 -0.0604086 -3.84538e-06)
(1.70822 -0.0514846 -3.4604e-06)
(1.70888 -0.0430461 -3.1759e-06)
(1.70841 -0.035076 -2.73262e-06)
(1.70708 -0.0275498 -2.45786e-06)
(1.70482 -0.0204547 -1.91052e-06)
(1.70193 -0.0137525 -1.60119e-06)
(1.69822 -0.00745044 -9.4055e-07)
(1.69413 -0.00147297 -7.93514e-07)
(1.68925 0.00414674 -8.26869e-07)
(1.68419 0.00942988 -1.53714e-06)
(1.67831 0.0144028 -1.14181e-06)
(1.67255 0.0190789 -1.7431e-06)
(1.66579 0.0234713 -8.89412e-07)
(1.65953 0.0275809 -1.86134e-06)
(1.65193 0.0314235 -4.66014e-07)
(1.64537 0.0349844 -2.09529e-06)
(1.63688 0.0382861 1.95439e-07)
(1.6303 0.0412864 -2.54924e-06)
(1.62074 0.044027 1.20111e-06)
(1.61452 0.0464193 -3.35313e-06)
(1.60359 0.0485472 2.67735e-06)
(1.59833 0.0502464 -4.47962e-06)
(1.58548 0.0516822 4.29472e-06)
(1.58219 0.0525777 -4.84717e-06)
(1.56647 0.0532345 2.40789e-06)
(1.0006 -0.0308615 2.77522e-06)
(1.0128 -0.0909905 8.87379e-07)
(1.03761 -0.150744 -9.93894e-06)
(1.07539 -0.205112 -3.77427e-06)
(1.12526 -0.255165 -1.38327e-05)
(1.18737 -0.295559 -8.00334e-06)
(1.25835 -0.324607 -6.07252e-06)
(1.33556 -0.339448 8.39128e-06)
(1.41334 -0.338189 2.82604e-05)
(1.48541 -0.323019 3.87201e-05)
(1.54627 -0.29883 3.48735e-05)
(1.59396 -0.271547 1.75889e-05)
(1.63017 -0.245654 -6.44402e-06)
(1.65831 -0.222639 -2.09713e-05)
(1.68109 -0.202062 -2.21123e-05)
(1.69971 -0.183258 -1.71869e-05)
(1.7146 -0.1659 -1.31482e-05)
(1.72613 -0.149797 -1.14002e-05)
(1.73472 -0.134745 -1.02003e-05)
(1.74072 -0.120579 -8.71538e-06)
(1.74445 -0.107203 -7.33959e-06)
(1.74616 -0.0945744 -6.2848e-06)
(1.74614 -0.0826637 -5.51951e-06)
(1.74461 -0.0714463 -4.79299e-06)
(1.74187 -0.0608948 -4.15948e-06)
(1.73805 -0.0509828 -3.47845e-06)
(1.73343 -0.0416811 -2.93564e-06)
(1.72806 -0.0329568 -2.27493e-06)
(1.7222 -0.0247819 -1.78584e-06)
(1.7158 -0.0171127 -1.08333e-06)
(1.70917 -0.00993042 -6.78666e-07)
(1.70212 -0.00315735 -4.64841e-08)
(1.69505 0.00317385 -8.04424e-07)
(1.68753 0.00907745 -1.02103e-06)
(1.68017 0.0146307 -1.4684e-06)
(1.67233 0.0198341 -9.35669e-07)
(1.66487 0.0247354 -1.44344e-06)
(1.65672 0.0293082 -6.48802e-07)
(1.64927 0.0336121 -1.55255e-06)
(1.64075 0.0375978 -2.78207e-07)
(1.63343 0.0413382 -1.79536e-06)
(1.6244 0.0447519 2.88679e-07)
(1.61737 0.0479279 -2.26257e-06)
(1.6076 0.0507478 1.17085e-06)
(1.60115 0.0533156 -3.06657e-06)
(1.59023 0.0554788 2.52333e-06)
(1.58489 0.0573434 -4.19296e-06)
(1.57219 0.0587474 4.08746e-06)
(1.56888 0.0597636 -4.64908e-06)
(1.55341 0.0602844 2.37041e-06)
(1.00073 -0.0363392 4.13124e-06)
(1.01465 -0.106962 3.27436e-06)
(1.04376 -0.178413 -1.02888e-05)
(1.08769 -0.242966 -3.68142e-06)
(1.14724 -0.304913 -2.26486e-05)
(1.22268 -0.354065 -1.18977e-05)
(1.30954 -0.39023 -1.37297e-05)
(1.40599 -0.407392 1.38789e-05)
(1.50322 -0.402732 4.71875e-05)
(1.59073 -0.378836 5.51124e-05)
(1.65852 -0.342809 3.22249e-05)
(1.70492 -0.304604 -7.71568e-06)
(1.73445 -0.270815 -3.84994e-05)
(1.75333 -0.242236 -4.5325e-05)
(1.76555 -0.217246 -3.45433e-05)
(1.77263 -0.194683 -2.14388e-05)
(1.77526 -0.174114 -1.42572e-05)
(1.7742 -0.155248 -1.17364e-05)
(1.77023 -0.13779 -9.70083e-06)
(1.76398 -0.121539 -7.27796e-06)
(1.75594 -0.106388 -5.24241e-06)
(1.74656 -0.0922796 -3.80115e-06)
(1.73624 -0.079157 -2.78642e-06)
(1.7253 -0.0669684 -1.93052e-06)
(1.71405 -0.0556551 -1.26861e-06)
(1.70268 -0.0451634 -6.8e-07)
(1.69141 -0.0354319 -2.67712e-07)
(1.68027 -0.0264053 2.12942e-07)
(1.66949 -0.0180257 5.70128e-07)
(1.65895 -0.0102321 9.92833e-07)
(1.64891 -0.0029691 8.96644e-07)
(1.63911 0.00379367 3.04577e-09)
(1.6298 0.0100626 -8.6549e-07)
(1.62068 0.0159065 -5.13117e-07)
(1.61216 0.0214102 -5.20891e-07)
(1.60364 0.0265449 7.03871e-08)
(1.59581 0.0313945 -3.53385e-07)
(1.58771 0.0358974 2.94579e-07)
(1.58048 0.0401699 -5.03169e-07)
(1.57259 0.0440972 5.04573e-07)
(1.56592 0.0478412 -8.07779e-07)
(1.55798 0.0512098 8.27335e-07)
(1.55186 0.0544344 -1.31331e-06)
(1.54355 0.0572164 1.38626e-06)
(1.53811 0.059881 -2.08889e-06)
(1.52896 0.0619976 2.34295e-06)
(1.52453 0.0639959 -3.14243e-06)
(1.51393 0.0653178 3.54913e-06)
(1.51119 0.0664588 -3.74455e-06)
(1.49822 0.0668255 2.12569e-06)
(1.00076 -0.0425147 6.90792e-06)
(1.01666 -0.125429 6.16215e-06)
(1.0504 -0.21058 -6.48714e-06)
(1.10082 -0.287595 -6.27663e-06)
(1.17257 -0.365475 -3.5269e-05)
(1.26348 -0.425294 -2.58398e-05)
(1.37049 -0.471955 -3.79906e-05)
(1.49328 -0.491942 8.18875e-06)
(1.61604 -0.4816 6.45533e-05)
(1.71848 -0.443454 8.39607e-05)
(1.78303 -0.388215 4.31768e-05)
(1.81265 -0.332963 -3.28185e-05)
(1.8182 -0.287341 -8.07868e-05)
(1.81134 -0.250726 -7.47847e-05)
(1.79797 -0.219807 -4.04832e-05)
(1.78001 -0.192759 -1.15471e-05)
(1.75857 -0.168812 -2.42641e-09)
(1.73497 -0.147357 2.62621e-06)
(1.71042 -0.127914 4.11696e-06)
(1.68575 -0.110219 5.36859e-06)
(1.66155 -0.0941189 5.79983e-06)
(1.63826 -0.0794882 5.66693e-06)
(1.61621 -0.066194 5.34961e-06)
(1.59561 -0.0541121 5.05356e-06)
(1.57658 -0.0431141 4.68981e-06)
(1.55912 -0.0330898 4.31169e-06)
(1.54325 -0.0239201 3.84184e-06)
(1.52885 -0.0155167 3.45039e-06)
(1.51589 -0.00777466 3.07141e-06)
(1.50419 -0.000648183 2.37514e-06)
(1.49373 0.00597335 1.33296e-06)
(1.48423 0.0120659 9.17985e-07)
(1.47581 0.0177898 7.87488e-07)
(1.4681 0.0231452 1.35134e-06)
(1.46134 0.0282037 1.35556e-06)
(1.45498 0.0329281 1.70864e-06)
(1.44947 0.0374226 1.25507e-06)
(1.44407 0.0416058 1.63573e-06)
(1.43953 0.0456223 9.25877e-07)
(1.43471 0.0493162 1.55208e-06)
(1.4309 0.0529023 5.05829e-07)
(1.42634 0.0561132 1.52722e-06)
(1.4231 0.0592771 -1.56808e-08)
(1.41842 0.0619618 1.62533e-06)
(1.41567 0.064661 -6.46125e-07)
(1.41047 0.066719 1.94514e-06)
(1.40827 0.0688327 -1.39874e-06)
(1.40206 0.0701067 2.43612e-06)
(1.4007 0.0713866 -1.99544e-06)
(1.39286 0.0716935 1.45894e-06)
(1.00046 -0.0492868 1.19299e-05)
(1.01909 -0.146619 1.03082e-05)
(1.05626 -0.247055 6.48662e-06)
(1.11419 -0.340619 -1.16227e-05)
(1.19994 -0.438962 -4.327e-05)
(1.30698 -0.512479 -6.00185e-05)
(1.44185 -0.576554 -8.47516e-05)
(1.60077 -0.600386 -1.325e-05)
(1.74876 -0.5737 4.98009e-05)
(1.84721 -0.506825 9.66156e-05)
(1.87664 -0.420243 0.000108213)
(1.85624 -0.340932 2.13042e-05)
(1.80554 -0.279153 -6.71506e-05)
(1.74652 -0.232192 -6.85388e-05)
(1.68735 -0.19473 -1.79888e-05)
(1.62991 -0.164131 1.60447e-05)
(1.57522 -0.138736 2.56056e-05)
(1.52468 -0.117159 2.55828e-05)
(1.47911 -0.0984899 2.41416e-05)
(1.4387 -0.0822222 2.13493e-05)
(1.40334 -0.0680044 1.76587e-05)
(1.37276 -0.0555293 1.41777e-05)
(1.34659 -0.0445157 1.14236e-05)
(1.32438 -0.034725 9.38538e-06)
(1.3057 -0.0259465 7.78718e-06)
(1.29009 -0.0180115 6.48727e-06)
(1.27716 -0.0107688 5.25836e-06)
(1.26651 -0.00410686 4.12836e-06)
(1.25785 0.00206755 3.04474e-06)
(1.25083 0.00780453 2.69552e-06)
(1.2453 0.0131791 2.42269e-06)
(1.24094 0.0182524 2.58733e-06)
(1.23771 0.0230942 2.62781e-06)
(1.23528 0.0276819 2.8511e-06)
(1.23372 0.0320737 2.58813e-06)
(1.23263 0.0362315 2.63213e-06)
(1.23225 0.0402464 2.15877e-06)
(1.23207 0.0440342 2.29946e-06)
(1.23252 0.0477259 1.71915e-06)
(1.23288 0.0511645 2.01556e-06)
(1.23387 0.0545566 1.29741e-06)
(1.23447 0.0576297 1.75405e-06)
(1.23575 0.0607172 9.11577e-07)
(1.2363 0.063363 1.46643e-06)
(1.23763 0.0660973 6.37867e-07)
(1.23788 0.0681947 1.08195e-06)
(1.23903 0.0704439 5.74842e-07)
(1.23878 0.0718119 5.30511e-07)
(1.23949 0.0732687 5.19883e-07)
(1.23871 0.0737334 5.88415e-08)
(0.999762 -0.0565162 1.8994e-05)
(1.02181 -0.170028 2.07101e-05)
(1.05902 -0.286985 3.27633e-05)
(1.12687 -0.403571 -1.1482e-05)
(1.22302 -0.525559 -2.49169e-05)
(1.3484 -0.622213 -0.000110242)
(1.52417 -0.715849 -0.000123047)
(1.7234 -0.737279 -3.70331e-05)
(1.86574 -0.664383 1.86776e-05)
(1.89259 -0.534314 4.27363e-05)
(1.8168 -0.397358 0.00015218)
(1.6931 -0.291881 0.00011609)
(1.54281 -0.215211 9.86358e-06)
(1.41145 -0.162486 -1.63362e-05)
(1.30348 -0.124759 1.80685e-05)
(1.2159 -0.0985096 2.66777e-05)
(1.14601 -0.0800726 1.75912e-05)
(1.09171 -0.0664292 1.16568e-05)
(1.05028 -0.0557266 1.03367e-05)
(1.01893 -0.0469139 9.37213e-06)
(0.995361 -0.0393223 8.0857e-06)
(0.977822 -0.032525 6.91536e-06)
(0.964968 -0.0262654 5.92851e-06)
(0.955769 -0.0203998 5.04012e-06)
(0.949452 -0.0148382 4.16328e-06)
(0.945429 -0.00953327 3.31525e-06)
(0.943256 -0.00444243 2.42428e-06)
(0.942587 0.000443477 1.61684e-06)
(0.943145 0.00517256 1.0978e-06)
(0.94472 0.00975997 1.11116e-06)
(0.947189 0.0141931 1.33193e-06)
(0.950357 0.0184839 1.70462e-06)
(0.954176 0.0226529 1.7309e-06)
(0.958457 0.026679 1.81133e-06)
(0.963231 0.0305995 1.60981e-06)
(0.96828 0.0343794 1.67361e-06)
(0.973718 0.0380786 1.42088e-06)
(0.97927 0.0416291 1.55757e-06)
(0.985137 0.045123 1.24938e-06)
(0.990967 0.048441 1.43335e-06)
(0.997046 0.0517332 1.09585e-06)
(1.00296 0.0547932 1.23417e-06)
(1.00901 0.0578703 1.0306e-06)
(1.01486 0.0606087 8.18814e-07)
(1.02056 0.0634226 1.27161e-06)
(1.02627 0.0657145 -1.19355e-07)
(1.0311 0.0681371 2.23858e-06)
(1.03684 0.0697875 -1.96631e-06)
(1.03991 0.0714739 3.66721e-06)
(1.04642 0.0723488 -2.38968e-06)
(0.999093 -0.0639329 2.61529e-05)
(1.02307 -0.193599 4.16577e-05)
(1.05678 -0.3291 6.50492e-05)
(1.13375 -0.474208 1.25713e-05)
(1.22892 -0.623157 3.40011e-05)
(1.38452 -0.765095 -0.000178913)
(1.60573 -0.894542 -7.15855e-05)
(1.80675 -0.870316 -0.000130926)
(1.85759 -0.779188 5.14995e-05)
(1.74637 -0.533807 -0.00014587)
(1.49632 -0.305399 -0.000106488)
(1.21576 -0.163338 -5.55017e-05)
(0.796197 -0.0534793 -3.6503e-05)
(0.687204 -0.0379842 -3.00523e-05)
(0.628528 -0.0349982 2.70652e-05)
(0.597223 -0.0379203 3.53349e-05)
(0.582915 -0.040811 2.59408e-05)
(0.578531 -0.0416627 1.84109e-05)
(0.579178 -0.0405246 1.19408e-05)
(0.582197 -0.0379741 6.28947e-06)
(0.58643 -0.0345027 2.55995e-06)
(0.591396 -0.0304684 5.62496e-07)
(0.596888 -0.026122 -3.51268e-07)
(0.602812 -0.0216303 -6.42988e-07)
(0.609128 -0.0170957 -6.2742e-07)
(0.615812 -0.0125853 -4.42344e-07)
(0.622837 -0.00813375 -1.23117e-07)
(0.630218 -0.00377172 3.19537e-07)
(0.637915 0.000523585 1.94183e-07)
(0.645885 0.004724 -3.80269e-07)
(0.654114 0.00884636 -3.98119e-07)
(0.662606 0.0128672 -1.81176e-07)
(0.671354 0.0167875 -5.52554e-08)
(0.680296 0.020606 1.67128e-07)
(0.689464 0.0243453 2.04517e-07)
(0.698765 0.027985 3.89463e-07)
(0.708259 0.0315612 3.55502e-07)
(0.71782 0.035033 5.28621e-07)
(0.727535 0.0384557 4.44546e-07)
(0.737255 0.0417612 5.99957e-07)
(0.747056 0.0450346 5.29984e-07)
(0.756828 0.0481621 5.42438e-07)