/*--------------------------------*- C++ -*----------------------------------*\
  =========                 |
  \\      /  F ield         | OpenFOAM: The Open Source CFD Toolbox
   \\    /   O peration     | Website:  https://openfoam.org
    \\  /    A nd           | Version:  8
     \\/     M anipulation  |
\*---------------------------------------------------------------------------*/
FoamFile
{
    version     2.0;
    format      ascii;
    class       volScalarField;
    location    "40";
    object      p;
}
// * * * * * * * * * * * * * * * * * * * * * * * * * * * * * * * * * * * * * //

dimensions      [0 2 -2 0 0 0 0];

internalField   nonuniform List<scalar> 
400
(
-3.98923e-12
-4.14448e-12
-4.43778e-12
-4.81794e-12
-5.24119e-12
-5.68249e-12
-6.12281e-12
-6.54874e-12
-6.94331e-12
-7.28466e-12
-7.54895e-12
-7.70917e-12
-7.7369e-12
-7.59966e-12
-7.26349e-12
-6.69068e-12
-5.85045e-12
-4.66913e-12
-3.15397e-12
-9.86997e-13
-3.81149e-12
-3.92208e-12
-4.14521e-12
-4.44566e-12
-4.78758e-12
-5.14949e-12
-5.51302e-12
-5.86432e-12
-6.18693e-12
-6.46022e-12
-6.66138e-12
-6.76579e-12
-6.74819e-12
-6.58035e-12
-6.23077e-12
-5.66466e-12
-4.86274e-12
-3.75216e-12
-2.41374e-12
-4.85811e-13
-3.49231e-12
-3.56036e-12
-3.71538e-12
-3.93782e-12
-4.19826e-12
-4.47839e-12
-4.76209e-12
-5.0355e-12
-5.28372e-12
-5.48761e-12
-5.62561e-12
-5.67737e-12
-5.62209e-12
-5.43616e-12
-5.09307e-12
-4.56287e-12
-3.8388e-12
-2.85837e-12
-1.75693e-12
-1.40158e-13
-3.10192e-12
-3.15035e-12
-3.26615e-12
-3.43833e-12
-3.64323e-12
-3.86504e-12
-4.09076e-12
-4.3078e-12
-4.50223e-12
-4.6567e-12
-4.7532e-12
-4.77451e-12
-4.70272e-12
-4.5189e-12
-4.20245e-12
-3.72862e-12
-3.09788e-12
-2.25522e-12
-1.35789e-12
2.37507e-14
-2.66697e-12
-2.70429e-12
-2.79393e-12
-2.92866e-12
-3.08982e-12
-3.26514e-12
-3.44381e-12
-3.61497e-12
-3.76591e-12
-3.88153e-12
-3.94796e-12
-3.95094e-12
-3.87532e-12
-3.70492e-12
-3.42537e-12
-3.01683e-12
-2.48341e-12
-1.77531e-12
-1.05328e-12
1.17961e-13
-2.1968e-12
-2.22501e-12
-2.29252e-12
-2.39577e-12
-2.52014e-12
-2.65602e-12
-2.79466e-12
-2.92658e-12
-3.04079e-12
-3.12476e-12
-3.1687e-12
-3.16201e-12
-3.09192e-12
-2.94395e-12
-2.70831e-12
-2.37096e-12
-1.93646e-12
-1.3608e-12
-7.95404e-13
1.65449e-13
-1.69865e-12
-1.71908e-12
-1.76827e-12
-1.84519e-12
-1.93855e-12
-2.04102e-12
-2.14578e-12
-2.2448e-12
-2.32917e-12
-2.38897e-12
-2.41753e-12
-2.40869e-12
-2.35256e-12
-2.23448e-12
-2.04801e-12
-1.78511e-12
-1.44997e-12
-1.00407e-12
-5.79579e-13
1.70191e-13
-1.18072e-12
-1.19433e-12
-1.22866e-12
-1.28316e-12
-1.34992e-12
-1.42382e-12
-1.49924e-12
-1.57026e-12
-1.63034e-12
-1.67257e-12
-1.69271e-12
-1.68771e-12
-1.65059e-12
-1.56831e-12
-1.43463e-12
-1.24689e-12
-1.00908e-12
-6.90421e-13
-3.93915e-13
1.43861e-13
-6.50144e-13
-6.5813e-13
-6.79399e-13
-7.14093e-13
-7.57569e-13
-8.05899e-13
-8.55109e-13
-9.01423e-13
-9.40964e-13
-9.69912e-13
-9.87405e-13
-9.90941e-13
-9.75408e-13
-9.31355e-13
-8.53243e-13
-7.40602e-13
-5.97584e-13
-4.04251e-13
-2.28109e-13
9.60686e-14
-1.13179e-13
-1.16281e-13
-1.25325e-13
-1.41991e-13
-1.63737e-13
-1.88165e-13
-2.13137e-13
-2.36346e-13
-2.57597e-13
-2.76705e-13
-2.94442e-13
-3.09101e-13
-3.16692e-13
-3.11648e-13
-2.89736e-13
-2.52734e-13
-2.04021e-13
-1.36023e-13
-7.69979e-14
3.35076e-14
4.24495e-13
4.26536e-13
4.2916e-13
4.29971e-13
4.3019e-13
4.29917e-13
4.28926e-13
4.27386e-13
4.23366e-13
4.13769e-13
3.95128e-13
3.68594e-13
3.37706e-13
3.04171e-13
2.68906e-13
2.28847e-13
1.8162e-13
1.22546e-13
6.48318e-14
-3.60964e-14
9.57834e-13
9.65376e-13
9.79584e-13
9.98886e-13
1.02234e-12
1.0477e-12
1.07183e-12
1.0927e-12
1.10677e-12
1.10814e-12
1.0902e-12
1.05345e-12
1.00047e-12
9.28847e-13
8.36133e-13
7.17131e-13
5.71352e-13
3.83442e-13
2.07838e-13
-1.02163e-13
1.48152e-12
1.49382e-12
1.51986e-12
1.55991e-12
1.6094e-12
1.66321e-12
1.71516e-12
1.76105e-12
1.79595e-12
1.8117e-12
1.79869e-12
1.75523e-12
1.68254e-12
1.57421e-12
1.42433e-12
1.22478e-12
9.78823e-13
6.61466e-13
3.65147e-13
-1.5324e-13
1.98884e-12
2.00575e-12
2.04542e-12
2.10926e-12
2.18858e-12
2.27447e-12
2.35872e-12
2.43445e-12
2.49491e-12
2.52994e-12
2.52729e-12
2.48213e-12
2.39329e-12
2.25053e-12
2.04459e-12
1.76519e-12
1.4188e-12
9.7232e-13
5.48203e-13
-1.80515e-13
2.47462e-12
2.49639e-12
2.553e-12
2.64534e-12
2.7595e-12
2.88308e-12
3.00522e-12
3.11665e-12
3.20879e-12
3.26922e-12
3.28293e-12
3.24207e-12
3.14186e-12
2.96836e-12
2.70978e-12
2.35396e-12
1.90828e-12
1.33226e-12
7.67555e-13
-1.75127e-13
2.93318e-12
2.9615e-12
3.03967e-12
3.16632e-12
3.32163e-12
3.48909e-12
3.65575e-12
3.80968e-12
3.93983e-12
4.03139e-12
4.06781e-12
4.03771e-12
3.93235e-12
3.73387e-12
3.42793e-12
3.0012e-12
2.45901e-12
1.75175e-12
1.02971e-12
-1.27497e-13
3.35954e-12
3.39714e-12
3.50249e-12
3.67016e-12
3.87317e-12
4.09146e-12
4.30954e-12
4.51241e-12
4.68628e-12
4.81477e-12
4.88009e-12
4.86734e-12
4.7637e-12
4.54794e-12
4.20237e-12
3.71079e-12
3.07449e-12
2.2337e-12
1.33362e-12
-3.59607e-14
3.7449e-12
3.80233e-12
3.94857e-12
4.17021e-12
4.4325e-12
4.71267e-12
4.99259e-12
5.25422e-12
5.48153e-12
5.65676e-12
5.7608e-12
5.77616e-12
5.68574e-12
5.46432e-12
5.08972e-12
4.54146e-12
3.81343e-12
2.83596e-12
1.72891e-12
1.23361e-13
4.06161e-12
4.16379e-12
4.38121e-12
4.6848e-12
5.03119e-12
5.39517e-12
5.75793e-12
6.0991e-12
6.40031e-12
6.64344e-12
6.80825e-12
6.87402e-12
6.81858e-12
6.6136e-12
6.23173e-12
5.64521e-12
4.83665e-12
3.7295e-12
2.38732e-12
4.69211e-13
4.2372e-12
4.38593e-12
4.67624e-12
5.06145e-12
5.48948e-12
5.93355e-12
6.37443e-12
6.79136e-12
7.1647e-12
7.47561e-12
7.70331e-12
7.82512e-12
7.81453e-12
7.64008e-12
7.27166e-12
6.67756e-12
5.82779e-12
4.64769e-12
3.13645e-12
9.78839e-13
)
;

boundaryField
{
    inlet
    {
        type            zeroGradient;
    }
    outlet
    {
        type            fixedValue;
        value           uniform 0;
    }
    up
    {
        type            zeroGradient;
    }
    down
    {
        type            zeroGradient;
    }
    frontAndBack
    {
        type            empty;
    }
}


// ************************************************************************* //
