0 	-1.20087e-09
1.57135 	-6.15681e-07
3.1427 	-1.36046e-06
4.71405 	4.25921e-06
6.28539 	3.16365e-05
7.85674 	0.000113844
9.42809 	0.000318553
10.9994 	0.000703392
12.5708 	-0.00248869
14.1421 	0.339504
