/*--------------------------------*- C++ -*----------------------------------*\
  =========                 |
  \\      /  F ield         | OpenFOAM: The Open Source CFD Toolbox
   \\    /   O peration     | Website:  https://openfoam.org
    \\  /    A nd           | Version:  8
     \\/     M anipulation  |
\*---------------------------------------------------------------------------*/
FoamFile
{
    version     2.0;
    format      ascii;
    class       volVectorField;
    location    "56";
    object      U;
}
// * * * * * * * * * * * * * * * * * * * * * * * * * * * * * * * * * * * * * //

dimensions      [0 1 -1 0 0 0 0];

internalField   nonuniform List<vector> 
11600
(
(9.56862e-07 -1.1946e-06 0)
(-3.87893e-05 1.38049e-05 0)
(-0.000119337 2.07222e-05 0)
(-0.000205695 2.31591e-05 0)
(-0.000299146 2.34873e-05 0)
(-0.000393076 2.3241e-05 0)
(-0.000487052 2.30228e-05 0)
(-0.00058102 2.29286e-05 0)
(-0.000675055 2.29307e-05 0)
(-0.000769261 2.29924e-05 0)
(-0.000863722 2.30895e-05 0)
(-0.000958495 2.32096e-05 0)
(-0.00105363 2.33472e-05 0)
(-0.00114915 2.34995e-05 0)
(-0.00124511 2.36654e-05 0)
(-0.00134153 2.38443e-05 0)
(-0.00143844 2.40359e-05 0)
(-0.00153587 2.424e-05 0)
(-0.00163385 2.44563e-05 0)
(-0.0017324 2.46848e-05 0)
(-0.00183154 2.49253e-05 0)
(-0.00193129 2.51777e-05 0)
(-0.00203168 2.54417e-05 0)
(-0.00213272 2.57173e-05 0)
(-0.00223443 2.60043e-05 0)
(-0.00233682 2.63024e-05 0)
(-0.00243991 2.66114e-05 0)
(-0.0025437 2.69311e-05 0)
(-0.0026482 2.72611e-05 0)
(-0.00275341 2.76011e-05 0)
(-0.00285934 2.79507e-05 0)
(-0.00296598 2.83093e-05 0)
(-0.00307334 2.86763e-05 0)
(-0.0031814 2.9051e-05 0)
(-0.00329016 2.94325e-05 0)
(-0.00339961 2.98197e-05 0)
(-0.00350972 3.02111e-05 0)
(-0.00362048 3.0605e-05 0)
(-0.00373186 3.0999e-05 0)
(-0.00384385 3.13902e-05 0)
(-0.0039564 3.17744e-05 0)
(-0.00406948 3.21461e-05 0)
(-0.00418304 3.24975e-05 0)
(-0.00429703 3.28168e-05 0)
(-0.00441136 3.30864e-05 0)
(-0.00452593 3.32774e-05 0)
(-0.00464057 3.33406e-05 0)
(-0.00475501 3.31861e-05 0)
(-0.00486881 3.26422e-05 0)
(-0.00498113 3.13678e-05 0)
(-0.00509052 2.86813e-05 0)
(-0.00519439 2.32866e-05 0)
(-0.00528821 1.29475e-05 0)
(-0.00536466 -5.9462e-06 0)
(-0.00542175 -3.85563e-05 0)
(-0.00547651 -7.9208e-05 0)
(-0.00541981 -7.39742e-05 0)
(-0.0059418 3.3448e-08 0)
(-0.00589164 0.00105853 0)
(-0.010055 0.00354061 0)
(-1.49057e-05 3.90202e-05 0)
(-0.000113853 0.000111095 0)
(-0.000282424 0.000146382 0)
(-0.000463104 0.000161466 0)
(-0.000657524 0.000166509 0)
(-0.000854833 0.000167784 0)
(-0.00105329 0.000168053 0)
(-0.0012523 0.000168209 0)
(-0.00145169 0.000168471 0)
(-0.00165145 0.000168855 0)
(-0.00185165 0.000169339 0)
(-0.00205234 0.000169902 0)
(-0.00225358 0.000170532 0)
(-0.00245543 0.00017122 0)
(-0.00265791 0.00017196 0)
(-0.00286108 0.00017275 0)
(-0.00306497 0.000173585 0)
(-0.00326962 0.000174462 0)
(-0.00347504 0.000175379 0)
(-0.00368126 0.000176332 0)
(-0.00388831 0.000177319 0)
(-0.0040962 0.000178335 0)
(-0.00430493 0.000179377 0)
(-0.00451451 0.000180442 0)
(-0.00472495 0.000181526 0)
(-0.00493623 0.000182624 0)
(-0.00514835 0.000183732 0)
(-0.00536129 0.000184846 0)
(-0.00557502 0.000185962 0)
(-0.00578952 0.000187074 0)
(-0.00600475 0.000188177 0)
(-0.00622067 0.000189267 0)
(-0.00643723 0.000190337 0)
(-0.00665438 0.000191384 0)
(-0.00687207 0.000192402 0)
(-0.00709022 0.000193385 0)
(-0.00730878 0.000194329 0)
(-0.00752768 0.000195227 0)
(-0.00774684 0.000196075 0)
(-0.00796621 0.000196866 0)
(-0.00818571 0.000197594 0)
(-0.00840528 0.00019825 0)
(-0.00862488 0.000198822 0)
(-0.00884447 0.00019929 0)
(-0.00906401 0.000199624 0)
(-0.0092835 0.000199767 0)
(-0.00950293 0.000199618 0)
(-0.0097223 0.000198987 0)
(-0.00994162 0.000197523 0)
(-0.0101609 0.000194584 0)
(-0.0103802 0.000189082 0)
(-0.0106002 0.000179437 0)
(-0.0108231 0.000164141 0)
(-0.0110569 0.000143884 0)
(-0.011323 0.000128315 0)
(-0.0116574 0.000161434 0)
(-0.0121198 0.000361838 0)
(-0.0130665 0.000838986 0)
(-0.0139399 0.00249716 0)
(-0.0162845 0.00457585 0)
(-2.31172e-05 0.000123006 0)
(-0.00015416 0.000281506 0)
(-0.000370207 0.000359866 0)
(-0.000600083 0.000394614 0)
(-0.000846254 0.000407831 0)
(-0.00109612 0.000412292 0)
(-0.00134753 0.000413804 0)
(-0.00159972 0.000414571 0)
(-0.0018524 0.000415297 0)
(-0.00210551 0.000416156 0)
(-0.0023591 0.000417164 0)
(-0.0026132 0.000418309 0)
(-0.00286787 0.000419574 0)
(-0.00312315 0.000420945 0)
(-0.00337907 0.000422412 0)
(-0.00363568 0.000423966 0)
(-0.00389299 0.000425599 0)
(-0.00415105 0.000427303 0)
(-0.00440986 0.000429069 0)
(-0.00466945 0.000430889 0)
(-0.00492982 0.000432754 0)
(-0.00519097 0.000434655 0)
(-0.0054529 0.000436582 0)
(-0.00571561 0.000438525 0)
(-0.00597908 0.000440473 0)
(-0.00624329 0.000442415 0)
(-0.0065082 0.00044434 0)
(-0.00677379 0.000446236 0)
(-0.00704 0.00044809 0)
(-0.0073068 0.000449891 0)
(-0.00757411 0.000451627 0)
(-0.00784188 0.000453285 0)
(-0.00811003 0.000454853 0)
(-0.00837849 0.00045632 0)
(-0.00864718 0.000457677 0)
(-0.00891601 0.000458915 0)
(-0.0091849 0.000460026 0)
(-0.00945377 0.000461005 0)
(-0.00972253 0.000461851 0)
(-0.00999113 0.000462565 0)
(-0.0102595 0.000463153 0)
(-0.0105276 0.000463624 0)
(-0.0107955 0.00046399 0)
(-0.0110631 0.000464267 0)
(-0.0113307 0.000464467 0)
(-0.0115984 0.000464593 0)
(-0.0118665 0.000464619 0)
(-0.0121355 0.000464473 0)
(-0.0124061 0.000464004 0)
(-0.0126797 0.000463007 0)
(-0.0129581 0.000461421 0)
(-0.0132452 0.000460103 0)
(-0.0135478 0.000462983 0)
(-0.0138797 0.000482344 0)
(-0.0142641 0.000550387 0)
(-0.014732 0.00073848 0)
(-0.0153284 0.00117036 0)
(-0.0161373 0.00202296 0)
(-0.0167559 0.00370501 0)
(-0.017733 0.00575564 0)
(-2.65918e-05 0.000216028 0)
(-0.000173462 0.000468593 0)
(-0.000413122 0.000592149 0)
(-0.000666379 0.000646536 0)
(-0.000936813 0.000667704 0)
(-0.00121102 0.000675243 0)
(-0.00148687 0.000677993 0)
(-0.00176358 0.000679391 0)
(-0.00204084 0.000680587 0)
(-0.00231855 0.0006819 0)
(-0.00259674 0.00068339 0)
(-0.00287544 0.000685054 0)
(-0.00315466 0.000686876 0)
(-0.00343446 0.000688839 0)
(-0.00371486 0.00069093 0)
(-0.00399588 0.000693136 0)
(-0.00427756 0.000695443 0)
(-0.0045599 0.000697839 0)
(-0.00484292 0.00070031 0)
(-0.00512663 0.000702842 0)
(-0.00541103 0.000705421 0)
(-0.00569611 0.000708031 0)
(-0.00598187 0.000710656 0)
(-0.00626828 0.00071328 0)
(-0.00655532 0.000715884 0)
(-0.00684296 0.000718451 0)
(-0.00713116 0.000720963 0)
(-0.00741986 0.000723399 0)
(-0.00770902 0.000725741 0)
(-0.00799858 0.000727969 0)
(-0.00828845 0.000730064 0)
(-0.00857857 0.000732008 0)
(-0.00886885 0.000733784 0)
(-0.00915921 0.000735377 0)
(-0.00944955 0.000736773 0)
(-0.00973979 0.000737964 0)
(-0.0100298 0.000738944 0)
(-0.0103196 0.000739716 0)
(-0.0106089 0.000740287 0)
(-0.0108979 0.000740678 0)
(-0.0111864 0.000740919 0)
(-0.0114744 0.000741059 0)
(-0.0117619 0.000741163 0)
(-0.0120492 0.000741321 0)
(-0.0123364 0.000741653 0)
(-0.0126238 0.000742312 0)
(-0.0129121 0.000743499 0)
(-0.0132021 0.00074548 0)
(-0.0134952 0.000748654 0)
(-0.0137936 0.000753717 0)
(-0.0141007 0.000762135 0)
(-0.0144219 0.000777262 0)
(-0.0147658 0.000806812 0)
(-0.0151445 0.000867846 0)
(-0.0155727 0.000995311 0)
(-0.0160614 0.00125143 0)
(-0.0166083 0.00172738 0)
(-0.0171572 0.00254051 0)
(-0.0174695 0.00383636 0)
(-0.0175711 0.00525745 0)
(-2.75082e-05 0.000318123 0)
(-0.000181078 0.00067223 0)
(-0.000431453 0.000843593 0)
(-0.000695023 0.000918419 0)
(-0.000976096 0.000947824 0)
(-0.00126078 0.000958585 0)
(-0.00154705 0.00096267 0)
(-0.00183417 0.000964765 0)
(-0.00212183 0.00096647 0)
(-0.00240995 0.000968254 0)
(-0.00269853 0.000970227 0)
(-0.00298761 0.000972399 0)
(-0.00327719 0.000974758 0)
(-0.00356732 0.000977287 0)
(-0.00385801 0.00097997 0)
(-0.00414929 0.000982789 0)
(-0.00444117 0.000985726 0)
(-0.00473367 0.000988765 0)
(-0.00502681 0.000991885 0)
(-0.00532057 0.000995068 0)
(-0.00561496 0.000998292 0)
(-0.00590996 0.00100154 0)
(-0.00620557 0.00100478 0)
(-0.00650176 0.00100799 0)
(-0.00679849 0.00101115 0)
(-0.00709574 0.00101424 0)
(-0.00739345 0.00101722 0)
(-0.00769157 0.00102007 0)
(-0.00799004 0.00102276 0)
(-0.0082888 0.00102527 0)
(-0.00858775 0.00102757 0)
(-0.00888683 0.00102963 0)
(-0.00918594 0.00103143 0)
(-0.00948499 0.00103296 0)
(-0.00978388 0.00103419 0)
(-0.0100825 0.00103512 0)
(-0.0103808 0.00103575 0)
(-0.0106786 0.00103609 0)
(-0.0109758 0.00103615 0)
(-0.0112725 0.00103599 0)
(-0.0115685 0.00103566 0)
(-0.0118639 0.00103526 0)
(-0.0121586 0.00103492 0)
(-0.0124529 0.00103483 0)
(-0.0127469 0.00103525 0)
(-0.0130411 0.00103654 0)
(-0.0133359 0.00103918 0)
(-0.0136325 0.00104391 0)
(-0.0139321 0.00105181 0)
(-0.0142369 0.00106465 0)
(-0.0145498 0.00108547 0)
(-0.0148753 0.00111978 0)
(-0.0152189 0.00117769 0)
(-0.0155869 0.00127745 0)
(-0.0159824 0.00144991 0)
(-0.0163995 0.00174127 0)
(-0.0168104 0.00220966 0)
(-0.0171355 0.00291304 0)
(-0.0172302 0.00386145 0)
(-0.0170255 0.00485837 0)
(-2.74903e-05 0.000421742 0)
(-0.00018346 0.000880385 0)
(-0.000438189 0.00110047 0)
(-0.00070589 0.00119581 0)
(-0.000991248 0.0012333 0)
(-0.00128006 0.00124714 0)
(-0.00157035 0.00125247 0)
(-0.00186147 0.00125522 0)
(-0.00215311 0.00125742 0)
(-0.00244521 0.00125966 0)
(-0.00273776 0.0012621 0)
(-0.0030308 0.00126477 0)
(-0.00332435 0.00126765 0)
(-0.00361843 0.00127072 0)
(-0.00391306 0.00127397 0)
(-0.00420827 0.00127737 0)
(-0.00450408 0.00128091 0)
(-0.00480048 0.00128456 0)
(-0.0050975 0.00128829 0)
(-0.00539513 0.00129208 0)
(-0.00569337 0.00129591 0)
(-0.0059922 0.00129974 0)
(-0.00629161 0.00130355 0)
(-0.00659158 0.00130731 0)
(-0.00689207 0.00131097 0)
(-0.00719303 0.00131452 0)
(-0.00749444 0.00131791 0)
(-0.00779621 0.00132111 0)
(-0.00809831 0.00132408 0)
(-0.00840064 0.0013268 0)
(-0.00870313 0.00132922 0)
(-0.0090057 0.00133132 0)
(-0.00930825 0.00133306 0)
(-0.00961067 0.00133443 0)
(-0.00991286 0.0013354 0)
(-0.0102147 0.00133597 0)
(-0.0105161 0.00133613 0)
(-0.010817 0.0013359 0)
(-0.0111172 0.00133532 0)
(-0.0114166 0.00133446 0)
(-0.0117153 0.00133339 0)
(-0.0120131 0.00133227 0)
(-0.0123101 0.00133128 0)
(-0.0126063 0.0013307 0)
(-0.0129019 0.00133091 0)
(-0.0131973 0.00133245 0)
(-0.0134927 0.00133605 0)
(-0.013789 0.00134278 0)
(-0.0140872 0.0013542 0)
(-0.0143886 0.0013727 0)
(-0.0146952 0.00140199 0)
(-0.0150093 0.00144806 0)
(-0.0153328 0.00152057 0)
(-0.0156662 0.00163478 0)
(-0.0160048 0.00181318 0)
(-0.0163334 0.00208511 0)
(-0.0166175 0.00248204 0)
(-0.0167907 0.00302436 0)
(-0.0167666 0.00368478 0)
(-0.0164774 0.00435361 0)
(-2.72763e-05 0.000525681 0)
(-0.000183855 0.00109017 0)
(-0.000440023 0.00135939 0)
(-0.000709112 0.00147532 0)
(-0.000995963 0.00152082 0)
(-0.00128617 0.00153763 0)
(-0.0015778 0.00154416 0)
(-0.00187023 0.00154754 0)
(-0.00216315 0.00155021 0)
(-0.00245654 0.00155292 0)
(-0.00275038 0.00155583 0)
(-0.00304472 0.001559 0)
(-0.00333957 0.00156239 0)
(-0.00363496 0.00156601 0)
(-0.00393092 0.00156983 0)
(-0.00422746 0.00157381 0)
(-0.0045246 0.00157795 0)
(-0.00482235 0.0015822 0)
(-0.00512073 0.00158654 0)
(-0.00541973 0.00159095 0)
(-0.00571934 0.00159538 0)
(-0.00601956 0.00159979 0)
(-0.00632037 0.00160417 0)
(-0.00662175 0.00160846 0)
(-0.00692366 0.00161262 0)
(-0.00722606 0.00161663 0)
(-0.00752891 0.00162042 0)
(-0.00783214 0.00162396 0)
(-0.00813569 0.00162721 0)
(-0.00843949 0.00163012 0)
(-0.00874346 0.00163265 0)
(-0.0090475 0.00163476 0)
(-0.00935151 0.00163642 0)
(-0.00965538 0.0016376 0)
(-0.00995901 0.00163826 0)
(-0.0102623 0.00163841 0)
(-0.010565 0.00163804 0)
(-0.0108672 0.00163717 0)
(-0.0111686 0.00163584 0)
(-0.0114691 0.00163413 0)
(-0.0117687 0.00163215 0)
(-0.0120673 0.00163008 0)
(-0.0123647 0.00162815 0)
(-0.012661 0.00162669 0)
(-0.0129562 0.00162619 0)
(-0.0132505 0.00162727 0)
(-0.0135439 0.00163085 0)
(-0.0138369 0.00163817 0)
(-0.0141298 0.00165104 0)
(-0.0144232 0.00167203 0)
(-0.0147177 0.00170493 0)
(-0.0150133 0.0017553 0)
(-0.0153091 0.00183127 0)
(-0.0156018 0.00194425 0)
(-0.0158828 0.00210908 0)
(-0.0161349 0.00234243 0)
(-0.0163274 0.00265807 0)
(-0.0164134 0.00305648 0)
(-0.0163409 0.00350621 0)
(-0.0160677 0.00394091 0)
(-2.70664e-05 0.000629475 0)
(-0.000183569 0.00130036 0)
(-0.000439948 0.00161892 0)
(-0.000709287 0.00175553 0)
(-0.000996466 0.00180902 0)
(-0.00128696 0.00182878 0)
(-0.00157886 0.00183646 0)
(-0.00187153 0.00184045 0)
(-0.00216469 0.0018436 0)
(-0.00245831 0.00184677 0)
(-0.0027524 0.00185017 0)
(-0.003047 0.00185384 0)
(-0.00334213 0.00185777 0)
(-0.00363781 0.00186195 0)
(-0.00393408 0.00186635 0)
(-0.00423096 0.00187093 0)
(-0.00452845 0.00187568 0)
(-0.00482659 0.00188056 0)
(-0.00512537 0.00188554 0)
(-0.0054248 0.00189057 0)
(-0.00572488 0.00189562 0)
(-0.00602559 0.00190065 0)
(-0.00632693 0.00190562 0)
(-0.00662887 0.00191047 0)
(-0.00693137 0.00191516 0)
(-0.0072344 0.00191964 0)
(-0.00753791 0.00192386 0)
(-0.00784184 0.00192777 0)
(-0.00814613 0.00193132 0)
(-0.0084507 0.00193445 0)
(-0.00875547 0.0019371 0)
(-0.00906033 0.00193925 0)
(-0.0093652 0.00194083 0)
(-0.00966994 0.00194181 0)
(-0.00997445 0.00194217 0)
(-0.0102786 0.00194187 0)
(-0.0105822 0.00194093 0)
(-0.0108851 0.00193934 0)
(-0.0111873 0.00193717 0)
(-0.0114884 0.00193448 0)
(-0.0117885 0.0019314 0)
(-0.0120873 0.00192812 0)
(-0.0123846 0.00192489 0)
(-0.0126804 0.00192208 0)
(-0.0129745 0.00192019 0)
(-0.0132669 0.00191992 0)
(-0.0135574 0.00192221 0)
(-0.0138458 0.00192834 0)
(-0.0141322 0.00194011 0)
(-0.0144161 0.00195995 0)
(-0.0146968 0.00199123 0)
(-0.0149731 0.00203855 0)
(-0.0152421 0.00210804 0)
(-0.0154984 0.00220742 0)
(-0.0157327 0.0023455 0)
(-0.0159291 0.00253046 0)
(-0.0160638 0.00276611 0)
(-0.0161058 0.00304522 0)
(-0.0160243 0.00334151 0)
(-0.0157971 0.00361093 0)
(-2.68891e-05 0.00073295 0)
(-0.000183064 0.00151038 0)
(-0.000439162 0.00187837 0)
(-0.000708291 0.00203572 0)
(-0.000995319 0.00209722 0)
(-0.00128566 0.00211992 0)
(-0.0015774 0.00212875 0)
(-0.0018699 0.00213334 0)
(-0.00216291 0.00213696 0)
(-0.00245637 0.0021406 0)
(-0.00275032 0.00214449 0)
(-0.00304479 0.00214868 0)
(-0.00333982 0.00215317 0)
(-0.00363542 0.00215793 0)
(-0.00393163 0.00216294 0)
(-0.00422848 0.00216815 0)
(-0.00452598 0.00217355 0)
(-0.00482416 0.00217909 0)
(-0.00512301 0.00218472 0)
(-0.00542255 0.00219042 0)
(-0.00572278 0.00219613 0)
(-0.00602369 0.00220181 0)
(-0.00632527 0.00220741 0)
(-0.00662749 0.00221286 0)
(-0.00693032 0.00221812 0)
(-0.00723374 0.00222313 0)
(-0.00753769 0.00222783 0)
(-0.00784211 0.00223215 0)
(-0.00814695 0.00223604 0)
(-0.00845212 0.00223943 0)
(-0.00875753 0.00224225 0)
(-0.00906309 0.00224446 0)
(-0.00936869 0.002246 0)
(-0.0096742 0.00224681 0)
(-0.0099795 0.00224686 0)
(-0.0102844 0.00224612 0)
(-0.0105888 0.00224457 0)
(-0.0108925 0.00224222 0)
(-0.0111954 0.00223911 0)
(-0.0114971 0.00223531 0)
(-0.0117976 0.00223093 0)
(-0.0120966 0.00222616 0)
(-0.0123939 0.00222125 0)
(-0.0126891 0.00221656 0)
(-0.0129821 0.00221258 0)
(-0.0132725 0.00220998 0)
(-0.0135599 0.00220965 0)
(-0.0138439 0.00221279 0)
(-0.0141237 0.00222099 0)
(-0.0143985 0.00223633 0)
(-0.0146666 0.00226154 0)
(-0.0149259 0.00230007 0)
(-0.0151726 0.00235614 0)
(-0.0154008 0.0024345 0)
(-0.0156015 0.00253974 0)
(-0.0157618 0.00267482 0)
(-0.0158643 0.00283852 0)
(-0.0158888 0.0030216 0)
(-0.0158175 0.00320377 0)
(-0.0156395 0.00335495 0)
(-2.67326e-05 0.000836064 0)
(-0.00018248 0.00171998 0)
(-0.000438087 0.00213744 0)
(-0.000706809 0.0023156 0)
(-0.000993476 0.00238514 0)
(-0.00128347 0.00241078 0)
(-0.00157487 0.00242075 0)
(-0.00186705 0.00242594 0)
(-0.00215973 0.00243005 0)
(-0.00245288 0.00243417 0)
(-0.00274654 0.00243857 0)
(-0.00304073 0.00244331 0)
(-0.0033355 0.00244838 0)
(-0.00363088 0.00245375 0)
(-0.00392691 0.00245939 0)
(-0.00422359 0.00246527 0)
(-0.00452097 0.00247134 0)
(-0.00481906 0.00247758 0)
(-0.00511788 0.00248392 0)
(-0.00541743 0.00249033 0)
(-0.00571771 0.00249674 0)
(-0.00601873 0.00250312 0)
(-0.00632047 0.0025094 0)
(-0.00662291 0.00251551 0)
(-0.00692603 0.0025214 0)
(-0.00722979 0.00252699 0)
(-0.00753414 0.00253222 0)
(-0.00783904 0.00253702 0)
(-0.00814441 0.0025413 0)
(-0.00845018 0.00254501 0)
(-0.00875627 0.00254806 0)
(-0.00906256 0.00255039 0)
(-0.00936894 0.00255193 0)
(-0.00967529 0.00255261 0)
(-0.00998146 0.00255237 0)
(-0.0102873 0.00255119 0)
(-0.0105926 0.00254902 0)
(-0.0108972 0.00254587 0)
(-0.0112009 0.00254174 0)
(-0.0115034 0.0025367 0)
(-0.0118045 0.00253084 0)
(-0.0121039 0.00252431 0)
(-0.0124012 0.00251735 0)
(-0.0126962 0.00251027 0)
(-0.0129883 0.0025035 0)
(-0.0132771 0.00249765 0)
(-0.0135619 0.00249348 0)
(-0.013842 0.00249202 0)
(-0.0141163 0.00249454 0)
(-0.0143835 0.0025027 0)
(-0.0146414 0.0025185 0)
(-0.0148875 0.00254432 0)
(-0.0151175 0.00258277 0)
(-0.015326 0.0026364 0)
(-0.0155051 0.00270705 0)
(-0.0156447 0.00279474 0)
(-0.0157323 0.00289603 0)
(-0.0157551 0.00300203 0)
(-0.0157025 0.00309739 0)
(-0.0155698 0.00316133 0)
(-2.65813e-05 0.000938799 0)
(-0.000181843 0.00192907 0)
(-0.000436851 0.00239599 0)
(-0.000705062 0.00259503 0)
(-0.000991256 0.00267264 0)
(-0.0012808 0.00270123 0)
(-0.00157178 0.00271236 0)
(-0.00186353 0.00271817 0)
(-0.00215581 0.00272277 0)
(-0.00244857 0.00272739 0)
(-0.00274185 0.00273232 0)
(-0.0030357 0.00273763 0)
(-0.00333015 0.0027433 0)
(-0.00362524 0.00274932 0)
(-0.00392101 0.00275563 0)
(-0.00421748 0.0027622 0)
(-0.00451469 0.002769 0)
(-0.00481265 0.00277597 0)
(-0.00511139 0.00278307 0)
(-0.00541091 0.00279024 0)
(-0.00571122 0.00279742 0)
(-0.00601233 0.00280455 0)
(-0.00631422 0.00281157 0)
(-0.00661688 0.0028184 0)
(-0.00692028 0.00282498 0)
(-0.0072244 0.00283123 0)
(-0.00752919 0.00283706 0)
(-0.0078346 0.0028424 0)
(-0.00814057 0.00284716 0)
(-0.00844701 0.00285126 0)
(-0.00875384 0.00285461 0)
(-0.00906096 0.00285712 0)
(-0.00936824 0.00285871 0)
(-0.00967555 0.00285931 0)
(-0.00998273 0.00285884 0)
(-0.0102896 0.00285724 0)
(-0.010596 0.00285446 0)
(-0.0109017 0.00285048 0)
(-0.0112065 0.00284528 0)
(-0.01151 0.00283889 0)
(-0.011812 0.00283138 0)
(-0.0121121 0.00282286 0)
(-0.0124099 0.00281351 0)
(-0.012705 0.00280358 0)
(-0.0129967 0.00279344 0)
(-0.0132845 0.00278354 0)
(-0.0135676 0.00277451 0)
(-0.0138449 0.00276712 0)
(-0.0141152 0.00276236 0)
(-0.0143767 0.00276137 0)
(-0.0146274 0.0027655 0)
(-0.0148642 0.00277619 0)
(-0.0150833 0.00279485 0)
(-0.0152797 0.00282249 0)
(-0.0154468 0.00285923 0)
(-0.0155769 0.00290355 0)
(-0.0156612 0.0029513 0)
(-0.0156913 0.00299474 0)
(-0.0156611 0.00302228 0)
(-0.0155686 0.00301937 0)
(-2.64249e-05 0.00104113 0)
(-0.000181151 0.00213756 0)
(-0.000435482 0.00265397 0)
(-0.000703109 0.00287391 0)
(-0.00098875 0.00295963 0)
(-0.00127778 0.00299121 0)
(-0.00156825 0.00300351 0)
(-0.00185952 0.00300995 0)
(-0.00215133 0.00301506 0)
(-0.00244364 0.00302019 0)
(-0.0027365 0.00302568 0)
(-0.00302995 0.00303159 0)
(-0.00332403 0.0030379 0)
(-0.00361879 0.00304459 0)
(-0.00391426 0.00305161 0)
(-0.00421048 0.00305893 0)
(-0.00450748 0.00306649 0)
(-0.00480529 0.00307425 0)
(-0.00510393 0.00308216 0)
(-0.00540341 0.00309014 0)
(-0.00570374 0.00309814 0)
(-0.00600493 0.0031061 0)
(-0.00630698 0.00311393 0)
(-0.00660988 0.00312156 0)
(-0.0069136 0.0031289 0)
(-0.00721811 0.00313588 0)
(-0.00752339 0.0031424 0)
(-0.00782937 0.00314837 0)
(-0.00813599 0.00315369 0)
(-0.00844319 0.00315826 0)
(-0.00875087 0.00316199 0)
(-0.00905892 0.00316476 0)
(-0.00936723 0.00316649 0)
(-0.00967565 0.00316708 0)
(-0.00998402 0.00316643 0)
(-0.0102922 0.00316446 0)
(-0.0105999 0.0031611 0)
(-0.0109069 0.00315628 0)
(-0.011213 0.00314998 0)
(-0.0115178 0.00314218 0)
(-0.011821 0.0031329 0)
(-0.0121223 0.0031222 0)
(-0.012421 0.0031102 0)
(-0.0127168 0.00309707 0)
(-0.0130089 0.00308305 0)
(-0.0132966 0.00306849 0)
(-0.0135789 0.00305381 0)
(-0.0138547 0.00303955 0)
(-0.0141227 0.00302634 0)
(-0.0143809 0.00301492 0)
(-0.0146272 0.00300604 0)
(-0.0148588 0.00300041 0)
(-0.015072 0.00299851 0)
(-0.0152625 0.00300036 0)
(-0.015425 0.00300509 0)
(-0.0155537 0.00301047 0)
(-0.0156422 0.00301234 0)
(-0.0156851 0.0030042 0)
(-0.0156786 0.00297726 0)
(-0.015622 0.00292116 0)
(-2.62577e-05 0.00114303 0)
(-0.000180397 0.00234541 0)
(-0.000433979 0.00291128 0)
(-0.000700955 0.00315219 0)
(-0.000985975 0.00324606 0)
(-0.00127442 0.00328065 0)
(-0.00156433 0.00329414 0)
(-0.00185506 0.00330123 0)
(-0.00214634 0.00330687 0)
(-0.00243815 0.00331254 0)
(-0.00273054 0.00331861 0)
(-0.00302354 0.00332514 0)
(-0.00331721 0.00333213 0)
(-0.00361159 0.00333953 0)
(-0.00390673 0.0033473 0)
(-0.00420267 0.00335541 0)
(-0.00449943 0.00336379 0)
(-0.00479706 0.00337239 0)
(-0.00509558 0.00338116 0)
(-0.005395 0.00339003 0)
(-0.00569535 0.00339893 0)
(-0.00599664 0.00340777 0)
(-0.00629885 0.00341649 0)
(-0.006602 0.003425 0)
(-0.00690606 0.0034332 0)
(-0.00721101 0.003441 0)
(-0.00751682 0.0034483 0)
(-0.00782343 0.00345499 0)
(-0.00813079 0.00346096 0)
(-0.00843883 0.00346611 0)
(-0.00874746 0.00347032 0)
(-0.00905657 0.00347346 0)
(-0.00936604 0.00347542 0)
(-0.00967574 0.00347608 0)
(-0.00998548 0.00347533 0)
(-0.0102951 0.00347306 0)
(-0.0106043 0.00346917 0)
(-0.010913 0.00346356 0)
(-0.0112207 0.00345617 0)
(-0.0115272 0.00344693 0)
(-0.0118321 0.00343581 0)
(-0.0121349 0.00342282 0)
(-0.0124352 0.00340799 0)
(-0.0127322 0.0033914 0)
(-0.0130254 0.00337318 0)
(-0.0133139 0.00335352 0)
(-0.0135967 0.00333266 0)
(-0.0138725 0.0033109 0)
(-0.01414 0.00328856 0)
(-0.0143972 0.00326599 0)
(-0.0146421 0.00324348 0)
(-0.0148719 0.00322117 0)
(-0.0150836 0.0031989 0)
(-0.0152733 0.00317604 0)
(-0.0154369 0.00315119 0)
(-0.0155699 0.00312186 0)
(-0.0156677 0.0030842 0)
(-0.0157266 0.00303282 0)
(-0.0157443 0.00296099 0)
(-0.0157205 0.00286114 0)
(-2.60768e-05 0.00124446 0)
(-0.000179574 0.00255254 0)
(-0.000432335 0.00316788 0)
(-0.000698593 0.0034298 0)
(-0.000982926 0.00353186 0)
(-0.00127072 0.00356948 0)
(-0.00156001 0.00358419 0)
(-0.00185013 0.00359194 0)
(-0.00214083 0.00359813 0)
(-0.00243209 0.00360437 0)
(-0.00272395 0.00361105 0)
(-0.00301645 0.00361824 0)
(-0.00330967 0.00362594 0)
(-0.00360363 0.00363409 0)
(-0.0038984 0.00364267 0)
(-0.00419401 0.00365161 0)
(-0.00449051 0.00366087 0)
(-0.00478794 0.00367038 0)
(-0.00508631 0.00368008 0)
(-0.00538567 0.0036899 0)
(-0.00568602 0.00369976 0)
(-0.00598739 0.00370958 0)
(-0.00628979 0.00371927 0)
(-0.0065932 0.00372874 0)
(-0.00689762 0.00373789 0)
(-0.00720304 0.00374661 0)
(-0.00750942 0.0037548 0)
(-0.00781673 0.00376232 0)
(-0.0081249 0.00376907 0)
(-0.00843387 0.00377491 0)
(-0.00874355 0.00377971 0)
(-0.00905385 0.00378333 0)
(-0.00936463 0.00378564 0)
(-0.00967577 0.00378649 0)
(-0.00998707 0.00378576 0)
(-0.0102984 0.00378329 0)
(-0.0106094 0.00377895 0)
(-0.0109199 0.00377262 0)
(-0.0112297 0.00376419 0)
(-0.0115382 0.00375354 0)
(-0.0118452 0.00374058 0)
(-0.0121501 0.00372525 0)
(-0.0124525 0.00370751 0)
(-0.0127516 0.00368733 0)
(-0.0130468 0.00366472 0)
(-0.0133371 0.00363973 0)
(-0.0136215 0.0036124 0)
(-0.0138989 0.00358283 0)
(-0.0141676 0.00355105 0)
(-0.014426 0.0035171 0)
(-0.0146721 0.00348089 0)
(-0.0149034 0.00344213 0)
(-0.0151172 0.00340025 0)
(-0.0153103 0.00335422 0)
(-0.0154793 0.00330235 0)
(-0.0156207 0.00324217 0)
(-0.0157313 0.00317021 0)
(-0.0158083 0.00308202 0)
(-0.0158503 0.00297234 0)
(-0.0158571 0.00283553 0)
(-2.58809e-05 0.00134536 0)
(-0.000178679 0.00275889 0)
(-0.000430541 0.00342368 0)
(-0.000696013 0.00370666 0)
(-0.00097959 0.00381695 0)
(-0.00126667 0.00385764 0)
(-0.00155527 0.00387359 0)
(-0.00184473 0.00388203 0)
(-0.00213479 0.0038888 0)
(-0.00242543 0.00389563 0)
(-0.0027167 0.00390295 0)
(-0.00300866 0.00391084 0)
(-0.00330137 0.00391928 0)
(-0.00359487 0.00392824 0)
(-0.00388922 0.00393766 0)
(-0.00418447 0.0039475 0)
(-0.00448067 0.00395769 0)
(-0.00477786 0.00396817 0)
(-0.00507606 0.00397887 0)
(-0.00537533 0.00398972 0)
(-0.00567568 0.00400063 0)
(-0.00597713 0.00401152 0)
(-0.0062797 0.00402228 0)
(-0.00658339 0.00403281 0)
(-0.0068882 0.00404302 0)
(-0.00719411 0.00405278 0)
(-0.00750111 0.00406196 0)
(-0.00780916 0.00407044 0)
(-0.00811821 0.00407808 0)
(-0.0084282 0.00408475 0)
(-0.00873904 0.00409027 0)
(-0.00905065 0.00409452 0)
(-0.00936289 0.00409731 0)
(-0.00967563 0.0040985 0)
(-0.0099887 0.00409791 0)
(-0.0103019 0.00409537 0)
(-0.010615 0.00409072 0)
(-0.0109277 0.00408379 0)
(-0.0112398 0.00407441 0)
(-0.0115508 0.00406244 0)
(-0.0118604 0.00404771 0)
(-0.012168 0.00403009 0)
(-0.0124731 0.00400945 0)
(-0.012775 0.00398567 0)
(-0.0130731 0.00395864 0)
(-0.0133663 0.00392826 0)
(-0.0136536 0.00389441 0)
(-0.0139339 0.00385698 0)
(-0.0142057 0.00381578 0)
(-0.0144674 0.00377058 0)
(-0.0147171 0.00372099 0)
(-0.0149526 0.00366644 0)
(-0.0151715 0.00360605 0)
(-0.0153712 0.00353857 0)
(-0.015549 0.00346222 0)
(-0.015702 0.0033746 0)
(-0.0158279 0.00327267 0)
(-0.0159245 0.0031527 0)
(-0.0159908 0.00301052 0)
(-0.0160266 0.00284177 0)
(-2.56692e-05 0.00144572 0)
(-0.000177707 0.00296439 0)
(-0.00042859 0.00367862 0)
(-0.000693205 0.0039827 0)
(-0.000975955 0.00410128 0)
(-0.00126225 0.00414507 0)
(-0.00155009 0.00416228 0)
(-0.00183882 0.00417144 0)
(-0.00212818 0.00417881 0)
(-0.00241815 0.00418626 0)
(-0.00270878 0.00419426 0)
(-0.00300013 0.00420289 0)
(-0.00329227 0.00421212 0)
(-0.00358525 0.00422193 0)
(-0.00387914 0.00423225 0)
(-0.00417399 0.00424304 0)
(-0.00446984 0.00425423 0)
(-0.00476675 0.00426575 0)
(-0.00506476 0.00427753 0)
(-0.00536391 0.00428949 0)
(-0.00566423 0.00430154 0)
(-0.00596575 0.00431358 0)
(-0.00626849 0.00432551 0)
(-0.00657246 0.00433722 0)
(-0.00687767 0.0043486 0)
(-0.00718411 0.00435951 0)
(-0.00749176 0.00436983 0)
(-0.00780061 0.0043794 0)
(-0.0081106 0.00438808 0)
(-0.00842168 0.00439572 0)
(-0.00873378 0.00440213 0)
(-0.00904681 0.00440715 0)
(-0.00936066 0.0044106 0)
(-0.00967517 0.00441228 0)
(-0.00999021 0.004412 0)
(-0.0103056 0.00440957 0)
(-0.010621 0.00440477 0)
(-0.0109362 0.00439739 0)
(-0.011251 0.00438724 0)
(-0.0115649 0.00437409 0)
(-0.0118775 0.00435773 0)
(-0.0121884 0.00433795 0)
(-0.0124969 0.00431453 0)
(-0.0128024 0.00428726 0)
(-0.0131042 0.00425592 0)
(-0.0134013 0.00422026 0)
(-0.0136928 0.00418003 0)
(-0.0139775 0.00413493 0)
(-0.014254 0.00408458 0)
(-0.0145208 0.00402854 0)
(-0.0147763 0.00396619 0)
(-0.0150184 0.00389676 0)
(-0.0152451 0.00381917 0)
(-0.0154541 0.00373204 0)
(-0.0156433 0.00363359 0)
(-0.0158103 0.00352157 0)
(-0.0159532 0.00339327 0)
(-0.0160705 0.00324555 0)
(-0.0161612 0.003075 0)
(-0.0162251 0.00287819 0)
(-2.54411e-05 0.00154546 0)
(-0.000176655 0.00316896 0)
(-0.000426475 0.00393261 0)
(-0.000690156 0.00425787 0)
(-0.000972005 0.00438477 0)
(-0.00125745 0.0044317 0)
(-0.00154447 0.0044502 0)
(-0.0018324 0.00446009 0)
(-0.00212098 0.0044681 0)
(-0.0024102 0.00447621 0)
(-0.00270013 0.00448492 0)
(-0.00299081 0.00449432 0)
(-0.00328233 0.00450439 0)
(-0.00357474 0.00451509 0)
(-0.00386811 0.00452638 0)
(-0.0041625 0.00453818 0)
(-0.00445796 0.00455043 0)
(-0.00475455 0.00456307 0)
(-0.00505233 0.00457601 0)
(-0.00535133 0.00458917 0)
(-0.00565159 0.00460245 0)
(-0.00595316 0.00461575 0)
(-0.00625605 0.00462896 0)
(-0.0065603 0.00464197 0)
(-0.00686591 0.00465465 0)
(-0.00717289 0.00466685 0)
(-0.00748123 0.00467844 0)
(-0.00779091 0.00468926 0)
(-0.0081019 0.00469914 0)
(-0.00841416 0.00470791 0)
(-0.00872761 0.00471538 0)
(-0.00904218 0.00472137 0)
(-0.00935776 0.00472565 0)
(-0.00967423 0.00472803 0)
(-0.00999141 0.00472826 0)
(-0.0103091 0.00472613 0)
(-0.0106272 0.00472139 0)
(-0.0109453 0.00471378 0)
(-0.0112631 0.00470306 0)
(-0.0115803 0.00468894 0)
(-0.0118965 0.00467116 0)
(-0.0122112 0.00464944 0)
(-0.0125238 0.00462346 0)
(-0.0128337 0.00459293 0)
(-0.0131401 0.00455752 0)
(-0.0134421 0.00451686 0)
(-0.0137389 0.00447056 0)
(-0.0140293 0.00441816 0)
(-0.0143121 0.00435915 0)
(-0.0145858 0.00429289 0)
(-0.0148489 0.00421861 0)
(-0.0150996 0.00413536 0)
(-0.0153362 0.00404198 0)
(-0.0155568 0.00393701 0)
(-0.0157595 0.0038187 0)
(-0.0159424 0.00368495 0)
(-0.0161039 0.00353333 0)
(-0.0162427 0.00336115 0)
(-0.0163581 0.00316557 0)
(-0.0164497 0.00294375 0)
(-2.51961e-05 0.00164455 0)
(-0.00017552 0.00337254 0)
(-0.000424188 0.00418559 0)
(-0.000686857 0.00453206 0)
(-0.000967727 0.00466735 0)
(-0.00125224 0.00471745 0)
(-0.00153836 0.00473726 0)
(-0.00182542 0.00474793 0)
(-0.00211315 0.00475659 0)
(-0.00240157 0.00476539 0)
(-0.00269071 0.00477485 0)
(-0.00298067 0.00478507 0)
(-0.00327149 0.00479603 0)
(-0.00356327 0.00480769 0)
(-0.00385606 0.00481999 0)
(-0.00414993 0.00483287 0)
(-0.00444495 0.00484626 0)
(-0.00474118 0.0048601 0)
(-0.00503867 0.00487428 0)
(-0.00533748 0.00488873 0)
(-0.00563765 0.00490335 0)
(-0.00593924 0.00491802 0)
(-0.00624227 0.00493263 0)
(-0.00654678 0.00494706 0)
(-0.00685279 0.00496117 0)
(-0.00716031 0.00497481 0)
(-0.00746936 0.00498783 0)
(-0.00777991 0.00500005 0)
(-0.00809195 0.00501131 0)
(-0.00840544 0.00502141 0)
(-0.00872033 0.00503013 0)
(-0.00903655 0.00503728 0)
(-0.009354 0.00504262 0)
(-0.00967257 0.00504591 0)
(-0.0099921 0.00504689 0)
(-0.0103124 0.00504531 0)
(-0.0106333 0.00504087 0)
(-0.0109546 0.0050333 0)
(-0.0112759 0.00502227 0)
(-0.0115968 0.00500747 0)
(-0.011917 0.00498855 0)
(-0.0122361 0.00496518 0)
(-0.0125534 0.00493696 0)
(-0.0128684 0.00490351 0)
(-0.0131803 0.00486438 0)
(-0.0134883 0.00481912 0)
(-0.0137915 0.00476721 0)
(-0.0140889 0.00470806 0)
(-0.0143793 0.00464102 0)
(-0.0146614 0.00456533 0)
(-0.0149338 0.00448008 0)
(-0.015195 0.00438422 0)
(-0.0154434 0.0042765 0)
(-0.0156774 0.00415545 0)
(-0.0158953 0.00401936 0)
(-0.0160956 0.00386625 0)
(-0.016277 0.00369395 0)
(-0.0164383 0.00350009 0)
(-0.0165786 0.00328221 0)
(-0.0166976 0.00303791 0)
(-2.49338e-05 0.00174294 0)
(-0.000174299 0.00357502 0)
(-0.000421722 0.00443745 0)
(-0.000683296 0.00480521 0)
(-0.000963104 0.00494894 0)
(-0.00124661 0.00500225 0)
(-0.00153175 0.00502341 0)
(-0.00181786 0.00503486 0)
(-0.00210468 0.00504422 0)
(-0.0023922 0.00505374 0)
(-0.0026805 0.00506399 0)
(-0.00296964 0.00507507 0)
(-0.00325971 0.00508697 0)
(-0.00355078 0.00509964 0)
(-0.00384293 0.00511302 0)