/*--------------------------------*- C++ -*----------------------------------*\
  =========                 |
  \\      /  F ield         | OpenFOAM: The Open Source CFD Toolbox
   \\    /   O peration     | Website:  https://openfoam.org
    \\  /    A nd           | Version:  8
     \\/     M anipulation  |
\*---------------------------------------------------------------------------*/
FoamFile
{
    version     2.0;
    format      ascii;
    class       volScalarField;
    location    "0.08";
    object      p;
}
// * * * * * * * * * * * * * * * * * * * * * * * * * * * * * * * * * * * * * //

dimensions      [0 2 -2 0 0 0 0];

internalField   nonuniform List<scalar> 
400
(
-1.22031e-08
-0.00560421
-0.0124218
-0.0175523
-0.0193254
-0.0170052
-0.010543
-0.000375098
0.0127265
0.0277533
0.0435364
0.0588188
0.0723378
0.0829294
0.0896618
0.092
0.0900025
0.0845368
0.0774829
0.0718739
0.00555711
-0.000197716
-0.00552029
-0.00901361
-0.00987788
-0.00759676
-0.00210299
0.00629344
0.0170095
0.0292598
0.0421183
0.0545832
0.0656511
0.0744078
0.0801372
0.0824444
0.0813974
0.0776138
0.0720776
0.0663264
0.0128105
0.00483537
-0.000923809
-0.00413128
-0.00480618
-0.00267974
0.002245
0.00967471
0.0191076
0.0298779
0.041198
0.0522084
0.0620386
0.0698845
0.075097
0.0772812
0.0764204
0.0728813
0.0668485
0.0588507
0.0193443
0.00831414
0.00114184
-0.00253311
-0.00341159
-0.00144579
0.00325487
0.0103514
0.0193538
0.0296442
0.0404969
0.0511115
0.060659
0.068346
0.0734897
0.0756067
0.0745477
0.0704591
0.0628856
0.0517415
0.0235345
0.00927765
0.000411469
-0.00394403
-0.00507935
-0.00314047
0.00165094
0.00888777
0.0180607
0.0285637
0.039693
0.0506622
0.0606333
0.0687678
0.0742912
0.0765809
0.0753271
0.0704738
0.0610173
0.0464511
0.0241768
0.00663883
-0.00399363
-0.00902969
-0.0102996
-0.00812865
-0.00285316
0.00503885
0.0149997
0.0264119
0.0385666
0.0506599
0.0618077
0.0710827
0.0775702
0.0804597
0.0792456
0.0736613
0.062186
0.0439922
0.0202207
-0.000674154
-0.0130462
-0.0186111
-0.0197452
-0.0169596
-0.0107129
-0.0015847
0.00982752
0.0228827
0.0368534
0.0509009
0.0640704
0.0753125
0.0835262
0.0876575
0.0869489
0.080877
0.0673569
0.0452581
0.010562
-0.0138137
-0.0278141
-0.0336035
-0.0341729
-0.0302522
-0.0224421
-0.011425
0.00214784
0.0176138
0.0342303
0.0511248
0.0672659
0.0814604
0.0923783
0.0986556
0.0991985
0.0931289
0.0776564
0.0512806
-0.00611316
-0.0341449
-0.0495591
-0.0550806
-0.054458
-0.048709
-0.0386123
-0.0249662
-0.00846966
0.0102111
0.030343
0.0510446
0.0712237
0.0895409
0.104403
0.114059
0.11696
0.111711
0.0945542
0.0634515
-0.0314694
-0.0633711
-0.0798083
-0.0842857
-0.0815585
-0.0730506
-0.0597718
-0.0426483
-0.0224076
0.000319425
0.0248597
0.0503772
0.0757678
0.0995734
0.119924
0.134604
0.141457
0.138325
0.12006
0.0837578
-0.0677111
-0.103698
-0.120432
-0.122617
-0.116434
-0.103893
-0.0863017
-0.064719
-0.0398609
-0.0122554
0.0175677
0.0489105
0.0807498
0.111585
0.139301
0.161159
0.174224
0.175235
0.156986
0.115102
-0.11792
-0.158093
-0.173743
-0.171582
-0.159903
-0.141551
-0.118201
-0.091019
-0.0606342
-0.0273661
0.00852341
0.0466144
0.0861158
0.125633
0.162913
0.194709
0.217154
0.225446
0.20932
0.161816
-0.186743
-0.23072
-0.2426
-0.232668
-0.21239
-0.185742
-0.154782
-0.120698
-0.0838893
-0.0443058
-0.00176788
0.0437753
0.091985
0.141818
0.191121
0.236297
0.272495
0.292905
0.282784
0.230581
-0.28188
-0.327678
-0.330468
-0.307039
-0.273491
-0.235138
-0.194283
-0.151895
-0.107891
-0.0616114
-0.0122063
0.0410889
0.0986764
0.160224
0.224108
0.286798
0.342689
0.382646
0.385709
0.332259
-0.41726
-0.458132
-0.441135
-0.39476
-0.341165
-0.286707
-0.233391
-0.181439
-0.129846
-0.0770014
-0.0211073
0.0395867
0.106557
0.180651
0.26144
0.346304
0.429717
0.500565
0.530221
0.485469
-0.618766
-0.63549
-0.577786
-0.493538
-0.410683
-0.335031
-0.266933
-0.204821
-0.146064
-0.0876438
-0.026528
0.0402737
0.115632
0.2021
0.301351
0.413139
0.533903
0.652419
0.733093
0.722205
-0.934661
-0.877705
-0.741308
-0.597781
-0.47433
-0.372508
-0.288462
-0.217003
-0.152823
-0.0910175
-0.0270644
0.0434161
0.124911
0.222178
0.340127
0.483077
0.652665
0.841788
1.01542
1.09717
-1.47576
-1.20632
-0.920559
-0.691717
-0.517731
-0.38786
-0.290091
-0.212974
-0.14734
-0.086058
-0.0231491
0.0470183
0.130482
0.234466
0.368254
0.543541
0.771878
1.05967
1.40337
1.72982
-2.53948
-1.63066
-1.04492
-0.711736
-0.496643
-0.352879
-0.255014
-0.183633
-0.125731
-0.0726926
-0.0179895
0.0443093
0.120821
0.220325
0.356161
0.549055
0.827157
1.23706
1.91188
2.92407
-4.36676
-2.04501
-0.974357
-0.564401
-0.359271
-0.241511
-0.17117
-0.124331
-0.0874218
-0.0528311
-0.015426
0.0293032
0.0864899
0.163667
0.274235
0.443672
0.719455
1.22657
2.41153
4.84871
)
;

boundaryField
{
    movingWall
    {
        type            zeroGradient;
    }
    fixedWalls
    {
        type            zeroGradient;
    }
    frontAndBack
    {
        type            empty;
    }
}


// ************************************************************************* //
