/*--------------------------------*- C++ -*----------------------------------*\
  =========                 |
  \\      /  F ield         | OpenFOAM: The Open Source CFD Toolbox
   \\    /   O peration     | Website:  https://openfoam.org
    \\  /    A nd           | Version:  8
     \\/     M anipulation  |
\*---------------------------------------------------------------------------*/
FoamFile
{
    version     2.0;
    format      ascii;
    class       surfaceScalarField;
    location    "0.08";
    object      phi;
}
// * * * * * * * * * * * * * * * * * * * * * * * * * * * * * * * * * * * * * //

dimensions      [0 3 -1 0 0 0 0];

internalField   nonuniform List<scalar> 
760
(
1.35816e-08
-1.35816e-08
-2.18631e-08
3.54448e-08
-1.10912e-07
8.90493e-08
-2.37464e-07
1.26551e-07
-3.82419e-07
1.44955e-07
-5.27811e-07
1.45393e-07
-6.5824e-07
1.30428e-07
-7.61391e-07
1.03151e-07
-8.2815e-07
6.67595e-08
-8.52636e-07
2.4486e-08
-8.32323e-07
-2.03132e-08
-7.68273e-07
-6.40498e-08
-6.65433e-07
-1.0284e-07
-5.32876e-07
-1.32558e-07
-3.83836e-07
-1.4904e-07
-2.35305e-07
-1.48532e-07
-1.06856e-07
-1.28449e-07
-1.83663e-08
-8.84894e-08
1.49556e-08
-3.33217e-08
1.49559e-08
-3.29752e-08
1.93933e-08
-1.73836e-07
1.76305e-07
-4.18085e-07
3.33298e-07
-7.35948e-07
4.44415e-07
-1.08932e-06
4.98331e-07
-1.43974e-06
4.95809e-07
-1.75258e-06
4.43269e-07
-1.99928e-06
3.49845e-07
-2.15835e-06
2.2583e-07
-2.21598e-06
8.21216e-08
-2.16651e-06
-6.97876e-08
-2.01288e-06
-2.17675e-07
-1.76716e-06
-3.48566e-07
-1.45067e-06
-4.49046e-07
-1.0936e-06
-5.06111e-07
-7.33396e-07
-5.08734e-07
-4.11451e-07
-4.50393e-07
-1.67416e-07
-3.32525e-07
-3.00314e-08
-1.70706e-07
-1.50755e-08
-8.86387e-08
1.08032e-07
-3.43437e-07
4.31103e-07
-7.35621e-07
7.25482e-07
-1.22024e-06
9.29033e-07
-1.74513e-06
1.02322e-06
-2.25828e-06
1.00896e-06
-2.71268e-06
8.97671e-07
-3.06928e-06
7.06443e-07
-3.29858e-06
4.55131e-07
-3.3816e-06
1.65147e-07
-3.3106e-06
-1.40793e-07
-3.08968e-06
-4.38591e-07
-2.7354e-06
-7.02853e-07
-2.27684e-06
-9.07607e-07
-1.75494e-06
-1.02801e-06
-1.22031e-06
-1.04337e-06
-7.28947e-07
-9.41754e-07
-3.35585e-07
-7.25886e-07
-8.45825e-08
-4.21709e-07
-9.96583e-08
-1.39769e-07
2.47801e-07
-5.06177e-07
7.97512e-07
-1.04213e-06
1.26143e-06
-1.68353e-06
1.57044e-06
-2.36399e-06
1.70367e-06
-3.02022e-06
1.66519e-06
-3.59627e-06
1.47371e-06
-4.04605e-06
1.15623e-06
-4.33493e-06
7.44008e-07
-4.44056e-06
2.70778e-07
-4.35362e-06
-2.27731e-07
-4.07854e-06
-7.13673e-07
-3.63417e-06
-1.14722e-06
-3.05422e-06
-1.48756e-06
-2.38671e-06
-1.69551e-06
-1.6921e-06
-1.73798e-06
-1.03913e-06
-1.59472e-06
-4.98504e-07
-1.26651e-06
-1.34871e-07
-7.85342e-07
-2.34529e-07
-1.86968e-07
4.34769e-07
-6.61986e-07
1.27253e-06
-1.3393e-06
1.93874e-06
-2.13331e-06
2.36445e-06
-2.96225e-06
2.53262e-06
-3.75222e-06
2.45516e-06
-4.44e-06
2.1615e-06
-4.97472e-06
1.69094e-06
-5.3185e-06
1.08779e-06
-5.44686e-06
3.9914e-07
-5.34911e-06
-3.25479e-07
-5.02908e-06
-1.03371e-06
-4.5061e-06
-1.67019e-06
-3.81602e-06
-2.17764e-06
-3.01161e-06
-2.49992e-06
-2.16158e-06
-2.58801e-06
-1.3475e-06
-2.4088e-06
-6.58207e-07
-1.95581e-06
-1.8216e-07
-1.26139e-06
-4.16689e-07
-2.3283e-07
6.676e-07
-8.15968e-07
1.85567e-06
-1.63465e-06
2.75742e-06
-2.58002e-06
3.30983e-06
-3.55397e-06
3.50657e-06
-4.47222e-06
3.3734e-06
-5.26565e-06
2.95493e-06
-5.88034e-06
2.30563e-06
-6.27687e-06
1.48432e-06
-6.42963e-06
5.51905e-07
-6.32667e-06
-4.28446e-07
-5.97025e-06
-1.39013e-06
-5.37835e-06
-2.26209e-06
-4.58664e-06
-2.96935e-06
-3.65039e-06
-3.43617e-06
-2.64535e-06
-3.59306e-06
-1.66632e-06
-3.38782e-06
-8.22616e-07
-2.79951e-06
-2.30003e-07
-1.854e-06
-6.46691e-07
-2.79946e-07
9.47546e-07
-9.73892e-07
2.54961e-06
-1.936e-06
3.71953e-06
-3.03223e-06
4.40605e-06
-4.14735e-06
4.62169e-06
-5.18744e-06
4.41349e-06
-6.07923e-06
3.84673e-06
-6.76795e-06
2.99435e-06
-7.21459e-06
1.93096e-06
-7.39368e-06
7.30993e-07
-7.29217e-06
-5.2995e-07
-6.90982e-06
-1.77248e-06
-6.26112e-06
-2.91079e-06
-5.37872e-06
-3.85175e-06
-4.3175e-06
-4.4974e-06
-3.15816e-06
-4.7524e-06
-2.00855e-06
-4.53743e-06
-1.00071e-06
-3.80735e-06
-2.8212e-07
-2.57259e-06
-9.28812e-07
-3.30613e-07
1.27816e-06
-1.1409e-06
3.3599e-06
-2.24934e-06
4.82797e-06
-3.49393e-06
5.65064e-06
-4.74206e-06
5.86983e-06
-5.89184e-06
5.56327e-06
-6.86877e-06
4.82365e-06
-7.62042e-06
3.74601e-06
-8.11102e-06
2.42156e-06
-8.3171e-06
9.37076e-07
-8.22509e-06
-6.21961e-07
-7.83121e-06
-2.16636e-06
-7.14398e-06
-3.59802e-06
-6.18922e-06
-4.80651e-06
-5.01704e-06
-5.66958e-06
-3.70929e-06
-6.06015e-06
-2.38511e-06
-5.86162e-06
-1.20103e-06
-4.99143e-06
-3.42102e-07
-3.43152e-06
-1.27091e-06
-3.87022e-07
1.66518e-06
-1.32142e-06
4.2943e-06
-2.57806e-06
6.08462e-06
-3.96315e-06
7.03573e-06
-5.32711e-06
7.23379e-06
-6.56348e-06
6.79963e-06
-7.60122e-06
5.8614e-06
-8.39514e-06
4.53992e-06
-8.91675e-06
2.94317e-06
-9.14739e-06
1.16771e-06
-9.07405e-06
-6.95301e-07
-8.68862e-06
-2.55179e-06
-7.99071e-06
-4.29593e-06
-6.99436e-06
-5.80285e-06
-5.73845e-06
-6.92549e-06
-4.29941e-06
-7.49919e-06
-2.80317e-06
-7.35785e-06
-1.43122e-06
-6.36339e-06
-4.13527e-07
-4.44921e-06
-1.68444e-06
-4.51859e-07
2.11704e-06
-1.52002e-06
5.36246e-06
-2.92313e-06
7.48773e-06
-4.43074e-06
8.54334e-06
-5.87836e-06
8.6814e-06
-7.16096e-06
8.08222e-06
-8.21833e-06
6.91877e-06
-9.01938e-06
5.34098e-06
-9.54856e-06
3.47235e-06
-9.79584e-06
1.41499e-06
-9.75071e-06
-7.40436e-07
-9.40031e-06
-2.90218e-06
-8.73228e-06
-4.96396e-06
-7.74284e-06
-6.79229e-06
-6.45079e-06
-8.21754e-06
-4.91677e-06
-9.03322e-06
-3.26464e-06
-9.00998e-06
-1.69811e-06
-7.92991e-06
-5.00455e-07
-5.64687e-06
-2.1849e-06
-5.29413e-07
2.64645e-06
-1.74283e-06
6.57588e-06
-3.28333e-06
9.02823e-06
-4.87863e-06
1.01386e-05
-6.35477e-06
1.01575e-05
-7.61837e-06
9.34582e-06
-8.6308e-06
7.93121e-06
-9.38432e-06
6.0945e-06
-9.8833e-06
3.97133e-06
-1.01312e-05
1.66288e-06
-1.01227e-05
-7.48961e-07
-9.84055e-06
-3.1843e-06
-9.25793e-06
-5.54658e-06
-8.34674e-06
-7.70348e-06
-7.09467e-06
-9.46961e-06
-5.53155e-06
-1.05963e-05
-3.76369e-06
-1.07778e-05
-2.00806e-06
-9.68555e-06
-6.08315e-07
-7.04661e-06
-2.79321e-06
-6.27436e-07
3.27389e-06
-1.99943e-06
7.94788e-06
-3.65445e-06
1.06832e-05
-5.27546e-06
1.17596e-05
-6.69139e-06
1.15735e-05
-7.83705e-06
1.04915e-05
-8.71025e-06
8.8044e-06
-9.33772e-06
6.72197e-06
-9.75141e-06
4.38501e-06
-9.97329e-06
1.88477e-06
-1.00065e-05
-7.15745e-07
-9.83113e-06
-3.35968e-06
-9.40472e-06
-5.97299e-06
-8.6696e-06
-8.43861e-06
-7.57039e-06
-1.05688e-05
-6.08657e-06
-1.20801e-05
-4.28212e-06
-1.25823e-05
-2.36671e-06
-1.1601e-05
-7.45374e-07
-8.66795e-06
-3.53858e-06
-7.60198e-07
4.03409e-06
-2.30415e-06
9.49183e-06
-4.02464e-06
1.24037e-05
-5.56614e-06
1.33011e-05
-6.78571e-06
1.2793e-05
-7.67185e-06
1.13776e-05
-8.27752e-06
9.41007e-06
-8.67529e-06
7.11975e-06
-8.9309e-06
4.64062e-06
-9.08856e-06
2.04243e-06
-9.16291e-06
-6.41398e-07
-9.13427e-06
-3.38832e-06
-8.94678e-06
-6.16048e-06
-8.51155e-06
-8.87384e-06
-7.72069e-06
-1.13597e-05
-6.48124e-06
-1.33196e-05
-4.7792e-06
-1.42843e-05
-2.77718e-06
-1.3603e-05
-9.25084e-07
-1.052e-05
-4.46367e-06
-9.5295e-07
4.98704e-06
-2.67373e-06
1.12126e-05
-4.35947e-06
1.40895e-05
-5.64767e-06
1.45893e-05
-6.47117e-06
1.36165e-05
-6.90806e-06
1.18145e-05
-7.08605e-06
9.58805e-06
-7.13103e-06
7.16473e-06
-7.14361e-06
4.6532e-06
-7.18981e-06
2.08863e-06
-7.29698e-06
-5.34231e-07
-7.44998e-06
-3.23532e-06
-7.58632e-06
-6.02414e-06
-7.5921e-06
-8.86806e-06
-7.30582e-06
-1.1646e-05
-6.54396e-06
-1.40815e-05
-5.17031e-06
-1.5658e-05
-3.23234e-06
-1.55409e-05
-1.16901e-06
-1.25834e-05
-5.63268e-06
-1.2456e-06
6.23264e-06
-3.11066e-06
1.30777e-05
-4.561e-06
1.55398e-05
-5.31742e-06
1.53458e-05
-5.46887e-06
1.3768e-05
-5.22487e-06
1.15705e-05
-4.79977e-06
9.16295e-06
-4.36843e-06
6.73339e-06
-4.05666e-06
4.34143e-06
-3.94409e-06
1.97606e-06
-4.06804e-06
-4.10282e-07
-4.4226e-06
-2.88076e-06
-4.95115e-06
-5.49559e-06
-5.53293e-06
-8.28628e-06
-5.96912e-06
-1.12098e-05
-5.98482e-06
-1.40657e-05
-5.2808e-06
-1.6362e-05
-3.68933e-06
-1.71324e-05
-1.5064e-06
-1.47663e-05
-7.13907e-06
-1.68135e-06
7.91399e-06
-3.53899e-06
1.49353e-05
-4.36644e-06
1.63673e-05
-4.17026e-06
1.51496e-05
-3.30683e-06
1.29046e-05
-2.14442e-06
1.04081e-05
-9.69615e-07
7.98815e-06
2.15849e-08
5.74219e-06
7.04793e-07
3.65822e-06
1.00544e-06
1.67542e-06
8.84835e-07
-2.89681e-07
3.36357e-07
-2.33228e-06
-6.06408e-07
-4.55282e-06
-1.84777e-06
-7.04492e-06
-3.19462e-06
-9.86291e-06
-4.31829e-06
-1.29421e-05
-4.75003e-06
-1.59303e-05
-3.99375e-06
-1.78887e-05
-1.95237e-06
-1.68077e-05
-9.09145e-06
-2.23624e-06
1.01502e-05
-3.61051e-06
1.63096e-05
-3.12017e-06
1.58769e-05
-1.41402e-06
1.34435e-05
7.95917e-07
1.06946e-05
3.02241e-06
8.18161e-06
4.97652e-06
6.03404e-06
6.50316e-06
4.21555e-06
7.52366e-06
2.63772e-06
7.99658e-06
1.20249e-06
7.89569e-06
-1.88782e-07
7.20203e-06
-1.63862e-06
5.90955e-06
-3.26035e-06
4.04847e-06
-5.18384e-06
1.73472e-06
-7.54916e-06
-7.47898e-07
-1.04595e-05
-2.84633e-06
-1.38318e-05
-3.6889e-06
-1.70461e-05
-2.4192e-06
-1.80774e-05
-1.15107e-05
-2.57656e-06
1.27268e-05
-2.19583e-06
1.59289e-05
6.89085e-07
1.2992e-05
4.41801e-06
9.71453e-06
8.05526e-06
7.05737e-06
1.11958e-05
5.04103e-06
1.36973e-05
3.53255e-06
1.55346e-05
2.37825e-06
1.6723e-05
1.44939e-06
1.72788e-05
6.46659e-07
1.72013e-05
-1.11337e-07
1.64648e-05
-9.02047e-07
1.5018e-05
-1.81361e-06
1.27967e-05
-2.96253e-06
9.76118e-06
-4.51362e-06
5.98921e-06
-6.6875e-06
1.86646e-06
-9.70909e-06
-1.58245e-06
-1.35972e-05
-2.46492e-06
-1.71949e-05
-1.39756e-05
-7.84979e-07
1.35118e-05
4.07657e-06
1.10673e-05
1.02834e-05
6.7852e-06
1.57642e-05
4.2337e-06
2.01097e-05
2.7119e-06
2.33894e-05
1.76128e-06
2.57729e-05
1.14903e-06
2.74177e-05
7.33507e-07
2.84391e-05
4.27989e-07
2.89062e-05
1.79504e-07
2.8843e-05
-4.80855e-08
2.82264e-05
-2.85439e-07
2.69814e-05
-5.68577e-07
2.49703e-05
-9.51476e-07
2.1985e-05
-1.52836e-06
1.77678e-05
-2.47021e-06
1.21427e-05
-4.08404e-06
5.46339e-06
-6.91787e-06
-1.33008e-07
-1.15985e-05
-1.41086e-05
1.35118e-05
2.45791e-05
3.13643e-05
3.5598e-05
3.83099e-05
4.00711e-05
4.12202e-05
4.19537e-05
4.23817e-05
4.25612e-05
4.25131e-05
4.22276e-05
4.16591e-05
4.07076e-05
3.91792e-05
3.6709e-05
3.2625e-05
2.57071e-05
1.41086e-05
)
;

boundaryField
{
    movingWall
    {
        type            calculated;
        value           uniform 0;
    }
    fixedWalls
    {
        type            calculated;
        value           uniform 0;
    }
    frontAndBack
    {
        type            empty;
        value           nonuniform List<scalar> 0();
    }
}


// ************************************************************************* //
