/*--------------------------------*- C++ -*----------------------------------*\
  =========                 |
  \\      /  F ield         | OpenFOAM: The Open Source CFD Toolbox
   \\    /   O peration     | Website:  https://openfoam.org
    \\  /    A nd           | Version:  8
     \\/     M anipulation  |
\*---------------------------------------------------------------------------*/
FoamFile
{
    version     2.0;
    format      ascii;
    class       volVectorField;
    location    "0.08";
    object      U;
}
// * * * * * * * * * * * * * * * * * * * * * * * * * * * * * * * * * * * * * //

dimensions      [0 1 -1 0 0 0 0];

internalField   nonuniform List<vector> 
400
(
(0.000242938 -0.000239253 0)
(0.00013013 0.000112981 0)
(-0.00114749 0.000550753 0)
(-0.00337246 0.00085752 0)
(-0.00616278 0.00100975 0)
(-0.00913635 0.00102311 0)
(-0.0119543 0.000921766 0)
(-0.0143367 0.000731184 0)
(-0.0160685 0.000475448 0)
(-0.0169991 0.000177519 0)
(-0.0170436 -0.000139262 0)
(-0.0161863 -0.00044978 0)
(-0.0144865 -0.000726155 0)
(-0.0120843 -0.000937679 0)
(-0.00920401 -0.00105193 0)
(-0.00615232 -0.00103765 0)
(-0.00330316 -0.000870467 0)
(-0.00106478 -0.000542462 0)
(0.000181557 -9.22136e-05 0)
(0.000256854 0.000251325 0)
(-7.45426e-05 -0.000158623 0)
(-0.00155423 0.001594 0)
(-0.00548656 0.00349447 0)
(-0.0112869 0.00485212 0)
(-0.0181833 0.00552522 0)
(-0.0253938 0.00553448 0)
(-0.0321764 0.00496469 0)
(-0.0378904 0.00392697 0)
(-0.0420316 0.00254115 0)
(-0.0442445 0.000930968 0)
(-0.0443323 -0.000774222 0)
(-0.0422654 -0.00243643 0)
(-0.0381928 -0.00390764 0)
(-0.0324487 -0.00503249 0)
(-0.0255533 -0.00565716 0)
(-0.0181949 -0.00564711 0)
(-0.0111795 -0.00491704 0)
(-0.00533995 -0.00347492 0)
(-0.00145253 -0.0015182 0)
(-4.44507e-05 0.000212519 0)
(-0.000507174 0.00105301 0)
(-0.00356962 0.0055316 0)
(-0.0101889 0.00985148 0)
(-0.0192348 0.0129012 0)
(-0.0295915 0.0143644 0)
(-0.0402134 0.0142475 0)
(-0.0500993 0.012719 0)
(-0.0583765 0.0100305 0)
(-0.064353 0.00647125 0)
(-0.0675409 0.00235161 0)
(-0.0676696 -0.00199991 0)
(-0.0647 -0.00623423 0)
(-0.0588371 -0.00998252 0)
(-0.0505382 -0.0128662 0)
(-0.0405105 -0.0145217 0)
(-0.029686 -0.0146459 0)
(-0.0191492 -0.013066 0)
(-0.0100202 -0.00983356 0)
(-0.00343617 -0.00537801 0)
(-0.000463719 -0.000928115 0)
(-0.000892791 0.00334905 0)
(-0.00548139 0.0117724 0)
(-0.0147433 0.0191843 0)
(-0.0268981 0.0242429 0)
(-0.0404463 0.0265261 0)
(-0.0541064 0.0260638 0)
(-0.0666814 0.0231426 0)
(-0.0771386 0.018192 0)
(-0.0846648 0.0117145 0)
(-0.088687 0.00425399 0)
(-0.0888853 -0.00361173 0)
(-0.0852077 -0.01127 0)
(-0.0778842 -0.0180767 0)
(-0.0674401 -0.0233742 0)
(-0.0546985 -0.0265347 0)
(-0.0407608 -0.0270363 0)
(-0.0269323 -0.024576 0)
(-0.0146044 -0.0192098 0)
(-0.00533042 -0.011542 0)
(-0.000835583 -0.00313062 0)
(-0.00123449 0.00662314 0)
(-0.00728146 0.020196 0)
(-0.0191431 0.0313279 0)
(-0.0343483 0.0386163 0)
(-0.0509748 0.0416515 0)
(-0.0675013 0.0405668 0)
(-0.0825618 0.0358238 0)
(-0.0950064 0.0280724 0)
(-0.103944 0.0180601 0)
(-0.108752 0.00659113 0)
(-0.109074 -0.00548379 0)
(-0.104838 -0.0172644 0)
(-0.0962723 -0.0278023 0)
(-0.0839232 -0.0361242 0)
(-0.0686788 -0.0412901 0)
(-0.0517663 -0.0424989 0)
(-0.0346933 -0.0392434 0)
(-0.0191441 -0.0314966 0)
(-0.00715253 -0.0199305 0)
(-0.0011689 -0.00630108 0)
(-0.00155951 0.0108201 0)
(-0.00904633 0.0307722 0)
(-0.0235107 0.0462827 0)
(-0.0417609 0.0560129 0)
(-0.0614197 0.0596953 0)
(-0.0807183 0.0576739 0)
(-0.0981399 0.0506646 0)
(-0.112452 0.0395897 0)
(-0.122723 0.0254729 0)
(-0.128307 0.00939354 0)
(-0.128828 -0.00751888 0)
(-0.124184 -0.0240712 0)
(-0.114568 -0.0389985 0)
(-0.100508 -0.0509828 0)
(-0.0829066 -0.0587194 0)
(-0.0630776 -0.0610475 0)
(-0.0427197 -0.0571489 0)
(-0.0238382 -0.0467891 0)
(-0.00901475 -0.0305854 0)
(-0.00149859 -0.0104111 0)
(-0.00189403 0.0159391 0)
(-0.0108619 0.0435265 0)
(-0.0279868 0.064081 0)
(-0.0493049 0.0764373 0)
(-0.0719522 0.0806148 0)
(-0.0939132 0.0773008 0)
(-0.113548 0.0675647 0)
(-0.129584 0.0526633 0)
(-0.141094 0.0339246 0)
(-0.147444 0.0127053 0)
(-0.148251 -0.00959877 0)
(-0.143377 -0.0315176 0)
(-0.132951 -0.0514754 0)
(-0.117425 -0.0677914 0)
(-0.0976577 -0.0787412 0)
(-0.0749949 -0.0827049 0)
(-0.0512986 -0.0784117 0)
(-0.0289131 -0.0652544 0)
(-0.0110448 -0.0436451 0)
(-0.00186058 -0.0155081 0)
(-0.00226139 0.0220285 0)
(-0.0128072 0.0585433 0)
(-0.0326937 0.0847791 0)
(-0.0570931 0.0998718 0)
(-0.0826186 0.104308 0)
(-0.107026 0.0992826 0)
(-0.128605 0.0863401 0)
(-0.146105 0.0671411 0)
(-0.15867 0.0433406 0)
(-0.165724 0.0165591 0)
(-0.166905 -0.0115771 0)
(-0.162034 -0.0393636 0)
(-0.15114 -0.0649454 0)
(-0.134536 -0.0862795 0)
(-0.112947 -0.101172 0)
(-0.0876657 -0.107429 0)
(-0.060651 -0.103146 0)
(-0.0345789 -0.0871205 0)
(-0.0133687 -0.0593505 0)
(-0.00229004 -0.021714 0)
(-0.00268533 0.0291811 0)
(-0.0149581 0.075959 0)
(-0.0377287 0.108435 0)
(-0.0651598 0.126232 0)
(-0.0933028 0.130545 0)
(-0.119733 0.123293 0)
(-0.142756 0.10664 0)
(-0.161249 0.0827267 0)
(-0.174515 0.0535456 0)
(-0.18211 0.0209462 0)
(-0.183731 -0.0132806 0)
(-0.179163 -0.0472731 0)
(-0.168298 -0.0789643 0)
(-0.151231 -0.105982 0)
(-0.128434 -0.125632 0)
(-0.101007 -0.135023 0)
(-0.0708823 -0.131395 0)
(-0.04101 -0.112643 0)
(-0.0161113 -0.078036 0)
(-0.00282458 -0.029222 0)
(-0.00319771 0.0375363 0)
(-0.0174053 0.0959508 0)
(-0.0431768 0.135066 0)
(-0.0734516 0.155285 0)
(-0.103689 0.158866 0)
(-0.131382 0.148731 0)
(-0.154998 0.12784 0)
(-0.173689 0.0988858 0)
(-0.187046 0.0641934 0)
(-0.194854 0.0257744 0)
(-0.196927 -0.0145181 0)
(-0.193032 -0.0547851 0)
(-0.182889 -0.0928636 0)
(-0.166285 -0.126134 0)
(-0.14329 -0.151411 0)
(-0.114607 -0.164999 0)
(-0.0819291 -0.163015 0)
(-0.0483348 -0.142034 0)
(-0.0194084 -0.100108 0)
(-0.00351213 -0.0383008 0)
(-0.00385282 0.0472994 0)
(-0.0202865 0.118733 0)
(-0.0491332 0.164587 0)
(-0.081814 0.186543 0)
(-0.113205 0.188441 0)
(-0.140904 0.174578 0)
(-0.163765 0.148911 0)
(-0.181422 0.114743 0)
(-0.193918 0.0746884 0)
(-0.201381 0.0308162 0)
(-0.203823 -0.0151027 0)
(-0.20102 -0.0613003 0)
(-0.192508 -0.105691 0)
(-0.177677 -0.145561 0)
(-0.156022 -0.177315 0)
(-0.127581 -0.196392 0)
(-0.0934771 -0.197503 0)
(-0.0566204 -0.17535 0)
(-0.0234285 -0.126016 0)
(-0.00442482 -0.0493116 0)
(-0.0047532 0.0587911 0)
(-0.0238367 0.144563 0)
(-0.0557213 0.196721 0)
(-0.0899386 0.219096 0)
(-0.120902 0.217888 0)
(-0.146649 0.199237 0)
(-0.16676 0.168294 0)
(-0.181611 0.128983 0)
(-0.191878 0.0841125 0)
(-0.198162 0.0356551 0)
(-0.200744 -0.0148872 0)
(-0.199467 -0.0660897 0)
(-0.193691 -0.116179 0)
(-0.182357 -0.162584 0)
(-0.164224 -0.201492 0)
(-0.13835 -0.227527 0)
(-0.104813 -0.233752 0)
(-0.0658301 -0.212318 0)
(-0.0284035 -0.156206 0)
(-0.00568354 -0.0627509 0)
(-0.0060958 0.0725495 0)
(-0.0284564 0.173734 0)
(-0.0630673 0.230826 0)
(-0.0972022 0.251363 0)
(-0.125195 0.245026 0)
(-0.146104 0.220339 0)
(-0.160695 0.183772 0)
(-0.17038 0.139779 0)
(-0.176635 0.0911797 0)
(-0.180613 0.0396442 0)
(-0.182933 -0.0138113 0)
(-0.183562 -0.068341 0)
(-0.181744 -0.12276 0)
(-0.175993 -0.174966 0)
(-0.164244 -0.221272 0)
(-0.14428 -0.255734 0)
(-0.114544 -0.269693 0)
(-0.0757037 -0.252034 0)
(-0.0346621 -0.191032 0)
(-0.00750076 -0.0793355 0)
(-0.00824712 0.0895101 0)
(-0.0347744 0.206512 0)
(-0.0711268 0.265561 0)
(-0.102246 0.280687 0)
(-0.123328 0.266568 0)
(-0.135374 0.234576 0)
(-0.140888 0.192424 0)
(-0.142559 0.144813 0)
(-0.142723 0.0942707 0)
(-0.143075 0.0419105 0)
(-0.144566 -0.0119499 0)
(-0.147339 -0.0672562 0)
(-0.15064 -0.123682 0)
(-0.152711 -0.179975 0)
(-0.150752 -0.233088 0)
(-0.141131 -0.277056 0)
(-0.120057 -0.301804 0)
(-0.0854461 -0.292453 0)
(-0.0426227 -0.230528 0)
(-0.0102436 -0.100142 0)
(-0.0118251 0.111265 0)
(-0.0435727 0.24283 0)
(-0.0790761 0.298217 0)
(-0.10198 0.302743 0)
(-0.110319 0.277798 0)
(-0.10831 0.237666 0)
(-0.100671 0.190775 0)
(-0.0913828 0.141495 0)
(-0.0834549 0.0916267 0)
(-0.0789235 0.0414578 0)
(-0.0789493 -0.00954077 0)
(-0.0838644 -0.0622192 0)
(-0.0930924 -0.117284 0)
(-0.104927 -0.174684 0)
(-0.116227 -0.23264 0)
(-0.122193 -0.286098 0)
(-0.116506 -0.324535 0)
(-0.0929384 -0.329544 0)
(-0.0525623 -0.273856 0)
(-0.0144698 -0.126764 0)
(-0.0175995 0.140452 0)
(-0.0550519 0.281398 0)
(-0.0835229 0.32343 0)
(-0.0893906 0.310738 0)
(-0.0770571 0.272439 0)
(-0.0551942 0.22468 0)
(-0.0306806 0.17534 0)
(-0.00826814 0.127526 0)
(0.00894619 0.081798 0)
(0.0190563 0.0374271 0)
(0.0209744 -0.00695827 0)
(0.0142397 -0.0530278 0)
(-0.000944632 -0.102478 0)
(-0.0234164 -0.156618 0)
(-0.050479 -0.215518 0)
(-0.0770834 -0.276268 0)
(-0.0949469 -0.329784 0)
(-0.0928325 -0.355976 0)
(-0.0635686 -0.318115 0)
(-0.0206817 -0.161532 0)
(-0.0254827 0.181638 0)
(-0.0659917 0.317361 0)
(-0.0739271 0.330564 0)
(-0.0491821 0.29426 0)
(-0.00728183 0.242845 0)
(0.038878 0.190939 0)
(0.0816941 0.143693 0)
(0.117035 0.101848 0)
(0.142785 0.0643569 0)
(0.157879 0.0295231 0)
(0.161711 -0.00460209 0)
(0.153836 -0.0401388 0)
(0.133947 -0.0793909 0)
(0.102128 -0.124778 0)
(0.0595411 -0.178404 0)
(0.00974545 -0.24063 0)
(-0.0392182 -0.306545 0)
(-0.0724509 -0.359009 0)
(-0.0703492 -0.355827 0)
(-0.0279627 -0.20809 0)
(-0.0296587 0.239188 0)
(-0.060959 0.335605 0)
(-0.0223255 0.300103 0)
(0.0497598 0.239506 0)
(0.12629 0.182177 0)
(0.19517 0.134563 0)
(0.251948 0.0966189 0)
(0.295372 0.066205 0)
(0.325567 0.0409093 0)
(0.342978 0.018572 0)
(0.347822 -0.00274954 0)
(0.339855 -0.0249833 0)
(0.318285 -0.0503035 0)
(0.281856 -0.0814115 0)
(0.229282 -0.121716 0)
(0.160443 -0.174909 0)
(0.0787251 -0.242709 0)
(-0.00384575 -0.318527 0)
(-0.054919 -0.368202 0)
(-0.0285016 -0.267482 0)
(0.00809482 0.2819 0)
(0.0197645 0.29495 0)
(0.138906 0.210844 0)
(0.264045 0.143246 0)
(0.363602 0.0968855 0)
(0.439196 0.0654512 0)
(0.495168 0.04393 0)
(0.534937 0.0286348 0)
(0.561232 0.0170305 0)
(0.575924 0.00741365 0)
(0.579955 -0.00146556 0)
(0.573351 -0.0107251 0)
(0.555156 -0.0216515 0)
(0.523265 -0.0360856 0)
(0.474252 -0.0569804 0)
(0.403391 -0.0890997 0)
(0.304409 -0.139476 0)
(0.172997 -0.216169 0)
(0.0410219 -0.311519 0)
(0.0184095 -0.299967 0)
(0.299622 0.14611 0)
(0.396308 0.127514 0)
(0.557422 0.076077 0)
(0.674396 0.0436874 0)
(0.743652 0.0255204 0)
(0.786745 0.0151848 0)
(0.814905 0.00915904 0)
(0.833224 0.00546769 0)
(0.844543 0.00300178 0)
(0.850467 0.00114227 0)
(0.851754 -0.000488547 0)
(0.848513 -0.00218869 0)
(0.840216 -0.00430034 0)
(0.825476 -0.00737833 0)
(0.801553 -0.0124834 0)
(0.763243 -0.0217249 0)
(0.698871 -0.0392397 0)
(0.58384 -0.0726264 0)
(0.415805 -0.127851 0)
(0.308825 -0.149473 0)
)
;

boundaryField
{
    movingWall
    {
        type            fixedValue;
        value           uniform (1 0 0);
    }
    fixedWalls
    {
        type            noSlip;
    }
    frontAndBack
    {
        type            empty;
    }
}


// ************************************************************************* //
