/*--------------------------------*- C++ -*----------------------------------*\
  =========                 |
  \\      /  F ield         | OpenFOAM: The Open Source CFD Toolbox
   \\    /   O peration     | Website:  https://openfoam.org
    \\  /    A nd           | Version:  8
     \\/     M anipulation  |
\*---------------------------------------------------------------------------*/
FoamFile
{
    version     2.0;
    format      ascii;
    class       volScalarField;
    location    "0.039";
    object      T;
}
// * * * * * * * * * * * * * * * * * * * * * * * * * * * * * * * * * * * * * //

dimensions      [0 0 0 1 0 0 0];

internalField   nonuniform List<scalar> 
100
(
42.7213
7.30284
0.905575
0.0884301
0.0071595
0.000497593
3.04349e-05
1.66889e-06
8.32319e-08
3.66751e-09
59.9907
12.3275
1.70209
0.179299
0.0154133
0.00112735
7.21771e-05
4.12893e-06
2.14364e-07
9.80521e-09
62.3517
13.1747
1.85291
0.19796
0.017219
0.00127259
8.22566e-05
4.74799e-06
2.48637e-07
1.14647e-08
62.5984
13.2749
1.8722
0.200491
0.0174762
0.00129417
8.3812e-05
4.84686e-06
2.54288e-07
1.17463e-08
62.6194
13.2842
1.87411
0.200754
0.017504
0.00129659
8.39924e-05
4.85869e-06
2.54984e-07
1.17819e-08
62.621
13.2849
1.87426
0.200776
0.0175065
0.00129681
8.40093e-05
4.85983e-06
2.55053e-07
1.17856e-08
62.6211
13.285
1.87427
0.200778
0.0175067
0.00129683
8.40107e-05
4.85993e-06
2.55059e-07
1.17859e-08
62.6211
13.285
1.87427
0.200778
0.0175067
0.00129683
8.40106e-05
4.85992e-06
2.55058e-07
1.17858e-08
62.6211
13.285
1.87427
0.200778
0.0175067
0.00129683
8.40115e-05
4.86e-06
2.55064e-07
1.17862e-08
62.6211
13.285
1.87427
0.200778
0.0175067
0.00129684
8.40117e-05
4.86002e-06
2.55066e-07
1.17863e-08
)
;

boundaryField
{
    left
    {
        type            fixedValue;
        value           uniform 100;
    }
    right
    {
        type            zeroGradient;
    }
    up
    {
        type            zeroGradient;
    }
    down
    {
        type            fixedValue;
        value           uniform 0;
    }
    frontAndBack
    {
        type            empty;
    }
}


// ************************************************************************* //
