/*--------------------------------*- C++ -*----------------------------------*\
  =========                 |
  \\      /  F ield         | OpenFOAM: The Open Source CFD Toolbox
   \\    /   O peration     | Website:  https://openfoam.org
    \\  /    A nd           | Version:  8
     \\/     M anipulation  |
\*---------------------------------------------------------------------------*/
FoamFile
{
    version     2.0;
    format      ascii;
    class       surfaceScalarField;
    location    "17.5";
    object      phi;
}
// * * * * * * * * * * * * * * * * * * * * * * * * * * * * * * * * * * * * * //

dimensions      [0 3 -1 0 0 0 0];

internalField   nonuniform List<scalar> 
22960
(
-1.5336e-07
1.53456e-07
-5.13599e-07
3.60239e-07
-9.34323e-07
4.20724e-07
-1.3673e-06
4.3298e-07
-1.80077e-06
4.33462e-07
-2.23294e-06
4.32177e-07
-2.66375e-06
4.30808e-07
-3.09312e-06
4.29373e-07
-3.52091e-06
4.27791e-07
-3.94693e-06
4.26021e-07
-4.37098e-06
4.24042e-07
-4.79282e-06
4.21845e-07
-5.21225e-06
4.19425e-07
-5.62902e-06
4.16777e-07
-6.04292e-06
4.139e-07
-6.45372e-06
4.10792e-07
-6.86117e-06
4.07453e-07
-7.26505e-06
4.03879e-07
-7.66512e-06
4.00071e-07
-8.06115e-06
3.96028e-07
-8.4529e-06
3.91748e-07
-8.84013e-06
3.87232e-07
-9.22261e-06
3.8248e-07
-9.6001e-06
3.77491e-07
-9.97237e-06
3.72266e-07
-1.03392e-05
3.66808e-07
-1.07003e-05
3.61118e-07
-1.10555e-05
3.55201e-07
-1.14046e-05
3.49059e-07
-1.17473e-05
3.42699e-07
-1.20834e-05
3.3613e-07
-1.24127e-05
3.2936e-07
-1.27351e-05
3.22402e-07
-1.30504e-05
3.15271e-07
-1.33584e-05
3.07987e-07
-1.3659e-05
3.00575e-07
-1.3952e-05
2.93065e-07
-1.42375e-05
2.85494e-07
-1.45154e-05
2.7791e-07
-1.47858e-05
2.70373e-07
-1.50488e-05
2.62956e-07
-1.53045e-05
2.55755e-07
-1.55534e-05
2.48891e-07
-1.57959e-05
2.42519e-07
-1.60328e-05
2.3684e-07
-1.62649e-05
2.32121e-07
-1.64936e-05
2.28714e-07
-1.67207e-05
2.27101e-07
-1.69487e-05
2.27945e-07
-1.71808e-05
2.3218e-07
-1.7422e-05
2.41155e-07
-1.76789e-05
2.56888e-07
-1.79614e-05
2.82513e-07
-1.82845e-05
3.23116e-07
-1.86725e-05
3.87951e-07
-1.91708e-05
4.98322e-07
-1.98747e-05
7.03874e-07
-2.09909e-05
1.11626e-06
-2.37814e-05
2.79052e-06
6.48853e-06
-3.027e-05
-3.62659e-07
5.16114e-07
-1.02886e-06
1.02644e-06
-1.78483e-06
1.17669e-06
-2.56062e-06
1.20877e-06
-3.33897e-06
1.21182e-06
-4.11611e-06
1.20932e-06
-4.89091e-06
1.20561e-06
-5.66277e-06
1.20123e-06
-6.43117e-06
1.19619e-06
-7.19561e-06
1.19047e-06
-7.95563e-06
1.18406e-06
-8.71073e-06
1.17694e-06
-9.46043e-06
1.16913e-06
-1.02043e-05
1.1606e-06
-1.09417e-05
1.15137e-06
-1.16724e-05
1.14143e-06
-1.23957e-05
1.13077e-06
-1.31112e-05
1.11941e-06
-1.38185e-05
1.10735e-06
-1.4517e-05
1.09458e-06
-1.52064e-05
1.0811e-06
-1.58861e-05
1.06693e-06
-1.65557e-05
1.05206e-06
-1.72147e-05
1.03651e-06
-1.78627e-05
1.02028e-06
-1.84993e-05
1.00338e-06
-1.9124e-05
9.85827e-07
-1.97364e-05
9.6763e-07
-2.03362e-05
9.48811e-07
-2.09229e-05
9.29391e-07
-2.14961e-05
9.09398e-07
-2.20556e-05
8.88866e-07
-2.26011e-05
8.67836e-07
-2.31322e-05
8.46356e-07
-2.36487e-05
8.24489e-07
-2.41504e-05
8.02306e-07
-2.46372e-05
7.799e-07
-2.51091e-05
7.57381e-07
-2.55661e-05
7.34886e-07
-2.60083e-05
7.12586e-07
-2.6436e-05
6.90694e-07
-2.68498e-05
6.69478e-07
-2.72501e-05
6.49278e-07
-2.76382e-05
6.30532e-07
-2.80151e-05
6.13807e-07
-2.83829e-05
5.99848e-07
-2.87438e-05
5.89656e-07
-2.91013e-05
5.84589e-07
-2.94599e-05
5.86541e-07
-2.98259e-05
5.98199e-07
-3.02082e-05
6.23493e-07
-3.06197e-05
6.68343e-07
-3.10791e-05
7.41957e-07
-3.16152e-05
8.59146e-07
-3.22728e-05
1.04555e-06
-3.31242e-05
1.34976e-06
-3.42757e-05
1.85536e-06
-3.58903e-05
2.73089e-06
-3.79508e-05
4.85098e-06
7.98688e-06
-3.94491e-05
-4.25581e-07
9.41696e-07
-1.18502e-06
1.78588e-06
-2.0409e-06
2.03257e-06
-2.91678e-06
2.08465e-06
-3.7948e-06
2.08983e-06
-4.67113e-06
2.08565e-06
-5.54462e-06
2.0791e-06
-6.41459e-06
2.0712e-06
-7.28044e-06
2.06204e-06
-8.1416e-06
2.05163e-06
-8.9975e-06
2.03996e-06
-9.84757e-06
2.02702e-06
-1.06913e-05
2.01281e-06
-1.1528e-05
1.99733e-06
-1.23572e-05
1.98059e-06
-1.31783e-05
1.96257e-06
-1.39909e-05
1.94329e-06
-1.47942e-05
1.92276e-06
-1.55878e-05
1.90097e-06
-1.63712e-05
1.87793e-06
-1.71437e-05
1.85365e-06
-1.7905e-05
1.82815e-06
-1.86543e-05
1.80143e-06
-1.93913e-05
1.77351e-06
-2.01154e-05
1.7444e-06
-2.08262e-05
1.71413e-06
-2.15231e-05
1.68272e-06
-2.22057e-05
1.65021e-06
-2.28735e-05
1.61662e-06
-2.35261e-05
1.582e-06
-2.41631e-05
1.54639e-06
-2.47841e-05
1.50987e-06
-2.53887e-05
1.47251e-06
-2.59768e-05
1.43439e-06
-2.65479e-05
1.39561e-06
-2.71019e-05
1.35631e-06
-2.76386e-05
1.31664e-06
-2.81581e-05
1.2768e-06
-2.86602e-05
1.23701e-06
-2.91452e-05
1.19757e-06
-2.96133e-05
1.15883e-06
-3.00651e-05
1.12124e-06
-3.05012e-05
1.08536e-06
-3.09225e-05
1.05192e-06
-3.13306e-05
1.02185e-06
-3.17271e-05
9.96343e-07
-3.21144e-05
9.77017e-07
-3.24959e-05
9.66018e-07
-3.28756e-05
9.6629e-07
-3.32593e-05
9.81926e-07
-3.36546e-05
1.01875e-06
-3.40715e-05
1.08525e-06
-3.45236e-05
1.19409e-06
-3.50292e-05
1.36471e-06
-3.56122e-05
1.62855e-06
-3.63005e-05
2.03811e-06
-3.71173e-05
2.67207e-06
-3.80682e-05
3.68185e-06
-3.87498e-05
5.53258e-06
7.89583e-06
-3.86588e-05
-4.39569e-07
1.38127e-06
-1.22196e-06
2.56828e-06
-2.10133e-06
2.91193e-06
-3.00024e-06
2.98356e-06
-3.901e-06
2.9906e-06
-4.79994e-06
2.98459e-06
-5.69594e-06
2.9751e-06
-6.58832e-06
2.96357e-06
-7.47643e-06
2.95016e-06
-8.3597e-06
2.93489e-06
-9.23751e-06
2.91777e-06
-1.01093e-05
2.89879e-06
-1.09744e-05
2.87795e-06
-1.18323e-05
2.85526e-06
-1.26825e-05
2.83072e-06
-1.35243e-05
2.80434e-06
-1.43571e-05
2.77612e-06
-1.51804e-05
2.74607e-06
-1.59936e-05
2.71421e-06
-1.67962e-05
2.68053e-06
-1.75877e-05
2.64507e-06
-1.83673e-05
2.60783e-06
-1.91347e-05
2.56883e-06
-1.98893e-05
2.5281e-06
-2.06306e-05
2.48566e-06
-2.1358e-05
2.44155e-06
-2.20711e-05
2.3958e-06
-2.27693e-05
2.34846e-06
-2.34523e-05
2.29958e-06
-2.41195e-05
2.24922e-06
-2.47706e-05
2.19745e-06
-2.54051e-05
2.14437e-06
-2.60226e-05
2.09007e-06
-2.66229e-05
2.03469e-06
-2.72057e-05
1.97837e-06
-2.77707e-05
1.92128e-06
-2.83177e-05
1.86366e-06
-2.88466e-05
1.80575e-06
-2.93575e-05
1.74789e-06
-2.98504e-05
1.69046e-06
-3.03255e-05
1.63395e-06
-3.07833e-05
1.57897e-06
-3.12242e-05
1.52628e-06
-3.16491e-05
1.47682e-06
-3.20591e-05
1.43184e-06
-3.24556e-05
1.39289e-06
-3.28407e-05
1.36206e-06
-3.32167e-05
1.34206e-06
-3.3587e-05
1.33655e-06
-3.39555e-05
1.35051e-06
-3.43276e-05
1.39081e-06
-3.47095e-05
1.46711e-06
-3.51085e-05
1.5931e-06
-3.55323e-05
1.78858e-06
-3.59865e-05
2.08275e-06
-3.64668e-05
2.51839e-06
-3.6948e-05
3.15327e-06
-3.73496e-05
4.08348e-06
-3.73117e-05
5.49461e-06
7.14156e-06
-3.65574e-05
-4.41632e-07
1.8229e-06
-1.22998e-06
3.35662e-06
-2.11543e-06
3.79738e-06
-3.02026e-06
3.88838e-06
-3.92679e-06
3.89713e-06
-4.8314e-06
3.8892e-06
-5.73302e-06
3.87673e-06
-6.63098e-06
3.86152e-06
-7.52465e-06
3.84383e-06
-8.41344e-06
3.82368e-06
-9.29673e-06
3.80106e-06
-1.01739e-05
3.776e-06
-1.10445e-05
3.74849e-06
-1.19078e-05
3.71853e-06
-1.27632e-05
3.68615e-06
-1.36102e-05
3.65133e-06
-1.44481e-05
3.6141e-06
-1.52765e-05
3.57447e-06
-1.60948e-05
3.53245e-06
-1.69023e-05
3.48806e-06
-1.76986e-05
3.44132e-06
-1.8483e-05
3.39224e-06
-1.9255e-05
3.34087e-06
-2.00141e-05
3.28722e-06
-2.07598e-05
3.23134e-06
-2.14915e-05
3.17326e-06
-2.22088e-05
3.11304e-06
-2.29111e-05
3.05074e-06
-2.35979e-05
2.98641e-06
-2.42688e-05
2.92015e-06
-2.49234e-05
2.85204e-06
-2.55612e-05
2.7822e-06
-2.61819e-05
2.71076e-06
-2.67851e-05
2.63787e-06
-2.73705e-05
2.56372e-06
-2.79377e-05
2.48854e-06
-2.84867e-05
2.4126e-06
-2.90171e-05
2.33621e-06
-2.9529e-05
2.25978e-06
-3.00223e-05
2.18379e-06
-3.04972e-05
2.10881e-06
-3.09538e-05
2.03559e-06
-3.13925e-05
1.96501e-06
-3.18139e-05
1.89822e-06
-3.22187e-05
1.83663e-06
-3.26079e-05
1.78207e-06
-3.29827e-05
1.73684e-06
-3.33446e-05
1.70399e-06
-3.36955e-05
1.68745e-06
-3.40375e-05
1.69245e-06
-3.43726e-05
1.72595e-06
-3.47028e-05
1.7973e-06
-3.50288e-05
1.91912e-06
-3.53487e-05
2.10847e-06
-3.56544e-05
2.38836e-06
-3.59243e-05
2.78833e-06
-3.61157e-05
3.34465e-06
-3.61394e-05
4.10718e-06
-3.57693e-05
5.12454e-06
6.26213e-06
-3.48899e-05
-4.42155e-07
2.26505e-06
-1.23339e-06
4.14786e-06
-2.12202e-06
4.68601e-06
-3.03005e-06
4.79641e-06
-3.93971e-06
4.80679e-06
-4.84739e-06
4.79688e-06
-5.75205e-06
4.78139e-06
-6.65303e-06
4.7625e-06
-7.54971e-06
4.74051e-06
-8.4415e-06
4.71546e-06
-9.32778e-06
4.68735e-06
-1.0208e-05
4.65619e-06
-1.10815e-05
4.62199e-06
-1.19477e-05
4.58475e-06
-1.2806e-05
4.5445e-06
-1.36559e-05
4.50124e-06
-1.44968e-05
4.45498e-06
-1.53281e-05
4.40573e-06
-1.61492e-05
4.35353e-06
-1.69595e-05
4.29839e-06
-1.77585e-05
4.24034e-06
-1.85457e-05
4.17939e-06
-1.93204e-05
4.1156e-06
-2.00822e-05
4.04899e-06
-2.08304e-05
3.9796e-06
-2.15647e-05
3.9075e-06
-2.22844e-05
3.83274e-06
-2.2989e-05
3.75539e-06
-2.36781e-05
3.67553e-06
-2.43512e-05
3.59325e-06
-2.50079e-05
3.50867e-06
-2.56476e-05
3.42192e-06
-2.627e-05
3.33316e-06
-2.68747e-05
3.24256e-06
-2.74613e-05
3.15035e-06
-2.80296e-05
3.05679e-06
-2.85791e-05
2.96218e-06
-2.91098e-05
2.8669e-06
-2.96214e-05
2.7714e-06
-3.01139e-05
2.67622e-06
-3.05871e-05
2.58202e-06
-3.10411e-05
2.48962e-06
-3.14761e-05
2.4e-06
-3.18923e-05
2.31439e-06
-3.229e-05
2.23433e-06
-3.26696e-05
2.16172e-06
-3.30318e-05
2.09899e-06
-3.3377e-05
2.04918e-06
-3.37057e-05
2.0162e-06
-3.40183e-05
2.00504e-06
-3.43144e-05
2.02209e-06
-3.45927e-05
2.07557e-06
-3.48495e-05
2.17591e-06
-3.50773e-05
2.33626e-06
-3.52616e-05
2.5727e-06
-3.53769e-05
2.90361e-06
-3.53799e-05
3.34769e-06
-3.5195e-05
3.92226e-06
-3.4696e-05
4.62551e-06
5.37956e-06
-3.38134e-05
-4.43001e-07
2.70805e-06
-1.23693e-06
4.94179e-06
-2.12866e-06
5.57775e-06
-3.03991e-06
5.70766e-06
-3.95278e-06
5.71966e-06
-4.86364e-06
5.70774e-06
-5.77146e-06
5.6892e-06
-6.67558e-06
5.66662e-06
-7.57539e-06
5.64033e-06
-8.4703e-06
5.61037e-06
-9.3597e-06
5.57675e-06
-1.0243e-05
5.53948e-06
-1.11196e-05
5.49858e-06
-1.19889e-05
5.45406e-06
-1.28503e-05
5.40593e-06
-1.37033e-05
5.3542e-06
-1.45472e-05
5.29889e-06
-1.53815e-05
5.24002e-06
-1.62056e-05
5.17761e-06
-1.70189e-05
5.1117e-06
-1.78208e-05
5.0423e-06
-1.86109e-05
4.96945e-06
-1.93885e-05
4.89319e-06
-2.01531e-05
4.81357e-06
-2.09041e-05
4.73064e-06
-2.1641e-05
4.64445e-06
-2.23634e-05
4.55507e-06
-2.30706e-05
4.46259e-06
-2.37621e-05
4.36709e-06
-2.44376e-05
4.26869e-06
-2.50964e-05
4.1675e-06
-2.57382e-05
4.06369e-06
-2.63624e-05
3.95742e-06
-2.69687e-05
3.84889e-06
-2.75567e-05
3.73835e-06
-2.8126e-05
3.62608e-06
-2.86763e-05
3.51243e-06
-2.92072e-05
3.3978e-06
-2.97184e-05
3.28267e-06
-3.02098e-05
3.16763e-06
-3.06812e-05
3.05339e-06
-3.11324e-05
2.94078e-06
-3.15632e-05
2.83086e-06
-3.19737e-05
2.72487e-06
-3.23637e-05
2.62436e-06
-3.27333e-05
2.53124e-06
-3.30821e-05
2.44785e-06
-3.341e-05
2.37709e-06
-3.37164e-05
2.32255e-06
-3.4e-05
2.28867e-06
-3.42588e-05
2.28092e-06
-3.44892e-05
2.30595e-06
-3.4685e-05
2.37173e-06
-3.48363e-05
2.48749e-06
-3.49269e-05
2.66332e-06
-3.49322e-05
2.90894e-06
-3.48159e-05
3.23135e-06
-3.45248e-05
3.63118e-06
-3.39898e-05
4.09052e-06
4.55586e-06
-3.31661e-05
-4.44226e-07
3.15228e-06
-1.2412e-06
5.73877e-06
-2.1365e-06
6.47304e-06
-3.05146e-06
6.62262e-06
-3.96805e-06
6.63624e-06
-4.88262e-06
6.62231e-06
-5.79413e-06
6.60072e-06
-6.70193e-06
6.57442e-06
-7.60542e-06
6.54381e-06
-8.50399e-06
6.50893e-06
-9.39704e-06
6.4698e-06
-1.0284e-05
6.42642e-06
-1.11642e-05
6.37881e-06
-1.20371e-05
6.32698e-06
-1.29022e-05
6.27095e-06
-1.37587e-05
6.21074e-06
-1.46062e-05
6.14636e-06
-1.5444e-05
6.07784e-06
-1.62716e-05
6.00521e-06
-1.70884e-05
5.92848e-06
-1.78938e-05
5.84771e-06
-1.86873e-05
5.76292e-06
-1.94682e-05
5.67416e-06
-2.02361e-05
5.58147e-06
-2.09904e-05
5.48492e-06
-2.17305e-05
5.38457e-06
-2.2456e-05
5.2805e-06
-2.31662e-05
5.1728e-06
-2.38607e-05
5.06156e-06
-2.45389e-05
4.9469e-06
-2.52003e-05
4.82896e-06
-2.58445e-05
4.7079e-06
-2.6471e-05
4.58391e-06
-2.70794e-05
4.45721e-06
-2.76691e-05
4.32805e-06
-2.82397e-05
4.19674e-06
-2.87909e-05
4.06363e-06
-2.93223e-05
3.92915e-06
-2.98334e-05
3.79381e-06
-3.0324e-05
3.65819e-06
-3.07936e-05
3.52303e-06
-3.1242e-05
3.38918e-06
-3.16688e-05
3.25766e-06
-3.20736e-05
3.12971e-06
-3.24561e-05
3.00682e-06
-3.28157e-05
2.89079e-06
-3.31516e-05
2.78378e-06
-3.34629e-05
2.68842e-06
-3.37482e-05
2.60781e-06
-3.40052e-05
2.54571e-06
-3.42308e-05
2.50648e-06
-3.442e-05
2.49519e-06
-3.45658e-05
2.51746e-06
-3.46574e-05
2.57918e-06
-3.468e-05
2.68586e-06
-3.46124e-05
2.84134e-06
-3.44267e-05
3.04569e-06
-3.40876e-05
3.29206e-06
-3.35569e-05
3.55983e-06
3.81027e-06
-3.28113e-05
-4.45759e-07
3.59804e-06
-1.24625e-06
6.53926e-06
-2.14567e-06
7.37247e-06
-3.06491e-06
7.54186e-06
-3.9858e-06
7.55713e-06
-4.90466e-06
7.54117e-06
-5.82046e-06
7.51651e-06
-6.73254e-06
7.4865e-06
-7.64029e-06
7.45157e-06
-8.54312e-06
7.41176e-06
-9.44041e-06
7.3671e-06
-1.03316e-05
7.31759e-06
-1.1216e-05
7.26326e-06
-1.20931e-05
7.20411e-06
-1.29624e-05
7.14017e-06
-1.38231e-05
7.07145e-06
-1.46747e-05
6.99798e-06
-1.55166e-05
6.91978e-06
-1.63483e-05
6.83689e-06
-1.71691e-05
6.74932e-06
-1.79786e-05
6.65713e-06
-1.8776e-05
6.56036e-06
-1.95609e-05
6.45904e-06
-2.03326e-05
6.35323e-06
-2.10907e-05
6.243e-06
-2.18346e-05
6.12842e-06
-2.25636e-05
6.00957e-06
-2.32774e-05
5.88653e-06
-2.39753e-05
5.75943e-06
-2.46567e-05
5.62838e-06
-2.53213e-05
5.49353e-06
-2.59684e-05
5.35504e-06
-2.65976e-05
5.21311e-06
-2.72084e-05
5.06797e-06
-2.78002e-05
4.91988e-06
-2.83726e-05
4.76916e-06
-2.89252e-05
4.61616e-06
-2.94574e-05
4.46133e-06
-2.99687e-05
4.30516e-06
-3.04588e-05
4.14825e-06
-3.0927e-05
3.9913e-06
-3.1373e-05
3.83515e-06
-3.17961e-05
3.68078e-06
-3.21958e-05
3.52936e-06
-3.25712e-05
3.38227e-06
-3.29216e-05
3.24113e-06
-3.32457e-05
3.10787e-06
-3.3542e-05
2.98474e-06
-3.38085e-05
2.87433e-06
-3.40424e-05
2.77962e-06
-3.42399e-05
2.70394e-06
-3.43956e-05
2.65088e-06
-3.45022e-05
2.62408e-06
-3.45499e-05
2.62686e-06
-3.45255e-05
2.66151e-06
-3.44124e-05
2.72823e-06
-3.41902e-05
2.82348e-06
-3.38359e-05
2.9378e-06
-3.33288e-05
3.05267e-06
3.13947e-06
-3.2658e-05
-4.47561e-07
4.0456e-06
-1.25206e-06
7.34375e-06
-2.15619e-06
8.2766e-06
-3.0803e-06
8.46597e-06
-4.00608e-06
8.48291e-06
-4.92983e-06
8.46493e-06
-5.85052e-06
8.4372e-06
-6.76747e-06
8.40346e-06
-7.68009e-06
8.36418e-06
-8.58777e-06
8.31944e-06
-9.4899e-06
8.26923e-06
-1.03859e-05
8.21358e-06
-1.12752e-05
8.15251e-06
-1.21571e-05
8.08603e-06
-1.30311e-05
8.01415e-06
-1.38965e-05
7.93691e-06
-1.47529e-05
7.85432e-06
-1.55995e-05
7.76642e-06
-1.64358e-05
7.67323e-06
-1.72613e-05
7.57479e-06
-1.80753e-05
7.47114e-06
-1.88773e-05
7.36233e-06
-1.96666e-05
7.2484e-06
-2.04428e-05
7.12941e-06
-2.12053e-05
7.00543e-06
-2.19534e-05
6.87654e-06
-2.26866e-05
6.7428e-06
-2.34044e-05
6.60434e-06
-2.41062e-05
6.46124e-06
-2.47915e-05
6.31365e-06
-2.54597e-05
6.16171e-06
-2.61102e-05
6.0056e-06
-2.67426e-05
5.8455e-06
-2.73563e-05
5.68165e-06
-2.79508e-05
5.51433e-06
-2.85254e-05
5.34382e-06
-2.90798e-05
5.17051e-06
-2.96133e-05
4.99481e-06
-3.01253e-05
4.81721e-06
-3.06153e-05
4.63829e-06
-3.10828e-05
4.45871e-06
-3.15269e-05
4.27927e-06
-3.1947e-05
4.10087e-06
-3.23422e-05
3.92459e-06
-3.27116e-05
3.75164e-06
-3.30539e-05
3.58347e-06
-3.33677e-05
3.4217e-06
-3.36512e-05
3.26819e-06
-3.39019e-05
3.12501e-06
-3.41167e-05
2.99443e-06
-3.42916e-05
2.87882e-06
-3.44212e-05
2.78053e-06
-3.44988e-05
2.70168e-06
-3.45156e-05
2.6437e-06
-3.44609e-05
2.60681e-06
-3.43219e-05
2.58915e-06
-3.4084e-05
2.58563e-06
-3.37329e-05
2.58665e-06
-3.32572e-05
2.57699e-06
2.53526e-06
-3.2653e-05
-4.49614e-07
4.49521e-06
-1.25862e-06
8.15276e-06
-2.16804e-06
9.18601e-06
-3.09761e-06
9.39554e-06
-4.02889e-06
9.41419e-06
-4.95813e-06
9.39418e-06
-5.8843e-06
9.36337e-06
-6.80674e-06
9.32589e-06
-7.72482e-06
9.28227e-06
-8.63795e-06
9.23257e-06
-9.54553e-06
9.17681e-06
-1.0447e-05
9.115e-06
-1.13416e-05
9.04717e-06
-1.22289e-05
8.97333e-06
-1.31083e-05
8.8935e-06
-1.39791e-05
8.80771e-06
-1.48407e-05
8.71597e-06
-1.56926e-05
8.61833e-06
-1.65342e-05
8.51482e-06
-1.73649e-05
8.40546e-06
-1.81841e-05
8.29031e-06
-1.89912e-05
8.16942e-06
-1.97856e-05
8.04282e-06
-2.05667e-05
7.91058e-06
-2.13341e-05
7.77278e-06
-2.2087e-05
7.62948e-06
-2.2825e-05
7.48077e-06
-2.35474e-05
7.32675e-06
-2.42537e-05
7.16754e-06
-2.49433e-05
7.00326e-06
-2.56157e-05
6.83407e-06
-2.62702e-05
6.66012e-06
-2.69063e-05
6.48163e-06
-2.75235e-05
6.29881e-06
-2.81211e-05
6.11192e-06
-2.86985e-05
5.92128e-06
-2.92552e-05
5.72722e-06
-2.97906e-05
5.53015e-06
-3.03039e-05
5.33054e-06
-3.07946e-05
5.12893e-06
-3.12618e-05
4.92594e-06
-3.17048e-05
4.72229e-06
-3.21227e-05
4.51879e-06
-3.25145e-05
4.31639e-06
-3.28791e-05
4.11617e-06
-3.32149e-05
3.91931e-06
-3.35204e-05
3.72718e-06
-3.37934e-05
3.54125e-06
-3.40315e-05
3.36308e-06
-3.42314e-05
3.19431e-06
-3.43891e-05
3.03652e-06
-3.44997e-05
2.89109e-06
-3.4557e-05
2.75898e-06
-3.45536e-05
2.64039e-06
-3.44811e-05
2.53427e-06
-3.43297e-05
2.43773e-06
-3.40894e-05
2.34534e-06
-3.37513e-05
2.24854e-06
-3.33093e-05
2.13496e-06
1.98882e-06
-3.27628e-05
-4.51908e-07
4.94712e-06
-1.26593e-06
8.96678e-06
-2.18122e-06
1.01013e-05
-3.11686e-06
1.03312e-05
-4.05423e-06
1.03516e-05
-4.98958e-06
1.03295e-05
-5.92184e-06
1.02956e-05
-6.85035e-06
1.02544e-05
-7.7745e-06
1.02064e-05
-8.69369e-06
1.01518e-05
-9.60731e-06
1.00904e-05
-1.05148e-05
1.00225e-05
-1.14154e-05
9.94784e-06
-1.23087e-05
9.86662e-06
-1.3194e-05
9.77881e-06
-1.40708e-05
9.68444e-06
-1.49383e-05
9.58354e-06
-1.57961e-05
9.47612e-06
-1.66435e-05
9.36224e-06
-1.748e-05
9.24193e-06
-1.83049e-05
9.11523e-06
-1.91177e-05
8.98219e-06
-1.99178e-05
8.84287e-06
-2.07045e-05
8.69732e-06
-2.14773e-05
8.54561e-06
-2.22357e-05
8.38782e-06
-2.29789e-05
8.22404e-06
-2.37065e-05
8.05436e-06
-2.44179e-05
7.8789e-06
-2.51124e-05
7.69778e-06
-2.57895e-05
7.51116e-06
-2.64486e-05
7.31919e-06
-2.7089e-05
7.12206e-06
-2.77102e-05
6.92e-06
-2.83116e-05
6.71326e-06
-2.88924e-05
6.50212e-06
-2.94521e-05
6.28691e-06
-2.99899e-05
6.06801e-06
-3.05053e-05
5.84585e-06
-3.09972e-05
5.62092e-06
-3.14651e-05
5.39379e-06
-3.19079e-05
5.1651e-06
-3.23247e-05
4.93555e-06
-3.27143e-05
4.70598e-06
-3.30753e-05
4.47726e-06
-3.34064e-05
4.25039e-06
-3.37057e-05
4.02644e-06
-3.3971e-05
3.80653e-06
-3.41997e-05
3.59179e-06
-3.43887e-05
3.38332e-06
-3.45342e-05
3.18207e-06
-3.46318e-05
2.98868e-06
-3.46762e-05
2.80332e-06
-3.46612e-05
2.62539e-06
-3.45801e-05
2.45316e-06
-3.44257e-05
2.2834e-06
-3.41914e-05
2.11097e-06
-3.38713e-05
1.9285e-06
-3.34626e-05
1.72621e-06
1.4924e-06
-3.29661e-05
-4.54438e-07
5.40156e-06
-1.27397e-06
9.78632e-06
-2.19573e-06
1.10231e-05
-3.13804e-06
1.12735e-05
-4.08211e-06
1.12956e-05
-5.02416e-06
1.12716e-05
-5.96312e-06
1.12346e-05
-6.89832e-06
1.11896e-05
-7.82915e-06
1.11373e-05
-8.755e-06
1.10776e-05
-9.67527e-06
1.10107e-05
-1.05893e-05
1.09365e-05
-1.14966e-05
1.08551e-05
-1.23965e-05
1.07665e-05
-1.32884e-05
1.06707e-05
-1.41716e-05
1.05677e-05
-1.50457e-05
1.04576e-05
-1.591e-05
1.03404e-05
-1.67638e-05
1.02161e-05
-1.76067e-05
1.00848e-05
-1.84379e-05
9.94649e-06
-1.9257e-05
9.80126e-06
-2.00633e-05
9.64914e-06
-2.08561e-05
9.49021e-06
-2.1635e-05
9.32452e-06
-2.23994e-05
9.15215e-06
-2.31485e-05
8.9732e-06
-2.38819e-05
8.78775e-06
-2.45989e-05
8.59591e-06
-2.5299e-05
8.39781e-06
-2.59814e-05
8.19358e-06
-2.66456e-05
7.98339e-06
-2.72909e-05
7.76742e-06
-2.79168e-05
7.54587e-06
-2.85225e-05
7.31898e-06
-2.91074e-05
7.08701e-06
-2.96708e-05
6.85027e-06
-3.02119e-05
6.6091e-06
-3.07299e-05
6.36389e-06
-3.12241e-05
6.11509e-06
-3.16935e-05
5.86318e-06
-3.21371e-05
5.60872e-06
-3.25539e-05
5.35232e-06
-3.29425e-05
5.09467e-06
-3.33018e-05
4.83648e-06
-3.36299e-05
4.57854e-06
-3.39251e-05
4.32167e-06
-3.41853e-05
4.06667e-06
-3.44078e-05
3.81431e-06
-3.45897e-05
3.56526e-06
-3.47276e-05
3.31997e-06
-3.48175e-05
3.07858e-06
-3.48549e-05
2.84071e-06
-3.48348e-05
2.60531e-06
-3.4752e-05
2.37036e-06
-3.46013e-05
2.13266e-06
-3.43779e-05
1.8876e-06
-3.40784e-05
1.62901e-06
-3.37015e-05
1.34924e-06
1.03959e-06
-3.32486e-05
-4.57202e-07
5.85876e-06
-1.28276e-06
1.06119e-05
-2.21156e-06
1.19519e-05
-3.16115e-06
1.22231e-05
-4.11254e-06
1.2247e-05
-5.0619e-06
1.22209e-05
-6.00816e-06
1.21808e-05
-6.95066e-06
1.21321e-05
-7.88877e-06
1.20754e-05
-8.8219e-06
1.20107e-05
-9.74942e-06
1.19382e-05
-1.06707e-05
1.18578e-05
-1.15852e-05
1.17696e-05
-1.24923e-05
1.16736e-05
-1.33913e-05
1.15697e-05
-1.42817e-05
1.14581e-05
-1.51629e-05
1.13388e-05
-1.60342e-05
1.12117e-05
-1.68951e-05
1.1077e-05
-1.77449e-05
1.09346e-05
-1.85831e-05
1.07847e-05
-1.9409e-05
1.06272e-05
-2.02221e-05
1.04622e-05
-2.10218e-05
1.02898e-05
-2.18073e-05
1.01101e-05
-2.25783e-05
9.92307e-06
-2.33339e-05
9.72885e-06
-2.40737e-05
9.52751e-06
-2.47969e-05
9.31917e-06
-2.55031e-05
9.10394e-06
-2.61915e-05
8.88196e-06
-2.68614e-05
8.65337e-06
-2.75124e-05
8.41834e-06
-2.81435e-05
8.17707e-06
-2.87543e-05
7.92976e-06
-2.9344e-05
7.67666e-06
-2.99117e-05
7.41804e-06
-3.04569e-05
7.15421e-06
-3.09785e-05
6.88551e-06
-3.14757e-05
6.61233e-06
-3.19476e-05
6.33509e-06
-3.23932e-05
6.05425e-06
-3.28112e-05
5.77033e-06
-3.32004e-05
5.48387e-06
-3.35593e-05
5.19544e-06
-3.38864e-05
4.90564e-06
-3.41798e-05
4.61505e-06
-3.44374e-05
4.32422e-06
-3.46567e-05
4.03362e-06
-3.4835e-05
3.74358e-06
-3.49692e-05
3.45419e-06
-3.50559e-05
3.16524e-06
-3.50912e-05
2.87603e-06
-3.50712e-05
2.58527e-06
-3.49917e-05
2.29089e-06
-3.4849e-05
1.98992e-06
-3.46397e-05
1.67835e-06
-3.43618e-05
1.35111e-06
-3.40148e-05
1.00225e-06
6.25257e-07
-3.36005e-05
-4.60198e-07
6.31896e-06
-1.29228e-06
1.1444e-05
-2.22873e-06
1.28883e-05
-3.1862e-06
1.31806e-05
-4.14551e-06
1.32063e-05
-5.1028e-06
1.31782e-05
-6.05698e-06
1.3135e-05
-7.00738e-06
1.30825e-05
-7.95339e-06
1.30214e-05
-8.89439e-06
1.29517e-05
-9.82977e-06
1.28736e-05
-1.07589e-05
1.2787e-05
-1.16812e-05
1.26919e-05
-1.25961e-05
1.25884e-05
-1.35029e-05
1.24765e-05
-1.4401e-05
1.23562e-05
-1.52899e-05
1.22276e-05
-1.61689e-05
1.20907e-05
-1.70374e-05
1.19455e-05
-1.78948e-05
1.1792e-05
-1.87405e-05
1.16304e-05
-1.95739e-05
1.14606e-05
-2.03945e-05
1.12827e-05
-2.12014e-05
1.10968e-05
-2.19943e-05
1.0903e-05
-2.27724e-05
1.07012e-05
-2.35352e-05
1.04916e-05
-2.42819e-05
1.02743e-05
-2.50121e-05
1.00493e-05
-2.5725e-05
9.81682e-06
-2.64199e-05
9.57693e-06
-2.70963e-05
9.32978e-06
-2.77535e-05
9.0755e-06
-2.83907e-05
8.81429e-06
-2.90073e-05
8.54632e-06
-2.96024e-05
8.27181e-06
-3.01754e-05
7.99101e-06
-3.07254e-05
7.70417e-06
-3.12514e-05
7.4116e-06
-3.17527e-05
7.11362e-06
-3.22282e-05
6.81058e-06
-3.26768e-05
6.50286e-06
-3.30974e-05
6.19087e-06
-3.34885e-05
5.87504e-06
-3.38489e-05
5.55578e-06
-3.41768e-05
5.23354e-06
-3.44704e-05
4.9087e-06
-3.47278e-05
4.5816e-06
-3.49467e-05
4.25247e-06
-3.51245e-05
3.92138e-06
-3.52585e-05
3.58819e-06
-3.53457e-05
3.25242e-06
-3.53829e-05
2.91323e-06
-3.53668e-05
2.56924e-06
-3.52944e-05
2.21846e-06
-3.51627e-05
1.85823e-06
-3.49695e-05
1.48514e-06
-3.47135e-05
1.09509e-06
-3.43947e-05
6.83456e-07
2.45388e-07
-3.40148e-05
-4.63424e-07
6.78238e-06
-1.30254e-06
1.22831e-05
-2.24722e-06
1.3833e-05
-3.21319e-06
1.41465e-05
-4.18104e-06
1.41742e-05
-5.14687e-06
1.4144e-05
-6.10958e-06
1.40977e-05
-7.0685e-06
1.40414e-05
-8.02301e-06
1.39759e-05
-8.9725e-06
1.39012e-05
-9.91635e-06
1.38174e-05
-1.0854e-05
1.37246e-05
-1.17847e-05
1.36227e-05
-1.2708e-05
1.35117e-05
-1.36231e-05
1.33917e-05
-1.45296e-05
1.32627e-05
-1.54268e-05
1.31248e-05
-1.63141e-05
1.2978e-05
-1.71908e-05
1.28222e-05
-1.80564e-05
1.26576e-05
-1.89103e-05
1.24843e-05
-1.97518e-05
1.23021e-05
-2.05803e-05
1.21113e-05
-2.13952e-05
1.19118e-05
-2.2196e-05
1.17037e-05
-2.29819e-05
1.14871e-05
-2.37524e-05
1.12621e-05
-2.45068e-05
1.10287e-05
-2.52445e-05
1.0787e-05
-2.59647e-05
1.05371e-05
-2.6667e-05
1.02792e-05
-2.73505e-05
1.00133e-05
-2.80146e-05
9.7396e-06
-2.86585e-05
9.45825e-06
-2.92816e-05
9.1694e-06
-2.98831e-05
8.87325e-06
-3.04621e-05
8.56999e-06
-3.10177e-05
8.25986e-06
-3.15492e-05
7.94309e-06
-3.20556e-05
7.61996e-06
-3.25357e-05
7.29074e-06
-3.29886e-05
6.95574e-06
-3.3413e-05
6.61526e-06
-3.38076e-05
6.26963e-06
-3.41709e-05
5.91913e-06
-3.45015e-05
5.56407e-06
-3.47974e-05
5.20467e-06
-3.50569e-05
4.84109e-06
-3.52778e-05
4.47338e-06
-3.54579e-05
4.10143e-06
-3.55946e-05
3.72492e-06
-3.56854e-05
3.34325e-06
-3.57277e-05
2.9555e-06
-3.57187e-05
2.56029e-06
-3.56561e-05
2.15581e-06
-3.55376e-05
1.73972e-06
-3.53616e-05
1.30916e-06
-3.51274e-05
8.60854e-07
-3.48352e-05
3.91296e-07
-1.03984e-07
-3.44858e-05
-4.66878e-07
7.24926e-06
-1.31353e-06
1.31297e-05
-2.26704e-06
1.47865e-05
-3.24213e-06
1.51216e-05
-4.21913e-06
1.51512e-05
-5.19411e-06
1.5119e-05
-6.16597e-06
1.50696e-05
-7.13402e-06
1.50095e-05
-8.09766e-06
1.49395e-05
-9.05625e-06
1.48598e-05
-1.00092e-05
1.47704e-05
-1.09559e-05
1.46713e-05
-1.18956e-05
1.45624e-05
-1.28279e-05
1.4444e-05
-1.37521e-05
1.43159e-05
-1.46675e-05
1.41782e-05
-1.55736e-05
1.40309e-05
-1.64697e-05
1.38741e-05
-1.73553e-05
1.37078e-05
-1.82297e-05
1.3532e-05
-1.90923e-05
1.33469e-05
-1.99425e-05
1.31523e-05
-2.07797e-05
1.29485e-05
-2.16033e-05
1.27353e-05
-2.24125e-05
1.2513e-05
-2.32069e-05
1.22815e-05
-2.39857e-05
1.20409e-05
-2.47484e-05
1.17913e-05
-2.54942e-05
1.15328e-05
-2.62226e-05
1.12654e-05
-2.69328e-05
1.09893e-05
-2.76241e-05
1.07046e-05
-2.82958e-05
1.04113e-05
-2.89473e-05
1.01097e-05
-2.95776e-05
9.79978e-06
-3.01862e-05
9.48178e-06
-3.0772e-05
9.15585e-06
-3.13343e-05
8.82217e-06
-3.18722e-05
8.48095e-06
-3.23846e-05
8.13238e-06
-3.28706e-05
7.77668e-06
-3.33289e-05
7.41409e-06
-3.37585e-05
7.04482e-06
-3.41579e-05
6.66908e-06
-3.45259e-05
6.28708e-06
-3.48608e-05
5.89897e-06
-3.5161e-05
5.50486e-06
-3.54246e-05
5.10477e-06
-3.56499e-05
4.69861e-06
-3.58346e-05
4.28615e-06
-3.59766e-05
3.86696e-06
-3.60737e-05
3.44036e-06
-3.61237e-05
3.00542e-06
-3.61242e-05
2.56085e-06
-3.60734e-05
2.10501e-06
-3.59696e-05
1.63589e-06
-3.58116e-05
1.15114e-06
-3.55988e-05
6.48123e-07
-3.53316e-05
1.24094e-07
-4.24992e-07
-3.50106e-05
-4.70559e-07
7.71982e-06
-1.32525e-06
1.39844e-05
-2.2882e-06
1.57495e-05
-3.27301e-06
1.61064e-05
-4.25979e-06
1.6138e-05
-5.24454e-06
1.61038e-05
-6.22616e-06
1.60512e-05
-7.20397e-06
1.59873e-05
-8.17734e-06
1.59129e-05
-9.14565e-06
1.58281e-05
-1.01083e-05
1.5733e-05
-1.10646e-05
1.56276e-05
-1.20141e-05
1.55119e-05
-1.2956e-05
1.53859e-05
-1.38897e-05
1.52496e-05
-1.48147e-05
1.51032e-05
-1.57303e-05
1.49465e-05
-1.6636e-05
1.47797e-05
-1.7531e-05
1.46028e-05
-1.84148e-05
1.44159e-05
-1.92868e-05
1.42188e-05
-2.01463e-05
1.40118e-05
-2.09928e-05
1.37949e-05
-2.18255e-05
1.35681e-05
-2.26439e-05
1.33314e-05
-2.34474e-05
1.30849e-05
-2.42352e-05
1.28288e-05
-2.50068e-05
1.25629e-05
-2.57615e-05
1.22875e-05
-2.64986e-05
1.20025e-05
-2.72174e-05
1.17082e-05
-2.79172e-05
1.14044e-05
-2.85974e-05
1.10915e-05
-2.9257e-05
1.07694e-05
-2.98955e-05
1.04383e-05
-3.0512e-05
1.00982e-05
-3.11056e-05
9.74945e-06
-3.16754e-05
9.39203e-06
-3.22206e-05
9.02614e-06
-3.27402e-05
8.65192e-06
-3.3233e-05
8.26953e-06
-3.3698e-05
7.87912e-06
-3.41341e-05
7.48084e-06
-3.45398e-05
7.07482e-06
-3.49139e-05
6.66116e-06
-3.52548e-05
6.23991e-06
-3.5561e-05
5.81108e-06
-3.58309e-05
5.37459e-06
-3.60625e-05
4.93024e-06
-3.62541e-05
4.47771e-06
-3.64036e-05
4.01652e-06
-3.65092e-05
3.54597e-06
-3.65689e-05
3.06514e-06
-3.65809e-05
2.57285e-06
-3.65436e-05
2.06767e-06
-3.64556e-05
1.54788e-06
-3.6316e-05
1.01157e-06
-3.61246e-05
4.56706e-07
-3.58809e-05
-1.19665e-07
-7.19415e-07
-3.55864e-05
-4.74465e-07
8.19429e-06
-1.33771e-06
1.48477e-05
-2.31068e-06
1.67224e-05
-3.30584e-06
1.71016e-05
-4.30302e-06
1.71351e-05
-5.29816e-06
1.70989e-05
-6.29017e-06
1.70432e-05
-7.27835e-06
1.69755e-05
-8.26208e-06
1.68966e-05
-9.24073e-06
1.68068e-05
-1.02137e-05
1.6706e-05
-1.11803e-05
1.65942e-05
-1.214e-05
1.64716e-05
-1.30922e-05
1.6338e-05
-1.40361e-05
1.61936e-05
-1.49713e-05
1.60383e-05
-1.58971e-05
1.58723e-05
-1.68128e-05
1.56955e-05
-1.77179e-05
1.55079e-05
-1.86118e-05
1.53097e-05
-1.94937e-05
1.51008e-05
-2.03632e-05
1.48813e-05
-2.12196e-05
1.46512e-05
-2.20621e-05
1.44107e-05
-2.28903e-05
1.41596e-05
-2.37035e-05
1.38981e-05
-2.4501e-05
1.36263e-05
-2.52822e-05
1.33441e-05
-2.60464e-05
1.30517e-05
-2.67929e-05
1.2749e-05
-2.7521e-05
1.24363e-05
-2.82301e-05
1.21135e-05
-2.89194e-05
1.17807e-05
-2.95881e-05
1.14381e-05
-3.02354e-05
1.10856e-05
-3.08607e-05
1.07235e-05
-3.14629e-05
1.03517e-05
-3.20412e-05
9.97037e-06
-3.25947e-05
9.57965e-06
-3.31224e-05
9.17963e-06
-3.36233e-05
8.77039e-06
-3.40962e-05
8.35203e-06
-3.454e-05
7.92462e-06
-3.49534e-05
7.48822e-06
-3.53351e-05
7.04285e-06
-3.56836e-05
6.58847e-06
-3.59976e-05
6.12502e-06
-3.62753e-05
5.65232e-06
-3.65152e-05
5.17012e-06
-3.67155e-05
4.67803e-06
-3.68745e-05
4.17555e-06
-3.69905e-05
3.66197e-06
-3.70618e-05
3.13644e-06
-3.70869e-05
2.5979e-06
-3.70643e-05
2.04508e-06
-3.6993e-05
1.47655e-06
-3.68722e-05
8.90766e-07
-3.67016e-05
2.8616e-07
-3.64809e-05
-3.40341e-07
-9.89008e-07
-3.62114e-05
-4.78596e-07
8.67288e-06
-1.35091e-06
1.572e-05
-2.3345e-06
1.7706e-05
-3.34063e-06
1.81077e-05
-4.34883e-06
1.81433e-05
-5.35499e-06
1.81051e-05
-6.35801e-06
1.80462e-05
-7.35719e-06
1.79747e-05
-8.35189e-06
1.78913e-05
-9.34151e-06
1.77964e-05
-1.03254e-05
1.76899e-05
-1.1303e-05
1.75718e-05
-1.22735e-05
1.74422e-05
-1.32365e-05
1.7301e-05
-1.41913e-05
1.71484e-05
-1.51373e-05
1.69843e-05
-1.60739e-05
1.68088e-05
-1.70003e-05
1.6622e-05
-1.79161e-05
1.64237e-05
-1.88206e-05
1.62142e-05
-1.97132e-05
1.59934e-05
-2.05932e-05
1.57613e-05
-2.14601e-05
1.55181e-05
-2.23131e-05
1.52637e-05
-2.31517e-05
1.49982e-05
-2.39753e-05
1.47216e-05
-2.47831e-05
1.44341e-05
-2.55745e-05
1.41355e-05
-2.63489e-05
1.3826e-05
-2.71055e-05
1.35057e-05
-2.78437e-05
1.31745e-05
-2.85628e-05
1.28326e-05
-2.92619e-05
1.24799e-05
-2.99404e-05
1.21166e-05
-3.05975e-05
1.17427e-05
-3.12323e-05
1.13583e-05
-3.18441e-05
1.09634e-05
-3.24318e-05
1.05581e-05
-3.29946e-05
1.01425e-05
-3.35316e-05
9.71655e-06
-3.40416e-05
9.28038e-06
-3.45235e-05
8.834e-06