/*--------------------------------*- C++ -*----------------------------------*\
  =========                 |
  \\      /  F ield         | OpenFOAM: The Open Source CFD Toolbox
   \\    /   O peration     | Website:  https://openfoam.org
    \\  /    A nd           | Version:  8
     \\/     M anipulation  |
\*---------------------------------------------------------------------------*/
FoamFile
{
    version     2.0;
    format      ascii;
    class       volVectorField;
    location    "39.5";
    object      U;
}
// * * * * * * * * * * * * * * * * * * * * * * * * * * * * * * * * * * * * * //

dimensions      [0 1 -1 0 0 0 0];

internalField   nonuniform List<vector> 
464
(
(-0.000152592 0.000151205 0)
(-0.000485085 0.000161252 0)
(-0.000824625 0.000154944 0)
(-0.00113851 0.000145111 0)
(-0.00143122 0.000132091 0)
(-0.00169527 0.000115846 0)
(-0.00191821 9.66104e-05 0)
(-0.00212052 7.31442e-05 0)
(-0.00223243 4.6799e-05 0)
(-0.00239465 1.19209e-05 0)
(-0.00233453 -2.00286e-05 0)
(-0.0025428 5.0387e-06 0)
(-0.000169146 0.000486514 0)
(-0.000536546 0.000517726 0)
(-0.000911123 0.000497553 0)
(-0.00125753 0.000466354 0)
(-0.0015806 0.000425697 0)
(-0.00187203 0.000376408 0)
(-0.0021199 0.000321507 0)
(-0.00234428 0.000258376 0)
(-0.00247668 0.0002065 0)
(-0.00265883 0.000125319 0)
(-0.00262401 0.000125742 0)
(-0.00285571 -4.65193e-07 0)
(-0.000176196 0.000850035 0)
(-0.000558958 0.000903506 0)
(-0.000949127 0.000868026 0)
(-0.00130942 0.000813049 0)
(-0.00164484 0.000741265 0)
(-0.00194483 0.000653862 0)
(-0.00219976 0.000554361 0)
(-0.00241425 0.000439568 0)
(-0.00255333 0.000330358 0)
(-0.00267395 0.000186024 0)
(-0.00265959 0.000123966 0)
(-0.00266711 -5.64454e-05 0)
(-0.000186585 0.00122325 0)
(-0.000591954 0.00129997 0)
(-0.00100541 0.00124875 0)
(-0.00138729 0.00116925 0)
(-0.00174347 0.00106534 0)
(-0.00206319 0.0009387 0)
(-0.00233895 0.000793425 0)
(-0.00257334 0.000630128 0)
(-0.00273553 0.000461255 0)
(-0.00287064 0.000264993 0)
(-0.00287123 0.000100619 0)
(-0.00286995 -0.000144649 0)
(-0.000200815 0.00162551 0)
(-0.00063708 0.00172717 0)
(-0.00108222 0.00165896 0)
(-0.00149293 0.00155295 0)
(-0.00187547 0.00141477 0)
(-0.00221682 0.00124628 0)
(-0.00250841 0.00105194 0)
(-0.00274644 0.000831557 0)
(-0.00291854 0.000595884 0)
(-0.00303462 0.000329446 0)
(-0.0030693 8.33162e-05 0)
(-0.00304887 -0.0002274 0)
(-0.000219509 0.00205661 0)
(-0.000696042 0.00218595 0)
(-0.00118267 0.0021001 0)
(-0.00163152 0.00196612 0)
(-0.00205015 0.00179153 0)
(-0.00242604 0.00157866 0)
(-0.00275375 0.00133396 0)
(-0.00302948 0.00106035 0)
(-0.00323785 0.000765319 0)
(-0.00338326 0.000444243 0)
(-0.00342819 0.000113752 0)
(-0.00339882 -0.000256501 0)
(-0.000242141 0.00254372 0)
(-0.000767906 0.00270151 0)
(-0.00130581 0.0025939 0)
(-0.00180153 0.00242535 0)
(-0.00226291 0.00220927 0)
(-0.00267436 0.0019452 0)
(-0.00302662 0.00164024 0)
(-0.00331489 0.00129462 0)
(-0.00353444 0.00091579 0)
(-0.00368596 0.000502386 0)
(-0.00377007 6.88168e-05 0)
(-0.00377924 -0.000397561 0)
(-0.000272858 0.00304895 0)
(-0.000861403 0.00324298 0)
(-0.00146339 0.0031166 0)
(-0.00201622 0.00291853 0)
(-0.0025303 0.00266358 0)
(-0.00299514 0.0023513 0)
(-0.00340448 0.00199683 0)
(-0.00375423 0.00160227 0)
(-0.00403051 0.00117513 0)
(-0.0042305 0.00071512 0)
(-0.0043283 0.000228242 0)
(-0.00432713 -0.00029787 0)
(-0.000302768 0.00369461 0)
(-0.000959988 0.00391886 0)
(-0.00163547 0.00376158 0)
(-0.00225459 0.0035056 0)
(-0.00283005 0.00319366 0)
(-0.00334103 0.00280585 0)
(-0.00377534 0.00236872 0)
(-0.0041361 0.00187575 0)
(-0.00442094 0.00133947 0)
(-0.00463229 0.000757654 0)
(-0.00478272 0.00013664 0)
(-0.00484373 -0.00053214 0)
(-0.000357558 0.00427953 0)
(-0.00110924 0.00456196 0)
(-0.0018829 0.00437863 0)
(-0.00258437 0.00410334 0)
(-0.00322995 0.00374987 0)
(-0.0038204 0.00332141 0)
(-0.00433504 0.00284402 0)
(-0.00478442 0.0023116 0)
(-0.00514975 0.00174146 0)
(-0.00543428 0.00113002 0)
(-0.00561857 0.000493897 0)
(-0.00567631 -0.000223651 0)
(-0.000380013 0.00518441 0)
(-0.00122688 0.00546194 0)
(-0.00210012 0.00525351 0)
(-0.00288345 0.00483239 0)
(-0.00361148 0.00441509 0)
(-0.00424677 0.00384431 0)
(-0.00478414 0.0032653 0)
(-0.0052374 0.00260164 0)
(-0.00560078 0.00190284 0)
(-0.00587841 0.00114357 0)
(-0.00613486 0.000342416 0)
(-0.00622835 -0.000575696 0)
(-0.000522508 0.00587136 0)
(-0.00148925 0.00636838 0)
(-0.00252121 0.0060185 0)
(-0.00342413 0.00572505 0)
(-0.00421757 0.00517789 0)
(-0.00497164 0.0046008 0)
(-0.00557859 0.00394914 0)
(-0.00614938 0.00324031 0)
(-0.00661046 0.00251113 0)
(-0.00699758 0.00172471 0)
(-0.00733918 0.000988834 0)
(-0.00746554 2.46199e-05 0)
(-0.000374326 0.00712161 0)
(-0.00157905 0.00727612 0)
(-0.00274643 0.0071281 0)
(-0.00372408 0.0063156 0)
(-0.00473344 0.00586288 0)
(-0.00547557 0.00500867 0)
(-0.00614181 0.00432176 0)
(-0.00667305 0.00345842 0)
(-0.00711252 0.00263269 0)
(-0.00739785 0.00169487 0)
(-0.00783016 0.000795295 0)
(-0.00785846 -0.000399546 0)
(-0.00101577 0.00798129 0)
(-0.00212795 0.0090849 0)
(-0.00349686 0.00824434 0)
(-0.00469473 0.00809479 0)
(-0.00552208 0.00703294 0)
(-0.00651782 0.0063129 0)
(-0.00712938 0.00532329 0)
(-0.00784427 0.00438285 0)
(-0.00837833 0.00347991 0)
(-0.00884222 0.00248465 0)
(-0.00943677 0.00174616 0)
(-0.00962378 0.000495111 0)
(9.75775e-05 0.0100085 0)
(-0.00197288 0.00929755 0)
(-0.00372053 0.00951002 0)
(-0.00493676 0.00786017 0)
(-0.00651095 0.00750109 0)
(-0.00718549 0.00622044 0)
(-0.00806645 0.00546987 0)
(-0.00851305 0.00438599 0)
(-0.0090036 0.00351058 0)
(-0.00912748 0.00242695 0)
(-0.00981029 0.00159213 0)
(-0.00951797 0.000194184 0)
(-0.00278588 0.0101782 0)
(-0.00356979 0.0135815 0)
(-0.00494331 0.0113778 0)
(-0.00671799 0.0116327 0)
(-0.00714732 0.00942366 0)
(-0.00856389 0.00846266 0)
(-0.00896251 0.00683768 0)
(-0.00981494 0.00561901 0)
(-0.010342 0.0044833 0)
(-0.010774 0.00329803 0)
(-0.011676 0.00263639 0)
(-0.0117897 0.00122833 0)
(0.00197364 0.0159719 0)
(-0.00185843 0.0106124 0)
(-0.00579993 0.0123446 0)
(-0.00694 0.00922214 0)
(-0.00969823 0.00904278 0)
(-0.00976398 0.00738605 0)
(-0.010901 0.00647922 0)
(-0.0108581 0.00526051 0)
(-0.0113138 0.00436153 0)
(-0.010969 0.00324874 0)
(-0.0118706 0.00269111 0)
(-0.0108409 0.00128565 0)
(-0.00132481 0.0104573 0)
(-0.00539238 0.0224788 0)
(-0.00376479 0.0166936 0)
(-0.00935033 0.0168214 0)
(-0.00860691 0.0124234 0)
(-0.0110667 0.0106321 0)
(-0.0110884 0.00812358 0)
(-0.0119687 0.00649487 0)
(-0.0123698 0.00510518 0)
(-0.0124468 0.00382479 0)
(-0.0136113 0.00321055 0)
(-0.0131558 0.00191697 0)
(-0.0301402 0.0230685 0)
(-0.0170543 0.0116423 0)
(-0.0296901 0.015767 0)
(-0.020832 0.0127431 0)
(-0.0227771 0.0102382 0)
(-0.0177125 0.00895905 0)
(-0.0166015 0.00705713 0)
(-0.0138909 0.00585173 0)
(-0.0126396 0.0047785 0)
(-0.0104876 0.00378061 0)
(-0.0105904 0.00360446 0)
(-0.00746813 0.00259789 0)
(0.0334844 0.0555677 0)
(0.0470553 0.0245886 0)
(0.0673577 0.0200712 0)
(0.0828668 0.0120443 0)
(0.0925937 0.00914888 0)
(0.10123 0.00574184 0)
(0.107247 0.00434594 0)
(0.112857 0.00301851 0)
(0.115142 0.00222843 0)
(0.120879 0.00165619 0)
(0.118969 0.000925994 0)
(0.127199 0.000717195 0)
(-0.00228235 0.00128278 0)
(-0.00159286 0.000703211 0)
(-0.00139222 0.000143132 0)
(-0.00107905 -0.000174514 0)
(-0.00086693 -0.000437672 0)
(-0.000609912 -0.00060975 0)
(-0.00036368 -0.000724238 0)
(-0.000112414 -0.000718421 0)
(-0.00250759 0.000270574 0)
(-0.00177997 -4.55681e-05 0)
(-0.00156033 -0.000268273 0)
(-0.00121531 -0.000535333 0)
(-0.000978782 -0.000737307 0)
(-0.000694223 -0.000906585 0)
(-0.000414105 -0.00101464 0)
(-0.000128832 -0.000989984 0)
(-0.0024729 0.000118278 0)
(-0.00213255 -0.000226584 0)
(-0.00188173 -0.000462469 0)
(-0.00154779 -0.000763486 0)
(-0.00123803 -0.000994988 0)
(-0.000889331 -0.00119182 0)
(-0.0005276 -0.0013182 0)
(-0.000166045 -0.00128075 0)
(-0.00268151 -0.000280333 0)
(-0.00235946 -0.000590996 0)
(-0.00209754 -0.000843708 0)
(-0.00174765 -0.00113451 0)
(-0.00140755 -0.00137325 0)
(-0.00102066 -0.00157994 0)
(-0.000607561 -0.00171507 0)
(-0.000192745 -0.00165459 0)
(-0.00291903 -0.000445433 0)
(-0.00269567 -0.000815809 0)
(-0.00242547 -0.00113106 0)
(-0.00207709 -0.0014802 0)
(-0.00168349 -0.00177189 0)
(-0.00123507 -0.00202599 0)
(-0.000737272 -0.00219132 0)
(-0.000236605 -0.00211524 0)
(-0.00326997 -0.000616862 0)
(-0.00304481 -0.00102866 0)
(-0.00276216 -0.00141716 0)
(-0.00238854 -0.00182125 0)
(-0.0019537 -0.00215875 0)
(-0.00144551 -0.00247168 0)
(-0.000867265 -0.00266317 0)
(-0.000281824 -0.00257308 0)
(-0.00369114 -0.000859294 0)
(-0.00349559 -0.00136887 0)
(-0.00321771 -0.00185576 0)
(-0.00281844 -0.00236471 0)
(-0.00233368 -0.00278859 0)
(-0.00174605 -0.00319593 0)
(-0.00105 -0.00343973 0)
(-0.000351197 -0.00333975 0)
(-0.00424166 -0.000836686 0)
(-0.00404188 -0.00144241 0)
(-0.00375836 -0.00198285 0)
(-0.00332239 -0.00263721 0)
(-0.0027854 -0.00309382 0)
(-0.00210617 -0.00367077 0)
(-0.00127564 -0.00393042 0)
(-0.00043765 -0.00386985 0)
(-0.00483464 -0.00121146 0)
(-0.00464124 -0.00197071 0)
(-0.00441047 -0.00266426 0)
(-0.00392932 -0.00350419 0)
(-0.00336524 -0.00411384 0)
(-0.00259358 -0.00488611 0)
(-0.00156756 -0.00524781 0)
(-0.000598068 -0.00521188 0)
(-0.00568095 -0.000891463 0)
(-0.00549769 -0.00181802 0)
(-0.00529177 -0.00245453 0)
(-0.00477675 -0.00360563 0)
(-0.00416675 -0.00414639 0)
(-0.00325939 -0.0053445 0)
(-0.00200695 -0.00566331 0)
(-0.000793169 -0.00584968 0)
(-0.00642479 -0.00144274 0)
(-0.0062041 -0.00258769 0)
(-0.00618911 -0.00348643 0)
(-0.00562328 -0.00494184 0)
(-0.00509266 -0.00578643 0)
(-0.00413218 -0.00738961 0)
(-0.00254972 -0.00794208 0)
(-0.001243 -0.00830851 0)
(-0.0076937 -0.000642406 0)
(-0.00755177 -0.0020438 0)
(-0.00764277 -0.00260572 0)
(-0.00709478 -0.00463308 0)
(-0.00660489 -0.00511827 0)
(-0.00546636 -0.00771857 0)
(-0.0035584 -0.00805877 0)
(-0.00178073 -0.00933097 0)
(-0.00848015 -0.00135145 0)
(-0.00816808 -0.00302497 0)
(-0.00874592 -0.00402497 0)
(-0.00814716 -0.00652256 0)
(-0.00811971 -0.00759995 0)
(-0.00713784 -0.0110615 0)
(-0.00488184 -0.0119679 0)
(-0.00324406 -0.0141888 0)
(-0.0103215 8.3216e-05 0)
(-0.0102544 -0.00185749 0)
(-0.011133 -0.00194737 0)
(-0.0107274 -0.00524224 0)
(-0.0110901 -0.00524575 0)
(-0.0100193 -0.0107611 0)
(-0.00766786 -0.01103 0)
(-0.00522699 -0.0169512 0)
(-0.0108045 -0.000547979 0)
(-0.0101915 -0.00281204 0)
(-0.0120357 -0.00350635 0)
(-0.0114636 -0.00746138 0)
(-0.0133696 -0.00841753 0)
(-0.0131815 -0.0156199 0)
(-0.0118233 -0.01716 0)
(-0.0107963 -0.0281254 0)
(-0.013345 0.00129931 0)
(-0.0132833 -0.000878622 0)
(-0.0158153 0.000250549 0)
(-0.0157871 -0.00405222 0)
(-0.0191222 -0.00216577 0)
(-0.0193022 -0.0122058 0)
(-0.0200136 -0.0116159 0)
(-0.0177485 -0.0386668 0)
(-0.0128851 0.00128455 0)
(-0.0111671 -0.00118573 0)
(-0.0150258 -0.000492185 0)
(-0.0136383 -0.00553828 0)
(-0.020422 -0.00451244 0)
(-0.021815 -0.0168237 0)
(-0.0288655 -0.0187355 0)
(-0.0213662 -0.0684499 0)
(-0.0157856 0.00250287 0)
(-0.015036 0.000678916 0)
(-0.0202998 0.00380705 0)
(-0.0195342 0.000750627 0)
(-0.0293513 0.00780246 0)
(-0.0244437 -0.00437156 0)
(-0.036522 -0.0089004 0)
(0.000838109 -0.0871775 0)
(-0.00973784 0.00361624 0)
(-0.00376564 0.00220763 0)
(-0.00933124 0.00472139 0)
(0.00324146 0.00165723 0)
(-0.00762362 0.00167441 0)
(0.0185851 -0.0132907 0)
(-0.00436824 -0.0434767 0)
(0.0348907 -0.110298 0)
(0.119949 -0.000298891 0)
(0.132998 -0.000187001 0)
(0.119013 -0.00215238 0)
(0.13846 -0.00132203 0)
(0.115973 -0.00610791 0)
(0.136549 -0.00742726 0)
(0.0914492 -0.0199593 0)
(0.0764003 -0.0505251 0)
(-1.58718e-05 -1.46892e-05 0)
(-4.79251e-05 -1.66615e-05 0)
(-7.15964e-05 -1.87986e-05 0)
(-8.24231e-05 -2.1707e-05 0)
(-8.04232e-05 -2.33811e-05 0)
(-6.62284e-05 -2.49817e-05 0)
(-4.23393e-05 -2.58641e-05 0)
(-1.36541e-05 -2.46541e-05 0)
(-1.85802e-05 7.95165e-05 0)
(-5.52886e-05 7.42041e-05 0)
(-8.23202e-05 5.38006e-05 0)
(-9.35438e-05 3.13469e-05 0)
(-9.00747e-05 7.29299e-06 0)
(-7.40119e-05 -1.21109e-05 0)
(-4.7125e-05 -2.65105e-05 0)
(-1.52534e-05 -3.03654e-05 0)
(-2.83921e-05 5.51323e-05 0)
(-8.35762e-05 4.42691e-05 0)
(-0.000120414 1.65813e-05 0)
(-0.000135616 -1.48812e-05 0)
(-0.000130394 -4.48968e-05 0)
(-0.000105482 -6.98636e-05 0)
(-6.69444e-05 -8.76635e-05 0)
(-2.14701e-05 -8.92136e-05 0)
(-3.45029e-05 0.000198148 0)
(-9.91103e-05 0.00017368 0)
(-0.00014179 0.000109559 0)
(-0.000155229 4.43434e-05 0)
(-0.000145267 -2.07932e-05 0)
(-0.000117132 -7.10633e-05 0)
(-7.36309e-05 -0.000107149 0)
(-2.37036e-05 -0.000114255 0)
(-6.81129e-05 0.000177532 0)
(-0.000187799 0.000142972 0)
(-0.00025013 6.53165e-05 0)
(-0.000265932 -1.38527e-05 0)
(-0.000245747 -8.80932e-05 0)
(-0.000192038 -0.000146872 0)
(-0.000119778 -0.00018834 0)
(-3.79859e-05 -0.000192389 0)
(-8.38457e-05 0.000470612 0)
(-0.00022653 0.000371895 0)
(-0.00029913 0.000194669 0)
(-0.000308748 4.58498e-05 0)
(-0.000278427 -9.05948e-05 0)
(-0.000217896 -0.000187216 0)
(-0.000134802 -0.000254286 0)
(-4.2948e-05 -0.000263091 0)
(-0.00020435 0.000463887 0)
(-0.000501562 0.00033949 0)
(-0.000576942 0.000133236 0)
(-0.000550889 -3.62835e-05 0)
(-0.000478555 -0.000189704 0)
(-0.00035609 -0.000299973 0)
(-0.000217244 -0.000376127 0)
(-6.78836e-05 -0.000380221 0)
(-0.000275092 0.00121647 0)
(-0.000597371 0.000775507 0)
(-0.000677181 0.000252229 0)
(-0.000632149 -4.1605e-05 0)
(-0.000542584 -0.000278616 0)
(-0.000405458 -0.000430899 0)
(-0.000246319 -0.000531774 0)
(-7.73499e-05 -0.000533953 0)
)
;

boundaryField
{
    movingWall
    {
        type            fixedValue;
        value           uniform (1 0 0);
    }
    fixedWalls
    {
        type            noSlip;
    }
    frontAndBack
    {
        type            empty;
    }
}


// ************************************************************************* //
