/*--------------------------------*- C++ -*----------------------------------*\
  =========                 |
  \\      /  F ield         | OpenFOAM: The Open Source CFD Toolbox
   \\    /   O peration     | Website:  https://openfoam.org
    \\  /    A nd           | Version:  8
     \\/     M anipulation  |
\*---------------------------------------------------------------------------*/
FoamFile
{
    version     2.0;
    format      ascii;
    class       volScalarField;
    location    "66";
    object      p;
}
// * * * * * * * * * * * * * * * * * * * * * * * * * * * * * * * * * * * * * //

dimensions      [0 2 -2 0 0 0 0];

internalField   nonuniform List<scalar> 
12504
(
-0.0279759
-0.0308029
-0.0367327
-0.0457343
-0.057484
-0.0715562
-0.0874717
-0.104683
-0.122578
-0.140508
-0.157829
-0.173936
-0.188294
-0.200455
-0.210068
-0.216875
-0.220707
-0.221476
-0.219167
-0.213849
-0.205659
-0.1948
-0.18154
-0.1662
-0.149152
-0.130795
-0.111554
-0.0918547
-0.0721347
-0.0528094
-0.0342924
-0.016962
-0.00118551
0.0127352
0.0245438
0.0340779
0.0412675
0.0461356
0.0488515
0.0495891
0.0487372
0.0464587
0.0432898
0.0391228
0.034648
0.0292246
0.0239138
0.0172512
0.0111467
0.0029509
-0.0259396
-0.02884
-0.0349295
-0.0441722
-0.0562308
-0.0706651
-0.0869786
-0.104604
-0.122906
-0.141217
-0.158876
-0.175266
-0.18985
-0.202179
-0.21191
-0.218791
-0.222659
-0.223429
-0.221081
-0.215689
-0.207387
-0.196376
-0.182925
-0.16736
-0.150057
-0.131423
-0.111891
-0.0918997
-0.0718952
-0.0523027
-0.0335465
-0.0160125
-7.51258e-05
0.0139588
0.0258292
0.0353743
0.0425258
0.0473132
0.0499148
0.0505138
0.0495163
0.0470922
0.0437953
0.0395137
0.0349636
0.0294654
0.0241236
0.0173911
0.011272
0.00295537
-0.0218061
-0.024861
-0.0312757
-0.0410081
-0.0536968
-0.0688703
-0.0859962
-0.104465
-0.123598
-0.142684
-0.161027
-0.177988
-0.193021
-0.205686
-0.215649
-0.222677
-0.226614
-0.227382
-0.224958
-0.219416
-0.210887
-0.199568
-0.185731
-0.169708
-0.151885
-0.132686
-0.112565
-0.0919789
-0.0713965
-0.0512625
-0.032022
-0.0140768
0.0021836
0.0164421
0.0284316
0.0379907
0.0450562
0.0496696
0.052029
0.0523387
0.0510356
0.0483123
0.0447521
0.0402458
0.0355358
0.0299058
0.0244912
0.0176584
0.0114816
0.00299029
-0.0154666
-0.0187611
-0.0256777
-0.0361665
-0.0498304
-0.0661495
-0.0845351
-0.104312
-0.12473
-0.145009
-0.164398
-0.182225
-0.197932
-0.211091
-0.221394
-0.228632
-0.232668
-0.23343
-0.230887
-0.225118
-0.216243
-0.204454
-0.190023
-0.173293
-0.15467
-0.134602
-0.11357
-0.0920678
-0.0705969
-0.0496343
-0.0296529
-0.0110814
0.00566592
0.0202561
0.0324114
0.0419711
0.0488803
0.0532
0.05516
0.0550003
0.0532064
0.0500063
0.0460368
0.0411899
0.0362454
0.030434
0.0249336
0.0179818
0.011746
0.00303114
-0.00674781
-0.0103751
-0.0179881
-0.0295284
-0.0445505
-0.0624684
-0.0826139
-0.104217
-0.126425
-0.148357
-0.169182
-0.188177
-0.204777
-0.218579
-0.229315
-0.236817
-0.240974
-0.241725
-0.239016
-0.23294
-0.223593
-0.211159
-0.19591
-0.178203
-0.15847
-0.137193
-0.1149
-0.0921267
-0.0694275
-0.0473264
-0.0263298
-0.00690552
0.0104949
0.025516
0.0378656
0.0473842
0.0540291
0.0578909
0.0592456
0.0583862
0.055874
0.0519814
0.047429
0.0421239
0.0368852
0.0308677
0.0253043
0.0182535
0.0120051
0.00305121
0.00459069
0.000525548
-0.00800301
-0.0209291
-0.0377465
-0.0577835
-0.0802667
-0.104297
-0.128874
-0.152978
-0.175661
-0.196139
-0.213842
-0.228414
-0.239654
-0.247456
-0.251746
-0.25248
-0.249556
-0.243091
-0.23314
-0.219867
-0.203549
-0.184559
-0.163364
-0.140495
-0.116539
-0.0920957
-0.0677846
-0.0441961
-0.0218847
-0.00136865
0.0168514
0.0323886
0.0449315
0.054322
0.0605345
0.0637031
0.0641707
0.0623049
0.058777
0.0539252
0.0485766
0.0426963
0.0371288
0.0309228
0.0253745
0.0183079
0.0121624
0.00301399
0.0188647
0.0142412
0.00454592
-0.0101522
-0.0292744
-0.0520438
-0.0775517
-0.104722
-0.132356
-0.159232
-0.184244
-0.206526
-0.22552
-0.240953
-0.252736
-0.260851
-0.265265
-0.265888
-0.262795
-0.255864
-0.245163
-0.230838
-0.213163
-0.192534
-0.169465
-0.144553
-0.118464
-0.0918866
-0.0655224
-0.0400384
-0.0160741
0.0057872
0.0249902
0.041106
0.0537945
0.0628984
0.0684187
0.0705501
0.0697328
0.0664431
0.0614932
0.055337
0.0489275
0.0423798
0.0364839
0.0301696
0.0248005
0.0178966
0.0120733
0.0028668
0.0364764
0.0311541
0.0200022
0.00307887
-0.0189524
-0.0451934
-0.0745646
-0.105753
-0.137281
-0.167645
-0.195512
-0.219917
-0.240346
-0.256674
-0.26899
-0.277406
-0.281954
-0.282565
-0.27917
-0.271669
-0.260055
-0.244431
-0.225059
-0.202366
-0.176924
-0.149424
-0.120637
-0.0913651
-0.0624241
-0.0345771
-0.00857445
0.0149149
0.0352629
0.0519834
0.064698
0.0732495
0.0776785
0.0782666
0.0755937
0.0702993
0.0633872
0.0554555
0.0476033
0.0403751
0.0342141
0.0279693
0.0230734
0.0166564
0.0115266
0.00253516
0.0579271
0.0517422
0.0387977
0.0191119
-0.00655412
-0.037176
-0.0714594
-0.107773
-0.144252
-0.17898
-0.210296
-0.237116
-0.259038
-0.276198
-0.288963
-0.297632
-0.302305
-0.302891
-0.299196
-0.29105
-0.278353
-0.261143
-0.239665
-0.214381
-0.185948
-0.15518
-0.122994
-0.090341
-0.0581825
-0.0274277
0.00106036
0.0264983
0.0481481
0.0654416
0.0779555
0.085531
0.088269
0.0865755
0.0812315
0.0731171
0.0635313
0.0532499
0.0433366
0.0355378
0.0292457
0.0233972
0.0194601
0.0140677
0.0102203
0.00191709
0.0838333
0.0765947
0.0614706
0.0383808
0.00820007
-0.0279444
-0.0684818
-0.111354
-0.15416
-0.194357
-0.229796
-0.259255
-0.282569
-0.300333
-0.313353
-0.322182
-0.326972
-0.327562
-0.323604
-0.314766
-0.300805
-0.281671
-0.257578
-0.229036
-0.196821
-0.161919
-0.125445
-0.0885551
-0.052392
-0.018047
0.0134592
0.0411909
0.0642733
0.0820215
0.0939602
0.0999256
0.100114
0.0951024
0.085954
0.0738952
0.060666
0.0474853
0.0362846
0.0264983
0.0201133
0.0151674
0.0129365
0.0094083
0.00773287
0.000877927
0.114943
0.106433
0.0886877
0.0614272
0.0256587
-0.0174773
-0.0660315
-0.11738
-0.168341
-0.215414
-0.255734
-0.287922
-0.312263
-0.33014
-0.343049
-0.351884
-0.356803
-0.357503
-0.353402
-0.343876
-0.32847
-0.307002
-0.279646
-0.246976
-0.209945
-0.169784
-0.127882
-0.0856679
-0.0445247
-0.00574771
0.0293941
0.0597909
0.084394
0.102368
0.113186
0.116686
0.113215
0.103563
0.089162
0.0716816
0.0534245
0.0361342
0.0222858
0.0109886
0.00491473
0.00162882
0.00217046
0.00172989
0.00350281
-0.000749911
0.152151
0.142131
0.121272
0.0889353
0.0462685
-0.00579151
-0.0647469
-0.127271
-0.188914
-0.244639
-0.290581
-0.325279
-0.349849
-0.36697
-0.37918
-0.387798
-0.392905
-0.393942
-0.389951
-0.379834
-0.362816
-0.338526
-0.307075
-0.269136
-0.225923
-0.179029
-0.130228
-0.0813139
-0.0339851
0.0102006
0.0496791
0.0831414
0.109288
0.127139
0.136167
0.136242
0.127933
0.112255
0.0910571
0.0664799
0.0414836
0.0184521
0.000298616
-0.0125474
-0.0180971
-0.0189322
-0.014335
-0.0100847
-0.0031602
-0.00315688
0.196511
0.184745
0.160233
0.121783
0.0706154
0.00706045
-0.0655782
-0.143261
-0.21937
-0.286073
-0.33808
-0.374243
-0.397394
-0.412332
-0.423003
-0.43113
-0.436623
-0.438486
-0.435066
-0.424587
-0.405839
-0.378156
-0.341548
-0.296854
-0.24568
-0.190149
-0.132582
-0.0752802
-0.0203777
0.0302584
0.0747592
0.111746
0.139342
0.156628
0.163236
0.159141
0.145179
0.122518
0.0933644
0.0602418
0.0267846
-0.00378942
-0.0277705
-0.0436269
-0.0493951
-0.0475538
-0.0378014
-0.0270963
-0.0129848
-0.00652848
0.24923
0.235533
0.206791
0.161115
0.0994449
0.0209686
-0.069938
-0.168689
-0.265163
-0.346396
-0.404392
-0.439114
-0.457289
-0.467502
-0.47539
-0.482686
-0.488931
-0.492573
-0.490652
-0.480415
-0.460032
-0.428376
-0.385327
-0.332013
-0.270651
-0.204137
-0.13557
-0.0679208
-0.00390551
0.0541226
0.103916
0.144774
0.173558
0.189768
0.193512
0.185024
0.165386
0.135774
0.0985616
0.0563651
0.0133899
-0.0263283
-0.0579992
-0.0791508
-0.0869837
-0.0834336
-0.0683312
-0.0498196
-0.0265085
-0.0109949
0.311651
0.295972
0.262439
0.208443
0.133635
0.0356186
-0.080395
-0.209163
-0.334113
-0.43519
-0.498732
-0.526072
-0.532122
-0.532799
-0.535745
-0.541655
-0.549181
-0.556024
-0.557038
-0.548426
-0.527247
-0.491517
-0.440908
-0.377002
-0.302969
-0.222863
-0.140899
-0.0609506
0.0135915
0.079867
0.136193
0.178764
0.207907
0.222441
0.223016
0.210355
0.185798
0.150419
0.106498
0.0562845
0.00427944
-0.0450461
-0.0857791
-0.114499
-0.126617
-0.123468
-0.104177
-0.0776016
-0.0437056
-0.0165602
0.385209
0.367733
0.329087
0.265866
0.174329
0.0502486
-0.102177
-0.276717
-0.438257
-0.562844
-0.628878
-0.639102
-0.622012
-0.605403
-0.599411
-0.602881
-0.612034
-0.624018
-0.630066
-0.625648
-0.605868
-0.56733
-0.509284
-0.433812
-0.34532
-0.249503
-0.15221
-0.0586133
0.0270371
0.101256
0.161498
0.206054
0.233886
0.245839
0.242926
0.226746
0.198959
0.160321
0.112574
0.0571148
-0.0016544
-0.0593211
-0.108879
-0.145804
-0.164034
-0.163602
-0.142177
-0.108514
-0.0637406
-0.0230413
0.471312
0.452587
0.409343
0.336548
0.223884
0.0639099
-0.14426
-0.392497
-0.602569
-0.739643
-0.790875
-0.767765
-0.715924
-0.673871
-0.653366
-0.652098
-0.664945
-0.681372
-0.695563
-0.699494
-0.685367
-0.647954
-0.585596
-0.500568
-0.398585
-0.28735
-0.174802
-0.0679254
0.0277312
0.108148
0.170678
0.214236
0.239424
0.247565
0.241722
0.223958
0.195846
0.157604
0.110119
0.0535992
-0.00814835
-0.0712879
-0.127786
-0.172238
-0.196918
-0.200655
-0.179058
-0.139992
-0.0851439
-0.0300893
0.570977
0.552148
0.506657
0.425446
0.288418
0.0788169
-0.221115
-0.571561
-0.777455
-0.910052
-0.927068
-0.862642
-0.777311
-0.713746
-0.68109
-0.675064
-0.690022
-0.714722
-0.737949
-0.752444
-0.748093
-0.717426
-0.657043
-0.568578
-0.458506
-0.336409
-0.212524
-0.0958075
0.00648822
0.0896381
0.151257
0.191439
0.21279
0.218305
0.211567
0.19508
0.170146
0.136473
0.0939455
0.0414345
-0.0184574
-0.0830584
-0.14358
-0.193989
-0.224739
-0.232724
-0.21227
-0.169572
-0.10622
-0.0372534
0.684093
0.667367
0.624692
0.539443
0.381005
0.108221
-0.247748
-0.671156
-0.992782
-1.09969
-1.07655
-0.935088
-0.805665
-0.728574
-0.680421
-0.672902
-0.690149
-0.719308
-0.752369
-0.777076
-0.783501
-0.763107
-0.710642
-0.62638
-0.516601
-0.391882
-0.264168
-0.144094
-0.0411643
0.0398974
0.0976165
0.13328
0.151495
0.156002
0.151078
0.139274
0.12123
0.0960474
0.0626743
0.0189202
-0.0342332
-0.0957646
-0.156801
-0.210909
-0.246191
-0.258477
-0.239987
-0.195227
-0.125367
-0.0440338
0.80849
0.797665
0.765109
0.686954
0.520251
0.217187
-0.242555
-0.726409
-1.08712
-0.818711
-0.729508
-0.682946
-0.668511
-0.685042
-0.714551
-0.749362
-0.779085
-0.792923
-0.782059
-0.739877
-0.665258
-0.563576
-0.445423
-0.323531
-0.208177
-0.112056
-0.0383363
0.0126021
0.042428
0.0595068
0.0651818
0.0660532
0.0630626
0.0554966
0.0416755
0.0199873
-0.0120682
-0.0549665
-0.1094
-0.16744
-0.222704
-0.261031
-0.276991
-0.260873
-0.215393
-0.141231
-0.0499215
0.939347
0.939307
0.92503
0.876232
0.714386
0.379263
-0.134683
-0.724192
-0.681264
-0.662438
-0.672115
-0.697875
-0.730368
-0.760862
-0.777396
-0.773314
-0.741217
-0.679133
-0.591408
-0.488004
-0.382175
-0.278013
-0.197487
-0.137148
-0.0968961
-0.0717471
-0.0518413
-0.0430475
-0.0319423
-0.0220415
-0.0162024
-0.0170736
-0.0264266
-0.0462179
-0.0775885
-0.122453
-0.174747
-0.228671
-0.26843
-0.287351
-0.273835
-0.228872
-0.152731
-0.0544417
1.06919
1.08322
1.09951
1.09593
0.962862
0.633396
-0.680944
-0.649424
-0.648427
-0.668852
-0.695909
-0.721928
-0.738983
-0.738852
-0.715466
-0.666929
-0.596816
-0.513751
-0.428739
-0.350491
-0.289795
-0.247174
-0.219321
-0.19988
-0.184495
-0.158415
-0.132019
-0.106019
-0.0846177
-0.0715702
-0.0687796
-0.077206
-0.0976256
-0.132285
-0.177281
-0.227797
-0.267526
-0.288686
-0.277989
-0.234771
-0.159042
-0.0571908
1.18655
1.21705
1.26906
1.32186
1.23941
0.980695
-0.625163
-0.614268
-0.628957
-0.649531
-0.669193
-0.683991
-0.685279
-0.668892
-0.633751
-0.583162
-0.524402
-0.466502
-0.417173
-0.38181
-0.359116
-0.343358
-0.326919
-0.304082
-0.269114
-0.227187
-0.183756
-0.145424
-0.117515
-0.102495
-0.100494
-0.111189
-0.136244
-0.173502
-0.219197
-0.257734
-0.28046
-0.272761
-0.232534
-0.159623
-0.05787
1.27899
1.32416
1.41029
1.51934
1.50872
1.3719
-0.601073
-0.572176
-0.582543
-0.597107
-0.610992
-0.62089
-0.621733
-0.610921
-0.588533
-0.557922
-0.525095
-0.496703
-0.477473
-0.468369
-0.46502
-0.460037
-0.445595
-0.416669
-0.371012
-0.313667
-0.252741
-0.197139
-0.153858
-0.126303
-0.114303
-0.116276
-0.132723
-0.162467
-0.202579
-0.239045
-0.262651
-0.258096
-0.222049
-0.154269
-0.0563191
1.33498
1.38921
1.49691
1.64095
1.70883
-0.544041
-0.528651
-0.535603
-0.544347
-0.552243
-0.557104
-0.556792
-0.550712
-0.540272
-0.528956
-0.521403
-0.521511
-0.530345
-0.544888
-0.558167
-0.562144
-0.54917
-0.514618
-0.458471
-0.386653
-0.309418
-0.237755
-0.180009
-0.140381
-0.118825
-0.112821
-0.121583
-0.144268
-0.178502
-0.21222
-0.23599
-0.234649
-0.203768
-0.143192
-0.0525511
1.34759
1.40269
1.51249
1.66069
1.77153
-0.489975
-0.488938
-0.492833
-0.496173
-0.498149
-0.498349
-0.496929
-0.495194
-0.495721
-0.501937
-0.516908
-0.541672
-0.573804
-0.607008
-0.632994
-0.642974
-0.630472
-0.590982
-0.525337
-0.44078
-0.349593
-0.264619
-0.195038
-0.145225
-0.115237
-0.102106
-0.104004
-0.120103
-0.148421
-0.178828
-0.202011
-0.203384
-0.178778
-0.127079
-0.0467789
1.31617
1.36375
1.45579
1.57603
1.68537
-0.455627
-0.456436
-0.456623
-0.454663
-0.451313
-0.447694
-0.445727
-0.448192
-0.458393
-0.479367
-0.512514
-0.556091
-0.605361
-0.651247
-0.685199
-0.698907
-0.685397
-0.641177
-0.567469
-0.472716
-0.370915
-0.276381
-0.198689
-0.141744
-0.105279
-0.0861964
-0.0820591
-0.0920224
-0.11452
-0.141173
-0.163179
-0.167355
-0.148986
-0.107107
-0.0394109
1.24677
1.28081
1.34153
1.4104
1.47517
1.42336
-0.43343
-0.430923
-0.426585
-0.419639
-0.411932
-0.40569
-0.404009
-0.41054
-0.42878
-0.461009
-0.507243
-0.563449
-0.622737
-0.675751
-0.713467
-0.727806
-0.712464
-0.663791
-0.583678
-0.481794
-0.373414
-0.273631
-0.191938
-0.131392
-0.090968
-0.0674478
-0.0582019
-0.0624944
-0.079329
-0.101921
-0.122205
-0.128676
-0.116443
-0.0847239
-0.0309911
1.15006
1.16829
1.19457
1.20916
1.2238
1.0804
-0.419622
-0.410147
-0.400829
-0.389492
-0.378706
-0.371237
-0.370731
-0.381112
-0.405599
-0.445572
-0.499586
-0.562431
-0.626113
-0.681302
-0.718912
-0.731713
-0.713249
-0.660132
-0.575155
-0.46934
-0.35878
-0.258365
-0.176772
-0.116043
-0.0742933
-0.0480638
-0.0347709
-0.0339369
-0.0453088
-0.0636524
-0.0817832
-0.0899143
-0.0833069
-0.0614796
-0.0221148
1.03806
1.04226
1.03814
1.00716
0.976687
0.683791
0.359345
-0.418504
-0.410994
-0.392258
-0.377882
-0.362767
-0.350292
-0.342905
-0.344388
-0.358345
-0.387325
-0.431788
-0.489215
-0.553804
-0.617323
-0.670956
-0.705404
-0.714184
-0.691015
-0.633157
-0.544802
-0.438371
-0.3301
-0.233587
-0.155855
-0.0978297
-0.0570318
-0.0297947
-0.013619
-0.00834136
-0.0145295
-0.0285419
-0.0441993
-0.0533129
-0.0515501
-0.0388356
-0.0133563
0.922097
0.915229
0.891858
0.829584
0.687551
0.479284
0.00724497
-0.384081
-0.461376
-0.426199
-0.397071
-0.376924
-0.357467
-0.339932
-0.326616
-0.320267
-0.324198
-0.34133
-0.373302
-0.419631
-0.477096
-0.539771
-0.599515
-0.647578
-0.676659
-0.678914
-0.649214
-0.58639
-0.496606
-0.393252
-0.291593
-0.202915
-0.132044
-0.0788197
-0.0406015
-0.0137851
0.00409157
0.0129652
0.0115334
0.00181369
-0.0111619
-0.0206223
-0.0228048
-0.0180499
-0.00521361
0.809812
0.796534
0.761691
0.689508
0.550792
0.305725
-0.0224896
-0.498296
-0.743102
-0.662273
-0.533344
-0.469095
-0.417913
-0.389714
-0.364121
-0.341304
-0.322319
-0.309124
-0.304369
-0.310783
-0.330422
-0.363931
-0.409946
-0.464755
-0.522568
-0.575451
-0.615472
-0.635213
-0.62818
-0.590584
-0.523642
-0.435478
-0.33932
-0.248085
-0.170068
-0.107927
-0.0606926
-0.0259629
-0.00057317
0.0179077
0.029388
0.0320817
0.0264604
0.0162395
0.00695263
0.00171499
-0.00010691
0.00190571
0.706363
0.690385
0.651349
0.580427
0.458569
0.268793
-0.00603209
-0.328959
-0.614519
-0.752823
-0.72168
-0.614748
-0.501019
-0.445176
-0.411507
-0.383782
-0.356288
-0.331447
-0.311901
-0.299625
-0.296704
-0.305114
-0.326043
-0.359238
-0.402543
-0.451616
-0.501582
-0.544212
-0.57268
-0.580466
-0.562664
-0.517875
-0.449839
-0.367569
-0.282565
-0.204386
-0.138344
-0.0855098
-0.0445836
-0.0136413
0.00975909
0.0279328
0.0409692
0.0469497
0.0450602
0.0375386
0.0287964
0.0212976
0.0143541
0.00771959
0.614304
0.597879
0.559785
0.495
0.393653
0.248103
0.0571426
-0.171339
-0.363917
-0.486973
-0.5288
-0.501947
-0.450843
-0.410113
-0.383427
-0.361394
-0.339185
-0.318796
-0.303157
-0.294264
-0.293983
-0.303823
-0.324359
-0.354862
-0.392656
-0.433638
-0.471306
-0.500983
-0.516023
-0.511324
-0.484404
-0.436301
-0.372151
-0.300129
-0.228839
-0.164475
-0.110099
-0.0660125
-0.0310495
-0.00379518
0.0174043
0.0346058
0.0481999
0.0564785
0.0577788
0.0528217
0.0448925
0.0358015
0.0251076
0.0121105
0.534124
0.518493
0.483873
0.426887
0.34379
0.230366
0.0901906
-0.0706949
-0.219238
-0.332045
-0.388994
-0.393825
-0.374207
-0.354655
-0.340893
-0.328606
-0.314923
-0.301538
-0.291365
-0.286511
-0.288555
-0.29854
-0.31652
-0.3417
-0.371025
-0.400894
-0.426413
-0.442906
-0.445696
-0.431832
-0.400839
-0.355049
-0.299367
-0.239935
-0.182457
-0.130686
-0.0864441
-0.04987
-0.0201655
0.00368923
0.022693
0.038516
0.0518284
0.0613738
0.0651526
0.0625598
0.0556405
0.0456129
0.03235
0.0151431
0.465156
0.450951
0.420545
0.371413
0.30298
0.212937
0.105868
-0.0131277
-0.128278
-0.220343
-0.276546
-0.298615
-0.300865
-0.297494
-0.294078
-0.289927
-0.283949
-0.277355
-0.272457
-0.271132
-0.274659
-0.283592
-0.297685
-0.316077
-0.336735
-0.356078
-0.370462
-0.376468
-0.371265
-0.353447
-0.323535
-0.283888
-0.238246
-0.190729
-0.145008
-0.103473
-0.0673943
-0.036952
-0.0117134
0.00908843
0.0260076
0.0402776
0.0527021
0.0625697
0.0679955
0.0674675
0.0618324
0.0514695
0.036601
0.017039
0.406276
0.393751
0.367443
0.325558
0.26877
0.196312
0.112092
0.0205361
-0.0687075
-0.143276
-0.195614
-0.225818
-0.240337
-0.247065
-0.250703
-0.252356
-0.252014
-0.250562
-0.249605
-0.250605
-0.254513
-0.261618
-0.271946
-0.284421
-0.297377
-0.308139
-0.314343
-0.313753
-0.304696
-0.286591
-0.260166
-0.227239
-0.190409
-0.152422
-0.115775
-0.0821084
-0.0524103
-0.0268769
-0.00535696
0.0127511
0.0277381
0.0404507
0.0516384
0.0610791
0.0673036
0.0683555
0.064176
0.0541377
0.0384944
0.0180869
0.356272
0.34543
0.32282
0.287321
0.239925
0.18094
0.113355
0.0410131
-0.0297871
-0.0915786
-0.139328
-0.172006
-0.192381
-0.204985
-0.213384
-0.219135
-0.222729
-0.224854
-0.226597
-0.229042
-0.232866
-0.238312
-0.245412
-0.253255
-0.26034
-0.265123
-0.266109
-0.261842
-0.251333
-0.234342
-0.211491
-0.184111
-0.154052
-0.123206
-0.093338
-0.0656116
-0.0408384
-0.0191977
-0.000733452
0.0150373
0.0282571
0.0395062
0.0493377
0.0578542
0.0641201
0.0661229
0.0633523
0.0542147
0.0385834
0.0185059
0.313975
0.30468
0.28531
0.255263
0.215517
0.166936
0.111801
0.0532478
-0.00450342
-0.056655
-0.0995453
-0.131839
-0.154682
-0.170684
-0.182301
-0.190944
-0.19726
-0.201828
-0.205419
-0.208814
-0.212516
-0.216747
-0.221393
-0.225781
-0.228974
-0.230009
-0.227865
-0.221601
-0.210638
-0.194916
-0.174972
-0.151803
-0.126747
-0.101137
-0.0762675
-0.0529951
-0.0320109
-0.013456
0.00250673
0.0162764
0.0278969
0.0378151
0.0463458
0.0537124
0.0594569
0.0617532
0.0600693
0.0521429
0.0372577
0.0183323
0.278317
0.270371
0.253789
0.2283
0.194786
0.154293
0.108611
0.0601932
0.012045
-0.0325255
-0.0708229
-0.101596
-0.125206
-0.143077
-0.156778
-0.167405
-0.175592
-0.181844
-0.18673
-0.190809
-0.194457
-0.197839
-0.200805
-0.202965
-0.203743
-0.202445
-0.198387
-0.191003
-0.179992
-0.165408
-0.147712
-0.127661
-0.106253
-0.0844691
-0.0633012
-0.0433945
-0.0253441
-0.00924716
0.00466662
0.0167436
0.0269423
0.0356684
0.0430304
0.049254
0.0541855
0.0562807
0.0551671
0.048425
0.0347984
0.017459
0.248355
0.241554
0.227332
0.205604
0.177149
0.142996
0.104588
0.0638378
0.0229909
-0.0155703
-0.0498499
-0.0787537
-0.102224
-0.120958
-0.1359
-0.147836
-0.157307
-0.164739
-0.170557
-0.175161
-0.178831
-0.181686
-0.183629
-0.18441
-0.183651
-0.180883
-0.175675
-0.167711
-0.156861
-0.143245
-0.127262
-0.109518
-0.0907947
-0.0718457
-0.0534548
-0.0361194
-0.0203563
-0.00622633
0.00600754
0.0166639
0.025621
0.0332972
0.0396349
0.0448682
0.0489027
0.0506107
0.0495692
0.0438179
0.031548
0.0159221
0.223284
0.217434
0.205183
0.186533
0.162169
0.133024
0.100281
0.0654456
0.0302406
-0.00355907
-0.0344347
-0.0614337
-0.0842787
-0.103237
-0.118836
-0.131601
-0.141947
-0.150212
-0.156711
-0.161731
-0.16548
-0.168043
-0.169369
-0.169297
-0.167582
-0.163923
-0.158067
-0.149851
-0.139256
-0.126445
-0.111783
-0.0957771
-0.0790659
-0.0622515
-0.0459712
-0.0306229
-0.0166571
-0.00410924
0.0067461
0.0162161
0.0241063
0.03088
0.0363234
0.0407771
0.0439574
0.0453361
0.0440562
0.039186
0.0280234
0.0141482
0.202428
0.197359
0.18673
0.170583
0.149514
0.124338
0.0960364
0.0658071
0.0350006
0.00498615
-0.023039
-0.0482418
-0.0702418
-0.0890547
-0.104932
-0.11819
-0.129119
-0.137967
-0.144964
-0.150313
-0.154163
-0.156579
-0.157552
-0.156971
-0.154682
-0.150508
-0.144311
-0.136032
-0.125729
-0.113595
-0.0999707
-0.085301
-0.0701229
-0.0549393
-0.0402831
-0.0264854
-0.0139403
-0.00266826
0.00705789
0.0155423
0.0225285
0.0285452
0.0332113
0.0370872
0.0395116
0.0407275
0.039087
0.0351251
0.0247367
0.0126964
0.185228
0.180792
0.171484
0.157353
0.13892
0.116885
0.0920689
0.0654397
0.0380789
0.0110791
-0.0145842
-0.0381779
-0.0592795
-0.0777563
-0.0936757
-0.107197
-0.118498
-0.127747
-0.135104
-0.140711
-0.144671
-0.147018
-0.147809
-0.146938
-0.144322
-0.139865
-0.133513
-0.125282
-0.115277
-0.103713
-0.0909155
-0.077285
-0.0632894
-0.0493648
-0.0359682
-0.0233865
-0.0119668
-0.00172237
0.00708356
0.0147547
0.0209857
0.0263795
0.0303811
0.0338412
0.0356218
0.0368352
0.0348192
0.0318101
0.0219275
0.0117776
0.17123
0.167301
0.15905
0.146525
0.130178
0.110612
0.0885179
0.0646943
0.040028
0.0154174
-0.00831894
-0.0305282
-0.0507748
-0.0688384
-0.0846647
-0.0982972
-0.109822
-0.119341
-0.126955
-0.13276
-0.136831
-0.139214
-0.139876
-0.138839
-0.136043
-0.131447
-0.125053
-0.116925
-0.107203
-0.0961171
-0.0839791
-0.0711609
-0.0580814
-0.0451313
-0.032713
-0.0210834
-0.0105521
-0.00112972
0.00693371
0.0139411
0.0195526
0.0244404
0.0278905
0.0310489
0.0323025
0.0336033
0.0312556
0.0291451
0.0195964
0.0112256
0.16007
0.156537
0.149116
0.137845
0.123122
0.105468
0.0854728
0.0638104
0.0412269
0.0184825
-0.00371581
-0.0247773
-0.044267
-0.0619131
-0.0775813
-0.0912324
-0.102882
-0.112576
-0.12037
-0.126324
-0.130486
-0.132889
-0.133524
-0.132408
-0.129524
-0.124875
-0.118499
-0.110495
-0.101026
-0.0903315
-0.0787145
-0.0665264
-0.0541522
-0.0419509
-0.0302859
-0.0193939
-0.00955537
-0.000780517
0.0066944
0.0131699
0.0182861
0.0227674
0.0257787
0.028707
0.0295563
0.0309516
0.0283629
0.0269727
0.0177005
0.0107978
0.15146
0.148229
0.141439
0.131119
0.117623
0.101409
0.0829902
0.062951
0.0419363
0.0206094
-0.000401859
-0.0205529
-0.0394149
-0.0566864
-0.072181
-0.0858024
-0.0975143
-0.107318
-0.115234
-0.121296
-0.125532
-0.127965
-0.1286
-0.127454
-0.124537
-0.11988
-0.113549
-0.105666
-0.09641
-0.0860246
-0.0748081
-0.0630976
-0.0512544
-0.0396156
-0.0285175
-0.0181827
-0.0088705
-0.000591171
0.00643153
0.0124938
0.0172286
0.0213903
0.0240712
0.0268137
0.0273805
0.0288257
0.02611
0.0251992
0.0162278
0.0103715
0.145183
0.142169
0.135833
0.126197
0.113581
0.0983974
0.0811053
0.0622257
0.0423349
0.0220296
0.00188393
-0.0175903
-0.0359714
-0.0529411
-0.0682809
-0.0818558
-0.0935929
-0.103462
-0.111459
-0.117596
-0.121887
-0.12435
-0.124994
-0.123843
-0.12092
-0.116276
-0.109995
-0.102214
-0.0931225
-0.0829672
-0.0720428
-0.0606765
-0.0492142
-0.0379781
-0.0272863
-0.0173519
-0.00841948
-0.000499622
0.00619424
0.011953
0.016411
0.0203335
0.0227825
0.0253755
0.0257654
0.0272104
0.0244635
0.0238145
0.0151649
0.0099528
0.141083
0.138208
0.132166
0.122973
0.110925
0.0964053
0.0798389
0.0617063
0.0425408
0.0228978
0.00331776
-0.0157084
-0.0337649
-0.0505247
-0.0657504
-0.0792833
-0.0910277
-0.100933
-0.108978
-0.115161
-0.119489
-0.121975
-0.122631
-0.121483
-0.118565
-0.113937
-0.107697
-0.0999887
-0.0910088
-0.0810061
-0.0702726
-0.0591298
-0.0479139
-0.0369378
-0.0265087
-0.0168334
-0.00814749
-0.000461875
0.00601753
0.0115765
0.0158548
0.0196165
0.0219204
0.0244053
0.0246987
0.0261153
0.0233904
0.0228492
0.0144869
0.00959944
0.139061
0.136252
0.130355
0.121379
0.109609
0.0954145
0.0792032
0.0614365
0.0426265
0.023309
0.00400828
-0.0147951
-0.0326884
-0.049341
-0.0645065
-0.0780154
-0.0897606
-0.0996814
-0.107749
-0.113955
-0.118301
-0.120799
-0.121462
-0.120318
-0.117404
-0.112787
-0.106568
-0.0988984
-0.0899749
-0.0800483
-0.0694093
-0.0583764
-0.0472815
-0.0364331
-0.0261326
-0.0165849
-0.00801968
-0.000450399
0.00592485
0.0113822
0.0155765
0.0192507
0.021495
0.0239047
0.0241825
0.0255426
0.0228876
0.0223148
0.0141951
0.00933304
-0.0279767
-0.0307998
-0.0367304
-0.0457338
-0.0574839
-0.071556
-0.0874717
-0.104684
-0.122579
-0.140509
-0.15783
-0.173937
-0.188295
-0.200456
-0.210069
-0.216876
-0.220708
-0.221477
-0.219168
-0.213849
-0.20566
-0.1948
-0.18154
-0.1662
-0.149152
-0.130795
-0.111553
-0.0918543
-0.0721343
-0.0528089
-0.0342917
-0.0169611
-0.00118477
0.0127361
0.0245444
0.0340786
0.0412677
0.0461355
0.0488514
0.049588
0.0487371
0.0464565
0.0432911
0.0391189
0.0346522
0.0292174
0.0239239
0.0172368
0.0111685
0.0029227
-0.0259403
-0.0288368
-0.0349273
-0.0441717
-0.0562307
-0.0706648
-0.0869786
-0.104604
-0.122907
-0.141218
-0.158877
-0.175268
-0.189851
-0.20218
-0.211911
-0.218792
-0.22266
-0.223429
-0.221082
-0.21569
-0.207388
-0.196377
-0.182926
-0.167361
-0.150057
-0.131423
-0.111891
-0.0918993
-0.0718948
-0.0523021
-0.0335458
-0.0160115
-7.43524e-05
0.0139597
0.0258298
0.0353748
0.042526
0.047313
0.0499145
0.0505126
0.0495162
0.04709
0.0437966
0.0395099
0.0349678
0.0294582
0.0241336
0.0173768
0.0112938
0.00292708
-0.0218068
-0.0248577
-0.0312734
-0.0410077
-0.0536966
-0.06887
-0.0859963
-0.104466
-0.123599
-0.142685
-0.161028
-0.17799
-0.193023
-0.205687
-0.21565
-0.222677
-0.226615
-0.227382
-0.224959
-0.219417
-0.210887
-0.199569
-0.185732
-0.169708
-0.151885
-0.132686
-0.112565
-0.0919784
-0.071396
-0.0512619
-0.0320213
-0.0140758
0.0021844
0.016443
0.0284321
0.0379911
0.0450563
0.0496692
0.0520285
0.0523373
0.0510354
0.0483099
0.0447533
0.0402418
0.0355401
0.0298984
0.0245014
0.0176436
0.011504
0.00296104
-0.0154673
-0.0187575
-0.0256751
-0.036166
-0.0498302
-0.0661493
-0.0845353
-0.104313
-0.124731
-0.145011
-0.1644
-0.182227
-0.197933
-0.211092
-0.221395
-0.228632
-0.232669
-0.233431
-0.230888
-0.225119
-0.216244
-0.204454
-0.190024
-0.173294
-0.15467
-0.134601
-0.11357
-0.0920672
-0.0705964
-0.0496336
-0.0296521
-0.0110803
0.00566681
0.0202571
0.0324119
0.0419714
0.0488802
0.0531994
0.0551593
0.0549987
0.0532061
0.0500039
0.0460381
0.0411854
0.0362496
0.0304259
0.0249443
0.0179661
0.0117699
0.00300032
-0.00674858
-0.0103712
-0.0179852
-0.0295277
-0.0445503
-0.0624682
-0.0826143
-0.104219
-0.126427
-0.14836
-0.169184
-0.188179
-0.204779
-0.21858
-0.229316
-0.236817
-0.240975
-0.241726
-0.239018
-0.232941
-0.223594
-0.21116
-0.19591
-0.178203
-0.15847
-0.137193
-0.114899
-0.092126
-0.069427
-0.0473257
-0.0263287
-0.00690412
0.010496
0.025517
0.0378661
0.0473846
0.0540287
0.0578899
0.0592446
0.0583842
0.0558735
0.0519786
0.0474305
0.0421187
0.0368892
0.0308588
0.0253156
0.0182367
0.0120311
0.00301823
0.00458985
0.000530054
-0.00799974
-0.0209283
-0.0377462
-0.0577833
-0.0802674
-0.104298
-0.128877
-0.152981
-0.175664
-0.196141
-0.213844
-0.228415
-0.239655
-0.247457
-0.251747
-0.25248
-0.249557
-0.243092
-0.233141
-0.219868
-0.20355
-0.18456
-0.163364
-0.140495
-0.116538
-0.0920949
-0.0677842
-0.0441954
-0.0218833
-0.00136692
0.0168526
0.0323899
0.0449321
0.0543222
0.0605339
0.0637018
0.0641693
0.0623026
0.0587761
0.0539217
0.0485786
0.0426906
0.0371328
0.0309129
0.0253867
0.0182896
0.0121911
0.00297814
0.0188638
0.0142463
0.00454975
-0.0101512
-0.029274
-0.0520437
-0.0775528
-0.104725
-0.13236
-0.159237
-0.184249
-0.206529
-0.225522
-0.240954
-0.252736
-0.260851
-0.265266
-0.26589
-0.262796
-0.255866
-0.245165
-0.23084
-0.213164
-0.192535
-0.169465
-0.144553
-0.118464
-0.0918855
-0.0655212
-0.0400367
-0.0160725
0.00578914
0.0249916
0.0411074
0.0537951
0.0628986
0.0684178
0.0705485
0.069731
0.0664403
0.0614921
0.055333
0.0489299
0.0423732
0.0364881
0.0301587
0.0248137
0.0178766
0.0121054
0.00282725
0.0364753
0.0311599
0.0200068
0.00308017
-0.0189517
-0.0451933
-0.0745664
-0.105757
-0.137287
-0.167652
-0.195518
-0.219921
-0.240347
-0.256674
-0.268989
-0.277406
-0.281955
-0.282567
-0.279172
-0.271672
-0.260058
-0.244433
-0.225061
-0.202367
-0.176924
-0.149423
-0.120636
-0.0913639
-0.0624227
-0.0345751
-0.00857247
0.0149171
0.0352646
0.051985
0.0646987
0.0732498
0.0776777
0.0782649
0.0755917
0.0702959
0.0633859
0.055452
0.0476098
0.0403679
0.0342185
0.0279574
0.0230881
0.0166346
0.011563
0.002491
0.0579258
0.0517487
0.0388034
0.0191136
-0.0065529
-0.0371758
-0.0714623
-0.107779
-0.144261
-0.17899
-0.210304
-0.237121
-0.259039
-0.276197
-0.288961
-0.297632
-0.302306
-0.302893
-0.299199
-0.291054
-0.278356
-0.261146
-0.239668
-0.214382
-0.185949
-0.15518
-0.122993
-0.0903397
-0.0581812
-0.027426
0.00106249
0.0265006
0.04815
0.0654438
0.0779571
0.0855324
0.0882695
0.0865754
0.0812307
0.0731142
0.0635297
0.0532465
0.0433561
0.0355312
0.0292513
0.0233846
0.0194768
0.0140438
0.010262
0.00186732
0.0838316
0.076602
0.0614778
0.038383
0.00820246
-0.0279442
-0.0684862
-0.111364
-0.154175
-0.194372
-0.229806
-0.259258
-0.282567
-0.300329
-0.31335
-0.322182
-0.326974
-0.327564
-0.323608
-0.314771
-0.30081
-0.281675
-0.257582
-0.229038
-0.196822
-0.161919
-0.125445
-0.0885542
-0.0523911
-0.0180459
0.0134607
0.041193
0.0642754
0.0820246
0.0939638
0.0999299
0.100118
0.0951065
0.0859575
0.0738959
0.0606669
0.0474814
0.0362918
0.0264921
0.0201211
0.0151547
0.012956
0.00938239
0.00778095
0.000821662
0.11494
0.10644
0.0886969
0.06143
0.0256634
-0.0174766
-0.0660372
-0.117395
-0.168364
-0.215439
-0.255749
-0.287923
-0.312253
-0.330128
-0.343043
-0.351884
-0.356806
-0.357508
-0.353407
-0.343882
-0.328476
-0.307007
-0.27965
-0.246979
-0.209947