0 	0 	0 	0
1.57135 	-0.000675093 	-0.00744783 	0
3.1427 	-0.0379797 	0.0340915 	0
4.71405 	-0.0626612 	0.0862297 	0
6.28539 	-0.0382989 	0.0856735 	0
7.85674 	0.00737633 	0.0361883 	0
9.42809 	0.0489896 	-0.0101066 	0
10.9994 	0.0522451 	-0.0371168 	0
12.5708 	0.114826 	-0.103383 	0
14.1421 	0.5 	0 	0
