/*--------------------------------*- C++ -*----------------------------------*\
  =========                 |
  \\      /  F ield         | OpenFOAM: The Open Source CFD Toolbox
   \\    /   O peration     | Website:  https://openfoam.org
    \\  /    A nd           | Version:  8
     \\/     M anipulation  |
\*---------------------------------------------------------------------------*/
FoamFile
{
    version     2.0;
    format      ascii;
    class       surfaceScalarField;
    location    "40";
    object      phi;
}
// * * * * * * * * * * * * * * * * * * * * * * * * * * * * * * * * * * * * * //

dimensions      [0 3 -1 0 0 0 0];

internalField   nonuniform List<scalar> 
208
(
1.71427e-05
-1.71427e-05
3.08845e-05
-1.37419e-05
3.06745e-05
2.09995e-07
8.26009e-06
2.24144e-05
-6.80794e-05
7.63395e-05
7.2319e-05
-0.000140398
1.34813e-06
-1.84908e-05
-1.19996e-05
-3.94189e-07
-5.1351e-05
3.95614e-05
-0.000102031
7.3094e-05
-0.000131578
0.000105887
7.39626e-05
-0.000133222
-1.68762e-05
-1.61458e-06
-4.48276e-05
2.75572e-05
-7.55997e-05
7.03335e-05
-0.000102913
0.000100407
-0.000110731
0.000113706
6.04688e-05
-9.72376e-05
-2.16654e-05
2.00508e-05
-4.5293e-05
5.11848e-05
-6.6713e-05
9.17536e-05
-7.72984e-05
0.000110992
-7.03109e-05
0.000106718
4.26915e-05
-5.25336e-05
-1.46493e-05
3.47001e-05
-3.2683e-05
6.92185e-05
-4.22635e-05
0.000101334
-4.04064e-05
0.000109135
-2.87055e-05
9.50175e-05
3.72243e-05
-2.32384e-05
-6.83743e-06
4.15375e-05
-9.76758e-06
7.21487e-05
-7.84988e-06
9.94163e-05
-4.44811e-06
0.000105734
1.16065e-06
8.94088e-05
4.26869e-05
-4.30188e-06
1.57104e-06
3.99665e-05
4.93098e-07
7.32266e-05
7.86129e-06
9.20481e-05
2.12989e-05
9.2296e-05
3.59018e-05
7.48059e-05
4.3324e-05
3.52647e-05
1.08615e-05
2.9105e-05
2.47617e-05
5.93264e-05
4.68614e-05
6.99485e-05
6.39893e-05
7.51681e-05
7.99024e-05
5.88927e-05
4.3174e-05
8.00524e-05
-3.63135e-05
6.54185e-05
-1.58123e-05
3.88252e-05
1.14452e-05
4.26909e-05
4.33697e-05
4.32436e-05
6.89306e-05
3.33319e-05
2.70086e-05
8.5096e-05
6.54185e-05
0.000104244
0.000146935
0.000190178
0.00022351
0.000250519
-0.000115296
9.54554e-05
-0.000120557
-6.91686e-05
-5.01276e-05
3.99978e-06
-2.20974e-05
-3.58973e-05
-1.11739e-05
-0.000149829
0.000127731
-0.000108171
7.04045e-05
-9.42579e-05
-6.40407e-05
-4.15664e-05
-8.85888e-05
-0.000191395
-6.68513e-05
4.00182e-05
-6.37876e-05
-6.71044e-05
-3.70028e-05
-0.000115374
-0.000228398
-3.11586e-05
1.86432e-05
-3.14116e-05
-6.68515e-05
-2.11065e-05
-0.000125679
-0.000249505
-1.22019e-05
7.60671e-06
-1.62371e-05
-6.28163e-05
-1.49631e-05
-0.000126953
-0.000264468
7.84885e-06
-4.54402e-06
2.49025e-06
-5.74577e-05
-4.04258e-06
-0.00012042
-0.00026851
3.6571e-05
-5.85035e-06
1.57808e-05
-3.66675e-05
1.38559e-06
-0.000106025
-0.000267125
6.89415e-05
5.26063e-06
4.1196e-05
-8.92208e-06
2.65933e-05
-9.14218e-05
-0.000240531
8.3696e-05
6.66064e-06
8.18178e-05
-7.04389e-06
6.79236e-05
-7.75277e-05
-0.000172608
0.000257179
0.000250135
0.000172608
-3.45932e-05
3.45932e-05
-5.61437e-05
2.15505e-05
-5.39969e-05
-2.14673e-06
-5.39969e-05
-3.15836e-05
6.61767e-05
-3.96772e-05
2.96441e-05
-4.30272e-05
1.20333e-06
-9.70242e-05
-2.30375e-05
8.92142e-05
-1.11963e-05
1.78029e-05
-2.53134e-05
1.53204e-05
-0.000122338
-3.13431e-05
-9.54045e-06
-5.39392e-06
)
;

boundaryField
{
    movingWall
    {
        type            calculated;
        value           uniform 0;
    }
    fixedWalls
    {
        type            calculated;
        value           uniform 0;
    }
    frontAndBack
    {
        type            empty;
        value           nonuniform List<scalar> 0();
    }
}


// ************************************************************************* //
