/*--------------------------------*- C++ -*----------------------------------*\
  =========                 |
  \\      /  F ield         | OpenFOAM: The Open Source CFD Toolbox
   \\    /   O peration     | Website:  https://openfoam.org
    \\  /    A nd           | Version:  8
     \\/     M anipulation  |
\*---------------------------------------------------------------------------*/
FoamFile
{
    version     2.0;
    format      ascii;
    class       volScalarField;
    location    "8";
    object      p;
}
// * * * * * * * * * * * * * * * * * * * * * * * * * * * * * * * * * * * * * //

dimensions      [0 2 -2 0 0 0 0];

internalField   nonuniform List<scalar> 
464
(
8.66838e-09
5.22052e-06
1.5759e-05
3.12981e-05
5.14765e-05
7.57937e-05
0.000103688
0.000134443
0.000167662
0.000201552
0.000238741
0.000270289
-5.11501e-06
2.16966e-07
1.10033e-05
2.69045e-05
4.75469e-05
7.24159e-05
0.000100932
0.000132398
0.00016636
0.000201187
0.000239285
0.000272087
-1.58291e-05
-1.02382e-05
1.07051e-06
1.77316e-05
3.93417e-05
6.53466e-05
9.51126e-05
0.000127868
0.000162921
0.000199087
0.000236442
0.000271646
-3.22847e-05
-2.62898e-05
-1.41685e-05
3.67448e-06
2.67924e-05
5.45805e-05
8.635e-05
0.00012131
0.000158715
0.000197456
0.00023736
0.000275377
-5.49308e-05
-4.83702e-05
-3.51134e-05
-1.56225e-05
9.58965e-06
3.9842e-05
7.43589e-05
0.000112269
0.00015266
0.000194455
0.00023686
0.000278387
-8.434e-05
-7.70278e-05
-6.22663e-05
-4.05951e-05
-1.26242e-05
2.08694e-05
5.9006e-05
0.000100829
0.000145351
0.000191484
0.000238304
0.000284275
-0.000121286
-0.000113001
-9.63022e-05
-7.18284e-05
-4.03409e-05
-2.73773e-06
3.99583e-05
8.66761e-05
0.000136308
0.000187702
0.000239734
0.000291179
-0.000166779
-0.000157237
-0.00013808
-0.000110048
-7.41567e-05
-3.14403e-05
1.68825e-05
6.96078e-05
0.000125509
0.000183356
0.000241942
0.00029997
-0.000222056
-0.000210893
-0.000188656
-0.000156128
-0.000114784
-6.57797e-05
-1.06254e-05
4.93298e-05
0.000112724
0.000178239
0.000244591
0.000310469
-0.000289002
-0.000275588
-0.00024945
-0.000211139
-0.000163057
-0.000106352
-4.29888e-05
2.55537e-05
9.77647e-05
0.000172254
0.00024768
0.000322719
-0.000368439
-0.000352405
-0.000321677
-0.000276124
-0.00021984
-0.000153748
-8.06191e-05
-1.99896e-06
8.04427e-05
0.000165269
0.000251121
0.000336688
-0.00046896
-0.000447068
-0.000409566
-0.000353086
-0.000286424
-0.000208589
-0.000123868
-3.35192e-05
6.06325e-05
0.000157171
0.000254802
0.000352292
-0.000573679
-0.000548178
-0.000505272
-0.000438529
-0.000361293
-0.000270537
-0.000172775
-6.90361e-05
3.82992e-05
0.00014788
0.000258558
0.000369291
-0.000743399
-0.000698366
-0.000644792
-0.000550009
-0.000456132
-0.000343691
-0.000228653
-0.000108812
1.34328e-05
0.000137349
0.000262266
0.00038759
-0.000867779
-0.000819558
-0.000759026
-0.000650496
-0.00054497
-0.000415858
-0.000285926
-0.000150541
-1.31018e-05
0.00012568
0.000265181
0.000405193
-0.00118311
-0.00106164
-0.000987017
-0.000807457
-0.000678731
-0.000508266
-0.000355708
-0.000197886
-4.21456e-05
0.000113079
0.000268765
0.000425696
-0.00131616
-0.00120297
-0.00111258
-0.000918435
-0.000772481
-0.000582198
-0.00041402
-0.000239676
-6.93484e-05
9.97136e-05
0.000267931
0.000437361
-0.00198659
-0.0015662
-0.00146941
-0.00110838
-0.000935553
-0.00067979
-0.000486199
-0.000285492
-9.73842e-05
8.72843e-05
0.000270873
0.000456571
-0.00212444
-0.00176677
-0.00160119
-0.00123464
-0.00102156
-0.000746421
-0.000534417
-0.000319143
-0.000119695
7.40943e-05
0.000264755
0.00045701
-0.00389935
-0.00213339
-0.00201472
-0.00136441
-0.00113115
-0.000805235
-0.000569396
-0.000343266
-0.0001335
6.7471e-05
0.00026521
0.000465045
0.000313153
0.00033428
0.0003564
0.000371884
0.000385174
0.000394829
0.000401331
0.000404518
0.000316461
0.000339577
0.000363425
0.000380573
0.000395112
0.000405898
0.000413154
0.000416719
0.000308098
0.000337434
0.000364605
0.000386736
0.000404899
0.000418579
0.000427703
0.000432173
0.00031436
0.000346636
0.000376325
0.000401048
0.000421367
0.000436848
0.000447348
0.000452525
0.00031876
0.000355579
0.000388982
0.000417735
0.000441468
0.000459671
0.000471992
0.000478078
0.000328941
0.000370131
0.000407624
0.000440268
0.000467495
0.000488529
0.00050284
0.000509931
0.00034099
0.000387706
0.000430434
0.000468006
0.000499488
0.000523977
0.000540703
0.000549016
0.000356291
0.000409514
0.000458456
0.00050184
0.000538423
0.000567108
0.000586768
0.000596601
0.000374587
0.000435545
0.000491954
0.000542374
0.00058517
0.000619078
0.000642357
0.00065414
0.00039601
0.000466106
0.000531436
0.000590414
0.000640832
0.000681439
0.000709284
0.000723788
0.000420611
0.000501409
0.000577332
0.000646742
0.000706431
0.000755506
0.000788778
0.000806669
0.000448346
0.000541531
0.000630001
0.000712498
0.000784016
0.000845992
0.000887253
0.000912153
0.000478942
0.000586158
0.000688488
0.000785216
0.000868417
0.000943363
0.00099088
0.00102225
0.000512815
0.000637292
0.000758648
0.000880116
0.000982554
0.00109021
0.00115159
0.00120539
0.000545165
0.000684766
0.00082015
0.000959874
0.00107186
0.0012011
0.00126686
0.00133667
0.000585108
0.000749424
0.000910048
0.0010974
0.0012396
0.00144923
0.00154205
0.00169078
0.000608715
0.000786597
0.000954788
0.00116347
0.0013039
0.00155014
0.00163387
0.00183058
0.00064715
0.000854681
0.00105355
0.00133717
0.00152494
0.00195246
0.0020981
0.00260719
0.000651703
0.00086588
0.00105687
0.00135743
0.00150494
0.0019856
0.00205279
0.00269491
0.000671889
0.000898269
0.00112113
0.00148124
0.00169714
0.00247434
0.00269494
0.00474094
0.000370936
0.000371433
0.000372354
0.000373519
0.000374753
0.000375858
0.000376688
0.000377116
0.000371221
0.00037176
0.000372734
0.000373984
0.000375246
0.000376386
0.000377228
0.000377662
0.000368682
0.000369515
0.000370998
0.000372789
0.000374691
0.000376346
0.000377583
0.000378215
0.000369533
0.000370522
0.000372209
0.000374314
0.000376333
0.000378132
0.000379428
0.000380094
0.000362899
0.000364901
0.000368108
0.000371689
0.000375335
0.000378363
0.000380571
0.000381682
0.000364467
0.000366814
0.000370487
0.000374716
0.000378609
0.000381965
0.000384332
0.000385534
0.000349017
0.000354952
0.000362905
0.000370556
0.000377772
0.000383408
0.000387365
0.000389329
0.000351617
0.000358193
0.00036712
0.0003758
0.000383612
0.000389872
0.000394208
0.00039637
)
;

boundaryField
{
    movingWall
    {
        type            zeroGradient;
    }
    fixedWalls
    {
        type            zeroGradient;
    }
    frontAndBack
    {
        type            empty;
    }
}


// ************************************************************************* //
