/*--------------------------------*- C++ -*----------------------------------*\
  =========                 |
  \\      /  F ield         | OpenFOAM: The Open Source CFD Toolbox
   \\    /   O peration     | Website:  https://openfoam.org
    \\  /    A nd           | Version:  8
     \\/     M anipulation  |
\*---------------------------------------------------------------------------*/
FoamFile
{
    version     2.0;
    format      ascii;
    class       volVectorField;
    location    "8";
    object      U;
}
// * * * * * * * * * * * * * * * * * * * * * * * * * * * * * * * * * * * * * //

dimensions      [0 1 -1 0 0 0 0];

internalField   nonuniform List<vector> 
464
(
(-4.25745e-05 4.20985e-05 0)
(-0.00012765 4.17105e-05 0)
(-0.000210249 3.95953e-05 0)
(-0.000287377 3.65212e-05 0)
(-0.000357425 3.26076e-05 0)
(-0.000418807 2.79949e-05 0)
(-0.000470158 2.28416e-05 0)
(-0.00051131 1.72221e-05 0)
(-0.000538873 1.1353e-05 0)
(-0.00056545 4.61337e-06 0)
(-0.000553358 -9.91549e-07 0)
(-0.000595585 -7.62313e-06 0)
(-4.43274e-05 0.000128556 0)
(-0.000132887 0.000127346 0)
(-0.000218814 0.000120855 0)
(-0.00029897 0.00011143 0)
(-0.000371677 9.94507e-05 0)
(-0.000435279 8.5378e-05 0)
(-0.000488458 6.97721e-05 0)
(-0.000530979 5.32162e-05 0)
(-0.000560116 3.71048e-05 0)
(-0.000586837 2.04771e-05 0)
(-0.000577106 1.52473e-05 0)
(-0.000616881 -8.52339e-06 0)
(-4.65403e-05 0.000219097 0)
(-0.00013949 0.000216967 0)
(-0.000229566 0.000205794 0)
(-0.000313413 0.000189583 0)
(-0.000389234 0.000168991 0)
(-0.000455228 0.000144794 0)
(-0.000509887 0.000117876 0)
(-0.000552202 8.91441e-05 0)
(-0.000580292 6.01625e-05 0)
(-0.000596381 3.04411e-05 0)
(-0.000591323 1.10511e-05 0)
(-0.000581486 -2.4493e-05 0)
(-4.99752e-05 0.000314946 0)
(-0.000149733 0.000311749 0)
(-0.000246234 0.000295449 0)
(-0.000335799 0.000271836 0)
(-0.000416497 0.000241891 0)
(-0.000486432 0.000206719 0)
(-0.000544149 0.000167495 0)
(-0.000588737 0.000125309 0)
(-0.000618866 8.14276e-05 0)
(-0.000635997 3.62844e-05 0)
(-0.000632084 -6.54345e-06 0)
(-0.000620222 -5.40787e-05 0)
(-5.47863e-05 0.000419007 0)
(-0.000164062 0.000414502 0)
(-0.000269505 0.000392383 0)
(-0.000366971 0.000360429 0)
(-0.000454352 0.000320054 0)
(-0.000529625 0.000272775 0)
(-0.000591297 0.000220158 0)
(-0.000638269 0.000163681 0)
(-0.000669317 0.000104943 0)
(-0.000684352 4.48724e-05 0)
(-0.000681687 -1.3381e-05 0)
(-0.00066347 -7.51851e-05 0)
(-6.11968e-05 0.000534113 0)
(-0.000183108 0.00052792 0)
(-0.000300342 0.000498997 0)
(-0.000408127 0.000457373 0)
(-0.000504151 0.000405093 0)
(-0.000586328 0.000344163 0)
(-0.000653242 0.000276603 0)
(-0.000703951 0.000204201 0)
(-0.000737676 0.000128567 0)
(-0.000754321 5.07135e-05 0)
(-0.000752143 -2.766e-05 0)
(-0.000732822 -0.000106844 0)
(-6.95389e-05 0.000663736 0)
(-0.000207782 0.000655241 0)
(-0.000340096 0.000618119 0)
(-0.000460874 0.000564957 0)
(-0.000567562 0.000498808 0)
(-0.000658115 0.000422281 0)
(-0.000731259 0.000338025 0)
(-0.000786305 0.000248235 0)
(-0.000822804 0.000154793 0)
(-0.000840579 5.90977e-05 0)
(-0.000839244 -3.72279e-05 0)
(-0.000819173 -0.000134451 0)
(-8.03282e-05 0.000812 0)
(-0.000239415 0.000800203 0)
(-0.00039068 0.000752942 0)
(-0.000527438 0.000685585 0)
(-0.000646827 0.000602942 0)
(-0.000747111 0.00050828 0)
(-0.000827288 0.00040511 0)
(-0.000887183 0.00029603 0)
(-0.000926813 0.000183121 0)
(-0.000946342 6.78724e-05 0)
(-0.000945691 -4.84843e-05 0)
(-0.000925041 -0.000165147 0)
(-9.43495e-05 0.000984612 0)
(-0.000279918 0.000967575 0)
(-0.000454779 0.000907351 0)
(-0.000610874 0.00082183 0)
(-0.000744867 0.000719171 0)
(-0.000855947 0.000603084 0)
(-0.000943509 0.000478338 0)
(-0.00100829 0.000347885 0)
(-0.00105096 0.000213964 0)
(-0.00107218 7.79989e-05 0)
(-0.00107226 -5.90013e-05 0)
(-0.00105124 -0.000196424 0)
(-0.000113142 0.0011866 0)
(-0.00033253 0.00116183 0)
(-0.000536502 0.00108517 0)
(-0.00071562 0.000975979 0)
(-0.000865573 0.000848797 0)
(-0.000987945 0.000707064 0)
(-0.00108249 0.000557618 0)
(-0.00115156 0.000403512 0)
(-0.0011967 0.000247018 0)
(-0.00121931 8.92418e-05 0)
(-0.00122011 -6.93255e-05 0)
(-0.0011991 -0.000228536 0)
(-0.000138151 0.00143711 0)
(-0.00040047 0.00139496 0)
(-0.000640718 0.00129503 0)
(-0.00084725 0.00115126 0)
(-0.00101378 0.000993003 0)
(-0.00114713 0.00081981 0)
(-0.00124706 0.000641946 0)
(-0.00131889 0.000461799 0)
(-0.00136523 0.000281497 0)
(-0.00138853 0.000101358 0)
(-0.00139004 -7.91136e-05 0)
(-0.00136981 -0.000260689 0)
(-0.000178274 0.00170399 0)
(-0.000497709 0.00164611 0)
(-0.000780307 0.00152338 0)
(-0.00101765 0.00134072 0)
(-0.00119702 0.00114816 0)
(-0.001339 0.000938379 0)
(-0.0014405 0.000728752 0)
(-0.00151201 0.000520697 0)
(-0.00155714 0.000316073 0)
(-0.00157992 0.000113868 0)
(-0.00158216 -8.78949e-05 0)
(-0.0015639 -0.00029153 0)
(-0.000223551 0.00216437 0)
(-0.000608755 0.00202554 0)
(-0.000946209 0.00185716 0)
(-0.00122251 0.0015776 0)
(-0.00141611 0.00132983 0)
(-0.00156654 0.00106439 0)
(-0.00166474 0.000815922 0)
(-0.00173157 0.000577565 0)
(-0.00177206 0.000348857 0)
(-0.0017925 0.000126098 0)
(-0.00179544 -9.50069e-05 0)
(-0.00178099 -0.000319145 0)
(-0.000351459 0.00245976 0)
(-0.000839458 0.00229 0)
(-0.0012283 0.00209622 0)
(-0.00154502 0.00175777 0)
(-0.00171017 0.00147602 0)
(-0.00185291 0.00116732 0)
(-0.00192731 0.000888313 0)
(-0.00197907 0.000624292 0)
(-0.00200861 0.000375609 0)
(-0.00202378 0.000136762 0)
(-0.0020274 -9.88913e-05 0)
(-0.00201984 -0.00033857 0)
(-0.000432998 0.00350136 0)
(-0.00101278 0.00297129 0)
(-0.00147837 0.00269595 0)
(-0.00184305 0.00207824 0)
(-0.00200655 0.00171459 0)
(-0.00215434 0.00129197 0)
(-0.00220779 0.00096213 0)
(-0.00224429 0.000663275 0)
(-0.00225959 0.000394985 0)
(-0.002267 0.000144599 0)
(-0.00227077 -0.000100354 0)
(-0.00227113 -0.000351795 0)
(-0.000937049 0.003724 0)
(-0.00170109 0.00315547 0)
(-0.00212071 0.00284282 0)
(-0.00252656 0.00215505 0)
(-0.00249593 0.00176426 0)
(-0.00260533 0.00130633 0)
(-0.0025559 0.000966412 0)
(-0.00254619 0.000660651 0)
(-0.00252727 0.000392835 0)
(-0.00251912 0.000146679 0)
(-0.0025238 -9.1121e-05 0)
(-0.00254219 -0.000335631 0)
(-0.00105617 0.00649041 0)
(-0.00196118 0.00424463 0)
(-0.00247772 0.00381375 0)
(-0.00292398 0.00244602 0)
(-0.00285535 0.0019594 0)
(-0.00295262 0.00133742 0)
(-0.00285353 0.000964115 0)
(-0.00281792 0.000637374 0)
(-0.00277358 0.000374298 0)
(-0.00275095 0.000140698 0)
(-0.00275307 -8.24629e-05 0)
(-0.00278068 -0.000314764 0)
(-0.00327367 0.00633608 0)
(-0.00448475 0.00424309 0)
(-0.00390982 0.00368757 0)
(-0.00438075 0.0023072 0)
(-0.00360142 0.00178989 0)
(-0.00359968 0.00118602 0)
(-0.0032547 0.000837954 0)
(-0.00313491 0.000544894 0)
(-0.00302276 0.000319742 0)
(-0.00297461 0.000126328 0)
(-0.00297791 -5.46209e-05 0)
(-0.00303447 -0.000242821 0)
(-0.00410854 0.0151565 0)
(-0.00499009 0.00480658 0)
(-0.00448253 0.00427108 0)
(-0.00472092 0.00199725 0)
(-0.00382415 0.00144291 0)
(-0.00371414 0.00091577 0)
(-0.00328158 0.0005941 0)
(-0.00310922 0.000384144 0)
(-0.00295522 0.0002228 0)
(-0.00288044 9.19359e-05 0)
(-0.00287004 -2.80004e-05 0)
(-0.0029212 -0.000153298 0)
(0.0160985 0.0144055 0)
(0.0148914 0.00404551 0)
(0.023744 0.00337801 0)
(0.023816 0.00133925 0)
(0.0263142 0.00086645 0)
(0.0267212 0.000494012 0)
(0.0274042 0.000282021 0)
(0.0277277 0.000171892 0)
(0.0279437 9.62011e-05 0)
(0.0280552 4.15795e-05 0)
(0.0280788 -7.24925e-06 0)
(0.0280183 -5.91231e-05 0)
(-0.000513646 0.000275486 0)
(-0.00034983 0.000140853 0)
(-0.000299301 2.72061e-05 0)
(-0.000231989 -4.2362e-05 0)
(-0.000182128 -9.53288e-05 0)
(-0.000128961 -0.000131692 0)
(-7.7023e-05 -0.000155163 0)
(-2.54475e-05 -0.00016395 0)
(-0.000538479 4.12534e-05 0)
(-0.000384227 -2.23108e-05 0)
(-0.000330045 -6.66655e-05 0)
(-0.000260541 -0.000118603 0)
(-0.000206276 -0.000159092 0)
(-0.000148564 -0.000191248 0)
(-8.98052e-05 -0.000212964 0)
(-2.99309e-05 -0.000220441 0)
(-0.000532718 7.787e-06 0)
(-0.00045778 -6.00287e-05 0)
(-0.000395592 -0.000110722 0)
(-0.000324411 -0.000168679 0)
(-0.00025477 -0.000215742 0)
(-0.000182851 -0.000252957 0)
(-0.000109764 -0.000278243 0)
(-3.64526e-05 -0.000286243 0)
(-0.00057404 -8.85252e-05 0)
(-0.000502722 -0.000145349 0)
(-0.000438698 -0.000197402 0)
(-0.00036556 -0.000249616 0)
(-0.000290556 -0.000295223 0)
(-0.000211092 -0.000332208 0)
(-0.000127703 -0.000358181 0)
(-4.25163e-05 -0.000365538 0)
(-0.000623988 -0.000125979 0)
(-0.000566653 -0.000194443 0)
(-0.000499861 -0.000258836 0)
(-0.000422231 -0.000321342 0)
(-0.000337362 -0.000375745 0)
(-0.000245842 -0.000419133 0)
(-0.000148974 -0.000449187 0)
(-4.96573e-05 -0.000457143 0)
(-0.000693299 -0.000183364 0)
(-0.000635576 -0.000262251 0)
(-0.000565599 -0.000337632 0)
(-0.000482469 -0.000408296 0)
(-0.000388347 -0.000470205 0)
(-0.000284575 -0.000520178 0)
(-0.000173068 -0.000555182 0)
(-5.77866e-05 -0.000564067 0)
(-0.000779394 -0.000229447 0)
(-0.000720919 -0.0003251 0)
(-0.000645905 -0.000416438 0)
(-0.000554803 -0.000501139 0)
(-0.000449244 -0.000575252 0)
(-0.00033087 -0.000635386 0)
(-0.000201935 -0.000677624 0)
(-6.7563e-05 -0.000688449 0)
(-0.000883949 -0.000280552 0)
(-0.000822567 -0.000394381 0)
(-0.000741638 -0.000503518 0)
(-0.000641283 -0.000605073 0)
(-0.000522594 -0.000694622 0)
(-0.000387009 -0.000768196 0)
(-0.000237201 -0.000820076 0)
(-7.96197e-05 -0.000834111 0)
(-0.00100863 -0.000333062 0)
(-0.000943885 -0.000467933 0)
(-0.000856598 -0.000598308 0)
(-0.000745907 -0.000720914 0)
(-0.000612367 -0.000830237 0)
(-0.0004564 -0.000922036 0)
(-0.000281259 -0.000986938 0)
(-9.49314e-05 -0.00100652 0)
(-0.00115546 -0.00038789 0)
(-0.00108781 -0.000546405 0)
(-0.000994618 -0.000701531 0)
(-0.000873212 -0.000850025 0)
(-0.000723716 -0.000984291 0)
(-0.000543804 -0.00110068 0)
(-0.000337855 -0.00118262 0)
(-0.000115279 -0.00121088 0)
(-0.0013265 -0.000443917 0)
(-0.00125753 -0.000628572 0)
(-0.00116022 -0.000812503 0)
(-0.00102867 -0.000993305 0)
(-0.00086302 -0.00115973 0)
(-0.000654848 -0.00131292 0)
(-0.000410926 -0.00141944 0)
(-0.000142543 -0.00146689 0)
(-0.00152334 -0.000499079 0)
(-0.0014564 -0.000711717 0)
(-0.00135935 -0.0009277 0)
(-0.00122044 -0.00114604 0)
(-0.00104332 -0.00134774 0)
(-0.000803666 -0.00154372 0)
(-0.000515321 -0.00167414 0)
(-0.000186086 -0.00174285 0)
(-0.00174668 -0.000550939 0)
(-0.00168615 -0.000794559 0)
(-0.00159453 -0.00105085 0)
(-0.00144871 -0.00132831 0)
(-0.00126067 -0.00158819 0)
(-0.000981459 -0.00188802 0)
(-0.000638259 -0.00206825 0)
(-0.000239321 -0.00222305 0)
(-0.00199876 -0.000589035 0)
(-0.00195633 -0.000856279 0)
(-0.0018931 -0.00114044 0)
(-0.00175786 -0.00146168 0)
(-0.00160299 -0.00175063 0)
(-0.00128407 -0.00212348 0)
(-0.000885513 -0.00232425 0)
(-0.000375894 -0.0025401 0)
(-0.00226438 -0.000622693 0)
(-0.00223753 -0.000926983 0)
(-0.00219982 -0.00126456 0)
(-0.00205892 -0.00170773 0)
(-0.00192205 -0.00208866 0)
(-0.00155561 -0.00275452 0)
(-0.00109588 -0.00305799 0)
(-0.000496646 -0.00364416 0)
(-0.00257398 -0.000600702 0)
(-0.00259832 -0.000904659 0)
(-0.00267391 -0.001237 0)
(-0.00258254 -0.00171337 0)
(-0.00264957 -0.00208603 0)
(-0.00225479 -0.00286359 0)
(-0.00183174 -0.0031562 0)
(-0.00101954 -0.00393909 0)
(-0.00283332 -0.000576181 0)
(-0.00287372 -0.000904178 0)
(-0.003008 -0.00127679 0)
(-0.00290783 -0.00192751 0)
(-0.00306945 -0.00243299 0)
(-0.00262771 -0.00390519 0)
(-0.00222717 -0.00442531 0)
(-0.0013496 -0.00688693 0)
(-0.00316187 -0.000455132 0)
(-0.00329757 -0.000733683 0)
(-0.00369552 -0.00103767 0)
(-0.00373919 -0.00165278 0)
(-0.00462421 -0.00204186 0)
(-0.00425211 -0.00359322 0)
(-0.00490483 -0.00394721 0)
(-0.00356786 -0.00707594 0)
(-0.00305445 -0.000301657 0)
(-0.00317286 -0.000496695 0)
(-0.00362181 -0.000778839 0)
(-0.00356633 -0.0013223 0)
(-0.00461211 -0.00183886 0)
(-0.00395099 -0.00427836 0)
(-0.00499589 -0.00516863 0)
(-0.00317297 -0.0164018 0)
(0.0278493 -0.000129886 0)
(0.0276358 -0.000227945 0)
(0.02692 -0.000420789 0)
(0.0268386 -0.000785793 0)
(0.0240957 -0.00117205 0)
(0.0246692 -0.00322812 0)
(0.0152056 -0.0038227 0)
(0.0168915 -0.0141378 0)
(-4.03893e-06 7.15594e-07 0)
(-1.13401e-05 2.19001e-07 0)
(-1.65703e-05 -5.61308e-07 0)
(-1.90553e-05 -1.62107e-06 0)
(-1.85767e-05 -2.28681e-06 0)
(-1.53713e-05 -2.91632e-06 0)
(-1.00318e-05 -3.34667e-06 0)
(-3.45104e-06 -3.53936e-06 0)
(-4.63097e-06 1.52242e-05 0)
(-1.28288e-05 1.28152e-05 0)
(-1.86744e-05 8.60291e-06 0)
(-2.10842e-05 3.78859e-06 0)
(-2.01676e-05 -1.26192e-06 0)
(-1.66759e-05 -5.44533e-06 0)
(-1.08689e-05 -8.45095e-06 0)
(-3.75291e-06 -9.80192e-06 0)
(-6.73775e-06 1.67792e-05 0)
(-1.83691e-05 1.30201e-05 0)
(-2.58632e-05 6.82419e-06 0)
(-2.9225e-05 -6.12986e-07 0)
(-2.81077e-05 -7.20822e-06 0)
(-2.28069e-05 -1.29441e-05 0)
(-1.4711e-05 -1.69934e-05 0)
(-5.01857e-06 -1.88073e-05 0)
(-8.68267e-06 4.32508e-05 0)
(-2.30788e-05 3.44294e-05 0)
(-3.23107e-05 2.10986e-05 0)
(-3.51184e-05 6.83551e-06 0)
(-3.25005e-05 -6.83625e-06 0)
(-2.64642e-05 -1.76887e-05 0)
(-1.70338e-05 -2.5251e-05 0)
(-5.86623e-06 -2.85668e-05 0)
(-1.62284e-05 4.43476e-05 0)
(-4.1194e-05 3.30009e-05 0)
(-5.34603e-05 1.64467e-05 0)
(-5.71597e-05 -1.60712e-06 0)
(-5.26314e-05 -1.7256e-05 0)
(-4.12237e-05 -3.03143e-05 0)
(-2.60532e-05 -3.93582e-05 0)
(-8.79612e-06 -4.32916e-05 0)
(-2.07704e-05 0.000108076 0)
(-5.17259e-05 7.73535e-05 0)
(-6.69237e-05 4.0481e-05 0)
(-6.88222e-05 7.2945e-06 0)
(-6.12087e-05 -2.08998e-05 0)
(-4.85709e-05 -4.18096e-05 0)
(-3.07083e-05 -5.56732e-05 0)
(-1.04928e-05 -6.14985e-05 0)
(-4.86717e-05 0.000106974 0)
(-0.000110507 7.11756e-05 0)
(-0.000123526 2.87643e-05 0)
(-0.000118538 -8.63579e-06 0)
(-0.000101733 -4.03932e-05 0)
(-7.60007e-05 -6.43603e-05 0)
(-4.67347e-05 -8.05244e-05 0)
(-1.56094e-05 -8.71423e-05 0)
(-6.06772e-05 0.000285745 0)
(-0.000131732 0.000163614 0)
(-0.000146757 5.34087e-05 0)
(-0.000137985 -1.21764e-05 0)
(-0.000116937 -6.00672e-05 0)
(-8.87121e-05 -9.258e-05 0)
(-5.48981e-05 -0.000113021 0)
(-1.85102e-05 -0.000120922 0)
)
;

boundaryField
{
    movingWall
    {
        type            fixedValue;
        value           uniform (1 0 0);
    }
    fixedWalls
    {
        type            noSlip;
    }
    frontAndBack
    {
        type            empty;
    }
}


// ************************************************************************* //
