/*--------------------------------*- C++ -*----------------------------------*\
  =========                 |
  \\      /  F ield         | OpenFOAM: The Open Source CFD Toolbox
   \\    /   O peration     | Website:  https://openfoam.org
    \\  /    A nd           | Version:  8
     \\/     M anipulation  |
\*---------------------------------------------------------------------------*/
FoamFile
{
    version     2.0;
    format      ascii;
    class       volScalarField;
    location    "1.43";
    object      p;
}
// * * * * * * * * * * * * * * * * * * * * * * * * * * * * * * * * * * * * * //

dimensions      [0 2 -2 0 0 0 0];

internalField   nonuniform List<scalar> 
400
(
7.31238e-16
5.17443e-14
1.20283e-13
1.93906e-13
2.63326e-13
3.18457e-13
3.57917e-13
3.77293e-13
3.78138e-13
3.58991e-13
3.23248e-13
2.74275e-13
2.16177e-13
1.55078e-13
9.46334e-14
4.24714e-14
6.71396e-16
-2.50735e-14
-3.55737e-14
-2.75758e-14
3.74251e-14
7.2875e-14
1.21037e-13
1.76125e-13
2.27368e-13
2.73742e-13
3.06642e-13
3.29343e-13
3.34873e-13
3.26483e-13
3.03231e-13
2.68807e-13
2.27077e-13
1.79095e-13
1.32679e-13
8.79176e-14
5.37597e-14
2.81802e-14
1.77362e-14
1.95059e-14
5.10063e-14
7.38044e-14
1.09424e-13
1.50293e-13
1.95771e-13
2.34634e-13
2.71893e-13
2.96297e-13
3.12029e-13
3.11644e-13
3.00144e-13
2.77963e-13
2.45942e-13
2.09337e-13
1.66654e-13
1.28712e-13
9.13013e-14
6.56012e-14
4.6886e-14
4.30022e-14
5.03695e-14
6.58066e-14
9.25139e-14
1.30348e-13
1.68934e-13
2.12777e-13
2.48425e-13
2.82205e-13
3.00857e-13
3.10448e-13
3.0577e-13
2.91164e-13
2.67393e-13
2.32229e-13
1.95295e-13
1.52322e-13
1.16581e-13
8.15627e-14
6.05147e-14
4.7843e-14
4.60371e-14
5.85404e-14
8.39535e-14
1.16521e-13
1.59202e-13
1.98539e-13
2.41549e-13
2.7273e-13
2.99618e-13
3.10253e-13
3.11831e-13
3.00839e-13
2.7762e-13
2.47065e-13
2.0507e-13
1.6559e-13
1.21545e-13
8.84883e-14
5.9812e-14
4.78539e-14
4.81201e-14
6.15311e-14
8.54623e-14
1.21281e-13
1.58695e-13
2.0299e-13
2.3898e-13
2.75644e-13
2.96826e-13
3.11063e-13
3.09529e-13
2.98012e-13
2.75089e-13
2.40219e-13
2.02055e-13
1.56272e-13
1.18363e-13
8.09731e-14
5.95037e-14
4.57867e-14
5.87091e-14
7.67576e-14
1.03323e-13
1.36377e-13
1.76863e-13
2.12682e-13
2.51908e-13
2.77465e-13
2.99252e-13
3.03469e-13
2.99528e-13
2.81982e-13
2.54763e-13
2.2097e-13
1.78296e-13
1.40374e-13
1.00791e-13
7.61818e-14
5.61085e-14
5.38758e-14
8.08503e-14
1.01513e-13
1.30738e-13
1.6561e-13
2.00093e-13
2.37089e-13
2.63598e-13
2.87601e-13
2.94111e-13
2.94481e-13
2.78558e-13
2.5618e-13
2.25315e-13
1.8778e-13
1.51271e-13
1.12695e-13
8.67783e-14
6.55765e-14
6.29144e-14
6.46905e-14
1.03672e-13
1.32108e-13
1.63114e-13
1.96543e-13
2.30594e-13
2.57102e-13
2.80833e-13
2.88731e-13
2.91068e-13
2.76453e-13
2.56168e-13
2.2474e-13
1.90665e-13
1.54654e-13
1.18559e-13
9.10739e-14
6.9081e-14
6.47774e-14
6.7009e-14
8.41611e-14
1.29086e-13
1.58607e-13
1.92838e-13
2.24783e-13
2.52477e-13
2.74848e-13
2.85012e-13
2.8855e-13
2.76505e-13
2.59811e-13
2.29476e-13
1.9712e-13
1.60008e-13
1.2528e-13
9.54231e-14
7.20915e-14
6.39313e-14
6.35965e-14
7.9886e-14
9.89696e-14
1.48185e-13
1.82203e-13
2.12946e-13
2.42668e-13
2.65385e-13
2.78069e-13
2.83313e-13
2.74798e-13
2.62523e-13
2.36813e-13
2.09346e-13
1.7346e-13
1.40084e-13
1.07412e-13
8.23515e-14
6.8113e-14
6.37471e-14
7.48986e-14
9.16557e-14
1.20024e-13
1.70066e-13
1.97922e-13
2.27016e-13
2.49311e-13
2.65215e-13
2.71702e-13
2.68916e-13
2.60198e-13
2.41753e-13
2.20474e-13
1.8977e-13
1.61274e-13
1.29309e-13
1.03693e-13
8.38231e-14
7.53034e-14
7.81687e-14
9.05344e-14
1.13777e-13
1.37831e-13
1.85961e-13
2.12871e-13
2.3117e-13
2.48831e-13
2.56144e-13
2.57765e-13
2.52076e-13
2.39713e-13
2.25391e-13
2.03037e-13
1.80831e-13
1.52843e-13
1.30885e-13
1.09283e-13
9.74642e-14
9.40369e-14
9.9363e-14
1.15692e-13
1.35944e-13
1.6243e-13
2.03083e-13
2.18598e-13
2.33476e-13
2.40146e-13
2.4469e-13
2.41054e-13
2.34002e-13
2.23198e-13
2.08081e-13
1.92428e-13
1.7137e-13
1.54258e-13
1.35694e-13
1.24716e-13
1.16385e-13
1.18301e-13
1.26692e-13
1.41529e-13
1.62067e-13
1.81921e-13
2.10877e-13
2.22676e-13
2.28135e-13
2.32932e-13
2.30952e-13
2.27183e-13
2.19578e-13
2.09291e-13
1.97492e-13
1.82539e-13
1.69851e-13
1.55374e-13
1.47634e-13
1.3959e-13
1.39218e-13
1.42662e-13
1.52833e-13
1.66065e-13
1.81977e-13
2.00105e-13
2.16493e-13
2.1961e-13
2.24628e-13
2.24444e-13
2.24856e-13
2.19726e-13
2.13316e-13
2.03424e-13
1.91113e-13
1.8018e-13
1.68371e-13
1.62351e-13
1.55877e-13
1.56733e-13
1.56971e-13
1.64055e-13
1.72086e-13
1.82931e-13
1.96164e-13
2.07211e-13
2.13298e-13
2.17779e-13
2.19855e-13
2.24582e-13
2.23649e-13
2.22991e-13
2.16063e-13
2.06016e-13
1.93585e-13
1.81965e-13
1.73978e-13
1.66756e-13
1.65893e-13
1.65596e-13
1.69646e-13
1.7406e-13
1.825e-13
1.90281e-13
1.99413e-13
2.0802e-13
2.08598e-13
2.14351e-13
2.22586e-13
2.28548e-13
2.33508e-13
2.32671e-13
2.27985e-13
2.16371e-13
2.02137e-13
1.8982e-13
1.79174e-13
1.73056e-13
1.68548e-13
1.69592e-13
1.69534e-13
1.74797e-13
1.80108e-13
1.87486e-13
1.9436e-13
2.00637e-13
2.03802e-13
2.1686e-13
2.28993e-13
2.41299e-13
2.48309e-13
2.49987e-13
2.43729e-13
2.31398e-13
2.14215e-13
1.97764e-13
1.8385e-13
1.72706e-13
1.66439e-13
1.62056e-13
1.61995e-13
1.64204e-13
1.70032e-13
1.76754e-13
1.84637e-13
1.93874e-13
2.06501e-13
2.23717e-13
2.41481e-13
2.56127e-13
2.67423e-13
2.68774e-13
2.61241e-13
2.46242e-13
2.25067e-13
2.03213e-13
1.84602e-13
1.6968e-13
1.57067e-13
1.51055e-13
1.46979e-13
1.48887e-13
1.56445e-13
1.65893e-13
1.77431e-13
1.89455e-13
)
;

boundaryField
{
    movingWall
    {
        type            zeroGradient;
    }
    fixedWalls
    {
        type            zeroGradient;
    }
    left
    {
        type            cyclic;
    }
    right
    {
        type            cyclic;
    }
    frontAndBack
    {
        type            empty;
    }
}


// ************************************************************************* //
