/*--------------------------------*- C++ -*----------------------------------*\
  =========                 |
  \\      /  F ield         | OpenFOAM: The Open Source CFD Toolbox
   \\    /   O peration     | Website:  https://openfoam.org
    \\  /    A nd           | Version:  8
     \\/     M anipulation  |
\*---------------------------------------------------------------------------*/
FoamFile
{
    version     2.0;
    format      ascii;
    class       volVectorField;
    location    "1.43";
    object      U;
}
// * * * * * * * * * * * * * * * * * * * * * * * * * * * * * * * * * * * * * //

dimensions      [0 1 -1 0 0 0 0];

internalField   nonuniform List<vector> 
400
(
(0.02499 5.69069e-15 0)
(0.02499 4.63433e-15 0)
(0.02499 3.01483e-15 0)
(0.02499 8.84674e-16 0)
(0.02499 -8.68689e-16 0)
(0.02499 -2.67415e-15 0)
(0.02499 -3.63333e-15 0)
(0.02499 -4.52178e-15 0)
(0.02499 -4.68535e-15 0)
(0.02499 -4.65102e-15 0)
(0.02499 -4.09916e-15 0)
(0.02499 -3.197e-15 0)
(0.02499 -2.13989e-15 0)
(0.02499 -6.73317e-16 0)
(0.02499 5.67936e-16 0)
(0.02499 2.13576e-15 0)
(0.02499 3.24531e-15 0)
(0.02499 4.5367e-15 0)
(0.02499 5.29073e-15 0)
(0.02499 5.92758e-15 0)
(0.0749702 1.36841e-14 0)
(0.0749702 5.04933e-15 0)
(0.0749702 -4.96873e-15 0)
(0.0749702 -1.41766e-14 0)
(0.0749702 -2.20224e-14 0)
(0.0749702 -2.67538e-14 0)
(0.0749702 -2.8951e-14 0)
(0.0749702 -2.7711e-14 0)
(0.0749702 -2.42032e-14 0)
(0.0749702 -1.81747e-14 0)
(0.0749702 -1.07423e-14 0)
(0.0749702 -2.46593e-15 0)
(0.0749702 5.95392e-15 0)
(0.0749702 1.3419e-14 0)
(0.0749702 1.98557e-14 0)
(0.0749702 2.39931e-14 0)
(0.0749702 2.65595e-14 0)
(0.0749702 2.64905e-14 0)
(0.0749702 2.46616e-14 0)
(0.0749702 2.03393e-14 0)
(0.124951 1.16618e-14 0)
(0.124951 -1.52597e-14 0)
(0.124951 -4.12917e-14 0)
(0.124951 -6.35179e-14 0)
(0.124951 -7.88186e-14 0)
(0.124951 -8.60198e-14 0)
(0.124951 -8.38017e-14 0)
(0.124951 -7.35112e-14 0)
(0.124951 -5.56516e-14 0)
(0.124951 -3.28572e-14 0)
(0.124951 -6.96417e-15 0)
(0.124951 1.90963e-14 0)
(0.124951 4.28855e-14 0)
(0.124951 6.24125e-14 0)
(0.124951 7.54612e-14 0)
(0.124951 8.16801e-14 0)
(0.124951 7.99517e-14 0)
(0.124951 7.16008e-14 0)
(0.124951 5.64143e-14 0)
(0.124951 3.61411e-14 0)
(0.174933 -1.23254e-14 0)
(0.174933 -6.49005e-14 0)
(0.174933 -1.11883e-13 0)
(0.174933 -1.48016e-13 0)
(0.174933 -1.69331e-13 0)
(0.174933 -1.73169e-13 0)
(0.174933 -1.59745e-13 0)
(0.174933 -1.29948e-13 0)
(0.174933 -8.76627e-14 0)
(0.174933 -3.66738e-14 0)
(0.174933 1.72731e-14 0)
(0.174933 6.91876e-14 0)
(0.174933 1.13865e-13 0)
(0.174933 1.47017e-13 0)
(0.174933 1.65886e-13 0)
(0.174933 1.68505e-13 0)
(0.174933 1.55526e-13 0)
(0.174933 1.27778e-13 0)
(0.174933 8.84771e-14 0)
(0.174933 4.02759e-14 0)
(0.224917 -5.58346e-14 0)
(0.224917 -1.37009e-13 0)
(0.224917 -2.05523e-13 0)
(0.224917 -2.54015e-13 0)
(0.224917 -2.77383e-13 0)
(0.224917 -2.73259e-13 0)
(0.224917 -2.41649e-13 0)
(0.224917 -1.86152e-13 0)
(0.224917 -1.12024e-13 0)
(0.224917 -2.73159e-14 0)
(0.224917 5.99234e-14 0)
(0.224917 1.40657e-13 0)
(0.224917 2.07352e-13 0)
(0.224917 2.534e-13 0)
(0.224917 2.7456e-13 0)
(0.224917 2.69142e-13 0)
(0.224917 2.37776e-13 0)
(0.224917 1.83994e-13 0)
(0.224917 1.12431e-13 0)
(0.224917 3.014e-14 0)
(0.274903 -1.07192e-13 0)
(0.274903 -2.14562e-13 0)
(0.274903 -3.01209e-13 0)
(0.274903 -3.58757e-13 0)
(0.274903 -3.81031e-13 0)
(0.274903 -3.65734e-13 0)
(0.274903 -3.14228e-13 0)
(0.274903 -2.31473e-13 0)
(0.274903 -1.26043e-13 0)
(0.274903 -8.18688e-15 0)
(0.274903 1.1e-13 0)
(0.274903 2.17289e-13 0)
(0.274903 3.02799e-13 0)
(0.274903 3.58616e-13 0)
(0.274903 3.7915e-13 0)
(0.274903 3.62742e-13 0)
(0.274903 3.11223e-13 0)
(0.274903 2.29639e-13 0)
(0.274903 1.26093e-13 0)
(0.274903 1.00538e-14 0)
(0.324891 -1.52488e-13 0)
(0.324891 -2.77602e-13 0)
(0.324891 -3.76097e-13 0)
(0.324891 -4.37747e-13 0)
(0.324891 -4.56798e-13 0)
(0.324891 -4.3073e-13 0)
(0.324891 -3.62296e-13 0)
(0.324891 -2.58072e-13 0)
(0.324891 -1.2843e-13 0)
(0.324891 1.36007e-14 0)
(0.324891 1.54291e-13 0)
(0.324891 2.79468e-13 0)
(0.324891 3.77329e-13 0)
(0.324891 4.37904e-13 0)
(0.324891 4.55717e-13 0)
(0.324891 4.28827e-13 0)
(0.324891 3.60306e-13 0)
(0.324891 2.56795e-13 0)
(0.324891 1.28344e-13 0)
(0.324891 -1.25299e-14 0)
(0.374882 -1.80173e-13 0)
(0.374882 -3.11369e-13 0)
(0.374882 -4.12058e-13 0)
(0.374882 -4.72897e-13 0)
(0.374882 -4.87085e-13 0)
(0.374882 -4.537e-13 0)
(0.374882 -3.75415e-13 0)
(0.374882 -2.60401e-13 0)
(0.374882 -1.19755e-13 0)
(0.374882 3.25484e-14 0)
(0.374882 1.81435e-13 0)
(0.374882 3.12644e-13 0)
(0.374882 4.12913e-13 0)
(0.374882 4.73008e-13 0)
(0.374882 4.86394e-13 0)
(0.374882 4.52538e-13 0)
(0.374882 3.7423e-13 0)
(0.374882 2.59681e-13 0)
(0.374882 1.19792e-13 0)
(0.374882 -3.17713e-14 0)
(0.424876 -1.85769e-13 0)
(0.424876 -3.08992e-13 0)
(0.424876 -4.02471e-13 0)
(0.424876 -4.56318e-13 0)
(0.424876 -4.65732e-13 0)
(0.424876 -4.2893e-13 0)
(0.424876 -3.50334e-13 0)
(0.424876 -2.37078e-13 0)
(0.424876 -1.00819e-13 0)
(0.424876 4.52865e-14 0)
(0.424876 1.86847e-13 0)
(0.424876 3.09902e-13 0)
(0.424876 4.02842e-13 0)
(0.424876 4.55973e-13 0)
(0.424876 4.64882e-13 0)
(0.424876 4.2792e-13 0)
(0.424876 3.49466e-13 0)
(0.424876 2.36665e-13 0)
(0.424876 1.01051e-13 0)
(0.424876 -4.4447e-14 0)
(0.474873 -1.70783e-13 0)
(0.474873 -2.74193e-13 0)
(0.474873 -3.50874e-13 0)
(0.474873 -3.93558e-13 0)
(0.474873 -3.97145e-13 0)
(0.474873 -3.6198e-13 0)
(0.474873 -2.90819e-13 0)
(0.474873 -1.91449e-13 0)
(0.474873 -7.31774e-14 0)
(0.474873 5.20164e-14 0)
(0.474873 1.71943e-13 0)
(0.474873 2.75013e-13 0)
(0.474873 3.50904e-13 0)
(0.474873 3.92788e-13 0)
(0.474873 3.95917e-13 0)
(0.474873 3.60743e-13 0)
(0.474873 2.8994e-13 0)
(0.474873 1.91152e-13 0)
(0.474873 7.35719e-14 0)
(0.474873 -5.1e-14 0)
(0.524873 -1.42059e-13 0)
(0.524873 -2.17139e-13 0)
(0.524873 -2.71342e-13 0)
(0.524873 -2.98831e-13 0)
(0.524873 -2.97189e-13 0)
(0.524873 -2.65816e-13 0)
(0.524873 -2.08665e-13 0)
(0.524873 -1.30646e-13 0)
(0.524873 -4.01674e-14 0)
(0.524873 5.43959e-14 0)
(0.524873 1.43377e-13 0)
(0.524873 2.18054e-13 0)
(0.524873 2.71447e-13 0)
(0.524873 2.98026e-13 0)
(0.524873 2.95867e-13 0)
(0.524873 2.64457e-13 0)
(0.524873 2.07719e-13 0)
(0.524873 1.30291e-13 0)
(0.524873 4.0572e-14 0)
(0.524873 -5.33104e-14 0)
(0.574876 -1.0762e-13 0)
(0.574876 -1.51894e-13 0)
(0.574876 -1.81293e-13 0)
(0.574876 -1.93281e-13 0)
(0.574876 -1.85926e-13 0)
(0.574876 -1.60598e-13 0)
(0.574876 -1.18993e-13 0)
(0.574876 -6.60409e-14 0)
(0.574876 -6.21516e-15 0)
(0.574876 5.39623e-14 0)
(0.574876 1.0893e-13 0)
(0.574876 1.53029e-13 0)
(0.574876 1.81801e-13 0)
(0.574876 1.92924e-13 0)
(0.574876 1.84931e-13 0)
(0.574876 1.59319e-13 0)
(0.574876 1.17946e-13 0)
(0.574876 6.54985e-14 0)
(0.574876 6.39548e-15 0)
(0.574876 -5.3081e-14 0)
(0.624882 -7.44675e-14 0)
(0.624882 -9.07407e-14 0)
(0.624882 -9.83121e-14 0)
(0.624882 -9.62344e-14 0)
(0.624882 -8.50134e-14 0)
(0.624882 -6.51022e-14 0)
(0.624882 -3.90104e-14 0)
(0.624882 -8.64911e-15 0)
(0.624882 2.24325e-14 0)
(0.624882 5.16543e-14 0)
(0.624882 7.5661e-14 0)
(0.624882 9.2186e-14 0)
(0.624882 9.94292e-14 0)
(0.624882 9.65995e-14 0)
(0.624882 8.45597e-14 0)
(0.624882 6.40475e-14 0)
(0.624882 3.77408e-14 0)
(0.624882 7.67036e-15 0)
(0.624882 -2.27777e-14 0)
(0.624882 -5.11874e-14 0)
(0.674891 -4.68865e-14 0)
(0.674891 -4.24317e-14 0)
(0.674891 -3.42085e-14 0)
(0.674891 -2.27317e-14 0)
(0.674891 -9.0853e-15 0)
(0.674891 5.30931e-15 0)
(0.674891 1.93989e-14 0)
(0.674891 3.15242e-14 0)
(0.674891 4.11182e-14 0)
(0.674891 4.66654e-14 0)
(0.674891 4.78949e-14 0)
(0.674891 4.41509e-14 0)
(0.674891 3.5841e-14 0)
(0.674891 2.37778e-14 0)
(0.674891 9.16809e-15 0)
(0.674891 -6.13791e-15 0)
(0.674891 -2.09672e-14 0)
(0.674891 -3.31465e-14 0)
(0.674891 -4.21305e-14 0)
(0.674891 -4.67458e-14 0)
(0.724903 -2.59725e-14 0)
(0.724903 -1.05016e-14 0)
(0.724903 5.9067e-15 0)
(0.724903 2.14549e-14 0)
(0.724903 3.46937e-14 0)
(0.724903 4.44805e-14 0)
(0.724903 4.98176e-14 0)
(0.724903 5.06885e-14 0)
(0.724903 4.67417e-14 0)
(0.724903 3.87e-14 0)
(0.724903 2.67809e-14 0)
(0.724903 1.2253e-14 0)
(0.724903 -3.85974e-15 0)
(0.724903 -1.99135e-14 0)
(0.724903 -3.42148e-14 0)
(0.724903 -4.52869e-14 0)
(0.724903 -5.16229e-14 0)
(0.724903 -5.27779e-14 0)
(0.724903 -4.8249e-14 0)
(0.724903 -3.91801e-14 0)
(0.774917 -1.15791e-14 0)
(0.774917 6.43274e-15 0)
(0.774917 2.35838e-14 0)
(0.774917 3.81881e-14 0)
(0.774917 4.87939e-14 0)
(0.774917 5.43646e-14 0)
(0.774917 5.48083e-14 0)
(0.774917 5.00535e-14 0)
(0.774917 4.09162e-14 0)
(0.774917 2.78036e-14 0)
(0.774917 1.22775e-14 0)
(0.774917 -4.71661e-15 0)
(0.774917 -2.13399e-14 0)
(0.774917 -3.64233e-14 0)
(0.774917 -4.8072e-14 0)
(0.774917 -5.51116e-14 0)
(0.774917 -5.66913e-14 0)
(0.774917 -5.2275e-14 0)
(0.774917 -4.25984e-14 0)
(0.774917 -2.83022e-14 0)
(0.824933 -2.47972e-15 0)
(0.824933 1.17295e-14 0)
(0.824933 2.48007e-14 0)
(0.824933 3.50029e-14 0)
(0.824933 4.17465e-14 0)
(0.824933 4.41292e-14 0)
(0.824933 4.23282e-14 0)
(0.824933 3.67251e-14 0)
(0.824933 2.7754e-14 0)
(0.824933 1.63228e-14 0)
(0.824933 3.17853e-15 0)
(0.824933 -1.0068e-14 0)
(0.824933 -2.27675e-14 0)
(0.824933 -3.33179e-14 0)
(0.824933 -4.1036e-14 0)
(0.824933 -4.47222e-14 0)
(0.824933 -4.39848e-14 0)
(0.824933 -3.86538e-14 0)
(0.824933 -2.91951e-14 0)
(0.824933 -1.67039e-14 0)
(0.874951 1.47195e-15 0)
(0.874951 9.8869e-15 0)
(0.874951 1.67651e-14 0)
(0.874951 2.214e-14 0)
(0.874951 2.48594e-14 0)
(0.874951 2.5374e-14 0)
(0.874951 2.3297e-14 0)
(0.874951 1.9202e-14 0)
(0.874951 1.34761e-14 0)
(0.874951 6.43075e-15 0)
(0.874951 -1.08298e-15 0)
(0.874951 -8.73533e-15 0)
(0.874951 -1.54197e-14 0)
(0.874951 -2.10131e-14 0)
(0.874951 -2.45562e-14 0)
(0.874951 -2.59522e-14 0)
(0.874951 -2.45435e-14 0)
(0.874951 -2.06351e-14 0)
(0.874951 -1.4471e-14 0)
(0.874951 -6.69628e-15 0)
(0.92497 1.99962e-15 0)
(0.92497 4.6202e-15 0)
(0.92497 7.11617e-15 0)
(0.92497 8.56437e-15 0)
(0.92497 9.17492e-15 0)
(0.92497 8.70404e-15 0)
(0.92497 7.6346e-15 0)
(0.92497 5.6999e-15 0)
(0.92497 3.41247e-15 0)
(0.92497 9.35652e-16 0)
(0.92497 -1.84187e-15 0)
(0.92497 -4.28883e-15 0)
(0.92497 -6.51677e-15 0)
(0.92497 -8.06794e-15 0)
(0.92497 -9.12707e-15 0)
(0.92497 -9.05411e-15 0)
(0.92497 -8.27757e-15 0)
(0.92497 -6.41591e-15 0)
(0.92497 -3.89801e-15 0)
(0.92497 -1.10467e-15 0)
(0.97499 6.69767e-16 0)
(0.97499 9.27677e-16 0)
(0.97499 1.14577e-15 0)
(0.97499 1.38319e-15 0)
(0.97499 1.17173e-15 0)
(0.97499 1.03815e-15 0)
(0.97499 6.98958e-16 0)
(0.97499 3.7836e-16 0)
(0.97499 6.17405e-17 0)
(0.97499 -2.09298e-16 0)
(0.97499 -4.71898e-16 0)
(0.97499 -7.8865e-16 0)
(0.97499 -8.17277e-16 0)
(0.97499 -1.06023e-15 0)
(0.97499 -9.30711e-16 0)
(0.97499 -8.83407e-16 0)
(0.97499 -6.30569e-16 0)
(0.97499 -2.91921e-16 0)
(0.97499 7.06181e-17 0)
(0.97499 4.35243e-16 0)
)
;

boundaryField
{
    movingWall
    {
        type            fixedValue;
        value           uniform (1 0 0);
    }
    fixedWalls
    {
        type            noSlip;
    }
    left
    {
        type            cyclic;
    }
    right
    {
        type            cyclic;
    }
    frontAndBack
    {
        type            empty;
    }
}


// ************************************************************************* //
