/*--------------------------------*- C++ -*----------------------------------*\
  =========                 |
  \\      /  F ield         | OpenFOAM: The Open Source CFD Toolbox
   \\    /   O peration     | Website:  https://openfoam.org
    \\  /    A nd           | Version:  8
     \\/     M anipulation  |
\*---------------------------------------------------------------------------*/
FoamFile
{
    version     2.0;
    format      ascii;
    class       volScalarField;
    location    "29";
    object      p;
}
// * * * * * * * * * * * * * * * * * * * * * * * * * * * * * * * * * * * * * //

dimensions      [0 2 -2 0 0 0 0];

internalField   nonuniform List<scalar> 
2844
(
-0.0553544
-0.0643128
-0.0884409
-0.121627
-0.135904
-0.143181
-0.137619
-0.120812
-0.108514
-0.0932582
-0.0777696
-0.0628684
-0.0512067
-0.0394708
-0.0278767
-0.0189383
-0.00818917
-0.00186327
-9.91641e-05
0.000258227
-0.0483468
-0.0553534
-0.0851115
-0.121302
-0.143234
-0.147271
-0.142958
-0.121238
-0.10699
-0.0941077
-0.0775617
-0.0614302
-0.0485382
-0.0353878
-0.0243422
-0.0145563
-0.0025196
0.00229382
0.00236079
0.00161204
-0.0335209
-0.0499151
-0.0936315
-0.151474
-0.160783
-0.167264
-0.15405
-0.123529
-0.114797
-0.0953508
-0.0776549
-0.0644912
-0.0571354
-0.0438598
-0.031577
-0.0223936
-0.00733064
-0.000185137
0.00291433
0.0016658
-0.00612049
-0.0112358
-0.0882888
-0.142008
-0.185615
-0.174653
-0.169126
-0.125916
-0.110799
-0.103322
-0.0776048
-0.062776
-0.0485222
-0.0264345
-0.0224536
-0.00398419
0.0133911
0.0146348
0.011313
0.00588974
0.0363869
-0.00422516
-0.112091
-0.271234
-0.247712
-0.245245
-0.21616
-0.1271
-0.12532
-0.109829
-0.0707344
-0.0671263
-0.0699071
-0.0621521
-0.0409068
-0.0313548
-0.00935313
0.00653167
0.0148708
0.00532576
0.113902
0.110061
-0.101732
-0.273412
-0.267309
-0.24991
-0.218438
-0.101733
-0.159097
-0.167707
-0.0789609
-0.0881438
-0.0455916
-0.0100438
-0.0300959
0.0301956
0.043222
0.0343528
0.0211887
0.000556292
0.208914
0.152841
-0.277535
-0.510873
-0.586865
-0.503125
-0.313703
-0.152459
-0.177424
-0.176945
-0.0445827
-0.110541
-0.122004
-0.142854
-0.0307306
-0.00942276
-0.0292894
0.000310555
-0.00237644
-0.0234955
0.421478
0.369796
-0.106341
-0.881
-1.03476
-0.543462
-0.4046
0.0814888
-0.276929
-0.321882
-0.0379952
-0.274185
-0.0905344
0.00714854
-0.0225395
0.0397618
0.064262
0.0852373
0.038256
-0.0140064
0.677645
0.645276
0.164403
-0.39423
-0.243442
-0.430922
-0.17364
-0.0981992
-0.360947
-0.00391441
0.138282
-0.00469735
0.0243622
0.0170094
-0.0357886
-0.120111
-0.0158852
0.934244
0.856794
1.16299
-0.38032
-0.389067
-0.420433
-0.323943
-0.278158
-0.286097
-0.253251
-0.0554529
-0.0369425
-0.0559899
-0.0388649
-0.114383
-0.150775
0.0228377
1.36463
0.893371
-0.437539
-0.499584
-0.279572
0.0368516
-0.215643
-0.00405209
-0.216196
-0.0941765
-0.053331
-0.0727521
-0.0869439
-0.102884
-0.105015
-0.00186026
0.602322
0.53384
-0.00895862
-0.502116
-0.746531
-0.175292
0.0844274
-0.0833369
0.0531714
-0.137864
-0.191144
-0.0694754
-0.129997
-0.0353606
-0.025337
-0.0348966
0.00569148
0.395605
0.124691
-0.252957
-0.534976
-0.395549
-0.66475
-0.0943596
0.0888774
0.106803
0.0941114
-0.115817
-0.182154
-0.00409836
-0.0947626
-0.117124
-0.0667424
-0.0289495
-0.0129504
0.2078
0.0693996
-0.131967
-0.54609
-0.990989
-0.284985
-0.330832
-0.392271
-0.118424
-0.003816
-0.0300183
0.0258196
-0.0552116
-0.113758
-0.0771564
-0.0325828
-0.0336508
-0.0391666
-0.0163881
-0.0177794
0.0685623
-0.0279454
-0.157912
-0.368291
-0.493987
-0.35016
-0.28367
-0.270905
-0.125443
-0.0763813
-0.0417756
-0.00361849
-0.0583376
-0.060559
-0.0234321
-0.026903
-0.0319209
-0.021929
-0.00547201
-0.00173506
0.0113006
-0.0479272
-0.103117
-0.26091
-0.274529
-0.234996
-0.192727
-0.204801
-0.134207
-0.0791352
-0.0515908
-0.0240648
-0.0231211
-0.0280123
-0.0281897
-0.0181528
-0.0194572
-0.0145066
-0.00348614
-0.00309984
-0.0517862
-0.0847587
-0.129851
-0.204929
-0.241703
-0.228605
-0.202604
-0.176364
-0.131609
-0.0922331
-0.0645398
-0.0418886
-0.0322039
-0.0303323
-0.0226382
-0.0180143
-0.0188486
-0.0106335
-0.00384978
-0.00175948
-0.0705253
-0.0931868
-0.123608
-0.174396
-0.197249
-0.193417
-0.165383
-0.155646
-0.124367
-0.091141
-0.0692987
-0.0476925
-0.0307104
-0.0289206
-0.0249803
-0.0172238
-0.0149485
-0.0101814
-0.00435435
-0.00159741
-0.0926858
-0.106244
-0.131599
-0.159026
-0.176965
-0.179658
-0.167375
-0.148743
-0.124936
-0.0974773
-0.0734805
-0.055763
-0.0400555
-0.0307367
-0.0240679
-0.0172011
-0.013716
-0.0085697
-0.00376861
-0.00129161
-0.0974535
-0.108634
-0.130207
-0.152775
-0.169594
-0.173289
-0.159627
-0.143369
-0.121382
-0.0957326
-0.0743175
-0.0573652
-0.0405086
-0.0315059
-0.0249229
-0.0175079
-0.0134162
-0.00881597
-0.00407416
-0.00134412
-0.0553545
-0.0643215
-0.0884984
-0.121588
-0.1359
-0.143171
-0.137616
-0.120816
-0.108528
-0.0932541
-0.077764
-0.0628729
-0.0512112
-0.0394779
-0.0278866
-0.0189498
-0.00820844
-0.00188716
-0.000111617
0.000258187
-0.0483493
-0.0554056
-0.0848458
-0.121303
-0.143195
-0.147293
-0.142929
-0.121243
-0.106979
-0.0941067
-0.07756
-0.061452
-0.0485763
-0.0354057
-0.0244602
-0.0145985
-0.0026005
0.00227163
0.00235317
0.00162065
-0.0335741
-0.0504308
-0.0939348
-0.151194
-0.160658
-0.166991
-0.153908
-0.123741
-0.115166
-0.0954124
-0.0776686
-0.0644625
-0.0572736
-0.0439896
-0.0316419
-0.0224555
-0.00755739
-0.000376342
0.00272581
0.00163885
-0.00610537
-0.011719
-0.0882131
-0.141275
-0.185754
-0.174985
-0.168161
-0.126092
-0.110956
-0.104097
-0.0776685
-0.0629721
-0.0493678
-0.0272315
-0.0226284
-0.00456531
0.012997
0.014126
0.0108571
0.00572478
0.036545
-0.00651195
-0.111863
-0.270465
-0.245318
-0.244686
-0.213519
-0.126838
-0.128484
-0.111929
-0.0717932
-0.0677494
-0.0713995
-0.0620711
-0.04094
-0.0319909
-0.0100957
0.0052941
0.0128969
0.00470724
0.113322
0.106004
-0.0968182
-0.260702
-0.27856
-0.252375
-0.21704
-0.105
-0.170898
-0.168274
-0.0802916
-0.0895553
-0.0472675
-0.0138937
-0.0294287
0.0309723
0.0422131
0.0315014
0.0194592
0.00129285
0.208111
0.149169
-0.296955
-0.521768
-0.586315
-0.504542
-0.305053
-0.14227
-0.175094
-0.187926
-0.0556716
-0.113258
-0.124264
-0.151887
-0.0293014
-0.0126124
-0.037785
-0.00405238
-0.00122791
-0.0230239
0.40488
0.3324
-0.125358
-0.915193
-1.07105
-0.549014
-0.389664
0.090026
-0.295951
-0.379069
-0.0791354
-0.265837
-0.0865399
0.000852894
-0.0223106
0.0412746
0.0629687
0.0957657
0.0492236
-0.0164985
0.679936
0.674676
0.144015
-0.40112
-0.24359
-0.451877
-0.188479
-0.10854
-0.334239
-0.0114581
0.115497
-0.0066943
0.0249938
0.0220718
-0.0269121
-0.110853
-0.018678
0.957608
0.746122
1.01441
-0.380004
-0.409483
-0.463687
-0.297901
-0.272475
-0.303072
-0.256882
-0.0573702
-0.0458134
-0.0604423
-0.0407041
-0.121497
-0.15409
0.0255943
1.36621
0.860952
-0.447091
-0.50271
-0.340468
0.0468144
-0.22966
-0.0228947
-0.279566
-0.0967696
-0.0603144
-0.0741003
-0.0851721
-0.113828
-0.106896
0.00370348
0.572896
0.563912
0.0838437
-0.481916
-0.796477
-0.228809
0.0698377
-0.104877
0.0356967
-0.170376
-0.180606
-0.0804124
-0.135172
-0.0374205
-0.0354652
-0.0397111
0.00548995
0.388251
0.123888
-0.309683
-0.533156
-0.421447
-0.668373
-0.107896
0.0726293
0.110584
0.0683707
-0.136865
-0.176795
-0.00127474
-0.0982819
-0.120516
-0.0712752
-0.0317523
-0.0166791
0.202461
0.0726019
-0.177765
-0.596912
-0.963869
-0.276186
-0.333732
-0.401348
-0.12636
-0.00955332
-0.0308828
0.0211731
-0.0659585
-0.118459
-0.0754958
-0.03268
-0.0351277
-0.0340502
-0.0153309
-0.0190444
0.068283
-0.028529
-0.149543
-0.345081
-0.500251
-0.354165
-0.285048
-0.2661
-0.126531
-0.0756005
-0.0431396
-0.00714003
-0.0611229
-0.0639353
-0.0263589
-0.0267915
-0.033957
-0.0222812
-0.00598022
-0.00213693
0.0113504
-0.0480688
-0.101384
-0.259094
-0.274595
-0.235111
-0.191905
-0.203528
-0.133203
-0.0790484
-0.0525593
-0.0268946
-0.0229979
-0.0268852
-0.0281517
-0.0182447
-0.0194896
-0.014211
-0.0032253
-0.00285138
-0.0518949
-0.0847746
-0.128904
-0.203978
-0.242011
-0.229973
-0.202546
-0.175366
-0.130949
-0.0919628
-0.0658071
-0.041894
-0.0327766
-0.0313122
-0.0226726
-0.0180758
-0.019054
-0.0106647
-0.0038167
-0.0017448
-0.0705183
-0.09318
-0.123679
-0.174472
-0.197388
-0.193254
-0.165216
-0.155531
-0.12416
-0.0910635
-0.0693875
-0.0477
-0.0306958
-0.0288887
-0.0249501
-0.0171137
-0.0149163
-0.0101634
-0.00435819
-0.00160765
-0.0926841
-0.106231
-0.1317
-0.159076
-0.176917
-0.179773
-0.167402
-0.148657
-0.124883
-0.0974718
-0.0735057
-0.0557417
-0.0400615
-0.0307681
-0.0240879
-0.0171965
-0.0137207
-0.0085767
-0.00376781
-0.00128947
-0.0974511
-0.108633
-0.130221
-0.152792
-0.169578
-0.173286
-0.159619
-0.143361
-0.121368
-0.0957248
-0.0743259
-0.0573613
-0.0405092
-0.0315094
-0.0249222
-0.0175046
-0.0134184
-0.00881542
-0.00407239
-0.00134346
-0.0553555
-0.0643243
-0.088636
-0.121527
-0.135887
-0.143141
-0.137601
-0.120816
-0.108529
-0.0932507
-0.0777602
-0.06288
-0.0512146
-0.0394837
-0.0278953
-0.0189535
-0.00821308
-0.00189969
-0.000118502
0.000258445
-0.0483504
-0.0554183
-0.0841288
-0.121237
-0.143096
-0.147316
-0.142869
-0.121223
-0.106949
-0.0940968
-0.0775595
-0.0614798
-0.0486407
-0.0354228
-0.0245364
-0.0146171
-0.00261131
0.00226424
0.00234616
0.0016394
-0.0336151
-0.0507824
-0.0945422
-0.150378
-0.160445
-0.16652
-0.153612
-0.123693
-0.115217
-0.0954048
-0.0777116
-0.064434
-0.0573409
-0.0440783
-0.0317354
-0.0224943
-0.00759674
-0.000453285
0.00267619
0.00165098
-0.00601064
-0.011884
-0.0880183
-0.139659
-0.184558
-0.175291
-0.167329
-0.125439
-0.110499
-0.104182
-0.0776287
-0.0630068
-0.0503479
-0.0273883
-0.0226371
-0.00495269
0.0126641
0.0140074
0.0110042
0.00586166
0.036405
-0.00743633
-0.110389
-0.26692
-0.240821
-0.240833
-0.210353
-0.126827
-0.127815
-0.111891
-0.0724598
-0.0676211
-0.0706378
-0.0622912
-0.0411221
-0.0312082
-0.0103607
0.0055896
0.0124982
0.00455307
0.113203
0.103549
-0.0950071
-0.247413
-0.301091
-0.262753
-0.214994
-0.0954328
-0.159329
-0.167096
-0.079711
-0.0895773
-0.0536577
-0.0205586
-0.0275402
0.0285675
0.0408154
0.0319316
0.0223063
0.00243244
0.211389
0.148131
-0.275941
-0.517635
-0.584342
-0.465561
-0.309846
-0.13096
-0.146577
-0.194013
-0.0585961
-0.121055
-0.121415
-0.146693
-0.0291913
-0.0065021
-0.0323947
-0.000414255
0.000933746
-0.0217174
0.420183
0.29528
-0.141466
-0.87788
-1.04628
-0.540365
-0.41975
0.175711
-0.248754
-0.39349
-0.0857493
-0.246187
-0.0503225
0.0170453
-0.0260455
0.0482569
0.0587728
0.0930889
0.0509741
-0.0177148
0.737584
0.750212
0.00298246
-0.42073
-0.179905
-0.435966
-0.222959
-0.101842
-0.300377
0.0126856
0.108625
-0.0105413
0.0304438
0.0171821
-0.0170443
-0.102718
-0.0217144
0.945716
0.769926
0.862632
-0.377959
-0.363996
-0.443787
-0.312579
-0.276549
-0.268187
-0.225658
-0.08999
-0.0444072
-0.056226
-0.0448066
-0.119326
-0.151052
0.0278934
1.40977
0.812785
-0.431985
-0.464924
-0.300726
0.0336224
-0.236692
-0.0244603
-0.256124
-0.104467
-0.053195
-0.0735604
-0.0908194
-0.123415
-0.105419
0.0157278
0.572506
0.539621
0.569493
-0.478411
-0.76646
-0.226713
0.106067
-0.0926522
0.00987217
-0.158492
-0.158191
-0.0721148
-0.132563
-0.0354634
-0.0422171
-0.0369434
0.0105079
0.400306
0.133743
-0.397445
-0.522027
-0.445227
-0.654981
-0.0636124
0.124638
0.115138
0.0681777
-0.145003
-0.159475
0.00054527
-0.0970371
-0.11529
-0.0662983
-0.0312927
-0.0185214
0.204564
0.0879105
-0.168198
-0.585845
-0.949024
-0.272257
-0.33261
-0.412436
-0.115083
-0.0134375
-0.0194304
0.0262965
-0.0768647
-0.124847
-0.0742752
-0.032612
-0.0292477
-0.0244609
-0.0149772
-0.0217946
0.0682144
-0.0231824
-0.148141
-0.335131
-0.524893
-0.348379
-0.28161
-0.264028
-0.123309
-0.0715039
-0.0325525
-0.00316779
-0.060862
-0.0641693
-0.0199912
-0.0208236
-0.032409
-0.0224094
-0.00569289
-0.00185646
0.0112298
-0.0476094
-0.104762
-0.260697
-0.274915
-0.235814
-0.189977
-0.200968
-0.130181
-0.0774831
-0.0518481
-0.0231861
-0.0203928
-0.0246327
-0.0286698
-0.0186542
-0.0193346
-0.0138527
-0.00308377
-0.00297211
-0.0519593
-0.0845892
-0.129278
-0.204647
-0.242549
-0.230932
-0.202071
-0.174532
-0.130017
-0.0915309
-0.0656073
-0.0408772
-0.0307625
-0.0309772
-0.0221095
-0.0175241
-0.0192114
-0.010719
-0.00369958
-0.00166814
-0.07052
-0.0931612
-0.123836
-0.174708
-0.197337
-0.192796
-0.164953
-0.155318
-0.123856
-0.0909539
-0.0694508
-0.0474055
-0.0302836
-0.0287704
-0.0249381
-0.017153
-0.0149311
-0.0101358
-0.00436985
-0.001625
-0.0926823
-0.106215
-0.131804
-0.159139
-0.176807
-0.179838
-0.167414
-0.148596
-0.12484
-0.0974262
-0.0735066
-0.0556505
-0.0400021
-0.0307835
-0.024085
-0.0171812
-0.0137198
-0.00858275
-0.00376105
-0.00128708
-0.0974504
-0.108632
-0.130234
-0.152796
-0.169541
-0.173276
-0.159607
-0.143352
-0.12136
-0.0957203
-0.0743255
-0.0573512
-0.0404898
-0.0315088
-0.0249214
-0.017505
-0.0134224
-0.00881578
-0.00406977
-0.00134426
-0.366075
-0.205175
-1.15313
-0.114707
-0.396493
-0.238163
-1.09975
-1.15443
-0.914665
-1.15509
-0.585937
-1.06504
-0.612537
-0.311456
-0.570414
-0.258816
-0.563453
-0.304823
-0.582099
-0.260194
0.57495
0.826591
0.970739
0.660463
0.5577
0.806129
0.933065
0.882237
0.143793
0.821073
-0.32502
-0.328744
-0.332168
-0.328981
-0.352776
-0.345762
-0.371968
-0.400044
-0.360789
-0.347793
-0.378596
1.18987
0.834011
1.4256
0.794997
1.07977
0.82588
1.50594
1.10662
-0.359903
-0.359159
-0.390782
-0.409855
-0.464231
-0.380337
-0.390531
-0.411435
-0.469625
1.63935
0.710735
1.49917
0.877672
1.70414
0.711838
1.40862
1.9856
1.92969
-0.431177
-0.434535
-0.521204
-0.420008
-0.495311
-0.444196
-0.528292
-0.427748
-0.50571
0.724384
0.45334
0.520905
0.53079
0.580322
0.428009
0.511752
-0.0818337
0.0348131
-0.0799332
-0.474158
-0.466903
-0.481662
-0.489918
-0.562935
-0.443976
-0.490033
-0.495758
-0.555948
-0.4613
-0.496663
-1.21422
-0.191503
-0.627138
-0.273548
-1.22761
-0.212619
-0.634638
-0.927402
-1.10875
-0.941378
-1.11971
-1.02846
-0.712757
-1.06042
-0.733883
-0.524792
-0.551516
-0.491344
-0.534621
-0.543651
-0.584806
-0.507362
-0.456123
-0.233879
-1.08287
-0.126357
-0.501865
-0.19719
-1.08512
-1.1508
-0.882885
-1.12269
-0.618646
-1.06276
-0.621678
-0.311272
-0.567662
-0.287039
-0.549075
-0.313283
-0.491657
-0.30795
0.523828
0.784099
0.841689
0.704339
0.481438
0.775877
0.789902
0.766897
0.048541
0.670894
-0.330056
-0.327312
-0.320315
-0.329974
-0.345054
-0.350375
-0.375116
-0.415161
-0.348431
-0.35981
-0.381121
1.00305
0.82444
1.56547
0.741967
0.907261
0.894397
1.6976
0.841516
-0.358616
-0.357894
-0.392741
-0.412086
-0.477991
-0.378526
-0.393642
-0.409954
-0.486186
1.70265
0.770609
1.32232
0.845707
1.59685
0.604326
0.84179
1.81283
1.28552
-0.436291
-0.424025
-0.541885
-0.431903
-0.503754
-0.442518
-0.552483
-0.43452
-0.500716
0.53322
0.40566
0.520852
0.54967
0.62396
0.403466
0.541321
-0.0544348
0.408662
-0.00892276
-0.484523
-0.497854
-0.50123
-0.4943
-0.544301
-0.472348
-0.491469
-0.473096
-0.5416
-0.44949
-0.46711
-1.24069
-0.225427
-0.599525
-0.339554
-1.28068
-0.222384
-0.588472
-0.942681
-1.12627
-0.940898
-1.11859
-1.06223
-0.737969
-1.04808
-0.748776
-0.534278
-0.590281
-0.505361
-0.525784
-0.517932
-0.588172
-0.489493
-0.533769
-0.191964
-1.09456
-0.120797
-0.529242
-0.152378
-1.06713
-1.11816
-0.844778
-1.10147
-0.61383
-1.00794
-0.580686
-0.314353
-0.472488
-0.328346
-0.521574
-0.31804
-0.448348
-0.338401
0.446572
0.786542
0.792635
0.799102
0.534437
0.845892
0.851052
0.666204
-0.0647548
0.760673
-0.320637
-0.330952
-0.322217
-0.333602
-0.34411
-0.366352
-0.381506
-0.424284
-0.340876
-0.373598
-0.384381
0.946282
0.771251
1.63953
0.831762
1.11896
0.809402
1.61528
0.918849
-0.357931
-0.358325
-0.393088
-0.405867
-0.491346
-0.376864
-0.389607
-0.391377
-0.483878
1.57813
0.611015
0.769166
0.805934
1.60333
0.762377
1.15756
1.17325
1.2614
-0.412211
-0.378129
-0.55189
-0.430424
-0.495917
-0.395754
-0.539982
-0.41179
-0.489668
0.738773
0.404234
0.544971
0.594114
0.902014
0.429243
0.637774
-0.000431662
0.766529
0.0800438
-0.503991
-0.486494
-0.51353
-0.478428
-0.542377
-0.446076
-0.476625
-0.480837
-0.542748
-0.444839
-0.471099
-1.26783
-0.222587
-0.582532
-0.418398
-1.18699
-0.223005
-0.540313
-0.935937
-1.11705
-0.941547
-1.09429
-1.02845
-0.745835
-0.977886
-0.731394
-0.509101
-0.594822
-0.497445
-0.52055
-0.507687
-0.568842
-0.499722
-0.600095
-0.657823
-0.729137
-0.526397
-0.604843
-0.691349
-0.731596
-0.506821
-0.788829
-0.558858
-0.581349
-0.511286
-0.79508
-0.5439
-1.29443
-1.1034
-0.934209
-0.898395
-1.10702
-0.961951
-1.27071
-1.13996
-0.859666
-1.34527
-1.04427
-0.868822
-1.36033
-1.13372
-0.102745
-0.193546
0.17776
0.161307
-0.184699
0.175441
-0.109288
-0.351672
-0.368228
1.16378
-0.378672
-0.373906
-0.371614
-0.38027
-0.374584
-0.372077
-0.377929
-0.46763
-0.455573
-0.436748
-0.438959
-0.458003
-0.438818
-0.465582
0.0260473
-0.000540415
0.0349092
-1.75512
-1.35595
-1.3803
-1.73217
-0.627067
-0.558843
-0.573698
-0.534891
-0.555519
-0.57212
-0.630707
-0.954078
-0.614613
-0.652526
-0.573312
-0.957391
-0.620137
-0.664455
-0.786882
-0.576791
-0.471874
-0.974058
-0.781192
-0.574952
-0.483787
-0.605185
-0.701914
-0.74128
-0.515726
-0.59676
-0.684829
-0.731545
-0.517166
-0.801639
-0.537202
-0.586942
-0.521053
-0.8167
-0.509967
-1.34852
-1.08586
-1.00943
-0.905478
-1.34071
-1.06994
-1.02494
-1.17561
-0.881055
-1.42595
-1.07584
-1.17527
-0.881689
-1.44499
-0.0782047
-0.14168
0.184012
0.108611
-0.0679345
-0.138184
0.183879
-0.381001
-0.369507
0.921124
-0.378473
-0.377261
-0.372137
-0.379521
-0.378426
-0.378799
-0.371851
-0.485672
-0.474458
-0.451472
-0.448955
-0.480658
-0.480864
-0.454736
0.10109
0.151547
0.132454
-1.85526
-1.44526
-1.82043
-1.46923
-0.598356
-0.550945
-0.561136
-0.531439
-0.607654
-0.544839
-0.557385
-0.951513
-0.619472
-0.682701
-0.586378
-0.937204
-0.57729
-0.666513
-0.757469
-0.575489
-0.468032
-0.958137
-0.751902
-0.575072
-0.476805
-0.589098
-0.682354
-0.74898
-0.519343
-0.583666
-0.654317
-0.748447
-0.522795
-0.830055
-0.476502
-0.570882
-0.500628
-0.842349
-0.450642
-1.31133
-1.03634
-1.0464
-0.872401
-1.32681
-1.03151
-1.04952
-1.1615
-0.882003
-1.44757
-1.03238
-1.1619
-0.883125
-1.43632
-0.224354
-0.199521
0.190741
-0.0283445
-0.19236
-0.219026
0.224894
-0.338221
-0.335851
0.884674
-0.38335
-0.384278
-0.371484
-0.377424
-0.381935
-0.385462
-0.371236
-0.485896
-0.484835
-0.443409
-0.418112
-0.486637
-0.480912
-0.431611
0.206694
0.68646
0.200251
-1.86921
-1.48829
-1.87103
-1.47382
-0.570392
-0.529953
-0.538323
-0.519887
-0.573922
-0.529815
-0.532597
-0.927672
-0.568595
-0.653225
-0.611309
-0.932057
-0.580102
-0.648134
-0.728338
-0.573739
-0.488353
-0.953582
-0.717421
-0.576646
-0.491825
-0.609374
-1.04837
-0.68539
-1.14734
-1.04561
-0.702509
-0.60258
-0.602704
-1.12355
-1.0027
-0.71114
-1.02711
-0.707195
-0.589503
-1.4594
-1.17993
-1.4876
-1.15987
-1.17939
-1.49795
-1.45483
-1.86202
-1.44034
-1.44377
-1.8557
-1.30272
-0.912948
-1.09392
-0.987246
-1.10278
-0.973931
-1.32139
-1.46021
-1.15711
-1.15669
-1.52185
-1.16696
-1.50978
-1.45675
-1.8585
-1.41811
-1.43464
-1.84489
-0.826237
-0.733788
-0.64205
-0.594627
-0.743862
-0.641605
-0.823757
-0.820618
-0.598208
-0.614044
-0.807042
-1.15139
-1.0559
-0.878092
-1.4027
-0.874618
-1.37925
-1.16339
-0.832319
-0.603913
-0.738965
-0.652781
-0.734557
-0.652492
-0.84293
-0.843332
-0.642489
-0.631889
-0.874492
-0.464355
-0.622612
-0.349378
-0.574079
-0.627067
-0.382731
-0.433025
-0.487678
-0.583824
-0.585914
-0.436503
-0.612953
-0.418886
-0.486328
-0.612691
-0.614343
0.409613
0.875359
0.401146
-0.079677
0.162941
-0.156664
0.177982
-0.167655
0.172725
-0.0569468
-0.60308
-0.613208
0.862057
0.348106
0.383208
-0.355172
-0.35687
-0.308487
-0.329304
-0.363882
-0.312355
-0.356146
-0.323297
-0.329095
-0.323777
-0.385822
-0.381294
-0.353348
-0.331153
-0.360666
-0.319265
-0.364418
-0.315574
-0.350942
-0.328035
-0.324453
-0.32361
1.23357
1.17236
1.6436
1.18827
1.15455
1.63709
1.24778
0.912846
1.38996
0.970128
1.4461
1.39418
0.967174
0.930829
1.19951
1.15939
1.03555
1.50161
1.11585
1.60713
1.11489
0.880909
1.47196
1.34797
0.958171
1.38816
0.973159
0.814315
1.18665
-0.359813
-0.359534
-0.411166
-0.403013
-0.420904
-0.41019
-0.403416
-0.422177
-0.410185
-0.378502
-0.380361
-0.376083
-0.372417
-0.374749
-0.372402
-0.378653
-0.412394
-0.410775
-0.40426
-0.428245
-0.403955
-0.424385
-0.413924
0.886625
1.17589
1.57785
1.65724
1.19565
1.55624
0.919117
1.36996
2.10798
0.983843
1.495
2.09708
0.963728
1.39495
0.844477
1.67932
1.25689
1.44628
1.22385
1.50295
0.824651
1.28349
1.47005
1.89472
0.905666
2.03362
0.938086
1.15721
2.01982
2.03847
-0.431847
-0.432022
-0.467564
-0.454863
-0.462581
-0.419876
-0.456576
-0.462395
-0.465546
-0.470953
-0.441341
-0.468167
-0.446969
-0.461848
-0.442509
-0.47637
-0.471308
-0.424511
-0.463057
-0.47361
-0.459828
-0.470063
-0.477989
-0.666257
0.0821855
-0.488331
-0.0724382
0.0825248
-0.49173
-0.648875
-0.730847
-0.735896
0.00902631
0.0698627
0.0486206
-0.664185
-0.0659636
0.11883
-0.5334
0.0926289
-0.5058
-0.684191
-0.755521
-0.759568
-0.448051
-0.476131
-0.449995
-0.542496
-0.545474
-0.526314
-0.49635
-0.491895
-0.471883
-0.498753
-0.500318
-0.522261
-0.477005
-0.457878
-0.453048
-0.551151
-0.551034
-0.530286
-0.480882
-0.508054
-0.51433
-0.506375
-0.509678
-0.528622
-0.757543
-0.838436
-1.03722
-1.22536
-0.850594
-1.03559
-0.746576
-0.752661
-1.21977
-0.850349
-1.03407
-0.846256
-1.03184
-0.755014
-1.41661
-1.20167
-1.01905
-0.957643
-1.22384
-1.03601
-1.40635
-1.5103
-1.55061
-1.10175
-1.12572
-1.56883
-1.11168
-1.49635
-1.78735
-1.42706
-1.40449
-1.80801
-1.41608
-0.95738
-1.18474
-1.0383
-1.20196
-1.03703
-1.41868
-1.51721
-1.12361
-1.58525
-1.10145
-1.57878
-1.10069
-1.52187
-1.02593
-0.742811
-0.74485
-1.0214
-1.21663
-1.49041
-0.964514
-1.04451
-1.50932
-0.976899
-1.20918
-0.923654
-0.694981
-0.859495
-0.72301
-0.700984
-0.863703
-0.918722
-1.0277
-0.752968
-0.746404
-1.03488
-1.2206
-1.05491
-1.53521
-0.984143
-1.52131
-0.981867
-1.2229
-0.933602
-0.727346
-0.723447
-0.839585
-0.712207
-0.848204
-0.94526
-0.6251
-0.534747
-0.55366
-0.565367
-0.559101
-0.568557
-0.615001
-0.57963
-0.980486
-0.713963
-1.06961
-0.586775
-0.951602
-0.71287
-0.583395
-1.07812
-0.909154
-0.705682
-0.927639
-0.707831
-0.59358
-1.4378
-1.14757
-1.53157
-1.14151
-1.44822
-1.1336
-1.53693
-1.7993
-1.40165
-1.82362
-1.38616
-1.34803
-0.895018
-1.04311
-1.03989
-1.05595
-1.0364
-1.33934
-1.42868
-1.1306
-1.11106
-1.53413
-1.11987
-1.53818
-1.41862
-1.77095
-1.36814
-1.3754
-1.74832
-0.866398
-0.731644
-0.661021
-0.623572
-0.853722
-0.725288
-0.662426
-0.91879
-0.653834
-0.897709
-0.66306
-1.17032
-1.07171
-0.887016
-1.45427
-0.877789
-1.45392
-1.16447
-0.875922
-0.622315
-0.702924
-0.665266
-0.711584
-0.665072
-0.882144
-0.930686
-0.669469
-0.668724
-0.935569
-0.421935
-0.549291
-0.433555
-0.543674
-0.457647
-0.520135
-0.418075
-0.384103
-0.518005
-0.472939
-0.379325
-0.494983
-0.397427
-0.349322
-0.587554
-0.566786
0.313818
0.724849
0.295023
-0.118003
0.0877151
-0.167036
0.179651
-0.146252
0.179649
-0.149964
-0.549961
-0.559971
0.687211
0.28231
0.276886
-0.344348
-0.355344
-0.322298
-0.326084
-0.347922
-0.346033
-0.325139
-0.323644
-0.328476
-0.325011
-0.344533
-0.355746
-0.340825
-0.322899
-0.33588
-0.329169
-0.340238
-0.327236
-0.338088
-0.328741
-0.326939
-0.325581
0.963646
0.973247
1.35721
0.945119
1.03301
0.928903
1.2275
0.689504
1.28291
1.02104
1.64221
0.758584
1.22939
1.08402
0.900495
0.906203
0.902605
1.065
0.893186
1.13166
0.843742
0.70299
1.71896
1.47186
1.17388
1.29501
1.13616
0.786579
0.859885
-0.358231
-0.357978
-0.41464
-0.404153
-0.431965
-0.412438
-0.414301
-0.403461
-0.436892
-0.379473
-0.379049
-0.382816
-0.371604
-0.381145
-0.371712
-0.380587
-0.412952
-0.412026
-0.400457
-0.444196
-0.402222
-0.439984
-0.41256
0.801608
1.26894
1.40069
1.67426
0.81198
1.24573
1.36165
0.858711
1.73295
0.856095
1.17278
0.993163
1.56639
0.798448
0.800692
1.63504
1.16269
1.34341
1.20912
1.33891
0.811381
0.727948
0.996348
1.31207
0.578469
1.41947
0.69845
0.618324
1.65818
1.45376
-0.435823
-0.43176
-0.485628
-0.465796
-0.477773
-0.434553
-0.478656
-0.467756
-0.481838
-0.487606
-0.448067
-0.487646
-0.451676
-0.485315
-0.455326
-0.490159
-0.483599
-0.436236
-0.465281
-0.485233
-0.467872
-0.483997
-0.488851
-0.671048
0.164932
-0.548343
-0.0433504
-0.68956
0.180869
-0.56469
-0.724931
-0.688241
0.257018
0.190523
0.161769
-0.629243
-0.0283065
0.216619
-0.536717
0.198532
-0.5644
-0.584696
-0.651647
-0.65701
-0.459932
-0.491253
-0.462297
-0.54827
-0.542571
-0.505253
-0.516781
-0.510695
-0.49955
-0.519429
-0.504924
-0.501304
-0.493933
-0.462486
-0.461317
-0.529476
-0.535043
-0.49295
-0.498335
-0.498651
-0.485506
-0.503552
-0.491488
-0.486314
-0.749199
-0.850241
-1.02249
-1.2633
-0.750597
-0.852533
-1.00687
-0.750529
-1.27823
-0.861418
-1.00482
-0.852407
-0.997247
-0.745868
-1.42187
-1.17783
-1.04756
-0.931879
-1.42355
-1.16674
-1.05308
-1.53811
-1.5916
-1.11998
-1.12183
-1.52813
-1.59809
-1.11576
-1.86592
-1.49321
-1.48725
-1.87114
-1.4221
-0.931668
-1.18684
-1.07412
-1.17471
-1.06337
-1.4255
-1.54983
-1.12471
-1.60753
-1.14891
-1.6033
-1.14166
-1.55947
-1.05745
-0.760487
-1.04409
-0.768123
-1.22172
-1.5484
-0.988025
-1.0585
-1.22334
-1.55884
-0.987491
-0.968159
-0.733304
-0.832574
-0.742772
-0.956638
-0.742556
-0.830409
-1.07403
-0.782135
-0.776403
-1.09398
-1.21828
-1.05391
-1.57014
-0.992143
-1.5669
-0.99037
-1.21246
-0.979197
-0.746067
-0.763524
-0.831696
-0.752619
-0.830285
-0.990248
-0.587572
-0.529476
-0.532559
-0.545481
-0.53767
-0.551634
-0.578864
-0.619302
-0.896164
-0.709861
-1.0947
-0.60847
-0.881841
-0.695499
-0.627555
-1.08629
-0.86668
-0.619391
-0.875982
-0.667615
-0.604434
-1.41207
-1.10945
-1.53091
-1.11154
-1.4153
-1.10873
-1.52621
-1.75115
-1.36741
-1.74475
-1.3635
-1.30046
-0.862752
-1.01897
-1.03145
-1.02799
-1.05153
-1.28626
-1.41055
-1.10978
-1.10961
-1.51147
-1.11287
-1.52088
-1.40395
-1.75207
-1.32525
-1.35057
-1.74114
-0.883571
-0.687386
-0.662696
-0.604004
-0.884009
-0.680875
-0.658029
-0.922724
-0.6646
-0.934669
-0.65576
-1.16019
-1.01535
-0.880771
-1.42015
-0.882343
-1.43134
-1.15919
-0.885014
-0.593936
-0.671872
-0.647052
-0.677042
-0.652003
-0.885569
-0.912329
-0.628641
-0.641062
-0.90063
-0.295358
-0.455338
-0.363414
-0.459071
-0.316526
-0.441654
-0.358479
-0.280283
-0.451053
-0.427107
-0.355828
-0.432464
-0.355164
-0.2756
-0.541849
-0.522362
0.300737
0.693743
0.358982
-0.246469
-0.0598603
-0.203994
0.316578
-0.223749
0.276906
-0.246249
-0.428496
-0.471379
0.725064
0.489646
0.427532
-0.331886
-0.338084
-0.330584
-0.321006
-0.334892
-0.34051
-0.331343
-0.328291
-0.331923
-0.329566
-0.336629
-0.336576
-0.329075
-0.321876
-0.345686
-0.331397
-0.34443
-0.331187
-0.327313
-0.333143
-0.331377
-0.330752
0.738223
0.897981
1.00221
1.01871
0.791047
0.90315
0.956804
0.786292
1.54267
1.14967
1.61191
0.812985
1.52354
1.11246
0.739389
1.08329
0.878052
0.987647
0.894179
0.953311
0.782946
0.752256
1.60096
1.46273
1.081
1.47361
1.0548
0.789159
0.908861
-0.358064
-0.358228
-0.409001
-0.398187
-0.444175
-0.400264
-0.4099
-0.395686
-0.444592
-0.383946
-0.377049
-0.386373
-0.370864
-0.385988
-0.370858
-0.384556
-0.405742
-0.394309
-0.391598
-0.440934
-0.393039
-0.441409
-0.404455
0.829829
1.11596
1.36053
1.5806
0.815879
1.10487
1.39374
0.528482
1.23132
0.474198
0.855191
0.531919
1.26205
0.495972
0.864495
1.57964
1.2745
1.52
1.14574
1.451
0.946156
0.528752
1.02449
1.47624
0.560227
1.37866
0.500531
0.60274
1.15801
1.21601
-0.398479
-0.385052
-0.481518
-0.458815
-0.480973
-0.423767
-0.481182
-0.449808
-0.479119
-0.477704
-0.40358
-0.46424
-0.410607
-0.470478
-0.418329
-0.473486
-0.471551
-0.416531
-0.432844
-0.464192
-0.439059
-0.471435
-0.46576
-0.515042
0.197992
-0.48535
0.0277605
-0.548548
0.216051
-0.417439
-0.662673
-0.632664
0.740503
0.20069
0.201758
-0.452515
0.0589956
0.279875
-0.323945
0.253267
-0.353985
-0.419768
-0.535812
-0.564675
-0.458138
-0.50934
-0.459059
-0.52616
-0.52296
-0.484269
-0.491303
-0.482908
-0.482202
-0.484856
-0.489445
-0.480603
-0.511259
-0.456671
-0.456818
-0.516192
-0.517797
-0.48449
-0.479716
-0.483248
-0.47983
-0.484257
-0.481073
-0.484403
-0.75897
-0.897606
-1.03184
-1.2377
-0.754957
-0.946168
-1.05209
-0.748869
-1.19502
-0.960369
-1.04288
-0.965207
-1.05037
-0.728968
-1.44171
-1.19639
-1.08147
-0.954052
-1.43248
-1.20568
-1.09167
-1.57317
-1.60512
-1.16151
-1.10966
-1.56618
-1.60628
-1.17101
-1.87632
-1.45549
-1.45881
-1.87816
-1.44118
-0.945617
-1.16983
-1.09264
-1.18483
-1.0937
-1.431
-1.57938
-1.10276
-1.60611
-1.17942
-1.60797
-1.18307
-1.58
-1.11796
-0.785847
-1.11295
-0.78634
-1.19322
-1.57243
-0.991053
-1.01262
-1.20151
-1.57126
-0.987694
-1.00296
-0.766915
-0.837975
-0.740081
-1.00067
-0.766172
-0.84282
-1.11186
-0.7792
-0.783552
-1.09676
-1.18588
-0.998615
-1.56206
-0.980362
-1.57151
-0.98591
-1.17995
-0.999813
-0.738079
-0.760234
-0.861726
-0.762482
-0.85842
-0.993628
-0.564851
-0.520582
-0.523358
-0.533104
-0.522209
-0.533113
-0.564995
)
;

boundaryField
{
    inlet
    {
        type            zeroGradient;
    }
    outlet
    {
        type            fixedValue;
        value           uniform 0;
    }
    up
    {
        type            zeroGradient;
    }
    down
    {
        type            zeroGradient;
    }
    frontAndBack
    {
        type            zeroGradient;
    }
    cylinder
    {
        type            zeroGradient;
    }
}


// ************************************************************************* //
