/*--------------------------------*- C++ -*----------------------------------*\
  =========                 |
  \\      /  F ield         | OpenFOAM: The Open Source CFD Toolbox
   \\    /   O peration     | Website:  https://openfoam.org
    \\  /    A nd           | Version:  8
     \\/     M anipulation  |
\*---------------------------------------------------------------------------*/
FoamFile
{
    version     2.0;
    format      ascii;
    class       surfaceScalarField;
    location    "20.5";
    object      phi;
}
// * * * * * * * * * * * * * * * * * * * * * * * * * * * * * * * * * * * * * //

dimensions      [0 3 -1 0 0 0 0];

internalField   nonuniform List<scalar> 
208
(
6.15548e-06
-6.15548e-06
1.68712e-05
-1.07157e-05
1.80626e-05
-1.19139e-06
1.41798e-05
3.88281e-06
-4.48704e-05
5.90502e-05
9.10151e-05
-0.000135886
-2.95585e-06
-3.19963e-06
-1.01435e-05
-3.52806e-06
-2.78276e-05
1.64927e-05
-6.31808e-05
3.9236e-05
-0.000102262
9.8131e-05
0.000108165
-0.000119411
-6.04048e-06
2.84085e-06
-1.98642e-05
1.02957e-05
-3.70633e-05
3.36918e-05
-5.95245e-05
6.16972e-05
-7.67949e-05
0.000115401
0.000109987
-7.86176e-05
-8.93311e-06
1.1774e-05
-2.08236e-05
2.21861e-05
-3.10805e-05
4.39488e-05
-3.86111e-05
6.92277e-05
-4.05421e-05
0.000117332
0.000101903
-3.24582e-05
-5.14645e-06
1.69204e-05
-1.51861e-05
3.22258e-05
-1.92894e-05
4.8052e-05
-1.53998e-05
6.53382e-05
-1.35948e-06
0.000103292
8.47259e-05
1.58179e-05
-4.83832e-06
2.17587e-05
-7.64851e-06
3.5036e-05
-6.79275e-06
4.71963e-05
-7.89044e-07
5.93345e-05
1.71809e-05
8.53222e-05
6.85616e-05
3.33452e-05
3.30042e-07
2.14287e-05
-8.32241e-06
4.36884e-05
-8.40072e-06
4.72746e-05
-1.25712e-06
5.21909e-05
2.07442e-05
6.33208e-05
5.12499e-05
3.8056e-05
4.66717e-06
1.67615e-05
1.05068e-05
3.78489e-05
1.55221e-05
4.22592e-05
1.90134e-05
4.86995e-05
3.29534e-05
4.93809e-05
4.46064e-05
3.95969e-05
-4.91613e-05
6.59228e-05
-4.7445e-05
3.61326e-05
-3.97767e-05
3.45909e-05
-2.31277e-05
3.20505e-05
-7.30606e-07
2.69838e-05
2.46693e-05
1.92065e-05
6.59228e-05
0.000102055
0.000136646
0.000168697
0.000195681
0.00022035
-0.000126099
0.000119773
-0.000129559
-8.29559e-05
-5.2134e-05
8.99064e-06
-3.42253e-05
-6.36146e-05
1.4884e-05
-0.00013991
0.000105684
-0.000101103
0.000101465
-8.8124e-05
-6.51135e-05
-4.96123e-05
-0.000102126
-0.000189522
-5.21402e-05
7.49877e-05
-4.70597e-05
-7.01941e-05
-3.24509e-05
-0.000116735
-0.000221973
-1.24709e-05
5.50005e-05
-1.84648e-05
-6.42001e-05
-1.69394e-05
-0.000118261
-0.000238912
2.70277e-05
4.37907e-05
7.34343e-06
-4.45158e-05
-6.63396e-06
-0.000104283
-0.000245546
4.02502e-05
3.68857e-05
1.99119e-05
-2.41776e-05
3.35418e-06
-8.77254e-05
-0.000242192
4.54533e-05
2.94884e-05
1.76568e-05
3.61886e-06
-1.41835e-06
-6.86502e-05
-0.00024361
4.06929e-05
2.83925e-05
2.24578e-05
2.18539e-05
1.77108e-05
-6.39031e-05
-0.0002259
3.54893e-05
1.21097e-05
5.49547e-05
2.38847e-06
5.84117e-05
-6.73602e-05
-0.000167488
0.00023246
0.000234848
0.000167488
-2.16934e-05
2.16934e-05
-3.64534e-05
1.476e-05
-3.31626e-05
-3.29075e-06
-3.31626e-05
-2.44409e-05
4.61343e-05
-3.13531e-05
2.16721e-05
-3.11793e-05
-3.46458e-06
-6.43419e-05
-3.25936e-05
7.87279e-05
-2.27362e-05
1.18147e-05
-2.95415e-05
3.34078e-06
-9.38834e-05
-5.08311e-05
-3.00257e-05
-1.18009e-05
)
;

boundaryField
{
    movingWall
    {
        type            calculated;
        value           uniform 0;
    }
    fixedWalls
    {
        type            calculated;
        value           uniform 0;
    }
    frontAndBack
    {
        type            empty;
        value           nonuniform List<scalar> 0();
    }
}


// ************************************************************************* //
