/*--------------------------------*- C++ -*----------------------------------*\
  =========                 |
  \\      /  F ield         | OpenFOAM: The Open Source CFD Toolbox
   \\    /   O peration     | Website:  https://openfoam.org
    \\  /    A nd           | Version:  8
     \\/     M anipulation  |
\*---------------------------------------------------------------------------*/
FoamFile
{
    version     2.0;
    format      ascii;
    class       volVectorField;
    location    "20.5";
    object      U;
}
// * * * * * * * * * * * * * * * * * * * * * * * * * * * * * * * * * * * * * //

dimensions      [0 1 -1 0 0 0 0];

internalField   nonuniform List<vector> 
116
(
(0.0115376 -0.00581417 0)
(-4.99752e-06 -0.0114722 0)
(0.0356574 -0.0100259 0)
(-0.00242607 -0.0232214 0)
(0.0343767 0.0305782 0)
(-0.131882 0.0967309 0)
(0.00545021 -0.00626805 0)
(-0.0118789 -0.00956665 0)
(-0.0069702 0.00790568 0)
(-0.0516081 0.0313554 0)
(-0.0705165 0.0854158 0)
(-0.131587 0.0934971 0)
(0.0012782 -0.000174895 0)
(-0.0138485 0.00265318 0)
(-0.0246839 0.0242755 0)
(-0.0504851 0.0485126 0)
(-0.0661439 0.109359 0)
(-0.0881303 0.114545 0)
(-0.00254399 0.00595729 0)
(-0.0156324 0.0181897 0)
(-0.0253189 0.0438102 0)
(-0.0355832 0.0736044 0)
(-0.0421632 0.123 0)
(-0.0374044 0.109381 0)
(-0.000323076 0.0179934 0)
(-0.00990812 0.0259445 0)
(-0.0207715 0.0435831 0)
(-0.0164307 0.0636375 0)
(-0.0154772 0.109381 0)
(0.013069 0.0916568 0)
(-0.00390921 0.0149192 0)
(-0.0054114 0.037991 0)
(-0.0104669 0.0520323 0)
(-0.00225382 0.0685853 0)
(0.000374708 0.100281 0)
(0.0352549 0.081872 0)
(0.0030746 0.0301069 0)
(-0.00248975 0.0326742 0)
(-0.0143884 0.0423007 0)
(-0.00174251 0.0479531 0)
(-0.0010408 0.0676757 0)
(0.0437658 0.0520668 0)
(0.00171314 0.01064 0)
(0.00810391 0.0551772 0)
(0.0121917 0.0529288 0)
(0.0199277 0.059112 0)
(0.0171141 0.062142 0)
(0.0495497 0.0536471 0)
(-0.0654746 0.02598 0)
(-0.035937 0.0183614 0)
(-0.0561928 0.0297664 0)
(-0.0248639 0.0348131 0)
(-0.0206031 0.0331629 0)
(0.0193397 0.0319277 0)
(0.0517354 0.098711 0)
(0.0867455 0.0565266 0)
(0.111709 0.0416898 0)
(0.163764 0.0322638 0)
(0.170975 0.0233304 0)
(0.220184 0.019959 0)
(-0.131476 0.131851 0)
(-0.110291 -0.0427636 0)
(-0.0647776 -0.0348176 0)
(0.000933264 -0.11453 0)
(-0.116065 0.112485 0)
(-0.0784805 -0.0662318 0)
(-0.101321 -0.0962949 0)
(0.00552931 -0.17229 0)
(-0.0751069 0.0871289 0)
(-0.0255109 -0.0658068 0)
(-0.0657295 -0.110795 0)
(0.00251261 -0.21074 0)
(-0.0314117 0.0651695 0)
(0.00828811 -0.0713938 0)
(-0.0440412 -0.122164 0)
(0.0117588 -0.232369 0)
(0.0162207 0.0439453 0)
(0.0402803 -0.0591165 0)
(-0.0262991 -0.11625 0)
(0.0143617 -0.243219 0)
(0.0283847 0.0472422 0)
(0.0557276 -0.0255237 0)
(-0.0184089 -0.0864193 0)
(0.0261895 -0.242135 0)
(0.0295132 0.0234024 0)
(0.0650074 -0.02571 0)
(-0.0327441 -0.0947852 0)
(0.0308852 -0.249172 0)
(0.0280217 0.038992 0)
(0.0556173 0.0341516 0)
(-0.0141615 -0.0365876 0)
(0.0535165 -0.22962 0)
(0.017211 0.0136717 0)
(0.056097 0.00537519 0)
(0.0472272 -0.100234 0)
(0.0788971 -0.241863 0)
(0.213837 0.0130413 0)
(0.250171 0.000900281 0)
(0.204258 -0.0232753 0)
(0.152919 -0.0689339 0)
(-0.0114931 -0.00288685 0)
(-0.032028 -0.00570519 0)
(-0.0426438 0.00114931 0)
(-0.0214959 -0.0201032 0)
(-0.0139059 0.0476674 0)
(-0.0332608 0.0367339 0)
(-0.0320742 -0.00734326 0)
(-0.0278825 -0.0447772 0)
(-0.0377117 0.0436597 0)
(-0.0254729 0.00366117 0)
(-0.022039 -5.04158e-05 0)
(-0.0352242 -0.0883511 0)
(-0.0116498 0.118343 0)
(-0.0824999 0.0230573 0)
(0.016195 0.00668485 0)
(-0.0367299 -0.0935273 0)
)
;

boundaryField
{
    movingWall
    {
        type            fixedValue;
        value           uniform (1 0 0);
    }
    fixedWalls
    {
        type            noSlip;
    }
    frontAndBack
    {
        type            empty;
    }
}


// ************************************************************************* //
