/*--------------------------------*- C++ -*----------------------------------*\
  =========                 |
  \\      /  F ield         | OpenFOAM: The Open Source CFD Toolbox
   \\    /   O peration     | Website:  https://openfoam.org
    \\  /    A nd           | Version:  8
     \\/     M anipulation  |
\*---------------------------------------------------------------------------*/
FoamFile
{
    version     2.0;
    format      ascii;
    class       volScalarField;
    location    "46";
    object      p;
}
// * * * * * * * * * * * * * * * * * * * * * * * * * * * * * * * * * * * * * //

dimensions      [0 2 -2 0 0 0 0];

internalField   nonuniform List<scalar> 
464
(
5.00518e-09
1.5513e-06
6.49852e-06
1.38853e-05
2.41558e-05
3.71545e-05
5.30874e-05
7.10283e-05
9.30615e-05
0.000114101
0.000143216
0.000162733
-1.71625e-06
-2.23516e-07
4.68517e-06
1.20395e-05
2.23381e-05
3.55148e-05
5.18286e-05
7.04874e-05
9.34583e-05
0.000116069
0.000146721
0.000170101
-7.17627e-06
-5.76157e-06
-9.24412e-07
6.31353e-06
1.64274e-05
2.92307e-05
4.47708e-05
6.26822e-05
8.38574e-05
0.000105849
0.000132844
0.000156712
-1.5325e-05
-1.40065e-05
-9.22233e-06
-2.0049e-06
8.30544e-06
2.18881e-05
3.89514e-05
5.92719e-05
8.34569e-05
0.000109347
0.00014028
0.000169399
-2.65921e-05
-2.54462e-05
-2.08132e-05
-1.38463e-05
-3.96465e-06
8.55597e-06
2.38183e-05
4.19898e-05
6.33715e-05
8.75302e-05
0.000115293
0.000144455
-4.09334e-05
-4.00304e-05
-3.55741e-05
-2.87802e-05
-1.86091e-05
-4.37576e-06
1.40001e-05
3.64907e-05
6.32255e-05
9.36722e-05
0.000128347
0.000165275
-5.79704e-05
-5.75584e-05
-5.34989e-05
-4.74802e-05
-3.87697e-05
-2.77437e-05
-1.34021e-05
4.7478e-06
2.70668e-05
5.37338e-05
8.47308e-05
0.000120258
-7.85265e-05
-7.87834e-05
-7.49751e-05
-6.90786e-05
-5.86673e-05
-4.38166e-05
-2.44261e-05
2.69174e-08
2.98902e-05
6.53976e-05
0.000106483
0.000154305
-0.000101062
-0.000103293
-0.000100175
-9.96375e-05
-9.41156e-05
-8.6405e-05
-7.38468e-05
-5.63196e-05
-3.32012e-05
-3.51138e-06
3.04359e-05
7.65425e-05
-0.000122131
-0.000121761
-0.000120219
-0.000115125
-0.000108044
-9.54713e-05
-7.82987e-05
-5.40888e-05
-2.2905e-05
1.75199e-05
6.33032e-05
0.000128581
-0.000168976
-0.000178759
-0.000172083
-0.000184905
-0.000176789
-0.000177775
-0.000166568
-0.000151022
-0.000129302
-9.39152e-05
-6.47941e-05
2.59507e-06
-0.000155806
-0.00015668
-0.000164583
-0.000162778
-0.000167669
-0.000160681
-0.000152939
-0.000131977
-0.000107195
-5.99551e-05
-2.08765e-05
6.65667e-05
-0.000252245
-0.000279652
-0.000263756
-0.000307247
-0.00028913
-0.000313593
-0.0002986
-0.000290502
-0.00027531
-0.00023016
-0.00022021
-0.000122009
-0.000179532
-0.000182198
-0.000207868
-0.000212811
-0.000241108
-0.000244115
-0.000257995
-0.000241238
-0.000237879
-0.000179061
-0.000168066
-4.49226e-05
-0.000324507
-0.000400599
-0.000364455
-0.000476216
-0.000437367
-0.000506679
-0.000481052
-0.000488898
-0.000481206
-0.000426355
-0.000448586
-0.000322059
-0.000185039
-0.000192332
-0.000247007
-0.000267091
-0.000331319
-0.000355431
-0.000404513
-0.000393628
-0.000428862
-0.000350118
-0.000394745
-0.000225086
-0.000305741
-0.000529194
-0.000462906
-0.000718123
-0.00064326
-0.000780239
-0.000734172
-0.00075719
-0.000754092
-0.000681237
-0.000745205
-0.000588118
-0.000166277
-0.000192095
-0.000282371
-0.000337956
-0.000439383
-0.000515174
-0.000609635
-0.000606688
-0.000691481
-0.000577124
-0.000691082
-0.00046394
0.000106646
-0.000712665
-0.000584694
-0.00111256
-0.000968211
-0.00117237
-0.00109519
-0.00110455
-0.00109895
-0.000975782
-0.00106524
-0.000866329
-0.00111748
-2.56943e-05
-0.000196627
-0.000555035
-0.000672432
-0.000824428
-0.000975193
-0.000938794
-0.0010592
-0.000860089
-0.00102408
-0.000708984
0.00020173
0.000219528
0.000240038
0.00025368
0.000267155
0.000276296
0.000283257
0.000285848
0.000211844
0.000230675
0.000253657
0.000268523
0.000283058
0.000292984
0.000300441
0.000303241
0.000188376
0.000212912
0.000239258
0.000260827
0.000280429
0.000295315
0.00030591
0.000310344
0.000204441
0.00023216
0.000261332
0.000285513
0.00030727
0.000324146
0.000335997
0.000341116
0.000177885
0.000211208
0.000244468
0.000276667
0.000304219
0.000328494
0.000344196
0.000352139
0.000204442
0.000243285
0.000281497
0.00031894
0.000350878
0.000379733
0.000398301
0.000408037
0.000159967
0.000206761
0.000248541
0.000301031
0.000337306
0.000382495
0.000404224
0.000421679
0.000203216
0.00025918
0.000310013
0.000372074
0.000417124
0.000472204
0.000499979
0.000522749
0.00011868
0.000191673
0.000237421
0.000331114
0.000374601
0.000467299
0.000496399
0.000540669
0.000184844
0.000271856
0.00033439
0.000443971
0.000505316
0.000618465
0.000661454
0.000721953
3.28885e-05
0.000148714
0.000185677
0.000352853
0.00039771
0.000593002
0.000634261
0.000759733
0.000122489
0.000260121
0.000323562
0.000518748
0.000594557
0.00083465
0.000907991
0.00109068
-0.000123755
4.48539e-05
4.39619e-05
0.000321316
0.000343381
0.000744538
0.000812221
0.00120495
-3.39714e-05
0.000183637
0.000202695
0.000534093
0.000584492
0.00108345
0.00121571
0.00181592
-0.000383914
-0.000168271
-0.00026611
0.000124965
1.09592e-05
0.000755493
0.000805202
0.00203439
-0.000305089
-1.41941e-05
-0.000159744
0.00034112
0.000111827
0.00103791
0.000803246
0.00262293
-0.000745804
-0.000501377
-0.000833793
-0.000396515
-0.00109212
-3.7393e-05
-0.00149195
0.00143654
-0.000657016
-0.000326319
-0.000707682
-0.000221989
-0.00117069
-9.95947e-05
-0.00191144
0.00218126
-0.00105654
-0.000864954
-0.00133084
-0.00108911
-0.00242513
-0.00211966
-0.00316243
0.00152504
-0.000949358
-0.00062463
-0.00099431
-0.000762438
-0.00111567
0.000143145
0.00328432
0.0130317
0.000258654
0.000258973
0.000259808
0.000260777
0.000261899
0.000262832
0.000263588
0.00026387
0.000259684
0.000260011
0.000260859
0.000261842
0.000262939
0.000263844
0.000264574
0.000264838
0.0002561
0.000256631
0.000257971
0.000259445
0.00026119
0.000262598
0.000263741
0.000264164
0.000259022
0.000259646
0.00026112
0.000262767
0.000264518
0.000265932
0.000267053
0.000267454
0.000250337
0.000251685
0.000254637
0.00025759
0.000261063
0.000263679
0.000265813
0.000266587
0.000255414
0.000257082
0.000260336
0.000263722
0.00026719
0.000269882
0.000271997
0.000272751
0.000236995
0.000241361
0.000248767
0.000255181
0.000262306
0.000267328
0.000271343
0.000272789
0.000244208
0.000249963
0.000257919
0.00026509
0.000272311
0.000277566
0.00028166
0.000283125
)
;

boundaryField
{
    movingWall
    {
        type            zeroGradient;
    }
    fixedWalls
    {
        type            zeroGradient;
    }
    frontAndBack
    {
        type            empty;
    }
}


// ************************************************************************* //
