/*--------------------------------*- C++ -*----------------------------------*\
  =========                 |
  \\      /  F ield         | OpenFOAM: The Open Source CFD Toolbox
   \\    /   O peration     | Website:  https://openfoam.org
    \\  /    A nd           | Version:  8
     \\/     M anipulation  |
\*---------------------------------------------------------------------------*/
FoamFile
{
    version     2.0;
    format      ascii;
    class       surfaceScalarField;
    location    "46";
    object      phi;
}
// * * * * * * * * * * * * * * * * * * * * * * * * * * * * * * * * * * * * * //

dimensions      [0 3 -1 0 0 0 0];

internalField   nonuniform List<scalar> 
880
(
-1.70325e-05
1.70325e-05
-3.54845e-05
1.8452e-05
-5.32953e-05
1.78108e-05
-7.00829e-05
1.67876e-05
-8.55148e-05
1.54319e-05
-9.92656e-05
1.37509e-05
-0.000111104
1.1838e-05
-0.000120629
9.52508e-06
-0.000128106
7.47738e-06
-0.000132344
4.23826e-06
-0.000135815
3.47071e-06
1.00121e-06
-0.000136816
-1.91243e-05
3.61568e-05
-3.97639e-05
3.90916e-05
-5.96843e-05
3.77312e-05
-7.8465e-05
3.55683e-05
-9.57572e-05
3.2724e-05
-0.000111238
2.92313e-05
-0.000124661
2.52613e-05
-0.000135654
2.05178e-05
-0.000144492
1.63153e-05
-0.000150303
1.00499e-05
-0.000155365
8.53283e-06
-2.98111e-07
-0.000154066
-1.98691e-05
5.60259e-05
-4.13162e-05
6.05388e-05
-6.1998e-05
5.8413e-05
-8.14503e-05
5.50206e-05
-9.92551e-05
5.05289e-05
-0.000114994
4.49705e-05
-0.000128294
3.85608e-05
-0.000138919
3.11428e-05
-0.00014636
2.37562e-05
-0.000150698
1.43879e-05
-0.000150493
8.32826e-06
-3.70665e-06
-0.000147084
-2.09394e-05
7.69653e-05
-4.35646e-05
8.3164e-05
-6.54121e-05
8.02604e-05
-8.6031e-05
7.56394e-05
-0.000105083
6.95812e-05
-0.000122228
6.21156e-05
-0.000137032
5.33642e-05
-0.00014915
4.32612e-05
-0.000157891
3.24967e-05
-0.0001632
1.96965e-05
-0.000163225
8.35354e-06
-7.55607e-06
-0.000159375
-2.23841e-05
9.93494e-05
-4.65906e-05
0.00010737
-6.99557e-05
0.000103626
-9.19547e-05
9.76384e-05
-0.000112084
8.9711e-05
-0.000129858
7.98887e-05
-0.000144956
6.84628e-05
-0.000157128
5.54334e-05
-0.00016592
4.12881e-05
-0.000171528
2.53051e-05
-0.000172773
9.59848e-06
-9.79019e-06
-0.000170539
-2.4264e-05
0.000123613
-5.05415e-05
0.000133648
-7.59523e-05
0.000129036
-9.99945e-05
0.000121681
-0.000122406
0.000112123
-0.000142781
0.000100263
-0.000160583
8.62647e-05
-0.000175308
7.01591e-05
-0.000186293
5.22724e-05
-0.000193253
3.22658e-05
-0.000194648
1.09934e-05
-1.27548e-05
-0.000191684
-2.64846e-05
0.000150098
-5.52517e-05
0.000162415
-8.30432e-05
0.000156828
-0.000109261
0.000147899
-0.000133194
0.000136056
-0.000154449
0.000121518
-0.000172819
0.000104635
-0.000188048
8.5388e-05
-0.000199884
6.41092e-05
-0.000208255
4.06368e-05
-0.000212994
1.57317e-05
-1.25341e-05
-0.000213214
-2.94336e-05
0.000179532
-6.14018e-05
0.000194383
-9.22976e-05
0.000187724
-0.000121735
0.000177336
-0.000149469
0.00016379
-0.000174713
0.000146762
-0.00019718
0.000127102
-0.000216256
0.000104464
-0.000231458
7.9311e-05
-0.000242118
5.12965e-05
-0.000247397
2.1011e-05
-1.33776e-05
-0.000246553
-3.21881e-05
0.00021172
-6.76096e-05
0.000229805
-0.000101277
0.000221391
-0.000133575
0.000209633
-0.000162831
0.000193047
-0.000189331
0.000173262
-0.000212525
0.000150296
-0.000232238
0.000124177
-0.000248497
9.55702e-05
-0.000260913
6.3712e-05
-0.000270868
3.09668e-05
-9.07225e-06
-0.000275174
-3.73689e-05
0.000249088
-7.73295e-05
0.000269766
-0.000116725
0.000260787
-0.000153018
0.000245926
-0.000187858
0.000227886
-0.00021912
0.000204524
-0.000247837
0.000179012
-0.000272733
0.000149073
-0.000294113
0.00011695
-0.000310467
8.00667e-05
-0.000322759
4.32589e-05
-5.51144e-06
-0.00032632
-3.85605e-05
0.000287649
-8.39681e-05
0.000315173
-0.000124753
0.000301571
-0.000166785
0.000287959
-0.000202699
0.000263799
-0.000236659
0.000238484
-0.000265584
0.000207937
-0.00029061
0.0001741
-0.000312366
0.000138706
-0.000329489
9.71895e-05
-0.000346375
6.01451e-05
5.31892e-06
-0.000357206
-5.02947e-05
0.000337944
-9.96917e-05
0.00036457
-0.000151013
0.000352893
-0.000194617
0.000331563
-0.000238312
0.000307494
-0.000276227
0.0002764
-0.000312534
0.000244244
-0.000344014
0.000205581
-0.000373678
0.000168369
-0.000397655
0.000121167
-0.000420897
8.33865e-05
1.80875e-05
-0.000433665
-4.29039e-05
0.000380848
-0.000105275
0.000426941
-0.000155419
0.000403037
-0.000212887
0.000389031
-0.00025725
0.000351857
-0.000300567
0.000319717
-0.000334817
0.000278494
-0.000364847
0.00023561
-0.000391056
0.000194578
-0.000412444
0.000142555
-0.000435962
0.000106905
3.67276e-05
-0.000454602
-7.62754e-05
0.000457123
-0.000133061
0.000483727
-0.000199398
0.000469375
-0.000249037
0.000438669
-0.000301369
0.000404188
-0.000346072
0.00036442
-0.000389495
0.000321918
-0.000427656
0.000273771
-0.00046564
0.000232562
-0.000498175
0.00017509
-0.000535391
0.00014412
6.44758e-05
-0.000563139
-2.73239e-05
0.000484447
-0.00012835
0.000584753
-0.000195566
0.000536591
-0.000280388
0.000523491
-0.000337119
0.000460919
-0.000389811
0.000417111
-0.000427147
0.000359254
-0.000458046
0.00030467
-0.000483557
0.000258072
-0.000504572
0.000196105
-0.000529106
0.000168654
8.75798e-05
-0.00055221
-0.000153918
0.000638365
-0.000191236
0.000622071
-0.000268759
0.000614114
-0.000320509
0.000575241
-0.000375931
0.000516341
-0.000428809
0.000469989
-0.000475672
0.000406118
-0.000519384
0.000348382
-0.000561612
0.000300301
-0.000600386
0.000234879
-0.000647953
0.000216221
0.00013223
-0.000692604
5.22599e-05
0.000586105
-0.000154448
0.000828779
-0.000274646
0.000734311
-0.000398545
0.00069914
-0.000473164
0.00059096
-0.000524433
0.000521258
-0.00055703
0.000438715
-0.000576253
0.000367605
-0.000590459
0.000314507
-0.000599304
0.000243725
-0.000608967
0.000225883
0.000143906
-0.000620642
-3.78852e-05
0.00062399
-8.23497e-05
0.000873244
-0.000189787
0.000841749
-0.000345095
0.000854447
-0.000419818
0.000665683
-0.000511677
0.000613117
-0.00056667
0.000493708
-0.000615924
0.000416858
-0.000654229
0.000352812
-0.000688198
0.000277694
-0.000729462
0.000267147
0.000189631
-0.000775187
-0.00127989
0.00190388
-0.00134189
0.000935247
-0.00144063
0.000940489
-0.00128872
0.000702536
-0.00119512
0.000572084
-0.00103599
0.00045398
-0.000917487
0.000375209
-0.000794615
0.000293986
-0.000693564
0.000251761
-0.000606839
0.000190968
-0.000516335
0.000176643
0.000126544
-0.000453247
0.00190388
0.00283913
0.00377962
0.00448215
0.00505424
0.00550822
0.00588343
0.00617741
0.00642917
0.00662014
0.00679679
0.00692333
-0.000109477
4.49549e-05
-7.22943e-05
-8.56453e-05
1.94326e-05
-4.32642e-05
-7.07626e-05
-3.05451e-06
-1.18282e-05
-5.63697e-05
-2.02657e-05
5.87276e-06
-4.26863e-05
-3.39804e-05
2.02971e-05
-2.83218e-05
-4.40806e-05
2.97161e-05
-1.37005e-05
-5.06286e-05
3.60073e-05
-4.91939e-05
3.54934e-05
-0.000122102
1.29912e-05
-9.6341e-05
-6.32868e-06
-7.96926e-05
-1.97029e-05
-6.35623e-05
-3.6396e-05
-4.83148e-05
-4.92279e-05
-3.21672e-05
-6.02283e-05
-1.55889e-05
-6.72069e-05
-6.47828e-05
-0.000131615
-2.47846e-06
-0.000115979
-2.19643e-05
-9.92263e-05
-3.64558e-05
-8.13447e-05
-5.42776e-05
-6.21993e-05
-6.83733e-05
-4.1637e-05
-8.07906e-05
-2.02182e-05
-8.86257e-05
-8.5001e-05
-0.000144412
-1.74415e-05
-0.000128974
-3.74026e-05
-0.000111353
-5.40766e-05
-9.21102e-05
-7.35206e-05
-7.1006e-05
-8.94775e-05
-4.7794e-05
-0.000104003
-2.33228e-05
-0.000113097
-0.000108324
-0.000161443
-2.65378e-05
-0.00014877
-5.00751e-05
-0.000131952
-7.08952e-05
-0.000110887
-9.4585e-05
-8.68971e-05
-0.000113468
-5.8767e-05
-0.000132133
-2.89941e-05
-0.00014287
-0.000137318
-0.000182344
-3.5878e-05
-0.00016915
-6.32684e-05
-0.000151369
-8.86765e-05
-0.000128247
-0.000117707
-0.00010152
-0.000140195
-6.90563e-05
-0.000164597
-3.44055e-05
-0.00017752
-0.000171724
-0.000208158
-4.09345e-05
-0.000195838
-7.55883e-05
-0.000179532
-0.000104983
-0.000153629
-0.000143609
-0.000124457
-0.000169367
-8.48861e-05
-0.000204168
-4.33694e-05
-0.000219037
-0.000215093
-0.000241336
-4.61522e-05
-0.000228704
-8.82205e-05
-0.000211525
-0.000122161
-0.000183133
-0.000172001
-0.000150135
-0.000202364
-0.000103492
-0.000250812
-5.36739e-05
-0.000268855
-0.000268767
-0.000276206
-4.51199e-05
-0.000265378
-9.90486e-05
-0.000252398
-0.000135142
-0.000221402
-0.000202997
-0.000187898
-0.000235868
-0.000130627
-0.000308083
-7.10857e-05
-0.000328397
-0.000339852
-0.000327956
-4.34835e-05
-0.000318506
-0.000108499
-0.000306022
-0.000147625
-0.000273422
-0.000235597
-0.000235827
-0.000273463
-0.000167485
-0.000376424
-9.38762e-05
-0.000402006
-0.000433729
-0.000369108
-3.15809e-05
-0.000364573
-0.000113034
-0.000363388
-0.000148811
-0.000332474
-0.000266511
-0.000302947
-0.00030299
-0.000221073
-0.000458298
-0.000136341
-0.000486738
-0.000570069
-0.000448729
-1.65174e-05
-0.000449925
-0.000111838
-0.000454217
-0.000144518
-0.000427103
-0.000293626
-0.000398125
-0.000331967
-0.000303586
-0.000552837
-0.000198497
-0.000591827
-0.000768566
-0.000482672
1.15522e-05
-0.000494855
-9.9655e-05
-0.000523505
-0.000115868
-0.000514435
-0.000302696
-0.000522047
-0.000324355
-0.000428024
-0.00064686
-0.000330907
-0.000688944
-0.00109947
-0.000602889
5.1302e-05
-0.000628612
-7.3932e-05
-0.000674859
-6.96201e-05
-0.00068602
-0.000291535
-0.000717699
-0.000292677
-0.000637348
-0.000727211
-0.000548574
-0.000777718
-0.00164805
-0.000592055
9.11468e-05
-0.000631211
-3.4776e-05
-0.000713049
1.22182e-05
-0.000779756
-0.000224828
-0.000923731
-0.000148702
-0.000946481
-0.000704461
-0.00100839
-0.000715808
-0.00265644
-0.000761407
0.00015995
-0.000828295
3.21118e-05
-0.000945308
0.000129231
-0.00106219
-0.000107943
-0.00126877
5.78772e-05
-0.00138404
-0.000589194
-0.00144993
-0.000649921
-0.00410636
-0.000642263
0.000181571
-0.000685551
7.53997e-05
-0.000777811
0.000221491
-0.000950564
6.48103e-05
-0.00126004
0.000367354
-0.0015577
-0.000291539
-0.00135831
-0.000849311
-0.00546467
-0.000844575
0.000250958
-0.000943338
0.000174162
-0.00107471
0.000352868
-0.00128608
0.000276179
-0.00138221
0.00046348
-0.00151063
-0.000163114
-0.000536157
-0.00182379
-0.00600083
-0.000332181
0.000129892
-0.000268908
0.000110889
-2.44341e-06
8.6403e-05
0.000145865
0.000127871
0.000718454
-0.000109109
0.00101191
-0.000456566
0.00123632
-0.0020482
-0.00476451
0.00705322
0.00716411
0.00725051
0.00737838
0.00726927
0.00681271
0.00476451
-1.78303e-06
1.78303e-06
-3.39065e-06
1.60761e-06
-4.36421e-06
9.73558e-07
-4.63084e-06
2.66628e-07
-4.15815e-06
-4.72686e-07
-3.08191e-06
-1.07624e-06
-1.56678e-06
-1.51512e-06
-1.56678e-06
-2.08743e-06
3.87046e-06
-3.94188e-06
3.46206e-06
-5.03461e-06
2.06628e-06
-5.26913e-06
5.01151e-07
-4.69571e-06
-1.04611e-06
-3.46923e-06
-2.30272e-06
-1.76184e-06
-3.22251e-06
-3.32863e-06
-3.16621e-06
7.03667e-06
-5.85077e-06
6.14662e-06
-7.32777e-06
3.54329e-06
-7.65506e-06
8.28433e-07
-6.76474e-06
-1.93643e-06
-4.9575e-06
-4.10996e-06
-2.50808e-06
-5.67193e-06
-5.83671e-06
-3.78906e-06
1.08257e-05
-6.91281e-06
9.27037e-06
-8.51595e-06
5.14643e-06
-8.63287e-06
9.45356e-07
-7.51543e-06
-3.05387e-06
-5.46904e-06
-6.15634e-06
-2.75248e-06
-8.38848e-06
-8.5892e-06
-7.25386e-06
1.80796e-05
-1.25663e-05
1.45828e-05
-1.47686e-05
7.34877e-06
-1.47515e-05
9.28212e-07
-1.25687e-05
-5.23661e-06
-8.98948e-06
-9.73561e-06
-4.48944e-06
-1.28885e-05
-1.30786e-05
-8.87791e-06
2.69575e-05
-1.51268e-05
2.08317e-05
-1.74593e-05
9.6813e-06
-1.69066e-05
3.75449e-07
-1.42351e-05
-7.90805e-06
-1.01374e-05
-1.38333e-05
-5.0416e-06
-1.79843e-05
-1.81202e-05
-2.01189e-05
4.70764e-05
-3.09603e-05
3.16731e-05
-3.22979e-05
1.10188e-05
-2.9746e-05
-2.17638e-06
-2.40244e-05
-1.36297e-05
-1.65906e-05
-2.12671e-05
-8.1499e-06
-2.6425e-05
-2.62701e-05
-2.52179e-05
-3.6809e-05
-3.76183e-05
-3.39219e-05
-2.72546e-05
-1.88056e-05
-9.22325e-06
)
;

boundaryField
{
    movingWall
    {
        type            calculated;
        value           uniform 0;
    }
    fixedWalls
    {
        type            calculated;
        value           uniform 0;
    }
    frontAndBack
    {
        type            empty;
        value           nonuniform List<scalar> 0();
    }
}


// ************************************************************************* //
