/*--------------------------------*- C++ -*----------------------------------*\
  =========                 |
  \\      /  F ield         | OpenFOAM: The Open Source CFD Toolbox
   \\    /   O peration     | Website:  https://openfoam.org
    \\  /    A nd           | Version:  8
     \\/     M anipulation  |
\*---------------------------------------------------------------------------*/
FoamFile
{
    version     2.0;
    format      ascii;
    class       volScalarField;
    location    "93";
    object      p;
}
// * * * * * * * * * * * * * * * * * * * * * * * * * * * * * * * * * * * * * //

dimensions      [0 2 -2 0 0 0 0];

internalField   nonuniform List<scalar> 
2844
(
-0.0599438
-0.072089
-0.0903753
-0.111896
-0.132764
-0.140253
-0.131424
-0.112315
-0.0920888
-0.0715841
-0.0546665
-0.0390614
-0.023771
-0.013386
-0.00428714
-0.00178039
-0.00153621
-0.000343736
0.000415683
0.000226525
-0.0556246
-0.0688231
-0.0898725
-0.112925
-0.135786
-0.145926
-0.13494
-0.113622
-0.0869237
-0.0696034
-0.0540376
-0.0370455
-0.0251122
-0.0162519
-0.00733261
-0.0027296
-0.00224729
-0.00161716
-0.00100378
8.81919e-05
-0.0348938
-0.0604027
-0.0915786
-0.128066
-0.161068
-0.169145
-0.149937
-0.120683
-0.0937929
-0.0732428
-0.0521861
-0.0365575
-0.0191897
-0.0111898
0.000824189
0.000517373
-0.00364193
-0.00145782
0.00154775
0.00130899
-0.0168362
-0.0466477
-0.0921607
-0.140491
-0.171625
-0.187086
-0.167385
-0.126148
-0.0691227
-0.0706384
-0.0480023
-0.0293151
-0.0277088
-0.0227336
-0.0125148
-0.00829289
-0.00935981
-0.00332726
9.45861e-06
0.00111099
0.0399499
-0.0233666
-0.0998296
-0.207573
-0.242585
-0.253592
-0.202465
-0.137895
-0.0743234
-0.0839231
-0.0451599
-0.0338994
-0.0208279
-0.0249577
-0.00530675
-0.00218128
-0.0294362
-0.00239326
0.00586842
0.00117718
0.101346
0.0282532
-0.0998791
-0.284488
-0.279974
-0.297411
-0.256635
-0.156043
0.00876535
-0.0916157
-0.0324319
-0.0376924
-0.0631789
-0.0603298
-0.0281677
-0.0346118
-0.0388577
7.84289e-05
-0.0318265
-0.0187979
0.223929
0.0338938
-0.212722
-0.538532
-0.525201
-0.442775
-0.324267
-0.161275
0.0111892
-0.160076
-0.0661148
-0.0792564
-0.132004
-0.097351
-0.0327818
-0.0246744
-0.053558
-0.0467928
-0.0781062
-0.0419045
0.430092
0.358575
-0.0984293
-0.894202
-0.932118
-0.527223
-0.570527
-0.189943
0.325358
-0.121928
0.0204632
-0.174565
-0.377145
-0.183808
-0.0219324
-0.0740389
-0.102004
-0.0575256
-0.064692
-0.0302326
0.713254
0.369003
0.0561733
-0.541102
-0.339321
0.241846
-0.187061
-0.00956839
-0.303087
-0.462389
-0.194864
-0.0632144
-0.0961572
-0.0521115
-0.00801672
-0.0363214
-0.0146596
1.07445
0.529945
1.26186
-0.472633
-0.537728
-0.181995
-0.243823
-0.136317
-0.36474
-0.495859
-0.193517
-0.0467335
-0.052998
0.0373378
-0.015107
-0.0360972
0.00452594
1.48581
0.777086
-0.448755
-0.681583
-0.594321
-0.291287
-0.253584
-0.395866
-0.174377
-0.129796
-0.0304819
-0.0185252
0.043777
-0.0209475
-0.0351774
-0.0142315
0.465749
0.447333
0.672259
-0.399543
-0.62228
-0.693967
-0.127065
-0.131598
-0.11442
0.169641
0.0380859
0.0107851
0.0265821
0.0234198
0.00827198
-0.0207263
-0.0238538
0.574416
0.381814
-0.0875217
-0.409947
-0.268286
-0.352768
-0.647238
-0.20955
-0.135307
-0.0284716
0.169416
0.113559
0.0255178
0.0901468
0.0375021
0.0107001
-0.0194305
-0.0102405
0.189519
0.119597
-0.219027
-0.651459
-0.830151
-0.307268
-0.378453
-0.386305
-0.345618
-0.174126
-0.128183
-0.0970022
-0.012792
-0.0152494
0.00651667
0.0430923
0.0230782
0.0263268
0.0178692
0.00910507
0.121794
0.0809491
-0.116258
-0.264822
-0.424857
-0.316463
-0.253845
-0.211795
-0.237167
-0.150512
-0.0991685
-0.0503503
0.0198633
0.0361595
0.0314662
0.0503873
0.0509178
0.0309721
0.0195458
0.0073175
0.0389767
-0.0183995
-0.110151
-0.217155
-0.24926
-0.219029
-0.207229
-0.23043
-0.201127
-0.153214
-0.117435
-0.0759327
-0.0467609
-0.0055764
0.00306481
0.0283244
0.0432312
0.0223729
0.0177286
0.00806965
-0.00511864
-0.0340206
-0.0925488
-0.142729
-0.196468
-0.203095
-0.18477
-0.162985
-0.15231
-0.122686
-0.0882521
-0.0577359
-0.0196318
0.00400445
0.0111754
0.0217572
0.0279585
0.020724
0.0138061
0.00563303
-0.0363795
-0.0673867
-0.102416
-0.144601
-0.175788
-0.181514
-0.169259
-0.170871
-0.148607
-0.123422
-0.0984314
-0.0703157
-0.0525648
-0.0189523
-0.00752968
0.0105184
0.0208772
0.00798823
0.00957406
0.00619984
-0.0534502
-0.0700424
-0.0951408
-0.124589
-0.149942
-0.16434
-0.159937
-0.147941
-0.134663
-0.11248
-0.0865245
-0.0622947
-0.0398699
-0.0163029
-0.0027857
0.00808577
0.0154518
0.0127364
0.00804721
0.00331164
-0.0619761
-0.078044
-0.0995494
-0.126164
-0.148104
-0.159682
-0.156422
-0.148509
-0.132827
-0.112609
-0.0895677
-0.0659927
-0.0464103
-0.023026
-0.00885089
0.00372326
0.011118
0.00846789
0.00619333
0.0031819
-0.0599412
-0.0720928
-0.0903543
-0.111896
-0.13276
-0.140251
-0.13141
-0.112308
-0.0920771
-0.0715695
-0.054671
-0.0390519
-0.0237373
-0.0134342
-0.0042506
-0.00178034
-0.0015636
-0.000338281
0.000489135
0.00023996
-0.0556122
-0.0688411
-0.0897942
-0.112919
-0.135776
-0.145921
-0.134925
-0.113568
-0.0868271
-0.0696477
-0.0540838
-0.0370989
-0.0250782
-0.0163077
-0.00727256
-0.00269831
-0.0022355
-0.00165421
-0.00107904
9.0497e-05
-0.0348814
-0.0604041
-0.0914352
-0.127922
-0.160961
-0.169222
-0.150057
-0.120727
-0.0938167
-0.0732357
-0.0522436
-0.0363409
-0.0193093
-0.0114708
0.00119737
0.000577735
-0.00355889
-0.00136726
0.00172044
0.00142038
-0.0167713
-0.0466201
-0.0919822
-0.140729
-0.171124
-0.187321
-0.167361
-0.126306
-0.0689396
-0.0707633
-0.0485796
-0.0290131
-0.0274023
-0.0230655
-0.0126795
-0.00777213
-0.00943099
-0.00332853
8.73707e-05
0.00114943
0.0399897
-0.0234833
-0.0985307
-0.211597
-0.244559
-0.252844
-0.203705
-0.140584
-0.0768468
-0.0845437
-0.0455257
-0.0352679
-0.021814
-0.0254042
-0.00648586
-0.00205619
-0.031557
-0.00353838
0.00377673
0.000891657
0.100919
0.0272731
-0.0930041
-0.284625
-0.300004
-0.301168
-0.259094
-0.15519
0.010281
-0.0973794
-0.036905
-0.0377829
-0.0636762
-0.0608868
-0.0298949
-0.0406137
-0.0434034
-0.00135458
-0.0384311
-0.0208402
0.224698
0.0270635
-0.195449
-0.530774
-0.534457
-0.450219
-0.31705
-0.153787
0.00227819
-0.163223
-0.0753217
-0.0862682
-0.143797
-0.0990562
-0.0375474
-0.0291822
-0.0538406
-0.0460084
-0.0802481
-0.0454357
0.426501
0.34177
-0.100495
-0.916526
-0.97334
-0.534494
-0.604046
-0.203037
0.307595
-0.123127
0.0163714
-0.173489
-0.393262
-0.181985
-0.028524
-0.0784891
-0.105972
-0.0644817
-0.0692145
-0.0298327
0.70861
0.270628
0.0546286
-0.555158
-0.378167
0.256774
-0.181343
-0.0151497
-0.295478
-0.466132
-0.198124
-0.0641719
-0.109684
-0.0551927
-0.00914484
-0.036263
-0.0152241
1.11538
0.529026
1.27333
-0.470132
-0.527092
-0.185372
-0.243003
-0.154856
-0.393045
-0.496546
-0.192631
-0.0462588
-0.0478988
0.0431767
-0.0126879
-0.0453208
-0.00666021
1.4102
0.764742
-0.450265
-0.672862
-0.589399
-0.30549
-0.282712
-0.410056
-0.158319
-0.126225
-0.032058
-0.0223705
0.0431955
-0.0296723
-0.0485971
-0.0197471
0.500085
0.453661
0.494541
-0.403484
-0.637457
-0.709065
-0.15897
-0.151499
-0.103397
0.170555
0.0531152
0.0129418
0.0218626
0.0190339
0.00892087
-0.0226308
-0.0209649
0.56026
0.383959
-0.133309
-0.41337
-0.26517
-0.352208
-0.654687
-0.243189
-0.147516
-0.0476061
0.160267
0.112714
0.0266545
0.0884612
0.0346195
0.00789379
-0.0189499
-0.0108004
0.18805
0.114504
-0.228386
-0.690778
-0.842557
-0.304035
-0.388717
-0.392737
-0.34799
-0.177501
-0.127006
-0.0974545
-0.017071
-0.0196311
0.00454153
0.0394509
0.0229612
0.0233683
0.0151587
0.00707734
0.123358
0.0738821
-0.123873
-0.299161
-0.422619
-0.316968
-0.264379
-0.212466
-0.234848
-0.153847
-0.102971
-0.0501828
0.02278
0.0391688
0.029851
0.0489014
0.048186
0.0299892
0.018519
0.00650781
0.0394041
-0.0215046
-0.11032
-0.218987
-0.25004
-0.222
-0.20657
-0.22727
-0.200289
-0.152822
-0.116745
-0.0770994
-0.047668
-0.00490005
0.00343257
0.0271811
0.0417455
0.0217126
0.0178596
0.00805625
-0.00527391
-0.0342856
-0.092254
-0.143741
-0.196325
-0.203207
-0.185628
-0.162977
-0.152109
-0.12221
-0.08791
-0.0586122
-0.0211897
0.00368791
0.0115306
0.0215051
0.0278802
0.0213211
0.0136574
0.00543944
-0.0364116
-0.0674061
-0.102493
-0.144786
-0.175795
-0.181664
-0.169239
-0.170762
-0.148498
-0.123441
-0.0985049
-0.0705767
-0.0511678
-0.019045
-0.00708858
0.0101247
0.0204467
0.00853486
0.00942192
0.00599983
-0.0534782
-0.0700468
-0.0951324
-0.124631
-0.149931
-0.164339
-0.160001
-0.147899
-0.134638
-0.112471
-0.0865297
-0.0623632
-0.0398833
-0.0163411
-0.0027952
0.00790833
0.0151985
0.0126534
0.00795128
0.00326584
-0.0619804
-0.0780406
-0.0995636
-0.126172
-0.148102
-0.159683
-0.15642
-0.148501
-0.132833
-0.112609
-0.0895613
-0.0660459
-0.0464247
-0.0230437
-0.00882447
0.00352431
0.0110643
0.00845811
0.00619223
0.0031691
-0.0599433
-0.0720938
-0.0903199
-0.111886
-0.132746
-0.140246
-0.131386
-0.112297
-0.0920651
-0.0715542
-0.0546682
-0.0390334
-0.0236805
-0.0134828
-0.0041962
-0.00177687
-0.00159194
-0.000326602
0.000689816
0.000269202
-0.055614
-0.0688535
-0.0896636
-0.11288
-0.135729
-0.145886
-0.134879
-0.1135
-0.0866487
-0.0696252
-0.0540898
-0.0370741
-0.0250033
-0.0163432
-0.00717165
-0.00251139
-0.00210987
-0.0016106
-0.00129987
8.91722e-05
-0.0348831
-0.0603088
-0.0911307
-0.12758
-0.16061
-0.169158
-0.149716
-0.120733
-0.0938866
-0.0732021
-0.0521901
-0.0359898
-0.0192268
-0.0114061
0.0017511
0.000494081
-0.00340229
-0.00125622
0.00250644
0.00189289
-0.0170564
-0.0462864
-0.0912532
-0.139915
-0.169828
-0.186922
-0.167192
-0.126631
-0.0683918
-0.0692984
-0.0483601
-0.0286297
-0.0267829
-0.0232944
-0.0117864
-0.00518946
-0.00617845
-0.00219259
0.00198661
0.00222991
0.0398294
-0.0221286
-0.0969638
-0.21045
-0.243192
-0.253193
-0.204899
-0.143264
-0.0767738
-0.0843704
-0.0432107
-0.0304239
-0.019594
-0.0263097
-0.00161888
-0.000294597
-0.0351282
-0.00889659
0.00398651
0.00194588
0.100528
0.0293092
-0.0967956
-0.27757
-0.283583
-0.298507
-0.259328
-0.151221
0.00976055
-0.0930564
-0.0353121
-0.0339345
-0.0554635
-0.055384
-0.0275758
-0.0391212
-0.035669
0.0058069
-0.0341159
-0.0184706
0.221894
0.0353141
-0.190541
-0.50801
-0.517436
-0.464933
-0.323339
-0.131374
0.0256644
-0.164843
-0.072536
-0.0888244
-0.139729
-0.0831251
-0.0389593
-0.0309638
-0.0478651
-0.0445648
-0.0772509
-0.0431461
0.416204
0.342508
-0.107418
-0.947411
-0.980116
-0.488128
-0.613467
-0.150019
0.316874
-0.135109
0.0219651
-0.178638
-0.389446
-0.168665
-0.0231886
-0.0782335
-0.0987579
-0.067184
-0.0639214
-0.0254311
0.761758
0.329942
-0.00570501
-0.570846
-0.350322
0.238619
-0.193241
0.00205269
-0.285636
-0.465438
-0.195273
-0.0602385
-0.102481
-0.0469924
-0.00480733
-0.033736
-0.00762062
1.10237
0.596664
1.03704
-0.465081
-0.50534
-0.199144
-0.228387
-0.134386
-0.397954
-0.504497
-0.188591
-0.0433261
-0.0360732
0.0498392
-0.0111915
-0.0416221
-0.00480453
1.46915
0.750248
-0.45065
-0.663798
-0.615109
-0.301045
-0.255305
-0.403735
-0.162839
-0.126658
-0.0308142
-0.0171077
0.047392
-0.0181548
-0.039129
-0.0150681
0.519082
0.473649
0.653255
-0.403307
-0.647592
-0.689619
-0.141347
-0.136345
-0.0789736
0.175778
0.045073
0.0160921
0.0184887
0.0164945
0.0104027
-0.0198902
-0.0163794
0.553188
0.369431
-0.188012
-0.419758
-0.271008
-0.358065
-0.643052
-0.240176
-0.152693
-0.0499672
0.166439
0.120299
0.0247277
0.0804478
0.0355394
0.00926079
-0.0176913
-0.0102639
0.190719
0.116199
-0.197187
-0.683538
-0.818157
-0.307381
-0.395137
-0.400954
-0.354743
-0.173829
-0.123442
-0.0983204
-0.0162094
-0.0133574
0.00400162
0.0370826
0.0207154
0.024294
0.0162494
0.00722673
0.12438
0.0745879
-0.129874
-0.268528
-0.419728
-0.314733
-0.264545
-0.205315
-0.225107
-0.150351
-0.100098
-0.0495969
0.0266219
0.0419677
0.0304545
0.0476391
0.0472873
0.0297155
0.0183247
0.00565045
0.0398372
-0.0191729
-0.108854
-0.218295
-0.252689
-0.221548
-0.205005
-0.223238
-0.198389
-0.15296
-0.116599
-0.0765097
-0.0457698
-0.00462846
0.00414938
0.0277638
0.0423654
0.0237047
0.0180336
0.00809854
-0.00547728
-0.0339583
-0.0927567
-0.144057
-0.19602
-0.202053
-0.185584
-0.163834
-0.152
-0.121984
-0.0878783
-0.0587389
-0.0218085
0.00381909
0.0115729
0.0213314
0.0281228
0.0217095
0.0138183
0.00548436
-0.0364251
-0.0672666
-0.102534
-0.14499
-0.175717
-0.181782
-0.169244
-0.170559
-0.148496
-0.123471
-0.0985437
-0.0706946
-0.0504029
-0.0189939
-0.00688513
0.0099689
0.0205816
0.00909913
0.00939804
0.00587565
-0.0535015
-0.0700479
-0.0951249
-0.124662
-0.14992
-0.16429
-0.160037
-0.147935
-0.134623
-0.112473
-0.0865361
-0.0624151
-0.0398521
-0.016309
-0.00278742
0.00780862
0.0149927
0.0126211
0.00793984
0.0032788
-0.0619859
-0.078034
-0.0995708
-0.126185
-0.148096
-0.159681
-0.156421
-0.148495
-0.132843
-0.11261
-0.0895572
-0.0660765
-0.0464259
-0.0230262
-0.00880835
0.00341287
0.0110803
0.00847955
0.00619045
0.00316207
-0.496502
-0.0365955
-1.12725
-0.100276
-0.489955
-0.0433513
-1.13564
-1.01705
-0.917911
-1.03594
-0.629256
-0.967875
-0.637424
-0.422322
-0.553438
-0.444649
-0.535179
-0.430467
-0.552883
-0.47362
0.259179
0.466416
1.16027
0.338803
0.230507
0.445947
1.13165
0.785297
0.0707816
0.745237
-0.453561
-0.467202
-0.476727
-0.467785
-0.689235
-0.491635
-0.713934
-0.545559
-0.695111
-0.497262
-0.714417
1.20133
0.862068
1.15819
0.507457
1.22499
0.789446
1.08674
1.30503
-0.464849
-0.462952
-0.498818
-0.456084
-0.527734
-0.471091
-0.497148
-0.45325
-0.52337
1.23232
0.424712
1.38556
0.774357
1.2147
0.424559
1.25071
1.49634
1.35767
-0.418306
-0.42173
-0.432263
-0.414226
-0.390502
-0.449777
-0.433155
-0.419359
-0.392208
0.675323
0.377349
0.461486
0.443182
0.689071
0.382637
0.459621
0.0543522
0.538605
0.049423
-0.431025
-0.431257
-0.432536
-0.434034
-0.32923
-0.427538
-0.27074
-0.401551
-0.331025
-0.428806
-0.273443
-1.07615
-0.195666
-0.505759
-0.116123
-1.06525
-0.213089
-0.529294
-0.874238
-1.01713
-0.921853
-1.03754
-0.939975
-0.578321
-0.944312
-0.599776
-0.503885
-0.423674
-0.420952
-0.40718
-0.508465
-0.43546
-0.41602
-0.480507
-0.0614473
-1.16034
-0.10375
-0.472593
-0.110171
-1.15526
-1.03813
-0.933805
-1.06213
-0.633537
-0.978753
-0.627931
-0.433178
-0.537408
-0.502661
-0.514139
-0.429992
-0.489811
-0.509538
0.253915
0.474957
1.09178
0.322618
0.279264
0.560768
1.03293
0.745038
-0.00363587
0.829179
-0.485576
-0.466756
-0.477689
-0.47327
-0.704817
-0.506656
-0.719183
-0.564909
-0.70773
-0.512659
-0.720626
1.21195
0.716723
1.09778
0.556169
1.09291
0.783017
1.23971
1.12612
-0.462081
-0.460564
-0.503206
-0.451352
-0.518799
-0.466465
-0.506268
-0.443702
-0.513378
1.20258
0.369042
1.23435
0.752446
1.12825
0.31663
1.28828
1.24268
1.20395
-0.422012
-0.420809
-0.434855
-0.421828
-0.396094
-0.450815
-0.436259
-0.42451
-0.398649
0.780126
0.408284
0.465431
0.465305
0.934133
0.422821
0.468281
0.0498205
0.557947
0.0674608
-0.432797
-0.43218
-0.436933
-0.431291
-0.337863
-0.420943
-0.275241
-0.40467
-0.340403
-0.422498
-0.278994
-1.06514
-0.245766
-0.563539
-0.173883
-1.123
-0.274659
-0.603793
-0.954583
-1.04375
-1.02827
-1.0454
-0.927585
-0.601666
-0.865725
-0.593334
-0.522614
-0.42816
-0.426799
-0.423936
-0.530983
-0.434453
-0.436711
-0.466426
-0.150132
-1.13483
-0.10612
-0.446853
-0.17657
-1.09459
-1.07253
-0.945339
-1.06297
-0.625964
-0.975058
-0.620616
-0.413566
-0.481429
-0.492107
-0.470546
-0.404066
-0.45997
-0.47319
0.312102
0.606026
1.00584
0.368811
0.354461
0.630174
0.981928
0.894058
0.00952153
1.00235
-0.470355
-0.475351
-0.459109
-0.48015
-0.697302
-0.515056
-0.709078
-0.57342
-0.694393
-0.51661
-0.701371
1.02675
0.830117
1.26963
0.606897
0.993064
0.844915
1.24601
1.11727
-0.460062
-0.460938
-0.503207
-0.440611
-0.500998
-0.464235
-0.504644
-0.437005
-0.501857
1.11233
0.429597
1.24218
0.768445
1.09868
0.46783
1.22781
1.15474
1.1182
-0.420198
-0.419269
-0.436178
-0.424402
-0.404864
-0.450587
-0.436434
-0.424237
-0.404484
0.951038
0.434599
0.454194
0.521043
0.94345
0.450038
0.448319
0.0628288
0.733687
-0.0266108
-0.438638
-0.428869
-0.440452
-0.427375
-0.353605
-0.416235
-0.282351
-0.401921
-0.355086
-0.410828
-0.274414
-1.13518
-0.284931
-0.636313
-0.198072
-1.16152
-0.260142
-0.614861
-1.04334
-1.04009
-0.997802
-0.985998
-0.844921
-0.586028
-0.804001
-0.565632
-0.52809
-0.420647
-0.437286
-0.41098
-0.529566
-0.415767
-0.442118
-0.609813
-0.685394
-0.828406
-0.548524
-0.619704
-0.712017
-0.839981
-0.488421
-0.889838
-0.699774
-0.535623
-0.496345
-0.896136
-0.706676
-1.37098
-1.03348
-1.08025
-0.914752
-1.04564
-1.10525
-1.35371
-1.08964
-0.795978
-1.35953
-0.949056
-0.813467
-1.37464
-1.08684
-0.251216
-0.203467
0.153269
0.0645098
-0.21245
0.147822
-0.259817
-0.468074
-0.477289
1.29728
-0.462925
-0.471284
-0.46272
-0.47241
-0.472019
-0.46265
-0.462348
-0.44285
-0.445771
-0.43553
-0.448992
-0.446034
-0.435937
-0.442219
0.37003
0.629872
0.346451
-1.742
-1.3252
-1.31787
-1.74985
-0.438332
-0.405697
-0.441131
-0.40863
-0.40391
-0.441024
-0.437677
-0.824358
-0.460199
-0.527657
-0.659887
-0.851499
-0.452783
-0.525508
-0.677062
-0.464864
-0.42554
-0.836661
-0.669699
-0.465891
-0.429853
-0.600129
-0.695534
-0.840367
-0.520443
-0.588329
-0.696259
-0.84431
-0.504734
-0.884002
-0.685088
-0.529668
-0.511466
-0.870992
-0.663381
-1.34567
-1.0426
-1.07708
-0.925954
-1.35322
-1.04646
-1.07598
-1.13584
-0.857024
-1.41741
-0.978732
-1.12218
-0.867712
-1.42847
-0.221
-0.255867
0.151567
0.0287332
-0.212003
-0.276306
0.156671
-0.513619
-0.509406
1.22985
-0.461565
-0.469269
-0.461408
-0.469097
-0.461837
-0.468359
-0.460462
-0.442994
-0.448246
-0.437992
-0.450608
-0.444091
-0.449
-0.43817
0.225297
0.478014
0.188729
-1.66577
-1.29859
-1.673
-1.31224
-0.452162
-0.404634
-0.440192
-0.421264
-0.446504
-0.409914
-0.445079
-0.892185
-0.457284
-0.525115
-0.695608
-0.91277
-0.453846
-0.529143
-0.655994
-0.467504
-0.421293
-0.83591
-0.649908
-0.469467
-0.424943
-0.576548
-0.697153
-0.836971
-0.502259
-0.56967
-0.691752
-0.817651
-0.507455
-0.856546
-0.650628
-0.509596
-0.504503
-0.839021
-0.641574
-1.34377
-1.06611
-1.06894
-0.949822
-1.33855
-1.0645
-1.07467
-1.16364
-0.880232
-1.43156
-0.979095
-1.1597
-0.884259
-1.42142
-0.231084
-0.311263
0.231501
-0.00198884
-0.229282
-0.310465
0.254654
-0.465884
-0.454734
0.970581
-0.456079
-0.463369
-0.456202
-0.464375
-0.456874
-0.462843
-0.455262
-0.436862
-0.453367
-0.437526
-0.45056
-0.438221
-0.454539
-0.437123
0.248488
0.688523
0.287783
-1.73187
-1.38998
-1.726
-1.38612
-0.447822
-0.413969
-0.410252
-0.415028
-0.450145
-0.416202
-0.398186
-0.885705
-0.408811
-0.500736
-0.630168
-0.823634
-0.379931
-0.487583
-0.650378
-0.456466
-0.411594
-0.811922
-0.663612
-0.449069
-0.409596
-0.582358
-0.948458
-0.645634
-1.13684
-0.942073
-0.663305
-0.585625
-0.567642
-1.12296
-0.918331
-0.653126
-0.92727
-0.655091
-0.560475
-1.44566
-1.06628
-1.49241
-1.02963
-1.07286
-1.5092
-1.43395
-1.70479
-1.29836
-1.31972
-1.69787
-1.3691
-0.918714
-1.04399
-1.08557
-1.04388
-1.0961
-1.36273
-1.45193
-1.02908
-1.06415
-1.53122
-1.06383
-1.52272
-1.45698
-1.71321
-1.34968
-1.33322
-1.73034
-0.78477
-0.681939
-0.625414
-0.633991
-0.692243
-0.63165
-0.781808
-0.859719
-0.668359
-0.672092
-0.840102
-1.0957
-0.956696
-0.846832
-1.40658
-0.826457
-1.39182
-1.10715
-0.79007
-0.636825
-0.714566
-0.644426
-0.701369
-0.640051
-0.798188
-0.881716
-0.689708
-0.680241
-0.897608
-0.530214
-0.538496
-0.49962
-0.558952
-0.536333
-0.514094
-0.533419
-0.531575
-0.559312
-0.522621
-0.559618
-0.530832
-0.54077
-0.535898
-0.627396
-0.622165
0.524389
0.751578
0.465999
-0.217906
0.0768344
-0.229271
0.144569
-0.214289
0.139454
-0.204873
-0.610117
-0.613493
0.749459
0.396872
0.422779
-0.493206
-0.470932
-0.441201
-0.459261
-0.477817
-0.444726
-0.492078
-0.451304
-0.467866
-0.452423
-0.508094
-0.493521
-0.493417
-0.466519
-0.496918
-0.456301
-0.487312
-0.449933
-0.492929
-0.465699
-0.456318
-0.452035
0.953148
1.09208
1.29106
1.2019
1.06101
1.28041
0.974337
0.823226
1.11848
0.889024
1.14074
1.09633
0.883681
0.842489
0.940664
1.22232
1.09173
1.30299
1.07352
1.28516
0.944337
0.806697
1.10831
1.03702
0.874004
1.06796
0.878125
0.798019
1.31578
-0.464451
-0.463602
-0.46251
-0.466388
-0.453847
-0.455622
-0.466017
-0.453253
-0.462645
-0.462112
-0.471668
-0.470756
-0.462041
-0.470675
-0.46242
-0.462639
-0.461462
-0.454686
-0.464153
-0.44974
-0.465234
-0.451304
-0.460545
0.706974
0.953486
1.16098
1.23975
0.95014
1.15782
0.697788
1.16007
1.90901
1.00162
1.32079
1.88031
0.938818
1.16409
0.722355
1.22525
0.926303
1.18068
0.933138
1.16727
0.740875
1.17288
1.28503
1.7695
0.848519
1.82599
0.882947
1.16762
1.51119
1.43995
-0.419573
-0.420956
-0.443478
-0.431863
-0.427416
-0.415055
-0.432472
-0.428866
-0.441694
-0.443447
-0.449329
-0.446982
-0.437364
-0.446374
-0.436646
-0.443832
-0.444325
-0.417786
-0.435673
-0.433426
-0.433869
-0.431112
-0.44636
-0.34761
0.194648
-0.262696
0.052342
0.181784
-0.250139
-0.344042
-0.500726
-0.529289
0.57786
0.27109
0.306839
-0.33407
0.0524228
0.139528
-0.217923
0.161984
-0.231193
-0.305047
-0.582698
-0.560845
-0.424175
-0.431531
-0.425212
-0.414749
-0.413528
-0.446074
-0.440991
-0.442515
-0.43245
-0.442521
-0.442008
-0.446415
-0.431371
-0.426739
-0.424696
-0.408282
-0.41118
-0.445358
-0.431282
-0.442365
-0.441043
-0.439106
-0.441289
-0.445759
-0.543749
-0.590198
-0.786995
-1.07888
-0.595272
-0.824753
-0.533909
-0.546445
-1.07198
-0.58085
-0.868627
-0.587007
-0.85001
-0.543878
-1.29579
-0.99345
-1.05165
-0.887059
-1.01772
-1.05853
-1.27934
-1.48035
-1.50622
-1.11762
-1.02803
-1.51555
-1.11935
-1.47504
-1.7085
-1.29628
-1.30382
-1.68655
-1.30833
-0.903657
-1.06079
-1.07576
-1.03883
-1.06673
-1.32304
-1.4827
-1.03284
-1.53626
-1.11414
-1.52608
-1.11573
-1.48613
-0.779476
-0.558131
-0.562548
-0.7716
-0.995184
-1.41713
-0.804826
-0.946318
-1.42696
-0.806652
-0.987171
-0.681527
-0.567265
-0.670815
-0.588618
-0.570876
-0.673922
-0.675333
-0.793461
-0.575456
-0.567459
-0.811549
-1.00063
-0.950991
-1.4402
-0.792546
-1.43505
-0.801925
-1.00531
-0.692236
-0.592971
-0.56617
-0.678121
-0.566932
-0.675161
-0.70313
-0.44273
-0.406298
-0.400355
-0.436356
-0.403538
-0.43896
-0.441002
-0.559906
-0.904253
-0.651731
-1.17289
-0.558777
-0.890781
-0.652571
-0.558904
-1.17032
-0.887178
-0.662123
-0.884667
-0.656771
-0.555513
-1.46722
-1.0611
-1.53557
-1.04562
-1.46031
-1.06725
-1.54083
-1.79326
-1.37001
-1.76063
-1.39221
-1.33665
-0.932331
-1.05708
-1.06274
-1.05215
-1.06933
-1.3341
-1.47594
-1.05594
-1.08956
-1.54774
-1.07864
-1.54607
-1.48429
-1.82956
-1.4269
-1.41352
-1.85267
-0.825627
-0.719695
-0.650052
-0.6311
-0.810302
-0.726413
-0.655604
-0.92097
-0.695853
-0.909012
-0.69914
-1.14728
-0.980384
-0.876626
-1.4386
-0.8745
-1.43575
-1.15185
-0.839412
-0.627201
-0.736788
-0.670936
-0.731434
-0.663608
-0.853715
-0.93057
-0.705573
-0.702658
-0.941582
-0.528872
-0.507327
-0.558283
-0.515991
-0.535341
-0.49337
-0.540108
-0.502064
-0.501205
-0.466364
-0.484065
-0.478876
-0.50981
-0.469693
-0.614677
-0.605365
0.395847
0.766054
0.413398
-0.230244
0.00970096
-0.309731
0.204776
-0.29717
0.181876
-0.232711
-0.562013
-0.584233
0.786728
0.433585
0.425221
-0.487797
-0.505536
-0.463246
-0.487258
-0.491206
-0.505441
-0.469555
-0.459562
-0.469563
-0.465309
-0.480932
-0.49696
-0.484337
-0.486047
-0.498836
-0.479583
-0.505962
-0.475131
-0.481281
-0.47073
-0.472503
-0.469298
0.887139
1.08403
1.28599
1.18754
0.907715
1.08048
1.28076
0.743421
1.01013
0.86785
1.1448
0.7614
1.00054
0.892405
0.841573
1.14627
1.09531
1.32022
1.07309
1.28845
0.850702
0.708542
1.19879
0.963704
0.904162
0.990166
0.897282
0.665429
1.19104
-0.461459
-0.460972
-0.456914
-0.462635
-0.447353
-0.4491
-0.458917
-0.460775
-0.445157
-0.460025
-0.46771
-0.465724
-0.457758
-0.466239
-0.459174
-0.459559
-0.453475
-0.446433
-0.456195
-0.440479
-0.458542
-0.441953
-0.451308
0.767503
0.923775
1.19814
1.18532
0.757947
0.915854
1.20371
1.07709
1.70719
0.842797
1.27014
1.14408
1.661
0.872753
0.746665
1.15991
0.880035
1.22035
0.890915
1.21701
0.794662
0.990261
1.31401
1.56265
0.993927
1.61229
0.939166
0.976843
1.19459
1.20481
-0.421766
-0.421356
-0.446456
-0.437495
-0.435135
-0.423051
-0.445622
-0.439366
-0.436734
-0.442166
-0.450804
-0.45205
-0.437953
-0.451191
-0.43822
-0.440025
-0.446284
-0.424035
-0.442478
-0.439253
-0.441021
-0.437996
-0.446657
-0.216791
0.112054
-0.206734
0.0482463
-0.263838
0.0833098
-0.208459
-0.588527
-0.582292
0.512832
0.202446
0.188352
-0.16799
0.0446195
0.0649353
-0.233878
0.067472
-0.220781
-0.144089
-0.553749
-0.564668
-0.425413
-0.434398
-0.427205
-0.408132
-0.409443
-0.447153
-0.436409
-0.441246
-0.43282
-0.445328
-0.440399
-0.441407
-0.43551
-0.42734
-0.426813
-0.411779
-0.408769
-0.448495
-0.432402
-0.438837
-0.441262
-0.434992
-0.442179
-0.449885
-0.538488
-0.577464
-0.88307
-1.07971
-0.540063
-0.584721
-0.895883
-0.54437
-1.10425
-0.647713
-0.93258
-0.617973
-0.913527
-0.554543
-1.35932
-1.08893
-1.0898
-0.980357
-1.34055
-1.12054
-1.09652
-1.49424
-1.5445
-1.11427
-1.04641
-1.49125
-1.54536
-1.11411
-1.68123
-1.36842
-1.33912
-1.70573
-1.36938
-1.01058
-1.17409
-1.09984
-1.14993
-1.10343
-1.36798
-1.49518
-1.04988
-1.52506
-1.12117
-1.53923
-1.11892
-1.49354
-0.853899
-0.585183
-0.83445
-0.59313
-1.0064
-1.43993
-0.782313
-0.90843
-1.00718
-1.4271
-0.774125
-0.718251
-0.56103
-0.682549
-0.600036
-0.712422
-0.556331
-0.685149
-0.859072
-0.57223
-0.589375
-0.850291
-1.00516
-0.886141
-1.38167
-0.763595
-1.40669
-0.766551
-1.00338
-0.721519
-0.596299
-0.544575
-0.690176
-0.551482
-0.687366
-0.724354
-0.453728
-0.425193
-0.416637
-0.425532
-0.411233
-0.439654
-0.453725
-0.555048
-0.900452
-0.67148
-1.11782
-0.554932
-0.916555
-0.683154
-0.552207
-1.1032
-0.931621
-0.690085
-0.928611
-0.69068
-0.546184
-1.48172
-1.12111
-1.54165
-1.06776
-1.4877
-1.10333
-1.52684
-1.85801
-1.43017
-1.86054
-1.42315
-1.34871
-0.95315
-1.06173
-1.06828
-1.06779
-1.0772
-1.34232
-1.47199
-1.07085
-1.11495
-1.49715
-1.1262
-1.51117
-1.45874
-1.85013
-1.39864
-1.41088
-1.83503
-0.879616
-0.736862
-0.679136
-0.628097
-0.865105
-0.741808
-0.681868
-0.953253
-0.708476
-0.946973
-0.708838
-1.17215
-0.977459
-0.891675
-1.40454
-0.889877
-1.41319
-1.17324
-0.88875
-0.6223
-0.741422
-0.683047
-0.742987
-0.683973
-0.894967
-0.949498
-0.705439
-0.708291
-0.946381
-0.391732
-0.453868
-0.45921
-0.472693
-0.428013
-0.441731
-0.441652
-0.357295
-0.464001
-0.424692
-0.417451
-0.430444
-0.425212
-0.340583
-0.53426
-0.51596
0.442087
0.930769
0.433081
-0.232232
0.00677553
-0.304907
0.294221
-0.305777
0.280272
-0.237802
-0.500622
-0.500876
0.972991
0.444256
0.432943
-0.477256
-0.494578
-0.482733
-0.464472
-0.478757
-0.49025
-0.485427
-0.474138
-0.477033
-0.474819
-0.444233
-0.447929
-0.476106
-0.460608
-0.486152
-0.486766
-0.487724
-0.486013
-0.475709
-0.479779
-0.476037
-0.476274
0.869509
1.14465
1.362
0.975224
0.847824
1.19594
1.38293
0.654743
0.940569
0.935397
1.23442
0.658426
0.914556
0.928047
0.858396
0.945103
1.25402
1.36716
1.23336
1.367
0.855278
0.673997
1.22588
0.923741
0.924693
0.912078
0.922057
0.703362
0.994805
-0.460095
-0.460648
-0.443437
-0.453559
-0.435842
-0.438805
-0.445623
-0.451956
-0.434747
-0.455533
-0.464406
-0.462909
-0.454441
-0.463118
-0.454726
-0.455133
-0.441197
-0.437592
-0.45032
-0.432463
-0.450885
-0.433269
-0.439967
0.889891
0.872864
1.20981
1.09846
0.856615
0.876223
1.1978
1.10325
1.51717
1.01031
1.21501
1.02418
1.49955
1.08013
0.881628
1.09676
0.878274
1.19147
0.875259
1.19365
0.896322
1.10483
1.20494
1.50246
1.12005
1.49962
1.10344
1.07384
1.11062
1.10923
-0.419728
-0.419247
-0.447691
-0.443725
-0.440384
-0.424529
-0.447473
-0.444616
-0.441433
-0.43625
-0.450581
-0.456062
-0.436692
-0.455863
-0.436827
-0.435814
-0.448082
-0.423888
-0.445595
-0.44227
-0.445249
-0.441746
-0.447992
-0.221441
0.0445035
-0.251843
0.0343537
-0.141851
0.00450594
-0.25143
-0.529766
-0.532873
0.712748
0.371447
0.341189
-0.295364
0.00540648
0.0201457
-0.25963
0.0118397
-0.255347
-0.305917
-0.541243
-0.538476
-0.427848
-0.439159
-0.427278
-0.412868
-0.414957
-0.449664
-0.43412
-0.440783
-0.427604
-0.44954
-0.436114
-0.439883
-0.440797
-0.427326
-0.428015
-0.415481
-0.414995
-0.448616
-0.427347
-0.434489
-0.441312
-0.434046
-0.441137
-0.448207
-0.601878
-0.682868
-0.954743
-1.14113
-0.574541
-0.709004
-0.97308
-0.628383
-1.15773
-0.676994
-0.988551
-0.711877
-0.988216
-0.62519
-1.32439
-1.1937
-1.09327
-1.04212
-1.35428
-1.19872
-1.07136
-1.47065
-1.50062
-1.12719
-1.01844
-1.48733
-1.46833
-1.11829
-1.70678
-1.30674
-1.35461
-1.67643
-1.29336
-1.0363
-1.17092
-1.01764
-1.20666
-1.05038
-1.26038
-1.4423
-1.003
-1.41514
-1.097
-1.43578
-1.11215
-1.41757
-0.80365
-0.545273
-0.829397
-0.518972
-1.00563
-1.35308
-0.762537
-0.826205
-1.00335
-1.32647
-0.764913
-0.725253
-0.536795
-0.690715
-0.577843
-0.725146
-0.52983
-0.695747
-0.781544
-0.490231
-0.499832
-0.766218
-1.00822
-0.813189
-1.29344
-0.769893
-1.30719
-0.76958
-1.00778
-0.724705
-0.571298
-0.5236
-0.700369
-0.525055
-0.700575
-0.724904
-0.442832
-0.412259
-0.413089
-0.38933
-0.410675
-0.391912
-0.442573
)
;

boundaryField
{
    inlet
    {
        type            zeroGradient;
    }
    outlet
    {
        type            fixedValue;
        value           uniform 0;
    }
    up
    {
        type            zeroGradient;
    }
    down
    {
        type            zeroGradient;
    }
    frontAndBack
    {
        type            zeroGradient;
    }
    cylinder
    {
        type            zeroGradient;
    }
}


// ************************************************************************* //
