/*--------------------------------*- C++ -*----------------------------------*\
  =========                 |
  \\      /  F ield         | OpenFOAM: The Open Source CFD Toolbox
   \\    /   O peration     | Website:  https://openfoam.org
    \\  /    A nd           | Version:  8
     \\/     M anipulation  |
\*---------------------------------------------------------------------------*/
FoamFile
{
    version     2.0;
    format      ascii;
    class       volVectorField;
    location    "3.5";
    object      U;
}
// * * * * * * * * * * * * * * * * * * * * * * * * * * * * * * * * * * * * * //

dimensions      [0 1 -1 0 0 0 0];

internalField   nonuniform List<vector> 
464
(
(-1.9149e-05 1.90008e-05 0)
(-5.71503e-05 1.86499e-05 0)
(-9.38463e-05 1.76965e-05 0)
(-0.000128139 1.63149e-05 0)
(-0.000159257 1.45605e-05 0)
(-0.000186505 1.25007e-05 0)
(-0.000209336 1.02131e-05 0)
(-0.000227441 7.77716e-06 0)
(-0.000240285 5.26788e-06 0)
(-0.000250654 2.64105e-06 0)
(-0.000247632 7.35689e-07 0)
(-0.000266253 -2.59765e-06 0)
(-1.9768e-05 5.76858e-05 0)
(-5.89892e-05 5.66114e-05 0)
(-9.68391e-05 5.37015e-05 0)
(-0.000132173 4.94865e-05 0)
(-0.000164186 4.41366e-05 0)
(-0.000192159 3.78594e-05 0)
(-0.000215526 3.08991e-05 0)
(-0.000233979 2.35335e-05 0)
(-0.000247105 1.6214e-05 0)
(-0.00025694 9.23501e-06 0)
(-0.000255058 5.81376e-06 0)
(-0.000269444 -2.80991e-06 0)
(-2.07631e-05 9.79912e-05 0)
(-6.19422e-05 9.61376e-05 0)
(-0.000101631 9.11433e-05 0)
(-0.000138604 8.39155e-05 0)
(-0.000172002 7.47466e-05 0)
(-0.000201052 6.39844e-05 0)
(-0.000225132 5.20181e-05 0)
(-0.000243722 3.92713e-05 0)
(-0.000256272 2.63095e-05 0)
(-0.000262811 1.35487e-05 0)
(-0.000261426 3.55011e-06 0)
(-0.000256315 -9.84498e-06 0)
(-2.23092e-05 0.000140769 0)
(-6.65269e-05 0.000138044 0)
(-0.000109064 0.00013076 0)
(-0.000148572 0.000120237 0)
(-0.00018412 0.000106909 0)
(-0.000214891 9.12753e-05 0)
(-0.000240242 7.38614e-05 0)
(-0.000259691 5.51956e-05 0)
(-0.000272832 3.57777e-05 0)
(-0.000279704 1.6003e-05 0)
(-0.000278456 -3.31501e-06 0)
(-0.000272044 -2.3281e-05 0)
(-2.44747e-05 0.000187216 0)
(-7.29402e-05 0.000183477 0)
(-0.000119441 0.000173589 0)
(-0.000162455 0.000159349 0)
(-0.000200963 0.000141376 0)
(-0.0002341 0.000120353 0)
(-0.000261211 9.6977e-05 0)
(-0.000281806 7.19163e-05 0)
(-0.000295464 4.58113e-05 0)
(-0.000301904 1.92307e-05 0)
(-0.000300711 -6.9658e-06 0)
(-0.000292284 -3.37178e-05 0)
(-2.73609e-05 0.000238638 0)
(-8.14694e-05 0.000233668 0)
(-0.000133195 0.000220725 0)
(-0.000180785 0.000202175 0)
(-0.000223116 0.000178891 0)
(-0.000259289 0.000151796 0)
(-0.00028868 0.000121787 0)
(-0.000310857 8.96833e-05 0)
(-0.000325518 5.61983e-05 0)
(-0.000332481 2.1898e-05 0)
(-0.000331404 -1.26976e-05 0)
(-0.000322514 -4.73283e-05 0)
(-3.11181e-05 0.000296587 0)
(-9.25302e-05 0.000290054 0)
(-0.000150938 0.000273411 0)
(-0.000204289 0.00024972 0)
(-0.000251342 0.000220231 0)
(-0.000291203 0.000186184 0)
(-0.000323324 0.000148736 0)
(-0.000347395 0.000108885 0)
(-0.00036325 6.74559e-05 0)
(-0.0003708 2.51058e-05 0)
(-0.000369937 -1.75959e-05 0)
(-0.000360712 -6.0367e-05 0)
(-3.59722e-05 0.000362955 0)
(-0.000106729 0.00035434 0)
(-0.000173534 0.000333069 0)
(-0.000233965 0.000303064 0)
(-0.000286652 0.000266166 0)
(-0.000330784 0.000224032 0)
(-0.000365979 0.000178151 0)
(-0.000392137 0.000129722 0)
(-0.000409297 7.96696e-05 0)
(-0.000417533 2.86824e-05 0)
(-0.000416877 -2.27071e-05 0)
(-0.000407356 -7.40938e-05 0)
(-4.2277e-05 0.000440158 0)
(-0.000124966 0.000428595 0)
(-0.00020222 0.000401348 0)
(-0.000271192 0.000363346 0)
(-0.000330374 0.000317412 0)
(-0.000379219 0.00026573 0)
(-0.000417635 0.00021021 0)
(-0.000445876 0.000152262 0)
(-0.000464289 9.28742e-05 0)
(-0.000473176 3.26998e-05 0)
(-0.000472713 -2.78239e-05 0)
(-0.000462919 -8.83631e-05 0)
(-5.06205e-05 0.000531346 0)
(-0.000148631 0.000515358 0)
(-0.00023879 0.000480175 0)
(-0.000317902 0.000431705 0)
(-0.000384267 0.000374535 0)
(-0.000437986 0.000311432 0)
(-0.000479447 0.00024484 0)
(-0.000509472 0.000176343 0)
(-0.000528858 0.000106925 0)
(-0.000538231 3.7093e-05 0)
(-0.00053794 -3.29466e-05 0)
(-0.000528003 -0.0001031 0)
(-6.19896e-05 0.000641294 0)
(-0.00017987 0.000617945 0)
(-0.00028588 0.000571882 0)
(-0.000376832 0.000509178 0)
(-0.000450647 0.000437795 0)
(-0.000508914 0.000360885 0)
(-0.000552723 0.000281526 0)
(-0.000583791 0.000201431 0)
(-0.000603539 0.00012144 0)
(-0.000613048 4.17095e-05 0)
(-0.000612906 -3.7988e-05 0)
(-0.000603134 -0.000117997 0)
(-7.84626e-05 0.000774562 0)
(-0.000222546 0.000739653 0)
(-0.000347567 0.000678846 0)
(-0.00045199 0.000596339 0)
(-0.00053256 0.00050684 0)
(-0.000594254 0.000413057 0)
(-0.000638901 0.00031914 0)
(-0.000669559 0.000226596 0)
(-0.00068858 0.000135812 0)
(-0.000697659 4.63258e-05 0)
(-0.000697647 -4.27629e-05 0)
(-0.000688563 -0.000132491 0)
(-0.00010233 0.000951546 0)
(-0.00028103 0.000889051 0)
(-0.000429205 0.000806229 0)
(-0.00054884 0.000693202 0)
(-0.000633928 0.000580147 0)
(-0.000696613 0.000465991 0)
(-0.000739184 0.000355839 0)
(-0.000767119 0.000250356 0)
(-0.00078381 0.00014908 0)
(-0.000791623 5.06062e-05 0)
(-0.000791723 -4.69517e-05 0)
(-0.000784133 -0.00014563 0)
(-0.0001476 0.0011342 0)
(-0.000374524 0.00104515 0)
(-0.000543425 0.00094159 0)
(-0.000678074 0.000792917 0)
(-0.00075977 0.000653535 0)
(-0.000818561 0.000515889 0)
(-0.000854536 0.000388375 0)
(-0.000876318 0.000270233 0)
(-0.00088833 0.000159719 0)
(-0.000893691 5.4027e-05 0)
(-0.000893883 -5.00697e-05 0)
(-0.000888937 -0.000155917 0)
(-0.000199402 0.00154077 0)
(-0.000481722 0.00130904 0)
(-0.000681441 0.00115747 0)
(-0.000836907 0.00091456 0)
(-0.000910956 0.000731978 0)
(-0.000961775 0.000560406 0)
(-0.00098484 0.000413086 0)
(-0.000995776 0.000283191 0)
(-0.00100002 0.000165757 0)
(-0.00100141 5.58871e-05 0)
(-0.00100167 -5.14757e-05 0)
(-0.00100083 -0.00016143 0)
(-0.000389928 0.00172026 0)
(-0.000768511 0.00143023 0)
(-0.000937859 0.00126078 0)
(-0.00110358 0.00096906 0)
(-0.0011139 0.000768271 0)
(-0.00113745 0.000576685 0)
(-0.00113175 0.00041834 0)
(-0.00112365 0.00028264 0)
(-0.00111563 0.000163877 0)
(-0.00111092 5.51734e-05 0)
(-0.0011112 -5.01925e-05 0)
(-0.00111654 -0.00015886 0)
(-0.000501219 0.00291011 0)
(-0.000954051 0.00191218 0)
(-0.00114256 0.00165035 0)
(-0.00132957 0.00109418 0)
(-0.00130334 0.000833405 0)
(-0.00131172 0.000584482 0)
(-0.00127889 0.000408 0)
(-0.00125024 0.000267947 0)
(-0.00122748 0.000152967 0)
(-0.00121548 5.13644e-05 0)
(-0.0012157 -4.59227e-05 0)
(-0.00122821 -0.000147394 0)
(-0.0014074 0.00292261 0)
(-0.00204886 0.00183877 0)
(-0.00175504 0.00157145 0)
(-0.00192045 0.000992111 0)
(-0.00162335 0.000743309 0)
(-0.00156274 0.000505265 0)
(-0.00144817 0.000346732 0)
(-0.00137857 0.000224398 0)
(-0.00133211 0.000126962 0)
(-0.0013097 4.28785e-05 0)
(-0.00130984 -3.68478e-05 0)
(-0.00133276 -0.000120494 0)
(-0.0016563 0.00697227 0)
(-0.00232423 0.00224982 0)
(-0.00196743 0.00187136 0)
(-0.00212214 0.000907287 0)
(-0.00174958 0.000616257 0)
(-0.00166458 0.000391677 0)
(-0.00151419 0.000251447 0)
(-0.00142329 0.000157159 0)
(-0.00136146 8.71185e-05 0)
(-0.00133109 2.94882e-05 0)
(-0.00133026 -2.4256e-05 0)
(-0.00135881 -8.14549e-05 0)
(0.00753716 0.00621925 0)
(0.00662284 0.00169303 0)
(0.0106999 0.00135898 0)
(0.0106725 0.000548345 0)
(0.0117032 0.000330835 0)
(0.011927 0.000188247 0)
(0.0121739 0.000107804 0)
(0.0123163 6.29893e-05 0)
(0.0124013 3.37248e-05 0)
(0.0124417 1.16252e-05 0)
(0.0124438 -8.31279e-06 0)
(0.0124078 -3.00754e-05 0)
(-0.000227757 0.00012108 0)
(-0.000154507 5.9293e-05 0)
(-0.000130449 1.12503e-05 0)
(-0.000101951 -1.96926e-05 0)
(-7.90783e-05 -4.26874e-05 0)
(-5.60719e-05 -5.86124e-05 0)
(-3.35134e-05 -6.88632e-05 0)
(-1.11482e-05 -7.33062e-05 0)
(-0.000234981 1.80441e-05 0)
(-0.000170428 -8.84689e-06 0)
(-0.000144788 -2.93895e-05 0)
(-0.000116108 -5.1612e-05 0)
(-9.14841e-05 -6.97191e-05 0)
(-6.62593e-05 -8.39454e-05 0)
(-4.01654e-05 -9.37659e-05 0)
(-1.34207e-05 -9.80452e-05 0)
(-0.000234752 9.55939e-07 0)
(-0.000201943 -2.69695e-05 0)
(-0.000173214 -5.05517e-05 0)
(-0.000142281 -7.51923e-05 0)
(-0.000111412 -9.59533e-05 0)
(-8.01203e-05 -0.000112059 0)
(-4.83024e-05 -0.000122893 0)
(-1.61151e-05 -0.000127449 0)
(-0.000252107 -3.92838e-05 0)
(-0.000221935 -6.31706e-05 0)
(-0.000193011 -8.65315e-05 0)
(-0.00016151 -0.000109386 0)
(-0.000128351 -0.000129722 0)
(-9.32013e-05 -0.000146188 0)
(-5.64523e-05 -0.000157683 0)
(-1.8871e-05 -0.000162414 0)
(-0.000274641 -5.74357e-05 0)
(-0.00024919 -8.66534e-05 0)
(-0.000219429 -0.000115331 0)
(-0.000185471 -0.000142406 0)
(-0.000148213 -0.000165927 0)
(-0.000108084 -0.000184704 0)
(-6.56704e-05 -0.000197808 0)
(-2.19846e-05 -0.000203088 0)
(-0.000305043 -8.1126e-05 0)
(-0.00027983 -0.000115623 0)
(-0.000248764 -0.00014895 0)
(-0.000212106 -0.000179967 0)
(-0.000170649 -0.000207099 0)
(-0.000125085 -0.000228936 0)
(-7.6263e-05 -0.000244254 0)
(-2.55747e-05 -0.000250376 0)
(-0.000342936 -0.000102438 0)
(-0.000317014 -0.000144203 0)
(-0.000283774 -0.000184161 0)
(-0.00024362 -0.000221087 0)
(-0.000197182 -0.000253412 0)
(-0.000145243 -0.00027955 0)
(-8.88695e-05 -0.000297978 0)
(-2.98612e-05 -0.000305383 0)
(-0.000388879 -0.000124914 0)
(-0.000361553 -0.0001748 0)
(-0.000325647 -0.000222583 0)
(-0.000281357 -0.000266872 0)
(-0.000229113 -0.000305907 0)
(-0.000169657 -0.000337775 0)
(-0.000104241 -0.000360419 0)
(-3.51196e-05 -0.000369715 0)
(-0.000443642 -0.000148471 0)
(-0.000414682 -0.000207589 0)
(-0.000375846 -0.000264608 0)
(-0.000326945 -0.000317976 0)
(-0.000268085 -0.000365595 0)
(-0.000199762 -0.000405089 0)
(-0.000123406 -0.000433449 0)
(-4.17475e-05 -0.000445581 0)
(-0.000508105 -0.000173162 0)
(-0.00047769 -0.000242635 0)
(-0.000436034 -0.000310464 0)
(-0.000382345 -0.000374963 0)
(-0.000316226 -0.000433551 0)
(-0.000237518 -0.000483314 0)
(-0.000147862 -0.000519478 0)
(-5.03738e-05 -0.000536009 0)
(-0.000583177 -0.000198548 0)
(-0.000551985 -0.000279481 0)
(-0.000508174 -0.000359918 0)
(-0.000450032 -0.000438067 0)
(-0.000376435 -0.000510751 0)
(-0.000285698 -0.000574709 0)
(-0.000179865 -0.000621745 0)
(-6.20322e-05 -0.000645717 0)
(-0.000669589 -0.000223761 0)
(-0.00063906 -0.000317039 0)
(-0.00059462 -0.000411932 0)
(-0.000533178 -0.000506899 0)
(-0.000452867 -0.000597708 0)
(-0.000348524 -0.000681613 0)
(-0.000223402 -0.000743519 0)
(-7.88663e-05 -0.000779351 0)
(-0.000767724 -0.000247326 0)
(-0.000740155 -0.000353464 0)
(-0.000698034 -0.000464523 0)
(-0.000635808 -0.000579864 0)
(-0.000551148 -0.000694336 0)
(-0.000431525 -0.00080914 0)
(-0.000283077 -0.000893311 0)
(-0.000103325 -0.000957231 0)
(-0.000877423 -0.000266763 0)
(-0.000856257 -0.000385458 0)
(-0.00082102 -0.000513802 0)
(-0.000762992 -0.000652625 0)
(-0.000682141 -0.000793478 0)
(-0.000547521 -0.000944661 0)
(-0.000378181 -0.00104976 0)
(-0.000149462 -0.00114233 0)
(-0.000997265 -0.000279077 0)
(-0.000987195 -0.000409417 0)
(-0.0009652 -0.000557605 0)
(-0.000915485 -0.000730676 0)
(-0.00084317 -0.000915145 0)
(-0.000687842 -0.00116177 0)
(-0.00048884 -0.00131603 0)
(-0.000204015 -0.0015524 0)
(-0.00112541 -0.000277579 0)
(-0.00113479 -0.000413261 0)
(-0.00114228 -0.00057169 0)
(-0.00112055 -0.000764103 0)
(-0.00111322 -0.00096508 0)
(-0.000948503 -0.00126291 0)
(-0.000779463 -0.00143269 0)
(-0.000396531 -0.00174001 0)
(-0.00125166 -0.000262265 0)
(-0.0012813 -0.00040237 0)
(-0.00131602 -0.000579174 0)
(-0.00130886 -0.000829894 0)
(-0.00134182 -0.00109279 0)
(-0.00115556 -0.00165706 0)
(-0.000977787 -0.00192702 0)
(-0.000524225 -0.00294241 0)
(-0.00138027 -0.000216903 0)
(-0.00145158 -0.000337626 0)
(-0.00156969 -0.000493434 0)
(-0.0016342 -0.00073062 0)
(-0.00194023 -0.000970984 0)
(-0.00178336 -0.00156257 0)
(-0.0020842 -0.00181421 0)
(-0.00143194 -0.00298665 0)
(-0.00141852 -0.000150516 0)
(-0.00150639 -0.000243475 0)
(-0.00165573 -0.000381265 0)
(-0.00172998 -0.000606482 0)
(-0.00211226 -0.000895247 0)
(-0.00192332 -0.00187287 0)
(-0.00232656 -0.00228461 0)
(-0.00156964 -0.00707925 0)
(0.0123275 -5.87194e-05 0)
(0.0121921 -0.000102618 0)
(0.0119468 -0.000181127 0)
(0.0117476 -0.000322789 0)
(0.0106962 -0.000531786 0)
(0.0107813 -0.00134545 0)
(0.00664668 -0.00166962 0)
(0.00760745 -0.00619072 0)
(-1.80383e-06 1.26399e-06 0)
(-5.02858e-06 9.77975e-07 0)
(-7.32289e-06 5.08854e-07 0)
(-8.41787e-06 -8.55031e-08 0)
(-8.1967e-06 -5.42563e-07 0)
(-6.76954e-06 -9.65895e-07 0)
(-4.42507e-06 -1.29614e-06 0)
(-1.53249e-06 -1.46479e-06 0)
(-2.113e-06 5.86267e-06 0)
(-5.82938e-06 4.78144e-06 0)
(-8.43744e-06 3.04608e-06 0)
(-9.5279e-06 1.03383e-06 0)
(-9.13411e-06 -1.05021e-06 0)
(-7.5703e-06 -2.76974e-06 0)
(-4.96515e-06 -3.97155e-06 0)
(-1.72213e-06 -4.54636e-06 0)
(-2.93658e-06 8.54647e-06 0)
(-7.91931e-06 6.6983e-06 0)
(-1.11217e-05 3.81009e-06 0)
(-1.25729e-05 3.59308e-07 0)
(-1.20574e-05 -2.7227e-06 0)
(-9.73821e-06 -5.39892e-06 0)
(-6.26477e-06 -7.32956e-06 0)
(-2.1501e-06 -8.2862e-06 0)
(-4.02464e-06 1.82534e-05 0)
(-1.06294e-05 1.42052e-05 0)
(-1.47767e-05 8.53313e-06 0)
(-1.60608e-05 2.36583e-06 0)
(-1.48925e-05 -3.51231e-06 0)
(-1.21774e-05 -8.17777e-06 0)
(-7.91076e-06 -1.13937e-05 0)
(-2.73691e-06 -1.29141e-05 0)
(-7.10812e-06 2.09995e-05 0)
(-1.77632e-05 1.55054e-05 0)
(-2.29614e-05 8.0372e-06 0)
(-2.46183e-05 -1.82509e-07 0)
(-2.2601e-05 -7.24129e-06 0)
(-1.76198e-05 -1.31446e-05 0)
(-1.10922e-05 -1.72676e-05 0)
(-3.76146e-06 -1.92628e-05 0)
(-9.67257e-06 4.73871e-05 0)
(-2.37461e-05 3.31105e-05 0)
(-3.0465e-05 1.73102e-05 0)
(-3.13394e-05 2.6404e-06 0)
(-2.78546e-05 -9.60426e-06 0)
(-2.22041e-05 -1.87266e-05 0)
(-1.41646e-05 -2.47477e-05 0)
(-4.86732e-06 -2.75273e-05 0)
(-2.17117e-05 4.87019e-05 0)
(-4.81667e-05 3.15968e-05 0)
(-5.3432e-05 1.30704e-05 0)
(-5.15326e-05 -3.73238e-06 0)
(-4.39678e-05 -1.77587e-05 0)
(-3.27635e-05 -2.84411e-05 0)
(-2.00871e-05 -3.56357e-05 0)
(-6.73475e-06 -3.89574e-05 0)
(-2.76123e-05 0.000128827 0)
(-5.97318e-05 7.12947e-05 0)
(-6.57961e-05 2.38816e-05 0)
(-6.21689e-05 -5.72349e-06 0)
(-5.25636e-05 -2.65389e-05 0)
(-4.0082e-05 -4.08346e-05 0)
(-2.49553e-05 -4.98466e-05 0)
(-8.46268e-06 -5.38816e-05 0)
)
;

boundaryField
{
    movingWall
    {
        type            fixedValue;
        value           uniform (1 0 0);
    }
    fixedWalls
    {
        type            noSlip;
    }
    frontAndBack
    {
        type            empty;
    }
}


// ************************************************************************* //
