# Force coefficients
# liftDir     : (0.000000e+00 1.000000e+00 0.000000e+00)
# dragDir     : (1.000000e+00 0.000000e+00 0.000000e+00)
# pitchAxis   : (0.000000e+00 0.000000e+00 1.000000e+00)
# magUInf     : 1.000000e+00
# lRef        : 1.000000e+00
# Aref        : 1.000000e+00
# CofR        : (0.000000e+00 0.000000e+00 0.000000e+00)
# Time        	Cm            	Cd            	Cl            	Cl(f)         	Cl(r)         
0             	0.000000e+00	0.000000e+00	0.000000e+00	0.000000e+00	0.000000e+00
0.001         	6.623210e-07	6.835601e+02	1.983708e-02	9.919204e-03	9.917879e-03
0.002         	-1.836782e-07	-1.844713e-01	-1.991899e-02	-9.959681e-03	-9.959314e-03
0.003         	4.907506e-07	3.263040e+00	2.714003e-04	1.361909e-04	1.352094e-04
0.004         	1.367481e-07	2.944621e+00	3.835328e-05	1.931339e-05	1.903989e-05
0.005         	-3.488968e-07	2.720545e+00	-2.991210e-05	-1.530495e-05	-1.460715e-05
0.006         	-4.716305e-07	2.536418e+00	-2.861771e-06	-1.902516e-06	-9.592552e-07
0.007         	-5.153744e-07	2.382399e+00	1.485032e-05	6.909784e-06	7.940533e-06
0.008         	-5.651165e-07	2.252142e+00	-6.173911e-06	-3.652072e-06	-2.521839e-06
0.009         	-5.841599e-07	2.140318e+00	6.159294e-06	2.495487e-06	3.663807e-06
0.01          	-5.830340e-07	2.043109e+00	-2.439129e-06	-1.802599e-06	-6.365308e-07
0.011         	-5.687702e-07	1.957609e+00	2.961027e-06	9.117435e-07	2.049284e-06
0.012         	-5.473076e-07	1.881604e+00	-3.824631e-07	-7.385391e-07	3.560760e-07
0.013         	-5.208125e-07	1.813422e+00	1.719614e-06	3.389942e-07	1.380619e-06
0.014         	-5.026736e-07	1.751753e+00	-2.116590e-07	-6.085031e-07	3.968441e-07
0.015         	-4.754273e-07	1.695633e+00	7.913458e-07	-7.975439e-08	8.711001e-07
0.016         	-4.472712e-07	1.644226e+00	-1.333491e-07	-5.139457e-07	3.805966e-07
0.017         	-4.213892e-07	1.596918e+00	2.420192e-07	-3.003796e-07	5.423988e-07
0.018         	-3.972861e-07	1.553216e+00	-2.473675e-07	-5.209698e-07	2.736023e-07
0.019         	-3.695677e-07	1.513207e+00	-1.007856e-06	-8.734957e-07	-1.343603e-07
0.02          	-3.497753e-07	1.475486e+00	1.367520e-06	3.339849e-07	1.033536e-06
0.021         	-3.243093e-07	1.439817e+00	6.579771e-07	4.679289e-09	6.532978e-07
0.022         	-3.094392e-07	1.406963e+00	-2.176694e-06	-1.397786e-06	-7.789077e-07
0.023         	-2.937055e-07	1.376140e+00	-3.954645e-07	-4.914377e-07	9.597322e-08
0.024         	-2.785427e-07	1.347201e+00	-1.432596e-06	-9.948408e-07	-4.377555e-07
0.025         	-2.649145e-07	1.319998e+00	-2.426549e-06	-1.478189e-06	-9.483600e-07
0.026         	-2.595874e-07	1.294117e+00	-7.816452e-07	-6.504100e-07	-1.312352e-07
0.027         	-2.460923e-07	1.269494e+00	2.742796e-06	1.125306e-06	1.617490e-06
0.028         	-2.327706e-07	1.246300e+00	-1.221358e-06	-8.434496e-07	-3.779084e-07
0.029         	-2.248999e-07	1.224382e+00	1.026930e-07	-1.735534e-07	2.762464e-07
0.03          	-2.176343e-07	1.203535e+00	-2.099000e-07	-3.225843e-07	1.126844e-07
0.031         	-2.111678e-07	1.183696e+00	2.676811e-07	-7.732724e-08	3.450084e-07
0.032         	-2.054371e-07	1.164794e+00	-1.823968e-07	-2.966355e-07	1.142388e-07
0.033         	-2.006068e-07	1.146765e+00	1.082751e-07	-1.464692e-07	2.547443e-07
0.034         	-1.910933e-07	1.129554e+00	-1.418015e-06	-9.001005e-07	-5.179140e-07
0.035         	-1.894170e-07	1.113116e+00	-1.123269e-06	-7.510514e-07	-3.722174e-07
0.036         	-1.866121e-07	1.097366e+00	3.465784e-06	1.546280e-06	1.919504e-06
0.037         	-1.836828e-07	1.082277e+00	1.043506e-06	3.380701e-07	7.054356e-07
0.038         	-1.793830e-07	1.067830e+00	3.619492e-06	1.630363e-06	1.989129e-06
0.039         	-1.779740e-07	1.053794e+00	-5.893639e-06	-3.124794e-06	-2.768846e-06
0.04          	-1.748375e-07	1.040028e+00	-1.643961e-06	-9.968178e-07	-6.471429e-07
0.041         	-1.733544e-07	1.027220e+00	1.223884e-06	4.385877e-07	7.852966e-07
0.042         	-1.715559e-07	1.014891e+00	-6.915736e-07	-5.173427e-07	-1.742309e-07
0.043         	-1.697066e-07	1.003026e+00	4.287027e-07	4.464471e-08	3.840580e-07
0.044         	-1.682409e-07	9.916088e-01	-1.318472e-06	-8.274769e-07	-4.909952e-07
0.045         	-1.666746e-07	9.806291e-01	-8.548672e-07	-5.941082e-07	-2.607590e-07
0.046         	-1.651159e-07	9.700000e-01	-5.877833e-07	-4.590075e-07	-1.287758e-07
0.047         	-1.641517e-07	9.597487e-01	-3.393261e-07	-3.338147e-07	-5.511388e-09
0.048         	-1.632617e-07	9.496875e-01	1.300149e-06	4.868128e-07	8.133363e-07
0.049         	-1.646502e-07	9.396788e-01	2.216111e-06	9.434052e-07	1.272706e-06
0.05          	-1.661683e-07	9.301741e-01	-4.042393e-07	-3.682880e-07	-3.595134e-08
0.051         	-1.616216e-07	9.211954e-01	-6.432191e-07	-4.832312e-07	-1.599879e-07
0.052         	-1.600205e-07	9.124723e-01	-5.510209e-07	-4.355310e-07	-1.154900e-07
0.053         	-1.597057e-07	9.040133e-01	-3.252898e-07	-3.223506e-07	-2.939202e-09
0.054         	-1.591961e-07	8.958073e-01	-2.546985e-07	-2.865454e-07	3.184682e-08
0.055         	-1.588237e-07	8.878429e-01	-2.356303e-07	-2.766389e-07	4.100857e-08
0.056         	-1.584901e-07	8.801097e-01	-2.116004e-07	-2.642903e-07	5.268996e-08
0.057         	-1.583044e-07	8.725980e-01	-3.624259e-07	-3.395174e-07	-2.290855e-08
0.058         	-1.582643e-07	8.652988e-01	1.301500e-07	-9.318929e-08	2.233393e-07
0.059         	-1.581544e-07	8.582037e-01	1.205821e-07	-9.786340e-08	2.184455e-07
0.06          	-1.580057e-07	8.513033e-01	-2.400555e-07	-2.780334e-07	3.797795e-08
0.061         	-1.579333e-07	8.445885e-01	-1.196074e-07	-2.177370e-07	9.812961e-08
0.062         	-1.579927e-07	8.380518e-01	-1.955719e-07	-2.557786e-07	6.020674e-08
0.063         	-1.580206e-07	8.316866e-01	-1.165172e-07	-2.162793e-07	9.976204e-08
0.064         	-1.580707e-07	8.254856e-01	-1.995271e-07	-2.578342e-07	5.830713e-08
0.065         	-1.581289e-07	8.194426e-01	-1.580810e-07	-2.371694e-07	7.908834e-08
0.066         	-1.582000e-07	8.135517e-01	-1.761216e-07	-2.462608e-07	7.013918e-08
0.067         	-1.582773e-07	8.078075e-01	-1.693180e-07	-2.429363e-07	7.361834e-08
0.068         	-1.583607e-07	8.022047e-01	-1.733070e-07	-2.450141e-07	7.170716e-08
0.069         	-1.584437e-07	7.967377e-01	-1.721811e-07	-2.445343e-07	7.235317e-08
0.07          	-1.585287e-07	7.914009e-01	-1.723886e-07	-2.447230e-07	7.233439e-08
0.071         	-1.586096e-07	7.861901e-01	-1.730817e-07	-2.451504e-07	7.206873e-08
0.072         	-1.586879e-07	7.811008e-01	-1.733159e-07	-2.453459e-07	7.202998e-08
0.073         	-1.587607e-07	7.761294e-01	-1.890094e-07	-2.532654e-07	6.425606e-08
0.074         	-1.588216e-07	7.712724e-01	-1.644503e-07	-2.410467e-07	7.659646e-08
0.075         	-1.588780e-07	7.665264e-01	-1.807079e-07	-2.492319e-07	6.852401e-08
0.076         	-1.589206e-07	7.618878e-01	-1.668655e-07	-2.423533e-07	7.548782e-08
0.077         	-1.589546e-07	7.573532e-01	-1.718018e-07	-2.448555e-07	7.305374e-08
0.078         	-1.589769e-07	7.529193e-01	-1.694345e-07	-2.436942e-07	7.425971e-08
0.079         	-1.589891e-07	7.485828e-01	-1.692116e-07	-2.435949e-07	7.438332e-08
0.08          	-1.593936e-07	7.443430e-01	-3.907792e-07	-3.547832e-07	-3.599600e-08
0.081         	-1.598604e-07	7.401921e-01	-3.745287e-07	-3.471248e-07	-2.740391e-08
0.082         	-1.602113e-07	7.361296e-01	-3.838887e-07	-3.521556e-07	-3.173306e-08
0.083         	-1.604582e-07	7.321525e-01	-3.738663e-07	-3.473913e-07	-2.647502e-08
0.084         	-1.606327e-07	7.282585e-01	-3.727625e-07	-3.470139e-07	-2.574857e-08
0.085         	-1.607413e-07	7.244452e-01	-3.678973e-07	-3.446900e-07	-2.320732e-08
0.086         	-1.607999e-07	7.207102e-01	-3.659667e-07	-3.437832e-07	-2.218349e-08
0.087         	-1.608180e-07	7.170515e-01	-3.657248e-07	-3.436804e-07	-2.204434e-08
0.088         	-1.607959e-07	7.134669e-01	-3.794720e-07	-3.505319e-07	-2.894007e-08
0.089         	-1.604310e-07	7.099570e-01	-3.537116e-07	-3.372868e-07	-1.642484e-08
0.09          	-1.601504e-07	7.065152e-01	-3.000100e-07	-3.101554e-07	1.014542e-08
0.091         	-1.602079e-07	7.031409e-01	-8.515068e-08	-2.027833e-07	1.176326e-07
0.092         	-1.600561e-07	6.998195e-01	1.668296e-08	-1.517147e-07	1.683976e-07
0.093         	-1.597415e-07	6.965670e-01	-2.134363e-07	-2.664597e-07	5.302338e-08
0.094         	-1.595144e-07	6.933816e-01	-2.243270e-07	-2.716779e-07	4.735087e-08
0.095         	-1.597839e-07	6.902557e-01	2.590645e-07	-3.025171e-08	2.893162e-07
0.096         	-1.592810e-07	6.871746e-01	-9.654099e-08	-2.075515e-07	1.110106e-07
0.097         	-1.589024e-07	6.841673e-01	-3.322177e-07	-3.250112e-07	-7.206440e-09
0.098         	-1.586752e-07	6.812209e-01	-2.660919e-07	-2.917211e-07	2.562922e-08
0.099         	-1.584475e-07	6.783291e-01	-2.344966e-07	-2.756958e-07	4.119917e-08
0.1           	-1.582398e-07	6.754906e-01	-1.883907e-07	-2.524352e-07	6.404443e-08
0.101         	-1.579665e-07	6.727042e-01	-1.884801e-07	-2.522065e-07	6.372645e-08
0.102         	-1.577109e-07	6.699687e-01	-1.675410e-07	-2.414814e-07	7.394037e-08
0.103         	-1.574493e-07	6.672829e-01	-1.574764e-07	-2.361875e-07	7.871112e-08
0.104         	-1.571798e-07	6.646456e-01	-1.451511e-07	-2.297553e-07	8.460419e-08
0.105         	-1.569038e-07	6.620556e-01	-1.361263e-07	-2.249670e-07	8.884066e-08
0.106         	-1.566188e-07	6.595118e-01	-1.272652e-07	-2.202514e-07	9.298617e-08
0.107         	-1.563273e-07	6.570131e-01	-1.188982e-07	-2.157764e-07	9.687827e-08
0.108         	-1.560304e-07	6.545584e-01	-1.122051e-07	-2.121329e-07	9.992784e-08
0.109         	-1.557271e-07	6.521465e-01	-1.043172e-07	-2.078857e-07	1.035685e-07
0.11          	-1.554177e-07	6.497766e-01	-9.815065e-08	-2.044930e-07	1.063424e-07
0.111         	-1.551025e-07	6.474475e-01	-9.149571e-08	-2.008504e-07	1.093547e-07
0.112         	-1.547796e-07	6.451582e-01	-8.591616e-08	-1.977377e-07	1.118216e-07
0.113         	-1.544533e-07	6.429079e-01	-8.068723e-08	-1.947969e-07	1.141096e-07
0.114         	-1.541225e-07	6.406955e-01	-7.601967e-08	-1.921323e-07	1.161127e-07
0.115         	-1.534785e-07	6.385217e-01	-1.047014e-08	-1.587135e-07	1.482434e-07
0.116         	-1.531859e-07	6.363827e-01	1.134921e-08	-1.475112e-07	1.588605e-07
0.117         	-1.528418e-07	6.342792e-01	4.568586e-09	-1.505575e-07	1.551261e-07
0.118         	-1.524904e-07	6.322102e-01	9.775218e-09	-1.476028e-07	1.573780e-07
0.119         	-1.521310e-07	6.301750e-01	3.051863e-09	-1.506051e-07	1.536569e-07
0.12          	-1.520261e-07	6.281710e-01	-4.168488e-08	-1.728686e-07	1.311837e-07
0.121         	-1.513508e-07	6.262032e-01	4.067134e-08	-1.310151e-07	1.716864e-07
0.122         	-1.510243e-07	6.242651e-01	-2.488266e-08	-1.634656e-07	1.385830e-07
0.123         	-1.506460e-07	6.223573e-01	-2.124506e-08	-1.612685e-07	1.400234e-07
0.124         	-1.502414e-07	6.204785e-01	-1.296864e-07	-2.150847e-07	8.539822e-08
0.125         	-1.502686e-07	6.186326e-01	3.181459e-07	8.804368e-09	3.093415e-07
0.126         	-1.498543e-07	6.168178e-01	4.760275e-08	-1.260529e-07	1.736557e-07
0.127         	-1.495780e-07	6.150332e-01	2.356987e-07	-3.172864e-08	2.674274e-07
0.128         	-1.486742e-07	6.132736e-01	-1.905065e-07	-2.439275e-07	5.342096e-08
0.129         	-1.484149e-07	6.115372e-01	1.300473e-07	-8.339120e-08	2.134385e-07
0.13          	-1.480789e-07	6.098273e-01	2.975783e-09	-1.465910e-07	1.495668e-07
0.131         	-1.477340e-07	6.081435e-01	6.593396e-08	-1.147671e-07	1.807010e-07
0.132         	-1.473868e-07	6.064851e-01	3.924874e-08	-1.277624e-07	1.670112e-07
0.133         	-1.470356e-07	6.048516e-01	5.433771e-08	-1.198667e-07	1.742045e-07
0.134         	-1.466821e-07	6.032426e-01	5.215307e-08	-1.206055e-07	1.727586e-07
0.135         	-1.463257e-07	6.016574e-01	5.660272e-08	-1.180243e-07	1.746270e-07
0.136         	-1.459705e-07	6.000957e-01	5.800336e-08	-1.169688e-07	1.749722e-07
0.137         	-1.456146e-07	5.985569e-01	6.067431e-08	-1.152775e-07	1.759518e-07
0.138         	-1.452859e-07	5.970406e-01	8.234325e-08	-1.041143e-07	1.864575e-07
0.139         	-1.449161e-07	5.955464e-01	6.397747e-08	-1.129274e-07	1.769049e-07
0.14          	-1.445632e-07	5.940737e-01	6.884049e-08	-1.101429e-07	1.789834e-07
0.141         	-1.442121e-07	5.926223e-01	6.955503e-08	-1.094346e-07	1.789896e-07
0.142         	-1.438622e-07	5.911916e-01	7.247941e-08	-1.076225e-07	1.801019e-07
0.143         	-1.435141e-07	5.897813e-01	7.447855e-08	-1.062748e-07	1.807533e-07
0.144         	-1.431667e-07	5.883910e-01	7.705028e-08	-1.046416e-07	1.816918e-07
0.145         	-1.428210e-07	5.870203e-01	7.943639e-08	-1.031028e-07	1.825392e-07
0.146         	-1.426696e-07	5.856590e-01	2.154254e-07	-3.495689e-08	2.503823e-07
0.147         	-1.422752e-07	5.843271e-01	-1.258751e-07	-2.052127e-07	7.933767e-08
0.148         	-1.418854e-07	5.830134e-01	2.207210e-07	-3.152490e-08	2.522459e-07
0.149         	-1.415088e-07	5.817178e-01	-5.749176e-08	-1.702547e-07	1.127629e-07
0.15          	-1.411461e-07	5.804402e-01	1.616821e-07	-6.030500e-08	2.219871e-07
0.151         	-1.407934e-07	5.791801e-01	-5.640979e-09	-1.436139e-07	1.379729e-07
0.152         	-1.404492e-07	5.779373e-01	1.350691e-07	-7.291468e-08	2.079837e-07
0.153         	-1.401077e-07	5.767114e-01	2.990354e-08	-1.251560e-07	1.550595e-07
0.154         	-1.397673e-07	5.755022e-01	1.174753e-07	-8.102963e-08	1.985050e-07
0.155         	-1.394433e-07	5.743093e-01	6.054348e-08	-1.091716e-07	1.697151e-07
0.156         	-1.391186e-07	5.731323e-01	1.024850e-07	-8.787608e-08	1.903611e-07
0.157         	-1.387986e-07	5.719708e-01	7.933282e-08	-9.913217e-08	1.784650e-07
0.158         	-1.385156e-07	5.708282e-01	2.658689e-07	-5.581140e-09	2.714500e-07
0.159         	-1.381382e-07	5.696981e-01	-3.760041e-08	-1.569384e-07	1.193380e-07
0.16          	-1.378518e-07	5.685837e-01	1.908792e-07	-4.241217e-08	2.332914e-07
0.161         	-1.375430e-07	5.674840e-01	5.834866e-08	-1.083687e-07	1.667173e-07
0.162         	-1.372323e-07	5.663990e-01	1.815554e-07	-4.645460e-08	2.280100e-07
0.163         	-1.369235e-07	5.653284e-01	9.121854e-08	-9.131427e-08	1.825328e-07
0.164         	-1.366141e-07	5.642720e-01	1.741222e-07	-4.955301e-08	2.236752e-07
0.165         	-1.363074e-07	5.632295e-01	1.167550e-07	-7.792987e-08	1.946849e-07
0.166         	-1.359979e-07	5.622008e-01	1.728659e-07	-4.956501e-08	2.224309e-07
0.167         	-1.356834e-07	5.611856e-01	1.359664e-07	-6.770019e-08	2.036666e-07
0.168         	-1.353947e-07	5.601837e-01	1.756277e-07	-4.758079e-08	2.232085e-07
0.169         	-1.350797e-07	5.591950e-01	1.541579e-07	-5.800074e-08	2.121586e-07
0.17          	-1.347764e-07	5.582191e-01	1.808104e-07	-4.437120e-08	2.251816e-07
0.171         	-1.344717e-07	5.572560e-01	1.690281e-07	-4.995762e-08	2.189857e-07
0.172         	-1.341692e-07	5.563055e-01	1.881797e-07	-4.007939e-08	2.282591e-07
0.173         	-1.338664e-07	5.553673e-01	1.827924e-07	-4.247021e-08	2.252626e-07
0.174         	-1.335654e-07	5.544413e-01	1.979314e-07	-3.459970e-08	2.325311e-07
0.175         	-1.332638e-07	5.535273e-01	1.971378e-07	-3.469489e-08	2.318327e-07
0.176         	-1.329628e-07	5.526253e-01	2.113048e-07	-2.731039e-08	2.386152e-07
0.177         	-1.327002e-07	5.517352e-01	2.175653e-07	-2.391753e-08	2.414828e-07
0.178         	-1.323751e-07	5.508575e-01	2.545159e-07	-5.117120e-09	2.596330e-07
0.179         	-1.320314e-07	5.499942e-01	3.816380e-07	5.878764e-08	3.228504e-07
0.18          	-1.317342e-07	5.491413e-01	4.889119e-08	-1.072886e-07	1.561798e-07
0.181         	-1.313703e-07	5.482781e-01	-4.188845e-07	-3.408126e-07	-7.807192e-08
0.182         	-1.311309e-07	5.474450e-01	1.006675e-06	3.722067e-07	6.344685e-07
0.183         	-1.308385e-07	5.466229e-01	-3.461158e-07	-3.038964e-07	-4.221937e-08
0.184         	-1.305574e-07	5.458114e-01	7.488261e-07	2.438556e-07	5.049705e-07
0.185         	-1.302733e-07	5.450104e-01	-1.452054e-07	-2.028760e-07	5.767057e-08
0.186         	-1.299955e-07	5.442199e-01	5.809906e-07	1.604997e-07	4.204908e-07
0.187         	-1.297175e-07	5.434397e-01	-2.740092e-09	-1.310876e-07	1.283475e-07
0.188         	-1.294293e-07	5.426696e-01	4.786908e-07	1.099161e-07	3.687747e-07
0.189         	-1.291482e-07	5.419095e-01	9.400411e-08	-8.214611e-08	1.761502e-07
0.19          	-1.288667e-07	5.411593e-01	4.152595e-07	7.876300e-08	3.364965e-07
0.191         	-1.285849e-07	5.404189e-01	1.585199e-07	-4.932493e-08	2.078448e-07
0.192         	-1.283038e-07	5.396881e-01	3.745348e-07	5.896363e-08	3.155712e-07
0.193         	-1.280231e-07	5.389668e-01	2.016851e-07	-2.718058e-08	2.288657e-07
0.194         	-1.277423e-07	5.382550e-01	3.474408e-07	4.597809e-08	3.014627e-07
0.195         	-1.274613e-07	5.375525e-01	2.262865e-07	-1.431800e-08	2.406045e-07
0.196         	-1.271793e-07	5.368592e-01	3.212681e-07	3.345477e-08	2.878133e-07
0.197         	-1.267495e-07	5.361750e-01	2.198283e-07	-1.683540e-08	2.366637e-07
0.198         	-1.264830e-07	5.354980e-01	2.351107e-07	-8.927674e-09	2.440384e-07
0.199         	-1.262526e-07	5.348374e-01	4.470375e-07	9.726615e-08	3.497713e-07
0.2           	-1.257983e-07	5.341835e-01	-1.225998e-07	-1.870981e-07	6.449838e-08
0.201         	-1.259496e-07	5.335405e-01	1.076132e-06	4.121162e-07	6.640153e-07
0.202         	-1.255860e-07	5.328964e-01	4.444739e-07	9.665099e-08	3.478230e-07
0.203         	-1.252346e-07	5.322568e-01	4.821422e-07	1.158365e-07	3.663057e-07
0.204         	-1.252410e-07	5.316252e-01	1.240182e-06	4.948499e-07	7.453319e-07
0.205         	-1.246148e-07	5.310021e-01	-7.413638e-07	-4.952967e-07	-2.460671e-07
0.206         	-1.244278e-07	5.303801e-01	8.979669e-07	3.245557e-07	5.734113e-07
0.207         	-1.241402e-07	5.297749e-01	-1.093962e-07	-1.788382e-07	6.944209e-08
0.208         	-1.238990e-07	5.291803e-01	7.821306e-07	2.671663e-07	5.149644e-07
0.209         	-1.236321e-07	5.285946e-01	-1.333062e-07	-1.902852e-07	5.697897e-08
0.21          	-1.233679e-07	5.280149e-01	8.684599e-07	3.108621e-07	5.575978e-07
0.211         	-1.230721e-07	5.274483e-01	-1.904938e-07	-2.183189e-07	2.782518e-08
0.212         	-1.227926e-07	5.268917e-01	9.088289e-07	3.316218e-07	5.772071e-07
0.213         	-1.225463e-07	5.263325e-01	-1.006558e-07	-1.728742e-07	7.221842e-08
0.214         	-1.222806e-07	5.257971e-01	7.902882e-07	2.728635e-07	5.174247e-07
0.215         	-1.220110e-07	5.252565e-01	3.641917e-08	-1.038014e-07	1.402205e-07
0.216         	-1.217805e-07	5.247285e-01	6.659404e-07	2.111897e-07	4.547506e-07
0.217         	-1.214653e-07	5.242101e-01	1.326715e-07	-5.512959e-08	1.878011e-07
0.218         	-1.212478e-07	5.236937e-01	6.313682e-07	1.944363e-07	4.369319e-07
0.219         	-1.209440e-07	5.231748e-01	2.117171e-07	-1.508542e-08	2.268025e-07
0.22          	-1.206850e-07	5.226952e-01	4.893412e-07	1.239856e-07	3.653556e-07
0.221         	-1.204470e-07	5.222029e-01	3.224458e-07	4.077587e-08	2.816699e-07
0.222         	-1.201607e-07	5.217192e-01	4.244647e-07	9.207161e-08	3.323931e-07
0.223         	-1.199060e-07	5.212399e-01	3.209731e-07	4.058061e-08	2.803925e-07
0.224         	-1.196412e-07	5.207796e-01	3.472358e-07	5.397673e-08	2.932591e-07
0.225         	-1.193673e-07	5.203056e-01	1.146238e-06	4.537516e-07	6.924862e-07
0.226         	-1.190385e-07	5.197883e-01	4.330935e-07	9.750828e-08	3.355852e-07
0.227         	-1.187618e-07	5.193159e-01	3.594833e-07	6.097985e-08	2.985035e-07
0.228         	-1.185062e-07	5.187869e-01	1.385853e-06	5.744201e-07	8.114325e-07
0.229         	-1.181428e-07	5.183123e-01	-2.103147e-07	-2.233001e-07	1.298547e-08
0.23          	-1.180380e-07	5.178585e-01	6.715624e-07	2.177432e-07	4.538192e-07
0.231         	-1.178127e-07	5.174643e-01	-7.658816e-08	-1.561068e-07	7.951863e-08
0.232         	-1.174808e-07	5.170424e-01	9.311610e-07	3.480997e-07	5.830613e-07
0.233         	-1.172720e-07	5.166266e-01	-4.113319e-08	-1.378386e-07	9.670544e-08
0.234         	-1.170327e-07	5.162161e-01	9.256409e-07	3.457878e-07	5.798531e-07
0.235         	-1.167952e-07	5.158112e-01	-1.013064e-08	-1.218605e-07	1.117298e-07
0.236         	-1.165543e-07	5.154117e-01	9.098277e-07	3.383595e-07	5.714682e-07
0.237         	-1.163137e-07	5.150173e-01	2.399659e-08	-1.043154e-07	1.283120e-07
0.238         	-1.160738e-07	5.146275e-01	8.850474e-07	3.264499e-07	5.585975e-07
0.239         	-1.158339e-07	5.142397e-01	4.360365e-08	-9.403211e-08	1.376358e-07
0.24          	-1.155998e-07	5.138416e-01	7.902260e-07	2.795132e-07	5.107128e-07
0.241         	-1.153714e-07	5.135041e-01	-1.537168e-08	-1.230572e-07	1.076855e-07
0.242         	-1.151049e-07	5.131349e-01	7.323808e-07	2.510855e-07	4.812953e-07
0.243         	-1.148908e-07	5.127620e-01	-2.493826e-07	-2.395821e-07	-9.800502e-09
0.244         	-1.144241e-07	5.124138e-01	1.939851e-06	8.555016e-07	1.084350e-06
0.245         	-1.144504e-07	5.121044e-01	5.718231e-07	1.714611e-07	4.003619e-07
0.246         	-1.139279e-07	5.118094e-01	9.304497e-07	3.512969e-07	5.791527e-07
0.247         	-1.138778e-07	5.114728e-01	2.870346e-08	-9.952604e-08	1.282295e-07
0.248         	-1.136125e-07	5.111402e-01	1.032423e-06	4.025990e-07	6.298241e-07
0.249         	-1.133714e-07	5.108120e-01	8.012888e-08	-7.330700e-08	1.534359e-07
0.25          	-1.131324e-07	5.104887e-01	1.000660e-06	3.871977e-07	6.134625e-07
0.251         	-1.128949e-07	5.101702e-01	1.336883e-07	-4.605070e-08	1.797390e-07
0.252         	-1.126615e-07	5.098566e-01	9.546681e-07	3.646726e-07	5.899955e-07
0.253         	-1.124229e-07	5.095479e-01	1.794300e-07	-2.270784e-08	2.021379e-07
0.254         	-1.121884e-07	5.092440e-01	9.103353e-07	3.429792e-07	5.673560e-07
0.255         	-1.119619e-07	5.089456e-01	2.599253e-07	1.800075e-08	2.419245e-07
0.256         	-1.117305e-07	5.086515e-01	8.343137e-07	3.054264e-07	5.288874e-07
0.257         	-1.114962e-07	5.083623e-01	3.166378e-07	4.682265e-08	2.698151e-07
0.258         	-1.112692e-07	5.080776e-01	8.062944e-07	2.918780e-07	5.144164e-07
0.259         	-1.110390e-07	5.077976e-01	3.526378e-07	6.527987e-08	2.873579e-07
0.26          	-1.108121e-07	5.075221e-01	7.863294e-07	2.823525e-07	5.039768e-07
0.261         	-1.105844e-07	5.072510e-01	3.827142e-07	8.077271e-08	3.019415e-07
0.262         	-1.103584e-07	5.069840e-01	7.703327e-07	2.748080e-07	4.955247e-07
0.263         	-1.101321e-07	5.067203e-01	4.104573e-07	9.509649e-08	3.153608e-07
0.264         	-1.099065e-07	5.064588e-01	7.566920e-07	2.684395e-07	4.882525e-07
0.265         	-1.096983e-07	5.062172e-01	3.761927e-07	7.839808e-08	2.977946e-07
0.266         	-1.094612e-07	5.059794e-01	7.651018e-07	2.730897e-07	4.920121e-07
0.267         	-1.092273e-07	5.057357e-01	4.933226e-07	1.374340e-07	3.558886e-07
0.268         	-1.090038e-07	5.054959e-01	7.200385e-07	2.510154e-07	4.690231e-07
0.269         	-1.087807e-07	5.052606e-01	4.885187e-07	1.354786e-07	3.530401e-07
0.27          	-1.085731e-07	5.050305e-01	7.389065e-07	2.608802e-07	4.780263e-07
0.271         	-1.077895e-07	5.047974e-01	3.137491e-07	4.908506e-08	2.646640e-07
0.272         	-1.083390e-07	5.045725e-01	9.146187e-07	3.489704e-07	5.656483e-07
0.273         	-1.085709e-07	5.043530e-01	3.914122e-07	8.713524e-08	3.042770e-07
0.274         	-1.084980e-07	5.041387e-01	9.668505e-07	3.749272e-07	5.919232e-07
0.275         	-1.077397e-07	5.039287e-01	2.981214e-07	4.132098e-08	2.568004e-07
0.276         	-1.073152e-07	5.037215e-01	1.001311e-06	3.933402e-07	6.079707e-07
0.277         	-1.071763e-07	5.035122e-01	1.621332e-07	-2.610968e-08	1.882429e-07
0.278         	-1.070053e-07	5.033107e-01	1.953582e-06	8.697854e-07	1.083796e-06
0.279         	-1.068442e-07	5.031165e-01	-3.016439e-06	-1.615064e-06	-1.401375e-06
0.28          	-1.066777e-07	5.029205e-01	3.809722e-06	1.798183e-06	2.011538e-06
0.281         	-1.064633e-07	5.027276e-01	-1.226721e-06	-7.198237e-07	-5.068970e-07
0.282         	-1.063093e-07	5.025397e-01	2.613464e-06	1.200423e-06	1.413041e-06
0.283         	-1.062202e-07	5.023724e-01	-1.024115e-06	-6.182775e-07	-4.058371e-07
0.284         	-1.061532e-07	5.021989e-01	2.063724e-06	9.257085e-07	1.138015e-06
0.285         	-1.062487e-07	5.020318e-01	-9.330902e-07	-5.727939e-07	-3.602964e-07
0.286         	-1.056550e-07	5.018508e-01	3.477731e-06	1.633211e-06	1.844521e-06
0.287         	-1.053340e-07	5.016777e-01	-2.592038e-06	-1.401353e-06	-1.190685e-06
0.288         	-1.054212e-07	5.015102e-01	2.943834e-06	1.366496e-06	1.577338e-06
0.289         	-1.049257e-07	5.013212e-01	-9.533835e-07	-5.816175e-07	-3.717661e-07
0.29          	-1.039274e-07	5.011532e-01	2.623822e-06	1.207984e-06	1.415839e-06
0.291         	-1.039125e-07	5.009909e-01	-9.782803e-07	-5.930527e-07	-3.852276e-07
0.292         	-1.032983e-07	5.008346e-01	1.926473e-06	8.599382e-07	1.066535e-06
0.293         	-1.029978e-07	5.006833e-01	-4.491153e-07	-3.275555e-07	-1.215598e-07
0.294         	-1.026999e-07	5.005386e-01	1.744762e-06	7.696811e-07	9.750809e-07
0.295         	-1.016576e-07	5.004051e-01	-7.948887e-08	-1.414021e-07	6.191318e-08
0.296         	-1.021395e-07	5.002585e-01	1.122643e-06	4.591819e-07	6.634608e-07
0.297         	-1.020382e-07	5.001293e-01	2.346242e-07	1.527392e-08	2.193503e-07
0.298         	-1.019495e-07	4.999922e-01	1.003262e-06	3.996814e-07	6.035804e-07
0.299         	-1.018770e-07	4.998592e-01	3.719745e-07	8.411020e-08	2.878643e-07
0.3           	-1.019561e-07	4.997409e-01	1.000619e-06	3.983533e-07	6.022655e-07
0.301         	-1.019162e-07	4.996294e-01	3.821254e-07	8.914647e-08	2.929789e-07
0.302         	-1.018633e-07	4.995120e-01	8.838917e-07	3.400826e-07	5.438091e-07
0.303         	-1.018051e-07	4.993925e-01	4.352134e-07	1.158016e-07	3.194118e-07
0.304         	-1.007583e-07	4.992765e-01	9.866359e-07	3.925597e-07	5.940762e-07
0.305         	-1.007081e-07	4.991665e-01	5.721793e-07	1.853816e-07	3.867977e-07
0.306         	-1.003720e-07	4.990749e-01	9.725628e-07	3.859094e-07	5.866534e-07
0.307         	-1.008588e-07	4.989780e-01	4.958198e-07	1.470511e-07	3.487687e-07
0.308         	-1.007391e-07	4.988588e-01	8.201538e-07	3.093377e-07	5.108160e-07
0.309         	-1.004904e-07	4.987461e-01	5.562705e-07	1.776449e-07	3.786256e-07
0.31          	-1.003792e-07	4.986342e-01	7.940710e-07	2.966563e-07	4.974146e-07
0.311         	-9.995337e-08	4.985298e-01	6.063654e-07	2.032294e-07	4.031361e-07
0.312         	-9.969839e-08	4.984175e-01	8.087345e-07	3.046689e-07	5.040657e-07
0.313         	-9.955660e-08	4.983566e-01	4.270314e-07	1.139591e-07	3.130723e-07
0.314         	-9.948552e-08	4.982732e-01	9.235628e-07	3.622959e-07	5.612669e-07
0.315         	-9.939817e-08	4.981923e-01	5.335222e-07	1.673629e-07	3.661593e-07
0.316         	-9.917139e-08	4.981175e-01	8.578597e-07	3.297584e-07	5.281012e-07
0.317         	-9.890632e-08	4.980438e-01	5.893335e-07	1.957604e-07	3.935731e-07
0.318         	-9.840840e-08	4.979474e-01	7.664799e-07	2.848316e-07	4.816484e-07
0.319         	-9.851178e-08	4.978568e-01	6.254102e-07	2.141933e-07	4.112169e-07
0.32          	-9.835573e-08	4.977744e-01	7.329295e-07	2.681090e-07	4.648205e-07
0.321         	-9.824444e-08	4.976866e-01	8.375837e-07	3.205474e-07	5.170363e-07
0.322         	-9.823711e-08	4.976131e-01	5.436391e-07	1.735824e-07	3.700567e-07
0.323         	-9.797339e-08	4.975523e-01	8.687926e-07	3.364229e-07	5.323697e-07
0.324         	-9.793035e-08	4.974931e-01	5.756191e-07	1.898792e-07	3.857399e-07
0.325         	-9.786651e-08	4.974356e-01	8.124859e-07	3.083764e-07	5.041094e-07
0.326         	-9.773462e-08	4.973602e-01	7.057634e-07	2.551471e-07	4.506163e-07
0.327         	-9.750403e-08	4.972930e-01	8.581263e-07	3.315591e-07	5.265672e-07
0.328         	-9.775704e-08	4.972611e-01	5.661624e-07	1.853242e-07	3.808382e-07
0.329         	-9.758872e-08	4.972161e-01	8.249183e-07	3.148704e-07	5.100478e-07
0.33          	-9.791601e-08	4.971521e-01	6.322305e-07	2.181992e-07	4.140313e-07
0.331         	-9.725961e-08	4.970979e-01	7.569843e-07	2.812326e-07	4.757518e-07
0.332         	-9.688353e-08	4.970431e-01	5.331882e-07	1.697106e-07	3.634776e-07
0.333         	-9.572579e-08	4.969891e-01	7.126662e-07	2.606073e-07	4.520589e-07
0.334         	-9.514518e-08	4.969265e-01	4.649466e-07	1.373281e-07	3.276185e-07
0.335         	-9.418442e-08	4.968456e-01	8.185171e-07	3.150741e-07	5.034430e-07
0.336         	-9.323233e-08	4.968033e-01	7.214824e-07	2.675089e-07	4.539735e-07
0.337         	-9.389359e-08	4.967846e-01	8.265152e-07	3.193640e-07	5.071512e-07
0.338         	-9.412807e-08	4.967618e-01	6.999483e-07	2.558461e-07	4.441022e-07
0.339         	-9.420106e-08	4.967228e-01	7.116055e-07	2.616017e-07	4.500038e-07
0.34          	-9.410638e-08	4.966994e-01	6.812173e-07	2.465022e-07	4.347150e-07
0.341         	-9.396396e-08	4.966660e-01	8.376337e-07	3.248529e-07	5.127808e-07
0.342         	-9.391245e-08	4.966306e-01	7.180984e-07	2.651367e-07	4.529616e-07
0.343         	-9.378683e-08	4.966269e-01	6.808166e-07	2.466215e-07	4.341951e-07
0.344         	-9.366766e-08	4.966481e-01	7.280855e-07	2.703751e-07	4.577104e-07
0.345         	-9.357035e-08	4.966460e-01	7.206097e-07	2.667345e-07	4.538752e-07
0.346         	-9.346667e-08	4.966595e-01	7.544158e-07	2.837412e-07	4.706746e-07
0.347         	-9.323181e-08	4.966228e-01	6.416120e-07	2.275742e-07	4.140378e-07
0.348         	-9.325972e-08	4.966306e-01	8.788818e-07	3.461812e-07	5.327006e-07
0.349         	-9.292216e-08	4.966582e-01	9.209606e-07	3.675581e-07	5.534024e-07
0.35          	-9.301065e-08	4.966566e-01	4.651919e-07	1.395853e-07	3.256066e-07
0.351         	-9.274315e-08	4.966013e-01	8.961184e-07	3.553161e-07	5.408024e-07
0.352         	-9.258287e-08	4.965738e-01	7.828616e-07	2.988479e-07	4.840137e-07
0.353         	-9.264965e-08	4.965686e-01	5.848822e-07	1.997915e-07	3.850908e-07
0.354         	-9.285627e-08	4.965630e-01	9.919456e-07	4.031165e-07	5.888291e-07
0.355         	-9.248764e-08	4.965724e-01	7.004289e-07	2.577268e-07	4.427021e-07
0.356         	-9.231503e-08	4.965690e-01	8.085499e-07	3.119599e-07	4.965900e-07
0.357         	-9.218422e-08	4.965559e-01	7.354450e-07	2.755383e-07	4.599067e-07
0.358         	-9.195372e-08	4.965554e-01	8.405189e-07	3.283057e-07	5.122132e-07
0.359         	-9.175021e-08	4.965457e-01	6.570991e-07	2.367993e-07	4.202998e-07