0 	1.19727e-07
1.57135 	-4.83958e-06
3.1427 	-3.19562e-05
4.71405 	-0.000104759
6.28539 	-0.00030313
7.85674 	-0.00104835
9.42809 	-0.00368514
10.9994 	-0.00472091
12.5708 	-0.00417903
14.1421 	0.250521
