/*--------------------------------*- C++ -*----------------------------------*\
  =========                 |
  \\      /  F ield         | OpenFOAM: The Open Source CFD Toolbox
   \\    /   O peration     | Website:  https://openfoam.org
    \\  /    A nd           | Version:  8
     \\/     M anipulation  |
\*---------------------------------------------------------------------------*/
FoamFile
{
    version     2.0;
    format      ascii;
    class       volVectorField;
    location    "0.09";
    object      U;
}
// * * * * * * * * * * * * * * * * * * * * * * * * * * * * * * * * * * * * * //

dimensions      [0 1 -1 0 0 0 0];

internalField   nonuniform List<vector> 
400
(
(0.00591615 1.38251e-07 0)
(0.0059159 1.92139e-07 0)
(0.00591555 1.98178e-07 0)
(0.00591521 1.68497e-07 0)
(0.00591491 1.33532e-07 0)
(0.00591465 1.00344e-07 0)
(0.00591445 7.20338e-08 0)
(0.0059143 4.79148e-08 0)
(0.00591421 2.36747e-08 0)
(0.00591417 -4.12566e-09 0)
(0.00591419 -3.35941e-08 0)
(0.00591428 -6.07679e-08 0)
(0.00591443 -8.455e-08 0)
(0.00591464 -1.06265e-07 0)
(0.0059149 -1.25866e-07 0)
(0.00591521 -1.39243e-07 0)
(0.00591554 -1.3909e-07 0)
(0.00591587 -1.16543e-07 0)
(0.00591613 -5.4764e-08 0)
(0.00591623 3.98157e-08 0)
(0.0180601 2.85833e-07 0)
(0.0180599 5.12335e-07 0)
(0.0180594 5.98682e-07 0)
(0.0180589 5.7283e-07 0)
(0.0180584 5.04207e-07 0)
(0.0180579 4.20073e-07 0)
(0.0180575 3.30816e-07 0)
(0.0180572 2.36796e-07 0)
(0.018057 1.35147e-07 0)
(0.0180569 2.47392e-08 0)
(0.0180569 -9.06617e-08 0)
(0.0180569 -2.05498e-07 0)
(0.0180572 -3.16505e-07 0)
(0.0180575 -4.21125e-07 0)
(0.0180579 -5.12506e-07 0)
(0.0180584 -5.76453e-07 0)
(0.0180589 -5.94225e-07 0)
(0.0180595 -5.31645e-07 0)
(0.0180599 -3.45645e-07 0)
(0.0180602 -4.67795e-08 0)
(0.0311471 3.58974e-07 0)
(0.0311471 8.15775e-07 0)
(0.0311468 1.0343e-06 0)
(0.0311464 1.0743e-06 0)
(0.0311459 1.00883e-06 0)
(0.0311455 8.8667e-07 0)
(0.0311451 7.31225e-07 0)
(0.0311447 5.52269e-07 0)
(0.0311444 3.52371e-07 0)
(0.0311443 1.34501e-07 0)
(0.0311442 -9.46916e-08 0)
(0.0311442 -3.27368e-07 0)
(0.0311443 -5.56445e-07 0)
(0.0311446 -7.7286e-07 0)
(0.0311449 -9.6044e-07 0)
(0.0311454 -1.09316e-06 0)
(0.0311458 -1.13743e-06 0)
(0.0311463 -1.03946e-06 0)
(0.0311468 -7.33481e-07 0)
(0.031147 -2.1712e-07 0)
(0.0458214 3.09638e-07 0)
(0.0458214 9.31258e-07 0)
(0.0458213 1.29845e-06 0)
(0.0458211 1.42998e-06 0)
(0.0458208 1.40698e-06 0)
(0.0458205 1.2861e-06 0)
(0.0458201 1.0976e-06 0)
(0.0458199 8.59323e-07 0)
(0.0458196 5.83936e-07 0)
(0.0458194 2.81087e-07 0)
(0.0458193 -4.0645e-08 0)
(0.0458193 -3.72101e-07 0)
(0.0458194 -7.02203e-07 0)
(0.0458195 -1.0151e-06 0)
(0.0458197 -1.28628e-06 0)
(0.04582 -1.48268e-06 0)
(0.0458203 -1.55779e-06 0)
(0.0458207 -1.44938e-06 0)
(0.045821 -1.07753e-06 0)
(0.0458212 -4.38959e-07 0)
(0.0627455 1.83236e-07 0)
(0.0627456 9.09469e-07 0)
(0.0627457 1.37991e-06 0)
(0.0627456 1.59985e-06 0)
(0.0627455 1.63553e-06 0)
(0.0627453 1.53985e-06 0)
(0.0627451 1.34849e-06 0)
(0.062745 1.08717e-06 0)
(0.0627448 7.73695e-07 0)
(0.0627447 4.20614e-07 0)
(0.0627446 3.93774e-08 0)
(0.0627445 -3.57474e-07 0)
(0.0627445 -7.5535e-07 0)
(0.0627445 -1.1344e-06 0)
(0.0627446 -1.46491e-06 0)
(0.0627447 -1.70906e-06 0)
(0.0627448 -1.81567e-06 0)
(0.062745 -1.7146e-06 0)
(0.0627452 -1.3271e-06 0)
(0.0627453 -6.43197e-07 0)
(0.082603 3.75149e-08 0)
(0.0826032 7.89612e-07 0)
(0.0826033 1.31489e-06 0)
(0.0826034 1.59611e-06 0)
(0.0826035 1.68465e-06 0)
(0.0826035 1.62788e-06 0)
(0.0826035 1.46056e-06 0)
(0.0826034 1.20959e-06 0)
(0.0826034 8.94744e-07 0)
(0.0826033 5.30834e-07 0)
(0.0826032 1.31559e-07 0)
(0.0826031 -2.887e-07 0)
(0.082603 -7.13727e-07 0)
(0.0826029 -1.12198e-06 0)
(0.0826029 -1.48234e-06 0)
(0.0826028 -1.75368e-06 0)
(0.0826028 -1.8853e-06 0)
(0.0826028 -1.80827e-06 0)
(0.0826028 -1.44655e-06 0)
(0.0826028 -7.86375e-07 0)
(0.106095 -1.10432e-07 0)
(0.106096 5.99478e-07 0)
(0.106096 1.12391e-06 0)
(0.106096 1.4335e-06 0)
(0.106096 1.56324e-06 0)
(0.106097 1.55086e-06 0)
(0.106097 1.4258e-06 0)
(0.106097 1.21255e-06 0)
(0.106097 9.30201e-07 0)
(0.106097 5.93838e-07 0)
(0.106097 2.17667e-07 0)
(0.106097 -1.83769e-07 0)
(0.106096 -5.94296e-07 0)
(0.106096 -9.92541e-07 0)
(0.106096 -1.34962e-06 0)
(0.106096 -1.62712e-06 0)
(0.106096 -1.77649e-06 0)
(0.106096 -1.73584e-06 0)
(0.106095 -1.43601e-06 0)
(0.106095 -8.58328e-07 0)
(0.133933 -2.44935e-07 0)
(0.133933 3.6234e-07 0)
(0.133933 8.35412e-07 0)
(0.133934 1.14086e-06 0)
(0.133934 1.29635e-06 0)
(0.133934 1.32779e-06 0)
(0.133935 1.25665e-06 0)
(0.133935 1.1023e-06 0)
(0.133935 8.80692e-07 0)
(0.133935 6.051e-07 0)
(0.133935 2.88466e-07 0)
(0.133935 -5.61075e-08 0)
(0.133935 -4.14307e-07 0)
(0.133934 -7.67151e-07 0)
(0.133934 -1.08978e-06 0)
(0.133934 -1.35051e-06 0)
(0.133934 -1.50827e-06 0)
(0.133933 -1.5117e-06 0)
(0.133933 -1.30275e-06 0)
(0.133933 -8.55336e-07 0)
(0.166817 -3.53866e-07 0)
(0.166817 1.01455e-07 0)
(0.166817 4.8183e-07 0)
(0.166818 7.52986e-07 0)
(0.166818 9.1675e-07 0)
(0.166819 9.86552e-07 0)
(0.166819 9.74484e-07 0)
(0.166819 8.92857e-07 0)
(0.166819 7.52484e-07 0)
(0.166819 5.6302e-07 0)
(0.16682 3.34548e-07 0)
(0.166819 7.74535e-08 0)
(0.166819 -1.96936e-07 0)
(0.166819 -4.74009e-07 0)
(0.166819 -7.35323e-07 0)
(0.166818 -9.57985e-07 0)
(0.166818 -1.11197e-06 0)
(0.166817 -1.16003e-06 0)
(0.166817 -1.05995e-06 0)
(0.166817 -7.78374e-07 0)
(0.205414 -4.24646e-07 0)
(0.205415 -1.57894e-07 0)
(0.205415 9.73317e-08 0)
(0.205415 3.07023e-07 0)
(0.205416 4.60406e-07 0)
(0.205416 5.58662e-07 0)
(0.205417 6.03965e-07 0)
(0.205417 6.00548e-07 0)
(0.205417 5.52887e-07 0)
(0.205418 4.65799e-07 0)
(0.205418 3.4523e-07 0)
(0.205418 1.97707e-07 0)
(0.205417 3.07042e-08 0)
(0.205417 -1.4643e-07 0)
(0.205417 -3.23274e-07 0)
(0.205416 -4.8773e-07 0)
(0.205416 -6.23466e-07 0)
(0.205415 -7.10359e-07 0)
(0.205415 -7.24929e-07 0)
(0.205415 -6.30854e-07 0)
(0.250326 -4.44827e-07 0)
(0.250326 -3.88645e-07 0)
(0.250326 -2.81306e-07 0)
(0.250327 -1.54768e-07 0)
(0.250327 -2.90049e-08 0)
(0.250328 8.54842e-08 0)
(0.250328 1.81024e-07 0)
(0.250329 2.53453e-07 0)
(0.250329 3.00481e-07 0)
(0.250329 3.21573e-07 0)
(0.250329 3.17931e-07 0)
(0.250329 2.91523e-07 0)
(0.250329 2.45294e-07 0)
(0.250329 1.82903e-07 0)
(0.250329 1.06347e-07 0)
(0.250328 1.61355e-08 0)
(0.250328 -8.63189e-08 0)
(0.250327 -1.99936e-07 0)
(0.250327 -3.21609e-07 0)
(0.250326 -4.18347e-07 0)
(0.302043 -4.08794e-07 0)
(0.302043 -5.68054e-07 0)
(0.302043 -6.18988e-07 0)
(0.302043 -5.88533e-07 0)
(0.302044 -5.0346e-07 0)
(0.302044 -3.85064e-07 0)
(0.302045 -2.50317e-07 0)
(0.302045 -1.11512e-07 0)
(0.302045 2.25239e-08 0)
(0.302046 1.46047e-07 0)
(0.302046 2.55606e-07 0)
(0.302046 3.48676e-07 0)
(0.302046 4.23706e-07 0)
(0.302046 4.78973e-07 0)
(0.302045 5.08833e-07 0)
(0.302045 5.02969e-07 0)
(0.302044 4.48213e-07 0)
(0.302044 3.25812e-07 0)
(0.302043 1.17044e-07 0)
(0.302043 -1.54643e-07 0)
(0.360902 -3.21819e-07 0)
(0.360902 -6.82904e-07 0)
(0.360902 -8.8762e-07 0)
(0.360903 -9.55297e-07 0)
(0.360903 -9.18195e-07 0)
(0.360903 -8.06953e-07 0)
(0.360904 -6.46656e-07 0)
(0.360904 -4.56799e-07 0)
(0.360904 -2.51901e-07 0)
(0.360905 -4.2178e-08 0)
(0.360905 1.6489e-07 0)
(0.360905 3.6297e-07 0)
(0.360905 5.46804e-07 0)
(0.360905 7.10406e-07 0)
(0.360904 8.42233e-07 0)
(0.360904 9.2324e-07 0)
(0.360904 9.27462e-07 0)
(0.360903 8.16792e-07 0)
(0.360903 5.4986e-07 0)
(0.360902 1.34845e-07 0)
(0.427041 -1.99178e-07 0)
(0.427041 -7.2913e-07 0)
(0.427041 -1.06691e-06 0)
(0.427041 -1.22265e-06 0)
(0.427041 -1.23374e-06 0)
(0.427042 -1.13798e-06 0)
(0.427042 -9.6661e-07 0)
(0.427042 -7.4469e-07 0)
(0.427042 -4.91185e-07 0)
(0.427043 -2.19642e-07 0)
(0.427043 5.94365e-08 0)
(0.427043 3.36996e-07 0)
(0.427043 6.05377e-07 0)
(0.427043 8.56067e-07 0)
(0.427043 1.07406e-06 0)
(0.427043 1.23462e-06 0)
(0.427042 1.30207e-06 0)
(0.427042 1.22141e-06 0)
(0.427042 9.29658e-07 0)
(0.427041 4.15345e-07 0)
(0.500351 -6.43334e-08 0)
(0.500351 -7.09953e-07 0)
(0.500351 -1.14371e-06 0)
(0.500351 -1.3642e-06 0)
(0.500351 -1.415e-06 0)
(0.500351 -1.33887e-06 0)
(0.500351 -1.17065e-06 0)
(0.500352 -9.38217e-07 0)
(0.500352 -6.63066e-07 0)
(0.500352 -3.6068e-07 0)
(0.500352 -4.32469e-08 0)
(0.500352 2.78898e-07 0)
(0.500352 5.97316e-07 0)
(0.500352 9.02992e-07 0)
(0.500352 1.18009e-06 0)
(0.500352 1.40159e-06 0)
(0.500352 1.5264e-06 0)
(0.500352 1.48822e-06 0)
(0.500352 1.20601e-06 0)
(0.500351 6.46236e-07 0)
(0.580446 5.59393e-08 0)
(0.580446 -6.32523e-07 0)
(0.580446 -1.11032e-06 0)
(0.580446 -1.36084e-06 0)
(0.580446 -1.43481e-06 0)
(0.580446 -1.37769e-06 0)
(0.580446 -1.22529e-06 0)
(0.580446 -1.00536e-06 0)
(0.580446 -7.38955e-07 0)
(0.580446 -4.41381e-07 0)
(0.580446 -1.24748e-07 0)
(0.580446 2.00899e-07 0)
(0.580446 5.27839e-07 0)
(0.580446 8.48174e-07 0)
(0.580446 1.14742e-06 0)
(0.580446 1.39977e-06 0)
(0.580446 1.56442e-06 0)
(0.580447 1.57326e-06 0)
(0.580447 1.33195e-06 0)
(0.580446 7.86874e-07 0)
(0.666643 1.34142e-07 0)
(0.666643 -5.06951e-07 0)
(0.666643 -9.61647e-07 0)
(0.666642 -1.19969e-06 0)
(0.666642 -1.2753e-06 0)
(0.666642 -1.23422e-06 0)
(0.666642 -1.10901e-06 0)
(0.666642 -9.24336e-07 0)
(0.666641 -6.97724e-07 0)
(0.666641 -4.41517e-07 0)
(0.666641 -1.65583e-07 0)
(0.666641 1.21484e-07 0)
(0.666642 4.12856e-07 0)
(0.666642 7.02015e-07 0)
(0.666642 9.78133e-07 0)
(0.666642 1.2218e-06 0)
(0.666642 1.39925e-06 0)
(0.666643 1.44879e-06 0)
(0.666643 1.26891e-06 0)
(0.666643 8.05022e-07 0)
(0.757963 1.49819e-07 0)
(0.757963 -3.5528e-07 0)
(0.757963 -7.10125e-07 0)
(0.757963 -8.90714e-07 0)
(0.757962 -9.46596e-07 0)
(0.757962 -9.18516e-07 0)
(0.757961 -8.31414e-07 0)
(0.757961 -7.02513e-07 0)
(0.757961 -5.42086e-07 0)
(0.757961 -3.56928e-07 0)
(0.757961 -1.54573e-07 0)
(0.757961 5.63222e-08 0)
(0.757961 2.70159e-07 0)
(0.757961 4.85248e-07 0)
(0.757961 6.96274e-07 0)
(0.757962 8.88749e-07 0)
(0.757962 1.04104e-06 0)
(0.757962 1.11165e-06 0)
(0.757963 1.00939e-06 0)
(0.757963 6.74399e-07 0)
(0.853162 1.09658e-07 0)
(0.853162 -1.87859e-07 0)
(0.853162 -3.7903e-07 0)
(0.853161 -4.7148e-07 0)
(0.853161 -4.95417e-07 0)
(0.85316 -4.78982e-07 0)
(0.85316 -4.35923e-07 0)
(0.85316 -3.74076e-07 0)
(0.853159 -2.9579e-07 0)
(0.853159 -2.0174e-07 0)
(0.853159 -9.60044e-08 0)
(0.853159 1.408e-08 0)
(0.853159 1.24235e-07 0)
(0.853159 2.35435e-07 0)
(0.85316 3.47118e-07 0)
(0.85316 4.53897e-07 0)
(0.85316 5.4771e-07 0)
(0.853161 6.03756e-07 0)
(0.853161 5.75527e-07 0)
(0.853162 3.94437e-07 0)
(0.95078 2.79994e-08 0)
(0.95078 -5.73705e-08 0)
(0.95078 -1.04817e-07 0)
(0.95078 -1.23815e-07 0)
(0.95078 -1.25217e-07 0)
(0.950779 -1.18753e-07 0)
(0.950779 -1.08352e-07 0)
(0.950779 -9.50183e-08 0)
(0.950779 -7.69672e-08 0)
(0.950778 -5.26316e-08 0)
(0.950778 -2.42639e-08 0)
(0.950778 3.24335e-09 0)
(0.950778 2.85511e-08 0)
(0.950778 5.54073e-08 0)
(0.950779 8.51094e-08 0)
(0.950779 1.14154e-07 0)
(0.950779 1.41962e-07 0)
(0.950779 1.64489e-07 0)
(0.95078 1.65535e-07 0)
(0.95078 1.17459e-07 0)
)
;

boundaryField
{
    movingWall
    {
        type            fixedValue;
        value           uniform (1 0 0);
    }
    fixedWalls
    {
        type            noSlip;
    }
    left
    {
        type            cyclic;
    }
    right
    {
        type            cyclic;
    }
    frontAndBack
    {
        type            empty;
    }
}


// ************************************************************************* //
