/*--------------------------------*- C++ -*----------------------------------*\
  =========                 |
  \\      /  F ield         | OpenFOAM: The Open Source CFD Toolbox
   \\    /   O peration     | Website:  https://openfoam.org
    \\  /    A nd           | Version:  8
     \\/     M anipulation  |
\*---------------------------------------------------------------------------*/
FoamFile
{
    version     2.0;
    format      ascii;
    class       volScalarField;
    location    "1";
    object      p;
}
// * * * * * * * * * * * * * * * * * * * * * * * * * * * * * * * * * * * * * //

dimensions      [0 2 -2 0 0 0 0];

internalField   nonuniform List<scalar> 
400
(
-3.002e-13
-1.95112e-07
-2.62456e-07
-2.6743e-07
-2.52178e-07
-2.25784e-07
-1.98354e-07
-1.77997e-07
-1.63973e-07
-1.53031e-07
-1.40671e-07
-1.17295e-07
-7.47732e-08
-1.35885e-08
6.2285e-08
1.54877e-07
2.72596e-07
3.97597e-07
4.28434e-07
2.70074e-07
-4.86165e-08
-2.02607e-07
-2.25189e-07
-2.06783e-07
-1.88857e-07
-1.68324e-07
-1.53094e-07
-1.46585e-07
-1.43557e-07
-1.41719e-07
-1.38405e-07
-1.24542e-07
-9.30386e-08
-4.62633e-08
1.02868e-08
7.82149e-08
1.73943e-07
2.93193e-07
3.40466e-07
1.98835e-07
-1.00411e-07
-2.49799e-07
-2.28636e-07
-1.75983e-07
-1.49608e-07
-1.34402e-07
-1.28461e-07
-1.32457e-07
-1.39154e-07
-1.44802e-07
-1.47391e-07
-1.39681e-07
-1.15587e-07
-7.72533e-08
-3.01051e-08
2.72782e-08
1.1836e-07
2.53976e-07
3.21816e-07
1.72004e-07
-1.36868e-07
-2.96567e-07
-2.47483e-07
-1.65651e-07
-1.31433e-07
-1.22261e-07
-1.26039e-07
-1.39513e-07
-1.53477e-07
-1.64152e-07
-1.7067e-07
-1.66241e-07
-1.44265e-07
-1.06894e-07
-6.09149e-08
-5.93873e-09
8.81712e-08
2.44856e-07
3.39422e-07
1.79047e-07
-1.46756e-07
-3.31988e-07
-2.65932e-07
-1.61478e-07
-1.23968e-07
-1.22526e-07
-1.36008e-07
-1.58569e-07
-1.79697e-07
-1.95082e-07
-2.03662e-07
-1.9864e-07
-1.74114e-07
-1.33756e-07
-8.58121e-08
-2.97265e-08
7.15237e-08
2.53674e-07
3.79666e-07
2.14589e-07
-1.39856e-07
-3.60218e-07
-2.84807e-07
-1.61249e-07
-1.2167e-07
-1.28312e-07
-1.5145e-07
-1.83131e-07
-2.11233e-07
-2.29663e-07
-2.36871e-07
-2.27641e-07
-1.98667e-07
-1.55331e-07
-1.05654e-07
-4.70924e-08
6.35243e-08
2.72741e-07
4.33042e-07
2.66587e-07
-1.32725e-07
-3.90426e-07
-3.09874e-07
-1.68052e-07
-1.25097e-07
-1.38967e-07
-1.71026e-07
-2.1005e-07
-2.4204e-07
-2.59762e-07
-2.62409e-07
-2.47676e-07
-2.15204e-07
-1.70867e-07
-1.20766e-07
-5.99525e-08
5.88104e-08
2.90646e-07
4.81948e-07
3.16408e-07
-1.32578e-07
-4.25066e-07
-3.42172e-07
-1.83082e-07
-1.35519e-07
-1.54671e-07
-1.92544e-07
-2.34544e-07
-2.6591e-07
-2.79549e-07
-2.76066e-07
-2.56198e-07
-2.2219e-07
-1.79357e-07
-1.30685e-07
-6.90384e-08
5.42517e-08
3.00431e-07
5.15165e-07
3.52551e-07
-1.38987e-07
-4.61913e-07
-3.80102e-07
-2.06472e-07
-1.53272e-07
-1.74275e-07
-2.13043e-07
-2.52806e-07
-2.7968e-07
-2.87551e-07
-2.78015e-07
-2.53994e-07
-2.19875e-07
-1.80243e-07
-1.34746e-07
-7.43084e-08
4.90783e-08
3.0048e-07
5.2989e-07
3.72296e-07
-1.49567e-07
-4.97635e-07
-4.20622e-07
-2.36288e-07
-1.76579e-07
-1.95535e-07
-2.30324e-07
-2.63573e-07
-2.83658e-07
-2.8578e-07
-2.71559e-07
-2.44805e-07
-2.11467e-07
-1.7569e-07
-1.34318e-07
-7.67801e-08
4.28382e-08
2.91364e-07
5.27257e-07
3.7685e-07
-1.62378e-07
-5.29317e-07
-4.60378e-07
-2.69516e-07
-2.02989e-07
-2.16928e-07
-2.44339e-07
-2.68451e-07
-2.808e-07
-2.78084e-07
-2.61118e-07
-2.33312e-07
-2.01401e-07
-1.69276e-07
-1.31756e-07
-7.75753e-08
3.5698e-08
2.74619e-07
5.09452e-07
3.67999e-07
-1.74844e-07
-5.53488e-07
-4.95684e-07
-3.03161e-07
-2.30829e-07
-2.38592e-07
-2.57222e-07
-2.71181e-07
-2.75607e-07
-2.68911e-07
-2.50716e-07
-2.2305e-07
-1.92579e-07
-1.62914e-07
-1.2767e-07
-7.60074e-08
2.94054e-08
2.52797e-07
4.79232e-07
3.48044e-07
-1.82961e-07
-5.65581e-07
-5.22762e-07
-3.35024e-07
-2.59609e-07
-2.61842e-07
-2.72103e-07
-2.76307e-07
-2.73186e-07
-2.62961e-07
-2.43997e-07
-2.16402e-07
-1.86138e-07
-1.56587e-07
-1.21064e-07
-7.03299e-08
2.63994e-08
2.29116e-07
4.40172e-07
3.20393e-07
-1.82854e-07
-5.61346e-07
-5.38495e-07
-3.63689e-07
-2.89074e-07
-2.87373e-07
-2.90882e-07
-2.86986e-07
-2.77446e-07
-2.63969e-07
-2.4365e-07
-2.14618e-07
-1.82041e-07
-1.49481e-07
-1.10879e-07
-5.93632e-08
2.86315e-08
2.07037e-07
3.96552e-07
2.8903e-07
-1.7371e-07
-5.39435e-07
-5.41307e-07
-3.88314e-07
-3.1869e-07
-3.14551e-07
-3.13198e-07
-3.03533e-07
-2.89161e-07
-2.72479e-07
-2.49386e-07
-2.16517e-07
-1.78761e-07
-1.40467e-07
-9.67341e-08
-4.29658e-08
3.73681e-08
1.89938e-07
3.52769e-07
2.57232e-07
-1.59285e-07
-5.04329e-07
-5.32725e-07
-4.08951e-07
-3.48376e-07
-3.43037e-07
-3.38192e-07
-3.24514e-07
-3.06112e-07
-2.85306e-07
-2.57375e-07
-2.1849e-07
-1.73815e-07
-1.2851e-07
-7.85729e-08
-2.10168e-08
5.3938e-08
1.81051e-07
3.13176e-07
2.26815e-07
-1.44967e-07
-4.6526e-07
-5.18123e-07
-4.26834e-07
-3.78117e-07
-3.72861e-07
-3.6534e-07
-3.47807e-07
-3.24318e-07
-2.97372e-07
-2.62907e-07
-2.17467e-07
-1.65897e-07
-1.1307e-07
-5.5766e-08
6.95372e-09
7.83397e-08
1.816e-07
2.80848e-07
1.96898e-07
-1.33961e-07
-4.2958e-07
-5.05607e-07
-4.47507e-07
-4.10785e-07
-4.04722e-07
-3.93308e-07
-3.69815e-07
-3.38845e-07
-3.04161e-07
-2.62795e-07
-2.11031e-07
-1.52412e-07
-9.11193e-08
-2.49526e-08
4.4246e-08
1.12755e-07
1.93551e-07
2.58103e-07
1.67264e-07
-1.30294e-07
-4.10842e-07
-5.11666e-07
-4.88049e-07
-4.59781e-07
-4.469e-07
-4.25699e-07
-3.91531e-07
-3.5033e-07
-3.07116e-07
-2.58622e-07
-1.99434e-07
-1.31781e-07
-6.01639e-08
1.66558e-08
9.55468e-08
1.66253e-07
2.29016e-07
2.57648e-07
1.51038e-07
-1.32915e-07
-4.4193e-07
-5.79656e-07
-5.76398e-07
-5.4291e-07
-5.10678e-07
-4.70721e-07
-4.20687e-07
-3.66538e-07
-3.12906e-07
-2.55839e-07
-1.88319e-07
-1.09846e-07
-2.39865e-08
6.75259e-08
1.60548e-07
2.45522e-07
3.11888e-07
3.19278e-07
1.77219e-07
)
;

boundaryField
{
    movingWall
    {
        type            zeroGradient;
    }
    fixedWalls
    {
        type            zeroGradient;
    }
    left
    {
        type            cyclic;
    }
    right
    {
        type            cyclic;
    }
    frontAndBack
    {
        type            empty;
    }
}


// ************************************************************************* //
