/*--------------------------------*- C++ -*----------------------------------*\
  =========                 |
  \\      /  F ield         | OpenFOAM: The Open Source CFD Toolbox
   \\    /   O peration     | Website:  https://openfoam.org
    \\  /    A nd           | Version:  8
     \\/     M anipulation  |
\*---------------------------------------------------------------------------*/
FoamFile
{
    version     2.0;
    format      ascii;
    class       surfaceScalarField;
    location    "1";
    object      phi;
}
// * * * * * * * * * * * * * * * * * * * * * * * * * * * * * * * * * * * * * //

dimensions      [0 3 -1 0 0 0 0];

internalField   nonuniform List<scalar> 
760
(
1.24916e-06
2.68631e-13
1.24916e-06
1.20593e-12
1.24916e-06
1.36665e-12
1.24916e-06
1.1374e-12
1.24916e-06
8.98084e-13
1.24916e-06
6.99936e-13
1.24916e-06
5.54109e-13
1.24916e-06
4.47176e-13
1.24916e-06
3.48339e-13
1.24916e-06
2.61282e-13
1.24916e-06
1.90955e-13
1.24915e-06
1.12791e-13
1.24915e-06
-6.79222e-16
1.24916e-06
-1.62191e-13
1.24916e-06
-3.87859e-13
1.24916e-06
-7.2012e-13
1.24916e-06
-1.23611e-12
1.24916e-06
-1.8275e-12
1.24916e-06
-1.99179e-12
-1.16505e-12
3.7475e-06
2.67761e-13
3.7475e-06
2.64412e-12
3.7475e-06
3.3308e-12
3.7475e-06
3.04392e-12
3.7475e-06
2.56228e-12
3.74749e-06
2.11261e-12
3.74749e-06
1.72123e-12
3.74749e-06
1.38754e-12
3.74749e-06
1.09171e-12
3.74749e-06
8.16685e-13
3.74749e-06
5.44075e-13
3.74749e-06
2.40529e-13
3.74749e-06
-1.35236e-13
3.74749e-06
-6.2682e-13
3.74749e-06
-1.2875e-12
3.74749e-06
-2.18376e-12
3.7475e-06
-3.36644e-12
3.7475e-06
-4.56603e-12
3.7475e-06
-4.72227e-12
-2.87521e-12
6.2459e-06
-1.09505e-13
6.2459e-06
3.44075e-12
6.2459e-06
4.81093e-12
6.2459e-06
4.72634e-12
6.24589e-06
4.16964e-12
6.24589e-06
3.5536e-12
6.24589e-06
2.97e-12
6.24589e-06
2.43188e-12
6.24589e-06
1.92585e-12
6.24589e-06
1.43566e-12
6.24589e-06
9.33705e-13
6.24589e-06
3.73481e-13
6.24589e-06
-3.01607e-13
6.24589e-06
-1.1508e-12
6.24589e-06
-2.23509e-12
6.24589e-06
-3.60622e-12
6.24589e-06
-5.25215e-12
6.2459e-06
-6.77341e-12
6.2459e-06
-6.92504e-12
-4.41805e-12
8.7444e-06
-7.38352e-13
8.7444e-06
3.56118e-12
8.7444e-06
5.55384e-12
8.7444e-06
5.78102e-12
8.74439e-06
5.31786e-12
8.74439e-06
4.67359e-12
8.74439e-06
3.98885e-12
8.74439e-06
3.31441e-12
8.74439e-06
2.65588e-12
8.74439e-06
1.99571e-12
8.74439e-06
1.29956e-12
8.74439e-06
5.17853e-13
8.74439e-06
-4.07659e-13
8.74439e-06
-1.53701e-12
8.74439e-06
-2.92379e-12
8.74439e-06
-4.59262e-12
8.74439e-06
-6.47645e-12
8.74439e-06
-8.12417e-12
8.7444e-06
-8.28126e-12
-5.57851e-12
1.1243e-05
-1.42036e-12
1.1243e-05
3.14865e-12
1.1243e-05
5.57235e-12
1.1243e-05
6.12149e-12
1.1243e-05
5.84018e-12
1.1243e-05
5.27255e-12
1.1243e-05
4.59593e-12
1.1243e-05
3.88383e-12
1.1243e-05
3.15476e-12
1.1243e-05
2.3984e-12
1.1243e-05
1.58497e-12
1.1243e-05
6.68388e-13
1.1243e-05
-4.05587e-13
1.1243e-05
-1.68859e-12
1.1243e-05
-3.21803e-12
1.1243e-05
-4.99405e-12
1.1243e-05
-6.92022e-12
1.1243e-05
-8.56601e-12
1.1243e-05
-8.78105e-12
-6.24766e-12
1.37418e-05
-2.03663e-12
1.37418e-05
2.38287e-12
1.37418e-05
4.98304e-12
1.37418e-05
5.78931e-12
1.37418e-05
5.72107e-12
1.37418e-05
5.30199e-12
1.37418e-05
4.72009e-12
1.37418e-05
4.06047e-12
1.37418e-05
3.35049e-12
1.37418e-05
2.58883e-12
1.37418e-05
1.75466e-12
1.37418e-05
8.09956e-13
1.37418e-05
-2.90978e-13
1.37418e-05
-1.58714e-12
1.37418e-05
-3.09755e-12
1.37418e-05
-4.80613e-12
1.37418e-05
-6.61247e-12
1.37418e-05
-8.15911e-12
1.37418e-05
-8.48489e-12
-6.3879e-12
1.62409e-05
-2.49737e-12
1.62409e-05
1.41564e-12
1.62409e-05
3.94271e-12
1.62409e-05
4.90382e-12
1.62409e-05
5.03358e-12
1.62409e-05
4.79703e-12
1.62409e-05
4.36984e-12
1.62409e-05
3.83681e-12
1.62409e-05
3.22826e-12
1.62409e-05
2.54961e-12
1.62409e-05
1.78988e-12
1.62409e-05
9.2211e-13
1.62409e-05
-8.73718e-14
1.62409e-05
-1.26352e-12
1.62409e-05
-2.60996e-12
1.62409e-05
-4.10444e-12
1.62409e-05
-5.6639e-12
1.62409e-05
-7.03481e-12
1.62409e-05
-7.50256e-12
-6.02535e-12
1.87401e-05
-2.74915e-12
1.87401e-05
3.6853e-13
1.87401e-05
2.60291e-12
1.87401e-05
3.60379e-12
1.87401e-05
3.8924e-12
1.87401e-05
3.84552e-12
1.87401e-05
3.60923e-12
1.87401e-05
3.25695e-12
1.87401e-05
2.81543e-12
1.87401e-05
2.29351e-12
1.87401e-05
1.68944e-12
1.87401e-05
9.88613e-13
1.87401e-05
1.70752e-13
1.87401e-05
-7.75473e-13
1.87401e-05
-1.84242e-12
1.87401e-05
-3.00925e-12
1.87401e-05
-4.22452e-12
1.87401e-05
-5.35484e-12
1.87401e-05
-5.96428e-12
-5.21714e-12
2.12396e-05
-2.77414e-12
2.12396e-05
-6.66475e-13
2.12396e-05
1.0957e-12
2.12396e-05
2.02908e-12
2.12396e-05
2.42997e-12
2.12396e-05
2.56451e-12
2.12396e-05
2.53636e-12
2.12396e-05
2.39864e-12
2.12396e-05
2.16912e-12
2.12396e-05
1.85689e-12
2.12396e-05
1.46802e-12
2.12396e-05
1.00034e-12
2.12396e-05
4.47204e-13
2.12396e-05
-1.9023e-13
2.12396e-05
-8.96793e-13
2.12396e-05
-1.65797e-12
2.12396e-05
-2.46002e-12
2.12396e-05
-3.29446e-12
2.12396e-05
-4.0161e-12
-4.03965e-12
2.37393e-05
-2.58412e-12
2.37393e-05
-1.62424e-12
2.37393e-05
-4.67418e-13
2.37393e-05
3.13473e-13
2.37393e-05
7.84192e-13
2.37393e-05
1.08533e-12
2.37393e-05
1.26879e-12
2.37393e-05
1.36104e-12
2.37393e-05
1.36728e-12
2.37393e-05
1.2945e-12
2.37393e-05
1.15486e-12
2.37393e-05
9.57897e-13
2.37393e-05
7.10314e-13
2.37393e-05
4.24798e-13
2.37393e-05
1.21945e-13
2.37393e-05
-1.91793e-13
2.37393e-05
-5.39688e-13
2.37393e-05
-1.03345e-12
2.37393e-05
-1.81533e-12
-2.58836e-12
2.62393e-05
-2.21555e-12
2.62393e-05
-2.46338e-12
2.62393e-05
-1.99253e-12
2.62393e-05
-1.41749e-12
2.62393e-05
-9.06664e-13
2.62393e-05
-4.54026e-13
2.62393e-05
-6.51044e-14
2.62393e-05
2.5636e-13
2.62393e-05
5.01403e-13
2.62393e-05
6.73752e-13
2.62393e-05
7.90172e-13
2.62393e-05
8.70841e-13
2.62393e-05
9.35369e-13
2.62393e-05
1.00755e-12
2.62393e-05
1.11317e-12
2.62393e-05
1.25224e-12
2.62393e-05
1.37034e-12
2.62393e-05
1.24859e-12
2.62393e-05
4.72216e-13
-9.77215e-13
2.87396e-05
-1.7251e-12
2.87396e-05
-3.16003e-12
2.87396e-05
-3.39726e-12
2.87396e-05
-3.04426e-12
2.87396e-05
-2.50506e-12
2.87396e-05
-1.91269e-12
2.87396e-05
-1.33193e-12
2.87396e-05
-7.97055e-13
2.87396e-05
-3.30432e-13
2.87396e-05
6.86552e-14
2.87396e-05
4.20709e-13
2.87396e-05
7.55431e-13
2.87396e-05
1.1048e-12
2.87396e-05
1.50376e-12
2.87396e-05
1.98445e-12
2.87396e-05
2.54491e-12
2.87396e-05
3.10965e-12
2.87396e-05
3.37347e-12
2.87396e-05
2.67356e-12
6.64486e-13
3.12401e-05
-1.18325e-12
3.12401e-05
-3.69979e-12
3.12401e-05
-4.60239e-12
3.12401e-05
-4.44814e-12
3.12401e-05
-3.87313e-12
3.12401e-05
-3.14955e-12
3.12401e-05
-2.39861e-12
3.12401e-05
-1.68165e-12
3.12401e-05
-1.03097e-12
3.12401e-05
-4.47131e-13
3.12401e-05
9.40725e-14
3.12401e-05
6.30717e-13
3.12401e-05
1.20626e-12
3.12401e-05
1.86681e-12
3.12401e-05
2.65279e-12
3.12401e-05
3.56643e-12
3.12401e-05
4.52472e-12
3.12401e-05
5.1649e-12
3.12401e-05
4.61054e-12
2.19739e-12
3.37409e-05
-6.64266e-13
3.37409e-05
-4.06922e-12
3.37409e-05
-5.52241e-12
3.37409e-05
-5.50496e-12
3.37409e-05
-4.87139e-12
3.37409e-05
-4.02683e-12
3.37409e-05
-3.13926e-12
3.37409e-05
-2.28948e-12
3.37409e-05
-1.51316e-12
3.37409e-05
-8.0906e-13
3.37409e-05
-1.48682e-13
3.37409e-05
5.13162e-13
3.37409e-05
1.22964e-12
3.37409e-05
2.05726e-12
3.37409e-05
3.0462e-12
3.37409e-05
4.20942e-12
3.37409e-05
5.47242e-12
3.37409e-05
6.45028e-12
3.37409e-05
6.10355e-12
3.4768e-12
3.62419e-05
-2.31133e-13
3.62419e-05
-4.24417e-12
3.62419e-05
-6.05591e-12
3.62419e-05
-6.08047e-12
3.62419e-05
-5.36066e-12
3.62419e-05
-4.41822e-12
3.62419e-05
-3.44764e-12
3.62419e-05
-2.53596e-12
3.62419e-05
-1.7134e-12
3.62419e-05
-9.73036e-13
3.62419e-05
-2.81509e-13
3.62419e-05
4.11615e-13
3.62419e-05
1.1659e-12
3.62419e-05
2.04528e-12
3.62419e-05
3.10922e-12
3.62419e-05
4.38644e-12
3.62419e-05
5.82776e-12
3.62419e-05
7.06599e-12
3.62419e-05
6.97669e-12
4.35321e-12
3.87431e-05
7.56628e-14
3.87431e-05
-4.16733e-12
3.87431e-05
-6.07711e-12
3.87431e-05
-6.03578e-12
3.87431e-05
-5.21879e-12
3.87431e-05
-4.23012e-12
3.87431e-05
-3.25928e-12
3.87431e-05
-2.3804e-12
3.87431e-05
-1.60886e-12
3.87431e-05
-9.2856e-13
3.87431e-05
-3.01397e-13
3.87431e-05
3.24994e-13
3.87431e-05
1.00998e-12
3.87431e-05
1.8179e-12
3.87431e-05
2.81421e-12
3.87431e-05
4.04561e-12
3.87431e-05
5.50104e-12
3.87431e-05
6.8739e-12
3.87431e-05
7.06636e-12
4.67795e-12
4.12444e-05
2.29994e-13
4.12444e-05
-3.72966e-12
4.12444e-05
-5.4391e-12
4.12444e-05
-5.24571e-12
4.12444e-05
-4.37602e-12
4.12444e-05
-3.44376e-12
4.12444e-05
-2.59022e-12
4.12444e-05
-1.85628e-12
4.12444e-05
-1.23838e-12
4.12444e-05
-7.11159e-13
4.12444e-05
-2.33435e-13
4.12444e-05
2.43636e-13
4.12444e-05
7.67502e-13
4.12444e-05
1.39019e-12
4.12444e-05
2.1792e-12
4.12444e-05
3.20076e-12
4.12444e-05
4.47955e-12
4.12444e-05
5.80274e-12
4.12444e-05
6.23506e-12
4.33508e-12
4.37459e-05
2.35675e-13
4.37459e-05
-2.75852e-12
4.37459e-05
-3.98923e-12
4.37459e-05
-3.6605e-12
4.37459e-05
-2.88637e-12
4.37459e-05
-2.17529e-12
4.37459e-05
-1.5815e-12
4.37459e-05
-1.10057e-12
4.37459e-05
-7.15795e-13
4.37459e-05
-4.02904e-13
4.37459e-05
-1.27211e-13
4.37459e-05
1.49272e-13
4.37459e-05
4.56631e-13
4.37459e-05
8.27663e-13
4.37459e-05
1.31417e-12
4.37459e-05
1.97577e-12
4.37459e-05
2.86708e-12
4.37459e-05
3.90729e-12
4.37459e-05
4.42865e-12
3.23567e-12
4.62475e-05
1.12391e-13
4.62475e-05
-1.26392e-12
4.62475e-05
-1.75724e-12
4.62475e-05
-1.50219e-12
4.62475e-05
-1.08506e-12
4.62475e-05
-7.74001e-13
4.62475e-05
-5.38408e-13
4.62475e-05
-3.56711e-13
4.62475e-05
-2.22396e-13
4.62475e-05
-1.26867e-13
4.62475e-05
-4.51949e-14
4.62475e-05
4.76483e-14
4.62475e-05
1.5195e-13
4.62475e-05
2.68367e-13
4.62475e-05
4.34272e-13
4.62475e-05
6.89174e-13
4.62475e-05
1.05708e-12
4.62475e-05
1.54319e-12
4.62475e-05
1.88493e-12
1.48297e-12
4.87492e-05
4.87492e-05
4.87492e-05
4.87492e-05
4.87492e-05
4.87492e-05
4.87492e-05
4.87492e-05
4.87492e-05
4.87492e-05
4.87492e-05
4.87492e-05
4.87492e-05
4.87492e-05
4.87492e-05
4.87492e-05
4.87492e-05
4.87492e-05
4.87492e-05
)
;

boundaryField
{
    movingWall
    {
        type            calculated;
        value           uniform 0;
    }
    fixedWalls
    {
        type            calculated;
        value           uniform 0;
    }
    left
    {
        type            cyclic;
        value           nonuniform List<scalar> 
20
(
-3.87431e-05
-3.62419e-05
-3.37409e-05
-3.12401e-05
-2.87396e-05
-2.62393e-05
-2.37393e-05
-2.12396e-05
-1.87401e-05
-1.62408e-05
-1.37418e-05
-1.1243e-05
-8.7444e-06
-6.2459e-06
-3.7475e-06
-1.24916e-06
-4.12444e-05
-4.37459e-05
-4.62475e-05
-4.87492e-05
)
;
    }
    right
    {
        type            cyclic;
        value           nonuniform List<scalar> 
20
(
3.87431e-05
3.62419e-05
3.37409e-05
3.12401e-05
2.87396e-05
2.62393e-05
2.37393e-05
2.12396e-05
1.87401e-05
1.62408e-05
1.37418e-05
1.1243e-05
8.7444e-06
6.2459e-06
3.7475e-06
1.24916e-06
4.12444e-05
4.37459e-05
4.62475e-05
4.87492e-05
)
;
    }
    frontAndBack
    {
        type            empty;
        value           nonuniform List<scalar> 0();
    }
}


// ************************************************************************* //
