/*--------------------------------*- C++ -*----------------------------------*\
  =========                 |
  \\      /  F ield         | OpenFOAM: The Open Source CFD Toolbox
   \\    /   O peration     | Website:  https://openfoam.org
    \\  /    A nd           | Version:  8
     \\/     M anipulation  |
\*---------------------------------------------------------------------------*/
FoamFile
{
    version     2.0;
    format      ascii;
    class       volVectorField;
    location    "1";
    object      U;
}
// * * * * * * * * * * * * * * * * * * * * * * * * * * * * * * * * * * * * * //

dimensions      [0 1 -1 0 0 0 0];

internalField   nonuniform List<vector> 
400
(
(0.0249832 1.97386e-09 0)
(0.0249832 1.11907e-08 0)
(0.0249832 1.18457e-08 0)
(0.0249832 9.21623e-09 0)
(0.0249832 7.02627e-09 0)
(0.0249831 5.26154e-09 0)
(0.0249831 4.01666e-09 0)
(0.0249831 3.16399e-09 0)
(0.0249831 2.30561e-09 0)
(0.0249831 1.60243e-09 0)
(0.0249831 1.24482e-09 0)
(0.0249831 8.93072e-10 0)
(0.0249831 1.03914e-10 0)
(0.0249831 -1.25707e-09 0)
(0.0249831 -3.27741e-09 0)
(0.0249831 -6.44724e-09 0)
(0.0249831 -1.18133e-08 0)
(0.0249832 -1.85724e-08 0)
(0.0249832 -2.11039e-08 0)
(0.0249832 -1.26156e-08 0)
(0.0749501 6.86474e-09 0)
(0.0749501 3.95027e-08 0)
(0.07495 4.74651e-08 0)
(0.07495 4.12924e-08 0)
(0.0749499 3.36104e-08 0)
(0.0749499 2.7075e-08 0)
(0.0749499 2.16891e-08 0)
(0.0749499 1.73706e-08 0)
(0.0749498 1.36414e-08 0)
(0.0749498 1.02986e-08 0)
(0.0749498 7.19257e-09 0)
(0.0749498 3.7367e-09 0)
(0.0749498 -7.94902e-10 0)
(0.0749498 -6.98134e-09 0)
(0.0749498 -1.55554e-08 0)
(0.0749499 -2.77653e-08 0)
(0.0749499 -4.51937e-08 0)
(0.0749499 -6.37083e-08 0)
(0.07495 -6.70433e-08 0)
(0.07495 -3.99361e-08 0)
(0.124918 2.95487e-09 0)
(0.124918 6.39515e-08 0)
(0.124918 8.42512e-08 0)
(0.124918 7.98921e-08 0)
(0.124918 6.86862e-08 0)
(0.124918 5.73067e-08 0)
(0.124918 4.723e-08 0)
(0.124918 3.83352e-08 0)
(0.124918 3.01634e-08 0)
(0.124918 2.24605e-08 0)
(0.124918 1.47371e-08 0)
(0.124918 6.08667e-09 0)
(0.124918 -4.50502e-09 0)
(0.124918 -1.80617e-08 0)
(0.124918 -3.57999e-08 0)
(0.124918 -5.90625e-08 0)
(0.124918 -8.83288e-08 0)
(0.124918 -1.16691e-07 0)
(0.124918 -1.19711e-07 0)
(0.124918 -7.42313e-08 0)
(0.174888 -7.96033e-09 0)
(0.174888 7.30093e-08 0)
(0.174888 1.07243e-07 0)
(0.174888 1.08317e-07 0)
(0.174888 9.74853e-08 0)
(0.174888 8.42775e-08 0)
(0.174888 7.09831e-08 0)
(0.174888 5.83945e-08 0)
(0.174888 4.64683e-08 0)
(0.174888 3.46934e-08 0)
(0.174888 2.23461e-08 0)
(0.174888 8.52844e-09 0)
(0.174888 -7.84629e-09 0)
(0.174888 -2.80456e-08 0)
(0.174888 -5.3369e-08 0)
(0.174888 -8.46597e-08 0)
(0.174888 -1.2099e-07 0)
(0.174888 -1.53427e-07 0)
(0.174888 -1.56369e-07 0)
(0.174888 -1.02113e-07 0)
(0.224861 -2.10677e-08 0)
(0.224861 6.96303e-08 0)
(0.224861 1.14941e-07 0)
(0.224861 1.22797e-07 0)
(0.224861 1.14912e-07 0)
(0.224861 1.02272e-07 0)
(0.224861 8.81778e-08 0)
(0.224861 7.38169e-08 0)
(0.224861 5.93981e-08 0)
(0.224861 4.46856e-08 0)
(0.224861 2.90915e-08 0)
(0.224861 1.16522e-08 0)
(0.224861 -8.83383e-09 0)
(0.224861 -3.35783e-08 0)
(0.224861 -6.35289e-08 0)
(0.224861 -9.88606e-08 0)
(0.224861 -1.37762e-07 0)
(0.224861 -1.71057e-07 0)
(0.224861 -1.74299e-07 0)
(0.224861 -1.20331e-07 0)
(0.274837 -3.4808e-08 0)
(0.274837 5.6817e-08 0)
(0.274837 1.08271e-07 0)
(0.274837 1.22242e-07 0)
(0.274837 1.18738e-07 0)
(0.274837 1.08609e-07 0)
(0.274837 9.56014e-08 0)
(0.274837 8.1373e-08 0)
(0.274837 6.64577e-08 0)
(0.274837 5.07902e-08 0)
(0.274837 3.38585e-08 0)
(0.274837 1.47678e-08 0)
(0.274837 -7.53998e-09 0)
(0.274837 -3.40021e-08 0)
(0.274837 -6.51683e-08 0)
(0.274837 -1.00786e-07 0)
(0.274837 -1.38729e-07 0)
(0.274837 -1.70908e-07 0)
(0.274837 -1.75908e-07 0)
(0.274837 -1.28496e-07 0)
(0.324817 -4.62534e-08 0)
(0.324817 3.8614e-08 0)
(0.324817 9.10929e-08 0)
(0.324817 1.09397e-07 0)
(0.324817 1.10187e-07 0)
(0.324817 1.03495e-07 0)
(0.324817 9.30909e-08 0)
(0.324817 8.07826e-08 0)
(0.324817 6.72133e-08 0)
(0.324817 5.24341e-08 0)
(0.324817 3.60917e-08 0)
(0.324817 1.749e-08 0)
(0.324817 -4.18068e-09 0)
(0.324817 -2.95338e-08 0)
(0.324817 -5.8752e-08 0)
(0.324817 -9.14087e-08 0)
(0.324817 -1.25581e-07 0)
(0.324817 -1.55044e-07 0)
(0.324817 -1.62828e-07 0)
(0.324817 -1.26352e-07 0)
(0.374802 -5.36735e-08 0)
(0.374802 1.78675e-08 0)
(0.374802 6.65125e-08 0)
(0.374802 8.67648e-08 0)
(0.374802 9.11849e-08 0)
(0.374802 8.83313e-08 0)
(0.374802 8.15434e-08 0)
(0.374802 7.24804e-08 0)
(0.374802 6.17433e-08 0)
(0.374802 4.94725e-08 0)
(0.374802 3.55192e-08 0)
(0.374802 1.94438e-08 0)
(0.374802 7.02775e-10 0)
(0.374802 -2.10365e-08 0)
(0.374802 -4.56808e-08 0)
(0.374802 -7.27658e-08 0)
(0.374802 -1.00926e-07 0)
(0.374802 -1.2625e-07 0)
(0.374802 -1.37107e-07 0)
(0.374802 -1.14502e-07 0)
(0.424791 -5.64291e-08 0)
(0.424791 -3.32406e-09 0)
(0.424791 3.74241e-08 0)
(0.424791 5.72778e-08 0)
(0.424791 6.4416e-08 0)
(0.424791 6.53693e-08 0)
(0.424792 6.27087e-08 0)
(0.424792 5.77346e-08 0)
(0.424792 5.09009e-08 0)
(0.424792 4.23917e-08 0)
(0.424792 3.2255e-08 0)
(0.424792 2.03206e-08 0)
(0.424792 6.31485e-09 0)
(0.424792 -9.85529e-09 0)
(0.424792 -2.79336e-08 0)
(0.424792 -4.75407e-08 0)
(0.424791 -6.80249e-08 0)
(0.424791 -8.79737e-08 0)
(0.424791 -1.01526e-07 0)
(0.424791 -9.42475e-08 0)
(0.474786 -5.46418e-08 0)
(0.474786 -2.35025e-08 0)
(0.474786 6.20905e-09 0)
(0.474786 2.37129e-08 0)
(0.474786 3.26459e-08 0)
(0.474786 3.713e-08 0)
(0.474786 3.87512e-08 0)
(0.474786 3.8313e-08 0)
(0.474786 3.60436e-08 0)
(0.474786 3.21142e-08 0)
(0.474786 2.67279e-08 0)
(0.474786 1.99691e-08 0)
(0.474786 1.18343e-08 0)
(0.474786 2.4575e-09 0)
(0.474786 -7.79691e-09 0)
(0.474786 -1.8708e-08 0)
(0.474786 -3.03807e-08 0)
(0.474786 -4.38906e-08 0)
(0.474786 -5.92403e-08 0)
(0.474786 -6.74337e-08 0)
(0.524786 -4.88634e-08 0)
(0.524786 -4.16651e-08 0)
(0.524786 -2.51193e-08 0)
(0.524786 -1.13463e-08 0)
(0.524786 -1.37205e-09 0)
(0.524786 6.29532e-09 0)
(0.524786 1.21292e-08 0)
(0.524786 1.63516e-08 0)
(0.524786 1.89151e-08 0)
(0.524786 1.99301e-08 0)
(0.524786 1.97063e-08 0)
(0.524786 1.85586e-08 0)
(0.524786 1.67533e-08 0)
(0.524786 1.46523e-08 0)
(0.524786 1.27172e-08 0)
(0.524786 1.10037e-08 0)
(0.524786 8.69806e-09 0)
(0.524786 2.40896e-09 0)
(0.524786 -1.35277e-08 0)
(0.524786 -3.62249e-08 0)
(0.574792 -3.99818e-08 0)
(0.574792 -5.71307e-08 0)
(0.574792 -5.48001e-08 0)
(0.574792 -4.54787e-08 0)
(0.574792 -3.49201e-08 0)
(0.574792 -2.43773e-08 0)
(0.574792 -1.45491e-08 0)
(0.574792 -5.8305e-09 0)
(0.574792 1.44176e-09 0)
(0.574792 7.2985e-09 0)
(0.574792 1.21195e-08 0)
(0.574792 1.64222e-08 0)
(0.574792 2.07376e-08 0)
(0.574792 2.56598e-08 0)
(0.574792 3.1763e-08 0)
(0.574792 3.89956e-08 0)
(0.574792 4.59831e-08 0)
(0.574792 4.73536e-08 0)
(0.574792 3.22139e-08 0)
(0.574792 -3.05295e-09 0)
(0.624802 -2.92368e-08 0)
(0.624802 -6.95104e-08 0)
(0.624802 -8.12673e-08 0)
(0.624802 -7.63695e-08 0)
(0.624802 -6.52926e-08 0)
(0.624802 -5.20865e-08 0)
(0.624802 -3.86157e-08 0)
(0.624802 -2.58662e-08 0)
(0.624802 -1.44285e-08 0)
(0.624802 -4.32961e-09 0)
(0.624802 4.87383e-09 0)
(0.624802 1.38792e-08 0)
(0.624802 2.3466e-08 0)
(0.624802 3.44582e-08 0)
(0.624802 4.75689e-08 0)
(0.624802 6.27464e-08 0)
(0.624802 7.83001e-08 0)
(0.624802 8.73888e-08 0)
(0.624802 7.4482e-08 0)
(0.624802 2.94079e-08 0)
(0.674817 -1.81281e-08 0)
(0.674817 -7.8548e-08 0)
(0.674817 -1.02913e-07 0)
(0.674818 -1.01598e-07 0)
(0.674818 -8.96565e-08 0)
(0.674818 -7.39265e-08 0)
(0.674818 -5.73454e-08 0)
(0.674818 -4.13774e-08 0)
(0.674818 -2.67602e-08 0)
(0.674818 -1.35167e-08 0)
(0.674818 -1.11807e-09 0)
(0.674818 1.12938e-08 0)
(0.674818 2.47113e-08 0)
(0.674818 4.01657e-08 0)
(0.674818 5.85377e-08 0)
(0.674818 7.99169e-08 0)
(0.674818 1.02624e-07 0)
(0.674818 1.19011e-07 0)
(0.674818 1.0968e-07 0)
(0.674817 5.82995e-08 0)
(0.724837 -8.21239e-09 0)
(0.724837 -8.39441e-08 0)
(0.724837 -1.17886e-07 0)
(0.724837 -1.18591e-07 0)
(0.724837 -1.05197e-07 0)
(0.724837 -8.71582e-08 0)
(0.724837 -6.82671e-08 0)
(0.724837 -5.02773e-08 0)
(0.724837 -3.38869e-08 0)
(0.724837 -1.90208e-08 0)
(0.724837 -5.03954e-09 0)
(0.724837 9.03794e-09 0)
(0.724837 2.43476e-08 0)
(0.724837 4.20828e-08 0)
(0.724837 6.33236e-08 0)
(0.724837 8.84647e-08 0)
(0.724837 1.162e-07 0)
(0.724837 1.38806e-07 0)
(0.724837 1.34196e-07 0)
(0.724837 8.06619e-08 0)
(0.774861 -7.1081e-10 0)
(0.774861 -8.5267e-08 0)
(0.774861 -1.24028e-07 0)
(0.774861 -1.24555e-07 0)
(0.774861 -1.09232e-07 0)
(0.774861 -8.95674e-08 0)
(0.774861 -6.9665e-08 0)
(0.774861 -5.12786e-08 0)
(0.774861 -3.48727e-08 0)
(0.774861 -2.01859e-08 0)
(0.774861 -6.48169e-09 0)
(0.774861 7.26435e-09 0)
(0.774861 2.22306e-08 0)
(0.774861 3.97141e-08 0)
(0.774861 6.10222e-08 0)
(0.774861 8.69751e-08 0)
(0.774861 1.16915e-07 0)
(0.774861 1.43757e-07 0)
(0.774861 1.44679e-07 0)
(0.774861 9.35098e-08 0)
(0.824888 3.93753e-09 0)
(0.824888 -8.09662e-08 0)
(0.824888 -1.18556e-07 0)
(0.824888 -1.16539e-07 0)
(0.824888 -9.93492e-08 0)
(0.824888 -7.95977e-08 0)
(0.824888 -6.07846e-08 0)
(0.824888 -4.41457e-08 0)
(0.824888 -2.97653e-08 0)
(0.824888 -1.72126e-08 0)
(0.824888 -5.75018e-09 0)
(0.824888 5.60456e-09 0)
(0.824888 1.8025e-08 0)
(0.824888 3.28287e-08 0)
(0.824888 5.13491e-08 0)
(0.824888 7.46528e-08 0)
(0.824888 1.02994e-07 0)
(0.824888 1.31072e-07 0)
(0.824888 1.37821e-07 0)
(0.824888 9.36095e-08 0)
(0.874918 5.5058e-09 0)
(0.874918 -6.7361e-08 0)
(0.874918 -9.79683e-08 0)
(0.874918 -9.22286e-08 0)
(0.874918 -7.48676e-08 0)
(0.874918 -5.76448e-08 0)
(0.874918 -4.25995e-08 0)
(0.874918 -3.00377e-08 0)
(0.874918 -1.97245e-08 0)
(0.874918 -1.1142e-08 0)
(0.874918 -3.48938e-09 0)
(0.874918 4.15654e-09 0)
(0.874918 1.25774e-08 0)
(0.874918 2.26211e-08 0)
(0.874918 3.56379e-08 0)
(0.874918 5.30775e-08 0)
(0.874918 7.56182e-08 0)
(0.874918 1.0027e-07 0)
(0.874918 1.1077e-07 0)
(0.874918 7.89762e-08 0)
(0.92495 3.83434e-09 0)
(0.92495 -4.09547e-08 0)
(0.92495 -5.8913e-08 0)
(0.92495 -5.24625e-08 0)
(0.92495 -3.949e-08 0)
(0.92495 -2.8678e-08 0)
(0.92495 -2.01685e-08 0)
(0.92495 -1.3531e-08 0)
(0.92495 -8.45741e-09 0)
(0.92495 -4.5931e-09 0)
(0.92495 -1.29305e-09 0)
(0.92495 2.12859e-09 0)
(0.92495 6.01224e-09 0)
(0.92495 1.06885e-08 0)
(0.92495 1.69978e-08 0)
(0.92495 2.59398e-08 0)
(0.92495 3.86124e-08 0)
(0.92495 5.4511e-08 0)
(0.92495 6.38919e-08 0)
(0.92495 4.86308e-08 0)
(0.974983 1.61158e-10 0)
(0.974983 -1.42544e-08 0)
(0.974983 -1.86329e-08 0)
(0.974983 -1.50043e-08 0)
(0.974983 -1.01696e-08 0)
(0.974983 -6.8016e-09 0)
(0.974983 -4.40696e-09 0)
(0.974983 -2.6721e-09 0)
(0.974983 -1.56241e-09 0)
(0.974983 -9.68506e-10 0)
(0.974983 -4.76894e-10 0)
(0.974983 2.89043e-10 0)
(0.974983 1.22961e-09 0)
(0.974983 2.15349e-09 0)
(0.974983 3.46227e-09 0)
(0.974983 5.71562e-09 0)
(0.974983 9.23822e-09 0)
(0.974983 1.43172e-08 0)
(0.974983 1.84578e-08 0)
(0.974983 1.46439e-08 0)
)
;

boundaryField
{
    movingWall
    {
        type            fixedValue;
        value           uniform (1 0 0);
    }
    fixedWalls
    {
        type            noSlip;
    }
    left
    {
        type            cyclic;
    }
    right
    {
        type            cyclic;
    }
    frontAndBack
    {
        type            empty;
    }
}


// ************************************************************************* //
