0 	-3.85736e-08
1.57135 	-1.19947e-06
3.1427 	-7.54792e-06
4.71405 	-2.52228e-05
6.28539 	-6.40586e-05
7.85674 	-0.000148427
9.42809 	-0.000372196
10.9994 	-0.00126704
12.5708 	-0.00413608
14.1421 	0.0175857
