/*--------------------------------*- C++ -*----------------------------------*\
  =========                 |
  \\      /  F ield         | OpenFOAM: The Open Source CFD Toolbox
   \\    /   O peration     | Website:  https://openfoam.org
    \\  /    A nd           | Version:  8
     \\/     M anipulation  |
\*---------------------------------------------------------------------------*/
FoamFile
{
    version     2.0;
    format      ascii;
    class       volScalarField;
    location    "22.5";
    object      p;
}
// * * * * * * * * * * * * * * * * * * * * * * * * * * * * * * * * * * * * * //

dimensions      [0 2 -2 0 0 0 0];

internalField   nonuniform List<scalar> 
116
(
5.22561e-09
-0.000667465
-0.000283167
-0.00250827
0.00113973
-0.00781232
0.000138499
-0.000356806
0.00034531
-0.00170496
-0.000669007
-0.00293279
0.000241943
-7.91993e-05
7.06442e-05
-0.000849686
-0.0027681
-0.00768289
0.000311867
0.000155232
2.82936e-05
-0.000737974
-0.00370495
-0.00830169
0.000277488
0.000136427
-0.00025306
-0.00078746
-0.0041821
-0.0081153
-0.000111105
-3.1975e-05
-0.000509826
-0.000609385
-0.00292824
-0.00486262
0.000220934
-9.94548e-05
-0.000496477
-0.00066051
-0.00201505
-0.00352202
-0.00084382
-0.000299817
-0.000250055
0.00035281
-0.000106959
-0.000715807
0.000832216
-0.000860094
-0.000259713
-0.00047631
-0.000412892
-0.00145097
-0.00628661
0.000880005
0.00146389
0.002137
0.00183655
0.000874536
0.000204835
0.00944898
0.00820869
0.013622
-0.0056985
-0.000979189
0.00224453
0.00564592
-0.0114251
-0.00820434
-0.0040274
-0.00126088
-0.0128293
-0.0104501
-0.00797809
-0.00496411
-0.0120465
-0.00974566
-0.00891077
-0.00528324
-0.0073785
-0.00501295
-0.00620663
-0.00298674
-0.00583454
-0.00421734
-0.00649764
-0.000377381
-0.00140745
-0.000691097
-0.00177329
0.00679714
-0.00349401
-0.00300936
-0.00344888
0.0115967
0.000454615
0.00533762
0.0149144
0.0498861
0.0159762
0.0160509
0.0158257
0.0173342
0.0156038
0.0163348
0.0150486
0.0163272
0.0130587
0.0140163
0.0121123
0.0127742
0.00965598
0.0165596
0.00936334
0.0145765
)
;

boundaryField
{
    movingWall
    {
        type            zeroGradient;
    }
    fixedWalls
    {
        type            zeroGradient;
    }
    frontAndBack
    {
        type            empty;
    }
}


// ************************************************************************* //
