/*--------------------------------*- C++ -*----------------------------------*\
  =========                 |
  \\      /  F ield         | OpenFOAM: The Open Source CFD Toolbox
   \\    /   O peration     | Website:  https://openfoam.org
    \\  /    A nd           | Version:  8
     \\/     M anipulation  |
\*---------------------------------------------------------------------------*/
FoamFile
{
    version     2.0;
    format      ascii;
    class       surfaceScalarField;
    location    "22.5";
    object      phi;
}
// * * * * * * * * * * * * * * * * * * * * * * * * * * * * * * * * * * * * * //

dimensions      [0 3 -1 0 0 0 0];

internalField   nonuniform List<scalar> 
208
(
6.43748e-06
-6.43748e-06
1.74104e-05
-1.09729e-05
1.72924e-05
1.18033e-07
8.46159e-06
8.83078e-06
-5.57398e-05
6.42014e-05
8.58484e-05
-0.000141588
-2.03523e-06
-4.40225e-06
-9.40993e-06
-3.59823e-06
-3.1119e-05
2.18271e-05
-7.26801e-05
5.03919e-05
-0.00011262
0.000104142
0.000100417
-0.000127189
-6.16778e-06
1.76553e-06
-2.1076e-05
1.131e-05
-4.08941e-05
4.16452e-05
-6.54974e-05
7.49952e-05
-8.44886e-05
0.000123133
0.000101756
-8.58272e-05
-9.01528e-06
1.07808e-05
-2.10367e-05
2.33314e-05
-3.24029e-05
5.30114e-05
-4.13263e-05
8.39186e-05
-4.55715e-05
0.000127378
9.43383e-05
-3.81541e-05
-5.14282e-06
1.59236e-05
-1.41444e-05
3.2333e-05
-1.57877e-05
5.46547e-05
-1.01503e-05
7.82812e-05
2.29996e-07
0.000116998
8.18428e-05
1.27254e-05
-4.92095e-06
2.08446e-05
-6.88349e-06
3.42955e-05
-2.10366e-06
4.98749e-05
9.02328e-06
6.71543e-05
2.48913e-05
0.00010113
7.24872e-05
3.42469e-05
4.37673e-07
2.04069e-05
-7.98511e-06
4.27183e-05
-5.7867e-06
4.76765e-05
5.9988e-06
5.53688e-05
3.12407e-05
7.58878e-05
5.67523e-05
4.69756e-05
4.18458e-06
1.62223e-05
9.74784e-06
3.7155e-05
1.53521e-05
4.20722e-05
2.1254e-05
4.94669e-05
4.02951e-05
5.68467e-05
4.88215e-05
4.82259e-05
-4.95266e-05
6.57489e-05
-4.80784e-05
3.57068e-05
-4.02246e-05
3.42184e-05
-2.22211e-05
3.14634e-05
5.2915e-06
2.93341e-05
2.63453e-05
2.77678e-05
6.57489e-05
0.000101456
0.000135674
0.000167138
0.000196472
0.000222817
-0.000124779
9.92644e-05
-0.000116074
-8.18382e-05
-5.5629e-05
1.26884e-05
-2.99187e-05
-4.68473e-05
-5.0722e-06
-0.000138376
0.000108458
-0.000106837
7.89124e-05
-9.4132e-05
-6.8334e-05
-4.78207e-05
-9.31586e-05
-0.000186197
-5.86e-05
5.16851e-05
-5.25712e-05
-7.43628e-05
-3.29701e-05
-0.00011276
-0.000219167
-1.81635e-05
3.16945e-05
-2.27497e-05
-6.97765e-05
-1.84261e-05
-0.000117083
-0.000237593
2.18757e-05
2.25443e-05
3.74047e-06
-5.16413e-05
-7.84652e-06
-0.000105496
-0.00024544
3.69984e-05
1.97927e-05
1.69505e-05
-3.15934e-05
1.95303e-06
-9.04989e-05
-0.000243487
4.79636e-05
1.88047e-05
1.78517e-05
-1.48145e-06
-1.64671e-06
-7.10004e-05
-0.000245133
4.43968e-05
2.26337e-05
2.36263e-05
1.92891e-05
1.81448e-05
-6.55189e-05
-0.000226989
3.95529e-05
1.08485e-05
5.63466e-05
2.49542e-06
5.90243e-05
-6.81966e-05
-0.000167964
0.000233665
0.000236161
0.000167964
-2.12151e-05
2.12151e-05
-3.39467e-05
1.27317e-05
-3.45265e-05
5.79763e-07
-3.45265e-05
-2.32198e-05
4.44349e-05
-2.99839e-05
1.94957e-05
-3.70645e-05
7.66038e-06
-7.1591e-05
-2.83099e-05
7.27448e-05
-1.78687e-05
9.05456e-06
-2.99415e-05
1.97331e-05
-0.000101532
-4.3329e-05
-2.1586e-05
-6.92511e-06
)
;

boundaryField
{
    movingWall
    {
        type            calculated;
        value           uniform 0;
    }
    fixedWalls
    {
        type            calculated;
        value           uniform 0;
    }
    frontAndBack
    {
        type            empty;
        value           nonuniform List<scalar> 0();
    }
}


// ************************************************************************* //
