/*--------------------------------*- C++ -*----------------------------------*\
  =========                 |
  \\      /  F ield         | OpenFOAM: The Open Source CFD Toolbox
   \\    /   O peration     | Website:  https://openfoam.org
    \\  /    A nd           | Version:  8
     \\/     M anipulation  |
\*---------------------------------------------------------------------------*/
FoamFile
{
    version     2.0;
    format      ascii;
    class       surfaceScalarField;
    location    "0.45";
    object      phi;
}
// * * * * * * * * * * * * * * * * * * * * * * * * * * * * * * * * * * * * * //

dimensions      [0 3 -1 0 0 0 0];

internalField   nonuniform List<scalar> 
760
(
1.21292e-06
9.37336e-12
1.21291e-06
1.45986e-11
1.21289e-06
1.56514e-11
1.21288e-06
1.31034e-11
1.21287e-06
1.01008e-11
1.21286e-06
7.27468e-12
1.21286e-06
5.02497e-12
1.21286e-06
3.13403e-12
1.21285e-06
1.27833e-12
1.21285e-06
-6.67734e-13
1.21286e-06
-2.62357e-12
1.21286e-06
-4.55332e-12
1.21287e-06
-6.54693e-12
1.21288e-06
-8.71508e-12
1.21289e-06
-1.09238e-11
1.2129e-06
-1.27506e-11
1.21291e-06
-1.35886e-11
1.21293e-06
-1.23409e-11
1.21293e-06
-7.38717e-12
5.58034e-13
3.63964e-06
1.43753e-11
3.63962e-06
2.86021e-11
3.6396e-06
3.38344e-11
3.63959e-06
3.19845e-11
3.63957e-06
2.73143e-11
3.63955e-06
2.20901e-11
3.63954e-06
1.70006e-11
3.63953e-06
1.20376e-11
3.63953e-06
7.0527e-12
3.63952e-06
1.95372e-12
3.63953e-06
-3.28998e-12
3.63953e-06
-8.72235e-12
3.63954e-06
-1.44157e-11
3.63955e-06
-2.03422e-11
3.63956e-06
-2.61396e-11
3.63958e-06
-3.0939e-11
3.6396e-06
-3.35186e-11
3.63962e-06
-3.16179e-11
3.63964e-06
-2.21479e-11
-5.11224e-12
6.06903e-06
9.86227e-12
6.06903e-06
3.17743e-11
6.06902e-06
4.28421e-11
6.06901e-06
4.49493e-11
6.06899e-06
4.19585e-11
6.06898e-06
3.6612e-11
6.06897e-06
3.01861e-11
6.06896e-06
2.32017e-11
6.06895e-06
1.5804e-11
6.06894e-06
8.00433e-12
6.06894e-06
-1.95463e-13
6.06894e-06
-8.80678e-12
6.06894e-06
-1.78498e-11
6.06895e-06
-2.71952e-11
6.06896e-06
-3.63046e-11
6.06897e-06
-4.41586e-11
6.06899e-06
-4.89963e-11
6.069e-06
-4.80355e-11
6.06902e-06
-3.74833e-11
-1.61693e-11
8.50288e-06
1.52879e-12
8.50288e-06
2.75977e-11
8.50288e-06
4.37662e-11
8.50287e-06
5.01676e-11
8.50287e-06
5.01276e-11
8.50286e-06
4.62968e-11
8.50285e-06
4.01648e-11
8.50284e-06
3.25765e-11
8.50283e-06
2.39987e-11
8.50282e-06
1.46523e-11
8.50282e-06
4.63178e-12
8.50281e-06
-6.03518e-12
8.50281e-06
-1.73306e-11
8.50282e-06
-2.90608e-11
8.50282e-06
-4.05483e-11
8.50283e-06
-5.06784e-11
8.50283e-06
-5.75722e-11
8.50285e-06
-5.83205e-11
8.50286e-06
-4.88194e-11
-2.71439e-11
1.09428e-05
-6.99161e-12
1.09428e-05
1.99302e-11
1.09428e-05
3.87726e-11
1.09428e-05
4.837e-11
1.09428e-05
5.12404e-11
1.09428e-05
4.95469e-11
1.09428e-05
4.47313e-11
1.09428e-05
3.77891e-11
1.09428e-05
2.93653e-11
1.09428e-05
1.98174e-11
1.09428e-05
9.33217e-12
1.09428e-05
-1.99954e-12
1.09428e-05
-1.41032e-11
1.09428e-05
-2.67377e-11
1.09428e-05
-3.9267e-11
1.09428e-05
-5.05931e-11
1.09428e-05
-5.89352e-11
1.09428e-05
-6.14065e-11
1.09428e-05
-5.41178e-11
-3.47439e-11
1.33903e-05
-1.36822e-11
1.33903e-05
1.10406e-11
1.33903e-05
2.9917e-11
1.33903e-05
4.10417e-11
1.33903e-05
4.59757e-11
1.33903e-05
4.63477e-11
1.33903e-05
4.33586e-11
1.33903e-05
3.7953e-11
1.33903e-05
3.07994e-11
1.33903e-05
2.23077e-11
1.33903e-05
1.2723e-11
1.33903e-05
2.17529e-12
1.33903e-05
-9.24297e-12
1.33903e-05
-2.12796e-11
1.33903e-05
-3.33907e-11
1.33903e-05
-4.46145e-11
1.33903e-05
-5.34452e-11
1.33903e-05
-5.73844e-11
1.33903e-05
-5.29484e-11
-3.76518e-11
1.58467e-05
-1.75648e-11
1.58467e-05
2.52171e-12
1.58467e-05
1.89919e-11
1.58467e-05
2.98379e-11
1.58467e-05
3.56684e-11
1.58467e-05
3.76049e-11
1.58467e-05
3.65135e-11
1.58467e-05
3.31436e-11
1.58467e-05
2.80601e-11
1.58467e-05
2.16358e-11
1.58467e-05
1.41155e-11
1.58467e-05
5.63564e-12
1.58467e-05
-3.71845e-12
1.58467e-05
-1.37447e-11
1.58467e-05
-2.40577e-11
1.58467e-05
-3.39612e-11
1.58467e-05
-4.22721e-11
1.58467e-05
-4.71155e-11
1.58467e-05
-4.57198e-11
-3.55747e-11
1.83129e-05
-1.82014e-11
1.8313e-05
-4.59581e-12
1.8313e-05
7.50786e-12
1.8313e-05
1.63838e-11
1.8313e-05
2.19036e-11
1.8313e-05
2.4697e-11
1.8313e-05
2.52625e-11
1.8313e-05
2.40757e-11
1.8313e-05
2.15158e-11
1.8313e-05
1.78478e-11
1.8313e-05
1.32528e-11
1.8313e-05
7.82525e-12
1.8313e-05
1.61524e-12
1.8313e-05
-5.25927e-12
1.8313e-05
-1.2601e-11
1.8313e-05
-2.00568e-11
1.8313e-05
-2.68939e-11
1.8313e-05
-3.19442e-11
1.8313e-05
-3.34122e-11
-2.89228e-11
2.079e-05
-1.56561e-11
2.079e-05
-9.73141e-12
2.079e-05
-3.35511e-12
2.079e-05
2.17336e-12
2.07901e-05
6.30933e-12
2.07901e-05
9.21466e-12
2.07901e-05
1.10199e-11
2.07901e-05
1.1894e-11
2.07901e-05
1.19882e-11
2.07901e-05
1.14118e-11
2.07901e-05
1.02377e-11
2.07901e-05
8.48047e-12
2.07901e-05
6.12844e-12
2.07901e-05
3.19074e-12
2.07901e-05
-3.49673e-13
2.07901e-05
-4.49512e-12
2.07901e-05
-9.03582e-12
2.079e-05
-1.35584e-11
2.079e-05
-1.73632e-11
-1.85034e-11
2.32784e-05
-1.04311e-11
2.32784e-05
-1.26847e-11
2.32784e-05
-1.27676e-11
2.32784e-05
-1.14971e-11
2.32785e-05
-9.55896e-12
2.32785e-05
-7.20151e-12
2.32785e-05
-4.63709e-12
2.32785e-05
-2.00449e-12
2.32785e-05
6.07824e-13
2.32785e-05
3.12669e-12
2.32785e-05
5.49067e-12
2.32785e-05
7.61111e-12
2.32785e-05
9.40016e-12
2.32785e-05
1.07579e-11
2.32785e-05
1.14575e-11
2.32785e-05
1.11585e-11
2.32785e-05
9.54261e-12
2.32784e-05
6.23692e-12
2.32784e-05
8.47463e-13
-5.45412e-12
2.57784e-05
-3.35365e-12
2.57784e-05
-1.35757e-11
2.57784e-05
-2.02297e-11
2.57784e-05
-2.35786e-11
2.57785e-05
-2.43028e-11
2.57785e-05
-2.29769e-11
2.57785e-05
-2.011e-11
2.57785e-05
-1.61207e-11
2.57785e-05
-1.13368e-11
2.57785e-05
-6.00907e-12
2.57785e-05
-3.43587e-13
2.57785e-05
5.46358e-12
2.57785e-05
1.12485e-11
2.57785e-05
1.68207e-11
2.57785e-05
2.17825e-11
2.57785e-05
2.55e-11
2.57785e-05
2.7168e-11
2.57785e-05
2.56349e-11
2.57784e-05
1.94722e-11
8.84792e-12
2.82901e-05
4.55475e-12
2.82901e-05
-1.27804e-11
2.82901e-05
-2.55151e-11
2.82901e-05
-3.32848e-11
2.82901e-05
-3.67326e-11
2.82901e-05
-3.66772e-11
2.82901e-05
-3.3867e-11
2.82901e-05
-2.89605e-11
2.82901e-05
-2.24947e-11
2.82901e-05
-1.48831e-11
2.82902e-05
-6.4613e-12
2.82902e-05
2.48103e-12
2.82902e-05
1.1719e-11
2.82902e-05
2.10016e-11
2.82901e-05
2.9819e-11
2.82901e-05
3.7318e-11
2.82901e-05
4.22908e-11
2.82901e-05
4.28793e-11
2.82901e-05
3.67117e-11
2.28818e-11
3.0813e-05
1.21763e-11
3.0813e-05
-1.08551e-11
3.0813e-05
-2.86013e-11
3.0813e-05
-4.00636e-11
3.0813e-05
-4.58773e-11
3.0813e-05
-4.70481e-11
3.08131e-05
-4.45103e-11
3.08131e-05
-3.91091e-11
3.08131e-05
-3.15457e-11
3.08131e-05
-2.23599e-11
3.08131e-05
-1.19832e-11
3.08131e-05
-7.68429e-13
3.08131e-05
1.1026e-11
3.08131e-05
2.31264e-11
3.08131e-05
3.49786e-11
3.08131e-05
4.56094e-11
3.08131e-05
5.35359e-11
3.08131e-05
5.63434e-11
3.0813e-05
5.08423e-11
3.50838e-11
3.33467e-05
1.83726e-11
3.33467e-05
-8.43786e-12
3.33467e-05
-2.95977e-11
3.33467e-05
-4.35428e-11
3.33467e-05
-5.09724e-11
3.33468e-05
-5.30506e-11
3.33468e-05
-5.0851e-11
3.33468e-05
-4.53406e-11
3.33468e-05
-3.73209e-11
3.33468e-05
-2.74024e-11
3.33468e-05
-1.60646e-11
3.33468e-05
-3.68248e-12
3.33468e-05
9.48593e-12
3.33468e-05
2.31858e-11
3.33468e-05
3.68906e-11
3.33468e-05
4.96233e-11
3.33468e-05
5.9787e-11
3.33468e-05
6.46333e-11
3.33468e-05
6.03231e-11
4.39613e-11
3.58904e-05
2.20954e-11
3.58904e-05
-6.12553e-12
3.58904e-05
-2.86516e-11
3.58904e-05
-4.34693e-11
3.58904e-05
-5.14568e-11
3.58904e-05
-5.39182e-11
3.58904e-05
-5.20107e-11
3.58904e-05
-4.67463e-11
3.58904e-05
-3.89426e-11
3.58904e-05
-2.92091e-11
3.58904e-05
-1.80161e-11
3.58904e-05
-5.72061e-12
3.58904e-05
7.45294e-12
3.58904e-05
2.1308e-11
3.58904e-05
3.54161e-11
3.58904e-05
4.89163e-11
3.58904e-05
6.0278e-11
3.58904e-05
6.66865e-11
3.58904e-05
6.38855e-11
4.82275e-11
3.84429e-05
2.25369e-11
3.84429e-05
-4.34427e-12
3.84429e-05
-2.58369e-11
3.84429e-05
-3.96589e-11
3.84429e-05
-4.69857e-11
3.84429e-05
-4.92363e-11
3.84429e-05
-4.75549e-11
3.84429e-05
-4.28964e-11
3.84429e-05
-3.59918e-11
3.84429e-05
-2.73694e-11
3.84429e-05
-1.74391e-11
3.84429e-05
-6.51155e-12
3.84429e-05
5.24613e-12
3.84429e-05
1.77336e-11
3.84429e-05
3.06766e-11
3.84429e-05
4.34237e-11
3.84429e-05
5.46879e-11
3.84429e-05
6.18883e-11
3.84429e-05
6.06421e-11
4.69893e-11
4.1003e-05
1.94415e-11
4.1003e-05
-3.17466e-12
4.1003e-05
-2.10803e-11
4.10029e-05
-3.20654e-11
4.10029e-05
-3.76043e-11
4.10029e-05
-3.91481e-11
4.10029e-05
-3.7701e-11
4.10029e-05
-3.40394e-11
4.10029e-05
-2.86936e-11
4.10029e-05
-2.20277e-11
4.10029e-05
-1.43557e-11
4.10029e-05
-5.94353e-12
4.10029e-05
3.10875e-12
4.10029e-05
1.28408e-11
4.10029e-05
2.31558e-11
4.10029e-05
3.36062e-11
4.10029e-05
4.32839e-11
4.10029e-05
5.02264e-11
4.10029e-05
5.03468e-11
3.98231e-11
4.35691e-05
1.32801e-11
4.35691e-05
-2.28181e-12
4.35691e-05
-1.41949e-11
4.35691e-05
-2.0985e-11
4.35691e-05
-2.40795e-11
4.35691e-05
-2.47374e-11
4.3569e-05
-2.36701e-11
4.3569e-05
-2.13736e-11
4.3569e-05
-1.81168e-11
4.3569e-05
-1.40428e-11
4.3569e-05
-9.32529e-12
4.3569e-05
-4.17533e-12
4.3569e-05
1.3326e-12
4.3569e-05
7.30319e-12
4.3569e-05
1.37897e-11
4.3569e-05
2.06243e-11
4.3569e-05
2.7345e-11
4.35691e-05
3.26523e-11
4.35691e-05
3.36153e-11
2.70397e-11
4.61397e-05
5.2961e-12
4.61397e-05
-1.15749e-12
4.61397e-05
-5.77649e-12
4.61397e-05
-8.15769e-12
4.61396e-05
-8.99777e-12
4.61396e-05
-9.02268e-12
4.61396e-05
-8.55125e-12
4.61396e-05
-7.77353e-12
4.61396e-05
-6.69563e-12
4.61396e-05
-5.24779e-12
4.61396e-05
-3.50287e-12
4.61396e-05
-1.67263e-12
4.61396e-05
1.94182e-13
4.61396e-05
2.29323e-12
4.61396e-05
4.69607e-12
4.61396e-05
7.26622e-12
4.61396e-05
9.97733e-12
4.61396e-05
1.24602e-11
4.61397e-05
1.34139e-11
1.09586e-11
4.87129e-05
4.87129e-05
4.87129e-05
4.87129e-05
4.87129e-05
4.87129e-05
4.87129e-05
4.87129e-05
4.87129e-05
4.87129e-05
4.87129e-05
4.87129e-05
4.87129e-05
4.87129e-05
4.87129e-05
4.87129e-05
4.87129e-05
4.87129e-05
4.87129e-05
)
;

boundaryField
{
    movingWall
    {
        type            calculated;
        value           uniform 0;
    }
    fixedWalls
    {
        type            calculated;
        value           uniform 0;
    }
    left
    {
        type            cyclic;
        value           nonuniform List<scalar> 
20
(
-3.84429e-05
-3.58904e-05
-3.33467e-05
-3.0813e-05
-2.82901e-05
-2.57784e-05
-2.32784e-05
-2.079e-05
-1.83129e-05
-1.58466e-05
-1.33903e-05
-1.09428e-05
-8.50287e-06
-6.06903e-06
-3.63964e-06
-1.21293e-06
-4.1003e-05
-4.35691e-05
-4.61397e-05
-4.87129e-05
)
;
    }
    right
    {
        type            cyclic;
        value           nonuniform List<scalar> 
20
(
3.84429e-05
3.58904e-05
3.33467e-05
3.0813e-05
2.82901e-05
2.57784e-05
2.32784e-05
2.079e-05
1.83129e-05
1.58466e-05
1.33903e-05
1.09428e-05
8.50287e-06
6.06903e-06
3.63964e-06
1.21293e-06
4.1003e-05
4.35691e-05
4.61397e-05
4.87129e-05
)
;
    }
    frontAndBack
    {
        type            empty;
        value           nonuniform List<scalar> 0();
    }
}


// ************************************************************************* //
