/*--------------------------------*- C++ -*----------------------------------*\
  =========                 |
  \\      /  F ield         | OpenFOAM: The Open Source CFD Toolbox
   \\    /   O peration     | Website:  https://openfoam.org
    \\  /    A nd           | Version:  8
     \\/     M anipulation  |
\*---------------------------------------------------------------------------*/
FoamFile
{
    version     2.0;
    format      ascii;
    class       surfaceScalarField;
    location    "11";
    object      phi;
}
// * * * * * * * * * * * * * * * * * * * * * * * * * * * * * * * * * * * * * //

dimensions      [0 3 -1 0 0 0 0];

internalField   nonuniform List<scalar> 
760
(
0.0004
-4.30863e-10
0.000400001
-2.10178e-09
0.000400002
-4.91792e-09
0.000400004
-8.80679e-09
0.000400007
-1.36183e-08
0.00040001
-1.91196e-08
0.000400013
-2.49347e-08
0.000400017
-3.04286e-08
0.000400022
-3.48823e-08
0.000400028
-3.76009e-08
0.000400035
-3.73906e-08
0.000400043
-3.4169e-08
0.000400053
-2.71529e-08
0.000400064
-1.62007e-08
0.000400077
-1.20064e-09
0.000400091
1.76538e-08
0.000400107
4.03688e-08
0.000400123
6.62618e-08
0.000400139
9.6818e-08
1.34928e-07
0.0004
-6.78923e-10
0.000400001
-2.81901e-09
0.000400002
-6.14193e-09
0.000400004
-1.04981e-08
0.000400006
-1.57742e-08
0.000400009
-2.17756e-08
0.000400012
-2.81499e-08
0.000400016
-3.43194e-08
0.000400021
-3.95874e-08
0.000400026
-4.32272e-08
0.000400033
-4.43864e-08
0.000400042
-4.2561e-08
0.000400052
-3.72107e-08
0.000400063
-2.80498e-08
0.000400077
-1.49462e-08
0.000400093
1.99698e-09
0.00040011
2.28581e-08
0.00040013
4.70745e-08
0.00040015
7.62304e-08
1.12203e-07
0.0004
-8.41966e-10
0.000400001
-3.3472e-09
0.000400002
-7.10706e-09
0.000400003
-1.18849e-08
0.000400005
-1.75812e-08
0.000400007
-2.40422e-08
0.00040001
-3.0955e-08
0.000400013
-3.78068e-08
0.000400018
-4.39563e-08
0.000400023
-4.87205e-08
0.00040003
-5.13584e-08
0.000400039
-5.1288e-08
0.00040005
-4.80184e-08
0.000400063
-4.12245e-08
0.000400079
-3.07299e-08
0.000400097
-1.65722e-08
0.000400119
1.38046e-09
0.000400143
2.25465e-08
0.000400171
4.85032e-08
7.95918e-08
0.0004
-9.37972e-10
0.0004
-3.70041e-09
0.000400001
-7.80062e-09
0.000400002
-1.29199e-08
0.000400004
-1.89674e-08
0.000400005
-2.58358e-08
0.000400008
-3.32655e-08
0.000400011
-4.08235e-08
0.000400015
-4.79534e-08
0.00040002
-5.404e-08
0.000400027
-5.84337e-08
0.000400036
-6.05702e-08
0.000400048
-5.99693e-08
0.000400063
-5.62992e-08
0.000400082
-4.93463e-08
0.000400105
-3.90831e-08
0.000400131
-2.53419e-08
0.000400162
-8.70295e-09
0.000400199
1.23539e-08
3.70531e-08
0.0004
-9.9445e-10
0.0004
-3.92216e-09
0.000400001
-8.25297e-09
0.000400001
-1.3614e-08
0.000400002
-1.99277e-08
0.000400004
-2.71391e-08
0.000400005
-3.50581e-08
0.000400008
-4.33489e-08
0.000400012
-5.15611e-08
0.000400017
-5.91782e-08
0.000400024
-6.56516e-08
0.000400034
-7.04689e-08
0.000400047
-7.31783e-08
0.000400064
-7.34449e-08
0.000400086
-7.10258e-08
0.000400113
-6.58201e-08
0.000400145
-5.76143e-08
0.000400183
-4.69195e-08
0.000400228
-3.22946e-08
-1.52799e-08
0.0004
-1.02504e-09
0.0004
-4.04799e-09
0.0004
-8.50501e-09
0.000400001
-1.40053e-08
0.000400001
-2.04942e-08
0.000400002
-2.79777e-08
0.000400003
-3.63503e-08
0.000400006
-4.53901e-08
0.000400009
-5.47749e-08
0.000400014
-6.41133e-08
0.000400021
-7.29736e-08
0.000400031
-8.09232e-08
0.000400046
-8.75545e-08
0.000400065
-9.25328e-08
0.000400089
-9.55849e-08
0.00040012
-9.65291e-08
0.000400158
-9.50868e-08
0.000400202
-9.16205e-08
0.000400255
-8.47855e-08
-7.65982e-08
0.0004
-1.03734e-09
0.0004
-4.1026e-09
0.0004
-8.59533e-09
0.0004
-1.41393e-08
0.000400001
-2.07168e-08
0.000400001
-2.8401e-08
0.000400002
-3.71841e-08
0.000400003
-4.69742e-08
0.000400006
-5.75974e-08
0.000400011
-6.88098e-08
0.000400018
-8.03127e-08
0.000400029
-9.17739e-08
0.000400044
-1.02847e-07
0.000400065
-1.13201e-07
0.000400092
-1.22526e-07
0.000400126
-1.30553e-07
0.000400168
-1.36917e-07
0.000400218
-1.41758e-07
0.000400277
-1.4384e-07
-1.45426e-07
0.0004
-1.03608e-09
0.0004
-4.10258e-09
0.0004
-8.55611e-09
0.0004
-1.40612e-08
0.0004
-2.06503e-08
0.0004
-2.84679e-08
0.0004
-3.76148e-08
0.000400001
-4.81416e-08
0.000400004
-6.00381e-08
0.000400008
-7.32257e-08
0.000400016
-8.75533e-08
0.000400027
-1.02804e-07
0.000400042
-1.18706e-07
0.000400064
-1.34936e-07
0.000400093
-1.51142e-07
0.000400129
-1.66961e-07
0.000400174
-1.81927e-07
0.000400228
-1.95897e-07
0.000400292
-2.07745e-07
-2.19832e-07
0.0004
-1.02338e-09
0.0004
-4.05845e-09
0.0004
-8.41272e-09
0.0004
-1.38124e-08
0.000399999
-2.03481e-08
0.000399999
-2.82396e-08
0.000399999
-3.77027e-08
0.0004
-4.89384e-08
0.000400002
-6.21104e-08
0.000400006
-7.73173e-08
0.000400013
-9.45669e-08
0.000400024
-1.13766e-07
0.00040004
-1.34727e-07
0.000400062
-1.57142e-07
0.000400092
-1.80613e-07
0.000400129
-2.04671e-07
0.000400176
-2.28747e-07
0.000400233
-2.52377e-07
0.0004003
-2.74535e-07
-2.97607e-07
0.0004
-1.00064e-09
0.0004
-3.97598e-09
0.0004
-8.18495e-09
0.000399999
-1.34288e-08
0.000399999
-1.9859e-08
0.000399998
-2.77732e-08
0.000399998
-3.75052e-08
0.000399999
-4.94092e-08
0.0004
-6.38265e-08
0.000400004
-8.10387e-08
0.000400011
-1.01218e-07
0.000400021
-1.24401e-07
0.000400037
-1.50487e-07
0.000400059
-1.79189e-07
0.000400089
-2.10066e-07
0.000400126
-2.42538e-07
0.000400174
-2.75928e-07
0.000400231
-3.0944e-07
0.000400298
-3.42133e-07
-3.76403e-07
0.0004
-9.69472e-10
0.0004
-3.85755e-09
0.0004
-7.88774e-09
0.000399999
-1.29391e-08
0.000399998
-1.92242e-08
0.000399998
-2.71179e-08
0.000399997
-3.70717e-08
0.000399998
-4.95905e-08
0.000399999
-6.51914e-08
0.000400002
-8.43375e-08
0.000400008
-1.07367e-07
0.000400018
-1.34445e-07
0.000400033
-1.65558e-07
0.000400055
-2.00446e-07
0.000400083
-2.38627e-07
0.00040012
-2.79412e-07
0.000400166
-3.22017e-07
0.000400222
-3.65324e-07
0.000400288
-4.08459e-07
-4.53854e-07
0.0004
-9.30662e-10
0.0004
-3.70431e-09
0.000399999
-7.53204e-09
0.000399999
-1.23653e-08
0.000399998
-1.84753e-08
0.000399997
-2.63118e-08
0.000399997
-3.64385e-08
0.000399997
-4.95053e-08
0.000399998
-6.61971e-08
0.0004
-8.71507e-08
0.000400006
-1.12864e-07
0.000400015
-1.4363e-07
0.000400029
-1.79518e-07
0.000400049
-2.20295e-07
0.000400076
-2.65447e-07
0.000400111
-3.14182e-07
0.000400154
-3.65615e-07
0.000400207
-4.18335e-07
0.00040027
-4.71511e-07
-5.27685e-07
0.0004
-8.83978e-10
0.0004
-3.51707e-09
0.000399999
-7.12467e-09
0.000399999
-1.17216e-08
0.000399998
-1.76333e-08
0.000399997
-2.53788e-08
0.000399996
-3.56263e-08
0.000399996
-4.91604e-08
0.000399996
-6.68207e-08
0.000399999
-8.94047e-08
0.000400003
-1.1756e-07
0.000400011
-1.51697e-07
0.000400024
-1.91967e-07
0.000400042
-2.38159e-07
0.000400066
-2.89739e-07
0.000400098
-3.45824e-07
0.000400137
-4.05434e-07
0.000400186
-4.66915e-07
0.000400244
-5.29451e-07
-5.95816e-07
0.0004
-8.29242e-10
0.0004
-3.29532e-09
0.000399999
-6.66705e-09
0.000399999
-1.10134e-08
0.000399998
-1.67066e-08
0.000399997
-2.43283e-08
0.000399996
-3.46403e-08
0.000399995
-4.85478e-08
0.000399995
-6.70285e-08
0.000399997
-9.10233e-08
0.000400001
-1.21313e-07
0.000400007
-1.58415e-07
0.000400018
-2.02553e-07
0.000400033
-2.53541e-07
0.000400054
-3.10827e-07
0.000400082
-3.73458e-07
0.000400117
-4.4037e-07
0.00040016
-5.09723e-07
0.000400211
-5.80698e-07
-6.56466e-07
0.0004
-7.66418e-10
0.0004
-3.03559e-09
0.000399999
-6.15373e-09
0.000399998
-1.02357e-08
0.000399997
-1.56916e-08
0.000399996
-2.31572e-08
0.000399995
-3.34749e-08
0.000399994
-4.76533e-08
0.000399994
-6.67891e-08
0.000399995
-9.1946e-08
0.000399998
-1.24017e-07
0.000400003
-1.63614e-07
0.000400011
-2.11022e-07
0.000400024
-2.66079e-07
0.000400041
-3.28216e-07
0.000400064
-3.96439e-07
0.000400093
-4.69606e-07
0.000400129
-5.45755e-07
0.000400173
-6.24047e-07
-7.08278e-07
0.0004
-6.9376e-10
0.0004
-2.72975e-09
0.000399999
-5.57143e-09
0.000399998
-9.37373e-09
0.000399997
-1.45754e-08
0.000399996
-2.1856e-08
0.000399994
-3.21228e-08
0.000399993
-4.64702e-08
0.000399993
-6.60933e-08
0.000399993
-9.21557e-08
0.000399994
-1.25641e-07
0.000399998
-1.67233e-07
0.000400004
-2.1727e-07
0.000400014
-2.75618e-07
0.000400027
-3.41686e-07
0.000400045
-4.14451e-07
0.000400068
-4.92726e-07
0.000400097
-5.74472e-07
0.000400132
-6.58808e-07
-7.50442e-07
0.0004
-6.03645e-10
0.0004
-2.36287e-09
0.000399999
-4.90022e-09
0.000399998
-8.40818e-09
0.000399997
-1.3345e-08
0.000399995
-2.0421e-08
0.000399994
-3.05915e-08
0.000399992
-4.50188e-08
0.000399991
-6.49769e-08
0.000399991
-9.17071e-08
0.000399991
-1.26258e-07
0.000399993
-1.69364e-07
0.000399998
-2.21403e-07
0.000400004
-2.8228e-07
0.000400014
-3.51372e-07
0.000400027
-4.27618e-07
0.000400044
-5.09822e-07
0.000400066
-5.95931e-07
0.000400092
-6.84949e-07
-7.82831e-07
0.0004
-4.78145e-10
0.000399999
-1.91326e-09
0.000399999
-4.11893e-09
0.000399998
-7.32631e-09
0.000399996
-1.20011e-08
0.000399995
-1.88691e-08
0.000399993
-2.89168e-08
0.000399991
-4.33599e-08
0.00039999
-6.3536e-08
0.000399989
-9.07421e-08
0.000399989
-1.26067e-07
0.00039999
-1.70279e-07
0.000399992
-2.23777e-07
0.000399996
-2.86497e-07
0.000400003
-3.57807e-07
0.000400012
-4.36588e-07
0.000400023
-5.21605e-07
0.000400038
-6.10852e-07
0.000400057
-7.03162e-07
-8.06e-07
0.0004
-3.21244e-10
0.000399999
-1.40098e-09
0.000399998
-3.2471e-09
0.000399997
-6.1531e-09
0.000399996
-1.05808e-08
0.000399994
-1.72551e-08
0.000399993
-2.71669e-08
0.000399991
-4.15752e-08
0.000399989
-6.18921e-08
0.000399988
-8.94626e-08
0.000399987
-1.25364e-07
0.000399987
-1.70371e-07
0.000399988
-2.24939e-07
0.000399991
-2.89019e-07
0.000399995
-3.6194e-07
0.000400001
-4.42519e-07
0.000400009
-5.29492e-07
0.000400019
-6.20809e-07
0.000400031
-7.15092e-07
-8.2087e-07
0.0004
0.000399999
0.000399998
0.000399997
0.000399996
0.000399994
0.000399992
0.00039999
0.000399989
0.000399987
0.000399986
0.000399986
0.000399987
0.000399988
0.000399991
0.000399996
0.000400002
0.000400009
0.000400017
)
;

boundaryField
{
    inlet
    {
        type            calculated;
        value           nonuniform List<scalar> 
20
(
-0.0004
-0.0004
-0.0004
-0.0004
-0.0004
-0.0004
-0.0004
-0.0004
-0.0004
-0.0004
-0.0004
-0.0004
-0.0004
-0.0004
-0.0004
-0.0004
-0.0004
-0.0004
-0.0004
-0.0004
)
;
    }
    outlet
    {
        type            calculated;
        value           nonuniform List<scalar> 
20
(
0.000400155
0.000400173
0.000400204
0.000400241
0.00040028
0.000400316
0.000400346
0.000400367
0.000400377
0.000400377
0.000400366
0.000400344
0.000400312
0.000400272
0.000400225
0.000400174
0.000400124
0.00040008
0.000400046
0.000400027
)
;
    }
    up
    {
        type            calculated;
        value           nonuniform List<scalar> 
20
(
-7.88851e-11
-7.97071e-10
-2.3508e-09
-4.96798e-09
-9.13596e-09
-1.56074e-08
-2.53987e-08
-3.97843e-08
-6.0197e-08
-8.80346e-08
-1.24432e-07
-1.70138e-07
-2.25551e-07
-2.90702e-07
-3.64951e-07
-4.4699e-07
-5.35387e-07
-6.2831e-07
-7.23253e-07
-8.3027e-07
)
;
    }
    down
    {
        type            calculated;
        value           nonuniform List<scalar> 
20
(
1.11057e-10
1.25786e-09
3.58478e-09
6.97003e-09
1.12724e-08
1.62389e-08
2.14951e-08
2.62578e-08
2.98826e-08
3.19371e-08
3.04569e-08
2.5821e-08
1.73823e-08
4.92178e-09
-1.1597e-08
-3.19219e-08
-5.58474e-08
-8.28336e-08
-1.12917e-07
-1.5047e-07
)
;
    }
    frontAndBack
    {
        type            empty;
        value           nonuniform List<scalar> 0();
    }
}


// ************************************************************************* //
