0 	-1.86304e-07
1.57135 	-1.9497e-06
3.1427 	-8.26517e-06
4.71405 	-2.64588e-05
6.28539 	-6.96535e-05
7.85674 	-0.000174177
9.42809 	-0.000494232
10.9994 	-0.00203568
12.5708 	-0.00848674
14.1421 	0.237911
