/*--------------------------------*- C++ -*----------------------------------*\
  =========                 |
  \\      /  F ield         | OpenFOAM: The Open Source CFD Toolbox
   \\    /   O peration     | Website:  https://openfoam.org
    \\  /    A nd           | Version:  8
     \\/     M anipulation  |
\*---------------------------------------------------------------------------*/
FoamFile
{
    version     2.0;
    format      ascii;
    class       volScalarField;
    location    "1";
    object      T;
}
// * * * * * * * * * * * * * * * * * * * * * * * * * * * * * * * * * * * * * //

dimensions      [0 0 0 1 0 0 0];

internalField   nonuniform List<scalar> 
10000
(
49.9325
4.6793
-4.65361
-1.20506
1.24567
0.346311
-0.30726
-0.358472
0.37769
-0.0378605
0.032092
-0.186409
0.154983
0.00993603
-0.0397628
-0.0099579
-0.0142488
0.087171
-0.0750234
0.0140132
-0.00413811
0.0232664
0.00624626
-0.0474262
0.0337345
-0.00237973
0.00920972
-0.0162546
-0.0131371
0.0309506
-0.00907586
-0.00325115
-0.0101693
0.00391287
0.0196668
-0.0144134
-0.00567494
0.00038446
0.00737819
0.00879534
-0.0148168
-0.00341898
0.00711538
0.00509575
0.00136793
-0.0118339
-0.000885871
0.00958086
0.00224232
-0.00299257
-0.00794517
0.000662952
0.00931918
0.000795268
-0.00531124
-0.00495685
0.00160576
0.00777184
0.000700192
-0.00610049
-0.00366776
0.00226855
0.0061621
0.00109257
-0.0055902
-0.00375515
0.00225021
0.00530385
0.00151249
-0.00439675
-0.00411985
0.00112263
0.00486947
0.00239803
-0.00318064
-0.00414907
-0.000462313
0.00365037
0.00374346
-0.00141151
-0.00420057
-0.00162756
0.00167943
0.00385184
0.0015417
-0.00346856
-0.00301726
0.000297862
0.00212991
0.00325671
-6.30122e-05
-0.0039851
-0.00154531
0.0010595
0.00175967
0.00281892
-0.000724764
-0.00388755
-0.00058216
0.00108728
95.4645
49.9165
10.521
-4.6629
-2.8385
1.25493
0.95737
-0.275424
-0.747176
0.419178
0.0911423
0.0707219
-0.346148
0.165571
0.0854563
-0.0453362
-0.0570991
-0.045065
0.156275
-0.0826981
-0.0166641
-0.0169679
0.0475305
0.0329328
-0.0854693
0.0260021
0.0122466
0.0278468
-0.0240322
-0.0418705
0.0453582
0.0076761
-0.00381727
-0.0268928
-0.00605673
0.0414715
-0.00712314
-0.0182888
-0.0110534
0.0108477
0.0274149
-0.0167319
-0.0192612
0.00382095
0.014798
0.0131583
-0.018835
-0.015143
0.0120634
0.0137645
0.00257837
-0.0167044
-0.0105103
0.014304
0.0123593
-0.00364378
-0.0140558
-0.00664774
0.012944
0.0116562
-0.00565868
-0.0128382
-0.00413578
0.0105987
0.010924
-0.0042186
-0.0125057
-0.00403131
0.00885572
0.00996518
-0.00130235
-0.0109779
-0.0064372
0.00673006
0.00992685
0.0011657
-0.00768125
-0.00857768
0.00189036
0.0103186
0.00409678
-0.0046658
-0.007612
-0.00399011
0.00679712
0.00858458
-0.00142354
-0.005853
-0.00546683
-0.000965221
0.00844654
0.00564234
-0.00433063
-0.00469939
-0.0038121
-3.5705e-05
0.00857725
0.00371222
-0.00527169
-0.00303668
104.528
89.6299
49.9302
12.1353
-4.63571
-3.49624
1.2846
1.28364
-0.250941
-0.931572
0.426693
0.225015
0.0684451
-0.410016
0.145789
0.168508
-0.052187
-0.0939633
-0.0583148
0.194539
-0.0634668
-0.0589227
-0.0204378
0.0641
0.0559479
-0.106438
0.00301985
0.0326458
0.0416736
-0.0260019
-0.0662951
0.0464514
0.0314435
-0.00412066
-0.0402036
-0.0185274
0.0549874
0.00904782
-0.0294907
-0.0240759
0.0106235
0.0429189
-0.00976259
-0.0348466
-0.00459246
0.022306
0.0256897
-0.0186021
-0.0305683
0.00791479
0.0249016
0.0113731
-0.0204015
-0.0238108
0.0125315
0.0245768
0.00272766
-0.0197785
-0.0175786
0.011825
0.0234343
0.000236978
-0.0193747
-0.0133864
0.00915571
0.021055
0.00287428
-0.0185425
-0.0128026
0.00680416
0.0173872
0.00741519
-0.014348
-0.015781
0.00368284
0.0144395
0.00988325
-0.00606669
-0.0174828
-0.00375619
0.0127274
0.010597
0.00120844
-0.0117477
-0.0130037
0.00599684
0.013235
0.00435654
-0.00294071
-0.0123516
-0.00796146
0.0107858
0.0102362
0.00024804
-0.00328707
-0.0114463
-0.00532017
0.0122424
0.00736875
-0.0015363
101.332
104.5
88.0185
49.9119
12.7674
-4.6299
-3.8739
1.31587
1.40588
-0.202736
-1.11555
0.463434
0.270581
0.0866192
-0.476557
0.123688
0.240772
-0.0737787
-0.106061
-0.0916361
0.238224
-0.0488543
-0.0961476
-0.0207637
0.067099
0.0897561
-0.12882
-0.0190227
0.049271
0.0522391
-0.0175103
-0.0947568
0.0442667
0.054243
-0.00194519
-0.047389
-0.0376783
0.0652464
0.0286806
-0.0373159
-0.0359212
0.00344671
0.0572987
0.00328134
-0.0485025
-0.0155016
0.0243352
0.0393206
-0.0117129
-0.0457833
-0.000851372
0.0324091
0.022882
-0.0179722
-0.0380666
0.00520266
0.0344575
0.0127669
-0.0200239
-0.0300186
0.00486044
0.0334213
0.010055
-0.0206483
-0.023985
0.00164069
0.0293598
0.0135701
-0.0193631
-0.0216633
-0.00152571
0.0220542
0.0193506
-0.0129336
-0.0232465
-0.0045662
0.0139238
0.0209924
0.000146627
-0.023435
-0.0114
0.00844387
0.0161508
0.0121616
-0.0125174
-0.0212072
0.000866316
0.0121736
0.0126876
0.00531287
-0.0175611
-0.015381
0.00790896
0.010518
0.00929682
0.00280052
-0.0185389
-0.0112814
0.0105755
0.00734136
98.6594
102.97
104.505
87.3892
49.9251
13.1141
-4.6092
-4.05651
1.34025
1.52045
-0.174497
-1.21115
0.478164
0.328026
0.0963694
-0.519589
0.105539
0.296594
-0.078582
-0.125956
-0.11374
0.26807
-0.0280854
-0.127533
-0.0285578
0.0729711
0.117955
-0.140946
-0.0448942
0.0602844
0.0662436
-0.00834897
-0.118111
0.0344372
0.0752901
0.00601958
-0.0535608
-0.0572385
0.0687686
0.050296
-0.0386776
-0.0491445
-0.00717128
0.0679569
0.0204848
-0.0565941
-0.0301642
0.0219034
0.0524366
9.35401e-06
-0.0569586
-0.0146161
0.0351934
0.0363748
-0.0106875
-0.0498862
-0.00717377
0.0393531
0.0260945
-0.015073
-0.041481
-0.00655154
0.038259
0.0228398
-0.0156727
-0.0343094
-0.0100559
0.032953
0.0254205
-0.0131139
-0.0290054
-0.0145837
0.0226179
0.0306204
-0.00567365
-0.0259864
-0.017107
0.00834714
0.0309404
0.00920721
-0.0227611
-0.0191332
-0.00273785
0.0191857
0.0243829
-0.00885873
-0.0241938
-0.00821833
0.00438581
0.0211219
0.0158529
-0.0180071
-0.0191373
-0.0010011
0.00508264
0.0200218
0.0112191
-0.0209434
-0.0141864
0.00211992
99.7399
98.619
103.624
104.473
87.0417
49.9169
13.2627
-4.58774
-4.23346
1.38007
1.54672
-0.12892
-1.3162
0.496517
0.366534
0.0970332
-0.54248
0.0683312
0.361109
-0.0929795
-0.135934
-0.136943
0.287518
0.00427331
-0.164272
-0.0312572
0.0717444
0.14615
-0.143478
-0.077917
0.072128
0.0768138
0.00546116
-0.136732
0.015637
0.0973408
0.0154641
-0.0558031
-0.07652
0.0637908
0.0748928
-0.0356033
-0.0615732
-0.0201519
0.0723519
0.0421381
-0.0591477
-0.0471825
0.0158511
0.0622269
0.0164643
-0.0624927
-0.0326627
0.0334318
0.0493833
0.000936961
-0.0565653
-0.0240797
0.0384348
0.0409245
-0.00581345
-0.0489161
-0.0212794
0.0359897
0.0372352
-0.00528424
-0.0419081
-0.023523
0.0293775
0.0364658
2.47557e-05
-0.0334969
-0.0290596
0.0178499
0.0376233
0.00747676
-0.022963
-0.031299
-0.000850693
0.0356211
0.0190869
-0.0136472
-0.025373
-0.0181511
0.0185358
0.0329709
-0.000518921
-0.0194085
-0.0195864
-0.00807478
0.0265313
0.0241773
-0.0117652
-0.0165634
-0.0142905
-0.00453945
0.0281971
0.0178423
-0.0159181
-0.0113647
100.26
99.1279
98.6203
104
104.472
86.8902
49.9222
13.3989
-4.56856
-4.32868
1.41013
1.58173
-0.0893756
-1.39514
0.513835
0.397162
0.104649
-0.565258
0.0357057
0.415905
-0.101638
-0.144492
-0.161849
0.303778
0.0374259
-0.195815
-0.0373248
0.0677706
0.174251
-0.140649
-0.111572
0.0790949
0.0871503
0.0226074
-0.151596
-0.00827272
0.116181
0.0280649
-0.0543544
-0.0954669
0.0522223
0.0991418
-0.0271194
-0.0721208
-0.0355209
0.0708622
0.0658204
-0.0553433
-0.0646558
0.0058231
0.0678134
0.0362085
-0.0614336
-0.0529265
0.0266811
0.0600279
0.0161327
-0.0566814
-0.0437869
0.0314052
0.0548683
0.00689388
-0.0501375
-0.0378577
0.026213
0.0511159
0.00885344
-0.0442751
-0.036597
0.0176626
0.0451159
0.0179327
-0.0338041
-0.0412365
0.0070059
0.0382323
0.0250528
-0.0148199
-0.0433155
-0.0117738
0.0318917
0.0282027
0.00298722
-0.0289346
-0.0332837
0.0133943
0.0340914
0.0119092
-0.00733141
-0.0306732
-0.0211118
0.02614
0.0267004
0.00120389
-0.00798284
-0.0285921
-0.014613
0.0301274
0.0193493
-0.00336976
100.39
100.211
98.7931
98.5786
104.178
104.448
86.7507
49.9246
13.4515
-4.54033
-4.43558
1.44807
1.58949
-0.0495925
-1.46328
0.519601
0.434877
0.100608
-0.572396
-0.00591125
0.470025
-0.105235
-0.156413
-0.18006
0.30849
0.0786282
-0.225955
-0.0464882
0.0644292
0.196969
-0.127765
-0.148279
0.0818752
0.0983276
0.0397739
-0.159125
-0.0384373
0.131349
0.0442544
-0.0508579
-0.111289
0.0334076
0.12145
-0.0126386
-0.0809493
-0.0514966
0.0628473
0.0894611
-0.0443773
-0.0814771
-0.0074615
0.0682311
0.0574306
-0.0530167
-0.0734108
0.0150753
0.0665966
0.0337424
-0.0494943
-0.0641174
0.0186527
0.0653171
0.0220861
-0.0438534
-0.0546196
0.0099338
0.0617894
0.0247163
-0.0392501
-0.0477185
-0.00138627
0.0499823
0.0370814
-0.0283986
-0.0480617
-0.00990385
0.0321406
0.0439602
-0.00305134
-0.0488974
-0.023043
0.0185305
0.0355056
0.0237431
-0.028485
-0.0433667
0.00296102
0.0262525
0.0270075
0.00912581
-0.0381479
-0.0306704
0.0177446
0.0222487
0.0193283
0.00406467
-0.0396932
-0.0217831
0.0231709
0.0151059
99.6259
100.77
100.212
98.6595
98.5687
104.346
104.435
86.6914
49.9253
13.5114
-4.51606
-4.51741
1.48499
1.5899
-0.00557293
-1.53028
0.527075
0.466326
0.0978683
-0.575595
-0.0521553
0.523347
-0.108004
-0.166233
-0.198344
0.306943
0.12453
-0.254322
-0.0567779
0.058702
0.216981
-0.107303
-0.186306
0.0808393
0.108528
0.0581309
-0.160177
-0.0731921
0.142136
0.0626355
-0.0442966
-0.123804
0.008386
0.140349
0.00684495
-0.0865135
-0.0676567
0.0486159
0.111264
-0.0269147
-0.0953494
-0.0237993
0.0629996
0.0785505
-0.0378695
-0.0911526
-0.00122672
0.0675322
0.0528261
-0.0357119
-0.0820239
0.00110266
0.0693893
0.0391673
-0.0302635
-0.0694458
-0.0104751
0.0658312
0.0405655
-0.0256488
-0.0559437
-0.0248056
0.0493198
0.0532434
-0.0156544
-0.0479301
-0.0313344
0.0205117
0.0593392
0.0108996
-0.0442893
-0.0338447
-0.00303635
0.0396058
0.0433142
-0.0220219
-0.0445068
-0.0129915
0.0104281
0.0416003
0.0257738
-0.0376946
-0.0337343
0.000336418
0.0114945
0.0386699
0.0165833
-0.0422628
-0.0239645
0.00584375
100.021
99.5818
100.946
100.17
98.5389
98.5391
104.436
104.418
86.6258
49.9312
13.5438
-4.48673
-4.59496
1.52072
1.59018
0.0334729
-1.58452
0.525319
0.503341
0.0920418
-0.573783
-0.0993095
0.570891
-0.102983
-0.179539
-0.213117
0.298842
0.172724
-0.276964
-0.0719472
0.0536709
0.232611
-0.0802675
-0.222587
0.0732898
0.119523
0.0761128
-0.154832
-0.109811
0.1459
0.0839313
-0.035278
-0.132684
-0.0205304
0.152908
0.0314551
-0.0881123
-0.0837668
0.029915
0.128207
-0.00328112
-0.10419
-0.0432992
0.0531095
0.0969255
-0.016951
-0.102833
-0.0224127
0.0626633
0.0716484
-0.0171096
-0.0935682
-0.0205437
0.0652309
0.0573637
-0.011483
-0.079165
-0.0321696
0.0600134
0.0553115
-0.00454262
-0.0602554
-0.0477463
0.0409537
0.0627864
0.00488347
-0.0411085
-0.0532705
0.00534962
0.0654807
0.0258093
-0.0280516
-0.0431005
-0.0281073
0.0383198
0.0555091
-0.00798156
-0.03493
-0.032347
-0.00971121
0.050361
0.0376172
-0.0257556
-0.0285231
-0.0234884
-0.0032581
0.0521889
0.0258259
-0.0315777
-0.0193088
100.007
99.8765
99.5901
101.112
100.152
98.4965
98.5144
104.531
104.397
86.5859
49.9325
13.5701
-4.45685
-4.6726
1.55901
1.58157
0.0750954
-1.63742
0.51896
0.542491
0.0823486
-0.56561
-0.151373
0.616212
-0.0930987
-0.195214
-0.22414
0.282993
0.224388
-0.295029
-0.0910706
0.0495419
0.242732
-0.04621
-0.256817
0.0594287
0.131311
0.0924439
-0.142357
-0.147197
0.141867
0.10791
-0.0247287
-0.136793
-0.0520025
0.157377
0.0608705
-0.0859084
-0.0985913
0.00805708
0.137759
0.0261443
-0.107158
-0.0649673
0.039781
0.109593
0.00902251
-0.106422
-0.0478576
0.0529904
0.0873966
0.00463473
-0.0955366
-0.0455656
0.0530855
0.0748159
0.00937668
-0.0802817
-0.0529134
0.0431631
0.0681806
0.0203915
-0.0591551
-0.0651617
0.0233881
0.0641659
0.0311007
-0.0295822
-0.0698953
-0.0111849
0.058399
0.0405557
-0.00281813
-0.0492506
-0.0496288
0.0297542
0.0558122
0.01291
-0.0167618
-0.0503533
-0.0280157
0.0482883
0.0404639
-0.00288549
-0.0162159
-0.0468497
-0.0170279
0.0530499
0.0275963
-0.00821765
100.144
99.9762
99.7393
99.5683
101.201
100.124
98.4534
98.4922
104.605
104.38
86.5525
49.9369
13.5942
-4.42632
-4.74265
1.59473
1.57559
0.114782
-1.68433
0.507832
0.583418
0.0727344
-0.555359
-0.204114
0.656624
-0.0771897
-0.212654
-0.233205
0.261992
0.276724
-0.306798
-0.114267
0.0457136
0.248344
-0.00713246
-0.287034
0.0390233
0.143253
0.107295
-0.12365
-0.183454
0.12961
0.13349
-0.0125997
-0.135957
-0.0845329
0.153007
0.0937159
-0.0796934
-0.111027
-0.0160123
0.13871
0.0600675
-0.103949
-0.0870036
0.0236747
0.114592
0.039107
-0.101494
-0.0756098
0.0395963
0.0972023
0.0285069
-0.0868125
-0.0725879
0.0348834
0.0885962
0.0298111
-0.0704864
-0.0716156
0.0170593
0.0781143
0.0443375
-0.0508249
-0.0740929
-0.00309447
0.0584464
0.0584646
-0.0157739
-0.0759527
-0.0279132
0.038106
0.0543461
0.0253655
-0.0505936
-0.0615533
0.0131571
0.0442858
0.0377308
0.00422123
-0.0618825
-0.0390092
0.0336162
0.0343056
0.0261678
-0.00194812
-0.0625685
-0.0245441
0.0394104
0.0216344
99.8916
100.288
99.9829
99.6754
99.5594
101.289
100.091
98.4323
98.462
104.673
104.356
86.5216
49.9399
13.61
-4.39353
-4.81544
1.63091
1.56751
0.153252
-1.72639
0.489719
0.628546
0.0608188
-0.541752
-0.25796
0.691514
-0.0540236
-0.233126
-0.239307
0.235747
0.328732
-0.311071
-0.142213
0.0427822
0.249219
0.0358365
-0.311624
0.0116789
0.155171
0.120474
-0.0995031
-0.216772
0.108835
0.159546
0.00128017
-0.130304
-0.116656
0.139632
0.128063
-0.0689741
-0.120191
-0.0416737
0.130996
0.0963165
-0.0943195
-0.107201
0.0046154
0.111406
0.0718059
-0.0887007
-0.102462
0.0226475
0.0990475
0.054139
-0.0685384
-0.0989842
0.0128288
0.0951544
0.0491068
-0.0495872
-0.0878066
-0.0142658
0.0828275
0.0635047
-0.0333474
-0.0746203
-0.0360402
0.0477609
0.0811844
-0.000379955
-0.0685634
-0.0452335
0.00832153
0.0659187
0.0500982
-0.0445165
-0.0617726
-0.0115815
0.0250322
0.0623565
0.0226103
-0.062547
-0.0417732
0.00707235
0.0233723
0.0556618
0.00954158
-0.0660385
-0.0256598
0.0130514
99.953
99.8896
100.356
99.978
99.6144
99.5562
101.359
100.067
98.4207
98.4379
104.742
104.334
86.4989
49.9425
13.6274
-4.3606
-4.88582
1.66607
1.5597
0.191553
-1.7654
0.466944
0.675692
0.0486316
-0.526146
-0.312523
0.72112
-0.0246129
-0.255278
-0.243604
0.205246
0.37938
-0.307629
-0.174026
0.0398536
0.246055
0.0813089
-0.32942
-0.0220144
0.165846
0.13253
-0.0710654
-0.245511
0.079983
0.184081
0.0177227
-0.120384
-0.146932
0.117835
0.161005
-0.052615
-0.125572
-0.0684396
0.115596
0.131463
-0.0774917
-0.123294
-0.0182
0.101
0.104331
-0.0688181
-0.1242
0.00104978
0.0923777
0.0807489
-0.0433633
-0.120234
-0.0118772
0.0910906
0.0679021
-0.0198738
-0.0998835
-0.0458034
0.078232
0.0761249
-0.00575617
-0.0685046
-0.0702471
0.0328836
0.0930148
0.018131
-0.0475547
-0.063099
-0.0251607
0.0713226
0.0665379
-0.0271256
-0.0513245
-0.0427702
0.00252224
0.0801727
0.0362676
-0.0476613
-0.0385179
-0.0288909
0.0108535
0.0784246
0.0183093
-0.0526415
-0.0239126
100.067
99.868
99.904
100.413
99.9693
99.5661
99.5453
101.417
100.032
98.4109
98.409
104.804
104.309
86.4757
49.9456
13.6416
-4.32616
-4.95635
1.69978
1.55345
0.228086
-1.79972
0.438217
0.725496
0.0367084
-0.509597
-0.366201
0.74395
0.0117325
-0.278857
-0.246763
0.171873
0.426668
-0.295298
-0.209433
0.0363145
0.239795
0.127145
-0.338577
-0.0617385
0.174154
0.144206
-0.0402162
-0.267348
0.0434062
0.205013
0.0377166
-0.107524
-0.173083
0.0882206
0.189249
-0.0291908
-0.127524
-0.0948287
0.0937597
0.161121
-0.0521268
-0.133868
-0.0447729
0.0852923
0.132145
-0.042024
-0.136824
-0.026348
0.0785368
0.105535
-0.0143868
-0.130525
-0.0390304
0.0749157
0.086198
0.0137312
-0.103963
-0.0726278
0.0601472
0.0820724
0.0294972
-0.0573449
-0.0974885
0.01298
0.0887548
0.0407717
-0.0162377
-0.07802
-0.0549062
0.0642295
0.0711123
0.00313611
-0.0325971
-0.0734539
-0.0193183
0.0817332
0.0439191
-0.0151501
-0.0302026
-0.0660806
-0.00274237
0.0835221
0.0249354
-0.0192555
99.9984
100.075
99.7941
99.9286
100.458
99.9737
99.5294
99.5472
101.474
100.003
98.4089
98.3811
104.869
104.282
86.456
49.9476
13.6553
-4.29072
-5.02768
1.73275
1.54759
0.263914
-1.83053
0.403944
0.777667
0.0249348
-0.491971
-0.418976
0.759866
0.054754
-0.303578
-0.248826
0.136152
0.469483
-0.273676
-0.248001
0.0320713
0.230763
0.171714
-0.337812
-0.107022
0.179612
0.155536
-0.00860039
-0.280197
-0.000484005
0.2211
0.0612929
-0.0930958
-0.192489
0.0512066
0.210473
0.00166064
-0.126975
-0.118149
0.0663138
0.181605
-0.0175317
-0.138979
-0.0730759
0.0661625
0.150305
-0.00821299
-0.138532
-0.0588765
0.0605219
0.123689
0.015824
-0.125496
-0.0684602
0.0489582
0.102009
0.0446828
-0.095472
-0.0914136
0.0279192
0.0826352
0.0652794
-0.042316
-0.10924
-0.0123738
0.0678515
0.0654607
0.0174856
-0.083996
-0.0730686
0.0409699
0.0630496
0.0409979
-0.0107258
-0.0924112
-0.0352528
0.0611838
0.043907
0.0279377
-0.0184591
-0.090054
-0.0142197
0.063291
0.026306
100.012
100.046
100.073
99.7251
99.9426
100.483
99.9678
99.4898
99.5461
101.523
99.9702
98.4072
98.3533
104.933
104.254
86.4374
49.9498
13.6692
-4.25441
-5.09883
1.76421
1.54342
0.298669
-1.85775
0.364661
0.831472
0.0142374
-0.474074
-0.470158
0.768731
0.103835
-0.328637
-0.250407
0.0989559
0.506969
-0.242987
-0.288838
0.0267587
0.219408
0.213843
-0.326814
-0.156826
0.181857
0.166268
0.0227696
-0.283164
-0.0506717
0.231817
0.0875166
-0.0777388
-0.203559
0.00748991
0.223935
0.038599
-0.12445
-0.135854
0.0335689
0.191622
0.0251733
-0.139606
-0.0996585
0.0443589
0.156071
0.032205
-0.130662
-0.0934403
0.0412914
0.130708
0.0463058
-0.105134
-0.0993238
0.0187996
0.111888
0.0680877
-0.072118
-0.102388
-0.0139481
0.0801435
0.0928567
-0.0239552
-0.102048
-0.0425282
0.0365647
0.0881788
0.0441344
-0.0767676
-0.076468
0.00403277
0.0475854
0.0767192
0.00666777
-0.0920741
-0.0420875
0.0228002
0.0392241
0.0676907
-0.00940024
-0.0910911
-0.0191702
0.0237008
99.927
100.037
100.092
100.086
99.6743
99.9729
100.507
99.9697
99.4548
99.5505
101.569
99.9369
98.4076
98.3245
104.997
104.224
86.4193
49.9516
13.6824
-4.21696
-5.17105
1.79444
1.54073
0.332292
-1.88145
0.320247
0.886851
0.00488008
-0.456283
-0.519379
0.770442
0.158564
-0.353378
-0.252089
0.0609674
0.538635
-0.203715
-0.330846
0.0197065
0.206223
0.252933
-0.306063
-0.209571
0.180125
0.176229
0.0537274
-0.276755
-0.105316
0.236541
0.115099
-0.0608033
-0.2066
-0.0414898
0.229731
0.0790137
-0.118842
-0.14716
-0.00434559
0.192275
0.0728103
-0.135722
-0.121477
0.0187487
0.15033
0.0775362
-0.115933
-0.125311
0.0210513
0.124743
0.0780029
-0.0736251
-0.129229
-0.010562
0.111725
0.0840392
-0.0349491
-0.108704
-0.0581294
0.0751223
0.106844
-0.000359328
-0.079529
-0.0765554
0.00371614
0.104391
0.0597032
-0.0545633
-0.0700325
-0.0410352
0.0327165
0.102517
0.0169736
-0.0722199
-0.0448045
-0.0239573
0.0372858
0.0947361
-0.00583616
-0.0712887
-0.0225046
100.054
99.8651
100.044
100.116
100.085
99.6209
100
100.521
99.9708
99.419
99.5596
101.612
99.9046
98.4089
98.2969
105.063
104.192
86.4022
49.9531
13.6964
-4.17861
-5.24396
1.82321
1.53975
0.365106
-1.90206
0.271136
0.943133
-0.00241097
-0.438987
-0.566512
0.76513
0.218125
-0.376579
-0.254765
0.0227903
0.564146
-0.156636
-0.372266
0.00957762
0.191872
0.288562
-0.276411
-0.262851
0.172637
0.185634
0.0844873
-0.26223
-0.161453
0.233425
0.143068
-0.040682
-0.203367
-0.0929247
0.227
0.11991
-0.107083
-0.153369
-0.0463601
0.184944
0.120501
-0.124524
-0.137138
-0.0127069
0.136235
0.123635
-0.0951424
-0.149062
-0.00355238
0.106892
0.111361
-0.0363148
-0.152449
-0.0380123
0.0970901
0.0964269
0.0121192
-0.111547
-0.097085
0.0628641
0.106123
0.0322038
-0.0480545
-0.110695
-0.0258935
0.10677
0.0674836
-0.0158546
-0.0607033
-0.0877455
0.0197606
0.1118
0.0268981
-0.0340181
-0.0508809
-0.0720606
0.0376466
0.105001
0.00145202
-0.0340537
100.008
100.054
99.8297
100.066
100.141
100.087
99.5732
100.032
100.531
99.9716
99.3814
99.5711
101.652
99.871
98.4098
98.2693
105.129
104.159
86.3849
49.9545
13.7105
-4.1391
-5.31769
1.85014
1.54083
0.396944
-1.91931
0.21732
0.999721
-0.00689653
-0.422662
-0.610949
0.752406
0.281802
-0.396932
-0.259328
-0.0146449
0.582528
-0.102303
-0.411101
-0.00510138
0.177341
0.319498
-0.238295
-0.313819
0.157119
0.195164
0.114312
-0.240351
-0.21526
0.219498
0.171118
-0.0165886
-0.195452
-0.142367
0.213041
0.158785
-0.0860876
-0.156551
-0.088905
0.169082
0.162567
-0.101495
-0.146903
-0.0497515
0.116576
0.16312
-0.0661324
-0.159874
-0.0359737
0.080524
0.142304
0.00247223
-0.159948
-0.0650787
0.0657354
0.107503
0.0613312
-0.106371
-0.123091
0.0360748
0.0915352
0.0727835
-0.0130576
-0.134027
-0.0510253
0.0858341
0.0709423
0.0365468
-0.0491463
-0.123691
0.00297751
0.0952923
0.0420865
0.0200553
-0.0571098
-0.110661
0.0289878
0.0895355
0.0206108
99.9856
100.046
100.035
99.7951
100.083
100.163
100.087
99.5298
100.069
100.537
99.9755
99.3433
99.5883
101.689
99.8381
98.4108
98.2422
105.197
104.124
86.3676
49.9556
13.725
-4.09828
-5.39239
1.87531
1.54374
0.427851
-1.93302
0.158828
1.05624
-0.00847071
-0.407386
-0.652057
0.731858
0.348985
-0.413794
-0.265978
-0.0503939
0.59255
-0.0411506
-0.446021
-0.0248076
0.163576
0.343794
-0.191757
-0.360258
0.132445
0.205542
0.141008
-0.210963
-0.263332
0.192638
0.199437
0.00983506
-0.183128
-0.184934
0.184962
0.194373
-0.055824
-0.158023
-0.126014
0.142552
0.194612
-0.064333
-0.152391
-0.0874059
0.0926542
0.187627
-0.026509
-0.156375
-0.0750127
0.0512056
0.162005
0.0393504
-0.144651
-0.092585
0.0223664
0.115183
0.100793
-0.0866588
-0.130056
-0.00665286
0.0670662
0.110957
0.0188537
-0.132746
-0.0692381
0.0400009
0.0699578
0.0880124
-0.0335219
-0.131513
-0.018884
0.0501639
0.0576751
0.0747339
-0.053999
-0.12003
0.0074335
0.0425722
99.9877
99.9948
100.085
100.016
99.7673
100.099
100.179
100.081
99.4866
100.106
100.539
99.9785
99.3028
99.6093
101.723
99.8053
98.4109
98.2161
105.267
104.089
86.3504
49.9566
13.7399
-4.05625
-5.46794
1.89883
1.54837
0.45782
-1.94322
0.0960471
1.11243
-0.00729051
-0.393152
-0.689517
0.703695
0.418995
-0.427144
-0.27444
-0.0838884
0.593785
0.0260441
-0.47666
-0.048879
0.151033
0.360187
-0.137236
-0.401371
0.0995025
0.216943
0.162368
-0.173832
-0.304254
0.153476
0.228138
0.0353686
-0.165642
-0.217954
0.142425
0.226951
-0.0200573
-0.157694
-0.152636
0.103987
0.216138
-0.0157252
-0.155962
-0.118239
0.0645357
0.193298
0.0234235
-0.142928
-0.114547
0.0250596
0.162858
0.0728456
-0.108236
-0.120426
-0.0212182
0.116126
0.120682
-0.0506434
-0.119839
-0.0577588
0.0424181
0.133597
0.0404827
-0.102891
-0.0799559
-0.0174187
0.0673268
0.118768
-0.0172969
-0.105301
-0.0410778
-0.00722497
0.0691001
0.105312
-0.0429704
-0.0915343
-0.0171214
99.9918
99.9634
100.003
100.122
99.9953
99.7502
100.119
100.198
100.075
99.4481
100.148
100.537
99.9825
99.2606
99.635
101.754
99.7727
98.4101
98.1909
105.337
104.051
86.3331
49.9576
13.7552
-4.01321
-5.54443
1.9208
1.55475
0.486904
-1.95036
0.0294542
1.16811
-0.00331666
-0.380015
-0.723628
0.668774
0.49108
-0.436887
-0.284573
-0.115328
0.587157
0.0980238
-0.502891
-0.0765116
0.13922
0.369416
-0.0760786
-0.437256
0.0601892
0.228301
0.17847
-0.12959
-0.3388
0.105023
0.256096
0.0583712
-0.142064
-0.242763
0.0884716
0.256961
0.0167665
-0.153607
-0.168795
0.0542717
0.230484
0.0382369
-0.158122
-0.138078
0.0305839
0.184072
0.0806939
-0.1264
-0.1477
0.00342784
0.144162
0.105787
-0.060398
-0.148377
-0.0549097
0.107517
0.122302
-0.000978916
-0.103538
-0.107706
0.0261786
0.135407
0.0533663
-0.0535365
-0.0908676
-0.0693128
0.0688992
0.122321
-0.00131764
-0.0594034
-0.0664475
-0.05369
0.0814771
0.104118
-0.0293812
-0.0445331
100.042
99.968
99.9409
100.008
100.151
99.9655
99.7351
100.135
100.214
100.063
99.4122
100.191
100.534
99.9868
99.2167
99.6658
101.782
99.7405
98.4082
98.1671
105.408
104.012
86.3153
49.9585
13.7714
-3.96931
-5.62192
1.941
1.56319
0.515365
-1.95497
-0.0405836
1.22274
0.00416016
-0.368083
-0.755062
0.628007
0.564182
-0.441912
-0.296748
-0.145532
0.574196
0.173089
-0.523379
-0.107811
0.1267
0.373778
-0.010463
-0.466942
0.0155707
0.236951
0.192202
-0.0799961
-0.367573
0.0504189
0.27957
0.0809504
-0.111903
-0.262729
0.0278793
0.281782
0.0533077
-0.141698
-0.179527
-0.00357398
0.23993
0.0916263
-0.153938
-0.14863
-0.0123426
0.167453
0.140051
-0.108225
-0.169106
-0.0206207
0.110483
0.142526
-0.0103931
-0.171757
-0.0785038
0.0836741
0.11649
0.0594518
-0.0896853
-0.149206
0.0135729
0.116787
0.070398
0.00537909
-0.108689
-0.108974
0.0684667
0.106421
0.0268871
-0.00964939
-0.102129
-0.0841731
0.0905421
0.0862397
-0.00031434
99.9772
100.075
99.9497
99.9306
100.02
100.182
99.9346
99.7276
100.152
100.231
100.046
99.3794
100.235
100.528
99.9904
99.1707
99.701
101.808
99.7086
98.4046
98.1448
105.481
103.972
86.2968
49.9594
13.7886
-3.92431
-5.70038
1.9588
1.57401
0.543387
-1.95696
-0.114017
1.27531
0.0161942
-0.357466
-0.78388
0.581551
0.636827
-0.440192
-0.311579
-0.174853
0.555445
0.249189
-0.535119
-0.143705
0.112248
0.374826
0.0568782
-0.48689
-0.0347508
0.239758
0.206694
-0.0279626
-0.387892
-0.00866953
0.292714
0.107166
-0.076222
-0.278318
-0.0345719
0.294075
0.0914016
-0.118016
-0.189392
-0.0639353
0.240307
0.139859
-0.134178
-0.154036
-0.0643326
0.146786
0.191895
-0.081435
-0.173734
-0.0558164
0.0671105
0.179317
0.0373635
-0.176936
-0.0974985
0.0377423
0.110255
0.123136
-0.0732727
-0.170986
-0.0101074
0.0757173
0.0985631
0.0676785
-0.121633
-0.132698
0.0453224
0.0738556
0.0757486
0.0419069
-0.133702
-0.103567
0.0703723
0.0577442
99.9898
99.9902
100.093
99.9236
99.9196
100.031
100.208
99.8994
99.7259
100.168
100.248
100.026
99.351
100.282
100.52
99.9938
99.1231
99.741
101.831
99.6772
98.3994
98.1238
105.555
103.931
86.2775
49.9601
13.8065
-3.87776
-5.77966
1.97388
1.58704
0.57083
-1.95555
-0.190906
1.32492
0.0331313
-0.348248
-0.809
0.528856
0.707541
-0.430339
-0.329333
-0.202129
0.529863
0.32428
-0.535231
-0.184813
0.0965363
0.371584
0.123075
-0.492489
-0.0914807
0.235817
0.222052
0.0225701
-0.393959
-0.0716841
0.291451
0.13885
-0.0391566
-0.284678
-0.0946779
0.285815
0.132879
-0.0837566
-0.197521
-0.117983
0.222714
0.179374
-0.0937163
-0.156954
-0.116491
0.119836
0.222967
-0.0384822
-0.1593
-0.100918
0.0213597
0.200686
0.0787838
-0.149792
-0.113541
-0.0256333
0.101
0.170364
-0.0443377
-0.158454
-0.0493395
0.0156798
0.124694
0.117906
-0.107352
-0.127822
-0.00795836
0.0230605
0.124638
0.0870755
-0.128529
-0.0995229
0.00933782
100.001
99.971
100.014
100.11
99.8993
99.9128
100.044
100.23
99.8601
99.7284
100.182
100.266
100
99.3265
100.328
100.512
99.9964
99.0741
99.7853
101.85
99.6466
98.3927
98.104
105.63
103.889
86.2578
49.9605
13.8246
-3.82952
-5.85958
1.98665
1.60173
0.597285
-1.9501
-0.271024
1.37157
0.0541086
-0.340526
-0.82909
0.469702
0.77571
-0.413047
-0.349698
-0.225324
0.496224
0.397181
-0.523617
-0.230612
0.082181
0.36163
0.186191
-0.482019
-0.154265
0.227974
0.235215
0.068089
-0.381631
-0.138274
0.277697
0.173807
-0.00695365
-0.275626
-0.150029
0.255798
0.177724
-0.0473705
-0.199151
-0.15732
0.182181
0.209966
-0.0388794
-0.159325
-0.153768
0.0843216
0.225826
0.0198035
-0.133221
-0.143584
-0.0151547
0.192133
0.109183
-0.0926259
-0.126502
-0.0845893
0.0869258
0.18005
-0.00350492
-0.112788
-0.0927444
-0.0403952
0.131816
0.132435
-0.0627313
-0.090805
-0.0695022
-0.0263149
0.14325
0.0988711
-0.0806414
-0.0608589
100.011
99.984
99.9524
100.039
100.12
99.8762
99.9103
100.061
100.251
99.8194
99.7369
100.196
100.285
99.9694
99.3072
100.374
100.502
99.9979
99.0243
99.834
101.867
99.6167
98.3846
98.0858
105.706
103.845
86.238
49.961
13.8429
-3.7801
-5.94027
1.99799
1.61772
0.62265
-1.94116
-0.35382
1.4161
0.0779509
-0.334228
-0.844361
0.405039
0.841849
-0.390394
-0.37198
-0.243947
0.455114
0.468187
-0.503196
-0.279601
0.0708461
0.344168
0.246578
-0.458746
-0.221438
0.219991
0.243259
0.108514
-0.353043
-0.208113
0.258053
0.207956
0.0174457
-0.250047
-0.202261
0.211821
0.224698
-0.0179245
-0.190616
-0.181898
0.122912
0.2372
0.0170317
-0.162802
-0.168256
0.0399635
0.208566
0.0864157
-0.110776
-0.172785
-0.0356645
0.15488
0.132782
-0.0250564
-0.142418
-0.118479
0.0715935
0.153944
0.0436898
-0.0600967
-0.132725
-0.0658678
0.120992
0.110456
-0.00484192
-0.0498302
-0.118828
-0.0412643
0.132394
0.0711003
-0.0192561
100.013
100.02
99.9666
99.9364
100.064
100.121
99.8518
99.9084
100.079
100.266
99.7764
99.75
100.209
100.304
99.9336
99.2936
100.42
100.491
99.9978
98.9743
99.8871
101.88
99.5871
98.3749
98.0698
105.783
103.799
86.218
49.9616
13.8622
-3.73024
-6.02198
2.00801
1.63536
0.647609
-1.93034
-0.438744
1.45884
0.104772
-0.328778
-0.857069
0.336568
0.906308
-0.363139
-0.395229
-0.26069
0.409098
0.537997
-0.476491
-0.329771
0.0599026
0.321484
0.306334
-0.427735
-0.290112
0.210921
0.246157
0.148374
-0.315112
-0.27987
0.236159
0.237706
0.0395277
-0.212913
-0.255793
0.16322
0.270203
0.00528871
-0.170329
-0.202266
0.0536771
0.2665
0.0660544
-0.162808
-0.167548
-0.0158075
0.188169
0.155387
-0.0981679
-0.185848
-0.0513329
0.100936
0.163864
0.0366704
-0.164326
-0.129139
0.048844
0.116448
0.102511
-0.0240278
-0.171504
-0.0651583
0.0962538
0.084935
0.0620225
-0.0360419
-0.16105
-0.0258892
0.108203
0.0455662
99.9739
100.039
100.026
99.952
99.9274
100.095
100.118
99.8302
99.9094
100.101
100.276
99.7323
99.7675
100.22
100.322
99.8924
99.2856
100.466
100.48
99.9953
98.9241
99.9448
101.891
99.5576
98.3632
98.0565
105.861
103.752
86.1968
49.9624
13.8834
-3.6799
-6.10472
2.01544
1.65546
0.673121
-1.91845
-0.525581
1.49824
0.136297
-0.323273
-0.869323
0.265385
0.967352
-0.329075
-0.418321
-0.279411
0.360641
0.605095
-0.442014
-0.378765
0.0433259
0.297019
0.36565
-0.390137
-0.355748
0.193398
0.245964
0.192284
-0.272905
-0.348204
0.20694
0.259777
0.0697267
-0.170286
-0.310144
0.112038
0.304834
0.0334611
-0.136681
-0.22836
-0.0185442
0.290976
0.10951
-0.144882
-0.165038
-0.0858072
0.170866
0.218372
-0.0808309
-0.179996
-0.083201
0.0374114
0.205254
0.0910378
-0.173226
-0.130812
-0.00172308
0.0829157
0.175565
0.00250848
-0.194722
-0.0681309
0.0407294
0.0787753
0.145342
-0.0356832
-0.190637
-0.0245071
0.0540779
100.002
99.9629
100.061
100.023
99.9343
99.9205
100.127
100.108
99.8103
99.912
100.125
100.281
99.6883
99.7891
100.232
100.341
99.8462
99.2835
100.51
100.469
99.9902
98.8738
100.006
101.899
99.5283
98.3492
98.0452
105.94
103.704
86.1738
49.963
13.9059
-3.62796
-6.18804
2.01874
1.67823
0.69922