/*--------------------------------*- C++ -*----------------------------------*\
  =========                 |
  \\      /  F ield         | OpenFOAM: The Open Source CFD Toolbox
   \\    /   O peration     | Website:  https://openfoam.org
    \\  /    A nd           | Version:  8
     \\/     M anipulation  |
\*---------------------------------------------------------------------------*/
FoamFile
{
    version     2.0;
    format      ascii;
    class       volScalarField;
    location    "15.5";
    object      p;
}
// * * * * * * * * * * * * * * * * * * * * * * * * * * * * * * * * * * * * * //

dimensions      [0 2 -2 0 0 0 0];

internalField   nonuniform List<scalar> 
116
(
-1.42819e-07
-0.0006406
-0.000240269
-0.00291208
-0.000823645
-0.0086339
0.000399475
-6.62787e-06
0.000305387
-0.00143387
-0.000802607
-0.00148094
0.000370233
0.000119507
0.00019576
-0.000641606
-0.00104116
-0.0030278
0.000548106
0.00042905
0.000326884
-9.9962e-05
-0.00102104
-0.00210483
0.000452493
0.000347422
0.000159364
-6.34946e-05
-0.00132202
-0.00207283
0.000127711
0.000240109
-1.51259e-05
0.000151689
-0.00086164
-0.000982591
0.000486309
0.000169364
-5.81024e-05
-0.000189466
-0.000981937
-0.000989136
-0.000617445
-4.59689e-05
1.90472e-05
0.000645211
0.000363016
0.000514621
0.00106189
-0.000615225
5.80812e-05
-0.000340734
-0.000474932
-0.000626551
-0.0060766
0.00104297
0.00140588
0.00190838
0.00165697
0.00185596
-0.0024171
0.00606587
0.00520762
0.00832378
-0.00530533
-0.00244965
-0.00163326
0.00221195
-0.00723721
-0.00780017
-0.00533426
-0.0022251
-0.0070114
-0.00837601
-0.00703709
-0.00426471
-0.0057925
-0.00693081
-0.00694006
-0.00371083
-0.00335084
-0.00293542
-0.00438305
-0.0012792
-0.0029466
-0.00241082
-0.00497265
0.00126676
7.7487e-05
0.000183839
-0.000608971
0.00762522
-0.00232106
-0.0019014
-0.00269817
0.0122387
0.00183741
0.00635882
0.0154336
0.0501374
0.0175007
0.0175351
0.017837
0.019866
0.0170521
0.0174388
0.0166232
0.0183688
0.0140338
0.0137441
0.0140749
0.0147366
0.00767297
0.0135661
0.0124549
0.0128218
)
;

boundaryField
{
    movingWall
    {
        type            zeroGradient;
    }
    fixedWalls
    {
        type            zeroGradient;
    }
    frontAndBack
    {
        type            empty;
    }
}


// ************************************************************************* //
