/*--------------------------------*- C++ -*----------------------------------*\
  =========                 |
  \\      /  F ield         | OpenFOAM: The Open Source CFD Toolbox
   \\    /   O peration     | Website:  https://openfoam.org
    \\  /    A nd           | Version:  8
     \\/     M anipulation  |
\*---------------------------------------------------------------------------*/
FoamFile
{
    version     2.0;
    format      ascii;
    class       volScalarField;
    location    "0.19";
    object      p;
}
// * * * * * * * * * * * * * * * * * * * * * * * * * * * * * * * * * * * * * //

dimensions      [0 2 -2 0 0 0 0];

internalField   nonuniform List<scalar> 
400
(
-1.33362e-06
-0.0058206
-0.0129487
-0.0183936
-0.020405
-0.018208
-0.0117433
-0.00145571
0.0118604
0.0271655
0.0432531
0.0588245
0.0725743
0.0833007
0.0900446
0.0922616
0.0900258
0.0842497
0.0768964
0.0710912
0.00576796
-0.00022065
-0.00580344
-0.00953802
-0.0105905
-0.0084213
-0.00295658
0.00548839
0.016317
0.0287248
0.0417614
0.0543962
0.0655959
0.0744196
0.0801313
0.0823292
0.0810941
0.0770746
0.0712958
0.065348
0.0133154
0.00503047
-0.000996169
-0.00441958
-0.00526489
-0.00325263
0.00161581
0.00904212
0.0185166
0.0293631
0.0407779
0.0518809
0.061779
0.069647
0.0748189
0.0768926
0.0758601
0.0721082
0.0658296
0.0575748
0.0201146
0.00869195
0.00122274
-0.00266758
-0.00371647
-0.00187612
0.00274309
0.00979813
0.0187948
0.0291096
0.0400062
0.0506677
0.0602465
0.06793
0.0730188
0.0750198
0.0737883
0.0694823
0.0616298
0.050149
0.0244727
0.00976935
0.000585115
-0.00398795
-0.00529846
-0.00349975
0.00118546
0.00834777
0.017477
0.0279652
0.0391017
0.050087
0.0600664
0.0681834
0.0736464
0.0758204
0.0743959
0.0693201
0.0595547
0.0445908
0.0251469
0.00714891
-0.00380615
-0.00905819
-0.0105082
-0.00849196
-0.00334524
0.00444403
0.0143304
0.0256978
0.0378338
0.0499241
0.0610696
0.0703256
0.0767587
0.0795435
0.0781696
0.072367
0.0605692
0.0419493
0.0210645
-0.000258149
-0.012936
-0.0187084
-0.0200239
-0.0174037
-0.0113043
-0.00230221
0.00901076
0.0219987
0.0359337
0.0499695
0.0631381
0.0743721
0.08255
0.0865998
0.0857548
0.0794831
0.0656495
0.0431346
0.0111191
-0.013606
-0.0278722
-0.0338498
-0.0345941
-0.0308438
-0.0231951
-0.0123237
0.00112952
0.0165111
0.0330815
0.0499637
0.0661142
0.0803214
0.091233
0.097464
0.0979077
0.091674
0.075923
0.0491815
-0.00598351
-0.0342443
-0.0498615
-0.0555396
-0.0550763
-0.0494965
-0.0395713
-0.0260871
-0.00972752
0.00885527
0.0289352
0.0496288
0.0698334
0.0881908
0.103084
0.112739
0.115591
0.110232
0.0928571
0.0614779
-0.0318657
-0.0638428
-0.0804023
-0.0849934
-0.0824016
-0.0740557
-0.0609541
-0.0440058
-0.0239171
-0.00129961
0.0231848
0.0487013
0.0741363
0.0980129
0.118436
0.133167
0.140033
0.13686
0.118459
0.0820024
-0.06867
-0.104559
-0.121325
-0.123572
-0.117493
-0.1051
-0.0876875
-0.0662906
-0.0415984
-0.0141141
0.0156491
0.0469976
0.0789004
0.109838
0.137668
0.15963
0.172775
0.173822
0.155533
0.113644
-0.119404
-0.159303
-0.174892
-0.172736
-0.161122
-0.142899
-0.119726
-0.0927394
-0.062536
-0.0294032
0.00641942
0.0445205
0.084102
0.123749
0.161182
0.193132
0.215719
0.224124
0.208059
0.160716
-0.188637
-0.232182
-0.243915
-0.233927
-0.213668
-0.187124
-0.156338
-0.122463
-0.0858554
-0.0464267
-0.00396724
0.0415864
0.0898891
0.139875
0.189364
0.234736
0.271128
0.291716
0.281749
0.229878
-0.284002
-0.329246
-0.331812
-0.308261
-0.274683
-0.23641
-0.195731
-0.153572
-0.109798
-0.0637004
-0.0143916
0.0389095
0.096599
0.158319
0.222416
0.285331
0.34145
0.381632
0.384926
0.331966
-0.419371
-0.459628
-0.442342
-0.395776
-0.342105
-0.287712
-0.234585
-0.182894
-0.13157
-0.0789423
-0.0231702
0.0375181
0.104593
0.178875
0.259896
0.345006
0.428665
0.499764
0.529707
0.48556
-0.620604
-0.636725
-0.57868
-0.494178
-0.411218
-0.335634
-0.267753
-0.205946
-0.1475
-0.0893436
-0.0283858
0.0383868
0.113841
0.200501
0.3
0.41205
0.533064
0.651832
0.732825
0.722596
-0.93597
-0.87851
-0.741719
-0.597916
-0.474374
-0.372643
-0.288848
-0.217737
-0.153923
-0.0924296
-0.028681
0.0417305
0.123294
0.220743
0.338946
0.482167
0.651987
0.841325
1.01531
1.09769
-1.47596
-1.20703
-0.92044
-0.691258
-0.517257
-0.387518
-0.290034
-0.213308
-0.148093
-0.0871833
-0.0245457
0.0454857
0.128958
0.233082
0.367105
0.542653
0.771173
1.05924
1.40376
1.72974
-2.53596
-1.63341
-1.04461
-0.710603
-0.495568
-0.351984
-0.254442
-0.183513
-0.126114
-0.0735521
-0.0192409
0.0428003
0.119203
0.218744
0.354742
0.547846
0.8261
1.23682
1.91477
2.92017
-4.35994
-2.04704
-0.97392
-0.563068
-0.357902
-0.240236
-0.170178
-0.123813
-0.0874877
-0.0534958
-0.0166191
0.0277104
0.0846716
0.161811
0.272513
0.442186
0.718197
1.22617
2.41346
4.84162
)
;

boundaryField
{
    movingWall
    {
        type            zeroGradient;
    }
    fixedWalls
    {
        type            zeroGradient;
    }
    frontAndBack
    {
        type            empty;
    }
}


// ************************************************************************* //
