/*--------------------------------*- C++ -*----------------------------------*\
  =========                 |
  \\      /  F ield         | OpenFOAM: The Open Source CFD Toolbox
   \\    /   O peration     | Website:  https://openfoam.org
    \\  /    A nd           | Version:  8
     \\/     M anipulation  |
\*---------------------------------------------------------------------------*/
FoamFile
{
    version     2.0;
    format      ascii;
    class       surfaceScalarField;
    location    "0.19";
    object      phi;
}
// * * * * * * * * * * * * * * * * * * * * * * * * * * * * * * * * * * * * * //

dimensions      [0 3 -1 0 0 0 0];

internalField   nonuniform List<scalar> 
760
(
1.42392e-08
-1.42266e-08
-2.21778e-08
3.64177e-08
-1.14189e-07
9.20107e-08
-2.45328e-07
1.31139e-07
-3.95826e-07
1.50499e-07
-5.46985e-07
1.51159e-07
-6.8271e-07
1.35725e-07
-7.90103e-07
1.07393e-07
-8.59597e-07
6.94935e-08
-8.85013e-07
2.54168e-08
-8.6371e-07
-2.13028e-08
-7.96833e-07
-6.68783e-08
-6.89612e-07
-1.07221e-07
-5.51603e-07
-1.38009e-07
-3.96686e-07
-1.54917e-07
-2.42598e-07
-1.54087e-07
-1.09666e-07
-1.32932e-07
-1.83956e-08
-9.12698e-08
1.56677e-08
-3.40634e-08
1.56675e-08
-3.41636e-08
1.99363e-08
-1.80224e-07
1.82477e-07
-4.3365e-07
3.45437e-07
-7.63856e-07
4.61346e-07
-1.13137e-06
5.18012e-07
-1.49614e-06
5.15926e-07
-1.82199e-06
4.61582e-07
-2.07901e-06
3.64405e-07
-2.24463e-06
2.35115e-07
-2.30436e-06
8.5145e-08
-2.25226e-06
-7.33939e-08
-2.09154e-06
-2.27601e-07
-1.83495e-06
-3.63812e-07
-1.50498e-06
-4.67983e-07
-1.13328e-06
-5.26608e-07
-7.58986e-07
-5.28385e-07
-4.25096e-07
-4.66823e-07
-1.72568e-07
-3.43798e-07
-3.07607e-08
-1.7587e-07
-1.50934e-08
-9.21655e-08
1.12102e-07
-3.56723e-07
4.47036e-07
-7.63976e-07
7.5269e-07
-1.26753e-06
9.64899e-07
-1.81333e-06
1.06382e-06
-2.34728e-06
1.04988e-06
-2.82032e-06
9.34617e-07
-3.19155e-06
7.35638e-07
-3.43005e-06
4.73611e-07
-3.5159e-06
1.70997e-07
-3.44103e-06
-1.48259e-07
-3.20991e-06
-4.58724e-07
-2.84005e-06
-7.33671e-07
-2.36211e-06
-9.45921e-07
-1.81903e-06
-1.0697e-06
-1.2636e-06
-1.08381e-06
-7.53994e-07
-9.76427e-07
-3.4673e-07
-7.51061e-07
-8.7286e-08
-4.35315e-07
-1.0238e-07
-1.45106e-07
2.57207e-07
-5.25076e-07
8.27006e-07
-1.08085e-06
1.30846e-06
-1.74625e-06
1.6303e-06
-2.45257e-06
1.77013e-06
-3.13412e-06
1.73143e-06
-3.73261e-06
1.5331e-06
-4.1999e-06
1.20292e-06
-4.4997e-06
7.73419e-07
-4.60865e-06
2.79948e-07
-4.51708e-06
-2.39837e-07
-4.22979e-06
-7.46013e-07
-3.76678e-06
-1.19668e-06
-3.16349e-06
-1.54921e-06
-2.47022e-06
-1.76297e-06
-1.74991e-06
-1.80413e-06
-1.0738e-06
-1.65253e-06
-5.148e-07
-1.31006e-06
-1.39227e-07
-8.10888e-07
-2.41607e-07
-1.93477e-07
4.50683e-07
-6.84544e-07
1.31807e-06
-1.38472e-06
2.00863e-06
-2.20581e-06
2.4514e-06
-3.06349e-06
2.62781e-06
-3.88127e-06
2.54921e-06
-4.59354e-06
2.24537e-06
-5.14726e-06
1.75665e-06
-5.50291e-06
1.12907e-06
-5.63492e-06
4.11962e-07
-5.53226e-06
-3.42505e-07
-5.19913e-06
-1.07914e-06
-4.65601e-06
-1.73979e-06
-3.94057e-06
-2.26465e-06
-3.10785e-06
-2.59568e-06
-2.22918e-06
-2.68279e-06
-1.38882e-06
-2.49289e-06
-6.78099e-07
-2.02078e-06
-1.87657e-07
-1.30133e-06
-4.29264e-07
-2.39802e-07
6.90485e-07
-8.39881e-07
1.91815e-06
-1.68237e-06
2.85112e-06
-2.65562e-06
3.42465e-06
-3.65886e-06
3.63105e-06
-4.60528e-06
3.49563e-06
-5.42341e-06
3.06351e-06
-6.05729e-06
2.39052e-06
-6.46586e-06
1.53764e-06
-6.6225e-06
5.686e-07
-6.51487e-06
-4.50141e-07
-6.14559e-06
-1.44842e-06
-5.5337e-06
-2.35168e-06
-4.71655e-06
-3.0818e-06
-3.75161e-06
-3.56063e-06
-2.71716e-06
-3.71724e-06
-1.71071e-06
-3.49934e-06
-8.44254e-07
-2.88724e-06
-2.36065e-07
-1.90952e-06
-6.65329e-07
-2.86621e-07
9.77106e-07
-9.96669e-07
2.6282e-06
-1.98127e-06
3.83572e-06
-3.10368e-06
4.54706e-06
-4.24621e-06
4.77358e-06
-5.31262e-06
4.56204e-06
-6.22752e-06
3.97841e-06
-6.93427e-06
3.09727e-06
-7.3924e-06
1.99577e-06
-7.57548e-06
7.51679e-07
-7.4701e-06
-5.5552e-07
-7.07626e-06
-1.84225e-06
-6.40936e-06
-3.01858e-06
-5.50347e-06
-3.98769e-06
-4.41541e-06
-4.64869e-06
-3.2282e-06
-4.90446e-06
-2.05222e-06
-4.67531e-06
-1.02218e-06
-3.91729e-06
-2.88181e-07
-2.64351e-06
-9.5351e-07
-3.36241e-07
1.31335e-06
-1.16006e-06
3.45202e-06
-2.28741e-06
4.96307e-06
-3.55405e-06
5.81369e-06
-4.82531e-06
6.04484e-06
-5.9974e-06
5.73413e-06
-6.99405e-06
4.97506e-06
-7.76129e-06
3.86452e-06
-8.2621e-06
2.49658e-06
-8.47217e-06
9.61755e-07
-8.37758e-06
-6.50114e-07
-7.97468e-06
-2.24516e-06
-7.27261e-06
-3.72065e-06
-6.29832e-06
-4.96199e-06
-5.1034e-06
-5.8436e-06
-3.77163e-06
-6.23623e-06
-2.42433e-06
-6.02261e-06
-1.22047e-06
-5.12114e-06
-3.47636e-07
-3.51635e-06
-1.30115e-06
-3.90917e-07
1.70426e-06
-1.33474e-06
4.39584e-06
-2.60467e-06
6.233e-06
-4.00544e-06
7.21446e-06
-5.38609e-06
7.42549e-06
-6.6388e-06
6.98684e-06
-7.69128e-06
6.02753e-06
-8.49714e-06
4.67038e-06
-9.02697e-06
3.02641e-06
-9.26143e-06
1.19622e-06
-9.18719e-06
-7.24361e-07
-8.79612e-06
-2.63623e-06
-8.08816e-06
-4.4286e-06
-7.07803e-06
-5.97213e-06
-5.80556e-06
-7.11606e-06
-4.34852e-06
-7.69327e-06
-2.8345e-06
-7.53664e-06
-1.44695e-06
-6.5087e-06
-4.18068e-07
-4.54523e-06
-1.71921e-06
-4.53476e-07
2.15774e-06
-1.52572e-06
5.46809e-06
-2.93493e-06
7.64221e-06
-4.45014e-06
8.72967e-06
-5.9063e-06
8.88165e-06
-7.19771e-06
8.27825e-06
-8.26348e-06
7.0933e-06
-9.0718e-06
5.47871e-06
-9.60655e-06
3.56115e-06
-9.85723e-06
1.4469e-06
-9.81305e-06
-7.6854e-07
-9.46103e-06
-2.98825e-06
-8.78881e-06
-5.10082e-06
-7.79278e-06
-6.96816e-06
-6.49207e-06
-8.41677e-06
-4.94791e-06
-9.23744e-06
-3.28511e-06
-9.19944e-06
-1.7087e-06
-8.0851e-06
-5.03611e-07
-5.75032e-06
-2.22283e-06
-5.28427e-07
2.68617e-06
-1.73991e-06
6.67957e-06
-3.2784e-06
9.18069e-06
-4.8722e-06
1.03235e-05
-6.3477e-06
1.03571e-05
-7.61158e-06
9.54214e-06
-8.62515e-06
8.10687e-06
-9.38049e-06
6.23405e-06
-9.88178e-06
4.06245e-06
-1.01323e-05
1.69741e-06
-1.01265e-05
-7.74328e-07
-9.84701e-06
-3.26774e-06
-9.26662e-06
-5.68122e-06
-8.3569e-06
-7.87787e-06
-7.1052e-06
-9.66847e-06
-5.54113e-06
-1.08015e-05
-3.77104e-06
-1.09695e-05
-2.01238e-06
-9.84377e-06
-6.09774e-07
-7.15292e-06
-2.8326e-06
-6.23822e-07
3.30999e-06
-1.98783e-06
8.04357e-06
-3.63269e-06
1.08256e-05
-5.24302e-06
1.19338e-05
-6.64892e-06
1.17631e-05
-7.78603e-06
1.06793e-05
-8.65273e-06
8.97356e-06
-9.27612e-06
6.85744e-06
-9.68839e-06
4.47472e-06
-9.91166e-06
1.92068e-06
-9.94902e-06
-7.36973e-07
-9.78026e-06
-3.4365e-06
-9.36241e-06
-6.09907e-06
-8.63696e-06
-8.60332e-06
-7.54753e-06
-1.07579e-05
-6.07251e-06
-1.22765e-05
-4.27495e-06
-1.27671e-05
-2.36405e-06
-1.17547e-05
-7.44924e-07
-8.77205e-06
-3.57752e-06
-7.54269e-07
4.06426e-06
-2.28496e-06
9.57426e-06
-3.98809e-06
1.25287e-05
-5.5106e-06
1.34563e-05
-6.71149e-06
1.29639e-05
-7.58076e-06
1.15485e-05
-8.17251e-06
9.56531e-06
-8.56027e-06
7.24519e-06
-8.81047e-06
4.72492e-06
-8.9678e-06
2.07802e-06
-9.04704e-06
-6.57733e-07
-9.02826e-06
-3.45527e-06
-8.85488e-06
-6.27245e-06
-8.43683e-06
-9.02137e-06
-7.6646e-06
-1.15301e-05
-6.44335e-06
-1.34978e-05
-4.75724e-06
-1.44532e-05
-2.76732e-06
-1.37446e-05
-9.22616e-07
-1.06168e-05
-4.50014e-06
-9.45342e-07
5.0096e-06
-2.64916e-06
1.12781e-05
-4.31223e-06
1.41918e-05
-5.57503e-06
1.47191e-05
-6.37286e-06
1.37618e-05
-6.78584e-06
1.19615e-05
-6.94339e-06
9.72285e-06
-6.97286e-06
7.27467e-06
-6.97605e-06
4.72811e-06
-7.0198e-06
2.12177e-06
-7.13182e-06
-5.45713e-07
-7.29679e-06
-3.29031e-06
-7.45138e-06
-6.11785e-06
-7.48028e-06
-8.99248e-06
-7.21994e-06
-1.17905e-05
-6.48434e-06
-1.42334e-05
-5.13458e-06
-1.5803e-05
-3.21561e-06
-1.56636e-05
-1.16449e-06
-1.26679e-05
-5.66463e-06
-1.23713e-06
6.24674e-06
-3.08379e-06
1.31247e-05
-4.5089e-06
1.56169e-05
-5.23619e-06
1.54464e-05
-5.35739e-06
1.3883e-05
-5.08444e-06
1.16886e-05
-4.63389e-06
9.2723e-06
-4.18255e-06
6.82333e-06
-3.85784e-06
4.4034e-06
-3.74056e-06
2.0045e-06
-3.86859e-06
-4.17684e-07
-4.23589e-06
-2.92301e-06
-4.78501e-06
-5.56873e-06
-5.39358e-06
-8.3839e-06
-5.86055e-06
-1.13235e-05
-5.90814e-06
-1.41858e-05
-5.23388e-06
-1.64772e-05
-3.66667e-06
-1.72308e-05
-1.49979e-06
-1.48348e-05
-7.16441e-06
-1.6727e-06
7.91944e-06
-3.51321e-06
1.49652e-05
-4.31613e-06
1.64198e-05
-4.09024e-06
1.52205e-05
-3.1949e-06
1.29876e-05
-2.00106e-06
1.04947e-05
-7.97898e-07
8.06914e-06
2.16235e-07
5.8092e-06
9.14898e-07
3.70474e-06
1.22218e-06
1.69721e-06
1.09871e-06
-2.9421e-07
5.37925e-07
-2.36222e-06
-4.25711e-07
-4.6051e-06
-1.69488e-06
-7.11473e-06
-3.07418e-06
-9.94422e-06
-4.23201e-06
-1.30279e-05
-4.69619e-06
-1.60131e-05
-3.9667e-06
-1.79603e-05
-1.94353e-06
-1.68579e-05
-9.10795e-06
-2.22674e-06
1.01462e-05
-3.58856e-06
1.63271e-05
-3.07788e-06
1.59091e-05
-1.34461e-06
1.34873e-05
8.95799e-07
1.07472e-05
3.15322e-06
8.2373e-06
5.1359e-06
6.08645e-06
6.6861e-06
4.259e-06
7.72298e-06
2.66785e-06
8.2036e-06
1.2166e-06
8.10099e-06
-1.91606e-07
7.39636e-06
-1.65759e-06
6.08455e-06
-3.29329e-06
4.19736e-06
-5.22755e-06
1.85294e-06
-7.59979e-06
-6.62232e-07
-1.05128e-05
-2.79175e-06
-1.38835e-05
-3.65958e-06
-1.70924e-05
-2.40682e-06
-1.81107e-05
-1.15148e-05
-2.5598e-06
1.2706e-05
-2.18064e-06
1.59479e-05
7.18241e-07
1.30102e-05
4.4694e-06
9.7361e-06
8.13277e-06
7.08384e-06
1.13006e-05
5.06947e-06
1.38277e-05
3.55938e-06
1.56863e-05
2.40037e-06
1.68896e-05
1.46453e-06
1.74527e-05
6.53501e-07
1.73742e-05
-1.13138e-07
1.66286e-05
-9.11927e-07
1.51656e-05
-1.83031e-06
1.29224e-05
-2.98433e-06
9.86113e-06
-4.53854e-06
6.06189e-06
-6.71354e-06
1.91303e-06
-9.73467e-06
-1.5558e-06
-1.36236e-05
-2.44289e-06
-1.72236e-05
-1.39576e-05
-8.09825e-07
1.35158e-05
4.07601e-06
1.10621e-05
1.02972e-05
6.78906e-06
1.57937e-05
4.23956e-06
2.0158e-05
2.71951e-06
2.34578e-05
1.7697e-06
2.58602e-05
1.15699e-06
2.75206e-05
7.39953e-07
2.85529e-05
4.32235e-07
2.90252e-05
1.81192e-07
2.8961e-05
-4.89403e-08
2.83378e-05
-2.88651e-07
2.70811e-05
-5.73666e-07
2.50546e-05
-9.57862e-07
2.20515e-05
-1.5354e-06
1.78153e-05
-2.47732e-06
1.21717e-05
-4.09108e-06
5.47228e-06
-6.92419e-06
-1.56451e-07
-1.15949e-05
-1.41141e-05
1.35158e-05
2.45779e-05
3.13669e-05
3.56065e-05
3.8326e-05
4.00957e-05
4.12527e-05
4.19926e-05
4.24249e-05
4.26061e-05
4.25571e-05
4.22685e-05
4.16948e-05
4.0737e-05
3.92016e-05
3.67242e-05
3.26332e-05
2.5709e-05
1.41141e-05
)
;

boundaryField
{
    movingWall
    {
        type            calculated;
        value           uniform 0;
    }
    fixedWalls
    {
        type            calculated;
        value           uniform 0;
    }
    frontAndBack
    {
        type            empty;
        value           nonuniform List<scalar> 0();
    }
}


// ************************************************************************* //
