/*--------------------------------*- C++ -*----------------------------------*\
  =========                 |
  \\      /  F ield         | OpenFOAM: The Open Source CFD Toolbox
   \\    /   O peration     | Website:  https://openfoam.org
    \\  /    A nd           | Version:  8
     \\/     M anipulation  |
\*---------------------------------------------------------------------------*/
FoamFile
{
    version     2.0;
    format      ascii;
    class       volVectorField;
    location    "0.19";
    object      U;
}
// * * * * * * * * * * * * * * * * * * * * * * * * * * * * * * * * * * * * * //

dimensions      [0 1 -1 0 0 0 0];

internalField   nonuniform List<vector> 
400
(
(0.000253037 -0.000249672 0)
(0.00014077 0.000112083 0)
(-0.00117625 0.000565292 0)
(-0.00347874 0.000885661 0)
(-0.00637311 0.00104639 0)
(-0.0094629 0.00106242 0)
(-0.0123942 0.000958465 0)
(-0.0148745 0.000760942 0)
(-0.0166777 0.000494989 0)
(-0.0176458 0.000184715 0)
(-0.0176897 -0.000145318 0)
(-0.0167934 -0.000468614 0)
(-0.0150198 -0.000755834 0)
(-0.0125167 -0.000974815 0)
(-0.00952017 -0.00109182 0)
(-0.00635097 -0.00107467 0)
(-0.00339858 -0.000898791 0)
(-0.00108608 -0.000557023 0)
(0.000195617 -9.07232e-05 0)
(0.000267302 0.000262006 0)
(-7.7944e-05 -0.00016843 0)
(-0.00161074 0.00164448 0)
(-0.00568829 0.00361594 0)
(-0.0117098 0.00503264 0)
(-0.0188782 0.00574059 0)
(-0.0263813 0.00575751 0)
(-0.0334446 0.00516925 0)
(-0.0393979 0.00409063 0)
(-0.043712 0.00264647 0)
(-0.0460137 0.000966602 0)
(-0.0460961 -0.000812666 0)
(-0.0439299 -0.00254568 0)
(-0.039673 -0.00407655 0)
(-0.033679 -0.00524253 0)
(-0.0264949 -0.00588379 0)
(-0.0188415 -0.00586224 0)
(-0.0115585 -0.00509267 0)
(-0.00550936 -0.00358811 0)
(-0.00149265 -0.00155846 0)
(-4.31573e-05 0.000226922 0)
(-0.000529317 0.00109121 0)
(-0.00370965 0.00573211 0)
(-0.0105808 0.0102172 0)
(-0.0199767 0.013398 0)
(-0.030742 0.0149354 0)
(-0.0417913 0.0148279 0)
(-0.0520814 0.0132459 0)
(-0.0606995 0.0104485 0)
(-0.0669203 0.00673718 0)
(-0.0702314 0.00243737 0)
(-0.0703496 -0.00210456 0)
(-0.067236 -0.00652018 0)
(-0.0611089 -0.0104211 0)
(-0.0524516 -0.013411 0)
(-0.0420078 -0.0151125 0)
(-0.0307527 -0.0152149 0)
(-0.0198154 -0.0135467 0)
(-0.0103564 -0.010172 0)
(-0.00354721 -0.00554705 0)
(-0.000477614 -0.000948379 0)
(-0.000929067 0.00347743 0)
(-0.00568887 0.0122115 0)
(-0.0152908 0.0199072 0)
(-0.027897 0.0251795 0)
(-0.041956 0.0275769 0)
(-0.0561398 0.0271176 0)
(-0.0692037 0.0240912 0)
(-0.0800698 0.01894 0)
(-0.087887 0.0121869 0)
(-0.0920551 0.00440247 0)
(-0.09224 -0.00380429 0)
(-0.08839 -0.0117869 0)
(-0.0807507 -0.0188675 0)
(-0.0698766 -0.024358 0)
(-0.0566322 -0.0276075 0)
(-0.0421676 -0.0280819 0)
(-0.0278386 -0.0254802 0)
(-0.0150839 -0.0198781 0)
(-0.005503 -0.0119192 0)
(-0.000862545 -0.00322274 0)
(-0.00128004 0.00687296 0)
(-0.00753305 0.0209384 0)
(-0.019792 0.0324873 0)
(-0.0355124 0.0400749 0)
(-0.0527105 0.0432596 0)
(-0.069815 0.0421627 0)
(-0.0854102 0.0372509 0)
(-0.0982994 0.0291924 0)
(-0.107553 0.0187644 0)
(-0.112519 0.00680993 0)
(-0.112828 -0.00577476 0)
(-0.108409 -0.0180402 0)
(-0.0995028 -0.0289893 0)
(-0.0866883 -0.0376052 0)
(-0.0708947 -0.0429146 0)
(-0.0533998 -0.0440986 0)
(-0.0357642 -0.0406516 0)
(-0.0197238 -0.032571 0)
(-0.00736836 -0.0205766 0)
(-0.00120497 -0.00649399 0)
(-0.00160909 0.011208 0)
(-0.00931537 0.0318526 0)
(-0.0241961 0.0479195 0)
(-0.0429798 0.0580329 0)
(-0.063224 0.0618952 0)
(-0.0831094 0.0598403 0)
(-0.101071 0.0525923 0)
(-0.115831 0.0410979 0)
(-0.126422 0.0264198 0)
(-0.132168 0.00968786 0)
(-0.132681 -0.00790866 0)
(-0.127858 -0.0251124 0)
(-0.117907 -0.0405951 0)
(-0.103383 -0.0529819 0)
(-0.0852277 -0.0609249 0)
(-0.0648048 -0.0632387 0)
(-0.0438647 -0.0591045 0)
(-0.024466 -0.0483142 0)
(-0.00925251 -0.0315376 0)
(-0.0015396 -0.0107221 0)
(-0.00194226 0.0164667 0)
(-0.0111196 0.0449457 0)
(-0.0286385 0.066192 0)
(-0.0504592 0.07901 0)
(-0.0736552 0.0833936 0)
(-0.0961647 0.080023 0)
(-0.116304 0.0699794 0)
(-0.13276 0.0545501 0)
(-0.144571 0.0351102 0)
(-0.151079 0.0130784 0)
(-0.151887 -0.010077 0)
(-0.146856 -0.0328081 0)
(-0.136128 -0.0534623 0)
(-0.120177 -0.0702901 0)
(-0.0998952 -0.0815135 0)
(-0.0766734 -0.0854807 0)
(-0.0524212 -0.0809163 0)
(-0.0295342 -0.0672385 0)
(-0.0112829 -0.0449137 0)
(-0.00190269 -0.0159428 0)
(-0.00230308 0.0226822 0)
(-0.0130252 0.0602667 0)
(-0.0332417 0.0873147 0)
(-0.0580639 0.102938 0)
(-0.0840518 0.107603 0)
(-0.108923 0.102501 0)
(-0.13093 0.0891915 0)
(-0.148791 0.0693701 0)
(-0.161619 0.0447465 0)
(-0.168818 0.0170124 0)
(-0.170014 -0.0121225 0)
(-0.165024 -0.0408646 0)
(-0.153887 -0.0672708 0)
(-0.136933 -0.0892186 0)
(-0.114913 -0.104451 0)
(-0.0891538 -0.110735 0)
(-0.0616557 -0.106157 0)
(-0.0351399 -0.0895338 0)
(-0.0135869 -0.0609186 0)
(-0.00232996 -0.0222669 0)
(-0.00271577 0.0299327 0)
(-0.0151106 0.0779185 0)
(-0.0381098 0.111302 0)
(-0.0658396 0.129685 0)
(-0.0943139 0.134249 0)
(-0.121081 0.126907 0)
(-0.144421 0.109843 0)
(-0.163187 0.0852364 0)
(-0.176658 0.0551389 0)
(-0.184376 0.0214785 0)
(-0.186026 -0.0138627 0)
(-0.181392 -0.0489251 0)
(-0.170368 -0.0815452 0)
(-0.153058 -0.109263 0)
(-0.129952 -0.129314 0)
(-0.102172 -0.13876 0)
(-0.0716804 -0.134825 0)
(-0.041462 -0.115418 0)
(-0.0162916 -0.0798609 0)
(-0.00285965 -0.0298778 0)
(-0.00321315 0.0383449 0)
(-0.017472 0.0980499 0)
(-0.0433414 0.138133 0)
(-0.0737567 0.158978 0)
(-0.10416 0.162829 0)
(-0.13203 0.152603 0)
(-0.155822 0.131279 0)
(-0.174673 0.101592 0)
(-0.188161 0.0659275 0)
(-0.19606 0.0263802 0)
(-0.198177 -0.0151004 0)
(-0.194275 -0.0565124 0)
(-0.184074 -0.0955913 0)
(-0.16736 -0.129625 0)
(-0.144211 -0.155352 0)
(-0.115336 -0.169026 0)
(-0.0824444 -0.166737 0)
(-0.0486357 -0.145071 0)
(-0.0195356 -0.102124 0)
(-0.00354025 -0.0390352 0)
(-0.00385112 0.048115 0)
(-0.0202557 0.120855 0)
(-0.0490528 0.167697 0)
(-0.0816961 0.1903 0)
(-0.113066 0.192486 0)
(-0.140761 0.178544 0)
(-0.163638 0.15245 0)
(-0.181325 0.117544 0)
(-0.193863 0.076504 0)
(-0.201376 0.0314843 0)
(-0.203872 -0.0156469 0)
(-0.201124 -0.0630176 0)
(-0.192662 -0.10844 0)
(-0.177869 -0.149107 0)
(-0.156235 -0.181344 0)
(-0.127789 -0.200535 0)
(-0.0936513 -0.201359 0)
(-0.0567378 -0.178521 0)
(-0.0234907 -0.128138 0)
(-0.0044444 -0.0500934 0)
(-0.00473448 0.0595601 0)
(-0.0237081 0.146584 0)
(-0.0553948 0.199706 0)
(-0.0893952 0.222729 0)
(-0.120147 0.221824 0)
(-0.145706 0.20312 0)
(-0.165664 0.171779 0)
(-0.180408 0.131763 0)
(-0.190619 0.0859393 0)
(-0.196902 0.036366 0)
(-0.199539 -0.0153597 0)
(-0.198372 -0.0677118 0)
(-0.19275 -0.118818 0)
(-0.181604 -0.166016 0)
(-0.163671 -0.205419 0)
(-0.137988 -0.231592 0)
(-0.104611 -0.237563 0)
(-0.0657436 -0.215476 0)
(-0.0283931 -0.158336 0)
(-0.00569355 -0.0635435 0)
(-0.00606266 0.073221 0)
(-0.0282428 0.175537 0)
(-0.0625251 0.233529 0)
(-0.096283 0.254693 0)
(-0.123892 0.24867 0)
(-0.14444 0.223964 0)
(-0.158718 0.187051 0)
(-0.16816 0.142417 0)
(-0.174257 0.0929397 0)
(-0.178175 0.0403686 0)
(-0.180541 -0.0141891 0)
(-0.181319 -0.0697928 0)
(-0.179745 -0.125166 0)
(-0.174314 -0.178123 0)
(-0.162933 -0.22491 0)
(-0.143347 -0.259525 0)
(-0.11396 -0.273274 0)
(-0.0754077 -0.255025 0)
(-0.034576 -0.193066 0)
(-0.0075004 -0.0800991 0)
(-0.00820411 0.090043 0)
(-0.0345012 0.208004 0)
(-0.0704307 0.267853 0)
(-0.101053 0.283562 0)
(-0.121615 0.269759 0)
(-0.133157 0.237786 0)
(-0.138219 0.195354 0)
(-0.139525 0.147192 0)
(-0.139434 0.0958825 0)
(-0.139664 0.0426095 0)
(-0.141177 -0.0122254 0)
(-0.14412 -0.0684825 0)
(-0.147729 -0.125755 0)
(-0.150223 -0.182719 0)
(-0.148766 -0.236268 0)
(-0.139681 -0.280392 0)
(-0.119122 -0.304979 0)
(-0.0849527 -0.295127 0)
(-0.0424618 -0.232362 0)
(-0.0102314 -0.100835 0)
(-0.0117766 0.111634 0)
(-0.0432735 0.243956 0)
(-0.0783135 0.300016 0)
(-0.100657 0.305059 0)
(-0.108391 0.280417 0)
(-0.10578 0.240337 0)
(-0.0975869 0.193238 0)
(-0.0878355 0.143514 0)
(-0.0795708 0.0930127 0)
(-0.0748578 0.0420859 0)
(-0.0748753 -0.00972294 0)
(-0.0799602 -0.0631909 0)
(-0.0895267 -0.118957 0)
(-0.101845 -0.176915 0)
(-0.113733 -0.235238 0)
(-0.120342 -0.288836 0)
(-0.115289 -0.327158 0)
(-0.0922798 -0.331773 0)
(-0.0523303 -0.275399 0)
(-0.0144418 -0.127346 0)
(-0.0175443 0.140648 0)
(-0.0547579 0.282156 0)
(-0.0827927 0.324715 0)
(-0.0881035 0.31245 0)
(-0.0751417 0.274423 0)
(-0.0526337 0.226735 0)
(-0.0275106 0.177254 0)
(-0.00457483 0.129107 0)
(0.0130325 0.0828941 0)
(0.0233703 0.0379393 0)
(0.0253286 -0.00706922 0)
(0.0184405 -0.0537429 0)
(0.00291884 -0.103726 0)
(-0.0200494 -0.158288 0)
(-0.0477279 -0.217466 0)
(-0.0750153 -0.278326 0)
(-0.0935647 -0.331764 0)
(-0.0920639 -0.357676 0)
(-0.0632683 -0.319305 0)
(-0.0206277 -0.16196 0)
(-0.0253972 0.181649 0)
(-0.0657087 0.317832 0)
(-0.0733226 0.331388 0)
(-0.0480893 0.295387 0)
(-0.00559839 0.244187 0)
(0.0411883 0.192353 0)
(0.0846124 0.145021 0)
(0.120487 0.102951 0)
(0.146646 0.0651238 0)
(0.161987 0.0298857 0)
(0.165881 -0.00466856 0)
(0.157878 -0.0406171 0)
(0.13768 -0.080228 0)
(0.105397 -0.125894 0)
(0.0622308 -0.179701 0)
(0.0117879 -0.241998 0)
(-0.0378352 -0.307866 0)
(-0.0716581 -0.360172 0)
(-0.0699693 -0.356673 0)
(-0.0278493 -0.208297 0)
(-0.0294353 0.238941 0)
(-0.0606121 0.335946 0)
(-0.0219369 0.300588 0)
(0.0505273 0.24013 0)
(0.127567 0.182934 0)
(0.196994 0.135372 0)
(0.254312 0.0973829 0)
(0.298217 0.066838 0)
(0.328784 0.0413467 0)
(0.346423 0.0187751 0)
(0.351331 -0.00279222 0)
(0.34326 -0.0252583 0)
(0.321432 -0.0507768 0)
(0.284614 -0.0820347 0)
(0.231555 -0.122433 0)
(0.162175 -0.175661 0)
(0.0798897 -0.243444 0)
(-0.00317521 -0.319231 0)
(-0.0543922 -0.368792 0)
(-0.0282106 -0.267341 0)
(0.00867951 0.281481 0)
(0.020362 0.295062 0)
(0.138999 0.211061 0)
(0.26441 0.143514 0)
(0.364369 0.0972091 0)
(0.440365 0.0657947 0)
(0.496734 0.0442493 0)
(0.536857 0.0288935 0)
(0.563425 0.0172035 0)
(0.578281 0.0074874 0)
(0.582355 -0.00149329 0)
(0.575672 -0.0108463 0)
(0.55729 -0.0218511 0)
(0.525122 -0.036344 0)
(0.475773 -0.0572761 0)
(0.404535 -0.0894111 0)
(0.30512 -0.139788 0)
(0.173335 -0.216479 0)
(0.041796 -0.311729 0)
(0.0190845 -0.29959 0)
(0.300182 0.14589 0)
(0.396872 0.12746 0)
(0.55741 0.0761134 0)
(0.674459 0.0437531 0)
(0.743892 0.0255994 0)
(0.787153 0.0152649 0)
(0.815479 0.00922941 0)
(0.833946 0.00552124 0)
(0.845374 0.00303466 0)
(0.85136 0.00115317 0)
(0.852655 -0.000499125 0)
(0.849372 -0.00221816 0)
(0.84099 -0.00434578 0)
(0.826133 -0.00743668 0)
(0.802075 -0.0125515 0)
(0.763619 -0.0217996 0)
(0.69907 -0.0393168 0)
(0.583907 -0.0726888 0)
(0.416411 -0.127821 0)
(0.309416 -0.149275 0)
)
;

boundaryField
{
    movingWall
    {
        type            fixedValue;
        value           uniform (1 0 0);
    }
    fixedWalls
    {
        type            noSlip;
    }
    frontAndBack
    {
        type            empty;
    }
}


// ************************************************************************* //
