/*--------------------------------*- C++ -*----------------------------------*\
  =========                 |
  \\      /  F ield         | OpenFOAM: The Open Source CFD Toolbox
   \\    /   O peration     | Website:  https://openfoam.org
    \\  /    A nd           | Version:  8
     \\/     M anipulation  |
\*---------------------------------------------------------------------------*/
FoamFile
{
    version     2.0;
    format      ascii;
    class       volScalarField;
    location    "36";
    object      p;
}
// * * * * * * * * * * * * * * * * * * * * * * * * * * * * * * * * * * * * * //

dimensions      [0 2 -2 0 0 0 0];

internalField   nonuniform List<scalar> 
400
(
-3.48159e-11
-3.61361e-11
-3.86672e-11
-4.19659e-11
-4.56436e-11
-4.94731e-11
-5.32892e-11
-5.69655e-11
-6.03416e-11
-6.32321e-11
-6.54308e-11
-6.67142e-11
-6.68439e-11
-6.55594e-11
-6.25829e-11
-5.75887e-11
-5.03081e-11
-4.01362e-11
-2.71256e-11
-8.49085e-12
-3.32384e-11
-3.41777e-11
-3.61128e-11
-3.8733e-11
-4.17105e-11
-4.48561e-11
-4.80147e-11
-5.10491e-11
-5.38061e-11
-5.61113e-11
-5.77709e-11
-5.85785e-11
-5.83223e-11
-5.67732e-11
-5.36863e-11
-4.87596e-11
-4.18179e-11
-3.22542e-11
-2.07418e-11
-4.15519e-12
-3.04378e-11
-3.10109e-11
-3.2359e-11
-3.43071e-11
-3.65839e-11
-3.90299e-11
-4.15042e-11
-4.3873e-11
-4.59936e-11
-4.77063e-11
-4.88359e-11
-4.92021e-11
-4.86278e-11
-4.69247e-11
-4.38931e-11
-3.92823e-11
-3.30163e-11
-2.45637e-11
-1.50832e-11
-1.16942e-12
-2.70375e-11
-2.74398e-11
-2.84453e-11
-2.99603e-11
-3.17622e-11
-3.3711e-11
-3.569e-11
-3.75789e-11
-3.92454e-11
-4.05447e-11
-4.13242e-11
-4.14325e-11
-4.07218e-11
-3.90373e-11
-3.62263e-11
-3.20935e-11
-2.66343e-11
-1.93613e-11
-1.16308e-11
2.59406e-13
-2.32599e-11
-2.3564e-11
-2.43354e-11
-2.5524e-11
-2.69533e-11
-2.85047e-11
-3.00832e-11
-3.15842e-11
-3.28865e-11
-3.38627e-11
-3.43862e-11
-3.43381e-11
-3.3597e-11
-3.20322e-11
-2.95316e-11
-2.59506e-11
-2.13286e-11
-1.52161e-11
-8.99438e-12
1.08509e-12
-1.91761e-11
-1.94021e-11
-1.99769e-11
-2.08893e-11
-2.20006e-11
-2.32133e-11
-2.44505e-11
-2.56209e-11
-2.66182e-11
-2.73327e-11
-2.76663e-11
-2.75336e-11
-2.68396e-11
-2.5472e-11
-2.33511e-11
-2.03767e-11
-1.6604e-11
-1.16368e-11
-6.77299e-12
1.49585e-12
-1.48519e-11
-1.50113e-11
-1.54247e-11
-1.61023e-11
-1.69432e-11
-1.78697e-11
-1.88187e-11
-1.97123e-11
-2.04606e-11
-2.09756e-11
-2.11854e-11
-2.1035e-11
-2.04555e-11
-1.93505e-11
-1.76631e-11
-1.53307e-11
-1.24103e-11
-8.56823e-12
-4.92718e-12
1.531e-12
-1.03588e-11
-1.04605e-11
-1.0744e-11
-1.12211e-11
-1.18297e-11
-1.25114e-11
-1.3213e-11
-1.38711e-11
-1.44168e-11
-1.47859e-11
-1.49302e-11
-1.48166e-11
-1.43997e-11
-1.36032e-11
-1.23835e-11
-1.07064e-11
-8.62558e-12
-5.88185e-12
-3.34667e-12
1.29886e-12
-5.76209e-12
-5.81534e-12
-5.98562e-12
-6.28765e-12
-6.69157e-12
-7.15465e-12
-7.63482e-12
-8.0855e-12
-8.46057e-12
-8.72185e-12
-8.84379e-12
-8.80699e-12
-8.58196e-12
-8.1176e-12
-7.38193e-12
-6.36088e-12
-5.10018e-12
-3.43238e-12
-1.92739e-12
8.93451e-13
-1.11795e-12
-1.1284e-12
-1.19243e-12
-1.33562e-12
-1.54933e-12
-1.80582e-12
-2.07812e-12
-2.33857e-12
-2.56288e-12
-2.73905e-12
-2.86369e-12
-2.92673e-12
-2.90829e-12
-2.78369e-12
-2.53769e-12
-2.17282e-12
-1.72341e-12
-1.12631e-12
-6.19027e-13
3.72683e-13
3.52474e-12
3.55884e-12
3.59678e-12
3.60762e-12
3.58427e-12
3.53601e-12
3.46938e-12
3.39266e-12
3.31141e-12
3.21417e-12
3.08143e-12
2.91325e-12
2.7228e-12
2.50821e-12
2.26218e-12
1.96331e-12
1.59207e-12
1.10634e-12
6.19806e-13
-2.06824e-13
8.12081e-12
8.19989e-12
8.33762e-12
8.50874e-12
8.68836e-12
8.86063e-12
9.0098e-12
9.12431e-12
9.19292e-12
9.18562e-12
9.05913e-12
8.79958e-12
8.41094e-12
7.86425e-12
7.12622e-12
6.1519e-12
4.94157e-12
3.35715e-12
1.86487e-12
-7.63732e-13
1.26192e-11
1.27392e-11
1.29796e-11
1.33267e-11
1.37301e-11
1.41439e-11
1.45306e-11
1.48594e-11
1.51028e-11
1.52134e-11
1.51263e-11
1.48074e-11
1.42448e-11
1.33818e-11
1.21576e-11
1.05022e-11
8.43858e-12
5.74661e-12
3.22017e-12
-1.20309e-12
1.69685e-11
1.71259e-11
1.74831e-11
1.80317e-11
1.86876e-11
1.93744e-11
2.00332e-11
2.06151e-11
2.10742e-11
2.13466e-11
2.13453e-11
2.10121e-11
2.03117e-11
1.9157e-11
1.74617e-11
1.5133e-11
1.22127e-11
8.4109e-12
4.78722e-12
-1.44352e-12
2.11234e-11
2.13238e-11
2.1826e-11
2.26149e-11
2.35646e-11
2.4569e-11
2.55492e-11
2.6437e-11
2.71663e-11
2.76545e-11
2.77933e-11
2.74986e-11
2.6705e-11
2.52945e-11
2.31574e-11
2.01797e-11
1.64106e-11
1.14939e-11
6.66386e-12
-1.40287e-12
2.50426e-11
2.52979e-11
2.59836e-11
2.70632e-11
2.83592e-11
2.97372e-11
3.10985e-11
3.23529e-11
3.3412e-11
3.41729e-11
3.45086e-11
3.43077e-11
3.34733e-11
3.18565e-11
2.93228e-11
2.57373e-11
2.11361e-11
1.50914e-11
8.91321e-12
-9.98372e-13
2.86814e-11
2.90143e-11
2.99314e-11
3.13598e-11
3.30608e-11
3.48729e-11
3.6677e-11
3.83586e-11
3.98045e-11
4.08927e-11
4.14797e-11
4.14306e-11
4.06162e-11
3.88547e-11
3.59831e-11
3.184e-11
2.64248e-11
1.92311e-11
1.15282e-11
-2.16275e-13
3.19679e-11
3.24659e-11
3.37297e-11
3.56175e-11
3.78237e-11
4.01644e-11
4.25037e-11
4.47023e-11
4.66227e-11
4.81251e-11
4.90529e-11
4.92489e-11
4.85492e-11
4.67399e-11
4.36206e-11
3.89869e-11
3.27742e-11
2.44011e-11
1.49257e-11
1.14621e-12
3.46774e-11
3.55427e-11
3.7401e-11
3.99839e-11
4.29057e-11
4.59655e-11
4.90194e-11
5.19118e-11
5.44865e-11
5.65893e-11
5.80496e-11
5.86832e-11
5.82872e-11
5.66162e-11
5.34313e-11
4.84673e-11
4.15554e-11
3.20536e-11
2.0557e-11
4.09691e-12
3.62215e-11
3.74596e-11
3.99205e-11
4.31927e-11
4.68089e-11
5.05518e-11
5.42753e-11
5.78205e-11
6.10208e-11
6.37136e-11
6.57208e-11
6.6838e-11
6.68289e-11
6.54195e-11
6.23424e-11
5.73084e-11
5.00441e-11
3.9909e-11
2.69326e-11
8.41995e-12
)
;

boundaryField
{
    inlet
    {
        type            zeroGradient;
    }
    outlet
    {
        type            fixedValue;
        value           uniform 0;
    }
    up
    {
        type            zeroGradient;
    }
    down
    {
        type            zeroGradient;
    }
    frontAndBack
    {
        type            empty;
    }
}


// ************************************************************************* //
