/*--------------------------------*- C++ -*----------------------------------*\
  =========                 |
  \\      /  F ield         | OpenFOAM: The Open Source CFD Toolbox
   \\    /   O peration     | Website:  https://openfoam.org
    \\  /    A nd           | Version:  8
     \\/     M anipulation  |
\*---------------------------------------------------------------------------*/
FoamFile
{
    version     2.0;
    format      ascii;
    class       volScalarField;
    location    "0.18";
    object      p;
}
// * * * * * * * * * * * * * * * * * * * * * * * * * * * * * * * * * * * * * //

dimensions      [0 2 -2 0 0 0 0];

internalField   nonuniform List<scalar> 
400
(
-9.19832e-13
-2.15274e-06
-4.12182e-06
-5.76573e-06
-6.93864e-06
-7.60262e-06
-7.79524e-06
-7.56631e-06
-6.97764e-06
-6.10137e-06
-5.05323e-06
-3.94886e-06
-2.82604e-06
-1.66346e-06
-4.64399e-07
7.10821e-07
1.77432e-06
2.57366e-06
2.72175e-06
1.81954e-06
-1.16118e-06
-2.82517e-06
-4.29697e-06
-5.48742e-06
-6.37463e-06
-6.87206e-06
-6.98615e-06
-6.7841e-06
-6.29732e-06
-5.56966e-06
-4.7191e-06
-3.8638e-06
-3.02961e-06
-2.18138e-06
-1.3128e-06
-4.67917e-07
3.18256e-07
9.59031e-07
1.10363e-06
3.43977e-07
-2.2415e-06
-3.72682e-06
-4.82313e-06
-5.63938e-06
-6.2335e-06
-6.54489e-06
-6.57793e-06
-6.36742e-06
-5.91883e-06
-5.27218e-06
-4.54635e-06
-3.85332e-06
-3.2087e-06
-2.5642e-06
-1.89611e-06
-1.22447e-06
-5.50009e-07
5.28926e-08
1.80408e-07
-6.57159e-07
-3.27229e-06
-4.74882e-06
-5.5113e-06
-5.95327e-06
-6.26443e-06
-6.40948e-06
-6.37035e-06
-6.14221e-06
-5.71061e-06
-5.11553e-06
-4.47873e-06
-3.90758e-06
-3.40353e-06
-2.8956e-06
-2.33685e-06
-1.73593e-06
-1.08503e-06
-4.6415e-07
-3.90662e-07
-1.45327e-06
-4.02589e-06
-5.5499e-06
-6.06482e-06
-6.1862e-06
-6.28373e-06
-6.32019e-06
-6.22791e-06
-5.97903e-06
-5.5611e-06
-5.02071e-06
-4.4742e-06
-4.01027e-06
-3.60817e-06
-3.18134e-06
-2.67328e-06
-2.08671e-06
-1.41923e-06
-7.56127e-07
-6.99034e-07
-1.96109e-06
-4.34626e-06
-5.93216e-06
-6.32912e-06
-6.26413e-06
-6.23567e-06
-6.2024e-06
-6.06635e-06
-5.80493e-06
-5.42164e-06
-4.96147e-06
-4.51435e-06
-4.13538e-06
-3.78368e-06
-3.37372e-06
-2.86441e-06
-2.26485e-06
-1.56144e-06
-8.35889e-07
-7.35369e-07
-2.08725e-06
-4.28408e-06
-5.97592e-06
-6.3759e-06
-6.24457e-06
-6.14824e-06
-6.05997e-06
-5.89174e-06
-5.64208e-06
-5.32043e-06
-4.95098e-06
-4.58673e-06
-4.25551e-06
-3.91294e-06
-3.48537e-06
-2.9465e-06
-2.31307e-06
-1.55582e-06
-7.43023e-07
-5.55194e-07
-1.90452e-06
-4.01282e-06
-5.84133e-06
-6.31613e-06
-6.18408e-06
-6.0524e-06
-5.93129e-06
-5.75931e-06
-5.54748e-06
-5.29454e-06
-4.99632e-06
-4.67717e-06
-4.35616e-06
-4.00144e-06
-3.55449e-06
-2.9913e-06
-2.32005e-06
-1.4943e-06
-5.71179e-07
-2.62793e-07
-1.55641e-06
-3.69761e-06
-5.66684e-06
-6.24259e-06
-6.13577e-06
-5.99708e-06
-5.87734e-06
-5.73116e-06
-5.56691e-06
-5.36541e-06
-5.09987e-06
-4.78253e-06
-4.4416e-06
-4.06568e-06
-3.60601e-06
-3.02967e-06
-2.32642e-06
-1.43305e-06
-3.99554e-07
3.60572e-08
-1.18619e-06
-3.42849e-06
-5.5232e-06
-6.20665e-06
-6.14443e-06
-6.02888e-06
-5.93849e-06
-5.82858e-06
-5.69933e-06
-5.51807e-06
-5.24549e-06
-4.89335e-06
-4.50829e-06
-4.10165e-06
-3.62898e-06
-3.04352e-06
-2.31906e-06
-1.38278e-06
-2.76013e-07
2.60586e-07
-8.88726e-07
-3.25783e-06
-5.44531e-06
-6.24135e-06
-6.24931e-06
-6.17929e-06
-6.12351e-06
-6.03474e-06
-5.91156e-06
-5.7181e-06
-5.40968e-06
-4.99999e-06
-4.55396e-06
-4.10519e-06
-3.61379e-06
-3.02236e-06
-2.29609e-06
-1.35994e-06
-2.42606e-07
3.45115e-07
-7.30549e-07
-3.23657e-06
-5.47232e-06
-6.3788e-06
-6.47455e-06
-6.45254e-06
-6.41336e-06
-6.31609e-06
-6.16866e-06
-5.93981e-06
-5.58113e-06
-5.10446e-06
-4.58801e-06
-4.08632e-06
-3.56905e-06
-2.97681e-06
-2.27307e-06
-1.38346e-06
-3.22176e-07
2.53614e-07
-7.61008e-07
-3.38473e-06
-5.61941e-06
-6.61167e-06
-6.78884e-06
-6.79953e-06
-6.75253e-06
-6.62371e-06
-6.43582e-06
-6.16276e-06
-5.74944e-06
-5.20151e-06
-4.60706e-06
-4.04185e-06
-3.49153e-06
-2.90392e-06
-2.24527e-06
-1.4411e-06
-4.93008e-07
4.37878e-09
-9.82136e-07
-3.65517e-06
-5.83969e-06
-6.86943e-06
-7.10255e-06
-7.13157e-06
-7.06881e-06
-6.9076e-06
-6.68165e-06
-6.36525e-06
-5.89414e-06
-5.26827e-06
-4.5871e-06
-3.9494e-06
-3.36067e-06
-2.7811e-06
-2.18214e-06
-1.49058e-06
-7.0016e-07
-3.38513e-07
-1.3342e-06
-3.94967e-06
-6.04564e-06
-7.06777e-06
-7.33606e-06
-7.38785e-06
-7.32698e-06
-7.15287e-06
-6.89995e-06
-6.5398e-06
-6.00284e-06
-5.29011e-06
-4.51614e-06
-3.80149e-06
-3.16937e-06
-2.59318e-06
-2.05436e-06
-1.49028e-06
-8.9009e-07
-7.00584e-07
-1.72813e-06
-4.16547e-06
-6.15188e-06
-7.16318e-06
-7.47894e-06
-7.57992e-06
-7.5512e-06
-7.38612e-06
-7.11245e-06
-6.70228e-06
-6.09085e-06
-5.28785e-06
-4.4214e-06
-3.6263e-06
-2.9385e-06
-2.34719e-06
-1.85399e-06
-1.42031e-06
-1.02766e-06
-1.0218e-06
-2.08248e-06
-4.24558e-06
-6.10964e-06
-7.15366e-06
-7.57344e-06
-7.76494e-06
-7.79214e-06
-7.64307e-06
-7.34479e-06
-6.87916e-06
-6.19349e-06
-5.30482e-06
-4.34556e-06
-3.45799e-06
-2.6942e-06
-2.06631e-06
-1.59894e-06
-1.27858e-06
-1.08396e-06
-1.25715e-06
-2.3233e-06
-4.17185e-06
-5.9549e-06
-7.10128e-06
-7.69705e-06
-8.01563e-06
-8.1047e-06
-7.96371e-06
-7.63278e-06
-7.10754e-06
-6.34322e-06
-5.35925e-06
-4.29156e-06
-3.2922e-06
-2.43076e-06
-1.74209e-06
-1.27114e-06
-1.01794e-06
-9.70147e-07
-1.30015e-06
-2.36456e-06
-3.93145e-06
-5.80454e-06
-7.17163e-06
-8.00812e-06
-8.47435e-06
-8.61589e-06
-8.46536e-06
-8.08417e-06
-7.47578e-06
-6.59719e-06
-5.47515e-06
-4.26011e-06
-3.11607e-06
-2.11798e-06
-1.3107e-06
-7.61474e-07
-4.9138e-07
-5.01134e-07
-9.49024e-07
-2.10488e-06
-3.54976e-06
-5.83095e-06
-7.60198e-06
-8.74168e-06
-9.36753e-06
-9.54749e-06
-9.35838e-06
-8.88031e-06
-8.12551e-06
-7.06298e-06
-5.73336e-06
-4.29489e-06
-2.92084e-06
-1.70238e-06
-6.82998e-07
8.31259e-08
5.28277e-07
5.70916e-07
1.88099e-08
-1.3952e-06
)
;

boundaryField
{
    movingWall
    {
        type            zeroGradient;
    }
    fixedWalls
    {
        type            zeroGradient;
    }
    left
    {
        type            cyclic;
    }
    right
    {
        type            cyclic;
    }
    frontAndBack
    {
        type            empty;
    }
}


// ************************************************************************* //
