0 	0 	0 	0
1.57135 	0.00102935 	-0.0095324 	0
3.1427 	-0.0395184 	0.0333085 	0
4.71405 	-0.0660006 	0.084677 	0
6.28539 	-0.0436083 	0.0825601 	0
7.85674 	-0.00203584 	0.0353896 	0
9.42809 	0.0445807 	-0.0123412 	0
10.9994 	0.0540472 	-0.0426773 	0
12.5708 	0.116826 	-0.105689 	0
14.1421 	0.5 	0 	0
